 Molden2AIM, Version 4.0.0 (06/02/2016)           Time: Fri Jun 29 22:42:27 2018
GAUSSIAN             34 MOL ORBITALS    526 PRIMITIVES        2 NUCLEI
  Se   1    (CENTRE  1)   0.00000000  0.00000000  2.04500114  CHARGE = 34.0
  Se   2    (CENTRE  2)   0.00000000  0.00000000 -2.04500114  CHARGE = 34.0
CENTRE ASSIGNMENTS    1  1  1  1  1  1  1  1  1  1  1  1  1  1  1  1  1  1  1  1
CENTRE ASSIGNMENTS    1  1  1  1  1  1  1  1  1  1  1  1  1  1  1  1  1  1  1  1
CENTRE ASSIGNMENTS    1  1  1  1  1  1  1  1  1  1  1  1  1  1  1  1  1  1  1  1
CENTRE ASSIGNMENTS    1  1  1  1  1  1  1  1  1  1  1  1  1  1  1  1  1  1  1  1
CENTRE ASSIGNMENTS    1  1  1  1  1  1  1  1  1  1  1  1  1  1  1  1  1  1  1  1
CENTRE ASSIGNMENTS    1  1  1  1  1  1  1  1  1  1  1  1  1  1  1  1  1  1  1  1
CENTRE ASSIGNMENTS    1  1  1  1  1  1  1  1  1  1  1  1  1  1  1  1  1  1  1  1
CENTRE ASSIGNMENTS    1  1  1  1  1  1  1  1  1  1  1  1  1  1  1  1  1  1  1  1
CENTRE ASSIGNMENTS    1  1  1  1  1  1  1  1  1  1  1  1  1  1  1  1  1  1  1  1
CENTRE ASSIGNMENTS    1  1  1  1  1  1  1  1  1  1  1  1  1  1  1  1  1  1  1  1
CENTRE ASSIGNMENTS    1  1  1  1  1  1  1  1  1  1  1  1  1  1  1  1  1  1  1  1
CENTRE ASSIGNMENTS    1  1  1  1  1  1  1  1  1  1  1  1  1  1  1  1  1  1  1  1
CENTRE ASSIGNMENTS    1  1  1  1  1  1  1  1  1  1  1  1  1  1  1  1  1  1  1  1
CENTRE ASSIGNMENTS    1  1  1  2  2  2  2  2  2  2  2  2  2  2  2  2  2  2  2  2
CENTRE ASSIGNMENTS    2  2  2  2  2  2  2  2  2  2  2  2  2  2  2  2  2  2  2  2
CENTRE ASSIGNMENTS    2  2  2  2  2  2  2  2  2  2  2  2  2  2  2  2  2  2  2  2
CENTRE ASSIGNMENTS    2  2  2  2  2  2  2  2  2  2  2  2  2  2  2  2  2  2  2  2
CENTRE ASSIGNMENTS    2  2  2  2  2  2  2  2  2  2  2  2  2  2  2  2  2  2  2  2
CENTRE ASSIGNMENTS    2  2  2  2  2  2  2  2  2  2  2  2  2  2  2  2  2  2  2  2
CENTRE ASSIGNMENTS    2  2  2  2  2  2  2  2  2  2  2  2  2  2  2  2  2  2  2  2
CENTRE ASSIGNMENTS    2  2  2  2  2  2  2  2  2  2  2  2  2  2  2  2  2  2  2  2
CENTRE ASSIGNMENTS    2  2  2  2  2  2  2  2  2  2  2  2  2  2  2  2  2  2  2  2
CENTRE ASSIGNMENTS    2  2  2  2  2  2  2  2  2  2  2  2  2  2  2  2  2  2  2  2
CENTRE ASSIGNMENTS    2  2  2  2  2  2  2  2  2  2  2  2  2  2  2  2  2  2  2  2
CENTRE ASSIGNMENTS    2  2  2  2  2  2  2  2  2  2  2  2  2  2  2  2  2  2  2  2
CENTRE ASSIGNMENTS    2  2  2  2  2  2  2  2  2  2  2  2  2  2  2  2  2  2  2  2
CENTRE ASSIGNMENTS    2  2  2  2  2  2
TYPE ASSIGNMENTS      1  1  1  1  1  1  1  1  1  1  1  1  1  1  1  1  1  1  1  1
TYPE ASSIGNMENTS      1  1  1  1  1  1  1  1  1  1  1  1  1  1  1  1  1  1  1  1
TYPE ASSIGNMENTS      1  1  1  1  1  1  1  1  1  1  1  1  1  1  1  1  1  1  1  1
TYPE ASSIGNMENTS      1  1  1  1  1  1  1  1  1  1  1  1  1  1  1  2  2  2  2  2
TYPE ASSIGNMENTS      2  2  2  2  2  2  3  3  3  3  3  3  3  3  3  3  3  4  4  4
TYPE ASSIGNMENTS      4  4  4  4  4  4  4  4  2  2  2  2  2  2  2  2  2  2  2  3
TYPE ASSIGNMENTS      3  3  3  3  3  3  3  3  3  3  4  4  4  4  4  4  4  4  4  4
TYPE ASSIGNMENTS      4  2  2  2  2  2  2  2  2  2  2  2  3  3  3  3  3  3  3  3
TYPE ASSIGNMENTS      3  3  3  4  4  4  4  4  4  4  4  4  4  4  2  3  4  2  3  4
TYPE ASSIGNMENTS      2  3  4  5  5  5  5  5  5  5  6  6  6  6  6  6  6  7  7  7
TYPE ASSIGNMENTS      7  7  7  7  8  8  8  8  8  8  8  9  9  9  9  9  9  9 10 10
TYPE ASSIGNMENTS     10 10 10 10 10  5  6  7  8  9 10  5  6  7  8  9 10  5  6  7
TYPE ASSIGNMENTS      8  9 10 11 12 13 17 14 15 18 19 16 20 11 12 13 17 14 15 18
TYPE ASSIGNMENTS     19 16 20  1  1  1  1  1  1  1  1  1  1  1  1  1  1  1  1  1
TYPE ASSIGNMENTS      1  1  1  1  1  1  1  1  1  1  1  1  1  1  1  1  1  1  1  1
TYPE ASSIGNMENTS      1  1  1  1  1  1  1  1  1  1  1  1  1  1  1  1  1  1  1  1
TYPE ASSIGNMENTS      1  1  1  1  1  1  1  1  1  1  1  1  1  1  1  1  1  1  2  2
TYPE ASSIGNMENTS      2  2  2  2  2  2  2  2  2  3  3  3  3  3  3  3  3  3  3  3
TYPE ASSIGNMENTS      4  4  4  4  4  4  4  4  4  4  4  2  2  2  2  2  2  2  2  2
TYPE ASSIGNMENTS      2  2  3  3  3  3  3  3  3  3  3  3  3  4  4  4  4  4  4  4
TYPE ASSIGNMENTS      4  4  4  4  2  2  2  2  2  2  2  2  2  2  2  3  3  3  3  3
TYPE ASSIGNMENTS      3  3  3  3  3  3  4  4  4  4  4  4  4  4  4  4  4  2  3  4
TYPE ASSIGNMENTS      2  3  4  2  3  4  5  5  5  5  5  5  5  6  6  6  6  6  6  6
TYPE ASSIGNMENTS      7  7  7  7  7  7  7  8  8  8  8  8  8  8  9  9  9  9  9  9
TYPE ASSIGNMENTS      9 10 10 10 10 10 10 10  5  6  7  8  9 10  5  6  7  8  9 10
TYPE ASSIGNMENTS      5  6  7  8  9 10 11 12 13 17 14 15 18 19 16 20 11 12 13 17
TYPE ASSIGNMENTS     14 15 18 19 16 20
EXPONENTS  0.9563600D+07 0.1432100D+07 0.3259100D+06 0.9231200D+05 0.3011600D+05
EXPONENTS  0.1087200D+05 0.4240100D+04 0.1758400D+04 0.7665900D+03 0.3484300D+03
EXPONENTS  0.1640300D+03 0.7914200D+02 0.3552400D+02 0.1730500D+02 0.8378400D+01
EXPONENTS  0.3740500D+01 0.1689000D+01 0.2552000D+00 0.9563600D+07 0.1432100D+07
EXPONENTS  0.3259100D+06 0.9231200D+05 0.3011600D+05 0.1087200D+05 0.4240100D+04
EXPONENTS  0.1758400D+04 0.7665900D+03 0.3484300D+03 0.1640300D+03 0.7914200D+02
EXPONENTS  0.3552400D+02 0.1730500D+02 0.8378400D+01 0.3740500D+01 0.1689000D+01
EXPONENTS  0.2552000D+00 0.9563600D+07 0.1432100D+07 0.3259100D+06 0.9231200D+05
EXPONENTS  0.3011600D+05 0.1087200D+05 0.4240100D+04 0.1758400D+04 0.7665900D+03
EXPONENTS  0.3484300D+03 0.1640300D+03 0.7914200D+02 0.3552400D+02 0.1730500D+02
EXPONENTS  0.8378400D+01 0.3740500D+01 0.1689000D+01 0.2552000D+00 0.9563600D+07
EXPONENTS  0.1432100D+07 0.3259100D+06 0.9231200D+05 0.3011600D+05 0.1087200D+05
EXPONENTS  0.4240100D+04 0.1758400D+04 0.7665900D+03 0.3484300D+03 0.1640300D+03
EXPONENTS  0.7914200D+02 0.3552400D+02 0.1730500D+02 0.8378400D+01 0.3740500D+01
EXPONENTS  0.1689000D+01 0.2552000D+00 0.5092700D+00 0.1065100D+00 0.3920100D-01
EXPONENTS  0.8004300D+04 0.1896900D+04 0.6147100D+03 0.2335000D+03 0.9785600D+02
EXPONENTS  0.4351400D+02 0.2006300D+02 0.9112700D+01 0.4106300D+01 0.1794900D+01
EXPONENTS  0.2461500D+00 0.8004300D+04 0.1896900D+04 0.6147100D+03 0.2335000D+03
EXPONENTS  0.9785600D+02 0.4351400D+02 0.2006300D+02 0.9112700D+01 0.4106300D+01
EXPONENTS  0.1794900D+01 0.2461500D+00 0.8004300D+04 0.1896900D+04 0.6147100D+03
EXPONENTS  0.2335000D+03 0.9785600D+02 0.4351400D+02 0.2006300D+02 0.9112700D+01
EXPONENTS  0.4106300D+01 0.1794900D+01 0.2461500D+00 0.8004300D+04 0.1896900D+04
EXPONENTS  0.6147100D+03 0.2335000D+03 0.9785600D+02 0.4351400D+02 0.2006300D+02
EXPONENTS  0.9112700D+01 0.4106300D+01 0.1794900D+01 0.2461500D+00 0.8004300D+04
EXPONENTS  0.1896900D+04 0.6147100D+03 0.2335000D+03 0.9785600D+02 0.4351400D+02
EXPONENTS  0.2006300D+02 0.9112700D+01 0.4106300D+01 0.1794900D+01 0.2461500D+00
EXPONENTS  0.8004300D+04 0.1896900D+04 0.6147100D+03 0.2335000D+03 0.9785600D+02
EXPONENTS  0.4351400D+02 0.2006300D+02 0.9112700D+01 0.4106300D+01 0.1794900D+01
EXPONENTS  0.2461500D+00 0.8004300D+04 0.1896900D+04 0.6147100D+03 0.2335000D+03
EXPONENTS  0.9785600D+02 0.4351400D+02 0.2006300D+02 0.9112700D+01 0.4106300D+01
EXPONENTS  0.1794900D+01 0.2461500D+00 0.8004300D+04 0.1896900D+04 0.6147100D+03
EXPONENTS  0.2335000D+03 0.9785600D+02 0.4351400D+02 0.2006300D+02 0.9112700D+01
EXPONENTS  0.4106300D+01 0.1794900D+01 0.2461500D+00 0.8004300D+04 0.1896900D+04
EXPONENTS  0.6147100D+03 0.2335000D+03 0.9785600D+02 0.4351400D+02 0.2006300D+02
EXPONENTS  0.9112700D+01 0.4106300D+01 0.1794900D+01 0.2461500D+00 0.6243200D+00
EXPONENTS  0.6243200D+00 0.6243200D+00 0.8891700D-01 0.8891700D-01 0.8891700D-01
EXPONENTS  0.3025100D-01 0.3025100D-01 0.3025100D-01 0.3618500D+03 0.1085500D+03
EXPONENTS  0.4143300D+02 0.1757900D+02 0.7862700D+01 0.3518000D+01 0.1534800D+01
EXPONENTS  0.3618500D+03 0.1085500D+03 0.4143300D+02 0.1757900D+02 0.7862700D+01
EXPONENTS  0.3518000D+01 0.1534800D+01 0.3618500D+03 0.1085500D+03 0.4143300D+02
EXPONENTS  0.1757900D+02 0.7862700D+01 0.3518000D+01 0.1534800D+01 0.3618500D+03
EXPONENTS  0.1085500D+03 0.4143300D+02 0.1757900D+02 0.7862700D+01 0.3518000D+01
EXPONENTS  0.1534800D+01 0.3618500D+03 0.1085500D+03 0.4143300D+02 0.1757900D+02
EXPONENTS  0.7862700D+01 0.3518000D+01 0.1534800D+01 0.3618500D+03 0.1085500D+03
EXPONENTS  0.4143300D+02 0.1757900D+02 0.7862700D+01 0.3518000D+01 0.1534800D+01
EXPONENTS  0.6081300D+00 0.6081300D+00 0.6081300D+00 0.6081300D+00 0.6081300D+00
EXPONENTS  0.6081300D+00 0.2220000D+00 0.2220000D+00 0.2220000D+00 0.2220000D+00
EXPONENTS  0.2220000D+00 0.2220000D+00 0.8370000D-01 0.8370000D-01 0.8370000D-01
EXPONENTS  0.8370000D-01 0.8370000D-01 0.8370000D-01 0.4620000D+00 0.4620000D+00
EXPONENTS  0.4620000D+00 0.4620000D+00 0.4620000D+00 0.4620000D+00 0.4620000D+00
EXPONENTS  0.4620000D+00 0.4620000D+00 0.4620000D+00 0.1880000D+00 0.1880000D+00
EXPONENTS  0.1880000D+00 0.1880000D+00 0.1880000D+00 0.1880000D+00 0.1880000D+00
EXPONENTS  0.1880000D+00 0.1880000D+00 0.1880000D+00 0.9563600D+07 0.1432100D+07
EXPONENTS  0.3259100D+06 0.9231200D+05 0.3011600D+05 0.1087200D+05 0.4240100D+04
EXPONENTS  0.1758400D+04 0.7665900D+03 0.3484300D+03 0.1640300D+03 0.7914200D+02
EXPONENTS  0.3552400D+02 0.1730500D+02 0.8378400D+01 0.3740500D+01 0.1689000D+01
EXPONENTS  0.2552000D+00 0.9563600D+07 0.1432100D+07 0.3259100D+06 0.9231200D+05
EXPONENTS  0.3011600D+05 0.1087200D+05 0.4240100D+04 0.1758400D+04 0.7665900D+03
EXPONENTS  0.3484300D+03 0.1640300D+03 0.7914200D+02 0.3552400D+02 0.1730500D+02
EXPONENTS  0.8378400D+01 0.3740500D+01 0.1689000D+01 0.2552000D+00 0.9563600D+07
EXPONENTS  0.1432100D+07 0.3259100D+06 0.9231200D+05 0.3011600D+05 0.1087200D+05
EXPONENTS  0.4240100D+04 0.1758400D+04 0.7665900D+03 0.3484300D+03 0.1640300D+03
EXPONENTS  0.7914200D+02 0.3552400D+02 0.1730500D+02 0.8378400D+01 0.3740500D+01
EXPONENTS  0.1689000D+01 0.2552000D+00 0.9563600D+07 0.1432100D+07 0.3259100D+06
EXPONENTS  0.9231200D+05 0.3011600D+05 0.1087200D+05 0.4240100D+04 0.1758400D+04
EXPONENTS  0.7665900D+03 0.3484300D+03 0.1640300D+03 0.7914200D+02 0.3552400D+02
EXPONENTS  0.1730500D+02 0.8378400D+01 0.3740500D+01 0.1689000D+01 0.2552000D+00
EXPONENTS  0.5092700D+00 0.1065100D+00 0.3920100D-01 0.8004300D+04 0.1896900D+04
EXPONENTS  0.6147100D+03 0.2335000D+03 0.9785600D+02 0.4351400D+02 0.2006300D+02
EXPONENTS  0.9112700D+01 0.4106300D+01 0.1794900D+01 0.2461500D+00 0.8004300D+04
EXPONENTS  0.1896900D+04 0.6147100D+03 0.2335000D+03 0.9785600D+02 0.4351400D+02
EXPONENTS  0.2006300D+02 0.9112700D+01 0.4106300D+01 0.1794900D+01 0.2461500D+00
EXPONENTS  0.8004300D+04 0.1896900D+04 0.6147100D+03 0.2335000D+03 0.9785600D+02
EXPONENTS  0.4351400D+02 0.2006300D+02 0.9112700D+01 0.4106300D+01 0.1794900D+01
EXPONENTS  0.2461500D+00 0.8004300D+04 0.1896900D+04 0.6147100D+03 0.2335000D+03
EXPONENTS  0.9785600D+02 0.4351400D+02 0.2006300D+02 0.9112700D+01 0.4106300D+01
EXPONENTS  0.1794900D+01 0.2461500D+00 0.8004300D+04 0.1896900D+04 0.6147100D+03
EXPONENTS  0.2335000D+03 0.9785600D+02 0.4351400D+02 0.2006300D+02 0.9112700D+01
EXPONENTS  0.4106300D+01 0.1794900D+01 0.2461500D+00 0.8004300D+04 0.1896900D+04
EXPONENTS  0.6147100D+03 0.2335000D+03 0.9785600D+02 0.4351400D+02 0.2006300D+02
EXPONENTS  0.9112700D+01 0.4106300D+01 0.1794900D+01 0.2461500D+00 0.8004300D+04
EXPONENTS  0.1896900D+04 0.6147100D+03 0.2335000D+03 0.9785600D+02 0.4351400D+02
EXPONENTS  0.2006300D+02 0.9112700D+01 0.4106300D+01 0.1794900D+01 0.2461500D+00
EXPONENTS  0.8004300D+04 0.1896900D+04 0.6147100D+03 0.2335000D+03 0.9785600D+02
EXPONENTS  0.4351400D+02 0.2006300D+02 0.9112700D+01 0.4106300D+01 0.1794900D+01
EXPONENTS  0.2461500D+00 0.8004300D+04 0.1896900D+04 0.6147100D+03 0.2335000D+03
EXPONENTS  0.9785600D+02 0.4351400D+02 0.2006300D+02 0.9112700D+01 0.4106300D+01
EXPONENTS  0.1794900D+01 0.2461500D+00 0.6243200D+00 0.6243200D+00 0.6243200D+00
EXPONENTS  0.8891700D-01 0.8891700D-01 0.8891700D-01 0.3025100D-01 0.3025100D-01
EXPONENTS  0.3025100D-01 0.3618500D+03 0.1085500D+03 0.4143300D+02 0.1757900D+02
EXPONENTS  0.7862700D+01 0.3518000D+01 0.1534800D+01 0.3618500D+03 0.1085500D+03
EXPONENTS  0.4143300D+02 0.1757900D+02 0.7862700D+01 0.3518000D+01 0.1534800D+01
EXPONENTS  0.3618500D+03 0.1085500D+03 0.4143300D+02 0.1757900D+02 0.7862700D+01
EXPONENTS  0.3518000D+01 0.1534800D+01 0.3618500D+03 0.1085500D+03 0.4143300D+02
EXPONENTS  0.1757900D+02 0.7862700D+01 0.3518000D+01 0.1534800D+01 0.3618500D+03
EXPONENTS  0.1085500D+03 0.4143300D+02 0.1757900D+02 0.7862700D+01 0.3518000D+01
EXPONENTS  0.1534800D+01 0.3618500D+03 0.1085500D+03 0.4143300D+02 0.1757900D+02
EXPONENTS  0.7862700D+01 0.3518000D+01 0.1534800D+01 0.6081300D+00 0.6081300D+00
EXPONENTS  0.6081300D+00 0.6081300D+00 0.6081300D+00 0.6081300D+00 0.2220000D+00
EXPONENTS  0.2220000D+00 0.2220000D+00 0.2220000D+00 0.2220000D+00 0.2220000D+00
EXPONENTS  0.8370000D-01 0.8370000D-01 0.8370000D-01 0.8370000D-01 0.8370000D-01
EXPONENTS  0.8370000D-01 0.4620000D+00 0.4620000D+00 0.4620000D+00 0.4620000D+00
EXPONENTS  0.4620000D+00 0.4620000D+00 0.4620000D+00 0.4620000D+00 0.4620000D+00
EXPONENTS  0.4620000D+00 0.1880000D+00 0.1880000D+00 0.1880000D+00 0.1880000D+00
EXPONENTS  0.1880000D+00 0.1880000D+00 0.1880000D+00 0.1880000D+00 0.1880000D+00
EXPONENTS  0.1880000D+00
MO    1     MO 0.0        OCC NO =    2.0000000  ORB. ENERGY = -456.372844
  0.54600081D+00  0.10201771D+01  0.17693693D+01  0.28986790D+01  0.45391011D+01
  0.68165194D+01  0.97223083D+01  0.12845139D+02  0.14813603D+02  0.13332718D+02
  0.74799861D+01  0.18083267D+01  0.85850385D-01 -0.14691581D-02  0.41321087D-03
 -0.16102762D-03  0.15231374D-04  0.15018456D-05  0.32584227D-04  0.60004361D-04
  0.10415250D-03  0.17058228D-03  0.26848866D-03  0.40524808D-03  0.59073366D-03
  0.81120141D-03  0.10302155D-02  0.11094767D-02  0.88511966D-03  0.19825974D-03
 -0.53014210D-03 -0.47144181D-03 -0.92074497D-04 -0.25506530D-05 -0.18470962D-06
 -0.37722757D-08 -0.92152643D-04 -0.16637306D-03 -0.28962382D-03 -0.47427123D-03
 -0.74771561D-03 -0.11282823D-02 -0.16513251D-02 -0.22753090D-02 -0.29312076D-02
 -0.32263378D-02 -0.27160533D-02 -0.64678948D-03  0.21786356D-02  0.29111139D-02
  0.35763630D-03 -0.12496298D-02 -0.55163027D-03  0.27376418D-05  0.30650324D-04
  0.66403586D-04  0.11304341D-03  0.18452678D-03  0.29091438D-03  0.43900615D-03
  0.64252275D-03  0.88631987D-03  0.11432600D-02  0.12638922D-02  0.10704230D-02
  0.26001285D-03 -0.90209141D-03 -0.12731986D-02 -0.15191013D-03  0.71394264D-03
  0.57069385D-03 -0.21620582D-03  0.18834763D-03  0.19146557D-03  0.49908819D-04
 -0.28554145D-17 -0.40924712D-17 -0.54042652D-17 -0.62119304D-17 -0.57145876D-17
 -0.36557783D-17 -0.12654067D-17 -0.14226197D-18 -0.18099190D-20 -0.31362768D-21
 -0.32049336D-23  0.83615974D-17  0.11984108D-16  0.15825475D-16  0.18190585D-16
  0.16734201D-16  0.10705327D-16  0.37055289D-17  0.41659006D-18  0.53000410D-20
  0.91840551D-21  0.93851049D-23 -0.55449137D-04 -0.79471472D-04 -0.10494513D-03
 -0.12062913D-03 -0.11097126D-03 -0.70991357D-04 -0.24572862D-04 -0.27625773D-05
 -0.35146717D-07 -0.60903187D-08 -0.62236429D-10  0.97013179D-18  0.13993387D-17
  0.18637380D-17  0.22056654D-17  0.21195616D-17  0.14568890D-17  0.45869387D-18
 -0.22168261D-18 -0.22750001D-18 -0.57292946D-19  0.62465472D-22  0.39229562D-17
  0.56585553D-17  0.75364635D-17  0.89191274D-17  0.85709464D-17  0.58912737D-17
  0.18548366D-17 -0.89642580D-18 -0.91994986D-18 -0.23167752D-18  0.25259384D-21
 -0.39033204D-03 -0.56302321D-03 -0.74987407D-03 -0.88744838D-03 -0.85280456D-03
 -0.58617857D-03 -0.18455525D-03  0.89193886D-04  0.91534517D-04  0.23051788D-04
 -0.25132951D-07 -0.58173147D-18 -0.84332855D-18 -0.11193077D-17 -0.13357867D-17
 -0.12833739D-17 -0.89829332D-18 -0.27123169D-18  0.16603426D-18  0.17856688D-18
  0.48022474D-19 -0.17901212D-19 -0.12795047D-17 -0.18548813D-17 -0.24618910D-17
 -0.29380314D-17 -0.28227507D-17 -0.19757750D-17 -0.59656771D-18  0.36518844D-18
  0.39275364D-18  0.10562430D-18 -0.39373294D-19  0.25302853D-03  0.36681217D-03
  0.48685142D-03  0.58101059D-03  0.55821324D-03  0.39071951D-03  0.11797429D-03
 -0.72217863D-04 -0.77669022D-04 -0.20887740D-04  0.77862683D-05  0.26601577D-19
  0.12213558D-18 -0.12870283D-04  0.15344509D-20  0.48483499D-20 -0.66949980D-04
 -0.21053941D-21 -0.48112544D-21 -0.27678167D-05 -0.12460790D-03 -0.12898108D-03
 -0.10791425D-03 -0.69635333D-04 -0.31281144D-04 -0.91335877D-05 -0.15408922D-05
 -0.17159705D-03 -0.17761934D-03 -0.14860828D-03 -0.95894542D-04 -0.43077139D-04
 -0.12577827D-04 -0.21219566D-05  0.29620494D-03  0.30660042D-03  0.25652253D-03
  0.16552987D-03  0.74358283D-04  0.21711415D-04  0.36628488D-05  0.12638610D-04
  0.13082169D-04  0.10945422D-04  0.70629056D-05  0.31727537D-05  0.92639274D-06
  0.15628813D-06 -0.28311391D-17 -0.29304995D-17 -0.24518529D-17 -0.15821414D-17
 -0.71071953D-18 -0.20751860D-18 -0.35009660D-19 -0.26518958D-17 -0.27449656D-17
 -0.22966228D-17 -0.14819738D-17 -0.66572291D-18 -0.19438032D-18 -0.32793151D-19
  0.62165438D-05  0.65382535D-05 -0.12754797D-04 -0.86530128D-07 -0.11804747D-19
 -0.24496954D-19 -0.33827193D-05 -0.34080450D-05  0.67907643D-05  0.68119127D-08
  0.84209269D-20  0.17267865D-19 -0.28618355D-05 -0.28595570D-05  0.57213924D-05
 -0.61284642D-09 -0.99708583D-22 -0.67933476D-21  0.92008911D-22 -0.65806262D-22
  0.50360370D-05  0.47092531D-21  0.76750406D-21 -0.75553453D-05 -0.74695204D-21
 -0.57008527D-21 -0.75527657D-05 -0.69306134D-09  0.46685567D-21  0.12062922D-20
 -0.12579265D-05  0.44479806D-21  0.11434090D-20  0.18861465D-05 -0.18453651D-20
 -0.47622856D-20  0.18876331D-05 -0.39986770D-09 -0.54596581D+00 -0.10201117D+01
 -0.17692559D+01 -0.28984931D+01 -0.45388101D+01 -0.68160824D+01 -0.97216851D+01
 -0.12844315D+02 -0.14812653D+02 -0.13331863D+02 -0.74795066D+01 -0.18082107D+01
 -0.85844882D-01  0.14690640D-02 -0.41318438D-03  0.16101730D-03 -0.15230398D-04
 -0.15017493D-05 -0.32583067D-04 -0.60002225D-04 -0.10414879D-03 -0.17057621D-03
 -0.26847910D-03 -0.40523365D-03 -0.59071263D-03 -0.81117254D-03 -0.10301788D-02
 -0.11094372D-02 -0.88508815D-03 -0.19825269D-03  0.53012323D-03  0.47142502D-03
  0.92071219D-04  0.25505622D-05  0.18470304D-06  0.37721414D-08  0.92148057D-04
  0.16636479D-03  0.28960941D-03  0.47424763D-03  0.74767840D-03  0.11282261D-02
  0.16512429D-02  0.22751957D-02  0.29310617D-02  0.32261773D-02  0.27159181D-02
  0.64675729D-03 -0.21785272D-02 -0.29109691D-02 -0.35761850D-03  0.12495676D-02
  0.55160282D-03 -0.27375056D-05 -0.30648922D-04 -0.66400549D-04 -0.11303824D-03
 -0.18451834D-03 -0.29090108D-03 -0.43898607D-03 -0.64249337D-03 -0.88627933D-03
 -0.11432077D-02 -0.12638344D-02 -0.10703740D-02 -0.26000096D-03  0.90205016D-03
  0.12731403D-02  0.15190318D-03 -0.71390999D-03 -0.57066775D-03  0.21619594D-03
 -0.18833723D-03 -0.19146396D-03 -0.49908828D-04 -0.48957616D-16 -0.70167617D-16
 -0.92659031D-16 -0.10650688D-15 -0.97979676D-16 -0.62680283D-16 -0.21696077D-16
 -0.24391579D-17 -0.31032033D-19 -0.53773151D-20 -0.54950309D-22 -0.12216703D-16
 -0.17509368D-16 -0.23121792D-16 -0.26577334D-16 -0.24449486D-16 -0.15641006D-16
 -0.54139589D-17 -0.60865844D-18 -0.77436189D-20 -0.13418353D-20 -0.13712097D-22
 -0.55454859D-04 -0.79479673D-04 -0.10495596D-03 -0.12064158D-03 -0.11098271D-03
 -0.70998683D-04 -0.24575398D-04 -0.27628624D-05 -0.35150344D-07 -0.60909471D-08
 -0.62242851D-10 -0.59756905D-17 -0.86194628D-17 -0.11480009D-16 -0.13586169D-16
 -0.13055798D-16 -0.89739539D-17 -0.28254023D-17  0.13654914D-17  0.14013247D-17
  0.35290558D-18 -0.38476662D-21 -0.67742888D-17 -0.97713779D-17 -0.13014211D-16
 -0.15401840D-16 -0.14800590D-16 -0.10173244D-16 -0.32029924D-17  0.15479773D-17
  0.15885994D-17  0.40006829D-18 -0.43618728D-21 -0.39026494D-03 -0.56292642D-03
 -0.74974516D-03 -0.88729582D-03 -0.85265796D-03 -0.58607780D-03 -0.18452352D-03
  0.89178552D-04  0.91518781D-04  0.23047825D-04 -0.25128631D-07  0.11111793D-17
  0.16108622D-17  0.21380167D-17  0.25515184D-17  0.24514034D-17  0.17158517D-17
  0.51808619D-18 -0.31714604D-18 -0.34108490D-18 -0.91728886D-19  0.34193536D-19
  0.23469739D-17  0.34023775D-17  0.45158052D-17  0.53891815D-17  0.51777240D-17
  0.36241308D-17  0.10942741D-17 -0.66985899D-18 -0.72042139D-18 -0.19374488D-18
  0.72221770D-19  0.25297903D-03  0.36674041D-03  0.48675618D-03  0.58089693D-03
  0.55810405D-03  0.39064308D-03  0.11795121D-03 -0.72203736D-04 -0.77653828D-04
 -0.20883654D-04  0.77847452D-05 -0.13732650D-18 -0.18003195D-18 -0.12870083D-04
 -0.29111744D-20 -0.98340215D-20 -0.66949342D-04  0.28235497D-21  0.89448066D-21
 -0.27678034D-05  0.12460275D-03  0.12897575D-03  0.10790978D-03  0.69632453D-04
  0.31279850D-04  0.91332099D-05  0.15408285D-05  0.17158890D-03  0.17761091D-03
  0.14860123D-03  0.95889991D-04  0.43075095D-04  0.12577231D-04  0.21218559D-05
 -0.29619165D-03 -0.30658666D-03 -0.25651101D-03 -0.16552244D-03 -0.74354945D-04
 -0.21710440D-04 -0.36626844D-05 -0.12637806D-04 -0.13081337D-04 -0.10944726D-04
 -0.70624564D-05 -0.31725520D-05 -0.92633382D-06 -0.15627819D-06  0.83566147D-17
  0.86498948D-17  0.72370836D-17  0.46699740D-17  0.20978162D-17  0.61252837D-18
  0.10333729D-18 -0.22073855D-18 -0.22848549D-18 -0.19116633D-18 -0.12335657D-18
 -0.55413456D-19 -0.16179832D-19 -0.27296369D-20 -0.62161094D-05 -0.65377993D-05
  0.12753909D-04  0.86524803D-07 -0.33062008D-19 -0.14613115D-19  0.33825647D-05
  0.34078889D-05 -0.67904536D-05 -0.68115122D-08  0.10281321D-19  0.17623942D-19
  0.28617688D-05  0.28594903D-05 -0.57212591D-05  0.61282048D-09 -0.22457398D-21
 -0.77495333D-21 -0.18676448D-21 -0.15657503D-20  0.50358309D-05 -0.88762027D-23
 -0.20448896D-20 -0.75550359D-05  0.56916964D-21  0.67421404D-20 -0.75524569D-05
 -0.69291564D-09 -0.50677263D-21 -0.75005189D-21 -0.12577657D-05 -0.55397768D-21
 -0.72595635D-21  0.18859053D-05  0.20742956D-20  0.29761120D-20  0.18873919D-05
 -0.39987238D-09
MO    2     MO 0.0        OCC NO =    2.0000000  ORB. ENERGY = -456.372843
  0.54597267D+00  0.10201245D+01  0.17692781D+01  0.28985296D+01  0.45388671D+01
  0.68161680D+01  0.97218073D+01  0.12844477D+02  0.14812839D+02  0.13332030D+02
  0.74796006D+01  0.18082335D+01  0.85845961D-01 -0.14690824D-02  0.41318958D-03
 -0.16101932D-03  0.15230589D-04  0.15017682D-05  0.18092030D-04  0.33316755D-04
  0.57829516D-04  0.94713915D-04  0.14907534D-03  0.22500949D-03  0.32799830D-03
  0.45041057D-03  0.57201568D-03  0.61602461D-03  0.49145285D-03  0.11008152D-03
 -0.29435551D-03 -0.26176282D-03 -0.51123341D-04 -0.14162217D-05 -0.10255796D-06
 -0.20945142D-08 -0.71528965D-04 -0.12913892D-03 -0.22480627D-03 -0.36812976D-03
 -0.58037753D-03 -0.87577373D-03 -0.12817600D-02 -0.17660969D-02 -0.22752060D-02
 -0.25042863D-02 -0.21082030D-02 -0.50203858D-03  0.16910590D-02  0.22596093D-02
  0.27759762D-03 -0.96996379D-03 -0.42817591D-03  0.21249601D-05  0.21864188D-04
  0.47368521D-04  0.80638702D-04  0.13163085D-03  0.20752169D-03  0.31316188D-03
  0.45833899D-03  0.63224991D-03  0.81553628D-03  0.90158842D-03  0.76357854D-03
  0.18547830D-03 -0.64350043D-03 -0.90822705D-03 -0.10836400D-03  0.50928585D-03
  0.40710036D-03 -0.15422887D-03  0.16213834D-03  0.25169694D-04 -0.14269128D-06
 -0.53908441D-17 -0.77263298D-17 -0.10202915D-16 -0.11727736D-16 -0.10788784D-16
 -0.69018809D-17 -0.23890087D-17 -0.26858170D-18 -0.34170139D-20 -0.59210946D-21
 -0.60507143D-23  0.78895746D-17  0.11307590D-16  0.14932107D-16  0.17163704D-16
  0.15789535D-16  0.10100998D-16  0.34963471D-17  0.39307302D-18  0.50008469D-20
  0.86656035D-21  0.88553038D-23  0.89248703D-04  0.12791409D-03  0.16891546D-03
  0.19415981D-03  0.17861489D-03  0.11426484D-03  0.39551492D-04  0.44465334D-05
  0.56570744D-07  0.98027323D-08  0.10017326D-09 -0.37631736D-20 -0.54280815D-20
 -0.72295022D-20 -0.85558499D-20 -0.82218505D-20 -0.56513212D-20 -0.17792889D-20
  0.85991424D-21  0.88248016D-21  0.22224125D-21 -0.24230565D-24  0.41243315D-17
  0.59490232D-17  0.79233292D-17  0.93769686D-17  0.90109147D-17  0.61936876D-17
  0.19500501D-17 -0.94244160D-18 -0.96717321D-18 -0.24357011D-18  0.26556012D-21
 -0.10466200D-02 -0.15096669D-02 -0.20106810D-02 -0.23795670D-02 -0.22866745D-02
 -0.15717547D-02 -0.49485873D-03  0.23916076D-03  0.24543683D-03  0.61810102D-04
 -0.67390445D-07 -0.28588115D-18 -0.41443818D-18 -0.55006303D-18 -0.65644760D-18
 -0.63069031D-18 -0.44144960D-18 -0.13329178D-18  0.81594456D-19  0.87753381D-19
  0.23599754D-19 -0.87972186D-20 -0.81134483D-18 -0.11761961D-17 -0.15611061D-17
 -0.18630308D-17 -0.17899303D-17 -0.12528558D-17 -0.37828867D-18  0.23156910D-18
  0.24904843D-18  0.66977270D-19 -0.24966942D-19  0.77203240D-03  0.11192053D-02
  0.14854652D-02  0.17727605D-02  0.17032020D-02  0.11921506D-02  0.35995929D-03
 -0.22034879D-03 -0.23698118D-03 -0.63731992D-04  0.23757208D-04  0.16967944D-19
  0.83048312D-19 -0.31191101D-05  0.26531752D-20  0.33460765D-20 -0.99400970D-05
 -0.16047903D-21 -0.22991858D-21 -0.20728423D-06 -0.80392794D-04 -0.83214224D-04
 -0.69622615D-04 -0.44926357D-04 -0.20181534D-04 -0.58926812D-05 -0.99413144D-06
 -0.12700774D-03 -0.13146514D-03 -0.10999258D-03 -0.70976447D-04 -0.31883590D-04
 -0.93094923D-05 -0.15705684D-05  0.20740053D-03  0.21467937D-03  0.17961519D-03
  0.11590280D-03  0.52065124D-04  0.15202174D-04  0.25646999D-05  0.12537973D-04
  0.12978000D-04  0.10858267D-04  0.70066657D-05  0.31474900D-05  0.91901614D-06
  0.15504366D-06  0.28540169D-17  0.29541802D-17  0.24716658D-17  0.15949263D-17
  0.71646271D-18  0.20919552D-18  0.35292566D-19  0.38173114D-18  0.39512821D-18
  0.33059083D-18  0.21332496D-18  0.95828489D-19  0.27980368D-19  0.47204595D-20
  0.67767205D-05  0.70855090D-05 -0.13862230D-04 -0.83055192D-07  0.25611066D-20
  0.22717173D-19 -0.24119506D-05 -0.24351764D-05  0.48471270D-05  0.62470659D-08
 -0.23476539D-20 -0.83334982D-20 -0.10402892D-05 -0.10387849D-05  0.20790741D-05
 -0.40460859D-09 -0.25811585D-21  0.28820656D-21  0.14637365D-21  0.46663141D-21
  0.32142942D-05  0.19067520D-21  0.92442974D-21 -0.48256674D-05 -0.62979617D-21
 -0.23243240D-20 -0.48172153D-05 -0.22726392D-08 -0.27504809D-21 -0.84447051D-21
 -0.25083752D-05 -0.31346054D-21 -0.91254698D-21  0.37626986D-05  0.11386048D-20
  0.34459585D-20  0.37624270D-05  0.73117532D-10  0.54600767D+00  0.10201899D+01
  0.17693916D+01  0.28987154D+01  0.45391581D+01  0.68166050D+01  0.97224305D+01
  0.12845300D+02  0.14813789D+02  0.13332885D+02  0.74800801D+01  0.18083494D+01
  0.85851464D-01 -0.14691766D-02  0.41321607D-03 -0.16102964D-03  0.15231566D-04
  0.15018645D-05  0.18094119D-04  0.33320602D-04  0.57836193D-04  0.94724851D-04
  0.14909256D-03  0.22503547D-03  0.32803617D-03  0.45046257D-03  0.57208173D-03
  0.61609573D-03  0.49150960D-03  0.11009423D-03 -0.29438950D-03 -0.26179305D-03
 -0.51129244D-04 -0.14163852D-05 -0.10256980D-06 -0.20947560D-08 -0.71534873D-04
 -0.12914959D-03 -0.22482484D-03 -0.36816017D-03 -0.58042547D-03 -0.87584607D-03
 -0.12818659D-02 -0.17662428D-02 -0.22753939D-02 -0.25044932D-02 -0.21083771D-02
 -0.50208004D-03  0.16911986D-02  0.22597959D-02  0.27762055D-03 -0.97004390D-03
 -0.42821128D-03  0.21251356D-05  0.21866153D-04  0.47372778D-04  0.80645949D-04
  0.13164268D-03  0.20754034D-03  0.31319003D-03  0.45838018D-03  0.63230673D-03
  0.81560958D-03  0.90166944D-03  0.76364716D-03  0.18549497D-03 -0.64355826D-03
 -0.90830868D-03 -0.10837374D-03  0.50933163D-03  0.40713695D-03 -0.15424273D-03
  0.16215042D-03  0.25181970D-04 -0.13949134D-06  0.49003211D-16  0.70232966D-16
  0.92745326D-16  0.10660608D-15  0.98070927D-16  0.62738659D-16  0.21716283D-16
  0.24414295D-17  0.31060934D-19  0.53823231D-20  0.55001485D-22  0.12324253D-16
  0.17663512D-16  0.23325346D-16  0.26811309D-16  0.24664728D-16  0.15778702D-16
  0.54616209D-17  0.61401678D-18  0.78117901D-20  0.13536482D-20  0.13832812D-22
 -0.89245144D-04 -0.12790899D-03 -0.16890873D-03 -0.19415207D-03 -0.17860776D-03
 -0.11426028D-03 -0.39549914D-04 -0.44463561D-05 -0.56568488D-07 -0.98023413D-08
 -0.10016926D-09  0.57713135D-17  0.83246650D-17  0.11087377D-16  0.13121502D-16
  0.12609271D-16  0.86670320D-17  0.27287696D-17 -0.13187897D-17 -0.13533975D-17
 -0.34083571D-18  0.37160706D-21  0.64064166D-17  0.92407512D-17  0.12307485D-16
  0.14565456D-16  0.13996856D-16  0.96207939D-17  0.30290565D-17 -0.14639157D-17
 -0.15023318D-17 -0.37834291D-18  0.41250049D-21  0.10466450D-02  0.15097030D-02
  0.20107290D-02  0.23796238D-02  0.22867291D-02  0.15717923D-02  0.49487055D-03
 -0.23916647D-03 -0.24544269D-03 -0.61811578D-04  0.67392055D-07 -0.97672185D-18
 -0.14159410D-17 -0.18793075D-17 -0.22427737D-17 -0.21547731D-17 -0.15082263D-17
 -0.45539554D-18  0.27877001D-18  0.29981216D-18  0.80629297D-19 -0.30055972D-19
 -0.21033890D-17 -0.30492557D-17 -0.40471243D-17 -0.48298556D-17 -0.46403447D-17
 -0.32479939D-17 -0.98070290D-18  0.60033648D-18  0.64565116D-18  0.17363672D-18
 -0.64726104D-19 -0.77204860D-03 -0.11192288D-02 -0.14854963D-02 -0.17727978D-02
 -0.17032378D-02 -0.11921757D-02 -0.35996685D-03  0.22035341D-03  0.23698616D-03
  0.63733330D-04 -0.23757706D-04  0.13061532D-18  0.16881605D-18  0.31199348D-05
  0.26026883D-20  0.93899611D-20  0.99443895D-05 -0.23396604D-21 -0.77725225D-21
  0.20746168D-06 -0.80400783D-04 -0.83222493D-04 -0.69629534D-04 -0.44930822D-04
 -0.20183539D-04 -0.58932668D-05 -0.99423023D-06 -0.12701874D-03 -0.13147653D-03
 -0.11000211D-03 -0.70982595D-04 -0.31886352D-04 -0.93102987D-05 -0.15707044D-05
  0.20741952D-03  0.21469902D-03  0.17963164D-03  0.11591342D-03  0.52069891D-04
  0.15203566D-04  0.25649347D-05  0.12538783D-04  0.12978838D-04  0.10858969D-04
  0.70071185D-05  0.31476934D-05  0.91907553D-06  0.15505368D-06 -0.81746985D-17
 -0.84615941D-17 -0.70795386D-17 -0.45683127D-17 -0.20521485D-17 -0.59919416D-18
 -0.10108773D-18  0.44054997D-18  0.45601132D-18  0.38152973D-18  0.24619502D-18
  0.11059417D-18  0.32291707D-19  0.54478089D-20  0.67771191D-05  0.70859282D-05
 -0.13863047D-04 -0.83060739D-07  0.22414298D-19  0.25653892D-21 -0.24121676D-05
 -0.24353949D-05  0.48475625D-05  0.62475026D-08 -0.42153010D-20 -0.76605866D-20
 -0.10404727D-05 -0.10389682D-05  0.20794409D-05 -0.40464787D-09 -0.19567245D-22