 Molden2AIM, Version 4.0.0 (06/02/2016)           Time: Fri Jun 29 22:40:49 2018
GAUSSIAN             10 MOL ORBITALS    206 PRIMITIVES        2 NUCLEI
  Si   1    (CENTRE  1)   0.00000000  0.00000000  1.54557865  CHARGE = 14.0
  C    2    (CENTRE  2)   0.00000000  0.00000000 -1.54557865  CHARGE =  6.0
CENTRE ASSIGNMENTS    1  1  1  1  1  1  1  1  1  1  1  1  1  1  1  1  1  1  1  1
CENTRE ASSIGNMENTS    1  1  1  1  1  1  1  1  1  1  1  1  1  1  1  1  1  1  1  1
CENTRE ASSIGNMENTS    1  1  1  1  1  1  1  1  1  1  1  1  1  1  1  1  1  1  1  1
CENTRE ASSIGNMENTS    1  1  1  1  1  1  1  1  1  1  1  1  1  1  1  1  1  1  1  1
CENTRE ASSIGNMENTS    1  1  1  1  1  1  1  1  1  1  1  1  1  1  1  1  1  1  1  1
CENTRE ASSIGNMENTS    1  1  1  1  1  1  1  1  1  1  1  1  1  1  1  1  1  1  1  1
CENTRE ASSIGNMENTS    1  1  1  1  1  1  1  1  1  1  1  2  2  2  2  2  2  2  2  2
CENTRE ASSIGNMENTS    2  2  2  2  2  2  2  2  2  2  2  2  2  2  2  2  2  2  2  2
CENTRE ASSIGNMENTS    2  2  2  2  2  2  2  2  2  2  2  2  2  2  2  2  2  2  2  2
CENTRE ASSIGNMENTS    2  2  2  2  2  2  2  2  2  2  2  2  2  2  2  2  2  2  2  2
CENTRE ASSIGNMENTS    2  2  2  2  2  2
TYPE ASSIGNMENTS      1  1  1  1  1  1  1  1  1  1  1  1  1  1  1  1  1  1  1  1
TYPE ASSIGNMENTS      1  1  1  1  1  1  1  1  1  1  1  1  1  1  1  1  1  1  1  1
TYPE ASSIGNMENTS      1  1  2  2  2  2  2  2  2  3  3  3  3  3  3  3  4  4  4  4
TYPE ASSIGNMENTS      4  4  4  2  2  2  2  2  2  2  3  3  3  3  3  3  3  4  4  4
TYPE ASSIGNMENTS      4  4  4  4  2  3  4  2  3  4  2  3  4  5  6  7  8  9 10  5
TYPE ASSIGNMENTS      6  7  8  9 10  5  6  7  8  9 10 11 12 13 17 14 15 18 19 16
TYPE ASSIGNMENTS     20 11 12 13 17 14 15 18 19 16 20  1  1  1  1  1  1  1  1  1
TYPE ASSIGNMENTS      1  1  1  1  1  1  1  1  1  1  2  2  2  3  3  3  4  4  4  2
TYPE ASSIGNMENTS      3  4  2  3  4  2  3  4  5  6  7  8  9 10  5  6  7  8  9 10
TYPE ASSIGNMENTS      5  6  7  8  9 10 11 12 13 17 14 15 18 19 16 20 11 12 13 17
TYPE ASSIGNMENTS     14 15 18 19 16 20
EXPONENTS  0.2549000D+06 0.3819000D+05 0.8690000D+04 0.2462000D+04 0.8048000D+03
EXPONENTS  0.2913000D+03 0.1136000D+03 0.4675000D+02 0.1982000D+02 0.7708000D+01
EXPONENTS  0.3340000D+01 0.1402000D+01 0.2070000D+00 0.2549000D+06 0.3819000D+05
EXPONENTS  0.8690000D+04 0.2462000D+04 0.8048000D+03 0.2913000D+03 0.1136000D+03
EXPONENTS  0.4675000D+02 0.1982000D+02 0.7708000D+01 0.3340000D+01 0.1402000D+01
EXPONENTS  0.2070000D+00 0.2549000D+06 0.3819000D+05 0.8690000D+04 0.2462000D+04
EXPONENTS  0.8048000D+03 0.2913000D+03 0.1136000D+03 0.4675000D+02 0.1982000D+02
EXPONENTS  0.7708000D+01 0.3340000D+01 0.1402000D+01 0.2070000D+00 0.4387000D+00
EXPONENTS  0.7944000D-01 0.3300000D-01 0.4815000D+03 0.1139000D+03 0.3623000D+02
EXPONENTS  0.1334000D+02 0.5252000D+01 0.2120000D+01 0.2528000D+00 0.4815000D+03
EXPONENTS  0.1139000D+03 0.3623000D+02 0.1334000D+02 0.5252000D+01 0.2120000D+01
EXPONENTS  0.2528000D+00 0.4815000D+03 0.1139000D+03 0.3623000D+02 0.1334000D+02
EXPONENTS  0.5252000D+01 0.2120000D+01 0.2528000D+00 0.4815000D+03 0.1139000D+03
EXPONENTS  0.3623000D+02 0.1334000D+02 0.5252000D+01 0.2120000D+01 0.2528000D+00
EXPONENTS  0.4815000D+03 0.1139000D+03 0.3623000D+02 0.1334000D+02 0.5252000D+01
EXPONENTS  0.2120000D+01 0.2528000D+00 0.4815000D+03 0.1139000D+03 0.3623000D+02
EXPONENTS  0.1334000D+02 0.5252000D+01 0.2120000D+01 0.2528000D+00 0.8561000D+00
EXPONENTS  0.8561000D+00 0.8561000D+00 0.7889000D-01 0.7889000D-01 0.7889000D-01
EXPONENTS  0.2370000D-01 0.2370000D-01 0.2370000D-01 0.1590000D+00 0.1590000D+00
EXPONENTS  0.1590000D+00 0.1590000D+00 0.1590000D+00 0.1590000D+00 0.4810000D+00
EXPONENTS  0.4810000D+00 0.4810000D+00 0.4810000D+00 0.4810000D+00 0.4810000D+00
EXPONENTS  0.5560000D-01 0.5560000D-01 0.5560000D-01 0.5560000D-01 0.5560000D-01
EXPONENTS  0.5560000D-01 0.3360000D+00 0.3360000D+00 0.3360000D+00 0.3360000D+00
EXPONENTS  0.3360000D+00 0.3360000D+00 0.3360000D+00 0.3360000D+00 0.3360000D+00
EXPONENTS  0.3360000D+00 0.1250000D+00 0.1250000D+00 0.1250000D+00 0.1250000D+00
EXPONENTS  0.1250000D+00 0.1250000D+00 0.1250000D+00 0.1250000D+00 0.1250000D+00
EXPONENTS  0.1250000D+00 0.8236000D+04 0.1235000D+04 0.2808000D+03 0.7927000D+02
EXPONENTS  0.2559000D+02 0.8997000D+01 0.3319000D+01 0.3643000D+00 0.8236000D+04
EXPONENTS  0.1235000D+04 0.2808000D+03 0.7927000D+02 0.2559000D+02 0.8997000D+01
EXPONENTS  0.3319000D+01 0.3643000D+00 0.9059000D+00 0.1285000D+00 0.4402000D-01
EXPONENTS  0.1871000D+02 0.4133000D+01 0.1200000D+01 0.1871000D+02 0.4133000D+01
EXPONENTS  0.1200000D+01 0.1871000D+02 0.4133000D+01 0.1200000D+01 0.3827000D+00
EXPONENTS  0.3827000D+00 0.3827000D+00 0.1209000D+00 0.1209000D+00 0.1209000D+00
EXPONENTS  0.3569000D-01 0.3569000D-01 0.3569000D-01 0.1097000D+01 0.1097000D+01
EXPONENTS  0.1097000D+01 0.1097000D+01 0.1097000D+01 0.1097000D+01 0.3180000D+00
EXPONENTS  0.3180000D+00 0.3180000D+00 0.3180000D+00 0.3180000D+00 0.3180000D+00
EXPONENTS  0.1000000D+00 0.1000000D+00 0.1000000D+00 0.1000000D+00 0.1000000D+00
EXPONENTS  0.1000000D+00 0.7610000D+00 0.7610000D+00 0.7610000D+00 0.7610000D+00
EXPONENTS  0.7610000D+00 0.7610000D+00 0.7610000D+00 0.7610000D+00 0.7610000D+00
EXPONENTS  0.7610000D+00 0.2680000D+00 0.2680000D+00 0.2680000D+00 0.2680000D+00
EXPONENTS  0.2680000D+00 0.2680000D+00 0.2680000D+00 0.2680000D+00 0.2680000D+00
EXPONENTS  0.2680000D+00
MO    1     MO 0.0        OCC NO =    2.0000000  ORB. ENERGY =  -67.077031
  0.50593142D+00  0.94637437D+00  0.16343460D+01  0.26398948D+01  0.39756273D+01
  0.54068344D+01  0.61551327D+01  0.49865016D+01  0.20241195D+01  0.18457186D+00
 -0.70931376D-02  0.23718941D-02  0.13310532D-03 -0.10106353D-02 -0.18916310D-02
 -0.32716486D-02 -0.53174734D-02 -0.81356909D-02 -0.11545108D-01 -0.14482379D-01
 -0.14766040D-01 -0.90725485D-02  0.19772877D-02  0.72425123D-02  0.33124701D-02
 -0.17582773D-04  0.49507708D-03  0.92596698D-03  0.16035239D-02  0.26035572D-02
  0.39964077D-02  0.56767188D-02  0.72018183D-02  0.74558278D-02  0.48024591D-02
 -0.11811898D-02 -0.48148931D-02 -0.41994246D-02  0.21402454D-02 -0.14974391D-02
  0.30123697D-03  0.91491385D-04 -0.90140118D-17 -0.11889946D-16 -0.13206809D-16
 -0.11303167D-16 -0.64585390D-17 -0.20959367D-17 -0.14758095D-20  0.13262553D-16
  0.17493992D-16  0.19431527D-16  0.16630648D-16  0.95026189D-17  0.30838070D-17
  0.21713975D-20 -0.11034540D-01 -0.14555128D-01 -0.16167171D-01 -0.13836820D-01
 -0.79062477D-02 -0.25657497D-02 -0.18066184D-05  0.30267693D-17  0.41390681D-17
  0.44995840D-17  0.41303828D-17  0.22512263D-17  0.94997428D-18 -0.32763461D-18
 -0.42398189D-17 -0.57978979D-17 -0.63028990D-17 -0.57857317D-17 -0.31534587D-17
 -0.13306990D-17  0.45894195D-18  0.96646261D-02  0.13216252D-01  0.14367397D-01
  0.13188519D-01  0.71882785D-02  0.30333155D-02 -0.10461537D-02  0.81788771D-18
 -0.11862264D-17  0.16619117D-03 -0.72932997D-19  0.10047362D-18 -0.50348376D-04
 -0.18998923D-20  0.27128504D-20  0.15258620D-05 -0.79202939D-05 -0.79202939D-05
  0.15840588D-04  0.16342354D-20  0.12353561D-18 -0.17013030D-18 -0.21783937D-03
 -0.21783937D-03  0.43567873D-03 -0.19629845D-19  0.13564747D-18 -0.16340449D-18
  0.33886048D-05  0.33886048D-05 -0.67772096D-05 -0.86091587D-22  0.60373830D-20
 -0.84448936D-20  0.23243335D-19 -0.33059044D-19 -0.49275404D-04  0.24538543D-19
 -0.28997873D-19  0.73913106D-04 -0.94268548D-19  0.12817501D-18  0.73913106D-04
  0.64719726D-21  0.21029409D-20 -0.29014272D-20  0.71415878D-05  0.20733496D-20
 -0.30690181D-20 -0.10712382D-04 -0.83821722D-20  0.11773300D-19 -0.10712382D-04
 -0.16322881D-22  0.40027182D-04  0.74619768D-04  0.12612055D-03  0.18960050D-03
  0.23294612D-03  0.19676024D-03  0.74210724D-04 -0.36727301D-06 -0.30969580D-04
 -0.57984824D-04 -0.98724125D-04 -0.15271121D-03 -0.20111529D-03 -0.20897167D-03
 -0.13279211D-03  0.88994187D-04  0.19215721D-03 -0.86041218D-03 -0.26218979D-03
 -0.10448214D-18 -0.97958649D-19 -0.69752394D-19  0.12816776D-18  0.12016542D-18
  0.85564937D-19  0.50125320D-03  0.46995673D-03  0.33463719D-03  0.82252738D-19
 -0.11104671D-18 -0.63282502D-03  0.18580729D-18 -0.25793758D-18 -0.60857338D-03
  0.79842433D-20 -0.11189901D-19 -0.29071042D-04 -0.10798082D-03 -0.10798082D-03
  0.21596164D-03 -0.63514966D-22 -0.33693704D-18  0.44667137D-18  0.19787233D-03
  0.19787233D-03 -0.39574465D-03  0.42223281D-21  0.25894253D-18 -0.35491606D-18
  0.28327148D-04  0.28327148D-04 -0.56654295D-04 -0.78755163D-22  0.43264460D-19
 -0.60274912D-19  0.12324297D-19 -0.16765342D-19 -0.36296715D-04  0.13512544D-19
 -0.16005658D-19  0.54445073D-04 -0.50485436D-19  0.66301682D-19  0.54445073D-04
  0.95540813D-21 -0.21935897D-19  0.30115487D-19 -0.53061763D-04 -0.21672118D-19
  0.29847762D-19  0.79592645D-04  0.87479807D-19 -0.12019422D-18  0.79592645D-04
  0.46804294D-21
MO    2     MO 0.0        OCC NO =    2.0000000  ORB. ENERGY =  -10.627230
  0.64828415D-04  0.12126535D-03  0.20941981D-03  0.33826758D-03  0.50942402D-03
  0.69281426D-03  0.78869879D-03  0.63895418D-03  0.25936412D-03  0.23650441D-04
 -0.90889169D-06  0.30392684D-06  0.17055685D-07 -0.15147467D-03 -0.28351888D-03
 -0.49035680D-03 -0.79698634D-03 -0.12193826D-02 -0.17303882D-02 -0.21706283D-02
 -0.22131436D-02 -0.13597994D-02  0.29635716D-03  0.10855124D-02  0.49647516D-03
 -0.26353174D-05  0.10240840D-03  0.19153946D-03  0.33169445D-03  0.53855478D-03
  0.82667070D-03  0.11742489D-02  0.14897209D-02  0.15422637D-02  0.99340520D-03
 -0.24433318D-03 -0.99597723D-03 -0.86866544D-03  0.44271713D-03  0.71299344D-03
 -0.69209841D-04  0.71859670D-04 -0.13941761D-16 -0.18389901D-16 -0.20426662D-16
 -0.17482344D-16 -0.99892707D-17 -0.32417361D-17 -0.22826000D-20 -0.45468342D-16
 -0.59975086D-16 -0.66617588D-16 -0.57015265D-16 -0.32578064D-16 -0.10572292D-16
 -0.74442560D-20  0.23075846D-02  0.30438230D-02  0.33809397D-02  0.28936078D-02
  0.16533843D-02  0.53655923D-03  0.37780684D-06 -0.32815022D-17 -0.44874120D-17
 -0.48782689D-17 -0.44779957D-17 -0.24406895D-17 -0.10299241D-17  0.35520833D-18
 -0.13649163D-17 -0.18665054D-17 -0.20290794D-17 -0.18625888D-17 -0.10151865D-17
 -0.42838922D-18  0.14774625D-18 -0.14015472D-02 -0.19165977D-02 -0.20835348D-02
 -0.19125760D-02 -0.10424316D-02 -0.43988610D-03  0.15171138D-03  0.53679137D-17
  0.10141890D-19 -0.10679344D-02  0.18590459D-18 -0.26362418D-18  0.19755158D-03
  0.50826728D-20 -0.73702485D-20 -0.26037166D-05  0.81049908D-04  0.81049908D-04
 -0.16209982D-03  0.27556620D-19 -0.15614641D-18  0.77501691D-19  0.75054238D-04
  0.75054238D-04 -0.15010848D-03 -0.20304530D-19  0.19547348D-18 -0.63853419D-18
  0.52950284D-05  0.52950284D-05 -0.10590057D-04 -0.30568489D-20 -0.21192483D-19
  0.41805553D-19  0.20586742D-19 -0.90555893D-19  0.16337146D-03  0.12378642D-19
 -0.93377753D-19 -0.24505719D-03 -0.74138866D-19  0.36504543D-18 -0.24505719D-03
 -0.45547188D-19 -0.60412134D-20  0.79359844D-20  0.65061574D-05 -0.53100412D-20
  0.78342133D-20 -0.97592360D-05  0.23433681D-19 -0.31642167D-19 -0.97592360D-05
 -0.71062150D-20  0.32586660D+00  0.60748943D+00  0.10267642D+01  0.15435628D+01
  0.18964453D+01  0.16018512D+01  0.60415935D+00 -0.29900183D-02  0.12172306D-03
  0.22790397D-03  0.38802600D-03  0.60021722D-03  0.79046497D-03  0.82134373D-03
  0.52192707D-03 -0.34978339D-03  0.31262454D-01  0.10033363D-02 -0.30453392D-03
 -0.65251235D-17 -0.61177180D-17 -0.43561797D-17  0.22288693D-16  0.20897067D-16
  0.14879956D-16 -0.15495672D-02 -0.14528178D-02 -0.10344928D-02  0.67665194D-18
 -0.28929673D-17  0.11003406D-02 -0.39458743D-18  0.64531518D-18 -0.39411693D-03
 -0.22083350D-19  0.29614487D-19 -0.33748382D-04 -0.10519262D-02 -0.10519262D-02
  0.21038523D-02  0.63434547D-17  0.26287286D-17 -0.44709124D-17  0.11950465D-03
  0.11950465D-03 -0.23900929D-03 -0.59131425D-18 -0.29882214D-18 -0.45047953D-19
  0.31701605D-04  0.31701605D-04 -0.63403211D-04  0.18452035D-19 -0.73943090D-19
  0.94521768D-19 -0.13627754D-18  0.67837140D-19  0.20159812D-03 -0.11359075D-18
  0.42219973D-18 -0.30239719D-03  0.52242336D-18 -0.62571115D-18 -0.30239719D-03
 -0.19330355D-18  0.34246943D-19  0.39511208D-20 -0.77804466D-04  0.17327726D-19
 -0.15914175D-19  0.11670670D-03 -0.12006856D-18  0.40608125D-20  0.11670670D-03
 -0.61126274D-19
MO    3     MO 0.0        OCC NO =    2.0000000  ORB. ENERGY =   -5.599526
 -0.31775942D-02 -0.59438760D-02 -0.10264807D-01 -0.16580339D-01 -0.24969649D-01
 -0.33958605D-01 -0.38658429D-01 -0.31318629D-01 -0.12712850D-01 -0.11592371D-02
  0.44549738D-04 -0.14897112D-04 -0.83599214D-06 -0.12901891D+00 -0.24148788D+00
 -0.41766258D+00 -0.67883503D+00 -0.10386120D+01 -0.14738623D+01 -0.18488378D+01
 -0.18850503D+01 -0.11582124D+01  0.25242292D+00  0.92458779D+00  0.42287391D+00
 -0.22446379D-02 -0.20956707D-02 -0.39196358D-02 -0.67877471D-02 -0.11020907D-01
 -0.16916869D-01 -0.24029658D-01 -0.30485433D-01 -0.31560660D-01 -0.20328900D-01
  0.49999987D-02  0.20381534D-01  0.17776244D-01 -0.90596992D-02  0.30072761D-01
  0.51827521D-03 -0.29950863D-03 -0.34025156D-15 -0.44880935D-15 -0.49851693D-15
 -0.42666023D-15 -0.24379023D-15 -0.79115243D-16 -0.55707326D-19  0.88337095D-16
  0.11652118D-15  0.12942641D-15  0.11077076D-15  0.63293524D-16  0.20540128D-16
  0.14462897D-19  0.38378571D-01  0.50623313D-01  0.56230065D-01  0.48125010D-01
  0.27498244D-01  0.89237796D-02  0.62834908D-05  0.39915133D-17  0.54583431D-17
  0.59337687D-17  0.54468894D-17  0.29687759D-17  0.12527664D-17 -0.43206394D-18
  0.33506190D-16  0.45819285D-16  0.49810178D-16  0.45723138D-16  0.24920967D-16
  0.10516169D-16 -0.36268993D-17 -0.21041539D-01 -0.28774034D-01 -0.31280273D-01
 -0.28713655D-01 -0.15650108D-01 -0.66040450D-02  0.22776550D-02 -0.11106384D-16
  0.13776916D-16  0.81272589D-03 -0.21164315D-18 -0.95473940D-18 -0.10918806D-04
 -0.35689485D-20 -0.22075628D-19 -0.81952844D-05  0.58685289D-06  0.58685289D-06
 -0.11737058D-05 -0.94269730D-19  0.32919304D-18  0.14146223D-17  0.31981884D-03
  0.31981884D-03 -0.63963768D-03  0.10236534D-17 -0.61739592D-18  0.49061203D-17
 -0.12324889D-04 -0.12324889D-04  0.24649779D-04  0.46374882D-20  0.15711739D-19
  0.79992265D-19 -0.10765105D-19  0.32385095D-18  0.48866105D-04  0.59464827D-19
  0.34923990D-18 -0.73299157D-04 -0.27169513D-19 -0.13207927D-17 -0.73299157D-04
 -0.20349275D-18  0.83686428D-20  0.20869439D-19 -0.19383412D-04  0.74853414D-20
  0.20324873D-19  0.29075118D-04 -0.32591270D-19 -0.82933188D-19  0.29075118D-04
  0.20180286D-19 -0.26085878D-03 -0.48630007D-03 -0.82193279D-03 -0.12356342D-02
 -0.15181194D-02 -0.12822945D-02 -0.48363431D-03  0.23935332D-05  0.72587343D-04
  0.13590641D-03  0.23139229D-03  0.35792869D-03  0.47137949D-03  0.48979348D-03
  0.31124177D-03 -0.20858700D-03 -0.28245436D-03  0.16343762D-02  0.55424387D-03
 -0.13137354D-17 -0.12317105D-17 -0.87705122D-18 -0.76414905D-18 -0.71643830D-18
 -0.51014675D-18 -0.46300103D-03 -0.43409289D-03 -0.30910000D-03 -0.69628066D-19
  0.12504189D-17  0.11692563D-02  0.37274880D-18  0.23010278D-17  0.15309300D-02
  0.18757159D-19  0.10505870D-18  0.65341100D-04  0.18292402D-03  0.18292402D-03
 -0.36584803D-03 -0.14329411D-18 -0.93018307D-18 -0.38806150D-17 -0.41023303D-03
 -0.41023303D-03  0.82046606D-03 -0.39333712D-19  0.20882103D-18  0.34982438D-17
 -0.83550611D-04 -0.83550611D-04  0.16710122D-03  0.12875858D-19  0.75334768D-19
  0.54273707D-18  0.74074218D-19  0.31584800D-19  0.22086586D-03 -0.41584157D-19
  0.10188876D-18 -0.33129879D-03 -0.18063850D-18 -0.19664316D-18 -0.33129879D-03
 -0.28835406D-18 -0.25118273D-19 -0.30380655D-18  0.10632589D-03  0.11374832D-19
 -0.30596390D-18 -0.15948883D-03  0.63979987D-19  0.12173835D-17 -0.15948883D-03
 -0.90842487D-21
MO    4     MO 0.0        OCC NO =    2.0000000  ORB. ENERGY =   -3.908145
 -0.51639723D-03 -0.96595128D-03 -0.16681544D-02 -0.26945043D-02 -0.40578680D-02
 -0.55186813D-02 -0.62824592D-02 -0.50896535D-02 -0.20659909D-02 -0.18838995D-03
  0.72398678D-05 -0.24209596D-05 -0.13585877D-06  0.13104419D-02  0.24527864D-02
  0.42421883D-02  0.68949103D-02  0.10549156D-01  0.14969982D-01  0.18778599D-01
  0.19146409D-01  0.11763934D-01 -0.25638532D-02 -0.93910150D-02 -0.42951197D-02
  0.22798731D-04 -0.51759631D-03 -0.96808581D-03 -0.16764623D-02 -0.27219835D-02
 -0.41781895D-02 -0.59349319D-02 -0.75294024D-02 -0.77949659D-02 -0.50209052D-02
  0.12349178D-02  0.50339049D-02  0.43904409D-02 -0.22375973D-02  0.13979845D-02
 -0.39220530D-02 -0.60878198D-03 -0.97814061D-13 -0.12902179D-12 -0.14331151D-12
 -0.12265445D-12 -0.70083769D-13 -0.22743711D-13 -0.16014503D-16 -0.24633877D-12
 -0.32493354D-12 -0.36092134D-12 -0.30889779D-12 -0.17650172D-12 -0.57278655D-13
 -0.40331554D-16  0.61977289D+01  0.81751238D+01  0.90805544D+01  0.77716746D+01
  0.44406724D+01  0.14410950D+01  0.10147166D-02  0.31458474D-15  0.43019058D-15
  0.46766049D-15  0.42928788D-15  0.23397933D-15  0.98734782D-16 -0.34052429D-16
  0.49136873D-15  0.67194041D-15  0.73046691D-15  0.67053043D-15  0.36546631D-15
  0.15421976D-15 -0.53188526D-16 -0.33360556D-01 -0.45620131D-01 -0.49593678D-01
 -0.45524403D-01 -0.24812648D-01 -0.10470461D-01  0.36111350D-02 -0.24838510D-14
 -0.62026485D-14  0.15643410D+00 -0.45675961D-17 -0.15571124D-16  0.12705764D-02
 -0.82641806D-19 -0.54518560D-18  0.22979089D-04  0.27940666D-03  0.27940666D-03
 -0.55881333D-03  0.57374803D-19  0.89470359D-17  0.27275155D-16  0.25196421D-03
  0.25196421D-03 -0.50392843D-03 -0.91861149D-18 -0.14533255D-16 -0.13848111D-16
  0.12696159D-04  0.12696159D-04 -0.25392319D-04 -0.15717632D-21  0.33318995D-18
  0.14087697D-17  0.13360219D-17  0.43391711D-17  0.30170920D-03  0.10862740D-17
  0.42061272D-17 -0.45256380D-03 -0.50943399D-17 -0.17223640D-16 -0.45256380D-03
  0.59823815D-18  0.13939870D-18  0.47038255D-18  0.11085792D-04  0.14550397D-18
  0.47394891D-18 -0.16628688D-04 -0.56370007D-18 -0.18850966D-17 -0.16628688D-04
 -0.34334672D-19  0.44398782D-03  0.82769425D-03  0.13989491D-02  0.21030787D-02
  0.25838752D-02  0.21824957D-02  0.82315706D-03 -0.40738503D-05  0.70403647D-04
  0.13181784D-03  0.22443115D-03  0.34716087D-03  0.45719865D-03  0.47505868D-03
  0.30187847D-03 -0.20231193D-03 -0.52634614D-03  0.55912594D-02  0.15683428D-02
 -0.13598400D-16 -0.12749364D-16 -0.90783067D-17 -0.21615774D-16 -0.20266162D-16
 -0.14430715D-16 -0.36019807D-02 -0.33770859D-02 -0.24046863D-02  0.23160997D-17
  0.77887415D-17  0.16723287D-02  0.12323833D-16  0.40234670D-16  0.18143022D-02
  0.43237989D-18  0.19724321D-17  0.10048080D-03  0.48759801D-03  0.48759801D-03
 -0.97519602D-03  0.24053781D-18 -0.22797950D-16 -0.72686977D-16 -0.26617283D-03
 -0.26617283D-03  0.53234566D-03  0.10334502D-18  0.11127870D-16  0.41677565D-16
 -0.32138199D-04 -0.32138199D-04  0.64276398D-04 -0.17482492D-19  0.29906794D-17
  0.97228342D-17  0.35869890D-17  0.61409717D-17 -0.46996197D-03  0.36797825D-17
  0.61368098D-17  0.70494295D-03 -0.14440749D-16 -0.24559725D-16  0.70494295D-03
  0.23950581D-18 -0.11650356D-17 -0.36912255D-17  0.15343278D-04 -0.11688844D-17
 -0.36870289D-17 -0.23014917D-04  0.46639913D-17  0.14760705D-16 -0.23014917D-04
  0.43043780D-19
MO    5     MO 0.0        OCC NO =    2.0000000  ORB. ENERGY =   -3.904942
 -0.60577217D-16 -0.11331323D-15 -0.19568686D-15 -0.31608529D-15 -0.47601795D-15
 -0.64738216D-15 -0.73697896D-15 -0.59705402D-15 -0.24235602D-15 -0.22099536D-16
  0.84929007D-18 -0.28399648D-18 -0.15937239D-19  0.10800376D-15  0.20215331D-15
  0.34963192D-15  0.56826349D-15  0.86943850D-15  0.12337933D-14  0.15476913D-14
  0.15780053D-14  0.96955784D-15 -0.21130720D-15 -0.77398700D-15 -0.35399441D-15
  0.18790217D-17 -0.58911788D-16 -0.11018561D-15 -0.19081162D-15 -0.30981077D-15
 -0.47555326D-15 -0.67550220D-15 -0.85698168D-15 -0.88720759D-15 -0.57146949D-15
  0.14055589D-15  0.57294909D-15  0.49971130D-15 -0.25467889D-15  0.18288011D-15
 -0.61359609D-15 -0.15423007D-15  0.54579759D+01  0.71993515D+01  0.79967110D+01
  0.68440575D+01  0.39106394D+01  0.12690877D+01  0.89360131D-03  0.29046906D+01
  0.38314366D+01  0.42557849D+01  0.36423520D+01  0.20812107D+01  0.67539823D+00
  0.47556739D-03  0.20537196D-12  0.27089620D-12  0.30089913D-12  0.25752724D-12
  0.14714900D-12  0.47753057D-13  0.33624306D-16 -0.12468869D-01 -0.17051018D-01
 -0.18536174D-01 -0.17015239D-01 -0.92739961D-02 -0.39134482D-02  0.13497008D-02
 -0.66358313D-02 -0.90744140D-02 -0.98648020D-02 -0.90553724D-02 -0.49355457D-02
 -0.20827055D-02  0.71829986D-03 -0.38101179D-14 -0.52102872D-14 -0.56641070D-14
 -0.51993540D-14 -0.28338591D-14 -0.11958341D-14  0.41242868D-15  0.13799598D+00
  0.73440343D-01  0.50502680D-14  0.32365917D-03  0.17224879D-03  0.22896653D-15
  0.10074162D-04  0.53613878D-05  0.81362564D-17  0.22933293D-15 -0.13741367D-15
 -0.91919254D-16  0.25398551D-16 -0.57569787D-03 -0.30638175D-03 -0.16346061D-14
  0.17572542D-14 -0.12264810D-15 -0.11188592D-15  0.44863258D-03  0.23875863D-03
 -0.39228418D-17  0.12489859D-16 -0.85670172D-17 -0.11568130D-17 -0.27583909D-04
 -0.14679933D-04 -0.90724269D-04 -0.48282722D-04  0.28065405D-16 -0.90604447D-04
 -0.48218954D-04 -0.31741505D-15  0.36277725D-03  0.19306712D-03  0.23321884D-15
 -0.45473912D-16 -0.10149298D-04 -0.54013745D-05  0.10760089D-16 -0.10155982D-04
 -0.54049314D-05  0.70543767D-17  0.40603877D-04  0.21609055D-04 -0.39334643D-16
  0.46541546D-18  0.25154346D-15  0.46893421D-15  0.79258142D-15  0.11915095D-14
  0.14639071D-14  0.12365035D-14  0.46636364D-15 -0.23080597D-17 -0.12305427D-15
 -0.23039641D-15 -0.39226961D-15 -0.60678143D-15 -0.79910980D-15 -0.83032627D-15
 -0.52763507D-15  0.35360875D-15 -0.44760279D-15  0.82286471D-15  0.31924743D-15
  0.51959018D-03  0.48714882D-03  0.34687898D-03  0.27652169D-03  0.25925666D-03
  0.18460619D-03 -0.54739698D-15 -0.51321946D-15 -0.36544283D-15 -0.12926944D-03
 -0.68796149D-04  0.47038175D-15 -0.83797931D-03 -0.44596581D-03  0.18231078D-15
 -0.38071882D-04 -0.20261547D-04  0.21105787D-16 -0.46832420D-16 -0.23808823D-16
  0.70641243D-16  0.62196267D-15  0.14979279D-02  0.79718509D-03  0.17658405D-15
 -0.27106133D-15  0.94477280D-16 -0.77199510D-16 -0.83920794D-03 -0.44661968D-03
 -0.24133070D-16  0.90168584D-17  0.15116212D-16  0.23223302D-17 -0.20373210D-03
 -0.10842457D-03 -0.15175003D-03 -0.80760136D-04  0.60968046D-16 -0.15165733D-03
 -0.80710805D-04 -0.35413073D-15  0.60690741D-03  0.32299121D-03  0.17122659D-15
  0.39072330D-15  0.76656227D-04  0.40795824D-04  0.10942551D-16  0.76658992D-04
  0.40797295D-04  0.54095938D-16 -0.30662767D-03 -0.16318477D-03 -0.86923591D-16
 -0.69340858D-17
MO    6     MO 0.0        OCC NO =    2.0000000  ORB. ENERGY =   -3.904942
 -0.14413702D-15 -0.26961674D-15 -0.46561599D-15 -0.75209119D-15 -0.11326339D-14
 -0.15403767D-14 -0.17535627D-14 -0.14206263D-14 -0.57666027D-15 -0.52583485D-16
  0.20207950D-17 -0.67573930D-18 -0.37920958D-19  0.25632015D-15  0.47976075D-15
  0.82976466D-15  0.13486325D-14  0.20633967D-14  0.29281025D-14  0.36730614D-14
  0.37450043D-14  0.23010051D-14 -0.50148524D-15 -0.18368662D-14 -0.84011794D-15
  0.44593921D-17 -0.16075618D-15 -0.30067018D-15 -0.52067929D-15 -0.84539951D-15
 -0.12976711D-14 -0.18432840D-14 -0.23384981D-14 -0.24209774D-14 -0.15594036D-14
  0.38354343D-15  0.15634411D-14  0.13635926D-14 -0.69495780D-15  0.19333914D-16
 -0.26541726D-15 -0.46560962D-16 -0.29046906D+01 -0.38314366D+01 -0.42557849D+01
 -0.36423520D+01 -0.20812107D+01 -0.67539823D+00 -0.47556739D-03  0.54579759D+01
  0.71993515D+01  0.79967110D+01  0.68440575D+01  0.39106394D+01  0.12690877D+01
  0.89360131D-03  0.17610024D-12  0.23228529D-12  0.25801190D-12  0.22082182D-12
  0.12617581D-12  0.40946802D-13  0.28831825D-16  0.66358313D-02  0.90744140D-02
  0.98648020D-02  0.90553724D-02  0.49355457D-02  0.20827055D-02 -0.71829986D-03
 -0.12468869D-01 -0.17051018D-01 -0.18536174D-01 -0.17015239D-01 -0.92739961D-02
 -0.39134482D-02  0.13497008D-02 -0.44242299D-14 -0.60500774D-14 -0.65770436D-14
 -0.60373821D-14 -0.32906184D-14 -0.13885778D-14  0.47890363D-15 -0.73440343D-01
  0.13799598D+00  0.43778600D-14 -0.17224879D-03  0.32365917D-03  0.40465340D-17
 -0.53613878D-05  0.10074162D-04  0.54242243D-17 -0.13074472D-16 -0.20370467D-16
  0.33444939D-16  0.39310518D-17  0.30638175D-03 -0.57569787D-03  0.96170007D-16
  0.10119292D-15 -0.19736293D-15 -0.10403130D-15 -0.23875863D-03  0.44863258D-03
  0.29773136D-18  0.22511762D-18 -0.52284899D-18  0.39722148D-18  0.14679933D-04
 -0.27583909D-04  0.48282722D-04 -0.90724269D-04  0.21254826D-16  0.48218954D-04
 -0.90604447D-04 -0.33322789D-16 -0.19306712D-03  0.36277725D-03 -0.30441688D-16
 -0.41385213D-17  0.54013745D-05 -0.10149298D-04 -0.67552710D-17  0.54049314D-05
 -0.10155982D-04  0.99718330D-17 -0.21609055D-04  0.40603877D-04  0.10293980D-16
  0.79545867D-19 -0.16446478D-15 -0.30659974D-15 -0.51820757D-15 -0.77903571D-15
 -0.95713539D-15 -0.80845384D-15 -0.30491904D-15  0.15090614D-17  0.15767703D-15
  0.29522116D-15  0.50263928D-15  0.77750654D-15  0.10239488D-14  0.10639483D-14
  0.67609141D-15 -0.45310074D-15  0.11189706D-15  0.45265631D-15  0.17647369D-15
 -0.27652169D-03 -0.25925666D-03 -0.18460619D-03  0.51959018D-03  0.48714882D-03
  0.34687898D-03 -0.33933728D-15 -0.31815027D-15 -0.22654195D-15  0.68796149D-04
 -0.12926944D-03  0.12815460D-15  0.44596581D-03 -0.83797931D-03  0.33187771D-15
  0.20261547D-04 -0.38071882D-04  0.11476999D-16  0.10112211D-15  0.83411834D-16
 -0.18453394D-15  0.13650404D-16 -0.79718509D-03  0.14979279D-02 -0.10207043D-15
 -0.97746031D-16  0.19981646D-15 -0.12606077D-17  0.44661968D-03 -0.83920794D-03
 -0.13047246D-16 -0.12869232D-16  0.25916478D-16  0.23958199D-18  0.10842457D-03
 -0.20373210D-03  0.80760136D-04 -0.15175003D-03 -0.29680314D-16  0.80710805D-04
 -0.15165733D-03  0.54867106D-16 -0.32299121D-03  0.60690741D-03  0.34173835D-16
 -0.14982971D-16 -0.40795824D-04  0.76656227D-04  0.37127453D-16 -0.40797295D-04
  0.76658992D-04 -0.56783133D-16  0.16318477D-03 -0.30662767D-03 -0.54599225D-16
  0.14644401D-17
MO    7     MO 0.0        OCC NO =    2.0000000  ORB. ENERGY =   -0.720964
 -0.40702252D-03 -0.76135947D-03 -0.13148336D-02 -0.21237990D-02 -0.31983976D-02
 -0.43498056D-02 -0.49518127D-02 -0.40116473D-02 -0.16284069D-02 -0.14848831D-03
  0.57064388D-05 -0.19081920D-05 -0.10708341D-06  0.25279807D-02  0.47316838D-02
  0.81836290D-02  0.13301010D-01  0.20350436D-01  0.28878676D-01  0.36225900D-01
  0.36935444D-01  0.22693871D-01 -0.49459435D-02 -0.18116259D-01 -0.82857392D-02
  0.43981158D-04  0.18769132D-01  0.35104829D-01  0.60792052D-01  0.98704850D-01
  0.15150995D+00  0.21521312D+00  0.27303198D+00  0.28266187D+00  0.18206859D+00
 -0.44780717D-01 -0.18253999D+00 -0.15920663D+00  0.81139987D-01  0.23788330D-01
  0.15417226D-01  0.10647399D-02  0.42557527D-15  0.56135571D-15  0.62352830D-15
  0.53365234D-15  0.30492466D-15  0.98954698D-16  0.69676859D-19 -0.17570050D-14
 -0.23175801D-14 -0.25742622D-14 -0.22032056D-14 -0.12588940D-14 -0.40853854D-15
 -0.28766378D-18  0.21553819D+00  0.28430598D+00  0.31579411D+00  0.27027524D+00
  0.15443310D+00  0.50116908D-01  0.35288762D-04 -0.26032527D-16 -0.35599146D-16
 -0.38699858D-16 -0.35524446D-16 -0.19362266D-16 -0.81705042D-17  0.28179078D-17
 -0.90616485D-16 -0.12391688D-15 -0.13471013D-15 -0.12365685D-15 -0.67398006D-16
 -0.28440664D-16  0.98088402D-17  0.32546771D+00  0.44507291D+00  0.48383908D+00
  0.44413897D+00  0.24207378D+00  0.10215048D+00 -0.35230463D-01 -0.15227662D-16
 -0.23835440D-16 -0.24679104D-01 -0.17820065D-17 -0.49898253D-18 -0.14465064D-02
 -0.28577458D-19  0.65445622D-19  0.35270523D-04 -0.52848269D-03 -0.52848269D-03
  0.10569654D-02 -0.30615481D-18  0.32238109D-17 -0.13719639D-17 -0.10578674D-01
 -0.10578674D-01  0.21157348D-01  0.50640415D-17  0.13148132D-17 -0.18140976D-17
  0.50351899D-04  0.50351899D-04 -0.10070380D-03  0.89675681D-19  0.12997142D-18
  0.25514085D-20 -0.49276938D-18  0.31751860D-18 -0.20005662D-02  0.18871571D-17
  0.10595871D-17  0.30008493D-02 -0.40884895D-18 -0.20121429D-17  0.30008493D-02
 -0.23477804D-17  0.88094562D-19  0.23846014D-20  0.12152156D-03 -0.18160211D-19
 -0.88766261D-19 -0.18228234D-03 -0.24612348D-18  0.81612457D-19 -0.18228234D-03
  0.19890174D-18 -0.66429314D-02 -0.12383934D-01 -0.20931031D-01 -0.31466195D-01
 -0.38659857D-01 -0.32654429D-01 -0.12316049D-01  0.60952815D-04 -0.53655081D-01
 -0.10045924D+00 -0.17104045D+00 -0.26457357D+00 -0.34843409D+00 -0.36204534D+00
 -0.23006356D+00  0.15418325D+00  0.76900178D-01  0.24839623D-01 -0.37854634D-02
 -0.51394408D-16 -0.48185524D-16 -0.34310964D-16  0.14672805D-15  0.13756688D-15
  0.97955811D-16  0.16081586D+00  0.15077510D+00  0.10736085D+00 -0.30429553D-16
  0.60552535D-16  0.27456727D-01  0.34420824D-17  0.33862941D-17 -0.41823193D-02
  0.90305771D-19  0.18164651D-18 -0.55363075D-03 -0.12425600D-01 -0.12425600D-01
  0.24851201D-01  0.13801617D-16  0.25731983D-16 -0.21460274D-16 -0.83831756D-03
 -0.83831756D-03  0.16766351D-02  0.66795023D-17  0.28337724D-17  0.61092668D-17
  0.30738260D-03  0.30738260D-03 -0.61476521D-03 -0.27080350D-18  0.86081905D-18
  0.18620843D-18 -0.73633335D-18  0.11671697D-17  0.56179163D-02  0.32965409D-18
 -0.12393179D-17 -0.84268745D-02  0.18793460D-17 -0.22621913D-17 -0.84268745D-02
 -0.78338109D-17 -0.78556642D-18 -0.38473867D-18  0.10628497D-04 -0.63850377D-18
 -0.65487027D-19 -0.15942746D-04  0.29952030D-17  0.12197030D-17 -0.15942746D-04
  0.34179006D-17
MO    8     MO 0.0        OCC NO =    2.0000000  ORB. ENERGY =   -0.418654
  0.78310754D-03  0.14648485D-02  0.25297276D-02  0.40861695D-02  0.61536872D-02
  0.83689855D-02  0.95272415D-02  0.77183721D-02  0.31330398D-02  0.28569013D-03
 -0.10979135D-04  0.36713437D-05  0.20602749D-06 -0.16363842D-02 -0.30628607D-02
 -0.52973353D-02 -0.86098611D-02 -0.13173017D-01 -0.18693422D-01 -0.23449345D-01
 -0.23908639D-01 -0.14689943D-01  0.32015529D-02  0.11726815D-01  0.53634321D-02
 -0.28469392D-04  0.29721065D-01  0.55588767D-01  0.96264682D-01  0.15629989D+00
  0.23991717D+00  0.34079163D+00  0.43234824D+00  0.44759725D+00  0.28830702D+00
 -0.70910611D-01 -0.28905347D+00 -0.25210492D+00  0.12848579D+00  0.37256695D-01