 Molden2AIM, Version 4.0.0 (06/02/2016)           Time: Thu Jun 28 23:30:45 2018
GAUSSIAN             18 MOL ORBITALS    344 PRIMITIVES        4 NUCLEI
  As   1    (CENTRE  1)   0.00000000  0.00003968  0.66214492  CHARGE = 33.0
  H    2    (CENTRE  2)   0.00000000 -2.39983502 -0.94185840  CHARGE =  1.0
  H    3    (CENTRE  3)   2.07836992  1.19999310 -0.94182249  CHARGE =  1.0
  H    4    (CENTRE  4)  -2.07836992  1.19999310 -0.94182249  CHARGE =  1.0
CENTRE ASSIGNMENTS    1  1  1  1  1  1  1  1  1  1  1  1  1  1  1  1  1  1  1  1
CENTRE ASSIGNMENTS    1  1  1  1  1  1  1  1  1  1  1  1  1  1  1  1  1  1  1  1
CENTRE ASSIGNMENTS    1  1  1  1  1  1  1  1  1  1  1  1  1  1  1  1  1  1  1  1
CENTRE ASSIGNMENTS    1  1  1  1  1  1  1  1  1  1  1  1  1  1  1  1  1  1  1  1
CENTRE ASSIGNMENTS    1  1  1  1  1  1  1  1  1  1  1  1  1  1  1  1  1  1  1  1
CENTRE ASSIGNMENTS    1  1  1  1  1  1  1  1  1  1  1  1  1  1  1  1  1  1  1  1
CENTRE ASSIGNMENTS    1  1  1  1  1  1  1  1  1  1  1  1  1  1  1  1  1  1  1  1
CENTRE ASSIGNMENTS    1  1  1  1  1  1  1  1  1  1  1  1  1  1  1  1  1  1  1  1
CENTRE ASSIGNMENTS    1  1  1  1  1  1  1  1  1  1  1  1  1  1  1  1  1  1  1  1
CENTRE ASSIGNMENTS    1  1  1  1  1  1  1  1  1  1  1  1  1  1  1  1  1  1  1  1
CENTRE ASSIGNMENTS    1  1  1  1  1  1  1  1  1  1  1  1  1  1  1  1  1  1  1  1
CENTRE ASSIGNMENTS    1  1  1  1  1  1  1  1  1  1  1  1  1  1  1  1  1  1  1  1
CENTRE ASSIGNMENTS    1  1  1  1  1  1  1  1  1  1  1  1  1  1  1  1  1  1  1  1
CENTRE ASSIGNMENTS    1  1  1  2  2  2  2  2  2  2  2  2  2  2  2  2  2  2  2  2
CENTRE ASSIGNMENTS    2  2  2  2  2  2  2  2  2  2  3  3  3  3  3  3  3  3  3  3
CENTRE ASSIGNMENTS    3  3  3  3  3  3  3  3  3  3  3  3  3  3  3  3  3  4  4  4
CENTRE ASSIGNMENTS    4  4  4  4  4  4  4  4  4  4  4  4  4  4  4  4  4  4  4  4
CENTRE ASSIGNMENTS    4  4  4  4
TYPE ASSIGNMENTS      1  1  1  1  1  1  1  1  1  1  1  1  1  1  1  1  1  1  1  1
TYPE ASSIGNMENTS      1  1  1  1  1  1  1  1  1  1  1  1  1  1  1  1  1  1  1  1
TYPE ASSIGNMENTS      1  1  1  1  1  1  1  1  1  1  1  1  1  1  1  1  1  1  1  1
TYPE ASSIGNMENTS      1  1  1  1  1  1  1  1  1  1  1  1  1  1  1  2  2  2  2  2
TYPE ASSIGNMENTS      2  2  2  2  2  2  3  3  3  3  3  3  3  3  3  3  3  4  4  4
TYPE ASSIGNMENTS      4  4  4  4  4  4  4  4  2  2  2  2  2  2  2  2  2  2  2  3
TYPE ASSIGNMENTS      3  3  3  3  3  3  3  3  3  3  4  4  4  4  4  4  4  4  4  4
TYPE ASSIGNMENTS      4  2  2  2  2  2  2  2  2  2  2  2  3  3  3  3  3  3  3  3
TYPE ASSIGNMENTS      3  3  3  4  4  4  4  4  4  4  4  4  4  4  2  3  4  2  3  4
TYPE ASSIGNMENTS      2  3  4  5  5  5  5  5  5  5  6  6  6  6  6  6  6  7  7  7
TYPE ASSIGNMENTS      7  7  7  7  8  8  8  8  8  8  8  9  9  9  9  9  9  9 10 10
TYPE ASSIGNMENTS     10 10 10 10 10  5  6  7  8  9 10  5  6  7  8  9 10  5  6  7
TYPE ASSIGNMENTS      8  9 10 11 12 13 17 14 15 18 19 16 20 11 12 13 17 14 15 18
TYPE ASSIGNMENTS     19 16 20  1  1  1  1  1  1  2  3  4  2  3  4  2  3  4  5  6
TYPE ASSIGNMENTS      7  8  9 10  5  6  7  8  9 10  1  1  1  1  1  1  2  3  4  2
TYPE ASSIGNMENTS      3  4  2  3  4  5  6  7  8  9 10  5  6  7  8  9 10  1  1  1
TYPE ASSIGNMENTS      1  1  1  2  3  4  2  3  4  2  3  4  5  6  7  8  9 10  5  6
TYPE ASSIGNMENTS      7  8  9 10
EXPONENTS  0.8482340D+07 0.1270151D+07 0.2890570D+06 0.8187985D+05 0.2671656D+05
EXPONENTS  0.9647584D+04 0.3764119D+04 0.1561566D+04 0.6808147D+03 0.3092412D+03
EXPONENTS  0.1452574D+03 0.6973905D+02 0.3177032D+02 0.1539176D+02 0.7341526D+01
EXPONENTS  0.3323716D+01 0.1485867D+01 0.2115000D+00 0.8482340D+07 0.1270151D+07
EXPONENTS  0.2890570D+06 0.8187985D+05 0.2671656D+05 0.9647584D+04 0.3764119D+04
EXPONENTS  0.1561566D+04 0.6808147D+03 0.3092412D+03 0.1452574D+03 0.6973905D+02
EXPONENTS  0.3177032D+02 0.1539176D+02 0.7341526D+01 0.3323716D+01 0.1485867D+01
EXPONENTS  0.2115000D+00 0.8482340D+07 0.1270151D+07 0.2890570D+06 0.8187985D+05
EXPONENTS  0.2671656D+05 0.9647584D+04 0.3764119D+04 0.1561566D+04 0.6808147D+03
EXPONENTS  0.3092412D+03 0.1452574D+03 0.6973905D+02 0.3177032D+02 0.1539176D+02
EXPONENTS  0.7341526D+01 0.3323716D+01 0.1485867D+01 0.2115000D+00 0.8482340D+07
EXPONENTS  0.1270151D+07 0.2890570D+06 0.8187985D+05 0.2671656D+05 0.9647584D+04
EXPONENTS  0.3764119D+04 0.1561566D+04 0.6808147D+03 0.3092412D+03 0.1452574D+03
EXPONENTS  0.6973905D+02 0.3177032D+02 0.1539176D+02 0.7341526D+01 0.3323716D+01
EXPONENTS  0.1485867D+01 0.2115000D+00 0.4210860D+00 0.8897400D-01 0.3340700D-01
EXPONENTS  0.7423861D+04 0.1759517D+04 0.5702292D+03 0.2165800D+03 0.9073425D+02
EXPONENTS  0.4030879D+02 0.1855550D+02 0.8396543D+01 0.3767367D+01 0.1629701D+01
EXPONENTS  0.2225030D+00 0.7423861D+04 0.1759517D+04 0.5702292D+03 0.2165800D+03
EXPONENTS  0.9073425D+02 0.4030879D+02 0.1855550D+02 0.8396543D+01 0.3767367D+01
EXPONENTS  0.1629701D+01 0.2225030D+00 0.7423861D+04 0.1759517D+04 0.5702292D+03
EXPONENTS  0.2165800D+03 0.9073425D+02 0.4030879D+02 0.1855550D+02 0.8396543D+01
EXPONENTS  0.3767367D+01 0.1629701D+01 0.2225030D+00 0.7423861D+04 0.1759517D+04
EXPONENTS  0.5702292D+03 0.2165800D+03 0.9073425D+02 0.4030879D+02 0.1855550D+02
EXPONENTS  0.8396543D+01 0.3767367D+01 0.1629701D+01 0.2225030D+00 0.7423861D+04
EXPONENTS  0.1759517D+04 0.5702292D+03 0.2165800D+03 0.9073425D+02 0.4030879D+02
EXPONENTS  0.1855550D+02 0.8396543D+01 0.3767367D+01 0.1629701D+01 0.2225030D+00
EXPONENTS  0.7423861D+04 0.1759517D+04 0.5702292D+03 0.2165800D+03 0.9073425D+02
EXPONENTS  0.4030879D+02 0.1855550D+02 0.8396543D+01 0.3767367D+01 0.1629701D+01
EXPONENTS  0.2225030D+00 0.7423861D+04 0.1759517D+04 0.5702292D+03 0.2165800D+03
EXPONENTS  0.9073425D+02 0.4030879D+02 0.1855550D+02 0.8396543D+01 0.3767367D+01
EXPONENTS  0.1629701D+01 0.2225030D+00 0.7423861D+04 0.1759517D+04 0.5702292D+03
EXPONENTS  0.2165800D+03 0.9073425D+02 0.4030879D+02 0.1855550D+02 0.8396543D+01
EXPONENTS  0.3767367D+01 0.1629701D+01 0.2225030D+00 0.7423861D+04 0.1759517D+04
EXPONENTS  0.5702292D+03 0.2165800D+03 0.9073425D+02 0.4030879D+02 0.1855550D+02
EXPONENTS  0.8396543D+01 0.3767367D+01 0.1629701D+01 0.2225030D+00 0.5682630D+00
EXPONENTS  0.5682630D+00 0.5682630D+00 0.8040500D-01 0.8040500D-01 0.8040500D-01
EXPONENTS  0.2679900D-01 0.2679900D-01 0.2679900D-01 0.3210196D+03 0.9624931D+02
EXPONENTS  0.3664496D+02 0.1549396D+02 0.6891138D+01 0.3054831D+01 0.1314241D+01
EXPONENTS  0.3210196D+03 0.9624931D+02 0.3664496D+02 0.1549396D+02 0.6891138D+01
EXPONENTS  0.3054831D+01 0.1314241D+01 0.3210196D+03 0.9624931D+02 0.3664496D+02
EXPONENTS  0.1549396D+02 0.6891138D+01 0.3054831D+01 0.1314241D+01 0.3210196D+03
EXPONENTS  0.9624931D+02 0.3664496D+02 0.1549396D+02 0.6891138D+01 0.3054831D+01
EXPONENTS  0.1314241D+01 0.3210196D+03 0.9624931D+02 0.3664496D+02 0.1549396D+02
EXPONENTS  0.6891138D+01 0.3054831D+01 0.1314241D+01 0.3210196D+03 0.9624931D+02
EXPONENTS  0.3664496D+02 0.1549396D+02 0.6891138D+01 0.3054831D+01 0.1314241D+01
EXPONENTS  0.5134300D+00 0.5134300D+00 0.5134300D+00 0.5134300D+00 0.5134300D+00
EXPONENTS  0.5134300D+00 0.1877000D+00 0.1877000D+00 0.1877000D+00 0.1877000D+00
EXPONENTS  0.1877000D+00 0.1877000D+00 0.7000000D-01 0.7000000D-01 0.7000000D-01
EXPONENTS  0.7000000D-01 0.7000000D-01 0.7000000D-01 0.4158000D+00 0.4158000D+00
EXPONENTS  0.4158000D+00 0.4158000D+00 0.4158000D+00 0.4158000D+00 0.4158000D+00
EXPONENTS  0.4158000D+00 0.4158000D+00 0.4158000D+00 0.1690000D+00 0.1690000D+00
EXPONENTS  0.1690000D+00 0.1690000D+00 0.1690000D+00 0.1690000D+00 0.1690000D+00
EXPONENTS  0.1690000D+00 0.1690000D+00 0.1690000D+00 0.3387000D+02 0.5095000D+01
EXPONENTS  0.1159000D+01 0.3258000D+00 0.1027000D+00 0.2526000D-01 0.1407000D+01
EXPONENTS  0.1407000D+01 0.1407000D+01 0.3880000D+00 0.3880000D+00 0.3880000D+00
EXPONENTS  0.1020000D+00 0.1020000D+00 0.1020000D+00 0.1057000D+01 0.1057000D+01
EXPONENTS  0.1057000D+01 0.1057000D+01 0.1057000D+01 0.1057000D+01 0.2470000D+00
EXPONENTS  0.2470000D+00 0.2470000D+00 0.2470000D+00 0.2470000D+00 0.2470000D+00
EXPONENTS  0.3387000D+02 0.5095000D+01 0.1159000D+01 0.3258000D+00 0.1027000D+00
EXPONENTS  0.2526000D-01 0.1407000D+01 0.1407000D+01 0.1407000D+01 0.3880000D+00
EXPONENTS  0.3880000D+00 0.3880000D+00 0.1020000D+00 0.1020000D+00 0.1020000D+00
EXPONENTS  0.1057000D+01 0.1057000D+01 0.1057000D+01 0.1057000D+01 0.1057000D+01
EXPONENTS  0.1057000D+01 0.2470000D+00 0.2470000D+00 0.2470000D+00 0.2470000D+00
EXPONENTS  0.2470000D+00 0.2470000D+00 0.3387000D+02 0.5095000D+01 0.1159000D+01
EXPONENTS  0.3258000D+00 0.1027000D+00 0.2526000D-01 0.1407000D+01 0.1407000D+01
EXPONENTS  0.1407000D+01 0.3880000D+00 0.3880000D+00 0.3880000D+00 0.1020000D+00
EXPONENTS  0.1020000D+00 0.1020000D+00 0.1057000D+01 0.1057000D+01 0.1057000D+01
EXPONENTS  0.1057000D+01 0.1057000D+01 0.1057000D+01 0.2470000D+00 0.2470000D+00
EXPONENTS  0.2470000D+00 0.2470000D+00 0.2470000D+00 0.2470000D+00
MO    1     MO 0.0        OCC NO =    2.0000000  ORB. ENERGY = -424.128519
  0.76170621D+00  0.14236960D+01  0.24645400D+01  0.40367765D+01  0.63176883D+01
  0.94737024D+01  0.13473259D+02  0.17691083D+02  0.20151984D+02  0.17678830D+02
  0.94083187D+01  0.20317182D+01  0.76367831D-01  0.18236845D-02 -0.48409600D-03
  0.43331799D-04 -0.35104103D-04 -0.20893080D-05  0.11667469D-03  0.22067140D-03
  0.38161557D-03  0.62503317D-03  0.98310861D-03  0.14828297D-02  0.21568977D-02
  0.29517993D-02  0.37194432D-02  0.39477610D-02  0.30201808D-02  0.47546536D-03
 -0.19808554D-02 -0.15818522D-02 -0.26751724D-03 -0.52784362D-05 -0.83751309D-06
 -0.25532419D-07 -0.99001894D-04 -0.19065063D-03 -0.33077619D-03 -0.54231853D-03
 -0.85359565D-03 -0.12877800D-02 -0.18796184D-02 -0.25839796D-02 -0.33010358D-02
 -0.35908028D-02 -0.28976026D-02 -0.48936394D-03  0.25871148D-02  0.31145801D-02
  0.19515749D-03 -0.13729374D-02 -0.55429210D-03  0.27299871D-05  0.40230409D-04
  0.87156886D-04  0.14837415D-03  0.24283236D-03  0.38216894D-03  0.57668523D-03
  0.84177017D-03  0.11584739D-02  0.14820034D-02  0.16190737D-02  0.13146725D-02
  0.22707737D-03 -0.12332154D-02 -0.15675813D-02 -0.81094626D-04  0.89834506D-03
  0.66919467D-03 -0.25925204D-03  0.16810130D-03  0.15382515D-03 -0.12492747D-05
  0.78200085D-16  0.11197787D-15  0.14757911D-15  0.16905641D-15  0.15470547D-15
  0.98258532D-16  0.33660853D-16  0.36983583D-17  0.43598307D-19  0.84032203D-20
  0.86613848D-22  0.15562329D-08  0.22284329D-08  0.29369210D-08  0.33643333D-08
  0.30787401D-08  0.19554091D-08  0.66987303D-09  0.73599752D-10  0.86763488D-12
  0.16722959D-12  0.17236723D-14  0.14479090D-03  0.20733194D-03  0.27324921D-03
  0.31301538D-03  0.28644398D-03  0.18192999D-03  0.62324550D-04  0.68476730D-05
  0.80724184D-07  0.15558932D-07  0.16036935D-09 -0.15347022D-15 -0.22126900D-15
 -0.29402885D-15 -0.34689572D-15 -0.33137918D-15 -0.22614967D-15 -0.70119885D-16
  0.34884062D-16  0.35002969D-16  0.88173799D-17 -0.10245336D-19  0.63926185D-08
  0.92166958D-08  0.12247420D-07  0.14449527D-07  0.13803204D-07  0.94199942D-08
  0.29207600D-08 -0.14530539D-08 -0.14580068D-08 -0.36727742D-09  0.42675722D-12
 -0.18827975D-02 -0.27145639D-02 -0.36071935D-02 -0.42557729D-02 -0.40654135D-02
 -0.27744408D-02 -0.86024211D-03  0.42796332D-03  0.42942209D-03  0.10817304D-03
 -0.12569144D-06  0.12451779D-15  0.18000699D-15  0.23917232D-15  0.28342175D-15
  0.27179272D-15  0.18757526D-15  0.56725461D-16 -0.35525177D-16 -0.35937509D-16
 -0.10415314D-16  0.40521886D-17 -0.53368879D-08 -0.77151798D-08 -0.10251032D-07
 -0.12147583D-07 -0.11649157D-07 -0.80395596D-08 -0.24312786D-08  0.15226249D-08
  0.15402977D-08  0.44640499D-09 -0.17367861D-09  0.14709496D-02  0.21264529D-02
  0.28253830D-02  0.33481090D-02  0.32107333D-02  0.22158583D-02  0.67010745D-03
 -0.41966491D-03 -0.42453587D-03 -0.12303786D-03  0.47869188D-04 -0.25282236D-17
 -0.13896984D-09 -0.91112439D-06 -0.80220851D-17  0.29656004D-09 -0.34931793D-04
  0.14781194D-18 -0.46903739D-11  0.47385215D-06  0.25268887D-05  0.25809519D-05
  0.21133796D-05  0.13311739D-05  0.57976745D-06  0.16416760D-06  0.27344138D-07
  0.25219373D-05  0.25758945D-05  0.21092385D-05  0.13285655D-05  0.57863141D-06
  0.16384592D-06  0.27290557D-07 -0.50488260D-05 -0.51568464D-05 -0.42226181D-05
 -0.26597395D-05 -0.11583989D-05 -0.32801352D-06 -0.54634695D-07 -0.10978407D-15
 -0.11213292D-15 -0.91818615D-16 -0.57834640D-16 -0.25188776D-16 -0.71324819D-17
 -0.11880028D-17  0.12325844D-15  0.12589557D-15  0.10308799D-15  0.64932983D-16
  0.28280324D-16  0.80078882D-17  0.13338125D-17  0.37896658D-08  0.38707463D-08
  0.31695114D-08  0.19964094D-08  0.86949810D-09  0.24620805D-09  0.41008987D-10
 -0.22234992D-06 -0.22208603D-06  0.44443595D-06  0.51587285D-17 -0.52590050D-17
 -0.17240301D-09 -0.24836211D-06 -0.24834175D-06  0.49670386D-06 -0.69683427D-18
 -0.18998178D-17 -0.13338746D-09 -0.63783460D-06 -0.63783217D-06  0.12756668D-05
 -0.75150482D-18  0.66667446D-18 -0.28111394D-10 -0.19308969D-18  0.62315519D-05
 -0.71419895D-05  0.16792895D-18 -0.18695143D-04  0.10712894D-04  0.41134011D-18
  0.48749938D-09  0.10713074D-04 -0.46894407D-17 -0.18535208D-18 -0.57254745D-06
  0.49696762D-06 -0.25811472D-18  0.17176567D-05 -0.74543637D-06  0.81417095D-18
 -0.14313627D-10 -0.74546649D-06  0.21402706D-18 -0.42876894D-05 -0.77330244D-05
 -0.11402340D-04  0.33693632D-04 -0.48132347D-04  0.53955244D-06  0.31466959D-17
 -0.17805587D-04 -0.32346347D-05 -0.28277356D-17  0.38078919D-04  0.19334543D-04
 -0.16567926D-18 -0.62260141D-05  0.26101506D-05 -0.58262365D-05  0.40786729D-05
  0.17475637D-05  0.35651525D-18 -0.90635351D-18  0.13106901D-04 -0.27542432D-05
  0.34487827D-05 -0.69453950D-06 -0.14066823D-17  0.82970061D-18  0.92171186D-05
 -0.42876724D-05 -0.77329938D-05 -0.11402295D-04  0.33693431D-04 -0.48132426D-04
  0.53955451D-06  0.15420044D-04  0.89028175D-05 -0.32343709D-05 -0.32977356D-04
 -0.19039643D-04  0.19333985D-04  0.53919481D-05  0.31129516D-05  0.26102723D-05
  0.16025101D-05 -0.33499123D-05  0.17474022D-05  0.85780581D-05 -0.11350805D-04
 -0.65535154D-05  0.18980856D-05 -0.12034330D-05 -0.69465251D-06  0.53721350D-05
 -0.79821569D-05 -0.46085019D-05 -0.42876724D-05 -0.77329938D-05 -0.11402295D-04
  0.33693431D-04 -0.48132426D-04  0.53955451D-06 -0.15420044D-04  0.89028175D-05
 -0.32343709D-05  0.32977356D-04 -0.19039643D-04  0.19333985D-04 -0.53919481D-05
  0.31129516D-05  0.26102723D-05  0.16025101D-05 -0.33499123D-05  0.17474022D-05
 -0.85780581D-05  0.11350805D-04 -0.65535154D-05  0.18980856D-05 -0.12034330D-05
 -0.69465251D-06 -0.53721350D-05  0.79821569D-05 -0.46085019D-05
MO    2     MO 0.0        OCC NO =    2.0000000  ORB. ENERGY =  -53.206874
  0.11580895D-02  0.21645712D-02  0.37470587D-02  0.61374693D-02  0.96053417D-02
  0.14403710D-01  0.20484590D-01  0.26897322D-01  0.30638848D-01  0.26878693D-01
  0.14304301D-01  0.30890013D-02  0.11610878D-03  0.27727093D-05 -0.73601408D-06
  0.65881177D-07 -0.53371880D-07 -0.31765602D-08 -0.23730335D+00 -0.44882110D+00
 -0.77616365D+00 -0.12712480D+01 -0.19995336D+01 -0.30159108D+01 -0.43868902D+01
 -0.60036318D+01 -0.75649341D+01 -0.80293072D+01 -0.61427121D+01 -0.96704370D+00
  0.40288398D+01  0.32173115D+01  0.54410034D+00  0.10735753D-01  0.17034085D-02
  0.51930101D-04  0.30185979D-02  0.58129956D-02  0.10085467D-01  0.16535457D-01
  0.26026391D-01  0.39264805D-01  0.57310136D-01  0.78786323D-01  0.10064959D+00
  0.10948467D+00  0.88348783D-01  0.14920855D-01 -0.78881918D-01 -0.94964495D-01
 -0.59504112D-02  0.41861280D-01  0.16900535D-01 -0.83238137D-04 -0.12617495D-02
 -0.27335083D-02 -0.46534701D-02 -0.76159704D-02 -0.11985995D-01 -0.18086624D-01
 -0.26400504D-01 -0.36333309D-01 -0.46480190D-01 -0.50779137D-01 -0.41232178D-01
 -0.71218454D-02  0.38677431D-01  0.49164175D-01  0.25433772D-02 -0.28174867D-01
 -0.20988006D-01  0.81309422D-02 -0.50189219D-02 -0.46713554D-02  0.31175283D-04
  0.97312387D-14  0.13934554D-13  0.18364782D-13  0.21037423D-13  0.19251588D-13
  0.12227317D-13  0.41887652D-14  0.46022465D-15  0.54253846D-17  0.10456989D-17
  0.10778249D-19  0.65242960D-06  0.93424034D-06  0.12312644D-05  0.14104512D-05
  0.12907202D-05  0.81977883D-06  0.28083521D-06  0.30855700D-07  0.36374419D-09
  0.70108743D-10  0.72262630D-12 -0.58272516D-01 -0.83442772D-01 -0.10997182D+00
 -0.12597611D+00 -0.11528219D+00 -0.73219509D-01 -0.25083126D-01 -0.27559131D-02
 -0.32488239D-04 -0.62618447D-05 -0.64542216D-07  0.20798484D-13  0.29986664D-13
  0.39847173D-13  0.47011761D-13  0.44908939D-13  0.30648098D-13  0.95027383D-14
 -0.47275335D-14 -0.47436480D-14 -0.11949428D-14  0.13884613D-17 -0.22730222D-06
 -0.32771788D-06 -0.43548130D-06 -0.51378155D-06 -0.49080026D-06 -0.33494656D-06
 -0.10385341D-06  0.51666210D-07  0.51842322D-07  0.13059276D-07 -0.15174199D-10
  0.60674512D-01  0.87478789D-01  0.11624442D+00  0.13714536D+00  0.13101089D+00
  0.89408363D-01  0.27721925D-01 -0.13791428D-01 -0.13838438D-01 -0.34859547D-02
  0.40504977D-05 -0.15966129D-13 -0.23081159D-13 -0.30667555D-13 -0.36341380D-13
 -0.34850264D-13 -0.24051591D-13 -0.72735474D-14  0.45551690D-14  0.46080398D-14
  0.13354899D-14 -0.51958654D-15  0.19313362D-06  0.27920029D-06  0.37096882D-06
  0.43960201D-06  0.42156478D-06  0.29093908D-06  0.87984167D-07 -0.55101414D-07
 -0.55740963D-07 -0.16154698D-07  0.62851572D-08 -0.48174008D-01 -0.69641922D-01
 -0.92532075D-01 -0.10965150D+00 -0.10515240D+00 -0.72569972D-01 -0.21946204D-01
  0.13744142D-01  0.13903667D-01  0.40295239D-02 -0.15677291D-02  0.13832003D-15
  0.46558237D-08 -0.31505673D-04 -0.62363091D-15 -0.91279756D-08  0.10858656D-02
 -0.18001445D-16  0.14684377D-09 -0.14417021D-04  0.55694378D-03  0.56885968D-03
  0.46580351D-03  0.29339996D-03  0.12778476D-03  0.36183677D-04  0.60268375D-05
  0.55710221D-03  0.56902149D-03  0.46593601D-03  0.29348342D-03  0.12782111D-03
  0.36193970D-04  0.60285518D-05 -0.11140460D-02 -0.11378812D-02 -0.93173952D-03
 -0.58688338D-03 -0.25560588D-03 -0.72377647D-04 -0.12055389D-04  0.11888938D-14
  0.12143303D-14  0.99433896D-15  0.62631346D-15  0.27277890D-15  0.77240379D-16
  0.12865337D-16 -0.13147631D-14 -0.13428927D-14 -0.10996106D-14 -0.69262187D-15
 -0.30165826D-15 -0.85417891D-16 -0.14227403D-16 -0.77310473D-07 -0.78964543D-07
 -0.64659111D-07 -0.40727432D-07 -0.17738057D-07 -0.50227281D-08 -0.83659729D-09
  0.66726872D-05  0.66638161D-05 -0.13336503D-04 -0.72881816D-16  0.63080103D-16
  0.54086281D-08  0.76880415D-05  0.76874173D-05 -0.15375459D-04 -0.18576199D-15
  0.22976535D-15  0.40002452D-08  0.20114818D-04  0.20114744D-04 -0.40229562D-04
 -0.42239066D-16  0.75460162D-16  0.86914078D-09  0.28383978D-17 -0.20145777D-03
  0.23088489D-03  0.77272674D-17  0.60438897D-03 -0.34632451D-03 -0.16242461D-16
 -0.15658317D-07 -0.34633016D-03  0.10051535D-15  0.44751947D-17  0.18866236D-04
 -0.16698110D-04 -0.79784527D-17 -0.56599258D-04  0.25046695D-04 -0.54471313D-17
  0.54985408D-09  0.25047634D-04  0.37601901D-16  0.13960639D-03  0.25178587D-03
  0.37125812D-03 -0.10658145D-02  0.14496636D-02 -0.16363737D-04  0.68052054D-16
  0.61081180D-03  0.14308961D-03 -0.43807165D-16 -0.12513923D-02 -0.64348121D-03
  0.83463179D-16  0.17894790D-03 -0.93674272D-04  0.21178433D-03 -0.16028112D-03
 -0.51503217D-04  0.13572314D-16 -0.47761280D-16 -0.49602599D-03  0.94888072D-04
 -0.11757464D-03  0.22686573D-04  0.13645302D-16  0.11255968D-16 -0.31163888D-03
  0.13960593D-03  0.25178504D-03  0.37125689D-03 -0.10658088D-02  0.14496657D-02
 -0.16363819D-04 -0.52897793D-03 -0.30540700D-03  0.14308047D-03  0.10837400D-02
  0.62570235D-03 -0.64346301D-03 -0.15497518D-03 -0.89472107D-04 -0.93677872D-04
 -0.67267847D-04  0.11876467D-03 -0.51496819D-04 -0.32222462D-03  0.42956720D-03
  0.24801482D-03 -0.64461083D-04  0.41770609D-04  0.22690474D-04 -0.18400333D-03
  0.26988376D-03  0.15581756D-03  0.13960593D-03  0.25178504D-03  0.37125689D-03
 -0.10658088D-02  0.14496657D-02 -0.16363819D-04  0.52897793D-03 -0.30540700D-03
  0.14308047D-03 -0.10837400D-02  0.62570235D-03 -0.64346301D-03  0.15497518D-03
 -0.89472107D-04 -0.93677872D-04 -0.67267847D-04  0.11876467D-03 -0.51496819D-04
  0.32222462D-03 -0.42956720D-03  0.24801482D-03 -0.64461083D-04  0.41770609D-04
  0.22690474D-04  0.18400333D-03 -0.26988376D-03  0.15581756D-03
MO    3     MO 0.0        OCC NO =    2.0000000  ORB. ENERGY =  -47.588787
  0.11547385D-15  0.21583078D-15  0.37362163D-15  0.61197100D-15  0.95775479D-15
  0.14362032D-14  0.20425316D-14  0.26819493D-14  0.30550192D-14  0.26800918D-14
  0.14262910D-14  0.30800630D-15  0.11577281D-16  0.27646863D-18 -0.73388436D-19
  0.65690544D-20 -0.53217444D-20 -0.31673686D-21 -0.60343102D-15 -0.11412927D-14
 -0.19736815D-14 -0.32326155D-14 -0.50845495D-14 -0.76690622D-14 -0.11155281D-13
 -0.15266441D-13 -0.19236626D-13 -0.20417466D-13 -0.15620104D-13 -0.24590642D-14
  0.10244806D-13  0.81811975D-14  0.13835752D-14  0.27299598D-16  0.43315425D-17
  0.13205138D-18  0.33975231D-15  0.65427023D-15  0.11351498D-14  0.18611157D-14
  0.29293490D-14  0.44193725D-14  0.64504291D-14  0.88676388D-14  0.11328415D-13
  0.12322831D-13  0.99439226D-14  0.16793874D-14 -0.88783983D-14 -0.10688541D-13
 -0.66973676D-15  0.47116136D-14  0.19022063D-14 -0.93687040D-17 -0.15744008D-15
 -0.34108495D-15 -0.58065622D-15 -0.95031460D-15 -0.14956027D-14 -0.22568343D-14
 -0.32942335D-14 -0.45336408D-14 -0.57997603D-14 -0.63361795D-14 -0.51449177D-14
 -0.88865809D-15  0.48261384D-14  0.61346658D-14  0.31736054D-15 -0.35156370D-14
 -0.26188663D-14  0.10145724D-14 -0.84023772D-15  0.60724998D-15 -0.12191371D-15
  0.45185753D+02  0.64703308D+02  0.85274501D+02  0.97684564D+02  0.89392269D+02
  0.56775971D+02  0.19449992D+02  0.21369939D+01  0.25192074D-01  0.48555681D-02
  0.50047413D-04 -0.30298866D-04 -0.43386172D-04 -0.57179985D-04 -0.65501432D-04
 -0.59941114D-04 -0.38070574D-04 -0.13042002D-04 -0.14329404D-05 -0.16892300D-07
 -0.32558538D-08 -0.33558805D-10 -0.32214961D-09 -0.46129906D-09 -0.60796037D-09
 -0.69643731D-09 -0.63731780D-09 -0.40478150D-09 -0.13866776D-09 -0.15235593D-10
 -0.17960566D-12 -0.34617534D-13 -0.35681057D-15 -0.31020840D-01 -0.44724967D-01
 -0.59431870D-01 -0.70117818D-01 -0.66981469D-01 -0.45711493D-01 -0.14173289D-01
  0.70510938D-02  0.70751284D-02  0.17822515D-02 -0.20708834D-05  0.20800678D-07
  0.29989826D-07  0.39851376D-07  0.47016719D-07  0.44913675D-07  0.30651331D-07
  0.95037406D-08 -0.47280321D-08 -0.47441483D-08 -0.11950688D-08  0.13886077D-11
  0.24857960D-12  0.35839501D-12  0.47624599D-12  0.56187580D-12  0.53674326D-12
  0.36630036D-12  0.11357496D-12 -0.56502599D-13 -0.56695196D-13 -0.14281734D-13
  0.16594630D-16  0.27319091D-01  0.39493372D-01  0.52474193D-01  0.62182479D-01
  0.59631080D-01  0.41153845D-01  0.12445515D-01 -0.77941920D-02 -0.78846574D-02
 -0.22851105D-02  0.88904655D-03 -0.18318521D-07 -0.26481853D-07 -0.35186003D-07
 -0.41695788D-07 -0.39984976D-07 -0.27595266D-07 -0.83452057D-08  0.52263111D-08
  0.52869717D-08  0.15322561D-08 -0.59614054D-09 -0.21597017D-12 -0.31221354D-12
 -0.41483299D-12 -0.49158152D-12 -0.47141152D-12 -0.32534036D-12 -0.98387608D-13
  0.61616726D-13  0.62331897D-13  0.18064865D-13 -0.70283279D-14 -0.19184550D-02
  0.12863999D-08  0.14115684D-13  0.20473186D-03 -0.13728094D-09 -0.13022429D-14
  0.44642531D-05 -0.29934761D-11 -0.23320136D-16 -0.87277506D-11 -0.89144822D-11
 -0.72995103D-11 -0.45978100D-11 -0.20024886D-11 -0.56702691D-12 -0.94445322D-13
  0.86646377D-11  0.88500190D-11  0.72467255D-11  0.45645619D-11  0.19880080D-11
  0.56292657D-12  0.93762360D-13  0.63112882D-13  0.64463192D-13  0.52784864D-13
  0.33248090D-13  0.14480572D-13  0.41003351D-14  0.68296136D-15  0.26162123D-04
  0.26721866D-04  0.21880860D-04  0.13782299D-04  0.60026179D-05  0.16997080D-05
  0.28310732D-06 -0.75790727D-02 -0.77412281D-02 -0.63388062D-02 -0.39926824D-02
 -0.17389368D-02 -0.49239928D-03 -0.82015171D-04  0.50820862D-08  0.51908183D-08
  0.42504355D-08  0.26772611D-08  0.11660301D-08  0.33017438D-09  0.54994613D-10
  0.23235655D-10 -0.23234596D-10 -0.10588351D-14 -0.69305318D-04  0.15036886D-03
 -0.10082870D-09 -0.61044273D-10  0.61041706D-10  0.25674399D-14  0.18207533D-03
 -0.37309793D-03  0.25017858D-09 -0.36535887D-11  0.36534572D-11  0.13154274D-15
  0.10897523D-04 -0.23010904D-04  0.15429892D-10 -0.78041048D-05  0.52334196D-11
 -0.16698261D-15 -0.78033234D-05  0.52322264D-11  0.44483093D-10  0.31215638D-04
 -0.20932485D-10 -0.44482592D-10 -0.13267704D-03 -0.88193918D-05  0.59139152D-11
 -0.22624862D-15 -0.88191476D-05  0.59136209D-11  0.17430619D-10  0.35277323D-04
 -0.23655367D-10 -0.17429940D-10 -0.51989649D-04  0.19337147D-10  0.34875340D-10
  0.51423669D-10 -0.48080539D-09 -0.39225309D-09 -0.18855986D-10  0.13350598D-03
  0.69130326D-10  0.44631407D-10 -0.12945502D-03 -0.22658184D-09 -0.12469635D-09
 -0.38308915D-04 -0.43769798D-10 -0.39934806D-10 -0.55125049D-10  0.31539265D-10
  0.23585784D-10  0.66675537D-05  0.51784995D-04  0.18259036D-09 -0.49163924D-11
  0.15371963D-10 -0.10455571D-10 -0.96472406D-04  0.88265780D-05 -0.50367286D-11
  0.24974482D-04  0.45042507D-04  0.66415150D-04 -0.62097521D-03 -0.50660712D-03
 -0.24353002D-04 -0.43948123D-04 -0.10245143D-03  0.57639418D-04  0.22107164D-03
  0.20237498D-03 -0.16104234D-03  0.39380191D-04  0.44853655D-04 -0.51575632D-04
  0.11309783D-04 -0.41768205D-04  0.30458422D-04  0.98606178D-04 -0.19128370D-03
 -0.14033698D-03  0.34188960D-04 -0.20685765D-04 -0.13503195D-04 -0.14254037D-05
  0.78409746D-05 -0.56980389D-06 -0.24974501D-04 -0.45042542D-04 -0.66415201D-04
  0.62097569D-03  0.50660752D-03  0.24353021D-04 -0.43948260D-04  0.10245133D-03
 -0.57639463D-04  0.22107191D-03 -0.20237497D-03  0.16104247D-03  0.39380251D-04
 -0.44853638D-04  0.51575672D-04 -0.11309796D-04  0.41768241D-04 -0.30458445D-04
  0.98606249D-04 -0.19128389D-03  0.14033702D-03 -0.34188922D-04  0.20685717D-04
  0.13503205D-04 -0.14253301D-05  0.78409738D-05  0.56979249D-06
MO    4     MO 0.0        OCC NO =    2.0000000  ORB. ENERGY =  -47.588787
 -0.17404272D-09 -0.32530117D-09 -0.56312426D-09 -0.92236556D-09 -0.14435325D-08
 -0.21646521D-08 -0.30785132D-08 -0.40422465D-08 -0.46045393D-08 -0.40394469D-08
 -0.21497125D-08 -0.46422854D-09 -0.17449333D-10 -0.41669481D-12  0.11061140D-12
 -0.99009096D-14  0.80209581D-14  0.47738728D-15  0.11581385D-08  0.21904326D-08
  0.37879995D-08  0.62042158D-08  0.97585508D-08  0.14718892D-07  0.21409838D-07
  0.29300205D-07  0.36920006D-07  0.39186339D-07  0.29978975D-07  0.47195731D-08
 -0.19662404D-07 -0.15701810D-07 -0.26554346D-08 -0.52394911D-10 -0.83133379D-11
 -0.25344037D-12 -0.49496368D-09 -0.95316495D-09 -0.16537280D-08 -0.27113418D-08
 -0.42675834D-08 -0.64383045D-08 -0.93972226D-08 -0.12918703D-07 -0.16503652D-07
 -0.17952353D-07 -0.14486673D-07 -0.24465934D-08  0.12934377D-07  0.15571460D-07
  0.97569717D-09 -0.68640522D-08 -0.27712041D-08  0.13648673D-10  0.23732644D-09
  0.51415419D-09  0.87528585D-09  0.14325119D-08  0.22544835D-08  0.34019701D-08
  0.49657540D-08  0.68340465D-08  0.87426053D-08  0.95512079D-08  0.77554903D-08
  0.13395703D-08 -0.72749598D-08 -0.92474445D-08 -0.47839182D-09  0.52994995D-08
  0.39477001D-08 -0.15293745D-08  0.91530475D-09 -0.56208450D-09  0.16777696D-09
  0.30298866D-04  0.43386172D-04  0.57179985D-04  0.65501432D-04  0.59941114D-04
  0.38070574D-04  0.13042002D-04  0.14329404D-05  0.16892300D-07  0.32558538D-08
  0.33558805D-10  0.45185753D+02  0.64703308D+02  0.85274501D+02  0.97684564D+02
  0.89392269D+02  0.56775971D+02  0.19449992D+02  0.21369939D+01  0.25192074D-01
  0.48555681D-02  0.50047413D-04  0.45277978D-03  0.64835368D-03  0.85448548D-03
  0.97883940D-03  0.89574720D-03  0.56891852D-03  0.19489689D-03  0.21413555D-04
  0.25243492D-06  0.48654784D-07  0.50149560D-09 -0.20800709D-07 -0.29989872D-07
 -0.39851436D-07 -0.47016790D-07 -0.44913743D-07 -0.30651377D-07 -0.95037549D-08
  0.47280392D-08  0.47441554D-08  0.11950706D-08 -0.13886098D-11 -0.31020744D-01
 -0.44724829D-01 -0.59431686D-01 -0.70117602D-01 -0.66981262D-01 -0.45711352D-01
 -0.14173245D-01  0.70510720D-02  0.70751066D-02  0.17822460D-02 -0.20708770D-05
 -0.36611610D-06 -0.52785579D-06 -0.70143052D-06 -0.82754889D-06 -0.79053287D-06
 -0.53949903D-06 -0.16727688D-06  0.83218859D-07  0.83502522D-07  0.21034600D-07
 -0.24441109D-10  0.18318540D-07  0.26481881D-07  0.35186039D-07  0.41695832D-07
  0.39985017D-07  0.27595294D-07  0.83452143D-08 -0.52263166D-08 -0.52869772D-08
 -0.15322577D-08  0.59614116D-09  0.27319024D-01  0.39493276D-01  0.52474065D-01
  0.62182327D-01  0.59630935D-01  0.41153745D-01  0.12445485D-01 -0.77941730D-02
 -0.78846382D-02 -0.22851049D-02  0.88904438D-03  0.31372704D-06  0.45353407D-06
  0.60260326D-06  0.71409129D-06  0.68479153D-06  0.47260262D-06  0.14292184D-06
 -0.89506960D-07 -0.90545846D-07 -0.26241757D-07  0.10209635D-07 -0.12864013D-08
 -0.19184530D-02 -0.20150851D-07  0.13728078D-09  0.20473159D-03  0.19131534D-08
  0.29934588D-11  0.44642810D-05  0.33710456D-10  0.13023052D-04  0.13301682D-04
  0.10891913D-04  0.68605898D-05  0.29879992D-05  0.84608520D-06  0.14092592D-06
 -0.12928065D-04 -0.13204663D-04 -0.10812471D-04 -0.68105507D-05 -0.29662056D-05
 -0.83991411D-06 -0.13989805D-06 -0.94986267D-07 -0.97018513D-07 -0.79442375D-07
 -0.50039103D-07 -0.21793578D-07 -0.61710939D-08 -0.10278718D-08  0.17545752D-10
  0.17921146D-10  0.14674503D-10  0.92431645D-11  0.40256842D-11  0.11399173D-11
  0.18986727D-12 -0.50820736D-08 -0.51908053D-08 -0.42504249D-08 -0.26772544D-08
 -0.11660272D-08 -0.33017355D-09 -0.54994476D-10 -0.75791044D-02 -0.77412606D-02
 -0.63388327D-02 -0.39926991D-02 -0.17389441D-02 -0.49240135D-03 -0.82015514D-04
 -0.34652447D-04  0.34650842D-04  0.16055617D-08 -0.46472070D-10  0.10082841D-09
  0.15037008D-03  0.91037345D-04 -0.91033528D-04 -0.38175843D-08  0.12208880D-09
 -0.25017706D-09 -0.37309970D-03  0.54487203D-05 -0.54485223D-05 -0.19797090D-09
  0.73072209D-11 -0.15429716D-10 -0.23011113D-04 -0.52329689D-11 -0.78047365D-05
  0.24143781D-09 -0.52324256D-11 -0.78030134D-05 -0.66338924D-04  0.20931332D-10