 Molden2AIM, Version 4.0.0 (06/02/2016)           Time: Fri Jun 29 00:44:32 2018
GAUSSIAN             19 MOL ORBITALS    339 PRIMITIVES        3 NUCLEI
  Be   1    (CENTRE  1)   0.00000000  0.00000000 -0.51670026  CHARGE =  4.0
  Cl   2    (CENTRE  2)   0.00000000  3.40761084 -0.51747693  CHARGE = 17.0
  Cl   3    (CENTRE  3)   0.00000000 -3.40761084 -0.51747693  CHARGE = 17.0
CENTRE ASSIGNMENTS    1  1  1  1  1  1  1  1  1  1  1  1  1  1  1  1  1  1  1  1
CENTRE ASSIGNMENTS    1  1  1  1  1  1  1  1  1  1  1  1  1  1  1  1  1  1  1  1
CENTRE ASSIGNMENTS    1  1  1  1  1  1  1  1  1  1  1  1  1  1  1  1  1  1  1  1
CENTRE ASSIGNMENTS    1  1  1  1  1  1  1  1  1  1  1  1  1  1  1  1  1  2  2  2
CENTRE ASSIGNMENTS    2  2  2  2  2  2  2  2  2  2  2  2  2  2  2  2  2  2  2  2
CENTRE ASSIGNMENTS    2  2  2  2  2  2  2  2  2  2  2  2  2  2  2  2  2  2  2  2
CENTRE ASSIGNMENTS    2  2  2  2  2  2  2  2  2  2  2  2  2  2  2  2  2  2  2  2
CENTRE ASSIGNMENTS    2  2  2  2  2  2  2  2  2  2  2  2  2  2  2  2  2  2  2  2
CENTRE ASSIGNMENTS    2  2  2  2  2  2  2  2  2  2  2  2  2  2  2  2  2  2  2  2
CENTRE ASSIGNMENTS    2  2  2  2  2  2  2  2  2  2  2  2  2  2  2  2  2  2  2  2
CENTRE ASSIGNMENTS    2  2  2  2  2  2  2  2  3  3  3  3  3  3  3  3  3  3  3  3
CENTRE ASSIGNMENTS    3  3  3  3  3  3  3  3  3  3  3  3  3  3  3  3  3  3  3  3
CENTRE ASSIGNMENTS    3  3  3  3  3  3  3  3  3  3  3  3  3  3  3  3  3  3  3  3
CENTRE ASSIGNMENTS    3  3  3  3  3  3  3  3  3  3  3  3  3  3  3  3  3  3  3  3
CENTRE ASSIGNMENTS    3  3  3  3  3  3  3  3  3  3  3  3  3  3  3  3  3  3  3  3
CENTRE ASSIGNMENTS    3  3  3  3  3  3  3  3  3  3  3  3  3  3  3  3  3  3  3  3
CENTRE ASSIGNMENTS    3  3  3  3  3  3  3  3  3  3  3  3  3  3  3  3  3  3  3
TYPE ASSIGNMENTS      1  1  1  1  1  1  1  1  1  1  1  1  1  1  1  1  1  1  1  1
TYPE ASSIGNMENTS      1  2  2  2  3  3  3  4  4  4  2  3  4  2  3  4  2  3  4  5
TYPE ASSIGNMENTS      6  7  8  9 10  5  6  7  8  9 10  5  6  7  8  9 10 11 12 13
TYPE ASSIGNMENTS     17 14 15 18 19 16 20 11 12 13 17 14 15 18 19 16 20  1  1  1
TYPE ASSIGNMENTS      1  1  1  1  1  1  1  1  1  1  1  1  1  1  1  1  1  1  1  1
TYPE ASSIGNMENTS      1  1  1  1  1  1  1  1  1  1  1  1  1  1  1  1  1  1  1  2
TYPE ASSIGNMENTS      2  2  2  2  2  2  3  3  3  3  3  3  3  4  4  4  4  4  4  4
TYPE ASSIGNMENTS      2  2  2  2  2  2  2  3  3  3  3  3  3  3  4  4  4  4  4  4
TYPE ASSIGNMENTS      4  2  3  4  2  3  4  2  3  4  5  6  7  8  9 10  5  6  7  8
TYPE ASSIGNMENTS      9 10  5  6  7  8  9 10 11 12 13 17 14 15 18 19 16 20 11 12
TYPE ASSIGNMENTS     13 17 14 15 18 19 16 20  1  1  1  1  1  1  1  1  1  1  1  1
TYPE ASSIGNMENTS      1  1  1  1  1  1  1  1  1  1  1  1  1  1  1  1  1  1  1  1
TYPE ASSIGNMENTS      1  1  1  1  1  1  1  1  1  1  2  2  2  2  2  2  2  3  3  3
TYPE ASSIGNMENTS      3  3  3  3  4  4  4  4  4  4  4  2  2  2  2  2  2  2  3  3
TYPE ASSIGNMENTS      3  3  3  3  3  4  4  4  4  4  4  4  2  3  4  2  3  4  2  3
TYPE ASSIGNMENTS      4  5  6  7  8  9 10  5  6  7  8  9 10  5  6  7  8  9 10 11
TYPE ASSIGNMENTS     12 13 17 14 15 18 19 16 20 11 12 13 17 14 15 18 19 16 20
EXPONENTS  0.6863000D+04 0.1030000D+04 0.2347000D+03 0.6656000D+02 0.2169000D+02
EXPONENTS  0.7734000D+01 0.2916000D+01 0.1130000D+01 0.1101000D+00 0.6863000D+04
EXPONENTS  0.1030000D+04 0.2347000D+03 0.6656000D+02 0.2169000D+02 0.7734000D+01
EXPONENTS  0.2916000D+01 0.1130000D+01 0.1101000D+00 0.2577000D+00 0.4409000D-01
EXPONENTS  0.1503000D-01 0.7436000D+01 0.1577000D+01 0.4352000D+00 0.7436000D+01
EXPONENTS  0.1577000D+01 0.4352000D+00 0.7436000D+01 0.1577000D+01 0.4352000D+00
EXPONENTS  0.1438000D+00 0.1438000D+00 0.1438000D+00 0.4994000D-01 0.4994000D-01
EXPONENTS  0.4994000D-01 0.7060000D-02 0.7060000D-02 0.7060000D-02 0.3480000D+00
EXPONENTS  0.3480000D+00 0.3480000D+00 0.3480000D+00 0.3480000D+00 0.3480000D+00
EXPONENTS  0.1803000D+00 0.1803000D+00 0.1803000D+00 0.1803000D+00 0.1803000D+00
EXPONENTS  0.1803000D+00 0.6540000D-01 0.6540000D-01 0.6540000D-01 0.6540000D-01
EXPONENTS  0.6540000D-01 0.6540000D-01 0.3250000D+00 0.3250000D+00 0.3250000D+00
EXPONENTS  0.3250000D+00 0.3250000D+00 0.3250000D+00 0.3250000D+00 0.3250000D+00
EXPONENTS  0.3250000D+00 0.3250000D+00 0.1533000D+00 0.1533000D+00 0.1533000D+00
EXPONENTS  0.1533000D+00 0.1533000D+00 0.1533000D+00 0.1533000D+00 0.1533000D+00
EXPONENTS  0.1533000D+00 0.1533000D+00 0.4561000D+06 0.6833000D+05 0.1555000D+05
EXPONENTS  0.4405000D+04 0.1439000D+04 0.5204000D+03 0.2031000D+03 0.8396000D+02
EXPONENTS  0.3620000D+02 0.1583000D+02 0.6334000D+01 0.2694000D+01 0.4313000D+00
EXPONENTS  0.4561000D+06 0.6833000D+05 0.1555000D+05 0.4405000D+04 0.1439000D+04
EXPONENTS  0.5204000D+03 0.2031000D+03 0.8396000D+02 0.3620000D+02 0.1583000D+02
EXPONENTS  0.6334000D+01 0.2694000D+01 0.4313000D+00 0.4561000D+06 0.6833000D+05
EXPONENTS  0.1555000D+05 0.4405000D+04 0.1439000D+04 0.5204000D+03 0.2031000D+03
EXPONENTS  0.8396000D+02 0.3620000D+02 0.1583000D+02 0.6334000D+01 0.2694000D+01
EXPONENTS  0.4313000D+00 0.9768000D+00 0.1625000D+00 0.5910000D-01 0.6633000D+03
EXPONENTS  0.1568000D+03 0.4998000D+02 0.1842000D+02 0.7240000D+01 0.2922000D+01
EXPONENTS  0.3818000D+00 0.6633000D+03 0.1568000D+03 0.4998000D+02 0.1842000D+02
EXPONENTS  0.7240000D+01 0.2922000D+01 0.3818000D+00 0.6633000D+03 0.1568000D+03
EXPONENTS  0.4998000D+02 0.1842000D+02 0.7240000D+01 0.2922000D+01 0.3818000D+00
EXPONENTS  0.6633000D+03 0.1568000D+03 0.4998000D+02 0.1842000D+02 0.7240000D+01
EXPONENTS  0.2922000D+01 0.3818000D+00 0.6633000D+03 0.1568000D+03 0.4998000D+02
EXPONENTS  0.1842000D+02 0.7240000D+01 0.2922000D+01 0.3818000D+00 0.6633000D+03
EXPONENTS  0.1568000D+03 0.4998000D+02 0.1842000D+02 0.7240000D+01 0.2922000D+01
EXPONENTS  0.3818000D+00 0.1022000D+01 0.1022000D+01 0.1022000D+01 0.1301000D+00
EXPONENTS  0.1301000D+00 0.1301000D+00 0.4190000D-01 0.4190000D-01 0.4190000D-01
EXPONENTS  0.1046000D+01 0.1046000D+01 0.1046000D+01 0.1046000D+01 0.1046000D+01
EXPONENTS  0.1046000D+01 0.3440000D+00 0.3440000D+00 0.3440000D+00 0.3440000D+00
EXPONENTS  0.3440000D+00 0.3440000D+00 0.1350000D+00 0.1350000D+00 0.1350000D+00
EXPONENTS  0.1350000D+00 0.1350000D+00 0.1350000D+00 0.7060000D+00 0.7060000D+00
EXPONENTS  0.7060000D+00 0.7060000D+00 0.7060000D+00 0.7060000D+00 0.7060000D+00
EXPONENTS  0.7060000D+00 0.7060000D+00 0.7060000D+00 0.3120000D+00 0.3120000D+00
EXPONENTS  0.3120000D+00 0.3120000D+00 0.3120000D+00 0.3120000D+00 0.3120000D+00
EXPONENTS  0.3120000D+00 0.3120000D+00 0.3120000D+00 0.4561000D+06 0.6833000D+05
EXPONENTS  0.1555000D+05 0.4405000D+04 0.1439000D+04 0.5204000D+03 0.2031000D+03
EXPONENTS  0.8396000D+02 0.3620000D+02 0.1583000D+02 0.6334000D+01 0.2694000D+01
EXPONENTS  0.4313000D+00 0.4561000D+06 0.6833000D+05 0.1555000D+05 0.4405000D+04
EXPONENTS  0.1439000D+04 0.5204000D+03 0.2031000D+03 0.8396000D+02 0.3620000D+02
EXPONENTS  0.1583000D+02 0.6334000D+01 0.2694000D+01 0.4313000D+00 0.4561000D+06
EXPONENTS  0.6833000D+05 0.1555000D+05 0.4405000D+04 0.1439000D+04 0.5204000D+03
EXPONENTS  0.2031000D+03 0.8396000D+02 0.3620000D+02 0.1583000D+02 0.6334000D+01
EXPONENTS  0.2694000D+01 0.4313000D+00 0.9768000D+00 0.1625000D+00 0.5910000D-01
EXPONENTS  0.6633000D+03 0.1568000D+03 0.4998000D+02 0.1842000D+02 0.7240000D+01
EXPONENTS  0.2922000D+01 0.3818000D+00 0.6633000D+03 0.1568000D+03 0.4998000D+02
EXPONENTS  0.1842000D+02 0.7240000D+01 0.2922000D+01 0.3818000D+00 0.6633000D+03
EXPONENTS  0.1568000D+03 0.4998000D+02 0.1842000D+02 0.7240000D+01 0.2922000D+01
EXPONENTS  0.3818000D+00 0.6633000D+03 0.1568000D+03 0.4998000D+02 0.1842000D+02
EXPONENTS  0.7240000D+01 0.2922000D+01 0.3818000D+00 0.6633000D+03 0.1568000D+03
EXPONENTS  0.4998000D+02 0.1842000D+02 0.7240000D+01 0.2922000D+01 0.3818000D+00
EXPONENTS  0.6633000D+03 0.1568000D+03 0.4998000D+02 0.1842000D+02 0.7240000D+01
EXPONENTS  0.2922000D+01 0.3818000D+00 0.1022000D+01 0.1022000D+01 0.1022000D+01
EXPONENTS  0.1301000D+00 0.1301000D+00 0.1301000D+00 0.4190000D-01 0.4190000D-01
EXPONENTS  0.4190000D-01 0.1046000D+01 0.1046000D+01 0.1046000D+01 0.1046000D+01
EXPONENTS  0.1046000D+01 0.1046000D+01 0.3440000D+00 0.3440000D+00 0.3440000D+00
EXPONENTS  0.3440000D+00 0.3440000D+00 0.3440000D+00 0.1350000D+00 0.1350000D+00
EXPONENTS  0.1350000D+00 0.1350000D+00 0.1350000D+00 0.1350000D+00 0.7060000D+00
EXPONENTS  0.7060000D+00 0.7060000D+00 0.7060000D+00 0.7060000D+00 0.7060000D+00
EXPONENTS  0.7060000D+00 0.7060000D+00 0.7060000D+00 0.7060000D+00 0.3120000D+00
EXPONENTS  0.3120000D+00 0.3120000D+00 0.3120000D+00 0.3120000D+00 0.3120000D+00
EXPONENTS  0.3120000D+00 0.3120000D+00 0.3120000D+00 0.3120000D+00
MO    1     MO 0.0        OCC NO =    2.0000000  ORB. ENERGY = -100.705680
  0.16951684D-10  0.31625984D-10  0.53991312D-10  0.84259177D-10  0.11485888D-09
  0.12465709D-09  0.90854109D-10  0.27800939D-10 -0.13246125D-12 -0.11781011D-10
 -0.21998890D-10 -0.37823626D-10 -0.59371841D-10 -0.84454697D-10 -0.97969713D-10
 -0.92883186D-10 -0.54123077D-10  0.40102988D-10  0.58112405D-10  0.39705982D-10
 -0.10164910D-11 -0.11843496D-15 -0.99789705D-16 -0.78811772D-16  0.34286133D-03
  0.28888455D-03  0.22815483D-03 -0.34308143D-13 -0.28907000D-13 -0.22830129D-13
  0.39983820D-16  0.55386762D-03  0.53734486D-13 -0.11496160D-16  0.67177073D-04
  0.26375954D-14  0.27163123D-21 -0.15046377D-06 -0.10759841D-17 -0.48599641D-11
  0.97199042D-11 -0.48599402D-11 -0.26864383D-19 -0.15160240D-21  0.57347640D-07
  0.23295364D-11 -0.46590542D-11  0.23295178D-11  0.15019868D-19  0.93571897D-22
 -0.28118445D-06 -0.13956006D-11  0.27912013D-11 -0.13956007D-11  0.25489378D-20
  0.48025694D-23 -0.25701705D-07  0.17840561D-19 -0.65279542D-04 -0.85265956D-14
 -0.86794212D-19  0.97919297D-04 -0.85265980D-14  0.33272528D-19  0.97919329D-04
  0.34106385D-13  0.17321915D-22  0.24244705D-19 -0.18904930D-04 -0.29536914D-14
 -0.98243149D-19  0.28357385D-04 -0.29536913D-14  0.25509033D-19  0.28357406D-04
  0.11814765D-13  0.60209857D-22  0.43656300D+00  0.81681105D+00  0.14112685D+01
  0.22878309D+01  0.34742537D+01  0.48288041D+01  0.57407515D+01  0.51134199D+01
  0.25384547D+01  0.40898573D+00  0.62790204D-02  0.11220548D-02  0.41929436D-04
 -0.87929241D-03 -0.16423920D-02 -0.28504509D-02 -0.46251235D-02 -0.71591418D-02
 -0.10247661D-01 -0.13376399D-01 -0.14254785D-01 -0.10655741D-01 -0.56249764D-03
  0.72278155D-02  0.42941528D-02 -0.16099854D-04  0.37988965D-03  0.70900929D-03
  0.12321957D-02  0.19970268D-02  0.31016953D-02  0.44432681D-02  0.58669214D-02
  0.63438824D-02  0.49736860D-02  0.24748897D-03 -0.42637064D-02 -0.44137266D-02
  0.19972737D-02 -0.23710023D-02 -0.76312269D-03 -0.36717693D-03 -0.24454367D-18
 -0.32211890D-18 -0.35537261D-18 -0.29517780D-18 -0.15677610D-18 -0.40437130D-19
  0.41567994D-22 -0.70452497D-02 -0.92801750D-02 -0.10238207D-01 -0.85040078D-02
 -0.45166851D-02 -0.11649849D-02  0.11975648D-05  0.32578998D-05  0.42913851D-05
  0.47344031D-05  0.39324660D-05  0.20886282D-05  0.53871814D-06 -0.55378394D-09
 -0.20953770D-17 -0.27510765D-17 -0.31323029D-17 -0.26523055D-17 -0.15193427D-17
 -0.34559775D-18  0.16175877D-18  0.61024908D-02  0.80121230D-02  0.91223915D-02
  0.77244665D-02  0.44248718D-02  0.10065048D-02 -0.47109965D-03 -0.27460223D-05
 -0.36053260D-05 -0.41049289D-05 -0.34758852D-05 -0.19911209D-05 -0.45291092D-06
  0.21198724D-06 -0.96346165D-19  0.27605696D-03 -0.20883034D-06  0.28187900D-18
  0.50150426D-03  0.59338139D-07 -0.20518629D-19  0.19711808D-04  0.19567883D-08
 -0.10593451D-03  0.21186903D-03 -0.10593453D-03  0.98511787D-18 -0.44480420D-20
  0.12660862D-06  0.12506064D-04 -0.25012158D-04  0.12506094D-04 -0.31792572D-18
  0.39107228D-21 -0.19072946D-06  0.39875937D-04 -0.79751888D-04  0.39875951D-04
 -0.81741268D-19 -0.21366460D-22 -0.46647926D-08  0.68526143D-20 -0.94351482D-04
 -0.20934431D-07 -0.17196319D-19  0.14152721D-03 -0.20934422D-07 -0.33615243D-20
  0.14152724D-03  0.83737715D-07 -0.98646222D-21 -0.26931497D-19  0.38384112D-04
 -0.68763185D-08  0.10455360D-18 -0.57576145D-04 -0.68763228D-08 -0.23759106D-19
 -0.57576191D-04  0.27505278D-07  0.29416881D-22 -0.43656286D+00 -0.81681078D+00
 -0.14112681D+01 -0.22878302D+01 -0.34742526D+01 -0.48288026D+01 -0.57407497D+01
 -0.51134182D+01 -0.25384539D+01 -0.40898560D+00 -0.62790184D-02 -0.11220544D-02
 -0.41929423D-04  0.87929221D-03  0.16423916D-02  0.28504503D-02  0.46251224D-02
  0.71591401D-02  0.10247659D-01  0.13376396D-01  0.14254781D-01  0.10655739D-01
  0.56249751D-03 -0.72278138D-02 -0.42941518D-02  0.16099850D-04 -0.37988957D-03
 -0.70900914D-03 -0.12321955D-02 -0.19970264D-02 -0.31016946D-02 -0.44432671D-02
 -0.58669202D-02 -0.63438810D-02 -0.49736850D-02 -0.24748892D-03  0.42637055D-02
  0.44137256D-02 -0.19972733D-02  0.23710017D-02  0.76312252D-03  0.36717688D-03
  0.27456283D-17  0.36166087D-17  0.39899667D-17  0.33141259D-17  0.17602128D-17
  0.45401023D-18 -0.46670708D-21 -0.70452491D-02 -0.92801742D-02 -0.10238206D-01
 -0.85040071D-02 -0.45166847D-02 -0.11649847D-02  0.11975647D-05 -0.32579007D-05
 -0.42913864D-05 -0.47344045D-05 -0.39324671D-05 -0.20886288D-05 -0.53871830D-06
  0.55378410D-09 -0.46749799D-17 -0.61379058D-17 -0.69884574D-17 -0.59175387D-17
 -0.33897940D-17 -0.77106053D-18  0.36089876D-18  0.61024903D-02  0.80121224D-02
  0.91223908D-02  0.77244659D-02  0.44248714D-02  0.10065047D-02 -0.47109961D-03
  0.27460232D-05  0.36053271D-05  0.41049301D-05  0.34758862D-05  0.19911215D-05
  0.45291106D-06 -0.21198730D-06 -0.54116162D-18  0.27605694D-03  0.20883043D-06
  0.23538721D-18  0.50150421D-03 -0.59338218D-07 -0.50200234D-20  0.19711806D-04
 -0.19567906D-08  0.10593449D-03 -0.21186899D-03  0.10593451D-03 -0.84301632D-18
 -0.31385733D-20  0.12660876D-06 -0.12506055D-04  0.25012141D-04 -0.12506086D-04
  0.37078224D-18  0.65129303D-21 -0.19072957D-06 -0.39875934D-04  0.79751881D-04
 -0.39875947D-04  0.97352764D-19  0.54897564D-23 -0.46648197D-08  0.22981423D-19
 -0.94351465D-04  0.20934427D-07 -0.77072182D-19  0.14152718D-03  0.20934418D-07
  0.81279132D-20  0.14152722D-03 -0.83737699D-07 -0.29304550D-20 -0.15603560D-19
  0.38384102D-04  0.68763299D-08  0.60977391D-19 -0.57576130D-04  0.68763342D-08
 -0.14166710D-19 -0.57576176D-04 -0.27505324D-07  0.58181082D-21
MO    2     MO 0.0        OCC NO =    2.0000000  ORB. ENERGY = -100.705666
  0.10556277D-03  0.19694365D-03  0.33621866D-03  0.52470494D-03  0.71525765D-03
  0.77627382D-03  0.56577338D-03  0.17312405D-03 -0.82487241D-06 -0.73365059D-04
 -0.13699587D-03 -0.23554281D-03 -0.36973214D-03 -0.52593309D-03 -0.61009649D-03
 -0.57842066D-03 -0.33704599D-03  0.24973730D-03  0.36176918D-03  0.24759390D-03
 -0.63382370D-05 -0.16360907D-19 -0.13785203D-19 -0.10887258D-19 -0.55126706D-10
 -0.46448089D-10 -0.36683706D-10 -0.21353559D-06 -0.17991861D-06 -0.14209586D-06
  0.45299021D-19 -0.88741806D-10  0.33438577D-06  0.18817329D-20 -0.10761030D-10
  0.16390411D-07  0.65659923D-23  0.24106640D-13 -0.65934200D-11 -0.30283075D-04
  0.60566159D-04 -0.30283084D-04 -0.21586259D-19 -0.17481338D-21 -0.92226762D-14
  0.14498043D-04 -0.28996039D-04  0.14497996D-04  0.42502755D-19  0.84344310D-22
  0.45156307D-13 -0.86948546D-05  0.17389712D-04 -0.86948571D-05  0.13030612D-19
 -0.87476929D-23  0.41271668D-14 -0.82476046D-20  0.10507090D-10 -0.53061554D-07
  0.32897990D-19 -0.15760633D-10 -0.53061560D-07 -0.81551767D-20 -0.15760636D-10
  0.21224622D-06 -0.13642419D-21 -0.19566984D-20  0.30408419D-11 -0.18381709D-07
  0.78636331D-20 -0.45612610D-11 -0.18381707D-07 -0.19935380D-20 -0.45612646D-11
  0.73526834D-07 -0.27611503D-22  0.43642825D+00  0.81655893D+00  0.14108329D+01
  0.22871247D+01  0.34731814D+01  0.48273137D+01  0.57389796D+01  0.51118416D+01
  0.25376712D+01  0.40885949D+00  0.62770823D-02  0.11217084D-02  0.41916494D-04
 -0.64550875D-03 -0.12057177D-02 -0.20925815D-02 -0.33954093D-02 -0.52556904D-02
 -0.75230433D-02 -0.98199215D-02 -0.10464765D-01 -0.78226242D-02 -0.41294244D-03
  0.53061053D-02  0.31524362D-02 -0.11819272D-04  0.25753548D-03  0.48065288D-03
  0.83533239D-03  0.13538281D-02  0.21027070D-02  0.30121884D-02  0.39773141D-02
  0.43006563D-02  0.33717703D-02  0.16777818D-03 -0.28904597D-02 -0.29921616D-02
  0.13539954D-02 -0.20434561D-02 -0.54748725D-03 -0.16612971D-03 -0.71750303D-18
 -0.94511252D-18 -0.10426805D-17 -0.86606602D-18 -0.45998870D-18 -0.11864450D-18
  0.12196252D-21 -0.19536705D-02 -0.25734224D-02 -0.28390878D-02 -0.23581888D-02
 -0.12524913D-02 -0.32305405D-03  0.33208859D-06 -0.29402871D-05 -0.38730181D-05
 -0.42728462D-05 -0.35490899D-05 -0.18850079D-05 -0.48619852D-06  0.49979555D-09
 -0.97360927D-18 -0.12782776D-17 -0.14554131D-17 -0.12323840D-17 -0.70595702D-18
 -0.16058073D-18  0.75160619D-19  0.14835228D-02  0.19477567D-02  0.22176643D-02
  0.18778270D-02  0.10756916D-02  0.24468252D-03 -0.11452489D-03  0.25235616D-05
  0.33132514D-05  0.37723805D-05  0.31942968D-05  0.18298162D-05  0.41621971D-06
 -0.19481373D-06 -0.55606204D-19  0.84588866D-04  0.26304444D-06 -0.86918934D-19
  0.16295759D-03 -0.24478330D-06 -0.44055610D-20  0.42649498D-05 -0.72325619D-08
 -0.56044108D-04  0.11208803D-03 -0.56043923D-04 -0.34991269D-19 -0.43195965D-20
 -0.42921747D-06  0.26658800D-04 -0.53317482D-04  0.26658682D-04  0.34915674D-19
  0.21605471D-21  0.33946715D-06  0.11304043D-04 -0.22608054D-04  0.11304011D-04
  0.28610706D-19  0.57642835D-23  0.84410663D-07 -0.65813656D-20 -0.50114311D-04
 -0.12770434D-07  0.26908458D-19  0.75171554D-04 -0.12770486D-07 -0.71643612D-20
  0.75171379D-04  0.51081789D-07 -0.64580970D-21  0.69688963D-20  0.31279259D-04
  0.35552934D-07 -0.27949626D-19 -0.46918969D-04  0.35552970D-07  0.70429369D-20
 -0.46918807D-04 -0.14221177D-06  0.41983710D-23  0.43642839D+00  0.81655919D+00
  0.14108334D+01  0.22871255D+01  0.34731825D+01  0.48273152D+01  0.57389814D+01
  0.51118432D+01  0.25376720D+01  0.40885962D+00  0.62770843D-02  0.11217088D-02
  0.41916508D-04 -0.64550904D-03 -0.12057182D-02 -0.20925824D-02 -0.33954108D-02
 -0.52556927D-02 -0.75230466D-02 -0.98199258D-02 -0.10464770D-01 -0.78226276D-02
 -0.41294262D-03  0.53061077D-02  0.31524376D-02 -0.11819277D-04  0.25753561D-03
  0.48065310D-03  0.83533279D-03  0.13538287D-02  0.21027079D-02  0.30121898D-02
  0.39773160D-02  0.43006584D-02  0.33717719D-02  0.16777826D-03 -0.28904610D-02
 -0.29921630D-02  0.13539961D-02 -0.20434569D-02 -0.54748750D-03 -0.16612983D-03
 -0.94752262D-18 -0.12480999D-17 -0.13769466D-17 -0.11437124D-17 -0.60745346D-18
 -0.15667997D-18  0.16106168D-21  0.19536727D-02  0.25734254D-02  0.28390911D-02
  0.23581915D-02  0.12524928D-02  0.32305443D-03 -0.33208897D-06 -0.29402861D-05
 -0.38730167D-05 -0.42728447D-05 -0.35490887D-05 -0.18850072D-05 -0.48619835D-06
  0.49979537D-09  0.27370269D-17  0.35935157D-17  0.40914820D-17  0.34644989D-17
  0.19845984D-17  0.45142728D-18 -0.21129281D-18 -0.14835248D-02 -0.19477593D-02
 -0.22176672D-02 -0.18778295D-02 -0.10756930D-02 -0.24468285D-03  0.11452504D-03
  0.25235607D-05  0.33132502D-05  0.37723791D-05  0.31942957D-05  0.18298156D-05
  0.41621956D-06 -0.19481366D-06  0.26669782D-18 -0.84588955D-04  0.26304437D-06
  0.55377729D-19 -0.16295776D-03 -0.24478328D-06  0.32460647D-20 -0.42649561D-05
 -0.72325613D-08 -0.56044142D-04  0.11208810D-03 -0.56043957D-04  0.63623125D-19
  0.27585058D-20  0.42921743D-06  0.26658804D-04 -0.53317490D-04  0.26658686D-04
 -0.56497706D-19 -0.47511342D-21 -0.33946709D-06  0.11304056D-04 -0.22608080D-04
  0.11304024D-04  0.14655330D-19  0.30758923D-22 -0.84410662D-07  0.95533514D-20
  0.50114341D-04 -0.12770441D-07 -0.38327416D-19 -0.75171599D-04 -0.12770492D-07
  0.96673615D-20 -0.75171424D-04  0.51081815D-07  0.17360804D-20 -0.15343475D-21
 -0.31279271D-04  0.35552932D-07  0.59617293D-21  0.46918988D-04  0.35552967D-07
 -0.13586869D-21  0.46918825D-04 -0.14221176D-06 -0.35273634D-21
MO    3     MO 0.0        OCC NO =    2.0000000  ORB. ENERGY =   -9.190618
 -0.69586558D-11 -0.12982447D-10 -0.22163400D-10 -0.34588340D-10 -0.47149498D-10
 -0.51171660D-10 -0.37295555D-10 -0.11412268D-10  0.54375259D-13  0.44595614D-11
  0.83274176D-11  0.14317682D-10  0.22474502D-10  0.31969318D-10  0.37085266D-10
  0.35159822D-10  0.20487645D-10 -0.15180508D-10 -0.40845100D-10 -0.15993967D-10
  0.70064981D-12 -0.77720450D-16 -0.65484892D-16 -0.51718565D-16 -0.47754677D-03
 -0.40236641D-03 -0.31778037D-03  0.28200995D-13  0.23761302D-13  0.18766168D-13
  0.43399546D-17 -0.15643926D-02 -0.52322787D-13  0.40460134D-17 -0.90934107D-04
 -0.42184673D-14 -0.78837083D-19  0.21410437D-06  0.27771700D-17 -0.11313757D-11
  0.22627606D-11 -0.11313849D-11  0.28138951D-15  0.29764831D-17 -0.20421630D-06
 -0.33849713D-11  0.67699038D-11 -0.33849324D-11 -0.11187503D-15  0.57392947D-19
  0.63027665D-06  0.10273394D-11 -0.20546856D-11  0.10273462D-11 -0.20930326D-18
 -0.24455467D-20  0.53647232D-07  0.17461940D-18  0.87497465D-04  0.73048073D-14
 -0.73490203D-18 -0.13124617D-03  0.73046858D-14  0.21104383D-18 -0.13124622D-03
 -0.29219108D-13 -0.60505258D-19 -0.27784043D-18  0.43988822D-04  0.29364603D-14
  0.11140314D-17 -0.65983212D-04  0.29366275D-14 -0.28051015D-18 -0.65983254D-04
 -0.11746008D-13  0.78759670D-20 -0.28212453D-02 -0.52785608D-02 -0.91201838D-02
 -0.14784882D-01 -0.22452022D-01 -0.31205671D-01 -0.37099040D-01 -0.33044972D-01
 -0.16404513D-01 -0.26430299D-02 -0.40577550D-04 -0.72511683D-05 -0.27096485D-06
 -0.11790848D+00 -0.22023611D+00 -0.38223045D+00 -0.62020469D+00 -0.96000320D+00
 -0.13741574D+01 -0.17937046D+01 -0.19114916D+01 -0.14288787D+01 -0.75427970D-01
  0.96921198D+00  0.57582327D+00 -0.21589056D-02 -0.11375730D-02 -0.21231162D-02
 -0.36897890D-02 -0.59800625D-02 -0.92879734D-02 -0.13305290D-01 -0.17568395D-01
 -0.18996647D-01 -0.14893617D-01 -0.74110148D-03  0.12767596D-01  0.13216828D-01
 -0.59808019D-02  0.55095549D-01  0.24317582D-02  0.63254908D-03 -0.54606788D-15
 -0.71929395D-15 -0.79354973D-15 -0.65913426D-15 -0.35008222D-15 -0.90296417D-16
  0.92821646D-19 -0.16197249D-01 -0.21335412D-01 -0.23537957D-01 -0.19550979D-01
 -0.10384000D-01 -0.26783365D-02  0.27532389D-05  0.32029582D-05  0.42190148D-05
  0.46545617D-05  0.38661485D-05  0.20534054D-05  0.52963315D-06 -0.54444488D-09
  0.14481678D-16  0.19013381D-16  0.21648133D-16  0.18330750D-16  0.10500560D-16
  0.23885130D-17 -0.11179555D-17 -0.11172005D-01 -0.14668023D-01 -0.16700623D-01
 -0.14141402D-01 -0.81007394D-02 -0.18426372D-02  0.86245561D-03  0.49445270D-05
  0.64918015D-05  0.73913936D-05  0.62587285D-05  0.35852406D-05  0.81551786D-06
 -0.38170724D-06 -0.23142426D-17 -0.86029890D-03  0.45609396D-06 -0.28221800D-17
 -0.11803653D-02 -0.91890642D-07 -0.31765190D-18 -0.33817673D-04 -0.78320213D-08
  0.83679848D-05 -0.16736046D-04  0.83680608D-05  0.34127801D-17 -0.31235872D-17
 -0.54844305D-06 -0.21322817D-04  0.42645688D-04 -0.21322870D-04 -0.27719779D-17
  0.23145059D-18  0.34426537D-06 -0.93010883D-04  0.18602179D-03 -0.93010912D-04
  0.18752436D-17 -0.18871498D-19 -0.58283321D-08 -0.17290782D-17  0.13773059D-03
  0.21314691D-07  0.63297131D-17 -0.20659583D-03  0.21340784D-07 -0.11424786D-17
 -0.20659594D-03 -0.85284856D-07  0.21341647D-18  0.18044126D-18 -0.69586097D-04
  0.10570590D-07 -0.49503890D-18  0.10437910D-03  0.10568656D-07 -0.46284894D-19
  0.10437919D-03 -0.42280425D-07 -0.13081650D-19  0.28212450D-02  0.52785602D-02
  0.91201827D-02  0.14784880D-01  0.22452019D-01  0.31205667D-01  0.37099036D-01
  0.33044968D-01  0.16404512D-01  0.26430296D-02  0.40577545D-04  0.72511675D-05
  0.27096481D-06  0.11790847D+00  0.22023608D+00  0.38223040D+00  0.62020461D+00
  0.96000307D+00  0.13741572D+01  0.17937044D+01  0.19114913D+01  0.14288786D+01
  0.75427961D-01 -0.96921185D+00 -0.57582319D+00  0.21589053D-02  0.11375729D-02
  0.21231159D-02  0.36897886D-02  0.59800619D-02  0.92879724D-02  0.13305289D-01
  0.17568394D-01  0.18996645D-01  0.14893616D-01  0.74110140D-03 -0.12767594D-01
 -0.13216827D-01  0.59808013D-02 -0.55095542D-01 -0.24317580D-02 -0.63254907D-03
  0.35504557D-15  0.46767470D-15  0.51595475D-15  0.42855973D-15  0.22761848D-15
  0.58709447D-16 -0.60351315D-19 -0.16197246D-01 -0.21335408D-01 -0.23537953D-01
 -0.19550976D-01 -0.10383998D-01 -0.26783360D-02  0.27532384D-05 -0.32029564D-05
 -0.42190124D-05 -0.46545590D-05 -0.38661463D-05 -0.20534042D-05 -0.52963285D-06
  0.54444456D-09 -0.14199432D-15 -0.18642813D-15 -0.21226214D-15 -0.17973486D-15
 -0.10295905D-15 -0.23419612D-16  0.10961667D-16 -0.11172004D-01 -0.14668022D-01
 -0.16700622D-01 -0.14141401D-01 -0.81007389D-02 -0.18426370D-02  0.86245555D-03
 -0.49445276D-05 -0.64918023D-05 -0.73913945D-05 -0.62587293D-05 -0.35852411D-05
 -0.81551796D-06  0.38170729D-06 -0.12173580D-16 -0.86029881D-03 -0.45609401D-06
 -0.67364162D-17 -0.11803653D-02  0.91890712D-07  0.42742204D-18 -0.33817674D-04
  0.78320233D-08 -0.83679949D-05  0.16736066D-04 -0.83680709D-05 -0.40540427D-17
  0.41759524D-17 -0.54844311D-06  0.21322817D-04 -0.42645688D-04  0.21322870D-04
  0.32842323D-18 -0.32199746D-18  0.34426545D-06  0.93010880D-04 -0.18602179D-03
  0.93010909D-04 -0.30445963D-17  0.35830108D-19 -0.58283072D-08  0.41879860D-17
  0.13773058D-03 -0.21314686D-07 -0.14671177D-16 -0.20659581D-03 -0.21340780D-07
  0.21072193D-17 -0.20659592D-03  0.85284840D-07 -0.24989106D-18  0.95710195D-19
 -0.69586090D-04 -0.10570599D-07 -0.35677750D-18  0.10437909D-03 -0.10568665D-07
  0.69646915D-19  0.10437918D-03  0.42280461D-07 -0.17621538D-19
MO    4     MO 0.0        OCC NO =    2.0000000  ORB. ENERGY =   -9.190611
 -0.10959073D-03 -0.20445843D-03 -0.34904776D-03 -0.54472610D-03 -0.74254973D-03
 -0.80589409D-03 -0.58736159D-03 -0.17972994D-03  0.85634705D-06  0.70261727D-04
  0.13120096D-03  0.22557938D-03  0.35409253D-03  0.50368620D-03  0.58428950D-03
  0.55395355D-03  0.32278900D-03 -0.23917345D-03 -0.64219056D-03 -0.25334431D-03
  0.11054245D-04  0.27787323D-17  0.23412755D-17  0.18490892D-17  0.30452670D-10
  0.25658495D-10  0.20264530D-10  0.44493665D-06  0.37489011D-06  0.29608018D-06
 -0.11710040D-17  0.99217267D-10 -0.82632857D-06 -0.16143692D-18  0.57326885D-11
 -0.66490650D-07  0.12365528D-20 -0.13518388D-13  0.44564770D-10 -0.17558781D-04
  0.35117546D-04 -0.17558765D-04  0.10530682D-17  0.53125978D-20  0.13016528D-13
 -0.53171529D-04  0.10634294D-03 -0.53171416D-04 -0.13004878D-17 -0.44510808D-20
 -0.40090129D-13  0.16177581D-04 -0.32355169D-04  0.16177588D-04 -0.22187626D-20
  0.43161535D-20 -0.34109371D-14  0.14642995D-19 -0.55970015D-11  0.11456601D-06
 -0.67494125D-19  0.83955441D-11  0.11456608D-06  0.23565138D-19  0.83954605D-11
 -0.45826411D-06  0.32855078D-20  0.28550238D-19 -0.28058135D-11  0.46361196D-07
 -0.10878559D-18  0.42086568D-11  0.46361300D-07  0.23134873D-19  0.42087837D-11
 -0.18544489D-06 -0.22324477D-20 -0.25739091D-02 -0.48157938D-02 -0.83206248D-02
 -0.13488703D-01 -0.20483672D-01 -0.28469895D-01 -0.33846598D-01 -0.30147946D-01
 -0.14966343D-01 -0.24113177D-02 -0.37020150D-04 -0.66154644D-05 -0.24720958D-06
 -0.11834649D+00 -0.22105425D+00 -0.38365037D+00 -0.62250864D+00 -0.96356944D+00
 -0.13792621D+01 -0.18003679D+01 -0.19185924D+01 -0.14341868D+01 -0.75708172D-01
  0.97281243D+00  0.57796235D+00 -0.21669255D-02 -0.89971485D-03 -0.16791881D-02
 -0.29182812D-02 -0.47296753D-02 -0.73459263D-02 -0.10523251D-01 -0.13894973D-01
 -0.15024587D-01 -0.11779471D-01 -0.58614259D-03  0.10097985D-01  0.10453287D-01
 -0.47302601D-02  0.54686915D-01  0.15526626D-02  0.77048919D-04 -0.14131203D-15
 -0.18613966D-15 -0.20535565D-15 -0.17057147D-15 -0.90594652D-16 -0.23367003D-16
  0.24020485D-19 -0.21595310D-01 -0.28445870D-01 -0.31382458D-01 -0.26066739D-01
 -0.13844678D-01 -0.35709463D-02  0.36708114D-05  0.14494323D-04  0.19092276D-04
  0.21063253D-04  0.17495453D-04  0.92922602D-05  0.23967450D-05 -0.24637723D-08
  0.28382861D-16  0.37264615D-16  0.42428506D-16  0.35926716D-16  0.20580206D-16
  0.46812829D-17 -0.21910980D-17 -0.61837030D-02 -0.81187488D-02 -0.92437927D-02
 -0.78272640D-02 -0.44837582D-02 -0.10198994D-02  0.47736906D-03 -0.47351548D-05
 -0.62169111D-05 -0.70784107D-05 -0.59937074D-05 -0.34334264D-05 -0.78098538D-06
  0.36554414D-06  0.11353250D-16 -0.74245003D-03 -0.38042379D-06  0.12814236D-17
 -0.25968000D-03  0.55248877D-06 -0.53358152D-19  0.76008462D-05  0.15816302D-07
 -0.78859287D-04  0.15771891D-03 -0.78859618D-04  0.16274844D-17 -0.31497711D-17
  0.49317435D-06 -0.55136943D-07  0.11002986D-06 -0.54892917D-07 -0.22342517D-19
  0.25430814D-18 -0.62877690D-06 -0.22302498D-04  0.44604917D-04 -0.22302419D-04
 -0.46806296D-18 -0.25245908D-19 -0.19695154D-06  0.69692471D-19  0.10785722D-03
  0.32667089D-07 -0.42370668D-18 -0.16178603D-03  0.32693854D-07  0.21462926D-18
 -0.16178563D-03 -0.13069512D-06 -0.37994586D-19 -0.25571404D-19 -0.54719296D-04
 -0.70448741D-07  0.92942154D-19  0.82079120D-04 -0.70450944D-07 -0.16227942D-19
  0.82078767D-04  0.28179717D-06  0.15186945D-20 -0.25739094D-02 -0.48157944D-02
 -0.83206260D-02 -0.13488705D-01 -0.20483675D-01 -0.28469899D-01 -0.33846603D-01
 -0.30147951D-01 -0.14966345D-01 -0.24113180D-02 -0.37020155D-04 -0.66154653D-05
 -0.24720962D-06 -0.11834650D+00 -0.22105428D+00 -0.38365042D+00 -0.62250872D+00
 -0.96356956D+00 -0.13792623D+01 -0.18003681D+01 -0.19185926D+01 -0.14341869D+01
 -0.75708181D-01  0.97281255D+00  0.57796242D+00 -0.21669258D-02 -0.89971500D-03
 -0.16791884D-02 -0.29182817D-02 -0.47296761D-02 -0.73459274D-02 -0.10523253D-01
 -0.13894975D-01 -0.15024590D-01 -0.11779473D-01 -0.58614269D-03  0.10097987D-01
  0.10453288D-01 -0.47302608D-02  0.54686922D-01  0.15526629D-02  0.77048999D-04
  0.65994323D-15  0.86929335D-15  0.95903421D-15  0.79658815D-15  0.42308731D-15
  0.10912656D-15 -0.11217839D-18  0.21595312D-01  0.28445872D-01  0.31382461D-01
  0.26066741D-01  0.13844679D-01  0.35709467D-02 -0.36708118D-05  0.14494323D-04
  0.19092277D-04  0.21063254D-04  0.17495454D-04  0.92922604D-05  0.23967450D-05
 -0.24637724D-08  0.23366631D-16  0.30678673D-16  0.34929926D-16  0.29577227D-16
  0.16942974D-16  0.38539388D-17 -0.18038555D-17  0.61837044D-02  0.81187506D-02