 Molden2AIM, Version 4.0.0 (06/02/2016)           Time: Fri Jun 29 04:46:22 2018
GAUSSIAN             52 MOL ORBITALS    787 PRIMITIVES        5 NUCLEI
  Br   1    (CENTRE  1)   0.00000000  0.00000000  0.00000000  CHARGE = 35.0
  Cl   2    (CENTRE  2)  -4.54387481  0.00000000  0.00000000  CHARGE = 17.0
  Cl   3    (CENTRE  3)   0.00000000 -4.54387481  0.00000000  CHARGE = 17.0
  Cl   4    (CENTRE  4)   4.54387481  0.00000000  0.00000000  CHARGE = 17.0
  Cl   5    (CENTRE  5)   0.00000000  4.54387481  0.00000000  CHARGE = 17.0
CENTRE ASSIGNMENTS    1  1  1  1  1  1  1  1  1  1  1  1  1  1  1  1  1  1  1  1
CENTRE ASSIGNMENTS    1  1  1  1  1  1  1  1  1  1  1  1  1  1  1  1  1  1  1  1
CENTRE ASSIGNMENTS    1  1  1  1  1  1  1  1  1  1  1  1  1  1  1  1  1  1  1  1
CENTRE ASSIGNMENTS    1  1  1  1  1  1  1  1  1  1  1  1  1  1  1  1  1  1  1  1
CENTRE ASSIGNMENTS    1  1  1  1  1  1  1  1  1  1  1  1  1  1  1  1  1  1  1  1
CENTRE ASSIGNMENTS    1  1  1  1  1  1  1  1  1  1  1  1  1  1  1  1  1  1  1  1
CENTRE ASSIGNMENTS    1  1  1  1  1  1  1  1  1  1  1  1  1  1  1  1  1  1  1  1
CENTRE ASSIGNMENTS    1  1  1  1  1  1  1  1  1  1  1  1  1  1  1  1  1  1  1  1
CENTRE ASSIGNMENTS    1  1  1  1  1  1  1  1  1  1  1  1  1  1  1  1  1  1  1  1
CENTRE ASSIGNMENTS    1  1  1  1  1  1  1  1  1  1  1  1  1  1  1  1  1  1  1  1
CENTRE ASSIGNMENTS    1  1  1  1  1  1  1  1  1  1  1  1  1  1  1  1  1  1  1  1
CENTRE ASSIGNMENTS    1  1  1  1  1  1  1  1  1  1  1  1  1  1  1  1  1  1  1  1
CENTRE ASSIGNMENTS    1  1  1  1  1  1  1  1  1  1  1  1  1  1  1  1  1  1  1  1
CENTRE ASSIGNMENTS    1  1  1  2  2  2  2  2  2  2  2  2  2  2  2  2  2  2  2  2
CENTRE ASSIGNMENTS    2  2  2  2  2  2  2  2  2  2  2  2  2  2  2  2  2  2  2  2
CENTRE ASSIGNMENTS    2  2  2  2  2  2  2  2  2  2  2  2  2  2  2  2  2  2  2  2
CENTRE ASSIGNMENTS    2  2  2  2  2  2  2  2  2  2  2  2  2  2  2  2  2  2  2  2
CENTRE ASSIGNMENTS    2  2  2  2  2  2  2  2  2  2  2  2  2  2  2  2  2  2  2  2
CENTRE ASSIGNMENTS    2  2  2  2  2  2  2  2  2  2  2  2  2  2  2  2  2  2  2  2
CENTRE ASSIGNMENTS    2  2  2  2  2  2  2  2  2  2  2  2  2  2  3  3  3  3  3  3
CENTRE ASSIGNMENTS    3  3  3  3  3  3  3  3  3  3  3  3  3  3  3  3  3  3  3  3
CENTRE ASSIGNMENTS    3  3  3  3  3  3  3  3  3  3  3  3  3  3  3  3  3  3  3  3
CENTRE ASSIGNMENTS    3  3  3  3  3  3  3  3  3  3  3  3  3  3  3  3  3  3  3  3
CENTRE ASSIGNMENTS    3  3  3  3  3  3  3  3  3  3  3  3  3  3  3  3  3  3  3  3
CENTRE ASSIGNMENTS    3  3  3  3  3  3  3  3  3  3  3  3  3  3  3  3  3  3  3  3
CENTRE ASSIGNMENTS    3  3  3  3  3  3  3  3  3  3  3  3  3  3  3  3  3  3  3  3
CENTRE ASSIGNMENTS    3  3  3  3  3  4  4  4  4  4  4  4  4  4  4  4  4  4  4  4
CENTRE ASSIGNMENTS    4  4  4  4  4  4  4  4  4  4  4  4  4  4  4  4  4  4  4  4
CENTRE ASSIGNMENTS    4  4  4  4  4  4  4  4  4  4  4  4  4  4  4  4  4  4  4  4
CENTRE ASSIGNMENTS    4  4  4  4  4  4  4  4  4  4  4  4  4  4  4  4  4  4  4  4
CENTRE ASSIGNMENTS    4  4  4  4  4  4  4  4  4  4  4  4  4  4  4  4  4  4  4  4
CENTRE ASSIGNMENTS    4  4  4  4  4  4  4  4  4  4  4  4  4  4  4  4  4  4  4  4
CENTRE ASSIGNMENTS    4  4  4  4  4  4  4  4  4  4  4  4  4  4  4  4  5  5  5  5
CENTRE ASSIGNMENTS    5  5  5  5  5  5  5  5  5  5  5  5  5  5  5  5  5  5  5  5
CENTRE ASSIGNMENTS    5  5  5  5  5  5  5  5  5  5  5  5  5  5  5  5  5  5  5  5
CENTRE ASSIGNMENTS    5  5  5  5  5  5  5  5  5  5  5  5  5  5  5  5  5  5  5  5
CENTRE ASSIGNMENTS    5  5  5  5  5  5  5  5  5  5  5  5  5  5  5  5  5  5  5  5
CENTRE ASSIGNMENTS    5  5  5  5  5  5  5  5  5  5  5  5  5  5  5  5  5  5  5  5
CENTRE ASSIGNMENTS    5  5  5  5  5  5  5  5  5  5  5  5  5  5  5  5  5  5  5  5
CENTRE ASSIGNMENTS    5  5  5  5  5  5  5
TYPE ASSIGNMENTS      1  1  1  1  1  1  1  1  1  1  1  1  1  1  1  1  1  1  1  1
TYPE ASSIGNMENTS      1  1  1  1  1  1  1  1  1  1  1  1  1  1  1  1  1  1  1  1
TYPE ASSIGNMENTS      1  1  1  1  1  1  1  1  1  1  1  1  1  1  1  1  1  1  1  1
TYPE ASSIGNMENTS      1  1  1  1  1  1  1  1  1  1  1  1  1  1  1  2  2  2  2  2
TYPE ASSIGNMENTS      2  2  2  2  2  2  3  3  3  3  3  3  3  3  3  3  3  4  4  4
TYPE ASSIGNMENTS      4  4  4  4  4  4  4  4  2  2  2  2  2  2  2  2  2  2  2  3
TYPE ASSIGNMENTS      3  3  3  3  3  3  3  3  3  3  4  4  4  4  4  4  4  4  4  4
TYPE ASSIGNMENTS      4  2  2  2  2  2  2  2  2  2  2  2  3  3  3  3  3  3  3  3
TYPE ASSIGNMENTS      3  3  3  4  4  4  4  4  4  4  4  4  4  4  2  3  4  2  3  4
TYPE ASSIGNMENTS      2  3  4  5  5  5  5  5  5  5  6  6  6  6  6  6  6  7  7  7
TYPE ASSIGNMENTS      7  7  7  7  8  8  8  8  8  8  8  9  9  9  9  9  9  9 10 10
TYPE ASSIGNMENTS     10 10 10 10 10  5  6  7  8  9 10  5  6  7  8  9 10  5  6  7
TYPE ASSIGNMENTS      8  9 10 11 12 13 17 14 15 18 19 16 20 11 12 13 17 14 15 18
TYPE ASSIGNMENTS     19 16 20  1  1  1  1  1  1  1  1  1  1  1  1  1  1  1  1  1
TYPE ASSIGNMENTS      1  1  1  1  1  1  1  1  1  1  1  1  1  1  1  1  1  1  1  1
TYPE ASSIGNMENTS      1  1  1  1  1  2  2  2  2  2  2  2  3  3  3  3  3  3  3  4
TYPE ASSIGNMENTS      4  4  4  4  4  4  2  2  2  2  2  2  2  3  3  3  3  3  3  3
TYPE ASSIGNMENTS      4  4  4  4  4  4  4  2  3  4  2  3  4  2  3  4  5  6  7  8
TYPE ASSIGNMENTS      9 10  5  6  7  8  9 10  5  6  7  8  9 10 11 12 13 17 14 15
TYPE ASSIGNMENTS     18 19 16 20 11 12 13 17 14 15 18 19 16 20  1  1  1  1  1  1
TYPE ASSIGNMENTS      1  1  1  1  1  1  1  1  1  1  1  1  1  1  1  1  1  1  1  1
TYPE ASSIGNMENTS      1  1  1  1  1  1  1  1  1  1  1  1  1  1  1  1  2  2  2  2
TYPE ASSIGNMENTS      2  2  2  3  3  3  3  3  3  3  4  4  4  4  4  4  4  2  2  2
TYPE ASSIGNMENTS      2  2  2  2  3  3  3  3  3  3  3  4  4  4  4  4  4  4  2  3
TYPE ASSIGNMENTS      4  2  3  4  2  3  4  5  6  7  8  9 10  5  6  7  8  9 10  5
TYPE ASSIGNMENTS      6  7  8  9 10 11 12 13 17 14 15 18 19 16 20 11 12 13 17 14
TYPE ASSIGNMENTS     15 18 19 16 20  1  1  1  1  1  1  1  1  1  1  1  1  1  1  1
TYPE ASSIGNMENTS      1  1  1  1  1  1  1  1  1  1  1  1  1  1  1  1  1  1  1  1
TYPE ASSIGNMENTS      1  1  1  1  1  1  1  2  2  2  2  2  2  2  3  3  3  3  3  3
TYPE ASSIGNMENTS      3  4  4  4  4  4  4  4  2  2  2  2  2  2  2  3  3  3  3  3
TYPE ASSIGNMENTS      3  3  4  4  4  4  4  4  4  2  3  4  2  3  4  2  3  4  5  6
TYPE ASSIGNMENTS      7  8  9 10  5  6  7  8  9 10  5  6  7  8  9 10 11 12 13 17
TYPE ASSIGNMENTS     14 15 18 19 16 20 11 12 13 17 14 15 18 19 16 20  1  1  1  1
TYPE ASSIGNMENTS      1  1  1  1  1  1  1  1  1  1  1  1  1  1  1  1  1  1  1  1
TYPE ASSIGNMENTS      1  1  1  1  1  1  1  1  1  1  1  1  1  1  1  1  1  1  2  2
TYPE ASSIGNMENTS      2  2  2  2  2  3  3  3  3  3  3  3  4  4  4  4  4  4  4  2
TYPE ASSIGNMENTS      2  2  2  2  2  2  3  3  3  3  3  3  3  4  4  4  4  4  4  4
TYPE ASSIGNMENTS      2  3  4  2  3  4  2  3  4  5  6  7  8  9 10  5  6  7  8  9
TYPE ASSIGNMENTS     10  5  6  7  8  9 10 11 12 13 17 14 15 18 19 16 20 11 12 13
TYPE ASSIGNMENTS     17 14 15 18 19 16 20
EXPONENTS  0.1063900D+08 0.1593400D+07 0.3626100D+06 0.1027000D+06 0.3350100D+05
EXPONENTS  0.1209300D+05 0.4715900D+04 0.1955600D+04 0.8526100D+03 0.3876700D+03
EXPONENTS  0.1826800D+03 0.8824500D+02 0.3926300D+02 0.1923400D+02 0.9405700D+01
EXPONENTS  0.4160100D+01 0.1899500D+01 0.3011400D+00 0.1063900D+08 0.1593400D+07
EXPONENTS  0.3626100D+06 0.1027000D+06 0.3350100D+05 0.1209300D+05 0.4715900D+04
EXPONENTS  0.1955600D+04 0.8526100D+03 0.3876700D+03 0.1826800D+03 0.8824500D+02
EXPONENTS  0.3926300D+02 0.1923400D+02 0.9405700D+01 0.4160100D+01 0.1899500D+01
EXPONENTS  0.3011400D+00 0.1063900D+08 0.1593400D+07 0.3626100D+06 0.1027000D+06
EXPONENTS  0.3350100D+05 0.1209300D+05 0.4715900D+04 0.1955600D+04 0.8526100D+03
EXPONENTS  0.3876700D+03 0.1826800D+03 0.8824500D+02 0.3926300D+02 0.1923400D+02
EXPONENTS  0.9405700D+01 0.4160100D+01 0.1899500D+01 0.3011400D+00 0.1063900D+08
EXPONENTS  0.1593400D+07 0.3626100D+06 0.1027000D+06 0.3350100D+05 0.1209300D+05
EXPONENTS  0.4715900D+04 0.1955600D+04 0.8526100D+03 0.3876700D+03 0.1826800D+03
EXPONENTS  0.8824500D+02 0.3926300D+02 0.1923400D+02 0.9405700D+01 0.4160100D+01
EXPONENTS  0.1899500D+01 0.3011400D+00 0.6047200D+00 0.1251500D+00 0.4559300D-01
EXPONENTS  0.8676500D+04 0.2055900D+04 0.6662300D+03 0.2531000D+03 0.1061200D+03
EXPONENTS  0.4724200D+02 0.2182500D+02 0.9968400D+01 0.4517100D+01 0.1998200D+01
EXPONENTS  0.2814500D+00 0.8676500D+04 0.2055900D+04 0.6662300D+03 0.2531000D+03
EXPONENTS  0.1061200D+03 0.4724200D+02 0.2182500D+02 0.9968400D+01 0.4517100D+01
EXPONENTS  0.1998200D+01 0.2814500D+00 0.8676500D+04 0.2055900D+04 0.6662300D+03
EXPONENTS  0.2531000D+03 0.1061200D+03 0.4724200D+02 0.2182500D+02 0.9968400D+01
EXPONENTS  0.4517100D+01 0.1998200D+01 0.2814500D+00 0.8676500D+04 0.2055900D+04
EXPONENTS  0.6662300D+03 0.2531000D+03 0.1061200D+03 0.4724200D+02 0.2182500D+02
EXPONENTS  0.9968400D+01 0.4517100D+01 0.1998200D+01 0.2814500D+00 0.8676500D+04
EXPONENTS  0.2055900D+04 0.6662300D+03 0.2531000D+03 0.1061200D+03 0.4724200D+02
EXPONENTS  0.2182500D+02 0.9968400D+01 0.4517100D+01 0.1998200D+01 0.2814500D+00
EXPONENTS  0.8676500D+04 0.2055900D+04 0.6662300D+03 0.2531000D+03 0.1061200D+03
EXPONENTS  0.4724200D+02 0.2182500D+02 0.9968400D+01 0.4517100D+01 0.1998200D+01
EXPONENTS  0.2814500D+00 0.8676500D+04 0.2055900D+04 0.6662300D+03 0.2531000D+03
EXPONENTS  0.1061200D+03 0.4724200D+02 0.2182500D+02 0.9968400D+01 0.4517100D+01
EXPONENTS  0.1998200D+01 0.2814500D+00 0.8676500D+04 0.2055900D+04 0.6662300D+03
EXPONENTS  0.2531000D+03 0.1061200D+03 0.4724200D+02 0.2182500D+02 0.9968400D+01
EXPONENTS  0.4517100D+01 0.1998200D+01 0.2814500D+00 0.8676500D+04 0.2055900D+04
EXPONENTS  0.6662300D+03 0.2531000D+03 0.1061200D+03 0.4724200D+02 0.2182500D+02
EXPONENTS  0.9968400D+01 0.4517100D+01 0.1998200D+01 0.2814500D+00 0.7098800D+00
EXPONENTS  0.7098800D+00 0.7098800D+00 0.1020400D+00 0.1020400D+00 0.1020400D+00
EXPONENTS  0.3514200D-01 0.3514200D-01 0.3514200D-01 0.4038300D+03 0.1211700D+03
EXPONENTS  0.4634500D+02 0.1972100D+02 0.8862400D+01 0.3996200D+01 0.1763600D+01
EXPONENTS  0.4038300D+03 0.1211700D+03 0.4634500D+02 0.1972100D+02 0.8862400D+01
EXPONENTS  0.3996200D+01 0.1763600D+01 0.4038300D+03 0.1211700D+03 0.4634500D+02
EXPONENTS  0.1972100D+02 0.8862400D+01 0.3996200D+01 0.1763600D+01 0.4038300D+03
EXPONENTS  0.1211700D+03 0.4634500D+02 0.1972100D+02 0.8862400D+01 0.3996200D+01
EXPONENTS  0.1763600D+01 0.4038300D+03 0.1211700D+03 0.4634500D+02 0.1972100D+02
EXPONENTS  0.8862400D+01 0.3996200D+01 0.1763600D+01 0.4038300D+03 0.1211700D+03
EXPONENTS  0.4634500D+02 0.1972100D+02 0.8862400D+01 0.3996200D+01 0.1763600D+01
EXPONENTS  0.7061900D+00 0.7061900D+00 0.7061900D+00 0.7061900D+00 0.7061900D+00
EXPONENTS  0.7061900D+00 0.2639000D+00 0.2639000D+00 0.2639000D+00 0.2639000D+00
EXPONENTS  0.2639000D+00 0.2639000D+00 0.1047000D+00 0.1047000D+00 0.1047000D+00
EXPONENTS  0.1047000D+00 0.1047000D+00 0.1047000D+00 0.5515000D+00 0.5515000D+00
EXPONENTS  0.5515000D+00 0.5515000D+00 0.5515000D+00 0.5515000D+00 0.5515000D+00
EXPONENTS  0.5515000D+00 0.5515000D+00 0.5515000D+00 0.2580000D+00 0.2580000D+00
EXPONENTS  0.2580000D+00 0.2580000D+00 0.2580000D+00 0.2580000D+00 0.2580000D+00
EXPONENTS  0.2580000D+00 0.2580000D+00 0.2580000D+00 0.4561000D+06 0.6833000D+05
EXPONENTS  0.1555000D+05 0.4405000D+04 0.1439000D+04 0.5204000D+03 0.2031000D+03
EXPONENTS  0.8396000D+02 0.3620000D+02 0.1583000D+02 0.6334000D+01 0.2694000D+01
EXPONENTS  0.4313000D+00 0.4561000D+06 0.6833000D+05 0.1555000D+05 0.4405000D+04
EXPONENTS  0.1439000D+04 0.5204000D+03 0.2031000D+03 0.8396000D+02 0.3620000D+02
EXPONENTS  0.1583000D+02 0.6334000D+01 0.2694000D+01 0.4313000D+00 0.4561000D+06
EXPONENTS  0.6833000D+05 0.1555000D+05 0.4405000D+04 0.1439000D+04 0.5204000D+03
EXPONENTS  0.2031000D+03 0.8396000D+02 0.3620000D+02 0.1583000D+02 0.6334000D+01
EXPONENTS  0.2694000D+01 0.4313000D+00 0.9768000D+00 0.1625000D+00 0.5910000D-01
EXPONENTS  0.6633000D+03 0.1568000D+03 0.4998000D+02 0.1842000D+02 0.7240000D+01
EXPONENTS  0.2922000D+01 0.3818000D+00 0.6633000D+03 0.1568000D+03 0.4998000D+02
EXPONENTS  0.1842000D+02 0.7240000D+01 0.2922000D+01 0.3818000D+00 0.6633000D+03
EXPONENTS  0.1568000D+03 0.4998000D+02 0.1842000D+02 0.7240000D+01 0.2922000D+01
EXPONENTS  0.3818000D+00 0.6633000D+03 0.1568000D+03 0.4998000D+02 0.1842000D+02
EXPONENTS  0.7240000D+01 0.2922000D+01 0.3818000D+00 0.6633000D+03 0.1568000D+03
EXPONENTS  0.4998000D+02 0.1842000D+02 0.7240000D+01 0.2922000D+01 0.3818000D+00
EXPONENTS  0.6633000D+03 0.1568000D+03 0.4998000D+02 0.1842000D+02 0.7240000D+01
EXPONENTS  0.2922000D+01 0.3818000D+00 0.1022000D+01 0.1022000D+01 0.1022000D+01
EXPONENTS  0.1301000D+00 0.1301000D+00 0.1301000D+00 0.4190000D-01 0.4190000D-01
EXPONENTS  0.4190000D-01 0.1046000D+01 0.1046000D+01 0.1046000D+01 0.1046000D+01
EXPONENTS  0.1046000D+01 0.1046000D+01 0.3440000D+00 0.3440000D+00 0.3440000D+00
EXPONENTS  0.3440000D+00 0.3440000D+00 0.3440000D+00 0.1350000D+00 0.1350000D+00
EXPONENTS  0.1350000D+00 0.1350000D+00 0.1350000D+00 0.1350000D+00 0.7060000D+00
EXPONENTS  0.7060000D+00 0.7060000D+00 0.7060000D+00 0.7060000D+00 0.7060000D+00
EXPONENTS  0.7060000D+00 0.7060000D+00 0.7060000D+00 0.7060000D+00 0.3120000D+00
EXPONENTS  0.3120000D+00 0.3120000D+00 0.3120000D+00 0.3120000D+00 0.3120000D+00
EXPONENTS  0.3120000D+00 0.3120000D+00 0.3120000D+00 0.3120000D+00 0.4561000D+06
EXPONENTS  0.6833000D+05 0.1555000D+05 0.4405000D+04 0.1439000D+04 0.5204000D+03
EXPONENTS  0.2031000D+03 0.8396000D+02 0.3620000D+02 0.1583000D+02 0.6334000D+01
EXPONENTS  0.2694000D+01 0.4313000D+00 0.4561000D+06 0.6833000D+05 0.1555000D+05
EXPONENTS  0.4405000D+04 0.1439000D+04 0.5204000D+03 0.2031000D+03 0.8396000D+02
EXPONENTS  0.3620000D+02 0.1583000D+02 0.6334000D+01 0.2694000D+01 0.4313000D+00
EXPONENTS  0.4561000D+06 0.6833000D+05 0.1555000D+05 0.4405000D+04 0.1439000D+04
EXPONENTS  0.5204000D+03 0.2031000D+03 0.8396000D+02 0.3620000D+02 0.1583000D+02
EXPONENTS  0.6334000D+01 0.2694000D+01 0.4313000D+00 0.9768000D+00 0.1625000D+00
EXPONENTS  0.5910000D-01 0.6633000D+03 0.1568000D+03 0.4998000D+02 0.1842000D+02
EXPONENTS  0.7240000D+01 0.2922000D+01 0.3818000D+00 0.6633000D+03 0.1568000D+03
EXPONENTS  0.4998000D+02 0.1842000D+02 0.7240000D+01 0.2922000D+01 0.3818000D+00
EXPONENTS  0.6633000D+03 0.1568000D+03 0.4998000D+02 0.1842000D+02 0.7240000D+01
EXPONENTS  0.2922000D+01 0.3818000D+00 0.6633000D+03 0.1568000D+03 0.4998000D+02
EXPONENTS  0.1842000D+02 0.7240000D+01 0.2922000D+01 0.3818000D+00 0.6633000D+03
EXPONENTS  0.1568000D+03 0.4998000D+02 0.1842000D+02 0.7240000D+01 0.2922000D+01
EXPONENTS  0.3818000D+00 0.6633000D+03 0.1568000D+03 0.4998000D+02 0.1842000D+02
EXPONENTS  0.7240000D+01 0.2922000D+01 0.3818000D+00 0.1022000D+01 0.1022000D+01
EXPONENTS  0.1022000D+01 0.1301000D+00 0.1301000D+00 0.1301000D+00 0.4190000D-01
EXPONENTS  0.4190000D-01 0.4190000D-01 0.1046000D+01 0.1046000D+01 0.1046000D+01
EXPONENTS  0.1046000D+01 0.1046000D+01 0.1046000D+01 0.3440000D+00 0.3440000D+00
EXPONENTS  0.3440000D+00 0.3440000D+00 0.3440000D+00 0.3440000D+00 0.1350000D+00
EXPONENTS  0.1350000D+00 0.1350000D+00 0.1350000D+00 0.1350000D+00 0.1350000D+00
EXPONENTS  0.7060000D+00 0.7060000D+00 0.7060000D+00 0.7060000D+00 0.7060000D+00
EXPONENTS  0.7060000D+00 0.7060000D+00 0.7060000D+00 0.7060000D+00 0.7060000D+00
EXPONENTS  0.3120000D+00 0.3120000D+00 0.3120000D+00 0.3120000D+00 0.3120000D+00
EXPONENTS  0.3120000D+00 0.3120000D+00 0.3120000D+00 0.3120000D+00 0.3120000D+00
EXPONENTS  0.4561000D+06 0.6833000D+05 0.1555000D+05 0.4405000D+04 0.1439000D+04
EXPONENTS  0.5204000D+03 0.2031000D+03 0.8396000D+02 0.3620000D+02 0.1583000D+02
EXPONENTS  0.6334000D+01 0.2694000D+01 0.4313000D+00 0.4561000D+06 0.6833000D+05
EXPONENTS  0.1555000D+05 0.4405000D+04 0.1439000D+04 0.5204000D+03 0.2031000D+03
EXPONENTS  0.8396000D+02 0.3620000D+02 0.1583000D+02 0.6334000D+01 0.2694000D+01
EXPONENTS  0.4313000D+00 0.4561000D+06 0.6833000D+05 0.1555000D+05 0.4405000D+04
EXPONENTS  0.1439000D+04 0.5204000D+03 0.2031000D+03 0.8396000D+02 0.3620000D+02
EXPONENTS  0.1583000D+02 0.6334000D+01 0.2694000D+01 0.4313000D+00 0.9768000D+00
EXPONENTS  0.1625000D+00 0.5910000D-01 0.6633000D+03 0.1568000D+03 0.4998000D+02
EXPONENTS  0.1842000D+02 0.7240000D+01 0.2922000D+01 0.3818000D+00 0.6633000D+03
EXPONENTS  0.1568000D+03 0.4998000D+02 0.1842000D+02 0.7240000D+01 0.2922000D+01
EXPONENTS  0.3818000D+00 0.6633000D+03 0.1568000D+03 0.4998000D+02 0.1842000D+02
EXPONENTS  0.7240000D+01 0.2922000D+01 0.3818000D+00 0.6633000D+03 0.1568000D+03
EXPONENTS  0.4998000D+02 0.1842000D+02 0.7240000D+01 0.2922000D+01 0.3818000D+00
EXPONENTS  0.6633000D+03 0.1568000D+03 0.4998000D+02 0.1842000D+02 0.7240000D+01
EXPONENTS  0.2922000D+01 0.3818000D+00 0.6633000D+03 0.1568000D+03 0.4998000D+02
EXPONENTS  0.1842000D+02 0.7240000D+01 0.2922000D+01 0.3818000D+00 0.1022000D+01
EXPONENTS  0.1022000D+01 0.1022000D+01 0.1301000D+00 0.1301000D+00 0.1301000D+00
EXPONENTS  0.4190000D-01 0.4190000D-01 0.4190000D-01 0.1046000D+01 0.1046000D+01
EXPONENTS  0.1046000D+01 0.1046000D+01 0.1046000D+01 0.1046000D+01 0.3440000D+00
EXPONENTS  0.3440000D+00 0.3440000D+00 0.3440000D+00 0.3440000D+00 0.3440000D+00
EXPONENTS  0.1350000D+00 0.1350000D+00 0.1350000D+00 0.1350000D+00 0.1350000D+00
EXPONENTS  0.1350000D+00 0.7060000D+00 0.7060000D+00 0.7060000D+00 0.7060000D+00
EXPONENTS  0.7060000D+00 0.7060000D+00 0.7060000D+00 0.7060000D+00 0.7060000D+00
EXPONENTS  0.7060000D+00 0.3120000D+00 0.3120000D+00 0.3120000D+00 0.3120000D+00
EXPONENTS  0.3120000D+00 0.3120000D+00 0.3120000D+00 0.3120000D+00 0.3120000D+00
EXPONENTS  0.3120000D+00 0.4561000D+06 0.6833000D+05 0.1555000D+05 0.4405000D+04
EXPONENTS  0.1439000D+04 0.5204000D+03 0.2031000D+03 0.8396000D+02 0.3620000D+02
EXPONENTS  0.1583000D+02 0.6334000D+01 0.2694000D+01 0.4313000D+00 0.4561000D+06
EXPONENTS  0.6833000D+05 0.1555000D+05 0.4405000D+04 0.1439000D+04 0.5204000D+03
EXPONENTS  0.2031000D+03 0.8396000D+02 0.3620000D+02 0.1583000D+02 0.6334000D+01
EXPONENTS  0.2694000D+01 0.4313000D+00 0.4561000D+06 0.6833000D+05 0.1555000D+05
EXPONENTS  0.4405000D+04 0.1439000D+04 0.5204000D+03 0.2031000D+03 0.8396000D+02
EXPONENTS  0.3620000D+02 0.1583000D+02 0.6334000D+01 0.2694000D+01 0.4313000D+00
EXPONENTS  0.9768000D+00 0.1625000D+00 0.5910000D-01 0.6633000D+03 0.1568000D+03
EXPONENTS  0.4998000D+02 0.1842000D+02 0.7240000D+01 0.2922000D+01 0.3818000D+00
EXPONENTS  0.6633000D+03 0.1568000D+03 0.4998000D+02 0.1842000D+02 0.7240000D+01
EXPONENTS  0.2922000D+01 0.3818000D+00 0.6633000D+03 0.1568000D+03 0.4998000D+02
EXPONENTS  0.1842000D+02 0.7240000D+01 0.2922000D+01 0.3818000D+00 0.6633000D+03
EXPONENTS  0.1568000D+03 0.4998000D+02 0.1842000D+02 0.7240000D+01 0.2922000D+01
EXPONENTS  0.3818000D+00 0.6633000D+03 0.1568000D+03 0.4998000D+02 0.1842000D+02
EXPONENTS  0.7240000D+01 0.2922000D+01 0.3818000D+00 0.6633000D+03 0.1568000D+03
EXPONENTS  0.4998000D+02 0.1842000D+02 0.7240000D+01 0.2922000D+01 0.3818000D+00
EXPONENTS  0.1022000D+01 0.1022000D+01 0.1022000D+01 0.1301000D+00 0.1301000D+00
EXPONENTS  0.1301000D+00 0.4190000D-01 0.4190000D-01 0.4190000D-01 0.1046000D+01
EXPONENTS  0.1046000D+01 0.1046000D+01 0.1046000D+01 0.1046000D+01 0.1046000D+01
EXPONENTS  0.3440000D+00 0.3440000D+00 0.3440000D+00 0.3440000D+00 0.3440000D+00
EXPONENTS  0.3440000D+00 0.1350000D+00 0.1350000D+00 0.1350000D+00 0.1350000D+00
EXPONENTS  0.1350000D+00 0.1350000D+00 0.7060000D+00 0.7060000D+00 0.7060000D+00
EXPONENTS  0.7060000D+00 0.7060000D+00 0.7060000D+00 0.7060000D+00 0.7060000D+00
EXPONENTS  0.7060000D+00 0.7060000D+00 0.3120000D+00 0.3120000D+00 0.3120000D+00
EXPONENTS  0.3120000D+00 0.3120000D+00 0.3120000D+00 0.3120000D+00 0.3120000D+00
EXPONENTS  0.3120000D+00 0.3120000D+00
MO    1     MO 0.0        OCC NO =    2.0000000  ORB. ENERGY = -480.998371
  0.78329374D+00  0.14734709D+01  0.25506508D+01  0.41810047D+01  0.65496249D+01
  0.98446440D+01  0.14070469D+02  0.18678898D+02  0.21754113D+02  0.19980943D+02
  0.11683643D+02  0.30658464D+01  0.16760862D+00 -0.59990394D-02  0.16765422D-02
 -0.49782195D-03  0.84870024D-04  0.69242266D-05  0.10501269D-03  0.19294084D-03
  0.33363918D-03  0.54638079D-03  0.86025200D-03  0.12990648D-02  0.18962379D-02
  0.26112348D-02  0.33364590D-02  0.36371312D-02  0.29939190D-02  0.82091227D-03
 -0.16558333D-02 -0.16136819D-02 -0.35311905D-03 -0.11896256D-04 -0.40300713D-06
  0.10251982D-08 -0.66831716D-04 -0.13101693D-03 -0.22947291D-03 -0.37488407D-03
 -0.59128247D-03 -0.89221885D-03 -0.13081701D-02 -0.18061452D-02 -0.23416762D-02
 -0.26040818D-02 -0.22618053D-02 -0.65701400D-03  0.16563243D-02  0.24133812D-02
  0.41547221D-03 -0.10135743D-02 -0.48243581D-03  0.23298299D-05  0.24390053D-04
  0.52847354D-04  0.89964240D-04  0.14684587D-03  0.23148810D-03  0.34938240D-03
  0.51225154D-03  0.70815139D-03  0.91910945D-03  0.10268060D-02  0.89693828D-03
  0.26567399D-03 -0.69059976D-03 -0.10623759D-02 -0.18594822D-03  0.58656337D-03
  0.49790360D-03 -0.18576338D-03  0.15708766D-03  0.98760589D-04  0.25373099D-04
 -0.16475163D-12 -0.23638941D-12 -0.31299215D-12 -0.36141725D-12 -0.33505042D-12
 -0.21691775D-12 -0.76564000D-13 -0.89739610D-14 -0.13046478D-15 -0.19105115D-16
 -0.19643025D-18 -0.10608240D-12 -0.15220947D-12 -0.20153342D-12 -0.23271400D-12
 -0.21573659D-12 -0.13967180D-12 -0.49299016D-13 -0.57782698D-14 -0.84005348D-16
 -0.12301648D-16 -0.12648005D-18 -0.90600642D-17 -0.12999588D-16 -0.17212146D-16
 -0.19875151D-16 -0.18425180D-16 -0.11928797D-16 -0.42104274D-17 -0.49349839D-18
 -0.71745532D-20 -0.10506335D-20 -0.10802144D-22 -0.51504149D-13 -0.74346831D-13
 -0.99325589D-13 -0.11800185D-12 -0.11435283D-12 -0.79489807D-13 -0.25865221D-13
  0.11641402D-13  0.12576598D-13  0.32378067D-14 -0.31581814D-17 -0.33684722D-13
 -0.48624284D-13 -0.64960881D-13 -0.77175520D-13 -0.74788994D-13 -0.51987891D-13
 -0.16916361D-13  0.76137049D-14  0.82253415D-14  0.21175890D-14 -0.20655125D-17
  0.34608578D-17  0.49957879D-17  0.66742533D-17  0.79292177D-17  0.76840197D-17
  0.53413739D-17  0.17380318D-17 -0.78225224D-18 -0.84509341D-18 -0.21756671D-18
  0.21221624D-21  0.15691050D-13  0.22799791D-13  0.30312587D-13  0.36373006D-13
  0.35191044D-13  0.24981544D-13  0.77643266D-14 -0.44577865D-14 -0.51210071D-14
 -0.13599285D-14  0.49066643D-15  0.10406961D-13  0.15121776D-13  0.20104577D-13
  0.24124101D-13  0.23340174D-13  0.16568806D-13  0.51496265D-14 -0.29565907D-14
 -0.33964664D-14 -0.90196150D-15  0.32543052D-15 -0.25140412D-17 -0.36530134D-17
 -0.48567237D-17 -0.58277322D-17 -0.56383567D-17 -0.40025767D-17 -0.12440109D-17
  0.71423259D-18  0.82049469D-18  0.21788958D-18 -0.78615238D-19 -0.13819892D-14
 -0.91759268D-15  0.12918280D-18  0.11107254D-15  0.12954672D-15  0.23260818D-19
  0.70385322D-17  0.92073443D-17 -0.27390397D-20  0.69876610D-04  0.73118343D-04
  0.62300742D-04  0.41029749D-04  0.18909390D-04  0.56624473D-05  0.96341741D-06
  0.69876610D-04  0.73118343D-04  0.62300742D-04  0.41029749D-04  0.18909390D-04
  0.56624473D-05  0.96341741D-06 -0.13975322D-03 -0.14623669D-03 -0.12460148D-03
 -0.82059497D-04 -0.37818779D-04 -0.11324895D-04 -0.19268348D-05 -0.10863011D-16
 -0.11366971D-16 -0.96852674D-17 -0.63784808D-17 -0.29396519D-17 -0.88028352D-18
 -0.14977278D-18 -0.62487419D-17 -0.65386351D-17 -0.55712671D-17 -0.36691006D-17
 -0.16909792D-17 -0.50636646D-18 -0.86153960D-19 -0.29838420D-17 -0.31222692D-17
 -0.26603404D-17 -0.17520353D-17 -0.80746091D-18 -0.24179548D-18 -0.41139450D-19
 -0.40275316D-05 -0.40275316D-05  0.80550632D-05  0.76164053D-19  0.36046426D-19
  0.17814374D-19  0.22121469D-05  0.22121469D-05 -0.44242938D-05 -0.14779171D-19
 -0.50233522D-20 -0.25135577D-20  0.20073931D-05  0.20073931D-05 -0.40147862D-05
 -0.48232061D-22  0.51201951D-21  0.29059579D-21 -0.20253619D-16 -0.18555698D-16
  0.83654728D-20  0.55196564D-16  0.40645649D-16 -0.12517388D-19  0.55642934D-17
  0.15021445D-16 -0.12579031D-19 -0.19275355D-22  0.36654026D-16  0.29327197D-16
 -0.32003737D-20 -0.66183181D-16 -0.49965635D-16  0.47943290D-20 -0.43778899D-16
 -0.38015955D-16  0.48067919D-20  0.30176573D-23  0.40295499D-05  0.75393033D-05
  0.13026246D-04  0.21117064D-04  0.32067946D-04  0.44570674D-04  0.52988102D-04
  0.47197725D-04  0.23430364D-04  0.37750071D-05  0.57956414D-07  0.10356754D-07
  0.38701575D-09 -0.70266699D-05 -0.13124810D-04 -0.22778745D-04 -0.36960646D-04
 -0.57210690D-04 -0.81891905D-04 -0.10689452D-03 -0.11391394D-03 -0.85152986D-04
 -0.44950749D-05  0.57759481D-04  0.34315768D-04 -0.12865840D-06  0.36851959D-05
  0.68778871D-05  0.11953162D-04  0.19372560D-04  0.30088619D-04  0.43102814D-04
  0.56913250D-04  0.61540106D-04  0.48248241D-04  0.24008165D-05 -0.41360941D-04
 -0.42816241D-04  0.19374955D-04 -0.81468917D-05 -0.17900804D-04 -0.11341333D-04
  0.65763500D-04  0.86625289D-04  0.95567987D-04  0.79380199D-04  0.42160752D-04
  0.10874488D-04 -0.11178604D-07 -0.15162514D-15 -0.19972434D-15 -0.22034274D-15
 -0.18301997D-15 -0.97206353D-16 -0.25072354D-16  0.25773527D-19  0.58489022D-19
  0.77043169D-19  0.84996664D-19  0.70599499D-19  0.37497109D-19  0.96715983D-20
 -0.99420742D-23 -0.56628160D-04 -0.74348622D-04 -0.84651376D-04 -0.71679309D-04
 -0.41060668D-04 -0.93398774D-05  0.43715766D-05  0.13153413D-15  0.17269467D-15
  0.19662559D-15  0.16649447D-15  0.95374443D-16  0.21694377D-16 -0.10154162D-16
 -0.49426684D-19 -0.64893613D-19 -0.73886152D-19 -0.62563759D-19 -0.35838930D-19
 -0.81521132D-20  0.38156376D-20 -0.34755223D-05  0.83061083D-17 -0.39306252D-20
 -0.13761887D-04  0.64151364D-17 -0.43597400D-20 -0.72416127D-06 -0.26966719D-18
  0.70432284D-21 -0.23065881D-06  0.10786613D-05 -0.84800247D-06 -0.82647603D-17
  0.54918565D-21 -0.20174230D-21 -0.97350455D-06  0.16596924D-07  0.95690763D-06
  0.54562056D-17 -0.11254219D-20  0.73833544D-22 -0.21264264D-05  0.11081187D-05
  0.10183077D-05  0.29051617D-17 -0.20424641D-20 -0.29225518D-22  0.23439857D-06
 -0.24109761D-17  0.11382697D-20 -0.77828954D-07  0.16748249D-17 -0.30450891D-20
 -0.62536676D-06  0.55581034D-17 -0.36972015D-21 -0.11782444D-21 -0.28131796D-06
 -0.22921148D-18  0.65167156D-22  0.15204690D-06  0.41396514D-17 -0.64521401D-21
  0.69190697D-06 -0.34520169D-17  0.44971254D-21  0.54126244D-22  0.40295499D-05
  0.75393033D-05  0.13026246D-04  0.21117064D-04  0.32067946D-04  0.44570674D-04
  0.52988102D-04  0.47197725D-04  0.23430364D-04  0.37750071D-05  0.57956414D-07
  0.10356754D-07  0.38701575D-09 -0.70266699D-05 -0.13124810D-04 -0.22778745D-04
 -0.36960646D-04 -0.57210690D-04 -0.81891905D-04 -0.10689452D-03 -0.11391394D-03
 -0.85152986D-04 -0.44950749D-05  0.57759481D-04  0.34315768D-04 -0.12865840D-06
  0.36851959D-05  0.68778871D-05  0.11953162D-04  0.19372560D-04  0.30088619D-04
  0.43102814D-04  0.56913250D-04  0.61540106D-04  0.48248241D-04  0.24008165D-05
 -0.41360941D-04 -0.42816241D-04  0.19374955D-04 -0.81468917D-05 -0.17900804D-04
 -0.11341333D-04 -0.17864189D-15 -0.23531146D-15 -0.25960367D-15 -0.21563069D-15
 -0.11452670D-15 -0.29539776D-16  0.30365885D-19  0.65763500D-04  0.86625289D-04
  0.95567987D-04  0.79380199D-04  0.42160752D-04  0.10874488D-04 -0.11178604D-07
  0.59399411D-19  0.78242355D-19  0.86319647D-19  0.71698389D-19  0.38080756D-19
  0.98221379D-20 -0.10096824D-22  0.15834681D-15  0.20789775D-15  0.23670689D-15
  0.20043367D-15  0.11481612D-15  0.26116685D-16 -0.12224046D-16 -0.56628160D-04
 -0.74348622D-04 -0.84651376D-04 -0.71679309D-04 -0.41060668D-04 -0.93398774D-05
  0.43715766D-05 -0.50211181D-19 -0.65923599D-19 -0.75058868D-19 -0.63556767D-19
 -0.36407763D-19 -0.82815029D-20  0.38761991D-20  0.85234988D-17 -0.34755223D-05
 -0.41120977D-20  0.11378017D-16 -0.13761887D-04 -0.43861418D-20  0.38672439D-19
 -0.72416127D-06  0.69002105D-21  0.10786613D-05 -0.23065881D-06 -0.84800247D-06
 -0.10979849D-16 -0.41138063D-21 -0.19846233D-21  0.16596924D-07 -0.97350455D-06
  0.95690763D-06  0.79608297D-17  0.15652660D-21 -0.83006056D-21  0.11081187D-05
 -0.21264264D-05  0.10183077D-05  0.60580071D-17 -0.56519620D-22 -0.20506191D-20
 -0.10777869D-17  0.23439857D-06  0.12517564D-20 -0.11357382D-17 -0.77828954D-07
 -0.31193794D-21  0.43690989D-17 -0.62536676D-06 -0.34433313D-20 -0.26623959D-21
 -0.11460631D-17 -0.28131796D-06 -0.62648964D-23  0.71734096D-17  0.15204690D-06
  0.38966375D-21 -0.37352204D-17  0.69190697D-06 -0.37086906D-21  0.12273877D-21
  0.40295499D-05  0.75393033D-05  0.13026246D-04  0.21117064D-04  0.32067946D-04
  0.44570674D-04  0.52988102D-04  0.47197725D-04  0.23430364D-04  0.37750071D-05
  0.57956414D-07  0.10356754D-07  0.38701575D-09 -0.70266699D-05 -0.13124810D-04
 -0.22778745D-04 -0.36960646D-04 -0.57210690D-04 -0.81891905D-04 -0.10689452D-03
 -0.11391394D-03 -0.85152986D-04 -0.44950749D-05  0.57759481D-04  0.34315768D-04
 -0.12865840D-06  0.36851959D-05  0.68778871D-05  0.11953162D-04  0.19372560D-04
  0.30088619D-04  0.43102814D-04  0.56913250D-04  0.61540106D-04  0.48248241D-04
  0.24008165D-05 -0.41360941D-04 -0.42816241D-04  0.19374955D-04 -0.81468917D-05
 -0.17900804D-04 -0.11341333D-04 -0.65763500D-04 -0.86625289D-04 -0.95567987D-04
 -0.79380199D-04 -0.42160752D-04 -0.10874488D-04  0.11178604D-07 -0.14657491D-15
 -0.19307205D-15 -0.21300370D-15 -0.17692406D-15 -0.93968665D-16 -0.24237260D-16
  0.24915079D-19  0.68093255D-19  0.89694099D-19  0.98953604D-19  0.82192342D-19
  0.43654350D-19  0.11259730D-19 -0.11574620D-22  0.56628160D-04  0.74348622D-04
  0.84651376D-04  0.71679309D-04  0.41060668D-04  0.93398774D-05 -0.43715766D-05
  0.12911397D-15  0.16951718D-15  0.19300778D-15  0.16343106D-15  0.93619605D-16
  0.21295212D-16 -0.99673312D-17 -0.56680303D-19 -0.74417083D-19 -0.84729324D-19
 -0.71745312D-19 -0.41098477D-19 -0.93484776D-20  0.43756020D-20  0.34755223D-05
  0.78916651D-17 -0.52360251D-20  0.13761887D-04  0.63559858D-17 -0.46195168D-20
  0.72416127D-06 -0.28623799D-18  0.64507246D-21 -0.23065881D-06  0.10786613D-05
 -0.84800247D-06  0.84376476D-17  0.26701067D-20 -0.18659235D-21 -0.97350455D-06
  0.16596925D-07  0.95690763D-06 -0.55581881D-17 -0.18903867D-21  0.71527105D-22