 Molden2AIM, Version 4.0.0 (06/02/2016)           Time: Fri Jun 29 04:27:56 2018
GAUSSIAN             36 MOL ORBITALS    563 PRIMITIVES        5 NUCLEI
  Br   1    (CENTRE  1)   0.00000000  0.00000000  0.00000000  CHARGE = 35.0
  F    2    (CENTRE  2)  -3.61539001  0.00000000  0.00000000  CHARGE =  9.0
  F    3    (CENTRE  3)   0.00000000 -3.61539001  0.00000000  CHARGE =  9.0
  F    4    (CENTRE  4)   3.61539001  0.00000000  0.00000000  CHARGE =  9.0
  F    5    (CENTRE  5)   0.00000000  3.61539001  0.00000000  CHARGE =  9.0
CENTRE ASSIGNMENTS    1  1  1  1  1  1  1  1  1  1  1  1  1  1  1  1  1  1  1  1
CENTRE ASSIGNMENTS    1  1  1  1  1  1  1  1  1  1  1  1  1  1  1  1  1  1  1  1
CENTRE ASSIGNMENTS    1  1  1  1  1  1  1  1  1  1  1  1  1  1  1  1  1  1  1  1
CENTRE ASSIGNMENTS    1  1  1  1  1  1  1  1  1  1  1  1  1  1  1  1  1  1  1  1
CENTRE ASSIGNMENTS    1  1  1  1  1  1  1  1  1  1  1  1  1  1  1  1  1  1  1  1
CENTRE ASSIGNMENTS    1  1  1  1  1  1  1  1  1  1  1  1  1  1  1  1  1  1  1  1
CENTRE ASSIGNMENTS    1  1  1  1  1  1  1  1  1  1  1  1  1  1  1  1  1  1  1  1
CENTRE ASSIGNMENTS    1  1  1  1  1  1  1  1  1  1  1  1  1  1  1  1  1  1  1  1
CENTRE ASSIGNMENTS    1  1  1  1  1  1  1  1  1  1  1  1  1  1  1  1  1  1  1  1
CENTRE ASSIGNMENTS    1  1  1  1  1  1  1  1  1  1  1  1  1  1  1  1  1  1  1  1
CENTRE ASSIGNMENTS    1  1  1  1  1  1  1  1  1  1  1  1  1  1  1  1  1  1  1  1
CENTRE ASSIGNMENTS    1  1  1  1  1  1  1  1  1  1  1  1  1  1  1  1  1  1  1  1
CENTRE ASSIGNMENTS    1  1  1  1  1  1  1  1  1  1  1  1  1  1  1  1  1  1  1  1
CENTRE ASSIGNMENTS    1  1  1  2  2  2  2  2  2  2  2  2  2  2  2  2  2  2  2  2
CENTRE ASSIGNMENTS    2  2  2  2  2  2  2  2  2  2  2  2  2  2  2  2  2  2  2  2
CENTRE ASSIGNMENTS    2  2  2  2  2  2  2  2  2  2  2  2  2  2  2  2  2  2  2  2
CENTRE ASSIGNMENTS    2  2  2  2  2  2  2  2  2  2  2  2  2  2  2  2  2  2  3  3
CENTRE ASSIGNMENTS    3  3  3  3  3  3  3  3  3  3  3  3  3  3  3  3  3  3  3  3
CENTRE ASSIGNMENTS    3  3  3  3  3  3  3  3  3  3  3  3  3  3  3  3  3  3  3  3
CENTRE ASSIGNMENTS    3  3  3  3  3  3  3  3  3  3  3  3  3  3  3  3  3  3  3  3
CENTRE ASSIGNMENTS    3  3  3  3  3  3  3  3  3  3  3  3  3  4  4  4  4  4  4  4
CENTRE ASSIGNMENTS    4  4  4  4  4  4  4  4  4  4  4  4  4  4  4  4  4  4  4  4
CENTRE ASSIGNMENTS    4  4  4  4  4  4  4  4  4  4  4  4  4  4  4  4  4  4  4  4
CENTRE ASSIGNMENTS    4  4  4  4  4  4  4  4  4  4  4  4  4  4  4  4  4  4  4  4
CENTRE ASSIGNMENTS    4  4  4  4  4  4  4  4  5  5  5  5  5  5  5  5  5  5  5  5
CENTRE ASSIGNMENTS    5  5  5  5  5  5  5  5  5  5  5  5  5  5  5  5  5  5  5  5
CENTRE ASSIGNMENTS    5  5  5  5  5  5  5  5  5  5  5  5  5  5  5  5  5  5  5  5
CENTRE ASSIGNMENTS    5  5  5  5  5  5  5  5  5  5  5  5  5  5  5  5  5  5  5  5
CENTRE ASSIGNMENTS    5  5  5
TYPE ASSIGNMENTS      1  1  1  1  1  1  1  1  1  1  1  1  1  1  1  1  1  1  1  1
TYPE ASSIGNMENTS      1  1  1  1  1  1  1  1  1  1  1  1  1  1  1  1  1  1  1  1
TYPE ASSIGNMENTS      1  1  1  1  1  1  1  1  1  1  1  1  1  1  1  1  1  1  1  1
TYPE ASSIGNMENTS      1  1  1  1  1  1  1  1  1  1  1  1  1  1  1  2  2  2  2  2
TYPE ASSIGNMENTS      2  2  2  2  2  2  3  3  3  3  3  3  3  3  3  3  3  4  4  4
TYPE ASSIGNMENTS      4  4  4  4  4  4  4  4  2  2  2  2  2  2  2  2  2  2  2  3
TYPE ASSIGNMENTS      3  3  3  3  3  3  3  3  3  3  4  4  4  4  4  4  4  4  4  4
TYPE ASSIGNMENTS      4  2  2  2  2  2  2  2  2  2  2  2  3  3  3  3  3  3  3  3
TYPE ASSIGNMENTS      3  3  3  4  4  4  4  4  4  4  4  4  4  4  2  3  4  2  3  4
TYPE ASSIGNMENTS      2  3  4  5  5  5  5  5  5  5  6  6  6  6  6  6  6  7  7  7
TYPE ASSIGNMENTS      7  7  7  7  8  8  8  8  8  8  8  9  9  9  9  9  9  9 10 10
TYPE ASSIGNMENTS     10 10 10 10 10  5  6  7  8  9 10  5  6  7  8  9 10  5  6  7
TYPE ASSIGNMENTS      8  9 10 11 12 13 17 14 15 18 19 16 20 11 12 13 17 14 15 18
TYPE ASSIGNMENTS     19 16 20  1  1  1  1  1  1  1  1  1  1  1  1  1  1  1  1  1
TYPE ASSIGNMENTS      1  1  2  2  2  3  3  3  4  4  4  2  3  4  2  3  4  2  3  4
TYPE ASSIGNMENTS      5  6  7  8  9 10  5  6  7  8  9 10  5  6  7  8  9 10 11 12
TYPE ASSIGNMENTS     13 17 14 15 18 19 16 20 11 12 13 17 14 15 18 19 16 20  1  1
TYPE ASSIGNMENTS      1  1  1  1  1  1  1  1  1  1  1  1  1  1  1  1  1  2  2  2
TYPE ASSIGNMENTS      3  3  3  4  4  4  2  3  4  2  3  4  2  3  4  5  6  7  8  9
TYPE ASSIGNMENTS     10  5  6  7  8  9 10  5  6  7  8  9 10 11 12 13 17 14 15 18
TYPE ASSIGNMENTS     19 16 20 11 12 13 17 14 15 18 19 16 20  1  1  1  1  1  1  1
TYPE ASSIGNMENTS      1  1  1  1  1  1  1  1  1  1  1  1  2  2  2  3  3  3  4  4
TYPE ASSIGNMENTS      4  2  3  4  2  3  4  2  3  4  5  6  7  8  9 10  5  6  7  8
TYPE ASSIGNMENTS      9 10  5  6  7  8  9 10 11 12 13 17 14 15 18 19 16 20 11 12
TYPE ASSIGNMENTS     13 17 14 15 18 19 16 20  1  1  1  1  1  1  1  1  1  1  1  1
TYPE ASSIGNMENTS      1  1  1  1  1  1  1  2  2  2  3  3  3  4  4  4  2  3  4  2
TYPE ASSIGNMENTS      3  4  2  3  4  5  6  7  8  9 10  5  6  7  8  9 10  5  6  7
TYPE ASSIGNMENTS      8  9 10 11 12 13 17 14 15 18 19 16 20 11 12 13 17 14 15 18
TYPE ASSIGNMENTS     19 16 20
EXPONENTS  0.1063900D+08 0.1593400D+07 0.3626100D+06 0.1027000D+06 0.3350100D+05
EXPONENTS  0.1209300D+05 0.4715900D+04 0.1955600D+04 0.8526100D+03 0.3876700D+03
EXPONENTS  0.1826800D+03 0.8824500D+02 0.3926300D+02 0.1923400D+02 0.9405700D+01
EXPONENTS  0.4160100D+01 0.1899500D+01 0.3011400D+00 0.1063900D+08 0.1593400D+07
EXPONENTS  0.3626100D+06 0.1027000D+06 0.3350100D+05 0.1209300D+05 0.4715900D+04
EXPONENTS  0.1955600D+04 0.8526100D+03 0.3876700D+03 0.1826800D+03 0.8824500D+02
EXPONENTS  0.3926300D+02 0.1923400D+02 0.9405700D+01 0.4160100D+01 0.1899500D+01
EXPONENTS  0.3011400D+00 0.1063900D+08 0.1593400D+07 0.3626100D+06 0.1027000D+06
EXPONENTS  0.3350100D+05 0.1209300D+05 0.4715900D+04 0.1955600D+04 0.8526100D+03
EXPONENTS  0.3876700D+03 0.1826800D+03 0.8824500D+02 0.3926300D+02 0.1923400D+02
EXPONENTS  0.9405700D+01 0.4160100D+01 0.1899500D+01 0.3011400D+00 0.1063900D+08
EXPONENTS  0.1593400D+07 0.3626100D+06 0.1027000D+06 0.3350100D+05 0.1209300D+05
EXPONENTS  0.4715900D+04 0.1955600D+04 0.8526100D+03 0.3876700D+03 0.1826800D+03
EXPONENTS  0.8824500D+02 0.3926300D+02 0.1923400D+02 0.9405700D+01 0.4160100D+01
EXPONENTS  0.1899500D+01 0.3011400D+00 0.6047200D+00 0.1251500D+00 0.4559300D-01
EXPONENTS  0.8676500D+04 0.2055900D+04 0.6662300D+03 0.2531000D+03 0.1061200D+03
EXPONENTS  0.4724200D+02 0.2182500D+02 0.9968400D+01 0.4517100D+01 0.1998200D+01
EXPONENTS  0.2814500D+00 0.8676500D+04 0.2055900D+04 0.6662300D+03 0.2531000D+03
EXPONENTS  0.1061200D+03 0.4724200D+02 0.2182500D+02 0.9968400D+01 0.4517100D+01
EXPONENTS  0.1998200D+01 0.2814500D+00 0.8676500D+04 0.2055900D+04 0.6662300D+03
EXPONENTS  0.2531000D+03 0.1061200D+03 0.4724200D+02 0.2182500D+02 0.9968400D+01
EXPONENTS  0.4517100D+01 0.1998200D+01 0.2814500D+00 0.8676500D+04 0.2055900D+04
EXPONENTS  0.6662300D+03 0.2531000D+03 0.1061200D+03 0.4724200D+02 0.2182500D+02
EXPONENTS  0.9968400D+01 0.4517100D+01 0.1998200D+01 0.2814500D+00 0.8676500D+04
EXPONENTS  0.2055900D+04 0.6662300D+03 0.2531000D+03 0.1061200D+03 0.4724200D+02
EXPONENTS  0.2182500D+02 0.9968400D+01 0.4517100D+01 0.1998200D+01 0.2814500D+00
EXPONENTS  0.8676500D+04 0.2055900D+04 0.6662300D+03 0.2531000D+03 0.1061200D+03
EXPONENTS  0.4724200D+02 0.2182500D+02 0.9968400D+01 0.4517100D+01 0.1998200D+01
EXPONENTS  0.2814500D+00 0.8676500D+04 0.2055900D+04 0.6662300D+03 0.2531000D+03
EXPONENTS  0.1061200D+03 0.4724200D+02 0.2182500D+02 0.9968400D+01 0.4517100D+01
EXPONENTS  0.1998200D+01 0.2814500D+00 0.8676500D+04 0.2055900D+04 0.6662300D+03
EXPONENTS  0.2531000D+03 0.1061200D+03 0.4724200D+02 0.2182500D+02 0.9968400D+01
EXPONENTS  0.4517100D+01 0.1998200D+01 0.2814500D+00 0.8676500D+04 0.2055900D+04
EXPONENTS  0.6662300D+03 0.2531000D+03 0.1061200D+03 0.4724200D+02 0.2182500D+02
EXPONENTS  0.9968400D+01 0.4517100D+01 0.1998200D+01 0.2814500D+00 0.7098800D+00
EXPONENTS  0.7098800D+00 0.7098800D+00 0.1020400D+00 0.1020400D+00 0.1020400D+00
EXPONENTS  0.3514200D-01 0.3514200D-01 0.3514200D-01 0.4038300D+03 0.1211700D+03
EXPONENTS  0.4634500D+02 0.1972100D+02 0.8862400D+01 0.3996200D+01 0.1763600D+01
EXPONENTS  0.4038300D+03 0.1211700D+03 0.4634500D+02 0.1972100D+02 0.8862400D+01
EXPONENTS  0.3996200D+01 0.1763600D+01 0.4038300D+03 0.1211700D+03 0.4634500D+02
EXPONENTS  0.1972100D+02 0.8862400D+01 0.3996200D+01 0.1763600D+01 0.4038300D+03
EXPONENTS  0.1211700D+03 0.4634500D+02 0.1972100D+02 0.8862400D+01 0.3996200D+01
EXPONENTS  0.1763600D+01 0.4038300D+03 0.1211700D+03 0.4634500D+02 0.1972100D+02
EXPONENTS  0.8862400D+01 0.3996200D+01 0.1763600D+01 0.4038300D+03 0.1211700D+03
EXPONENTS  0.4634500D+02 0.1972100D+02 0.8862400D+01 0.3996200D+01 0.1763600D+01
EXPONENTS  0.7061900D+00 0.7061900D+00 0.7061900D+00 0.7061900D+00 0.7061900D+00
EXPONENTS  0.7061900D+00 0.2639000D+00 0.2639000D+00 0.2639000D+00 0.2639000D+00
EXPONENTS  0.2639000D+00 0.2639000D+00 0.1047000D+00 0.1047000D+00 0.1047000D+00
EXPONENTS  0.1047000D+00 0.1047000D+00 0.1047000D+00 0.5515000D+00 0.5515000D+00
EXPONENTS  0.5515000D+00 0.5515000D+00 0.5515000D+00 0.5515000D+00 0.5515000D+00
EXPONENTS  0.5515000D+00 0.5515000D+00 0.5515000D+00 0.2580000D+00 0.2580000D+00
EXPONENTS  0.2580000D+00 0.2580000D+00 0.2580000D+00 0.2580000D+00 0.2580000D+00
EXPONENTS  0.2580000D+00 0.2580000D+00 0.2580000D+00 0.1950000D+05 0.2923000D+04
EXPONENTS  0.6645000D+03 0.1875000D+03 0.6062000D+02 0.2142000D+02 0.7950000D+01
EXPONENTS  0.8815000D+00 0.1950000D+05 0.2923000D+04 0.6645000D+03 0.1875000D+03
EXPONENTS  0.6062000D+02 0.2142000D+02 0.7950000D+01 0.8815000D+00 0.2257000D+01
EXPONENTS  0.3041000D+00 0.9158000D-01 0.4388000D+02 0.9926000D+01 0.2930000D+01
EXPONENTS  0.4388000D+02 0.9926000D+01 0.2930000D+01 0.4388000D+02 0.9926000D+01
EXPONENTS  0.2930000D+01 0.9132000D+00 0.9132000D+00 0.9132000D+00 0.2672000D+00
EXPONENTS  0.2672000D+00 0.2672000D+00 0.7361000D-01 0.7361000D-01 0.7361000D-01
EXPONENTS  0.3107000D+01 0.3107000D+01 0.3107000D+01 0.3107000D+01 0.3107000D+01
EXPONENTS  0.3107000D+01 0.8550000D+00 0.8550000D+00 0.8550000D+00 0.8550000D+00
EXPONENTS  0.8550000D+00 0.8550000D+00 0.2920000D+00 0.2920000D+00 0.2920000D+00
EXPONENTS  0.2920000D+00 0.2920000D+00 0.2920000D+00 0.1917000D+01 0.1917000D+01
EXPONENTS  0.1917000D+01 0.1917000D+01 0.1917000D+01 0.1917000D+01 0.1917000D+01
EXPONENTS  0.1917000D+01 0.1917000D+01 0.1917000D+01 0.7240000D+00 0.7240000D+00
EXPONENTS  0.7240000D+00 0.7240000D+00 0.7240000D+00 0.7240000D+00 0.7240000D+00
EXPONENTS  0.7240000D+00 0.7240000D+00 0.7240000D+00 0.1950000D+05 0.2923000D+04
EXPONENTS  0.6645000D+03 0.1875000D+03 0.6062000D+02 0.2142000D+02 0.7950000D+01
EXPONENTS  0.8815000D+00 0.1950000D+05 0.2923000D+04 0.6645000D+03 0.1875000D+03
EXPONENTS  0.6062000D+02 0.2142000D+02 0.7950000D+01 0.8815000D+00 0.2257000D+01
EXPONENTS  0.3041000D+00 0.9158000D-01 0.4388000D+02 0.9926000D+01 0.2930000D+01
EXPONENTS  0.4388000D+02 0.9926000D+01 0.2930000D+01 0.4388000D+02 0.9926000D+01
EXPONENTS  0.2930000D+01 0.9132000D+00 0.9132000D+00 0.9132000D+00 0.2672000D+00
EXPONENTS  0.2672000D+00 0.2672000D+00 0.7361000D-01 0.7361000D-01 0.7361000D-01
EXPONENTS  0.3107000D+01 0.3107000D+01 0.3107000D+01 0.3107000D+01 0.3107000D+01
EXPONENTS  0.3107000D+01 0.8550000D+00 0.8550000D+00 0.8550000D+00 0.8550000D+00
EXPONENTS  0.8550000D+00 0.8550000D+00 0.2920000D+00 0.2920000D+00 0.2920000D+00
EXPONENTS  0.2920000D+00 0.2920000D+00 0.2920000D+00 0.1917000D+01 0.1917000D+01
EXPONENTS  0.1917000D+01 0.1917000D+01 0.1917000D+01 0.1917000D+01 0.1917000D+01
EXPONENTS  0.1917000D+01 0.1917000D+01 0.1917000D+01 0.7240000D+00 0.7240000D+00
EXPONENTS  0.7240000D+00 0.7240000D+00 0.7240000D+00 0.7240000D+00 0.7240000D+00
EXPONENTS  0.7240000D+00 0.7240000D+00 0.7240000D+00 0.1950000D+05 0.2923000D+04
EXPONENTS  0.6645000D+03 0.1875000D+03 0.6062000D+02 0.2142000D+02 0.7950000D+01
EXPONENTS  0.8815000D+00 0.1950000D+05 0.2923000D+04 0.6645000D+03 0.1875000D+03
EXPONENTS  0.6062000D+02 0.2142000D+02 0.7950000D+01 0.8815000D+00 0.2257000D+01
EXPONENTS  0.3041000D+00 0.9158000D-01 0.4388000D+02 0.9926000D+01 0.2930000D+01
EXPONENTS  0.4388000D+02 0.9926000D+01 0.2930000D+01 0.4388000D+02 0.9926000D+01
EXPONENTS  0.2930000D+01 0.9132000D+00 0.9132000D+00 0.9132000D+00 0.2672000D+00
EXPONENTS  0.2672000D+00 0.2672000D+00 0.7361000D-01 0.7361000D-01 0.7361000D-01
EXPONENTS  0.3107000D+01 0.3107000D+01 0.3107000D+01 0.3107000D+01 0.3107000D+01
EXPONENTS  0.3107000D+01 0.8550000D+00 0.8550000D+00 0.8550000D+00 0.8550000D+00
EXPONENTS  0.8550000D+00 0.8550000D+00 0.2920000D+00 0.2920000D+00 0.2920000D+00
EXPONENTS  0.2920000D+00 0.2920000D+00 0.2920000D+00 0.1917000D+01 0.1917000D+01
EXPONENTS  0.1917000D+01 0.1917000D+01 0.1917000D+01 0.1917000D+01 0.1917000D+01
EXPONENTS  0.1917000D+01 0.1917000D+01 0.1917000D+01 0.7240000D+00 0.7240000D+00
EXPONENTS  0.7240000D+00 0.7240000D+00 0.7240000D+00 0.7240000D+00 0.7240000D+00
EXPONENTS  0.7240000D+00 0.7240000D+00 0.7240000D+00 0.1950000D+05 0.2923000D+04
EXPONENTS  0.6645000D+03 0.1875000D+03 0.6062000D+02 0.2142000D+02 0.7950000D+01
EXPONENTS  0.8815000D+00 0.1950000D+05 0.2923000D+04 0.6645000D+03 0.1875000D+03
EXPONENTS  0.6062000D+02 0.2142000D+02 0.7950000D+01 0.8815000D+00 0.2257000D+01
EXPONENTS  0.3041000D+00 0.9158000D-01 0.4388000D+02 0.9926000D+01 0.2930000D+01
EXPONENTS  0.4388000D+02 0.9926000D+01 0.2930000D+01 0.4388000D+02 0.9926000D+01
EXPONENTS  0.2930000D+01 0.9132000D+00 0.9132000D+00 0.9132000D+00 0.2672000D+00
EXPONENTS  0.2672000D+00 0.2672000D+00 0.7361000D-01 0.7361000D-01 0.7361000D-01
EXPONENTS  0.3107000D+01 0.3107000D+01 0.3107000D+01 0.3107000D+01 0.3107000D+01
EXPONENTS  0.3107000D+01 0.8550000D+00 0.8550000D+00 0.8550000D+00 0.8550000D+00
EXPONENTS  0.8550000D+00 0.8550000D+00 0.2920000D+00 0.2920000D+00 0.2920000D+00
EXPONENTS  0.2920000D+00 0.2920000D+00 0.2920000D+00 0.1917000D+01 0.1917000D+01
EXPONENTS  0.1917000D+01 0.1917000D+01 0.1917000D+01 0.1917000D+01 0.1917000D+01
EXPONENTS  0.1917000D+01 0.1917000D+01 0.1917000D+01 0.7240000D+00 0.7240000D+00
EXPONENTS  0.7240000D+00 0.7240000D+00 0.7240000D+00 0.7240000D+00 0.7240000D+00
EXPONENTS  0.7240000D+00 0.7240000D+00 0.7240000D+00
MO    1     MO 0.0        OCC NO =    2.0000000  ORB. ENERGY = -480.979509
  0.78329492D+00  0.14734731D+01  0.25506547D+01  0.41810110D+01  0.65496347D+01
  0.98446588D+01  0.14070490D+02  0.18678926D+02  0.21754146D+02  0.19980973D+02
  0.11683661D+02  0.30658510D+01  0.16760888D+00 -0.59990485D-02  0.16765447D-02
 -0.49782270D-03  0.84870152D-04  0.69242370D-05  0.10265868D-03  0.18861580D-03
  0.32616019D-03  0.53413289D-03  0.84096824D-03  0.12699444D-02  0.18537311D-02
  0.25527003D-02  0.32616675D-02  0.35555998D-02  0.29268061D-02  0.80251036D-03
 -0.16187154D-02 -0.15775089D-02 -0.34520339D-03 -0.11629584D-04 -0.39397316D-06
  0.10022169D-08 -0.63012371D-04 -0.12352949D-03 -0.21635883D-03 -0.35345993D-03
 -0.55749145D-03 -0.84122970D-03 -0.12334099D-02 -0.17029264D-02 -0.22078525D-02
 -0.24552619D-02 -0.21325461D-02 -0.61946650D-03  0.15616675D-02  0.22754596D-02
  0.39172851D-03 -0.95564985D-03 -0.45486523D-03  0.21966831D-05  0.22310166D-04
  0.48340743D-04  0.82292449D-04  0.13432344D-03  0.21174772D-03  0.31958847D-03
  0.46856878D-03  0.64776307D-03  0.84073147D-03  0.93924408D-03  0.82045096D-03
  0.24301837D-03 -0.63170817D-03 -0.97178070D-03 -0.17009130D-03  0.53654359D-03
  0.45544437D-03 -0.16992222D-03  0.18266396D-03  0.36048710D-04  0.58597356D-05
 -0.13620306D-13 -0.19542728D-13 -0.25875610D-13 -0.29878999D-13 -0.27699206D-13
 -0.17932971D-13 -0.63296802D-14 -0.74189310D-15 -0.10785753D-16 -0.15794534D-17
 -0.16239234D-19 -0.14651089D-13 -0.21021719D-13 -0.27833874D-13 -0.32140238D-13
 -0.29795480D-13 -0.19290137D-13 -0.68087098D-14 -0.79803950D-15 -0.11602017D-16
 -0.16989863D-17 -0.17468218D-19 -0.75883743D-17 -0.10887974D-16 -0.14416256D-16
 -0.16646691D-16 -0.15432248D-16 -0.99911189D-17 -0.35264981D-17 -0.41333598D-18
 -0.60091401D-20 -0.87997168D-21 -0.90474755D-23 -0.97336231D-14 -0.14050597D-13
 -0.18771261D-13 -0.22300835D-13 -0.21611218D-13 -0.15022553D-13 -0.48881947D-14
  0.22000755D-14  0.23768156D-14  0.61190390D-15 -0.59685575D-18 -0.99093129D-14
 -0.14304207D-13 -0.19110079D-13 -0.22703360D-13 -0.22001296D-13 -0.15293707D-13
 -0.49764256D-14  0.22397864D-14  0.24197166D-14  0.62294863D-15 -0.60762887D-18
 -0.48103368D-17 -0.69437764D-17 -0.92767193D-17 -0.11021027D-16 -0.10680220D-16
 -0.74241153D-17 -0.24157359D-17  0.10872729D-17  0.11746174D-17  0.30240167D-18
 -0.29496490D-21  0.50166059D-14  0.72893508D-14  0.96912765D-14  0.11628861D-13
  0.11250974D-13  0.79868818D-14  0.24823429D-14 -0.14252047D-14 -0.16372438D-14
 -0.43478449D-15  0.15687160D-15  0.49883469D-14  0.72482893D-14  0.96366847D-14
  0.11563355D-13  0.11187597D-13  0.79418910D-14  0.24683597D-14 -0.14171764D-14
 -0.16280211D-14 -0.43233532D-15  0.15598793D-15  0.30640680D-17  0.44522267D-17
  0.59192870D-17  0.71027347D-17  0.68719272D-17  0.48782682D-17  0.15161780D-17
 -0.87049377D-18 -0.10000041D-17 -0.26555988D-18  0.95814832D-19 -0.24092512D-15
 -0.25834206D-15 -0.16706660D-18  0.39933221D-16  0.88979896D-16 -0.80325258D-20
  0.72944348D-18 -0.18834395D-18  0.68645160D-21  0.93215542D-04  0.97540020D-04
  0.83109318D-04  0.54733769D-04  0.25225165D-04  0.75537164D-05  0.12852008D-05
  0.93215542D-04  0.97540020D-04  0.83109318D-04  0.54733769D-04  0.25225165D-04
  0.75537164D-05  0.12852008D-05 -0.18643108D-03 -0.19508004D-03 -0.16621864D-03
 -0.10946754D-03 -0.50450329D-04 -0.15107433D-04 -0.25704016D-05  0.36662341D-17
  0.38363189D-17  0.32687491D-17  0.21527184D-17  0.99212381D-18  0.29709308D-18
  0.50547869D-19  0.42464841D-17  0.44434881D-17  0.37860897D-17  0.24934263D-17
  0.11491459D-17  0.34411361D-18  0.58548013D-19 -0.75770166D-18 -0.79285315D-18
 -0.67555332D-18 -0.44490293D-18 -0.20504252D-18 -0.61400313D-19 -0.10446743D-19
 -0.21007048D-05 -0.21007048D-05  0.42014096D-05 -0.29677023D-19 -0.24845292D-19
  0.41914942D-20 -0.36112578D-05 -0.36112578D-05  0.72225156D-05  0.86661306D-20
  0.36466092D-20 -0.55873526D-21  0.10580682D-05  0.10580682D-05 -0.21161363D-05
  0.19708854D-20 -0.33804421D-21  0.46828025D-22  0.81725961D-17  0.12920566D-17
  0.51325913D-21 -0.60268970D-17 -0.65334173D-18 -0.76917060D-21 -0.18490891D-16
 -0.32228280D-17 -0.77060680D-21  0.23930524D-22  0.14163423D-16  0.20648480D-16
 -0.61468066D-20 -0.25289659D-16 -0.32611206D-16  0.92380197D-20 -0.17200611D-16
 -0.29334235D-16  0.92024001D-20  0.68802400D-24 -0.46836968D-05 -0.87306138D-05
 -0.14800537D-04 -0.22412375D-04 -0.28026753D-04 -0.24128424D-04 -0.92758470D-05
  0.40193763D-07  0.30620862D-05  0.57500555D-05  0.97913529D-05  0.15338096D-04
  0.20554854D-04  0.22109516D-04  0.13274525D-04 -0.87298859D-05  0.32687166D-05
  0.29418993D-05 -0.54802579D-05  0.39888257D-06  0.39009844D-06  0.25775453D-06
 -0.16626688D-16 -0.16260538D-16 -0.10744025D-16 -0.24759155D-19 -0.24213913D-19
 -0.15999156D-19 -0.54948183D-05  0.11230305D-16  0.19305166D-19  0.62556017D-05
 -0.23177543D-17 -0.13346189D-19 -0.43517905D-06  0.16745075D-17  0.23591174D-21
 -0.78141337D-05  0.27252140D-05  0.50889196D-05 -0.57669671D-17 -0.41393862D-19
 -0.79294929D-22 -0.26011209D-06  0.71223314D-06 -0.45212106D-06  0.44536437D-17
  0.23042025D-19  0.18831759D-22  0.53941754D-05 -0.30716959D-05 -0.23224795D-05
  0.43384448D-17 -0.18220334D-19  0.80182627D-23 -0.29618776D-04  0.48640202D-17
 -0.58023586D-19  0.43298667D-04 -0.13524530D-16  0.21789906D-18  0.45557661D-04
 -0.10675305D-17 -0.43828303D-19 -0.64774158D-21  0.97364031D-05 -0.22034331D-17
  0.15178508D-19 -0.14336619D-04  0.63991285D-17 -0.56918811D-19 -0.14872590D-04
  0.21117094D-18  0.11383288D-19  0.18357371D-21 -0.46836968D-05 -0.87306138D-05
 -0.14800537D-04 -0.22412375D-04 -0.28026753D-04 -0.24128424D-04 -0.92758470D-05
  0.40193763D-07  0.30620862D-05  0.57500555D-05  0.97913529D-05  0.15338096D-04
  0.20554854D-04  0.22109516D-04  0.13274525D-04 -0.87298859D-05  0.32687166D-05
  0.29418993D-05 -0.54802579D-05  0.16218716D-18  0.15861550D-18  0.10480397D-18
  0.39888257D-06  0.39009844D-06  0.25775453D-06 -0.24698822D-19 -0.24154909D-19
 -0.15960169D-19 -0.53942226D-18 -0.54948183D-05  0.19403640D-19  0.48606146D-17
  0.62556017D-05 -0.13683247D-19  0.10880235D-18 -0.43517905D-06  0.35361330D-21
  0.27252140D-05 -0.78141337D-05  0.50889196D-05 -0.50518453D-18  0.66683075D-21
 -0.40181742D-19  0.71223314D-06 -0.26011209D-06 -0.45212106D-06  0.11665431D-17
 -0.17402611D-21  0.22504330D-19 -0.30716959D-05  0.53941754D-05 -0.23224795D-05
  0.54857498D-17 -0.32724121D-22 -0.18625325D-19  0.45470009D-17 -0.29618776D-04
 -0.57578624D-19 -0.93589980D-17  0.43298667D-04 -0.43461534D-19 -0.42820048D-17
  0.45557661D-04  0.21619741D-18  0.41219846D-20 -0.17131395D-17  0.97364031D-05
  0.15234184D-19  0.43854701D-17 -0.14336619D-04  0.11456788D-19  0.75394834D-18
 -0.14872590D-04 -0.57159341D-19 -0.11733174D-20 -0.46836968D-05 -0.87306138D-05
 -0.14800537D-04 -0.22412375D-04 -0.28026753D-04 -0.24128424D-04 -0.92758470D-05
  0.40193763D-07  0.30620862D-05  0.57500555D-05  0.97913529D-05  0.15338096D-04
  0.20554854D-04  0.22109516D-04  0.13274525D-04 -0.87298859D-05  0.32687166D-05
  0.29418993D-05 -0.54802579D-05 -0.39888257D-06 -0.39009844D-06 -0.25775453D-06
 -0.16737086D-16 -0.16368504D-16 -0.10815363D-16 -0.24838024D-19 -0.24291045D-19
 -0.16050120D-19  0.54948183D-05  0.11284032D-16  0.19614153D-19 -0.62556017D-05
 -0.23425705D-17 -0.14010629D-19  0.43517905D-06  0.16871355D-17  0.44752561D-21
 -0.78141337D-05  0.27252140D-05  0.50889196D-05  0.56373160D-17  0.40016056D-19
 -0.32457664D-22 -0.26011209D-06  0.71223314D-06 -0.45212106D-06 -0.44011851D-17
 -0.22326164D-19  0.11530666D-22  0.53941754D-05 -0.30716959D-05 -0.23224795D-05
 -0.43508377D-17  0.19021413D-19  0.79866920D-23  0.29618776D-04  0.51420711D-17
 -0.57441460D-19 -0.43298667D-04 -0.13967050D-16  0.21577890D-18 -0.45557661D-04
 -0.14591632D-17 -0.43454518D-19  0.60562272D-21 -0.97364031D-05 -0.22212878D-17
  0.15332815D-19  0.14336619D-04  0.64261289D-17 -0.57579489D-19  0.14872590D-04
  0.23773451D-18  0.11581043D-19 -0.17532027D-21 -0.46836968D-05 -0.87306138D-05
 -0.14800537D-04 -0.22412375D-04 -0.28026753D-04 -0.24128424D-04 -0.92758470D-05
  0.40193763D-07  0.30620862D-05  0.57500555D-05  0.97913529D-05  0.15338096D-04
  0.20554854D-04  0.22109516D-04  0.13274525D-04 -0.87298859D-05  0.32687166D-05
  0.29418993D-05 -0.54802579D-05  0.23760964D-18  0.23237704D-18  0.15354133D-18
 -0.39888257D-06 -0.39009844D-06 -0.25775453D-06 -0.24799342D-19 -0.24253214D-19
 -0.16025124D-19 -0.56749450D-18  0.54948183D-05  0.19435366D-19  0.48672974D-17
 -0.62556017D-05 -0.13608223D-19  0.94730624D-19  0.43517905D-06  0.33115674D-21
  0.27252140D-05 -0.78141337D-05  0.50889196D-05  0.69839747D-18  0.69310680D-21
  0.40598037D-19  0.71223314D-06 -0.26011209D-06 -0.45212106D-06 -0.12452989D-17
 -0.18006842D-21 -0.22678871D-19 -0.30716959D-05  0.53941754D-05 -0.23224795D-05
 -0.54568668D-17 -0.32199880D-22  0.18521649D-19  0.42547487D-17  0.29618776D-04
 -0.57805454D-19 -0.88894299D-17 -0.43298667D-04 -0.43628528D-19 -0.38748163D-17
 -0.45557661D-04  0.21704489D-18 -0.41309639D-20 -0.16902408D-17 -0.97364031D-05
  0.15243313D-19  0.43456370D-17  0.14336619D-04  0.11452646D-19  0.72508542D-18
  0.14872590D-04 -0.57182585D-19  0.11781321D-20
MO    2     MO 0.0        OCC NO =    2.0000000  ORB. ENERGY =  -61.774639
  0.85561466D-03  0.16095154D-02  0.27861505D-02  0.45670337D-02  0.71543468D-02
  0.10753593D-01  0.15369585D-01  0.20403506D-01  0.23762654D-01  0.21825768D-01
  0.12762385D-01  0.33489136D-02  0.18308380D-03 -0.65529262D-05  0.18313361D-05
 -0.54378548D-06  0.92706009D-07  0.75635352D-08 -0.25369574D+00 -0.46611768D+00
 -0.80602488D+00 -0.13199784D+01 -0.20782467D+01 -0.31383561D+01 -0.45810415D+01
 -0.63083724D+01 -0.80604111D+01 -0.87867926D+01 -0.72328832D+01 -0.19832075D+01
  0.40002581D+01  0.38984262D+01  0.85308548D+00  0.28739664D-01  0.97360800D-03
 -0.24767332D-05  0.18672622D-02  0.36605819D-02  0.64114186D-02  0.10474172D-01
  0.16520292D-01  0.24928382D-01  0.36549961D-01  0.50463268D-01  0.65425877D-01
  0.72757425D-01  0.63194303D-01  0.18356815D-01 -0.46277307D-01 -0.67429297D-01
 -0.11608195D-01  0.28319025D-01  0.13479142D-01 -0.65094892D-04 -0.68982550D-03
 -0.14946853D-02 -0.25444647D-02 -0.41532515D-02 -0.65471935D-02 -0.98816060D-02
 -0.14488045D-01 -0.20028693D-01 -0.25995235D-01 -0.29041223D-01 -0.25368166D-01
 -0.75140754D-02  0.19532280D-01  0.30047248D-01  0.52591859D-02 -0.16589811D-01
 -0.14082241D-01  0.52539582D-02 -0.59898323D-02 -0.13369229D-02 -0.20998970D-03
 -0.48986630D-11 -0.70287141D-11 -0.93063912D-11 -0.10746245D-10 -0.99622635D-11
 -0.64497510D-11 -0.22765253D-11 -0.26682839D-12 -0.38791909D-14 -0.56806433D-15
 -0.58405835D-17 -0.52308040D-11 -0.75052776D-11 -0.99373865D-11 -0.11474866D-10
 -0.10637729D-10 -0.68870594D-11 -0.24308790D-11 -0.28491998D-12 -0.41422092D-14
 -0.60658043D-15 -0.62365889D-17  0.63808297D-14  0.91553609D-14  0.12122185D-13
  0.13997689D-13  0.12976501D-13  0.84012235D-14  0.29653234D-14  0.34756147D-15
  0.50529005D-17  0.73994103D-18  0.76077429D-20  0.17378111D-12  0.25085502D-12
  0.33513632D-12  0.39815223D-12  0.38584002D-12  0.26820804D-12  0.87272322D-13
 -0.39279471D-13 -0.42434933D-13 -0.10924744D-13  0.10656079D-16  0.21024095D-12
  0.30348522D-12  0.40544900D-12  0.48168585D-12  0.46679051D-12  0.32447895D-12
  0.10558234D-12 -0.47520431D-13 -0.51337920D-13 -0.13216790D-13  0.12891758D-16
 -0.26350404D-15 -0.38037111D-15 -0.50816671D-15 -0.60371764D-15 -0.58504867D-15
 -0.40668346D-15 -0.13233090D-15  0.59559405D-16  0.64344028D-16  0.16565173D-16
 -0.16157797D-19 -0.59410514D-13 -0.86326112D-13 -0.11477157D-12 -0.13771794D-12
 -0.13324271D-12 -0.94586811D-13 -0.29397819D-13  0.16878373D-13  0.19389504D-13
  0.51490531D-14 -0.18577944D-14 -0.80824247D-13 -0.11744122D-12 -0.15613946D-12
 -0.18735654D-12 -0.18126828D-12 -0.12867937D-12 -0.39993873D-13  0.22961959D-13
  0.26378194D-13  0.70049611D-14 -0.25274118D-14  0.89215874D-16  0.12963462D-15
  0.17235073D-15  0.20680895D-15  0.20008857D-15  0.14203959D-15  0.44146261D-16
 -0.25345998D-16 -0.29116926D-16 -0.77322555D-17  0.27898219D-17  0.41399862D-14
  0.51218718D-14 -0.78596988D-17 -0.25793250D-16 -0.66432679D-15 -0.18611771D-18
 -0.29602717D-17  0.36976582D-17  0.16222355D-19  0.22964961D-02  0.24030357D-02
  0.20475150D-02  0.13484434D-02  0.62145743D-03  0.18609643D-03  0.31662730D-04
  0.22964961D-02  0.24030357D-02  0.20475150D-02  0.13484434D-02  0.62145743D-03
  0.18609643D-03  0.31662730D-04 -0.45929921D-02 -0.48060714D-02 -0.40950300D-02
 -0.26968869D-02 -0.12429149D-02 -0.37219287D-03 -0.63325461D-04  0.48888315D-15
  0.51156354D-15  0.43587952D-15  0.28705962D-15  0.13229723D-15  0.39616620D-16
  0.67404320D-17  0.97239866D-15  0.10175104D-14  0.86697334D-15  0.57096749D-15
  0.26314192D-15  0.78798273D-16  0.13406858D-16 -0.18122236D-15 -0.18962967D-15
 -0.16157463D-15 -0.10640911D-15 -0.49040790D-16 -0.14685344D-16 -0.24985868D-17
  0.48270357D-04  0.48270357D-04 -0.96540713D-04 -0.16888150D-17 -0.50917878D-17
  0.88653023D-18  0.98539686D-04  0.98539686D-04 -0.19707937D-03 -0.25038550D-18
  0.73188864D-18 -0.12484688D-18 -0.35906665D-04 -0.35906665D-04  0.71813330D-04
 -0.43787896D-18 -0.67365910D-19  0.11388762D-19 -0.88845881D-16 -0.71012660D-16
  0.62573973D-19  0.86507108D-16  0.51170016D-16 -0.10824106D-18  0.18003054D-15
  0.16186797D-15 -0.79480858D-19  0.34099807D-19 -0.80177327D-16 -0.20852607D-15
 -0.16549805D-18  0.12374972D-15  0.33014493D-15  0.25209759D-18  0.11678226D-15
  0.29543328D-15  0.24439656D-18 -0.62869796D-20  0.10169538D-03  0.18956460D-03
  0.32135860D-03  0.48663163D-03  0.60853456D-03  0.52389157D-03  0.20140305D-03
 -0.87271237D-06 -0.67594976D-04 -0.12693139D-03 -0.21614227D-03 -0.33858559D-03
 -0.45374453D-03 -0.48806342D-03 -0.29303264D-03  0.19271059D-03 -0.58255212D-04
 -0.32560889D-04  0.20878350D-03  0.33903102D-04  0.33156494D-04  0.21907897D-04
  0.11795776D-15  0.11536011D-15  0.76223304D-16 -0.53609258D-18 -0.52428683D-18
 -0.34641848D-18  0.11846948D-03 -0.90935506D-16  0.43185000D-18 -0.13462902D-03
  0.75117036D-17 -0.29484797D-18  0.17773134D-04 -0.19536511D-16 -0.14704246D-19
  0.17099651D-03 -0.57166461D-04 -0.11383005D-03 -0.11922003D-16 -0.72568839D-18
 -0.32543914D-19  0.18728602D-04 -0.25509737D-04  0.67811348D-05 -0.35885765D-16
  0.49338810D-18  0.10055091D-19 -0.15587490D-03  0.90204620D-04  0.65670285D-04
 -0.20879677D-16 -0.38226800D-18 -0.73649612D-21  0.86432536D-03  0.48271132D-16
 -0.12324001D-17 -0.12888781D-02 -0.36209241D-15  0.45418077D-17 -0.13040979D-02
  0.21727901D-15 -0.84460751D-18 -0.11174022D-18 -0.29049094D-03 -0.10565756D-16
  0.32583771D-18  0.43501884D-03  0.92054360D-16 -0.11991596D-17  0.43645399D-03
 -0.60357093D-16  0.22164650D-18  0.33295111D-19  0.10169538D-03  0.18956460D-03
  0.32135860D-03  0.48663163D-03  0.60853456D-03  0.52389157D-03  0.20140305D-03
 -0.87271237D-06 -0.67594976D-04 -0.12693139D-03 -0.21614227D-03 -0.33858559D-03
 -0.45374453D-03 -0.48806342D-03 -0.29303264D-03  0.19271059D-03 -0.58255212D-04
 -0.32560889D-04  0.20878350D-03 -0.10961973D-16 -0.10720570D-16 -0.70835339D-17
  0.33903102D-04  0.33156494D-04  0.21907897D-04 -0.53363978D-18 -0.52188805D-18
 -0.34483350D-18 -0.10822388D-17  0.11846948D-03  0.46030477D-18 -0.18095543D-16
 -0.13462902D-03 -0.36673546D-18 -0.32085336D-17  0.17773134D-04  0.96687538D-20
 -0.57166461D-04  0.17099651D-03 -0.11383005D-03 -0.74089268D-16  0.12687846D-18
 -0.59173176D-18 -0.25509737D-04  0.18728602D-04  0.67811348D-05 -0.17827618D-17
 -0.33838269D-19  0.40894445D-18  0.90204620D-04 -0.15587490D-03  0.65670285D-04
  0.13270626D-16 -0.75250758D-20 -0.47137334D-18  0.11174063D-15  0.86432536D-03