 Molden2AIM, Version 4.0.0 (06/02/2016)           Time: Thu Jun 28 23:50:08 2018
GAUSSIAN             21 MOL ORBITALS    612 PRIMITIVES       12 NUCLEI
  B    1    (CENTRE  1)  -5.75943358  4.93797153 -0.29515254  CHARGE =  5.0
  N    2    (CENTRE  2)  -3.33450678  3.78644990 -0.36814322  CHARGE =  7.0
  N    3    (CENTRE  3)  -5.81160892  7.61543188  0.04622837  CHARGE =  7.0
  H    4    (CENTRE  4)  -7.70338162  3.78652927 -0.49926375  CHARGE =  1.0
  B    5    (CENTRE  5)  -1.02793731  5.18870039 -0.11810977  CHARGE =  5.0
  H    6    (CENTRE  6)  -3.24463519  1.89341865 -0.60731073  CHARGE =  1.0
  C    7    (CENTRE  7)  -3.66752188  9.06230635  0.29613709  CHARGE =  6.0
  H    8    (CENTRE  8)  -7.47538427  8.54312300  0.11467047  CHARGE =  1.0
  C    9    (CENTRE  9)  -1.30836133  8.03644018  0.23686016  CHARGE =  6.0
  H   10    (CENTRE 10)   0.96134903  4.08324273 -0.19836266  CHARGE =  1.0
  H   11    (CENTRE 11)  -3.99661580 11.08670759  0.54561307  CHARGE =  1.0
  H   12    (CENTRE 12)   0.28183186  9.32853097  0.44985686  CHARGE =  1.0
CENTRE ASSIGNMENTS    1  1  1  1  1  1  1  1  1  1  1  1  1  1  1  1  1  1  1  1
CENTRE ASSIGNMENTS    1  1  1  1  1  1  1  1  1  1  1  1  1  1  1  1  1  1  1  1
CENTRE ASSIGNMENTS    1  1  1  1  1  1  1  1  1  1  1  1  1  1  1  1  1  1  1  1
CENTRE ASSIGNMENTS    1  1  1  1  1  1  1  1  1  1  1  1  1  1  1  2  2  2  2  2
CENTRE ASSIGNMENTS    2  2  2  2  2  2  2  2  2  2  2  2  2  2  2  2  2  2  2  2
CENTRE ASSIGNMENTS    2  2  2  2  2  2  2  2  2  2  2  2  2  2  2  2  2  2  2  2
CENTRE ASSIGNMENTS    2  2  2  2  2  2  2  2  2  2  2  2  2  2  2  2  2  2  2  2
CENTRE ASSIGNMENTS    2  2  2  2  2  2  2  2  2  2  3  3  3  3  3  3  3  3  3  3
CENTRE ASSIGNMENTS    3  3  3  3  3  3  3  3  3  3  3  3  3  3  3  3  3  3  3  3
CENTRE ASSIGNMENTS    3  3  3  3  3  3  3  3  3  3  3  3  3  3  3  3  3  3  3  3
CENTRE ASSIGNMENTS    3  3  3  3  3  3  3  3  3  3  3  3  3  3  3  3  3  3  3  3
CENTRE ASSIGNMENTS    3  3  3  3  3  4  4  4  4  4  4  4  4  4  4  4  4  4  4  4
CENTRE ASSIGNMENTS    4  4  4  4  4  4  4  4  4  4  4  4  5  5  5  5  5  5  5  5
CENTRE ASSIGNMENTS    5  5  5  5  5  5  5  5  5  5  5  5  5  5  5  5  5  5  5  5
CENTRE ASSIGNMENTS    5  5  5  5  5  5  5  5  5  5  5  5  5  5  5  5  5  5  5  5
CENTRE ASSIGNMENTS    5  5  5  5  5  5  5  5  5  5  5  5  5  5  5  5  5  5  5  5
CENTRE ASSIGNMENTS    5  5  5  5  5  5  5  6  6  6  6  6  6  6  6  6  6  6  6  6
CENTRE ASSIGNMENTS    6  6  6  6  6  6  6  6  6  6  6  6  6  6  7  7  7  7  7  7
CENTRE ASSIGNMENTS    7  7  7  7  7  7  7  7  7  7  7  7  7  7  7  7  7  7  7  7
CENTRE ASSIGNMENTS    7  7  7  7  7  7  7  7  7  7  7  7  7  7  7  7  7  7  7  7
CENTRE ASSIGNMENTS    7  7  7  7  7  7  7  7  7  7  7  7  7  7  7  7  7  7  7  7
CENTRE ASSIGNMENTS    7  7  7  7  7  7  7  7  7  8  8  8  8  8  8  8  8  8  8  8
CENTRE ASSIGNMENTS    8  8  8  8  8  8  8  8  8  8  8  8  8  8  8  8  9  9  9  9
CENTRE ASSIGNMENTS    9  9  9  9  9  9  9  9  9  9  9  9  9  9  9  9  9  9  9  9
CENTRE ASSIGNMENTS    9  9  9  9  9  9  9  9  9  9  9  9  9  9  9  9  9  9  9  9
CENTRE ASSIGNMENTS    9  9  9  9  9  9  9  9  9  9  9  9  9  9  9  9  9  9  9  9
CENTRE ASSIGNMENTS    9  9  9  9  9  9  9  9  9  9  9 10 10 10 10 10 10 10 10 10
CENTRE ASSIGNMENTS   10 10 10 10 10 10 10 10 10 10 10 10 10 10 10 10 10 10 11 11
CENTRE ASSIGNMENTS   11 11 11 11 11 11 11 11 11 11 11 11 11 11 11 11 11 11 11 11
CENTRE ASSIGNMENTS   11 11 11 11 11 12 12 12 12 12 12 12 12 12 12 12 12 12 12 12
CENTRE ASSIGNMENTS   12 12 12 12 12 12 12 12 12 12 12 12
TYPE ASSIGNMENTS      1  1  1  1  1  1  1  1  1  1  1  1  1  1  1  1  1  1  1  2
TYPE ASSIGNMENTS      2  2  3  3  3  4  4  4  2  3  4  2  3  4  2  3  4  5  6  7
TYPE ASSIGNMENTS      8  9 10  5  6  7  8  9 10  5  6  7  8  9 10 11 12 13 17 14
TYPE ASSIGNMENTS     15 18 19 16 20 11 12 13 17 14 15 18 19 16 20  1  1  1  1  1
TYPE ASSIGNMENTS      1  1  1  1  1  1  1  1  1  1  1  1  1  1  2  2  2  3  3  3
TYPE ASSIGNMENTS      4  4  4  2  3  4  2  3  4  2  3  4  5  6  7  8  9 10  5  6
TYPE ASSIGNMENTS      7  8  9 10  5  6  7  8  9 10 11 12 13 17 14 15 18 19 16 20
TYPE ASSIGNMENTS     11 12 13 17 14 15 18 19 16 20  1  1  1  1  1  1  1  1  1  1
TYPE ASSIGNMENTS      1  1  1  1  1  1  1  1  1  2  2  2  3  3  3  4  4  4  2  3
TYPE ASSIGNMENTS      4  2  3  4  2  3  4  5  6  7  8  9 10  5  6  7  8  9 10  5
TYPE ASSIGNMENTS      6  7  8  9 10 11 12 13 17 14 15 18 19 16 20 11 12 13 17 14
TYPE ASSIGNMENTS     15 18 19 16 20  1  1  1  1  1  1  2  3  4  2  3  4  2  3  4
TYPE ASSIGNMENTS      5  6  7  8  9 10  5  6  7  8  9 10  1  1  1  1  1  1  1  1
TYPE ASSIGNMENTS      1  1  1  1  1  1  1  1  1  1  1  2  2  2  3  3  3  4  4  4
TYPE ASSIGNMENTS      2  3  4  2  3  4  2  3  4  5  6  7  8  9 10  5  6  7  8  9
TYPE ASSIGNMENTS     10  5  6  7  8  9 10 11 12 13 17 14 15 18 19 16 20 11 12 13
TYPE ASSIGNMENTS     17 14 15 18 19 16 20  1  1  1  1  1  1  2  3  4  2  3  4  2
TYPE ASSIGNMENTS      3  4  5  6  7  8  9 10  5  6  7  8  9 10  1  1  1  1  1  1
TYPE ASSIGNMENTS      1  1  1  1  1  1  1  1  1  1  1  1  1  2  2  2  3  3  3  4
TYPE ASSIGNMENTS      4  4  2  3  4  2  3  4  2  3  4  5  6  7  8  9 10  5  6  7
TYPE ASSIGNMENTS      8  9 10  5  6  7  8  9 10 11 12 13 17 14 15 18 19 16 20 11
TYPE ASSIGNMENTS     12 13 17 14 15 18 19 16 20  1  1  1  1  1  1  2  3  4  2  3
TYPE ASSIGNMENTS      4  2  3  4  5  6  7  8  9 10  5  6  7  8  9 10  1  1  1  1
TYPE ASSIGNMENTS      1  1  1  1  1  1  1  1  1  1  1  1  1  1  1  2  2  2  3  3
TYPE ASSIGNMENTS      3  4  4  4  2  3  4  2  3  4  2  3  4  5  6  7  8  9 10  5
TYPE ASSIGNMENTS      6  7  8  9 10  5  6  7  8  9 10 11 12 13 17 14 15 18 19 16
TYPE ASSIGNMENTS     20 11 12 13 17 14 15 18 19 16 20  1  1  1  1  1  1  2  3  4
TYPE ASSIGNMENTS      2  3  4  2  3  4  5  6  7  8  9 10  5  6  7  8  9 10  1  1
TYPE ASSIGNMENTS      1  1  1  1  2  3  4  2  3  4  2  3  4  5  6  7  8  9 10  5
TYPE ASSIGNMENTS      6  7  8  9 10  1  1  1  1  1  1  2  3  4  2  3  4  2  3  4
TYPE ASSIGNMENTS      5  6  7  8  9 10  5  6  7  8  9 10
EXPONENTS  0.5473000D+04 0.8209000D+03 0.1868000D+03 0.5283000D+02 0.1708000D+02
EXPONENTS  0.5999000D+01 0.2208000D+01 0.2415000D+00 0.5473000D+04 0.8209000D+03
EXPONENTS  0.1868000D+03 0.5283000D+02 0.1708000D+02 0.5999000D+01 0.2208000D+01
EXPONENTS  0.2415000D+00 0.5879000D+00 0.8610000D-01 0.2914000D-01 0.1205000D+02
EXPONENTS  0.2613000D+01 0.7475000D+00 0.1205000D+02 0.2613000D+01 0.7475000D+00
EXPONENTS  0.1205000D+02 0.2613000D+01 0.7475000D+00 0.2385000D+00 0.2385000D+00
EXPONENTS  0.2385000D+00 0.7698000D-01 0.7698000D-01 0.7698000D-01 0.2096000D-01
EXPONENTS  0.2096000D-01 0.2096000D-01 0.6610000D+00 0.6610000D+00 0.6610000D+00
EXPONENTS  0.6610000D+00 0.6610000D+00 0.6610000D+00 0.1990000D+00 0.1990000D+00
EXPONENTS  0.1990000D+00 0.1990000D+00 0.1990000D+00 0.1990000D+00 0.6040000D-01
EXPONENTS  0.6040000D-01 0.6040000D-01 0.6040000D-01 0.6040000D-01 0.6040000D-01
EXPONENTS  0.4900000D+00 0.4900000D+00 0.4900000D+00 0.4900000D+00 0.4900000D+00
EXPONENTS  0.4900000D+00 0.4900000D+00 0.4900000D+00 0.4900000D+00 0.4900000D+00
EXPONENTS  0.1630000D+00 0.1630000D+00 0.1630000D+00 0.1630000D+00 0.1630000D+00
EXPONENTS  0.1630000D+00 0.1630000D+00 0.1630000D+00 0.1630000D+00 0.1630000D+00
EXPONENTS  0.1142000D+05 0.1712000D+04 0.3893000D+03 0.1100000D+03 0.3557000D+02
EXPONENTS  0.1254000D+02 0.4644000D+01 0.5118000D+00 0.1142000D+05 0.1712000D+04
EXPONENTS  0.3893000D+03 0.1100000D+03 0.3557000D+02 0.1254000D+02 0.4644000D+01
EXPONENTS  0.5118000D+00 0.1293000D+01 0.1787000D+00 0.5760000D-01 0.2663000D+02
EXPONENTS  0.5948000D+01 0.1742000D+01 0.2663000D+02 0.5948000D+01 0.1742000D+01
EXPONENTS  0.2663000D+02 0.5948000D+01 0.1742000D+01 0.5550000D+00 0.5550000D+00
EXPONENTS  0.5550000D+00 0.1725000D+00 0.1725000D+00 0.1725000D+00 0.4910000D-01
EXPONENTS  0.4910000D-01 0.4910000D-01 0.1654000D+01 0.1654000D+01 0.1654000D+01
EXPONENTS  0.1654000D+01 0.1654000D+01 0.1654000D+01 0.4690000D+00 0.4690000D+00
EXPONENTS  0.4690000D+00 0.4690000D+00 0.4690000D+00 0.4690000D+00 0.1510000D+00
EXPONENTS  0.1510000D+00 0.1510000D+00 0.1510000D+00 0.1510000D+00 0.1510000D+00
EXPONENTS  0.1093000D+01 0.1093000D+01 0.1093000D+01 0.1093000D+01 0.1093000D+01
EXPONENTS  0.1093000D+01 0.1093000D+01 0.1093000D+01 0.1093000D+01 0.1093000D+01
EXPONENTS  0.3640000D+00 0.3640000D+00 0.3640000D+00 0.3640000D+00 0.3640000D+00
EXPONENTS  0.3640000D+00 0.3640000D+00 0.3640000D+00 0.3640000D+00 0.3640000D+00
EXPONENTS  0.1142000D+05 0.1712000D+04 0.3893000D+03 0.1100000D+03 0.3557000D+02
EXPONENTS  0.1254000D+02 0.4644000D+01 0.5118000D+00 0.1142000D+05 0.1712000D+04
EXPONENTS  0.3893000D+03 0.1100000D+03 0.3557000D+02 0.1254000D+02 0.4644000D+01
EXPONENTS  0.5118000D+00 0.1293000D+01 0.1787000D+00 0.5760000D-01 0.2663000D+02
EXPONENTS  0.5948000D+01 0.1742000D+01 0.2663000D+02 0.5948000D+01 0.1742000D+01
EXPONENTS  0.2663000D+02 0.5948000D+01 0.1742000D+01 0.5550000D+00 0.5550000D+00
EXPONENTS  0.5550000D+00 0.1725000D+00 0.1725000D+00 0.1725000D+00 0.4910000D-01
EXPONENTS  0.4910000D-01 0.4910000D-01 0.1654000D+01 0.1654000D+01 0.1654000D+01
EXPONENTS  0.1654000D+01 0.1654000D+01 0.1654000D+01 0.4690000D+00 0.4690000D+00
EXPONENTS  0.4690000D+00 0.4690000D+00 0.4690000D+00 0.4690000D+00 0.1510000D+00
EXPONENTS  0.1510000D+00 0.1510000D+00 0.1510000D+00 0.1510000D+00 0.1510000D+00
EXPONENTS  0.1093000D+01 0.1093000D+01 0.1093000D+01 0.1093000D+01 0.1093000D+01
EXPONENTS  0.1093000D+01 0.1093000D+01 0.1093000D+01 0.1093000D+01 0.1093000D+01
EXPONENTS  0.3640000D+00 0.3640000D+00 0.3640000D+00 0.3640000D+00 0.3640000D+00
EXPONENTS  0.3640000D+00 0.3640000D+00 0.3640000D+00 0.3640000D+00 0.3640000D+00
EXPONENTS  0.3387000D+02 0.5095000D+01 0.1159000D+01 0.3258000D+00 0.1027000D+00
EXPONENTS  0.2526000D-01 0.1407000D+01 0.1407000D+01 0.1407000D+01 0.3880000D+00
EXPONENTS  0.3880000D+00 0.3880000D+00 0.1020000D+00 0.1020000D+00 0.1020000D+00
EXPONENTS  0.1057000D+01 0.1057000D+01 0.1057000D+01 0.1057000D+01 0.1057000D+01
EXPONENTS  0.1057000D+01 0.2470000D+00 0.2470000D+00 0.2470000D+00 0.2470000D+00
EXPONENTS  0.2470000D+00 0.2470000D+00 0.5473000D+04 0.8209000D+03 0.1868000D+03
EXPONENTS  0.5283000D+02 0.1708000D+02 0.5999000D+01 0.2208000D+01 0.2415000D+00
EXPONENTS  0.5473000D+04 0.8209000D+03 0.1868000D+03 0.5283000D+02 0.1708000D+02
EXPONENTS  0.5999000D+01 0.2208000D+01 0.2415000D+00 0.5879000D+00 0.8610000D-01
EXPONENTS  0.2914000D-01 0.1205000D+02 0.2613000D+01 0.7475000D+00 0.1205000D+02
EXPONENTS  0.2613000D+01 0.7475000D+00 0.1205000D+02 0.2613000D+01 0.7475000D+00
EXPONENTS  0.2385000D+00 0.2385000D+00 0.2385000D+00 0.7698000D-01 0.7698000D-01
EXPONENTS  0.7698000D-01 0.2096000D-01 0.2096000D-01 0.2096000D-01 0.6610000D+00
EXPONENTS  0.6610000D+00 0.6610000D+00 0.6610000D+00 0.6610000D+00 0.6610000D+00
EXPONENTS  0.1990000D+00 0.1990000D+00 0.1990000D+00 0.1990000D+00 0.1990000D+00
EXPONENTS  0.1990000D+00 0.6040000D-01 0.6040000D-01 0.6040000D-01 0.6040000D-01
EXPONENTS  0.6040000D-01 0.6040000D-01 0.4900000D+00 0.4900000D+00 0.4900000D+00
EXPONENTS  0.4900000D+00 0.4900000D+00 0.4900000D+00 0.4900000D+00 0.4900000D+00
EXPONENTS  0.4900000D+00 0.4900000D+00 0.1630000D+00 0.1630000D+00 0.1630000D+00
EXPONENTS  0.1630000D+00 0.1630000D+00 0.1630000D+00 0.1630000D+00 0.1630000D+00
EXPONENTS  0.1630000D+00 0.1630000D+00 0.3387000D+02 0.5095000D+01 0.1159000D+01
EXPONENTS  0.3258000D+00 0.1027000D+00 0.2526000D-01 0.1407000D+01 0.1407000D+01
EXPONENTS  0.1407000D+01 0.3880000D+00 0.3880000D+00 0.3880000D+00 0.1020000D+00
EXPONENTS  0.1020000D+00 0.1020000D+00 0.1057000D+01 0.1057000D+01 0.1057000D+01
EXPONENTS  0.1057000D+01 0.1057000D+01 0.1057000D+01 0.2470000D+00 0.2470000D+00
EXPONENTS  0.2470000D+00 0.2470000D+00 0.2470000D+00 0.2470000D+00 0.8236000D+04
EXPONENTS  0.1235000D+04 0.2808000D+03 0.7927000D+02 0.2559000D+02 0.8997000D+01
EXPONENTS  0.3319000D+01 0.3643000D+00 0.8236000D+04 0.1235000D+04 0.2808000D+03
EXPONENTS  0.7927000D+02 0.2559000D+02 0.8997000D+01 0.3319000D+01 0.3643000D+00
EXPONENTS  0.9059000D+00 0.1285000D+00 0.4402000D-01 0.1871000D+02 0.4133000D+01
EXPONENTS  0.1200000D+01 0.1871000D+02 0.4133000D+01 0.1200000D+01 0.1871000D+02
EXPONENTS  0.4133000D+01 0.1200000D+01 0.3827000D+00 0.3827000D+00 0.3827000D+00
EXPONENTS  0.1209000D+00 0.1209000D+00 0.1209000D+00 0.3569000D-01 0.3569000D-01
EXPONENTS  0.3569000D-01 0.1097000D+01 0.1097000D+01 0.1097000D+01 0.1097000D+01
EXPONENTS  0.1097000D+01 0.1097000D+01 0.3180000D+00 0.3180000D+00 0.3180000D+00
EXPONENTS  0.3180000D+00 0.3180000D+00 0.3180000D+00 0.1000000D+00 0.1000000D+00
EXPONENTS  0.1000000D+00 0.1000000D+00 0.1000000D+00 0.1000000D+00 0.7610000D+00
EXPONENTS  0.7610000D+00 0.7610000D+00 0.7610000D+00 0.7610000D+00 0.7610000D+00
EXPONENTS  0.7610000D+00 0.7610000D+00 0.7610000D+00 0.7610000D+00 0.2680000D+00
EXPONENTS  0.2680000D+00 0.2680000D+00 0.2680000D+00 0.2680000D+00 0.2680000D+00
EXPONENTS  0.2680000D+00 0.2680000D+00 0.2680000D+00 0.2680000D+00 0.3387000D+02
EXPONENTS  0.5095000D+01 0.1159000D+01 0.3258000D+00 0.1027000D+00 0.2526000D-01
EXPONENTS  0.1407000D+01 0.1407000D+01 0.1407000D+01 0.3880000D+00 0.3880000D+00
EXPONENTS  0.3880000D+00 0.1020000D+00 0.1020000D+00 0.1020000D+00 0.1057000D+01
EXPONENTS  0.1057000D+01 0.1057000D+01 0.1057000D+01 0.1057000D+01 0.1057000D+01
EXPONENTS  0.2470000D+00 0.2470000D+00 0.2470000D+00 0.2470000D+00 0.2470000D+00
EXPONENTS  0.2470000D+00 0.8236000D+04 0.1235000D+04 0.2808000D+03 0.7927000D+02
EXPONENTS  0.2559000D+02 0.8997000D+01 0.3319000D+01 0.3643000D+00 0.8236000D+04
EXPONENTS  0.1235000D+04 0.2808000D+03 0.7927000D+02 0.2559000D+02 0.8997000D+01
EXPONENTS  0.3319000D+01 0.3643000D+00 0.9059000D+00 0.1285000D+00 0.4402000D-01
EXPONENTS  0.1871000D+02 0.4133000D+01 0.1200000D+01 0.1871000D+02 0.4133000D+01
EXPONENTS  0.1200000D+01 0.1871000D+02 0.4133000D+01 0.1200000D+01 0.3827000D+00
EXPONENTS  0.3827000D+00 0.3827000D+00 0.1209000D+00 0.1209000D+00 0.1209000D+00
EXPONENTS  0.3569000D-01 0.3569000D-01 0.3569000D-01 0.1097000D+01 0.1097000D+01
EXPONENTS  0.1097000D+01 0.1097000D+01 0.1097000D+01 0.1097000D+01 0.3180000D+00
EXPONENTS  0.3180000D+00 0.3180000D+00 0.3180000D+00 0.3180000D+00 0.3180000D+00
EXPONENTS  0.1000000D+00 0.1000000D+00 0.1000000D+00 0.1000000D+00 0.1000000D+00
EXPONENTS  0.1000000D+00 0.7610000D+00 0.7610000D+00 0.7610000D+00 0.7610000D+00
EXPONENTS  0.7610000D+00 0.7610000D+00 0.7610000D+00 0.7610000D+00 0.7610000D+00
EXPONENTS  0.7610000D+00 0.2680000D+00 0.2680000D+00 0.2680000D+00 0.2680000D+00
EXPONENTS  0.2680000D+00 0.2680000D+00 0.2680000D+00 0.2680000D+00 0.2680000D+00
EXPONENTS  0.2680000D+00 0.3387000D+02 0.5095000D+01 0.1159000D+01 0.3258000D+00
EXPONENTS  0.1027000D+00 0.2526000D-01 0.1407000D+01 0.1407000D+01 0.1407000D+01
EXPONENTS  0.3880000D+00 0.3880000D+00 0.3880000D+00 0.1020000D+00 0.1020000D+00
EXPONENTS  0.1020000D+00 0.1057000D+01 0.1057000D+01 0.1057000D+01 0.1057000D+01
EXPONENTS  0.1057000D+01 0.1057000D+01 0.2470000D+00 0.2470000D+00 0.2470000D+00
EXPONENTS  0.2470000D+00 0.2470000D+00 0.2470000D+00 0.3387000D+02 0.5095000D+01
EXPONENTS  0.1159000D+01 0.3258000D+00 0.1027000D+00 0.2526000D-01 0.1407000D+01
EXPONENTS  0.1407000D+01 0.1407000D+01 0.3880000D+00 0.3880000D+00 0.3880000D+00
EXPONENTS  0.1020000D+00 0.1020000D+00 0.1020000D+00 0.1057000D+01 0.1057000D+01
EXPONENTS  0.1057000D+01 0.1057000D+01 0.1057000D+01 0.1057000D+01 0.2470000D+00
EXPONENTS  0.2470000D+00 0.2470000D+00 0.2470000D+00 0.2470000D+00 0.2470000D+00
EXPONENTS  0.3387000D+02 0.5095000D+01 0.1159000D+01 0.3258000D+00 0.1027000D+00
EXPONENTS  0.2526000D-01 0.1407000D+01 0.1407000D+01 0.1407000D+01 0.3880000D+00
EXPONENTS  0.3880000D+00 0.3880000D+00 0.1020000D+00 0.1020000D+00 0.1020000D+00
EXPONENTS  0.1057000D+01 0.1057000D+01 0.1057000D+01 0.1057000D+01 0.1057000D+01
EXPONENTS  0.1057000D+01 0.2470000D+00 0.2470000D+00 0.2470000D+00 0.2470000D+00
EXPONENTS  0.2470000D+00 0.2470000D+00
MO    1     MO 0.0        OCC NO =    2.0000000  ORB. ENERGY =  -14.016563
  0.41699509D-03  0.77704305D-03  0.13095324D-02  0.19538117D-02  0.23666113D-02
  0.19691969D-02  0.73136998D-03 -0.38826895D-05 -0.32696563D-03 -0.61073444D-03
 -0.10394731D-02 -0.15897594D-02 -0.20675764D-02 -0.20928560D-02 -0.13780396D-02
  0.94196607D-03  0.13760858D-02 -0.25608086D-02  0.94475250D-05 -0.33629398D-04
 -0.30308675D-04 -0.22006064D-04  0.12493889D-02  0.11260185D-02  0.81756242D-03
  0.15911367D-03  0.14340205D-03  0.10411919D-03 -0.10059857D-02  0.23857956D-02
  0.27468297D-03  0.29931485D-03 -0.90370440D-03 -0.10663766D-03  0.50612141D-05
 -0.84872220D-05 -0.93033588D-06 -0.42793889D-03  0.52626800D-03 -0.98329104D-04
  0.91321197D-04 -0.78683695D-05  0.16564563D-03 -0.10877945D-02  0.98499621D-03
  0.10279827D-03  0.11998663D-02  0.82832828D-04  0.26672319D-03  0.20770298D-04
 -0.65245141D-05 -0.14245784D-04 -0.69555728D-04 -0.67641164D-05 -0.15229320D-06
  0.80750990D-04 -0.17208631D-03  0.40297501D-04 -0.11801742D-03  0.19020874D-03
  0.38530031D-04 -0.12423555D-03  0.32605019D-03 -0.15942253D-03 -0.75086471D-05
 -0.15066117D-03 -0.45794214D-04  0.92556211D-07  0.47311543D-03  0.12920473D-03
  0.45390403D-05 -0.21131903D-04  0.81779136D-05 -0.48167089D-05  0.13586679D-03
 -0.75576028D-05 -0.14082480D-04 -0.23817004D-04 -0.35867088D-04 -0.44405782D-04
 -0.37787316D-04 -0.14378771D-04  0.67341919D-07  0.20519524D-05  0.38474299D-05
  0.65456229D-05  0.10164661D-04  0.13489097D-04  0.14215656D-04  0.88146138D-05
 -0.58634845D-05 -0.10232616D-03  0.44594877D-02 -0.22273377D-02  0.24156701D-03
  0.23202222D-03  0.16271000D-03 -0.35964750D-03 -0.34543713D-03 -0.24224436D-03
 -0.38538109D-04 -0.37015393D-04 -0.25957749D-04 -0.66324608D-03  0.11136785D-02
  0.12212696D-03 -0.93464804D-03  0.26135240D-02  0.30410191D-03  0.96218590D-04
 -0.19133293D-03 -0.21495002D-04 -0.52517452D-04  0.83962096D-04 -0.31444644D-04
 -0.36717958D-03 -0.48733039D-04  0.18911081D-04  0.33328160D-03 -0.37028728D-03
  0.37005682D-04 -0.76928334D-05  0.16795250D-04 -0.10624342D-03 -0.37291315D-03
  0.38141166D-03 -0.84985087D-05 -0.83745625D-03 -0.12897291D-03  0.74366700D-04
  0.49822054D-05  0.33369191D-03 -0.37009191D-04 -0.16658700D-03 -0.69462108D-03
 -0.97693985D-04  0.15164039D-03 -0.30645465D-03  0.20872156D-03 -0.10604993D-03
 -0.11126716D-04 -0.17889787D-03  0.90821136D-05  0.27162485D-03  0.41368696D-03
  0.67189757D-04 -0.23824471D-03  0.12300664D-03 -0.94436098D-04  0.15040886D-03
  0.41217071D+00  0.76801942D+00  0.12989134D+01  0.19560916D+01  0.24217683D+01
  0.20608155D+01  0.78417832D+00 -0.36726416D-02 -0.18276471D-02 -0.34268555D-02
 -0.58301007D-02 -0.90535309D-02 -0.12014562D-01 -0.12661699D-01 -0.78510612D-02
  0.52225289D-02  0.46265253D-01 -0.24292301D-02  0.36787746D-02  0.98418488D-03
  0.94529781D-03  0.66290807D-03  0.87617250D-03  0.84155321D-03  0.59015520D-03
  0.14047549D-03  0.13492503D-03  0.94618744D-04 -0.27758882D-02  0.29000914D-02
  0.28736399D-03 -0.47106927D-02  0.32733614D-03 -0.10060480D-03  0.50817091D-03
 -0.39805069D-03 -0.35628803D-04  0.38382056D-02  0.12135262D-02 -0.50517318D-02
 -0.24093072D-02  0.23550420D-03  0.15576220D-02 -0.43908705D-03 -0.92097371D-03
  0.13600608D-02 -0.17049428D-02 -0.32997400D-03 -0.64709967D-03 -0.46730000D-03
 -0.11741366D-03  0.58471366D-03  0.33707261D-03 -0.20481473D-04 -0.17224702D-03
 -0.69616135D-03 -0.10231949D-02 -0.84209395D-04 -0.29907848D-03  0.42992189D-02
  0.34221024D-03  0.23875625D-02 -0.12296343D-02 -0.89582060D-04 -0.35598946D-03
  0.81465290D-04  0.61637533D-03  0.55145034D-04 -0.23888107D-03 -0.22812488D-02
 -0.28596343D-03 -0.55147951D-05  0.43212282D-03  0.12052833D-03 -0.22971300D-03
  0.28605164D-04  0.51590592D-04  0.76070298D-04  0.62809117D-03  0.89127493D-03
  0.33707831D-04  0.28472914D-03  0.24916648D-03  0.40118010D-04 -0.29740221D-03
  0.17087786D-03  0.12953127D-04  0.12353035D-03  0.36139127D-04  0.84241106D-05
 -0.27705851D-03  0.92120521D-04  0.18493799D-03  0.57559092D-04 -0.19843416D-04
 -0.23536771D-04 -0.14944821D-03  0.94531614D-04  0.54916600D-04  0.86109781D-04
 -0.11723021D-05  0.13240611D-04 -0.30809348D-03 -0.57411203D-03 -0.96753757D-03
 -0.14435581D-02 -0.17485518D-02 -0.14549254D-02 -0.54036686D-03  0.28686940D-05
  0.23758777D-03  0.44378681D-03  0.75532738D-03  0.11551899D-02  0.15023930D-02
  0.15207623D-02  0.10013448D-02 -0.68447444D-03 -0.12996767D-02 -0.32365705D-02
  0.30445065D-03  0.37513037D-03  0.33808826D-03  0.24547400D-03 -0.49803573D-03
 -0.44885737D-03 -0.32589956D-03 -0.51939409D-04 -0.46810671D-04 -0.33987583D-04
  0.62585979D-04  0.12085125D-03  0.16734856D-04 -0.28303935D-03 -0.80337835D-03
 -0.11125629D-03  0.97896722D-05 -0.64407652D-05 -0.52608510D-06  0.84471572D-04
 -0.15207313D-04 -0.69264260D-04 -0.24719067D-03 -0.21996644D-04  0.61961588D-05
 -0.38848027D-03  0.45436767D-03 -0.65887405D-04  0.13073151D-03 -0.30121032D-05
  0.13847659D-03  0.24873087D-04 -0.27848829D-04  0.29757415D-05  0.30688067D-04
  0.52570075D-05 -0.70295163D-05 -0.11823789D-04  0.52339885D-05 -0.30755101D-04
 -0.84192474D-04  0.24607106D-03  0.23027139D-04  0.11966384D-03 -0.26177303D-03
  0.69238165D-04 -0.20142895D-04  0.27066092D-04  0.17603939D-04 -0.67793776D-05
 -0.51233188D-04 -0.89700779D-05  0.33415443D-05 -0.29965087D-04 -0.43841740D-04
  0.16996588D-04 -0.31030657D-05 -0.36013318D-04 -0.64951503D-04 -0.95770953D-04
  0.18777968D-03 -0.11377346D-02 -0.11006742D-03 -0.22817413D-04  0.28381925D-03
  0.35651600D-04 -0.32498561D-03  0.64114841D-03  0.71735467D-04 -0.21490924D-04
 -0.92219549D-04 -0.12437427D-04 -0.10592934D-03  0.38102556D-03 -0.27509621D-03
 -0.25525876D-03 -0.21568095D-04  0.16203923D-03 -0.64685732D-04  0.97152012D-04
 -0.32466281D-04  0.63207939D-04  0.62640102D-05  0.35735639D-04  0.69387702D-03
  0.12935445D-02  0.21863181D-02  0.32867523D-02  0.40381550D-02  0.34108674D-02
  0.12864537D-02 -0.63667311D-05 -0.52229584D-03 -0.97790261D-03 -0.16649629D-02
 -0.25754444D-02 -0.33917697D-02 -0.35242659D-02 -0.22395128D-02  0.15008694D-02
  0.12834699D-02  0.55622414D-02 -0.29636902D-02 -0.12633084D-03 -0.11844319D-03
 -0.84338609D-04 -0.28802711D-03 -0.27004373D-03 -0.19228722D-03 -0.40780003D-04
 -0.38233845D-04 -0.27224775D-04 -0.55505388D-02 -0.22159173D-02 -0.45139746D-03
  0.10117066D-02 -0.33948161D-02 -0.40418482D-03 -0.25236245D-03  0.13008334D-03
  0.90078555D-05  0.62969632D-03 -0.15431814D-03 -0.47537818D-03  0.21825741D-02
  0.34663528D-03  0.15283230D-03 -0.10981672D-02  0.73072179D-03  0.36744537D-03
  0.39694515D-03 -0.37641147D-04  0.10545587D-03 -0.30774188D-03  0.35411578D-03
 -0.46373903D-04 -0.11685496D-02 -0.16530430D-03  0.67543596D-04 -0.85803701D-04
 -0.16652482D-03 -0.40324929D-04  0.46747889D-03  0.75416406D-03  0.10265097D-03
 -0.21006778D-03 -0.25458960D-03  0.18323820D-04  0.23989642D-03 -0.90080037D-04
 -0.26443877D-03 -0.38129337D-04  0.65073919D-03  0.99247368D-03  0.14303622D-03
 -0.38049908D-03 -0.19915737D-03 -0.28648208D-04  0.34294048D-03  0.35430500D-03
  0.63900366D-03  0.94221053D-03 -0.40363200D-03 -0.64429075D-03  0.74402401D-04
 -0.19608360D-02  0.83315325D-03  0.47070833D-04 -0.25892263D-02  0.16483531D-02
  0.13308409D-03 -0.48048492D-03  0.34762996D-03  0.30149384D-04 -0.29257305D-02
  0.38003012D-03  0.25457003D-02  0.53425869D-02  0.35172487D-03 -0.39827210D-03
 -0.22272116D-03  0.46792259D-04  0.17592890D-03  0.51676210D-03  0.41995055D-04
 -0.17617603D-04  0.26297738D-03  0.49024962D-03  0.82860823D-03  0.12456696D-02
  0.15304490D-02  0.12927088D-02  0.48756222D-03 -0.24129726D-05 -0.19220426D-03
 -0.35986702D-03 -0.61270439D-03 -0.94776053D-03 -0.12481673D-02 -0.12969258D-02
 -0.82413810D-03  0.55231819D-03  0.35124465D-03 -0.77038474D-02  0.26769046D-02
  0.30968425D-03  0.29034867D-03  0.20674555D-03 -0.23815736D-03 -0.22328766D-03
 -0.15899412D-03 -0.20921844D-04 -0.19615559D-04 -0.13967446D-04 -0.31408428D-02
  0.98381868D-03  0.30172178D-04  0.13717955D-02 -0.83294687D-04  0.33028518D-04
 -0.13536975D-03  0.10991927D-03  0.98985849D-05  0.47995917D-03 -0.35957702D-03
 -0.12038216D-03 -0.15285534D-03  0.16937654D-04 -0.66660686D-04  0.21716369D-03
 -0.41375916D-03  0.19659547D-03 -0.27375173D-02 -0.34904368D-03 -0.24437623D-03
 -0.57350674D-03  0.59273476D-03 -0.19228025D-04 -0.87928581D-03 -0.14582683D-03
  0.13098563D-03  0.16223781D-03  0.76487777D-04 -0.19036453D-04 -0.54896451D-03
 -0.68216594D-04  0.14991071D-05  0.62251073D-04 -0.16124674D-03  0.55610253D-04
 -0.15147538D-03  0.16894467D-03 -0.40027739D-03  0.27048978D-04 -0.42804134D-03
  0.99186574D-03  0.14658847D-03 -0.78792666D-04  0.20896641D-03 -0.22773540D-03
 -0.43879832D-04 -0.81485196D-05 -0.14696191D-04 -0.21669525D-04  0.61153661D-03
  0.14429729D-03 -0.93493258D-04 -0.67101404D-04  0.18110595D-05 -0.17741613D-05
 -0.25035625D-03  0.14600715D-03  0.10967882D-04 -0.43943344D-04 -0.66539802D-04
 -0.99487126D-05  0.11348650D-03 -0.26894066D-04 -0.86592431D-04 -0.76061986D-04
  0.25079405D-05  0.13352724D-04 -0.21113179D-04 -0.56382965D-05  0.26751476D-04
 -0.51327855D-04 -0.96149964D-05 -0.10095244D-04  0.82308422D-04  0.14844663D-03
  0.21888447D-03  0.11721400D-02 -0.13209717D-02 -0.13670257D-03  0.35114627D-03
 -0.34203326D-03 -0.33002384D-04 -0.48666437D-03  0.18412880D-03  0.81517510D-05
  0.43592625D-03 -0.28328830D-04  0.96571879D-05 -0.38120753D-03  0.43770199D-05
  0.37683051D-03 -0.55108919D-03 -0.11637139D-03 -0.11422392D-03 -0.95733085D-04
 -0.37707259D-04  0.13344034D-03 -0.32529800D-05 -0.14412978D-04 -0.44700873D-04
 -0.30148940D-04 -0.54374854D-04 -0.80175691D-04  0.19989647D-02  0.54665014D-02
  0.65113544D-04  0.81248971D-04 -0.25634982D-03 -0.30137741D-04 -0.24414587D-02
  0.27019996D-03 -0.39406970D-04 -0.26494953D-03 -0.79549691D-03 -0.10927756D-03
  0.56184877D-03 -0.24904840D-03 -0.31280037D-03  0.20448223D-03  0.79172928D-04
  0.23172352D-04  0.15497443D-03 -0.93563309D-04 -0.61411122D-04  0.14836846D-03
  0.32128715D-04 -0.37687894D-05
MO    2     MO 0.0        OCC NO =    2.0000000  ORB. ENERGY =  -13.983327
  0.44597226D-03  0.83104011D-03  0.14005324D-02  0.20895829D-02  0.25310682D-02
  0.21060373D-02  0.78219321D-03 -0.41524993D-05 -0.34835189D-03 -0.65068152D-03
 -0.11074632D-02 -0.16937428D-02 -0.22028130D-02 -0.22297461D-02 -0.14681747D-02
  0.10035784D-02  0.17502835D-02 -0.17188281D-02  0.19789287D-03  0.12330767D-02
  0.11113170D-02  0.80688821D-03 -0.42819564D-03 -0.38591362D-03 -0.28019831D-03
 -0.16841456D-04 -0.15178453D-04 -0.11020541D-04  0.34062725D-02 -0.31556906D-02
 -0.29994860D-03 -0.88725088D-03  0.56755273D-03  0.45776891D-04 -0.18969483D-04
  0.61384420D-05  0.23282222D-06  0.42849296D-03 -0.42446866D-03 -0.40242931D-05
 -0.59729653D-03 -0.50108039D-04 -0.12814050D-03  0.10875471D-02 -0.12169061D-02
  0.12935899D-03 -0.42984207D-03  0.24712885D-05 -0.36325579D-03 -0.20035786D-04
  0.23690007D-04 -0.36542208D-05  0.13163565D-04  0.76739274D-06  0.75312419D-05
 -0.32555785D-03 -0.16852067D-03  0.45614716D-05  0.55050118D-03  0.57480527D-03
  0.17840016D-04  0.42617236D-03 -0.69243257D-04 -0.31524430D-04  0.70945376D-04
  0.10518079D-03 -0.55471318D-04  0.13512436D-05 -0.40094489D-03  0.18090175D-03
  0.27157049D-04  0.85402521D-04 -0.14487798D-04 -0.31210780D-04 -0.11500323D-03
  0.41165304D+00  0.76705483D+00  0.12972820D+01  0.19536348D+01  0.24187267D+01
  0.20582272D+01  0.78319343D+00 -0.36680290D-02 -0.14579189D-02 -0.27336115D-02
 -0.46506865D-02 -0.72220252D-02 -0.95840474D-02 -0.10100270D-01 -0.62628120D-02
  0.41660249D-02  0.45812979D-01 -0.39068719D-02  0.35825009D-02 -0.27575098D-03
 -0.26485552D-03 -0.18573497D-03 -0.25157932D-04 -0.24163893D-04 -0.16945389D-04
 -0.11986882D-04 -0.11513257D-04 -0.80738905D-05  0.11371620D-03 -0.45119141D-02
 -0.57312061D-03  0.15942686D-02 -0.56202524D-02 -0.67003203D-03 -0.11271264D-03
  0.57825231D-03  0.70395624D-04  0.30572229D-03  0.43428952D-02 -0.46486175D-02
 -0.50515503D-03  0.24796590D-03  0.23220387D-02 -0.13832385D-02  0.39916176D-03
  0.98407674D-03 -0.21362149D-03 -0.17263279D-03 -0.15977044D-03  0.38419348D-03
 -0.88273244D-03  0.49853896D-03  0.63797880D-03  0.73736478D-04 -0.33857462D-03
 -0.26765413D-03 -0.21694958D-02  0.31436926D-03  0.84571706D-03  0.41828072D-02
  0.51398106D-03 -0.42754679D-04  0.23256801D-02 -0.14570888D-02  0.33503020D-03
  0.21546894D-03  0.73599978D-03 -0.35609437D-04 -0.60036236D-03 -0.19663263D-02
 -0.23023004D-03 -0.46044460D-04 -0.24167300D-03  0.33705835D-03 -0.25044113D-03
  0.96231478D-05  0.17931319D-04  0.30326356D-04  0.45669811D-04  0.56542189D-04
  0.48114851D-04  0.18308588D-04 -0.85746930D-07  0.71727613D-05  0.13448994D-04
  0.22880741D-04  0.35531375D-04  0.47152201D-04  0.49691948D-04  0.30812178D-04
 -0.20496272D-04 -0.24249503D-03  0.42429428D-02 -0.11109385D-02 -0.13324912D-03
 -0.12798419D-03 -0.89751345D-04  0.57386135D-03  0.55118697D-03  0.38653035D-03
  0.69542701D-04  0.66794933D-04  0.46841218D-04  0.46320717D-03 -0.14056166D-02
 -0.16604074D-03  0.11729683D-02 -0.22274451D-02 -0.24975806D-03 -0.52392703D-04
  0.29431180D-03  0.36113117D-04 -0.12563208D-03  0.86833769D-04  0.38798310D-04
 -0.44005391D-03 -0.66805483D-04 -0.27762312D-05 -0.28567104D-03  0.46395849D-03
 -0.17828745D-03  0.48111926D-03  0.56088302D-04  0.18323562D-03 -0.32162952D-03
  0.51740617D-03 -0.19577665D-03 -0.66950403D-03 -0.92712262D-04  0.16473302D-03
  0.91410709D-04  0.67966562D-04  0.40289105D-04 -0.10985252D-03 -0.54535657D-03
 -0.52393296D-04 -0.16437961D-03  0.34145688D-03 -0.68474019D-04 -0.42256606D-04
  0.10072062D-03 -0.87252717D-04 -0.30406746D-04 -0.34761597D-03  0.50513005D-03
  0.71564692D-04  0.45454110D-04 -0.24337190D-03  0.19655547D-04 -0.55186593D-04
  0.41705032D-04  0.75216742D-04  0.11090704D-03  0.20843010D-03 -0.27929683D-03
 -0.12530556D-03  0.31978458D-03  0.14581333D-04  0.10838116D-04  0.11510716D-03
 -0.29220184D-03 -0.32510487D-04  0.15892246D-04  0.17555312D-05  0.11345830D-05
  0.17187798D-03 -0.35000444D-03  0.17812646D-03 -0.36125191D-03 -0.46581604D-04