 Molden2AIM, Version 4.0.0 (06/02/2016)           Time: Fri Jun 29 05:09:25 2018
GAUSSIAN             33 MOL ORBITALS    600 PRIMITIVES        8 NUCLEI
  C    1    (CENTRE  1)  -1.46016681 -0.03828396  0.03469915  CHARGE =  6.0
  C    2    (CENTRE  2)   1.46016681  0.03828396 -0.03469915  CHARGE =  6.0
  F    3    (CENTRE  3)  -2.31828955  1.58999666  1.75442551  CHARGE =  9.0
  F    4    (CENTRE  4)   2.31828955 -1.58999666 -1.75442551  CHARGE =  9.0
  F    5    (CENTRE  5)  -2.38476256  0.58634800 -2.22397332  CHARGE =  9.0
  F    6    (CENTRE  6)   2.38476256 -0.58634800  2.22397332  CHARGE =  9.0
  F    7    (CENTRE  7)  -2.23833524 -2.35791711  0.63473066  CHARGE =  9.0
  F    8    (CENTRE  8)   2.23833524  2.35791711 -0.63473066  CHARGE =  9.0
CENTRE ASSIGNMENTS    1  1  1  1  1  1  1  1  1  1  1  1  1  1  1  1  1  1  1  1
CENTRE ASSIGNMENTS    1  1  1  1  1  1  1  1  1  1  1  1  1  1  1  1  1  1  1  1
CENTRE ASSIGNMENTS    1  1  1  1  1  1  1  1  1  1  1  1  1  1  1  1  1  1  1  1
CENTRE ASSIGNMENTS    1  1  1  1  1  1  1  1  1  1  1  1  1  1  1  2  2  2  2  2
CENTRE ASSIGNMENTS    2  2  2  2  2  2  2  2  2  2  2  2  2  2  2  2  2  2  2  2
CENTRE ASSIGNMENTS    2  2  2  2  2  2  2  2  2  2  2  2  2  2  2  2  2  2  2  2
CENTRE ASSIGNMENTS    2  2  2  2  2  2  2  2  2  2  2  2  2  2  2  2  2  2  2  2
CENTRE ASSIGNMENTS    2  2  2  2  2  2  2  2  2  2  3  3  3  3  3  3  3  3  3  3
CENTRE ASSIGNMENTS    3  3  3  3  3  3  3  3  3  3  3  3  3  3  3  3  3  3  3  3
CENTRE ASSIGNMENTS    3  3  3  3  3  3  3  3  3  3  3  3  3  3  3  3  3  3  3  3
CENTRE ASSIGNMENTS    3  3  3  3  3  3  3  3  3  3  3  3  3  3  3  3  3  3  3  3
CENTRE ASSIGNMENTS    3  3  3  3  3  4  4  4  4  4  4  4  4  4  4  4  4  4  4  4
CENTRE ASSIGNMENTS    4  4  4  4  4  4  4  4  4  4  4  4  4  4  4  4  4  4  4  4
CENTRE ASSIGNMENTS    4  4  4  4  4  4  4  4  4  4  4  4  4  4  4  4  4  4  4  4
CENTRE ASSIGNMENTS    4  4  4  4  4  4  4  4  4  4  4  4  4  4  4  4  4  4  4  4
CENTRE ASSIGNMENTS    5  5  5  5  5  5  5  5  5  5  5  5  5  5  5  5  5  5  5  5
CENTRE ASSIGNMENTS    5  5  5  5  5  5  5  5  5  5  5  5  5  5  5  5  5  5  5  5
CENTRE ASSIGNMENTS    5  5  5  5  5  5  5  5  5  5  5  5  5  5  5  5  5  5  5  5
CENTRE ASSIGNMENTS    5  5  5  5  5  5  5  5  5  5  5  5  5  5  5  6  6  6  6  6
CENTRE ASSIGNMENTS    6  6  6  6  6  6  6  6  6  6  6  6  6  6  6  6  6  6  6  6
CENTRE ASSIGNMENTS    6  6  6  6  6  6  6  6  6  6  6  6  6  6  6  6  6  6  6  6
CENTRE ASSIGNMENTS    6  6  6  6  6  6  6  6  6  6  6  6  6  6  6  6  6  6  6  6
CENTRE ASSIGNMENTS    6  6  6  6  6  6  6  6  6  6  7  7  7  7  7  7  7  7  7  7
CENTRE ASSIGNMENTS    7  7  7  7  7  7  7  7  7  7  7  7  7  7  7  7  7  7  7  7
CENTRE ASSIGNMENTS    7  7  7  7  7  7  7  7  7  7  7  7  7  7  7  7  7  7  7  7
CENTRE ASSIGNMENTS    7  7  7  7  7  7  7  7  7  7  7  7  7  7  7  7  7  7  7  7
CENTRE ASSIGNMENTS    7  7  7  7  7  8  8  8  8  8  8  8  8  8  8  8  8  8  8  8
CENTRE ASSIGNMENTS    8  8  8  8  8  8  8  8  8  8  8  8  8  8  8  8  8  8  8  8
CENTRE ASSIGNMENTS    8  8  8  8  8  8  8  8  8  8  8  8  8  8  8  8  8  8  8  8
CENTRE ASSIGNMENTS    8  8  8  8  8  8  8  8  8  8  8  8  8  8  8  8  8  8  8  8
TYPE ASSIGNMENTS      1  1  1  1  1  1  1  1  1  1  1  1  1  1  1  1  1  1  1  2
TYPE ASSIGNMENTS      2  2  3  3  3  4  4  4  2  3  4  2  3  4  2  3  4  5  6  7
TYPE ASSIGNMENTS      8  9 10  5  6  7  8  9 10  5  6  7  8  9 10 11 12 13 17 14
TYPE ASSIGNMENTS     15 18 19 16 20 11 12 13 17 14 15 18 19 16 20  1  1  1  1  1
TYPE ASSIGNMENTS      1  1  1  1  1  1  1  1  1  1  1  1  1  1  2  2  2  3  3  3
TYPE ASSIGNMENTS      4  4  4  2  3  4  2  3  4  2  3  4  5  6  7  8  9 10  5  6
TYPE ASSIGNMENTS      7  8  9 10  5  6  7  8  9 10 11 12 13 17 14 15 18 19 16 20
TYPE ASSIGNMENTS     11 12 13 17 14 15 18 19 16 20  1  1  1  1  1  1  1  1  1  1
TYPE ASSIGNMENTS      1  1  1  1  1  1  1  1  1  2  2  2  3  3  3  4  4  4  2  3
TYPE ASSIGNMENTS      4  2  3  4  2  3  4  5  6  7  8  9 10  5  6  7  8  9 10  5
TYPE ASSIGNMENTS      6  7  8  9 10 11 12 13 17 14 15 18 19 16 20 11 12 13 17 14
TYPE ASSIGNMENTS     15 18 19 16 20  1  1  1  1  1  1  1  1  1  1  1  1  1  1  1
TYPE ASSIGNMENTS      1  1  1  1  2  2  2  3  3  3  4  4  4  2  3  4  2  3  4  2
TYPE ASSIGNMENTS      3  4  5  6  7  8  9 10  5  6  7  8  9 10  5  6  7  8  9 10
TYPE ASSIGNMENTS     11 12 13 17 14 15 18 19 16 20 11 12 13 17 14 15 18 19 16 20
TYPE ASSIGNMENTS      1  1  1  1  1  1  1  1  1  1  1  1  1  1  1  1  1  1  1  2
TYPE ASSIGNMENTS      2  2  3  3  3  4  4  4  2  3  4  2  3  4  2  3  4  5  6  7
TYPE ASSIGNMENTS      8  9 10  5  6  7  8  9 10  5  6  7  8  9 10 11 12 13 17 14
TYPE ASSIGNMENTS     15 18 19 16 20 11 12 13 17 14 15 18 19 16 20  1  1  1  1  1
TYPE ASSIGNMENTS      1  1  1  1  1  1  1  1  1  1  1  1  1  1  2  2  2  3  3  3
TYPE ASSIGNMENTS      4  4  4  2  3  4  2  3  4  2  3  4  5  6  7  8  9 10  5  6
TYPE ASSIGNMENTS      7  8  9 10  5  6  7  8  9 10 11 12 13 17 14 15 18 19 16 20
TYPE ASSIGNMENTS     11 12 13 17 14 15 18 19 16 20  1  1  1  1  1  1  1  1  1  1
TYPE ASSIGNMENTS      1  1  1  1  1  1  1  1  1  2  2  2  3  3  3  4  4  4  2  3
TYPE ASSIGNMENTS      4  2  3  4  2  3  4  5  6  7  8  9 10  5  6  7  8  9 10  5
TYPE ASSIGNMENTS      6  7  8  9 10 11 12 13 17 14 15 18 19 16 20 11 12 13 17 14
TYPE ASSIGNMENTS     15 18 19 16 20  1  1  1  1  1  1  1  1  1  1  1  1  1  1  1
TYPE ASSIGNMENTS      1  1  1  1  2  2  2  3  3  3  4  4  4  2  3  4  2  3  4  2
TYPE ASSIGNMENTS      3  4  5  6  7  8  9 10  5  6  7  8  9 10  5  6  7  8  9 10
TYPE ASSIGNMENTS     11 12 13 17 14 15 18 19 16 20 11 12 13 17 14 15 18 19 16 20
EXPONENTS  0.8236000D+04 0.1235000D+04 0.2808000D+03 0.7927000D+02 0.2559000D+02
EXPONENTS  0.8997000D+01 0.3319000D+01 0.3643000D+00 0.8236000D+04 0.1235000D+04
EXPONENTS  0.2808000D+03 0.7927000D+02 0.2559000D+02 0.8997000D+01 0.3319000D+01
EXPONENTS  0.3643000D+00 0.9059000D+00 0.1285000D+00 0.4402000D-01 0.1871000D+02
EXPONENTS  0.4133000D+01 0.1200000D+01 0.1871000D+02 0.4133000D+01 0.1200000D+01
EXPONENTS  0.1871000D+02 0.4133000D+01 0.1200000D+01 0.3827000D+00 0.3827000D+00
EXPONENTS  0.3827000D+00 0.1209000D+00 0.1209000D+00 0.1209000D+00 0.3569000D-01
EXPONENTS  0.3569000D-01 0.3569000D-01 0.1097000D+01 0.1097000D+01 0.1097000D+01
EXPONENTS  0.1097000D+01 0.1097000D+01 0.1097000D+01 0.3180000D+00 0.3180000D+00
EXPONENTS  0.3180000D+00 0.3180000D+00 0.3180000D+00 0.3180000D+00 0.1000000D+00
EXPONENTS  0.1000000D+00 0.1000000D+00 0.1000000D+00 0.1000000D+00 0.1000000D+00
EXPONENTS  0.7610000D+00 0.7610000D+00 0.7610000D+00 0.7610000D+00 0.7610000D+00
EXPONENTS  0.7610000D+00 0.7610000D+00 0.7610000D+00 0.7610000D+00 0.7610000D+00
EXPONENTS  0.2680000D+00 0.2680000D+00 0.2680000D+00 0.2680000D+00 0.2680000D+00
EXPONENTS  0.2680000D+00 0.2680000D+00 0.2680000D+00 0.2680000D+00 0.2680000D+00
EXPONENTS  0.8236000D+04 0.1235000D+04 0.2808000D+03 0.7927000D+02 0.2559000D+02
EXPONENTS  0.8997000D+01 0.3319000D+01 0.3643000D+00 0.8236000D+04 0.1235000D+04
EXPONENTS  0.2808000D+03 0.7927000D+02 0.2559000D+02 0.8997000D+01 0.3319000D+01
EXPONENTS  0.3643000D+00 0.9059000D+00 0.1285000D+00 0.4402000D-01 0.1871000D+02
EXPONENTS  0.4133000D+01 0.1200000D+01 0.1871000D+02 0.4133000D+01 0.1200000D+01
EXPONENTS  0.1871000D+02 0.4133000D+01 0.1200000D+01 0.3827000D+00 0.3827000D+00
EXPONENTS  0.3827000D+00 0.1209000D+00 0.1209000D+00 0.1209000D+00 0.3569000D-01
EXPONENTS  0.3569000D-01 0.3569000D-01 0.1097000D+01 0.1097000D+01 0.1097000D+01
EXPONENTS  0.1097000D+01 0.1097000D+01 0.1097000D+01 0.3180000D+00 0.3180000D+00
EXPONENTS  0.3180000D+00 0.3180000D+00 0.3180000D+00 0.3180000D+00 0.1000000D+00
EXPONENTS  0.1000000D+00 0.1000000D+00 0.1000000D+00 0.1000000D+00 0.1000000D+00
EXPONENTS  0.7610000D+00 0.7610000D+00 0.7610000D+00 0.7610000D+00 0.7610000D+00
EXPONENTS  0.7610000D+00 0.7610000D+00 0.7610000D+00 0.7610000D+00 0.7610000D+00
EXPONENTS  0.2680000D+00 0.2680000D+00 0.2680000D+00 0.2680000D+00 0.2680000D+00
EXPONENTS  0.2680000D+00 0.2680000D+00 0.2680000D+00 0.2680000D+00 0.2680000D+00
EXPONENTS  0.1950000D+05 0.2923000D+04 0.6645000D+03 0.1875000D+03 0.6062000D+02
EXPONENTS  0.2142000D+02 0.7950000D+01 0.8815000D+00 0.1950000D+05 0.2923000D+04
EXPONENTS  0.6645000D+03 0.1875000D+03 0.6062000D+02 0.2142000D+02 0.7950000D+01
EXPONENTS  0.8815000D+00 0.2257000D+01 0.3041000D+00 0.9158000D-01 0.4388000D+02
EXPONENTS  0.9926000D+01 0.2930000D+01 0.4388000D+02 0.9926000D+01 0.2930000D+01
EXPONENTS  0.4388000D+02 0.9926000D+01 0.2930000D+01 0.9132000D+00 0.9132000D+00
EXPONENTS  0.9132000D+00 0.2672000D+00 0.2672000D+00 0.2672000D+00 0.7361000D-01
EXPONENTS  0.7361000D-01 0.7361000D-01 0.3107000D+01 0.3107000D+01 0.3107000D+01
EXPONENTS  0.3107000D+01 0.3107000D+01 0.3107000D+01 0.8550000D+00 0.8550000D+00
EXPONENTS  0.8550000D+00 0.8550000D+00 0.8550000D+00 0.8550000D+00 0.2920000D+00
EXPONENTS  0.2920000D+00 0.2920000D+00 0.2920000D+00 0.2920000D+00 0.2920000D+00
EXPONENTS  0.1917000D+01 0.1917000D+01 0.1917000D+01 0.1917000D+01 0.1917000D+01
EXPONENTS  0.1917000D+01 0.1917000D+01 0.1917000D+01 0.1917000D+01 0.1917000D+01
EXPONENTS  0.7240000D+00 0.7240000D+00 0.7240000D+00 0.7240000D+00 0.7240000D+00
EXPONENTS  0.7240000D+00 0.7240000D+00 0.7240000D+00 0.7240000D+00 0.7240000D+00
EXPONENTS  0.1950000D+05 0.2923000D+04 0.6645000D+03 0.1875000D+03 0.6062000D+02
EXPONENTS  0.2142000D+02 0.7950000D+01 0.8815000D+00 0.1950000D+05 0.2923000D+04
EXPONENTS  0.6645000D+03 0.1875000D+03 0.6062000D+02 0.2142000D+02 0.7950000D+01
EXPONENTS  0.8815000D+00 0.2257000D+01 0.3041000D+00 0.9158000D-01 0.4388000D+02
EXPONENTS  0.9926000D+01 0.2930000D+01 0.4388000D+02 0.9926000D+01 0.2930000D+01
EXPONENTS  0.4388000D+02 0.9926000D+01 0.2930000D+01 0.9132000D+00 0.9132000D+00
EXPONENTS  0.9132000D+00 0.2672000D+00 0.2672000D+00 0.2672000D+00 0.7361000D-01
EXPONENTS  0.7361000D-01 0.7361000D-01 0.3107000D+01 0.3107000D+01 0.3107000D+01
EXPONENTS  0.3107000D+01 0.3107000D+01 0.3107000D+01 0.8550000D+00 0.8550000D+00
EXPONENTS  0.8550000D+00 0.8550000D+00 0.8550000D+00 0.8550000D+00 0.2920000D+00
EXPONENTS  0.2920000D+00 0.2920000D+00 0.2920000D+00 0.2920000D+00 0.2920000D+00
EXPONENTS  0.1917000D+01 0.1917000D+01 0.1917000D+01 0.1917000D+01 0.1917000D+01
EXPONENTS  0.1917000D+01 0.1917000D+01 0.1917000D+01 0.1917000D+01 0.1917000D+01
EXPONENTS  0.7240000D+00 0.7240000D+00 0.7240000D+00 0.7240000D+00 0.7240000D+00
EXPONENTS  0.7240000D+00 0.7240000D+00 0.7240000D+00 0.7240000D+00 0.7240000D+00
EXPONENTS  0.1950000D+05 0.2923000D+04 0.6645000D+03 0.1875000D+03 0.6062000D+02
EXPONENTS  0.2142000D+02 0.7950000D+01 0.8815000D+00 0.1950000D+05 0.2923000D+04
EXPONENTS  0.6645000D+03 0.1875000D+03 0.6062000D+02 0.2142000D+02 0.7950000D+01
EXPONENTS  0.8815000D+00 0.2257000D+01 0.3041000D+00 0.9158000D-01 0.4388000D+02
EXPONENTS  0.9926000D+01 0.2930000D+01 0.4388000D+02 0.9926000D+01 0.2930000D+01
EXPONENTS  0.4388000D+02 0.9926000D+01 0.2930000D+01 0.9132000D+00 0.9132000D+00
EXPONENTS  0.9132000D+00 0.2672000D+00 0.2672000D+00 0.2672000D+00 0.7361000D-01
EXPONENTS  0.7361000D-01 0.7361000D-01 0.3107000D+01 0.3107000D+01 0.3107000D+01
EXPONENTS  0.3107000D+01 0.3107000D+01 0.3107000D+01 0.8550000D+00 0.8550000D+00
EXPONENTS  0.8550000D+00 0.8550000D+00 0.8550000D+00 0.8550000D+00 0.2920000D+00
EXPONENTS  0.2920000D+00 0.2920000D+00 0.2920000D+00 0.2920000D+00 0.2920000D+00
EXPONENTS  0.1917000D+01 0.1917000D+01 0.1917000D+01 0.1917000D+01 0.1917000D+01
EXPONENTS  0.1917000D+01 0.1917000D+01 0.1917000D+01 0.1917000D+01 0.1917000D+01
EXPONENTS  0.7240000D+00 0.7240000D+00 0.7240000D+00 0.7240000D+00 0.7240000D+00
EXPONENTS  0.7240000D+00 0.7240000D+00 0.7240000D+00 0.7240000D+00 0.7240000D+00
EXPONENTS  0.1950000D+05 0.2923000D+04 0.6645000D+03 0.1875000D+03 0.6062000D+02
EXPONENTS  0.2142000D+02 0.7950000D+01 0.8815000D+00 0.1950000D+05 0.2923000D+04
EXPONENTS  0.6645000D+03 0.1875000D+03 0.6062000D+02 0.2142000D+02 0.7950000D+01
EXPONENTS  0.8815000D+00 0.2257000D+01 0.3041000D+00 0.9158000D-01 0.4388000D+02
EXPONENTS  0.9926000D+01 0.2930000D+01 0.4388000D+02 0.9926000D+01 0.2930000D+01
EXPONENTS  0.4388000D+02 0.9926000D+01 0.2930000D+01 0.9132000D+00 0.9132000D+00
EXPONENTS  0.9132000D+00 0.2672000D+00 0.2672000D+00 0.2672000D+00 0.7361000D-01
EXPONENTS  0.7361000D-01 0.7361000D-01 0.3107000D+01 0.3107000D+01 0.3107000D+01
EXPONENTS  0.3107000D+01 0.3107000D+01 0.3107000D+01 0.8550000D+00 0.8550000D+00
EXPONENTS  0.8550000D+00 0.8550000D+00 0.8550000D+00 0.8550000D+00 0.2920000D+00
EXPONENTS  0.2920000D+00 0.2920000D+00 0.2920000D+00 0.2920000D+00 0.2920000D+00
EXPONENTS  0.1917000D+01 0.1917000D+01 0.1917000D+01 0.1917000D+01 0.1917000D+01
EXPONENTS  0.1917000D+01 0.1917000D+01 0.1917000D+01 0.1917000D+01 0.1917000D+01
EXPONENTS  0.7240000D+00 0.7240000D+00 0.7240000D+00 0.7240000D+00 0.7240000D+00
EXPONENTS  0.7240000D+00 0.7240000D+00 0.7240000D+00 0.7240000D+00 0.7240000D+00
EXPONENTS  0.1950000D+05 0.2923000D+04 0.6645000D+03 0.1875000D+03 0.6062000D+02
EXPONENTS  0.2142000D+02 0.7950000D+01 0.8815000D+00 0.1950000D+05 0.2923000D+04
EXPONENTS  0.6645000D+03 0.1875000D+03 0.6062000D+02 0.2142000D+02 0.7950000D+01
EXPONENTS  0.8815000D+00 0.2257000D+01 0.3041000D+00 0.9158000D-01 0.4388000D+02
EXPONENTS  0.9926000D+01 0.2930000D+01 0.4388000D+02 0.9926000D+01 0.2930000D+01
EXPONENTS  0.4388000D+02 0.9926000D+01 0.2930000D+01 0.9132000D+00 0.9132000D+00
EXPONENTS  0.9132000D+00 0.2672000D+00 0.2672000D+00 0.2672000D+00 0.7361000D-01
EXPONENTS  0.7361000D-01 0.7361000D-01 0.3107000D+01 0.3107000D+01 0.3107000D+01
EXPONENTS  0.3107000D+01 0.3107000D+01 0.3107000D+01 0.8550000D+00 0.8550000D+00
EXPONENTS  0.8550000D+00 0.8550000D+00 0.8550000D+00 0.8550000D+00 0.2920000D+00
EXPONENTS  0.2920000D+00 0.2920000D+00 0.2920000D+00 0.2920000D+00 0.2920000D+00
EXPONENTS  0.1917000D+01 0.1917000D+01 0.1917000D+01 0.1917000D+01 0.1917000D+01
EXPONENTS  0.1917000D+01 0.1917000D+01 0.1917000D+01 0.1917000D+01 0.1917000D+01
EXPONENTS  0.7240000D+00 0.7240000D+00 0.7240000D+00 0.7240000D+00 0.7240000D+00
EXPONENTS  0.7240000D+00 0.7240000D+00 0.7240000D+00 0.7240000D+00 0.7240000D+00
EXPONENTS  0.1950000D+05 0.2923000D+04 0.6645000D+03 0.1875000D+03 0.6062000D+02
EXPONENTS  0.2142000D+02 0.7950000D+01 0.8815000D+00 0.1950000D+05 0.2923000D+04
EXPONENTS  0.6645000D+03 0.1875000D+03 0.6062000D+02 0.2142000D+02 0.7950000D+01
EXPONENTS  0.8815000D+00 0.2257000D+01 0.3041000D+00 0.9158000D-01 0.4388000D+02
EXPONENTS  0.9926000D+01 0.2930000D+01 0.4388000D+02 0.9926000D+01 0.2930000D+01
EXPONENTS  0.4388000D+02 0.9926000D+01 0.2930000D+01 0.9132000D+00 0.9132000D+00
EXPONENTS  0.9132000D+00 0.2672000D+00 0.2672000D+00 0.2672000D+00 0.7361000D-01
EXPONENTS  0.7361000D-01 0.7361000D-01 0.3107000D+01 0.3107000D+01 0.3107000D+01
EXPONENTS  0.3107000D+01 0.3107000D+01 0.3107000D+01 0.8550000D+00 0.8550000D+00
EXPONENTS  0.8550000D+00 0.8550000D+00 0.8550000D+00 0.8550000D+00 0.2920000D+00
EXPONENTS  0.2920000D+00 0.2920000D+00 0.2920000D+00 0.2920000D+00 0.2920000D+00
EXPONENTS  0.1917000D+01 0.1917000D+01 0.1917000D+01 0.1917000D+01 0.1917000D+01
EXPONENTS  0.1917000D+01 0.1917000D+01 0.1917000D+01 0.1917000D+01 0.1917000D+01
EXPONENTS  0.7240000D+00 0.7240000D+00 0.7240000D+00 0.7240000D+00 0.7240000D+00
EXPONENTS  0.7240000D+00 0.7240000D+00 0.7240000D+00 0.7240000D+00 0.7240000D+00
MO    1     MO 0.0        OCC NO =    2.0000000  ORB. ENERGY =  -24.329255
  0.14520707D-03  0.27069900D-03  0.45752899D-03  0.68781594D-03  0.84506136D-03
  0.71378941D-03  0.26921510D-03 -0.13323606D-05 -0.10130810D-03 -0.18968073D-03
 -0.32294767D-03 -0.49955093D-03 -0.65789100D-03 -0.68359089D-03 -0.43439133D-03
  0.29111897D-03 -0.33422817D-03  0.26992597D-02  0.60865093D-03  0.18921079D-03
  0.17739714D-03  0.12631733D-03  0.40991924D-03  0.38432534D-03  0.27366254D-03
 -0.10729545D-03 -0.10059630D-03 -0.71630560D-04 -0.67501624D-03 -0.14487101D-02
  0.37916155D-03  0.65124422D-03 -0.11122321D-03  0.16915981D-04  0.29720506D-04
  0.41513916D-05 -0.15593408D-05 -0.23070656D-03  0.61066530D-03 -0.37995874D-03
  0.73838954D-03 -0.19471830D-03 -0.54865147D-03 -0.32623484D-03  0.37461805D-03
 -0.48383202D-04  0.32079166D-03 -0.73082459D-04 -0.23478923D-03  0.31048627D-04
 -0.25616565D-04 -0.54320621D-05  0.79235250D-05 -0.32009510D-05  0.10707052D-04
  0.11377787D-03 -0.15834959D-03 -0.84545359D-04 -0.45434379D-03  0.22025437D-03
 -0.56361075D-04  0.11301019D-03  0.25479441D-03  0.30999715D-03  0.31174915D-03
 -0.22051754D-04 -0.31152250D-04 -0.26199450D-04  0.94480619D-04  0.52608921D-05
 -0.14004610D-05 -0.28325358D-04  0.88195858D-04  0.79998812D-04 -0.62121467D-04
 -0.14520707D-03 -0.27069899D-03 -0.45752898D-03 -0.68781592D-03 -0.84506133D-03
 -0.71378939D-03 -0.26921509D-03  0.13323605D-05  0.10130810D-03  0.18968072D-03
  0.32294765D-03  0.49955092D-03  0.65789098D-03  0.68359087D-03  0.43439131D-03
 -0.29111896D-03  0.33422816D-03 -0.26992597D-02 -0.60865093D-03  0.18921078D-03
  0.17739714D-03  0.12631733D-03  0.40991923D-03  0.38432533D-03  0.27366253D-03
 -0.10729545D-03 -0.10059630D-03 -0.71630558D-04 -0.67501623D-03 -0.14487101D-02
  0.37916154D-03  0.65124422D-03 -0.11122321D-03  0.16915981D-04  0.29720506D-04
  0.41513917D-05 -0.15593408D-05  0.23070656D-03 -0.61066528D-03  0.37995873D-03
 -0.73838952D-03  0.19471829D-03  0.54865146D-03  0.32623484D-03 -0.37461804D-03
  0.48383195D-04 -0.32079165D-03  0.73082456D-04  0.23478922D-03 -0.31048628D-04
  0.25616565D-04  0.54320623D-05 -0.79235241D-05  0.32009508D-05 -0.10707052D-04
  0.11377786D-03 -0.15834959D-03 -0.84545357D-04 -0.45434378D-03  0.22025436D-03
 -0.56361074D-04  0.11301018D-03  0.25479441D-03  0.30999714D-03  0.31174914D-03
 -0.22051754D-04 -0.31152249D-04 -0.26199450D-04  0.94480621D-04  0.52608899D-05
 -0.14004604D-05 -0.28325358D-04  0.88195858D-04  0.79998811D-04 -0.62121467D-04
  0.15549539D-02  0.28985015D-02  0.49136727D-02  0.74407486D-02  0.93046822D-02
  0.80104646D-02  0.30795151D-02 -0.13344043D-04 -0.21944638D-04 -0.41208144D-04
 -0.70170362D-04 -0.10992146D-03 -0.14730768D-03 -0.15844928D-03 -0.95132737D-04
  0.62563290D-04  0.15151416D-03 -0.32203652D-03 -0.34493737D-04 -0.34072422D-04
 -0.33322085D-04 -0.22017310D-04 -0.33110054D-04 -0.32380909D-04 -0.21395436D-04
 -0.19469007D-04 -0.19040264D-04 -0.12580707D-04  0.38190440D-04  0.27040820D-04
  0.33299473D-04 -0.20849184D-03  0.42805110D-04 -0.81402357D-05  0.65109222D-05
 -0.14088979D-04 -0.42305468D-05  0.62776820D-04  0.15283547D-03 -0.21561229D-03
  0.35155297D-04 -0.69644461D-04 -0.76998791D-04 -0.24145536D-04 -0.51275828D-04
  0.75421365D-04  0.10709813D-04  0.38545409D-04  0.12209157D-04 -0.38618393D-04
  0.10269792D-04  0.28348601D-04 -0.32954602D-05  0.66442008D-04  0.25849690D-04
  0.22852584D-04 -0.16254601D-03  0.14016499D-03 -0.17329945D-03  0.17220114D-03
 -0.25317701D-03  0.10474170D-03  0.31543690D-03 -0.16731797D-03 -0.32936497D-03
 -0.11981872D-04  0.55097383D-04 -0.52326047D-04  0.66470849D-04 -0.49141893D-04
  0.10816827D-03 -0.30525234D-04 -0.11615026D-03  0.48809870D-04  0.98947105D-04
 -0.15549544D-02 -0.28985023D-02 -0.49136741D-02 -0.74407507D-02 -0.93046848D-02
 -0.80104669D-02 -0.30795159D-02  0.13344047D-04  0.21944638D-04  0.41208143D-04
  0.70170361D-04  0.10992146D-03  0.14730768D-03  0.15844927D-03  0.95132736D-04
 -0.62563290D-04 -0.15151421D-03  0.32203652D-03  0.34493739D-04 -0.34072420D-04
 -0.33322082D-04 -0.22017309D-04 -0.33110059D-04 -0.32380914D-04 -0.21395439D-04
 -0.19469012D-04 -0.19040269D-04 -0.12580711D-04  0.38190440D-04  0.27040822D-04
  0.33299475D-04 -0.20849185D-03  0.42805115D-04 -0.81402328D-05  0.65109222D-05
 -0.14088979D-04 -0.42305464D-05 -0.62776820D-04 -0.15283547D-03  0.21561229D-03
 -0.35155291D-04  0.69644466D-04  0.76998786D-04  0.24145536D-04  0.51275828D-04
 -0.75421364D-04 -0.10709815D-04 -0.38545410D-04 -0.12209155D-04  0.38618393D-04
 -0.10269791D-04 -0.28348601D-04  0.32954587D-05 -0.66442011D-04 -0.25849687D-04
  0.22852582D-04 -0.16254601D-03  0.14016500D-03 -0.17329945D-03  0.17220114D-03
 -0.25317701D-03  0.10474171D-03  0.31543689D-03 -0.16731797D-03 -0.32936496D-03
 -0.11981871D-04  0.55097381D-04 -0.52326048D-04  0.66470848D-04 -0.49141892D-04
  0.10816827D-03 -0.30525235D-04 -0.11615025D-03  0.48809870D-04  0.98947100D-04
  0.12265772D-02  0.22863930D-02  0.38759982D-02  0.58694036D-02  0.73397098D-02
  0.63188065D-02  0.24291799D-02 -0.10526034D-04 -0.22414174D-04 -0.42089848D-04
 -0.71671753D-04 -0.11227338D-03 -0.15045953D-03 -0.16183951D-03 -0.97168232D-04
  0.63901917D-04  0.11412725D-03 -0.32202307D-03 -0.34408966D-04 -0.34446326D-04
 -0.33687755D-04 -0.22258924D-04 -0.17851673D-04 -0.17458546D-04 -0.11535600D-04
  0.29762013D-04  0.29106598D-04  0.19231960D-04  0.36937939D-04  0.70871094D-05
 -0.42515022D-04 -0.20826269D-03  0.42932681D-04 -0.59938933D-05  0.67809821D-05
 -0.10414930D-04  0.10224652D-04  0.65949750D-04  0.10154510D-03 -0.16749485D-03
  0.57221709D-04  0.26417891D-04 -0.26456168D-03 -0.25940043D-04 -0.27743667D-04
  0.53683710D-04 -0.61661595D-05 -0.32864478D-04  0.98548653D-04 -0.40630776D-04
  0.37123557D-05  0.36918421D-04 -0.33739163D-04 -0.51979395D-04  0.22126215D-05
  0.29669110D-04 -0.20804318D-05 -0.15758802D-03  0.32746119D-04  0.28366550D-03
  0.13436721D-03 -0.12175345D-03 -0.27742420D-03  0.33839686D-03  0.38254976D-03
 -0.15148778D-04  0.22263597D-05  0.61661784D-04  0.13088602D-05 -0.98059057D-04
 -0.69256657D-04  0.44137473D-04  0.91379977D-04 -0.11572870D-03 -0.12469034D-03
 -0.12265775D-02 -0.22863936D-02 -0.38759993D-02 -0.58694052D-02 -0.73397118D-02
 -0.63188082D-02 -0.24291806D-02  0.10526037D-04  0.22414173D-04  0.42089848D-04
  0.71671752D-04  0.11227338D-03  0.15045953D-03  0.16183951D-03  0.97168231D-04
 -0.63901917D-04 -0.11412728D-03  0.32202307D-03  0.34408968D-04 -0.34446324D-04
 -0.33687752D-04 -0.22258922D-04 -0.17851675D-04 -0.17458548D-04 -0.11535601D-04
  0.29762019D-04  0.29106604D-04  0.19231964D-04  0.36937939D-04  0.70871104D-05
 -0.42515024D-04 -0.20826269D-03  0.42932684D-04 -0.59938980D-05  0.67809821D-05
 -0.10414930D-04  0.10224651D-04 -0.65949751D-04 -0.10154510D-03  0.16749485D-03
 -0.57221706D-04 -0.26417898D-04  0.26456167D-03  0.25940043D-04  0.27743666D-04
 -0.53683709D-04  0.61661578D-05  0.32864480D-04 -0.98548652D-04  0.40630776D-04
 -0.37123563D-05 -0.36918420D-04  0.33739162D-04  0.51979398D-04 -0.22126242D-05
  0.29669109D-04 -0.20804306D-05 -0.15758802D-03  0.32746117D-04  0.28366549D-03
  0.13436721D-03 -0.12175344D-03 -0.27742420D-03  0.33839685D-03  0.38254975D-03
 -0.15148777D-04  0.22263590D-05  0.61661783D-04  0.13088610D-05 -0.98059056D-04
 -0.69256659D-04  0.44137469D-04  0.91379978D-04 -0.11572869D-03 -0.12469034D-03
  0.41932548D+00  0.78164087D+00  0.13250734D+01  0.20065517D+01  0.25091999D+01
  0.21601874D+01  0.83045491D+00 -0.35984971D-02  0.57979934D-03  0.10887605D-02
  0.18539713D-02  0.29042351D-02  0.38920167D-02  0.41863887D-02  0.25135023D-02
 -0.16529849D-02  0.47708237D-01 -0.76328417D-03 -0.56028409D-03  0.19573965D-02
  0.19142910D-02  0.12648530D-02  0.52214823D-02  0.51064956D-02  0.33740776D-02
 -0.13553269D-02 -0.13254801D-02 -0.87580077D-03 -0.48492510D-03 -0.10910526D-02
  0.28434959D-03 -0.45596944D-03 -0.95118982D-03  0.24854791D-03 -0.98654911D-05
 -0.64641712D-04  0.16504770D-04 -0.74542979D-03  0.17726725D-02 -0.10272427D-02
  0.21163836D-02 -0.55219770D-03 -0.15544367D-02  0.24336829D-03 -0.62429642D-03
  0.38092813D-03 -0.78207569D-03  0.20516164D-03  0.55824556D-03  0.80264852D-04
 -0.17125602D-03  0.90991171D-04 -0.23187107D-03  0.59716407D-04  0.14630945D-03
 -0.18829760D-03  0.16312076D-03  0.69300833D-04  0.46925233D-03 -0.27265551D-03
  0.80751065D-04  0.95640467D-04 -0.21670676D-03 -0.28865356D-03 -0.20357314D-03
  0.14240149D-03 -0.17634471D-03 -0.92721874D-04 -0.47921618D-03  0.24449448D-03
 -0.65952871D-04  0.52011709D-04  0.28453965D-03  0.34411849D-03  0.29323296D-03
 -0.41932547D+00 -0.78164085D+00 -0.13250734D+01 -0.20065516D+01 -0.25091999D+01
 -0.21601874D+01 -0.83045489D+00  0.35984970D-02 -0.57979932D-03 -0.10887604D-02
 -0.18539713D-02 -0.29042350D-02 -0.38920166D-02 -0.41863886D-02 -0.25135022D-02
  0.16529848D-02 -0.47708236D-01  0.76328415D-03  0.56028407D-03  0.19573964D-02
  0.19142909D-02  0.12648530D-02  0.52214821D-02  0.51064955D-02  0.33740775D-02
 -0.13553269D-02 -0.13254801D-02 -0.87580075D-03 -0.48492509D-03 -0.10910526D-02
  0.28434959D-03 -0.45596943D-03 -0.95118979D-03  0.24854791D-03 -0.98654907D-05
 -0.64641711D-04  0.16504770D-04  0.74542976D-03 -0.17726724D-02  0.10272426D-02
 -0.21163835D-02  0.55219768D-03  0.15544367D-02 -0.24336828D-03  0.62429640D-03
 -0.38092812D-03  0.78207567D-03 -0.20516163D-03 -0.55824555D-03 -0.80264851D-04
  0.17125602D-03 -0.90991168D-04  0.23187107D-03 -0.59716405D-04 -0.14630945D-03
 -0.18829760D-03  0.16312075D-03  0.69300831D-04  0.46925232D-03 -0.27265551D-03
  0.80751064D-04  0.95640473D-04 -0.21670675D-03 -0.28865356D-03 -0.20357313D-03
  0.14240149D-03 -0.17634470D-03 -0.92721871D-04 -0.47921617D-03  0.24449447D-03
 -0.65952869D-04  0.52011706D-04  0.28453964D-03  0.34411848D-03  0.29323295D-03
MO    2     MO 0.0        OCC NO =    2.0000000  ORB. ENERGY =  -24.329254
  0.16857862D-03  0.31426888D-03  0.53116978D-03  0.79852216D-03  0.98107674D-03
  0.82867614D-03  0.31254615D-03 -0.15468083D-05 -0.11750614D-03 -0.22000856D-03
 -0.37458340D-03 -0.57942357D-03 -0.76308045D-03 -0.79288947D-03 -0.50384566D-03
  0.33766565D-03 -0.25659964D-03  0.51291280D-03  0.58312198D-04  0.10093425D-03
  0.94632273D-04  0.67383816D-04  0.42971819D-03  0.40288811D-03  0.28688034D-03
 -0.10753918D-03 -0.10082482D-03 -0.71793276D-04 -0.30489929D-03 -0.15163030D-02
  0.37796856D-03 -0.49110639D-04  0.48047185D-04 -0.10459404D-04  0.30553242D-05
 -0.27797206D-05  0.62619854D-06 -0.27469934D-03  0.66508677D-03 -0.39038742D-03
  0.76949627D-03 -0.19488900D-03 -0.59393045D-03 -0.65088858D-04  0.31662143D-03
 -0.25153257D-03  0.47293651D-03 -0.12403273D-03 -0.32087528D-03 -0.30496881D-05
 -0.21019837D-05  0.51516718D-05  0.33186402D-04 -0.78535917D-05  0.33856570D-05
  0.85892778D-04 -0.13094179D-03 -0.65862410D-04 -0.42475749D-03  0.20259045D-03
 -0.47568576D-04  0.16707916D-03  0.19023492D-03  0.24515581D-03  0.32839038D-03
  0.19351831D-04 -0.30083116D-04 -0.34510423D-05 -0.57768503D-04  0.83001136D-04
 -0.21233196D-04 -0.28698929D-06  0.72482119D-05  0.31586322D-04  0.28986021D-04
  0.16857863D-03  0.31426889D-03  0.53116979D-03  0.79852218D-03  0.98107676D-03
  0.82867616D-03  0.31254616D-03 -0.15468084D-05 -0.11750614D-03 -0.22000857D-03
 -0.37458341D-03 -0.57942358D-03 -0.76308047D-03 -0.79288949D-03 -0.50384568D-03
  0.33766565D-03 -0.25659965D-03  0.51291288D-03  0.58312215D-04 -0.10093425D-03
 -0.94632278D-04 -0.67383819D-04 -0.42971820D-03 -0.40288812D-03 -0.28688035D-03
  0.10753918D-03  0.10082482D-03  0.71793278D-04  0.30489931D-03  0.15163031D-02
 -0.37796857D-03  0.49110621D-04 -0.48047182D-04  0.10459403D-04 -0.30553250D-05
  0.27797205D-05 -0.62619850D-06 -0.27469935D-03  0.66508678D-03 -0.39038744D-03
  0.76949629D-03 -0.19488901D-03 -0.59393047D-03 -0.65088867D-04  0.31662144D-03
 -0.25153258D-03  0.47293652D-03 -0.12403274D-03 -0.32087529D-03 -0.30496873D-05
 -0.21019844D-05  0.51516716D-05  0.33186402D-04 -0.78535918D-05  0.33856573D-05
 -0.85892781D-04  0.13094179D-03  0.65862412D-04  0.42475750D-03 -0.20259046D-03
  0.47568578D-04 -0.16707916D-03 -0.19023492D-03 -0.24515582D-03 -0.32839039D-03
 -0.19351830D-04  0.30083117D-04  0.34510430D-05  0.57768501D-04 -0.83001136D-04
  0.21233196D-04  0.28699008D-06 -0.72482143D-05 -0.31586325D-04 -0.28986020D-04
 -0.18284205D-01 -0.34082551D-01 -0.57778303D-01 -0.87493378D-01 -0.10941078D+00
 -0.94192487D-01 -0.36211031D-01  0.15690832D-03 -0.12933781D-04 -0.24287350D-04
 -0.41357168D-04 -0.64785759D-04 -0.86820539D-04 -0.93387196D-04 -0.56069550D-04
  0.36873695D-04 -0.20902084D-02  0.11086624D-03  0.59385542D-04 -0.10502183D-03
 -0.10270905D-03 -0.67864215D-04  0.20966513D-03  0.20504792D-03  0.13548383D-03
  0.21183355D-03  0.20716859D-03  0.13688504D-03  0.87756063D-05 -0.73256151D-04
 -0.52382166D-04  0.11226237D-03 -0.19125309D-03 -0.10990137D-03  0.68854359D-06
 -0.10118024D-04 -0.13047293D-04 -0.85612935D-05  0.13958064D-03 -0.13101934D-03
  0.23582194D-03  0.15918832D-03 -0.19510616D-03 -0.11535713D-04 -0.32412971D-04
  0.43948683D-04 -0.93347204D-04 -0.42046091D-04  0.83085201D-04 -0.13399712D-04
  0.30216392D-04 -0.16816680D-04 -0.55734546D-04 -0.85614577D-04  0.10665802D-03
  0.68715540D-04 -0.17883344D-03 -0.27416130D-04 -0.66942829D-04  0.20262806D-03
  0.10429942D-03 -0.13920379D-03  0.33387227D-03 -0.22051030D-04 -0.38767463D-03
 -0.35768855D-04  0.61407824D-04  0.20103921D-04  0.38182316D-04 -0.51005643D-04
 -0.27616377D-04  0.69124249D-04 -0.13321783D-03 -0.32695387D-04  0.17947072D-03
 -0.18284205D-01 -0.34082551D-01 -0.57778303D-01 -0.87493378D-01 -0.10941078D+00
 -0.94192487D-01 -0.36211031D-01  0.15690832D-03 -0.12933782D-04 -0.24287351D-04
 -0.41357170D-04 -0.64785763D-04 -0.86820544D-04 -0.93387201D-04 -0.56069553D-04
  0.36873697D-04 -0.20902084D-02  0.11086623D-03  0.59385541D-04  0.10502183D-03
  0.10270906D-03  0.67864215D-04 -0.20966513D-03 -0.20504792D-03 -0.13548383D-03
 -0.21183355D-03 -0.20716859D-03 -0.13688504D-03 -0.87756074D-05  0.73256151D-04
  0.52382165D-04 -0.11226237D-03  0.19125309D-03  0.10990137D-03 -0.68854377D-06
  0.10118024D-04  0.13047294D-04 -0.85612917D-05  0.13958064D-03 -0.13101935D-03
  0.23582194D-03  0.15918832D-03 -0.19510616D-03 -0.11535713D-04 -0.32412972D-04
  0.43948686D-04 -0.93347203D-04 -0.42046090D-04  0.83085201D-04 -0.13399713D-04
  0.30216393D-04 -0.16816680D-04 -0.55734546D-04 -0.85614576D-04  0.10665802D-03
 -0.68715541D-04  0.17883345D-03  0.27416126D-04  0.66942834D-04 -0.20262806D-03
 -0.10429941D-03  0.13920379D-03 -0.33387228D-03  0.22051035D-04  0.38767464D-03
  0.35768855D-04 -0.61407825D-04 -0.20103920D-04 -0.38182317D-04  0.51005644D-04