 Molden2AIM, Version 4.0.0 (06/02/2016)           Time: Fri Jun 29 04:11:55 2018
GAUSSIAN             24 MOL ORBITALS    466 PRIMITIVES        6 NUCLEI
  C    1    (CENTRE  1)   0.00000000  0.00000000  1.50335083  CHARGE =  6.0
  C    2    (CENTRE  2)   0.00000000  0.00000000 -1.00864132  CHARGE =  6.0
  H    3    (CENTRE  3)   0.00000000  1.77710034  2.53626379  CHARGE =  1.0
  H    4    (CENTRE  4)   0.00000000 -1.77710034  2.53626379  CHARGE =  1.0
  Cl   5    (CENTRE  5)   0.00000000  2.74616323 -2.78361949  CHARGE = 17.0
  Cl   6    (CENTRE  6)   0.00000000 -2.74616323 -2.78361949  CHARGE = 17.0
CENTRE ASSIGNMENTS    1  1  1  1  1  1  1  1  1  1  1  1  1  1  1  1  1  1  1  1
CENTRE ASSIGNMENTS    1  1  1  1  1  1  1  1  1  1  1  1  1  1  1  1  1  1  1  1
CENTRE ASSIGNMENTS    1  1  1  1  1  1  1  1  1  1  1  1  1  1  1  1  1  1  1  1
CENTRE ASSIGNMENTS    1  1  1  1  1  1  1  1  1  1  1  1  1  1  1  2  2  2  2  2
CENTRE ASSIGNMENTS    2  2  2  2  2  2  2  2  2  2  2  2  2  2  2  2  2  2  2  2
CENTRE ASSIGNMENTS    2  2  2  2  2  2  2  2  2  2  2  2  2  2  2  2  2  2  2  2
CENTRE ASSIGNMENTS    2  2  2  2  2  2  2  2  2  2  2  2  2  2  2  2  2  2  2  2
CENTRE ASSIGNMENTS    2  2  2  2  2  2  2  2  2  2  3  3  3  3  3  3  3  3  3  3
CENTRE ASSIGNMENTS    3  3  3  3  3  3  3  3  3  3  3  3  3  3  3  3  3  4  4  4
CENTRE ASSIGNMENTS    4  4  4  4  4  4  4  4  4  4  4  4  4  4  4  4  4  4  4  4
CENTRE ASSIGNMENTS    4  4  4  4  5  5  5  5  5  5  5  5  5  5  5  5  5  5  5  5
CENTRE ASSIGNMENTS    5  5  5  5  5  5  5  5  5  5  5  5  5  5  5  5  5  5  5  5
CENTRE ASSIGNMENTS    5  5  5  5  5  5  5  5  5  5  5  5  5  5  5  5  5  5  5  5
CENTRE ASSIGNMENTS    5  5  5  5  5  5  5  5  5  5  5  5  5  5  5  5  5  5  5  5
CENTRE ASSIGNMENTS    5  5  5  5  5  5  5  5  5  5  5  5  5  5  5  5  5  5  5  5
CENTRE ASSIGNMENTS    5  5  5  5  5  5  5  5  5  5  5  5  5  5  5  5  5  5  5  5
CENTRE ASSIGNMENTS    5  5  5  5  5  5  5  5  5  5  5  5  5  5  5  6  6  6  6  6
CENTRE ASSIGNMENTS    6  6  6  6  6  6  6  6  6  6  6  6  6  6  6  6  6  6  6  6
CENTRE ASSIGNMENTS    6  6  6  6  6  6  6  6  6  6  6  6  6  6  6  6  6  6  6  6
CENTRE ASSIGNMENTS    6  6  6  6  6  6  6  6  6  6  6  6  6  6  6  6  6  6  6  6
CENTRE ASSIGNMENTS    6  6  6  6  6  6  6  6  6  6  6  6  6  6  6  6  6  6  6  6
CENTRE ASSIGNMENTS    6  6  6  6  6  6  6  6  6  6  6  6  6  6  6  6  6  6  6  6
CENTRE ASSIGNMENTS    6  6  6  6  6  6  6  6  6  6  6  6  6  6  6  6  6  6  6  6
CENTRE ASSIGNMENTS    6  6  6  6  6  6
TYPE ASSIGNMENTS      1  1  1  1  1  1  1  1  1  1  1  1  1  1  1  1  1  1  1  2
TYPE ASSIGNMENTS      2  2  3  3  3  4  4  4  2  3  4  2  3  4  2  3  4  5  6  7
TYPE ASSIGNMENTS      8  9 10  5  6  7  8  9 10  5  6  7  8  9 10 11 12 13 17 14
TYPE ASSIGNMENTS     15 18 19 16 20 11 12 13 17 14 15 18 19 16 20  1  1  1  1  1
TYPE ASSIGNMENTS      1  1  1  1  1  1  1  1  1  1  1  1  1  1  2  2  2  3  3  3
TYPE ASSIGNMENTS      4  4  4  2  3  4  2  3  4  2  3  4  5  6  7  8  9 10  5  6
TYPE ASSIGNMENTS      7  8  9 10  5  6  7  8  9 10 11 12 13 17 14 15 18 19 16 20
TYPE ASSIGNMENTS     11 12 13 17 14 15 18 19 16 20  1  1  1  1  1  1  2  3  4  2
TYPE ASSIGNMENTS      3  4  2  3  4  5  6  7  8  9 10  5  6  7  8  9 10  1  1  1
TYPE ASSIGNMENTS      1  1  1  2  3  4  2  3  4  2  3  4  5  6  7  8  9 10  5  6
TYPE ASSIGNMENTS      7  8  9 10  1  1  1  1  1  1  1  1  1  1  1  1  1  1  1  1
TYPE ASSIGNMENTS      1  1  1  1  1  1  1  1  1  1  1  1  1  1  1  1  1  1  1  1
TYPE ASSIGNMENTS      1  1  1  1  1  1  2  2  2  2  2  2  2  3  3  3  3  3  3  3
TYPE ASSIGNMENTS      4  4  4  4  4  4  4  2  2  2  2  2  2  2  3  3  3  3  3  3
TYPE ASSIGNMENTS      3  4  4  4  4  4  4  4  2  3  4  2  3  4  2  3  4  5  6  7
TYPE ASSIGNMENTS      8  9 10  5  6  7  8  9 10  5  6  7  8  9 10 11 12 13 17 14
TYPE ASSIGNMENTS     15 18 19 16 20 11 12 13 17 14 15 18 19 16 20  1  1  1  1  1
TYPE ASSIGNMENTS      1  1  1  1  1  1  1  1  1  1  1  1  1  1  1  1  1  1  1  1
TYPE ASSIGNMENTS      1  1  1  1  1  1  1  1  1  1  1  1  1  1  1  1  1  2  2  2
TYPE ASSIGNMENTS      2  2  2  2  3  3  3  3  3  3  3  4  4  4  4  4  4  4  2  2
TYPE ASSIGNMENTS      2  2  2  2  2  3  3  3  3  3  3  3  4  4  4  4  4  4  4  2
TYPE ASSIGNMENTS      3  4  2  3  4  2  3  4  5  6  7  8  9 10  5  6  7  8  9 10
TYPE ASSIGNMENTS      5  6  7  8  9 10 11 12 13 17 14 15 18 19 16 20 11 12 13 17
TYPE ASSIGNMENTS     14 15 18 19 16 20
EXPONENTS  0.8236000D+04 0.1235000D+04 0.2808000D+03 0.7927000D+02 0.2559000D+02
EXPONENTS  0.8997000D+01 0.3319000D+01 0.3643000D+00 0.8236000D+04 0.1235000D+04
EXPONENTS  0.2808000D+03 0.7927000D+02 0.2559000D+02 0.8997000D+01 0.3319000D+01
EXPONENTS  0.3643000D+00 0.9059000D+00 0.1285000D+00 0.4402000D-01 0.1871000D+02
EXPONENTS  0.4133000D+01 0.1200000D+01 0.1871000D+02 0.4133000D+01 0.1200000D+01
EXPONENTS  0.1871000D+02 0.4133000D+01 0.1200000D+01 0.3827000D+00 0.3827000D+00
EXPONENTS  0.3827000D+00 0.1209000D+00 0.1209000D+00 0.1209000D+00 0.3569000D-01
EXPONENTS  0.3569000D-01 0.3569000D-01 0.1097000D+01 0.1097000D+01 0.1097000D+01
EXPONENTS  0.1097000D+01 0.1097000D+01 0.1097000D+01 0.3180000D+00 0.3180000D+00
EXPONENTS  0.3180000D+00 0.3180000D+00 0.3180000D+00 0.3180000D+00 0.1000000D+00
EXPONENTS  0.1000000D+00 0.1000000D+00 0.1000000D+00 0.1000000D+00 0.1000000D+00
EXPONENTS  0.7610000D+00 0.7610000D+00 0.7610000D+00 0.7610000D+00 0.7610000D+00
EXPONENTS  0.7610000D+00 0.7610000D+00 0.7610000D+00 0.7610000D+00 0.7610000D+00
EXPONENTS  0.2680000D+00 0.2680000D+00 0.2680000D+00 0.2680000D+00 0.2680000D+00
EXPONENTS  0.2680000D+00 0.2680000D+00 0.2680000D+00 0.2680000D+00 0.2680000D+00
EXPONENTS  0.8236000D+04 0.1235000D+04 0.2808000D+03 0.7927000D+02 0.2559000D+02
EXPONENTS  0.8997000D+01 0.3319000D+01 0.3643000D+00 0.8236000D+04 0.1235000D+04
EXPONENTS  0.2808000D+03 0.7927000D+02 0.2559000D+02 0.8997000D+01 0.3319000D+01
EXPONENTS  0.3643000D+00 0.9059000D+00 0.1285000D+00 0.4402000D-01 0.1871000D+02
EXPONENTS  0.4133000D+01 0.1200000D+01 0.1871000D+02 0.4133000D+01 0.1200000D+01
EXPONENTS  0.1871000D+02 0.4133000D+01 0.1200000D+01 0.3827000D+00 0.3827000D+00
EXPONENTS  0.3827000D+00 0.1209000D+00 0.1209000D+00 0.1209000D+00 0.3569000D-01
EXPONENTS  0.3569000D-01 0.3569000D-01 0.1097000D+01 0.1097000D+01 0.1097000D+01
EXPONENTS  0.1097000D+01 0.1097000D+01 0.1097000D+01 0.3180000D+00 0.3180000D+00
EXPONENTS  0.3180000D+00 0.3180000D+00 0.3180000D+00 0.3180000D+00 0.1000000D+00
EXPONENTS  0.1000000D+00 0.1000000D+00 0.1000000D+00 0.1000000D+00 0.1000000D+00
EXPONENTS  0.7610000D+00 0.7610000D+00 0.7610000D+00 0.7610000D+00 0.7610000D+00
EXPONENTS  0.7610000D+00 0.7610000D+00 0.7610000D+00 0.7610000D+00 0.7610000D+00
EXPONENTS  0.2680000D+00 0.2680000D+00 0.2680000D+00 0.2680000D+00 0.2680000D+00
EXPONENTS  0.2680000D+00 0.2680000D+00 0.2680000D+00 0.2680000D+00 0.2680000D+00
EXPONENTS  0.3387000D+02 0.5095000D+01 0.1159000D+01 0.3258000D+00 0.1027000D+00
EXPONENTS  0.2526000D-01 0.1407000D+01 0.1407000D+01 0.1407000D+01 0.3880000D+00
EXPONENTS  0.3880000D+00 0.3880000D+00 0.1020000D+00 0.1020000D+00 0.1020000D+00
EXPONENTS  0.1057000D+01 0.1057000D+01 0.1057000D+01 0.1057000D+01 0.1057000D+01
EXPONENTS  0.1057000D+01 0.2470000D+00 0.2470000D+00 0.2470000D+00 0.2470000D+00
EXPONENTS  0.2470000D+00 0.2470000D+00 0.3387000D+02 0.5095000D+01 0.1159000D+01
EXPONENTS  0.3258000D+00 0.1027000D+00 0.2526000D-01 0.1407000D+01 0.1407000D+01
EXPONENTS  0.1407000D+01 0.3880000D+00 0.3880000D+00 0.3880000D+00 0.1020000D+00
EXPONENTS  0.1020000D+00 0.1020000D+00 0.1057000D+01 0.1057000D+01 0.1057000D+01
EXPONENTS  0.1057000D+01 0.1057000D+01 0.1057000D+01 0.2470000D+00 0.2470000D+00
EXPONENTS  0.2470000D+00 0.2470000D+00 0.2470000D+00 0.2470000D+00 0.4561000D+06
EXPONENTS  0.6833000D+05 0.1555000D+05 0.4405000D+04 0.1439000D+04 0.5204000D+03
EXPONENTS  0.2031000D+03 0.8396000D+02 0.3620000D+02 0.1583000D+02 0.6334000D+01
EXPONENTS  0.2694000D+01 0.4313000D+00 0.4561000D+06 0.6833000D+05 0.1555000D+05
EXPONENTS  0.4405000D+04 0.1439000D+04 0.5204000D+03 0.2031000D+03 0.8396000D+02
EXPONENTS  0.3620000D+02 0.1583000D+02 0.6334000D+01 0.2694000D+01 0.4313000D+00
EXPONENTS  0.4561000D+06 0.6833000D+05 0.1555000D+05 0.4405000D+04 0.1439000D+04
EXPONENTS  0.5204000D+03 0.2031000D+03 0.8396000D+02 0.3620000D+02 0.1583000D+02
EXPONENTS  0.6334000D+01 0.2694000D+01 0.4313000D+00 0.9768000D+00 0.1625000D+00
EXPONENTS  0.5910000D-01 0.6633000D+03 0.1568000D+03 0.4998000D+02 0.1842000D+02
EXPONENTS  0.7240000D+01 0.2922000D+01 0.3818000D+00 0.6633000D+03 0.1568000D+03
EXPONENTS  0.4998000D+02 0.1842000D+02 0.7240000D+01 0.2922000D+01 0.3818000D+00
EXPONENTS  0.6633000D+03 0.1568000D+03 0.4998000D+02 0.1842000D+02 0.7240000D+01
EXPONENTS  0.2922000D+01 0.3818000D+00 0.6633000D+03 0.1568000D+03 0.4998000D+02
EXPONENTS  0.1842000D+02 0.7240000D+01 0.2922000D+01 0.3818000D+00 0.6633000D+03
EXPONENTS  0.1568000D+03 0.4998000D+02 0.1842000D+02 0.7240000D+01 0.2922000D+01
EXPONENTS  0.3818000D+00 0.6633000D+03 0.1568000D+03 0.4998000D+02 0.1842000D+02
EXPONENTS  0.7240000D+01 0.2922000D+01 0.3818000D+00 0.1022000D+01 0.1022000D+01
EXPONENTS  0.1022000D+01 0.1301000D+00 0.1301000D+00 0.1301000D+00 0.4190000D-01
EXPONENTS  0.4190000D-01 0.4190000D-01 0.1046000D+01 0.1046000D+01 0.1046000D+01
EXPONENTS  0.1046000D+01 0.1046000D+01 0.1046000D+01 0.3440000D+00 0.3440000D+00
EXPONENTS  0.3440000D+00 0.3440000D+00 0.3440000D+00 0.3440000D+00 0.1350000D+00
EXPONENTS  0.1350000D+00 0.1350000D+00 0.1350000D+00 0.1350000D+00 0.1350000D+00
EXPONENTS  0.7060000D+00 0.7060000D+00 0.7060000D+00 0.7060000D+00 0.7060000D+00
EXPONENTS  0.7060000D+00 0.7060000D+00 0.7060000D+00 0.7060000D+00 0.7060000D+00
EXPONENTS  0.3120000D+00 0.3120000D+00 0.3120000D+00 0.3120000D+00 0.3120000D+00
EXPONENTS  0.3120000D+00 0.3120000D+00 0.3120000D+00 0.3120000D+00 0.3120000D+00
EXPONENTS  0.4561000D+06 0.6833000D+05 0.1555000D+05 0.4405000D+04 0.1439000D+04
EXPONENTS  0.5204000D+03 0.2031000D+03 0.8396000D+02 0.3620000D+02 0.1583000D+02
EXPONENTS  0.6334000D+01 0.2694000D+01 0.4313000D+00 0.4561000D+06 0.6833000D+05
EXPONENTS  0.1555000D+05 0.4405000D+04 0.1439000D+04 0.5204000D+03 0.2031000D+03
EXPONENTS  0.8396000D+02 0.3620000D+02 0.1583000D+02 0.6334000D+01 0.2694000D+01
EXPONENTS  0.4313000D+00 0.4561000D+06 0.6833000D+05 0.1555000D+05 0.4405000D+04
EXPONENTS  0.1439000D+04 0.5204000D+03 0.2031000D+03 0.8396000D+02 0.3620000D+02
EXPONENTS  0.1583000D+02 0.6334000D+01 0.2694000D+01 0.4313000D+00 0.9768000D+00
EXPONENTS  0.1625000D+00 0.5910000D-01 0.6633000D+03 0.1568000D+03 0.4998000D+02
EXPONENTS  0.1842000D+02 0.7240000D+01 0.2922000D+01 0.3818000D+00 0.6633000D+03
EXPONENTS  0.1568000D+03 0.4998000D+02 0.1842000D+02 0.7240000D+01 0.2922000D+01
EXPONENTS  0.3818000D+00 0.6633000D+03 0.1568000D+03 0.4998000D+02 0.1842000D+02
EXPONENTS  0.7240000D+01 0.2922000D+01 0.3818000D+00 0.6633000D+03 0.1568000D+03
EXPONENTS  0.4998000D+02 0.1842000D+02 0.7240000D+01 0.2922000D+01 0.3818000D+00
EXPONENTS  0.6633000D+03 0.1568000D+03 0.4998000D+02 0.1842000D+02 0.7240000D+01
EXPONENTS  0.2922000D+01 0.3818000D+00 0.6633000D+03 0.1568000D+03 0.4998000D+02
EXPONENTS  0.1842000D+02 0.7240000D+01 0.2922000D+01 0.3818000D+00 0.1022000D+01
EXPONENTS  0.1022000D+01 0.1022000D+01 0.1301000D+00 0.1301000D+00 0.1301000D+00
EXPONENTS  0.4190000D-01 0.4190000D-01 0.4190000D-01 0.1046000D+01 0.1046000D+01
EXPONENTS  0.1046000D+01 0.1046000D+01 0.1046000D+01 0.1046000D+01 0.3440000D+00
EXPONENTS  0.3440000D+00 0.3440000D+00 0.3440000D+00 0.3440000D+00 0.3440000D+00
EXPONENTS  0.1350000D+00 0.1350000D+00 0.1350000D+00 0.1350000D+00 0.1350000D+00
EXPONENTS  0.1350000D+00 0.7060000D+00 0.7060000D+00 0.7060000D+00 0.7060000D+00
EXPONENTS  0.7060000D+00 0.7060000D+00 0.7060000D+00 0.7060000D+00 0.7060000D+00
EXPONENTS  0.7060000D+00 0.3120000D+00 0.3120000D+00 0.3120000D+00 0.3120000D+00
EXPONENTS  0.3120000D+00 0.3120000D+00 0.3120000D+00 0.3120000D+00 0.3120000D+00
EXPONENTS  0.3120000D+00
MO    1     MO 0.0        OCC NO =    2.0000000  ORB. ENERGY = -100.726359
  0.85987009D-10  0.16029933D-09  0.27093411D-09  0.40730272D-09  0.50041845D-09
  0.42268338D-09  0.15942062D-09 -0.78898155D-12 -0.61686662D-10 -0.11549689D-09
 -0.19664335D-09 -0.30417735D-09 -0.40059087D-09 -0.41623958D-09 -0.26450157D-09
  0.17726280D-09  0.11218432D-09  0.60032470D-09 -0.19345716D-09 -0.11653695D-15
 -0.10926080D-15 -0.77800197D-16  0.48348221D-04  0.45329530D-04  0.32277326D-04
  0.51417003D-11  0.48206708D-11  0.34326048D-11 -0.22875157D-16 -0.74715329D-04
 -0.35951972D-09  0.29525891D-17 -0.25701397D-03 -0.36202512D-09  0.12500720D-17
 -0.95132871D-05  0.55037968D-11 -0.38074214D-11  0.93652992D-11 -0.55578778D-11
 -0.46106201D-16 -0.20260565D-19  0.18136022D-03  0.43165768D-10 -0.16744725D-09
  0.12428148D-09 -0.84290073D-19  0.65769798D-19 -0.99063079D-03  0.41129443D-11
 -0.32920455D-10  0.28807511D-10  0.29458116D-19  0.92988750D-20  0.35849225D-04
 -0.17670033D-19 -0.72834546D-04 -0.91020088D-11  0.20541816D-19 -0.39172434D-04
  0.80382734D-11  0.32468284D-19  0.25767607D-03  0.19267753D-10  0.88388336D-19
 -0.14883451D-19 -0.69581704D-04 -0.13606807D-10  0.53967801D-19  0.97293084D-04
 -0.13879836D-10 -0.93174484D-20  0.11145203D-03  0.54700259D-10 -0.97422601D-19
  0.96839007D-11  0.18052993D-10  0.30512738D-10  0.45870640D-10  0.56357381D-10
  0.47602818D-10  0.17954031D-10 -0.88855504D-13 -0.10704522D-10 -0.20042243D-10
 -0.34123634D-10 -0.52784073D-10 -0.69514768D-10 -0.72230296D-10 -0.45899111D-10
  0.30760517D-10  0.92658296D-10 -0.37644427D-09  0.27472149D-09  0.40856856D-19
  0.38305900D-19  0.27276083D-19  0.95889104D-06  0.89902130D-06  0.64015673D-06
  0.31535980D-10  0.29566986D-10  0.21053455D-10  0.53022220D-20 -0.51926110D-03
 -0.36823032D-09  0.14063206D-19 -0.60794627D-03 -0.51543341D-09  0.14383513D-20
 -0.25040152D-04  0.10931322D-10 -0.81196316D-10  0.62899127D-10  0.18297190D-10
 -0.14347475D-18 -0.51551268D-19  0.36049290D-03  0.74708540D-10  0.45349617D-10
 -0.12005816D-09  0.93146798D-19 -0.83449182D-19 -0.73714928D-03 -0.52516365D-11
  0.31203504D-10 -0.25951868D-10 -0.31486268D-19  0.17681589D-19  0.25694798D-03
  0.24873198D-19  0.50988720D-04  0.29340568D-11  0.52460801D-19 -0.83579949D-04
  0.52920576D-11 -0.12708039D-18 -0.69386212D-04 -0.14094228D-10  0.40241414D-19
 -0.25820473D-20  0.74160381D-04 -0.61866614D-10  0.19014786D-20 -0.60367252D-04
 -0.32492013D-10  0.58446634D-20 -0.16211389D-03  0.21809186D-09 -0.14728240D-18
  0.51200000D-05  0.92341309D-05  0.13615721D-04  0.79355712D-03 -0.23368742D-03
  0.27478067D-04  0.52620900D-19 -0.56168615D-04 -0.62506398D-05 -0.11536165D-18
 -0.19348404D-03 -0.23505808D-03 -0.37810314D-19  0.16499571D-04  0.41332182D-04
 -0.71738452D-05 -0.30809505D-04  0.37983350D-04  0.15275427D-18  0.25864460D-18
  0.27025259D-04 -0.89377333D-05  0.17165968D-04 -0.82282347D-05  0.13403092D-19
  0.42876840D-19 -0.55094768D-05 -0.51200016D-05 -0.92341338D-05 -0.13615725D-04
 -0.79355690D-03  0.23368800D-03 -0.27478062D-04  0.31271404D-18 -0.56168646D-04
  0.62505607D-05 -0.30461624D-18 -0.19348388D-03  0.23505791D-03 -0.10501990D-20
  0.16499581D-04 -0.41332264D-04  0.71738160D-05  0.30809511D-04 -0.37983327D-04
 -0.19879749D-18  0.56484579D-19  0.27025145D-04  0.89377253D-05 -0.17165973D-04
  0.82282475D-05 -0.49720103D-19  0.47682327D-19 -0.55094899D-05 -0.43658550D+00
 -0.81685315D+00 -0.14113413D+01 -0.22879488D+01 -0.34744328D+01 -0.48290530D+01
 -0.57410474D+01 -0.51136834D+01 -0.25385856D+01 -0.40900681D+00 -0.62793440D-02
 -0.11221126D-02 -0.41931597D-04  0.91831328D-03  0.17152773D-02  0.29769470D-02
  0.48303752D-02  0.74768471D-02  0.10702427D-01  0.13970011D-01  0.14887378D-01
  0.11128617D-01  0.58745992D-03 -0.75485684D-02 -0.44847169D-02  0.16814326D-04
 -0.40020993D-03 -0.74693416D-03 -0.12981058D-02 -0.21038477D-02 -0.32676048D-02
 -0.46809382D-02 -0.61807428D-02 -0.66832163D-02 -0.52397282D-02 -0.26072714D-03
  0.44917719D-02  0.46498166D-02 -0.21041078D-02  0.24368267D-02  0.14739570D-02
  0.43662523D-03 -0.83195009D-17 -0.10958650D-16 -0.12089958D-16 -0.10042100D-16
 -0.53336031D-17 -0.13756918D-17  0.14141644D-20  0.52105983D-02  0.68635274D-02
  0.75720786D-02  0.62894817D-02  0.33404965D-02  0.86161149D-03 -0.88570732D-06
 -0.40768761D-02 -0.53701608D-02 -0.59245454D-02 -0.49210160D-02 -0.26136711D-02
 -0.67414202D-03  0.69299508D-06  0.38461989D-17  0.50497773D-17  0.57495429D-17
  0.48684768D-17  0.27888510D-17  0.63436684D-18 -0.29691859D-18 -0.43778156D-02
 -0.57477510D-02 -0.65442374D-02 -0.55413914D-02 -0.31743224D-02 -0.72204821D-03
  0.33795830D-03  0.34914140D-02  0.45839706D-02  0.52191878D-02  0.44193938D-02
  0.25315989D-02  0.57585093D-03 -0.26952993D-03  0.77117713D-18 -0.21711393D-03
  0.14803578D-03  0.51573673D-19 -0.50666861D-03  0.21904580D-03  0.69754360D-21
 -0.15238803D-04  0.10447620D-04  0.99126305D-04 -0.10790103D-03  0.87747280D-05
 -0.34437933D-18 -0.24560349D-19  0.22060486D-03  0.28470652D-05  0.24987658D-04
 -0.27834723D-04  0.19824979D-18 -0.35220527D-19  0.41727451D-04 -0.22577094D-04
  0.39452479D-04 -0.16875385D-04 -0.12779459D-19  0.56532840D-20 -0.76737603D-04
 -0.18606341D-19  0.13827389D-04  0.28303145D-04  0.18296123D-19 -0.71466501D-04
  0.42165376D-04  0.37522898D-19  0.29984334D-04 -0.12707481D-03 -0.13868680D-20
  0.11353087D-19 -0.97763762D-05 -0.11307867D-04 -0.38895441D-19  0.28481962D-04
 -0.12751638D-04  0.48361794D-20  0.84716648D-06  0.46675239D-04  0.27341899D-19
  0.43658600D+00  0.81685408D+00  0.14113429D+01  0.22879514D+01  0.34744368D+01
  0.48290586D+01  0.57410540D+01  0.51136893D+01  0.25385885D+01  0.40900728D+00
  0.62793512D-02  0.11221139D-02  0.41931646D-04 -0.91831436D-03 -0.17152794D-02
 -0.29769505D-02 -0.48303809D-02 -0.74768560D-02 -0.10702440D-01 -0.13970027D-01
 -0.14887395D-01 -0.11128630D-01 -0.58746062D-03  0.75485773D-02  0.44847222D-02
 -0.16814346D-04  0.40021041D-03  0.74693506D-03  0.12981074D-02  0.21038502D-02
  0.32676088D-02  0.46809439D-02  0.61807502D-02  0.66832244D-02  0.52397345D-02
  0.26072746D-03 -0.44917773D-02 -0.46498222D-02  0.21041103D-02 -0.24368295D-02
 -0.14739582D-02 -0.43662556D-03  0.20951507D-17  0.27597836D-17  0.30446879D-17
  0.25289632D-17  0.13431938D-17  0.34644887D-18 -0.35613766D-21  0.52106045D-02
  0.68635355D-02  0.75720876D-02  0.62894891D-02  0.33405005D-02  0.86161251D-03
 -0.88570837D-06  0.40768819D-02  0.53701684D-02  0.59245538D-02  0.49210229D-02
  0.26136748D-02  0.67414298D-03 -0.69299606D-06 -0.14013412D-17 -0.18398583D-17
 -0.20948140D-17 -0.17738025D-17 -0.10161023D-17 -0.23112803D-18  0.10818064D-18
 -0.43778211D-02 -0.57477582D-02 -0.65442455D-02 -0.55413983D-02 -0.31743263D-02
 -0.72204911D-03  0.33795872D-03 -0.34914190D-02 -0.45839772D-02 -0.52191953D-02
 -0.44194002D-02 -0.25316026D-02 -0.57585176D-03  0.26953031D-03 -0.81732258D-19
 -0.21711398D-03 -0.14803594D-03 -0.31511612D-20 -0.50666904D-03 -0.21904612D-03
 -0.25462838D-20 -0.15238814D-04 -0.10447635D-04 -0.99126512D-04  0.10790122D-03
 -0.87747054D-05  0.13097205D-19 -0.10587900D-19  0.22060513D-03 -0.28470020D-05
 -0.24987700D-04  0.27834702D-04  0.32093907D-19  0.42061976D-19  0.41727503D-04
  0.22577132D-04 -0.39452520D-04  0.16875388D-04  0.97734529D-20 -0.71332616D-20
 -0.76737711D-04  0.26238816D-19  0.13827412D-04 -0.28303175D-04 -0.87134777D-19
 -0.71466594D-04 -0.42165489D-04  0.84183297D-20  0.29984360D-04  0.12707502D-03
  0.17319983D-19 -0.13198833D-19 -0.97763965D-05  0.11307863D-04  0.41207285D-19
  0.28482039D-04  0.12751712D-04 -0.16107843D-20  0.84715039D-06 -0.46675300D-04
  0.25612207D-19
MO    2     MO 0.0        OCC NO =    2.0000000  ORB. ENERGY = -100.726359
  0.14955375D-03  0.27880220D-03  0.47122484D-03  0.70840528D-03  0.87035774D-03
  0.73515625D-03  0.27727389D-03 -0.13722439D-05 -0.10728941D-03 -0.20087962D-03
 -0.34201474D-03 -0.52904480D-03 -0.69673339D-03 -0.72395062D-03 -0.46003812D-03
  0.30830685D-03  0.19512690D-03  0.10440028D-02 -0.33668242D-03  0.72252685D-15
  0.67741484D-15  0.48235973D-15 -0.27796650D-10 -0.26061126D-10 -0.18557074D-10
  0.89312127D-05  0.83735797D-05  0.59624875D-05  0.28767582D-17  0.42968272D-10
 -0.62526034D-03 -0.41677318D-18  0.14771354D-09 -0.62964485D-03 -0.24449243D-19
  0.54651321D-11  0.95890766D-05 -0.66316587D-05  0.16301915D-04 -0.96702562D-05
  0.11298086D-19 -0.68267148D-19 -0.10427622D-09  0.75089713D-04 -0.29124897D-03
  0.21615925D-03 -0.53962018D-20  0.70589231D-19  0.56960155D-09  0.71584567D-05
 -0.57274558D-04  0.50116102D-04  0.65776606D-19  0.79388728D-19 -0.20561744D-10
 -0.70014917D-19  0.41877716D-10 -0.15829389D-04  0.80071684D-19  0.22517652D-10
  0.13979014D-04  0.12997307D-18 -0.14815080D-09  0.33509152D-04  0.15477086D-18
 -0.65640694D-19  0.40008152D-10 -0.23661999D-04  0.10439902D-18 -0.55937928D-10
 -0.24141116D-04  0.92523059D-19 -0.64086527D-10  0.95127113D-04 -0.12914024D-18
  0.16835982D-04  0.31386098D-04  0.53048035D-04  0.79748574D-04  0.97980337D-04
  0.82760058D-04  0.31214049D-04 -0.15448007D-06 -0.18613686D-04 -0.34850694D-04
 -0.59336288D-04 -0.91784215D-04 -0.12087658D-03 -0.12559851D-03 -0.79812216D-04
  0.53488291D-04  0.16116549D-03 -0.65471730D-03  0.47816110D-03  0.44954884D-18
  0.42148061D-18  0.30011930D-18 -0.56564195D-12 -0.53032529D-12 -0.37762320D-12
  0.54830846D-04  0.51407404D-04  0.36605134D-04 -0.42681527D-18  0.29856914D-09
 -0.64041525D-03  0.22341485D-18  0.34969709D-09 -0.89642508D-03  0.43877464D-19
  0.14398718D-10  0.19021119D-04 -0.14122589D-03  0.10939331D-03  0.31832578D-04
  0.23442365D-18  0.64823215D-18 -0.20725746D-09  0.12993667D-03  0.78872588D-04
 -0.20880925D-03 -0.20981025D-18 -0.41151845D-18  0.42382020D-09 -0.91440434D-05
  0.54287601D-04 -0.45143557D-04 -0.46134078D-19  0.19284557D-18 -0.14769259D-09
 -0.87896907D-19 -0.29313116D-10  0.50978604D-05  0.11226154D-18  0.48054158D-10
  0.92148327D-05  0.15142918D-18  0.39885189D-10 -0.24508414D-04  0.15185284D-18
  0.45311685D-20 -0.42643335D-10 -0.10759779D-03 -0.30668101D-19  0.34701441D-10
 -0.56520530D-04  0.17074595D-19  0.93228563D-10  0.37931391D-03 -0.18095071D-19
 -0.13591232D-05 -0.24512346D-05 -0.36143440D-05  0.19443403D-03  0.50381973D-03
  0.46734290D-05  0.40532646D-18  0.27352836D-04 -0.68793457D-04 -0.50889811D-18
 -0.13770425D-03 -0.14830434D-03 -0.12816271D-18 -0.87752907D-05 -0.71368653D-04
 -0.25410727D-04  0.54640539D-05  0.19946673D-04  0.89297624D-21 -0.11844083D-18
  0.98631933D-04 -0.70061495D-05 -0.40844390D-05  0.11090588D-04  0.11032614D-18
  0.15551593D-18  0.11470242D-04 -0.13591173D-05 -0.24512240D-05 -0.36143283D-05
  0.19443494D-03  0.50381946D-03  0.46734605D-05  0.48228978D-18 -0.27352772D-04
 -0.68793464D-04 -0.67641803D-18  0.13770448D-03 -0.14830461D-03  0.12169155D-19
  0.87752718D-05 -0.71368606D-04 -0.25410735D-04  0.54640184D-05  0.19946717D-04
  0.12877168D-18 -0.27663097D-19 -0.98631964D-04 -0.70061597D-05 -0.40844193D-05
  0.11090579D-04 -0.18536607D-18  0.51128694D-19 -0.11470236D-04  0.43659943D+00
  0.81687920D+00  0.14113863D+01  0.22880218D+01  0.34745436D+01  0.48292071D+01
  0.57412305D+01  0.51138466D+01  0.25386666D+01  0.40901986D+00  0.62795443D-02
  0.11221484D-02  0.41932935D-04 -0.94611976D-03 -0.17672159D-02 -0.30670888D-02
 -0.49766387D-02 -0.77032457D-02 -0.11026496D-01 -0.14393022D-01 -0.15338167D-01
 -0.11465591D-01 -0.60524818D-03  0.77771387D-02  0.46205139D-02 -0.17323463D-04
  0.41840161D-03  0.78088633D-03  0.13571117D-02  0.21994788D-02  0.34161350D-02
  0.48937120D-02  0.64616907D-02  0.69870044D-02  0.54779020D-02  0.27257859D-03
 -0.46959470D-02 -0.48611757D-02  0.21997508D-02 -0.23629239D-02 -0.10453797D-02
 -0.28581774D-03  0.50215428D-17  0.66144989D-17  0.72973418D-17  0.60612812D-17
  0.32192937D-17  0.83034975D-18 -0.85357131D-21 -0.53790741D-02 -0.70854479D-02
 -0.78169089D-02 -0.64928413D-02 -0.34485058D-02 -0.88947023D-03  0.91434516D-06
  0.50300905D-02  0.66257581D-02  0.73097633D-02  0.60715987D-02  0.32247735D-02
  0.83176317D-03 -0.85502426D-06 -0.96065417D-18 -0.12612685D-17 -0.14360470D-17
 -0.12159856D-17 -0.69656337D-18 -0.15844400D-18  0.74160512D-19  0.47359467D-02
  0.62179508D-02  0.70795944D-02  0.59947098D-02  0.34340006D-02  0.78111599D-03
 -0.36560527D-03 -0.43775497D-02 -0.57474018D-02 -0.65438398D-02 -0.55410548D-02
 -0.31741295D-02 -0.72200435D-03  0.33793777D-03 -0.39098411D-18  0.48057493D-04
 -0.14091639D-03  0.13769613D-18  0.37731434D-03 -0.27657225D-03 -0.56474963D-20
  0.91326376D-05 -0.13643060D-04 -0.18017572D-03  0.16053564D-03  0.19640076D-04
  0.67985441D-19  0.57164109D-19 -0.22915375D-03  0.54949137D-04 -0.36892673D-04
 -0.18056464D-04 -0.48677894D-19 -0.18220969D-19 -0.45087392D-04  0.33053201D-04
 -0.35578200D-04  0.25249983D-05 -0.49244242D-19  0.64913055D-20  0.93678130D-04
  0.20396649D-19 -0.19607440D-04 -0.26203303D-04 -0.12469295D-18  0.80992045D-04
 -0.97567548D-04  0.63503002D-19 -0.22169727D-04  0.17617746D-03 -0.13062164D-18
 -0.11007559D-19  0.17704988D-04 -0.36820875D-05  0.69249438D-19 -0.67113210D-04
  0.63976703D-04 -0.36226761D-19  0.13998247D-04 -0.52930440D-04  0.60463298D-19
  0.43659893D+00  0.81687826D+00  0.14113847D+01  0.22880192D+01  0.34745396D+01
  0.48292015D+01  0.57412239D+01  0.51138407D+01  0.25386636D+01  0.40901939D+00
  0.62795371D-02  0.11221471D-02  0.41932887D-04 -0.94611870D-03 -0.17672139D-02
 -0.30670854D-02 -0.49766332D-02 -0.77032371D-02 -0.11026484D-01 -0.14393006D-01
 -0.15338150D-01 -0.11465578D-01 -0.60524750D-03  0.77771300D-02  0.46205087D-02
 -0.17323444D-04  0.41840115D-03  0.78088547D-03  0.13571102D-02  0.21994764D-02
  0.34161312D-02  0.48937066D-02  0.64616836D-02  0.69869967D-02  0.54778960D-02
  0.27257829D-03 -0.46959418D-02 -0.48611703D-02  0.21997484D-02 -0.23629211D-02
 -0.10453780D-02 -0.28581724D-03 -0.95020287D-18 -0.12516304D-17 -0.13808416D-17
 -0.11469477D-17 -0.60917176D-18 -0.15712317D-18  0.16151727D-21  0.53790681D-02
  0.70854400D-02  0.78169001D-02  0.64928341D-02  0.34485019D-02  0.88946924D-03
 -0.91434414D-06  0.50300858D-02  0.66257519D-02  0.73097565D-02  0.60715930D-02
  0.32247705D-02  0.83176239D-03 -0.85502346D-06  0.75571225D-18  0.99219478D-18
  0.11296868D-17  0.95657234D-18  0.54796147D-18  0.12464222D-18 -0.58339420D-19
 -0.47359416D-02 -0.62179442D-02 -0.70795869D-02 -0.59947034D-02 -0.34339969D-02
 -0.78111516D-03  0.36560488D-03 -0.43775457D-02 -0.57473966D-02 -0.65438338D-02
 -0.55410497D-02 -0.31741266D-02 -0.72200368D-03  0.33793746D-03  0.82306399D-19
 -0.48057243D-04 -0.14091622D-03  0.47362730D-19 -0.37731375D-03 -0.27657200D-03
 -0.84109755D-20 -0.91326201D-05 -0.13643048D-04 -0.18017561D-03  0.16053552D-03
  0.19640086D-04 -0.29096944D-19 -0.11202997D-18  0.22915349D-03  0.54949141D-04
 -0.36892644D-04 -0.18056496D-04 -0.34781977D-19 -0.20084224D-19  0.45087344D-04
  0.33053175D-04 -0.35578154D-04  0.25249789D-05  0.30812637D-19 -0.36932788D-19
 -0.93678042D-04  0.49025787D-19  0.19607424D-04 -0.26203271D-04 -0.21973094D-18
 -0.80991963D-04 -0.97567500D-04  0.72653574D-19  0.22169692D-04  0.17617731D-03
  0.21705448D-18  0.32217434D-20 -0.17704976D-04 -0.36821005D-05  0.23434833D-19
  0.67113177D-04  0.63976688D-04 -0.33100063D-19 -0.13998248D-04 -0.52930387D-04
 -0.20278465D-18
MO    3     MO 0.0        OCC NO =    2.0000000  ORB. ENERGY =  -10.012229
  0.15534802D-02  0.28960403D-02  0.48948183D-02  0.73585153D-02  0.90407862D-02
  0.76363892D-02  0.28801651D-02 -0.14254098D-04 -0.35762092D-03 -0.66957920D-03
 -0.11400159D-02 -0.17634312D-02 -0.23223769D-02 -0.24130983D-02 -0.15334157D-02
  0.10276595D-02  0.36422627D-02 -0.12141313D-01 -0.10731366D-02  0.58673657D-15
  0.55010283D-15  0.39170599D-15 -0.60591907D-16 -0.56808764D-16 -0.40451225D-16
 -0.33022183D-02 -0.30960395D-02 -0.22045646D-02 -0.14278522D-15  0.65308212D-14
  0.77234111D-02 -0.68657305D-18 -0.12812352D-13  0.47732296D-03 -0.57890051D-19
 -0.58924495D-15 -0.25570247D-04 -0.26171411D-03  0.12359896D-02 -0.97427552D-03
 -0.13583633D-17  0.23019773D-17 -0.24786980D-14  0.21902906D-02  0.28601203D-02
 -0.50504109D-02  0.17528365D-17  0.26560095D-17  0.14658935D-13  0.21478565D-03
 -0.10855904D-03 -0.10622661D-03  0.90270931D-19 -0.12204900D-18  0.86436909D-14
  0.46693869D-18  0.71957368D-15  0.13881494D-02  0.11804364D-17 -0.14969604D-14
 -0.24394458D-02 -0.25812524D-17 -0.66176060D-15 -0.17250023D-02  0.11881280D-17
 -0.24063491D-18  0.71139332D-15  0.86877445D-03  0.58717514D-18  0.59830321D-15
 -0.19820141D-04  0.13472960D-18 -0.27324832D-14 -0.25865032D-02 -0.24936838D-18
  0.32964327D+00  0.61453000D+00  0.10386640D+01  0.15614522D+01  0.19184244D+01
  0.16204161D+01  0.61116133D+00 -0.30246715D-02 -0.32843791D-02 -0.61493939D-02
 -0.10469869D-01 -0.16195296D-01 -0.21328635D-01 -0.22161818D-01 -0.14082840D-01
  0.94379921D-02  0.38450224D-01 -0.10779909D-02 -0.10120431D-02 -0.36514032D-16
 -0.34234226D-16 -0.24376808D-16  0.52973535D-14  0.49666056D-14  0.35365191D-14
 -0.45485584D-02 -0.42645626D-02 -0.30366227D-02  0.60837878D-17 -0.19841885D-14
  0.13109024D-01 -0.22853566D-17  0.17210903D-13  0.14055786D-02  0.11276853D-18
 -0.68511314D-15  0.33692745D-04 -0.39601375D-02 -0.16064959D-04  0.39762025D-02
 -0.17864157D-17  0.18577823D-17 -0.51212244D-14  0.14246113D-02 -0.33513996D-02
  0.19267883D-02 -0.98323110D-19  0.81635019D-18  0.15975187D-13  0.74346127D-04
 -0.35015754D-04 -0.39330373D-04 -0.68117925D-19  0.31008790D-18  0.91340442D-14
 -0.26405816D-17 -0.14560921D-14  0.69999640D-03 -0.55081020D-19  0.22210220D-14
 -0.20564139D-02  0.79768258D-17  0.21472543D-14 -0.43575304D-04  0.54674119D-18
  0.26138572D-18  0.17737140D-15 -0.20560388D-03 -0.21616813D-18 -0.53260157D-15
  0.37283663D-03 -0.56798904D-18  0.48737620D-18  0.24397502D-03 -0.59582838D-18
  0.14588707D-03  0.26311334D-03  0.38796047D-03  0.32748374D-02  0.22280042D-02
  0.85453185D-04  0.25078780D-17 -0.13176649D-03 -0.92048323D-03 -0.40700084D-17
  0.68673179D-04  0.28655701D-02 -0.24391440D-18 -0.13254578D-03  0.14284938D-03