 Molden2AIM, Version 4.0.0 (06/02/2016)           Time: Fri Jun 29 04:37:24 2018
GAUSSIAN             11 MOL ORBITALS    279 PRIMITIVES        5 NUCLEI
  C    1    (CENTRE  1)   0.00000000 -1.20102300  0.88144952  CHARGE =  6.0
  C    2    (CENTRE  2)   0.00000000  1.20102300  0.88144952  CHARGE =  6.0
  H    3    (CENTRE  3)   0.00000000  3.13892580  1.51330024  CHARGE =  1.0
  H    4    (CENTRE  4)   0.00000000 -3.13892580  1.51330024  CHARGE =  1.0
  O    5    (CENTRE  5)   0.00000000  0.00000000 -1.66590129  CHARGE =  8.0
CENTRE ASSIGNMENTS    1  1  1  1  1  1  1  1  1  1  1  1  1  1  1  1  1  1  1  1
CENTRE ASSIGNMENTS    1  1  1  1  1  1  1  1  1  1  1  1  1  1  1  1  1  1  1  1
CENTRE ASSIGNMENTS    1  1  1  1  1  1  1  1  1  1  1  1  1  1  1  1  1  1  1  1
CENTRE ASSIGNMENTS    1  1  1  1  1  1  1  1  1  1  1  1  1  1  1  2  2  2  2  2
CENTRE ASSIGNMENTS    2  2  2  2  2  2  2  2  2  2  2  2  2  2  2  2  2  2  2  2
CENTRE ASSIGNMENTS    2  2  2  2  2  2  2  2  2  2  2  2  2  2  2  2  2  2  2  2
CENTRE ASSIGNMENTS    2  2  2  2  2  2  2  2  2  2  2  2  2  2  2  2  2  2  2  2
CENTRE ASSIGNMENTS    2  2  2  2  2  2  2  2  2  2  3  3  3  3  3  3  3  3  3  3
CENTRE ASSIGNMENTS    3  3  3  3  3  3  3  3  3  3  3  3  3  3  3  3  3  4  4  4
CENTRE ASSIGNMENTS    4  4  4  4  4  4  4  4  4  4  4  4  4  4  4  4  4  4  4  4
CENTRE ASSIGNMENTS    4  4  4  4  5  5  5  5  5  5  5  5  5  5  5  5  5  5  5  5
CENTRE ASSIGNMENTS    5  5  5  5  5  5  5  5  5  5  5  5  5  5  5  5  5  5  5  5
CENTRE ASSIGNMENTS    5  5  5  5  5  5  5  5  5  5  5  5  5  5  5  5  5  5  5  5
CENTRE ASSIGNMENTS    5  5  5  5  5  5  5  5  5  5  5  5  5  5  5  5  5  5  5
TYPE ASSIGNMENTS      1  1  1  1  1  1  1  1  1  1  1  1  1  1  1  1  1  1  1  2
TYPE ASSIGNMENTS      2  2  3  3  3  4  4  4  2  3  4  2  3  4  2  3  4  5  6  7
TYPE ASSIGNMENTS      8  9 10  5  6  7  8  9 10  5  6  7  8  9 10 11 12 13 17 14
TYPE ASSIGNMENTS     15 18 19 16 20 11 12 13 17 14 15 18 19 16 20  1  1  1  1  1
TYPE ASSIGNMENTS      1  1  1  1  1  1  1  1  1  1  1  1  1  1  2  2  2  3  3  3
TYPE ASSIGNMENTS      4  4  4  2  3  4  2  3  4  2  3  4  5  6  7  8  9 10  5  6
TYPE ASSIGNMENTS      7  8  9 10  5  6  7  8  9 10 11 12 13 17 14 15 18 19 16 20
TYPE ASSIGNMENTS     11 12 13 17 14 15 18 19 16 20  1  1  1  1  1  1  2  3  4  2
TYPE ASSIGNMENTS      3  4  2  3  4  5  6  7  8  9 10  5  6  7  8  9 10  1  1  1
TYPE ASSIGNMENTS      1  1  1  2  3  4  2  3  4  2  3  4  5  6  7  8  9 10  5  6
TYPE ASSIGNMENTS      7  8  9 10  1  1  1  1  1  1  1  1  1  1  1  1  1  1  1  1
TYPE ASSIGNMENTS      1  1  1  2  2  2  3  3  3  4  4  4  2  3  4  2  3  4  2  3
TYPE ASSIGNMENTS      4  5  6  7  8  9 10  5  6  7  8  9 10  5  6  7  8  9 10 11
TYPE ASSIGNMENTS     12 13 17 14 15 18 19 16 20 11 12 13 17 14 15 18 19 16 20
EXPONENTS  0.8236000D+04 0.1235000D+04 0.2808000D+03 0.7927000D+02 0.2559000D+02
EXPONENTS  0.8997000D+01 0.3319000D+01 0.3643000D+00 0.8236000D+04 0.1235000D+04
EXPONENTS  0.2808000D+03 0.7927000D+02 0.2559000D+02 0.8997000D+01 0.3319000D+01
EXPONENTS  0.3643000D+00 0.9059000D+00 0.1285000D+00 0.4402000D-01 0.1871000D+02
EXPONENTS  0.4133000D+01 0.1200000D+01 0.1871000D+02 0.4133000D+01 0.1200000D+01
EXPONENTS  0.1871000D+02 0.4133000D+01 0.1200000D+01 0.3827000D+00 0.3827000D+00
EXPONENTS  0.3827000D+00 0.1209000D+00 0.1209000D+00 0.1209000D+00 0.3569000D-01
EXPONENTS  0.3569000D-01 0.3569000D-01 0.1097000D+01 0.1097000D+01 0.1097000D+01
EXPONENTS  0.1097000D+01 0.1097000D+01 0.1097000D+01 0.3180000D+00 0.3180000D+00
EXPONENTS  0.3180000D+00 0.3180000D+00 0.3180000D+00 0.3180000D+00 0.1000000D+00
EXPONENTS  0.1000000D+00 0.1000000D+00 0.1000000D+00 0.1000000D+00 0.1000000D+00
EXPONENTS  0.7610000D+00 0.7610000D+00 0.7610000D+00 0.7610000D+00 0.7610000D+00
EXPONENTS  0.7610000D+00 0.7610000D+00 0.7610000D+00 0.7610000D+00 0.7610000D+00
EXPONENTS  0.2680000D+00 0.2680000D+00 0.2680000D+00 0.2680000D+00 0.2680000D+00
EXPONENTS  0.2680000D+00 0.2680000D+00 0.2680000D+00 0.2680000D+00 0.2680000D+00
EXPONENTS  0.8236000D+04 0.1235000D+04 0.2808000D+03 0.7927000D+02 0.2559000D+02
EXPONENTS  0.8997000D+01 0.3319000D+01 0.3643000D+00 0.8236000D+04 0.1235000D+04
EXPONENTS  0.2808000D+03 0.7927000D+02 0.2559000D+02 0.8997000D+01 0.3319000D+01
EXPONENTS  0.3643000D+00 0.9059000D+00 0.1285000D+00 0.4402000D-01 0.1871000D+02
EXPONENTS  0.4133000D+01 0.1200000D+01 0.1871000D+02 0.4133000D+01 0.1200000D+01
EXPONENTS  0.1871000D+02 0.4133000D+01 0.1200000D+01 0.3827000D+00 0.3827000D+00
EXPONENTS  0.3827000D+00 0.1209000D+00 0.1209000D+00 0.1209000D+00 0.3569000D-01
EXPONENTS  0.3569000D-01 0.3569000D-01 0.1097000D+01 0.1097000D+01 0.1097000D+01
EXPONENTS  0.1097000D+01 0.1097000D+01 0.1097000D+01 0.3180000D+00 0.3180000D+00
EXPONENTS  0.3180000D+00 0.3180000D+00 0.3180000D+00 0.3180000D+00 0.1000000D+00
EXPONENTS  0.1000000D+00 0.1000000D+00 0.1000000D+00 0.1000000D+00 0.1000000D+00
EXPONENTS  0.7610000D+00 0.7610000D+00 0.7610000D+00 0.7610000D+00 0.7610000D+00
EXPONENTS  0.7610000D+00 0.7610000D+00 0.7610000D+00 0.7610000D+00 0.7610000D+00
EXPONENTS  0.2680000D+00 0.2680000D+00 0.2680000D+00 0.2680000D+00 0.2680000D+00
EXPONENTS  0.2680000D+00 0.2680000D+00 0.2680000D+00 0.2680000D+00 0.2680000D+00
EXPONENTS  0.3387000D+02 0.5095000D+01 0.1159000D+01 0.3258000D+00 0.1027000D+00
EXPONENTS  0.2526000D-01 0.1407000D+01 0.1407000D+01 0.1407000D+01 0.3880000D+00
EXPONENTS  0.3880000D+00 0.3880000D+00 0.1020000D+00 0.1020000D+00 0.1020000D+00
EXPONENTS  0.1057000D+01 0.1057000D+01 0.1057000D+01 0.1057000D+01 0.1057000D+01
EXPONENTS  0.1057000D+01 0.2470000D+00 0.2470000D+00 0.2470000D+00 0.2470000D+00
EXPONENTS  0.2470000D+00 0.2470000D+00 0.3387000D+02 0.5095000D+01 0.1159000D+01
EXPONENTS  0.3258000D+00 0.1027000D+00 0.2526000D-01 0.1407000D+01 0.1407000D+01
EXPONENTS  0.1407000D+01 0.3880000D+00 0.3880000D+00 0.3880000D+00 0.1020000D+00
EXPONENTS  0.1020000D+00 0.1020000D+00 0.1057000D+01 0.1057000D+01 0.1057000D+01
EXPONENTS  0.1057000D+01 0.1057000D+01 0.1057000D+01 0.2470000D+00 0.2470000D+00
EXPONENTS  0.2470000D+00 0.2470000D+00 0.2470000D+00 0.2470000D+00 0.1533000D+05
EXPONENTS  0.2299000D+04 0.5224000D+03 0.1473000D+03 0.4755000D+02 0.1676000D+02
EXPONENTS  0.6207000D+01 0.6882000D+00 0.1533000D+05 0.2299000D+04 0.5224000D+03
EXPONENTS  0.1473000D+03 0.4755000D+02 0.1676000D+02 0.6207000D+01 0.6882000D+00
EXPONENTS  0.1752000D+01 0.2384000D+00 0.7376000D-01 0.3446000D+02 0.7749000D+01
EXPONENTS  0.2280000D+01 0.3446000D+02 0.7749000D+01 0.2280000D+01 0.3446000D+02
EXPONENTS  0.7749000D+01 0.2280000D+01 0.7156000D+00 0.7156000D+00 0.7156000D+00
EXPONENTS  0.2140000D+00 0.2140000D+00 0.2140000D+00 0.5974000D-01 0.5974000D-01
EXPONENTS  0.5974000D-01 0.2314000D+01 0.2314000D+01 0.2314000D+01 0.2314000D+01
EXPONENTS  0.2314000D+01 0.2314000D+01 0.6450000D+00 0.6450000D+00 0.6450000D+00
EXPONENTS  0.6450000D+00 0.6450000D+00 0.6450000D+00 0.2140000D+00 0.2140000D+00
EXPONENTS  0.2140000D+00 0.2140000D+00 0.2140000D+00 0.2140000D+00 0.1428000D+01
EXPONENTS  0.1428000D+01 0.1428000D+01 0.1428000D+01 0.1428000D+01 0.1428000D+01
EXPONENTS  0.1428000D+01 0.1428000D+01 0.1428000D+01 0.1428000D+01 0.5000000D+00
EXPONENTS  0.5000000D+00 0.5000000D+00 0.5000000D+00 0.5000000D+00 0.5000000D+00
EXPONENTS  0.5000000D+00 0.5000000D+00 0.5000000D+00 0.5000000D+00
MO    1     MO 0.0        OCC NO =    2.0000000  ORB. ENERGY =  -18.767111
  0.17525290D-03  0.32671126D-03  0.55219958D-03  0.83013685D-03  0.10199190D-02
  0.86148467D-03  0.32492032D-03 -0.16080488D-05 -0.11620724D-03 -0.21757661D-03
 -0.37044280D-03 -0.57301869D-03 -0.75464545D-03 -0.78412496D-03 -0.49827621D-03
  0.33393313D-03 -0.37277185D-03  0.82131359D-03  0.15676547D-03 -0.28017129D-16
 -0.26267840D-16 -0.18704267D-16 -0.48264487D-03 -0.45251024D-03 -0.32221425D-03
  0.78566757D-03  0.73661329D-03  0.52451254D-03  0.11323203D-16  0.17696984D-02
 -0.21331969D-02 -0.15842069D-17 -0.55144197D-04 -0.11708370D-03 -0.27043267D-19
  0.31707272D-05 -0.34891242D-05 -0.25617290D-03 -0.46836717D-03  0.72454007D-03
  0.15919189D-17 -0.17768674D-18 -0.10015413D-02 -0.11354134D-03 -0.48232382D-03
  0.59586516D-03 -0.29581092D-18  0.33230519D-18 -0.41390516D-03 -0.12370144D-04
  0.40746066D-04 -0.28375922D-04 -0.72484972D-18  0.98874541D-19  0.60956008D-04
 -0.12216548D-17 -0.95020769D-04 -0.20036183D-03  0.40090344D-17 -0.44015713D-03
  0.64889333D-03 -0.34407014D-18  0.72521944D-03 -0.47807833D-04 -0.18886494D-17
 -0.33030241D-19  0.30538102D-04 -0.70886177D-04  0.28012627D-18  0.51662920D-04
 -0.84986283D-04 -0.18103555D-18 -0.14327723D-03  0.29764481D-03 -0.23274352D-18
  0.17525290D-03  0.32671126D-03  0.55219958D-03  0.83013685D-03  0.10199190D-02
  0.86148467D-03  0.32492032D-03 -0.16080488D-05 -0.11620724D-03 -0.21757661D-03
 -0.37044280D-03 -0.57301869D-03 -0.75464545D-03 -0.78412496D-03 -0.49827621D-03
  0.33393313D-03 -0.37277185D-03  0.82131359D-03  0.15676547D-03  0.11994033D-17
  0.11245169D-17  0.80072299D-18  0.48264487D-03  0.45251024D-03  0.32221425D-03
  0.78566757D-03  0.73661329D-03  0.52451254D-03 -0.12563638D-17 -0.17696984D-02
 -0.21331969D-02  0.25446565D-17  0.55144197D-04 -0.11708370D-03  0.66385142D-19
 -0.31707272D-05 -0.34891242D-05 -0.25617290D-03 -0.46836717D-03  0.72454007D-03
  0.33416675D-17 -0.48595595D-18  0.10015413D-02 -0.11354134D-03 -0.48232382D-03
  0.59586516D-03  0.78109666D-18  0.36693335D-18  0.41390516D-03 -0.12370144D-04
  0.40746066D-04 -0.28375922D-04 -0.21946148D-18  0.22450852D-20 -0.60956008D-04
  0.56313384D-18  0.95020769D-04 -0.20036183D-03 -0.18947909D-17  0.44015713D-03
  0.64889333D-03  0.20538939D-18 -0.72521944D-03 -0.47807833D-04 -0.32058969D-18
 -0.50386163D-19 -0.30538102D-04 -0.70886177D-04 -0.19883349D-19 -0.51662920D-04
 -0.84986283D-04  0.17104184D-18  0.14327723D-03  0.29764481D-03  0.18909547D-18
 -0.29970340D-04 -0.54052742D-04 -0.79700737D-04  0.87576893D-03 -0.31255906D-03
 -0.15925372D-04  0.88001573D-18 -0.18157284D-03  0.32167201D-03 -0.12316364D-17
 -0.75024898D-03 -0.10920047D-02 -0.37013928D-18 -0.15946851D-04  0.66665838D-04
 -0.24777728D-03  0.29285944D-03 -0.45082159D-04 -0.63804942D-18  0.58519279D-19
  0.51136791D-03 -0.32329955D-04  0.41330360D-04 -0.90004052D-05  0.80294459D-18
  0.11212165D-18  0.17326529D-03 -0.29970340D-04 -0.54052742D-04 -0.79700737D-04
  0.87576893D-03 -0.31255906D-03 -0.15925372D-04 -0.98479828D-18  0.18157284D-03
  0.32167201D-03 -0.17854970D-17  0.75024898D-03 -0.10920047D-02 -0.66120058D-18
  0.15946851D-04  0.66665838D-04 -0.24777728D-03  0.29285944D-03 -0.45082159D-04
 -0.33225772D-17  0.13673243D-17 -0.51136791D-03 -0.32329955D-04  0.41330360D-04
 -0.90004052D-05 -0.20176741D-18  0.26405318D-18 -0.17326529D-03  0.49637530D+00
  0.92517968D+00  0.15687982D+01  0.23744491D+01  0.29626193D+01  0.25444948D+01
  0.97688105D+00 -0.43696489D-02  0.22645767D-03  0.42472698D-03  0.72406638D-03
  0.11315748D-02  0.15131311D-02  0.16156713D-02  0.98778974D-03 -0.65168368D-03
  0.56725405D-01 -0.20121334D-02 -0.71257772D-03  0.10538412D-16  0.10218715D-16
  0.68934848D-17  0.38807217D-13  0.37629947D-13  0.25384940D-13  0.91605444D-02
  0.88826466D-02  0.59921809D-02 -0.15406240D-17 -0.30254747D-14 -0.15928391D-02
  0.28728682D-18  0.22571172D-14 -0.19947171D-02  0.28019741D-20  0.13772344D-14
 -0.61153265D-04 -0.27181253D-02 -0.13367517D-03  0.28518005D-02  0.29852070D-17
 -0.78081794D-19  0.63047654D-14  0.10433118D-02  0.12126771D-03 -0.11645795D-02
 -0.17327919D-18 -0.61502823D-18 -0.18091835D-14  0.25597203D-03  0.84042339D-05
 -0.26437626D-03 -0.16981867D-18  0.13595903D-18  0.15299060D-14  0.95884693D-19
  0.11849727D-15 -0.14708339D-03 -0.33738500D-18  0.15839916D-14  0.11046658D-03
  0.49730917D-19 -0.19394835D-14  0.33078360D-03  0.61334646D-17  0.63112635D-19
  0.49576842D-16 -0.15307262D-03  0.17445613D-18 -0.12130551D-15  0.69047141D-03
 -0.36379404D-18 -0.27425014D-16 -0.23125354D-03 -0.58827472D-18
MO    2     MO 0.0        OCC NO =    2.0000000  ORB. ENERGY =   -9.961555
  0.23295610D+00  0.43428314D+00  0.73401501D+00  0.11034650D+01  0.13557342D+01
  0.11451343D+01  0.43190253D+00 -0.21375097D-02 -0.23360106D-02 -0.43737490D-02
 -0.74466819D-02 -0.11518885D-01 -0.15169966D-01 -0.15762566D-01 -0.10016403D-01
  0.67127605D-02  0.28424969D-01 -0.94454789D-03 -0.33107134D-03 -0.42793389D-16
 -0.40121523D-16 -0.28568914D-16  0.32006725D-02  0.30008339D-02  0.21367725D-02
 -0.13415804D-02 -0.12578169D-02 -0.89564055D-03 -0.26316364D-17 -0.94617945D-03
  0.83981791D-03  0.62924342D-17 -0.63645379D-03 -0.20081348D-03  0.24901911D-18
  0.45566411D-05 -0.31044404D-05 -0.36925279D-02  0.51838307D-02 -0.14913027D-02
 -0.46518723D-17 -0.29389623D-17 -0.41802917D-02  0.13446755D-02 -0.19530138D-02
  0.60833839D-03  0.31272360D-17 -0.49227835D-18  0.10770265D-02  0.14301883D-03
 -0.25585669D-03  0.11283786D-03  0.21227646D-17 -0.37435784D-18  0.57319729D-04
 -0.59633870D-18 -0.15844275D-02 -0.32955062D-03  0.91266509D-18  0.21906916D-02
 -0.52296856D-04  0.87635100D-18  0.25625908D-02  0.10409487D-02 -0.35733947D-17
  0.75648606D-19 -0.16513633D-03  0.30441805D-03 -0.32076927D-18  0.22556349D-03
  0.11689310D-03  0.93823452D-19  0.26984550D-03 -0.10301472D-02 -0.86128681D-18
  0.23295610D+00  0.43428314D+00  0.73401502D+00  0.11034650D+01  0.13557343D+01
  0.11451343D+01  0.43190253D+00 -0.21375097D-02 -0.23360107D-02 -0.43737491D-02
 -0.74466820D-02 -0.11518885D-01 -0.15169966D-01 -0.15762566D-01 -0.10016403D-01
  0.67127606D-02  0.28424969D-01 -0.94454780D-03 -0.33107137D-03 -0.12119580D-16
 -0.11362876D-16 -0.80910449D-17 -0.32006725D-02 -0.30008339D-02 -0.21367725D-02
 -0.13415804D-02 -0.12578169D-02 -0.89564056D-03  0.18611581D-17  0.94617934D-03
  0.83981792D-03 -0.69613396D-17  0.63645368D-03 -0.20081348D-03 -0.26040737D-18
 -0.45566396D-05 -0.31044397D-05 -0.36925280D-02  0.51838307D-02 -0.14913028D-02
  0.12531932D-17 -0.27078829D-17  0.41802917D-02  0.13446755D-02 -0.19530138D-02
  0.60833837D-03 -0.23941980D-17 -0.36083927D-18 -0.10770265D-02  0.14301883D-03
 -0.25585669D-03  0.11283786D-03  0.25781383D-17  0.61543037D-18 -0.57319733D-04
 -0.99873685D-18  0.15844274D-02 -0.32955063D-03 -0.30010961D-19 -0.21906916D-02
 -0.52296865D-04  0.30262215D-17 -0.25625907D-02  0.10409488D-02  0.32462924D-17
  0.46914652D-18  0.16513632D-03  0.30441805D-03 -0.11172192D-17 -0.22556348D-03
  0.11689310D-03 -0.29022040D-18 -0.26984548D-03 -0.10301472D-02 -0.19035001D-17
  0.13055820D-03  0.23546708D-03  0.34719608D-03  0.12349003D-02  0.69346792D-03
  0.35247439D-04 -0.40194435D-17  0.20443732D-02  0.70252051D-03  0.64999952D-17
  0.14515807D-02  0.19952445D-02 -0.23673433D-17  0.33859228D-03 -0.27671758D-04
  0.20995448D-02 -0.27529960D-02  0.65345127D-03 -0.35572332D-17 -0.59602628D-19
 -0.45811689D-02  0.31580731D-03 -0.35930030D-03  0.43492987D-04 -0.10141859D-17
  0.18718200D-18 -0.27509576D-03  0.13055819D-03  0.23546708D-03  0.34719607D-03
  0.12349002D-02  0.69346781D-03  0.35247439D-04 -0.62597397D-17 -0.20443732D-02
  0.70252051D-03  0.40479462D-17 -0.14515807D-02  0.19952445D-02  0.14275678D-17
 -0.33859229D-03 -0.27671756D-04  0.20995447D-02 -0.27529960D-02  0.65345125D-03
  0.28568193D-17 -0.33772573D-17  0.45811689D-02  0.31580731D-03 -0.35930030D-03
  0.43492987D-04  0.32497030D-18 -0.11125018D-17  0.27509576D-03  0.45048779D-03
  0.83965127D-03  0.14237703D-02  0.21549427D-02  0.26887394D-02  0.23092685D-02
  0.88657309D-03 -0.39656958D-05 -0.32973534D-03 -0.61842680D-03 -0.10542821D-02
 -0.16476377D-02 -0.22032056D-02 -0.23525099D-02 -0.14382784D-02  0.94888875D-03
 -0.90582793D-05  0.12452409D-02 -0.76180267D-03 -0.21513187D-17 -0.20860555D-17
 -0.14072407D-17 -0.94522372D-11 -0.91654905D-11 -0.61829858D-11  0.23015057D-03
  0.22316864D-03  0.15054824D-03  0.23846976D-18  0.15130774D-10  0.14162653D-02
  0.11145954D-17  0.65538453D-11 -0.67643171D-03  0.32157027D-19  0.82909454D-12
 -0.12957150D-03 -0.13656699D-02 -0.11280542D-02  0.24937241D-02  0.16084934D-16
  0.72092381D-17  0.74276387D-11  0.30353433D-03  0.26559934D-03 -0.56913367D-03
 -0.23333503D-17 -0.40446608D-17  0.79655922D-11  0.17541229D-03  0.21332916D-03
 -0.38874145D-03  0.42039852D-18  0.85178240D-18  0.15661076D-11 -0.66612450D-18
  0.18136378D-11  0.81538203D-03 -0.35912670D-17 -0.80029254D-11 -0.79164774D-03
  0.55896405D-17  0.25620119D-11 -0.16544983D-02 -0.10564912D-16  0.69348384D-18
 -0.76082176D-12 -0.39299263D-03  0.11675448D-17  0.45471666D-11  0.10053687D-02
 -0.32479963D-17 -0.22647013D-11  0.17360919D-03 -0.85857431D-18
MO    3     MO 0.0        OCC NO =    2.0000000  ORB. ENERGY =   -9.960387
  0.23382414D+00  0.43590136D+00  0.73675009D+00  0.11075767D+01  0.13607860D+01
  0.11494013D+01  0.43351188D+00 -0.21454745D-02 -0.28731139D-02 -0.53793757D-02
 -0.91588474D-02 -0.14167344D-01 -0.18657894D-01 -0.19386747D-01 -0.12319407D-01
  0.82561804D-02  0.26909867D-01  0.84377961D-02 -0.30391502D-02  0.78344158D-16
  0.73452628D-16  0.52302647D-16 -0.21176026D-02 -0.19853870D-02 -0.14137138D-02
 -0.18287377D-02 -0.17145578D-02 -0.12208673D-02 -0.31238332D-17  0.96126712D-02
  0.54665071D-03 -0.86937882D-17  0.97768125D-02 -0.11208040D-03 -0.29520607D-18
 -0.15334928D-03  0.73337936D-04 -0.39891954D-02  0.59108416D-02 -0.19216462D-02
  0.23028769D-17  0.21438533D-17 -0.17460269D-02 -0.57707733D-04  0.14733039D-02
 -0.14155962D-02 -0.56106980D-17  0.10681989D-17  0.73067630D-03  0.41427694D-04
  0.12510730D-03 -0.16653500D-03 -0.27860746D-17  0.51560485D-18  0.44324348D-03
  0.15875423D-17  0.20707770D-02 -0.37913062D-03 -0.43951275D-17 -0.21255632D-02
 -0.77304405D-03 -0.36749938D-18 -0.40867677D-02  0.19104359D-02  0.49107547D-17
  0.20374896D-18  0.79854598D-03  0.22492179D-03 -0.57917986D-18 -0.93084103D-03
 -0.14859034D-04 -0.32067027D-19 -0.14647969D-02 -0.65990635D-03  0.15975809D-17
 -0.23382414D+00 -0.43590136D+00 -0.73675008D+00 -0.11075767D+01 -0.13607860D+01
 -0.11494013D+01 -0.43351187D+00  0.21454744D-02  0.28731138D-02  0.53793756D-02
  0.91588473D-02  0.14167344D-01  0.18657894D-01  0.19386747D-01  0.12319407D-01
 -0.82561803D-02 -0.26909866D-01 -0.84377961D-02  0.30391502D-02  0.10398173D-16
  0.97489477D-17  0.69418315D-17 -0.21176026D-02 -0.19853871D-02 -0.14137139D-02
  0.18287377D-02  0.17145578D-02  0.12208673D-02  0.14780161D-17  0.96126712D-02
 -0.54665070D-03  0.94232473D-17  0.97768125D-02  0.11208039D-03  0.30271752D-18
 -0.15334928D-03 -0.73337936D-04  0.39891954D-02 -0.59108415D-02  0.19216461D-02
 -0.19165284D-17  0.31519880D-17 -0.17460268D-02  0.57707749D-04 -0.14733039D-02
  0.14155962D-02 -0.73152602D-18  0.29843707D-19  0.73067629D-03 -0.41427692D-04
 -0.12510730D-03  0.16653500D-03 -0.31593592D-17 -0.71339620D-18  0.44324348D-03
  0.38930753D-18  0.20707770D-02  0.37913062D-03  0.25137340D-17 -0.21255633D-02
  0.77304405D-03 -0.36816566D-17 -0.40867678D-02 -0.19104359D-02 -0.28732047D-17
 -0.65921778D-18  0.79854598D-03 -0.22492179D-03  0.18772291D-17 -0.93084104D-03
  0.14859035D-04  0.10042421D-18 -0.14647969D-02  0.65990633D-03  0.22921204D-17
 -0.28711020D-03 -0.51781506D-03 -0.76351801D-03 -0.52181051D-02 -0.99573403D-02
  0.84186698D-04  0.38438071D-17  0.50458866D-03  0.50547455D-03 -0.72048801D-17
 -0.10022485D-02  0.17036854D-02  0.27209810D-17  0.14342003D-02  0.18531240D-03
 -0.10058534D-02  0.26664988D-02 -0.16606455D-02  0.46433451D-17  0.76890563D-18
 -0.81489864D-03 -0.97076063D-04  0.14906029D-03 -0.51984224D-04  0.87954008D-18
 -0.20330830D-18  0.14652649D-03  0.28711020D-03  0.51781507D-03  0.76351801D-03
  0.52181051D-02  0.99573403D-02 -0.84186698D-04  0.59286008D-17  0.50458864D-03
 -0.50547454D-03 -0.18393611D-17 -0.10022485D-02 -0.17036853D-02 -0.18153859D-17
  0.14342003D-02 -0.18531240D-03  0.10058534D-02 -0.26664989D-02  0.16606455D-02
 -0.26314369D-18  0.23949661D-17 -0.81489858D-03  0.97076066D-04 -0.14906029D-03
  0.51984224D-04 -0.57203792D-19  0.10814930D-17  0.14652649D-03  0.25734768D-11
  0.47966296D-11  0.81334946D-11  0.12310423D-10  0.15359813D-10  0.13192031D-10
  0.50646773D-11 -0.22654613D-13 -0.18832821D-11 -0.35321423D-11 -0.60215283D-11
 -0.94104766D-11 -0.12583600D-10 -0.13436351D-10 -0.82147218D-11  0.54195745D-11
 -0.47771425D-13  0.70984175D-11 -0.43027619D-11  0.20331919D-17  0.19715122D-17
  0.13299705D-17  0.16721187D-02  0.16213927D-02  0.10937819D-02  0.13042862D-11
  0.12647188D-11  0.85317185D-12 -0.27225840D-18 -0.26701581D-02  0.80690686D-11
 -0.55820468D-18 -0.11346815D-02 -0.38588164D-11 -0.92748576D-20 -0.15487275D-03
 -0.73602055D-12 -0.77857024D-11 -0.63959304D-11  0.14181633D-10 -0.15847220D-16
 -0.82464289D-17 -0.12978853D-02  0.17393473D-11  0.14993414D-11 -0.32386887D-11
  0.20285383D-17  0.46365641D-17 -0.14072182D-02  0.10013804D-11  0.12155396D-11
 -0.22169201D-11 -0.54214668D-18 -0.54739919D-18 -0.27226808D-03  0.88713101D-18
 -0.31508181D-03  0.46382559D-11  0.36815944D-17  0.13933600D-02 -0.45258651D-11
 -0.63429874D-17 -0.44811458D-03 -0.93889025D-11  0.10138766D-16 -0.84941087D-18
  0.13233612D-03 -0.22349737D-11 -0.12157527D-17 -0.79556541D-03  0.57335849D-11
  0.37639854D-17  0.39855705D-03  0.97133614D-12  0.38141635D-18
MO    4     MO 0.0        OCC NO =    2.0000000  ORB. ENERGY =   -0.970130
 -0.67272742D-02 -0.12541169D-01 -0.21196784D-01 -0.31865710D-01 -0.39150706D-01
 -0.33069030D-01 -0.12472422D-01  0.61726710D-04 -0.23295972D-01 -0.43617410D-01
 -0.74262373D-01 -0.11487260D+00 -0.15128317D+00 -0.15719291D+00 -0.99889035D-01
  0.66943308D-01  0.30696806D-01  0.11406167D-01 -0.27643954D-03  0.11554802D-14
  0.10833361D-14  0.77139986D-15  0.13758744D+00  0.12899697D+00  0.91853530D-01
 -0.11330286D+00 -0.10622863D+00 -0.75641112D-01  0.15878248D-15  0.15781343D-01
 -0.21007417D-01  0.10503206D-15 -0.11774099D-02 -0.27676545D-03  0.66106872D-17
  0.25733389D-04  0.22487917D-04 -0.16566649D-01  0.12664118D-01  0.39025308D-02
  0.51055918D-17 -0.35798231D-16 -0.29716983D-01 -0.29106489D-02  0.19389970D-02
  0.97165188D-03  0.53323505D-16 -0.33357329D-17 -0.61064748D-02  0.88435242D-04
 -0.22798330D-04 -0.65636912D-04  0.66276314D-17  0.54808472D-18  0.30453860D-03
 -0.11963169D-16  0.41681527D-03 -0.70237640D-03  0.35083103D-16 -0.41317985D-02
  0.44504024D-02  0.80640289D-18  0.28813527D-02 -0.23432732D-02 -0.18903890D-16
 -0.65649171D-17 -0.20981273D-03 -0.21338813D-03  0.23459997D-16 -0.38956552D-04
  0.27442045D-03 -0.37652457D-17  0.66839475D-03  0.36574394D-03 -0.73238365D-17
 -0.67272742D-02 -0.12541169D-01 -0.21196784D-01 -0.31865710D-01 -0.39150706D-01
 -0.33069030D-01 -0.12472422D-01  0.61726710D-04 -0.23295972D-01 -0.43617410D-01
 -0.74262373D-01 -0.11487260D+00 -0.15128317D+00 -0.15719291D+00 -0.99889035D-01
  0.66943308D-01  0.30696806D-01  0.11406167D-01 -0.27643953D-03  0.16276101D-15
  0.15259880D-15  0.10865943D-15 -0.13758744D+00 -0.12899697D+00 -0.91853530D-01
 -0.11330286D+00 -0.10622863D+00 -0.75641112D-01 -0.19669755D-16 -0.15781343D-01
 -0.21007417D-01 -0.37884021D-16  0.11774099D-02 -0.27676545D-03 -0.29581134D-17
 -0.25733389D-04  0.22487916D-04 -0.16566649D-01  0.12664118D-01  0.39025308D-02
 -0.64707214D-16 -0.17760785D-18  0.29716983D-01 -0.29106489D-02  0.19389970D-02
  0.97165188D-03  0.70710132D-16  0.14762241D-18  0.61064748D-02  0.88435242D-04
 -0.22798330D-04 -0.65636912D-04  0.84572545D-17 -0.10408864D-17 -0.30453860D-03
  0.19047963D-17 -0.41681527D-03 -0.70237640D-03 -0.64703684D-18  0.41317985D-02
  0.44504024D-02 -0.50673521D-17 -0.28813527D-02 -0.23432732D-02 -0.62367028D-17
  0.88876772D-18  0.20981273D-03 -0.21338813D-03 -0.91372187D-17  0.38956552D-04
  0.27442045D-03  0.64709155D-17 -0.66839475D-03  0.36574394D-03  0.80698403D-17
  0.24156614D-02  0.43567449D-02  0.64240178D-02 -0.66979854D-02 -0.36271107D-02
  0.12640715D-04  0.10633622D-16 -0.10867499D-02 -0.73893583D-03 -0.16923638D-16
  0.58235324D-02  0.15296576D-02  0.70375290D-18  0.10591711D-02  0.66389883D-03
  0.81073349D-03 -0.20994701D-02  0.12887366D-02 -0.48984940D-18  0.25592301D-17
 -0.24037378D-02  0.23357243D-03 -0.61573989D-03  0.38216746D-03  0.97800863D-17
 -0.23516037D-17 -0.62746380D-03  0.24156614D-02  0.43567449D-02  0.64240178D-02
 -0.66979854D-02 -0.36271107D-02  0.12640715D-04  0.24162958D-16  0.10867499D-02
 -0.73893583D-03 -0.39093181D-16 -0.58235324D-02  0.15296576D-02 -0.11483654D-16
 -0.10591711D-02  0.66389883D-03  0.81073349D-03 -0.20994701D-02  0.12887366D-02
 -0.45336645D-17  0.18909666D-17  0.24037378D-02  0.23357243D-03 -0.61573989D-03
  0.38216746D-03 -0.15918866D-16  0.79984418D-17  0.62746380D-03 -0.86583826D-02
 -0.16138111D-01 -0.27364889D-01 -0.41418034D-01 -0.51677614D-01 -0.44384179D-01
 -0.17039949D-01  0.76220738D-04 -0.76201458D-01 -0.14291772D+00 -0.24364339D+00
 -0.38076719D+00 -0.50915828D+00 -0.54366234D+00 -0.33238449D+00  0.21928710D+00
  0.12170426D+00  0.53542527D-01  0.12635762D-02  0.28598646D-15  0.27731067D-15
  0.18707214D-15  0.21115109D-11  0.20474553D-11  0.13812012D-11  0.40119856D+00
  0.38902765D+00  0.26243575D+00  0.60720036D-16  0.44754091D-12  0.94683204D-01
 -0.10391112D-16  0.33573576D-12  0.68273715D-02 -0.84008723D-18 -0.26409064D-13
 -0.12882502D-03 -0.26813098D-01 -0.10257212D-01  0.37070310D-01  0.17562854D-17
  0.33415542D-16  0.40052939D-12 -0.10726400D-01 -0.38948870D-02  0.14621287D-01
  0.12703322D-17  0.50317801D-17  0.16373024D-12 -0.85254771D-04 -0.17817450D-04
  0.10307222D-03 -0.14733002D-17 -0.10385570D-16  0.11000181D-12 -0.22896591D-16
 -0.24710012D-13  0.84922175D-02  0.41402730D-17 -0.86169463D-13 -0.19556114D-01
  0.64549499D-16  0.16029950D-12 -0.59205383D-02  0.93712194D-17  0.47582331D-17
 -0.90760196D-14  0.14152152D-02  0.36440454D-17 -0.13945463D-13 -0.35463454D-02
 -0.17918745D-16  0.41173521D-13 -0.69930024D-03  0.23519966D-17
MO    5     MO 0.0        OCC NO =    2.0000000  ORB. ENERGY =   -0.631705
  0.73345018D-02  0.13673179D-01  0.23110081D-01  0.34742022D-01  0.42684588D-01
  0.36053958D-01  0.13598226D-01 -0.67298382D-04  0.35405980D-01  0.66291166D-01
  0.11286638D+00  0.17458713D+00  0.22992511D+00  0.23890692D+00  0.15181462D+00
 -0.10174263D+00 -0.47375312D-01 -0.27617708D-01 -0.12978105D-02 -0.10854013D-14
 -0.10176328D-14 -0.72461514D-15 -0.13606313D+00 -0.12756784D+00 -0.90835900D-01
 -0.12956550D+00 -0.12147589D+00 -0.86498074D-01 -0.22728822D-15 -0.15863191D-01
 -0.26734238D-01  0.36340876D-16 -0.35834147D-03 -0.28277595D-02  0.49832583D-17
 -0.47819619D-04  0.31716159D-06  0.86266639D-02 -0.29073079D-01  0.20446416D-01
 -0.15965710D-15 -0.14658347D-15 -0.55236195D-02  0.32311664D-02 -0.66059443D-02
  0.33747779D-02 -0.23722617D-17 -0.28621789D-16  0.33364966D-02  0.21958424D-03
 -0.50374905D-03  0.28416482D-03  0.99465859D-17 -0.23501000D-17  0.81824565D-04
  0.13700167D-16 -0.27123015D-02  0.12727056D-03 -0.53964877D-16  0.33004777D-02
  0.17719843D-02  0.12864376D-16  0.48364270D-02 -0.21537960D-02  0.25021570D-16
  0.74467828D-18 -0.12097552D-03  0.22479927D-03 -0.29685068D-17 -0.64901899D-04
  0.33243686D-03  0.73447192D-18  0.42782845D-03 -0.10068347D-02 -0.36163352D-17
  0.73345018D-02  0.13673179D-01  0.23110081D-01  0.34742022D-01  0.42684588D-01
  0.36053958D-01  0.13598226D-01 -0.67298382D-04  0.35405980D-01  0.66291166D-01
  0.11286638D+00  0.17458713D+00  0.22992511D+00  0.23890692D+00  0.15181462D+00
 -0.10174263D+00 -0.47375312D-01 -0.27617707D-01 -0.12978105D-02 -0.27821140D-15
 -0.26084088D-15 -0.18573424D-15  0.13606313D+00  0.12756784D+00  0.90835900D-01
 -0.12956550D+00 -0.12147589D+00 -0.86498074D-01 -0.47197717D-16  0.15863191D-01
 -0.26734238D-01 -0.31165535D-16  0.35834146D-03 -0.28277595D-02 -0.25711131D-17
  0.47819618D-04  0.31716144D-06  0.86266639D-02 -0.29073079D-01  0.20446416D-01
 -0.55183081D-17 -0.11679540D-16  0.55236195D-02  0.32311664D-02 -0.66059443D-02
  0.33747779D-02 -0.12566529D-17 -0.79512440D-17 -0.33364966D-02  0.21958424D-03
 -0.50374905D-03  0.28416482D-03  0.15613866D-16  0.30023611D-17 -0.81824565D-04
  0.20000036D-18  0.27123015D-02  0.12727056D-03  0.10053693D-16 -0.33004777D-02
  0.17719843D-02 -0.10653694D-16 -0.48364270D-02 -0.21537960D-02  0.20167430D-16
 -0.22828189D-17  0.12097552D-03  0.22479927D-03  0.25976891D-17  0.64901899D-04
  0.33243686D-03  0.42507676D-17 -0.42782845D-03 -0.10068347D-02  0.11839774D-17
 -0.13613269D-01 -0.24552091D-01 -0.36202044D-01 -0.50610656D-02  0.59123018D-02
  0.12878784D-03 -0.13707631D-16  0.99446696D-02  0.91418991D-03  0.83228148D-17
 -0.52086520D-02 -0.98737692D-03 -0.16011435D-16 -0.10042020D-02 -0.40854665D-03
  0.16320431D-03 -0.20798035D-03  0.44776041D-04 -0.45564252D-17 -0.24815257D-16
  0.10157386D-02 -0.21322952D-03  0.47097909D-03 -0.25774957D-03  0.23326931D-18
 -0.33901226D-17  0.14604502D-03 -0.13613269D-01 -0.24552091D-01 -0.36202044D-01
 -0.50610656D-02  0.59123018D-02  0.12878784D-03 -0.40994617D-16 -0.99446696D-02
  0.91418991D-03  0.29099474D-16  0.52086520D-02 -0.98737692D-03 -0.56813232D-17
  0.10042020D-02 -0.40854665D-03  0.16320431D-03 -0.20798035D-03  0.44776041D-04
  0.18967167D-16 -0.18509133D-16 -0.10157386D-02 -0.21322952D-03  0.47097909D-03
 -0.25774957D-03  0.69058284D-18  0.39516941D-17 -0.14604502D-03 -0.40775979D-02
 -0.76001178D-02 -0.12887282D-01 -0.19505501D-01 -0.24337170D-01 -0.20902383D-01
 -0.80248314D-02  0.35895563D-04 -0.61922521D-01 -0.11613722D+00 -0.19798851D+00
 -0.30941750D+00 -0.41375015D+00 -0.44178870D+00 -0.27010095D+00  0.17819620D+00
  0.10390567D+00  0.70381923D-01  0.35320104D-02 -0.12749124D-15 -0.12362362D-15
 -0.83395764D-16 -0.46649242D-11 -0.45234073D-11 -0.30514638D-11 -0.23911370D+00
 -0.23185986D+00 -0.15641129D+00 -0.27315921D-16 -0.88141264D-12 -0.46664832D-01
 -0.26408736D-16 -0.13464035D-11  0.80977987D-03 -0.13499857D-17 -0.68254677D-13
  0.59124547D-04  0.33357292D-02  0.12802415D-01 -0.16138144D-01  0.53773388D-16
 -0.76614481D-16 -0.54207191D-12 -0.16535992D-02  0.31620847D-02 -0.15084855D-02
 -0.81370064D-17 -0.10779809D-16 -0.53694632D-12 -0.54461401D-03 -0.33541573D-03
  0.88002974D-03  0.23525599D-17 -0.16401868D-16 -0.52786596D-12 -0.12016980D-16