 Molden2AIM, Version 4.0.0 (06/02/2016)           Time: Fri Jun 29 03:40:42 2018
GAUSSIAN             31 MOL ORBITALS    631 PRIMITIVES        7 NUCLEI
  C    1    (CENTRE  1)  -5.66063114  0.36722103  0.06352314  CHARGE =  6.0
  C    2    (CENTRE  2)  -3.95298580  2.25024618  0.00129635  CHARGE =  6.0
  H    3    (CENTRE  3)  -7.70623889  0.70388519  0.06266710  CHARGE =  1.0
  H    4    (CENTRE  4)  -5.12199873 -1.63090546  0.11930030  CHARGE =  1.0
  Mg   5    (CENTRE  5)  -0.10790336  1.60142573 -0.00077101  CHARGE = 12.0
  H    6    (CENTRE  6)  -4.76609905  4.16208966 -0.05057474  CHARGE =  1.0
  Br   7    (CENTRE  7)   4.27654282  0.79783103 -0.00623988  CHARGE = 35.0
CENTRE ASSIGNMENTS    1  1  1  1  1  1  1  1  1  1  1  1  1  1  1  1  1  1  1  1
CENTRE ASSIGNMENTS    1  1  1  1  1  1  1  1  1  1  1  1  1  1  1  1  1  1  1  1
CENTRE ASSIGNMENTS    1  1  1  1  1  1  1  1  1  1  1  1  1  1  1  1  1  1  1  1
CENTRE ASSIGNMENTS    1  1  1  1  1  1  1  1  1  1  1  1  1  1  1  2  2  2  2  2
CENTRE ASSIGNMENTS    2  2  2  2  2  2  2  2  2  2  2  2  2  2  2  2  2  2  2  2
CENTRE ASSIGNMENTS    2  2  2  2  2  2  2  2  2  2  2  2  2  2  2  2  2  2  2  2
CENTRE ASSIGNMENTS    2  2  2  2  2  2  2  2  2  2  2  2  2  2  2  2  2  2  2  2
CENTRE ASSIGNMENTS    2  2  2  2  2  2  2  2  2  2  3  3  3  3  3  3  3  3  3  3
CENTRE ASSIGNMENTS    3  3  3  3  3  3  3  3  3  3  3  3  3  3  3  3  3  4  4  4
CENTRE ASSIGNMENTS    4  4  4  4  4  4  4  4  4  4  4  4  4  4  4  4  4  4  4  4
CENTRE ASSIGNMENTS    4  4  4  4  5  5  5  5  5  5  5  5  5  5  5  5  5  5  5  5
CENTRE ASSIGNMENTS    5  5  5  5  5  5  5  5  5  5  5  5  5  5  5  5  5  5  5  5
CENTRE ASSIGNMENTS    5  5  5  5  5  5  5  5  5  5  5  5  5  5  5  5  5  5  5  5
CENTRE ASSIGNMENTS    5  5  5  5  5  5  5  5  5  5  5  5  5  5  5  5  5  5  5  5
CENTRE ASSIGNMENTS    5  5  5  5  5  5  5  5  5  5  5  5  5  5  5  5  5  5  5  5
CENTRE ASSIGNMENTS    5  5  5  5  5  5  5  5  5  5  5  5  5  5  5  5  5  5  5  5
CENTRE ASSIGNMENTS    5  5  5  5  5  5  5  5  5  5  5  5  5  5  5  5  5  5  5  5
CENTRE ASSIGNMENTS    5  6  6  6  6  6  6  6  6  6  6  6  6  6  6  6  6  6  6  6
CENTRE ASSIGNMENTS    6  6  6  6  6  6  6  6  7  7  7  7  7  7  7  7  7  7  7  7
CENTRE ASSIGNMENTS    7  7  7  7  7  7  7  7  7  7  7  7  7  7  7  7  7  7  7  7
CENTRE ASSIGNMENTS    7  7  7  7  7  7  7  7  7  7  7  7  7  7  7  7  7  7  7  7
CENTRE ASSIGNMENTS    7  7  7  7  7  7  7  7  7  7  7  7  7  7  7  7  7  7  7  7
CENTRE ASSIGNMENTS    7  7  7  7  7  7  7  7  7  7  7  7  7  7  7  7  7  7  7  7
CENTRE ASSIGNMENTS    7  7  7  7  7  7  7  7  7  7  7  7  7  7  7  7  7  7  7  7
CENTRE ASSIGNMENTS    7  7  7  7  7  7  7  7  7  7  7  7  7  7  7  7  7  7  7  7
CENTRE ASSIGNMENTS    7  7  7  7  7  7  7  7  7  7  7  7  7  7  7  7  7  7  7  7
CENTRE ASSIGNMENTS    7  7  7  7  7  7  7  7  7  7  7  7  7  7  7  7  7  7  7  7
CENTRE ASSIGNMENTS    7  7  7  7  7  7  7  7  7  7  7  7  7  7  7  7  7  7  7  7
CENTRE ASSIGNMENTS    7  7  7  7  7  7  7  7  7  7  7  7  7  7  7  7  7  7  7  7
CENTRE ASSIGNMENTS    7  7  7  7  7  7  7  7  7  7  7  7  7  7  7  7  7  7  7  7
CENTRE ASSIGNMENTS    7  7  7  7  7  7  7  7  7  7  7  7  7  7  7  7  7  7  7  7
CENTRE ASSIGNMENTS    7  7  7  7  7  7  7  7  7  7  7
TYPE ASSIGNMENTS      1  1  1  1  1  1  1  1  1  1  1  1  1  1  1  1  1  1  1  2
TYPE ASSIGNMENTS      2  2  3  3  3  4  4  4  2  3  4  2  3  4  2  3  4  5  6  7
TYPE ASSIGNMENTS      8  9 10  5  6  7  8  9 10  5  6  7  8  9 10 11 12 13 17 14
TYPE ASSIGNMENTS     15 18 19 16 20 11 12 13 17 14 15 18 19 16 20  1  1  1  1  1
TYPE ASSIGNMENTS      1  1  1  1  1  1  1  1  1  1  1  1  1  1  2  2  2  3  3  3
TYPE ASSIGNMENTS      4  4  4  2  3  4  2  3  4  2  3  4  5  6  7  8  9 10  5  6
TYPE ASSIGNMENTS      7  8  9 10  5  6  7  8  9 10 11 12 13 17 14 15 18 19 16 20
TYPE ASSIGNMENTS     11 12 13 17 14 15 18 19 16 20  1  1  1  1  1  1  2  3  4  2
TYPE ASSIGNMENTS      3  4  2  3  4  5  6  7  8  9 10  5  6  7  8  9 10  1  1  1
TYPE ASSIGNMENTS      1  1  1  2  3  4  2  3  4  2  3  4  5  6  7  8  9 10  5  6
TYPE ASSIGNMENTS      7  8  9 10  1  1  1  1  1  1  1  1  1  1  1  1  1  1  1  1
TYPE ASSIGNMENTS      1  1  1  1  1  1  1  1  1  1  1  1  1  1  1  1  1  1  1  1
TYPE ASSIGNMENTS      1  1  1  1  1  1  2  2  2  2  2  2  2  2  3  3  3  3  3  3
TYPE ASSIGNMENTS      3  3  4  4  4  4  4  4  4  4  2  2  2  2  2  2  2  2  3  3
TYPE ASSIGNMENTS      3  3  3  3  3  3  4  4  4  4  4  4  4  4  2  3  4  2  3  4
TYPE ASSIGNMENTS      2  3  4  5  6  7  8  9 10  5  6  7  8  9 10  5  6  7  8  9
TYPE ASSIGNMENTS     10 11 12 13 17 14 15 18 19 16 20 11 12 13 17 14 15 18 19 16
TYPE ASSIGNMENTS     20  1  1  1  1  1  1  2  3  4  2  3  4  2  3  4  5  6  7  8
TYPE ASSIGNMENTS      9 10  5  6  7  8  9 10  1  1  1  1  1  1  1  1  1  1  1  1
TYPE ASSIGNMENTS      1  1  1  1  1  1  1  1  1  1  1  1  1  1  1  1  1  1  1  1
TYPE ASSIGNMENTS      1  1  1  1  1  1  1  1  1  1  1  1  1  1  1  1  1  1  1  1
TYPE ASSIGNMENTS      1  1  1  1  1  1  1  1  1  1  1  1  1  1  1  1  1  1  1  1
TYPE ASSIGNMENTS      1  1  1  2  2  2  2  2  2  2  2  2  2  2  3  3  3  3  3  3
TYPE ASSIGNMENTS      3  3  3  3  3  4  4  4  4  4  4  4  4  4  4  4  2  2  2  2
TYPE ASSIGNMENTS      2  2  2  2  2  2  2  3  3  3  3  3  3  3  3  3  3  3  4  4
TYPE ASSIGNMENTS      4  4  4  4  4  4  4  4  4  2  2  2  2  2  2  2  2  2  2  2
TYPE ASSIGNMENTS      3  3  3  3  3  3  3  3  3  3  3  4  4  4  4  4  4  4  4  4
TYPE ASSIGNMENTS      4  4  2  3  4  2  3  4  2  3  4  5  5  5  5  5  5  5  6  6
TYPE ASSIGNMENTS      6  6  6  6  6  7  7  7  7  7  7  7  8  8  8  8  8  8  8  9
TYPE ASSIGNMENTS      9  9  9  9  9  9 10 10 10 10 10 10 10  5  6  7  8  9 10  5
TYPE ASSIGNMENTS      6  7  8  9 10  5  6  7  8  9 10 11 12 13 17 14 15 18 19 16
TYPE ASSIGNMENTS     20 11 12 13 17 14 15 18 19 16 20
EXPONENTS  0.8236000D+04 0.1235000D+04 0.2808000D+03 0.7927000D+02 0.2559000D+02
EXPONENTS  0.8997000D+01 0.3319000D+01 0.3643000D+00 0.8236000D+04 0.1235000D+04
EXPONENTS  0.2808000D+03 0.7927000D+02 0.2559000D+02 0.8997000D+01 0.3319000D+01
EXPONENTS  0.3643000D+00 0.9059000D+00 0.1285000D+00 0.4402000D-01 0.1871000D+02
EXPONENTS  0.4133000D+01 0.1200000D+01 0.1871000D+02 0.4133000D+01 0.1200000D+01
EXPONENTS  0.1871000D+02 0.4133000D+01 0.1200000D+01 0.3827000D+00 0.3827000D+00
EXPONENTS  0.3827000D+00 0.1209000D+00 0.1209000D+00 0.1209000D+00 0.3569000D-01
EXPONENTS  0.3569000D-01 0.3569000D-01 0.1097000D+01 0.1097000D+01 0.1097000D+01
EXPONENTS  0.1097000D+01 0.1097000D+01 0.1097000D+01 0.3180000D+00 0.3180000D+00
EXPONENTS  0.3180000D+00 0.3180000D+00 0.3180000D+00 0.3180000D+00 0.1000000D+00
EXPONENTS  0.1000000D+00 0.1000000D+00 0.1000000D+00 0.1000000D+00 0.1000000D+00
EXPONENTS  0.7610000D+00 0.7610000D+00 0.7610000D+00 0.7610000D+00 0.7610000D+00
EXPONENTS  0.7610000D+00 0.7610000D+00 0.7610000D+00 0.7610000D+00 0.7610000D+00
EXPONENTS  0.2680000D+00 0.2680000D+00 0.2680000D+00 0.2680000D+00 0.2680000D+00
EXPONENTS  0.2680000D+00 0.2680000D+00 0.2680000D+00 0.2680000D+00 0.2680000D+00
EXPONENTS  0.8236000D+04 0.1235000D+04 0.2808000D+03 0.7927000D+02 0.2559000D+02
EXPONENTS  0.8997000D+01 0.3319000D+01 0.3643000D+00 0.8236000D+04 0.1235000D+04
EXPONENTS  0.2808000D+03 0.7927000D+02 0.2559000D+02 0.8997000D+01 0.3319000D+01
EXPONENTS  0.3643000D+00 0.9059000D+00 0.1285000D+00 0.4402000D-01 0.1871000D+02
EXPONENTS  0.4133000D+01 0.1200000D+01 0.1871000D+02 0.4133000D+01 0.1200000D+01
EXPONENTS  0.1871000D+02 0.4133000D+01 0.1200000D+01 0.3827000D+00 0.3827000D+00
EXPONENTS  0.3827000D+00 0.1209000D+00 0.1209000D+00 0.1209000D+00 0.3569000D-01
EXPONENTS  0.3569000D-01 0.3569000D-01 0.1097000D+01 0.1097000D+01 0.1097000D+01
EXPONENTS  0.1097000D+01 0.1097000D+01 0.1097000D+01 0.3180000D+00 0.3180000D+00
EXPONENTS  0.3180000D+00 0.3180000D+00 0.3180000D+00 0.3180000D+00 0.1000000D+00
EXPONENTS  0.1000000D+00 0.1000000D+00 0.1000000D+00 0.1000000D+00 0.1000000D+00
EXPONENTS  0.7610000D+00 0.7610000D+00 0.7610000D+00 0.7610000D+00 0.7610000D+00
EXPONENTS  0.7610000D+00 0.7610000D+00 0.7610000D+00 0.7610000D+00 0.7610000D+00
EXPONENTS  0.2680000D+00 0.2680000D+00 0.2680000D+00 0.2680000D+00 0.2680000D+00
EXPONENTS  0.2680000D+00 0.2680000D+00 0.2680000D+00 0.2680000D+00 0.2680000D+00
EXPONENTS  0.3387000D+02 0.5095000D+01 0.1159000D+01 0.3258000D+00 0.1027000D+00
EXPONENTS  0.2526000D-01 0.1407000D+01 0.1407000D+01 0.1407000D+01 0.3880000D+00
EXPONENTS  0.3880000D+00 0.3880000D+00 0.1020000D+00 0.1020000D+00 0.1020000D+00
EXPONENTS  0.1057000D+01 0.1057000D+01 0.1057000D+01 0.1057000D+01 0.1057000D+01
EXPONENTS  0.1057000D+01 0.2470000D+00 0.2470000D+00 0.2470000D+00 0.2470000D+00
EXPONENTS  0.2470000D+00 0.2470000D+00 0.3387000D+02 0.5095000D+01 0.1159000D+01
EXPONENTS  0.3258000D+00 0.1027000D+00 0.2526000D-01 0.1407000D+01 0.1407000D+01
EXPONENTS  0.1407000D+01 0.3880000D+00 0.3880000D+00 0.3880000D+00 0.1020000D+00
EXPONENTS  0.1020000D+00 0.1020000D+00 0.1057000D+01 0.1057000D+01 0.1057000D+01
EXPONENTS  0.1057000D+01 0.1057000D+01 0.1057000D+01 0.2470000D+00 0.2470000D+00
EXPONENTS  0.2470000D+00 0.2470000D+00 0.2470000D+00 0.2470000D+00 0.1649000D+06
EXPONENTS  0.2471000D+05 0.5628000D+04 0.1596000D+04 0.5210000D+03 0.1880000D+03
EXPONENTS  0.7301000D+02 0.2990000D+02 0.1254000D+02 0.4306000D+01 0.1826000D+01
EXPONENTS  0.7417000D+00 0.7612000D-01 0.1649000D+06 0.2471000D+05 0.5628000D+04
EXPONENTS  0.1596000D+04 0.5210000D+03 0.1880000D+03 0.7301000D+02 0.2990000D+02
EXPONENTS  0.1254000D+02 0.4306000D+01 0.1826000D+01 0.7417000D+00 0.7612000D-01
EXPONENTS  0.1649000D+06 0.2471000D+05 0.5628000D+04 0.1596000D+04 0.5210000D+03
EXPONENTS  0.1880000D+03 0.7301000D+02 0.2990000D+02 0.1254000D+02 0.4306000D+01
EXPONENTS  0.1826000D+01 0.7417000D+00 0.7612000D-01 0.1457000D+00 0.3310000D-01
EXPONENTS  0.1290000D-01 0.3169000D+03 0.7486000D+02 0.2372000D+02 0.8669000D+01
EXPONENTS  0.3363000D+01 0.1310000D+01 0.4911000D+00 0.2364000D+00 0.3169000D+03
EXPONENTS  0.7486000D+02 0.2372000D+02 0.8669000D+01 0.3363000D+01 0.1310000D+01
EXPONENTS  0.4911000D+00 0.2364000D+00 0.3169000D+03 0.7486000D+02 0.2372000D+02
EXPONENTS  0.8669000D+01 0.3363000D+01 0.1310000D+01 0.4911000D+00 0.2364000D+00
EXPONENTS  0.3169000D+03 0.7486000D+02 0.2372000D+02 0.8669000D+01 0.3363000D+01
EXPONENTS  0.1310000D+01 0.4911000D+00 0.2364000D+00 0.3169000D+03 0.7486000D+02
EXPONENTS  0.2372000D+02 0.8669000D+01 0.3363000D+01 0.1310000D+01 0.4911000D+00
EXPONENTS  0.2364000D+00 0.3169000D+03 0.7486000D+02 0.2372000D+02 0.8669000D+01
EXPONENTS  0.3363000D+01 0.1310000D+01 0.4911000D+00 0.2364000D+00 0.8733000D-01
EXPONENTS  0.8733000D-01 0.8733000D-01 0.3237000D-01 0.3237000D-01 0.3237000D-01
EXPONENTS  0.7450000D-02 0.7450000D-02 0.7450000D-02 0.1260000D+00 0.1260000D+00
EXPONENTS  0.1260000D+00 0.1260000D+00 0.1260000D+00 0.1260000D+00 0.2940000D+00
EXPONENTS  0.2940000D+00 0.2940000D+00 0.2940000D+00 0.2940000D+00 0.2940000D+00
EXPONENTS  0.4680000D-01 0.4680000D-01 0.4680000D-01 0.4680000D-01 0.4680000D-01
EXPONENTS  0.4680000D-01 0.2520000D+00 0.2520000D+00 0.2520000D+00 0.2520000D+00
EXPONENTS  0.2520000D+00 0.2520000D+00 0.2520000D+00 0.2520000D+00 0.2520000D+00
EXPONENTS  0.2520000D+00 0.9400000D-01 0.9400000D-01 0.9400000D-01 0.9400000D-01
EXPONENTS  0.9400000D-01 0.9400000D-01 0.9400000D-01 0.9400000D-01 0.9400000D-01
EXPONENTS  0.9400000D-01 0.3387000D+02 0.5095000D+01 0.1159000D+01 0.3258000D+00
EXPONENTS  0.1027000D+00 0.2526000D-01 0.1407000D+01 0.1407000D+01 0.1407000D+01
EXPONENTS  0.3880000D+00 0.3880000D+00 0.3880000D+00 0.1020000D+00 0.1020000D+00
EXPONENTS  0.1020000D+00 0.1057000D+01 0.1057000D+01 0.1057000D+01 0.1057000D+01
EXPONENTS  0.1057000D+01 0.1057000D+01 0.2470000D+00 0.2470000D+00 0.2470000D+00
EXPONENTS  0.2470000D+00 0.2470000D+00 0.2470000D+00 0.1063900D+08 0.1593400D+07
EXPONENTS  0.3626100D+06 0.1027000D+06 0.3350100D+05 0.1209300D+05 0.4715900D+04
EXPONENTS  0.1955600D+04 0.8526100D+03 0.3876700D+03 0.1826800D+03 0.8824500D+02
EXPONENTS  0.3926300D+02 0.1923400D+02 0.9405700D+01 0.4160100D+01 0.1899500D+01
EXPONENTS  0.3011400D+00 0.1063900D+08 0.1593400D+07 0.3626100D+06 0.1027000D+06
EXPONENTS  0.3350100D+05 0.1209300D+05 0.4715900D+04 0.1955600D+04 0.8526100D+03
EXPONENTS  0.3876700D+03 0.1826800D+03 0.8824500D+02 0.3926300D+02 0.1923400D+02
EXPONENTS  0.9405700D+01 0.4160100D+01 0.1899500D+01 0.3011400D+00 0.1063900D+08
EXPONENTS  0.1593400D+07 0.3626100D+06 0.1027000D+06 0.3350100D+05 0.1209300D+05
EXPONENTS  0.4715900D+04 0.1955600D+04 0.8526100D+03 0.3876700D+03 0.1826800D+03
EXPONENTS  0.8824500D+02 0.3926300D+02 0.1923400D+02 0.9405700D+01 0.4160100D+01
EXPONENTS  0.1899500D+01 0.3011400D+00 0.1063900D+08 0.1593400D+07 0.3626100D+06
EXPONENTS  0.1027000D+06 0.3350100D+05 0.1209300D+05 0.4715900D+04 0.1955600D+04
EXPONENTS  0.8526100D+03 0.3876700D+03 0.1826800D+03 0.8824500D+02 0.3926300D+02
EXPONENTS  0.1923400D+02 0.9405700D+01 0.4160100D+01 0.1899500D+01 0.3011400D+00
EXPONENTS  0.6047200D+00 0.1251500D+00 0.4559300D-01 0.8676500D+04 0.2055900D+04
EXPONENTS  0.6662300D+03 0.2531000D+03 0.1061200D+03 0.4724200D+02 0.2182500D+02
EXPONENTS  0.9968400D+01 0.4517100D+01 0.1998200D+01 0.2814500D+00 0.8676500D+04
EXPONENTS  0.2055900D+04 0.6662300D+03 0.2531000D+03 0.1061200D+03 0.4724200D+02
EXPONENTS  0.2182500D+02 0.9968400D+01 0.4517100D+01 0.1998200D+01 0.2814500D+00
EXPONENTS  0.8676500D+04 0.2055900D+04 0.6662300D+03 0.2531000D+03 0.1061200D+03
EXPONENTS  0.4724200D+02 0.2182500D+02 0.9968400D+01 0.4517100D+01 0.1998200D+01
EXPONENTS  0.2814500D+00 0.8676500D+04 0.2055900D+04 0.6662300D+03 0.2531000D+03
EXPONENTS  0.1061200D+03 0.4724200D+02 0.2182500D+02 0.9968400D+01 0.4517100D+01
EXPONENTS  0.1998200D+01 0.2814500D+00 0.8676500D+04 0.2055900D+04 0.6662300D+03
EXPONENTS  0.2531000D+03 0.1061200D+03 0.4724200D+02 0.2182500D+02 0.9968400D+01
EXPONENTS  0.4517100D+01 0.1998200D+01 0.2814500D+00 0.8676500D+04 0.2055900D+04
EXPONENTS  0.6662300D+03 0.2531000D+03 0.1061200D+03 0.4724200D+02 0.2182500D+02
EXPONENTS  0.9968400D+01 0.4517100D+01 0.1998200D+01 0.2814500D+00 0.8676500D+04
EXPONENTS  0.2055900D+04 0.6662300D+03 0.2531000D+03 0.1061200D+03 0.4724200D+02
EXPONENTS  0.2182500D+02 0.9968400D+01 0.4517100D+01 0.1998200D+01 0.2814500D+00
EXPONENTS  0.8676500D+04 0.2055900D+04 0.6662300D+03 0.2531000D+03 0.1061200D+03
EXPONENTS  0.4724200D+02 0.2182500D+02 0.9968400D+01 0.4517100D+01 0.1998200D+01
EXPONENTS  0.2814500D+00 0.8676500D+04 0.2055900D+04 0.6662300D+03 0.2531000D+03
EXPONENTS  0.1061200D+03 0.4724200D+02 0.2182500D+02 0.9968400D+01 0.4517100D+01
EXPONENTS  0.1998200D+01 0.2814500D+00 0.7098800D+00 0.7098800D+00 0.7098800D+00
EXPONENTS  0.1020400D+00 0.1020400D+00 0.1020400D+00 0.3514200D-01 0.3514200D-01
EXPONENTS  0.3514200D-01 0.4038300D+03 0.1211700D+03 0.4634500D+02 0.1972100D+02
EXPONENTS  0.8862400D+01 0.3996200D+01 0.1763600D+01 0.4038300D+03 0.1211700D+03
EXPONENTS  0.4634500D+02 0.1972100D+02 0.8862400D+01 0.3996200D+01 0.1763600D+01
EXPONENTS  0.4038300D+03 0.1211700D+03 0.4634500D+02 0.1972100D+02 0.8862400D+01
EXPONENTS  0.3996200D+01 0.1763600D+01 0.4038300D+03 0.1211700D+03 0.4634500D+02
EXPONENTS  0.1972100D+02 0.8862400D+01 0.3996200D+01 0.1763600D+01 0.4038300D+03
EXPONENTS  0.1211700D+03 0.4634500D+02 0.1972100D+02 0.8862400D+01 0.3996200D+01
EXPONENTS  0.1763600D+01 0.4038300D+03 0.1211700D+03 0.4634500D+02 0.1972100D+02
EXPONENTS  0.8862400D+01 0.3996200D+01 0.1763600D+01 0.7061900D+00 0.7061900D+00
EXPONENTS  0.7061900D+00 0.7061900D+00 0.7061900D+00 0.7061900D+00 0.2639000D+00
EXPONENTS  0.2639000D+00 0.2639000D+00 0.2639000D+00 0.2639000D+00 0.2639000D+00
EXPONENTS  0.1047000D+00 0.1047000D+00 0.1047000D+00 0.1047000D+00 0.1047000D+00
EXPONENTS  0.1047000D+00 0.5515000D+00 0.5515000D+00 0.5515000D+00 0.5515000D+00
EXPONENTS  0.5515000D+00 0.5515000D+00 0.5515000D+00 0.5515000D+00 0.5515000D+00
EXPONENTS  0.5515000D+00 0.2580000D+00 0.2580000D+00 0.2580000D+00 0.2580000D+00
EXPONENTS  0.2580000D+00 0.2580000D+00 0.2580000D+00 0.2580000D+00 0.2580000D+00
EXPONENTS  0.2580000D+00
MO    1     MO 0.0        OCC NO =    2.0000000  ORB. ENERGY = -480.990862
  0.23320653D-06  0.43474999D-06  0.73480407D-06  0.11046512D-05  0.13571916D-05
  0.11463653D-05  0.43236681D-06 -0.21398075D-08 -0.16064792D-06 -0.30078359D-06
 -0.51210980D-06 -0.79215599D-06 -0.10432416D-05 -0.10839948D-05 -0.68883005D-06
  0.46163788D-06  0.88023298D-06 -0.18764475D-04  0.19690771D-04  0.73922593D-06
  0.69307130D-06  0.49350805D-06  0.55748422D-07  0.52267689D-07  0.37217709D-07
 -0.19128623D-08 -0.17934300D-08 -0.12770290D-08 -0.13190635D-06  0.79382989D-05
 -0.23353885D-06 -0.15874859D-06 -0.30000346D-04  0.86822399D-06  0.70683358D-06
  0.13260473D-05 -0.42048677D-07  0.41559435D-07 -0.52677679D-06  0.48521736D-06
  0.77979070D-07  0.25119127D-08  0.65160823D-07  0.35046437D-06 -0.13463394D-05
  0.99587501D-06  0.44640372D-05 -0.11820781D-06  0.11586176D-06 -0.12833346D-04
  0.13157128D-04 -0.32378162D-06 -0.62040212D-05  0.28973385D-06 -0.75594317D-06
 -0.74588554D-07  0.13137313D-05  0.27831406D-07 -0.14036123D-05 -0.27337279D-05
  0.95397168D-07  0.16273780D-05 -0.12074660D-05 -0.17889139D-06  0.19064370D-06
 -0.19368019D-05 -0.52770674D-06 -0.58258297D-07  0.56645513D-05 -0.40777772D-06
  0.39463818D-07  0.14585455D-06  0.19908980D-05  0.13531107D-06 -0.29484189D-06
 -0.30253340D-06 -0.56399104D-06 -0.95324421D-06 -0.14330383D-05 -0.17606531D-05
 -0.14871530D-05 -0.56089940D-06  0.27759225D-08  0.19859745D-06  0.37183709D-06
  0.63308446D-06  0.97928540D-06  0.12896844D-05  0.13400647D-05  0.85155097D-06
 -0.57068966D-06 -0.56686570D-06  0.32577307D-04 -0.33289829D-05 -0.10771908D-05
 -0.10099348D-05 -0.71913377D-06  0.17840944D-06  0.16727019D-06  0.11910634D-06
  0.28188333D-08  0.26428354D-08  0.18818563D-08  0.64514414D-05  0.27418800D-05
 -0.11181491D-06 -0.49119381D-04 -0.63271921D-06  0.24979717D-06  0.26279926D-05
  0.57831363D-06 -0.29013242D-07  0.92026295D-06  0.41636530D-06 -0.13366282D-05
 -0.82000066D-06 -0.49772222D-08 -0.10370554D-06 -0.19796040D-05  0.20919426D-05
 -0.11233859D-06 -0.54018765D-05  0.17969895D-06 -0.97932095D-07 -0.15509688D-04
  0.14642346D-04  0.86734167D-06 -0.20643562D-05  0.20736604D-06 -0.79291829D-06
  0.22800648D-05 -0.12726820D-06  0.43088218D-10 -0.38947440D-05 -0.17132051D-06
 -0.62908273D-07 -0.29454503D-05  0.55312510D-06  0.62779009D-07  0.59061802D-07
 -0.23544971D-05 -0.14941631D-05 -0.21427594D-07  0.30761302D-05  0.44069619D-05
 -0.54839445D-07  0.39873611D-05  0.75527339D-07  0.11912223D-06  0.12893108D-07
 -0.20903915D-06 -0.37701071D-06 -0.55590207D-06 -0.50369390D-05  0.13138147D-03
  0.98241161D-06  0.12511371D-06 -0.94776492D-06  0.25881797D-07  0.56443170D-06
  0.74853193D-05 -0.21639046D-06  0.13988303D-04 -0.92240091D-05  0.21060911D-06
  0.69926106D-06  0.17239719D-05 -0.24232330D-05  0.52461820D-05 -0.18028791D-06
 -0.25936386D-06 -0.18213078D-06 -0.16130891D-06  0.34343969D-06  0.10456587D-05
 -0.22292689D-07  0.25578897D-07 -0.12812317D-06 -0.23107542D-06 -0.34072057D-06
 -0.68524297D-05 -0.16779989D-03  0.90955258D-06  0.80704689D-06  0.16807134D-06
 -0.10386422D-07 -0.52240981D-05  0.41050031D-05 -0.91134881D-07  0.78119587D-05
 -0.17416855D-04  0.47639902D-06 -0.11334053D-05  0.20298407D-05 -0.89643543D-06
 -0.15330360D-05  0.44746522D-07 -0.16171729D-06  0.59094990D-06  0.44438245D-06
 -0.10353324D-05 -0.24914422D-05  0.59071152D-07 -0.74061297D-07  0.44303345D-06
  0.82834527D-06  0.14278816D-05  0.23029579D-05  0.34564159D-05  0.46324401D-05
  0.50914850D-05  0.38108617D-05  0.13083158D-05  0.73745215D-07 -0.51420271D-08
  0.12213199D-08  0.76123255D-10 -0.10966333D-05 -0.20570726D-05 -0.35385258D-05
 -0.57744422D-05 -0.87631260D-05 -0.12410115D-04 -0.15004847D-04 -0.14816666D-04
 -0.74103670D-05  0.41494312D-05  0.66262800D-05  0.21626745D-05 -0.12579629D-07
  0.75982762D-06  0.14242296D-05  0.24530182D-05  0.39987086D-05  0.60874732D-05
  0.86266786D-05  0.10541927D-04  0.10555401D-04  0.55116282D-05 -0.34317409D-05
 -0.62047730D-05 -0.45480138D-05  0.20732986D-05  0.45573667D-04 -0.45132358D-04
  0.93488426D-06 -0.96608070D-04 -0.12486084D-03 -0.13462795D-03 -0.11098208D-03
 -0.60593010D-04 -0.19428618D-04 -0.21881795D-05  0.25110343D-07  0.25204484D-04
  0.32575467D-04  0.35123650D-04  0.28954581D-04  0.15808364D-04  0.50688137D-05
  0.57088332D-06 -0.65511425D-08 -0.43086718D-06 -0.55687312D-06 -0.60043394D-06
 -0.49497457D-06 -0.27024181D-06 -0.86650670D-07 -0.97591716D-08  0.11199088D-09
  0.96753865D-04  0.12504328D-03  0.13684819D-03  0.11433308D-03  0.63962857D-04
  0.21666645D-04  0.33909533D-05 -0.64047047D-05 -0.25925916D-04 -0.33506275D-04
 -0.36669487D-04 -0.30636396D-04 -0.17139322D-04 -0.58057383D-05 -0.90863109D-06
  0.17161881D-05  0.43997214D-06  0.56861357D-06  0.62229442D-06  0.51991069D-06
  0.29086048D-06  0.98525473D-07  0.15419797D-07 -0.29124332D-07 -0.11394645D-03
  0.27100460D-04 -0.62078664D-07 -0.27194675D-05  0.54680496D-06  0.42980762D-08
  0.20151507D-07 -0.25436541D-08 -0.95491893D-10 -0.36809072D-05  0.17711289D-05
  0.19097783D-05 -0.63832399D-06  0.10373109D-06  0.93668341D-08  0.19548532D-05
 -0.10589156D-05 -0.89593767D-06 -0.24829041D-06 -0.26776481D-07  0.88481419D-08
 -0.11472659D-05  0.53304056D-06  0.61422536D-06  0.51204536D-06  0.75682663D-08
  0.12702494D-08 -0.17816925D-05 -0.56635165D-06 -0.75747181D-08  0.25138820D-05
  0.20940355D-05  0.13121948D-07  0.28311954D-05 -0.39498053D-06  0.96022068D-08
 -0.15340221D-07 -0.12430017D-05 -0.51217360D-06  0.55419838D-09  0.16233811D-05
  0.20280231D-05 -0.71088862D-08  0.21056241D-05 -0.49150228D-06  0.54462910D-08
 -0.48488042D-08  0.41886907D-06  0.75544762D-06  0.11139071D-05 -0.47042343D-05
 -0.14793865D-03 -0.50524884D-06 -0.30452038D-05 -0.81278997D-06  0.39448522D-07
  0.67833438D-05  0.74944360D-05 -0.25069377D-06 -0.14906401D-04  0.13616134D-04
 -0.32734425D-06 -0.49286728D-06 -0.27320123D-05  0.32248796D-05 -0.27243527D-05
  0.11672055D-06  0.36104191D-06  0.38185276D-06 -0.31367065D-06 -0.68182111D-07
 -0.14045566D-05  0.36656396D-07  0.21676164D-07  0.78329191D+00  0.14734675D+01
  0.25506449D+01  0.41809950D+01  0.65496096D+01  0.98446210D+01  0.14070436D+02
  0.18678854D+02  0.21754062D+02  0.19980896D+02  0.11683616D+02  0.30658392D+01
  0.16760823D+00 -0.59990254D-02  0.16765383D-02 -0.49782079D-03  0.84869826D-04
  0.69242105D-05  0.10845756D-03  0.19927015D-03  0.34458402D-03  0.56430449D-03
  0.88847206D-03  0.13416799D-02  0.19584429D-02  0.26968948D-02  0.34459095D-02
  0.37564452D-02  0.30921328D-02  0.84784181D-03 -0.17101519D-02 -0.16666177D-02
 -0.36470291D-03 -0.12286505D-04 -0.41622754D-06  0.10588292D-08 -0.71893472D-04
 -0.14094000D-03 -0.24685292D-03 -0.40327735D-03 -0.63606552D-03 -0.95979446D-03
 -0.14072494D-02 -0.19429406D-02 -0.25190321D-02 -0.28013119D-02 -0.24331118D-02
 -0.70677547D-03  0.17817724D-02  0.25961679D-02  0.44693959D-03 -0.10903412D-02
 -0.51897494D-03  0.25062885D-05  0.26727548D-04  0.57912143D-04  0.98586239D-04
  0.16091929D-03  0.25367347D-03  0.38286654D-03  0.56134474D-03  0.77601925D-03
  0.10071951D-02  0.11252131D-02  0.98289911D-03  0.29113567D-03 -0.75678551D-03
 -0.11641919D-02 -0.20376914D-03  0.64277847D-03  0.54562172D-03 -0.20356659D-03
  0.16122400D-03  0.18212502D-03  0.58484062D-04 -0.14749141D-03 -0.21162406D-03
 -0.28020151D-03 -0.32355335D-03 -0.29994884D-03 -0.19419235D-03 -0.68542767D-04
 -0.80338033D-05 -0.11679663D-06 -0.17103566D-07 -0.17585123D-09  0.34683000D-04
  0.49763964D-04  0.65890134D-04  0.76084437D-04  0.70533773D-04  0.45664850D-04
  0.16118015D-04  0.18891704D-05  0.27465041D-07  0.40219495D-08  0.41351887D-10
 -0.12187020D-06 -0.17486216D-06 -0.23152680D-06 -0.26734786D-06 -0.24784376D-06
 -0.16045857D-06 -0.56635983D-07 -0.66382255D-08 -0.96507512D-10 -0.14132451D-10
 -0.14530354D-12  0.88256732D-04  0.12739961D-03  0.17020283D-03  0.20220618D-03
  0.19595329D-03  0.13621253D-03  0.44322252D-04 -0.19948531D-04 -0.21551069D-04
 -0.55482566D-05  0.54118120D-08 -0.48049266D-04 -0.69359667D-04 -0.92662857D-04
 -0.11008632D-03 -0.10668208D-03 -0.74157654D-04 -0.24130189D-04  0.10860500D-04
  0.11732964D-04  0.30206155D-05 -0.29463315D-08  0.12101642D-05  0.17468860D-05
  0.23337979D-05  0.27726235D-05  0.26868847D-05  0.18677276D-05  0.60774065D-06
 -0.27353152D-06 -0.29550530D-06 -0.76076936D-07  0.74206026D-10 -0.58735764D-04
 -0.85345670D-04 -0.11346806D-03 -0.13615382D-03 -0.13172942D-03 -0.93512549D-04
 -0.29063935D-04  0.16686678D-04  0.19169289D-04  0.50905732D-05 -0.18366947D-05
  0.33217000D-04  0.48265775D-04  0.64169908D-04  0.76999447D-04  0.74497306D-04
  0.52884413D-04  0.16436608D-04 -0.94368637D-05 -0.10840862D-04 -0.28788861D-05
  0.10387111D-05 -0.84088293D-06 -0.12218402D-05 -0.16244507D-05 -0.19492284D-05
 -0.18858871D-05 -0.13387603D-05 -0.41609005D-06  0.23889266D-06  0.27443463D-06
  0.72878529D-07 -0.26294800D-07  0.72344285D-05 -0.19094932D-05  0.18679899D-07
 -0.62430783D-04  0.94242542D-05  0.13990719D-06 -0.30333073D-05  0.57591583D-06
  0.32579635D-08  0.16132533D-03  0.16880957D-03  0.14383479D-03  0.94726084D-04
  0.43656432D-04  0.13072989D-04  0.22242583D-05 -0.78871922D-04 -0.82530968D-04
 -0.70320802D-04 -0.46311565D-04 -0.21343621D-04 -0.63913820D-05 -0.10874395D-05
 -0.82453405D-04 -0.86278604D-04 -0.73513989D-04 -0.48414519D-04 -0.22312811D-04
 -0.66816072D-05 -0.11368188D-05 -0.86517845D-04 -0.90531603D-04 -0.77137771D-04
 -0.50801054D-04 -0.23412693D-04 -0.70109689D-05 -0.11928569D-05 -0.54519699D-06
 -0.57048990D-06 -0.48608793D-06 -0.32012565D-06 -0.14753638D-06 -0.44180008D-07
 -0.75168539D-08  0.31361561D-06  0.32816495D-06  0.27961410D-06  0.18414702D-06
  0.84867881D-07  0.25413824D-07  0.43239467D-08 -0.11161278D-04  0.54300281D-05
  0.57312499D-05  0.60556141D-05  0.35884753D-07 -0.19228565D-07  0.79833604D-05
 -0.38313717D-05 -0.41519887D-05 -0.44685048D-05 -0.23406729D-07  0.90135989D-08
  0.57932732D-05 -0.28242993D-05 -0.29689739D-05 -0.26060213D-05 -0.40665738D-07
  0.91538237D-08  0.28137439D-05  0.67012242D-06  0.20084441D-08 -0.42228370D-05
 -0.28943348D-05 -0.26121790D-07 -0.42183947D-05  0.88396759D-06  0.20096458D-07
  0.49709143D-07 -0.20297389D-05 -0.53077545D-06 -0.26349252D-08  0.29218228D-05
  0.22072535D-05  0.16109342D-07  0.31673938D-05 -0.61492713D-06 -0.82045663D-08
 -0.22284400D-07
MO    2     MO 0.0        OCC NO =    2.0000000  ORB. ENERGY =  -61.794906
 -0.85838064D-05 -0.16002167D-04 -0.27046481D-04 -0.40659720D-04 -0.49955164D-04
 -0.42195122D-04 -0.15914448D-04  0.78761489D-07  0.59786213D-05  0.11193865D-04
  0.19058514D-04  0.29480623D-04  0.38824943D-04  0.40341602D-04  0.25635277D-04
 -0.17180167D-04 -0.34297073D-04  0.67213042D-03 -0.65602629D-03 -0.19390259D-04
 -0.18179600D-04 -0.12944958D-04 -0.10017744D-05 -0.93922722D-06 -0.66878573D-06
  0.28924556D-07  0.27118610D-07  0.19310066D-07 -0.23492526D-04 -0.26475063D-03
  0.79029030D-05  0.24864477D-04  0.98538903D-03 -0.28603527D-04 -0.23338042D-04
 -0.44155724D-04  0.13978811D-05 -0.97317669D-06  0.17312891D-04 -0.16339714D-04
 -0.50883060D-05  0.32770124D-08 -0.21303077D-05  0.14949143D-05  0.36551742D-04
 -0.38046656D-04 -0.15068280D-03  0.38337405D-05 -0.36533509D-05  0.41955466D-03
 -0.43042595D-03  0.10871296D-04  0.20337264D-03 -0.94845393D-05  0.24745485D-04
 -0.11186351D-05 -0.44506546D-04 -0.89958744D-06  0.53024885D-04  0.94873924D-04
 -0.32105383D-05 -0.49668979D-04  0.38645715D-04  0.59093006D-05 -0.64860815D-05
  0.64185694D-04  0.17297522D-04  0.19213482D-05 -0.18663528D-03  0.13606044D-04
 -0.13095803D-05 -0.59217996D-05 -0.65498609D-04 -0.44544644D-05  0.96600481D-05
  0.46921781D-05  0.87472868D-05  0.14784456D-04  0.22225880D-04  0.27307061D-04
  0.23065178D-04  0.86993367D-05 -0.43053503D-07 -0.27145558D-05 -0.50825050D-05
 -0.86533996D-05 -0.13385493D-04 -0.17628224D-04 -0.18316854D-04 -0.11639538D-04
  0.78005479D-05  0.91805716D-05 -0.92467940D-03  0.12476573D-03  0.29667517D-04
  0.27815183D-04  0.19806068D-04 -0.54981951D-05 -0.51549074D-05 -0.36706012D-05
 -0.57159505D-07 -0.53590669D-07 -0.38159749D-07 -0.20547939D-03 -0.86715411D-04
  0.35122533D-05  0.16433748D-02  0.42863388D-04 -0.89399503D-05 -0.87332732D-04
 -0.20240111D-04  0.99752361D-06 -0.34004894D-04 -0.12557954D-04  0.46562847D-04
  0.23140837D-04  0.26166940D-06  0.35113901D-05  0.74928456D-04 -0.71288872D-04
 -0.36395841D-05  0.17487771D-03 -0.59639311D-05  0.29643329D-05  0.50847135D-03
 -0.47988283D-03 -0.28588516D-04  0.60977773D-04 -0.65924860D-05  0.26005878D-04
 -0.73268318D-04  0.38947221D-05 -0.36346400D-07  0.12786364D-03  0.41206751D-05
  0.20063386D-05  0.91941311D-04 -0.15804841D-04 -0.18972994D-05 -0.21854735D-05
  0.78407005D-04  0.51033576D-04  0.74780589D-06 -0.10583649D-03 -0.14863963D-03
  0.19397541D-05 -0.12938452D-03 -0.44611001D-05 -0.41831718D-05 -0.42894843D-07
  0.67705866D-05  0.12211032D-04  0.18005159D-04  0.13768402D-03 -0.42806250D-02
 -0.33194444D-04 -0.67594710D-05  0.31712713D-04 -0.84082072D-06 -0.42427398D-04
 -0.24094250D-03  0.70490827D-05 -0.45610553D-03  0.30141928D-03 -0.68862700D-05
 -0.30732412D-04 -0.50758523D-04  0.81490935D-04 -0.16374649D-03  0.57573038D-05
  0.82614240D-05  0.42663222D-05  0.61043113D-05 -0.10370634D-04 -0.33320092D-04
  0.72090989D-06 -0.83198749D-06  0.43119947D-05  0.77768600D-05  0.11466976D-04
  0.22517533D-03  0.54824787D-02 -0.29707305D-04 -0.26434355D-04 -0.77059527D-05
  0.40073611D-06  0.16840016D-03 -0.13448140D-03  0.30148584D-05 -0.25710982D-03
  0.56849400D-03 -0.15536557D-04  0.35842981D-04 -0.67148253D-04  0.31305273D-04
  0.48214758D-04 -0.13848311D-05  0.54688624D-05 -0.19301614D-04 -0.14447145D-04
  0.33748758D-04  0.81150691D-04 -0.19235350D-05  0.24146788D-05 -0.10604991D-04
 -0.19828287D-04 -0.34179522D-04 -0.55126421D-04 -0.82737004D-04 -0.11088776D-03
 -0.12187602D-03 -0.91221454D-04 -0.31317449D-04 -0.17652558D-05  0.12308586D-06
 -0.29235009D-07 -0.18221795D-08  0.27688523D-04  0.51938330D-04  0.89343039D-04