 Molden2AIM, Version 4.0.0 (06/02/2016)           Time: Fri Jun 29 04:24:21 2018
GAUSSIAN              9 MOL ORBITALS    308 PRIMITIVES        6 NUCLEI
  C    1    (CENTRE  1)  -5.40798610  0.38127114  0.06143311  CHARGE =  6.0
  C    2    (CENTRE  2)  -3.64744354  2.23251111 -0.00206925  CHARGE =  6.0
  H    3    (CENTRE  3)  -7.46224879  0.71700745  0.06327181  CHARGE =  1.0
  H    4    (CENTRE  4)  -4.90192122 -1.63380052  0.11735955  CHARGE =  1.0
  Li   5    (CENTRE  5)  -0.01805255  1.49344300  0.00002835  CHARGE =  3.0
  H    6    (CENTRE  6)  -4.53321298  4.12683304 -0.05082229  CHARGE =  1.0
CENTRE ASSIGNMENTS    1  1  1  1  1  1  1  1  1  1  1  1  1  1  1  1  1  1  1  1
CENTRE ASSIGNMENTS    1  1  1  1  1  1  1  1  1  1  1  1  1  1  1  1  1  1  1  1
CENTRE ASSIGNMENTS    1  1  1  1  1  1  1  1  1  1  1  1  1  1  1  1  1  1  1  1
CENTRE ASSIGNMENTS    1  1  1  1  1  1  1  1  1  1  1  1  1  1  1  2  2  2  2  2
CENTRE ASSIGNMENTS    2  2  2  2  2  2  2  2  2  2  2  2  2  2  2  2  2  2  2  2
CENTRE ASSIGNMENTS    2  2  2  2  2  2  2  2  2  2  2  2  2  2  2  2  2  2  2  2
CENTRE ASSIGNMENTS    2  2  2  2  2  2  2  2  2  2  2  2  2  2  2  2  2  2  2  2
CENTRE ASSIGNMENTS    2  2  2  2  2  2  2  2  2  2  3  3  3  3  3  3  3  3  3  3
CENTRE ASSIGNMENTS    3  3  3  3  3  3  3  3  3  3  3  3  3  3  3  3  3  4  4  4
CENTRE ASSIGNMENTS    4  4  4  4  4  4  4  4  4  4  4  4  4  4  4  4  4  4  4  4
CENTRE ASSIGNMENTS    4  4  4  4  5  5  5  5  5  5  5  5  5  5  5  5  5  5  5  5
CENTRE ASSIGNMENTS    5  5  5  5  5  5  5  5  5  5  5  5  5  5  5  5  5  5  5  5
CENTRE ASSIGNMENTS    5  5  5  5  5  5  5  5  5  5  5  5  5  5  5  5  5  5  5  5
CENTRE ASSIGNMENTS    5  5  5  5  5  5  5  5  5  5  5  5  5  5  5  5  5  5  5  5
CENTRE ASSIGNMENTS    5  6  6  6  6  6  6  6  6  6  6  6  6  6  6  6  6  6  6  6
CENTRE ASSIGNMENTS    6  6  6  6  6  6  6  6
TYPE ASSIGNMENTS      1  1  1  1  1  1  1  1  1  1  1  1  1  1  1  1  1  1  1  2
TYPE ASSIGNMENTS      2  2  3  3  3  4  4  4  2  3  4  2  3  4  2  3  4  5  6  7
TYPE ASSIGNMENTS      8  9 10  5  6  7  8  9 10  5  6  7  8  9 10 11 12 13 17 14
TYPE ASSIGNMENTS     15 18 19 16 20 11 12 13 17 14 15 18 19 16 20  1  1  1  1  1
TYPE ASSIGNMENTS      1  1  1  1  1  1  1  1  1  1  1  1  1  1  2  2  2  3  3  3
TYPE ASSIGNMENTS      4  4  4  2  3  4  2  3  4  2  3  4  5  6  7  8  9 10  5  6
TYPE ASSIGNMENTS      7  8  9 10  5  6  7  8  9 10 11 12 13 17 14 15 18 19 16 20
TYPE ASSIGNMENTS     11 12 13 17 14 15 18 19 16 20  1  1  1  1  1  1  2  3  4  2
TYPE ASSIGNMENTS      3  4  2  3  4  5  6  7  8  9 10  5  6  7  8  9 10  1  1  1
TYPE ASSIGNMENTS      1  1  1  2  3  4  2  3  4  2  3  4  5  6  7  8  9 10  5  6
TYPE ASSIGNMENTS      7  8  9 10  1  1  1  1  1  1  1  1  1  1  1  1  1  1  1  1
TYPE ASSIGNMENTS      1  1  1  1  1  2  2  2  3  3  3  4  4  4  2  3  4  2  3  4
TYPE ASSIGNMENTS      2  3  4  5  6  7  8  9 10  5  6  7  8  9 10  5  6  7  8  9
TYPE ASSIGNMENTS     10 11 12 13 17 14 15 18 19 16 20 11 12 13 17 14 15 18 19 16
TYPE ASSIGNMENTS     20  1  1  1  1  1  1  2  3  4  2  3  4  2  3  4  5  6  7  8
TYPE ASSIGNMENTS      9 10  5  6  7  8  9 10
EXPONENTS  0.8236000D+04 0.1235000D+04 0.2808000D+03 0.7927000D+02 0.2559000D+02
EXPONENTS  0.8997000D+01 0.3319000D+01 0.3643000D+00 0.8236000D+04 0.1235000D+04
EXPONENTS  0.2808000D+03 0.7927000D+02 0.2559000D+02 0.8997000D+01 0.3319000D+01
EXPONENTS  0.3643000D+00 0.9059000D+00 0.1285000D+00 0.4402000D-01 0.1871000D+02
EXPONENTS  0.4133000D+01 0.1200000D+01 0.1871000D+02 0.4133000D+01 0.1200000D+01
EXPONENTS  0.1871000D+02 0.4133000D+01 0.1200000D+01 0.3827000D+00 0.3827000D+00
EXPONENTS  0.3827000D+00 0.1209000D+00 0.1209000D+00 0.1209000D+00 0.3569000D-01
EXPONENTS  0.3569000D-01 0.3569000D-01 0.1097000D+01 0.1097000D+01 0.1097000D+01
EXPONENTS  0.1097000D+01 0.1097000D+01 0.1097000D+01 0.3180000D+00 0.3180000D+00
EXPONENTS  0.3180000D+00 0.3180000D+00 0.3180000D+00 0.3180000D+00 0.1000000D+00
EXPONENTS  0.1000000D+00 0.1000000D+00 0.1000000D+00 0.1000000D+00 0.1000000D+00
EXPONENTS  0.7610000D+00 0.7610000D+00 0.7610000D+00 0.7610000D+00 0.7610000D+00
EXPONENTS  0.7610000D+00 0.7610000D+00 0.7610000D+00 0.7610000D+00 0.7610000D+00
EXPONENTS  0.2680000D+00 0.2680000D+00 0.2680000D+00 0.2680000D+00 0.2680000D+00
EXPONENTS  0.2680000D+00 0.2680000D+00 0.2680000D+00 0.2680000D+00 0.2680000D+00
EXPONENTS  0.8236000D+04 0.1235000D+04 0.2808000D+03 0.7927000D+02 0.2559000D+02
EXPONENTS  0.8997000D+01 0.3319000D+01 0.3643000D+00 0.8236000D+04 0.1235000D+04
EXPONENTS  0.2808000D+03 0.7927000D+02 0.2559000D+02 0.8997000D+01 0.3319000D+01
EXPONENTS  0.3643000D+00 0.9059000D+00 0.1285000D+00 0.4402000D-01 0.1871000D+02
EXPONENTS  0.4133000D+01 0.1200000D+01 0.1871000D+02 0.4133000D+01 0.1200000D+01
EXPONENTS  0.1871000D+02 0.4133000D+01 0.1200000D+01 0.3827000D+00 0.3827000D+00
EXPONENTS  0.3827000D+00 0.1209000D+00 0.1209000D+00 0.1209000D+00 0.3569000D-01
EXPONENTS  0.3569000D-01 0.3569000D-01 0.1097000D+01 0.1097000D+01 0.1097000D+01
EXPONENTS  0.1097000D+01 0.1097000D+01 0.1097000D+01 0.3180000D+00 0.3180000D+00
EXPONENTS  0.3180000D+00 0.3180000D+00 0.3180000D+00 0.3180000D+00 0.1000000D+00
EXPONENTS  0.1000000D+00 0.1000000D+00 0.1000000D+00 0.1000000D+00 0.1000000D+00
EXPONENTS  0.7610000D+00 0.7610000D+00 0.7610000D+00 0.7610000D+00 0.7610000D+00
EXPONENTS  0.7610000D+00 0.7610000D+00 0.7610000D+00 0.7610000D+00 0.7610000D+00
EXPONENTS  0.2680000D+00 0.2680000D+00 0.2680000D+00 0.2680000D+00 0.2680000D+00
EXPONENTS  0.2680000D+00 0.2680000D+00 0.2680000D+00 0.2680000D+00 0.2680000D+00
EXPONENTS  0.3387000D+02 0.5095000D+01 0.1159000D+01 0.3258000D+00 0.1027000D+00
EXPONENTS  0.2526000D-01 0.1407000D+01 0.1407000D+01 0.1407000D+01 0.3880000D+00
EXPONENTS  0.3880000D+00 0.3880000D+00 0.1020000D+00 0.1020000D+00 0.1020000D+00
EXPONENTS  0.1057000D+01 0.1057000D+01 0.1057000D+01 0.1057000D+01 0.1057000D+01
EXPONENTS  0.1057000D+01 0.2470000D+00 0.2470000D+00 0.2470000D+00 0.2470000D+00
EXPONENTS  0.2470000D+00 0.2470000D+00 0.3387000D+02 0.5095000D+01 0.1159000D+01
EXPONENTS  0.3258000D+00 0.1027000D+00 0.2526000D-01 0.1407000D+01 0.1407000D+01
EXPONENTS  0.1407000D+01 0.3880000D+00 0.3880000D+00 0.3880000D+00 0.1020000D+00
EXPONENTS  0.1020000D+00 0.1020000D+00 0.1057000D+01 0.1057000D+01 0.1057000D+01
EXPONENTS  0.1057000D+01 0.1057000D+01 0.1057000D+01 0.2470000D+00 0.2470000D+00
EXPONENTS  0.2470000D+00 0.2470000D+00 0.2470000D+00 0.2470000D+00 0.5988000D+04
EXPONENTS  0.8989000D+03 0.2059000D+03 0.5924000D+02 0.1987000D+02 0.7406000D+01
EXPONENTS  0.2930000D+01 0.1189000D+01 0.4798000D+00 0.5988000D+04 0.8989000D+03
EXPONENTS  0.2059000D+03 0.5924000D+02 0.1987000D+02 0.7406000D+01 0.2930000D+01
EXPONENTS  0.1189000D+01 0.4798000D+00 0.7509000D-01 0.2832000D-01 0.7600000D-02
EXPONENTS  0.3266000D+01 0.6511000D+00 0.1696000D+00 0.3266000D+01 0.6511000D+00
EXPONENTS  0.1696000D+00 0.3266000D+01 0.6511000D+00 0.1696000D+00 0.5578000D-01
EXPONENTS  0.5578000D-01 0.5578000D-01 0.2050000D-01 0.2050000D-01 0.2050000D-01
EXPONENTS  0.9100000D-02 0.9100000D-02 0.9100000D-02 0.1874000D+00 0.1874000D+00
EXPONENTS  0.1874000D+00 0.1874000D+00 0.1874000D+00 0.1874000D+00 0.8010000D-01
EXPONENTS  0.8010000D-01 0.8010000D-01 0.8010000D-01 0.8010000D-01 0.8010000D-01
EXPONENTS  0.3710000D-01 0.3710000D-01 0.3710000D-01 0.3710000D-01 0.3710000D-01
EXPONENTS  0.3710000D-01 0.1829000D+00 0.1829000D+00 0.1829000D+00 0.1829000D+00
EXPONENTS  0.1829000D+00 0.1829000D+00 0.1829000D+00 0.1829000D+00 0.1829000D+00
EXPONENTS  0.1829000D+00 0.8160000D-01 0.8160000D-01 0.8160000D-01 0.8160000D-01
EXPONENTS  0.8160000D-01 0.8160000D-01 0.8160000D-01 0.8160000D-01 0.8160000D-01
EXPONENTS  0.8160000D-01 0.3387000D+02 0.5095000D+01 0.1159000D+01 0.3258000D+00
EXPONENTS  0.1027000D+00 0.2526000D-01 0.1407000D+01 0.1407000D+01 0.1407000D+01
EXPONENTS  0.3880000D+00 0.3880000D+00 0.3880000D+00 0.1020000D+00 0.1020000D+00
EXPONENTS  0.1020000D+00 0.1057000D+01 0.1057000D+01 0.1057000D+01 0.1057000D+01
EXPONENTS  0.1057000D+01 0.1057000D+01 0.2470000D+00 0.2470000D+00 0.2470000D+00
EXPONENTS  0.2470000D+00 0.2470000D+00 0.2470000D+00
MO    1     MO 0.0        OCC NO =    2.0000000  ORB. ENERGY =   -9.835673
  0.32990103D+00  0.61501053D+00  0.10394761D+01  0.15626731D+01  0.19199245D+01
  0.16216832D+01  0.61163922D+00 -0.30270367D-02 -0.35341145D-02 -0.66169774D-02
 -0.11265970D-01 -0.17426743D-01 -0.22950407D-01 -0.23846943D-01 -0.15153662D-01
  0.10155632D-01  0.36895018D-01  0.10058131D-01 -0.10078375D-02 -0.45821309D-03
 -0.42960390D-03 -0.30590357D-03 -0.77236531D-03 -0.72414157D-03 -0.51563194D-03
  0.24911883D-04  0.23356474D-04  0.16631201D-04  0.89856335D-03  0.84790524D-03
 -0.28920289D-04  0.45187480D-02  0.41897599D-02 -0.14668449D-03 -0.20464031D-04
  0.12883285D-04 -0.26138188D-06  0.26913075D-02  0.28829007D-02 -0.55742082D-02
  0.84264739D-03 -0.11726259D-03 -0.49684595D-03  0.31527643D-03 -0.34771902D-03
  0.32442593D-04  0.50126835D-03 -0.17616718D-04  0.18384119D-04 -0.48984751D-03
  0.40737700D-03  0.82470509D-04  0.74557213D-03 -0.15189728D-04 -0.23093262D-04
 -0.14408936D-02 -0.13332838D-02 -0.17366736D-04  0.40528176D-02  0.34631716D-02
 -0.73084315D-04  0.26986320D-03  0.53667968D-03  0.12518452D-03 -0.25297834D-03
  0.47325475D-03  0.41842193D-03  0.48829724D-05 -0.13473357D-02 -0.11003194D-02
  0.23588343D-04 -0.72428489D-04 -0.15494641D-03 -0.38237260D-04  0.84544420D-04
  0.41421815D-02  0.77219681D-02  0.13051486D-01  0.19620659D-01  0.24106247D-01
  0.20361579D-01  0.76796385D-02 -0.38006960D-04 -0.35610522D-03 -0.66674132D-03
 -0.11351841D-02 -0.17559573D-02 -0.23125339D-02 -0.24028709D-02 -0.15269166D-02
  0.10233040D-02  0.31066594D-02 -0.14207124D-01 -0.78274042D-04 -0.16645094D-02
 -0.15605834D-02 -0.11112283D-02 -0.14308810D-02 -0.13415419D-02 -0.95525778D-03
  0.51077618D-04  0.47888513D-04  0.34099474D-04  0.17587492D-02  0.47659159D-03
 -0.24501265D-04  0.44628750D-02  0.43417987D-02 -0.14973159D-03 -0.30080066D-04
 -0.35645311D-04  0.12241880D-05 -0.11607773D-03 -0.91509151D-04  0.20758688D-03
 -0.13225157D-02  0.42904726D-04  0.24540249D-04  0.11227571D-03 -0.19159073D-02
  0.18036316D-02 -0.27718810D-02  0.98344656D-04  0.23046784D-03 -0.29377845D-03
  0.18343771D-03  0.11034074D-03 -0.65213248D-03  0.23255780D-04 -0.27651066D-06
 -0.54990405D-03 -0.52476630D-03  0.37578592D-04  0.30224988D-02  0.25931130D-02
 -0.81438535D-04 -0.13727867D-02 -0.10188141D-02 -0.31297241D-04 -0.29547066D-03
 -0.50314253D-05 -0.10240430D-03  0.10101041D-04  0.31775755D-03  0.59960951D-03
 -0.19943237D-04 -0.30266328D-03 -0.29239661D-03 -0.10359886D-04 -0.46177504D-04
  0.19377298D-03  0.34947755D-03  0.51530445D-03  0.12281668D-03  0.74595174D-02
  0.31591374D-05 -0.19011278D-02  0.31123896D-03  0.20579233D-05 -0.34100087D-02
  0.78239201D-03 -0.43898661D-05  0.53929943D-03  0.16740440D-03 -0.79182129D-05
 -0.38449998D-02  0.17616169D-02  0.20833828D-02  0.15270208D-02  0.22153009D-04
  0.10212901D-04 -0.40480608D-03 -0.11709235D-04  0.41651532D-03  0.31219433D-03
  0.13195934D-06  0.23259348D-04  0.21354045D-03  0.38512899D-03  0.56787248D-03
  0.80794111D-03 -0.90210823D-03  0.36898233D-04  0.65527357D-03 -0.18925752D-02
  0.51878894D-04  0.61148865D-03 -0.32175841D-02  0.89621028D-04  0.49604818D-03
 -0.23280024D-03  0.39095289D-05  0.16079456D-02 -0.37894619D-02  0.21815163D-02
  0.26072581D-02 -0.69633286D-04  0.33339885D-03  0.61417743D-05 -0.40012755D-03
  0.39398578D-03  0.84344817D-04  0.17394203D-05  0.45670505D-04 -0.33923136D-04
 -0.63050772D-04 -0.10737438D-03 -0.16745294D-03 -0.23394129D-03 -0.27886231D-03
 -0.26436056D-03 -0.16789568D-03 -0.41230240D-04  0.24964824D-04  0.46159095D-04
  0.77840207D-04  0.12403133D-03  0.17289034D-03  0.22029042D-03  0.21877112D-03
  0.19733671D-03  0.11295185D-03  0.41196829D-03  0.21031211D-03 -0.11715003D-05
 -0.23950952D-03 -0.17574876D-03 -0.14431836D-03 -0.90690468D-04 -0.66547409D-04
 -0.54646261D-04  0.36059243D-05  0.26459773D-05  0.21727783D-05 -0.74358933D-04
 -0.38691827D-04  0.15484492D-05 -0.15974910D-04  0.59629707D-05 -0.94315559D-07
  0.10663419D-05 -0.48374071D-06  0.86791141D-08  0.65594771D-04 -0.79417892D-04
  0.13823121D-04  0.78943913D-04 -0.25282300D-05  0.49270709D-05 -0.11682207D-04
  0.25660281D-04 -0.13978074D-04  0.79891413D-04 -0.23974788D-05 -0.27611624D-05
  0.28327809D-05 -0.10335605D-05 -0.17992204D-05 -0.65206694D-06 -0.26861954D-07
 -0.40743780D-07 -0.62537323D-05 -0.90258103D-05 -0.41422965D-06  0.44494183D-04
  0.74723274D-05 -0.47842111D-06 -0.25732986D-04  0.19605103D-04  0.17211101D-05
 -0.39060736D-05  0.10377478D-05  0.58750550D-05 -0.51675007D-07 -0.82667937D-05
 -0.18399140D-04  0.58331665D-06  0.51535505D-05  0.77397467D-06 -0.42829163D-06
  0.98979590D-06  0.38213719D-04  0.68920016D-04  0.10162252D-03  0.27892801D-02
 -0.45688287D-02 -0.76078847D-06 -0.89697280D-04 -0.74613030D-03  0.21780077D-04
  0.23643701D-02 -0.35480446D-03 -0.44026269D-05 -0.11249799D-03  0.58593200D-03
 -0.16232971D-04  0.48270941D-03 -0.29307774D-03 -0.18963166D-03 -0.17571706D-02
  0.42011629D-04  0.17055699D-04  0.16161801D-03 -0.21783773D-03  0.56219722D-04
 -0.65175694D-03  0.17547184D-04  0.19753385D-04
MO    2     MO 0.0        OCC NO =    2.0000000  ORB. ENERGY =   -9.809220
 -0.34300797D-02 -0.63944485D-02 -0.10807744D-01 -0.16247580D-01 -0.19962029D-01
 -0.16861125D-01 -0.63593960D-02  0.31473006D-04 -0.27303250D-03 -0.51120298D-03
 -0.87036682D-03 -0.13463251D-02 -0.17730628D-02 -0.18423259D-02 -0.11707154D-02
  0.78458622D-03  0.26159184D-02 -0.13594743D-01 -0.26922823D-02  0.15176918D-02
  0.14229325D-02  0.10132127D-02  0.17946853D-02  0.16826316D-02  0.11981339D-02
 -0.60396115D-04 -0.56625197D-04 -0.40320513D-04 -0.21959863D-02 -0.37270543D-02
  0.12010994D-03 -0.16297829D-02  0.15919196D-03  0.42338300D-05 -0.16965160D-03
 -0.50182130D-05  0.11176553D-05  0.53804568D-04  0.16017439D-03 -0.21397896D-03
 -0.12419546D-02  0.32966868D-04 -0.15073499D-04 -0.67915205D-03 -0.14058136D-02
  0.20849657D-02 -0.51021298D-02  0.17825667D-03  0.23037308D-03 -0.17977056D-03
 -0.14050124D-04  0.19382068D-03 -0.24755046D-03  0.11272496D-04  0.13503501D-04
  0.47274952D-03  0.17550960D-03 -0.53279704D-04 -0.25778497D-02 -0.21381202D-02
  0.66747936D-04  0.11596012D-02  0.16115914D-02  0.93091175D-04  0.25828917D-03
  0.42442732D-03  0.47778487D-03  0.16765580D-05 -0.14208325D-02 -0.13458683D-02
  0.33860650D-04  0.14755057D-03 -0.87486284D-04 -0.38890324D-04  0.10434458D-03
  0.32940995D+00  0.61409504D+00  0.10379288D+01  0.15603470D+01  0.19170665D+01
  0.16192692D+01  0.61072875D+00 -0.30225307D-02 -0.31400455D-02 -0.58791559D-02
 -0.10009766D-01 -0.15483586D-01 -0.20391338D-01 -0.21187906D-01 -0.13463963D-01
  0.90232351D-02  0.36784148D-01  0.66142988D-02  0.14708842D-02 -0.17262749D-02
 -0.16184924D-02 -0.11524630D-02  0.65874220D-03  0.61761268D-03  0.43977702D-03
 -0.96856065D-05 -0.90808717D-05 -0.64661216D-05 -0.69197737D-02 -0.24489902D-02
  0.11239703D-03  0.38030057D-03 -0.23583231D-02  0.65794169D-04 -0.89020572D-05
 -0.16197558D-03  0.46521454D-05  0.48067636D-03  0.35751536D-02 -0.40558300D-02
  0.12984693D-02 -0.90004748D-04 -0.44467828D-03 -0.30997381D-03  0.12710411D-03
  0.18286971D-03  0.20358194D-02 -0.54680474D-04 -0.84243622D-05 -0.27805521D-04
  0.11213786D-06  0.27693383D-04  0.14759905D-03 -0.36429382D-05  0.47308810D-06
  0.51624550D-03  0.64996729D-03  0.69701586D-05 -0.27933787D-02 -0.14432106D-02
  0.47103168D-04  0.12446422D-02 -0.50669125D-03 -0.68013644D-04  0.24241772D-03
 -0.10949078D-04  0.69153218D-04  0.22957076D-05  0.38116802D-03 -0.19860002D-03
  0.21141532D-05 -0.34832078D-03 -0.88596336D-05 -0.90012761D-05 -0.39329033D-04
  0.14320145D-03  0.25826971D-03  0.38081854D-03  0.35000529D-02  0.14469865D-02
 -0.13369127D-03  0.83736778D-03  0.21587946D-03 -0.10565132D-04 -0.92020296D-04
 -0.88635115D-03  0.25095339D-04 -0.13642408D-04 -0.29131808D-03  0.83263816D-05
 -0.14052856D-03 -0.32203504D-03  0.46256359D-03 -0.73232430D-03  0.27503997D-04
  0.49524591D-04 -0.17116770D-03 -0.67527419D-04  0.23869512D-03 -0.33830879D-03
  0.14220218D-04  0.19530327D-04  0.14394677D-03  0.25961393D-03  0.38280059D-03
  0.44180733D-02  0.24217659D-02  0.12536176D-03  0.28824128D-03  0.97943835D-03
 -0.29842097D-04 -0.14346113D-02 -0.85192495D-03  0.31465687D-04 -0.43109361D-03
  0.11231871D-03 -0.10103081D-05  0.60742779D-04 -0.59487455D-03  0.53413177D-03
 -0.64171041D-03  0.23969034D-04  0.68492132D-04  0.77014747D-04 -0.38029815D-03
  0.30328340D-03 -0.51832401D-03  0.17456142D-04  0.42469818D-04  0.11092954D-03
  0.20617767D-03  0.35111703D-03  0.54757548D-03  0.76499412D-03  0.91188705D-03
  0.86446594D-03  0.54902325D-03  0.13482396D-03 -0.91384710D-04 -0.16896716D-03
 -0.28493711D-03 -0.45402152D-03 -0.63287182D-03 -0.80638164D-03 -0.80082021D-03
 -0.72235872D-03 -0.41346463D-03 -0.32277620D-03  0.14490127D-03 -0.32498839D-05
 -0.17348989D-04 -0.12730448D-04 -0.10453771D-04  0.14887615D-03  0.10924325D-03
  0.89706503D-04 -0.40540074D-05 -0.29747744D-05 -0.24427743D-05  0.15868333D-04
 -0.13085526D-03  0.38116365D-05 -0.19896265D-04  0.65792561D-05 -0.73156713D-07
  0.21267713D-05 -0.38782373D-06 -0.14106687D-08  0.15505711D-03 -0.93074426D-04
 -0.61982686D-04 -0.21640213D-03  0.37543959D-05  0.28867785D-05 -0.28854955D-04
  0.33609679D-04 -0.47547237D-05  0.97289867D-04 -0.25910418D-05 -0.26926769D-05
  0.23983782D-05 -0.13609279D-06 -0.22622854D-05  0.28456012D-05 -0.14082467D-06
 -0.13768871D-06 -0.35346887D-04 -0.23016976D-04 -0.11836105D-06  0.65272421D-04
  0.73170328D-04 -0.10512169D-05  0.40768241D-04 -0.41193992D-05  0.14063000D-05
 -0.21676177D-05  0.46981817D-05  0.42434892D-05 -0.13442445D-06 -0.15734921D-04
 -0.17009385D-04  0.43795787D-06  0.16403764D-05  0.42789171D-05 -0.34684529D-07
  0.12113586D-05  0.19882535D-03  0.35858971D-03  0.52874031D-03 -0.90327321D-03
  0.12328172D-02  0.14092345D-03 -0.65690573D-03  0.13286138D-02 -0.33916166D-04
 -0.18236961D-02  0.25307095D-02 -0.61811535D-04 -0.20431836D-03  0.72591065D-04
 -0.81649909D-06  0.83927887D-03 -0.26551229D-02  0.18158441D-02  0.44762694D-02
 -0.11590215D-03  0.22921329D-03  0.18048720D-04 -0.30536505D-03  0.28731633D-03
  0.41784531D-03 -0.85415110D-05  0.31592764D-04
MO    3     MO 0.0        OCC NO =    2.0000000  ORB. ENERGY =   -1.860592
 -0.25437996D-03 -0.47422207D-03 -0.80151885D-03 -0.12049454D-02 -0.14804146D-02
 -0.12504468D-02 -0.47162253D-03  0.23340862D-05  0.18482955D-03  0.34605923D-03
  0.58919545D-03  0.91139577D-03  0.12002762D-02  0.12471638D-02  0.79251662D-03
 -0.53112621D-03 -0.16224177D-02  0.20594512D-01 -0.81555175D-02  0.64373645D-03
  0.60354384D-03  0.42975917D-03 -0.45557190D-04 -0.42712762D-04 -0.30414031D-04
 -0.31192783D-05 -0.29245217D-05 -0.20824337D-05 -0.53282822D-02 -0.48009372D-02
  0.17093094D-03  0.41815621D-02  0.11785033D-01 -0.37059920D-03 -0.29265126D-03
 -0.18276652D-03  0.68271260D-05  0.31538020D-03  0.66633824D-05 -0.32204358D-03
 -0.77819460D-04 -0.47244866D-05 -0.18212241D-04  0.39491163D-03  0.10990350D-02
 -0.14939467D-02 -0.45818789D-02  0.11362137D-03 -0.12351950D-03  0.10978881D-02
 -0.13622387D-02  0.26435057D-03  0.24920432D-02 -0.83160662D-04  0.81179935D-04
 -0.42745154D-03 -0.46292482D-03 -0.73910276D-05  0.17288152D-02  0.10650296D-02
 -0.28195757D-04 -0.44646062D-03  0.32374489D-03  0.50368839D-04 -0.13443627D-03
  0.52814273D-03  0.87745506D-03  0.29284018D-04 -0.14949015D-02 -0.16535858D-02
  0.37232623D-04 -0.89526700D-04 -0.97877941D-03 -0.12508468D-03  0.90727278D-04
  0.71812359D-04  0.13387457D-03  0.22627160D-03  0.34016033D-03  0.41792627D-03
  0.35300554D-03  0.13314070D-03 -0.65892077D-06 -0.35695154D-03 -0.66832591D-03
 -0.11378821D-02 -0.17601305D-02 -0.23180300D-02 -0.24085816D-02 -0.15305455D-02
  0.10257360D-02  0.74587422D-03 -0.19393447D-01  0.16071843D-01  0.33190884D-02
  0.31118564D-02  0.22158271D-02 -0.11809988D-03 -0.11072615D-03 -0.78843612D-04
 -0.13896918D-04 -0.13029244D-04 -0.92775976D-05 -0.27320255D-02 -0.31872755D-02
  0.10589750D-03  0.11126244D-01  0.79078408D-02 -0.28779335D-03  0.38702587D-03
 -0.97202213D-03  0.26006422D-04  0.82053712D-03 -0.11440779D-02  0.32354077D-03
 -0.80180968D-03  0.17171022D-04  0.86672711D-04 -0.19945774D-02  0.20247976D-02
 -0.30220146D-04  0.41755883D-02 -0.96878158D-04 -0.13902406D-03  0.21164495D-02
 -0.15983479D-02 -0.51810159D-03 -0.27857433D-02  0.51194741D-04  0.76447144D-04
 -0.12683756D-02 -0.42483484D-03 -0.75072876D-05  0.23931130D-02  0.12600297D-02
 -0.19070823D-05  0.14120138D-02  0.14474864D-04  0.24428945D-04 -0.68687238D-04
  0.14679726D-02  0.11020509D-02  0.17725046D-04 -0.27412307D-02 -0.30027241D-02
  0.44110688D-04 -0.16626872D-02 -0.30342846D-03 -0.97285827D-04  0.90833516D-04
  0.13706395D-03  0.24720048D-03  0.36449696D-03 -0.11949224D-02 -0.12059768D-01
 -0.17312820D-03 -0.18369541D-03  0.10806997D-03 -0.34143784D-05 -0.37374449D-02
 -0.55788160D-03  0.40479311D-04 -0.22721638D-02  0.19255907D-02 -0.44137345D-04
 -0.12950338D-02  0.13593841D-03  0.11590954D-02 -0.85754018D-03  0.53702946D-04
  0.64637141D-04 -0.30044082D-03 -0.85672875D-04  0.38611370D-03  0.43487250D-04
  0.70822811D-05  0.27238528D-04  0.93331093D-04  0.16832647D-03  0.24819728D-03
  0.13367783D-02  0.27792683D-01  0.20030262D-03  0.20249134D-03  0.53017786D-04
 -0.39500296D-05 -0.77707517D-03 -0.39653151D-02  0.12154928D-03  0.15155081D-03
  0.29307102D-02 -0.85077649D-04  0.60398510D-03 -0.13078531D-02  0.70386796D-03
 -0.28565981D-03  0.98990350D-05  0.11902472D-03  0.45966778D-04 -0.43997785D-03
  0.39401107D-03  0.19872645D-03 -0.13271775D-05  0.48349657D-04  0.65754661D-01
  0.12221400D+00  0.20812834D+00  0.32458117D+00  0.45345837D+00  0.54053071D+00
  0.51242135D+00  0.32543935D+00  0.79918332D-01 -0.13830273D-02 -0.25571695D-02
 -0.43122727D-02 -0.68712165D-02 -0.95779586D-02 -0.12203877D-01 -0.12119710D-01
 -0.10932264D-01 -0.62574237D-02 -0.16419641D-01 -0.38987866D-02 -0.10762649D-04
  0.10590392D-01  0.77710826D-02  0.63813245D-02 -0.24487447D-02 -0.17968550D-02
 -0.14755106D-02  0.16202531D-04  0.11889193D-04  0.97629637D-05  0.30290679D-02
  0.18821829D-03 -0.20861448D-04  0.17715141D-03 -0.12528910D-04 -0.62747072D-06
 -0.31257608D-05 -0.41686240D-06  0.32520000D-07 -0.19103657D-03  0.19956226D-03
 -0.85256955D-05  0.53231497D-03 -0.14084822D-04 -0.14471211D-04 -0.23944520D-03
  0.17697625D-03  0.62468957D-04 -0.21265130D-03  0.90951903D-05 -0.53665193D-05
 -0.59887403D-04  0.32867671D-04  0.27019732D-04  0.82380025D-05  0.67316003D-06
 -0.40688530D-06 -0.14006013D-03 -0.82380185D-05 -0.53564658D-06  0.10735221D-03
  0.64646456D-04  0.37264712D-05  0.31282819D-03 -0.39932401D-04 -0.21195315D-05
  0.10439257D-04  0.20509482D-04 -0.14409305D-05  0.55581952D-06 -0.42613729D-04
  0.20086265D-04 -0.10825116D-05 -0.18914718D-04 -0.15763473D-04 -0.58494697D-06
  0.10025766D-05 -0.10958453D-03 -0.19764020D-03 -0.29142037D-03 -0.37675175D-02
  0.63502360D-03  0.13537200D-02  0.11144039D-02  0.19825342D-03 -0.11687549D-04
 -0.52473621D-02 -0.35982838D-02  0.13151467D-03  0.19344523D-02  0.24580367D-03
 -0.16761968D-04 -0.50445465D-03  0.16659574D-02 -0.11615028D-02  0.12327037D-02
 -0.40205220D-04 -0.16649510D-03 -0.16288428D-03  0.56162883D-03 -0.39874455D-03
  0.74173095D-03 -0.23015258D-04 -0.57963744D-04
MO    4     MO 0.0        OCC NO =    2.0000000  ORB. ENERGY =   -0.615499
 -0.98669869D-02 -0.18394307D-01 -0.31089619D-01 -0.46737881D-01 -0.57422887D-01
 -0.48502808D-01 -0.18293475D-01  0.90535427D-04 -0.44969077D-01 -0.84196300D-01
 -0.14335140D+00 -0.22174283D+00 -0.29202750D+00 -0.30343528D+00 -0.19281950D+00
  0.12922314D+00  0.58861026D-01  0.45376394D-01  0.61383476D-03  0.77802591D-01
  0.72944874D-01  0.51941096D-01  0.87889785D-01  0.82402260D-01  0.58675318D-01
 -0.29674647D-02 -0.27821867D-02 -0.19810827D-02  0.10266396D-01  0.10626808D-01
 -0.36079535D-03  0.14561011D-02  0.32395583D-03 -0.17777996D-04  0.61150209D-04
  0.58272204D-05 -0.47066896D-06  0.68191124D-02  0.88573490D-02 -0.15676461D-01
  0.18408660D-01 -0.78484703D-03 -0.15290654D-02  0.35558429D-03  0.36473559D-02
 -0.40029402D-02 -0.18922004D-03 -0.42637378D-04 -0.44366625D-03  0.51557127D-04
 -0.73866913D-04  0.22309785D-04  0.14179390D-03 -0.46889999D-05  0.49699562D-05
 -0.21119470D-02 -0.14109119D-02  0.72418354D-04  0.85271281D-02  0.63208309D-02
 -0.17247811D-03 -0.21912871D-02 -0.20880953D-02 -0.44776953D-04 -0.71656191D-03
 -0.65638103D-03 -0.35846153D-03 -0.16881886D-04  0.16819895D-02  0.54830650D-03
 -0.18918488D-05  0.28715357D-03  0.52707810D-03  0.52537507D-04 -0.81263510D-04
 -0.86016323D-02 -0.16035398D-01 -0.27102648D-01 -0.40744157D-01 -0.50058905D-01
 -0.42282748D-01 -0.15947497D-01  0.78925052D-04 -0.36005062D-01 -0.67412835D-01
 -0.11477612D+00 -0.17754121D+00 -0.23381552D+00 -0.24294930D+00 -0.15438338D+00
  0.10346415D+00  0.46799110D-01  0.15503511D-01 -0.24733005D-02 -0.14772004D+00
 -0.13849692D+00 -0.98618061D-01 -0.93939063D-01 -0.88073843D-01 -0.62713823D-01
  0.35771476D-02  0.33538033D-02  0.23881077D-02 -0.31094337D-01 -0.10707781D-01
  0.49401708D-03 -0.46422481D-03  0.35115253D-02 -0.97758807D-04 -0.22103920D-03
 -0.11219576D-03  0.43556342D-05  0.45627663D-02  0.86797846D-02 -0.13242551D-01
  0.21517061D-01 -0.82815970D-03 -0.13835355D-02 -0.11228688D-02  0.37245253D-02
 -0.26016566D-02 -0.26865631D-03 -0.10568688D-04 -0.36115552D-03  0.14702767D-03
 -0.31688704D-03  0.16985936D-03 -0.10186298D-02  0.29623768D-04  0.33500308D-04
  0.11681377D-02  0.10612700D-02 -0.88066215D-04 -0.76463523D-02 -0.53707705D-02
  0.18298005D-03  0.41419392D-02  0.21869606D-02  0.81218600D-04  0.76437806D-03
  0.13488255D-03  0.15200110D-05  0.51526506D-05 -0.57225097D-03  0.20901968D-03
 -0.67719986D-05  0.16760331D-03 -0.21357971D-03 -0.86859533D-05  0.37424160D-04
  0.14987432D-01  0.27030450D-01  0.39856383D-01  0.12067399D-01 -0.21071748D-02
 -0.31665208D-04  0.11651591D-01 -0.57970902D-03 -0.48893117D-04 -0.75939783D-03
  0.10879403D-02 -0.26238849D-04 -0.96844599D-03  0.24488103D-03 -0.18411494D-05
  0.18776596D-02 -0.46435018D-03 -0.14133094D-02  0.15212531D-02 -0.80633821D-04
 -0.63519943D-04 -0.37641467D-03  0.28925467D-03  0.87160001D-04  0.63882768D-04
  0.35247269D-05 -0.12230650D-04  0.15007157D-01  0.27066027D-01  0.39908840D-01
  0.73794859D-02 -0.14762854D-02 -0.10241040D-03 -0.13536676D-02  0.11305421D-01
 -0.32164128D-03  0.99670439D-03 -0.34348757D-02  0.96040242D-04  0.25902642D-03
 -0.97597042D-03  0.27269902D-04 -0.27476190D-03  0.15256805D-02 -0.12509186D-02
  0.11089773D-02 -0.43140550D-04 -0.16721331D-03  0.32570870D-03 -0.49354004D-03
  0.16783134D-03  0.28517023D-03 -0.10167727D-04  0.37119615D-04 -0.57081288D-03
 -0.10609335D-02 -0.18067516D-02 -0.28176727D-02 -0.39364491D-02 -0.46923197D-02
 -0.44483037D-02 -0.28251225D-02 -0.69376699D-03 -0.55077633D-03 -0.10183663D-02
 -0.17173181D-02 -0.27363910D-02 -0.38143231D-02 -0.48600681D-02 -0.48265493D-02
 -0.43536613D-02 -0.24919544D-02  0.24842285D-02  0.98585984D-03  0.81733550D-06
 -0.44126908D-02 -0.32379713D-02 -0.26589018D-02  0.10947627D-03  0.80332171D-04
  0.65965796D-04  0.20908299D-04  0.15342220D-04  0.12598462D-04 -0.41004947D-03
  0.52316875D-03 -0.12861319D-04 -0.50656776D-04  0.33472770D-04 -0.69718567D-06
  0.16964189D-05 -0.21468066D-05  0.54143256D-07  0.88492581D-03 -0.41046471D-03
 -0.47446110D-03  0.43318706D-05 -0.14993772D-04 -0.35457985D-05 -0.38207182D-04
  0.84092803D-04 -0.45885621D-04 -0.18399151D-03  0.52399687D-05 -0.65256603D-05
  0.69492683D-05 -0.28306135D-05 -0.41186548D-05 -0.32109115D-04  0.80371374D-06
  0.96317647D-07 -0.11185115D-03 -0.17331736D-05 -0.10740532D-05  0.14178991D-03
  0.47661062D-05  0.38044142D-05  0.19376353D-03  0.43341474D-06 -0.58225463D-06
  0.28041742D-05  0.99610619D-05 -0.23107071D-05  0.38630859D-06 -0.32563215D-04
  0.20649601D-04 -0.72960467D-06  0.26800294D-05 -0.13717480D-04 -0.42932110D-06
  0.16751382D-05  0.13065645D-01  0.23564429D-01  0.34745736D-01  0.75244376D-02
 -0.48469557D-02 -0.12774901D-03  0.14350632D-02 -0.10996067D-01  0.30577633D-03
 -0.38036966D-02  0.32846441D-02 -0.70562175D-04 -0.17835451D-03  0.17990814D-02
 -0.50011414D-04 -0.13896402D-02  0.21328699D-02 -0.74322961D-03  0.24060846D-02
 -0.60818485D-04 -0.17899299D-03  0.23654910D-03 -0.60698089D-03  0.37043179D-03
  0.11525299D-02 -0.31320220D-04  0.49042126D-04
MO    5     MO 0.0        OCC NO =    2.0000000  ORB. ENERGY =   -0.440291
  0.43842501D-02  0.81732390D-02  0.13814214D-01  0.20767288D-01  0.25515013D-01
  0.21551507D-01  0.81284356D-02 -0.40228082D-04  0.26641586D-01  0.49881454D-01
  0.84927444D-01  0.13136984D+00  0.17300946D+00  0.17976791D+00  0.11423444D+00
 -0.76557264D-01 -0.36990417D-01 -0.33371871D-01 -0.42842683D-02  0.16929023D+00
  0.15872035D+00  0.11301834D+00  0.27253138D+00  0.25551550D+00  0.18194225D+00
 -0.88557440D-02 -0.83028229D-02 -0.59121045D-02  0.32215137D-01  0.55537387D-01
 -0.17909522D-02  0.61605891D-02  0.44144178D-02 -0.16325272D-03 -0.84795741D-05
 -0.19534786D-03  0.56962249D-05 -0.46980310D-02  0.13210555D-03  0.45659255D-02
  0.21406381D-01 -0.51516146D-03  0.14582016D-03 -0.12598425D-02 -0.34743886D-03
  0.16072813D-02  0.11864405D-02 -0.10827205D-05  0.10913511D-03 -0.46595301D-03
  0.25641425D-03  0.20953876D-03 -0.16788450D-04  0.80491003D-05 -0.25892386D-05
 -0.45406865D-03  0.10673557D-02  0.69354364D-04  0.22401619D-02 -0.98272737D-03
  0.26723044D-04 -0.87795595D-03 -0.22193398D-02 -0.23478614D-03 -0.19408395D-03
  0.58286220D-03  0.44421263D-03  0.44584451D-05 -0.13617325D-02 -0.12591865D-02
  0.22202625D-04 -0.38685416D-03 -0.73451388D-04 -0.35577960D-04  0.70684665D-04
 -0.60878864D-02 -0.11349204D-01 -0.19182155D-01 -0.28837062D-01 -0.35429663D-01
 -0.29926014D-01 -0.11286991D-01  0.55859950D-04 -0.35784428D-01 -0.66999740D-01
 -0.11407279D+00 -0.17645326D+00 -0.23238274D+00 -0.24146055D+00 -0.15343734D+00
  0.10283014D+00  0.49014598D-01  0.33475225D-01  0.11562705D-03 -0.63919337D-01