 Molden2AIM, Version 4.0.0 (06/02/2016)           Time: Thu Jun 28 22:41:33 2018
GAUSSIAN             16 MOL ORBITALS    362 PRIMITIVES        6 NUCLEI
  C    1    (CENTRE  1)  -0.00000567  0.11833087  1.40141522  CHARGE =  6.0
  C    2    (CENTRE  2)  -0.00000189  0.20382397 -1.10691275  CHARGE =  6.0
  H    3    (CENTRE  3)  -0.00000189  1.88006018  2.46851144  CHARGE =  1.0
  H    4    (CENTRE  4)   0.00000567 -1.66104470  2.43547336  CHARGE =  1.0
  H    5    (CENTRE  5)   0.00000567  1.94416535 -2.20750058  CHARGE =  1.0
  Cl   6    (CENTRE  6)  -0.00000189 -2.48533567 -2.99098670  CHARGE = 17.0
CENTRE ASSIGNMENTS    1  1  1  1  1  1  1  1  1  1  1  1  1  1  1  1  1  1  1  1
CENTRE ASSIGNMENTS    1  1  1  1  1  1  1  1  1  1  1  1  1  1  1  1  1  1  1  1
CENTRE ASSIGNMENTS    1  1  1  1  1  1  1  1  1  1  1  1  1  1  1  1  1  1  1  1
CENTRE ASSIGNMENTS    1  1  1  1  1  1  1  1  1  1  1  1  1  1  1  2  2  2  2  2
CENTRE ASSIGNMENTS    2  2  2  2  2  2  2  2  2  2  2  2  2  2  2  2  2  2  2  2
CENTRE ASSIGNMENTS    2  2  2  2  2  2  2  2  2  2  2  2  2  2  2  2  2  2  2  2
CENTRE ASSIGNMENTS    2  2  2  2  2  2  2  2  2  2  2  2  2  2  2  2  2  2  2  2
CENTRE ASSIGNMENTS    2  2  2  2  2  2  2  2  2  2  3  3  3  3  3  3  3  3  3  3
CENTRE ASSIGNMENTS    3  3  3  3  3  3  3  3  3  3  3  3  3  3  3  3  3  4  4  4
CENTRE ASSIGNMENTS    4  4  4  4  4  4  4  4  4  4  4  4  4  4  4  4  4  4  4  4
CENTRE ASSIGNMENTS    4  4  4  4  5  5  5  5  5  5  5  5  5  5  5  5  5  5  5  5
CENTRE ASSIGNMENTS    5  5  5  5  5  5  5  5  5  5  5  6  6  6  6  6  6  6  6  6
CENTRE ASSIGNMENTS    6  6  6  6  6  6  6  6  6  6  6  6  6  6  6  6  6  6  6  6
CENTRE ASSIGNMENTS    6  6  6  6  6  6  6  6  6  6  6  6  6  6  6  6  6  6  6  6
CENTRE ASSIGNMENTS    6  6  6  6  6  6  6  6  6  6  6  6  6  6  6  6  6  6  6  6
CENTRE ASSIGNMENTS    6  6  6  6  6  6  6  6  6  6  6  6  6  6  6  6  6  6  6  6
CENTRE ASSIGNMENTS    6  6  6  6  6  6  6  6  6  6  6  6  6  6  6  6  6  6  6  6
CENTRE ASSIGNMENTS    6  6  6  6  6  6  6  6  6  6  6  6  6  6  6  6  6  6  6  6
CENTRE ASSIGNMENTS    6  6
TYPE ASSIGNMENTS      1  1  1  1  1  1  1  1  1  1  1  1  1  1  1  1  1  1  1  2
TYPE ASSIGNMENTS      2  2  3  3  3  4  4  4  2  3  4  2  3  4  2  3  4  5  6  7
TYPE ASSIGNMENTS      8  9 10  5  6  7  8  9 10  5  6  7  8  9 10 11 12 13 17 14
TYPE ASSIGNMENTS     15 18 19 16 20 11 12 13 17 14 15 18 19 16 20  1  1  1  1  1
TYPE ASSIGNMENTS      1  1  1  1  1  1  1  1  1  1  1  1  1  1  2  2  2  3  3  3
TYPE ASSIGNMENTS      4  4  4  2  3  4  2  3  4  2  3  4  5  6  7  8  9 10  5  6
TYPE ASSIGNMENTS      7  8  9 10  5  6  7  8  9 10 11 12 13 17 14 15 18 19 16 20
TYPE ASSIGNMENTS     11 12 13 17 14 15 18 19 16 20  1  1  1  1  1  1  2  3  4  2
TYPE ASSIGNMENTS      3  4  2  3  4  5  6  7  8  9 10  5  6  7  8  9 10  1  1  1
TYPE ASSIGNMENTS      1  1  1  2  3  4  2  3  4  2  3  4  5  6  7  8  9 10  5  6
TYPE ASSIGNMENTS      7  8  9 10  1  1  1  1  1  1  2  3  4  2  3  4  2  3  4  5
TYPE ASSIGNMENTS      6  7  8  9 10  5  6  7  8  9 10  1  1  1  1  1  1  1  1  1
TYPE ASSIGNMENTS      1  1  1  1  1  1  1  1  1  1  1  1  1  1  1  1  1  1  1  1
TYPE ASSIGNMENTS      1  1  1  1  1  1  1  1  1  1  1  1  1  2  2  2  2  2  2  2
TYPE ASSIGNMENTS      3  3  3  3  3  3  3  4  4  4  4  4  4  4  2  2  2  2  2  2
TYPE ASSIGNMENTS      2  3  3  3  3  3  3  3  4  4  4  4  4  4  4  2  3  4  2  3
TYPE ASSIGNMENTS      4  2  3  4  5  6  7  8  9 10  5  6  7  8  9 10  5  6  7  8
TYPE ASSIGNMENTS      9 10 11 12 13 17 14 15 18 19 16 20 11 12 13 17 14 15 18 19
TYPE ASSIGNMENTS     16 20
EXPONENTS  0.8236000D+04 0.1235000D+04 0.2808000D+03 0.7927000D+02 0.2559000D+02
EXPONENTS  0.8997000D+01 0.3319000D+01 0.3643000D+00 0.8236000D+04 0.1235000D+04
EXPONENTS  0.2808000D+03 0.7927000D+02 0.2559000D+02 0.8997000D+01 0.3319000D+01
EXPONENTS  0.3643000D+00 0.9059000D+00 0.1285000D+00 0.4402000D-01 0.1871000D+02
EXPONENTS  0.4133000D+01 0.1200000D+01 0.1871000D+02 0.4133000D+01 0.1200000D+01
EXPONENTS  0.1871000D+02 0.4133000D+01 0.1200000D+01 0.3827000D+00 0.3827000D+00
EXPONENTS  0.3827000D+00 0.1209000D+00 0.1209000D+00 0.1209000D+00 0.3569000D-01
EXPONENTS  0.3569000D-01 0.3569000D-01 0.1097000D+01 0.1097000D+01 0.1097000D+01
EXPONENTS  0.1097000D+01 0.1097000D+01 0.1097000D+01 0.3180000D+00 0.3180000D+00
EXPONENTS  0.3180000D+00 0.3180000D+00 0.3180000D+00 0.3180000D+00 0.1000000D+00
EXPONENTS  0.1000000D+00 0.1000000D+00 0.1000000D+00 0.1000000D+00 0.1000000D+00
EXPONENTS  0.7610000D+00 0.7610000D+00 0.7610000D+00 0.7610000D+00 0.7610000D+00
EXPONENTS  0.7610000D+00 0.7610000D+00 0.7610000D+00 0.7610000D+00 0.7610000D+00
EXPONENTS  0.2680000D+00 0.2680000D+00 0.2680000D+00 0.2680000D+00 0.2680000D+00
EXPONENTS  0.2680000D+00 0.2680000D+00 0.2680000D+00 0.2680000D+00 0.2680000D+00
EXPONENTS  0.8236000D+04 0.1235000D+04 0.2808000D+03 0.7927000D+02 0.2559000D+02
EXPONENTS  0.8997000D+01 0.3319000D+01 0.3643000D+00 0.8236000D+04 0.1235000D+04
EXPONENTS  0.2808000D+03 0.7927000D+02 0.2559000D+02 0.8997000D+01 0.3319000D+01
EXPONENTS  0.3643000D+00 0.9059000D+00 0.1285000D+00 0.4402000D-01 0.1871000D+02
EXPONENTS  0.4133000D+01 0.1200000D+01 0.1871000D+02 0.4133000D+01 0.1200000D+01
EXPONENTS  0.1871000D+02 0.4133000D+01 0.1200000D+01 0.3827000D+00 0.3827000D+00
EXPONENTS  0.3827000D+00 0.1209000D+00 0.1209000D+00 0.1209000D+00 0.3569000D-01
EXPONENTS  0.3569000D-01 0.3569000D-01 0.1097000D+01 0.1097000D+01 0.1097000D+01
EXPONENTS  0.1097000D+01 0.1097000D+01 0.1097000D+01 0.3180000D+00 0.3180000D+00
EXPONENTS  0.3180000D+00 0.3180000D+00 0.3180000D+00 0.3180000D+00 0.1000000D+00
EXPONENTS  0.1000000D+00 0.1000000D+00 0.1000000D+00 0.1000000D+00 0.1000000D+00
EXPONENTS  0.7610000D+00 0.7610000D+00 0.7610000D+00 0.7610000D+00 0.7610000D+00
EXPONENTS  0.7610000D+00 0.7610000D+00 0.7610000D+00 0.7610000D+00 0.7610000D+00
EXPONENTS  0.2680000D+00 0.2680000D+00 0.2680000D+00 0.2680000D+00 0.2680000D+00
EXPONENTS  0.2680000D+00 0.2680000D+00 0.2680000D+00 0.2680000D+00 0.2680000D+00
EXPONENTS  0.3387000D+02 0.5095000D+01 0.1159000D+01 0.3258000D+00 0.1027000D+00
EXPONENTS  0.2526000D-01 0.1407000D+01 0.1407000D+01 0.1407000D+01 0.3880000D+00
EXPONENTS  0.3880000D+00 0.3880000D+00 0.1020000D+00 0.1020000D+00 0.1020000D+00
EXPONENTS  0.1057000D+01 0.1057000D+01 0.1057000D+01 0.1057000D+01 0.1057000D+01
EXPONENTS  0.1057000D+01 0.2470000D+00 0.2470000D+00 0.2470000D+00 0.2470000D+00
EXPONENTS  0.2470000D+00 0.2470000D+00 0.3387000D+02 0.5095000D+01 0.1159000D+01
EXPONENTS  0.3258000D+00 0.1027000D+00 0.2526000D-01 0.1407000D+01 0.1407000D+01
EXPONENTS  0.1407000D+01 0.3880000D+00 0.3880000D+00 0.3880000D+00 0.1020000D+00
EXPONENTS  0.1020000D+00 0.1020000D+00 0.1057000D+01 0.1057000D+01 0.1057000D+01
EXPONENTS  0.1057000D+01 0.1057000D+01 0.1057000D+01 0.2470000D+00 0.2470000D+00
EXPONENTS  0.2470000D+00 0.2470000D+00 0.2470000D+00 0.2470000D+00 0.3387000D+02
EXPONENTS  0.5095000D+01 0.1159000D+01 0.3258000D+00 0.1027000D+00 0.2526000D-01
EXPONENTS  0.1407000D+01 0.1407000D+01 0.1407000D+01 0.3880000D+00 0.3880000D+00
EXPONENTS  0.3880000D+00 0.1020000D+00 0.1020000D+00 0.1020000D+00 0.1057000D+01
EXPONENTS  0.1057000D+01 0.1057000D+01 0.1057000D+01 0.1057000D+01 0.1057000D+01
EXPONENTS  0.2470000D+00 0.2470000D+00 0.2470000D+00 0.2470000D+00 0.2470000D+00
EXPONENTS  0.2470000D+00 0.4561000D+06 0.6833000D+05 0.1555000D+05 0.4405000D+04
EXPONENTS  0.1439000D+04 0.5204000D+03 0.2031000D+03 0.8396000D+02 0.3620000D+02
EXPONENTS  0.1583000D+02 0.6334000D+01 0.2694000D+01 0.4313000D+00 0.4561000D+06
EXPONENTS  0.6833000D+05 0.1555000D+05 0.4405000D+04 0.1439000D+04 0.5204000D+03
EXPONENTS  0.2031000D+03 0.8396000D+02 0.3620000D+02 0.1583000D+02 0.6334000D+01
EXPONENTS  0.2694000D+01 0.4313000D+00 0.4561000D+06 0.6833000D+05 0.1555000D+05
EXPONENTS  0.4405000D+04 0.1439000D+04 0.5204000D+03 0.2031000D+03 0.8396000D+02
EXPONENTS  0.3620000D+02 0.1583000D+02 0.6334000D+01 0.2694000D+01 0.4313000D+00
EXPONENTS  0.9768000D+00 0.1625000D+00 0.5910000D-01 0.6633000D+03 0.1568000D+03
EXPONENTS  0.4998000D+02 0.1842000D+02 0.7240000D+01 0.2922000D+01 0.3818000D+00
EXPONENTS  0.6633000D+03 0.1568000D+03 0.4998000D+02 0.1842000D+02 0.7240000D+01
EXPONENTS  0.2922000D+01 0.3818000D+00 0.6633000D+03 0.1568000D+03 0.4998000D+02
EXPONENTS  0.1842000D+02 0.7240000D+01 0.2922000D+01 0.3818000D+00 0.6633000D+03
EXPONENTS  0.1568000D+03 0.4998000D+02 0.1842000D+02 0.7240000D+01 0.2922000D+01
EXPONENTS  0.3818000D+00 0.6633000D+03 0.1568000D+03 0.4998000D+02 0.1842000D+02
EXPONENTS  0.7240000D+01 0.2922000D+01 0.3818000D+00 0.6633000D+03 0.1568000D+03
EXPONENTS  0.4998000D+02 0.1842000D+02 0.7240000D+01 0.2922000D+01 0.3818000D+00
EXPONENTS  0.1022000D+01 0.1022000D+01 0.1022000D+01 0.1301000D+00 0.1301000D+00
EXPONENTS  0.1301000D+00 0.4190000D-01 0.4190000D-01 0.4190000D-01 0.1046000D+01
EXPONENTS  0.1046000D+01 0.1046000D+01 0.1046000D+01 0.1046000D+01 0.1046000D+01
EXPONENTS  0.3440000D+00 0.3440000D+00 0.3440000D+00 0.3440000D+00 0.3440000D+00
EXPONENTS  0.3440000D+00 0.1350000D+00 0.1350000D+00 0.1350000D+00 0.1350000D+00
EXPONENTS  0.1350000D+00 0.1350000D+00 0.7060000D+00 0.7060000D+00 0.7060000D+00
EXPONENTS  0.7060000D+00 0.7060000D+00 0.7060000D+00 0.7060000D+00 0.7060000D+00
EXPONENTS  0.7060000D+00 0.7060000D+00 0.3120000D+00 0.3120000D+00 0.3120000D+00
EXPONENTS  0.3120000D+00 0.3120000D+00 0.3120000D+00 0.3120000D+00 0.3120000D+00
EXPONENTS  0.3120000D+00 0.3120000D+00
MO    1     MO 0.0        OCC NO =    2.0000000  ORB. ENERGY = -100.709872
  0.10160016D-03  0.18940580D-03  0.32012917D-03  0.48125900D-03  0.59128229D-03
  0.49943241D-03  0.18836753D-03 -0.93224143D-06 -0.72318398D-04 -0.13540286D-03
 -0.23053495D-03 -0.35660252D-03 -0.46963297D-03 -0.48797874D-03 -0.31008858D-03
  0.20781416D-03  0.14468576D-03  0.79795834D-03  0.76440672D-05  0.36889047D-09
  0.34585827D-09  0.24627169D-09  0.61694734D-04  0.57842734D-04  0.41187473D-04
  0.36288822D-04  0.34023077D-04  0.24226458D-04 -0.11946354D-08 -0.14375763D-03
 -0.70084941D-03 -0.84225238D-09 -0.83830526D-04  0.13062765D-04  0.19734594D-11
 -0.81203137D-05 -0.44321073D-05  0.21175855D-04 -0.43803503D-04  0.22627648D-04
  0.86629522D-09 -0.10426191D-08  0.12909290D-03  0.66119086D-04 -0.24711602D-03
  0.18099693D-03  0.20421550D-09 -0.60599249D-09 -0.69351670D-03  0.85522052D-05
 -0.16146248D-04  0.75940428D-05  0.23184043D-09  0.14731729D-09  0.13488109D-03
  0.67607530D-09 -0.45119075D-04  0.18827937D-04 -0.16764945D-08 -0.10643871D-04
  0.49904933D-04 -0.35173137D-09  0.14600110D-03 -0.10638874D-03 -0.27292845D-11
  0.13584258D-09 -0.46722943D-04 -0.40142547D-04 -0.64443519D-09  0.63131300D-04
 -0.57015497D-04  0.23690744D-09  0.77037529D-04  0.17744314D-03  0.93676697D-10
  0.65953391D-04  0.12295212D-03  0.20781074D-03  0.31240761D-03  0.38382884D-03
  0.32420482D-03  0.12227813D-03 -0.60516128D-06 -0.50537687D-04 -0.94622495D-04
 -0.16110289D-03 -0.24920168D-03 -0.32818985D-03 -0.34101027D-03 -0.21669672D-03
  0.14522510D-03  0.10373169D-03 -0.59948472D-03  0.13553213D-03 -0.87483730D-09
 -0.82021558D-09 -0.58404236D-09 -0.14674819D-04 -0.13758575D-04 -0.97969253D-05
  0.87759472D-04  0.82280084D-04  0.58588321D-04  0.20930813D-08 -0.11791232D-03
 -0.74732306D-03 -0.12179377D-08 -0.49520430D-03 -0.16797982D-03 -0.26824302D-10
 -0.12171686D-04 -0.95002301D-05 -0.12507630D-03  0.10432664D-03  0.20749656D-04
  0.16891603D-08 -0.99429844D-09  0.13993844D-03  0.59860014D-04  0.14932646D-03
 -0.20918647D-03  0.82555722D-09  0.66314142D-09 -0.49756530D-03 -0.10482483D-04
  0.47757535D-04 -0.37275052D-04 -0.57222101D-09  0.69193589D-09  0.30320540D-03
 -0.38165702D-09  0.46797648D-04  0.21546482D-04  0.11781896D-08 -0.10187838D-03
  0.11729509D-04 -0.33218510D-10 -0.38514563D-04 -0.76368954D-04 -0.11182996D-08
  0.74189644D-11  0.23594948D-04 -0.10799854D-03 -0.73868398D-09 -0.38680390D-04
 -0.59820122D-04  0.71642708D-09 -0.32104454D-04  0.38381573D-03  0.83343440D-09
 -0.35033362D-05 -0.63184111D-05 -0.93164935D-05  0.60094305D-03 -0.88283490D-03
  0.23327820D-04 -0.94713335D-10 -0.60448163D-04 -0.55988959D-04 -0.51942586D-09
 -0.30155050D-03 -0.36978609D-03 -0.10487754D-09  0.10503269D-03  0.57892454D-04
 -0.75698084D-04  0.86265941D-05  0.67071490D-04  0.20615374D-09  0.32530223D-09
  0.15493591D-03 -0.24700168D-04  0.33079623D-04 -0.83794544D-05  0.23390629D-09
  0.24038566D-09  0.27604483D-04 -0.12206555D-04 -0.22015024D-04 -0.32461140D-04
 -0.50225522D-03  0.70177838D-03 -0.12574461D-04 -0.19741398D-08 -0.24409868D-04
 -0.32997454D-04  0.59404856D-08 -0.21425771D-04 -0.37286128D-04 -0.81260172D-09
  0.58328707D-04 -0.36507239D-04 -0.60074544D-04  0.35132437D-04  0.24942107D-04
  0.26231144D-08 -0.95750515D-09 -0.86396966D-04 -0.64558582D-05 -0.67163966D-05
  0.13172255D-04  0.12641019D-09 -0.29268420D-09 -0.23009948D-04  0.19836257D-04
  0.35775507D-04  0.52750964D-04  0.87140571D-04  0.13923591D-02  0.75055661D-06
 -0.44241637D-10  0.10936727D-04  0.11240294D-04  0.82741708D-09  0.30508937D-03
 -0.20745612D-03 -0.46557915D-09 -0.20322541D-03 -0.40858904D-04  0.12287902D-03
 -0.97961086D-04 -0.24917929D-04 -0.10983112D-08  0.11742885D-08  0.13078916D-03
  0.56538904D-04 -0.28387773D-04 -0.28151131D-04 -0.23047811D-09  0.87188766D-09
 -0.14175870D-04  0.61746391D+00  0.11552773D+01  0.19960633D+01  0.32358515D+01
  0.49138986D+01  0.68297412D+01  0.81195770D+01  0.72322946D+01  0.35903276D+01
  0.57845930D+00  0.88808912D-02  0.15870065D-02  0.59303958D-04 -0.13694625D-02
 -0.25579594D-02 -0.44394626D-02 -0.72034436D-02 -0.11150075D-01 -0.15960320D-01
 -0.20833203D-01 -0.22201254D-01 -0.16595888D-01 -0.87606743D-03  0.11257032D-01
  0.66879701D-02 -0.25074874D-04  0.60628591D-03  0.11315453D-02  0.19665261D-02
  0.31871604D-02  0.49501590D-02  0.70912457D-02  0.93633292D-02  0.10124536D-01
  0.79377677D-02  0.39498069D-03 -0.68046738D-02 -0.70440989D-02  0.31875544D-02
 -0.34410950D-02 -0.19479517D-02 -0.57743116D-03  0.63887192D-09  0.84153770D-09
  0.92841323D-09  0.77115390D-09  0.40957857D-09  0.10564226D-09 -0.10859665D-12
  0.85989062D-02  0.11326689D-01  0.12495992D-01  0.10379358D-01  0.55127289D-02
  0.14218936D-02 -0.14616583D-05  0.64479067D-02  0.84933402D-02  0.93701439D-02
  0.77829816D-02  0.41337306D-02  0.10662097D-02 -0.10960273D-05 -0.18730374D-09
 -0.24591608D-09 -0.27999355D-09 -0.23708704D-09 -0.13581259D-09 -0.30892651D-10
  0.14459461D-10 -0.74445981D-02 -0.97742115D-02 -0.11128659D-01 -0.94232913D-02
 -0.53980241D-02 -0.12278632D-02  0.57470755D-03 -0.56128228D-02 -0.73692249D-02
 -0.83904047D-02 -0.71046501D-02 -0.40698171D-02 -0.92574220D-03  0.43329830D-03
 -0.11665094D-09 -0.23508420D-03 -0.16332933D-03  0.12761183D-09 -0.59813171D-03
 -0.40542991D-03  0.10241128D-10 -0.21700347D-04 -0.15578942D-04 -0.19876940D-03
  0.14518873D-03  0.53580670D-04  0.88068037D-10 -0.74044103D-09  0.34935232D-03
  0.37770366D-04 -0.72473303D-05 -0.30523036D-04 -0.15890574D-09  0.50801945D-09
  0.61665996D-04  0.33489533D-04 -0.37884350D-04  0.43948171D-05  0.10398699D-09
  0.87316092D-11 -0.11143398D-03  0.12237558D-09  0.42820009D-05 -0.40933641D-04
 -0.38689048D-09 -0.65836946D-04 -0.62180739D-04  0.19763758D-10  0.52990944D-04
  0.18498166D-03 -0.42377264D-09 -0.53890674D-10 -0.93266172D-05 -0.93325623D-06
 -0.42848671D-10  0.54478440D-04  0.49399527D-04  0.20452069D-09 -0.26498589D-04
 -0.46599758D-04  0.33512959D-09
MO    2     MO 0.0        OCC NO =    2.0000000  ORB. ENERGY =   -9.953742
  0.26513141D-02  0.49426522D-02  0.83539530D-02  0.12558728D-01  0.15429848D-01
  0.13032973D-01  0.49155580D-02 -0.24327371D-04 -0.33628497D-03 -0.62963157D-03
 -0.10720016D-02 -0.16582235D-02 -0.21838220D-02 -0.22691310D-02 -0.14419309D-02
  0.96634853D-03  0.35190533D-02 -0.14064225D-01 -0.17196006D-02  0.16122638D-09
  0.15115998D-09  0.10763491D-09  0.10612261D-03  0.99496695D-04  0.70847574D-04
 -0.25419356D-02 -0.23832262D-02 -0.16969991D-02  0.61175517D-08 -0.85516502D-03
  0.44217078D-02 -0.11946363D-07  0.59768818D-03  0.20626623D-02 -0.21960713D-09
  0.76093083D-04  0.75537457D-04 -0.37786463D-04  0.10260804D-02 -0.98829389D-03
 -0.34884284D-08  0.17005786D-07  0.31707367D-03  0.21536825D-02  0.15266350D-02
 -0.36803175D-02 -0.83712768D-08  0.10663357D-07 -0.27456942D-02  0.16046379D-03
 -0.37695197D-04 -0.12276860D-03  0.23239655D-08  0.23585445D-08 -0.82665112D-04
  0.16009468D-08  0.86051148D-04  0.15236581D-02  0.11821556D-07  0.49994841D-03
 -0.19617227D-02 -0.16624396D-07 -0.75810185D-03 -0.26092515D-02 -0.67836176D-08
  0.32736364D-10 -0.45046259D-04  0.56561076D-03  0.50004288D-08  0.42963550D-04
 -0.16797708D-03 -0.50986379D-08  0.92175228D-04 -0.15288552D-02  0.89370154D-08
  0.32991519D+00  0.61503692D+00  0.10395207D+01  0.15627402D+01  0.19200069D+01
  0.16217527D+01  0.61166546D+00 -0.30271665D-02 -0.35219174D-02 -0.65941405D-02
 -0.11227088D-01 -0.17366599D-01 -0.22871200D-01 -0.23764641D-01 -0.15101363D-01
  0.10120582D-01  0.37884603D-01  0.39728271D-02  0.43443686D-03 -0.41754303D-08
 -0.39147313D-08 -0.27875219D-08 -0.26741840D-02 -0.25072175D-02 -0.17852882D-02
 -0.21663457D-02 -0.20310868D-02 -0.14462548D-02  0.67428195D-08  0.46068131D-02
  0.63922561D-02  0.33874766D-08 -0.10288741D-03  0.30618420D-02 -0.16403948D-09
 -0.42000881D-04  0.11897789D-03 -0.48040729D-02  0.11731038D-02  0.36309691D-02
  0.31092524D-07 -0.44652637D-07 -0.25973628D-02  0.61317787D-03 -0.14654770D-02
  0.85229909D-03  0.10625331D-07 -0.44235972D-08 -0.45243648D-02  0.34630763D-04
 -0.15293796D-03  0.11830720D-03 -0.26823350D-08  0.14518187D-08 -0.65987168D-04
 -0.20006419D-08  0.26825335D-03  0.11519888D-02  0.13788945D-07 -0.16613811D-02
 -0.70243585D-03 -0.77870194D-08  0.85662107D-03 -0.27535307D-02 -0.24876718D-07
 -0.58787743D-09  0.21748917D-03 -0.35633664D-03 -0.83473755D-09 -0.36640265D-04
  0.78225363D-04  0.25983698D-08 -0.61582725D-03  0.99078456D-03  0.12737032D-07
  0.12467296D-03  0.22485282D-03  0.33154535D-03  0.51100491D-02  0.99215944D-03
 -0.12724131D-03  0.34320468D-08 -0.43162656D-03 -0.74290831D-03 -0.22416414D-07
 -0.18674403D-02  0.96177970D-03 -0.41716987D-08 -0.60097461D-04  0.94843332D-04
  0.24128711D-03  0.56745651D-03 -0.80874362D-03  0.11751525D-07  0.71161653D-08
 -0.19708393D-03  0.18420760D-03  0.17488830D-03 -0.35909590D-03  0.16757530D-08
  0.73696119D-09 -0.16670311D-03  0.12480833D-03  0.22509696D-03  0.33190534D-03
  0.11740203D-02  0.17210380D-02  0.10619542D-03 -0.13282856D-08  0.27783140D-03
 -0.10538762D-02 -0.83982103D-08 -0.74426391D-03  0.20108227D-02 -0.26781959D-08
  0.43162520D-04  0.57990614D-05  0.49546940D-03 -0.19227694D-03 -0.30319246D-03
  0.27561040D-08  0.83433632D-08  0.69248300D-03  0.30126848D-03  0.40958619D-04
 -0.34222710D-03  0.22385775D-08 -0.40956866D-09  0.42834563D-03  0.17339338D-03
  0.31272210D-03  0.46110856D-03 -0.26169052D-02  0.98139939D-03  0.14335494D-03
  0.83919137D-08  0.16005641D-02 -0.92629023D-03  0.15101628D-07  0.37773091D-02
 -0.23211822D-02  0.18944546D-08  0.28511546D-03  0.88618321D-04  0.19186101D-02
 -0.22240771D-02  0.30546696D-03 -0.37458839D-07  0.21167511D-07  0.54901335D-02
  0.36617314D-03 -0.39328605D-03  0.27112910D-04 -0.50750491D-08  0.17157593D-08
  0.44993354D-03  0.74092238D-04  0.13862686D-03  0.23951651D-03  0.38828419D-03
  0.58964052D-03  0.81953099D-03  0.97430412D-03  0.86783517D-03  0.43081936D-03
  0.69411902D-04  0.10656576D-05  0.19043196D-06  0.71161454D-08 -0.10914773D-03
 -0.20387228D-03 -0.35383023D-03 -0.57412266D-03 -0.88867370D-03 -0.12720557D-02
 -0.16604300D-02 -0.17694652D-02 -0.13227112D-02 -0.69823573D-04  0.89719825D-03
  0.53303884D-03 -0.19984960D-05  0.39641005D-04  0.73984223D-04  0.12857807D-03
  0.20838722D-03  0.32365798D-03  0.46364940D-03  0.61220583D-03  0.66197611D-03
  0.51899785D-03  0.25825161D-04 -0.44491238D-03 -0.46056679D-03  0.20841299D-03
 -0.11920021D-02  0.39008764D-02  0.11704131D-02 -0.55628978D-07 -0.73275848D-07
 -0.80840426D-07 -0.67147266D-07 -0.35663544D-07 -0.91986684D-08  0.94559184D-11
  0.40413278D-01  0.53233357D-01  0.58728863D-01  0.48781072D-01  0.25908812D-01
  0.66826384D-02 -0.68695251D-05  0.37846631D-01  0.49852506D-01  0.54998993D-01
  0.45682986D-01  0.24263344D-01  0.62582241D-02 -0.64332416D-05  0.48866000D-07
  0.64157475D-07  0.73048006D-07  0.61854051D-07  0.35432382D-07  0.80596376D-08
 -0.37723540D-08 -0.36401289D-01 -0.47792223D-01 -0.54414962D-01 -0.46076355D-01
 -0.26394310D-01 -0.60037899D-02  0.28101041D-02 -0.34068171D-01 -0.44729011D-01
 -0.50927270D-01 -0.43123120D-01 -0.24702584D-01 -0.56189807D-02  0.26299922D-02
  0.32426068D-08 -0.18737657D-02 -0.17504589D-02 -0.33921781D-08  0.12145829D-02
  0.11614158D-02 -0.35729527D-10  0.45739733D-04  0.29877807D-04 -0.29194052D-03
  0.19802282D-03  0.93917696D-04  0.51026318D-08 -0.20179477D-08 -0.17193194D-03
 -0.54429049D-03  0.36527918D-03  0.17901131D-03 -0.57133247D-08 -0.80508134D-10
  0.24374902D-02 -0.10421162D-03  0.63642898D-04  0.40568719D-04 -0.74436911D-09
 -0.10709334D-08  0.22561447D-03  0.45302969D-09 -0.46173511D-04 -0.92855613D-04
 -0.40093990D-10 -0.30527078D-03 -0.28174040D-03 -0.13189951D-08  0.44379132D-03
  0.56030724D-03  0.27948750D-08  0.12664127D-09 -0.44126594D-04 -0.99576023D-04
 -0.17567341D-08 -0.11546935D-03 -0.10535840D-03  0.13768103D-08  0.24784914D-03
  0.40408647D-03 -0.20070973D-08
MO    3     MO 0.0        OCC NO =    2.0000000  ORB. ENERGY =   -9.900934
  0.33016266D+00  0.61549826D+00  0.10403005D+01  0.15639124D+01  0.19214471D+01
  0.16229692D+01  0.61212428D+00 -0.30294372D-02 -0.37427399D-02 -0.70075899D-02
 -0.11931021D-01 -0.18455476D-01 -0.24305213D-01 -0.25254673D-01 -0.16048211D-01
  0.10755138D-01  0.37390635D-01  0.89640846D-02  0.52684564D-04 -0.33830489D-08
 -0.31718233D-08 -0.22585272D-08  0.59128927D-05  0.55437128D-05  0.39474537D-05
  0.12106682D-03  0.11350784D-03  0.80824344D-04  0.48078307D-07  0.21180270D-03
 -0.26195306D-02 -0.10556451D-07 -0.13232016D-03 -0.52187969D-02 -0.52560573D-09
 -0.68466753D-05 -0.55185753D-04 -0.58744597D-02  0.26683808D-02  0.32060789D-02
 -0.28040767D-07  0.26159924D-07 -0.27934123D-03  0.61579857D-04 -0.46629820D-03
  0.40471835D-03 -0.65187278D-08 -0.12876656D-07 -0.10922444D-03  0.55087762D-04
 -0.45747333D-03  0.40238556D-03  0.29474269D-08  0.34528408D-08 -0.41519265D-03
 -0.13817139D-07 -0.12911895D-03 -0.17197543D-02  0.26933327D-07 -0.32773819D-04
 -0.31687492D-03  0.14518090D-07  0.42013067D-03  0.54761378D-02 -0.22512729D-07
  0.11562206D-08 -0.13836576D-04  0.49647533D-03 -0.70387478D-08  0.62608465D-06
  0.13424892D-03  0.35700859D-08  0.40883643D-04 -0.16236749D-02  0.12550039D-07
 -0.19190492D-02 -0.35775441D-02 -0.60466798D-02 -0.90901404D-02 -0.11168288D-01
 -0.94334044D-02 -0.35579330D-02  0.17608409D-04 -0.32376938D-03 -0.60619843D-03
 -0.10321047D-02 -0.15965090D-02 -0.21025462D-02 -0.21846802D-02 -0.13882662D-02
  0.93038372D-03  0.29307760D-02 -0.17488723D-01 -0.89381971D-03  0.56184805D-08
  0.52676826D-08  0.37509038D-08  0.23752076D-03  0.22269081D-03  0.15856912D-03
  0.21251141D-02  0.19924296D-02  0.14187285D-02 -0.13655752D-07 -0.10138907D-02
 -0.27673763D-02  0.27171675D-07 -0.24999138D-03 -0.44221824D-02  0.74086788D-09
  0.15026050D-04 -0.21704387D-04  0.18242333D-03  0.99689117D-03 -0.11793145D-02
 -0.32444365D-08 -0.20944915D-09  0.61385247D-03  0.21997227D-02  0.56875873D-03
 -0.27684815D-02  0.31494299D-08  0.20086708D-08  0.83868356D-03  0.89392168D-04
  0.23140549D-03 -0.32079765D-03 -0.17954703D-08  0.36845906D-08 -0.95575544D-04
  0.18978641D-08 -0.98814718D-04 -0.17023223D-02 -0.92560056D-08  0.16679174D-03
  0.18374516D-02  0.35624132D-08  0.12965241D-03  0.32695154D-02 -0.18519216D-08
 -0.22814540D-08 -0.33026155D-05 -0.33174547D-03  0.64830210D-08  0.11116252D-04
  0.30034112D-03  0.36134107D-09 -0.12084057D-05  0.69489529D-03  0.13467505D-07
  0.18010593D-03  0.32482847D-03  0.47895939D-03  0.49914121D-03  0.45619959D-02
  0.48071577D-04  0.62173595D-08  0.19054804D-02  0.92261003D-03 -0.24819623D-08
  0.27015453D-02  0.16795612D-02 -0.57390070D-08  0.41234409D-04 -0.38743277D-03
  0.20456225D-02 -0.23556964D-02  0.31007387D-03 -0.11939734D-07 -0.10283950D-07
 -0.52035796D-02  0.39537272D-03 -0.33159420D-03 -0.63778518D-04  0.92445404D-09
 -0.49015793D-08 -0.29424929D-03  0.19530750D-03  0.35224512D-03  0.51938522D-03
  0.30446759D-03  0.10822252D-02  0.48518569D-04  0.99724052D-08 -0.19703705D-02
  0.86351377D-03  0.12631239D-07 -0.25467557D-02  0.19189565D-02  0.32000481D-09
 -0.41568359D-03 -0.43330255D-03  0.20608676D-02 -0.23464864D-02  0.28561880D-03
  0.47528450D-07 -0.30391260D-07  0.52449621D-02  0.37355626D-03 -0.26403437D-03
 -0.10952189D-03  0.58178526D-08 -0.42972235D-08  0.29172422D-03  0.10387773D-03
  0.18734776D-03  0.27624416D-03  0.37559814D-02 -0.10847401D-02 -0.58748345D-05
  0.32777659D-08 -0.58018197D-03  0.98988890D-03 -0.18620673D-07 -0.14105596D-02
 -0.21354132D-03  0.12782844D-08 -0.48757229D-04 -0.34613500D-03  0.72728992D-04
  0.28248389D-03 -0.35521288D-03  0.52133601D-08 -0.10452991D-07 -0.48527908D-03
  0.14285373D-03  0.15750298D-03 -0.30035671D-03  0.61243802D-09 -0.25511505D-08
  0.18256008D-03  0.16229013D-03  0.30364546D-03  0.52463208D-03  0.85048980D-03
  0.12915366D-02  0.17950840D-02  0.21340959D-02  0.19008885D-02  0.94365797D-03
  0.15203842D-03  0.23341947D-05  0.41711830D-06  0.15587060D-07 -0.28109707D-03
 -0.52504896D-03 -0.91124793D-03 -0.14785851D-02 -0.22886741D-02 -0.32760290D-02
 -0.42762412D-02 -0.45570485D-02 -0.34064863D-02 -0.17982236D-03  0.23106281D-02
  0.13727785D-02 -0.51468903D-05  0.14981723D-03  0.27961227D-03  0.48594152D-03
  0.78756824D-03  0.12232168D-02  0.17522934D-02  0.23137401D-02  0.25018394D-02
  0.19614745D-02  0.97602322D-04 -0.16814796D-02 -0.17406431D-02  0.78766561D-03
 -0.48542572D-03  0.50096214D-03  0.33606485D-03 -0.13362936D-06 -0.17601986D-06
 -0.19419114D-06 -0.16129806D-06 -0.85669319D-07 -0.22096616D-07  0.22714570D-10
  0.13457049D-01  0.17725953D-01  0.19555879D-01  0.16243405D-01  0.86272672D-02
  0.22252239D-02 -0.22874545D-05  0.10447230D-01  0.13761347D-01  0.15181990D-01
  0.12610387D-01  0.66976831D-02  0.17275278D-02 -0.17758399D-05  0.11586057D-06
  0.15211644D-06  0.17319576D-06  0.14665506D-06  0.84009662D-07  0.19109284D-07
 -0.89441964D-08 -0.12239057D-01 -0.16068985D-01 -0.18295722D-01 -0.15492066D-01
 -0.88744518D-02 -0.20186299D-02  0.94482988D-03 -0.97292299D-02 -0.12773766D-01
 -0.14543872D-01 -0.12315153D-01 -0.70545940D-02 -0.16046754D-02  0.75107640D-03
  0.87941509D-08 -0.54529391D-03 -0.23061703D-03 -0.57096966D-08  0.37797591D-03
 -0.29752571D-05 -0.23226517D-09  0.20560109D-04 -0.15163162D-05 -0.29542512D-03
 -0.13668329D-03  0.43210841D-03  0.87946791D-08  0.26336095D-08  0.14167486D-03
 -0.23746295D-04  0.26949468D-03 -0.24574838D-03 -0.94166721D-08 -0.50428760D-08
  0.43332679D-03 -0.29785683D-04  0.54572662D-04 -0.24786979D-04 -0.15314678D-08
 -0.21621838D-08  0.50864833D-05 -0.39779219D-09 -0.43056861D-05  0.24278459D-04
  0.13884295D-08 -0.21234024D-03 -0.17362314D-03 -0.19505292D-09  0.22525730D-03
  0.10078777D-03  0.44291314D-08  0.86017475D-09  0.56877351D-04 -0.88238835D-04
 -0.21627905D-08  0.29602314D-04  0.91552046D-04 -0.41773377D-09 -0.20023437D-03
  0.17316446D-03 -0.51661731D-08
MO    4     MO 0.0        OCC NO =    2.0000000  ORB. ENERGY =   -9.192758
 -0.84326628D-04 -0.15720401D-03 -0.26570247D-03 -0.39943784D-03 -0.49075554D-03
 -0.41452150D-03 -0.15634226D-03  0.77374657D-06  0.63190317D-04  0.11831221D-03
  0.20143666D-03  0.31159189D-03  0.41035556D-03  0.42638571D-03  0.27094898D-03
 -0.18158370D-03 -0.23037579D-03 -0.22672324D-02  0.15538261D-03  0.28528961D-09
  0.26747714D-09  0.19045966D-09 -0.10017408D-03 -0.93919564D-04 -0.66876324D-04
 -0.79636315D-04 -0.74664108D-04 -0.53165293D-04  0.53028640D-09  0.24223509D-03
  0.79815130D-03  0.22410856D-08  0.50114931D-05  0.39479578D-03  0.18367659D-10
  0.20221050D-04  0.73720482D-05 -0.78464518D-04  0.55470297D-04  0.22994221D-04
 -0.50214665D-09  0.93002807D-09 -0.13168347D-03 -0.74639025D-04  0.24482517D-03
 -0.17018615D-03  0.80747389D-10  0.15363979D-09  0.11286382D-02 -0.33069295D-04
  0.58846876D-04 -0.25777581D-04 -0.77805966D-09 -0.25614618D-09 -0.30191575D-03
 -0.60337250D-09  0.61895091D-04 -0.29141499D-04  0.12172679D-08 -0.75126299D-05
 -0.87757121D-04  0.59284960D-09 -0.17817264D-03  0.17518162D-03  0.62160709D-09
 -0.16588261D-09  0.72150634D-04  0.32471318D-04  0.67355001D-09 -0.10134424D-03
  0.60359761D-04 -0.17590219D-09 -0.11510766D-03 -0.15777372D-03 -0.48818347D-09
 -0.75612514D-04 -0.14095892D-03 -0.23824540D-03 -0.35816088D-03 -0.44004202D-03
 -0.37168584D-03 -0.14018622D-03  0.69378944D-06  0.46116808D-04  0.86345215D-04
  0.14701012D-03  0.22740230D-03  0.29948082D-03  0.31117976D-03  0.19774077D-03
 -0.13252126D-03 -0.23307521D-03  0.14478054D-02 -0.42645710D-03  0.12731329D-08
  0.11936430D-08  0.84994492D-09  0.36445226D-04  0.34169716D-04  0.24330873D-04
 -0.45225412D-04 -0.42401699D-04 -0.30192535D-04 -0.22251622D-08  0.13223363D-03
  0.59540613D-03  0.13772802D-08  0.10998448D-02  0.92245383D-03  0.69610518D-10
  0.16197709D-04  0.99615203D-05  0.50120122D-04 -0.58650594D-06 -0.49533616D-04
 -0.14034212D-08  0.14598320D-08  0.57786838D-04 -0.11691666D-03 -0.13731174D-03
  0.25422840D-03 -0.11385081D-08 -0.15701836D-08  0.78727001D-03  0.41014270D-04
 -0.15227604D-03  0.11126177D-03  0.12716095D-08 -0.16571855D-08 -0.70607416D-03
  0.20445457D-09 -0.72840041D-04 -0.63440482D-04 -0.15729489D-08  0.14117613D-03
  0.37342620D-04  0.95958523D-09  0.77343991D-04  0.15297883D-03  0.91845174D-09
  0.67804009D-10 -0.64081413D-04  0.14658822D-03  0.96546517D-09  0.65055493D-04
  0.51198597D-04 -0.11688772D-08  0.12718875D-03 -0.49096325D-03 -0.16772278D-08
  0.23874033D-05  0.43057802D-05  0.63488704D-05 -0.10379401D-02  0.19215975D-02
 -0.48796641D-04  0.40454994D-09  0.12487532D-03  0.98856330D-04  0.15833408D-08