 Molden2AIM, Version 4.0.0 (06/02/2016)           Time: Fri Jun 29 04:28:50 2018
GAUSSIAN             25 MOL ORBITALS    521 PRIMITIVES        7 NUCLEI
  C    1    (CENTRE  1)  -0.01093018 -0.00000378 -0.17302710  CHARGE =  6.0
  Se   2    (CENTRE  2)   0.17952776  0.00000000  3.14565700  CHARGE = 34.0
  H    3    (CENTRE  3)   1.76078066  0.00000378 -1.25305283  CHARGE =  1.0
  C    4    (CENTRE  4)  -2.35885630  0.00000000 -1.70638679  CHARGE =  6.0
  H    5    (CENTRE  5)  -4.06019185  0.00000189 -0.52807452  CHARGE =  1.0
  H    6    (CENTRE  6)  -2.37338263  1.66296844 -2.96310757  CHARGE =  1.0
  H    7    (CENTRE  7)  -2.37338641 -1.66297033 -2.96310568  CHARGE =  1.0
CENTRE ASSIGNMENTS    1  1  1  1  1  1  1  1  1  1  1  1  1  1  1  1  1  1  1  1
CENTRE ASSIGNMENTS    1  1  1  1  1  1  1  1  1  1  1  1  1  1  1  1  1  1  1  1
CENTRE ASSIGNMENTS    1  1  1  1  1  1  1  1  1  1  1  1  1  1  1  1  1  1  1  1
CENTRE ASSIGNMENTS    1  1  1  1  1  1  1  1  1  1  1  1  1  1  1  2  2  2  2  2
CENTRE ASSIGNMENTS    2  2  2  2  2  2  2  2  2  2  2  2  2  2  2  2  2  2  2  2
CENTRE ASSIGNMENTS    2  2  2  2  2  2  2  2  2  2  2  2  2  2  2  2  2  2  2  2
CENTRE ASSIGNMENTS    2  2  2  2  2  2  2  2  2  2  2  2  2  2  2  2  2  2  2  2
CENTRE ASSIGNMENTS    2  2  2  2  2  2  2  2  2  2  2  2  2  2  2  2  2  2  2  2
CENTRE ASSIGNMENTS    2  2  2  2  2  2  2  2  2  2  2  2  2  2  2  2  2  2  2  2
CENTRE ASSIGNMENTS    2  2  2  2  2  2  2  2  2  2  2  2  2  2  2  2  2  2  2  2
CENTRE ASSIGNMENTS    2  2  2  2  2  2  2  2  2  2  2  2  2  2  2  2  2  2  2  2
CENTRE ASSIGNMENTS    2  2  2  2  2  2  2  2  2  2  2  2  2  2  2  2  2  2  2  2
CENTRE ASSIGNMENTS    2  2  2  2  2  2  2  2  2  2  2  2  2  2  2  2  2  2  2  2
CENTRE ASSIGNMENTS    2  2  2  2  2  2  2  2  2  2  2  2  2  2  2  2  2  2  2  2
CENTRE ASSIGNMENTS    2  2  2  2  2  2  2  2  2  2  2  2  2  2  2  2  2  2  2  2
CENTRE ASSIGNMENTS    2  2  2  2  2  2  2  2  2  2  2  2  2  2  2  2  2  2  2  2
CENTRE ASSIGNMENTS    2  2  2  2  2  2  2  2  2  2  2  2  2  2  2  2  2  2  3  3
CENTRE ASSIGNMENTS    3  3  3  3  3  3  3  3  3  3  3  3  3  3  3  3  3  3  3  3
CENTRE ASSIGNMENTS    3  3  3  3  3  4  4  4  4  4  4  4  4  4  4  4  4  4  4  4
CENTRE ASSIGNMENTS    4  4  4  4  4  4  4  4  4  4  4  4  4  4  4  4  4  4  4  4
CENTRE ASSIGNMENTS    4  4  4  4  4  4  4  4  4  4  4  4  4  4  4  4  4  4  4  4
CENTRE ASSIGNMENTS    4  4  4  4  4  4  4  4  4  4  4  4  4  4  4  4  4  4  4  4
CENTRE ASSIGNMENTS    5  5  5  5  5  5  5  5  5  5  5  5  5  5  5  5  5  5  5  5
CENTRE ASSIGNMENTS    5  5  5  5  5  5  5  6  6  6  6  6  6  6  6  6  6  6  6  6
CENTRE ASSIGNMENTS    6  6  6  6  6  6  6  6  6  6  6  6  6  6  7  7  7  7  7  7
CENTRE ASSIGNMENTS    7  7  7  7  7  7  7  7  7  7  7  7  7  7  7  7  7  7  7  7
CENTRE ASSIGNMENTS    7
TYPE ASSIGNMENTS      1  1  1  1  1  1  1  1  1  1  1  1  1  1  1  1  1  1  1  2
TYPE ASSIGNMENTS      2  2  3  3  3  4  4  4  2  3  4  2  3  4  2  3  4  5  6  7
TYPE ASSIGNMENTS      8  9 10  5  6  7  8  9 10  5  6  7  8  9 10 11 12 13 17 14
TYPE ASSIGNMENTS     15 18 19 16 20 11 12 13 17 14 15 18 19 16 20  1  1  1  1  1
TYPE ASSIGNMENTS      1  1  1  1  1  1  1  1  1  1  1  1  1  1  1  1  1  1  1  1
TYPE ASSIGNMENTS      1  1  1  1  1  1  1  1  1  1  1  1  1  1  1  1  1  1  1  1
TYPE ASSIGNMENTS      1  1  1  1  1  1  1  1  1  1  1  1  1  1  1  1  1  1  1  1
TYPE ASSIGNMENTS      1  1  1  1  1  1  1  1  1  1  2  2  2  2  2  2  2  2  2  2
TYPE ASSIGNMENTS      2  3  3  3  3  3  3  3  3  3  3  3  4  4  4  4  4  4  4  4
TYPE ASSIGNMENTS      4  4  4  2  2  2  2  2  2  2  2  2  2  2  3  3  3  3  3  3
TYPE ASSIGNMENTS      3  3  3  3  3  4  4  4  4  4  4  4  4  4  4  4  2  2  2  2
TYPE ASSIGNMENTS      2  2  2  2  2  2  2  3  3  3  3  3  3  3  3  3  3  3  4  4
TYPE ASSIGNMENTS      4  4  4  4  4  4  4  4  4  2  3  4  2  3  4  2  3  4  5  5
TYPE ASSIGNMENTS      5  5  5  5  5  6  6  6  6  6  6  6  7  7  7  7  7  7  7  8
TYPE ASSIGNMENTS      8  8  8  8  8  8  9  9  9  9  9  9  9 10 10 10 10 10 10 10
TYPE ASSIGNMENTS      5  6  7  8  9 10  5  6  7  8  9 10  5  6  7  8  9 10 11 12
TYPE ASSIGNMENTS     13 17 14 15 18 19 16 20 11 12 13 17 14 15 18 19 16 20  1  1
TYPE ASSIGNMENTS      1  1  1  1  2  3  4  2  3  4  2  3  4  5  6  7  8  9 10  5
TYPE ASSIGNMENTS      6  7  8  9 10  1  1  1  1  1  1  1  1  1  1  1  1  1  1  1
TYPE ASSIGNMENTS      1  1  1  1  2  2  2  3  3  3  4  4  4  2  3  4  2  3  4  2
TYPE ASSIGNMENTS      3  4  5  6  7  8  9 10  5  6  7  8  9 10  5  6  7  8  9 10
TYPE ASSIGNMENTS     11 12 13 17 14 15 18 19 16 20 11 12 13 17 14 15 18 19 16 20
TYPE ASSIGNMENTS      1  1  1  1  1  1  2  3  4  2  3  4  2  3  4  5  6  7  8  9
TYPE ASSIGNMENTS     10  5  6  7  8  9 10  1  1  1  1  1  1  2  3  4  2  3  4  2
TYPE ASSIGNMENTS      3  4  5  6  7  8  9 10  5  6  7  8  9 10  1  1  1  1  1  1
TYPE ASSIGNMENTS      2  3  4  2  3  4  2  3  4  5  6  7  8  9 10  5  6  7  8  9
TYPE ASSIGNMENTS     10
EXPONENTS  0.8236000D+04 0.1235000D+04 0.2808000D+03 0.7927000D+02 0.2559000D+02
EXPONENTS  0.8997000D+01 0.3319000D+01 0.3643000D+00 0.8236000D+04 0.1235000D+04
EXPONENTS  0.2808000D+03 0.7927000D+02 0.2559000D+02 0.8997000D+01 0.3319000D+01
EXPONENTS  0.3643000D+00 0.9059000D+00 0.1285000D+00 0.4402000D-01 0.1871000D+02
EXPONENTS  0.4133000D+01 0.1200000D+01 0.1871000D+02 0.4133000D+01 0.1200000D+01
EXPONENTS  0.1871000D+02 0.4133000D+01 0.1200000D+01 0.3827000D+00 0.3827000D+00
EXPONENTS  0.3827000D+00 0.1209000D+00 0.1209000D+00 0.1209000D+00 0.3569000D-01
EXPONENTS  0.3569000D-01 0.3569000D-01 0.1097000D+01 0.1097000D+01 0.1097000D+01
EXPONENTS  0.1097000D+01 0.1097000D+01 0.1097000D+01 0.3180000D+00 0.3180000D+00
EXPONENTS  0.3180000D+00 0.3180000D+00 0.3180000D+00 0.3180000D+00 0.1000000D+00
EXPONENTS  0.1000000D+00 0.1000000D+00 0.1000000D+00 0.1000000D+00 0.1000000D+00
EXPONENTS  0.7610000D+00 0.7610000D+00 0.7610000D+00 0.7610000D+00 0.7610000D+00
EXPONENTS  0.7610000D+00 0.7610000D+00 0.7610000D+00 0.7610000D+00 0.7610000D+00
EXPONENTS  0.2680000D+00 0.2680000D+00 0.2680000D+00 0.2680000D+00 0.2680000D+00
EXPONENTS  0.2680000D+00 0.2680000D+00 0.2680000D+00 0.2680000D+00 0.2680000D+00
EXPONENTS  0.9563600D+07 0.1432100D+07 0.3259100D+06 0.9231200D+05 0.3011600D+05
EXPONENTS  0.1087200D+05 0.4240100D+04 0.1758400D+04 0.7665900D+03 0.3484300D+03
EXPONENTS  0.1640300D+03 0.7914200D+02 0.3552400D+02 0.1730500D+02 0.8378400D+01
EXPONENTS  0.3740500D+01 0.1689000D+01 0.2552000D+00 0.9563600D+07 0.1432100D+07
EXPONENTS  0.3259100D+06 0.9231200D+05 0.3011600D+05 0.1087200D+05 0.4240100D+04
EXPONENTS  0.1758400D+04 0.7665900D+03 0.3484300D+03 0.1640300D+03 0.7914200D+02
EXPONENTS  0.3552400D+02 0.1730500D+02 0.8378400D+01 0.3740500D+01 0.1689000D+01
EXPONENTS  0.2552000D+00 0.9563600D+07 0.1432100D+07 0.3259100D+06 0.9231200D+05
EXPONENTS  0.3011600D+05 0.1087200D+05 0.4240100D+04 0.1758400D+04 0.7665900D+03
EXPONENTS  0.3484300D+03 0.1640300D+03 0.7914200D+02 0.3552400D+02 0.1730500D+02
EXPONENTS  0.8378400D+01 0.3740500D+01 0.1689000D+01 0.2552000D+00 0.9563600D+07
EXPONENTS  0.1432100D+07 0.3259100D+06 0.9231200D+05 0.3011600D+05 0.1087200D+05
EXPONENTS  0.4240100D+04 0.1758400D+04 0.7665900D+03 0.3484300D+03 0.1640300D+03
EXPONENTS  0.7914200D+02 0.3552400D+02 0.1730500D+02 0.8378400D+01 0.3740500D+01
EXPONENTS  0.1689000D+01 0.2552000D+00 0.5092700D+00 0.1065100D+00 0.3920100D-01
EXPONENTS  0.8004300D+04 0.1896900D+04 0.6147100D+03 0.2335000D+03 0.9785600D+02
EXPONENTS  0.4351400D+02 0.2006300D+02 0.9112700D+01 0.4106300D+01 0.1794900D+01
EXPONENTS  0.2461500D+00 0.8004300D+04 0.1896900D+04 0.6147100D+03 0.2335000D+03
EXPONENTS  0.9785600D+02 0.4351400D+02 0.2006300D+02 0.9112700D+01 0.4106300D+01
EXPONENTS  0.1794900D+01 0.2461500D+00 0.8004300D+04 0.1896900D+04 0.6147100D+03
EXPONENTS  0.2335000D+03 0.9785600D+02 0.4351400D+02 0.2006300D+02 0.9112700D+01
EXPONENTS  0.4106300D+01 0.1794900D+01 0.2461500D+00 0.8004300D+04 0.1896900D+04
EXPONENTS  0.6147100D+03 0.2335000D+03 0.9785600D+02 0.4351400D+02 0.2006300D+02
EXPONENTS  0.9112700D+01 0.4106300D+01 0.1794900D+01 0.2461500D+00 0.8004300D+04
EXPONENTS  0.1896900D+04 0.6147100D+03 0.2335000D+03 0.9785600D+02 0.4351400D+02
EXPONENTS  0.2006300D+02 0.9112700D+01 0.4106300D+01 0.1794900D+01 0.2461500D+00
EXPONENTS  0.8004300D+04 0.1896900D+04 0.6147100D+03 0.2335000D+03 0.9785600D+02
EXPONENTS  0.4351400D+02 0.2006300D+02 0.9112700D+01 0.4106300D+01 0.1794900D+01
EXPONENTS  0.2461500D+00 0.8004300D+04 0.1896900D+04 0.6147100D+03 0.2335000D+03
EXPONENTS  0.9785600D+02 0.4351400D+02 0.2006300D+02 0.9112700D+01 0.4106300D+01
EXPONENTS  0.1794900D+01 0.2461500D+00 0.8004300D+04 0.1896900D+04 0.6147100D+03
EXPONENTS  0.2335000D+03 0.9785600D+02 0.4351400D+02 0.2006300D+02 0.9112700D+01
EXPONENTS  0.4106300D+01 0.1794900D+01 0.2461500D+00 0.8004300D+04 0.1896900D+04
EXPONENTS  0.6147100D+03 0.2335000D+03 0.9785600D+02 0.4351400D+02 0.2006300D+02
EXPONENTS  0.9112700D+01 0.4106300D+01 0.1794900D+01 0.2461500D+00 0.6243200D+00
EXPONENTS  0.6243200D+00 0.6243200D+00 0.8891700D-01 0.8891700D-01 0.8891700D-01
EXPONENTS  0.3025100D-01 0.3025100D-01 0.3025100D-01 0.3618500D+03 0.1085500D+03
EXPONENTS  0.4143300D+02 0.1757900D+02 0.7862700D+01 0.3518000D+01 0.1534800D+01
EXPONENTS  0.3618500D+03 0.1085500D+03 0.4143300D+02 0.1757900D+02 0.7862700D+01
EXPONENTS  0.3518000D+01 0.1534800D+01 0.3618500D+03 0.1085500D+03 0.4143300D+02
EXPONENTS  0.1757900D+02 0.7862700D+01 0.3518000D+01 0.1534800D+01 0.3618500D+03
EXPONENTS  0.1085500D+03 0.4143300D+02 0.1757900D+02 0.7862700D+01 0.3518000D+01
EXPONENTS  0.1534800D+01 0.3618500D+03 0.1085500D+03 0.4143300D+02 0.1757900D+02
EXPONENTS  0.7862700D+01 0.3518000D+01 0.1534800D+01 0.3618500D+03 0.1085500D+03
EXPONENTS  0.4143300D+02 0.1757900D+02 0.7862700D+01 0.3518000D+01 0.1534800D+01
EXPONENTS  0.6081300D+00 0.6081300D+00 0.6081300D+00 0.6081300D+00 0.6081300D+00
EXPONENTS  0.6081300D+00 0.2220000D+00 0.2220000D+00 0.2220000D+00 0.2220000D+00
EXPONENTS  0.2220000D+00 0.2220000D+00 0.8370000D-01 0.8370000D-01 0.8370000D-01
EXPONENTS  0.8370000D-01 0.8370000D-01 0.8370000D-01 0.4620000D+00 0.4620000D+00
EXPONENTS  0.4620000D+00 0.4620000D+00 0.4620000D+00 0.4620000D+00 0.4620000D+00
EXPONENTS  0.4620000D+00 0.4620000D+00 0.4620000D+00 0.1880000D+00 0.1880000D+00
EXPONENTS  0.1880000D+00 0.1880000D+00 0.1880000D+00 0.1880000D+00 0.1880000D+00
EXPONENTS  0.1880000D+00 0.1880000D+00 0.1880000D+00 0.3387000D+02 0.5095000D+01
EXPONENTS  0.1159000D+01 0.3258000D+00 0.1027000D+00 0.2526000D-01 0.1407000D+01
EXPONENTS  0.1407000D+01 0.1407000D+01 0.3880000D+00 0.3880000D+00 0.3880000D+00
EXPONENTS  0.1020000D+00 0.1020000D+00 0.1020000D+00 0.1057000D+01 0.1057000D+01
EXPONENTS  0.1057000D+01 0.1057000D+01 0.1057000D+01 0.1057000D+01 0.2470000D+00
EXPONENTS  0.2470000D+00 0.2470000D+00 0.2470000D+00 0.2470000D+00 0.2470000D+00
EXPONENTS  0.8236000D+04 0.1235000D+04 0.2808000D+03 0.7927000D+02 0.2559000D+02
EXPONENTS  0.8997000D+01 0.3319000D+01 0.3643000D+00 0.8236000D+04 0.1235000D+04
EXPONENTS  0.2808000D+03 0.7927000D+02 0.2559000D+02 0.8997000D+01 0.3319000D+01
EXPONENTS  0.3643000D+00 0.9059000D+00 0.1285000D+00 0.4402000D-01 0.1871000D+02
EXPONENTS  0.4133000D+01 0.1200000D+01 0.1871000D+02 0.4133000D+01 0.1200000D+01
EXPONENTS  0.1871000D+02 0.4133000D+01 0.1200000D+01 0.3827000D+00 0.3827000D+00
EXPONENTS  0.3827000D+00 0.1209000D+00 0.1209000D+00 0.1209000D+00 0.3569000D-01
EXPONENTS  0.3569000D-01 0.3569000D-01 0.1097000D+01 0.1097000D+01 0.1097000D+01
EXPONENTS  0.1097000D+01 0.1097000D+01 0.1097000D+01 0.3180000D+00 0.3180000D+00
EXPONENTS  0.3180000D+00 0.3180000D+00 0.3180000D+00 0.3180000D+00 0.1000000D+00
EXPONENTS  0.1000000D+00 0.1000000D+00 0.1000000D+00 0.1000000D+00 0.1000000D+00
EXPONENTS  0.7610000D+00 0.7610000D+00 0.7610000D+00 0.7610000D+00 0.7610000D+00
EXPONENTS  0.7610000D+00 0.7610000D+00 0.7610000D+00 0.7610000D+00 0.7610000D+00
EXPONENTS  0.2680000D+00 0.2680000D+00 0.2680000D+00 0.2680000D+00 0.2680000D+00
EXPONENTS  0.2680000D+00 0.2680000D+00 0.2680000D+00 0.2680000D+00 0.2680000D+00
EXPONENTS  0.3387000D+02 0.5095000D+01 0.1159000D+01 0.3258000D+00 0.1027000D+00
EXPONENTS  0.2526000D-01 0.1407000D+01 0.1407000D+01 0.1407000D+01 0.3880000D+00
EXPONENTS  0.3880000D+00 0.3880000D+00 0.1020000D+00 0.1020000D+00 0.1020000D+00
EXPONENTS  0.1057000D+01 0.1057000D+01 0.1057000D+01 0.1057000D+01 0.1057000D+01
EXPONENTS  0.1057000D+01 0.2470000D+00 0.2470000D+00 0.2470000D+00 0.2470000D+00
EXPONENTS  0.2470000D+00 0.2470000D+00 0.3387000D+02 0.5095000D+01 0.1159000D+01
EXPONENTS  0.3258000D+00 0.1027000D+00 0.2526000D-01 0.1407000D+01 0.1407000D+01
EXPONENTS  0.1407000D+01 0.3880000D+00 0.3880000D+00 0.3880000D+00 0.1020000D+00
EXPONENTS  0.1020000D+00 0.1020000D+00 0.1057000D+01 0.1057000D+01 0.1057000D+01
EXPONENTS  0.1057000D+01 0.1057000D+01 0.1057000D+01 0.2470000D+00 0.2470000D+00
EXPONENTS  0.2470000D+00 0.2470000D+00 0.2470000D+00 0.2470000D+00 0.3387000D+02
EXPONENTS  0.5095000D+01 0.1159000D+01 0.3258000D+00 0.1027000D+00 0.2526000D-01
EXPONENTS  0.1407000D+01 0.1407000D+01 0.1407000D+01 0.3880000D+00 0.3880000D+00
EXPONENTS  0.3880000D+00 0.1020000D+00 0.1020000D+00 0.1020000D+00 0.1057000D+01
EXPONENTS  0.1057000D+01 0.1057000D+01 0.1057000D+01 0.1057000D+01 0.1057000D+01
EXPONENTS  0.2470000D+00 0.2470000D+00 0.2470000D+00 0.2470000D+00 0.2470000D+00
EXPONENTS  0.2470000D+00
MO    1     MO 0.0        OCC NO =    2.0000000  ORB. ENERGY = -452.097445
 -0.39433628D-05 -0.73513249D-05 -0.12425034D-04 -0.18678896D-04 -0.22949182D-04
 -0.19384253D-04 -0.73110270D-05  0.36182681D-07  0.32296509D-05  0.60469254D-05
  0.10295408D-04  0.15925431D-04  0.20973232D-04  0.21792531D-04  0.13848175D-04
 -0.92807251D-05 -0.21064168D-04  0.87324388D-04  0.28498531D-04 -0.18962420D-06
 -0.17778474D-06 -0.12659333D-06 -0.30726366D-10 -0.28807921D-10 -0.20512956D-10
 -0.17296829D-04 -0.16216877D-04 -0.11547382D-04  0.41478943D-06  0.34683571D-10
  0.37890399D-05  0.34055517D-04  0.24236332D-09  0.37845760D-04 -0.11797252D-05
 -0.20137230D-11  0.22284499D-05  0.52409214D-05  0.84613724D-05 -0.13702294D-04
 -0.82194904D-10 -0.58541699D-05 -0.35273659D-10 -0.11009285D-04 -0.16565113D-04
  0.27574398D-04  0.14352158D-09  0.91838636D-05  0.52062727D-10 -0.27177345D-05
 -0.32764294D-05  0.59941639D-05 -0.58045079D-10 -0.15943724D-04 -0.11350840D-11
  0.16252862D-05  0.19688689D-10  0.36825210D-05 -0.11668946D-05 -0.84582760D-10
 -0.99641917D-05 -0.37089638D-05  0.25516692D-10 -0.10833714D-05 -0.11052355D-10
  0.47874476D-06 -0.23317061D-10  0.54997949D-05 -0.26665601D-05  0.37722728D-10
 -0.10383317D-04  0.12303258D-05  0.32228454D-10 -0.61160673D-05 -0.76520035D-10
  0.77215154D+00  0.14427292D+01  0.25022330D+01  0.40992969D+01  0.64191734D+01
  0.96398866D+01  0.13749238D+02  0.18165529D+02  0.20949321D+02  0.18855061D+02
  0.10578158D+02  0.25573263D+01  0.12140917D+00 -0.20776759D-02  0.58436069D-03
 -0.22772443D-03  0.21540131D-04  0.21239023D-05  0.10556319D-03  0.19439625D-03
  0.33742305D-03  0.55263575D-03  0.86982324D-03  0.13128830D-02  0.19138010D-02
  0.26280508D-02  0.33375911D-02  0.35943739D-02  0.28675239D-02  0.64230249D-03
 -0.17175024D-02 -0.15273310D-02 -0.29829393D-03 -0.82633556D-05 -0.59840411D-06
 -0.12221049D-07 -0.79869020D-04 -0.14419612D-03 -0.25101799D-03 -0.41105255D-03
 -0.64804775D-03 -0.97788623D-03 -0.14312093D-02 -0.19720183D-02 -0.25404880D-02
 -0.27962784D-02 -0.23540129D-02 -0.56057472D-03  0.18882312D-02  0.25230727D-02
  0.30996464D-03 -0.10830586D-02 -0.47809990D-03  0.23727238D-05  0.28057892D-04
  0.60787112D-04  0.10348209D-03  0.16891934D-03  0.26630859D-03  0.40187462D-03
  0.58817761D-03  0.81135415D-03  0.10465620D-02  0.11569911D-02  0.97988565D-03
  0.23802074D-03 -0.82579172D-03 -0.11655103D-02 -0.13906143D-03  0.65355674D-03
  0.52242406D-03 -0.19791894D-03  0.16370151D-03 -0.11455798D-04 -0.80522594D-05
  0.61241555D-04  0.87773351D-04  0.11590808D-03  0.13323049D-03  0.12256372D-03
  0.78407372D-04  0.27139833D-04  0.30511662D-05  0.38818271D-07  0.67265355D-08
  0.68737872D-10  0.99192674D-10  0.14216611D-09  0.18773580D-09  0.21579283D-09
  0.19851592D-09  0.12699607D-09  0.43958266D-10  0.49419602D-11  0.62873780D-13
  0.10894940D-13  0.11133443D-15  0.56284517D-03  0.80668766D-03  0.10652620D-02
  0.12244650D-02  0.11264312D-02  0.72060892D-03  0.24943070D-03  0.28041975D-04
  0.35676227D-06  0.61820736D-07  0.63174065D-09 -0.32479957D-03 -0.46849778D-03
 -0.62397843D-03 -0.73845552D-03 -0.70962802D-03 -0.48776561D-03 -0.15357044D-03
  0.74219210D-04  0.76166875D-04  0.19181646D-04 -0.20913404D-07 -0.23664398D-08
 -0.34134029D-08 -0.45462111D-08 -0.53802736D-08 -0.51702409D-08 -0.35537854D-08
 -0.11188907D-08  0.54074977D-09  0.55494016D-09  0.13975453D-09 -0.15237185D-12
 -0.32617653D-02 -0.47048395D-02 -0.62662375D-02 -0.74158616D-02 -0.71263645D-02
 -0.48983346D-02 -0.15422150D-02  0.74533857D-03  0.76489779D-03  0.19262965D-03
 -0.21002065D-06  0.24064355D-03  0.34885782D-03  0.46302151D-03  0.55257188D-03
  0.53089040D-03  0.37159498D-03  0.11219980D-03 -0.68683017D-04 -0.73867358D-04
 -0.19865349D-04  0.74051540D-05  0.18348886D-08  0.26600141D-08  0.35305035D-08
  0.42133181D-08  0.40479985D-08  0.28333832D-08  0.85551487D-09 -0.52370273D-09
 -0.56323293D-09 -0.15147176D-09  0.56463731D-10  0.24510506D-02  0.35532562D-02
  0.47160590D-02  0.56281652D-02  0.54073306D-02  0.37848432D-02  0.11427998D-02
 -0.69956395D-03 -0.75236854D-03 -0.20233651D-03  0.75424450D-04 -0.25460650D-05
  0.98382671D-11 -0.17670208D-04  0.74583107D-05  0.17543084D-10 -0.61037642D-05
  0.67509316D-07  0.18705565D-11  0.65533560D-07 -0.18762490D-03 -0.19420970D-03
 -0.16248889D-03 -0.10485148D-03 -0.47100717D-04 -0.13752647D-04 -0.23201558D-05
 -0.22632547D-03 -0.23426849D-03 -0.19600477D-03 -0.12647874D-03 -0.56815978D-04
 -0.16589346D-04 -0.27987243D-05  0.41395037D-03  0.42847819D-03  0.35849366D-03
  0.23133021D-03  0.10391669D-03  0.30341993D-04  0.51188801D-05  0.20064585D-09
  0.20768763D-09  0.17376543D-09  0.11212805D-09  0.50369452D-10  0.14707065D-10
  0.24811719D-11  0.82940366D-04  0.85851204D-04  0.71828890D-04  0.46350031D-04
  0.20821068D-04  0.60794148D-05  0.10256345D-05  0.15666111D-08  0.16215922D-08
  0.13567330D-08  0.87547808D-09  0.39327672D-09  0.11483044D-09  0.19372599D-10
  0.10911827D-04  0.14246905D-04 -0.25158732D-04 -0.17197393D-10 -0.50575246D-05
 -0.96372719D-10  0.41690682D-05  0.23169086D-05 -0.64859768D-05  0.17792194D-10
 -0.72867064D-06 -0.14310591D-10 -0.69328194D-06 -0.11703464D-05  0.18636284D-05
 -0.19427005D-11 -0.96083949D-06 -0.11346481D-12 -0.17393759D-06 -0.89133838D-11
  0.74457720D-05 -0.15819466D-05 -0.24068064D-10 -0.97474987D-05  0.21037594D-05
  0.50808216D-10 -0.12589817D-04 -0.14021791D-10  0.13088288D-07  0.13012180D-11
 -0.88167380D-06  0.83159237D-06  0.19548716D-11  0.28392987D-06 -0.87085724D-06
 -0.58585255D-11  0.23610915D-05 -0.79709343D-11  0.97794774D-06  0.17637690D-05
  0.26006764D-05 -0.35005460D-04 -0.93604174D-04  0.86216698D-06  0.56303111D-05
  0.42012966D-10  0.19652566D-05  0.57382745D-05 -0.51857960D-10 -0.34874506D-05
  0.12882725D-04  0.13597720D-09  0.30597906D-05 -0.26940922D-05  0.53469567D-06
  0.21593966D-05  0.32459896D-10  0.45343904D-05  0.40435088D-10  0.81067642D-06
 -0.57088389D-06 -0.23979252D-06  0.10731357D-10 -0.29444908D-05 -0.24045801D-10
  0.19077564D-05  0.35564917D-05  0.60110974D-05  0.90366484D-05  0.11102567D-04
  0.93778925D-05  0.35369960D-05 -0.17504791D-07 -0.13786588D-05 -0.25812844D-05
 -0.43948575D-05 -0.67981763D-05 -0.89529590D-05 -0.93026979D-05 -0.59114469D-05
  0.39617142D-05  0.15519164D-05  0.48474295D-04 -0.11539811D-04 -0.19898598D-05
 -0.18656200D-05 -0.13284326D-05  0.19452857D-10  0.18238290D-10  0.12986749D-10
  0.40198197D-05  0.37688365D-05  0.26836361D-05 -0.44771523D-05 -0.26244275D-10
 -0.15154267D-04  0.12540587D-04 -0.23809517D-09  0.20023775D-06  0.41349616D-06
  0.39861320D-11 -0.14077535D-05  0.12530963D-05  0.76571071D-06 -0.20188070D-05
  0.26468102D-10 -0.65886301D-05 -0.47744691D-10 -0.12915062D-04  0.86698550D-05
  0.42452066D-05  0.79515789D-10  0.81216408D-05  0.15165328D-09  0.28229148D-05
  0.35276920D-05 -0.63506069D-05 -0.57900200D-10  0.88451604D-06 -0.41434863D-10
 -0.14518142D-06 -0.10780269D-10  0.76311246D-06  0.12156526D-05  0.14267740D-10
  0.16621395D-05 -0.78010835D-06  0.18073066D-10 -0.39514769D-05  0.85085386D-10
 -0.26674619D-06  0.24834312D-10  0.35755142D-05 -0.49282117D-05  0.24318867D-10
 -0.87200436D-05  0.57284503D-05 -0.98821803D-10 -0.20064990D-05  0.38197299D-10
  0.26073639D-06  0.47024881D-06  0.69338160D-06  0.44635845D-04 -0.12300917D-04
  0.15268699D-05  0.48013509D-05 -0.28621485D-10 -0.51908681D-05  0.25390241D-05
  0.40810504D-10 -0.17005055D-05 -0.23400968D-05 -0.67812229D-11  0.62859268D-05
 -0.21181755D-05 -0.10656392D-06  0.22247394D-05  0.38354630D-10  0.36115032D-05
 -0.80322423D-11 -0.15888244D-05  0.22183193D-05 -0.62949494D-06  0.23596100D-10
 -0.26074290D-05  0.38730885D-10  0.18393832D-06  0.33174034D-06  0.48915094D-06
 -0.14532945D-04  0.12552532D-04 -0.64613439D-06 -0.17416355D-05  0.37172569D-05
  0.95990800D-06  0.51124317D-05  0.22083999D-05 -0.10418796D-04  0.15660321D-06
 -0.55152409D-05 -0.34877615D-05  0.38580005D-05 -0.48304238D-06 -0.33749581D-05
 -0.27272064D-05  0.21645764D-05  0.25019585D-05 -0.19235533D-05  0.84197671D-06
  0.10815765D-05  0.16659949D-05  0.35092134D-05  0.36233575D-05  0.18393228D-06
  0.33172944D-06  0.48913486D-06 -0.14533398D-04  0.12552470D-04 -0.64612133D-06
 -0.17416633D-05 -0.37172412D-05  0.95983603D-06  0.51124258D-05 -0.22086660D-05
 -0.10418642D-04  0.15650962D-06  0.55152046D-05 -0.34877756D-05  0.38579973D-05
 -0.48310879D-06 -0.33748885D-05  0.27271891D-05  0.21645581D-05 -0.25019545D-05
 -0.19235608D-05  0.84196330D-06  0.10815975D-05 -0.16659996D-05  0.35092030D-05
 -0.36233526D-05
MO    2     MO 0.0        OCC NO =    2.0000000  ORB. ENERGY =  -57.408593
  0.15827477D-03  0.29506015D-03  0.49870363D-03  0.74971492D-03  0.92111140D-03
  0.77802583D-03  0.29344272D-03 -0.14522644D-05 -0.12667581D-03 -0.23717708D-03
 -0.40381427D-03 -0.62463927D-03 -0.82262795D-03 -0.85476313D-03 -0.54316360D-03
  0.36401561D-03  0.70266016D-03 -0.28995715D-02 -0.96516246D-03 -0.11466382D-04
 -0.10750462D-04 -0.76549693D-05  0.76167003D-09  0.71411407D-09  0.50849176D-09
  0.48820290D-03  0.45772125D-03  0.32592480D-03  0.74294108D-04 -0.69592066D-09
  0.51435411D-04 -0.12471882D-02 -0.82847370D-08 -0.13051136D-02  0.40599160D-04
  0.68103433D-10 -0.69729551D-04 -0.18224348D-03 -0.32693052D-03  0.50917400D-03
  0.32594874D-08  0.18943582D-03  0.11698355D-08  0.30094396D-03  0.56412561D-03
 -0.86506958D-03 -0.49837052D-08 -0.31499498D-03 -0.15772422D-08  0.10283154D-03
  0.10940634D-03 -0.21223788D-03  0.19119516D-08  0.53756287D-03  0.27908124D-09
 -0.50826870D-04 -0.68470047D-09 -0.95534402D-04  0.16188343D-04  0.26638326D-08
  0.28808716D-03  0.13629227D-03 -0.60973117D-09 -0.14839524D-05  0.24591188D-09
 -0.11728292D-04  0.75656087D-09 -0.21855751D-03  0.10554709D-03 -0.10098130D-08
  0.43251291D-03 -0.70362216D-04 -0.12598696D-08  0.22315961D-03  0.25748816D-08
  0.94527469D-03  0.17662017D-02  0.30632556D-02  0.50183952D-02  0.78584083D-02
  0.11801234D-01  0.16831938D-01  0.22238400D-01  0.25646342D-01  0.23082531D-01
  0.12949874D-01  0.31307012D-02  0.14863018D-03 -0.25435090D-05  0.71537949D-06
 -0.27878225D-06  0.26369618D-07  0.26000998D-08 -0.24677465D+00 -0.45443936D+00
 -0.78879256D+00 -0.12918945D+01 -0.20333824D+01 -0.30691216D+01 -0.44738852D+01
 -0.61435843D+01 -0.78022738D+01 -0.84025539D+01 -0.67033996D+01 -0.15015081D+01
  0.40149988D+01  0.35704357D+01  0.69732057D+00  0.19317214D-01  0.13988870D-02
  0.28569099D-04  0.24214306D-02  0.43716687D-02  0.76102427D-02  0.12462094D-01
  0.19647200D-01  0.29647085D-01  0.43390715D-01  0.59786703D-01  0.77021292D-01
  0.84776223D-01  0.71367833D-01  0.16995235D-01 -0.57246485D-01 -0.76493306D-01
 -0.93973589D-02  0.32835649D-01  0.14494803D-01 -0.71935100D-04 -0.88572021D-03
 -0.19189030D-02 -0.32666810D-02 -0.53323775D-02 -0.84067219D-02 -0.12686216D-01
 -0.18567353D-01 -0.25612500D-01 -0.33037447D-01 -0.36523427D-01 -0.30932634D-01
 -0.75137424D-02  0.26068259D-01  0.36792359D-01  0.43898351D-02 -0.20631215D-01
 -0.16491672D-01  0.62478253D-02 -0.50743359D-02  0.50290295D-03  0.25003081D-03
 -0.42129729D-02 -0.60381673D-02 -0.79736316D-02 -0.91652875D-02 -0.84314916D-02
 -0.53938562D-02 -0.18670228D-02 -0.20989801D-03 -0.26704143D-05 -0.46273665D-06
 -0.47286650D-08 -0.93652645D-07 -0.13422596D-06 -0.17725053D-06 -0.20374055D-06
 -0.18742857D-06 -0.11990319D-06 -0.41503145D-07 -0.46659459D-08 -0.59362205D-10
 -0.10286444D-10 -0.10511627D-12 -0.47633519D-01 -0.68269879D-01 -0.90152995D-01
 -0.10362632D+00 -0.95329739D-01 -0.60985046D-01 -0.21109290D-01 -0.23731889D-02
 -0.30192748D-04 -0.52318814D-05 -0.53464134D-07  0.91690596D-02  0.13225646D-01
  0.17614849D-01  0.20846526D-01  0.20032729D-01  0.13769575D-01  0.43352785D-02
 -0.20952009D-02 -0.21501833D-02 -0.54149596D-03  0.59038333D-06  0.78037485D-07
  0.11256292D-06  0.14991925D-06  0.17742392D-06  0.17049772D-06  0.11719228D-06
  0.36897374D-07 -0.17832168D-07 -0.18300121D-07 -0.46086496D-08  0.50247280D-11
  0.10412713D+00  0.15019519D+00  0.20004055D+00  0.23674064D+00  0.22749886D+00
  0.15637224D+00  0.49232979D-01 -0.23793854D-01 -0.24418254D-01 -0.61494225D-02
  0.67046051D-05 -0.68692408D-02 -0.99582490D-02 -0.13217085D-01 -0.15773326D-01
 -0.15154422D-01 -0.10607288D-01 -0.32027763D-02  0.19605769D-02  0.21085654D-02
  0.56706221D-03 -0.21138230D-03 -0.61822553D-07 -0.89623351D-07 -0.11895258D-06
 -0.14195853D-06 -0.13638844D-06 -0.95464641D-07 -0.28824700D-07  0.17645017D-07
  0.18976900D-07  0.51035092D-08 -0.19024218D-08 -0.79282861D-01 -0.11493533D+00
 -0.15254791D+00 -0.18205133D+00 -0.17490811D+00 -0.12242636D+00 -0.36965551D-01
  0.22628432D-01  0.24336474D-01  0.65448739D-02 -0.24397155D-02  0.54556812D-04
 -0.46613053D-09  0.38848505D-03 -0.25035917D-03 -0.80938248D-09  0.19150856D-03
 -0.25200850D-05 -0.61185929D-10 -0.14539235D-05  0.23234349D-02  0.24049772D-02
  0.20121656D-02  0.12984182D-02  0.58326721D-03  0.17030459D-03  0.28731427D-04
  0.98362949D-02  0.10181505D-01  0.85185318D-02  0.54968720D-02  0.24692700D-02
  0.72098689D-03  0.12163491D-03 -0.12159730D-01 -0.12586482D-01 -0.10530697D-01
 -0.67952902D-02 -0.30525373D-02 -0.89129147D-03 -0.15036633D-03 -0.16048218D-07
 -0.16611440D-07 -0.13898247D-07 -0.89683161D-08 -0.40286902D-08 -0.11763123D-08
 -0.19845110D-09 -0.20347074D-02 -0.21061166D-02 -0.17621187D-02 -0.11370670D-02
 -0.51078603D-03 -0.14914125D-03 -0.25161044D-04 -0.33827141D-07 -0.35014323D-07
 -0.29295337D-07 -0.18903811D-07 -0.84918504D-08 -0.24794829D-08 -0.41830396D-09
 -0.35957467D-03 -0.48909885D-03  0.84867352D-03  0.63410203D-09  0.16169586D-03
  0.31251957D-08 -0.13040231D-03 -0.55323229D-04  0.18572554D-03 -0.64966299D-09
  0.11012386D-05  0.45194950D-09  0.22589328D-04  0.38485841D-04 -0.61075168D-04
  0.71293795D-10  0.32711562D-04  0.48336905D-10  0.32976012D-05  0.27214265D-09
 -0.22945239D-03  0.45035487D-04  0.74902898D-09  0.31154668D-03 -0.54928290D-04
 -0.15654569D-08  0.37681049D-03  0.54833362D-09 -0.11940881D-05 -0.51363336D-10
  0.31414199D-04 -0.27843722D-04 -0.54743982D-10 -0.11584067D-04  0.31425987D-04
  0.20883399D-09 -0.82658531D-04  0.28056233D-09 -0.22620672D-04 -0.40797313D-04
 -0.60155614D-04  0.13311494D-02  0.31557578D-02 -0.26165638D-04 -0.19370528D-03
 -0.11819106D-08 -0.55671117D-04 -0.18222014D-03  0.86674107D-09  0.11764157D-03
 -0.44128692D-03 -0.44421759D-08 -0.11174452D-03  0.75421212D-04  0.22561045D-04
 -0.97982257D-04 -0.11617048D-08 -0.14759693D-03 -0.17740513D-08 -0.29792939D-04
  0.30049897D-04 -0.25695813D-06 -0.47744126D-09  0.92629690D-04  0.63880974D-09
 -0.33525420D-04 -0.62499005D-04 -0.10563433D-03 -0.15880300D-03 -0.19510783D-03
 -0.16479975D-03 -0.62156404D-04  0.30761551D-06  0.24945239D-04  0.46705358D-04
  0.79519868D-04  0.12300514D-03  0.16199345D-03  0.16832157D-03  0.10696080D-03
 -0.71682642D-04 -0.26112227D-04 -0.18841012D-02  0.40949749D-03  0.41692207D-04
  0.39089094D-04  0.27833764D-04 -0.70287298D-09 -0.65898809D-09 -0.46923878D-09
 -0.13501600D-03 -0.12658608D-03 -0.90136832D-04  0.29083474D-03  0.12005210D-08
  0.54827647D-03 -0.50145844D-03  0.87128124D-08 -0.22950803D-04 -0.12596343D-04
 -0.12371330D-09  0.47086386D-04 -0.32651741D-04 -0.50153180D-04  0.82804921D-04
 -0.11182575D-08  0.23669017D-03  0.16145306D-08  0.41733548D-03 -0.26715327D-03
 -0.15018221D-03 -0.25859523D-08 -0.11974901D-03 -0.61898045D-08 -0.86719434D-04
 -0.11874513D-03  0.20546456D-03  0.21149387D-08 -0.37634026D-04  0.12631322D-08
  0.36279753D-05  0.46285507D-09 -0.25591425D-04 -0.67220323D-04 -0.92331437D-09
 -0.79264686D-04  0.56336397D-04 -0.46525084D-09  0.15603896D-03 -0.29019959D-08
 -0.61287473D-05 -0.88118444D-09 -0.13309446D-03  0.17663605D-03 -0.61957456D-09
  0.31625478D-03 -0.15824981D-03  0.32631279D-08  0.83028614D-04 -0.17971189D-08
 -0.91359019D-05 -0.16476975D-04 -0.24295290D-04 -0.13355082D-02  0.26487345D-03
 -0.50913714D-04 -0.14442314D-03  0.11195800D-08  0.14959389D-03  0.50666418D-04
 -0.19010459D-08  0.74666645D-04  0.69803372D-04  0.41055656D-09 -0.19110041D-03
  0.11035666D-03 -0.15593433D-04 -0.94763228D-04 -0.13819139D-08 -0.12122982D-03
  0.33319624D-09  0.57768756D-04 -0.73140909D-04  0.15372152D-04 -0.79577154D-09
  0.73438550D-04 -0.12720517D-08 -0.64231926D-05 -0.11584492D-04 -0.17081327D-04
  0.52538213D-03 -0.35563995D-03  0.22369958D-04  0.57772642D-04 -0.13357515D-03
 -0.33921697D-04 -0.16798002D-03 -0.79359519D-04  0.36192700D-03 -0.20747791D-05
  0.17433641D-03  0.12172136D-03 -0.11478998D-03  0.17141218D-04  0.97648766D-04
  0.72995058D-04 -0.76318796D-04 -0.10390919D-03  0.66576646D-04 -0.29215683D-04