 Molden2AIM, Version 4.0.0 (06/02/2016)           Time: Fri Jun 29 00:31:05 2018
GAUSSIAN              8 MOL ORBITALS    258 PRIMITIVES        6 NUCLEI
  C    1    (CENTRE  1)   0.00000000  0.00000000  1.25931727  CHARGE =  6.0
  C    2    (CENTRE  2)   0.00000000  0.00000000 -1.25931727  CHARGE =  6.0
  H    3    (CENTRE  3)   0.00000000  1.75719774  2.33996282  CHARGE =  1.0
  H    4    (CENTRE  4)   0.00000000 -1.75719774  2.33996282  CHARGE =  1.0
  H    5    (CENTRE  5)   0.00000000  1.75719774 -2.33996282  CHARGE =  1.0
  H    6    (CENTRE  6)   0.00000000 -1.75719774 -2.33996282  CHARGE =  1.0
CENTRE ASSIGNMENTS    1  1  1  1  1  1  1  1  1  1  1  1  1  1  1  1  1  1  1  1
CENTRE ASSIGNMENTS    1  1  1  1  1  1  1  1  1  1  1  1  1  1  1  1  1  1  1  1
CENTRE ASSIGNMENTS    1  1  1  1  1  1  1  1  1  1  1  1  1  1  1  1  1  1  1  1
CENTRE ASSIGNMENTS    1  1  1  1  1  1  1  1  1  1  1  1  1  1  1  2  2  2  2  2
CENTRE ASSIGNMENTS    2  2  2  2  2  2  2  2  2  2  2  2  2  2  2  2  2  2  2  2
CENTRE ASSIGNMENTS    2  2  2  2  2  2  2  2  2  2  2  2  2  2  2  2  2  2  2  2
CENTRE ASSIGNMENTS    2  2  2  2  2  2  2  2  2  2  2  2  2  2  2  2  2  2  2  2
CENTRE ASSIGNMENTS    2  2  2  2  2  2  2  2  2  2  3  3  3  3  3  3  3  3  3  3
CENTRE ASSIGNMENTS    3  3  3  3  3  3  3  3  3  3  3  3  3  3  3  3  3  4  4  4
CENTRE ASSIGNMENTS    4  4  4  4  4  4  4  4  4  4  4  4  4  4  4  4  4  4  4  4
CENTRE ASSIGNMENTS    4  4  4  4  5  5  5  5  5  5  5  5  5  5  5  5  5  5  5  5
CENTRE ASSIGNMENTS    5  5  5  5  5  5  5  5  5  5  5  6  6  6  6  6  6  6  6  6
CENTRE ASSIGNMENTS    6  6  6  6  6  6  6  6  6  6  6  6  6  6  6  6  6  6
TYPE ASSIGNMENTS      1  1  1  1  1  1  1  1  1  1  1  1  1  1  1  1  1  1  1  2
TYPE ASSIGNMENTS      2  2  3  3  3  4  4  4  2  3  4  2  3  4  2  3  4  5  6  7
TYPE ASSIGNMENTS      8  9 10  5  6  7  8  9 10  5  6  7  8  9 10 11 12 13 17 14
TYPE ASSIGNMENTS     15 18 19 16 20 11 12 13 17 14 15 18 19 16 20  1  1  1  1  1
TYPE ASSIGNMENTS      1  1  1  1  1  1  1  1  1  1  1  1  1  1  2  2  2  3  3  3
TYPE ASSIGNMENTS      4  4  4  2  3  4  2  3  4  2  3  4  5  6  7  8  9 10  5  6
TYPE ASSIGNMENTS      7  8  9 10  5  6  7  8  9 10 11 12 13 17 14 15 18 19 16 20
TYPE ASSIGNMENTS     11 12 13 17 14 15 18 19 16 20  1  1  1  1  1  1  2  3  4  2
TYPE ASSIGNMENTS      3  4  2  3  4  5  6  7  8  9 10  5  6  7  8  9 10  1  1  1
TYPE ASSIGNMENTS      1  1  1  2  3  4  2  3  4  2  3  4  5  6  7  8  9 10  5  6
TYPE ASSIGNMENTS      7  8  9 10  1  1  1  1  1  1  2  3  4  2  3  4  2  3  4  5
TYPE ASSIGNMENTS      6  7  8  9 10  5  6  7  8  9 10  1  1  1  1  1  1  2  3  4
TYPE ASSIGNMENTS      2  3  4  2  3  4  5  6  7  8  9 10  5  6  7  8  9 10
EXPONENTS  0.8236000D+04 0.1235000D+04 0.2808000D+03 0.7927000D+02 0.2559000D+02
EXPONENTS  0.8997000D+01 0.3319000D+01 0.3643000D+00 0.8236000D+04 0.1235000D+04
EXPONENTS  0.2808000D+03 0.7927000D+02 0.2559000D+02 0.8997000D+01 0.3319000D+01
EXPONENTS  0.3643000D+00 0.9059000D+00 0.1285000D+00 0.4402000D-01 0.1871000D+02
EXPONENTS  0.4133000D+01 0.1200000D+01 0.1871000D+02 0.4133000D+01 0.1200000D+01
EXPONENTS  0.1871000D+02 0.4133000D+01 0.1200000D+01 0.3827000D+00 0.3827000D+00
EXPONENTS  0.3827000D+00 0.1209000D+00 0.1209000D+00 0.1209000D+00 0.3569000D-01
EXPONENTS  0.3569000D-01 0.3569000D-01 0.1097000D+01 0.1097000D+01 0.1097000D+01
EXPONENTS  0.1097000D+01 0.1097000D+01 0.1097000D+01 0.3180000D+00 0.3180000D+00
EXPONENTS  0.3180000D+00 0.3180000D+00 0.3180000D+00 0.3180000D+00 0.1000000D+00
EXPONENTS  0.1000000D+00 0.1000000D+00 0.1000000D+00 0.1000000D+00 0.1000000D+00
EXPONENTS  0.7610000D+00 0.7610000D+00 0.7610000D+00 0.7610000D+00 0.7610000D+00
EXPONENTS  0.7610000D+00 0.7610000D+00 0.7610000D+00 0.7610000D+00 0.7610000D+00
EXPONENTS  0.2680000D+00 0.2680000D+00 0.2680000D+00 0.2680000D+00 0.2680000D+00
EXPONENTS  0.2680000D+00 0.2680000D+00 0.2680000D+00 0.2680000D+00 0.2680000D+00
EXPONENTS  0.8236000D+04 0.1235000D+04 0.2808000D+03 0.7927000D+02 0.2559000D+02
EXPONENTS  0.8997000D+01 0.3319000D+01 0.3643000D+00 0.8236000D+04 0.1235000D+04
EXPONENTS  0.2808000D+03 0.7927000D+02 0.2559000D+02 0.8997000D+01 0.3319000D+01
EXPONENTS  0.3643000D+00 0.9059000D+00 0.1285000D+00 0.4402000D-01 0.1871000D+02
EXPONENTS  0.4133000D+01 0.1200000D+01 0.1871000D+02 0.4133000D+01 0.1200000D+01
EXPONENTS  0.1871000D+02 0.4133000D+01 0.1200000D+01 0.3827000D+00 0.3827000D+00
EXPONENTS  0.3827000D+00 0.1209000D+00 0.1209000D+00 0.1209000D+00 0.3569000D-01
EXPONENTS  0.3569000D-01 0.3569000D-01 0.1097000D+01 0.1097000D+01 0.1097000D+01
EXPONENTS  0.1097000D+01 0.1097000D+01 0.1097000D+01 0.3180000D+00 0.3180000D+00
EXPONENTS  0.3180000D+00 0.3180000D+00 0.3180000D+00 0.3180000D+00 0.1000000D+00
EXPONENTS  0.1000000D+00 0.1000000D+00 0.1000000D+00 0.1000000D+00 0.1000000D+00
EXPONENTS  0.7610000D+00 0.7610000D+00 0.7610000D+00 0.7610000D+00 0.7610000D+00
EXPONENTS  0.7610000D+00 0.7610000D+00 0.7610000D+00 0.7610000D+00 0.7610000D+00
EXPONENTS  0.2680000D+00 0.2680000D+00 0.2680000D+00 0.2680000D+00 0.2680000D+00
EXPONENTS  0.2680000D+00 0.2680000D+00 0.2680000D+00 0.2680000D+00 0.2680000D+00
EXPONENTS  0.3387000D+02 0.5095000D+01 0.1159000D+01 0.3258000D+00 0.1027000D+00
EXPONENTS  0.2526000D-01 0.1407000D+01 0.1407000D+01 0.1407000D+01 0.3880000D+00
EXPONENTS  0.3880000D+00 0.3880000D+00 0.1020000D+00 0.1020000D+00 0.1020000D+00
EXPONENTS  0.1057000D+01 0.1057000D+01 0.1057000D+01 0.1057000D+01 0.1057000D+01
EXPONENTS  0.1057000D+01 0.2470000D+00 0.2470000D+00 0.2470000D+00 0.2470000D+00
EXPONENTS  0.2470000D+00 0.2470000D+00 0.3387000D+02 0.5095000D+01 0.1159000D+01
EXPONENTS  0.3258000D+00 0.1027000D+00 0.2526000D-01 0.1407000D+01 0.1407000D+01
EXPONENTS  0.1407000D+01 0.3880000D+00 0.3880000D+00 0.3880000D+00 0.1020000D+00
EXPONENTS  0.1020000D+00 0.1020000D+00 0.1057000D+01 0.1057000D+01 0.1057000D+01
EXPONENTS  0.1057000D+01 0.1057000D+01 0.1057000D+01 0.2470000D+00 0.2470000D+00
EXPONENTS  0.2470000D+00 0.2470000D+00 0.2470000D+00 0.2470000D+00 0.3387000D+02
EXPONENTS  0.5095000D+01 0.1159000D+01 0.3258000D+00 0.1027000D+00 0.2526000D-01
EXPONENTS  0.1407000D+01 0.1407000D+01 0.1407000D+01 0.3880000D+00 0.3880000D+00
EXPONENTS  0.3880000D+00 0.1020000D+00 0.1020000D+00 0.1020000D+00 0.1057000D+01
EXPONENTS  0.1057000D+01 0.1057000D+01 0.1057000D+01 0.1057000D+01 0.1057000D+01
EXPONENTS  0.2470000D+00 0.2470000D+00 0.2470000D+00 0.2470000D+00 0.2470000D+00
EXPONENTS  0.2470000D+00 0.3387000D+02 0.5095000D+01 0.1159000D+01 0.3258000D+00
EXPONENTS  0.1027000D+00 0.2526000D-01 0.1407000D+01 0.1407000D+01 0.1407000D+01
EXPONENTS  0.3880000D+00 0.3880000D+00 0.3880000D+00 0.1020000D+00 0.1020000D+00
EXPONENTS  0.1020000D+00 0.1057000D+01 0.1057000D+01 0.1057000D+01 0.1057000D+01
EXPONENTS  0.1057000D+01 0.1057000D+01 0.2470000D+00 0.2470000D+00 0.2470000D+00
EXPONENTS  0.2470000D+00 0.2470000D+00 0.2470000D+00
MO    1     MO 0.0        OCC NO =    2.0000000  ORB. ENERGY =   -9.888971
  0.23364999D+00  0.43557670D+00  0.73620136D+00  0.11067518D+01  0.13597725D+01
  0.11485452D+01  0.43318900D+00 -0.21438765D-02 -0.28171291D-02 -0.52745545D-02
 -0.89803803D-02 -0.13891283D-01 -0.18294331D-01 -0.19008982D-01 -0.12079354D-01
  0.80953024D-02  0.28667135D-01 -0.69765224D-02 -0.41139154D-03 -0.32179121D-15
 -0.30169972D-15 -0.21482817D-15 -0.77182170D-14 -0.72363191D-14 -0.51526903D-14
 -0.11405389D-02 -0.10693277D-02 -0.76142502D-03  0.40144445D-17  0.30886373D-13
 -0.20489691D-03 -0.15430906D-18 -0.14070767D-13 -0.84573019D-03 -0.63728136D-21
  0.12505620D-14 -0.65409603D-05 -0.39283346D-02  0.24497556D-02  0.14785790D-02
  0.17282851D-17  0.14681541D-17  0.53865379D-14  0.16426388D-02  0.29883599D-04
 -0.16725224D-02 -0.17665242D-17 -0.34931128D-17  0.18191282D-13  0.80880713D-04
 -0.22675822D-03  0.14587751D-03 -0.88887748D-19 -0.25051347D-18 -0.47894471D-13
 -0.23198013D-18  0.10188064D-14  0.30172630D-04 -0.51636692D-18 -0.55313277D-14
 -0.14762341D-02  0.12123073D-17  0.24749085D-14  0.13857162D-02 -0.73293030D-18
  0.20959581D-18 -0.18989189D-14  0.59040184D-03 -0.88538182D-18 -0.13286071D-15
 -0.10051920D-03  0.25659439D-18  0.58296174D-14 -0.16706863D-02 -0.21940635D-18
  0.23364999D+00  0.43557670D+00  0.73620136D+00  0.11067518D+01  0.13597725D+01
  0.11485452D+01  0.43318900D+00 -0.21438765D-02 -0.28171291D-02 -0.52745545D-02
 -0.89803803D-02 -0.13891283D-01 -0.18294331D-01 -0.19008982D-01 -0.12079354D-01
  0.80953024D-02  0.28667135D-01 -0.69765224D-02 -0.41139154D-03  0.16696157D-16
  0.15653708D-16  0.11146373D-16  0.15094173D-14  0.14151747D-14  0.10076887D-14
  0.11405389D-02  0.10693277D-02  0.76142502D-03 -0.36443738D-17 -0.55204965D-14
  0.20489691D-03 -0.21212456D-19  0.32915252D-13  0.84573019D-03 -0.21504460D-19
 -0.91292417D-15  0.65409604D-05 -0.39283346D-02  0.24497555D-02  0.14785790D-02
 -0.95106203D-18 -0.57839249D-17 -0.15096517D-14  0.16426388D-02  0.29883599D-04
 -0.16725224D-02  0.63115897D-18 -0.80717790D-18  0.12989568D-14  0.80880713D-04
 -0.22675822D-03  0.14587751D-03 -0.79412131D-19 -0.30374890D-18 -0.50509033D-13
  0.69912747D-18  0.27366150D-15 -0.30172631D-04 -0.88197769D-19  0.17476670D-14
  0.14762341D-02 -0.20091846D-17 -0.25686515D-14 -0.13857162D-02  0.21291208D-18
  0.31731127D-19  0.16428697D-14 -0.59040184D-03  0.42065308D-18 -0.13716447D-14
  0.10051920D-03 -0.51584646D-18 -0.35569644D-14  0.16706863D-02 -0.11265395D-18
  0.21336313D-03  0.38480918D-03  0.56740092D-03  0.24989195D-02  0.19300105D-02
  0.23929773D-04 -0.35824623D-17  0.95454106D-03 -0.14749765D-04  0.48840332D-17
  0.10525769D-02  0.15809808D-02  0.75839098D-18  0.11764936D-03 -0.24533240D-03
  0.15206309D-02 -0.13613299D-02 -0.15930096D-03  0.48854626D-18 -0.13146143D-18
 -0.36150648D-02  0.36886401D-03 -0.11375950D-03 -0.25510451D-03 -0.13006635D-17
 -0.11513668D-17 -0.35074964D-03  0.21336313D-03  0.38480918D-03  0.56740092D-03
  0.24989195D-02  0.19300105D-02  0.23929773D-04 -0.13648757D-17 -0.95454106D-03
 -0.14749765D-04  0.19670449D-17 -0.10525769D-02  0.15809808D-02  0.21844114D-18
 -0.11764936D-03 -0.24533240D-03  0.15206309D-02 -0.13613299D-02 -0.15930096D-03
 -0.59390932D-18  0.32883739D-19  0.36150648D-02  0.36886401D-03 -0.11375950D-03
 -0.25510451D-03  0.36332167D-18 -0.17811288D-18  0.35074964D-03  0.21336313D-03
  0.38480918D-03  0.56740092D-03  0.24989195D-02  0.19300105D-02  0.23929773D-04
  0.61037261D-19  0.95454106D-03  0.14749766D-04 -0.29850783D-18  0.10525769D-02
 -0.15809808D-02 -0.22814933D-18  0.11764936D-03  0.24533240D-03  0.15206309D-02
 -0.13613299D-02 -0.15930096D-03 -0.23571289D-18 -0.20667064D-18  0.36150648D-02
  0.36886401D-03 -0.11375950D-03 -0.25510451D-03  0.35570689D-19 -0.87697848D-19
  0.35074964D-03  0.21336313D-03  0.38480918D-03  0.56740092D-03  0.24989195D-02
  0.19300105D-02  0.23929773D-04 -0.36366553D-18 -0.95454106D-03  0.14749766D-04
  0.56882281D-18 -0.10525769D-02 -0.15809808D-02 -0.39418132D-18 -0.11764936D-03
  0.24533240D-03  0.15206309D-02 -0.13613299D-02 -0.15930096D-03  0.37270116D-18
  0.19951134D-18 -0.36150648D-02  0.36886401D-03 -0.11375950D-03 -0.25510451D-03
  0.17370329D-18 -0.35817678D-20 -0.35074964D-03
MO    2     MO 0.0        OCC NO =    2.0000000  ORB. ENERGY =   -9.888260
 -0.23320250D+00 -0.43474248D+00 -0.73479138D+00 -0.11046321D+01 -0.13571682D+01
 -0.11463455D+01 -0.43235935D+00  0.21397706D-02  0.24057712D-02  0.45043627D-02
  0.76690629D-02  0.11862874D-01  0.15622988D-01  0.16233285D-01  0.10315524D-01
 -0.69132243D-02 -0.24108829D-01 -0.16943244D-01 -0.72081953D-03 -0.39346513D-15
 -0.36889857D-15 -0.26267776D-15  0.60399974D-14  0.56628814D-14  0.40323089D-14
 -0.16062910D-02 -0.15059999D-02 -0.10723617D-02 -0.13887178D-16 -0.26820383D-13
  0.31273972D-02 -0.19004163D-18  0.65991256D-13  0.61087253D-02 -0.13824828D-20
 -0.40975884D-14  0.66786397D-04  0.42763837D-02 -0.12052743D-02 -0.30711094D-02
  0.69648833D-18  0.81698887D-18 -0.87655617D-14  0.14673183D-02  0.81373890D-03
 -0.22810572D-02 -0.16505601D-17 -0.32636654D-17  0.31569276D-13  0.39111603D-04
  0.39034292D-03 -0.42945453D-03  0.14979006D-19 -0.33631037D-18  0.11872967D-12
  0.14325526D-18  0.17151509D-14  0.24165967D-02 -0.10492504D-17  0.52635227D-14
 -0.83135337D-03  0.61948462D-18 -0.10408976D-13 -0.64184368D-02 -0.31853066D-18
  0.27489752D-18  0.86418663D-14 -0.10280711D-03 -0.95920724D-18 -0.39006663D-14
 -0.28545401D-03  0.13451468D-18 -0.22024933D-13  0.59387533D-03 -0.68227086D-18
  0.23320250D+00  0.43474248D+00  0.73479138D+00  0.11046321D+01  0.13571682D+01
  0.11463455D+01  0.43235935D+00 -0.21397706D-02 -0.24057712D-02 -0.45043627D-02
 -0.76690629D-02 -0.11862874D-01 -0.15622988D-01 -0.16233285D-01 -0.10315524D-01
  0.69132243D-02  0.24108829D-01  0.16943244D-01  0.72081953D-03  0.16284166D-16
  0.15267441D-16  0.10871328D-16  0.68235339D-14  0.63974968D-14  0.45553988D-14
 -0.16062910D-02 -0.15059999D-02 -0.10723617D-02 -0.30730375D-17 -0.28149987D-13
  0.31273972D-02  0.86245932D-20 -0.12570626D-12  0.61087253D-02 -0.24214076D-19
  0.28423023D-14  0.66786397D-04 -0.42763837D-02  0.12052743D-02  0.30711094D-02
 -0.73823515D-18 -0.59493679D-17  0.22057409D-14 -0.14673183D-02 -0.81373890D-03
  0.22810572D-02  0.47187630D-18  0.76368015D-19  0.79334826D-13 -0.39111603D-04
 -0.39034292D-03  0.42945453D-03 -0.18692591D-18 -0.41867207D-18  0.12725297D-12
  0.63042744D-18 -0.40544066D-14  0.24165967D-02 -0.13413666D-18  0.25931518D-14
 -0.83135337D-03 -0.17571457D-17  0.95700679D-14 -0.64184368D-02  0.58328248D-18
 -0.13332682D-19 -0.73495301D-14 -0.10280711D-03  0.25087670D-18  0.87359157D-14
 -0.28545401D-03 -0.21087866D-18  0.13312675D-13  0.59387534D-03 -0.53033534D-18
 -0.45241953D-04 -0.81595725D-04 -0.12031285D-03  0.18008570D-02 -0.19498256D-02
 -0.34006686D-04 -0.41005838D-17 -0.17698911D-02 -0.13695626D-02  0.60619000D-17
 -0.25970926D-02 -0.77265878D-03  0.80471948D-18 -0.18887019D-03  0.41165539D-03
 -0.13592142D-02  0.18518478D-02 -0.49263356D-03 -0.24376603D-18 -0.62821683D-18
  0.38599101D-02 -0.16568869D-03  0.31722442D-03 -0.15153573D-03 -0.16838031D-17
 -0.12376358D-17  0.62469584D-04 -0.45241953D-04 -0.81595725D-04 -0.12031285D-03
  0.18008570D-02 -0.19498256D-02 -0.34006686D-04 -0.14655900D-17  0.17698911D-02
 -0.13695626D-02  0.24636353D-17  0.25970926D-02 -0.77265878D-03  0.42888293D-18
  0.18887019D-03  0.41165539D-03 -0.13592142D-02  0.18518478D-02 -0.49263356D-03
  0.11513038D-18 -0.49434625D-18 -0.38599101D-02 -0.16568869D-03  0.31722442D-03
 -0.15153573D-03  0.56649992D-18 -0.38131495D-18 -0.62469584D-04  0.45241953D-04
  0.81595725D-04  0.12031285D-03 -0.18008570D-02  0.19498256D-02  0.34006686D-04
  0.69263609D-19  0.17698911D-02 -0.13695626D-02 -0.29105730D-18  0.25970926D-02
 -0.77265878D-03 -0.24130666D-18  0.18887019D-03  0.41165539D-03  0.13592142D-02
 -0.18518478D-02  0.49263356D-03 -0.36086637D-18 -0.18543829D-18  0.38599101D-02
  0.16568869D-03 -0.31722442D-03  0.15153573D-03  0.15460136D-18  0.14762761D-18
  0.62469584D-04  0.45241953D-04  0.81595725D-04  0.12031285D-03 -0.18008570D-02
  0.19498256D-02  0.34006686D-04 -0.62249804D-18 -0.17698911D-02 -0.13695626D-02
  0.10658903D-17 -0.25970926D-02 -0.77265878D-03 -0.58728468D-18 -0.18887019D-03
  0.41165539D-03  0.13592142D-02 -0.18518478D-02  0.49263356D-03  0.54511342D-18
  0.60025875D-19 -0.38599101D-02  0.16568869D-03 -0.31722442D-03  0.15153573D-03
  0.15630087D-18  0.11893765D-18 -0.62469584D-04
MO    3     MO 0.0        OCC NO =    2.0000000  ORB. ENERGY =   -0.690724
 -0.95283358D-02 -0.17762984D-01 -0.30022573D-01 -0.45133761D-01 -0.55452040D-01
 -0.46838113D-01 -0.17665613D-01  0.87428104D-04 -0.41305202D-01 -0.77336371D-01
 -0.13167179D+00 -0.20367624D+00 -0.26823444D+00 -0.27871276D+00 -0.17710945D+00
  0.11869463D+00  0.52935326D-01  0.33867109D-01  0.60427006D-03  0.81375741D-15
  0.76294930D-15  0.54326535D-15 -0.31266364D-13 -0.29314203D-13 -0.20873459D-13
 -0.13809200D+00 -0.12947003D+00 -0.92190375D-01  0.20568018D-15  0.97136718D-13
 -0.18029314D-01 -0.28411357D-16  0.11684664D-11  0.85867867D-03 -0.15753818D-17
 -0.89006956D-13  0.12376928D-04 -0.15466723D-01 -0.20696128D-02  0.17536336D-01
  0.61880110D-18 -0.41685444D-18 -0.63955528D-13 -0.42813672D-02  0.22852828D-02
  0.19960844D-02  0.23899596D-17  0.12681698D-16  0.10058816D-11 -0.30800972D-04
  0.15331744D-03 -0.12251647D-03  0.13345616D-17  0.17241154D-17  0.18664026D-11
 -0.41684501D-17  0.47282485D-13 -0.40149916D-02  0.79842490D-17 -0.11682855D-13
  0.33874624D-02  0.45211013D-17 -0.13016460D-12  0.86575124D-02  0.44419473D-17
  0.10330380D-17  0.13046435D-12 -0.48257553D-03 -0.17436410D-17 -0.82134571D-13
 -0.24443603D-03 -0.13554731D-17 -0.30925848D-12  0.16921626D-02 -0.10655728D-16
 -0.95283358D-02 -0.17762984D-01 -0.30022573D-01 -0.45133761D-01 -0.55452040D-01
 -0.46838113D-01 -0.17665613D-01  0.87428104D-04 -0.41305202D-01 -0.77336371D-01
 -0.13167179D+00 -0.20367624D+00 -0.26823444D+00 -0.27871276D+00 -0.17710945D+00
  0.11869463D+00  0.52935326D-01  0.33867109D-01  0.60427006D-03  0.20942399D-15
  0.19634830D-15  0.13981169D-15  0.68569886D-13  0.64288627D-13  0.45777332D-13
  0.13809200D+00  0.12947003D+00  0.92190375D-01  0.69628152D-16 -0.32121106D-12
  0.18029314D-01  0.12041024D-16 -0.17290850D-11 -0.85867868D-03  0.17180088D-17
  0.71027063D-13 -0.12376928D-04 -0.15466723D-01 -0.20696128D-02  0.17536336D-01
  0.28621597D-17  0.20589005D-16 -0.56255801D-13 -0.42813672D-02  0.22852828D-02
  0.19960844D-02 -0.11331825D-17  0.23189831D-16  0.13110641D-11 -0.30800972D-04
  0.15331744D-03 -0.12251647D-03 -0.40671189D-17  0.32936789D-17  0.19399259D-11
 -0.46101332D-17 -0.55378019D-13  0.40149916D-02  0.29454216D-17  0.43368155D-13
 -0.33874624D-02  0.10884978D-16  0.12276590D-12 -0.86575124D-02  0.67540681D-17
 -0.92313220D-18 -0.11796004D-12  0.48257553D-03 -0.44587754D-17  0.11783362D-12
  0.24443603D-03  0.72281720D-17  0.23604649D-12 -0.16921626D-02 -0.79453788D-17
  0.12919185D-01  0.23300282D-01  0.34356251D-01  0.65795835D-02 -0.39025466D-02
 -0.53095019D-04  0.92986680D-17 -0.76315519D-02 -0.67725595D-02  0.12352110D-16
  0.27477961D-02  0.80255740D-03  0.53027301D-17  0.80183675D-03  0.76914844D-03
 -0.11253619D-02 -0.36569527D-03  0.14910571D-02 -0.16163169D-16 -0.88670629D-17
  0.18133384D-02  0.12410003D-03 -0.19985523D-03  0.75755195D-04 -0.63545992D-18
  0.48392916D-18 -0.85171782D-03  0.12919185D-01  0.23300282D-01  0.34356251D-01
  0.65795835D-02 -0.39025465D-02 -0.53095019D-04  0.84147362D-17  0.76315519D-02
 -0.67725595D-02 -0.16081367D-17 -0.27477961D-02  0.80255740D-03  0.41356580D-17
 -0.80183675D-03  0.76914844D-03 -0.11253619D-02 -0.36569527D-03  0.14910571D-02
  0.10866522D-16 -0.15340646D-17 -0.18133384D-02  0.12410003D-03 -0.19985523D-03
  0.75755195D-04 -0.36691999D-17 -0.37219626D-17  0.85171782D-03  0.12919185D-01
  0.23300282D-01  0.34356251D-01  0.65795835D-02 -0.39025465D-02 -0.53095019D-04
  0.72630685D-17 -0.76315519D-02  0.67725595D-02  0.48622264D-17  0.27477961D-02
 -0.80255739D-03  0.65701310D-17  0.80183675D-03 -0.76914844D-03 -0.11253619D-02
 -0.36569527D-03  0.14910571D-02 -0.91981616D-17  0.61681557D-17 -0.18133384D-02
  0.12410003D-03 -0.19985523D-03  0.75755195D-04  0.96939382D-18  0.36634836D-17
  0.85171782D-03  0.12919185D-01  0.23300282D-01  0.34356251D-01  0.65795835D-02
 -0.39025466D-02 -0.53095019D-04  0.53280603D-18  0.76315519D-02  0.67725595D-02
  0.16838751D-16 -0.27477961D-02 -0.80255740D-03 -0.31875680D-17 -0.80183675D-03
 -0.76914844D-03 -0.11253619D-02 -0.36569527D-03  0.14910571D-02  0.72339752D-17
  0.50368827D-17  0.18133384D-02  0.12410003D-03 -0.19985523D-03  0.75755195D-04
  0.18408875D-17  0.14882921D-17 -0.85171782D-03
MO    4     MO 0.0        OCC NO =    2.0000000  ORB. ENERGY =   -0.522095
  0.57062793D-02  0.10637802D-01  0.17979759D-01  0.27029468D-01  0.33208824D-01
  0.28050161D-01  0.10579489D-01 -0.52358479D-04  0.33582883D-01  0.62877753D-01
  0.10705475D+00  0.16559743D+00  0.21808598D+00  0.22660531D+00  0.14399750D+00
 -0.96503776D-01 -0.46435411D-01 -0.35833243D-01 -0.37179749D-02 -0.30211723D-15
 -0.28325411D-15 -0.20169380D-15 -0.60413074D-13 -0.56641097D-13 -0.40331835D-13
 -0.20378330D+00 -0.19105979D+00 -0.13604596D+00 -0.12476538D-15  0.24535421D-12
 -0.38081336D-01 -0.78158328D-16  0.46088912D-11 -0.80122154D-02  0.39078046D-18
 -0.26794472D-12  0.90815151D-04  0.67331707D-02 -0.10230981D-01  0.34978099D-02
  0.43278694D-16  0.93398794D-17 -0.18210994D-12  0.16563086D-02 -0.62943337D-03
 -0.10268752D-02  0.49275359D-17  0.52951659D-16  0.31280141D-11  0.20391464D-03
 -0.31449436D-03  0.11057972D-03 -0.58816552D-18  0.50045395D-18  0.69591156D-11
  0.54036130D-18  0.13639974D-12  0.25903274D-03  0.13305434D-16 -0.27819272D-13
  0.24538802D-03 -0.14926518D-16 -0.38137995D-12 -0.10224862D-02  0.10207336D-16
  0.54231355D-17  0.39836520D-12  0.85760877D-03 -0.27487188D-17 -0.28234997D-12
  0.76423071D-03 -0.13520688D-16 -0.91274564D-12 -0.33370570D-02 -0.48696579D-17
 -0.57062793D-02 -0.10637802D-01 -0.17979759D-01 -0.27029468D-01 -0.33208824D-01
 -0.28050161D-01 -0.10579489D-01  0.52358479D-04 -0.33582883D-01 -0.62877753D-01
 -0.10705475D+00 -0.16559743D+00 -0.21808598D+00 -0.22660531D+00 -0.14399750D+00
  0.96503776D-01  0.46435411D-01  0.35833243D-01  0.37179749D-02  0.33319459D-17
  0.31239111D-17  0.22244108D-17  0.10987091D-12  0.10301096D-12  0.73349942D-13
 -0.20378330D+00 -0.19105979D+00 -0.13604596D+00  0.50161383D-16 -0.48043421D-12
 -0.38081336D-01  0.18980295D-16 -0.50515972D-11 -0.80122154D-02  0.93978868D-18
  0.25405355D-12  0.90815151D-04 -0.67331707D-02  0.10230981D-01 -0.34978099D-02
 -0.48017656D-17 -0.12231093D-15 -0.16582637D-12 -0.16563086D-02  0.62943337D-03
  0.10268752D-02  0.74279915D-17  0.56490509D-16  0.33843032D-11 -0.20391464D-03
  0.31449436D-03 -0.11057972D-03 -0.23464023D-18 -0.68188142D-18  0.70295859D-11
  0.42863074D-19 -0.14505608D-12  0.25903274D-03  0.73679263D-17  0.62417664D-13
  0.24538802D-03 -0.74965156D-17  0.37275058D-12 -0.10224862D-02 -0.28379464D-17
 -0.20022325D-17 -0.39182924D-12  0.85760877D-03 -0.12971497D-16  0.31083295D-12
  0.76423071D-03  0.18978194D-16  0.86465477D-12 -0.33370570D-02 -0.21539664D-17
 -0.22818865D-01 -0.41154763D-01 -0.60682673D-01 -0.27381165D-01  0.34220563D-02
  0.55664993D-04 -0.20557563D-16  0.16975104D-01  0.65971691D-02  0.37258543D-17
  0.38393734D-02  0.11022895D-02  0.12050320D-16 -0.70224752D-03 -0.49970859D-03
  0.22629283D-02 -0.37885629D-02  0.15256346D-02  0.13870860D-16  0.87049731D-17
 -0.47821520D-02  0.33189998D-03 -0.20547410D-03 -0.12642588D-03 -0.16167334D-18
  0.24615666D-17 -0.74730231D-04 -0.22818865D-01 -0.41154763D-01 -0.60682673D-01
 -0.27381165D-01  0.34220563D-02  0.55664993D-04 -0.15726539D-16 -0.16975104D-01
  0.65971691D-02  0.14322142D-17 -0.38393734D-02  0.11022895D-02  0.10629985D-16
  0.70224753D-03 -0.49970860D-03  0.22629283D-02 -0.37885629D-02  0.15256346D-02
 -0.47904783D-17  0.59878072D-17  0.47821520D-02  0.33189998D-03 -0.20547410D-03
 -0.12642588D-03  0.15905730D-17 -0.34995101D-17  0.74730230D-04  0.22818865D-01
  0.41154763D-01  0.60682673D-01  0.27381165D-01 -0.34220563D-02 -0.55664993D-04
  0.32213252D-17 -0.16975104D-01  0.65971691D-02  0.19049598D-16 -0.38393734D-02
  0.11022895D-02  0.85847632D-18  0.70224752D-03 -0.49970859D-03 -0.22629283D-02
  0.37885629D-02 -0.15256346D-02 -0.18311322D-16  0.24233595D-17 -0.47821520D-02
 -0.33189998D-03  0.20547410D-03  0.12642588D-03  0.35238828D-17  0.10844386D-16
 -0.74730231D-04  0.22818865D-01  0.41154763D-01  0.60682673D-01  0.27381165D-01
 -0.34220563D-02 -0.55664993D-04 -0.35971198D-17  0.16975104D-01  0.65971691D-02
  0.33000045D-16  0.38393734D-02  0.11022895D-02  0.14255381D-17 -0.70224753D-03
 -0.49970860D-03 -0.22629283D-02  0.37885629D-02 -0.15256346D-02  0.18342764D-16
 -0.52960911D-17  0.47821520D-02 -0.33189998D-03  0.20547410D-03  0.12642588D-03
  0.27471978D-17  0.17764771D-16  0.74730230D-04
MO    5     MO 0.0        OCC NO =    2.0000000  ORB. ENERGY =   -0.421001
  0.71132288D-14  0.13260676D-13  0.22412878D-13  0.33693897D-13  0.41396846D-13
  0.34966254D-13  0.13187985D-13 -0.65268072D-16 -0.59207401D-14 -0.11085494D-13
 -0.18874001D-13 -0.29195210D-13 -0.38449065D-13 -0.39951041D-13 -0.25387093D-13
  0.17013839D-13  0.65901098D-13  0.49225830D-13  0.45007081D-12  0.23326261D-16
  0.21869853D-16  0.15572638D-16  0.40930370D+00  0.38374823D+00  0.27325160D+00
  0.60607763D-13  0.56823630D-13  0.40461810D-13  0.23390902D-16  0.91715264D-01
 -0.31385805D-12  0.69486235D-17  0.10883205D-01 -0.51643351D-12 -0.25291653D-17
  0.76763695D-04 -0.49111270D-13 -0.38093617D-14 -0.16771713D-13  0.20581075D-13
 -0.58633913D-16 -0.14793081D-15  0.15985040D-02  0.50192239D-13 -0.11851846D-12
  0.68326220D-13  0.10560963D-16 -0.13656514D-15  0.10981084D-02 -0.95883106D-14
 -0.42754737D-13  0.52343048D-13 -0.77734859D-17 -0.26520743D-16  0.38662793D-03
 -0.86522198D-16 -0.21205041D-02 -0.44479318D-14  0.26291451D-15 -0.40225702D-02
  0.35563973D-13 -0.33479177D-17  0.10384083D-01 -0.22220177D-13 -0.19630110D-15
  0.31451478D-17 -0.14020701D-03  0.15122420D-13 -0.49669814D-16 -0.14520660D-03
  0.91854174D-14  0.40234370D-16  0.56582763D-03 -0.54552676D-13  0.13781025D-16
  0.69105730D-14  0.12882879D-13  0.21774335D-13  0.32733958D-13  0.40217450D-13
  0.33970066D-13  0.12812259D-13 -0.63408585D-16 -0.55618932D-14 -0.10413619D-13
 -0.17730077D-13 -0.27425733D-13 -0.36118726D-13 -0.37529670D-13 -0.23848421D-13
  0.15982657D-13  0.11071839D-12 -0.18519393D-11 -0.58543943D-12 -0.56579716D-16
 -0.53047080D-16 -0.37772681D-16  0.40930370D+00  0.38374823D+00  0.27325160D+00
 -0.53401637D-14 -0.50067429D-14 -0.35650992D-14 -0.17140216D-15  0.91715264D-01
  0.50317805D-13 -0.40327710D-16  0.10883205D-01 -0.23725480D-12  0.18056922D-16
  0.76763695D-04 -0.45526276D-13 -0.77948534D-14 -0.48394204D-14  0.12634274D-13
 -0.17560271D-15  0.32303822D-15 -0.15985040D-02  0.13841373D-12 -0.69013546D-13
 -0.69400189D-13  0.10812205D-15 -0.17014560D-15 -0.10981084D-02  0.15860803D-13
 -0.84282943D-14 -0.74325083D-14  0.10284142D-16 -0.48794628D-17 -0.38662793D-03
  0.15285218D-16 -0.21205041D-02 -0.29660910D-13 -0.42985335D-16 -0.40225702D-02
  0.12731832D-14 -0.28703178D-17  0.10384083D-01  0.87709548D-13 -0.25595792D-17
  0.37028059D-17 -0.14020701D-03 -0.22296520D-13  0.24812666D-17 -0.14520660D-03
 -0.43308382D-14 -0.13589684D-16  0.56582763D-03  0.71220399D-13 -0.56059400D-16
  0.24449087D-01  0.44094936D-01  0.65017957D-01  0.36467754D-01  0.97734836D-03
 -0.28681756D-04 -0.27809620D-16 -0.10815407D-01 -0.13875210D-01  0.46867966D-16
  0.19206847D-02 -0.37642016D-02  0.66860501D-16  0.92106276D-03  0.18926378D-03
 -0.16992191D-02 -0.15464111D-02  0.32456302D-02  0.64302811D-16  0.37027027D-16
  0.71776371D-02  0.23170089D-04 -0.25026360D-03  0.22709352D-03 -0.21797012D-16
 -0.11299718D-16 -0.19234879D-03 -0.24449087D-01 -0.44094936D-01 -0.65017957D-01
 -0.36467754D-01 -0.97734836D-03  0.28681756D-04 -0.50404177D-17 -0.10815407D-01
  0.13875210D-01 -0.64853317D-16  0.19206847D-02  0.37642016D-02 -0.28924018D-17
  0.92106276D-03 -0.18926378D-03  0.16992191D-02  0.15464111D-02 -0.32456302D-02
 -0.83928481D-16  0.42176287D-16  0.71776371D-02 -0.23170088D-04  0.25026360D-03
 -0.22709352D-03  0.91687612D-17 -0.34853404D-16 -0.19234879D-03  0.24449087D-01
  0.44094936D-01  0.65017957D-01  0.36467754D-01  0.97734836D-03 -0.28681756D-04
  0.16993823D-16 -0.10815407D-01  0.13875210D-01 -0.16133097D-16  0.19206847D-02
  0.37642016D-02 -0.48178090D-16  0.92106276D-03 -0.18926378D-03 -0.16992191D-02
 -0.15464111D-02  0.32456302D-02 -0.61585879D-16  0.70806332D-16 -0.71776371D-02
  0.23170089D-04 -0.25026360D-03  0.22709352D-03  0.28907869D-16 -0.25722141D-16
  0.19234879D-03 -0.24449087D-01 -0.44094936D-01 -0.65017957D-01 -0.36467754D-01
 -0.97734836D-03  0.28681756D-04 -0.29439292D-16 -0.10815407D-01 -0.13875210D-01
  0.41940721D-16  0.19206847D-02 -0.37642016D-02 -0.19044544D-16  0.92106276D-03
  0.18926378D-03  0.16992191D-02  0.15464111D-02 -0.32456302D-02  0.62257518D-16
  0.39001596D-16 -0.71776371D-02 -0.23170088D-04  0.25026360D-03 -0.22709352D-03
  0.83497765D-18 -0.78254601D-17  0.19234879D-03
MO    6     MO 0.0        OCC NO =    2.0000000  ORB. ENERGY =   -0.373869
  0.25457573D-03  0.47458704D-03  0.80213570D-03  0.12058727D-02  0.14815540D-02
  0.12514092D-02  0.47198549D-03 -0.23358825D-05  0.37030159D-02  0.69332141D-02
  0.11804390D-01  0.18259597D-01  0.24047247D-01  0.24986630D-01  0.15877881D-01
 -0.10640987D-01 -0.51504099D-02  0.10725580D-01  0.91445434D-03 -0.10940010D-15
 -0.10256955D-15 -0.73035631D-16 -0.48392301D-13 -0.45370858D-13 -0.32306754D-13
  0.52508832D+00  0.49230367D+00  0.35054954D+00 -0.86407267D-16  0.17493599D-12
  0.10865260D+00  0.26619209D-16  0.15038238D-11  0.12410768D-01 -0.12104862D-16
 -0.75579980D-13  0.14999195D-03  0.36608022D-02  0.19594935D-01 -0.23255738D-01
  0.43912077D-15 -0.34947859D-15 -0.44242454D-13 -0.64849607D-03  0.24917343D-02
 -0.18432382D-02 -0.12698314D-15 -0.51272020D-16  0.98064294D-12 -0.34539418D-04
  0.26184668D-03 -0.22730726D-03  0.22434717D-18 -0.16971493D-17  0.19211605D-11
 -0.67143093D-19  0.43639010D-13  0.39180943D-02  0.10632560D-16 -0.20040255D-13
 -0.63528955D-02 -0.10431131D-16 -0.11087678D-12 -0.54013873D-02  0.16384148D-17
 -0.42919502D-17  0.11476956D-12 -0.14017915D-03 -0.78893409D-17 -0.92980682D-13
 -0.16913179D-03  0.20765191D-16 -0.25132799D-12  0.58966924D-03 -0.19702886D-16
  0.25457573D-03  0.47458704D-03  0.80213570D-03  0.12058727D-02  0.14815540D-02
  0.12514092D-02  0.47198549D-03 -0.23358825D-05  0.37030159D-02  0.69332141D-02
  0.11804390D-01  0.18259597D-01  0.24047247D-01  0.24986630D-01  0.15877881D-01
 -0.10640987D-01 -0.51504099D-02  0.10725580D-01  0.91445433D-03  0.98026690D-16
  0.91906253D-16  0.65442727D-16  0.29511322D-13  0.27668740D-13  0.19701792D-13
 -0.52508832D+00 -0.49230367D+00 -0.35054954D+00 -0.63059397D-16 -0.14563209D-12