 Molden2AIM, Version 4.0.0 (06/02/2016)           Time: Fri Jun 29 04:18:59 2018
GAUSSIAN             33 MOL ORBITALS    671 PRIMITIVES        9 NUCLEI
  C    1    (CENTRE  1)  -2.43874259  1.99841372 -0.00000189  CHARGE =  6.0
  H    2    (CENTRE  2)  -3.82641194  0.43169093  0.00000189  CHARGE =  1.0
  O    3    (CENTRE  3)  -3.00452281  4.22233791  0.00000000  CHARGE =  8.0
  N    4    (CENTRE  4)   0.00499833  1.16769768  0.00000000  CHARGE =  7.0
  C    5    (CENTRE  5)   2.18275462  2.81812211  0.00000000  CHARGE =  6.0
  H    6    (CENTRE  6)   1.45389670  4.75698112  0.00000000  CHARGE =  1.0
  H    7    (CENTRE  7)   3.33765885  2.50350917  1.69486890  CHARGE =  1.0
  H    8    (CENTRE  8)   3.33765885  2.50350917 -1.69486702  CHARGE =  1.0
  Br   9    (CENTRE  9)   0.61742077 -2.29684116  0.00000000  CHARGE = 35.0
CENTRE ASSIGNMENTS    1  1  1  1  1  1  1  1  1  1  1  1  1  1  1  1  1  1  1  1
CENTRE ASSIGNMENTS    1  1  1  1  1  1  1  1  1  1  1  1  1  1  1  1  1  1  1  1
CENTRE ASSIGNMENTS    1  1  1  1  1  1  1  1  1  1  1  1  1  1  1  1  1  1  1  1
CENTRE ASSIGNMENTS    1  1  1  1  1  1  1  1  1  1  1  1  1  1  1  2  2  2  2  2
CENTRE ASSIGNMENTS    2  2  2  2  2  2  2  2  2  2  2  2  2  2  2  2  2  2  2  2
CENTRE ASSIGNMENTS    2  2  3  3  3  3  3  3  3  3  3  3  3  3  3  3  3  3  3  3
CENTRE ASSIGNMENTS    3  3  3  3  3  3  3  3  3  3  3  3  3  3  3  3  3  3  3  3
CENTRE ASSIGNMENTS    3  3  3  3  3  3  3  3  3  3  3  3  3  3  3  3  3  3  3  3
CENTRE ASSIGNMENTS    3  3  3  3  3  3  3  3  3  3  3  3  3  3  3  3  3  4  4  4
CENTRE ASSIGNMENTS    4  4  4  4  4  4  4  4  4  4  4  4  4  4  4  4  4  4  4  4
CENTRE ASSIGNMENTS    4  4  4  4  4  4  4  4  4  4  4  4  4  4  4  4  4  4  4  4
CENTRE ASSIGNMENTS    4  4  4  4  4  4  4  4  4  4  4  4  4  4  4  4  4  4  4  4
CENTRE ASSIGNMENTS    4  4  4  4  4  4  4  4  4  4  4  4  5  5  5  5  5  5  5  5
CENTRE ASSIGNMENTS    5  5  5  5  5  5  5  5  5  5  5  5  5  5  5  5  5  5  5  5
CENTRE ASSIGNMENTS    5  5  5  5  5  5  5  5  5  5  5  5  5  5  5  5  5  5  5  5
CENTRE ASSIGNMENTS    5  5  5  5  5  5  5  5  5  5  5  5  5  5  5  5  5  5  5  5
CENTRE ASSIGNMENTS    5  5  5  5  5  5  5  6  6  6  6  6  6  6  6  6  6  6  6  6
CENTRE ASSIGNMENTS    6  6  6  6  6  6  6  6  6  6  6  6  6  6  7  7  7  7  7  7
CENTRE ASSIGNMENTS    7  7  7  7  7  7  7  7  7  7  7  7  7  7  7  7  7  7  7  7
CENTRE ASSIGNMENTS    7  8  8  8  8  8  8  8  8  8  8  8  8  8  8  8  8  8  8  8
CENTRE ASSIGNMENTS    8  8  8  8  8  8  8  8  9  9  9  9  9  9  9  9  9  9  9  9
CENTRE ASSIGNMENTS    9  9  9  9  9  9  9  9  9  9  9  9  9  9  9  9  9  9  9  9
CENTRE ASSIGNMENTS    9  9  9  9  9  9  9  9  9  9  9  9  9  9  9  9  9  9  9  9
CENTRE ASSIGNMENTS    9  9  9  9  9  9  9  9  9  9  9  9  9  9  9  9  9  9  9  9
CENTRE ASSIGNMENTS    9  9  9  9  9  9  9  9  9  9  9  9  9  9  9  9  9  9  9  9
CENTRE ASSIGNMENTS    9  9  9  9  9  9  9  9  9  9  9  9  9  9  9  9  9  9  9  9
CENTRE ASSIGNMENTS    9  9  9  9  9  9  9  9  9  9  9  9  9  9  9  9  9  9  9  9
CENTRE ASSIGNMENTS    9  9  9  9  9  9  9  9  9  9  9  9  9  9  9  9  9  9  9  9
CENTRE ASSIGNMENTS    9  9  9  9  9  9  9  9  9  9  9  9  9  9  9  9  9  9  9  9
CENTRE ASSIGNMENTS    9  9  9  9  9  9  9  9  9  9  9  9  9  9  9  9  9  9  9  9
CENTRE ASSIGNMENTS    9  9  9  9  9  9  9  9  9  9  9  9  9  9  9  9  9  9  9  9
CENTRE ASSIGNMENTS    9  9  9  9  9  9  9  9  9  9  9  9  9  9  9  9  9  9  9  9
CENTRE ASSIGNMENTS    9  9  9  9  9  9  9  9  9  9  9  9  9  9  9  9  9  9  9  9
CENTRE ASSIGNMENTS    9  9  9  9  9  9  9  9  9  9  9
TYPE ASSIGNMENTS      1  1  1  1  1  1  1  1  1  1  1  1  1  1  1  1  1  1  1  2
TYPE ASSIGNMENTS      2  2  3  3  3  4  4  4  2  3  4  2  3  4  2  3  4  5  6  7
TYPE ASSIGNMENTS      8  9 10  5  6  7  8  9 10  5  6  7  8  9 10 11 12 13 17 14
TYPE ASSIGNMENTS     15 18 19 16 20 11 12 13 17 14 15 18 19 16 20  1  1  1  1  1
TYPE ASSIGNMENTS      1  2  3  4  2  3  4  2  3  4  5  6  7  8  9 10  5  6  7  8
TYPE ASSIGNMENTS      9 10  1  1  1  1  1  1  1  1  1  1  1  1  1  1  1  1  1  1
TYPE ASSIGNMENTS      1  2  2  2  3  3  3  4  4  4  2  3  4  2  3  4  2  3  4  5
TYPE ASSIGNMENTS      6  7  8  9 10  5  6  7  8  9 10  5  6  7  8  9 10 11 12 13
TYPE ASSIGNMENTS     17 14 15 18 19 16 20 11 12 13 17 14 15 18 19 16 20  1  1  1
TYPE ASSIGNMENTS      1  1  1  1  1  1  1  1  1  1  1  1  1  1  1  1  2  2  2  3
TYPE ASSIGNMENTS      3  3  4  4  4  2  3  4  2  3  4  2  3  4  5  6  7  8  9 10
TYPE ASSIGNMENTS      5  6  7  8  9 10  5  6  7  8  9 10 11 12 13 17 14 15 18 19
TYPE ASSIGNMENTS     16 20 11 12 13 17 14 15 18 19 16 20  1  1  1  1  1  1  1  1
TYPE ASSIGNMENTS      1  1  1  1  1  1  1  1  1  1  1  2  2  2  3  3  3  4  4  4
TYPE ASSIGNMENTS      2  3  4  2  3  4  2  3  4  5  6  7  8  9 10  5  6  7  8  9
TYPE ASSIGNMENTS     10  5  6  7  8  9 10 11 12 13 17 14 15 18 19 16 20 11 12 13
TYPE ASSIGNMENTS     17 14 15 18 19 16 20  1  1  1  1  1  1  2  3  4  2  3  4  2
TYPE ASSIGNMENTS      3  4  5  6  7  8  9 10  5  6  7  8  9 10  1  1  1  1  1  1
TYPE ASSIGNMENTS      2  3  4  2  3  4  2  3  4  5  6  7  8  9 10  5  6  7  8  9
TYPE ASSIGNMENTS     10  1  1  1  1  1  1  2  3  4  2  3  4  2  3  4  5  6  7  8
TYPE ASSIGNMENTS      9 10  5  6  7  8  9 10  1  1  1  1  1  1  1  1  1  1  1  1
TYPE ASSIGNMENTS      1  1  1  1  1  1  1  1  1  1  1  1  1  1  1  1  1  1  1  1
TYPE ASSIGNMENTS      1  1  1  1  1  1  1  1  1  1  1  1  1  1  1  1  1  1  1  1
TYPE ASSIGNMENTS      1  1  1  1  1  1  1  1  1  1  1  1  1  1  1  1  1  1  1  1
TYPE ASSIGNMENTS      1  1  1  2  2  2  2  2  2  2  2  2  2  2  3  3  3  3  3  3
TYPE ASSIGNMENTS      3  3  3  3  3  4  4  4  4  4  4  4  4  4  4  4  2  2  2  2
TYPE ASSIGNMENTS      2  2  2  2  2  2  2  3  3  3  3  3  3  3  3  3  3  3  4  4
TYPE ASSIGNMENTS      4  4  4  4  4  4  4  4  4  2  2  2  2  2  2  2  2  2  2  2
TYPE ASSIGNMENTS      3  3  3  3  3  3  3  3  3  3  3  4  4  4  4  4  4  4  4  4
TYPE ASSIGNMENTS      4  4  2  3  4  2  3  4  2  3  4  5  5  5  5  5  5  5  6  6
TYPE ASSIGNMENTS      6  6  6  6  6  7  7  7  7  7  7  7  8  8  8  8  8  8  8  9
TYPE ASSIGNMENTS      9  9  9  9  9  9 10 10 10 10 10 10 10  5  6  7  8  9 10  5
TYPE ASSIGNMENTS      6  7  8  9 10  5  6  7  8  9 10 11 12 13 17 14 15 18 19 16
TYPE ASSIGNMENTS     20 11 12 13 17 14 15 18 19 16 20
EXPONENTS  0.8236000D+04 0.1235000D+04 0.2808000D+03 0.7927000D+02 0.2559000D+02
EXPONENTS  0.8997000D+01 0.3319000D+01 0.3643000D+00 0.8236000D+04 0.1235000D+04
EXPONENTS  0.2808000D+03 0.7927000D+02 0.2559000D+02 0.8997000D+01 0.3319000D+01
EXPONENTS  0.3643000D+00 0.9059000D+00 0.1285000D+00 0.4402000D-01 0.1871000D+02
EXPONENTS  0.4133000D+01 0.1200000D+01 0.1871000D+02 0.4133000D+01 0.1200000D+01
EXPONENTS  0.1871000D+02 0.4133000D+01 0.1200000D+01 0.3827000D+00 0.3827000D+00
EXPONENTS  0.3827000D+00 0.1209000D+00 0.1209000D+00 0.1209000D+00 0.3569000D-01
EXPONENTS  0.3569000D-01 0.3569000D-01 0.1097000D+01 0.1097000D+01 0.1097000D+01
EXPONENTS  0.1097000D+01 0.1097000D+01 0.1097000D+01 0.3180000D+00 0.3180000D+00
EXPONENTS  0.3180000D+00 0.3180000D+00 0.3180000D+00 0.3180000D+00 0.1000000D+00
EXPONENTS  0.1000000D+00 0.1000000D+00 0.1000000D+00 0.1000000D+00 0.1000000D+00
EXPONENTS  0.7610000D+00 0.7610000D+00 0.7610000D+00 0.7610000D+00 0.7610000D+00
EXPONENTS  0.7610000D+00 0.7610000D+00 0.7610000D+00 0.7610000D+00 0.7610000D+00
EXPONENTS  0.2680000D+00 0.2680000D+00 0.2680000D+00 0.2680000D+00 0.2680000D+00
EXPONENTS  0.2680000D+00 0.2680000D+00 0.2680000D+00 0.2680000D+00 0.2680000D+00
EXPONENTS  0.3387000D+02 0.5095000D+01 0.1159000D+01 0.3258000D+00 0.1027000D+00
EXPONENTS  0.2526000D-01 0.1407000D+01 0.1407000D+01 0.1407000D+01 0.3880000D+00
EXPONENTS  0.3880000D+00 0.3880000D+00 0.1020000D+00 0.1020000D+00 0.1020000D+00
EXPONENTS  0.1057000D+01 0.1057000D+01 0.1057000D+01 0.1057000D+01 0.1057000D+01
EXPONENTS  0.1057000D+01 0.2470000D+00 0.2470000D+00 0.2470000D+00 0.2470000D+00
EXPONENTS  0.2470000D+00 0.2470000D+00 0.1533000D+05 0.2299000D+04 0.5224000D+03
EXPONENTS  0.1473000D+03 0.4755000D+02 0.1676000D+02 0.6207000D+01 0.6882000D+00
EXPONENTS  0.1533000D+05 0.2299000D+04 0.5224000D+03 0.1473000D+03 0.4755000D+02
EXPONENTS  0.1676000D+02 0.6207000D+01 0.6882000D+00 0.1752000D+01 0.2384000D+00
EXPONENTS  0.7376000D-01 0.3446000D+02 0.7749000D+01 0.2280000D+01 0.3446000D+02
EXPONENTS  0.7749000D+01 0.2280000D+01 0.3446000D+02 0.7749000D+01 0.2280000D+01
EXPONENTS  0.7156000D+00 0.7156000D+00 0.7156000D+00 0.2140000D+00 0.2140000D+00
EXPONENTS  0.2140000D+00 0.5974000D-01 0.5974000D-01 0.5974000D-01 0.2314000D+01
EXPONENTS  0.2314000D+01 0.2314000D+01 0.2314000D+01 0.2314000D+01 0.2314000D+01
EXPONENTS  0.6450000D+00 0.6450000D+00 0.6450000D+00 0.6450000D+00 0.6450000D+00
EXPONENTS  0.6450000D+00 0.2140000D+00 0.2140000D+00 0.2140000D+00 0.2140000D+00
EXPONENTS  0.2140000D+00 0.2140000D+00 0.1428000D+01 0.1428000D+01 0.1428000D+01
EXPONENTS  0.1428000D+01 0.1428000D+01 0.1428000D+01 0.1428000D+01 0.1428000D+01
EXPONENTS  0.1428000D+01 0.1428000D+01 0.5000000D+00 0.5000000D+00 0.5000000D+00
EXPONENTS  0.5000000D+00 0.5000000D+00 0.5000000D+00 0.5000000D+00 0.5000000D+00
EXPONENTS  0.5000000D+00 0.5000000D+00 0.1142000D+05 0.1712000D+04 0.3893000D+03
EXPONENTS  0.1100000D+03 0.3557000D+02 0.1254000D+02 0.4644000D+01 0.5118000D+00
EXPONENTS  0.1142000D+05 0.1712000D+04 0.3893000D+03 0.1100000D+03 0.3557000D+02
EXPONENTS  0.1254000D+02 0.4644000D+01 0.5118000D+00 0.1293000D+01 0.1787000D+00
EXPONENTS  0.5760000D-01 0.2663000D+02 0.5948000D+01 0.1742000D+01 0.2663000D+02
EXPONENTS  0.5948000D+01 0.1742000D+01 0.2663000D+02 0.5948000D+01 0.1742000D+01
EXPONENTS  0.5550000D+00 0.5550000D+00 0.5550000D+00 0.1725000D+00 0.1725000D+00
EXPONENTS  0.1725000D+00 0.4910000D-01 0.4910000D-01 0.4910000D-01 0.1654000D+01
EXPONENTS  0.1654000D+01 0.1654000D+01 0.1654000D+01 0.1654000D+01 0.1654000D+01
EXPONENTS  0.4690000D+00 0.4690000D+00 0.4690000D+00 0.4690000D+00 0.4690000D+00
EXPONENTS  0.4690000D+00 0.1510000D+00 0.1510000D+00 0.1510000D+00 0.1510000D+00
EXPONENTS  0.1510000D+00 0.1510000D+00 0.1093000D+01 0.1093000D+01 0.1093000D+01
EXPONENTS  0.1093000D+01 0.1093000D+01 0.1093000D+01 0.1093000D+01 0.1093000D+01
EXPONENTS  0.1093000D+01 0.1093000D+01 0.3640000D+00 0.3640000D+00 0.3640000D+00
EXPONENTS  0.3640000D+00 0.3640000D+00 0.3640000D+00 0.3640000D+00 0.3640000D+00
EXPONENTS  0.3640000D+00 0.3640000D+00 0.8236000D+04 0.1235000D+04 0.2808000D+03
EXPONENTS  0.7927000D+02 0.2559000D+02 0.8997000D+01 0.3319000D+01 0.3643000D+00
EXPONENTS  0.8236000D+04 0.1235000D+04 0.2808000D+03 0.7927000D+02 0.2559000D+02
EXPONENTS  0.8997000D+01 0.3319000D+01 0.3643000D+00 0.9059000D+00 0.1285000D+00
EXPONENTS  0.4402000D-01 0.1871000D+02 0.4133000D+01 0.1200000D+01 0.1871000D+02
EXPONENTS  0.4133000D+01 0.1200000D+01 0.1871000D+02 0.4133000D+01 0.1200000D+01
EXPONENTS  0.3827000D+00 0.3827000D+00 0.3827000D+00 0.1209000D+00 0.1209000D+00
EXPONENTS  0.1209000D+00 0.3569000D-01 0.3569000D-01 0.3569000D-01 0.1097000D+01
EXPONENTS  0.1097000D+01 0.1097000D+01 0.1097000D+01 0.1097000D+01 0.1097000D+01
EXPONENTS  0.3180000D+00 0.3180000D+00 0.3180000D+00 0.3180000D+00 0.3180000D+00
EXPONENTS  0.3180000D+00 0.1000000D+00 0.1000000D+00 0.1000000D+00 0.1000000D+00
EXPONENTS  0.1000000D+00 0.1000000D+00 0.7610000D+00 0.7610000D+00 0.7610000D+00
EXPONENTS  0.7610000D+00 0.7610000D+00 0.7610000D+00 0.7610000D+00 0.7610000D+00
EXPONENTS  0.7610000D+00 0.7610000D+00 0.2680000D+00 0.2680000D+00 0.2680000D+00
EXPONENTS  0.2680000D+00 0.2680000D+00 0.2680000D+00 0.2680000D+00 0.2680000D+00
EXPONENTS  0.2680000D+00 0.2680000D+00 0.3387000D+02 0.5095000D+01 0.1159000D+01
EXPONENTS  0.3258000D+00 0.1027000D+00 0.2526000D-01 0.1407000D+01 0.1407000D+01
EXPONENTS  0.1407000D+01 0.3880000D+00 0.3880000D+00 0.3880000D+00 0.1020000D+00
EXPONENTS  0.1020000D+00 0.1020000D+00 0.1057000D+01 0.1057000D+01 0.1057000D+01
EXPONENTS  0.1057000D+01 0.1057000D+01 0.1057000D+01 0.2470000D+00 0.2470000D+00
EXPONENTS  0.2470000D+00 0.2470000D+00 0.2470000D+00 0.2470000D+00 0.3387000D+02
EXPONENTS  0.5095000D+01 0.1159000D+01 0.3258000D+00 0.1027000D+00 0.2526000D-01
EXPONENTS  0.1407000D+01 0.1407000D+01 0.1407000D+01 0.3880000D+00 0.3880000D+00
EXPONENTS  0.3880000D+00 0.1020000D+00 0.1020000D+00 0.1020000D+00 0.1057000D+01
EXPONENTS  0.1057000D+01 0.1057000D+01 0.1057000D+01 0.1057000D+01 0.1057000D+01
EXPONENTS  0.2470000D+00 0.2470000D+00 0.2470000D+00 0.2470000D+00 0.2470000D+00
EXPONENTS  0.2470000D+00 0.3387000D+02 0.5095000D+01 0.1159000D+01 0.3258000D+00
EXPONENTS  0.1027000D+00 0.2526000D-01 0.1407000D+01 0.1407000D+01 0.1407000D+01
EXPONENTS  0.3880000D+00 0.3880000D+00 0.3880000D+00 0.1020000D+00 0.1020000D+00
EXPONENTS  0.1020000D+00 0.1057000D+01 0.1057000D+01 0.1057000D+01 0.1057000D+01
EXPONENTS  0.1057000D+01 0.1057000D+01 0.2470000D+00 0.2470000D+00 0.2470000D+00
EXPONENTS  0.2470000D+00 0.2470000D+00 0.2470000D+00 0.1063900D+08 0.1593400D+07
EXPONENTS  0.3626100D+06 0.1027000D+06 0.3350100D+05 0.1209300D+05 0.4715900D+04
EXPONENTS  0.1955600D+04 0.8526100D+03 0.3876700D+03 0.1826800D+03 0.8824500D+02
EXPONENTS  0.3926300D+02 0.1923400D+02 0.9405700D+01 0.4160100D+01 0.1899500D+01
EXPONENTS  0.3011400D+00 0.1063900D+08 0.1593400D+07 0.3626100D+06 0.1027000D+06
EXPONENTS  0.3350100D+05 0.1209300D+05 0.4715900D+04 0.1955600D+04 0.8526100D+03
EXPONENTS  0.3876700D+03 0.1826800D+03 0.8824500D+02 0.3926300D+02 0.1923400D+02
EXPONENTS  0.9405700D+01 0.4160100D+01 0.1899500D+01 0.3011400D+00 0.1063900D+08
EXPONENTS  0.1593400D+07 0.3626100D+06 0.1027000D+06 0.3350100D+05 0.1209300D+05
EXPONENTS  0.4715900D+04 0.1955600D+04 0.8526100D+03 0.3876700D+03 0.1826800D+03
EXPONENTS  0.8824500D+02 0.3926300D+02 0.1923400D+02 0.9405700D+01 0.4160100D+01
EXPONENTS  0.1899500D+01 0.3011400D+00 0.1063900D+08 0.1593400D+07 0.3626100D+06
EXPONENTS  0.1027000D+06 0.3350100D+05 0.1209300D+05 0.4715900D+04 0.1955600D+04
EXPONENTS  0.8526100D+03 0.3876700D+03 0.1826800D+03 0.8824500D+02 0.3926300D+02
EXPONENTS  0.1923400D+02 0.9405700D+01 0.4160100D+01 0.1899500D+01 0.3011400D+00
EXPONENTS  0.6047200D+00 0.1251500D+00 0.4559300D-01 0.8676500D+04 0.2055900D+04
EXPONENTS  0.6662300D+03 0.2531000D+03 0.1061200D+03 0.4724200D+02 0.2182500D+02
EXPONENTS  0.9968400D+01 0.4517100D+01 0.1998200D+01 0.2814500D+00 0.8676500D+04
EXPONENTS  0.2055900D+04 0.6662300D+03 0.2531000D+03 0.1061200D+03 0.4724200D+02
EXPONENTS  0.2182500D+02 0.9968400D+01 0.4517100D+01 0.1998200D+01 0.2814500D+00
EXPONENTS  0.8676500D+04 0.2055900D+04 0.6662300D+03 0.2531000D+03 0.1061200D+03
EXPONENTS  0.4724200D+02 0.2182500D+02 0.9968400D+01 0.4517100D+01 0.1998200D+01
EXPONENTS  0.2814500D+00 0.8676500D+04 0.2055900D+04 0.6662300D+03 0.2531000D+03
EXPONENTS  0.1061200D+03 0.4724200D+02 0.2182500D+02 0.9968400D+01 0.4517100D+01
EXPONENTS  0.1998200D+01 0.2814500D+00 0.8676500D+04 0.2055900D+04 0.6662300D+03
EXPONENTS  0.2531000D+03 0.1061200D+03 0.4724200D+02 0.2182500D+02 0.9968400D+01
EXPONENTS  0.4517100D+01 0.1998200D+01 0.2814500D+00 0.8676500D+04 0.2055900D+04
EXPONENTS  0.6662300D+03 0.2531000D+03 0.1061200D+03 0.4724200D+02 0.2182500D+02
EXPONENTS  0.9968400D+01 0.4517100D+01 0.1998200D+01 0.2814500D+00 0.8676500D+04
EXPONENTS  0.2055900D+04 0.6662300D+03 0.2531000D+03 0.1061200D+03 0.4724200D+02
EXPONENTS  0.2182500D+02 0.9968400D+01 0.4517100D+01 0.1998200D+01 0.2814500D+00
EXPONENTS  0.8676500D+04 0.2055900D+04 0.6662300D+03 0.2531000D+03 0.1061200D+03
EXPONENTS  0.4724200D+02 0.2182500D+02 0.9968400D+01 0.4517100D+01 0.1998200D+01
EXPONENTS  0.2814500D+00 0.8676500D+04 0.2055900D+04 0.6662300D+03 0.2531000D+03
EXPONENTS  0.1061200D+03 0.4724200D+02 0.2182500D+02 0.9968400D+01 0.4517100D+01
EXPONENTS  0.1998200D+01 0.2814500D+00 0.7098800D+00 0.7098800D+00 0.7098800D+00
EXPONENTS  0.1020400D+00 0.1020400D+00 0.1020400D+00 0.3514200D-01 0.3514200D-01
EXPONENTS  0.3514200D-01 0.4038300D+03 0.1211700D+03 0.4634500D+02 0.1972100D+02
EXPONENTS  0.8862400D+01 0.3996200D+01 0.1763600D+01 0.4038300D+03 0.1211700D+03
EXPONENTS  0.4634500D+02 0.1972100D+02 0.8862400D+01 0.3996200D+01 0.1763600D+01
EXPONENTS  0.4038300D+03 0.1211700D+03 0.4634500D+02 0.1972100D+02 0.8862400D+01
EXPONENTS  0.3996200D+01 0.1763600D+01 0.4038300D+03 0.1211700D+03 0.4634500D+02
EXPONENTS  0.1972100D+02 0.8862400D+01 0.3996200D+01 0.1763600D+01 0.4038300D+03
EXPONENTS  0.1211700D+03 0.4634500D+02 0.1972100D+02 0.8862400D+01 0.3996200D+01
EXPONENTS  0.1763600D+01 0.4038300D+03 0.1211700D+03 0.4634500D+02 0.1972100D+02
EXPONENTS  0.8862400D+01 0.3996200D+01 0.1763600D+01 0.7061900D+00 0.7061900D+00
EXPONENTS  0.7061900D+00 0.7061900D+00 0.7061900D+00 0.7061900D+00 0.2639000D+00
EXPONENTS  0.2639000D+00 0.2639000D+00 0.2639000D+00 0.2639000D+00 0.2639000D+00
EXPONENTS  0.1047000D+00 0.1047000D+00 0.1047000D+00 0.1047000D+00 0.1047000D+00
EXPONENTS  0.1047000D+00 0.5515000D+00 0.5515000D+00 0.5515000D+00 0.5515000D+00
EXPONENTS  0.5515000D+00 0.5515000D+00 0.5515000D+00 0.5515000D+00 0.5515000D+00
EXPONENTS  0.5515000D+00 0.2580000D+00 0.2580000D+00 0.2580000D+00 0.2580000D+00
EXPONENTS  0.2580000D+00 0.2580000D+00 0.2580000D+00 0.2580000D+00 0.2580000D+00
EXPONENTS  0.2580000D+00
MO    1     MO 0.0        OCC NO =    2.0000000  ORB. ENERGY = -481.063690
  0.20669928D-05  0.38533445D-05  0.65128311D-05  0.97909184D-05  0.12029275D-04
  0.10160645D-04  0.38322216D-05 -0.18965879D-07 -0.14374211D-05 -0.26913058D-05
 -0.45821784D-05 -0.70879333D-05 -0.93345588D-05 -0.96992045D-05 -0.61634090D-05
  0.41305734D-05  0.66116529D-05  0.57356242D-04 -0.17650522D-04 -0.42432036D-05
 -0.39782731D-05 -0.28327675D-05 -0.27590497D-05 -0.25867845D-05 -0.18419447D-05
 -0.11257442D-10 -0.10554568D-10 -0.75154810D-11  0.27554494D-06  0.10911392D-04
  0.39079516D-11  0.18993763D-04 -0.18181557D-04  0.32970900D-10  0.21931619D-06
  0.10203244D-05 -0.56774368D-12 -0.26154821D-05  0.15099549D-05  0.11055272D-05
  0.76473558D-07 -0.47284705D-11  0.15302405D-10 -0.15160061D-04  0.95471750D-05
  0.56128864D-05 -0.15811705D-05 -0.26727195D-10  0.12473127D-10  0.27678381D-05
 -0.37600255D-05  0.99218738D-06  0.48473320D-05 -0.68305721D-11 -0.77566282D-11
 -0.61867079D-05 -0.29090251D-05 -0.45605197D-12  0.20011866D-04  0.98825191D-05
 -0.19941794D-10 -0.14517422D-05 -0.11554437D-05  0.21309950D-10  0.27777230D-10
 -0.28572254D-05  0.13058928D-05 -0.21083821D-11  0.82112524D-05 -0.11643142D-05
 -0.33431017D-11  0.36042384D-06 -0.27533641D-05  0.96682481D-11  0.29318434D-10
  0.53376503D-06  0.96266722D-06  0.14194523D-05  0.26616802D-04 -0.35987350D-04
  0.12372622D-05  0.72155302D-05  0.62047334D-05  0.32566450D-11  0.71836172D-05
  0.44982639D-05 -0.11012363D-09 -0.35015769D-05 -0.47274174D-05 -0.86518700D-11
  0.70326162D-06  0.22443944D-05 -0.29476560D-05  0.40983396D-05 -0.78106846D-10
 -0.92352285D-10 -0.15694570D-05  0.11194278D-05  0.45002927D-06  0.27590073D-05
 -0.16785026D-10 -0.52694907D-11 -0.22694809D-05 -0.42300204D-05 -0.71727130D-05
 -0.10856235D-04 -0.13545412D-04 -0.11633702D-04 -0.44664045D-05  0.19978502D-07
  0.14094782D-05  0.26435113D-05  0.45066073D-05  0.70429500D-05  0.94177662D-05
  0.10055979D-04  0.61480281D-05 -0.40560956D-05  0.23606247D-05  0.86023555D-05
  0.32455628D-04  0.41318300D-05  0.40064853D-05  0.27027513D-05  0.25096827D-05
  0.24335480D-05  0.16416571D-05 -0.28071371D-10 -0.27219787D-10 -0.18362308D-10
 -0.51310035D-05 -0.49244820D-05  0.19088810D-10 -0.21181078D-04  0.73733294D-05
 -0.22887029D-10  0.61132935D-06 -0.22364619D-05 -0.29877225D-11  0.14013350D-05
  0.43859619D-05 -0.57872969D-05 -0.10849355D-04  0.30295122D-10  0.60003388D-11
 -0.36927701D-05  0.19609211D-05  0.17318490D-05  0.88001602D-05 -0.10891226D-10
  0.93583977D-11 -0.75719320D-06 -0.12370484D-05  0.19942416D-05  0.78841615D-05
  0.60572102D-11  0.28488384D-11 -0.39329686D-05 -0.49723267D-05  0.73839187D-11
  0.38529256D-05  0.65564493D-05  0.79873682D-11  0.79459801D-05  0.83605307D-05
 -0.30139124D-10  0.39006040D-11  0.15430365D-05  0.65211243D-06 -0.33536393D-12
 -0.34068450D-05  0.12968546D-05  0.15192255D-11 -0.12222644D-05 -0.32531919D-05
 -0.51313375D-12  0.21083046D-11 -0.67256100D-05 -0.12532184D-04 -0.21195065D-04
 -0.31918593D-04 -0.39517289D-04 -0.33627429D-04 -0.12795857D-04  0.59928458D-07
  0.48859527D-05  0.91612070D-05  0.15585939D-04  0.24203317D-04  0.32119210D-04
  0.33849238D-04  0.20988687D-04 -0.13961683D-04 -0.81375485D-05  0.41679584D-04
 -0.27961350D-04  0.72121581D-05  0.69271916D-05  0.48578249D-05 -0.34063781D-05
 -0.32717855D-05 -0.22944018D-05  0.44602214D-11  0.42839893D-11  0.30042290D-11
 -0.22607054D-04  0.23909275D-04 -0.12222468D-10  0.48678111D-04 -0.19574044D-04
  0.27973057D-10 -0.62789708D-05 -0.78005419D-05 -0.12449538D-11  0.41401887D-05
 -0.20255476D-04  0.16115287D-04  0.18644849D-04 -0.10376619D-10  0.21958939D-10
  0.57371846D-05  0.69660734D-05 -0.12703258D-04 -0.21461679D-04  0.16724439D-10
 -0.20718187D-10 -0.97175899D-05  0.14298392D-04 -0.45808016D-05 -0.30143403D-05
 -0.22382240D-10 -0.17496401D-11 -0.19792643D-05  0.39190766D-05  0.39929204D-11
  0.10115752D-05  0.52327723D-05 -0.39408777D-10  0.49262175D-05 -0.16990002D-04
  0.27430016D-10 -0.34320956D-12  0.90540166D-06 -0.95501493D-05 -0.20820611D-11
  0.10370406D-05  0.16211497D-04  0.22423597D-10 -0.37532456D-05  0.12438951D-04
 -0.16177413D-10  0.22226524D-10 -0.44377591D-05 -0.82729919D-05 -0.13982814D-04
 -0.21020749D-04 -0.25826419D-04 -0.21814540D-04 -0.82276418D-05  0.40719058D-07
  0.31609760D-05  0.59183444D-05  0.10076488D-04  0.15586794D-04  0.20527260D-04
  0.21329138D-04  0.13553710D-04 -0.90833810D-05 -0.19162381D-05 -0.35763339D-04
  0.21212930D-04 -0.33161163D-05 -0.31090698D-05 -0.22138429D-05  0.26754541D-05
  0.25084083D-05  0.17861361D-05  0.89291398D-11  0.83716361D-11  0.59611036D-11
  0.17912838D-04 -0.72257810D-05 -0.21125837D-10  0.30688729D-04  0.57010128D-05
 -0.31024214D-10 -0.45610039D-06 -0.37927357D-06  0.10280498D-11 -0.30543912D-05
  0.13522224D-05  0.17021689D-05  0.44954675D-05  0.10379473D-11 -0.56763427D-11
  0.76572503D-05 -0.90841008D-05  0.14268505D-05 -0.61041086D-05 -0.15487652D-10
  0.28461938D-10 -0.79357170D-06 -0.27260936D-05  0.35196653D-05 -0.34401708D-06
 -0.12567635D-10 -0.28107193D-11 -0.55945781D-06 -0.39038761D-05 -0.17698140D-11
 -0.55973287D-07  0.66787771D-05  0.98267769D-11  0.17343467D-05  0.50328512D-05
 -0.45173349D-11 -0.19048871D-11 -0.28286600D-05  0.11559636D-05  0.12548799D-11
  0.50702189D-05 -0.23078619D-05 -0.40738368D-11  0.34157610D-05 -0.11600291D-05
  0.30919694D-12 -0.47662232D-11 -0.94118659D-06 -0.16974688D-05 -0.25029167D-05
  0.26056372D-04  0.19570745D-04 -0.14207256D-06  0.58605808D-05 -0.75148692D-06
  0.16815818D-11  0.25893013D-05 -0.12775664D-04 -0.10232570D-10  0.25144013D-05
 -0.68526363D-06  0.32573108D-12 -0.15556413D-05  0.25158532D-05 -0.96021190D-06
 -0.74198723D-05 -0.69275183D-11  0.78389099D-11 -0.21363755D-05  0.17088010D-05
  0.42757444D-06 -0.27553592D-05  0.21414531D-11  0.30449300D-11 -0.86634989D-06
 -0.15624977D-05 -0.23039019D-05 -0.38773896D-05 -0.13764226D-04 -0.37346144D-06
  0.34416019D-05  0.97207891D-06  0.10255778D-06 -0.50033750D-05 -0.21177314D-05
  0.26542088D-05 -0.43235161D-06 -0.29485212D-05  0.88888572D-07  0.24932382D-05
  0.31501240D-06 -0.28082506D-05  0.40202720D-05  0.28829075D-05  0.12158540D-05
  0.82592058D-06 -0.21771310D-06 -0.60820748D-06 -0.59892485D-06 -0.12415105D-05
 -0.84846194D-06 -0.86635008D-06 -0.15624981D-05 -0.23039025D-05 -0.38774529D-05
 -0.13764407D-04 -0.37346005D-06  0.34416027D-05  0.97207117D-06 -0.10255544D-06
 -0.50033602D-05 -0.21177184D-05 -0.26542323D-05 -0.43234381D-06 -0.29485313D-05
 -0.88909389D-07  0.24932345D-05  0.31501514D-06 -0.28082497D-05  0.40202683D-05
 -0.28829005D-05 -0.12158432D-05  0.82592169D-06 -0.21771527D-06 -0.60820641D-06
 -0.59893367D-06  0.12415162D-05  0.84846445D-06  0.78329214D+00  0.14734679D+01
  0.25506456D+01  0.41809962D+01  0.65496115D+01  0.98446239D+01  0.14070441D+02
  0.18678860D+02  0.21754069D+02  0.19980902D+02  0.11683619D+02  0.30658401D+01
  0.16760828D+00 -0.59990272D-02  0.16765388D-02 -0.49782094D-03  0.84869851D-04
  0.69242125D-05  0.10806017D-03  0.19854002D-03  0.34332145D-03  0.56223685D-03
  0.88521666D-03  0.13367639D-02  0.19512670D-02  0.26870132D-02  0.34332836D-02
  0.37426814D-02  0.30808031D-02  0.84473528D-03 -0.17038858D-02 -0.16605112D-02
 -0.36336662D-03 -0.12241487D-04 -0.41470247D-06  0.10549496D-08 -0.71019441D-04
 -0.13922655D-03 -0.24385186D-03 -0.39837458D-03 -0.62833267D-03 -0.94812594D-03
 -0.13901410D-02 -0.19193196D-02 -0.24884074D-02 -0.27672555D-02 -0.24035317D-02
 -0.69818298D-03  0.17601108D-02  0.25646055D-02  0.44150601D-03 -0.10770856D-02
 -0.51266560D-03  0.24758187D-05  0.26229406D-04  0.56832788D-04  0.96748809D-04
  0.15792011D-03  0.24894556D-03  0.37573075D-03  0.55088251D-03  0.76155596D-03
  0.98842323D-03  0.11042416D-02  0.96458004D-03  0.28570955D-03 -0.74268070D-03
 -0.11424939D-02 -0.19997133D-03  0.63079850D-03  0.53545253D-03 -0.19977255D-03
  0.18013751D-03  0.27942801D-04  0.14966327D-05  0.76665903D-04  0.11000200D-03
  0.14564849D-03  0.16818274D-03  0.15591314D-03  0.10094101D-03  0.35628469D-04
  0.41759638D-05  0.60710785D-07  0.88904186D-08  0.91407310D-10 -0.46164600D-03
 -0.66238028D-03 -0.87702670D-03 -0.10127174D-02 -0.93883557D-03 -0.60781927D-03
 -0.21453788D-03 -0.25145689D-04 -0.36557178D-06 -0.53533918D-07 -0.55041182D-09
  0.61536814D-10  0.88294432D-10  0.11690652D-09  0.13499391D-09  0.12514557D-09
  0.81021520D-10  0.28597621D-10  0.33518878D-11  0.48730245D-13  0.71360019D-14
  0.73369182D-16 -0.53027805D-03 -0.76546246D-03 -0.10226395D-02 -0.12149272D-02
 -0.11773575D-02 -0.81841368D-03 -0.26630396D-03  0.11985792D-03  0.12948654D-03
  0.33335912D-04 -0.32516104D-07  0.29567361D-02  0.42680825D-02  0.57020562D-02
  0.67742177D-02  0.65647362D-02  0.45633291D-02  0.14848635D-02 -0.66830642D-03
 -0.72199390D-03 -0.18587512D-03  0.18130402D-06 -0.35601008D-09 -0.51390464D-09
 -0.68656432D-09 -0.81565947D-09 -0.79043655D-09 -0.54945423D-09 -0.17878714D-09
  0.80468400D-10  0.86932719D-10  0.22380562D-10 -0.21830172D-13  0.38895996D-03
  0.56517607D-03  0.75140814D-03  0.90163775D-03  0.87233852D-03  0.61925877D-03
  0.19246718D-03 -0.11050252D-03 -0.12694286D-03 -0.33710792D-04  0.12162959D-04
 -0.21558352D-02 -0.31325242D-02 -0.41647273D-02 -0.49973845D-02 -0.48349916D-02
 -0.34322810D-02 -0.10667616D-02  0.61246720D-03  0.70358885D-03  0.18684420D-03
 -0.67413971D-04  0.25249897D-09  0.36689221D-09  0.48778745D-09  0.58531117D-09
  0.56629114D-09  0.40200078D-09  0.12494285D-09 -0.71734304D-10 -0.82406790D-10
 -0.21883848D-10  0.78957604D-11 -0.51814127D-05  0.31985803D-04 -0.62172837D-11
 -0.13243230D-05  0.14460766D-04 -0.57463604D-11  0.67708404D-07  0.33014332D-06
 -0.49283513D-12 -0.73935967D-04 -0.77366024D-04 -0.65919993D-04 -0.43413299D-04
 -0.20007897D-04 -0.59913971D-05 -0.10193854D-05  0.27852192D-03  0.29144318D-03
  0.24832519D-03  0.16354091D-03  0.75371137D-04  0.22570009D-04  0.38400957D-05
 -0.20458595D-03 -0.21407716D-03 -0.18240520D-03 -0.12012761D-03 -0.55363240D-04
 -0.16578612D-04 -0.28207102D-05 -0.13435356D-03 -0.14058652D-03 -0.11978724D-03
 -0.78888954D-04 -0.36357570D-04 -0.10887333D-04 -0.18523874D-05  0.88391235D-10
  0.92491903D-10  0.78808052D-10  0.51901060D-10  0.23919653D-10  0.71627789D-11
  0.12186861D-11 -0.55199789D-10 -0.57760631D-10 -0.49215149D-10 -0.32411897D-10
 -0.14937678D-10 -0.44731119D-11 -0.76106207D-12  0.32783255D-05 -0.14539299D-04
  0.11260974D-04  0.68366727D-05 -0.59393581D-11  0.18151968D-11  0.52502337D-05
 -0.78450703D-05  0.25948366D-05  0.60083003D-05  0.31597370D-11  0.43983082D-11
 -0.48307370D-06  0.22765016D-05 -0.17934279D-05 -0.98949288D-06  0.19840090D-11
 -0.25365862D-11 -0.12427138D-05 -0.69614040D-05 -0.25978792D-11  0.68066844D-05
  0.39913548D-05  0.59580163D-12 -0.30785430D-05  0.16892857D-04  0.71978359D-11
 -0.13791477D-10 -0.29006976D-06  0.10560525D-05  0.55629969D-12  0.12867277D-06
  0.12814325D-05 -0.13231938D-11  0.74153651D-06 -0.44495901D-05 -0.34570523D-12
  0.72829939D-11
MO    2     MO 0.0        OCC NO =    2.0000000  ORB. ENERGY =  -61.866060
 -0.54171085D-04 -0.10098722D-03 -0.17068619D-03 -0.25659725D-03 -0.31525937D-03
 -0.26628694D-03 -0.10043364D-03  0.49705167D-06  0.37741902D-04  0.70664750D-04
  0.12031278D-03  0.18610558D-03  0.24509450D-03  0.25466889D-03  0.16183065D-03
 -0.10845514D-03 -0.20663543D-03 -0.18523609D-02  0.59084987D-03  0.14573654D-03
  0.13663727D-03  0.97293878D-04  0.92007816D-04  0.86263176D-04  0.61424520D-04
  0.35457596D-09  0.33243750D-09  0.23671531D-09 -0.51027912D-04 -0.38924384D-03
 -0.50520107D-10 -0.55840711D-03  0.59213891D-03 -0.11154317D-08 -0.59860546D-05
 -0.32839604D-04  0.18800818D-10  0.63189512D-04 -0.23860702D-04 -0.39328809D-04
 -0.12995969D-04  0.63437463D-10 -0.55706023D-09  0.49200013D-03 -0.31206331D-03
 -0.17993681D-03  0.94957973D-04  0.77867851D-09 -0.44171473D-09 -0.87509559D-04
  0.12087303D-03 -0.33363474D-04 -0.16112819D-03  0.23489200D-09  0.25935335D-09
  0.18960667D-03  0.10120974D-03  0.60085736D-11 -0.63108675D-03 -0.33451088D-03
  0.68502950D-09  0.62266736D-04  0.30881669D-04 -0.70305522D-09 -0.82120688D-09
  0.89403858D-04 -0.36490566D-04  0.72157088D-10 -0.25628336D-03  0.17739689D-04
  0.91029790D-10 -0.11928210D-04  0.91732009D-04 -0.30750105D-09 -0.94917062D-09
 -0.14740703D-04 -0.26585465D-04 -0.39200253D-04 -0.92181518D-03  0.12283112D-02
 -0.37918348D-04 -0.21966405D-03 -0.20084310D-03 -0.10581797D-09 -0.24480996D-03
 -0.20082909D-03  0.36576221D-08  0.12277340D-03  0.15526958D-03  0.27725925D-09
 -0.14564539D-04 -0.92199817D-04  0.10676436D-03 -0.14751261D-03  0.24776102D-08
  0.30865697D-08  0.52397497D-04 -0.39845920D-04 -0.12551577D-04 -0.97535038D-04
  0.52135610D-09  0.21607590D-09  0.63867422D-04  0.11904066D-03  0.20185351D-03
  0.30551469D-03  0.38119313D-03  0.32739406D-03  0.12569295D-03 -0.56223226D-06