 Molden2AIM, Version 4.0.0 (06/02/2016)           Time: Fri Jun 29 05:07:10 2018
GAUSSIAN              8 MOL ORBITALS    285 PRIMITIVES        7 NUCLEI
  C    1    (CENTRE  1)  -1.30606342  0.00000000 -0.01097553  CHARGE =  6.0
  C    2    (CENTRE  2)   1.30606342  0.00000000 -0.01097553  CHARGE =  6.0
  H    3    (CENTRE  3)  -2.36068178 -1.77967036 -0.02256144  CHARGE =  1.0
  H    4    (CENTRE  4)   2.36068178 -1.77967036 -0.02256144  CHARGE =  1.0
  H    5    (CENTRE  5)  -2.36068178  1.77967036 -0.02256144  CHARGE =  1.0
  H    6    (CENTRE  6)   2.36068178  1.77967036 -0.02256144  CHARGE =  1.0
  H    7    (CENTRE  7)   0.00000000  0.00000000  2.11558997  CHARGE =  1.0
CENTRE ASSIGNMENTS    1  1  1  1  1  1  1  1  1  1  1  1  1  1  1  1  1  1  1  1
CENTRE ASSIGNMENTS    1  1  1  1  1  1  1  1  1  1  1  1  1  1  1  1  1  1  1  1
CENTRE ASSIGNMENTS    1  1  1  1  1  1  1  1  1  1  1  1  1  1  1  1  1  1  1  1
CENTRE ASSIGNMENTS    1  1  1  1  1  1  1  1  1  1  1  1  1  1  1  2  2  2  2  2
CENTRE ASSIGNMENTS    2  2  2  2  2  2  2  2  2  2  2  2  2  2  2  2  2  2  2  2
CENTRE ASSIGNMENTS    2  2  2  2  2  2  2  2  2  2  2  2  2  2  2  2  2  2  2  2
CENTRE ASSIGNMENTS    2  2  2  2  2  2  2  2  2  2  2  2  2  2  2  2  2  2  2  2
CENTRE ASSIGNMENTS    2  2  2  2  2  2  2  2  2  2  3  3  3  3  3  3  3  3  3  3
CENTRE ASSIGNMENTS    3  3  3  3  3  3  3  3  3  3  3  3  3  3  3  3  3  4  4  4
CENTRE ASSIGNMENTS    4  4  4  4  4  4  4  4  4  4  4  4  4  4  4  4  4  4  4  4
CENTRE ASSIGNMENTS    4  4  4  4  5  5  5  5  5  5  5  5  5  5  5  5  5  5  5  5
CENTRE ASSIGNMENTS    5  5  5  5  5  5  5  5  5  5  5  6  6  6  6  6  6  6  6  6
CENTRE ASSIGNMENTS    6  6  6  6  6  6  6  6  6  6  6  6  6  6  6  6  6  6  7  7
CENTRE ASSIGNMENTS    7  7  7  7  7  7  7  7  7  7  7  7  7  7  7  7  7  7  7  7
CENTRE ASSIGNMENTS    7  7  7  7  7
TYPE ASSIGNMENTS      1  1  1  1  1  1  1  1  1  1  1  1  1  1  1  1  1  1  1  2
TYPE ASSIGNMENTS      2  2  3  3  3  4  4  4  2  3  4  2  3  4  2  3  4  5  6  7
TYPE ASSIGNMENTS      8  9 10  5  6  7  8  9 10  5  6  7  8  9 10 11 12 13 17 14
TYPE ASSIGNMENTS     15 18 19 16 20 11 12 13 17 14 15 18 19 16 20  1  1  1  1  1
TYPE ASSIGNMENTS      1  1  1  1  1  1  1  1  1  1  1  1  1  1  2  2  2  3  3  3
TYPE ASSIGNMENTS      4  4  4  2  3  4  2  3  4  2  3  4  5  6  7  8  9 10  5  6
TYPE ASSIGNMENTS      7  8  9 10  5  6  7  8  9 10 11 12 13 17 14 15 18 19 16 20
TYPE ASSIGNMENTS     11 12 13 17 14 15 18 19 16 20  1  1  1  1  1  1  2  3  4  2
TYPE ASSIGNMENTS      3  4  2  3  4  5  6  7  8  9 10  5  6  7  8  9 10  1  1  1
TYPE ASSIGNMENTS      1  1  1  2  3  4  2  3  4  2  3  4  5  6  7  8  9 10  5  6
TYPE ASSIGNMENTS      7  8  9 10  1  1  1  1  1  1  2  3  4  2  3  4  2  3  4  5
TYPE ASSIGNMENTS      6  7  8  9 10  5  6  7  8  9 10  1  1  1  1  1  1  2  3  4
TYPE ASSIGNMENTS      2  3  4  2  3  4  5  6  7  8  9 10  5  6  7  8  9 10  1  1
TYPE ASSIGNMENTS      1  1  1  1  2  3  4  2  3  4  2  3  4  5  6  7  8  9 10  5
TYPE ASSIGNMENTS      6  7  8  9 10
EXPONENTS  0.8236000D+04 0.1235000D+04 0.2808000D+03 0.7927000D+02 0.2559000D+02
EXPONENTS  0.8997000D+01 0.3319000D+01 0.3643000D+00 0.8236000D+04 0.1235000D+04
EXPONENTS  0.2808000D+03 0.7927000D+02 0.2559000D+02 0.8997000D+01 0.3319000D+01
EXPONENTS  0.3643000D+00 0.9059000D+00 0.1285000D+00 0.4402000D-01 0.1871000D+02
EXPONENTS  0.4133000D+01 0.1200000D+01 0.1871000D+02 0.4133000D+01 0.1200000D+01
EXPONENTS  0.1871000D+02 0.4133000D+01 0.1200000D+01 0.3827000D+00 0.3827000D+00
EXPONENTS  0.3827000D+00 0.1209000D+00 0.1209000D+00 0.1209000D+00 0.3569000D-01
EXPONENTS  0.3569000D-01 0.3569000D-01 0.1097000D+01 0.1097000D+01 0.1097000D+01
EXPONENTS  0.1097000D+01 0.1097000D+01 0.1097000D+01 0.3180000D+00 0.3180000D+00
EXPONENTS  0.3180000D+00 0.3180000D+00 0.3180000D+00 0.3180000D+00 0.1000000D+00
EXPONENTS  0.1000000D+00 0.1000000D+00 0.1000000D+00 0.1000000D+00 0.1000000D+00
EXPONENTS  0.7610000D+00 0.7610000D+00 0.7610000D+00 0.7610000D+00 0.7610000D+00
EXPONENTS  0.7610000D+00 0.7610000D+00 0.7610000D+00 0.7610000D+00 0.7610000D+00
EXPONENTS  0.2680000D+00 0.2680000D+00 0.2680000D+00 0.2680000D+00 0.2680000D+00
EXPONENTS  0.2680000D+00 0.2680000D+00 0.2680000D+00 0.2680000D+00 0.2680000D+00
EXPONENTS  0.8236000D+04 0.1235000D+04 0.2808000D+03 0.7927000D+02 0.2559000D+02
EXPONENTS  0.8997000D+01 0.3319000D+01 0.3643000D+00 0.8236000D+04 0.1235000D+04
EXPONENTS  0.2808000D+03 0.7927000D+02 0.2559000D+02 0.8997000D+01 0.3319000D+01
EXPONENTS  0.3643000D+00 0.9059000D+00 0.1285000D+00 0.4402000D-01 0.1871000D+02
EXPONENTS  0.4133000D+01 0.1200000D+01 0.1871000D+02 0.4133000D+01 0.1200000D+01
EXPONENTS  0.1871000D+02 0.4133000D+01 0.1200000D+01 0.3827000D+00 0.3827000D+00
EXPONENTS  0.3827000D+00 0.1209000D+00 0.1209000D+00 0.1209000D+00 0.3569000D-01
EXPONENTS  0.3569000D-01 0.3569000D-01 0.1097000D+01 0.1097000D+01 0.1097000D+01
EXPONENTS  0.1097000D+01 0.1097000D+01 0.1097000D+01 0.3180000D+00 0.3180000D+00
EXPONENTS  0.3180000D+00 0.3180000D+00 0.3180000D+00 0.3180000D+00 0.1000000D+00
EXPONENTS  0.1000000D+00 0.1000000D+00 0.1000000D+00 0.1000000D+00 0.1000000D+00
EXPONENTS  0.7610000D+00 0.7610000D+00 0.7610000D+00 0.7610000D+00 0.7610000D+00
EXPONENTS  0.7610000D+00 0.7610000D+00 0.7610000D+00 0.7610000D+00 0.7610000D+00
EXPONENTS  0.2680000D+00 0.2680000D+00 0.2680000D+00 0.2680000D+00 0.2680000D+00
EXPONENTS  0.2680000D+00 0.2680000D+00 0.2680000D+00 0.2680000D+00 0.2680000D+00
EXPONENTS  0.3387000D+02 0.5095000D+01 0.1159000D+01 0.3258000D+00 0.1027000D+00
EXPONENTS  0.2526000D-01 0.1407000D+01 0.1407000D+01 0.1407000D+01 0.3880000D+00
EXPONENTS  0.3880000D+00 0.3880000D+00 0.1020000D+00 0.1020000D+00 0.1020000D+00
EXPONENTS  0.1057000D+01 0.1057000D+01 0.1057000D+01 0.1057000D+01 0.1057000D+01
EXPONENTS  0.1057000D+01 0.2470000D+00 0.2470000D+00 0.2470000D+00 0.2470000D+00
EXPONENTS  0.2470000D+00 0.2470000D+00 0.3387000D+02 0.5095000D+01 0.1159000D+01
EXPONENTS  0.3258000D+00 0.1027000D+00 0.2526000D-01 0.1407000D+01 0.1407000D+01
EXPONENTS  0.1407000D+01 0.3880000D+00 0.3880000D+00 0.3880000D+00 0.1020000D+00
EXPONENTS  0.1020000D+00 0.1020000D+00 0.1057000D+01 0.1057000D+01 0.1057000D+01
EXPONENTS  0.1057000D+01 0.1057000D+01 0.1057000D+01 0.2470000D+00 0.2470000D+00
EXPONENTS  0.2470000D+00 0.2470000D+00 0.2470000D+00 0.2470000D+00 0.3387000D+02
EXPONENTS  0.5095000D+01 0.1159000D+01 0.3258000D+00 0.1027000D+00 0.2526000D-01
EXPONENTS  0.1407000D+01 0.1407000D+01 0.1407000D+01 0.3880000D+00 0.3880000D+00
EXPONENTS  0.3880000D+00 0.1020000D+00 0.1020000D+00 0.1020000D+00 0.1057000D+01
EXPONENTS  0.1057000D+01 0.1057000D+01 0.1057000D+01 0.1057000D+01 0.1057000D+01
EXPONENTS  0.2470000D+00 0.2470000D+00 0.2470000D+00 0.2470000D+00 0.2470000D+00
EXPONENTS  0.2470000D+00 0.3387000D+02 0.5095000D+01 0.1159000D+01 0.3258000D+00
EXPONENTS  0.1027000D+00 0.2526000D-01 0.1407000D+01 0.1407000D+01 0.1407000D+01
EXPONENTS  0.3880000D+00 0.3880000D+00 0.3880000D+00 0.1020000D+00 0.1020000D+00
EXPONENTS  0.1020000D+00 0.1057000D+01 0.1057000D+01 0.1057000D+01 0.1057000D+01
EXPONENTS  0.1057000D+01 0.1057000D+01 0.2470000D+00 0.2470000D+00 0.2470000D+00
EXPONENTS  0.2470000D+00 0.2470000D+00 0.2470000D+00 0.3387000D+02 0.5095000D+01
EXPONENTS  0.1159000D+01 0.3258000D+00 0.1027000D+00 0.2526000D-01 0.1407000D+01
EXPONENTS  0.1407000D+01 0.1407000D+01 0.3880000D+00 0.3880000D+00 0.3880000D+00
EXPONENTS  0.1020000D+00 0.1020000D+00 0.1020000D+00 0.1057000D+01 0.1057000D+01
EXPONENTS  0.1057000D+01 0.1057000D+01 0.1057000D+01 0.1057000D+01 0.2470000D+00
EXPONENTS  0.2470000D+00 0.2470000D+00 0.2470000D+00 0.2470000D+00 0.2470000D+00
MO    1     MO 0.0        OCC NO =    2.0000000  ORB. ENERGY =  -10.220990
  0.23409089D+00  0.43639865D+00  0.73759060D+00  0.11088403D+01  0.13623384D+01
  0.11507126D+01  0.43400644D+00 -0.21479221D-02 -0.31217614D-02 -0.58449224D-02
 -0.99514805D-02 -0.15393427D-01 -0.20272602D-01 -0.21064532D-01 -0.13385564D-01
  0.89706940D-02  0.29192071D-01 -0.12050237D-01 -0.50210055D-03  0.18785652D-02
  0.17612743D-02  0.12541322D-02  0.91461779D-15  0.85751231D-15  0.61059985D-15
  0.10068909D-02  0.94402417D-03  0.67220145D-03  0.25345517D-02 -0.14407890D-14
  0.55714096D-03  0.16115088D-03  0.76812383D-13 -0.14380300D-02 -0.15611985D-04
 -0.20866025D-14 -0.35385570D-04  0.17212484D-02  0.14031332D-02 -0.31243816D-02
  0.58417544D-14  0.17262238D-02 -0.81982691D-15 -0.15411192D-02 -0.25711579D-03
  0.17982350D-02 -0.56184976D-13 -0.69511132D-03  0.71415191D-15  0.19975008D-03
 -0.15514389D-03 -0.44606189D-04 -0.88088465D-13 -0.15047555D-03  0.45966386D-15
 -0.18303629D-03  0.33405632D-14  0.60827257D-04 -0.10267306D-02 -0.95801862D-14
 -0.16857943D-03  0.15758395D-02 -0.44150355D-15 -0.13902340D-04 -0.82281185D-15
 -0.72167130D-03  0.67581303D-14 -0.12337273D-03  0.22218244D-02 -0.15327348D-13
  0.32922585D-04 -0.56810464D-04 -0.49470435D-14  0.33719560D-03 -0.41545641D-15
  0.23409089D+00  0.43639865D+00  0.73759060D+00  0.11088403D+01  0.13623384D+01
  0.11507126D+01  0.43400644D+00 -0.21479221D-02 -0.31217614D-02 -0.58449224D-02
 -0.99514805D-02 -0.15393427D-01 -0.20272602D-01 -0.21064532D-01 -0.13385564D-01
  0.89706940D-02  0.29192071D-01 -0.12050237D-01 -0.50210055D-03 -0.18785652D-02
 -0.17612743D-02 -0.12541322D-02  0.24377319D-14  0.22855286D-14  0.16274326D-14
  0.10068909D-02  0.94402417D-03  0.67220145D-03 -0.25345517D-02 -0.86084496D-14
  0.55714096D-03 -0.16115088D-03 -0.82235103D-13 -0.14380300D-02  0.15611985D-04
  0.16998813D-14 -0.35385570D-04  0.17212484D-02  0.14031332D-02 -0.31243816D-02
  0.60574649D-14 -0.17262238D-02  0.93176504D-15 -0.15411192D-02 -0.25711579D-03
  0.17982350D-02 -0.52651447D-13  0.69511132D-03 -0.85670296D-15  0.19975008D-03
 -0.15514389D-03 -0.44606189D-04 -0.89040442D-13  0.15047555D-03 -0.43380341D-15
  0.18303629D-03 -0.42948788D-14  0.60827257D-04  0.10267306D-02  0.10671141D-13
 -0.16857943D-03 -0.15758395D-02  0.22134960D-14 -0.13902340D-04 -0.91348121D-15
  0.72167130D-03 -0.82057372D-14 -0.12337273D-03 -0.22218244D-02  0.19996970D-13
  0.32922585D-04  0.56810464D-04  0.46202417D-14  0.33719560D-03 -0.41545247D-15
  0.16045066D-03  0.28937938D-03  0.42668973D-03  0.51918285D-02  0.13737804D-02
 -0.24009411D-04 -0.35065159D-04 -0.64030549D-03 -0.33463245D-04 -0.91346792D-03
 -0.10348666D-03 -0.37351735D-03  0.20379490D-03 -0.12021279D-03 -0.37748797D-04
 -0.32553341D-03 -0.10430910D-02  0.13686244D-02 -0.29049519D-02 -0.15763875D-03
 -0.29957753D-03 -0.27684846D-03 -0.13057586D-03  0.40742432D-03 -0.21474458D-03
 -0.92230338D-04 -0.70616266D-04  0.16045066D-03  0.28937938D-03  0.42668973D-03
  0.51918285D-02  0.13737804D-02 -0.24009411D-04  0.35065159D-04 -0.64030549D-03
 -0.33463245D-04  0.91346792D-03 -0.10348666D-03 -0.37351735D-03 -0.20379490D-03
 -0.12021279D-03 -0.37748797D-04 -0.32553341D-03 -0.10430910D-02  0.13686244D-02
  0.29049519D-02  0.15763875D-03 -0.29957753D-03 -0.27684846D-03 -0.13057586D-03
  0.40742432D-03  0.21474458D-03  0.92230338D-04 -0.70616266D-04  0.16045066D-03
  0.28937938D-03  0.42668973D-03  0.51918285D-02  0.13737804D-02 -0.24009411D-04
 -0.35065159D-04  0.64030549D-03 -0.33463245D-04 -0.91346792D-03  0.10348666D-03
 -0.37351735D-03  0.20379490D-03  0.12021279D-03 -0.37748797D-04 -0.32553341D-03
 -0.10430910D-02  0.13686244D-02  0.29049519D-02 -0.15763875D-03  0.29957753D-03
 -0.27684846D-03 -0.13057586D-03  0.40742432D-03  0.21474458D-03 -0.92230338D-04
  0.70616266D-04  0.16045066D-03  0.28937938D-03  0.42668973D-03  0.51918285D-02
  0.13737804D-02 -0.24009411D-04  0.35065159D-04  0.64030549D-03 -0.33463245D-04
  0.91346792D-03  0.10348666D-03 -0.37351735D-03 -0.20379490D-03  0.12021279D-03
 -0.37748797D-04 -0.32553341D-03 -0.10430910D-02  0.13686244D-02 -0.29049519D-02
  0.15763875D-03  0.29957753D-03 -0.27684846D-03 -0.13057586D-03  0.40742432D-03
 -0.21474458D-03  0.92230338D-04  0.70616266D-04  0.19260509D-03  0.34737121D-03
  0.51219864D-03  0.28475547D-02  0.71888600D-02  0.22177553D-03 -0.53781186D-13
 -0.77744486D-15 -0.14222731D-02  0.88480780D-13  0.23696875D-15  0.15546743D-03
  0.24335137D-13  0.43628604D-17 -0.95924860D-03 -0.12741682D-02  0.10131080D-02
  0.26106027D-03 -0.63372996D-14  0.36970808D-13  0.41577614D-15  0.48657937D-03
 -0.21659711D-04 -0.46491966D-03  0.26582607D-14 -0.52776827D-14 -0.16072670D-15
MO    2     MO 0.0        OCC NO =    2.0000000  ORB. ENERGY =  -10.220495
  0.23300294D+00  0.43437046D+00  0.73416260D+00  0.11036869D+01  0.13560068D+01
  0.11453646D+01  0.43198937D+00 -0.21379395D-02 -0.22545162D-02 -0.42211657D-02
 -0.71868958D-02 -0.11117035D-01 -0.14640744D-01 -0.15212671D-01 -0.96669695D-02
  0.64785781D-02  0.24133900D-01  0.96934712D-02 -0.99580902D-04  0.11400452D-03
  0.10688648D-03  0.76109542D-04  0.50963130D-14  0.47781174D-14  0.34023042D-14
  0.12110161D-02  0.11354046D-02  0.80847569D-03 -0.14789317D-02 -0.14903267D-13
 -0.43151165D-03  0.39642739D-02 -0.60691999D-13 -0.28235627D-03  0.11211992D-04
 -0.63769395D-15 -0.91405592D-05  0.17494262D-02  0.16955864D-02 -0.34450126D-02
 -0.36918739D-14  0.61549908D-03  0.12335384D-14  0.10091390D-02  0.57869025D-03
 -0.15878292D-02  0.40447429D-13 -0.50532313D-03 -0.67342225D-15  0.29341512D-03
 -0.25567747D-03 -0.37737653D-04  0.37303245D-13 -0.22417589D-04  0.69140413D-16
  0.21412805D-02 -0.34227350D-14  0.13963937D-03 -0.65041532D-02  0.76197210D-14
 -0.29017610D-03  0.80311704D-04  0.26484841D-14 -0.12874200D-03  0.59376495D-15
 -0.17539004D-03 -0.47385121D-14 -0.80343098D-04  0.10582382D-02  0.10314567D-13
  0.62901160D-04 -0.53206804D-03  0.39009690D-14  0.17812814D-03  0.60747226D-15
 -0.23300294D+00 -0.43437046D+00 -0.73416260D+00 -0.11036869D+01 -0.13560068D+01
 -0.11453646D+01 -0.43198937D+00  0.21379395D-02  0.22545162D-02  0.42211657D-02
  0.71868958D-02  0.11117035D-01  0.14640744D-01  0.15212671D-01  0.96669695D-02
 -0.64785781D-02 -0.24133900D-01 -0.96934712D-02  0.99580902D-04  0.11400452D-03
  0.10688648D-03  0.76109542D-04 -0.71294427D-15 -0.66843057D-15 -0.47596239D-15
 -0.12110161D-02 -0.11354046D-02 -0.80847569D-03 -0.14789317D-02 -0.21323377D-14
  0.43151165D-03  0.39642739D-02  0.44594083D-13  0.28235627D-03  0.11211992D-04
  0.63665018D-15  0.91405592D-05 -0.17494262D-02 -0.16955864D-02  0.34450126D-02
 -0.44071216D-14  0.61549908D-03 -0.36502608D-15 -0.10091390D-02 -0.57869025D-03
  0.15878292D-02  0.34936738D-13 -0.50532313D-03  0.70370843D-15 -0.29341512D-03
  0.25567747D-03  0.37737653D-04  0.33485030D-13 -0.22417589D-04  0.10077187D-14
  0.21412805D-02  0.26631054D-14 -0.13963937D-03 -0.65041532D-02 -0.78418617D-14
  0.29017610D-03  0.80311704D-04 -0.14745458D-15  0.12874200D-03  0.57942825D-15
 -0.17539004D-03  0.36924969D-14  0.80343098D-04  0.10582382D-02 -0.78012392D-14
 -0.62901160D-04 -0.53206804D-03 -0.32762514D-14 -0.17812814D-03  0.18021221D-15
  0.54609581D-04  0.98490629D-04  0.14522437D-03 -0.23094386D-02  0.11432943D-02
  0.40408692D-05 -0.12074827D-02 -0.20000691D-02  0.10773030D-03 -0.18307244D-02
 -0.31282933D-02 -0.30459315D-03  0.17454330D-03 -0.21041388D-03 -0.31285475D-04
  0.47937805D-03 -0.20789293D-02  0.15995513D-02 -0.41095975D-02 -0.44188477D-05
 -0.62998949D-04  0.69375639D-04 -0.31205814D-03  0.24268251D-03 -0.25034357D-03
 -0.40819651D-04 -0.48652381D-04 -0.54609581D-04 -0.98490629D-04 -0.14522437D-03
  0.23094386D-02 -0.11432943D-02 -0.40408692D-05 -0.12074827D-02  0.20000691D-02
 -0.10773030D-03 -0.18307244D-02  0.31282933D-02  0.30459315D-03  0.17454330D-03
  0.21041388D-03  0.31285475D-04 -0.47937805D-03  0.20789293D-02 -0.15995513D-02
 -0.41095975D-02 -0.44188477D-05  0.62998949D-04 -0.69375639D-04  0.31205814D-03
 -0.24268251D-03 -0.25034357D-03 -0.40819651D-04  0.48652381D-04  0.54609581D-04
  0.98490629D-04  0.14522437D-03 -0.23094386D-02  0.11432943D-02  0.40408692D-05
 -0.12074827D-02  0.20000691D-02  0.10773030D-03 -0.18307244D-02  0.31282933D-02
 -0.30459315D-03  0.17454330D-03  0.21041388D-03 -0.31285475D-04  0.47937805D-03
 -0.20789293D-02  0.15995513D-02  0.41095975D-02 -0.44188477D-05  0.62998949D-04
  0.69375639D-04 -0.31205814D-03  0.24268251D-03  0.25034357D-03 -0.40819651D-04
  0.48652381D-04 -0.54609581D-04 -0.98490629D-04 -0.14522437D-03  0.23094386D-02
 -0.11432943D-02 -0.40408692D-05 -0.12074827D-02 -0.20000691D-02 -0.10773030D-03
 -0.18307244D-02 -0.31282933D-02  0.30459315D-03  0.17454330D-03 -0.21041388D-03
  0.31285475D-04 -0.47937805D-03  0.20789293D-02 -0.15995513D-02  0.41095975D-02
 -0.44188477D-05 -0.62998949D-04 -0.69375639D-04  0.31205814D-03 -0.24268251D-03
  0.25034357D-03 -0.40819651D-04 -0.48652381D-04  0.11799173D-13  0.21280294D-13
  0.31377781D-13  0.28175496D-13  0.27901273D-12  0.17204585D-13  0.47629176D-03
  0.37769003D-16 -0.69763900D-13 -0.13646116D-02 -0.11543791D-14  0.74624255D-13
 -0.31627327D-03 -0.19724378D-14 -0.28182485D-13 -0.37256872D-13  0.52161351D-13
 -0.14904479D-13  0.55471907D-14 -0.15198514D-02  0.68636794D-15  0.18553461D-13
  0.55443817D-14 -0.24097843D-13 -0.22182824D-14  0.24984573D-03  0.47192630D-15
MO    3     MO 0.0        OCC NO =    2.0000000  ORB. ENERGY =   -1.045823
 -0.87812677D-02 -0.16370280D-01 -0.27668656D-01 -0.41595054D-01 -0.51104329D-01
 -0.43165776D-01 -0.16280542D-01  0.80573313D-04 -0.38914709D-01 -0.72860613D-01
 -0.12405143D+00 -0.19188870D+00 -0.25271066D+00 -0.26258257D+00 -0.16685943D+00
  0.11182531D+00  0.49231550D-01  0.26092297D-01  0.37539083D-03  0.16392874D+00
  0.15369361D+00  0.10943901D+00  0.57037535D-13  0.53476314D-13  0.38078322D-13
  0.58736947D-01  0.55069621D-01  0.39212851D-01  0.29335788D-01 -0.27034195D-12
  0.15051317D-01  0.15293987D-02 -0.18405150D-11  0.18036094D-02 -0.41187381D-04
  0.63276201D-13 -0.16338118D-04  0.15619334D-01 -0.75475864D-02 -0.80717481D-02
 -0.79280590D-13  0.15116710D-01  0.60642000D-14  0.29829926D-02 -0.14333952D-02
 -0.15495974D-02  0.11861900D-11  0.55083133D-02  0.29909484D-15  0.69225795D-04
 -0.11585754D-03  0.46631747D-04  0.20273954D-11  0.23814539D-03  0.43429247D-14
  0.31033678D-02 -0.65576445D-13  0.37493413D-03 -0.10830500D-01  0.15127285D-12
  0.24317342D-02  0.15203970D-02  0.45456486D-13 -0.35565366D-02  0.10155968D-13
  0.24249341D-03 -0.14939198D-12  0.94883309D-04 -0.13834859D-02  0.33983612D-12
  0.46709794D-03  0.65600564D-03  0.10833982D-12 -0.75174787D-03  0.66814572D-14
 -0.87812677D-02 -0.16370280D-01 -0.27668656D-01 -0.41595054D-01 -0.51104329D-01
 -0.43165776D-01 -0.16280542D-01  0.80573313D-04 -0.38914709D-01 -0.72860613D-01
 -0.12405143D+00 -0.19188870D+00 -0.25271066D+00 -0.26258257D+00 -0.16685943D+00
  0.11182531D+00  0.49231550D-01  0.26092297D-01  0.37539084D-03 -0.16392874D+00
 -0.15369361D+00 -0.10943901D+00 -0.21617989D-13 -0.20268238D-13 -0.14432193D-13
  0.58736947D-01  0.55069621D-01  0.39212851D-01 -0.29335788D-01  0.69640726D-13
  0.15051317D-01 -0.15293987D-02  0.15882963D-11  0.18036094D-02  0.41187380D-04
 -0.66748779D-13 -0.16338118D-04  0.15619334D-01 -0.75475864D-02 -0.80717481D-02
 -0.10720268D-12 -0.15116710D-01  0.15439452D-14  0.29829926D-02 -0.14333952D-02
 -0.15495974D-02  0.10542259D-11 -0.55083133D-02 -0.26183847D-14  0.69225794D-04
 -0.11585754D-03  0.46631747D-04  0.19955604D-11 -0.23814539D-03  0.65298788D-14
 -0.31033678D-02  0.56814060D-13  0.37493413D-03  0.10830500D-01 -0.15031684D-12
  0.24317342D-02 -0.15203970D-02 -0.20125344D-13 -0.35565366D-02  0.67392663D-14
 -0.24249341D-03  0.14871474D-12  0.94883309D-04  0.13834859D-02 -0.35128690D-12
  0.46709794D-03 -0.65600564D-03 -0.94857332D-13 -0.75174787D-03  0.45287994D-14
  0.97026007D-02  0.17499040D-01  0.25802324D-01  0.65027342D-02 -0.11903497D-02
 -0.54785364D-04  0.57349813D-02  0.57662263D-02  0.11163968D-02  0.18286120D-02
 -0.13798868D-02  0.16439473D-02 -0.62205894D-04 -0.54694149D-03  0.20659716D-03
  0.18736056D-02 -0.82992636D-03 -0.10436793D-02  0.26079278D-02  0.13479893D-02
  0.14138904D-02  0.24972164D-03 -0.32126980D-03  0.71548165D-04 -0.32770889D-03
  0.18401414D-03  0.11844133D-03  0.97026007D-02  0.17499040D-01  0.25802324D-01
  0.65027342D-02 -0.11903497D-02 -0.54785364D-04 -0.57349813D-02  0.57662263D-02
  0.11163968D-02 -0.18286120D-02 -0.13798868D-02  0.16439473D-02  0.62205894D-04
 -0.54694148D-03  0.20659716D-03  0.18736056D-02 -0.82992636D-03 -0.10436793D-02
 -0.26079278D-02 -0.13479893D-02  0.14138904D-02  0.24972164D-03 -0.32126980D-03
  0.71548165D-04  0.32770889D-03 -0.18401414D-03  0.11844133D-03  0.97026007D-02
  0.17499040D-01  0.25802324D-01  0.65027342D-02 -0.11903497D-02 -0.54785364D-04
  0.57349813D-02 -0.57662263D-02  0.11163968D-02  0.18286120D-02  0.13798868D-02
  0.16439473D-02 -0.62205893D-04  0.54694148D-03  0.20659716D-03  0.18736056D-02
 -0.82992636D-03 -0.10436793D-02 -0.26079278D-02  0.13479893D-02 -0.14138904D-02
  0.24972164D-03 -0.32126980D-03  0.71548165D-04  0.32770889D-03  0.18401414D-03
 -0.11844133D-03  0.97026007D-02  0.17499040D-01  0.25802324D-01  0.65027342D-02
 -0.11903497D-02 -0.54785364D-04 -0.57349813D-02 -0.57662263D-02  0.11163968D-02
 -0.18286120D-02  0.13798868D-02  0.16439473D-02  0.62205894D-04  0.54694149D-03
  0.20659716D-03  0.18736056D-02 -0.82992636D-03 -0.10436793D-02  0.26079278D-02
 -0.13479893D-02 -0.14138904D-02  0.24972164D-03 -0.32126980D-03  0.71548165D-04
 -0.32770889D-03 -0.18401414D-03 -0.11844133D-03  0.22874247D-01  0.41254647D-01
  0.60829953D-01  0.21997076D-01 -0.77647931D-02  0.28452587D-04  0.38277503D-13
 -0.19887598D-14 -0.20271770D-01  0.21658420D-13 -0.37332518D-14 -0.61122663D-03
 -0.42516309D-13 -0.22965176D-13  0.17498931D-02 -0.13479648D-03 -0.29099067D-02
  0.30447031D-02  0.10209711D-12 -0.17860256D-13  0.94953265D-15  0.30073988D-03
  0.19334587D-03 -0.49408575D-03 -0.33608264D-13  0.55926752D-13  0.64088508D-14
MO    4     MO 0.0        OCC NO =    2.0000000  ORB. ENERGY =   -0.814666
  0.55150792D-02  0.10281362D-01  0.17377312D-01  0.26123793D-01  0.32096097D-01
  0.27110285D-01  0.10225002D-01 -0.50604106D-04  0.36105984D-01  0.67601794D-01
  0.11509784D+00  0.17803885D+00  0.23447091D+00  0.24363029D+00  0.15481611D+00
 -0.10375416D+00 -0.50418604D-01 -0.35867119D-01 -0.19204382D-02  0.19845782D+00
  0.18606682D+00  0.13249066D+00 -0.15735696D-12 -0.14753215D-12 -0.10505168D-12
 -0.16567133D-01 -0.15532740D-01 -0.11060236D-01  0.37045574D-01  0.72859297D-12
 -0.60453337D-02  0.69646445D-02  0.27677936D-11 -0.15024822D-02 -0.18868632D-04
 -0.24998486D-13 -0.17184767D-04  0.64666993D-02 -0.10000131D-01  0.35334322D-02
  0.59044336D-13  0.15816210D-03 -0.12118120D-13  0.41522351D-03 -0.73386092D-03
  0.31863741D-03 -0.17281864D-11 -0.17187070D-02 -0.66957180D-14  0.16292190D-03
 -0.25215430D-03  0.89232402D-04 -0.24771255D-11 -0.15824542D-03 -0.23862517D-13
 -0.14098346D-03  0.84882668D-13 -0.51811628D-03  0.14599352D-02 -0.12774128D-12
  0.10035400D-02 -0.10369849D-02 -0.12690672D-12  0.55080885D-03 -0.93962532D-14
 -0.72547203D-03  0.16010062D-12 -0.47707651D-04  0.32355922D-02 -0.32106099D-12
 -0.12108281D-03 -0.10591761D-02 -0.15924087D-12  0.26420576D-03 -0.19086463D-13
 -0.55150792D-02 -0.10281362D-01 -0.17377312D-01 -0.26123793D-01 -0.32096097D-01
 -0.27110285D-01 -0.10225002D-01  0.50604106D-04 -0.36105984D-01 -0.67601794D-01
 -0.11509784D+00 -0.17803885D+00 -0.23447091D+00 -0.24363029D+00 -0.15481611D+00
  0.10375416D+00  0.50418604D-01  0.35867119D-01  0.19204382D-02  0.19845782D+00
  0.18606682D+00  0.13249066D+00 -0.38089066D-13 -0.35710921D-13 -0.25428303D-13
  0.16567133D-01  0.15532740D-01  0.11060236D-01  0.37045574D-01  0.22985802D-12
  0.60453337D-02  0.69646445D-02 -0.14124922D-11  0.15024822D-02 -0.18868632D-04
  0.36499202D-13  0.17184767D-04 -0.64666993D-02  0.10000131D-01 -0.35334322D-02
  0.12891559D-12  0.15816210D-03  0.37282092D-14 -0.41522351D-03  0.73386092D-03
 -0.31863741D-03 -0.90257585D-12 -0.17187070D-02 -0.17920264D-13 -0.16292190D-03
  0.25215430D-03 -0.89232402D-04 -0.22259605D-11 -0.15824542D-03 -0.34761426D-13
 -0.14098346D-03 -0.49561024D-13  0.51811628D-03  0.14599352D-02  0.17283654D-12
 -0.10035400D-02 -0.10369849D-02 -0.24153462D-13 -0.55080885D-03 -0.98894472D-14
 -0.72547203D-03 -0.16338933D-12  0.47707651D-04  0.32355922D-02  0.42177725D-12
  0.12108281D-03 -0.10591761D-02  0.68390742D-13 -0.26420576D-03  0.49601398D-14
 -0.22091419D-01 -0.39842783D-01 -0.58748161D-01 -0.26390772D-01  0.44645991D-02
  0.75914960D-04 -0.69041220D-02 -0.17375121D-01 -0.53691765D-03 -0.21626699D-02
 -0.49164363D-02 -0.68898013D-03  0.44677896D-03  0.66796742D-03 -0.31127265D-04
  0.16870918D-02 -0.39230094D-02  0.22359176D-02 -0.48611987D-02 -0.30922141D-03
 -0.42067473D-03 -0.65680469D-04 -0.28103826D-03  0.34671873D-03 -0.12925162D-03
 -0.11965744D-03 -0.85688007D-04  0.22091419D-01  0.39842783D-01  0.58748161D-01
  0.26390772D-01 -0.44645991D-02 -0.75914960D-04 -0.69041220D-02  0.17375121D-01
  0.53691765D-03 -0.21626699D-02  0.49164363D-02  0.68898013D-03  0.44677896D-03
 -0.66796742D-03  0.31127265D-04 -0.16870918D-02  0.39230094D-02 -0.22359176D-02
 -0.48611987D-02 -0.30922141D-03  0.42067473D-03  0.65680469D-04  0.28103826D-03
 -0.34671873D-03 -0.12925162D-03 -0.11965744D-03  0.85688007D-04 -0.22091419D-01
 -0.39842783D-01 -0.58748161D-01 -0.26390772D-01  0.44645991D-02  0.75914960D-04
 -0.69041220D-02  0.17375121D-01 -0.53691765D-03 -0.21626699D-02  0.49164363D-02
 -0.68898013D-03  0.44677896D-03 -0.66796742D-03 -0.31127265D-04  0.16870918D-02
 -0.39230094D-02  0.22359176D-02  0.48611987D-02 -0.30922141D-03  0.42067473D-03
 -0.65680469D-04 -0.28103826D-03  0.34671873D-03  0.12925162D-03 -0.11965744D-03
  0.85688007D-04  0.22091419D-01  0.39842783D-01  0.58748161D-01  0.26390772D-01
 -0.44645991D-02 -0.75914960D-04 -0.69041220D-02 -0.17375121D-01  0.53691765D-03
 -0.21626699D-02 -0.49164363D-02  0.68898013D-03  0.44677896D-03  0.66796742D-03
  0.31127265D-04 -0.16870918D-02  0.39230094D-02 -0.22359176D-02  0.48611987D-02
 -0.30922141D-03 -0.42067473D-03  0.65680469D-04  0.28103826D-03 -0.34671873D-03
  0.12925162D-03 -0.11965744D-03 -0.85688007D-04 -0.12513549D-13 -0.22568702D-13
 -0.33277538D-13  0.49004526D-12  0.23896887D-11  0.89870784D-13  0.10564886D-01
 -0.98681648D-14  0.56479657D-13  0.51736039D-02  0.68249009D-13 -0.36102292D-12
 -0.26208902D-04  0.11814046D-12 -0.44299929D-12 -0.17578321D-13 -0.45202941D-13
  0.62781262D-13 -0.11926624D-12 -0.44864667D-02 -0.40256111D-13  0.29719354D-13
 -0.31593091D-13  0.18737373D-14  0.51915032D-13 -0.61312811D-03 -0.41804432D-13
MO    5     MO 0.0        OCC NO =    2.0000000  ORB. ENERGY =   -0.713374
  0.54835730D-14  0.10222627D-13  0.17278040D-13  0.25974554D-13  0.31912741D-13
  0.26955411D-13  0.10166589D-13 -0.50315018D-16 -0.41158886D-14 -0.77062421D-14
 -0.13120536D-13 -0.20295475D-13 -0.26728426D-13 -0.27772547D-13 -0.17648207D-13
  0.11827418D-13  0.39928188D-13 -0.17629166D-12  0.22290549D-12 -0.14183955D-13
 -0.13298359D-13 -0.94692241D-14  0.43075158D+00  0.40385699D+00  0.28757023D+00
 -0.98563239D-14 -0.92409302D-14 -0.65800928D-14  0.66912719D-13  0.99230957D-01
  0.10494028D-13  0.28388578D-12  0.10430445D-01  0.28804199D-13  0.26685178D-13
 -0.13043561D-04 -0.45829526D-15  0.14442774D-14  0.37654988D-14 -0.52097763D-14
  0.32780036D-02 -0.76775924D-14  0.56897053D-02 -0.46928287D-14 -0.43545742D-13
  0.48238571D-13  0.13347000D-02  0.21571723D-13  0.25355084D-02  0.30615294D-13
 -0.30073280D-13 -0.54201398D-15 -0.10041061D-03  0.39960772D-14  0.10198296D-03
 -0.44395197D-14 -0.31237859D-02  0.12106570D-14  0.72170034D-14  0.10719633D-01
 -0.82181956D-15  0.61015556D-14 -0.13482754D-02 -0.28101514D-14  0.38887898D-02
 -0.16259931D-13 -0.88477367D-04  0.16163950D-14  0.54642678D-13  0.27097196D-03
  0.14217850D-14 -0.58628845D-14 -0.55398564D-05 -0.62709699D-14 -0.10586212D-03
  0.13707535D-14  0.25553961D-14  0.43190696D-14  0.64929764D-14  0.79773717D-14
  0.67381657D-14  0.25413882D-14 -0.12577472D-16 -0.21649826D-14 -0.40535305D-14
 -0.69014824D-14 -0.10675544D-13 -0.14059316D-13 -0.14608530D-13 -0.92830648D-14
  0.62212942D-14  0.77817608D-13 -0.10781610D-11 -0.33168014D-12  0.50621966D-13
  0.47461311D-13  0.33795281D-13  0.43075158D+00  0.40385699D+00  0.28757023D+00
 -0.75189463D-14 -0.70494901D-14 -0.50196569D-14 -0.22347109D-12  0.99230957D-01
  0.11149118D-13  0.50859344D-13  0.10430445D-01  0.13942710D-13  0.27199427D-13
 -0.13043561D-04 -0.12511469D-14  0.12337914D-13 -0.14236419D-13  0.18985052D-14
 -0.32780036D-02  0.64179367D-14  0.56897053D-02  0.28162364D-13 -0.13283303D-12
  0.10467067D-12 -0.13347000D-02 -0.14724005D-13  0.25355084D-02  0.10963386D-13
 -0.21237395D-13  0.10274009D-13  0.10041062D-03 -0.33904387D-14  0.10198296D-03
  0.21441418D-13 -0.31237859D-02  0.22140658D-14 -0.82667052D-13  0.10719633D-01
 -0.33957226D-14  0.18342798D-13 -0.13482754D-02 -0.32464747D-14 -0.38887898D-02
  0.11874772D-13 -0.88477367D-04  0.24937482D-15 -0.35245502D-13  0.27097196D-03
  0.25829990D-14 -0.37881487D-15 -0.55398565D-05 -0.33311235D-14  0.10586212D-03
 -0.23922970D-01 -0.43146062D-01 -0.63618844D-01 -0.35084694D-01  0.14369180D-02
 -0.40911994D-04 -0.14808435D-01 -0.12484657D-01 -0.60461480D-03 -0.39881775D-02
  0.86322533D-03  0.23921928D-03  0.37016022D-03  0.79885526D-03  0.76178177D-04
 -0.32766639D-02  0.15664440D-02  0.17102199D-02 -0.76178041D-02 -0.21983918D-03
 -0.16312182D-03 -0.20058346D-03  0.30703101D-03 -0.10644755D-03  0.34630068D-03
 -0.71329338D-05  0.17713289D-03 -0.23922970D-01 -0.43146062D-01 -0.63618844D-01
 -0.35084694D-01  0.14369180D-02 -0.40911994D-04  0.14808435D-01 -0.12484657D-01
 -0.60461480D-03  0.39881775D-02  0.86322533D-03  0.23921928D-03 -0.37016022D-03
  0.79885526D-03  0.76178177D-04 -0.32766639D-02  0.15664440D-02  0.17102199D-02
  0.76178041D-02  0.21983918D-03 -0.16312182D-03 -0.20058346D-03  0.30703101D-03
 -0.10644755D-03 -0.34630068D-03  0.71329338D-05  0.17713289D-03  0.23922970D-01
  0.43146062D-01  0.63618844D-01  0.35084694D-01 -0.14369180D-02  0.40911994D-04
  0.14808435D-01 -0.12484657D-01  0.60461480D-03  0.39881775D-02  0.86322533D-03