 Molden2AIM, Version 4.0.0 (06/02/2016)           Time: Fri Jun 29 00:57:15 2018
GAUSSIAN             13 MOL ORBITALS    360 PRIMITIVES        8 NUCLEI
  F    1    (CENTRE  1)  -0.01081490  0.00000000 -0.01267628  CHARGE =  9.0
  C    2    (CENTRE  2)   0.00477723  0.00000000  2.63090128  CHARGE =  6.0
  C    3    (CENTRE  3)   2.68752314  0.00000000  3.58613516  CHARGE =  6.0
  H    4    (CENTRE  4)   2.68822045  0.00000000  5.66364337  CHARGE =  1.0
  H    5    (CENTRE  5)  -1.03652990  1.69200408  3.24440275  CHARGE =  1.0
  H    6    (CENTRE  6)  -1.03652990 -1.69200408  3.24440275  CHARGE =  1.0
  H    7    (CENTRE  7)   3.70070736  1.68667316  2.92908494  CHARGE =  1.0
  H    8    (CENTRE  8)   3.70070736 -1.68667316  2.92908494  CHARGE =  1.0
CENTRE ASSIGNMENTS    1  1  1  1  1  1  1  1  1  1  1  1  1  1  1  1  1  1  1  1
CENTRE ASSIGNMENTS    1  1  1  1  1  1  1  1  1  1  1  1  1  1  1  1  1  1  1  1
CENTRE ASSIGNMENTS    1  1  1  1  1  1  1  1  1  1  1  1  1  1  1  1  1  1  1  1
CENTRE ASSIGNMENTS    1  1  1  1  1  1  1  1  1  1  1  1  1  1  1  2  2  2  2  2
CENTRE ASSIGNMENTS    2  2  2  2  2  2  2  2  2  2  2  2  2  2  2  2  2  2  2  2
CENTRE ASSIGNMENTS    2  2  2  2  2  2  2  2  2  2  2  2  2  2  2  2  2  2  2  2
CENTRE ASSIGNMENTS    2  2  2  2  2  2  2  2  2  2  2  2  2  2  2  2  2  2  2  2
CENTRE ASSIGNMENTS    2  2  2  2  2  2  2  2  2  2  3  3  3  3  3  3  3  3  3  3
CENTRE ASSIGNMENTS    3  3  3  3  3  3  3  3  3  3  3  3  3  3  3  3  3  3  3  3
CENTRE ASSIGNMENTS    3  3  3  3  3  3  3  3  3  3  3  3  3  3  3  3  3  3  3  3
CENTRE ASSIGNMENTS    3  3  3  3  3  3  3  3  3  3  3  3  3  3  3  3  3  3  3  3
CENTRE ASSIGNMENTS    3  3  3  3  3  4  4  4  4  4  4  4  4  4  4  4  4  4  4  4
CENTRE ASSIGNMENTS    4  4  4  4  4  4  4  4  4  4  4  4  5  5  5  5  5  5  5  5
CENTRE ASSIGNMENTS    5  5  5  5  5  5  5  5  5  5  5  5  5  5  5  5  5  5  5  6
CENTRE ASSIGNMENTS    6  6  6  6  6  6  6  6  6  6  6  6  6  6  6  6  6  6  6  6
CENTRE ASSIGNMENTS    6  6  6  6  6  6  7  7  7  7  7  7  7  7  7  7  7  7  7  7
CENTRE ASSIGNMENTS    7  7  7  7  7  7  7  7  7  7  7  7  7  8  8  8  8  8  8  8
CENTRE ASSIGNMENTS    8  8  8  8  8  8  8  8  8  8  8  8  8  8  8  8  8  8  8  8
TYPE ASSIGNMENTS      1  1  1  1  1  1  1  1  1  1  1  1  1  1  1  1  1  1  1  2
TYPE ASSIGNMENTS      2  2  3  3  3  4  4  4  2  3  4  2  3  4  2  3  4  5  6  7
TYPE ASSIGNMENTS      8  9 10  5  6  7  8  9 10  5  6  7  8  9 10 11 12 13 17 14
TYPE ASSIGNMENTS     15 18 19 16 20 11 12 13 17 14 15 18 19 16 20  1  1  1  1  1
TYPE ASSIGNMENTS      1  1  1  1  1  1  1  1  1  1  1  1  1  1  2  2  2  3  3  3
TYPE ASSIGNMENTS      4  4  4  2  3  4  2  3  4  2  3  4  5  6  7  8  9 10  5  6
TYPE ASSIGNMENTS      7  8  9 10  5  6  7  8  9 10 11 12 13 17 14 15 18 19 16 20
TYPE ASSIGNMENTS     11 12 13 17 14 15 18 19 16 20  1  1  1  1  1  1  1  1  1  1
TYPE ASSIGNMENTS      1  1  1  1  1  1  1  1  1  2  2  2  3  3  3  4  4  4  2  3
TYPE ASSIGNMENTS      4  2  3  4  2  3  4  5  6  7  8  9 10  5  6  7  8  9 10  5
TYPE ASSIGNMENTS      6  7  8  9 10 11 12 13 17 14 15 18 19 16 20 11 12 13 17 14
TYPE ASSIGNMENTS     15 18 19 16 20  1  1  1  1  1  1  2  3  4  2  3  4  2  3  4
TYPE ASSIGNMENTS      5  6  7  8  9 10  5  6  7  8  9 10  1  1  1  1  1  1  2  3
TYPE ASSIGNMENTS      4  2  3  4  2  3  4  5  6  7  8  9 10  5  6  7  8  9 10  1
TYPE ASSIGNMENTS      1  1  1  1  1  2  3  4  2  3  4  2  3  4  5  6  7  8  9 10
TYPE ASSIGNMENTS      5  6  7  8  9 10  1  1  1  1  1  1  2  3  4  2  3  4  2  3
TYPE ASSIGNMENTS      4  5  6  7  8  9 10  5  6  7  8  9 10  1  1  1  1  1  1  2
TYPE ASSIGNMENTS      3  4  2  3  4  2  3  4  5  6  7  8  9 10  5  6  7  8  9 10
EXPONENTS  0.1950000D+05 0.2923000D+04 0.6645000D+03 0.1875000D+03 0.6062000D+02
EXPONENTS  0.2142000D+02 0.7950000D+01 0.8815000D+00 0.1950000D+05 0.2923000D+04
EXPONENTS  0.6645000D+03 0.1875000D+03 0.6062000D+02 0.2142000D+02 0.7950000D+01
EXPONENTS  0.8815000D+00 0.2257000D+01 0.3041000D+00 0.9158000D-01 0.4388000D+02
EXPONENTS  0.9926000D+01 0.2930000D+01 0.4388000D+02 0.9926000D+01 0.2930000D+01
EXPONENTS  0.4388000D+02 0.9926000D+01 0.2930000D+01 0.9132000D+00 0.9132000D+00
EXPONENTS  0.9132000D+00 0.2672000D+00 0.2672000D+00 0.2672000D+00 0.7361000D-01
EXPONENTS  0.7361000D-01 0.7361000D-01 0.3107000D+01 0.3107000D+01 0.3107000D+01
EXPONENTS  0.3107000D+01 0.3107000D+01 0.3107000D+01 0.8550000D+00 0.8550000D+00
EXPONENTS  0.8550000D+00 0.8550000D+00 0.8550000D+00 0.8550000D+00 0.2920000D+00
EXPONENTS  0.2920000D+00 0.2920000D+00 0.2920000D+00 0.2920000D+00 0.2920000D+00
EXPONENTS  0.1917000D+01 0.1917000D+01 0.1917000D+01 0.1917000D+01 0.1917000D+01
EXPONENTS  0.1917000D+01 0.1917000D+01 0.1917000D+01 0.1917000D+01 0.1917000D+01
EXPONENTS  0.7240000D+00 0.7240000D+00 0.7240000D+00 0.7240000D+00 0.7240000D+00
EXPONENTS  0.7240000D+00 0.7240000D+00 0.7240000D+00 0.7240000D+00 0.7240000D+00
EXPONENTS  0.8236000D+04 0.1235000D+04 0.2808000D+03 0.7927000D+02 0.2559000D+02
EXPONENTS  0.8997000D+01 0.3319000D+01 0.3643000D+00 0.8236000D+04 0.1235000D+04
EXPONENTS  0.2808000D+03 0.7927000D+02 0.2559000D+02 0.8997000D+01 0.3319000D+01
EXPONENTS  0.3643000D+00 0.9059000D+00 0.1285000D+00 0.4402000D-01 0.1871000D+02
EXPONENTS  0.4133000D+01 0.1200000D+01 0.1871000D+02 0.4133000D+01 0.1200000D+01
EXPONENTS  0.1871000D+02 0.4133000D+01 0.1200000D+01 0.3827000D+00 0.3827000D+00
EXPONENTS  0.3827000D+00 0.1209000D+00 0.1209000D+00 0.1209000D+00 0.3569000D-01
EXPONENTS  0.3569000D-01 0.3569000D-01 0.1097000D+01 0.1097000D+01 0.1097000D+01
EXPONENTS  0.1097000D+01 0.1097000D+01 0.1097000D+01 0.3180000D+00 0.3180000D+00
EXPONENTS  0.3180000D+00 0.3180000D+00 0.3180000D+00 0.3180000D+00 0.1000000D+00
EXPONENTS  0.1000000D+00 0.1000000D+00 0.1000000D+00 0.1000000D+00 0.1000000D+00
EXPONENTS  0.7610000D+00 0.7610000D+00 0.7610000D+00 0.7610000D+00 0.7610000D+00
EXPONENTS  0.7610000D+00 0.7610000D+00 0.7610000D+00 0.7610000D+00 0.7610000D+00
EXPONENTS  0.2680000D+00 0.2680000D+00 0.2680000D+00 0.2680000D+00 0.2680000D+00
EXPONENTS  0.2680000D+00 0.2680000D+00 0.2680000D+00 0.2680000D+00 0.2680000D+00
EXPONENTS  0.8236000D+04 0.1235000D+04 0.2808000D+03 0.7927000D+02 0.2559000D+02
EXPONENTS  0.8997000D+01 0.3319000D+01 0.3643000D+00 0.8236000D+04 0.1235000D+04
EXPONENTS  0.2808000D+03 0.7927000D+02 0.2559000D+02 0.8997000D+01 0.3319000D+01
EXPONENTS  0.3643000D+00 0.9059000D+00 0.1285000D+00 0.4402000D-01 0.1871000D+02
EXPONENTS  0.4133000D+01 0.1200000D+01 0.1871000D+02 0.4133000D+01 0.1200000D+01
EXPONENTS  0.1871000D+02 0.4133000D+01 0.1200000D+01 0.3827000D+00 0.3827000D+00
EXPONENTS  0.3827000D+00 0.1209000D+00 0.1209000D+00 0.1209000D+00 0.3569000D-01
EXPONENTS  0.3569000D-01 0.3569000D-01 0.1097000D+01 0.1097000D+01 0.1097000D+01
EXPONENTS  0.1097000D+01 0.1097000D+01 0.1097000D+01 0.3180000D+00 0.3180000D+00
EXPONENTS  0.3180000D+00 0.3180000D+00 0.3180000D+00 0.3180000D+00 0.1000000D+00
EXPONENTS  0.1000000D+00 0.1000000D+00 0.1000000D+00 0.1000000D+00 0.1000000D+00
EXPONENTS  0.7610000D+00 0.7610000D+00 0.7610000D+00 0.7610000D+00 0.7610000D+00
EXPONENTS  0.7610000D+00 0.7610000D+00 0.7610000D+00 0.7610000D+00 0.7610000D+00
EXPONENTS  0.2680000D+00 0.2680000D+00 0.2680000D+00 0.2680000D+00 0.2680000D+00
EXPONENTS  0.2680000D+00 0.2680000D+00 0.2680000D+00 0.2680000D+00 0.2680000D+00
EXPONENTS  0.3387000D+02 0.5095000D+01 0.1159000D+01 0.3258000D+00 0.1027000D+00
EXPONENTS  0.2526000D-01 0.1407000D+01 0.1407000D+01 0.1407000D+01 0.3880000D+00
EXPONENTS  0.3880000D+00 0.3880000D+00 0.1020000D+00 0.1020000D+00 0.1020000D+00
EXPONENTS  0.1057000D+01 0.1057000D+01 0.1057000D+01 0.1057000D+01 0.1057000D+01
EXPONENTS  0.1057000D+01 0.2470000D+00 0.2470000D+00 0.2470000D+00 0.2470000D+00
EXPONENTS  0.2470000D+00 0.2470000D+00 0.3387000D+02 0.5095000D+01 0.1159000D+01
EXPONENTS  0.3258000D+00 0.1027000D+00 0.2526000D-01 0.1407000D+01 0.1407000D+01
EXPONENTS  0.1407000D+01 0.3880000D+00 0.3880000D+00 0.3880000D+00 0.1020000D+00
EXPONENTS  0.1020000D+00 0.1020000D+00 0.1057000D+01 0.1057000D+01 0.1057000D+01
EXPONENTS  0.1057000D+01 0.1057000D+01 0.1057000D+01 0.2470000D+00 0.2470000D+00
EXPONENTS  0.2470000D+00 0.2470000D+00 0.2470000D+00 0.2470000D+00 0.3387000D+02
EXPONENTS  0.5095000D+01 0.1159000D+01 0.3258000D+00 0.1027000D+00 0.2526000D-01
EXPONENTS  0.1407000D+01 0.1407000D+01 0.1407000D+01 0.3880000D+00 0.3880000D+00
EXPONENTS  0.3880000D+00 0.1020000D+00 0.1020000D+00 0.1020000D+00 0.1057000D+01
EXPONENTS  0.1057000D+01 0.1057000D+01 0.1057000D+01 0.1057000D+01 0.1057000D+01
EXPONENTS  0.2470000D+00 0.2470000D+00 0.2470000D+00 0.2470000D+00 0.2470000D+00
EXPONENTS  0.2470000D+00 0.3387000D+02 0.5095000D+01 0.1159000D+01 0.3258000D+00
EXPONENTS  0.1027000D+00 0.2526000D-01 0.1407000D+01 0.1407000D+01 0.1407000D+01
EXPONENTS  0.3880000D+00 0.3880000D+00 0.3880000D+00 0.1020000D+00 0.1020000D+00
EXPONENTS  0.1020000D+00 0.1057000D+01 0.1057000D+01 0.1057000D+01 0.1057000D+01
EXPONENTS  0.1057000D+01 0.1057000D+01 0.2470000D+00 0.2470000D+00 0.2470000D+00
EXPONENTS  0.2470000D+00 0.2470000D+00 0.2470000D+00 0.3387000D+02 0.5095000D+01
EXPONENTS  0.1159000D+01 0.3258000D+00 0.1027000D+00 0.2526000D-01 0.1407000D+01
EXPONENTS  0.1407000D+01 0.1407000D+01 0.3880000D+00 0.3880000D+00 0.3880000D+00
EXPONENTS  0.1020000D+00 0.1020000D+00 0.1020000D+00 0.1057000D+01 0.1057000D+01
EXPONENTS  0.1057000D+01 0.1057000D+01 0.1057000D+01 0.1057000D+01 0.2470000D+00
EXPONENTS  0.2470000D+00 0.2470000D+00 0.2470000D+00 0.2470000D+00 0.2470000D+00
MO    1     MO 0.0        OCC NO =    2.0000000  ORB. ENERGY =  -24.240396
  0.59301048D+00  0.11053972D+01  0.18739201D+01  0.28376672D+01  0.35485129D+01
  0.30549390D+01  0.11744301D+01 -0.50889978D-02  0.83649276D-03  0.15707853D-02
  0.26747764D-02  0.41900214D-02  0.56151216D-02  0.60398204D-02  0.36263002D-02
 -0.23848076D-02  0.67381949D-01 -0.82170956D-03 -0.84617368D-03  0.85495960D-04
  0.83613182D-04  0.55246764D-04 -0.20177606D-14 -0.19733258D-14 -0.13038598D-14
  0.71903833D-02  0.70320379D-02  0.46463647D-02 -0.53294945D-04  0.17324692D-14
 -0.15117660D-02 -0.73499909D-04 -0.27147773D-14 -0.13572535D-02 -0.41384550D-05
  0.12819769D-15 -0.88844509D-04 -0.15550702D-02 -0.16140628D-02  0.31691330D-02
  0.14660780D-14  0.27752093D-04 -0.79443975D-15  0.53725468D-03  0.56706567D-03
 -0.11043203D-02 -0.67665737D-15 -0.28338076D-04  0.56847289D-15  0.15563692D-03
  0.13302656D-03 -0.28866348D-03  0.66352596D-15 -0.50948152D-04 -0.15157533D-14
 -0.57895427D-04 -0.11740723D-14  0.37133168D-03  0.10130024D-03  0.71198319D-15
 -0.67508698D-03  0.72386047D-04  0.28102336D-14 -0.43890805D-03 -0.32980003D-14
  0.21253923D-04  0.38414470D-15 -0.39586738D-03 -0.31442357D-04 -0.15348576D-15
  0.62989404D-03 -0.32319412D-04 -0.99894834D-15  0.55770812D-03  0.13576980D-14
  0.16231226D-03  0.30258697D-03  0.51142528D-03  0.76883971D-03  0.94460842D-03
  0.79787282D-03  0.30092827D-03 -0.14893108D-05 -0.10778933D-03 -0.20181564D-03
 -0.34360839D-03 -0.53150993D-03 -0.69997988D-03 -0.72732393D-03 -0.46218171D-03
  0.30974343D-03 -0.48110383D-03  0.14019098D-02  0.52206046D-03 -0.37484548D-04
 -0.35144146D-04 -0.25024726D-04 -0.19464386D-14 -0.18249099D-14 -0.12994446D-14
  0.83393247D-03  0.78186470D-03  0.55673424D-03  0.74719217D-04  0.83428705D-14
 -0.17457404D-02  0.22108470D-03  0.14743942D-13 -0.89458184D-04  0.26288223D-04
  0.32930999D-15  0.75715212D-05 -0.36653133D-03 -0.39873895D-03  0.76527028D-03
 -0.17057223D-14 -0.12379144D-04  0.12799970D-14 -0.41216286D-03 -0.41115059D-03
  0.82331345D-03 -0.56072684D-14  0.74660849D-04  0.23552651D-14 -0.45535696D-05
  0.37792815D-05  0.77428809D-06 -0.25179437D-14  0.28534851D-04  0.54259482D-15
 -0.21301694D-04  0.36187482D-15 -0.49402457D-03  0.13856883D-03  0.35065101D-15
  0.76588153D-03 -0.74663748D-04 -0.14362755D-14  0.71619218D-03 -0.24829245D-14
 -0.49291198D-04 -0.33388867D-15 -0.47251596D-04  0.58526057D-04  0.36317583D-15
  0.70722475D-04  0.89347538D-04  0.63849020D-15  0.71032315D-04 -0.20762966D-15
  0.15521843D-04  0.28936245D-04  0.48907351D-04  0.73523768D-04  0.90332445D-04
  0.76300190D-04  0.28777624D-04 -0.14242207D-06 -0.11356788D-04 -0.21263490D-04
 -0.36202912D-04 -0.56000400D-04 -0.73750556D-04 -0.76631552D-04 -0.48695911D-04
  0.32634867D-04  0.54452971D-04 -0.92281627D-03 -0.28336738D-03  0.29075348D-04
  0.27259987D-04  0.19410735D-04 -0.12404741D-14 -0.11630233D-14 -0.82814189D-15
  0.69098603D-05  0.64784333D-05  0.46130304D-05 -0.26180210D-03  0.44466705D-14
  0.44481228D-04  0.24938281D-03 -0.14574296D-14  0.32896727D-04  0.29486212D-04
 -0.88382470D-16  0.47568731D-05  0.48857754D-05 -0.37679042D-04  0.32793267D-04
 -0.45804364D-16 -0.77657683D-04 -0.92056552D-15 -0.81339825D-05 -0.15036596D-03
  0.15849995D-03  0.28014727D-14  0.42207479D-03 -0.24323036D-14 -0.20251695D-04
  0.27758105D-07  0.20223937D-04 -0.71807998D-15  0.45888799D-05 -0.29152462D-15
  0.26539489D-04  0.14241208D-15 -0.10017297D-04 -0.58631641D-04 -0.10170267D-15
  0.84943110D-05 -0.20986826D-04 -0.32553357D-15  0.21557581D-04 -0.73218218D-15
  0.16132528D-04  0.18873748D-15  0.21651844D-04 -0.60129286D-04 -0.20374472D-15
 -0.11925273D-03  0.11731703D-04 -0.36246772D-15  0.54297193D-04 -0.36265260D-15
 -0.57615759D-05 -0.10391239D-04 -0.15321877D-04 -0.18939090D-03 -0.11342119D-04
  0.89409608D-06 -0.73637358D-05 -0.62911133D-15 -0.10015562D-04 -0.16550498D-03
  0.15452142D-14  0.10099711D-03 -0.16194294D-04  0.52437268D-15 -0.21028782D-04
  0.44013504D-04 -0.26411707D-05 -0.41372333D-04 -0.47053781D-15  0.13705002D-03
 -0.52460511D-15  0.12475287D-04 -0.62177800D-05 -0.62575074D-05  0.21967521D-15
  0.64497485D-05 -0.29211783D-15  0.12137702D-04  0.21890845D-04  0.32278039D-04
  0.26190363D-03  0.54154466D-05  0.35601046D-05 -0.56975700D-05  0.17490635D-04
  0.14510692D-04  0.68093315D-04 -0.13511529D-03 -0.27861367D-03  0.67831942D-05
 -0.38567367D-04 -0.33346894D-04 -0.73832202D-05  0.30019512D-04 -0.22636291D-04
  0.26577924D-04 -0.10891587D-03  0.10882916D-03 -0.14240317D-04 -0.89672567D-06
  0.15137043D-04 -0.39185471D-04 -0.49417776D-04  0.49001933D-04  0.12137702D-04
  0.21890845D-04  0.32278039D-04  0.26190363D-03  0.54154467D-05  0.35601046D-05
 -0.56975700D-05 -0.17490635D-04  0.14510692D-04  0.68093315D-04  0.13511529D-03
 -0.27861367D-03  0.67831942D-05  0.38567367D-04 -0.33346894D-04 -0.73832202D-05
  0.30019512D-04 -0.22636291D-04 -0.26577924D-04 -0.10891587D-03 -0.10882916D-03
 -0.14240317D-04 -0.89672567D-06  0.15137043D-04  0.39185471D-04 -0.49417776D-04
 -0.49001933D-04 -0.41402195D-05 -0.74670563D-05 -0.11010170D-04  0.44905764D-03
  0.48859585D-04 -0.21850997D-04  0.72626796D-04 -0.37557109D-04  0.28918062D-04
 -0.21502241D-03 -0.13674678D-03  0.52495341D-04 -0.68870156D-05 -0.14778922D-04
  0.18556589D-05  0.14270728D-04  0.12804555D-04 -0.27075283D-04  0.10288909D-03
 -0.73649086D-05 -0.16231791D-04 -0.78898545D-06 -0.28553260D-05  0.36443115D-05
  0.38040982D-04  0.19101138D-04 -0.67727722D-05 -0.41402195D-05 -0.74670563D-05
 -0.11010170D-04  0.44905764D-03  0.48859585D-04 -0.21850997D-04  0.72626796D-04
  0.37557109D-04  0.28918062D-04 -0.21502241D-03  0.13674678D-03  0.52495341D-04
 -0.68870156D-05  0.14778922D-04  0.18556589D-05  0.14270728D-04  0.12804555D-04
 -0.27075283D-04 -0.10288909D-03 -0.73649086D-05  0.16231791D-04 -0.78898545D-06
 -0.28553260D-05  0.36443115D-05 -0.38040982D-04  0.19101138D-04  0.67727722D-05
MO    2     MO 0.0        OCC NO =    2.0000000  ORB. ENERGY =   -9.958598
 -0.91587676D-04 -0.17072340D-03 -0.28941813D-03 -0.43826434D-03 -0.54805110D-03
 -0.47182094D-03 -0.18138520D-03  0.78597175D-06  0.39152372D-04  0.73521221D-04
  0.12519396D-03  0.19611560D-03  0.26281797D-03  0.28269617D-03  0.16973041D-03
 -0.11162186D-03  0.28634349D-03  0.37502005D-02  0.13050947D-02 -0.18088452D-03
 -0.17690111D-03 -0.11688604D-03 -0.54265364D-15 -0.53070341D-15 -0.35065818D-15
  0.60169517D-03  0.58844473D-03  0.38881032D-03  0.14989557D-03  0.77484288D-17
  0.82574160D-03  0.27244551D-03 -0.54300988D-15  0.79719758D-03 -0.99698512D-05
 -0.56026101D-15  0.11552956D-03 -0.15992008D-02 -0.13028104D-02  0.29020112D-02
 -0.75243216D-15 -0.35844145D-03  0.68368596D-15  0.61667751D-03  0.47320410D-03
 -0.10898816D-02  0.39321616D-15  0.23371093D-03 -0.39592316D-15  0.20841003D-03
  0.11579111D-03 -0.32420114D-03 -0.91144509D-15  0.23968741D-04 -0.14401813D-15
 -0.65383952D-03 -0.10372064D-14  0.16656520D-02  0.16123864D-02  0.30568697D-14
 -0.27232573D-02  0.34913217D-03  0.54749397D-16 -0.22736988D-02  0.22960520D-14
  0.24958723D-03  0.43329891D-15 -0.13273060D-02 -0.52909677D-03 -0.11950566D-14
  0.21078992D-02 -0.21966493D-03 -0.10484017D-15  0.18740187D-02 -0.10346422D-14
  0.33040041D+00  0.61594148D+00  0.10410496D+01  0.15650386D+01  0.19228307D+01
  0.16241379D+01  0.61256506D+00 -0.30316187D-02 -0.38055109D-02 -0.71251172D-02
 -0.12131122D-01 -0.18765001D-01 -0.24712846D-01 -0.25678230D-01 -0.16317362D-01
  0.10935517D-01  0.36618346D-01 -0.81494235D-02 -0.96238968D-03 -0.73122975D-05
 -0.68557437D-05 -0.48816979D-05 -0.11956678D-14 -0.11210146D-14 -0.79822916D-15
 -0.28106287D-02 -0.26351431D-02 -0.18763789D-02 -0.16294899D-03 -0.11312135D-14
  0.18654543D-02 -0.16159596D-02 -0.13883738D-14  0.82119469D-04 -0.69021829D-04
  0.20718062D-15 -0.21693473D-04 -0.37770922D-03  0.68807651D-03 -0.31036729D-03
  0.37074338D-14 -0.94809455D-03  0.11986964D-14  0.28174138D-03  0.30192490D-03
 -0.58366628D-03 -0.13331786D-13  0.59542318D-04 -0.21995508D-14 -0.78477437D-04
  0.14084333D-03 -0.62365898D-04  0.24044175D-14 -0.43989033D-04 -0.34895811D-15
  0.97383703D-03 -0.51175411D-16 -0.13052721D-02 -0.36413813D-02  0.92756733D-15
  0.13477842D-02  0.71987016D-03 -0.77404110D-15  0.25680321D-02 -0.42856842D-14
 -0.29466906D-03 -0.10413976D-14  0.44193736D-03  0.10431077D-02  0.35296198D-14
 -0.43570400D-03 -0.15910048D-03 -0.40542696D-15 -0.89010809D-03 -0.46901328D-14
  0.61122025D-03  0.11394535D-02  0.19258772D-02  0.28952242D-02  0.35571175D-02
  0.30045544D-02  0.11332074D-02 -0.56083065D-05 -0.19691627D-03 -0.36868940D-03
 -0.62772524D-03 -0.97099550D-03 -0.12787669D-02 -0.13287207D-02 -0.84434238D-03
  0.56585863D-03  0.83339593D-03  0.46267698D-02  0.67875334D-03 -0.38940359D-03
 -0.36509062D-03 -0.25996627D-03  0.73166520D-14  0.68598263D-14  0.48846050D-14
 -0.16918245D-03 -0.15861930D-03 -0.11294639D-03 -0.15198117D-02 -0.30729223D-13
 -0.35810080D-03 -0.16361022D-02 -0.26834842D-13 -0.52982807D-03 -0.80168590D-04
 -0.22785297D-15 -0.30037148D-04  0.59912765D-03 -0.24447687D-03 -0.35465078D-03
 -0.15602330D-14  0.68640150D-03  0.16081112D-14 -0.15907642D-02  0.71717827D-03
  0.87358591D-03 -0.26637106D-13 -0.17443603D-02  0.17456755D-13  0.43260254D-04
 -0.55828344D-04  0.12568090D-04 -0.23114538D-14  0.49031021D-04  0.47062097D-14
  0.69589126D-03 -0.10143930D-14 -0.25503221D-03 -0.11963595D-02  0.29775114D-15
  0.16932452D-02 -0.89131425D-03  0.27454278D-14 -0.92814858D-03  0.12081573D-13
  0.25013767D-03 -0.41094710D-16 -0.59798826D-04 -0.37087434D-03  0.49186042D-15
  0.65171662D-03 -0.37953868D-03 -0.36857629D-15 -0.47232014D-03  0.40067691D-14
  0.16164642D-05  0.29153597D-05  0.42986962D-05 -0.10119197D-02 -0.90998226D-04
  0.54687359D-04 -0.13769746D-03 -0.56347710D-15 -0.41588233D-04  0.17210103D-02
 -0.18436503D-14  0.36102580D-03  0.27494209D-04 -0.48505738D-14  0.53401160D-04
 -0.25642278D-03  0.51783404D-04  0.20463938D-03  0.94135360D-15 -0.20232446D-02
  0.80122435D-15 -0.10215142D-03  0.68465755D-04  0.33685667D-04  0.70687257D-15
 -0.21862383D-03  0.18183689D-14  0.61341085D-05  0.11063117D-04  0.16312560D-04
  0.11866734D-02 -0.65236380D-03 -0.54379479D-04 -0.12053244D-02  0.16665625D-02
  0.56601164D-03 -0.87052410D-03  0.21141196D-02  0.89271056D-03 -0.19391048D-03
  0.14085853D-03  0.19640003D-03  0.39187852D-03 -0.16888176D-02  0.12969390D-02
  0.39574205D-02  0.15950349D-02 -0.22027948D-02  0.17903446D-04 -0.21172337D-03
  0.19381993D-03  0.44992270D-03  0.28340546D-03 -0.31984267D-03  0.61341085D-05
  0.11063117D-04  0.16312560D-04  0.11866734D-02 -0.65236380D-03 -0.54379479D-04
 -0.12053244D-02 -0.16665625D-02  0.56601164D-03 -0.87052410D-03 -0.21141196D-02
  0.89271056D-03 -0.19391048D-03 -0.14085853D-03  0.19640003D-03  0.39187852D-03
 -0.16888176D-02  0.12969390D-02 -0.39574205D-02  0.15950349D-02  0.22027948D-02
  0.17903446D-04 -0.21172337D-03  0.19381993D-03 -0.44992270D-03  0.28340546D-03
  0.31984267D-03  0.21062350D-04  0.37986816D-04  0.56011538D-04 -0.38444759D-03
  0.29339563D-03  0.39140259D-04 -0.24957369D-03 -0.21782197D-04 -0.17859854D-04
  0.13683418D-02 -0.40913944D-03  0.78138440D-03  0.69511323D-04 -0.17846634D-04
  0.88638133D-04 -0.87588111D-03  0.59242081D-03  0.28346030D-03 -0.73934601D-03
 -0.33106946D-03 -0.88880614D-03 -0.18102449D-03  0.90059347D-04  0.90965145D-04
 -0.54198898D-04 -0.15350457D-03 -0.51076866D-04  0.21062350D-04  0.37986816D-04
  0.56011538D-04 -0.38444759D-03  0.29339563D-03  0.39140259D-04 -0.24957369D-03
  0.21782197D-04 -0.17859854D-04  0.13683418D-02  0.40913944D-03  0.78138440D-03
  0.69511323D-04  0.17846634D-04  0.88638133D-04 -0.87588111D-03  0.59242081D-03
  0.28346030D-03  0.73934601D-03 -0.33106946D-03  0.88880614D-03 -0.18102449D-03
  0.90059347D-04  0.90965145D-04  0.54198898D-04 -0.15350457D-03  0.51076866D-04
MO    3     MO 0.0        OCC NO =    2.0000000  ORB. ENERGY =   -9.887745
  0.53078763D-04  0.98941114D-04  0.16772951D-03  0.25399192D-03  0.31761778D-03
  0.27343932D-03  0.10512006D-03 -0.45550242D-06 -0.37508850D-04 -0.70434976D-04
 -0.11993862D-03 -0.18788313D-03 -0.25178550D-03 -0.27082926D-03 -0.16260553D-03
  0.10693624D-03  0.15597016D-04 -0.50245813D-03  0.76714285D-04 -0.54470908D-04
 -0.53271358D-04 -0.35198639D-04 -0.13188501D-14 -0.12898066D-14 -0.85222973D-15
  0.21085478D-03  0.20621137D-03  0.13625257D-03  0.30485194D-03  0.11208863D-14
 -0.25139363D-03 -0.17106444D-02  0.21836666D-14 -0.40004675D-03 -0.42923868D-04
  0.98599711D-15 -0.30777406D-05  0.11702082D-03  0.30349758D-04 -0.14737058D-03
  0.78210386D-15  0.24429300D-02 -0.19987615D-14  0.12878677D-06 -0.15942253D-04
  0.15813466D-04 -0.23645295D-15 -0.11327274D-02  0.14137079D-14 -0.11683402D-03
  0.15802896D-03 -0.41194940D-04  0.39194826D-16 -0.10535316D-02  0.11980621D-14
 -0.96785334D-03 -0.11196438D-14 -0.29552704D-03  0.56714995D-03  0.49710733D-14
  0.11801031D-02  0.23364101D-02 -0.16121418D-14 -0.29352198D-03  0.20354209D-14
  0.46558744D-03  0.28659857D-15  0.14872146D-03 -0.50044996D-04 -0.16226202D-14
 -0.58415844D-03 -0.13467173D-02  0.76282450D-15  0.13799406D-03 -0.32655240D-16
 -0.11492458D-03 -0.21424554D-03 -0.36211271D-03 -0.54437401D-03 -0.66882637D-03
 -0.56493079D-03 -0.21307111D-03  0.10545008D-05 -0.19382284D-03 -0.36289751D-03
 -0.61786407D-03 -0.95574176D-03 -0.12586783D-02 -0.13078474D-02 -0.83107828D-03
  0.55696934D-03  0.81929393D-03  0.37533187D-02  0.75912823D-03  0.36890068D-03
  0.34586784D-03  0.24627851D-03 -0.63477069D-14 -0.59513787D-14 -0.42377362D-14
  0.27583895D-03  0.25861655D-03  0.18415039D-03  0.90407867D-03  0.26313394D-13
  0.43753724D-03  0.23603647D-02  0.18075845D-13  0.66853508D-03  0.10137044D-03
  0.23494793D-15  0.16255948D-04  0.50640370D-03 -0.13766738D-03 -0.36873631D-03
 -0.53841653D-15  0.91987398D-03  0.42718876D-14 -0.15916970D-02  0.77470880D-03
  0.81698817D-03 -0.17439123D-13 -0.20285202D-02  0.10040941D-13  0.11659612D-03
 -0.87957896D-04 -0.28638229D-04 -0.40205197D-14 -0.60774006D-05  0.19136336D-14
 -0.57146809D-03  0.34437782D-15  0.17997049D-03  0.11614133D-02  0.18435455D-15
 -0.16832945D-02  0.55299102D-03 -0.12174880D-14  0.11433830D-02 -0.42638980D-14
 -0.36243021D-03  0.12405518D-15  0.49873152D-04  0.57705346D-03  0.17556621D-14
 -0.60312857D-03  0.51023718D-03 -0.21278276D-14  0.45350912D-03 -0.34288398D-14
  0.33045059D+00  0.61603504D+00  0.10412077D+01  0.15652763D+01  0.19231228D+01
  0.16243846D+01  0.61265811D+00 -0.30320792D-02 -0.39023847D-02 -0.73064954D-02
 -0.12439934D-01 -0.19242686D-01 -0.25341940D-01 -0.26331899D-01 -0.16732740D-01
  0.11213893D-01  0.37004751D-01 -0.80425306D-02 -0.90902020D-03  0.10726299D-03
  0.10056587D-03  0.71608891D-04 -0.93958061D-14 -0.88091654D-14 -0.62726506D-14
  0.20435777D-03  0.19159840D-03  0.13642947D-03 -0.37160603D-03  0.42065478D-13
 -0.11037784D-03  0.18597785D-02  0.49919685D-13 -0.33130385D-04  0.82107793D-04
  0.29297955D-15  0.23366478D-04 -0.76110017D-03  0.45651141D-03  0.30458876D-03
  0.35592717D-14 -0.11673592D-02 -0.23453033D-14  0.25264137D-03 -0.53338970D-04
 -0.19930240D-03  0.33650370D-13  0.49965898D-03 -0.25964406D-13 -0.10278879D-03
  0.12607981D-03 -0.23291028D-04  0.53833772D-14 -0.41405285D-04 -0.82340317D-14
 -0.96272628D-03  0.79530285D-15  0.16792373D-02  0.32176564D-02  0.10261160D-14
 -0.18191737D-02 -0.32947756D-03 -0.34120246D-14 -0.32185382D-02 -0.14059151D-13
  0.23298601D-03 -0.45268204D-15 -0.48741230D-03 -0.75904981D-03  0.38590272D-14
  0.36152376D-03  0.60091771D-04 -0.25009810D-14  0.11007131D-02 -0.72873411D-14
  0.32268421D-06  0.58197425D-06  0.85812070D-06  0.21512352D-02  0.12452985D-02
 -0.39618560D-04  0.42796010D-04  0.91882379D-15  0.20574116D-02 -0.38687364D-03
  0.59563402D-14  0.19899766D-02 -0.37407801D-04  0.86693837D-14  0.24681651D-04
  0.17691633D-02  0.14808465D-02 -0.32500097D-02  0.31243423D-15  0.19766753D-03
 -0.21182202D-14  0.27017971D-03  0.12585964D-03 -0.39603935D-03 -0.34966013D-15
 -0.44658702D-04 -0.32993259D-14  0.30624281D-04  0.55232152D-04  0.81439775D-04
 -0.21838179D-05  0.77191919D-03  0.77221350D-04  0.32210101D-03 -0.80431798D-04
  0.19908170D-04 -0.14146891D-02 -0.24622108D-03 -0.89590539D-03  0.25570942D-04
 -0.38668450D-04 -0.96165751D-04 -0.94119579D-03  0.49050439D-03  0.45069140D-03
  0.77273911D-03 -0.45209060D-03  0.92600884D-03 -0.18824523D-03  0.60152427D-04
  0.12809280D-03  0.26387878D-04 -0.13205005D-03 -0.23969316D-04  0.30624281D-04
  0.55232152D-04  0.81439775D-04 -0.21838179D-05  0.77191919D-03  0.77221350D-04
  0.32210101D-03  0.80431798D-04  0.19908170D-04 -0.14146891D-02  0.24622108D-03
 -0.89590539D-03  0.25570942D-04  0.38668450D-04 -0.96165751D-04 -0.94119579D-03
  0.49050439D-03  0.45069140D-03 -0.77273911D-03 -0.45209060D-03 -0.92600884D-03
 -0.18824523D-03  0.60152427D-04  0.12809280D-03 -0.26387878D-04 -0.13205005D-03
  0.23969315D-04  0.12941061D-04  0.23339736D-04  0.34414428D-04  0.14826211D-02
 -0.92814635D-03 -0.60824655D-04  0.12009960D-02  0.17218639D-02 -0.62335242D-03
  0.52562190D-03  0.17711019D-02 -0.10219271D-02  0.23585762D-03  0.17048724D-03
 -0.13833324D-03  0.56669112D-03 -0.15884760D-02  0.10217849D-02 -0.38522168D-02
  0.16244652D-02  0.23960615D-02  0.76847285D-04 -0.16063097D-03  0.83783682D-04
 -0.41103878D-03  0.22025453D-03  0.25977393D-03  0.12941061D-04  0.23339736D-04
  0.34414428D-04  0.14826211D-02 -0.92814635D-03 -0.60824655D-04  0.12009960D-02
 -0.17218639D-02 -0.62335242D-03  0.52562190D-03 -0.17711019D-02 -0.10219271D-02
  0.23585762D-03 -0.17048724D-03 -0.13833324D-03  0.56669112D-03 -0.15884760D-02
  0.10217849D-02  0.38522168D-02  0.16244652D-02 -0.23960615D-02  0.76847285D-04
 -0.16063097D-03  0.83783682D-04  0.41103878D-03  0.22025453D-03 -0.25977393D-03
MO    4     MO 0.0        OCC NO =    2.0000000  ORB. ENERGY =   -1.085243
 -0.96168030D-02 -0.17926137D-01 -0.30389210D-01 -0.46018220D-01 -0.57545946D-01
 -0.49541699D-01 -0.19045638D-01  0.82527866D-04 -0.12066679D+00 -0.22659086D+00
 -0.38584515D+00 -0.60442414D+00 -0.80999946D+00 -0.87126363D+00 -0.52310554D+00
  0.34401621D+00  0.20754962D+00  0.99929749D-01  0.57324166D-02  0.40191210D-02
  0.39306126D-02  0.25971219D-02 -0.68832806D-14 -0.67316981D-14 -0.44479176D-14
  0.34639775D+00  0.33876944D+00  0.22383929D+00  0.53634288D-03  0.96594003D-14
  0.81629814D-01  0.47986916D-03 -0.90456410D-14  0.10070354D-01  0.11364110D-03
  0.11559270D-13  0.25657730D-03 -0.16108762D-01 -0.16131440D-01  0.32240202D-01
  0.11988774D-13  0.17640549D-03 -0.23874957D-13 -0.77205973D-02 -0.78545108D-02
  0.15575108D-01 -0.85536647D-14  0.44209669D-03  0.18704056D-13 -0.34408559D-03
 -0.30488583D-03  0.64897142D-03  0.73899100D-14  0.35005259D-04 -0.89331349D-14
 -0.31937452D-03 -0.13653030D-14  0.67760661D-02  0.50647799D-03  0.35694452D-14
 -0.99408662D-02  0.45164558D-03  0.52646398D-15 -0.10387332D-01 -0.25062153D-13
  0.51328346D-04 -0.48266279D-15  0.25075490D-02 -0.35832793D-03 -0.28195840D-14
 -0.38056901D-02  0.20434289D-03  0.42675724D-14 -0.37169569D-02  0.11732797D-13
 -0.39065882D-02 -0.72827686D-02 -0.12309162D-01 -0.18504702D-01 -0.22735165D-01
 -0.19203481D-01 -0.72428466D-02  0.35845252D-04 -0.15005987D-01 -0.28095941D-01
 -0.47835744D-01 -0.73994623D-01 -0.97448315D-01 -0.10125504D+00 -0.64343033D-01
  0.43121205D-01  0.20465983D-01 -0.13111877D-01 -0.17935211D-02  0.18329245D-03
  0.17184832D-03  0.12236624D-03 -0.17981491D-13 -0.16858791D-13 -0.12004463D-13
 -0.12297794D+00 -0.11529964D+00 -0.82100209D-01  0.10762380D-02  0.79305457D-13
 -0.23693645D-01 -0.21987632D-02  0.26082514D-12  0.11195373D-02 -0.10294873D-03
 -0.44628040D-14  0.24559838D-04 -0.95729693D-02 -0.10332105D-01  0.19905075D-01
 -0.73070501D-14  0.32382124D-03 -0.11484659D-13 -0.13443424D-02 -0.23607570D-02
  0.37050995D-02 -0.10113728D-12  0.25018532D-04  0.72156430D-13 -0.13767863D-03
  0.36198552D-03 -0.22430689D-03 -0.19258225D-13  0.34766412D-03  0.31556385D-13
  0.90547066D-03  0.47937828D-14 -0.34420054D-02 -0.17851404D-02  0.12184066D-14
  0.52876069D-02 -0.93127158D-03 -0.15599755D-13  0.50384092D-02 -0.48242758D-13
 -0.39410586D-03 -0.38071457D-14 -0.17172121D-03  0.10090988D-02  0.92285802D-14
  0.30673289D-03  0.17321882D-03  0.21928570D-14  0.20843073D-03 -0.20033605D-13
 -0.69571882D-03 -0.12969781D-02 -0.21921214D-02 -0.32954765D-02 -0.40488736D-02
 -0.34199211D-02 -0.12898684D-02  0.63836307D-05 -0.20205122D-02 -0.37830363D-02
 -0.64409430D-02 -0.99631594D-02 -0.13121130D-01 -0.13633695D-01 -0.86636011D-02