 Molden2AIM, Version 4.0.0 (06/02/2016)           Time: Fri Jun 29 01:21:45 2018
GAUSSIAN              9 MOL ORBITALS    312 PRIMITIVES        8 NUCLEI
  C    1    (CENTRE  1)   0.00000000 -0.00000189 -0.16511482  CHARGE =  6.0
  C    2    (CENTRE  2)   0.00000000  0.00000945  2.71058536  CHARGE =  6.0
  H    3    (CENTRE  3)   1.67476222  0.96692373  3.46786287  CHARGE =  1.0
  H    4    (CENTRE  4)  -1.67476222  0.96692373  3.46786287  CHARGE =  1.0
  H    5    (CENTRE  5)   0.00000000 -1.93383422  3.46786665  CHARGE =  1.0
  H    6    (CENTRE  6)   0.00000000  1.93369627 -0.92238666  CHARGE =  1.0
  H    7    (CENTRE  7)  -1.67463561 -0.96684058 -0.92238666  CHARGE =  1.0
  H    8    (CENTRE  8)   1.67463561 -0.96684058 -0.92238666  CHARGE =  1.0
CENTRE ASSIGNMENTS    1  1  1  1  1  1  1  1  1  1  1  1  1  1  1  1  1  1  1  1
CENTRE ASSIGNMENTS    1  1  1  1  1  1  1  1  1  1  1  1  1  1  1  1  1  1  1  1
CENTRE ASSIGNMENTS    1  1  1  1  1  1  1  1  1  1  1  1  1  1  1  1  1  1  1  1
CENTRE ASSIGNMENTS    1  1  1  1  1  1  1  1  1  1  1  1  1  1  1  2  2  2  2  2
CENTRE ASSIGNMENTS    2  2  2  2  2  2  2  2  2  2  2  2  2  2  2  2  2  2  2  2
CENTRE ASSIGNMENTS    2  2  2  2  2  2  2  2  2  2  2  2  2  2  2  2  2  2  2  2
CENTRE ASSIGNMENTS    2  2  2  2  2  2  2  2  2  2  2  2  2  2  2  2  2  2  2  2
CENTRE ASSIGNMENTS    2  2  2  2  2  2  2  2  2  2  3  3  3  3  3  3  3  3  3  3
CENTRE ASSIGNMENTS    3  3  3  3  3  3  3  3  3  3  3  3  3  3  3  3  3  4  4  4
CENTRE ASSIGNMENTS    4  4  4  4  4  4  4  4  4  4  4  4  4  4  4  4  4  4  4  4
CENTRE ASSIGNMENTS    4  4  4  4  5  5  5  5  5  5  5  5  5  5  5  5  5  5  5  5
CENTRE ASSIGNMENTS    5  5  5  5  5  5  5  5  5  5  5  6  6  6  6  6  6  6  6  6
CENTRE ASSIGNMENTS    6  6  6  6  6  6  6  6  6  6  6  6  6  6  6  6  6  6  7  7
CENTRE ASSIGNMENTS    7  7  7  7  7  7  7  7  7  7  7  7  7  7  7  7  7  7  7  7
CENTRE ASSIGNMENTS    7  7  7  7  7  8  8  8  8  8  8  8  8  8  8  8  8  8  8  8
CENTRE ASSIGNMENTS    8  8  8  8  8  8  8  8  8  8  8  8
TYPE ASSIGNMENTS      1  1  1  1  1  1  1  1  1  1  1  1  1  1  1  1  1  1  1  2
TYPE ASSIGNMENTS      2  2  3  3  3  4  4  4  2  3  4  2  3  4  2  3  4  5  6  7
TYPE ASSIGNMENTS      8  9 10  5  6  7  8  9 10  5  6  7  8  9 10 11 12 13 17 14
TYPE ASSIGNMENTS     15 18 19 16 20 11 12 13 17 14 15 18 19 16 20  1  1  1  1  1
TYPE ASSIGNMENTS      1  1  1  1  1  1  1  1  1  1  1  1  1  1  2  2  2  3  3  3
TYPE ASSIGNMENTS      4  4  4  2  3  4  2  3  4  2  3  4  5  6  7  8  9 10  5  6
TYPE ASSIGNMENTS      7  8  9 10  5  6  7  8  9 10 11 12 13 17 14 15 18 19 16 20
TYPE ASSIGNMENTS     11 12 13 17 14 15 18 19 16 20  1  1  1  1  1  1  2  3  4  2
TYPE ASSIGNMENTS      3  4  2  3  4  5  6  7  8  9 10  5  6  7  8  9 10  1  1  1
TYPE ASSIGNMENTS      1  1  1  2  3  4  2  3  4  2  3  4  5  6  7  8  9 10  5  6
TYPE ASSIGNMENTS      7  8  9 10  1  1  1  1  1  1  2  3  4  2  3  4  2  3  4  5
TYPE ASSIGNMENTS      6  7  8  9 10  5  6  7  8  9 10  1  1  1  1  1  1  2  3  4
TYPE ASSIGNMENTS      2  3  4  2  3  4  5  6  7  8  9 10  5  6  7  8  9 10  1  1
TYPE ASSIGNMENTS      1  1  1  1  2  3  4  2  3  4  2  3  4  5  6  7  8  9 10  5
TYPE ASSIGNMENTS      6  7  8  9 10  1  1  1  1  1  1  2  3  4  2  3  4  2  3  4
TYPE ASSIGNMENTS      5  6  7  8  9 10  5  6  7  8  9 10
EXPONENTS  0.8236000D+04 0.1235000D+04 0.2808000D+03 0.7927000D+02 0.2559000D+02
EXPONENTS  0.8997000D+01 0.3319000D+01 0.3643000D+00 0.8236000D+04 0.1235000D+04
EXPONENTS  0.2808000D+03 0.7927000D+02 0.2559000D+02 0.8997000D+01 0.3319000D+01
EXPONENTS  0.3643000D+00 0.9059000D+00 0.1285000D+00 0.4402000D-01 0.1871000D+02
EXPONENTS  0.4133000D+01 0.1200000D+01 0.1871000D+02 0.4133000D+01 0.1200000D+01
EXPONENTS  0.1871000D+02 0.4133000D+01 0.1200000D+01 0.3827000D+00 0.3827000D+00
EXPONENTS  0.3827000D+00 0.1209000D+00 0.1209000D+00 0.1209000D+00 0.3569000D-01
EXPONENTS  0.3569000D-01 0.3569000D-01 0.1097000D+01 0.1097000D+01 0.1097000D+01
EXPONENTS  0.1097000D+01 0.1097000D+01 0.1097000D+01 0.3180000D+00 0.3180000D+00
EXPONENTS  0.3180000D+00 0.3180000D+00 0.3180000D+00 0.3180000D+00 0.1000000D+00
EXPONENTS  0.1000000D+00 0.1000000D+00 0.1000000D+00 0.1000000D+00 0.1000000D+00
EXPONENTS  0.7610000D+00 0.7610000D+00 0.7610000D+00 0.7610000D+00 0.7610000D+00
EXPONENTS  0.7610000D+00 0.7610000D+00 0.7610000D+00 0.7610000D+00 0.7610000D+00
EXPONENTS  0.2680000D+00 0.2680000D+00 0.2680000D+00 0.2680000D+00 0.2680000D+00
EXPONENTS  0.2680000D+00 0.2680000D+00 0.2680000D+00 0.2680000D+00 0.2680000D+00
EXPONENTS  0.8236000D+04 0.1235000D+04 0.2808000D+03 0.7927000D+02 0.2559000D+02
EXPONENTS  0.8997000D+01 0.3319000D+01 0.3643000D+00 0.8236000D+04 0.1235000D+04
EXPONENTS  0.2808000D+03 0.7927000D+02 0.2559000D+02 0.8997000D+01 0.3319000D+01
EXPONENTS  0.3643000D+00 0.9059000D+00 0.1285000D+00 0.4402000D-01 0.1871000D+02
EXPONENTS  0.4133000D+01 0.1200000D+01 0.1871000D+02 0.4133000D+01 0.1200000D+01
EXPONENTS  0.1871000D+02 0.4133000D+01 0.1200000D+01 0.3827000D+00 0.3827000D+00
EXPONENTS  0.3827000D+00 0.1209000D+00 0.1209000D+00 0.1209000D+00 0.3569000D-01
EXPONENTS  0.3569000D-01 0.3569000D-01 0.1097000D+01 0.1097000D+01 0.1097000D+01
EXPONENTS  0.1097000D+01 0.1097000D+01 0.1097000D+01 0.3180000D+00 0.3180000D+00
EXPONENTS  0.3180000D+00 0.3180000D+00 0.3180000D+00 0.3180000D+00 0.1000000D+00
EXPONENTS  0.1000000D+00 0.1000000D+00 0.1000000D+00 0.1000000D+00 0.1000000D+00
EXPONENTS  0.7610000D+00 0.7610000D+00 0.7610000D+00 0.7610000D+00 0.7610000D+00
EXPONENTS  0.7610000D+00 0.7610000D+00 0.7610000D+00 0.7610000D+00 0.7610000D+00
EXPONENTS  0.2680000D+00 0.2680000D+00 0.2680000D+00 0.2680000D+00 0.2680000D+00
EXPONENTS  0.2680000D+00 0.2680000D+00 0.2680000D+00 0.2680000D+00 0.2680000D+00
EXPONENTS  0.3387000D+02 0.5095000D+01 0.1159000D+01 0.3258000D+00 0.1027000D+00
EXPONENTS  0.2526000D-01 0.1407000D+01 0.1407000D+01 0.1407000D+01 0.3880000D+00
EXPONENTS  0.3880000D+00 0.3880000D+00 0.1020000D+00 0.1020000D+00 0.1020000D+00
EXPONENTS  0.1057000D+01 0.1057000D+01 0.1057000D+01 0.1057000D+01 0.1057000D+01
EXPONENTS  0.1057000D+01 0.2470000D+00 0.2470000D+00 0.2470000D+00 0.2470000D+00
EXPONENTS  0.2470000D+00 0.2470000D+00 0.3387000D+02 0.5095000D+01 0.1159000D+01
EXPONENTS  0.3258000D+00 0.1027000D+00 0.2526000D-01 0.1407000D+01 0.1407000D+01
EXPONENTS  0.1407000D+01 0.3880000D+00 0.3880000D+00 0.3880000D+00 0.1020000D+00
EXPONENTS  0.1020000D+00 0.1020000D+00 0.1057000D+01 0.1057000D+01 0.1057000D+01
EXPONENTS  0.1057000D+01 0.1057000D+01 0.1057000D+01 0.2470000D+00 0.2470000D+00
EXPONENTS  0.2470000D+00 0.2470000D+00 0.2470000D+00 0.2470000D+00 0.3387000D+02
EXPONENTS  0.5095000D+01 0.1159000D+01 0.3258000D+00 0.1027000D+00 0.2526000D-01
EXPONENTS  0.1407000D+01 0.1407000D+01 0.1407000D+01 0.3880000D+00 0.3880000D+00
EXPONENTS  0.3880000D+00 0.1020000D+00 0.1020000D+00 0.1020000D+00 0.1057000D+01
EXPONENTS  0.1057000D+01 0.1057000D+01 0.1057000D+01 0.1057000D+01 0.1057000D+01
EXPONENTS  0.2470000D+00 0.2470000D+00 0.2470000D+00 0.2470000D+00 0.2470000D+00
EXPONENTS  0.2470000D+00 0.3387000D+02 0.5095000D+01 0.1159000D+01 0.3258000D+00
EXPONENTS  0.1027000D+00 0.2526000D-01 0.1407000D+01 0.1407000D+01 0.1407000D+01
EXPONENTS  0.3880000D+00 0.3880000D+00 0.3880000D+00 0.1020000D+00 0.1020000D+00
EXPONENTS  0.1020000D+00 0.1057000D+01 0.1057000D+01 0.1057000D+01 0.1057000D+01
EXPONENTS  0.1057000D+01 0.1057000D+01 0.2470000D+00 0.2470000D+00 0.2470000D+00
EXPONENTS  0.2470000D+00 0.2470000D+00 0.2470000D+00 0.3387000D+02 0.5095000D+01
EXPONENTS  0.1159000D+01 0.3258000D+00 0.1027000D+00 0.2526000D-01 0.1407000D+01
EXPONENTS  0.1407000D+01 0.1407000D+01 0.3880000D+00 0.3880000D+00 0.3880000D+00
EXPONENTS  0.1020000D+00 0.1020000D+00 0.1020000D+00 0.1057000D+01 0.1057000D+01
EXPONENTS  0.1057000D+01 0.1057000D+01 0.1057000D+01 0.1057000D+01 0.2470000D+00
EXPONENTS  0.2470000D+00 0.2470000D+00 0.2470000D+00 0.2470000D+00 0.2470000D+00
EXPONENTS  0.3387000D+02 0.5095000D+01 0.1159000D+01 0.3258000D+00 0.1027000D+00
EXPONENTS  0.2526000D-01 0.1407000D+01 0.1407000D+01 0.1407000D+01 0.3880000D+00
EXPONENTS  0.3880000D+00 0.3880000D+00 0.1020000D+00 0.1020000D+00 0.1020000D+00
EXPONENTS  0.1057000D+01 0.1057000D+01 0.1057000D+01 0.1057000D+01 0.1057000D+01
EXPONENTS  0.1057000D+01 0.2470000D+00 0.2470000D+00 0.2470000D+00 0.2470000D+00
EXPONENTS  0.2470000D+00 0.2470000D+00
MO    1     MO 0.0        OCC NO =    2.0000000  ORB. ENERGY =   -9.873735
  0.20780229D+00  0.38739072D+00  0.65475856D+00  0.98431659D+00  0.12093467D+01
  0.10214866D+01  0.38526716D+00 -0.19067087D-02 -0.25510017D-02 -0.47762801D-02
 -0.81320256D-02 -0.12579007D-01 -0.16566110D-01 -0.17213249D-01 -0.10938247D-01
  0.73305588D-02  0.23570018D-01 -0.54302319D-03  0.80011826D-04  0.73097219D-14
  0.68533289D-14  0.48799785D-14 -0.90503383D-08 -0.84852674D-08 -0.60420159D-08
  0.22610643D-03  0.21198915D-03  0.15094890D-03 -0.30725287D-13  0.38341066D-07
  0.95333391D-03 -0.27855534D-13  0.67943749D-08  0.32619852D-03  0.99770378D-16
 -0.13858735D-08  0.18636480D-04  0.27160305D-04  0.27082103D-04 -0.54242408D-04
  0.33472423D-14  0.22698797D-14  0.21206666D-07  0.64222451D-03  0.64229043D-03
 -0.12845149D-02  0.22934622D-13  0.74252253D-14 -0.33281984D-07  0.66893654D-05
  0.66916475D-05 -0.13381013D-04  0.78964968D-14  0.39468889D-14  0.15045366D-07
 -0.53803400D-15  0.99569617D-03  0.16020126D-03 -0.30809462D-15 -0.29870647D-02
 -0.24030506D-03  0.19221966D-14 -0.23852823D-07 -0.24029873D-03 -0.66053381D-14
 -0.76831794D-16 -0.13242044D-03 -0.45600716D-03  0.14174871D-14  0.39728018D-03
  0.68402930D-03 -0.11869917D-14 -0.18852939D-07  0.68399219D-03 -0.44292376D-14
  0.25712086D+00  0.47933175D+00  0.81015509D+00  0.12179285D+01  0.14963659D+01
  0.12639202D+01  0.47670419D+00 -0.23592356D-02 -0.30859781D-02 -0.57779248D-02
 -0.98374113D-02 -0.15216979D-01 -0.20040227D-01 -0.20823079D-01 -0.13232132D-01
  0.88678672D-02  0.28931023D-01 -0.17027105D-02 -0.17665207D-03  0.19025643D-13
  0.17837750D-13  0.12701541D-13  0.76887503D-08  0.72086922D-08  0.51330183D-08
 -0.20677764D-03 -0.19386718D-03 -0.13804498D-03 -0.79779778D-13 -0.40014295D-07
 -0.55640735D-03 -0.59896964D-13  0.47343724D-08  0.43124313D-04 -0.13341324D-15
  0.15708165D-08  0.78601238D-05  0.14910657D-03  0.14902467D-03 -0.29813124D-03
 -0.12211742D-13 -0.62874992D-14  0.11103884D-07  0.54185230D-03  0.54191479D-03
 -0.10837671D-02 -0.58833809D-13 -0.44434534D-13 -0.29808940D-07  0.17710769D-04
  0.17712167D-04 -0.35422936D-04 -0.12236802D-13 -0.43419858D-14  0.15757660D-07
 -0.14782594D-14 -0.11735940D-02 -0.47539966D-03 -0.18233401D-14  0.35207699D-02
  0.71310006D-03  0.62581181D-14  0.12033045D-07  0.71309890D-03 -0.26729008D-13
  0.31782937D-15  0.19397130D-03  0.45347297D-03 -0.17496708D-14 -0.58193440D-03
 -0.68022180D-03  0.79618268D-15  0.20503980D-07 -0.68019712D-03 -0.13531362D-13
  0.18583337D-04  0.33515814D-04  0.49419048D-04  0.33808093D-03 -0.13538189D-03
 -0.12442090D-04  0.13138799D-02  0.75855831D-03  0.55832667D-03  0.13205181D-02
  0.76236938D-03  0.13750876D-02  0.13034061D-03  0.75244121D-04  0.13300394D-03
 -0.84220744D-03  0.57507464D-03  0.26713280D-03 -0.24546766D-02 -0.29011544D-02
 -0.16749616D-02 -0.77182282D-04  0.96796823D-04 -0.19614541D-04 -0.30131955D-03
 -0.31387676D-03 -0.18122433D-03  0.18583337D-04  0.33515814D-04  0.49419048D-04
  0.33808093D-03 -0.13538189D-03 -0.12442090D-04 -0.13138799D-02  0.75855831D-03
  0.55832667D-03 -0.13205181D-02  0.76236938D-03  0.13750876D-02 -0.13034061D-03
  0.75244121D-04  0.13300394D-03 -0.84220744D-03  0.57507464D-03  0.26713280D-03
  0.24546766D-02  0.29011544D-02 -0.16749616D-02 -0.77182282D-04  0.96796824D-04
 -0.19614541D-04  0.30131955D-03  0.31387676D-03 -0.18122433D-03  0.18577472D-04
  0.33505236D-04  0.49403451D-04  0.33798779D-03 -0.13528758D-03 -0.12438424D-04
  0.12231687D-14 -0.15171342D-02  0.55833465D-03 -0.10000088D-13 -0.15248043D-02
  0.13751145D-02 -0.11160473D-13 -0.15048851D-03  0.13301205D-03  0.12836554D-02
 -0.15507767D-02  0.26712134D-03 -0.17786229D-14  0.19642276D-14  0.33499692D-02
  0.18377365D-03 -0.16416417D-03 -0.19609485D-04 -0.45486016D-14  0.23317843D-14
  0.36244395D-03  0.20301063D-04  0.36613803D-04  0.53987031D-04  0.20784703D-03
 -0.61500361D-04  0.26262757D-05  0.12909221D-14  0.12129987D-02 -0.38986363D-03
 -0.74985380D-14  0.11105359D-02 -0.14969619D-02 -0.76735041D-14  0.11477916D-03
 -0.11665294D-03  0.10675372D-02 -0.10559598D-02 -0.11577367D-04  0.15877383D-14
 -0.79627513D-15  0.29984122D-02  0.17317030D-03 -0.10575680D-03 -0.67413498D-04
  0.26556677D-14 -0.19886657D-14  0.30408370D-03  0.20307721D-04  0.36625811D-04
  0.54004736D-04  0.20796305D-03 -0.61569175D-04  0.26230971D-05 -0.10504851D-02
 -0.60648820D-03 -0.38985646D-03 -0.96175033D-03 -0.55522772D-03 -0.14969412D-02
 -0.99412249D-04 -0.57387364D-04 -0.11664479D-03 -0.52512126D-03  0.53669509D-03
 -0.11573831D-04 -0.18389864D-02 -0.25967020D-02 -0.14991862D-02 -0.36027713D-04
  0.10344715D-03 -0.67419441D-04 -0.24155431D-03 -0.26333689D-03 -0.15204571D-03
  0.20307721D-04  0.36625811D-04  0.54004736D-04  0.20796305D-03 -0.61569175D-04
  0.26230971D-05  0.10504851D-02 -0.60648820D-03 -0.38985646D-03  0.96175033D-03
 -0.55522772D-03 -0.14969412D-02  0.99412249D-04 -0.57387364D-04 -0.11664479D-03
 -0.52512126D-03  0.53669509D-03 -0.11573831D-04  0.18389864D-02  0.25967020D-02
 -0.14991862D-02 -0.36027713D-04  0.10344715D-03 -0.67419441D-04  0.24155431D-03
  0.26333689D-03 -0.15204571D-03
MO    2     MO 0.0        OCC NO =    2.0000000  ORB. ENERGY =   -9.873590
  0.25677708D+00  0.47869086D+00  0.80907188D+00  0.12163001D+01  0.14943651D+01
  0.12622303D+01  0.47606681D+00 -0.23560812D-02 -0.28186808D-02 -0.52774597D-02
 -0.89853268D-02 -0.13898934D-01 -0.18304407D-01 -0.19019452D-01 -0.12086008D-01
  0.80997614D-02  0.28021051D-01 -0.55601287D-02 -0.12141193D-02  0.52068934D-14
  0.48817935D-14  0.34761278D-14 -0.26823830D-08 -0.25149046D-08 -0.17907619D-08
 -0.67341231D-04 -0.63136684D-04 -0.44957080D-04 -0.22447049D-13  0.19034721D-07
 -0.17999274D-02 -0.60010897D-13 -0.29651931D-07 -0.17206665D-02 -0.64690908D-15
 -0.16095209D-08 -0.12412839D-03  0.58475939D-03  0.58468539D-03 -0.11694448D-02
 -0.30242340D-14  0.44711812D-14  0.19752412D-07 -0.40641927D-03 -0.40641076D-03
  0.81283002D-03  0.24191232D-13  0.15915610D-13 -0.20937554D-07  0.53148318D-04
  0.53145350D-04 -0.10629367D-03  0.87129606D-14  0.24202517D-14  0.82638579D-08
 -0.91889158D-15  0.95340459D-03  0.15169080D-02 -0.97850807D-15 -0.28602380D-02
 -0.22753906D-02  0.37351828D-14  0.24178464D-07 -0.22753334D-02 -0.14330961D-13
  0.15080815D-15 -0.30638442D-03 -0.36955550D-04 -0.46190287D-15  0.91915166D-03
  0.55455003D-04  0.94784262D-17  0.16043004D-08  0.55411648D-04 -0.28945182D-14
 -0.20737590D+00 -0.38659584D+00 -0.65341507D+00 -0.98229688D+00 -0.12068652D+01
 -0.10193906D+01 -0.38447663D+00  0.19027963D-02  0.22193635D-02  0.41553488D-02
  0.70748369D-02  0.10943697D-01  0.14412464D-01  0.14975473D-01  0.95162409D-02
 -0.63775633D-02 -0.22441871D-01  0.53245962D-02  0.12039788D-02 -0.11795494D-13
 -0.11059026D-13 -0.78746850D-14  0.39104851D-09  0.36663283D-09  0.26106442D-09
 -0.11309705D-03 -0.10603567D-03 -0.75503715D-04  0.49669606D-13 -0.43580727D-08
 -0.19583148D-02  0.66821640D-13 -0.34090334D-07 -0.17506632D-02  0.37957019D-15
 -0.12258079D-08 -0.12527124D-03 -0.56575648D-03 -0.56571049D-03  0.11314670D-02
  0.54239718D-14  0.10981808D-13  0.25810581D-09  0.53219475D-03  0.53221566D-03
 -0.10644104D-02  0.40141402D-13  0.28262821D-13 -0.15268804D-07 -0.50551286D-04
 -0.50547297D-04  0.10109858D-03  0.97067993D-14  0.26671248D-14 -0.19480698D-08
  0.13002370D-14  0.72282670D-03  0.14492310D-02  0.15668343D-14 -0.21685208D-02
 -0.21738704D-02 -0.54675453D-14  0.40738166D-07 -0.21738225D-02  0.22448916D-13
 -0.67598465D-15 -0.27175907D-03  0.59565165D-04  0.63061996D-15  0.81526899D-03
 -0.89333959D-04  0.13973340D-14  0.82220554D-08 -0.89361536D-04  0.10126843D-13
  0.10386780D-04  0.18732986D-04  0.27621777D-04 -0.57552085D-03  0.33785968D-03
  0.70343469D-04 -0.11159612D-02 -0.64429814D-03 -0.74335476D-03 -0.15699501D-02
 -0.90639870D-03  0.72026817D-03 -0.13365234D-03 -0.77164206D-04 -0.64284230D-04
  0.14189848D-02 -0.12256211D-03 -0.12964227D-02  0.26699690D-02  0.11435115D-02
  0.66020534D-03  0.18757961D-03  0.41642345D-04 -0.22922196D-03  0.25275926D-03
  0.20756227D-03  0.11984265D-03  0.10386780D-04  0.18732986D-04  0.27621777D-04
 -0.57552085D-03  0.33785968D-03  0.70343469D-04  0.11159612D-02 -0.64429814D-03
 -0.74335476D-03  0.15699501D-02 -0.90639870D-03  0.72026817D-03  0.13365234D-03
 -0.77164206D-04 -0.64284230D-04  0.14189848D-02 -0.12256211D-03 -0.12964227D-02
 -0.26699690D-02 -0.11435115D-02  0.66020534D-03  0.18757961D-03  0.41642345D-04
 -0.22922196D-03 -0.25275926D-03 -0.20756227D-03  0.11984265D-03  0.10387724D-04
  0.18734687D-04  0.27624285D-04 -0.57555799D-03  0.33781559D-03  0.70340185D-04
  0.24590202D-14  0.12885762D-02 -0.74334359D-03  0.43542865D-14  0.18128073D-02
  0.72029637D-03  0.74861222D-14  0.15432486D-03 -0.64287540D-04 -0.89330441D-03
  0.21897237D-02 -0.12964193D-02  0.26567978D-14 -0.96577686D-15 -0.13204017D-02
 -0.31324915D-04  0.26054285D-03 -0.22921793D-03  0.25172138D-14 -0.23529885D-14
 -0.23967261D-03 -0.63026986D-05 -0.11367176D-04 -0.16760895D-04  0.63174594D-03
 -0.35927487D-03 -0.71391516D-04 -0.48887505D-14  0.15793461D-02 -0.84429111D-03
  0.13788646D-14  0.20939647D-02  0.41486846D-03 -0.58449262D-14  0.18260872D-03
 -0.90876653D-04  0.11433026D-02 -0.24669650D-02  0.13236624D-02  0.18172868D-14
 -0.73475019D-15  0.19953708D-02  0.69245707D-04 -0.28924117D-03  0.21999547D-03
  0.70715830D-15 -0.23393315D-14  0.31054425D-03 -0.62999649D-05 -0.11362246D-04
 -0.16753625D-04  0.63177370D-03 -0.35934642D-03 -0.71395872D-04 -0.13677758D-02
 -0.78967857D-03 -0.84430458D-03 -0.18134245D-02 -0.10469584D-02  0.41484077D-03
 -0.15815119D-03 -0.91305160D-04 -0.90870846D-04 -0.15644218D-02  0.24076173D-03
  0.13236601D-02 -0.31265580D-02 -0.17280681D-02 -0.99769107D-03 -0.19962294D-03
 -0.20373459D-04  0.21999640D-03 -0.31044963D-03 -0.26893848D-03 -0.15528197D-03
 -0.62999649D-05 -0.11362246D-04 -0.16753625D-04  0.63177370D-03 -0.35934642D-03
 -0.71395872D-04  0.13677758D-02 -0.78967857D-03 -0.84430458D-03  0.18134245D-02
 -0.10469584D-02  0.41484077D-03  0.15815119D-03 -0.91305160D-04 -0.90870846D-04
 -0.15644218D-02  0.24076173D-03  0.13236601D-02  0.31265580D-02  0.17280681D-02
 -0.99769107D-03 -0.19962294D-03 -0.20373459D-04  0.21999640D-03  0.31044963D-03
  0.26893848D-03 -0.15528197D-03
MO    3     MO 0.0        OCC NO =    2.0000000  ORB. ENERGY =   -0.681820
 -0.84804335D-02 -0.15809456D-01 -0.26720766D-01 -0.40170064D-01 -0.49353565D-01
 -0.41686975D-01 -0.15722793D-01  0.77812982D-04 -0.38578863D-01 -0.72231804D-01
 -0.12298083D+00 -0.19023264D+00 -0.25052969D+00 -0.26031640D+00 -0.16541938D+00
  0.11086023D+00  0.50655728D-01  0.20955202D-01  0.13160623D-03  0.45334452D-13
  0.42503930D-13  0.30265330D-13  0.95631093D-06  0.89660229D-06  0.63843424D-06
  0.71860462D-01  0.67373751D-01  0.47974124D-01 -0.21190448D-12 -0.11324741D-06
  0.13767792D-01 -0.38305455D-12 -0.23988582D-07  0.34637384D-03 -0.84113349D-14
  0.73130161D-08 -0.22150179D-04 -0.32036832D-02 -0.32038777D-02  0.64075608D-02
  0.90409046D-14  0.44482675D-14  0.85587837D-07 -0.10602045D-02 -0.10604862D-02
  0.21206907D-02  0.19009797D-12  0.17269091D-12  0.12826085D-06 -0.30522399D-04
 -0.30527622D-04  0.61050020D-04  0.60431319D-13  0.27240469D-13  0.16451353D-07
 -0.50527124D-14  0.85427685D-03  0.31776680D-02 -0.42718729D-14 -0.25629628D-02
 -0.47665543D-02  0.19430010D-13  0.13223340D-06 -0.47664496D-02 -0.86592679D-13
 -0.16900190D-14 -0.18775188D-04  0.20945960D-03 -0.32468478D-14  0.56317800D-04
 -0.31421589D-03  0.83169048D-14  0.77651162D-08 -0.31416292D-03 -0.40419101D-13
 -0.84791138D-02 -0.15806996D-01 -0.26716608D-01 -0.40163813D-01 -0.49345885D-01
 -0.41680488D-01 -0.15720347D-01  0.77800873D-04 -0.38574849D-01 -0.72224289D-01
 -0.12296803D+00 -0.19021285D+00 -0.25050363D+00 -0.26028931D+00 -0.16540217D+00
  0.11084869D+00  0.50650735D-01  0.20953044D-01  0.13157500D-03 -0.19197321D-13
 -0.17998709D-13 -0.12816153D-13 -0.78073691D-06 -0.73199048D-06 -0.52122083D-06
 -0.71886515D-01 -0.67398177D-01 -0.47991517D-01  0.82200909D-13  0.15397513D-06
 -0.13771461D-01  0.22362536D-12  0.13878778D-07 -0.34607326D-03  0.11807403D-13
 -0.76850817D-08  0.22160923D-04 -0.32040029D-02 -0.32041882D-02  0.64081911D-02
 -0.72879907D-14 -0.26611795D-14  0.66400645D-07 -0.10595782D-02 -0.10598461D-02
  0.21194242D-02  0.10221949D-12  0.10931468D-12  0.12182075D-06 -0.30503540D-04
 -0.30507384D-04  0.61010924D-04  0.16041859D-13 -0.26653944D-14  0.15810362D-07
  0.44778572D-14 -0.85487433D-03 -0.31777342D-02  0.54539206D-14  0.25647572D-02
  0.47666476D-02 -0.18887492D-13 -0.13418715D-06  0.47665550D-02  0.43577945D-13
  0.77562591D-15  0.18713921D-04 -0.20928703D-03  0.29241121D-14 -0.56133136D-04
  0.31395221D-03 -0.52509898D-14 -0.86278959D-08  0.31390889D-03  0.38505328D-13
  0.13363249D-01  0.24101169D-01  0.35537160D-01  0.16605056D-01  0.29531445D-03
 -0.11272876D-04 -0.87928270D-02 -0.50765335D-02 -0.53133957D-02 -0.56989295D-03
 -0.32895151D-03 -0.23842129D-02  0.32365511D-03  0.18687397D-03  0.98796212D-05
  0.19773947D-03 -0.99384954D-03  0.79611007D-03  0.20638430D-02  0.35723549D-02
  0.20624720D-02 -0.25170757D-03 -0.96722536D-05  0.26137983D-03 -0.41926382D-03
 -0.11145354D-03 -0.64351305D-04  0.13363249D-01  0.24101169D-01  0.35537160D-01
  0.16605056D-01  0.29531445D-03 -0.11272876D-04  0.87928270D-02 -0.50765335D-02
 -0.53133957D-02  0.56989295D-03 -0.32895151D-03 -0.23842129D-02 -0.32365511D-03
  0.18687397D-03  0.98796211D-05  0.19773947D-03 -0.99384954D-03  0.79611007D-03
 -0.20638430D-02 -0.35723549D-02  0.20624720D-02 -0.25170757D-03 -0.96722536D-05
  0.26137983D-03  0.41926382D-03  0.11145354D-03 -0.64351305D-04  0.13363268D-01
  0.24101203D-01  0.35537210D-01  0.16605536D-01  0.29566986D-03 -0.11280231D-04
  0.77383440D-14  0.10153121D-01 -0.53134038D-02  0.81520117D-14  0.65833110D-03
 -0.23843676D-02  0.34085671D-15 -0.37366019D-03  0.98389422D-05 -0.15896825D-02
  0.79360251D-03  0.79608000D-03  0.10527620D-13 -0.97448773D-14 -0.41251902D-02
  0.11135253D-03 -0.37274768D-03  0.26139515D-03  0.31847904D-14  0.33854375D-14
  0.12867136D-03  0.13366702D-01  0.24107398D-01  0.35546345D-01  0.16609214D-01
  0.29610055D-03 -0.11269465D-04 -0.85158351D-14 -0.10156751D-01  0.53150111D-02
 -0.15023598D-13 -0.65815956D-03  0.23850987D-02 -0.44809081D-13  0.37367358D-03
 -0.97975730D-05 -0.15903470D-02  0.79422683D-03  0.79612017D-03  0.78987143D-14
 -0.77454400D-14 -0.41266063D-02  0.11134189D-03 -0.37285834D-03  0.26151645D-03
  0.97544160D-14 -0.12399113D-13  0.12869456D-03  0.13366670D-01  0.24107340D-01
  0.35546259D-01  0.16608683D-01  0.29571299D-03 -0.11263416D-04  0.87959536D-02
  0.50783312D-02  0.53150063D-02  0.56973896D-03  0.32885494D-03  0.23849416D-02
 -0.32366930D-03 -0.18688234D-03 -0.98396271D-05  0.19804195D-03 -0.99419685D-03
  0.79615490D-03  0.20649513D-02  0.35735748D-02  0.20631730D-02 -0.25179197D-03
 -0.97084451D-05  0.26150042D-03 -0.41934943D-03 -0.11147337D-03 -0.64362294D-04
  0.13366670D-01  0.24107340D-01  0.35546259D-01  0.16608683D-01  0.29571299D-03
 -0.11263416D-04 -0.87959536D-02  0.50783312D-02  0.53150063D-02 -0.56973896D-03
  0.32885494D-03  0.23849416D-02  0.32366930D-03 -0.18688234D-03 -0.98396270D-05
  0.19804195D-03 -0.99419685D-03  0.79615490D-03 -0.20649513D-02 -0.35735748D-02
  0.20631730D-02 -0.25179197D-03 -0.97084451D-05  0.26150042D-03  0.41934943D-03
  0.11147337D-03 -0.64362294D-04
MO    4     MO 0.0        OCC NO =    2.0000000  ORB. ENERGY =   -0.550862
  0.63624689D-02  0.11861089D-01  0.20047329D-01  0.30137702D-01  0.37027650D-01
  0.31275769D-01  0.11796070D-01 -0.58379406D-04  0.34671702D-01  0.64916366D-01
  0.11052567D+00  0.17096640D+00  0.22515674D+00  0.23395227D+00  0.14866617D+00
 -0.99632608D-01 -0.46802414D-01 -0.29113374D-01 -0.16314933D-02  0.12016321D-13
  0.11266064D-13  0.80221091D-14 -0.64987332D-06 -0.60929754D-06 -0.43385615D-06
  0.16045285D+00  0.15043474D+00  0.10711850D+00 -0.65999573D-13 -0.30097772D-06
  0.32863190D-01  0.28976713D-13 -0.23692778D-06  0.27618243D-02 -0.10452658D-14
 -0.51433002D-08 -0.75433912D-04 -0.46129537D-02 -0.46127072D-02  0.92256609D-02
  0.26591014D-14 -0.23251168D-13  0.56108828D-07 -0.56086346D-03 -0.56097557D-03
  0.11218390D-02  0.65526021D-13  0.83014846D-13  0.89527276D-07  0.15409316D-05
  0.14856859D-05 -0.30266175D-05 -0.23014684D-14 -0.31703176D-13  0.74541362D-08
 -0.21249943D-14 -0.79801578D-03 -0.17201573D-02 -0.19792779D-14  0.23940455D-02
  0.25802325D-02  0.83542609D-14  0.18706722D-08  0.25802392D-02 -0.15215087D-13
 -0.57576084D-14 -0.14645131D-03 -0.13394082D-03 -0.50916045D-14  0.43935361D-03
  0.20094217D-03  0.22364430D-13  0.32378563D-09  0.20088028D-03 -0.10736441D-13
 -0.63629676D-02 -0.11862018D-01 -0.20048900D-01 -0.30140065D-01 -0.37030552D-01
 -0.31278221D-01 -0.11796994D-01  0.58383982D-04 -0.34676950D-01 -0.64926191D-01
 -0.11054240D+00 -0.17099228D+00 -0.22519081D+00 -0.23398768D+00 -0.14868867D+00
  0.99647687D-01  0.46809231D-01  0.29118487D-01  0.16318126D-02 -0.39779359D-14
 -0.37295678D-14 -0.26556744D-14 -0.55134533D-06 -0.51692129D-06 -0.36807876D-06
  0.16040644D+00  0.15039123D+00  0.10708751D+00 -0.14872239D-13 -0.27830910D-06
  0.32854374D-01 -0.16997111D-12 -0.23724478D-06  0.27612718D-02 -0.44293740D-14
 -0.50915372D-08 -0.75436159D-04  0.46121203D-02  0.46119003D-02 -0.92240207D-02
 -0.48083295D-14 -0.33145740D-13 -0.66266651D-07  0.56073847D-03  0.56086966D-03
 -0.11216081D-02  0.16966739D-13  0.67091232D-13 -0.10786657D-06 -0.15270316D-05
 -0.14716811D-05  0.29987126D-05 -0.31933802D-13 -0.50265804D-13 -0.38806402D-08
  0.52270968D-15 -0.79871736D-03 -0.17211927D-02  0.16564914D-14  0.23961582D-02
  0.25817812D-02 -0.32246204D-14 -0.61114934D-08  0.25817971D-02 -0.48671610D-14
  0.25239407D-14 -0.14648373D-03 -0.13401437D-03  0.33069100D-14  0.43944945D-03
  0.20104771D-03 -0.10878732D-13  0.17281627D-08  0.20099540D-03  0.40244023D-13
  0.18770591D-01  0.33853533D-01  0.49917015D-01  0.24425039D-01  0.77838795D-03
  0.13556305D-04 -0.12824010D-01 -0.74039275D-02 -0.29960202D-02 -0.19760274D-02
 -0.11408273D-02  0.74018582D-03  0.24819565D-03  0.14325412D-03  0.13909557D-03
  0.20250367D-02 -0.24669677D-03 -0.17783399D-02  0.39346830D-02  0.13992998D-02
  0.80790653D-03 -0.30931363D-04  0.69153939D-04 -0.38222576D-04 -0.17335859D-03
 -0.51362712D-04 -0.29637360D-04  0.18770591D-01  0.33853533D-01  0.49917015D-01
  0.24425039D-01  0.77838794D-03  0.13556305D-04  0.12824010D-01 -0.74039275D-02
 -0.29960202D-02  0.19760274D-02 -0.11408273D-02  0.74018582D-03 -0.24819565D-03
  0.14325412D-03  0.13909557D-03  0.20250367D-02 -0.24669677D-03 -0.17783399D-02
 -0.39346830D-02 -0.13992998D-02  0.80790653D-03 -0.30931363D-04  0.69153939D-04
 -0.38222576D-04  0.17335859D-03  0.51362712D-04 -0.29637360D-04  0.18770625D-01
  0.33853596D-01  0.49917107D-01  0.24424682D-01  0.77769059D-03  0.13538470D-04
 -0.15658850D-13  0.14807847D-01 -0.29960694D-02  0.34810859D-13  0.22815665D-02
  0.74032237D-03 -0.13142519D-13 -0.28664732D-03  0.13913349D-03 -0.13825078D-02
  0.31608771D-02 -0.17783693D-02  0.67622952D-14 -0.82231628D-14 -0.16157423D-02
  0.11920362D-03 -0.80983392D-04 -0.38220225D-04  0.89314604D-14  0.16324506D-13
  0.59278706D-04 -0.18771197D-01 -0.33854627D-01 -0.49918627D-01 -0.24424172D-01
 -0.77792021D-03 -0.13552754D-04  0.66992611D-14  0.14809671D-01 -0.29957143D-02
 -0.17199444D-13  0.22811740D-02  0.74099625D-03 -0.68766388D-14 -0.28666250D-03
  0.13909453D-03  0.13825532D-02 -0.31613316D-02  0.17787784D-02  0.21681023D-14
 -0.10989573D-13  0.16153848D-02 -0.11925424D-03  0.81064358D-04  0.38189884D-04
  0.55361832D-14  0.78132407D-14 -0.59360054D-04 -0.18771179D-01 -0.33854594D-01
 -0.49918580D-01 -0.24424519D-01 -0.77863903D-03 -0.13570857D-04 -0.12825601D-01
 -0.74048318D-02 -0.29957009D-02 -0.19756819D-02 -0.11406202D-02  0.74084795D-03
  0.24820634D-03  0.14326095D-03  0.13905767D-03 -0.20253668D-02  0.24662652D-03
  0.17787403D-02 -0.39351105D-02 -0.13990127D-02 -0.80773562D-03  0.30979775D-04
 -0.69170241D-04  0.38190466D-04  0.17347346D-03  0.51434247D-04  0.29676264D-04
 -0.18771179D-01 -0.33854594D-01 -0.49918580D-01 -0.24424519D-01 -0.77863903D-03
 -0.13570857D-04  0.12825601D-01 -0.74048318D-02 -0.29957009D-02  0.19756819D-02
 -0.11406202D-02  0.74084795D-03 -0.24820634D-03  0.14326095D-03  0.13905767D-03
 -0.20253668D-02  0.24662652D-03  0.17787403D-02  0.39351105D-02  0.13990127D-02
 -0.80773562D-03  0.30979775D-04 -0.69170241D-04  0.38190466D-04 -0.17347346D-03
 -0.51434247D-04  0.29676264D-04
MO    5     MO 0.0        OCC NO =    2.0000000  ORB. ENERGY =   -0.386320
  0.55729410D-14  0.10389229D-13  0.17559627D-13  0.26397872D-13  0.32432835D-13
  0.27394714D-13  0.10332278D-13 -0.51135022D-16 -0.49210064D-14 -0.92136767D-14
 -0.15687073D-13 -0.24265516D-13 -0.31956832D-13 -0.33205195D-13 -0.21100411D-13
  0.14141005D-13  0.14172710D-12 -0.23677433D-11 -0.30831742D-12  0.39387812D+00
  0.36928578D+00  0.26295347D+00 -0.74288259D-09 -0.69649964D-09 -0.49594924D-09
 -0.61803419D-13 -0.57944634D-13 -0.41260031D-13  0.88845728D-01 -0.16757630D-09
  0.31617017D-12  0.10867567D-01 -0.20646927D-10 -0.39500615D-14  0.12310816D-03
 -0.23724810D-12 -0.17646701D-13  0.18598972D-10 -0.18612645D-10  0.13673073D-13
 -0.19730784D-01 -0.11773673D-02  0.22164058D-11  0.18790639D-11 -0.20848517D-11
  0.20578777D-12 -0.21013649D-02  0.31909189D-02 -0.60139468D-11 -0.67763891D-13
  0.61584877D-13  0.61790148D-14  0.84354673D-04 -0.36374099D-03  0.71690243D-12
 -0.15703166D-02  0.29224550D-11 -0.19547165D-13 -0.15703671D-02  0.30812236D-11