 Molden2AIM, Version 4.0.0 (06/02/2016)           Time: Fri Jun 29 01:26:20 2018
GAUSSIAN             13 MOL ORBITALS    387 PRIMITIVES        9 NUCLEI
  O    1    (CENTRE  1)  -9.52870588  5.11796983  0.13557084  CHARGE =  8.0
  C    2    (CENTRE  2)  -6.87327029  5.12899827  0.19921115  CHARGE =  6.0
  C    3    (CENTRE  3) -10.47084773  5.61107496 -2.29853814  CHARGE =  6.0
  H    4    (CENTRE  4)  -6.29615171  4.73263578  2.14863183  CHARGE =  1.0
  H    5    (CENTRE  5)  -6.10189920  6.98350557 -0.37403727  CHARGE =  1.0
  H    6    (CENTRE  6)  -6.07187901  3.66554523 -1.05732822  CHARGE =  1.0
  H    7    (CENTRE  7)  -9.86652655  7.48818906 -2.98707497  CHARGE =  1.0
  H    8    (CENTRE  8) -12.53866354  5.56846353 -2.18567046  CHARGE =  1.0
  H    9    (CENTRE  9)  -9.83568622  4.17038745 -3.67105378  CHARGE =  1.0
CENTRE ASSIGNMENTS    1  1  1  1  1  1  1  1  1  1  1  1  1  1  1  1  1  1  1  1
CENTRE ASSIGNMENTS    1  1  1  1  1  1  1  1  1  1  1  1  1  1  1  1  1  1  1  1
CENTRE ASSIGNMENTS    1  1  1  1  1  1  1  1  1  1  1  1  1  1  1  1  1  1  1  1
CENTRE ASSIGNMENTS    1  1  1  1  1  1  1  1  1  1  1  1  1  1  1  2  2  2  2  2
CENTRE ASSIGNMENTS    2  2  2  2  2  2  2  2  2  2  2  2  2  2  2  2  2  2  2  2
CENTRE ASSIGNMENTS    2  2  2  2  2  2  2  2  2  2  2  2  2  2  2  2  2  2  2  2
CENTRE ASSIGNMENTS    2  2  2  2  2  2  2  2  2  2  2  2  2  2  2  2  2  2  2  2
CENTRE ASSIGNMENTS    2  2  2  2  2  2  2  2  2  2  3  3  3  3  3  3  3  3  3  3
CENTRE ASSIGNMENTS    3  3  3  3  3  3  3  3  3  3  3  3  3  3  3  3  3  3  3  3
CENTRE ASSIGNMENTS    3  3  3  3  3  3  3  3  3  3  3  3  3  3  3  3  3  3  3  3
CENTRE ASSIGNMENTS    3  3  3  3  3  3  3  3  3  3  3  3  3  3  3  3  3  3  3  3
CENTRE ASSIGNMENTS    3  3  3  3  3  4  4  4  4  4  4  4  4  4  4  4  4  4  4  4
CENTRE ASSIGNMENTS    4  4  4  4  4  4  4  4  4  4  4  4  5  5  5  5  5  5  5  5
CENTRE ASSIGNMENTS    5  5  5  5  5  5  5  5  5  5  5  5  5  5  5  5  5  5  5  6
CENTRE ASSIGNMENTS    6  6  6  6  6  6  6  6  6  6  6  6  6  6  6  6  6  6  6  6
CENTRE ASSIGNMENTS    6  6  6  6  6  6  7  7  7  7  7  7  7  7  7  7  7  7  7  7
CENTRE ASSIGNMENTS    7  7  7  7  7  7  7  7  7  7  7  7  7  8  8  8  8  8  8  8
CENTRE ASSIGNMENTS    8  8  8  8  8  8  8  8  8  8  8  8  8  8  8  8  8  8  8  8
CENTRE ASSIGNMENTS    9  9  9  9  9  9  9  9  9  9  9  9  9  9  9  9  9  9  9  9
CENTRE ASSIGNMENTS    9  9  9  9  9  9  9
TYPE ASSIGNMENTS      1  1  1  1  1  1  1  1  1  1  1  1  1  1  1  1  1  1  1  2
TYPE ASSIGNMENTS      2  2  3  3  3  4  4  4  2  3  4  2  3  4  2  3  4  5  6  7
TYPE ASSIGNMENTS      8  9 10  5  6  7  8  9 10  5  6  7  8  9 10 11 12 13 17 14
TYPE ASSIGNMENTS     15 18 19 16 20 11 12 13 17 14 15 18 19 16 20  1  1  1  1  1
TYPE ASSIGNMENTS      1  1  1  1  1  1  1  1  1  1  1  1  1  1  2  2  2  3  3  3
TYPE ASSIGNMENTS      4  4  4  2  3  4  2  3  4  2  3  4  5  6  7  8  9 10  5  6
TYPE ASSIGNMENTS      7  8  9 10  5  6  7  8  9 10 11 12 13 17 14 15 18 19 16 20
TYPE ASSIGNMENTS     11 12 13 17 14 15 18 19 16 20  1  1  1  1  1  1  1  1  1  1
TYPE ASSIGNMENTS      1  1  1  1  1  1  1  1  1  2  2  2  3  3  3  4  4  4  2  3
TYPE ASSIGNMENTS      4  2  3  4  2  3  4  5  6  7  8  9 10  5  6  7  8  9 10  5
TYPE ASSIGNMENTS      6  7  8  9 10 11 12 13 17 14 15 18 19 16 20 11 12 13 17 14
TYPE ASSIGNMENTS     15 18 19 16 20  1  1  1  1  1  1  2  3  4  2  3  4  2  3  4
TYPE ASSIGNMENTS      5  6  7  8  9 10  5  6  7  8  9 10  1  1  1  1  1  1  2  3
TYPE ASSIGNMENTS      4  2  3  4  2  3  4  5  6  7  8  9 10  5  6  7  8  9 10  1
TYPE ASSIGNMENTS      1  1  1  1  1  2  3  4  2  3  4  2  3  4  5  6  7  8  9 10
TYPE ASSIGNMENTS      5  6  7  8  9 10  1  1  1  1  1  1  2  3  4  2  3  4  2  3
TYPE ASSIGNMENTS      4  5  6  7  8  9 10  5  6  7  8  9 10  1  1  1  1  1  1  2
TYPE ASSIGNMENTS      3  4  2  3  4  2  3  4  5  6  7  8  9 10  5  6  7  8  9 10
TYPE ASSIGNMENTS      1  1  1  1  1  1  2  3  4  2  3  4  2  3  4  5  6  7  8  9
TYPE ASSIGNMENTS     10  5  6  7  8  9 10
EXPONENTS  0.1533000D+05 0.2299000D+04 0.5224000D+03 0.1473000D+03 0.4755000D+02
EXPONENTS  0.1676000D+02 0.6207000D+01 0.6882000D+00 0.1533000D+05 0.2299000D+04
EXPONENTS  0.5224000D+03 0.1473000D+03 0.4755000D+02 0.1676000D+02 0.6207000D+01
EXPONENTS  0.6882000D+00 0.1752000D+01 0.2384000D+00 0.7376000D-01 0.3446000D+02
EXPONENTS  0.7749000D+01 0.2280000D+01 0.3446000D+02 0.7749000D+01 0.2280000D+01
EXPONENTS  0.3446000D+02 0.7749000D+01 0.2280000D+01 0.7156000D+00 0.7156000D+00
EXPONENTS  0.7156000D+00 0.2140000D+00 0.2140000D+00 0.2140000D+00 0.5974000D-01
EXPONENTS  0.5974000D-01 0.5974000D-01 0.2314000D+01 0.2314000D+01 0.2314000D+01
EXPONENTS  0.2314000D+01 0.2314000D+01 0.2314000D+01 0.6450000D+00 0.6450000D+00
EXPONENTS  0.6450000D+00 0.6450000D+00 0.6450000D+00 0.6450000D+00 0.2140000D+00
EXPONENTS  0.2140000D+00 0.2140000D+00 0.2140000D+00 0.2140000D+00 0.2140000D+00
EXPONENTS  0.1428000D+01 0.1428000D+01 0.1428000D+01 0.1428000D+01 0.1428000D+01
EXPONENTS  0.1428000D+01 0.1428000D+01 0.1428000D+01 0.1428000D+01 0.1428000D+01
EXPONENTS  0.5000000D+00 0.5000000D+00 0.5000000D+00 0.5000000D+00 0.5000000D+00
EXPONENTS  0.5000000D+00 0.5000000D+00 0.5000000D+00 0.5000000D+00 0.5000000D+00
EXPONENTS  0.8236000D+04 0.1235000D+04 0.2808000D+03 0.7927000D+02 0.2559000D+02
EXPONENTS  0.8997000D+01 0.3319000D+01 0.3643000D+00 0.8236000D+04 0.1235000D+04
EXPONENTS  0.2808000D+03 0.7927000D+02 0.2559000D+02 0.8997000D+01 0.3319000D+01
EXPONENTS  0.3643000D+00 0.9059000D+00 0.1285000D+00 0.4402000D-01 0.1871000D+02
EXPONENTS  0.4133000D+01 0.1200000D+01 0.1871000D+02 0.4133000D+01 0.1200000D+01
EXPONENTS  0.1871000D+02 0.4133000D+01 0.1200000D+01 0.3827000D+00 0.3827000D+00
EXPONENTS  0.3827000D+00 0.1209000D+00 0.1209000D+00 0.1209000D+00 0.3569000D-01
EXPONENTS  0.3569000D-01 0.3569000D-01 0.1097000D+01 0.1097000D+01 0.1097000D+01
EXPONENTS  0.1097000D+01 0.1097000D+01 0.1097000D+01 0.3180000D+00 0.3180000D+00
EXPONENTS  0.3180000D+00 0.3180000D+00 0.3180000D+00 0.3180000D+00 0.1000000D+00
EXPONENTS  0.1000000D+00 0.1000000D+00 0.1000000D+00 0.1000000D+00 0.1000000D+00
EXPONENTS  0.7610000D+00 0.7610000D+00 0.7610000D+00 0.7610000D+00 0.7610000D+00
EXPONENTS  0.7610000D+00 0.7610000D+00 0.7610000D+00 0.7610000D+00 0.7610000D+00
EXPONENTS  0.2680000D+00 0.2680000D+00 0.2680000D+00 0.2680000D+00 0.2680000D+00
EXPONENTS  0.2680000D+00 0.2680000D+00 0.2680000D+00 0.2680000D+00 0.2680000D+00
EXPONENTS  0.8236000D+04 0.1235000D+04 0.2808000D+03 0.7927000D+02 0.2559000D+02
EXPONENTS  0.8997000D+01 0.3319000D+01 0.3643000D+00 0.8236000D+04 0.1235000D+04
EXPONENTS  0.2808000D+03 0.7927000D+02 0.2559000D+02 0.8997000D+01 0.3319000D+01
EXPONENTS  0.3643000D+00 0.9059000D+00 0.1285000D+00 0.4402000D-01 0.1871000D+02
EXPONENTS  0.4133000D+01 0.1200000D+01 0.1871000D+02 0.4133000D+01 0.1200000D+01
EXPONENTS  0.1871000D+02 0.4133000D+01 0.1200000D+01 0.3827000D+00 0.3827000D+00
EXPONENTS  0.3827000D+00 0.1209000D+00 0.1209000D+00 0.1209000D+00 0.3569000D-01
EXPONENTS  0.3569000D-01 0.3569000D-01 0.1097000D+01 0.1097000D+01 0.1097000D+01
EXPONENTS  0.1097000D+01 0.1097000D+01 0.1097000D+01 0.3180000D+00 0.3180000D+00
EXPONENTS  0.3180000D+00 0.3180000D+00 0.3180000D+00 0.3180000D+00 0.1000000D+00
EXPONENTS  0.1000000D+00 0.1000000D+00 0.1000000D+00 0.1000000D+00 0.1000000D+00
EXPONENTS  0.7610000D+00 0.7610000D+00 0.7610000D+00 0.7610000D+00 0.7610000D+00
EXPONENTS  0.7610000D+00 0.7610000D+00 0.7610000D+00 0.7610000D+00 0.7610000D+00
EXPONENTS  0.2680000D+00 0.2680000D+00 0.2680000D+00 0.2680000D+00 0.2680000D+00
EXPONENTS  0.2680000D+00 0.2680000D+00 0.2680000D+00 0.2680000D+00 0.2680000D+00
EXPONENTS  0.3387000D+02 0.5095000D+01 0.1159000D+01 0.3258000D+00 0.1027000D+00
EXPONENTS  0.2526000D-01 0.1407000D+01 0.1407000D+01 0.1407000D+01 0.3880000D+00
EXPONENTS  0.3880000D+00 0.3880000D+00 0.1020000D+00 0.1020000D+00 0.1020000D+00
EXPONENTS  0.1057000D+01 0.1057000D+01 0.1057000D+01 0.1057000D+01 0.1057000D+01
EXPONENTS  0.1057000D+01 0.2470000D+00 0.2470000D+00 0.2470000D+00 0.2470000D+00
EXPONENTS  0.2470000D+00 0.2470000D+00 0.3387000D+02 0.5095000D+01 0.1159000D+01
EXPONENTS  0.3258000D+00 0.1027000D+00 0.2526000D-01 0.1407000D+01 0.1407000D+01
EXPONENTS  0.1407000D+01 0.3880000D+00 0.3880000D+00 0.3880000D+00 0.1020000D+00
EXPONENTS  0.1020000D+00 0.1020000D+00 0.1057000D+01 0.1057000D+01 0.1057000D+01
EXPONENTS  0.1057000D+01 0.1057000D+01 0.1057000D+01 0.2470000D+00 0.2470000D+00
EXPONENTS  0.2470000D+00 0.2470000D+00 0.2470000D+00 0.2470000D+00 0.3387000D+02
EXPONENTS  0.5095000D+01 0.1159000D+01 0.3258000D+00 0.1027000D+00 0.2526000D-01
EXPONENTS  0.1407000D+01 0.1407000D+01 0.1407000D+01 0.3880000D+00 0.3880000D+00
EXPONENTS  0.3880000D+00 0.1020000D+00 0.1020000D+00 0.1020000D+00 0.1057000D+01
EXPONENTS  0.1057000D+01 0.1057000D+01 0.1057000D+01 0.1057000D+01 0.1057000D+01
EXPONENTS  0.2470000D+00 0.2470000D+00 0.2470000D+00 0.2470000D+00 0.2470000D+00
EXPONENTS  0.2470000D+00 0.3387000D+02 0.5095000D+01 0.1159000D+01 0.3258000D+00
EXPONENTS  0.1027000D+00 0.2526000D-01 0.1407000D+01 0.1407000D+01 0.1407000D+01
EXPONENTS  0.3880000D+00 0.3880000D+00 0.3880000D+00 0.1020000D+00 0.1020000D+00
EXPONENTS  0.1020000D+00 0.1057000D+01 0.1057000D+01 0.1057000D+01 0.1057000D+01
EXPONENTS  0.1057000D+01 0.1057000D+01 0.2470000D+00 0.2470000D+00 0.2470000D+00
EXPONENTS  0.2470000D+00 0.2470000D+00 0.2470000D+00 0.3387000D+02 0.5095000D+01
EXPONENTS  0.1159000D+01 0.3258000D+00 0.1027000D+00 0.2526000D-01 0.1407000D+01
EXPONENTS  0.1407000D+01 0.1407000D+01 0.3880000D+00 0.3880000D+00 0.3880000D+00
EXPONENTS  0.1020000D+00 0.1020000D+00 0.1020000D+00 0.1057000D+01 0.1057000D+01
EXPONENTS  0.1057000D+01 0.1057000D+01 0.1057000D+01 0.1057000D+01 0.2470000D+00
EXPONENTS  0.2470000D+00 0.2470000D+00 0.2470000D+00 0.2470000D+00 0.2470000D+00
EXPONENTS  0.3387000D+02 0.5095000D+01 0.1159000D+01 0.3258000D+00 0.1027000D+00
EXPONENTS  0.2526000D-01 0.1407000D+01 0.1407000D+01 0.1407000D+01 0.3880000D+00
EXPONENTS  0.3880000D+00 0.3880000D+00 0.1020000D+00 0.1020000D+00 0.1020000D+00
EXPONENTS  0.1057000D+01 0.1057000D+01 0.1057000D+01 0.1057000D+01 0.1057000D+01
EXPONENTS  0.1057000D+01 0.2470000D+00 0.2470000D+00 0.2470000D+00 0.2470000D+00
EXPONENTS  0.2470000D+00 0.2470000D+00
MO    1     MO 0.0        OCC NO =    2.0000000  ORB. ENERGY =  -18.763285
  0.49653877D+00  0.92548439D+00  0.15693149D+01  0.23752312D+01  0.29635950D+01
  0.25453329D+01  0.97720277D+00 -0.43710880D-02  0.97388936D-04  0.18265536D-03
  0.31138735D-03  0.48663782D-03  0.65072749D-03  0.69482525D-03  0.42480253D-03
 -0.28025891D-03  0.56843655D-01 -0.37134277D-02 -0.18017713D-02  0.48612194D-02
  0.47137476D-02  0.31798663D-02  0.14304475D-02  0.13870529D-02  0.93569772D-03
 -0.67257475D-02 -0.65217127D-02 -0.43995088D-02 -0.86864809D-03 -0.25562037D-03
  0.12019964D-02 -0.10594916D-02 -0.31169706D-03  0.14656726D-02 -0.75999339D-04
 -0.22364037D-04  0.10516523D-03  0.21931450D-02 -0.29542826D-02  0.76113759D-03
 -0.63480163D-03  0.35481286D-02 -0.15645139D-02 -0.95885821D-03  0.12731795D-02
 -0.31432132D-03  0.28945088D-03 -0.16073445D-02  0.66754050D-03 -0.12089598D-03
  0.18493041D-03 -0.64034434D-04  0.20708695D-04 -0.12873238D-03  0.10586736D-03
 -0.29492260D-04  0.33718539D-04  0.33103508D-04  0.11370329D-03 -0.11627131D-04
  0.41779733D-04 -0.25226512D-04 -0.89528485D-04 -0.14109026D-03  0.63998462D-04
 -0.43544903D-03  0.64207007D-04  0.16601858D-03  0.26556530D-03  0.32705391D-04
 -0.23656409D-03  0.10407818D-02 -0.22532641D-03 -0.26149165D-03 -0.33200787D-03
  0.27345364D-03  0.50977976D-03  0.86161760D-03  0.12952935D-02  0.15914177D-02
  0.13442067D-02  0.50698530D-03 -0.25090985D-05 -0.19305044D-03 -0.36145134D-03
 -0.61540184D-03 -0.95193306D-03 -0.12536624D-02 -0.13026355D-02 -0.82776638D-03
  0.55474978D-03 -0.32828257D-03  0.11734149D-02  0.25925315D-03  0.59958250D-03
  0.56214670D-03  0.40028194D-03 -0.17574990D-05 -0.16477671D-05 -0.11733083D-05
  0.35328996D-04  0.33123180D-04  0.23585677D-04 -0.28294410D-02 -0.23351445D-04
 -0.12628143D-04 -0.42289764D-03  0.60172636D-04 -0.31046886D-03 -0.69755267D-05
  0.11540666D-05 -0.58901102D-05  0.14943156D-02 -0.77515206D-03 -0.71916352D-03
  0.60786834D-04 -0.94761234D-04 -0.25044704D-04  0.35478867D-03 -0.13011725D-03
 -0.22467142D-03  0.28993002D-05  0.28346303D-04  0.41144831D-04  0.17784456D-04
  0.11917853D-04 -0.29702309D-04  0.14948258D-05 -0.70554833D-05  0.17820133D-04
 -0.17627793D-03 -0.44042181D-05 -0.87637074D-04  0.25720631D-03 -0.59181856D-04
  0.24089206D-03  0.27162748D-03  0.72394511D-04  0.22019163D-04 -0.20139806D-05
  0.19423201D-04  0.21155216D-04  0.35523768D-04 -0.38390809D-04  0.42632671D-05
 -0.14346722D-04 -0.19878794D-04 -0.67728914D-04 -0.92224581D-04 -0.60864275D-05
  0.27344520D-03  0.50976403D-03  0.86159101D-03  0.12952535D-02  0.15913686D-02
  0.13441652D-02  0.50696965D-03 -0.25090211D-05 -0.19304308D-03 -0.36143755D-03
 -0.61537836D-03 -0.95189676D-03 -0.12536145D-02 -0.13025858D-02 -0.82773481D-03
  0.55472862D-03 -0.32830438D-03  0.11727868D-02  0.25925176D-03 -0.23295976D-03
 -0.21841459D-03 -0.15552420D-03  0.10969756D-03  0.10284843D-03  0.73234210D-04
 -0.54278386D-03 -0.50889437D-03 -0.36236311D-03  0.95071534D-03 -0.52943212D-03
  0.26118763D-02  0.43912084D-03 -0.55423343D-04  0.28797433D-03  0.79842346D-05
 -0.86009735D-06  0.44929609D-05 -0.50369165D-03 -0.69629603D-03  0.11999877D-02
 -0.25922514D-03  0.12823288D-02 -0.80370243D-03 -0.15550030D-03 -0.11002495D-03
  0.26552524D-03 -0.78949185D-04  0.38031080D-03 -0.15795012D-03 -0.28315684D-04
  0.13731953D-04  0.14583731D-04 -0.59076675D-05  0.24711760D-04 -0.14036779D-06
 -0.19966429D-04  0.42023151D-04  0.16893970D-03 -0.10937190D-03  0.69788957D-04
 -0.33046309D-03  0.16927119D-03 -0.19585841D-03 -0.17635601D-03 -0.12201246D-03
 -0.29102812D-04  0.13682967D-05 -0.16152280D-04  0.11300449D-03 -0.13452480D-04
  0.50581271D-04 -0.25696051D-04  0.93475898D-05 -0.21244308D-05  0.60822038D-04
 -0.58911198D-06 -0.10624877D-05 -0.15666375D-05  0.23789207D-03  0.60903003D-03
 -0.14759753D-04 -0.10114844D-03  0.15706532D-04 -0.80624285D-04  0.19369151D-03
  0.61581488D-04 -0.29105444D-03 -0.35337436D-04  0.19306802D-04 -0.95255752D-04
 -0.30652205D-03  0.57799725D-04  0.24872233D-03  0.51977414D-04 -0.28354368D-03
 -0.84816204D-04 -0.55472034D-04  0.18607176D-04  0.36864858D-04  0.17988467D-05
 -0.15084659D-04 -0.79849894D-05 -0.34858972D-06 -0.62869592D-06 -0.92701176D-06
  0.47000701D-04 -0.11860438D-03 -0.87819866D-05  0.16426712D-04  0.17933544D-04
 -0.29054290D-04  0.12661622D-03 -0.36652392D-03  0.13248299D-03 -0.28886504D-04
 -0.13311796D-04 -0.14031159D-04 -0.33882265D-03  0.29347760D-03  0.45345052D-04
 -0.21720242D-03  0.87860095D-04 -0.15306129D-03 -0.45170993D-04  0.44790178D-04
  0.38081486D-06  0.76806409D-04 -0.13736518D-04 -0.24195633D-04 -0.34363450D-06
 -0.61975896D-06 -0.91383423D-06  0.46532318D-04 -0.11842816D-03 -0.87502149D-05
  0.16636323D-04 -0.47805709D-05 -0.33758931D-04  0.12105547D-03  0.28640732D-03
  0.26681082D-03 -0.29258970D-04  0.17286156D-04 -0.78046408D-05 -0.34214903D-03
  0.20192354D-03  0.14022549D-03  0.14510660D-03  0.15819557D-03  0.28868201D-03
 -0.43832957D-04  0.27889573D-04  0.15943385D-04 -0.67816838D-04 -0.44119327D-04
  0.47873302D-04 -0.33271874D-06 -0.60007195D-06 -0.88480574D-06  0.46900720D-04
 -0.11825258D-03 -0.87475895D-05  0.24644090D-04  0.16872523D-04 -0.23315711D-04
 -0.23015107D-03 -0.31862328D-03 -0.11564379D-03  0.20348974D-04 -0.19924853D-04
  0.20166638D-04  0.75831698D-04  0.21506275D-03 -0.29089444D-03  0.31256292D-03
 -0.10855882D-03  0.31863932D-03 -0.80392692D-05  0.51367462D-04 -0.43328193D-04
  0.22498597D-04 -0.50802168D-04 -0.49944470D-04 -0.58940584D-06 -0.10630177D-05
 -0.15674190D-05  0.23808880D-03  0.60919406D-03 -0.14755567D-04  0.11119083D-03
 -0.12728504D-04  0.66787683D-04  0.21593952D-03  0.58795281D-04 -0.27541921D-03
  0.10343446D-03  0.73114557D-06  0.10988610D-05  0.10438873D-03  0.41625235D-04
 -0.14601397D-03  0.11785736D-03 -0.56648849D-03  0.75078263D-04  0.22576956D-04
  0.15524245D-04 -0.38101201D-04  0.14283538D-04 -0.68843761D-04  0.22428865D-04
 -0.35452483D-06 -0.63940012D-06 -0.94279511D-06  0.47115506D-04 -0.11864028D-03
 -0.87892049D-05  0.24813271D-04 -0.58081449D-05 -0.28068423D-04 -0.23628459D-03
  0.33419309D-03  0.19281887D-04  0.19972341D-04  0.10675374D-04  0.26391975D-04
  0.81106408D-04  0.24716305D-03 -0.32826945D-03 -0.25088208D-03 -0.22300288D-03
  0.14382619D-03 -0.78490987D-05  0.18404269D-04 -0.10555171D-04 -0.18715439D-05
 -0.57441429D-04  0.10215286D-03
MO    2     MO 0.0        OCC NO =    2.0000000  ORB. ENERGY =   -9.924968
  0.17014015D-03  0.31711934D-03  0.53772933D-03  0.81387839D-03  0.10154826D-02
  0.87216412D-03  0.33484076D-03 -0.14977633D-05 -0.16257904D-03 -0.30492102D-03
 -0.51982350D-03 -0.81238295D-03 -0.10863108D-02 -0.11599267D-02 -0.70915642D-03
  0.46785833D-03  0.71774896D-03  0.35677765D-02  0.53640003D-03  0.54541344D-03
  0.52886757D-03  0.35677094D-03  0.23293366D-03  0.22586730D-03  0.15236874D-03
 -0.11057036D-02 -0.10721605D-02 -0.72327317D-03 -0.98545450D-04 -0.32511031D-04
  0.15308161D-03  0.68082438D-03  0.27035260D-03 -0.12820966D-02  0.19963120D-04
  0.11447466D-04 -0.54640985D-04  0.78111011D-03 -0.10823969D-02  0.30128677D-03
 -0.58285177D-03  0.29989731D-02 -0.56594289D-03 -0.44739785D-03  0.67545229D-03
 -0.22805444D-03  0.31326185D-03 -0.16233926D-02  0.37285468D-03 -0.24483338D-03
  0.15587868D-03  0.88954703D-04  0.24543476D-03 -0.12268895D-02  0.16609933D-04
  0.40208784D-03  0.25953443D-05 -0.12496265D-03 -0.42201053D-03 -0.66246627D-04
  0.41319099D-03 -0.78425301D-03  0.58460594D-04 -0.38303028D-04  0.16412121D-03
 -0.89752631D-03  0.13578225D-03  0.41597408D-03  0.51531870D-03  0.11126600D-03
 -0.69883569D-03  0.21772602D-02 -0.51861276D-03 -0.54908656D-03 -0.71548864D-03
  0.19920481D+00  0.37136305D+00  0.62766898D+00  0.94359208D+00  0.11593119D+01
  0.97922422D+00  0.36932735D+00 -0.18278217D-02 -0.23973754D-02 -0.44886431D-02
 -0.76422990D-02 -0.11821475D-01 -0.15568466D-01 -0.16176634D-01 -0.10279524D-01
  0.68890982D-02  0.22305788D-01 -0.14361737D-02 -0.11513992D-03 -0.19443092D-02
 -0.18229135D-02 -0.12980230D-02  0.74615683D-04  0.69956945D-04  0.49813513D-04
 -0.44706339D-03 -0.41915034D-03 -0.29846001D-03  0.15530214D-02 -0.18025653D-03
  0.94203817D-03 -0.10251342D-03 -0.64251857D-04  0.30592065D-03 -0.14308925D-04
 -0.55097570D-05  0.26055730D-04 -0.26476744D-03 -0.91242459D-04  0.35600990D-03
  0.33717469D-04 -0.17852081D-03 -0.19499528D-03 -0.37062074D-03  0.58845026D-03
 -0.21782952D-03  0.23463672D-03 -0.12252712D-02  0.33514810D-03 -0.34826973D-04
  0.40371869D-04 -0.55448963D-05  0.97064496D-05 -0.53103773D-04  0.19550985D-04
 -0.10400015D-02  0.53765058D-03  0.52023487D-03  0.12781606D-02 -0.20013110D-03
  0.72310202D-03  0.18418439D-02 -0.14128206D-02 -0.22838066D-02 -0.17502639D-03
  0.20011311D-03 -0.11127535D-03 -0.17466595D-03 -0.21453063D-03 -0.18319726D-05
  0.54879234D-04 -0.38580872D-03  0.33565803D-03  0.46911862D-03  0.63475289D-04
  0.26377814D+00  0.49174244D+00  0.83113134D+00  0.12494627D+01  0.15351092D+01
  0.12966452D+01  0.48904685D+00 -0.24203201D-02 -0.31430055D-02 -0.58846980D-02
 -0.10019202D-01 -0.15498182D-01 -0.20410560D-01 -0.21207879D-01 -0.13476655D-01
  0.90317410D-02  0.29407560D-01 -0.26636292D-02 -0.26625967D-03  0.10578588D-02
  0.99180985D-03  0.70622770D-03 -0.40283940D-03 -0.37768754D-03 -0.26893603D-03
  0.20013255D-02  0.18763699D-02  0.13360871D-02 -0.12662011D-02  0.31140026D-03
 -0.15694766D-02  0.42290893D-04  0.81777794D-05 -0.34903422D-04 -0.26320206D-04
 -0.17618483D-05  0.74332105D-05  0.34881270D-03 -0.95680870D-04 -0.25313183D-03
  0.13297728D-03 -0.60529679D-03  0.61379783D-04 -0.70805482D-03  0.73424254D-03
 -0.26187719D-04  0.15339076D-03 -0.87572986D-03  0.31898489D-03 -0.28721273D-04
  0.64465096D-04 -0.35743823D-04  0.36150753D-05 -0.24622328D-04  0.42945125D-04
 -0.15447678D-02  0.56465178D-03  0.88219674D-03  0.27320790D-02 -0.23867682D-04
 -0.34570940D-03  0.19022244D-02 -0.16700877D-02 -0.23008808D-02  0.40713909D-03
  0.38829139D-03 -0.11631067D-03 -0.12767229D-03 -0.66803901D-03  0.42594364D-04
 -0.91230097D-04 -0.49683517D-03  0.30633764D-03  0.47424697D-03 -0.87118067D-04
  0.37724149D-04  0.68037056D-04  0.10032060D-03  0.69411845D-03 -0.13143590D-03
 -0.52042701D-04  0.70307043D-04 -0.27759928D-03  0.13493432D-02  0.71675581D-03
 -0.31359707D-03  0.15563162D-02  0.17426907D-03 -0.24786678D-04  0.12677122D-03
  0.10230534D-02  0.98448832D-03 -0.20075417D-02  0.29618387D-03 -0.14463732D-02
  0.12732399D-02  0.17454686D-03  0.53957227D-04 -0.22850409D-03  0.89054046D-04
 -0.42315052D-03  0.11732550D-03  0.22762439D-04  0.41052996D-04  0.60532618D-04
 -0.44544159D-03 -0.65533161D-04  0.34224525D-04  0.30961506D-03  0.11539281D-02
 -0.25664518D-03  0.73174756D-03  0.16823812D-02 -0.88065908D-03  0.13008674D-03
  0.81778573D-04 -0.11220792D-03  0.61893247D-03 -0.13503941D-02  0.73146164D-03
 -0.20542540D-02  0.79350301D-03  0.15824192D-02  0.68443802D-04 -0.14355619D-03
  0.75112387D-04 -0.32532414D-03  0.12691917D-03  0.22081808D-03  0.22763488D-04
  0.41054888D-04  0.60535409D-04 -0.44620390D-03 -0.66252110D-04  0.34154939D-04
  0.32882343D-03 -0.95325345D-03 -0.69065004D-03  0.75855880D-03 -0.11847715D-02
 -0.14703859D-02  0.13125886D-03 -0.28659555D-04 -0.13459288D-03  0.58531472D-03
 -0.42313851D-03 -0.16217621D-03  0.16193816D-02  0.15906947D-02 -0.25663211D-02
  0.63278498D-04 -0.25042721D-04 -0.38235777D-04  0.25299831D-03  0.25144435D-03
 -0.30538283D-03  0.28136390D-04  0.50745138D-04  0.74823676D-04 -0.35069920D-03
 -0.23110867D-03  0.20836753D-04  0.45969019D-03  0.15640247D-02 -0.41691774D-03
  0.10829087D-02  0.21328757D-02 -0.93819083D-03  0.12400927D-03  0.13541200D-03
 -0.19897842D-03  0.98999294D-03 -0.18729364D-02  0.88294344D-03 -0.21719846D-02
  0.98066605D-03  0.24700249D-02  0.10526284D-03 -0.21757435D-03  0.11231151D-03
 -0.27148427D-03  0.19723606D-03  0.39702223D-03  0.28901602D-04  0.52125230D-04
  0.76858621D-04  0.13520381D-02  0.50724892D-03 -0.47244652D-04 -0.17454450D-02
 -0.91042408D-04  0.36309037D-03 -0.20570326D-02 -0.29574331D-04  0.48936456D-04
 -0.10968414D-03  0.13697701D-04 -0.70089356D-04 -0.28553213D-02  0.13772962D-02
  0.14780252D-02 -0.28959043D-03  0.10205120D-02 -0.32756863D-04 -0.41550641D-03
  0.10637355D-03  0.30913286D-03  0.72403378D-07 -0.47011647D-04 -0.87774270D-04
  0.28079544D-04  0.50642613D-04  0.74672504D-04 -0.35052696D-03 -0.22973980D-03
  0.20908002D-04  0.48592304D-03 -0.12631186D-02 -0.99959112D-03  0.11181544D-02
 -0.15685570D-02 -0.17010890D-02  0.12606722D-03 -0.43331300D-04 -0.23572047D-03
  0.95433262D-03 -0.51564517D-03 -0.43868745D-03  0.16742196D-02  0.18360793D-02
 -0.36613230D-02  0.10099550D-03 -0.18555144D-04 -0.82440353D-04  0.17777374D-03
  0.29893489D-03 -0.50659421D-03
MO    3     MO 0.0        OCC NO =    2.0000000  ORB. ENERGY =   -9.924961
  0.23733098D-04  0.44235442D-04  0.75008652D-04  0.11352909D-03  0.14165116D-03
  0.12165945D-03  0.46707429D-04 -0.20892520D-06 -0.22682669D-04 -0.42541908D-04
 -0.72524627D-04 -0.11334188D-03 -0.15155968D-03 -0.16183041D-03 -0.98939938D-04
  0.65274562D-04  0.10020590D-03  0.49783491D-03  0.74787154D-04  0.13116864D-02
  0.12718946D-02  0.85801255D-03 -0.13316351D-03 -0.12912381D-03 -0.87106162D-04
  0.70335207D-03  0.68201491D-03  0.46008323D-03 -0.74247762D-04  0.36627272D-05
 -0.20461120D-04  0.12915287D-02 -0.12288277D-03  0.65194960D-03  0.97629148D-04
 -0.11140345D-04  0.58224373D-04  0.22394379D-02 -0.23504390D-03 -0.20043940D-02
  0.26049323D-03 -0.10500509D-02  0.75135154D-03 -0.13691712D-02  0.14583772D-03
  0.12233335D-02 -0.16592344D-03  0.67416144D-03 -0.45724934D-03 -0.38914204D-03
  0.35722082D-04  0.35341996D-03 -0.22610656D-04  0.73442360D-04 -0.13578768D-03
 -0.36065592D-03 -0.26511729D-03  0.27194846D-04  0.18992423D-02  0.23012256D-03
 -0.13437369D-02 -0.81727458D-03  0.56522931D-03  0.12621523D-02  0.11141050D-02
 -0.32404038D-03 -0.87692116D-05 -0.42906078D-03  0.32106336D-03 -0.27720092D-03
  0.12750333D-02  0.65105777D-03  0.30350856D-03  0.12149069D-04 -0.11793819D-03
  0.26367849D+00  0.49155666D+00  0.83081735D+00  0.12489906D+01  0.15345293D+01
  0.12961553D+01  0.48886209D+00 -0.24194058D-02 -0.30584419D-02 -0.57263683D-02
 -0.97496319D-02 -0.15081198D-01 -0.19861407D-01 -0.20637275D-01 -0.13114062D-01
  0.87887391D-02  0.29055531D-01 -0.46899874D-02 -0.56798123D-03 -0.14874297D-02
 -0.13945599D-02 -0.99300971D-03 -0.10052146D-03 -0.94245260D-04 -0.67108240D-04
  0.42292101D-03  0.39651533D-03  0.28234253D-03  0.15946854D-02  0.20630764D-03
 -0.93478197D-03  0.43284734D-03  0.26357662D-03 -0.12594136D-02  0.56051146D-04
 -0.78728245D-06  0.63802168D-05 -0.48016033D-03  0.77194995D-04  0.40296534D-03
 -0.64053753D-04  0.26510827D-03 -0.13772336D-03 -0.19409588D-03  0.57123628D-03
 -0.37714040D-03 -0.88699032D-04  0.35644190D-03  0.41186609D-03 -0.48183079D-04
  0.96111626D-04 -0.47928547D-04 -0.31956092D-04  0.14178945D-03  0.63355238D-04
 -0.12485897D-02  0.65602697D-03  0.12395145D-02  0.19081388D-02  0.13780680D-03
 -0.10025071D-02  0.18376303D-02 -0.21058877D-02 -0.27160364D-02  0.75532687D-04
  0.29626608D-03 -0.19822493D-03 -0.33077781D-03 -0.42210963D-03 -0.17556291D-04
  0.16177576D-03 -0.46668861D-03  0.61223108D-03  0.83055767D-03  0.30845840D-05
 -0.19907271D+00 -0.37111679D+00 -0.62725275D+00 -0.94296635D+00 -0.11585431D+01
 -0.97857487D+00 -0.36908244D+00  0.18266096D-02  0.22852814D-02  0.42787678D-02
  0.72849682D-02  0.11268738D-01  0.14840532D-01  0.15420263D-01  0.97988849D-02
 -0.65669848D-02 -0.21839193D-01  0.41173629D-02  0.51476721D-03  0.21135143D-03
  0.19815540D-03  0.14109845D-03  0.20916753D-03  0.19610786D-03  0.13964048D-03
 -0.10061585D-02 -0.94333759D-03 -0.67171256D-03 -0.74576742D-03 -0.29692395D-03
  0.14092227D-02 -0.10991063D-02 -0.18319134D-03  0.84043772D-03  0.18222958D-04
 -0.10925584D-04  0.53797073D-04 -0.31963649D-03 -0.71383368D-04  0.39101985D-03
 -0.42637923D-04  0.18473047D-03 -0.19700504D-03  0.89011341D-04 -0.38846579D-03
  0.29945445D-03  0.15019302D-03 -0.68055217D-03 -0.30335476D-03  0.32518612D-06
 -0.79906852D-04  0.79581666D-04  0.27733601D-04 -0.12571599D-03 -0.69937690D-04
  0.12349798D-02 -0.44815008D-03 -0.22742984D-03 -0.18298694D-02  0.31673448D-03
 -0.12026566D-02 -0.18750700D-02  0.10277157D-02  0.18849462D-02 -0.49130452D-04
 -0.34744871D-03  0.12198661D-03  0.96250478D-04  0.64679985D-03 -0.66296818D-04
  0.21404554D-03  0.39554628D-03 -0.29966302D-03 -0.50279697D-03  0.12430259D-03
 -0.26984269D-04 -0.48667240D-04 -0.71759817D-04  0.25010882D-02  0.23147751D-02
  0.10224004D-04  0.59092216D-03 -0.32293477D-03  0.15942490D-02 -0.19982983D-03
 -0.31939295D-03  0.15397188D-02 -0.23298170D-03  0.30842020D-04 -0.16007784D-03
  0.12678799D-02  0.96979248D-03 -0.22376724D-02  0.35871688D-03 -0.17272185D-02
  0.13632928D-02  0.19844265D-03  0.10709100D-03 -0.30553365D-03  0.61067029D-04
 -0.29024789D-03  0.17474136D-03  0.22739977D-04  0.41012486D-04  0.60472886D-04
  0.28923346D-03 -0.60944943D-03 -0.43912384D-04  0.78272446D-03  0.16321527D-02
 -0.49001040D-03  0.67233026D-03  0.19739175D-02 -0.83056482D-03  0.15234852D-03
  0.18573593D-03 -0.22494818D-03  0.85912474D-03 -0.18182724D-02  0.95914764D-03
 -0.27035250D-02  0.83572866D-03  0.19763242D-02  0.16980445D-03 -0.21492655D-03
  0.45122104D-04 -0.41014653D-03  0.14750227D-03  0.30756592D-03  0.22687112D-04
  0.40917141D-04  0.60332301D-04  0.28788031D-03 -0.60882794D-03 -0.43843725D-04
  0.80912950D-03 -0.12918389D-02 -0.10921843D-02  0.70337447D-03 -0.14736067D-02
 -0.15412247D-02  0.15466122D-03 -0.79011819D-04 -0.27951747D-03  0.81473768D-03
 -0.62957439D-03 -0.18516330D-03  0.22166628D-02  0.19016490D-02 -0.33354345D-02
  0.16312371D-03 -0.57122689D-04 -0.10600102D-03  0.32777301D-03  0.30654352D-03
 -0.39395217D-03 -0.15636839D-04 -0.28201684D-04 -0.41583366D-04 -0.39989227D-03
  0.56732962D-03  0.51564715D-04 -0.37224014D-03 -0.12935640D-02  0.60583807D-03
 -0.62448873D-03 -0.14145905D-02  0.43388503D-03 -0.16288304D-03 -0.14926322D-03
  0.14953923D-03 -0.70810494D-03  0.14474184D-02 -0.73931346D-03  0.15410482D-02
 -0.64507570D-03 -0.18127867D-02 -0.42641467D-04  0.17701168D-03 -0.13437021D-03
  0.22070614D-03 -0.19670074D-03 -0.26314855D-03  0.36277461D-04  0.65427895D-04
  0.96473393D-04 -0.22154122D-02 -0.22621767D-02 -0.24075667D-04  0.13024673D-02
 -0.12896014D-04  0.12176610D-03  0.88656516D-03  0.15462092D-03 -0.70886897D-03
 -0.27174417D-03  0.36540950D-04 -0.18868166D-03  0.18132014D-02 -0.77167128D-03
 -0.10415301D-02  0.17854644D-03 -0.63129063D-03  0.10955122D-03  0.25443259D-03
 -0.10387504D-03 -0.15055755D-03  0.29503246D-04 -0.11059454D-03  0.18823110D-04
 -0.15596973D-04 -0.28129784D-04 -0.41477350D-04 -0.39859417D-03  0.56834851D-03
  0.51555089D-04 -0.39304630D-03  0.94176439D-03  0.10668429D-02 -0.64804874D-03
  0.11166162D-02  0.95568003D-03 -0.16488531D-03  0.75174641D-04  0.19587776D-03
 -0.68239654D-03  0.42567729D-03  0.25671926D-03 -0.12109161D-02 -0.12593685D-02
  0.28079806D-02 -0.39478024D-04  0.30547989D-04  0.89300354D-05 -0.12905058D-03
 -0.27566020D-03  0.40165847D-03
MO    4     MO 0.0        OCC NO =    2.0000000  ORB. ENERGY =   -0.954561
 -0.98414359D-02 -0.18343170D-01 -0.31103939D-01 -0.47077260D-01 -0.58738676D-01
 -0.50448689D-01 -0.19368233D-01  0.86635293D-04 -0.87084271D-01 -0.16332871D+00
 -0.27843964D+00 -0.43514696D+00 -0.58187440D+00 -0.62130620D+00 -0.37985443D+00
  0.25060488D+00  0.13821037D+00  0.66293031D-01  0.34528260D-02  0.17375264D+00
  0.16848162D+00  0.11365670D+00  0.51121708D-01  0.49570861D-01  0.33440210D-01
 -0.24037554D+00 -0.23308341D+00 -0.15723669D+00  0.42721040D-01  0.12569550D-01
 -0.59102221D-01  0.30576827D-02  0.89981926D-03 -0.42294280D-02  0.18523293D-04