 Molden2AIM, Version 4.0.0 (06/02/2016)           Time: Fri Jun 29 03:42:08 2018
GAUSSIAN             13 MOL ORBITALS    414 PRIMITIVES       10 NUCLEI
  C    1    (CENTRE  1)  -0.05045002 -0.41787325  2.28127549  CHARGE =  6.0
  N    2    (CENTRE  2)  -0.04642301  1.09911763  0.00000000  CHARGE =  7.0
  C    3    (CENTRE  3)  -0.05045002 -0.41787325 -2.28127549  CHARGE =  6.0
  H    4    (CENTRE  4)   1.51542051 -1.80901403  2.38193175  CHARGE =  1.0
  H    5    (CENTRE  5)   0.05872513  0.81323797  3.94784385  CHARGE =  1.0
  H    6    (CENTRE  6)  -1.83569885 -1.47658475  2.39874842  CHARGE =  1.0
  H    7    (CENTRE  7)   1.48370713  2.25584544  0.00000000  CHARGE =  1.0
  H    8    (CENTRE  8)   1.51542051 -1.80901403 -2.38193175  CHARGE =  1.0
  H    9    (CENTRE  9)   0.05872513  0.81323797 -3.94784385  CHARGE =  1.0
  H   10    (CENTRE 10)  -1.83569885 -1.47658475 -2.39874842  CHARGE =  1.0
CENTRE ASSIGNMENTS    1  1  1  1  1  1  1  1  1  1  1  1  1  1  1  1  1  1  1  1
CENTRE ASSIGNMENTS    1  1  1  1  1  1  1  1  1  1  1  1  1  1  1  1  1  1  1  1
CENTRE ASSIGNMENTS    1  1  1  1  1  1  1  1  1  1  1  1  1  1  1  1  1  1  1  1
CENTRE ASSIGNMENTS    1  1  1  1  1  1  1  1  1  1  1  1  1  1  1  2  2  2  2  2
CENTRE ASSIGNMENTS    2  2  2  2  2  2  2  2  2  2  2  2  2  2  2  2  2  2  2  2
CENTRE ASSIGNMENTS    2  2  2  2  2  2  2  2  2  2  2  2  2  2  2  2  2  2  2  2
CENTRE ASSIGNMENTS    2  2  2  2  2  2  2  2  2  2  2  2  2  2  2  2  2  2  2  2
CENTRE ASSIGNMENTS    2  2  2  2  2  2  2  2  2  2  3  3  3  3  3  3  3  3  3  3
CENTRE ASSIGNMENTS    3  3  3  3  3  3  3  3  3  3  3  3  3  3  3  3  3  3  3  3
CENTRE ASSIGNMENTS    3  3  3  3  3  3  3  3  3  3  3  3  3  3  3  3  3  3  3  3
CENTRE ASSIGNMENTS    3  3  3  3  3  3  3  3  3  3  3  3  3  3  3  3  3  3  3  3
CENTRE ASSIGNMENTS    3  3  3  3  3  4  4  4  4  4  4  4  4  4  4  4  4  4  4  4
CENTRE ASSIGNMENTS    4  4  4  4  4  4  4  4  4  4  4  4  5  5  5  5  5  5  5  5
CENTRE ASSIGNMENTS    5  5  5  5  5  5  5  5  5  5  5  5  5  5  5  5  5  5  5  6
CENTRE ASSIGNMENTS    6  6  6  6  6  6  6  6  6  6  6  6  6  6  6  6  6  6  6  6
CENTRE ASSIGNMENTS    6  6  6  6  6  6  7  7  7  7  7  7  7  7  7  7  7  7  7  7
CENTRE ASSIGNMENTS    7  7  7  7  7  7  7  7  7  7  7  7  7  8  8  8  8  8  8  8
CENTRE ASSIGNMENTS    8  8  8  8  8  8  8  8  8  8  8  8  8  8  8  8  8  8  8  8
CENTRE ASSIGNMENTS    9  9  9  9  9  9  9  9  9  9  9  9  9  9  9  9  9  9  9  9
CENTRE ASSIGNMENTS    9  9  9  9  9  9  9 10 10 10 10 10 10 10 10 10 10 10 10 10
CENTRE ASSIGNMENTS   10 10 10 10 10 10 10 10 10 10 10 10 10 10
TYPE ASSIGNMENTS      1  1  1  1  1  1  1  1  1  1  1  1  1  1  1  1  1  1  1  2
TYPE ASSIGNMENTS      2  2  3  3  3  4  4  4  2  3  4  2  3  4  2  3  4  5  6  7
TYPE ASSIGNMENTS      8  9 10  5  6  7  8  9 10  5  6  7  8  9 10 11 12 13 17 14
TYPE ASSIGNMENTS     15 18 19 16 20 11 12 13 17 14 15 18 19 16 20  1  1  1  1  1
TYPE ASSIGNMENTS      1  1  1  1  1  1  1  1  1  1  1  1  1  1  2  2  2  3  3  3
TYPE ASSIGNMENTS      4  4  4  2  3  4  2  3  4  2  3  4  5  6  7  8  9 10  5  6
TYPE ASSIGNMENTS      7  8  9 10  5  6  7  8  9 10 11 12 13 17 14 15 18 19 16 20
TYPE ASSIGNMENTS     11 12 13 17 14 15 18 19 16 20  1  1  1  1  1  1  1  1  1  1
TYPE ASSIGNMENTS      1  1  1  1  1  1  1  1  1  2  2  2  3  3  3  4  4  4  2  3
TYPE ASSIGNMENTS      4  2  3  4  2  3  4  5  6  7  8  9 10  5  6  7  8  9 10  5
TYPE ASSIGNMENTS      6  7  8  9 10 11 12 13 17 14 15 18 19 16 20 11 12 13 17 14
TYPE ASSIGNMENTS     15 18 19 16 20  1  1  1  1  1  1  2  3  4  2  3  4  2  3  4
TYPE ASSIGNMENTS      5  6  7  8  9 10  5  6  7  8  9 10  1  1  1  1  1  1  2  3
TYPE ASSIGNMENTS      4  2  3  4  2  3  4  5  6  7  8  9 10  5  6  7  8  9 10  1
TYPE ASSIGNMENTS      1  1  1  1  1  2  3  4  2  3  4  2  3  4  5  6  7  8  9 10
TYPE ASSIGNMENTS      5  6  7  8  9 10  1  1  1  1  1  1  2  3  4  2  3  4  2  3
TYPE ASSIGNMENTS      4  5  6  7  8  9 10  5  6  7  8  9 10  1  1  1  1  1  1  2
TYPE ASSIGNMENTS      3  4  2  3  4  2  3  4  5  6  7  8  9 10  5  6  7  8  9 10
TYPE ASSIGNMENTS      1  1  1  1  1  1  2  3  4  2  3  4  2  3  4  5  6  7  8  9
TYPE ASSIGNMENTS     10  5  6  7  8  9 10  1  1  1  1  1  1  2  3  4  2  3  4  2
TYPE ASSIGNMENTS      3  4  5  6  7  8  9 10  5  6  7  8  9 10
EXPONENTS  0.8236000D+04 0.1235000D+04 0.2808000D+03 0.7927000D+02 0.2559000D+02
EXPONENTS  0.8997000D+01 0.3319000D+01 0.3643000D+00 0.8236000D+04 0.1235000D+04
EXPONENTS  0.2808000D+03 0.7927000D+02 0.2559000D+02 0.8997000D+01 0.3319000D+01
EXPONENTS  0.3643000D+00 0.9059000D+00 0.1285000D+00 0.4402000D-01 0.1871000D+02
EXPONENTS  0.4133000D+01 0.1200000D+01 0.1871000D+02 0.4133000D+01 0.1200000D+01
EXPONENTS  0.1871000D+02 0.4133000D+01 0.1200000D+01 0.3827000D+00 0.3827000D+00
EXPONENTS  0.3827000D+00 0.1209000D+00 0.1209000D+00 0.1209000D+00 0.3569000D-01
EXPONENTS  0.3569000D-01 0.3569000D-01 0.1097000D+01 0.1097000D+01 0.1097000D+01
EXPONENTS  0.1097000D+01 0.1097000D+01 0.1097000D+01 0.3180000D+00 0.3180000D+00
EXPONENTS  0.3180000D+00 0.3180000D+00 0.3180000D+00 0.3180000D+00 0.1000000D+00
EXPONENTS  0.1000000D+00 0.1000000D+00 0.1000000D+00 0.1000000D+00 0.1000000D+00
EXPONENTS  0.7610000D+00 0.7610000D+00 0.7610000D+00 0.7610000D+00 0.7610000D+00
EXPONENTS  0.7610000D+00 0.7610000D+00 0.7610000D+00 0.7610000D+00 0.7610000D+00
EXPONENTS  0.2680000D+00 0.2680000D+00 0.2680000D+00 0.2680000D+00 0.2680000D+00
EXPONENTS  0.2680000D+00 0.2680000D+00 0.2680000D+00 0.2680000D+00 0.2680000D+00
EXPONENTS  0.1142000D+05 0.1712000D+04 0.3893000D+03 0.1100000D+03 0.3557000D+02
EXPONENTS  0.1254000D+02 0.4644000D+01 0.5118000D+00 0.1142000D+05 0.1712000D+04
EXPONENTS  0.3893000D+03 0.1100000D+03 0.3557000D+02 0.1254000D+02 0.4644000D+01
EXPONENTS  0.5118000D+00 0.1293000D+01 0.1787000D+00 0.5760000D-01 0.2663000D+02
EXPONENTS  0.5948000D+01 0.1742000D+01 0.2663000D+02 0.5948000D+01 0.1742000D+01
EXPONENTS  0.2663000D+02 0.5948000D+01 0.1742000D+01 0.5550000D+00 0.5550000D+00
EXPONENTS  0.5550000D+00 0.1725000D+00 0.1725000D+00 0.1725000D+00 0.4910000D-01
EXPONENTS  0.4910000D-01 0.4910000D-01 0.1654000D+01 0.1654000D+01 0.1654000D+01
EXPONENTS  0.1654000D+01 0.1654000D+01 0.1654000D+01 0.4690000D+00 0.4690000D+00
EXPONENTS  0.4690000D+00 0.4690000D+00 0.4690000D+00 0.4690000D+00 0.1510000D+00
EXPONENTS  0.1510000D+00 0.1510000D+00 0.1510000D+00 0.1510000D+00 0.1510000D+00
EXPONENTS  0.1093000D+01 0.1093000D+01 0.1093000D+01 0.1093000D+01 0.1093000D+01
EXPONENTS  0.1093000D+01 0.1093000D+01 0.1093000D+01 0.1093000D+01 0.1093000D+01
EXPONENTS  0.3640000D+00 0.3640000D+00 0.3640000D+00 0.3640000D+00 0.3640000D+00
EXPONENTS  0.3640000D+00 0.3640000D+00 0.3640000D+00 0.3640000D+00 0.3640000D+00
EXPONENTS  0.8236000D+04 0.1235000D+04 0.2808000D+03 0.7927000D+02 0.2559000D+02
EXPONENTS  0.8997000D+01 0.3319000D+01 0.3643000D+00 0.8236000D+04 0.1235000D+04
EXPONENTS  0.2808000D+03 0.7927000D+02 0.2559000D+02 0.8997000D+01 0.3319000D+01
EXPONENTS  0.3643000D+00 0.9059000D+00 0.1285000D+00 0.4402000D-01 0.1871000D+02
EXPONENTS  0.4133000D+01 0.1200000D+01 0.1871000D+02 0.4133000D+01 0.1200000D+01
EXPONENTS  0.1871000D+02 0.4133000D+01 0.1200000D+01 0.3827000D+00 0.3827000D+00
EXPONENTS  0.3827000D+00 0.1209000D+00 0.1209000D+00 0.1209000D+00 0.3569000D-01
EXPONENTS  0.3569000D-01 0.3569000D-01 0.1097000D+01 0.1097000D+01 0.1097000D+01
EXPONENTS  0.1097000D+01 0.1097000D+01 0.1097000D+01 0.3180000D+00 0.3180000D+00
EXPONENTS  0.3180000D+00 0.3180000D+00 0.3180000D+00 0.3180000D+00 0.1000000D+00
EXPONENTS  0.1000000D+00 0.1000000D+00 0.1000000D+00 0.1000000D+00 0.1000000D+00
EXPONENTS  0.7610000D+00 0.7610000D+00 0.7610000D+00 0.7610000D+00 0.7610000D+00
EXPONENTS  0.7610000D+00 0.7610000D+00 0.7610000D+00 0.7610000D+00 0.7610000D+00
EXPONENTS  0.2680000D+00 0.2680000D+00 0.2680000D+00 0.2680000D+00 0.2680000D+00
EXPONENTS  0.2680000D+00 0.2680000D+00 0.2680000D+00 0.2680000D+00 0.2680000D+00
EXPONENTS  0.3387000D+02 0.5095000D+01 0.1159000D+01 0.3258000D+00 0.1027000D+00
EXPONENTS  0.2526000D-01 0.1407000D+01 0.1407000D+01 0.1407000D+01 0.3880000D+00
EXPONENTS  0.3880000D+00 0.3880000D+00 0.1020000D+00 0.1020000D+00 0.1020000D+00
EXPONENTS  0.1057000D+01 0.1057000D+01 0.1057000D+01 0.1057000D+01 0.1057000D+01
EXPONENTS  0.1057000D+01 0.2470000D+00 0.2470000D+00 0.2470000D+00 0.2470000D+00
EXPONENTS  0.2470000D+00 0.2470000D+00 0.3387000D+02 0.5095000D+01 0.1159000D+01
EXPONENTS  0.3258000D+00 0.1027000D+00 0.2526000D-01 0.1407000D+01 0.1407000D+01
EXPONENTS  0.1407000D+01 0.3880000D+00 0.3880000D+00 0.3880000D+00 0.1020000D+00
EXPONENTS  0.1020000D+00 0.1020000D+00 0.1057000D+01 0.1057000D+01 0.1057000D+01
EXPONENTS  0.1057000D+01 0.1057000D+01 0.1057000D+01 0.2470000D+00 0.2470000D+00
EXPONENTS  0.2470000D+00 0.2470000D+00 0.2470000D+00 0.2470000D+00 0.3387000D+02
EXPONENTS  0.5095000D+01 0.1159000D+01 0.3258000D+00 0.1027000D+00 0.2526000D-01
EXPONENTS  0.1407000D+01 0.1407000D+01 0.1407000D+01 0.3880000D+00 0.3880000D+00
EXPONENTS  0.3880000D+00 0.1020000D+00 0.1020000D+00 0.1020000D+00 0.1057000D+01
EXPONENTS  0.1057000D+01 0.1057000D+01 0.1057000D+01 0.1057000D+01 0.1057000D+01
EXPONENTS  0.2470000D+00 0.2470000D+00 0.2470000D+00 0.2470000D+00 0.2470000D+00
EXPONENTS  0.2470000D+00 0.3387000D+02 0.5095000D+01 0.1159000D+01 0.3258000D+00
EXPONENTS  0.1027000D+00 0.2526000D-01 0.1407000D+01 0.1407000D+01 0.1407000D+01
EXPONENTS  0.3880000D+00 0.3880000D+00 0.3880000D+00 0.1020000D+00 0.1020000D+00
EXPONENTS  0.1020000D+00 0.1057000D+01 0.1057000D+01 0.1057000D+01 0.1057000D+01
EXPONENTS  0.1057000D+01 0.1057000D+01 0.2470000D+00 0.2470000D+00 0.2470000D+00
EXPONENTS  0.2470000D+00 0.2470000D+00 0.2470000D+00 0.3387000D+02 0.5095000D+01
EXPONENTS  0.1159000D+01 0.3258000D+00 0.1027000D+00 0.2526000D-01 0.1407000D+01
EXPONENTS  0.1407000D+01 0.1407000D+01 0.3880000D+00 0.3880000D+00 0.3880000D+00
EXPONENTS  0.1020000D+00 0.1020000D+00 0.1020000D+00 0.1057000D+01 0.1057000D+01
EXPONENTS  0.1057000D+01 0.1057000D+01 0.1057000D+01 0.1057000D+01 0.2470000D+00
EXPONENTS  0.2470000D+00 0.2470000D+00 0.2470000D+00 0.2470000D+00 0.2470000D+00
EXPONENTS  0.3387000D+02 0.5095000D+01 0.1159000D+01 0.3258000D+00 0.1027000D+00
EXPONENTS  0.2526000D-01 0.1407000D+01 0.1407000D+01 0.1407000D+01 0.3880000D+00
EXPONENTS  0.3880000D+00 0.3880000D+00 0.1020000D+00 0.1020000D+00 0.1020000D+00
EXPONENTS  0.1057000D+01 0.1057000D+01 0.1057000D+01 0.1057000D+01 0.1057000D+01
EXPONENTS  0.1057000D+01 0.2470000D+00 0.2470000D+00 0.2470000D+00 0.2470000D+00
EXPONENTS  0.2470000D+00 0.2470000D+00 0.3387000D+02 0.5095000D+01 0.1159000D+01
EXPONENTS  0.3258000D+00 0.1027000D+00 0.2526000D-01 0.1407000D+01 0.1407000D+01
EXPONENTS  0.1407000D+01 0.3880000D+00 0.3880000D+00 0.3880000D+00 0.1020000D+00
EXPONENTS  0.1020000D+00 0.1020000D+00 0.1057000D+01 0.1057000D+01 0.1057000D+01
EXPONENTS  0.1057000D+01 0.1057000D+01 0.1057000D+01 0.2470000D+00 0.2470000D+00
EXPONENTS  0.2470000D+00 0.2470000D+00 0.2470000D+00 0.2470000D+00
MO    1     MO 0.0        OCC NO =    2.0000000  ORB. ENERGY =  -13.975695
  0.39926312D-03  0.74431724D-03  0.12580273D-02  0.18912271D-02  0.23235910D-02
  0.19626440D-02  0.74023711D-03 -0.36634748D-05 -0.29172747D-03 -0.54620588D-03
 -0.92996224D-03 -0.14385102D-02 -0.18944673D-02 -0.19684729D-02 -0.12508761D-02
  0.83830810D-03  0.39418334D-03 -0.29872636D-03  0.15877363D-03  0.21462793D-03
  0.20122733D-03  0.14328585D-03 -0.17255048D-03 -0.16177705D-03 -0.11519490D-03
  0.26684369D-03  0.25018292D-03  0.17814514D-03 -0.80522936D-03  0.20527317D-02
 -0.32167437D-02  0.36905524D-04  0.40436248D-03 -0.78339273D-03  0.27451543D-04
  0.52700613D-05 -0.33958291D-04 -0.76677802D-03 -0.41801944D-04  0.80857997D-03
 -0.55191518D-04  0.34642899D-03 -0.22153675D-02  0.16276356D-03  0.51943159D-04
 -0.21470672D-03  0.40664420D-03 -0.31376736D-03  0.38145883D-04 -0.18876801D-04
  0.13222353D-04  0.56544482D-05  0.60745655D-04 -0.62972359D-04 -0.72301563D-04
  0.27624290D-04  0.20751328D-03  0.10852502D-03 -0.15325757D-03  0.34499211D-03
 -0.26744506D-03  0.70384694D-04 -0.96753194D-03 -0.58129988D-04  0.49196132D-03
 -0.59115592D-04  0.61687883D-04  0.89034999D-04 -0.53169221D-04  0.61555069D-04
 -0.32407607D-03  0.23051600D-03 -0.24661872D-03  0.56971078D-04  0.12521677D-03
  0.41201368D+00  0.76772683D+00  0.12984185D+01  0.19553464D+01  0.24208456D+01
  0.20600304D+01  0.78387957D+00 -0.36712424D-02 -0.16763351D-02 -0.31431439D-02
 -0.53474230D-02 -0.83039834D-02 -0.11019869D-01 -0.11613429D-01 -0.72010669D-02
  0.47901525D-02  0.45625489D-01 -0.35338027D-02 -0.11335916D-02  0.35821997D-02
  0.34406600D-02  0.24128283D-02 -0.39299159D-02 -0.37746372D-02 -0.26470362D-02
  0.20715604D-13  0.19897090D-13  0.13953213D-13  0.25591741D-02  0.20756048D-02
 -0.19394750D-12 -0.85300196D-03  0.11272517D-02  0.11945506D-11 -0.78523227D-04
  0.77805360D-04  0.69902302D-14 -0.78815039D-03 -0.14053723D-03  0.92868762D-03
  0.64957086D-02  0.12518635D-14 -0.19635308D-13  0.14725278D-02  0.15914059D-03
 -0.16316684D-02  0.36103767D-03  0.80328603D-14  0.11364590D-12  0.62240143D-04
  0.43596994D-05 -0.66599842D-04 -0.64999484D-04 -0.28620151D-13 -0.12866845D-12
  0.16383502D-03 -0.53923052D-03 -0.56615279D-13  0.18873683D-02  0.32807422D-02
  0.13564022D-12 -0.23788734D-02 -0.16630507D-02  0.34205614D-13 -0.10079585D-12
  0.54667780D-04 -0.23048127D-03  0.95073688D-13 -0.71852499D-03 -0.84597660D-03
 -0.13131312D-12  0.55452165D-03  0.15374204D-02 -0.15390794D-12  0.88148413D-13
  0.39926312D-03  0.74431724D-03  0.12580273D-02  0.18912271D-02  0.23235910D-02
  0.19626440D-02  0.74023711D-03 -0.36634748D-05 -0.29172747D-03 -0.54620588D-03
 -0.92996224D-03 -0.14385102D-02 -0.18944673D-02 -0.19684729D-02 -0.12508761D-02
  0.83830810D-03  0.39418334D-03 -0.29872636D-03  0.15877363D-03  0.21462793D-03
  0.20122733D-03  0.14328585D-03 -0.17255048D-03 -0.16177705D-03 -0.11519490D-03
 -0.26684369D-03 -0.25018292D-03 -0.17814514D-03 -0.80522936D-03  0.20527317D-02
  0.32167437D-02  0.36905524D-04  0.40436248D-03  0.78339274D-03  0.27451543D-04
  0.52700613D-05  0.33958291D-04 -0.76677802D-03 -0.41801944D-04  0.80857997D-03
 -0.55191518D-04 -0.34642899D-03  0.22153675D-02  0.16276356D-03  0.51943160D-04
 -0.21470672D-03  0.40664420D-03  0.31376736D-03 -0.38145883D-04 -0.18876801D-04
  0.13222353D-04  0.56544481D-05  0.60745655D-04  0.62972359D-04  0.72301563D-04
  0.27624290D-04  0.20751328D-03 -0.10852502D-03 -0.15325757D-03  0.34499211D-03
  0.26744506D-03  0.70384694D-04 -0.96753194D-03  0.58129988D-04 -0.49196132D-03
 -0.59115592D-04  0.61687883D-04 -0.89034999D-04 -0.53169221D-04  0.61555069D-04
  0.32407607D-03  0.23051600D-03 -0.24661872D-03 -0.56971078D-04 -0.12521677D-03
  0.17440874D-04  0.31455335D-04  0.46380873D-04  0.13231475D-02  0.84387123D-03
 -0.21143411D-04 -0.21209643D-03  0.13023936D-03 -0.90352173D-04 -0.85190845D-03
  0.47451366D-03  0.85080116D-03 -0.10122741D-03  0.13467754D-03  0.31640988D-04
  0.48695793D-03 -0.89727894D-04 -0.39723004D-03 -0.53044775D-03 -0.69437833D-03
  0.10870871D-02  0.56238122D-04  0.39008098D-04 -0.95246220D-04 -0.82227146D-04
 -0.16546345D-04  0.12367624D-03  0.70239181D-05  0.12667926D-04  0.18678849D-04
  0.88043245D-03  0.73643756D-03  0.48245664D-04  0.25507162D-04 -0.11898897D-03
 -0.27338109D-03 -0.27052107D-03 -0.91045793D-03 -0.53274857D-04 -0.17576641D-04
 -0.68870085D-04 -0.64322468D-04  0.27613433D-04  0.50777721D-03 -0.53539064D-03
  0.12525942D-03  0.88774101D-04  0.11061231D-02  0.61577233D-04  0.15956891D-04
 -0.77534124D-04  0.49548828D-04 -0.25504380D-04  0.17371374D-03 -0.21866325D-04
 -0.39436818D-04 -0.58149565D-04 -0.35374717D-04  0.83731281D-04  0.19120563D-04
  0.66983045D-04  0.92794176D-04 -0.18426709D-03  0.24053689D-03 -0.30186544D-03
  0.68227696D-03 -0.26217568D-04  0.31302862D-04 -0.12897943D-04  0.40662243D-03
 -0.31054080D-03 -0.96081629D-04 -0.64829028D-04  0.61265839D-03  0.69205776D-03
  0.29470274D-04 -0.23943546D-04 -0.55267276D-05 -0.98327765D-05  0.29219197D-04
  0.18567546D-03  0.17397524D-03  0.31377150D-03  0.46265590D-03 -0.24455979D-03
 -0.12301055D-02 -0.91540330D-04  0.17720117D-02  0.16490013D-02  0.54592692D-13
  0.17482816D-02  0.19902296D-02 -0.83188291D-13  0.32878286D-03  0.36242831D-03
  0.49287946D-13 -0.15585466D-02 -0.45992239D-03  0.20184690D-02 -0.62502979D-02
  0.13719549D-13  0.58688041D-13 -0.39751986D-04 -0.50142456D-04  0.89894442D-04
 -0.58259397D-03  0.16005299D-13 -0.61831500D-14  0.17440874D-04  0.31455335D-04
  0.46380873D-04  0.13231475D-02  0.84387123D-03 -0.21143411D-04 -0.21209643D-03
  0.13023936D-03  0.90352173D-04 -0.85190845D-03  0.47451366D-03 -0.85080116D-03
 -0.10122741D-03  0.13467754D-03 -0.31640989D-04  0.48695793D-03 -0.89727894D-04
 -0.39723004D-03 -0.53044775D-03  0.69437833D-03 -0.10870871D-02  0.56238122D-04
  0.39008098D-04 -0.95246220D-04 -0.82227146D-04  0.16546345D-04 -0.12367624D-03
  0.70239181D-05  0.12667926D-04  0.18678849D-04  0.88043245D-03  0.73643756D-03
  0.48245664D-04  0.25507162D-04 -0.11898897D-03  0.27338109D-03 -0.27052107D-03
 -0.91045793D-03  0.53274857D-04 -0.17576641D-04 -0.68870085D-04  0.64322468D-04
  0.27613433D-04  0.50777721D-03 -0.53539064D-03  0.12525942D-03 -0.88774101D-04
 -0.11061231D-02  0.61577233D-04  0.15956891D-04 -0.77534125D-04  0.49548828D-04
  0.25504380D-04 -0.17371374D-03 -0.21866325D-04 -0.39436818D-04 -0.58149565D-04
 -0.35374719D-04  0.83731279D-04  0.19120563D-04  0.66983045D-04  0.92794176D-04
  0.18426709D-03  0.24053689D-03 -0.30186544D-03 -0.68227696D-03 -0.26217568D-04
  0.31302862D-04  0.12897943D-04  0.40662243D-03 -0.31054080D-03 -0.96081629D-04
 -0.64829028D-04 -0.61265839D-03 -0.69205776D-03  0.29470274D-04 -0.23943546D-04
 -0.55267276D-05 -0.98327765D-05 -0.29219197D-04 -0.18567546D-03
MO    2     MO 0.0        OCC NO =    2.0000000  ORB. ENERGY =   -9.898851
  0.23397858D+00  0.43618928D+00  0.73723672D+00  0.11083083D+01  0.13616848D+01
  0.11501605D+01  0.43379822D+00 -0.21468916D-02 -0.29865731D-02 -0.55918071D-02
 -0.95205301D-02 -0.14726812D-01 -0.19394694D-01 -0.20152329D-01 -0.12805901D-01
  0.85822168D-02  0.26998359D-01 -0.84785143D-02 -0.43493881D-03  0.10383075D-03
  0.97347925D-04  0.69317522D-04  0.45140000D-03  0.42321619D-03  0.30135514D-03
 -0.11102687D-02 -0.10409475D-02 -0.74121660D-03 -0.65161804D-03 -0.83975184D-04
  0.56905244D-03 -0.32910550D-03  0.52274365D-03  0.37133607D-03  0.63635507D-05
  0.16157561D-05  0.26810440D-04  0.41378411D-04 -0.17131638D-05 -0.39665247D-04
  0.40347473D-04  0.41040785D-03  0.11081162D-02  0.34916134D-03  0.32975177D-03
 -0.67891311D-03  0.15375590D-03 -0.50610158D-03 -0.18079962D-02 -0.29604387D-04
  0.15914418D-03 -0.12953979D-03  0.15181755D-04  0.33835911D-04 -0.37004931D-04
 -0.28763404D-03  0.76173213D-04  0.31535817D-03  0.48155542D-03 -0.31259669D-02
 -0.34982172D-03  0.38134671D-03  0.28974473D-02 -0.59625278D-03  0.72745046D-03
  0.72433732D-04 -0.12924985D-03 -0.12751552D-04 -0.39622995D-03  0.12667361D-02
  0.45638724D-03  0.17892876D-03 -0.87898660D-03 -0.41813258D-03  0.11605112D-03
  0.33648325D-03  0.62698699D-03  0.10603922D-02  0.15968919D-02  0.19770557D-02
  0.16823852D-02  0.64017861D-03 -0.29982295D-05 -0.28679850D-03 -0.53774987D-03
 -0.91487252D-03 -0.14207004D-02 -0.18853521D-02 -0.19869023D-02 -0.12320062D-02
  0.81953099D-03  0.93806618D-03  0.70976494D-02 -0.40032571D-03 -0.56767205D-03
 -0.54524222D-03 -0.38236148D-03 -0.12727032D-02 -0.12224162D-02 -0.85724264D-03
 -0.33772327D-11 -0.32437916D-11 -0.22747706D-11  0.14990570D-02  0.12482983D-02
  0.83352939D-12  0.54957831D-03 -0.28936467D-02 -0.11705396D-10 -0.62701684D-04
  0.43418466D-04 -0.52322147D-12 -0.62925266D-03 -0.67642415D-03  0.13056768D-02
  0.59921910D-03  0.67739930D-12  0.74432003D-11  0.13353883D-02  0.33085300D-03
 -0.16662413D-02  0.73532046D-03 -0.21801817D-11 -0.89040534D-11  0.18643358D-03
  0.54055816D-03 -0.72699174D-03 -0.10282957D-03 -0.12123990D-11 -0.13516396D-12
  0.21462234D-03 -0.51425834D-03  0.13826269D-11  0.65151053D-03  0.12027206D-02
 -0.62374895D-11 -0.12953775D-02  0.34005437D-03  0.20896088D-11  0.41916729D-13
  0.13158446D-03 -0.47813428D-03  0.10991656D-12 -0.85291465D-03 -0.81439775D-03
 -0.20109831D-11  0.45816127D-03  0.22488006D-02  0.16812334D-11 -0.54226533D-11
  0.23397859D+00  0.43618928D+00  0.73723673D+00  0.11083083D+01  0.13616848D+01
  0.11501605D+01  0.43379822D+00 -0.21468916D-02 -0.29865731D-02 -0.55918072D-02
 -0.95205302D-02 -0.14726813D-01 -0.19394694D-01 -0.20152329D-01 -0.12805901D-01
  0.85822168D-02  0.26998359D-01 -0.84785143D-02 -0.43493881D-03  0.10383075D-03
  0.97347926D-04  0.69317522D-04  0.45140001D-03  0.42321620D-03  0.30135515D-03
  0.11102687D-02  0.10409475D-02  0.74121660D-03 -0.65161804D-03 -0.83975187D-04
 -0.56905244D-03 -0.32910550D-03  0.52274364D-03 -0.37133607D-03  0.63635508D-05
  0.16157559D-05 -0.26810440D-04  0.41378412D-04 -0.17131629D-05 -0.39665249D-04
  0.40347473D-04 -0.41040785D-03 -0.11081162D-02  0.34916134D-03  0.32975177D-03
 -0.67891311D-03  0.15375590D-03  0.50610158D-03  0.18079962D-02 -0.29604386D-04
  0.15914417D-03 -0.12953979D-03  0.15181755D-04 -0.33835911D-04  0.37004931D-04
 -0.28763405D-03  0.76173213D-04 -0.31535816D-03  0.48155543D-03 -0.31259669D-02
  0.34982172D-03  0.38134671D-03  0.28974473D-02  0.59625277D-03 -0.72745047D-03
  0.72433732D-04 -0.12924985D-03  0.12751552D-04 -0.39622996D-03  0.12667362D-02
 -0.45638724D-03  0.17892876D-03 -0.87898661D-03  0.41813258D-03 -0.11605111D-03
  0.25585099D-04  0.46143779D-04  0.68038976D-04  0.26307505D-02  0.16821818D-02
  0.19973625D-04  0.81146203D-03 -0.74306431D-03  0.61760449D-04  0.11564601D-02
 -0.76639970D-03 -0.27996650D-03  0.55989059D-04  0.20021897D-03 -0.13948598D-03
 -0.77445932D-03 -0.38923386D-03  0.11636932D-02  0.31270940D-02 -0.38285448D-03
  0.14598220D-03 -0.12707678D-03 -0.66753075D-04  0.19382985D-03  0.50234100D-03
 -0.11188794D-03 -0.43902664D-04  0.39616145D-04  0.71449350D-04  0.10535202D-03
  0.39701908D-02  0.13574238D-02 -0.41139380D-04  0.99621256D-04  0.86247723D-03
  0.98563614D-03 -0.17490472D-03  0.86556974D-03  0.28076011D-03 -0.20018759D-04
 -0.15317863D-03  0.52294827D-04  0.11230286D-02 -0.32997570D-03 -0.79305287D-03
 -0.10217149D-03 -0.26406557D-03 -0.36070078D-02  0.60718208D-04  0.12198850D-03
 -0.18270670D-03  0.67261676D-04 -0.88099287D-04 -0.66706778D-03 -0.87525974D-05
 -0.15785670D-04 -0.23275961D-04  0.13831311D-02  0.91917740D-03  0.30265237D-04
 -0.11873701D-02 -0.58555261D-03  0.39210755D-04 -0.17518887D-02 -0.92632259D-03
 -0.88376611D-03 -0.99449343D-04  0.57090411D-04 -0.68358194D-04 -0.15365825D-02
  0.88195458D-04  0.14483870D-02 -0.30076016D-02 -0.15908529D-03 -0.20185151D-03
 -0.24632419D-03 -0.35445052D-04  0.28176925D-03 -0.41662715D-03  0.89672643D-05
 -0.12626766D-04  0.14727386D-03  0.26561446D-03  0.39164837D-03 -0.10124153D-02
 -0.71321219D-03  0.45382703D-04  0.67828028D-03  0.47322940D-03  0.48227645D-12
  0.32410277D-03  0.22652725D-02  0.78147342D-11  0.35087827D-03  0.13564033D-03
  0.64663872D-12  0.44082650D-03 -0.53041427D-03  0.89587777D-04 -0.18313693D-02
 -0.60743230D-11 -0.52407103D-11  0.86455392D-05 -0.22219318D-03  0.21354764D-03
 -0.33456119D-03 -0.82934965D-12 -0.66948409D-12  0.25585099D-04  0.46143780D-04
  0.68038976D-04  0.26307505D-02  0.16821818D-02  0.19973625D-04  0.81146204D-03
 -0.74306431D-03 -0.61760450D-04  0.11564601D-02 -0.76639971D-03  0.27996650D-03
  0.55989059D-04  0.20021897D-03  0.13948598D-03 -0.77445932D-03 -0.38923386D-03
  0.11636932D-02  0.31270940D-02  0.38285449D-03 -0.14598220D-03 -0.12707678D-03
 -0.66753075D-04  0.19382986D-03  0.50234100D-03  0.11188794D-03  0.43902664D-04
  0.39616145D-04  0.71449349D-04  0.10535202D-03  0.39701908D-02  0.13574238D-02
 -0.41139380D-04  0.99621256D-04  0.86247723D-03 -0.98563615D-03 -0.17490472D-03
  0.86556975D-03 -0.28076012D-03 -0.20018759D-04 -0.15317863D-03 -0.52294825D-04
  0.11230286D-02 -0.32997570D-03 -0.79305287D-03 -0.10217149D-03  0.26406557D-03
  0.36070079D-02  0.60718209D-04  0.12198850D-03 -0.18270670D-03  0.67261676D-04
  0.88099288D-04  0.66706778D-03 -0.87525974D-05 -0.15785670D-04 -0.23275961D-04
  0.13831311D-02  0.91917740D-03  0.30265237D-04 -0.11873701D-02 -0.58555262D-03
 -0.39210755D-04 -0.17518888D-02 -0.92632259D-03  0.88376611D-03 -0.99449344D-04
  0.57090410D-04  0.68358194D-04 -0.15365825D-02  0.88195461D-04  0.14483870D-02
 -0.30076017D-02  0.15908529D-03  0.20185151D-03 -0.24632419D-03 -0.35445052D-04
  0.28176925D-03 -0.41662715D-03 -0.89672647D-05  0.12626766D-04
MO    3     MO 0.0        OCC NO =    2.0000000  ORB. ENERGY =   -9.898836
  0.23366064D+00  0.43559657D+00  0.73623493D+00  0.11068023D+01  0.13598345D+01
  0.11485976D+01  0.43320875D+00 -0.21439743D-02 -0.27409408D-02 -0.51319060D-02
 -0.87375091D-02 -0.13515598D-01 -0.17799567D-01 -0.18494890D-01 -0.11752673D-01
  0.78763679D-02  0.25887006D-01 -0.70889899D-02 -0.10090767D-02  0.38035861D-04
  0.35661038D-04  0.25392783D-04  0.64870315D-03  0.60820044D-03  0.43307495D-03
 -0.41886542D-03 -0.39271296D-03 -0.27963502D-03 -0.33075382D-03 -0.67696034D-03
  0.94371261D-03 -0.50673620D-03 -0.14826395D-02  0.13766409D-03  0.16049941D-04
 -0.47996130D-04  0.66155895D-04  0.16027299D-03  0.17057814D-03 -0.33085112D-03
  0.12980014D-03  0.22930341D-03  0.61141992D-03 -0.58981414D-04 -0.48248914D-03
  0.54147055D-03  0.66379563D-03 -0.80922054D-03  0.16399708D-03  0.13303440D-03
 -0.11111893D-03 -0.21915471D-04 -0.54090222D-05  0.63009745D-04 -0.94722141D-05
 -0.24109436D-03  0.26620186D-04 -0.30652422D-03  0.25154595D-03 -0.34231571D-02
 -0.20066153D-03  0.47173713D-03  0.33432966D-02  0.11202342D-02  0.47204092D-03
  0.14024490D-03 -0.20354017D-04 -0.56853897D-04 -0.57384244D-03  0.91537211D-03
  0.38038276D-03  0.15310773D-03 -0.85431006D-03 -0.20982107D-03 -0.28553754D-03
  0.75266340D-12  0.14024774D-11  0.23719409D-11  0.35720116D-11  0.44223820D-11
  0.37632475D-11  0.14319851D-11 -0.67065972D-14 -0.64680662D-12 -0.12127685D-11
 -0.20632800D-11 -0.32040560D-11 -0.42519686D-11 -0.44809913D-11 -0.27785004D-11
  0.18482596D-11  0.20778088D-11  0.19479820D-10 -0.32788467D-12 -0.15282174D-11
 -0.14678346D-11 -0.10293469D-11 -0.29910599D-11 -0.28728772D-11 -0.20146598D-11
  0.14084084D-02  0.13527594D-02  0.94864828D-03  0.39875749D-11  0.30969097D-11
 -0.26398966D-03  0.15469960D-11 -0.75087393D-11  0.43282183D-02 -0.14604690D-12
  0.70093435D-13  0.24021643D-03 -0.13078817D-11 -0.16652255D-11  0.29731072D-11
  0.13677906D-11 -0.27691823D-03 -0.31590273D-02  0.30842127D-11  0.84024954D-12
 -0.39244622D-11  0.21552257D-11  0.89968147D-03  0.37568311D-02  0.42902976D-12
  0.12987490D-11 -0.17277787D-11 -0.24587977D-12  0.50504499D-03  0.15573780D-03
  0.51385081D-12 -0.12245750D-11 -0.55857048D-03  0.16707068D-11  0.31338977D-11
  0.25822546D-02 -0.32122592D-11  0.53982724D-12 -0.90654315D-03  0.75464655D-05
  0.32492275D-12 -0.11188910D-11 -0.82834199D-04 -0.20423493D-11 -0.18857332D-11
  0.90759244D-03  0.10675811D-11  0.52424061D-11 -0.65908984D-03  0.22517717D-02
 -0.23366064D+00 -0.43559656D+00 -0.73623493D+00 -0.11068023D+01 -0.13598345D+01
 -0.11485976D+01 -0.43320875D+00  0.21439743D-02  0.27409408D-02  0.51319060D-02
  0.87375091D-02  0.13515598D-01  0.17799567D-01  0.18494890D-01  0.11752673D-01
 -0.78763678D-02 -0.25887006D-01  0.70889899D-02  0.10090767D-02 -0.38035861D-04
 -0.35661037D-04 -0.25392783D-04 -0.64870315D-03 -0.60820044D-03 -0.43307494D-03
 -0.41886541D-03 -0.39271295D-03 -0.27963502D-03  0.33075382D-03  0.67696034D-03
  0.94371261D-03  0.50673620D-03  0.14826395D-02  0.13766409D-03 -0.16049941D-04
  0.47996130D-04  0.66155895D-04 -0.16027299D-03 -0.17057814D-03  0.33085112D-03
 -0.12980014D-03  0.22930341D-03  0.61141991D-03  0.58981416D-04  0.48248914D-03
 -0.54147056D-03 -0.66379563D-03 -0.80922054D-03  0.16399709D-03 -0.13303440D-03
  0.11111893D-03  0.21915470D-04  0.54090223D-05  0.63009745D-04 -0.94722140D-05
  0.24109436D-03 -0.26620186D-04 -0.30652422D-03 -0.25154595D-03  0.34231571D-02
 -0.20066152D-03 -0.47173713D-03 -0.33432965D-02  0.11202342D-02  0.47204092D-03
 -0.14024490D-03  0.20354016D-04 -0.56853897D-04  0.57384243D-03 -0.91537210D-03
  0.38038276D-03 -0.15310773D-03  0.85431005D-03 -0.20982107D-03 -0.28553754D-03
  0.36960625D-04  0.66660009D-04  0.98290144D-04  0.23883747D-02 -0.27794784D-03
 -0.83433173D-04  0.10887745D-02 -0.94691500D-03  0.20854025D-03  0.60919717D-03
 -0.10875530D-02 -0.24954984D-03  0.33334285D-04 -0.28458559D-03 -0.11080448D-03
 -0.57312165D-03 -0.51453293D-03  0.10876546D-02  0.34263971D-02 -0.39217432D-03
  0.20867309D-03 -0.34019067D-04 -0.10397860D-03  0.13799767D-03  0.45757355D-03
 -0.86892943D-04 -0.44707032D-04 -0.26029157D-04 -0.46944656D-04 -0.69219868D-04
  0.16327262D-02  0.26803664D-02  0.67263703D-05  0.44570170D-04  0.90232874D-03
  0.12706868D-02  0.38190419D-03  0.14442461D-02  0.12522500D-02 -0.40022498D-04
 -0.54380438D-04 -0.29150122D-03  0.10610412D-02 -0.69160285D-04 -0.99188096D-03
 -0.13020309D-03 -0.58980761D-03 -0.36858351D-02  0.15284705D-03  0.44193794D-05
 -0.15726643D-03  0.43899592D-04 -0.12551725D-03 -0.49453739D-03  0.46090627D-05
  0.83126344D-05  0.12256975D-04  0.42591123D-03 -0.10291150D-02 -0.32022261D-05
 -0.13897528D-02 -0.93101821D-03  0.10862550D-03 -0.20328487D-02 -0.45837581D-03
 -0.37430631D-03 -0.22255481D-03 -0.27039888D-03 -0.23149932D-04 -0.16898680D-02
  0.52545210D-03  0.11644159D-02 -0.30985429D-02  0.27642467D-03 -0.26234779D-03
 -0.21353762D-03  0.16514844D-04  0.19702278D-03 -0.46623008D-03  0.88866917D-04
 -0.11127138D-03  0.36273561D-12  0.65420861D-12  0.96463021D-12 -0.32556628D-11
 -0.17503620D-11  0.14217974D-12  0.17666504D-11  0.11196832D-11 -0.24028758D-03
  0.11797660D-11  0.58153059D-11 -0.32357189D-02  0.84436142D-12  0.31683123D-12
 -0.28455230D-03  0.93052267D-12 -0.12593420D-11  0.32881935D-12 -0.46856191D-11
  0.25235481D-02  0.21828253D-02  0.36509261D-14 -0.54069251D-12  0.53704158D-12