 Molden2AIM, Version 4.0.0 (06/02/2016)           Time: Fri Jun 29 04:25:33 2018
GAUSSIAN             12 MOL ORBITALS    387 PRIMITIVES        9 NUCLEI
  C    1    (CENTRE  1)   2.44698557  0.25451587  0.00000000  CHARGE =  6.0
  C    2    (CENTRE  2)   0.00531202  0.88812593  0.00000000  CHARGE =  6.0
  H    3    (CENTRE  3)   3.04608733 -1.72167278  0.00000000  CHARGE =  1.0
  H    4    (CENTRE  4)   3.93167725  1.68402377  0.00000000  CHARGE =  1.0
  H    5    (CENTRE  5)  -0.49767638  2.89598639  0.00000000  CHARGE =  1.0
  C    6    (CENTRE  6)  -2.15251900 -0.93480216  0.00000000  CHARGE =  6.0
  H    7    (CENTRE  7)  -1.48708218 -2.90035733  0.00000000  CHARGE =  1.0
  H    8    (CENTRE  8)  -3.36228198 -0.65218795  1.66829747  CHARGE =  1.0
  H    9    (CENTRE  9)  -3.36228198 -0.65218795 -1.66829747  CHARGE =  1.0
CENTRE ASSIGNMENTS    1  1  1  1  1  1  1  1  1  1  1  1  1  1  1  1  1  1  1  1
CENTRE ASSIGNMENTS    1  1  1  1  1  1  1  1  1  1  1  1  1  1  1  1  1  1  1  1
CENTRE ASSIGNMENTS    1  1  1  1  1  1  1  1  1  1  1  1  1  1  1  1  1  1  1  1
CENTRE ASSIGNMENTS    1  1  1  1  1  1  1  1  1  1  1  1  1  1  1  2  2  2  2  2
CENTRE ASSIGNMENTS    2  2  2  2  2  2  2  2  2  2  2  2  2  2  2  2  2  2  2  2
CENTRE ASSIGNMENTS    2  2  2  2  2  2  2  2  2  2  2  2  2  2  2  2  2  2  2  2
CENTRE ASSIGNMENTS    2  2  2  2  2  2  2  2  2  2  2  2  2  2  2  2  2  2  2  2
CENTRE ASSIGNMENTS    2  2  2  2  2  2  2  2  2  2  3  3  3  3  3  3  3  3  3  3
CENTRE ASSIGNMENTS    3  3  3  3  3  3  3  3  3  3  3  3  3  3  3  3  3  4  4  4
CENTRE ASSIGNMENTS    4  4  4  4  4  4  4  4  4  4  4  4  4  4  4  4  4  4  4  4
CENTRE ASSIGNMENTS    4  4  4  4  5  5  5  5  5  5  5  5  5  5  5  5  5  5  5  5
CENTRE ASSIGNMENTS    5  5  5  5  5  5  5  5  5  5  5  6  6  6  6  6  6  6  6  6
CENTRE ASSIGNMENTS    6  6  6  6  6  6  6  6  6  6  6  6  6  6  6  6  6  6  6  6
CENTRE ASSIGNMENTS    6  6  6  6  6  6  6  6  6  6  6  6  6  6  6  6  6  6  6  6
CENTRE ASSIGNMENTS    6  6  6  6  6  6  6  6  6  6  6  6  6  6  6  6  6  6  6  6
CENTRE ASSIGNMENTS    6  6  6  6  6  6  7  7  7  7  7  7  7  7  7  7  7  7  7  7
CENTRE ASSIGNMENTS    7  7  7  7  7  7  7  7  7  7  7  7  7  8  8  8  8  8  8  8
CENTRE ASSIGNMENTS    8  8  8  8  8  8  8  8  8  8  8  8  8  8  8  8  8  8  8  8
CENTRE ASSIGNMENTS    9  9  9  9  9  9  9  9  9  9  9  9  9  9  9  9  9  9  9  9
CENTRE ASSIGNMENTS    9  9  9  9  9  9  9
TYPE ASSIGNMENTS      1  1  1  1  1  1  1  1  1  1  1  1  1  1  1  1  1  1  1  2
TYPE ASSIGNMENTS      2  2  3  3  3  4  4  4  2  3  4  2  3  4  2  3  4  5  6  7
TYPE ASSIGNMENTS      8  9 10  5  6  7  8  9 10  5  6  7  8  9 10 11 12 13 17 14
TYPE ASSIGNMENTS     15 18 19 16 20 11 12 13 17 14 15 18 19 16 20  1  1  1  1  1
TYPE ASSIGNMENTS      1  1  1  1  1  1  1  1  1  1  1  1  1  1  2  2  2  3  3  3
TYPE ASSIGNMENTS      4  4  4  2  3  4  2  3  4  2  3  4  5  6  7  8  9 10  5  6
TYPE ASSIGNMENTS      7  8  9 10  5  6  7  8  9 10 11 12 13 17 14 15 18 19 16 20
TYPE ASSIGNMENTS     11 12 13 17 14 15 18 19 16 20  1  1  1  1  1  1  2  3  4  2
TYPE ASSIGNMENTS      3  4  2  3  4  5  6  7  8  9 10  5  6  7  8  9 10  1  1  1
TYPE ASSIGNMENTS      1  1  1  2  3  4  2  3  4  2  3  4  5  6  7  8  9 10  5  6
TYPE ASSIGNMENTS      7  8  9 10  1  1  1  1  1  1  2  3  4  2  3  4  2  3  4  5
TYPE ASSIGNMENTS      6  7  8  9 10  5  6  7  8  9 10  1  1  1  1  1  1  1  1  1
TYPE ASSIGNMENTS      1  1  1  1  1  1  1  1  1  1  2  2  2  3  3  3  4  4  4  2
TYPE ASSIGNMENTS      3  4  2  3  4  2  3  4  5  6  7  8  9 10  5  6  7  8  9 10
TYPE ASSIGNMENTS      5  6  7  8  9 10 11 12 13 17 14 15 18 19 16 20 11 12 13 17
TYPE ASSIGNMENTS     14 15 18 19 16 20  1  1  1  1  1  1  2  3  4  2  3  4  2  3
TYPE ASSIGNMENTS      4  5  6  7  8  9 10  5  6  7  8  9 10  1  1  1  1  1  1  2
TYPE ASSIGNMENTS      3  4  2  3  4  2  3  4  5  6  7  8  9 10  5  6  7  8  9 10
TYPE ASSIGNMENTS      1  1  1  1  1  1  2  3  4  2  3  4  2  3  4  5  6  7  8  9
TYPE ASSIGNMENTS     10  5  6  7  8  9 10
EXPONENTS  0.8236000D+04 0.1235000D+04 0.2808000D+03 0.7927000D+02 0.2559000D+02
EXPONENTS  0.8997000D+01 0.3319000D+01 0.3643000D+00 0.8236000D+04 0.1235000D+04
EXPONENTS  0.2808000D+03 0.7927000D+02 0.2559000D+02 0.8997000D+01 0.3319000D+01
EXPONENTS  0.3643000D+00 0.9059000D+00 0.1285000D+00 0.4402000D-01 0.1871000D+02
EXPONENTS  0.4133000D+01 0.1200000D+01 0.1871000D+02 0.4133000D+01 0.1200000D+01
EXPONENTS  0.1871000D+02 0.4133000D+01 0.1200000D+01 0.3827000D+00 0.3827000D+00
EXPONENTS  0.3827000D+00 0.1209000D+00 0.1209000D+00 0.1209000D+00 0.3569000D-01
EXPONENTS  0.3569000D-01 0.3569000D-01 0.1097000D+01 0.1097000D+01 0.1097000D+01
EXPONENTS  0.1097000D+01 0.1097000D+01 0.1097000D+01 0.3180000D+00 0.3180000D+00
EXPONENTS  0.3180000D+00 0.3180000D+00 0.3180000D+00 0.3180000D+00 0.1000000D+00
EXPONENTS  0.1000000D+00 0.1000000D+00 0.1000000D+00 0.1000000D+00 0.1000000D+00
EXPONENTS  0.7610000D+00 0.7610000D+00 0.7610000D+00 0.7610000D+00 0.7610000D+00
EXPONENTS  0.7610000D+00 0.7610000D+00 0.7610000D+00 0.7610000D+00 0.7610000D+00
EXPONENTS  0.2680000D+00 0.2680000D+00 0.2680000D+00 0.2680000D+00 0.2680000D+00
EXPONENTS  0.2680000D+00 0.2680000D+00 0.2680000D+00 0.2680000D+00 0.2680000D+00
EXPONENTS  0.8236000D+04 0.1235000D+04 0.2808000D+03 0.7927000D+02 0.2559000D+02
EXPONENTS  0.8997000D+01 0.3319000D+01 0.3643000D+00 0.8236000D+04 0.1235000D+04
EXPONENTS  0.2808000D+03 0.7927000D+02 0.2559000D+02 0.8997000D+01 0.3319000D+01
EXPONENTS  0.3643000D+00 0.9059000D+00 0.1285000D+00 0.4402000D-01 0.1871000D+02
EXPONENTS  0.4133000D+01 0.1200000D+01 0.1871000D+02 0.4133000D+01 0.1200000D+01
EXPONENTS  0.1871000D+02 0.4133000D+01 0.1200000D+01 0.3827000D+00 0.3827000D+00
EXPONENTS  0.3827000D+00 0.1209000D+00 0.1209000D+00 0.1209000D+00 0.3569000D-01
EXPONENTS  0.3569000D-01 0.3569000D-01 0.1097000D+01 0.1097000D+01 0.1097000D+01
EXPONENTS  0.1097000D+01 0.1097000D+01 0.1097000D+01 0.3180000D+00 0.3180000D+00
EXPONENTS  0.3180000D+00 0.3180000D+00 0.3180000D+00 0.3180000D+00 0.1000000D+00
EXPONENTS  0.1000000D+00 0.1000000D+00 0.1000000D+00 0.1000000D+00 0.1000000D+00
EXPONENTS  0.7610000D+00 0.7610000D+00 0.7610000D+00 0.7610000D+00 0.7610000D+00
EXPONENTS  0.7610000D+00 0.7610000D+00 0.7610000D+00 0.7610000D+00 0.7610000D+00
EXPONENTS  0.2680000D+00 0.2680000D+00 0.2680000D+00 0.2680000D+00 0.2680000D+00
EXPONENTS  0.2680000D+00 0.2680000D+00 0.2680000D+00 0.2680000D+00 0.2680000D+00
EXPONENTS  0.3387000D+02 0.5095000D+01 0.1159000D+01 0.3258000D+00 0.1027000D+00
EXPONENTS  0.2526000D-01 0.1407000D+01 0.1407000D+01 0.1407000D+01 0.3880000D+00
EXPONENTS  0.3880000D+00 0.3880000D+00 0.1020000D+00 0.1020000D+00 0.1020000D+00
EXPONENTS  0.1057000D+01 0.1057000D+01 0.1057000D+01 0.1057000D+01 0.1057000D+01
EXPONENTS  0.1057000D+01 0.2470000D+00 0.2470000D+00 0.2470000D+00 0.2470000D+00
EXPONENTS  0.2470000D+00 0.2470000D+00 0.3387000D+02 0.5095000D+01 0.1159000D+01
EXPONENTS  0.3258000D+00 0.1027000D+00 0.2526000D-01 0.1407000D+01 0.1407000D+01
EXPONENTS  0.1407000D+01 0.3880000D+00 0.3880000D+00 0.3880000D+00 0.1020000D+00
EXPONENTS  0.1020000D+00 0.1020000D+00 0.1057000D+01 0.1057000D+01 0.1057000D+01
EXPONENTS  0.1057000D+01 0.1057000D+01 0.1057000D+01 0.2470000D+00 0.2470000D+00
EXPONENTS  0.2470000D+00 0.2470000D+00 0.2470000D+00 0.2470000D+00 0.3387000D+02
EXPONENTS  0.5095000D+01 0.1159000D+01 0.3258000D+00 0.1027000D+00 0.2526000D-01
EXPONENTS  0.1407000D+01 0.1407000D+01 0.1407000D+01 0.3880000D+00 0.3880000D+00
EXPONENTS  0.3880000D+00 0.1020000D+00 0.1020000D+00 0.1020000D+00 0.1057000D+01
EXPONENTS  0.1057000D+01 0.1057000D+01 0.1057000D+01 0.1057000D+01 0.1057000D+01
EXPONENTS  0.2470000D+00 0.2470000D+00 0.2470000D+00 0.2470000D+00 0.2470000D+00
EXPONENTS  0.2470000D+00 0.8236000D+04 0.1235000D+04 0.2808000D+03 0.7927000D+02
EXPONENTS  0.2559000D+02 0.8997000D+01 0.3319000D+01 0.3643000D+00 0.8236000D+04
EXPONENTS  0.1235000D+04 0.2808000D+03 0.7927000D+02 0.2559000D+02 0.8997000D+01
EXPONENTS  0.3319000D+01 0.3643000D+00 0.9059000D+00 0.1285000D+00 0.4402000D-01
EXPONENTS  0.1871000D+02 0.4133000D+01 0.1200000D+01 0.1871000D+02 0.4133000D+01
EXPONENTS  0.1200000D+01 0.1871000D+02 0.4133000D+01 0.1200000D+01 0.3827000D+00
EXPONENTS  0.3827000D+00 0.3827000D+00 0.1209000D+00 0.1209000D+00 0.1209000D+00
EXPONENTS  0.3569000D-01 0.3569000D-01 0.3569000D-01 0.1097000D+01 0.1097000D+01
EXPONENTS  0.1097000D+01 0.1097000D+01 0.1097000D+01 0.1097000D+01 0.3180000D+00
EXPONENTS  0.3180000D+00 0.3180000D+00 0.3180000D+00 0.3180000D+00 0.3180000D+00
EXPONENTS  0.1000000D+00 0.1000000D+00 0.1000000D+00 0.1000000D+00 0.1000000D+00
EXPONENTS  0.1000000D+00 0.7610000D+00 0.7610000D+00 0.7610000D+00 0.7610000D+00
EXPONENTS  0.7610000D+00 0.7610000D+00 0.7610000D+00 0.7610000D+00 0.7610000D+00
EXPONENTS  0.7610000D+00 0.2680000D+00 0.2680000D+00 0.2680000D+00 0.2680000D+00
EXPONENTS  0.2680000D+00 0.2680000D+00 0.2680000D+00 0.2680000D+00 0.2680000D+00
EXPONENTS  0.2680000D+00 0.3387000D+02 0.5095000D+01 0.1159000D+01 0.3258000D+00
EXPONENTS  0.1027000D+00 0.2526000D-01 0.1407000D+01 0.1407000D+01 0.1407000D+01
EXPONENTS  0.3880000D+00 0.3880000D+00 0.3880000D+00 0.1020000D+00 0.1020000D+00
EXPONENTS  0.1020000D+00 0.1057000D+01 0.1057000D+01 0.1057000D+01 0.1057000D+01
EXPONENTS  0.1057000D+01 0.1057000D+01 0.2470000D+00 0.2470000D+00 0.2470000D+00
EXPONENTS  0.2470000D+00 0.2470000D+00 0.2470000D+00 0.3387000D+02 0.5095000D+01
EXPONENTS  0.1159000D+01 0.3258000D+00 0.1027000D+00 0.2526000D-01 0.1407000D+01
EXPONENTS  0.1407000D+01 0.1407000D+01 0.3880000D+00 0.3880000D+00 0.3880000D+00
EXPONENTS  0.1020000D+00 0.1020000D+00 0.1020000D+00 0.1057000D+01 0.1057000D+01
EXPONENTS  0.1057000D+01 0.1057000D+01 0.1057000D+01 0.1057000D+01 0.2470000D+00
EXPONENTS  0.2470000D+00 0.2470000D+00 0.2470000D+00 0.2470000D+00 0.2470000D+00
EXPONENTS  0.3387000D+02 0.5095000D+01 0.1159000D+01 0.3258000D+00 0.1027000D+00
EXPONENTS  0.2526000D-01 0.1407000D+01 0.1407000D+01 0.1407000D+01 0.3880000D+00
EXPONENTS  0.3880000D+00 0.3880000D+00 0.1020000D+00 0.1020000D+00 0.1020000D+00
EXPONENTS  0.1057000D+01 0.1057000D+01 0.1057000D+01 0.1057000D+01 0.1057000D+01
EXPONENTS  0.1057000D+01 0.2470000D+00 0.2470000D+00 0.2470000D+00 0.2470000D+00
EXPONENTS  0.2470000D+00 0.2470000D+00
MO    1     MO 0.0        OCC NO =    2.0000000  ORB. ENERGY =   -9.892061
  0.82009626D-02  0.15288459D-01  0.25840189D-01  0.38846268D-01  0.47727128D-01
  0.40313190D-01  0.15204652D-01 -0.75248671D-04 -0.64847153D-03 -0.12141433D-02
 -0.20671829D-02 -0.31976176D-02 -0.42111499D-02 -0.43756545D-02 -0.27805320D-02
  0.18634479D-02  0.49568264D-02 -0.16974362D-01 -0.89880781D-03 -0.20213602D-02
 -0.18951537D-02 -0.13494623D-02  0.47380419D-03  0.44422155D-03  0.31631220D-03
  0.61948048D-17  0.58080233D-17  0.41356586D-17  0.81749536D-03 -0.98312421D-03
 -0.24371410D-15  0.24454639D-02 -0.46559781D-03 -0.19504188D-14  0.33788787D-04
 -0.59924469D-04 -0.83202068D-16 -0.61763753D-03  0.48231464D-03  0.13532290D-03
  0.81909810D-03 -0.28365186D-15  0.25280914D-15 -0.33624542D-02  0.86134349D-03
  0.25011107D-02 -0.37500480D-03  0.23333869D-15 -0.10709981D-15  0.14018372D-03
 -0.22238811D-03  0.82204391D-04  0.11971508D-02  0.27764337D-15 -0.58308964D-16
  0.13939113D-02  0.60690217D-03  0.86000248D-16 -0.24173568D-02 -0.25763326D-02
 -0.34325812D-15 -0.17643771D-02  0.75562607D-03  0.85257376D-16 -0.88507715D-16
  0.42125895D-03  0.23668127D-03  0.44145500D-16 -0.10681438D-02 -0.65928401D-03
  0.13917827D-17 -0.19563303D-03 -0.50759789D-04 -0.13382828D-15 -0.19509223D-15
  0.33023567D+00  0.61563437D+00  0.10405305D+01  0.15642582D+01  0.19218720D+01
  0.16233281D+01  0.61225964D+00 -0.30301071D-02 -0.38545076D-02 -0.72168544D-02
 -0.12287312D-01 -0.19006603D-01 -0.25031028D-01 -0.26008842D-01 -0.16527451D-01
  0.11076313D-01  0.38483220D-01 -0.28769450D-02 -0.14671608D-02 -0.10265405D-02
 -0.96244700D-03 -0.68531960D-03 -0.31546225D-03 -0.29576591D-03 -0.21060295D-03
 -0.35366918D-15 -0.33158734D-15 -0.23610994D-15  0.49011803D-02  0.96737153D-03
  0.95743749D-16  0.29734025D-02 -0.23839334D-02  0.28580127D-14  0.11957763D-03
  0.11617735D-03 -0.74949190D-16  0.32350013D-02  0.17991068D-02 -0.50341081D-02
 -0.14222566D-02  0.32482514D-15  0.83129126D-15 -0.71664178D-03 -0.73054384D-04
  0.78969617D-03 -0.39433058D-02 -0.16041222D-15 -0.60044234D-15  0.10536719D-02
 -0.11128364D-02  0.59164426D-04  0.10674477D-02  0.35961868D-15 -0.36155906D-15
  0.10147614D-02  0.11847272D-02 -0.33195918D-16 -0.24966527D-02 -0.23419341D-02
  0.57849387D-15 -0.54763162D-03 -0.12122475D-02 -0.47890611D-15  0.73628279D-15
 -0.58088009D-03 -0.60672568D-03 -0.80480076D-16  0.14106492D-02  0.15561373D-02
 -0.18980167D-16  0.33199102D-03  0.26403979D-03  0.26042040D-15 -0.19597764D-15
  0.13599985D-03  0.24528132D-03  0.36166717D-03  0.26721730D-02  0.78254884D-02
 -0.67870785D-04 -0.77912901D-03  0.76772077D-03 -0.45815361D-15  0.11408911D-02
  0.32252922D-03  0.45793863D-15  0.57882743D-04  0.94731687D-03  0.10036822D-15
 -0.35968327D-03  0.20119398D-03  0.15848929D-03  0.39121056D-03  0.28087204D-15
  0.94980869D-16 -0.15367059D-03 -0.36190349D-05  0.15728963D-03  0.43892781D-03
 -0.28352484D-15 -0.16599756D-16  0.10134302D-03  0.18277631D-03  0.26950356D-03
  0.59677142D-02 -0.62963646D-02  0.44316238D-04 -0.97223918D-03 -0.44865821D-03
 -0.40643942D-15 -0.72185182D-03 -0.20965226D-02  0.63614881D-15  0.51800789D-03
  0.51509065D-03  0.24480836D-15 -0.41988097D-03  0.24378859D-03  0.17609237D-03
  0.10614112D-02  0.92099477D-16 -0.46679679D-16 -0.32701615D-03  0.17735397D-03
  0.14966218D-03  0.19075975D-03 -0.30670973D-15 -0.11116350D-15  0.15556741D-03
  0.28057222D-03  0.41370358D-03  0.13513260D-02  0.14353654D-01 -0.71347613D-04
 -0.47939835D-03  0.16936329D-02  0.33880601D-15 -0.70781768D-05  0.36135182D-02
 -0.45491288D-15  0.54440830D-03 -0.11328005D-02  0.23576347D-15  0.16949834D-02
 -0.36243949D-02  0.19294116D-02  0.23099403D-02  0.47229248D-15 -0.82545466D-16
  0.95533559D-06 -0.48825902D-03  0.48730369D-03  0.24568708D-04 -0.15278531D-15
 -0.27907149D-16  0.40859899D-02  0.76172142D-02  0.12874434D-01  0.19354491D-01
  0.23779229D-01  0.20085360D-01  0.75754588D-02 -0.37491368D-04 -0.36593112D-03
 -0.68513851D-03 -0.11665069D-02 -0.18044089D-02 -0.23763430D-02 -0.24691726D-02
 -0.15690483D-02  0.10515397D-02  0.12133750D-02 -0.21728910D-03  0.14989829D-02
 -0.19865414D-03 -0.18625089D-03 -0.13262173D-03  0.93914107D-04  0.88050444D-04
  0.62697162D-04  0.15062230D-14  0.14121798D-14  0.10055562D-14  0.45372262D-02
  0.30711837D-02 -0.73398292D-14  0.33415440D-03 -0.10366253D-02 -0.57331445D-14
  0.11993619D-03  0.78888565D-04  0.44074096D-15  0.90225946D-03  0.53060601D-04
 -0.95532006D-03  0.20907578D-02  0.18409592D-14  0.10081939D-14 -0.53515295D-03
  0.15287393D-03  0.38227903D-03 -0.53401928D-03  0.47671887D-14 -0.42352483D-14
  0.23370553D-03 -0.31709139D-03  0.83385860D-04 -0.79770859D-04 -0.28509305D-15
 -0.17762577D-14  0.10165742D-03  0.37960891D-03 -0.20046171D-15 -0.12309562D-02
 -0.16013040D-02 -0.16017869D-15  0.92598398D-03  0.46247726D-03  0.76156382D-15
  0.11773687D-14 -0.21689341D-03 -0.36811037D-03 -0.11881431D-16  0.13957257D-03
  0.17882788D-04 -0.67590152D-15  0.51110766D-03  0.10864483D-02  0.71154581D-15
  0.59203476D-15 -0.39269147D-04 -0.70823524D-04 -0.10442924D-03 -0.14261809D-02
  0.20017417D-02  0.57516156D-04  0.90929539D-05  0.15751562D-03  0.47559339D-15
 -0.43636398D-03  0.44563592D-03 -0.21251539D-14 -0.36152752D-03  0.11860427D-03
 -0.23796073D-14  0.57436540D-04  0.25695017D-04 -0.83131557D-04 -0.13868569D-02
 -0.33281136D-15 -0.61464387D-15 -0.10287648D-03  0.29343850D-04  0.73532628D-04
 -0.44608133D-03  0.10045432D-14 -0.86971896D-15 -0.16823178D-04 -0.30341294D-04
 -0.44738220D-04  0.94526823D-03 -0.27506925D-02  0.74140337D-04  0.17685224D-04
  0.19717399D-03 -0.30669239D-03 -0.15660530D-03 -0.16345066D-02 -0.88117027D-03
 -0.23216929D-03 -0.76757617D-04  0.21185756D-03 -0.74983945D-03  0.63991420D-04
  0.68584803D-03 -0.10704978D-02 -0.18637080D-03  0.10578493D-02 -0.14460139D-03
  0.77256000D-04  0.67345388D-04 -0.35469491D-03 -0.27699722D-03  0.13030624D-04
 -0.16823178D-04 -0.30341294D-04 -0.44738220D-04  0.94526823D-03 -0.27506925D-02
  0.74140337D-04  0.17685224D-04  0.19717399D-03  0.30669239D-03 -0.15660530D-03
 -0.16345066D-02  0.88117027D-03 -0.23216929D-03 -0.76757617D-04 -0.21185756D-03
 -0.74983945D-03  0.63991420D-04  0.68584803D-03 -0.10704978D-02  0.18637080D-03
 -0.10578493D-02 -0.14460139D-03  0.77256000D-04  0.67345388D-04 -0.35469491D-03
  0.27699722D-03 -0.13030624D-04
MO    2     MO 0.0        OCC NO =    2.0000000  ORB. ENERGY =   -9.883575
  0.43368910D-03  0.80849509D-03  0.13664991D-02  0.20542958D-02  0.25239397D-02
  0.21318706D-02  0.80406315D-03 -0.39793534D-05 -0.19197819D-03 -0.35944375D-03
 -0.61198373D-03 -0.94664578D-03 -0.12466992D-02 -0.12954003D-02 -0.82316875D-03
  0.55166855D-03  0.74335233D-03 -0.20438210D-02  0.17153813D-02  0.16669885D-03
  0.15629077D-03  0.11128834D-03 -0.13884336D-03 -0.13017448D-03 -0.92691982D-04
 -0.57347984D-15 -0.53767380D-15 -0.38285578D-15 -0.39374603D-02  0.15916203D-02
  0.90345044D-15  0.24250164D-02 -0.22102533D-02 -0.82475128D-15 -0.80783467D-04
 -0.48067331D-05 -0.54311054D-16  0.18021923D-03 -0.25022375D-03  0.70004513D-04
  0.29786465D-03  0.87896688D-15  0.20232996D-15  0.79638825D-03 -0.14059873D-02
  0.60959910D-03 -0.36698183D-02 -0.17328066D-14  0.50386197D-15 -0.10671030D-03
  0.19619162D-03 -0.89481320D-04  0.20274184D-03  0.32014199D-15 -0.30261496D-15
  0.17095431D-03  0.74851245D-04  0.51865321D-17 -0.54938566D-03  0.16378698D-03
 -0.18926081D-15  0.36522727D-04 -0.38834071D-03  0.17370122D-15 -0.11690286D-14
 -0.23462336D-03 -0.49297207D-03  0.57615750D-16  0.11706439D-02  0.10275141D-02
  0.50582191D-15 -0.46677381D-03  0.45140212D-03 -0.67866916D-15  0.14716426D-15
 -0.32856732D-02 -0.61252419D-02 -0.10352738D-01 -0.15563556D-01 -0.19121627D-01
 -0.16151271D-01 -0.60916651D-02  0.30147991D-04 -0.26065788D-03 -0.48803380D-03
 -0.83091929D-03 -0.12853058D-02 -0.16927025D-02 -0.17588264D-02 -0.11176552D-02
  0.74902652D-03  0.79583515D-03 -0.81240089D-04 -0.11138987D-02 -0.44702511D-04
 -0.41911446D-04 -0.29843446D-04 -0.97106111D-04 -0.91043152D-04 -0.64828148D-04
 -0.12244855D-14 -0.11480330D-14 -0.81746790D-15 -0.45638577D-02  0.50088975D-03
  0.11391465D-14  0.26854604D-02 -0.32884052D-02  0.83791013D-15 -0.12836704D-03
 -0.32131989D-04  0.11484093D-16 -0.25326266D-03  0.51040928D-03 -0.25714662D-03
  0.73310015D-03  0.13213442D-14  0.15920682D-14 -0.10406681D-02  0.57471978D-03
  0.46594830D-03 -0.96410653D-03 -0.27510622D-14 -0.13596094D-14  0.39939165D-03
 -0.47980653D-03  0.80414875D-04  0.63559409D-04  0.43873641D-15  0.63293272D-15
 -0.31449174D-04  0.12151780D-03  0.19523537D-15  0.22203428D-03  0.57238148D-03
 -0.60206695D-15 -0.12768676D-03 -0.93693487D-03  0.16360843D-16 -0.17563505D-16
 -0.58320616D-03 -0.67593945D-03 -0.15537073D-15  0.26755667D-02  0.16779306D-02
 -0.77013337D-16 -0.92594826D-03  0.34988776D-03  0.54312552D-15  0.12995008D-14
 -0.55403079D-04 -0.99921735D-04 -0.14733454D-03 -0.24486424D-02 -0.32156915D-02
 -0.12884459D-04  0.22729935D-04 -0.16877854D-04 -0.98838664D-15 -0.14476770D-02
  0.90180617D-03  0.17782006D-14  0.13745354D-03 -0.19859194D-03 -0.27135452D-15
  0.15074199D-03  0.34656977D-03 -0.49731176D-03 -0.12825305D-02  0.38560710D-15
  0.62658559D-15  0.40133854D-04  0.13974799D-03 -0.17988185D-03 -0.24946553D-03
 -0.39008346D-15  0.16171032D-15 -0.84144501D-04 -0.15175807D-03 -0.22376719D-03
  0.15173216D-02 -0.16987214D-02  0.60461244D-04 -0.11590474D-04 -0.13077729D-03
 -0.17259199D-15 -0.24009749D-02 -0.61864202D-03  0.54291141D-15  0.12632048D-03
 -0.49922072D-04 -0.33175538D-16  0.78403158D-03 -0.25772349D-03 -0.52630808D-03
  0.27499697D-03 -0.34354640D-15 -0.39167959D-15  0.10189898D-03  0.71690446D-04
 -0.17358942D-03  0.99320452D-04 -0.32721733D-15  0.22881492D-15  0.20728889D-03
  0.37385405D-03  0.55124757D-03  0.42350885D-02  0.77674576D-02  0.75214008D-04
  0.44577729D-03 -0.55541306D-03 -0.58357723D-16 -0.13393780D-02  0.12549866D-02
 -0.18289889D-15  0.27458533D-03 -0.72869241D-03 -0.72617057D-15 -0.23242753D-03
 -0.67408968D-03  0.90651721D-03 -0.99073246D-04  0.10059062D-15  0.19736571D-15
 -0.50643901D-04 -0.23241797D-03  0.28306187D-03  0.10217903D-04 -0.51088487D-15
 -0.14586899D-15  0.33072974D+00  0.61655543D+00  0.10420873D+01  0.15665986D+01
  0.19247473D+01  0.16257568D+01  0.61317565D+00 -0.30346405D-02 -0.41215338D-02
 -0.77168117D-02 -0.13138532D-01 -0.20323311D-01 -0.26765086D-01 -0.27810639D-01
 -0.17672413D-01  0.11843640D-01  0.38224270D-01 -0.92446346D-02 -0.99337976D-03
  0.11226429D-04  0.10525491D-04  0.74947767D-05 -0.17289472D-03 -0.16209979D-03
 -0.11542470D-03 -0.36313344D-14 -0.34046068D-14 -0.24242829D-14  0.97751576D-03
  0.15043079D-02  0.97161834D-14 -0.10104486D-02 -0.12863996D-03 -0.38334573D-14
 -0.44977559D-04 -0.52637466D-04  0.16886497D-17 -0.60693761D-04  0.83958361D-04
 -0.23264600D-04 -0.15401730D-02 -0.39552969D-14  0.10582678D-14  0.31571792D-04
 -0.75704454D-03  0.72547275D-03  0.10366194D-02 -0.56392282D-14  0.79978719D-15
 -0.29262584D-04 -0.11781351D-03  0.14707609D-03 -0.26350325D-04  0.11364551D-14
 -0.62714408D-15  0.31915626D-03 -0.92708744D-03  0.36263704D-15  0.22324973D-02
  0.90221065D-03  0.91344367D-15 -0.31899661D-02  0.18790517D-02 -0.20013548D-14
 -0.19050373D-14 -0.12141655D-03  0.18751251D-03  0.55663840D-15 -0.12544297D-02
 -0.14956081D-04 -0.91965250D-15  0.16186793D-02 -0.54758145D-03 -0.75026270D-15
 -0.66565918D-15  0.19134468D-04  0.34509801D-04  0.50884682D-04  0.46130142D-02
  0.31007570D-02 -0.48546349D-04  0.51181094D-03 -0.15743414D-02 -0.14345658D-14
  0.12756455D-02 -0.20590971D-03  0.21549035D-14 -0.34911268D-04  0.25132036D-03
 -0.10329071D-14  0.92944046D-03 -0.22070383D-02  0.12775978D-02  0.30433447D-02
  0.31058445D-15  0.59664182D-15  0.11493164D-03 -0.27979301D-03  0.16486138D-03
  0.23602004D-03 -0.26856952D-16  0.27943631D-15  0.22073426D-05  0.39810333D-05
  0.58700313D-05  0.27146419D-02 -0.53888929D-03 -0.24746600D-04 -0.12441960D-02
  0.22679761D-03  0.13342945D-02 -0.79543590D-03  0.37239787D-03  0.14066097D-02
 -0.24470075D-03  0.42323089D-04  0.13022433D-03 -0.24659199D-03  0.15121500D-02
 -0.12655580D-02  0.94717204D-03  0.41018736D-02 -0.69011889D-03 -0.19827516D-04
  0.18621875D-03 -0.16639123D-03  0.19721927D-03  0.51400320D-03 -0.75347204D-04
  0.22073426D-05  0.39810333D-05  0.58700313D-05  0.27146419D-02 -0.53888929D-03
 -0.24746600D-04 -0.12441960D-02  0.22679761D-03 -0.13342945D-02 -0.79543590D-03
  0.37239787D-03 -0.14066097D-02 -0.24470075D-03  0.42323089D-04 -0.13022433D-03
 -0.24659199D-03  0.15121500D-02 -0.12655580D-02  0.94717204D-03 -0.41018736D-02
  0.69011889D-03 -0.19827516D-04  0.18621875D-03 -0.16639123D-03  0.19721927D-03
 -0.51400320D-03  0.75347204D-04
MO    3     MO 0.0        OCC NO =    2.0000000  ORB. ENERGY =   -9.876264
  0.33045919D+00  0.61605106D+00  0.10412348D+01  0.15653170D+01  0.19231728D+01
  0.16244269D+01  0.61267404D+00 -0.30321580D-02 -0.40129171D-02 -0.75134470D-02
 -0.12792286D-01 -0.19787722D-01 -0.26059734D-01 -0.27077733D-01 -0.17206683D-01
  0.11531519D-01  0.38338842D-01  0.13491218D-01 -0.48548198D-03  0.62579160D-03
  0.58671941D-03  0.41777917D-03 -0.28811728D-03 -0.27012826D-03 -0.19234742D-03
  0.12267048D-14  0.11501137D-14  0.81894946D-15 -0.52178246D-02  0.14147147D-02
 -0.11700579D-14 -0.71115695D-02  0.16780218D-02  0.48918611D-15 -0.46118447D-04
 -0.80584427D-04  0.24616284D-16  0.33406974D-02  0.22182602D-02 -0.55589577D-02
 -0.30865749D-03 -0.12988119D-14 -0.41454107D-15  0.40625520D-03 -0.82887555D-03
  0.42262034D-03 -0.24327624D-02  0.13876003D-14 -0.22080637D-15  0.73878125D-03
 -0.80580402D-03  0.67022769D-04  0.59990875D-03 -0.65188013D-15  0.56930668D-16
 -0.10491555D-02 -0.12611041D-02  0.62853119D-16  0.36008792D-02  0.36564962D-02
  0.12660122D-15 -0.45341278D-03  0.12681598D-03 -0.31516057D-15  0.77010353D-15
  0.35128739D-03  0.32273951D-03 -0.60931765D-17 -0.11428587D-02 -0.92974458D-03
 -0.34823407D-15  0.88996520D-04 -0.38473963D-04  0.36651360D-15 -0.19278831D-15
 -0.68617478D-02 -0.12791858D-01 -0.21620494D-01 -0.32502684D-01 -0.39933302D-01
 -0.33730058D-01 -0.12721737D-01  0.62960585D-04 -0.45852111D-03 -0.85849618D-03
 -0.14616632D-02 -0.22609707D-02 -0.29776189D-02 -0.30939368D-02 -0.19660579D-02
  0.13176063D-02  0.28493560D-02 -0.24590029D-01 -0.15403579D-02  0.20397841D-02
  0.19124273D-02  0.13617621D-02 -0.53759493D-03 -0.50402942D-03 -0.35889897D-03
  0.79747110D-15  0.74767985D-15  0.53239259D-15 -0.26500249D-02  0.10243854D-02
  0.26478429D-15 -0.88394803D-02 -0.41575536D-03  0.67388510D-15  0.89222497D-04
  0.14214539D-03  0.83174364D-16 -0.36677054D-03  0.15683901D-03  0.20993153D-03
  0.13474648D-02 -0.93045853D-15 -0.19096005D-14 -0.39870511D-02  0.16948517D-02
  0.22921994D-02  0.96561166D-03  0.67755574D-15  0.35728823D-15  0.28376291D-03
 -0.36766238D-03  0.83899474D-04  0.24994643D-02 -0.35580055D-15 -0.10786953D-14
 -0.12173879D-02 -0.64994747D-03 -0.25099997D-15  0.20951489D-02  0.24639165D-02
 -0.16459391D-16  0.15570147D-02 -0.51407407D-03  0.76945929D-15  0.83315485D-16
 -0.60428224D-03 -0.51025096D-03 -0.14246231D-15  0.11715911D-02  0.14107828D-02
  0.32527256D-15  0.64125564D-03  0.11997011D-03  0.10211438D-15 -0.19688554D-15
  0.18369959D-03  0.33130978D-03  0.48851607D-03  0.57562048D-03  0.11492247D-01
 -0.37083275D-04  0.49719842D-03 -0.18641002D-02  0.10570220D-14  0.42002630D-03
 -0.24741510D-02 -0.12571069D-14 -0.72114026D-03  0.92285836D-03  0.20637678D-15
  0.13044893D-02 -0.31107743D-02  0.18062850D-02  0.28577054D-02 -0.96659460D-15
 -0.25898014D-15  0.57049884D-04 -0.36339669D-03  0.30634681D-03  0.39311502D-04
  0.48826540D-15 -0.82225922D-16  0.15011763D-03  0.27074333D-03  0.39921089D-03
  0.26654947D-02 -0.34381953D-02  0.10546328D-03  0.13250361D-02  0.13654167D-02
  0.99187831D-16  0.11217927D-02  0.13220594D-02 -0.20158719D-15  0.58445917D-04
  0.99959876D-03  0.55191967D-15 -0.10954114D-02 -0.84835806D-03  0.19437694D-02
 -0.51927339D-02 -0.26269994D-15  0.52686950D-15 -0.12407183D-03 -0.18696191D-03
  0.31103375D-03 -0.27119824D-03  0.38956784D-15 -0.27236252D-15  0.98278151D-04
  0.17724869D-03  0.26135309D-03  0.34306420D-02  0.94964067D-02 -0.90662779D-04
  0.37332466D-03 -0.87421805D-03  0.44044921D-15 -0.83283633D-03  0.71015216D-04
 -0.84414980D-15 -0.69981317D-03 -0.11001110D-02  0.10095553D-14 -0.41604976D-03
  0.26817520D-03  0.14787456D-03  0.55549329D-03 -0.73670621D-15  0.74898770D-15
 -0.32538992D-03  0.34144061D-04  0.29124586D-03  0.43027281D-03  0.31981510D-15
  0.21262667D-15 -0.20296853D-04 -0.37837949D-04 -0.63952799D-04 -0.96142006D-04
 -0.11812156D-03 -0.99772543D-04 -0.37630532D-04  0.18623560D-06 -0.17236466D-03
 -0.32272102D-03 -0.54946015D-03 -0.84993130D-03 -0.11193296D-02 -0.11630552D-02
 -0.73906936D-03  0.49530710D-03  0.38011210D-03 -0.85762571D-02  0.13875622D-02
 -0.51268988D-03 -0.48067935D-03 -0.34227233D-03 -0.18433358D-03 -0.17282445D-03
 -0.12306130D-03 -0.32670668D-14 -0.30630828D-14 -0.21810974D-14  0.36139852D-02
  0.17482256D-02  0.16833186D-13 -0.13591389D-02 -0.32556936D-02  0.22429525D-13
  0.83152768D-04  0.27047134D-04  0.46809098D-15  0.10359168D-02 -0.37039911D-03
 -0.66551768D-03  0.96425630D-03 -0.17796258D-14  0.10396122D-14 -0.82612025D-03
  0.15031285D-02 -0.67700824D-03  0.15997322D-02 -0.15369267D-13  0.32084510D-14
  0.49117151D-04 -0.13636594D-04 -0.35480557D-04 -0.25136143D-03 -0.42509988D-14
  0.14462660D-14 -0.13167029D-03  0.32056375D-04  0.17263318D-15 -0.32713144D-03
  0.34654233D-03  0.26658460D-14  0.72214231D-03 -0.44271145D-03 -0.31837456D-14
 -0.24377408D-14 -0.40193616D-03 -0.31924446D-03 -0.37923719D-16  0.51597712D-03
  0.52106676D-03  0.11377659D-14  0.68983136D-03  0.43666661D-03 -0.10239948D-14
 -0.50820755D-15 -0.87990528D-04 -0.15869454D-03 -0.23399501D-03 -0.19182159D-02
 -0.25346434D-02 -0.44207137D-04  0.12119833D-03 -0.74411956D-04  0.13265619D-14
  0.13586118D-02  0.76049965D-03  0.27268696D-15 -0.10003376D-03 -0.21414141D-03
  0.24393149D-14 -0.22499855D-03  0.56763702D-03 -0.34263846D-03  0.95292580D-03
  0.49417202D-15  0.36902088D-15 -0.11080395D-03  0.14770909D-03 -0.36905139D-04
 -0.11950231D-03  0.26112265D-15  0.71862216D-15 -0.79628584D-05 -0.14361343D-04
 -0.21175792D-04  0.28377048D-02 -0.16245292D-02  0.66006453D-04 -0.71806794D-04
 -0.82501424D-04 -0.39267191D-03  0.10959524D-02 -0.65060163D-03 -0.96927100D-03
 -0.15503743D-03 -0.40783562D-04  0.13005246D-03 -0.16851659D-03 -0.70295530D-04
  0.23881212D-03 -0.25177087D-03 -0.65282933D-03  0.37402791D-03 -0.41019602D-04
  0.35001762D-04  0.60178398D-05 -0.13963104D-03 -0.33981025D-03 -0.43367191D-04
 -0.79628584D-05 -0.14361343D-04 -0.21175792D-04  0.28377048D-02 -0.16245292D-02
  0.66006453D-04 -0.71806794D-04 -0.82501424D-04  0.39267191D-03  0.10959524D-02
 -0.65060163D-03  0.96927100D-03 -0.15503743D-03 -0.40783562D-04 -0.13005246D-03
 -0.16851659D-03 -0.70295530D-04  0.23881212D-03 -0.25177087D-03  0.65282933D-03
 -0.37402791D-03 -0.41019602D-04  0.35001762D-04  0.60178398D-05 -0.13963104D-03
  0.33981025D-03  0.43367191D-04
MO    4     MO 0.0        OCC NO =    2.0000000  ORB. ENERGY =   -0.714341
 -0.72043423D-02 -0.13430532D-01 -0.22699965D-01 -0.34125483D-01 -0.41927099D-01
 -0.35414138D-01 -0.13356910D-01  0.66104092D-04 -0.29012116D-01 -0.54319836D-01
 -0.92484168D-01 -0.14305895D+00 -0.18840360D+00 -0.19576341D+00 -0.12439886D+00
  0.83369221D-01  0.36587468D-01  0.26958053D-01 -0.13559057D-02 -0.11646602D+00
 -0.10919429D+00 -0.77752843D-01  0.20246092D-01  0.18981998D-01  0.13516313D-01
 -0.91709522D-14 -0.85983506D-14 -0.61225379D-14 -0.13526116D-01  0.16876667D-02
  0.10114999D-13 -0.22217361D-02 -0.21042778D-03  0.52161670D-14  0.67041757D-04