 Molden2AIM, Version 4.0.0 (06/02/2016)           Time: Fri Jun 29 00:43:59 2018
GAUSSIAN             12 MOL ORBITALS    387 PRIMITIVES        9 NUCLEI
  C    1    (CENTRE  1)   0.00000000  1.64187532  0.00000000  CHARGE =  6.0
  C    2    (CENTRE  2)   1.42190175 -0.82089892  0.00000000  CHARGE =  6.0
  C    3    (CENTRE  3)  -1.42190175 -0.82089892  0.00000000  CHARGE =  6.0
  H    4    (CENTRE  4)   0.00000000  2.75763198  1.73024458  CHARGE =  1.0
  H    5    (CENTRE  5)   0.00000000  2.75763198 -1.73024458  CHARGE =  1.0
  H    6    (CENTRE  6)   2.38813761 -1.37883489 -1.73025403  CHARGE =  1.0
  H    7    (CENTRE  7)   2.38813761 -1.37883489  1.73025403  CHARGE =  1.0
  H    8    (CENTRE  8)  -2.38813761 -1.37883489  1.73025403  CHARGE =  1.0
  H    9    (CENTRE  9)  -2.38813761 -1.37883489 -1.73025403  CHARGE =  1.0
CENTRE ASSIGNMENTS    1  1  1  1  1  1  1  1  1  1  1  1  1  1  1  1  1  1  1  1
CENTRE ASSIGNMENTS    1  1  1  1  1  1  1  1  1  1  1  1  1  1  1  1  1  1  1  1
CENTRE ASSIGNMENTS    1  1  1  1  1  1  1  1  1  1  1  1  1  1  1  1  1  1  1  1
CENTRE ASSIGNMENTS    1  1  1  1  1  1  1  1  1  1  1  1  1  1  1  2  2  2  2  2
CENTRE ASSIGNMENTS    2  2  2  2  2  2  2  2  2  2  2  2  2  2  2  2  2  2  2  2
CENTRE ASSIGNMENTS    2  2  2  2  2  2  2  2  2  2  2  2  2  2  2  2  2  2  2  2
CENTRE ASSIGNMENTS    2  2  2  2  2  2  2  2  2  2  2  2  2  2  2  2  2  2  2  2
CENTRE ASSIGNMENTS    2  2  2  2  2  2  2  2  2  2  3  3  3  3  3  3  3  3  3  3
CENTRE ASSIGNMENTS    3  3  3  3  3  3  3  3  3  3  3  3  3  3  3  3  3  3  3  3
CENTRE ASSIGNMENTS    3  3  3  3  3  3  3  3  3  3  3  3  3  3  3  3  3  3  3  3
CENTRE ASSIGNMENTS    3  3  3  3  3  3  3  3  3  3  3  3  3  3  3  3  3  3  3  3
CENTRE ASSIGNMENTS    3  3  3  3  3  4  4  4  4  4  4  4  4  4  4  4  4  4  4  4
CENTRE ASSIGNMENTS    4  4  4  4  4  4  4  4  4  4  4  4  5  5  5  5  5  5  5  5
CENTRE ASSIGNMENTS    5  5  5  5  5  5  5  5  5  5  5  5  5  5  5  5  5  5  5  6
CENTRE ASSIGNMENTS    6  6  6  6  6  6  6  6  6  6  6  6  6  6  6  6  6  6  6  6
CENTRE ASSIGNMENTS    6  6  6  6  6  6  7  7  7  7  7  7  7  7  7  7  7  7  7  7
CENTRE ASSIGNMENTS    7  7  7  7  7  7  7  7  7  7  7  7  7  8  8  8  8  8  8  8
CENTRE ASSIGNMENTS    8  8  8  8  8  8  8  8  8  8  8  8  8  8  8  8  8  8  8  8
CENTRE ASSIGNMENTS    9  9  9  9  9  9  9  9  9  9  9  9  9  9  9  9  9  9  9  9
CENTRE ASSIGNMENTS    9  9  9  9  9  9  9
TYPE ASSIGNMENTS      1  1  1  1  1  1  1  1  1  1  1  1  1  1  1  1  1  1  1  2
TYPE ASSIGNMENTS      2  2  3  3  3  4  4  4  2  3  4  2  3  4  2  3  4  5  6  7
TYPE ASSIGNMENTS      8  9 10  5  6  7  8  9 10  5  6  7  8  9 10 11 12 13 17 14
TYPE ASSIGNMENTS     15 18 19 16 20 11 12 13 17 14 15 18 19 16 20  1  1  1  1  1
TYPE ASSIGNMENTS      1  1  1  1  1  1  1  1  1  1  1  1  1  1  2  2  2  3  3  3
TYPE ASSIGNMENTS      4  4  4  2  3  4  2  3  4  2  3  4  5  6  7  8  9 10  5  6
TYPE ASSIGNMENTS      7  8  9 10  5  6  7  8  9 10 11 12 13 17 14 15 18 19 16 20
TYPE ASSIGNMENTS     11 12 13 17 14 15 18 19 16 20  1  1  1  1  1  1  1  1  1  1
TYPE ASSIGNMENTS      1  1  1  1  1  1  1  1  1  2  2  2  3  3  3  4  4  4  2  3
TYPE ASSIGNMENTS      4  2  3  4  2  3  4  5  6  7  8  9 10  5  6  7  8  9 10  5
TYPE ASSIGNMENTS      6  7  8  9 10 11 12 13 17 14 15 18 19 16 20 11 12 13 17 14
TYPE ASSIGNMENTS     15 18 19 16 20  1  1  1  1  1  1  2  3  4  2  3  4  2  3  4
TYPE ASSIGNMENTS      5  6  7  8  9 10  5  6  7  8  9 10  1  1  1  1  1  1  2  3
TYPE ASSIGNMENTS      4  2  3  4  2  3  4  5  6  7  8  9 10  5  6  7  8  9 10  1
TYPE ASSIGNMENTS      1  1  1  1  1  2  3  4  2  3  4  2  3  4  5  6  7  8  9 10
TYPE ASSIGNMENTS      5  6  7  8  9 10  1  1  1  1  1  1  2  3  4  2  3  4  2  3
TYPE ASSIGNMENTS      4  5  6  7  8  9 10  5  6  7  8  9 10  1  1  1  1  1  1  2
TYPE ASSIGNMENTS      3  4  2  3  4  2  3  4  5  6  7  8  9 10  5  6  7  8  9 10
TYPE ASSIGNMENTS      1  1  1  1  1  1  2  3  4  2  3  4  2  3  4  5  6  7  8  9
TYPE ASSIGNMENTS     10  5  6  7  8  9 10
EXPONENTS  0.8236000D+04 0.1235000D+04 0.2808000D+03 0.7927000D+02 0.2559000D+02
EXPONENTS  0.8997000D+01 0.3319000D+01 0.3643000D+00 0.8236000D+04 0.1235000D+04
EXPONENTS  0.2808000D+03 0.7927000D+02 0.2559000D+02 0.8997000D+01 0.3319000D+01
EXPONENTS  0.3643000D+00 0.9059000D+00 0.1285000D+00 0.4402000D-01 0.1871000D+02
EXPONENTS  0.4133000D+01 0.1200000D+01 0.1871000D+02 0.4133000D+01 0.1200000D+01
EXPONENTS  0.1871000D+02 0.4133000D+01 0.1200000D+01 0.3827000D+00 0.3827000D+00
EXPONENTS  0.3827000D+00 0.1209000D+00 0.1209000D+00 0.1209000D+00 0.3569000D-01
EXPONENTS  0.3569000D-01 0.3569000D-01 0.1097000D+01 0.1097000D+01 0.1097000D+01
EXPONENTS  0.1097000D+01 0.1097000D+01 0.1097000D+01 0.3180000D+00 0.3180000D+00
EXPONENTS  0.3180000D+00 0.3180000D+00 0.3180000D+00 0.3180000D+00 0.1000000D+00
EXPONENTS  0.1000000D+00 0.1000000D+00 0.1000000D+00 0.1000000D+00 0.1000000D+00
EXPONENTS  0.7610000D+00 0.7610000D+00 0.7610000D+00 0.7610000D+00 0.7610000D+00
EXPONENTS  0.7610000D+00 0.7610000D+00 0.7610000D+00 0.7610000D+00 0.7610000D+00
EXPONENTS  0.2680000D+00 0.2680000D+00 0.2680000D+00 0.2680000D+00 0.2680000D+00
EXPONENTS  0.2680000D+00 0.2680000D+00 0.2680000D+00 0.2680000D+00 0.2680000D+00
EXPONENTS  0.8236000D+04 0.1235000D+04 0.2808000D+03 0.7927000D+02 0.2559000D+02
EXPONENTS  0.8997000D+01 0.3319000D+01 0.3643000D+00 0.8236000D+04 0.1235000D+04
EXPONENTS  0.2808000D+03 0.7927000D+02 0.2559000D+02 0.8997000D+01 0.3319000D+01
EXPONENTS  0.3643000D+00 0.9059000D+00 0.1285000D+00 0.4402000D-01 0.1871000D+02
EXPONENTS  0.4133000D+01 0.1200000D+01 0.1871000D+02 0.4133000D+01 0.1200000D+01
EXPONENTS  0.1871000D+02 0.4133000D+01 0.1200000D+01 0.3827000D+00 0.3827000D+00
EXPONENTS  0.3827000D+00 0.1209000D+00 0.1209000D+00 0.1209000D+00 0.3569000D-01
EXPONENTS  0.3569000D-01 0.3569000D-01 0.1097000D+01 0.1097000D+01 0.1097000D+01
EXPONENTS  0.1097000D+01 0.1097000D+01 0.1097000D+01 0.3180000D+00 0.3180000D+00
EXPONENTS  0.3180000D+00 0.3180000D+00 0.3180000D+00 0.3180000D+00 0.1000000D+00
EXPONENTS  0.1000000D+00 0.1000000D+00 0.1000000D+00 0.1000000D+00 0.1000000D+00
EXPONENTS  0.7610000D+00 0.7610000D+00 0.7610000D+00 0.7610000D+00 0.7610000D+00
EXPONENTS  0.7610000D+00 0.7610000D+00 0.7610000D+00 0.7610000D+00 0.7610000D+00
EXPONENTS  0.2680000D+00 0.2680000D+00 0.2680000D+00 0.2680000D+00 0.2680000D+00
EXPONENTS  0.2680000D+00 0.2680000D+00 0.2680000D+00 0.2680000D+00 0.2680000D+00
EXPONENTS  0.8236000D+04 0.1235000D+04 0.2808000D+03 0.7927000D+02 0.2559000D+02
EXPONENTS  0.8997000D+01 0.3319000D+01 0.3643000D+00 0.8236000D+04 0.1235000D+04
EXPONENTS  0.2808000D+03 0.7927000D+02 0.2559000D+02 0.8997000D+01 0.3319000D+01
EXPONENTS  0.3643000D+00 0.9059000D+00 0.1285000D+00 0.4402000D-01 0.1871000D+02
EXPONENTS  0.4133000D+01 0.1200000D+01 0.1871000D+02 0.4133000D+01 0.1200000D+01
EXPONENTS  0.1871000D+02 0.4133000D+01 0.1200000D+01 0.3827000D+00 0.3827000D+00
EXPONENTS  0.3827000D+00 0.1209000D+00 0.1209000D+00 0.1209000D+00 0.3569000D-01
EXPONENTS  0.3569000D-01 0.3569000D-01 0.1097000D+01 0.1097000D+01 0.1097000D+01
EXPONENTS  0.1097000D+01 0.1097000D+01 0.1097000D+01 0.3180000D+00 0.3180000D+00
EXPONENTS  0.3180000D+00 0.3180000D+00 0.3180000D+00 0.3180000D+00 0.1000000D+00
EXPONENTS  0.1000000D+00 0.1000000D+00 0.1000000D+00 0.1000000D+00 0.1000000D+00
EXPONENTS  0.7610000D+00 0.7610000D+00 0.7610000D+00 0.7610000D+00 0.7610000D+00
EXPONENTS  0.7610000D+00 0.7610000D+00 0.7610000D+00 0.7610000D+00 0.7610000D+00
EXPONENTS  0.2680000D+00 0.2680000D+00 0.2680000D+00 0.2680000D+00 0.2680000D+00
EXPONENTS  0.2680000D+00 0.2680000D+00 0.2680000D+00 0.2680000D+00 0.2680000D+00
EXPONENTS  0.3387000D+02 0.5095000D+01 0.1159000D+01 0.3258000D+00 0.1027000D+00
EXPONENTS  0.2526000D-01 0.1407000D+01 0.1407000D+01 0.1407000D+01 0.3880000D+00
EXPONENTS  0.3880000D+00 0.3880000D+00 0.1020000D+00 0.1020000D+00 0.1020000D+00
EXPONENTS  0.1057000D+01 0.1057000D+01 0.1057000D+01 0.1057000D+01 0.1057000D+01
EXPONENTS  0.1057000D+01 0.2470000D+00 0.2470000D+00 0.2470000D+00 0.2470000D+00
EXPONENTS  0.2470000D+00 0.2470000D+00 0.3387000D+02 0.5095000D+01 0.1159000D+01
EXPONENTS  0.3258000D+00 0.1027000D+00 0.2526000D-01 0.1407000D+01 0.1407000D+01
EXPONENTS  0.1407000D+01 0.3880000D+00 0.3880000D+00 0.3880000D+00 0.1020000D+00
EXPONENTS  0.1020000D+00 0.1020000D+00 0.1057000D+01 0.1057000D+01 0.1057000D+01
EXPONENTS  0.1057000D+01 0.1057000D+01 0.1057000D+01 0.2470000D+00 0.2470000D+00
EXPONENTS  0.2470000D+00 0.2470000D+00 0.2470000D+00 0.2470000D+00 0.3387000D+02
EXPONENTS  0.5095000D+01 0.1159000D+01 0.3258000D+00 0.1027000D+00 0.2526000D-01
EXPONENTS  0.1407000D+01 0.1407000D+01 0.1407000D+01 0.3880000D+00 0.3880000D+00
EXPONENTS  0.3880000D+00 0.1020000D+00 0.1020000D+00 0.1020000D+00 0.1057000D+01
EXPONENTS  0.1057000D+01 0.1057000D+01 0.1057000D+01 0.1057000D+01 0.1057000D+01
EXPONENTS  0.2470000D+00 0.2470000D+00 0.2470000D+00 0.2470000D+00 0.2470000D+00
EXPONENTS  0.2470000D+00 0.3387000D+02 0.5095000D+01 0.1159000D+01 0.3258000D+00
EXPONENTS  0.1027000D+00 0.2526000D-01 0.1407000D+01 0.1407000D+01 0.1407000D+01
EXPONENTS  0.3880000D+00 0.3880000D+00 0.3880000D+00 0.1020000D+00 0.1020000D+00
EXPONENTS  0.1020000D+00 0.1057000D+01 0.1057000D+01 0.1057000D+01 0.1057000D+01
EXPONENTS  0.1057000D+01 0.1057000D+01 0.2470000D+00 0.2470000D+00 0.2470000D+00
EXPONENTS  0.2470000D+00 0.2470000D+00 0.2470000D+00 0.3387000D+02 0.5095000D+01
EXPONENTS  0.1159000D+01 0.3258000D+00 0.1027000D+00 0.2526000D-01 0.1407000D+01
EXPONENTS  0.1407000D+01 0.1407000D+01 0.3880000D+00 0.3880000D+00 0.3880000D+00
EXPONENTS  0.1020000D+00 0.1020000D+00 0.1020000D+00 0.1057000D+01 0.1057000D+01
EXPONENTS  0.1057000D+01 0.1057000D+01 0.1057000D+01 0.1057000D+01 0.2470000D+00
EXPONENTS  0.2470000D+00 0.2470000D+00 0.2470000D+00 0.2470000D+00 0.2470000D+00
EXPONENTS  0.3387000D+02 0.5095000D+01 0.1159000D+01 0.3258000D+00 0.1027000D+00
EXPONENTS  0.2526000D-01 0.1407000D+01 0.1407000D+01 0.1407000D+01 0.3880000D+00
EXPONENTS  0.3880000D+00 0.3880000D+00 0.1020000D+00 0.1020000D+00 0.1020000D+00
EXPONENTS  0.1057000D+01 0.1057000D+01 0.1057000D+01 0.1057000D+01 0.1057000D+01
EXPONENTS  0.1057000D+01 0.2470000D+00 0.2470000D+00 0.2470000D+00 0.2470000D+00
EXPONENTS  0.2470000D+00 0.2470000D+00
MO    1     MO 0.0        OCC NO =    2.0000000  ORB. ENERGY =   -9.886403
  0.19032182D+00  0.35480315D+00  0.59967983D+00  0.90151521D+00  0.11076156D+01
  0.93555844D+00  0.35285822D+00 -0.17463150D-02 -0.22913768D-02 -0.42901804D-02
 -0.73043992D-02 -0.11298795D-01 -0.14880115D-01 -0.15461393D-01 -0.98250212D-02
  0.65845007D-02  0.22222691D-01  0.18297748D-02  0.98109064D-04 -0.26151547D-13
 -0.24518737D-13 -0.17458802D-13 -0.19538521D-02 -0.18318605D-02 -0.13043938D-02
 -0.11071601D-13 -0.10380330D-13 -0.73914133D-14 -0.13999514D-12 -0.18485768D-03
  0.48537129D-13  0.25122177D-13  0.56987232D-03  0.71249773D-13 -0.16152559D-13
 -0.19080166D-05 -0.21284415D-14 -0.32256531D-02  0.22164988D-02  0.10091543D-02
  0.12559799D-12 -0.14647643D-14  0.27974571D-14  0.22411525D-03 -0.12229192D-02
  0.99880399D-03 -0.81953800D-13 -0.39325996D-14  0.52866293D-13  0.14487450D-04
 -0.15217982D-03  0.13769237D-03  0.12602311D-13 -0.24705192D-14  0.47583987D-13
 -0.58944872D-14 -0.51705868D-03  0.31265434D-14  0.77321631D-13  0.29488888D-03
 -0.88618191D-14 -0.59638169D-13  0.12562871D-02 -0.51781120D-15  0.41654456D-14
  0.15642411D-16  0.21725710D-03  0.47676902D-14  0.28389625D-13  0.12063058D-03
 -0.44199359D-14 -0.28436553D-13 -0.77240188D-03 -0.98831348D-14 -0.35824829D-15
  0.19105069D+00  0.35616192D+00  0.60197638D+00  0.90496769D+00  0.11118574D+01
  0.93914129D+00  0.35420954D+00 -0.17530028D-02 -0.22997263D-02 -0.43058133D-02
 -0.73310156D-02 -0.11339966D-01 -0.14934337D-01 -0.15517732D-01 -0.98608224D-02
  0.66084939D-02  0.22305736D-01  0.17769464D-02  0.94026230D-04 -0.16958750D-02
 -0.15899907D-02 -0.11321681D-02  0.97839384D-03  0.91730641D-03  0.65317681D-03
  0.95159846D-14  0.89218404D-14  0.63528819D-14 -0.15293765D-03  0.82165147D-04
 -0.40778444D-13  0.49785086D-03 -0.29018664D-03 -0.67212622D-13 -0.14778155D-05
  0.76733200D-06  0.18047251D-14  0.85771589D-03 -0.18729208D-02  0.10152049D-02
 -0.47222041D-02 -0.22616348D-14  0.32010871D-14 -0.86485848D-03 -0.13585626D-03
  0.10007147D-02  0.12583989D-02 -0.38015335D-13  0.30856388D-13 -0.11071003D-03
 -0.27369383D-04  0.13807941D-03  0.14476641D-03 -0.34449891D-13  0.23884110D-13
 -0.27425570D-03 -0.41884988D-04 -0.20648422D-14 -0.27568583D-03  0.76187382D-03
 -0.17550521D-14  0.10984529D-02 -0.63621886D-03  0.79495787D-14  0.22509782D-14
  0.16936851D-03 -0.73420983D-04 -0.29389438D-14  0.16786774D-03 -0.16903444D-03
  0.45334269D-14 -0.67597326D-03  0.38929739D-03  0.42834046D-14 -0.70055515D-15
  0.19105069D+00  0.35616192D+00  0.60197638D+00  0.90496769D+00  0.11118574D+01
  0.93914129D+00  0.35420954D+00 -0.17530028D-02 -0.22997263D-02 -0.43058133D-02
 -0.73310156D-02 -0.11339966D-01 -0.14934337D-01 -0.15517732D-01 -0.98608224D-02
  0.66084939D-02  0.22305736D-01  0.17769464D-02  0.94026228D-04  0.16958750D-02
  0.15899907D-02  0.11321681D-02  0.97839384D-03  0.91730641D-03  0.65317681D-03
  0.16358002D-14  0.15336667D-14  0.10920620D-14  0.15293765D-03  0.82165147D-04
 -0.85123537D-14 -0.49785086D-03 -0.29018664D-03  0.56113805D-15  0.14778154D-05
  0.76733196D-06  0.39131839D-15  0.85771589D-03 -0.18729208D-02  0.10152049D-02
  0.47222041D-02 -0.15706201D-14  0.53465419D-14 -0.86485848D-03 -0.13585626D-03
  0.10007147D-02 -0.12583989D-02  0.73410364D-14  0.12293037D-13 -0.11071003D-03
 -0.27369383D-04  0.13807941D-03 -0.14476641D-03  0.16573428D-14  0.41374228D-14
  0.27425570D-03 -0.41884988D-04 -0.89202549D-15  0.27568583D-03  0.76187382D-03
 -0.49263326D-14 -0.10984529D-02 -0.63621886D-03  0.76024091D-14  0.53408956D-14
 -0.16936851D-03 -0.73420983D-04 -0.58455580D-15 -0.16786774D-03 -0.16903444D-03
  0.17179009D-14  0.67597326D-03  0.38929739D-03  0.35766475D-16  0.51413991D-15
  0.18231960D-03  0.32882091D-03  0.48484623D-03 -0.97006623D-03 -0.10877592D-02
 -0.10460612D-04 -0.10309081D-14  0.28419946D-03  0.81669176D-03  0.53903956D-13
  0.19394540D-02  0.13690778D-02 -0.22174973D-13  0.33556283D-03  0.43888604D-04
  0.10781787D-02 -0.35944019D-03 -0.71873855D-03 -0.76627947D-13 -0.45631834D-13
 -0.34299089D-02  0.18882514D-03 -0.19010703D-03  0.12818910D-05 -0.72096948D-14
  0.24770013D-14 -0.34950982D-03  0.18231960D-03  0.32882091D-03  0.48484623D-03
 -0.97006623D-03 -0.10877592D-02 -0.10460612D-04  0.80039029D-15  0.28419946D-03
 -0.81669176D-03  0.50484482D-13  0.19394540D-02 -0.13690778D-02 -0.21863048D-13
  0.33556283D-03 -0.43888604D-04  0.10781787D-02 -0.35944019D-03 -0.71873855D-03
 -0.72069675D-13  0.49180458D-13  0.34299089D-02  0.18882514D-03 -0.19010703D-03
  0.12818910D-05 -0.89564472D-14 -0.51417928D-14  0.34950982D-03  0.18251594D-03
  0.32917501D-03  0.48536835D-03 -0.95911257D-03 -0.10854598D-02 -0.10638557D-04
  0.24838697D-03 -0.14370281D-03 -0.82146166D-03  0.16843213D-02 -0.97048708D-03
 -0.13744013D-02  0.29096687D-03 -0.16781331D-03 -0.43676471D-04  0.54178916D-06
  0.72349485D-03 -0.72403664D-03  0.12481335D-02  0.29813742D-02 -0.17199853D-02
 -0.95661382D-04  0.95164043D-04  0.49733961D-06  0.32943803D-03  0.30392803D-03
 -0.17556334D-03  0.18251594D-03  0.32917501D-03  0.48536835D-03 -0.95911257D-03
 -0.10854598D-02 -0.10638557D-04  0.24838697D-03 -0.14370281D-03  0.82146166D-03
  0.16843213D-02 -0.97048708D-03  0.13744013D-02  0.29096687D-03 -0.16781331D-03
  0.43676471D-04  0.54178916D-06  0.72349485D-03 -0.72403664D-03  0.12481335D-02
 -0.29813742D-02  0.17199853D-02 -0.95661382D-04  0.95164043D-04  0.49733961D-06
  0.32943803D-03 -0.30392803D-03  0.17556334D-03  0.18251594D-03  0.32917501D-03
  0.48536836D-03 -0.95911257D-03 -0.10854598D-02 -0.10638557D-04 -0.24838697D-03
 -0.14370281D-03  0.82146166D-03 -0.16843213D-02 -0.97048708D-03  0.13744013D-02
 -0.29096687D-03 -0.16781331D-03  0.43676471D-04  0.54178926D-06  0.72349485D-03
 -0.72403664D-03 -0.12481335D-02  0.29813742D-02  0.17199853D-02 -0.95661382D-04
  0.95164043D-04  0.49733959D-06 -0.32943803D-03  0.30392803D-03  0.17556334D-03
  0.18251594D-03  0.32917501D-03  0.48536836D-03 -0.95911257D-03 -0.10854598D-02
 -0.10638557D-04 -0.24838697D-03 -0.14370281D-03 -0.82146166D-03 -0.16843213D-02
 -0.97048708D-03 -0.13744013D-02 -0.29096687D-03 -0.16781331D-03 -0.43676471D-04
  0.54178926D-06  0.72349485D-03 -0.72403664D-03 -0.12481335D-02 -0.29813742D-02
 -0.17199853D-02 -0.95661382D-04  0.95164043D-04  0.49733959D-06 -0.32943803D-03
 -0.30392803D-03 -0.17556334D-03
MO    2     MO 0.0        OCC NO =    2.0000000  ORB. ENERGY =   -9.886166
 -0.48983619D-08 -0.91316602D-08 -0.15434114D-07 -0.23202530D-07 -0.28506988D-07
 -0.24078709D-07 -0.90816031D-08  0.44945361D-10  0.56509763D-10  0.10580411D-09
  0.18014054D-09  0.27865003D-09  0.36697229D-09  0.38130771D-09  0.24230393D-09
 -0.16238646D-09 -0.55949241D-09  0.36468662D-09  0.27021768D-10 -0.39049712D-03
 -0.36611588D-03 -0.26069631D-03  0.26621953D-10  0.24959773D-10  0.17772845D-10
 -0.43620080D-14 -0.40896597D-14 -0.29120814D-14 -0.33179305D-02 -0.72753657D-10
  0.17236565D-13 -0.15792617D-02 -0.45776192D-10  0.21109331D-13 -0.49319746D-04
 -0.16097217D-11 -0.64793228D-15  0.62782587D-10 -0.22632044D-10 -0.40150543D-10
  0.25319978D-02 -0.76783803D-14 -0.28104835D-14 -0.18965638D-10  0.30998268D-10
 -0.12032630D-10 -0.14222213D-02 -0.16727148D-13  0.28398783D-13  0.81583734D-13
  0.28405052D-11 -0.29220889D-11  0.13936596D-03 -0.74459242D-14  0.54158905D-14
  0.69714994D-05  0.77559921D-11  0.10838819D-14  0.99403820D-03  0.63233646D-10
 -0.33225267D-14 -0.10149527D-02 -0.86501623D-10  0.70881078D-16  0.20063894D-13
 -0.10273102D-03 -0.11122936D-10  0.13771988D-14  0.87836023D-03 -0.18162398D-10
 -0.30276931D-14 -0.57016717D-03  0.51531206D-10 -0.11039034D-14 -0.41743682D-14
 -0.23358147D+00 -0.43544896D+00 -0.73598545D+00 -0.11064272D+01 -0.13593737D+01
 -0.11482084D+01 -0.43306196D+00  0.21432478D-02  0.26933401D-02  0.50427824D-02
  0.85857685D-02  0.13280878D-01  0.17490450D-01  0.18173697D-01  0.11548569D-01
 -0.77395823D-02 -0.26676732D-01  0.17446666D-01  0.13267198D-02  0.99929035D-03
  0.93689822D-03  0.66712735D-03 -0.80245571D-03 -0.75235324D-03 -0.53572033D-03
  0.15717966D-13  0.14736592D-13  0.10493331D-13 -0.38478568D-02  0.30663870D-03
 -0.67670001D-13 -0.22781447D-02  0.40302670D-03 -0.13448732D-12 -0.81290893D-04
  0.18433578D-04  0.85048897D-16  0.49126605D-03  0.14272784D-02 -0.19185444D-02
  0.41540061D-02 -0.22221466D-14 -0.22811224D-14  0.57253868D-03 -0.26524497D-05
 -0.56988623D-03 -0.24194592D-02 -0.75819425D-13  0.37747399D-13  0.13040198D-03
  0.48622426D-05 -0.13526423D-03 -0.78035810D-04 -0.61895334D-13  0.35478590D-13
  0.10813884D-02 -0.10701563D-02 -0.43972391D-14  0.58781225D-03  0.15837887D-02
  0.83830164D-14 -0.38319775D-02  0.16266803D-02  0.48087008D-14  0.11222580D-13
 -0.37425668D-03  0.45321327D-03 -0.64352946D-14 -0.86480475D-03  0.11745477D-03
  0.66337479D-14  0.19875748D-02 -0.14770946D-02  0.12672136D-13 -0.33619733D-14
  0.23358147D+00  0.43544897D+00  0.73598547D+00  0.11064272D+01  0.13593737D+01
  0.11482084D+01  0.43306196D+00 -0.21432478D-02 -0.26933401D-02 -0.50427825D-02
 -0.85857687D-02 -0.13280879D-01 -0.17490450D-01 -0.18173698D-01 -0.11548569D-01
  0.77395825D-02  0.26676733D-01 -0.17446666D-01 -0.13267198D-02  0.99929038D-03
  0.93689825D-03  0.66712737D-03  0.80245571D-03  0.75235324D-03  0.53572033D-03
 -0.74077126D-14 -0.69452014D-14 -0.49453972D-14 -0.38478568D-02 -0.30663883D-03
  0.31182196D-13 -0.22781447D-02 -0.40302676D-03  0.11796035D-12 -0.81290893D-04
 -0.18433580D-04  0.51131342D-15 -0.49126601D-03 -0.14272785D-02  0.19185445D-02
  0.41540061D-02  0.20575631D-14  0.61575759D-14 -0.57253872D-03  0.26524757D-05
  0.56988624D-03 -0.24194593D-02 -0.46465286D-13 -0.15757309D-13 -0.13040198D-03
 -0.48622452D-05  0.13526423D-03 -0.78035815D-04 -0.59504361D-13 -0.33587388D-13
  0.10813884D-02  0.10701564D-02  0.19805777D-14  0.58781229D-03 -0.15837887D-02
 -0.86607553D-14 -0.38319776D-02 -0.16266803D-02  0.27190221D-14  0.83405758D-14
 -0.37425670D-03 -0.45321328D-03  0.50556676D-14 -0.86480474D-03 -0.11745477D-03
 -0.77585030D-14  0.19875748D-02  0.14770946D-02 -0.74084997D-14 -0.31500006D-14
 -0.12973421D-11 -0.23398099D-11 -0.34500484D-11 -0.76600836D-10 -0.14269829D-10
  0.11899601D-11 -0.17536079D-03 -0.18442464D-10 -0.31717080D-10  0.11385978D-02
 -0.28950608D-10 -0.34339499D-10  0.11005155D-03 -0.25164162D-11  0.16853134D-11
 -0.33482876D-10 -0.16214025D-11  0.35104278D-10 -0.13830916D-02 -0.79857805D-03
  0.80263227D-10 -0.85406327D-11  0.33780835D-11  0.51625492D-11 -0.37781366D-03
  0.48411875D-04  0.99025098D-11 -0.12973917D-11 -0.23398993D-11 -0.34501801D-11
 -0.76540505D-10 -0.14177872D-10  0.11881453D-11 -0.17536079D-03 -0.18443738D-10
  0.31722208D-10  0.11385978D-02 -0.28966591D-10  0.34362297D-10  0.11005155D-03
 -0.25212201D-11 -0.16721637D-11 -0.33486181D-10 -0.16224289D-11  0.35108610D-10
 -0.13830916D-02  0.79857805D-03 -0.80270180D-10 -0.85410089D-11  0.33775414D-11
  0.51634675D-11 -0.37781366D-03 -0.48411875D-04 -0.99042233D-11 -0.61216171D-04
 -0.11040589D-03 -0.16279341D-03 -0.36644748D-02 -0.70554168D-03  0.58303246D-04
 -0.80628126D-03  0.36426225D-03  0.15138532D-02 -0.90805444D-03  0.11820300D-02
  0.16390249D-02 -0.72686835D-04  0.10554617D-03 -0.77248712D-04 -0.75873542D-03
 -0.91823245D-03  0.16769679D-02 -0.16600953D-02 -0.31128300D-02  0.22586112D-02
 -0.63420281D-04 -0.18401295D-03  0.24743323D-03 -0.58687144D-03 -0.42186590D-03
  0.21563510D-03 -0.61216171D-04 -0.11040589D-03 -0.16279341D-03 -0.36644748D-02
 -0.70554168D-03  0.58303246D-04 -0.80628126D-03  0.36426225D-03 -0.15138532D-02
 -0.90805444D-03  0.11820300D-02 -0.16390249D-02 -0.72686835D-04  0.10554617D-03
  0.77248712D-04 -0.75873542D-03 -0.91823245D-03  0.16769679D-02 -0.16600953D-02
  0.31128300D-02 -0.22586112D-02 -0.63420281D-04 -0.18401295D-03  0.24743323D-03
 -0.58687144D-03  0.42186590D-03 -0.21563510D-03  0.61216172D-04  0.11040589D-03
  0.16279342D-03  0.36644749D-02  0.70554170D-03 -0.58303247D-04 -0.80628127D-03
 -0.36426226D-03  0.15138532D-02 -0.90805448D-03 -0.11820300D-02  0.16390249D-02
 -0.72686838D-04 -0.10554617D-03 -0.77248713D-04  0.75873541D-03  0.91823250D-03
 -0.16769679D-02 -0.16600953D-02  0.31128301D-02  0.22586112D-02  0.63420276D-04
  0.18401296D-03 -0.24743323D-03 -0.58687144D-03  0.42186590D-03  0.21563511D-03
  0.61216172D-04  0.11040589D-03  0.16279342D-03  0.36644749D-02  0.70554170D-03
 -0.58303247D-04 -0.80628127D-03 -0.36426226D-03 -0.15138532D-02 -0.90805448D-03
 -0.11820300D-02 -0.16390249D-02 -0.72686838D-04 -0.10554617D-03  0.77248713D-04
  0.75873541D-03  0.91823250D-03 -0.16769679D-02 -0.16600953D-02 -0.31128301D-02
 -0.22586112D-02  0.63420276D-04  0.18401296D-03 -0.24743323D-03 -0.58687144D-03
 -0.42186590D-03 -0.21563511D-03
MO    3     MO 0.0        OCC NO =    2.0000000  ORB. ENERGY =   -9.886166
  0.27005990D+00  0.50345306D+00  0.85092437D+00  0.12792181D+01  0.15716672D+01
  0.13275242D+01  0.50069328D+00 -0.24779590D-02 -0.31140717D-02 -0.58305248D-02
 -0.99269674D-02 -0.15355509D-01 -0.20222665D-01 -0.21012645D-01 -0.13352592D-01
  0.89485969D-02  0.30843406D-01 -0.20138931D-01 -0.15314501D-02 -0.70836368D-11
 -0.66413598D-11 -0.47290438D-11 -0.14662250D-02 -0.13746792D-02 -0.97885347D-03
 -0.51698151D-13 -0.48470303D-13 -0.34513743D-13 -0.60000940D-10  0.40254630D-02
  0.22690458D-12 -0.28569895D-10  0.25112228D-02  0.42954457D-12 -0.88898644D-12
  0.91905233D-04 -0.10550414D-14 -0.34607774D-02  0.12435609D-02  0.22172165D-02
  0.45790177D-10  0.59078439D-14  0.99475642D-14  0.10468887D-02 -0.17070823D-02
  0.66019360D-03 -0.25749104D-10  0.12159004D-13  0.25082761D-12 -0.28162726D-05
 -0.15361045D-03  0.15642672D-03  0.25200480D-11  0.10429225D-13  0.22999088D-12
  0.12522276D-12 -0.42770873D-03  0.12440545D-13  0.17995017D-10 -0.34906970D-02
 -0.36299700D-13 -0.18370685D-10  0.47738232D-02 -0.10219354D-14 -0.13926085D-13
 -0.18613557D-11  0.61353819D-03  0.17635664D-13  0.15898908D-10  0.10010150D-02
 -0.25686905D-13 -0.10314841D-10 -0.28416295D-02 -0.27220086D-13  0.37774995D-14
 -0.13451424D+00 -0.25076512D+00 -0.42383724D+00 -0.63716620D+00 -0.78283229D+00
 -0.66122702D+00 -0.24939050D+00  0.12342475D-02  0.15507924D-02  0.29035726D-02
  0.49435808D-02  0.76469679D-02  0.10070788D-01  0.10464193D-01  0.66495252D-02
 -0.44563572D-02 -0.15361271D-01  0.10073293D-01  0.76593173D-03  0.79947738D-03
  0.74956086D-03  0.53373199D-03 -0.70988840D-04 -0.66556550D-04 -0.47392229D-04
 -0.15849189D-14 -0.14859622D-14 -0.10580936D-14 -0.30707256D-03  0.34947751D-02
  0.51046832D-14 -0.40239037D-03  0.18114135D-02 -0.25939242D-13 -0.18439326D-04
  0.59970937D-04  0.59532476D-15 -0.98074990D-03  0.20865660D-02 -0.11058161D-02
  0.92807395D-03  0.21931969D-13  0.11811325D-13  0.10404107D-02 -0.71286069D-03
 -0.32755001D-03 -0.57320058D-03 -0.13591692D-13  0.52043006D-13  0.54328731D-05
  0.72444028D-04 -0.77876901D-04 -0.12526193D-03 -0.28499159D-13  0.25903885D-13
  0.19248230D-03 -0.87166531D-03 -0.19204641D-14  0.10472752D-02  0.66192522D-03
 -0.22688344D-13 -0.16247221D-02  0.19530707D-02  0.28449736D-13 -0.32079530D-13
 -0.58125716D-03  0.11891029D-03 -0.53737948D-14  0.26828579D-03 -0.75078579D-04
  0.18607684D-13  0.14754857D-02 -0.28165230D-03 -0.24862999D-14  0.21043479D-14
 -0.13451423D+00 -0.25076511D+00 -0.42383721D+00 -0.63716616D+00 -0.78283224D+00
 -0.66122697D+00 -0.24939049D+00  0.12342474D-02  0.15507923D-02  0.29035724D-02
  0.49435805D-02  0.76469674D-02  0.10070787D-01  0.10464193D-01  0.66495248D-02
 -0.44563569D-02 -0.15361270D-01  0.10073292D-01  0.76593169D-03 -0.79947734D-03
 -0.74956083D-03 -0.53373196D-03 -0.70988811D-04 -0.66556523D-04 -0.47392209D-04
  0.15162757D-13  0.14216049D-13  0.10122674D-13  0.30707242D-03  0.34947751D-02
 -0.60913293D-13  0.40239028D-03  0.18114135D-02 -0.27343607D-12  0.18439323D-04
  0.59970936D-04  0.89768266D-15 -0.98074991D-03  0.20865660D-02 -0.11058160D-02
 -0.92807380D-03 -0.14401372D-13  0.28090273D-14  0.10404107D-02 -0.71286069D-03
 -0.32754999D-03  0.57320049D-03  0.80527595D-13  0.89413099D-13  0.54328684D-05
  0.72444028D-04 -0.77876896D-04  0.12526193D-03  0.13968676D-12  0.99264540D-13
 -0.19248227D-03 -0.87166527D-03 -0.42614870D-14 -0.10472752D-02  0.66192516D-03
 -0.10970377D-13  0.16247220D-02  0.19530706D-02  0.23754838D-13  0.18554485D-13
  0.58125715D-03  0.11891028D-03 -0.12298149D-13 -0.26828582D-03 -0.75078583D-04
  0.22191863D-13 -0.14754856D-02 -0.28165225D-03  0.14702584D-13  0.32293618D-14
  0.71009457D-04  0.12806848D-03  0.18883690D-03  0.42282908D-02  0.81257168D-03
 -0.67326406D-04 -0.31779568D-11  0.10172220D-02  0.17497294D-02  0.20600526D-10
  0.15944513D-02  0.18954789D-02  0.19918709D-11  0.13426088D-03 -0.89090772D-04
  0.18463344D-02  0.91387816D-04 -0.19377222D-02 -0.25021138D-10 -0.14450629D-10
 -0.44233231D-02  0.47144654D-03 -0.18573599D-03 -0.28571056D-03 -0.68449049D-11
  0.88051021D-12 -0.54702153D-03  0.71009457D-04  0.12806848D-03  0.18883690D-03
  0.42282908D-02  0.81257168D-03 -0.67326406D-04 -0.31853997D-11  0.10172220D-02
 -0.17497294D-02  0.20615204D-10  0.15944513D-02 -0.18954789D-02  0.19941842D-11
  0.13426088D-03  0.89090772D-04  0.18463344D-02  0.91387816D-04 -0.19377222D-02
 -0.25035966D-10  0.14437904D-10  0.44233231D-02  0.47144654D-03 -0.18573599D-03
 -0.28571056D-03 -0.68378814D-11 -0.86962832D-12  0.54702153D-03 -0.35003236D-04
 -0.63129777D-04 -0.93084820D-04 -0.21162449D-02 -0.40888433D-03  0.33637108D-04
 -0.36383086D-03  0.38556487D-03  0.87273124D-03 -0.11791585D-02 -0.45800542D-03
  0.94407174D-03 -0.10507549D-03 -0.49401383D-04 -0.44671170D-04  0.25359291D-03
 -0.12204782D-02  0.96688528D-03 -0.15776119D-03 -0.22531302D-02  0.50242467D-03
  0.15214127D-03 -0.29498409D-03  0.14284282D-03 -0.12010413D-03 -0.21510471D-03
  0.17258196D-03 -0.35003236D-04 -0.63129777D-04 -0.93084820D-04 -0.21162449D-02
 -0.40888433D-03  0.33637108D-04 -0.36383086D-03  0.38556487D-03 -0.87273124D-03
 -0.11791585D-02 -0.45800542D-03 -0.94407174D-03 -0.10507549D-03 -0.49401383D-04
  0.44671170D-04  0.25359291D-03 -0.12204782D-02  0.96688528D-03 -0.15776119D-03
  0.22531302D-02 -0.50242467D-03  0.15214127D-03 -0.29498409D-03  0.14284282D-03
 -0.12010413D-03  0.21510471D-03 -0.17258196D-03 -0.35003234D-04 -0.63129773D-04
 -0.93084814D-04 -0.21162447D-02 -0.40888430D-03  0.33637106D-04  0.36383083D-03
  0.38556485D-03 -0.87273118D-03  0.11791584D-02 -0.45800547D-03 -0.94407168D-03
  0.10507549D-03 -0.49401387D-04  0.44671167D-04  0.25359294D-03 -0.12204782D-02
  0.96688522D-03  0.15776113D-03 -0.22531301D-02 -0.50242459D-03  0.15214127D-03
 -0.29498409D-03  0.14284281D-03  0.12010411D-03 -0.21510470D-03 -0.17258195D-03
 -0.35003234D-04 -0.63129773D-04 -0.93084814D-04 -0.21162447D-02 -0.40888431D-03
  0.33637106D-04  0.36383083D-03  0.38556485D-03  0.87273118D-03  0.11791584D-02
 -0.45800547D-03  0.94407168D-03  0.10507549D-03 -0.49401387D-04 -0.44671167D-04
  0.25359294D-03 -0.12204782D-02  0.96688522D-03  0.15776113D-03  0.22531301D-02
  0.50242459D-03  0.15214127D-03 -0.29498409D-03  0.14284281D-03  0.12010411D-03
  0.21510470D-03  0.17258195D-03
MO    4     MO 0.0        OCC NO =    2.0000000  ORB. ENERGY =   -0.777291
 -0.83046195D-02 -0.15481699D-01 -0.26166798D-01 -0.39337269D-01 -0.48330380D-01
 -0.40822732D-01 -0.15396833D-01  0.76199784D-04 -0.31695152D-01 -0.59343325D-01
 -0.10103709D+00 -0.15628901D+00 -0.20582713D+00 -0.21386757D+00 -0.13590324D+00
  0.91079192D-01  0.38739757D-01  0.25311201D-01  0.66788082D-03 -0.95372565D-14
 -0.89417842D-14 -0.63670830D-14 -0.15467722D+00 -0.14501972D+00 -0.10326268D+00
 -0.63538082D-13 -0.59570991D-13 -0.42418094D-13 -0.14026750D-12 -0.24085446D-01
  0.31877008D-12  0.71522658D-13  0.64649963D-03  0.19776134D-11 -0.84341077D-13