 Molden2AIM, Version 4.0.0 (06/02/2016)           Time: Fri Jun 29 01:08:34 2018
GAUSSIAN             25 MOL ORBITALS    755 PRIMITIVES       17 NUCLEI
  Si   1    (CENTRE  1)   0.00000000  0.00000000  0.00000000  CHARGE = 14.0
  C    2    (CENTRE  2)   2.06033060  2.06033060  2.06033060  CHARGE =  6.0
  H    3    (CENTRE  3)   3.28519249  3.28519249  0.91266969  CHARGE =  1.0
  H    4    (CENTRE  4)   3.28519249  0.91266969  3.28519249  CHARGE =  1.0
  H    5    (CENTRE  5)   0.91266969  3.28519249  3.28519249  CHARGE =  1.0
  C    6    (CENTRE  6)  -2.06033060 -2.06033060  2.06033060  CHARGE =  6.0
  H    7    (CENTRE  7)  -3.28519249 -0.91266969  3.28519249  CHARGE =  1.0
  H    8    (CENTRE  8)  -3.28519249 -3.28519249  0.91266969  CHARGE =  1.0
  H    9    (CENTRE  9)  -0.91266969 -3.28519249  3.28519249  CHARGE =  1.0
  C   10    (CENTRE 10)   2.06033060 -2.06033060 -2.06033060  CHARGE =  6.0
  H   11    (CENTRE 11)   0.91266969 -3.28519249 -3.28519249  CHARGE =  1.0
  H   12    (CENTRE 12)   3.28519249 -0.91266969 -3.28519249  CHARGE =  1.0
  H   13    (CENTRE 13)   3.28519249 -3.28519249 -0.91266969  CHARGE =  1.0
  C   14    (CENTRE 14)  -2.06033060  2.06033060 -2.06033060  CHARGE =  6.0
  H   15    (CENTRE 15)  -3.28519249  0.91266969 -3.28519249  CHARGE =  1.0
  H   16    (CENTRE 16)  -3.28519249  3.28519249 -0.91266969  CHARGE =  1.0
  H   17    (CENTRE 17)  -0.91266969  3.28519249 -3.28519249  CHARGE =  1.0
CENTRE ASSIGNMENTS    1  1  1  1  1  1  1  1  1  1  1  1  1  1  1  1  1  1  1  1
CENTRE ASSIGNMENTS    1  1  1  1  1  1  1  1  1  1  1  1  1  1  1  1  1  1  1  1
CENTRE ASSIGNMENTS    1  1  1  1  1  1  1  1  1  1  1  1  1  1  1  1  1  1  1  1
CENTRE ASSIGNMENTS    1  1  1  1  1  1  1  1  1  1  1  1  1  1  1  1  1  1  1  1
CENTRE ASSIGNMENTS    1  1  1  1  1  1  1  1  1  1  1  1  1  1  1  1  1  1  1  1
CENTRE ASSIGNMENTS    1  1  1  1  1  1  1  1  1  1  1  1  1  1  1  1  1  1  1  1
CENTRE ASSIGNMENTS    1  1  1  1  1  1  1  1  1  1  1  2  2  2  2  2  2  2  2  2
CENTRE ASSIGNMENTS    2  2  2  2  2  2  2  2  2  2  2  2  2  2  2  2  2  2  2  2
CENTRE ASSIGNMENTS    2  2  2  2  2  2  2  2  2  2  2  2  2  2  2  2  2  2  2  2
CENTRE ASSIGNMENTS    2  2  2  2  2  2  2  2  2  2  2  2  2  2  2  2  2  2  2  2
CENTRE ASSIGNMENTS    2  2  2  2  2  2  3  3  3  3  3  3  3  3  3  3  3  3  3  3
CENTRE ASSIGNMENTS    3  3  3  3  3  3  3  3  3  3  3  3  3  4  4  4  4  4  4  4
CENTRE ASSIGNMENTS    4  4  4  4  4  4  4  4  4  4  4  4  4  4  4  4  4  4  4  4
CENTRE ASSIGNMENTS    5  5  5  5  5  5  5  5  5  5  5  5  5  5  5  5  5  5  5  5
CENTRE ASSIGNMENTS    5  5  5  5  5  5  5  6  6  6  6  6  6  6  6  6  6  6  6  6
CENTRE ASSIGNMENTS    6  6  6  6  6  6  6  6  6  6  6  6  6  6  6  6  6  6  6  6
CENTRE ASSIGNMENTS    6  6  6  6  6  6  6  6  6  6  6  6  6  6  6  6  6  6  6  6
CENTRE ASSIGNMENTS    6  6  6  6  6  6  6  6  6  6  6  6  6  6  6  6  6  6  6  6
CENTRE ASSIGNMENTS    6  6  7  7  7  7  7  7  7  7  7  7  7  7  7  7  7  7  7  7
CENTRE ASSIGNMENTS    7  7  7  7  7  7  7  7  7  8  8  8  8  8  8  8  8  8  8  8
CENTRE ASSIGNMENTS    8  8  8  8  8  8  8  8  8  8  8  8  8  8  8  8  9  9  9  9
CENTRE ASSIGNMENTS    9  9  9  9  9  9  9  9  9  9  9  9  9  9  9  9  9  9  9  9
CENTRE ASSIGNMENTS    9  9  9 10 10 10 10 10 10 10 10 10 10 10 10 10 10 10 10 10
CENTRE ASSIGNMENTS   10 10 10 10 10 10 10 10 10 10 10 10 10 10 10 10 10 10 10 10
CENTRE ASSIGNMENTS   10 10 10 10 10 10 10 10 10 10 10 10 10 10 10 10 10 10 10 10
CENTRE ASSIGNMENTS   10 10 10 10 10 10 10 10 10 10 10 10 10 10 10 10 10 10 11 11
CENTRE ASSIGNMENTS   11 11 11 11 11 11 11 11 11 11 11 11 11 11 11 11 11 11 11 11
CENTRE ASSIGNMENTS   11 11 11 11 11 12 12 12 12 12 12 12 12 12 12 12 12 12 12 12
CENTRE ASSIGNMENTS   12 12 12 12 12 12 12 12 12 12 12 12 13 13 13 13 13 13 13 13
CENTRE ASSIGNMENTS   13 13 13 13 13 13 13 13 13 13 13 13 13 13 13 13 13 13 13 14
CENTRE ASSIGNMENTS   14 14 14 14 14 14 14 14 14 14 14 14 14 14 14 14 14 14 14 14
CENTRE ASSIGNMENTS   14 14 14 14 14 14 14 14 14 14 14 14 14 14 14 14 14 14 14 14
CENTRE ASSIGNMENTS   14 14 14 14 14 14 14 14 14 14 14 14 14 14 14 14 14 14 14 14
CENTRE ASSIGNMENTS   14 14 14 14 14 14 14 14 14 14 14 14 14 14 15 15 15 15 15 15
CENTRE ASSIGNMENTS   15 15 15 15 15 15 15 15 15 15 15 15 15 15 15 15 15 15 15 15
CENTRE ASSIGNMENTS   15 16 16 16 16 16 16 16 16 16 16 16 16 16 16 16 16 16 16 16
CENTRE ASSIGNMENTS   16 16 16 16 16 16 16 16 17 17 17 17 17 17 17 17 17 17 17 17
CENTRE ASSIGNMENTS   17 17 17 17 17 17 17 17 17 17 17 17 17 17 17
TYPE ASSIGNMENTS      1  1  1  1  1  1  1  1  1  1  1  1  1  1  1  1  1  1  1  1
TYPE ASSIGNMENTS      1  1  1  1  1  1  1  1  1  1  1  1  1  1  1  1  1  1  1  1
TYPE ASSIGNMENTS      1  1  2  2  2  2  2  2  2  3  3  3  3  3  3  3  4  4  4  4
TYPE ASSIGNMENTS      4  4  4  2  2  2  2  2  2  2  3  3  3  3  3  3  3  4  4  4
TYPE ASSIGNMENTS      4  4  4  4  2  3  4  2  3  4  2  3  4  5  6  7  8  9 10  5
TYPE ASSIGNMENTS      6  7  8  9 10  5  6  7  8  9 10 11 12 13 17 14 15 18 19 16
TYPE ASSIGNMENTS     20 11 12 13 17 14 15 18 19 16 20  1  1  1  1  1  1  1  1  1
TYPE ASSIGNMENTS      1  1  1  1  1  1  1  1  1  1  2  2  2  3  3  3  4  4  4  2
TYPE ASSIGNMENTS      3  4  2  3  4  2  3  4  5  6  7  8  9 10  5  6  7  8  9 10
TYPE ASSIGNMENTS      5  6  7  8  9 10 11 12 13 17 14 15 18 19 16 20 11 12 13 17
TYPE ASSIGNMENTS     14 15 18 19 16 20  1  1  1  1  1  1  2  3  4  2  3  4  2  3
TYPE ASSIGNMENTS      4  5  6  7  8  9 10  5  6  7  8  9 10  1  1  1  1  1  1  2
TYPE ASSIGNMENTS      3  4  2  3  4  2  3  4  5  6  7  8  9 10  5  6  7  8  9 10
TYPE ASSIGNMENTS      1  1  1  1  1  1  2  3  4  2  3  4  2  3  4  5  6  7  8  9
TYPE ASSIGNMENTS     10  5  6  7  8  9 10  1  1  1  1  1  1  1  1  1  1  1  1  1
TYPE ASSIGNMENTS      1  1  1  1  1  1  2  2  2  3  3  3  4  4  4  2  3  4  2  3
TYPE ASSIGNMENTS      4  2  3  4  5  6  7  8  9 10  5  6  7  8  9 10  5  6  7  8
TYPE ASSIGNMENTS      9 10 11 12 13 17 14 15 18 19 16 20 11 12 13 17 14 15 18 19
TYPE ASSIGNMENTS     16 20  1  1  1  1  1  1  2  3  4  2  3  4  2  3  4  5  6  7
TYPE ASSIGNMENTS      8  9 10  5  6  7  8  9 10  1  1  1  1  1  1  2  3  4  2  3
TYPE ASSIGNMENTS      4  2  3  4  5  6  7  8  9 10  5  6  7  8  9 10  1  1  1  1
TYPE ASSIGNMENTS      1  1  2  3  4  2  3  4  2  3  4  5  6  7  8  9 10  5  6  7
TYPE ASSIGNMENTS      8  9 10  1  1  1  1  1  1  1  1  1  1  1  1  1  1  1  1  1
TYPE ASSIGNMENTS      1  1  2  2  2  3  3  3  4  4  4  2  3  4  2  3  4  2  3  4
TYPE ASSIGNMENTS      5  6  7  8  9 10  5  6  7  8  9 10  5  6  7  8  9 10 11 12
TYPE ASSIGNMENTS     13 17 14 15 18 19 16 20 11 12 13 17 14 15 18 19 16 20  1  1
TYPE ASSIGNMENTS      1  1  1  1  2  3  4  2  3  4  2  3  4  5  6  7  8  9 10  5
TYPE ASSIGNMENTS      6  7  8  9 10  1  1  1  1  1  1  2  3  4  2  3  4  2  3  4
TYPE ASSIGNMENTS      5  6  7  8  9 10  5  6  7  8  9 10  1  1  1  1  1  1  2  3
TYPE ASSIGNMENTS      4  2  3  4  2  3  4  5  6  7  8  9 10  5  6  7  8  9 10  1
TYPE ASSIGNMENTS      1  1  1  1  1  1  1  1  1  1  1  1  1  1  1  1  1  1  2  2
TYPE ASSIGNMENTS      2  3  3  3  4  4  4  2  3  4  2  3  4  2  3  4  5  6  7  8
TYPE ASSIGNMENTS      9 10  5  6  7  8  9 10  5  6  7  8  9 10 11 12 13 17 14 15
TYPE ASSIGNMENTS     18 19 16 20 11 12 13 17 14 15 18 19 16 20  1  1  1  1  1  1
TYPE ASSIGNMENTS      2  3  4  2  3  4  2  3  4  5  6  7  8  9 10  5  6  7  8  9
TYPE ASSIGNMENTS     10  1  1  1  1  1  1  2  3  4  2  3  4  2  3  4  5  6  7  8
TYPE ASSIGNMENTS      9 10  5  6  7  8  9 10  1  1  1  1  1  1  2  3  4  2  3  4
TYPE ASSIGNMENTS      2  3  4  5  6  7  8  9 10  5  6  7  8  9 10
EXPONENTS  0.2549000D+06 0.3819000D+05 0.8690000D+04 0.2462000D+04 0.8048000D+03
EXPONENTS  0.2913000D+03 0.1136000D+03 0.4675000D+02 0.1982000D+02 0.7708000D+01
EXPONENTS  0.3340000D+01 0.1402000D+01 0.2070000D+00 0.2549000D+06 0.3819000D+05
EXPONENTS  0.8690000D+04 0.2462000D+04 0.8048000D+03 0.2913000D+03 0.1136000D+03
EXPONENTS  0.4675000D+02 0.1982000D+02 0.7708000D+01 0.3340000D+01 0.1402000D+01
EXPONENTS  0.2070000D+00 0.2549000D+06 0.3819000D+05 0.8690000D+04 0.2462000D+04
EXPONENTS  0.8048000D+03 0.2913000D+03 0.1136000D+03 0.4675000D+02 0.1982000D+02
EXPONENTS  0.7708000D+01 0.3340000D+01 0.1402000D+01 0.2070000D+00 0.4387000D+00
EXPONENTS  0.7944000D-01 0.3300000D-01 0.4815000D+03 0.1139000D+03 0.3623000D+02
EXPONENTS  0.1334000D+02 0.5252000D+01 0.2120000D+01 0.2528000D+00 0.4815000D+03
EXPONENTS  0.1139000D+03 0.3623000D+02 0.1334000D+02 0.5252000D+01 0.2120000D+01
EXPONENTS  0.2528000D+00 0.4815000D+03 0.1139000D+03 0.3623000D+02 0.1334000D+02
EXPONENTS  0.5252000D+01 0.2120000D+01 0.2528000D+00 0.4815000D+03 0.1139000D+03
EXPONENTS  0.3623000D+02 0.1334000D+02 0.5252000D+01 0.2120000D+01 0.2528000D+00
EXPONENTS  0.4815000D+03 0.1139000D+03 0.3623000D+02 0.1334000D+02 0.5252000D+01
EXPONENTS  0.2120000D+01 0.2528000D+00 0.4815000D+03 0.1139000D+03 0.3623000D+02
EXPONENTS  0.1334000D+02 0.5252000D+01 0.2120000D+01 0.2528000D+00 0.8561000D+00
EXPONENTS  0.8561000D+00 0.8561000D+00 0.7889000D-01 0.7889000D-01 0.7889000D-01
EXPONENTS  0.2370000D-01 0.2370000D-01 0.2370000D-01 0.1590000D+00 0.1590000D+00
EXPONENTS  0.1590000D+00 0.1590000D+00 0.1590000D+00 0.1590000D+00 0.4810000D+00
EXPONENTS  0.4810000D+00 0.4810000D+00 0.4810000D+00 0.4810000D+00 0.4810000D+00
EXPONENTS  0.5560000D-01 0.5560000D-01 0.5560000D-01 0.5560000D-01 0.5560000D-01
EXPONENTS  0.5560000D-01 0.3360000D+00 0.3360000D+00 0.3360000D+00 0.3360000D+00
EXPONENTS  0.3360000D+00 0.3360000D+00 0.3360000D+00 0.3360000D+00 0.3360000D+00
EXPONENTS  0.3360000D+00 0.1250000D+00 0.1250000D+00 0.1250000D+00 0.1250000D+00
EXPONENTS  0.1250000D+00 0.1250000D+00 0.1250000D+00 0.1250000D+00 0.1250000D+00
EXPONENTS  0.1250000D+00 0.8236000D+04 0.1235000D+04 0.2808000D+03 0.7927000D+02
EXPONENTS  0.2559000D+02 0.8997000D+01 0.3319000D+01 0.3643000D+00 0.8236000D+04
EXPONENTS  0.1235000D+04 0.2808000D+03 0.7927000D+02 0.2559000D+02 0.8997000D+01
EXPONENTS  0.3319000D+01 0.3643000D+00 0.9059000D+00 0.1285000D+00 0.4402000D-01
EXPONENTS  0.1871000D+02 0.4133000D+01 0.1200000D+01 0.1871000D+02 0.4133000D+01
EXPONENTS  0.1200000D+01 0.1871000D+02 0.4133000D+01 0.1200000D+01 0.3827000D+00
EXPONENTS  0.3827000D+00 0.3827000D+00 0.1209000D+00 0.1209000D+00 0.1209000D+00
EXPONENTS  0.3569000D-01 0.3569000D-01 0.3569000D-01 0.1097000D+01 0.1097000D+01
EXPONENTS  0.1097000D+01 0.1097000D+01 0.1097000D+01 0.1097000D+01 0.3180000D+00
EXPONENTS  0.3180000D+00 0.3180000D+00 0.3180000D+00 0.3180000D+00 0.3180000D+00
EXPONENTS  0.1000000D+00 0.1000000D+00 0.1000000D+00 0.1000000D+00 0.1000000D+00
EXPONENTS  0.1000000D+00 0.7610000D+00 0.7610000D+00 0.7610000D+00 0.7610000D+00
EXPONENTS  0.7610000D+00 0.7610000D+00 0.7610000D+00 0.7610000D+00 0.7610000D+00
EXPONENTS  0.7610000D+00 0.2680000D+00 0.2680000D+00 0.2680000D+00 0.2680000D+00
EXPONENTS  0.2680000D+00 0.2680000D+00 0.2680000D+00 0.2680000D+00 0.2680000D+00
EXPONENTS  0.2680000D+00 0.3387000D+02 0.5095000D+01 0.1159000D+01 0.3258000D+00
EXPONENTS  0.1027000D+00 0.2526000D-01 0.1407000D+01 0.1407000D+01 0.1407000D+01
EXPONENTS  0.3880000D+00 0.3880000D+00 0.3880000D+00 0.1020000D+00 0.1020000D+00
EXPONENTS  0.1020000D+00 0.1057000D+01 0.1057000D+01 0.1057000D+01 0.1057000D+01
EXPONENTS  0.1057000D+01 0.1057000D+01 0.2470000D+00 0.2470000D+00 0.2470000D+00
EXPONENTS  0.2470000D+00 0.2470000D+00 0.2470000D+00 0.3387000D+02 0.5095000D+01
EXPONENTS  0.1159000D+01 0.3258000D+00 0.1027000D+00 0.2526000D-01 0.1407000D+01
EXPONENTS  0.1407000D+01 0.1407000D+01 0.3880000D+00 0.3880000D+00 0.3880000D+00
EXPONENTS  0.1020000D+00 0.1020000D+00 0.1020000D+00 0.1057000D+01 0.1057000D+01
EXPONENTS  0.1057000D+01 0.1057000D+01 0.1057000D+01 0.1057000D+01 0.2470000D+00
EXPONENTS  0.2470000D+00 0.2470000D+00 0.2470000D+00 0.2470000D+00 0.2470000D+00
EXPONENTS  0.3387000D+02 0.5095000D+01 0.1159000D+01 0.3258000D+00 0.1027000D+00
EXPONENTS  0.2526000D-01 0.1407000D+01 0.1407000D+01 0.1407000D+01 0.3880000D+00
EXPONENTS  0.3880000D+00 0.3880000D+00 0.1020000D+00 0.1020000D+00 0.1020000D+00
EXPONENTS  0.1057000D+01 0.1057000D+01 0.1057000D+01 0.1057000D+01 0.1057000D+01
EXPONENTS  0.1057000D+01 0.2470000D+00 0.2470000D+00 0.2470000D+00 0.2470000D+00
EXPONENTS  0.2470000D+00 0.2470000D+00 0.8236000D+04 0.1235000D+04 0.2808000D+03
EXPONENTS  0.7927000D+02 0.2559000D+02 0.8997000D+01 0.3319000D+01 0.3643000D+00
EXPONENTS  0.8236000D+04 0.1235000D+04 0.2808000D+03 0.7927000D+02 0.2559000D+02
EXPONENTS  0.8997000D+01 0.3319000D+01 0.3643000D+00 0.9059000D+00 0.1285000D+00
EXPONENTS  0.4402000D-01 0.1871000D+02 0.4133000D+01 0.1200000D+01 0.1871000D+02
EXPONENTS  0.4133000D+01 0.1200000D+01 0.1871000D+02 0.4133000D+01 0.1200000D+01
EXPONENTS  0.3827000D+00 0.3827000D+00 0.3827000D+00 0.1209000D+00 0.1209000D+00
EXPONENTS  0.1209000D+00 0.3569000D-01 0.3569000D-01 0.3569000D-01 0.1097000D+01
EXPONENTS  0.1097000D+01 0.1097000D+01 0.1097000D+01 0.1097000D+01 0.1097000D+01
EXPONENTS  0.3180000D+00 0.3180000D+00 0.3180000D+00 0.3180000D+00 0.3180000D+00
EXPONENTS  0.3180000D+00 0.1000000D+00 0.1000000D+00 0.1000000D+00 0.1000000D+00
EXPONENTS  0.1000000D+00 0.1000000D+00 0.7610000D+00 0.7610000D+00 0.7610000D+00
EXPONENTS  0.7610000D+00 0.7610000D+00 0.7610000D+00 0.7610000D+00 0.7610000D+00
EXPONENTS  0.7610000D+00 0.7610000D+00 0.2680000D+00 0.2680000D+00 0.2680000D+00
EXPONENTS  0.2680000D+00 0.2680000D+00 0.2680000D+00 0.2680000D+00 0.2680000D+00
EXPONENTS  0.2680000D+00 0.2680000D+00 0.3387000D+02 0.5095000D+01 0.1159000D+01
EXPONENTS  0.3258000D+00 0.1027000D+00 0.2526000D-01 0.1407000D+01 0.1407000D+01
EXPONENTS  0.1407000D+01 0.3880000D+00 0.3880000D+00 0.3880000D+00 0.1020000D+00
EXPONENTS  0.1020000D+00 0.1020000D+00 0.1057000D+01 0.1057000D+01 0.1057000D+01
EXPONENTS  0.1057000D+01 0.1057000D+01 0.1057000D+01 0.2470000D+00 0.2470000D+00
EXPONENTS  0.2470000D+00 0.2470000D+00 0.2470000D+00 0.2470000D+00 0.3387000D+02
EXPONENTS  0.5095000D+01 0.1159000D+01 0.3258000D+00 0.1027000D+00 0.2526000D-01
EXPONENTS  0.1407000D+01 0.1407000D+01 0.1407000D+01 0.3880000D+00 0.3880000D+00
EXPONENTS  0.3880000D+00 0.1020000D+00 0.1020000D+00 0.1020000D+00 0.1057000D+01
EXPONENTS  0.1057000D+01 0.1057000D+01 0.1057000D+01 0.1057000D+01 0.1057000D+01
EXPONENTS  0.2470000D+00 0.2470000D+00 0.2470000D+00 0.2470000D+00 0.2470000D+00
EXPONENTS  0.2470000D+00 0.3387000D+02 0.5095000D+01 0.1159000D+01 0.3258000D+00
EXPONENTS  0.1027000D+00 0.2526000D-01 0.1407000D+01 0.1407000D+01 0.1407000D+01
EXPONENTS  0.3880000D+00 0.3880000D+00 0.3880000D+00 0.1020000D+00 0.1020000D+00
EXPONENTS  0.1020000D+00 0.1057000D+01 0.1057000D+01 0.1057000D+01 0.1057000D+01
EXPONENTS  0.1057000D+01 0.1057000D+01 0.2470000D+00 0.2470000D+00 0.2470000D+00
EXPONENTS  0.2470000D+00 0.2470000D+00 0.2470000D+00 0.8236000D+04 0.1235000D+04
EXPONENTS  0.2808000D+03 0.7927000D+02 0.2559000D+02 0.8997000D+01 0.3319000D+01
EXPONENTS  0.3643000D+00 0.8236000D+04 0.1235000D+04 0.2808000D+03 0.7927000D+02
EXPONENTS  0.2559000D+02 0.8997000D+01 0.3319000D+01 0.3643000D+00 0.9059000D+00
EXPONENTS  0.1285000D+00 0.4402000D-01 0.1871000D+02 0.4133000D+01 0.1200000D+01
EXPONENTS  0.1871000D+02 0.4133000D+01 0.1200000D+01 0.1871000D+02 0.4133000D+01
EXPONENTS  0.1200000D+01 0.3827000D+00 0.3827000D+00 0.3827000D+00 0.1209000D+00
EXPONENTS  0.1209000D+00 0.1209000D+00 0.3569000D-01 0.3569000D-01 0.3569000D-01
EXPONENTS  0.1097000D+01 0.1097000D+01 0.1097000D+01 0.1097000D+01 0.1097000D+01
EXPONENTS  0.1097000D+01 0.3180000D+00 0.3180000D+00 0.3180000D+00 0.3180000D+00
EXPONENTS  0.3180000D+00 0.3180000D+00 0.1000000D+00 0.1000000D+00 0.1000000D+00
EXPONENTS  0.1000000D+00 0.1000000D+00 0.1000000D+00 0.7610000D+00 0.7610000D+00
EXPONENTS  0.7610000D+00 0.7610000D+00 0.7610000D+00 0.7610000D+00 0.7610000D+00
EXPONENTS  0.7610000D+00 0.7610000D+00 0.7610000D+00 0.2680000D+00 0.2680000D+00
EXPONENTS  0.2680000D+00 0.2680000D+00 0.2680000D+00 0.2680000D+00 0.2680000D+00
EXPONENTS  0.2680000D+00 0.2680000D+00 0.2680000D+00 0.3387000D+02 0.5095000D+01
EXPONENTS  0.1159000D+01 0.3258000D+00 0.1027000D+00 0.2526000D-01 0.1407000D+01
EXPONENTS  0.1407000D+01 0.1407000D+01 0.3880000D+00 0.3880000D+00 0.3880000D+00
EXPONENTS  0.1020000D+00 0.1020000D+00 0.1020000D+00 0.1057000D+01 0.1057000D+01
EXPONENTS  0.1057000D+01 0.1057000D+01 0.1057000D+01 0.1057000D+01 0.2470000D+00
EXPONENTS  0.2470000D+00 0.2470000D+00 0.2470000D+00 0.2470000D+00 0.2470000D+00
EXPONENTS  0.3387000D+02 0.5095000D+01 0.1159000D+01 0.3258000D+00 0.1027000D+00
EXPONENTS  0.2526000D-01 0.1407000D+01 0.1407000D+01 0.1407000D+01 0.3880000D+00
EXPONENTS  0.3880000D+00 0.3880000D+00 0.1020000D+00 0.1020000D+00 0.1020000D+00
EXPONENTS  0.1057000D+01 0.1057000D+01 0.1057000D+01 0.1057000D+01 0.1057000D+01
EXPONENTS  0.1057000D+01 0.2470000D+00 0.2470000D+00 0.2470000D+00 0.2470000D+00
EXPONENTS  0.2470000D+00 0.2470000D+00 0.3387000D+02 0.5095000D+01 0.1159000D+01
EXPONENTS  0.3258000D+00 0.1027000D+00 0.2526000D-01 0.1407000D+01 0.1407000D+01
EXPONENTS  0.1407000D+01 0.3880000D+00 0.3880000D+00 0.3880000D+00 0.1020000D+00
EXPONENTS  0.1020000D+00 0.1020000D+00 0.1057000D+01 0.1057000D+01 0.1057000D+01
EXPONENTS  0.1057000D+01 0.1057000D+01 0.1057000D+01 0.2470000D+00 0.2470000D+00
EXPONENTS  0.2470000D+00 0.2470000D+00 0.2470000D+00 0.2470000D+00 0.8236000D+04
EXPONENTS  0.1235000D+04 0.2808000D+03 0.7927000D+02 0.2559000D+02 0.8997000D+01
EXPONENTS  0.3319000D+01 0.3643000D+00 0.8236000D+04 0.1235000D+04 0.2808000D+03
EXPONENTS  0.7927000D+02 0.2559000D+02 0.8997000D+01 0.3319000D+01 0.3643000D+00
EXPONENTS  0.9059000D+00 0.1285000D+00 0.4402000D-01 0.1871000D+02 0.4133000D+01
EXPONENTS  0.1200000D+01 0.1871000D+02 0.4133000D+01 0.1200000D+01 0.1871000D+02
EXPONENTS  0.4133000D+01 0.1200000D+01 0.3827000D+00 0.3827000D+00 0.3827000D+00
EXPONENTS  0.1209000D+00 0.1209000D+00 0.1209000D+00 0.3569000D-01 0.3569000D-01
EXPONENTS  0.3569000D-01 0.1097000D+01 0.1097000D+01 0.1097000D+01 0.1097000D+01
EXPONENTS  0.1097000D+01 0.1097000D+01 0.3180000D+00 0.3180000D+00 0.3180000D+00
EXPONENTS  0.3180000D+00 0.3180000D+00 0.3180000D+00 0.1000000D+00 0.1000000D+00
EXPONENTS  0.1000000D+00 0.1000000D+00 0.1000000D+00 0.1000000D+00 0.7610000D+00
EXPONENTS  0.7610000D+00 0.7610000D+00 0.7610000D+00 0.7610000D+00 0.7610000D+00
EXPONENTS  0.7610000D+00 0.7610000D+00 0.7610000D+00 0.7610000D+00 0.2680000D+00
EXPONENTS  0.2680000D+00 0.2680000D+00 0.2680000D+00 0.2680000D+00 0.2680000D+00
EXPONENTS  0.2680000D+00 0.2680000D+00 0.2680000D+00 0.2680000D+00 0.3387000D+02
EXPONENTS  0.5095000D+01 0.1159000D+01 0.3258000D+00 0.1027000D+00 0.2526000D-01
EXPONENTS  0.1407000D+01 0.1407000D+01 0.1407000D+01 0.3880000D+00 0.3880000D+00
EXPONENTS  0.3880000D+00 0.1020000D+00 0.1020000D+00 0.1020000D+00 0.1057000D+01
EXPONENTS  0.1057000D+01 0.1057000D+01 0.1057000D+01 0.1057000D+01 0.1057000D+01
EXPONENTS  0.2470000D+00 0.2470000D+00 0.2470000D+00 0.2470000D+00 0.2470000D+00
EXPONENTS  0.2470000D+00 0.3387000D+02 0.5095000D+01 0.1159000D+01 0.3258000D+00
EXPONENTS  0.1027000D+00 0.2526000D-01 0.1407000D+01 0.1407000D+01 0.1407000D+01
EXPONENTS  0.3880000D+00 0.3880000D+00 0.3880000D+00 0.1020000D+00 0.1020000D+00
EXPONENTS  0.1020000D+00 0.1057000D+01 0.1057000D+01 0.1057000D+01 0.1057000D+01
EXPONENTS  0.1057000D+01 0.1057000D+01 0.2470000D+00 0.2470000D+00 0.2470000D+00
EXPONENTS  0.2470000D+00 0.2470000D+00 0.2470000D+00 0.3387000D+02 0.5095000D+01
EXPONENTS  0.1159000D+01 0.3258000D+00 0.1027000D+00 0.2526000D-01 0.1407000D+01
EXPONENTS  0.1407000D+01 0.1407000D+01 0.3880000D+00 0.3880000D+00 0.3880000D+00
EXPONENTS  0.1020000D+00 0.1020000D+00 0.1020000D+00 0.1057000D+01 0.1057000D+01
EXPONENTS  0.1057000D+01 0.1057000D+01 0.1057000D+01 0.1057000D+01 0.2470000D+00
EXPONENTS  0.2470000D+00 0.2470000D+00 0.2470000D+00 0.2470000D+00 0.2470000D+00
MO    1     MO 0.0        OCC NO =    2.0000000  ORB. ENERGY =  -65.395975
  0.50739297D+00  0.94910827D+00  0.16390673D+01  0.26475210D+01  0.39871121D+01
  0.54224537D+01  0.61729138D+01  0.50009067D+01  0.20299668D+01  0.18510505D+00
 -0.71136283D-02  0.23787461D-02  0.13348984D-03 -0.38662501D-02 -0.72365556D-02
 -0.12515901D-01 -0.20342335D-01 -0.31123607D-01 -0.44166549D-01 -0.55403267D-01
 -0.56488431D-01 -0.34707615D-01  0.75642407D-02  0.27706695D-01  0.12672067D-01
 -0.67264024D-04  0.21060728D-02  0.39390913D-02  0.68214389D-02  0.11075611D-01
  0.17000838D-01  0.24148932D-01  0.30636751D-01  0.31717315D-01  0.20429805D-01
 -0.50248169D-02 -0.20482700D-01 -0.17864478D-01  0.91046681D-02 -0.13984346D-02
 -0.20647853D-01  0.13759513D-03  0.73242492D-14  0.96610621D-14  0.10731067D-13
  0.91842806D-14  0.52478242D-14  0.17030333D-14  0.11991549D-17  0.18852726D-13
  0.24867717D-13  0.27621925D-13  0.23640475D-13  0.13507977D-13  0.43836331D-14
  0.30866426D-17  0.13531652D-12  0.17848946D-12  0.19825795D-12  0.16968086D-12
  0.96954278D-13  0.31463777D-13  0.22154553D-16 -0.54617048D-14 -0.74688111D-14
 -0.81193499D-14 -0.74531387D-14 -0.40622632D-14 -0.17141971D-14  0.59120578D-15
 -0.16486721D-13 -0.22545379D-13 -0.24509098D-13 -0.22498070D-13 -0.12262362D-13
 -0.51744813D-14  0.17846158D-14 -0.11472403D-12 -0.15688364D-12 -0.17054831D-12
 -0.15655443D-12 -0.85328524D-13 -0.36006998D-13  0.12418377D-13 -0.13030579D-14
  0.54459651D-15 -0.63385084D-14  0.38677993D-13 -0.32876116D-13  0.10013325D-12
  0.28181539D-14 -0.28057244D-14  0.10345844D-13  0.67975904D-15 -0.57704953D-15
 -0.10270951D-15  0.12629500D-13 -0.38212983D-15 -0.21249935D-14 -0.33197877D-15
  0.10636367D-14 -0.73165798D-15  0.48361399D-14 -0.67764156D-15 -0.21345309D-15
 -0.23050432D-14  0.41411882D-14 -0.18361450D-14  0.78698323D-14 -0.18634074D-14
  0.32994939D-14  0.40022960D-15  0.47526889D-16 -0.12004840D-14 -0.10083548D-14
  0.25792050D-15  0.15720390D-14 -0.19233403D-15 -0.40050117D-15  0.20294130D-14
  0.41308241D-03  0.46192774D-15 -0.71988488D-15 -0.16264058D-15 -0.76637291D-16
  0.43991167D-15  0.10781121D-14 -0.13091459D-14  0.17197430D-14 -0.59019038D-15
 -0.56104978D-03  0.10037372D-03  0.18711944D-03  0.31626482D-03  0.47544962D-03
  0.58414480D-03  0.49340366D-03  0.18609371D-03 -0.92098815D-06 -0.71845169D-04
 -0.13451682D-03 -0.22902640D-03 -0.35426902D-03 -0.46655984D-03 -0.48478556D-03
 -0.30805946D-03  0.20645429D-03 -0.18305164D-04  0.36168059D-02  0.30625723D-04
 -0.10523430D-03 -0.98663846D-04 -0.70254536D-04 -0.10523430D-03 -0.98663846D-04
 -0.70254536D-04 -0.10523430D-03 -0.98663846D-04 -0.70254536D-04  0.13429226D-03
  0.13429226D-03  0.13429226D-03 -0.12942388D-02 -0.12942388D-02 -0.12942388D-02
 -0.18581112D-05 -0.18581112D-05 -0.18581112D-05 -0.38370712D-15  0.28205810D-15
  0.10164903D-15  0.14906621D-03  0.14906621D-03  0.14906621D-03  0.85879431D-16
 -0.19063352D-14  0.18204558D-14 -0.37534749D-03 -0.37534749D-03 -0.37534749D-03
  0.86365944D-15 -0.40109728D-14  0.31473133D-14  0.89550676D-04  0.89550676D-04
  0.89550676D-04 -0.44494510D-04 -0.44494510D-04 -0.44494510D-04  0.66741765D-04
  0.66741765D-04  0.66741765D-04  0.66741765D-04  0.66741765D-04  0.66741765D-04
 -0.59774901D-03 -0.45238047D-04 -0.45238047D-04 -0.45238047D-04  0.67857071D-04
  0.67857071D-04  0.67857071D-04  0.67857071D-04  0.67857071D-04  0.67857071D-04
  0.19017991D-03  0.14986745D-04  0.27029212D-04  0.39854557D-04 -0.56862613D-03
  0.14165905D-02 -0.12593211D-05  0.85320542D-04  0.85320542D-04 -0.14194524D-03
  0.25384383D-03  0.25384383D-03  0.16662186D-03 -0.18310944D-03 -0.18310944D-03
 -0.84665298D-05 -0.45308578D-04 -0.45308578D-04  0.90617155D-04 -0.24929742D-03
 -0.63818869D-04 -0.63818869D-04 -0.59698553D-05 -0.59698553D-05  0.11939711D-04
 -0.26162252D-04  0.31682942D-04  0.31682942D-04  0.14986745D-04  0.27029212D-04
  0.39854557D-04 -0.56862613D-03  0.14165905D-02 -0.12593211D-05  0.85320542D-04
 -0.14194524D-03  0.85320542D-04  0.25384383D-03  0.16662186D-03  0.25384383D-03
 -0.18310944D-03 -0.84665298D-05 -0.18310944D-03 -0.45308578D-04  0.90617155D-04
 -0.45308578D-04 -0.63818869D-04 -0.24929742D-03 -0.63818869D-04 -0.59698553D-05
  0.11939711D-04 -0.59698553D-05  0.31682942D-04 -0.26162252D-04  0.31682942D-04
  0.14986745D-04  0.27029212D-04  0.39854557D-04 -0.56862613D-03  0.14165905D-02
 -0.12593211D-05 -0.14194524D-03  0.85320542D-04  0.85320542D-04  0.16662186D-03
  0.25384383D-03  0.25384383D-03 -0.84665298D-05 -0.18310944D-03 -0.18310944D-03
  0.90617155D-04 -0.45308578D-04 -0.45308578D-04 -0.63818869D-04 -0.63818869D-04
 -0.24929742D-03  0.11939711D-04 -0.59698553D-05 -0.59698553D-05  0.31682942D-04
  0.31682942D-04 -0.26162252D-04  0.10037372D-03  0.18711944D-03  0.31626482D-03
  0.47544962D-03  0.58414480D-03  0.49340366D-03  0.18609371D-03 -0.92098815D-06
 -0.71845169D-04 -0.13451682D-03 -0.22902640D-03 -0.35426902D-03 -0.46655984D-03
 -0.48478556D-03 -0.30805946D-03  0.20645429D-03 -0.18305164D-04  0.36168059D-02
  0.30625723D-04  0.10523430D-03  0.98663846D-04  0.70254536D-04  0.10523430D-03
  0.98663846D-04  0.70254536D-04 -0.10523430D-03 -0.98663846D-04 -0.70254536D-04
 -0.13429226D-03 -0.13429226D-03  0.13429226D-03  0.12942388D-02  0.12942388D-02
 -0.12942388D-02  0.18581112D-05  0.18581112D-05 -0.18581112D-05 -0.16491090D-14
  0.10626245D-14  0.58648451D-15  0.14906621D-03 -0.14906621D-03 -0.14906621D-03
  0.44902155D-15 -0.10997032D-14  0.65068161D-15 -0.37534749D-03  0.37534749D-03
  0.37534749D-03 -0.22608426D-14 -0.16057184D-14  0.38665610D-14  0.89550676D-04
 -0.89550676D-04 -0.89550676D-04  0.44494510D-04  0.44494510D-04 -0.44494510D-04
 -0.66741765D-04 -0.66741765D-04  0.66741765D-04 -0.66741765D-04 -0.66741765D-04
  0.66741765D-04 -0.59774901D-03  0.45238047D-04  0.45238047D-04 -0.45238047D-04
 -0.67857071D-04 -0.67857071D-04  0.67857071D-04 -0.67857071D-04 -0.67857071D-04
  0.67857071D-04  0.19017991D-03  0.14986745D-04  0.27029212D-04  0.39854557D-04
 -0.56862613D-03  0.14165905D-02 -0.12593211D-05 -0.85320542D-04  0.14194524D-03
  0.85320542D-04 -0.25384383D-03 -0.16662186D-03  0.25384383D-03  0.18310944D-03
  0.84665298D-05 -0.18310944D-03 -0.45308578D-04  0.90617155D-04 -0.45308578D-04
 -0.63818869D-04  0.24929742D-03  0.63818869D-04 -0.59698553D-05  0.11939711D-04
 -0.59698553D-05  0.31682942D-04  0.26162252D-04 -0.31682942D-04  0.14986745D-04
  0.27029212D-04  0.39854557D-04 -0.56862613D-03  0.14165905D-02 -0.12593211D-05
 -0.85320542D-04 -0.85320542D-04 -0.14194524D-03 -0.25384383D-03 -0.25384383D-03
  0.16662186D-03  0.18310944D-03  0.18310944D-03 -0.84665298D-05 -0.45308578D-04
 -0.45308578D-04  0.90617155D-04 -0.24929742D-03  0.63818869D-04  0.63818869D-04
 -0.59698553D-05 -0.59698553D-05  0.11939711D-04 -0.26162252D-04 -0.31682942D-04
 -0.31682942D-04  0.14986745D-04  0.27029212D-04  0.39854557D-04 -0.56862613D-03
  0.14165905D-02 -0.12593211D-05  0.14194524D-03 -0.85320542D-04  0.85320542D-04
 -0.16662186D-03 -0.25384383D-03  0.25384383D-03  0.84665298D-05  0.18310944D-03
 -0.18310944D-03  0.90617155D-04 -0.45308578D-04 -0.45308578D-04 -0.63818869D-04
  0.63818869D-04  0.24929742D-03  0.11939711D-04 -0.59698553D-05 -0.59698553D-05
  0.31682942D-04 -0.31682942D-04  0.26162252D-04  0.10037372D-03  0.18711944D-03
  0.31626482D-03  0.47544962D-03  0.58414480D-03  0.49340366D-03  0.18609371D-03
 -0.92098815D-06 -0.71845169D-04 -0.13451682D-03 -0.22902640D-03 -0.35426902D-03
 -0.46655984D-03 -0.48478556D-03 -0.30805946D-03  0.20645429D-03 -0.18305164D-04
  0.36168059D-02  0.30625723D-04 -0.10523430D-03 -0.98663846D-04 -0.70254536D-04
  0.10523430D-03  0.98663846D-04  0.70254536D-04  0.10523430D-03  0.98663846D-04
  0.70254536D-04  0.13429226D-03 -0.13429226D-03 -0.13429226D-03 -0.12942388D-02
  0.12942388D-02  0.12942388D-02 -0.18581112D-05  0.18581112D-05  0.18581112D-05
 -0.11212137D-14  0.71788156D-15  0.40333217D-15 -0.14906621D-03 -0.14906621D-03
  0.14906621D-03  0.11508874D-14  0.15151397D-15 -0.13024014D-14  0.37534749D-03
  0.37534749D-03 -0.37534749D-03  0.37171300D-14  0.32104934D-14 -0.69276234D-14
 -0.89550676D-04 -0.89550676D-04  0.89550676D-04 -0.44494510D-04  0.44494510D-04
  0.44494510D-04  0.66741765D-04 -0.66741765D-04 -0.66741765D-04  0.66741765D-04
 -0.66741765D-04 -0.66741765D-04 -0.59774901D-03 -0.45238047D-04  0.45238047D-04
  0.45238047D-04  0.67857071D-04 -0.67857071D-04 -0.67857071D-04  0.67857071D-04
 -0.67857071D-04 -0.67857071D-04  0.19017991D-03  0.14986745D-04  0.27029212D-04
  0.39854557D-04 -0.56862613D-03  0.14165905D-02 -0.12593211D-05 -0.14194524D-03
 -0.85320542D-04 -0.85320542D-04  0.16662186D-03 -0.25384383D-03 -0.25384383D-03
 -0.84665298D-05  0.18310944D-03  0.18310944D-03  0.90617155D-04 -0.45308578D-04
 -0.45308578D-04  0.63818869D-04  0.63818869D-04 -0.24929742D-03  0.11939711D-04
 -0.59698553D-05 -0.59698553D-05 -0.31682942D-04 -0.31682942D-04 -0.26162252D-04
  0.14986745D-04  0.27029212D-04  0.39854557D-04 -0.56862613D-03  0.14165905D-02
 -0.12593211D-05  0.85320542D-04  0.14194524D-03 -0.85320542D-04  0.25384383D-03
 -0.16662186D-03 -0.25384383D-03 -0.18310944D-03  0.84665298D-05  0.18310944D-03
 -0.45308578D-04  0.90617155D-04 -0.45308578D-04  0.63818869D-04  0.24929742D-03
 -0.63818869D-04 -0.59698553D-05  0.11939711D-04 -0.59698553D-05 -0.31682942D-04
  0.26162252D-04  0.31682942D-04  0.14986745D-04  0.27029212D-04  0.39854557D-04
 -0.56862613D-03  0.14165905D-02 -0.12593211D-05  0.85320542D-04 -0.85320542D-04
  0.14194524D-03  0.25384383D-03 -0.25384383D-03 -0.16662186D-03 -0.18310944D-03
  0.18310944D-03  0.84665298D-05 -0.45308578D-04 -0.45308578D-04  0.90617155D-04
  0.24929742D-03  0.63818869D-04 -0.63818869D-04 -0.59698553D-05 -0.59698553D-05
  0.11939711D-04  0.26162252D-04 -0.31682942D-04  0.31682942D-04  0.10037372D-03
  0.18711944D-03  0.31626482D-03  0.47544962D-03  0.58414480D-03  0.49340366D-03
  0.18609371D-03 -0.92098815D-06 -0.71845169D-04 -0.13451682D-03 -0.22902640D-03
 -0.35426902D-03 -0.46655984D-03 -0.48478556D-03 -0.30805946D-03  0.20645429D-03
 -0.18305164D-04  0.36168059D-02  0.30625723D-04  0.10523430D-03  0.98663846D-04