 Molden2AIM, Version 4.0.0 (06/02/2016)           Time: Fri Jun 29 00:46:33 2018
GAUSSIAN             16 MOL ORBITALS    516 PRIMITIVES       12 NUCLEI
  C    1    (CENTRE  1)  -3.50635092  0.03224818 -0.52656841  CHARGE =  6.0
  C    2    (CENTRE  2)  -1.34741441 -0.55505981  0.63736872  CHARGE =  6.0
  H    3    (CENTRE  3)  -5.16168675 -1.18999456 -0.41459268  CHARGE =  1.0
  H    4    (CENTRE  4)  -3.69257776  1.76562592 -1.63298982  CHARGE =  1.0
  H    5    (CENTRE  5)  -1.24662776 -2.31821396  1.72040477  CHARGE =  1.0
  C    6    (CENTRE  6)   1.02157460  0.98924328  0.57297252  CHARGE =  6.0
  H    7    (CENTRE  7)   0.68762787  2.73158022 -0.51131643  CHARGE =  1.0
  H    8    (CENTRE  8)   1.50371177  1.57356927  2.51437887  CHARGE =  1.0
  C    9    (CENTRE  9)   3.25192575 -0.46495955 -0.54661084  CHARGE =  6.0
  H   10    (CENTRE 10)   2.86381569 -1.01278171 -2.51100193  CHARGE =  1.0
  H   11    (CENTRE 11)   4.98053194  0.68394858 -0.52270958  CHARGE =  1.0
  H   12    (CENTRE 12)   3.62747669 -2.20105661  0.53146280  CHARGE =  1.0
CENTRE ASSIGNMENTS    1  1  1  1  1  1  1  1  1  1  1  1  1  1  1  1  1  1  1  1
CENTRE ASSIGNMENTS    1  1  1  1  1  1  1  1  1  1  1  1  1  1  1  1  1  1  1  1
CENTRE ASSIGNMENTS    1  1  1  1  1  1  1  1  1  1  1  1  1  1  1  1  1  1  1  1
CENTRE ASSIGNMENTS    1  1  1  1  1  1  1  1  1  1  1  1  1  1  1  2  2  2  2  2
CENTRE ASSIGNMENTS    2  2  2  2  2  2  2  2  2  2  2  2  2  2  2  2  2  2  2  2
CENTRE ASSIGNMENTS    2  2  2  2  2  2  2  2  2  2  2  2  2  2  2  2  2  2  2  2
CENTRE ASSIGNMENTS    2  2  2  2  2  2  2  2  2  2  2  2  2  2  2  2  2  2  2  2
CENTRE ASSIGNMENTS    2  2  2  2  2  2  2  2  2  2  3  3  3  3  3  3  3  3  3  3
CENTRE ASSIGNMENTS    3  3  3  3  3  3  3  3  3  3  3  3  3  3  3  3  3  4  4  4
CENTRE ASSIGNMENTS    4  4  4  4  4  4  4  4  4  4  4  4  4  4  4  4  4  4  4  4
CENTRE ASSIGNMENTS    4  4  4  4  5  5  5  5  5  5  5  5  5  5  5  5  5  5  5  5
CENTRE ASSIGNMENTS    5  5  5  5  5  5  5  5  5  5  5  6  6  6  6  6  6  6  6  6
CENTRE ASSIGNMENTS    6  6  6  6  6  6  6  6  6  6  6  6  6  6  6  6  6  6  6  6
CENTRE ASSIGNMENTS    6  6  6  6  6  6  6  6  6  6  6  6  6  6  6  6  6  6  6  6
CENTRE ASSIGNMENTS    6  6  6  6  6  6  6  6  6  6  6  6  6  6  6  6  6  6  6  6
CENTRE ASSIGNMENTS    6  6  6  6  6  6  7  7  7  7  7  7  7  7  7  7  7  7  7  7
CENTRE ASSIGNMENTS    7  7  7  7  7  7  7  7  7  7  7  7  7  8  8  8  8  8  8  8
CENTRE ASSIGNMENTS    8  8  8  8  8  8  8  8  8  8  8  8  8  8  8  8  8  8  8  8
CENTRE ASSIGNMENTS    9  9  9  9  9  9  9  9  9  9  9  9  9  9  9  9  9  9  9  9
CENTRE ASSIGNMENTS    9  9  9  9  9  9  9  9  9  9  9  9  9  9  9  9  9  9  9  9
CENTRE ASSIGNMENTS    9  9  9  9  9  9  9  9  9  9  9  9  9  9  9  9  9  9  9  9
CENTRE ASSIGNMENTS    9  9  9  9  9  9  9  9  9  9  9  9  9  9  9 10 10 10 10 10
CENTRE ASSIGNMENTS   10 10 10 10 10 10 10 10 10 10 10 10 10 10 10 10 10 10 10 10
CENTRE ASSIGNMENTS   10 10 11 11 11 11 11 11 11 11 11 11 11 11 11 11 11 11 11 11
CENTRE ASSIGNMENTS   11 11 11 11 11 11 11 11 11 12 12 12 12 12 12 12 12 12 12 12
CENTRE ASSIGNMENTS   12 12 12 12 12 12 12 12 12 12 12 12 12 12 12 12
TYPE ASSIGNMENTS      1  1  1  1  1  1  1  1  1  1  1  1  1  1  1  1  1  1  1  2
TYPE ASSIGNMENTS      2  2  3  3  3  4  4  4  2  3  4  2  3  4  2  3  4  5  6  7
TYPE ASSIGNMENTS      8  9 10  5  6  7  8  9 10  5  6  7  8  9 10 11 12 13 17 14
TYPE ASSIGNMENTS     15 18 19 16 20 11 12 13 17 14 15 18 19 16 20  1  1  1  1  1
TYPE ASSIGNMENTS      1  1  1  1  1  1  1  1  1  1  1  1  1  1  2  2  2  3  3  3
TYPE ASSIGNMENTS      4  4  4  2  3  4  2  3  4  2  3  4  5  6  7  8  9 10  5  6
TYPE ASSIGNMENTS      7  8  9 10  5  6  7  8  9 10 11 12 13 17 14 15 18 19 16 20
TYPE ASSIGNMENTS     11 12 13 17 14 15 18 19 16 20  1  1  1  1  1  1  2  3  4  2
TYPE ASSIGNMENTS      3  4  2  3  4  5  6  7  8  9 10  5  6  7  8  9 10  1  1  1
TYPE ASSIGNMENTS      1  1  1  2  3  4  2  3  4  2  3  4  5  6  7  8  9 10  5  6
TYPE ASSIGNMENTS      7  8  9 10  1  1  1  1  1  1  2  3  4  2  3  4  2  3  4  5
TYPE ASSIGNMENTS      6  7  8  9 10  5  6  7  8  9 10  1  1  1  1  1  1  1  1  1
TYPE ASSIGNMENTS      1  1  1  1  1  1  1  1  1  1  2  2  2  3  3  3  4  4  4  2
TYPE ASSIGNMENTS      3  4  2  3  4  2  3  4  5  6  7  8  9 10  5  6  7  8  9 10
TYPE ASSIGNMENTS      5  6  7  8  9 10 11 12 13 17 14 15 18 19 16 20 11 12 13 17
TYPE ASSIGNMENTS     14 15 18 19 16 20  1  1  1  1  1  1  2  3  4  2  3  4  2  3
TYPE ASSIGNMENTS      4  5  6  7  8  9 10  5  6  7  8  9 10  1  1  1  1  1  1  2
TYPE ASSIGNMENTS      3  4  2  3  4  2  3  4  5  6  7  8  9 10  5  6  7  8  9 10
TYPE ASSIGNMENTS      1  1  1  1  1  1  1  1  1  1  1  1  1  1  1  1  1  1  1  2
TYPE ASSIGNMENTS      2  2  3  3  3  4  4  4  2  3  4  2  3  4  2  3  4  5  6  7
TYPE ASSIGNMENTS      8  9 10  5  6  7  8  9 10  5  6  7  8  9 10 11 12 13 17 14
TYPE ASSIGNMENTS     15 18 19 16 20 11 12 13 17 14 15 18 19 16 20  1  1  1  1  1
TYPE ASSIGNMENTS      1  2  3  4  2  3  4  2  3  4  5  6  7  8  9 10  5  6  7  8
TYPE ASSIGNMENTS      9 10  1  1  1  1  1  1  2  3  4  2  3  4  2  3  4  5  6  7
TYPE ASSIGNMENTS      8  9 10  5  6  7  8  9 10  1  1  1  1  1  1  2  3  4  2  3
TYPE ASSIGNMENTS      4  2  3  4  5  6  7  8  9 10  5  6  7  8  9 10
EXPONENTS  0.8236000D+04 0.1235000D+04 0.2808000D+03 0.7927000D+02 0.2559000D+02
EXPONENTS  0.8997000D+01 0.3319000D+01 0.3643000D+00 0.8236000D+04 0.1235000D+04
EXPONENTS  0.2808000D+03 0.7927000D+02 0.2559000D+02 0.8997000D+01 0.3319000D+01
EXPONENTS  0.3643000D+00 0.9059000D+00 0.1285000D+00 0.4402000D-01 0.1871000D+02
EXPONENTS  0.4133000D+01 0.1200000D+01 0.1871000D+02 0.4133000D+01 0.1200000D+01
EXPONENTS  0.1871000D+02 0.4133000D+01 0.1200000D+01 0.3827000D+00 0.3827000D+00
EXPONENTS  0.3827000D+00 0.1209000D+00 0.1209000D+00 0.1209000D+00 0.3569000D-01
EXPONENTS  0.3569000D-01 0.3569000D-01 0.1097000D+01 0.1097000D+01 0.1097000D+01
EXPONENTS  0.1097000D+01 0.1097000D+01 0.1097000D+01 0.3180000D+00 0.3180000D+00
EXPONENTS  0.3180000D+00 0.3180000D+00 0.3180000D+00 0.3180000D+00 0.1000000D+00
EXPONENTS  0.1000000D+00 0.1000000D+00 0.1000000D+00 0.1000000D+00 0.1000000D+00
EXPONENTS  0.7610000D+00 0.7610000D+00 0.7610000D+00 0.7610000D+00 0.7610000D+00
EXPONENTS  0.7610000D+00 0.7610000D+00 0.7610000D+00 0.7610000D+00 0.7610000D+00
EXPONENTS  0.2680000D+00 0.2680000D+00 0.2680000D+00 0.2680000D+00 0.2680000D+00
EXPONENTS  0.2680000D+00 0.2680000D+00 0.2680000D+00 0.2680000D+00 0.2680000D+00
EXPONENTS  0.8236000D+04 0.1235000D+04 0.2808000D+03 0.7927000D+02 0.2559000D+02
EXPONENTS  0.8997000D+01 0.3319000D+01 0.3643000D+00 0.8236000D+04 0.1235000D+04
EXPONENTS  0.2808000D+03 0.7927000D+02 0.2559000D+02 0.8997000D+01 0.3319000D+01
EXPONENTS  0.3643000D+00 0.9059000D+00 0.1285000D+00 0.4402000D-01 0.1871000D+02
EXPONENTS  0.4133000D+01 0.1200000D+01 0.1871000D+02 0.4133000D+01 0.1200000D+01
EXPONENTS  0.1871000D+02 0.4133000D+01 0.1200000D+01 0.3827000D+00 0.3827000D+00
EXPONENTS  0.3827000D+00 0.1209000D+00 0.1209000D+00 0.1209000D+00 0.3569000D-01
EXPONENTS  0.3569000D-01 0.3569000D-01 0.1097000D+01 0.1097000D+01 0.1097000D+01
EXPONENTS  0.1097000D+01 0.1097000D+01 0.1097000D+01 0.3180000D+00 0.3180000D+00
EXPONENTS  0.3180000D+00 0.3180000D+00 0.3180000D+00 0.3180000D+00 0.1000000D+00
EXPONENTS  0.1000000D+00 0.1000000D+00 0.1000000D+00 0.1000000D+00 0.1000000D+00
EXPONENTS  0.7610000D+00 0.7610000D+00 0.7610000D+00 0.7610000D+00 0.7610000D+00
EXPONENTS  0.7610000D+00 0.7610000D+00 0.7610000D+00 0.7610000D+00 0.7610000D+00
EXPONENTS  0.2680000D+00 0.2680000D+00 0.2680000D+00 0.2680000D+00 0.2680000D+00
EXPONENTS  0.2680000D+00 0.2680000D+00 0.2680000D+00 0.2680000D+00 0.2680000D+00
EXPONENTS  0.3387000D+02 0.5095000D+01 0.1159000D+01 0.3258000D+00 0.1027000D+00
EXPONENTS  0.2526000D-01 0.1407000D+01 0.1407000D+01 0.1407000D+01 0.3880000D+00
EXPONENTS  0.3880000D+00 0.3880000D+00 0.1020000D+00 0.1020000D+00 0.1020000D+00
EXPONENTS  0.1057000D+01 0.1057000D+01 0.1057000D+01 0.1057000D+01 0.1057000D+01
EXPONENTS  0.1057000D+01 0.2470000D+00 0.2470000D+00 0.2470000D+00 0.2470000D+00
EXPONENTS  0.2470000D+00 0.2470000D+00 0.3387000D+02 0.5095000D+01 0.1159000D+01
EXPONENTS  0.3258000D+00 0.1027000D+00 0.2526000D-01 0.1407000D+01 0.1407000D+01
EXPONENTS  0.1407000D+01 0.3880000D+00 0.3880000D+00 0.3880000D+00 0.1020000D+00
EXPONENTS  0.1020000D+00 0.1020000D+00 0.1057000D+01 0.1057000D+01 0.1057000D+01
EXPONENTS  0.1057000D+01 0.1057000D+01 0.1057000D+01 0.2470000D+00 0.2470000D+00
EXPONENTS  0.2470000D+00 0.2470000D+00 0.2470000D+00 0.2470000D+00 0.3387000D+02
EXPONENTS  0.5095000D+01 0.1159000D+01 0.3258000D+00 0.1027000D+00 0.2526000D-01
EXPONENTS  0.1407000D+01 0.1407000D+01 0.1407000D+01 0.3880000D+00 0.3880000D+00
EXPONENTS  0.3880000D+00 0.1020000D+00 0.1020000D+00 0.1020000D+00 0.1057000D+01
EXPONENTS  0.1057000D+01 0.1057000D+01 0.1057000D+01 0.1057000D+01 0.1057000D+01
EXPONENTS  0.2470000D+00 0.2470000D+00 0.2470000D+00 0.2470000D+00 0.2470000D+00
EXPONENTS  0.2470000D+00 0.8236000D+04 0.1235000D+04 0.2808000D+03 0.7927000D+02
EXPONENTS  0.2559000D+02 0.8997000D+01 0.3319000D+01 0.3643000D+00 0.8236000D+04
EXPONENTS  0.1235000D+04 0.2808000D+03 0.7927000D+02 0.2559000D+02 0.8997000D+01
EXPONENTS  0.3319000D+01 0.3643000D+00 0.9059000D+00 0.1285000D+00 0.4402000D-01
EXPONENTS  0.1871000D+02 0.4133000D+01 0.1200000D+01 0.1871000D+02 0.4133000D+01
EXPONENTS  0.1200000D+01 0.1871000D+02 0.4133000D+01 0.1200000D+01 0.3827000D+00
EXPONENTS  0.3827000D+00 0.3827000D+00 0.1209000D+00 0.1209000D+00 0.1209000D+00
EXPONENTS  0.3569000D-01 0.3569000D-01 0.3569000D-01 0.1097000D+01 0.1097000D+01
EXPONENTS  0.1097000D+01 0.1097000D+01 0.1097000D+01 0.1097000D+01 0.3180000D+00
EXPONENTS  0.3180000D+00 0.3180000D+00 0.3180000D+00 0.3180000D+00 0.3180000D+00
EXPONENTS  0.1000000D+00 0.1000000D+00 0.1000000D+00 0.1000000D+00 0.1000000D+00
EXPONENTS  0.1000000D+00 0.7610000D+00 0.7610000D+00 0.7610000D+00 0.7610000D+00
EXPONENTS  0.7610000D+00 0.7610000D+00 0.7610000D+00 0.7610000D+00 0.7610000D+00
EXPONENTS  0.7610000D+00 0.2680000D+00 0.2680000D+00 0.2680000D+00 0.2680000D+00
EXPONENTS  0.2680000D+00 0.2680000D+00 0.2680000D+00 0.2680000D+00 0.2680000D+00
EXPONENTS  0.2680000D+00 0.3387000D+02 0.5095000D+01 0.1159000D+01 0.3258000D+00
EXPONENTS  0.1027000D+00 0.2526000D-01 0.1407000D+01 0.1407000D+01 0.1407000D+01
EXPONENTS  0.3880000D+00 0.3880000D+00 0.3880000D+00 0.1020000D+00 0.1020000D+00
EXPONENTS  0.1020000D+00 0.1057000D+01 0.1057000D+01 0.1057000D+01 0.1057000D+01
EXPONENTS  0.1057000D+01 0.1057000D+01 0.2470000D+00 0.2470000D+00 0.2470000D+00
EXPONENTS  0.2470000D+00 0.2470000D+00 0.2470000D+00 0.3387000D+02 0.5095000D+01
EXPONENTS  0.1159000D+01 0.3258000D+00 0.1027000D+00 0.2526000D-01 0.1407000D+01
EXPONENTS  0.1407000D+01 0.1407000D+01 0.3880000D+00 0.3880000D+00 0.3880000D+00
EXPONENTS  0.1020000D+00 0.1020000D+00 0.1020000D+00 0.1057000D+01 0.1057000D+01
EXPONENTS  0.1057000D+01 0.1057000D+01 0.1057000D+01 0.1057000D+01 0.2470000D+00
EXPONENTS  0.2470000D+00 0.2470000D+00 0.2470000D+00 0.2470000D+00 0.2470000D+00
EXPONENTS  0.8236000D+04 0.1235000D+04 0.2808000D+03 0.7927000D+02 0.2559000D+02
EXPONENTS  0.8997000D+01 0.3319000D+01 0.3643000D+00 0.8236000D+04 0.1235000D+04
EXPONENTS  0.2808000D+03 0.7927000D+02 0.2559000D+02 0.8997000D+01 0.3319000D+01
EXPONENTS  0.3643000D+00 0.9059000D+00 0.1285000D+00 0.4402000D-01 0.1871000D+02
EXPONENTS  0.4133000D+01 0.1200000D+01 0.1871000D+02 0.4133000D+01 0.1200000D+01
EXPONENTS  0.1871000D+02 0.4133000D+01 0.1200000D+01 0.3827000D+00 0.3827000D+00
EXPONENTS  0.3827000D+00 0.1209000D+00 0.1209000D+00 0.1209000D+00 0.3569000D-01
EXPONENTS  0.3569000D-01 0.3569000D-01 0.1097000D+01 0.1097000D+01 0.1097000D+01
EXPONENTS  0.1097000D+01 0.1097000D+01 0.1097000D+01 0.3180000D+00 0.3180000D+00
EXPONENTS  0.3180000D+00 0.3180000D+00 0.3180000D+00 0.3180000D+00 0.1000000D+00
EXPONENTS  0.1000000D+00 0.1000000D+00 0.1000000D+00 0.1000000D+00 0.1000000D+00
EXPONENTS  0.7610000D+00 0.7610000D+00 0.7610000D+00 0.7610000D+00 0.7610000D+00
EXPONENTS  0.7610000D+00 0.7610000D+00 0.7610000D+00 0.7610000D+00 0.7610000D+00
EXPONENTS  0.2680000D+00 0.2680000D+00 0.2680000D+00 0.2680000D+00 0.2680000D+00
EXPONENTS  0.2680000D+00 0.2680000D+00 0.2680000D+00 0.2680000D+00 0.2680000D+00
EXPONENTS  0.3387000D+02 0.5095000D+01 0.1159000D+01 0.3258000D+00 0.1027000D+00
EXPONENTS  0.2526000D-01 0.1407000D+01 0.1407000D+01 0.1407000D+01 0.3880000D+00
EXPONENTS  0.3880000D+00 0.3880000D+00 0.1020000D+00 0.1020000D+00 0.1020000D+00
EXPONENTS  0.1057000D+01 0.1057000D+01 0.1057000D+01 0.1057000D+01 0.1057000D+01
EXPONENTS  0.1057000D+01 0.2470000D+00 0.2470000D+00 0.2470000D+00 0.2470000D+00
EXPONENTS  0.2470000D+00 0.2470000D+00 0.3387000D+02 0.5095000D+01 0.1159000D+01
EXPONENTS  0.3258000D+00 0.1027000D+00 0.2526000D-01 0.1407000D+01 0.1407000D+01
EXPONENTS  0.1407000D+01 0.3880000D+00 0.3880000D+00 0.3880000D+00 0.1020000D+00
EXPONENTS  0.1020000D+00 0.1020000D+00 0.1057000D+01 0.1057000D+01 0.1057000D+01
EXPONENTS  0.1057000D+01 0.1057000D+01 0.1057000D+01 0.2470000D+00 0.2470000D+00
EXPONENTS  0.2470000D+00 0.2470000D+00 0.2470000D+00 0.2470000D+00 0.3387000D+02
EXPONENTS  0.5095000D+01 0.1159000D+01 0.3258000D+00 0.1027000D+00 0.2526000D-01
EXPONENTS  0.1407000D+01 0.1407000D+01 0.1407000D+01 0.3880000D+00 0.3880000D+00
EXPONENTS  0.3880000D+00 0.1020000D+00 0.1020000D+00 0.1020000D+00 0.1057000D+01
EXPONENTS  0.1057000D+01 0.1057000D+01 0.1057000D+01 0.1057000D+01 0.1057000D+01
EXPONENTS  0.2470000D+00 0.2470000D+00 0.2470000D+00 0.2470000D+00 0.2470000D+00
EXPONENTS  0.2470000D+00
MO    1     MO 0.0        OCC NO =    2.0000000  ORB. ENERGY =   -9.889286
  0.99100956D-02  0.18474671D-01  0.31225449D-01  0.46942078D-01  0.57673767D-01
  0.48714716D-01  0.18373399D-01 -0.90930975D-04 -0.76922270D-03 -0.14402276D-02
 -0.24521107D-02 -0.37930424D-02 -0.49953034D-02 -0.51904402D-02 -0.32982918D-02
  0.22104384D-02  0.54410031D-02 -0.19799777D-01 -0.74326660D-04  0.15636546D-02
  0.14660256D-02  0.10438975D-02 -0.28379696D-03 -0.26607769D-03 -0.18946316D-03
  0.73515063D-03  0.68925044D-03  0.49078738D-03  0.12022780D-02 -0.37439256D-05
  0.57774826D-03 -0.29351250D-02  0.11953008D-02 -0.16893007D-02  0.25274770D-04
  0.65183185D-04 -0.44210555D-04 -0.22510935D-03  0.24248351D-03 -0.17374153D-04
  0.60530365D-03 -0.67277613D-03  0.27657308D-03 -0.27961254D-02  0.88795724D-03
  0.19081682D-02 -0.23066302D-02 -0.27131046D-02  0.12004092D-02  0.34456796D-03
 -0.12091492D-03 -0.22365303D-03  0.10216286D-02 -0.32216330D-03  0.58021876D-03
 -0.55090031D-03 -0.58337727D-03  0.64196664D-03  0.20387118D-02  0.22357848D-02
 -0.30532353D-02 -0.38601088D-03 -0.48565300D-03  0.11273354D-02  0.13034494D-02
 -0.19153690D-03 -0.83683381D-04  0.12171219D-03  0.60034425D-03  0.43237911D-03
 -0.66237742D-03 -0.25733542D-04 -0.18132897D-03  0.29724086D-03 -0.14335709D-04
  0.31432353D+00  0.58597052D+00  0.99039341D+00  0.14888857D+01  0.18292681D+01
  0.15451094D+01  0.58275840D+00 -0.28841039D-02 -0.38848823D-02 -0.72737254D-02
 -0.12384140D-01 -0.19156381D-01 -0.25228280D-01 -0.26213799D-01 -0.16657693D-01
  0.11163598D-01  0.37366783D-01 -0.89340553D-02 -0.24969419D-02  0.84985949D-03
  0.79679729D-03  0.56736714D-03  0.15662232D-03  0.14684338D-03  0.10456124D-03
  0.31546269D-03  0.29576632D-03  0.21060324D-03 -0.32192381D-02 -0.41345110D-03
 -0.12789353D-02 -0.35478180D-02  0.31921962D-02 -0.28431208D-02 -0.13674580D-03
 -0.12806329D-03  0.64300811D-04  0.21800579D-02  0.13575418D-03 -0.23158121D-02
  0.10321160D-02  0.44868524D-02 -0.55086957D-02 -0.16297599D-02  0.34784140D-03
  0.12819185D-02 -0.34769048D-02  0.12087182D-03 -0.56216627D-03  0.15262325D-02
 -0.12783482D-02 -0.24788430D-03  0.28655031D-03  0.98758533D-03  0.16806195D-02
 -0.35551238D-03 -0.48167258D-03 -0.19393741D-03  0.96987838D-03  0.19345111D-02
 -0.20033731D-02  0.96658767D-04 -0.48949340D-03  0.25851853D-02  0.57308839D-03
  0.36691027D-03  0.46041326D-03 -0.11125063D-04 -0.13910870D-02 -0.21060347D-02
  0.17711856D-02  0.29035613D-03  0.72479496D-03 -0.17378104D-02 -0.45578939D-04
  0.59828492D-04  0.10790315D-03  0.15910313D-03  0.73290108D-02 -0.78281403D-02
  0.71182812D-04  0.92953400D-03  0.49823819D-03  0.83594193D-04  0.23301714D-02
  0.21491605D-02 -0.48884860D-03 -0.70993998D-03 -0.46746977D-03  0.58924274D-04
  0.13149101D-03  0.10866523D-03 -0.24015624D-03  0.11590948D-02 -0.59076364D-03
  0.24838075D-03 -0.15239144D-03  0.14195013D-03  0.10441311D-04  0.25991798D-03
 -0.34768009D-03  0.17318410D-04  0.10853058D-03  0.19573937D-03  0.28861758D-03
  0.23104161D-02  0.72525560D-02 -0.86297522D-04  0.45833192D-03 -0.72632667D-03
  0.65562635D-03 -0.58327766D-03 -0.72481603D-03  0.19533957D-03 -0.20755529D-03
 -0.86260610D-03  0.41148411D-03 -0.31249243D-03  0.30909656D-03  0.33958627D-05
  0.63327462D-04 -0.23891860D-03 -0.44612603D-03 -0.57547823D-04  0.46785005D-04
  0.10762818D-04  0.23159028D-03 -0.25005604D-03  0.12398472D-03  0.19526510D-03
  0.35216865D-03  0.51927247D-03  0.38222186D-02  0.20982169D-01 -0.98031753D-04
  0.23112424D-04 -0.11565337D-02  0.75965420D-03  0.17584092D-04 -0.28476117D-02
  0.15763508D-02 -0.50630732D-03  0.15880092D-02 -0.11269508D-02  0.16808560D-02
 -0.21774699D-02  0.49661393D-03 -0.63636395D-04 -0.22798339D-03  0.49349211D-02
 -0.40789388D-04 -0.24347565D-03  0.28426504D-03 -0.23208078D-03 -0.28688277D-03
  0.88774615D-03  0.10259256D+00  0.19125586D+00  0.32325610D+00  0.48595981D+00
  0.59705777D+00  0.50431074D+00  0.19020745D+00 -0.94134731D-03 -0.15598353D-02
 -0.29205039D-02 -0.49724078D-02 -0.76915587D-02 -0.10129512D-01 -0.10525212D-01
 -0.66882998D-02  0.44823430D-02  0.12453527D-01 -0.22032253D-02  0.60909714D-03
  0.19589439D-03  0.18366344D-03  0.13077931D-03 -0.48883833D-04 -0.45831701D-04
 -0.32634901D-04  0.58937701D-04  0.55257841D-04  0.39346874D-04 -0.49557405D-02
 -0.24974971D-02 -0.82300208D-04 -0.40457315D-03 -0.30080744D-03  0.22186583D-03
 -0.17316002D-03 -0.13561224D-04  0.17315912D-04  0.99890900D-03 -0.41802653D-03
 -0.58088246D-03  0.21413289D-02  0.41358079D-03 -0.65894863D-03 -0.32493581D-03
  0.35170803D-04  0.28976501D-03 -0.86381066D-03 -0.92657968D-04  0.65859447D-03
  0.44302415D-03 -0.39784010D-03 -0.45184052D-04 -0.43233861D-04  0.35569860D-03
  0.11212472D-02  0.95287455D-04 -0.30672281D-03  0.28821120D-03  0.25556331D-03
  0.10436417D-02 -0.64631222D-03 -0.54142568D-03 -0.12347328D-03 -0.21832139D-03
  0.26160722D-03  0.96925535D-04  0.32680570D-04  0.20626751D-04  0.47257702D-03
  0.28379871D-03  0.95871109D-03 -0.76335363D-03 -0.38184042D-03 -0.10205913D-02
 -0.56818321D-03 -0.49348517D-04 -0.89002083D-04 -0.13123352D-03 -0.17205848D-03
  0.84927521D-02  0.14918612D-04 -0.40454525D-04  0.17574063D-03 -0.21811527D-03
  0.70634256D-04 -0.45546570D-04  0.14005277D-03  0.43016199D-03 -0.69224049D-03
  0.37803624D-03  0.29887210D-03 -0.50001823D-03  0.20114613D-03 -0.77790030D-03
  0.34253832D-03  0.72881809D-03 -0.60858545D-04 -0.45011354D-04  0.10586990D-03
 -0.35199081D-03 -0.50189602D-04 -0.17071820D-04  0.48316070D-05  0.87140021D-05
  0.12848791D-04  0.11688472D-02 -0.60431656D-02  0.19044236D-04  0.25613473D-03
 -0.16863751D-03  0.43636543D-03  0.86883823D-03  0.11846305D-02 -0.58563779D-03
  0.15798371D-03 -0.30288477D-04  0.84892080D-03 -0.34889335D-03  0.18467727D-03
  0.16421608D-03 -0.74176961D-03 -0.14307580D-02 -0.11364581D-02 -0.23734489D-03
  0.13063333D-03  0.10671156D-03 -0.21690658D-03  0.13098401D-03 -0.18069186D-03
  0.81617265D-03  0.15215314D-02  0.25716561D-02  0.38660415D-02  0.47498787D-02
  0.40120319D-02  0.15131908D-02 -0.74888657D-05 -0.10553054D-03 -0.19758646D-03
 -0.33640785D-03 -0.52037180D-03 -0.68531135D-03 -0.71208239D-03 -0.45249639D-03
  0.30325256D-03  0.38724271D-03 -0.24445351D-02  0.11269940D-02  0.10578929D-03
  0.99184186D-04  0.70625049D-04 -0.12718745D-03 -0.11924632D-03 -0.84910480D-04
 -0.11949562D-03 -0.11203474D-03 -0.79775411D-04 -0.96893622D-03 -0.12515664D-03
  0.73983710D-03  0.83395309D-03  0.46286639D-04 -0.86413986D-03 -0.10375356D-03
  0.12327668D-04  0.30193830D-04  0.23804018D-03 -0.17619073D-03 -0.61849459D-04
  0.42144898D-03 -0.21303611D-03 -0.77264360D-05 -0.11127953D-02  0.94694662D-03
  0.16584868D-03 -0.21060188D-02  0.23897467D-03 -0.48200581D-03 -0.46659169D-04
 -0.47409737D-05  0.51400143D-04 -0.78650916D-04  0.15904364D-04 -0.11949607D-03
  0.27653599D-03  0.81948544D-04  0.35181082D-04 -0.65568694D-03 -0.32590664D-03
 -0.51374220D-03 -0.17392102D-03  0.80061013D-04  0.40819895D-03 -0.18570465D-03
  0.45484399D-04  0.10179108D-03  0.59982268D-05 -0.37859799D-03 -0.15644935D-03
 -0.49062727D-04  0.24214479D-03 -0.14892389D-03  0.31068046D-04 -0.55586650D-04
  0.59727245D-05  0.10772055D-04  0.15883388D-04  0.35272361D-03 -0.17403807D-02
  0.17504973D-05 -0.36224786D-04 -0.28641724D-04  0.27812937D-04 -0.15939462D-03
  0.14020103D-03  0.29070443D-03 -0.67386698D-05 -0.18469214D-03 -0.17179062D-03
  0.13127545D-03 -0.19023124D-03  0.58955785D-04  0.19764713D-03  0.22227142D-03
 -0.62502365D-04 -0.14621531D-03  0.37496452D-04  0.10871885D-03 -0.29485132D-04
 -0.52508810D-04  0.64839121D-04  0.41175529D-04  0.74261762D-04  0.10949893D-03
  0.30072741D-02 -0.11910961D-02  0.13281021D-03 -0.27632088D-03 -0.33222142D-04
  0.72908812D-05 -0.98184592D-03 -0.84665026D-03  0.75040881D-04  0.26312651D-03
  0.55957967D-04 -0.67752842D-04 -0.31328692D-04 -0.46293476D-04  0.77622167D-04
  0.46121809D-03 -0.13139671D-03  0.27211568D-06 -0.23357092D-04  0.18913512D-04
  0.44435792D-05  0.16842761D-03  0.87073321D-04 -0.43446427D-04 -0.12618831D-05
 -0.22758581D-05 -0.33557514D-05 -0.12340524D-02  0.37479262D-03  0.19677027D-04
 -0.95331793D-04  0.34667884D-04 -0.23717625D-06  0.11503667D-03 -0.88212021D-03
  0.27948154D-03 -0.91979242D-04  0.17191478D-03 -0.73357329D-04  0.19704411D-03
 -0.20017722D-03  0.31331085D-05  0.24189706D-03 -0.16402233D-03 -0.61984828D-05
 -0.43603247D-04 -0.12616010D-04  0.56219258D-04 -0.11933077D-03 -0.53268237D-04
  0.11928392D-03
MO    2     MO 0.0        OCC NO =    2.0000000  ORB. ENERGY =   -9.888975
 -0.27985405D-02 -0.52171158D-02 -0.88178448D-02 -0.13256109D-01 -0.16286662D-01
 -0.13756689D-01 -0.51885171D-02  0.25678261D-04  0.44064437D-04  0.82502530D-04
  0.14046762D-03  0.21728204D-03  0.28615281D-03  0.29733110D-03  0.18894056D-03
 -0.12662357D-03 -0.98657557D-03  0.22371121D-02  0.23543071D-02 -0.68916945D-03
 -0.64614017D-03 -0.46009029D-03  0.32215637D-03  0.30204207D-03  0.21507195D-03
 -0.31058675D-03 -0.29119482D-03 -0.20734806D-03  0.31694863D-02 -0.17497210D-02
  0.19592206D-02 -0.17765137D-02  0.14404262D-02 -0.16915998D-02  0.10871983D-03
 -0.19986808D-05  0.34628732D-04  0.23867582D-03 -0.26940396D-03  0.30728141D-04
 -0.78721670D-04  0.39212309D-03  0.25810301D-03  0.15125548D-02 -0.14447674D-02
 -0.67787401D-04 -0.23715539D-02  0.23631725D-02  0.66109044D-03 -0.13663538D-03
  0.17120880D-03 -0.34573419D-04  0.11527663D-03 -0.15065415D-03 -0.25258029D-03
  0.74703473D-04  0.20449438D-03 -0.32280950D-03 -0.50660019D-03 -0.68458624D-03
  0.76651522D-03  0.28248978D-03  0.71103094D-04  0.20191329D-03 -0.76906634D-03
  0.15625825D-03  0.24777343D-03  0.12080690D-03 -0.73444995D-03 -0.13320365D-02
  0.72729448D-03  0.26567520D-03  0.58871627D-03 -0.10897152D-02  0.45607035D-03
 -0.10174351D+00 -0.18967304D+00 -0.32058085D+00 -0.48193802D+00 -0.59211655D+00
 -0.50013708D+00 -0.18863331D+00  0.93355676D-03  0.94781694D-03  0.17746124D-02
  0.30214294D-02  0.46736919D-02  0.61550878D-02  0.63955304D-02  0.40640725D-02
 -0.27236469D-02 -0.10835646D-01  0.24358261D-02 -0.16831084D-02 -0.42571050D-03
 -0.39913066D-03 -0.28420480D-03 -0.29902263D-04 -0.28035273D-04 -0.19962784D-04
 -0.46329126D-04 -0.43436500D-04 -0.30929376D-04  0.57143180D-02 -0.99854530D-04
  0.20793262D-02 -0.26262589D-02  0.29649955D-02 -0.26946631D-02  0.15417695D-03
 -0.23414871D-04  0.82134224D-04 -0.78269503D-03  0.28474087D-03  0.49795416D-03
  0.67848518D-03 -0.17868236D-02  0.14414216D-02  0.78462005D-04  0.16122027D-04
 -0.94584032D-04  0.52916172D-03 -0.10744121D-02  0.60653927D-03 -0.21971865D-03
  0.13029141D-03  0.89427243D-04 -0.18751263D-03 -0.16726381D-03 -0.11927899D-03
  0.39944720D-04  0.34324301D-03 -0.13381573D-03 -0.64349309D-03 -0.14187641D-02
  0.71804118D-03  0.52365893D-03  0.38903508D-03 -0.31659399D-03 -0.37992321D-03
 -0.47832485D-04  0.34815845D-03  0.27448494D-03 -0.63119311D-03 -0.18336339D-02
  0.42416549D-03  0.77469056D-03  0.78915857D-03 -0.12476203D-02  0.59331012D-03
 -0.10758137D-03 -0.19402744D-03 -0.28609334D-03 -0.15654703D-02 -0.49965786D-03
  0.75448415D-04 -0.28096480D-03 -0.10920077D-03 -0.36687259D-04  0.12442191D-02
 -0.30187046D-03  0.61086257D-03  0.23834797D-04  0.10492423D-03 -0.79433155D-04
  0.58632631D-03 -0.34850680D-03 -0.23781951D-03 -0.14688051D-03  0.88432405D-03
 -0.24053250D-03  0.13672594D-03 -0.32801454D-04 -0.10392449D-03  0.38548326D-04
  0.20439541D-03 -0.19683139D-03 -0.94723662D-04 -0.17083802D-03 -0.25190057D-03
 -0.20168029D-02 -0.49106401D-02  0.60992485D-05 -0.23183253D-03  0.23140679D-03
 -0.18594128D-03  0.16531101D-02 -0.10774743D-02  0.11817628D-02 -0.17756193D-03
  0.29976921D-03 -0.26012744D-03 -0.75497497D-04  0.11029008D-03 -0.34792580D-04
 -0.83103102D-03  0.87578561D-03 -0.10759484D-02 -0.34627403D-04  0.90575093D-04
 -0.55947689D-04 -0.23615948D-03  0.26736367D-03 -0.41895141D-03  0.12032305D-03
  0.21700758D-03  0.31997755D-03  0.53546943D-02  0.27881086D-02 -0.95921835D-05
 -0.35893171D-03  0.10182260D-02 -0.67124433D-03  0.58258871D-03  0.40917627D-03
 -0.10727659D-03  0.12056175D-03  0.40024414D-03 -0.24152110D-03 -0.75397198D-03
  0.45844995D-03  0.29552204D-03 -0.76531492D-03 -0.29741390D-03 -0.62170673D-03
 -0.75759191D-05 -0.61436319D-04  0.69012238D-04 -0.14493921D-03 -0.18985447D-04
  0.12065055D-03  0.31448190D+00  0.58626577D+00  0.99089243D+00  0.14896359D+01
  0.18301898D+01  0.15458879D+01  0.58305203D+00 -0.28855570D-02 -0.38491119D-02
 -0.72067520D-02 -0.12270112D-01 -0.18979997D-01 -0.24995989D-01 -0.25972433D-01
 -0.16504315D-01  0.11060808D-01  0.36584472D-01 -0.14039773D-01 -0.18527374D-02
 -0.36337953D-04 -0.34069141D-04 -0.24259258D-04  0.21829240D-03  0.20466301D-03
  0.14573225D-03 -0.76552199D-04 -0.71772553D-04 -0.51106333D-04 -0.25535219D-04
 -0.57929679D-03  0.31022212D-03  0.34766920D-03 -0.37680294D-05  0.16405131D-02
 -0.55994087D-05  0.11052294D-03  0.31325979D-04 -0.10294930D-02  0.33364676D-03
  0.69584623D-03 -0.10185067D-02  0.11571525D-02 -0.78015968D-03  0.46863101D-03
 -0.34381256D-03 -0.12481845D-03  0.10455666D-02 -0.91129095D-03  0.10449791D-02
 -0.33775610D-03  0.21909511D-03  0.11866099D-03  0.17370492D-03 -0.34512994D-03
 -0.28887311D-03 -0.14959991D-03  0.71001760D-04  0.82116183D-03 -0.57959319D-03
 -0.16787231D-02 -0.18515939D-03  0.10283929D-02  0.14657178D-02 -0.22783261D-02
  0.14961448D-02 -0.27809757D-04  0.36422416D-04 -0.56061297D-03  0.37669969D-03
  0.70396579D-03  0.35067172D-03 -0.29327042D-03 -0.81323304D-03  0.13311672D-02
 -0.18297486D-02  0.33265017D-04  0.59994828D-04  0.88462338D-04  0.62140087D-02
  0.11137125D-02 -0.11068047D-03 -0.30121434D-03  0.12635835D-02 -0.54234988D-03
 -0.11652116D-02 -0.20181329D-03 -0.77158516D-03 -0.43789159D-03 -0.25001920D-03
 -0.44229506D-04  0.12587132D-02 -0.13320536D-02  0.73340425D-04  0.18674934D-02
 -0.11416515D-02  0.34160872D-02  0.17787276D-03 -0.16753544D-03 -0.10337325D-04
  0.24436311D-03 -0.10934717D-03  0.48046332D-03  0.49167332D-05  0.88675308D-05
  0.13075169D-04  0.41454794D-02  0.10302701D-02 -0.84118036D-04  0.42202735D-03
  0.58693872D-03  0.14592637D-02  0.78401409D-04 -0.45555629D-03  0.12122334D-02
  0.14118857D-03  0.65168627D-04  0.25936670D-04  0.12656196D-02  0.10497186D-02
 -0.23153382D-02 -0.92890783D-04 -0.18342823D-02 -0.20272032D-02  0.26843486D-03
  0.70293934D-04 -0.33872880D-03  0.18940823D-03 -0.33505614D-03 -0.16529042D-03
  0.21691181D-02  0.40437293D-02  0.68346148D-02  0.10274665D-01  0.12623613D-01
  0.10662659D-01  0.40215627D-02 -0.19902938D-04 -0.19025653D-03 -0.35622026D-03
 -0.60649547D-03 -0.93815626D-03 -0.12355188D-02 -0.12837832D-02 -0.81578657D-03
  0.54672119D-03  0.72004002D-03  0.54340379D-02  0.85157188D-03  0.16533942D-03
  0.15501622D-03  0.11038078D-03 -0.74773102D-04 -0.70104536D-04 -0.49918606D-04
 -0.11209620D-04 -0.10509731D-04 -0.74835549D-05 -0.23399489D-02  0.17364193D-02
  0.10935498D-02 -0.19183612D-02  0.10854063D-02  0.29875349D-03 -0.72101837D-04
  0.47281350D-04  0.18597876D-04  0.20230748D-03 -0.44557409D-04 -0.15775007D-03
 -0.14042036D-02 -0.90076907D-03  0.49633532D-03  0.14255688D-03 -0.17288990D-03
  0.30333022D-04  0.21042027D-02  0.77381373D-03 -0.46691859D-03  0.83935790D-05
 -0.65020791D-04  0.56627212D-04  0.11852409D-04 -0.85304421D-04  0.26363155D-03
 -0.82030304D-04  0.40602015D-03  0.31190031D-03  0.43133042D-03 -0.13451102D-02
 -0.74971750D-03 -0.18523951D-03  0.12704970D-03 -0.18598341D-03  0.18993423D-02
 -0.65719379D-04  0.94834119D-04  0.63633823D-08  0.42900857D-03 -0.24670371D-03
 -0.17813430D-03 -0.23185044D-03 -0.37798648D-04  0.17811521D-03  0.80549809D-03
  0.12389261D-04  0.22344543D-04  0.32947015D-04 -0.29614502D-03 -0.14732021D-02
  0.22311536D-04  0.88952027D-04  0.17848713D-03  0.38420760D-04  0.96138592D-03
 -0.65467005D-03  0.37395027D-03 -0.50200430D-04 -0.10518499D-04 -0.18889316D-03
 -0.32337653D-04 -0.21121206D-03  0.24354971D-03  0.52127388D-03  0.14181865D-02
 -0.59205795D-03 -0.31678454D-04 -0.39511466D-04  0.71189921D-04  0.16647492D-03
  0.15607886D-03 -0.10534403D-03  0.87283285D-05  0.15741900D-04  0.23211422D-04
 -0.13291908D-02  0.10348133D-02  0.39344126D-04 -0.21147259D-03 -0.22508147D-04
  0.52051004D-04  0.92511584D-03 -0.91113943D-03 -0.77641555D-03 -0.16443475D-03
 -0.79854639D-04 -0.31647402D-04 -0.57493713D-03  0.66854517D-03 -0.93608038D-04
  0.11248160D-02  0.89466932D-03  0.21736766D-03 -0.26267016D-04  0.26700239D-04