 Molden2AIM, Version 4.0.0 (06/02/2016)           Time: Thu Jun 28 23:56:39 2018
GAUSSIAN             28 MOL ORBITALS    708 PRIMITIVES       12 NUCLEI
  H    1    (CENTRE  1)   0.00000000  4.12770988  2.38521987  CHARGE =  1.0
  H    2    (CENTRE  2)   0.00000000 -4.12770988  2.38521987  CHARGE =  1.0
  H    3    (CENTRE  3)   0.00000000  4.12770988 -2.38521987  CHARGE =  1.0
  H    4    (CENTRE  4)   0.00000000 -4.12770988 -2.38521987  CHARGE =  1.0
  C    5    (CENTRE  5)   0.00000000  0.00000000  2.71794773  CHARGE =  6.0
  C    6    (CENTRE  6)   0.00000000  0.00000000 -2.71794773  CHARGE =  6.0
  C    7    (CENTRE  7)   0.00000000  2.39481590  1.26851079  CHARGE =  6.0
  C    8    (CENTRE  8)   0.00000000 -2.39481590  1.26851079  CHARGE =  6.0
  C    9    (CENTRE  9)   0.00000000  2.39481590 -1.26851079  CHARGE =  6.0
  C   10    (CENTRE 10)   0.00000000 -2.39481590 -1.26851079  CHARGE =  6.0
  O   11    (CENTRE 11)   0.00000000  0.00000000  5.02495373  CHARGE =  8.0
  O   12    (CENTRE 12)   0.00000000  0.00000000 -5.02495373  CHARGE =  8.0
CENTRE ASSIGNMENTS    1  1  1  1  1  1  1  1  1  1  1  1  1  1  1  1  1  1  1  1
CENTRE ASSIGNMENTS    1  1  1  1  1  1  1  2  2  2  2  2  2  2  2  2  2  2  2  2
CENTRE ASSIGNMENTS    2  2  2  2  2  2  2  2  2  2  2  2  2  2  3  3  3  3  3  3
CENTRE ASSIGNMENTS    3  3  3  3  3  3  3  3  3  3  3  3  3  3  3  3  3  3  3  3
CENTRE ASSIGNMENTS    3  4  4  4  4  4  4  4  4  4  4  4  4  4  4  4  4  4  4  4
CENTRE ASSIGNMENTS    4  4  4  4  4  4  4  4  5  5  5  5  5  5  5  5  5  5  5  5
CENTRE ASSIGNMENTS    5  5  5  5  5  5  5  5  5  5  5  5  5  5  5  5  5  5  5  5
CENTRE ASSIGNMENTS    5  5  5  5  5  5  5  5  5  5  5  5  5  5  5  5  5  5  5  5
CENTRE ASSIGNMENTS    5  5  5  5  5  5  5  5  5  5  5  5  5  5  5  5  5  5  5  5
CENTRE ASSIGNMENTS    5  5  5  6  6  6  6  6  6  6  6  6  6  6  6  6  6  6  6  6
CENTRE ASSIGNMENTS    6  6  6  6  6  6  6  6  6  6  6  6  6  6  6  6  6  6  6  6
CENTRE ASSIGNMENTS    6  6  6  6  6  6  6  6  6  6  6  6  6  6  6  6  6  6  6  6
CENTRE ASSIGNMENTS    6  6  6  6  6  6  6  6  6  6  6  6  6  6  6  6  6  6  7  7
CENTRE ASSIGNMENTS    7  7  7  7  7  7  7  7  7  7  7  7  7  7  7  7  7  7  7  7
CENTRE ASSIGNMENTS    7  7  7  7  7  7  7  7  7  7  7  7  7  7  7  7  7  7  7  7
CENTRE ASSIGNMENTS    7  7  7  7  7  7  7  7  7  7  7  7  7  7  7  7  7  7  7  7
CENTRE ASSIGNMENTS    7  7  7  7  7  7  7  7  7  7  7  7  7  8  8  8  8  8  8  8
CENTRE ASSIGNMENTS    8  8  8  8  8  8  8  8  8  8  8  8  8  8  8  8  8  8  8  8
CENTRE ASSIGNMENTS    8  8  8  8  8  8  8  8  8  8  8  8  8  8  8  8  8  8  8  8
CENTRE ASSIGNMENTS    8  8  8  8  8  8  8  8  8  8  8  8  8  8  8  8  8  8  8  8
CENTRE ASSIGNMENTS    8  8  8  8  8  8  8  8  9  9  9  9  9  9  9  9  9  9  9  9
CENTRE ASSIGNMENTS    9  9  9  9  9  9  9  9  9  9  9  9  9  9  9  9  9  9  9  9
CENTRE ASSIGNMENTS    9  9  9  9  9  9  9  9  9  9  9  9  9  9  9  9  9  9  9  9
CENTRE ASSIGNMENTS    9  9  9  9  9  9  9  9  9  9  9  9  9  9  9  9  9  9  9  9
CENTRE ASSIGNMENTS    9  9  9 10 10 10 10 10 10 10 10 10 10 10 10 10 10 10 10 10
CENTRE ASSIGNMENTS   10 10 10 10 10 10 10 10 10 10 10 10 10 10 10 10 10 10 10 10
CENTRE ASSIGNMENTS   10 10 10 10 10 10 10 10 10 10 10 10 10 10 10 10 10 10 10 10
CENTRE ASSIGNMENTS   10 10 10 10 10 10 10 10 10 10 10 10 10 10 10 10 10 10 11 11
CENTRE ASSIGNMENTS   11 11 11 11 11 11 11 11 11 11 11 11 11 11 11 11 11 11 11 11
CENTRE ASSIGNMENTS   11 11 11 11 11 11 11 11 11 11 11 11 11 11 11 11 11 11 11 11
CENTRE ASSIGNMENTS   11 11 11 11 11 11 11 11 11 11 11 11 11 11 11 11 11 11 11 11
CENTRE ASSIGNMENTS   11 11 11 11 11 11 11 11 11 11 11 11 11 12 12 12 12 12 12 12
CENTRE ASSIGNMENTS   12 12 12 12 12 12 12 12 12 12 12 12 12 12 12 12 12 12 12 12
CENTRE ASSIGNMENTS   12 12 12 12 12 12 12 12 12 12 12 12 12 12 12 12 12 12 12 12
CENTRE ASSIGNMENTS   12 12 12 12 12 12 12 12 12 12 12 12 12 12 12 12 12 12 12 12
CENTRE ASSIGNMENTS   12 12 12 12 12 12 12 12
TYPE ASSIGNMENTS      1  1  1  1  1  1  2  3  4  2  3  4  2  3  4  5  6  7  8  9
TYPE ASSIGNMENTS     10  5  6  7  8  9 10  1  1  1  1  1  1  2  3  4  2  3  4  2
TYPE ASSIGNMENTS      3  4  5  6  7  8  9 10  5  6  7  8  9 10  1  1  1  1  1  1
TYPE ASSIGNMENTS      2  3  4  2  3  4  2  3  4  5  6  7  8  9 10  5  6  7  8  9
TYPE ASSIGNMENTS     10  1  1  1  1  1  1  2  3  4  2  3  4  2  3  4  5  6  7  8
TYPE ASSIGNMENTS      9 10  5  6  7  8  9 10  1  1  1  1  1  1  1  1  1  1  1  1
TYPE ASSIGNMENTS      1  1  1  1  1  1  1  2  2  2  3  3  3  4  4  4  2  3  4  2
TYPE ASSIGNMENTS      3  4  2  3  4  5  6  7  8  9 10  5  6  7  8  9 10  5  6  7
TYPE ASSIGNMENTS      8  9 10 11 12 13 17 14 15 18 19 16 20 11 12 13 17 14 15 18
TYPE ASSIGNMENTS     19 16 20  1  1  1  1  1  1  1  1  1  1  1  1  1  1  1  1  1
TYPE ASSIGNMENTS      1  1  2  2  2  3  3  3  4  4  4  2  3  4  2  3  4  2  3  4
TYPE ASSIGNMENTS      5  6  7  8  9 10  5  6  7  8  9 10  5  6  7  8  9 10 11 12
TYPE ASSIGNMENTS     13 17 14 15 18 19 16 20 11 12 13 17 14 15 18 19 16 20  1  1
TYPE ASSIGNMENTS      1  1  1  1  1  1  1  1  1  1  1  1  1  1  1  1  1  2  2  2
TYPE ASSIGNMENTS      3  3  3  4  4  4  2  3  4  2  3  4  2  3  4  5  6  7  8  9
TYPE ASSIGNMENTS     10  5  6  7  8  9 10  5  6  7  8  9 10 11 12 13 17 14 15 18
TYPE ASSIGNMENTS     19 16 20 11 12 13 17 14 15 18 19 16 20  1  1  1  1  1  1  1
TYPE ASSIGNMENTS      1  1  1  1  1  1  1  1  1  1  1  1  2  2  2  3  3  3  4  4
TYPE ASSIGNMENTS      4  2  3  4  2  3  4  2  3  4  5  6  7  8  9 10  5  6  7  8
TYPE ASSIGNMENTS      9 10  5  6  7  8  9 10 11 12 13 17 14 15 18 19 16 20 11 12
TYPE ASSIGNMENTS     13 17 14 15 18 19 16 20  1  1  1  1  1  1  1  1  1  1  1  1
TYPE ASSIGNMENTS      1  1  1  1  1  1  1  2  2  2  3  3  3  4  4  4  2  3  4  2
TYPE ASSIGNMENTS      3  4  2  3  4  5  6  7  8  9 10  5  6  7  8  9 10  5  6  7
TYPE ASSIGNMENTS      8  9 10 11 12 13 17 14 15 18 19 16 20 11 12 13 17 14 15 18
TYPE ASSIGNMENTS     19 16 20  1  1  1  1  1  1  1  1  1  1  1  1  1  1  1  1  1
TYPE ASSIGNMENTS      1  1  2  2  2  3  3  3  4  4  4  2  3  4  2  3  4  2  3  4
TYPE ASSIGNMENTS      5  6  7  8  9 10  5  6  7  8  9 10  5  6  7  8  9 10 11 12
TYPE ASSIGNMENTS     13 17 14 15 18 19 16 20 11 12 13 17 14 15 18 19 16 20  1  1
TYPE ASSIGNMENTS      1  1  1  1  1  1  1  1  1  1  1  1  1  1  1  1  1  2  2  2
TYPE ASSIGNMENTS      3  3  3  4  4  4  2  3  4  2  3  4  2  3  4  5  6  7  8  9
TYPE ASSIGNMENTS     10  5  6  7  8  9 10  5  6  7  8  9 10 11 12 13 17 14 15 18
TYPE ASSIGNMENTS     19 16 20 11 12 13 17 14 15 18 19 16 20  1  1  1  1  1  1  1
TYPE ASSIGNMENTS      1  1  1  1  1  1  1  1  1  1  1  1  2  2  2  3  3  3  4  4
TYPE ASSIGNMENTS      4  2  3  4  2  3  4  2  3  4  5  6  7  8  9 10  5  6  7  8
TYPE ASSIGNMENTS      9 10  5  6  7  8  9 10 11 12 13 17 14 15 18 19 16 20 11 12
TYPE ASSIGNMENTS     13 17 14 15 18 19 16 20
EXPONENTS  0.3387000D+02 0.5095000D+01 0.1159000D+01 0.3258000D+00 0.1027000D+00
EXPONENTS  0.2526000D-01 0.1407000D+01 0.1407000D+01 0.1407000D+01 0.3880000D+00
EXPONENTS  0.3880000D+00 0.3880000D+00 0.1020000D+00 0.1020000D+00 0.1020000D+00
EXPONENTS  0.1057000D+01 0.1057000D+01 0.1057000D+01 0.1057000D+01 0.1057000D+01
EXPONENTS  0.1057000D+01 0.2470000D+00 0.2470000D+00 0.2470000D+00 0.2470000D+00
EXPONENTS  0.2470000D+00 0.2470000D+00 0.3387000D+02 0.5095000D+01 0.1159000D+01
EXPONENTS  0.3258000D+00 0.1027000D+00 0.2526000D-01 0.1407000D+01 0.1407000D+01
EXPONENTS  0.1407000D+01 0.3880000D+00 0.3880000D+00 0.3880000D+00 0.1020000D+00
EXPONENTS  0.1020000D+00 0.1020000D+00 0.1057000D+01 0.1057000D+01 0.1057000D+01
EXPONENTS  0.1057000D+01 0.1057000D+01 0.1057000D+01 0.2470000D+00 0.2470000D+00
EXPONENTS  0.2470000D+00 0.2470000D+00 0.2470000D+00 0.2470000D+00 0.3387000D+02
EXPONENTS  0.5095000D+01 0.1159000D+01 0.3258000D+00 0.1027000D+00 0.2526000D-01
EXPONENTS  0.1407000D+01 0.1407000D+01 0.1407000D+01 0.3880000D+00 0.3880000D+00
EXPONENTS  0.3880000D+00 0.1020000D+00 0.1020000D+00 0.1020000D+00 0.1057000D+01
EXPONENTS  0.1057000D+01 0.1057000D+01 0.1057000D+01 0.1057000D+01 0.1057000D+01
EXPONENTS  0.2470000D+00 0.2470000D+00 0.2470000D+00 0.2470000D+00 0.2470000D+00
EXPONENTS  0.2470000D+00 0.3387000D+02 0.5095000D+01 0.1159000D+01 0.3258000D+00
EXPONENTS  0.1027000D+00 0.2526000D-01 0.1407000D+01 0.1407000D+01 0.1407000D+01
EXPONENTS  0.3880000D+00 0.3880000D+00 0.3880000D+00 0.1020000D+00 0.1020000D+00
EXPONENTS  0.1020000D+00 0.1057000D+01 0.1057000D+01 0.1057000D+01 0.1057000D+01
EXPONENTS  0.1057000D+01 0.1057000D+01 0.2470000D+00 0.2470000D+00 0.2470000D+00
EXPONENTS  0.2470000D+00 0.2470000D+00 0.2470000D+00 0.8236000D+04 0.1235000D+04
EXPONENTS  0.2808000D+03 0.7927000D+02 0.2559000D+02 0.8997000D+01 0.3319000D+01
EXPONENTS  0.3643000D+00 0.8236000D+04 0.1235000D+04 0.2808000D+03 0.7927000D+02
EXPONENTS  0.2559000D+02 0.8997000D+01 0.3319000D+01 0.3643000D+00 0.9059000D+00
EXPONENTS  0.1285000D+00 0.4402000D-01 0.1871000D+02 0.4133000D+01 0.1200000D+01
EXPONENTS  0.1871000D+02 0.4133000D+01 0.1200000D+01 0.1871000D+02 0.4133000D+01
EXPONENTS  0.1200000D+01 0.3827000D+00 0.3827000D+00 0.3827000D+00 0.1209000D+00
EXPONENTS  0.1209000D+00 0.1209000D+00 0.3569000D-01 0.3569000D-01 0.3569000D-01
EXPONENTS  0.1097000D+01 0.1097000D+01 0.1097000D+01 0.1097000D+01 0.1097000D+01
EXPONENTS  0.1097000D+01 0.3180000D+00 0.3180000D+00 0.3180000D+00 0.3180000D+00
EXPONENTS  0.3180000D+00 0.3180000D+00 0.1000000D+00 0.1000000D+00 0.1000000D+00
EXPONENTS  0.1000000D+00 0.1000000D+00 0.1000000D+00 0.7610000D+00 0.7610000D+00
EXPONENTS  0.7610000D+00 0.7610000D+00 0.7610000D+00 0.7610000D+00 0.7610000D+00
EXPONENTS  0.7610000D+00 0.7610000D+00 0.7610000D+00 0.2680000D+00 0.2680000D+00
EXPONENTS  0.2680000D+00 0.2680000D+00 0.2680000D+00 0.2680000D+00 0.2680000D+00
EXPONENTS  0.2680000D+00 0.2680000D+00 0.2680000D+00 0.8236000D+04 0.1235000D+04
EXPONENTS  0.2808000D+03 0.7927000D+02 0.2559000D+02 0.8997000D+01 0.3319000D+01
EXPONENTS  0.3643000D+00 0.8236000D+04 0.1235000D+04 0.2808000D+03 0.7927000D+02
EXPONENTS  0.2559000D+02 0.8997000D+01 0.3319000D+01 0.3643000D+00 0.9059000D+00
EXPONENTS  0.1285000D+00 0.4402000D-01 0.1871000D+02 0.4133000D+01 0.1200000D+01
EXPONENTS  0.1871000D+02 0.4133000D+01 0.1200000D+01 0.1871000D+02 0.4133000D+01
EXPONENTS  0.1200000D+01 0.3827000D+00 0.3827000D+00 0.3827000D+00 0.1209000D+00
EXPONENTS  0.1209000D+00 0.1209000D+00 0.3569000D-01 0.3569000D-01 0.3569000D-01
EXPONENTS  0.1097000D+01 0.1097000D+01 0.1097000D+01 0.1097000D+01 0.1097000D+01
EXPONENTS  0.1097000D+01 0.3180000D+00 0.3180000D+00 0.3180000D+00 0.3180000D+00
EXPONENTS  0.3180000D+00 0.3180000D+00 0.1000000D+00 0.1000000D+00 0.1000000D+00
EXPONENTS  0.1000000D+00 0.1000000D+00 0.1000000D+00 0.7610000D+00 0.7610000D+00
EXPONENTS  0.7610000D+00 0.7610000D+00 0.7610000D+00 0.7610000D+00 0.7610000D+00
EXPONENTS  0.7610000D+00 0.7610000D+00 0.7610000D+00 0.2680000D+00 0.2680000D+00
EXPONENTS  0.2680000D+00 0.2680000D+00 0.2680000D+00 0.2680000D+00 0.2680000D+00
EXPONENTS  0.2680000D+00 0.2680000D+00 0.2680000D+00 0.8236000D+04 0.1235000D+04
EXPONENTS  0.2808000D+03 0.7927000D+02 0.2559000D+02 0.8997000D+01 0.3319000D+01
EXPONENTS  0.3643000D+00 0.8236000D+04 0.1235000D+04 0.2808000D+03 0.7927000D+02
EXPONENTS  0.2559000D+02 0.8997000D+01 0.3319000D+01 0.3643000D+00 0.9059000D+00
EXPONENTS  0.1285000D+00 0.4402000D-01 0.1871000D+02 0.4133000D+01 0.1200000D+01
EXPONENTS  0.1871000D+02 0.4133000D+01 0.1200000D+01 0.1871000D+02 0.4133000D+01
EXPONENTS  0.1200000D+01 0.3827000D+00 0.3827000D+00 0.3827000D+00 0.1209000D+00
EXPONENTS  0.1209000D+00 0.1209000D+00 0.3569000D-01 0.3569000D-01 0.3569000D-01
EXPONENTS  0.1097000D+01 0.1097000D+01 0.1097000D+01 0.1097000D+01 0.1097000D+01
EXPONENTS  0.1097000D+01 0.3180000D+00 0.3180000D+00 0.3180000D+00 0.3180000D+00
EXPONENTS  0.3180000D+00 0.3180000D+00 0.1000000D+00 0.1000000D+00 0.1000000D+00
EXPONENTS  0.1000000D+00 0.1000000D+00 0.1000000D+00 0.7610000D+00 0.7610000D+00
EXPONENTS  0.7610000D+00 0.7610000D+00 0.7610000D+00 0.7610000D+00 0.7610000D+00
EXPONENTS  0.7610000D+00 0.7610000D+00 0.7610000D+00 0.2680000D+00 0.2680000D+00
EXPONENTS  0.2680000D+00 0.2680000D+00 0.2680000D+00 0.2680000D+00 0.2680000D+00
EXPONENTS  0.2680000D+00 0.2680000D+00 0.2680000D+00 0.8236000D+04 0.1235000D+04
EXPONENTS  0.2808000D+03 0.7927000D+02 0.2559000D+02 0.8997000D+01 0.3319000D+01
EXPONENTS  0.3643000D+00 0.8236000D+04 0.1235000D+04 0.2808000D+03 0.7927000D+02
EXPONENTS  0.2559000D+02 0.8997000D+01 0.3319000D+01 0.3643000D+00 0.9059000D+00
EXPONENTS  0.1285000D+00 0.4402000D-01 0.1871000D+02 0.4133000D+01 0.1200000D+01
EXPONENTS  0.1871000D+02 0.4133000D+01 0.1200000D+01 0.1871000D+02 0.4133000D+01
EXPONENTS  0.1200000D+01 0.3827000D+00 0.3827000D+00 0.3827000D+00 0.1209000D+00
EXPONENTS  0.1209000D+00 0.1209000D+00 0.3569000D-01 0.3569000D-01 0.3569000D-01
EXPONENTS  0.1097000D+01 0.1097000D+01 0.1097000D+01 0.1097000D+01 0.1097000D+01
EXPONENTS  0.1097000D+01 0.3180000D+00 0.3180000D+00 0.3180000D+00 0.3180000D+00
EXPONENTS  0.3180000D+00 0.3180000D+00 0.1000000D+00 0.1000000D+00 0.1000000D+00
EXPONENTS  0.1000000D+00 0.1000000D+00 0.1000000D+00 0.7610000D+00 0.7610000D+00
EXPONENTS  0.7610000D+00 0.7610000D+00 0.7610000D+00 0.7610000D+00 0.7610000D+00
EXPONENTS  0.7610000D+00 0.7610000D+00 0.7610000D+00 0.2680000D+00 0.2680000D+00
EXPONENTS  0.2680000D+00 0.2680000D+00 0.2680000D+00 0.2680000D+00 0.2680000D+00
EXPONENTS  0.2680000D+00 0.2680000D+00 0.2680000D+00 0.8236000D+04 0.1235000D+04
EXPONENTS  0.2808000D+03 0.7927000D+02 0.2559000D+02 0.8997000D+01 0.3319000D+01
EXPONENTS  0.3643000D+00 0.8236000D+04 0.1235000D+04 0.2808000D+03 0.7927000D+02
EXPONENTS  0.2559000D+02 0.8997000D+01 0.3319000D+01 0.3643000D+00 0.9059000D+00
EXPONENTS  0.1285000D+00 0.4402000D-01 0.1871000D+02 0.4133000D+01 0.1200000D+01
EXPONENTS  0.1871000D+02 0.4133000D+01 0.1200000D+01 0.1871000D+02 0.4133000D+01
EXPONENTS  0.1200000D+01 0.3827000D+00 0.3827000D+00 0.3827000D+00 0.1209000D+00
EXPONENTS  0.1209000D+00 0.1209000D+00 0.3569000D-01 0.3569000D-01 0.3569000D-01
EXPONENTS  0.1097000D+01 0.1097000D+01 0.1097000D+01 0.1097000D+01 0.1097000D+01
EXPONENTS  0.1097000D+01 0.3180000D+00 0.3180000D+00 0.3180000D+00 0.3180000D+00
EXPONENTS  0.3180000D+00 0.3180000D+00 0.1000000D+00 0.1000000D+00 0.1000000D+00
EXPONENTS  0.1000000D+00 0.1000000D+00 0.1000000D+00 0.7610000D+00 0.7610000D+00
EXPONENTS  0.7610000D+00 0.7610000D+00 0.7610000D+00 0.7610000D+00 0.7610000D+00
EXPONENTS  0.7610000D+00 0.7610000D+00 0.7610000D+00 0.2680000D+00 0.2680000D+00
EXPONENTS  0.2680000D+00 0.2680000D+00 0.2680000D+00 0.2680000D+00 0.2680000D+00
EXPONENTS  0.2680000D+00 0.2680000D+00 0.2680000D+00 0.8236000D+04 0.1235000D+04
EXPONENTS  0.2808000D+03 0.7927000D+02 0.2559000D+02 0.8997000D+01 0.3319000D+01
EXPONENTS  0.3643000D+00 0.8236000D+04 0.1235000D+04 0.2808000D+03 0.7927000D+02
EXPONENTS  0.2559000D+02 0.8997000D+01 0.3319000D+01 0.3643000D+00 0.9059000D+00
EXPONENTS  0.1285000D+00 0.4402000D-01 0.1871000D+02 0.4133000D+01 0.1200000D+01
EXPONENTS  0.1871000D+02 0.4133000D+01 0.1200000D+01 0.1871000D+02 0.4133000D+01
EXPONENTS  0.1200000D+01 0.3827000D+00 0.3827000D+00 0.3827000D+00 0.1209000D+00
EXPONENTS  0.1209000D+00 0.1209000D+00 0.3569000D-01 0.3569000D-01 0.3569000D-01
EXPONENTS  0.1097000D+01 0.1097000D+01 0.1097000D+01 0.1097000D+01 0.1097000D+01
EXPONENTS  0.1097000D+01 0.3180000D+00 0.3180000D+00 0.3180000D+00 0.3180000D+00
EXPONENTS  0.3180000D+00 0.3180000D+00 0.1000000D+00 0.1000000D+00 0.1000000D+00
EXPONENTS  0.1000000D+00 0.1000000D+00 0.1000000D+00 0.7610000D+00 0.7610000D+00
EXPONENTS  0.7610000D+00 0.7610000D+00 0.7610000D+00 0.7610000D+00 0.7610000D+00
EXPONENTS  0.7610000D+00 0.7610000D+00 0.7610000D+00 0.2680000D+00 0.2680000D+00
EXPONENTS  0.2680000D+00 0.2680000D+00 0.2680000D+00 0.2680000D+00 0.2680000D+00
EXPONENTS  0.2680000D+00 0.2680000D+00 0.2680000D+00 0.1533000D+05 0.2299000D+04
EXPONENTS  0.5224000D+03 0.1473000D+03 0.4755000D+02 0.1676000D+02 0.6207000D+01
EXPONENTS  0.6882000D+00 0.1533000D+05 0.2299000D+04 0.5224000D+03 0.1473000D+03
EXPONENTS  0.4755000D+02 0.1676000D+02 0.6207000D+01 0.6882000D+00 0.1752000D+01
EXPONENTS  0.2384000D+00 0.7376000D-01 0.3446000D+02 0.7749000D+01 0.2280000D+01
EXPONENTS  0.3446000D+02 0.7749000D+01 0.2280000D+01 0.3446000D+02 0.7749000D+01
EXPONENTS  0.2280000D+01 0.7156000D+00 0.7156000D+00 0.7156000D+00 0.2140000D+00
EXPONENTS  0.2140000D+00 0.2140000D+00 0.5974000D-01 0.5974000D-01 0.5974000D-01
EXPONENTS  0.2314000D+01 0.2314000D+01 0.2314000D+01 0.2314000D+01 0.2314000D+01
EXPONENTS  0.2314000D+01 0.6450000D+00 0.6450000D+00 0.6450000D+00 0.6450000D+00
EXPONENTS  0.6450000D+00 0.6450000D+00 0.2140000D+00 0.2140000D+00 0.2140000D+00
EXPONENTS  0.2140000D+00 0.2140000D+00 0.2140000D+00 0.1428000D+01 0.1428000D+01
EXPONENTS  0.1428000D+01 0.1428000D+01 0.1428000D+01 0.1428000D+01 0.1428000D+01
EXPONENTS  0.1428000D+01 0.1428000D+01 0.1428000D+01 0.5000000D+00 0.5000000D+00
EXPONENTS  0.5000000D+00 0.5000000D+00 0.5000000D+00 0.5000000D+00 0.5000000D+00
EXPONENTS  0.5000000D+00 0.5000000D+00 0.5000000D+00 0.1533000D+05 0.2299000D+04
EXPONENTS  0.5224000D+03 0.1473000D+03 0.4755000D+02 0.1676000D+02 0.6207000D+01
EXPONENTS  0.6882000D+00 0.1533000D+05 0.2299000D+04 0.5224000D+03 0.1473000D+03
EXPONENTS  0.4755000D+02 0.1676000D+02 0.6207000D+01 0.6882000D+00 0.1752000D+01
EXPONENTS  0.2384000D+00 0.7376000D-01 0.3446000D+02 0.7749000D+01 0.2280000D+01
EXPONENTS  0.3446000D+02 0.7749000D+01 0.2280000D+01 0.3446000D+02 0.7749000D+01
EXPONENTS  0.2280000D+01 0.7156000D+00 0.7156000D+00 0.7156000D+00 0.2140000D+00
EXPONENTS  0.2140000D+00 0.2140000D+00 0.5974000D-01 0.5974000D-01 0.5974000D-01
EXPONENTS  0.2314000D+01 0.2314000D+01 0.2314000D+01 0.2314000D+01 0.2314000D+01
EXPONENTS  0.2314000D+01 0.6450000D+00 0.6450000D+00 0.6450000D+00 0.6450000D+00
EXPONENTS  0.6450000D+00 0.6450000D+00 0.2140000D+00 0.2140000D+00 0.2140000D+00
EXPONENTS  0.2140000D+00 0.2140000D+00 0.2140000D+00 0.1428000D+01 0.1428000D+01
EXPONENTS  0.1428000D+01 0.1428000D+01 0.1428000D+01 0.1428000D+01 0.1428000D+01
EXPONENTS  0.1428000D+01 0.1428000D+01 0.1428000D+01 0.5000000D+00 0.5000000D+00
EXPONENTS  0.5000000D+00 0.5000000D+00 0.5000000D+00 0.5000000D+00 0.5000000D+00
EXPONENTS  0.5000000D+00 0.5000000D+00 0.5000000D+00
MO    1     MO 0.0        OCC NO =    2.0000000  ORB. ENERGY =  -18.773223
 -0.66592813D-04 -0.12010288D-03 -0.17709163D-03 -0.22063761D-02 -0.46659345D-02
  0.25167103D-04  0.29906398D-15 -0.26132241D-04  0.93207340D-04 -0.11182558D-15
  0.27651034D-03 -0.70910997D-03 -0.12438279D-17  0.35676488D-03  0.18555878D-03
 -0.34104458D-03  0.23246343D-03  0.10858115D-03  0.64453230D-16  0.89560176D-16
  0.15302669D-03 -0.10537260D-03 -0.75013368D-05  0.11287393D-03  0.22616775D-17
 -0.15306453D-16  0.10726177D-03 -0.66592813D-04 -0.12010288D-03 -0.17709163D-03
 -0.22063761D-02 -0.46659345D-02  0.25167103D-04 -0.10040215D-18  0.26132241D-04
  0.93207340D-04  0.47882740D-19 -0.27651034D-03 -0.70910997D-03 -0.98228601D-18
 -0.35676488D-03  0.18555878D-03 -0.34104458D-03  0.23246343D-03  0.10858115D-03
 -0.67733795D-18  0.28414307D-18 -0.15302669D-03 -0.10537260D-03 -0.75013368D-05
  0.11287393D-03 -0.23792871D-18 -0.10255089D-18 -0.10726177D-03 -0.66593767D-04
 -0.12010460D-03 -0.17709417D-03 -0.22063749D-02 -0.46660847D-02  0.25168523D-04
  0.20149867D-17 -0.26130627D-04 -0.93208804D-04 -0.27527501D-17  0.27649767D-03
  0.70911802D-03  0.16445507D-18  0.35677622D-03 -0.18556705D-03 -0.34104899D-03
  0.23246653D-03  0.10858246D-03  0.27834756D-18 -0.41369936D-18 -0.15302810D-03
 -0.10537433D-03 -0.75002494D-05  0.11287458D-03 -0.16155447D-19 -0.13264784D-17
 -0.10726232D-03 -0.66593767D-04 -0.12010460D-03 -0.17709417D-03 -0.22063749D-02
 -0.46660847D-02  0.25168523D-04  0.43656257D-18  0.26130627D-04 -0.93208804D-04
 -0.96331267D-18 -0.27649767D-03  0.70911802D-03  0.74443279D-18 -0.35677622D-03
 -0.18556705D-03 -0.34104899D-03  0.23246653D-03  0.10858246D-03 -0.77922283D-18
  0.35099525D-19  0.15302810D-03 -0.10537433D-03 -0.75002494D-05  0.11287458D-03
  0.28837734D-18 -0.16764331D-18  0.10726232D-03  0.51314459D-03  0.95661819D-03
  0.16168533D-02  0.24306601D-02  0.29863468D-02  0.25224472D-02  0.95137429D-03
 -0.47084045D-05 -0.39469437D-03 -0.73899240D-03 -0.12581978D-02 -0.19462407D-02
 -0.25631305D-02 -0.26632568D-02 -0.16923801D-02  0.11341938D-02  0.11838358D-02
  0.54332220D-02 -0.25460698D-02  0.31619844D-19  0.29645613D-19  0.21109443D-19
  0.12423688D-13  0.11647997D-13  0.82940678D-14  0.25998583D-03  0.24375324D-03
  0.17356683D-03  0.40225705D-18 -0.23347974D-13  0.46001146D-02  0.18435331D-17
 -0.49597493D-13 -0.50820317D-04 -0.26813320D-18 -0.94664583D-13  0.10428035D-03
 -0.38604927D-03 -0.99682720D-03  0.13828765D-02  0.17831727D-17  0.73196579D-18
  0.14002230D-13  0.17699944D-03  0.12085897D-02 -0.13855892D-02 -0.10287460D-17
  0.32042649D-18 -0.30150185D-13  0.89436121D-04  0.68531369D-03 -0.77474981D-03
  0.16667296D-17  0.61627665D-19  0.57500210D-14 -0.32546892D-18  0.58407783D-14
 -0.13510951D-03  0.10908425D-17 -0.22727178D-14 -0.10529078D-03 -0.11443574D-18
 -0.15249617D-13  0.51061932D-03  0.13948105D-17 -0.54805353D-19 -0.74429445D-14
 -0.68542047D-03 -0.13401714D-17  0.92390289D-14  0.35554308D-03  0.15045874D-17
  0.13089805D-13  0.17007183D-02  0.10191940D-17  0.51315341D-03  0.95663464D-03
  0.16168811D-02  0.24307019D-02  0.29863981D-02  0.25224906D-02  0.95139064D-03
 -0.47084854D-05 -0.39470120D-03 -0.73900518D-03 -0.12582195D-02 -0.19462743D-02
 -0.25631748D-02 -0.26633028D-02 -0.16924094D-02  0.11342134D-02  0.11838556D-02
  0.54332920D-02 -0.25461379D-02  0.25884812D-17  0.24268657D-17  0.17280729D-17
 -0.19071314D-13 -0.17880569D-13 -0.12732031D-13 -0.25999253D-03 -0.24375952D-03
 -0.17357130D-03 -0.31072469D-17  0.39280881D-13 -0.46001956D-02 -0.15500283D-17
  0.98524279D-13  0.50810454D-04  0.25323376D-19  0.10256263D-12 -0.10428141D-03
 -0.38605997D-03 -0.99684329D-03  0.13829033D-02  0.11214885D-17  0.14786115D-17
  0.17082861D-13  0.17700503D-03  0.12085936D-02 -0.13855986D-02 -0.30632950D-17
 -0.26864736D-17 -0.33671742D-13  0.89439353D-04  0.68532834D-03 -0.77476769D-03
 -0.13026842D-17 -0.56321635D-19  0.14077200D-14  0.38924300D-18 -0.58575085D-14
  0.13511029D-03 -0.12182338D-17  0.14542642D-14  0.10529301D-03  0.50504770D-19
  0.16118261D-13 -0.51062388D-03 -0.14658229D-17  0.12757577D-18  0.66693061D-14
  0.68543009D-03  0.57587520D-18 -0.10537291D-13 -0.35554849D-03 -0.95860251D-18
 -0.94706268D-14 -0.17007418D-02 -0.77777523D-18  0.17391230D-04  0.32421207D-04
  0.54797551D-04  0.82378669D-04  0.10121171D-03  0.85489472D-04  0.32243483D-04
 -0.15957480D-06 -0.60246406D-05 -0.11280028D-04 -0.19205213D-04 -0.29707544D-04
 -0.39123791D-04 -0.40652125D-04 -0.25832600D-04  0.17312408D-04 -0.35183670D-03
  0.77806098D-03  0.10266075D-02 -0.42844255D-18 -0.40169213D-18 -0.28602872D-18
  0.36115308D-03  0.33860397D-03  0.24110620D-03 -0.30468291D-04 -0.28565959D-04
 -0.20340665D-04  0.10230176D-17 -0.29061313D-02  0.13158776D-02  0.59564092D-19
  0.21433705D-02 -0.18599874D-02  0.26503525D-18 -0.56743628D-04 -0.33696183D-04
 -0.25674828D-04 -0.19677805D-03  0.22245288D-03 -0.28187904D-17  0.14491801D-17
 -0.33169023D-03 -0.16742644D-03  0.49502416D-03 -0.32759772D-03 -0.28301414D-17
 -0.40487961D-17  0.67423170D-03 -0.38926456D-04  0.23613536D-03 -0.19720890D-03
  0.14113385D-17 -0.14449380D-17  0.70561345D-03 -0.39351145D-18  0.27425313D-04
  0.18250814D-04 -0.22798067D-19  0.21113327D-03 -0.94343776D-05  0.12033324D-17
 -0.29340920D-03 -0.45318063D-04 -0.28185288D-18  0.33517684D-18 -0.30107375D-03
 -0.33964916D-03 -0.16202531D-17 -0.36601992D-03  0.20590638D-03  0.61472259D-18
  0.12692412D-02  0.81304111D-03 -0.30299953D-17  0.17391230D-04  0.32421207D-04
  0.54797551D-04  0.82378669D-04  0.10121171D-03  0.85489472D-04  0.32243483D-04
 -0.15957480D-06 -0.60246406D-05 -0.11280028D-04 -0.19205213D-04 -0.29707544D-04
 -0.39123791D-04 -0.40652125D-04 -0.25832600D-04  0.17312408D-04 -0.35183670D-03
  0.77806098D-03  0.10266075D-02 -0.28909841D-18 -0.27104813D-18 -0.19300242D-18
 -0.36115308D-03 -0.33860397D-03 -0.24110620D-03 -0.30468291D-04 -0.28565959D-04
 -0.20340665D-04  0.47548459D-18  0.29061313D-02  0.13158776D-02  0.11839332D-17
 -0.21433705D-02 -0.18599874D-02  0.28892867D-18  0.56743628D-04 -0.33696183D-04
 -0.25674828D-04 -0.19677805D-03  0.22245288D-03  0.40347511D-18  0.86274782D-18
  0.33169023D-03 -0.16742644D-03  0.49502416D-03 -0.32759772D-03 -0.16902147D-17
 -0.38372553D-18 -0.67423170D-03 -0.38926456D-04  0.23613536D-03 -0.19720890D-03
  0.16149175D-18  0.13603985D-17 -0.70561345D-03  0.28310491D-18 -0.27425313D-04
  0.18250814D-04 -0.46806022D-18 -0.21113327D-03 -0.94343776D-05 -0.38125450D-18
  0.29340920D-03 -0.45318063D-04 -0.18762108D-17 -0.18520337D-18  0.30107375D-03
 -0.33964916D-03 -0.40190565D-18  0.36601992D-03  0.20590638D-03  0.95751577D-18
 -0.12692412D-02  0.81304111D-03  0.13569210D-17  0.17394521D-04  0.32427342D-04
  0.54807921D-04  0.82394258D-04  0.10123087D-03  0.85505650D-04  0.32249585D-04
 -0.15960500D-06 -0.60270843D-05 -0.11284603D-04 -0.19213003D-04 -0.29719594D-04
 -0.39139660D-04 -0.40668614D-04 -0.25843078D-04  0.17319430D-04 -0.35182792D-03
  0.77806936D-03  0.10266458D-02 -0.14316987D-17 -0.13423086D-17 -0.95580367D-18
  0.36115087D-03  0.33860190D-03  0.24110472D-03  0.30473005D-04  0.28570379D-04
  0.20343812D-04  0.60194128D-18 -0.29061426D-02 -0.13158975D-02 -0.22864681D-18
  0.21433768D-02  0.18599915D-02 -0.14763953D-18 -0.56746750D-04  0.33696153D-04
 -0.25674672D-04 -0.19677806D-03  0.22245273D-03  0.28871027D-17  0.10680729D-17
  0.33169774D-03 -0.16742114D-03  0.49502964D-03 -0.32760850D-03 -0.32238473D-17
 -0.41142633D-17 -0.67419833D-03 -0.38928778D-04  0.23614267D-03 -0.19721390D-03
 -0.12384681D-17 -0.12035783D-17 -0.70563510D-03  0.16763254D-18  0.27421935D-04
 -0.18251409D-04 -0.29219103D-18  0.21113418D-03  0.94346019D-05 -0.21070659D-18
 -0.29339999D-03  0.45319624D-04 -0.11448262D-17 -0.31059185D-18 -0.30107585D-03
  0.33965261D-03  0.24130507D-17 -0.36602159D-03 -0.20590571D-03 -0.14812752D-17
  0.12692491D-02 -0.81305212D-03 -0.72224223D-19  0.17394521D-04  0.32427342D-04
  0.54807921D-04  0.82394258D-04  0.10123087D-03  0.85505650D-04  0.32249585D-04
 -0.15960500D-06 -0.60270843D-05 -0.11284603D-04 -0.19213003D-04 -0.29719594D-04
 -0.39139660D-04 -0.40668614D-04 -0.25843078D-04  0.17319430D-04 -0.35182792D-03
  0.77806936D-03  0.10266458D-02  0.16439928D-17  0.15413477D-17  0.10975314D-17
 -0.36115087D-03 -0.33860190D-03 -0.24110472D-03  0.30473005D-04  0.28570379D-04
  0.20343812D-04 -0.21479013D-17  0.29061426D-02 -0.13158975D-02 -0.35839968D-18
 -0.21433768D-02  0.18599915D-02 -0.15673972D-18  0.56746750D-04  0.33696153D-04
 -0.25674672D-04 -0.19677806D-03  0.22245273D-03 -0.13682535D-18  0.26547195D-18
 -0.33169774D-03 -0.16742114D-03  0.49502964D-03 -0.32760850D-03  0.43885984D-18
 -0.55043783D-18  0.67419833D-03 -0.38928778D-04  0.23614267D-03 -0.19721390D-03
 -0.18741553D-18  0.11806729D-17  0.70563510D-03 -0.36702186D-18 -0.27421935D-04
 -0.18251408D-04  0.47211550D-18 -0.21113418D-03  0.94346019D-05  0.62895007D-18
  0.29339999D-03  0.45319624D-04 -0.46031820D-18  0.74234180D-19  0.30107585D-03
  0.33965261D-03  0.33347827D-18  0.36602159D-03 -0.20590571D-03 -0.55618081D-18
 -0.12692491D-02 -0.81305212D-03  0.14686242D-17  0.35165357D+00  0.65543701D+00
  0.11114040D+01  0.16821617D+01  0.20988467D+01  0.18026294D+01  0.69206448D+00
 -0.30956469D-02 -0.32532245D-03 -0.61015031D-03 -0.10401725D-02 -0.16255872D-02
 -0.21737198D-02 -0.23210260D-02 -0.14190298D-02  0.93618965D-03  0.40388738D-01
  0.27203382D-02  0.33308652D-02  0.74061998D-17  0.71815225D-17  0.48446127D-17
  0.26783565D-14  0.25971049D-14  0.17519916D-14 -0.54476580D-02 -0.52823958D-02
 -0.35634730D-02 -0.20421565D-17 -0.60882646D-14 -0.23588532D-03 -0.21552245D-17
  0.23178761D-13  0.18537742D-02 -0.28616955D-19  0.16129582D-14 -0.20507642D-03
 -0.15993172D-02 -0.10141267D-02  0.26134439D-02  0.78956055D-18  0.72191271D-18
  0.11781507D-13  0.10291409D-02  0.20081596D-03 -0.12299569D-02 -0.94806994D-18
  0.88218571D-18 -0.14062117D-13  0.34451624D-03  0.14724000D-03 -0.49175624D-03
 -0.67340447D-18  0.10005454D-17 -0.14837937D-13 -0.20512223D-17  0.23150738D-14
  0.16941942D-03  0.38001673D-17 -0.34069934D-14 -0.14796554D-03  0.23534996D-17
 -0.35382281D-14 -0.36029272D-03 -0.41114966D-17  0.33890413D-18 -0.27056253D-14
  0.28373439D-03 -0.45691149D-18 -0.33900891D-14 -0.71139739D-03 -0.55980091D-18
  0.11506965D-13 -0.13980577D-03  0.10467800D-17  0.35165997D+00  0.65544895D+00
  0.11114242D+01  0.16821924D+01  0.20988849D+01  0.18026622D+01  0.69207708D+00
 -0.30957032D-02 -0.32532597D-03 -0.61015692D-03 -0.10401838D-02 -0.16256048D-02
 -0.21737433D-02 -0.23210511D-02 -0.14190451D-02  0.93619979D-03  0.40389473D-01
  0.27203712D-02  0.33309393D-02 -0.16801101D-17 -0.16291416D-17 -0.10990093D-17
 -0.20684409D-14 -0.20056919D-14 -0.13530279D-14  0.54477569D-02  0.52824917D-02
  0.35635377D-02  0.43710352D-18  0.49744985D-14  0.23588506D-03  0.69012014D-18
 -0.37807492D-13 -0.18538258D-02  0.91432757D-19 -0.33342371D-14  0.20508023D-03
 -0.15993437D-02 -0.10141509D-02  0.26134946D-02  0.85321743D-18 -0.20275211D-17
  0.21994161D-13  0.10291583D-02  0.20082417D-03 -0.12299824D-02  0.86020085D-18
  0.83386071D-18 -0.21629653D-13  0.34452436D-03  0.14724381D-03 -0.49176816D-03
  0.17191018D-18  0.19843741D-18 -0.18203997D-13  0.40470080D-18 -0.34585121D-14
 -0.16942193D-03 -0.50347409D-18  0.80258097D-14  0.14796359D-03 -0.71062831D-18
  0.23497265D-14  0.36030219D-03  0.96825476D-18 -0.37129332D-19  0.35862367D-14
 -0.28374050D-03  0.81141450D-19  0.25175781D-14  0.71141157D-03  0.30246546D-19
 -0.13276288D-13  0.13980994D-03  0.72279949D-18
MO    2     MO 0.0        OCC NO =    2.0000000  ORB. ENERGY =  -18.773218
 -0.52375614D-04 -0.94461577D-04 -0.13928354D-03  0.64988424D-04 -0.82465171D-02