 Molden2AIM, Version 4.0.0 (06/02/2016)           Time: Fri Jun 29 00:25:04 2018
GAUSSIAN             22 MOL ORBITALS    666 PRIMITIVES       14 NUCLEI
  H    1    (CENTRE  1)  -1.80916332  2.28062920  0.00000000  CHARGE =  1.0
  H    2    (CENTRE  2)   1.80916332 -2.28062920  0.00000000  CHARGE =  1.0
  H    3    (CENTRE  3)   4.06971040  1.79585398  0.00000000  CHARGE =  1.0
  H    4    (CENTRE  4)  -4.06971040 -1.79585398  0.00000000  CHARGE =  1.0
  H    5    (CENTRE  5)   4.02972191  6.42239675  0.00000000  CHARGE =  1.0
  H    6    (CENTRE  6)  -4.02972191 -6.42239675  0.00000000  CHARGE =  1.0
  H    7    (CENTRE  7)   0.51122194  6.42373090  0.00000000  CHARGE =  1.0
  H    8    (CENTRE  8)  -0.51122194 -6.42373090  0.00000000  CHARGE =  1.0
  C    9    (CENTRE  9)   0.00071810  1.27697865  0.00000000  CHARGE =  6.0
  C   10    (CENTRE 10)  -0.00071810 -1.27697865  0.00000000  CHARGE =  6.0
  C   11    (CENTRE 11)   2.26675483  2.80950685  0.00000000  CHARGE =  6.0
  C   12    (CENTRE 12)  -2.26675483 -2.80950685  0.00000000  CHARGE =  6.0
  C   13    (CENTRE 13)   2.27244858  5.34867704  0.00000000  CHARGE =  6.0
  C   14    (CENTRE 14)  -2.27244858 -5.34867704  0.00000000  CHARGE =  6.0
CENTRE ASSIGNMENTS    1  1  1  1  1  1  1  1  1  1  1  1  1  1  1  1  1  1  1  1
CENTRE ASSIGNMENTS    1  1  1  1  1  1  1  2  2  2  2  2  2  2  2  2  2  2  2  2
CENTRE ASSIGNMENTS    2  2  2  2  2  2  2  2  2  2  2  2  2  2  3  3  3  3  3  3
CENTRE ASSIGNMENTS    3  3  3  3  3  3  3  3  3  3  3  3  3  3  3  3  3  3  3  3
CENTRE ASSIGNMENTS    3  4  4  4  4  4  4  4  4  4  4  4  4  4  4  4  4  4  4  4
CENTRE ASSIGNMENTS    4  4  4  4  4  4  4  4  5  5  5  5  5  5  5  5  5  5  5  5
CENTRE ASSIGNMENTS    5  5  5  5  5  5  5  5  5  5  5  5  5  5  5  6  6  6  6  6
CENTRE ASSIGNMENTS    6  6  6  6  6  6  6  6  6  6  6  6  6  6  6  6  6  6  6  6
CENTRE ASSIGNMENTS    6  6  7  7  7  7  7  7  7  7  7  7  7  7  7  7  7  7  7  7
CENTRE ASSIGNMENTS    7  7  7  7  7  7  7  7  7  8  8  8  8  8  8  8  8  8  8  8
CENTRE ASSIGNMENTS    8  8  8  8  8  8  8  8  8  8  8  8  8  8  8  8  9  9  9  9
CENTRE ASSIGNMENTS    9  9  9  9  9  9  9  9  9  9  9  9  9  9  9  9  9  9  9  9
CENTRE ASSIGNMENTS    9  9  9  9  9  9  9  9  9  9  9  9  9  9  9  9  9  9  9  9
CENTRE ASSIGNMENTS    9  9  9  9  9  9  9  9  9  9  9  9  9  9  9  9  9  9  9  9
CENTRE ASSIGNMENTS    9  9  9  9  9  9  9  9  9  9  9 10 10 10 10 10 10 10 10 10
CENTRE ASSIGNMENTS   10 10 10 10 10 10 10 10 10 10 10 10 10 10 10 10 10 10 10 10
CENTRE ASSIGNMENTS   10 10 10 10 10 10 10 10 10 10 10 10 10 10 10 10 10 10 10 10
CENTRE ASSIGNMENTS   10 10 10 10 10 10 10 10 10 10 10 10 10 10 10 10 10 10 10 10
CENTRE ASSIGNMENTS   10 10 10 10 10 10 11 11 11 11 11 11 11 11 11 11 11 11 11 11
CENTRE ASSIGNMENTS   11 11 11 11 11 11 11 11 11 11 11 11 11 11 11 11 11 11 11 11
CENTRE ASSIGNMENTS   11 11 11 11 11 11 11 11 11 11 11 11 11 11 11 11 11 11 11 11
CENTRE ASSIGNMENTS   11 11 11 11 11 11 11 11 11 11 11 11 11 11 11 11 11 11 11 11
CENTRE ASSIGNMENTS   11 12 12 12 12 12 12 12 12 12 12 12 12 12 12 12 12 12 12 12
CENTRE ASSIGNMENTS   12 12 12 12 12 12 12 12 12 12 12 12 12 12 12 12 12 12 12 12
CENTRE ASSIGNMENTS   12 12 12 12 12 12 12 12 12 12 12 12 12 12 12 12 12 12 12 12
CENTRE ASSIGNMENTS   12 12 12 12 12 12 12 12 12 12 12 12 12 12 12 12 13 13 13 13
CENTRE ASSIGNMENTS   13 13 13 13 13 13 13 13 13 13 13 13 13 13 13 13 13 13 13 13
CENTRE ASSIGNMENTS   13 13 13 13 13 13 13 13 13 13 13 13 13 13 13 13 13 13 13 13
CENTRE ASSIGNMENTS   13 13 13 13 13 13 13 13 13 13 13 13 13 13 13 13 13 13 13 13
CENTRE ASSIGNMENTS   13 13 13 13 13 13 13 13 13 13 13 14 14 14 14 14 14 14 14 14
CENTRE ASSIGNMENTS   14 14 14 14 14 14 14 14 14 14 14 14 14 14 14 14 14 14 14 14
CENTRE ASSIGNMENTS   14 14 14 14 14 14 14 14 14 14 14 14 14 14 14 14 14 14 14 14
CENTRE ASSIGNMENTS   14 14 14 14 14 14 14 14 14 14 14 14 14 14 14 14 14 14 14 14
CENTRE ASSIGNMENTS   14 14 14 14 14 14
TYPE ASSIGNMENTS      1  1  1  1  1  1  2  3  4  2  3  4  2  3  4  5  6  7  8  9
TYPE ASSIGNMENTS     10  5  6  7  8  9 10  1  1  1  1  1  1  2  3  4  2  3  4  2
TYPE ASSIGNMENTS      3  4  5  6  7  8  9 10  5  6  7  8  9 10  1  1  1  1  1  1
TYPE ASSIGNMENTS      2  3  4  2  3  4  2  3  4  5  6  7  8  9 10  5  6  7  8  9
TYPE ASSIGNMENTS     10  1  1  1  1  1  1  2  3  4  2  3  4  2  3  4  5  6  7  8
TYPE ASSIGNMENTS      9 10  5  6  7  8  9 10  1  1  1  1  1  1  2  3  4  2  3  4
TYPE ASSIGNMENTS      2  3  4  5  6  7  8  9 10  5  6  7  8  9 10  1  1  1  1  1
TYPE ASSIGNMENTS      1  2  3  4  2  3  4  2  3  4  5  6  7  8  9 10  5  6  7  8
TYPE ASSIGNMENTS      9 10  1  1  1  1  1  1  2  3  4  2  3  4  2  3  4  5  6  7
TYPE ASSIGNMENTS      8  9 10  5  6  7  8  9 10  1  1  1  1  1  1  2  3  4  2  3
TYPE ASSIGNMENTS      4  2  3  4  5  6  7  8  9 10  5  6  7  8  9 10  1  1  1  1
TYPE ASSIGNMENTS      1  1  1  1  1  1  1  1  1  1  1  1  1  1  1  2  2  2  3  3
TYPE ASSIGNMENTS      3  4  4  4  2  3  4  2  3  4  2  3  4  5  6  7  8  9 10  5
TYPE ASSIGNMENTS      6  7  8  9 10  5  6  7  8  9 10 11 12 13 17 14 15 18 19 16
TYPE ASSIGNMENTS     20 11 12 13 17 14 15 18 19 16 20  1  1  1  1  1  1  1  1  1
TYPE ASSIGNMENTS      1  1  1  1  1  1  1  1  1  1  2  2  2  3  3  3  4  4  4  2
TYPE ASSIGNMENTS      3  4  2  3  4  2  3  4  5  6  7  8  9 10  5  6  7  8  9 10
TYPE ASSIGNMENTS      5  6  7  8  9 10 11 12 13 17 14 15 18 19 16 20 11 12 13 17
TYPE ASSIGNMENTS     14 15 18 19 16 20  1  1  1  1  1  1  1  1  1  1  1  1  1  1
TYPE ASSIGNMENTS      1  1  1  1  1  2  2  2  3  3  3  4  4  4  2  3  4  2  3  4
TYPE ASSIGNMENTS      2  3  4  5  6  7  8  9 10  5  6  7  8  9 10  5  6  7  8  9
TYPE ASSIGNMENTS     10 11 12 13 17 14 15 18 19 16 20 11 12 13 17 14 15 18 19 16
TYPE ASSIGNMENTS     20  1  1  1  1  1  1  1  1  1  1  1  1  1  1  1  1  1  1  1
TYPE ASSIGNMENTS      2  2  2  3  3  3  4  4  4  2  3  4  2  3  4  2  3  4  5  6
TYPE ASSIGNMENTS      7  8  9 10  5  6  7  8  9 10  5  6  7  8  9 10 11 12 13 17
TYPE ASSIGNMENTS     14 15 18 19 16 20 11 12 13 17 14 15 18 19 16 20  1  1  1  1
TYPE ASSIGNMENTS      1  1  1  1  1  1  1  1  1  1  1  1  1  1  1  2  2  2  3  3
TYPE ASSIGNMENTS      3  4  4  4  2  3  4  2  3  4  2  3  4  5  6  7  8  9 10  5
TYPE ASSIGNMENTS      6  7  8  9 10  5  6  7  8  9 10 11 12 13 17 14 15 18 19 16
TYPE ASSIGNMENTS     20 11 12 13 17 14 15 18 19 16 20  1  1  1  1  1  1  1  1  1
TYPE ASSIGNMENTS      1  1  1  1  1  1  1  1  1  1  2  2  2  3  3  3  4  4  4  2
TYPE ASSIGNMENTS      3  4  2  3  4  2  3  4  5  6  7  8  9 10  5  6  7  8  9 10
TYPE ASSIGNMENTS      5  6  7  8  9 10 11 12 13 17 14 15 18 19 16 20 11 12 13 17
TYPE ASSIGNMENTS     14 15 18 19 16 20
EXPONENTS  0.3387000D+02 0.5095000D+01 0.1159000D+01 0.3258000D+00 0.1027000D+00
EXPONENTS  0.2526000D-01 0.1407000D+01 0.1407000D+01 0.1407000D+01 0.3880000D+00
EXPONENTS  0.3880000D+00 0.3880000D+00 0.1020000D+00 0.1020000D+00 0.1020000D+00
EXPONENTS  0.1057000D+01 0.1057000D+01 0.1057000D+01 0.1057000D+01 0.1057000D+01
EXPONENTS  0.1057000D+01 0.2470000D+00 0.2470000D+00 0.2470000D+00 0.2470000D+00
EXPONENTS  0.2470000D+00 0.2470000D+00 0.3387000D+02 0.5095000D+01 0.1159000D+01
EXPONENTS  0.3258000D+00 0.1027000D+00 0.2526000D-01 0.1407000D+01 0.1407000D+01
EXPONENTS  0.1407000D+01 0.3880000D+00 0.3880000D+00 0.3880000D+00 0.1020000D+00
EXPONENTS  0.1020000D+00 0.1020000D+00 0.1057000D+01 0.1057000D+01 0.1057000D+01
EXPONENTS  0.1057000D+01 0.1057000D+01 0.1057000D+01 0.2470000D+00 0.2470000D+00
EXPONENTS  0.2470000D+00 0.2470000D+00 0.2470000D+00 0.2470000D+00 0.3387000D+02
EXPONENTS  0.5095000D+01 0.1159000D+01 0.3258000D+00 0.1027000D+00 0.2526000D-01
EXPONENTS  0.1407000D+01 0.1407000D+01 0.1407000D+01 0.3880000D+00 0.3880000D+00
EXPONENTS  0.3880000D+00 0.1020000D+00 0.1020000D+00 0.1020000D+00 0.1057000D+01
EXPONENTS  0.1057000D+01 0.1057000D+01 0.1057000D+01 0.1057000D+01 0.1057000D+01
EXPONENTS  0.2470000D+00 0.2470000D+00 0.2470000D+00 0.2470000D+00 0.2470000D+00
EXPONENTS  0.2470000D+00 0.3387000D+02 0.5095000D+01 0.1159000D+01 0.3258000D+00
EXPONENTS  0.1027000D+00 0.2526000D-01 0.1407000D+01 0.1407000D+01 0.1407000D+01
EXPONENTS  0.3880000D+00 0.3880000D+00 0.3880000D+00 0.1020000D+00 0.1020000D+00
EXPONENTS  0.1020000D+00 0.1057000D+01 0.1057000D+01 0.1057000D+01 0.1057000D+01
EXPONENTS  0.1057000D+01 0.1057000D+01 0.2470000D+00 0.2470000D+00 0.2470000D+00
EXPONENTS  0.2470000D+00 0.2470000D+00 0.2470000D+00 0.3387000D+02 0.5095000D+01
EXPONENTS  0.1159000D+01 0.3258000D+00 0.1027000D+00 0.2526000D-01 0.1407000D+01
EXPONENTS  0.1407000D+01 0.1407000D+01 0.3880000D+00 0.3880000D+00 0.3880000D+00
EXPONENTS  0.1020000D+00 0.1020000D+00 0.1020000D+00 0.1057000D+01 0.1057000D+01
EXPONENTS  0.1057000D+01 0.1057000D+01 0.1057000D+01 0.1057000D+01 0.2470000D+00
EXPONENTS  0.2470000D+00 0.2470000D+00 0.2470000D+00 0.2470000D+00 0.2470000D+00
EXPONENTS  0.3387000D+02 0.5095000D+01 0.1159000D+01 0.3258000D+00 0.1027000D+00
EXPONENTS  0.2526000D-01 0.1407000D+01 0.1407000D+01 0.1407000D+01 0.3880000D+00
EXPONENTS  0.3880000D+00 0.3880000D+00 0.1020000D+00 0.1020000D+00 0.1020000D+00
EXPONENTS  0.1057000D+01 0.1057000D+01 0.1057000D+01 0.1057000D+01 0.1057000D+01
EXPONENTS  0.1057000D+01 0.2470000D+00 0.2470000D+00 0.2470000D+00 0.2470000D+00
EXPONENTS  0.2470000D+00 0.2470000D+00 0.3387000D+02 0.5095000D+01 0.1159000D+01
EXPONENTS  0.3258000D+00 0.1027000D+00 0.2526000D-01 0.1407000D+01 0.1407000D+01
EXPONENTS  0.1407000D+01 0.3880000D+00 0.3880000D+00 0.3880000D+00 0.1020000D+00
EXPONENTS  0.1020000D+00 0.1020000D+00 0.1057000D+01 0.1057000D+01 0.1057000D+01
EXPONENTS  0.1057000D+01 0.1057000D+01 0.1057000D+01 0.2470000D+00 0.2470000D+00
EXPONENTS  0.2470000D+00 0.2470000D+00 0.2470000D+00 0.2470000D+00 0.3387000D+02
EXPONENTS  0.5095000D+01 0.1159000D+01 0.3258000D+00 0.1027000D+00 0.2526000D-01
EXPONENTS  0.1407000D+01 0.1407000D+01 0.1407000D+01 0.3880000D+00 0.3880000D+00
EXPONENTS  0.3880000D+00 0.1020000D+00 0.1020000D+00 0.1020000D+00 0.1057000D+01
EXPONENTS  0.1057000D+01 0.1057000D+01 0.1057000D+01 0.1057000D+01 0.1057000D+01
EXPONENTS  0.2470000D+00 0.2470000D+00 0.2470000D+00 0.2470000D+00 0.2470000D+00
EXPONENTS  0.2470000D+00 0.8236000D+04 0.1235000D+04 0.2808000D+03 0.7927000D+02
EXPONENTS  0.2559000D+02 0.8997000D+01 0.3319000D+01 0.3643000D+00 0.8236000D+04
EXPONENTS  0.1235000D+04 0.2808000D+03 0.7927000D+02 0.2559000D+02 0.8997000D+01
EXPONENTS  0.3319000D+01 0.3643000D+00 0.9059000D+00 0.1285000D+00 0.4402000D-01
EXPONENTS  0.1871000D+02 0.4133000D+01 0.1200000D+01 0.1871000D+02 0.4133000D+01
EXPONENTS  0.1200000D+01 0.1871000D+02 0.4133000D+01 0.1200000D+01 0.3827000D+00
EXPONENTS  0.3827000D+00 0.3827000D+00 0.1209000D+00 0.1209000D+00 0.1209000D+00
EXPONENTS  0.3569000D-01 0.3569000D-01 0.3569000D-01 0.1097000D+01 0.1097000D+01
EXPONENTS  0.1097000D+01 0.1097000D+01 0.1097000D+01 0.1097000D+01 0.3180000D+00
EXPONENTS  0.3180000D+00 0.3180000D+00 0.3180000D+00 0.3180000D+00 0.3180000D+00
EXPONENTS  0.1000000D+00 0.1000000D+00 0.1000000D+00 0.1000000D+00 0.1000000D+00
EXPONENTS  0.1000000D+00 0.7610000D+00 0.7610000D+00 0.7610000D+00 0.7610000D+00
EXPONENTS  0.7610000D+00 0.7610000D+00 0.7610000D+00 0.7610000D+00 0.7610000D+00
EXPONENTS  0.7610000D+00 0.2680000D+00 0.2680000D+00 0.2680000D+00 0.2680000D+00
EXPONENTS  0.2680000D+00 0.2680000D+00 0.2680000D+00 0.2680000D+00 0.2680000D+00
EXPONENTS  0.2680000D+00 0.8236000D+04 0.1235000D+04 0.2808000D+03 0.7927000D+02
EXPONENTS  0.2559000D+02 0.8997000D+01 0.3319000D+01 0.3643000D+00 0.8236000D+04
EXPONENTS  0.1235000D+04 0.2808000D+03 0.7927000D+02 0.2559000D+02 0.8997000D+01
EXPONENTS  0.3319000D+01 0.3643000D+00 0.9059000D+00 0.1285000D+00 0.4402000D-01
EXPONENTS  0.1871000D+02 0.4133000D+01 0.1200000D+01 0.1871000D+02 0.4133000D+01
EXPONENTS  0.1200000D+01 0.1871000D+02 0.4133000D+01 0.1200000D+01 0.3827000D+00
EXPONENTS  0.3827000D+00 0.3827000D+00 0.1209000D+00 0.1209000D+00 0.1209000D+00
EXPONENTS  0.3569000D-01 0.3569000D-01 0.3569000D-01 0.1097000D+01 0.1097000D+01
EXPONENTS  0.1097000D+01 0.1097000D+01 0.1097000D+01 0.1097000D+01 0.3180000D+00
EXPONENTS  0.3180000D+00 0.3180000D+00 0.3180000D+00 0.3180000D+00 0.3180000D+00
EXPONENTS  0.1000000D+00 0.1000000D+00 0.1000000D+00 0.1000000D+00 0.1000000D+00
EXPONENTS  0.1000000D+00 0.7610000D+00 0.7610000D+00 0.7610000D+00 0.7610000D+00
EXPONENTS  0.7610000D+00 0.7610000D+00 0.7610000D+00 0.7610000D+00 0.7610000D+00
EXPONENTS  0.7610000D+00 0.2680000D+00 0.2680000D+00 0.2680000D+00 0.2680000D+00
EXPONENTS  0.2680000D+00 0.2680000D+00 0.2680000D+00 0.2680000D+00 0.2680000D+00
EXPONENTS  0.2680000D+00 0.8236000D+04 0.1235000D+04 0.2808000D+03 0.7927000D+02
EXPONENTS  0.2559000D+02 0.8997000D+01 0.3319000D+01 0.3643000D+00 0.8236000D+04
EXPONENTS  0.1235000D+04 0.2808000D+03 0.7927000D+02 0.2559000D+02 0.8997000D+01
EXPONENTS  0.3319000D+01 0.3643000D+00 0.9059000D+00 0.1285000D+00 0.4402000D-01
EXPONENTS  0.1871000D+02 0.4133000D+01 0.1200000D+01 0.1871000D+02 0.4133000D+01
EXPONENTS  0.1200000D+01 0.1871000D+02 0.4133000D+01 0.1200000D+01 0.3827000D+00
EXPONENTS  0.3827000D+00 0.3827000D+00 0.1209000D+00 0.1209000D+00 0.1209000D+00
EXPONENTS  0.3569000D-01 0.3569000D-01 0.3569000D-01 0.1097000D+01 0.1097000D+01
EXPONENTS  0.1097000D+01 0.1097000D+01 0.1097000D+01 0.1097000D+01 0.3180000D+00
EXPONENTS  0.3180000D+00 0.3180000D+00 0.3180000D+00 0.3180000D+00 0.3180000D+00
EXPONENTS  0.1000000D+00 0.1000000D+00 0.1000000D+00 0.1000000D+00 0.1000000D+00
EXPONENTS  0.1000000D+00 0.7610000D+00 0.7610000D+00 0.7610000D+00 0.7610000D+00
EXPONENTS  0.7610000D+00 0.7610000D+00 0.7610000D+00 0.7610000D+00 0.7610000D+00
EXPONENTS  0.7610000D+00 0.2680000D+00 0.2680000D+00 0.2680000D+00 0.2680000D+00
EXPONENTS  0.2680000D+00 0.2680000D+00 0.2680000D+00 0.2680000D+00 0.2680000D+00
EXPONENTS  0.2680000D+00 0.8236000D+04 0.1235000D+04 0.2808000D+03 0.7927000D+02
EXPONENTS  0.2559000D+02 0.8997000D+01 0.3319000D+01 0.3643000D+00 0.8236000D+04
EXPONENTS  0.1235000D+04 0.2808000D+03 0.7927000D+02 0.2559000D+02 0.8997000D+01
EXPONENTS  0.3319000D+01 0.3643000D+00 0.9059000D+00 0.1285000D+00 0.4402000D-01
EXPONENTS  0.1871000D+02 0.4133000D+01 0.1200000D+01 0.1871000D+02 0.4133000D+01
EXPONENTS  0.1200000D+01 0.1871000D+02 0.4133000D+01 0.1200000D+01 0.3827000D+00
EXPONENTS  0.3827000D+00 0.3827000D+00 0.1209000D+00 0.1209000D+00 0.1209000D+00
EXPONENTS  0.3569000D-01 0.3569000D-01 0.3569000D-01 0.1097000D+01 0.1097000D+01
EXPONENTS  0.1097000D+01 0.1097000D+01 0.1097000D+01 0.1097000D+01 0.3180000D+00
EXPONENTS  0.3180000D+00 0.3180000D+00 0.3180000D+00 0.3180000D+00 0.3180000D+00
EXPONENTS  0.1000000D+00 0.1000000D+00 0.1000000D+00 0.1000000D+00 0.1000000D+00
EXPONENTS  0.1000000D+00 0.7610000D+00 0.7610000D+00 0.7610000D+00 0.7610000D+00
EXPONENTS  0.7610000D+00 0.7610000D+00 0.7610000D+00 0.7610000D+00 0.7610000D+00
EXPONENTS  0.7610000D+00 0.2680000D+00 0.2680000D+00 0.2680000D+00 0.2680000D+00
EXPONENTS  0.2680000D+00 0.2680000D+00 0.2680000D+00 0.2680000D+00 0.2680000D+00
EXPONENTS  0.2680000D+00 0.8236000D+04 0.1235000D+04 0.2808000D+03 0.7927000D+02
EXPONENTS  0.2559000D+02 0.8997000D+01 0.3319000D+01 0.3643000D+00 0.8236000D+04
EXPONENTS  0.1235000D+04 0.2808000D+03 0.7927000D+02 0.2559000D+02 0.8997000D+01
EXPONENTS  0.3319000D+01 0.3643000D+00 0.9059000D+00 0.1285000D+00 0.4402000D-01
EXPONENTS  0.1871000D+02 0.4133000D+01 0.1200000D+01 0.1871000D+02 0.4133000D+01
EXPONENTS  0.1200000D+01 0.1871000D+02 0.4133000D+01 0.1200000D+01 0.3827000D+00
EXPONENTS  0.3827000D+00 0.3827000D+00 0.1209000D+00 0.1209000D+00 0.1209000D+00
EXPONENTS  0.3569000D-01 0.3569000D-01 0.3569000D-01 0.1097000D+01 0.1097000D+01
EXPONENTS  0.1097000D+01 0.1097000D+01 0.1097000D+01 0.1097000D+01 0.3180000D+00
EXPONENTS  0.3180000D+00 0.3180000D+00 0.3180000D+00 0.3180000D+00 0.3180000D+00
EXPONENTS  0.1000000D+00 0.1000000D+00 0.1000000D+00 0.1000000D+00 0.1000000D+00
EXPONENTS  0.1000000D+00 0.7610000D+00 0.7610000D+00 0.7610000D+00 0.7610000D+00
EXPONENTS  0.7610000D+00 0.7610000D+00 0.7610000D+00 0.7610000D+00 0.7610000D+00
EXPONENTS  0.7610000D+00 0.2680000D+00 0.2680000D+00 0.2680000D+00 0.2680000D+00
EXPONENTS  0.2680000D+00 0.2680000D+00 0.2680000D+00 0.2680000D+00 0.2680000D+00
EXPONENTS  0.2680000D+00 0.8236000D+04 0.1235000D+04 0.2808000D+03 0.7927000D+02
EXPONENTS  0.2559000D+02 0.8997000D+01 0.3319000D+01 0.3643000D+00 0.8236000D+04
EXPONENTS  0.1235000D+04 0.2808000D+03 0.7927000D+02 0.2559000D+02 0.8997000D+01
EXPONENTS  0.3319000D+01 0.3643000D+00 0.9059000D+00 0.1285000D+00 0.4402000D-01
EXPONENTS  0.1871000D+02 0.4133000D+01 0.1200000D+01 0.1871000D+02 0.4133000D+01
EXPONENTS  0.1200000D+01 0.1871000D+02 0.4133000D+01 0.1200000D+01 0.3827000D+00
EXPONENTS  0.3827000D+00 0.3827000D+00 0.1209000D+00 0.1209000D+00 0.1209000D+00
EXPONENTS  0.3569000D-01 0.3569000D-01 0.3569000D-01 0.1097000D+01 0.1097000D+01
EXPONENTS  0.1097000D+01 0.1097000D+01 0.1097000D+01 0.1097000D+01 0.3180000D+00
EXPONENTS  0.3180000D+00 0.3180000D+00 0.3180000D+00 0.3180000D+00 0.3180000D+00
EXPONENTS  0.1000000D+00 0.1000000D+00 0.1000000D+00 0.1000000D+00 0.1000000D+00
EXPONENTS  0.1000000D+00 0.7610000D+00 0.7610000D+00 0.7610000D+00 0.7610000D+00
EXPONENTS  0.7610000D+00 0.7610000D+00 0.7610000D+00 0.7610000D+00 0.7610000D+00
EXPONENTS  0.7610000D+00 0.2680000D+00 0.2680000D+00 0.2680000D+00 0.2680000D+00
EXPONENTS  0.2680000D+00 0.2680000D+00 0.2680000D+00 0.2680000D+00 0.2680000D+00
EXPONENTS  0.2680000D+00
MO    1     MO 0.0        OCC NO =    2.0000000  ORB. ENERGY =   -9.898463
  0.14336017D-03  0.25855598D-03  0.38124064D-03  0.39969934D-02  0.12783626D-01
 -0.21833809D-03  0.24705719D-03 -0.31231764D-03  0.16581285D-16 -0.10601869D-02
  0.11116890D-02 -0.21537752D-16  0.32903467D-03 -0.15804333D-02  0.40820518D-17
 -0.51299162D-03 -0.31909974D-03  0.83209137D-03  0.44526320D-03 -0.65194538D-17
 -0.27288229D-16 -0.31886935D-03 -0.47987903D-04  0.36685726D-03  0.80355191D-04
 -0.22685019D-17 -0.14661872D-16 -0.14336017D-03 -0.25855598D-03 -0.38124064D-03
 -0.39969934D-02 -0.12783626D-01  0.21833809D-03  0.24705719D-03 -0.31231764D-03
  0.59545058D-15 -0.10601869D-02  0.11116890D-02 -0.10824478D-15  0.32903466D-03
 -0.15804333D-02  0.35819074D-17  0.51299162D-03  0.31909974D-03 -0.83209137D-03
 -0.44526320D-03 -0.19029807D-17 -0.35470925D-15  0.31886935D-03  0.47987903D-04
 -0.36685725D-03 -0.80355192D-04 -0.37506787D-17 -0.49018282D-17  0.16612927D-03
  0.29962098D-03  0.44179096D-03 -0.82987624D-03  0.17896137D-01 -0.14752781D-03
  0.72748304D-03 -0.53281881D-03  0.93724720D-17  0.20201757D-02 -0.19635651D-02
 -0.20893016D-16 -0.17003832D-02  0.35502095D-03 -0.54852473D-18 -0.13288989D-02
  0.83240764D-04  0.12456581D-02  0.29190654D-02  0.74565918D-17 -0.78433317D-17
 -0.16832538D-03 -0.16476468D-03  0.33309006D-03  0.26905876D-03  0.77158573D-17
 -0.16249551D-17 -0.16612927D-03 -0.29962098D-03 -0.44179095D-03  0.82987624D-03
 -0.17896137D-01  0.14752781D-03  0.72748304D-03 -0.53281881D-03 -0.15159949D-17
  0.20201757D-02 -0.19635651D-02  0.26834276D-17 -0.17003832D-02  0.35502095D-03
  0.70826204D-17  0.13288989D-02 -0.83240762D-04 -0.12456581D-02 -0.29190654D-02
 -0.83337444D-17 -0.39891857D-17  0.16832538D-03  0.16476467D-03 -0.33309006D-03
 -0.26905876D-03  0.22478868D-17 -0.32633072D-17  0.60027981D-04  0.10826294D-03
  0.15963364D-03  0.69373789D-02 -0.50177725D-02 -0.36641585D-05 -0.79840793D-03
 -0.46881315D-03 -0.21720948D-18 -0.25937332D-02 -0.13592235D-02 -0.18639157D-17
  0.57790506D-03  0.19303760D-03  0.50618507D-18  0.52310909D-03 -0.49169708D-03
 -0.31412006D-04  0.97657945D-03  0.43257047D-17  0.76509166D-18  0.14895311D-03
 -0.16800232D-03  0.19049212D-04  0.69660406D-04  0.51930548D-18 -0.90964815D-18
 -0.60027981D-04 -0.10826293D-03 -0.15963363D-03 -0.69373789D-02  0.50177726D-02
  0.36641584D-05 -0.79840793D-03 -0.46881315D-03 -0.52037809D-17 -0.25937332D-02
 -0.13592235D-02  0.86477499D-17  0.57790507D-03  0.19303760D-03  0.59627150D-19
 -0.52310909D-03  0.49169708D-03  0.31412006D-04 -0.97657945D-03  0.32566318D-17
  0.27975180D-18 -0.14895311D-03  0.16800232D-03 -0.19049211D-04 -0.69660406D-04
  0.21673464D-17  0.89247534D-18  0.60577355D-04  0.10925375D-03  0.16109460D-03
  0.98683609D-03  0.98051164D-02 -0.15739584D-03  0.48046309D-03 -0.52292440D-03
 -0.17536474D-17  0.50871863D-03  0.36500117D-03  0.37629909D-17  0.11267850D-02
 -0.45536862D-03 -0.46196824D-18  0.36527220D-03 -0.32723826D-03 -0.38033936D-04
 -0.51172993D-03  0.39311200D-17 -0.59629125D-17  0.15297125D-05 -0.69289512D-04
  0.67759799D-04  0.74312524D-04 -0.11221749D-17  0.73626302D-18 -0.60577355D-04
 -0.10925375D-03 -0.16109460D-03 -0.98683607D-03 -0.98051165D-02  0.15739584D-03
  0.48046309D-03 -0.52292440D-03  0.66030331D-18  0.50871863D-03  0.36500117D-03
 -0.11412421D-16  0.11267850D-02 -0.45536862D-03 -0.11652721D-17 -0.36527219D-03
  0.32723826D-03  0.38033937D-04  0.51172993D-03  0.62436151D-17  0.72769802D-17
 -0.15297118D-05  0.69289510D-04 -0.67759799D-04 -0.74312524D-04  0.25455669D-17
 -0.26195408D-17  0.23940642D-01  0.44630799D-01  0.75433913D-01  0.11340188D+00
  0.13932731D+00  0.11768419D+00  0.44386146D-01 -0.21966951D-03 -0.47584554D-03
 -0.89093299D-03 -0.15168896D-02 -0.23463976D-02 -0.30901231D-02 -0.32108359D-02
 -0.20403421D-02  0.13673898D-02  0.39710164D-02 -0.54711710D-02 -0.72380915D-02
 -0.21772504D-03 -0.20413106D-03 -0.14535348D-03 -0.89492805D-03 -0.83905193D-03
 -0.59745496D-03 -0.37009683D-17 -0.34698930D-17 -0.24707705D-17  0.40229313D-02
  0.10313468D-01  0.68774583D-17 -0.44089476D-02 -0.12731091D-01  0.22367546D-16
  0.17116082D-03  0.79163512D-03  0.38150316D-18  0.68231912D-03 -0.26127056D-03
 -0.42104856D-03  0.49021601D-03 -0.60684134D-17  0.21525589D-16  0.19168831D-02
 -0.26261945D-02  0.70931143D-03 -0.49433253D-03  0.10837009D-17  0.94346511D-17
 -0.16793190D-02  0.14070514D-02  0.27226758D-03  0.25092076D-04  0.39918460D-18
 -0.23144076D-17 -0.16168246D-03  0.33127921D-03  0.10416508D-16  0.54644520D-04
 -0.21811426D-03  0.23861123D-17  0.43040286D-03 -0.77572337D-03 -0.33635635D-16
 -0.15655326D-17  0.36620724D-03  0.61816681D-03 -0.37123678D-17 -0.14836085D-02
 -0.32026090D-02  0.65075573D-17  0.38498678D-03  0.13481086D-02  0.46295460D-17
  0.93634732D-17 -0.23940641D-01 -0.44630799D-01 -0.75433912D-01 -0.11340188D+00
 -0.13932731D+00 -0.11768419D+00 -0.44386146D-01  0.21966951D-03  0.47584553D-03
  0.89093298D-03  0.15168896D-02  0.23463976D-02  0.30901231D-02  0.32108358D-02
  0.20403420D-02 -0.13673898D-02 -0.39710164D-02  0.54711709D-02  0.72380915D-02
 -0.21772504D-03 -0.20413106D-03 -0.14535348D-03 -0.89492805D-03 -0.83905193D-03
 -0.59745496D-03 -0.10606020D-16 -0.99438182D-17 -0.70805909D-17  0.40229313D-02
  0.10313468D-01  0.14454021D-16 -0.44089476D-02 -0.12731091D-01 -0.28720247D-16
  0.17116082D-03  0.79163512D-03 -0.51075738D-18 -0.68231912D-03  0.26127057D-03
  0.42104855D-03 -0.49021600D-03 -0.32873757D-16  0.14053991D-16 -0.19168831D-02
  0.26261945D-02 -0.70931143D-03  0.49433251D-03 -0.38785746D-17  0.13997421D-17
  0.16793190D-02 -0.14070514D-02 -0.27226758D-03 -0.25092068D-04  0.35209591D-17
  0.69315816D-18 -0.16168246D-03  0.33127921D-03 -0.23975879D-17  0.54644521D-04
 -0.21811425D-03 -0.15790373D-16  0.43040286D-03 -0.77572337D-03  0.22983137D-16
 -0.57376445D-17  0.36620724D-03  0.61816681D-03  0.16193077D-17 -0.14836085D-02
 -0.32026090D-02 -0.57329612D-17  0.38498678D-03  0.13481086D-02  0.87503803D-18
  0.13124232D-16  0.23292176D+00  0.43421911D+00  0.73390680D+00  0.11033023D+01
  0.13555344D+01  0.11449655D+01  0.43183885D+00 -0.21371946D-02 -0.32144665D-02
 -0.60184955D-02 -0.10247003D-01 -0.15850556D-01 -0.20874625D-01 -0.21690072D-01
 -0.13783067D-01  0.92370912D-02  0.29063179D-01  0.35012328D-02 -0.79559830D-03
 -0.36627322D-03 -0.34340442D-03 -0.24452441D-03 -0.11195615D-02 -0.10496601D-02
 -0.74742053D-03 -0.16709259D-16 -0.15665992D-16 -0.11155120D-16 -0.11658484D-02
  0.28842322D-02  0.28347464D-17 -0.55283070D-02 -0.55742025D-02 -0.68994471D-17
  0.16740061D-03  0.25175172D-03 -0.27993917D-19  0.82416012D-03  0.24524754D-02
 -0.32766355D-02  0.33122234D-04 -0.23493484D-16 -0.39441713D-17  0.67568438D-03
 -0.20355621D-02  0.13598778D-02 -0.47877296D-02  0.28031414D-16  0.37461111D-17
 -0.45626810D-03  0.37433749D-03  0.81930607D-04  0.30915632D-02  0.44061398D-19
  0.18100758D-17  0.14669205D-03  0.86531621D-03 -0.81440289D-18  0.68454486D-03
 -0.18986161D-02  0.11506659D-17 -0.11246210D-02 -0.69733249D-03  0.12925427D-17
  0.47011316D-17  0.30054793D-03 -0.66796575D-03 -0.16877744D-18 -0.78255678D-03
  0.17703481D-02 -0.25515610D-18 -0.11908700D-03  0.23354914D-03  0.76148843D-18
 -0.92321241D-17 -0.23292176D+00 -0.43421911D+00 -0.73390679D+00 -0.11033023D+01
 -0.13555344D+01 -0.11449655D+01 -0.43183885D+00  0.21371946D-02  0.32144665D-02
  0.60184954D-02  0.10247003D-01  0.15850556D-01  0.20874625D-01  0.21690072D-01
  0.13783067D-01 -0.92370912D-02 -0.29063178D-01 -0.35012328D-02  0.79559829D-03
 -0.36627322D-03 -0.34340442D-03 -0.24452441D-03 -0.11195615D-02 -0.10496601D-02
 -0.74742053D-03 -0.22534582D-17 -0.21127603D-17 -0.15044112D-17 -0.11658484D-02
  0.28842322D-02 -0.68002643D-18 -0.55283070D-02 -0.55742025D-02  0.10898315D-16
  0.16740061D-03  0.25175172D-03  0.50879983D-18 -0.82416012D-03 -0.24524754D-02
  0.32766355D-02 -0.33122235D-04  0.32773359D-17 -0.31380350D-17 -0.67568438D-03
  0.20355621D-02 -0.13598778D-02  0.47877296D-02 -0.15941574D-17 -0.65541851D-17
  0.45626809D-03 -0.37433749D-03 -0.81930607D-04 -0.30915632D-02  0.56391965D-17
 -0.62445086D-18  0.14669205D-03  0.86531620D-03 -0.24457713D-17  0.68454486D-03
 -0.18986161D-02  0.84401517D-18 -0.11246210D-02 -0.69733249D-03  0.64932988D-17
 -0.33968978D-17  0.30054793D-03 -0.66796575D-03  0.37257133D-18 -0.78255678D-03
  0.17703481D-02 -0.54302493D-17 -0.11908700D-03  0.23354914D-03  0.43125353D-17
 -0.44544874D-17  0.82811047D-02  0.15437862D-01  0.26092706D-01  0.39225884D-01
  0.48193531D-01  0.40707141D-01  0.15353236D-01 -0.75984022D-04 -0.65070207D-03
 -0.12183196D-02 -0.20742933D-02 -0.32086164D-02 -0.42256349D-02 -0.43907053D-02
 -0.27900961D-02  0.18698576D-02  0.39815335D-02 -0.42944322D-02 -0.26014144D-02
 -0.86693279D-05 -0.81280459D-05 -0.57876529D-05 -0.85967852D-03 -0.80600326D-03
 -0.57392234D-03 -0.72659997D-18 -0.68123365D-18 -0.48507894D-18 -0.19233611D-03
 -0.28059006D-02 -0.34958497D-18 -0.45611697D-03 -0.15487237D-02 -0.13309933D-17
 -0.30226744D-04  0.13097414D-03  0.12670584D-18 -0.12104328D-03 -0.22674095D-03
  0.34778422D-03  0.40679442D-03 -0.53640300D-17 -0.36321496D-17 -0.37774746D-03
 -0.12743728D-02  0.16521202D-02 -0.41084579D-02  0.56195251D-17  0.33273642D-17
 -0.10447621D-03  0.34506180D-04  0.69970027D-04  0.12570644D-02 -0.12790318D-18
 -0.38963431D-18 -0.21666505D-03  0.12647712D-02  0.94867271D-19  0.40084154D-03
 -0.25472762D-02  0.12811098D-17  0.24915361D-03 -0.12470375D-02 -0.15657116D-17
 -0.95623781D-18 -0.19520667D-03  0.30860182D-03  0.13219429D-18  0.43230040D-03
 -0.80964225D-03 -0.11789637D-17  0.15331960D-03 -0.11616320D-03  0.78238082D-18
  0.80732204D-18 -0.82811046D-02 -0.15437862D-01 -0.26092706D-01 -0.39225884D-01
 -0.48193531D-01 -0.40707141D-01 -0.15353236D-01  0.75984022D-04  0.65070207D-03
  0.12183196D-02  0.20742933D-02  0.32086164D-02  0.42256349D-02  0.43907053D-02
  0.27900961D-02 -0.18698575D-02 -0.39815334D-02  0.42944321D-02  0.26014144D-02
 -0.86693280D-05 -0.81280460D-05 -0.57876530D-05 -0.85967852D-03 -0.80600325D-03
 -0.57392233D-03  0.42288024D-17  0.39647710D-17  0.28231531D-17 -0.19233611D-03
 -0.28059006D-02 -0.84828599D-17 -0.45611697D-03 -0.15487237D-02 -0.42717427D-17
 -0.30226744D-04  0.13097414D-03 -0.16532720D-18  0.12104328D-03  0.22674094D-03
 -0.34778422D-03 -0.40679442D-03 -0.62207184D-17  0.63781465D-17  0.37774746D-03
  0.12743727D-02 -0.16521202D-02  0.41084579D-02  0.78849320D-17 -0.10566942D-16
  0.10447621D-03 -0.34506181D-04 -0.69970026D-04 -0.12570644D-02 -0.14636553D-17
 -0.85413219D-18 -0.21666505D-03  0.12647712D-02  0.48771671D-19  0.40084154D-03
 -0.25472761D-02  0.69195065D-18  0.24915361D-03 -0.12470374D-02 -0.83826567D-18
  0.49094439D-17 -0.19520667D-03  0.30860181D-03 -0.23944964D-18  0.43230040D-03
 -0.80964224D-03  0.15105071D-17  0.15331960D-03 -0.11616320D-03 -0.79215821D-18
 -0.83991018D-17
MO    2     MO 0.0        OCC NO =    2.0000000  ORB. ENERGY =   -9.898452
  0.58160307D-04  0.10489451D-03  0.15466689D-03  0.11110800D-02  0.76394183D-02
  0.17235975D-03  0.18840908D-03 -0.22040195D-03  0.11167676D-15 -0.14649399D-03
 -0.34114791D-03 -0.18533216D-16  0.77072105D-03 -0.54326838D-03  0.20471773D-16
 -0.42389408D-03  0.31983390D-03  0.10406018D-03 -0.20280036D-03 -0.38065231D-16
 -0.40515937D-17 -0.10952767D-03 -0.31008788D-04  0.14053645D-03 -0.25038269D-03
  0.87547380D-17 -0.34323709D-16  0.58160307D-04  0.10489451D-03  0.15466689D-03
  0.11110800D-02  0.76394184D-02  0.17235975D-03 -0.18840908D-03  0.22040195D-03
 -0.38431342D-15  0.14649399D-03  0.34114790D-03  0.81686172D-16 -0.77072105D-03
  0.54326839D-03  0.47556047D-19 -0.42389409D-03  0.31983390D-03  0.10406019D-03
 -0.20280036D-03  0.42283976D-16  0.93958198D-16 -0.10952767D-03 -0.31008789D-04
  0.14053646D-03 -0.25038269D-03  0.17146509D-17  0.87704841D-18  0.12165892D-03
  0.21941687D-03  0.32353005D-03  0.12489459D-02  0.62863067D-02 -0.91493487D-04
  0.94161774D-03 -0.58377341D-03 -0.83257722D-17  0.17198447D-02 -0.98612817D-03
  0.94306307D-17 -0.35417965D-03  0.42749138D-03  0.79337878D-18 -0.16021873D-02
  0.33637588D-03  0.12658114D-02  0.32676653D-02  0.35411771D-17  0.49493271D-19
 -0.23678560D-03 -0.64510350D-04  0.30129595D-03  0.18562399D-03 -0.11143804D-17
  0.42828276D-17  0.12165892D-03  0.21941688D-03  0.32353006D-03  0.12489459D-02
  0.62863068D-02 -0.91493488D-04 -0.94161774D-03  0.58377342D-03  0.25933581D-17
 -0.17198447D-02  0.98612818D-03 -0.31000870D-19  0.35417966D-03 -0.42749138D-03
 -0.47761935D-17 -0.16021873D-02  0.33637588D-03  0.12658114D-02  0.32676653D-02