 Molden2AIM, Version 4.0.0 (06/02/2016)           Time: Fri Jun 29 01:01:46 2018
GAUSSIAN             37 MOL ORBITALS    683 PRIMITIVES        9 NUCLEI
  C    1    (CENTRE  1)  -6.47258032 -0.91998482  0.46011619  CHARGE =  6.0
  S    2    (CENTRE  2)  -3.17505547  0.11254075  1.24529550  CHARGE = 16.0
  F    3    (CENTRE  3)  -7.91706618 -0.66918037  2.50447482  CHARGE =  9.0
  F    4    (CENTRE  4)  -6.40552339 -3.32465375 -0.24007270  CHARGE =  9.0
  F    5    (CENTRE  5)  -7.38023656  0.49071274 -1.39816679  CHARGE =  9.0
  O    6    (CENTRE  6)  -1.75946352  0.21713709 -1.11425433  CHARGE =  8.0
  O    7    (CENTRE  7)  -2.38076579 -1.31416090  3.48275769  CHARGE =  8.0
  O    8    (CENTRE  8)  -3.78486442  3.01856347  2.07828867  CHARGE =  8.0
  H    9    (CENTRE  9)  -3.97131614  3.03041773  3.90278145  CHARGE =  1.0
CENTRE ASSIGNMENTS    1  1  1  1  1  1  1  1  1  1  1  1  1  1  1  1  1  1  1  1
CENTRE ASSIGNMENTS    1  1  1  1  1  1  1  1  1  1  1  1  1  1  1  1  1  1  1  1
CENTRE ASSIGNMENTS    1  1  1  1  1  1  1  1  1  1  1  1  1  1  1  1  1  1  1  1
CENTRE ASSIGNMENTS    1  1  1  1  1  1  1  1  1  1  1  1  1  1  1  2  2  2  2  2
CENTRE ASSIGNMENTS    2  2  2  2  2  2  2  2  2  2  2  2  2  2  2  2  2  2  2  2
CENTRE ASSIGNMENTS    2  2  2  2  2  2  2  2  2  2  2  2  2  2  2  2  2  2  2  2
CENTRE ASSIGNMENTS    2  2  2  2  2  2  2  2  2  2  2  2  2  2  2  2  2  2  2  2
CENTRE ASSIGNMENTS    2  2  2  2  2  2  2  2  2  2  2  2  2  2  2  2  2  2  2  2
CENTRE ASSIGNMENTS    2  2  2  2  2  2  2  2  2  2  2  2  2  2  2  2  2  2  2  2
CENTRE ASSIGNMENTS    2  2  2  2  2  2  2  2  2  2  2  2  2  2  2  2  2  2  2  2
CENTRE ASSIGNMENTS    2  2  2  2  2  2  3  3  3  3  3  3  3  3  3  3  3  3  3  3
CENTRE ASSIGNMENTS    3  3  3  3  3  3  3  3  3  3  3  3  3  3  3  3  3  3  3  3
CENTRE ASSIGNMENTS    3  3  3  3  3  3  3  3  3  3  3  3  3  3  3  3  3  3  3  3
CENTRE ASSIGNMENTS    3  3  3  3  3  3  3  3  3  3  3  3  3  3  3  3  3  3  3  3
CENTRE ASSIGNMENTS    3  4  4  4  4  4  4  4  4  4  4  4  4  4  4  4  4  4  4  4
CENTRE ASSIGNMENTS    4  4  4  4  4  4  4  4  4  4  4  4  4  4  4  4  4  4  4  4
CENTRE ASSIGNMENTS    4  4  4  4  4  4  4  4  4  4  4  4  4  4  4  4  4  4  4  4
CENTRE ASSIGNMENTS    4  4  4  4  4  4  4  4  4  4  4  4  4  4  4  4  5  5  5  5
CENTRE ASSIGNMENTS    5  5  5  5  5  5  5  5  5  5  5  5  5  5  5  5  5  5  5  5
CENTRE ASSIGNMENTS    5  5  5  5  5  5  5  5  5  5  5  5  5  5  5  5  5  5  5  5
CENTRE ASSIGNMENTS    5  5  5  5  5  5  5  5  5  5  5  5  5  5  5  5  5  5  5  5
CENTRE ASSIGNMENTS    5  5  5  5  5  5  5  5  5  5  5  6  6  6  6  6  6  6  6  6
CENTRE ASSIGNMENTS    6  6  6  6  6  6  6  6  6  6  6  6  6  6  6  6  6  6  6  6
CENTRE ASSIGNMENTS    6  6  6  6  6  6  6  6  6  6  6  6  6  6  6  6  6  6  6  6
CENTRE ASSIGNMENTS    6  6  6  6  6  6  6  6  6  6  6  6  6  6  6  6  6  6  6  6
CENTRE ASSIGNMENTS    6  6  6  6  6  6  7  7  7  7  7  7  7  7  7  7  7  7  7  7
CENTRE ASSIGNMENTS    7  7  7  7  7  7  7  7  7  7  7  7  7  7  7  7  7  7  7  7
CENTRE ASSIGNMENTS    7  7  7  7  7  7  7  7  7  7  7  7  7  7  7  7  7  7  7  7
CENTRE ASSIGNMENTS    7  7  7  7  7  7  7  7  7  7  7  7  7  7  7  7  7  7  7  7
CENTRE ASSIGNMENTS    7  8  8  8  8  8  8  8  8  8  8  8  8  8  8  8  8  8  8  8
CENTRE ASSIGNMENTS    8  8  8  8  8  8  8  8  8  8  8  8  8  8  8  8  8  8  8  8
CENTRE ASSIGNMENTS    8  8  8  8  8  8  8  8  8  8  8  8  8  8  8  8  8  8  8  8
CENTRE ASSIGNMENTS    8  8  8  8  8  8  8  8  8  8  8  8  8  8  8  8  9  9  9  9
CENTRE ASSIGNMENTS    9  9  9  9  9  9  9  9  9  9  9  9  9  9  9  9  9  9  9  9
CENTRE ASSIGNMENTS    9  9  9
TYPE ASSIGNMENTS      1  1  1  1  1  1  1  1  1  1  1  1  1  1  1  1  1  1  1  2
TYPE ASSIGNMENTS      2  2  3  3  3  4  4  4  2  3  4  2  3  4  2  3  4  5  6  7
TYPE ASSIGNMENTS      8  9 10  5  6  7  8  9 10  5  6  7  8  9 10 11 12 13 17 14
TYPE ASSIGNMENTS     15 18 19 16 20 11 12 13 17 14 15 18 19 16 20  1  1  1  1  1
TYPE ASSIGNMENTS      1  1  1  1  1  1  1  1  1  1  1  1  1  1  1  1  1  1  1  1
TYPE ASSIGNMENTS      1  1  1  1  1  1  1  1  1  1  1  1  1  1  1  1  1  2  2  2
TYPE ASSIGNMENTS      2  2  2  2  3  3  3  3  3  3  3  4  4  4  4  4  4  4  2  2
TYPE ASSIGNMENTS      2  2  2  2  2  3  3  3  3  3  3  3  4  4  4  4  4  4  4  2
TYPE ASSIGNMENTS      3  4  2  3  4  2  3  4  5  6  7  8  9 10  5  6  7  8  9 10
TYPE ASSIGNMENTS      5  6  7  8  9 10 11 12 13 17 14 15 18 19 16 20 11 12 13 17
TYPE ASSIGNMENTS     14 15 18 19 16 20  1  1  1  1  1  1  1  1  1  1  1  1  1  1
TYPE ASSIGNMENTS      1  1  1  1  1  2  2  2  3  3  3  4  4  4  2  3  4  2  3  4
TYPE ASSIGNMENTS      2  3  4  5  6  7  8  9 10  5  6  7  8  9 10  5  6  7  8  9
TYPE ASSIGNMENTS     10 11 12 13 17 14 15 18 19 16 20 11 12 13 17 14 15 18 19 16
TYPE ASSIGNMENTS     20  1  1  1  1  1  1  1  1  1  1  1  1  1  1  1  1  1  1  1
TYPE ASSIGNMENTS      2  2  2  3  3  3  4  4  4  2  3  4  2  3  4  2  3  4  5  6
TYPE ASSIGNMENTS      7  8  9 10  5  6  7  8  9 10  5  6  7  8  9 10 11 12 13 17
TYPE ASSIGNMENTS     14 15 18 19 16 20 11 12 13 17 14 15 18 19 16 20  1  1  1  1
TYPE ASSIGNMENTS      1  1  1  1  1  1  1  1  1  1  1  1  1  1  1  2  2  2  3  3
TYPE ASSIGNMENTS      3  4  4  4  2  3  4  2  3  4  2  3  4  5  6  7  8  9 10  5
TYPE ASSIGNMENTS      6  7  8  9 10  5  6  7  8  9 10 11 12 13 17 14 15 18 19 16
TYPE ASSIGNMENTS     20 11 12 13 17 14 15 18 19 16 20  1  1  1  1  1  1  1  1  1
TYPE ASSIGNMENTS      1  1  1  1  1  1  1  1  1  1  2  2  2  3  3  3  4  4  4  2
TYPE ASSIGNMENTS      3  4  2  3  4  2  3  4  5  6  7  8  9 10  5  6  7  8  9 10
TYPE ASSIGNMENTS      5  6  7  8  9 10 11 12 13 17 14 15 18 19 16 20 11 12 13 17
TYPE ASSIGNMENTS     14 15 18 19 16 20  1  1  1  1  1  1  1  1  1  1  1  1  1  1
TYPE ASSIGNMENTS      1  1  1  1  1  2  2  2  3  3  3  4  4  4  2  3  4  2  3  4
TYPE ASSIGNMENTS      2  3  4  5  6  7  8  9 10  5  6  7  8  9 10  5  6  7  8  9
TYPE ASSIGNMENTS     10 11 12 13 17 14 15 18 19 16 20 11 12 13 17 14 15 18 19 16
TYPE ASSIGNMENTS     20  1  1  1  1  1  1  1  1  1  1  1  1  1  1  1  1  1  1  1
TYPE ASSIGNMENTS      2  2  2  3  3  3  4  4  4  2  3  4  2  3  4  2  3  4  5  6
TYPE ASSIGNMENTS      7  8  9 10  5  6  7  8  9 10  5  6  7  8  9 10 11 12 13 17
TYPE ASSIGNMENTS     14 15 18 19 16 20 11 12 13 17 14 15 18 19 16 20  1  1  1  1
TYPE ASSIGNMENTS      1  1  2  3  4  2  3  4  2  3  4  5  6  7  8  9 10  5  6  7
TYPE ASSIGNMENTS      8  9 10
EXPONENTS  0.8236000D+04 0.1235000D+04 0.2808000D+03 0.7927000D+02 0.2559000D+02
EXPONENTS  0.8997000D+01 0.3319000D+01 0.3643000D+00 0.8236000D+04 0.1235000D+04
EXPONENTS  0.2808000D+03 0.7927000D+02 0.2559000D+02 0.8997000D+01 0.3319000D+01
EXPONENTS  0.3643000D+00 0.9059000D+00 0.1285000D+00 0.4402000D-01 0.1871000D+02
EXPONENTS  0.4133000D+01 0.1200000D+01 0.1871000D+02 0.4133000D+01 0.1200000D+01
EXPONENTS  0.1871000D+02 0.4133000D+01 0.1200000D+01 0.3827000D+00 0.3827000D+00
EXPONENTS  0.3827000D+00 0.1209000D+00 0.1209000D+00 0.1209000D+00 0.3569000D-01
EXPONENTS  0.3569000D-01 0.3569000D-01 0.1097000D+01 0.1097000D+01 0.1097000D+01
EXPONENTS  0.1097000D+01 0.1097000D+01 0.1097000D+01 0.3180000D+00 0.3180000D+00
EXPONENTS  0.3180000D+00 0.3180000D+00 0.3180000D+00 0.3180000D+00 0.1000000D+00
EXPONENTS  0.1000000D+00 0.1000000D+00 0.1000000D+00 0.1000000D+00 0.1000000D+00
EXPONENTS  0.7610000D+00 0.7610000D+00 0.7610000D+00 0.7610000D+00 0.7610000D+00
EXPONENTS  0.7610000D+00 0.7610000D+00 0.7610000D+00 0.7610000D+00 0.7610000D+00
EXPONENTS  0.2680000D+00 0.2680000D+00 0.2680000D+00 0.2680000D+00 0.2680000D+00
EXPONENTS  0.2680000D+00 0.2680000D+00 0.2680000D+00 0.2680000D+00 0.2680000D+00
EXPONENTS  0.3741000D+06 0.5605000D+05 0.1276000D+05 0.3615000D+04 0.1183000D+04
EXPONENTS  0.4288000D+03 0.1678000D+03 0.6947000D+02 0.2984000D+02 0.1272000D+02
EXPONENTS  0.5244000D+01 0.2219000D+01 0.3490000D+00 0.3741000D+06 0.5605000D+05
EXPONENTS  0.1276000D+05 0.3615000D+04 0.1183000D+04 0.4288000D+03 0.1678000D+03
EXPONENTS  0.6947000D+02 0.2984000D+02 0.1272000D+02 0.5244000D+01 0.2219000D+01
EXPONENTS  0.3490000D+00 0.3741000D+06 0.5605000D+05 0.1276000D+05 0.3615000D+04
EXPONENTS  0.1183000D+04 0.4288000D+03 0.1678000D+03 0.6947000D+02 0.2984000D+02
EXPONENTS  0.1272000D+02 0.5244000D+01 0.2219000D+01 0.3490000D+00 0.7767000D+00
EXPONENTS  0.1322000D+00 0.4970000D-01 0.5744000D+03 0.1358000D+03 0.4319000D+02
EXPONENTS  0.1587000D+02 0.6208000D+01 0.2483000D+01 0.3229000D+00 0.5744000D+03
EXPONENTS  0.1358000D+03 0.4319000D+02 0.1587000D+02 0.6208000D+01 0.2483000D+01
EXPONENTS  0.3229000D+00 0.5744000D+03 0.1358000D+03 0.4319000D+02 0.1587000D+02
EXPONENTS  0.6208000D+01 0.2483000D+01 0.3229000D+00 0.5744000D+03 0.1358000D+03
EXPONENTS  0.4319000D+02 0.1587000D+02 0.6208000D+01 0.2483000D+01 0.3229000D+00
EXPONENTS  0.5744000D+03 0.1358000D+03 0.4319000D+02 0.1587000D+02 0.6208000D+01
EXPONENTS  0.2483000D+01 0.3229000D+00 0.5744000D+03 0.1358000D+03 0.4319000D+02
EXPONENTS  0.1587000D+02 0.6208000D+01 0.2483000D+01 0.3229000D+00 0.8688000D+00
EXPONENTS  0.8688000D+00 0.8688000D+00 0.1098000D+00 0.1098000D+00 0.1098000D+00
EXPONENTS  0.3510000D-01 0.3510000D-01 0.3510000D-01 0.2690000D+00 0.2690000D+00
EXPONENTS  0.2690000D+00 0.2690000D+00 0.2690000D+00 0.2690000D+00 0.8190000D+00
EXPONENTS  0.8190000D+00 0.8190000D+00 0.8190000D+00 0.8190000D+00 0.8190000D+00
EXPONENTS  0.1010000D+00 0.1010000D+00 0.1010000D+00 0.1010000D+00 0.1010000D+00
EXPONENTS  0.1010000D+00 0.5570000D+00 0.5570000D+00 0.5570000D+00 0.5570000D+00
EXPONENTS  0.5570000D+00 0.5570000D+00 0.5570000D+00 0.5570000D+00 0.5570000D+00
EXPONENTS  0.5570000D+00 0.2180000D+00 0.2180000D+00 0.2180000D+00 0.2180000D+00
EXPONENTS  0.2180000D+00 0.2180000D+00 0.2180000D+00 0.2180000D+00 0.2180000D+00
EXPONENTS  0.2180000D+00 0.1950000D+05 0.2923000D+04 0.6645000D+03 0.1875000D+03
EXPONENTS  0.6062000D+02 0.2142000D+02 0.7950000D+01 0.8815000D+00 0.1950000D+05
EXPONENTS  0.2923000D+04 0.6645000D+03 0.1875000D+03 0.6062000D+02 0.2142000D+02
EXPONENTS  0.7950000D+01 0.8815000D+00 0.2257000D+01 0.3041000D+00 0.9158000D-01
EXPONENTS  0.4388000D+02 0.9926000D+01 0.2930000D+01 0.4388000D+02 0.9926000D+01
EXPONENTS  0.2930000D+01 0.4388000D+02 0.9926000D+01 0.2930000D+01 0.9132000D+00
EXPONENTS  0.9132000D+00 0.9132000D+00 0.2672000D+00 0.2672000D+00 0.2672000D+00
EXPONENTS  0.7361000D-01 0.7361000D-01 0.7361000D-01 0.3107000D+01 0.3107000D+01
EXPONENTS  0.3107000D+01 0.3107000D+01 0.3107000D+01 0.3107000D+01 0.8550000D+00
EXPONENTS  0.8550000D+00 0.8550000D+00 0.8550000D+00 0.8550000D+00 0.8550000D+00
EXPONENTS  0.2920000D+00 0.2920000D+00 0.2920000D+00 0.2920000D+00 0.2920000D+00
EXPONENTS  0.2920000D+00 0.1917000D+01 0.1917000D+01 0.1917000D+01 0.1917000D+01
EXPONENTS  0.1917000D+01 0.1917000D+01 0.1917000D+01 0.1917000D+01 0.1917000D+01
EXPONENTS  0.1917000D+01 0.7240000D+00 0.7240000D+00 0.7240000D+00 0.7240000D+00
EXPONENTS  0.7240000D+00 0.7240000D+00 0.7240000D+00 0.7240000D+00 0.7240000D+00
EXPONENTS  0.7240000D+00 0.1950000D+05 0.2923000D+04 0.6645000D+03 0.1875000D+03
EXPONENTS  0.6062000D+02 0.2142000D+02 0.7950000D+01 0.8815000D+00 0.1950000D+05
EXPONENTS  0.2923000D+04 0.6645000D+03 0.1875000D+03 0.6062000D+02 0.2142000D+02
EXPONENTS  0.7950000D+01 0.8815000D+00 0.2257000D+01 0.3041000D+00 0.9158000D-01
EXPONENTS  0.4388000D+02 0.9926000D+01 0.2930000D+01 0.4388000D+02 0.9926000D+01
EXPONENTS  0.2930000D+01 0.4388000D+02 0.9926000D+01 0.2930000D+01 0.9132000D+00
EXPONENTS  0.9132000D+00 0.9132000D+00 0.2672000D+00 0.2672000D+00 0.2672000D+00
EXPONENTS  0.7361000D-01 0.7361000D-01 0.7361000D-01 0.3107000D+01 0.3107000D+01
EXPONENTS  0.3107000D+01 0.3107000D+01 0.3107000D+01 0.3107000D+01 0.8550000D+00
EXPONENTS  0.8550000D+00 0.8550000D+00 0.8550000D+00 0.8550000D+00 0.8550000D+00
EXPONENTS  0.2920000D+00 0.2920000D+00 0.2920000D+00 0.2920000D+00 0.2920000D+00
EXPONENTS  0.2920000D+00 0.1917000D+01 0.1917000D+01 0.1917000D+01 0.1917000D+01
EXPONENTS  0.1917000D+01 0.1917000D+01 0.1917000D+01 0.1917000D+01 0.1917000D+01
EXPONENTS  0.1917000D+01 0.7240000D+00 0.7240000D+00 0.7240000D+00 0.7240000D+00
EXPONENTS  0.7240000D+00 0.7240000D+00 0.7240000D+00 0.7240000D+00 0.7240000D+00
EXPONENTS  0.7240000D+00 0.1950000D+05 0.2923000D+04 0.6645000D+03 0.1875000D+03
EXPONENTS  0.6062000D+02 0.2142000D+02 0.7950000D+01 0.8815000D+00 0.1950000D+05
EXPONENTS  0.2923000D+04 0.6645000D+03 0.1875000D+03 0.6062000D+02 0.2142000D+02
EXPONENTS  0.7950000D+01 0.8815000D+00 0.2257000D+01 0.3041000D+00 0.9158000D-01
EXPONENTS  0.4388000D+02 0.9926000D+01 0.2930000D+01 0.4388000D+02 0.9926000D+01
EXPONENTS  0.2930000D+01 0.4388000D+02 0.9926000D+01 0.2930000D+01 0.9132000D+00
EXPONENTS  0.9132000D+00 0.9132000D+00 0.2672000D+00 0.2672000D+00 0.2672000D+00
EXPONENTS  0.7361000D-01 0.7361000D-01 0.7361000D-01 0.3107000D+01 0.3107000D+01
EXPONENTS  0.3107000D+01 0.3107000D+01 0.3107000D+01 0.3107000D+01 0.8550000D+00
EXPONENTS  0.8550000D+00 0.8550000D+00 0.8550000D+00 0.8550000D+00 0.8550000D+00
EXPONENTS  0.2920000D+00 0.2920000D+00 0.2920000D+00 0.2920000D+00 0.2920000D+00
EXPONENTS  0.2920000D+00 0.1917000D+01 0.1917000D+01 0.1917000D+01 0.1917000D+01
EXPONENTS  0.1917000D+01 0.1917000D+01 0.1917000D+01 0.1917000D+01 0.1917000D+01
EXPONENTS  0.1917000D+01 0.7240000D+00 0.7240000D+00 0.7240000D+00 0.7240000D+00
EXPONENTS  0.7240000D+00 0.7240000D+00 0.7240000D+00 0.7240000D+00 0.7240000D+00
EXPONENTS  0.7240000D+00 0.1533000D+05 0.2299000D+04 0.5224000D+03 0.1473000D+03
EXPONENTS  0.4755000D+02 0.1676000D+02 0.6207000D+01 0.6882000D+00 0.1533000D+05
EXPONENTS  0.2299000D+04 0.5224000D+03 0.1473000D+03 0.4755000D+02 0.1676000D+02
EXPONENTS  0.6207000D+01 0.6882000D+00 0.1752000D+01 0.2384000D+00 0.7376000D-01
EXPONENTS  0.3446000D+02 0.7749000D+01 0.2280000D+01 0.3446000D+02 0.7749000D+01
EXPONENTS  0.2280000D+01 0.3446000D+02 0.7749000D+01 0.2280000D+01 0.7156000D+00
EXPONENTS  0.7156000D+00 0.7156000D+00 0.2140000D+00 0.2140000D+00 0.2140000D+00
EXPONENTS  0.5974000D-01 0.5974000D-01 0.5974000D-01 0.2314000D+01 0.2314000D+01
EXPONENTS  0.2314000D+01 0.2314000D+01 0.2314000D+01 0.2314000D+01 0.6450000D+00
EXPONENTS  0.6450000D+00 0.6450000D+00 0.6450000D+00 0.6450000D+00 0.6450000D+00
EXPONENTS  0.2140000D+00 0.2140000D+00 0.2140000D+00 0.2140000D+00 0.2140000D+00
EXPONENTS  0.2140000D+00 0.1428000D+01 0.1428000D+01 0.1428000D+01 0.1428000D+01
EXPONENTS  0.1428000D+01 0.1428000D+01 0.1428000D+01 0.1428000D+01 0.1428000D+01
EXPONENTS  0.1428000D+01 0.5000000D+00 0.5000000D+00 0.5000000D+00 0.5000000D+00
EXPONENTS  0.5000000D+00 0.5000000D+00 0.5000000D+00 0.5000000D+00 0.5000000D+00
EXPONENTS  0.5000000D+00 0.1533000D+05 0.2299000D+04 0.5224000D+03 0.1473000D+03
EXPONENTS  0.4755000D+02 0.1676000D+02 0.6207000D+01 0.6882000D+00 0.1533000D+05
EXPONENTS  0.2299000D+04 0.5224000D+03 0.1473000D+03 0.4755000D+02 0.1676000D+02
EXPONENTS  0.6207000D+01 0.6882000D+00 0.1752000D+01 0.2384000D+00 0.7376000D-01
EXPONENTS  0.3446000D+02 0.7749000D+01 0.2280000D+01 0.3446000D+02 0.7749000D+01
EXPONENTS  0.2280000D+01 0.3446000D+02 0.7749000D+01 0.2280000D+01 0.7156000D+00
EXPONENTS  0.7156000D+00 0.7156000D+00 0.2140000D+00 0.2140000D+00 0.2140000D+00
EXPONENTS  0.5974000D-01 0.5974000D-01 0.5974000D-01 0.2314000D+01 0.2314000D+01
EXPONENTS  0.2314000D+01 0.2314000D+01 0.2314000D+01 0.2314000D+01 0.6450000D+00
EXPONENTS  0.6450000D+00 0.6450000D+00 0.6450000D+00 0.6450000D+00 0.6450000D+00
EXPONENTS  0.2140000D+00 0.2140000D+00 0.2140000D+00 0.2140000D+00 0.2140000D+00
EXPONENTS  0.2140000D+00 0.1428000D+01 0.1428000D+01 0.1428000D+01 0.1428000D+01
EXPONENTS  0.1428000D+01 0.1428000D+01 0.1428000D+01 0.1428000D+01 0.1428000D+01
EXPONENTS  0.1428000D+01 0.5000000D+00 0.5000000D+00 0.5000000D+00 0.5000000D+00
EXPONENTS  0.5000000D+00 0.5000000D+00 0.5000000D+00 0.5000000D+00 0.5000000D+00
EXPONENTS  0.5000000D+00 0.1533000D+05 0.2299000D+04 0.5224000D+03 0.1473000D+03
EXPONENTS  0.4755000D+02 0.1676000D+02 0.6207000D+01 0.6882000D+00 0.1533000D+05
EXPONENTS  0.2299000D+04 0.5224000D+03 0.1473000D+03 0.4755000D+02 0.1676000D+02
EXPONENTS  0.6207000D+01 0.6882000D+00 0.1752000D+01 0.2384000D+00 0.7376000D-01
EXPONENTS  0.3446000D+02 0.7749000D+01 0.2280000D+01 0.3446000D+02 0.7749000D+01
EXPONENTS  0.2280000D+01 0.3446000D+02 0.7749000D+01 0.2280000D+01 0.7156000D+00
EXPONENTS  0.7156000D+00 0.7156000D+00 0.2140000D+00 0.2140000D+00 0.2140000D+00
EXPONENTS  0.5974000D-01 0.5974000D-01 0.5974000D-01 0.2314000D+01 0.2314000D+01
EXPONENTS  0.2314000D+01 0.2314000D+01 0.2314000D+01 0.2314000D+01 0.6450000D+00
EXPONENTS  0.6450000D+00 0.6450000D+00 0.6450000D+00 0.6450000D+00 0.6450000D+00
EXPONENTS  0.2140000D+00 0.2140000D+00 0.2140000D+00 0.2140000D+00 0.2140000D+00
EXPONENTS  0.2140000D+00 0.1428000D+01 0.1428000D+01 0.1428000D+01 0.1428000D+01
EXPONENTS  0.1428000D+01 0.1428000D+01 0.1428000D+01 0.1428000D+01 0.1428000D+01
EXPONENTS  0.1428000D+01 0.5000000D+00 0.5000000D+00 0.5000000D+00 0.5000000D+00
EXPONENTS  0.5000000D+00 0.5000000D+00 0.5000000D+00 0.5000000D+00 0.5000000D+00
EXPONENTS  0.5000000D+00 0.3387000D+02 0.5095000D+01 0.1159000D+01 0.3258000D+00
EXPONENTS  0.1027000D+00 0.2526000D-01 0.1407000D+01 0.1407000D+01 0.1407000D+01
EXPONENTS  0.3880000D+00 0.3880000D+00 0.3880000D+00 0.1020000D+00 0.1020000D+00
EXPONENTS  0.1020000D+00 0.1057000D+01 0.1057000D+01 0.1057000D+01 0.1057000D+01
EXPONENTS  0.1057000D+01 0.1057000D+01 0.2470000D+00 0.2470000D+00 0.2470000D+00
EXPONENTS  0.2470000D+00 0.2470000D+00 0.2470000D+00
MO    1     MO 0.0        OCC NO =    2.0000000  ORB. ENERGY =  -88.332460
 -0.31227453D-04 -0.58215073D-04 -0.98393729D-04 -0.14791800D-03 -0.18173436D-03
 -0.15350372D-03 -0.57895955D-04  0.28653031D-06  0.23285903D-04  0.43598558D-04
  0.74230276D-04  0.11482295D-03  0.15121779D-03  0.15712497D-03  0.99845862D-04
 -0.66914375D-04 -0.16371635D-03  0.36047850D-02  0.35748120D-03  0.52182958D-05
  0.48924840D-05  0.34837401D-05 -0.45113750D-05 -0.42297008D-05 -0.30117990D-05
 -0.29179194D-05 -0.27357349D-05 -0.19480063D-05  0.22789956D-03  0.15869821D-03
  0.73094516D-04  0.16118148D-02  0.31376679D-03  0.35970600D-03  0.22814048D-04
  0.12045783D-04  0.39471419D-05  0.30487516D-03 -0.17241803D-03 -0.13245712D-03
  0.30128857D-03  0.22281913D-03  0.19131416D-04 -0.44806528D-03  0.19151306D-03
  0.25655222D-03 -0.37236647D-03 -0.33681526D-03 -0.10703004D-03  0.68623711D-04
 -0.20499199D-04 -0.48124512D-04  0.61356747D-04  0.51577768D-04  0.38648905D-04
 -0.47402972D-04 -0.24183416D-04  0.87058636D-04  0.12778107D-03 -0.12586404D-03
 -0.69433170D-04  0.14427850D-04  0.19841429D-03 -0.19174274D-03 -0.67223796D-04
 -0.57551149D-04 -0.53046551D-05  0.67233071D-04  0.19292937D-03 -0.20721090D-03
 -0.80392269D-04 -0.20275924D-04  0.22312487D-03 -0.12130694D-03 -0.49650351D-04
  0.58609541D+00  0.10956713D+01  0.18936621D+01  0.30629135D+01  0.46294144D+01
  0.63754633D+01  0.74514384D+01  0.64386050D+01  0.30029883D+01  0.40774093D+00
  0.10918298D-02  0.21417186D-02  0.97778402D-04 -0.28794646D-02 -0.53775228D-02
 -0.93281454D-02 -0.15125265D-01 -0.23287068D-01 -0.33166015D-01 -0.42647190D-01
 -0.44766859D-01 -0.31653342D-01  0.70097651D-03  0.22743335D-01  0.12523098D-01
 -0.52959967D-04  0.14666530D-02  0.27369914D-02  0.47538265D-02  0.77001442D-02
  0.11894469D-01  0.16957353D-01  0.22055977D-01  0.23505726D-01  0.17433708D-01
 -0.54264661D-03 -0.15794032D-01 -0.15472700D-01  0.72266684D-02 -0.38734774D-02
 -0.69785389D-02 -0.64997611D-03 -0.58850989D-02 -0.77209293D-02 -0.84686826D-02
 -0.69681662D-02 -0.36737550D-02 -0.95573743D-03  0.10576209D-05 -0.32807634D-03
 -0.43041829D-03 -0.47210326D-03 -0.38845404D-03 -0.20480065D-03 -0.53279450D-04
  0.58959144D-07 -0.61139497D-03 -0.80211691D-03 -0.87979999D-03 -0.72391338D-03
 -0.38166145D-03 -0.99290270D-04  0.10987481D-06  0.51041649D-02  0.67017996D-02
  0.75399765D-02  0.63530002D-02  0.35537793D-02  0.88452842D-03 -0.40568736D-03
  0.54491614D-03  0.71547821D-03  0.80496123D-03  0.67824070D-03  0.37939834D-03
  0.94431474D-04 -0.43310824D-04  0.61584482D-03  0.80860800D-03  0.90973852D-03
  0.76652349D-03  0.42878249D-03  0.10672309D-03 -0.48948351D-04  0.36890484D-03
 -0.60785537D-04  0.52422477D-05  0.10414763D-02  0.29947961D-03  0.16490142D-03
  0.13145407D-04  0.32581555D-05  0.86294285D-05  0.12838488D-03  0.20008669D-04
 -0.14839355D-03  0.12940749D-03  0.14601269D-03  0.13232332D-03 -0.22077964D-03
 -0.14587807D-03  0.36665771D-03 -0.26483207D-03 -0.28823958D-03 -0.40410637D-03
 -0.53944473D-04  0.26675542D-04  0.27268931D-04 -0.49633639D-04 -0.34663452D-04
 -0.26094014D-04 -0.12862766D-03  0.18137135D-03 -0.58220337D-04 -0.15911708D-03
 -0.20626435D-03 -0.30754036D-03  0.54500007D-03 -0.33784971D-03  0.48220137D-03
 -0.45452836D-03  0.61890960D-04 -0.80909466D-04  0.38482761D-04  0.11872183D-03
  0.53566277D-04  0.14895002D-03 -0.30439471D-03  0.18916212D-03 -0.26439830D-03
  0.26040088D-03  0.65891639D-04  0.12282487D-03  0.20821835D-03  0.31530395D-03
  0.39428869D-03  0.33944584D-03  0.13049537D-03 -0.56545781D-06 -0.44281306D-04
 -0.83152451D-04 -0.14159428D-03 -0.22180661D-03 -0.29724695D-03 -0.31972917D-03
 -0.19196497D-03  0.12624424D-03 -0.89177075D-05 -0.70699646D-03  0.14352307D-03
  0.59011246D-04  0.57711710D-04  0.38132567D-04  0.82443381D-05  0.80627826D-05
  0.53274214D-05 -0.17225902D-03 -0.16846556D-03 -0.11131232D-03 -0.20881904D-04
  0.12249779D-04  0.19789603D-03 -0.72499609D-03 -0.11937167D-03  0.45791306D-05
  0.16816484D-04 -0.11952304D-04 -0.95244548D-05  0.39718330D-03 -0.28656515D-04
 -0.36852679D-03  0.22104108D-03 -0.16614593D-03 -0.21602173D-03 -0.17130111D-03
  0.34863348D-04  0.13643776D-03 -0.87926321D-04  0.14609490D-03  0.95010490D-04
 -0.16317203D-03  0.75927748D-04  0.87244284D-04 -0.69417569D-04  0.17913027D-03
 -0.55747297D-05  0.92135513D-04  0.11811445D-03  0.11902846D-03 -0.80033840D-04
 -0.44036084D-04 -0.48365133D-03 -0.19637270D-03 -0.31030726D-03  0.12656594D-03
 -0.56764407D-03 -0.56047455D-04 -0.26255087D-04 -0.77409635D-04  0.86429656D-04
 -0.10136770D-04  0.28799261D-03  0.81712711D-04  0.88902030D-04 -0.55763705D-04
  0.22966235D-03  0.95407479D-04  0.17784367D-03  0.30148875D-03  0.45654282D-03
  0.57090840D-03  0.49149895D-03  0.18895014D-03 -0.81875189D-06 -0.63520092D-04
 -0.11927948D-03 -0.20311239D-03 -0.31817435D-03 -0.42639106D-03 -0.45864108D-03
 -0.27536750D-03  0.18109325D-03 -0.26744468D-04 -0.82272290D-03 -0.84598450D-04
  0.13345473D-04  0.13051582D-04  0.86237318D-05  0.20769534D-03  0.20312151D-03
  0.13421097D-03  0.74859177D-04  0.73210640D-04  0.48373365D-04  0.42221969D-04
 -0.21572658D-03 -0.66303698D-04 -0.60629117D-03 -0.30384627D-03 -0.19759139D-03
  0.57597090D-05 -0.85376544D-05  0.11727865D-06  0.11036107D-03 -0.11142819D-03
  0.10671197D-05  0.78297345D-03  0.28649117D-03  0.58410637D-04 -0.13111895D-04
 -0.92316164D-05  0.22343512D-04 -0.35600706D-03 -0.12952573D-03 -0.81360958D-04
 -0.19649830D-04 -0.17594041D-04  0.37243872D-04 -0.23735230D-03 -0.92365731D-04
 -0.91617081D-04 -0.22527714D-03 -0.79691952D-04  0.50044488D-04  0.26060489D-03
  0.29991874D-03 -0.15563723D-03  0.41522653D-03 -0.60842883D-04  0.55037642D-05
 -0.29361228D-04  0.99485422D-04  0.28344909D-04 -0.15944894D-05 -0.19115043D-03
 -0.11912015D-03  0.37976236D-04 -0.10730584D-03  0.34085422D-04 -0.33192767D-04
 -0.10319858D-03  0.63333434D-04  0.11805627D-03  0.20013439D-03  0.30306245D-03
  0.37898066D-03  0.32626705D-03  0.12542896D-03 -0.54350424D-06 -0.42484392D-04
 -0.79778164D-04 -0.13584845D-03 -0.21280580D-03 -0.28518481D-03 -0.30675471D-03
 -0.18417513D-03  0.12112131D-03 -0.10618060D-04 -0.65108221D-03  0.21247680D-03
 -0.69700583D-06 -0.68165648D-06 -0.45039925D-06 -0.96696417D-04 -0.94566984D-04
 -0.62484404D-04  0.13433619D-03  0.13137786D-03  0.86806909D-04  0.41766491D-04
  0.11994469D-03 -0.13679994D-03 -0.73692426D-03 -0.24841051D-04 -0.19000231D-03
  0.20614825D-04 -0.15526201D-04  0.15311243D-04  0.31388565D-03 -0.22220255D-03
 -0.91683091D-04 -0.11840370D-03  0.54716437D-03  0.38533021D-03 -0.12022287D-03
  0.10103728D-03  0.19185590D-04  0.85671782D-04 -0.27483589D-03 -0.11764501D-03
 -0.11375601D-03  0.68358546D-04  0.45397460D-04  0.89125403D-04 -0.28466919D-03
  0.30052949D-04 -0.21621077D-05  0.94395136D-04 -0.14947130D-03 -0.35072118D-03
 -0.43159654D-03  0.31961022D-03  0.35720750D-03  0.14841113D-03  0.12880369D-03
 -0.20218486D-04  0.88073431D-05 -0.44059848D-04  0.65199914D-04  0.15753621D-03
  0.19327619D-03 -0.21678220D-03 -0.18395824D-03 -0.61096646D-04  0.21182457D-04
  0.91955225D-04 -0.28984837D-04 -0.54024007D-04 -0.91606815D-04 -0.13865118D-03
 -0.17299619D-03 -0.14858066D-03 -0.57043004D-04  0.25515686D-06  0.12823654D-04
  0.24051081D-04  0.41001820D-04  0.64077863D-04  0.85684313D-04  0.91490870D-04
  0.55935724D-04 -0.36902993D-04  0.18876432D-03  0.16696009D-02  0.11342504D-03
 -0.12376550D-03 -0.12001090D-03 -0.80958645D-04 -0.21688770D-04 -0.21030812D-04
 -0.14187261D-04  0.30427206D-03  0.29504155D-03  0.19903329D-03  0.41619802D-04
  0.32172863D-05 -0.13330682D-03 -0.17601627D-03 -0.11424482D-03  0.29485701D-03
  0.74054969D-05 -0.25726345D-05 -0.52917594D-06 -0.11437116D-03 -0.33324842D-03
  0.44761958D-03 -0.13137077D-03 -0.77533499D-03 -0.23178242D-03  0.90110811D-04
  0.26024524D-03 -0.35035606D-03  0.25394194D-04  0.65165970D-03  0.13314027D-03
 -0.12528913D-04  0.30352614D-04 -0.17823701D-04  0.46293732D-04  0.72898280D-04
  0.99864290D-05 -0.42044389D-04 -0.10475221D-03 -0.14736623D-04  0.27723049D-04
  0.36964768D-03  0.69494847D-04  0.98410118D-04 -0.55391040D-04 -0.25284978D-04
 -0.20166430D-04 -0.61567054D-04  0.11489149D-04 -0.52530559D-04 -0.13824532D-03
 -0.10860885D-03 -0.73884463D-04  0.32294649D-03  0.74141406D-04  0.23147614D-03
 -0.95424824D-04 -0.44360312D-04 -0.82681914D-04 -0.14020113D-03 -0.21220094D-03
 -0.26476482D-03 -0.22739767D-03 -0.87302386D-04  0.39050893D-06  0.22973276D-04
  0.43086948D-04  0.73453801D-04  0.11479399D-03  0.15350144D-03  0.16390375D-03
  0.10020754D-03 -0.66110849D-04  0.19421328D-03  0.17015604D-02  0.14634420D-03
 -0.52374913D-04 -0.50786047D-04 -0.34259968D-04  0.15845882D-03  0.15365175D-03
  0.10365256D-03 -0.27981055D-03 -0.27132211D-03 -0.18303229D-03  0.13061429D-04
 -0.63458804D-04  0.11362477D-03 -0.11566981D-03  0.80660859D-04 -0.34974006D-03
  0.16820732D-05  0.50043566D-05 -0.60121216D-05 -0.23993002D-03 -0.13467835D-03
  0.37460837D-03 -0.37643004D-03  0.22040018D-03 -0.87714263D-03  0.20382553D-03
  0.82985578D-04 -0.28681111D-03  0.24674122D-03 -0.25214787D-03  0.67214441D-03
  0.54290033D-05  0.26392159D-06 -0.56929249D-05  0.75934148D-04 -0.18518771D-04
  0.71761740D-04 -0.32095584D-04 -0.72690327D-04  0.44397171D-05 -0.66626599D-04
  0.29480392D-03  0.56640677D-04  0.16291335D-03 -0.76732942D-04 -0.69959828D-04
  0.12277089D-03 -0.48978465D-04  0.10214015D-03  0.30974471D-04  0.24550951D-04
 -0.13726972D-04 -0.15665083D-03  0.12238444D-03 -0.29269346D-03  0.63727416D-04
 -0.31903423D-03 -0.53963526D-04 -0.10058107D-03 -0.17055217D-03 -0.25813865D-03
 -0.32208166D-03 -0.27662520D-03 -0.10620179D-03  0.47504713D-06  0.31286979D-04
  0.58679505D-04  0.10003569D-03  0.15633631D-03  0.20905144D-03  0.22321820D-03
  0.13647123D-03 -0.90035429D-04  0.10998739D-03  0.14887005D-02  0.20375335D-05
  0.14026502D-03  0.13600988D-03  0.91751465D-04 -0.12640368D-03 -0.12256905D-03
 -0.82684360D-04 -0.12137826D-03 -0.11769608D-03 -0.79397083D-04 -0.72957389D-04
 -0.91029731D-04  0.73678426D-04  0.70363565D-04 -0.53818282D-03 -0.12782928D-03
  0.10824684D-04  0.32399975D-05 -0.70853181D-05 -0.29695679D-03  0.51200774D-03
 -0.21505095D-03 -0.54778194D-03 -0.19774011D-03  0.42101921D-03  0.12610718D-03
 -0.28129523D-03  0.15518805D-03  0.29361888D-03  0.11786874D-03 -0.24221605D-03
  0.13370114D-04  0.66479681D-05 -0.20018082D-04  0.77941663D-05  0.40539249D-04
 -0.73253701D-04  0.46602348D-04 -0.43917738D-04  0.66713480D-04  0.46940531D-04
  0.13285963D-03  0.22888293D-05 -0.18674758D-03 -0.11064147D-05 -0.20242927D-03
  0.17259638D-03  0.14932383D-04  0.12385360D-03 -0.45517004D-04 -0.17535824D-03
 -0.18274567D-03 -0.87363506D-04  0.13056109D-03 -0.18881513D-03  0.22391452D-03
 -0.14242909D-03 -0.83730153D-05 -0.15101078D-04 -0.22266531D-04 -0.22000169D-04
  0.20532820D-03 -0.26513119D-05 -0.99923767D-04  0.17415826D-03  0.75894897D-04
 -0.64190584D-04  0.54462653D-04  0.44702085D-04 -0.66200767D-05 -0.10279983D-04
 -0.30795248D-04  0.20577642D-04  0.89597466D-05 -0.29537389D-04 -0.28635096D-04
  0.12663775D-03 -0.13240557D-03 -0.23209949D-05  0.25701160D-04 -0.23380165D-04
 -0.14644636D-04  0.68763229D-05 -0.39703190D-05
MO    2     MO 0.0        OCC NO =    2.0000000  ORB. ENERGY =  -24.343487
  0.26685546D-03  0.49747925D-03  0.84082757D-03  0.12640393D-02  0.15530183D-02
  0.13117722D-02  0.49475221D-03 -0.24485563D-05 -0.18652755D-03 -0.34923842D-03
 -0.59460830D-03 -0.91976863D-03 -0.12113029D-02 -0.12586213D-02 -0.79979735D-03
  0.53600559D-03 -0.40765607D-03  0.19613843D-02  0.32653090D-03  0.33845500D-03
  0.31732308D-03  0.22595294D-03 -0.65452524D-04 -0.61365901D-04 -0.43696178D-04
 -0.51185784D-03 -0.47989926D-03 -0.34171686D-03 -0.11320306D-02  0.26102884D-03
  0.18759825D-02  0.20324859D-03  0.12430925D-03  0.22649721D-03  0.18400293D-04
  0.67281881D-05 -0.89022773D-06  0.57695885D-04 -0.61767462D-03  0.55997873D-03
 -0.15555755D-03 -0.16717047D-02  0.31095633D-03  0.48520935D-04 -0.29734658D-03
  0.24882565D-03 -0.77101829D-04 -0.84933245D-03  0.13221214D-03  0.11451784D-04
  0.60976119D-05 -0.17549396D-04  0.39368713D-05  0.27830054D-05 -0.50801683D-05
  0.16455386D-03 -0.32118672D-04  0.27335359D-04  0.28825892D-03  0.50713397D-04
  0.29278040D-03 -0.78192051D-03  0.45642619D-04 -0.37478647D-03 -0.32991621D-03
  0.13832030D-04 -0.17686337D-04  0.12633542D-04  0.27740125D-04  0.17325350D-04
  0.22327333D-04 -0.69236214D-04  0.35733662D-04 -0.60227958D-04 -0.32759422D-04
  0.28787988D-04  0.53817470D-04  0.93013391D-04  0.15044499D-03  0.22738879D-03