 Molden2AIM, Version 4.0.0 (06/02/2016)           Time: Thu Jun 28 23:30:40 2018
GAUSSIAN              7 MOL ORBITALS    204 PRIMITIVES        4 NUCLEI
  C    1    (CENTRE  1)   0.00000000  0.00000000 -0.00698821  CHARGE =  6.0
  C    2    (CENTRE  2)   0.00000000  0.00000000  2.45500557  CHARGE =  6.0
  H    3    (CENTRE  3)   1.78887900  0.00000000  3.49480847  CHARGE =  1.0
  H    4    (CENTRE  4)  -1.78887900  0.00000000  3.49480847  CHARGE =  1.0
CENTRE ASSIGNMENTS    1  1  1  1  1  1  1  1  1  1  1  1  1  1  1  1  1  1  1  1
CENTRE ASSIGNMENTS    1  1  1  1  1  1  1  1  1  1  1  1  1  1  1  1  1  1  1  1
CENTRE ASSIGNMENTS    1  1  1  1  1  1  1  1  1  1  1  1  1  1  1  1  1  1  1  1
CENTRE ASSIGNMENTS    1  1  1  1  1  1  1  1  1  1  1  1  1  1  1  2  2  2  2  2
CENTRE ASSIGNMENTS    2  2  2  2  2  2  2  2  2  2  2  2  2  2  2  2  2  2  2  2
CENTRE ASSIGNMENTS    2  2  2  2  2  2  2  2  2  2  2  2  2  2  2  2  2  2  2  2
CENTRE ASSIGNMENTS    2  2  2  2  2  2  2  2  2  2  2  2  2  2  2  2  2  2  2  2
CENTRE ASSIGNMENTS    2  2  2  2  2  2  2  2  2  2  3  3  3  3  3  3  3  3  3  3
CENTRE ASSIGNMENTS    3  3  3  3  3  3  3  3  3  3  3  3  3  3  3  3  3  4  4  4
CENTRE ASSIGNMENTS    4  4  4  4  4  4  4  4  4  4  4  4  4  4  4  4  4  4  4  4
CENTRE ASSIGNMENTS    4  4  4  4
TYPE ASSIGNMENTS      1  1  1  1  1  1  1  1  1  1  1  1  1  1  1  1  1  1  1  2
TYPE ASSIGNMENTS      2  2  3  3  3  4  4  4  2  3  4  2  3  4  2  3  4  5  6  7
TYPE ASSIGNMENTS      8  9 10  5  6  7  8  9 10  5  6  7  8  9 10 11 12 13 17 14
TYPE ASSIGNMENTS     15 18 19 16 20 11 12 13 17 14 15 18 19 16 20  1  1  1  1  1
TYPE ASSIGNMENTS      1  1  1  1  1  1  1  1  1  1  1  1  1  1  2  2  2  3  3  3
TYPE ASSIGNMENTS      4  4  4  2  3  4  2  3  4  2  3  4  5  6  7  8  9 10  5  6
TYPE ASSIGNMENTS      7  8  9 10  5  6  7  8  9 10 11 12 13 17 14 15 18 19 16 20
TYPE ASSIGNMENTS     11 12 13 17 14 15 18 19 16 20  1  1  1  1  1  1  2  3  4  2
TYPE ASSIGNMENTS      3  4  2  3  4  5  6  7  8  9 10  5  6  7  8  9 10  1  1  1
TYPE ASSIGNMENTS      1  1  1  2  3  4  2  3  4  2  3  4  5  6  7  8  9 10  5  6
TYPE ASSIGNMENTS      7  8  9 10
EXPONENTS  0.8236000D+04 0.1235000D+04 0.2808000D+03 0.7927000D+02 0.2559000D+02
EXPONENTS  0.8997000D+01 0.3319000D+01 0.3643000D+00 0.8236000D+04 0.1235000D+04
EXPONENTS  0.2808000D+03 0.7927000D+02 0.2559000D+02 0.8997000D+01 0.3319000D+01
EXPONENTS  0.3643000D+00 0.9059000D+00 0.1285000D+00 0.4402000D-01 0.1871000D+02
EXPONENTS  0.4133000D+01 0.1200000D+01 0.1871000D+02 0.4133000D+01 0.1200000D+01
EXPONENTS  0.1871000D+02 0.4133000D+01 0.1200000D+01 0.3827000D+00 0.3827000D+00
EXPONENTS  0.3827000D+00 0.1209000D+00 0.1209000D+00 0.1209000D+00 0.3569000D-01
EXPONENTS  0.3569000D-01 0.3569000D-01 0.1097000D+01 0.1097000D+01 0.1097000D+01
EXPONENTS  0.1097000D+01 0.1097000D+01 0.1097000D+01 0.3180000D+00 0.3180000D+00
EXPONENTS  0.3180000D+00 0.3180000D+00 0.3180000D+00 0.3180000D+00 0.1000000D+00
EXPONENTS  0.1000000D+00 0.1000000D+00 0.1000000D+00 0.1000000D+00 0.1000000D+00
EXPONENTS  0.7610000D+00 0.7610000D+00 0.7610000D+00 0.7610000D+00 0.7610000D+00
EXPONENTS  0.7610000D+00 0.7610000D+00 0.7610000D+00 0.7610000D+00 0.7610000D+00
EXPONENTS  0.2680000D+00 0.2680000D+00 0.2680000D+00 0.2680000D+00 0.2680000D+00
EXPONENTS  0.2680000D+00 0.2680000D+00 0.2680000D+00 0.2680000D+00 0.2680000D+00
EXPONENTS  0.8236000D+04 0.1235000D+04 0.2808000D+03 0.7927000D+02 0.2559000D+02
EXPONENTS  0.8997000D+01 0.3319000D+01 0.3643000D+00 0.8236000D+04 0.1235000D+04
EXPONENTS  0.2808000D+03 0.7927000D+02 0.2559000D+02 0.8997000D+01 0.3319000D+01
EXPONENTS  0.3643000D+00 0.9059000D+00 0.1285000D+00 0.4402000D-01 0.1871000D+02
EXPONENTS  0.4133000D+01 0.1200000D+01 0.1871000D+02 0.4133000D+01 0.1200000D+01
EXPONENTS  0.1871000D+02 0.4133000D+01 0.1200000D+01 0.3827000D+00 0.3827000D+00
EXPONENTS  0.3827000D+00 0.1209000D+00 0.1209000D+00 0.1209000D+00 0.3569000D-01
EXPONENTS  0.3569000D-01 0.3569000D-01 0.1097000D+01 0.1097000D+01 0.1097000D+01
EXPONENTS  0.1097000D+01 0.1097000D+01 0.1097000D+01 0.3180000D+00 0.3180000D+00
EXPONENTS  0.3180000D+00 0.3180000D+00 0.3180000D+00 0.3180000D+00 0.1000000D+00
EXPONENTS  0.1000000D+00 0.1000000D+00 0.1000000D+00 0.1000000D+00 0.1000000D+00
EXPONENTS  0.7610000D+00 0.7610000D+00 0.7610000D+00 0.7610000D+00 0.7610000D+00
EXPONENTS  0.7610000D+00 0.7610000D+00 0.7610000D+00 0.7610000D+00 0.7610000D+00
EXPONENTS  0.2680000D+00 0.2680000D+00 0.2680000D+00 0.2680000D+00 0.2680000D+00
EXPONENTS  0.2680000D+00 0.2680000D+00 0.2680000D+00 0.2680000D+00 0.2680000D+00
EXPONENTS  0.3387000D+02 0.5095000D+01 0.1159000D+01 0.3258000D+00 0.1027000D+00
EXPONENTS  0.2526000D-01 0.1407000D+01 0.1407000D+01 0.1407000D+01 0.3880000D+00
EXPONENTS  0.3880000D+00 0.3880000D+00 0.1020000D+00 0.1020000D+00 0.1020000D+00
EXPONENTS  0.1057000D+01 0.1057000D+01 0.1057000D+01 0.1057000D+01 0.1057000D+01
EXPONENTS  0.1057000D+01 0.2470000D+00 0.2470000D+00 0.2470000D+00 0.2470000D+00
EXPONENTS  0.2470000D+00 0.2470000D+00 0.3387000D+02 0.5095000D+01 0.1159000D+01
EXPONENTS  0.3258000D+00 0.1027000D+00 0.2526000D-01 0.1407000D+01 0.1407000D+01
EXPONENTS  0.1407000D+01 0.3880000D+00 0.3880000D+00 0.3880000D+00 0.1020000D+00
EXPONENTS  0.1020000D+00 0.1020000D+00 0.1057000D+01 0.1057000D+01 0.1057000D+01
EXPONENTS  0.1057000D+01 0.1057000D+01 0.1057000D+01 0.2470000D+00 0.2470000D+00
EXPONENTS  0.2470000D+00 0.2470000D+00 0.2470000D+00 0.2470000D+00
MO    1     MO 0.0        OCC NO =    2.0000000  ORB. ENERGY =   -9.957313
  0.32859781D+00  0.61258103D+00  0.10353699D+01  0.15565000D+01  0.19123401D+01
  0.16152770D+01  0.60922304D+00 -0.30150788D-02 -0.25364677D-02 -0.47490678D-02
 -0.80856943D-02 -0.12507340D-01 -0.16471726D-01 -0.17115179D-01 -0.10875928D-01
  0.72887939D-02  0.37029206D-01  0.11928721D-01  0.12690491D-02 -0.64053870D-16
 -0.60054575D-16 -0.42762435D-16 -0.11076983D-17 -0.10385375D-17 -0.73950059D-18
  0.44144117D-02  0.41387915D-02  0.29470661D-02  0.81028590D-15 -0.66741203D-18
  0.89857498D-02  0.10531380D-14 -0.29369414D-18  0.28743584D-02 -0.56863535D-17
 -0.13768802D-19  0.62774396D-04 -0.15841759D-02 -0.27521733D-02  0.43363492D-02
 -0.17525460D-17  0.42355655D-17 -0.27365639D-17 -0.12643966D-02  0.92715662D-05
  0.12551250D-02  0.66741142D-19  0.96538628D-15 -0.32724046D-18 -0.28384051D-04
 -0.48216628D-04  0.76600679D-04 -0.14003793D-20  0.11667617D-15 -0.65018492D-19
 -0.10489949D-15  0.17088884D-18  0.91763199D-03  0.17164705D-16  0.13074822D-19
 -0.18157008D-02  0.29753376D-15 -0.52574135D-18 -0.93719515D-03  0.27303889D-18
 -0.42491330D-16  0.11835502D-19 -0.19331922D-05 -0.68905751D-17  0.22857034D-19
 -0.25973881D-03  0.13436456D-15 -0.58363540D-19  0.26553838D-03 -0.41219945D-20
  0.28966640D-02  0.54000403D-02  0.91270194D-02  0.13720900D-01  0.16857711D-01
  0.14239032D-01  0.53704388D-02 -0.26578602D-04 -0.18571930D-03 -0.34772512D-03
 -0.59203177D-03 -0.91578313D-03 -0.12060542D-02 -0.12531675D-02 -0.79633171D-03
  0.53368299D-03  0.33997489D-02 -0.17527598D-01 -0.17471814D-02 -0.90278584D-15
 -0.84641911D-15 -0.60270083D-15 -0.21569066D-18 -0.20222370D-18 -0.14399532D-18
 -0.31894058D-02 -0.29902707D-02 -0.21292509D-02  0.35930715D-14  0.25786446D-18
  0.73188660D-02  0.28434773D-14  0.23705826D-18  0.26897669D-02  0.16628242D-15
  0.10407707D-19  0.55075774D-04  0.14796282D-02 -0.31609967D-03 -0.11635285D-02
 -0.47241105D-19  0.39585623D-15  0.11358286D-18  0.22237964D-02  0.22488740D-02
 -0.44726704D-02  0.54783955D-19  0.33045260D-14 -0.54268779D-18  0.23686620D-04
  0.17533786D-03 -0.19902448D-03 -0.74753486D-20  0.76781933D-15 -0.73343109D-19
  0.28967263D-15 -0.10830768D-18  0.16935074D-02 -0.60708334D-15 -0.13874776D-18
 -0.22886114D-02 -0.26193455D-15  0.46367081D-18 -0.27919107D-02  0.30219309D-18
  0.17555961D-15 -0.18911338D-19  0.69167805D-03 -0.20374078D-15 -0.71591980D-19
 -0.21043140D-02 -0.32293805D-15  0.12832599D-18  0.29279894D-04  0.20785562D-19
  0.15291649D-03  0.27579118D-03  0.40665394D-03  0.31395680D-02  0.13771829D-02
  0.32894711D-04 -0.21089707D-03  0.31599440D-19 -0.84151733D-03 -0.11355351D-03
  0.22428274D-19  0.22219863D-02 -0.12546825D-03  0.48888777D-19  0.11887658D-03
 -0.14032318D-04  0.61810706D-03 -0.60407474D-03  0.19996919D-18 -0.94585738D-03
 -0.41529956D-19  0.58524631D-04  0.29830757D-03 -0.35683221D-03 -0.22057976D-19
 -0.44395415D-03 -0.34481871D-19  0.15291649D-03  0.27579118D-03  0.40665394D-03
  0.31395680D-02  0.13771829D-02  0.32894711D-04  0.21089707D-03 -0.18917868D-19
 -0.84151733D-03  0.11355351D-03  0.15984286D-18  0.22219863D-02  0.12546825D-03
  0.23609339D-19  0.11887658D-03 -0.14032318D-04  0.61810706D-03 -0.60407474D-03
  0.74783878D-19  0.94585738D-03 -0.12758019D-18  0.58524631D-04  0.29830757D-03
 -0.35683221D-03  0.29216187D-19  0.44395415D-03 -0.33112670D-19
MO    2     MO 0.0        OCC NO =    2.0000000  ORB. ENERGY =   -9.903138
 -0.25954438D-02 -0.48384973D-02 -0.81779128D-02 -0.12294082D-01 -0.15104700D-01
 -0.12758334D-01 -0.48119740D-02  0.23814728D-04 -0.15023781D-03 -0.28129257D-03
 -0.47892468D-03 -0.74082365D-03 -0.97563869D-03 -0.10137511D-02 -0.64419331D-03
  0.43172338D-03  0.16660755D-02 -0.76867295D-02 -0.12465043D-02 -0.26640967D-15
 -0.24977600D-15 -0.17785539D-15 -0.43312199D-15 -0.40607940D-15 -0.28915272D-15
  0.24253257D-02  0.22738970D-02  0.16191501D-02 -0.19497299D-14 -0.26665868D-16
 -0.40609152D-02 -0.36274393D-14 -0.28151901D-18 -0.26263480D-02 -0.18330267D-16
 -0.26506964D-19 -0.73360656D-04  0.16534121D-02  0.79209129D-03 -0.24455034D-02
  0.15529326D-17  0.11007463D-14  0.26110009D-17  0.34139363D-03  0.12630251D-02
 -0.16044187D-02 -0.14256966D-17 -0.39196541D-14 -0.91640179D-17  0.75985628D-04
  0.63971916D-04 -0.13995754D-03 -0.24812344D-18 -0.46626547D-15 -0.28723496D-18
  0.27081395D-15  0.82995112D-18 -0.14011540D-02 -0.31917270D-15  0.97321777D-18
  0.22730275D-02 -0.49326914D-15 -0.34630711D-17  0.19304344D-02  0.27140420D-18
  0.24798354D-15  0.37698160D-18 -0.11613852D-03  0.15496271D-15  0.59223449D-18
 -0.41715972D-04 -0.89891333D-15 -0.17231793D-17  0.39013153D-03 -0.88274919D-18
  0.32967759D+00  0.61459398D+00  0.10387721D+01  0.15616147D+01  0.19186241D+01
  0.16205848D+01  0.61122495D+00 -0.30249864D-02 -0.34255276D-02 -0.64136684D-02
 -0.10919819D-01 -0.16891300D-01 -0.22245248D-01 -0.23114237D-01 -0.14688060D-01
  0.98435964D-02  0.36787834D-01  0.61164647D-02  0.88754142D-03  0.49395875D-14
  0.46311773D-14  0.32976741D-14 -0.82052104D-17 -0.76929063D-17 -0.54778076D-17
  0.12615677D-02  0.11827999D-02  0.84222402D-03 -0.21363422D-13  0.46241180D-17
 -0.14678325D-02 -0.16444941D-13  0.10220838D-18 -0.22634438D-02 -0.65536323D-15
 -0.86549135D-19 -0.66091565D-04  0.27006126D-02 -0.59747410D-02  0.32741284D-02
 -0.24072105D-17 -0.37594897D-14  0.94445182D-17  0.18046782D-03 -0.24320793D-03
  0.62740110D-04  0.21849869D-17 -0.18835331D-13 -0.11818863D-16 -0.16560891D-03
  0.34399498D-04  0.13120941D-03  0.99246616D-18 -0.29542074D-14 -0.15219749D-18
 -0.10928396D-14 -0.23569609D-19 -0.18115581D-02  0.36556892D-14 -0.31662870D-18
  0.54646920D-02 -0.37717042D-15  0.38733753D-18 -0.30017744D-04  0.25910507D-17
 -0.33827119D-15  0.74606475D-19  0.42721640D-03  0.11441332D-14 -0.23052305D-17
 -0.14773683D-02 -0.12931964D-15  0.20814110D-17  0.19571911D-03 -0.14925268D-17
  0.20102159D-03  0.36255071D-03  0.53458081D-03 -0.72596297D-03  0.34233146D-03
  0.23628673D-04  0.19309110D-02 -0.15496194D-17  0.10104091D-02  0.29138137D-02
  0.44406807D-17  0.20879890D-02  0.24697553D-03 -0.67450703D-18 -0.27907294D-06
 -0.24378068D-02  0.20819376D-02  0.35586925D-03 -0.24960736D-17 -0.55064068D-02
 -0.13480759D-17 -0.25436288D-03  0.35973315D-03 -0.10537026D-03 -0.34128956D-18
 -0.35375142D-03 -0.63048034D-18  0.20102159D-03  0.36255071D-03  0.53458081D-03
 -0.72596297D-03  0.34233146D-03  0.23628673D-04 -0.19309110D-02 -0.26194941D-17
  0.10104091D-02 -0.29138137D-02  0.55489582D-17  0.20879890D-02 -0.24697553D-03
  0.20440159D-17 -0.27907294D-06 -0.24378068D-02  0.20819376D-02  0.35586925D-03
  0.27384152D-17  0.55064068D-02  0.13565102D-17 -0.25436288D-03  0.35973315D-03
 -0.10537026D-03  0.85087985D-18  0.35375142D-03 -0.32557513D-17
MO    3     MO 0.0        OCC NO =    2.0000000  ORB. ENERGY =   -0.718076
 -0.81528822D-02 -0.15198826D-01 -0.25688694D-01 -0.38618521D-01 -0.47447315D-01
 -0.40076843D-01 -0.15115510D-01  0.74807505D-04 -0.35750237D-01 -0.66935723D-01
 -0.11396380D+00 -0.17628466D+00 -0.23216070D+00 -0.24122984D+00 -0.15329073D+00
  0.10273188D+00  0.49977747D-01  0.15035597D-01  0.57762123D-03  0.39352251D-14
  0.36895236D-14  0.26271606D-14  0.81328107D-15  0.76250270D-15  0.54294735D-15
  0.23750927D+00  0.22268003D+00  0.15856145D+00 -0.11480514D-13  0.28449538D-16
  0.49730325D-01 -0.22023708D-13  0.38901799D-16  0.21494511D-02  0.57873988D-15
  0.89093123D-18 -0.38748901D-05 -0.10745116D-01 -0.14496830D-01  0.25241947D-01
 -0.55589096D-16  0.22278040D-14 -0.22924287D-16 -0.13701637D-02 -0.21677513D-02
  0.35379150D-02 -0.11212151D-16 -0.20108500D-13  0.15310761D-16  0.56276008D-04
 -0.24363932D-04 -0.31912076D-04  0.64774231D-18 -0.24757809D-14  0.33065247D-17
  0.15304131D-14  0.16261238D-17  0.36407134D-02 -0.20644183D-15  0.14997843D-17
 -0.42511468D-02 -0.43847975D-14 -0.63781557D-17 -0.66709934D-02 -0.24468714D-16
  0.12488375D-14 -0.12567119D-17  0.11248750D-03  0.46813614D-15 -0.24792670D-18
 -0.24441638D-03 -0.42146486D-14  0.40180625D-17 -0.93046108D-04  0.59340750D-20
 -0.10828159D-01 -0.20186150D-01 -0.34118150D-01 -0.51290755D-01 -0.63016618D-01
 -0.53227608D-01 -0.20075495D-01  0.99354747D-04 -0.46910844D-01 -0.87831901D-01
 -0.14954133D+00 -0.23131769D+00 -0.30463726D+00 -0.31653763D+00 -0.20114545D+00
  0.13480301D+00  0.60236409D-01  0.29268600D-01 -0.74114868D-03  0.18173781D-13
  0.17039075D-13  0.12132836D-13  0.15244025D-16  0.14292242D-16  0.10176928D-16
 -0.14862495D+00 -0.13934533D+00 -0.99222179D-01 -0.80245468D-13 -0.20603206D-16
 -0.14353055D-01 -0.88491836D-13 -0.14834557D-16  0.78813205D-04 -0.68162999D-14
 -0.77360668D-18  0.37592841D-04 -0.37572738D-03 -0.19096840D-01  0.19472568D-01
 -0.79748172D-17 -0.60496481D-14 -0.40267642D-17  0.40375292D-02 -0.37269302D-02
 -0.31059901D-03 -0.11069527D-16 -0.88011840D-13  0.16498646D-16 -0.10857873D-03
  0.72215070D-04  0.36363662D-04 -0.20654148D-17 -0.19456300D-13  0.51103559D-17
 -0.42631937D-14  0.42889891D-17 -0.39993263D-02  0.12925095D-13 -0.61290938D-17
  0.82567156D-02 -0.13551344D-15 -0.67378736D-17  0.37412634D-02  0.28640382D-16
 -0.21090010D-14  0.31810616D-18 -0.19009361D-03  0.59702284D-14  0.17521246D-17
  0.78397541D-03  0.35677470D-15 -0.27064431D-17 -0.21369459D-03 -0.20357533D-17
  0.15794307D-01  0.28485684D-01  0.42002124D-01  0.11948253D-01 -0.13805473D-02
  0.14651503D-04 -0.99413802D-02 -0.17210628D-17 -0.85892509D-02  0.21465515D-02
  0.45111740D-17  0.16864111D-02  0.82873713D-03  0.19135780D-17  0.52079168D-03
  0.85769394D-04 -0.13407564D-02  0.12549870D-02 -0.40378225D-18  0.24012955D-02
 -0.18343872D-17 -0.20141580D-03  0.27503977D-03 -0.73623976D-04 -0.20224771D-17
 -0.11288333D-02 -0.96980071D-18  0.15794307D-01  0.28485684D-01  0.42002124D-01
  0.11948253D-01 -0.13805473D-02  0.14651503D-04  0.99413802D-02  0.50374449D-17
 -0.85892509D-02 -0.21465515D-02 -0.10143734D-16  0.16864111D-02 -0.82873713D-03
 -0.35914841D-17  0.52079168D-03  0.85769394D-04 -0.13407564D-02  0.12549870D-02
  0.11444874D-17 -0.24012955D-02 -0.37961341D-17 -0.20141580D-03  0.27503977D-03
 -0.73623976D-04 -0.78114470D-18  0.11288333D-02  0.17536475D-17
MO    4     MO 0.0        OCC NO =    2.0000000  ORB. ENERGY =   -0.494879
 -0.52828356D-02 -0.98484066D-02 -0.16645542D-01 -0.25023702D-01 -0.30744510D-01
 -0.25968653D-01 -0.97944205D-02  0.48473134D-04 -0.38026956D-01 -0.71198461D-01
 -0.12122147D+00 -0.18751118D+00 -0.24694563D+00 -0.25659233D+00 -0.16305291D+00
  0.10927427D+00  0.55578692D-01  0.29809894D-01  0.10902590D-02  0.33865081D-14
  0.31750666D-14  0.22608366D-14  0.62066080D-15  0.58190895D-15  0.41435384D-15
  0.12966439D+00  0.12156861D+00  0.86564093D-01  0.65476533D-14  0.21808691D-15
  0.25518162D-01  0.19606385D-13 -0.43387865D-16  0.34965369D-02 -0.28339568D-15
  0.22155570D-17  0.49191695D-04 -0.51315970D-02 -0.72897376D-02  0.12421335D-01
  0.46015631D-17  0.14606728D-14  0.11447406D-16 -0.45006723D-03 -0.81318672D-03
  0.12632540D-02  0.67534030D-19  0.14266818D-13 -0.18637383D-17 -0.65865348D-04
 -0.11499541D-03  0.18086075D-03 -0.20965449D-18  0.30717601D-14 -0.92329775D-18
 -0.13108311D-14 -0.94730241D-18  0.26451513D-02  0.12165800D-14 -0.99856456D-18
 -0.37462526D-02  0.27159134D-14  0.38404718D-17 -0.41892012D-02 -0.98343390D-17
 -0.10954693D-14  0.32203545D-18  0.17267602D-03 -0.61355630D-15  0.17234720D-17
 -0.31498265D-03  0.38999642D-14 -0.26895783D-17 -0.20304541D-03  0.52616555D-18
  0.31760382D-02  0.59208573D-02  0.10007292D-01  0.15044238D-01  0.18483584D-01
  0.15612342D-01  0.58884009D-02 -0.29142024D-04  0.21303092D-01  0.39886110D-01
  0.67909514D-01  0.10504569D+00  0.13834148D+00  0.14374566D+00  0.91343915D-01
 -0.61216567D-01 -0.29694936D-01 -0.31344125D-01 -0.13794171D-02 -0.80808836D-14
 -0.75763421D-14 -0.53948069D-14  0.52479575D-16  0.49202937D-16  0.35035422D-16
 -0.46701384D+00 -0.43785516D+00 -0.31177896D+00  0.56470778D-13  0.28783531D-16
 -0.93352048D-01  0.10693916D-12  0.42815715D-17 -0.83989887D-02  0.77660456D-14
  0.19611800D-17 -0.56050903D-04 -0.20722922D-01  0.25454675D-02  0.18177454D-01
 -0.26229947D-17  0.13151664D-14  0.33270863D-17 -0.27216961D-02  0.12455435D-02
  0.14761526D-02  0.11308029D-18  0.64293921D-13  0.18382734D-17 -0.12248860D-03
  0.12192461D-03  0.56398884D-06 -0.21085960D-18  0.17673851D-13 -0.64134204D-18
  0.29139726D-14 -0.59252094D-18 -0.23383019D-02 -0.75288123D-14  0.88403725D-18
  0.12022266D-02 -0.12131053D-14  0.89352557D-18  0.58126791D-02  0.47495250D-17
  0.31256377D-14  0.10567229D-17  0.26409310D-03 -0.64730449D-14  0.29018714D-17
 -0.10671342D-02 -0.29038683D-14 -0.60720402D-17  0.27485494D-03  0.16957792D-17
 -0.28885940D-01 -0.52096982D-01 -0.76816970D-01 -0.43444136D-01 -0.33584620D-02
  0.28922501D-04  0.21819216D-01 -0.16478052D-17  0.34306413D-02  0.62213546D-02
 -0.19438843D-17 -0.12043674D-02 -0.15961934D-03 -0.26053960D-17  0.14951731D-06
 -0.63432004D-02  0.21252941D-02  0.42179063D-02  0.43740337D-17 -0.32420471D-02
  0.27408045D-17 -0.22902712D-03  0.29490210D-03 -0.65874974D-04  0.21250169D-17
 -0.14127363D-03  0.91416183D-19 -0.28885940D-01 -0.52096982D-01 -0.76816970D-01
 -0.43444136D-01 -0.33584620D-02  0.28922501D-04 -0.21819216D-01  0.59436379D-17
  0.34306413D-02 -0.62213546D-02  0.57941967D-17 -0.12043674D-02  0.15961934D-03
 -0.40241693D-17  0.14951729D-06 -0.63432004D-02  0.21252941D-02  0.42179063D-02
  0.44867907D-17  0.32420471D-02  0.60767621D-18 -0.22902712D-03  0.29490210D-03
 -0.65874974D-04 -0.21843978D-18  0.14127363D-03  0.49999179D-17
MO    5     MO 0.0        OCC NO =    2.0000000  ORB. ENERGY =   -0.433348
 -0.11484711D-14 -0.21410112D-14 -0.36186861D-14 -0.54400705D-14 -0.66837552D-14
 -0.56454998D-14 -0.21292748D-14  0.10537900D-16  0.12739344D-14  0.23852072D-14
  0.40610194D-14  0.62817795D-14  0.82728826D-14  0.85960550D-14  0.54624070D-14
 -0.36607782D-14 -0.45870679D-14 -0.26060141D-12 -0.62126209D-13  0.20357789D+00
  0.19086722D+00  0.13590883D+00 -0.70452170D-15 -0.66053387D-15 -0.47033947D-15
  0.63583650D-14  0.59613713D-14  0.42448515D-14  0.48898658D-01 -0.38650320D-15
 -0.38256359D-13  0.62038560D-02  0.82149553D-16 -0.73087115D-13  0.78363790D-04
  0.21669732D-16 -0.33690279D-14  0.18369794D-14  0.34524306D-14 -0.52894099D-14
 -0.16228752D-15  0.39179798D-01 -0.67886773D-15  0.43263998D-14  0.36435452D-14
 -0.79699450D-14  0.40995992D-16  0.77376689D-02 -0.14501997D-15  0.16853472D-14
  0.12399542D-14 -0.29253015D-14 -0.13261410D-16  0.34175549D-03  0.50509831D-16
 -0.18567687D-02  0.12319228D-15 -0.34518493D-14 -0.30326343D-02 -0.56882005D-16
  0.41432074D-14  0.86029403D-02 -0.31269485D-15  0.62123404D-14 -0.16590524D-15
 -0.24297982D-04 -0.10461662D-17  0.75664982D-15 -0.23708526D-04  0.29412325D-17
 -0.96048164D-15  0.96602471D-04  0.19726623D-18 -0.13094678D-14  0.81090415D-17
  0.39126322D-14  0.72940360D-14  0.12328206D-13  0.18533331D-13  0.22770339D-13
  0.19233191D-13  0.72540522D-14 -0.35900709D-16 -0.29305514D-14 -0.54869168D-14
 -0.93419453D-14 -0.14450569D-13 -0.19030891D-13 -0.19774315D-13 -0.12565689D-13
  0.84212327D-14 -0.96746296D-14  0.24683453D-12  0.52508182D-13  0.53661740D+00
  0.50311293D+00  0.35824637D+00 -0.38983868D-15 -0.36549854D-15 -0.26025673D-15
  0.24206229D-14  0.22694878D-14  0.16160105D-14  0.12363459D+00  0.16930491D-15
  0.31219297D-15  0.16051914D-01 -0.15156109D-15 -0.84635252D-13  0.50914520D-04
 -0.20895650D-16 -0.40559253D-14  0.35660149D-14  0.51451021D-15 -0.40805251D-14
 -0.54301244D-16  0.23469086D-01 -0.12249930D-15  0.36848791D-14 -0.18310451D-13
  0.14625572D-13 -0.13716824D-16  0.61075142D-02  0.57434288D-16 -0.64649538D-14
 -0.19888885D-14  0.84538422D-14  0.10500581D-16  0.15408048D-02  0.12571789D-16
 -0.91254379D-03 -0.13809464D-15 -0.55121641D-14 -0.71125055D-02  0.23646665D-16
  0.15921948D-13  0.98501369D-02  0.39063724D-15  0.61454477D-15  0.31163616D-16
  0.18041903D-03  0.36606198D-17 -0.20376309D-14 -0.60102168D-03  0.98388460D-17
  0.53973385D-14  0.59764600D-04 -0.20820705D-16  0.71555428D-15 -0.92529986D-17
  0.36568109D-01  0.65952091D-01  0.97246320D-01  0.54847087D-01 -0.21182907D-02
  0.10488268D-05 -0.16159769D-01 -0.93878883D-16 -0.17352919D-01  0.20168224D-02
 -0.36346122D-16 -0.33328637D-02  0.17808973D-02 -0.20454084D-16  0.23866125D-03
 -0.85469550D-03 -0.18110895D-02  0.26657850D-02  0.33696244D-15  0.89550480D-02
  0.94605435D-18 -0.28084806D-03  0.61040583D-04  0.21980747D-03  0.19804333D-17
 -0.28634245D-03  0.61170856D-17 -0.36568109D-01 -0.65952091D-01 -0.97246320D-01
 -0.54847087D-01  0.21182907D-02 -0.10488268D-05 -0.16159769D-01  0.14270546D-15
  0.17352919D-01  0.20168224D-02 -0.84916732D-16  0.33328637D-02  0.17808973D-02
  0.12382839D-16 -0.23866125D-03  0.85469550D-03  0.18110895D-02 -0.26657850D-02
 -0.44343242D-15  0.89550480D-02  0.17821940D-15  0.28084806D-03 -0.61040583D-04
 -0.21980747D-03 -0.46611615D-17 -0.28634245D-03  0.45203737D-17
MO    6     MO 0.0        OCC NO =    2.0000000  ORB. ENERGY =   -0.272034
 -0.28713703D-16 -0.53528871D-16 -0.90473221D-16 -0.13601089D-15 -0.16710509D-15
 -0.14114696D-15 -0.53235441D-16  0.26346517D-18 -0.83502748D-16 -0.15634349D-15
 -0.26618817D-15 -0.41175262D-15 -0.54226372D-15 -0.56344674D-15 -0.35804511D-15
  0.23995351D-15  0.14505107D-15  0.22432249D-15 -0.73709763D-15 -0.15720501D-14
 -0.14738969D-14 -0.10495024D-14  0.49140836D+00  0.46072657D+00  0.32806477D+00
 -0.29808667D-14 -0.27947521D-14 -0.19900300D-14 -0.55236896D-15  0.11961189D+00
 -0.75985510D-15 -0.16210338D-15  0.15817883D-01 -0.48733779D-15  0.86663340D-17
  0.24363146D-03 -0.56850977D-16  0.76640352D-16 -0.23928582D-16 -0.52711771D-16
 -0.99809146D-15 -0.54863773D-15  0.55766335D-01  0.80943070D-17  0.20310734D-15
 -0.21120164D-15  0.22920776D-14  0.99028273D-16  0.10082569D-01  0.21024252D-16
  0.25233560D-16 -0.46257812D-16  0.44364921D-15  0.45764355D-16  0.23457241D-03
  0.24222569D-16 -0.34086751D-02 -0.16789345D-15  0.19375456D-15 -0.34609543D-03
  0.22037796D-15 -0.26642227D-15  0.10572121D-01  0.28330239D-15 -0.95949897D-15
 -0.11362914D-16 -0.84484220D-04 -0.39705931D-16 -0.15436751D-16  0.35172215D-03
  0.29149813D-16  0.49525493D-16 -0.98269488D-04  0.89967979D-16  0.17498528D-14
  0.16337033D-15  0.30455944D-15  0.51475910D-15  0.77385154D-15  0.95076603D-15
  0.80307391D-15  0.30288993D-15 -0.14990192D-17 -0.37592560D-16 -0.70385133D-16
 -0.11983671D-15 -0.18536917D-15 -0.24412468D-15 -0.25366118D-15 -0.16119029D-15
  0.10802598D-15 -0.28057890D-16  0.10558570D-15  0.48710807D-15  0.76019236D-15
  0.71272865D-15  0.50750526D-15  0.52695155D+00  0.49405057D+00  0.35179344D+00
  0.21872195D-14  0.20506573D-14  0.14601902D-14  0.55825019D-15  0.13044270D+00
 -0.10353019D-15  0.15796754D-15  0.18466789D-01 -0.63014942D-16 -0.28993506D-16
  0.34955909D-03 -0.60032865D-16 -0.88000687D-16  0.95390062D-16 -0.73893751D-17
 -0.13355882D-15 -0.87283680D-16 -0.33988978D-01  0.14630309D-16 -0.29915784D-16
  0.15285476D-16  0.31276414D-14  0.11509513D-14 -0.67727350D-02  0.92616658D-16
 -0.13008733D-16 -0.79607925D-16 -0.96418353D-15  0.15140300D-17  0.52365057D-04
 -0.39103354D-16 -0.45522375D-02  0.42724168D-16 -0.22382605D-15  0.45705920D-03
 -0.19196525D-15  0.34113611D-15  0.13199653D-01  0.63792751D-16 -0.33342973D-16
 -0.12642349D-15 -0.17581349D-04 -0.79845410D-17 -0.65325749D-16  0.13542010D-03
 -0.54921295D-17  0.44459623D-15 -0.82676058D-04  0.29445752D-16  0.42435500D-14
  0.13373601D-15  0.24119841D-15  0.35564691D-15 -0.55741952D-15 -0.39907418D-16
  0.14755246D-15 -0.14050560D-15  0.12953534D-01  0.34902722D-15  0.77589495D-15
  0.91972172D-02 -0.71158069D-15 -0.18716136D-15  0.92722213D-03 -0.22221744D-17
 -0.26842294D-15  0.31558735D-15 -0.47164414D-16 -0.74452951D-02  0.22466488D-15
 -0.58288402D-02 -0.11358191D-15 -0.16276749D-16  0.12985866D-15 -0.73618264D-03
  0.22025122D-15 -0.45700636D-03  0.27842261D-16  0.50214664D-16  0.74041493D-16
  0.84751090D-15  0.44684446D-16  0.46014457D-17  0.17429492D-16  0.12953534D-01
 -0.48268298D-15  0.10006788D-14  0.91972172D-02  0.80738277D-15  0.22212256D-15
  0.92722213D-03  0.92169791D-16  0.22505311D-15 -0.41405321D-16 -0.18364779D-15
  0.74452951D-02 -0.44538472D-16 -0.58288402D-02  0.11607123D-15 -0.33814437D-16
 -0.82256790D-16  0.73618264D-03  0.12252494D-15 -0.45700636D-03
MO    7     MO 0.0        OCC NO =    2.0000000  ORB. ENERGY =   -0.257323
 -0.30057321D-02 -0.56033680D-02 -0.94706790D-02 -0.14237533D-01 -0.17492454D-01
 -0.14775174D-01 -0.55726519D-02  0.27579365D-04 -0.32960891D-01 -0.61713187D-01
 -0.10507198D+00 -0.16253038D+00 -0.21404679D+00 -0.22240833D+00 -0.14133051D+00
  0.94716419D-01  0.45622921D-01  0.71764199D-01  0.77329002D-02  0.17346941D-14
  0.16263860D-14  0.11580837D-14 -0.24673165D-14 -0.23132661D-14 -0.16471833D-14
 -0.60492618D+00 -0.56715675D+00 -0.40384939D+00 -0.31048215D-15 -0.60918966D-15
 -0.13653404D+00 -0.82790118D-14 -0.12944661D-15 -0.12836806D-01 -0.64015704D-15
 -0.13574622D-16 -0.22337029D-03  0.20342280D-01  0.17395389D-01 -0.37737669D-01
 -0.42027346D-15  0.27644756D-14 -0.27364070D-15  0.35600058D-02  0.97072415D-03
 -0.45307299D-02 -0.56401979D-16 -0.27524911D-14 -0.70441274D-16  0.14303940D-04
  0.25591129D-04 -0.39895068D-04 -0.23829175D-17 -0.58299821D-15 -0.13554662D-16
 -0.33838919D-16  0.13764442D-16 -0.11911274D-02  0.17377540D-14  0.33370175D-17
 -0.13193458D-03 -0.16362372D-14 -0.44630344D-16  0.37053168D-02  0.39015727D-16
 -0.11642300D-16  0.86431114D-18  0.15515180D-03 -0.39182968D-15  0.25394809D-17
 -0.17732390D-03  0.42675659D-15 -0.51324144D-17 -0.28813150D-03 -0.18684471D-17
  0.79978619D-03  0.14909833D-02  0.25200244D-02  0.37884222D-02  0.46545144D-02
  0.39314815D-02  0.14828102D-02 -0.73385102D-05  0.16185788D-01  0.30304903D-01
  0.51596689D-01  0.79812233D-01  0.10510990D+00  0.10921592D+00  0.69401816D-01
 -0.46511483D-01 -0.26318359D-01  0.36473852D-02  0.93221185D-03 -0.11787863D-14
 -0.11051871D-14 -0.78695906D-15 -0.21966054D-14 -0.20594572D-14 -0.14664562D-14
  0.33315709D+00  0.31235595D+00  0.22241604D+00  0.51752601D-14 -0.55098807D-15
  0.70342369D-01  0.36303230D-13 -0.45211761D-16  0.16090115D-01  0.39938443D-14
 -0.35485726D-17  0.36714215D-03  0.96998334D-02  0.53396040D-02 -0.15039437D-01
  0.10020961D-16  0.41985529D-15  0.11677348D-15  0.93820920D-03 -0.34606440D-02
  0.25224348D-02  0.33333412D-16  0.28600782D-15 -0.69248546D-17  0.91132163D-03
 -0.27820893D-03 -0.63311270D-03  0.13682728D-16 -0.26533268D-14 -0.27813415D-16
  0.12937005D-15  0.88747283D-17  0.22063256D-02  0.35385565D-15 -0.30680749D-17
 -0.17520411D-02 -0.74196578D-15 -0.23556110D-16 -0.48669358D-02  0.24289600D-17
  0.11991076D-14  0.12460721D-17 -0.93515030D-03 -0.22968780D-14 -0.94656489D-17
  0.29898717D-02 -0.13004447D-14  0.57274326D-17 -0.18442079D-03  0.74377934D-18
  0.73448476D-02  0.13246735D-01  0.19532303D-01  0.40361306D-02 -0.67195084D-02
 -0.20818003D-03 -0.45865592D-02 -0.47851060D-16  0.50237180D-02  0.18612872D-02
 -0.37521922D-16  0.32849831D-02  0.68737504D-03 -0.44734998D-17  0.16130491D-02
  0.19727936D-02 -0.64323677D-04 -0.19084699D-02  0.36231632D-16 -0.24552209D-02
  0.20353126D-16  0.11191248D-03 -0.46402585D-03  0.35211337D-03 -0.31297328D-17
 -0.98716138D-04  0.17998047D-16  0.73448476D-02  0.13246735D-01  0.19532303D-01
  0.40361306D-02 -0.67195084D-02 -0.20818003D-03  0.45865592D-02 -0.16669688D-15
  0.50237180D-02 -0.18612872D-02  0.15966736D-16  0.32849831D-02 -0.68737504D-03
  0.36666324D-16  0.16130491D-02  0.19727936D-02 -0.64323677D-04 -0.19084699D-02
  0.68776520D-16  0.24552209D-02 -0.34921521D-16  0.11191248D-03 -0.46402585D-03
  0.35211337D-03  0.81169839D-17  0.98716138D-04 -0.45697719D-17
END DATA
RHF
