 Molden2AIM, Version 4.0.0 (06/02/2016)           Time: Fri Jun 29 04:26:36 2018
GAUSSIAN             26 MOL ORBITALS    494 PRIMITIVES        6 NUCLEI
  C    1    (CENTRE  1)  -3.20485079  0.87638695 -0.46551513  CHARGE =  6.0
  F    2    (CENTRE  2)  -0.60303806  0.86851813 -0.72703433  CHARGE =  9.0
  H    3    (CENTRE  3)  -3.86077283 -1.08786620 -0.43477496  CHARGE =  1.0
  H    4    (CENTRE  4)  -4.02278094  1.90195076 -2.07241351  CHARGE =  1.0
  Se   5    (CENTRE  5)  -4.30994939  2.62379213  2.56856677  CHARGE = 34.0
  H    6    (CENTRE  6)  -3.74050121  0.49841527  4.27493655  CHARGE =  1.0
CENTRE ASSIGNMENTS    1  1  1  1  1  1  1  1  1  1  1  1  1  1  1  1  1  1  1  1
CENTRE ASSIGNMENTS    1  1  1  1  1  1  1  1  1  1  1  1  1  1  1  1  1  1  1  1
CENTRE ASSIGNMENTS    1  1  1  1  1  1  1  1  1  1  1  1  1  1  1  1  1  1  1  1
CENTRE ASSIGNMENTS    1  1  1  1  1  1  1  1  1  1  1  1  1  1  1  2  2  2  2  2
CENTRE ASSIGNMENTS    2  2  2  2  2  2  2  2  2  2  2  2  2  2  2  2  2  2  2  2
CENTRE ASSIGNMENTS    2  2  2  2  2  2  2  2  2  2  2  2  2  2  2  2  2  2  2  2
CENTRE ASSIGNMENTS    2  2  2  2  2  2  2  2  2  2  2  2  2  2  2  2  2  2  2  2
CENTRE ASSIGNMENTS    2  2  2  2  2  2  2  2  2  2  3  3  3  3  3  3  3  3  3  3
CENTRE ASSIGNMENTS    3  3  3  3  3  3  3  3  3  3  3  3  3  3  3  3  3  4  4  4
CENTRE ASSIGNMENTS    4  4  4  4  4  4  4  4  4  4  4  4  4  4  4  4  4  4  4  4
CENTRE ASSIGNMENTS    4  4  4  4  5  5  5  5  5  5  5  5  5  5  5  5  5  5  5  5
CENTRE ASSIGNMENTS    5  5  5  5  5  5  5  5  5  5  5  5  5  5  5  5  5  5  5  5
CENTRE ASSIGNMENTS    5  5  5  5  5  5  5  5  5  5  5  5  5  5  5  5  5  5  5  5
CENTRE ASSIGNMENTS    5  5  5  5  5  5  5  5  5  5  5  5  5  5  5  5  5  5  5  5
CENTRE ASSIGNMENTS    5  5  5  5  5  5  5  5  5  5  5  5  5  5  5  5  5  5  5  5
CENTRE ASSIGNMENTS    5  5  5  5  5  5  5  5  5  5  5  5  5  5  5  5  5  5  5  5
CENTRE ASSIGNMENTS    5  5  5  5  5  5  5  5  5  5  5  5  5  5  5  5  5  5  5  5
CENTRE ASSIGNMENTS    5  5  5  5  5  5  5  5  5  5  5  5  5  5  5  5  5  5  5  5
CENTRE ASSIGNMENTS    5  5  5  5  5  5  5  5  5  5  5  5  5  5  5  5  5  5  5  5
CENTRE ASSIGNMENTS    5  5  5  5  5  5  5  5  5  5  5  5  5  5  5  5  5  5  5  5
CENTRE ASSIGNMENTS    5  5  5  5  5  5  5  5  5  5  5  5  5  5  5  5  5  5  5  5
CENTRE ASSIGNMENTS    5  5  5  5  5  5  5  5  5  5  5  5  5  5  5  5  5  5  5  5
CENTRE ASSIGNMENTS    5  5  5  5  5  5  5  5  5  5  5  5  5  5  5  5  5  5  5  5
CENTRE ASSIGNMENTS    5  5  5  5  5  5  5  6  6  6  6  6  6  6  6  6  6  6  6  6
CENTRE ASSIGNMENTS    6  6  6  6  6  6  6  6  6  6  6  6  6  6
TYPE ASSIGNMENTS      1  1  1  1  1  1  1  1  1  1  1  1  1  1  1  1  1  1  1  2
TYPE ASSIGNMENTS      2  2  3  3  3  4  4  4  2  3  4  2  3  4  2  3  4  5  6  7
TYPE ASSIGNMENTS      8  9 10  5  6  7  8  9 10  5  6  7  8  9 10 11 12 13 17 14
TYPE ASSIGNMENTS     15 18 19 16 20 11 12 13 17 14 15 18 19 16 20  1  1  1  1  1
TYPE ASSIGNMENTS      1  1  1  1  1  1  1  1  1  1  1  1  1  1  2  2  2  3  3  3
TYPE ASSIGNMENTS      4  4  4  2  3  4  2  3  4  2  3  4  5  6  7  8  9 10  5  6
TYPE ASSIGNMENTS      7  8  9 10  5  6  7  8  9 10 11 12 13 17 14 15 18 19 16 20
TYPE ASSIGNMENTS     11 12 13 17 14 15 18 19 16 20  1  1  1  1  1  1  2  3  4  2
TYPE ASSIGNMENTS      3  4  2  3  4  5  6  7  8  9 10  5  6  7  8  9 10  1  1  1
TYPE ASSIGNMENTS      1  1  1  2  3  4  2  3  4  2  3  4  5  6  7  8  9 10  5  6
TYPE ASSIGNMENTS      7  8  9 10  1  1  1  1  1  1  1  1  1  1  1  1  1  1  1  1
TYPE ASSIGNMENTS      1  1  1  1  1  1  1  1  1  1  1  1  1  1  1  1  1  1  1  1
TYPE ASSIGNMENTS      1  1  1  1  1  1  1  1  1  1  1  1  1  1  1  1  1  1  1  1
TYPE ASSIGNMENTS      1  1  1  1  1  1  1  1  1  1  1  1  1  1  1  1  1  1  1  2
TYPE ASSIGNMENTS      2  2  2  2  2  2  2  2  2  2  3  3  3  3  3  3  3  3  3  3
TYPE ASSIGNMENTS      3  4  4  4  4  4  4  4  4  4  4  4  2  2  2  2  2  2  2  2
TYPE ASSIGNMENTS      2  2  2  3  3  3  3  3  3  3  3  3  3  3  4  4  4  4  4  4
TYPE ASSIGNMENTS      4  4  4  4  4  2  2  2  2  2  2  2  2  2  2  2  3  3  3  3
TYPE ASSIGNMENTS      3  3  3  3  3  3  3  4  4  4  4  4  4  4  4  4  4  4  2  3
TYPE ASSIGNMENTS      4  2  3  4  2  3  4  5  5  5  5  5  5  5  6  6  6  6  6  6
TYPE ASSIGNMENTS      6  7  7  7  7  7  7  7  8  8  8  8  8  8  8  9  9  9  9  9
TYPE ASSIGNMENTS      9  9 10 10 10 10 10 10 10  5  6  7  8  9 10  5  6  7  8  9
TYPE ASSIGNMENTS     10  5  6  7  8  9 10 11 12 13 17 14 15 18 19 16 20 11 12 13
TYPE ASSIGNMENTS     17 14 15 18 19 16 20  1  1  1  1  1  1  2  3  4  2  3  4  2
TYPE ASSIGNMENTS      3  4  5  6  7  8  9 10  5  6  7  8  9 10
EXPONENTS  0.8236000D+04 0.1235000D+04 0.2808000D+03 0.7927000D+02 0.2559000D+02
EXPONENTS  0.8997000D+01 0.3319000D+01 0.3643000D+00 0.8236000D+04 0.1235000D+04
EXPONENTS  0.2808000D+03 0.7927000D+02 0.2559000D+02 0.8997000D+01 0.3319000D+01
EXPONENTS  0.3643000D+00 0.9059000D+00 0.1285000D+00 0.4402000D-01 0.1871000D+02
EXPONENTS  0.4133000D+01 0.1200000D+01 0.1871000D+02 0.4133000D+01 0.1200000D+01
EXPONENTS  0.1871000D+02 0.4133000D+01 0.1200000D+01 0.3827000D+00 0.3827000D+00
EXPONENTS  0.3827000D+00 0.1209000D+00 0.1209000D+00 0.1209000D+00 0.3569000D-01
EXPONENTS  0.3569000D-01 0.3569000D-01 0.1097000D+01 0.1097000D+01 0.1097000D+01
EXPONENTS  0.1097000D+01 0.1097000D+01 0.1097000D+01 0.3180000D+00 0.3180000D+00
EXPONENTS  0.3180000D+00 0.3180000D+00 0.3180000D+00 0.3180000D+00 0.1000000D+00
EXPONENTS  0.1000000D+00 0.1000000D+00 0.1000000D+00 0.1000000D+00 0.1000000D+00
EXPONENTS  0.7610000D+00 0.7610000D+00 0.7610000D+00 0.7610000D+00 0.7610000D+00
EXPONENTS  0.7610000D+00 0.7610000D+00 0.7610000D+00 0.7610000D+00 0.7610000D+00
EXPONENTS  0.2680000D+00 0.2680000D+00 0.2680000D+00 0.2680000D+00 0.2680000D+00
EXPONENTS  0.2680000D+00 0.2680000D+00 0.2680000D+00 0.2680000D+00 0.2680000D+00
EXPONENTS  0.1950000D+05 0.2923000D+04 0.6645000D+03 0.1875000D+03 0.6062000D+02
EXPONENTS  0.2142000D+02 0.7950000D+01 0.8815000D+00 0.1950000D+05 0.2923000D+04
EXPONENTS  0.6645000D+03 0.1875000D+03 0.6062000D+02 0.2142000D+02 0.7950000D+01
EXPONENTS  0.8815000D+00 0.2257000D+01 0.3041000D+00 0.9158000D-01 0.4388000D+02
EXPONENTS  0.9926000D+01 0.2930000D+01 0.4388000D+02 0.9926000D+01 0.2930000D+01
EXPONENTS  0.4388000D+02 0.9926000D+01 0.2930000D+01 0.9132000D+00 0.9132000D+00
EXPONENTS  0.9132000D+00 0.2672000D+00 0.2672000D+00 0.2672000D+00 0.7361000D-01
EXPONENTS  0.7361000D-01 0.7361000D-01 0.3107000D+01 0.3107000D+01 0.3107000D+01
EXPONENTS  0.3107000D+01 0.3107000D+01 0.3107000D+01 0.8550000D+00 0.8550000D+00
EXPONENTS  0.8550000D+00 0.8550000D+00 0.8550000D+00 0.8550000D+00 0.2920000D+00
EXPONENTS  0.2920000D+00 0.2920000D+00 0.2920000D+00 0.2920000D+00 0.2920000D+00
EXPONENTS  0.1917000D+01 0.1917000D+01 0.1917000D+01 0.1917000D+01 0.1917000D+01
EXPONENTS  0.1917000D+01 0.1917000D+01 0.1917000D+01 0.1917000D+01 0.1917000D+01
EXPONENTS  0.7240000D+00 0.7240000D+00 0.7240000D+00 0.7240000D+00 0.7240000D+00
EXPONENTS  0.7240000D+00 0.7240000D+00 0.7240000D+00 0.7240000D+00 0.7240000D+00
EXPONENTS  0.3387000D+02 0.5095000D+01 0.1159000D+01 0.3258000D+00 0.1027000D+00
EXPONENTS  0.2526000D-01 0.1407000D+01 0.1407000D+01 0.1407000D+01 0.3880000D+00
EXPONENTS  0.3880000D+00 0.3880000D+00 0.1020000D+00 0.1020000D+00 0.1020000D+00
EXPONENTS  0.1057000D+01 0.1057000D+01 0.1057000D+01 0.1057000D+01 0.1057000D+01
EXPONENTS  0.1057000D+01 0.2470000D+00 0.2470000D+00 0.2470000D+00 0.2470000D+00
EXPONENTS  0.2470000D+00 0.2470000D+00 0.3387000D+02 0.5095000D+01 0.1159000D+01
EXPONENTS  0.3258000D+00 0.1027000D+00 0.2526000D-01 0.1407000D+01 0.1407000D+01
EXPONENTS  0.1407000D+01 0.3880000D+00 0.3880000D+00 0.3880000D+00 0.1020000D+00
EXPONENTS  0.1020000D+00 0.1020000D+00 0.1057000D+01 0.1057000D+01 0.1057000D+01
EXPONENTS  0.1057000D+01 0.1057000D+01 0.1057000D+01 0.2470000D+00 0.2470000D+00
EXPONENTS  0.2470000D+00 0.2470000D+00 0.2470000D+00 0.2470000D+00 0.9563600D+07
EXPONENTS  0.1432100D+07 0.3259100D+06 0.9231200D+05 0.3011600D+05 0.1087200D+05
EXPONENTS  0.4240100D+04 0.1758400D+04 0.7665900D+03 0.3484300D+03 0.1640300D+03
EXPONENTS  0.7914200D+02 0.3552400D+02 0.1730500D+02 0.8378400D+01 0.3740500D+01
EXPONENTS  0.1689000D+01 0.2552000D+00 0.9563600D+07 0.1432100D+07 0.3259100D+06
EXPONENTS  0.9231200D+05 0.3011600D+05 0.1087200D+05 0.4240100D+04 0.1758400D+04
EXPONENTS  0.7665900D+03 0.3484300D+03 0.1640300D+03 0.7914200D+02 0.3552400D+02
EXPONENTS  0.1730500D+02 0.8378400D+01 0.3740500D+01 0.1689000D+01 0.2552000D+00
EXPONENTS  0.9563600D+07 0.1432100D+07 0.3259100D+06 0.9231200D+05 0.3011600D+05
EXPONENTS  0.1087200D+05 0.4240100D+04 0.1758400D+04 0.7665900D+03 0.3484300D+03
EXPONENTS  0.1640300D+03 0.7914200D+02 0.3552400D+02 0.1730500D+02 0.8378400D+01
EXPONENTS  0.3740500D+01 0.1689000D+01 0.2552000D+00 0.9563600D+07 0.1432100D+07
EXPONENTS  0.3259100D+06 0.9231200D+05 0.3011600D+05 0.1087200D+05 0.4240100D+04
EXPONENTS  0.1758400D+04 0.7665900D+03 0.3484300D+03 0.1640300D+03 0.7914200D+02
EXPONENTS  0.3552400D+02 0.1730500D+02 0.8378400D+01 0.3740500D+01 0.1689000D+01
EXPONENTS  0.2552000D+00 0.5092700D+00 0.1065100D+00 0.3920100D-01 0.8004300D+04
EXPONENTS  0.1896900D+04 0.6147100D+03 0.2335000D+03 0.9785600D+02 0.4351400D+02
EXPONENTS  0.2006300D+02 0.9112700D+01 0.4106300D+01 0.1794900D+01 0.2461500D+00
EXPONENTS  0.8004300D+04 0.1896900D+04 0.6147100D+03 0.2335000D+03 0.9785600D+02
EXPONENTS  0.4351400D+02 0.2006300D+02 0.9112700D+01 0.4106300D+01 0.1794900D+01
EXPONENTS  0.2461500D+00 0.8004300D+04 0.1896900D+04 0.6147100D+03 0.2335000D+03
EXPONENTS  0.9785600D+02 0.4351400D+02 0.2006300D+02 0.9112700D+01 0.4106300D+01
EXPONENTS  0.1794900D+01 0.2461500D+00 0.8004300D+04 0.1896900D+04 0.6147100D+03
EXPONENTS  0.2335000D+03 0.9785600D+02 0.4351400D+02 0.2006300D+02 0.9112700D+01
EXPONENTS  0.4106300D+01 0.1794900D+01 0.2461500D+00 0.8004300D+04 0.1896900D+04
EXPONENTS  0.6147100D+03 0.2335000D+03 0.9785600D+02 0.4351400D+02 0.2006300D+02
EXPONENTS  0.9112700D+01 0.4106300D+01 0.1794900D+01 0.2461500D+00 0.8004300D+04
EXPONENTS  0.1896900D+04 0.6147100D+03 0.2335000D+03 0.9785600D+02 0.4351400D+02
EXPONENTS  0.2006300D+02 0.9112700D+01 0.4106300D+01 0.1794900D+01 0.2461500D+00
EXPONENTS  0.8004300D+04 0.1896900D+04 0.6147100D+03 0.2335000D+03 0.9785600D+02
EXPONENTS  0.4351400D+02 0.2006300D+02 0.9112700D+01 0.4106300D+01 0.1794900D+01
EXPONENTS  0.2461500D+00 0.8004300D+04 0.1896900D+04 0.6147100D+03 0.2335000D+03
EXPONENTS  0.9785600D+02 0.4351400D+02 0.2006300D+02 0.9112700D+01 0.4106300D+01
EXPONENTS  0.1794900D+01 0.2461500D+00 0.8004300D+04 0.1896900D+04 0.6147100D+03
EXPONENTS  0.2335000D+03 0.9785600D+02 0.4351400D+02 0.2006300D+02 0.9112700D+01
EXPONENTS  0.4106300D+01 0.1794900D+01 0.2461500D+00 0.6243200D+00 0.6243200D+00
EXPONENTS  0.6243200D+00 0.8891700D-01 0.8891700D-01 0.8891700D-01 0.3025100D-01
EXPONENTS  0.3025100D-01 0.3025100D-01 0.3618500D+03 0.1085500D+03 0.4143300D+02
EXPONENTS  0.1757900D+02 0.7862700D+01 0.3518000D+01 0.1534800D+01 0.3618500D+03
EXPONENTS  0.1085500D+03 0.4143300D+02 0.1757900D+02 0.7862700D+01 0.3518000D+01
EXPONENTS  0.1534800D+01 0.3618500D+03 0.1085500D+03 0.4143300D+02 0.1757900D+02
EXPONENTS  0.7862700D+01 0.3518000D+01 0.1534800D+01 0.3618500D+03 0.1085500D+03
EXPONENTS  0.4143300D+02 0.1757900D+02 0.7862700D+01 0.3518000D+01 0.1534800D+01
EXPONENTS  0.3618500D+03 0.1085500D+03 0.4143300D+02 0.1757900D+02 0.7862700D+01
EXPONENTS  0.3518000D+01 0.1534800D+01 0.3618500D+03 0.1085500D+03 0.4143300D+02
EXPONENTS  0.1757900D+02 0.7862700D+01 0.3518000D+01 0.1534800D+01 0.6081300D+00
EXPONENTS  0.6081300D+00 0.6081300D+00 0.6081300D+00 0.6081300D+00 0.6081300D+00
EXPONENTS  0.2220000D+00 0.2220000D+00 0.2220000D+00 0.2220000D+00 0.2220000D+00
EXPONENTS  0.2220000D+00 0.8370000D-01 0.8370000D-01 0.8370000D-01 0.8370000D-01
EXPONENTS  0.8370000D-01 0.8370000D-01 0.4620000D+00 0.4620000D+00 0.4620000D+00
EXPONENTS  0.4620000D+00 0.4620000D+00 0.4620000D+00 0.4620000D+00 0.4620000D+00
EXPONENTS  0.4620000D+00 0.4620000D+00 0.1880000D+00 0.1880000D+00 0.1880000D+00
EXPONENTS  0.1880000D+00 0.1880000D+00 0.1880000D+00 0.1880000D+00 0.1880000D+00
EXPONENTS  0.1880000D+00 0.1880000D+00 0.3387000D+02 0.5095000D+01 0.1159000D+01
EXPONENTS  0.3258000D+00 0.1027000D+00 0.2526000D-01 0.1407000D+01 0.1407000D+01
EXPONENTS  0.1407000D+01 0.3880000D+00 0.3880000D+00 0.3880000D+00 0.1020000D+00
EXPONENTS  0.1020000D+00 0.1020000D+00 0.1057000D+01 0.1057000D+01 0.1057000D+01
EXPONENTS  0.1057000D+01 0.1057000D+01 0.1057000D+01 0.2470000D+00 0.2470000D+00
EXPONENTS  0.2470000D+00 0.2470000D+00 0.2470000D+00 0.2470000D+00
MO    1     MO 0.0        OCC NO =    2.0000000  ORB. ENERGY = -452.121708
 -0.66056116D-05 -0.12314362D-04 -0.20813441D-04 -0.31289419D-04 -0.38442667D-04
 -0.32470978D-04 -0.12246858D-04  0.60610384D-07  0.48478241D-05  0.90766564D-05
  0.15453784D-04  0.23904654D-04  0.31481589D-04  0.32711387D-04  0.20786618D-04
 -0.13930708D-04 -0.14196165D-04  0.75675899D-04 -0.42826355D-07  0.26748576D-05
  0.25078490D-05  0.17857379D-05 -0.50127881D-05 -0.46998075D-05 -0.33465429D-05
 -0.68013274D-05 -0.63766767D-05 -0.45405737D-05 -0.23787423D-05 -0.24480452D-05
 -0.10937204D-04 -0.85988961D-05 -0.10369333D-04 -0.14884053D-04 -0.21615129D-06
  0.49348517D-08 -0.29084266D-06  0.46534542D-05  0.29808300D-05 -0.76342842D-05
  0.51965836D-05  0.10866933D-04 -0.13885740D-04 -0.75396260D-05  0.20262414D-05
  0.55133847D-05 -0.41062166D-05 -0.40160604D-05  0.38000463D-05 -0.19846483D-05
  0.22619599D-05 -0.27731161D-06 -0.12483850D-05 -0.14779307D-05 -0.36253587D-05
  0.25430130D-06 -0.25298708D-05 -0.54032415D-06  0.14453873D-05 -0.79888339D-06
 -0.22214781D-06 -0.22082912D-05  0.83884956D-05  0.18431203D-05 -0.73403195D-05
  0.27097140D-05 -0.20063490D-05  0.11982939D-05 -0.38247488D-05 -0.18166140D-05
 -0.12912452D-05 -0.43043933D-05  0.78356609D-05 -0.23036365D-05 -0.38683722D-06
  0.28265030D-05  0.52687240D-05  0.89317825D-05  0.13525351D-04  0.16913499D-04
  0.14560947D-04  0.55977596D-05 -0.24256009D-07 -0.18336280D-05 -0.34432286D-05
 -0.58632244D-05 -0.91847063D-05 -0.12308587D-04 -0.13239545D-04 -0.79490054D-05
  0.52276004D-05 -0.20865298D-05 -0.11646845D-04 -0.55318793D-06  0.53161505D-05
  0.51990791D-05  0.34352514D-05  0.26757609D-06  0.26168357D-06  0.17290540D-06
 -0.50713237D-05 -0.49596438D-05 -0.32770464D-05 -0.51894919D-05 -0.41100710D-06
  0.37322285D-05  0.11114319D-04  0.47931316D-05  0.25886167D-07  0.38378688D-06
 -0.34201274D-07 -0.85464972D-06  0.73759983D-05  0.84969357D-06 -0.82256919D-05
  0.84916501D-05  0.14637721D-04 -0.45448641D-06 -0.26327145D-05 -0.71785871D-06
  0.33505732D-05 -0.38918287D-05 -0.73052790D-05  0.74994694D-06 -0.47897309D-06
  0.11676050D-05 -0.68863186D-06 -0.15922055D-05  0.18368466D-05 -0.16103076D-07
  0.44049780D-05 -0.73509166D-05  0.30880977D-05 -0.82759659D-06 -0.40425599D-05
 -0.22189127D-05 -0.12387338D-04  0.26095310D-04 -0.70453803D-05 -0.73620663D-05
 -0.77613360D-06  0.18623241D-05 -0.10725500D-05 -0.35499439D-06  0.19967901D-05
  0.13718700D-05  0.26833952D-05 -0.75837625D-05  0.18457798D-05  0.11166760D-05
  0.13335090D-05  0.24050383D-05  0.35462276D-05 -0.37596325D-04 -0.51849057D-04
 -0.35278920D-06 -0.35400415D-05 -0.15282258D-05  0.11875524D-05 -0.30925543D-05
 -0.10468177D-04  0.38376754D-05 -0.32223431D-05 -0.61965215D-05 -0.52817288D-05
  0.43834167D-06 -0.25352006D-05  0.20968589D-05 -0.68959827D-05  0.38668212D-06
  0.27523650D-05  0.66656243D-07  0.13526709D-05 -0.14193271D-05  0.21014044D-05
  0.24754801D-05 -0.52251291D-06  0.13501911D-05  0.24351253D-05  0.35905908D-05
 -0.41514001D-04 -0.36545521D-04 -0.13813700D-05 -0.17845662D-05  0.43986249D-05
  0.86128562D-07 -0.93290754D-05  0.34056613D-05 -0.97046339D-05 -0.48004965D-05
 -0.33454076D-05 -0.51427604D-05  0.11101341D-06 -0.82114086D-07 -0.28899325D-07
  0.54634667D-05 -0.62690441D-05  0.46008063D-05 -0.23743502D-06  0.20673082D-06
  0.30704205D-07  0.89733427D-07  0.11133127D-06 -0.30926286D-05  0.77214849D+00
  0.14427235D+01  0.25022231D+01  0.40992807D+01  0.64191480D+01  0.96398486D+01
  0.13749184D+02  0.18165458D+02  0.20949238D+02  0.18854986D+02  0.10578116D+02
  0.25573162D+01  0.12140869D+00 -0.20776677D-02  0.58435839D-03 -0.22772353D-03
  0.21540046D-04  0.21238939D-05  0.11203842D-03  0.20632048D-03  0.35812053D-03
  0.58653434D-03  0.92317807D-03  0.13934151D-02  0.20311933D-02  0.27892551D-02
  0.35423184D-02  0.38148522D-02  0.30434174D-02  0.68170122D-03 -0.18228537D-02
 -0.16210172D-02 -0.31659123D-03 -0.87702285D-05 -0.63511013D-06 -0.12970686D-07
 -0.89018694D-04 -0.16071501D-03 -0.27977423D-03 -0.45814211D-03 -0.72228712D-03
 -0.10899114D-02 -0.15951664D-02 -0.21979297D-02 -0.28315224D-02 -0.31166158D-02
 -0.26236851D-02 -0.62479331D-03  0.21045441D-02  0.28121121D-02  0.34547372D-03
 -0.12071321D-02 -0.53287030D-03  0.26445394D-05  0.31982523D-04  0.69289782D-04
  0.11795678D-03  0.19254713D-03  0.30355882D-03  0.45808731D-03  0.67044965D-03
  0.92484327D-03  0.11929511D-02  0.13188266D-02  0.11169483D-02  0.27131417D-03
 -0.94130032D-03 -0.13285374D-02 -0.15851282D-03  0.74497377D-03  0.59549875D-03
 -0.22560309D-03  0.18009038D-03  0.89336254D-04  0.13842675D-04 -0.81837410D-04
 -0.11729199D-03 -0.15488857D-03 -0.17803660D-03 -0.16378254D-03 -0.10477618D-03
 -0.36267100D-04 -0.40772893D-05 -0.51873058D-07 -0.89887045D-08 -0.91854778D-10
  0.23000071D-03  0.32964435D-03  0.43530801D-03  0.50036462D-03  0.46030417D-03
  0.29446919D-03  0.10192721D-03  0.11459055D-04  0.14578712D-06  0.25262388D-07
  0.25815411D-09  0.58276409D-06  0.83523609D-06  0.11029613D-05  0.12677984D-05
  0.11662953D-05  0.74611105D-06  0.25825797D-06  0.29034372D-07  0.36938798D-09
  0.64008553D-10  0.65409776D-12  0.76435392D-03  0.11025203D-02  0.14684144D-02
  0.17378144D-02  0.16699744D-02  0.11478635D-02  0.36139879D-03 -0.17466077D-03
 -0.17924423D-03 -0.45140350D-04  0.49215714D-07 -0.20983165D-02 -0.30266563D-02
 -0.40311146D-02 -0.47706758D-02 -0.45844403D-02 -0.31511331D-02 -0.99211772D-03
  0.47948154D-03  0.49206412D-03  0.12392001D-03 -0.13510776D-06 -0.12378512D-03
 -0.17855028D-03 -0.23780587D-03 -0.28143450D-03 -0.27044799D-03 -0.18589349D-03
 -0.58527590D-04  0.28285856D-04  0.29028135D-04  0.73103617D-05 -0.79703562D-08
 -0.57637316D-03 -0.83556067D-03 -0.11089978D-02 -0.13234828D-02 -0.12715528D-02
 -0.89001916D-03 -0.26873338D-03  0.16450492D-03  0.17692210D-03  0.47580140D-04
 -0.17736324D-04  0.15697249D-02  0.22756098D-02  0.30203029D-02  0.36044425D-02
  0.34630136D-02  0.24239249D-02  0.73188259D-03 -0.44802133D-03 -0.48183894D-03
 -0.12958225D-03  0.48304036D-04  0.78155859D-04  0.11330153D-03  0.15037945D-03
  0.17946348D-03  0.17242180D-03  0.12068607D-03  0.36440087D-04 -0.22306769D-04
 -0.23990532D-04 -0.64518388D-05  0.24050351D-05  0.43867248D-05 -0.14987892D-04
 -0.30261580D-05  0.12103282D-04 -0.23693332D-04 -0.83325043D-05  0.23541990D-06
 -0.37291650D-06 -0.50412659D-06 -0.25477161D-03 -0.26371296D-03 -0.22064000D-03
 -0.14237545D-03 -0.63956999D-04 -0.18674409D-04 -0.31504872D-05  0.57336740D-04
  0.59349005D-04  0.49655368D-04  0.32041813D-04  0.14393620D-04  0.42027042D-05
  0.70902195D-06  0.19743487D-03  0.20436396D-03  0.17098463D-03  0.11033364D-03
  0.49563379D-04  0.14471704D-04  0.24414652D-05 -0.31784064D-03 -0.32899544D-03
 -0.27525971D-03 -0.17762067D-03 -0.79789635D-04 -0.23297282D-04 -0.39303943D-05
 -0.15765310D-03 -0.16318602D-03 -0.13653240D-03 -0.88102167D-04 -0.39576698D-04
 -0.11555755D-04 -0.19495267D-05 -0.13581558D-03 -0.14058210D-03 -0.11762044D-03
 -0.75898582D-04 -0.34094681D-04 -0.99550949D-05 -0.16794855D-05  0.13417463D-04
 -0.27395910D-05 -0.10677872D-04  0.16490699D-04  0.82885808D-05  0.81494443D-05
  0.25008076D-05 -0.42375011D-05  0.17366935D-05  0.32930119D-05 -0.38753027D-05
  0.61162759D-05 -0.13289113D-05  0.78107690D-06  0.54783440D-06 -0.27482423D-05
 -0.13177989D-05  0.12822422D-05  0.43409569D-05 -0.19463274D-05  0.26056902D-05
 -0.66636638D-05 -0.89006602D-05  0.32020022D-05 -0.63592069D-05  0.14739642D-04
 -0.11019073D-04  0.93571472D-07 -0.56948299D-06  0.66532142D-06 -0.26588870D-07
  0.40903751D-06  0.77839108D-06 -0.22183721D-06  0.12994115D-05 -0.27743553D-05
  0.30160382D-06  0.20778965D-05 -0.38589628D-05 -0.69597983D-05 -0.10262219D-04
  0.39172852D-04 -0.37626495D-04 -0.61348192D-06  0.60442985D-06 -0.58640558D-05
  0.56851310D-05 -0.75418926D-05  0.33093106D-04 -0.30963374D-04 -0.99751263D-06
 -0.63575623D-06  0.34861303D-05 -0.69607032D-05  0.60008184D-05  0.95988482D-06
 -0.82346820D-05  0.63025192D-05 -0.25458074D-04 -0.28809500D-05  0.17633475D-05
  0.11176025D-05 -0.18290950D-05  0.32351881D-05 -0.10167165D-04
MO    2     MO 0.0        OCC NO =    2.0000000  ORB. ENERGY =  -57.432446
  0.18359519D-03  0.34226318D-03  0.57848507D-03  0.86965255D-03  0.10684686D-02
  0.90249257D-03  0.34038699D-03 -0.16845942D-05 -0.13501808D-03 -0.25279644D-03
 -0.43040757D-03 -0.66577507D-03 -0.87680235D-03 -0.91105380D-03 -0.57893379D-03
  0.38798796D-03  0.40339912D-03 -0.20853269D-02  0.59761021D-04 -0.64936267D-04
 -0.60881878D-04 -0.43351524D-04  0.12489291D-03  0.11709504D-03  0.83378643D-04
  0.16294495D-03  0.15277125D-03  0.10878223D-03  0.35217671D-04  0.10594358D-03
  0.38973286D-03  0.25456649D-03  0.38104448D-03  0.54960600D-03  0.62968454D-05
  0.27787190D-05  0.13342128D-04 -0.15933528D-03 -0.91973448D-04  0.25130872D-03
 -0.17229908D-03 -0.35528455D-03  0.44761234D-03  0.23512306D-03 -0.59593760D-04
 -0.17552930D-03  0.13091991D-03  0.13470275D-03 -0.11491625D-03  0.61501343D-04
 -0.73843742D-04  0.12342399D-04  0.38730950D-04  0.46225918D-04  0.12524809D-03
 -0.10650485D-05  0.68119942D-04  0.19249201D-04 -0.46809783D-04  0.17093794D-04
 -0.60401105D-05  0.50004928D-04 -0.22145362D-03 -0.51707491D-04  0.20433131D-03
 -0.76670184D-04  0.60728411D-04 -0.38622041D-04  0.98857405D-04  0.68211121D-04
  0.44381605D-04  0.13115315D-03 -0.25039635D-03  0.71484517D-04  0.39123944D-04
 -0.74086133D-04 -0.13809976D-03 -0.23411305D-03 -0.35451615D-03 -0.44332369D-03
 -0.38166040D-03 -0.14672419D-03  0.63577994D-06  0.48709726D-04  0.91468239D-04
  0.15575464D-03  0.24398872D-03  0.32697358D-03  0.35170418D-03  0.21116273D-03
 -0.13886949D-03  0.49033326D-04  0.28961726D-03  0.83851580D-05 -0.17315964D-03
 -0.16934635D-03 -0.11189429D-03 -0.18654477D-04 -0.18243671D-04 -0.12054365D-04
  0.13930939D-03  0.13624154D-03  0.90020544D-04  0.17736152D-03  0.24196153D-04
 -0.10105736D-03 -0.33135120D-03 -0.17750937D-03 -0.37179085D-04 -0.12546769D-04
  0.80033743D-06  0.28013499D-04 -0.22750618D-03 -0.27856321D-04  0.25536250D-03
 -0.27261878D-03 -0.47629299D-03  0.20458127D-04  0.80372081D-04  0.24997748D-04
 -0.10536983D-03  0.12660641D-03  0.24072966D-03 -0.22080939D-04  0.19913913D-04
 -0.35232414D-04  0.15318501D-04  0.63939594D-04 -0.41527809D-04 -0.14708928D-04
 -0.95052053D-04  0.21231954D-03 -0.97007886D-04  0.17460481D-04  0.14962975D-03
  0.10280855D-03  0.26769568D-03 -0.78658838D-03  0.18821510D-03  0.52883856D-04
  0.12166280D-04 -0.54257069D-04  0.35946442D-04  0.12925216D-04 -0.73856892D-04
 -0.58591425D-04 -0.49424055D-04  0.23662810D-03 -0.49247901D-04  0.19578946D-04
 -0.40701594D-04 -0.73407000D-04 -0.10823858D-03  0.11012489D-02  0.16660534D-02
  0.14517596D-04  0.10117371D-03  0.41641040D-04 -0.23336247D-04  0.10922054D-03
  0.30630131D-03 -0.15164445D-03  0.10194013D-03  0.20038284D-03  0.17517609D-03
  0.24273202D-05  0.73029154D-04 -0.75456474D-04  0.22811014D-03 -0.55390067D-05
 -0.12589680D-03 -0.68507516D-06 -0.39316168D-04  0.40001243D-04 -0.67295425D-04
 -0.72992358D-04  0.14512052D-04 -0.40799721D-04 -0.73583977D-04 -0.10849953D-03
  0.12226679D-02  0.11633244D-02  0.45847158D-04  0.43561006D-04 -0.11851882D-03
 -0.19570648D-05  0.31342707D-03 -0.12424506D-03  0.26245922D-03  0.15367154D-03
  0.11079730D-03  0.16760170D-03  0.14143339D-04  0.14325502D-04 -0.28468841D-04
 -0.17234651D-03  0.21020938D-03 -0.16108273D-03  0.86080324D-05 -0.84195095D-05
 -0.18852285D-06  0.72160588D-07  0.60379092D-06  0.90538924D-04  0.10312502D-02
  0.19268429D-02  0.33418676D-02  0.54748329D-02  0.85731536D-02  0.12874590D-01
  0.18362852D-01  0.24261048D-01  0.27978952D-01  0.25181954D-01  0.14127702D-01
  0.34154477D-02  0.16214852D-03 -0.27748486D-05  0.78044534D-06 -0.30413831D-06
  0.28768011D-07  0.28365865D-08 -0.24695550D+00 -0.45477239D+00 -0.78937062D+00
 -0.12928412D+01 -0.20348726D+01 -0.30713707D+01 -0.44771639D+01 -0.61480866D+01
 -0.78079916D+01 -0.84087117D+01 -0.67083122D+01 -0.15026084D+01  0.40179411D+01
  0.35730522D+01  0.69783159D+00  0.19331371D-01  0.13999121D-02  0.28590036D-04
  0.26774490D-02  0.48338862D-02  0.84148754D-02  0.13779714D-01  0.21724503D-01
  0.32781678D-01  0.47978425D-01  0.66107964D-01  0.85164771D-01  0.93739632D-01
  0.78913570D-01  0.18792145D-01 -0.63299169D-01 -0.84580960D-01 -0.10390944D-01
  0.36307369D-01  0.16027342D-01 -0.79540814D-04 -0.99473821D-03 -0.21550893D-02
 -0.36687571D-02 -0.59887079D-02 -0.94414549D-02 -0.14247686D-01 -0.20852697D-01
 -0.28764989D-01 -0.37103829D-01 -0.41018877D-01 -0.34739947D-01 -0.84385639D-02
  0.29276845D-01  0.41320909D-01  0.49301536D-02 -0.23170588D-01 -0.18521533D-01
  0.70168326D-02 -0.55990091D-02 -0.30190885D-02 -0.50019212D-03  0.22193379D-01
  0.31808259D-01  0.42004027D-01  0.48281511D-01  0.44415972D-01  0.28414114D-01
  0.98352270D-02  0.11057147D-02  0.14067386D-04  0.24376349D-05  0.24909976D-07
 -0.61603521D-01 -0.88292132D-01 -0.11659315D+00 -0.13401795D+00 -0.12328813D+00
 -0.78870796D-01 -0.27300242D-01 -0.30691999D-02 -0.39047705D-04 -0.67662924D-05
 -0.69144145D-07 -0.56685999D-02 -0.81244183D-02 -0.10728606D-01 -0.12331992D-01
 -0.11344662D-01 -0.72574908D-02 -0.25120991D-02 -0.28242000D-03 -0.35930708D-05
 -0.62261709D-06 -0.63624691D-08 -0.22292129D-01 -0.32154640D-01 -0.42825820D-01
 -0.50682783D-01 -0.48704251D-01 -0.33477058D-01 -0.10540076D-01  0.50939237D-02
  0.52275988D-02  0.13165034D-02 -0.14353600D-05  0.63055973D-01  0.90953272D-01
  0.12113799D+00  0.14336236D+00  0.13776584D+00  0.94693892D-01  0.29813875D-01
 -0.14408777D-01 -0.14786893D-01 -0.37238884D-02  0.40600887D-05  0.24250706D-03
  0.34979733D-03  0.46588478D-03  0.55135750D-03  0.52983385D-03  0.36418338D-03
  0.11466123D-03 -0.55414737D-04 -0.56868933D-04 -0.14321708D-04  0.15614701D-07
  0.17119253D-01  0.24817559D-01  0.32939103D-01  0.39309668D-01  0.37767259D-01
  0.26435068D-01  0.79818338D-02 -0.48860731D-02 -0.52548843D-02 -0.14132103D-02
  0.52679869D-03 -0.47908430D-01 -0.69452228D-01 -0.92180462D-01 -0.11000856D+00
 -0.10569211D+00 -0.73978845D-01 -0.22337255D-01  0.13673732D-01  0.14705855D-01
  0.39548854D-02 -0.14742523D-02  0.88152330D-04  0.12779329D-03  0.16961363D-03
  0.20241764D-03  0.19447530D-03  0.13612234D-03  0.41100931D-04 -0.25159901D-04
 -0.27059025D-04 -0.72770568D-05  0.27126494D-05 -0.88221338D-04  0.37398550D-03
  0.23937766D-04 -0.41145306D-03  0.79139949D-03  0.32378030D-03 -0.85709629D-05
  0.13382585D-04  0.18721791D-04  0.52962802D-02  0.54821561D-02  0.45867404D-02
  0.29597501D-02  0.13295602D-02  0.38821006D-03  0.65493416D-04 -0.16182254D-02
 -0.16750179D-02 -0.14014326D-02 -0.90432198D-03 -0.40623379D-03 -0.11861369D-03
 -0.20010857D-04 -0.36780549D-02 -0.38071382D-02 -0.31853078D-02 -0.20554281D-02
 -0.92332639D-03 -0.26959636D-03 -0.45482559D-04  0.72435606D-02  0.74977774D-02
  0.62731447D-02  0.40479597D-02  0.18183988D-02  0.53094303D-03  0.89573343D-04
  0.35397525D-02  0.36639820D-02  0.30655337D-02  0.19781398D-02  0.88860743D-03
  0.25945899D-03  0.43772321D-04  0.35942882D-02  0.37204317D-02  0.31127634D-02
  0.20086163D-02  0.90229790D-03  0.26345638D-03  0.44446706D-04 -0.42683219D-03
  0.87249808D-04  0.33958239D-03 -0.52524265D-03 -0.26445432D-03 -0.25792859D-03
 -0.63659549D-04  0.13846555D-03 -0.74806002D-04 -0.86468816D-04  0.14499164D-03
 -0.21620093D-03  0.44640421D-04 -0.24605102D-04 -0.20035319D-04  0.91149552D-04
  0.46761477D-04 -0.46917967D-04 -0.13483995D-03  0.57068475D-04 -0.80621215D-04
  0.21238513D-03  0.27673670D-03 -0.10456004D-03  0.19213472D-03 -0.44794213D-03
  0.34642369D-03 -0.18731615D-04  0.19781988D-04 -0.21965927D-04  0.24398475D-05
 -0.14612861D-04 -0.27376913D-04  0.59882421D-05 -0.44733102D-04  0.93274695D-04
 -0.13307784D-04 -0.67894864D-04  0.12112651D-03  0.21845666D-03  0.32211421D-03
 -0.11851136D-02  0.11837029D-02  0.18988668D-04 -0.29368156D-04  0.22305189D-03
 -0.22060592D-03  0.23888571D-03 -0.10504556D-02  0.98788701D-03  0.33968191D-04
  0.11897190D-04 -0.10660092D-03  0.22603267D-03 -0.19951472D-03 -0.26517953D-04
  0.26352964D-03 -0.21373075D-03  0.83693674D-03  0.97277140D-04 -0.58014838D-04
 -0.39262302D-04  0.62574414D-04 -0.10459309D-03  0.33638982D-03
MO    3     MO 0.0        OCC NO =    2.0000000  ORB. ENERGY =  -51.581928
 -0.10969338D-03 -0.20449341D-03 -0.34562988D-03 -0.51959493D-03 -0.63838240D-03
 -0.53921599D-03 -0.20337243D-03  0.10065015D-05  0.82183701D-04  0.15387382D-03
  0.26198334D-03  0.40524839D-03  0.53369788D-03  0.55454628D-03  0.35238927D-03
 -0.23616309D-03 -0.31413535D-03  0.22422396D-02  0.26391335D-03  0.97397358D-04
  0.91316214D-04  0.65022584D-04 -0.80346926D-04 -0.75330350D-04 -0.53639697D-04
 -0.19522843D-03 -0.18303906D-03 -0.13033472D-03 -0.21405537D-03  0.36501589D-04
  0.19245216D-03 -0.20103494D-03  0.38214593D-03  0.31832676D-03 -0.29509872D-05
  0.11101294D-04  0.18051350D-04 -0.30171488D-04  0.50446653D-05  0.25126823D-04
  0.17322753D-04 -0.27472854D-04 -0.85901395D-04 -0.10568360D-03  0.41829767D-04
  0.63853830D-04 -0.40433985D-04  0.19769206D-04  0.85017438D-04 -0.10760023D-04
 -0.11597426D-04  0.22357449D-04 -0.28618316D-04 -0.71799133D-05  0.49294977D-04
  0.97641173D-05 -0.82030923D-05  0.35012806D-04 -0.31408984D-07 -0.25443950D-04
 -0.63881472D-04 -0.29260943D-04  0.50053227D-04 -0.41156945D-04  0.29774062D-05
  0.51239178D-04 -0.51949160D-04 -0.30882602D-04 -0.94511911D-04  0.45131520D-04