 Molden2AIM, Version 4.0.0 (06/02/2016)           Time: Fri Jun 29 03:40:20 2018
GAUSSIAN             12 MOL ORBITALS    260 PRIMITIVES        4 NUCLEI
  H    1    (CENTRE  1)   0.00000000  1.76020997 -1.29011414  CHARGE =  1.0
  H    2    (CENTRE  2)   0.00000000 -1.76020997 -1.29011414  CHARGE =  1.0
  C    3    (CENTRE  3)   0.00000000  0.00000000 -0.19331142  CHARGE =  6.0
  S    4    (CENTRE  4)   0.00000000  0.00000000  2.85847910  CHARGE = 16.0
CENTRE ASSIGNMENTS    1  1  1  1  1  1  1  1  1  1  1  1  1  1  1  1  1  1  1  1
CENTRE ASSIGNMENTS    1  1  1  1  1  1  1  2  2  2  2  2  2  2  2  2  2  2  2  2
CENTRE ASSIGNMENTS    2  2  2  2  2  2  2  2  2  2  2  2  2  2  3  3  3  3  3  3
CENTRE ASSIGNMENTS    3  3  3  3  3  3  3  3  3  3  3  3  3  3  3  3  3  3  3  3
CENTRE ASSIGNMENTS    3  3  3  3  3  3  3  3  3  3  3  3  3  3  3  3  3  3  3  3
CENTRE ASSIGNMENTS    3  3  3  3  3  3  3  3  3  3  3  3  3  3  3  3  3  3  3  3
CENTRE ASSIGNMENTS    3  3  3  3  3  3  3  3  3  4  4  4  4  4  4  4  4  4  4  4
CENTRE ASSIGNMENTS    4  4  4  4  4  4  4  4  4  4  4  4  4  4  4  4  4  4  4  4
CENTRE ASSIGNMENTS    4  4  4  4  4  4  4  4  4  4  4  4  4  4  4  4  4  4  4  4
CENTRE ASSIGNMENTS    4  4  4  4  4  4  4  4  4  4  4  4  4  4  4  4  4  4  4  4
CENTRE ASSIGNMENTS    4  4  4  4  4  4  4  4  4  4  4  4  4  4  4  4  4  4  4  4
CENTRE ASSIGNMENTS    4  4  4  4  4  4  4  4  4  4  4  4  4  4  4  4  4  4  4  4
CENTRE ASSIGNMENTS    4  4  4  4  4  4  4  4  4  4  4  4  4  4  4  4  4  4  4  4
TYPE ASSIGNMENTS      1  1  1  1  1  1  2  3  4  2  3  4  2  3  4  5  6  7  8  9
TYPE ASSIGNMENTS     10  5  6  7  8  9 10  1  1  1  1  1  1  2  3  4  2  3  4  2
TYPE ASSIGNMENTS      3  4  5  6  7  8  9 10  5  6  7  8  9 10  1  1  1  1  1  1
TYPE ASSIGNMENTS      1  1  1  1  1  1  1  1  1  1  1  1  1  2  2  2  3  3  3  4
TYPE ASSIGNMENTS      4  4  2  3  4  2  3  4  2  3  4  5  6  7  8  9 10  5  6  7
TYPE ASSIGNMENTS      8  9 10  5  6  7  8  9 10 11 12 13 17 14 15 18 19 16 20 11
TYPE ASSIGNMENTS     12 13 17 14 15 18 19 16 20  1  1  1  1  1  1  1  1  1  1  1
TYPE ASSIGNMENTS      1  1  1  1  1  1  1  1  1  1  1  1  1  1  1  1  1  1  1  1
TYPE ASSIGNMENTS      1  1  1  1  1  1  1  1  1  1  1  2  2  2  2  2  2  2  3  3
TYPE ASSIGNMENTS      3  3  3  3  3  4  4  4  4  4  4  4  2  2  2  2  2  2  2  3
TYPE ASSIGNMENTS      3  3  3  3  3  3  4  4  4  4  4  4  4  2  3  4  2  3  4  2
TYPE ASSIGNMENTS      3  4  5  6  7  8  9 10  5  6  7  8  9 10  5  6  7  8  9 10
TYPE ASSIGNMENTS     11 12 13 17 14 15 18 19 16 20 11 12 13 17 14 15 18 19 16 20
EXPONENTS  0.3387000D+02 0.5095000D+01 0.1159000D+01 0.3258000D+00 0.1027000D+00
EXPONENTS  0.2526000D-01 0.1407000D+01 0.1407000D+01 0.1407000D+01 0.3880000D+00
EXPONENTS  0.3880000D+00 0.3880000D+00 0.1020000D+00 0.1020000D+00 0.1020000D+00
EXPONENTS  0.1057000D+01 0.1057000D+01 0.1057000D+01 0.1057000D+01 0.1057000D+01
EXPONENTS  0.1057000D+01 0.2470000D+00 0.2470000D+00 0.2470000D+00 0.2470000D+00
EXPONENTS  0.2470000D+00 0.2470000D+00 0.3387000D+02 0.5095000D+01 0.1159000D+01
EXPONENTS  0.3258000D+00 0.1027000D+00 0.2526000D-01 0.1407000D+01 0.1407000D+01
EXPONENTS  0.1407000D+01 0.3880000D+00 0.3880000D+00 0.3880000D+00 0.1020000D+00
EXPONENTS  0.1020000D+00 0.1020000D+00 0.1057000D+01 0.1057000D+01 0.1057000D+01
EXPONENTS  0.1057000D+01 0.1057000D+01 0.1057000D+01 0.2470000D+00 0.2470000D+00
EXPONENTS  0.2470000D+00 0.2470000D+00 0.2470000D+00 0.2470000D+00 0.8236000D+04
EXPONENTS  0.1235000D+04 0.2808000D+03 0.7927000D+02 0.2559000D+02 0.8997000D+01
EXPONENTS  0.3319000D+01 0.3643000D+00 0.8236000D+04 0.1235000D+04 0.2808000D+03
EXPONENTS  0.7927000D+02 0.2559000D+02 0.8997000D+01 0.3319000D+01 0.3643000D+00
EXPONENTS  0.9059000D+00 0.1285000D+00 0.4402000D-01 0.1871000D+02 0.4133000D+01
EXPONENTS  0.1200000D+01 0.1871000D+02 0.4133000D+01 0.1200000D+01 0.1871000D+02
EXPONENTS  0.4133000D+01 0.1200000D+01 0.3827000D+00 0.3827000D+00 0.3827000D+00
EXPONENTS  0.1209000D+00 0.1209000D+00 0.1209000D+00 0.3569000D-01 0.3569000D-01
EXPONENTS  0.3569000D-01 0.1097000D+01 0.1097000D+01 0.1097000D+01 0.1097000D+01
EXPONENTS  0.1097000D+01 0.1097000D+01 0.3180000D+00 0.3180000D+00 0.3180000D+00
EXPONENTS  0.3180000D+00 0.3180000D+00 0.3180000D+00 0.1000000D+00 0.1000000D+00
EXPONENTS  0.1000000D+00 0.1000000D+00 0.1000000D+00 0.1000000D+00 0.7610000D+00
EXPONENTS  0.7610000D+00 0.7610000D+00 0.7610000D+00 0.7610000D+00 0.7610000D+00
EXPONENTS  0.7610000D+00 0.7610000D+00 0.7610000D+00 0.7610000D+00 0.2680000D+00
EXPONENTS  0.2680000D+00 0.2680000D+00 0.2680000D+00 0.2680000D+00 0.2680000D+00
EXPONENTS  0.2680000D+00 0.2680000D+00 0.2680000D+00 0.2680000D+00 0.3741000D+06
EXPONENTS  0.5605000D+05 0.1276000D+05 0.3615000D+04 0.1183000D+04 0.4288000D+03
EXPONENTS  0.1678000D+03 0.6947000D+02 0.2984000D+02 0.1272000D+02 0.5244000D+01
EXPONENTS  0.2219000D+01 0.3490000D+00 0.3741000D+06 0.5605000D+05 0.1276000D+05
EXPONENTS  0.3615000D+04 0.1183000D+04 0.4288000D+03 0.1678000D+03 0.6947000D+02
EXPONENTS  0.2984000D+02 0.1272000D+02 0.5244000D+01 0.2219000D+01 0.3490000D+00
EXPONENTS  0.3741000D+06 0.5605000D+05 0.1276000D+05 0.3615000D+04 0.1183000D+04
EXPONENTS  0.4288000D+03 0.1678000D+03 0.6947000D+02 0.2984000D+02 0.1272000D+02
EXPONENTS  0.5244000D+01 0.2219000D+01 0.3490000D+00 0.7767000D+00 0.1322000D+00
EXPONENTS  0.4970000D-01 0.5744000D+03 0.1358000D+03 0.4319000D+02 0.1587000D+02
EXPONENTS  0.6208000D+01 0.2483000D+01 0.3229000D+00 0.5744000D+03 0.1358000D+03
EXPONENTS  0.4319000D+02 0.1587000D+02 0.6208000D+01 0.2483000D+01 0.3229000D+00
EXPONENTS  0.5744000D+03 0.1358000D+03 0.4319000D+02 0.1587000D+02 0.6208000D+01
EXPONENTS  0.2483000D+01 0.3229000D+00 0.5744000D+03 0.1358000D+03 0.4319000D+02
EXPONENTS  0.1587000D+02 0.6208000D+01 0.2483000D+01 0.3229000D+00 0.5744000D+03
EXPONENTS  0.1358000D+03 0.4319000D+02 0.1587000D+02 0.6208000D+01 0.2483000D+01
EXPONENTS  0.3229000D+00 0.5744000D+03 0.1358000D+03 0.4319000D+02 0.1587000D+02
EXPONENTS  0.6208000D+01 0.2483000D+01 0.3229000D+00 0.8688000D+00 0.8688000D+00
EXPONENTS  0.8688000D+00 0.1098000D+00 0.1098000D+00 0.1098000D+00 0.3510000D-01
EXPONENTS  0.3510000D-01 0.3510000D-01 0.2690000D+00 0.2690000D+00 0.2690000D+00
EXPONENTS  0.2690000D+00 0.2690000D+00 0.2690000D+00 0.8190000D+00 0.8190000D+00
EXPONENTS  0.8190000D+00 0.8190000D+00 0.8190000D+00 0.8190000D+00 0.1010000D+00
EXPONENTS  0.1010000D+00 0.1010000D+00 0.1010000D+00 0.1010000D+00 0.1010000D+00
EXPONENTS  0.5570000D+00 0.5570000D+00 0.5570000D+00 0.5570000D+00 0.5570000D+00
EXPONENTS  0.5570000D+00 0.5570000D+00 0.5570000D+00 0.5570000D+00 0.5570000D+00
EXPONENTS  0.2180000D+00 0.2180000D+00 0.2180000D+00 0.2180000D+00 0.2180000D+00
EXPONENTS  0.2180000D+00 0.2180000D+00 0.2180000D+00 0.2180000D+00 0.2180000D+00
MO    1     MO 0.0        OCC NO =    2.0000000  ORB. ENERGY =  -88.087672
  0.99945917D-05  0.18025658D-04  0.26578822D-04  0.88705851D-03  0.10309378D-02
  0.14713115D-04  0.87333335D-16 -0.32837186D-05  0.90945630D-04  0.17293154D-17
 -0.16592170D-03 -0.58038299D-05  0.56630486D-19 -0.57496667D-04  0.16396807D-03
  0.55614589D-04 -0.22955333D-05 -0.53319056D-04 -0.51645668D-18  0.26234229D-18
  0.12917792D-04  0.36141131D-04 -0.23297258D-04 -0.12843873D-04 -0.17672645D-18
  0.21179930D-18  0.84278020D-05  0.99945917D-05  0.18025658D-04  0.26578822D-04
  0.88705851D-03  0.10309378D-02  0.14713115D-04 -0.47206989D-18  0.32837186D-05
  0.90945630D-04  0.56745704D-18  0.16592170D-03 -0.58038299D-05  0.12545504D-18
  0.57496667D-04  0.16396807D-03  0.55614589D-04 -0.22955333D-05 -0.53319056D-04
  0.12575310D-18  0.39520167D-19 -0.12917792D-04  0.36141131D-04 -0.23297258D-04
 -0.12843873D-04  0.10006704D-18  0.49276472D-19 -0.84278020D-05  0.82608623D-04
  0.15400126D-03  0.26028925D-03  0.39130000D-03  0.48075727D-03  0.40607637D-03
  0.15315706D-03 -0.75798286D-06 -0.68310138D-04 -0.12789813D-03 -0.21775751D-03
 -0.33683776D-03 -0.44360348D-03 -0.46093243D-03 -0.29290187D-03  0.19629602D-03
  0.43843614D-03 -0.12905156D-02 -0.93558665D-04  0.48416204D-18  0.45393269D-18
  0.32322712D-18 -0.19284077D-15 -0.18080048D-15 -0.12874072D-15  0.31012461D-03
  0.29076153D-03  0.20703953D-03 -0.56783238D-18  0.27378955D-15 -0.18387142D-03
 -0.44896789D-18  0.47367300D-15  0.70135824D-03 -0.97537988D-20  0.15006689D-16
  0.38002958D-05 -0.20087722D-03  0.13970172D-03  0.61175504D-04  0.88888626D-18
 -0.30197913D-18  0.29703356D-15  0.34538810D-03 -0.49554105D-04 -0.29583399D-03
 -0.27852313D-18  0.28430949D-18 -0.41203898D-15  0.20297697D-04 -0.73709897D-04
  0.53412201D-04  0.33606189D-19 -0.23662704D-19 -0.16858115D-15 -0.85634568D-19
  0.38951403D-16 -0.76260580D-04  0.10412485D-18 -0.94916513D-16  0.14132631D-03
  0.15277886D-18 -0.21937696D-16  0.87455430D-04  0.76696913D-18  0.74250632D-19
  0.13938050D-16 -0.10758504D-03 -0.15777804D-18 -0.22936132D-16  0.16643702D-04
 -0.64973859D-19 -0.18878019D-16  0.30611142D-03 -0.14835328D-18  0.58527140D+00
  0.10941309D+01  0.18909997D+01  0.30586072D+01  0.46229057D+01  0.63664998D+01
  0.74409622D+01  0.64295527D+01  0.29987663D+01  0.40716768D+00  0.10902947D-02
  0.21387075D-02  0.97640932D-04 -0.13681856D-02 -0.25551450D-02 -0.44322943D-02
 -0.71868119D-02 -0.11064915D-01 -0.15758925D-01 -0.20263931D-01 -0.21271098D-01
 -0.15040174D-01  0.33307094D-03  0.10806559D-01  0.59503847D-02 -0.25164076D-04
  0.61679992D-03  0.11510399D-02  0.19992185D-02  0.32382905D-02  0.50022110D-02
  0.71314034D-02  0.92756264D-02  0.98853174D-02  0.73317343D-02 -0.22820966D-03
 -0.66421694D-02 -0.65070335D-02  0.30391705D-02 -0.31264850D-02 -0.16285775D-02
 -0.21504586D-03 -0.73658835D-17 -0.96636381D-17 -0.10599538D-16 -0.87214679D-17
 -0.45981304D-17 -0.11962162D-17  0.13237352D-20 -0.20696927D-15 -0.27153241D-15
 -0.29782966D-15 -0.24505897D-15 -0.12919993D-15 -0.33611716D-16  0.37194791D-19
 -0.11517303D-01 -0.15110075D-01 -0.16573449D-01 -0.13636896D-01 -0.71896414D-02
 -0.18704049D-02  0.20697937D-05  0.14801120D-18  0.19433961D-18  0.21864517D-18
  0.18422508D-18  0.10305293D-18  0.25649664D-19 -0.11764172D-19  0.35088868D-15
  0.46071897D-15  0.51833991D-15  0.43674056D-15  0.24430655D-15  0.60807402D-16
 -0.27889205D-16  0.10251549D-01  0.13460346D-01  0.15143797D-01  0.12759794D-01
  0.71376497D-02  0.17765465D-02 -0.81480982D-03  0.37123456D-18  0.73028956D-16
  0.13747263D-03  0.14962312D-18  0.23078825D-15  0.59276061D-03  0.31338143D-20
  0.31090171D-17  0.10509697D-04  0.16600240D-04 -0.44867182D-04  0.28266942D-04
  0.92505238D-20 -0.46560254D-19 -0.98661670D-16 -0.23088668D-03 -0.20085582D-03
  0.43174250D-03 -0.55057584D-19  0.48793298D-19 -0.38055287D-16  0.29089140D-04
  0.34268537D-04 -0.63357677D-04 -0.66114530D-20 -0.49907216D-19 -0.55955275D-16
 -0.47436975D-20 -0.77383157D-17 -0.12206297D-03 -0.52114128D-20 -0.96959761D-17
  0.14286793D-03  0.19442505D-19  0.32910923D-16  0.22332098D-03  0.41463900D-20
 -0.36392048D-20 -0.87161911D-17  0.20578979D-04  0.31046307D-20 -0.44907359D-17
 -0.44021494D-04  0.78129837D-20  0.30639309D-16 -0.17715442D-04  0.14051718D-19
MO    2     MO 0.0        OCC NO =    2.0000000  ORB. ENERGY =   -9.962020
  0.24869858D-03  0.44853813D-03  0.66136922D-03 -0.33973100D-02 -0.14766410D-02
 -0.28795230D-04 -0.76851761D-17  0.19559005D-02 -0.86297399D-03  0.38990090D-17
  0.42812504D-02 -0.31956537D-02  0.49634595D-18  0.42048472D-03 -0.31513869D-03
  0.23702511D-02 -0.27239622D-02  0.35371112D-03  0.14815314D-17 -0.92501226D-18
  0.61001056D-02  0.41426177D-03 -0.24884655D-03 -0.16541522D-03 -0.36025360D-18
  0.54003404D-18  0.62935000D-03  0.24869858D-03  0.44853813D-03  0.66136922D-03
 -0.33973100D-02 -0.14766410D-02 -0.28795230D-04  0.25030860D-17 -0.19559005D-02
 -0.86297399D-03 -0.56197832D-17 -0.42812504D-02 -0.31956537D-02 -0.84829573D-18
 -0.42048472D-03 -0.31513869D-03  0.23702511D-02 -0.27239622D-02  0.35371112D-03
 -0.39422121D-17 -0.24184072D-17 -0.61001056D-02  0.41426177D-03 -0.24884655D-03
 -0.16541522D-03 -0.16158837D-17 -0.10633990D-17 -0.62935000D-03  0.32907708D+00
  0.61347450D+00  0.10368800D+01  0.15587702D+01  0.19151293D+01  0.16176329D+01
  0.61011161D+00 -0.30194764D-02 -0.28870940D-02 -0.54055508D-02 -0.92034128D-02
 -0.14236280D-01 -0.18748680D-01 -0.19481080D-01 -0.12379352D-01  0.82963535D-02
  0.35987360D-01  0.12000748D-02 -0.10395778D-03 -0.31775185D-16 -0.29791255D-16
 -0.21213149D-16  0.11544536D-14  0.10823737D-14  0.77071454D-15  0.15861084D-02
  0.14870775D-02  0.10588878D-02  0.59278967D-17 -0.40642371D-14 -0.65999481D-02
  0.77530567D-18  0.17463733D-15 -0.84242844D-03  0.74298226D-19  0.27009859D-16
 -0.13457597D-04 -0.49324207D-02  0.38945628D-02  0.10378578D-02  0.36391198D-17
 -0.20764723D-17  0.19144494D-14 -0.36709602D-04  0.13960278D-02 -0.13593182D-02
 -0.42457312D-17 -0.65186077D-18  0.24438043D-14  0.51602441D-04 -0.27780511D-04
 -0.23821930D-04 -0.41600318D-18  0.19365675D-18  0.41172746D-15 -0.14607269D-17
 -0.23887076D-15  0.95074471D-03  0.43655050D-17  0.11962612D-14  0.18655351D-02
  0.16675773D-19 -0.47964887D-15 -0.47177692D-02  0.32662722D-20 -0.13373197D-18
  0.58986572D-16 -0.38886738D-03 -0.46632434D-19 -0.60177783D-16  0.75308007D-05
  0.44782833D-18 -0.11678193D-15  0.11590713D-02  0.95992214D-18  0.36444686D-03
  0.68131223D-03  0.11775202D-02  0.19045862D-02  0.28786705D-02  0.39644016D-02
  0.46334663D-02  0.40036645D-02  0.18673234D-02  0.25354217D-03  0.67892347D-06
  0.13317672D-05  0.60800735D-07 -0.69853657D-03 -0.13045468D-02 -0.22629383D-02
 -0.36692762D-02 -0.56492684D-02 -0.80458272D-02 -0.10345889D-01 -0.10860105D-01
 -0.76788639D-02  0.17005166D-03  0.55173629D-02  0.30380098D-02 -0.12847692D-04
  0.40561326D-03  0.75693434D-03  0.13147044D-02  0.21295294D-02  0.32894996D-02
  0.46896760D-02  0.60997365D-02  0.65006749D-02  0.48214154D-02 -0.15007276D-03
 -0.43679512D-02 -0.42790846D-02  0.19985863D-02 -0.97335064D-04  0.17930730D-02
  0.43282002D-03 -0.86365980D-17 -0.11330746D-16 -0.12428102D-16 -0.10226039D-16
 -0.53913700D-17 -0.14025797D-17  0.15520974D-20 -0.24542686D-14 -0.32198667D-14
 -0.35317030D-14 -0.29059412D-14 -0.15320697D-14 -0.39857212D-15  0.44106068D-18
 -0.30493711D-01 -0.40006088D-01 -0.43880581D-01 -0.36105638D-01 -0.19035606D-01
 -0.49521650D-02  0.54800755D-05  0.76424215D-17  0.10034546D-16  0.11289541D-16
  0.95122917D-17  0.53210426D-17  0.13243967D-17 -0.60743213D-18  0.33447165D-14
  0.43916331D-14  0.49408834D-14  0.41630678D-14  0.23287618D-14  0.57962407D-15
 -0.26584352D-15  0.28694261D-01  0.37675740D-01  0.42387748D-01  0.35714882D-01
  0.19978404D-01  0.49725842D-02 -0.22806667D-02  0.67308639D-18  0.30404078D-15
 -0.49382258D-03 -0.55940031D-18 -0.52870007D-15 -0.62798135D-03 -0.35452283D-19
  0.21742411D-17 -0.18615726D-04 -0.12353800D-04 -0.43501793D-03  0.44737173D-03
 -0.23157735D-18  0.79933667D-18  0.40513258D-15 -0.48995854D-03 -0.20075769D-03
  0.69071623D-03  0.29886668D-18 -0.51231725D-18 -0.33198189D-15 -0.31902505D-04
 -0.67787886D-05  0.38681294D-04  0.10516312D-18  0.17257473D-18  0.76721971D-16
  0.17741533D-18  0.22811896D-16  0.74287042D-04  0.20760611D-18  0.92155189D-16
 -0.31831150D-03 -0.73985211D-18 -0.16059088D-15  0.95450371D-04  0.46237708D-18
  0.51745067D-19  0.14146776D-16 -0.36697416D-04  0.12777150D-19 -0.57204992D-17
 -0.29048332D-04 -0.16801235D-18 -0.36719829D-16  0.13914058D-03 -0.17792613D-18
MO    3     MO 0.0        OCC NO =    2.0000000  ORB. ENERGY =   -7.686041
  0.47936709D-05  0.86455828D-05  0.12747907D-04 -0.16018171D-02 -0.23570353D-02
 -0.27181260D-04  0.86572280D-16 -0.26986947D-04 -0.10726987D-03  0.13806947D-16
  0.35676006D-03 -0.19379693D-03 -0.56144950D-17  0.11921381D-03 -0.41567845D-03
 -0.15459881D-04 -0.86190902D-05  0.24078972D-04  0.49125345D-17  0.13647132D-17
  0.10102214D-03 -0.41901803D-04  0.65586484D-04 -0.23684681D-04 -0.68342328D-17
  0.10055137D-17  0.24556451D-04  0.47936709D-05  0.86455828D-05  0.12747907D-04
 -0.16018171D-02 -0.23570353D-02 -0.27181260D-04  0.33714910D-17  0.26986947D-04
 -0.10726987D-03  0.69552780D-18 -0.35676006D-03 -0.19379693D-03 -0.10800760D-17
 -0.11921381D-03 -0.41567845D-03 -0.15459881D-04 -0.86190902D-05  0.24078972D-04
  0.16101713D-16  0.56057063D-17 -0.10102214D-03 -0.41901803D-04  0.65586484D-04
 -0.23684681D-04 -0.25928413D-17 -0.12943508D-18 -0.24556451D-04 -0.10029845D-03
 -0.18697912D-03 -0.31602765D-03 -0.47509308D-03 -0.58370674D-03 -0.49303365D-03
 -0.18595415D-03  0.92029749D-06  0.46969351D-04  0.87941445D-04  0.14972784D-03
  0.23160619D-03  0.30501721D-03  0.31693242D-03  0.20139632D-03 -0.13497113D-03
 -0.45171693D-03  0.12068948D-02  0.15606461D-03  0.31142409D-16  0.29197988D-16
  0.20790707D-16  0.26186150D-15  0.24551180D-15  0.17481903D-15  0.19746476D-04
  0.18513576D-04  0.13182769D-04 -0.87830948D-17 -0.15565542D-14 -0.13058780D-03
  0.40432178D-17 -0.15436001D-14 -0.20215240D-02  0.57096102D-19  0.14827768D-16
 -0.68371904D-05  0.21154851D-03 -0.18187875D-03 -0.29669759D-04  0.12842235D-16
  0.23143640D-16 -0.15761818D-15 -0.44642590D-03  0.33481646D-03  0.11160944D-03
 -0.61145773D-17  0.65018872D-17  0.92935240D-15 -0.26848465D-04  0.18949741D-03
 -0.16264895D-03  0.82944316D-18 -0.11610325D-17  0.20759786D-15  0.86498523D-17
 -0.12846159D-15 -0.69581647D-04 -0.15460210D-16  0.37404626D-15  0.67594371D-04
 -0.10489347D-16  0.11338517D-16  0.14115057D-03  0.31834565D-16  0.22129867D-18
 -0.38602885D-16  0.14667710D-03 -0.13324122D-17  0.77355369D-16  0.70479132D-05
  0.66851625D-18  0.38453285D-16 -0.44707922D-03 -0.17171430D-19 -0.38054337D-02
 -0.71140373D-02 -0.12295278D-01 -0.19887060D-01 -0.30058126D-01 -0.41394972D-01
 -0.48381125D-01 -0.41804942D-01 -0.19497974D-01 -0.26474036D-02 -0.70890947D-05
 -0.13905873D-04 -0.63486120D-06 -0.15543305D+00 -0.29027784D+00 -0.50353182D+00
 -0.81645944D+00 -0.12570323D+01 -0.17902963D+01 -0.23020886D+01 -0.24165080D+01
 -0.17086424D+01  0.37838602D-01  0.12276817D+01  0.67599484D+00 -0.28587707D-02
 -0.16641761D-02 -0.31055988D-02 -0.53940533D-02 -0.87371696D-02 -0.13496370D-01
 -0.19241103D-01 -0.25026390D-01 -0.26671386D-01 -0.19781612D-01  0.61572814D-03
  0.17921110D-01  0.17556503D-01 -0.81999280D-02  0.60282493D-01  0.56123015D-02
  0.48948018D-03 -0.14289891D-14 -0.18747559D-14 -0.20563215D-14 -0.16919739D-14
 -0.89204210D-15 -0.23206719D-15  0.25680601D-18  0.56062269D-16  0.73550644D-16
  0.80673845D-16  0.66379719D-16  0.34996700D-16  0.91044873D-17 -0.10075043D-19
 -0.42339947D-01 -0.55547705D-01 -0.60927366D-01 -0.50132002D-01 -0.26430583D-01
 -0.68759885D-02  0.76089822D-05  0.29145287D-16  0.38267939D-16  0.43054012D-16
  0.36276260D-16  0.20292431D-16  0.50507448D-17 -0.23165149D-17 -0.19095175D-14
 -0.25072081D-14 -0.28207781D-14 -0.23767188D-14 -0.13295032D-14 -0.33091064D-15
  0.15177156D-15 -0.81772285D-02 -0.10736751D-01 -0.12079569D-01 -0.10177950D-01
 -0.56934024D-02 -0.14170763D-02  0.64993946D-03 -0.18848332D-16 -0.34242932D-15
 -0.63503445D-03  0.14657869D-18 -0.29400573D-15 -0.16649506D-02  0.30241654D-19
 -0.22104058D-16 -0.20846086D-04 -0.13827798D-03  0.32122351D-04  0.10615563D-03
 -0.18034581D-17  0.22165314D-18  0.47324738D-16  0.63523854D-03 -0.61503660D-03
 -0.20201932D-04  0.47000810D-17  0.61668985D-17  0.30057639D-15 -0.70178142D-04
 -0.85977875D-04  0.15615602D-03 -0.52201372D-19  0.26097455D-19  0.93317491D-16
  0.15902693D-17 -0.39259412D-17  0.62007214D-04 -0.22424211D-17 -0.28420440D-17
 -0.37332654D-04 -0.25283868D-17  0.14619868D-16 -0.14868899D-03  0.66855311D-17
  0.18571195D-19  0.14291214D-16 -0.37643967D-04  0.45268997D-19  0.32709038D-17
  0.78601469D-04 -0.10098258D-18 -0.46144545D-16  0.34330431D-04  0.33603625D-18
MO    4     MO 0.0        OCC NO =    2.0000000  ORB. ENERGY =   -5.709970
 -0.25493701D-17 -0.45978940D-17 -0.67795921D-17  0.15030864D-15  0.49411171D-16
 -0.39761278D-16  0.12946128D-04 -0.44745913D-16 -0.88620431D-18 -0.61641735D-04
  0.69804955D-17  0.37716161D-16 -0.26404539D-04 -0.13333635D-16  0.22766724D-16
  0.96587625D-16 -0.68381719D-16 -0.28205907D-16 -0.19341271D-04 -0.13389918D-03
  0.58939696D-16 -0.39093690D-17  0.78946388D-17 -0.39852697D-17  0.19233820D-05
 -0.34489069D-04 -0.37340127D-16  0.33264992D-17  0.59994783D-17  0.88462273D-17
  0.13103380D-15  0.13428817D-15  0.16108353D-16  0.12946128D-04 -0.12627431D-15
  0.38005061D-16 -0.61641735D-04  0.65866392D-16 -0.10445994D-15 -0.26404539D-04
 -0.12978672D-17  0.22860954D-16 -0.82059470D-16 -0.34996696D-17  0.85559140D-16
  0.19341271D-04 -0.13389918D-03 -0.20482909D-15  0.13573723D-16  0.47249958D-17
 -0.18298719D-16 -0.19233820D-05 -0.34489069D-04 -0.74058552D-17 -0.79551237D-17
 -0.14830159D-16 -0.25065582D-16 -0.37681780D-16 -0.46296420D-16 -0.39104728D-16
 -0.14748865D-16  0.72992954D-19 -0.71456955D-17 -0.13378997D-16 -0.22778886D-16
 -0.35235474D-16 -0.46403879D-16 -0.48216603D-16 -0.30639487D-16  0.20533871D-16
 -0.46125633D-17  0.28885769D-15  0.14006365D-15  0.21981581D-04  0.20609129D-04
  0.14674928D-04 -0.42414376D-16 -0.39766174D-16 -0.28315885D-16 -0.40866976D-15
 -0.38315388D-15 -0.27282839D-15  0.13289259D-03 -0.50449765D-16  0.39917388D-15
 -0.27320259D-04  0.39890291D-16  0.30094174D-15  0.24477878D-05  0.10554967D-16
  0.76901945D-17 -0.11523496D-15 -0.15413885D-15  0.26937381D-15 -0.23524070D-16
  0.12201734D-03 -0.18242668D-15 -0.37103332D-16 -0.57523585D-16  0.94626917D-16
  0.45749870D-16 -0.25665238D-04  0.29265525D-16 -0.59462030D-17 -0.18394295D-16
  0.24340498D-16  0.23665461D-16 -0.25995341D-04 -0.27550275D-17  0.55095244D-04
 -0.22990439D-16  0.19559411D-15  0.61747370D-04 -0.78559501D-16 -0.25778064D-15
 -0.22703310D-03  0.14753082D-15 -0.32900168D-15 -0.49720836D-16  0.27351474D-06
 -0.13884683D-16 -0.18742520D-16  0.45722006D-04  0.49823772D-17 -0.66520109D-18
 -0.46542551D-04  0.36671672D-16  0.56892761D-16  0.31832902D-17  0.34519147D-16
  0.64531539D-16  0.11153065D-15  0.18039582D-15  0.27265771D-15  0.37549441D-15
  0.43886591D-15  0.37921326D-15  0.17686641D-15  0.24014638D-16  0.64305284D-19
  0.12614038D-18  0.57588355D-20 -0.79571086D-16 -0.14860239D-15 -0.25777384D-15
 -0.41797137D-15 -0.64351451D-15 -0.91650921D-15 -0.11785119D-14 -0.12370868D-14
 -0.87470801D-15  0.19370775D-16  0.62848901D-15  0.34606311D-15 -0.14634950D-17
  0.30791115D-16  0.57460777D-16  0.99802491D-16  0.16165789D-15  0.24971413D-15
  0.35600502D-15  0.46304624D-15  0.49348247D-15  0.36600569D-15 -0.11392398D-16
 -0.33158208D-15 -0.32483600D-15  0.15171768D-15  0.31022055D-16 -0.73531862D-15
 -0.11427227D-15  0.96653041D+01  0.12680353D+02  0.13908414D+02  0.11444063D+02
  0.60335366D+01  0.15696411D+01 -0.17369679D-02  0.40551117D-14  0.53200857D-14
  0.58353232D-14  0.48013964D-14  0.25313911D-14  0.65854833D-15 -0.72875086D-18
 -0.65432340D-13 -0.85843666D-13 -0.94157418D-13 -0.77474216D-13 -0.40845939D-13
 -0.10626183D-13  0.11758954D-16  0.21562247D-02  0.28311361D-02  0.31852190D-02
  0.26837879D-02  0.15012733D-02  0.37366387D-03 -0.17138025D-03  0.44982970D-15
  0.59062913D-15  0.66449759D-15  0.55988946D-15  0.31319432D-15  0.77953428D-16
 -0.35753198D-16 -0.51197208D-14 -0.67222245D-14 -0.75629558D-14 -0.63723621D-14
 -0.35646100D-14 -0.88722418D-15  0.40692376D-15  0.84525299D-01  0.26183304D-16
 -0.86688725D-15  0.21569465D-03 -0.17677672D-16  0.17203584D-15 -0.10042953D-04
  0.43397868D-18  0.65800065D-17  0.35923217D-16  0.48872707D-16 -0.84795924D-16
 -0.35211612D-17  0.23873197D-04  0.50454044D-16  0.40570476D-16  0.91166461D-16
 -0.13173694D-15 -0.24120027D-16 -0.10259306D-02 -0.40571082D-17 -0.17992741D-17
  0.43494793D-17 -0.25502052D-17 -0.51325447D-17 -0.21369092D-04 -0.27978761D-17
  0.22998781D-04  0.12835343D-16  0.77287192D-16 -0.25549905D-03  0.12848472D-18
 -0.12575139D-15  0.18650270D-03 -0.38634512D-16 -0.10611019D-15 -0.61618581D-17
 -0.25057487D-05 -0.44297528D-18 -0.50739583D-17  0.12108378D-04 -0.41706736D-17
  0.69380368D-17 -0.45911323D-05  0.54995994D-17  0.82838380D-17  0.11097614D-16
MO    5     MO 0.0        OCC NO =    2.0000000  ORB. ENERGY =   -5.706945
 -0.20435944D-04 -0.36857067D-04 -0.54345724D-04 -0.87211603D-03  0.59088192D-04
 -0.32404565D-05  0.49523545D-16  0.88693572D-05 -0.85233163D-04  0.55012711D-16
  0.11498108D-03  0.48626163D-03 -0.11638000D-16 -0.24296576D-05  0.14571619D-03
 -0.95672194D-04  0.29412636D-06  0.95378068D-04 -0.39132606D-15  0.17411291D-16
 -0.25080281D-03 -0.82934045D-04 -0.40209011D-04  0.12314306D-03  0.44201360D-17
 -0.12034964D-17 -0.15450615D-03 -0.20435944D-04 -0.36857067D-04 -0.54345724D-04
 -0.87211603D-03  0.59088192D-04 -0.32404565D-05  0.48557571D-17 -0.88693572D-05
 -0.85233163D-04 -0.76100749D-17 -0.11498108D-03  0.48626163D-03 -0.29083714D-17
  0.24296576D-05  0.14571619D-03 -0.95672194D-04  0.29412636D-06  0.95378068D-04
  0.32471005D-17  0.61017798D-17  0.25080281D-03 -0.82934045D-04 -0.40209011D-04
  0.12314306D-03 -0.15287198D-17 -0.22484559D-17  0.15450615D-03 -0.41026736D-04
 -0.76483163D-04 -0.12927002D-03 -0.19433518D-03 -0.23876323D-03 -0.20167371D-03
 -0.76063905D-04  0.37644451D-06  0.13837000D-03  0.25907229D-03  0.44109274D-03
  0.68230340D-03  0.89856957D-03  0.93367134D-03  0.59330622D-03 -0.39762003D-03
 -0.13739405D-02  0.55532436D-02  0.89761703D-03  0.21799170D-16  0.20438108D-16
  0.14553150D-16 -0.12681334D-14 -0.11889556D-14 -0.84660725D-15 -0.20784638D-02
 -0.19486919D-02 -0.13875847D-02  0.98445555D-18  0.51746679D-14  0.22128736D-02
 -0.14884674D-18  0.61817127D-14  0.15723475D-02  0.24589556D-18  0.20707126D-15
  0.56287178D-04  0.19759718D-03 -0.29996876D-03  0.10237157D-03  0.19414897D-16
  0.13508412D-16  0.15431250D-15 -0.84887371D-03 -0.73831008D-03  0.15871838D-02
 -0.46663452D-17 -0.18176723D-17 -0.46762760D-14 -0.69621649D-04 -0.53056218D-04
  0.12267787D-03 -0.21985049D-17  0.12422098D-17 -0.17636640D-14  0.71260571D-17
  0.13484121D-15  0.55367922D-03 -0.14565425D-16 -0.10675454D-14 -0.92901478D-03
 -0.68127460D-17  0.66302179D-15 -0.73202289D-03  0.33719241D-17  0.12997566D-18
  0.64542664D-16  0.19673787D-03  0.17730213D-17 -0.26947501D-15 -0.89961762D-04
 -0.21629482D-17  0.75847015D-16 -0.50025185D-03  0.63225961D-17 -0.34775293D-03
 -0.65010390D-03 -0.11235825D-02 -0.18173443D-02 -0.27468095D-02 -0.37828074D-02
 -0.44212248D-02 -0.38202718D-02 -0.17817884D-02 -0.24192837D-03 -0.64782456D-06
 -0.12707640D-05 -0.58015684D-07 -0.21454612D-03 -0.40067402D-03 -0.69503109D-03
 -0.11269689D-02 -0.17350969D-02 -0.24711677D-02 -0.31776009D-02 -0.33355354D-02
 -0.23584599D-02  0.52229081D-04  0.16945839D-02  0.93308389D-03 -0.39459959D-05
 -0.34940498D-03 -0.65204138D-03 -0.11325178D-02 -0.18344276D-02 -0.28336538D-02
 -0.40397993D-02 -0.52544592D-02 -0.55998372D-02 -0.41532828D-02  0.12927627D-03
  0.37626578D-02  0.36861060D-02 -0.17216301D-02  0.15651727D-02 -0.44283955D-02
 -0.12043543D-02  0.70902457D-13  0.93020163D-13  0.10202894D-12  0.83951029D-13
  0.44260643D-13  0.11514527D-13 -0.12741998D-16  0.34138323D-11  0.44787620D-11
  0.49125193D-11  0.40420987D-11  0.21310744D-11  0.55440483D-12 -0.61350547D-15
  0.97143743D+01  0.12744730D+02  0.13979026D+02  0.11502164D+02  0.60641685D+01
  0.15776100D+01 -0.17457863D-02 -0.21258646D-17 -0.27912732D-17 -0.31403705D-17
 -0.26459996D-17 -0.14801351D-17 -0.36840261D-18  0.16896719D-18  0.69986286D-14
  0.91892419D-14  0.10338517D-13  0.87109821D-14  0.48728012D-14  0.12128303D-14
 -0.55626242D-15 -0.43838506D-01 -0.57560225D-01 -0.64759135D-01 -0.54564467D-01
 -0.30522598D-01 -0.75970125D-02  0.34843560D-02  0.62045231D-15  0.30130247D-13
  0.83149601D-01 -0.32272298D-18  0.19337329D-14  0.16386209D-02 -0.22916542D-18
  0.12182971D-16  0.37747631D-04  0.31880781D-03  0.45663620D-03 -0.77544401D-03
  0.88021668D-20  0.17119618D-17 -0.38202506D-15  0.11156057D-02  0.91110224D-03
 -0.20267079D-02  0.32505809D-17 -0.44103952D-16 -0.50993903D-15  0.50284626D-04
  0.33015608D-04 -0.83300234D-04  0.40772228D-18  0.26429930D-18 -0.41036488D-15
 -0.55455543D-19 -0.12361930D-15  0.68631328D-03 -0.38728501D-17  0.25330024D-17
 -0.78041658D-03  0.40392167D-17  0.36832489D-15 -0.12785233D-02  0.12918931D-17
  0.71092262D-19 -0.30235653D-16  0.58025437D-05  0.10450350D-18 -0.13814558D-16
 -0.44802619D-05 -0.31778028D-18  0.10452152D-15 -0.12927369D-04 -0.74653764D-18
MO    6     MO 0.0        OCC NO =    2.0000000  ORB. ENERGY =   -5.697713
  0.97233162D-05  0.17536401D-04  0.25857413D-04 -0.73557000D-03 -0.15707421D-02
 -0.46654441D-05 -0.11059294D-15  0.19217037D-03  0.36121796D-04 -0.11295127D-16
 -0.24685071D-03 -0.12838285D-02  0.37765572D-17  0.18006034D-03  0.12334307D-04
  0.86413175D-04  0.33940240D-03 -0.42581558D-03 -0.37892593D-15  0.35963027D-17
  0.53149200D-03 -0.12515696D-04  0.37613620D-04 -0.25097924D-04  0.49779514D-16
  0.39849620D-17  0.99576131D-04 -0.97233162D-05 -0.17536401D-04 -0.25857413D-04
  0.73557000D-03  0.15707421D-02  0.46654441D-05 -0.36834085D-17  0.19217037D-03
 -0.36121796D-04  0.12269509D-16 -0.24685071D-03  0.12838285D-02  0.23554926D-17
  0.18006034D-03 -0.12334307D-04 -0.86413175D-04 -0.33940240D-03  0.42581558D-03
 -0.33128567D-17  0.64500021D-17  0.53149200D-03  0.12515696D-04 -0.37613620D-04
  0.25097924D-04  0.15126853D-17  0.22667531D-17  0.99576131D-04 -0.60376048D-16
 -0.11255468D-15 -0.19023724D-15 -0.28598888D-15 -0.35137038D-15 -0.29678846D-15
 -0.11193769D-15  0.55398586D-18 -0.51649904D-16 -0.96704918D-16 -0.16464840D-15
 -0.25468603D-15 -0.33541255D-15 -0.34851512D-15 -0.22146571D-15  0.14842117D-15
  0.35185682D-15 -0.48438369D-15  0.44766891D-16 -0.13483437D-16 -0.12641579D-16
 -0.90015572D-17 -0.17435095D-03 -0.16346509D-03 -0.11639688D-03  0.52930979D-15
  0.49626157D-15  0.35336780D-15  0.11973427D-16  0.10340957D-02 -0.12522537D-14
 -0.53630901D-17  0.30280058D-03 -0.44010448D-15 -0.69119364D-18  0.45672644D-05
 -0.14350203D-16 -0.24272806D-15  0.52191475D-15 -0.27918669D-15 -0.50046732D-18
  0.25439429D-18  0.41590811D-03  0.19463732D-17  0.22672521D-15 -0.22867159D-15
  0.16854565D-16 -0.10676264D-16 -0.62619935D-03 -0.34453549D-19 -0.73551228D-16