 Molden2AIM, Version 4.0.0 (06/02/2016)           Time: Thu Jun 28 22:52:55 2018
GAUSSIAN             33 MOL ORBITALS    671 PRIMITIVES        9 NUCLEI
  C    1    (CENTRE  1)  -2.71828599  0.33760335 -0.09065016  CHARGE =  6.0
  O    2    (CENTRE  2)  -2.53002392  2.61823066 -0.15334939  CHARGE =  8.0
  N    3    (CENTRE  3)  -0.68072092 -1.27669330 -0.24320019  CHARGE =  7.0
  C    4    (CENTRE  4)  -5.22603949 -1.02606837  0.06644088  CHARGE =  6.0
  H    5    (CENTRE  5)  -6.48727483 -0.20698170 -1.35713516  CHARGE =  1.0
  H    6    (CENTRE  6)  -5.09109603 -3.07268145 -0.22999101  CHARGE =  1.0
  H    7    (CENTRE  7)  -6.04286794 -0.65611669  1.93703731  CHARGE =  1.0
  H    8    (CENTRE  8)  -0.84912954 -3.08223969  0.36174271  CHARGE =  1.0
  Br   9    (CENTRE  9)   2.57096294 -0.01292951  0.08297032  CHARGE = 35.0
CENTRE ASSIGNMENTS    1  1  1  1  1  1  1  1  1  1  1  1  1  1  1  1  1  1  1  1
CENTRE ASSIGNMENTS    1  1  1  1  1  1  1  1  1  1  1  1  1  1  1  1  1  1  1  1
CENTRE ASSIGNMENTS    1  1  1  1  1  1  1  1  1  1  1  1  1  1  1  1  1  1  1  1
CENTRE ASSIGNMENTS    1  1  1  1  1  1  1  1  1  1  1  1  1  1  1  2  2  2  2  2
CENTRE ASSIGNMENTS    2  2  2  2  2  2  2  2  2  2  2  2  2  2  2  2  2  2  2  2
CENTRE ASSIGNMENTS    2  2  2  2  2  2  2  2  2  2  2  2  2  2  2  2  2  2  2  2
CENTRE ASSIGNMENTS    2  2  2  2  2  2  2  2  2  2  2  2  2  2  2  2  2  2  2  2
CENTRE ASSIGNMENTS    2  2  2  2  2  2  2  2  2  2  3  3  3  3  3  3  3  3  3  3
CENTRE ASSIGNMENTS    3  3  3  3  3  3  3  3  3  3  3  3  3  3  3  3  3  3  3  3
CENTRE ASSIGNMENTS    3  3  3  3  3  3  3  3  3  3  3  3  3  3  3  3  3  3  3  3
CENTRE ASSIGNMENTS    3  3  3  3  3  3  3  3  3  3  3  3  3  3  3  3  3  3  3  3
CENTRE ASSIGNMENTS    3  3  3  3  3  4  4  4  4  4  4  4  4  4  4  4  4  4  4  4
CENTRE ASSIGNMENTS    4  4  4  4  4  4  4  4  4  4  4  4  4  4  4  4  4  4  4  4
CENTRE ASSIGNMENTS    4  4  4  4  4  4  4  4  4  4  4  4  4  4  4  4  4  4  4  4
CENTRE ASSIGNMENTS    4  4  4  4  4  4  4  4  4  4  4  4  4  4  4  4  4  4  4  4
CENTRE ASSIGNMENTS    5  5  5  5  5  5  5  5  5  5  5  5  5  5  5  5  5  5  5  5
CENTRE ASSIGNMENTS    5  5  5  5  5  5  5  6  6  6  6  6  6  6  6  6  6  6  6  6
CENTRE ASSIGNMENTS    6  6  6  6  6  6  6  6  6  6  6  6  6  6  7  7  7  7  7  7
CENTRE ASSIGNMENTS    7  7  7  7  7  7  7  7  7  7  7  7  7  7  7  7  7  7  7  7
CENTRE ASSIGNMENTS    7  8  8  8  8  8  8  8  8  8  8  8  8  8  8  8  8  8  8  8
CENTRE ASSIGNMENTS    8  8  8  8  8  8  8  8  9  9  9  9  9  9  9  9  9  9  9  9
CENTRE ASSIGNMENTS    9  9  9  9  9  9  9  9  9  9  9  9  9  9  9  9  9  9  9  9
CENTRE ASSIGNMENTS    9  9  9  9  9  9  9  9  9  9  9  9  9  9  9  9  9  9  9  9
CENTRE ASSIGNMENTS    9  9  9  9  9  9  9  9  9  9  9  9  9  9  9  9  9  9  9  9
CENTRE ASSIGNMENTS    9  9  9  9  9  9  9  9  9  9  9  9  9  9  9  9  9  9  9  9
CENTRE ASSIGNMENTS    9  9  9  9  9  9  9  9  9  9  9  9  9  9  9  9  9  9  9  9
CENTRE ASSIGNMENTS    9  9  9  9  9  9  9  9  9  9  9  9  9  9  9  9  9  9  9  9
CENTRE ASSIGNMENTS    9  9  9  9  9  9  9  9  9  9  9  9  9  9  9  9  9  9  9  9
CENTRE ASSIGNMENTS    9  9  9  9  9  9  9  9  9  9  9  9  9  9  9  9  9  9  9  9
CENTRE ASSIGNMENTS    9  9  9  9  9  9  9  9  9  9  9  9  9  9  9  9  9  9  9  9
CENTRE ASSIGNMENTS    9  9  9  9  9  9  9  9  9  9  9  9  9  9  9  9  9  9  9  9
CENTRE ASSIGNMENTS    9  9  9  9  9  9  9  9  9  9  9  9  9  9  9  9  9  9  9  9
CENTRE ASSIGNMENTS    9  9  9  9  9  9  9  9  9  9  9  9  9  9  9  9  9  9  9  9
CENTRE ASSIGNMENTS    9  9  9  9  9  9  9  9  9  9  9
TYPE ASSIGNMENTS      1  1  1  1  1  1  1  1  1  1  1  1  1  1  1  1  1  1  1  2
TYPE ASSIGNMENTS      2  2  3  3  3  4  4  4  2  3  4  2  3  4  2  3  4  5  6  7
TYPE ASSIGNMENTS      8  9 10  5  6  7  8  9 10  5  6  7  8  9 10 11 12 13 17 14
TYPE ASSIGNMENTS     15 18 19 16 20 11 12 13 17 14 15 18 19 16 20  1  1  1  1  1
TYPE ASSIGNMENTS      1  1  1  1  1  1  1  1  1  1  1  1  1  1  2  2  2  3  3  3
TYPE ASSIGNMENTS      4  4  4  2  3  4  2  3  4  2  3  4  5  6  7  8  9 10  5  6
TYPE ASSIGNMENTS      7  8  9 10  5  6  7  8  9 10 11 12 13 17 14 15 18 19 16 20
TYPE ASSIGNMENTS     11 12 13 17 14 15 18 19 16 20  1  1  1  1  1  1  1  1  1  1
TYPE ASSIGNMENTS      1  1  1  1  1  1  1  1  1  2  2  2  3  3  3  4  4  4  2  3
TYPE ASSIGNMENTS      4  2  3  4  2  3  4  5  6  7  8  9 10  5  6  7  8  9 10  5
TYPE ASSIGNMENTS      6  7  8  9 10 11 12 13 17 14 15 18 19 16 20 11 12 13 17 14
TYPE ASSIGNMENTS     15 18 19 16 20  1  1  1  1  1  1  1  1  1  1  1  1  1  1  1
TYPE ASSIGNMENTS      1  1  1  1  2  2  2  3  3  3  4  4  4  2  3  4  2  3  4  2
TYPE ASSIGNMENTS      3  4  5  6  7  8  9 10  5  6  7  8  9 10  5  6  7  8  9 10
TYPE ASSIGNMENTS     11 12 13 17 14 15 18 19 16 20 11 12 13 17 14 15 18 19 16 20
TYPE ASSIGNMENTS      1  1  1  1  1  1  2  3  4  2  3  4  2  3  4  5  6  7  8  9
TYPE ASSIGNMENTS     10  5  6  7  8  9 10  1  1  1  1  1  1  2  3  4  2  3  4  2
TYPE ASSIGNMENTS      3  4  5  6  7  8  9 10  5  6  7  8  9 10  1  1  1  1  1  1
TYPE ASSIGNMENTS      2  3  4  2  3  4  2  3  4  5  6  7  8  9 10  5  6  7  8  9
TYPE ASSIGNMENTS     10  1  1  1  1  1  1  2  3  4  2  3  4  2  3  4  5  6  7  8
TYPE ASSIGNMENTS      9 10  5  6  7  8  9 10  1  1  1  1  1  1  1  1  1  1  1  1
TYPE ASSIGNMENTS      1  1  1  1  1  1  1  1  1  1  1  1  1  1  1  1  1  1  1  1
TYPE ASSIGNMENTS      1  1  1  1  1  1  1  1  1  1  1  1  1  1  1  1  1  1  1  1
TYPE ASSIGNMENTS      1  1  1  1  1  1  1  1  1  1  1  1  1  1  1  1  1  1  1  1
TYPE ASSIGNMENTS      1  1  1  2  2  2  2  2  2  2  2  2  2  2  3  3  3  3  3  3
TYPE ASSIGNMENTS      3  3  3  3  3  4  4  4  4  4  4  4  4  4  4  4  2  2  2  2
TYPE ASSIGNMENTS      2  2  2  2  2  2  2  3  3  3  3  3  3  3  3  3  3  3  4  4
TYPE ASSIGNMENTS      4  4  4  4  4  4  4  4  4  2  2  2  2  2  2  2  2  2  2  2
TYPE ASSIGNMENTS      3  3  3  3  3  3  3  3  3  3  3  4  4  4  4  4  4  4  4  4
TYPE ASSIGNMENTS      4  4  2  3  4  2  3  4  2  3  4  5  5  5  5  5  5  5  6  6
TYPE ASSIGNMENTS      6  6  6  6  6  7  7  7  7  7  7  7  8  8  8  8  8  8  8  9
TYPE ASSIGNMENTS      9  9  9  9  9  9 10 10 10 10 10 10 10  5  6  7  8  9 10  5
TYPE ASSIGNMENTS      6  7  8  9 10  5  6  7  8  9 10 11 12 13 17 14 15 18 19 16
TYPE ASSIGNMENTS     20 11 12 13 17 14 15 18 19 16 20
EXPONENTS  0.8236000D+04 0.1235000D+04 0.2808000D+03 0.7927000D+02 0.2559000D+02
EXPONENTS  0.8997000D+01 0.3319000D+01 0.3643000D+00 0.8236000D+04 0.1235000D+04
EXPONENTS  0.2808000D+03 0.7927000D+02 0.2559000D+02 0.8997000D+01 0.3319000D+01
EXPONENTS  0.3643000D+00 0.9059000D+00 0.1285000D+00 0.4402000D-01 0.1871000D+02
EXPONENTS  0.4133000D+01 0.1200000D+01 0.1871000D+02 0.4133000D+01 0.1200000D+01
EXPONENTS  0.1871000D+02 0.4133000D+01 0.1200000D+01 0.3827000D+00 0.3827000D+00
EXPONENTS  0.3827000D+00 0.1209000D+00 0.1209000D+00 0.1209000D+00 0.3569000D-01
EXPONENTS  0.3569000D-01 0.3569000D-01 0.1097000D+01 0.1097000D+01 0.1097000D+01
EXPONENTS  0.1097000D+01 0.1097000D+01 0.1097000D+01 0.3180000D+00 0.3180000D+00
EXPONENTS  0.3180000D+00 0.3180000D+00 0.3180000D+00 0.3180000D+00 0.1000000D+00
EXPONENTS  0.1000000D+00 0.1000000D+00 0.1000000D+00 0.1000000D+00 0.1000000D+00
EXPONENTS  0.7610000D+00 0.7610000D+00 0.7610000D+00 0.7610000D+00 0.7610000D+00
EXPONENTS  0.7610000D+00 0.7610000D+00 0.7610000D+00 0.7610000D+00 0.7610000D+00
EXPONENTS  0.2680000D+00 0.2680000D+00 0.2680000D+00 0.2680000D+00 0.2680000D+00
EXPONENTS  0.2680000D+00 0.2680000D+00 0.2680000D+00 0.2680000D+00 0.2680000D+00
EXPONENTS  0.1533000D+05 0.2299000D+04 0.5224000D+03 0.1473000D+03 0.4755000D+02
EXPONENTS  0.1676000D+02 0.6207000D+01 0.6882000D+00 0.1533000D+05 0.2299000D+04
EXPONENTS  0.5224000D+03 0.1473000D+03 0.4755000D+02 0.1676000D+02 0.6207000D+01
EXPONENTS  0.6882000D+00 0.1752000D+01 0.2384000D+00 0.7376000D-01 0.3446000D+02
EXPONENTS  0.7749000D+01 0.2280000D+01 0.3446000D+02 0.7749000D+01 0.2280000D+01
EXPONENTS  0.3446000D+02 0.7749000D+01 0.2280000D+01 0.7156000D+00 0.7156000D+00
EXPONENTS  0.7156000D+00 0.2140000D+00 0.2140000D+00 0.2140000D+00 0.5974000D-01
EXPONENTS  0.5974000D-01 0.5974000D-01 0.2314000D+01 0.2314000D+01 0.2314000D+01
EXPONENTS  0.2314000D+01 0.2314000D+01 0.2314000D+01 0.6450000D+00 0.6450000D+00
EXPONENTS  0.6450000D+00 0.6450000D+00 0.6450000D+00 0.6450000D+00 0.2140000D+00
EXPONENTS  0.2140000D+00 0.2140000D+00 0.2140000D+00 0.2140000D+00 0.2140000D+00
EXPONENTS  0.1428000D+01 0.1428000D+01 0.1428000D+01 0.1428000D+01 0.1428000D+01
EXPONENTS  0.1428000D+01 0.1428000D+01 0.1428000D+01 0.1428000D+01 0.1428000D+01
EXPONENTS  0.5000000D+00 0.5000000D+00 0.5000000D+00 0.5000000D+00 0.5000000D+00
EXPONENTS  0.5000000D+00 0.5000000D+00 0.5000000D+00 0.5000000D+00 0.5000000D+00
EXPONENTS  0.1142000D+05 0.1712000D+04 0.3893000D+03 0.1100000D+03 0.3557000D+02
EXPONENTS  0.1254000D+02 0.4644000D+01 0.5118000D+00 0.1142000D+05 0.1712000D+04
EXPONENTS  0.3893000D+03 0.1100000D+03 0.3557000D+02 0.1254000D+02 0.4644000D+01
EXPONENTS  0.5118000D+00 0.1293000D+01 0.1787000D+00 0.5760000D-01 0.2663000D+02
EXPONENTS  0.5948000D+01 0.1742000D+01 0.2663000D+02 0.5948000D+01 0.1742000D+01
EXPONENTS  0.2663000D+02 0.5948000D+01 0.1742000D+01 0.5550000D+00 0.5550000D+00
EXPONENTS  0.5550000D+00 0.1725000D+00 0.1725000D+00 0.1725000D+00 0.4910000D-01
EXPONENTS  0.4910000D-01 0.4910000D-01 0.1654000D+01 0.1654000D+01 0.1654000D+01
EXPONENTS  0.1654000D+01 0.1654000D+01 0.1654000D+01 0.4690000D+00 0.4690000D+00
EXPONENTS  0.4690000D+00 0.4690000D+00 0.4690000D+00 0.4690000D+00 0.1510000D+00
EXPONENTS  0.1510000D+00 0.1510000D+00 0.1510000D+00 0.1510000D+00 0.1510000D+00
EXPONENTS  0.1093000D+01 0.1093000D+01 0.1093000D+01 0.1093000D+01 0.1093000D+01
EXPONENTS  0.1093000D+01 0.1093000D+01 0.1093000D+01 0.1093000D+01 0.1093000D+01
EXPONENTS  0.3640000D+00 0.3640000D+00 0.3640000D+00 0.3640000D+00 0.3640000D+00
EXPONENTS  0.3640000D+00 0.3640000D+00 0.3640000D+00 0.3640000D+00 0.3640000D+00
EXPONENTS  0.8236000D+04 0.1235000D+04 0.2808000D+03 0.7927000D+02 0.2559000D+02
EXPONENTS  0.8997000D+01 0.3319000D+01 0.3643000D+00 0.8236000D+04 0.1235000D+04
EXPONENTS  0.2808000D+03 0.7927000D+02 0.2559000D+02 0.8997000D+01 0.3319000D+01
EXPONENTS  0.3643000D+00 0.9059000D+00 0.1285000D+00 0.4402000D-01 0.1871000D+02
EXPONENTS  0.4133000D+01 0.1200000D+01 0.1871000D+02 0.4133000D+01 0.1200000D+01
EXPONENTS  0.1871000D+02 0.4133000D+01 0.1200000D+01 0.3827000D+00 0.3827000D+00
EXPONENTS  0.3827000D+00 0.1209000D+00 0.1209000D+00 0.1209000D+00 0.3569000D-01
EXPONENTS  0.3569000D-01 0.3569000D-01 0.1097000D+01 0.1097000D+01 0.1097000D+01
EXPONENTS  0.1097000D+01 0.1097000D+01 0.1097000D+01 0.3180000D+00 0.3180000D+00
EXPONENTS  0.3180000D+00 0.3180000D+00 0.3180000D+00 0.3180000D+00 0.1000000D+00
EXPONENTS  0.1000000D+00 0.1000000D+00 0.1000000D+00 0.1000000D+00 0.1000000D+00
EXPONENTS  0.7610000D+00 0.7610000D+00 0.7610000D+00 0.7610000D+00 0.7610000D+00
EXPONENTS  0.7610000D+00 0.7610000D+00 0.7610000D+00 0.7610000D+00 0.7610000D+00
EXPONENTS  0.2680000D+00 0.2680000D+00 0.2680000D+00 0.2680000D+00 0.2680000D+00
EXPONENTS  0.2680000D+00 0.2680000D+00 0.2680000D+00 0.2680000D+00 0.2680000D+00
EXPONENTS  0.3387000D+02 0.5095000D+01 0.1159000D+01 0.3258000D+00 0.1027000D+00
EXPONENTS  0.2526000D-01 0.1407000D+01 0.1407000D+01 0.1407000D+01 0.3880000D+00
EXPONENTS  0.3880000D+00 0.3880000D+00 0.1020000D+00 0.1020000D+00 0.1020000D+00
EXPONENTS  0.1057000D+01 0.1057000D+01 0.1057000D+01 0.1057000D+01 0.1057000D+01
EXPONENTS  0.1057000D+01 0.2470000D+00 0.2470000D+00 0.2470000D+00 0.2470000D+00
EXPONENTS  0.2470000D+00 0.2470000D+00 0.3387000D+02 0.5095000D+01 0.1159000D+01
EXPONENTS  0.3258000D+00 0.1027000D+00 0.2526000D-01 0.1407000D+01 0.1407000D+01
EXPONENTS  0.1407000D+01 0.3880000D+00 0.3880000D+00 0.3880000D+00 0.1020000D+00
EXPONENTS  0.1020000D+00 0.1020000D+00 0.1057000D+01 0.1057000D+01 0.1057000D+01
EXPONENTS  0.1057000D+01 0.1057000D+01 0.1057000D+01 0.2470000D+00 0.2470000D+00
EXPONENTS  0.2470000D+00 0.2470000D+00 0.2470000D+00 0.2470000D+00 0.3387000D+02
EXPONENTS  0.5095000D+01 0.1159000D+01 0.3258000D+00 0.1027000D+00 0.2526000D-01
EXPONENTS  0.1407000D+01 0.1407000D+01 0.1407000D+01 0.3880000D+00 0.3880000D+00
EXPONENTS  0.3880000D+00 0.1020000D+00 0.1020000D+00 0.1020000D+00 0.1057000D+01
EXPONENTS  0.1057000D+01 0.1057000D+01 0.1057000D+01 0.1057000D+01 0.1057000D+01
EXPONENTS  0.2470000D+00 0.2470000D+00 0.2470000D+00 0.2470000D+00 0.2470000D+00
EXPONENTS  0.2470000D+00 0.3387000D+02 0.5095000D+01 0.1159000D+01 0.3258000D+00
EXPONENTS  0.1027000D+00 0.2526000D-01 0.1407000D+01 0.1407000D+01 0.1407000D+01
EXPONENTS  0.3880000D+00 0.3880000D+00 0.3880000D+00 0.1020000D+00 0.1020000D+00
EXPONENTS  0.1020000D+00 0.1057000D+01 0.1057000D+01 0.1057000D+01 0.1057000D+01
EXPONENTS  0.1057000D+01 0.1057000D+01 0.2470000D+00 0.2470000D+00 0.2470000D+00
EXPONENTS  0.2470000D+00 0.2470000D+00 0.2470000D+00 0.1063900D+08 0.1593400D+07
EXPONENTS  0.3626100D+06 0.1027000D+06 0.3350100D+05 0.1209300D+05 0.4715900D+04
EXPONENTS  0.1955600D+04 0.8526100D+03 0.3876700D+03 0.1826800D+03 0.8824500D+02
EXPONENTS  0.3926300D+02 0.1923400D+02 0.9405700D+01 0.4160100D+01 0.1899500D+01
EXPONENTS  0.3011400D+00 0.1063900D+08 0.1593400D+07 0.3626100D+06 0.1027000D+06
EXPONENTS  0.3350100D+05 0.1209300D+05 0.4715900D+04 0.1955600D+04 0.8526100D+03
EXPONENTS  0.3876700D+03 0.1826800D+03 0.8824500D+02 0.3926300D+02 0.1923400D+02
EXPONENTS  0.9405700D+01 0.4160100D+01 0.1899500D+01 0.3011400D+00 0.1063900D+08
EXPONENTS  0.1593400D+07 0.3626100D+06 0.1027000D+06 0.3350100D+05 0.1209300D+05
EXPONENTS  0.4715900D+04 0.1955600D+04 0.8526100D+03 0.3876700D+03 0.1826800D+03
EXPONENTS  0.8824500D+02 0.3926300D+02 0.1923400D+02 0.9405700D+01 0.4160100D+01
EXPONENTS  0.1899500D+01 0.3011400D+00 0.1063900D+08 0.1593400D+07 0.3626100D+06
EXPONENTS  0.1027000D+06 0.3350100D+05 0.1209300D+05 0.4715900D+04 0.1955600D+04
EXPONENTS  0.8526100D+03 0.3876700D+03 0.1826800D+03 0.8824500D+02 0.3926300D+02
EXPONENTS  0.1923400D+02 0.9405700D+01 0.4160100D+01 0.1899500D+01 0.3011400D+00
EXPONENTS  0.6047200D+00 0.1251500D+00 0.4559300D-01 0.8676500D+04 0.2055900D+04
EXPONENTS  0.6662300D+03 0.2531000D+03 0.1061200D+03 0.4724200D+02 0.2182500D+02
EXPONENTS  0.9968400D+01 0.4517100D+01 0.1998200D+01 0.2814500D+00 0.8676500D+04
EXPONENTS  0.2055900D+04 0.6662300D+03 0.2531000D+03 0.1061200D+03 0.4724200D+02
EXPONENTS  0.2182500D+02 0.9968400D+01 0.4517100D+01 0.1998200D+01 0.2814500D+00
EXPONENTS  0.8676500D+04 0.2055900D+04 0.6662300D+03 0.2531000D+03 0.1061200D+03
EXPONENTS  0.4724200D+02 0.2182500D+02 0.9968400D+01 0.4517100D+01 0.1998200D+01
EXPONENTS  0.2814500D+00 0.8676500D+04 0.2055900D+04 0.6662300D+03 0.2531000D+03
EXPONENTS  0.1061200D+03 0.4724200D+02 0.2182500D+02 0.9968400D+01 0.4517100D+01
EXPONENTS  0.1998200D+01 0.2814500D+00 0.8676500D+04 0.2055900D+04 0.6662300D+03
EXPONENTS  0.2531000D+03 0.1061200D+03 0.4724200D+02 0.2182500D+02 0.9968400D+01
EXPONENTS  0.4517100D+01 0.1998200D+01 0.2814500D+00 0.8676500D+04 0.2055900D+04
EXPONENTS  0.6662300D+03 0.2531000D+03 0.1061200D+03 0.4724200D+02 0.2182500D+02
EXPONENTS  0.9968400D+01 0.4517100D+01 0.1998200D+01 0.2814500D+00 0.8676500D+04
EXPONENTS  0.2055900D+04 0.6662300D+03 0.2531000D+03 0.1061200D+03 0.4724200D+02
EXPONENTS  0.2182500D+02 0.9968400D+01 0.4517100D+01 0.1998200D+01 0.2814500D+00
EXPONENTS  0.8676500D+04 0.2055900D+04 0.6662300D+03 0.2531000D+03 0.1061200D+03
EXPONENTS  0.4724200D+02 0.2182500D+02 0.9968400D+01 0.4517100D+01 0.1998200D+01
EXPONENTS  0.2814500D+00 0.8676500D+04 0.2055900D+04 0.6662300D+03 0.2531000D+03
EXPONENTS  0.1061200D+03 0.4724200D+02 0.2182500D+02 0.9968400D+01 0.4517100D+01
EXPONENTS  0.1998200D+01 0.2814500D+00 0.7098800D+00 0.7098800D+00 0.7098800D+00
EXPONENTS  0.1020400D+00 0.1020400D+00 0.1020400D+00 0.3514200D-01 0.3514200D-01
EXPONENTS  0.3514200D-01 0.4038300D+03 0.1211700D+03 0.4634500D+02 0.1972100D+02
EXPONENTS  0.8862400D+01 0.3996200D+01 0.1763600D+01 0.4038300D+03 0.1211700D+03
EXPONENTS  0.4634500D+02 0.1972100D+02 0.8862400D+01 0.3996200D+01 0.1763600D+01
EXPONENTS  0.4038300D+03 0.1211700D+03 0.4634500D+02 0.1972100D+02 0.8862400D+01
EXPONENTS  0.3996200D+01 0.1763600D+01 0.4038300D+03 0.1211700D+03 0.4634500D+02
EXPONENTS  0.1972100D+02 0.8862400D+01 0.3996200D+01 0.1763600D+01 0.4038300D+03
EXPONENTS  0.1211700D+03 0.4634500D+02 0.1972100D+02 0.8862400D+01 0.3996200D+01
EXPONENTS  0.1763600D+01 0.4038300D+03 0.1211700D+03 0.4634500D+02 0.1972100D+02
EXPONENTS  0.8862400D+01 0.3996200D+01 0.1763600D+01 0.7061900D+00 0.7061900D+00
EXPONENTS  0.7061900D+00 0.7061900D+00 0.7061900D+00 0.7061900D+00 0.2639000D+00
EXPONENTS  0.2639000D+00 0.2639000D+00 0.2639000D+00 0.2639000D+00 0.2639000D+00
EXPONENTS  0.1047000D+00 0.1047000D+00 0.1047000D+00 0.1047000D+00 0.1047000D+00
EXPONENTS  0.1047000D+00 0.5515000D+00 0.5515000D+00 0.5515000D+00 0.5515000D+00
EXPONENTS  0.5515000D+00 0.5515000D+00 0.5515000D+00 0.5515000D+00 0.5515000D+00
EXPONENTS  0.5515000D+00 0.2580000D+00 0.2580000D+00 0.2580000D+00 0.2580000D+00
EXPONENTS  0.2580000D+00 0.2580000D+00 0.2580000D+00 0.2580000D+00 0.2580000D+00
EXPONENTS  0.2580000D+00
MO    1     MO 0.0        OCC NO =    2.0000000  ORB. ENERGY = -481.053141
 -0.12642262D-05 -0.23568051D-05 -0.39834158D-05 -0.59883787D-05 -0.73574151D-05
 -0.62145132D-05 -0.23438857D-05  0.11600021D-07  0.94869946D-06  0.17762647D-05
  0.30242427D-05  0.46780436D-05  0.61608188D-05  0.64014854D-05  0.40678566D-05
 -0.27261829D-05 -0.20885441D-05  0.15857511D-04  0.18758414D-05 -0.99764133D-06
 -0.93535216D-06 -0.66602646D-06  0.43511483D-06  0.40794781D-06  0.29048314D-06
  0.21775557D-05  0.20415969D-05  0.14537386D-05  0.35909577D-06 -0.20271349D-05
 -0.15702057D-05  0.42988324D-05 -0.28553883D-04 -0.14311054D-05 -0.26688409D-06
 -0.67816256D-06  0.24300476D-06  0.26569540D-05 -0.20112245D-05 -0.64572949D-06
  0.41834379D-05 -0.28964484D-06 -0.22912110D-05  0.21422909D-05 -0.30417083D-05
  0.89941741D-06  0.27269837D-05  0.46878656D-05  0.32142253D-05 -0.10478136D-04
  0.84390856D-05  0.20390502D-05  0.10221617D-05 -0.95940531D-06  0.12261874D-06
  0.33787558D-05 -0.15108672D-05  0.10224896D-06 -0.49676118D-05  0.63554909D-05
  0.17509031D-05 -0.51686554D-05 -0.18228893D-05 -0.20576500D-05 -0.44632789D-05
 -0.37188199D-05  0.34988294D-06  0.14961710D-07  0.71932295D-05 -0.26423584D-05
 -0.66113348D-06  0.39632303D-05  0.15927095D-05  0.61624835D-06 -0.22845975D-05
 -0.97932555D-06 -0.18253368D-05 -0.30951664D-05 -0.46846786D-05 -0.58451111D-05
 -0.50201709D-05 -0.19273412D-05  0.86211155D-08  0.70529674D-06  0.13228015D-05
  0.22550866D-05  0.35242614D-05  0.47126090D-05  0.50319677D-05  0.30764464D-05
 -0.20296525D-05 -0.11291008D-05  0.10302603D-04 -0.25009942D-04 -0.76556808D-06
 -0.74234352D-06 -0.50078055D-06  0.15356086D-05  0.14890238D-05  0.10044867D-05
 -0.51442399D-06 -0.49881823D-06 -0.33649983D-06 -0.79238261D-06 -0.24694548D-05
  0.38135971D-06 -0.86147260D-05 -0.90689510D-05 -0.16096351D-05 -0.29332404D-07
  0.19921947D-05 -0.38787544D-06 -0.28920595D-05  0.64230766D-06  0.22497518D-05
 -0.18818411D-05  0.91284326D-06 -0.19233644D-05  0.91753539D-06  0.13681898D-05
 -0.22857252D-05  0.11540203D-05 -0.26333414D-06  0.15969569D-06  0.10813689D-05
  0.15519789D-06 -0.12365668D-05  0.55616975D-05  0.11024383D-05  0.83307979D-06
  0.15557219D-05 -0.26055010D-06 -0.14952049D-05  0.69407359D-05 -0.37014771D-06
 -0.48208620D-06 -0.11607902D-04  0.11517980D-05  0.49677009D-05  0.33449149D-05
  0.91778695D-07 -0.22459099D-06  0.24138825D-06 -0.26257402D-05  0.34964118D-07
 -0.23921017D-08  0.23504041D-05  0.63880886D-06 -0.72177264D-06 -0.15388236D-05
 -0.59132268D-05 -0.11018427D-04 -0.18634923D-04 -0.28063162D-04 -0.34744015D-04
 -0.29565588D-04 -0.11250252D-04  0.52689729D-07  0.42551009D-05  0.79783540D-05
  0.13573554D-04  0.21078296D-04  0.27972125D-04  0.29478780D-04  0.18278724D-04
 -0.12159014D-04 -0.52130509D-05  0.13120312D-05 -0.88119670D-05 -0.12011003D-05
 -0.11536425D-05 -0.80901376D-06 -0.22024679D-05 -0.21154441D-05 -0.14834954D-05
 -0.16376030D-05 -0.15728981D-05 -0.11030247D-05 -0.14623347D-04 -0.64809440D-05
  0.79665020D-06  0.47687011D-04  0.22952956D-04  0.26567072D-05  0.15798656D-05
  0.45808059D-06 -0.34210386D-06 -0.20317048D-04  0.56993899D-05  0.14617658D-04
 -0.22081528D-04 -0.11383599D-04  0.16912586D-05  0.10432696D-04 -0.13378753D-05
 -0.90948210D-05  0.11533292D-04  0.57197795D-05 -0.30580069D-05  0.14639826D-05
  0.14994243D-05 -0.29634069D-05  0.82881605D-05  0.17737371D-05  0.13691733D-05
 -0.24253066D-05 -0.23489556D-05  0.19310011D-05 -0.23544988D-05  0.11877367D-05
 -0.37851740D-05  0.96304185D-05  0.58591301D-05 -0.20078294D-05  0.29371727D-05
  0.47568601D-05 -0.10433126D-05 -0.12457135D-05 -0.50034417D-05  0.92468565D-05
  0.29784945D-05 -0.92671385D-05 -0.61169187D-05  0.75864610D-06  0.40245533D-05
 -0.48241465D-05 -0.89933059D-05 -0.15200271D-04 -0.22850987D-04 -0.28075078D-04
 -0.23713891D-04 -0.89440072D-05  0.44264391D-07  0.34601065D-05  0.64784111D-05
  0.11030049D-04  0.17061809D-04  0.22469802D-04  0.23347564D-04  0.14836329D-04
 -0.99429625D-05 -0.85937107D-05  0.81273151D-04  0.29916002D-05  0.39717556D-05
  0.37237733D-05  0.26515484D-05 -0.36122819D-05 -0.33867439D-05 -0.24115634D-05
  0.17613106D-06  0.16513407D-06  0.11758529D-06 -0.19626352D-04  0.89159426D-05
 -0.19483164D-05 -0.84322515D-05  0.12164070D-04 -0.42224827D-05  0.55665778D-07
  0.35112052D-06 -0.34370238D-07 -0.19476569D-05  0.22276874D-05 -0.28003050D-06
  0.63831105D-05  0.16128557D-07 -0.18396140D-05  0.25041008D-05 -0.11759796D-04
  0.92556954D-05 -0.16334878D-04  0.12215513D-04 -0.53433641D-05 -0.31920420D-05
  0.40633731D-05 -0.87133109D-06  0.33969475D-05  0.20587384D-05 -0.83426287D-06
  0.86324094D-06 -0.64916237D-06  0.53014436D-06  0.14253049D-06  0.26649795D-05
 -0.10403277D-05 -0.27322533D-05 -0.71749235D-06 -0.55010537D-06  0.22612079D-05
  0.21428340D-05 -0.54799213D-06  0.95710797D-06  0.11231026D-06 -0.24189775D-05
 -0.25634464D-05 -0.65408122D-05  0.40629539D-05 -0.30787752D-06  0.87611663D-05
  0.18002618D-06  0.32468464D-06  0.47874731D-06 -0.58241452D-04  0.61105362D-05
 -0.33570259D-06 -0.23329504D-05  0.18177796D-05 -0.37670365D-05 -0.14934198D-04
  0.91893970D-05 -0.11070308D-04 -0.30096266D-06 -0.37627035D-06  0.33348321D-06
 -0.43952455D-06  0.13571309D-05 -0.91760633D-06  0.24491336D-05 -0.30322219D-05
  0.51761127D-05 -0.19517053D-06 -0.63716027D-06  0.83233079D-06  0.48712869D-06
 -0.21293274D-05 -0.42411678D-06  0.30041629D-06  0.54181315D-06  0.79890318D-06
  0.49969179D-05 -0.48389592D-04  0.62737750D-06 -0.23956024D-05  0.12175104D-05
  0.11301612D-05 -0.75175111D-05  0.41555340D-05 -0.23998216D-06  0.18171360D-05
 -0.58451800D-05 -0.23851637D-05 -0.11358622D-05  0.11394215D-05 -0.35592877D-08
 -0.54435602D-05 -0.12483316D-05  0.16756929D-05 -0.14075468D-05  0.98488351D-06
  0.42266333D-06 -0.10899411D-05  0.20774559D-05 -0.28604587D-06 -0.15332854D-06
 -0.27653433D-06 -0.40774971D-06 -0.28489776D-04  0.12650585D-04 -0.50809949D-06
 -0.28117367D-06  0.16909140D-06  0.21538636D-05 -0.82597878D-05  0.38701623D-05
  0.64994261D-05 -0.34660620D-05 -0.68870983D-06 -0.20951384D-05  0.75750831D-07
  0.85539197D-06 -0.93114280D-06 -0.79782670D-06  0.29819080D-05 -0.31935169D-05
 -0.61170988D-06 -0.47218554D-06  0.10838954D-05 -0.13270889D-05  0.11011478D-05
 -0.69907493D-07 -0.60788583D-06 -0.10963471D-05 -0.16165632D-05  0.34526403D-05
 -0.12976735D-04 -0.79148493D-06  0.72641373D-05  0.91574366D-06  0.11068244D-05
 -0.20771099D-06 -0.58370979D-05 -0.20325799D-05 -0.10879006D-06 -0.34864490D-05
  0.46563041D-06  0.55016561D-05 -0.38739953D-05 -0.16276608D-05  0.69837172D-05
  0.13831381D-05  0.56343578D-06 -0.14831811D-05 -0.47300587D-06  0.19561870D-05
 -0.27359026D-05 -0.34306361D-08 -0.42079549D-06  0.78329295D+00  0.14734694D+01
  0.25506483D+01  0.41810005D+01  0.65496183D+01  0.98446341D+01  0.14070455D+02
  0.18678879D+02  0.21754091D+02  0.19980922D+02  0.11683631D+02  0.30658433D+01
  0.16760846D+00 -0.59990334D-02  0.16765405D-02 -0.49782145D-03  0.84869939D-04
  0.69242196D-05  0.10633879D-03  0.19537730D-03  0.33785238D-03  0.55328049D-03
  0.87111526D-03  0.13154694D-02  0.19201836D-02  0.26442094D-02  0.33785918D-02
  0.36830609D-02  0.30317262D-02  0.83127875D-03 -0.16767431D-02 -0.16340594D-02
 -0.35757824D-03 -0.12046482D-04 -0.40809630D-06  0.10381444D-08 -0.68801520D-04
 -0.13487854D-03 -0.23623642D-03 -0.38593343D-03 -0.60870998D-03 -0.91851618D-03
 -0.13467272D-02 -0.18593797D-02 -0.24106950D-02 -0.26808347D-02 -0.23284700D-02
 -0.67637888D-03  0.17051430D-02  0.24845134D-02  0.42771787D-03 -0.10434485D-02
 -0.49665517D-03  0.23984995D-05  0.25176830D-04  0.54552111D-04  0.92866319D-04
  0.15158284D-03  0.23895548D-03  0.36065283D-03  0.52877582D-03  0.73099503D-03
  0.94875821D-03  0.10599288D-02  0.92587184D-03  0.27424414D-03 -0.71287723D-03
 -0.10966461D-02 -0.19194656D-03  0.60548481D-03  0.51396504D-03 -0.19175576D-03
  0.17639050D-03  0.44685300D-04  0.91681566D-05  0.33738677D-03  0.48409028D-03
  0.64096127D-03  0.74012866D-03  0.68613332D-03  0.44421522D-03  0.15679166D-03
  0.18377334D-04  0.26717243D-06  0.39124428D-07  0.40225988D-09  0.55683052D-04
  0.79895321D-04  0.10578565D-03  0.12215246D-03  0.11324095D-03  0.73314253D-04
  0.25877239D-04  0.30330355D-05  0.44094723D-07  0.64571814D-08  0.66389852D-10
  0.29926902D-04  0.42939806D-04  0.56854586D-04  0.65650938D-04  0.60861440D-04
  0.39402806D-04  0.13907743D-04  0.16301074D-05  0.23698745D-07  0.34704174D-08
  0.35681281D-10 -0.24514419D-02 -0.35386846D-02 -0.47275980D-02 -0.56165314D-02
 -0.54428495D-02 -0.37834747D-02 -0.12311064D-02  0.55409556D-03  0.59860807D-03
  0.15410982D-03 -0.15031990D-06 -0.67669530D-03 -0.97681744D-03 -0.13050047D-02
 -0.15503857D-02 -0.15024426D-02 -0.10443892D-02 -0.33983424D-03  0.15295238D-03
  0.16523960D-03  0.42540428D-04 -0.41494259D-07 -0.20576983D-03 -0.29703112D-03
 -0.39682647D-03 -0.47144202D-03 -0.45686345D-03 -0.31757838D-03 -0.10333696D-03
  0.46509832D-04  0.50246136D-04  0.12935714D-04 -0.12617594D-07  0.17779190D-02
  0.25833952D-02  0.34346539D-02  0.41213469D-02  0.39874214D-02  0.28306049D-02
  0.87975912D-03 -0.50510219D-03 -0.58025029D-03 -0.15409056D-03  0.55596356D-04
  0.49101498D-03  0.71346655D-03  0.94856205D-03  0.11382088D-02  0.11012220D-02
  0.78173943D-03  0.24296658D-03 -0.13949608D-03 -0.16025003D-03 -0.42555805D-04
  0.15354267D-04  0.14799093D-03  0.21503739D-03  0.28589470D-03  0.34305385D-03
  0.33190612D-03  0.23561470D-03  0.73229640D-04 -0.42043840D-04 -0.48299039D-04
 -0.12826234D-04  0.46277453D-05 -0.28121784D-04 -0.71307214D-05 -0.27857413D-05
 -0.20903924D-04 -0.80075214D-06 -0.87051689D-07 -0.65041182D-06 -0.34594249D-07
  0.37739570D-08  0.25361367D-03  0.26537938D-03  0.22611743D-03  0.14891543D-03
  0.68630686D-04  0.20551570D-04  0.34966754D-05 -0.78494051D-04 -0.82135566D-04
 -0.69983899D-04 -0.46089688D-04 -0.21241365D-04 -0.63607611D-05 -0.10822296D-05
 -0.17511962D-03 -0.18324381D-03 -0.15613354D-03 -0.10282574D-03 -0.47389321D-04
 -0.14190809D-04 -0.24144458D-05  0.22132751D-03  0.23159539D-03  0.19733167D-03
  0.12995782D-03  0.59893690D-04  0.17935262D-04  0.30515328D-05  0.43437657D-04
  0.45452828D-04  0.38728242D-04  0.25505475D-04  0.11754714D-04  0.35199682D-05
  0.59889274D-06  0.14200747D-04  0.14859552D-04  0.12661134D-04  0.83383137D-05
  0.38428805D-05  0.11507568D-05  0.19579151D-06 -0.13198092D-04  0.39188072D-05
  0.92792853D-05 -0.10560486D-04 -0.17435010D-05 -0.48617205D-06 -0.46127978D-05
  0.23448965D-05  0.22679013D-05 -0.73959983D-05 -0.25350581D-05 -0.10663318D-05
  0.30305874D-05 -0.12013961D-05 -0.18291912D-05  0.72325135D-06  0.21505103D-06
  0.40831688D-07  0.58497310D-05 -0.20079373D-05 -0.85123381D-06 -0.33863721D-05
  0.10198719D-04  0.27876264D-05 -0.14162821D-04 -0.41749068D-05 -0.23392500D-06
  0.31089564D-05 -0.15083103D-05 -0.41091018D-07  0.21447753D-07  0.80857322D-06
 -0.49451354D-06 -0.17690610D-06  0.37163577D-05  0.61778659D-06  0.11256284D-06
 -0.38483264D-07
MO    2     MO 0.0        OCC NO =    2.0000000  ORB. ENERGY =  -61.855546
  0.35364562D-04  0.65927584D-04  0.11142923D-03  0.16751463D-03  0.20581108D-03
  0.17384036D-03  0.65566188D-04 -0.32449072D-06 -0.26992066D-04 -0.50537664D-04
 -0.86044698D-04 -0.13309806D-03 -0.17528547D-03 -0.18213283D-03 -0.11573724D-03
  0.77564405D-04  0.70652857D-04 -0.45271742D-03 -0.11752181D-03  0.38016923D-04
  0.35643282D-04  0.25380140D-04 -0.23387740D-04 -0.21927492D-04 -0.15613681D-04
 -0.69612048D-04 -0.65265720D-04 -0.46473081D-04 -0.15276784D-04  0.90337322D-04
  0.45676355D-04 -0.12796307D-03  0.92806110D-03  0.43571944D-04  0.14398326D-04
  0.25131782D-04 -0.80147626D-05 -0.74546049D-04  0.54065559D-04  0.20480490D-04
 -0.11299042D-03  0.16870405D-04  0.69684568D-04 -0.80372157D-04  0.10472130D-03
 -0.24349139D-04 -0.10451160D-03 -0.16403473D-03 -0.10476801D-03  0.35000751D-03
 -0.28072400D-03 -0.69283510D-04 -0.37551255D-04  0.30785054D-04 -0.21524467D-05
 -0.10633596D-03  0.52160626D-04 -0.20814828D-05  0.13555702D-03 -0.21027207D-03
 -0.58664434D-04  0.18345085D-03  0.53790194D-04  0.64908883D-04  0.13758421D-03
  0.12642208D-03 -0.21092865D-05 -0.14625705D-05 -0.24593745D-03  0.66387264D-04
  0.19508908D-04 -0.13332880D-03 -0.60059404D-04 -0.15121197D-04  0.76200579D-04
  0.22203794D-04  0.41385015D-04  0.70175273D-04  0.10621354D-03  0.13252349D-03
  0.11382001D-03  0.43697714D-04 -0.19546255D-06 -0.16405588D-04 -0.30769088D-04
 -0.52454549D-04 -0.81976250D-04 -0.10961787D-03 -0.11704632D-03 -0.71559828D-04
  0.47210828D-04  0.37361721D-04 -0.36873125D-03  0.84628569D-03 -0.50310731D-05
 -0.48784485D-05 -0.32909726D-05 -0.48278002D-04 -0.46813422D-04 -0.31580058D-04
  0.20033617D-04  0.19425870D-04  0.13104577D-04  0.57649902D-04  0.87165039D-04
 -0.17121684D-04  0.29944195D-03  0.30758105D-03  0.46054402D-04  0.49805695D-06