 Molden2AIM, Version 4.0.0 (06/02/2016)           Time: Fri Jun 29 00:26:04 2018
GAUSSIAN              9 MOL ORBITALS    258 PRIMITIVES        6 NUCLEI
  C    1    (CENTRE  1)  -0.05759318  1.25116877  0.00000000  CHARGE =  6.0
  O    2    (CENTRE  2)  -0.12174372 -1.42298834  0.00000000  CHARGE =  8.0
  H    3    (CENTRE  3)  -2.02626640  1.89820155  0.00000000  CHARGE =  1.0
  H    4    (CENTRE  4)   0.88070497  2.01841647  1.69568338  CHARGE =  1.0
  H    5    (CENTRE  5)   0.88070497  2.01841647 -1.69568338  CHARGE =  1.0
  H    6    (CENTRE  6)   1.58388718 -2.04536586  0.00000000  CHARGE =  1.0
CENTRE ASSIGNMENTS    1  1  1  1  1  1  1  1  1  1  1  1  1  1  1  1  1  1  1  1
CENTRE ASSIGNMENTS    1  1  1  1  1  1  1  1  1  1  1  1  1  1  1  1  1  1  1  1
CENTRE ASSIGNMENTS    1  1  1  1  1  1  1  1  1  1  1  1  1  1  1  1  1  1  1  1
CENTRE ASSIGNMENTS    1  1  1  1  1  1  1  1  1  1  1  1  1  1  1  2  2  2  2  2
CENTRE ASSIGNMENTS    2  2  2  2  2  2  2  2  2  2  2  2  2  2  2  2  2  2  2  2
CENTRE ASSIGNMENTS    2  2  2  2  2  2  2  2  2  2  2  2  2  2  2  2  2  2  2  2
CENTRE ASSIGNMENTS    2  2  2  2  2  2  2  2  2  2  2  2  2  2  2  2  2  2  2  2
CENTRE ASSIGNMENTS    2  2  2  2  2  2  2  2  2  2  3  3  3  3  3  3  3  3  3  3
CENTRE ASSIGNMENTS    3  3  3  3  3  3  3  3  3  3  3  3  3  3  3  3  3  4  4  4
CENTRE ASSIGNMENTS    4  4  4  4  4  4  4  4  4  4  4  4  4  4  4  4  4  4  4  4
CENTRE ASSIGNMENTS    4  4  4  4  5  5  5  5  5  5  5  5  5  5  5  5  5  5  5  5
CENTRE ASSIGNMENTS    5  5  5  5  5  5  5  5  5  5  5  6  6  6  6  6  6  6  6  6
CENTRE ASSIGNMENTS    6  6  6  6  6  6  6  6  6  6  6  6  6  6  6  6  6  6
TYPE ASSIGNMENTS      1  1  1  1  1  1  1  1  1  1  1  1  1  1  1  1  1  1  1  2
TYPE ASSIGNMENTS      2  2  3  3  3  4  4  4  2  3  4  2  3  4  2  3  4  5  6  7
TYPE ASSIGNMENTS      8  9 10  5  6  7  8  9 10  5  6  7  8  9 10 11 12 13 17 14
TYPE ASSIGNMENTS     15 18 19 16 20 11 12 13 17 14 15 18 19 16 20  1  1  1  1  1
TYPE ASSIGNMENTS      1  1  1  1  1  1  1  1  1  1  1  1  1  1  2  2  2  3  3  3
TYPE ASSIGNMENTS      4  4  4  2  3  4  2  3  4  2  3  4  5  6  7  8  9 10  5  6
TYPE ASSIGNMENTS      7  8  9 10  5  6  7  8  9 10 11 12 13 17 14 15 18 19 16 20
TYPE ASSIGNMENTS     11 12 13 17 14 15 18 19 16 20  1  1  1  1  1  1  2  3  4  2
TYPE ASSIGNMENTS      3  4  2  3  4  5  6  7  8  9 10  5  6  7  8  9 10  1  1  1
TYPE ASSIGNMENTS      1  1  1  2  3  4  2  3  4  2  3  4  5  6  7  8  9 10  5  6
TYPE ASSIGNMENTS      7  8  9 10  1  1  1  1  1  1  2  3  4  2  3  4  2  3  4  5
TYPE ASSIGNMENTS      6  7  8  9 10  5  6  7  8  9 10  1  1  1  1  1  1  2  3  4
TYPE ASSIGNMENTS      2  3  4  2  3  4  5  6  7  8  9 10  5  6  7  8  9 10
EXPONENTS  0.8236000D+04 0.1235000D+04 0.2808000D+03 0.7927000D+02 0.2559000D+02
EXPONENTS  0.8997000D+01 0.3319000D+01 0.3643000D+00 0.8236000D+04 0.1235000D+04
EXPONENTS  0.2808000D+03 0.7927000D+02 0.2559000D+02 0.8997000D+01 0.3319000D+01
EXPONENTS  0.3643000D+00 0.9059000D+00 0.1285000D+00 0.4402000D-01 0.1871000D+02
EXPONENTS  0.4133000D+01 0.1200000D+01 0.1871000D+02 0.4133000D+01 0.1200000D+01
EXPONENTS  0.1871000D+02 0.4133000D+01 0.1200000D+01 0.3827000D+00 0.3827000D+00
EXPONENTS  0.3827000D+00 0.1209000D+00 0.1209000D+00 0.1209000D+00 0.3569000D-01
EXPONENTS  0.3569000D-01 0.3569000D-01 0.1097000D+01 0.1097000D+01 0.1097000D+01
EXPONENTS  0.1097000D+01 0.1097000D+01 0.1097000D+01 0.3180000D+00 0.3180000D+00
EXPONENTS  0.3180000D+00 0.3180000D+00 0.3180000D+00 0.3180000D+00 0.1000000D+00
EXPONENTS  0.1000000D+00 0.1000000D+00 0.1000000D+00 0.1000000D+00 0.1000000D+00
EXPONENTS  0.7610000D+00 0.7610000D+00 0.7610000D+00 0.7610000D+00 0.7610000D+00
EXPONENTS  0.7610000D+00 0.7610000D+00 0.7610000D+00 0.7610000D+00 0.7610000D+00
EXPONENTS  0.2680000D+00 0.2680000D+00 0.2680000D+00 0.2680000D+00 0.2680000D+00
EXPONENTS  0.2680000D+00 0.2680000D+00 0.2680000D+00 0.2680000D+00 0.2680000D+00
EXPONENTS  0.1533000D+05 0.2299000D+04 0.5224000D+03 0.1473000D+03 0.4755000D+02
EXPONENTS  0.1676000D+02 0.6207000D+01 0.6882000D+00 0.1533000D+05 0.2299000D+04
EXPONENTS  0.5224000D+03 0.1473000D+03 0.4755000D+02 0.1676000D+02 0.6207000D+01
EXPONENTS  0.6882000D+00 0.1752000D+01 0.2384000D+00 0.7376000D-01 0.3446000D+02
EXPONENTS  0.7749000D+01 0.2280000D+01 0.3446000D+02 0.7749000D+01 0.2280000D+01
EXPONENTS  0.3446000D+02 0.7749000D+01 0.2280000D+01 0.7156000D+00 0.7156000D+00
EXPONENTS  0.7156000D+00 0.2140000D+00 0.2140000D+00 0.2140000D+00 0.5974000D-01
EXPONENTS  0.5974000D-01 0.5974000D-01 0.2314000D+01 0.2314000D+01 0.2314000D+01
EXPONENTS  0.2314000D+01 0.2314000D+01 0.2314000D+01 0.6450000D+00 0.6450000D+00
EXPONENTS  0.6450000D+00 0.6450000D+00 0.6450000D+00 0.6450000D+00 0.2140000D+00
EXPONENTS  0.2140000D+00 0.2140000D+00 0.2140000D+00 0.2140000D+00 0.2140000D+00
EXPONENTS  0.1428000D+01 0.1428000D+01 0.1428000D+01 0.1428000D+01 0.1428000D+01
EXPONENTS  0.1428000D+01 0.1428000D+01 0.1428000D+01 0.1428000D+01 0.1428000D+01
EXPONENTS  0.5000000D+00 0.5000000D+00 0.5000000D+00 0.5000000D+00 0.5000000D+00
EXPONENTS  0.5000000D+00 0.5000000D+00 0.5000000D+00 0.5000000D+00 0.5000000D+00
EXPONENTS  0.3387000D+02 0.5095000D+01 0.1159000D+01 0.3258000D+00 0.1027000D+00
EXPONENTS  0.2526000D-01 0.1407000D+01 0.1407000D+01 0.1407000D+01 0.3880000D+00
EXPONENTS  0.3880000D+00 0.3880000D+00 0.1020000D+00 0.1020000D+00 0.1020000D+00
EXPONENTS  0.1057000D+01 0.1057000D+01 0.1057000D+01 0.1057000D+01 0.1057000D+01
EXPONENTS  0.1057000D+01 0.2470000D+00 0.2470000D+00 0.2470000D+00 0.2470000D+00
EXPONENTS  0.2470000D+00 0.2470000D+00 0.3387000D+02 0.5095000D+01 0.1159000D+01
EXPONENTS  0.3258000D+00 0.1027000D+00 0.2526000D-01 0.1407000D+01 0.1407000D+01
EXPONENTS  0.1407000D+01 0.3880000D+00 0.3880000D+00 0.3880000D+00 0.1020000D+00
EXPONENTS  0.1020000D+00 0.1020000D+00 0.1057000D+01 0.1057000D+01 0.1057000D+01
EXPONENTS  0.1057000D+01 0.1057000D+01 0.1057000D+01 0.2470000D+00 0.2470000D+00
EXPONENTS  0.2470000D+00 0.2470000D+00 0.2470000D+00 0.2470000D+00 0.3387000D+02
EXPONENTS  0.5095000D+01 0.1159000D+01 0.3258000D+00 0.1027000D+00 0.2526000D-01
EXPONENTS  0.1407000D+01 0.1407000D+01 0.1407000D+01 0.3880000D+00 0.3880000D+00
EXPONENTS  0.3880000D+00 0.1020000D+00 0.1020000D+00 0.1020000D+00 0.1057000D+01
EXPONENTS  0.1057000D+01 0.1057000D+01 0.1057000D+01 0.1057000D+01 0.1057000D+01
EXPONENTS  0.2470000D+00 0.2470000D+00 0.2470000D+00 0.2470000D+00 0.2470000D+00
EXPONENTS  0.2470000D+00 0.3387000D+02 0.5095000D+01 0.1159000D+01 0.3258000D+00
EXPONENTS  0.1027000D+00 0.2526000D-01 0.1407000D+01 0.1407000D+01 0.1407000D+01
EXPONENTS  0.3880000D+00 0.3880000D+00 0.3880000D+00 0.1020000D+00 0.1020000D+00
EXPONENTS  0.1020000D+00 0.1057000D+01 0.1057000D+01 0.1057000D+01 0.1057000D+01
EXPONENTS  0.1057000D+01 0.1057000D+01 0.2470000D+00 0.2470000D+00 0.2470000D+00
EXPONENTS  0.2470000D+00 0.2470000D+00 0.2470000D+00
MO    1     MO 0.0        OCC NO =    2.0000000  ORB. ENERGY =  -18.757831
  0.30533875D-03  0.56922086D-03  0.96208353D-03  0.14463267D-02  0.17769794D-02
  0.15009432D-02  0.56610056D-03 -0.28016632D-05 -0.21769267D-03 -0.40758937D-03
 -0.69395577D-03 -0.10734441D-02 -0.14136881D-02 -0.14689125D-02 -0.93342792D-03
  0.62556169D-03 -0.18582055D-03  0.14841165D-03  0.23818579D-03  0.11242306D-03
  0.10540376D-03  0.75053757D-04  0.63752279D-03  0.59771814D-03  0.42561093D-03
 -0.88020682D-15 -0.82524984D-15 -0.58762705D-15 -0.49834002D-03 -0.26339327D-02
  0.36348901D-14  0.20140783D-04 -0.55549794D-03  0.37872537D-14 -0.33199582D-05
 -0.22692215D-04  0.46968007D-16 -0.67666204D-03  0.13914101D-02 -0.71474803D-03
  0.41876449D-03  0.35738764D-15  0.93520966D-15 -0.17003288D-03  0.47496235D-03
 -0.30492947D-03 -0.37648884D-03  0.27985518D-14  0.10472554D-14 -0.24165543D-04
  0.33014019D-04 -0.88484758D-05 -0.68498300D-04  0.59442810D-15  0.20877872D-16
  0.10379491D-03 -0.24002935D-03  0.10779573D-15 -0.19381264D-03  0.51236338D-03
  0.10245316D-15 -0.11757208D-03  0.20772467D-03 -0.42584036D-15  0.11393239D-14
 -0.14432081D-04  0.32118706D-04 -0.26700868D-16  0.85985306D-04  0.10492420D-04
 -0.45632847D-16 -0.42689065D-04 -0.10684854D-03  0.12573545D-15  0.51833532D-15
  0.49671039D+00  0.92580426D+00  0.15698573D+01  0.23760521D+01  0.29646193D+01
  0.25462126D+01  0.97754052D+00 -0.43725987D-02 -0.22369291D-04 -0.41954160D-04
 -0.71522646D-04 -0.11177597D-03 -0.14946577D-03 -0.15959460D-03 -0.97573009D-04
  0.64372745D-04  0.56446272D-01 -0.42266354D-03 -0.58078808D-03  0.55884465D-02
  0.54189133D-02  0.36555669D-02  0.52538982D-02  0.50945140D-02  0.34367290D-02
 -0.31426830D-15 -0.30473453D-15 -0.20557212D-15  0.15013350D-02 -0.18961003D-02
  0.34811504D-15 -0.16032917D-03 -0.12302248D-02 -0.72656866D-15  0.12482409D-04
 -0.78548720D-04  0.54230503D-16  0.15580889D-02  0.17944298D-02 -0.33525187D-02
 -0.35021853D-02  0.12515343D-15  0.29784784D-15  0.87275705D-03 -0.14139386D-02
  0.54118158D-03 -0.13325175D-03 -0.86406377D-16 -0.89984306D-16  0.60375620D-04
 -0.19228311D-03  0.13190749D-03  0.25658943D-04 -0.49877419D-16 -0.30976445D-15
  0.97332462D-03  0.49081149D-03 -0.11983023D-15 -0.93953832D-03 -0.23263717D-02
 -0.86004718D-16 -0.19804356D-02  0.85393723D-03  0.44549540D-15  0.77258280D-16
 -0.11744111D-03 -0.41546763D-03  0.64819205D-16 -0.40835558D-04  0.10499133D-02
  0.10083615D-16  0.39315889D-03  0.19648954D-03 -0.20454123D-15 -0.74060805D-16
 -0.14084862D-04 -0.25402629D-04 -0.37456162D-04  0.12450369D-03  0.15136931D-03
 -0.19100538D-04  0.20155708D-04 -0.70060416D-04  0.35451959D-16  0.73785502D-04
  0.15455084D-04  0.57865439D-15  0.41740037D-05 -0.87502785D-04  0.54052388D-15
  0.12260567D-03 -0.13087676D-03  0.82710933D-05  0.14737920D-03  0.27827959D-15
 -0.13286797D-15 -0.26658761D-05 -0.58195057D-05  0.84853818D-05 -0.13413131D-04
  0.25173757D-15 -0.92779330D-16  0.10794067D-04  0.19467544D-04  0.28704882D-04
  0.77700016D-03  0.32947778D-03  0.17147726D-04 -0.50137030D-04 -0.57819463D-04
 -0.72893393D-04 -0.24479299D-03 -0.12375275D-04 -0.44312966D-03 -0.23761955D-05
 -0.21222553D-04 -0.76128522D-04  0.69245692D-04 -0.31654197D-03  0.24729628D-03
 -0.90878947D-04  0.24600874D-03 -0.13232030D-03  0.94769200D-05 -0.38993337D-04
  0.29516417D-04  0.20976759D-05  0.20548017D-04  0.60896605D-04  0.10794067D-04
  0.19467544D-04  0.28704882D-04  0.77700016D-03  0.32947778D-03  0.17147726D-04
 -0.50137030D-04 -0.57819463D-04  0.72893393D-04 -0.24479299D-03 -0.12375275D-04
  0.44312966D-03 -0.23761955D-05 -0.21222553D-04  0.76128522D-04  0.69245692D-04
 -0.31654197D-03  0.24729628D-03 -0.90878947D-04 -0.24600874D-03  0.13232030D-03
  0.94769200D-05 -0.38993337D-04  0.29516417D-04  0.20976759D-05 -0.20548017D-04
 -0.60896605D-04  0.24077286D-03  0.43424377D-03  0.64029218D-03 -0.86230651D-03
 -0.67132066D-03 -0.49697824D-04  0.93317211D-03 -0.57260184D-03 -0.18319318D-16
  0.12193694D-02 -0.70652808D-03  0.95166030D-16  0.13370785D-03 -0.11986821D-03
 -0.83781054D-16 -0.21982727D-02  0.74870080D-03  0.14495719D-02  0.32467992D-02
 -0.12069843D-15  0.53344561D-17 -0.57686928D-04 -0.50522733D-05  0.62739201D-04
  0.12108211D-03  0.67474319D-17  0.14779324D-16
MO    2     MO 0.0        OCC NO =    2.0000000  ORB. ENERGY =   -9.925814
  0.33041581D+00  0.61597019D+00  0.10410981D+01  0.15651115D+01  0.19229203D+01
  0.16242136D+01  0.61259362D+00 -0.30317600D-02 -0.38403125D-02 -0.71902768D-02
 -0.12242061D-01 -0.18936608D-01 -0.24938846D-01 -0.25913058D-01 -0.16466585D-01
  0.11035523D-01  0.36442835D-01 -0.36263292D-02 -0.42671435D-03  0.10527056D-03
  0.98697842D-04  0.70278743D-04 -0.24333955D-02 -0.22814630D-02 -0.16245375D-02
  0.22740479D-14  0.21320645D-14  0.15181569D-14 -0.61361076D-03  0.24182752D-02
 -0.85896356D-14 -0.21990991D-03  0.55212237D-03 -0.11292396D-14 -0.46719263D-05
  0.13116685D-04 -0.23218529D-15  0.33877362D-03 -0.44855170D-03  0.10977808D-03
  0.26177919D-03 -0.22742508D-14 -0.25573457D-14  0.15293236D-03 -0.54775332D-03
  0.39482096D-03 -0.40497612D-03 -0.54007939D-14 -0.23345522D-14  0.22679143D-04
 -0.80931617D-04  0.58252474D-04  0.13347502D-04  0.17528084D-16 -0.13371068D-15
 -0.14181340D-02 -0.16005318D-02 -0.76439745D-16  0.26489394D-04  0.26968335D-02
 -0.43028062D-15  0.42279126D-02  0.21047621D-02  0.65959986D-15 -0.32915396D-14
  0.34424376D-03  0.34617190D-03 -0.95692042D-16  0.11162547D-04 -0.35219903D-03
 -0.31640203D-15 -0.10438938D-02 -0.68631668D-03  0.60347816D-15 -0.45217111D-15
  0.17463021D-03  0.32548824D-03  0.55192022D-03  0.83535695D-03  0.10422816D-02
  0.89518087D-03  0.34367734D-03 -0.15372898D-05 -0.15136389D-03 -0.28388672D-03
 -0.48396462D-03 -0.75634250D-03 -0.10113740D-02 -0.10799117D-02 -0.66023682D-03
  0.43558416D-03  0.33808939D-03  0.47032220D-02  0.11243771D-02 -0.70737643D-03
 -0.68591719D-03 -0.46271568D-03  0.10594141D-02  0.10272753D-02  0.69299383D-03
  0.21960957D-15  0.21294741D-15  0.14365306D-15  0.13926707D-02  0.11826046D-03
 -0.27546834D-15  0.11087943D-02  0.11896342D-02 -0.72621270D-15  0.22215169D-04
  0.88716387D-04  0.11344132D-15 -0.16278309D-02  0.24688783D-02 -0.84104741D-03
 -0.49301903D-03 -0.33854398D-15  0.77392430D-15  0.16587403D-02 -0.17875943D-02
  0.12885404D-03 -0.41237957D-04  0.18497682D-15 -0.52622575D-15  0.34016199D-03
 -0.31188377D-03 -0.28278216D-04  0.35401692D-03  0.60768673D-16 -0.39111919D-15
  0.85958798D-03 -0.58596318D-04 -0.18508718D-15 -0.71919141D-03 -0.12675379D-02
 -0.14375085D-15 -0.18595725D-02  0.14433268D-02  0.69901239D-15 -0.38754586D-15
  0.15915091D-03 -0.75244358D-03  0.53751630D-16 -0.84319369D-03  0.18398052D-02
  0.74809933D-16  0.36574096D-03  0.41752557D-03 -0.23606482D-15  0.38492254D-15
 -0.15284426D-04 -0.27566091D-04 -0.40646185D-04  0.38233689D-04 -0.36452289D-03
  0.18090621D-05 -0.22018932D-02  0.63756659D-03  0.33496904D-15 -0.30684816D-02
  0.42404296D-03 -0.89623562D-15 -0.25835370D-03  0.18823785D-03  0.51672635D-15
 -0.32275754D-02  0.16297716D-02  0.15978038D-02  0.26126658D-02 -0.80879660D-15
 -0.13017007D-15 -0.39269472D-03  0.23957786D-03  0.15311686D-03  0.50888869D-03
 -0.26460034D-16  0.10404901D-15  0.28983045D-04  0.52272115D-04  0.77075203D-04
  0.61251726D-03 -0.24093463D-03 -0.35275694D-05  0.88972196D-03  0.78116994D-03
  0.17368620D-02  0.13369239D-02  0.99113775D-03  0.21929183D-02  0.13776379D-03
  0.20323252D-03  0.15322974D-03  0.61705305D-03  0.10158468D-02 -0.16328998D-02
 -0.18159382D-02 -0.35486786D-02 -0.30811538D-02  0.63744391D-04  0.12434117D-03
 -0.18808556D-03 -0.32708340D-03 -0.42434133D-03 -0.46985391D-03  0.28983045D-04
  0.52272115D-04  0.77075203D-04  0.61251726D-03 -0.24093463D-03 -0.35275694D-05
  0.88972196D-03  0.78116994D-03 -0.17368620D-02  0.13369239D-02  0.99113775D-03
 -0.21929183D-02  0.13776379D-03  0.20323252D-03 -0.15322974D-03  0.61705305D-03
  0.10158468D-02 -0.16328998D-02 -0.18159382D-02  0.35486786D-02  0.30811538D-02
  0.63744391D-04  0.12434117D-03 -0.18808556D-03 -0.32708340D-03  0.42434133D-03
  0.46985391D-03  0.12363311D-03  0.22297740D-03  0.32878004D-03 -0.23813314D-02
  0.88625137D-04  0.31728733D-04  0.68941749D-03 -0.11098107D-02 -0.71726590D-16
  0.69953467D-03 -0.19848525D-02  0.44204766D-16 -0.50574023D-04 -0.44731629D-05
 -0.78576084D-16  0.81471079D-04 -0.58406721D-03  0.50259613D-03  0.24459220D-02
 -0.12595908D-15 -0.28001308D-15  0.29713366D-04 -0.32021094D-04  0.23077285D-05
  0.23416536D-03  0.45827328D-16  0.82088329D-16
MO    3     MO 0.0        OCC NO =    2.0000000  ORB. ENERGY =   -0.938525
 -0.47613771D-02 -0.88762895D-02 -0.15002493D-01 -0.22553661D-01 -0.27709778D-01
 -0.23405338D-01 -0.88276322D-02  0.43688444D-04 -0.18717418D-01 -0.35044913D-01
 -0.59666963D-01 -0.92295719D-01 -0.12155021D+00 -0.12629846D+00 -0.80257001D-01
  0.53786376D-01  0.25438929D-01 -0.88401296D-03 -0.74576372D-03  0.46494618D-02
  0.43591660D-02  0.31039859D-02 -0.13131130D+00 -0.12311269D+00 -0.87663566D-01
  0.38609864D-13  0.36199202D-13  0.25775988D-13  0.11770304D-02 -0.24189512D-01
 -0.17139404D-12 -0.27248564D-03  0.61948723D-04 -0.34250901D-12 -0.35202040D-04
  0.48902419D-04 -0.11193139D-13 -0.85625028D-02  0.17260034D-01 -0.86975309D-02
 -0.16176311D-02 -0.39374274D-14 -0.15065883D-13 -0.12089724D-02  0.28344053D-02
 -0.16254330D-02 -0.23115340D-03 -0.14722772D-12 -0.10108516D-12  0.61369692D-04
 -0.67561385D-04  0.61916930D-05 -0.26185847D-04 -0.44438461D-13 -0.14316352D-13
 -0.77255164D-03 -0.27609411D-02 -0.47766307D-14  0.37677063D-03  0.34186560D-02
 -0.16711328D-14  0.19408843D-02  0.48641672D-02  0.16001025D-13 -0.57814554D-13
  0.18786881D-03 -0.13125611D-03  0.20369511D-14 -0.85089628D-04  0.31947463D-03
  0.69192620D-14 -0.47851681D-03  0.74293704D-04 -0.13030115D-13 -0.41115861D-13
 -0.10332933D-01 -0.19259258D-01 -0.32657320D-01 -0.49428375D-01 -0.61672180D-01
 -0.52968178D-01 -0.20335513D-01  0.90961999D-04 -0.89860745D-01 -0.16853605D+00
 -0.28731702D+00 -0.44902058D+00 -0.60042608D+00 -0.64111507D+00 -0.39196518D+00
  0.25859482D+00  0.14512939D+00  0.67075921D-01  0.34175986D-02  0.25975043D+00
  0.25187054D+00  0.16991038D+00  0.18548199D+00  0.17985514D+00  0.12132921D+00
  0.14027768D-13  0.13602216D-13  0.91759748D-14  0.57541902D-01  0.47257979D-01
 -0.18751577D-13  0.35611145D-02  0.50825329D-02  0.47737918D-13  0.96859806D-04
 -0.29101962D-06 -0.28046898D-14  0.12780673D-01  0.14589431D-01 -0.27370104D-01
 -0.12331702D-01  0.51901646D-14  0.12708006D-13 -0.21225831D-03  0.87539051D-02
 -0.85416468D-02 -0.13459232D-02 -0.26987679D-14 -0.13769529D-13 -0.30103678D-03
  0.38882151D-03 -0.87784733D-04 -0.17071621D-04  0.34824357D-14  0.27563963D-13
  0.16872296D-02  0.72921946D-02  0.58254087D-14  0.32356388D-03 -0.12035456D-01
  0.66092461D-14 -0.53852526D-02 -0.98411276D-02 -0.24085472D-13  0.14330598D-14
 -0.48668151D-03  0.10249387D-02 -0.27498177D-14  0.15577714D-02 -0.16428033D-02
 -0.97236335D-15 -0.97726888D-04 -0.14320128D-02  0.92218165D-14 -0.18366049D-14
  0.34738400D-02  0.62652134D-02  0.92380536D-02  0.47990337D-02 -0.13745836D-03
 -0.51771763D-04  0.27586418D-02 -0.26510681D-02 -0.92542969D-14 -0.33784249D-03
 -0.13308271D-02 -0.20134756D-13 -0.11429086D-03  0.23006600D-04 -0.30559246D-13
 -0.12150233D-03  0.72581437D-03 -0.60431204D-03 -0.24658097D-02 -0.92707333D-14
  0.10694807D-13 -0.20497953D-03  0.82475888D-04  0.12250364D-03  0.29787756D-03
 -0.11236931D-13  0.56193287D-14  0.34069127D-02  0.61445073D-02  0.90600725D-02
  0.52016587D-02  0.77383552D-03  0.49121304D-04 -0.98569667D-03 -0.27164942D-02
 -0.20118561D-02  0.11794446D-03 -0.11919033D-02  0.34335479D-03 -0.14396854D-04
  0.64858614D-04  0.19387053D-04 -0.57113094D-03  0.10598979D-02 -0.48876700D-03
  0.93731671D-03  0.92505119D-05  0.19638208D-02  0.50301684D-04  0.94818859D-04
 -0.14512054D-03 -0.22099074D-03 -0.23431154D-03 -0.34397913D-03  0.34069127D-02
  0.61445073D-02  0.90600725D-02  0.52016587D-02  0.77383551D-03  0.49121304D-04
 -0.98569667D-03 -0.27164942D-02  0.20118561D-02  0.11794446D-03 -0.11919033D-02
 -0.34335479D-03 -0.14396853D-04  0.64858614D-04 -0.19387053D-04 -0.57113094D-03
  0.10598979D-02 -0.48876700D-03  0.93731671D-03 -0.92505118D-05 -0.19638208D-02
  0.50301684D-04  0.94818859D-04 -0.14512054D-03 -0.22099074D-03  0.23431154D-03
  0.34397913D-03  0.23245876D-01  0.41924894D-01  0.61818231D-01  0.23982318D-01
 -0.70467033D-03 -0.26137969D-04 -0.25825730D-01  0.13409681D-01  0.12939261D-14
 -0.41802254D-02  0.45178447D-02 -0.60534091D-14  0.33010983D-03  0.11749629D-03
  0.64201103D-14  0.40418890D-02 -0.91447279D-03 -0.31274162D-02 -0.90709194D-02
  0.55103201D-14  0.65834016D-15 -0.18768455D-03  0.27397648D-03 -0.86291936D-04
 -0.32685026D-03 -0.22169125D-15 -0.20049492D-14
MO    4     MO 0.0        OCC NO =    2.0000000  ORB. ENERGY =   -0.618758
 -0.91806811D-02 -0.17114877D-01 -0.28927157D-01 -0.43486992D-01 -0.53428794D-01
 -0.45129158D-01 -0.17021058D-01  0.84238166D-04 -0.47780162D-01 -0.89459540D-01
 -0.15231252D+00 -0.23560431D+00 -0.31028259D+00 -0.32240348D+00 -0.20487294D+00
  0.13730108D+00  0.65957941D-01  0.37760877D-01  0.95747659D-03 -0.30108068D-01
 -0.28228228D-01 -0.20100180D-01  0.62435854D-01  0.58537582D-01  0.41682246D-01
  0.90426550D-13  0.84780639D-13  0.60368865D-13 -0.72267568D-02  0.12865964D-01
 -0.40501937D-12 -0.19060752D-03  0.29407804D-02 -0.84011482D-12  0.24250359D-04
  0.41025490D-04 -0.14994220D-13  0.27795006D-02 -0.51173442D-02  0.23378436D-02
  0.63673175D-02  0.18890577D-14 -0.45616834D-13  0.11059048D-02 -0.81647138D-03
 -0.28943341D-03  0.17024710D-02 -0.38950148D-12 -0.21684605D-12  0.27928321D-04
 -0.76742390D-04  0.48814068D-04  0.12748757D-03 -0.13704534D-12 -0.17399693D-13
 -0.87664868D-03 -0.22502415D-02 -0.12223723D-13 -0.13905200D-02  0.23760200D-02
 -0.48740086D-14  0.40204661D-02  0.43747044D-02  0.41545179D-13 -0.14117388D-12
 -0.33250155D-03 -0.25694013D-03  0.56050444D-14 -0.12047489D-03  0.23878228D-03
  0.16692487D-13  0.11179795D-02  0.53203810D-03 -0.33507620D-13 -0.10655958D-12
  0.18928799D-02  0.35280846D-02  0.59824625D-02  0.90547356D-02  0.11297666D-01
  0.97031887D-02  0.37252428D-02 -0.16663240D-04  0.27109839D-01  0.50845174D-01
  0.86679876D-01  0.13546377D+00  0.18114088D+00  0.19341623D+00  0.11825089D+00
 -0.78014753D-01 -0.47059496D-01 -0.24429697D-01 -0.14264951D-02 -0.34382512D+00
 -0.33339471D+00 -0.22490610D+00  0.54064471D+00  0.52424351D+00  0.35365157D+00
  0.36517613D-13  0.35409801D-13  0.23887243D-13 -0.72560762D-01  0.11591192D+00
 -0.53657892D-13 -0.58106248D-02  0.10007238D-01  0.13942736D-12 -0.14921472D-03
  0.45277557D-04 -0.15185925D-13 -0.29778300D-01  0.28768994D-01  0.10093055D-02
  0.26392933D-01  0.49207996D-14  0.14359292D-13 -0.73715336D-02  0.80268836D-02
 -0.65535001D-03  0.25534136D-02 -0.88395695D-15 -0.21510828D-13 -0.25783475D-03
  0.37352749D-03 -0.11569274D-03 -0.59677774D-03  0.83665593D-14  0.70123735D-13
 -0.12871677D-04  0.36476815D-02  0.14209313D-13 -0.52764945D-02 -0.20224816D-03
  0.17196073D-13  0.53151095D-02 -0.10740796D-01 -0.59824013D-13  0.79868968D-14
 -0.42532894D-03  0.69850051D-03 -0.81992414D-14  0.12201425D-02 -0.18400891D-02
 -0.15406809D-14  0.55844300D-04 -0.25541245D-03  0.26138405D-13 -0.76507774D-14
  0.22122226D-01  0.39898345D-01  0.58830087D-01  0.24787939D-01 -0.45893416D-03
 -0.18845532D-04  0.17735745D-01 -0.53564447D-02 -0.12658591D-13  0.17501971D-02
  0.77904371D-03 -0.76527483D-13 -0.46962568D-03  0.30449061D-03 -0.12089445D-12
  0.32339490D-02 -0.12258032D-02 -0.20081457D-02 -0.32995788D-02 -0.31983751D-13
  0.23389861D-13 -0.72472909D-04 -0.17398115D-03  0.24645406D-03  0.10362261D-03
 -0.41554209D-13  0.16273886D-13  0.20017894D-01  0.36103097D-01  0.53233995D-01
  0.23173638D-01 -0.11815765D-02 -0.10729326D-03 -0.77654891D-02 -0.48123761D-02
 -0.13403550D-01 -0.14647854D-02 -0.18778683D-03 -0.15913056D-02  0.19685387D-03
  0.18775099D-03  0.50756629D-03 -0.67813239D-03 -0.77827952D-03  0.14564119D-02
  0.19147503D-02  0.39637735D-02  0.25355326D-02  0.14416256D-03 -0.60028038D-04
 -0.84134526D-04  0.42425851D-04 -0.16206046D-03 -0.48044345D-04  0.20017894D-01
  0.36103097D-01  0.53233995D-01  0.23173638D-01 -0.11815765D-02 -0.10729326D-03
 -0.77654891D-02 -0.48123761D-02  0.13403550D-01 -0.14647854D-02 -0.18778683D-03
  0.15913056D-02  0.19685387D-03  0.18775099D-03 -0.50756629D-03 -0.67813239D-03
 -0.77827952D-03  0.14564119D-02  0.19147503D-02 -0.39637735D-02 -0.25355326D-02
  0.14416256D-03 -0.60028038D-04 -0.84134526D-04  0.42425851D-04  0.16206046D-03
  0.48044345D-04 -0.21291504D-01 -0.38400104D-01 -0.56620931D-01 -0.31690149D-01
 -0.81994844D-03  0.11837109D-03  0.21427239D-01 -0.19988703D-02  0.31965079D-14
  0.71215185D-02  0.24994186D-02 -0.19910617D-13 -0.70867862D-04  0.58152321D-03
  0.26043786D-13 -0.78781741D-02  0.47475686D-02  0.31306055D-02  0.21259729D-02
  0.18684941D-13 -0.32974647D-14 -0.37204125D-03  0.47178598D-03 -0.99744727D-04
 -0.46199460D-03 -0.63644393D-15 -0.17468982D-14
MO    5     MO 0.0        OCC NO =    2.0000000  ORB. ENERGY =   -0.461344
 -0.14529080D-02 -0.27085508D-02 -0.45779280D-02 -0.68821253D-02 -0.84554861D-02
 -0.71420097D-02 -0.26937033D-02  0.13331288D-04 -0.94229583D-02 -0.17642751D-01
 -0.30038293D-01 -0.46464672D-01 -0.61192339D-01 -0.63582760D-01 -0.40403990D-01
  0.27077814D-01  0.11574080D-01  0.18916598D-01  0.21078374D-02  0.22041509D+00
  0.20665316D+00  0.14714936D+00  0.32020429D+00  0.30021188D+00  0.21376874D+00
  0.21958754D-13  0.20587728D-13  0.14659689D-13  0.50136863D-01  0.64551697D-01
 -0.98643117D-13  0.61433245D-02  0.45320819D-02 -0.20661723D-12 -0.31860807D-04
 -0.86790977D-04 -0.75502378D-15  0.48543445D-02 -0.19188310D-01  0.14333966D-01
 -0.13917928D-01  0.46608994D-14 -0.12701015D-13  0.41776829D-03 -0.26440616D-02
  0.22262934D-02 -0.66050396D-02 -0.10994697D-12 -0.51105528D-13  0.22223307D-04
  0.13550566D-03 -0.15772897D-03  0.10288095D-03 -0.41391747D-13 -0.17557625D-14
 -0.15292702D-02  0.13078146D-02 -0.32634353D-14  0.63578519D-02 -0.11987019D-02
 -0.14469724D-14 -0.17700412D-02 -0.27247418D-02  0.11237278D-13 -0.37184500D-13
 -0.38267478D-03 -0.19011782D-04  0.18616626D-14  0.53133003D-03 -0.11473702D-04
  0.31302927D-14  0.61669432D-03  0.68509047D-04 -0.87152806D-14 -0.29450351D-13
  0.29575791D-03  0.55125470D-03  0.93474531D-03  0.14147806D-02  0.17652331D-02
  0.15160998D-02  0.58206019D-03 -0.26035909D-05  0.19342329D-01  0.36277018D-01
  0.61844363D-01  0.96650701D-01  0.12924040D+00  0.13799862D+00  0.84369650D-01
 -0.55661971D-01 -0.29432305D-01 -0.46250248D-01 -0.69217666D-02  0.93748193D+00
  0.90904212D+00  0.61323444D+00 -0.75045224D+00 -0.72768623D+00 -0.49089283D+00
  0.10923891D-13  0.10592499D-13  0.71456374D-14  0.19700085D+00 -0.16620139D+00
 -0.13967520D-13  0.15316280D-01 -0.19228472D-01  0.37874550D-13  0.33129306D-03
 -0.57052638D-03 -0.58638110D-14  0.46272705D-01 -0.38605560D-01 -0.76671441D-02
 -0.14045431D-01  0.14986748D-14  0.12644650D-14  0.10238716D-01 -0.13586698D-01
  0.33479815D-02  0.78739009D-02  0.53603018D-16 -0.39655979D-14 -0.72979581D-03
 -0.32607856D-03  0.10558744D-02  0.14818012D-02  0.29681292D-14  0.17892714D-13
 -0.15683568D-02 -0.70485440D-02  0.40346799D-14  0.15973145D-01  0.34010347D-02
  0.39573336D-14 -0.11268075D-01  0.17744597D-01 -0.16061373D-13  0.22517403D-14
  0.30179482D-03 -0.17970823D-02 -0.25453262D-14 -0.73204721D-03  0.39521775D-02
  0.33646709D-15 -0.17333724D-03  0.14390693D-02  0.72995114D-14 -0.23171880D-14
 -0.15194165D-02 -0.27403302D-02 -0.40406153D-02 -0.49827294D-02  0.21110398D-02
 -0.15534640D-03  0.12032843D-02  0.87775645D-02 -0.92146151D-15  0.13215872D-02
  0.29997193D-02 -0.26522318D-13  0.48570944D-03 -0.32616463D-03 -0.41389229D-13
  0.20353466D-02 -0.25225522D-02  0.48720559D-03  0.63015468D-02 -0.11276029D-13
  0.48027248D-14 -0.88345589D-04  0.19332468D-03 -0.10497909D-03 -0.47645494D-03
 -0.14151344D-13  0.52720166D-14  0.19676788D-01  0.35487898D-01  0.52326885D-01
  0.28140450D-01  0.19858726D-02  0.83962169D-04 -0.40996930D-02 -0.18395728D-02
 -0.14832298D-01  0.96801945D-03  0.20789287D-02 -0.37326009D-02  0.15878943D-03
 -0.11852149D-03  0.48594939D-03 -0.10792486D-02 -0.27520981D-02  0.38313466D-02
 -0.15491336D-02  0.29762163D-02  0.80453532D-03 -0.54413816D-04 -0.48495651D-04
  0.10290947D-03 -0.19762123D-03 -0.15163844D-03  0.13017265D-03  0.19676788D-01
  0.35487898D-01  0.52326885D-01  0.28140450D-01  0.19858726D-02  0.83962169D-04
 -0.40996930D-02 -0.18395728D-02  0.14832298D-01  0.96801945D-03  0.20789287D-02
  0.37326009D-02  0.15878943D-03 -0.11852149D-03 -0.48594939D-03 -0.10792486D-02
 -0.27520981D-02  0.38313466D-02 -0.15491336D-02 -0.29762163D-02 -0.80453532D-03
 -0.54413816D-04 -0.48495651D-04  0.10290947D-03 -0.19762123D-03  0.15163844D-03
 -0.13017265D-03  0.32072192D-01  0.57843518D-01  0.85290234D-01  0.71396105D-01
  0.92543967D-02 -0.21090400D-03 -0.24399178D-01  0.42150352D-02  0.10789929D-14
 -0.13332204D-01  0.26627284D-02 -0.68034039D-14  0.94220486D-04 -0.23128931D-03
  0.90999684D-14  0.99897278D-02 -0.44536265D-02 -0.55361013D-02 -0.48608637D-02
  0.58242737D-14 -0.26001720D-14  0.26874151D-03 -0.39940424D-03  0.13066273D-03
  0.53080397D-03 -0.26622217D-15  0.64094544D-15
MO    6     MO 0.0        OCC NO =    2.0000000  ORB. ENERGY =   -0.390847
 -0.90473591D-14 -0.16866334D-13 -0.28507076D-13 -0.42855474D-13 -0.52652901D-13
 -0.44473792D-13 -0.16773878D-13  0.83014859D-16  0.79631055D-14  0.14909446D-13
  0.25384608D-13  0.39266128D-13  0.51712109D-13  0.53732194D-13  0.34144397D-13
 -0.22882781D-13 -0.18306267D-12  0.25558332D-11  0.21944448D-12 -0.22404051D-13
 -0.21005222D-13 -0.14956969D-13 -0.57072310D-14 -0.53508919D-14 -0.38101538D-14
  0.52019263D+00  0.48771365D+00  0.34728118D+00  0.16455688D-13  0.14542338D-12
  0.12025363D+00 -0.63251817D-13  0.10115422D-12  0.10797163D-01 -0.23631114D-14
  0.46093191D-14  0.89216864D-04  0.85314993D-14 -0.18878369D-13  0.10346869D-13
 -0.92743097D-14  0.27489834D-01  0.25813713D-02  0.47527854D-13 -0.10990948D-12
  0.62381628D-13  0.36714015D-13  0.51953594D-02 -0.74534940D-03  0.11987767D-13
 -0.12320063D-13  0.33229609D-15 -0.22539593D-13 -0.53936986D-03  0.91511775D-03
 -0.40701956D-13 -0.26036060D-13 -0.17826928D-02  0.11696518D-13  0.20632005D-13
 -0.10760413D-02  0.11040935D-12  0.57476175D-13  0.64241198D-02  0.10759968D-03
 -0.38152229D-13 -0.31287219D-13 -0.91825789D-04 -0.49705143D-14  0.35062264D-13
  0.49747996D-03  0.11942720D-12  0.58799394D-13 -0.22200259D-03 -0.15444119D-03
  0.14753755D-13  0.27499100D-13  0.46629363D-13  0.70575712D-13  0.88057883D-13
  0.75629978D-13  0.29035819D-13 -0.12987900D-15 -0.11231792D-13 -0.21065503D-13
 -0.35912065D-13 -0.56123568D-13 -0.75047904D-13 -0.80133665D-13 -0.48992151D-13
  0.32322046D-13  0.12430389D-13 -0.37917621D-12  0.88194312D-13  0.45249281D-14
  0.43876581D-14  0.29598883D-14 -0.50286143D-13 -0.48760643D-13 -0.32893642D-13
  0.72094495D+00  0.69907409D+00  0.47159125D+00 -0.63823462D-13  0.33676987D-13