 Molden2AIM, Version 4.0.0 (06/02/2016)           Time: Fri Jun 29 05:22:51 2018
GAUSSIAN             13 MOL ORBITALS    368 PRIMITIVES        8 NUCLEI
  C    1    (CENTRE  1)   0.00000000  0.00000756 -0.60888299  CHARGE =  6.0
  Si   2    (CENTRE  2)   0.00000000  0.00001134  2.95686014  CHARGE = 14.0
  H    3    (CENTRE  3)   2.29579803  1.32548414  3.95624558  CHARGE =  1.0
  H    4    (CENTRE  4)  -2.29579803  1.32548414  3.95624558  CHARGE =  1.0
  H    5    (CENTRE  5)   0.00000000 -2.65095127  3.95622479  CHARGE =  1.0
  H    6    (CENTRE  6)   0.00000000  1.94133077 -1.34494832  CHARGE =  1.0
  H    7    (CENTRE  7)  -1.68124020 -0.97066349 -1.34492186  CHARGE =  1.0
  H    8    (CENTRE  8)   1.68124020 -0.97066349 -1.34492186  CHARGE =  1.0
CENTRE ASSIGNMENTS    1  1  1  1  1  1  1  1  1  1  1  1  1  1  1  1  1  1  1  1
CENTRE ASSIGNMENTS    1  1  1  1  1  1  1  1  1  1  1  1  1  1  1  1  1  1  1  1
CENTRE ASSIGNMENTS    1  1  1  1  1  1  1  1  1  1  1  1  1  1  1  1  1  1  1  1
CENTRE ASSIGNMENTS    1  1  1  1  1  1  1  1  1  1  1  1  1  1  1  2  2  2  2  2
CENTRE ASSIGNMENTS    2  2  2  2  2  2  2  2  2  2  2  2  2  2  2  2  2  2  2  2
CENTRE ASSIGNMENTS    2  2  2  2  2  2  2  2  2  2  2  2  2  2  2  2  2  2  2  2
CENTRE ASSIGNMENTS    2  2  2  2  2  2  2  2  2  2  2  2  2  2  2  2  2  2  2  2
CENTRE ASSIGNMENTS    2  2  2  2  2  2  2  2  2  2  2  2  2  2  2  2  2  2  2  2
CENTRE ASSIGNMENTS    2  2  2  2  2  2  2  2  2  2  2  2  2  2  2  2  2  2  2  2
CENTRE ASSIGNMENTS    2  2  2  2  2  2  2  2  2  2  2  2  2  2  2  2  2  2  2  2
CENTRE ASSIGNMENTS    2  2  2  2  2  2  3  3  3  3  3  3  3  3  3  3  3  3  3  3
CENTRE ASSIGNMENTS    3  3  3  3  3  3  3  3  3  3  3  3  3  4  4  4  4  4  4  4
CENTRE ASSIGNMENTS    4  4  4  4  4  4  4  4  4  4  4  4  4  4  4  4  4  4  4  4
CENTRE ASSIGNMENTS    5  5  5  5  5  5  5  5  5  5  5  5  5  5  5  5  5  5  5  5
CENTRE ASSIGNMENTS    5  5  5  5  5  5  5  6  6  6  6  6  6  6  6  6  6  6  6  6
CENTRE ASSIGNMENTS    6  6  6  6  6  6  6  6  6  6  6  6  6  6  7  7  7  7  7  7
CENTRE ASSIGNMENTS    7  7  7  7  7  7  7  7  7  7  7  7  7  7  7  7  7  7  7  7
CENTRE ASSIGNMENTS    7  8  8  8  8  8  8  8  8  8  8  8  8  8  8  8  8  8  8  8
CENTRE ASSIGNMENTS    8  8  8  8  8  8  8  8
TYPE ASSIGNMENTS      1  1  1  1  1  1  1  1  1  1  1  1  1  1  1  1  1  1  1  2
TYPE ASSIGNMENTS      2  2  3  3  3  4  4  4  2  3  4  2  3  4  2  3  4  5  6  7
TYPE ASSIGNMENTS      8  9 10  5  6  7  8  9 10  5  6  7  8  9 10 11 12 13 17 14
TYPE ASSIGNMENTS     15 18 19 16 20 11 12 13 17 14 15 18 19 16 20  1  1  1  1  1
TYPE ASSIGNMENTS      1  1  1  1  1  1  1  1  1  1  1  1  1  1  1  1  1  1  1  1
TYPE ASSIGNMENTS      1  1  1  1  1  1  1  1  1  1  1  1  1  1  1  1  1  2  2  2
TYPE ASSIGNMENTS      2  2  2  2  3  3  3  3  3  3  3  4  4  4  4  4  4  4  2  2
TYPE ASSIGNMENTS      2  2  2  2  2  3  3  3  3  3  3  3  4  4  4  4  4  4  4  2
TYPE ASSIGNMENTS      3  4  2  3  4  2  3  4  5  6  7  8  9 10  5  6  7  8  9 10
TYPE ASSIGNMENTS      5  6  7  8  9 10 11 12 13 17 14 15 18 19 16 20 11 12 13 17
TYPE ASSIGNMENTS     14 15 18 19 16 20  1  1  1  1  1  1  2  3  4  2  3  4  2  3
TYPE ASSIGNMENTS      4  5  6  7  8  9 10  5  6  7  8  9 10  1  1  1  1  1  1  2
TYPE ASSIGNMENTS      3  4  2  3  4  2  3  4  5  6  7  8  9 10  5  6  7  8  9 10
TYPE ASSIGNMENTS      1  1  1  1  1  1  2  3  4  2  3  4  2  3  4  5  6  7  8  9
TYPE ASSIGNMENTS     10  5  6  7  8  9 10  1  1  1  1  1  1  2  3  4  2  3  4  2
TYPE ASSIGNMENTS      3  4  5  6  7  8  9 10  5  6  7  8  9 10  1  1  1  1  1  1
TYPE ASSIGNMENTS      2  3  4  2  3  4  2  3  4  5  6  7  8  9 10  5  6  7  8  9
TYPE ASSIGNMENTS     10  1  1  1  1  1  1  2  3  4  2  3  4  2  3  4  5  6  7  8
TYPE ASSIGNMENTS      9 10  5  6  7  8  9 10
EXPONENTS  0.8236000D+04 0.1235000D+04 0.2808000D+03 0.7927000D+02 0.2559000D+02
EXPONENTS  0.8997000D+01 0.3319000D+01 0.3643000D+00 0.8236000D+04 0.1235000D+04
EXPONENTS  0.2808000D+03 0.7927000D+02 0.2559000D+02 0.8997000D+01 0.3319000D+01
EXPONENTS  0.3643000D+00 0.9059000D+00 0.1285000D+00 0.4402000D-01 0.1871000D+02
EXPONENTS  0.4133000D+01 0.1200000D+01 0.1871000D+02 0.4133000D+01 0.1200000D+01
EXPONENTS  0.1871000D+02 0.4133000D+01 0.1200000D+01 0.3827000D+00 0.3827000D+00
EXPONENTS  0.3827000D+00 0.1209000D+00 0.1209000D+00 0.1209000D+00 0.3569000D-01
EXPONENTS  0.3569000D-01 0.3569000D-01 0.1097000D+01 0.1097000D+01 0.1097000D+01
EXPONENTS  0.1097000D+01 0.1097000D+01 0.1097000D+01 0.3180000D+00 0.3180000D+00
EXPONENTS  0.3180000D+00 0.3180000D+00 0.3180000D+00 0.3180000D+00 0.1000000D+00
EXPONENTS  0.1000000D+00 0.1000000D+00 0.1000000D+00 0.1000000D+00 0.1000000D+00
EXPONENTS  0.7610000D+00 0.7610000D+00 0.7610000D+00 0.7610000D+00 0.7610000D+00
EXPONENTS  0.7610000D+00 0.7610000D+00 0.7610000D+00 0.7610000D+00 0.7610000D+00
EXPONENTS  0.2680000D+00 0.2680000D+00 0.2680000D+00 0.2680000D+00 0.2680000D+00
EXPONENTS  0.2680000D+00 0.2680000D+00 0.2680000D+00 0.2680000D+00 0.2680000D+00
EXPONENTS  0.2549000D+06 0.3819000D+05 0.8690000D+04 0.2462000D+04 0.8048000D+03
EXPONENTS  0.2913000D+03 0.1136000D+03 0.4675000D+02 0.1982000D+02 0.7708000D+01
EXPONENTS  0.3340000D+01 0.1402000D+01 0.2070000D+00 0.2549000D+06 0.3819000D+05
EXPONENTS  0.8690000D+04 0.2462000D+04 0.8048000D+03 0.2913000D+03 0.1136000D+03
EXPONENTS  0.4675000D+02 0.1982000D+02 0.7708000D+01 0.3340000D+01 0.1402000D+01
EXPONENTS  0.2070000D+00 0.2549000D+06 0.3819000D+05 0.8690000D+04 0.2462000D+04
EXPONENTS  0.8048000D+03 0.2913000D+03 0.1136000D+03 0.4675000D+02 0.1982000D+02
EXPONENTS  0.7708000D+01 0.3340000D+01 0.1402000D+01 0.2070000D+00 0.4387000D+00
EXPONENTS  0.7944000D-01 0.3300000D-01 0.4815000D+03 0.1139000D+03 0.3623000D+02
EXPONENTS  0.1334000D+02 0.5252000D+01 0.2120000D+01 0.2528000D+00 0.4815000D+03
EXPONENTS  0.1139000D+03 0.3623000D+02 0.1334000D+02 0.5252000D+01 0.2120000D+01
EXPONENTS  0.2528000D+00 0.4815000D+03 0.1139000D+03 0.3623000D+02 0.1334000D+02
EXPONENTS  0.5252000D+01 0.2120000D+01 0.2528000D+00 0.4815000D+03 0.1139000D+03
EXPONENTS  0.3623000D+02 0.1334000D+02 0.5252000D+01 0.2120000D+01 0.2528000D+00
EXPONENTS  0.4815000D+03 0.1139000D+03 0.3623000D+02 0.1334000D+02 0.5252000D+01
EXPONENTS  0.2120000D+01 0.2528000D+00 0.4815000D+03 0.1139000D+03 0.3623000D+02
EXPONENTS  0.1334000D+02 0.5252000D+01 0.2120000D+01 0.2528000D+00 0.8561000D+00
EXPONENTS  0.8561000D+00 0.8561000D+00 0.7889000D-01 0.7889000D-01 0.7889000D-01
EXPONENTS  0.2370000D-01 0.2370000D-01 0.2370000D-01 0.1590000D+00 0.1590000D+00
EXPONENTS  0.1590000D+00 0.1590000D+00 0.1590000D+00 0.1590000D+00 0.4810000D+00
EXPONENTS  0.4810000D+00 0.4810000D+00 0.4810000D+00 0.4810000D+00 0.4810000D+00
EXPONENTS  0.5560000D-01 0.5560000D-01 0.5560000D-01 0.5560000D-01 0.5560000D-01
EXPONENTS  0.5560000D-01 0.3360000D+00 0.3360000D+00 0.3360000D+00 0.3360000D+00
EXPONENTS  0.3360000D+00 0.3360000D+00 0.3360000D+00 0.3360000D+00 0.3360000D+00
EXPONENTS  0.3360000D+00 0.1250000D+00 0.1250000D+00 0.1250000D+00 0.1250000D+00
EXPONENTS  0.1250000D+00 0.1250000D+00 0.1250000D+00 0.1250000D+00 0.1250000D+00
EXPONENTS  0.1250000D+00 0.3387000D+02 0.5095000D+01 0.1159000D+01 0.3258000D+00
EXPONENTS  0.1027000D+00 0.2526000D-01 0.1407000D+01 0.1407000D+01 0.1407000D+01
EXPONENTS  0.3880000D+00 0.3880000D+00 0.3880000D+00 0.1020000D+00 0.1020000D+00
EXPONENTS  0.1020000D+00 0.1057000D+01 0.1057000D+01 0.1057000D+01 0.1057000D+01
EXPONENTS  0.1057000D+01 0.1057000D+01 0.2470000D+00 0.2470000D+00 0.2470000D+00
EXPONENTS  0.2470000D+00 0.2470000D+00 0.2470000D+00 0.3387000D+02 0.5095000D+01
EXPONENTS  0.1159000D+01 0.3258000D+00 0.1027000D+00 0.2526000D-01 0.1407000D+01
EXPONENTS  0.1407000D+01 0.1407000D+01 0.3880000D+00 0.3880000D+00 0.3880000D+00
EXPONENTS  0.1020000D+00 0.1020000D+00 0.1020000D+00 0.1057000D+01 0.1057000D+01
EXPONENTS  0.1057000D+01 0.1057000D+01 0.1057000D+01 0.1057000D+01 0.2470000D+00
EXPONENTS  0.2470000D+00 0.2470000D+00 0.2470000D+00 0.2470000D+00 0.2470000D+00
EXPONENTS  0.3387000D+02 0.5095000D+01 0.1159000D+01 0.3258000D+00 0.1027000D+00
EXPONENTS  0.2526000D-01 0.1407000D+01 0.1407000D+01 0.1407000D+01 0.3880000D+00
EXPONENTS  0.3880000D+00 0.3880000D+00 0.1020000D+00 0.1020000D+00 0.1020000D+00
EXPONENTS  0.1057000D+01 0.1057000D+01 0.1057000D+01 0.1057000D+01 0.1057000D+01
EXPONENTS  0.1057000D+01 0.2470000D+00 0.2470000D+00 0.2470000D+00 0.2470000D+00
EXPONENTS  0.2470000D+00 0.2470000D+00 0.3387000D+02 0.5095000D+01 0.1159000D+01
EXPONENTS  0.3258000D+00 0.1027000D+00 0.2526000D-01 0.1407000D+01 0.1407000D+01
EXPONENTS  0.1407000D+01 0.3880000D+00 0.3880000D+00 0.3880000D+00 0.1020000D+00
EXPONENTS  0.1020000D+00 0.1020000D+00 0.1057000D+01 0.1057000D+01 0.1057000D+01
EXPONENTS  0.1057000D+01 0.1057000D+01 0.1057000D+01 0.2470000D+00 0.2470000D+00
EXPONENTS  0.2470000D+00 0.2470000D+00 0.2470000D+00 0.2470000D+00 0.3387000D+02
EXPONENTS  0.5095000D+01 0.1159000D+01 0.3258000D+00 0.1027000D+00 0.2526000D-01
EXPONENTS  0.1407000D+01 0.1407000D+01 0.1407000D+01 0.3880000D+00 0.3880000D+00
EXPONENTS  0.3880000D+00 0.1020000D+00 0.1020000D+00 0.1020000D+00 0.1057000D+01
EXPONENTS  0.1057000D+01 0.1057000D+01 0.1057000D+01 0.1057000D+01 0.1057000D+01
EXPONENTS  0.2470000D+00 0.2470000D+00 0.2470000D+00 0.2470000D+00 0.2470000D+00
EXPONENTS  0.2470000D+00 0.3387000D+02 0.5095000D+01 0.1159000D+01 0.3258000D+00
EXPONENTS  0.1027000D+00 0.2526000D-01 0.1407000D+01 0.1407000D+01 0.1407000D+01
EXPONENTS  0.3880000D+00 0.3880000D+00 0.3880000D+00 0.1020000D+00 0.1020000D+00
EXPONENTS  0.1020000D+00 0.1057000D+01 0.1057000D+01 0.1057000D+01 0.1057000D+01
EXPONENTS  0.1057000D+01 0.1057000D+01 0.2470000D+00 0.2470000D+00 0.2470000D+00
EXPONENTS  0.2470000D+00 0.2470000D+00 0.2470000D+00
MO    1     MO 0.0        OCC NO =    2.0000000  ORB. ENERGY =  -65.415646
  0.12317292D-03  0.22962233D-03  0.38810219D-03  0.58344471D-03  0.71682924D-03
  0.60547689D-03  0.22836360D-03 -0.11301842D-05 -0.89315468D-04 -0.16722674D-03
 -0.28471783D-03 -0.44041519D-03 -0.58001131D-03 -0.60266890D-03 -0.38296903D-03
  0.25665694D-03  0.18116881D-03  0.24983770D-03 -0.14062294D-03  0.35015563D-15
  0.32829316D-15  0.23376429D-15  0.17687839D-08  0.16583473D-08  0.11808421D-08
  0.26783395D-03  0.25111136D-03  0.17880624D-03 -0.13975686D-14  0.82593996D-09
 -0.11036085D-03 -0.42302943D-14 -0.49766538D-08  0.93572115D-03  0.26033739D-16
 -0.26018977D-09 -0.21182399D-04 -0.10139298D-03 -0.10139191D-03  0.20278489D-03
 -0.39831294D-15  0.70593028D-15  0.13963711D-08  0.16397648D-03  0.16398094D-03
 -0.32795742D-03  0.17797102D-14  0.29113194D-15 -0.31312239D-08 -0.15810210D-04
 -0.15808075D-04  0.31618285D-04  0.60081033D-15  0.10611689D-15  0.11016447D-07
 -0.46171867D-16  0.90047700D-04 -0.62650198D-05 -0.38676681D-16 -0.27014183D-03
  0.93984583D-05  0.17719228D-15 -0.12746894D-08  0.93966009D-05 -0.64579194D-15
  0.17600650D-16 -0.10210723D-04 -0.91352678D-04 -0.93626209D-17  0.30634924D-04
  0.13703088D-03 -0.43439330D-16 -0.27562622D-08  0.13702715D-03 -0.33133732D-15
  0.50700987D+00  0.94839168D+00  0.16378298D+01  0.26455221D+01  0.39841018D+01
  0.54183596D+01  0.61682531D+01  0.49971309D+01  0.20284342D+01  0.18496529D+00
 -0.71082574D-02  0.23769501D-02  0.13338905D-03 -0.30860623D-02 -0.57762590D-02
 -0.99902621D-02 -0.16237365D-01 -0.24843036D-01 -0.35253985D-01 -0.44223197D-01
 -0.45089380D-01 -0.27703812D-01  0.60378191D-02  0.22115638D-01  0.10114914D-01
 -0.53690519D-04  0.16367924D-02  0.30613733D-02  0.53014690D-02  0.86077157D-02
  0.13212669D-01  0.18768008D-01  0.23810195D-01  0.24649985D-01  0.15877585D-01
 -0.39051747D-02 -0.15918694D-01 -0.13883871D-01  0.70759435D-02 -0.28499672D-02
 -0.11573500D-01  0.52181776D-03 -0.19833615D-13 -0.26161560D-13 -0.29059067D-13
 -0.24870465D-13 -0.14210784D-13 -0.46117092D-14 -0.32472375D-17 -0.46883161D-07
 -0.61841306D-07 -0.68690499D-07 -0.58789385D-07 -0.33591782D-07 -0.10901266D-07
 -0.76758958D-11  0.86964003D-03  0.11471000D-02  0.12741463D-02  0.10904897D-02
  0.62309704D-03  0.20220857D-03  0.14238089D-06  0.16856842D-13  0.23051514D-13
  0.25059318D-13  0.23003143D-13  0.12537647D-13  0.52906464D-14 -0.18246798D-14
  0.43087959D-07  0.58922230D-07  0.64054399D-07  0.58798589D-07  0.32047618D-07
  0.13523479D-07 -0.46640840D-08 -0.68851102D-03 -0.94152997D-03 -0.10235379D-02
 -0.93955428D-03 -0.51209524D-03 -0.21609435D-03  0.74528322D-04  0.87742920D-15
  0.83843306D-10 -0.12973338D-03 -0.28653719D-14  0.78166856D-08  0.18450207D-04
 -0.22537254D-15 -0.35273222D-09  0.23261061D-05  0.72349052D-04  0.72349991D-04
 -0.14469904D-03 -0.13514499D-14 -0.87371810D-15  0.57307366D-09 -0.50520210D-05
 -0.50515827D-05  0.10103604D-04 -0.59118391D-15 -0.45631828D-15  0.39399190D-08
  0.16641501D-05  0.16647778D-05 -0.33289279D-05 -0.18546241D-15  0.75311779D-17
 -0.50969798D-09 -0.87191016D-16 -0.16568436D-03 -0.18554133D-03 -0.56429873D-16
  0.49704841D-03  0.27831481D-03  0.31800292D-15  0.46818388D-08  0.27830919D-03
 -0.70927176D-15 -0.15975275D-16  0.36873861D-04  0.57578860D-04 -0.12121662D-17
 -0.11062068D-03 -0.86369388D-04  0.49137991D-16 -0.90199810D-09 -0.86367190D-04
 -0.12683192D-15  0.61399660D-04  0.11073682D-03  0.16328137D-03 -0.75997493D-03
  0.36267104D-02 -0.45659793D-04 -0.18111066D-03 -0.10456371D-03 -0.66253146D-04
  0.77882596D-03  0.44965246D-03  0.37865505D-03 -0.42118879D-03 -0.24317494D-03
 -0.20780952D-03 -0.15213506D-03  0.77860789D-04  0.74274273D-04 -0.39836247D-03
 -0.32230209D-03 -0.18607808D-03 -0.73517135D-04  0.16296709D-04  0.57220426D-04
 -0.15555844D-03 -0.14880393D-03 -0.85912070D-04  0.61399660D-04  0.11073682D-03
  0.16328137D-03 -0.75997493D-03  0.36267104D-02 -0.45659793D-04  0.18111066D-03
 -0.10456371D-03 -0.66253146D-04 -0.77882596D-03  0.44965246D-03  0.37865505D-03
  0.42118879D-03 -0.24317494D-03 -0.20780952D-03 -0.15213506D-03  0.77860789D-04
  0.74274273D-04  0.39836247D-03  0.32230209D-03 -0.18607808D-03 -0.73517135D-04
  0.16296709D-04  0.57220426D-04  0.15555844D-03  0.14880393D-03 -0.85912070D-04
  0.61400215D-04  0.11073782D-03  0.16328284D-03 -0.75998460D-03  0.36267293D-02
 -0.45662310D-04  0.56791666D-15  0.20912950D-03 -0.66248403D-04 -0.64827209D-15
 -0.89931411D-03  0.37864598D-03 -0.82811072D-16  0.48635307D-03 -0.20780956D-03
  0.19285863D-03 -0.26713436D-03  0.74275737D-04 -0.10893669D-15  0.52563109D-16
  0.37215314D-03  0.61201202D-04 -0.11842425D-03  0.57223050D-04 -0.20087703D-15
  0.40168730D-16  0.17182151D-03 -0.12517772D-04 -0.22576317D-04 -0.33288766D-04
  0.15716122D-03  0.97797921D-03 -0.69405633D-05 -0.36651267D-15  0.14221547D-03
 -0.53841608D-04 -0.14095909D-15 -0.15180526D-03 -0.14411048D-03 -0.32968729D-15
 -0.11855195D-03  0.16905512D-03  0.23293235D-04  0.84405379D-04 -0.10769861D-03
  0.29765069D-15 -0.20257372D-15  0.10013240D-03 -0.38848844D-06 -0.19199523D-04
  0.19588012D-04  0.13271905D-15 -0.61010430D-17  0.16368426D-04 -0.12518307D-04
 -0.22577282D-04 -0.33290190D-04  0.15716774D-03  0.97793365D-03 -0.69414841D-05
 -0.12316045D-03 -0.71109025D-04 -0.53841419D-04  0.13146517D-03  0.75905873D-04
 -0.14410984D-03  0.10265703D-03  0.59274633D-04  0.16906480D-03  0.69125680D-04
  0.38567772D-04 -0.10769345D-03  0.52926538D-04 -0.86718416D-04 -0.50062642D-04
 -0.14498061D-04 -0.50902964D-05  0.19588357D-04 -0.16290335D-04 -0.14174343D-04
 -0.81880982D-05 -0.12518307D-04 -0.22577282D-04 -0.33290190D-04  0.15716774D-03
  0.97793365D-03 -0.69414841D-05  0.12316045D-03 -0.71109025D-04 -0.53841419D-04
 -0.13146517D-03  0.75905873D-04 -0.14410984D-03 -0.10265703D-03  0.59274633D-04
  0.16906480D-03  0.69125680D-04  0.38567772D-04 -0.10769345D-03 -0.52926538D-04
  0.86718416D-04 -0.50062642D-04 -0.14498061D-04 -0.50902964D-05  0.19588357D-04
  0.16290335D-04  0.14174343D-04 -0.81880982D-05
MO    2     MO 0.0        OCC NO =    2.0000000  ORB. ENERGY =   -9.879360
  0.32992437D+00  0.61505404D+00  0.10395497D+01  0.15627837D+01  0.19200603D+01
  0.16217979D+01  0.61168249D+00 -0.30272508D-02 -0.35024120D-02 -0.65576204D-02
 -0.11164910D-01 -0.17270418D-01 -0.22744533D-01 -0.23633026D-01 -0.15017727D-01
  0.10064532D-01  0.35862463D-01  0.24906931D-02 -0.48920429D-03  0.17529923D-13
  0.16435417D-13  0.11702996D-13  0.49555447D-08  0.46461381D-08  0.33083271D-08
  0.44500487D-03  0.41722035D-03  0.29708574D-03 -0.69086531D-13 -0.78714846D-07
 -0.45719774D-02 -0.70098140D-13 -0.41348895D-07 -0.48100093D-03  0.22295397D-15
 -0.72097169D-09 -0.50928859D-04  0.10271301D-02  0.10271252D-02 -0.20542553D-02
  0.70941489D-14  0.12440809D-13 -0.76565998D-07  0.75289181D-03  0.75286052D-03
 -0.15057523D-02  0.54264459D-13  0.32711717D-13  0.35495883D-08  0.24086314D-04
  0.24083311D-04 -0.48169624D-04  0.95008796D-14  0.54769825D-14  0.12257665D-09
 -0.89476817D-15  0.15661423D-02  0.11317883D-02 -0.14405950D-14 -0.46984915D-02
 -0.16976435D-02  0.41248995D-14  0.64588204D-07 -0.16977214D-02 -0.27073240D-13
  0.51493553D-15 -0.12159402D-03 -0.31523761D-03 -0.30036581D-15  0.36479410D-03
  0.47284292D-03 -0.12444408D-14 -0.12042245D-07  0.47286991D-03 -0.11800388D-13
  0.23689915D-03  0.44313374D-03  0.76527206D-03  0.12361139D-02  0.18615620D-02
  0.25317156D-02  0.28821015D-02  0.23348975D-02  0.94778101D-03  0.86424591D-04
 -0.33213163D-05  0.11106242D-05  0.62325715D-07 -0.48989468D-03 -0.91694796D-03
 -0.15858968D-02 -0.25775885D-02 -0.39436894D-02 -0.55963678D-02 -0.70201787D-02
 -0.71576803D-02 -0.43978211D-02  0.95846913D-03  0.35107306D-02  0.16056846D-02
 -0.85230617D-05  0.30109309D-03  0.56314920D-03  0.97522182D-03  0.15834163D-02
  0.24305119D-02  0.34524338D-02  0.43799598D-02  0.45344419D-02  0.29207316D-02
 -0.71836912D-03 -0.29282936D-02 -0.25539816D-02  0.13016420D-02  0.37672655D-03
 -0.16835015D-02  0.48646549D-03 -0.42505207D-13 -0.56066558D-13 -0.62276173D-13
 -0.53299626D-13 -0.30454978D-13 -0.98833043D-14 -0.69591198D-17 -0.14296493D-06
 -0.18857811D-06 -0.20946395D-06 -0.17927162D-06 -0.10243436D-06 -0.33242183D-07
 -0.23406781D-10 -0.23628542D-01 -0.31167264D-01 -0.34619175D-01 -0.29629134D-01
 -0.16929849D-01 -0.54941050D-02 -0.38685579D-05  0.38077099D-13  0.52069944D-13
  0.56605274D-13  0.51960681D-13  0.28320681D-13  0.11950784D-13 -0.41216803D-14
  0.12529590D-06  0.17134053D-06  0.18626441D-06  0.17098099D-06  0.93191582D-07
  0.39325058D-07 -0.13562735D-07  0.20821956D-01  0.28473757D-01  0.30953842D-01
  0.28414008D-01  0.15486788D-01  0.65351272D-02 -0.22538861D-02  0.11531798D-14
  0.39578669D-08  0.44524241D-03 -0.12710473D-13  0.61188730D-08 -0.69653542D-03
 -0.58939677D-15 -0.10680381D-10 -0.30939261D-04 -0.20916611D-03 -0.20916709D-03
  0.41833320D-03 -0.64476298D-14 -0.57747531D-14 -0.13604986D-07 -0.43576967D-03
 -0.43575996D-03  0.87152963D-03 -0.52557240D-15  0.26930775D-15 -0.56814796D-08
 -0.15432319D-04 -0.15432307D-04  0.30864626D-04 -0.90590540D-15  0.81407635D-17
 -0.10553918D-08 -0.27576897D-15  0.10488759D-03 -0.69784875D-04 -0.64582191D-16
 -0.31466233D-03  0.10466908D-03  0.89188911D-15 -0.43241896D-09  0.10468555D-03
 -0.39806903D-14 -0.47501227D-16  0.23656216D-04 -0.59060516D-05 -0.47201452D-16
 -0.70969272D-04  0.88584286D-05  0.18970513D-15  0.62372205D-09  0.88597263D-05
 -0.11083869D-14 -0.37831155D-04 -0.68230046D-04 -0.10060516D-03  0.70014977D-03
  0.11576628D-02  0.16370580D-04 -0.77602712D-04 -0.44808853D-04  0.53810024D-04
 -0.25733654D-03 -0.14856904D-03 -0.32170043D-03 -0.96543990D-04 -0.55738772D-04
 -0.13207312D-03  0.76490244D-04 -0.45924695D-04 -0.30565549D-04  0.21203392D-03
  0.23541667D-03  0.13591689D-03 -0.56363750D-05 -0.14663130D-04  0.20299505D-04
  0.15632321D-04 -0.13452128D-04 -0.77683007D-05 -0.37831155D-04 -0.68230046D-04
 -0.10060516D-03  0.70014977D-03  0.11576628D-02  0.16370580D-04  0.77602712D-04
 -0.44808853D-04  0.53810024D-04  0.25733654D-03 -0.14856904D-03 -0.32170043D-03
  0.96543990D-04 -0.55738772D-04 -0.13207312D-03  0.76490244D-04 -0.45924695D-04
 -0.30565549D-04 -0.21203392D-03 -0.23541667D-03  0.13591689D-03 -0.56363750D-05
 -0.14663130D-04  0.20299505D-04 -0.15632321D-04  0.13452128D-04 -0.77683007D-05
 -0.37828955D-04 -0.68226077D-04 -0.10059931D-03  0.70012845D-03  0.11576571D-02
  0.16369350D-04  0.16503948D-14  0.89619755D-04  0.53805990D-04 -0.27943905D-14
  0.29712161D-03 -0.32169671D-03 -0.94851175D-15  0.11147571D-03 -0.13207414D-03
 -0.10713071D-03  0.13769069D-03 -0.30559983D-04 -0.15254729D-14  0.59232552D-15
 -0.27182704D-03 -0.19173374D-04 -0.11262849D-05  0.20299659D-04 -0.94554697D-15
  0.19112581D-15  0.15535838D-04  0.66211502D-04  0.11941517D-03  0.17607760D-03
 -0.25618378D-02 -0.12038995D-02 -0.62845069D-04 -0.18107552D-14  0.23037521D-02
 -0.63830856D-03 -0.83850280D-14  0.33858743D-02 -0.19254924D-02 -0.71720204D-14
  0.37772193D-03 -0.27161999D-03  0.18857607D-02 -0.28367494D-02  0.95098873D-03
  0.39679487D-14 -0.12686250D-14  0.39852199D-02  0.22811061D-03 -0.30145141D-03
  0.73340805D-04  0.39559458D-14 -0.32191712D-14  0.53267902D-03  0.66209301D-04
  0.11941120D-03  0.17607175D-03 -0.25619534D-02 -0.12039920D-02 -0.62846293D-04
 -0.19951237D-02 -0.11518901D-02 -0.63829095D-03 -0.29323084D-02 -0.16929939D-02
 -0.19254436D-02 -0.32713193D-03 -0.18887455D-03 -0.27161646D-03 -0.16561548D-02
  0.70510340D-03  0.95105142D-03 -0.40898851D-02 -0.34512071D-02 -0.19925684D-02
 -0.16906663D-03  0.95713685D-04  0.73352940D-04 -0.45862620D-03 -0.46130256D-03
 -0.26633483D-03  0.66209301D-04  0.11941120D-03  0.17607175D-03 -0.25619534D-02
 -0.12039920D-02 -0.62846293D-04  0.19951237D-02 -0.11518901D-02 -0.63829095D-03
  0.29323084D-02 -0.16929939D-02 -0.19254436D-02  0.32713193D-03 -0.18887455D-03
 -0.27161646D-03 -0.16561548D-02  0.70510340D-03  0.95105142D-03  0.40898851D-02
  0.34512071D-02 -0.19925684D-02 -0.16906663D-03  0.95713685D-04  0.73352940D-04
  0.45862620D-03  0.46130256D-03 -0.26633483D-03
MO    3     MO 0.0        OCC NO =    2.0000000  ORB. ENERGY =   -5.046578
 -0.95044497D-04 -0.17718455D-03 -0.29947311D-03 -0.45020618D-03 -0.55313030D-03
 -0.46720697D-03 -0.17621328D-03  0.87208935D-06  0.49839144D-04  0.93314603D-04
  0.15887610D-03  0.24575716D-03  0.32365354D-03  0.33629676D-03  0.21370149D-03
 -0.14321777D-03 -0.27971070D-03  0.14771825D-02  0.24630636D-03  0.82717178D-14
  0.77552612D-14  0.55222080D-14 -0.16632296D-08 -0.15593835D-08 -0.11103739D-08
  0.12214525D-03  0.11451893D-03  0.81544302D-04 -0.37949906D-13  0.33351971D-08
 -0.13458711D-03  0.18213832D-13 -0.79007734D-09 -0.13262555D-02 -0.18270552D-14
  0.56295203D-09  0.45237793D-04  0.39895071D-04  0.39897888D-04 -0.79792959D-04
  0.15668525D-13 -0.49901820D-14  0.81394536D-09  0.41791152D-04  0.41785850D-04
 -0.83577001D-04  0.10786241D-13  0.25068589D-13 -0.42195298D-08  0.33372567D-04
  0.33368427D-04 -0.66740994D-04 -0.81854578D-15  0.14697709D-14 -0.16423119D-07
  0.46775624D-15 -0.30762100D-04  0.36239681D-04  0.35800001D-15  0.92283766D-04
 -0.54359692D-04 -0.17612687D-14  0.25327962D-08 -0.54359351D-04 -0.11772291D-13
 -0.44992820D-15  0.86490046D-04  0.53518246D-04 -0.10190363D-14 -0.25947060D-03
 -0.80278432D-04  0.23688209D-14  0.46417530D-09 -0.80276306D-04 -0.75168214D-15
 -0.40428222D-02 -0.75623358D-02 -0.13059814D-01 -0.21095004D-01 -0.31768642D-01
 -0.43205203D-01 -0.49184743D-01 -0.39846387D-01 -0.16174436D-01 -0.14748861D-02
  0.56680199D-04 -0.18953450D-04 -0.10636247D-05 -0.12748397D+00 -0.23861490D+00
 -0.41269364D+00 -0.67075892D+00 -0.10262557D+01 -0.14563277D+01 -0.18268422D+01
 -0.18626239D+01 -0.11444331D+01  0.24941984D+00  0.91358796D+00  0.41784297D+00
 -0.22179334D-02 -0.25669940D-02 -0.48011750D-02 -0.83143341D-02 -0.13499546D-01
 -0.20721530D-01 -0.29434009D-01 -0.37341709D-01 -0.38658758D-01 -0.24900938D-01
  0.61245152D-02  0.24965409D-01  0.21774181D-01 -0.11097256D-01  0.33238602D-01
  0.15727058D-01 -0.10146743D-02  0.54119685D-12  0.71386653D-12  0.79293035D-12
  0.67863662D-12  0.38776751D-12  0.12583901D-12  0.88606879D-16  0.18711110D-06
  0.24680918D-06  0.27414438D-06  0.23462895D-06  0.13406509D-06  0.43507045D-07
  0.30634566D-10 -0.49995064D-03 -0.65946066D-03 -0.73249880D-03 -0.62691572D-03
 -0.35821461D-03 -0.11624845D-03 -0.81853888D-07 -0.46709512D-12 -0.63874657D-12
 -0.69438186D-12 -0.63740624D-12 -0.34741228D-12 -0.14660131D-12  0.50561014D-13
 -0.47081720D-07 -0.64383647D-07 -0.69991509D-07 -0.64248546D-07 -0.35018066D-07
 -0.14776951D-07  0.50963913D-08  0.63537957D-03  0.86887339D-03  0.94455290D-03
  0.86705017D-03  0.47257755D-03  0.19941865D-03 -0.68777074D-04 -0.21999099D-13
  0.37583969D-08  0.12647199D-04  0.88959214D-13 -0.16322372D-07 -0.31224273D-03
  0.48716845D-14  0.54791427D-09 -0.67745007D-05 -0.11306976D-03 -0.11306948D-03
  0.22613924D-03  0.32561707D-13  0.21500551D-13 -0.44742366D-08 -0.10456294D-04
 -0.10455919D-04  0.20912213D-04  0.14877555D-13  0.14583633D-13 -0.73661274D-08
 -0.44834624D-05 -0.44843383D-05  0.89678007D-05  0.45292009D-14  0.67111305D-15
  0.64409778D-09  0.16383200D-14  0.14588315D-03  0.11704615D-03  0.21540152D-14
 -0.43764625D-03 -0.17557217D-03 -0.70689752D-14 -0.32100628D-08 -0.17556626D-03
  0.16286225D-13 -0.13045168D-16 -0.38867359D-04 -0.61210205D-04  0.11670529D-15
  0.11660138D-03  0.91816237D-04 -0.77569787D-16  0.69521653D-09  0.91814378D-04
  0.42212359D-14 -0.41914805D-04 -0.75595078D-04 -0.11146490D-03  0.91683042D-03
 -0.45348633D-02  0.10076495D-03  0.22595968D-03  0.13045741D-03  0.94479897D-04
 -0.71030997D-03 -0.41009560D-03 -0.37983321D-03  0.55366149D-03  0.31965951D-03
  0.32457290D-03  0.12495752D-03 -0.95186566D-04 -0.29770951D-04  0.38130075D-03
  0.35817496D-03  0.20679037D-03  0.54248399D-04 -0.31516796D-06 -0.53933231D-04
  0.94502804D-04  0.10131396D-03  0.58493764D-04 -0.41914805D-04 -0.75595078D-04
 -0.11146490D-03  0.91683042D-03 -0.45348633D-02  0.10076495D-03 -0.22595968D-03
  0.13045741D-03  0.94479897D-04  0.71030997D-03 -0.41009560D-03 -0.37983321D-03
 -0.55366149D-03  0.31965951D-03  0.32457290D-03  0.12495752D-03 -0.95186566D-04
 -0.29770951D-04 -0.38130075D-03 -0.35817496D-03  0.20679037D-03  0.54248399D-04
 -0.31516796D-06 -0.53933231D-04 -0.94502804D-04 -0.10131396D-03  0.58493764D-04
 -0.41915048D-04 -0.75595515D-04 -0.11146554D-03  0.91683786D-03 -0.45349109D-02
  0.10076841D-03 -0.12306918D-13 -0.26091328D-03  0.94475456D-04  0.15309212D-13
  0.82019423D-03 -0.37982613D-03 -0.21519156D-14 -0.63932601D-03  0.32457352D-03
 -0.20525960D-03  0.23503143D-03 -0.29771825D-04  0.10204084D-14 -0.18430522D-14
 -0.41357953D-03 -0.27593934D-04  0.81529453D-04 -0.53935519D-04  0.41431989D-14
  0.24470410D-15 -0.11698606D-03  0.28161519D-05  0.50790460D-05  0.74890504D-05
 -0.87310262D-03 -0.18116526D-02  0.13484265D-04  0.37373972D-14 -0.12520010D-04
  0.58582178D-04 -0.92774002D-15  0.30295176D-03 -0.24343711D-03 -0.33811219D-14
  0.22141449D-03 -0.35293586D-03  0.23277192D-06 -0.88089639D-04  0.87856867D-04
 -0.37768928D-14  0.38949107D-14  0.66015125D-04  0.44247818D-04  0.46335434D-04
 -0.90583252D-04 -0.58224391D-16 -0.31209149D-14 -0.55559281D-05  0.28160675D-05
  0.50788937D-05  0.74888258D-05 -0.87311196D-03 -0.18116187D-02  0.13485930D-04
  0.10841889D-04  0.62619778D-05  0.58582388D-04 -0.26236322D-03 -0.15148475D-03
 -0.24342998D-03 -0.19173696D-03 -0.11070939D-03 -0.35295332D-03 -0.66009885D-04
 -0.21848201D-04  0.87858086D-04 -0.76491869D-04 -0.57162147D-04 -0.33010262D-04
  0.45814978D-04  0.44767769D-04 -0.90582747D-04  0.18069442D-05  0.48110470D-05
  0.27818625D-05  0.28160675D-05  0.50788937D-05  0.74888258D-05 -0.87311196D-03
 -0.18116187D-02  0.13485930D-04 -0.10841889D-04  0.62619778D-05  0.58582388D-04
  0.26236322D-03 -0.15148475D-03 -0.24342998D-03  0.19173696D-03 -0.11070939D-03
 -0.35295332D-03 -0.66009885D-04 -0.21848201D-04  0.87858086D-04  0.76491869D-04
  0.57162147D-04 -0.33010262D-04  0.45814978D-04  0.44767769D-04 -0.90582747D-04
 -0.18069442D-05 -0.48110470D-05  0.27818625D-05
MO    4     MO 0.0        OCC NO =    2.0000000  ORB. ENERGY =   -3.457168
  0.23293986D-08  0.43425286D-08  0.73396383D-08  0.11033881D-07  0.13556397D-07
  0.11450545D-07  0.43187241D-08 -0.21373607D-10 -0.31236569D-08 -0.58484713D-08
 -0.99575228D-08 -0.15402774D-07 -0.20284911D-07 -0.21077322D-07 -0.13393692D-07
  0.89761409D-08  0.79058381D-08 -0.14369307D-07 -0.38082743D-07  0.47176309D-11
  0.44230789D-11  0.31494957D-11 -0.16263826D-03 -0.15248371D-03 -0.10857748D-03
  0.31941249D-07  0.29946951D-07  0.21324013D-07 -0.73537434D-11  0.25320935D-03
 -0.30863198D-07  0.24551260D-10 -0.84800765D-03 -0.37944892D-07  0.10700108D-11
 -0.36901127D-04 -0.31831077D-08  0.31090000D-04 -0.31105871D-04  0.15871013D-07
 -0.18035515D-11 -0.15486496D-10  0.53442266D-03  0.17653068D-03 -0.17648998D-03
 -0.40702321D-07 -0.10217002D-10 -0.53053311D-11  0.18328772D-03  0.78217746D-05
 -0.78160588D-05 -0.57157207D-08 -0.44903248D-12 -0.14402529D-11  0.49685585D-04
  0.92164052D-11 -0.31798050D-03 -0.51148536D-08  0.92165282D-11 -0.31800116D-03
  0.11056932D-03 -0.36865744D-10  0.12719427D-02 -0.11055398D-03 -0.64149749D-11
 -0.49026791D-11  0.16915990D-03 -0.18218228D-08 -0.49026199D-11  0.16914641D-03
  0.34456622D-05  0.19610657D-10 -0.67662610D-03 -0.34401967D-05 -0.20462896D-12
 -0.13042065D-08 -0.24395947D-08 -0.42130703D-08 -0.68052068D-08 -0.10248501D-07
 -0.13937914D-07 -0.15866902D-07 -0.12854366D-07 -0.52178412D-08 -0.47579534D-09
  0.18284921D-10 -0.61143458D-11 -0.34312323D-12  0.57062113D-08  0.10680456D-07
  0.18472260D-07  0.30023320D-07  0.45935434D-07  0.65185556D-07  0.81769867D-07
  0.83371463D-07  0.51225085D-07 -0.11164088D-07 -0.40892403D-07 -0.18702745D-07
  0.99275197D-10 -0.16092433D-08 -0.30098468D-08 -0.52122390D-08 -0.84628377D-08
 -0.12990285D-07 -0.18452120D-07 -0.23409441D-07 -0.24235096D-07 -0.15610347D-07
  0.38394460D-08  0.15650764D-07  0.13650189D-07 -0.69568470D-08 -0.36174276D-08
 -0.83669450D-07  0.29985992D-07 -0.18094983D-06 -0.23868215D-06 -0.26511724D-06
 -0.22690299D-06 -0.12965054D-06 -0.42074427D-07 -0.29625819D-10  0.62429205D+01