 Molden2AIM, Version 4.0.0 (06/02/2016)           Time: Thu Jun 28 23:38:17 2018
GAUSSIAN              5 MOL ORBITALS    183 PRIMITIVES        5 NUCLEI
  C    1    (CENTRE  1)   0.00000000  0.00000000  0.00000000  CHARGE =  6.0
  H    2    (CENTRE  2)   1.19584515  1.19584515  1.19584515  CHARGE =  1.0
  H    3    (CENTRE  3)   1.19584515 -1.19584515 -1.19584515  CHARGE =  1.0
  H    4    (CENTRE  4)  -1.19584515  1.19584515 -1.19584515  CHARGE =  1.0
  H    5    (CENTRE  5)  -1.19584515 -1.19584515  1.19584515  CHARGE =  1.0
CENTRE ASSIGNMENTS    1  1  1  1  1  1  1  1  1  1  1  1  1  1  1  1  1  1  1  1
CENTRE ASSIGNMENTS    1  1  1  1  1  1  1  1  1  1  1  1  1  1  1  1  1  1  1  1
CENTRE ASSIGNMENTS    1  1  1  1  1  1  1  1  1  1  1  1  1  1  1  1  1  1  1  1
CENTRE ASSIGNMENTS    1  1  1  1  1  1  1  1  1  1  1  1  1  1  1  2  2  2  2  2
CENTRE ASSIGNMENTS    2  2  2  2  2  2  2  2  2  2  2  2  2  2  2  2  2  2  2  2
CENTRE ASSIGNMENTS    2  2  3  3  3  3  3  3  3  3  3  3  3  3  3  3  3  3  3  3
CENTRE ASSIGNMENTS    3  3  3  3  3  3  3  3  3  4  4  4  4  4  4  4  4  4  4  4
CENTRE ASSIGNMENTS    4  4  4  4  4  4  4  4  4  4  4  4  4  4  4  4  5  5  5  5
CENTRE ASSIGNMENTS    5  5  5  5  5  5  5  5  5  5  5  5  5  5  5  5  5  5  5  5
CENTRE ASSIGNMENTS    5  5  5
TYPE ASSIGNMENTS      1  1  1  1  1  1  1  1  1  1  1  1  1  1  1  1  1  1  1  2
TYPE ASSIGNMENTS      2  2  3  3  3  4  4  4  2  3  4  2  3  4  2  3  4  5  6  7
TYPE ASSIGNMENTS      8  9 10  5  6  7  8  9 10  5  6  7  8  9 10 11 12 13 17 14
TYPE ASSIGNMENTS     15 18 19 16 20 11 12 13 17 14 15 18 19 16 20  1  1  1  1  1
TYPE ASSIGNMENTS      1  2  3  4  2  3  4  2  3  4  5  6  7  8  9 10  5  6  7  8
TYPE ASSIGNMENTS      9 10  1  1  1  1  1  1  2  3  4  2  3  4  2  3  4  5  6  7
TYPE ASSIGNMENTS      8  9 10  5  6  7  8  9 10  1  1  1  1  1  1  2  3  4  2  3
TYPE ASSIGNMENTS      4  2  3  4  5  6  7  8  9 10  5  6  7  8  9 10  1  1  1  1
TYPE ASSIGNMENTS      1  1  2  3  4  2  3  4  2  3  4  5  6  7  8  9 10  5  6  7
TYPE ASSIGNMENTS      8  9 10
EXPONENTS  0.8236000D+04 0.1235000D+04 0.2808000D+03 0.7927000D+02 0.2559000D+02
EXPONENTS  0.8997000D+01 0.3319000D+01 0.3643000D+00 0.8236000D+04 0.1235000D+04
EXPONENTS  0.2808000D+03 0.7927000D+02 0.2559000D+02 0.8997000D+01 0.3319000D+01
EXPONENTS  0.3643000D+00 0.9059000D+00 0.1285000D+00 0.4402000D-01 0.1871000D+02
EXPONENTS  0.4133000D+01 0.1200000D+01 0.1871000D+02 0.4133000D+01 0.1200000D+01
EXPONENTS  0.1871000D+02 0.4133000D+01 0.1200000D+01 0.3827000D+00 0.3827000D+00
EXPONENTS  0.3827000D+00 0.1209000D+00 0.1209000D+00 0.1209000D+00 0.3569000D-01
EXPONENTS  0.3569000D-01 0.3569000D-01 0.1097000D+01 0.1097000D+01 0.1097000D+01
EXPONENTS  0.1097000D+01 0.1097000D+01 0.1097000D+01 0.3180000D+00 0.3180000D+00
EXPONENTS  0.3180000D+00 0.3180000D+00 0.3180000D+00 0.3180000D+00 0.1000000D+00
EXPONENTS  0.1000000D+00 0.1000000D+00 0.1000000D+00 0.1000000D+00 0.1000000D+00
EXPONENTS  0.7610000D+00 0.7610000D+00 0.7610000D+00 0.7610000D+00 0.7610000D+00
EXPONENTS  0.7610000D+00 0.7610000D+00 0.7610000D+00 0.7610000D+00 0.7610000D+00
EXPONENTS  0.2680000D+00 0.2680000D+00 0.2680000D+00 0.2680000D+00 0.2680000D+00
EXPONENTS  0.2680000D+00 0.2680000D+00 0.2680000D+00 0.2680000D+00 0.2680000D+00
EXPONENTS  0.3387000D+02 0.5095000D+01 0.1159000D+01 0.3258000D+00 0.1027000D+00
EXPONENTS  0.2526000D-01 0.1407000D+01 0.1407000D+01 0.1407000D+01 0.3880000D+00
EXPONENTS  0.3880000D+00 0.3880000D+00 0.1020000D+00 0.1020000D+00 0.1020000D+00
EXPONENTS  0.1057000D+01 0.1057000D+01 0.1057000D+01 0.1057000D+01 0.1057000D+01
EXPONENTS  0.1057000D+01 0.2470000D+00 0.2470000D+00 0.2470000D+00 0.2470000D+00
EXPONENTS  0.2470000D+00 0.2470000D+00 0.3387000D+02 0.5095000D+01 0.1159000D+01
EXPONENTS  0.3258000D+00 0.1027000D+00 0.2526000D-01 0.1407000D+01 0.1407000D+01
EXPONENTS  0.1407000D+01 0.3880000D+00 0.3880000D+00 0.3880000D+00 0.1020000D+00
EXPONENTS  0.1020000D+00 0.1020000D+00 0.1057000D+01 0.1057000D+01 0.1057000D+01
EXPONENTS  0.1057000D+01 0.1057000D+01 0.1057000D+01 0.2470000D+00 0.2470000D+00
EXPONENTS  0.2470000D+00 0.2470000D+00 0.2470000D+00 0.2470000D+00 0.3387000D+02
EXPONENTS  0.5095000D+01 0.1159000D+01 0.3258000D+00 0.1027000D+00 0.2526000D-01
EXPONENTS  0.1407000D+01 0.1407000D+01 0.1407000D+01 0.3880000D+00 0.3880000D+00
EXPONENTS  0.3880000D+00 0.1020000D+00 0.1020000D+00 0.1020000D+00 0.1057000D+01
EXPONENTS  0.1057000D+01 0.1057000D+01 0.1057000D+01 0.1057000D+01 0.1057000D+01
EXPONENTS  0.2470000D+00 0.2470000D+00 0.2470000D+00 0.2470000D+00 0.2470000D+00
EXPONENTS  0.2470000D+00 0.3387000D+02 0.5095000D+01 0.1159000D+01 0.3258000D+00
EXPONENTS  0.1027000D+00 0.2526000D-01 0.1407000D+01 0.1407000D+01 0.1407000D+01
EXPONENTS  0.3880000D+00 0.3880000D+00 0.3880000D+00 0.1020000D+00 0.1020000D+00
EXPONENTS  0.1020000D+00 0.1057000D+01 0.1057000D+01 0.1057000D+01 0.1057000D+01
EXPONENTS  0.1057000D+01 0.1057000D+01 0.2470000D+00 0.2470000D+00 0.2470000D+00
EXPONENTS  0.2470000D+00 0.2470000D+00 0.2470000D+00
MO    1     MO 0.0        OCC NO =    2.0000000  ORB. ENERGY =   -9.867624
  0.33025899D+00  0.61567784D+00  0.10406040D+01  0.15643687D+01  0.19220077D+01
  0.16234427D+01  0.61230287D+00 -0.30303211D-02 -0.37560499D-02 -0.70325106D-02
 -0.11973451D-01 -0.18521108D-01 -0.24391648D-01 -0.25344484D-01 -0.16105282D-01
  0.10793386D-01  0.35837579D-01  0.28484985D-02  0.17595033D-03  0.55815176D-14
  0.52330275D-14  0.37262273D-14 -0.53594549D-14 -0.50248296D-14 -0.35779781D-14
 -0.46632952D-14 -0.43721357D-14 -0.31132210D-14 -0.24899383D-13  0.21657131D-13
  0.20112258D-13 -0.17410562D-13  0.10152319D-13  0.79830531D-14 -0.31234774D-15
  0.14181107D-15  0.24931125D-15  0.48385592D-15  0.38842996D-16 -0.52269892D-15
  0.75241398D-14  0.55881526D-14 -0.57783938D-14 -0.12899272D-14  0.57657711D-16
  0.12322695D-14  0.12661397D-13  0.16933999D-13 -0.19422974D-13 -0.23586559D-15
  0.26316538D-15 -0.27299785D-16  0.99969367D-15  0.12541882D-14 -0.23622523D-14
  0.22249694D-14 -0.18938793D-14 -0.18236721D-14 -0.37319285D-14  0.31427022D-14
  0.28870853D-14 -0.29429797D-14  0.25389356D-14  0.25839310D-14  0.99613105D-02
  0.62924993D-15 -0.74409815D-15 -0.28294211D-15 -0.11313640D-14  0.13185274D-14
  0.53767171D-15 -0.75638582D-15  0.91376709D-15  0.31115462D-15 -0.12673459D-02
  0.16404264D-04  0.29585766D-04  0.43624195D-04 -0.11643617D-02 -0.73325753D-03
 -0.16643737D-04  0.14057867D-02  0.14057867D-02  0.14057867D-02  0.16418600D-02
  0.16418600D-02  0.16418600D-02  0.18323421D-03  0.18323421D-03  0.18323421D-03
  0.38341187D-15 -0.70784843D-15  0.32443656D-15 -0.33126620D-02 -0.33126620D-02
 -0.33126620D-02  0.82018553D-15 -0.63070234D-15 -0.18948319D-15 -0.36113779D-03
 -0.36113779D-03 -0.36113779D-03  0.16404264D-04  0.29585766D-04  0.43624195D-04
 -0.11643617D-02 -0.73325753D-03 -0.16643737D-04  0.14057867D-02 -0.14057867D-02
 -0.14057867D-02  0.16418600D-02 -0.16418600D-02 -0.16418600D-02  0.18323421D-03
 -0.18323421D-03 -0.18323421D-03 -0.54732627D-15  0.22108579D-15  0.32624048D-15
  0.33126620D-02  0.33126620D-02 -0.33126620D-02 -0.11174131D-15 -0.60893067D-16
  0.17263437D-15  0.36113779D-03  0.36113779D-03 -0.36113779D-03  0.16404264D-04
  0.29585766D-04  0.43624195D-04 -0.11643617D-02 -0.73325753D-03 -0.16643737D-04
 -0.14057867D-02  0.14057867D-02 -0.14057867D-02 -0.16418600D-02  0.16418600D-02
 -0.16418600D-02 -0.18323421D-03  0.18323421D-03 -0.18323421D-03 -0.30586450D-15
 -0.14045819D-15  0.44632269D-15  0.33126620D-02 -0.33126620D-02  0.33126620D-02
 -0.53260735D-15 -0.96684857D-16  0.62929221D-15  0.36113779D-03 -0.36113779D-03
  0.36113779D-03  0.16404264D-04  0.29585766D-04  0.43624195D-04 -0.11643617D-02
 -0.73325753D-03 -0.16643737D-04 -0.14057867D-02 -0.14057867D-02  0.14057867D-02
 -0.16418600D-02 -0.16418600D-02  0.16418600D-02 -0.18323421D-03 -0.18323421D-03
  0.18323421D-03 -0.83031576D-15  0.78772424D-15  0.42591521D-16 -0.33126620D-02
  0.33126620D-02  0.33126620D-02 -0.65814695D-15  0.75110454D-15 -0.92957586D-16
 -0.36113779D-03  0.36113779D-03  0.36113779D-03
MO    2     MO 0.0        OCC NO =    2.0000000  ORB. ENERGY =   -0.625070
 -0.10730453D-01 -0.20004003D-01 -0.33810290D-01 -0.50827941D-01 -0.62447998D-01
 -0.52747317D-01 -0.19894347D-01  0.98458235D-04 -0.52086539D-01 -0.97522436D-01
 -0.16604029D+00 -0.25683908D+00 -0.33824804D+00 -0.35146138D+00 -0.22333793D+00
  0.14967589D+00  0.70022733D-01  0.36134365D-01  0.77711025D-03  0.62394863D-13
  0.58499150D-13  0.41654880D-13  0.77827070D-14  0.72967825D-14  0.51957438D-14
  0.23822047D-13  0.22334683D-13  0.15903625D-13 -0.30539499D-12  0.16178928D-14
 -0.11718195D-12 -0.37302401D-12  0.12598028D-12 -0.12972531D-12 -0.91973128D-14
  0.36364681D-14 -0.60703775D-15  0.44701352D-15  0.15252969D-15 -0.59954322D-15
 -0.10577199D-13 -0.12734181D-13 -0.35684942D-13  0.19354909D-14 -0.43125712D-15
 -0.15042337D-14 -0.11684980D-12  0.17365504D-13 -0.28924513D-12  0.55904661D-14
 -0.41907950D-15 -0.51713866D-14 -0.21484855D-13  0.20454556D-13 -0.52668101D-13
  0.24613497D-13  0.27577670D-15  0.99643993D-14 -0.35936447D-13 -0.30733753D-15
 -0.14908479D-13 -0.37904043D-13 -0.51999257D-15 -0.14984719D-13  0.98813197D-02
  0.12560848D-13  0.96957943D-15  0.48967314D-14 -0.17210448D-13 -0.14490547D-14
 -0.80509921D-14 -0.20472097D-13 -0.14596836D-14 -0.66392020D-14  0.13160531D-02
  0.21452790D-01  0.38690991D-01  0.57049843D-01  0.26034840D-01  0.63169592D-03
 -0.29206277D-04 -0.10391635D-01 -0.10391635D-01 -0.10391635D-01 -0.12138933D-02
 -0.12138933D-02 -0.12138933D-02  0.20197748D-03  0.20197748D-03  0.20197748D-03
  0.33577574D-14 -0.10739650D-14 -0.22837924D-14  0.36386617D-02  0.36386617D-02
  0.36386617D-02  0.62643239D-14 -0.67595883D-14  0.49526440D-15 -0.29445008D-03
 -0.29445008D-03 -0.29445008D-03  0.21452790D-01  0.38690991D-01  0.57049843D-01
  0.26034840D-01  0.63169592D-03 -0.29206277D-04 -0.10391635D-01  0.10391635D-01
  0.10391635D-01 -0.12138933D-02  0.12138933D-02  0.12138933D-02  0.20197748D-03
 -0.20197748D-03 -0.20197748D-03  0.73636748D-14 -0.24697350D-14 -0.48939398D-14
 -0.36386617D-02 -0.36386617D-02  0.36386617D-02  0.75922686D-14  0.15887060D-15
 -0.77511392D-14  0.29445008D-03  0.29445008D-03 -0.29445008D-03  0.21452790D-01
  0.38690991D-01  0.57049843D-01  0.26034840D-01  0.63169592D-03 -0.29206277D-04
  0.10391635D-01 -0.10391635D-01  0.10391635D-01  0.12138933D-02 -0.12138933D-02
  0.12138933D-02 -0.20197748D-03  0.20197748D-03 -0.20197748D-03 -0.43105321D-14
  0.28286658D-14  0.14818663D-14 -0.36386617D-02  0.36386617D-02 -0.36386617D-02
 -0.37312517D-14  0.39155252D-14 -0.18427357D-15  0.29445008D-03 -0.29445008D-03
  0.29445008D-03  0.21452790D-01  0.38690991D-01  0.57049843D-01  0.26034840D-01
  0.63169592D-03 -0.29206277D-04  0.10391635D-01  0.10391635D-01 -0.10391635D-01
  0.12138933D-02  0.12138933D-02 -0.12138933D-02 -0.20197748D-03 -0.20197748D-03
  0.20197748D-03 -0.51907912D-14  0.22789226D-15  0.49628990D-14  0.36386617D-02
 -0.36386617D-02 -0.36386617D-02 -0.96237648D-14  0.24936236D-14  0.71301412D-14
 -0.29445008D-03  0.29445008D-03  0.29445008D-03
MO    3     MO 0.0        OCC NO =    2.0000000  ORB. ENERGY =   -0.346078
 -0.62073158D-15 -0.11571848D-14 -0.19558461D-14 -0.29402774D-14 -0.36124705D-14
 -0.30513089D-14 -0.11508414D-14  0.56955785D-17  0.95100817D-15  0.17805873D-14
  0.30316023D-14  0.46894278D-14  0.61758115D-14  0.64170637D-14  0.40777559D-14
 -0.27328172D-14 -0.64255650D-13  0.76214380D-12  0.93284750D-13 -0.21707734D-01
 -0.20352380D-01 -0.14492107D-01  0.14558714D+00  0.13649720D+00  0.97194136D-01
  0.53006676D+00  0.49697128D+00  0.35387316D+00 -0.48951189D-02  0.32830067D-01
  0.11953066D+00 -0.76800676D-03  0.51507867D-02  0.18753448D-01 -0.13511467D-04
  0.90617279D-04  0.32992755D-03 -0.56762613D-15  0.19983787D-14 -0.14307526D-14
  0.40394899D-01  0.11094787D-01 -0.16542854D-02  0.11063529D-14 -0.34745682D-14
  0.23682152D-14  0.75708242D-02  0.20793883D-02 -0.31004668D-03 -0.90105929D-15
  0.17327342D-14 -0.83167495D-15  0.70141198D-03  0.19264850D-03 -0.28724806D-04
  0.43366324D-05 -0.29084469D-04 -0.10589335D-03 -0.65049486D-05  0.43626704D-04
  0.15884003D-03 -0.65049486D-05  0.43626704D-04  0.15884003D-03  0.88103580D-13
  0.11633582D-04 -0.78022878D-04 -0.28407271D-03 -0.17450372D-04  0.11703432D-03
  0.42610907D-03 -0.17450372D-04  0.11703432D-03  0.42610907D-03  0.72684919D-13
  0.31906623D-01  0.57544908D-01  0.84849934D-01  0.50176181D-01  0.27406626D-02
 -0.18677684D-03 -0.15968815D-01 -0.12290394D-01 -0.38365905D-02 -0.31072718D-02
 -0.10663090D-02  0.36242628D-02  0.62737308D-03  0.73289982D-03  0.97542297D-03
  0.21357010D-02  0.64505831D-03 -0.27807593D-02  0.62316988D-02  0.27999857D-02
  0.13067778D-02  0.27563542D-04  0.83251786D-05 -0.35888721D-04  0.12995646D-03
 -0.10971013D-03 -0.21399392D-03 -0.34024903D-01 -0.61365313D-01 -0.90483118D-01
 -0.53507376D-01 -0.29226151D-02  0.19917695D-03  0.16042692D-01 -0.13318875D-01
 -0.48650716D-02  0.27663217D-02 -0.12550186D-02  0.34355531D-02 -0.69731917D-03
  0.77546017D-03  0.10179833D-02 -0.18778052D-02 -0.77400617D-03  0.26518114D-02
  0.63313191D-02  0.28996060D-02 -0.17939074D-02 -0.24235118D-04 -0.99893909D-05
  0.34224508D-04  0.11664777D-03 -0.12301882D-03  0.20023944D-03 -0.17699967D-01
 -0.31922620D-01 -0.47069884D-01 -0.27834872D-01 -0.15203627D-02  0.10361309D-03
 -0.90711063D-02  0.11794923D-01  0.30611181D-02 -0.18416539D-02  0.33529570D-02
  0.48898807D-02  0.34193381D-03 -0.26379281D-03  0.68998370D-03 -0.12708871D-02
 -0.23746861D-02  0.36455732D-02  0.55635758D-02  0.46704376D-03  0.63865483D-03
 -0.16402179D-04 -0.30647905D-04  0.47050084D-04  0.21921378D-03  0.20195723D-03
 -0.12473661D-03  0.19818247D-01  0.35743025D-01  0.52703069D-01  0.31166067D-01
  0.17023152D-02 -0.11601320D-03  0.91449833D-02  0.12823404D-01  0.20326370D-02
  0.15007038D-02  0.35416666D-02  0.47011710D-02 -0.41187990D-03 -0.30635316D-03
  0.73254405D-03  0.10129913D-02  0.25036340D-02 -0.35166253D-02  0.56631961D-02
  0.36742346D-03 -0.11257844D-02  0.13073754D-04  0.32312118D-04 -0.45385872D-04
  0.20590509D-03  0.21526592D-03  0.11098213D-03
MO    4     MO 0.0        OCC NO =    2.0000000  ORB. ENERGY =   -0.346078
 -0.42477582D-14 -0.79187871D-14 -0.13384145D-13 -0.20120754D-13 -0.24720672D-13
 -0.20880559D-13 -0.78753786D-14  0.38975688D-16  0.38031242D-14  0.71206484D-14
  0.12123513D-13  0.18753231D-13  0.24697346D-13  0.25662124D-13  0.16307128D-13
 -0.10928658D-13 -0.13693975D-12  0.16483971D-11  0.18425291D-12 -0.23004388D+00
 -0.21568076D+00 -0.15357755D+00  0.47938658D+00  0.44945539D+00  0.32003902D+00
 -0.14108837D+00 -0.13227931D+00 -0.94190750D-01 -0.51875158D-01  0.10810222D+00
 -0.31815588D-01 -0.81388160D-02  0.16960413D-01 -0.49916228D-02 -0.14318538D-03
  0.29838287D-03 -0.87817124D-04 -0.45170877D-15 -0.31694508D-15  0.76865385D-15
 -0.10751948D-01  0.36532706D-01 -0.17530998D-01 -0.89231001D-16  0.72899177D-15
 -0.63976077D-15 -0.20151334D-02  0.68469707D-02 -0.32856649D-02 -0.20125306D-14
  0.11494924D-14  0.86303819D-15 -0.18669548D-03  0.63434933D-03 -0.30440606D-03
  0.45956697D-04 -0.95768791D-04  0.28185733D-04 -0.68935045D-04  0.14365319D-03
 -0.42278599D-04 -0.68935045D-04  0.14365319D-03 -0.42278599D-04  0.18326152D-12
  0.12328483D-03 -0.25691226D-03  0.75611901D-04 -0.18492724D-03  0.38536839D-03
 -0.11341785D-03 -0.18492724D-03  0.38536839D-03 -0.11341785D-03  0.15987952D-12
  0.52818269D-02  0.95259924D-02  0.14046070D-01  0.83061722D-02  0.45368968D-03
 -0.30919065D-04 -0.76225915D-02  0.79761172D-02 -0.56666689D-02 -0.32770259D-02
  0.53778788D-02 -0.21917871D-02 -0.38985581D-04  0.40851098D-03  0.17126029D-04
  0.23712785D-02 -0.39499392D-02  0.15786607D-02 -0.10109006D-02  0.45272135D-02
 -0.18048823D-02  0.30603926D-04 -0.50978258D-04  0.20374333D-04 -0.12113245D-03
  0.26564259D-03 -0.17658315D-03 -0.27729923D-01 -0.50012058D-01 -0.73742751D-01
 -0.43607926D-01 -0.23818993D-02  0.16232703D-03  0.84054900D-02 -0.29230298D-02
 -0.16565816D-01 -0.33613232D-03  0.33780617D-02 -0.41916042D-02 -0.70225568D-03
  0.85953678D-03  0.46815183D-03  0.36172592D-03  0.25834370D-02 -0.29451629D-02
  0.44808012D-04  0.55829221D-02 -0.33573877D-02  0.46684661D-05  0.33342062D-04
 -0.38010529D-04 -0.26216893D-03  0.12460611D-03  0.30822464D-04  0.41497580D-01
  0.74842595D-01  0.11035536D+00  0.65258868D-01  0.35644909D-02 -0.24292094D-03
  0.15090053D-01 -0.96075930D-02  0.17045976D-01  0.89037685D-03  0.21515525D-02
  0.19756157D-02 -0.97887462D-03  0.11361557D-02 -0.92276301D-03  0.47636446D-03
 -0.17453466D-02  0.12689822D-02 -0.32108833D-02  0.62303995D-02 -0.40048650D-02
  0.61480011D-05 -0.22525595D-04  0.16377594D-04  0.17277234D-03  0.38106926D-04
  0.11732164D-03 -0.19049484D-01 -0.34356529D-01 -0.50658682D-01 -0.29957115D-01
 -0.16362812D-02  0.11151297D-03 -0.14307155D-01  0.12915540D-02  0.61468289D-02
 -0.45035351D-02  0.41513696D-02 -0.24201428D-04  0.23763336D-03  0.68512992D-03
 -0.47173721D-03 -0.32093688D-02  0.31118488D-02  0.97520017D-04 -0.21551747D-02
  0.51746908D-02 -0.11574050D-02 -0.41420393D-04  0.40161791D-04  0.12586018D-05
  0.31735863D-04  0.17914341D-03 -0.26308233D-03
MO    5     MO 0.0        OCC NO =    2.0000000  ORB. ENERGY =   -0.346078
  0.38199979D-14  0.71213446D-14  0.12036327D-13  0.18094542D-13  0.22231236D-13
  0.18777832D-13  0.70823075D-14 -0.35050735D-16 -0.28535310D-14 -0.53427104D-14
 -0.90964216D-14 -0.14070781D-13 -0.18530724D-13 -0.19254609D-13 -0.12235440D-13
  0.81999070D-14  0.49654695D-13 -0.61167566D-12 -0.63832825D-13  0.49924563D+00
  0.46807451D+00  0.33329694D+00  0.22722345D+00  0.21303643D+00  0.15169463D+00
 -0.41963245D-01 -0.39343209D-01 -0.28014709D-01  0.11258046D+00  0.51239149D-01
 -0.94627599D-02  0.17663015D-01  0.80390311D-02 -0.14846347D-02  0.31074366D-03
  0.14142988D-03 -0.26119032D-04 -0.61417269D-15  0.79943408D-15 -0.18526140D-15
 -0.31979011D-02  0.17316061D-01  0.38046108D-01  0.47131875D-14 -0.27936967D-14
 -0.19194907D-14 -0.59935158D-03  0.32453814D-02  0.71306130D-02  0.41681378D-14
 -0.17785716D-14 -0.23895662D-14 -0.55527954D-04  0.30067392D-03  0.66062786D-03
 -0.99736104D-04 -0.45393250D-04  0.83831491D-05  0.14960416D-03  0.68089875D-04
 -0.12574724D-04  0.14960416D-03  0.68089875D-04 -0.12574724D-04 -0.64661071D-13
 -0.26755509D-03 -0.12177331D-03  0.22488890D-04  0.40133264D-03  0.18265996D-03
 -0.33733335D-04  0.40133264D-03  0.18265996D-03 -0.33733335D-04 -0.58070371D-13
  0.33397657D-01  0.60234049D-01  0.88815071D-01  0.52520973D-01  0.28687370D-02
 -0.19550514D-03 -0.52382113D-02 -0.11219340D-01 -0.17138123D-01  0.31154207D-02
 -0.20319351D-03 -0.34872155D-02  0.98593929D-03  0.81435237D-03  0.64455402D-03
 -0.24153697D-02  0.84216349D-05  0.24069480D-02  0.11961068D-02  0.35987608D-02
  0.60267232D-02 -0.31172971D-04  0.10869035D-06  0.31064280D-04 -0.23598810D-03
 -0.68189716D-04  0.10137617D-03  0.15319632D-01  0.27629587D-01  0.40739810D-01
  0.24091569D-01  0.13159005D-02 -0.89678948D-04  0.35391500D-02  0.12434198D-01
  0.65154150D-02  0.47259245D-02  0.41368479D-02  0.85282591D-03  0.62271670D-03
 -0.16447247D-03 -0.33427082D-03 -0.35158488D-02  0.29571876D-02  0.55866118D-03
 -0.10950123D-02  0.13076417D-02  0.51765341D-02 -0.45375850D-04  0.38165720D-04
  0.72101297D-05  0.70091976D-04  0.23789036D-03  0.21495645D-03 -0.11224783D-01
 -0.20244358D-01 -0.29850294D-01 -0.17652032D-01 -0.96416792D-03  0.65708283D-04
  0.55273080D-02  0.10446040D-01 -0.63726033D-02  0.50907193D-02  0.37720530D-02
 -0.15119169D-02  0.54044324D-03 -0.82199006D-04  0.19905797D-03  0.37651180D-02
 -0.27079183D-02 -0.10571997D-02  0.15334153D-03  0.15002178D-02  0.49839580D-02
  0.48592940D-04 -0.34948629D-04 -0.13644311D-04 -0.96680779D-04  0.21216332D-03
  0.24068350D-03 -0.37492506D-01 -0.67619278D-01 -0.99704586D-01 -0.58960510D-01
 -0.32204696D-02  0.21947580D-03 -0.72263693D-02 -0.13207498D-01  0.17280934D-01
  0.27506259D-02 -0.56798833D-03  0.28281245D-02  0.10682128D-02  0.89662583D-03
 -0.77976687D-03  0.21661004D-02 -0.25769089D-03 -0.19084095D-02 -0.21377776D-02
  0.37913369D-02  0.62192993D-02  0.27955880D-04 -0.33257810D-05 -0.24630099D-04
  0.20939930D-03 -0.93916758D-04  0.75649132D-04
END DATA
RHF
