 Molden2AIM, Version 4.0.0 (06/02/2016)           Time: Fri Jun 29 05:02:43 2018
GAUSSIAN             13 MOL ORBITALS    368 PRIMITIVES        8 NUCLEI
  C    1    (CENTRE  1)  -0.00000567  0.00000000 -2.35967645  CHARGE =  6.0
  Si   2    (CENTRE  2)  -0.00001323  0.00000000  1.20537315  CHARGE = 14.0
  H    3    (CENTRE  3)  -1.94134210  0.00000000 -3.09774678  CHARGE =  1.0
  H    4    (CENTRE  4)   0.97067672  1.68125532 -3.09771087  CHARGE =  1.0
  H    5    (CENTRE  5)   0.97067672 -1.68125532 -3.09771087  CHARGE =  1.0
  H    6    (CENTRE  6)   2.65185078  0.00000000  2.20256839  CHARGE =  1.0
  H    7    (CENTRE  7)  -1.32593011  2.29657471  2.20260241  CHARGE =  1.0
  H    8    (CENTRE  8)  -1.32593011 -2.29657471  2.20260241  CHARGE =  1.0
CENTRE ASSIGNMENTS    1  1  1  1  1  1  1  1  1  1  1  1  1  1  1  1  1  1  1  1
CENTRE ASSIGNMENTS    1  1  1  1  1  1  1  1  1  1  1  1  1  1  1  1  1  1  1  1
CENTRE ASSIGNMENTS    1  1  1  1  1  1  1  1  1  1  1  1  1  1  1  1  1  1  1  1
CENTRE ASSIGNMENTS    1  1  1  1  1  1  1  1  1  1  1  1  1  1  1  2  2  2  2  2
CENTRE ASSIGNMENTS    2  2  2  2  2  2  2  2  2  2  2  2  2  2  2  2  2  2  2  2
CENTRE ASSIGNMENTS    2  2  2  2  2  2  2  2  2  2  2  2  2  2  2  2  2  2  2  2
CENTRE ASSIGNMENTS    2  2  2  2  2  2  2  2  2  2  2  2  2  2  2  2  2  2  2  2
CENTRE ASSIGNMENTS    2  2  2  2  2  2  2  2  2  2  2  2  2  2  2  2  2  2  2  2
CENTRE ASSIGNMENTS    2  2  2  2  2  2  2  2  2  2  2  2  2  2  2  2  2  2  2  2
CENTRE ASSIGNMENTS    2  2  2  2  2  2  2  2  2  2  2  2  2  2  2  2  2  2  2  2
CENTRE ASSIGNMENTS    2  2  2  2  2  2  3  3  3  3  3  3  3  3  3  3  3  3  3  3
CENTRE ASSIGNMENTS    3  3  3  3  3  3  3  3  3  3  3  3  3  4  4  4  4  4  4  4
CENTRE ASSIGNMENTS    4  4  4  4  4  4  4  4  4  4  4  4  4  4  4  4  4  4  4  4
CENTRE ASSIGNMENTS    5  5  5  5  5  5  5  5  5  5  5  5  5  5  5  5  5  5  5  5
CENTRE ASSIGNMENTS    5  5  5  5  5  5  5  6  6  6  6  6  6  6  6  6  6  6  6  6
CENTRE ASSIGNMENTS    6  6  6  6  6  6  6  6  6  6  6  6  6  6  7  7  7  7  7  7
CENTRE ASSIGNMENTS    7  7  7  7  7  7  7  7  7  7  7  7  7  7  7  7  7  7  7  7
CENTRE ASSIGNMENTS    7  8  8  8  8  8  8  8  8  8  8  8  8  8  8  8  8  8  8  8
CENTRE ASSIGNMENTS    8  8  8  8  8  8  8  8
TYPE ASSIGNMENTS      1  1  1  1  1  1  1  1  1  1  1  1  1  1  1  1  1  1  1  2
TYPE ASSIGNMENTS      2  2  3  3  3  4  4  4  2  3  4  2  3  4  2  3  4  5  6  7
TYPE ASSIGNMENTS      8  9 10  5  6  7  8  9 10  5  6  7  8  9 10 11 12 13 17 14
TYPE ASSIGNMENTS     15 18 19 16 20 11 12 13 17 14 15 18 19 16 20  1  1  1  1  1
TYPE ASSIGNMENTS      1  1  1  1  1  1  1  1  1  1  1  1  1  1  1  1  1  1  1  1
TYPE ASSIGNMENTS      1  1  1  1  1  1  1  1  1  1  1  1  1  1  1  1  1  2  2  2
TYPE ASSIGNMENTS      2  2  2  2  3  3  3  3  3  3  3  4  4  4  4  4  4  4  2  2
TYPE ASSIGNMENTS      2  2  2  2  2  3  3  3  3  3  3  3  4  4  4  4  4  4  4  2
TYPE ASSIGNMENTS      3  4  2  3  4  2  3  4  5  6  7  8  9 10  5  6  7  8  9 10
TYPE ASSIGNMENTS      5  6  7  8  9 10 11 12 13 17 14 15 18 19 16 20 11 12 13 17
TYPE ASSIGNMENTS     14 15 18 19 16 20  1  1  1  1  1  1  2  3  4  2  3  4  2  3
TYPE ASSIGNMENTS      4  5  6  7  8  9 10  5  6  7  8  9 10  1  1  1  1  1  1  2
TYPE ASSIGNMENTS      3  4  2  3  4  2  3  4  5  6  7  8  9 10  5  6  7  8  9 10
TYPE ASSIGNMENTS      1  1  1  1  1  1  2  3  4  2  3  4  2  3  4  5  6  7  8  9
TYPE ASSIGNMENTS     10  5  6  7  8  9 10  1  1  1  1  1  1  2  3  4  2  3  4  2
TYPE ASSIGNMENTS      3  4  5  6  7  8  9 10  5  6  7  8  9 10  1  1  1  1  1  1
TYPE ASSIGNMENTS      2  3  4  2  3  4  2  3  4  5  6  7  8  9 10  5  6  7  8  9
TYPE ASSIGNMENTS     10  1  1  1  1  1  1  2  3  4  2  3  4  2  3  4  5  6  7  8
TYPE ASSIGNMENTS      9 10  5  6  7  8  9 10
EXPONENTS  0.8236000D+04 0.1235000D+04 0.2808000D+03 0.7927000D+02 0.2559000D+02
EXPONENTS  0.8997000D+01 0.3319000D+01 0.3643000D+00 0.8236000D+04 0.1235000D+04
EXPONENTS  0.2808000D+03 0.7927000D+02 0.2559000D+02 0.8997000D+01 0.3319000D+01
EXPONENTS  0.3643000D+00 0.9059000D+00 0.1285000D+00 0.4402000D-01 0.1871000D+02
EXPONENTS  0.4133000D+01 0.1200000D+01 0.1871000D+02 0.4133000D+01 0.1200000D+01
EXPONENTS  0.1871000D+02 0.4133000D+01 0.1200000D+01 0.3827000D+00 0.3827000D+00
EXPONENTS  0.3827000D+00 0.1209000D+00 0.1209000D+00 0.1209000D+00 0.3569000D-01
EXPONENTS  0.3569000D-01 0.3569000D-01 0.1097000D+01 0.1097000D+01 0.1097000D+01
EXPONENTS  0.1097000D+01 0.1097000D+01 0.1097000D+01 0.3180000D+00 0.3180000D+00
EXPONENTS  0.3180000D+00 0.3180000D+00 0.3180000D+00 0.3180000D+00 0.1000000D+00
EXPONENTS  0.1000000D+00 0.1000000D+00 0.1000000D+00 0.1000000D+00 0.1000000D+00
EXPONENTS  0.7610000D+00 0.7610000D+00 0.7610000D+00 0.7610000D+00 0.7610000D+00
EXPONENTS  0.7610000D+00 0.7610000D+00 0.7610000D+00 0.7610000D+00 0.7610000D+00
EXPONENTS  0.2680000D+00 0.2680000D+00 0.2680000D+00 0.2680000D+00 0.2680000D+00
EXPONENTS  0.2680000D+00 0.2680000D+00 0.2680000D+00 0.2680000D+00 0.2680000D+00
EXPONENTS  0.2549000D+06 0.3819000D+05 0.8690000D+04 0.2462000D+04 0.8048000D+03
EXPONENTS  0.2913000D+03 0.1136000D+03 0.4675000D+02 0.1982000D+02 0.7708000D+01
EXPONENTS  0.3340000D+01 0.1402000D+01 0.2070000D+00 0.2549000D+06 0.3819000D+05
EXPONENTS  0.8690000D+04 0.2462000D+04 0.8048000D+03 0.2913000D+03 0.1136000D+03
EXPONENTS  0.4675000D+02 0.1982000D+02 0.7708000D+01 0.3340000D+01 0.1402000D+01
EXPONENTS  0.2070000D+00 0.2549000D+06 0.3819000D+05 0.8690000D+04 0.2462000D+04
EXPONENTS  0.8048000D+03 0.2913000D+03 0.1136000D+03 0.4675000D+02 0.1982000D+02
EXPONENTS  0.7708000D+01 0.3340000D+01 0.1402000D+01 0.2070000D+00 0.4387000D+00
EXPONENTS  0.7944000D-01 0.3300000D-01 0.4815000D+03 0.1139000D+03 0.3623000D+02
EXPONENTS  0.1334000D+02 0.5252000D+01 0.2120000D+01 0.2528000D+00 0.4815000D+03
EXPONENTS  0.1139000D+03 0.3623000D+02 0.1334000D+02 0.5252000D+01 0.2120000D+01
EXPONENTS  0.2528000D+00 0.4815000D+03 0.1139000D+03 0.3623000D+02 0.1334000D+02
EXPONENTS  0.5252000D+01 0.2120000D+01 0.2528000D+00 0.4815000D+03 0.1139000D+03
EXPONENTS  0.3623000D+02 0.1334000D+02 0.5252000D+01 0.2120000D+01 0.2528000D+00
EXPONENTS  0.4815000D+03 0.1139000D+03 0.3623000D+02 0.1334000D+02 0.5252000D+01
EXPONENTS  0.2120000D+01 0.2528000D+00 0.4815000D+03 0.1139000D+03 0.3623000D+02
EXPONENTS  0.1334000D+02 0.5252000D+01 0.2120000D+01 0.2528000D+00 0.8561000D+00
EXPONENTS  0.8561000D+00 0.8561000D+00 0.7889000D-01 0.7889000D-01 0.7889000D-01
EXPONENTS  0.2370000D-01 0.2370000D-01 0.2370000D-01 0.1590000D+00 0.1590000D+00
EXPONENTS  0.1590000D+00 0.1590000D+00 0.1590000D+00 0.1590000D+00 0.4810000D+00
EXPONENTS  0.4810000D+00 0.4810000D+00 0.4810000D+00 0.4810000D+00 0.4810000D+00
EXPONENTS  0.5560000D-01 0.5560000D-01 0.5560000D-01 0.5560000D-01 0.5560000D-01
EXPONENTS  0.5560000D-01 0.3360000D+00 0.3360000D+00 0.3360000D+00 0.3360000D+00
EXPONENTS  0.3360000D+00 0.3360000D+00 0.3360000D+00 0.3360000D+00 0.3360000D+00
EXPONENTS  0.3360000D+00 0.1250000D+00 0.1250000D+00 0.1250000D+00 0.1250000D+00
EXPONENTS  0.1250000D+00 0.1250000D+00 0.1250000D+00 0.1250000D+00 0.1250000D+00
EXPONENTS  0.1250000D+00 0.3387000D+02 0.5095000D+01 0.1159000D+01 0.3258000D+00
EXPONENTS  0.1027000D+00 0.2526000D-01 0.1407000D+01 0.1407000D+01 0.1407000D+01
EXPONENTS  0.3880000D+00 0.3880000D+00 0.3880000D+00 0.1020000D+00 0.1020000D+00
EXPONENTS  0.1020000D+00 0.1057000D+01 0.1057000D+01 0.1057000D+01 0.1057000D+01
EXPONENTS  0.1057000D+01 0.1057000D+01 0.2470000D+00 0.2470000D+00 0.2470000D+00
EXPONENTS  0.2470000D+00 0.2470000D+00 0.2470000D+00 0.3387000D+02 0.5095000D+01
EXPONENTS  0.1159000D+01 0.3258000D+00 0.1027000D+00 0.2526000D-01 0.1407000D+01
EXPONENTS  0.1407000D+01 0.1407000D+01 0.3880000D+00 0.3880000D+00 0.3880000D+00
EXPONENTS  0.1020000D+00 0.1020000D+00 0.1020000D+00 0.1057000D+01 0.1057000D+01
EXPONENTS  0.1057000D+01 0.1057000D+01 0.1057000D+01 0.1057000D+01 0.2470000D+00
EXPONENTS  0.2470000D+00 0.2470000D+00 0.2470000D+00 0.2470000D+00 0.2470000D+00
EXPONENTS  0.3387000D+02 0.5095000D+01 0.1159000D+01 0.3258000D+00 0.1027000D+00
EXPONENTS  0.2526000D-01 0.1407000D+01 0.1407000D+01 0.1407000D+01 0.3880000D+00
EXPONENTS  0.3880000D+00 0.3880000D+00 0.1020000D+00 0.1020000D+00 0.1020000D+00
EXPONENTS  0.1057000D+01 0.1057000D+01 0.1057000D+01 0.1057000D+01 0.1057000D+01
EXPONENTS  0.1057000D+01 0.2470000D+00 0.2470000D+00 0.2470000D+00 0.2470000D+00
EXPONENTS  0.2470000D+00 0.2470000D+00 0.3387000D+02 0.5095000D+01 0.1159000D+01
EXPONENTS  0.3258000D+00 0.1027000D+00 0.2526000D-01 0.1407000D+01 0.1407000D+01
EXPONENTS  0.1407000D+01 0.3880000D+00 0.3880000D+00 0.3880000D+00 0.1020000D+00
EXPONENTS  0.1020000D+00 0.1020000D+00 0.1057000D+01 0.1057000D+01 0.1057000D+01
EXPONENTS  0.1057000D+01 0.1057000D+01 0.1057000D+01 0.2470000D+00 0.2470000D+00
EXPONENTS  0.2470000D+00 0.2470000D+00 0.2470000D+00 0.2470000D+00 0.3387000D+02
EXPONENTS  0.5095000D+01 0.1159000D+01 0.3258000D+00 0.1027000D+00 0.2526000D-01
EXPONENTS  0.1407000D+01 0.1407000D+01 0.1407000D+01 0.3880000D+00 0.3880000D+00
EXPONENTS  0.3880000D+00 0.1020000D+00 0.1020000D+00 0.1020000D+00 0.1057000D+01
EXPONENTS  0.1057000D+01 0.1057000D+01 0.1057000D+01 0.1057000D+01 0.1057000D+01
EXPONENTS  0.2470000D+00 0.2470000D+00 0.2470000D+00 0.2470000D+00 0.2470000D+00
EXPONENTS  0.2470000D+00 0.3387000D+02 0.5095000D+01 0.1159000D+01 0.3258000D+00
EXPONENTS  0.1027000D+00 0.2526000D-01 0.1407000D+01 0.1407000D+01 0.1407000D+01
EXPONENTS  0.3880000D+00 0.3880000D+00 0.3880000D+00 0.1020000D+00 0.1020000D+00
EXPONENTS  0.1020000D+00 0.1057000D+01 0.1057000D+01 0.1057000D+01 0.1057000D+01
EXPONENTS  0.1057000D+01 0.1057000D+01 0.2470000D+00 0.2470000D+00 0.2470000D+00
EXPONENTS  0.2470000D+00 0.2470000D+00 0.2470000D+00
MO    1     MO 0.0        OCC NO =    2.0000000  ORB. ENERGY =  -65.415668
  0.12369420D-03  0.23059412D-03  0.38974468D-03  0.58591392D-03  0.71986295D-03
  0.60803934D-03  0.22933007D-03 -0.11349673D-05 -0.89706714D-04 -0.16795927D-03
 -0.28596503D-03 -0.44234442D-03 -0.58255205D-03 -0.60530889D-03 -0.38464663D-03
  0.25778122D-03  0.18214815D-03  0.24801943D-03 -0.13997584D-03 -0.25808900D-08
 -0.24197485D-08 -0.17230050D-08  0.45131647D-15  0.42313787D-15  0.30129937D-15
  0.26847760D-03  0.25171481D-03  0.17923594D-03 -0.10687107D-09 -0.19066658D-14
 -0.11176774D-03  0.11309676D-07 -0.20061008D-14  0.93776418D-03  0.38872467D-09
  0.34620571D-17 -0.21201468D-04 -0.10137046D-03 -0.10137184D-03  0.20274230D-03
 -0.26867954D-15 -0.30602779D-08  0.35497174D-15  0.16414351D-03  0.16413824D-03
 -0.32828175D-03 -0.13652532D-14  0.48111164D-08  0.77920696D-15 -0.15809969D-04
 -0.15812682D-04  0.31622651D-04 -0.31707770D-15 -0.17219270D-07  0.11040238D-15
 -0.90231912D-04 -0.23108533D-16 -0.61526313D-05  0.27069449D-03 -0.24486751D-16
  0.92273843D-05  0.12428362D-08  0.93812350D-16  0.92305097D-05  0.72592742D-15
  0.10408919D-04 -0.92388200D-17 -0.91385337D-04 -0.31231565D-04  0.81593415D-17
  0.13707525D-03  0.48078761D-08  0.19557118D-16  0.13708077D-03  0.21754694D-15
  0.50700996D+00  0.94839184D+00  0.16378301D+01  0.26455225D+01  0.39841025D+01
  0.54183606D+01  0.61682542D+01  0.49971317D+01  0.20284345D+01  0.18496533D+00
 -0.71082586D-02  0.23769505D-02  0.13338907D-03 -0.30862171D-02 -0.57765487D-02
 -0.99907631D-02 -0.16238180D-01 -0.24844282D-01 -0.35255753D-01 -0.44225415D-01
 -0.45091642D-01 -0.27705201D-01  0.60381219D-02  0.22116747D-01  0.10115422D-01
 -0.53693212D-04  0.16368677D-02  0.30615140D-02  0.53017128D-02  0.86081115D-02
  0.13213277D-01  0.18768871D-01  0.23811289D-01  0.24651118D-01  0.15878316D-01
 -0.39053543D-02 -0.15919426D-01 -0.13884510D-01  0.70762689D-02 -0.28499103D-02
 -0.11572881D-01  0.52011731D-03  0.53106195D-07  0.70049808D-07  0.77808128D-07
  0.66592791D-07  0.38050586D-07  0.12348244D-07  0.86947554D-11  0.61697852D-14
  0.81382646D-14  0.90396128D-14  0.77366345D-14  0.44206508D-14  0.14345975D-14
  0.10101415D-17  0.84110409D-03  0.11094596D-02  0.12323371D-02  0.10547069D-02
  0.60265103D-03  0.19557340D-03  0.13770887D-06 -0.48586630D-07 -0.66441592D-07
 -0.72228703D-07 -0.66302172D-07 -0.36137376D-07 -0.15249279D-07  0.52592913D-08
 -0.51943556D-14 -0.71032145D-14 -0.77219096D-14 -0.70883093D-14 -0.38634164D-14
 -0.16302875D-14  0.56226639D-15 -0.66269201D-03 -0.90622280D-03 -0.98515547D-03
 -0.90432120D-03 -0.49289178D-03 -0.20799086D-03  0.71733526D-04 -0.86582905D-09
 -0.26958569D-15 -0.12923540D-03 -0.11713488D-07  0.62780078D-15  0.24143067D-04
  0.53364525D-09  0.46589455D-17  0.22794878D-05  0.72156613D-04  0.72155604D-04
 -0.14431222D-03 -0.55209203D-16 -0.57737539D-09 -0.21290693D-16 -0.48081131D-05
 -0.48068430D-05  0.96149561D-05 -0.17609205D-15 -0.88406647D-08  0.19302872D-15
  0.16769471D-05  0.16759670D-05 -0.33529141D-05 -0.45171431D-17  0.78385853D-09
  0.11786230D-16  0.16558742D-03  0.57904118D-17 -0.18542918D-03 -0.49675463D-03
  0.94981314D-17  0.27813880D-03 -0.76272205D-08 -0.26869367D-16  0.27814874D-03
 -0.18878644D-16 -0.36917900D-04 -0.32902416D-17  0.57550009D-04  0.11075213D-03
 -0.38163853D-17 -0.86323167D-04  0.15676785D-08  0.13687110D-16 -0.86326861D-04
  0.11377413D-16 -0.12448831D-04 -0.22451979D-04 -0.33105429D-04  0.15851220D-03
  0.98021412D-03 -0.69877218D-05 -0.14213477D-03 -0.50464079D-16 -0.53989206D-04
  0.15170053D-03 -0.19521439D-15 -0.14368732D-03  0.11873256D-03 -0.31635083D-15
  0.16956083D-03  0.84243364D-04  0.23645613D-04 -0.10788898D-03 -0.62094710D-16
 -0.10030771D-03  0.37540618D-16 -0.19245525D-04 -0.43353593D-06  0.19679061D-04
 -0.11309107D-15 -0.16580967D-04 -0.12479442D-15 -0.12449256D-04 -0.22452746D-04
 -0.33106561D-04  0.15851859D-03  0.98012607D-03 -0.69891051D-05  0.71069338D-04
  0.12308983D-03 -0.53988807D-04 -0.75854158D-04 -0.13137214D-03 -0.14368681D-03
 -0.59362708D-04 -0.10280525D-03  0.16957415D-03  0.38790777D-04  0.69091711D-04
 -0.10788249D-03  0.52480664D-04  0.50149465D-04  0.86872806D-04 -0.51348536D-05
 -0.14544190D-04  0.19679043D-04 -0.16290870D-04  0.82963243D-05  0.14357263D-04
 -0.12449256D-04 -0.22452746D-04 -0.33106561D-04  0.15851859D-03  0.98012607D-03
 -0.69891051D-05  0.71069338D-04 -0.12308983D-03 -0.53988807D-04 -0.75854158D-04
  0.13137214D-03 -0.14368681D-03 -0.59362708D-04  0.10280525D-03  0.16957415D-03
  0.38790777D-04  0.69091711D-04 -0.10788249D-03 -0.52480664D-04  0.50149465D-04
 -0.86872806D-04 -0.51348536D-05 -0.14544190D-04  0.19679043D-04  0.16290870D-04
  0.82963243D-05 -0.14357263D-04  0.61286250D-04  0.11053228D-03  0.16297978D-03
 -0.75880959D-03  0.36250574D-02 -0.45438597D-04 -0.20893592D-03 -0.68632697D-16
 -0.65894604D-04  0.89907014D-03  0.37199864D-16  0.37722163D-03 -0.48619752D-03
 -0.12843435D-15 -0.20784911D-03 -0.26760658D-03  0.19314260D-03  0.74463976D-04
  0.19648588D-17 -0.37068543D-03 -0.87392622D-17 -0.11858590D-03  0.61017613D-04
  0.57568290D-04  0.34564963D-16 -0.17140236D-03  0.17237882D-16  0.61285518D-04
  0.11053096D-03  0.16297783D-03 -0.75879943D-03  0.36250330D-02 -0.45434928D-04
  0.10446636D-03 -0.18094238D-03 -0.65903123D-04 -0.44952935D-03  0.77861550D-03
  0.37723891D-03  0.24309618D-03 -0.42105098D-03 -0.20784945D-03  0.77956106D-04
 -0.15241763D-03  0.74461524D-04  0.39901629D-03  0.18534541D-03 -0.32103699D-03
  0.16119773D-04 -0.73683798D-04  0.57564025D-04  0.15553829D-03  0.85703599D-04
 -0.14844247D-03  0.61285518D-04  0.11053096D-03  0.16297783D-03 -0.75879943D-03
  0.36250330D-02 -0.45434928D-04  0.10446636D-03  0.18094238D-03 -0.65903123D-04
 -0.44952935D-03 -0.77861550D-03  0.37723891D-03  0.24309618D-03  0.42105098D-03
 -0.20784945D-03  0.77956106D-04 -0.15241763D-03  0.74461524D-04 -0.39901629D-03
  0.18534541D-03  0.32103699D-03  0.16119773D-04 -0.73683798D-04  0.57564025D-04
 -0.15553829D-03  0.85703599D-04  0.14844247D-03
MO    2     MO 0.0        OCC NO =    2.0000000  ORB. ENERGY =   -9.879370
  0.32992043D+00  0.61504669D+00  0.10395373D+01  0.15627650D+01  0.19200374D+01
  0.16217785D+01  0.61167518D+00 -0.30272146D-02 -0.34992055D-02 -0.65516168D-02
 -0.11154688D-01 -0.17254607D-01 -0.22723710D-01 -0.23611390D-01 -0.15003978D-01
  0.10055317D-01  0.35857998D-01  0.24564747D-02 -0.49218322D-03 -0.72704577D-08
 -0.68165163D-08 -0.48537657D-08 -0.12276151D-13 -0.11509672D-13 -0.81955719D-14
  0.44524186D-03  0.41744255D-03  0.29724396D-03  0.58553283D-07  0.55759461D-13
 -0.45736653D-02  0.45684596D-07  0.64206459D-13 -0.47676442D-03  0.10254756D-08
 -0.21566214D-15 -0.50627088D-04  0.10191111D-02  0.10190891D-02 -0.20382003D-02
  0.73877679D-14  0.12374963D-06 -0.97636806D-14  0.75327786D-03  0.75330262D-03
 -0.15065805D-02  0.38820998D-13  0.88609453D-08 -0.28676142D-13  0.23861634D-04
  0.23864327D-04 -0.47725961D-04  0.81395341D-14  0.25165141D-09 -0.54566193D-14
 -0.15634189D-02  0.72410488D-15  0.11334270D-02  0.46903421D-02  0.58061033D-15
 -0.17002012D-02 -0.85294583D-07 -0.27529250D-14 -0.17000799D-02 -0.19537133D-13
  0.12109274D-03 -0.70207109D-15 -0.31698804D-03 -0.36329584D-03 -0.24889141D-15
  0.47549969D-03  0.17611337D-07  0.23551047D-14  0.47546444D-03 -0.85215189D-14
  0.23816553D-03  0.44550258D-03  0.76936293D-03  0.12427217D-02  0.18715133D-02
  0.25452492D-02  0.28975082D-02  0.23473790D-02  0.95284751D-03  0.86886586D-04
 -0.33390708D-05  0.11165612D-05  0.62658886D-07 -0.49255251D-03 -0.92192269D-03
 -0.15945007D-02 -0.25915727D-02 -0.39650851D-02 -0.56267298D-02 -0.70582653D-02
 -0.71965129D-02 -0.44216807D-02  0.96366912D-03  0.35297774D-02  0.16143959D-02
 -0.85693020D-05  0.30276083D-03  0.56626846D-03  0.98062353D-03  0.15921867D-02
  0.24439744D-02  0.34715566D-02  0.44042202D-02  0.45595579D-02  0.29369094D-02
 -0.72234814D-03 -0.29445133D-02 -0.25681279D-02  0.13088517D-02  0.37934113D-03
 -0.16936994D-02  0.48685449D-03  0.23908851D-06  0.31537007D-06  0.35029868D-06
  0.29980629D-06  0.17130691D-06  0.55592825D-07  0.39144513D-10 -0.43611694D-14
 -0.57526072D-14 -0.63897335D-14 -0.54687112D-14 -0.31247777D-14 -0.10140585D-14
 -0.71402784D-18 -0.23676396D-01 -0.31230387D-01 -0.34689288D-01 -0.29689141D-01
 -0.16964137D-01 -0.55052321D-02 -0.38763928D-05 -0.21050997D-06 -0.28786968D-06
 -0.31294333D-06 -0.28726562D-06 -0.15657143D-06 -0.66070135D-07  0.22786788D-07
  0.24481382D-14  0.33477976D-14  0.36393932D-14  0.33407726D-14  0.18208567D-14
  0.76836657D-15 -0.26500031D-15  0.20867812D-01  0.28536465D-01  0.31022012D-01
  0.28476585D-01  0.15520895D-01  0.65495196D-02 -0.22588499D-02 -0.55540370D-08
  0.50707534D-15  0.44190636D-03 -0.72508466D-08  0.10109480D-13 -0.69715017D-03
 -0.11977453D-09  0.31741105D-15 -0.30863316D-04 -0.20941095D-03 -0.20940877D-03
  0.41881971D-03 -0.48599550D-14  0.17218520D-07  0.42597099D-14 -0.43690017D-03
 -0.43691622D-03  0.87381639D-03  0.91556205D-15  0.84883686D-08 -0.31497468D-16
 -0.15422699D-04 -0.15422529D-04  0.30845228D-04 -0.69348514D-15  0.13692585D-08
 -0.76930242D-16 -0.10475700D-03  0.27509534D-15 -0.70136452D-04  0.31427023D-03
  0.15823476D-15  0.10521595D-03  0.77978827D-09 -0.98352079D-15  0.10519340D-03
 -0.26540084D-14 -0.23699825D-04  0.30204592D-16 -0.58271108D-05  0.71100020D-04
  0.21609463D-16  0.87416030D-05 -0.54408394D-09 -0.11222324D-15  0.87397294D-05
 -0.11377552D-14  0.66387093D-04  0.11973186D-03  0.17654455D-03 -0.25461904D-02
 -0.11958738D-02 -0.62455590D-04 -0.22972168D-02  0.25663761D-14 -0.63702535D-03
 -0.33767279D-02  0.34168465D-14 -0.19291784D-02 -0.37675646D-03  0.67428585D-14
 -0.27177382D-03 -0.28298973D-02  0.18851358D-02  0.94476143D-03 -0.56218070D-15
 -0.39926515D-02  0.99057423D-15 -0.30113553D-03  0.22950915D-03  0.71626379D-04
  0.28477131D-14 -0.53346221D-03  0.31159454D-14  0.66384842D-04  0.11972780D-03
  0.17653857D-03 -0.25462755D-02 -0.11959654D-02 -0.62456585D-04  0.11486202D-02
  0.19894546D-02 -0.63699255D-03  0.16884166D-02  0.29243669D-02 -0.19290923D-02
  0.18839275D-03  0.32629618D-03 -0.27176717D-03  0.70633270D-03 -0.16511765D-02
  0.94484382D-03 -0.40834180D-02  0.19962593D-02  0.34575902D-02  0.96838868D-04
 -0.16848044D-03  0.71641571D-04 -0.45956397D-03  0.26672278D-03  0.46197431D-03
  0.66384842D-04  0.11972780D-03  0.17653857D-03 -0.25462755D-02 -0.11959654D-02
 -0.62456585D-04  0.11486202D-02 -0.19894546D-02 -0.63699255D-03  0.16884166D-02
 -0.29243669D-02 -0.19290923D-02  0.18839275D-03 -0.32629618D-03 -0.27176717D-03
  0.70633270D-03 -0.16511765D-02  0.94484382D-03  0.40834180D-02  0.19962593D-02
 -0.34575902D-02  0.96838868D-04 -0.16848044D-03  0.71641571D-04  0.45956397D-03
  0.26672278D-03 -0.46197431D-03 -0.37772599D-04 -0.68124439D-04 -0.10044945D-03
  0.70049021D-03  0.11612260D-02  0.16124892D-04 -0.89604934D-04 -0.14832818D-14
  0.52460122D-04 -0.29704919D-03  0.23766502D-14 -0.32003097D-03 -0.11214631D-03
  0.98707482D-15 -0.13171780D-03  0.13773990D-03 -0.10693735D-03 -0.30802544D-04
 -0.11006541D-14  0.27062448D-03 -0.36133960D-15 -0.10375583D-05 -0.18987690D-04
  0.20025248D-04 -0.91705243D-15 -0.15881172D-04 -0.10663072D-15 -0.37775692D-04
 -0.68130016D-04 -0.10045767D-03  0.70051767D-03  0.11612372D-02  0.16125685D-04
  0.44801408D-04 -0.77585401D-04  0.52468819D-04  0.14853536D-03 -0.25728312D-03
 -0.32004015D-03  0.56074059D-04 -0.97126792D-04 -0.13171793D-03 -0.45767628D-04
  0.76577568D-04 -0.30809940D-04 -0.21191328D-03 -0.13531885D-03  0.23438203D-03
 -0.14503051D-04 -0.55228312D-05  0.20025882D-04 -0.15550059D-04  0.79410388D-05
 -0.13749305D-04 -0.37775692D-04 -0.68130016D-04 -0.10045767D-03  0.70051767D-03
  0.11612372D-02  0.16125685D-04  0.44801408D-04  0.77585401D-04  0.52468819D-04
  0.14853536D-03  0.25728312D-03 -0.32004015D-03  0.56074059D-04  0.97126792D-04
 -0.13171793D-03 -0.45767628D-04  0.76577568D-04 -0.30809940D-04  0.21191328D-03
 -0.13531885D-03 -0.23438203D-03 -0.14503051D-04 -0.55228312D-05  0.20025882D-04
  0.15550059D-04  0.79410388D-05  0.13749305D-04
MO    3     MO 0.0        OCC NO =    2.0000000  ORB. ENERGY =   -5.046599
 -0.95044911D-04 -0.17718532D-03 -0.29947441D-03 -0.45020813D-03 -0.55313271D-03
 -0.46720900D-03 -0.17621404D-03  0.87209314D-06  0.49796385D-04  0.93234544D-04
  0.15873979D-03  0.24554631D-03  0.32337586D-03  0.33600823D-03  0.21351815D-03
 -0.14309490D-03 -0.27927517D-03  0.14635879D-02  0.24478447D-03  0.25869955D-08
  0.24254728D-08  0.17270811D-08  0.23087332D-14  0.21645841D-14  0.15413128D-14
  0.12212566D-03  0.11450057D-03  0.81531226D-04 -0.77949492D-08 -0.12006190D-13
 -0.13369464D-03 -0.43200099D-08 -0.62731736D-16 -0.13310493D-02 -0.84583541D-09
 -0.11882079D-15  0.45269536D-04  0.39706477D-04  0.39701952D-04 -0.79408429D-04
 -0.26239356D-14 -0.47236640D-09 -0.30665545D-14  0.41695100D-04  0.41700143D-04
 -0.83395243D-04 -0.72303736D-14  0.71807806D-08  0.10806464D-13  0.33368983D-04
  0.33374216D-04 -0.66743199D-04 -0.66235260D-15  0.25040773D-07  0.23496415D-14
  0.30999980D-04 -0.12861890D-16  0.36498234D-04 -0.92996992D-04 -0.20218243D-15
 -0.54747191D-04 -0.29475862D-08  0.24076810D-15 -0.54747510D-04  0.37559385D-14
 -0.86487883D-04 -0.16105071D-15  0.53268695D-04  0.25946517D-03  0.12292972D-15
 -0.79901678D-04 -0.15229963D-08  0.36022241D-15 -0.79904408D-04  0.17303063D-14
 -0.40430728D-02 -0.75628046D-02 -0.13060624D-01 -0.21096312D-01 -0.31770611D-01
 -0.43207882D-01 -0.49187792D-01 -0.39848857D-01 -0.16175438D-01 -0.14749775D-02
  0.56683713D-04 -0.18954625D-04 -0.10636906D-05 -0.12748349D+00 -0.23861398D+00
 -0.41269206D+00 -0.67075635D+00 -0.10262517D+01 -0.14563221D+01 -0.18268352D+01
 -0.18626167D+01 -0.11444288D+01  0.24941888D+00  0.91358446D+00  0.41784137D+00
 -0.22179249D-02 -0.25672666D-02 -0.48016848D-02 -0.83152170D-02 -0.13500979D-01
 -0.20723730D-01 -0.29437135D-01 -0.37345674D-01 -0.38662863D-01 -0.24903582D-01
  0.61251656D-02  0.24968060D-01  0.21776493D-01 -0.11098434D-01  0.33237895D-01
  0.15739240D-01 -0.10129044D-02 -0.33953483D-06 -0.44786394D-06 -0.49746682D-06
 -0.42576148D-06 -0.24327669D-06 -0.78948588D-07 -0.55589980D-10  0.89098849D-13
  0.11752597D-12  0.13054249D-12  0.11172597D-12  0.63839320D-13  0.20717251D-13
  0.14587614D-16 -0.40446756D-03 -0.53351356D-03 -0.59260251D-03 -0.50718422D-03
 -0.28980099D-03 -0.94046738D-04 -0.66221023D-07  0.41252617D-07  0.56412423D-07
  0.61325986D-07  0.56294049D-07  0.30682542D-07  0.12947444D-07 -0.44654163D-08
 -0.71492201D-13 -0.97764666D-13 -0.10628004D-12 -0.97559518D-13 -0.53173899D-13
 -0.22438364D-13  0.77387197D-14  0.63986999D-03  0.87501399D-03  0.95122834D-03
  0.87317788D-03  0.47591740D-03  0.20082800D-03 -0.69263142D-04 -0.14059727D-07
 -0.66132074D-14  0.18444082D-04  0.26047438D-07  0.11286092D-13 -0.31942382D-03
 -0.82252989D-09  0.41610480D-15 -0.67085117D-05 -0.11318406D-03 -0.11318559D-03
  0.22636965D-03 -0.82537092D-14  0.70339306D-08  0.61032315D-14 -0.11091621D-04
 -0.11092908D-04  0.22184530D-04 -0.29439870D-14  0.11551039D-07  0.17796350D-14
 -0.45155558D-05 -0.45142336D-05  0.90297894D-05 -0.67839624D-15 -0.96308327D-09
  0.72469882D-16 -0.14585604D-03  0.83368296D-15  0.11681372D-03  0.43756282D-03
 -0.77617057D-18 -0.17521539D-03  0.52994224D-08 -0.25002727D-14 -0.17522576D-03
 -0.52657551D-14  0.38948371D-04  0.22895689D-15 -0.61248607D-04 -0.11684382D-03
 -0.12069793D-15  0.91871323D-04 -0.12917706D-08 -0.56617274D-15  0.91874497D-04
 -0.10601432D-14  0.27579405D-05  0.49740593D-05  0.73342475D-05 -0.87021891D-03
 -0.18128889D-02  0.13583125D-04  0.12601170D-04  0.10732940D-14  0.58621707D-04
 -0.30205998D-03 -0.17656791D-14 -0.24383801D-03 -0.22148220D-03 -0.13045017D-14
 -0.35345165D-03 -0.87727200D-04  0.18391185D-07  0.87708809D-04  0.55416082D-15
 -0.66423593D-04  0.78527325D-15  0.46344329D-04  0.44440436D-04 -0.90784765D-04
 -0.52072101D-15  0.57355476D-05 -0.14093706D-14  0.27577104D-05  0.49736442D-05
  0.73336355D-05 -0.87022457D-03 -0.18128104D-02  0.13585650D-04 -0.63035003D-05
 -0.10912287D-04  0.58621931D-04  0.15104057D-03  0.26158795D-03 -0.24382769D-03
  0.11074181D-03  0.19178607D-03 -0.35347562D-03 -0.21918703D-04 -0.65791474D-04
  0.87710177D-04 -0.75991778D-04  0.33215180D-04  0.57511377D-04  0.44913313D-04
  0.45870262D-04 -0.90783575D-04  0.16476164D-05 -0.28735014D-05 -0.49655084D-05
  0.27577104D-05  0.49736442D-05  0.73336355D-05 -0.87022457D-03 -0.18128104D-02
  0.13585650D-04 -0.63035003D-05  0.10912287D-04  0.58621931D-04  0.15104057D-03
 -0.26158795D-03 -0.24382769D-03  0.11074181D-03 -0.19178607D-03 -0.35347562D-03
 -0.21918703D-04 -0.65791474D-04  0.87710177D-04  0.75991778D-04  0.33215180D-04
 -0.57511377D-04  0.44913313D-04  0.45870262D-04 -0.90783575D-04 -0.16476164D-05
 -0.28735014D-05  0.49655084D-05 -0.41828007D-04 -0.75438533D-04 -0.11123407D-03
  0.91589602D-03 -0.45368672D-02  0.10051675D-03  0.26075497D-03 -0.40406457D-14
  0.94175980D-04 -0.82017673D-03  0.53430498D-14 -0.37882722D-03  0.63980490D-03
  0.87074656D-15  0.32474129D-03  0.23552711D-03 -0.20556767D-03 -0.29959441D-04
 -0.14939937D-14  0.41262267D-03 -0.45470718D-15  0.81676408D-04 -0.27396982D-04
 -0.54279426D-04 -0.14243658D-14  0.11680470D-03 -0.34278333D-15 -0.41827713D-04
 -0.75438003D-04 -0.11123329D-03  0.91589092D-03 -0.45367964D-02  0.10051192D-03
 -0.13037791D-03  0.22582210D-03  0.94183297D-04  0.41008740D-03 -0.71029755D-03
 -0.37884139D-03 -0.31989699D-03  0.55406983D-03  0.32474085D-03 -0.95294439D-04
  0.12525273D-03 -0.29958293D-04 -0.38199916D-03 -0.20631392D-03  0.35735276D-03
 -0.13190701D-06  0.54407525D-04 -0.54275618D-04 -0.94458292D-04 -0.58403732D-04
  0.10115740D-03 -0.41827713D-04 -0.75438003D-04 -0.11123329D-03  0.91589092D-03
 -0.45367964D-02  0.10051192D-03 -0.13037791D-03 -0.22582210D-03  0.94183297D-04
  0.41008740D-03  0.71029755D-03 -0.37884139D-03 -0.31989699D-03 -0.55406983D-03
  0.32474085D-03 -0.95294439D-04  0.12525273D-03 -0.29958293D-04  0.38199916D-03
 -0.20631392D-03 -0.35735276D-03 -0.13190700D-06  0.54407525D-04 -0.54275618D-04
  0.94458292D-04 -0.58403732D-04 -0.10115740D-03
MO    4     MO 0.0        OCC NO =    2.0000000  ORB. ENERGY =   -3.457188
 -0.91136150D-08 -0.16989850D-07 -0.28715840D-07 -0.43169314D-07 -0.53038490D-07
 -0.44799484D-07 -0.16896717D-07  0.83622795D-10  0.10544698D-07  0.19743001D-07
  0.33614148D-07  0.51995976D-07  0.68476871D-07  0.71151855D-07  0.45213810D-07
 -0.30301244D-07 -0.44840222D-07  0.27653343D-06  0.98201881D-07 -0.16357500D-03
 -0.15336196D-03 -0.10920285D-03 -0.13949580D-11 -0.13078618D-11 -0.93127548D-12
 -0.70527888D-07 -0.66124378D-07 -0.47084497D-07  0.25988877D-03  0.22175952D-11
  0.42198831D-07 -0.85278322D-03 -0.72602181D-11  0.10910938D-06 -0.37138239D-04
 -0.31728451D-12  0.79961706D-08  0.30421191D-04 -0.30378236D-04 -0.42955184D-07
 -0.51950199D-12  0.53321928D-03  0.45440418D-11  0.17406040D-03 -0.17413061D-03
  0.70208607D-07 -0.29638555D-11  0.18592465D-03  0.15840050D-11  0.80264364D-05
 -0.80392971D-05  0.12860673D-07 -0.13485256D-12  0.48966174D-04  0.41651719D-12
 -0.31785748D-03 -0.27097075D-11  0.12850880D-07 -0.31787801D-03 -0.27096227D-11
  0.11228796D-03  0.12714504D-02  0.10838745D-10 -0.11232652D-03 -0.19169548D-11
  0.16969236D-03  0.14464594D-11  0.72599422D-08  0.16968982D-03  0.14464868D-11
  0.14114202D-05 -0.67876689D-03 -0.57858651D-11 -0.14332000D-05 -0.25111643D-13
  0.52871495D-08  0.98899229D-08  0.17079452D-07  0.27587768D-07  0.41546611D-07
  0.56503195D-07  0.64323158D-07  0.52110579D-07  0.21152714D-07  0.19288365D-08
 -0.74125617D-10  0.24787072D-10  0.13909943D-11 -0.17533693D-07 -0.32818246D-07
 -0.56760419D-07 -0.92253802D-07 -0.14114756D-06 -0.20029815D-06 -0.25125739D-06
 -0.25617868D-06 -0.15740127D-06  0.34304320D-07  0.12565165D-06  0.57468640D-07
 -0.30504669D-09  0.62029207D-08  0.11601627D-07  0.20090875D-07  0.32620494D-07
  0.50071798D-07  0.71124756D-07  0.90233034D-07  0.93415571D-07  0.60170979D-07
 -0.14799365D-07 -0.60326768D-07 -0.52615438D-07  0.26815566D-07  0.13868276D-07
 -0.30657925D-07 -0.59994071D-07  0.62429438D+01  0.82347646D+01  0.91468006D+01
  0.78283720D+01  0.44730689D+01  0.14516084D+01  0.10221193D-02  0.53219367D-07