 Molden2AIM, Version 4.0.0 (06/02/2016)           Time: Fri Jun 29 04:26:16 2018
GAUSSIAN             21 MOL ORBITALS    337 PRIMITIVES        3 NUCLEI
  O    1    (CENTRE  1)   1.23994569  2.54263973 -0.06619333  CHARGE =  8.0
  Cl   2    (CENTRE  2)   4.47521917  2.61201346 -0.07755247  CHARGE = 17.0
  Cl   3    (CENTRE  3)   0.09525354 -0.44435965  0.42312291  CHARGE = 17.0
CENTRE ASSIGNMENTS    1  1  1  1  1  1  1  1  1  1  1  1  1  1  1  1  1  1  1  1
CENTRE ASSIGNMENTS    1  1  1  1  1  1  1  1  1  1  1  1  1  1  1  1  1  1  1  1
CENTRE ASSIGNMENTS    1  1  1  1  1  1  1  1  1  1  1  1  1  1  1  1  1  1  1  1
CENTRE ASSIGNMENTS    1  1  1  1  1  1  1  1  1  1  1  1  1  1  1  2  2  2  2  2
CENTRE ASSIGNMENTS    2  2  2  2  2  2  2  2  2  2  2  2  2  2  2  2  2  2  2  2
CENTRE ASSIGNMENTS    2  2  2  2  2  2  2  2  2  2  2  2  2  2  2  2  2  2  2  2
CENTRE ASSIGNMENTS    2  2  2  2  2  2  2  2  2  2  2  2  2  2  2  2  2  2  2  2
CENTRE ASSIGNMENTS    2  2  2  2  2  2  2  2  2  2  2  2  2  2  2  2  2  2  2  2
CENTRE ASSIGNMENTS    2  2  2  2  2  2  2  2  2  2  2  2  2  2  2  2  2  2  2  2
CENTRE ASSIGNMENTS    2  2  2  2  2  2  2  2  2  2  2  2  2  2  2  2  2  2  2  2
CENTRE ASSIGNMENTS    2  2  2  2  2  2  3  3  3  3  3  3  3  3  3  3  3  3  3  3
CENTRE ASSIGNMENTS    3  3  3  3  3  3  3  3  3  3  3  3  3  3  3  3  3  3  3  3
CENTRE ASSIGNMENTS    3  3  3  3  3  3  3  3  3  3  3  3  3  3  3  3  3  3  3  3
CENTRE ASSIGNMENTS    3  3  3  3  3  3  3  3  3  3  3  3  3  3  3  3  3  3  3  3
CENTRE ASSIGNMENTS    3  3  3  3  3  3  3  3  3  3  3  3  3  3  3  3  3  3  3  3
CENTRE ASSIGNMENTS    3  3  3  3  3  3  3  3  3  3  3  3  3  3  3  3  3  3  3  3
CENTRE ASSIGNMENTS    3  3  3  3  3  3  3  3  3  3  3  3  3  3  3  3  3
TYPE ASSIGNMENTS      1  1  1  1  1  1  1  1  1  1  1  1  1  1  1  1  1  1  1  2
TYPE ASSIGNMENTS      2  2  3  3  3  4  4  4  2  3  4  2  3  4  2  3  4  5  6  7
TYPE ASSIGNMENTS      8  9 10  5  6  7  8  9 10  5  6  7  8  9 10 11 12 13 17 14
TYPE ASSIGNMENTS     15 18 19 16 20 11 12 13 17 14 15 18 19 16 20  1  1  1  1  1
TYPE ASSIGNMENTS      1  1  1  1  1  1  1  1  1  1  1  1  1  1  1  1  1  1  1  1
TYPE ASSIGNMENTS      1  1  1  1  1  1  1  1  1  1  1  1  1  1  1  1  1  2  2  2
TYPE ASSIGNMENTS      2  2  2  2  3  3  3  3  3  3  3  4  4  4  4  4  4  4  2  2
TYPE ASSIGNMENTS      2  2  2  2  2  3  3  3  3  3  3  3  4  4  4  4  4  4  4  2
TYPE ASSIGNMENTS      3  4  2  3  4  2  3  4  5  6  7  8  9 10  5  6  7  8  9 10
TYPE ASSIGNMENTS      5  6  7  8  9 10 11 12 13 17 14 15 18 19 16 20 11 12 13 17
TYPE ASSIGNMENTS     14 15 18 19 16 20  1  1  1  1  1  1  1  1  1  1  1  1  1  1
TYPE ASSIGNMENTS      1  1  1  1  1  1  1  1  1  1  1  1  1  1  1  1  1  1  1  1
TYPE ASSIGNMENTS      1  1  1  1  1  1  1  1  2  2  2  2  2  2  2  3  3  3  3  3
TYPE ASSIGNMENTS      3  3  4  4  4  4  4  4  4  2  2  2  2  2  2  2  3  3  3  3
TYPE ASSIGNMENTS      3  3  3  4  4  4  4  4  4  4  2  3  4  2  3  4  2  3  4  5
TYPE ASSIGNMENTS      6  7  8  9 10  5  6  7  8  9 10  5  6  7  8  9 10 11 12 13
TYPE ASSIGNMENTS     17 14 15 18 19 16 20 11 12 13 17 14 15 18 19 16 20
EXPONENTS  0.1533000D+05 0.2299000D+04 0.5224000D+03 0.1473000D+03 0.4755000D+02
EXPONENTS  0.1676000D+02 0.6207000D+01 0.6882000D+00 0.1533000D+05 0.2299000D+04
EXPONENTS  0.5224000D+03 0.1473000D+03 0.4755000D+02 0.1676000D+02 0.6207000D+01
EXPONENTS  0.6882000D+00 0.1752000D+01 0.2384000D+00 0.7376000D-01 0.3446000D+02
EXPONENTS  0.7749000D+01 0.2280000D+01 0.3446000D+02 0.7749000D+01 0.2280000D+01
EXPONENTS  0.3446000D+02 0.7749000D+01 0.2280000D+01 0.7156000D+00 0.7156000D+00
EXPONENTS  0.7156000D+00 0.2140000D+00 0.2140000D+00 0.2140000D+00 0.5974000D-01
EXPONENTS  0.5974000D-01 0.5974000D-01 0.2314000D+01 0.2314000D+01 0.2314000D+01
EXPONENTS  0.2314000D+01 0.2314000D+01 0.2314000D+01 0.6450000D+00 0.6450000D+00
EXPONENTS  0.6450000D+00 0.6450000D+00 0.6450000D+00 0.6450000D+00 0.2140000D+00
EXPONENTS  0.2140000D+00 0.2140000D+00 0.2140000D+00 0.2140000D+00 0.2140000D+00
EXPONENTS  0.1428000D+01 0.1428000D+01 0.1428000D+01 0.1428000D+01 0.1428000D+01
EXPONENTS  0.1428000D+01 0.1428000D+01 0.1428000D+01 0.1428000D+01 0.1428000D+01
EXPONENTS  0.5000000D+00 0.5000000D+00 0.5000000D+00 0.5000000D+00 0.5000000D+00
EXPONENTS  0.5000000D+00 0.5000000D+00 0.5000000D+00 0.5000000D+00 0.5000000D+00
EXPONENTS  0.4561000D+06 0.6833000D+05 0.1555000D+05 0.4405000D+04 0.1439000D+04
EXPONENTS  0.5204000D+03 0.2031000D+03 0.8396000D+02 0.3620000D+02 0.1583000D+02
EXPONENTS  0.6334000D+01 0.2694000D+01 0.4313000D+00 0.4561000D+06 0.6833000D+05
EXPONENTS  0.1555000D+05 0.4405000D+04 0.1439000D+04 0.5204000D+03 0.2031000D+03
EXPONENTS  0.8396000D+02 0.3620000D+02 0.1583000D+02 0.6334000D+01 0.2694000D+01
EXPONENTS  0.4313000D+00 0.4561000D+06 0.6833000D+05 0.1555000D+05 0.4405000D+04
EXPONENTS  0.1439000D+04 0.5204000D+03 0.2031000D+03 0.8396000D+02 0.3620000D+02
EXPONENTS  0.1583000D+02 0.6334000D+01 0.2694000D+01 0.4313000D+00 0.9768000D+00
EXPONENTS  0.1625000D+00 0.5910000D-01 0.6633000D+03 0.1568000D+03 0.4998000D+02
EXPONENTS  0.1842000D+02 0.7240000D+01 0.2922000D+01 0.3818000D+00 0.6633000D+03
EXPONENTS  0.1568000D+03 0.4998000D+02 0.1842000D+02 0.7240000D+01 0.2922000D+01
EXPONENTS  0.3818000D+00 0.6633000D+03 0.1568000D+03 0.4998000D+02 0.1842000D+02
EXPONENTS  0.7240000D+01 0.2922000D+01 0.3818000D+00 0.6633000D+03 0.1568000D+03
EXPONENTS  0.4998000D+02 0.1842000D+02 0.7240000D+01 0.2922000D+01 0.3818000D+00
EXPONENTS  0.6633000D+03 0.1568000D+03 0.4998000D+02 0.1842000D+02 0.7240000D+01
EXPONENTS  0.2922000D+01 0.3818000D+00 0.6633000D+03 0.1568000D+03 0.4998000D+02
EXPONENTS  0.1842000D+02 0.7240000D+01 0.2922000D+01 0.3818000D+00 0.1022000D+01
EXPONENTS  0.1022000D+01 0.1022000D+01 0.1301000D+00 0.1301000D+00 0.1301000D+00
EXPONENTS  0.4190000D-01 0.4190000D-01 0.4190000D-01 0.1046000D+01 0.1046000D+01
EXPONENTS  0.1046000D+01 0.1046000D+01 0.1046000D+01 0.1046000D+01 0.3440000D+00
EXPONENTS  0.3440000D+00 0.3440000D+00 0.3440000D+00 0.3440000D+00 0.3440000D+00
EXPONENTS  0.1350000D+00 0.1350000D+00 0.1350000D+00 0.1350000D+00 0.1350000D+00
EXPONENTS  0.1350000D+00 0.7060000D+00 0.7060000D+00 0.7060000D+00 0.7060000D+00
EXPONENTS  0.7060000D+00 0.7060000D+00 0.7060000D+00 0.7060000D+00 0.7060000D+00
EXPONENTS  0.7060000D+00 0.3120000D+00 0.3120000D+00 0.3120000D+00 0.3120000D+00
EXPONENTS  0.3120000D+00 0.3120000D+00 0.3120000D+00 0.3120000D+00 0.3120000D+00
EXPONENTS  0.3120000D+00 0.4561000D+06 0.6833000D+05 0.1555000D+05 0.4405000D+04
EXPONENTS  0.1439000D+04 0.5204000D+03 0.2031000D+03 0.8396000D+02 0.3620000D+02
EXPONENTS  0.1583000D+02 0.6334000D+01 0.2694000D+01 0.4313000D+00 0.4561000D+06
EXPONENTS  0.6833000D+05 0.1555000D+05 0.4405000D+04 0.1439000D+04 0.5204000D+03
EXPONENTS  0.2031000D+03 0.8396000D+02 0.3620000D+02 0.1583000D+02 0.6334000D+01
EXPONENTS  0.2694000D+01 0.4313000D+00 0.4561000D+06 0.6833000D+05 0.1555000D+05
EXPONENTS  0.4405000D+04 0.1439000D+04 0.5204000D+03 0.2031000D+03 0.8396000D+02
EXPONENTS  0.3620000D+02 0.1583000D+02 0.6334000D+01 0.2694000D+01 0.4313000D+00
EXPONENTS  0.9768000D+00 0.1625000D+00 0.5910000D-01 0.6633000D+03 0.1568000D+03
EXPONENTS  0.4998000D+02 0.1842000D+02 0.7240000D+01 0.2922000D+01 0.3818000D+00
EXPONENTS  0.6633000D+03 0.1568000D+03 0.4998000D+02 0.1842000D+02 0.7240000D+01
EXPONENTS  0.2922000D+01 0.3818000D+00 0.6633000D+03 0.1568000D+03 0.4998000D+02
EXPONENTS  0.1842000D+02 0.7240000D+01 0.2922000D+01 0.3818000D+00 0.6633000D+03
EXPONENTS  0.1568000D+03 0.4998000D+02 0.1842000D+02 0.7240000D+01 0.2922000D+01
EXPONENTS  0.3818000D+00 0.6633000D+03 0.1568000D+03 0.4998000D+02 0.1842000D+02
EXPONENTS  0.7240000D+01 0.2922000D+01 0.3818000D+00 0.6633000D+03 0.1568000D+03
EXPONENTS  0.4998000D+02 0.1842000D+02 0.7240000D+01 0.2922000D+01 0.3818000D+00
EXPONENTS  0.1022000D+01 0.1022000D+01 0.1022000D+01 0.1301000D+00 0.1301000D+00
EXPONENTS  0.1301000D+00 0.4190000D-01 0.4190000D-01 0.4190000D-01 0.1046000D+01
EXPONENTS  0.1046000D+01 0.1046000D+01 0.1046000D+01 0.1046000D+01 0.1046000D+01
EXPONENTS  0.3440000D+00 0.3440000D+00 0.3440000D+00 0.3440000D+00 0.3440000D+00
EXPONENTS  0.3440000D+00 0.1350000D+00 0.1350000D+00 0.1350000D+00 0.1350000D+00
EXPONENTS  0.1350000D+00 0.1350000D+00 0.7060000D+00 0.7060000D+00 0.7060000D+00
EXPONENTS  0.7060000D+00 0.7060000D+00 0.7060000D+00 0.7060000D+00 0.7060000D+00
EXPONENTS  0.7060000D+00 0.7060000D+00 0.3120000D+00 0.3120000D+00 0.3120000D+00
EXPONENTS  0.3120000D+00 0.3120000D+00 0.3120000D+00 0.3120000D+00 0.3120000D+00
EXPONENTS  0.3120000D+00 0.3120000D+00
MO    1     MO 0.0        OCC NO =    2.0000000  ORB. ENERGY = -100.764288
  0.15986089D-05  0.29796012D-05  0.50524165D-05  0.76470676D-05  0.95413077D-05
  0.81947108D-05  0.31461088D-05 -0.14072738D-07 -0.11899452D-05 -0.22317718D-05
 -0.38046816D-05 -0.59459768D-05 -0.79509039D-05 -0.84897117D-05 -0.51904433D-05
  0.34243392D-05  0.10343571D-05  0.10212014D-04  0.91881351D-05 -0.52684101D-04
 -0.51085856D-04 -0.34462217D-04 -0.43293807D-04 -0.41980429D-04 -0.28319750D-04
  0.70921328D-05  0.68769832D-05  0.46391722D-05 -0.12185295D-03 -0.86272529D-04
  0.14132613D-04 -0.83696566D-04 -0.59144610D-04  0.96886891D-05 -0.38211832D-05
 -0.37144799D-05  0.60848457D-06 -0.25008370D-03  0.25498101D-03 -0.48973043D-05
  0.19346443D-03 -0.31693371D-04 -0.87491997D-04  0.41916482D-04 -0.44476278D-04
  0.25597957D-05 -0.35266911D-04  0.57774114D-05  0.15835413D-04  0.47044645D-04
 -0.46757417D-04 -0.28722859D-06 -0.33422235D-04  0.54752476D-05  0.15644902D-04
 -0.88116633D-04 -0.13092222D-03 -0.30959405D-04  0.52405195D-05  0.22141865D-03
 -0.36273234D-04  0.25910938D-03  0.17134803D-03  0.12915145D-03  0.85469246D-04
  0.44104502D-04  0.55979585D-04  0.17787804D-04  0.15739839D-04 -0.68429084D-04
  0.11210503D-04 -0.14805335D-03 -0.99509671D-04 -0.64573914D-04 -0.55143535D-04
 -0.42086973D+00 -0.78744888D+00 -0.13605372D+01 -0.22055895D+01 -0.33493636D+01
 -0.46552216D+01 -0.55343869D+01 -0.49296061D+01 -0.24472041D+01 -0.39428379D+00
 -0.60533064D-02 -0.10817199D-02 -0.40422185D-04  0.69867753D-03  0.13050293D-02
  0.22649417D-02  0.36750799D-02  0.56885871D-02  0.81426957D-02  0.10628761D-01
  0.11326719D-01  0.84669523D-02  0.44695537D-03 -0.57431546D-02 -0.34120937D-02
  0.12792793D-04 -0.28813650D-03 -0.53776526D-03 -0.93458870D-03 -0.15146933D-02
 -0.23525559D-02 -0.33701042D-02 -0.44499086D-02 -0.48116712D-02 -0.37724126D-02
 -0.18771400D-03  0.32339114D-02  0.33476978D-02 -0.15148806D-02  0.21156742D-02
  0.47303640D-03  0.83820089D-04  0.51234837D-02  0.67487779D-02  0.74454830D-02
  0.61843295D-02  0.32846476D-02  0.84720643D-03 -0.87089941D-06  0.17036329D-02
  0.22440668D-02  0.24757314D-02  0.20563795D-02  0.10921931D-02  0.28170846D-03
 -0.28958672D-06 -0.27907338D-03 -0.36760227D-03 -0.40555142D-03 -0.33685707D-03
 -0.17891297D-03 -0.46146875D-04  0.47437418D-07 -0.42356638D-02 -0.55611160D-02
 -0.63317397D-02 -0.53614571D-02 -0.30712491D-02 -0.69860261D-03  0.32698447D-03
 -0.14823351D-02 -0.19461973D-02 -0.22158888D-02 -0.18763237D-02 -0.10748304D-02
 -0.24448663D-03  0.11443320D-03  0.24282301D-03  0.31880881D-03  0.36298728D-03
  0.30736272D-03  0.17606920D-03  0.40049635D-04 -0.18745433D-04 -0.22261172D-03
 -0.98416547D-04  0.16121806D-04 -0.23886854D-03 -0.75188709D-04  0.12316712D-04
 -0.35762352D-05 -0.14772979D-05  0.24199904D-06 -0.16271262D-03  0.63611462D-04
  0.99101158D-04 -0.84259900D-04  0.13802242D-04  0.11948049D-04  0.12593640D-04
 -0.41351033D-05 -0.84585365D-05 -0.15354828D-04  0.25154350D-05 -0.14555832D-05
  0.43028409D-04 -0.12413392D-04 -0.30615017D-04  0.41004275D-04 -0.67169078D-05
 -0.61278068D-05  0.88410425D-04 -0.30883661D-04  0.97643449D-05 -0.32102954D-04
  0.15067487D-03 -0.24681716D-04 -0.23312832D-03 -0.58023889D-04 -0.46113185D-05
 -0.67677789D-04 -0.33112251D-04  0.82691877D-05 -0.39159611D-05  0.11228350D-04
 -0.47850774D-04  0.78382558D-05  0.88108401D-04  0.23043211D-04  0.39096275D-05
  0.25882692D-04  0.45153732D+00  0.84482807D+00  0.14596757D+01  0.23663046D+01
  0.35934223D+01  0.49944345D+01  0.59376621D+01  0.52888127D+01  0.26255250D+01
  0.42301414D+00  0.64943939D-02  0.11605418D-02  0.43367636D-04 -0.74357066D-03
 -0.13888832D-02 -0.24104742D-02 -0.39112200D-02 -0.60541041D-02 -0.86659000D-02
 -0.11311706D-01 -0.12054511D-01 -0.90109915D-02 -0.47567423D-03  0.61121778D-02
  0.36313358D-02 -0.13614787D-04  0.30598743D-03  0.57108145D-03  0.99248930D-03
  0.16085332D-02  0.24983039D-02  0.35788924D-02  0.47255939D-02  0.51097688D-02
  0.40061250D-02  0.19934345D-03 -0.34342620D-02 -0.35550978D-02  0.16087321D-02
 -0.22624284D-02 -0.50112230D-03 -0.88624153D-04  0.34564951D-02  0.45529797D-02
  0.50230032D-02  0.41721816D-02  0.22159470D-02  0.57155737D-03 -0.58754154D-06
  0.44977089D-02  0.59244920D-02  0.65361026D-02  0.54289845D-02  0.28834655D-02
  0.74372988D-03 -0.76452903D-06 -0.73678922D-03 -0.97051675D-03 -0.10707073D-02
 -0.88934552D-03 -0.47235301D-03 -0.12183362D-03  0.12524082D-06 -0.29249709D-02
 -0.38402724D-02 -0.43724326D-02 -0.37023964D-02 -0.21208752D-02 -0.48242553D-03
  0.22580170D-03 -0.36904982D-02 -0.48453536D-02 -0.55167916D-02 -0.46713925D-02
 -0.26759535D-02 -0.60868658D-03  0.28489882D-03  0.60455730D-03  0.79373941D-03
  0.90373072D-03  0.76524205D-03  0.43836011D-03  0.99711717D-04 -0.46670571D-04
 -0.17482788D-03 -0.18822921D-03  0.30834552D-04 -0.15480337D-03 -0.20715401D-03
  0.33934871D-04 -0.28682536D-05 -0.30974565D-05  0.50740823D-06 -0.15217008D-04
  0.11466520D-03 -0.99448191D-04  0.21278931D-03 -0.34858009D-04 -0.72084421D-04
  0.70183885D-05 -0.14424153D-04  0.74057642D-05  0.36986303D-05 -0.60589359D-06
  0.73494095D-05 -0.63718304D-05 -0.24086471D-04  0.30458301D-04 -0.67961197D-04
  0.11133000D-04  0.18363283D-04 -0.17600245D-04  0.26309230D-04  0.33629726D-04
  0.18538312D-03  0.11359048D-03 -0.18607551D-04 -0.13258238D-03 -0.19251817D-03
 -0.82281627D-04 -0.10704722D-03  0.40667039D-05 -0.11715462D-04 -0.12439909D-04
 -0.63259290D-04 -0.35958268D-04  0.58903777D-05  0.51059178D-04  0.71104654D-04
  0.31429349D-04  0.38486808D-04
MO    2     MO 0.0        OCC NO =    2.0000000  ORB. ENERGY = -100.764283
  0.45450890D-04  0.84714611D-04  0.14364791D-03  0.21741780D-03  0.27127394D-03
  0.23298814D-03  0.89448676D-04 -0.40010942D-06 -0.33832977D-04 -0.63454587D-04
 -0.10817616D-03 -0.16905828D-03 -0.22606314D-03 -0.24138272D-03 -0.14757666D-03
  0.97362120D-04  0.29415809D-04  0.29050022D-03  0.26136166D-03  0.90677930D-04
  0.87927090D-04  0.59315095D-04 -0.12244521D-03 -0.11873067D-03 -0.80095006D-04
  0.20058630D-04  0.19450124D-04  0.13120938D-04  0.21190300D-04 -0.20561828D-04
  0.33683902D-05  0.13033788D-04 -0.12000053D-04  0.19658223D-05  0.14392810D-04
 -0.19768496D-04  0.32384190D-05  0.24742688D-03  0.84213597D-04 -0.33164048D-03
  0.36650314D-03 -0.60037112D-04 -0.14000352D-03 -0.77564860D-04 -0.28413441D-04
  0.10597830D-03 -0.11701128D-03  0.19167694D-04  0.45245003D-04 -0.16929372D-04
 -0.10308192D-04  0.27237564D-04 -0.50887275D-05  0.83346514D-06  0.12640392D-04
  0.15744751D-03 -0.76160105D-04 -0.35241323D-04 -0.29486641D-03  0.29419299D-04
 -0.48179942D-05 -0.17747611D-03  0.19906102D-03  0.11054196D-03  0.39520719D-04
 -0.11061966D-03  0.48999811D-04  0.19304622D-04  0.23225381D-03 -0.38358582D-04
  0.62828791D-05  0.99605184D-04 -0.10864085D-03 -0.64196744D-04 -0.44658067D-04
  0.45149145D+00  0.84474224D+00  0.14595275D+01  0.23660642D+01  0.35930573D+01
  0.49939271D+01  0.59370589D+01  0.52882754D+01  0.26252583D+01  0.42297117D+00
  0.64937341D-02  0.11604239D-02  0.43363231D-04 -0.66381798D-03 -0.12399167D-02
 -0.21519355D-02 -0.34917168D-02 -0.54047630D-02 -0.77364271D-02 -0.10098454D-01
 -0.10761588D-01 -0.80445054D-02 -0.42465515D-03  0.54566079D-02  0.32418520D-02
 -0.12154514D-04  0.26431706D-03  0.49330971D-03  0.85732886D-03  0.13894779D-02
  0.21580767D-02  0.30915071D-02  0.40820471D-02  0.44139038D-02  0.34605578D-02
  0.17219621D-03 -0.29665729D-02 -0.30709529D-02  0.13896497D-02 -0.21640902D-02
 -0.41657993D-03 -0.71357023D-04 -0.48171548D-02 -0.63452740D-02 -0.70003237D-02
 -0.58145735D-02 -0.30882612D-02 -0.79655266D-03  0.81882905D-06 -0.24634984D-03
 -0.32449802D-03 -0.35799734D-03 -0.29735794D-03 -0.15793402D-03 -0.40735792D-04
  0.41875009D-07  0.40347658D-04  0.53146920D-04  0.58633503D-04  0.48701864D-04
  0.25866743D-04  0.66717876D-05 -0.68583709D-08  0.39239155D-02  0.51518134D-02
  0.58657186D-02  0.49668496D-02  0.28452027D-02  0.64718490D-03 -0.30291815D-03
  0.17919817D-03  0.23527406D-03  0.26787683D-03  0.22682710D-03  0.12993529D-03
  0.29555772D-04 -0.13833728D-04 -0.29348901D-04 -0.38532956D-04 -0.43872605D-04
 -0.37149520D-04 -0.21280676D-04 -0.48406154D-05  0.22656744D-05  0.22842585D-03
  0.24850866D-04 -0.40705628D-05  0.15994298D-03 -0.33391355D-06  0.54967033D-07
  0.49542070D-05  0.23142651D-05 -0.37910540D-06  0.15571189D-03 -0.77153726D-04
 -0.78558162D-04 -0.39476684D-04  0.64676918D-05 -0.47289602D-06  0.16561441D-04
 -0.87263112D-05 -0.78351297D-05  0.17559924D-04 -0.28765136D-05  0.30006184D-06
 -0.30980872D-04  0.17724852D-04  0.13256020D-04 -0.50065781D-06  0.81869130D-07
 -0.15045073D-05 -0.12111288D-03 -0.89583266D-05 -0.15582973D-05  0.20181555D-03
  0.18379640D-04 -0.30120135D-05  0.16152310D-03  0.84953395D-05  0.76869053D-05
 -0.13565083D-04  0.32965852D-04  0.19684591D-05  0.90608675D-07 -0.56849119D-04
 -0.54909363D-05  0.89980492D-06 -0.42048435D-04 -0.41444090D-06 -0.11716309D-05
  0.49828772D-05  0.42082051D+00  0.78735679D+00  0.13603781D+01  0.22053316D+01
  0.33489719D+01  0.46546772D+01  0.55337397D+01  0.49290297D+01  0.24469179D+01
  0.39423768D+00  0.60525985D-02  0.10815934D-02  0.40417458D-04 -0.61311376D-03
 -0.11452085D-02 -0.19875648D-02 -0.32250100D-02 -0.49919324D-02 -0.71454978D-02
 -0.93271066D-02 -0.99395885D-02 -0.74300442D-02 -0.39221883D-03  0.50398173D-02
  0.29942305D-02 -0.11226120D-04  0.24342986D-03  0.45432676D-03  0.78957993D-03
  0.12796768D-02  0.19875384D-02  0.28472061D-02  0.37594704D-02  0.40651026D-02
  0.31870932D-02  0.15858870D-03 -0.27321447D-02 -0.28282762D-02  0.12798350D-02
 -0.20101718D-02 -0.38232932D-03 -0.65294220D-04  0.16022946D-02  0.21105816D-02
  0.23284660D-02  0.19340586D-02  0.10272255D-02  0.26495143D-03 -0.27236106D-06
  0.40941067D-02  0.53928573D-02  0.59495850D-02  0.49418142D-02  0.26247176D-02
  0.67699123D-03 -0.69592396D-06 -0.67067593D-03 -0.88343071D-03 -0.97463103D-03
 -0.80954310D-03 -0.42996801D-03 -0.11090129D-03  0.11400276D-06 -0.12769177D-02
 -0.16764994D-02 -0.19088179D-02 -0.16163086D-02 -0.92588380D-03 -0.21060644D-03
  0.98575405D-04 -0.33402311D-02 -0.43854786D-02 -0.49931900D-02 -0.42280282D-02
 -0.24219773D-02 -0.55091582D-03  0.25785892D-03  0.54718072D-03  0.71840817D-03
  0.81796056D-03  0.69261540D-03  0.39675677D-03  0.90248400D-04 -0.42241218D-04
 -0.87823050D-04 -0.19150223D-03  0.31370877D-04 -0.42227393D-04 -0.13470781D-03
  0.22067216D-04 -0.36700268D-05 -0.36294526D-05  0.59455635D-06 -0.62904127D-04
  0.12890442D-03 -0.66000295D-04  0.99012155D-04 -0.16219765D-04 -0.65617703D-04
 -0.84168920D-06  0.87749820D-05 -0.79332928D-05  0.29171268D-04 -0.47786906D-05
 -0.56250675D-05  0.12742242D-04 -0.22753808D-04  0.10011566D-04 -0.25967715D-04
  0.42539317D-05  0.11030961D-04 -0.48435072D-04  0.76607453D-04  0.20605699D-04
  0.19197591D-03 -0.11519835D-03  0.18871261D-04 -0.46670688D-04 -0.11462401D-03
 -0.80688358D-04 -0.80344282D-04  0.14346048D-04 -0.20518647D-04 -0.51887959D-05
 -0.52048911D-04  0.32759798D-04 -0.53665416D-05  0.90107669D-05  0.28796143D-04
  0.20932929D-04  0.20556753D-04
MO    3     MO 0.0        OCC NO =    2.0000000  ORB. ENERGY =  -18.892362
  0.49636654D+00  0.92516337D+00  0.15687705D+01  0.23744073D+01  0.29625670D+01
  0.25444500D+01  0.97686382D+00 -0.43695718D-02  0.25262442D-03  0.47380337D-03
  0.80773088D-03  0.12623261D-02  0.16879706D-02  0.18023590D-02  0.11019270D-02
 -0.72698449D-03  0.56444751D-01 -0.18915130D-02 -0.10021233D-02  0.46541285D-02
  0.45129391D-02  0.30444021D-02 -0.64954018D-02 -0.62983548D-02 -0.42488330D-02
  0.10640235D-02  0.10317449D-02  0.69600901D-03 -0.59799640D-03  0.83458495D-03
 -0.13671479D-03 -0.63272730D-03  0.88304407D-03 -0.14465874D-03 -0.42037595D-04
  0.58668242D-04 -0.96108385D-05  0.17696077D-02  0.87376819D-03 -0.26433759D-02
  0.22299384D-02 -0.36525021D-03 -0.11840497D-02 -0.57244711D-03 -0.24149038D-03
  0.81393749D-03 -0.84257105D-03  0.13801552D-03  0.35532373D-03 -0.11746417D-03
 -0.49308120D-04  0.16677229D-03 -0.17361110D-03  0.28439192D-04  0.72746836D-04
  0.13820795D-03 -0.51243932D-04 -0.12702174D-04 -0.34873685D-03  0.83314041D-04
 -0.13619047D-04 -0.65887015D-04  0.70417755D-04  0.51725568D-04  0.95198973D-04
 -0.31147190D-03  0.13344693D-03  0.45526200D-04  0.71357262D-03 -0.14512115D-03
  0.23768518D-04  0.22084309D-03 -0.25521965D-03 -0.16034712D-03 -0.16588283D-03
  0.22423183D-04  0.41953862D-04  0.72486980D-04  0.11750985D-03  0.17844808D-03
  0.24802185D-03  0.29486219D-03  0.26264056D-03  0.13038264D-03  0.21006732D-04
  0.32250930D-06  0.57632094D-07  0.21536214D-08 -0.17197464D-04 -0.32122392D-04
 -0.55749970D-04 -0.90459545D-04 -0.14002063D-03 -0.20042681D-03 -0.26161960D-03
 -0.27879934D-03 -0.20840816D-03 -0.11001497D-04  0.14136377D-03  0.83986322D-04
 -0.31488574D-06 -0.65340642D-05 -0.12194889D-04 -0.21193644D-04 -0.34348663D-04
 -0.53348851D-04 -0.76423769D-04 -0.10091047D-03 -0.10911415D-03 -0.85546905D-04
 -0.42567857D-05  0.73335327D-04  0.75915658D-04 -0.34352909D-04 -0.61731154D-03
  0.11416120D-02  0.25228785D-03 -0.20678235D-01 -0.27237876D-01 -0.30049758D-01
 -0.24959779D-01 -0.13256745D-01 -0.34193012D-02  0.35149254D-05 -0.34559729D-03
 -0.45522919D-03 -0.50222444D-03 -0.41715513D-03 -0.22156122D-03 -0.57147102D-04
  0.58745278D-07  0.56590796D-04  0.74542779D-04  0.82238148D-04  0.68308235D-04
  0.36280163D-04  0.93577123D-05 -0.96194101D-08  0.18058982D-01  0.23710119D-01
  0.26995715D-01  0.22858863D-01  0.13094437D-01  0.29785300D-02 -0.13941160D-02
  0.29127004D-03  0.38241622D-03  0.43540900D-03  0.36868645D-03  0.21119780D-03
  0.48040171D-04 -0.22485444D-04 -0.47693812D-04 -0.62618479D-04 -0.71295745D-04
 -0.60370308D-04 -0.34582437D-04 -0.78663046D-05  0.36818635D-05  0.15465501D-02
  0.29882326D-04 -0.48936375D-05 -0.41471882D-03 -0.14134423D-04  0.23149157D-05
 -0.13254616D-04 -0.27596609D-05  0.45204301D-06 -0.17483268D-03  0.71848379D-04
  0.10298430D-03 -0.48617949D-04  0.79645681D-05  0.10482554D-04  0.59680495D-03
 -0.28951558D-03 -0.30728938D-03  0.42879591D-04 -0.70225388D-05 -0.59839237D-05
  0.33932574D-04 -0.19889708D-04 -0.14042866D-04  0.47734745D-05 -0.78186115D-06
  0.19684350D-05 -0.35956432D-03 -0.85609547D-05  0.68389102D-06  0.54804243D-03
  0.30095353D-04 -0.49330710D-05  0.53065054D-03 -0.44124886D-05  0.28813980D-05
 -0.58552469D-05 -0.64451148D-04  0.69450753D-05 -0.11144011D-05  0.97544275D-04
 -0.27646132D-04  0.45286927D-05  0.95809169D-04  0.68109062D-05 -0.11854894D-05
 -0.58403953D-06  0.22424144D-04  0.41955660D-04  0.72490086D-04  0.11751488D-03
  0.17845573D-03  0.24803247D-03  0.29487483D-03  0.26265182D-03  0.13038823D-03
  0.21007632D-04  0.32252312D-06  0.57634564D-07  0.21537137D-08 -0.17199083D-04
 -0.32125417D-04 -0.55755219D-04 -0.90468062D-04 -0.14003381D-03 -0.20044568D-03
 -0.26164423D-03 -0.27882559D-03 -0.20842779D-03 -0.11002533D-04  0.14137708D-03
  0.83994229D-04 -0.31491539D-06 -0.65332296D-05 -0.12193332D-04 -0.21190937D-04
 -0.34344275D-04 -0.53342036D-04 -0.76414007D-04 -0.10089758D-03 -0.10910021D-03
 -0.85535978D-04 -0.42562420D-05  0.73325959D-04  0.75905961D-04 -0.34348521D-04
 -0.61731614D-03  0.11416174D-02  0.25228895D-03  0.72229061D-02  0.95141883D-02
  0.10496379D-01  0.87184489D-02  0.46305800D-02  0.11943617D-02 -0.12277632D-05
  0.19124129D-01  0.25190770D-01  0.27791321D-01  0.23083886D-01  0.12260413D-01
  0.31623181D-02 -0.32507555D-05 -0.31328308D-02 -0.41266413D-02 -0.45526521D-02
 -0.37815009D-02 -0.20084470D-02 -0.51803706D-03  0.53252449D-06 -0.62979230D-02
 -0.82687112D-02 -0.94145360D-02 -0.79718424D-02 -0.45665783D-02 -0.10387381D-02
  0.48618661D-03 -0.16705254D-01 -0.21932774D-01 -0.24972077D-01 -0.21145329D-01
 -0.12112859D-01 -0.27552551D-02  0.12896110D-02  0.27365812D-02  0.35929305D-02
  0.40908158D-02  0.34639348D-02  0.19842752D-02  0.45135377D-03 -0.21125840D-03
 -0.54406302D-03 -0.14289675D-02  0.23408728D-03  0.15174289D-03  0.38114791D-03
 -0.62437791D-04  0.70546914D-05  0.11412369D-04 -0.18695197D-05  0.28192472D-04
 -0.12586891D-03  0.97676434D-04 -0.19028622D-03  0.31171556D-04  0.75260444D-04
 -0.17694695D-03  0.46401604D-03 -0.28706909D-03  0.58280509D-03 -0.95472411D-04
 -0.25286478D-03 -0.12532688D-04  0.25361291D-04 -0.12828603D-04  0.37197061D-04
 -0.60934619D-05 -0.12857124D-04 -0.14502978D-03  0.22982246D-03  0.77843150D-04
  0.58753822D-03 -0.25316241D-03  0.41471984D-04 -0.15244888D-03 -0.43630496D-03
 -0.27500143D-03 -0.24912871D-03 -0.29495559D-04  0.32088990D-04  0.13701444D-04
  0.12258225D-03 -0.19009962D-04  0.31141652D-05 -0.34095574D-04 -0.77257008D-04
 -0.44218498D-04 -0.52748011D-04
MO    4     MO 0.0        OCC NO =    2.0000000  ORB. ENERGY =   -9.243813
 -0.14694258D-05 -0.27388206D-05 -0.46441323D-05 -0.70291106D-05 -0.87702777D-05
 -0.75324989D-05 -0.28918728D-05  0.12935524D-07  0.11632195D-05  0.21816469D-05
  0.37192298D-05  0.58124322D-05  0.77723293D-05  0.82990357D-05  0.50738677D-05
 -0.33474297D-05 -0.96906672D-05 -0.16402830D-04 -0.28253829D-04  0.22059040D-03
  0.21389848D-03  0.14429465D-03  0.17485024D-03  0.16954591D-03  0.11437467D-03
 -0.28642939D-04 -0.27774015D-04 -0.18736187D-04 -0.55985341D-06 -0.94330886D-05
  0.15453145D-05 -0.11784169D-03 -0.87784688D-04  0.14380284D-04 -0.34219742D-04
 -0.20430060D-04  0.33467155D-05  0.43689480D-04 -0.54653208D-04  0.10963727D-04
 -0.46619038D-04  0.76370904D-05  0.22090766D-04 -0.17989687D-03  0.18752330D-03
 -0.76264280D-05  0.14478001D-03 -0.23717786D-04 -0.65700016D-04 -0.14675047D-03
  0.14552823D-03  0.12222364D-05  0.99418092D-04 -0.16286712D-04 -0.48582775D-04
  0.94543743D-04  0.11217242D-03  0.35974495D-04  0.50692827D-05 -0.13520862D-03
  0.22150635D-04 -0.28870051D-03 -0.20130862D-03 -0.13007412D-03 -0.98902146D-04
 -0.73811272D-04 -0.76830619D-04 -0.33099691D-04 -0.47423688D-04  0.43815657D-04
 -0.71789003D-05  0.26885750D-03  0.18667620D-03  0.10647797D-03  0.10648070D-03
  0.24795256D-02  0.46392019D-02  0.80155131D-02  0.12994082D-01  0.19732549D-01
  0.27425923D-01  0.32605466D-01  0.29042442D-01  0.14417538D-01  0.23228963D-02
  0.35662646D-04  0.63728798D-05  0.23814457D-06  0.11306498D+00  0.21118915D+00
  0.36652901D+00  0.59472763D+00  0.92056774D+00  0.13177091D+01  0.17200220D+01
  0.18329704D+01  0.13701826D+01  0.72329505D-01 -0.92939824D+00 -0.55216933D+00
  0.20702210D-02  0.89817166D-03  0.16763080D-02  0.29132758D-02  0.47215630D-02
  0.73333265D-02  0.10505202D-01  0.13871140D-01  0.14998817D-01  0.11759267D-01
  0.58513724D-03 -0.10080665D-01 -0.10435357D-01  0.47221467D-02 -0.52255366D-01
 -0.12586923D-02  0.55888593D-04  0.38615880D-01  0.50865780D-01  0.56116872D-01
  0.46611512D-01  0.24756506D-01  0.63854252D-02 -0.65640000D-05 -0.13428828D-02
 -0.17688781D-02 -0.19514869D-02 -0.16209342D-02 -0.86091752D-03 -0.22205574D-03
  0.22826575D-06  0.22007154D-03  0.28988360D-03  0.31980953D-03  0.26563857D-03
  0.14108710D-03  0.36390478D-04 -0.37408174D-07  0.11910838D-01  0.15638057D-01
  0.17805078D-01  0.15076609D-01  0.86364620D-02  0.19644955D-02 -0.91949200D-03
  0.29234028D-02  0.38382136D-02  0.43700885D-02  0.37004115D-02  0.21197382D-02
  0.48216689D-03 -0.22568064D-03 -0.47887837D-03 -0.62873220D-03 -0.71585786D-03
 -0.60615903D-03 -0.34723123D-03 -0.78983059D-04  0.36968418D-04  0.14873949D-02
  0.20101947D-03 -0.32926936D-04  0.37097834D-03  0.16894889D-03 -0.27675890D-04
 -0.59578633D-05  0.10384711D-05 -0.17012847D-06 -0.10439644D-02  0.51210579D-03
  0.53185861D-03 -0.62431316D-04  0.10220806D-04  0.66483601D-05  0.17398886D-03
 -0.95167308D-04 -0.78821549D-04  0.13855905D-04 -0.22688486D-05  0.55031979D-05
 -0.81661138D-04  0.21460535D-04  0.60200603D-04 -0.91543371D-04  0.14995781D-04
  0.13042307D-04 -0.15889777D-03  0.51378624D-04 -0.16400507D-04  0.36001433D-04
 -0.25156936D-03  0.41208817D-04  0.44069187D-03  0.97433487D-04  0.79927026D-05
  0.13624535D-03  0.40528789D-04 -0.20388741D-04  0.82267484D-05  0.27825126D-04
  0.10974217D-03 -0.17976838D-04 -0.14941149D-03 -0.48575944D-04 -0.67034071D-05
 -0.59669190D-04 -0.26952226D-02 -0.50427717D-02 -0.87127924D-02 -0.14124453D-01
 -0.21449108D-01 -0.29811738D-01 -0.35441856D-01 -0.31568879D-01 -0.15671737D-01
 -0.25249679D-02 -0.38764983D-04 -0.69272644D-05 -0.25886106D-06 -0.12332885D+00
 -0.23036059D+00 -0.39980197D+00 -0.64871612D+00 -0.10041355D+01 -0.14373288D+01
 -0.18761630D+01 -0.19993647D+01 -0.14945657D+01 -0.78895470D-01  0.10137676D+01
  0.60229445D+00 -0.22581526D-02 -0.97099177D-03 -0.18122162D-02 -0.31494723D-02
 -0.51043681D-02 -0.79278828D-02 -0.11356921D-01 -0.14995756D-01 -0.16214860D-01
 -0.12712661D-01 -0.63257779D-03  0.10897964D-01  0.11281413D-01 -0.51049992D-02
  0.56974180D-01  0.13664808D-02 -0.44541324D-04  0.12869576D-01  0.16952120D-01
  0.18702160D-01  0.15534294D-01  0.82506407D-02  0.21280809D-02 -0.21875948D-05
  0.39805595D-01  0.52432902D-01  0.57845775D-01  0.48047565D-01  0.25519229D-01
  0.65821536D-02 -0.67662301D-05 -0.65207872D-02 -0.85893402D-02 -0.94760544D-02
 -0.78709524D-02 -0.41804540D-02 -0.10782610D-02  0.11084157D-05  0.71599536D-02
  0.94004942D-02  0.10703154D-01  0.90629914D-02  0.51916304D-02  0.11809158D-02
 -0.55273359D-03  0.10895820D-01  0.14305413D-01  0.16287765D-01  0.13791810D-01
  0.79004800D-02  0.17970851D-02 -0.84113473D-03 -0.17849029D-02 -0.23434467D-02
 -0.26681865D-02 -0.22593107D-02 -0.12942202D-02 -0.29439019D-03  0.13779081D-03