 Molden2AIM, Version 4.0.0 (06/02/2016)           Time: Fri Jun 29 05:21:03 2018
GAUSSIAN             31 MOL ORBITALS    506 PRIMITIVES        6 NUCLEI
  Cl   1    (CENTRE  1)   0.00000000  0.00000000  0.61818422  CHARGE = 17.0
  F    2    (CENTRE  2)   0.00000000  0.00000000 -2.48543961  CHARGE =  9.0
  F    3    (CENTRE  3)   3.21028375  0.00000000  0.39073300  CHARGE =  9.0
  F    4    (CENTRE  4)   0.00000000  3.21028375  0.39073300  CHARGE =  9.0
  F    5    (CENTRE  5)  -3.21028375  0.00000000  0.39073300  CHARGE =  9.0
  F    6    (CENTRE  6)   0.00000000 -3.21028375  0.39073300  CHARGE =  9.0
CENTRE ASSIGNMENTS    1  1  1  1  1  1  1  1  1  1  1  1  1  1  1  1  1  1  1  1
CENTRE ASSIGNMENTS    1  1  1  1  1  1  1  1  1  1  1  1  1  1  1  1  1  1  1  1
CENTRE ASSIGNMENTS    1  1  1  1  1  1  1  1  1  1  1  1  1  1  1  1  1  1  1  1
CENTRE ASSIGNMENTS    1  1  1  1  1  1  1  1  1  1  1  1  1  1  1  1  1  1  1  1
CENTRE ASSIGNMENTS    1  1  1  1  1  1  1  1  1  1  1  1  1  1  1  1  1  1  1  1
CENTRE ASSIGNMENTS    1  1  1  1  1  1  1  1  1  1  1  1  1  1  1  1  1  1  1  1
CENTRE ASSIGNMENTS    1  1  1  1  1  1  1  1  1  1  1  2  2  2  2  2  2  2  2  2
CENTRE ASSIGNMENTS    2  2  2  2  2  2  2  2  2  2  2  2  2  2  2  2  2  2  2  2
CENTRE ASSIGNMENTS    2  2  2  2  2  2  2  2  2  2  2  2  2  2  2  2  2  2  2  2
CENTRE ASSIGNMENTS    2  2  2  2  2  2  2  2  2  2  2  2  2  2  2  2  2  2  2  2
CENTRE ASSIGNMENTS    2  2  2  2  2  2  3  3  3  3  3  3  3  3  3  3  3  3  3  3
CENTRE ASSIGNMENTS    3  3  3  3  3  3  3  3  3  3  3  3  3  3  3  3  3  3  3  3
CENTRE ASSIGNMENTS    3  3  3  3  3  3  3  3  3  3  3  3  3  3  3  3  3  3  3  3
CENTRE ASSIGNMENTS    3  3  3  3  3  3  3  3  3  3  3  3  3  3  3  3  3  3  3  3
CENTRE ASSIGNMENTS    3  4  4  4  4  4  4  4  4  4  4  4  4  4  4  4  4  4  4  4
CENTRE ASSIGNMENTS    4  4  4  4  4  4  4  4  4  4  4  4  4  4  4  4  4  4  4  4
CENTRE ASSIGNMENTS    4  4  4  4  4  4  4  4  4  4  4  4  4  4  4  4  4  4  4  4
CENTRE ASSIGNMENTS    4  4  4  4  4  4  4  4  4  4  4  4  4  4  4  4  5  5  5  5
CENTRE ASSIGNMENTS    5  5  5  5  5  5  5  5  5  5  5  5  5  5  5  5  5  5  5  5
CENTRE ASSIGNMENTS    5  5  5  5  5  5  5  5  5  5  5  5  5  5  5  5  5  5  5  5
CENTRE ASSIGNMENTS    5  5  5  5  5  5  5  5  5  5  5  5  5  5  5  5  5  5  5  5
CENTRE ASSIGNMENTS    5  5  5  5  5  5  5  5  5  5  5  6  6  6  6  6  6  6  6  6
CENTRE ASSIGNMENTS    6  6  6  6  6  6  6  6  6  6  6  6  6  6  6  6  6  6  6  6
CENTRE ASSIGNMENTS    6  6  6  6  6  6  6  6  6  6  6  6  6  6  6  6  6  6  6  6
CENTRE ASSIGNMENTS    6  6  6  6  6  6  6  6  6  6  6  6  6  6  6  6  6  6  6  6
CENTRE ASSIGNMENTS    6  6  6  6  6  6
TYPE ASSIGNMENTS      1  1  1  1  1  1  1  1  1  1  1  1  1  1  1  1  1  1  1  1
TYPE ASSIGNMENTS      1  1  1  1  1  1  1  1  1  1  1  1  1  1  1  1  1  1  1  1
TYPE ASSIGNMENTS      1  1  2  2  2  2  2  2  2  3  3  3  3  3  3  3  4  4  4  4
TYPE ASSIGNMENTS      4  4  4  2  2  2  2  2  2  2  3  3  3  3  3  3  3  4  4  4
TYPE ASSIGNMENTS      4  4  4  4  2  3  4  2  3  4  2  3  4  5  6  7  8  9 10  5
TYPE ASSIGNMENTS      6  7  8  9 10  5  6  7  8  9 10 11 12 13 17 14 15 18 19 16
TYPE ASSIGNMENTS     20 11 12 13 17 14 15 18 19 16 20  1  1  1  1  1  1  1  1  1
TYPE ASSIGNMENTS      1  1  1  1  1  1  1  1  1  1  2  2  2  3  3  3  4  4  4  2
TYPE ASSIGNMENTS      3  4  2  3  4  2  3  4  5  6  7  8  9 10  5  6  7  8  9 10
TYPE ASSIGNMENTS      5  6  7  8  9 10 11 12 13 17 14 15 18 19 16 20 11 12 13 17
TYPE ASSIGNMENTS     14 15 18 19 16 20  1  1  1  1  1  1  1  1  1  1  1  1  1  1
TYPE ASSIGNMENTS      1  1  1  1  1  2  2  2  3  3  3  4  4  4  2  3  4  2  3  4
TYPE ASSIGNMENTS      2  3  4  5  6  7  8  9 10  5  6  7  8  9 10  5  6  7  8  9
TYPE ASSIGNMENTS     10 11 12 13 17 14 15 18 19 16 20 11 12 13 17 14 15 18 19 16
TYPE ASSIGNMENTS     20  1  1  1  1  1  1  1  1  1  1  1  1  1  1  1  1  1  1  1
TYPE ASSIGNMENTS      2  2  2  3  3  3  4  4  4  2  3  4  2  3  4  2  3  4  5  6
TYPE ASSIGNMENTS      7  8  9 10  5  6  7  8  9 10  5  6  7  8  9 10 11 12 13 17
TYPE ASSIGNMENTS     14 15 18 19 16 20 11 12 13 17 14 15 18 19 16 20  1  1  1  1
TYPE ASSIGNMENTS      1  1  1  1  1  1  1  1  1  1  1  1  1  1  1  2  2  2  3  3
TYPE ASSIGNMENTS      3  4  4  4  2  3  4  2  3  4  2  3  4  5  6  7  8  9 10  5
TYPE ASSIGNMENTS      6  7  8  9 10  5  6  7  8  9 10 11 12 13 17 14 15 18 19 16
TYPE ASSIGNMENTS     20 11 12 13 17 14 15 18 19 16 20  1  1  1  1  1  1  1  1  1
TYPE ASSIGNMENTS      1  1  1  1  1  1  1  1  1  1  2  2  2  3  3  3  4  4  4  2
TYPE ASSIGNMENTS      3  4  2  3  4  2  3  4  5  6  7  8  9 10  5  6  7  8  9 10
TYPE ASSIGNMENTS      5  6  7  8  9 10 11 12 13 17 14 15 18 19 16 20 11 12 13 17
TYPE ASSIGNMENTS     14 15 18 19 16 20
EXPONENTS  0.4561000D+06 0.6833000D+05 0.1555000D+05 0.4405000D+04 0.1439000D+04
EXPONENTS  0.5204000D+03 0.2031000D+03 0.8396000D+02 0.3620000D+02 0.1583000D+02
EXPONENTS  0.6334000D+01 0.2694000D+01 0.4313000D+00 0.4561000D+06 0.6833000D+05
EXPONENTS  0.1555000D+05 0.4405000D+04 0.1439000D+04 0.5204000D+03 0.2031000D+03
EXPONENTS  0.8396000D+02 0.3620000D+02 0.1583000D+02 0.6334000D+01 0.2694000D+01
EXPONENTS  0.4313000D+00 0.4561000D+06 0.6833000D+05 0.1555000D+05 0.4405000D+04
EXPONENTS  0.1439000D+04 0.5204000D+03 0.2031000D+03 0.8396000D+02 0.3620000D+02
EXPONENTS  0.1583000D+02 0.6334000D+01 0.2694000D+01 0.4313000D+00 0.9768000D+00
EXPONENTS  0.1625000D+00 0.5910000D-01 0.6633000D+03 0.1568000D+03 0.4998000D+02
EXPONENTS  0.1842000D+02 0.7240000D+01 0.2922000D+01 0.3818000D+00 0.6633000D+03
EXPONENTS  0.1568000D+03 0.4998000D+02 0.1842000D+02 0.7240000D+01 0.2922000D+01
EXPONENTS  0.3818000D+00 0.6633000D+03 0.1568000D+03 0.4998000D+02 0.1842000D+02
EXPONENTS  0.7240000D+01 0.2922000D+01 0.3818000D+00 0.6633000D+03 0.1568000D+03
EXPONENTS  0.4998000D+02 0.1842000D+02 0.7240000D+01 0.2922000D+01 0.3818000D+00
EXPONENTS  0.6633000D+03 0.1568000D+03 0.4998000D+02 0.1842000D+02 0.7240000D+01
EXPONENTS  0.2922000D+01 0.3818000D+00 0.6633000D+03 0.1568000D+03 0.4998000D+02
EXPONENTS  0.1842000D+02 0.7240000D+01 0.2922000D+01 0.3818000D+00 0.1022000D+01
EXPONENTS  0.1022000D+01 0.1022000D+01 0.1301000D+00 0.1301000D+00 0.1301000D+00
EXPONENTS  0.4190000D-01 0.4190000D-01 0.4190000D-01 0.1046000D+01 0.1046000D+01
EXPONENTS  0.1046000D+01 0.1046000D+01 0.1046000D+01 0.1046000D+01 0.3440000D+00
EXPONENTS  0.3440000D+00 0.3440000D+00 0.3440000D+00 0.3440000D+00 0.3440000D+00
EXPONENTS  0.1350000D+00 0.1350000D+00 0.1350000D+00 0.1350000D+00 0.1350000D+00
EXPONENTS  0.1350000D+00 0.7060000D+00 0.7060000D+00 0.7060000D+00 0.7060000D+00
EXPONENTS  0.7060000D+00 0.7060000D+00 0.7060000D+00 0.7060000D+00 0.7060000D+00
EXPONENTS  0.7060000D+00 0.3120000D+00 0.3120000D+00 0.3120000D+00 0.3120000D+00
EXPONENTS  0.3120000D+00 0.3120000D+00 0.3120000D+00 0.3120000D+00 0.3120000D+00
EXPONENTS  0.3120000D+00 0.1950000D+05 0.2923000D+04 0.6645000D+03 0.1875000D+03
EXPONENTS  0.6062000D+02 0.2142000D+02 0.7950000D+01 0.8815000D+00 0.1950000D+05
EXPONENTS  0.2923000D+04 0.6645000D+03 0.1875000D+03 0.6062000D+02 0.2142000D+02
EXPONENTS  0.7950000D+01 0.8815000D+00 0.2257000D+01 0.3041000D+00 0.9158000D-01
EXPONENTS  0.4388000D+02 0.9926000D+01 0.2930000D+01 0.4388000D+02 0.9926000D+01
EXPONENTS  0.2930000D+01 0.4388000D+02 0.9926000D+01 0.2930000D+01 0.9132000D+00
EXPONENTS  0.9132000D+00 0.9132000D+00 0.2672000D+00 0.2672000D+00 0.2672000D+00
EXPONENTS  0.7361000D-01 0.7361000D-01 0.7361000D-01 0.3107000D+01 0.3107000D+01
EXPONENTS  0.3107000D+01 0.3107000D+01 0.3107000D+01 0.3107000D+01 0.8550000D+00
EXPONENTS  0.8550000D+00 0.8550000D+00 0.8550000D+00 0.8550000D+00 0.8550000D+00
EXPONENTS  0.2920000D+00 0.2920000D+00 0.2920000D+00 0.2920000D+00 0.2920000D+00
EXPONENTS  0.2920000D+00 0.1917000D+01 0.1917000D+01 0.1917000D+01 0.1917000D+01
EXPONENTS  0.1917000D+01 0.1917000D+01 0.1917000D+01 0.1917000D+01 0.1917000D+01
EXPONENTS  0.1917000D+01 0.7240000D+00 0.7240000D+00 0.7240000D+00 0.7240000D+00
EXPONENTS  0.7240000D+00 0.7240000D+00 0.7240000D+00 0.7240000D+00 0.7240000D+00
EXPONENTS  0.7240000D+00 0.1950000D+05 0.2923000D+04 0.6645000D+03 0.1875000D+03
EXPONENTS  0.6062000D+02 0.2142000D+02 0.7950000D+01 0.8815000D+00 0.1950000D+05
EXPONENTS  0.2923000D+04 0.6645000D+03 0.1875000D+03 0.6062000D+02 0.2142000D+02
EXPONENTS  0.7950000D+01 0.8815000D+00 0.2257000D+01 0.3041000D+00 0.9158000D-01
EXPONENTS  0.4388000D+02 0.9926000D+01 0.2930000D+01 0.4388000D+02 0.9926000D+01
EXPONENTS  0.2930000D+01 0.4388000D+02 0.9926000D+01 0.2930000D+01 0.9132000D+00
EXPONENTS  0.9132000D+00 0.9132000D+00 0.2672000D+00 0.2672000D+00 0.2672000D+00
EXPONENTS  0.7361000D-01 0.7361000D-01 0.7361000D-01 0.3107000D+01 0.3107000D+01
EXPONENTS  0.3107000D+01 0.3107000D+01 0.3107000D+01 0.3107000D+01 0.8550000D+00
EXPONENTS  0.8550000D+00 0.8550000D+00 0.8550000D+00 0.8550000D+00 0.8550000D+00
EXPONENTS  0.2920000D+00 0.2920000D+00 0.2920000D+00 0.2920000D+00 0.2920000D+00
EXPONENTS  0.2920000D+00 0.1917000D+01 0.1917000D+01 0.1917000D+01 0.1917000D+01
EXPONENTS  0.1917000D+01 0.1917000D+01 0.1917000D+01 0.1917000D+01 0.1917000D+01
EXPONENTS  0.1917000D+01 0.7240000D+00 0.7240000D+00 0.7240000D+00 0.7240000D+00
EXPONENTS  0.7240000D+00 0.7240000D+00 0.7240000D+00 0.7240000D+00 0.7240000D+00
EXPONENTS  0.7240000D+00 0.1950000D+05 0.2923000D+04 0.6645000D+03 0.1875000D+03
EXPONENTS  0.6062000D+02 0.2142000D+02 0.7950000D+01 0.8815000D+00 0.1950000D+05
EXPONENTS  0.2923000D+04 0.6645000D+03 0.1875000D+03 0.6062000D+02 0.2142000D+02
EXPONENTS  0.7950000D+01 0.8815000D+00 0.2257000D+01 0.3041000D+00 0.9158000D-01
EXPONENTS  0.4388000D+02 0.9926000D+01 0.2930000D+01 0.4388000D+02 0.9926000D+01
EXPONENTS  0.2930000D+01 0.4388000D+02 0.9926000D+01 0.2930000D+01 0.9132000D+00
EXPONENTS  0.9132000D+00 0.9132000D+00 0.2672000D+00 0.2672000D+00 0.2672000D+00
EXPONENTS  0.7361000D-01 0.7361000D-01 0.7361000D-01 0.3107000D+01 0.3107000D+01
EXPONENTS  0.3107000D+01 0.3107000D+01 0.3107000D+01 0.3107000D+01 0.8550000D+00
EXPONENTS  0.8550000D+00 0.8550000D+00 0.8550000D+00 0.8550000D+00 0.8550000D+00
EXPONENTS  0.2920000D+00 0.2920000D+00 0.2920000D+00 0.2920000D+00 0.2920000D+00
EXPONENTS  0.2920000D+00 0.1917000D+01 0.1917000D+01 0.1917000D+01 0.1917000D+01
EXPONENTS  0.1917000D+01 0.1917000D+01 0.1917000D+01 0.1917000D+01 0.1917000D+01
EXPONENTS  0.1917000D+01 0.7240000D+00 0.7240000D+00 0.7240000D+00 0.7240000D+00
EXPONENTS  0.7240000D+00 0.7240000D+00 0.7240000D+00 0.7240000D+00 0.7240000D+00
EXPONENTS  0.7240000D+00 0.1950000D+05 0.2923000D+04 0.6645000D+03 0.1875000D+03
EXPONENTS  0.6062000D+02 0.2142000D+02 0.7950000D+01 0.8815000D+00 0.1950000D+05
EXPONENTS  0.2923000D+04 0.6645000D+03 0.1875000D+03 0.6062000D+02 0.2142000D+02
EXPONENTS  0.7950000D+01 0.8815000D+00 0.2257000D+01 0.3041000D+00 0.9158000D-01
EXPONENTS  0.4388000D+02 0.9926000D+01 0.2930000D+01 0.4388000D+02 0.9926000D+01
EXPONENTS  0.2930000D+01 0.4388000D+02 0.9926000D+01 0.2930000D+01 0.9132000D+00
EXPONENTS  0.9132000D+00 0.9132000D+00 0.2672000D+00 0.2672000D+00 0.2672000D+00
EXPONENTS  0.7361000D-01 0.7361000D-01 0.7361000D-01 0.3107000D+01 0.3107000D+01
EXPONENTS  0.3107000D+01 0.3107000D+01 0.3107000D+01 0.3107000D+01 0.8550000D+00
EXPONENTS  0.8550000D+00 0.8550000D+00 0.8550000D+00 0.8550000D+00 0.8550000D+00
EXPONENTS  0.2920000D+00 0.2920000D+00 0.2920000D+00 0.2920000D+00 0.2920000D+00
EXPONENTS  0.2920000D+00 0.1917000D+01 0.1917000D+01 0.1917000D+01 0.1917000D+01
EXPONENTS  0.1917000D+01 0.1917000D+01 0.1917000D+01 0.1917000D+01 0.1917000D+01
EXPONENTS  0.1917000D+01 0.7240000D+00 0.7240000D+00 0.7240000D+00 0.7240000D+00
EXPONENTS  0.7240000D+00 0.7240000D+00 0.7240000D+00 0.7240000D+00 0.7240000D+00
EXPONENTS  0.7240000D+00 0.1950000D+05 0.2923000D+04 0.6645000D+03 0.1875000D+03
EXPONENTS  0.6062000D+02 0.2142000D+02 0.7950000D+01 0.8815000D+00 0.1950000D+05
EXPONENTS  0.2923000D+04 0.6645000D+03 0.1875000D+03 0.6062000D+02 0.2142000D+02
EXPONENTS  0.7950000D+01 0.8815000D+00 0.2257000D+01 0.3041000D+00 0.9158000D-01
EXPONENTS  0.4388000D+02 0.9926000D+01 0.2930000D+01 0.4388000D+02 0.9926000D+01
EXPONENTS  0.2930000D+01 0.4388000D+02 0.9926000D+01 0.2930000D+01 0.9132000D+00
EXPONENTS  0.9132000D+00 0.9132000D+00 0.2672000D+00 0.2672000D+00 0.2672000D+00
EXPONENTS  0.7361000D-01 0.7361000D-01 0.7361000D-01 0.3107000D+01 0.3107000D+01
EXPONENTS  0.3107000D+01 0.3107000D+01 0.3107000D+01 0.3107000D+01 0.8550000D+00
EXPONENTS  0.8550000D+00 0.8550000D+00 0.8550000D+00 0.8550000D+00 0.8550000D+00
EXPONENTS  0.2920000D+00 0.2920000D+00 0.2920000D+00 0.2920000D+00 0.2920000D+00
EXPONENTS  0.2920000D+00 0.1917000D+01 0.1917000D+01 0.1917000D+01 0.1917000D+01
EXPONENTS  0.1917000D+01 0.1917000D+01 0.1917000D+01 0.1917000D+01 0.1917000D+01
EXPONENTS  0.1917000D+01 0.7240000D+00 0.7240000D+00 0.7240000D+00 0.7240000D+00
EXPONENTS  0.7240000D+00 0.7240000D+00 0.7240000D+00 0.7240000D+00 0.7240000D+00
EXPONENTS  0.7240000D+00
MO    1     MO 0.0        OCC NO =    2.0000000  ORB. ENERGY = -101.095557
  0.61749767D+00  0.11553405D+01  0.19961724D+01  0.32360283D+01  0.49141672D+01
  0.68301145D+01  0.81200208D+01  0.72326900D+01  0.35905239D+01  0.57849093D+00
  0.88813766D-02  0.15870933D-02  0.59307200D-04 -0.14180570D-02 -0.26487269D-02
 -0.45969940D-02 -0.74590531D-02 -0.11545728D-01 -0.16526661D-01 -0.21572455D-01
 -0.22989051D-01 -0.17184782D-01 -0.90715412D-03  0.11656480D-01  0.69252884D-02
 -0.25964640D-04  0.63675434D-03  0.11884102D-02  0.20653524D-02  0.33473286D-02
  0.51989254D-02  0.74476107D-02  0.98338759D-02  0.10633337D-01  0.83366740D-02
  0.41483014D-03 -0.71466374D-02 -0.73980945D-02  0.33477424D-02 -0.36516381D-02
 -0.13714360D-02 -0.35591592D-03  0.31777645D-13  0.41858290D-13  0.46179500D-13
  0.38357383D-13  0.20372538D-13  0.52546718D-14 -0.54016239D-17 -0.15060575D-13
 -0.19838157D-13 -0.21886135D-13 -0.18178951D-13 -0.96552823D-14 -0.24903790D-14
  0.25600249D-17 -0.11744691D-01 -0.15470394D-01 -0.17067469D-01 -0.14176495D-01
 -0.75294808D-02 -0.19420727D-02  0.19963848D-05 -0.20448622D-13 -0.26847542D-13
 -0.30567902D-13 -0.25883644D-13 -0.14827148D-13 -0.33726617D-14  0.15785913D-14
  0.63935766D-14  0.83942974D-14  0.95575251D-14  0.80929197D-14  0.46359360D-14
  0.10545146D-14 -0.49357087D-15  0.93995605D-02  0.12340934D-01  0.14051061D-01
  0.11897861D-01  0.68155531D-02  0.15503019D-02 -0.72562660D-03 -0.22380390D-14
  0.88068132D-15  0.50187952D-03  0.74120709D-15  0.46369475D-15  0.45397618D-03
 -0.41833324D-17  0.40103927D-17  0.15306030D-04  0.65086916D-04  0.65086916D-04
 -0.13017383D-03 -0.29292966D-17  0.40344377D-16  0.51946296D-16 -0.99763272D-04
 -0.99763272D-04  0.19952654D-03  0.16879171D-17 -0.11101513D-15 -0.13142346D-16
  0.13413057D-04  0.13413057D-04 -0.26826113D-04  0.84602680D-18 -0.57075644D-17
 -0.64549248D-16  0.13533727D-15 -0.86658969D-16 -0.10068789D-03 -0.18729620D-15
  0.98271255D-16  0.15103184D-03 -0.21871562D-15  0.16170565D-15  0.15103184D-03
  0.18200261D-17  0.15383357D-15  0.32754548D-16 -0.17864795D-04 -0.25387365D-15
 -0.34750250D-16  0.26797192D-04 -0.20762705D-15 -0.63513393D-16  0.26797192D-04
 -0.10049922D-17 -0.45016143D-04 -0.83912040D-04 -0.14225154D-03 -0.21541075D-03
 -0.26937190D-03 -0.23190411D-03 -0.89152408D-04  0.38631198D-06  0.26946147D-04
  0.50600091D-04  0.86163229D-04  0.13497419D-03  0.18088129D-03  0.19456222D-03
  0.11681490D-03 -0.76822393D-04  0.66654158D-04  0.42912417D-03  0.17675173D-03
  0.10598287D-16  0.10364894D-16  0.68485235D-17 -0.20634844D-15 -0.20180427D-15
 -0.13334061D-15  0.97143846D-04  0.95004559D-04  0.62773529D-04 -0.89453579D-17
  0.16020495D-15  0.94082698D-04  0.14722632D-16 -0.14824971D-15 -0.85930565D-04
  0.34603279D-16  0.59707047D-17  0.99080455D-06 -0.31317087D-03 -0.31317087D-03
  0.62634173D-03  0.81078307D-19  0.15179524D-15 -0.12039329D-15  0.94860392D-04
  0.94860392D-04 -0.18972078D-03  0.13397335D-18 -0.56469481D-16  0.71439183D-16
  0.78900693D-04  0.78900693D-04 -0.15780139D-03 -0.44102366D-18  0.53275904D-16
 -0.54051976D-16 -0.78977886D-17 -0.13007446D-16  0.73680568D-03  0.17322271D-15
  0.12640432D-15 -0.11052085D-02 -0.14952934D-15 -0.87381982D-16 -0.11052085D-02
  0.67845394D-17  0.41850248D-17 -0.13146068D-17 -0.32725491D-03 -0.41583968D-16
 -0.32140707D-16  0.49088237D-03  0.29028894D-16  0.36084527D-16  0.49088237D-03
 -0.21479409D-17 -0.11094280D-03 -0.20680218D-03 -0.35058053D-03 -0.53088225D-03
 -0.66387012D-03 -0.57153033D-03 -0.21971712D-03  0.95207027D-06  0.71807759D-04
  0.13484225D-03  0.22961310D-03  0.35968757D-03  0.48202366D-03  0.51848143D-03
  0.31129557D-03 -0.20472107D-03  0.75139019D-04  0.31513789D-03  0.14632276D-03
 -0.74292744D-04 -0.72656681D-04 -0.48007341D-04 -0.11931640D-15 -0.11668883D-15
 -0.77101243D-16 -0.11467647D-03 -0.11215109D-03 -0.74102964D-04  0.98067757D-05
  0.94110615D-16  0.11050442D-03 -0.20501823D-03 -0.93297644D-16 -0.13042311D-03
 -0.84505397D-05  0.52415256D-17 -0.77577744D-05  0.23170995D-03 -0.15517776D-03
 -0.76532193D-04  0.77635450D-16 -0.52530410D-04  0.52317770D-16 -0.29587024D-04
  0.27490482D-04  0.20965415D-05 -0.43397023D-16 -0.17636786D-04 -0.23462940D-16
 -0.16766745D-05 -0.17951949D-05  0.34718694D-05  0.40427355D-16  0.86263548D-04
  0.16150152D-16 -0.44567411D-03 -0.60767730D-17 -0.12889040D-03  0.74689968D-03
 -0.63002011D-16  0.29984155D-03  0.59012266D-03  0.81232330D-16  0.86829649D-04
  0.13425329D-15  0.15590967D-03 -0.25099252D-17  0.39232346D-04 -0.25732082D-03
  0.25667849D-16 -0.10815425D-03 -0.21040819D-03 -0.18138073D-16 -0.95427910D-05
 -0.41600283D-16 -0.11094280D-03 -0.20680218D-03 -0.35058053D-03 -0.53088225D-03
 -0.66387012D-03 -0.57153033D-03 -0.21971712D-03  0.95207027D-06  0.71807759D-04
  0.13484225D-03  0.22961310D-03  0.35968757D-03  0.48202366D-03  0.51848143D-03
  0.31129557D-03 -0.20472107D-03  0.75139019D-04  0.31513789D-03  0.14632276D-03
 -0.49606386D-16 -0.48513962D-16 -0.32055226D-16 -0.74292744D-04 -0.72656681D-04
 -0.48007341D-04 -0.11467647D-03 -0.11215109D-03 -0.74102964D-04  0.31710458D-16
  0.98067757D-05  0.11050442D-03  0.79611377D-17 -0.20501823D-03 -0.13042311D-03
  0.18932287D-16 -0.84505397D-05 -0.77577744D-05 -0.15517776D-03  0.23170995D-03
 -0.76532193D-04  0.62643540D-16 -0.31840438D-16 -0.52530410D-04  0.27490482D-04
 -0.29587024D-04  0.20965415D-05 -0.37816410D-16  0.13521730D-16 -0.17636786D-04
 -0.17951949D-05 -0.16766745D-05  0.34718694D-05 -0.41410572D-16  0.20658159D-18
  0.86263548D-04  0.41401548D-16 -0.44567411D-03 -0.12889040D-03 -0.23805524D-15
  0.74689968D-03  0.86829649D-04  0.11385059D-15  0.59012266D-03  0.29984155D-03
  0.82465054D-16 -0.13711335D-16  0.15590967D-03  0.39232346D-04  0.77633129D-16
 -0.25732082D-03 -0.95427910D-05 -0.36499125D-16 -0.21040819D-03 -0.10815425D-03
 -0.28747784D-16 -0.11094280D-03 -0.20680218D-03 -0.35058053D-03 -0.53088225D-03
 -0.66387012D-03 -0.57153033D-03 -0.21971712D-03  0.95207027D-06  0.71807759D-04
  0.13484225D-03  0.22961310D-03  0.35968757D-03  0.48202366D-03  0.51848143D-03
  0.31129557D-03 -0.20472107D-03  0.75139019D-04  0.31513789D-03  0.14632276D-03
  0.74292744D-04  0.72656681D-04  0.48007341D-04 -0.11158674D-15 -0.10912939D-15
 -0.72106405D-16 -0.11467647D-03 -0.11215109D-03 -0.74102964D-04 -0.98067757D-05
  0.89731974D-16  0.11050442D-03  0.20501823D-03 -0.90041211D-16 -0.13042311D-03
  0.84505397D-05  0.46383151D-17 -0.77577744D-05  0.23170995D-03 -0.15517776D-03
 -0.76532193D-04 -0.76871939D-16  0.52530410D-04  0.55499510D-16 -0.29587024D-04
  0.27490482D-04  0.20965415D-05  0.43211617D-16  0.17636786D-04 -0.24511082D-16
 -0.16766745D-05 -0.17951949D-05  0.34718694D-05 -0.39141547D-16 -0.86263548D-04
  0.16297537D-16  0.44567411D-03  0.13144490D-16 -0.12889040D-03 -0.74689968D-03
 -0.10082235D-15  0.29984155D-03 -0.59012266D-03  0.61388882D-16  0.86829649D-04
 -0.13060665D-15 -0.15590967D-03 -0.44659685D-17  0.39232346D-04  0.25732082D-03
  0.30430468D-16 -0.10815425D-03  0.21040819D-03 -0.17032563D-16 -0.95427910D-05
  0.40432975D-16 -0.11094280D-03 -0.20680218D-03 -0.35058053D-03 -0.53088225D-03
 -0.66387012D-03 -0.57153033D-03 -0.21971712D-03  0.95207027D-06  0.71807759D-04
  0.13484225D-03  0.22961310D-03  0.35968757D-03  0.48202366D-03  0.51848143D-03
  0.31129557D-03 -0.20472107D-03  0.75139019D-04  0.31513789D-03  0.14632276D-03
 -0.51758902D-16 -0.50619076D-16 -0.33446163D-16  0.74292744D-04  0.72656681D-04
  0.48007341D-04 -0.11467647D-03 -0.11215109D-03 -0.74102964D-04  0.31686089D-16
 -0.98067757D-05  0.11050442D-03  0.94150606D-17  0.20501823D-03 -0.13042311D-03
  0.19676916D-16  0.84505397D-05 -0.77577744D-05 -0.15517776D-03  0.23170995D-03
 -0.76532193D-04 -0.64930190D-16 -0.29604403D-16  0.52530410D-04  0.27490482D-04
 -0.29587024D-04  0.20965415D-05  0.37956032D-16  0.12674476D-16  0.17636786D-04
 -0.17951949D-05 -0.16766745D-05  0.34718694D-05  0.42726346D-16  0.29182888D-18
 -0.86263548D-04  0.26756233D-16  0.44567411D-03 -0.12889040D-03 -0.21138783D-15
 -0.74689968D-03  0.86829649D-04  0.13111913D-15 -0.59012266D-03  0.29984155D-03
 -0.79509860D-16 -0.13232085D-16 -0.15590967D-03  0.39232346D-04  0.77028194D-16
  0.25732082D-03 -0.95427910D-05 -0.37331939D-16  0.21040819D-03 -0.10815425D-03
  0.27572757D-16
MO    2     MO 0.0        OCC NO =    2.0000000  ORB. ENERGY =  -24.359830
  0.21657101D-04  0.40520519D-04  0.70010479D-04  0.11349515D-03  0.17235144D-03
  0.23954824D-03  0.28478830D-03  0.25366751D-03  0.12592815D-03  0.20289042D-04
  0.31149084D-06  0.55663108D-07  0.20800435D-08 -0.27514029D-04 -0.51392255D-04
 -0.89193751D-04 -0.14472521D-03 -0.22401744D-03 -0.32066061D-03 -0.41856226D-03
 -0.44604793D-03 -0.33342988D-03 -0.17601171D-04  0.22616631D-03  0.13436877D-03
 -0.50378216D-06  0.71415999D-05  0.13328767D-04  0.23164224D-04  0.37542393D-04
  0.58309214D-04  0.83529632D-04  0.11029310D-03  0.11925955D-03  0.93501036D-04
  0.46525806D-05 -0.80154027D-04 -0.82974278D-04  0.37547034D-04 -0.26171146D-03
  0.26182665D-03  0.16457720D-03  0.16069025D-14  0.21166513D-14  0.23351622D-14
  0.19396206D-14  0.10301796D-14  0.26571338D-15 -0.27314432D-18 -0.27104559D-14
 -0.35702787D-14 -0.39388538D-14 -0.32716708D-14 -0.17376638D-14 -0.44819419D-15
  0.46072839D-18 -0.11061575D-01 -0.14570577D-01 -0.16074760D-01 -0.13351936D-01
 -0.70915374D-02 -0.18291144D-02  0.18802674D-05 -0.11664707D-15 -0.15314906D-15
 -0.17437147D-15 -0.14765060D-15 -0.84579946D-16 -0.19239003D-16  0.90049124D-17
  0.22864219D-14  0.30019044D-14  0.34178890D-14  0.28941280D-14  0.16578680D-14
  0.37710744D-15 -0.17650704D-15  0.93950900D-02  0.12335064D-01  0.14044378D-01
  0.11892203D-01  0.68123116D-02  0.15495645D-02 -0.72528148D-03 -0.36614289D-16
  0.12335030D-15  0.10659096D-02 -0.13920992D-15 -0.55408653D-15 -0.36714292D-03
 -0.39659003D-16 -0.20118087D-16 -0.77590865D-05  0.21174313D-03  0.21174313D-03
 -0.42348625D-03  0.12753608D-17 -0.12318940D-15 -0.15640841D-15 -0.25084200D-03
 -0.25084200D-03  0.50168400D-03 -0.19459512D-18  0.91542527D-16  0.10231660D-15
 -0.26318117D-04 -0.26318117D-04  0.52636234D-04 -0.81696640D-18  0.70143474D-16
  0.28566400D-16 -0.33403434D-16  0.29779626D-16 -0.25361843D-03  0.33572343D-16
 -0.17795585D-17  0.38042764D-03  0.66637959D-16 -0.87559320D-16  0.38042764D-03
 -0.16330614D-17  0.20058480D-16 -0.49468585D-16 -0.36548553D-04 -0.18731017D-16
  0.51603536D-16  0.54822830D-04 -0.41444424D-16  0.96802220D-16  0.54822830D-04
  0.62307347D-18  0.59294101D+00  0.11052677D+01  0.18737005D+01  0.28373348D+01
  0.35480971D+01  0.30545811D+01  0.11742925D+01 -0.50884016D-02  0.88386196D-03
  0.16597362D-02  0.28262445D-02  0.44272953D-02  0.59330966D-02  0.63818454D-02
  0.38316516D-02 -0.25198553D-02  0.67316358D-01  0.13489096D-03 -0.53051760D-03
  0.61776987D-14  0.60416544D-14  0.39919765D-14 -0.57740375D-14 -0.56468825D-14
 -0.37311340D-14  0.55436616D-02  0.54215799D-02  0.35822671D-02 -0.39781483D-15
  0.27245970D-15 -0.82171668D-03  0.17486685D-15  0.21256333D-16 -0.58046159D-03
  0.26963328D-16  0.10185848D-16 -0.56924363D-04 -0.14141085D-02 -0.14141085D-02
  0.28282170D-02 -0.23636109D-17 -0.29942139D-14  0.29266123D-14  0.30143150D-03
  0.30143150D-03 -0.60286300D-03 -0.12514325D-18  0.10896785D-15 -0.14545251D-15
  0.58958812D-04  0.58958812D-04 -0.11791762D-03  0.34353902D-18  0.83652674D-16
  0.34243117D-16  0.66639269D-16  0.75309990D-16  0.32524527D-03 -0.12186916D-15
 -0.62968890D-16 -0.48786791D-03 -0.78048648D-16 -0.16296108D-15 -0.48786791D-03
 -0.53512897D-17 -0.33789347D-16 -0.15274803D-16 -0.21882975D-03  0.89299485D-17
  0.31230738D-16  0.32824463D-03  0.92438093D-16  0.14593670D-16  0.32824463D-03
  0.16814566D-17 -0.12620894D-04 -0.23525893D-04 -0.39882173D-04 -0.60393364D-04
 -0.75522113D-04 -0.65017505D-04 -0.24995102D-04  0.10830787D-06  0.39569551D-05
  0.74304609D-05  0.12652793D-04  0.19820526D-04  0.26561837D-04  0.28570837D-04
  0.17153893D-04 -0.11281122D-04 -0.33761476D-04  0.11066847D-03  0.27427476D-04
  0.15012955D-03  0.14682343D-03  0.97012445D-04  0.74253240D-16  0.72618047D-16
  0.47981814D-16  0.10260197D-03  0.10034249D-03  0.66300524D-04 -0.11308866D-03
 -0.67103435D-16 -0.10329977D-03 -0.62452735D-04  0.74016066D-16  0.96786085D-04
 -0.75276252D-05 -0.55897134D-17 -0.22169491D-05 -0.84068732D-04 -0.64211735D-04
  0.14828047D-03 -0.35873716D-16  0.13078688D-03 -0.74342213D-17  0.65396920D-04
 -0.62392997D-05 -0.59157621D-04  0.32195204D-16  0.46394631D-05  0.39221649D-17
  0.14079093D-04  0.26212433D-05 -0.16700336D-04 -0.39069856D-16 -0.78774320D-04
 -0.46036160D-17  0.45690655D-04  0.44014636D-16  0.10903463D-03  0.46745940D-03
 -0.83874889D-16 -0.51792416D-03 -0.60453137D-03 -0.48169018D-16  0.19082027D-03
 -0.73196487D-16 -0.29495414D-04 -0.11476242D-16 -0.36861766D-04 -0.12214171D-03
  0.24345478D-16  0.16951087D-03  0.21062795D-03  0.10083249D-16 -0.58925573D-04
  0.25657355D-16 -0.12620894D-04 -0.23525893D-04 -0.39882173D-04 -0.60393363D-04
 -0.75522113D-04 -0.65017504D-04 -0.24995102D-04  0.10830787D-06  0.39569551D-05
  0.74304609D-05  0.12652793D-04  0.19820526D-04  0.26561837D-04  0.28570837D-04
  0.17153893D-04 -0.11281122D-04 -0.33761476D-04  0.11066847D-03  0.27427476D-04
  0.15997952D-16  0.15645648D-16  0.10337741D-16  0.15012955D-03  0.14682343D-03
  0.97012445D-04  0.10260197D-03  0.10034249D-03  0.66300524D-04 -0.32000888D-16
 -0.11308866D-03 -0.10329977D-03  0.53705256D-16 -0.62452735D-04  0.96786085D-04
  0.22056061D-16 -0.75276252D-05 -0.22169491D-05 -0.64211735D-04 -0.84068732D-04
  0.14828047D-03 -0.29855420D-16 -0.41359321D-16  0.13078688D-03 -0.62392997D-05
  0.65396920D-04 -0.59157621D-04  0.26481534D-16  0.22217172D-16  0.46394631D-05
  0.26212433D-05  0.14079093D-04 -0.16700336D-04 -0.49990466D-16 -0.18878846D-16
 -0.78774320D-04  0.50558702D-16  0.45690655D-04  0.10903463D-03 -0.16071269D-15
  0.46745940D-03  0.19082027D-03  0.90365826D-17 -0.60453137D-03 -0.51792416D-03
 -0.17505531D-15 -0.14172807D-16 -0.29495414D-04 -0.36861766D-04  0.51933321D-16
 -0.12214171D-03 -0.58925573D-04 -0.94148991D-17  0.21062795D-03  0.16951087D-03
  0.57187680D-16 -0.12620894D-04 -0.23525893D-04 -0.39882173D-04 -0.60393363D-04
 -0.75522113D-04 -0.65017504D-04 -0.24995102D-04  0.10830787D-06  0.39569551D-05
  0.74304609D-05  0.12652793D-04  0.19820526D-04  0.26561837D-04  0.28570837D-04
  0.17153893D-04 -0.11281122D-04 -0.33761476D-04  0.11066847D-03  0.27427476D-04
 -0.15012955D-03 -0.14682343D-03 -0.97012445D-04  0.56779400D-16  0.55529013D-16
  0.36690366D-16  0.10260197D-03  0.10034249D-03  0.66300524D-04  0.11308866D-03
 -0.64631970D-16 -0.10329977D-03  0.62452735D-04  0.72140140D-16  0.96786085D-04
  0.75276252D-05 -0.62921532D-17 -0.22169491D-05 -0.84068732D-04 -0.64211735D-04
  0.14828047D-03  0.54844986D-16 -0.13078688D-03 -0.54639799D-17  0.65396920D-04
 -0.62392997D-05 -0.59157621D-04 -0.37804760D-16 -0.46394631D-05  0.21798531D-17
  0.14079093D-04  0.26212433D-05 -0.16700336D-04  0.37841883D-16  0.78774320D-04
 -0.42682957D-17 -0.45690655D-04  0.64303589D-16  0.10903463D-03 -0.46745940D-03
 -0.12709527D-15 -0.51792416D-03  0.60453137D-03 -0.65815498D-16  0.19082027D-03
  0.94457820D-16  0.29495414D-04 -0.14080677D-16 -0.36861766D-04  0.12214171D-03
  0.30648012D-16  0.16951087D-03 -0.21062795D-03  0.11594018D-16 -0.58925573D-04
 -0.28620330D-16 -0.12620894D-04 -0.23525893D-04 -0.39882173D-04 -0.60393363D-04
 -0.75522113D-04 -0.65017504D-04 -0.24995102D-04  0.10830787D-06  0.39569551D-05
  0.74304609D-05  0.12652793D-04  0.19820526D-04  0.26561837D-04  0.28570837D-04
  0.17153893D-04 -0.11281122D-04 -0.33761476D-04  0.11066847D-03  0.27427476D-04
  0.33347504D-16  0.32613130D-16  0.21548874D-16 -0.15012955D-03 -0.14682343D-03
 -0.97012445D-04  0.10260197D-03  0.10034249D-03  0.66300524D-04 -0.34052393D-16
  0.11308866D-03 -0.10329977D-03  0.52836991D-16  0.62452735D-04  0.96786085D-04
  0.22430529D-16  0.75276252D-05 -0.22169491D-05 -0.64211735D-04 -0.84068732D-04
  0.14828047D-03  0.44819361D-16 -0.33826904D-16 -0.13078688D-03 -0.62392997D-05
  0.65396920D-04 -0.59157621D-04 -0.29707169D-16  0.20147400D-16 -0.46394631D-05
  0.26212433D-05  0.14079093D-04 -0.16700336D-04  0.50098042D-16 -0.18998888D-16
  0.78774320D-04  0.31850514D-16 -0.45690655D-04  0.10903463D-03 -0.13211947D-15
 -0.46745940D-03  0.19082027D-03  0.36567924D-16  0.60453137D-03 -0.51792416D-03
  0.18448703D-15 -0.12150577D-16  0.29495414D-04 -0.36861766D-04  0.48613028D-16
  0.12214171D-03 -0.58925573D-04 -0.12161296D-16 -0.21062795D-03  0.16951087D-03
 -0.57805357D-16
MO    3     MO 0.0        OCC NO =    2.0000000  ORB. ENERGY =  -24.314295
  0.15596784D-11  0.29181643D-11  0.50419414D-11  0.81735751D-11  0.12412226D-10
  0.17251534D-10  0.20509586D-10  0.18268361D-10  0.90689615D-11  0.14611550D-11
  0.22432621D-13  0.40086874D-14  0.14979839D-15 -0.40081166D-11 -0.74865862D-11
 -0.12993334D-10 -0.21082900D-10 -0.32633825D-10 -0.46712356D-10 -0.60974216D-10
 -0.64978201D-10 -0.48572525D-10 -0.25640573D-11  0.32946863D-10  0.19574222D-10