 Molden2AIM, Version 4.0.0 (06/02/2016)           Time: Fri Jun 29 01:18:46 2018
GAUSSIAN             15 MOL ORBITALS    281 PRIMITIVES        3 NUCLEI
  C    1    (CENTRE  1)   0.00000000  0.00000000  0.26021907  CHARGE =  6.0
  O    2    (CENTRE  2)   0.00000000  0.00000000  2.45181193  CHARGE =  8.0
  S    3    (CENTRE  3)   0.00000000  0.00000000 -2.71203100  CHARGE = 16.0
CENTRE ASSIGNMENTS    1  1  1  1  1  1  1  1  1  1  1  1  1  1  1  1  1  1  1  1
CENTRE ASSIGNMENTS    1  1  1  1  1  1  1  1  1  1  1  1  1  1  1  1  1  1  1  1
CENTRE ASSIGNMENTS    1  1  1  1  1  1  1  1  1  1  1  1  1  1  1  1  1  1  1  1
CENTRE ASSIGNMENTS    1  1  1  1  1  1  1  1  1  1  1  1  1  1  1  2  2  2  2  2
CENTRE ASSIGNMENTS    2  2  2  2  2  2  2  2  2  2  2  2  2  2  2  2  2  2  2  2
CENTRE ASSIGNMENTS    2  2  2  2  2  2  2  2  2  2  2  2  2  2  2  2  2  2  2  2
CENTRE ASSIGNMENTS    2  2  2  2  2  2  2  2  2  2  2  2  2  2  2  2  2  2  2  2
CENTRE ASSIGNMENTS    2  2  2  2  2  2  2  2  2  2  3  3  3  3  3  3  3  3  3  3
CENTRE ASSIGNMENTS    3  3  3  3  3  3  3  3  3  3  3  3  3  3  3  3  3  3  3  3
CENTRE ASSIGNMENTS    3  3  3  3  3  3  3  3  3  3  3  3  3  3  3  3  3  3  3  3
CENTRE ASSIGNMENTS    3  3  3  3  3  3  3  3  3  3  3  3  3  3  3  3  3  3  3  3
CENTRE ASSIGNMENTS    3  3  3  3  3  3  3  3  3  3  3  3  3  3  3  3  3  3  3  3
CENTRE ASSIGNMENTS    3  3  3  3  3  3  3  3  3  3  3  3  3  3  3  3  3  3  3  3
CENTRE ASSIGNMENTS    3  3  3  3  3  3  3  3  3  3  3  3  3  3  3  3  3  3  3  3
CENTRE ASSIGNMENTS    3
TYPE ASSIGNMENTS      1  1  1  1  1  1  1  1  1  1  1  1  1  1  1  1  1  1  1  2
TYPE ASSIGNMENTS      2  2  3  3  3  4  4  4  2  3  4  2  3  4  2  3  4  5  6  7
TYPE ASSIGNMENTS      8  9 10  5  6  7  8  9 10  5  6  7  8  9 10 11 12 13 17 14
TYPE ASSIGNMENTS     15 18 19 16 20 11 12 13 17 14 15 18 19 16 20  1  1  1  1  1
TYPE ASSIGNMENTS      1  1  1  1  1  1  1  1  1  1  1  1  1  1  2  2  2  3  3  3
TYPE ASSIGNMENTS      4  4  4  2  3  4  2  3  4  2  3  4  5  6  7  8  9 10  5  6
TYPE ASSIGNMENTS      7  8  9 10  5  6  7  8  9 10 11 12 13 17 14 15 18 19 16 20
TYPE ASSIGNMENTS     11 12 13 17 14 15 18 19 16 20  1  1  1  1  1  1  1  1  1  1
TYPE ASSIGNMENTS      1  1  1  1  1  1  1  1  1  1  1  1  1  1  1  1  1  1  1  1
TYPE ASSIGNMENTS      1  1  1  1  1  1  1  1  1  1  1  1  2  2  2  2  2  2  2  3
TYPE ASSIGNMENTS      3  3  3  3  3  3  4  4  4  4  4  4  4  2  2  2  2  2  2  2
TYPE ASSIGNMENTS      3  3  3  3  3  3  3  4  4  4  4  4  4  4  2  3  4  2  3  4
TYPE ASSIGNMENTS      2  3  4  5  6  7  8  9 10  5  6  7  8  9 10  5  6  7  8  9
TYPE ASSIGNMENTS     10 11 12 13 17 14 15 18 19 16 20 11 12 13 17 14 15 18 19 16
TYPE ASSIGNMENTS     20
EXPONENTS  0.8236000D+04 0.1235000D+04 0.2808000D+03 0.7927000D+02 0.2559000D+02
EXPONENTS  0.8997000D+01 0.3319000D+01 0.3643000D+00 0.8236000D+04 0.1235000D+04
EXPONENTS  0.2808000D+03 0.7927000D+02 0.2559000D+02 0.8997000D+01 0.3319000D+01
EXPONENTS  0.3643000D+00 0.9059000D+00 0.1285000D+00 0.4402000D-01 0.1871000D+02
EXPONENTS  0.4133000D+01 0.1200000D+01 0.1871000D+02 0.4133000D+01 0.1200000D+01
EXPONENTS  0.1871000D+02 0.4133000D+01 0.1200000D+01 0.3827000D+00 0.3827000D+00
EXPONENTS  0.3827000D+00 0.1209000D+00 0.1209000D+00 0.1209000D+00 0.3569000D-01
EXPONENTS  0.3569000D-01 0.3569000D-01 0.1097000D+01 0.1097000D+01 0.1097000D+01
EXPONENTS  0.1097000D+01 0.1097000D+01 0.1097000D+01 0.3180000D+00 0.3180000D+00
EXPONENTS  0.3180000D+00 0.3180000D+00 0.3180000D+00 0.3180000D+00 0.1000000D+00
EXPONENTS  0.1000000D+00 0.1000000D+00 0.1000000D+00 0.1000000D+00 0.1000000D+00
EXPONENTS  0.7610000D+00 0.7610000D+00 0.7610000D+00 0.7610000D+00 0.7610000D+00
EXPONENTS  0.7610000D+00 0.7610000D+00 0.7610000D+00 0.7610000D+00 0.7610000D+00
EXPONENTS  0.2680000D+00 0.2680000D+00 0.2680000D+00 0.2680000D+00 0.2680000D+00
EXPONENTS  0.2680000D+00 0.2680000D+00 0.2680000D+00 0.2680000D+00 0.2680000D+00
EXPONENTS  0.1533000D+05 0.2299000D+04 0.5224000D+03 0.1473000D+03 0.4755000D+02
EXPONENTS  0.1676000D+02 0.6207000D+01 0.6882000D+00 0.1533000D+05 0.2299000D+04
EXPONENTS  0.5224000D+03 0.1473000D+03 0.4755000D+02 0.1676000D+02 0.6207000D+01
EXPONENTS  0.6882000D+00 0.1752000D+01 0.2384000D+00 0.7376000D-01 0.3446000D+02
EXPONENTS  0.7749000D+01 0.2280000D+01 0.3446000D+02 0.7749000D+01 0.2280000D+01
EXPONENTS  0.3446000D+02 0.7749000D+01 0.2280000D+01 0.7156000D+00 0.7156000D+00
EXPONENTS  0.7156000D+00 0.2140000D+00 0.2140000D+00 0.2140000D+00 0.5974000D-01
EXPONENTS  0.5974000D-01 0.5974000D-01 0.2314000D+01 0.2314000D+01 0.2314000D+01
EXPONENTS  0.2314000D+01 0.2314000D+01 0.2314000D+01 0.6450000D+00 0.6450000D+00
EXPONENTS  0.6450000D+00 0.6450000D+00 0.6450000D+00 0.6450000D+00 0.2140000D+00
EXPONENTS  0.2140000D+00 0.2140000D+00 0.2140000D+00 0.2140000D+00 0.2140000D+00
EXPONENTS  0.1428000D+01 0.1428000D+01 0.1428000D+01 0.1428000D+01 0.1428000D+01
EXPONENTS  0.1428000D+01 0.1428000D+01 0.1428000D+01 0.1428000D+01 0.1428000D+01
EXPONENTS  0.5000000D+00 0.5000000D+00 0.5000000D+00 0.5000000D+00 0.5000000D+00
EXPONENTS  0.5000000D+00 0.5000000D+00 0.5000000D+00 0.5000000D+00 0.5000000D+00
EXPONENTS  0.3741000D+06 0.5605000D+05 0.1276000D+05 0.3615000D+04 0.1183000D+04
EXPONENTS  0.4288000D+03 0.1678000D+03 0.6947000D+02 0.2984000D+02 0.1272000D+02
EXPONENTS  0.5244000D+01 0.2219000D+01 0.3490000D+00 0.3741000D+06 0.5605000D+05
EXPONENTS  0.1276000D+05 0.3615000D+04 0.1183000D+04 0.4288000D+03 0.1678000D+03
EXPONENTS  0.6947000D+02 0.2984000D+02 0.1272000D+02 0.5244000D+01 0.2219000D+01
EXPONENTS  0.3490000D+00 0.3741000D+06 0.5605000D+05 0.1276000D+05 0.3615000D+04
EXPONENTS  0.1183000D+04 0.4288000D+03 0.1678000D+03 0.6947000D+02 0.2984000D+02
EXPONENTS  0.1272000D+02 0.5244000D+01 0.2219000D+01 0.3490000D+00 0.7767000D+00
EXPONENTS  0.1322000D+00 0.4970000D-01 0.5744000D+03 0.1358000D+03 0.4319000D+02
EXPONENTS  0.1587000D+02 0.6208000D+01 0.2483000D+01 0.3229000D+00 0.5744000D+03
EXPONENTS  0.1358000D+03 0.4319000D+02 0.1587000D+02 0.6208000D+01 0.2483000D+01
EXPONENTS  0.3229000D+00 0.5744000D+03 0.1358000D+03 0.4319000D+02 0.1587000D+02
EXPONENTS  0.6208000D+01 0.2483000D+01 0.3229000D+00 0.5744000D+03 0.1358000D+03
EXPONENTS  0.4319000D+02 0.1587000D+02 0.6208000D+01 0.2483000D+01 0.3229000D+00
EXPONENTS  0.5744000D+03 0.1358000D+03 0.4319000D+02 0.1587000D+02 0.6208000D+01
EXPONENTS  0.2483000D+01 0.3229000D+00 0.5744000D+03 0.1358000D+03 0.4319000D+02
EXPONENTS  0.1587000D+02 0.6208000D+01 0.2483000D+01 0.3229000D+00 0.8688000D+00
EXPONENTS  0.8688000D+00 0.8688000D+00 0.1098000D+00 0.1098000D+00 0.1098000D+00
EXPONENTS  0.3510000D-01 0.3510000D-01 0.3510000D-01 0.2690000D+00 0.2690000D+00
EXPONENTS  0.2690000D+00 0.2690000D+00 0.2690000D+00 0.2690000D+00 0.8190000D+00
EXPONENTS  0.8190000D+00 0.8190000D+00 0.8190000D+00 0.8190000D+00 0.8190000D+00
EXPONENTS  0.1010000D+00 0.1010000D+00 0.1010000D+00 0.1010000D+00 0.1010000D+00
EXPONENTS  0.1010000D+00 0.5570000D+00 0.5570000D+00 0.5570000D+00 0.5570000D+00
EXPONENTS  0.5570000D+00 0.5570000D+00 0.5570000D+00 0.5570000D+00 0.5570000D+00
EXPONENTS  0.5570000D+00 0.2180000D+00 0.2180000D+00 0.2180000D+00 0.2180000D+00
EXPONENTS  0.2180000D+00 0.2180000D+00 0.2180000D+00 0.2180000D+00 0.2180000D+00
EXPONENTS  0.2180000D+00
MO    1     MO 0.0        OCC NO =    2.0000000  ORB. ENERGY =  -88.119504
  0.13073260D-03  0.24371529D-03  0.41192177D-03  0.61925334D-03  0.76082428D-03
  0.64263773D-03  0.24237931D-03 -0.11995487D-05 -0.10537388D-03 -0.19729315D-03
 -0.33590847D-03 -0.51959933D-03 -0.68429404D-03 -0.71102534D-03 -0.45182469D-03
  0.30280240D-03  0.54173644D-03  0.62312655D-03 -0.12027028D-04 -0.19859310D-18
 -0.18619365D-18 -0.13258097D-18  0.87768632D-18  0.82288672D-18  0.58594436D-18
 -0.31592306D-03 -0.29619795D-03 -0.21091059D-03  0.38864834D-19  0.38749035D-19
  0.10232009D-02  0.23086530D-19  0.76014438D-19 -0.35405353D-03 -0.14054493D-20
 -0.15414617D-20  0.15233842D-05 -0.15047770D-03 -0.15047770D-03  0.30095540D-03
  0.15982878D-20  0.21652251D-19  0.79815736D-19  0.20145667D-03  0.20145667D-03
 -0.40291334D-03 -0.68628105D-21 -0.15380348D-18 -0.39153903D-19  0.20125218D-04
  0.20125218D-04 -0.40250435D-04  0.13391967D-21 -0.48603480D-20 -0.17435196D-19
  0.16256176D-19 -0.57612661D-20  0.20223594D-03  0.16456582D-19 -0.57867033D-20
 -0.30335391D-03 -0.65225109D-19  0.23070502D-19 -0.30335391D-03 -0.54693379D-20
 -0.12722707D-19 -0.13226949D-19  0.38806760D-04 -0.12747647D-19 -0.13199528D-19
 -0.58210140D-04  0.50915766D-19  0.52880374D-19 -0.58210140D-04  0.29236554D-20
 -0.60655610D-04 -0.11305425D-03 -0.19170255D-03 -0.29015075D-03 -0.36202342D-03
 -0.31092983D-03 -0.11937201D-03  0.53395832D-06  0.38215191D-04  0.71673537D-04
  0.12218767D-03  0.19095554D-03  0.25534394D-03  0.27264780D-03  0.16669152D-03
 -0.10997294D-03  0.10845790D-03  0.23373705D-03  0.19252949D-03  0.12761476D-19
  0.12374339D-19  0.83476560D-20  0.10529369D-18  0.10209946D-18  0.68875690D-19
 -0.40322785D-04 -0.39099538D-04 -0.26376317D-04 -0.20235976D-19 -0.94401483D-19
  0.15055473D-03  0.21349243D-19 -0.29451091D-19  0.28374868D-03  0.24550649D-20
  0.49440678D-20 -0.79484005D-05 -0.94106936D-04 -0.94106936D-04  0.18821387D-03
  0.37682539D-20  0.94217876D-19 -0.19234455D-19  0.14888829D-03  0.14888829D-03
 -0.29777658D-03 -0.90437558D-21 -0.76093579D-19  0.45206832D-19  0.48094595D-04
  0.48094595D-04 -0.96189189D-04 -0.10828429D-20 -0.28960225D-19  0.28117539D-20
  0.27877456D-19  0.35019260D-19  0.22463476D-04  0.26324488D-19  0.35569291D-19
 -0.33695214D-04 -0.10995685D-18 -0.14062707D-18 -0.33695214D-04 -0.77647742D-20
 -0.21079327D-19 -0.64913040D-20  0.98798110D-04 -0.20885190D-19 -0.66903610D-20
 -0.14819716D-03  0.84123172D-19  0.26164273D-19 -0.14819716D-03  0.23864735D-20
  0.58524945D+00  0.10940898D+01  0.18909288D+01  0.30584925D+01  0.46227324D+01
  0.63662611D+01  0.74406832D+01  0.64293116D+01  0.29986538D+01  0.40715241D+00
  0.10902538D-02  0.21386273D-02  0.97637271D-04 -0.13260774D-02 -0.24765061D-02
 -0.42958830D-02 -0.69656258D-02 -0.10724374D-01 -0.15273917D-01 -0.19640275D-01
 -0.20616444D-01 -0.14577287D-01  0.32282013D-03  0.10473969D-01  0.57672517D-02
 -0.24389610D-04  0.59238774D-03  0.11054832D-02  0.19200919D-02  0.31101229D-02
  0.48042297D-02  0.68491513D-02  0.89085085D-02  0.94940687D-02  0.70415533D-02
 -0.21917741D-03 -0.63792805D-02 -0.62494931D-02  0.29188839D-02 -0.32236621D-02
 -0.99031261D-03 -0.17484414D-03 -0.67762238D-17 -0.88900366D-17 -0.97510151D-17
 -0.80232898D-17 -0.42300370D-17 -0.11004557D-17  0.12177664D-20  0.11081485D-16
  0.14538304D-16  0.15946304D-16  0.13120872D-16  0.69175830D-17  0.17996281D-17
 -0.19914720D-20  0.14187187D-01  0.18612817D-01  0.20415423D-01  0.16798133D-01
  0.88563082D-02  0.23039928D-02 -0.25496029D-05  0.27503782D-17  0.36112633D-17
  0.40629147D-17  0.34233128D-17  0.19149532D-17  0.47662795D-18 -0.21860454D-18
 -0.86986083D-18 -0.11421326D-17 -0.12849761D-17 -0.10826896D-17 -0.60564136D-18
 -0.15074290D-18  0.69137957D-19 -0.12526612D-01 -0.16447518D-01 -0.18504566D-01
 -0.15591496D-01 -0.87216644D-02 -0.21708045D-02  0.99563555D-03  0.47933727D-18
 -0.79488232D-18 -0.29721213D-03 -0.57236703D-20 -0.68601275D-19 -0.51236757D-03
 -0.25184233D-21  0.10103865D-20 -0.11511952D-04 -0.33483798D-04 -0.33483798D-04
  0.66967596D-04  0.86018043D-20 -0.10060838D-18 -0.67365288D-19 -0.27544978D-03
 -0.27544978D-03  0.55089956D-03 -0.75388986D-19  0.33592931D-19 -0.93377753D-20
  0.32102508D-04  0.32102508D-04 -0.64205017D-04 -0.57558080D-21 -0.85896439D-21
 -0.13682848D-19  0.16709552D-19  0.81104732D-20  0.15836843D-03  0.16097057D-19
  0.83240220D-20 -0.23755265D-03 -0.66225713D-19 -0.32655442D-19 -0.23755265D-03
  0.92866486D-21  0.23009989D-20  0.26007244D-20 -0.19178452D-04  0.23337893D-20
  0.25637613D-20  0.28767678D-04 -0.92367859D-20 -0.10365935D-19  0.28767678D-04
  0.71849103D-21
MO    2     MO 0.0        OCC NO =    2.0000000  ORB. ENERGY =  -18.840202
  0.22803010D-03  0.42509995D-03  0.71849379D-03  0.10801315D-02  0.13270664D-02
  0.11209197D-02  0.42276967D-03 -0.20923107D-05 -0.17598893D-03 -0.32950680D-03
 -0.56101353D-03 -0.86780262D-03 -0.11428655D-02 -0.11875105D-02 -0.75460961D-03
  0.50572181D-03  0.11248755D-02 -0.32289798D-03  0.12549607D-03 -0.22933910D-15
 -0.21501998D-15 -0.15310704D-15  0.12138070D-15  0.11380213D-15  0.81033893D-16
  0.24285642D-02  0.22769333D-02  0.16213122D-02 -0.36449593D-18 -0.31082040D-17
 -0.13152306D-02  0.11404119D-17 -0.13559852D-17 -0.91926980D-03 -0.39450045D-19
  0.49989585D-19 -0.14575324D-04  0.29755718D-03  0.29755718D-03 -0.59511436D-03
 -0.15839911D-19  0.78879813D-17 -0.50400548D-17  0.28912841D-03  0.28912841D-03
 -0.57825681D-03 -0.99552344D-20  0.28864308D-17 -0.10779006D-17  0.13292508D-04
  0.13292508D-04 -0.26585017D-04  0.21373025D-20 -0.37001858D-18  0.29863589D-18
 -0.15176163D-17  0.11664982D-17 -0.13082808D-02 -0.15153143D-17  0.11691424D-17
  0.19624212D-02  0.60681630D-17 -0.46686371D-17  0.19624212D-02 -0.26380256D-19
 -0.12144072D-18  0.18629949D-18 -0.99825510D-04 -0.12119243D-18  0.18491527D-18
  0.14973827D-03  0.48551460D-18 -0.74381373D-18  0.14973827D-03 -0.17882446D-19
  0.49662203D+00  0.92563956D+00  0.15695780D+01  0.23756294D+01  0.29640919D+01
  0.25457596D+01  0.97736662D+00 -0.43718209D-02  0.27460829D-04  0.51503466D-04
  0.87802118D-04  0.13721762D-03  0.18348610D-03  0.19592038D-03  0.11978188D-03
 -0.79024809D-04  0.56498420D-01  0.20201048D-02  0.58547698D-04  0.78006411D-16
  0.75639978D-16  0.51026283D-16 -0.80179163D-16 -0.77746818D-16 -0.52447544D-16
 -0.73191325D-02 -0.70970965D-02 -0.47876594D-02 -0.10039075D-16  0.89128980D-17
 -0.18302666D-02 -0.12441585D-17  0.10513112D-17  0.64426801D-03  0.10992701D-18
 -0.15353705D-18  0.22503311D-04 -0.19561390D-02 -0.19561390D-02  0.39122780D-02
 -0.73219262D-17  0.25865330D-17  0.80962368D-17  0.10373506D-03  0.10373506D-03
 -0.20747012D-03  0.25889508D-18  0.59636458D-17 -0.63841421D-17  0.14728891D-03
  0.14728891D-03 -0.29457782D-03 -0.82533904D-20  0.11747737D-17 -0.38350525D-18
  0.20124979D-18 -0.28167161D-18 -0.90064039D-03  0.31962502D-18 -0.65468999D-18
  0.13509606D-02 -0.92337439D-18  0.14997048D-17  0.13509606D-02  0.19314084D-18
  0.12024838D-17 -0.39702284D-18  0.30652013D-03  0.11974264D-17 -0.37828072D-18
 -0.45978019D-03 -0.48048779D-17  0.15693492D-17 -0.45978019D-03 -0.44072345D-19
 -0.75908497D-04 -0.14190652D-03 -0.24525878D-03 -0.39669507D-03 -0.59958137D-03
 -0.82572193D-03 -0.96507750D-03 -0.83389977D-03 -0.38893382D-03 -0.52808811D-04
 -0.14140898D-06 -0.27738597D-06 -0.12663828D-07  0.14919937D-03  0.27863617D-03
  0.48333755D-03  0.78371512D-03  0.12066187D-02  0.17184960D-02  0.22097628D-02
  0.23195933D-02  0.16401169D-02 -0.36321075D-04 -0.11784452D-02 -0.64888389D-03
  0.27441190D-05 -0.92925961D-04 -0.17341359D-03 -0.30119865D-03 -0.48787499D-03
 -0.75362407D-03 -0.10744044D-02 -0.13974491D-02 -0.14893041D-02 -0.11045858D-02
  0.34381656D-04  0.10006972D-02  0.98033790D-03 -0.45787594D-03  0.31765330D-04
 -0.48615249D-03 -0.19203049D-03 -0.35972592D-17 -0.47194082D-17 -0.51764715D-17
 -0.42592828D-17 -0.22455781D-17 -0.58419329D-18  0.64646943D-21  0.15578680D-16
  0.20438380D-16  0.22417788D-16  0.18445711D-16  0.97249437D-17  0.25299707D-17
 -0.27996705D-20 -0.28792105D-02 -0.37773673D-02 -0.41431962D-02 -0.34090875D-02
 -0.17973384D-02 -0.46758249D-03  0.51742770D-06  0.47892219D-17  0.62882775D-17
  0.70747361D-17  0.59610001D-17  0.33344999D-17  0.82995023D-18 -0.38065517D-18
 -0.14967366D-16 -0.19652242D-16 -0.22110098D-16 -0.18629429D-16 -0.10421041D-16
 -0.25937760D-17  0.11896306D-17  0.36315686D-02  0.47682717D-02  0.53646272D-02
  0.45201040D-02  0.25284828D-02  0.62933423D-03 -0.28864300D-03  0.16434448D-18
 -0.12016965D-17 -0.42641163D-03 -0.75450226D-18  0.88531483D-18 -0.12427928D-03
  0.16657079D-19  0.10912255D-19 -0.64330997D-05 -0.28869818D-05 -0.28869818D-05
  0.57739636D-05 -0.61308571D-20 -0.69269246D-19  0.85583133D-18  0.31689550D-03
  0.31689550D-03 -0.63379099D-03  0.31034691D-20 -0.11116292D-17 -0.53550386D-18
 -0.49403156D-05 -0.49403156D-05  0.98806312D-05 -0.12332782D-20 -0.15240244D-18
  0.35009604D-18  0.38459080D-18 -0.26739736D-18 -0.20421514D-03  0.38585616D-18
 -0.26810850D-18  0.30632271D-03 -0.15396286D-17  0.10703006D-17  0.30632271D-03
 -0.47630448D-20 -0.32000263D-19 -0.10023436D-18  0.23062967D-04 -0.32194021D-19
 -0.99945070D-19 -0.34594450D-04  0.12819481D-18  0.40064816D-18 -0.34594450D-04
 -0.49030220D-20
MO    3     MO 0.0        OCC NO =    2.0000000  ORB. ENERGY =  -10.039508
  0.32897712D+00  0.61328814D+00  0.10365650D+01  0.15582967D+01  0.19145476D+01
  0.16171415D+01  0.60992627D+00 -0.30185592D-02 -0.29327240D-02 -0.54909846D-02
 -0.93488711D-02 -0.14461282D-01 -0.19045000D-01 -0.19788975D-01 -0.12575005D-01
  0.84274759D-02  0.38997783D-01  0.47340351D-02  0.10689171D-02  0.81663154D-16
  0.76564398D-16  0.54518412D-16 -0.16455078D-15 -0.15427682D-15 -0.10985428D-15
  0.14786871D-02  0.13863632D-02  0.98717318D-03 -0.15531765D-16  0.33848026D-16
  0.13639992D-01 -0.33839829D-17  0.82654425D-17 -0.54805383D-03 -0.73576161D-20
  0.41571296D-19 -0.53239216D-04 -0.49691860D-02 -0.49691860D-02  0.99383719D-02
 -0.12310884D-17  0.35054016D-17  0.35768666D-17  0.41715044D-03  0.41715044D-03
 -0.83430088D-03  0.43424917D-19 -0.17213464D-17  0.37758840D-17  0.54677079D-04
  0.54677079D-04 -0.10935416D-03 -0.19025826D-20 -0.16048031D-18  0.12196001D-18
  0.55660025D-18 -0.16882666D-17  0.29393620D-02  0.77107472D-18 -0.17686086D-17
 -0.44090430D-02 -0.24408755D-17  0.68334085D-17 -0.44090430D-02 -0.14634544D-18
  0.79295873D-18 -0.16932307D-17 -0.15077010D-03  0.78209975D-18 -0.16866914D-17
  0.22615516D-03 -0.31609760D-17  0.67663837D-17  0.22615516D-03 -0.10110824D-19
  0.15038620D-03  0.28030053D-03  0.47529683D-03  0.71938389D-03  0.89758105D-03
  0.77090242D-03  0.29596443D-03 -0.13238670D-05 -0.21874105D-03 -0.41025427D-03
 -0.69939359D-03 -0.10930160D-02 -0.14615707D-02 -0.15606168D-02 -0.95413049D-03
  0.62947735D-03  0.18456664D-02 -0.75163679D-02 -0.21113672D-02 -0.31335940D-17
 -0.30385321D-17 -0.20497758D-17  0.76410894D-17  0.74092864D-17  0.49982608D-17
 -0.66159578D-02 -0.64152536D-02 -0.43276922D-02  0.43034442D-17 -0.97817138D-17
  0.87377647D-02  0.67888986D-17 -0.15015425D-16  0.70530817D-02  0.20137062D-18
 -0.42996278D-18  0.29082400D-03 -0.74860784D-03 -0.74860784D-03  0.14972157D-02
 -0.45808632D-19  0.29225521D-17 -0.88047749D-17  0.32232312D-02  0.32232312D-02
 -0.64464624D-02  0.10946806D-19 -0.53286196D-17  0.13377945D-16  0.69733957D-03
  0.69733957D-03 -0.13946791D-02  0.34001675D-20 -0.25197804D-17  0.58334213D-17
  0.42218152D-18 -0.77336951D-18  0.20730434D-02  0.31930369D-18 -0.67142583D-18
 -0.31095650D-02 -0.15858483D-17  0.29915344D-17 -0.31095650D-02  0.15269140D-19
 -0.21639544D-18  0.82871191D-18  0.12897899D-02 -0.20505557D-18  0.81748753D-18
 -0.19346848D-02  0.85424190D-18 -0.33036233D-17 -0.19346848D-02 -0.43908692D-19
  0.46732297D-03  0.87363314D-03  0.15099108D-02  0.24422130D-02  0.36912620D-02
  0.50834734D-02  0.59414019D-02  0.51338195D-02  0.23944317D-02  0.32511209D-03
  0.87057009D-06  0.17076986D-05  0.77963575D-07 -0.87177368D-03 -0.16280745D-02
 -0.28241471D-02 -0.45792569D-02 -0.70502873D-02 -0.10041193D-01 -0.12911670D-01
 -0.13553412D-01 -0.95832226D-02  0.21222448D-03  0.68856693D-02  0.37914364D-02
 -0.16033920D-04  0.49232402D-03  0.91874945D-03  0.15957578D-02  0.25847736D-02
  0.39927188D-02  0.56922206D-02  0.74037196D-02  0.78903693D-02  0.58521228D-02
 -0.18215485D-03 -0.53017184D-02 -0.51938542D-02  0.24258379D-02 -0.14915331D-02
  0.23975058D-03 -0.11220278D-02  0.70418842D-16  0.92385686D-16  0.10133302D-15
  0.83378411D-16  0.43958747D-16  0.11435988D-16 -0.12655087D-19 -0.14404090D-15
 -0.18897382D-15 -0.20727548D-15 -0.17054955D-15 -0.89917095D-16 -0.23392178D-16
  0.25885830D-19  0.44093677D-01  0.57848503D-01  0.63450991D-01  0.52208481D-01
  0.27525344D-01  0.71607934D-02 -0.79241480D-05 -0.61799697D-16 -0.81143378D-16
 -0.91291772D-16 -0.76920220D-16 -0.43028093D-16 -0.10709605D-16  0.49119407D-17
  0.12780468D-15  0.16780832D-15  0.18879567D-15  0.15907463D-15  0.88984118D-16
  0.22147966D-16 -0.10158124D-16 -0.41718173D-01 -0.54776215D-01 -0.61626935D-01
 -0.51925352D-01 -0.29046314D-01 -0.72295685D-02  0.33158284D-02 -0.35306981D-17
  0.70678036D-17 -0.12304624D-03  0.10454547D-17 -0.30219255D-17 -0.53346357D-03
 -0.81292968D-20 -0.71089225D-20 -0.52558048D-04 -0.31418014D-03 -0.31418014D-03
  0.62836028D-03 -0.96453055D-20  0.39872436D-17 -0.87335527D-17 -0.11415705D-02
 -0.11415705D-02  0.22831410D-02  0.70440941D-20  0.35915149D-18 -0.64589199D-18
  0.18648494D-04  0.18648494D-04 -0.37296988D-04  0.33452903D-21  0.23439917D-18
 -0.75648641D-18 -0.62746444D-18  0.12866482D-17  0.21846773D-03 -0.62978159D-18
  0.12842795D-17 -0.32770159D-03  0.25121749D-17 -0.51442240D-17 -0.32770159D-03
 -0.17674703D-19 -0.14799160D-18  0.35925852D-18  0.45228076D-04 -0.14704383D-18
  0.35823811D-18 -0.67842114D-04  0.59101863D-18 -0.14360137D-17 -0.67842114D-04
 -0.43999897D-20
MO    4     MO 0.0        OCC NO =    2.0000000  ORB. ENERGY =   -7.718114
 -0.19696419D-03 -0.36718603D-03 -0.62060908D-03 -0.93297874D-03 -0.11462722D-02
 -0.96821010D-03 -0.36517323D-03  0.18072627D-05  0.10636993D-03  0.19915807D-03
  0.33908365D-03  0.52451085D-03  0.69076234D-03  0.71774632D-03  0.45609556D-03
 -0.30566464D-03 -0.56815692D-03 -0.30576970D-02  0.43656333D-04  0.25516889D-15
  0.23923705D-15  0.17035103D-15 -0.11600082D-15 -0.10875815D-15 -0.77442278D-16
 -0.20600432D-03 -0.19314214D-03 -0.13752871D-03 -0.11417530D-15  0.65774775D-16
 -0.71997385D-03  0.20412391D-16 -0.15660400D-16  0.19149231D-02 -0.50724077D-19
 -0.96166792D-19 -0.89258723D-05  0.89146209D-04  0.89146209D-04 -0.17829242D-03
  0.43165990D-18  0.63907939D-17  0.50485583D-17 -0.20334088D-03 -0.20334088D-03
  0.40668176D-03 -0.16892308D-18 -0.11482089D-16  0.16296033D-16 -0.20395265D-04
 -0.20395265D-04  0.40790531D-04  0.33124050D-19 -0.16682481D-17  0.20570100D-17
  0.63953805D-18 -0.10961055D-17  0.68185141D-04  0.64598531D-18 -0.11034186D-17
 -0.10227771D-03 -0.25645994D-17  0.43917350D-17 -0.10227771D-03 -0.83882904D-18
 -0.85869345D-18  0.14490485D-17  0.14923552D-04 -0.86015307D-18  0.14499284D-17
 -0.22385328D-04  0.34362334D-17 -0.57970738D-17 -0.22385328D-04  0.56439622D-18
 -0.73046193D-04 -0.13614871D-03 -0.23086309D-03 -0.34942205D-03 -0.43597669D-03
 -0.37444583D-03 -0.14375704D-03  0.64303405D-06  0.55614699D-04  0.10430675D-03
  0.17782014D-03  0.27789826D-03  0.37160292D-03  0.39678529D-03  0.24258674D-03
 -0.16004400D-03 -0.11336097D-03 -0.10939645D-02 -0.74886568D-03  0.26531497D-17
  0.25726628D-17  0.17355031D-17  0.13972806D-16  0.13548922D-16  0.91400225D-17
 -0.11203645D-03 -0.10863767D-03 -0.73286330D-04 -0.28726361D-17 -0.32007462D-17
  0.40970294D-03  0.21055881D-17  0.34746531D-17 -0.54452379D-03  0.45898067D-18
 -0.52266403D-18  0.70004573D-04  0.18555050D-03  0.18555050D-03 -0.37110100D-03
  0.33192936D-18  0.10726184D-16 -0.30298294D-16 -0.93241841D-04 -0.93241841D-04
  0.18648368D-03 -0.18325895D-18 -0.16041894D-17  0.15131204D-16 -0.11040204D-03
 -0.11040204D-03  0.22080408D-03 -0.21142725D-18 -0.13107596D-17 -0.64102969D-18
 -0.18433220D-17 -0.34517709D-17  0.10497115D-03 -0.18155926D-17 -0.34363129D-17
 -0.15745673D-03  0.73455588D-17  0.13791626D-16 -0.15745673D-03 -0.14665980D-17
 -0.79132414D-18  0.21746409D-17 -0.12337183D-03 -0.79474580D-18  0.21773587D-17
  0.18505775D-03  0.31687182D-17 -0.87012815D-17  0.18505775D-03  0.46645747D-18
 -0.37107860D-02 -0.69370989D-02 -0.11989473D-01 -0.19392434D-01 -0.29310529D-01
 -0.40365407D-01 -0.47177803D-01 -0.40765181D-01 -0.19013026D-01 -0.25815581D-02
 -0.69127766D-05 -0.13560010D-04 -0.61907110D-06 -0.15561230D+00 -0.29061259D+00
 -0.50411250D+00 -0.81740099D+00 -0.12584819D+01 -0.17923609D+01 -0.23047434D+01
 -0.24192948D+01 -0.17106128D+01  0.37882238D-01  0.12290974D+01  0.67677441D+00
 -0.28620675D-02 -0.15568044D-02 -0.29052273D-02 -0.50460320D-02 -0.81734523D-02
 -0.12625592D-01 -0.17999678D-01 -0.23411701D-01 -0.24950563D-01 -0.18505314D-01
  0.57600170D-03  0.16764850D-01  0.16423767D-01 -0.76708731D-02  0.60421729D-01
  0.49485327D-02  0.39945181D-03  0.17916332D-15  0.23505252D-15  0.25781679D-15
  0.21213574D-15  0.11184216D-15  0.29096044D-16 -0.32197739D-19 -0.13141996D-14
 -0.17241584D-14 -0.18911389D-14 -0.15560591D-14 -0.82038512D-15 -0.21342543D-15
  0.23617700D-18  0.56224860D-01  0.73763955D-01  0.80907816D-01  0.66572233D-01
  0.35098198D-01  0.91308922D-02 -0.10104263D-04  0.11597933D-15  0.15228157D-15
  0.17132703D-15  0.14435598D-15  0.80750711D-16  0.20098687D-16 -0.92182265D-17
 -0.32909309D-15 -0.43210123D-15 -0.48614302D-15 -0.40961225D-15 -0.22913135D-15
 -0.57030326D-16  0.26156855D-16  0.74536874D-02  0.97867369D-02  0.11010739D-01
  0.92773800D-02  0.51896363D-02  0.12916899D-02 -0.59243123D-03  0.18773816D-16
 -0.98668257D-16  0.10593099D-02 -0.47203950D-17  0.65643005D-17  0.16083668D-02
  0.34934396D-19  0.49011534D-18  0.22990327D-04 -0.13483977D-04 -0.13483977D-04
  0.26967954D-04  0.19365615D-17 -0.10161052D-16  0.12238898D-16 -0.17233413D-03
 -0.17233413D-03  0.34466827D-03 -0.20014616D-16  0.14627695D-16 -0.14962881D-16
 -0.79588321D-04 -0.79588321D-04  0.15917664D-03 -0.13528254D-18 -0.74620558D-18
  0.30301281D-17  0.25733786D-18  0.51654322D-18 -0.54476342D-04  0.88395485D-19
  0.37663278D-18  0.81714514D-04 -0.86040905D-18 -0.19262624D-17  0.81714514D-04
  0.32090982D-18  0.54303836D-18 -0.12439873D-17  0.24534577D-04  0.55345119D-18
 -0.12384441D-17 -0.36801866D-04 -0.21825663D-17  0.49704061D-17 -0.36801866D-04
  0.12910924D-18
MO    5     MO 0.0        OCC NO =    2.0000000  ORB. ENERGY =   -5.741625
 -0.13699614D-03 -0.25539195D-03 -0.43165739D-03 -0.64892246D-03 -0.79727622D-03
 -0.67342722D-03 -0.25399197D-03  0.12570204D-05 -0.42742177D-04 -0.80026841D-04
 -0.13625254D-03 -0.21076197D-03 -0.27756610D-03 -0.28840895D-03 -0.18327094D-03
  0.12282392D-03  0.14918150D-02 -0.57467548D-02 -0.92648058D-03  0.19444010D-15
  0.18229995D-15  0.12980842D-15 -0.17563355D-15 -0.16466762D-15 -0.11725316D-15
 -0.19588552D-02 -0.18365513D-02 -0.13077339D-02 -0.39338734D-16  0.37686386D-16
  0.35059496D-02 -0.35524021D-17  0.10204451D-16  0.22678380D-02  0.49302467D-18
 -0.43077067D-18  0.65091463D-04 -0.16445855D-03 -0.16445855D-03  0.32891709D-03
  0.98004529D-19 -0.10766133D-17 -0.42478728D-18  0.72121723D-03  0.72121723D-03
 -0.14424345D-02 -0.84215296D-19  0.12114051D-16  0.25065105D-16  0.54690374D-04
  0.54690374D-04 -0.10938075D-03 -0.30095414D-19  0.15658800D-17  0.40633515D-17
  0.30506104D-18 -0.12999176D-17  0.77470747D-03  0.31950498D-18 -0.13453488D-17
 -0.11620612D-02 -0.12346881D-17  0.52451016D-17 -0.11620612D-02 -0.52800730D-18
  0.16596655D-17 -0.66814206D-18  0.14390895D-03  0.16559759D-17 -0.66386056D-18
 -0.21586343D-03 -0.66349726D-17  0.26682867D-17 -0.21586343D-03 -0.17456225D-18
 -0.33299456D-04 -0.62065902D-04 -0.10524320D-03 -0.15929049D-03 -0.19874803D-03
 -0.17069805D-03 -0.65534300D-04  0.29313894D-06  0.24892193D-04  0.46685924D-04
  0.79589266D-04  0.12438253D-03  0.16632314D-03  0.17759434D-03  0.10857770D-03
 -0.71632970D-04  0.74913510D-04 -0.27951413D-03 -0.67590356D-04  0.27489589D-17
  0.26655654D-17  0.17981747D-17  0.14384324D-16  0.13947955D-16  0.94092083D-17
 -0.20807587D-03 -0.20176360D-03 -0.13610853D-03  0.65698964D-17 -0.26484913D-17
  0.76104483D-03  0.81522266D-18 -0.17340249D-16 -0.70116563D-05 -0.15255005D-17
 -0.71201608D-18  0.21397906D-04 -0.11781853D-03 -0.11781853D-03  0.23563707D-03
 -0.16972721D-18 -0.95984522D-18 -0.46536603D-16  0.37506831D-03  0.37506831D-03
 -0.75013662D-03  0.10755874D-18 -0.19344785D-17  0.26662287D-16  0.57901052D-05
  0.57901052D-05 -0.11580210D-04  0.12134054D-18  0.18221784D-17  0.39296892D-17
 -0.67750591D-17 -0.36710417D-18  0.14886703D-03 -0.67548215D-17 -0.32338374D-18
 -0.22330054D-03  0.27079999D-16  0.14246962D-17 -0.22330054D-03  0.59865062D-18
  0.26987076D-17  0.19320902D-17  0.16234745D-03  0.26991074D-17  0.19341396D-17
 -0.24352117D-03 -0.10795230D-16 -0.77304103D-17 -0.24352117D-03 -0.38991613D-18
  0.40409317D-03  0.75542870D-03  0.13056167D-02  0.21117763D-02  0.31918263D-02
  0.43956685D-02  0.51375174D-02  0.44392026D-02  0.20704599D-02  0.28112373D-03
  0.75278008D-06  0.14766433D-05  0.67414936D-07  0.32983402D-03  0.61597908D-03
  0.10685110D-02  0.17325537D-02  0.26674636D-02  0.37990674D-02  0.48851075D-02
  0.51279092D-02  0.36257952D-02 -0.80294752D-04 -0.26051807D-02 -0.14344832D-02
  0.60664051D-05  0.41002142D-03  0.76516064D-03  0.13289924D-02  0.21526729D-02
  0.33252496D-02  0.47406429D-02  0.61660279D-02  0.65713237D-02  0.48738141D-02
 -0.15170373D-03 -0.44154217D-02 -0.43255893D-02  0.20203067D-02 -0.18258752D-02
  0.51148534D-02  0.12725348D-02  0.28755453D-14  0.37725589D-14  0.41379221D-14
  0.34047479D-14  0.17950504D-14  0.46698727D-15 -0.51676903D-18  0.28292408D-14
  0.37118099D-14  0.40712897D-14  0.33499217D-14  0.17661450D-14  0.45946745D-15
 -0.50844757D-18  0.97179402D+01  0.12749408D+02  0.13984158D+02  0.11506387D+02
  0.60663946D+01  0.15781891D+01 -0.17464272D-02 -0.22170988D-15 -0.29110643D-15
 -0.32751436D-15 -0.27595561D-15 -0.15436570D-15 -0.38421308D-16  0.17621863D-16
  0.34547181D-16  0.45360659D-16  0.51033800D-16  0.42999835D-16  0.24053505D-16
  0.59868684D-17 -0.27458663D-17 -0.48621251D-01 -0.63839998D-01 -0.71824303D-01
 -0.60517405D-01 -0.33852588D-01 -0.84258402D-02  0.38644963D-02 -0.70119474D-17
  0.30024550D-16  0.83427258D-01  0.34755175D-17  0.10925346D-16  0.17503178D-02
 -0.39021770D-18  0.27592170D-18  0.35391137D-04 -0.38970450D-03 -0.38970450D-03
  0.77940901D-03 -0.21248079D-18  0.10342141D-16  0.14702485D-16 -0.13038676D-02
 -0.13038676D-02  0.26077353D-02  0.10580248D-17  0.25647235D-16 -0.95668884D-16