 Molden2AIM, Version 4.0.0 (06/02/2016)           Time: Fri Jun 29 01:15:41 2018
GAUSSIAN             19 MOL ORBITALS    337 PRIMITIVES        3 NUCLEI
  C    1    (CENTRE  1)   0.00000000  0.00000000  0.00000000  CHARGE =  6.0
  S    2    (CENTRE  2)   0.00000000  0.00000000  2.95542961  CHARGE = 16.0
  S    3    (CENTRE  3)   0.00000000  0.00000000 -2.95542961  CHARGE = 16.0
CENTRE ASSIGNMENTS    1  1  1  1  1  1  1  1  1  1  1  1  1  1  1  1  1  1  1  1
CENTRE ASSIGNMENTS    1  1  1  1  1  1  1  1  1  1  1  1  1  1  1  1  1  1  1  1
CENTRE ASSIGNMENTS    1  1  1  1  1  1  1  1  1  1  1  1  1  1  1  1  1  1  1  1
CENTRE ASSIGNMENTS    1  1  1  1  1  1  1  1  1  1  1  1  1  1  1  2  2  2  2  2
CENTRE ASSIGNMENTS    2  2  2  2  2  2  2  2  2  2  2  2  2  2  2  2  2  2  2  2
CENTRE ASSIGNMENTS    2  2  2  2  2  2  2  2  2  2  2  2  2  2  2  2  2  2  2  2
CENTRE ASSIGNMENTS    2  2  2  2  2  2  2  2  2  2  2  2  2  2  2  2  2  2  2  2
CENTRE ASSIGNMENTS    2  2  2  2  2  2  2  2  2  2  2  2  2  2  2  2  2  2  2  2
CENTRE ASSIGNMENTS    2  2  2  2  2  2  2  2  2  2  2  2  2  2  2  2  2  2  2  2
CENTRE ASSIGNMENTS    2  2  2  2  2  2  2  2  2  2  2  2  2  2  2  2  2  2  2  2
CENTRE ASSIGNMENTS    2  2  2  2  2  2  3  3  3  3  3  3  3  3  3  3  3  3  3  3
CENTRE ASSIGNMENTS    3  3  3  3  3  3  3  3  3  3  3  3  3  3  3  3  3  3  3  3
CENTRE ASSIGNMENTS    3  3  3  3  3  3  3  3  3  3  3  3  3  3  3  3  3  3  3  3
CENTRE ASSIGNMENTS    3  3  3  3  3  3  3  3  3  3  3  3  3  3  3  3  3  3  3  3
CENTRE ASSIGNMENTS    3  3  3  3  3  3  3  3  3  3  3  3  3  3  3  3  3  3  3  3
CENTRE ASSIGNMENTS    3  3  3  3  3  3  3  3  3  3  3  3  3  3  3  3  3  3  3  3
CENTRE ASSIGNMENTS    3  3  3  3  3  3  3  3  3  3  3  3  3  3  3  3  3
TYPE ASSIGNMENTS      1  1  1  1  1  1  1  1  1  1  1  1  1  1  1  1  1  1  1  2
TYPE ASSIGNMENTS      2  2  3  3  3  4  4  4  2  3  4  2  3  4  2  3  4  5  6  7
TYPE ASSIGNMENTS      8  9 10  5  6  7  8  9 10  5  6  7  8  9 10 11 12 13 17 14
TYPE ASSIGNMENTS     15 18 19 16 20 11 12 13 17 14 15 18 19 16 20  1  1  1  1  1
TYPE ASSIGNMENTS      1  1  1  1  1  1  1  1  1  1  1  1  1  1  1  1  1  1  1  1
TYPE ASSIGNMENTS      1  1  1  1  1  1  1  1  1  1  1  1  1  1  1  1  1  2  2  2
TYPE ASSIGNMENTS      2  2  2  2  3  3  3  3  3  3  3  4  4  4  4  4  4  4  2  2
TYPE ASSIGNMENTS      2  2  2  2  2  3  3  3  3  3  3  3  4  4  4  4  4  4  4  2
TYPE ASSIGNMENTS      3  4  2  3  4  2  3  4  5  6  7  8  9 10  5  6  7  8  9 10
TYPE ASSIGNMENTS      5  6  7  8  9 10 11 12 13 17 14 15 18 19 16 20 11 12 13 17
TYPE ASSIGNMENTS     14 15 18 19 16 20  1  1  1  1  1  1  1  1  1  1  1  1  1  1
TYPE ASSIGNMENTS      1  1  1  1  1  1  1  1  1  1  1  1  1  1  1  1  1  1  1  1
TYPE ASSIGNMENTS      1  1  1  1  1  1  1  1  2  2  2  2  2  2  2  3  3  3  3  3
TYPE ASSIGNMENTS      3  3  4  4  4  4  4  4  4  2  2  2  2  2  2  2  3  3  3  3
TYPE ASSIGNMENTS      3  3  3  4  4  4  4  4  4  4  2  3  4  2  3  4  2  3  4  5
TYPE ASSIGNMENTS      6  7  8  9 10  5  6  7  8  9 10  5  6  7  8  9 10 11 12 13
TYPE ASSIGNMENTS     17 14 15 18 19 16 20 11 12 13 17 14 15 18 19 16 20
EXPONENTS  0.8236000D+04 0.1235000D+04 0.2808000D+03 0.7927000D+02 0.2559000D+02
EXPONENTS  0.8997000D+01 0.3319000D+01 0.3643000D+00 0.8236000D+04 0.1235000D+04
EXPONENTS  0.2808000D+03 0.7927000D+02 0.2559000D+02 0.8997000D+01 0.3319000D+01
EXPONENTS  0.3643000D+00 0.9059000D+00 0.1285000D+00 0.4402000D-01 0.1871000D+02
EXPONENTS  0.4133000D+01 0.1200000D+01 0.1871000D+02 0.4133000D+01 0.1200000D+01
EXPONENTS  0.1871000D+02 0.4133000D+01 0.1200000D+01 0.3827000D+00 0.3827000D+00
EXPONENTS  0.3827000D+00 0.1209000D+00 0.1209000D+00 0.1209000D+00 0.3569000D-01
EXPONENTS  0.3569000D-01 0.3569000D-01 0.1097000D+01 0.1097000D+01 0.1097000D+01
EXPONENTS  0.1097000D+01 0.1097000D+01 0.1097000D+01 0.3180000D+00 0.3180000D+00
EXPONENTS  0.3180000D+00 0.3180000D+00 0.3180000D+00 0.3180000D+00 0.1000000D+00
EXPONENTS  0.1000000D+00 0.1000000D+00 0.1000000D+00 0.1000000D+00 0.1000000D+00
EXPONENTS  0.7610000D+00 0.7610000D+00 0.7610000D+00 0.7610000D+00 0.7610000D+00
EXPONENTS  0.7610000D+00 0.7610000D+00 0.7610000D+00 0.7610000D+00 0.7610000D+00
EXPONENTS  0.2680000D+00 0.2680000D+00 0.2680000D+00 0.2680000D+00 0.2680000D+00
EXPONENTS  0.2680000D+00 0.2680000D+00 0.2680000D+00 0.2680000D+00 0.2680000D+00
EXPONENTS  0.3741000D+06 0.5605000D+05 0.1276000D+05 0.3615000D+04 0.1183000D+04
EXPONENTS  0.4288000D+03 0.1678000D+03 0.6947000D+02 0.2984000D+02 0.1272000D+02
EXPONENTS  0.5244000D+01 0.2219000D+01 0.3490000D+00 0.3741000D+06 0.5605000D+05
EXPONENTS  0.1276000D+05 0.3615000D+04 0.1183000D+04 0.4288000D+03 0.1678000D+03
EXPONENTS  0.6947000D+02 0.2984000D+02 0.1272000D+02 0.5244000D+01 0.2219000D+01
EXPONENTS  0.3490000D+00 0.3741000D+06 0.5605000D+05 0.1276000D+05 0.3615000D+04
EXPONENTS  0.1183000D+04 0.4288000D+03 0.1678000D+03 0.6947000D+02 0.2984000D+02
EXPONENTS  0.1272000D+02 0.5244000D+01 0.2219000D+01 0.3490000D+00 0.7767000D+00
EXPONENTS  0.1322000D+00 0.4970000D-01 0.5744000D+03 0.1358000D+03 0.4319000D+02
EXPONENTS  0.1587000D+02 0.6208000D+01 0.2483000D+01 0.3229000D+00 0.5744000D+03
EXPONENTS  0.1358000D+03 0.4319000D+02 0.1587000D+02 0.6208000D+01 0.2483000D+01
EXPONENTS  0.3229000D+00 0.5744000D+03 0.1358000D+03 0.4319000D+02 0.1587000D+02
EXPONENTS  0.6208000D+01 0.2483000D+01 0.3229000D+00 0.5744000D+03 0.1358000D+03
EXPONENTS  0.4319000D+02 0.1587000D+02 0.6208000D+01 0.2483000D+01 0.3229000D+00
EXPONENTS  0.5744000D+03 0.1358000D+03 0.4319000D+02 0.1587000D+02 0.6208000D+01
EXPONENTS  0.2483000D+01 0.3229000D+00 0.5744000D+03 0.1358000D+03 0.4319000D+02
EXPONENTS  0.1587000D+02 0.6208000D+01 0.2483000D+01 0.3229000D+00 0.8688000D+00
EXPONENTS  0.8688000D+00 0.8688000D+00 0.1098000D+00 0.1098000D+00 0.1098000D+00
EXPONENTS  0.3510000D-01 0.3510000D-01 0.3510000D-01 0.2690000D+00 0.2690000D+00
EXPONENTS  0.2690000D+00 0.2690000D+00 0.2690000D+00 0.2690000D+00 0.8190000D+00
EXPONENTS  0.8190000D+00 0.8190000D+00 0.8190000D+00 0.8190000D+00 0.8190000D+00
EXPONENTS  0.1010000D+00 0.1010000D+00 0.1010000D+00 0.1010000D+00 0.1010000D+00
EXPONENTS  0.1010000D+00 0.5570000D+00 0.5570000D+00 0.5570000D+00 0.5570000D+00
EXPONENTS  0.5570000D+00 0.5570000D+00 0.5570000D+00 0.5570000D+00 0.5570000D+00
EXPONENTS  0.5570000D+00 0.2180000D+00 0.2180000D+00 0.2180000D+00 0.2180000D+00
EXPONENTS  0.2180000D+00 0.2180000D+00 0.2180000D+00 0.2180000D+00 0.2180000D+00
EXPONENTS  0.2180000D+00 0.3741000D+06 0.5605000D+05 0.1276000D+05 0.3615000D+04
EXPONENTS  0.1183000D+04 0.4288000D+03 0.1678000D+03 0.6947000D+02 0.2984000D+02
EXPONENTS  0.1272000D+02 0.5244000D+01 0.2219000D+01 0.3490000D+00 0.3741000D+06
EXPONENTS  0.5605000D+05 0.1276000D+05 0.3615000D+04 0.1183000D+04 0.4288000D+03
EXPONENTS  0.1678000D+03 0.6947000D+02 0.2984000D+02 0.1272000D+02 0.5244000D+01
EXPONENTS  0.2219000D+01 0.3490000D+00 0.3741000D+06 0.5605000D+05 0.1276000D+05
EXPONENTS  0.3615000D+04 0.1183000D+04 0.4288000D+03 0.1678000D+03 0.6947000D+02
EXPONENTS  0.2984000D+02 0.1272000D+02 0.5244000D+01 0.2219000D+01 0.3490000D+00
EXPONENTS  0.7767000D+00 0.1322000D+00 0.4970000D-01 0.5744000D+03 0.1358000D+03
EXPONENTS  0.4319000D+02 0.1587000D+02 0.6208000D+01 0.2483000D+01 0.3229000D+00
EXPONENTS  0.5744000D+03 0.1358000D+03 0.4319000D+02 0.1587000D+02 0.6208000D+01
EXPONENTS  0.2483000D+01 0.3229000D+00 0.5744000D+03 0.1358000D+03 0.4319000D+02
EXPONENTS  0.1587000D+02 0.6208000D+01 0.2483000D+01 0.3229000D+00 0.5744000D+03
EXPONENTS  0.1358000D+03 0.4319000D+02 0.1587000D+02 0.6208000D+01 0.2483000D+01
EXPONENTS  0.3229000D+00 0.5744000D+03 0.1358000D+03 0.4319000D+02 0.1587000D+02
EXPONENTS  0.6208000D+01 0.2483000D+01 0.3229000D+00 0.5744000D+03 0.1358000D+03
EXPONENTS  0.4319000D+02 0.1587000D+02 0.6208000D+01 0.2483000D+01 0.3229000D+00
EXPONENTS  0.8688000D+00 0.8688000D+00 0.8688000D+00 0.1098000D+00 0.1098000D+00
EXPONENTS  0.1098000D+00 0.3510000D-01 0.3510000D-01 0.3510000D-01 0.2690000D+00
EXPONENTS  0.2690000D+00 0.2690000D+00 0.2690000D+00 0.2690000D+00 0.2690000D+00
EXPONENTS  0.8190000D+00 0.8190000D+00 0.8190000D+00 0.8190000D+00 0.8190000D+00
EXPONENTS  0.8190000D+00 0.1010000D+00 0.1010000D+00 0.1010000D+00 0.1010000D+00
EXPONENTS  0.1010000D+00 0.1010000D+00 0.5570000D+00 0.5570000D+00 0.5570000D+00
EXPONENTS  0.5570000D+00 0.5570000D+00 0.5570000D+00 0.5570000D+00 0.5570000D+00
EXPONENTS  0.5570000D+00 0.5570000D+00 0.2180000D+00 0.2180000D+00 0.2180000D+00
EXPONENTS  0.2180000D+00 0.2180000D+00 0.2180000D+00 0.2180000D+00 0.2180000D+00
EXPONENTS  0.2180000D+00 0.2180000D+00
MO    1     MO 0.0        OCC NO =    2.0000000  ORB. ENERGY =  -88.117661
 -0.73732290D-10 -0.13745375D-09 -0.23232106D-09 -0.34925465D-09 -0.42909969D-09
 -0.36244328D-09 -0.13670027D-09  0.67653727D-12  0.36351047D-10  0.68060629D-10
  0.11587904D-09  0.17924726D-09  0.23606234D-09  0.24528389D-09  0.15586690D-09
 -0.10445837D-09  0.56708291D-09  0.14346656D-11 -0.12135056D-09  0.53810498D-16
  0.50450762D-16  0.35923948D-16  0.80654583D-16  0.75618798D-16  0.53845089D-16
  0.50648900D-03  0.47486563D-03  0.33813262D-03 -0.19153923D-16 -0.43396144D-16
 -0.52675100D-03  0.72330787D-17  0.15791272D-16  0.10583684D-02  0.11487245D-19
  0.77248587D-19 -0.75022629D-06 -0.25843543D-10 -0.25843543D-10  0.51687086D-10
  0.11417825D-20  0.32411642D-18 -0.18126710D-17  0.33815503D-09  0.33815503D-09
 -0.67631005D-09 -0.40060183D-21 -0.25649499D-18  0.13616824D-17  0.40691264D-10
  0.40691264D-10 -0.81382527D-10 -0.51488161D-24 -0.36071026D-19  0.78486303D-18
  0.13337346D-19 -0.14086471D-18 -0.10474103D-03  0.14462844D-19 -0.14065731D-18
  0.15711155D-03 -0.54474882D-19  0.56325142D-18  0.15711155D-03 -0.54393335D-21
  0.12323306D-18  0.29463852D-19 -0.57594552D-04  0.12315857D-18  0.29455212D-19
  0.86391827D-04 -0.49285777D-18 -0.11784677D-18  0.86391827D-04  0.10931608D-21
  0.41385600D+00  0.77367975D+00  0.13371602D+01  0.21627966D+01  0.32689404D+01
  0.45018673D+01  0.52616391D+01  0.45464532D+01  0.21204820D+01  0.28791564D+00
  0.77096714D-03  0.15123188D-02  0.69043671D-04 -0.97867774D-03 -0.18277224D-02
 -0.31704672D-02 -0.51408030D-02 -0.79148515D-02 -0.11272526D-01 -0.14495006D-01
 -0.15215443D-01 -0.10758396D-01  0.23824919D-03  0.77300466D-02  0.42563735D-02
 -0.18000131D-04  0.44216755D-03  0.82515006D-03  0.14331869D-02  0.23214448D-02
  0.35859528D-02  0.51123145D-02  0.66494512D-02  0.70865226D-02  0.52559264D-02
 -0.16359747D-03 -0.47615955D-02 -0.46647202D-02  0.21787010D-02 -0.22031426D-02
 -0.18299084D-02 -0.28845112D-03  0.30228031D-16  0.39657531D-16  0.43498267D-16
  0.35791063D-16  0.18869757D-16  0.49090188D-17 -0.54323298D-20  0.14432527D-16
  0.18934689D-16  0.20768468D-16  0.17088625D-16  0.90094609D-17  0.23438359D-17
 -0.25936934D-20 -0.40889283D-02 -0.53644513D-02 -0.58839854D-02 -0.48414365D-02
 -0.25525010D-02 -0.66404013D-03  0.73482810D-06 -0.14811810D-16 -0.19447997D-16
 -0.21880308D-16 -0.18435814D-16 -0.10312736D-16 -0.25668189D-17  0.11772668D-17
 -0.54118269D-17 -0.71057617D-17 -0.79944611D-17 -0.67359379D-17 -0.37679892D-17
 -0.93784484D-18  0.43014083D-18  0.36171767D-02  0.47493751D-02  0.53433672D-02
  0.45021909D-02  0.25184625D-02  0.62684018D-03 -0.28749911D-03 -0.19319510D-17
 -0.58263657D-18 -0.43305862D-04  0.14021780D-18 -0.12623634D-17  0.68893395D-03
 -0.97980537D-20 -0.55918928D-19  0.16271175D-04  0.13193600D-04  0.13193600D-04
 -0.26387200D-04 -0.33233560D-21 -0.64016451D-18  0.36327701D-18 -0.14642625D-03
 -0.14642625D-03  0.29285251D-03  0.54556729D-20 -0.35538760D-19 -0.37904520D-18
  0.33258264D-04  0.33258264D-04 -0.66516527D-04  0.28238367D-22 -0.17716128D-19
  0.34386148D-18 -0.10438036D-18  0.12312133D-18 -0.91941057D-04 -0.10472244D-18
  0.12373589D-18  0.13791159D-03  0.41786353D-18 -0.49309988D-18  0.13791159D-03
  0.14400426D-21 -0.15214493D-19  0.47467891D-19  0.14244866D-04 -0.15170120D-19
  0.47435949D-19 -0.21367299D-04  0.60813600D-19 -0.18983962D-18 -0.21367299D-04
 -0.96864310D-22 -0.41385508D+00 -0.77367803D+00 -0.13371572D+01 -0.21627918D+01
 -0.32689331D+01 -0.45018573D+01 -0.52616274D+01 -0.45464430D+01 -0.21204772D+01
 -0.28791500D+00 -0.77096543D-03 -0.15123155D-02 -0.69043518D-04  0.97867571D-03
  0.18277186D-02  0.31704607D-02  0.51407923D-02  0.79148351D-02  0.11272503D-01
  0.14494976D-01  0.15215411D-01  0.10758374D-01 -0.23824869D-03 -0.77300306D-02
 -0.42563646D-02  0.18000094D-04 -0.44216665D-03 -0.82514838D-03 -0.14331840D-02
 -0.23214401D-02 -0.35859455D-02 -0.51123041D-02 -0.66494377D-02 -0.70865082D-02
 -0.52559157D-02  0.16359714D-03  0.47615858D-02  0.46647107D-02 -0.21786965D-02
  0.22031375D-02  0.18299084D-02  0.28845107D-03  0.18450984D-16  0.24206686D-16
  0.26551045D-16  0.21846620D-16  0.11517970D-16  0.29964315D-17 -0.33158569D-20
  0.12336682D-16  0.16185056D-16  0.17752539D-16  0.14607070D-16  0.77011364D-17
  0.20034717D-17 -0.22170457D-20 -0.40888993D-02 -0.53644132D-02 -0.58839437D-02
 -0.48414021D-02 -0.25524829D-02 -0.66403542D-03  0.73482289D-06 -0.11378763D-16
 -0.14940385D-16 -0.16808940D-16 -0.14162803D-16 -0.79224734D-17 -0.19718875D-17
  0.90440262D-18 -0.52029374D-17 -0.68314885D-17 -0.76858852D-17 -0.64759394D-17
 -0.36225497D-17 -0.90164525D-18  0.41353796D-18  0.36171512D-02  0.47493415D-02
  0.53433294D-02  0.45021590D-02  0.25184446D-02  0.62683574D-03 -0.28749708D-03
 -0.11161813D-17 -0.52468337D-18 -0.43306637D-04  0.15920845D-19  0.14139213D-17
  0.68893351D-03 -0.81088469D-20 -0.52635726D-20  0.16271166D-04 -0.13193664D-04
 -0.13193664D-04  0.26387329D-04  0.16127072D-20  0.36789837D-18  0.71162677D-18
  0.14642582D-03  0.14642582D-03 -0.29285165D-03 -0.12923247D-19  0.26659226D-18
  0.60916286D-19 -0.33258223D-04 -0.33258223D-04  0.66516446D-04 -0.11927106D-21
  0.33808418D-20  0.35723716D-18 -0.11408127D-18  0.31020561D-18 -0.91940853D-04
 -0.11441677D-18  0.30972198D-18  0.13791128D-03  0.45666058D-18 -0.12403388D-17
  0.13791128D-03 -0.14965400D-21 -0.42345863D-20 -0.83789452D-19  0.14244827D-04
 -0.42254989D-20 -0.83746052D-19 -0.21367241D-04  0.16929258D-19  0.33511441D-18
 -0.21367241D-04  0.10532194D-21
MO    2     MO 0.0        OCC NO =    2.0000000  ORB. ENERGY =  -88.117658
 -0.66288146D-04 -0.12357618D-03 -0.20886551D-03 -0.31399327D-03 -0.38577702D-03
 -0.32585036D-03 -0.12289877D-03  0.60823286D-06  0.32682151D-04  0.61191298D-04
  0.10418342D-03  0.16115591D-03  0.21223667D-03  0.22052749D-03  0.14013532D-03
 -0.93915433D-04  0.50978250D-03  0.10524072D-05 -0.10913639D-03  0.10286170D-17
  0.96439384D-18  0.68670586D-18  0.17807825D-19  0.16695968D-19  0.11888524D-19
 -0.56340222D-09 -0.52822540D-09 -0.37612795D-09 -0.62005472D-19 -0.10918683D-19
  0.58592022D-09 -0.40132746D-19 -0.53373225D-20 -0.11776421D-08  0.25362139D-20
  0.88851025D-21  0.81795115D-12 -0.23235490D-04 -0.23235490D-04  0.46470979D-04
 -0.78716197D-21  0.58369943D-18  0.39188657D-18  0.30399269D-03  0.30399269D-03
 -0.60798539D-03  0.37751124D-21 -0.58969090D-18 -0.38376650D-18  0.36579722D-04
  0.36579722D-04 -0.73159444D-04 -0.76611818D-22  0.18317060D-18  0.10691656D-18
 -0.61412936D-20  0.71343721D-21  0.11651438D-09 -0.61656502D-20  0.63969448D-21
 -0.17477156D-09  0.24589531D-19 -0.27800061D-20 -0.17477156D-09  0.14586533D-20
  0.12554014D-19  0.29331945D-20  0.64062720D-10  0.12551746D-19  0.29121531D-20
 -0.96094080D-10 -0.50213787D-19 -0.11711737D-19 -0.96094080D-10 -0.80478417D-21
  0.41381978D+00  0.77361204D+00  0.13370431D+01  0.21626073D+01  0.32686543D+01
  0.45014733D+01  0.52611786D+01  0.45460553D+01  0.21202964D+01  0.28789044D+00
  0.77089967D-03  0.15121865D-02  0.69037629D-04 -0.91205514D-03 -0.17033018D-02
 -0.29546406D-02 -0.47908475D-02 -0.73760551D-02 -0.10505159D-01 -0.13508271D-01
 -0.14179665D-01 -0.10026028D-01  0.22203059D-03  0.72038307D-02  0.39666247D-02
 -0.16774789D-04  0.40401937D-03  0.75395991D-03  0.13095381D-02  0.21211612D-02
  0.32765733D-02  0.46712475D-02  0.60757672D-02  0.64751300D-02  0.48024693D-02
 -0.14948304D-03 -0.43507870D-02 -0.42622696D-02  0.19907327D-02 -0.22835392D-02
  0.19724652D-04 -0.20000122D-04  0.25605295D-16  0.33592752D-16  0.36846129D-16
  0.30317579D-16  0.15984027D-16  0.41582884D-17 -0.46015701D-20  0.79067427D-17
  0.10373216D-16  0.11377837D-16  0.93618644D-17  0.49357601D-17  0.12840515D-17
 -0.14209339D-20 -0.13037449D-01 -0.17104424D-01 -0.18760946D-01 -0.15436803D-01
 -0.81385880D-02 -0.21172759D-02  0.23429817D-05 -0.99413700D-17 -0.13053079D-16
 -0.14685594D-16 -0.12373724D-16 -0.69216875D-17 -0.17227939D-17  0.79015631D-18
 -0.48802903D-17 -0.64078509D-17 -0.72092643D-17 -0.60743503D-17 -0.33979064D-17
 -0.84573198D-18  0.38789344D-18  0.11496288D-01  0.15094696D-01  0.16982551D-01
  0.14309083D-01  0.80043004D-02  0.19922541D-02 -0.91374371D-03 -0.17860107D-17
 -0.64760166D-18  0.34847350D-03 -0.31353093D-18 -0.18204226D-18  0.19425861D-03
 -0.25859337D-20 -0.15715401D-20  0.42863290D-05 -0.29048054D-04 -0.29048054D-04
  0.58096108D-04 -0.23569622D-21 -0.24426568D-18 -0.13862826D-18 -0.19317998D-03
 -0.19317998D-03  0.38635996D-03  0.59132217D-20  0.25002344D-19  0.17948593D-19
  0.18333274D-04  0.18333274D-04 -0.36666547D-04  0.73518822D-22  0.67996395D-19
  0.40699213D-19 -0.65690664D-19 -0.38994044D-19 -0.91561465D-04 -0.65696251D-19
 -0.39199161D-19  0.13734220D-03  0.26276824D-18  0.15618129D-18  0.13734220D-03
  0.19018803D-21 -0.37170354D-20 -0.22263523D-20  0.17359933D-04 -0.37173131D-20
 -0.21874211D-20 -0.26039899D-04  0.14868419D-19  0.88664781D-20 -0.26039899D-04
 -0.22684796D-21  0.41382071D+00  0.77361376D+00  0.13370461D+01  0.21626121D+01
  0.32686616D+01  0.45014833D+01  0.52611904D+01  0.45460654D+01  0.21203011D+01
  0.28789108D+00  0.77090139D-03  0.15121898D-02  0.69037783D-04 -0.91205732D-03
 -0.17033059D-02 -0.29546476D-02 -0.47908589D-02 -0.73760728D-02 -0.10505184D-01
 -0.13508303D-01 -0.14179699D-01 -0.10026052D-01  0.22203112D-03  0.72038479D-02
  0.39666342D-02 -0.16774829D-04  0.40402035D-03  0.75396175D-03  0.13095413D-02
  0.21211664D-02  0.32765813D-02  0.46712589D-02  0.60757819D-02  0.64751458D-02
  0.48024810D-02 -0.14948340D-03 -0.43507976D-02 -0.42622800D-02  0.19907375D-02
 -0.22835441D-02  0.19720580D-04 -0.20000764D-04 -0.13348720D-16 -0.17512794D-16
 -0.19208865D-16 -0.15805359D-16 -0.83328977D-17 -0.21678261D-17  0.23989206D-20
 -0.88031294D-17 -0.11549226D-16 -0.12667741D-16 -0.10423218D-16 -0.54953267D-17
 -0.14296243D-17  0.15820250D-20  0.13037458D-01  0.17104436D-01  0.18760959D-01
  0.15436814D-01  0.81385937D-02  0.21172774D-02 -0.23429833D-05  0.63224949D-17
  0.83014743D-17  0.93397183D-17  0.78694188D-17  0.44020426D-17  0.10956594D-17
 -0.50252221D-18  0.45039522D-17  0.59137167D-17  0.66533300D-17  0.56059336D-17
  0.31358806D-17  0.78051431D-18 -0.35798147D-18 -0.11496296D-01 -0.15094706D-01
 -0.16982563D-01 -0.14309093D-01 -0.80043060D-02 -0.19922555D-02  0.91374435D-03
  0.10412048D-17  0.69674945D-18 -0.34847341D-03  0.32051841D-18  0.18367238D-18
 -0.19426015D-03  0.12305258D-20  0.76136409D-21 -0.42863652D-05 -0.29048025D-04
 -0.29048025D-04  0.58096049D-04 -0.18087967D-20 -0.14686952D-18 -0.11807994D-18
 -0.19318030D-03 -0.19318030D-03  0.38636061D-03  0.12800811D-19  0.57032576D-19
  0.30239780D-19  0.18333348D-04  0.18333348D-04 -0.36666695D-04  0.13537585D-21
  0.70272202D-19  0.39780294D-19  0.48414878D-19  0.33544319D-19  0.91561670D-04
  0.48725293D-19  0.34030880D-19 -0.13734250D-03 -0.19396993D-18 -0.13466384D-18
 -0.13734250D-03 -0.80569474D-21  0.23583742D-20  0.24188991D-20 -0.17359964D-04
  0.23468912D-20  0.23793576D-20  0.26039947D-04 -0.94220138D-20 -0.96360548D-20
  0.26039947D-04 -0.14650244D-21
MO    3     MO 0.0        OCC NO =    2.0000000  ORB. ENERGY =  -10.007675
  0.32619080D+00  0.60809381D+00  0.10277857D+01  0.15450985D+01  0.18983320D+01
  0.16034449D+01  0.60476042D+00 -0.29929930D-02 -0.79362733D-03 -0.14859208D-02
 -0.25299072D-02 -0.39133818D-02 -0.51537862D-02 -0.53551140D-02 -0.34029345D-02
  0.22805676D-02  0.34760179D-01  0.42091189D-02  0.73929485D-03 -0.52658933D-16
 -0.49371097D-16 -0.35155162D-16 -0.18474326D-16 -0.17320854D-16 -0.12333480D-16
  0.49172954D-14  0.46102770D-14  0.32827919D-14  0.89893214D-17  0.30991186D-17
  0.11685455D-15  0.32497880D-17  0.10656573D-17 -0.64554119D-15  0.27219912D-19
 -0.18701652D-20  0.32864231D-15 -0.17063902D-02 -0.17063902D-02  0.34127805D-02
  0.16054804D-17  0.25428434D-17  0.19184118D-19  0.13173102D-04  0.13173102D-04
 -0.26346204D-04 -0.12283916D-18 -0.18633893D-18 -0.26094532D-18  0.36930498D-04
  0.36930498D-04 -0.73860996D-04  0.37206966D-20 -0.13763219D-18 -0.17553722D-18
 -0.18530170D-18 -0.13884565D-18  0.54169884D-15 -0.18442780D-18 -0.81552444D-19
 -0.81021438D-15  0.74033290D-18  0.49808940D-18 -0.81488216D-15  0.24980271D-18
 -0.65962888D-18 -0.21682113D-18 -0.13895595D-15 -0.66081010D-18 -0.22181523D-18
  0.20815559D-15  0.26396967D-17  0.87227861D-18  0.20871225D-15 -0.27498221D-19
  0.15073307D-03  0.28178671D-03  0.48701542D-03  0.78772559D-03  0.11906011D-02
  0.16396531D-02  0.19163743D-02  0.16558920D-02  0.77231392D-03  0.10486355D-03
  0.28079874D-06  0.55081104D-06  0.25146825D-07 -0.31561527D-03 -0.58942495D-03
 -0.10224488D-02 -0.16578654D-02 -0.25524724D-02 -0.36352941D-02 -0.46745163D-02
 -0.49068511D-02 -0.34694915D-02  0.76833341D-04  0.24928745D-02  0.13726443D-02
 -0.58048896D-05  0.19170030D-03  0.35774111D-03  0.62135349D-03  0.10064548D-02
  0.15546781D-02  0.22164272D-02  0.28828478D-02  0.30723387D-02  0.22786897D-02
 -0.70927149D-04 -0.20643742D-02 -0.20223742D-02  0.94456868D-03  0.52602173D-03
 -0.15137584D-02 -0.70756373D-03 -0.58774003D-16 -0.77108291D-16 -0.84576043D-16
 -0.69590508D-16 -0.36689492D-16 -0.95448717D-17  0.10562374D-19 -0.19626062D-16
 -0.25748325D-16 -0.28241988D-16 -0.23237955D-16 -0.12251510D-16 -0.31872637D-17
  0.35270322D-20  0.13775501D-01  0.18072707D-01  0.19823005D-01  0.16310683D-01
  0.85993144D-02  0.22371352D-02 -0.24756181D-05  0.51919964D-16  0.68171228D-16
  0.76697228D-16  0.64623214D-16  0.36149320D-16  0.89974921D-17 -0.41266834D-17
  0.17331652D-16  0.22756564D-16  0.25602669D-16  0.21572185D-16  0.12067178D-16
  0.30034959D-17 -0.13775480D-17 -0.11666144D-01 -0.15317718D-01 -0.17233466D-01
 -0.14520498D-01 -0.81225629D-02 -0.20216894D-02  0.92724416D-03  0.28148266D-17
  0.92686511D-18 -0.17922932D-02 -0.10185995D-17 -0.12293273D-18  0.99857849D-03
 -0.38864324D-20  0.84994476D-20  0.35490139D-04  0.34975973D-03  0.34975973D-03
 -0.69951945D-03  0.23518568D-19  0.33241302D-17  0.10376009D-17 -0.22837858D-03
 -0.22837858D-03  0.45675716D-03 -0.28664856D-19  0.21569477D-18  0.12995142D-18
  0.43603424D-04  0.43603424D-04 -0.87206848D-04 -0.21765212D-21  0.24192593D-18
  0.24759865D-19  0.42750041D-18  0.15280098D-18  0.47126128D-03  0.42588585D-18
  0.15309114D-18 -0.70689192D-03 -0.17083871D-17 -0.61149409D-18 -0.70689192D-03
  0.26205679D-19  0.12682299D-18  0.34662070D-19  0.78845654D-04  0.12743966D-18
  0.35551636D-19 -0.11826848D-03 -0.50790863D-18 -0.13953785D-18 -0.11826848D-03
 -0.18751654D-19  0.15073307D-03  0.28178671D-03  0.48701542D-03  0.78772559D-03
  0.11906011D-02  0.16396531D-02  0.19163743D-02  0.16558920D-02  0.77231392D-03
  0.10486355D-03  0.28079874D-06  0.55081104D-06  0.25146825D-07 -0.31561527D-03
 -0.58942495D-03 -0.10224488D-02 -0.16578654D-02 -0.25524724D-02 -0.36352941D-02
 -0.46745163D-02 -0.49068511D-02 -0.34694915D-02  0.76833341D-04  0.24928745D-02
  0.13726443D-02 -0.58048896D-05  0.19170030D-03  0.35774111D-03  0.62135349D-03
  0.10064548D-02  0.15546781D-02  0.22164272D-02  0.28828478D-02  0.30723387D-02
  0.22786897D-02 -0.70927149D-04 -0.20643742D-02 -0.20223742D-02  0.94456868D-03
  0.52602173D-03 -0.15137584D-02 -0.70756373D-03 -0.58470276D-16 -0.76709818D-16
 -0.84138978D-16 -0.69230885D-16 -0.36499892D-16 -0.94955467D-17  0.10507790D-19
 -0.19468643D-16 -0.25541799D-16 -0.28015461D-16 -0.23051565D-16 -0.12153241D-16
 -0.31616989D-17  0.34987422D-20 -0.13775501D-01 -0.18072707D-01 -0.19823005D-01
 -0.16310683D-01 -0.85993144D-02 -0.22371352D-02  0.24756181D-05  0.51484418D-16
  0.67599355D-16  0.76053832D-16  0.64081104D-16  0.35846071D-16  0.89220141D-17
 -0.40920656D-17  0.17126031D-16  0.22486583D-16  0.25298923D-16  0.21316255D-16
  0.11924014D-16  0.29678629D-17 -0.13612049D-17  0.11666144D-01  0.15317718D-01
  0.17233466D-01  0.14520498D-01  0.81225629D-02  0.20216894D-02 -0.92724416D-03
  0.27651195D-17  0.91465372D-18  0.17922932D-02 -0.14678418D-17 -0.70489537D-18
 -0.99857849D-03 -0.11129048D-19 -0.83861458D-21 -0.35490139D-04  0.34975973D-03
  0.34975973D-03 -0.69951945D-03  0.47573261D-20 -0.35109540D-17 -0.13055791D-17
 -0.22837858D-03 -0.22837858D-03  0.45675716D-03 -0.81996298D-20 -0.61058605D-19
  0.63320340D-19  0.43603424D-04  0.43603424D-04 -0.87206848D-04 -0.11803052D-20
 -0.34209577D-18 -0.15713131D-18  0.43155128D-18  0.16107107D-18 -0.47126128D-03
  0.42784426D-18  0.15793167D-18  0.70689192D-03 -0.17224981D-17 -0.64114489D-18
  0.70689192D-03 -0.65808708D-20  0.13734908D-18  0.53685560D-19 -0.78845654D-04
  0.13808958D-18  0.54971280D-19  0.11826848D-03 -0.55013683D-18 -0.21602796D-18
  0.11826848D-03  0.61424973D-20
MO    4     MO 0.0        OCC NO =    2.0000000  ORB. ENERGY =   -7.716365
 -0.73873498D-10 -0.13771700D-09 -0.23276598D-09 -0.34992352D-09 -0.42992147D-09
 -0.36313741D-09 -0.13696207D-09  0.67783293D-12  0.12433556D-10  0.23279541D-10
  0.39635410D-10  0.61309952D-10  0.80743050D-10  0.83897201D-10  0.53312905D-10
 -0.35729069D-10 -0.31986034D-09 -0.17159991D-08  0.14479787D-09  0.16566081D-15
  0.15531754D-15  0.11059534D-15 -0.23738180D-15 -0.22256052D-15 -0.15847635D-15
  0.73975663D-04  0.69356886D-04  0.49386235D-04 -0.15174093D-16  0.39405259D-16
  0.46344298D-03  0.38819362D-17 -0.16803906D-16 -0.42847249D-02 -0.78485515D-18
 -0.21757248D-18 -0.31969974D-04  0.75140948D-10  0.75140666D-10 -0.15028161D-09
  0.91778560D-16  0.35639942D-15 -0.23774356D-17 -0.22627718D-09 -0.22627720D-09
  0.45255438D-09 -0.11852987D-16  0.82171312D-17 -0.99785995D-17 -0.48464037D-10
 -0.48464035D-10  0.96928072D-10 -0.11456653D-19  0.66518921D-17 -0.13740296D-17
 -0.66241052D-17 -0.11603272D-16 -0.67558343D-04 -0.66333436D-17 -0.11618690D-16
  0.10133751D-03  0.26505659D-16  0.46428505D-16  0.10133751D-03 -0.30336465D-17
 -0.97904538D-18  0.17412164D-17 -0.19070703D-04 -0.97752498D-18  0.17431264D-17
  0.28606055D-04  0.39146611D-17 -0.69667757D-17  0.28606055D-04  0.55959341D-18
 -0.26778587D-02 -0.50061013D-02 -0.86521060D-02 -0.13994393D-01 -0.21151706D-01
 -0.29129370D-01 -0.34045480D-01 -0.29417863D-01 -0.13720596D-01 -0.18629605D-02
 -0.49885493D-05 -0.97854716D-05 -0.44674765D-06 -0.10993846D+00 -0.20531476D+00
 -0.35615023D+00 -0.57748528D+00 -0.88910433D+00 -0.12662843D+01 -0.16282772D+01
 -0.17092065D+01 -0.12085301D+01  0.26763406D-01  0.86834453D+00  0.47813406D+00
 -0.20220208D-02 -0.11525191D-02 -0.21507712D-02 -0.37356321D-02 -0.60508952D-02
 -0.93468622D-02 -0.13325356D-01 -0.17331936D-01 -0.18471172D-01 -0.13699684D-01
  0.42642029D-03  0.12411200D-01  0.12158692D-01 -0.56788304D-02  0.42754105D-01
  0.64247672D-02  0.86530812D-03  0.17679126D-14  0.23194050D-14  0.25440338D-14
  0.20932713D-14  0.11036140D-14  0.28710821D-15 -0.31771450D-18  0.27827715D-15
  0.36508447D-15  0.40044201D-15  0.32949003D-15  0.17371366D-15  0.45192084D-16
 -0.50009649D-19 -0.42484929D-01 -0.55737914D-01 -0.61135996D-01 -0.50303666D-01
 -0.26521088D-01 -0.68995335D-02  0.76350372D-05  0.17733105D-15  0.23283674D-15
  0.26195704D-15  0.22071861D-15  0.12346689D-15  0.30730659D-16 -0.14094561D-16
 -0.10373841D-15 -0.13620917D-15 -0.15324450D-15 -0.12912008D-15 -0.72227960D-16
 -0.17977392D-16  0.82452982D-17  0.35310305D-02  0.46362645D-02  0.52161102D-02
  0.43949672D-02  0.24584830D-02  0.61191142D-03 -0.28065206D-03  0.52862999D-16
  0.41967506D-18 -0.31877686D-03 -0.84332580D-17  0.68946028D-17 -0.19925176D-02
  0.64865834D-19  0.14862239D-18 -0.36571916D-04 -0.45582124D-04 -0.45582124D-04
  0.91164248D-04 -0.52764227D-18  0.85860016D-17 -0.10245247D-16 -0.13044707D-03
 -0.13044707D-03  0.26089415D-03  0.38525923D-17 -0.10679320D-17  0.16623627D-16
 -0.77166932D-04 -0.77166932D-04  0.15433386D-03 -0.16448258D-19  0.16310840D-17
 -0.18167376D-17  0.29499143D-17  0.18395018D-17  0.46624322D-05  0.29806996D-17
  0.18119737D-17 -0.69936483D-05 -0.11830443D-16 -0.73304790D-17 -0.69936483D-05
 -0.75866930D-18  0.21461833D-19 -0.63046869D-18 -0.37686003D-05  0.18068808D-19
 -0.62895193D-18  0.56529004D-05 -0.82454307D-19  0.25203580D-17  0.56529004D-05
  0.40979092D-18  0.26778551D-02  0.50060944D-02  0.86520942D-02  0.13994374D-01
  0.21151677D-01  0.29129330D-01  0.34045433D-01  0.29417823D-01  0.13720577D-01
  0.18629580D-02  0.49885425D-05  0.97854582D-05  0.44674704D-06  0.10993831D+00
  0.20531448D+00  0.35614973D+00  0.57748448D+00  0.88910310D+00  0.12662825D+01
  0.16282749D+01  0.17092042D+01  0.12085285D+01 -0.26763369D-01 -0.86834332D+00
 -0.47813340D+00  0.20220180D-02  0.11525176D-02  0.21507683D-02  0.37356271D-02
  0.60508870D-02  0.93468496D-02  0.13325339D-01  0.17331913D-01  0.18471147D-01
  0.13699666D-01 -0.42641972D-03 -0.12411183D-01 -0.12158676D-01  0.56788228D-02
 -0.42754045D-01 -0.64247652D-02 -0.86530803D-03  0.11884783D-14  0.15592189D-14
  0.17102254D-14  0.14072006D-14  0.74190399D-15  0.19300835D-15 -0.21358342D-18
  0.59575505D-15  0.78159818D-15  0.85729407D-15  0.70539515D-15  0.37189827D-15
  0.96750353D-16 -0.10706413D-18 -0.42484896D-01 -0.55737870D-01 -0.61135947D-01
 -0.50303626D-01 -0.26521067D-01 -0.68995280D-02  0.76350312D-05  0.21065764D-15
  0.27659476D-15  0.31118776D-15  0.26219922D-15  0.14667057D-15  0.36506005D-16
 -0.16743413D-16 -0.59724317D-16 -0.78418391D-16 -0.88225978D-16 -0.74337057D-16
 -0.41583107D-16 -0.10349951D-16  0.47469861D-17  0.35310484D-02  0.46362881D-02
  0.52161367D-02  0.43949895D-02  0.24584955D-02  0.61191453D-03 -0.28065349D-03