 Molden2AIM, Version 4.0.0 (06/02/2016)           Time: Fri Jun 29 04:28:08 2018
GAUSSIAN             28 MOL ORBITALS    468 PRIMITIVES        4 NUCLEI
  C    1    (CENTRE  1)  -0.00006614  0.00000000  0.00000000  CHARGE =  6.0
  S    2    (CENTRE  2)  -1.64647302  2.85188585  0.00000000  CHARGE = 16.0
  S    3    (CENTRE  3)  -1.64647302 -2.85188585  0.00000000  CHARGE = 16.0
  S    4    (CENTRE  4)   3.29301407  0.00000000  0.00000000  CHARGE = 16.0
CENTRE ASSIGNMENTS    1  1  1  1  1  1  1  1  1  1  1  1  1  1  1  1  1  1  1  1
CENTRE ASSIGNMENTS    1  1  1  1  1  1  1  1  1  1  1  1  1  1  1  1  1  1  1  1
CENTRE ASSIGNMENTS    1  1  1  1  1  1  1  1  1  1  1  1  1  1  1  1  1  1  1  1
CENTRE ASSIGNMENTS    1  1  1  1  1  1  1  1  1  1  1  1  1  1  1  2  2  2  2  2
CENTRE ASSIGNMENTS    2  2  2  2  2  2  2  2  2  2  2  2  2  2  2  2  2  2  2  2
CENTRE ASSIGNMENTS    2  2  2  2  2  2  2  2  2  2  2  2  2  2  2  2  2  2  2  2
CENTRE ASSIGNMENTS    2  2  2  2  2  2  2  2  2  2  2  2  2  2  2  2  2  2  2  2
CENTRE ASSIGNMENTS    2  2  2  2  2  2  2  2  2  2  2  2  2  2  2  2  2  2  2  2
CENTRE ASSIGNMENTS    2  2  2  2  2  2  2  2  2  2  2  2  2  2  2  2  2  2  2  2
CENTRE ASSIGNMENTS    2  2  2  2  2  2  2  2  2  2  2  2  2  2  2  2  2  2  2  2
CENTRE ASSIGNMENTS    2  2  2  2  2  2  3  3  3  3  3  3  3  3  3  3  3  3  3  3
CENTRE ASSIGNMENTS    3  3  3  3  3  3  3  3  3  3  3  3  3  3  3  3  3  3  3  3
CENTRE ASSIGNMENTS    3  3  3  3  3  3  3  3  3  3  3  3  3  3  3  3  3  3  3  3
CENTRE ASSIGNMENTS    3  3  3  3  3  3  3  3  3  3  3  3  3  3  3  3  3  3  3  3
CENTRE ASSIGNMENTS    3  3  3  3  3  3  3  3  3  3  3  3  3  3  3  3  3  3  3  3
CENTRE ASSIGNMENTS    3  3  3  3  3  3  3  3  3  3  3  3  3  3  3  3  3  3  3  3
CENTRE ASSIGNMENTS    3  3  3  3  3  3  3  3  3  3  3  3  3  3  3  3  3  4  4  4
CENTRE ASSIGNMENTS    4  4  4  4  4  4  4  4  4  4  4  4  4  4  4  4  4  4  4  4
CENTRE ASSIGNMENTS    4  4  4  4  4  4  4  4  4  4  4  4  4  4  4  4  4  4  4  4
CENTRE ASSIGNMENTS    4  4  4  4  4  4  4  4  4  4  4  4  4  4  4  4  4  4  4  4
CENTRE ASSIGNMENTS    4  4  4  4  4  4  4  4  4  4  4  4  4  4  4  4  4  4  4  4
CENTRE ASSIGNMENTS    4  4  4  4  4  4  4  4  4  4  4  4  4  4  4  4  4  4  4  4
CENTRE ASSIGNMENTS    4  4  4  4  4  4  4  4  4  4  4  4  4  4  4  4  4  4  4  4
CENTRE ASSIGNMENTS    4  4  4  4  4  4  4  4
TYPE ASSIGNMENTS      1  1  1  1  1  1  1  1  1  1  1  1  1  1  1  1  1  1  1  2
TYPE ASSIGNMENTS      2  2  3  3  3  4  4  4  2  3  4  2  3  4  2  3  4  5  6  7
TYPE ASSIGNMENTS      8  9 10  5  6  7  8  9 10  5  6  7  8  9 10 11 12 13 17 14
TYPE ASSIGNMENTS     15 18 19 16 20 11 12 13 17 14 15 18 19 16 20  1  1  1  1  1
TYPE ASSIGNMENTS      1  1  1  1  1  1  1  1  1  1  1  1  1  1  1  1  1  1  1  1
TYPE ASSIGNMENTS      1  1  1  1  1  1  1  1  1  1  1  1  1  1  1  1  1  2  2  2
TYPE ASSIGNMENTS      2  2  2  2  3  3  3  3  3  3  3  4  4  4  4  4  4  4  2  2
TYPE ASSIGNMENTS      2  2  2  2  2  3  3  3  3  3  3  3  4  4  4  4  4  4  4  2
TYPE ASSIGNMENTS      3  4  2  3  4  2  3  4  5  6  7  8  9 10  5  6  7  8  9 10
TYPE ASSIGNMENTS      5  6  7  8  9 10 11 12 13 17 14 15 18 19 16 20 11 12 13 17
TYPE ASSIGNMENTS     14 15 18 19 16 20  1  1  1  1  1  1  1  1  1  1  1  1  1  1
TYPE ASSIGNMENTS      1  1  1  1  1  1  1  1  1  1  1  1  1  1  1  1  1  1  1  1
TYPE ASSIGNMENTS      1  1  1  1  1  1  1  1  2  2  2  2  2  2  2  3  3  3  3  3
TYPE ASSIGNMENTS      3  3  4  4  4  4  4  4  4  2  2  2  2  2  2  2  3  3  3  3
TYPE ASSIGNMENTS      3  3  3  4  4  4  4  4  4  4  2  3  4  2  3  4  2  3  4  5
TYPE ASSIGNMENTS      6  7  8  9 10  5  6  7  8  9 10  5  6  7  8  9 10 11 12 13
TYPE ASSIGNMENTS     17 14 15 18 19 16 20 11 12 13 17 14 15 18 19 16 20  1  1  1
TYPE ASSIGNMENTS      1  1  1  1  1  1  1  1  1  1  1  1  1  1  1  1  1  1  1  1
TYPE ASSIGNMENTS      1  1  1  1  1  1  1  1  1  1  1  1  1  1  1  1  1  1  1  2
TYPE ASSIGNMENTS      2  2  2  2  2  2  3  3  3  3  3  3  3  4  4  4  4  4  4  4
TYPE ASSIGNMENTS      2  2  2  2  2  2  2  3  3  3  3  3  3  3  4  4  4  4  4  4
TYPE ASSIGNMENTS      4  2  3  4  2  3  4  2  3  4  5  6  7  8  9 10  5  6  7  8
TYPE ASSIGNMENTS      9 10  5  6  7  8  9 10 11 12 13 17 14 15 18 19 16 20 11 12
TYPE ASSIGNMENTS     13 17 14 15 18 19 16 20
EXPONENTS  0.8236000D+04 0.1235000D+04 0.2808000D+03 0.7927000D+02 0.2559000D+02
EXPONENTS  0.8997000D+01 0.3319000D+01 0.3643000D+00 0.8236000D+04 0.1235000D+04
EXPONENTS  0.2808000D+03 0.7927000D+02 0.2559000D+02 0.8997000D+01 0.3319000D+01
EXPONENTS  0.3643000D+00 0.9059000D+00 0.1285000D+00 0.4402000D-01 0.1871000D+02
EXPONENTS  0.4133000D+01 0.1200000D+01 0.1871000D+02 0.4133000D+01 0.1200000D+01
EXPONENTS  0.1871000D+02 0.4133000D+01 0.1200000D+01 0.3827000D+00 0.3827000D+00
EXPONENTS  0.3827000D+00 0.1209000D+00 0.1209000D+00 0.1209000D+00 0.3569000D-01
EXPONENTS  0.3569000D-01 0.3569000D-01 0.1097000D+01 0.1097000D+01 0.1097000D+01
EXPONENTS  0.1097000D+01 0.1097000D+01 0.1097000D+01 0.3180000D+00 0.3180000D+00
EXPONENTS  0.3180000D+00 0.3180000D+00 0.3180000D+00 0.3180000D+00 0.1000000D+00
EXPONENTS  0.1000000D+00 0.1000000D+00 0.1000000D+00 0.1000000D+00 0.1000000D+00
EXPONENTS  0.7610000D+00 0.7610000D+00 0.7610000D+00 0.7610000D+00 0.7610000D+00
EXPONENTS  0.7610000D+00 0.7610000D+00 0.7610000D+00 0.7610000D+00 0.7610000D+00
EXPONENTS  0.2680000D+00 0.2680000D+00 0.2680000D+00 0.2680000D+00 0.2680000D+00
EXPONENTS  0.2680000D+00 0.2680000D+00 0.2680000D+00 0.2680000D+00 0.2680000D+00
EXPONENTS  0.3741000D+06 0.5605000D+05 0.1276000D+05 0.3615000D+04 0.1183000D+04
EXPONENTS  0.4288000D+03 0.1678000D+03 0.6947000D+02 0.2984000D+02 0.1272000D+02
EXPONENTS  0.5244000D+01 0.2219000D+01 0.3490000D+00 0.3741000D+06 0.5605000D+05
EXPONENTS  0.1276000D+05 0.3615000D+04 0.1183000D+04 0.4288000D+03 0.1678000D+03
EXPONENTS  0.6947000D+02 0.2984000D+02 0.1272000D+02 0.5244000D+01 0.2219000D+01
EXPONENTS  0.3490000D+00 0.3741000D+06 0.5605000D+05 0.1276000D+05 0.3615000D+04
EXPONENTS  0.1183000D+04 0.4288000D+03 0.1678000D+03 0.6947000D+02 0.2984000D+02
EXPONENTS  0.1272000D+02 0.5244000D+01 0.2219000D+01 0.3490000D+00 0.7767000D+00
EXPONENTS  0.1322000D+00 0.4970000D-01 0.5744000D+03 0.1358000D+03 0.4319000D+02
EXPONENTS  0.1587000D+02 0.6208000D+01 0.2483000D+01 0.3229000D+00 0.5744000D+03
EXPONENTS  0.1358000D+03 0.4319000D+02 0.1587000D+02 0.6208000D+01 0.2483000D+01
EXPONENTS  0.3229000D+00 0.5744000D+03 0.1358000D+03 0.4319000D+02 0.1587000D+02
EXPONENTS  0.6208000D+01 0.2483000D+01 0.3229000D+00 0.5744000D+03 0.1358000D+03
EXPONENTS  0.4319000D+02 0.1587000D+02 0.6208000D+01 0.2483000D+01 0.3229000D+00
EXPONENTS  0.5744000D+03 0.1358000D+03 0.4319000D+02 0.1587000D+02 0.6208000D+01
EXPONENTS  0.2483000D+01 0.3229000D+00 0.5744000D+03 0.1358000D+03 0.4319000D+02
EXPONENTS  0.1587000D+02 0.6208000D+01 0.2483000D+01 0.3229000D+00 0.8688000D+00
EXPONENTS  0.8688000D+00 0.8688000D+00 0.1098000D+00 0.1098000D+00 0.1098000D+00
EXPONENTS  0.3510000D-01 0.3510000D-01 0.3510000D-01 0.2690000D+00 0.2690000D+00
EXPONENTS  0.2690000D+00 0.2690000D+00 0.2690000D+00 0.2690000D+00 0.8190000D+00
EXPONENTS  0.8190000D+00 0.8190000D+00 0.8190000D+00 0.8190000D+00 0.8190000D+00
EXPONENTS  0.1010000D+00 0.1010000D+00 0.1010000D+00 0.1010000D+00 0.1010000D+00
EXPONENTS  0.1010000D+00 0.5570000D+00 0.5570000D+00 0.5570000D+00 0.5570000D+00
EXPONENTS  0.5570000D+00 0.5570000D+00 0.5570000D+00 0.5570000D+00 0.5570000D+00
EXPONENTS  0.5570000D+00 0.2180000D+00 0.2180000D+00 0.2180000D+00 0.2180000D+00
EXPONENTS  0.2180000D+00 0.2180000D+00 0.2180000D+00 0.2180000D+00 0.2180000D+00
EXPONENTS  0.2180000D+00 0.3741000D+06 0.5605000D+05 0.1276000D+05 0.3615000D+04
EXPONENTS  0.1183000D+04 0.4288000D+03 0.1678000D+03 0.6947000D+02 0.2984000D+02
EXPONENTS  0.1272000D+02 0.5244000D+01 0.2219000D+01 0.3490000D+00 0.3741000D+06
EXPONENTS  0.5605000D+05 0.1276000D+05 0.3615000D+04 0.1183000D+04 0.4288000D+03
EXPONENTS  0.1678000D+03 0.6947000D+02 0.2984000D+02 0.1272000D+02 0.5244000D+01
EXPONENTS  0.2219000D+01 0.3490000D+00 0.3741000D+06 0.5605000D+05 0.1276000D+05
EXPONENTS  0.3615000D+04 0.1183000D+04 0.4288000D+03 0.1678000D+03 0.6947000D+02
EXPONENTS  0.2984000D+02 0.1272000D+02 0.5244000D+01 0.2219000D+01 0.3490000D+00
EXPONENTS  0.7767000D+00 0.1322000D+00 0.4970000D-01 0.5744000D+03 0.1358000D+03
EXPONENTS  0.4319000D+02 0.1587000D+02 0.6208000D+01 0.2483000D+01 0.3229000D+00
EXPONENTS  0.5744000D+03 0.1358000D+03 0.4319000D+02 0.1587000D+02 0.6208000D+01
EXPONENTS  0.2483000D+01 0.3229000D+00 0.5744000D+03 0.1358000D+03 0.4319000D+02
EXPONENTS  0.1587000D+02 0.6208000D+01 0.2483000D+01 0.3229000D+00 0.5744000D+03
EXPONENTS  0.1358000D+03 0.4319000D+02 0.1587000D+02 0.6208000D+01 0.2483000D+01
EXPONENTS  0.3229000D+00 0.5744000D+03 0.1358000D+03 0.4319000D+02 0.1587000D+02
EXPONENTS  0.6208000D+01 0.2483000D+01 0.3229000D+00 0.5744000D+03 0.1358000D+03
EXPONENTS  0.4319000D+02 0.1587000D+02 0.6208000D+01 0.2483000D+01 0.3229000D+00
EXPONENTS  0.8688000D+00 0.8688000D+00 0.8688000D+00 0.1098000D+00 0.1098000D+00
EXPONENTS  0.1098000D+00 0.3510000D-01 0.3510000D-01 0.3510000D-01 0.2690000D+00
EXPONENTS  0.2690000D+00 0.2690000D+00 0.2690000D+00 0.2690000D+00 0.2690000D+00
EXPONENTS  0.8190000D+00 0.8190000D+00 0.8190000D+00 0.8190000D+00 0.8190000D+00
EXPONENTS  0.8190000D+00 0.1010000D+00 0.1010000D+00 0.1010000D+00 0.1010000D+00
EXPONENTS  0.1010000D+00 0.1010000D+00 0.5570000D+00 0.5570000D+00 0.5570000D+00
EXPONENTS  0.5570000D+00 0.5570000D+00 0.5570000D+00 0.5570000D+00 0.5570000D+00
EXPONENTS  0.5570000D+00 0.5570000D+00 0.2180000D+00 0.2180000D+00 0.2180000D+00
EXPONENTS  0.2180000D+00 0.2180000D+00 0.2180000D+00 0.2180000D+00 0.2180000D+00
EXPONENTS  0.2180000D+00 0.2180000D+00 0.3741000D+06 0.5605000D+05 0.1276000D+05
EXPONENTS  0.3615000D+04 0.1183000D+04 0.4288000D+03 0.1678000D+03 0.6947000D+02
EXPONENTS  0.2984000D+02 0.1272000D+02 0.5244000D+01 0.2219000D+01 0.3490000D+00
EXPONENTS  0.3741000D+06 0.5605000D+05 0.1276000D+05 0.3615000D+04 0.1183000D+04
EXPONENTS  0.4288000D+03 0.1678000D+03 0.6947000D+02 0.2984000D+02 0.1272000D+02
EXPONENTS  0.5244000D+01 0.2219000D+01 0.3490000D+00 0.3741000D+06 0.5605000D+05
EXPONENTS  0.1276000D+05 0.3615000D+04 0.1183000D+04 0.4288000D+03 0.1678000D+03
EXPONENTS  0.6947000D+02 0.2984000D+02 0.1272000D+02 0.5244000D+01 0.2219000D+01
EXPONENTS  0.3490000D+00 0.7767000D+00 0.1322000D+00 0.4970000D-01 0.5744000D+03
EXPONENTS  0.1358000D+03 0.4319000D+02 0.1587000D+02 0.6208000D+01 0.2483000D+01
EXPONENTS  0.3229000D+00 0.5744000D+03 0.1358000D+03 0.4319000D+02 0.1587000D+02
EXPONENTS  0.6208000D+01 0.2483000D+01 0.3229000D+00 0.5744000D+03 0.1358000D+03
EXPONENTS  0.4319000D+02 0.1587000D+02 0.6208000D+01 0.2483000D+01 0.3229000D+00
EXPONENTS  0.5744000D+03 0.1358000D+03 0.4319000D+02 0.1587000D+02 0.6208000D+01
EXPONENTS  0.2483000D+01 0.3229000D+00 0.5744000D+03 0.1358000D+03 0.4319000D+02
EXPONENTS  0.1587000D+02 0.6208000D+01 0.2483000D+01 0.3229000D+00 0.5744000D+03
EXPONENTS  0.1358000D+03 0.4319000D+02 0.1587000D+02 0.6208000D+01 0.2483000D+01
EXPONENTS  0.3229000D+00 0.8688000D+00 0.8688000D+00 0.8688000D+00 0.1098000D+00
EXPONENTS  0.1098000D+00 0.1098000D+00 0.3510000D-01 0.3510000D-01 0.3510000D-01
EXPONENTS  0.2690000D+00 0.2690000D+00 0.2690000D+00 0.2690000D+00 0.2690000D+00
EXPONENTS  0.2690000D+00 0.8190000D+00 0.8190000D+00 0.8190000D+00 0.8190000D+00
EXPONENTS  0.8190000D+00 0.8190000D+00 0.1010000D+00 0.1010000D+00 0.1010000D+00
EXPONENTS  0.1010000D+00 0.1010000D+00 0.1010000D+00 0.5570000D+00 0.5570000D+00
EXPONENTS  0.5570000D+00 0.5570000D+00 0.5570000D+00 0.5570000D+00 0.5570000D+00
EXPONENTS  0.5570000D+00 0.5570000D+00 0.5570000D+00 0.2180000D+00 0.2180000D+00
EXPONENTS  0.2180000D+00 0.2180000D+00 0.2180000D+00 0.2180000D+00 0.2180000D+00
EXPONENTS  0.2180000D+00 0.2180000D+00 0.2180000D+00
MO    1     MO 0.0        OCC NO =    2.0000000  ORB. ENERGY =  -87.713376
  0.34472954D-11  0.64265425D-11  0.10861989D-10  0.16329127D-10  0.20062220D-10
  0.16945752D-10  0.63913140D-11 -0.31630970D-13 -0.26577389D-11 -0.49761258D-11
 -0.84722799D-11 -0.13105329D-10 -0.17259257D-10 -0.17933473D-10 -0.11395917D-10
  0.76372788D-11  0.89267330D-11 -0.69151817D-11 -0.28914710D-11 -0.53048892D-11
 -0.49736708D-11 -0.35415499D-11  0.22164512D-03  0.20780639D-03  0.14797053D-03
 -0.19951053D-15 -0.18705381D-15 -0.13319345D-15 -0.14852610D-12  0.63984518D-05
  0.47387167D-16 -0.14172891D-10  0.59318668D-03  0.11956090D-16  0.13634199D-12
 -0.58926493D-05 -0.16828196D-17  0.17706538D-11  0.44482101D-11 -0.62188639D-11
 -0.11169276D-03 -0.11237893D-16 -0.11007218D-14 -0.14775982D-11 -0.51612420D-11
  0.66388403D-11  0.15358062D-03 -0.25297277D-18 -0.53169481D-17 -0.15022528D-11
  0.79826843D-12  0.70398440D-12 -0.96744041D-04 -0.14397327D-19 -0.18815867D-18
 -0.21573243D-12 -0.22653829D-04 -0.12153816D-18  0.28150550D-11 -0.22672360D-04
  0.68696901D-19 -0.21678577D-11  0.90633846D-04  0.29591758D-18 -0.11606819D-18
 -0.19274646D-11 -0.11036613D-04 -0.19120547D-19  0.68383037D-11 -0.10998619D-04
  0.18219783D-19 -0.10559097D-11  0.44108458D-04  0.39141859D-19  0.98837847D-18
  0.41379462D+00  0.77356500D+00  0.13369618D+01  0.21624758D+01  0.32684555D+01
  0.45011996D+01  0.52608587D+01  0.45457788D+01  0.21201674D+01  0.28787294D+00
  0.77085279D-03  0.15120945D-02  0.69033431D-04 -0.86535493D-03 -0.16160872D-02
 -0.28033533D-02 -0.45455404D-02 -0.69983769D-02 -0.99672608D-02 -0.12816603D-01
 -0.13453620D-01 -0.95126625D-02  0.21066190D-03  0.68349710D-02  0.37635205D-02
 -0.15915865D-04  0.37811197D-03  0.70561287D-03  0.12255651D-02  0.19851435D-02
  0.30664658D-02  0.43717078D-02  0.56861638D-02  0.60599178D-02  0.44945150D-02
 -0.13989756D-03 -0.40717965D-02 -0.39889552D-02  0.18630786D-02 -0.21713962D-02
 -0.13193968D-02 -0.23005516D-03  0.86018598D-03  0.11285172D-02  0.12378113D-02
  0.10184908D-02  0.53696848D-03  0.13969382D-03 -0.15458545D-06 -0.36619780D-02
 -0.48043158D-02 -0.52696021D-02 -0.43359122D-02 -0.22859786D-02 -0.59470360D-03
  0.65810016D-06 -0.10235231D-17 -0.13428065D-17 -0.14728541D-17 -0.12118877D-17
 -0.63893115D-18 -0.16621969D-18  0.18393903D-21 -0.70812956D-03 -0.92977842D-03
 -0.10460634D-02 -0.88138752D-03 -0.49303582D-03 -0.12271561D-03  0.56283292D-04
  0.30695496D-02  0.40303373D-02  0.45344012D-02  0.38205759D-02  0.21371766D-02
  0.53193890D-03 -0.24397281D-03 -0.67991903D-17 -0.89273782D-17 -0.10043902D-16
 -0.84627472D-17 -0.47339421D-17 -0.11782686D-17  0.54041073D-18  0.14269609D-04
  0.12376426D-03  0.50804657D-18 -0.21466574D-03  0.48260984D-03  0.43996909D-18
 -0.33952059D-05  0.12597963D-04  0.14107035D-19  0.43373577D-05 -0.35616037D-04
  0.31278680D-04  0.96981100D-04  0.65043459D-18 -0.82325635D-18 -0.31146545D-04
  0.14483516D-03 -0.11368862D-03 -0.27013586D-03 -0.27024998D-18  0.22883783D-18
  0.10947024D-04 -0.39911057D-04  0.28964033D-04  0.58239610D-04  0.62399329D-19
 -0.11073466D-18 -0.11605790D-04 -0.27775347D-04  0.14299325D-18  0.76623852D-04
  0.45030115D-06 -0.11070139D-18 -0.41806480D-04  0.82875741D-04 -0.31827834D-18
 -0.10967292D-18  0.58519831D-05  0.97997824D-05 -0.97621969D-19 -0.32624827D-04
  0.50122770D-05  0.34585273D-19  0.15068878D-04 -0.34411624D-04  0.25828063D-18
 -0.28855551D-18 -0.41379460D+00 -0.77356496D+00 -0.13369618D+01 -0.21624757D+01
 -0.32684553D+01 -0.45011993D+01 -0.52608584D+01 -0.45457786D+01 -0.21201673D+01
 -0.28787292D+00 -0.77085275D-03 -0.15120944D-02 -0.69033427D-04  0.86535488D-03
  0.16160871D-02  0.28033531D-02  0.45455402D-02  0.69983765D-02  0.99672602D-02
  0.12816603D-01  0.13453619D-01  0.95126620D-02 -0.21066188D-03 -0.68349706D-02
 -0.37635203D-02  0.15915864D-04 -0.37811195D-03 -0.70561283D-03 -0.12255650D-02
 -0.19851434D-02 -0.30664656D-02 -0.43717075D-02 -0.56861634D-02 -0.60599175D-02
 -0.44945148D-02  0.13989756D-03  0.40717962D-02  0.39889549D-02 -0.18630785D-02
  0.21713961D-02  0.13193968D-02  0.23005516D-03 -0.86018568D-03 -0.11285168D-02
 -0.12378109D-02 -0.10184904D-02 -0.53696829D-03 -0.13969377D-03  0.15458540D-06
 -0.36619777D-02 -0.48043153D-02 -0.52696016D-02 -0.43359117D-02 -0.22859784D-02
 -0.59470354D-03  0.65810010D-06  0.37545808D-17  0.49258055D-17  0.54028579D-17
  0.44455571D-17  0.23437856D-17  0.60974224D-18 -0.67474195D-21  0.70812929D-03
  0.92977807D-03  0.10460630D-02  0.88138719D-03  0.49303564D-03  0.12271557D-03
 -0.56283271D-04  0.30695493D-02  0.40303369D-02  0.45344008D-02  0.38205755D-02
  0.21371764D-02  0.53193885D-03 -0.24397279D-03  0.93010302D-17  0.12212309D-16
  0.13739671D-16  0.11576712D-16  0.64758504D-17  0.16118260D-17 -0.73926106D-18
 -0.14269619D-04  0.12376425D-03  0.41295200D-19  0.21466573D-03  0.48260983D-03
 -0.66840796D-18  0.33952055D-05  0.12597962D-04  0.11193679D-20 -0.43373578D-05
  0.35616037D-04 -0.31278679D-04  0.96981102D-04 -0.56749916D-18 -0.14924016D-17
  0.31146544D-04 -0.14483515D-03  0.11368861D-03 -0.27013584D-03  0.29703008D-18
  0.13089851D-17 -0.10947024D-04  0.39911056D-04 -0.28964032D-04  0.58239607D-04
 -0.11680505D-18 -0.15982069D-18  0.11605788D-04 -0.27775347D-04 -0.13391334D-18
 -0.76623841D-04  0.45030403D-06  0.10792305D-18  0.41806477D-04  0.82875737D-04
  0.29381697D-18 -0.16684255D-18 -0.58519829D-05  0.97997821D-05  0.11527407D-18
  0.32624825D-04  0.50122763D-05 -0.34781466D-19 -0.15068876D-04 -0.34411623D-04
 -0.31104075D-18 -0.50403356D-18 -0.51049993D-08 -0.95434995D-08 -0.16494147D-07
 -0.26678542D-07 -0.40323054D-07 -0.55531463D-07 -0.64903405D-07 -0.56081438D-07
 -0.26156583D-07 -0.35514988D-08 -0.95100389D-11 -0.18654765D-10 -0.85166794D-12
  0.11067349D-10  0.20668746D-10  0.35853138D-10  0.58134623D-10  0.89504871D-10
  0.12747504D-09  0.16391635D-09  0.17206340D-09  0.12166101D-09 -0.26942341D-11
 -0.87415011D-10 -0.48133077D-10  0.20355397D-12 -0.48220740D-11 -0.89987034D-11
 -0.15629671D-10 -0.25316599D-10 -0.39106736D-10 -0.55752528D-10 -0.72515827D-10
 -0.77282325D-10 -0.57318693D-10  0.17841181D-11  0.51927750D-10  0.50871272D-10
 -0.23759901D-10  0.27572068D-10  0.35861342D-10  0.69744451D-11 -0.76011038D-10
 -0.99722342D-10 -0.10938021D-09 -0.89999770D-10 -0.47449659D-10 -0.12344159D-10
  0.13660070D-13 -0.21729588D-02 -0.28508036D-02 -0.31268970D-02 -0.25728604D-02
 -0.13564629D-02 -0.35288753D-03  0.39050603D-06  0.18249160D-17  0.23941904D-17
  0.26260619D-17  0.21607654D-17  0.11391982D-17  0.29636554D-18 -0.32795868D-21
  0.72933853D-10  0.95762593D-10  0.10773937D-09  0.90778568D-10  0.50780258D-10
  0.12639103D-10 -0.57969016D-11  0.18438472D-02  0.24209826D-02  0.27237687D-02
  0.22949810D-02  0.12837802D-02  0.31953028D-03 -0.14655198D-03 -0.11189636D-17
 -0.14692060D-17 -0.16529558D-17 -0.13927403D-17 -0.77907938D-18 -0.19391127D-18
  0.88937052D-19  0.12383887D-11  0.14851661D-03 -0.26405658D-18 -0.13055282D-10
  0.11077136D-03 -0.31613714D-19 -0.33668037D-12  0.67176845D-05 -0.57543441D-20
  0.29414683D-11 -0.19912846D-11 -0.95018374D-12  0.27824605D-04 -0.69182130D-20
 -0.21816697D-19 -0.11734283D-11  0.59848562D-12  0.57494264D-12  0.34687499D-04
  0.95060559D-19 -0.17363909D-19  0.10289341D-11 -0.37645257D-12 -0.65248149D-12
 -0.29844698D-04  0.19886802D-19  0.66967584D-20 -0.42432109D-12  0.11502090D-04
  0.15139168D-19  0.23832218D-11 -0.44972858D-04  0.55852194D-20 -0.11102585D-11
  0.10466587D-04 -0.51002724D-19  0.18253526D-18 -0.25078492D-12 -0.31399001D-06
  0.91353129D-20  0.24538858D-12  0.92538103D-05 -0.33484238D-19  0.50696617D-12
 -0.83118403D-05  0.60782991D-20 -0.23420989D-19
MO    2     MO 0.0        OCC NO =    2.0000000  ORB. ENERGY =  -87.713374
  0.96185578D-04  0.17931179D-03  0.30306851D-03  0.45561124D-03  0.55977105D-03
  0.47281614D-03  0.17832885D-03 -0.88255944D-06 -0.74163043D-04 -0.13885662D-03
 -0.23641527D-03 -0.36569847D-03 -0.48161203D-03 -0.50042574D-03 -0.31799810D-03
  0.21311493D-03  0.24919524D-03 -0.19262201D-03 -0.81585093D-04 -0.18893816D-03
 -0.17714153D-03 -0.12613532D-03 -0.67048970D-11 -0.62862671D-11 -0.44761967D-11
 -0.34083598D-16 -0.31955540D-16 -0.22754248D-16 -0.54772199D-05 -0.17500014D-12
 -0.29129632D-19 -0.50563346D-03 -0.17754645D-10  0.16105641D-18  0.50257658D-05
  0.20127187D-12  0.29944308D-20  0.39172769D-04  0.13443722D-03 -0.17360999D-03
  0.33911696D-11  0.35645697D-18 -0.22074407D-19 -0.27157157D-04 -0.15812119D-03
  0.18527835D-03 -0.46718234D-11 -0.23256116D-18 -0.43844156D-20 -0.51035239D-04
  0.31396841D-04  0.19638398D-04  0.28891256D-11  0.23735890D-19 -0.18063330D-19
 -0.17869067D-05  0.68270725D-12  0.18778981D-20  0.82626500D-04  0.69256151D-12
 -0.54656695D-19 -0.77265780D-04 -0.27406833D-11  0.49023001D-19  0.32338028D-19
 -0.51786525D-04  0.33635693D-12 -0.15194397D-19  0.19295970D-03  0.32855015D-12
 -0.48174461D-19 -0.37600129D-04 -0.13376209D-11  0.93757653D-19 -0.36950250D-19
  0.38025868D+00  0.71087150D+00  0.12286079D+01  0.19872181D+01  0.30035639D+01
  0.41364003D+01  0.48344929D+01  0.41773666D+01  0.19483387D+01  0.26454230D+00
  0.70837911D-03  0.13895470D-02  0.63438623D-04 -0.78412846D-03 -0.14643933D-02
 -0.25402168D-02 -0.41188736D-02 -0.63414749D-02 -0.90316846D-02 -0.11613574D-01
 -0.12190797D-01 -0.86197572D-02  0.19088813D-03  0.61934070D-02  0.34102580D-02
 -0.14421923D-04  0.34299128D-03  0.64007248D-03  0.11117293D-02  0.18007548D-02
  0.27816391D-02  0.39656445D-02  0.51580081D-02  0.54970463D-02  0.40770449D-02
 -0.12690327D-03 -0.36935903D-02 -0.36184437D-02  0.16900278D-02 -0.19733354D-02
 -0.66419888D-03 -0.95868853D-04  0.47259746D-02  0.62002213D-02  0.68006977D-02
  0.55957218D-02  0.29501752D-02  0.76749615D-03 -0.84931274D-06 -0.49782834D-02
 -0.65312367D-02 -0.71637712D-02 -0.58944645D-02 -0.31076782D-02 -0.80847100D-03
  0.89465558D-06 -0.14212609D-16 -0.18646169D-16 -0.20452005D-16 -0.16828234D-16
 -0.88721777D-17 -0.23081213D-17  0.25541715D-20 -0.41004252D-02 -0.53838833D-02
 -0.60572317D-02 -0.51036757D-02 -0.28549246D-02 -0.71058493D-03  0.32590849D-03
  0.43806075D-02  0.57517644D-02  0.64711227D-02  0.54524102D-02  0.30500018D-02
  0.75913924D-03 -0.34817783D-03  0.51380253D-17  0.67462585D-17  0.75899957D-17
  0.63951453D-17  0.35773546D-17  0.89039628D-18 -0.40837863D-18 -0.17545779D-03
  0.84640406D-04  0.10288623D-17 -0.22018497D-03  0.21789484D-03  0.48078916D-19
 -0.75462143D-05  0.31509247D-05 -0.48549584D-20  0.77013569D-06 -0.13795465D-04
  0.13025329D-04 -0.15842075D-04 -0.56530221D-19  0.53781203D-19 -0.14407515D-04
  0.14209191D-03 -0.12768439D-03 -0.32218391D-03  0.24196495D-19  0.44573342D-18
 -0.45755774D-05 -0.13789896D-04  0.18365473D-04  0.60007280D-04 -0.66271618D-20
 -0.15338103D-20 -0.35042763D-04 -0.72610698D-05  0.60169708D-19  0.15487634D-03
 -0.48922601D-04  0.27187150D-19 -0.49748052D-04  0.70705810D-04 -0.20769627D-18
  0.23754491D-18  0.32308456D-05  0.46175901D-05  0.28541462D-20 -0.31520357D-04
  0.11678752D-04  0.35747253D-21  0.21827820D-04 -0.25531522D-04 -0.89199111D-20
 -0.82711347D-21  0.38025870D+00  0.71087155D+00  0.12286080D+01  0.19872183D+01
  0.30035641D+01  0.41364006D+01  0.48344933D+01  0.41773669D+01  0.19483388D+01
  0.26454232D+00  0.70837915D-03  0.13895471D-02  0.63438628D-04 -0.78412851D-03
 -0.14643934D-02 -0.25402169D-02 -0.41188739D-02 -0.63414753D-02 -0.90316852D-02
 -0.11613575D-01 -0.12190798D-01 -0.86197578D-02  0.19088815D-03  0.61934074D-02
  0.34102582D-02 -0.14421924D-04  0.34299131D-03  0.64007252D-03  0.11117294D-02
  0.18007549D-02  0.27816393D-02  0.39656448D-02  0.51580085D-02  0.54970466D-02
  0.40770452D-02 -0.12690328D-03 -0.36935905D-02 -0.36184439D-02  0.16900279D-02
 -0.19733356D-02 -0.66419895D-03 -0.95868867D-04  0.47259746D-02  0.62002213D-02
  0.68006978D-02  0.55957219D-02  0.29501752D-02  0.76749616D-03 -0.84931275D-06
  0.49782836D-02  0.65312370D-02  0.71637715D-02  0.58944647D-02  0.31076784D-02
  0.80847103D-03 -0.89465562D-06 -0.18727807D-16 -0.24569863D-16 -0.26949394D-16
 -0.22174389D-16 -0.11690776D-16 -0.30413874D-17  0.33656053D-20 -0.41004253D-02
 -0.53838834D-02 -0.60572318D-02 -0.51036758D-02 -0.28549247D-02 -0.71058494D-03
  0.32590849D-03 -0.43806077D-02 -0.57517646D-02 -0.64711230D-02 -0.54524104D-02
 -0.30500019D-02 -0.75913927D-03  0.34817785D-03  0.54933664D-17  0.72128235D-17
  0.81149128D-17  0.68374276D-17  0.38247611D-17  0.95197526D-18 -0.43662172D-18
 -0.17545779D-03 -0.84640414D-04  0.13820127D-17 -0.22018499D-03 -0.21789487D-03
  0.77100814D-20 -0.75462145D-05 -0.31509255D-05 -0.83271607D-20  0.77013595D-06
 -0.13795467D-04  0.13025331D-04  0.15842070D-04 -0.44860512D-20 -0.40028803D-19
 -0.14407517D-04  0.14209191D-03 -0.12768440D-03  0.32218392D-03  0.13233530D-19
 -0.19515280D-18 -0.45755767D-05 -0.13789898D-04  0.18365475D-04 -0.60007283D-04
 -0.24059897D-19 -0.15307263D-19 -0.35042763D-04  0.72610715D-05  0.18024128D-19
  0.15487634D-03  0.48922601D-04  0.92188392D-20 -0.49748054D-04 -0.70705815D-04
 -0.63291223D-19 -0.48061971D-18  0.32308460D-05 -0.46175907D-05  0.32588995D-20
 -0.31520359D-04 -0.11678752D-04 -0.14533796D-19  0.21827821D-04  0.25531524D-04
  0.47570972D-20 -0.39232261D-19 -0.23076214D+00 -0.43139642D+00 -0.74558770D+00
 -0.12059547D+01 -0.18227298D+01 -0.25101981D+01 -0.29338396D+01 -0.25350587D+01
 -0.11823604D+01 -0.16053900D+00 -0.42988390D-03 -0.84325449D-03 -0.38498090D-04
  0.49369355D-03  0.92199373D-03  0.15993408D-02  0.25932758D-02  0.39926433D-02
  0.56864209D-02  0.73119991D-02  0.76754232D-02  0.54270681D-02 -0.12018470D-03
 -0.38994186D-02 -0.21471257D-02  0.90801582D-05 -0.21534785D-03 -0.40187094D-03
 -0.69800172D-03 -0.11306079D-02 -0.17464584D-02 -0.24898388D-02 -0.32384670D-02
 -0.34513328D-02 -0.25597818D-02  0.79676502D-04  0.23190289D-02  0.22718480D-02
 -0.10610877D-02  0.12330126D-02  0.12838327D-02  0.24381439D-03 -0.13555239D-02
 -0.17783736D-02 -0.19506048D-02 -0.16049885D-02 -0.84618169D-03 -0.22013648D-03
  0.24360346D-06  0.65413006D-10  0.85818302D-10  0.94129597D-10  0.77451324D-10
  0.40833870D-10  0.10623043D-10 -0.11755480D-13  0.93730795D-17  0.12296970D-16
  0.13487902D-16  0.11098059D-16  0.58511163D-17  0.15221839D-17 -0.16844517D-20
  0.13950651D-02  0.18317290D-02  0.20608186D-02  0.17363955D-02  0.97131528D-03
  0.24175840D-03 -0.11088205D-03 -0.55511025D-10 -0.72886314D-10 -0.82002018D-10
 -0.69092900D-10 -0.38649600D-10 -0.96198066D-11  0.44121068D-11 -0.36341698D-17
 -0.47716871D-17 -0.53684697D-17 -0.45233416D-17 -0.25302939D-17 -0.62978500D-18
  0.28884975D-18  0.13287918D-04 -0.44687082D-11 -0.62412516D-18 -0.47682850D-03
 -0.33253252D-11 -0.93601808D-19 -0.12114765D-04 -0.20616787D-12  0.62337468D-20
  0.96562214D-04 -0.63383634D-04 -0.33178580D-04 -0.83860424D-12 -0.58792885D-19
  0.86090068D-20 -0.79169455D-04  0.38946542D-04  0.40222913D-04 -0.10540197D-11
 -0.92451939D-20 -0.69176816D-20  0.39928337D-04 -0.15522943D-04 -0.24405394D-04
  0.89700346D-12  0.18624018D-19  0.14046818D-20 -0.22262082D-05 -0.35004088D-12
 -0.50543700D-19  0.57412371D-04  0.13625224D-11  0.22747616D-18 -0.50733746D-04
 -0.31239976D-12 -0.75845060D-19 -0.14719942D-21 -0.11043433D-04  0.99814603D-14
  0.52661472D-20  0.11015039D-04 -0.27971118D-12 -0.24198695D-19  0.22115262D-04
  0.24976680D-12  0.84002531D-20 -0.65668782D-20
MO    3     MO 0.0        OCC NO =    2.0000000  ORB. ENERGY =  -87.713369
  0.15687567D-03  0.29245192D-03  0.49429527D-03  0.74308770D-03  0.91296910D-03
  0.77114835D-03  0.29084879D-03 -0.14394269D-05 -0.12095693D-03 -0.22646954D-03
 -0.38558377D-03 -0.59643945D-03 -0.78548978D-03 -0.81617420D-03 -0.51864206D-03
  0.34758185D-03  0.40638953D-03 -0.31399434D-03 -0.13304159D-03  0.11580846D-03
  0.10857780D-03  0.77313859D-04 -0.77370903D-12 -0.72540140D-12 -0.51652901D-12
 -0.26339442D-16 -0.24694901D-16 -0.17584241D-16  0.33965091D-05 -0.14348761D-13
  0.15216824D-16  0.31008973D-03 -0.19885133D-11  0.65284007D-19 -0.30713807D-05
  0.30342745D-13 -0.11560730D-19  0.17076334D-03  0.11238914D-03 -0.28315247D-03
  0.39472504D-12 -0.40121161D-18 -0.37465956D-19 -0.19116803D-03 -0.11098792D-03
  0.30215595D-03 -0.54650215D-12  0.24928329D-18  0.27652490D-19  0.93066433D-05
 -0.41334418D-04  0.32027775D-04  0.32158707D-12 -0.32120709D-19  0.16770807D-20
 -0.46250388D-04  0.77895318D-13  0.47841024D-19  0.91395980D-04  0.81933200D-13
 -0.87872088D-19  0.47355184D-04 -0.31561915D-12 -0.55650983D-19  0.24306685D-19
 -0.10555515D-03  0.39552605D-13 -0.41555422D-19  0.29361643D-03  0.36576785D-13
  0.15482856D-18  0.23049015D-04 -0.15523460D-12 -0.30162296D-19 -0.92073426D-20
  0.16315701D+00  0.30501256D+00  0.52715693D+00  0.85265267D+00  0.12887346D+01
  0.17747990D+01  0.20743286D+01  0.17923764D+01  0.83597072D+00  0.11350676D+00
  0.30394315D-03  0.59621081D-03  0.27219514D-04 -0.32309254D-03 -0.60338908D-03
 -0.10466717D-02 -0.16971420D-02 -0.26129433D-02 -0.37214182D-02 -0.47852608D-02
 -0.50230999D-02 -0.35516876D-02  0.78653608D-04  0.25519334D-02  0.14051638D-02
 -0.59424139D-05  0.14177627D-03  0.26457550D-03  0.45953597D-03  0.74434631D-03
  0.11497972D-02  0.16392087D-02  0.21320751D-02  0.22722173D-02  0.16852563D-02
 -0.52455771D-04 -0.15267544D-02 -0.14956924D-02  0.69857705D-03 -0.82013609D-03
  0.37398405D-03  0.97746265D-04  0.26013467D-02  0.34128252D-02  0.37433491D-02
  0.30800870D-02  0.16238828D-02  0.42245754D-03 -0.46749234D-06 -0.64739475D-02
 -0.84934666D-02 -0.93160383D-02 -0.76653839D-02 -0.40413420D-02 -0.10513662D-02
  0.11634439D-05 -0.47459254D-17 -0.62263956D-17 -0.68294070D-17 -0.56193443D-17
 -0.29626294D-17 -0.77073616D-18  0.85289813D-21 -0.23786037D-02 -0.31231211D-02
 -0.35137218D-02 -0.29605763D-02 -0.16561049D-02 -0.41220113D-03  0.18905530D-03
  0.57900642D-02  0.76023895D-02  0.85532008D-02  0.72067184D-02  0.40313372D-02
  0.10033916D-02 -0.46020375D-03  0.81033424D-18  0.10639738D-17  0.11970423D-17
  0.10085986D-17  0.56419592D-18  0.14042722D-18 -0.64406687D-19 -0.17822544D-04
  0.16536058D-03  0.29525857D-18  0.89902974D-04 -0.55314797D-04 -0.39158622D-19