 Molden2AIM, Version 4.0.0 (06/02/2016)           Time: Fri Jun 29 03:36:45 2018
GAUSSIAN             34 MOL ORBITALS    563 PRIMITIVES        5 NUCLEI
  Ge   1    (CENTRE  1)   0.00000000  0.00000000  0.00000000  CHARGE = 32.0
  F    2    (CENTRE  2)   1.86327752  1.86327752  1.86327752  CHARGE =  9.0
  F    3    (CENTRE  3)   1.86327752 -1.86327752 -1.86327752  CHARGE =  9.0
  F    4    (CENTRE  4)  -1.86327752  1.86327752 -1.86327752  CHARGE =  9.0
  F    5    (CENTRE  5)  -1.86327752 -1.86327752  1.86327752  CHARGE =  9.0
CENTRE ASSIGNMENTS    1  1  1  1  1  1  1  1  1  1  1  1  1  1  1  1  1  1  1  1
CENTRE ASSIGNMENTS    1  1  1  1  1  1  1  1  1  1  1  1  1  1  1  1  1  1  1  1
CENTRE ASSIGNMENTS    1  1  1  1  1  1  1  1  1  1  1  1  1  1  1  1  1  1  1  1
CENTRE ASSIGNMENTS    1  1  1  1  1  1  1  1  1  1  1  1  1  1  1  1  1  1  1  1
CENTRE ASSIGNMENTS    1  1  1  1  1  1  1  1  1  1  1  1  1  1  1  1  1  1  1  1
CENTRE ASSIGNMENTS    1  1  1  1  1  1  1  1  1  1  1  1  1  1  1  1  1  1  1  1
CENTRE ASSIGNMENTS    1  1  1  1  1  1  1  1  1  1  1  1  1  1  1  1  1  1  1  1
CENTRE ASSIGNMENTS    1  1  1  1  1  1  1  1  1  1  1  1  1  1  1  1  1  1  1  1
CENTRE ASSIGNMENTS    1  1  1  1  1  1  1  1  1  1  1  1  1  1  1  1  1  1  1  1
CENTRE ASSIGNMENTS    1  1  1  1  1  1  1  1  1  1  1  1  1  1  1  1  1  1  1  1
CENTRE ASSIGNMENTS    1  1  1  1  1  1  1  1  1  1  1  1  1  1  1  1  1  1  1  1
CENTRE ASSIGNMENTS    1  1  1  1  1  1  1  1  1  1  1  1  1  1  1  1  1  1  1  1
CENTRE ASSIGNMENTS    1  1  1  1  1  1  1  1  1  1  1  1  1  1  1  1  1  1  1  1
CENTRE ASSIGNMENTS    1  1  1  2  2  2  2  2  2  2  2  2  2  2  2  2  2  2  2  2
CENTRE ASSIGNMENTS    2  2  2  2  2  2  2  2  2  2  2  2  2  2  2  2  2  2  2  2
CENTRE ASSIGNMENTS    2  2  2  2  2  2  2  2  2  2  2  2  2  2  2  2  2  2  2  2
CENTRE ASSIGNMENTS    2  2  2  2  2  2  2  2  2  2  2  2  2  2  2  2  2  2  3  3
CENTRE ASSIGNMENTS    3  3  3  3  3  3  3  3  3  3  3  3  3  3  3  3  3  3  3  3
CENTRE ASSIGNMENTS    3  3  3  3  3  3  3  3  3  3  3  3  3  3  3  3  3  3  3  3
CENTRE ASSIGNMENTS    3  3  3  3  3  3  3  3  3  3  3  3  3  3  3  3  3  3  3  3
CENTRE ASSIGNMENTS    3  3  3  3  3  3  3  3  3  3  3  3  3  4  4  4  4  4  4  4
CENTRE ASSIGNMENTS    4  4  4  4  4  4  4  4  4  4  4  4  4  4  4  4  4  4  4  4
CENTRE ASSIGNMENTS    4  4  4  4  4  4  4  4  4  4  4  4  4  4  4  4  4  4  4  4
CENTRE ASSIGNMENTS    4  4  4  4  4  4  4  4  4  4  4  4  4  4  4  4  4  4  4  4
CENTRE ASSIGNMENTS    4  4  4  4  4  4  4  4  5  5  5  5  5  5  5  5  5  5  5  5
CENTRE ASSIGNMENTS    5  5  5  5  5  5  5  5  5  5  5  5  5  5  5  5  5  5  5  5
CENTRE ASSIGNMENTS    5  5  5  5  5  5  5  5  5  5  5  5  5  5  5  5  5  5  5  5
CENTRE ASSIGNMENTS    5  5  5  5  5  5  5  5  5  5  5  5  5  5  5  5  5  5  5  5
CENTRE ASSIGNMENTS    5  5  5
TYPE ASSIGNMENTS      1  1  1  1  1  1  1  1  1  1  1  1  1  1  1  1  1  1  1  1
TYPE ASSIGNMENTS      1  1  1  1  1  1  1  1  1  1  1  1  1  1  1  1  1  1  1  1
TYPE ASSIGNMENTS      1  1  1  1  1  1  1  1  1  1  1  1  1  1  1  1  1  1  1  1
TYPE ASSIGNMENTS      1  1  1  1  1  1  1  1  1  1  1  1  1  1  1  2  2  2  2  2
TYPE ASSIGNMENTS      2  2  2  2  2  2  3  3  3  3  3  3  3  3  3  3  3  4  4  4
TYPE ASSIGNMENTS      4  4  4  4  4  4  4  4  2  2  2  2  2  2  2  2  2  2  2  3
TYPE ASSIGNMENTS      3  3  3  3  3  3  3  3  3  3  4  4  4  4  4  4  4  4  4  4
TYPE ASSIGNMENTS      4  2  2  2  2  2  2  2  2  2  2  2  3  3  3  3  3  3  3  3
TYPE ASSIGNMENTS      3  3  3  4  4  4  4  4  4  4  4  4  4  4  2  3  4  2  3  4
TYPE ASSIGNMENTS      2  3  4  5  5  5  5  5  5  5  6  6  6  6  6  6  6  7  7  7
TYPE ASSIGNMENTS      7  7  7  7  8  8  8  8  8  8  8  9  9  9  9  9  9  9 10 10
TYPE ASSIGNMENTS     10 10 10 10 10  5  6  7  8  9 10  5  6  7  8  9 10  5  6  7
TYPE ASSIGNMENTS      8  9 10 11 12 13 17 14 15 18 19 16 20 11 12 13 17 14 15 18
TYPE ASSIGNMENTS     19 16 20  1  1  1  1  1  1  1  1  1  1  1  1  1  1  1  1  1
TYPE ASSIGNMENTS      1  1  2  2  2  3  3  3  4  4  4  2  3  4  2  3  4  2  3  4
TYPE ASSIGNMENTS      5  6  7  8  9 10  5  6  7  8  9 10  5  6  7  8  9 10 11 12
TYPE ASSIGNMENTS     13 17 14 15 18 19 16 20 11 12 13 17 14 15 18 19 16 20  1  1
TYPE ASSIGNMENTS      1  1  1  1  1  1  1  1  1  1  1  1  1  1  1  1  1  2  2  2
TYPE ASSIGNMENTS      3  3  3  4  4  4  2  3  4  2  3  4  2  3  4  5  6  7  8  9
TYPE ASSIGNMENTS     10  5  6  7  8  9 10  5  6  7  8  9 10 11 12 13 17 14 15 18
TYPE ASSIGNMENTS     19 16 20 11 12 13 17 14 15 18 19 16 20  1  1  1  1  1  1  1
TYPE ASSIGNMENTS      1  1  1  1  1  1  1  1  1  1  1  1  2  2  2  3  3  3  4  4
TYPE ASSIGNMENTS      4  2  3  4  2  3  4  2  3  4  5  6  7  8  9 10  5  6  7  8
TYPE ASSIGNMENTS      9 10  5  6  7  8  9 10 11 12 13 17 14 15 18 19 16 20 11 12
TYPE ASSIGNMENTS     13 17 14 15 18 19 16 20  1  1  1  1  1  1  1  1  1  1  1  1
TYPE ASSIGNMENTS      1  1  1  1  1  1  1  2  2  2  3  3  3  4  4  4  2  3  4  2
TYPE ASSIGNMENTS      3  4  2  3  4  5  6  7  8  9 10  5  6  7  8  9 10  5  6  7
TYPE ASSIGNMENTS      8  9 10 11 12 13 17 14 15 18 19 16 20 11 12 13 17 14 15 18
TYPE ASSIGNMENTS     19 16 20
EXPONENTS  0.7447967D+07 0.1115318D+07 0.2538426D+06 0.7191529D+05 0.2347018D+05
EXPONENTS  0.8477492D+04 0.3308391D+04 0.1372605D+04 0.5982201D+03 0.2713860D+03
EXPONENTS  0.1269780D+03 0.6022207D+02 0.2801858D+02 0.1351752D+02 0.6309406D+01
EXPONENTS  0.2904534D+01 0.1287556D+01 0.1677320D+00 0.7447967D+07 0.1115318D+07
EXPONENTS  0.2538426D+06 0.7191529D+05 0.2347018D+05 0.8477492D+04 0.3308391D+04
EXPONENTS  0.1372605D+04 0.5982201D+03 0.2713860D+03 0.1269780D+03 0.6022207D+02
EXPONENTS  0.2801858D+02 0.1351752D+02 0.6309406D+01 0.2904534D+01 0.1287556D+01
EXPONENTS  0.1677320D+00 0.7447967D+07 0.1115318D+07 0.2538426D+06 0.7191529D+05
EXPONENTS  0.2347018D+05 0.8477492D+04 0.3308391D+04 0.1372605D+04 0.5982201D+03
EXPONENTS  0.2713860D+03 0.1269780D+03 0.6022207D+02 0.2801858D+02 0.1351752D+02
EXPONENTS  0.6309406D+01 0.2904534D+01 0.1287556D+01 0.1677320D+00 0.7447967D+07
EXPONENTS  0.1115318D+07 0.2538426D+06 0.7191529D+05 0.2347018D+05 0.8477492D+04
EXPONENTS  0.3308391D+04 0.1372605D+04 0.5982201D+03 0.2713860D+03 0.1269780D+03
EXPONENTS  0.6022207D+02 0.2801858D+02 0.1351752D+02 0.6309406D+01 0.2904534D+01
EXPONENTS  0.1287556D+01 0.1677320D+00 0.3365520D+00 0.7106900D-01 0.2737000D-01
EXPONENTS  0.6979598D+04 0.1654165D+04 0.5360286D+03 0.2035371D+03 0.8523753D+02
EXPONENTS  0.3784196D+02 0.1740651D+02 0.7881492D+01 0.3533213D+01 0.1521473D+01
EXPONENTS  0.1990930D+00 0.6979598D+04 0.1654165D+04 0.5360286D+03 0.2035371D+03
EXPONENTS  0.8523753D+02 0.3784196D+02 0.1740651D+02 0.7881492D+01 0.3533213D+01
EXPONENTS  0.1521473D+01 0.1990930D+00 0.6979598D+04 0.1654165D+04 0.5360286D+03
EXPONENTS  0.2035371D+03 0.8523753D+02 0.3784196D+02 0.1740651D+02 0.7881492D+01
EXPONENTS  0.3533213D+01 0.1521473D+01 0.1990930D+00 0.6979598D+04 0.1654165D+04
EXPONENTS  0.5360286D+03 0.2035371D+03 0.8523753D+02 0.3784196D+02 0.1740651D+02
EXPONENTS  0.7881492D+01 0.3533213D+01 0.1521473D+01 0.1990930D+00 0.6979598D+04
EXPONENTS  0.1654165D+04 0.5360286D+03 0.2035371D+03 0.8523753D+02 0.3784196D+02
EXPONENTS  0.1740651D+02 0.7881492D+01 0.3533213D+01 0.1521473D+01 0.1990930D+00
EXPONENTS  0.6979598D+04 0.1654165D+04 0.5360286D+03 0.2035371D+03 0.8523753D+02
EXPONENTS  0.3784196D+02 0.1740651D+02 0.7881492D+01 0.3533213D+01 0.1521473D+01
EXPONENTS  0.1990930D+00 0.6979598D+04 0.1654165D+04 0.5360286D+03 0.2035371D+03
EXPONENTS  0.8523753D+02 0.3784196D+02 0.1740651D+02 0.7881492D+01 0.3533213D+01
EXPONENTS  0.1521473D+01 0.1990930D+00 0.6979598D+04 0.1654165D+04 0.5360286D+03
EXPONENTS  0.2035371D+03 0.8523753D+02 0.3784196D+02 0.1740651D+02 0.7881492D+01
EXPONENTS  0.3533213D+01 0.1521473D+01 0.1990930D+00 0.6979598D+04 0.1654165D+04
EXPONENTS  0.5360286D+03 0.2035371D+03 0.8523753D+02 0.3784196D+02 0.1740651D+02
EXPONENTS  0.7881492D+01 0.3533213D+01 0.1521473D+01 0.1990930D+00 0.5627040D+00
EXPONENTS  0.5627040D+00 0.5627040D+00 0.6703100D-01 0.6703100D-01 0.6703100D-01
EXPONENTS  0.2136800D-01 0.2136800D-01 0.2136800D-01 0.2822391D+03 0.8454996D+02
EXPONENTS  0.3207366D+02 0.1349750D+02 0.5958550D+01 0.2610788D+01 0.1103987D+01
EXPONENTS  0.2822391D+03 0.8454996D+02 0.3207366D+02 0.1349750D+02 0.5958550D+01
EXPONENTS  0.2610788D+01 0.1103987D+01 0.2822391D+03 0.8454996D+02 0.3207366D+02
EXPONENTS  0.1349750D+02 0.5958550D+01 0.2610788D+01 0.1103987D+01 0.2822391D+03
EXPONENTS  0.8454996D+02 0.3207366D+02 0.1349750D+02 0.5958550D+01 0.2610788D+01
EXPONENTS  0.1103987D+01 0.2822391D+03 0.8454996D+02 0.3207366D+02 0.1349750D+02
EXPONENTS  0.5958550D+01 0.2610788D+01 0.1103987D+01 0.2822391D+03 0.8454996D+02
EXPONENTS  0.3207366D+02 0.1349750D+02 0.5958550D+01 0.2610788D+01 0.1103987D+01
EXPONENTS  0.4240490D+00 0.4240490D+00 0.4240490D+00 0.4240490D+00 0.4240490D+00
EXPONENTS  0.4240490D+00 0.1520000D+00 0.1520000D+00 0.1520000D+00 0.1520000D+00
EXPONENTS  0.1520000D+00 0.1520000D+00 0.5280000D-01 0.5280000D-01 0.5280000D-01
EXPONENTS  0.5280000D-01 0.5280000D-01 0.5280000D-01 0.3458000D+00 0.3458000D+00
EXPONENTS  0.3458000D+00 0.3458000D+00 0.3458000D+00 0.3458000D+00 0.3458000D+00
EXPONENTS  0.3458000D+00 0.3458000D+00 0.3458000D+00 0.1323000D+00 0.1323000D+00
EXPONENTS  0.1323000D+00 0.1323000D+00 0.1323000D+00 0.1323000D+00 0.1323000D+00
EXPONENTS  0.1323000D+00 0.1323000D+00 0.1323000D+00 0.1950000D+05 0.2923000D+04
EXPONENTS  0.6645000D+03 0.1875000D+03 0.6062000D+02 0.2142000D+02 0.7950000D+01
EXPONENTS  0.8815000D+00 0.1950000D+05 0.2923000D+04 0.6645000D+03 0.1875000D+03
EXPONENTS  0.6062000D+02 0.2142000D+02 0.7950000D+01 0.8815000D+00 0.2257000D+01
EXPONENTS  0.3041000D+00 0.9158000D-01 0.4388000D+02 0.9926000D+01 0.2930000D+01
EXPONENTS  0.4388000D+02 0.9926000D+01 0.2930000D+01 0.4388000D+02 0.9926000D+01
EXPONENTS  0.2930000D+01 0.9132000D+00 0.9132000D+00 0.9132000D+00 0.2672000D+00
EXPONENTS  0.2672000D+00 0.2672000D+00 0.7361000D-01 0.7361000D-01 0.7361000D-01
EXPONENTS  0.3107000D+01 0.3107000D+01 0.3107000D+01 0.3107000D+01 0.3107000D+01
EXPONENTS  0.3107000D+01 0.8550000D+00 0.8550000D+00 0.8550000D+00 0.8550000D+00
EXPONENTS  0.8550000D+00 0.8550000D+00 0.2920000D+00 0.2920000D+00 0.2920000D+00
EXPONENTS  0.2920000D+00 0.2920000D+00 0.2920000D+00 0.1917000D+01 0.1917000D+01
EXPONENTS  0.1917000D+01 0.1917000D+01 0.1917000D+01 0.1917000D+01 0.1917000D+01
EXPONENTS  0.1917000D+01 0.1917000D+01 0.1917000D+01 0.7240000D+00 0.7240000D+00
EXPONENTS  0.7240000D+00 0.7240000D+00 0.7240000D+00 0.7240000D+00 0.7240000D+00
EXPONENTS  0.7240000D+00 0.7240000D+00 0.7240000D+00 0.1950000D+05 0.2923000D+04
EXPONENTS  0.6645000D+03 0.1875000D+03 0.6062000D+02 0.2142000D+02 0.7950000D+01
EXPONENTS  0.8815000D+00 0.1950000D+05 0.2923000D+04 0.6645000D+03 0.1875000D+03
EXPONENTS  0.6062000D+02 0.2142000D+02 0.7950000D+01 0.8815000D+00 0.2257000D+01
EXPONENTS  0.3041000D+00 0.9158000D-01 0.4388000D+02 0.9926000D+01 0.2930000D+01
EXPONENTS  0.4388000D+02 0.9926000D+01 0.2930000D+01 0.4388000D+02 0.9926000D+01
EXPONENTS  0.2930000D+01 0.9132000D+00 0.9132000D+00 0.9132000D+00 0.2672000D+00
EXPONENTS  0.2672000D+00 0.2672000D+00 0.7361000D-01 0.7361000D-01 0.7361000D-01
EXPONENTS  0.3107000D+01 0.3107000D+01 0.3107000D+01 0.3107000D+01 0.3107000D+01
EXPONENTS  0.3107000D+01 0.8550000D+00 0.8550000D+00 0.8550000D+00 0.8550000D+00
EXPONENTS  0.8550000D+00 0.8550000D+00 0.2920000D+00 0.2920000D+00 0.2920000D+00
EXPONENTS  0.2920000D+00 0.2920000D+00 0.2920000D+00 0.1917000D+01 0.1917000D+01
EXPONENTS  0.1917000D+01 0.1917000D+01 0.1917000D+01 0.1917000D+01 0.1917000D+01
EXPONENTS  0.1917000D+01 0.1917000D+01 0.1917000D+01 0.7240000D+00 0.7240000D+00
EXPONENTS  0.7240000D+00 0.7240000D+00 0.7240000D+00 0.7240000D+00 0.7240000D+00
EXPONENTS  0.7240000D+00 0.7240000D+00 0.7240000D+00 0.1950000D+05 0.2923000D+04
EXPONENTS  0.6645000D+03 0.1875000D+03 0.6062000D+02 0.2142000D+02 0.7950000D+01
EXPONENTS  0.8815000D+00 0.1950000D+05 0.2923000D+04 0.6645000D+03 0.1875000D+03
EXPONENTS  0.6062000D+02 0.2142000D+02 0.7950000D+01 0.8815000D+00 0.2257000D+01
EXPONENTS  0.3041000D+00 0.9158000D-01 0.4388000D+02 0.9926000D+01 0.2930000D+01
EXPONENTS  0.4388000D+02 0.9926000D+01 0.2930000D+01 0.4388000D+02 0.9926000D+01
EXPONENTS  0.2930000D+01 0.9132000D+00 0.9132000D+00 0.9132000D+00 0.2672000D+00
EXPONENTS  0.2672000D+00 0.2672000D+00 0.7361000D-01 0.7361000D-01 0.7361000D-01
EXPONENTS  0.3107000D+01 0.3107000D+01 0.3107000D+01 0.3107000D+01 0.3107000D+01
EXPONENTS  0.3107000D+01 0.8550000D+00 0.8550000D+00 0.8550000D+00 0.8550000D+00
EXPONENTS  0.8550000D+00 0.8550000D+00 0.2920000D+00 0.2920000D+00 0.2920000D+00
EXPONENTS  0.2920000D+00 0.2920000D+00 0.2920000D+00 0.1917000D+01 0.1917000D+01
EXPONENTS  0.1917000D+01 0.1917000D+01 0.1917000D+01 0.1917000D+01 0.1917000D+01
EXPONENTS  0.1917000D+01 0.1917000D+01 0.1917000D+01 0.7240000D+00 0.7240000D+00
EXPONENTS  0.7240000D+00 0.7240000D+00 0.7240000D+00 0.7240000D+00 0.7240000D+00
EXPONENTS  0.7240000D+00 0.7240000D+00 0.7240000D+00 0.1950000D+05 0.2923000D+04
EXPONENTS  0.6645000D+03 0.1875000D+03 0.6062000D+02 0.2142000D+02 0.7950000D+01
EXPONENTS  0.8815000D+00 0.1950000D+05 0.2923000D+04 0.6645000D+03 0.1875000D+03
EXPONENTS  0.6062000D+02 0.2142000D+02 0.7950000D+01 0.8815000D+00 0.2257000D+01
EXPONENTS  0.3041000D+00 0.9158000D-01 0.4388000D+02 0.9926000D+01 0.2930000D+01
EXPONENTS  0.4388000D+02 0.9926000D+01 0.2930000D+01 0.4388000D+02 0.9926000D+01
EXPONENTS  0.2930000D+01 0.9132000D+00 0.9132000D+00 0.9132000D+00 0.2672000D+00
EXPONENTS  0.2672000D+00 0.2672000D+00 0.7361000D-01 0.7361000D-01 0.7361000D-01
EXPONENTS  0.3107000D+01 0.3107000D+01 0.3107000D+01 0.3107000D+01 0.3107000D+01
EXPONENTS  0.3107000D+01 0.8550000D+00 0.8550000D+00 0.8550000D+00 0.8550000D+00
EXPONENTS  0.8550000D+00 0.8550000D+00 0.2920000D+00 0.2920000D+00 0.2920000D+00
EXPONENTS  0.2920000D+00 0.2920000D+00 0.2920000D+00 0.1917000D+01 0.1917000D+01
EXPONENTS  0.1917000D+01 0.1917000D+01 0.1917000D+01 0.1917000D+01 0.1917000D+01
EXPONENTS  0.1917000D+01 0.1917000D+01 0.1917000D+01 0.7240000D+00 0.7240000D+00
EXPONENTS  0.7240000D+00 0.7240000D+00 0.7240000D+00 0.7240000D+00 0.7240000D+00
EXPONENTS  0.7240000D+00 0.7240000D+00 0.7240000D+00
MO    1     MO 0.0        OCC NO =    2.0000000  ORB. ENERGY = -397.188450
  0.75188437D+00  0.14039512D+01  0.24331988D+01  0.39850858D+01  0.62329826D+01
  0.93321304D+01  0.13229394D+02  0.17245361D+02  0.19354749D+02  0.16454879D+02
  0.82094071D+01  0.15262890D+01  0.35859517D-01  0.51985030D-02 -0.13777203D-02
  0.28620393D-03 -0.78561627D-04 -0.49686067D-05  0.11976052D-03  0.22436736D-03
  0.38824766D-03  0.63578034D-03  0.99898898D-03  0.15060605D-02  0.21851209D-02
  0.29797634D-02  0.37183458D-02  0.38797913D-02  0.28097231D-02  0.19849832D-03
 -0.20349216D-02 -0.14346194D-02 -0.20312455D-03 -0.18400822D-05 -0.92382373D-06
 -0.31406947D-07 -0.11115175D-03 -0.20513685D-03 -0.35463167D-03 -0.58127917D-03
 -0.91378051D-03 -0.13789630D-02 -0.20059954D-02 -0.27519775D-02 -0.34789351D-02
 -0.37337098D-02 -0.28492549D-02 -0.22237070D-03  0.28742355D-02  0.30543192D-02
 -0.37435418D-04 -0.13908414D-02 -0.50313293D-03  0.23225782D-05  0.44996309D-04
  0.97485537D-04  0.16596824D-03  0.27165679D-03  0.42670276D-03  0.64425099D-03
  0.93716690D-03  0.12873197D-02  0.16293472D-02  0.17568678D-02  0.13485039D-02
  0.10966695D-03 -0.14317207D-02 -0.16023387D-02  0.50769388D-04  0.94942094D-03
  0.64882462D-03 -0.25604558D-03  0.14922578D-03  0.14940590D-03 -0.73866427D-05
 -0.82862762D-15 -0.11864568D-14 -0.15628104D-14 -0.17893180D-14 -0.16372735D-14
 -0.10421053D-14 -0.35986576D-15 -0.40181039D-16 -0.50871101D-18 -0.92323299D-19
 -0.72475683D-21  0.24895191D-15  0.35645768D-15  0.46952893D-15  0.53758059D-15
  0.49190053D-15  0.31308889D-15  0.10811765D-15  0.12071944D-16  0.15283654D-18
  0.27737504D-19  0.21774509D-21  0.17086065D-14  0.24464400D-14  0.32224704D-14
  0.36895225D-14  0.33760112D-14  0.21487913D-14  0.74203292D-15  0.82852154D-16
  0.10489476D-17  0.19036800D-18  0.14944279D-20  0.20918325D-14  0.30148878D-14
  0.40043820D-14  0.47189177D-14  0.45056852D-14  0.30767530D-14  0.97454988D-15
 -0.45938031D-15 -0.47622657D-15 -0.12529367D-15  0.83136905D-19 -0.28513522D-14
 -0.41095581D-14 -0.54583260D-14 -0.64323012D-14 -0.61416464D-14 -0.41938859D-14
 -0.13283975D-14  0.62617589D-15  0.64913884D-15  0.17078633D-15 -0.11332294D-18
 -0.69551398D-14 -0.10024209D-13 -0.13314181D-13 -0.15689943D-13 -0.14980966D-13
 -0.10229905D-13 -0.32402837D-14  0.15273949D-14  0.15834071D-14  0.41658929D-15
 -0.27642214D-18 -0.16953706D-14 -0.24280862D-14 -0.32473121D-14 -0.38150042D-14
 -0.36863134D-14 -0.25129998D-14 -0.80337867D-15  0.47645418D-15  0.46234537D-15
  0.15624296D-15 -0.58444322D-16  0.22042648D-14  0.31569173D-14  0.42220476D-14
  0.49601421D-14  0.47928226D-14  0.32673191D-14  0.10445264D-14 -0.61946995D-15
 -0.60112614D-15 -0.20314193D-15  0.75987372D-16  0.56278496D-14  0.80601278D-14
  0.10779580D-13  0.12664057D-13  0.12236862D-13  0.83420019D-14  0.26668472D-14
 -0.15816084D-14 -0.15347737D-14 -0.51865467D-15  0.19400823D-15  0.18676102D-17
 -0.69921784D-17  0.18892428D-16 -0.33315452D-16  0.23684950D-16  0.48197719D-16
  0.44971456D-18 -0.41243636D-18 -0.79197005D-18  0.27872633D-16  0.28036937D-16
  0.22405098D-16  0.13720700D-16  0.57564250D-17  0.15694109D-17  0.25676349D-18
 -0.16668323D-16 -0.16766580D-16 -0.13398642D-16 -0.82052195D-17 -0.34424431D-17
 -0.93853525D-18 -0.15354907D-18 -0.11204310D-16 -0.11270357D-16 -0.90064566D-17
 -0.55154809D-17 -0.23139819D-17 -0.63087566D-18 -0.10321442D-18 -0.18653520D-14
 -0.18763479D-14 -0.14994420D-14 -0.91824610D-15 -0.38524380D-15 -0.10503148D-15
 -0.17183676D-16 -0.68058522D-15 -0.68459715D-15 -0.54708068D-15 -0.33502777D-15
 -0.14055858D-15 -0.38321385D-16 -0.62695705D-17  0.48928658D-15  0.49217084D-15
  0.39330744D-15  0.24085829D-15  0.10105043D-15  0.27550024D-16  0.45073219D-17
 -0.14605488D-17  0.18424248D-17 -0.38187596D-18  0.15550944D-15  0.51472575D-16
 -0.38676940D-16 -0.53566017D-17  0.40151610D-17  0.13414408D-17  0.53937524D-16
  0.29001405D-16 -0.31691685D-16 -0.18880801D-17  0.18969666D-17 -0.88865208D-20
  0.13251108D-17  0.12985763D-17 -0.12228433D-17  0.70486259D-17 -0.62217895D-17
 -0.14519858D-16 -0.14033550D-16  0.13219092D-16  0.17201853D-16 -0.71123272D-17
  0.54462768D-17  0.26357719D-16 -0.58527317D-04  0.93613190D-18 -0.73139367D-18
 -0.38578348D-18 -0.17001161D-17  0.19043806D-17 -0.25196716D-18 -0.11082796D-17
  0.28980042D-18  0.14093176D-17  0.44249730D-05 -0.19311244D-04 -0.35996995D-04
 -0.61023757D-04 -0.92407953D-04 -0.11555647D-03 -0.99483356D-04 -0.38245034D-04
  0.16572199D-06  0.12563129D-04  0.23591331D-04  0.40171967D-04  0.62929149D-04
  0.84332463D-04  0.90710934D-04  0.54462726D-04 -0.35816980D-04  0.12098503D-04
  0.45454877D-04 -0.30310337D-04  0.60276878D-05  0.58949470D-05  0.38950408D-05
  0.60276878D-05  0.58949470D-05  0.38950408D-05  0.60276878D-05  0.58949470D-05
  0.38950408D-05 -0.25897985D-05 -0.25897985D-05 -0.25897985D-05 -0.20141125D-04
 -0.20141125D-04 -0.20141125D-04  0.26147693D-05  0.26147693D-05  0.26147693D-05
 -0.85994869D-17  0.14804357D-16 -0.62048704D-17 -0.54456960D-05 -0.54456960D-05
 -0.54456960D-05  0.36411873D-17 -0.50464920D-17  0.14053047D-17  0.61948900D-05
  0.61948900D-05  0.61948900D-05  0.67701128D-18  0.16056808D-17 -0.22826921D-17
  0.93155581D-05  0.93155581D-05  0.93155581D-05  0.45596080D-05  0.45596080D-05
  0.45596080D-05 -0.68394120D-05 -0.68394120D-05 -0.68394120D-05 -0.68394120D-05
 -0.68394120D-05 -0.68394120D-05 -0.47092230D-04  0.76566209D-07  0.76566209D-07
  0.76566209D-07 -0.11484931D-06 -0.11484931D-06 -0.11484931D-06 -0.11484931D-06
 -0.11484931D-06 -0.11484931D-06  0.32926336D-05 -0.19311244D-04 -0.35996995D-04
 -0.61023757D-04 -0.92407953D-04 -0.11555647D-03 -0.99483356D-04 -0.38245034D-04
  0.16572199D-06  0.12563129D-04  0.23591331D-04  0.40171967D-04  0.62929149D-04
  0.84332463D-04  0.90710934D-04  0.54462726D-04 -0.35816980D-04  0.12098503D-04
  0.45454877D-04 -0.30310337D-04  0.60276878D-05  0.58949470D-05  0.38950408D-05
 -0.60276878D-05 -0.58949470D-05 -0.38950408D-05 -0.60276878D-05 -0.58949470D-05
 -0.38950408D-05 -0.25897985D-05  0.25897985D-05  0.25897985D-05 -0.20141125D-04
  0.20141125D-04  0.20141125D-04  0.26147693D-05 -0.26147693D-05 -0.26147693D-05
 -0.11303507D-16  0.15491262D-16 -0.41877545D-17  0.54456960D-05  0.54456960D-05
 -0.54456960D-05  0.46626938D-17 -0.42091907D-17 -0.45350310D-18 -0.61948900D-05
 -0.61948900D-05  0.61948900D-05 -0.21251349D-17 -0.73175153D-18  0.28568864D-17
 -0.93155581D-05 -0.93155581D-05  0.93155581D-05  0.45596080D-05 -0.45596080D-05
 -0.45596080D-05 -0.68394120D-05  0.68394120D-05  0.68394120D-05 -0.68394120D-05
  0.68394120D-05  0.68394120D-05 -0.47092230D-04  0.76566209D-07 -0.76566209D-07
 -0.76566209D-07 -0.11484931D-06  0.11484931D-06  0.11484931D-06 -0.11484931D-06
  0.11484931D-06  0.11484931D-06  0.32926336D-05 -0.19311244D-04 -0.35996995D-04
 -0.61023757D-04 -0.92407953D-04 -0.11555647D-03 -0.99483356D-04 -0.38245034D-04
  0.16572199D-06  0.12563129D-04  0.23591331D-04  0.40171967D-04  0.62929149D-04
  0.84332463D-04  0.90710934D-04  0.54462726D-04 -0.35816980D-04  0.12098503D-04
  0.45454877D-04 -0.30310337D-04 -0.60276878D-05 -0.58949470D-05 -0.38950408D-05
  0.60276878D-05  0.58949470D-05  0.38950408D-05 -0.60276878D-05 -0.58949470D-05
 -0.38950408D-05  0.25897985D-05 -0.25897985D-05  0.25897985D-05  0.20141125D-04
 -0.20141125D-04  0.20141125D-04 -0.26147693D-05  0.26147693D-05 -0.26147693D-05
  0.11594446D-16  0.10417588D-16 -0.22012034D-16  0.54456960D-05 -0.54456960D-05
  0.54456960D-05 -0.23975858D-17 -0.36226501D-17  0.60202359D-17 -0.61948900D-05
  0.61948900D-05 -0.61948900D-05 -0.56747794D-18  0.70872150D-18 -0.14124355D-18
 -0.93155581D-05  0.93155581D-05 -0.93155581D-05 -0.45596080D-05  0.45596080D-05
 -0.45596080D-05  0.68394120D-05 -0.68394120D-05  0.68394120D-05  0.68394120D-05
 -0.68394120D-05  0.68394120D-05 -0.47092230D-04 -0.76566209D-07  0.76566209D-07
 -0.76566209D-07  0.11484931D-06 -0.11484931D-06  0.11484931D-06  0.11484931D-06
 -0.11484931D-06  0.11484931D-06  0.32926336D-05 -0.19311244D-04 -0.35996995D-04
 -0.61023757D-04 -0.92407953D-04 -0.11555647D-03 -0.99483356D-04 -0.38245034D-04
  0.16572199D-06  0.12563129D-04  0.23591331D-04  0.40171967D-04  0.62929149D-04
  0.84332463D-04  0.90710934D-04  0.54462726D-04 -0.35816980D-04  0.12098503D-04
  0.45454877D-04 -0.30310337D-04 -0.60276878D-05 -0.58949470D-05 -0.38950408D-05
 -0.60276878D-05 -0.58949470D-05 -0.38950408D-05  0.60276878D-05  0.58949470D-05
  0.38950408D-05  0.25897985D-05  0.25897985D-05 -0.25897985D-05  0.20141125D-04
  0.20141125D-04 -0.20141125D-04 -0.26147693D-05 -0.26147693D-05  0.26147693D-05
 -0.16316247D-16  0.19072540D-16 -0.27562927D-17 -0.54456960D-05  0.54456960D-05
  0.54456960D-05  0.93417742D-17 -0.77795248D-17 -0.15622493D-17  0.61948900D-05
 -0.61948900D-05 -0.61948900D-05 -0.91216118D-17  0.88942814D-17  0.22733039D-18
  0.93155581D-05 -0.93155581D-05 -0.93155581D-05 -0.45596080D-05 -0.45596080D-05
  0.45596080D-05  0.68394120D-05  0.68394120D-05 -0.68394120D-05  0.68394120D-05
  0.68394120D-05 -0.68394120D-05 -0.47092230D-04 -0.76566209D-07 -0.76566209D-07
  0.76566209D-07  0.11484931D-06  0.11484931D-06 -0.11484931D-06  0.11484931D-06
  0.11484931D-06 -0.11484931D-06  0.32926336D-05
MO    2     MO 0.0        OCC NO =    2.0000000  ORB. ENERGY =  -49.287641
  0.12479238D-02  0.23301777D-02  0.40384490D-02  0.66141599D-02  0.10345058D-01
  0.15488801D-01  0.21957200D-01  0.28622615D-01  0.32123626D-01  0.27310629D-01
  0.13625386D-01  0.25332252D-02  0.59517056D-04  0.86281028D-05 -0.22866415D-05
  0.47502077D-06 -0.13039096D-06 -0.82465373D-08 -0.23599263D+00 -0.44212435D+00
 -0.76505667D+00 -0.12528292D+01 -0.19685455D+01 -0.29677490D+01 -0.43058632D+01
 -0.58717364D+01 -0.73271408D+01 -0.76452752D+01 -0.55366654D+01 -0.39114843D+00
  0.40098899D+01  0.28269718D+01  0.40026459D+00  0.36259514D-02  0.18204296D-02
  0.61888575D-04  0.36152269D-02  0.66721059D-02  0.11534447D-01  0.18906190D-01
  0.29720844D-01  0.44850973D-01  0.65245291D-01  0.89508468D-01  0.11315287D+00
  0.12143945D+00  0.92672430D-01  0.72326394D-02 -0.93484928D-01 -0.99342176D-01
  0.12175924D-02  0.45237318D-01  0.16364472D-01 -0.75542194D-04 -0.15115034D-02
 -0.32747069D-02 -0.55751587D-02 -0.91254190D-02 -0.14333680D-01 -0.21641499D-01
 -0.31481049D-01 -0.43243283D-01 -0.54732577D-01 -0.59016213D-01 -0.45298566D-01
 -0.36839016D-02  0.48093963D-01  0.53825313D-01 -0.17054311D-02 -0.31892683D-01
 -0.21795136D-01  0.86010115D-02 -0.42266250D-02 -0.48792909D-02  0.24167436D-03
  0.30437439D-12  0.43581345D-12  0.57405698D-12  0.65725853D-12  0.60140902D-12
  0.38278975D-12  0.13218715D-12  0.14759440D-13  0.18686151D-15  0.33912517D-16
  0.26622021D-18  0.28627379D-12  0.40989640D-12  0.53991884D-12  0.61817254D-12
  0.56564430D-12  0.36002593D-12  0.12432622D-12  0.13881722D-13  0.17574919D-15
  0.31895800D-16  0.25038857D-18 -0.22988668D-12 -0.32915945D-12 -0.43357148D-12
 -0.49641161D-12 -0.45422982D-12 -0.28911193D-12 -0.99837786D-13 -0.11147451D-13
 -0.14113202D-15 -0.25613311D-16 -0.20106975D-18 -0.20563928D-13 -0.29638098D-13
 -0.39365400D-13 -0.46389701D-13 -0.44293502D-13 -0.30246269D-13 -0.95803912D-14
  0.45159752D-14  0.46815838D-14  0.12317096D-14 -0.81728405D-18 -0.91576873D-13
 -0.13198667D-12 -0.17530504D-12 -0.20658620D-12 -0.19725125D-12 -0.13469502D-12
 -0.42664139D-13  0.20110890D-13  0.20848391D-13  0.54851442D-14 -0.36395925D-17
 -0.11677054D-13 -0.16829746D-13 -0.22353313D-13 -0.26342003D-13 -0.25151694D-13
 -0.17175091D-13 -0.54401449D-14  0.25643587D-14  0.26583981D-14  0.69941595D-15
 -0.46408791D-18  0.19570580D-13  0.28028713D-13  0.37485480D-13  0.44038657D-13
  0.42553110D-13  0.29008916D-13  0.92738347D-14 -0.54999684D-14 -0.53371027D-14
 -0.18035971D-14  0.67465443D-15  0.73733714D-13  0.10560040D-12  0.14122952D-12
  0.16591913D-12  0.16032222D-12  0.10929339D-12  0.34939908D-13 -0.20721567D-13
 -0.20107958D-13 -0.67951949D-14  0.25418141D-14  0.10637031D-13  0.15234207D-13
  0.20374164D-13  0.23935956D-13  0.23128529D-13  0.15766969D-13  0.50405284D-14
 -0.29893509D-14 -0.29008300D-14 -0.98029374D-15  0.36668917D-15  0.73648726D-15
  0.38032560D-16  0.48561498D-15  0.30929233D-15  0.60201457D-15 -0.38683303D-15
 -0.58686935D-17 -0.13152952D-16  0.40713341D-17 -0.30922069D-14 -0.31104349D-14
 -0.24856353D-14 -0.15221829D-14 -0.63862130D-15 -0.17411140D-15 -0.28485498D-16
  0.77690522D-14  0.78148493D-14  0.62450641D-14  0.38244266D-14  0.16045117D-14
  0.43744828D-15  0.71568730D-16 -0.46768453D-14 -0.47044144D-14 -0.37594288D-14
 -0.23022437D-14 -0.96589043D-15 -0.26333688D-15 -0.43083232D-16 -0.12113091D-13
 -0.12184495D-13 -0.97369700D-14 -0.59628414D-14 -0.25016689D-14 -0.68204596D-15
 -0.11158614D-15 -0.27996046D-13 -0.28161078D-13 -0.22504303D-13 -0.13781453D-13
 -0.57819131D-14 -0.15763599D-14 -0.25790038D-15 -0.99271945D-14 -0.99857135D-14
 -0.79798622D-14 -0.48868029D-14 -0.20502244D-14 -0.55896576D-15 -0.91449598D-16
  0.50363153D-16 -0.15180797D-15  0.10144481D-15  0.93226786D-15  0.19719780D-14
  0.93037025D-15  0.11708480D-15 -0.12959684D-15  0.12512042D-16 -0.15056153D-15
  0.69792719D-15  0.62638104D-17  0.39568702D-16  0.35772385D-16 -0.75341086D-16
 -0.19764709D-16  0.15543620D-16 -0.92122756D-17 -0.57172305D-16 -0.19820362D-15
 -0.51235047D-16  0.16902206D-15  0.24001899D-15 -0.11816474D-15  0.24948598D-17
  0.35459186D-15  0.27186989D-15  0.20429530D-02  0.13939667D-16 -0.36194170D-17
  0.55025499D-17 -0.57309954D-17  0.26432160D-17 -0.30544993D-16 -0.36088006D-16
  0.82150349D-17  0.14037343D-16 -0.16453120D-03  0.63645863D-03  0.11863865D-02
  0.20112167D-02  0.30455748D-02  0.38085020D-02  0.32787655D-02  0.12604772D-02
 -0.54618538D-05 -0.42035331D-03 -0.78934907D-03 -0.13441253D-02 -0.21055644D-02
 -0.28217040D-02 -0.30351231D-02 -0.18222839D-02  0.11984106D-02 -0.33526447D-03
 -0.15163287D-02  0.96154263D-03 -0.15853612D-03 -0.15504486D-03 -0.10244470D-03
 -0.15853612D-03 -0.15504486D-03 -0.10244470D-03 -0.15853612D-03 -0.15504486D-03
 -0.10244470D-03  0.31102525D-04  0.31102525D-04  0.31102525D-04  0.73779045D-03
  0.73779045D-03  0.73779045D-03 -0.82008999D-04 -0.82008999D-04 -0.82008999D-04
  0.48917385D-15  0.63199444D-15 -0.11211683D-14  0.31958989D-03  0.31958989D-03
  0.31958989D-03 -0.65846331D-16 -0.12747847D-15  0.19332480D-15 -0.22065382D-03
 -0.22065382D-03 -0.22065382D-03 -0.13643627D-16  0.45244984D-16 -0.31601357D-16
 -0.36621468D-03 -0.36621468D-03 -0.36621468D-03 -0.17795224D-04 -0.17795224D-04
 -0.17795224D-04  0.26692836D-04  0.26692836D-04  0.26692836D-04  0.26692836D-04
  0.26692836D-04  0.26692836D-04  0.32433681D-03 -0.43061696D-04 -0.43061696D-04
 -0.43061696D-04  0.64592544D-04  0.64592544D-04  0.64592544D-04  0.64592544D-04
  0.64592544D-04  0.64592544D-04  0.24928256D-03  0.63645863D-03  0.11863865D-02
  0.20112167D-02  0.30455748D-02  0.38085020D-02  0.32787655D-02  0.12604772D-02
 -0.54618538D-05 -0.42035331D-03 -0.78934907D-03 -0.13441253D-02 -0.21055644D-02
 -0.28217040D-02 -0.30351231D-02 -0.18222839D-02  0.11984106D-02 -0.33526447D-03
 -0.15163287D-02  0.96154263D-03 -0.15853612D-03 -0.15504486D-03 -0.10244470D-03
  0.15853612D-03  0.15504486D-03  0.10244470D-03  0.15853612D-03  0.15504486D-03
  0.10244470D-03  0.31102525D-04 -0.31102525D-04 -0.31102525D-04  0.73779045D-03
 -0.73779045D-03 -0.73779045D-03 -0.82008999D-04  0.82008999D-04  0.82008999D-04
  0.11954893D-14 -0.41679324D-15 -0.77869610D-15 -0.31958989D-03 -0.31958989D-03
  0.31958989D-03 -0.33752518D-15  0.11383389D-15  0.22369129D-15  0.22065382D-03
  0.22065382D-03 -0.22065382D-03  0.18609623D-15 -0.89524677D-16 -0.96571555D-16
  0.36621468D-03  0.36621468D-03 -0.36621468D-03 -0.17795224D-04  0.17795224D-04