 Molden2AIM, Version 4.0.0 (06/02/2016)           Time: Fri Jun 29 00:57:45 2018
GAUSSIAN             17 MOL ORBITALS    316 PRIMITIVES        4 NUCLEI
  S    1    (CENTRE  1)   0.14114931  1.96162831 -0.54347956  CHARGE = 16.0
  S    2    (CENTRE  2)  -0.14114931 -1.96162831 -0.54347956  CHARGE = 16.0
  H    3    (CENTRE  3)   1.97476947  2.18870158  1.24126283  CHARGE =  1.0
  H    4    (CENTRE  4)  -1.97476947 -2.18870158  1.24126283  CHARGE =  1.0
CENTRE ASSIGNMENTS    1  1  1  1  1  1  1  1  1  1  1  1  1  1  1  1  1  1  1  1
CENTRE ASSIGNMENTS    1  1  1  1  1  1  1  1  1  1  1  1  1  1  1  1  1  1  1  1
CENTRE ASSIGNMENTS    1  1  1  1  1  1  1  1  1  1  1  1  1  1  1  1  1  1  1  1
CENTRE ASSIGNMENTS    1  1  1  1  1  1  1  1  1  1  1  1  1  1  1  1  1  1  1  1
CENTRE ASSIGNMENTS    1  1  1  1  1  1  1  1  1  1  1  1  1  1  1  1  1  1  1  1
CENTRE ASSIGNMENTS    1  1  1  1  1  1  1  1  1  1  1  1  1  1  1  1  1  1  1  1
CENTRE ASSIGNMENTS    1  1  1  1  1  1  1  1  1  1  1  2  2  2  2  2  2  2  2  2
CENTRE ASSIGNMENTS    2  2  2  2  2  2  2  2  2  2  2  2  2  2  2  2  2  2  2  2
CENTRE ASSIGNMENTS    2  2  2  2  2  2  2  2  2  2  2  2  2  2  2  2  2  2  2  2
CENTRE ASSIGNMENTS    2  2  2  2  2  2  2  2  2  2  2  2  2  2  2  2  2  2  2  2
CENTRE ASSIGNMENTS    2  2  2  2  2  2  2  2  2  2  2  2  2  2  2  2  2  2  2  2
CENTRE ASSIGNMENTS    2  2  2  2  2  2  2  2  2  2  2  2  2  2  2  2  2  2  2  2
CENTRE ASSIGNMENTS    2  2  2  2  2  2  2  2  2  2  2  2  2  2  2  2  2  2  2  2
CENTRE ASSIGNMENTS    2  2  3  3  3  3  3  3  3  3  3  3  3  3  3  3  3  3  3  3
CENTRE ASSIGNMENTS    3  3  3  3  3  3  3  3  3  4  4  4  4  4  4  4  4  4  4  4
CENTRE ASSIGNMENTS    4  4  4  4  4  4  4  4  4  4  4  4  4  4  4  4
TYPE ASSIGNMENTS      1  1  1  1  1  1  1  1  1  1  1  1  1  1  1  1  1  1  1  1
TYPE ASSIGNMENTS      1  1  1  1  1  1  1  1  1  1  1  1  1  1  1  1  1  1  1  1
TYPE ASSIGNMENTS      1  1  2  2  2  2  2  2  2  3  3  3  3  3  3  3  4  4  4  4
TYPE ASSIGNMENTS      4  4  4  2  2  2  2  2  2  2  3  3  3  3  3  3  3  4  4  4
TYPE ASSIGNMENTS      4  4  4  4  2  3  4  2  3  4  2  3  4  5  6  7  8  9 10  5
TYPE ASSIGNMENTS      6  7  8  9 10  5  6  7  8  9 10 11 12 13 17 14 15 18 19 16
TYPE ASSIGNMENTS     20 11 12 13 17 14 15 18 19 16 20  1  1  1  1  1  1  1  1  1
TYPE ASSIGNMENTS      1  1  1  1  1  1  1  1  1  1  1  1  1  1  1  1  1  1  1  1
TYPE ASSIGNMENTS      1  1  1  1  1  1  1  1  1  1  1  1  1  2  2  2  2  2  2  2
TYPE ASSIGNMENTS      3  3  3  3  3  3  3  4  4  4  4  4  4  4  2  2  2  2  2  2
TYPE ASSIGNMENTS      2  3  3  3  3  3  3  3  4  4  4  4  4  4  4  2  3  4  2  3
TYPE ASSIGNMENTS      4  2  3  4  5  6  7  8  9 10  5  6  7  8  9 10  5  6  7  8
TYPE ASSIGNMENTS      9 10 11 12 13 17 14 15 18 19 16 20 11 12 13 17 14 15 18 19
TYPE ASSIGNMENTS     16 20  1  1  1  1  1  1  2  3  4  2  3  4  2  3  4  5  6  7
TYPE ASSIGNMENTS      8  9 10  5  6  7  8  9 10  1  1  1  1  1  1  2  3  4  2  3
TYPE ASSIGNMENTS      4  2  3  4  5  6  7  8  9 10  5  6  7  8  9 10
EXPONENTS  0.3741000D+06 0.5605000D+05 0.1276000D+05 0.3615000D+04 0.1183000D+04
EXPONENTS  0.4288000D+03 0.1678000D+03 0.6947000D+02 0.2984000D+02 0.1272000D+02
EXPONENTS  0.5244000D+01 0.2219000D+01 0.3490000D+00 0.3741000D+06 0.5605000D+05
EXPONENTS  0.1276000D+05 0.3615000D+04 0.1183000D+04 0.4288000D+03 0.1678000D+03
EXPONENTS  0.6947000D+02 0.2984000D+02 0.1272000D+02 0.5244000D+01 0.2219000D+01
EXPONENTS  0.3490000D+00 0.3741000D+06 0.5605000D+05 0.1276000D+05 0.3615000D+04
EXPONENTS  0.1183000D+04 0.4288000D+03 0.1678000D+03 0.6947000D+02 0.2984000D+02
EXPONENTS  0.1272000D+02 0.5244000D+01 0.2219000D+01 0.3490000D+00 0.7767000D+00
EXPONENTS  0.1322000D+00 0.4970000D-01 0.5744000D+03 0.1358000D+03 0.4319000D+02
EXPONENTS  0.1587000D+02 0.6208000D+01 0.2483000D+01 0.3229000D+00 0.5744000D+03
EXPONENTS  0.1358000D+03 0.4319000D+02 0.1587000D+02 0.6208000D+01 0.2483000D+01
EXPONENTS  0.3229000D+00 0.5744000D+03 0.1358000D+03 0.4319000D+02 0.1587000D+02
EXPONENTS  0.6208000D+01 0.2483000D+01 0.3229000D+00 0.5744000D+03 0.1358000D+03
EXPONENTS  0.4319000D+02 0.1587000D+02 0.6208000D+01 0.2483000D+01 0.3229000D+00
EXPONENTS  0.5744000D+03 0.1358000D+03 0.4319000D+02 0.1587000D+02 0.6208000D+01
EXPONENTS  0.2483000D+01 0.3229000D+00 0.5744000D+03 0.1358000D+03 0.4319000D+02
EXPONENTS  0.1587000D+02 0.6208000D+01 0.2483000D+01 0.3229000D+00 0.8688000D+00
EXPONENTS  0.8688000D+00 0.8688000D+00 0.1098000D+00 0.1098000D+00 0.1098000D+00
EXPONENTS  0.3510000D-01 0.3510000D-01 0.3510000D-01 0.2690000D+00 0.2690000D+00
EXPONENTS  0.2690000D+00 0.2690000D+00 0.2690000D+00 0.2690000D+00 0.8190000D+00
EXPONENTS  0.8190000D+00 0.8190000D+00 0.8190000D+00 0.8190000D+00 0.8190000D+00
EXPONENTS  0.1010000D+00 0.1010000D+00 0.1010000D+00 0.1010000D+00 0.1010000D+00
EXPONENTS  0.1010000D+00 0.5570000D+00 0.5570000D+00 0.5570000D+00 0.5570000D+00
EXPONENTS  0.5570000D+00 0.5570000D+00 0.5570000D+00 0.5570000D+00 0.5570000D+00
EXPONENTS  0.5570000D+00 0.2180000D+00 0.2180000D+00 0.2180000D+00 0.2180000D+00
EXPONENTS  0.2180000D+00 0.2180000D+00 0.2180000D+00 0.2180000D+00 0.2180000D+00
EXPONENTS  0.2180000D+00 0.3741000D+06 0.5605000D+05 0.1276000D+05 0.3615000D+04
EXPONENTS  0.1183000D+04 0.4288000D+03 0.1678000D+03 0.6947000D+02 0.2984000D+02
EXPONENTS  0.1272000D+02 0.5244000D+01 0.2219000D+01 0.3490000D+00 0.3741000D+06
EXPONENTS  0.5605000D+05 0.1276000D+05 0.3615000D+04 0.1183000D+04 0.4288000D+03
EXPONENTS  0.1678000D+03 0.6947000D+02 0.2984000D+02 0.1272000D+02 0.5244000D+01
EXPONENTS  0.2219000D+01 0.3490000D+00 0.3741000D+06 0.5605000D+05 0.1276000D+05
EXPONENTS  0.3615000D+04 0.1183000D+04 0.4288000D+03 0.1678000D+03 0.6947000D+02
EXPONENTS  0.2984000D+02 0.1272000D+02 0.5244000D+01 0.2219000D+01 0.3490000D+00
EXPONENTS  0.7767000D+00 0.1322000D+00 0.4970000D-01 0.5744000D+03 0.1358000D+03
EXPONENTS  0.4319000D+02 0.1587000D+02 0.6208000D+01 0.2483000D+01 0.3229000D+00
EXPONENTS  0.5744000D+03 0.1358000D+03 0.4319000D+02 0.1587000D+02 0.6208000D+01
EXPONENTS  0.2483000D+01 0.3229000D+00 0.5744000D+03 0.1358000D+03 0.4319000D+02
EXPONENTS  0.1587000D+02 0.6208000D+01 0.2483000D+01 0.3229000D+00 0.5744000D+03
EXPONENTS  0.1358000D+03 0.4319000D+02 0.1587000D+02 0.6208000D+01 0.2483000D+01
EXPONENTS  0.3229000D+00 0.5744000D+03 0.1358000D+03 0.4319000D+02 0.1587000D+02
EXPONENTS  0.6208000D+01 0.2483000D+01 0.3229000D+00 0.5744000D+03 0.1358000D+03
EXPONENTS  0.4319000D+02 0.1587000D+02 0.6208000D+01 0.2483000D+01 0.3229000D+00
EXPONENTS  0.8688000D+00 0.8688000D+00 0.8688000D+00 0.1098000D+00 0.1098000D+00
EXPONENTS  0.1098000D+00 0.3510000D-01 0.3510000D-01 0.3510000D-01 0.2690000D+00
EXPONENTS  0.2690000D+00 0.2690000D+00 0.2690000D+00 0.2690000D+00 0.2690000D+00
EXPONENTS  0.8190000D+00 0.8190000D+00 0.8190000D+00 0.8190000D+00 0.8190000D+00
EXPONENTS  0.8190000D+00 0.1010000D+00 0.1010000D+00 0.1010000D+00 0.1010000D+00
EXPONENTS  0.1010000D+00 0.1010000D+00 0.5570000D+00 0.5570000D+00 0.5570000D+00
EXPONENTS  0.5570000D+00 0.5570000D+00 0.5570000D+00 0.5570000D+00 0.5570000D+00
EXPONENTS  0.5570000D+00 0.5570000D+00 0.2180000D+00 0.2180000D+00 0.2180000D+00
EXPONENTS  0.2180000D+00 0.2180000D+00 0.2180000D+00 0.2180000D+00 0.2180000D+00
EXPONENTS  0.2180000D+00 0.2180000D+00 0.3387000D+02 0.5095000D+01 0.1159000D+01
EXPONENTS  0.3258000D+00 0.1027000D+00 0.2526000D-01 0.1407000D+01 0.1407000D+01
EXPONENTS  0.1407000D+01 0.3880000D+00 0.3880000D+00 0.3880000D+00 0.1020000D+00
EXPONENTS  0.1020000D+00 0.1020000D+00 0.1057000D+01 0.1057000D+01 0.1057000D+01
EXPONENTS  0.1057000D+01 0.1057000D+01 0.1057000D+01 0.2470000D+00 0.2470000D+00
EXPONENTS  0.2470000D+00 0.2470000D+00 0.2470000D+00 0.2470000D+00 0.3387000D+02
EXPONENTS  0.5095000D+01 0.1159000D+01 0.3258000D+00 0.1027000D+00 0.2526000D-01
EXPONENTS  0.1407000D+01 0.1407000D+01 0.1407000D+01 0.3880000D+00 0.3880000D+00
EXPONENTS  0.3880000D+00 0.1020000D+00 0.1020000D+00 0.1020000D+00 0.1057000D+01
EXPONENTS  0.1057000D+01 0.1057000D+01 0.1057000D+01 0.1057000D+01 0.1057000D+01
EXPONENTS  0.2470000D+00 0.2470000D+00 0.2470000D+00 0.2470000D+00 0.2470000D+00
EXPONENTS  0.2470000D+00
MO    1     MO 0.0        OCC NO =    2.0000000  ORB. ENERGY =  -88.117090
 -0.41389906D+00 -0.77376025D+00 -0.13372993D+01 -0.21630216D+01 -0.32692805D+01
 -0.45023357D+01 -0.52621865D+01 -0.45469262D+01 -0.21207026D+01 -0.28794559D+00
 -0.77104735D-03 -0.15124762D-02 -0.69050855D-04  0.10542678D-02  0.19688900D-02
  0.34153443D-02  0.55378626D-02  0.85261700D-02  0.12143181D-01  0.15614555D-01
  0.16390636D-01  0.11589341D-01 -0.25665081D-03 -0.83270914D-02 -0.45851225D-02
  0.19390405D-04 -0.48139523D-03 -0.89835471D-03 -0.15603346D-02 -0.25273959D-02
 -0.39040869D-02 -0.55658625D-02 -0.72393691D-02 -0.77152160D-02 -0.57222152D-02
  0.17811131D-03  0.51840289D-02  0.50785591D-02 -0.23719883D-02  0.23384655D-02
  0.14563146D-02  0.47738120D-03 -0.66224816D-02 -0.86883353D-02 -0.95297795D-02
 -0.78412536D-02 -0.41340640D-02 -0.10754881D-02  0.11901372D-05 -0.18639663D-02
 -0.24454223D-02 -0.26822555D-02 -0.22070024D-02 -0.11635753D-02 -0.30270730D-03
  0.33497648D-06 -0.66907856D-02 -0.87779464D-02 -0.96280692D-02 -0.79221280D-02
 -0.41767025D-02 -0.10865806D-02  0.12024122D-05  0.58030299D-02  0.76194136D-02
  0.85723540D-02  0.72228564D-02  0.40403646D-02  0.10056385D-02 -0.46123428D-03
  0.19610099D-02  0.25748180D-02  0.28968438D-02  0.24408100D-02  0.13653549D-02
  0.33983405D-03 -0.15586427D-03  0.58362419D-02  0.76630211D-02  0.86214154D-02
  0.72641943D-02  0.40634885D-02  0.10113940D-02 -0.46387402D-03  0.22717652D-03
  0.11378692D-03  0.22560220D-03  0.28192941D-04 -0.63329368D-03  0.95850977D-04
 -0.45324636D-06 -0.23447041D-04  0.14065304D-05 -0.10260712D-03  0.21108632D-03
 -0.10847919D-03  0.49607724D-04 -0.13036624D-03 -0.26484833D-05  0.52622286D-05
 -0.27621878D-04  0.22359650D-04 -0.13234866D-03 -0.40205678D-03 -0.41267827D-04
 -0.21316435D-04  0.47716989D-04 -0.26400554D-04  0.13193674D-04  0.28408843D-04
 -0.91876880D-05  0.16605207D-04  0.20671920D-04  0.26717659D-04  0.13438970D-03
 -0.27512575D-04 -0.17525679D-03 -0.18420532D-03 -0.34503186D-04  0.95103817D-04
 -0.38778514D-04  0.14817573D-05 -0.22489937D-04 -0.40974548D-05 -0.21815200D-04
  0.31302472D-04  0.15228055D-04  0.17369928D-04  0.36167339D-04 -0.29356905D-05
  0.40504939D-05  0.41389936D+00  0.77376081D+00  0.13373003D+01  0.21630231D+01
  0.32692828D+01  0.45023389D+01  0.52621904D+01  0.45469295D+01  0.21207041D+01
  0.28794580D+00  0.77104791D-03  0.15124773D-02  0.69050905D-04 -0.10542685D-02
 -0.19688913D-02 -0.34153466D-02 -0.55378663D-02 -0.85261757D-02 -0.12143189D-01
 -0.15614565D-01 -0.16390647D-01 -0.11589349D-01  0.25665098D-03  0.83270970D-02
  0.45851256D-02 -0.19390418D-04  0.48139554D-03  0.89835530D-03  0.15603356D-02
  0.25273975D-02  0.39040895D-02  0.55658662D-02  0.72393738D-02  0.77152210D-02
  0.57222190D-02 -0.17811143D-03 -0.51840323D-02 -0.50785624D-02  0.23719898D-02
 -0.23384673D-02 -0.14563149D-02 -0.47738127D-03 -0.66224875D-02 -0.86883430D-02
 -0.95297880D-02 -0.78412606D-02 -0.41340677D-02 -0.10754890D-02  0.11901382D-05
 -0.18639640D-02 -0.24454193D-02 -0.26822523D-02 -0.22069997D-02 -0.11635739D-02
 -0.30270693D-03  0.33497608D-06  0.66907921D-02  0.87779549D-02  0.96280786D-02
  0.79221356D-02  0.41767066D-02  0.10865816D-02 -0.12024134D-05  0.58030350D-02
  0.76194203D-02  0.85723616D-02  0.72228628D-02  0.40403682D-02  0.10056394D-02
 -0.46123469D-03  0.19610081D-02  0.25748156D-02  0.28968411D-02  0.24408077D-02
  0.13653536D-02  0.33983373D-03 -0.15586412D-03 -0.58362475D-02 -0.76630285D-02
 -0.86214237D-02 -0.72642013D-02 -0.40634924D-02 -0.10113950D-02  0.46387447D-03
  0.22717675D-03  0.11378687D-03 -0.22560247D-03  0.28193011D-04 -0.63329372D-03
 -0.95851060D-04 -0.45324503D-06 -0.23447042D-04 -0.14065328D-05  0.10260717D-03
 -0.21108640D-03  0.10847923D-03 -0.49607718D-04 -0.13036641D-03 -0.26484790D-05
 -0.52622424D-05  0.27621919D-04 -0.22359677D-04  0.13234874D-03 -0.40205705D-03
 -0.41267881D-04  0.21316437D-04 -0.47716992D-04  0.26400555D-04 -0.13193682D-04
  0.28408866D-04 -0.91876870D-05  0.16605225D-04  0.20671942D-04 -0.26717684D-04
  0.13438980D-03 -0.27512612D-04  0.17525696D-03 -0.18420547D-03 -0.34503214D-04
 -0.95103910D-04  0.38778597D-04  0.14817562D-05 -0.22489954D-04  0.40974583D-05
 -0.21815199D-04  0.31302499D-04 -0.15228059D-04  0.17369931D-04  0.36167363D-04
  0.29356844D-05 -0.40505285D-05 -0.27380968D-04 -0.49382703D-04 -0.72814767D-04
  0.30329287D-03 -0.75104778D-04  0.54262366D-05  0.10511352D-04  0.35623507D-06
  0.67298373D-05 -0.42519456D-03 -0.58688972D-04 -0.40482505D-03 -0.36867143D-04
 -0.87057583D-05 -0.20727330D-04  0.11581147D-03 -0.22348985D-03  0.10767838D-03
  0.41935959D-04  0.52702516D-03  0.77235468D-04  0.24266380D-04 -0.33784991D-04
  0.95186116D-05  0.51080509D-04  0.14409084D-03  0.37095418D-04  0.27380999D-04
  0.49382760D-04  0.72814850D-04 -0.30329335D-03  0.75105012D-04 -0.54262313D-05
  0.10511319D-04  0.35622662D-06 -0.67298192D-05 -0.42519493D-03 -0.58689083D-04
  0.40482541D-03 -0.36867128D-04 -0.87057559D-05  0.20727323D-04 -0.11581155D-03
  0.22348999D-03 -0.10767844D-03 -0.41936066D-04  0.52702560D-03  0.77235554D-04
 -0.24266404D-04  0.33785040D-04 -0.95186365D-05 -0.51080522D-04  0.14409094D-03
  0.37095444D-04
MO    2     MO 0.0        OCC NO =    2.0000000  ORB. ENERGY =  -88.117086
  0.41385734D+00  0.77368225D+00  0.13371645D+01  0.21628035D+01  0.32689509D+01
  0.45018818D+01  0.52616561D+01  0.45464678D+01  0.21204888D+01  0.28791657D+00
  0.77096963D-03  0.15123237D-02  0.69043894D-04 -0.97481671D-03 -0.18205117D-02
 -0.31579593D-02 -0.51205218D-02 -0.78836262D-02 -0.11228055D-01 -0.14437821D-01
 -0.15155415D-01 -0.10715953D-01  0.23730926D-03  0.76995505D-02  0.42395815D-02
 -0.17929118D-04  0.43603696D-03  0.81370947D-03  0.14133159D-02  0.22892583D-02
  0.35362340D-02  0.50414330D-02  0.65572575D-02  0.69882689D-02  0.51830537D-02
 -0.16132922D-03 -0.46955767D-02 -0.46000445D-02  0.21484936D-02 -0.24482886D-02
 -0.34419547D-03 -0.93788191D-04  0.81448404D-02  0.10685587D-01  0.11720460D-01
  0.96437805D-02  0.50843918D-02  0.13227184D-02 -0.14637228D-05 -0.31420753D-02
 -0.41222316D-02 -0.45214598D-02 -0.37203288D-02 -0.19614309D-02 -0.51027162D-03
  0.56466757D-06  0.89657094D-02  0.11762523D-01  0.12901694D-01  0.10615719D-01
  0.55968168D-02  0.14560272D-02 -0.16112425D-05 -0.71283707D-02 -0.93595942D-02
 -0.10530175D-01 -0.88724682D-02 -0.49631343D-02 -0.12353140D-02  0.56657453D-03
  0.25365921D-02  0.33305609D-02  0.37471056D-02  0.31572198D-02  0.17661045D-02
  0.43957981D-03 -0.20161248D-03 -0.77917621D-02 -0.10230631D-01 -0.11510150D-01
 -0.96981715D-02 -0.54250212D-02 -0.13502767D-02  0.61930197D-03 -0.32291493D-03
  0.76139063D-04 -0.37391031D-03 -0.97281871D-04  0.56794363D-04 -0.11532894D-03
 -0.18548523D-05  0.10405088D-05 -0.32957736D-05  0.61025008D-04 -0.11651666D-03
  0.55491651D-04  0.80679560D-05  0.23867062D-03 -0.60415994D-05 -0.19077843D-04
  0.56298279D-04 -0.37220436D-04  0.10391893D-03  0.37238245D-03  0.75918558D-04
  0.35082085D-05 -0.51531284D-05  0.16449200D-05 -0.11787864D-04 -0.32339752D-04
 -0.13574557D-05 -0.25028615D-04 -0.29776358D-04 -0.35115387D-04 -0.13494926D-03
  0.50957761D-04  0.23406556D-03  0.21003510D-03  0.38371312D-04 -0.12871940D-03
  0.11532727D-03  0.16302105D-05  0.23293074D-04  0.47993239D-05 -0.12961973D-05
 -0.37417582D-04 -0.59915918D-05 -0.35944341D-05 -0.32461640D-04 -0.84063798D-05
 -0.47806390D-04  0.41385704D+00  0.77368169D+00  0.13371635D+01  0.21628020D+01
  0.32689486D+01  0.45018786D+01  0.52616523D+01  0.45464645D+01  0.21204873D+01
  0.28791636D+00  0.77096907D-03  0.15123226D-02  0.69043844D-04 -0.97481595D-03
 -0.18205103D-02 -0.31579568D-02 -0.51205178D-02 -0.78836201D-02 -0.11228046D-01
 -0.14437809D-01 -0.15155404D-01 -0.10715944D-01  0.23730907D-03  0.76995445D-02
  0.42395781D-02 -0.17929104D-04  0.43603661D-03  0.81370882D-03  0.14133148D-02
  0.22892564D-02  0.35362312D-02  0.50414289D-02  0.65572522D-02  0.69882633D-02
  0.51830496D-02 -0.16132909D-03 -0.46955729D-02 -0.46000408D-02  0.21484919D-02
 -0.24482869D-02 -0.34419442D-03 -0.93787846D-04 -0.81448356D-02 -0.10685581D-01
 -0.11720453D-01 -0.96437748D-02 -0.50843888D-02 -0.13227177D-02  0.14637219D-05
  0.31420766D-02  0.41222334D-02  0.45214617D-02  0.37203304D-02  0.19614317D-02
  0.51027183D-03 -0.56466781D-06  0.89657046D-02  0.11762516D-01  0.12901687D-01
  0.10615713D-01  0.55968138D-02  0.14560264D-02 -0.16112417D-05  0.71283665D-02
  0.93595887D-02  0.10530168D-01  0.88724630D-02  0.49631314D-02  0.12353133D-02
 -0.56657420D-03 -0.25365935D-02 -0.33305628D-02 -0.37471077D-02 -0.31572215D-02
 -0.17661055D-02 -0.43958005D-03  0.20161259D-03 -0.77917579D-02 -0.10230626D-01
 -0.11510144D-01 -0.96981662D-02 -0.54250182D-02 -0.13502760D-02  0.61930163D-03
  0.32291477D-03 -0.76139145D-04 -0.37391015D-03  0.97281851D-04 -0.56793905D-04
 -0.11532887D-03  0.18548526D-05 -0.10404919D-05 -0.32957725D-05  0.61024934D-04
 -0.11651651D-03  0.55491573D-04  0.80679918D-05 -0.23867052D-03  0.60416013D-05
 -0.19077839D-04  0.56298259D-04 -0.37220420D-04  0.10391884D-03 -0.37238216D-03
 -0.75918529D-04  0.35081931D-05 -0.51530939D-05  0.16449009D-05 -0.11787855D-04
  0.32339732D-04  0.13574623D-05  0.25028603D-04  0.29776343D-04 -0.35115368D-04
  0.13494916D-03 -0.50957741D-04  0.23406543D-03 -0.21003497D-03 -0.38371287D-04
 -0.12871933D-03  0.11532724D-03 -0.16302115D-05 -0.23293058D-04  0.47993209D-05
  0.12962131D-05  0.37417559D-04 -0.59915808D-05  0.35944215D-05  0.32461614D-04
 -0.84063819D-05 -0.47806387D-04  0.43241142D-04  0.77987180D-04  0.11499205D-03
 -0.65544377D-03  0.32418807D-03  0.74486979D-05  0.46512319D-04  0.11708814D-04
  0.25056558D-04  0.51483835D-03  0.15312629D-03  0.50459626D-03 -0.20886703D-04
 -0.33211649D-05 -0.85898682D-05 -0.10954183D-03  0.18899737D-03 -0.79455537D-04
 -0.14814842D-03 -0.61941446D-03 -0.11858111D-03 -0.33097471D-04  0.67551681D-04
 -0.34454210D-04 -0.18226723D-04 -0.12989289D-03 -0.36093707D-04  0.43241122D-04
  0.77987144D-04  0.11499200D-03 -0.65544355D-03  0.32418801D-03  0.74487018D-05
 -0.46512326D-04 -0.11708814D-04  0.25056563D-04 -0.51483804D-03 -0.15312624D-03
  0.50459597D-03  0.20886730D-04  0.33211712D-05 -0.85898833D-05 -0.10954175D-03
  0.18899721D-03 -0.79455459D-04 -0.14814839D-03  0.61941408D-03  0.11858106D-03
 -0.33097453D-04  0.67551656D-04 -0.34454203D-04 -0.18226686D-04  0.12989278D-03
  0.36093680D-04
MO    3     MO 0.0        OCC NO =    2.0000000  ORB. ENERGY =   -7.712472
 -0.26731439D-02 -0.49972871D-02 -0.86368724D-02 -0.13969754D-01 -0.21114465D-01
 -0.29078082D-01 -0.33985537D-01 -0.29366068D-01 -0.13696439D-01 -0.18596805D-02
 -0.49797661D-05 -0.97682425D-05 -0.44596107D-06 -0.10993665D+00 -0.20531137D+00
 -0.35614435D+00 -0.57747574D+00 -0.88908965D+00 -0.12662634D+01 -0.16282503D+01
 -0.17091783D+01 -0.12085102D+01  0.26762964D-01  0.86833018D+00  0.47812617D+00
 -0.20219875D-02 -0.11649411D-02 -0.21739524D-02 -0.37758952D-02 -0.61161124D-02
 -0.94476037D-02 -0.13468979D-01 -0.17518742D-01 -0.18670256D-01 -0.13847341D-01
  0.43101630D-03  0.12544969D-01  0.12289740D-01 -0.57400375D-02  0.42797793D-01
  0.20874305D-02  0.26944175D-03  0.16197369D-01  0.21250067D-01  0.23308084D-01
  0.19178261D-01  0.10111158D-01  0.26304455D-02 -0.29108562D-05 -0.39533129D-01
 -0.51865312D-01 -0.56888342D-01 -0.46808629D-01 -0.24678435D-01 -0.64201624D-02
  0.71045642D-05  0.19333125D-01  0.25364007D-01  0.27820450D-01  0.22891107D-01
  0.12068644D-01  0.31396909D-02 -0.34743881D-05  0.93043309D-02  0.12216643D-01
  0.13744547D-01  0.11580820D-01  0.64781485D-02  0.16123980D-02 -0.73952340D-03
 -0.44689845D-02 -0.58678039D-02 -0.66016751D-02 -0.55624104D-02 -0.31115344D-02
 -0.77445457D-03  0.35520218D-03  0.10856335D-01  0.14254434D-01  0.16037200D-01
  0.13512553D-01  0.75587328D-02  0.18813532D-02 -0.86287923D-03  0.79494062D-03
 -0.80512889D-03  0.99481008D-03  0.43145812D-03 -0.65452850D-04  0.45287947D-03
  0.53615221D-05 -0.55933108D-06  0.87054803D-05 -0.53115426D-04  0.97305599D-04
 -0.44190174D-04 -0.56578354D-04 -0.25165806D-03  0.10386488D-04 -0.16283814D-03
  0.33139758D-03 -0.16855944D-03  0.22402338D-03  0.33599303D-03  0.28053477D-04
  0.10057552D-05 -0.46111458D-05  0.36053906D-05  0.26208946D-04  0.10219360D-03
  0.62726547D-05  0.25574945D-04  0.28017059D-04  0.40462223D-04  0.11887901D-03
 -0.54091901D-04 -0.24071658D-03 -0.19560384D-03 -0.29959275D-04  0.11932991D-03
 -0.15100540D-03 -0.53216268D-05 -0.37035778D-04 -0.10202628D-04 -0.23633129D-05
  0.61268467D-04  0.27475031D-04  0.18328193D-04  0.49838868D-04  0.31328542D-05
  0.72566485D-04 -0.26731439D-02 -0.49972872D-02 -0.86368726D-02 -0.13969754D-01
 -0.21114465D-01 -0.29078083D-01 -0.33985537D-01 -0.29366068D-01 -0.13696439D-01
 -0.18596805D-02 -0.49797662D-05 -0.97682427D-05 -0.44596108D-06 -0.10993665D+00
 -0.20531138D+00 -0.35614435D+00 -0.57747575D+00 -0.88908966D+00 -0.12662634D+01
 -0.16282503D+01 -0.17091783D+01 -0.12085102D+01  0.26762964D-01  0.86833020D+00
  0.47812617D+00 -0.20219875D-02 -0.11649411D-02 -0.21739525D-02 -0.37758952D-02
 -0.61161125D-02 -0.94476039D-02 -0.13468979D-01 -0.17518742D-01 -0.18670256D-01
 -0.13847341D-01  0.43101630D-03  0.12544970D-01  0.12289740D-01 -0.57400376D-02
  0.42797794D-01  0.20874305D-02  0.26944176D-03 -0.16197370D-01 -0.21250067D-01
 -0.23308085D-01 -0.19178261D-01 -0.10111159D-01 -0.26304456D-02  0.29108562D-05
  0.39533129D-01  0.51865313D-01  0.56888343D-01  0.46808630D-01  0.24678435D-01
  0.64201625D-02 -0.71045644D-05  0.19333126D-01  0.25364008D-01  0.27820451D-01
  0.22891108D-01  0.12068645D-01  0.31396909D-02 -0.34743881D-05 -0.93043311D-02
 -0.12216643D-01 -0.13744547D-01 -0.11580820D-01 -0.64781486D-02 -0.16123980D-02
  0.73952341D-03  0.44689846D-02  0.58678040D-02  0.66016751D-02  0.55624104D-02
  0.31115344D-02  0.77445458D-03 -0.35520219D-03  0.10856335D-01  0.14254434D-01
  0.16037200D-01  0.13512553D-01  0.75587329D-02  0.18813532D-02 -0.86287924D-03
 -0.79494063D-03  0.80512890D-03  0.99481010D-03 -0.43145812D-03  0.65452865D-04
  0.45287948D-03 -0.53615222D-05  0.55933158D-06  0.87054804D-05 -0.53115427D-04
  0.97305601D-04 -0.44190175D-04 -0.56578353D-04  0.25165806D-03 -0.10386488D-04
 -0.16283814D-03  0.33139758D-03 -0.16855944D-03  0.22402338D-03 -0.33599303D-03
 -0.28053479D-04  0.10057548D-05 -0.46111448D-05  0.36053900D-05  0.26208946D-04
 -0.10219360D-03 -0.62726544D-05 -0.25574945D-04 -0.28017060D-04  0.40462223D-04
 -0.11887901D-03  0.54091902D-04 -0.24071658D-03  0.19560385D-03  0.29959277D-04
  0.11932991D-03 -0.15100540D-03  0.53216267D-05  0.37035779D-04 -0.10202628D-04
  0.23633135D-05 -0.61268468D-04  0.27475031D-04 -0.18328194D-04 -0.49838869D-04
  0.31328540D-05  0.72566485D-04 -0.12282599D-04 -0.22152173D-04 -0.32663366D-04
  0.55487470D-03 -0.14764220D-02 -0.23556782D-04 -0.23156789D-04 -0.42418248D-04
  0.12251818D-04 -0.56281898D-03 -0.15443553D-03 -0.55734789D-03  0.16393525D-03
  0.23225931D-04  0.13707320D-03  0.64748365D-04 -0.10176154D-03  0.37013176D-04
  0.12173088D-03  0.31771577D-03  0.61126186D-04  0.51814364D-04 -0.10799493D-03
  0.56180570D-04  0.15573371D-04  0.20829805D-03  0.53564123D-04 -0.12282599D-04
 -0.22152173D-04 -0.32663366D-04  0.55487470D-03 -0.14764221D-02 -0.23556782D-04
  0.23156788D-04  0.42418248D-04  0.12251819D-04  0.56281899D-03  0.15443553D-03
 -0.55734790D-03 -0.16393525D-03 -0.23225931D-04  0.13707320D-03  0.64748366D-04
 -0.10176154D-03  0.37013177D-04  0.12173088D-03 -0.31771577D-03 -0.61126188D-04
  0.51814365D-04 -0.10799493D-03  0.56180570D-04  0.15573372D-04 -0.20829805D-03
 -0.53564124D-04
MO    4     MO 0.0        OCC NO =    2.0000000  ORB. ENERGY =   -7.712435
 -0.27304199D-02 -0.51043613D-02 -0.88219300D-02 -0.14269076D-01 -0.21566873D-01
 -0.29701123D-01 -0.34713726D-01 -0.29995279D-01 -0.13989905D-01 -0.18995268D-02
 -0.50864648D-05 -0.99775413D-05 -0.45551644D-06 -0.10983431D+00 -0.20512026D+00
 -0.35581282D+00 -0.57693819D+00 -0.88826202D+00 -0.12650846D+01 -0.16267346D+01
 -0.17075873D+01 -0.12073852D+01  0.26738051D-01  0.86752188D+00  0.47768109D+00
 -0.20201052D-02 -0.12229770D-02 -0.22822560D-02 -0.39640055D-02 -0.64208095D-02
 -0.99182715D-02 -0.14139986D-01 -0.18391503D-01 -0.19600385D-01 -0.14537198D-01
  0.45248899D-03  0.13169944D-01  0.12902000D-01 -0.60259990D-02  0.42812979D-01
  0.33339150D-02  0.76691933D-03  0.18058335D-01  0.23691552D-01  0.25986022D-01
  0.21381710D-01  0.11272861D-01  0.29326655D-02 -0.32452934D-05 -0.41967057D-01
 -0.55058494D-01 -0.60390775D-01 -0.49690487D-01 -0.26197808D-01 -0.68154313D-02
  0.75419696D-05  0.22587472D-01  0.29633533D-01  0.32503469D-01  0.26744369D-01
  0.14100160D-01  0.36681953D-02 -0.40592321D-05  0.76715318D-02  0.10072768D-01
  0.11332543D-01  0.95485244D-02  0.53413107D-02  0.13294414D-02 -0.60974586D-03
 -0.21454941D-02 -0.28170469D-02 -0.31693677D-02 -0.26704319D-02 -0.14938022D-02
 -0.37180431D-03  0.17052737D-03  0.80707274D-02  0.10596914D-01  0.11922243D-01
  0.10045391D-01  0.56192509D-02  0.13986201D-02 -0.64147458D-03  0.68487853D-03
 -0.86914802D-03  0.77344988D-03  0.25268117D-03 -0.90283568D-03  0.35927652D-03
  0.50417715D-05 -0.30079127D-04  0.62870732D-05 -0.55702062D-04  0.12235448D-03
 -0.66652414D-04  0.30827164D-04 -0.15038389D-03 -0.24608287D-04 -0.14418731D-03
  0.29183078D-03 -0.14764346D-03  0.11645216D-03  0.30736348D-03  0.10710759D-03
 -0.25223006D-04  0.60518570D-04 -0.35295564D-04  0.20117995D-04  0.83136262D-04
 -0.17127655D-04  0.81451854D-05  0.67143846D-04  0.27491593D-04  0.16994071D-03
 -0.90985012D-04 -0.15332142D-03 -0.19437626D-03 -0.11044653D-03  0.70846642D-04
  0.53000274D-05  0.79062628D-06 -0.19536587D-04 -0.74031234D-05 -0.38588705D-04
  0.23695034D-04  0.30461467D-04  0.36216826D-04  0.34914728D-04 -0.82520964D-05
 -0.69291764D-06  0.27304198D-02  0.51043612D-02  0.88219299D-02  0.14269076D-01
  0.21566872D-01  0.29701122D-01  0.34713726D-01  0.29995278D-01  0.13989905D-01
  0.18995268D-02  0.50864648D-05  0.99775412D-05  0.45551643D-06  0.10983431D+00
  0.20512025D+00  0.35581282D+00  0.57693818D+00  0.88826200D+00  0.12650846D+01
  0.16267346D+01  0.17075873D+01  0.12073852D+01 -0.26738051D-01 -0.86752187D+00
 -0.47768108D+00  0.20201052D-02  0.12229770D-02  0.22822560D-02  0.39640055D-02
  0.64208094D-02  0.99182714D-02  0.14139986D-01  0.18391503D-01  0.19600385D-01
  0.14537198D-01 -0.45248898D-03 -0.13169944D-01 -0.12901999D-01  0.60259989D-02
 -0.42812979D-01 -0.33339150D-02 -0.76691932D-03  0.18058335D-01  0.23691552D-01
  0.25986021D-01  0.21381710D-01  0.11272860D-01  0.29326655D-02 -0.32452934D-05
 -0.41967056D-01 -0.55058493D-01 -0.60390775D-01 -0.49690486D-01 -0.26197807D-01
 -0.68154312D-02  0.75419695D-05 -0.22587471D-01 -0.29633532D-01 -0.32503468D-01
 -0.26744369D-01 -0.14100160D-01 -0.36681952D-02  0.40592320D-05  0.76715317D-02
  0.10072768D-01  0.11332543D-01  0.95485242D-02  0.53413106D-02  0.13294413D-02
 -0.60974585D-03 -0.21454941D-02 -0.28170468D-02 -0.31693676D-02 -0.26704318D-02
 -0.14938021D-02 -0.37180430D-03  0.17052737D-03 -0.80707272D-02 -0.10596914D-01
 -0.11922243D-01 -0.10045391D-01 -0.56192508D-02 -0.13986201D-02  0.64147456D-03
  0.68487852D-03 -0.86914801D-03 -0.77344987D-03  0.25268117D-03 -0.90283567D-03
 -0.35927651D-03  0.50417714D-05 -0.30079127D-04 -0.62870731D-05  0.55702061D-04
 -0.12235447D-03  0.66652413D-04 -0.30827165D-04 -0.15038388D-03 -0.24608287D-04
  0.14418731D-03 -0.29183077D-03  0.14764346D-03 -0.11645215D-03  0.30736348D-03
  0.10710759D-03  0.25223006D-04 -0.60518570D-04  0.35295564D-04 -0.20117995D-04
  0.83136260D-04 -0.17127655D-04  0.81451850D-05  0.67143846D-04 -0.27491593D-04
  0.16994070D-03 -0.90985011D-04  0.15332142D-03 -0.19437626D-03 -0.11044653D-03
 -0.70846640D-04 -0.53000298D-05  0.79062636D-06 -0.19536587D-04  0.74031232D-05
 -0.38588705D-04  0.23695033D-04 -0.30461466D-04  0.36216826D-04  0.34914727D-04
  0.82520964D-05  0.69291882D-06 -0.25709323D-05 -0.46367822D-05 -0.68369327D-05
  0.15018133D-03 -0.84807169D-03 -0.15270675D-04  0.74592228D-04 -0.33427154D-04
  0.68121063D-04 -0.49316552D-03 -0.13210523D-04 -0.46920791D-03  0.39013142D-04
  0.13585868D-04  0.66053507D-04  0.60242728D-04 -0.12024912D-03  0.60006388D-04
  0.36563557D-04  0.25000551D-03  0.94917208D-04  0.34897955D-04 -0.45094160D-04
  0.10196205D-04  0.72322410D-04  0.22741205D-03  0.40791508D-04  0.25709321D-05
  0.46367819D-05  0.68369322D-05 -0.15018132D-03  0.84807167D-03  0.15270675D-04
  0.74592229D-04 -0.33427153D-04 -0.68121063D-04 -0.49316551D-03 -0.13210520D-04
  0.46920791D-03  0.39013139D-04  0.13585868D-04 -0.66053505D-04 -0.60242727D-04
  0.12024911D-03 -0.60006387D-04 -0.36563555D-04  0.25000550D-03  0.94917207D-04
 -0.34897954D-04  0.45094158D-04 -0.10196204D-04 -0.72322410D-04  0.22741205D-03
  0.40791507D-04
MO    5     MO 0.0        OCC NO =    2.0000000  ORB. ENERGY =   -5.737325
 -0.32395962D-04 -0.60562368D-04 -0.10467068D-03 -0.16930013D-03 -0.25588723D-03
 -0.35239871D-03 -0.41187239D-03 -0.35588882D-03 -0.16598781D-03 -0.22537559D-04
 -0.60350030D-07 -0.11838181D-06 -0.54046241D-08  0.44613241D-03  0.83317127D-03
  0.14452645D-02  0.23434464D-02  0.36080025D-02  0.51386060D-02  0.66075803D-02
  0.69359930D-02  0.49042386D-02 -0.10860642D-03 -0.35237588D-02 -0.19402772D-02
  0.82053995D-05 -0.16023570D-04 -0.29902353D-04 -0.51936808D-04 -0.84126105D-04
 -0.12995021D-03 -0.18526355D-03 -0.24096737D-03 -0.25680626D-03 -0.19046786D-03
  0.59285572D-05  0.17255396D-03  0.16904332D-03 -0.78953257D-04  0.40377728D-04
 -0.51576749D-03 -0.34130550D-04 -0.23109246D+01 -0.30318072D+01 -0.33254304D+01
 -0.27362168D+01 -0.14425876D+01 -0.37529311D+00  0.41530009D-03 -0.62082541D+01
 -0.81448913D+01 -0.89337043D+01 -0.73507935D+01 -0.38754837D+01 -0.10082177D+01
  0.11156957D-02 -0.17159042D+01 -0.22511729D+01 -0.24691936D+01 -0.20316916D+01