 Molden2AIM, Version 4.0.0 (06/02/2016)           Time: Fri Jun 29 01:23:51 2018
GAUSSIAN             25 MOL ORBITALS    512 PRIMITIVES        8 NUCLEI
  P    1    (CENTRE  1)  -2.31202700  1.30191548 -0.16594630  CHARGE = 15.0
  O    2    (CENTRE  2)   0.66468282  1.98295576  0.09448631  CHARGE =  8.0
  O    3    (CENTRE  3)  -3.23637520  3.40013697 -2.19947302  CHARGE =  8.0
  O    4    (CENTRE  4)  -3.42955434  2.45622066  2.44396201  CHARGE =  8.0
  H    5    (CENTRE  5)   1.64401449  0.92649492 -1.02461328  CHARGE =  1.0
  H    6    (CENTRE  6)  -4.81605774  2.88451575 -2.95197141  CHARGE =  1.0
  H    7    (CENTRE  7)  -3.51618316  1.15061644  3.71497857  CHARGE =  1.0
  O    8    (CENTRE  8)  -2.95069207 -1.38766180 -0.73789648  CHARGE =  8.0
CENTRE ASSIGNMENTS    1  1  1  1  1  1  1  1  1  1  1  1  1  1  1  1  1  1  1  1
CENTRE ASSIGNMENTS    1  1  1  1  1  1  1  1  1  1  1  1  1  1  1  1  1  1  1  1
CENTRE ASSIGNMENTS    1  1  1  1  1  1  1  1  1  1  1  1  1  1  1  1  1  1  1  1
CENTRE ASSIGNMENTS    1  1  1  1  1  1  1  1  1  1  1  1  1  1  1  1  1  1  1  1
CENTRE ASSIGNMENTS    1  1  1  1  1  1  1  1  1  1  1  1  1  1  1  1  1  1  1  1
CENTRE ASSIGNMENTS    1  1  1  1  1  1  1  1  1  1  1  1  1  1  1  1  1  1  1  1
CENTRE ASSIGNMENTS    1  1  1  1  1  1  1  1  1  1  1  2  2  2  2  2  2  2  2  2
CENTRE ASSIGNMENTS    2  2  2  2  2  2  2  2  2  2  2  2  2  2  2  2  2  2  2  2
CENTRE ASSIGNMENTS    2  2  2  2  2  2  2  2  2  2  2  2  2  2  2  2  2  2  2  2
CENTRE ASSIGNMENTS    2  2  2  2  2  2  2  2  2  2  2  2  2  2  2  2  2  2  2  2
CENTRE ASSIGNMENTS    2  2  2  2  2  2  3  3  3  3  3  3  3  3  3  3  3  3  3  3
CENTRE ASSIGNMENTS    3  3  3  3  3  3  3  3  3  3  3  3  3  3  3  3  3  3  3  3
CENTRE ASSIGNMENTS    3  3  3  3  3  3  3  3  3  3  3  3  3  3  3  3  3  3  3  3
CENTRE ASSIGNMENTS    3  3  3  3  3  3  3  3  3  3  3  3  3  3  3  3  3  3  3  3
CENTRE ASSIGNMENTS    3  4  4  4  4  4  4  4  4  4  4  4  4  4  4  4  4  4  4  4
CENTRE ASSIGNMENTS    4  4  4  4  4  4  4  4  4  4  4  4  4  4  4  4  4  4  4  4
CENTRE ASSIGNMENTS    4  4  4  4  4  4  4  4  4  4  4  4  4  4  4  4  4  4  4  4
CENTRE ASSIGNMENTS    4  4  4  4  4  4  4  4  4  4  4  4  4  4  4  4  5  5  5  5
CENTRE ASSIGNMENTS    5  5  5  5  5  5  5  5  5  5  5  5  5  5  5  5  5  5  5  5
CENTRE ASSIGNMENTS    5  5  5  6  6  6  6  6  6  6  6  6  6  6  6  6  6  6  6  6
CENTRE ASSIGNMENTS    6  6  6  6  6  6  6  6  6  6  7  7  7  7  7  7  7  7  7  7
CENTRE ASSIGNMENTS    7  7  7  7  7  7  7  7  7  7  7  7  7  7  7  7  7  8  8  8
CENTRE ASSIGNMENTS    8  8  8  8  8  8  8  8  8  8  8  8  8  8  8  8  8  8  8  8
CENTRE ASSIGNMENTS    8  8  8  8  8  8  8  8  8  8  8  8  8  8  8  8  8  8  8  8
CENTRE ASSIGNMENTS    8  8  8  8  8  8  8  8  8  8  8  8  8  8  8  8  8  8  8  8
CENTRE ASSIGNMENTS    8  8  8  8  8  8  8  8  8  8  8  8
TYPE ASSIGNMENTS      1  1  1  1  1  1  1  1  1  1  1  1  1  1  1  1  1  1  1  1
TYPE ASSIGNMENTS      1  1  1  1  1  1  1  1  1  1  1  1  1  1  1  1  1  1  1  1
TYPE ASSIGNMENTS      1  1  2  2  2  2  2  2  2  3  3  3  3  3  3  3  4  4  4  4
TYPE ASSIGNMENTS      4  4  4  2  2  2  2  2  2  2  3  3  3  3  3  3  3  4  4  4
TYPE ASSIGNMENTS      4  4  4  4  2  3  4  2  3  4  2  3  4  5  6  7  8  9 10  5
TYPE ASSIGNMENTS      6  7  8  9 10  5  6  7  8  9 10 11 12 13 17 14 15 18 19 16
TYPE ASSIGNMENTS     20 11 12 13 17 14 15 18 19 16 20  1  1  1  1  1  1  1  1  1
TYPE ASSIGNMENTS      1  1  1  1  1  1  1  1  1  1  2  2  2  3  3  3  4  4  4  2
TYPE ASSIGNMENTS      3  4  2  3  4  2  3  4  5  6  7  8  9 10  5  6  7  8  9 10
TYPE ASSIGNMENTS      5  6  7  8  9 10 11 12 13 17 14 15 18 19 16 20 11 12 13 17
TYPE ASSIGNMENTS     14 15 18 19 16 20  1  1  1  1  1  1  1  1  1  1  1  1  1  1
TYPE ASSIGNMENTS      1  1  1  1  1  2  2  2  3  3  3  4  4  4  2  3  4  2  3  4
TYPE ASSIGNMENTS      2  3  4  5  6  7  8  9 10  5  6  7  8  9 10  5  6  7  8  9
TYPE ASSIGNMENTS     10 11 12 13 17 14 15 18 19 16 20 11 12 13 17 14 15 18 19 16
TYPE ASSIGNMENTS     20  1  1  1  1  1  1  1  1  1  1  1  1  1  1  1  1  1  1  1
TYPE ASSIGNMENTS      2  2  2  3  3  3  4  4  4  2  3  4  2  3  4  2  3  4  5  6
TYPE ASSIGNMENTS      7  8  9 10  5  6  7  8  9 10  5  6  7  8  9 10 11 12 13 17
TYPE ASSIGNMENTS     14 15 18 19 16 20 11 12 13 17 14 15 18 19 16 20  1  1  1  1
TYPE ASSIGNMENTS      1  1  2  3  4  2  3  4  2  3  4  5  6  7  8  9 10  5  6  7
TYPE ASSIGNMENTS      8  9 10  1  1  1  1  1  1  2  3  4  2  3  4  2  3  4  5  6
TYPE ASSIGNMENTS      7  8  9 10  5  6  7  8  9 10  1  1  1  1  1  1  2  3  4  2
TYPE ASSIGNMENTS      3  4  2  3  4  5  6  7  8  9 10  5  6  7  8  9 10  1  1  1
TYPE ASSIGNMENTS      1  1  1  1  1  1  1  1  1  1  1  1  1  1  1  1  2  2  2  3
TYPE ASSIGNMENTS      3  3  4  4  4  2  3  4  2  3  4  2  3  4  5  6  7  8  9 10
TYPE ASSIGNMENTS      5  6  7  8  9 10  5  6  7  8  9 10 11 12 13 17 14 15 18 19
TYPE ASSIGNMENTS     16 20 11 12 13 17 14 15 18 19 16 20
EXPONENTS  0.3124000D+06 0.4680000D+05 0.1065000D+05 0.3018000D+04 0.9868000D+03
EXPONENTS  0.3574000D+03 0.1396000D+03 0.5763000D+02 0.2460000D+02 0.1012000D+02
EXPONENTS  0.4283000D+01 0.1805000D+01 0.2782000D+00 0.3124000D+06 0.4680000D+05
EXPONENTS  0.1065000D+05 0.3018000D+04 0.9868000D+03 0.3574000D+03 0.1396000D+03
EXPONENTS  0.5763000D+02 0.2460000D+02 0.1012000D+02 0.4283000D+01 0.1805000D+01
EXPONENTS  0.2782000D+00 0.3124000D+06 0.4680000D+05 0.1065000D+05 0.3018000D+04
EXPONENTS  0.9868000D+03 0.3574000D+03 0.1396000D+03 0.5763000D+02 0.2460000D+02
EXPONENTS  0.1012000D+02 0.4283000D+01 0.1805000D+01 0.2782000D+00 0.6158000D+00
EXPONENTS  0.1055000D+00 0.4090000D-01 0.5049000D+03 0.1194000D+03 0.3796000D+02
EXPONENTS  0.1395000D+02 0.5457000D+01 0.2177000D+01 0.2877000D+00 0.5049000D+03
EXPONENTS  0.1194000D+03 0.3796000D+02 0.1395000D+02 0.5457000D+01 0.2177000D+01
EXPONENTS  0.2877000D+00 0.5049000D+03 0.1194000D+03 0.3796000D+02 0.1395000D+02
EXPONENTS  0.5457000D+01 0.2177000D+01 0.2877000D+00 0.5049000D+03 0.1194000D+03
EXPONENTS  0.3796000D+02 0.1395000D+02 0.5457000D+01 0.2177000D+01 0.2877000D+00
EXPONENTS  0.5049000D+03 0.1194000D+03 0.3796000D+02 0.1395000D+02 0.5457000D+01
EXPONENTS  0.2177000D+01 0.2877000D+00 0.5049000D+03 0.1194000D+03 0.3796000D+02
EXPONENTS  0.1395000D+02 0.5457000D+01 0.2177000D+01 0.2877000D+00 0.8010000D+00
EXPONENTS  0.8010000D+00 0.8010000D+00 0.9714000D-01 0.9714000D-01 0.9714000D-01
EXPONENTS  0.3070000D-01 0.3070000D-01 0.3070000D-01 0.2160000D+00 0.2160000D+00
EXPONENTS  0.2160000D+00 0.2160000D+00 0.2160000D+00 0.2160000D+00 0.6520000D+00
EXPONENTS  0.6520000D+00 0.6520000D+00 0.6520000D+00 0.6520000D+00 0.6520000D+00
EXPONENTS  0.7750000D-01 0.7750000D-01 0.7750000D-01 0.7750000D-01 0.7750000D-01
EXPONENTS  0.7750000D-01 0.4520000D+00 0.4520000D+00 0.4520000D+00 0.4520000D+00
EXPONENTS  0.4520000D+00 0.4520000D+00 0.4520000D+00 0.4520000D+00 0.4520000D+00
EXPONENTS  0.4520000D+00 0.1650000D+00 0.1650000D+00 0.1650000D+00 0.1650000D+00
EXPONENTS  0.1650000D+00 0.1650000D+00 0.1650000D+00 0.1650000D+00 0.1650000D+00
EXPONENTS  0.1650000D+00 0.1533000D+05 0.2299000D+04 0.5224000D+03 0.1473000D+03
EXPONENTS  0.4755000D+02 0.1676000D+02 0.6207000D+01 0.6882000D+00 0.1533000D+05
EXPONENTS  0.2299000D+04 0.5224000D+03 0.1473000D+03 0.4755000D+02 0.1676000D+02
EXPONENTS  0.6207000D+01 0.6882000D+00 0.1752000D+01 0.2384000D+00 0.7376000D-01
EXPONENTS  0.3446000D+02 0.7749000D+01 0.2280000D+01 0.3446000D+02 0.7749000D+01
EXPONENTS  0.2280000D+01 0.3446000D+02 0.7749000D+01 0.2280000D+01 0.7156000D+00
EXPONENTS  0.7156000D+00 0.7156000D+00 0.2140000D+00 0.2140000D+00 0.2140000D+00
EXPONENTS  0.5974000D-01 0.5974000D-01 0.5974000D-01 0.2314000D+01 0.2314000D+01
EXPONENTS  0.2314000D+01 0.2314000D+01 0.2314000D+01 0.2314000D+01 0.6450000D+00
EXPONENTS  0.6450000D+00 0.6450000D+00 0.6450000D+00 0.6450000D+00 0.6450000D+00
EXPONENTS  0.2140000D+00 0.2140000D+00 0.2140000D+00 0.2140000D+00 0.2140000D+00
EXPONENTS  0.2140000D+00 0.1428000D+01 0.1428000D+01 0.1428000D+01 0.1428000D+01
EXPONENTS  0.1428000D+01 0.1428000D+01 0.1428000D+01 0.1428000D+01 0.1428000D+01
EXPONENTS  0.1428000D+01 0.5000000D+00 0.5000000D+00 0.5000000D+00 0.5000000D+00
EXPONENTS  0.5000000D+00 0.5000000D+00 0.5000000D+00 0.5000000D+00 0.5000000D+00
EXPONENTS  0.5000000D+00 0.1533000D+05 0.2299000D+04 0.5224000D+03 0.1473000D+03
EXPONENTS  0.4755000D+02 0.1676000D+02 0.6207000D+01 0.6882000D+00 0.1533000D+05
EXPONENTS  0.2299000D+04 0.5224000D+03 0.1473000D+03 0.4755000D+02 0.1676000D+02
EXPONENTS  0.6207000D+01 0.6882000D+00 0.1752000D+01 0.2384000D+00 0.7376000D-01
EXPONENTS  0.3446000D+02 0.7749000D+01 0.2280000D+01 0.3446000D+02 0.7749000D+01
EXPONENTS  0.2280000D+01 0.3446000D+02 0.7749000D+01 0.2280000D+01 0.7156000D+00
EXPONENTS  0.7156000D+00 0.7156000D+00 0.2140000D+00 0.2140000D+00 0.2140000D+00
EXPONENTS  0.5974000D-01 0.5974000D-01 0.5974000D-01 0.2314000D+01 0.2314000D+01
EXPONENTS  0.2314000D+01 0.2314000D+01 0.2314000D+01 0.2314000D+01 0.6450000D+00
EXPONENTS  0.6450000D+00 0.6450000D+00 0.6450000D+00 0.6450000D+00 0.6450000D+00
EXPONENTS  0.2140000D+00 0.2140000D+00 0.2140000D+00 0.2140000D+00 0.2140000D+00
EXPONENTS  0.2140000D+00 0.1428000D+01 0.1428000D+01 0.1428000D+01 0.1428000D+01
EXPONENTS  0.1428000D+01 0.1428000D+01 0.1428000D+01 0.1428000D+01 0.1428000D+01
EXPONENTS  0.1428000D+01 0.5000000D+00 0.5000000D+00 0.5000000D+00 0.5000000D+00
EXPONENTS  0.5000000D+00 0.5000000D+00 0.5000000D+00 0.5000000D+00 0.5000000D+00
EXPONENTS  0.5000000D+00 0.1533000D+05 0.2299000D+04 0.5224000D+03 0.1473000D+03
EXPONENTS  0.4755000D+02 0.1676000D+02 0.6207000D+01 0.6882000D+00 0.1533000D+05
EXPONENTS  0.2299000D+04 0.5224000D+03 0.1473000D+03 0.4755000D+02 0.1676000D+02
EXPONENTS  0.6207000D+01 0.6882000D+00 0.1752000D+01 0.2384000D+00 0.7376000D-01
EXPONENTS  0.3446000D+02 0.7749000D+01 0.2280000D+01 0.3446000D+02 0.7749000D+01
EXPONENTS  0.2280000D+01 0.3446000D+02 0.7749000D+01 0.2280000D+01 0.7156000D+00
EXPONENTS  0.7156000D+00 0.7156000D+00 0.2140000D+00 0.2140000D+00 0.2140000D+00
EXPONENTS  0.5974000D-01 0.5974000D-01 0.5974000D-01 0.2314000D+01 0.2314000D+01
EXPONENTS  0.2314000D+01 0.2314000D+01 0.2314000D+01 0.2314000D+01 0.6450000D+00
EXPONENTS  0.6450000D+00 0.6450000D+00 0.6450000D+00 0.6450000D+00 0.6450000D+00
EXPONENTS  0.2140000D+00 0.2140000D+00 0.2140000D+00 0.2140000D+00 0.2140000D+00
EXPONENTS  0.2140000D+00 0.1428000D+01 0.1428000D+01 0.1428000D+01 0.1428000D+01
EXPONENTS  0.1428000D+01 0.1428000D+01 0.1428000D+01 0.1428000D+01 0.1428000D+01
EXPONENTS  0.1428000D+01 0.5000000D+00 0.5000000D+00 0.5000000D+00 0.5000000D+00
EXPONENTS  0.5000000D+00 0.5000000D+00 0.5000000D+00 0.5000000D+00 0.5000000D+00
EXPONENTS  0.5000000D+00 0.3387000D+02 0.5095000D+01 0.1159000D+01 0.3258000D+00
EXPONENTS  0.1027000D+00 0.2526000D-01 0.1407000D+01 0.1407000D+01 0.1407000D+01
EXPONENTS  0.3880000D+00 0.3880000D+00 0.3880000D+00 0.1020000D+00 0.1020000D+00
EXPONENTS  0.1020000D+00 0.1057000D+01 0.1057000D+01 0.1057000D+01 0.1057000D+01
EXPONENTS  0.1057000D+01 0.1057000D+01 0.2470000D+00 0.2470000D+00 0.2470000D+00
EXPONENTS  0.2470000D+00 0.2470000D+00 0.2470000D+00 0.3387000D+02 0.5095000D+01
EXPONENTS  0.1159000D+01 0.3258000D+00 0.1027000D+00 0.2526000D-01 0.1407000D+01
EXPONENTS  0.1407000D+01 0.1407000D+01 0.3880000D+00 0.3880000D+00 0.3880000D+00
EXPONENTS  0.1020000D+00 0.1020000D+00 0.1020000D+00 0.1057000D+01 0.1057000D+01
EXPONENTS  0.1057000D+01 0.1057000D+01 0.1057000D+01 0.1057000D+01 0.2470000D+00
EXPONENTS  0.2470000D+00 0.2470000D+00 0.2470000D+00 0.2470000D+00 0.2470000D+00
EXPONENTS  0.3387000D+02 0.5095000D+01 0.1159000D+01 0.3258000D+00 0.1027000D+00
EXPONENTS  0.2526000D-01 0.1407000D+01 0.1407000D+01 0.1407000D+01 0.3880000D+00
EXPONENTS  0.3880000D+00 0.3880000D+00 0.1020000D+00 0.1020000D+00 0.1020000D+00
EXPONENTS  0.1057000D+01 0.1057000D+01 0.1057000D+01 0.1057000D+01 0.1057000D+01
EXPONENTS  0.1057000D+01 0.2470000D+00 0.2470000D+00 0.2470000D+00 0.2470000D+00
EXPONENTS  0.2470000D+00 0.2470000D+00 0.1533000D+05 0.2299000D+04 0.5224000D+03
EXPONENTS  0.1473000D+03 0.4755000D+02 0.1676000D+02 0.6207000D+01 0.6882000D+00
EXPONENTS  0.1533000D+05 0.2299000D+04 0.5224000D+03 0.1473000D+03 0.4755000D+02
EXPONENTS  0.1676000D+02 0.6207000D+01 0.6882000D+00 0.1752000D+01 0.2384000D+00
EXPONENTS  0.7376000D-01 0.3446000D+02 0.7749000D+01 0.2280000D+01 0.3446000D+02
EXPONENTS  0.7749000D+01 0.2280000D+01 0.3446000D+02 0.7749000D+01 0.2280000D+01
EXPONENTS  0.7156000D+00 0.7156000D+00 0.7156000D+00 0.2140000D+00 0.2140000D+00
EXPONENTS  0.2140000D+00 0.5974000D-01 0.5974000D-01 0.5974000D-01 0.2314000D+01
EXPONENTS  0.2314000D+01 0.2314000D+01 0.2314000D+01 0.2314000D+01 0.2314000D+01
EXPONENTS  0.6450000D+00 0.6450000D+00 0.6450000D+00 0.6450000D+00 0.6450000D+00
EXPONENTS  0.6450000D+00 0.2140000D+00 0.2140000D+00 0.2140000D+00 0.2140000D+00
EXPONENTS  0.2140000D+00 0.2140000D+00 0.1428000D+01 0.1428000D+01 0.1428000D+01
EXPONENTS  0.1428000D+01 0.1428000D+01 0.1428000D+01 0.1428000D+01 0.1428000D+01
EXPONENTS  0.1428000D+01 0.1428000D+01 0.5000000D+00 0.5000000D+00 0.5000000D+00
EXPONENTS  0.5000000D+00 0.5000000D+00 0.5000000D+00 0.5000000D+00 0.5000000D+00
EXPONENTS  0.5000000D+00 0.5000000D+00
MO    1     MO 0.0        OCC NO =    2.0000000  ORB. ENERGY =  -76.477144
  0.54491886D+00  0.10195350D+01  0.17604358D+01  0.28470744D+01  0.42970802D+01
  0.58871329D+01  0.68033476D+01  0.57173638D+01  0.25113167D+01  0.28703936D+00
 -0.38686141D-02  0.24061699D-02  0.11835945D-03 -0.28570802D-02 -0.53438693D-02
 -0.92526208D-02 -0.15024093D-01 -0.23073497D-01 -0.32815809D-01 -0.41752846D-01
 -0.43270648D-01 -0.28875541D-01  0.28438726D-02  0.21722553D-01  0.11153642D-01
 -0.48925017D-04  0.14774524D-02  0.27609463D-02  0.47875788D-02  0.77635712D-02
  0.11966715D-01  0.17027982D-01  0.21926890D-01  0.23050685D-01  0.16159237D-01
 -0.18762320D-02 -0.15189290D-01 -0.14295186D-01  0.69711795D-02 -0.35689921D-02
 -0.18200237D-02  0.10634840D-03  0.91820124D-04  0.12011825D-03  0.13141357D-03
  0.10824834D-03  0.57877920D-04  0.15992231D-04 -0.13108113D-07  0.35025545D-03
  0.45820097D-03  0.50128792D-03  0.41292225D-03  0.22078011D-03  0.61003686D-04
 -0.50001981D-07  0.65957702D-04  0.86285262D-04  0.94399101D-04  0.77758685D-04
  0.41575795D-04  0.11487795D-04 -0.94160299D-08  0.24231232D-04  0.32091994D-04
  0.35453032D-04  0.30365630D-04  0.16565600D-04  0.50918312D-05 -0.22168050D-05
  0.13290176D-03  0.17601591D-03  0.19445030D-03  0.16654727D-03  0.90857841D-04
  0.27927318D-04 -0.12158576D-04  0.35776399D-04  0.47382485D-04  0.52344917D-04
  0.44833581D-04  0.24458415D-04  0.75178755D-05 -0.32730198D-05 -0.36407910D-04
 -0.15032783D-03 -0.31836515D-04  0.12337652D-04  0.58502251D-04  0.11343505D-04
 -0.87465112D-07 -0.25474074D-06  0.46321358D-08 -0.64535161D-04  0.13208499D-03
 -0.67549831D-04  0.99451252D-04  0.19895122D-04  0.88693224D-04 -0.92342103D-04
  0.18851739D-03 -0.96175289D-04  0.14034322D-03  0.29644457D-04  0.12573130D-03
 -0.25268729D-05  0.49854834D-05 -0.24586105D-05  0.39163291D-05  0.98234936D-06
  0.33970814D-05  0.17312174D-03 -0.16400612D-03  0.58023284D-04 -0.26384417D-03
  0.15634674D-03  0.99403458D-04 -0.25552105D-03  0.33567163D-03 -0.27347331D-03
 -0.37084553D-04 -0.60852357D-04  0.52581216D-04 -0.49611559D-04  0.93434284D-04
 -0.67094675D-04  0.57510980D-04  0.89122786D-04 -0.90648974D-04  0.91323696D-04
 -0.34256218D-04  0.63801079D-04  0.11891700D-03  0.20164384D-03  0.30519734D-03
  0.38079717D-03  0.32705398D-03  0.12556238D-03 -0.56164825D-06 -0.47315303D-04
 -0.88741024D-04 -0.15128399D-03 -0.23642743D-03 -0.31614853D-03 -0.33757292D-03
 -0.20638546D-03  0.13616059D-03  0.73957250D-04  0.66876752D-03 -0.20200662D-03
 -0.33500489D-03 -0.32484205D-03 -0.21913653D-03 -0.37510073D-04 -0.36372153D-04
 -0.24536440D-04 -0.31407430D-04 -0.30454642D-04 -0.20544522D-04  0.21189974D-03
 -0.46075747D-04 -0.31888841D-04  0.41230376D-03 -0.62374635D-04 -0.27334039D-03
  0.28105878D-04  0.91719724D-05  0.88060332D-06  0.46913571D-03 -0.20378910D-03
 -0.26534661D-03  0.52009645D-03  0.18854879D-03  0.12305326D-03 -0.30360990D-03
  0.12571465D-03  0.17789525D-03 -0.38088951D-03 -0.21403301D-03  0.37401617D-04
 -0.22372003D-03  0.59267252D-04  0.16445278D-03 -0.74747258D-04  0.88981001D-05
  0.55846921D-04 -0.24357619D-03  0.97900273D-04  0.45544454D-04  0.14927711D-03
 -0.21060543D-03 -0.20276534D-03  0.58145145D-03 -0.83095385D-04  0.66131978D-04
  0.65393286D-04  0.14993856D-03 -0.54097065D-04 -0.20207363D-04 -0.14581611D-03
  0.21679336D-03  0.11317204D-03 -0.30399955D-03 -0.54502163D-04 -0.52549949D-04
  0.69737782D-04  0.63305708D-04  0.11799369D-03  0.20007821D-03  0.30282769D-03
  0.37784054D-03  0.32451463D-03  0.12458748D-03 -0.55728743D-06 -0.46964158D-04
 -0.88082441D-04 -0.15016125D-03 -0.23467281D-03 -0.31380226D-03 -0.33506765D-03
 -0.20485379D-03  0.13515009D-03  0.72902115D-04  0.68474437D-03 -0.19894080D-03
  0.11124026D-03  0.10786563D-03  0.72765518D-04 -0.20095655D-03 -0.19486026D-03
 -0.13145158D-03  0.24859861D-03  0.24105703D-03  0.16261565D-03 -0.13029574D-03
  0.61337860D-04 -0.16907179D-03 -0.44226938D-03  0.12373095D-03 -0.22842067D-03
 -0.98266629D-05  0.21821043D-04 -0.17316183D-04 -0.22095146D-03  0.20664159D-03
  0.14309876D-04 -0.27280549D-03  0.26332467D-03 -0.81315338D-03  0.20392582D-03
 -0.15390496D-03 -0.50020868D-04  0.24450066D-03 -0.71060900D-04  0.52638070D-03
  0.10322535D-03 -0.38340869D-04 -0.64884478D-04  0.20931103D-03 -0.22169313D-03
  0.21439048D-03 -0.19893595D-03  0.47794595D-04 -0.95354712D-05  0.22175617D-03
  0.11710136D-03 -0.28669289D-03  0.37505168D-03 -0.26048515D-03  0.31529930D-03
 -0.44670160D-03  0.90440197D-04 -0.23175939D-04  0.44485060D-04 -0.13186530D-03
 -0.14418137D-03  0.10796601D-03 -0.13945529D-03  0.21370919D-03 -0.24142119D-03
  0.32625531D-03  0.63641249D-04  0.11861910D-03  0.20113869D-03  0.30443277D-03
  0.37984322D-03  0.32623467D-03  0.12524783D-03 -0.56024124D-06 -0.47192167D-04
 -0.88510079D-04 -0.15089028D-03 -0.23581214D-03 -0.31532576D-03 -0.33669440D-03
 -0.20584835D-03  0.13580624D-03  0.73129021D-04  0.67798048D-03 -0.20153585D-03
  0.14636746D-03  0.14192721D-03  0.95743254D-04 -0.96197442D-04 -0.93279159D-04
 -0.62925570D-04 -0.29081482D-03 -0.28199255D-03 -0.19023051D-03 -0.87871310D-04
 -0.25866204D-04  0.20215962D-03  0.96516531D-06 -0.13567270D-03  0.49027362D-03
 -0.81027018D-05  0.12414849D-04  0.25590742D-04 -0.21251683D-03 -0.72627809D-04
  0.28514464D-03 -0.30061287D-03 -0.46643955D-03  0.64267245D-03  0.74342829D-04
  0.80822567D-04 -0.15516540D-03  0.17853490D-03  0.29909619D-03 -0.53076436D-03
  0.65845023D-04  0.93406037D-04 -0.15925106D-03 -0.46856253D-04  0.23368788D-03
 -0.19394650D-03 -0.16335207D-03  0.10881669D-03 -0.26122256D-04 -0.40255822D-05
  0.16961742D-03 -0.65916236D-04  0.49408180D-03 -0.49606748D-03  0.14428300D-03
  0.17950678D-03  0.89229964D-04 -0.83237522D-04  0.28595850D-04  0.26743390D-04
 -0.42380528D-04 -0.62524549D-04 -0.29443328D-03  0.29209309D-03 -0.23263001D-04
 -0.25617502D-03  0.13495239D-04  0.24339219D-04  0.35888164D-04 -0.45397713D-03
  0.31595089D-03 -0.56290797D-05  0.20927251D-03  0.72380419D-04 -0.13817063D-03
  0.91575569D-04 -0.16056153D-03  0.52368406D-05 -0.68598033D-04  0.19450336D-05
  0.21162098D-04 -0.48039110D-04  0.29664537D-05  0.45072657D-04  0.95706268D-04
  0.66143361D-05 -0.17938263D-03  0.36594325D-04 -0.97208897D-05 -0.26873435D-04
  0.76271690D-04  0.41048384D-04  0.26617428D-04  0.14192949D-04  0.25597567D-04
  0.37743598D-04 -0.48160609D-03  0.30919588D-03 -0.56958262D-05 -0.20532525D-03
  0.15338005D-03 -0.64324988D-04 -0.67291344D-04 -0.93359829D-04 -0.15252679D-03
  0.47653992D-04 -0.30498759D-04  0.43066961D-04 -0.93256313D-05  0.20303712D-04
 -0.10978081D-04 -0.13790116D-03 -0.16820634D-03  0.54905647D-04 -0.31560606D-04
  0.37534236D-04 -0.59736299D-05 -0.71231772D-05  0.84174926D-05 -0.84907942D-04
  0.13869561D-04  0.25014324D-04  0.36883607D-04 -0.47089837D-03  0.31394436D-03
 -0.57472894D-05  0.51792779D-04  0.23871655D-04  0.25612624D-03 -0.12224725D-03
 -0.12609055D-03  0.70666546D-04  0.13883598D-04  0.17663619D-05 -0.70315731D-04
  0.68903307D-04 -0.50225073D-04 -0.18678234D-04  0.20906320D-04  0.15312352D-03
  0.11023643D-03 -0.23778441D-04  0.10688314D-04  0.13090127D-04 -0.39471302D-04
 -0.43467454D-04  0.85113195D-04  0.13113615D-04  0.24442092D-04  0.41445689D-04
  0.62729981D-04  0.78268701D-04  0.67222375D-04  0.25807977D-04 -0.11544066D-06
 -0.15431412D-04 -0.28941995D-04 -0.49339757D-04 -0.77108436D-04 -0.10310867D-03
 -0.11009602D-03 -0.67310549D-04  0.44407412D-04  0.17771181D-03  0.18243944D-03
 -0.14066611D-03  0.10331188D-03  0.10017777D-03  0.67579332D-04  0.43299523D-03
  0.41985972D-03  0.28323489D-03  0.91053946D-04  0.88291699D-04  0.59561059D-04
 -0.88491151D-04 -0.37026003D-03 -0.77868089D-04 -0.17423556D-03 -0.74722480D-03
 -0.16103954D-03 -0.48434063D-05 -0.20920936D-04 -0.44465506D-05 -0.29899029D-03
  0.60769302D-03 -0.30870273D-03  0.45378358D-03  0.97229486D-04  0.40750685D-03
  0.23207554D-03 -0.47209869D-03  0.24002314D-03 -0.35316616D-03 -0.75318834D-04
 -0.31675150D-03  0.96869135D-04 -0.19691627D-03  0.10004714D-03 -0.14717540D-03
 -0.31735699D-04 -0.13301465D-03 -0.16649491D-03  0.14956668D-03 -0.10998162D-03
  0.25898179D-03 -0.17445329D-03  0.75818445D-04  0.24050294D-03 -0.27424674D-03
  0.25412642D-03 -0.47345425D-04  0.84214393D-04 -0.13327980D-03  0.68832521D-04
 -0.22300869D-03  0.18409792D-03 -0.15828146D-05 -0.29634489D-04  0.21574147D-03
 -0.20491475D-03 -0.66131412D-04
MO    2     MO 0.0        OCC NO =    2.0000000  ORB. ENERGY =  -18.805464
  0.11367612D-03  0.21268630D-03  0.36724644D-03  0.59393130D-03  0.89641861D-03
  0.12281212D-02  0.14192538D-02  0.11927055D-02  0.52388852D-03  0.59879594D-04
 -0.80703583D-06  0.50195373D-06  0.24691094D-07 -0.20471016D-03 -0.38288892D-03
 -0.66295148D-03 -0.10764782D-02 -0.16532190D-02 -0.23512570D-02 -0.29915968D-02
 -0.31003475D-02 -0.20689362D-02  0.20376384D-03  0.15564237D-02  0.79915989D-03
 -0.35054837D-05  0.11275971D-03  0.21071644D-03  0.36538977D-03  0.59251861D-03
  0.91330409D-03  0.12995818D-02  0.16734683D-02  0.17592368D-02  0.12332789D-02
 -0.14319472D-03 -0.11592522D-02 -0.10910139D-02  0.53204298D-03 -0.73228357D-03
  0.17078078D-02  0.28678330D-03 -0.57345178D-02 -0.75018437D-02 -0.82072799D-02
 -0.67605230D-02 -0.36146974D-02 -0.99877596D-03  0.81865179D-06  0.16348459D-01
  0.21386904D-01  0.23398022D-01  0.19273483D-01  0.10305092D-01  0.28473968D-02
 -0.23338832D-05 -0.15061718D-01 -0.19703601D-01 -0.21556430D-01 -0.17756522D-01
 -0.94940070D-02 -0.26232863D-02  0.21501899D-05  0.51106677D-02  0.67686002D-02
  0.74774849D-02  0.64044886D-02  0.34938909D-02  0.10739305D-02 -0.46755172D-03
 -0.14898694D-01 -0.19731923D-01 -0.21798475D-01 -0.18670460D-01 -0.10185443D-01
 -0.31307380D-02  0.13630137D-02  0.13719462D-01  0.18170140D-01  0.20073124D-01
  0.17192692D-01  0.93792641D-02  0.28829399D-02 -0.12551311D-02  0.29799830D-03
 -0.45608549D-03  0.44345275D-03 -0.29918186D-03  0.18368866D-03 -0.19909924D-03
 -0.48935121D-05  0.36204689D-05 -0.45780154D-05 -0.17174824D-03  0.53839964D-04
  0.11790828D-03 -0.47837963D-03  0.42749654D-03 -0.86528699D-03 -0.23063176D-03
  0.17557130D-03  0.55060457D-04 -0.29668840D-03  0.27414690D-03 -0.92029802D-03
 -0.13135075D-04  0.16949779D-05  0.11440097D-04 -0.27958987D-04  0.22514255D-04
 -0.20557106D-04  0.11248190D-03 -0.50691771D-04  0.61063592D-04 -0.26628118D-03
 -0.22498463D-03  0.10998340D-03 -0.71164511D-04  0.37705994D-03 -0.29317417D-03
  0.59502565D-03  0.14866535D-04 -0.21534406D-04  0.41914805D-05 -0.30205603D-04
 -0.78657174D-05 -0.20509054D-04 -0.14394000D-04  0.72468936D-04  0.79346125D-05
  0.15927542D-03 -0.37312848D-02 -0.69546348D-02 -0.11792756D-01 -0.17848886D-01
 -0.22270198D-01 -0.19127130D-01 -0.73432773D-02  0.32846930D-04 -0.32612907D-04
 -0.61166315D-04 -0.10427516D-03 -0.16296177D-03 -0.21791094D-03 -0.23267808D-03
 -0.14225482D-03  0.93851089D-04 -0.46490069D-03 -0.17396682D-03  0.10280953D-03
  0.19257455D-03  0.18673253D-03  0.12596866D-03 -0.65125632D-04 -0.63149956D-04
 -0.42600588D-04  0.33538734D-04  0.32521290D-04  0.21938670D-04 -0.19923315D-03
  0.91267990D-04  0.44187333D-04 -0.77638241D-04  0.26145568D-03 -0.62392736D-04
 -0.21335800D-04  0.10320309D-04 -0.11632602D-04 -0.37982735D-04  0.48959498D-04
 -0.10976763D-04  0.18382760D-03 -0.51685410D-04 -0.13601168D-03  0.35668821D-04
 -0.48891134D-04  0.13222313D-04 -0.70933638D-04  0.14009022D-03 -0.15504256D-04
  0.14338719D-04 -0.13857016D-04 -0.48170323D-06 -0.46850989D-04  0.40954671D-04
 -0.68149008D-04  0.19074470D-04 -0.79475504D-04  0.66914361D-04  0.95698868D-04
  0.72667708D-04 -0.18176762D-03 -0.15292228D-03  0.16575881D-03 -0.18975464D-04
  0.15220099D-03 -0.16277489D-04  0.50609766D-05 -0.20799763D-04 -0.26737743D-04
  0.58895675D-04  0.18766616D-04  0.75570210D-04 -0.74078605D-04  0.43632675D-04
 -0.62144279D-04  0.49662881D+00  0.92565220D+00  0.15695994D+01  0.23756618D+01
  0.29641323D+01  0.25457944D+01  0.97737996D+00 -0.43718805D-02  0.66744147D-05
  0.12518030D-04  0.21340497D-04  0.33351043D-04  0.44596700D-04  0.47618878D-04
  0.29113248D-04 -0.19207153D-04  0.56475849D-01 -0.16853089D-02 -0.85378655D-03
 -0.29680809D-02 -0.28780401D-02 -0.19415089D-02 -0.57123262D-02 -0.55390349D-02
 -0.37366002D-02  0.18634935D-02  0.18069618D-02  0.12189658D-02 -0.14678579D-02
  0.39162631D-03 -0.12756944D-02 -0.97907963D-04  0.12716207D-02 -0.97595052D-03
 -0.29398845D-04  0.64885891D-04 -0.74598786D-04  0.13726143D-02 -0.99652479D-03
 -0.37608948D-03  0.99100740D-03  0.54318714D-02 -0.21226415D-02  0.34988055D-03
 -0.12201252D-03 -0.22786803D-03  0.75516241D-03 -0.73710864D-03  0.14121782D-02
  0.44092662D-04 -0.43641596D-04 -0.45106661D-06  0.53318669D-04 -0.16827287D-03
  0.32516170D-03 -0.44885117D-03  0.50691472D-03  0.49056996D-03  0.96319879D-03
 -0.14588873D-02 -0.20798773D-02  0.38335474D-03 -0.61856848D-04  0.60816744D-03
 -0.21141929D-02  0.18365974D-03 -0.14617135D-03 -0.66536056D-04 -0.43078402D-03
  0.13705271D-03  0.65892285D-03 -0.12019521D-03  0.30146133D-03 -0.45931468D-03
  0.82486817D-03 -0.40084132D-02 -0.74711665D-02 -0.12668623D-01 -0.19174551D-01
 -0.23924241D-01 -0.20547733D-01 -0.78886741D-02  0.35286523D-04 -0.14944663D-04
 -0.28029087D-04 -0.47783448D-04 -0.74676228D-04 -0.99856346D-04 -0.10662330D-03
 -0.65187393D-04  0.43006683D-04 -0.45112679D-03 -0.40050608D-03 -0.10583638D-03
 -0.40463410D-04 -0.39235896D-04 -0.26468304D-04 -0.45460830D-04 -0.44081713D-04
 -0.29737263D-04  0.11723483D-03  0.11367835D-03  0.76686743D-04  0.38395390D-04
  0.18367546D-03 -0.20427847D-03 -0.12680221D-03  0.19745740D-03 -0.23822279D-03
 -0.12613612D-04  0.14091184D-04 -0.26775423D-04  0.21403456D-04 -0.72716635D-04
  0.51313179D-04 -0.57195754D-04 -0.10366028D-03 -0.18860547D-03  0.45871301D-04
 -0.20091809D-04 -0.25779492D-04  0.18931021D-04  0.10645502D-03  0.24418554D-03
 -0.25240299D-04 -0.62486808D-04  0.87727107D-04  0.27953811D-04 -0.33382960D-04
  0.88977941D-04  0.61621000D-04 -0.10933221D-03 -0.87056128D-04  0.34816392D-04
 -0.14401260D-03  0.28100627D-03 -0.21967939D-03  0.47200922D-03 -0.19837885D-04
  0.46330783D-04 -0.25114601D-04  0.46631269D-04  0.37231076D-04 -0.95836033D-06
  0.27249508D-04 -0.37661981D-04  0.76302164D-04 -0.16714332D-03 -0.74031246D-04
 -0.69664215D-04 -0.90716997D-05 -0.16361184D-04 -0.24124556D-04  0.29278063D-03
  0.18775399D-04  0.88274241D-06  0.40807902D-05 -0.29482834D-05  0.81547573D-04
 -0.90358502D-04  0.31548161D-04  0.13000134D-03  0.41850792D-05  0.92145176D-05
  0.12414215D-04  0.15810557D-04 -0.33870082D-04  0.18059525D-04 -0.73356929D-05
 -0.83635180D-04  0.12177821D-03 -0.31900960D-05 -0.10982628D-04  0.14172724D-04
 -0.20538466D-04 -0.13487530D-04 -0.32189072D-05  0.23768459D-03  0.42867395D-03
  0.63207949D-03 -0.29006003D-03 -0.50243956D-03 -0.45287807D-04 -0.67206250D-03
 -0.73521691D-04 -0.42157410D-03 -0.84742647D-03 -0.16376537D-03 -0.43589995D-03
 -0.13190381D-03  0.58079623D-05 -0.87327278D-04 -0.16234927D-02  0.10594611D-02
  0.56403166D-03 -0.16023108D-02 -0.29771613D-02 -0.82146919D-03 -0.44384696D-04
  0.37374997D-04  0.70096994D-05 -0.35634953D-04 -0.98554747D-04  0.13004391D-04
 -0.10421908D-04 -0.18796340D-04 -0.27715192D-04  0.52240837D-03 -0.98981330D-05
  0.37423145D-05 -0.61778943D-04  0.42495105D-04 -0.17589814D-03  0.37567741D-04
  0.11454723D-03 -0.24979890D-03  0.73330037D-06  0.16390528D-04  0.32633001D-04
 -0.87186422D-04  0.64721007D-05  0.80714321D-04 -0.71501478D-04 -0.44756270D-04
 -0.24253996D-03  0.21666064D-04 -0.12801677D-04 -0.88643867D-05  0.17939204D-04
  0.17098155D-04 -0.70080886D-04  0.59723144D-05  0.11131626D-04  0.18875549D-04
  0.28569022D-04  0.35645798D-04  0.30614987D-04  0.11753689D-04 -0.52574971D-07
 -0.60229751D-05 -0.11296239D-04 -0.19257611D-04 -0.30095898D-04 -0.40243950D-04
 -0.42971156D-04 -0.26271722D-04  0.17332487D-04 -0.27747779D-04 -0.46796418D-04
 -0.52369679D-04 -0.46219551D-04 -0.44817418D-04 -0.30233565D-04 -0.43240620D-04
 -0.41928856D-04 -0.28284958D-04 -0.33550516D-04 -0.32532715D-04 -0.21946377D-04
  0.23099141D-04 -0.25064827D-04  0.42919122D-04 -0.47555869D-04  0.22828987D-03
 -0.36108238D-03 -0.75947146D-05  0.98847800D-05 -0.80703373D-05  0.71763786D-05
 -0.10183059D-03  0.94654213D-04 -0.14742351D-03  0.39751488D-04  0.13399859D-03
  0.73562680D-05  0.25730533D-04 -0.33086801D-04  0.64694133D-04 -0.14112165D-04
 -0.11156302D-03 -0.36670735D-04  0.83706903D-04 -0.47036168D-04  0.87237192D-05
 -0.82836477D-05 -0.10481915D-03  0.57252578D-04 -0.29834106D-04  0.78662027D-04
 -0.11796404D-03  0.84299497D-07  0.49406350D-04 -0.53793698D-04  0.89418017D-04
 -0.28539243D-03  0.53141610D-04 -0.31389175D-04  0.19482612D-04 -0.71163876D-05
  0.64050600D-04 -0.93812891D-05  0.13767683D-04  0.30116925D-04 -0.49066547D-04
  0.75814800D-05  0.83861157D-05