 Molden2AIM, Version 4.0.0 (06/02/2016)           Time: Fri Jun 29 04:14:03 2018
GAUSSIAN              7 MOL ORBITALS    177 PRIMITIVES        3 NUCLEI
  H    1    (CENTRE  1)   0.00000000  0.00000000  2.02469603  CHARGE =  1.0
  C    2    (CENTRE  2)   0.00000000  0.00000000 -0.00732836  CHARGE =  6.0
  N    3    (CENTRE  3)   0.00000000  0.00000000 -2.19122248  CHARGE =  7.0
CENTRE ASSIGNMENTS    1  1  1  1  1  1  1  1  1  1  1  1  1  1  1  1  1  1  1  1
CENTRE ASSIGNMENTS    1  1  1  1  1  1  1  2  2  2  2  2  2  2  2  2  2  2  2  2
CENTRE ASSIGNMENTS    2  2  2  2  2  2  2  2  2  2  2  2  2  2  2  2  2  2  2  2
CENTRE ASSIGNMENTS    2  2  2  2  2  2  2  2  2  2  2  2  2  2  2  2  2  2  2  2
CENTRE ASSIGNMENTS    2  2  2  2  2  2  2  2  2  2  2  2  2  2  2  2  2  2  2  2
CENTRE ASSIGNMENTS    2  2  3  3  3  3  3  3  3  3  3  3  3  3  3  3  3  3  3  3
CENTRE ASSIGNMENTS    3  3  3  3  3  3  3  3  3  3  3  3  3  3  3  3  3  3  3  3
CENTRE ASSIGNMENTS    3  3  3  3  3  3  3  3  3  3  3  3  3  3  3  3  3  3  3  3
CENTRE ASSIGNMENTS    3  3  3  3  3  3  3  3  3  3  3  3  3  3  3  3  3
TYPE ASSIGNMENTS      1  1  1  1  1  1  2  3  4  2  3  4  2  3  4  5  6  7  8  9
TYPE ASSIGNMENTS     10  5  6  7  8  9 10  1  1  1  1  1  1  1  1  1  1  1  1  1
TYPE ASSIGNMENTS      1  1  1  1  1  1  2  2  2  3  3  3  4  4  4  2  3  4  2  3
TYPE ASSIGNMENTS      4  2  3  4  5  6  7  8  9 10  5  6  7  8  9 10  5  6  7  8
TYPE ASSIGNMENTS      9 10 11 12 13 17 14 15 18 19 16 20 11 12 13 17 14 15 18 19
TYPE ASSIGNMENTS     16 20  1  1  1  1  1  1  1  1  1  1  1  1  1  1  1  1  1  1
TYPE ASSIGNMENTS      1  2  2  2  3  3  3  4  4  4  2  3  4  2  3  4  2  3  4  5
TYPE ASSIGNMENTS      6  7  8  9 10  5  6  7  8  9 10  5  6  7  8  9 10 11 12 13
TYPE ASSIGNMENTS     17 14 15 18 19 16 20 11 12 13 17 14 15 18 19 16 20
EXPONENTS  0.3387000D+02 0.5095000D+01 0.1159000D+01 0.3258000D+00 0.1027000D+00
EXPONENTS  0.2526000D-01 0.1407000D+01 0.1407000D+01 0.1407000D+01 0.3880000D+00
EXPONENTS  0.3880000D+00 0.3880000D+00 0.1020000D+00 0.1020000D+00 0.1020000D+00
EXPONENTS  0.1057000D+01 0.1057000D+01 0.1057000D+01 0.1057000D+01 0.1057000D+01
EXPONENTS  0.1057000D+01 0.2470000D+00 0.2470000D+00 0.2470000D+00 0.2470000D+00
EXPONENTS  0.2470000D+00 0.2470000D+00 0.8236000D+04 0.1235000D+04 0.2808000D+03
EXPONENTS  0.7927000D+02 0.2559000D+02 0.8997000D+01 0.3319000D+01 0.3643000D+00
EXPONENTS  0.8236000D+04 0.1235000D+04 0.2808000D+03 0.7927000D+02 0.2559000D+02
EXPONENTS  0.8997000D+01 0.3319000D+01 0.3643000D+00 0.9059000D+00 0.1285000D+00
EXPONENTS  0.4402000D-01 0.1871000D+02 0.4133000D+01 0.1200000D+01 0.1871000D+02
EXPONENTS  0.4133000D+01 0.1200000D+01 0.1871000D+02 0.4133000D+01 0.1200000D+01
EXPONENTS  0.3827000D+00 0.3827000D+00 0.3827000D+00 0.1209000D+00 0.1209000D+00
EXPONENTS  0.1209000D+00 0.3569000D-01 0.3569000D-01 0.3569000D-01 0.1097000D+01
EXPONENTS  0.1097000D+01 0.1097000D+01 0.1097000D+01 0.1097000D+01 0.1097000D+01
EXPONENTS  0.3180000D+00 0.3180000D+00 0.3180000D+00 0.3180000D+00 0.3180000D+00
EXPONENTS  0.3180000D+00 0.1000000D+00 0.1000000D+00 0.1000000D+00 0.1000000D+00
EXPONENTS  0.1000000D+00 0.1000000D+00 0.7610000D+00 0.7610000D+00 0.7610000D+00
EXPONENTS  0.7610000D+00 0.7610000D+00 0.7610000D+00 0.7610000D+00 0.7610000D+00
EXPONENTS  0.7610000D+00 0.7610000D+00 0.2680000D+00 0.2680000D+00 0.2680000D+00
EXPONENTS  0.2680000D+00 0.2680000D+00 0.2680000D+00 0.2680000D+00 0.2680000D+00
EXPONENTS  0.2680000D+00 0.2680000D+00 0.1142000D+05 0.1712000D+04 0.3893000D+03
EXPONENTS  0.1100000D+03 0.3557000D+02 0.1254000D+02 0.4644000D+01 0.5118000D+00
EXPONENTS  0.1142000D+05 0.1712000D+04 0.3893000D+03 0.1100000D+03 0.3557000D+02
EXPONENTS  0.1254000D+02 0.4644000D+01 0.5118000D+00 0.1293000D+01 0.1787000D+00
EXPONENTS  0.5760000D-01 0.2663000D+02 0.5948000D+01 0.1742000D+01 0.2663000D+02
EXPONENTS  0.5948000D+01 0.1742000D+01 0.2663000D+02 0.5948000D+01 0.1742000D+01
EXPONENTS  0.5550000D+00 0.5550000D+00 0.5550000D+00 0.1725000D+00 0.1725000D+00
EXPONENTS  0.1725000D+00 0.4910000D-01 0.4910000D-01 0.4910000D-01 0.1654000D+01
EXPONENTS  0.1654000D+01 0.1654000D+01 0.1654000D+01 0.1654000D+01 0.1654000D+01
EXPONENTS  0.4690000D+00 0.4690000D+00 0.4690000D+00 0.4690000D+00 0.4690000D+00
EXPONENTS  0.4690000D+00 0.1510000D+00 0.1510000D+00 0.1510000D+00 0.1510000D+00
EXPONENTS  0.1510000D+00 0.1510000D+00 0.1093000D+01 0.1093000D+01 0.1093000D+01
EXPONENTS  0.1093000D+01 0.1093000D+01 0.1093000D+01 0.1093000D+01 0.1093000D+01
EXPONENTS  0.1093000D+01 0.1093000D+01 0.3640000D+00 0.3640000D+00 0.3640000D+00
EXPONENTS  0.3640000D+00 0.3640000D+00 0.3640000D+00 0.3640000D+00 0.3640000D+00
EXPONENTS  0.3640000D+00 0.3640000D+00
MO    1     MO 0.0        OCC NO =    2.0000000  ORB. ENERGY =  -14.012398
 -0.40924798D-03 -0.73809559D-03 -0.10883215D-02 -0.48714858D-02 -0.33846428D-02
 -0.39095532D-05  0.13024933D-15  0.10650830D-15  0.38854700D-02 -0.36909424D-16
 -0.20553852D-16  0.30471660D-02  0.24465835D-17 -0.42430882D-18  0.83296687D-03
  0.92987115D-03  0.92987115D-03 -0.18597423D-02  0.24480202D-19 -0.34328462D-17
 -0.15308745D-16  0.13782801D-03  0.13782801D-03 -0.27565601D-03  0.11921588D-19
 -0.60226592D-17  0.46505682D-17 -0.22651421D-03 -0.42227400D-03 -0.71371744D-03
 -0.10729511D-02 -0.13182444D-02 -0.11134681D-02 -0.41995921D-03  0.20784016D-05
  0.17018330D-03  0.31863684D-03  0.54250649D-03  0.83917505D-03  0.11051640D-02
  0.11483362D-02  0.72971611D-03 -0.48903876D-03  0.16148009D-02 -0.56808802D-03
 -0.40855295D-03  0.13190123D-17  0.12366578D-17  0.88057405D-18 -0.22312594D-17
 -0.20919475D-17 -0.14895912D-17 -0.43398026D-02 -0.40688408D-02 -0.28972570D-02
 -0.88028794D-17 -0.21984510D-16  0.12066251D-01 -0.30794466D-17 -0.31306305D-17
  0.36789476D-02 -0.54400309D-19 -0.55499104D-18  0.23094441D-04  0.12880822D-02
  0.12880822D-02 -0.25761644D-02  0.20412976D-19  0.12406080D-16  0.98507440D-17
  0.77150459D-03  0.77150459D-03 -0.15430092D-02  0.21908561D-19 -0.14335941D-16
  0.27819592D-16  0.83740641D-04  0.83740641D-04 -0.16748128D-03 -0.35148647D-21
 -0.11902904D-17  0.14978118D-17 -0.15445330D-17  0.79522350D-17  0.37393129D-02
 -0.15425755D-17  0.79490378D-17 -0.56089694D-02  0.61761745D-17 -0.31805743D-16
 -0.56089694D-02 -0.53423874D-21  0.78710406D-18 -0.47182518D-19  0.31455677D-03
  0.78796927D-18 -0.45606056D-19 -0.47183515D-03 -0.31492814D-17  0.18715361D-18
 -0.47183515D-03 -0.31315641D-19  0.41223336D+00  0.76813616D+00  0.12991108D+01
  0.19563889D+01  0.24221364D+01  0.20611287D+01  0.78429751D+00 -0.36731998D-02
 -0.18686500D-02 -0.35037362D-02 -0.59608978D-02 -0.92566448D-02 -0.12284106D-01
 -0.12945762D-01 -0.80271981D-02  0.53396952D-02  0.46157485D-01  0.84072686D-02
  0.85101345D-03  0.20065553D-16  0.19272723D-16  0.13515364D-16 -0.46957890D-16
 -0.45102492D-16 -0.31628980D-16  0.55941943D-02  0.53731567D-02  0.37680284D-02
 -0.30387109D-17  0.17088826D-16  0.89459531D-02 -0.17945362D-17  0.13526011D-16
  0.51367360D-03 -0.27364562D-18  0.92908543D-18  0.20995721D-04 -0.35369327D-02
 -0.35369327D-02  0.70738655D-02  0.15561621D-17  0.93389882D-17  0.28926296D-18
 -0.49532869D-03 -0.49532869D-03  0.99065738D-03 -0.10240842D-18 -0.33505928D-17
  0.31883188D-16  0.10447114D-03  0.10447114D-03 -0.20894228D-03 -0.16515993D-20
 -0.51615227D-18  0.42857078D-17 -0.27096375D-17 -0.83119517D-17  0.14256622D-02
 -0.27052531D-17 -0.80172660D-17 -0.21384933D-02  0.10834165D-16  0.32953121D-16
 -0.21384933D-02  0.24757187D-18  0.40218039D-18 -0.26399048D-17 -0.14705331D-03
  0.39904415D-18 -0.26530948D-17  0.22057997D-03 -0.16055853D-17  0.10572809D-16
  0.22057997D-03 -0.45071622D-19
MO    2     MO 0.0        OCC NO =    2.0000000  ORB. ENERGY =   -9.942439
  0.39388206D-03  0.71038251D-03  0.10474586D-02 -0.77776124D-03 -0.17366613D-02
 -0.67073006D-04 -0.10503130D-15  0.27715938D-16  0.10930086D-02 -0.66492622D-17
 -0.75103191D-18  0.25901500D-02 -0.48362674D-18  0.24097618D-18  0.52627926D-03
  0.23592229D-02  0.23592229D-02 -0.47184458D-02 -0.50462719D-19 -0.18959316D-17
  0.40356879D-17  0.16185005D-03  0.16185005D-03 -0.32370009D-03  0.36335715D-21
  0.46845324D-18  0.14036654D-18  0.32920238D+00  0.61370808D+00  0.10372748D+01
  0.15593637D+01  0.19158585D+01  0.16182488D+01  0.61034391D+00 -0.30206261D-02
 -0.31623614D-02 -0.59209384D-02 -0.10080904D-01 -0.15593626D-01 -0.20536257D-01
 -0.21338486D-01 -0.13559650D-01  0.90873622D-02  0.39333324D-01  0.79244860D-02
  0.11307175D-02  0.27337874D-16  0.25630994D-16  0.18250795D-16 -0.23291389D-16
 -0.21837158D-16 -0.15549357D-16 -0.68505619D-03 -0.64228372D-03 -0.45734427D-03
 -0.83558224D-17  0.70268490D-17 -0.54111711D-02 -0.70270315D-18  0.11466208D-17
 -0.82631343D-03  0.44977550D-20  0.50066908D-19 -0.29274939D-04 -0.52194107D-02
 -0.52194107D-02  0.10438821D-01  0.31038314D-17 -0.32534822D-17  0.79786895D-18
  0.27584706D-04  0.27584706D-04 -0.55169412D-04 -0.21603570D-18  0.68773307D-17
 -0.29071589D-17  0.14369705D-04  0.14369705D-04 -0.28739411D-04  0.35419553D-20
  0.44524408D-18 -0.42877071D-18  0.29014497D-17 -0.14072358D-17 -0.63151108D-03
  0.28704290D-17 -0.16015618D-17  0.94726661D-03 -0.11574778D-16  0.58232693D-17
  0.94726661D-03 -0.11688953D-18 -0.53284849D-19 -0.20072070D-18 -0.83047383D-04
 -0.53360594D-19 -0.19564929D-18  0.12457107D-03  0.21321514D-18  0.79781140D-18
  0.12457107D-03  0.51791186D-19 -0.65724349D-03 -0.12246765D-02 -0.20712349D-02
 -0.31191650D-02 -0.38617287D-02 -0.32861568D-02 -0.12504433D-02  0.58563594D-05
  0.31065040D-03  0.58247241D-03  0.99095887D-03  0.15388545D-02  0.20421494D-02
  0.21521452D-02  0.13344673D-02 -0.88768816D-03  0.16414371D-02 -0.80667335D-02
 -0.21615053D-02 -0.32570133D-17 -0.31283224D-17 -0.21937956D-17  0.21957053D-17
  0.21089487D-17  0.14789404D-17  0.43859390D-02  0.42126420D-02  0.29541953D-02
  0.51856880D-17 -0.34184489D-17 -0.68111131D-02  0.35976946D-17 -0.29642967D-17
 -0.45746975D-02  0.97586673D-19 -0.16887940D-18 -0.20279564D-03  0.41558683D-03
  0.41558683D-03 -0.83117365D-03 -0.79797396D-19 -0.11847664D-16 -0.54043834D-18
  0.21443904D-02  0.21443904D-02 -0.42887808D-02  0.77021777D-19  0.78873784D-17
 -0.47387550D-17  0.22468350D-03  0.22468350D-03 -0.44936699D-03  0.16583474D-19
  0.85994580D-18 -0.68521324D-18 -0.17055355D-17  0.90965918D-18 -0.19888589D-02
 -0.17294662D-17  0.86717732D-18  0.29832883D-02  0.68460727D-17 -0.35961549D-17
  0.29832883D-02 -0.48857972D-18 -0.39813365D-18  0.20893209D-18 -0.60859798D-03
 -0.39460836D-18  0.21200679D-18  0.91289697D-03  0.15890093D-17 -0.83880305D-18
  0.91289697D-03  0.89549071D-19
MO    3     MO 0.0        OCC NO =    2.0000000  ORB. ENERGY =   -0.845856
  0.51924532D-02  0.93648032D-02  0.13808397D-01 -0.19131665D-01 -0.13719995D-01
 -0.23333325D-03  0.82741673D-16 -0.42188007D-15 -0.16562318D-02 -0.14872021D-16
  0.17588345D-15  0.14232740D-01 -0.21381530D-17 -0.61101745D-16  0.30869856D-02
  0.29010906D-02  0.29010906D-02 -0.58021812D-02 -0.27462551D-15  0.78832332D-16
 -0.58778029D-16  0.68960350D-03  0.68960350D-03 -0.13792070D-02 -0.87439478D-17
 -0.14229942D-16  0.27258211D-17 -0.97584751D-02 -0.18192016D-01 -0.30747712D-01
 -0.46223883D-01 -0.56791381D-01 -0.47969400D-01 -0.18092293D-01  0.89539767D-04
 -0.38421783D-01 -0.71937701D-01 -0.12248009D+00 -0.18945808D+00 -0.24950962D+00
 -0.25925648D+00 -0.16474585D+00  0.11040884D+00  0.50485445D-01  0.32334379D-01
  0.19815917D-02  0.14863378D-15  0.13935361D-15  0.99228076D-16 -0.90105489D-16
 -0.84479624D-16 -0.60154525D-16 -0.28480711D+00 -0.26702477D+00 -0.19013754D+00
  0.16126616D-16 -0.35368119D-16 -0.23880580D-01 -0.18309016D-16  0.44936306D-17
  0.52043843D-02  0.25307985D-17 -0.17139767D-17 -0.58789373D-05 -0.21083778D-01
 -0.21083778D-01  0.42167556D-01  0.59134932D-17 -0.71192497D-16  0.58465913D-16
 -0.29759527D-02 -0.29759527D-02  0.59519054D-02 -0.61511758D-17 -0.34530298D-16
  0.27362569D-16  0.30907689D-04  0.30907689D-04 -0.61815378D-04  0.15642232D-17
 -0.16134702D-17  0.13658839D-16 -0.11910073D-16  0.19208023D-16 -0.38610498D-02
 -0.13049841D-16  0.14541474D-16  0.57915746D-02  0.48780059D-16 -0.72165541D-16
  0.57915746D-02 -0.19035131D-16  0.20935984D-17 -0.42740537D-18  0.10267329D-02
  0.29467118D-17 -0.66727573D-18 -0.15400993D-02 -0.92275071D-17  0.19494918D-17
 -0.15400993D-02 -0.57007578D-17 -0.10433501D-01 -0.19441293D-01 -0.32880100D-01
 -0.49515609D-01 -0.61303537D-01 -0.52166543D-01 -0.19850332D-01  0.92967573D-04
 -0.63626894D-01 -0.11930102D+00 -0.20296653D+00 -0.31518560D+00 -0.41826962D+00
 -0.44079876D+00 -0.27332335D+00  0.18181480D+00  0.98063617D-01  0.30344978D-01
 -0.19592079D-02  0.36300198D-15  0.34865906D-15  0.24450380D-15 -0.45578245D-15
 -0.43777360D-15 -0.30699707D-15  0.42057977D+00  0.40396185D+00  0.28328593D+00
  0.10487493D-15 -0.12440127D-15  0.87531836D-01  0.20981484D-16  0.19657174D-16
  0.34805641D-03 -0.17778581D-17  0.47820624D-17 -0.26752974D-03 -0.22345953D-01
 -0.22345953D-01  0.44691906D-01  0.34178007D-16  0.43741887D-16 -0.19458759D-15
 -0.34872493D-02 -0.34872493D-02  0.69744987D-02 -0.63836725D-17  0.35387042D-16
  0.12677069D-16  0.25793259D-03  0.25793259D-03 -0.51586518D-03  0.17551677D-18
  0.49762278D-18  0.30210464D-17  0.13104988D-16  0.88684284D-17  0.60628043D-02
  0.10877027D-16  0.18335085D-16 -0.90942064D-02 -0.50191990D-16 -0.44940371D-16
 -0.90942064D-02 -0.91443875D-18 -0.36929145D-19 -0.78117742D-18  0.55099143D-03
 -0.56254984D-18 -0.11162134D-17 -0.82648714D-03  0.67333728D-18  0.34597457D-17
 -0.82648714D-03 -0.33458883D-17
MO    4     MO 0.0        OCC NO =    2.0000000  ORB. ENERGY =   -0.554397
  0.47589589D-01  0.85829784D-01  0.12655597D+00  0.63484328D-01 -0.66430033D-02
 -0.23448015D-03  0.18338123D-15  0.64422039D-16 -0.35415659D-01 -0.44003287D-17
 -0.70512218D-16 -0.89468357D-02 -0.27319336D-17  0.15849150D-16  0.13175966D-02
 -0.50266109D-02 -0.50266109D-02  0.10053222D-01  0.91319443D-16 -0.34576025D-16
 -0.49757310D-16 -0.47596548D-03 -0.47596548D-03  0.95193095D-03  0.62346245D-17
  0.54710975D-17  0.86819944D-17 -0.56648210D-02 -0.10560514D-01 -0.17849130D-01
 -0.26833089D-01 -0.32967550D-01 -0.27846366D-01 -0.10502625D-01  0.51978076D-04
 -0.35227313D-01 -0.65956645D-01 -0.11229683D+00 -0.17370612D+00 -0.22876485D+00
 -0.23770134D+00 -0.15104853D+00  0.10122921D+00  0.46645317D-01  0.48218589D-01
  0.24379832D-02  0.36823318D-15  0.34524201D-15  0.24583288D-15 -0.14259270D-15
 -0.13368972D-15 -0.95195047D-16  0.43238861D+00  0.40539181D+00  0.28866312D+00
  0.14993139D-15 -0.41456180D-16  0.80408545D-01  0.14801598D-16 -0.29929650D-17
  0.11779256D-01 -0.39909453D-18 -0.30182524D-18  0.36924162D-04 -0.38163650D-02
 -0.38163650D-02  0.76327301D-02  0.16780116D-16  0.92744616D-16 -0.75707192D-16
 -0.28514889D-02 -0.28514889D-02  0.57029778D-02  0.24807364D-17  0.25003185D-16
  0.14438106D-16 -0.30044824D-03 -0.30044824D-03  0.60089647D-03 -0.55448564D-18
  0.23244123D-17 -0.23486167D-17 -0.17016753D-16  0.56166561D-17  0.15200456D-02
 -0.19857600D-16 -0.77903878D-18 -0.22800684D-02  0.70907860D-16 -0.16070929D-16
 -0.22800684D-02  0.90320316D-17 -0.18647643D-17 -0.84204087D-18  0.81949311D-03
 -0.22884790D-18 -0.62340970D-18 -0.12292397D-02  0.58231407D-17  0.31495323D-17
 -0.12292397D-02  0.11333327D-18  0.22003370D-02  0.41000041D-02  0.69341347D-02
  0.10442423D-01  0.12928397D-01  0.11001482D-01  0.41862669D-02 -0.19606074D-04
  0.25964471D-01  0.48683625D-01  0.82825331D-01  0.12861899D+00  0.17068489D+00
  0.17987844D+00  0.11153611D+00 -0.74193862D-01 -0.41477997D-01 -0.28018206D-01
 -0.12182968D-02  0.42867652D-16  0.41173868D-16  0.28873958D-16  0.12586466D-15
  0.12089150D-15  0.84777464D-16 -0.43448060D-01 -0.41731342D-01 -0.29264898D-01
 -0.18649007D-16  0.48998085D-16 -0.11684498D-01 -0.80958297D-17 -0.39573895D-17
 -0.26863201D-02  0.17699521D-17  0.68915843D-18  0.10352834D-03  0.53875041D-02
  0.53875041D-02 -0.10775008D-01 -0.10712977D-16  0.30609955D-16  0.37086000D-16
  0.51023358D-03  0.51023358D-03 -0.10204672D-02  0.16878275D-17 -0.19738355D-16
  0.29861654D-17  0.58486386D-04  0.58486386D-04 -0.11697277D-03 -0.62106055D-18
  0.76782483D-18 -0.15012539D-18  0.10557817D-16 -0.54625427D-17 -0.18525133D-02
  0.12448339D-16 -0.71860281D-17  0.27787700D-02 -0.44121790D-16  0.23573656D-16
  0.27787700D-02  0.34101817D-17  0.21768068D-18 -0.53969457D-18  0.12874962D-03
 -0.35366778D-18 -0.77639965D-18 -0.19312442D-03 -0.29937427D-18  0.23954834D-17
 -0.19312442D-03  0.98192961D-18
MO    5     MO 0.0        OCC NO =    2.0000000  ORB. ENERGY =   -0.335783
  0.13180835D-01  0.23772178D-01  0.35052063D-01  0.27752730D-01  0.63496271D-02
  0.24360123D-03 -0.10866455D-15 -0.17423568D-15 -0.76200447D-02  0.74875883D-17
 -0.99360004D-16 -0.16285545D-02  0.55027049D-16 -0.42901758D-16  0.14197082D-03
 -0.20125562D-02 -0.20125562D-02  0.40251124D-02 -0.32336604D-15 -0.24718208D-15
  0.11819878D-15 -0.24385588D-03 -0.24385588D-03  0.48771176D-03 -0.55104763D-16
 -0.21059858D-16 -0.59346235D-17  0.12146453D-02  0.22643750D-02  0.38271927D-02
  0.57535243D-02  0.70688694D-02  0.59707902D-02  0.22519624D-02 -0.11145088D-04
  0.20956724D-01  0.39237600D-01  0.66805371D-01  0.10333775D+00  0.13609218D+00
  0.14140849D+00  0.89858750D-01 -0.60221245D-01 -0.32858053D-01 -0.15084988D-01
 -0.28625417D-02 -0.66801844D-14 -0.62630975D-14 -0.44596985D-14 -0.14216035D-13
 -0.13328436D-13 -0.94906407D-14  0.32822594D+00  0.30773269D+00  0.21912400D+00
 -0.16324725D-14 -0.34320049D-14  0.57239066D-01 -0.18003130D-15 -0.33844935D-15
  0.35326826D-02  0.54880780D-17 -0.64326231D-17  0.12300166D-03  0.74642162D-02
  0.74642162D-02 -0.14928432D-01 -0.14421343D-16  0.69642744D-15  0.14056250D-14
 -0.18952688D-02 -0.18952688D-02  0.37905375D-02 -0.34749212D-16 -0.27550362D-16
  0.84022714D-16 -0.50951797D-04 -0.50951797D-04  0.10190359D-03 -0.10763657D-17
 -0.31036583D-16 -0.13878214D-16  0.88531083D-16  0.15571242D-15  0.41655213D-02
  0.88163655D-16  0.15943254D-15 -0.62482819D-02 -0.35375690D-15 -0.62656980D-15
 -0.62482819D-02 -0.31728138D-16  0.55823457D-17  0.31077807D-17 -0.73255694D-03
  0.58326027D-17  0.33244739D-17  0.10988354D-02 -0.22579640D-16 -0.12647816D-16
  0.10988354D-02  0.99239637D-17 -0.20218223D-02 -0.37673682D-02 -0.63715641D-02
 -0.95952225D-02 -0.11879508D-01 -0.10108925D-01 -0.38466325D-02  0.18015421D-04
 -0.43976055D-01 -0.82455514D-01 -0.14028136D+00 -0.21784214D+00 -0.28908920D+00
 -0.30466033D+00 -0.18890884D+00  0.12566223D+00  0.67900022D-01  0.71782222D-01
  0.10315723D-01 -0.10510170D-13 -0.10094893D-13 -0.70792359D-14 -0.24525738D-13
 -0.23556678D-13 -0.16519568D-13 -0.98117206D+00 -0.94240403D+00 -0.66087876D+00
 -0.24882798D-14 -0.58654226D-14 -0.21993159D+00 -0.40553795D-15 -0.89732180D-15
 -0.24570672D-01 -0.22791408D-16 -0.21003341D-16 -0.20453204D-03  0.29250802D-01
  0.29250802D-01 -0.58501605D-01  0.13986766D-16 -0.12733402D-14 -0.24010171D-14
  0.35555093D-02  0.35555093D-02 -0.71110186D-02 -0.90025866D-18 -0.29865954D-15
 -0.48069356D-15 -0.71785552D-04 -0.71785552D-04  0.14357110D-03  0.11526537D-16
 -0.35255684D-16 -0.36290983D-16  0.64583808D-16  0.14077962D-15 -0.28715174D-02
  0.65725517D-16  0.14469299D-15  0.43072760D-02 -0.25947694D-15 -0.56703185D-15
  0.43072760D-02 -0.67407120D-16  0.76723706D-17  0.52510402D-17 -0.12395954D-03
  0.62297927D-17  0.45115835D-17  0.18593931D-03 -0.29246904D-16 -0.20264704D-16
  0.18593931D-03  0.12924990D-16
MO    6     MO 0.0        OCC NO =    2.0000000  ORB. ENERGY =   -0.331392
 -0.95687315D-17 -0.17257601D-16 -0.25446323D-16 -0.15008509D-15 -0.10033590D-14
 -0.64930190D-16  0.88411734D-02 -0.30505451D-02 -0.22768470D-15  0.36451272D-02
 -0.12577092D-02  0.16749321D-15 -0.10593109D-02  0.36550304D-03 -0.12535322D-16
  0.30417684D-15  0.16001820D-15 -0.46419504D-15  0.36021457D-15 -0.65217643D-03
  0.22502597D-03  0.30440524D-16 -0.67300645D-16  0.36860121D-16  0.15525117D-16
  0.52151017D-03 -0.17994109D-03  0.18737646D-15  0.34931233D-15  0.59039938D-15
  0.88756365D-15  0.10904745D-14  0.92108004D-15  0.34739750D-15 -0.17192896D-17
 -0.25673075D-16 -0.48068096D-16 -0.81840047D-16 -0.12659411D-15 -0.16671999D-15
 -0.17323275D-15 -0.11008163D-15  0.73774151D-16 -0.23850925D-15  0.78337861D-15
  0.51489852D-15  0.48680069D+00  0.45640659D+00  0.32498868D+00 -0.16796498D+00
 -0.15747784D+00 -0.11213361D+00  0.64094223D-15  0.60092408D-15  0.42789374D-15
  0.11834544D+00 -0.40833732D-01 -0.11782724D-15  0.13610027D-01 -0.46959833D-02
  0.31077457D-15  0.67341617D-04 -0.23235450D-04  0.12927410D-17 -0.77850580D-16
 -0.23203082D-15  0.30988140D-15 -0.98497171D-16 -0.50422629D-01  0.17397748D-01
 -0.59059327D-16  0.72302503D-16 -0.13243176D-16 -0.55310426D-16 -0.42384798D-02
  0.14624387D-02 -0.15011184D-16 -0.38957123D-16  0.53968307D-16 -0.12095189D-16
  0.10820237D-02 -0.37333983D-03 -0.52144413D-02  0.17991830D-02 -0.21039569D-16
 -0.52144329D-02  0.17991801D-02  0.21787743D-15  0.20857757D-01 -0.71967289D-02
 -0.15475872D-15 -0.58901540D-15 -0.11712794D-03  0.40413650D-04  0.14294371D-16
 -0.11712838D-03  0.40413800D-04 -0.48713554D-16  0.46851221D-03 -0.16165475D-03
  0.58304407D-17  0.17301986D-15  0.54624437D-16  0.10178459D-15  0.17214327D-15
  0.25923822D-15  0.32095373D-15  0.27311714D-15  0.10392611D-15 -0.48673032D-18
 -0.11389927D-15 -0.21356220D-15 -0.36333284D-15 -0.56421753D-15 -0.74874948D-15
 -0.78907917D-15 -0.48927943D-15  0.32546886D-15  0.28284397D-16 -0.14702236D-15
 -0.29570962D-15  0.82928600D+00  0.79651929D+00  0.55857430D+00 -0.28613559D+00
 -0.27482981D+00 -0.19272964D+00 -0.32291305D-14 -0.31015413D-14 -0.21750148D-14
  0.19654424D+00 -0.67815330D-01 -0.84608268D-15  0.30472232D-01 -0.10514093D-01
 -0.22990782D-15  0.87679095D-03 -0.30252663D-03 -0.28461160D-17 -0.12624397D-15
  0.22726453D-15 -0.10102056D-15 -0.48326259D-15  0.90229030D-01 -0.31132488D-01
  0.45862649D-16  0.82708152D-16 -0.12857080D-15  0.53649574D-16  0.16874641D-01
 -0.58224006D-02 -0.70879581D-17  0.32970007D-16 -0.25882049D-16 -0.93828640D-17
  0.11838604D-02 -0.40847742D-03 -0.50858890D-02  0.17548275D-02 -0.19901029D-15
 -0.50859213D-02  0.17548386D-02  0.67833819D-15  0.20343588D-01 -0.70193211D-02
 -0.81307306D-16  0.25662560D-15 -0.94258286D-04  0.32522737D-04  0.00000000D+00
 -0.94256995D-04  0.32522291D-04 -0.68597770D-17  0.37703185D-03 -0.13009050D-03
  0.68597770D-17  0.13065292D-15
MO    7     MO 0.0        OCC NO =    2.0000000  ORB. ENERGY =   -0.331392
  0.37972044D-15  0.68484145D-15  0.10097983D-14 -0.85215402D-16 -0.64265470D-15
 -0.15053103D-16  0.30505451D-02  0.88411734D-02 -0.46000025D-16  0.12577092D-02
  0.36451272D-02  0.10885994D-15 -0.36550304D-03 -0.10593109D-02  0.14793894D-15
 -0.57414420D-15  0.49148461D-15  0.82659584D-16 -0.21695974D-16 -0.22502597D-03
 -0.65217643D-03 -0.35344691D-16 -0.25545448D-16  0.60890140D-16 -0.82508471D-16
  0.17994109D-03  0.52151017D-03 -0.13460497D-15 -0.25093427D-15 -0.42412311D-15
 -0.63759597D-15 -0.78336031D-15 -0.66167301D-15 -0.24955872D-15  0.12350800D-17
  0.73966799D-15  0.13848919D-14  0.23578969D-14  0.36473080D-14  0.48033763D-14
  0.49910156D-14  0.31715664D-14 -0.21255100D-14 -0.12360075D-14  0.10006857D-14
  0.10684452D-15  0.16796498D+00  0.15747784D+00  0.11213361D+00  0.48680069D+00
  0.45640659D+00  0.32498868D+00  0.10294645D-13  0.96518845D-14  0.68727167D-14
  0.40833732D-01  0.11834544D+00  0.19768945D-14  0.46959833D-02  0.13610027D-01
  0.36559651D-15  0.23235450D-04  0.67341617D-04 -0.91112105D-17  0.56678489D-15
  0.21200400D-15 -0.77878888D-15  0.78875952D-16 -0.17397748D-01 -0.50422629D-01
 -0.24214451D-15 -0.26192991D-15  0.50407441D-15  0.13678591D-15 -0.14624387D-02
 -0.42384798D-02 -0.12024364D-16 -0.13223886D-16  0.25248251D-16 -0.39797704D-17
  0.37333983D-03  0.10820237D-02 -0.17991830D-02 -0.52144413D-02  0.14751551D-15
 -0.17991801D-02 -0.52144329D-02 -0.31690686D-15  0.71967289D-02  0.20857757D-01
 -0.12563968D-15  0.15360536D-15 -0.40413650D-04 -0.11712794D-03  0.83144989D-17
 -0.40413800D-04 -0.11712838D-03  0.15794911D-16  0.16165475D-03  0.46851221D-03
 -0.40738408D-16  0.91583959D-17 -0.20918292D-15 -0.38978158D-15 -0.65921836D-15
 -0.99274633D-15 -0.12290844D-14 -0.10458953D-14 -0.39798246D-15  0.18639217D-17
 -0.13056485D-14 -0.24481031D-14 -0.41649518D-14 -0.64677303D-14 -0.85830543D-14
 -0.90453611D-14 -0.56087009D-14  0.37309100D-14  0.20709529D-14  0.19045128D-14
  0.13927924D-15  0.28613559D+00  0.27482981D+00  0.19272964D+00  0.82928600D+00
  0.79651929D+00  0.55857430D+00 -0.29428527D-13 -0.28265748D-13 -0.19821894D-13
  0.67815330D-01  0.19654424D+00 -0.69339768D-14  0.10514093D-01  0.30472232D-01
 -0.74199892D-15  0.30252663D-03  0.87679095D-03 -0.10849661D-16  0.88746998D-15
  0.11304273D-14 -0.20178972D-14  0.70432012D-16  0.31132488D-01  0.90229030D-01
  0.88436075D-16 -0.65643937D-16 -0.22792139D-16  0.38109346D-16  0.58224006D-02
  0.16874641D-01  0.45122840D-17 -0.41357299D-17 -0.37655403D-18  0.19497658D-16
  0.40847742D-03  0.11838604D-02 -0.17548275D-02 -0.50858890D-02 -0.42800280D-16
 -0.17548386D-02 -0.50859213D-02  0.19770707D-15  0.70193211D-02  0.20343588D-01
 -0.69306234D-16 -0.42120662D-16 -0.32522737D-04 -0.94258286D-04  0.35271656D-16
 -0.32522291D-04 -0.94256995D-04 -0.30807342D-16  0.13009050D-03  0.37703185D-03
 -0.75007628D-16  0.41060597D-16
END DATA
RHF
