 Molden2AIM, Version 4.0.0 (06/02/2016)           Time: Fri Jun 29 04:19:05 2018
GAUSSIAN             12 MOL ORBITALS    252 PRIMITIVES        4 NUCLEI
  C    1    (CENTRE  1)   0.00186327  0.00000000  0.00694096  CHARGE =  6.0
  O    2    (CENTRE  2)  -0.00431991  0.00000000  2.23803100  CHARGE =  8.0
  H    3    (CENTRE  3)   1.64541666  0.00000000 -1.27248866  CHARGE =  1.0
  F    4    (CENTRE  4)  -2.13940808  0.00000000 -1.37522173  CHARGE =  9.0
CENTRE ASSIGNMENTS    1  1  1  1  1  1  1  1  1  1  1  1  1  1  1  1  1  1  1  1
CENTRE ASSIGNMENTS    1  1  1  1  1  1  1  1  1  1  1  1  1  1  1  1  1  1  1  1
CENTRE ASSIGNMENTS    1  1  1  1  1  1  1  1  1  1  1  1  1  1  1  1  1  1  1  1
CENTRE ASSIGNMENTS    1  1  1  1  1  1  1  1  1  1  1  1  1  1  1  2  2  2  2  2
CENTRE ASSIGNMENTS    2  2  2  2  2  2  2  2  2  2  2  2  2  2  2  2  2  2  2  2
CENTRE ASSIGNMENTS    2  2  2  2  2  2  2  2  2  2  2  2  2  2  2  2  2  2  2  2
CENTRE ASSIGNMENTS    2  2  2  2  2  2  2  2  2  2  2  2  2  2  2  2  2  2  2  2
CENTRE ASSIGNMENTS    2  2  2  2  2  2  2  2  2  2  3  3  3  3  3  3  3  3  3  3
CENTRE ASSIGNMENTS    3  3  3  3  3  3  3  3  3  3  3  3  3  3  3  3  3  4  4  4
CENTRE ASSIGNMENTS    4  4  4  4  4  4  4  4  4  4  4  4  4  4  4  4  4  4  4  4
CENTRE ASSIGNMENTS    4  4  4  4  4  4  4  4  4  4  4  4  4  4  4  4  4  4  4  4
CENTRE ASSIGNMENTS    4  4  4  4  4  4  4  4  4  4  4  4  4  4  4  4  4  4  4  4
CENTRE ASSIGNMENTS    4  4  4  4  4  4  4  4  4  4  4  4
TYPE ASSIGNMENTS      1  1  1  1  1  1  1  1  1  1  1  1  1  1  1  1  1  1  1  2
TYPE ASSIGNMENTS      2  2  3  3  3  4  4  4  2  3  4  2  3  4  2  3  4  5  6  7
TYPE ASSIGNMENTS      8  9 10  5  6  7  8  9 10  5  6  7  8  9 10 11 12 13 17 14
TYPE ASSIGNMENTS     15 18 19 16 20 11 12 13 17 14 15 18 19 16 20  1  1  1  1  1
TYPE ASSIGNMENTS      1  1  1  1  1  1  1  1  1  1  1  1  1  1  2  2  2  3  3  3
TYPE ASSIGNMENTS      4  4  4  2  3  4  2  3  4  2  3  4  5  6  7  8  9 10  5  6
TYPE ASSIGNMENTS      7  8  9 10  5  6  7  8  9 10 11 12 13 17 14 15 18 19 16 20
TYPE ASSIGNMENTS     11 12 13 17 14 15 18 19 16 20  1  1  1  1  1  1  2  3  4  2
TYPE ASSIGNMENTS      3  4  2  3  4  5  6  7  8  9 10  5  6  7  8  9 10  1  1  1
TYPE ASSIGNMENTS      1  1  1  1  1  1  1  1  1  1  1  1  1  1  1  1  2  2  2  3
TYPE ASSIGNMENTS      3  3  4  4  4  2  3  4  2  3  4  2  3  4  5  6  7  8  9 10
TYPE ASSIGNMENTS      5  6  7  8  9 10  5  6  7  8  9 10 11 12 13 17 14 15 18 19
TYPE ASSIGNMENTS     16 20 11 12 13 17 14 15 18 19 16 20
EXPONENTS  0.8236000D+04 0.1235000D+04 0.2808000D+03 0.7927000D+02 0.2559000D+02
EXPONENTS  0.8997000D+01 0.3319000D+01 0.3643000D+00 0.8236000D+04 0.1235000D+04
EXPONENTS  0.2808000D+03 0.7927000D+02 0.2559000D+02 0.8997000D+01 0.3319000D+01
EXPONENTS  0.3643000D+00 0.9059000D+00 0.1285000D+00 0.4402000D-01 0.1871000D+02
EXPONENTS  0.4133000D+01 0.1200000D+01 0.1871000D+02 0.4133000D+01 0.1200000D+01
EXPONENTS  0.1871000D+02 0.4133000D+01 0.1200000D+01 0.3827000D+00 0.3827000D+00
EXPONENTS  0.3827000D+00 0.1209000D+00 0.1209000D+00 0.1209000D+00 0.3569000D-01
EXPONENTS  0.3569000D-01 0.3569000D-01 0.1097000D+01 0.1097000D+01 0.1097000D+01
EXPONENTS  0.1097000D+01 0.1097000D+01 0.1097000D+01 0.3180000D+00 0.3180000D+00
EXPONENTS  0.3180000D+00 0.3180000D+00 0.3180000D+00 0.3180000D+00 0.1000000D+00
EXPONENTS  0.1000000D+00 0.1000000D+00 0.1000000D+00 0.1000000D+00 0.1000000D+00
EXPONENTS  0.7610000D+00 0.7610000D+00 0.7610000D+00 0.7610000D+00 0.7610000D+00
EXPONENTS  0.7610000D+00 0.7610000D+00 0.7610000D+00 0.7610000D+00 0.7610000D+00
EXPONENTS  0.2680000D+00 0.2680000D+00 0.2680000D+00 0.2680000D+00 0.2680000D+00
EXPONENTS  0.2680000D+00 0.2680000D+00 0.2680000D+00 0.2680000D+00 0.2680000D+00
EXPONENTS  0.1533000D+05 0.2299000D+04 0.5224000D+03 0.1473000D+03 0.4755000D+02
EXPONENTS  0.1676000D+02 0.6207000D+01 0.6882000D+00 0.1533000D+05 0.2299000D+04
EXPONENTS  0.5224000D+03 0.1473000D+03 0.4755000D+02 0.1676000D+02 0.6207000D+01
EXPONENTS  0.6882000D+00 0.1752000D+01 0.2384000D+00 0.7376000D-01 0.3446000D+02
EXPONENTS  0.7749000D+01 0.2280000D+01 0.3446000D+02 0.7749000D+01 0.2280000D+01
EXPONENTS  0.3446000D+02 0.7749000D+01 0.2280000D+01 0.7156000D+00 0.7156000D+00
EXPONENTS  0.7156000D+00 0.2140000D+00 0.2140000D+00 0.2140000D+00 0.5974000D-01
EXPONENTS  0.5974000D-01 0.5974000D-01 0.2314000D+01 0.2314000D+01 0.2314000D+01
EXPONENTS  0.2314000D+01 0.2314000D+01 0.2314000D+01 0.6450000D+00 0.6450000D+00
EXPONENTS  0.6450000D+00 0.6450000D+00 0.6450000D+00 0.6450000D+00 0.2140000D+00
EXPONENTS  0.2140000D+00 0.2140000D+00 0.2140000D+00 0.2140000D+00 0.2140000D+00
EXPONENTS  0.1428000D+01 0.1428000D+01 0.1428000D+01 0.1428000D+01 0.1428000D+01
EXPONENTS  0.1428000D+01 0.1428000D+01 0.1428000D+01 0.1428000D+01 0.1428000D+01
EXPONENTS  0.5000000D+00 0.5000000D+00 0.5000000D+00 0.5000000D+00 0.5000000D+00
EXPONENTS  0.5000000D+00 0.5000000D+00 0.5000000D+00 0.5000000D+00 0.5000000D+00
EXPONENTS  0.3387000D+02 0.5095000D+01 0.1159000D+01 0.3258000D+00 0.1027000D+00
EXPONENTS  0.2526000D-01 0.1407000D+01 0.1407000D+01 0.1407000D+01 0.3880000D+00
EXPONENTS  0.3880000D+00 0.3880000D+00 0.1020000D+00 0.1020000D+00 0.1020000D+00
EXPONENTS  0.1057000D+01 0.1057000D+01 0.1057000D+01 0.1057000D+01 0.1057000D+01
EXPONENTS  0.1057000D+01 0.2470000D+00 0.2470000D+00 0.2470000D+00 0.2470000D+00
EXPONENTS  0.2470000D+00 0.2470000D+00 0.1950000D+05 0.2923000D+04 0.6645000D+03
EXPONENTS  0.1875000D+03 0.6062000D+02 0.2142000D+02 0.7950000D+01 0.8815000D+00
EXPONENTS  0.1950000D+05 0.2923000D+04 0.6645000D+03 0.1875000D+03 0.6062000D+02
EXPONENTS  0.2142000D+02 0.7950000D+01 0.8815000D+00 0.2257000D+01 0.3041000D+00
EXPONENTS  0.9158000D-01 0.4388000D+02 0.9926000D+01 0.2930000D+01 0.4388000D+02
EXPONENTS  0.9926000D+01 0.2930000D+01 0.4388000D+02 0.9926000D+01 0.2930000D+01
EXPONENTS  0.9132000D+00 0.9132000D+00 0.9132000D+00 0.2672000D+00 0.2672000D+00
EXPONENTS  0.2672000D+00 0.7361000D-01 0.7361000D-01 0.7361000D-01 0.3107000D+01
EXPONENTS  0.3107000D+01 0.3107000D+01 0.3107000D+01 0.3107000D+01 0.3107000D+01
EXPONENTS  0.8550000D+00 0.8550000D+00 0.8550000D+00 0.8550000D+00 0.8550000D+00
EXPONENTS  0.8550000D+00 0.2920000D+00 0.2920000D+00 0.2920000D+00 0.2920000D+00
EXPONENTS  0.2920000D+00 0.2920000D+00 0.1917000D+01 0.1917000D+01 0.1917000D+01
EXPONENTS  0.1917000D+01 0.1917000D+01 0.1917000D+01 0.1917000D+01 0.1917000D+01
EXPONENTS  0.1917000D+01 0.1917000D+01 0.7240000D+00 0.7240000D+00 0.7240000D+00
EXPONENTS  0.7240000D+00 0.7240000D+00 0.7240000D+00 0.7240000D+00 0.7240000D+00
EXPONENTS  0.7240000D+00 0.7240000D+00
MO    1     MO 0.0        OCC NO =    2.0000000  ORB. ENERGY =  -24.307708
  0.21061036D-03  0.39262559D-03  0.66360641D-03  0.99761781D-03  0.12256887D-02
  0.10352901D-02  0.39047333D-03 -0.19324743D-05 -0.14585276D-03 -0.27308239D-03
 -0.46494613D-03 -0.71920096D-03 -0.94716237D-03 -0.98416237D-03 -0.62539101D-03
  0.41912251D-03 -0.40135747D-03  0.72954729D-03  0.15748053D-03  0.56306983D-03
  0.52791376D-03  0.37590605D-03 -0.12283321D-15 -0.11516394D-15 -0.82003585D-16
  0.27608126D-03  0.25884373D-03  0.18431216D-03 -0.18756697D-02  0.78998381D-18
 -0.99299679D-03 -0.69174351D-04 -0.33636425D-20 -0.68173100D-04 -0.35993366D-06
  0.12815670D-19 -0.68450103D-05  0.62028191D-03 -0.43882730D-03 -0.18145462D-03
 -0.66382649D-18  0.14663649D-02 -0.11256598D-17  0.25084607D-03 -0.17782158D-03
 -0.73024484D-04  0.10398505D-17  0.72658822D-03  0.26256742D-18 -0.38345728D-05
 -0.88592523D-05  0.12693825D-04  0.39029276D-19 -0.85653727D-05  0.68486556D-19
 -0.45178705D-04  0.10669452D-18  0.10973396D-03  0.69524287D-03 -0.11035518D-18
 -0.73641189D-03 -0.55970675D-03 -0.20972838D-18  0.40721001D-03 -0.45150900D-18
 -0.40128340D-04 -0.18920502D-19  0.24741916D-04  0.77090651D-05  0.54114685D-19
 -0.62636610D-04  0.11267595D-03  0.26468215D-20 -0.11589140D-04 -0.40974667D-18
 -0.86892374D-05 -0.16195621D-04 -0.27462406D-04 -0.41565631D-04 -0.51861771D-04
 -0.44542345D-04 -0.17100672D-04  0.76492357D-07  0.75665335D-05  0.14191221D-04
  0.24192921D-04  0.37808826D-04  0.50557604D-04  0.53983735D-04  0.33004597D-04
 -0.21774428D-04 -0.52659754D-04  0.10571644D-03 -0.33191096D-04  0.50164015D-04
  0.48642221D-04  0.32813755D-04 -0.22927918D-19 -0.22232368D-19 -0.14997824D-19
  0.19683212D-03  0.19086095D-03  0.12875367D-03 -0.83466909D-04  0.31444613D-19
 -0.18583830D-03 -0.15663914D-03 -0.29822233D-18 -0.21364666D-03  0.99562428D-06
 -0.45960859D-19 -0.22720394D-05  0.11655827D-03 -0.11928045D-04 -0.10463023D-03
 -0.12824871D-18  0.30045356D-03  0.13099574D-18 -0.59879664D-04 -0.49610505D-04
  0.10949017D-03  0.83060071D-19 -0.21393481D-03 -0.55940369D-19 -0.22516712D-04
 -0.27013674D-04  0.49530387D-04  0.38412044D-19  0.59722050D-04  0.11472863D-18
 -0.13272717D-04 -0.25748916D-18  0.35639601D-04  0.30619677D-04 -0.15845521D-18
 -0.24180397D-03  0.91984729D-05  0.93092270D-18  0.13488517D-03 -0.77503301D-19
 -0.25124534D-04 -0.73674325D-19 -0.24254998D-04 -0.70519254D-04 -0.11481784D-18
  0.48011445D-04  0.14589286D-03  0.33584082D-18  0.24753550D-04 -0.73034069D-20
 -0.67789802D-05 -0.12226170D-04 -0.18027481D-04  0.30292199D-03 -0.10751087D-03
 -0.22531984D-04 -0.75011012D-04  0.52423911D-18 -0.35053492D-04 -0.24601369D-03
 -0.10513158D-17  0.29311566D-03 -0.63488538D-05 -0.81319954D-19  0.19089229D-04
  0.12141213D-04 -0.65185759D-04  0.53044546D-04  0.58475975D-18 -0.25891302D-03
 -0.36568117D-18  0.17368507D-04 -0.26504579D-04  0.91360723D-05  0.11400360D-18
 -0.48348135D-04 -0.33814315D-18  0.59301433D+00  0.11054044D+01  0.18739322D+01
  0.28376857D+01  0.35485359D+01  0.30549588D+01  0.11744377D+01 -0.50890308D-02
  0.83057548D-03  0.15596736D-02  0.26558552D-02  0.41603815D-02  0.55754007D-02
  0.59970952D-02  0.36006481D-02 -0.23679376D-02  0.67395306D-01 -0.62832186D-03
 -0.54483113D-03  0.60552755D-02  0.59219272D-02  0.39128677D-02  0.14754118D-16
  0.14429205D-16  0.95339857D-17  0.38849299D-02  0.37993766D-02  0.25104087D-02
 -0.12900518D-02 -0.13720051D-17 -0.84944956D-03 -0.90665734D-03  0.75230672D-18
 -0.76359267D-03 -0.43956481D-04  0.18662637D-19 -0.18523726D-04  0.16375554D-02
 -0.12767458D-02 -0.36080956D-03 -0.71860297D-17  0.44032069D-02 -0.95687725D-17
 -0.61741524D-03  0.53052556D-03  0.86889684D-04  0.14512381D-18 -0.15605264D-02
  0.10764777D-17 -0.10692711D-03  0.13087419D-03 -0.23947082D-04  0.50908096D-18
 -0.39586888D-03  0.67833424D-19 -0.11740108D-04 -0.80308620D-18 -0.15417900D-03
 -0.23449443D-03  0.13439409D-17  0.58918919D-03  0.26971476D-03  0.10653177D-17
 -0.12665219D-03 -0.25480861D-17 -0.73770789D-04  0.13332567D-18  0.17177657D-03
  0.45112933D-03 -0.24459327D-18 -0.79033677D-03 -0.22981697D-03 -0.15538375D-18
  0.27500705D-03  0.11305356D-17
MO    2     MO 0.0        OCC NO =    2.0000000  ORB. ENERGY =  -18.796669
  0.36534885D-03  0.68109332D-03  0.11511677D-02  0.17305821D-02  0.21262201D-02
  0.17959328D-02  0.67735977D-03 -0.33522913D-05 -0.29561933D-03 -0.55349265D-03
 -0.94236860D-03 -0.14577009D-02 -0.19197408D-02 -0.19947337D-02 -0.12675637D-02
  0.84949173D-03  0.17527525D-02 -0.20959380D-02 -0.84021137D-04 -0.37295036D-04
 -0.34966467D-04 -0.24898207D-04  0.23458285D-15  0.21993633D-15  0.15660777D-15
  0.15755670D-02  0.14771942D-02  0.10518503D-02 -0.78027140D-04  0.19502075D-17
  0.49642958D-03 -0.62996303D-04  0.37623678D-19 -0.21842689D-03  0.49966758D-06
 -0.23793853D-19  0.38402086D-05 -0.17855321D-03 -0.17100053D-03  0.34955374D-03
  0.14481204D-17  0.37499059D-04  0.28080451D-17  0.26809666D-03  0.67027106D-03
 -0.93836772D-03 -0.21310671D-17 -0.12938097D-03 -0.63107742D-18  0.79832310D-04
  0.34109782D-04 -0.11394209D-03 -0.72109999D-19  0.32805902D-04 -0.15044727D-18
 -0.12073766D-03 -0.25027701D-18 -0.11128588D-02  0.24084024D-04  0.13587305D-18
  0.23409283D-02  0.33812896D-03  0.61495799D-18  0.99764820D-03  0.91699190D-18
 -0.63743259D-04  0.45758458D-19 -0.17406965D-03  0.27997421D-04 -0.65054527D-19
  0.50599280D-03  0.16323236D-03 -0.72220846D-19  0.16216155D-04  0.88924915D-18
  0.49666521D+00  0.92572004D+00  0.15697145D+01  0.23758360D+01  0.29643496D+01
  0.25459810D+01  0.97745160D+00 -0.43722010D-02 -0.40351141D-05 -0.75679565D-05
 -0.12901707D-04 -0.20162856D-04 -0.26961581D-04 -0.28788683D-04 -0.17600836D-04
  0.11611963D-04  0.56613234D-01  0.19480624D-02  0.13582109D-03 -0.97816725D-04
 -0.94849319D-04 -0.63984790D-04  0.74115294D-17  0.71866904D-17  0.48480989D-17
 -0.72974169D-02 -0.70760397D-02 -0.47734546D-02 -0.11696111D-03 -0.17473383D-19
 -0.12282035D-02 -0.10182178D-03  0.68138352D-18  0.84894268D-03 -0.12713917D-04
  0.10059195D-18  0.16911134D-04 -0.20161757D-02 -0.18562651D-02  0.38724408D-02
 -0.57083785D-18  0.16938659D-03 -0.13802649D-17  0.15293594D-03  0.48195698D-03
 -0.63489291D-03 -0.10606983D-18  0.49163242D-04 -0.14084956D-19  0.73093932D-04
  0.21650177D-03 -0.28959570D-03 -0.11929330D-18  0.89525184D-05 -0.22071769D-18
  0.29426757D-04  0.31659613D-18 -0.51698563D-03  0.11595309D-03  0.21793384D-18
  0.62394871D-03 -0.20423336D-03 -0.11677222D-17  0.92700819D-03 -0.64688554D-18
  0.62285627D-05  0.22415389D-18  0.30336590D-03 -0.40932940D-04  0.26884292D-18
 -0.23047639D-03  0.22247252D-04 -0.94130460D-18 -0.67962131D-03  0.12543469D-18
  0.94835447D-04  0.17103963D-03  0.25219784D-03  0.13111337D-02  0.39286095D-03
  0.86106917D-05 -0.42284489D-03 -0.10189471D-17  0.54628992D-03 -0.83845191D-04
  0.21331376D-17  0.36083097D-03 -0.15411880D-03  0.16066740D-18 -0.10743843D-03
 -0.30115938D-03  0.21744644D-03  0.83712937D-04 -0.12530463D-17 -0.52962993D-03
  0.83517526D-18  0.13183199D-04  0.26727482D-04 -0.39910681D-04 -0.25282769D-18
  0.35274858D-04  0.66671594D-18  0.18798019D-03  0.35040322D-03  0.59401960D-03
  0.89952074D-03  0.11248538D-02  0.96839438D-03  0.37228615D-03 -0.16131769D-05
 -0.12238710D-03 -0.22982129D-03 -0.39134603D-03 -0.61304123D-03 -0.82154737D-03
 -0.88368497D-03 -0.53056330D-03  0.34892075D-03 -0.23765588D-03  0.10916463D-02
 -0.58883440D-04 -0.68062125D-03 -0.66563272D-03 -0.43981168D-03  0.26893036D-18
  0.26300802D-18  0.17378052D-18 -0.44725767D-03 -0.43740823D-03 -0.28901411D-03
  0.77382459D-03  0.28557725D-18  0.57086550D-03  0.64036969D-03 -0.13236073D-17
 -0.21177933D-03  0.19600978D-04 -0.59706276D-19 -0.48504460D-04 -0.36302557D-03
 -0.38381684D-03  0.74684241D-03 -0.78999613D-18 -0.19343559D-04  0.24909390D-17
  0.37761123D-03 -0.48889859D-04 -0.32872137D-03  0.54473930D-18  0.48317521D-03
 -0.10766536D-17  0.13927367D-03  0.35837077D-04 -0.17511075D-03 -0.11598981D-17
 -0.32198120D-04 -0.24910546D-18 -0.14056743D-04  0.17867751D-17  0.35708861D-03
 -0.13766084D-02 -0.38740817D-17 -0.33499857D-03  0.14187786D-02 -0.14862434D-17
 -0.73626726D-03  0.41059353D-17  0.52988334D-04 -0.38704786D-18 -0.24050315D-03
  0.33304314D-03  0.89671852D-18  0.50029450D-03 -0.49200814D-03  0.26442506D-18
  0.22121496D-03 -0.21613375D-17
MO    3     MO 0.0        OCC NO =    2.0000000  ORB. ENERGY =  -10.058666
  0.32988653D+00  0.61498349D+00  0.10394304D+01  0.15626044D+01  0.19198401D+01
  0.16216119D+01  0.61161233D+00 -0.30269036D-02 -0.35063508D-02 -0.65649951D-02
 -0.11177466D-01 -0.17289840D-01 -0.22770111D-01 -0.23659604D-01 -0.15034616D-01
  0.10075850D-01  0.37108764D-01  0.53642990D-02  0.51174330D-03 -0.32743435D-02
 -0.30699052D-02 -0.21859554D-02 -0.26361939D-16 -0.24715993D-16 -0.17599260D-16
  0.10186782D-02  0.95507553D-03  0.68007068D-03  0.31032751D-02  0.78269866D-17
  0.33540999D-02  0.11971954D-02  0.11377429D-17 -0.90473961D-03  0.11933313D-04
  0.22467450D-19  0.83120585D-05  0.30146764D-03 -0.64125315D-02  0.61110639D-02
 -0.18916018D-18 -0.78080596D-03  0.50177299D-17 -0.16458403D-03  0.20002610D-04
  0.14458143D-03 -0.39614907D-18 -0.15999310D-02  0.11939564D-17  0.13647809D-03
  0.23873269D-04 -0.16035136D-03 -0.22413416D-19 -0.91561724D-04  0.11647774D-18
 -0.21908842D-03 -0.10585662D-17  0.20024619D-02 -0.63786477D-03  0.22613673D-18
 -0.50443505D-02  0.12951300D-02  0.29495619D-17 -0.96303527D-03  0.50660609D-18
  0.15869525D-03 -0.24870612D-18 -0.34822100D-03 -0.15273484D-03  0.26547631D-18
  0.87379608D-03 -0.32335092D-03  0.48064205D-18  0.17086691D-03  0.72416088D-19
  0.41990877D-03  0.78265591D-03  0.13271251D-02  0.20086657D-02  0.25062283D-02
  0.21525158D-02  0.82639269D-03 -0.36965052D-05 -0.38661340D-03 -0.72510301D-03
 -0.12361417D-02 -0.19318488D-02 -0.25832500D-02 -0.27583087D-02 -0.16863759D-02
  0.11125684D-02  0.13291290D-02 -0.34821304D-02 -0.60858750D-03 -0.26451204D-03
 -0.25648770D-03 -0.17302509D-03  0.14503622D-17  0.14063635D-17  0.94872451D-18
 -0.43813205D-02 -0.42484071D-02 -0.28659504D-02  0.35078836D-03 -0.13566560D-17
  0.48085907D-02  0.27774143D-03 -0.26189508D-17  0.42191501D-02  0.72458953D-05
 -0.11194288D-18  0.71560954D-04 -0.67358156D-03 -0.59843594D-03  0.12720175D-02
  0.45030878D-19 -0.10429889D-03 -0.41243758D-17  0.21253078D-02  0.20331625D-02
 -0.41584704D-02 -0.35816920D-19  0.32994616D-03  0.40143681D-17  0.29270994D-03
  0.51367148D-03 -0.80638141D-03  0.33926947D-19 -0.89845785D-04  0.12574265D-17
  0.23608439D-03 -0.39078673D-18  0.15190424D-02 -0.10239014D-03  0.55027584D-18
 -0.30187100D-02 -0.60586303D-03  0.62208436D-18 -0.15384172D-02  0.33043270D-19
  0.13276557D-04  0.58395763D-18  0.81814996D-03  0.18672139D-03  0.17209366D-18
 -0.11654371D-02 -0.22655106D-03 -0.19239666D-17 -0.12890128D-02 -0.38217395D-19
  0.19115595D-03  0.34475763D-03  0.50834493D-03 -0.36004495D-02 -0.40368376D-02
 -0.82697927D-04  0.17950245D-02  0.79886385D-18 -0.17112812D-02  0.31022781D-02
 -0.17407010D-17 -0.25616254D-02  0.45397655D-03 -0.15181701D-18 -0.69508321D-03
 -0.13629578D-02  0.19359231D-02 -0.57296526D-03  0.14573774D-17  0.63385044D-02
 -0.45545622D-18 -0.15083746D-03  0.27735042D-03 -0.12651296D-03  0.39532466D-18
  0.35739712D-03 -0.36170601D-18  0.46164431D-03  0.86052499D-03  0.14588014D-02
  0.22090553D-02  0.27624314D-02  0.23781961D-02  0.91426540D-03 -0.39616616D-05
 -0.34820714D-03 -0.65387133D-03 -0.11134301D-02 -0.17441817D-02 -0.23374087D-02
 -0.25141982D-02 -0.15095213D-02  0.99272470D-03  0.23830153D-03  0.10904020D-02
 -0.18136552D-03  0.92169144D-03  0.90139409D-03  0.59558919D-03 -0.21033986D-18
 -0.20570779D-18 -0.13591983D-18  0.61300395D-03  0.59950447D-03  0.39611795D-03
  0.52536310D-03  0.42745379D-18  0.34375655D-03 -0.48581544D-03 -0.14642813D-17
  0.37102079D-03  0.34913097D-04 -0.46146319D-19 -0.11281002D-03  0.16036933D-02
 -0.16820340D-02  0.78340714D-04  0.14673893D-17  0.49540973D-02  0.15190891D-18
 -0.69081281D-03  0.81075074D-03 -0.11993793D-03 -0.77364911D-18 -0.23561830D-02
 -0.15614441D-18 -0.32059826D-03  0.18962410D-03  0.13097417D-03 -0.98703281D-18
 -0.14267746D-03 -0.70407029D-18  0.21398031D-03 -0.13413562D-17 -0.33662427D-03
 -0.11835875D-02  0.31354061D-17  0.19049016D-02  0.54164656D-03  0.88866257D-18
 -0.89502879D-03  0.34464558D-17 -0.14284701D-03  0.67505512D-18  0.52960573D-03
  0.14971255D-02 -0.16495360D-17 -0.26864120D-02 -0.10685844D-02 -0.37562933D-18
  0.10975948D-02 -0.20797844D-17
MO    4     MO 0.0        OCC NO =    2.0000000  ORB. ENERGY =   -1.165482
 -0.57928411D-02 -0.10799173D-01 -0.18252505D-01 -0.27439493D-01 -0.33712588D-01
 -0.28475670D-01 -0.10739975D-01  0.53152735D-04 -0.19071692D-01 -0.35708225D-01
 -0.60796308D-01 -0.94042645D-01 -0.12385085D+00 -0.12868897D+00 -0.81776064D-01
  0.54804417D-01  0.26092137D-01  0.83773433D-02 -0.33325812D-04 -0.12097021D+00
 -0.11341726D+00 -0.80759849D-01  0.57770339D-15  0.54163365D-15  0.38567542D-15
 -0.41170655D-01 -0.38600106D-01 -0.27485575D-01 -0.17971361D-01  0.13850447D-15
 -0.86716499D-02  0.16176555D-02  0.29971478D-16 -0.10433927D-03 -0.10829818D-04
 -0.42022512D-18  0.81653570D-05  0.10750477D-01 -0.16040155D-01  0.52896779D-02
  0.31696362D-15  0.27272743D-01  0.49738384D-16  0.18172240D-02 -0.29797074D-02
  0.11624833D-02 -0.85393197D-17  0.38095463D-02  0.11197054D-16 -0.17596251D-03
  0.57994787D-04  0.11796772D-03  0.26666587D-17 -0.33097394D-03  0.18054693D-17
 -0.45508258D-03  0.37980828D-17  0.32783616D-02  0.33111204D-02 -0.11198826D-16
 -0.11345301D-01 -0.19458727D-02 -0.19542203D-18  0.15102164D-02 -0.17646101D-16
  0.10724922D-03  0.76882560D-18  0.46916571D-03  0.23624587D-03  0.24137689D-17
 -0.18161967D-02 -0.55799353D-03 -0.47202457D-17  0.40869956D-03  0.10170084D-16
 -0.26003983D-02 -0.48468078D-02 -0.82185801D-02 -0.12439204D-01 -0.15520495D-01
 -0.13330035D-01 -0.51176596D-02  0.22891605D-04 -0.13823273D-01 -0.25925890D-01
 -0.44197959D-01 -0.69072807D-01 -0.92363504D-01 -0.98622689D-01 -0.60295978D-01
  0.39779624D-01  0.21995214D-01  0.34067408D-02 -0.11744179D-02 -0.23959291D-01
 -0.23232453D-01 -0.15672475D-01  0.38538401D-15  0.37369286D-15  0.25209099D-15
 -0.10646529D+00 -0.10323551D+00 -0.69642068D-01 -0.57225370D-02  0.10253036D-15
 -0.20547669D-01 -0.33606317D-03  0.29917547D-17  0.61855721D-03  0.15249996D-03
 -0.13860005D-18  0.15368659D-03 -0.63988071D-02 -0.48313596D-02  0.11230167D-01
 -0.42398916D-17  0.80816940D-02 -0.13122461D-15 -0.53089812D-03 -0.14144420D-02
  0.19453401D-02  0.16204858D-17  0.29572285D-02 -0.33834928D-16  0.46982550D-03
 -0.32533919D-04 -0.43729158D-03 -0.57445059D-17  0.40785671D-04  0.54841964D-18
  0.12237750D-02 -0.19646462D-16 -0.28798346D-02  0.20346682D-02 -0.21748235D-16
  0.34870382D-02 -0.57059934D-02  0.80687620D-16  0.51524657D-02 -0.21061775D-16
  0.16926313D-03  0.23801582D-17  0.20452061D-03 -0.26077312D-03  0.33637062D-17
 -0.79537569D-03 -0.24701628D-03 -0.10504181D-16  0.18181388D-03  0.78933888D-17
  0.23792902D-02  0.42911479D-02  0.63272951D-02 -0.37216449D-02 -0.40127687D-02
 -0.73321645D-05 -0.21349939D-02 -0.53299084D-17 -0.60456338D-03  0.13198819D-02
  0.20514788D-16 -0.36437531D-02  0.93124176D-03  0.13900454D-17 -0.22910863D-03
  0.13189683D-02  0.10236557D-03 -0.14213339D-02  0.74417991D-17  0.24948280D-02
  0.15538101D-16 -0.27882249D-03  0.18366770D-03  0.95154793D-04 -0.90143078D-17
  0.72520792D-03 -0.65648050D-17 -0.87906276D-02 -0.16386111D-01 -0.27778486D-01
 -0.42064815D-01 -0.52602198D-01 -0.45285593D-01 -0.17409435D-01  0.75437933D-04
 -0.11746600D+00 -0.22058034D+00 -0.37561027D+00 -0.58839127D+00 -0.78851352D+00
 -0.84815261D+00 -0.50922971D+00  0.33489088D+00  0.20118143D+00  0.88851199D-01
  0.43598010D-02  0.32565358D+00  0.31848208D+00  0.21043458D+00  0.47134845D-15
  0.46096849D-15  0.30458137D-15  0.21095307D+00  0.20630749D+00  0.13631608D+00
  0.75093135D-01  0.11515846D-15  0.48619405D-01  0.73014720D-02  0.47205095D-17
  0.53326711D-02  0.17223496D-03  0.35403836D-17  0.18190619D-03  0.18682276D-01
 -0.14775605D-01 -0.39066712D-02 -0.60589155D-16  0.49194491D-01 -0.20491442D-16
  0.85379580D-02 -0.74929851D-02 -0.10449729D-02 -0.39116512D-17  0.23409472D-01
  0.79605783D-17  0.42201743D-03 -0.60606377D-03  0.18404634D-03 -0.12075033D-16
  0.12373872D-02 -0.53985306D-17  0.13319767D-02  0.24507757D-16 -0.35189753D-02
 -0.80265319D-02 -0.61098364D-16  0.15619723D-01  0.40306017D-02 -0.12424907D-16
 -0.50627974D-02 -0.23436472D-17  0.54350677D-03 -0.33399625D-17 -0.99497568D-03
 -0.40820689D-02  0.58550469D-17  0.58485524D-02  0.24515486D-02  0.41648406D-17
 -0.28636253D-02  0.10878109D-16
MO    5     MO 0.0        OCC NO =    2.0000000  ORB. ENERGY =   -1.009352
 -0.71590863D-02 -0.13346165D-01 -0.22557369D-01 -0.33911115D-01 -0.41663723D-01
 -0.35191674D-01 -0.13273005D-01  0.65688841D-04 -0.25446673D-01 -0.47644201D-01
 -0.81118329D-01 -0.12547772D+00 -0.16524974D+00 -0.17170507D+00 -0.10911086D+00
  0.73123563D-01  0.34490175D-01  0.16593609D-01  0.52697523D-03  0.33153933D-01
  0.31083920D-01  0.22133603D-01 -0.49448973D-15 -0.46361556D-15 -0.33012190D-15
  0.29044539D+00  0.27231102D+00  0.19390167D+00  0.86917086D-02 -0.17031176D-16
  0.37839568D-01  0.21742849D-02  0.15401422D-16 -0.36010699D-02  0.17348596D-04
  0.35553881D-19 -0.47268977D-04 -0.17705088D-01 -0.15865761D-01  0.33570848D-01
 -0.36875253D-15 -0.13398929D-01 -0.21624253D-15  0.83786196D-03 -0.32875675D-02
  0.24497055D-02 -0.15172432D-16 -0.23142316D-02 -0.14796140D-16  0.36111649D-03
  0.58911116D-05 -0.36700760D-03 -0.55749093D-17 -0.56552298D-04 -0.16733095D-17
 -0.22070162D-03  0.31330772D-17  0.61939659D-02 -0.10164562D-02 -0.16312959D-16
 -0.13770281D-01  0.16785610D-02  0.69137278D-17 -0.48116164D-02  0.75915713D-17
  0.20717032D-04  0.20059603D-17 -0.34527854D-04 -0.27903190D-03  0.46415917D-17
 -0.27785113D-03  0.21688080D-03 -0.10659472D-16  0.38143469D-03  0.18704581D-16
 -0.10241951D-01 -0.19089679D-01 -0.32369770D-01 -0.48993155D-01 -0.61129152D-01
 -0.52501789D-01 -0.20156458D-01  0.90161073D-04 -0.85092989D-01 -0.15959401D+00
 -0.27207280D+00 -0.42519683D+00 -0.56856918D+00 -0.60709932D+00 -0.37116862D+00
  0.24487451D+00  0.13681675D+00  0.57577004D-01  0.30033142D-02  0.70719227D-02
  0.68573861D-02  0.46259522D-02  0.45913362D-15  0.44520517D-15  0.30033278D-15
 -0.49755980D+00 -0.48246564D+00 -0.32546847D+00  0.11141383D-02  0.12749602D-15
 -0.10947877D+00 -0.17446018D-03  0.32745621D-16 -0.55107538D-02 -0.28707716D-04
 -0.11150066D-17 -0.93325659D-04 -0.31259711D-01 -0.20933086D-01  0.52192797D-01
  0.35442544D-16 -0.23199659D-02 -0.61395921D-17 -0.86406063D-02 -0.61146489D-02
  0.14755255D-01 -0.12859301D-16  0.27772190D-03 -0.24923782D-16  0.54069178D-04
  0.23946655D-03 -0.29353573D-03 -0.37414866D-18  0.40644926D-04 -0.43519400D-17
 -0.14519464D-03  0.13004890D-16 -0.11147434D-01 -0.46094455D-03  0.29725444D-16
  0.16714043D-01  0.89652848D-03 -0.68740112D-16  0.16728258D-01 -0.42759247D-16
  0.13213551D-04 -0.45211122D-18 -0.11389923D-02  0.17428826D-03 -0.34957965D-17
  0.20178097D-02 -0.21392891D-03  0.48521302D-17  0.13991672D-02  0.87307345D-17
  0.24364182D-02  0.43941805D-02  0.64792165D-02 -0.93080428D-02 -0.90897835D-02
 -0.16608454D-03  0.26790762D-02 -0.12872384D-16  0.56973131D-03  0.55958584D-02
  0.48003103D-16 -0.41377795D-02  0.91725844D-03  0.10463357D-16 -0.16317795D-02
 -0.20965574D-02  0.79452882D-03  0.13020286D-02 -0.10570193D-16  0.42737345D-02
  0.91967957D-17  0.61564352D-04  0.33627505D-03 -0.39783940D-03 -0.24089183D-16
  0.72045690D-03  0.89488435D-17  0.20226840D-02  0.37703706D-02  0.63917052D-02
  0.96789254D-02  0.12103530D-01  0.10420012D-01  0.40058330D-02 -0.17357930D-04
  0.32555771D-01  0.61133971D-01  0.10410061D+00  0.16307299D+00  0.21853699D+00
  0.23506600D+00  0.14113332D+00 -0.92815207D-01 -0.56060107D-01 -0.34329823D-01
 -0.36546744D-02 -0.18463073D-01 -0.18056482D-01 -0.11930681D-01  0.22279177D-15
  0.21788548D-15  0.14396615D-15  0.52344808D-01  0.51192079D-01  0.33824771D-01
 -0.97174521D-02  0.64277718D-16  0.75181394D-02 -0.46018767D-02 -0.11617071D-16
 -0.11160117D-02 -0.14012361D-03 -0.69367324D-17 -0.36970228D-03 -0.39313707D-02
 -0.51890202D-03  0.44502727D-02  0.58682138D-16  0.26378105D-02  0.63953829D-16
 -0.46029610D-02  0.19352086D-02  0.26677524D-02  0.18589559D-16 -0.57310479D-02
 -0.97843566D-18 -0.64498982D-03  0.46052566D-03  0.18446416D-03 -0.32914723D-17
 -0.10105224D-02  0.38175010D-17 -0.16094590D-02  0.62940666D-18  0.81997706D-03
  0.33620834D-02  0.41243233D-17 -0.41308161D-02  0.14662937D-02 -0.60125433D-17
  0.16708849D-02  0.83261299D-16 -0.65430537D-03 -0.53192975D-17  0.98909619D-03
  0.84609373D-03  0.14943676D-16 -0.27518291D-02  0.11168224D-02  0.10142160D-17
 -0.21545952D-03 -0.29454043D-16
MO    6     MO 0.0        OCC NO =    2.0000000  ORB. ENERGY =   -0.607465
 -0.57608531D-02 -0.10739540D-01 -0.18151714D-01 -0.27287973D-01 -0.33526427D-01
 -0.28318427D-01 -0.10680669D-01  0.52859226D-04 -0.39814432D-01 -0.74545178D-01
 -0.12691954D+00 -0.19632524D+00 -0.25855343D+00 -0.26865357D+00 -0.17071729D+00
  0.11441076D+00  0.58856927D-01  0.31587599D-01  0.10638100D-02  0.44149954D-01
  0.41393388D-01  0.29474558D-01 -0.10936994D-14 -0.10254127D-14 -0.73015492D-15
 -0.27283441D+00 -0.25579960D+00 -0.18214456D+00  0.65272507D-02 -0.26262985D-15
 -0.60202870D-01  0.19134654D-02 -0.91569696D-16 -0.27817317D-02  0.43451022D-05
  0.21474942D-17 -0.30006133D-04  0.91009960D-02 -0.53953019D-02 -0.37056942D-02
  0.82914893D-15  0.35819825D-02  0.44968871D-15  0.23388898D-02 -0.26368902D-02
  0.29800036D-03  0.14886517D-16  0.12226906D-02  0.68911484D-17 -0.20410340D-03
 -0.10447292D-03  0.30857632D-03  0.61064595D-17 -0.33551869D-03  0.79696151D-18
  0.60269651D-03  0.21065175D-16  0.64755269D-04  0.90602616D-03 -0.12070290D-17
 -0.34606212D-02 -0.27141157D-02 -0.61988497D-16  0.32663554D-02 -0.42483041D-17
 -0.28321016D-03  0.11219574D-17  0.50713004D-03  0.23944988D-03 -0.12352268D-16
 -0.18923413D-02  0.61018059D-03  0.89863961D-17  0.37095121D-03 -0.24032794D-16
  0.77527568D-03  0.14450141D-02  0.24502652D-02  0.37085905D-02  0.46272381D-02
  0.39741804D-02  0.15257651D-02 -0.68248411D-05  0.31314851D-01  0.58731780D-01
  0.10012481D+00  0.15647559D+00  0.20923767D+00  0.22341705D+00  0.13659281D+00
 -0.90115638D-01 -0.52785030D-01 -0.36732223D-01 -0.31841807D-02  0.54945567D-01
  0.53278718D-01  0.35941508D-01 -0.23194025D-14 -0.22490403D-14 -0.15171893D-14
 -0.17934292D+00 -0.17390230D+00 -0.11731347D+00  0.12474956D-01 -0.53116340D-15
 -0.37428223D-01  0.98871842D-03 -0.80787665D-16 -0.53039493D-02  0.10552265D-03
 -0.41602730D-17  0.11141452D-03 -0.15548519D-02 -0.56081986D-02  0.71630505D-02
 -0.17445964D-16 -0.78615926D-02  0.18302450D-15 -0.21460404D-03 -0.16749381D-02
  0.18895422D-02  0.17205908D-16 -0.37158340D-02  0.51788465D-16 -0.10391824D-03
 -0.50925943D-03  0.61317766D-03  0.24507765D-17  0.63930923D-04  0.10719015D-16
 -0.13590859D-02  0.99593814D-17 -0.10627549D-02 -0.68077739D-03 -0.41582500D-17
  0.18809258D-02  0.47580352D-02 -0.25719894D-16  0.13073388D-02  0.15996509D-16
 -0.42369563D-04 -0.25096313D-17 -0.62617984D-04 -0.30208138D-03  0.87708817D-17
 -0.34527694D-04  0.42919007D-03 -0.12419879D-17  0.22238165D-03 -0.83318312D-17
  0.28418944D-01  0.51254736D-01  0.75575079D-01  0.36459025D-01  0.23495381D-03