 Molden2AIM, Version 4.0.0 (06/02/2016)           Time: Fri Jun 29 00:36:27 2018
GAUSSIAN             11 MOL ORBITALS    252 PRIMITIVES        4 NUCLEI
  H    1    (CENTRE  1)  -0.01616661  0.00000000 -0.00887226  CHARGE =  1.0
  N    2    (CENTRE  2)   0.01599086  0.00000000  1.92183068  CHARGE =  7.0
  N    3    (CENTRE  3)   2.22828568  0.00000000  2.67681784  CHARGE =  7.0
  N    4    (CENTRE  4)   4.13523477  0.00000000  3.65178802  CHARGE =  7.0
CENTRE ASSIGNMENTS    1  1  1  1  1  1  1  1  1  1  1  1  1  1  1  1  1  1  1  1
CENTRE ASSIGNMENTS    1  1  1  1  1  1  1  2  2  2  2  2  2  2  2  2  2  2  2  2
CENTRE ASSIGNMENTS    2  2  2  2  2  2  2  2  2  2  2  2  2  2  2  2  2  2  2  2
CENTRE ASSIGNMENTS    2  2  2  2  2  2  2  2  2  2  2  2  2  2  2  2  2  2  2  2
CENTRE ASSIGNMENTS    2  2  2  2  2  2  2  2  2  2  2  2  2  2  2  2  2  2  2  2
CENTRE ASSIGNMENTS    2  2  3  3  3  3  3  3  3  3  3  3  3  3  3  3  3  3  3  3
CENTRE ASSIGNMENTS    3  3  3  3  3  3  3  3  3  3  3  3  3  3  3  3  3  3  3  3
CENTRE ASSIGNMENTS    3  3  3  3  3  3  3  3  3  3  3  3  3  3  3  3  3  3  3  3
CENTRE ASSIGNMENTS    3  3  3  3  3  3  3  3  3  3  3  3  3  3  3  3  3  4  4  4
CENTRE ASSIGNMENTS    4  4  4  4  4  4  4  4  4  4  4  4  4  4  4  4  4  4  4  4
CENTRE ASSIGNMENTS    4  4  4  4  4  4  4  4  4  4  4  4  4  4  4  4  4  4  4  4
CENTRE ASSIGNMENTS    4  4  4  4  4  4  4  4  4  4  4  4  4  4  4  4  4  4  4  4
CENTRE ASSIGNMENTS    4  4  4  4  4  4  4  4  4  4  4  4
TYPE ASSIGNMENTS      1  1  1  1  1  1  2  3  4  2  3  4  2  3  4  5  6  7  8  9
TYPE ASSIGNMENTS     10  5  6  7  8  9 10  1  1  1  1  1  1  1  1  1  1  1  1  1
TYPE ASSIGNMENTS      1  1  1  1  1  1  2  2  2  3  3  3  4  4  4  2  3  4  2  3
TYPE ASSIGNMENTS      4  2  3  4  5  6  7  8  9 10  5  6  7  8  9 10  5  6  7  8
TYPE ASSIGNMENTS      9 10 11 12 13 17 14 15 18 19 16 20 11 12 13 17 14 15 18 19
TYPE ASSIGNMENTS     16 20  1  1  1  1  1  1  1  1  1  1  1  1  1  1  1  1  1  1
TYPE ASSIGNMENTS      1  2  2  2  3  3  3  4  4  4  2  3  4  2  3  4  2  3  4  5
TYPE ASSIGNMENTS      6  7  8  9 10  5  6  7  8  9 10  5  6  7  8  9 10 11 12 13
TYPE ASSIGNMENTS     17 14 15 18 19 16 20 11 12 13 17 14 15 18 19 16 20  1  1  1
TYPE ASSIGNMENTS      1  1  1  1  1  1  1  1  1  1  1  1  1  1  1  1  2  2  2  3
TYPE ASSIGNMENTS      3  3  4  4  4  2  3  4  2  3  4  2  3  4  5  6  7  8  9 10
TYPE ASSIGNMENTS      5  6  7  8  9 10  5  6  7  8  9 10 11 12 13 17 14 15 18 19
TYPE ASSIGNMENTS     16 20 11 12 13 17 14 15 18 19 16 20
EXPONENTS  0.3387000D+02 0.5095000D+01 0.1159000D+01 0.3258000D+00 0.1027000D+00
EXPONENTS  0.2526000D-01 0.1407000D+01 0.1407000D+01 0.1407000D+01 0.3880000D+00
EXPONENTS  0.3880000D+00 0.3880000D+00 0.1020000D+00 0.1020000D+00 0.1020000D+00
EXPONENTS  0.1057000D+01 0.1057000D+01 0.1057000D+01 0.1057000D+01 0.1057000D+01
EXPONENTS  0.1057000D+01 0.2470000D+00 0.2470000D+00 0.2470000D+00 0.2470000D+00
EXPONENTS  0.2470000D+00 0.2470000D+00 0.1142000D+05 0.1712000D+04 0.3893000D+03
EXPONENTS  0.1100000D+03 0.3557000D+02 0.1254000D+02 0.4644000D+01 0.5118000D+00
EXPONENTS  0.1142000D+05 0.1712000D+04 0.3893000D+03 0.1100000D+03 0.3557000D+02
EXPONENTS  0.1254000D+02 0.4644000D+01 0.5118000D+00 0.1293000D+01 0.1787000D+00
EXPONENTS  0.5760000D-01 0.2663000D+02 0.5948000D+01 0.1742000D+01 0.2663000D+02
EXPONENTS  0.5948000D+01 0.1742000D+01 0.2663000D+02 0.5948000D+01 0.1742000D+01
EXPONENTS  0.5550000D+00 0.5550000D+00 0.5550000D+00 0.1725000D+00 0.1725000D+00
EXPONENTS  0.1725000D+00 0.4910000D-01 0.4910000D-01 0.4910000D-01 0.1654000D+01
EXPONENTS  0.1654000D+01 0.1654000D+01 0.1654000D+01 0.1654000D+01 0.1654000D+01
EXPONENTS  0.4690000D+00 0.4690000D+00 0.4690000D+00 0.4690000D+00 0.4690000D+00
EXPONENTS  0.4690000D+00 0.1510000D+00 0.1510000D+00 0.1510000D+00 0.1510000D+00
EXPONENTS  0.1510000D+00 0.1510000D+00 0.1093000D+01 0.1093000D+01 0.1093000D+01
EXPONENTS  0.1093000D+01 0.1093000D+01 0.1093000D+01 0.1093000D+01 0.1093000D+01
EXPONENTS  0.1093000D+01 0.1093000D+01 0.3640000D+00 0.3640000D+00 0.3640000D+00
EXPONENTS  0.3640000D+00 0.3640000D+00 0.3640000D+00 0.3640000D+00 0.3640000D+00
EXPONENTS  0.3640000D+00 0.3640000D+00 0.1142000D+05 0.1712000D+04 0.3893000D+03
EXPONENTS  0.1100000D+03 0.3557000D+02 0.1254000D+02 0.4644000D+01 0.5118000D+00
EXPONENTS  0.1142000D+05 0.1712000D+04 0.3893000D+03 0.1100000D+03 0.3557000D+02
EXPONENTS  0.1254000D+02 0.4644000D+01 0.5118000D+00 0.1293000D+01 0.1787000D+00
EXPONENTS  0.5760000D-01 0.2663000D+02 0.5948000D+01 0.1742000D+01 0.2663000D+02
EXPONENTS  0.5948000D+01 0.1742000D+01 0.2663000D+02 0.5948000D+01 0.1742000D+01
EXPONENTS  0.5550000D+00 0.5550000D+00 0.5550000D+00 0.1725000D+00 0.1725000D+00
EXPONENTS  0.1725000D+00 0.4910000D-01 0.4910000D-01 0.4910000D-01 0.1654000D+01
EXPONENTS  0.1654000D+01 0.1654000D+01 0.1654000D+01 0.1654000D+01 0.1654000D+01
EXPONENTS  0.4690000D+00 0.4690000D+00 0.4690000D+00 0.4690000D+00 0.4690000D+00
EXPONENTS  0.4690000D+00 0.1510000D+00 0.1510000D+00 0.1510000D+00 0.1510000D+00
EXPONENTS  0.1510000D+00 0.1510000D+00 0.1093000D+01 0.1093000D+01 0.1093000D+01
EXPONENTS  0.1093000D+01 0.1093000D+01 0.1093000D+01 0.1093000D+01 0.1093000D+01
EXPONENTS  0.1093000D+01 0.1093000D+01 0.3640000D+00 0.3640000D+00 0.3640000D+00
EXPONENTS  0.3640000D+00 0.3640000D+00 0.3640000D+00 0.3640000D+00 0.3640000D+00
EXPONENTS  0.3640000D+00 0.3640000D+00 0.1142000D+05 0.1712000D+04 0.3893000D+03
EXPONENTS  0.1100000D+03 0.3557000D+02 0.1254000D+02 0.4644000D+01 0.5118000D+00
EXPONENTS  0.1142000D+05 0.1712000D+04 0.3893000D+03 0.1100000D+03 0.3557000D+02
EXPONENTS  0.1254000D+02 0.4644000D+01 0.5118000D+00 0.1293000D+01 0.1787000D+00
EXPONENTS  0.5760000D-01 0.2663000D+02 0.5948000D+01 0.1742000D+01 0.2663000D+02
EXPONENTS  0.5948000D+01 0.1742000D+01 0.2663000D+02 0.5948000D+01 0.1742000D+01
EXPONENTS  0.5550000D+00 0.5550000D+00 0.5550000D+00 0.1725000D+00 0.1725000D+00
EXPONENTS  0.1725000D+00 0.4910000D-01 0.4910000D-01 0.4910000D-01 0.1654000D+01
EXPONENTS  0.1654000D+01 0.1654000D+01 0.1654000D+01 0.1654000D+01 0.1654000D+01
EXPONENTS  0.4690000D+00 0.4690000D+00 0.4690000D+00 0.4690000D+00 0.4690000D+00
EXPONENTS  0.4690000D+00 0.1510000D+00 0.1510000D+00 0.1510000D+00 0.1510000D+00
EXPONENTS  0.1510000D+00 0.1510000D+00 0.1093000D+01 0.1093000D+01 0.1093000D+01
EXPONENTS  0.1093000D+01 0.1093000D+01 0.1093000D+01 0.1093000D+01 0.1093000D+01
EXPONENTS  0.1093000D+01 0.1093000D+01 0.3640000D+00 0.3640000D+00 0.3640000D+00
EXPONENTS  0.3640000D+00 0.3640000D+00 0.3640000D+00 0.3640000D+00 0.3640000D+00
EXPONENTS  0.3640000D+00 0.3640000D+00
MO    1     MO 0.0        OCC NO =    2.0000000  ORB. ENERGY =  -14.160013
  0.81780217D-05  0.14749399D-04  0.21747980D-04  0.13583898D-02 -0.32140637D-03
  0.38578262D-04 -0.57219211D-03  0.10617631D-15  0.20416437D-03 -0.11783946D-02
 -0.25645187D-16  0.53093902D-03 -0.13529080D-03  0.12158322D-16 -0.78683194D-04
 -0.21647388D-03 -0.15382797D-03  0.37030185D-03 -0.99023505D-17 -0.20440038D-02
  0.48679440D-17 -0.11084849D-03  0.65919663D-04  0.44928827D-04 -0.11989370D-18
 -0.24852472D-03  0.11315811D-18  0.10330192D-02  0.19248792D-02  0.32554532D-02
  0.49025322D-02  0.60696528D-02  0.51650006D-02  0.19653780D-02 -0.92047038D-05
 -0.34936837D-03 -0.65506896D-03 -0.11144672D-02 -0.17306499D-02 -0.22966731D-02
 -0.24203781D-02 -0.15007889D-02  0.99832533D-03  0.46023924D-03 -0.97967905D-03
  0.89442798D-03  0.11127545D-02  0.10687874D-02  0.74950747D-03 -0.61450663D-18
 -0.59022627D-18 -0.41390740D-18  0.18638021D-03  0.17901597D-03  0.12553835D-03
  0.14391505D-02 -0.32976412D-17  0.10975873D-02 -0.50477854D-03 -0.15144502D-17
  0.74828106D-03  0.73861653D-04 -0.29723496D-18  0.68900100D-04  0.19058972D-02
 -0.97705530D-03 -0.92884194D-03  0.10171032D-17  0.29510753D-02 -0.17008920D-17
 -0.35003791D-03  0.34172711D-03  0.83108019D-05 -0.29048519D-17 -0.16762719D-02
  0.33216301D-18 -0.83235652D-04  0.35188650D-04  0.48047002D-04 -0.88144195D-18
  0.54092630D-04  0.23815467D-18 -0.72340467D-03  0.22796600D-17  0.47635209D-03
  0.11652332D-02  0.56255841D-17 -0.19513965D-02  0.10049808D-02 -0.12464564D-16
  0.52234019D-03 -0.24039677D-17 -0.22095631D-03  0.23100125D-18  0.14767911D-03
  0.51884034D-04 -0.16062496D-17 -0.43795667D-03  0.61098489D-03  0.91324583D-18
 -0.50806485D-05 -0.49742296D-19  0.41210556D+00  0.76789803D+00  0.12987081D+01
  0.19557824D+01  0.24213855D+01  0.20604898D+01  0.78405437D+00 -0.36720611D-02
 -0.18295988D-02 -0.34305149D-02 -0.58363265D-02 -0.90631988D-02 -0.12027392D-01
 -0.12675220D-01 -0.78594451D-02  0.52281059D-02  0.46662090D-01  0.39864054D-02
 -0.65118049D-03 -0.17594483D-02 -0.16899291D-02 -0.11850949D-02  0.10291435D-16
  0.98848004D-17  0.69319043D-17 -0.77167816D-05 -0.74118765D-05 -0.51977194D-05
  0.57087871D-02  0.10046893D-17  0.30365828D-02 -0.10534935D-03  0.63603737D-17
 -0.75944790D-03  0.13738236D-03  0.37199268D-18 -0.18539842D-04  0.68552372D-02
 -0.48762009D-02 -0.19790363D-02  0.17834992D-17  0.10388845D-01  0.10988019D-17
 -0.41249403D-03  0.39281297D-03  0.19681063D-04 -0.94040016D-18 -0.36650287D-03
  0.25815072D-18 -0.33622142D-03  0.11472429D-03  0.22149712D-03  0.12562323D-17
 -0.42350683D-05 -0.22611953D-18  0.64034289D-03  0.43552166D-18 -0.69824057D-03
 -0.24533299D-02 -0.12560467D-17  0.36280286D-02  0.53230122D-03 -0.50518240D-19
 -0.15333069D-02 -0.14011239D-17  0.75130292D-04 -0.76739333D-18  0.72621502D-04
 -0.55371574D-04  0.22107462D-17 -0.34637212D-03 -0.17001930D-03  0.91433835D-19
  0.12850762D-03  0.22604496D-17  0.16130888D-02  0.30057535D-02  0.50834827D-02
  0.76554432D-02  0.94779354D-02  0.80652952D-02  0.30689936D-02 -0.14373406D-04
  0.97456120D-04  0.18273114D-03  0.31088003D-03  0.48276386D-03  0.64065573D-03
  0.67516319D-03  0.41864425D-03 -0.27848232D-03  0.20211151D-02 -0.25799978D-02
 -0.64372187D-03 -0.34781003D-02 -0.33406737D-02 -0.23427110D-02 -0.40528021D-18
 -0.38926680D-18 -0.27298075D-18 -0.20627954D-02 -0.19812903D-02 -0.13894175D-02
  0.40109920D-02 -0.22923634D-17  0.24516465D-02  0.22952387D-02 -0.46049406D-17
  0.82557257D-03  0.34731149D-04 -0.21287077D-18  0.47216392D-04 -0.10094769D-02
  0.67920554D-03  0.33027137D-03  0.92609868D-18 -0.18170643D-02 -0.38779913D-19
 -0.22265390D-02  0.16907899D-02  0.53574914D-03  0.14842655D-17 -0.39734498D-02
  0.10561569D-17 -0.20931384D-03  0.14973689D-03  0.59576947D-04  0.96258322D-18
 -0.34373126D-03  0.93995143D-18  0.13094237D-02  0.53744716D-18 -0.12608466D-02
 -0.38597528D-02 -0.10196118D-17  0.56463365D-02 -0.68518355D-04 -0.59272962D-18
 -0.18637965D-02  0.14570078D-18  0.18076229D-03  0.13470274D-19 -0.18180771D-03
 -0.60494540D-03  0.32826830D-18  0.89210842D-03  0.62658542D-04 -0.36867913D-18
 -0.34668531D-03 -0.67677550D-18
MO    2     MO 0.0        OCC NO =    2.0000000  ORB. ENERGY =  -14.058248
 -0.12995293D-04 -0.23437546D-04 -0.34558648D-04 -0.11834299D-02 -0.87011451D-03
  0.35095798D-05 -0.28411242D-03 -0.27277102D-15 -0.93306644D-04 -0.28629513D-03
  0.33957963D-16 -0.80399670D-03 -0.37890703D-04  0.17074544D-17 -0.16159506D-03
  0.84874257D-04  0.12924771D-04 -0.97799028D-04 -0.20730742D-15 -0.54229787D-03
  0.80957963D-16 -0.97562602D-04  0.69849618D-04  0.27712984D-04 -0.56165699D-18
  0.42305091D-04 -0.36990788D-18 -0.90043706D-03 -0.16778319D-02 -0.28376343D-02
 -0.42733201D-02 -0.52906475D-02 -0.45021022D-02 -0.17131329D-02  0.80233324D-05
  0.32160633D-03  0.60301488D-03  0.10259077D-02  0.15931264D-02  0.21141714D-02
  0.22280464D-02  0.13815309D-02 -0.91899490D-03 -0.53301585D-03 -0.44278900D-03
  0.98571792D-03 -0.32833141D-03 -0.31535839D-03 -0.22115107D-03  0.85330463D-17
  0.81958889D-17  0.57475231D-17 -0.44804290D-03 -0.43033985D-03 -0.30178401D-03
 -0.32157266D-03 -0.50528313D-17  0.49494807D-03 -0.35913204D-03  0.12364055D-16
 -0.26641005D-03  0.95390221D-04  0.74018796D-19  0.38832684D-04 -0.97591178D-03
  0.81555893D-03  0.16035285D-03  0.12403106D-17 -0.69495331D-03 -0.40868376D-16
 -0.39481739D-03 -0.27362779D-03  0.66844519D-03 -0.12962483D-17  0.67518953D-03
  0.48996860D-17  0.42413665D-04 -0.68197520D-04  0.25783854D-04  0.30586407D-17
  0.15459475D-03  0.75672184D-18 -0.10499869D-02  0.37600373D-18  0.67623739D-04
  0.14332744D-02 -0.48380672D-17 -0.35646027D-03  0.17166864D-02  0.37100560D-17
  0.15358906D-03  0.23962810D-18 -0.38683349D-04 -0.33476376D-18 -0.10178060D-04
  0.10650840D-04  0.54083345D-18 -0.99083540D-04  0.10539921D-03  0.46345783D-18
  0.12961772D-03  0.58103228D-17 -0.19875002D-02 -0.37034140D-02 -0.62634016D-02
 -0.94323357D-02 -0.11677844D-01 -0.99373178D-02 -0.37813327D-02  0.17709594D-04
  0.48283714D-04  0.90532415D-04  0.15402258D-03  0.23918080D-03  0.31740683D-03
  0.33450323D-03  0.20741334D-03 -0.13797143D-03  0.21225227D-02 -0.13519257D-01
 -0.24749639D-02  0.44958784D-02  0.43182374D-02  0.30282462D-02  0.90157621D-18
  0.86595317D-18  0.60726614D-18  0.26479845D-02  0.25433575D-02  0.17835778D-02
 -0.59620383D-02  0.72643359D-18 -0.31948211D-02 -0.76800742D-02 -0.13538400D-17
 -0.45111258D-02 -0.70097167D-04 -0.51244081D-19 -0.74036986D-04  0.38117091D-04
  0.93123354D-04 -0.13124045D-03 -0.16726067D-17 -0.88475923D-03  0.54694994D-17
 -0.33974139D-02  0.23724120D-02  0.10250019D-02  0.34593711D-17 -0.51598189D-02
 -0.10490993D-17 -0.38376874D-03  0.24445499D-03  0.13931375D-03  0.69731730D-17
 -0.59594655D-03  0.32220957D-17 -0.13118515D-02 -0.34477362D-18  0.15579205D-02
  0.40314789D-02  0.42917483D-17 -0.66140719D-02 -0.95924561D-04 -0.32574274D-17
  0.19403103D-02 -0.97878319D-17 -0.22619925D-03 -0.22531749D-18  0.43541668D-03
  0.11469855D-02 -0.19178630D-17 -0.20809510D-02 -0.46838772D-03  0.25938155D-17
  0.77470097D-03  0.82147589D-17  0.41220962D+00  0.76809192D+00  0.12990360D+01
  0.19562762D+01  0.24219969D+01  0.20610100D+01  0.78425234D+00 -0.36729883D-02
 -0.18700453D-02 -0.35063524D-02 -0.59653487D-02 -0.92635567D-02 -0.12293278D-01
 -0.12955428D-01 -0.80331919D-02  0.53436823D-02  0.46523771D-01  0.15718266D-01
  0.14231717D-02 -0.67613701D-02 -0.64942152D-02 -0.45541919D-02 -0.14426874D-16
 -0.13856840D-16 -0.97173727D-17 -0.37046097D-02 -0.35582334D-02 -0.24952788D-02
 -0.79099212D-02  0.42339599D-18 -0.35346749D-02 -0.36014495D-02 -0.10195519D-16
 -0.17308563D-02 -0.71722377D-04 -0.14881438D-18 -0.23819610D-04  0.51416692D-02
 -0.37767445D-02 -0.13649247D-02 -0.10523712D-16  0.87267392D-02  0.47399986D-17
  0.76889292D-03 -0.49444469D-03 -0.27444823D-03  0.77598283D-17  0.12182154D-02
 -0.27017228D-17  0.39795660D-04 -0.11419802D-04 -0.28375858D-04  0.14150478D-17
  0.41262615D-04  0.81432011D-18 -0.73368320D-03  0.23838626D-17  0.75543712D-03
  0.22662807D-02 -0.12564802D-17 -0.34448278D-02 -0.65231107D-04 -0.58951077D-17
  0.11785164D-02 -0.19866251D-18  0.80052041D-04 -0.27641108D-18 -0.49599352D-04
 -0.21741454D-03 -0.98980690D-18  0.26288175D-03 -0.22741585D-04  0.18190401D-17
 -0.11408370D-03  0.10721917D-17
MO    3     MO 0.0        OCC NO =    2.0000000  ORB. ENERGY =  -14.042873
  0.19357450D-03  0.34911958D-03  0.51477662D-03 -0.15032727D-02 -0.66869513D-03
 -0.83047745D-05 -0.24925810D-03 -0.28842376D-16 -0.18269365D-02  0.54031330D-04
 -0.11744474D-17 -0.23781796D-02  0.19515840D-04  0.40795153D-19 -0.23128904D-03
  0.18050279D-02  0.18329833D-02 -0.36380112D-02 -0.20590562D-18 -0.41055192D-03
 -0.87707709D-18  0.10208007D-03  0.12874051D-03 -0.23082058D-03 -0.17785580D-19
 -0.18469832D-04 -0.12015854D-18  0.41194416D+00  0.76759729D+00  0.12981995D+01
  0.19550164D+01  0.24204372D+01  0.20596828D+01  0.78374730D+00 -0.36706230D-02
 -0.16391525D-02 -0.30734263D-02 -0.52288126D-02 -0.81197938D-02 -0.10775439D-01
 -0.11355833D-01 -0.70413411D-02  0.46839028D-02  0.45505915D-01  0.72859998D-02
  0.59074401D-03  0.67267779D-02  0.64609897D-02  0.45308920D-02 -0.12705619D-16
 -0.12203595D-16 -0.85580033D-17 -0.15474875D-02 -0.14863433D-02 -0.10423265D-02
  0.33312054D-02  0.36692739D-17 -0.15382849D-02  0.91853150D-03  0.25139015D-17
  0.92731932D-03 -0.35303619D-05  0.33192743D-19  0.27934408D-05  0.19418980D-02
 -0.41959561D-02  0.22540581D-02 -0.48378556D-17  0.44124427D-02  0.14979196D-17
 -0.29880781D-03 -0.65078814D-04  0.36388662D-03  0.34699706D-17 -0.27684625D-04
  0.23202340D-18 -0.78260066D-04  0.63975288D-04  0.14284778D-04  0.63577054D-18
  0.79049351D-04  0.22023694D-18  0.52238188D-03 -0.18336264D-18 -0.15430971D-02
 -0.11713591D-02  0.78400162D-18  0.32226112D-02 -0.39578651D-03 -0.23391370D-18
  0.14066801D-02  0.62119218D-18 -0.13608271D-03 -0.22832421D-18  0.25324629D-03
  0.27697950D-03  0.51354472D-18 -0.60756186D-03  0.13126863D-03  0.17142791D-18
 -0.15217701D-03  0.48603190D-18 -0.21435402D-03 -0.39941716D-03 -0.67551454D-03
 -0.10172875D-02 -0.12594679D-02 -0.10717503D-02 -0.40782077D-03  0.19099987D-05
 -0.30342682D-03 -0.56892812D-03 -0.96791600D-03 -0.15030714D-02 -0.19946631D-02
 -0.21021011D-02 -0.13034368D-02  0.86704666D-03  0.13168084D-02 -0.41881636D-02
 -0.44452164D-03 -0.27404779D-02 -0.26321963D-02 -0.18458777D-02  0.13873221D-17
  0.13325063D-17  0.93444539D-18 -0.59545742D-03 -0.57192973D-03 -0.40107661D-03
  0.38914373D-03 -0.13911608D-17 -0.95164048D-04  0.50264072D-02 -0.29765243D-17
  0.11267669D-02  0.11889168D-03 -0.34222259D-19  0.43782233D-04  0.11472202D-02
 -0.64587604D-03 -0.50134413D-03 -0.10079181D-17  0.11208743D-02 -0.53779291D-18
 -0.16707765D-02  0.11345879D-02  0.53618866D-03  0.15786971D-17 -0.23717739D-02
  0.61343855D-18 -0.25389379D-03  0.99111441D-04  0.15478235D-03  0.73397358D-18
  0.62058841D-04  0.22944902D-18  0.11428386D-02 -0.13948093D-18 -0.68181053D-03
 -0.19752534D-02  0.50814343D-18  0.26867224D-02 -0.14532623D-02 -0.89700628D-19
 -0.64129082D-03 -0.17074495D-18  0.65415576D-03  0.57634688D-18 -0.29096588D-03
 -0.12186685D-02 -0.19542919D-17  0.11422122D-02 -0.74379876D-03  0.22525126D-18
 -0.26931457D-03 -0.16302305D-17  0.32699358D-04  0.60930439D-04  0.10304865D-03
  0.15518555D-03  0.19212978D-03  0.16349377D-03  0.62212396D-04 -0.29136719D-06
  0.32697686D-03  0.61308467D-03  0.10430394D-02  0.16197301D-02  0.21494761D-02
  0.22652527D-02  0.14046012D-02 -0.93434125D-03 -0.71720602D-03 -0.19410756D-02
 -0.11638930D-03  0.12982330D-02  0.12469373D-02  0.87443848D-03 -0.15032560D-17
 -0.14438594D-17 -0.10125339D-17 -0.88736661D-04 -0.85230502D-04 -0.59769511D-04
 -0.11132007D-02  0.24839164D-17  0.82512694D-03  0.40960200D-04  0.18833951D-18
  0.75762408D-04 -0.22981868D-04  0.55999341D-20 -0.11037567D-04 -0.18211668D-03
  0.26381868D-03 -0.81702006D-04 -0.39548609D-18 -0.13798194D-02  0.15348654D-18
  0.49773020D-03 -0.10326365D-03 -0.39446654D-03 -0.73582063D-18  0.13946117D-03
 -0.85689267D-18  0.83926377D-04 -0.54902429D-04 -0.29023948D-04 -0.12192441D-18
  0.80035541D-04 -0.48670880D-19 -0.48760214D-04 -0.10167648D-19 -0.16850711D-03
 -0.59733493D-03  0.25470293D-18  0.96334902D-03  0.74361557D-03 -0.22419998D-18
 -0.45782770D-03  0.38304756D-18  0.11319325D-04 -0.17542675D-19  0.98922342D-05
 -0.18042659D-04 -0.96226011D-19  0.77299363D-05 -0.15915317D-04  0.14885404D-18
 -0.37406639D-04  0.62401127D-19
MO    4     MO 0.0        OCC NO =    2.0000000  ORB. ENERGY =   -1.063144
  0.54081367D-02  0.97537972D-02  0.14381968D-01  0.52026999D-02 -0.73598651D-03
  0.19633200D-03  0.22768403D-02  0.29273935D-15  0.54197584D-02  0.81168657D-03
 -0.14626345D-16 -0.49533561D-03 -0.42891351D-04  0.48928227D-16 -0.40695502D-03
  0.36137967D-03 -0.18772066D-03 -0.17365901D-03  0.53560261D-15  0.19575982D-02
  0.23678520D-15  0.74411640D-04  0.24346457D-03 -0.31787621D-03 -0.93068371D-16
  0.14258349D-03 -0.32999200D-16 -0.51464313D-02 -0.95896170D-02 -0.16218446D-01
 -0.24424082D-01 -0.30238597D-01 -0.25731682D-01 -0.97913796D-02  0.45857208D-04
 -0.27472874D-01 -0.51511895D-01 -0.87637061D-01 -0.13609110D+00 -0.18060081D+00
 -0.19032846D+00 -0.11801579D+00  0.78504147D-01  0.40619766D-01  0.24928605D-01
  0.74484764D-02  0.20567530D+00  0.19754867D+00  0.13853476D+00 -0.26836132D-15
 -0.25775784D-15 -0.18075759D-15  0.38500519D-01  0.36979289D-01  0.25932430D-01
  0.47098588D-01 -0.58590832D-16  0.48346859D-02  0.56107681D-02 -0.72808675D-16
  0.24238804D-02  0.61076773D-03 -0.70689323D-19  0.38954427D-03  0.26523273D-01
 -0.19103295D-01 -0.74199782D-02 -0.56712379D-16  0.26289240D-01 -0.68415375D-16
  0.40810713D-02 -0.32090881D-02 -0.87198314D-03 -0.32968901D-16  0.28589869D-02
 -0.24913661D-17  0.13416560D-03  0.30376520D-04 -0.16454212D-03 -0.72730765D-17
  0.24804942D-03  0.19362769D-16  0.47437638D-02 -0.82279489D-17 -0.31303435D-02
 -0.96151211D-02 -0.20135237D-16  0.10318513D-01 -0.46161703D-02  0.44819083D-16
 -0.92748207D-03 -0.24935393D-16 -0.12804709D-03  0.45696630D-17  0.24770524D-03
  0.15725304D-03 -0.57951503D-17 -0.75784620D-03  0.22688823D-03 -0.79138386D-17
  0.14730489D-04 -0.64891857D-17 -0.11369066D-01 -0.21184581D-01 -0.35828437D-01
 -0.53955641D-01 -0.66800584D-01 -0.56844282D-01 -0.21630298D-01  0.10130391D-03
 -0.65501295D-01 -0.12281554D+00 -0.20894577D+00 -0.32447073D+00 -0.43059153D+00
 -0.45378436D+00 -0.28137525D+00  0.18717093D+00  0.10176349D+00  0.88614465D-02
 -0.13590169D-01  0.11974430D+00  0.11501297D+00  0.80655033D-01 -0.37220837D-16
 -0.35750169D-16 -0.25070486D-16  0.87828656D-01  0.84358374D-01  0.59157915D-01
  0.13700806D-01  0.45816426D-18  0.14150473D-01  0.36111324D-02  0.56938796D-16
  0.12465726D-02  0.42829744D-03 -0.18867278D-17 -0.11755304D-03  0.51122334D-01
 -0.35385144D-01 -0.15737190D-01  0.25123146D-16  0.76976053D-01  0.56436077D-16
  0.33274319D-02 -0.26842515D-02 -0.64318041D-03  0.61843550D-17  0.56844734D-02
 -0.15911537D-16 -0.14470685D-02  0.71213537D-03  0.73493308D-03  0.17855867D-17
 -0.10885870D-02  0.12414662D-16 -0.11712034D-02  0.16097732D-16 -0.14792854D-02
 -0.24350425D-02 -0.24723834D-16  0.78131437D-02  0.59486528D-02 -0.23569363D-16
 -0.33752876D-02 -0.45092949D-16 -0.14116813D-03 -0.64429968D-17  0.82090742D-04
 -0.35291187D-04  0.17948745D-16 -0.19029237D-03  0.45879559D-03  0.13802453D-17
 -0.55979856D-04  0.16608703D-16 -0.82714974D-02 -0.15412717D-01 -0.26066769D-01
 -0.39255110D-01 -0.48600372D-01 -0.41356724D-01 -0.15736996D-01  0.73703067D-04
 -0.40168765D-01 -0.75316810D-01 -0.12813630D+00 -0.19898215D+00 -0.26406089D+00
 -0.27828393D+00 -0.17255379D+00  0.11478285D+00  0.60965041D-01  0.20594875D-01
  0.42992240D-02 -0.31917643D+00 -0.30656514D+00 -0.21498464D+00 -0.93745413D-16
 -0.90041349D-16 -0.63143209D-16 -0.16049108D+00 -0.15414977D+00 -0.10810046D+00
 -0.67613887D-01 -0.37792189D-16 -0.35013214D-01 -0.23494605D-02 -0.38787960D-16
 -0.26565126D-02 -0.35055762D-03  0.84806216D-18 -0.81791480D-04  0.38178270D-01
 -0.28568750D-01 -0.96095209D-02  0.24540255D-16  0.66682176D-01 -0.10519644D-16
  0.46710221D-02 -0.38350547D-02 -0.83596739D-03  0.16793258D-16  0.95487090D-02
  0.30832879D-16 -0.20810076D-03  0.11042675D-03  0.97674008D-04  0.12365449D-16
 -0.13585417D-03 -0.25362145D-18 -0.37384146D-02  0.29153987D-17  0.42653522D-02
  0.13841076D-01  0.53563855D-17 -0.20534580D-01 -0.26258324D-02 -0.14102581D-16
  0.77385230D-02 -0.46322305D-18  0.12330471D-04  0.13269629D-17  0.19330484D-04
 -0.13168198D-04 -0.14384008D-17 -0.23115906D-04 -0.23823216D-04 -0.25424877D-17
 -0.34875546D-04 -0.61607385D-17
MO    5     MO 0.0        OCC NO =    2.0000000  ORB. ENERGY =   -0.909463
  0.13707832D-01  0.24722640D-01  0.36453518D-01  0.12280900D-01 -0.14667263D-02
 -0.10636273D-03  0.50215846D-02 -0.54120881D-16  0.14198478D-01  0.44440811D-02
  0.35294661D-16  0.28937685D-03  0.23229311D-03 -0.67253972D-17 -0.68477385D-03
 -0.26056914D-03 -0.11644035D-02  0.14249726D-02 -0.25630854D-15  0.68131992D-02
 -0.26370805D-15  0.18666676D-03  0.20932704D-03 -0.39599380D-03  0.53612294D-16
  0.86562722D-03  0.14920912D-16 -0.88835827D-02 -0.16553248D-01 -0.27995693D-01
 -0.42159962D-01 -0.52196768D-01 -0.44417094D-01 -0.16901524D-01  0.79157046D-04
 -0.51721748D-01 -0.96978761D-01 -0.16498973D+00 -0.25621163D+00 -0.34000773D+00
 -0.35832148D+00 -0.22218217D+00  0.14779567D+00  0.77783851D-01  0.29914488D-01
  0.79664502D-04  0.30405115D+00  0.29203749D+00  0.20479685D+00  0.35703008D-15
  0.34292313D-15  0.24048137D-15 -0.28258062D-02 -0.27141531D-02 -0.19033515D-02
  0.66383077D-01  0.45369041D-16 -0.56616410D-02  0.42723030D-02  0.11237050D-15
 -0.77007917D-03 -0.17788556D-03  0.57057455D-17 -0.91110773D-04  0.31599280D-01
 -0.26093652D-01 -0.55056276D-02 -0.76558469D-17  0.25094080D-01  0.40215524D-16
  0.58878030D-02 -0.53912850D-02 -0.49651794D-03  0.28535557D-16  0.77671661D-02
  0.21019938D-16  0.31400224D-03 -0.37548308D-04 -0.27645393D-03  0.25245623D-16
  0.35668707D-03 -0.43725284D-17  0.74994788D-02  0.16371704D-16 -0.53980258D-02
 -0.15735658D-01  0.16488939D-17  0.18843198D-01 -0.67627786D-02 -0.50764007D-16
 -0.26491202D-02 -0.10528343D-17  0.57952055D-03 -0.50420360D-17 -0.23479206D-03
 -0.22022910D-03  0.15461249D-16  0.64402527D-03 -0.15183326D-02 -0.33514128D-18
  0.60350903D-04  0.14282125D-16 -0.28937792D-03 -0.53921315D-03 -0.91194461D-03
 -0.13733381D-02 -0.17002816D-02 -0.14468629D-02 -0.55055803D-03  0.25784981D-05
 -0.49372116D-02 -0.92573178D-02 -0.15749452D-01 -0.24457236D-01 -0.32456175D-01
 -0.34204353D-01 -0.21208881D-01  0.14108156D-01  0.70945134D-02  0.76142367D-02
  0.34069845D-02 -0.69304650D+00 -0.66566288D+00 -0.46680876D+00  0.21835003D-15
  0.20972259D-15  0.14707196D-15 -0.31380522D+00 -0.30140616D+00 -0.21136680D+00
 -0.13902753D+00  0.34262437D-16 -0.62185222D-01 -0.47875255D-02 -0.37371690D-16
 -0.10963193D-02  0.28598948D-03  0.13005321D-17  0.17611356D-03  0.39179571D-02
  0.62055138D-03 -0.45385085D-02 -0.32354316D-17 -0.10616951D-01 -0.22700315D-16
  0.15158430D-02 -0.14596046D-02 -0.56238383D-04  0.22366788D-16  0.27802953D-02
  0.10967127D-16  0.41088228D-03 -0.31032602D-03 -0.10055626D-03  0.34181333D-16
  0.44631997D-03  0.29011453D-18 -0.10961315D-01 -0.29238552D-17  0.81316343D-02
  0.28057398D-01 -0.38865703D-17 -0.36880664D-01  0.48265456D-02  0.12658136D-16
  0.12485761D-01  0.14076858D-16 -0.33164633D-03  0.15977644D-17  0.81493164D-04
  0.67910850D-03 -0.65057894D-17 -0.35665697D-03  0.31583050D-03  0.17124961D-17
  0.11217748D-03 -0.15180415D-16  0.73613024D-02  0.13716703D-01  0.23198384D-01
  0.34935480D-01  0.43252391D-01  0.36805833D-01  0.14005298D-01 -0.65592787D-04
  0.39125188D-01  0.73360093D-01  0.12480735D+00  0.19381263D+00  0.25720063D+00
  0.27105416D+00  0.16807087D+00 -0.11180081D+00 -0.60017728D-01 -0.23543930D-01
 -0.23954444D-02  0.26636677D+00  0.25584209D+00  0.17941414D+00  0.11641061D-15
  0.11181100D-15  0.78409593D-16  0.14215473D+00  0.13653792D+00  0.95749812D-01
  0.54932828D-01  0.46646353D-16  0.27807409D-01  0.43230418D-02 -0.29124843D-16
  0.19247544D-02  0.53732628D-04 -0.28758280D-17  0.14675717D-04 -0.28690560D-01
  0.21828049D-01  0.68625108D-02 -0.49026617D-16 -0.50815616D-01 -0.21009568D-16
 -0.40877029D-02  0.27498987D-02  0.13378042D-02 -0.48488968D-17 -0.56374651D-02
 -0.91801450D-17 -0.55420979D-04  0.25261479D-04  0.30159500D-04  0.44487681D-17
  0.58608948D-04  0.99681592D-17  0.43124320D-02 -0.67079143D-17 -0.39199654D-02
 -0.12096345D-01 -0.95383618D-17  0.17553830D-01 -0.84095128D-03  0.29662105D-16
 -0.57939341D-02  0.27115321D-16  0.95619731D-04  0.17808274D-17 -0.26268713D-04
 -0.12568179D-03  0.44825478D-17  0.69511750D-04 -0.16117741D-03 -0.98250299D-17
  0.92943879D-05 -0.52630812D-17
MO    6     MO 0.0        OCC NO =    2.0000000  ORB. ENERGY =   -0.574756
  0.41376978D-01  0.74625083D-01  0.11003464D+00  0.69819177D-01  0.40681229D-02
 -0.35230608D-04 -0.39666826D-02 -0.27798260D-15  0.37610910D-01 -0.28938367D-02
 -0.10373308D-16  0.12891483D-01 -0.25229084D-03 -0.26258840D-16 -0.41074819D-03
 -0.66255715D-02 -0.66390695D-02  0.13264641D-01 -0.92303747D-16 -0.45077724D-02
  0.23879551D-15 -0.19910681D-03 -0.27271583D-04  0.22637840D-03 -0.16721054D-16
 -0.76404090D-03 -0.67504888D-17 -0.30017518D-02 -0.55933225D-02 -0.94597106D-02
 -0.14245800D-01 -0.17637224D-01 -0.15008482D-01 -0.57110043D-02  0.26747069D-04
 -0.29746043D-01 -0.55774108D-01 -0.94888353D-01 -0.14735159D+00 -0.19554413D+00
 -0.20607668D+00 -0.12778069D+00  0.84999761D-01  0.47366674D-01  0.28827588D-01
  0.50713283D-02 -0.39287383D+00 -0.37735062D+00 -0.26462430D+00 -0.47290872D-15
 -0.45422318D-15 -0.31853264D-15 -0.67653937D+00 -0.64980798D+00 -0.45569021D+00
 -0.78141122D-01 -0.12182034D-15 -0.14437300D+00 -0.72805597D-02 -0.38412550D-16
 -0.11091138D-01  0.26664453D-03 -0.33738547D-17 -0.78428648D-06 -0.39686146D-01
  0.39357777D-02  0.35750368D-01  0.72083722D-17 -0.52852020D-01  0.89940402D-16
 -0.37144201D-02  0.65102439D-03  0.30633957D-02 -0.27986088D-16 -0.12940929D-01
 -0.82166721D-17 -0.37886040D-03  0.15470057D-03  0.22415983D-03 -0.13533199D-16
  0.55667860D-04 -0.15750811D-16 -0.91290121D-03  0.91481661D-17  0.36451030D-02
  0.91285735D-02 -0.61344026D-16 -0.18855148D-01 -0.63898699D-02  0.33899527D-16
  0.79198388D-02 -0.61211895D-16 -0.28754321D-03 -0.28353340D-18 -0.40096945D-04
 -0.26555570D-03 -0.52974242D-17 -0.20009653D-03  0.11281853D-02  0.61480244D-17
  0.32038736D-03  0.52352721D-17  0.13567092D-02  0.25280278D-02  0.42755287D-02
  0.64387093D-02  0.79715398D-02  0.67834206D-02  0.25812167D-02 -0.12088939D-04
  0.27298182D-01  0.51184346D-01  0.87079802D-01  0.13522574D+00  0.17945242D+00
  0.18911822D+00  0.11726536D+00 -0.78004962D-01 -0.43508884D-01 -0.31536012D-01
 -0.63154581D-02  0.46710521D+00  0.44864897D+00  0.31462363D+00 -0.66670797D-15
 -0.64036503D-15 -0.44906816D-15 -0.13086816D+00 -0.12569731D+00 -0.88147627D-01
  0.11171418D+00 -0.17169201D-15 -0.34503586D-01  0.49553136D-02 -0.23666586D-16
 -0.64900878D-02  0.24892947D-03 -0.57459267D-17  0.31687862D-04 -0.10531781D-01
  0.17748854D-02  0.87568956D-02 -0.64979497D-16  0.18542839D-01 -0.29438423D-16
 -0.19668587D-02  0.67220137D-03  0.12946573D-02 -0.32190072D-16  0.28142074D-02
 -0.12822121D-16 -0.11421447D-02  0.36331397D-03  0.77883071D-03 -0.26905403D-16