 Molden2AIM, Version 4.0.0 (06/02/2016)           Time: Fri Jun 29 04:20:01 2018
GAUSSIAN              9 MOL ORBITALS    177 PRIMITIVES        3 NUCLEI
  H    1    (CENTRE  1)  -0.00633058  0.00000000 -0.00500022  CHARGE =  1.0
  O    2    (CENTRE  2)   0.02572484  0.00000000  1.82968953  CHARGE =  8.0
  F    3    (CENTRE  3)   2.66694213  0.00000000  2.19511531  CHARGE =  9.0
CENTRE ASSIGNMENTS    1  1  1  1  1  1  1  1  1  1  1  1  1  1  1  1  1  1  1  1
CENTRE ASSIGNMENTS    1  1  1  1  1  1  1  2  2  2  2  2  2  2  2  2  2  2  2  2
CENTRE ASSIGNMENTS    2  2  2  2  2  2  2  2  2  2  2  2  2  2  2  2  2  2  2  2
CENTRE ASSIGNMENTS    2  2  2  2  2  2  2  2  2  2  2  2  2  2  2  2  2  2  2  2
CENTRE ASSIGNMENTS    2  2  2  2  2  2  2  2  2  2  2  2  2  2  2  2  2  2  2  2
CENTRE ASSIGNMENTS    2  2  3  3  3  3  3  3  3  3  3  3  3  3  3  3  3  3  3  3
CENTRE ASSIGNMENTS    3  3  3  3  3  3  3  3  3  3  3  3  3  3  3  3  3  3  3  3
CENTRE ASSIGNMENTS    3  3  3  3  3  3  3  3  3  3  3  3  3  3  3  3  3  3  3  3
CENTRE ASSIGNMENTS    3  3  3  3  3  3  3  3  3  3  3  3  3  3  3  3  3
TYPE ASSIGNMENTS      1  1  1  1  1  1  2  3  4  2  3  4  2  3  4  5  6  7  8  9
TYPE ASSIGNMENTS     10  5  6  7  8  9 10  1  1  1  1  1  1  1  1  1  1  1  1  1
TYPE ASSIGNMENTS      1  1  1  1  1  1  2  2  2  3  3  3  4  4  4  2  3  4  2  3
TYPE ASSIGNMENTS      4  2  3  4  5  6  7  8  9 10  5  6  7  8  9 10  5  6  7  8
TYPE ASSIGNMENTS      9 10 11 12 13 17 14 15 18 19 16 20 11 12 13 17 14 15 18 19
TYPE ASSIGNMENTS     16 20  1  1  1  1  1  1  1  1  1  1  1  1  1  1  1  1  1  1
TYPE ASSIGNMENTS      1  2  2  2  3  3  3  4  4  4  2  3  4  2  3  4  2  3  4  5
TYPE ASSIGNMENTS      6  7  8  9 10  5  6  7  8  9 10  5  6  7  8  9 10 11 12 13
TYPE ASSIGNMENTS     17 14 15 18 19 16 20 11 12 13 17 14 15 18 19 16 20
EXPONENTS  0.3387000D+02 0.5095000D+01 0.1159000D+01 0.3258000D+00 0.1027000D+00
EXPONENTS  0.2526000D-01 0.1407000D+01 0.1407000D+01 0.1407000D+01 0.3880000D+00
EXPONENTS  0.3880000D+00 0.3880000D+00 0.1020000D+00 0.1020000D+00 0.1020000D+00
EXPONENTS  0.1057000D+01 0.1057000D+01 0.1057000D+01 0.1057000D+01 0.1057000D+01
EXPONENTS  0.1057000D+01 0.2470000D+00 0.2470000D+00 0.2470000D+00 0.2470000D+00
EXPONENTS  0.2470000D+00 0.2470000D+00 0.1533000D+05 0.2299000D+04 0.5224000D+03
EXPONENTS  0.1473000D+03 0.4755000D+02 0.1676000D+02 0.6207000D+01 0.6882000D+00
EXPONENTS  0.1533000D+05 0.2299000D+04 0.5224000D+03 0.1473000D+03 0.4755000D+02
EXPONENTS  0.1676000D+02 0.6207000D+01 0.6882000D+00 0.1752000D+01 0.2384000D+00
EXPONENTS  0.7376000D-01 0.3446000D+02 0.7749000D+01 0.2280000D+01 0.3446000D+02
EXPONENTS  0.7749000D+01 0.2280000D+01 0.3446000D+02 0.7749000D+01 0.2280000D+01
EXPONENTS  0.7156000D+00 0.7156000D+00 0.7156000D+00 0.2140000D+00 0.2140000D+00
EXPONENTS  0.2140000D+00 0.5974000D-01 0.5974000D-01 0.5974000D-01 0.2314000D+01
EXPONENTS  0.2314000D+01 0.2314000D+01 0.2314000D+01 0.2314000D+01 0.2314000D+01
EXPONENTS  0.6450000D+00 0.6450000D+00 0.6450000D+00 0.6450000D+00 0.6450000D+00
EXPONENTS  0.6450000D+00 0.2140000D+00 0.2140000D+00 0.2140000D+00 0.2140000D+00
EXPONENTS  0.2140000D+00 0.2140000D+00 0.1428000D+01 0.1428000D+01 0.1428000D+01
EXPONENTS  0.1428000D+01 0.1428000D+01 0.1428000D+01 0.1428000D+01 0.1428000D+01
EXPONENTS  0.1428000D+01 0.1428000D+01 0.5000000D+00 0.5000000D+00 0.5000000D+00
EXPONENTS  0.5000000D+00 0.5000000D+00 0.5000000D+00 0.5000000D+00 0.5000000D+00
EXPONENTS  0.5000000D+00 0.5000000D+00 0.1950000D+05 0.2923000D+04 0.6645000D+03
EXPONENTS  0.1875000D+03 0.6062000D+02 0.2142000D+02 0.7950000D+01 0.8815000D+00
EXPONENTS  0.1950000D+05 0.2923000D+04 0.6645000D+03 0.1875000D+03 0.6062000D+02
EXPONENTS  0.2142000D+02 0.7950000D+01 0.8815000D+00 0.2257000D+01 0.3041000D+00
EXPONENTS  0.9158000D-01 0.4388000D+02 0.9926000D+01 0.2930000D+01 0.4388000D+02
EXPONENTS  0.9926000D+01 0.2930000D+01 0.4388000D+02 0.9926000D+01 0.2930000D+01
EXPONENTS  0.9132000D+00 0.9132000D+00 0.9132000D+00 0.2672000D+00 0.2672000D+00
EXPONENTS  0.2672000D+00 0.7361000D-01 0.7361000D-01 0.7361000D-01 0.3107000D+01
EXPONENTS  0.3107000D+01 0.3107000D+01 0.3107000D+01 0.3107000D+01 0.3107000D+01
EXPONENTS  0.8550000D+00 0.8550000D+00 0.8550000D+00 0.8550000D+00 0.8550000D+00
EXPONENTS  0.8550000D+00 0.2920000D+00 0.2920000D+00 0.2920000D+00 0.2920000D+00
EXPONENTS  0.2920000D+00 0.2920000D+00 0.1917000D+01 0.1917000D+01 0.1917000D+01
EXPONENTS  0.1917000D+01 0.1917000D+01 0.1917000D+01 0.1917000D+01 0.1917000D+01
EXPONENTS  0.1917000D+01 0.1917000D+01 0.7240000D+00 0.7240000D+00 0.7240000D+00
EXPONENTS  0.7240000D+00 0.7240000D+00 0.7240000D+00 0.7240000D+00 0.7240000D+00
EXPONENTS  0.7240000D+00 0.7240000D+00
MO    1     MO 0.0        OCC NO =    2.0000000  ORB. ENERGY =  -24.309907
  0.29888843D-04  0.53905760D-04  0.79484011D-04 -0.15864730D-03 -0.61460127D-04
 -0.21849477D-05  0.13064967D-03 -0.23261816D-15  0.13517174D-03 -0.15296317D-04
  0.65315112D-16 -0.96436989D-04  0.32143408D-05  0.47480208D-18 -0.11078584D-05
 -0.15712412D-03  0.11855112D-03  0.38572998D-04  0.16715337D-18  0.86602923D-04
 -0.27206983D-17 -0.26645957D-05 -0.32579182D-06  0.29903875D-05 -0.61849289D-19
  0.14157969D-04  0.12811126D-17 -0.80244016D-04 -0.14956452D-03 -0.25361187D-03
 -0.38385338D-03 -0.47893695D-03 -0.41134296D-03 -0.15792256D-03  0.70639731D-06
  0.69638646D-04  0.13060901D-03  0.22265972D-03  0.34797380D-03  0.46530728D-03
  0.49683969D-03  0.30375805D-03 -0.20040111D-03 -0.36361512D-03  0.11297480D-02
  0.38958575D-03 -0.15801158D-02 -0.15321808D-02 -0.10336001D-02  0.97353678D-18
  0.94400320D-18  0.63681898D-18 -0.24551051D-03 -0.23806261D-03 -0.16059563D-03
  0.95551776D-03 -0.28268717D-18  0.14851111D-03  0.69089694D-03 -0.18912333D-17
  0.15309892D-05  0.39421879D-04  0.11648575D-18 -0.95421066D-06 -0.98025385D-03
  0.51849927D-03  0.46175458D-03  0.23957811D-17 -0.44085254D-03  0.73706295D-17
  0.91836086D-03 -0.46015058D-03 -0.45821028D-03 -0.83771983D-18  0.41515469D-03
 -0.30228496D-17  0.10499085D-03 -0.64794897D-04 -0.40195951D-04  0.51665962D-18
  0.28232200D-04  0.20689427D-17  0.82658328D-03  0.11884408D-17 -0.11767951D-03
 -0.12555718D-02 -0.37422852D-17  0.68797806D-03 -0.12241781D-02  0.17696287D-18
 -0.33493954D-03 -0.41775200D-18  0.14411748D-03 -0.34477032D-18 -0.15846123D-04
 -0.21128536D-03  0.34591958D-18  0.45054234D-04 -0.22106708D-03  0.68839138D-18
  0.24841353D-05  0.15272328D-18  0.59301412D+00  0.11054040D+01  0.18739315D+01
  0.28376846D+01  0.35485346D+01  0.30549578D+01  0.11744373D+01 -0.50890290D-02
  0.84494800D-03  0.15866627D-02  0.27018129D-02  0.42323740D-02  0.56718790D-02
  0.61008706D-02  0.36629547D-02 -0.24089131D-02  0.67281101D-01 -0.17562199D-03
 -0.58696790D-03 -0.69234483D-02 -0.67709812D-02 -0.44738736D-02 -0.20117964D-16
 -0.19674929D-16 -0.13000057D-16 -0.13801831D-02 -0.13497889D-02 -0.89186260D-03
  0.11500627D-02  0.23650239D-17  0.21651232D-03  0.83719888D-03 -0.84294238D-18
  0.13911952D-03  0.56978935D-04 -0.28145998D-19  0.94548638D-05  0.36585044D-02
 -0.19599609D-02 -0.16985435D-02  0.95306113D-17  0.17559969D-02 -0.36414680D-17
 -0.95924982D-03  0.50964253D-03  0.44960729D-03 -0.27431564D-17 -0.47369982D-03
  0.14628349D-17 -0.15841208D-03  0.78310229D-04  0.80101853D-04  0.99131489D-18
 -0.81379351D-04 -0.27168698D-18 -0.13058386D-03 -0.17331129D-17  0.54168244D-04
  0.11762958D-03 -0.34226027D-17 -0.11489642D-03  0.27412200D-03  0.86219413D-17
 -0.47608311D-04  0.50108339D-17  0.31368531D-03  0.30116898D-18 -0.80532746D-04
 -0.47275573D-03  0.14597508D-17  0.29713053D-03 -0.46830020D-03 -0.23632577D-17
 -0.55532290D-04 -0.61300574D-18
MO    2     MO 0.0        OCC NO =    2.0000000  ORB. ENERGY =  -18.863861
  0.20391626D-03  0.36777137D-03  0.54227866D-03 -0.67530520D-03 -0.35476170D-03
  0.39715624D-05 -0.12616368D-03  0.12038867D-18 -0.79555762D-03 -0.21247695D-03
 -0.12053464D-18 -0.11132501D-02 -0.40715376D-04 -0.92837330D-20 -0.12008731D-03
  0.13119128D-02  0.11966473D-02 -0.25085601D-02 -0.24889468D-19 -0.47824366D-03
 -0.33318008D-18  0.22997800D-04  0.52284256D-04 -0.75282056D-04  0.15771724D-20
 -0.76342604D-04 -0.20790601D-19  0.49652802D+00  0.92546435D+00  0.15692809D+01
  0.23751797D+01  0.29635308D+01  0.25452777D+01  0.97718162D+00 -0.43709933D-02
  0.12257313D-03  0.22988894D-03  0.39191025D-03  0.61247943D-03  0.81900170D-03
  0.87450287D-03  0.53465391D-03 -0.35273218D-03  0.56392966D-01 -0.41886942D-03
 -0.37957511D-03  0.73475612D-02  0.71246628D-02  0.48062554D-02 -0.75317382D-18
 -0.73032526D-18 -0.49267310D-18 -0.48130751D-02 -0.46670638D-02 -0.31483737D-02
 -0.14140277D-02  0.22860681D-18 -0.14369896D-02 -0.11169005D-02 -0.19718243D-20
 -0.19719034D-03 -0.41526402D-04  0.16253753D-20 -0.75870228D-06  0.15464096D-02
 -0.34326842D-02  0.18862745D-02 -0.41424968D-17  0.19779982D-02 -0.75842734D-18
 -0.12190363D-02  0.54277845D-03  0.67625789D-03  0.17507468D-18 -0.74064454D-03
 -0.13891315D-18 -0.16697039D-03  0.14691684D-03  0.20053549D-04 -0.23695879D-19
 -0.12755567D-03 -0.13250565D-19 -0.22147808D-03 -0.16006044D-18 -0.11257709D-02
  0.28167140D-03 -0.44903281D-18  0.16669433D-02  0.38276285D-03  0.92921414D-18
  0.17103695D-02 -0.91591335D-20 -0.27525218D-03  0.34891318D-20  0.27723981D-03
  0.37867122D-03  0.10011450D-19 -0.56261187D-03  0.44708531D-03 -0.20478845D-19
 -0.26910758D-03  0.70203976D-20 -0.36839606D-03 -0.68670622D-03 -0.11641359D-02
 -0.17628448D-02 -0.22044436D-02 -0.18978206D-02 -0.72959153D-03  0.31614395D-05
  0.26388199D-03  0.49552365D-03  0.84379132D-03  0.13217941D-02  0.17713596D-02
  0.19053361D-02  0.11439613D-02 -0.75231707D-03 -0.26196392D-03  0.20375794D-02
  0.70193171D-03  0.17446954D-02  0.17062740D-02  0.11274074D-02  0.53245899D-19
  0.52073326D-19  0.34407048D-19  0.71227316D-04  0.69658760D-04  0.46026488D-04
 -0.11130372D-02 -0.33384091D-19  0.28526315D-05 -0.14858993D-02  0.19581595D-19
 -0.24308124D-03 -0.66312929D-04  0.26426955D-20 -0.20539821D-04 -0.14683896D-02
  0.75994151D-03  0.70844813D-03 -0.17261609D-18 -0.46717860D-03 -0.43498751D-19
  0.12954738D-02 -0.64763074D-03 -0.64784305D-03  0.90240032D-19  0.36724549D-03
  0.22221190D-19  0.25659758D-03 -0.15243531D-03 -0.10416227D-03 -0.27643950D-19
  0.13717067D-03 -0.90301643D-20 -0.11343690D-02  0.74388862D-20  0.25601968D-03
  0.15414322D-02 -0.96632697D-19 -0.67921614D-03  0.18616747D-02  0.74316039D-19
 -0.88842890D-04 -0.15038015D-18 -0.16164587D-03 -0.15187559D-20  0.42091457D-05
  0.31286802D-03 -0.80279169D-20 -0.14265548D-03  0.17206958D-03  0.12584185D-19
  0.13002804D-03  0.65378143D-20
MO    3     MO 0.0        OCC NO =    2.0000000  ORB. ENERGY =   -1.165644
  0.95628827D-02  0.17247053D-01  0.25430769D-01  0.48405195D-02 -0.28634006D-02
 -0.75692416D-04  0.36040855D-02 -0.10428954D-15  0.12310451D-01  0.18723352D-02
 -0.82496736D-16  0.16919316D-02 -0.22998587D-04  0.21436126D-16 -0.51596770D-03
 -0.13439471D-02 -0.92943924D-03  0.22733863D-02  0.21003634D-15  0.27401976D-02
 -0.11673947D-15 -0.19726603D-03 -0.95286654D-04  0.29255269D-03  0.26163468D-16
  0.26631991D-03  0.18574515D-16 -0.50330231D-02 -0.93809075D-02 -0.15906911D-01
 -0.24075851D-01 -0.30039632D-01 -0.25800038D-01 -0.99051361D-02  0.44306282D-04
 -0.47311182D-01 -0.88733295D-01 -0.15127082D+00 -0.23640684D+00 -0.31612099D+00
 -0.33754352D+00 -0.20636749D+00  0.13614873D+00  0.74926793D-01  0.26666387D-01
  0.12904854D-02  0.28667090D+00  0.27797434D+00  0.18751985D+00  0.11340229D-16
  0.10996207D-16  0.74179764D-17 -0.60252148D-01 -0.58424316D-01 -0.39412698D-01
  0.68493594D-01  0.87655357D-17 -0.13129581D-01  0.25502060D-03 -0.24996743D-16
 -0.36607548D-02 -0.96670918D-04  0.30900366D-17 -0.16252381D-03  0.34848384D-01
 -0.26933488D-01 -0.79148958D-02 -0.19299181D-16  0.78513059D-02 -0.42784083D-16
  0.10731785D-01 -0.80058954D-02 -0.27258895D-02  0.19236901D-16  0.20968041D-02
  0.17422814D-16 -0.56619907D-03 -0.42190907D-04  0.60838998D-03 -0.80004590D-17
 -0.27365545D-04  0.13599439D-16  0.72664758D-02  0.37437190D-17 -0.21371033D-02
 -0.13645648D-01 -0.19914513D-16  0.62020687D-02 -0.81537795D-02  0.86833560D-17
  0.20924115D-03 -0.91772939D-17  0.11465783D-02  0.23461171D-17 -0.25006509D-03
 -0.15799869D-02  0.45448497D-17  0.18858943D-03 -0.18597479D-02 -0.11583201D-16
  0.56160584D-03 -0.12419596D-16 -0.78843729D-02 -0.14696813D-01 -0.24914711D-01
 -0.37728215D-01 -0.47179265D-01 -0.40616952D-01 -0.15614639D-01  0.67660788D-04
 -0.10695389D+00 -0.20084046D+00 -0.34199666D+00 -0.53573575D+00 -0.71794893D+00
 -0.77225087D+00 -0.46365841D+00  0.30492128D+00  0.18446140D+00  0.86575068D-01
  0.22205712D-02 -0.37206138D+00 -0.36386790D+00 -0.24042291D+00 -0.89212810D-16
 -0.87248179D-16 -0.57648561D-16 -0.75340639D-01 -0.73681499D-01 -0.48684482D-01
 -0.86736289D-01 -0.90713776D-17 -0.17475135D-01 -0.11357904D-01  0.55647315D-17
 -0.25111032D-02  0.35807831D-04  0.11244849D-18 -0.25427738D-04  0.43997724D-01
 -0.23487183D-01 -0.20510541D-01  0.72537846D-17  0.23405764D-01 -0.66002859D-17
  0.16247929D-01 -0.89616069D-02 -0.72863222D-02  0.10424492D-16  0.86541654D-02
 -0.92275827D-17  0.15244010D-02 -0.90709204D-03 -0.61730895D-03 -0.62301593D-18
  0.84026025D-03  0.32057680D-17 -0.57801621D-02  0.20584637D-17  0.18825879D-02
  0.90592084D-02 -0.12663800D-18 -0.70184044D-02  0.82812778D-02 -0.60487532D-17
  0.13706409D-02  0.97556984D-17 -0.23707832D-02  0.18397958D-17  0.40404782D-03
  0.44419746D-02  0.92584385D-18 -0.21051172D-02  0.26703750D-02 -0.64452312D-17
  0.89297374D-03 -0.14850007D-17
MO    4     MO 0.0        OCC NO =    2.0000000  ORB. ENERGY =   -0.895231
  0.26100322D-01  0.47073005D-01  0.69409118D-01  0.27641784D-01 -0.17754622D-02
 -0.10609330D-03 -0.24724780D-04 -0.16703009D-16  0.31478335D-01 -0.11070567D-02
  0.31124236D-16  0.66709874D-02 -0.12226505D-03 -0.50557321D-17 -0.48215331D-03
 -0.44692208D-02 -0.43576868D-02  0.88269076D-02 -0.12065715D-15 -0.27051285D-03
  0.89709257D-16 -0.21311077D-03 -0.45259304D-04  0.25837008D-03 -0.40022534D-16
  0.34752505D-05  0.16524037D-16 -0.72561518D-02 -0.13524533D-01 -0.22933127D-01
 -0.34710356D-01 -0.43308390D-01 -0.37196132D-01 -0.14280318D-01  0.63876739D-04
 -0.84774923D-01 -0.15899747D+00 -0.27105583D+00 -0.42360750D+00 -0.56644394D+00
 -0.60483007D+00 -0.36978124D+00  0.24395920D+00  0.14199231D+00  0.71325074D-01
  0.46061577D-02 -0.53335678D-01 -0.51717666D-01 -0.34888432D-01 -0.29438670D-15
 -0.28545608D-15 -0.19256698D-15 -0.35371810D+00 -0.34298757D+00 -0.23137739D+00
 -0.50149217D-02 -0.20590665D-16 -0.75817529D-01  0.36095714D-02 -0.43004271D-16
 -0.58619981D-02  0.19710167D-03 -0.31484600D-17 -0.11698585D-03 -0.12891926D-01
 -0.17799262D-01  0.30691188D-01 -0.44416489D-16 -0.27954624D-02  0.98742854D-16
  0.59289370D-03 -0.59367230D-02  0.53438293D-02 -0.42459009D-16 -0.70083352D-05
 -0.17284949D-16  0.81798800D-03 -0.59518765D-03 -0.22280035D-03  0.93731110D-17
  0.93921120D-04  0.19071280D-16 -0.16158216D-02  0.12178494D-16 -0.11213356D-02
  0.42981299D-02 -0.19711367D-17 -0.27115533D-02  0.54933500D-03 -0.34564344D-16
  0.60755602D-02  0.39253114D-17  0.58741911D-03 -0.72403654D-19 -0.40908054D-03
 -0.11221988D-02 -0.12591280D-17  0.50740104D-03 -0.64005849D-03  0.14763389D-17
  0.71984057D-03  0.92450986D-17  0.34063951D-02  0.63496680D-02  0.10764248D-01
  0.16300244D-01  0.20383513D-01  0.17548306D-01  0.67462094D-02 -0.29232430D-04
  0.72651059D-01  0.13642582D+00  0.23230965D+00  0.36391169D+00  0.48768447D+00
  0.52457041D+00  0.31495138D+00 -0.20712528D+00 -0.12975605D+00 -0.74311984D-01
 -0.46863131D-02 -0.34165895D+00 -0.33413499D+00 -0.22077711D+00 -0.63671997D-16
 -0.62269822D-16 -0.41144304D-16 -0.84800546D-01 -0.82933082D-01 -0.54797394D-01
 -0.72304756D-01 -0.20782109D-16 -0.18214805D-01 -0.17034089D-02 -0.60833983D-17
 -0.57058660D-03  0.25379044D-03 -0.61353704D-18  0.18175738D-04  0.14146038D-01
 -0.81989749D-02 -0.59470626D-02  0.10633643D-16  0.13701047D-01  0.11662440D-16
  0.28566224D-02 -0.14328207D-02 -0.14238017D-02  0.22927920D-17  0.43175600D-02
  0.13674640D-16 -0.68564089D-03  0.35587265D-03  0.32976824D-03  0.15315287D-17
 -0.37383722D-03 -0.47481144D-17 -0.64439319D-02  0.37904339D-17  0.23015792D-02
  0.11236778D-01 -0.20336452D-16 -0.92700699D-02  0.80950182D-02  0.89651499D-17
  0.23653323D-02  0.41221319D-17  0.25706908D-03  0.52567856D-18  0.89251524D-04
 -0.48852245D-03  0.14005232D-17 -0.37454610D-03 -0.28268480D-03 -0.29775589D-17
  0.10679153D-03  0.17982480D-17
MO    5     MO 0.0        OCC NO =    2.0000000  ORB. ENERGY =   -0.532450
  0.29654717D-01  0.53483504D-01  0.78861396D-01  0.60888676D-01  0.72356831D-02
  0.41513187D-04 -0.87964813D-02 -0.16627395D-15  0.23360195D-01 -0.37134965D-02
  0.59593006D-16  0.11538017D-01 -0.14191525D-03 -0.26020766D-16 -0.10026876D-04
 -0.38252714D-02 -0.50554411D-02  0.88807125D-02 -0.87918964D-16 -0.75637758D-02
  0.36720698D-15  0.67841601D-04  0.78064210D-04 -0.14590581D-03 -0.95319809D-18
 -0.90057481D-03 -0.21765061D-16 -0.11487215D-02 -0.21410691D-02 -0.36305439D-02
 -0.54949972D-02 -0.68561522D-02 -0.58885203D-02 -0.22607175D-02  0.10112328D-04
  0.65154397D-02  0.12219869D-01  0.20832197D-01  0.32556669D-01  0.43534470D-01
  0.46484664D-01  0.28419812D-01 -0.18749666D-01 -0.82699955D-02 -0.19254770D-01
 -0.21526786D-02 -0.77232626D+00 -0.74889668D+00 -0.50520127D+00  0.28319952D-14
  0.27460828D-14  0.18524912D-14 -0.96203386D+00 -0.93284924D+00 -0.62929458D+00
 -0.18023708D+00  0.59390908D-15 -0.20697760D+00 -0.18665143D-01  0.18230290D-15
 -0.15438312D-01 -0.22371378D-03 -0.24507321D-17 -0.11976026D-03 -0.53450637D-01
 -0.15055492D-02  0.54956186D-01  0.90720230D-16 -0.17241638D-01 -0.19094528D-15
 -0.15024685D-01  0.39956561D-02  0.11029029D-01  0.13483694D-16 -0.10155208D-01
 -0.57218662D-16 -0.76308821D-04  0.75861507D-03 -0.68230625D-03  0.90576167D-18
  0.43873880D-03 -0.43072921D-16 -0.47620359D-02 -0.62731212D-17  0.23332384D-03
  0.15753274D-01  0.79354425D-16 -0.16233949D-01 -0.14671663D-02 -0.60535062D-16
  0.15533978D-01  0.53757896D-16 -0.17710330D-02 -0.10592266D-16  0.56313596D-03
  0.24873522D-02  0.57808242D-17 -0.19348209D-02  0.28257469D-02  0.25995974D-16
  0.24541304D-03  0.30852834D-16 -0.66575501D-03 -0.12409962D-02 -0.21037936D-02
 -0.31857636D-02 -0.39838085D-02 -0.34296880D-02 -0.13184973D-02  0.57132646D-05
 -0.25151397D-01 -0.47229869D-01 -0.80424322D-01 -0.12598422D+00 -0.16883368D+00
 -0.18160339D+00 -0.10903444D+00  0.71705633D-01  0.46256786D-01  0.34680162D-01
  0.41228379D-02  0.16742212D+01  0.16373518D+01  0.10818676D+01  0.19860038D-14
  0.19422683D-14  0.12833388D-14 -0.25870174D+00 -0.25300465D+00 -0.16717087D+00
  0.36676537D+00  0.43206072D-15 -0.57073216D-01  0.47307826D-01  0.54544487D-16
 -0.10142780D-01  0.50269568D-03  0.15908737D-17 -0.12136725D-03 -0.48191607D-01
  0.21432326D-01  0.26759280D-01 -0.16129607D-15  0.83707266D-02 -0.44105328D-16
 -0.15528207D-01  0.65922555D-02  0.89359510D-02 -0.59579245D-16  0.76957085D-02
  0.12430756D-17 -0.18774234D-02  0.66100980D-03  0.12164136D-02 -0.16143283D-18
  0.11321593D-02 -0.11426708D-17  0.16436772D-01 -0.14061179D-16 -0.44749313D-03
 -0.22940154D-01  0.83194466D-16  0.83599093D-03 -0.26370163D-01 -0.41010929D-16
  0.50648846D-03 -0.32568571D-16  0.27950347D-02 -0.63519977D-17  0.32959409D-03
 -0.40305870D-02  0.71031811D-17 -0.14295764D-02 -0.43545172D-02  0.11952812D-16
  0.44079414D-03  0.50242928D-17
MO    6     MO 0.0        OCC NO =    2.0000000  ORB. ENERGY =   -0.454659
 -0.17206701D-01 -0.31032994D-01 -0.45758132D-01 -0.50584497D-01 -0.74520283D-02
 -0.98359905D-04 -0.12271165D-01  0.54702622D-17 -0.11440994D-01 -0.60562150D-02
 -0.66683403D-16 -0.12253316D-01 -0.41241923D-03 -0.94332131D-17 -0.79248130D-04
  0.23217748D-02  0.36958679D-02 -0.60176427D-02 -0.16039386D-16 -0.59739867D-02
 -0.43855926D-16  0.67288723D-03 -0.26984133D-03 -0.40304590D-03 -0.43946050D-16
 -0.17201671D-03 -0.21846628D-16 -0.10291751D-02 -0.19182499D-02 -0.32527163D-02
 -0.49231376D-02 -0.61426383D-02 -0.52757071D-02 -0.20254465D-02  0.90599467D-05
 -0.34693533D-01 -0.65068580D-01 -0.11092766D+00 -0.17335835D+00 -0.23181314D+00
 -0.24752239D+00 -0.15133034D+00  0.99838565D-01  0.59041839D-01  0.69992412D-01
  0.84558199D-02 -0.84686007D+00 -0.82116940D+00 -0.55395602D+00  0.41116502D-14
  0.39869176D-14  0.26895511D-14  0.86169909D+00  0.83555826D+00  0.56366267D+00
 -0.19331843D+00  0.78849473D-15  0.18236278D+00 -0.21345786D-01  0.13135168D-15
  0.14674792D-01 -0.75083315D-04  0.25844900D-18  0.14007732D-03 -0.15977766D-01
  0.25279019D-01 -0.93012526D-02  0.70883166D-16  0.61086970D-01  0.24641371D-16
 -0.74780501D-02  0.33062791D-02  0.41717711D-02  0.17902819D-16  0.26879306D-01
 -0.35258331D-16 -0.74895589D-03 -0.54258630D-03  0.12915422D-02 -0.15770431D-19
  0.20616560D-03  0.12204580D-16 -0.81511957D-02 -0.71201871D-19 -0.47979758D-03
  0.15875316D-01  0.93131850D-16  0.12765547D-01  0.85782714D-02 -0.92918245D-16
 -0.11326154D-01  0.45780944D-16 -0.51286541D-03 -0.13498882D-16 -0.10850968D-02
  0.15247086D-02 -0.11300050D-17  0.36123122D-02  0.13887649D-04  0.41626651D-16
 -0.35702172D-03 -0.12984441D-16  0.20006338D-03  0.37292682D-03  0.63220264D-03
  0.95734111D-03  0.11971584D-02  0.10306419D-02  0.39621637D-03 -0.17168704D-05
 -0.82248252D-02 -0.15444765D-01 -0.26299771D-01 -0.41198436D-01 -0.55210751D-01
 -0.59386607D-01 -0.35655641D-01  0.23448649D-01  0.14703300D-01  0.80499671D-02
 -0.20778829D-02  0.85278366D+00  0.83400379D+00  0.55106157D+00  0.15562947D-14
  0.15220222D-14  0.10056644D-14  0.14495536D+01  0.14176318D+01  0.93668925D+00
  0.18848104D+00  0.34941420D-15  0.31698315D+00  0.30424164D-01  0.48213642D-16
  0.49244967D-01  0.81149967D-03 -0.40613314D-17  0.10928523D-02 -0.10087836D-01
  0.11714442D-01 -0.16266055D-02 -0.10711664D-15 -0.65352109D-01 -0.97359249D-16
 -0.28683778D-02  0.38704299D-02 -0.10020521D-02 -0.64908012D-16 -0.26362159D-01
  0.17351419D-16 -0.13000610D-02  0.14662183D-02 -0.16615736D-03 -0.60302044D-18
 -0.43703632D-02  0.39280156D-17  0.33570679D-02  0.55646743D-17 -0.81442213D-02
 -0.10929190D-01  0.32621897D-16  0.33180878D-01  0.85798600D-03 -0.49315920D-16
 -0.87482141D-02  0.22690291D-16  0.34139548D-03 -0.22083084D-17 -0.12428663D-02
 -0.24267732D-02  0.12262137D-16  0.62211057D-02  0.14025867D-02 -0.56372121D-17
 -0.24925067D-02 -0.10667092D-16
MO    7     MO 0.0        OCC NO =    2.0000000  ORB. ENERGY =   -0.416900
 -0.41695186D-16 -0.75198986D-16 -0.11088086D-15 -0.18754015D-16 -0.35130058D-15
 -0.37613261D-16 -0.28048217D-15  0.13175388D-01 -0.25967991D-15 -0.38899410D-15
  0.81755374D-02  0.86065525D-16 -0.92553820D-16  0.83329723D-03 -0.24334905D-16
 -0.85703059D-16 -0.68144401D-16  0.15384746D-15  0.25461524D-03 -0.31185503D-15
  0.96813742D-02 -0.11537829D-16 -0.47702112D-16  0.59239941D-16  0.53340723D-03
 -0.75804868D-16  0.10817239D-02 -0.19559050D-15 -0.36455553D-15 -0.61816538D-15
 -0.93562210D-15 -0.11673832D-14 -0.10026265D-14 -0.38492780D-15  0.17218057D-17
  0.15620807D-15  0.29297210D-15  0.49945321D-15  0.78054814D-15  0.10437416D-14
  0.11144727D-14  0.68136675D-15 -0.44952440D-15 -0.24002721D-16  0.36201035D-15
  0.25016704D-15  0.26526556D-14  0.25721836D-14  0.17351799D-14  0.96844665D+00
  0.93906748D+00  0.63348938D+00 -0.13111172D-14 -0.12713427D-14 -0.85764027D-15
  0.54341348D-15  0.22189981D+00 -0.13768455D-15  0.64675002D-15  0.30345341D-01
 -0.31809774D-15  0.54287329D-16  0.41119160D-03 -0.54034923D-16  0.42156851D-15
  0.18742817D-15 -0.60899668D-15  0.61500380D-01 -0.42589567D-15 -0.25164716D-01
  0.25147426D-15 -0.96299815D-16 -0.15517445D-15  0.25842025D-01  0.13185224D-15
 -0.45929203D-02  0.45408596D-16 -0.34271862D-16 -0.11136735D-16  0.32165099D-03
 -0.25382328D-15 -0.26452980D-03  0.78409058D-16 -0.11903973D-01  0.17735749D-15
 -0.32428438D-15  0.31454174D-01 -0.59379933D-15  0.89057205D-16  0.42577438D-02
  0.61726858D-16  0.10852726D-01 -0.55324833D-17 -0.89635318D-03 -0.68155601D-16
 -0.10973258D-15  0.36861540D-02  0.16713102D-15  0.12633003D-15 -0.99709447D-03
  0.37335783D-16  0.14636756D-03  0.11451094D-15  0.21345336D-15  0.36185592D-15
  0.54795651D-15  0.68522154D-15  0.58991192D-15  0.22678368D-15 -0.98269081D-18
 -0.19051443D-16 -0.35775236D-16 -0.60919058D-16 -0.95429343D-16 -0.12788655D-15
 -0.13755922D-15 -0.82590377D-16  0.54314907D-16 -0.17318965D-15 -0.60307318D-15
 -0.77540270D-16 -0.50134442D-14 -0.49030389D-14 -0.32396451D-14  0.21550701D+01
  0.21076115D+01  0.13925880D+01  0.25221095D-14  0.24665680D-14  0.16297657D-14
 -0.99010054D-15  0.47203361D+00  0.14953915D-16  0.16910191D-15  0.71360934D-01
  0.22323487D-15 -0.44600478D-16  0.18313715D-02  0.27144625D-16  0.89016134D-15
  0.49163511D-15 -0.13817965D-14 -0.72243369D-01 -0.14426664D-14 -0.14492669D-01
 -0.48170547D-15  0.10269718D-15  0.37900828D-15 -0.31574545D-01 -0.12939422D-15
 -0.63608558D-02 -0.19751011D-16  0.14318759D-16  0.54322521D-17 -0.27439356D-02
 -0.20663319D-15 -0.11741418D-02  0.48879149D-15 -0.99988397D-02  0.12434997D-15
 -0.15905787D-14  0.39509990D-01 -0.15604759D-14  0.12420429D-15 -0.95134715D-02
  0.11874259D-14  0.14513913D-01 -0.85660856D-16 -0.24329937D-02 -0.16135244D-15
  0.18486553D-15  0.80269872D-02  0.54037984D-15  0.72117035D-16 -0.72800608D-03
 -0.56322505D-16  0.42524783D-02
MO    8     MO 0.0        OCC NO =    2.0000000  ORB. ENERGY =   -0.331802
  0.24110344D-01  0.43483998D-01  0.64117129D-01  0.44925271D-01  0.84073670D-02
  0.13550312D-03  0.26934835D-02  0.29591421D-16  0.12242174D-01  0.78875779D-03
  0.38902684D-16  0.51393881D-02 -0.21575946D-03 -0.59509059D-16 -0.52725411D-03
 -0.30923941D-02 -0.26468558D-02  0.57392499D-02  0.34901459D-15  0.39295802D-02
  0.10063197D-15  0.45452391D-04 -0.35047179D-03  0.30501940D-03 -0.26116221D-16
  0.90041675D-03 -0.11622297D-15 -0.42953949D-04 -0.80060634D-04 -0.13575631D-03
 -0.20547350D-03 -0.25637093D-03 -0.22018844D-03 -0.84534623D-04  0.37812856D-06
  0.22448433D-01  0.42102593D-01  0.71775692D-01  0.11217143D+00  0.14999458D+00
  0.16015924D+00  0.97918221D-01 -0.64600495D-01 -0.38603957D-01 -0.44095794D-01
 -0.67392821D-02  0.37584555D+00  0.36444376D+00  0.24585161D+00  0.62192911D-14
  0.60306203D-14  0.40682208D-14 -0.86573515D+00 -0.83947187D+00 -0.56630277D+00
  0.85339028D-01  0.12845827D-14 -0.18634829D+00  0.82342655D-02  0.38621729D-15
 -0.27108782D-01  0.27640204D-03 -0.61856528D-17 -0.91893432D-03 -0.13260772D-01
 -0.20115716D-01  0.33376488D-01 -0.52183462D-16  0.81769399D-02 -0.32797173D-15
 -0.48468721D-02 -0.41199584D-02  0.89668305D-02  0.24274673D-16  0.10908211D-01
 -0.89405296D-16 -0.13097591D-02  0.33468474D-03  0.97507435D-03 -0.99609351D-17
  0.83608721D-05 -0.64149527D-16  0.15146386D-02 -0.18309080D-16 -0.74219301D-02
 -0.60865643D-02 -0.15328186D-16  0.15426124D-01  0.15426486D-02  0.70255426D-16
  0.68396666D-02  0.49145993D-16 -0.35159755D-03 -0.12677697D-16 -0.10947326D-02
  0.74980845D-03 -0.75121809D-17  0.30657929D-02  0.30498422D-03  0.45545270D-16
  0.21840476D-03 -0.36600934D-16  0.89268917D-04  0.16640113D-03  0.28209082D-03
  0.42716864D-03  0.53417588D-03  0.45987568D-03  0.17679300D-03 -0.76607301D-06
 -0.17470861D-02 -0.32807183D-02 -0.55864974D-02 -0.87512151D-02 -0.11727658D-01
 -0.12614677D-01 -0.75738356D-02  0.49808729D-02  0.33918025D-02  0.65405647D-02
  0.17092289D-02 -0.60314953D+00 -0.58986707D+00 -0.38975011D+00 -0.99447759D-14
 -0.97257736D-14 -0.64262298D-14  0.22526409D+01  0.22030336D+01  0.14556374D+01
 -0.13328323D+00 -0.21467262D-14  0.48968745D+00 -0.24182913D-01 -0.35823161D-15
  0.79495592D-01 -0.10151342D-02 -0.14232044D-16  0.30777378D-02  0.72283136D-02
 -0.44926069D-03 -0.67790529D-02  0.63631006D-16 -0.24355509D-01 -0.33522711D-17
  0.19105962D-02 -0.47402284D-03 -0.14365733D-02 -0.32212361D-17 -0.29889367D-02
 -0.39470944D-16  0.10278833D-02  0.16656310D-04 -0.10445396D-02  0.16942276D-17
 -0.54603251D-03  0.29019972D-16 -0.48448689D-02  0.31122641D-16 -0.53923335D-02
  0.45090783D-02 -0.71144079D-16  0.20597533D-01  0.10025528D-01 -0.22223843D-16
 -0.44205331D-02  0.38331233D-16 -0.61455004D-03  0.61422780D-17  0.10682956D-03
  0.41269497D-04 -0.20830466D-16  0.12008370D-02  0.18023806D-02  0.24036316D-17
 -0.15213256D-02 -0.15243944D-16
MO    9     MO 0.0        OCC NO =    2.0000000  ORB. ENERGY =   -0.265163
 -0.10000564D-15 -0.18036430D-15 -0.26594705D-15  0.35894568D-15 -0.38723635D-15
 -0.67124505D-16 -0.78050715D-16  0.22533989D-01  0.17406417D-15 -0.49978518D-15
  0.11594357D-01  0.12303580D-15 -0.12373352D-15  0.17179428D-02 -0.79027009D-16
  0.13014807D-15 -0.35258613D-15  0.22243807D-15 -0.55367685D-04 -0.30605416D-15
  0.13776303D-01 -0.59933963D-16  0.41549676D-16  0.18384286D-16 -0.61706348D-03
 -0.49568162D-16  0.12027360D-02 -0.15833249D-15 -0.29511138D-15 -0.50041112D-15
 -0.75739555D-15 -0.94500850D-15 -0.81163627D-15 -0.31160295D-15  0.13938191D-17
 -0.14602237D-16 -0.27386857D-16 -0.46688588D-16 -0.72965175D-16 -0.97568342D-16
 -0.10418024D-15 -0.63693757D-16  0.42021272D-16  0.39721746D-15  0.38784076D-15
  0.17172849D-15 -0.14514800D-14 -0.14074474D-14 -0.94945568D-15  0.16213535D+01
  0.15721675D+01  0.10605749D+01  0.37460500D-14  0.36324084D-14  0.24504013D-14
 -0.84681820D-15  0.36797120D+00  0.10187497D-14  0.68627015D-15  0.61345170D-01
  0.19022327D-15  0.27676455D-16  0.26280972D-02 -0.58782895D-16  0.21617433D-16
  0.13425284D-15 -0.15587027D-15  0.13152351D-01 -0.67574061D-15 -0.54358730D-01
  0.32477934D-15  0.48794003D-16 -0.37357334D-15 -0.24060487D-02  0.94527785D-16
 -0.15908970D-01  0.12260117D-15  0.79519618D-17 -0.13055313D-15 -0.49277090D-03
 -0.20939389D-15 -0.12077248D-02  0.64324869D-16 -0.81891751D-02  0.42842210D-15
  0.55776062D-17  0.66569345D-02 -0.11095419D-14 -0.19855221D-15  0.17910591D-01
 -0.17572436D-15  0.58611428D-02 -0.72612308D-17 -0.19270759D-04  0.33222394D-16
 -0.18003673D-15 -0.87767168D-03  0.52690900D-16  0.20182042D-15  0.93548396D-03