 Molden2AIM, Version 4.0.0 (06/02/2016)           Time: Fri Jun 29 00:17:49 2018
GAUSSIAN             25 MOL ORBITALS    458 PRIMITIVES        6 NUCLEI
  S    1    (CENTRE  1)  -2.61385784  2.05773789 -0.34947650  CHARGE = 16.0
  O    2    (CENTRE  2)  -0.15282215  1.89984372 -1.75172887  CHARGE =  8.0
  O    3    (CENTRE  3)  -2.81944114  4.19200214  1.47160343  CHARGE =  8.0
  O    4    (CENTRE  4)  -2.44884317 -0.55945720  1.53657978  CHARGE =  8.0
  O    5    (CENTRE  5)  -4.90863164  1.62875684 -1.92031701  CHARGE =  8.0
  H    6    (CENTRE  6)  -0.86108016 -1.28615327  1.01332217  CHARGE =  1.0
CENTRE ASSIGNMENTS    1  1  1  1  1  1  1  1  1  1  1  1  1  1  1  1  1  1  1  1
CENTRE ASSIGNMENTS    1  1  1  1  1  1  1  1  1  1  1  1  1  1  1  1  1  1  1  1
CENTRE ASSIGNMENTS    1  1  1  1  1  1  1  1  1  1  1  1  1  1  1  1  1  1  1  1
CENTRE ASSIGNMENTS    1  1  1  1  1  1  1  1  1  1  1  1  1  1  1  1  1  1  1  1
CENTRE ASSIGNMENTS    1  1  1  1  1  1  1  1  1  1  1  1  1  1  1  1  1  1  1  1
CENTRE ASSIGNMENTS    1  1  1  1  1  1  1  1  1  1  1  1  1  1  1  1  1  1  1  1
CENTRE ASSIGNMENTS    1  1  1  1  1  1  1  1  1  1  1  2  2  2  2  2  2  2  2  2
CENTRE ASSIGNMENTS    2  2  2  2  2  2  2  2  2  2  2  2  2  2  2  2  2  2  2  2
CENTRE ASSIGNMENTS    2  2  2  2  2  2  2  2  2  2  2  2  2  2  2  2  2  2  2  2
CENTRE ASSIGNMENTS    2  2  2  2  2  2  2  2  2  2  2  2  2  2  2  2  2  2  2  2
CENTRE ASSIGNMENTS    2  2  2  2  2  2  3  3  3  3  3  3  3  3  3  3  3  3  3  3
CENTRE ASSIGNMENTS    3  3  3  3  3  3  3  3  3  3  3  3  3  3  3  3  3  3  3  3
CENTRE ASSIGNMENTS    3  3  3  3  3  3  3  3  3  3  3  3  3  3  3  3  3  3  3  3
CENTRE ASSIGNMENTS    3  3  3  3  3  3  3  3  3  3  3  3  3  3  3  3  3  3  3  3
CENTRE ASSIGNMENTS    3  4  4  4  4  4  4  4  4  4  4  4  4  4  4  4  4  4  4  4
CENTRE ASSIGNMENTS    4  4  4  4  4  4  4  4  4  4  4  4  4  4  4  4  4  4  4  4
CENTRE ASSIGNMENTS    4  4  4  4  4  4  4  4  4  4  4  4  4  4  4  4  4  4  4  4
CENTRE ASSIGNMENTS    4  4  4  4  4  4  4  4  4  4  4  4  4  4  4  4  5  5  5  5
CENTRE ASSIGNMENTS    5  5  5  5  5  5  5  5  5  5  5  5  5  5  5  5  5  5  5  5
CENTRE ASSIGNMENTS    5  5  5  5  5  5  5  5  5  5  5  5  5  5  5  5  5  5  5  5
CENTRE ASSIGNMENTS    5  5  5  5  5  5  5  5  5  5  5  5  5  5  5  5  5  5  5  5
CENTRE ASSIGNMENTS    5  5  5  5  5  5  5  5  5  5  5  6  6  6  6  6  6  6  6  6
CENTRE ASSIGNMENTS    6  6  6  6  6  6  6  6  6  6  6  6  6  6  6  6  6  6
TYPE ASSIGNMENTS      1  1  1  1  1  1  1  1  1  1  1  1  1  1  1  1  1  1  1  1
TYPE ASSIGNMENTS      1  1  1  1  1  1  1  1  1  1  1  1  1  1  1  1  1  1  1  1
TYPE ASSIGNMENTS      1  1  2  2  2  2  2  2  2  3  3  3  3  3  3  3  4  4  4  4
TYPE ASSIGNMENTS      4  4  4  2  2  2  2  2  2  2  3  3  3  3  3  3  3  4  4  4
TYPE ASSIGNMENTS      4  4  4  4  2  3  4  2  3  4  2  3  4  5  6  7  8  9 10  5
TYPE ASSIGNMENTS      6  7  8  9 10  5  6  7  8  9 10 11 12 13 17 14 15 18 19 16
TYPE ASSIGNMENTS     20 11 12 13 17 14 15 18 19 16 20  1  1  1  1  1  1  1  1  1
TYPE ASSIGNMENTS      1  1  1  1  1  1  1  1  1  1  2  2  2  3  3  3  4  4  4  2
TYPE ASSIGNMENTS      3  4  2  3  4  2  3  4  5  6  7  8  9 10  5  6  7  8  9 10
TYPE ASSIGNMENTS      5  6  7  8  9 10 11 12 13 17 14 15 18 19 16 20 11 12 13 17
TYPE ASSIGNMENTS     14 15 18 19 16 20  1  1  1  1  1  1  1  1  1  1  1  1  1  1
TYPE ASSIGNMENTS      1  1  1  1  1  2  2  2  3  3  3  4  4  4  2  3  4  2  3  4
TYPE ASSIGNMENTS      2  3  4  5  6  7  8  9 10  5  6  7  8  9 10  5  6  7  8  9
TYPE ASSIGNMENTS     10 11 12 13 17 14 15 18 19 16 20 11 12 13 17 14 15 18 19 16
TYPE ASSIGNMENTS     20  1  1  1  1  1  1  1  1  1  1  1  1  1  1  1  1  1  1  1
TYPE ASSIGNMENTS      2  2  2  3  3  3  4  4  4  2  3  4  2  3  4  2  3  4  5  6
TYPE ASSIGNMENTS      7  8  9 10  5  6  7  8  9 10  5  6  7  8  9 10 11 12 13 17
TYPE ASSIGNMENTS     14 15 18 19 16 20 11 12 13 17 14 15 18 19 16 20  1  1  1  1
TYPE ASSIGNMENTS      1  1  1  1  1  1  1  1  1  1  1  1  1  1  1  2  2  2  3  3
TYPE ASSIGNMENTS      3  4  4  4  2  3  4  2  3  4  2  3  4  5  6  7  8  9 10  5
TYPE ASSIGNMENTS      6  7  8  9 10  5  6  7  8  9 10 11 12 13 17 14 15 18 19 16
TYPE ASSIGNMENTS     20 11 12 13 17 14 15 18 19 16 20  1  1  1  1  1  1  2  3  4
TYPE ASSIGNMENTS      2  3  4  2  3  4  5  6  7  8  9 10  5  6  7  8  9 10
EXPONENTS  0.3741000D+06 0.5605000D+05 0.1276000D+05 0.3615000D+04 0.1183000D+04
EXPONENTS  0.4288000D+03 0.1678000D+03 0.6947000D+02 0.2984000D+02 0.1272000D+02
EXPONENTS  0.5244000D+01 0.2219000D+01 0.3490000D+00 0.3741000D+06 0.5605000D+05
EXPONENTS  0.1276000D+05 0.3615000D+04 0.1183000D+04 0.4288000D+03 0.1678000D+03
EXPONENTS  0.6947000D+02 0.2984000D+02 0.1272000D+02 0.5244000D+01 0.2219000D+01
EXPONENTS  0.3490000D+00 0.3741000D+06 0.5605000D+05 0.1276000D+05 0.3615000D+04
EXPONENTS  0.1183000D+04 0.4288000D+03 0.1678000D+03 0.6947000D+02 0.2984000D+02
EXPONENTS  0.1272000D+02 0.5244000D+01 0.2219000D+01 0.3490000D+00 0.7767000D+00
EXPONENTS  0.1322000D+00 0.4970000D-01 0.5744000D+03 0.1358000D+03 0.4319000D+02
EXPONENTS  0.1587000D+02 0.6208000D+01 0.2483000D+01 0.3229000D+00 0.5744000D+03
EXPONENTS  0.1358000D+03 0.4319000D+02 0.1587000D+02 0.6208000D+01 0.2483000D+01
EXPONENTS  0.3229000D+00 0.5744000D+03 0.1358000D+03 0.4319000D+02 0.1587000D+02
EXPONENTS  0.6208000D+01 0.2483000D+01 0.3229000D+00 0.5744000D+03 0.1358000D+03
EXPONENTS  0.4319000D+02 0.1587000D+02 0.6208000D+01 0.2483000D+01 0.3229000D+00
EXPONENTS  0.5744000D+03 0.1358000D+03 0.4319000D+02 0.1587000D+02 0.6208000D+01
EXPONENTS  0.2483000D+01 0.3229000D+00 0.5744000D+03 0.1358000D+03 0.4319000D+02
EXPONENTS  0.1587000D+02 0.6208000D+01 0.2483000D+01 0.3229000D+00 0.8688000D+00
EXPONENTS  0.8688000D+00 0.8688000D+00 0.1098000D+00 0.1098000D+00 0.1098000D+00
EXPONENTS  0.3510000D-01 0.3510000D-01 0.3510000D-01 0.2690000D+00 0.2690000D+00
EXPONENTS  0.2690000D+00 0.2690000D+00 0.2690000D+00 0.2690000D+00 0.8190000D+00
EXPONENTS  0.8190000D+00 0.8190000D+00 0.8190000D+00 0.8190000D+00 0.8190000D+00
EXPONENTS  0.1010000D+00 0.1010000D+00 0.1010000D+00 0.1010000D+00 0.1010000D+00
EXPONENTS  0.1010000D+00 0.5570000D+00 0.5570000D+00 0.5570000D+00 0.5570000D+00
EXPONENTS  0.5570000D+00 0.5570000D+00 0.5570000D+00 0.5570000D+00 0.5570000D+00
EXPONENTS  0.5570000D+00 0.2180000D+00 0.2180000D+00 0.2180000D+00 0.2180000D+00
EXPONENTS  0.2180000D+00 0.2180000D+00 0.2180000D+00 0.2180000D+00 0.2180000D+00
EXPONENTS  0.2180000D+00 0.1533000D+05 0.2299000D+04 0.5224000D+03 0.1473000D+03
EXPONENTS  0.4755000D+02 0.1676000D+02 0.6207000D+01 0.6882000D+00 0.1533000D+05
EXPONENTS  0.2299000D+04 0.5224000D+03 0.1473000D+03 0.4755000D+02 0.1676000D+02
EXPONENTS  0.6207000D+01 0.6882000D+00 0.1752000D+01 0.2384000D+00 0.7376000D-01
EXPONENTS  0.3446000D+02 0.7749000D+01 0.2280000D+01 0.3446000D+02 0.7749000D+01
EXPONENTS  0.2280000D+01 0.3446000D+02 0.7749000D+01 0.2280000D+01 0.7156000D+00
EXPONENTS  0.7156000D+00 0.7156000D+00 0.2140000D+00 0.2140000D+00 0.2140000D+00
EXPONENTS  0.5974000D-01 0.5974000D-01 0.5974000D-01 0.2314000D+01 0.2314000D+01
EXPONENTS  0.2314000D+01 0.2314000D+01 0.2314000D+01 0.2314000D+01 0.6450000D+00
EXPONENTS  0.6450000D+00 0.6450000D+00 0.6450000D+00 0.6450000D+00 0.6450000D+00
EXPONENTS  0.2140000D+00 0.2140000D+00 0.2140000D+00 0.2140000D+00 0.2140000D+00
EXPONENTS  0.2140000D+00 0.1428000D+01 0.1428000D+01 0.1428000D+01 0.1428000D+01
EXPONENTS  0.1428000D+01 0.1428000D+01 0.1428000D+01 0.1428000D+01 0.1428000D+01
EXPONENTS  0.1428000D+01 0.5000000D+00 0.5000000D+00 0.5000000D+00 0.5000000D+00
EXPONENTS  0.5000000D+00 0.5000000D+00 0.5000000D+00 0.5000000D+00 0.5000000D+00
EXPONENTS  0.5000000D+00 0.1533000D+05 0.2299000D+04 0.5224000D+03 0.1473000D+03
EXPONENTS  0.4755000D+02 0.1676000D+02 0.6207000D+01 0.6882000D+00 0.1533000D+05
EXPONENTS  0.2299000D+04 0.5224000D+03 0.1473000D+03 0.4755000D+02 0.1676000D+02
EXPONENTS  0.6207000D+01 0.6882000D+00 0.1752000D+01 0.2384000D+00 0.7376000D-01
EXPONENTS  0.3446000D+02 0.7749000D+01 0.2280000D+01 0.3446000D+02 0.7749000D+01
EXPONENTS  0.2280000D+01 0.3446000D+02 0.7749000D+01 0.2280000D+01 0.7156000D+00
EXPONENTS  0.7156000D+00 0.7156000D+00 0.2140000D+00 0.2140000D+00 0.2140000D+00
EXPONENTS  0.5974000D-01 0.5974000D-01 0.5974000D-01 0.2314000D+01 0.2314000D+01
EXPONENTS  0.2314000D+01 0.2314000D+01 0.2314000D+01 0.2314000D+01 0.6450000D+00
EXPONENTS  0.6450000D+00 0.6450000D+00 0.6450000D+00 0.6450000D+00 0.6450000D+00
EXPONENTS  0.2140000D+00 0.2140000D+00 0.2140000D+00 0.2140000D+00 0.2140000D+00
EXPONENTS  0.2140000D+00 0.1428000D+01 0.1428000D+01 0.1428000D+01 0.1428000D+01
EXPONENTS  0.1428000D+01 0.1428000D+01 0.1428000D+01 0.1428000D+01 0.1428000D+01
EXPONENTS  0.1428000D+01 0.5000000D+00 0.5000000D+00 0.5000000D+00 0.5000000D+00
EXPONENTS  0.5000000D+00 0.5000000D+00 0.5000000D+00 0.5000000D+00 0.5000000D+00
EXPONENTS  0.5000000D+00 0.1533000D+05 0.2299000D+04 0.5224000D+03 0.1473000D+03
EXPONENTS  0.4755000D+02 0.1676000D+02 0.6207000D+01 0.6882000D+00 0.1533000D+05
EXPONENTS  0.2299000D+04 0.5224000D+03 0.1473000D+03 0.4755000D+02 0.1676000D+02
EXPONENTS  0.6207000D+01 0.6882000D+00 0.1752000D+01 0.2384000D+00 0.7376000D-01
EXPONENTS  0.3446000D+02 0.7749000D+01 0.2280000D+01 0.3446000D+02 0.7749000D+01
EXPONENTS  0.2280000D+01 0.3446000D+02 0.7749000D+01 0.2280000D+01 0.7156000D+00
EXPONENTS  0.7156000D+00 0.7156000D+00 0.2140000D+00 0.2140000D+00 0.2140000D+00
EXPONENTS  0.5974000D-01 0.5974000D-01 0.5974000D-01 0.2314000D+01 0.2314000D+01
EXPONENTS  0.2314000D+01 0.2314000D+01 0.2314000D+01 0.2314000D+01 0.6450000D+00
EXPONENTS  0.6450000D+00 0.6450000D+00 0.6450000D+00 0.6450000D+00 0.6450000D+00
EXPONENTS  0.2140000D+00 0.2140000D+00 0.2140000D+00 0.2140000D+00 0.2140000D+00
EXPONENTS  0.2140000D+00 0.1428000D+01 0.1428000D+01 0.1428000D+01 0.1428000D+01
EXPONENTS  0.1428000D+01 0.1428000D+01 0.1428000D+01 0.1428000D+01 0.1428000D+01
EXPONENTS  0.1428000D+01 0.5000000D+00 0.5000000D+00 0.5000000D+00 0.5000000D+00
EXPONENTS  0.5000000D+00 0.5000000D+00 0.5000000D+00 0.5000000D+00 0.5000000D+00
EXPONENTS  0.5000000D+00 0.1533000D+05 0.2299000D+04 0.5224000D+03 0.1473000D+03
EXPONENTS  0.4755000D+02 0.1676000D+02 0.6207000D+01 0.6882000D+00 0.1533000D+05
EXPONENTS  0.2299000D+04 0.5224000D+03 0.1473000D+03 0.4755000D+02 0.1676000D+02
EXPONENTS  0.6207000D+01 0.6882000D+00 0.1752000D+01 0.2384000D+00 0.7376000D-01
EXPONENTS  0.3446000D+02 0.7749000D+01 0.2280000D+01 0.3446000D+02 0.7749000D+01
EXPONENTS  0.2280000D+01 0.3446000D+02 0.7749000D+01 0.2280000D+01 0.7156000D+00
EXPONENTS  0.7156000D+00 0.7156000D+00 0.2140000D+00 0.2140000D+00 0.2140000D+00
EXPONENTS  0.5974000D-01 0.5974000D-01 0.5974000D-01 0.2314000D+01 0.2314000D+01
EXPONENTS  0.2314000D+01 0.2314000D+01 0.2314000D+01 0.2314000D+01 0.6450000D+00
EXPONENTS  0.6450000D+00 0.6450000D+00 0.6450000D+00 0.6450000D+00 0.6450000D+00
EXPONENTS  0.2140000D+00 0.2140000D+00 0.2140000D+00 0.2140000D+00 0.2140000D+00
EXPONENTS  0.2140000D+00 0.1428000D+01 0.1428000D+01 0.1428000D+01 0.1428000D+01
EXPONENTS  0.1428000D+01 0.1428000D+01 0.1428000D+01 0.1428000D+01 0.1428000D+01
EXPONENTS  0.1428000D+01 0.5000000D+00 0.5000000D+00 0.5000000D+00 0.5000000D+00
EXPONENTS  0.5000000D+00 0.5000000D+00 0.5000000D+00 0.5000000D+00 0.5000000D+00
EXPONENTS  0.5000000D+00 0.3387000D+02 0.5095000D+01 0.1159000D+01 0.3258000D+00
EXPONENTS  0.1027000D+00 0.2526000D-01 0.1407000D+01 0.1407000D+01 0.1407000D+01
EXPONENTS  0.3880000D+00 0.3880000D+00 0.3880000D+00 0.1020000D+00 0.1020000D+00
EXPONENTS  0.1020000D+00 0.1057000D+01 0.1057000D+01 0.1057000D+01 0.1057000D+01
EXPONENTS  0.1057000D+01 0.1057000D+01 0.2470000D+00 0.2470000D+00 0.2470000D+00
EXPONENTS  0.2470000D+00 0.2470000D+00 0.2470000D+00
MO    1     MO 0.0        OCC NO =    2.0000000  ORB. ENERGY =  -88.106907
  0.58597977D+00  0.10954551D+01  0.18932885D+01  0.30623091D+01  0.46285010D+01
  0.63742053D+01  0.74499682D+01  0.64373346D+01  0.30023958D+01  0.40766048D+00
  0.10916143D-02  0.21412961D-02  0.97759110D-04 -0.26634201D-02 -0.49740505D-02
 -0.86282603D-02 -0.13990426D-01 -0.21539853D-01 -0.30677589D-01 -0.39447397D-01
 -0.41408029D-01 -0.29278411D-01  0.64838266D-03  0.21036916D-01  0.11583497D-01
 -0.48986413D-04  0.13461426D-02  0.25121012D-02  0.43632190D-02  0.70674467D-02
  0.10917137D-01  0.15564019D-01  0.20243705D-01  0.21574332D-01  0.16001234D-01
 -0.49805898D-03 -0.14496284D-01 -0.14201355D-01  0.66328750D-02 -0.39991807D-02
 -0.33302424D-02 -0.15226580D-03  0.62026370D-03  0.81375220D-03  0.89256214D-03
  0.73441427D-03  0.38719773D-03  0.10073055D-03 -0.11146862D-06 -0.17205660D-02
 -0.22572889D-02 -0.24759019D-02 -0.20372113D-02 -0.10740581D-02 -0.27941915D-03
  0.30920578D-06  0.90993711D-03  0.11937879D-02  0.13094034D-02  0.10773979D-02
  0.56802547D-03  0.14777338D-03 -0.16352631D-06 -0.51185925D-03 -0.67207431D-03
 -0.75612892D-03 -0.63709578D-03 -0.35638245D-03 -0.88702865D-04  0.40683408D-04
  0.12858716D-02  0.16883572D-02  0.18995157D-02  0.16004856D-02  0.89528920D-03
  0.22283566D-03 -0.10220317D-03 -0.65084708D-03 -0.85456618D-03 -0.96144457D-03
 -0.81008975D-03 -0.45315285D-03 -0.11278882D-03  0.51730388D-04 -0.57839287D-04
  0.19219466D-03 -0.10653607D-03 -0.73147577D-04  0.15706242D-03 -0.74989784D-04
  0.12058126D-05 -0.81098422D-06 -0.16819243D-06  0.13402414D-04 -0.81773223D-05
 -0.52250918D-05 -0.78557955D-05  0.19576018D-04  0.59512167D-04  0.19600991D-03
 -0.16590565D-03 -0.30104256D-04 -0.53160375D-04  0.31736328D-04  0.57353914D-03
  0.15189325D-05 -0.81704551D-05  0.66515226D-05  0.22421713D-04 -0.68178136D-05
  0.11395221D-04  0.31139081D-04  0.27162780D-04  0.44991866D-04 -0.74171065D-05
 -0.19931518D-03 -0.90782588D-03 -0.86000136D-04  0.11782683D-03  0.77285028D-03
 -0.28743986D-03 -0.15186253D-04 -0.13265156D-04 -0.13510890D-04  0.27364903D-05
  0.70565233D-04  0.37276507D-03  0.42822267D-04 -0.30769764D-04 -0.33223240D-03
  0.91999830D-04  0.12401772D-04  0.23115308D-04  0.39195903D-04  0.59324824D-04
  0.74020060D-04  0.63573360D-04  0.24407049D-04 -0.10917423D-06 -0.15214106D-04
 -0.28534432D-04 -0.48644951D-04 -0.76022590D-04 -0.10165669D-03 -0.10854564D-03
 -0.66362678D-04  0.43782064D-04  0.18228111D-03  0.99141514D-03  0.75176600D-04
 -0.40793764D-03 -0.39556229D-03 -0.26684398D-03  0.16556292D-03  0.16054034D-03
  0.10829956D-03  0.13229013D-03  0.12827693D-03  0.86534856D-04  0.21013806D-03
 -0.11415794D-03 -0.47594721D-04 -0.16655438D-04  0.74147326D-04 -0.47481973D-04
 -0.29253608D-06  0.12885309D-07  0.12882620D-06  0.47246671D-03 -0.39912365D-03
 -0.73343066D-04 -0.46700969D-04 -0.81777863D-03  0.30261838D-03 -0.35888316D-03
  0.28880678D-03  0.70076374D-04  0.76197936D-04  0.65108396D-03 -0.15993196D-03
 -0.55740126D-04  0.60009682D-04 -0.42695561D-05 -0.41632437D-04  0.15474613D-03
  0.45357202D-06  0.46264744D-05  0.10257463D-04  0.63096518D-04 -0.19883789D-04
 -0.19383647D-03  0.16941819D-03  0.60043663D-05  0.16306408D-03 -0.35870774D-03
  0.31468446D-04  0.56835782D-04  0.12723566D-04  0.54858697D-04 -0.21245177D-03
  0.17043980D-04 -0.40761856D-03  0.41944424D-04 -0.55214676D-04  0.24304247D-03
  0.58780830D-04  0.32252085D-04  0.60113736D-04  0.10193298D-03  0.15428031D-03
  0.19249678D-03  0.16532906D-03  0.63473042D-04 -0.28391881D-06 -0.28834873D-04
 -0.54080518D-04 -0.92195428D-04 -0.14408351D-03 -0.19266710D-03 -0.20572355D-03
 -0.12577534D-03  0.82978933D-04  0.18833236D-03  0.90588765D-03  0.60721611D-04
  0.38417441D-04  0.37251995D-04  0.25129976D-04 -0.32534204D-03 -0.31547234D-03
 -0.21281578D-03 -0.32843009D-03 -0.31846671D-03 -0.21483576D-03 -0.19586892D-04
  0.17417789D-03  0.18495468D-03  0.90860636D-05  0.89109377D-04 -0.15642135D-04
 -0.22737405D-05  0.55170721D-05 -0.97727878D-06 -0.24955564D-03  0.20412956D-03
  0.45426083D-04 -0.16363473D-03 -0.44793691D-04  0.10541057D-02  0.24276982D-03
 -0.18067165D-03 -0.62098176D-04  0.11028468D-03  0.59902757D-04 -0.83744631D-03
  0.36975277D-04 -0.58754512D-04  0.21779235D-04  0.17906004D-04  0.84354817D-05
 -0.19469028D-03  0.10743072D-04  0.64291826D-04  0.63863359D-04  0.19079854D-04
 -0.37173854D-03  0.24243643D-03 -0.51309071D-04  0.17886307D-03 -0.43402651D-03
  0.36813370D-04  0.17313514D-04 -0.26621459D-04 -0.69115098D-04 -0.45038857D-04
 -0.87443450D-04 -0.24167325D-03 -0.69016843D-05  0.16730783D-03  0.44901854D-03
 -0.11003300D-03 -0.47171144D-04 -0.87920943D-04 -0.14908479D-03 -0.22564677D-03
 -0.28154129D-03 -0.24180642D-03 -0.92834186D-04  0.41525301D-06  0.26608579D-04
  0.49905050D-04  0.85077170D-04  0.13295906D-03  0.17779159D-03  0.18983997D-03
  0.11606444D-03 -0.76572265D-04  0.12150534D-03  0.68691168D-03 -0.42699716D-04
 -0.40079545D-05 -0.38863677D-05 -0.26217207D-05  0.13204812D-03  0.12804226D-03
  0.86376550D-04 -0.10087914D-03 -0.97818836D-04 -0.65988009D-04 -0.71841569D-04
  0.92966561D-04 -0.21027941D-04 -0.35323681D-03  0.45825136D-03 -0.11208950D-03
 -0.11264071D-04  0.71819007D-05  0.24937805D-05 -0.19948898D-03  0.21451207D-03
 -0.15023091D-04 -0.12281882D-03 -0.91873292D-04 -0.76855492D-03  0.30386161D-04
 -0.64715557D-04  0.34329396D-04  0.12762571D-03  0.94775635D-04  0.27787268D-03
 -0.75321911D-05 -0.61473272D-05  0.13679518D-04  0.41546113D-04  0.57246953D-04
  0.65280282D-04 -0.23201540D-04 -0.39123586D-05  0.64101226D-04  0.16060217D-04
 -0.19180210D-03  0.32096423D-03  0.53544403D-04  0.20353917D-03 -0.51326791D-03
 -0.10605724D-04  0.59559292D-06 -0.15701542D-04 -0.61925740D-04 -0.90209563D-05
  0.22037722D-03 -0.19298266D-03  0.72341775D-05 -0.17327259D-03  0.37875988D-03
 -0.41287127D-04  0.32017706D-04  0.59676885D-04  0.10119222D-03  0.15315914D-03
  0.19109789D-03  0.16412760D-03  0.63011779D-04 -0.28185555D-06 -0.28710164D-04
 -0.53846624D-04 -0.91796690D-04 -0.14346036D-03 -0.19183383D-03 -0.20483381D-03
 -0.12523137D-03  0.82620055D-04  0.18892874D-03  0.90578569D-03  0.58150626D-04
  0.38861716D-03  0.37682792D-03  0.25420589D-03  0.95106360D-04  0.92221177D-04
  0.62211861D-04  0.23674538D-03  0.22956338D-03  0.15486210D-03 -0.21354857D-03
 -0.57464277D-04 -0.12706771D-03 -0.29386411D-04  0.54208875D-04 -0.68505207D-04
 -0.36251446D-05  0.39565476D-05 -0.29385631D-05  0.35420301D-03 -0.31651550D-03
 -0.37687517D-04  0.13729743D-03  0.88780176D-03  0.29762604D-03 -0.28282050D-03
  0.25596471D-03  0.26855786D-04 -0.17126548D-03 -0.74034467D-03 -0.18937982D-03
 -0.59082089D-04  0.73621546D-04 -0.14539458D-04  0.11813142D-04 -0.16702015D-03
 -0.44968773D-04  0.16219594D-04  0.16956463D-04  0.78817102D-04  0.53165778D-04
 -0.30499278D-03  0.20983752D-03 -0.10182456D-03  0.25412340D-03 -0.44628883D-03
  0.13379337D-03 -0.27859356D-04  0.33239310D-04  0.48797743D-04  0.17277619D-03
 -0.49298187D-05 -0.40879267D-03 -0.89198123D-04 -0.94788111D-04  0.26239944D-03
 -0.21911967D-03 -0.34530058D-04 -0.62276381D-04 -0.91826488D-04  0.64222577D-03
  0.43580827D-03  0.74006609D-05 -0.10063452D-03 -0.17817846D-03  0.18806181D-03
 -0.18217191D-03  0.20322482D-03 -0.29371811D-04 -0.58227553D-04  0.59375237D-04
 -0.65330356D-05  0.17784069D-04  0.12530836D-04 -0.30314905D-04 -0.79723476D-04
 -0.98793260D-04 -0.11607837D-03 -0.27522372D-04  0.16561465D-04  0.10960907D-04
  0.29186628D-04 -0.70408421D-06 -0.60386817D-04
MO    2     MO 0.0        OCC NO =    2.0000000  ORB. ENERGY =  -18.605893
  0.11743115D-04  0.21953072D-04  0.37941762D-04  0.61369098D-04  0.92755798D-04
  0.12773995D-03  0.14929839D-03  0.12900507D-03  0.60168425D-04  0.81695723D-05
  0.21876102D-07  0.42911868D-07  0.19591060D-08  0.27554372D-05  0.51458963D-05
  0.89263533D-05  0.14473773D-04  0.22284022D-04  0.31737452D-04  0.40810244D-04
  0.42838612D-04  0.30289934D-04 -0.67078328D-06 -0.21763709D-04 -0.11983689D-04
  0.50678818D-07 -0.17150932D-04 -0.32006177D-04 -0.55590899D-04 -0.90044922D-04
 -0.13909305D-03 -0.19829804D-03 -0.25792098D-03 -0.27487424D-03 -0.20386851D-03
  0.63456696D-05  0.18469425D-03  0.18093662D-03 -0.84508131D-04 -0.75188978D-03
  0.19644018D-02  0.60163909D-03 -0.16222894D-03 -0.21283554D-03 -0.23344814D-03
 -0.19208483D-03 -0.10127092D-03 -0.26345908D-04  0.29154433D-07 -0.15983754D-01
 -0.20969815D-01 -0.23000691D-01 -0.18925333D-01 -0.99778098D-02 -0.25957545D-02
  0.28724670D-05  0.12398898D-01  0.16266678D-01  0.17842067D-01  0.14680735D-01
  0.77399740D-02  0.20135754D-02 -0.22282265D-05  0.21226877D-03  0.27871019D-03
  0.31356776D-03  0.26420454D-03  0.14779232D-03  0.36785207D-04 -0.16871468D-04
  0.14098918D-01  0.18511965D-01  0.20827209D-01  0.17548498D-01  0.98163840D-02
  0.24432780D-02 -0.11206050D-02 -0.10990372D-01 -0.14430426D-01 -0.16235202D-01
 -0.13679385D-01 -0.76520562D-02 -0.19045812D-02  0.87353272D-03 -0.56308306D-04
  0.10431299D-02 -0.75550895D-03  0.14416645D-03 -0.40085675D-03  0.20275817D-03
  0.49988693D-05 -0.14682362D-04  0.71512461D-05 -0.35108602D-03  0.36942377D-03
 -0.18337744D-04 -0.17154310D-03  0.89814598D-04 -0.10141555D-02 -0.35299834D-04
 -0.20025013D-04  0.55324846D-04  0.15507154D-03 -0.43932787D-04 -0.39882317D-04
 -0.99390639D-05  0.22160250D-04 -0.12221186D-04 -0.40141982D-04  0.29475332D-06
 -0.57513755D-04 -0.10118761D-04 -0.22338332D-04 -0.13413206D-03  0.40545056D-04
  0.40700634D-03 -0.27028838D-03 -0.10188772D-04 -0.33999135D-03  0.67268457D-03
 -0.71148868D-05 -0.10858315D-04 -0.89739163D-05 -0.27177026D-04  0.24502456D-04
  0.76273527D-04 -0.56609053D-04  0.80724898D-05 -0.49351778D-04  0.13814013D-03
 -0.30974544D-04  0.75265982D-04  0.14028611D-03  0.23787875D-03  0.36004057D-03
  0.44922552D-03  0.38582481D-03  0.14812565D-03 -0.66257510D-06 -0.47622890D-04
 -0.89317911D-04 -0.15226746D-03 -0.23796440D-03 -0.31820374D-03 -0.33976741D-03
 -0.20772713D-03  0.13704574D-03 -0.24128301D-04 -0.21415843D-03 -0.18460658D-03
  0.26032487D-04  0.25242756D-04  0.17028614D-04  0.34699124D-04  0.33646478D-04
  0.22697715D-04 -0.42393807D-04 -0.41107732D-04 -0.27731033D-04 -0.63400837D-04
 -0.26276713D-04  0.57612110D-04  0.81040316D-04 -0.95741434D-04  0.47290833D-04
  0.74347048D-05 -0.13551589D-05 -0.20248352D-05  0.22981134D-04  0.89266836D-05
 -0.31907818D-04 -0.70620022D-04 -0.63791617D-04 -0.10862484D-03 -0.24230186D-04
 -0.50102064D-05  0.29240393D-04  0.72695882D-04  0.98399619D-05  0.21245499D-04
 -0.47629932D-05 -0.16668210D-04  0.21431203D-04  0.55767589D-04 -0.51291362D-04
 -0.16330276D-04  0.52118130D-04  0.22557383D-04 -0.77159766D-05 -0.14210602D-03
  0.10329104D-03 -0.17043999D-03 -0.14248372D-04 -0.17096319D-03  0.19358792D-03
  0.22599418D-03 -0.60049316D-05  0.17935067D-05  0.11814044D-04  0.34647711D-04
 -0.70352483D-04  0.33299320D-04 -0.16632916D-04  0.64971963D-04 -0.68741453D-04
 -0.42523502D-04  0.58749786D-04  0.10950204D-03  0.18567918D-03  0.28103409D-03
  0.35064849D-03  0.30116029D-03  0.11562129D-03 -0.51718113D-06 -0.36824152D-04
 -0.69064609D-04 -0.11774002D-03 -0.18400473D-03 -0.24604938D-03 -0.26272338D-03
 -0.16062392D-03  0.10596991D-03 -0.16231037D-04 -0.12564064D-03 -0.11422663D-03
 -0.23590842D-04 -0.22875182D-04 -0.15431462D-04  0.90047289D-04  0.87315580D-04
  0.58902574D-04 -0.19618881D-04 -0.19023715D-04 -0.12833286D-04  0.23788999D-04
 -0.11096491D-03 -0.12682931D-04 -0.72281393D-05 -0.43888596D-04  0.20494589D-03
  0.17932914D-05 -0.27691714D-05  0.10315703D-04 -0.11398730D-03 -0.40671460D-04
  0.15465876D-03  0.33275952D-04 -0.11120962D-04  0.72539924D-05  0.46228583D-04
  0.67353394D-04 -0.11358198D-03 -0.29698302D-04  0.94668811D-05 -0.40422819D-04
  0.17003938D-05  0.45135784D-04 -0.46836178D-04  0.14455487D-04 -0.33389835D-06
 -0.13297663D-04 -0.36444542D-04 -0.80119462D-04 -0.56733335D-04  0.14546001D-03
  0.14843051D-03 -0.10541229D-03 -0.36126385D-04  0.91927875D-04  0.27561230D-03
 -0.10573693D-03  0.13363472D-04  0.12820284D-05  0.33465297D-04 -0.43114692D-04
 -0.64881411D-04  0.48933246D-05  0.30242771D-05  0.61035326D-04 -0.10528922D-03
  0.22053228D-04  0.49665000D+00  0.92569169D+00  0.15696664D+01  0.23757632D+01
  0.29642588D+01  0.25459030D+01  0.97742166D+00 -0.43720671D-02  0.20431328D-04
  0.38319462D-04  0.65326283D-04  0.10209226D-03  0.13651681D-03  0.14576812D-03
  0.89119773D-04 -0.58795814D-04  0.56396130D-01 -0.69942151D-03 -0.63997008D-03
  0.42316495D-02  0.41032766D-02  0.27680461D-02  0.18158579D-02  0.17607714D-02
  0.11878060D-02 -0.42793753D-02 -0.41495546D-02 -0.27992650D-02  0.12985126D-02
 -0.12398475D-02  0.66988122D-04  0.14919375D-04 -0.11299193D-02  0.85502805D-03
  0.13076193D-04 -0.73360124D-04  0.47507535D-04  0.10692948D-02  0.31810798D-03
 -0.13874028D-02 -0.42543034D-02 -0.22371546D-02 -0.21371049D-02  0.53261271D-03
 -0.52473590D-03 -0.78768090D-05  0.14106718D-03 -0.27113224D-03  0.13380354D-02
  0.51594049D-04 -0.75437834D-04  0.23843785D-04  0.98258423D-04  0.68687957D-04
  0.29127363D-03  0.44483221D-03  0.52313061D-03  0.51143770D-03 -0.52976717D-03
 -0.19902778D-02 -0.14872123D-02 -0.80472946D-03  0.42088594D-03 -0.47100821D-04
  0.18688218D-02 -0.98367423D-04 -0.13073439D-03 -0.17150171D-03  0.93648026D-04
  0.66971872D-03  0.10077386D-03  0.20145424D-03 -0.27751555D-03  0.41373126D-03
 -0.43746029D-03  0.60611251D-04  0.11297157D-03  0.19156236D-03  0.28993855D-03
  0.36175865D-03  0.31070244D-03  0.11928471D-03 -0.53356782D-06 -0.38135603D-04
 -0.71524268D-04 -0.12193320D-03 -0.19055785D-03 -0.25481216D-03 -0.27207998D-03
 -0.16634436D-03  0.10974391D-03 -0.18235656D-04 -0.12430026D-03 -0.11436623D-03
 -0.51877485D-04 -0.50303710D-04 -0.33934585D-04  0.74232678D-04  0.71980728D-04
  0.48557774D-04 -0.50485431D-04 -0.48953885D-04 -0.33024002D-04  0.81059046D-04
 -0.56566875D-04  0.69412571D-04 -0.95999449D-04 -0.17279717D-03  0.21963506D-04
 -0.32950112D-05 -0.93164564D-05  0.10004021D-05 -0.47189139D-05  0.43156398D-04
 -0.38437484D-04  0.25215928D-03  0.55943306D-04 -0.33146568D-04 -0.12958236D-04
 -0.22282270D-04  0.35240505D-04 -0.18585174D-03 -0.16950638D-05 -0.44500766D-04
 -0.10340506D-04 -0.19987601D-04  0.30328108D-04 -0.59050009D-04  0.23969147D-04
 -0.35235235D-04 -0.53843688D-04  0.29644367D-04 -0.53120226D-04  0.13049447D-03
  0.39064357D-04 -0.10513248D-03  0.31036594D-04 -0.12799746D-03  0.26449316D-03
 -0.33938674D-03  0.87794868D-05  0.10135789D-04  0.31151365D-04 -0.42264393D-04
 -0.76241759D-04  0.12629483D-04  0.15925932D-04  0.45834394D-04 -0.10608358D-03
  0.17599716D-04  0.21866489D-03  0.39437113D-03  0.58150000D-03 -0.63452593D-03
 -0.61741588D-03 -0.41881130D-04  0.71995429D-03 -0.38757412D-03 -0.19618808D-03
  0.10197745D-02 -0.54320705D-03 -0.27648656D-03  0.14171347D-03 -0.11148404D-03
 -0.10349208D-04 -0.16706274D-02  0.62541981D-03  0.10452076D-02  0.29097266D-02
  0.18045304D-02 -0.95408932D-03 -0.41642899D-04  0.40614309D-05  0.37581468D-04
  0.11122811D-03  0.49411893D-04  0.71405613D-05
MO    3     MO 0.0        OCC NO =    2.0000000  ORB. ENERGY =  -18.555661
  0.13594676D-03  0.25414457D-03  0.43924116D-03  0.71045287D-03  0.10738079D-02
  0.14788097D-02  0.17283857D-02  0.14934556D-02  0.69655302D-03  0.94576852D-04
  0.25325351D-06  0.49677869D-06  0.22680022D-07 -0.24060118D-03 -0.44933295D-03
 -0.77943753D-03 -0.12638310D-02 -0.19458117D-02 -0.27712729D-02 -0.35634972D-02
 -0.37406117D-02 -0.26448775D-02  0.58571921D-04  0.19003787D-02  0.10464001D-02
 -0.44252082D-05  0.13156245D-03  0.24551499D-03  0.42643014D-03  0.69072222D-03
  0.10669637D-02  0.15211170D-02  0.19784764D-02  0.21085225D-02  0.15638473D-02
 -0.48676759D-04 -0.14167642D-02 -0.13879399D-02  0.64825026D-03 -0.77351207D-03
  0.27085042D-02  0.70586426D-03  0.26280276D-01  0.34478292D-01  0.37817431D-01
  0.31116781D-01  0.16405382D-01  0.42679051D-02 -0.47228721D-05 -0.18086339D-02
 -0.23728292D-02 -0.26026320D-02 -0.21414868D-02 -0.11290342D-02 -0.29372134D-03
  0.32503261D-06 -0.14921904D-01 -0.19576726D-01 -0.21472684D-01 -0.17668065D-01
 -0.93149532D-02 -0.24233106D-02  0.26816402D-05 -0.24586392D-01 -0.32282082D-01
 -0.36319519D-01 -0.30601941D-01 -0.17118297D-01 -0.42607092D-02  0.19541665D-02
  0.16994971D-02  0.22314500D-02  0.25105318D-02  0.21153128D-02  0.11832763D-02
  0.29451507D-03 -0.13507880D-03  0.13954844D-01  0.18322795D-01  0.20614379D-01
  0.17369173D-01  0.97160720D-02  0.24183105D-02 -0.11091537D-02 -0.54438427D-03
  0.27492189D-04  0.31563253D-03  0.28953989D-03 -0.92299553D-04 -0.10829709D-03
  0.11074652D-04 -0.13033200D-04  0.28406065D-05  0.29386623D-03 -0.23398267D-03
 -0.59883564D-04 -0.63676161D-04 -0.59947598D-03  0.37588861D-04  0.55214995D-03
 -0.44631328D-03 -0.10583667D-03 -0.81490884D-04 -0.12035365D-02  0.12322732D-04
  0.31235171D-05 -0.35769491D-05  0.45343193D-06  0.21905594D-05 -0.48073896D-05
  0.54816553D-05  0.95423321D-04  0.27632109D-04  0.10675512D-03 -0.35020932D-03
 -0.34230068D-04 -0.50867908D-03  0.63939360D-04 -0.48666260D-04  0.18841373D-03
  0.15902479D-03  0.16312098D-05  0.13823060D-05  0.51947065D-05  0.19741893D-05
 -0.20817617D-04 -0.98622534D-04 -0.68678186D-05  0.16670699D-04  0.83038414D-04
 -0.38551364D-04  0.49598148D+00  0.92444566D+00  0.15675535D+01  0.23725653D+01
  0.29602688D+01  0.25424761D+01  0.97610600D+00 -0.43661820D-02  0.48779396D-03
  0.91486966D-03  0.15596522D-02  0.24374328D-02  0.32593121D-02  0.34801854D-02
  0.21277171D-02 -0.14037385D-02  0.56667534D-01 -0.18094435D-02 -0.10354485D-02
 -0.61813147D-02 -0.59937960D-02 -0.40433794D-02  0.15847289D-03  0.15366540D-03
  0.10366177D-03  0.36929821D-02  0.35809504D-02  0.24156880D-02  0.12180797D-02
  0.42871745D-05 -0.75353288D-03  0.14843287D-02 -0.14737756D-03 -0.80772139D-03
  0.84288954D-04 -0.15331799D-05 -0.50989282D-04  0.17308809D-02 -0.13294210D-02
 -0.40145986D-03 -0.48890064D-03 -0.36480761D-02  0.28531048D-04 -0.70543993D-03
  0.55033671D-03  0.15510322D-03  0.17327076D-03  0.14842813D-02 -0.32961784D-04
 -0.17342868D-03  0.13193035D-03  0.41498324D-04  0.58547852D-04  0.33174109D-03
 -0.38374041D-04 -0.28811225D-04 -0.15851913D-04 -0.30343618D-04  0.73735980D-04
  0.59999193D-04  0.16063306D-03  0.12697695D-04 -0.12443454D-04 -0.69602208D-04