 Molden2AIM, Version 4.0.0 (06/02/2016)           Time: Fri Jun 29 01:08:54 2018
GAUSSIAN             42 MOL ORBITALS    676 PRIMITIVES        4 NUCLEI
  Br   1    (CENTRE  1)  -0.63554135  0.00000000 -1.56705350  CHARGE = 35.0
  N    2    (CENTRE  2)   0.01665038  0.00000000  2.09349718  CHARGE =  7.0
  N    3    (CENTRE  3)   2.25220961  0.00000000  2.45068755  CHARGE =  7.0
  Br   4    (CENTRE  4)   2.90440323  0.00000000  6.11123823  CHARGE = 35.0
CENTRE ASSIGNMENTS    1  1  1  1  1  1  1  1  1  1  1  1  1  1  1  1  1  1  1  1
CENTRE ASSIGNMENTS    1  1  1  1  1  1  1  1  1  1  1  1  1  1  1  1  1  1  1  1
CENTRE ASSIGNMENTS    1  1  1  1  1  1  1  1  1  1  1  1  1  1  1  1  1  1  1  1
CENTRE ASSIGNMENTS    1  1  1  1  1  1  1  1  1  1  1  1  1  1  1  1  1  1  1  1
CENTRE ASSIGNMENTS    1  1  1  1  1  1  1  1  1  1  1  1  1  1  1  1  1  1  1  1
CENTRE ASSIGNMENTS    1  1  1  1  1  1  1  1  1  1  1  1  1  1  1  1  1  1  1  1
CENTRE ASSIGNMENTS    1  1  1  1  1  1  1  1  1  1  1  1  1  1  1  1  1  1  1  1
CENTRE ASSIGNMENTS    1  1  1  1  1  1  1  1  1  1  1  1  1  1  1  1  1  1  1  1
CENTRE ASSIGNMENTS    1  1  1  1  1  1  1  1  1  1  1  1  1  1  1  1  1  1  1  1
CENTRE ASSIGNMENTS    1  1  1  1  1  1  1  1  1  1  1  1  1  1  1  1  1  1  1  1
CENTRE ASSIGNMENTS    1  1  1  1  1  1  1  1  1  1  1  1  1  1  1  1  1  1  1  1
CENTRE ASSIGNMENTS    1  1  1  1  1  1  1  1  1  1  1  1  1  1  1  1  1  1  1  1
CENTRE ASSIGNMENTS    1  1  1  1  1  1  1  1  1  1  1  1  1  1  1  1  1  1  1  1
CENTRE ASSIGNMENTS    1  1  1  2  2  2  2  2  2  2  2  2  2  2  2  2  2  2  2  2
CENTRE ASSIGNMENTS    2  2  2  2  2  2  2  2  2  2  2  2  2  2  2  2  2  2  2  2
CENTRE ASSIGNMENTS    2  2  2  2  2  2  2  2  2  2  2  2  2  2  2  2  2  2  2  2
CENTRE ASSIGNMENTS    2  2  2  2  2  2  2  2  2  2  2  2  2  2  2  2  2  2  3  3
CENTRE ASSIGNMENTS    3  3  3  3  3  3  3  3  3  3  3  3  3  3  3  3  3  3  3  3
CENTRE ASSIGNMENTS    3  3  3  3  3  3  3  3  3  3  3  3  3  3  3  3  3  3  3  3
CENTRE ASSIGNMENTS    3  3  3  3  3  3  3  3  3  3  3  3  3  3  3  3  3  3  3  3
CENTRE ASSIGNMENTS    3  3  3  3  3  3  3  3  3  3  3  3  3  4  4  4  4  4  4  4
CENTRE ASSIGNMENTS    4  4  4  4  4  4  4  4  4  4  4  4  4  4  4  4  4  4  4  4
CENTRE ASSIGNMENTS    4  4  4  4  4  4  4  4  4  4  4  4  4  4  4  4  4  4  4  4
CENTRE ASSIGNMENTS    4  4  4  4  4  4  4  4  4  4  4  4  4  4  4  4  4  4  4  4
CENTRE ASSIGNMENTS    4  4  4  4  4  4  4  4  4  4  4  4  4  4  4  4  4  4  4  4
CENTRE ASSIGNMENTS    4  4  4  4  4  4  4  4  4  4  4  4  4  4  4  4  4  4  4  4
CENTRE ASSIGNMENTS    4  4  4  4  4  4  4  4  4  4  4  4  4  4  4  4  4  4  4  4
CENTRE ASSIGNMENTS    4  4  4  4  4  4  4  4  4  4  4  4  4  4  4  4  4  4  4  4
CENTRE ASSIGNMENTS    4  4  4  4  4  4  4  4  4  4  4  4  4  4  4  4  4  4  4  4
CENTRE ASSIGNMENTS    4  4  4  4  4  4  4  4  4  4  4  4  4  4  4  4  4  4  4  4
CENTRE ASSIGNMENTS    4  4  4  4  4  4  4  4  4  4  4  4  4  4  4  4  4  4  4  4
CENTRE ASSIGNMENTS    4  4  4  4  4  4  4  4  4  4  4  4  4  4  4  4  4  4  4  4
CENTRE ASSIGNMENTS    4  4  4  4  4  4  4  4  4  4  4  4  4  4  4  4  4  4  4  4
CENTRE ASSIGNMENTS    4  4  4  4  4  4  4  4  4  4  4  4  4  4  4  4
TYPE ASSIGNMENTS      1  1  1  1  1  1  1  1  1  1  1  1  1  1  1  1  1  1  1  1
TYPE ASSIGNMENTS      1  1  1  1  1  1  1  1  1  1  1  1  1  1  1  1  1  1  1  1
TYPE ASSIGNMENTS      1  1  1  1  1  1  1  1  1  1  1  1  1  1  1  1  1  1  1  1
TYPE ASSIGNMENTS      1  1  1  1  1  1  1  1  1  1  1  1  1  1  1  2  2  2  2  2
TYPE ASSIGNMENTS      2  2  2  2  2  2  3  3  3  3  3  3  3  3  3  3  3  4  4  4
TYPE ASSIGNMENTS      4  4  4  4  4  4  4  4  2  2  2  2  2  2  2  2  2  2  2  3
TYPE ASSIGNMENTS      3  3  3  3  3  3  3  3  3  3  4  4  4  4  4  4  4  4  4  4
TYPE ASSIGNMENTS      4  2  2  2  2  2  2  2  2  2  2  2  3  3  3  3  3  3  3  3
TYPE ASSIGNMENTS      3  3  3  4  4  4  4  4  4  4  4  4  4  4  2  3  4  2  3  4
TYPE ASSIGNMENTS      2  3  4  5  5  5  5  5  5  5  6  6  6  6  6  6  6  7  7  7
TYPE ASSIGNMENTS      7  7  7  7  8  8  8  8  8  8  8  9  9  9  9  9  9  9 10 10
TYPE ASSIGNMENTS     10 10 10 10 10  5  6  7  8  9 10  5  6  7  8  9 10  5  6  7
TYPE ASSIGNMENTS      8  9 10 11 12 13 17 14 15 18 19 16 20 11 12 13 17 14 15 18
TYPE ASSIGNMENTS     19 16 20  1  1  1  1  1  1  1  1  1  1  1  1  1  1  1  1  1
TYPE ASSIGNMENTS      1  1  2  2  2  3  3  3  4  4  4  2  3  4  2  3  4  2  3  4
TYPE ASSIGNMENTS      5  6  7  8  9 10  5  6  7  8  9 10  5  6  7  8  9 10 11 12
TYPE ASSIGNMENTS     13 17 14 15 18 19 16 20 11 12 13 17 14 15 18 19 16 20  1  1
TYPE ASSIGNMENTS      1  1  1  1  1  1  1  1  1  1  1  1  1  1  1  1  1  2  2  2
TYPE ASSIGNMENTS      3  3  3  4  4  4  2  3  4  2  3  4  2  3  4  5  6  7  8  9
TYPE ASSIGNMENTS     10  5  6  7  8  9 10  5  6  7  8  9 10 11 12 13 17 14 15 18
TYPE ASSIGNMENTS     19 16 20 11 12 13 17 14 15 18 19 16 20  1  1  1  1  1  1  1
TYPE ASSIGNMENTS      1  1  1  1  1  1  1  1  1  1  1  1  1  1  1  1  1  1  1  1
TYPE ASSIGNMENTS      1  1  1  1  1  1  1  1  1  1  1  1  1  1  1  1  1  1  1  1
TYPE ASSIGNMENTS      1  1  1  1  1  1  1  1  1  1  1  1  1  1  1  1  1  1  1  1
TYPE ASSIGNMENTS      1  1  1  1  1  1  1  1  2  2  2  2  2  2  2  2  2  2  2  3
TYPE ASSIGNMENTS      3  3  3  3  3  3  3  3  3  3  4  4  4  4  4  4  4  4  4  4
TYPE ASSIGNMENTS      4  2  2  2  2  2  2  2  2  2  2  2  3  3  3  3  3  3  3  3
TYPE ASSIGNMENTS      3  3  3  4  4  4  4  4  4  4  4  4  4  4  2  2  2  2  2  2
TYPE ASSIGNMENTS      2  2  2  2  2  3  3  3  3  3  3  3  3  3  3  3  4  4  4  4
TYPE ASSIGNMENTS      4  4  4  4  4  4  4  2  3  4  2  3  4  2  3  4  5  5  5  5
TYPE ASSIGNMENTS      5  5  5  6  6  6  6  6  6  6  7  7  7  7  7  7  7  8  8  8
TYPE ASSIGNMENTS      8  8  8  8  9  9  9  9  9  9  9 10 10 10 10 10 10 10  5  6
TYPE ASSIGNMENTS      7  8  9 10  5  6  7  8  9 10  5  6  7  8  9 10 11 12 13 17
TYPE ASSIGNMENTS     14 15 18 19 16 20 11 12 13 17 14 15 18 19 16 20
EXPONENTS  0.1063900D+08 0.1593400D+07 0.3626100D+06 0.1027000D+06 0.3350100D+05
EXPONENTS  0.1209300D+05 0.4715900D+04 0.1955600D+04 0.8526100D+03 0.3876700D+03
EXPONENTS  0.1826800D+03 0.8824500D+02 0.3926300D+02 0.1923400D+02 0.9405700D+01
EXPONENTS  0.4160100D+01 0.1899500D+01 0.3011400D+00 0.1063900D+08 0.1593400D+07
EXPONENTS  0.3626100D+06 0.1027000D+06 0.3350100D+05 0.1209300D+05 0.4715900D+04
EXPONENTS  0.1955600D+04 0.8526100D+03 0.3876700D+03 0.1826800D+03 0.8824500D+02
EXPONENTS  0.3926300D+02 0.1923400D+02 0.9405700D+01 0.4160100D+01 0.1899500D+01
EXPONENTS  0.3011400D+00 0.1063900D+08 0.1593400D+07 0.3626100D+06 0.1027000D+06
EXPONENTS  0.3350100D+05 0.1209300D+05 0.4715900D+04 0.1955600D+04 0.8526100D+03
EXPONENTS  0.3876700D+03 0.1826800D+03 0.8824500D+02 0.3926300D+02 0.1923400D+02
EXPONENTS  0.9405700D+01 0.4160100D+01 0.1899500D+01 0.3011400D+00 0.1063900D+08
EXPONENTS  0.1593400D+07 0.3626100D+06 0.1027000D+06 0.3350100D+05 0.1209300D+05
EXPONENTS  0.4715900D+04 0.1955600D+04 0.8526100D+03 0.3876700D+03 0.1826800D+03
EXPONENTS  0.8824500D+02 0.3926300D+02 0.1923400D+02 0.9405700D+01 0.4160100D+01
EXPONENTS  0.1899500D+01 0.3011400D+00 0.6047200D+00 0.1251500D+00 0.4559300D-01
EXPONENTS  0.8676500D+04 0.2055900D+04 0.6662300D+03 0.2531000D+03 0.1061200D+03
EXPONENTS  0.4724200D+02 0.2182500D+02 0.9968400D+01 0.4517100D+01 0.1998200D+01
EXPONENTS  0.2814500D+00 0.8676500D+04 0.2055900D+04 0.6662300D+03 0.2531000D+03
EXPONENTS  0.1061200D+03 0.4724200D+02 0.2182500D+02 0.9968400D+01 0.4517100D+01
EXPONENTS  0.1998200D+01 0.2814500D+00 0.8676500D+04 0.2055900D+04 0.6662300D+03
EXPONENTS  0.2531000D+03 0.1061200D+03 0.4724200D+02 0.2182500D+02 0.9968400D+01
EXPONENTS  0.4517100D+01 0.1998200D+01 0.2814500D+00 0.8676500D+04 0.2055900D+04
EXPONENTS  0.6662300D+03 0.2531000D+03 0.1061200D+03 0.4724200D+02 0.2182500D+02
EXPONENTS  0.9968400D+01 0.4517100D+01 0.1998200D+01 0.2814500D+00 0.8676500D+04
EXPONENTS  0.2055900D+04 0.6662300D+03 0.2531000D+03 0.1061200D+03 0.4724200D+02
EXPONENTS  0.2182500D+02 0.9968400D+01 0.4517100D+01 0.1998200D+01 0.2814500D+00
EXPONENTS  0.8676500D+04 0.2055900D+04 0.6662300D+03 0.2531000D+03 0.1061200D+03
EXPONENTS  0.4724200D+02 0.2182500D+02 0.9968400D+01 0.4517100D+01 0.1998200D+01
EXPONENTS  0.2814500D+00 0.8676500D+04 0.2055900D+04 0.6662300D+03 0.2531000D+03
EXPONENTS  0.1061200D+03 0.4724200D+02 0.2182500D+02 0.9968400D+01 0.4517100D+01
EXPONENTS  0.1998200D+01 0.2814500D+00 0.8676500D+04 0.2055900D+04 0.6662300D+03
EXPONENTS  0.2531000D+03 0.1061200D+03 0.4724200D+02 0.2182500D+02 0.9968400D+01
EXPONENTS  0.4517100D+01 0.1998200D+01 0.2814500D+00 0.8676500D+04 0.2055900D+04
EXPONENTS  0.6662300D+03 0.2531000D+03 0.1061200D+03 0.4724200D+02 0.2182500D+02
EXPONENTS  0.9968400D+01 0.4517100D+01 0.1998200D+01 0.2814500D+00 0.7098800D+00
EXPONENTS  0.7098800D+00 0.7098800D+00 0.1020400D+00 0.1020400D+00 0.1020400D+00
EXPONENTS  0.3514200D-01 0.3514200D-01 0.3514200D-01 0.4038300D+03 0.1211700D+03
EXPONENTS  0.4634500D+02 0.1972100D+02 0.8862400D+01 0.3996200D+01 0.1763600D+01
EXPONENTS  0.4038300D+03 0.1211700D+03 0.4634500D+02 0.1972100D+02 0.8862400D+01
EXPONENTS  0.3996200D+01 0.1763600D+01 0.4038300D+03 0.1211700D+03 0.4634500D+02
EXPONENTS  0.1972100D+02 0.8862400D+01 0.3996200D+01 0.1763600D+01 0.4038300D+03
EXPONENTS  0.1211700D+03 0.4634500D+02 0.1972100D+02 0.8862400D+01 0.3996200D+01
EXPONENTS  0.1763600D+01 0.4038300D+03 0.1211700D+03 0.4634500D+02 0.1972100D+02
EXPONENTS  0.8862400D+01 0.3996200D+01 0.1763600D+01 0.4038300D+03 0.1211700D+03
EXPONENTS  0.4634500D+02 0.1972100D+02 0.8862400D+01 0.3996200D+01 0.1763600D+01
EXPONENTS  0.7061900D+00 0.7061900D+00 0.7061900D+00 0.7061900D+00 0.7061900D+00
EXPONENTS  0.7061900D+00 0.2639000D+00 0.2639000D+00 0.2639000D+00 0.2639000D+00
EXPONENTS  0.2639000D+00 0.2639000D+00 0.1047000D+00 0.1047000D+00 0.1047000D+00
EXPONENTS  0.1047000D+00 0.1047000D+00 0.1047000D+00 0.5515000D+00 0.5515000D+00
EXPONENTS  0.5515000D+00 0.5515000D+00 0.5515000D+00 0.5515000D+00 0.5515000D+00
EXPONENTS  0.5515000D+00 0.5515000D+00 0.5515000D+00 0.2580000D+00 0.2580000D+00
EXPONENTS  0.2580000D+00 0.2580000D+00 0.2580000D+00 0.2580000D+00 0.2580000D+00
EXPONENTS  0.2580000D+00 0.2580000D+00 0.2580000D+00 0.1142000D+05 0.1712000D+04
EXPONENTS  0.3893000D+03 0.1100000D+03 0.3557000D+02 0.1254000D+02 0.4644000D+01
EXPONENTS  0.5118000D+00 0.1142000D+05 0.1712000D+04 0.3893000D+03 0.1100000D+03
EXPONENTS  0.3557000D+02 0.1254000D+02 0.4644000D+01 0.5118000D+00 0.1293000D+01
EXPONENTS  0.1787000D+00 0.5760000D-01 0.2663000D+02 0.5948000D+01 0.1742000D+01
EXPONENTS  0.2663000D+02 0.5948000D+01 0.1742000D+01 0.2663000D+02 0.5948000D+01
EXPONENTS  0.1742000D+01 0.5550000D+00 0.5550000D+00 0.5550000D+00 0.1725000D+00
EXPONENTS  0.1725000D+00 0.1725000D+00 0.4910000D-01 0.4910000D-01 0.4910000D-01
EXPONENTS  0.1654000D+01 0.1654000D+01 0.1654000D+01 0.1654000D+01 0.1654000D+01
EXPONENTS  0.1654000D+01 0.4690000D+00 0.4690000D+00 0.4690000D+00 0.4690000D+00
EXPONENTS  0.4690000D+00 0.4690000D+00 0.1510000D+00 0.1510000D+00 0.1510000D+00
EXPONENTS  0.1510000D+00 0.1510000D+00 0.1510000D+00 0.1093000D+01 0.1093000D+01
EXPONENTS  0.1093000D+01 0.1093000D+01 0.1093000D+01 0.1093000D+01 0.1093000D+01
EXPONENTS  0.1093000D+01 0.1093000D+01 0.1093000D+01 0.3640000D+00 0.3640000D+00
EXPONENTS  0.3640000D+00 0.3640000D+00 0.3640000D+00 0.3640000D+00 0.3640000D+00
EXPONENTS  0.3640000D+00 0.3640000D+00 0.3640000D+00 0.1142000D+05 0.1712000D+04
EXPONENTS  0.3893000D+03 0.1100000D+03 0.3557000D+02 0.1254000D+02 0.4644000D+01
EXPONENTS  0.5118000D+00 0.1142000D+05 0.1712000D+04 0.3893000D+03 0.1100000D+03
EXPONENTS  0.3557000D+02 0.1254000D+02 0.4644000D+01 0.5118000D+00 0.1293000D+01
EXPONENTS  0.1787000D+00 0.5760000D-01 0.2663000D+02 0.5948000D+01 0.1742000D+01
EXPONENTS  0.2663000D+02 0.5948000D+01 0.1742000D+01 0.2663000D+02 0.5948000D+01
EXPONENTS  0.1742000D+01 0.5550000D+00 0.5550000D+00 0.5550000D+00 0.1725000D+00
EXPONENTS  0.1725000D+00 0.1725000D+00 0.4910000D-01 0.4910000D-01 0.4910000D-01
EXPONENTS  0.1654000D+01 0.1654000D+01 0.1654000D+01 0.1654000D+01 0.1654000D+01
EXPONENTS  0.1654000D+01 0.4690000D+00 0.4690000D+00 0.4690000D+00 0.4690000D+00
EXPONENTS  0.4690000D+00 0.4690000D+00 0.1510000D+00 0.1510000D+00 0.1510000D+00
EXPONENTS  0.1510000D+00 0.1510000D+00 0.1510000D+00 0.1093000D+01 0.1093000D+01
EXPONENTS  0.1093000D+01 0.1093000D+01 0.1093000D+01 0.1093000D+01 0.1093000D+01
EXPONENTS  0.1093000D+01 0.1093000D+01 0.1093000D+01 0.3640000D+00 0.3640000D+00
EXPONENTS  0.3640000D+00 0.3640000D+00 0.3640000D+00 0.3640000D+00 0.3640000D+00
EXPONENTS  0.3640000D+00 0.3640000D+00 0.3640000D+00 0.1063900D+08 0.1593400D+07
EXPONENTS  0.3626100D+06 0.1027000D+06 0.3350100D+05 0.1209300D+05 0.4715900D+04
EXPONENTS  0.1955600D+04 0.8526100D+03 0.3876700D+03 0.1826800D+03 0.8824500D+02
EXPONENTS  0.3926300D+02 0.1923400D+02 0.9405700D+01 0.4160100D+01 0.1899500D+01
EXPONENTS  0.3011400D+00 0.1063900D+08 0.1593400D+07 0.3626100D+06 0.1027000D+06
EXPONENTS  0.3350100D+05 0.1209300D+05 0.4715900D+04 0.1955600D+04 0.8526100D+03
EXPONENTS  0.3876700D+03 0.1826800D+03 0.8824500D+02 0.3926300D+02 0.1923400D+02
EXPONENTS  0.9405700D+01 0.4160100D+01 0.1899500D+01 0.3011400D+00 0.1063900D+08
EXPONENTS  0.1593400D+07 0.3626100D+06 0.1027000D+06 0.3350100D+05 0.1209300D+05
EXPONENTS  0.4715900D+04 0.1955600D+04 0.8526100D+03 0.3876700D+03 0.1826800D+03
EXPONENTS  0.8824500D+02 0.3926300D+02 0.1923400D+02 0.9405700D+01 0.4160100D+01
EXPONENTS  0.1899500D+01 0.3011400D+00 0.1063900D+08 0.1593400D+07 0.3626100D+06
EXPONENTS  0.1027000D+06 0.3350100D+05 0.1209300D+05 0.4715900D+04 0.1955600D+04
EXPONENTS  0.8526100D+03 0.3876700D+03 0.1826800D+03 0.8824500D+02 0.3926300D+02
EXPONENTS  0.1923400D+02 0.9405700D+01 0.4160100D+01 0.1899500D+01 0.3011400D+00
EXPONENTS  0.6047200D+00 0.1251500D+00 0.4559300D-01 0.8676500D+04 0.2055900D+04
EXPONENTS  0.6662300D+03 0.2531000D+03 0.1061200D+03 0.4724200D+02 0.2182500D+02
EXPONENTS  0.9968400D+01 0.4517100D+01 0.1998200D+01 0.2814500D+00 0.8676500D+04
EXPONENTS  0.2055900D+04 0.6662300D+03 0.2531000D+03 0.1061200D+03 0.4724200D+02
EXPONENTS  0.2182500D+02 0.9968400D+01 0.4517100D+01 0.1998200D+01 0.2814500D+00
EXPONENTS  0.8676500D+04 0.2055900D+04 0.6662300D+03 0.2531000D+03 0.1061200D+03
EXPONENTS  0.4724200D+02 0.2182500D+02 0.9968400D+01 0.4517100D+01 0.1998200D+01
EXPONENTS  0.2814500D+00 0.8676500D+04 0.2055900D+04 0.6662300D+03 0.2531000D+03
EXPONENTS  0.1061200D+03 0.4724200D+02 0.2182500D+02 0.9968400D+01 0.4517100D+01
EXPONENTS  0.1998200D+01 0.2814500D+00 0.8676500D+04 0.2055900D+04 0.6662300D+03
EXPONENTS  0.2531000D+03 0.1061200D+03 0.4724200D+02 0.2182500D+02 0.9968400D+01
EXPONENTS  0.4517100D+01 0.1998200D+01 0.2814500D+00 0.8676500D+04 0.2055900D+04
EXPONENTS  0.6662300D+03 0.2531000D+03 0.1061200D+03 0.4724200D+02 0.2182500D+02
EXPONENTS  0.9968400D+01 0.4517100D+01 0.1998200D+01 0.2814500D+00 0.8676500D+04
EXPONENTS  0.2055900D+04 0.6662300D+03 0.2531000D+03 0.1061200D+03 0.4724200D+02
EXPONENTS  0.2182500D+02 0.9968400D+01 0.4517100D+01 0.1998200D+01 0.2814500D+00
EXPONENTS  0.8676500D+04 0.2055900D+04 0.6662300D+03 0.2531000D+03 0.1061200D+03
EXPONENTS  0.4724200D+02 0.2182500D+02 0.9968400D+01 0.4517100D+01 0.1998200D+01
EXPONENTS  0.2814500D+00 0.8676500D+04 0.2055900D+04 0.6662300D+03 0.2531000D+03
EXPONENTS  0.1061200D+03 0.4724200D+02 0.2182500D+02 0.9968400D+01 0.4517100D+01
EXPONENTS  0.1998200D+01 0.2814500D+00 0.7098800D+00 0.7098800D+00 0.7098800D+00
EXPONENTS  0.1020400D+00 0.1020400D+00 0.1020400D+00 0.3514200D-01 0.3514200D-01
EXPONENTS  0.3514200D-01 0.4038300D+03 0.1211700D+03 0.4634500D+02 0.1972100D+02
EXPONENTS  0.8862400D+01 0.3996200D+01 0.1763600D+01 0.4038300D+03 0.1211700D+03
EXPONENTS  0.4634500D+02 0.1972100D+02 0.8862400D+01 0.3996200D+01 0.1763600D+01
EXPONENTS  0.4038300D+03 0.1211700D+03 0.4634500D+02 0.1972100D+02 0.8862400D+01
EXPONENTS  0.3996200D+01 0.1763600D+01 0.4038300D+03 0.1211700D+03 0.4634500D+02
EXPONENTS  0.1972100D+02 0.8862400D+01 0.3996200D+01 0.1763600D+01 0.4038300D+03
EXPONENTS  0.1211700D+03 0.4634500D+02 0.1972100D+02 0.8862400D+01 0.3996200D+01
EXPONENTS  0.1763600D+01 0.4038300D+03 0.1211700D+03 0.4634500D+02 0.1972100D+02
EXPONENTS  0.8862400D+01 0.3996200D+01 0.1763600D+01 0.7061900D+00 0.7061900D+00
EXPONENTS  0.7061900D+00 0.7061900D+00 0.7061900D+00 0.7061900D+00 0.2639000D+00
EXPONENTS  0.2639000D+00 0.2639000D+00 0.2639000D+00 0.2639000D+00 0.2639000D+00
EXPONENTS  0.1047000D+00 0.1047000D+00 0.1047000D+00 0.1047000D+00 0.1047000D+00
EXPONENTS  0.1047000D+00 0.5515000D+00 0.5515000D+00 0.5515000D+00 0.5515000D+00
EXPONENTS  0.5515000D+00 0.5515000D+00 0.5515000D+00 0.5515000D+00 0.5515000D+00
EXPONENTS  0.5515000D+00 0.2580000D+00 0.2580000D+00 0.2580000D+00 0.2580000D+00
EXPONENTS  0.2580000D+00 0.2580000D+00 0.2580000D+00 0.2580000D+00 0.2580000D+00
EXPONENTS  0.2580000D+00
MO    1     MO 0.0        OCC NO =    2.0000000  ORB. ENERGY = -481.061006
  0.78329608D+00  0.14734753D+01  0.25506585D+01  0.41810172D+01  0.65496445D+01
  0.98446734D+01  0.14070511D+02  0.18678954D+02  0.21754178D+02  0.19981002D+02
  0.11683678D+02  0.30658555D+01  0.16760913D+00 -0.59990574D-02  0.16765472D-02
 -0.49782344D-03  0.84870278D-04  0.69242473D-05  0.97677455D-04  0.17946375D-03
  0.31033418D-03  0.50821560D-03  0.80016262D-03  0.12083240D-02  0.17637840D-02
  0.24288377D-02  0.31034043D-02  0.33830743D-02  0.27847911D-02  0.76357081D-03
 -0.15401718D-02 -0.15009647D-02 -0.32845337D-03 -0.11065292D-04 -0.37485672D-06
  0.95358714D-09 -0.57818811D-04 -0.11334803D-03 -0.19852626D-03 -0.32432732D-03
 -0.51154230D-03 -0.77189448D-03 -0.11317507D-02 -0.15625690D-02 -0.20258785D-02
 -0.22528961D-02 -0.19567790D-02 -0.56840929D-03  0.14329529D-02  0.20879134D-02
  0.35944175D-03 -0.87688397D-03 -0.41737466D-03  0.20156297D-05  0.20029028D-04
  0.43398066D-04  0.73878326D-04  0.12058932D-03  0.19009724D-03  0.28691163D-03
  0.42065921D-03  0.58153149D-03  0.75476954D-03  0.84320956D-03  0.73656264D-03
  0.21817057D-03 -0.56711816D-03 -0.87241942D-03 -0.15270004D-03  0.48168383D-03
  0.40887673D-03 -0.15254825D-03  0.15850251D-03  0.38915430D-04  0.10080490D-04
 -0.44864794D-04 -0.64373036D-04 -0.85233322D-04 -0.98420338D-04 -0.91240181D-04
 -0.59070556D-04 -0.20849737D-04 -0.24437690D-05 -0.35527878D-07 -0.52026622D-08
 -0.53491447D-10 -0.22865391D-17 -0.32807787D-17 -0.43439254D-17 -0.50160031D-17
 -0.46500656D-17 -0.30105373D-17 -0.10626091D-17 -0.12454695D-18 -0.18106821D-20
 -0.26515424D-21 -0.27261974D-23 -0.19112015D-03 -0.27422358D-03 -0.36308660D-03
 -0.41926215D-03 -0.38867530D-03 -0.25163547D-03 -0.88818081D-04 -0.10410245D-04
 -0.15134569D-06 -0.22162892D-07 -0.22786895D-09  0.35191076D-03  0.50798723D-03
  0.67865879D-03  0.80626747D-03  0.78133498D-03  0.54312748D-03  0.17672847D-03
 -0.79541837D-04 -0.85931722D-04 -0.22122859D-04  0.21578806D-07  0.36707100D-17
  0.52987120D-17  0.70789526D-17  0.84100128D-17  0.81499471D-17  0.56652528D-17
  0.18434189D-17 -0.82968481D-18 -0.89633640D-18 -0.23075906D-18  0.22508416D-21
  0.14669061D-02  0.21174958D-02  0.28289238D-02  0.33608483D-02  0.32569196D-02
  0.22639746D-02  0.73667562D-03 -0.33156249D-03 -0.35819811D-03 -0.92217006D-04
  0.89949174D-07 -0.25683436D-03 -0.37319172D-03 -0.49616272D-03 -0.59536091D-03
 -0.57601432D-03 -0.40890310D-03 -0.12708811D-03  0.72965976D-04  0.83821708D-04
  0.22259591D-04 -0.80313300D-05 -0.18394453D-17 -0.26727956D-17 -0.35535128D-17
 -0.42639693D-17 -0.41254092D-17 -0.29285602D-17 -0.91020387D-18  0.52258164D-18
  0.60033030D-18  0.15942299D-18 -0.57520311D-19 -0.10514128D-02 -0.15277495D-02
 -0.20311607D-02 -0.24372522D-02 -0.23580523D-02 -0.16739426D-02 -0.52026555D-03
  0.29870366D-03  0.34314420D-03  0.91124958D-04 -0.32878169D-04  0.37342335D-05
  0.12272137D-18  0.20537188D-04  0.36496039D-05  0.76290475D-20  0.14053909D-04
  0.14702298D-06 -0.80111718D-21  0.71751067D-06 -0.54048528D-04 -0.56555961D-04
 -0.48188706D-04 -0.31735906D-04 -0.14626134D-04 -0.43798195D-05 -0.74518916D-06
 -0.12824473D-03 -0.13419429D-03 -0.11434072D-03 -0.75302006D-04 -0.34704452D-04
 -0.10392304D-04 -0.17681625D-05  0.18229325D-03  0.19075025D-03  0.16252942D-03
  0.10703791D-03  0.49330587D-04  0.14772124D-04  0.25133517D-05  0.19006590D-17
  0.19888349D-17  0.16945937D-17  0.11160181D-17  0.51433951D-18  0.15401980D-18
  0.26205163D-19  0.17862556D-03  0.18691240D-03  0.15925937D-03  0.10488434D-03
  0.48338068D-04  0.14474913D-04  0.24627837D-05  0.74304230D-17  0.77751371D-17
  0.66248329D-17  0.43629533D-17  0.20107553D-17  0.60212393D-18  0.10244628D-18
  0.18817961D-05  0.63530891D-05 -0.82348852D-05 -0.88163533D-20 -0.90108524D-05
 -0.28562520D-19  0.20288546D-05  0.69114135D-06 -0.27199959D-05 -0.95024834D-21
 -0.67848852D-06 -0.72544102D-20 -0.68783352D-06 -0.13484863D-05  0.20363198D-05
  0.13469779D-21  0.15205643D-05 -0.40791392D-21  0.12163071D-05  0.18875001D-20
 -0.58109016D-05  0.43417020D-05 -0.14598404D-20  0.43280328D-05 -0.79906232D-05
 -0.42026600D-20  0.13104672D-04 -0.56722644D-20 -0.18019633D-06  0.54879688D-21
  0.13353600D-05 -0.16112995D-05  0.15818897D-20 -0.12457030D-06  0.21518885D-05
 -0.32282803D-20 -0.38815098D-05 -0.12910435D-21 -0.49145782D-05 -0.91575928D-05
 -0.15487785D-04 -0.23323746D-04 -0.28876311D-04 -0.24572437D-04 -0.93502657D-05
  0.43791283D-07  0.34884787D-05  0.65409302D-05  0.11128068D-04  0.17280715D-04
  0.22932514D-04  0.24167722D-04  0.14985529D-04 -0.99683799D-05 -0.19290319D-05
 -0.22312484D-04 -0.12819343D-04  0.88068626D-06  0.84588862D-06  0.59319549D-06
  0.30830053D-20  0.29611897D-20  0.20765906D-20  0.29758850D-05  0.28583019D-05
  0.20044386D-05 -0.14501912D-05 -0.35937907D-20  0.69207337D-05 -0.40457059D-05
  0.12813523D-19 -0.24748281D-04  0.70137534D-06 -0.91696233D-22  0.26214602D-05
  0.55596693D-05  0.14376551D-04 -0.19936221D-04 -0.87520518D-21 -0.67204368D-05
  0.26192346D-19 -0.17722662D-05 -0.52925095D-05  0.70647757D-05  0.36019497D-20
  0.18490464D-06 -0.67072172D-20 -0.17450281D-05 -0.14092826D-05  0.31543107D-05
  0.10322021D-20 -0.56417727D-05 -0.45556820D-20 -0.13625019D-05  0.13247538D-19
  0.41847077D-05  0.38312796D-05  0.63289627D-20  0.13746590D-05  0.25622602D-06
 -0.46071576D-19 -0.13928782D-04 -0.10607039D-19  0.12286424D-05 -0.43134014D-20
 -0.40811485D-05 -0.52970145D-06 -0.20863577D-20  0.40464031D-05 -0.31562259D-05
  0.15026562D-19  0.81970424D-05  0.50155821D-20 -0.61162391D-06 -0.11396711D-05
 -0.19274695D-05 -0.29026623D-05 -0.35936843D-05 -0.30580631D-05 -0.11636494D-05
  0.54498667D-08  0.51982491D-06  0.97467657D-06  0.16582148D-05  0.25750326D-05
  0.34172180D-05  0.36012787D-05  0.22330225D-05 -0.14854074D-05 -0.28972239D-05
  0.20983387D-04 -0.51919110D-05 -0.16206415D-05 -0.15566068D-05 -0.10916001D-05
 -0.27634233D-20 -0.26542350D-20 -0.18613328D-20  0.76814840D-05  0.73779735D-05
  0.51739443D-05  0.16522303D-05  0.34088109D-20 -0.12105703D-04 -0.95269889D-05
 -0.72077772D-20  0.24437783D-04 -0.53764240D-06  0.54958813D-23 -0.60381841D-07
 -0.30110871D-05  0.46890776D-05 -0.16779905D-05 -0.10001576D-19  0.12387831D-04
  0.59087158D-20  0.18598266D-05 -0.27295555D-05  0.86972893D-06  0.47877873D-20
 -0.27668193D-05 -0.37377647D-20  0.19222771D-05  0.10221687D-05 -0.29444458D-05
  0.27844620D-20 -0.83325639D-05  0.26554933D-20  0.21882453D-05 -0.24148325D-20
  0.77596533D-06 -0.16259524D-05  0.33099007D-20 -0.39889246D-05 -0.49387834D-05
  0.39345967D-20  0.16610286D-05  0.46382840D-20 -0.14687555D-05  0.17073517D-20
  0.79844249D-06  0.50257022D-06 -0.24924342D-20  0.10118665D-05  0.39036962D-05
 -0.26296208D-20 -0.34071940D-05 -0.63983445D-21  0.11845849D-02  0.22283485D-02
  0.38573811D-02  0.63229856D-02  0.99050794D-02  0.14888178D-01  0.21278946D-01
  0.28248330D-01  0.32899017D-01  0.30217429D-01  0.17669319D-01  0.46365177D-02
  0.25347661D-03 -0.90724222D-05  0.25354557D-05 -0.75286235D-06  0.12835000D-06
  0.10471594D-07  0.66156927D-06  0.12155077D-05  0.21018930D-05  0.34421436D-05
  0.54195004D-05  0.81839766D-05  0.11946107D-04  0.16450514D-04  0.21019353D-04
  0.22913558D-04  0.18861386D-04  0.51716641D-05 -0.10431582D-04 -0.10166032D-04
 -0.22246142D-05 -0.74945205D-07 -0.25389041D-08  0.64586445D-11 -0.74028179D-06
 -0.14512488D-05 -0.25418264D-05 -0.41525172D-05 -0.65495198D-05 -0.98829329D-05
 -0.14490343D-04 -0.20006316D-04 -0.25938288D-04 -0.28844902D-04 -0.25053573D-04
 -0.72776150D-05  0.18346779D-04  0.26732550D-04  0.46021040D-05 -0.11227163D-04
 -0.53438467D-05  0.25807068D-07  0.33707656D-06  0.73036352D-06  0.12433281D-05
  0.20294462D-05  0.31992228D-05  0.48285513D-05  0.70794431D-05  0.97868274D-05
  0.12702320D-04  0.14190713D-04  0.12395909D-04  0.36716803D-05 -0.95442597D-05
 -0.14682297D-04 -0.25698504D-05  0.81064510D-05  0.68811509D-05 -0.25672959D-05
  0.27956483D-05  0.96515120D-06 -0.28014693D-06  0.98895500D-05  0.14189753D-04
  0.18787988D-04  0.21694803D-04  0.20112080D-04  0.13020927D-04  0.45959092D-05
  0.53868018D-06  0.78314128D-08  0.11468232D-08  0.11791124D-10 -0.43903726D-20
 -0.62994073D-20 -0.83407502D-20 -0.96312033D-20 -0.89285686D-20 -0.57805181D-20
 -0.20403106D-20 -0.23914199D-21 -0.34766820D-23 -0.50912138D-24 -0.52345584D-26
  0.41584564D-04  0.59666486D-04  0.79001600D-04  0.91224464D-04  0.84569275D-04
  0.54751690D-04  0.19325336D-04  0.22650960D-05  0.32930304D-07  0.48222764D-08
  0.49580491D-10 -0.42654758D-04 -0.61572633D-04 -0.82259565D-04 -0.97726888D-04
 -0.94704845D-04 -0.65831948D-04 -0.21421084D-04  0.96411879D-05  0.10415700D-04
  0.26814900D-05 -0.26155458D-08 -0.13430960D-19 -0.19387746D-19 -0.25901565D-19
 -0.30771854D-19 -0.29820285D-19 -0.20728902D-19 -0.67449858D-20  0.30357789D-20
  0.32796540D-20  0.84433689D-21 -0.82357267D-24 -0.17438765D-03 -0.25173057D-03
 -0.33630602D-03 -0.39954188D-03 -0.38718670D-03 -0.26914415D-03 -0.87576924D-04
  0.39416566D-04  0.42583042D-04  0.10962874D-04 -0.10693271D-07  0.33464175D-04
  0.48624931D-04  0.64647410D-04  0.77572417D-04  0.75051657D-04  0.53277937D-04
  0.16558917D-04 -0.95070855D-05 -0.10921531D-04 -0.29003085D-05  0.10464403D-05
  0.94841937D-20  0.13780954D-19  0.18321938D-19  0.21985058D-19  0.21270641D-19
  0.15099678D-19  0.46930179D-20 -0.26944349D-20 -0.30953075D-20 -0.82198611D-21
  0.29657515D-21  0.13228875D-03  0.19222142D-03  0.25556061D-03  0.30665504D-03
  0.29669011D-03  0.21061543D-03  0.65459805D-04 -0.37582891D-04 -0.43174398D-04
 -0.11465341D-04  0.41367308D-05  0.61082063D-07  0.83208229D-22 -0.16208836D-05
  0.23312363D-05 -0.62517405D-21 -0.85394661D-06  0.21043302D-06  0.20761628D-21
 -0.14576897D-06  0.17538428D-04  0.18352075D-04  0.15636950D-04  0.10298114D-04
  0.47460941D-05  0.14212255D-05  0.24180948D-06 -0.27184734D-04 -0.28445895D-04
 -0.24237425D-04 -0.15962177D-04 -0.73564919D-05 -0.22029134D-05 -0.37480704D-06
  0.96463058D-05  0.10093820D-04  0.86004746D-05  0.56640627D-05  0.26103979D-05
  0.78168787D-06  0.13299756D-06  0.70154420D-19  0.73409042D-19  0.62548433D-19
  0.41192872D-19  0.18984568D-19  0.56849596D-20  0.96724769D-21 -0.28187261D-04
 -0.29494932D-04 -0.25131261D-04 -0.16550835D-04 -0.76277871D-05 -0.22841532D-05
 -0.38862930D-06  0.90461607D-19  0.94658324D-19  0.80653959D-19  0.53116729D-19
  0.24479919D-19  0.73305514D-20  0.12472312D-20 -0.12164487D-05  0.15992088D-05
 -0.38276010D-06 -0.39928651D-20  0.14590186D-05 -0.49895619D-20  0.13317830D-05
  0.31603473D-06 -0.16478177D-05  0.14253860D-20 -0.21716962D-05  0.13555635D-20
 -0.45111669D-06  0.59594706D-07  0.39152198D-06 -0.55376537D-21 -0.62709502D-06
 -0.12591666D-21  0.54481622D-07 -0.67191542D-21  0.10545454D-05  0.62338218D-06
 -0.31721708D-21 -0.18881724D-05 -0.78682704D-06  0.23329633D-20 -0.12754640D-05
 -0.11566790D-20 -0.12234268D-06  0.13369134D-21 -0.33459092D-07 -0.17161297D-06
 -0.45000381D-23  0.57013353D-07  0.53864101D-06 -0.39657397D-21  0.43363921D-07
  0.52300517D-21
MO    2     MO 0.0        OCC NO =    2.0000000  ORB. ENERGY = -481.060999
 -0.11850693D-02 -0.22292597D-02 -0.38589585D-02 -0.63255713D-02 -0.99091299D-02
 -0.14894266D-01 -0.21287648D-01 -0.28259881D-01 -0.32912470D-01 -0.30229786D-01
 -0.17676545D-01 -0.46384137D-02 -0.25358027D-03  0.90761321D-05 -0.25364925D-05
  0.75317022D-06 -0.12840248D-06 -0.10475876D-07  0.36607551D-06  0.67259414D-06
  0.11630703D-05  0.19046901D-05  0.29988490D-05  0.45285559D-05  0.66103086D-05
  0.91027964D-05  0.11630937D-04  0.12679084D-04  0.10436838D-04  0.28617102D-05
 -0.57722551D-05 -0.56253147D-05 -0.12309773D-05 -0.41470493D-07 -0.14048878D-08
  0.35738534D-11 -0.56537073D-06 -0.11083531D-05 -0.19412530D-05 -0.31713757D-05
 -0.50020233D-05 -0.75478298D-05 -0.11066618D-04 -0.15279297D-04 -0.19809684D-04
 -0.22029535D-04 -0.19134007D-04 -0.55580868D-05  0.14011869D-04  0.20416281D-04
  0.35147358D-05 -0.85744504D-05 -0.40812222D-05  0.19709469D-07  0.27648619D-06
  0.59907881D-06  0.10198367D-05  0.16646481D-05  0.26241544D-05  0.39606069D-05
  0.58068951D-05  0.80276203D-05  0.10419046D-04  0.11639896D-04  0.10167713D-04
  0.30116864D-05 -0.78286546D-05 -0.12043117D-04 -0.21079132D-05  0.66492957D-05
  0.56442465D-05 -0.21058179D-05  0.23161514D-05  0.84743007D-06 -0.31064614D-06
 -0.97537465D-05 -0.13994899D-04 -0.18529991D-04 -0.21396889D-04 -0.19835901D-04
 -0.12842124D-04 -0.45327980D-05 -0.53128302D-06 -0.77238717D-08 -0.11310750D-08
 -0.11629208D-10 -0.27980205D-17 -0.40146640D-17 -0.53156285D-17 -0.61380449D-17
 -0.56902500D-17 -0.36839716D-17 -0.13003067D-17 -0.15240715D-18 -0.22157179D-20
 -0.32446723D-21 -0.33360270D-23 -0.41006576D-04 -0.58837176D-04 -0.77903549D-04
 -0.89956527D-04 -0.83393839D-04 -0.53990691D-04 -0.19056731D-04 -0.22336132D-05
 -0.32472602D-07 -0.47552512D-08 -0.48891367D-10  0.41589858D-04  0.60035438D-04
  0.80205910D-04  0.95287082D-04  0.92340487D-04  0.64188417D-04  0.20886295D-04
 -0.94004903D-05 -0.10155666D-04 -0.26145451D-05  0.25502473D-08 -0.77846589D-19