 Molden2AIM, Version 4.0.0 (06/02/2016)           Time: Fri Jun 29 03:54:11 2018
GAUSSIAN             41 MOL ORBITALS    674 PRIMITIVES        6 NUCLEI
  N    1    (CENTRE  1)   0.03434766  1.29483089 -0.54285029  CHARGE =  7.0
  N    2    (CENTRE  2)  -0.03434766 -1.29483089 -0.54285029  CHARGE =  7.0
  Cl   3    (CENTRE  3)   1.41561085  2.73265169  2.22310972  CHARGE = 17.0
  Cl   4    (CENTRE  4)  -3.08737029  2.33161212 -0.79941462  CHARGE = 17.0
  Cl   5    (CENTRE  5)  -1.41561085 -2.73265169  2.22310972  CHARGE = 17.0
  Cl   6    (CENTRE  6)   3.08737029 -2.33161212 -0.79941462  CHARGE = 17.0
CENTRE ASSIGNMENTS    1  1  1  1  1  1  1  1  1  1  1  1  1  1  1  1  1  1  1  1
CENTRE ASSIGNMENTS    1  1  1  1  1  1  1  1  1  1  1  1  1  1  1  1  1  1  1  1
CENTRE ASSIGNMENTS    1  1  1  1  1  1  1  1  1  1  1  1  1  1  1  1  1  1  1  1
CENTRE ASSIGNMENTS    1  1  1  1  1  1  1  1  1  1  1  1  1  1  1  2  2  2  2  2
CENTRE ASSIGNMENTS    2  2  2  2  2  2  2  2  2  2  2  2  2  2  2  2  2  2  2  2
CENTRE ASSIGNMENTS    2  2  2  2  2  2  2  2  2  2  2  2  2  2  2  2  2  2  2  2
CENTRE ASSIGNMENTS    2  2  2  2  2  2  2  2  2  2  2  2  2  2  2  2  2  2  2  2
CENTRE ASSIGNMENTS    2  2  2  2  2  2  2  2  2  2  3  3  3  3  3  3  3  3  3  3
CENTRE ASSIGNMENTS    3  3  3  3  3  3  3  3  3  3  3  3  3  3  3  3  3  3  3  3
CENTRE ASSIGNMENTS    3  3  3  3  3  3  3  3  3  3  3  3  3  3  3  3  3  3  3  3
CENTRE ASSIGNMENTS    3  3  3  3  3  3  3  3  3  3  3  3  3  3  3  3  3  3  3  3
CENTRE ASSIGNMENTS    3  3  3  3  3  3  3  3  3  3  3  3  3  3  3  3  3  3  3  3
CENTRE ASSIGNMENTS    3  3  3  3  3  3  3  3  3  3  3  3  3  3  3  3  3  3  3  3
CENTRE ASSIGNMENTS    3  3  3  3  3  3  3  3  3  3  3  3  3  3  3  3  3  3  3  3
CENTRE ASSIGNMENTS    3  4  4  4  4  4  4  4  4  4  4  4  4  4  4  4  4  4  4  4
CENTRE ASSIGNMENTS    4  4  4  4  4  4  4  4  4  4  4  4  4  4  4  4  4  4  4  4
CENTRE ASSIGNMENTS    4  4  4  4  4  4  4  4  4  4  4  4  4  4  4  4  4  4  4  4
CENTRE ASSIGNMENTS    4  4  4  4  4  4  4  4  4  4  4  4  4  4  4  4  4  4  4  4
CENTRE ASSIGNMENTS    4  4  4  4  4  4  4  4  4  4  4  4  4  4  4  4  4  4  4  4
CENTRE ASSIGNMENTS    4  4  4  4  4  4  4  4  4  4  4  4  4  4  4  4  4  4  4  4
CENTRE ASSIGNMENTS    4  4  4  4  4  4  4  4  4  4  4  4  5  5  5  5  5  5  5  5
CENTRE ASSIGNMENTS    5  5  5  5  5  5  5  5  5  5  5  5  5  5  5  5  5  5  5  5
CENTRE ASSIGNMENTS    5  5  5  5  5  5  5  5  5  5  5  5  5  5  5  5  5  5  5  5
CENTRE ASSIGNMENTS    5  5  5  5  5  5  5  5  5  5  5  5  5  5  5  5  5  5  5  5
CENTRE ASSIGNMENTS    5  5  5  5  5  5  5  5  5  5  5  5  5  5  5  5  5  5  5  5
CENTRE ASSIGNMENTS    5  5  5  5  5  5  5  5  5  5  5  5  5  5  5  5  5  5  5  5
CENTRE ASSIGNMENTS    5  5  5  5  5  5  5  5  5  5  5  5  5  5  5  5  5  5  5  5
CENTRE ASSIGNMENTS    5  5  5  6  6  6  6  6  6  6  6  6  6  6  6  6  6  6  6  6
CENTRE ASSIGNMENTS    6  6  6  6  6  6  6  6  6  6  6  6  6  6  6  6  6  6  6  6
CENTRE ASSIGNMENTS    6  6  6  6  6  6  6  6  6  6  6  6  6  6  6  6  6  6  6  6
CENTRE ASSIGNMENTS    6  6  6  6  6  6  6  6  6  6  6  6  6  6  6  6  6  6  6  6
CENTRE ASSIGNMENTS    6  6  6  6  6  6  6  6  6  6  6  6  6  6  6  6  6  6  6  6
CENTRE ASSIGNMENTS    6  6  6  6  6  6  6  6  6  6  6  6  6  6  6  6  6  6  6  6
CENTRE ASSIGNMENTS    6  6  6  6  6  6  6  6  6  6  6  6  6  6
TYPE ASSIGNMENTS      1  1  1  1  1  1  1  1  1  1  1  1  1  1  1  1  1  1  1  2
TYPE ASSIGNMENTS      2  2  3  3  3  4  4  4  2  3  4  2  3  4  2  3  4  5  6  7
TYPE ASSIGNMENTS      8  9 10  5  6  7  8  9 10  5  6  7  8  9 10 11 12 13 17 14
TYPE ASSIGNMENTS     15 18 19 16 20 11 12 13 17 14 15 18 19 16 20  1  1  1  1  1
TYPE ASSIGNMENTS      1  1  1  1  1  1  1  1  1  1  1  1  1  1  2  2  2  3  3  3
TYPE ASSIGNMENTS      4  4  4  2  3  4  2  3  4  2  3  4  5  6  7  8  9 10  5  6
TYPE ASSIGNMENTS      7  8  9 10  5  6  7  8  9 10 11 12 13 17 14 15 18 19 16 20
TYPE ASSIGNMENTS     11 12 13 17 14 15 18 19 16 20  1  1  1  1  1  1  1  1  1  1
TYPE ASSIGNMENTS      1  1  1  1  1  1  1  1  1  1  1  1  1  1  1  1  1  1  1  1
TYPE ASSIGNMENTS      1  1  1  1  1  1  1  1  1  1  1  1  2  2  2  2  2  2  2  3
TYPE ASSIGNMENTS      3  3  3  3  3  3  4  4  4  4  4  4  4  2  2  2  2  2  2  2
TYPE ASSIGNMENTS      3  3  3  3  3  3  3  4  4  4  4  4  4  4  2  3  4  2  3  4
TYPE ASSIGNMENTS      2  3  4  5  6  7  8  9 10  5  6  7  8  9 10  5  6  7  8  9
TYPE ASSIGNMENTS     10 11 12 13 17 14 15 18 19 16 20 11 12 13 17 14 15 18 19 16
TYPE ASSIGNMENTS     20  1  1  1  1  1  1  1  1  1  1  1  1  1  1  1  1  1  1  1
TYPE ASSIGNMENTS      1  1  1  1  1  1  1  1  1  1  1  1  1  1  1  1  1  1  1  1
TYPE ASSIGNMENTS      1  1  1  2  2  2  2  2  2  2  3  3  3  3  3  3  3  4  4  4
TYPE ASSIGNMENTS      4  4  4  4  2  2  2  2  2  2  2  3  3  3  3  3  3  3  4  4
TYPE ASSIGNMENTS      4  4  4  4  4  2  3  4  2  3  4  2  3  4  5  6  7  8  9 10
TYPE ASSIGNMENTS      5  6  7  8  9 10  5  6  7  8  9 10 11 12 13 17 14 15 18 19
TYPE ASSIGNMENTS     16 20 11 12 13 17 14 15 18 19 16 20  1  1  1  1  1  1  1  1
TYPE ASSIGNMENTS      1  1  1  1  1  1  1  1  1  1  1  1  1  1  1  1  1  1  1  1
TYPE ASSIGNMENTS      1  1  1  1  1  1  1  1  1  1  1  1  1  1  2  2  2  2  2  2
TYPE ASSIGNMENTS      2  3  3  3  3  3  3  3  4  4  4  4  4  4  4  2  2  2  2  2
TYPE ASSIGNMENTS      2  2  3  3  3  3  3  3  3  4  4  4  4  4  4  4  2  3  4  2
TYPE ASSIGNMENTS      3  4  2  3  4  5  6  7  8  9 10  5  6  7  8  9 10  5  6  7
TYPE ASSIGNMENTS      8  9 10 11 12 13 17 14 15 18 19 16 20 11 12 13 17 14 15 18
TYPE ASSIGNMENTS     19 16 20  1  1  1  1  1  1  1  1  1  1  1  1  1  1  1  1  1
TYPE ASSIGNMENTS      1  1  1  1  1  1  1  1  1  1  1  1  1  1  1  1  1  1  1  1
TYPE ASSIGNMENTS      1  1  1  1  1  2  2  2  2  2  2  2  3  3  3  3  3  3  3  4
TYPE ASSIGNMENTS      4  4  4  4  4  4  2  2  2  2  2  2  2  3  3  3  3  3  3  3
TYPE ASSIGNMENTS      4  4  4  4  4  4  4  2  3  4  2  3  4  2  3  4  5  6  7  8
TYPE ASSIGNMENTS      9 10  5  6  7  8  9 10  5  6  7  8  9 10 11 12 13 17 14 15
TYPE ASSIGNMENTS     18 19 16 20 11 12 13 17 14 15 18 19 16 20
EXPONENTS  0.1142000D+05 0.1712000D+04 0.3893000D+03 0.1100000D+03 0.3557000D+02
EXPONENTS  0.1254000D+02 0.4644000D+01 0.5118000D+00 0.1142000D+05 0.1712000D+04
EXPONENTS  0.3893000D+03 0.1100000D+03 0.3557000D+02 0.1254000D+02 0.4644000D+01
EXPONENTS  0.5118000D+00 0.1293000D+01 0.1787000D+00 0.5760000D-01 0.2663000D+02
EXPONENTS  0.5948000D+01 0.1742000D+01 0.2663000D+02 0.5948000D+01 0.1742000D+01
EXPONENTS  0.2663000D+02 0.5948000D+01 0.1742000D+01 0.5550000D+00 0.5550000D+00
EXPONENTS  0.5550000D+00 0.1725000D+00 0.1725000D+00 0.1725000D+00 0.4910000D-01
EXPONENTS  0.4910000D-01 0.4910000D-01 0.1654000D+01 0.1654000D+01 0.1654000D+01
EXPONENTS  0.1654000D+01 0.1654000D+01 0.1654000D+01 0.4690000D+00 0.4690000D+00
EXPONENTS  0.4690000D+00 0.4690000D+00 0.4690000D+00 0.4690000D+00 0.1510000D+00
EXPONENTS  0.1510000D+00 0.1510000D+00 0.1510000D+00 0.1510000D+00 0.1510000D+00
EXPONENTS  0.1093000D+01 0.1093000D+01 0.1093000D+01 0.1093000D+01 0.1093000D+01
EXPONENTS  0.1093000D+01 0.1093000D+01 0.1093000D+01 0.1093000D+01 0.1093000D+01
EXPONENTS  0.3640000D+00 0.3640000D+00 0.3640000D+00 0.3640000D+00 0.3640000D+00
EXPONENTS  0.3640000D+00 0.3640000D+00 0.3640000D+00 0.3640000D+00 0.3640000D+00
EXPONENTS  0.1142000D+05 0.1712000D+04 0.3893000D+03 0.1100000D+03 0.3557000D+02
EXPONENTS  0.1254000D+02 0.4644000D+01 0.5118000D+00 0.1142000D+05 0.1712000D+04
EXPONENTS  0.3893000D+03 0.1100000D+03 0.3557000D+02 0.1254000D+02 0.4644000D+01
EXPONENTS  0.5118000D+00 0.1293000D+01 0.1787000D+00 0.5760000D-01 0.2663000D+02
EXPONENTS  0.5948000D+01 0.1742000D+01 0.2663000D+02 0.5948000D+01 0.1742000D+01
EXPONENTS  0.2663000D+02 0.5948000D+01 0.1742000D+01 0.5550000D+00 0.5550000D+00
EXPONENTS  0.5550000D+00 0.1725000D+00 0.1725000D+00 0.1725000D+00 0.4910000D-01
EXPONENTS  0.4910000D-01 0.4910000D-01 0.1654000D+01 0.1654000D+01 0.1654000D+01
EXPONENTS  0.1654000D+01 0.1654000D+01 0.1654000D+01 0.4690000D+00 0.4690000D+00
EXPONENTS  0.4690000D+00 0.4690000D+00 0.4690000D+00 0.4690000D+00 0.1510000D+00
EXPONENTS  0.1510000D+00 0.1510000D+00 0.1510000D+00 0.1510000D+00 0.1510000D+00
EXPONENTS  0.1093000D+01 0.1093000D+01 0.1093000D+01 0.1093000D+01 0.1093000D+01
EXPONENTS  0.1093000D+01 0.1093000D+01 0.1093000D+01 0.1093000D+01 0.1093000D+01
EXPONENTS  0.3640000D+00 0.3640000D+00 0.3640000D+00 0.3640000D+00 0.3640000D+00
EXPONENTS  0.3640000D+00 0.3640000D+00 0.3640000D+00 0.3640000D+00 0.3640000D+00
EXPONENTS  0.4561000D+06 0.6833000D+05 0.1555000D+05 0.4405000D+04 0.1439000D+04
EXPONENTS  0.5204000D+03 0.2031000D+03 0.8396000D+02 0.3620000D+02 0.1583000D+02
EXPONENTS  0.6334000D+01 0.2694000D+01 0.4313000D+00 0.4561000D+06 0.6833000D+05
EXPONENTS  0.1555000D+05 0.4405000D+04 0.1439000D+04 0.5204000D+03 0.2031000D+03
EXPONENTS  0.8396000D+02 0.3620000D+02 0.1583000D+02 0.6334000D+01 0.2694000D+01
EXPONENTS  0.4313000D+00 0.4561000D+06 0.6833000D+05 0.1555000D+05 0.4405000D+04
EXPONENTS  0.1439000D+04 0.5204000D+03 0.2031000D+03 0.8396000D+02 0.3620000D+02
EXPONENTS  0.1583000D+02 0.6334000D+01 0.2694000D+01 0.4313000D+00 0.9768000D+00
EXPONENTS  0.1625000D+00 0.5910000D-01 0.6633000D+03 0.1568000D+03 0.4998000D+02
EXPONENTS  0.1842000D+02 0.7240000D+01 0.2922000D+01 0.3818000D+00 0.6633000D+03
EXPONENTS  0.1568000D+03 0.4998000D+02 0.1842000D+02 0.7240000D+01 0.2922000D+01
EXPONENTS  0.3818000D+00 0.6633000D+03 0.1568000D+03 0.4998000D+02 0.1842000D+02
EXPONENTS  0.7240000D+01 0.2922000D+01 0.3818000D+00 0.6633000D+03 0.1568000D+03
EXPONENTS  0.4998000D+02 0.1842000D+02 0.7240000D+01 0.2922000D+01 0.3818000D+00
EXPONENTS  0.6633000D+03 0.1568000D+03 0.4998000D+02 0.1842000D+02 0.7240000D+01
EXPONENTS  0.2922000D+01 0.3818000D+00 0.6633000D+03 0.1568000D+03 0.4998000D+02
EXPONENTS  0.1842000D+02 0.7240000D+01 0.2922000D+01 0.3818000D+00 0.1022000D+01
EXPONENTS  0.1022000D+01 0.1022000D+01 0.1301000D+00 0.1301000D+00 0.1301000D+00
EXPONENTS  0.4190000D-01 0.4190000D-01 0.4190000D-01 0.1046000D+01 0.1046000D+01
EXPONENTS  0.1046000D+01 0.1046000D+01 0.1046000D+01 0.1046000D+01 0.3440000D+00
EXPONENTS  0.3440000D+00 0.3440000D+00 0.3440000D+00 0.3440000D+00 0.3440000D+00
EXPONENTS  0.1350000D+00 0.1350000D+00 0.1350000D+00 0.1350000D+00 0.1350000D+00
EXPONENTS  0.1350000D+00 0.7060000D+00 0.7060000D+00 0.7060000D+00 0.7060000D+00
EXPONENTS  0.7060000D+00 0.7060000D+00 0.7060000D+00 0.7060000D+00 0.7060000D+00
EXPONENTS  0.7060000D+00 0.3120000D+00 0.3120000D+00 0.3120000D+00 0.3120000D+00
EXPONENTS  0.3120000D+00 0.3120000D+00 0.3120000D+00 0.3120000D+00 0.3120000D+00
EXPONENTS  0.3120000D+00 0.4561000D+06 0.6833000D+05 0.1555000D+05 0.4405000D+04
EXPONENTS  0.1439000D+04 0.5204000D+03 0.2031000D+03 0.8396000D+02 0.3620000D+02
EXPONENTS  0.1583000D+02 0.6334000D+01 0.2694000D+01 0.4313000D+00 0.4561000D+06
EXPONENTS  0.6833000D+05 0.1555000D+05 0.4405000D+04 0.1439000D+04 0.5204000D+03
EXPONENTS  0.2031000D+03 0.8396000D+02 0.3620000D+02 0.1583000D+02 0.6334000D+01
EXPONENTS  0.2694000D+01 0.4313000D+00 0.4561000D+06 0.6833000D+05 0.1555000D+05
EXPONENTS  0.4405000D+04 0.1439000D+04 0.5204000D+03 0.2031000D+03 0.8396000D+02
EXPONENTS  0.3620000D+02 0.1583000D+02 0.6334000D+01 0.2694000D+01 0.4313000D+00
EXPONENTS  0.9768000D+00 0.1625000D+00 0.5910000D-01 0.6633000D+03 0.1568000D+03
EXPONENTS  0.4998000D+02 0.1842000D+02 0.7240000D+01 0.2922000D+01 0.3818000D+00
EXPONENTS  0.6633000D+03 0.1568000D+03 0.4998000D+02 0.1842000D+02 0.7240000D+01
EXPONENTS  0.2922000D+01 0.3818000D+00 0.6633000D+03 0.1568000D+03 0.4998000D+02
EXPONENTS  0.1842000D+02 0.7240000D+01 0.2922000D+01 0.3818000D+00 0.6633000D+03
EXPONENTS  0.1568000D+03 0.4998000D+02 0.1842000D+02 0.7240000D+01 0.2922000D+01
EXPONENTS  0.3818000D+00 0.6633000D+03 0.1568000D+03 0.4998000D+02 0.1842000D+02
EXPONENTS  0.7240000D+01 0.2922000D+01 0.3818000D+00 0.6633000D+03 0.1568000D+03
EXPONENTS  0.4998000D+02 0.1842000D+02 0.7240000D+01 0.2922000D+01 0.3818000D+00
EXPONENTS  0.1022000D+01 0.1022000D+01 0.1022000D+01 0.1301000D+00 0.1301000D+00
EXPONENTS  0.1301000D+00 0.4190000D-01 0.4190000D-01 0.4190000D-01 0.1046000D+01
EXPONENTS  0.1046000D+01 0.1046000D+01 0.1046000D+01 0.1046000D+01 0.1046000D+01
EXPONENTS  0.3440000D+00 0.3440000D+00 0.3440000D+00 0.3440000D+00 0.3440000D+00
EXPONENTS  0.3440000D+00 0.1350000D+00 0.1350000D+00 0.1350000D+00 0.1350000D+00
EXPONENTS  0.1350000D+00 0.1350000D+00 0.7060000D+00 0.7060000D+00 0.7060000D+00
EXPONENTS  0.7060000D+00 0.7060000D+00 0.7060000D+00 0.7060000D+00 0.7060000D+00
EXPONENTS  0.7060000D+00 0.7060000D+00 0.3120000D+00 0.3120000D+00 0.3120000D+00
EXPONENTS  0.3120000D+00 0.3120000D+00 0.3120000D+00 0.3120000D+00 0.3120000D+00
EXPONENTS  0.3120000D+00 0.3120000D+00 0.4561000D+06 0.6833000D+05 0.1555000D+05
EXPONENTS  0.4405000D+04 0.1439000D+04 0.5204000D+03 0.2031000D+03 0.8396000D+02
EXPONENTS  0.3620000D+02 0.1583000D+02 0.6334000D+01 0.2694000D+01 0.4313000D+00
EXPONENTS  0.4561000D+06 0.6833000D+05 0.1555000D+05 0.4405000D+04 0.1439000D+04
EXPONENTS  0.5204000D+03 0.2031000D+03 0.8396000D+02 0.3620000D+02 0.1583000D+02
EXPONENTS  0.6334000D+01 0.2694000D+01 0.4313000D+00 0.4561000D+06 0.6833000D+05
EXPONENTS  0.1555000D+05 0.4405000D+04 0.1439000D+04 0.5204000D+03 0.2031000D+03
EXPONENTS  0.8396000D+02 0.3620000D+02 0.1583000D+02 0.6334000D+01 0.2694000D+01
EXPONENTS  0.4313000D+00 0.9768000D+00 0.1625000D+00 0.5910000D-01 0.6633000D+03
EXPONENTS  0.1568000D+03 0.4998000D+02 0.1842000D+02 0.7240000D+01 0.2922000D+01
EXPONENTS  0.3818000D+00 0.6633000D+03 0.1568000D+03 0.4998000D+02 0.1842000D+02
EXPONENTS  0.7240000D+01 0.2922000D+01 0.3818000D+00 0.6633000D+03 0.1568000D+03
EXPONENTS  0.4998000D+02 0.1842000D+02 0.7240000D+01 0.2922000D+01 0.3818000D+00
EXPONENTS  0.6633000D+03 0.1568000D+03 0.4998000D+02 0.1842000D+02 0.7240000D+01
EXPONENTS  0.2922000D+01 0.3818000D+00 0.6633000D+03 0.1568000D+03 0.4998000D+02
EXPONENTS  0.1842000D+02 0.7240000D+01 0.2922000D+01 0.3818000D+00 0.6633000D+03
EXPONENTS  0.1568000D+03 0.4998000D+02 0.1842000D+02 0.7240000D+01 0.2922000D+01
EXPONENTS  0.3818000D+00 0.1022000D+01 0.1022000D+01 0.1022000D+01 0.1301000D+00
EXPONENTS  0.1301000D+00 0.1301000D+00 0.4190000D-01 0.4190000D-01 0.4190000D-01
EXPONENTS  0.1046000D+01 0.1046000D+01 0.1046000D+01 0.1046000D+01 0.1046000D+01
EXPONENTS  0.1046000D+01 0.3440000D+00 0.3440000D+00 0.3440000D+00 0.3440000D+00
EXPONENTS  0.3440000D+00 0.3440000D+00 0.1350000D+00 0.1350000D+00 0.1350000D+00
EXPONENTS  0.1350000D+00 0.1350000D+00 0.1350000D+00 0.7060000D+00 0.7060000D+00
EXPONENTS  0.7060000D+00 0.7060000D+00 0.7060000D+00 0.7060000D+00 0.7060000D+00
EXPONENTS  0.7060000D+00 0.7060000D+00 0.7060000D+00 0.3120000D+00 0.3120000D+00
EXPONENTS  0.3120000D+00 0.3120000D+00 0.3120000D+00 0.3120000D+00 0.3120000D+00
EXPONENTS  0.3120000D+00 0.3120000D+00 0.3120000D+00 0.4561000D+06 0.6833000D+05
EXPONENTS  0.1555000D+05 0.4405000D+04 0.1439000D+04 0.5204000D+03 0.2031000D+03
EXPONENTS  0.8396000D+02 0.3620000D+02 0.1583000D+02 0.6334000D+01 0.2694000D+01
EXPONENTS  0.4313000D+00 0.4561000D+06 0.6833000D+05 0.1555000D+05 0.4405000D+04
EXPONENTS  0.1439000D+04 0.5204000D+03 0.2031000D+03 0.8396000D+02 0.3620000D+02
EXPONENTS  0.1583000D+02 0.6334000D+01 0.2694000D+01 0.4313000D+00 0.4561000D+06
EXPONENTS  0.6833000D+05 0.1555000D+05 0.4405000D+04 0.1439000D+04 0.5204000D+03
EXPONENTS  0.2031000D+03 0.8396000D+02 0.3620000D+02 0.1583000D+02 0.6334000D+01
EXPONENTS  0.2694000D+01 0.4313000D+00 0.9768000D+00 0.1625000D+00 0.5910000D-01
EXPONENTS  0.6633000D+03 0.1568000D+03 0.4998000D+02 0.1842000D+02 0.7240000D+01
EXPONENTS  0.2922000D+01 0.3818000D+00 0.6633000D+03 0.1568000D+03 0.4998000D+02
EXPONENTS  0.1842000D+02 0.7240000D+01 0.2922000D+01 0.3818000D+00 0.6633000D+03
EXPONENTS  0.1568000D+03 0.4998000D+02 0.1842000D+02 0.7240000D+01 0.2922000D+01
EXPONENTS  0.3818000D+00 0.6633000D+03 0.1568000D+03 0.4998000D+02 0.1842000D+02
EXPONENTS  0.7240000D+01 0.2922000D+01 0.3818000D+00 0.6633000D+03 0.1568000D+03
EXPONENTS  0.4998000D+02 0.1842000D+02 0.7240000D+01 0.2922000D+01 0.3818000D+00
EXPONENTS  0.6633000D+03 0.1568000D+03 0.4998000D+02 0.1842000D+02 0.7240000D+01
EXPONENTS  0.2922000D+01 0.3818000D+00 0.1022000D+01 0.1022000D+01 0.1022000D+01
EXPONENTS  0.1301000D+00 0.1301000D+00 0.1301000D+00 0.4190000D-01 0.4190000D-01
EXPONENTS  0.4190000D-01 0.1046000D+01 0.1046000D+01 0.1046000D+01 0.1046000D+01
EXPONENTS  0.1046000D+01 0.1046000D+01 0.3440000D+00 0.3440000D+00 0.3440000D+00
EXPONENTS  0.3440000D+00 0.3440000D+00 0.3440000D+00 0.1350000D+00 0.1350000D+00
EXPONENTS  0.1350000D+00 0.1350000D+00 0.1350000D+00 0.1350000D+00 0.7060000D+00
EXPONENTS  0.7060000D+00 0.7060000D+00 0.7060000D+00 0.7060000D+00 0.7060000D+00
EXPONENTS  0.7060000D+00 0.7060000D+00 0.7060000D+00 0.7060000D+00 0.3120000D+00
EXPONENTS  0.3120000D+00 0.3120000D+00 0.3120000D+00 0.3120000D+00 0.3120000D+00
EXPONENTS  0.3120000D+00 0.3120000D+00 0.3120000D+00 0.3120000D+00
MO    1     MO 0.0        OCC NO =    2.0000000  ORB. ENERGY = -100.761011
  0.34243113D-04  0.63806999D-04  0.10791363D-03  0.16251195D-03  0.20120034D-03
  0.17121241D-03  0.65149479D-04 -0.30512281D-06 -0.26269443D-04 -0.49255451D-04
 -0.83798177D-04 -0.13012972D-03 -0.17268971D-03 -0.18199125D-03 -0.11284618D-03
  0.75065324D-04  0.51986879D-04  0.12043718D-03  0.32959062D-03  0.50846803D-04
  0.48837747D-04  0.34248399D-04  0.65212773D-05  0.62636089D-05  0.43924749D-05
 -0.89163215D-05 -0.85640202D-05 -0.60056821D-05 -0.19470687D-03  0.37820358D-04
  0.19629733D-04 -0.83601724D-05 -0.44609422D-04 -0.17022073D-03 -0.34299358D-04
 -0.46496985D-06  0.13716104D-04  0.14714955D-03 -0.85381016D-04 -0.61768536D-04
 -0.16488967D-03  0.14859331D-03  0.46745642D-04 -0.36172097D-04  0.23806459D-04
  0.12365638D-04  0.81521567D-04 -0.58669310D-04 -0.38640681D-04  0.10963162D-04
  0.13446913D-04 -0.24410075D-04 -0.19511979D-03 -0.38349841D-04 -0.22012902D-04
 -0.10010921D-04 -0.32454075D-04 -0.13294106D-04 -0.15937879D-03  0.12363584D-03
  0.43927559D-04  0.18941155D-03 -0.26273616D-04 -0.40452402D-05  0.98492792D-04
  0.38404851D-04  0.32542747D-04  0.10934387D-05  0.15994093D-04 -0.11046726D-03
 -0.27818168D-05 -0.13120865D-03  0.12839018D-04 -0.49849914D-06 -0.78452407D-04
  0.34243120D-04  0.63807012D-04  0.10791365D-03  0.16251198D-03  0.20120038D-03
  0.17121244D-03  0.65149492D-04 -0.30512287D-06 -0.26269448D-04 -0.49255460D-04
 -0.83798192D-04 -0.13012974D-03 -0.17268974D-03 -0.18199128D-03 -0.11284620D-03
  0.75065338D-04  0.51986883D-04  0.12043717D-03  0.32959068D-03 -0.50846786D-04
 -0.48837730D-04 -0.34248387D-04 -0.65212745D-05 -0.62636062D-05 -0.43924730D-05
 -0.89163157D-05 -0.85640146D-05 -0.60056782D-05  0.19470687D-03 -0.37820365D-04
  0.19629723D-04  0.83602176D-05  0.44609318D-04 -0.17022073D-03  0.34299361D-04
  0.46497057D-06  0.13716108D-04  0.14714957D-03 -0.85381011D-04 -0.61768556D-04
 -0.16488970D-03 -0.14859331D-03 -0.46745643D-04 -0.36172087D-04  0.23806440D-04
  0.12365646D-04  0.81521557D-04  0.58669312D-04  0.38640687D-04  0.10963158D-04
  0.13446908D-04 -0.24410066D-04 -0.19511978D-03  0.38349834D-04  0.22012887D-04
  0.10010931D-04  0.32454060D-04 -0.13294109D-04  0.15937876D-03 -0.12363581D-03
  0.43927573D-04 -0.18941155D-03  0.26273634D-04 -0.40452452D-05  0.98492782D-04
 -0.38404857D-04 -0.32542747D-04  0.10934386D-05 -0.15994077D-04  0.11046726D-03
 -0.27818198D-05  0.13120865D-03 -0.12839020D-04 -0.49849605D-06 -0.78452405D-04
 -0.72928827D-04 -0.13645011D-03 -0.23575557D-03 -0.38218727D-03 -0.58038186D-03
 -0.80666254D-03 -0.95900539D-03 -0.85420824D-03 -0.42405455D-03 -0.68321982D-04
 -0.10489244D-05 -0.18744176D-06 -0.70044062D-08  0.40799368D-04  0.76207361D-04
  0.13226157D-03  0.21460678D-03  0.33218581D-03  0.47549380D-03  0.62066794D-03
  0.66142526D-03  0.49442881D-03  0.26100018D-04 -0.33537228D-03 -0.19924967D-03
  0.74703687D-06 -0.21446698D-04 -0.40027171D-04 -0.69563700D-04 -0.11274229D-03
 -0.17510643D-03 -0.25084502D-03 -0.33121747D-03 -0.35814434D-03 -0.28078980D-03
 -0.13972008D-04  0.24070786D-03  0.24917725D-03 -0.11275623D-03  0.36120153D-04
  0.21448669D-03  0.41607177D-04  0.17289385D-03  0.22774000D-03  0.25125057D-03
  0.20869248D-03  0.11084165D-03  0.28589294D-04 -0.29388822D-07 -0.38632339D-03
 -0.50887460D-03 -0.56140790D-03 -0.46631379D-03 -0.24767058D-03 -0.63881468D-04
  0.65667977D-07 -0.92459984D-03 -0.12179055D-02 -0.13436351D-02 -0.11160434D-02
 -0.59275774D-03 -0.15288951D-03  0.15716522D-06 -0.14152101D-03 -0.18580672D-03
 -0.21155462D-03 -0.17913576D-03 -0.10261586D-03 -0.23341548D-04  0.10925129D-04
  0.35956463D-03  0.47208201D-03  0.53750009D-03  0.45513300D-03  0.26071771D-03
  0.59304233D-04 -0.27757645D-04  0.82973266D-03  0.10893782D-02  0.12403372D-02
  0.10502666D-02  0.60163313D-03  0.13685067D-03 -0.64053643D-04 -0.19765940D-04
  0.12120211D-04  0.43708452D-04 -0.55392383D-04 -0.45885518D-04 -0.14825291D-03
  0.12139591D-06  0.40430174D-06 -0.29327698D-05  0.33747873D-05  0.11911191D-04
 -0.15285979D-04  0.54385318D-05 -0.94357417D-05  0.15880312D-05 -0.27136663D-04
 -0.98153657D-05  0.36952029D-04  0.15810810D-04  0.13633516D-04  0.43690379D-04
 -0.49678737D-05 -0.91647723D-05  0.14132646D-04  0.92497399D-05  0.28680271D-04
  0.29733746D-04  0.16129517D-04  0.91020612D-05 -0.16401679D-04 -0.59296621D-04
  0.41296114D-05  0.50033187D-04  0.10908069D-04 -0.31435795D-04 -0.82815048D-06
  0.16803797D-04 -0.16188352D-05  0.79926274D-06  0.30399033D-06  0.15155982D-04
  0.94390539D-05  0.30761713D-05 -0.10299476D-04 -0.11836842D-04 -0.39881423D-05
 -0.29630414D-04  0.43653051D+00  0.81675026D+00  0.14111635D+01  0.22876606D+01
  0.34739952D+01  0.48284448D+01  0.57403243D+01  0.51130394D+01  0.25382658D+01
  0.40895529D+00  0.62785531D-02  0.11219713D-02  0.41926316D-04 -0.82289358D-03
 -0.15370470D-02 -0.26676197D-02 -0.43284627D-02 -0.66999461D-02 -0.95903642D-02
 -0.12518421D-01 -0.13340466D-01 -0.99722695D-02 -0.52641839D-03  0.67642150D-02
  0.40187209D-02 -0.15067190D-04  0.35108394D-03  0.65524759D-03  0.11387626D-02
  0.18455992D-02  0.28665046D-02  0.41063505D-02  0.54220532D-02  0.58628479D-02
  0.45965488D-02  0.22872275D-03 -0.39404045D-02 -0.40790491D-02  0.18458274D-02
 -0.22989607D-02 -0.87571101D-03 -0.32503058D-03  0.48431208D-02  0.63794770D-02
  0.70380576D-02  0.58459158D-02  0.31049079D-02  0.80084632D-03 -0.82324279D-06
 -0.24223076D-02 -0.31907227D-02 -0.35201146D-02 -0.29238598D-02 -0.15529330D-02
 -0.40054671D-03  0.41174840D-06  0.10897011D-02  0.14353809D-02  0.15835614D-02
  0.13153297D-02  0.69860357D-03  0.18019024D-03 -0.18522944D-06 -0.40714887D-02
 -0.53455662D-02 -0.60863204D-02 -0.51536461D-02 -0.29522069D-02 -0.67152465D-03
  0.31431049D-03  0.20638560D-02  0.27096916D-02  0.30851833D-02  0.26124065D-02
  0.14964870D-02  0.34039888D-03 -0.15932541D-03 -0.92460521D-03 -0.12139389D-02
 -0.13821587D-02 -0.11703552D-02 -0.67042453D-03 -0.15249832D-03  0.71377607D-04
 -0.15472765D-03  0.86398397D-04 -0.58205898D-04 -0.41014330D-03  0.15025958D-03
 -0.76071210D-04 -0.15802091D-04  0.56038643D-05 -0.59165283D-05  0.17244570D-03
 -0.37179437D-04 -0.13526627D-03 -0.22972690D-03  0.57792231D-04 -0.14418613D-04
 -0.18922643D-04 -0.35291828D-05  0.22451826D-04  0.42663375D-04  0.26151178D-05
 -0.70012282D-05 -0.47031370D-04  0.13296389D-04  0.33734981D-04  0.51858149D-04
 -0.29928694D-04  0.10115887D-04  0.62661555D-04  0.13342357D-05 -0.19543397D-04
 -0.32378010D-04 -0.90769690D-04  0.58362819D-04 -0.15560666D-03  0.86766983D-04
  0.26737217D-06 -0.53414232D-04 -0.17947650D-04 -0.17135011D-05  0.70557259D-05
 -0.48046535D-05  0.46718277D-04 -0.22768033D-04  0.58647604D-04 -0.41577774D-04
  0.16008550D-05  0.14080566D-04 -0.72928830D-04 -0.13645012D-03 -0.23575558D-03
 -0.38218729D-03 -0.58038189D-03 -0.80666258D-03 -0.95900543D-03 -0.85420828D-03
 -0.42405457D-03 -0.68321985D-04 -0.10489245D-05 -0.18744177D-06 -0.70044065D-08
  0.40799369D-04  0.76207364D-04  0.13226158D-03  0.21460679D-03  0.33218582D-03
  0.47549382D-03  0.62066796D-03  0.66142528D-03  0.49442883D-03  0.26100019D-04
 -0.33537229D-03 -0.19924967D-03  0.74703690D-06 -0.21446698D-04 -0.40027172D-04
 -0.69563702D-04 -0.11274230D-03 -0.17510644D-03 -0.25084503D-03 -0.33121749D-03
 -0.35814435D-03 -0.28078981D-03 -0.13972008D-04  0.24070786D-03  0.24917726D-03
 -0.11275624D-03  0.36120158D-04  0.21448665D-03  0.41607168D-04 -0.17289424D-03
 -0.22774051D-03 -0.25125113D-03 -0.20869295D-03 -0.11084189D-03 -0.28589358D-04
  0.29388888D-07  0.38632346D-03  0.50887470D-03  0.56140801D-03  0.46631388D-03
  0.24767063D-03  0.63881480D-04 -0.65667990D-07 -0.92459960D-03 -0.12179052D-02
 -0.13436347D-02 -0.11160431D-02 -0.59275759D-03 -0.15288947D-03  0.15716518D-06
  0.14152135D-03  0.18580716D-03  0.21155512D-03  0.17913619D-03  0.10261611D-03
  0.23341604D-04 -0.10925155D-04 -0.35956469D-03 -0.47208208D-03 -0.53750018D-03
 -0.45513308D-03 -0.26071775D-03 -0.59304243D-04  0.27757649D-04  0.82973245D-03
  0.10893779D-02  0.12403369D-02  0.10502663D-02  0.60163298D-03  0.13685063D-03
 -0.64053626D-04  0.19765963D-04 -0.12120220D-04  0.43708441D-04  0.55392385D-04
  0.45885512D-04 -0.14825290D-03 -0.12139610D-06 -0.40430219D-06 -0.29327698D-05
  0.33747857D-05  0.11911191D-04 -0.15285976D-04  0.54385281D-05  0.94357417D-05
 -0.15880211D-05 -0.27136665D-04 -0.98153618D-05  0.36952027D-04  0.15810809D-04
 -0.13633507D-04 -0.43690384D-04 -0.49678717D-05 -0.91647734D-05  0.14132645D-04
  0.92497404D-05 -0.28680273D-04 -0.29733745D-04 -0.16129519D-04 -0.91020578D-05
 -0.16401681D-04  0.59296623D-04 -0.41296158D-05  0.50033204D-04 -0.10908067D-04
  0.31435789D-04 -0.82816014D-06  0.16803808D-04  0.16188357D-05 -0.79926384D-06
  0.30399116D-06 -0.15155982D-04 -0.94390536D-05  0.30761664D-05  0.10299475D-04
  0.11836845D-04 -0.39881399D-05 -0.29630417D-04  0.43653060D+00  0.81675043D+00
  0.14111638D+01  0.22876611D+01  0.34739959D+01  0.48284458D+01  0.57403255D+01
  0.51130404D+01  0.25382664D+01  0.40895538D+00  0.62785544D-02  0.11219715D-02
  0.41926324D-04 -0.82289374D-03 -0.15370473D-02 -0.26676202D-02 -0.43284635D-02
 -0.66999474D-02 -0.95903660D-02 -0.12518423D-01 -0.13340469D-01 -0.99722714D-02
 -0.52641849D-03  0.67642163D-02  0.40187216D-02 -0.15067193D-04  0.35108401D-03
  0.65524772D-03  0.11387629D-02  0.18455996D-02  0.28665051D-02  0.41063513D-02
  0.54220543D-02  0.58628490D-02  0.45965497D-02  0.22872279D-03 -0.39404052D-02
 -0.40790499D-02  0.18458278D-02 -0.22989612D-02 -0.87571116D-03 -0.32503063D-03
 -0.48431214D-02 -0.63794778D-02 -0.70380585D-02 -0.58459166D-02 -0.31049083D-02
 -0.80084643D-03  0.82324290D-06  0.24223080D-02  0.31907233D-02  0.35201152D-02
  0.29238603D-02  0.15529333D-02  0.40054679D-03 -0.41174848D-06  0.10897013D-02
  0.14353811D-02  0.15835617D-02  0.13153300D-02  0.69860371D-03  0.18019028D-03
 -0.18522948D-06  0.40714892D-02  0.53455669D-02  0.60863212D-02  0.51536468D-02
  0.29522073D-02  0.67152474D-03 -0.31431053D-03 -0.20638564D-02 -0.27096921D-02
 -0.30851838D-02 -0.26124070D-02 -0.14964873D-02 -0.34039894D-03  0.15932544D-03
 -0.92460539D-03 -0.12139391D-02 -0.13821590D-02 -0.11703554D-02 -0.67042466D-03
 -0.15249835D-03  0.71377621D-04  0.15472767D-03 -0.86398417D-04 -0.58205909D-04
  0.41014337D-03 -0.15025961D-03 -0.76071220D-04  0.15802093D-04 -0.56038654D-05
 -0.59165290D-05  0.17244574D-03 -0.37179445D-04 -0.13526629D-03 -0.22972694D-03
 -0.57792244D-04  0.14418609D-04 -0.18922656D-04 -0.35291784D-05  0.22451835D-04
  0.42663383D-04 -0.26151159D-05  0.70012322D-05 -0.47031379D-04  0.13296391D-04
  0.33734988D-04  0.51858165D-04  0.29928700D-04 -0.10115888D-04 -0.62661562D-04
 -0.13342400D-05 -0.19543402D-04  0.32378009D-04  0.90769720D-04  0.58362836D-04
  0.15560668D-03 -0.86767000D-04  0.26737033D-06 -0.53414234D-04  0.17947655D-04
  0.17135025D-05  0.70557281D-05  0.48046518D-05 -0.46718290D-04 -0.22768041D-04
 -0.58647616D-04  0.41577783D-04  0.16008563D-05  0.14080565D-04
MO    2     MO 0.0        OCC NO =    2.0000000  ORB. ENERGY = -100.761009
  0.34309245D-04  0.63930226D-04  0.10812204D-03  0.16282580D-03  0.20158890D-03
  0.17154306D-03  0.65275298D-04 -0.30571207D-06 -0.24484471D-04 -0.45908613D-04
 -0.78104210D-04 -0.12128759D-03 -0.16095569D-03 -0.16962520D-03 -0.10517845D-03
  0.69964742D-04  0.19075213D-04 -0.72505238D-04  0.28214883D-03 -0.85073431D-04
 -0.81712013D-04 -0.57302104D-04 -0.13929932D-04 -0.13379533D-04 -0.93826521D-05
  0.28602143D-04  0.27472017D-04  0.19265274D-04  0.49866278D-06  0.34333653D-04
 -0.46986141D-04 -0.22390904D-03  0.51671149D-03  0.22256601D-05 -0.13633158D-04
 -0.35944943D-05  0.17534939D-04  0.76758779D-04  0.26157241D-04 -0.10291602D-03
 -0.16255157D-03  0.36337165D-04  0.58102553D-05  0.51751556D-04 -0.91706935D-04
  0.39955380D-04 -0.47432807D-04 -0.10162065D-04 -0.28773340D-04 -0.20313665D-04
 -0.26528496D-04  0.46842161D-04  0.56998276D-04  0.33394716D-04  0.74320088D-04
 -0.48338507D-04  0.71956620D-04 -0.15457152D-04  0.15965055D-03 -0.13149960D-03
  0.71297880D-04 -0.14635025D-04 -0.84370258D-04 -0.24926423D-04 -0.50606914D-04
  0.29027666D-04 -0.11874519D-05 -0.20844048D-06 -0.78470984D-04 -0.10354155D-04
 -0.14657887D-04 -0.86120145D-05  0.13916511D-04  0.15283208D-04  0.11697270D-04
 -0.34309238D-04 -0.63930213D-04 -0.10812202D-03 -0.16282577D-03 -0.20158886D-03
 -0.17154302D-03 -0.65275285D-04  0.30571201D-06  0.24484466D-04  0.45908603D-04
  0.78104193D-04  0.12128756D-03  0.16095565D-03  0.16962516D-03  0.10517842D-03
 -0.69964727D-04 -0.19075203D-04  0.72505263D-04 -0.28214876D-03 -0.85073441D-04
 -0.81712023D-04 -0.57302111D-04 -0.13929933D-04 -0.13379534D-04 -0.93826530D-05
 -0.28602145D-04 -0.27472018D-04 -0.19265275D-04  0.49870207D-06  0.34333645D-04
  0.46986145D-04 -0.22390903D-03  0.51671150D-03 -0.22256945D-05 -0.13633151D-04
 -0.35944942D-05 -0.17534936D-04 -0.76758749D-04 -0.26157258D-04  0.10291601D-03