 Molden2AIM, Version 4.0.0 (06/02/2016)           Time: Fri Jun 29 04:46:44 2018
GAUSSIAN             25 MOL ORBITALS    450 PRIMITIVES        6 NUCLEI
  N    1    (CENTRE  1)   0.06173924  1.37308256 -0.51139768  CHARGE =  7.0
  N    2    (CENTRE  2)  -0.06173924 -1.37308256 -0.51139768  CHARGE =  7.0
  F    3    (CENTRE  3)   0.93883484  2.12504427  1.81017243  CHARGE =  9.0
  F    4    (CENTRE  4)  -2.44494089  1.98936571 -0.41792994  CHARGE =  9.0
  F    5    (CENTRE  5)  -0.93883484 -2.12504427  1.81017243  CHARGE =  9.0
  F    6    (CENTRE  6)   2.44494089 -1.98936571 -0.41792994  CHARGE =  9.0
CENTRE ASSIGNMENTS    1  1  1  1  1  1  1  1  1  1  1  1  1  1  1  1  1  1  1  1
CENTRE ASSIGNMENTS    1  1  1  1  1  1  1  1  1  1  1  1  1  1  1  1  1  1  1  1
CENTRE ASSIGNMENTS    1  1  1  1  1  1  1  1  1  1  1  1  1  1  1  1  1  1  1  1
CENTRE ASSIGNMENTS    1  1  1  1  1  1  1  1  1  1  1  1  1  1  1  2  2  2  2  2
CENTRE ASSIGNMENTS    2  2  2  2  2  2  2  2  2  2  2  2  2  2  2  2  2  2  2  2
CENTRE ASSIGNMENTS    2  2  2  2  2  2  2  2  2  2  2  2  2  2  2  2  2  2  2  2
CENTRE ASSIGNMENTS    2  2  2  2  2  2  2  2  2  2  2  2  2  2  2  2  2  2  2  2
CENTRE ASSIGNMENTS    2  2  2  2  2  2  2  2  2  2  3  3  3  3  3  3  3  3  3  3
CENTRE ASSIGNMENTS    3  3  3  3  3  3  3  3  3  3  3  3  3  3  3  3  3  3  3  3
CENTRE ASSIGNMENTS    3  3  3  3  3  3  3  3  3  3  3  3  3  3  3  3  3  3  3  3
CENTRE ASSIGNMENTS    3  3  3  3  3  3  3  3  3  3  3  3  3  3  3  3  3  3  3  3
CENTRE ASSIGNMENTS    3  3  3  3  3  4  4  4  4  4  4  4  4  4  4  4  4  4  4  4
CENTRE ASSIGNMENTS    4  4  4  4  4  4  4  4  4  4  4  4  4  4  4  4  4  4  4  4
CENTRE ASSIGNMENTS    4  4  4  4  4  4  4  4  4  4  4  4  4  4  4  4  4  4  4  4
CENTRE ASSIGNMENTS    4  4  4  4  4  4  4  4  4  4  4  4  4  4  4  4  4  4  4  4
CENTRE ASSIGNMENTS    5  5  5  5  5  5  5  5  5  5  5  5  5  5  5  5  5  5  5  5
CENTRE ASSIGNMENTS    5  5  5  5  5  5  5  5  5  5  5  5  5  5  5  5  5  5  5  5
CENTRE ASSIGNMENTS    5  5  5  5  5  5  5  5  5  5  5  5  5  5  5  5  5  5  5  5
CENTRE ASSIGNMENTS    5  5  5  5  5  5  5  5  5  5  5  5  5  5  5  6  6  6  6  6
CENTRE ASSIGNMENTS    6  6  6  6  6  6  6  6  6  6  6  6  6  6  6  6  6  6  6  6
CENTRE ASSIGNMENTS    6  6  6  6  6  6  6  6  6  6  6  6  6  6  6  6  6  6  6  6
CENTRE ASSIGNMENTS    6  6  6  6  6  6  6  6  6  6  6  6  6  6  6  6  6  6  6  6
CENTRE ASSIGNMENTS    6  6  6  6  6  6  6  6  6  6
TYPE ASSIGNMENTS      1  1  1  1  1  1  1  1  1  1  1  1  1  1  1  1  1  1  1  2
TYPE ASSIGNMENTS      2  2  3  3  3  4  4  4  2  3  4  2  3  4  2  3  4  5  6  7
TYPE ASSIGNMENTS      8  9 10  5  6  7  8  9 10  5  6  7  8  9 10 11 12 13 17 14
TYPE ASSIGNMENTS     15 18 19 16 20 11 12 13 17 14 15 18 19 16 20  1  1  1  1  1
TYPE ASSIGNMENTS      1  1  1  1  1  1  1  1  1  1  1  1  1  1  2  2  2  3  3  3
TYPE ASSIGNMENTS      4  4  4  2  3  4  2  3  4  2  3  4  5  6  7  8  9 10  5  6
TYPE ASSIGNMENTS      7  8  9 10  5  6  7  8  9 10 11 12 13 17 14 15 18 19 16 20
TYPE ASSIGNMENTS     11 12 13 17 14 15 18 19 16 20  1  1  1  1  1  1  1  1  1  1
TYPE ASSIGNMENTS      1  1  1  1  1  1  1  1  1  2  2  2  3  3  3  4  4  4  2  3
TYPE ASSIGNMENTS      4  2  3  4  2  3  4  5  6  7  8  9 10  5  6  7  8  9 10  5
TYPE ASSIGNMENTS      6  7  8  9 10 11 12 13 17 14 15 18 19 16 20 11 12 13 17 14
TYPE ASSIGNMENTS     15 18 19 16 20  1  1  1  1  1  1  1  1  1  1  1  1  1  1  1
TYPE ASSIGNMENTS      1  1  1  1  2  2  2  3  3  3  4  4  4  2  3  4  2  3  4  2
TYPE ASSIGNMENTS      3  4  5  6  7  8  9 10  5  6  7  8  9 10  5  6  7  8  9 10
TYPE ASSIGNMENTS     11 12 13 17 14 15 18 19 16 20 11 12 13 17 14 15 18 19 16 20
TYPE ASSIGNMENTS      1  1  1  1  1  1  1  1  1  1  1  1  1  1  1  1  1  1  1  2
TYPE ASSIGNMENTS      2  2  3  3  3  4  4  4  2  3  4  2  3  4  2  3  4  5  6  7
TYPE ASSIGNMENTS      8  9 10  5  6  7  8  9 10  5  6  7  8  9 10 11 12 13 17 14
TYPE ASSIGNMENTS     15 18 19 16 20 11 12 13 17 14 15 18 19 16 20  1  1  1  1  1
TYPE ASSIGNMENTS      1  1  1  1  1  1  1  1  1  1  1  1  1  1  2  2  2  3  3  3
TYPE ASSIGNMENTS      4  4  4  2  3  4  2  3  4  2  3  4  5  6  7  8  9 10  5  6
TYPE ASSIGNMENTS      7  8  9 10  5  6  7  8  9 10 11 12 13 17 14 15 18 19 16 20
TYPE ASSIGNMENTS     11 12 13 17 14 15 18 19 16 20
EXPONENTS  0.1142000D+05 0.1712000D+04 0.3893000D+03 0.1100000D+03 0.3557000D+02
EXPONENTS  0.1254000D+02 0.4644000D+01 0.5118000D+00 0.1142000D+05 0.1712000D+04
EXPONENTS  0.3893000D+03 0.1100000D+03 0.3557000D+02 0.1254000D+02 0.4644000D+01
EXPONENTS  0.5118000D+00 0.1293000D+01 0.1787000D+00 0.5760000D-01 0.2663000D+02
EXPONENTS  0.5948000D+01 0.1742000D+01 0.2663000D+02 0.5948000D+01 0.1742000D+01
EXPONENTS  0.2663000D+02 0.5948000D+01 0.1742000D+01 0.5550000D+00 0.5550000D+00
EXPONENTS  0.5550000D+00 0.1725000D+00 0.1725000D+00 0.1725000D+00 0.4910000D-01
EXPONENTS  0.4910000D-01 0.4910000D-01 0.1654000D+01 0.1654000D+01 0.1654000D+01
EXPONENTS  0.1654000D+01 0.1654000D+01 0.1654000D+01 0.4690000D+00 0.4690000D+00
EXPONENTS  0.4690000D+00 0.4690000D+00 0.4690000D+00 0.4690000D+00 0.1510000D+00
EXPONENTS  0.1510000D+00 0.1510000D+00 0.1510000D+00 0.1510000D+00 0.1510000D+00
EXPONENTS  0.1093000D+01 0.1093000D+01 0.1093000D+01 0.1093000D+01 0.1093000D+01
EXPONENTS  0.1093000D+01 0.1093000D+01 0.1093000D+01 0.1093000D+01 0.1093000D+01
EXPONENTS  0.3640000D+00 0.3640000D+00 0.3640000D+00 0.3640000D+00 0.3640000D+00
EXPONENTS  0.3640000D+00 0.3640000D+00 0.3640000D+00 0.3640000D+00 0.3640000D+00
EXPONENTS  0.1142000D+05 0.1712000D+04 0.3893000D+03 0.1100000D+03 0.3557000D+02
EXPONENTS  0.1254000D+02 0.4644000D+01 0.5118000D+00 0.1142000D+05 0.1712000D+04
EXPONENTS  0.3893000D+03 0.1100000D+03 0.3557000D+02 0.1254000D+02 0.4644000D+01
EXPONENTS  0.5118000D+00 0.1293000D+01 0.1787000D+00 0.5760000D-01 0.2663000D+02
EXPONENTS  0.5948000D+01 0.1742000D+01 0.2663000D+02 0.5948000D+01 0.1742000D+01
EXPONENTS  0.2663000D+02 0.5948000D+01 0.1742000D+01 0.5550000D+00 0.5550000D+00
EXPONENTS  0.5550000D+00 0.1725000D+00 0.1725000D+00 0.1725000D+00 0.4910000D-01
EXPONENTS  0.4910000D-01 0.4910000D-01 0.1654000D+01 0.1654000D+01 0.1654000D+01
EXPONENTS  0.1654000D+01 0.1654000D+01 0.1654000D+01 0.4690000D+00 0.4690000D+00
EXPONENTS  0.4690000D+00 0.4690000D+00 0.4690000D+00 0.4690000D+00 0.1510000D+00
EXPONENTS  0.1510000D+00 0.1510000D+00 0.1510000D+00 0.1510000D+00 0.1510000D+00
EXPONENTS  0.1093000D+01 0.1093000D+01 0.1093000D+01 0.1093000D+01 0.1093000D+01
EXPONENTS  0.1093000D+01 0.1093000D+01 0.1093000D+01 0.1093000D+01 0.1093000D+01
EXPONENTS  0.3640000D+00 0.3640000D+00 0.3640000D+00 0.3640000D+00 0.3640000D+00
EXPONENTS  0.3640000D+00 0.3640000D+00 0.3640000D+00 0.3640000D+00 0.3640000D+00
EXPONENTS  0.1950000D+05 0.2923000D+04 0.6645000D+03 0.1875000D+03 0.6062000D+02
EXPONENTS  0.2142000D+02 0.7950000D+01 0.8815000D+00 0.1950000D+05 0.2923000D+04
EXPONENTS  0.6645000D+03 0.1875000D+03 0.6062000D+02 0.2142000D+02 0.7950000D+01
EXPONENTS  0.8815000D+00 0.2257000D+01 0.3041000D+00 0.9158000D-01 0.4388000D+02
EXPONENTS  0.9926000D+01 0.2930000D+01 0.4388000D+02 0.9926000D+01 0.2930000D+01
EXPONENTS  0.4388000D+02 0.9926000D+01 0.2930000D+01 0.9132000D+00 0.9132000D+00
EXPONENTS  0.9132000D+00 0.2672000D+00 0.2672000D+00 0.2672000D+00 0.7361000D-01
EXPONENTS  0.7361000D-01 0.7361000D-01 0.3107000D+01 0.3107000D+01 0.3107000D+01
EXPONENTS  0.3107000D+01 0.3107000D+01 0.3107000D+01 0.8550000D+00 0.8550000D+00
EXPONENTS  0.8550000D+00 0.8550000D+00 0.8550000D+00 0.8550000D+00 0.2920000D+00
EXPONENTS  0.2920000D+00 0.2920000D+00 0.2920000D+00 0.2920000D+00 0.2920000D+00
EXPONENTS  0.1917000D+01 0.1917000D+01 0.1917000D+01 0.1917000D+01 0.1917000D+01
EXPONENTS  0.1917000D+01 0.1917000D+01 0.1917000D+01 0.1917000D+01 0.1917000D+01
EXPONENTS  0.7240000D+00 0.7240000D+00 0.7240000D+00 0.7240000D+00 0.7240000D+00
EXPONENTS  0.7240000D+00 0.7240000D+00 0.7240000D+00 0.7240000D+00 0.7240000D+00
EXPONENTS  0.1950000D+05 0.2923000D+04 0.6645000D+03 0.1875000D+03 0.6062000D+02
EXPONENTS  0.2142000D+02 0.7950000D+01 0.8815000D+00 0.1950000D+05 0.2923000D+04
EXPONENTS  0.6645000D+03 0.1875000D+03 0.6062000D+02 0.2142000D+02 0.7950000D+01
EXPONENTS  0.8815000D+00 0.2257000D+01 0.3041000D+00 0.9158000D-01 0.4388000D+02
EXPONENTS  0.9926000D+01 0.2930000D+01 0.4388000D+02 0.9926000D+01 0.2930000D+01
EXPONENTS  0.4388000D+02 0.9926000D+01 0.2930000D+01 0.9132000D+00 0.9132000D+00
EXPONENTS  0.9132000D+00 0.2672000D+00 0.2672000D+00 0.2672000D+00 0.7361000D-01
EXPONENTS  0.7361000D-01 0.7361000D-01 0.3107000D+01 0.3107000D+01 0.3107000D+01
EXPONENTS  0.3107000D+01 0.3107000D+01 0.3107000D+01 0.8550000D+00 0.8550000D+00
EXPONENTS  0.8550000D+00 0.8550000D+00 0.8550000D+00 0.8550000D+00 0.2920000D+00
EXPONENTS  0.2920000D+00 0.2920000D+00 0.2920000D+00 0.2920000D+00 0.2920000D+00
EXPONENTS  0.1917000D+01 0.1917000D+01 0.1917000D+01 0.1917000D+01 0.1917000D+01
EXPONENTS  0.1917000D+01 0.1917000D+01 0.1917000D+01 0.1917000D+01 0.1917000D+01
EXPONENTS  0.7240000D+00 0.7240000D+00 0.7240000D+00 0.7240000D+00 0.7240000D+00
EXPONENTS  0.7240000D+00 0.7240000D+00 0.7240000D+00 0.7240000D+00 0.7240000D+00
EXPONENTS  0.1950000D+05 0.2923000D+04 0.6645000D+03 0.1875000D+03 0.6062000D+02
EXPONENTS  0.2142000D+02 0.7950000D+01 0.8815000D+00 0.1950000D+05 0.2923000D+04
EXPONENTS  0.6645000D+03 0.1875000D+03 0.6062000D+02 0.2142000D+02 0.7950000D+01
EXPONENTS  0.8815000D+00 0.2257000D+01 0.3041000D+00 0.9158000D-01 0.4388000D+02
EXPONENTS  0.9926000D+01 0.2930000D+01 0.4388000D+02 0.9926000D+01 0.2930000D+01
EXPONENTS  0.4388000D+02 0.9926000D+01 0.2930000D+01 0.9132000D+00 0.9132000D+00
EXPONENTS  0.9132000D+00 0.2672000D+00 0.2672000D+00 0.2672000D+00 0.7361000D-01
EXPONENTS  0.7361000D-01 0.7361000D-01 0.3107000D+01 0.3107000D+01 0.3107000D+01
EXPONENTS  0.3107000D+01 0.3107000D+01 0.3107000D+01 0.8550000D+00 0.8550000D+00
EXPONENTS  0.8550000D+00 0.8550000D+00 0.8550000D+00 0.8550000D+00 0.2920000D+00
EXPONENTS  0.2920000D+00 0.2920000D+00 0.2920000D+00 0.2920000D+00 0.2920000D+00
EXPONENTS  0.1917000D+01 0.1917000D+01 0.1917000D+01 0.1917000D+01 0.1917000D+01
EXPONENTS  0.1917000D+01 0.1917000D+01 0.1917000D+01 0.1917000D+01 0.1917000D+01
EXPONENTS  0.7240000D+00 0.7240000D+00 0.7240000D+00 0.7240000D+00 0.7240000D+00
EXPONENTS  0.7240000D+00 0.7240000D+00 0.7240000D+00 0.7240000D+00 0.7240000D+00
EXPONENTS  0.1950000D+05 0.2923000D+04 0.6645000D+03 0.1875000D+03 0.6062000D+02
EXPONENTS  0.2142000D+02 0.7950000D+01 0.8815000D+00 0.1950000D+05 0.2923000D+04
EXPONENTS  0.6645000D+03 0.1875000D+03 0.6062000D+02 0.2142000D+02 0.7950000D+01
EXPONENTS  0.8815000D+00 0.2257000D+01 0.3041000D+00 0.9158000D-01 0.4388000D+02
EXPONENTS  0.9926000D+01 0.2930000D+01 0.4388000D+02 0.9926000D+01 0.2930000D+01
EXPONENTS  0.4388000D+02 0.9926000D+01 0.2930000D+01 0.9132000D+00 0.9132000D+00
EXPONENTS  0.9132000D+00 0.2672000D+00 0.2672000D+00 0.2672000D+00 0.7361000D-01
EXPONENTS  0.7361000D-01 0.7361000D-01 0.3107000D+01 0.3107000D+01 0.3107000D+01
EXPONENTS  0.3107000D+01 0.3107000D+01 0.3107000D+01 0.8550000D+00 0.8550000D+00
EXPONENTS  0.8550000D+00 0.8550000D+00 0.8550000D+00 0.8550000D+00 0.2920000D+00
EXPONENTS  0.2920000D+00 0.2920000D+00 0.2920000D+00 0.2920000D+00 0.2920000D+00
EXPONENTS  0.1917000D+01 0.1917000D+01 0.1917000D+01 0.1917000D+01 0.1917000D+01
EXPONENTS  0.1917000D+01 0.1917000D+01 0.1917000D+01 0.1917000D+01 0.1917000D+01
EXPONENTS  0.7240000D+00 0.7240000D+00 0.7240000D+00 0.7240000D+00 0.7240000D+00
EXPONENTS  0.7240000D+00 0.7240000D+00 0.7240000D+00 0.7240000D+00 0.7240000D+00
MO    1     MO 0.0        OCC NO =    2.0000000  ORB. ENERGY =  -24.345256
 -0.30197751D-04 -0.56269063D-04 -0.95165093D-04 -0.14331336D-03 -0.17743123D-03
 -0.15098597D-03 -0.57452947D-04  0.26907666D-06  0.10876820D-04  0.20394139D-04
  0.34696499D-04  0.53880000D-04  0.71501893D-04  0.75353180D-04  0.46723779D-04
 -0.31080676D-04  0.42167571D-03 -0.17965603D-02 -0.48961257D-03 -0.97413139D-03
 -0.93564156D-03 -0.65613644D-03  0.18467605D-03  0.17737914D-03  0.12439049D-03
  0.25019129D-04  0.24030574D-04  0.16851897D-04  0.10540318D-02 -0.28680566D-03
 -0.27609560D-04  0.40554398D-03  0.32585092D-03 -0.22888388D-03  0.19889735D-04
  0.21902703D-04 -0.12438387D-04 -0.26126816D-03  0.20948350D-03  0.51784654D-04
  0.21971322D-03  0.36983378D-04  0.13995515D-03 -0.50415591D-03  0.17442496D-03
  0.32973095D-03  0.35731437D-03  0.44219502D-04 -0.15109175D-03 -0.54590185D-05
 -0.11059620D-04  0.16518638D-04 -0.13480790D-04  0.15562241D-04  0.10530095D-04
  0.49090434D-03  0.25398997D-03  0.31028954D-04 -0.68055838D-03 -0.89599871D-03
 -0.13284071D-03 -0.79215463D-03  0.13402880D-03  0.39753846D-04  0.10863588D-03
  0.38242909D-04  0.65997295D-05  0.21776789D-05 -0.46786328D-04  0.43527002D-04
 -0.24549931D-04 -0.67942401D-04 -0.63326191D-04  0.18016894D-04 -0.33396298D-05
  0.30197808D-04  0.56269168D-04  0.95165270D-04  0.14331362D-03  0.17743156D-03
  0.15098625D-03  0.57453054D-04 -0.26907716D-06 -0.10876855D-04 -0.20394205D-04
 -0.34696611D-04 -0.53880173D-04 -0.71502123D-04 -0.75353423D-04 -0.46723929D-04
  0.31080776D-04 -0.42167588D-03  0.17965607D-02  0.48961267D-03 -0.97413181D-03
 -0.93564196D-03 -0.65613673D-03  0.18467619D-03  0.17737927D-03  0.12439059D-03
 -0.25019140D-04 -0.24030585D-04 -0.16851905D-04  0.10540322D-02 -0.28680579D-03
  0.27609564D-04  0.40554423D-03  0.32585089D-03  0.22888391D-03  0.19889749D-04
  0.21902707D-04  0.12438393D-04  0.26126831D-03 -0.20948356D-03 -0.51784748D-04
 -0.21971329D-03  0.36983368D-04  0.13995514D-03  0.50415612D-03 -0.17442506D-03
 -0.32973106D-03 -0.35731459D-03  0.44219548D-04 -0.15109175D-03  0.54590328D-05
  0.11059612D-04 -0.16518645D-04  0.13480788D-04  0.15562259D-04  0.10530095D-04
  0.49090456D-03  0.25399004D-03 -0.31028968D-04 -0.68055867D-03 -0.89599908D-03
  0.13284076D-03 -0.79215502D-03  0.13402895D-03 -0.39753858D-04 -0.10863591D-03
  0.38242922D-04  0.65997419D-05 -0.21776809D-05 -0.46786350D-04  0.43526965D-04
  0.24549943D-04 -0.67942415D-04 -0.63326190D-04 -0.18016900D-04  0.33395971D-05
 -0.13169262D-03 -0.24548075D-03 -0.41615022D-03 -0.63017408D-03 -0.78803489D-03
 -0.67842464D-03 -0.26081120D-03  0.11301376D-05  0.37385218D-04  0.70202818D-04
  0.11954329D-03  0.18726386D-03  0.25095560D-03  0.26993659D-03  0.16206957D-03
 -0.10658377D-03  0.69981030D-05  0.27456904D-03  0.10483827D-03 -0.98474634D-04
 -0.96306042D-04 -0.63633474D-04  0.55416312D-04  0.54195943D-04  0.35809551D-04
  0.61242584D-04  0.59893909D-04  0.39574438D-04  0.10645299D-03 -0.36630772D-04
 -0.65982428D-05 -0.12922390D-03 -0.19299470D-04 -0.13940712D-03 -0.39069969D-05
  0.16719923D-05 -0.63686319D-05  0.23810018D-05  0.39933778D-04 -0.42314780D-04
  0.24157932D-03 -0.91361744D-05 -0.43398371D-04 -0.25377422D-04  0.38309773D-05
  0.21546445D-04 -0.12031257D-03 -0.55755388D-04  0.10258316D-04  0.26094462D-04
 -0.41933767D-04  0.15839305D-04  0.22404445D-04  0.53580463D-04 -0.33505896D-06
  0.56977182D-04 -0.95075333D-04 -0.44732705D-04 -0.96802313D-04  0.22203799D-03
  0.33804742D-03 -0.74129232D-04  0.63188010D-04 -0.20384931D-03 -0.19925313D-03
 -0.29616855D-04  0.30927921D-04  0.22176669D-07  0.67776302D-04 -0.52372798D-04
 -0.92661780D-04  0.21074263D-04 -0.40410966D-04  0.92595250D-04  0.12274805D-03
 -0.41931700D+00 -0.78162505D+00 -0.13250466D+01 -0.20065111D+01 -0.25091492D+01
 -0.21601437D+01 -0.83043810D+00  0.35984242D-02 -0.59249207D-03 -0.11125952D-02
 -0.18945577D-02 -0.29678134D-02 -0.39772191D-02 -0.42780354D-02 -0.25685268D-02
  0.16891713D-02 -0.47690094D-01  0.41470331D-03  0.47155369D-03 -0.53485823D-02
 -0.52307967D-02 -0.34562085D-02  0.16363737D-02  0.16003378D-02  0.10574108D-02
  0.79449944D-04  0.77700309D-04  0.51339880D-04  0.10600199D-02 -0.35786548D-03
 -0.13482028D-04  0.70831962D-03 -0.25341575D-03  0.17462442D-04  0.32162522D-04
 -0.10038668D-04  0.14495833D-05 -0.24142324D-02  0.10463888D-02  0.13678436D-02
  0.20828604D-02  0.14573587D-03 -0.15449461D-03  0.77365259D-03 -0.31812680D-03
 -0.45552578D-03 -0.70708162D-03 -0.42716191D-04  0.21076625D-04  0.12045006D-03
 -0.59958402D-04 -0.60491660D-04 -0.11616677D-03 -0.39100365D-05 -0.13533049D-05
 -0.13141824D-03 -0.13971752D-03 -0.42076949D-04  0.29944248D-03  0.12698461D-03
  0.10092007D-03  0.94812243D-04  0.29216796D-03  0.25310778D-04  0.30780336D-04
  0.23958669D-03  0.12155596D-03  0.22571016D-04 -0.32968072D-03 -0.37849416D-03
 -0.65838528D-04 -0.38907936D-03  0.13826294D-04 -0.18745194D-05  0.23380256D-04
  0.13169264D-03  0.24548079D-03  0.41615029D-03  0.63017419D-03  0.78803503D-03
  0.67842476D-03  0.26081124D-03 -0.11301378D-05 -0.37385229D-04 -0.70202839D-04
 -0.11954333D-03 -0.18726391D-03 -0.25095568D-03 -0.26993667D-03 -0.16206962D-03
  0.10658380D-03 -0.69981139D-05 -0.27456905D-03 -0.10483829D-03 -0.98474655D-04
 -0.96306061D-04 -0.63633487D-04  0.55416289D-04  0.54195921D-04  0.35809536D-04
 -0.61242572D-04 -0.59893898D-04 -0.39574431D-04  0.10645303D-03 -0.36630747D-04
  0.65982150D-05 -0.12922394D-03 -0.19299492D-04  0.13940712D-03 -0.39069971D-05
  0.16719911D-05  0.63686253D-05 -0.23809534D-05 -0.39933833D-04  0.42314786D-04
 -0.24157933D-03 -0.91362112D-05 -0.43398414D-04  0.25377408D-04 -0.38309632D-05
 -0.21546444D-04  0.12031257D-03 -0.55755402D-04  0.10258327D-04 -0.26094468D-04
  0.41933759D-04 -0.15839291D-04 -0.22404447D-04  0.53580468D-04 -0.33504756D-06
  0.56977257D-04 -0.95075319D-04  0.44732773D-04 -0.96802454D-04  0.22203795D-03
 -0.33804753D-03 -0.74129316D-04  0.63188010D-04  0.20384922D-03  0.19925324D-03
 -0.29616881D-04  0.30927921D-04 -0.22198049D-07  0.67776344D-04 -0.52372778D-04
  0.92661815D-04  0.21074300D-04 -0.40410984D-04 -0.92595221D-04 -0.12274808D-03
  0.41931718D+00  0.78162540D+00  0.13250472D+01  0.20065120D+01  0.25091503D+01
  0.21601447D+01  0.83043847D+00 -0.35984258D-02  0.59249232D-03  0.11125956D-02
  0.18945585D-02  0.29678147D-02  0.39772208D-02  0.42780373D-02  0.25685280D-02
 -0.16891720D-02  0.47690116D-01 -0.41470353D-03 -0.47155394D-03 -0.53485847D-02
 -0.52307990D-02 -0.34562101D-02  0.16363744D-02  0.16003384D-02  0.10574113D-02
 -0.79449981D-04 -0.77700346D-04 -0.51339904D-04  0.10600204D-02 -0.35786558D-03
  0.13482037D-04  0.70831996D-03 -0.25341583D-03 -0.17462456D-04  0.32162541D-04
 -0.10038676D-04 -0.14495870D-05  0.24142335D-02 -0.10463893D-02 -0.13678442D-02
 -0.20828612D-02  0.14573593D-03 -0.15449466D-03 -0.77365295D-03  0.31812697D-03
  0.45552598D-03  0.70708187D-03 -0.42716206D-04  0.21076628D-04 -0.12045012D-03
  0.59958432D-04  0.60491686D-04  0.11616681D-03 -0.39100303D-05 -0.13533049D-05
 -0.13141826D-03 -0.13971755D-03  0.42076946D-04  0.29944249D-03  0.12698469D-03
 -0.10092008D-03  0.94812299D-04  0.29216796D-03 -0.25310758D-04 -0.30780356D-04
  0.23958679D-03  0.12155600D-03 -0.22571019D-04 -0.32968085D-03 -0.37849433D-03
  0.65838544D-04 -0.38907953D-03  0.13826330D-04  0.18745119D-05 -0.23380261D-04
MO    2     MO 0.0        OCC NO =    2.0000000  ORB. ENERGY =  -24.345255
  0.12549248D-03  0.23383675D-03  0.39547657D-03  0.59556579D-03  0.73734909D-03
  0.62745080D-03  0.23875660D-03 -0.11181990D-05 -0.78145901D-04 -0.14652429D-03
 -0.24928142D-03 -0.38710773D-03 -0.51371447D-03 -0.54138453D-03 -0.33569295D-03
  0.22330308D-03 -0.38226305D-03  0.82927235D-03  0.21782421D-03  0.93411295D-03
  0.89720432D-03  0.62918160D-03 -0.31332458D-03 -0.30094451D-03 -0.21104306D-03
 -0.25434328D-04 -0.24429368D-04 -0.17131559D-04 -0.98994226D-03  0.30571274D-03
  0.10376648D-04 -0.54547894D-03  0.77488354D-04  0.67900835D-04 -0.30132696D-04
 -0.83184919D-05  0.12758208D-04  0.34263882D-03 -0.13108653D-03 -0.21155229D-03
 -0.16954805D-03  0.21119502D-04  0.50282509D-05  0.47576600D-03 -0.21622257D-03
 -0.25954343D-03 -0.48397874D-03 -0.10431907D-03 -0.10859319D-04  0.31826591D-04
 -0.17739176D-04 -0.14087415D-04 -0.48642214D-05 -0.40425684D-04 -0.11779326D-05
 -0.50291482D-03 -0.16160934D-03 -0.32151634D-04  0.63904964D-03  0.82477685D-03
  0.12422814D-03  0.86969483D-03 -0.33994883D-03 -0.27773240D-04 -0.67069367D-04
 -0.27139981D-04 -0.27738978D-04 -0.44900079D-05  0.49138368D-04  0.83587200D-04
  0.27211813D-04  0.32281575D-04 -0.37026585D-06 -0.13741789D-04 -0.73230933D-04
  0.12549246D-03  0.23383672D-03  0.39547652D-03  0.59556573D-03  0.73734901D-03
  0.62745073D-03  0.23875658D-03 -0.11181989D-05 -0.78145896D-04 -0.14652428D-03
 -0.24928140D-03 -0.38710770D-03 -0.51371443D-03 -0.54138450D-03 -0.33569293D-03
  0.22330306D-03 -0.38226286D-03  0.82927155D-03  0.21782399D-03 -0.93411252D-03
 -0.89720390D-03 -0.62918131D-03  0.31332449D-03  0.30094443D-03  0.21104301D-03
 -0.25434317D-04 -0.24429357D-04 -0.17131552D-04  0.98994179D-03 -0.30571261D-03
  0.10376636D-04  0.54547876D-03 -0.77488499D-04  0.67900733D-04  0.30132687D-04
  0.83184821D-05  0.12758202D-04  0.34263871D-03 -0.13108644D-03 -0.21155227D-03
 -0.16954795D-03 -0.21119518D-04 -0.50283135D-05  0.47576577D-03 -0.21622249D-03
 -0.25954328D-03 -0.48397858D-03  0.10431905D-03  0.10859386D-04  0.31826589D-04
 -0.17739181D-04 -0.14087408D-04 -0.48642274D-05  0.40425677D-04  0.11779279D-05
  0.50291460D-03  0.16160923D-03 -0.32151620D-04 -0.63904933D-03 -0.82477645D-03
  0.12422808D-03 -0.86969448D-03  0.33994877D-03 -0.27773223D-04 -0.67069318D-04
  0.27139964D-04  0.27738975D-04 -0.44900069D-05 -0.49138347D-04 -0.83587219D-04
  0.27211802D-04 -0.32281545D-04  0.37029420D-06 -0.13741781D-04 -0.73230934D-04
  0.51731835D-04  0.96430381D-04  0.16347320D-03  0.24754661D-03  0.30955790D-03
  0.26650052D-03  0.10245253D-03 -0.44394358D-06 -0.24331919D-04 -0.45691034D-04
 -0.77803950D-04 -0.12187943D-03 -0.16333277D-03 -0.17568642D-03 -0.10548189D-03
  0.69369332D-04 -0.24245843D-04 -0.10349422D-04 -0.38217785D-04  0.44648581D-04
  0.43665337D-04  0.28851534D-04  0.50105324D-04  0.49001913D-04  0.32377636D-04
  0.25500009D-04  0.24938452D-04  0.16477890D-04 -0.76683633D-04 -0.54291970D-04
 -0.62091046D-04  0.78184869D-04  0.50462711D-04 -0.61210760D-05  0.44992185D-06
  0.27044715D-05 -0.14662843D-04  0.10809377D-03 -0.12205909D-03  0.13965316D-04
 -0.84386775D-05  0.81987672D-04  0.94567204D-04 -0.33070966D-04  0.31581524D-04
  0.14894420D-05  0.10039187D-04  0.30328921D-04 -0.24023067D-04 -0.12302876D-04
 -0.17569570D-04  0.29872446D-04 -0.55231927D-05 -0.11972202D-04 -0.25451045D-04
 -0.16771049D-03 -0.31092781D-04  0.15157038D-03  0.31652297D-03  0.94664617D-04
 -0.24346019D-03  0.18660848D-03 -0.13862728D-05 -0.21125096D-03  0.23361126D-03
  0.59093479D-04  0.10667614D-05 -0.47766102D-04 -0.94757408D-04 -0.42851737D-04
  0.78752064D-04 -0.82523030D-04  0.39651452D-04  0.64546243D-04 -0.65930583D-04
  0.41935228D+00  0.78169082D+00  0.13251581D+01  0.20066799D+01  0.25093603D+01
  0.21603255D+01  0.83050798D+00 -0.35987270D-02  0.56997241D-03  0.10703072D-02
  0.18225486D-02  0.28550117D-02  0.38260515D-02  0.41154343D-02  0.24709013D-02
 -0.16249687D-02  0.47649675D-01 -0.47864176D-03 -0.56693636D-03  0.52898473D-02
  0.51733551D-02  0.34182545D-02 -0.14854796D-02 -0.14527666D-02 -0.95990429D-03
 -0.84242682D-04 -0.82387503D-04 -0.54436907D-04 -0.10061663D-02  0.23443582D-03
  0.21491116D-04 -0.75509524D-03  0.17961085D-03 -0.32422972D-04 -0.42273373D-04
  0.17387402D-04 -0.81854022D-05  0.24992409D-02 -0.11149773D-02 -0.13842637D-02
 -0.18796728D-02 -0.12255644D-03  0.11694233D-03 -0.81600052D-03  0.37006902D-03
  0.44593150D-03  0.55398278D-03  0.34050864D-04 -0.71858774D-05 -0.12504025D-03
  0.66619606D-04  0.58420639D-04  0.97810697D-04 -0.13833235D-04  0.10479823D-06
  0.45156991D-04  0.56815529D-04 -0.65591246D-05 -0.98720260D-05 -0.17263810D-03
 -0.24361140D-04 -0.12559895D-03  0.21915157D-05  0.44038513D-04 -0.44720131D-04
 -0.22648968D-03 -0.94862694D-04 -0.60968624D-05  0.28742656D-03  0.36678722D-03
  0.34996061D-04  0.39204247D-03 -0.82199135D-04 -0.16705474D-04 -0.11393034D-04
  0.51731775D-04  0.96430270D-04  0.16347302D-03  0.24754632D-03  0.30955755D-03
  0.26650021D-03  0.10245241D-03 -0.44394307D-06 -0.24331902D-04 -0.45691002D-04
 -0.77803897D-04 -0.12187934D-03 -0.16333266D-03 -0.17568630D-03 -0.10548182D-03
  0.69369284D-04 -0.24245840D-04 -0.10349299D-04 -0.38217738D-04 -0.44648537D-04
 -0.43665294D-04 -0.28851506D-04 -0.50105349D-04 -0.49001937D-04 -0.32377652D-04
  0.25500036D-04  0.24938479D-04  0.16477907D-04  0.76683586D-04  0.54291986D-04
 -0.62091049D-04 -0.78184811D-04 -0.50462702D-04 -0.61211384D-05 -0.44992009D-06
 -0.27044722D-05 -0.14662846D-04  0.10809377D-03 -0.12205907D-03  0.13965297D-04
 -0.84385694D-05 -0.81987668D-04 -0.94567184D-04 -0.33070978D-04  0.31581526D-04
  0.14894517D-05  0.10039133D-04 -0.30328896D-04  0.24023063D-04 -0.12302864D-04
 -0.17569588D-04  0.29872453D-04 -0.55231827D-05  0.11972178D-04  0.25451045D-04
  0.16771046D-03  0.31092824D-04  0.15157036D-03 -0.31652293D-03 -0.94664716D-04
 -0.24346004D-03 -0.18660845D-03  0.13862445D-05 -0.21125105D-03  0.23361117D-03
 -0.59093466D-04 -0.10667753D-05 -0.47766102D-04  0.94757378D-04  0.42851760D-04
  0.78752022D-04  0.82523020D-04 -0.39651434D-04  0.64546284D-04 -0.65930528D-04
  0.41935209D+00  0.78169047D+00  0.13251575D+01  0.20066790D+01  0.25093592D+01
  0.21603245D+01  0.83050761D+00 -0.35987254D-02  0.56997215D-03  0.10703067D-02
  0.18225478D-02  0.28550103D-02  0.38260497D-02  0.41154324D-02  0.24709002D-02
 -0.16249679D-02  0.47649654D-01 -0.47864157D-03 -0.56693615D-03 -0.52898449D-02
 -0.51733528D-02 -0.34182529D-02  0.14854788D-02  0.14527658D-02  0.95990381D-03
 -0.84242647D-04 -0.82387469D-04 -0.54436884D-04  0.10061658D-02 -0.23443566D-03
  0.21491109D-04  0.75509493D-03 -0.17961074D-03 -0.32422964D-04  0.42273358D-04
 -0.17387397D-04 -0.81854016D-05  0.24992399D-02 -0.11149768D-02 -0.13842631D-02
 -0.18796719D-02  0.12255638D-03 -0.11694226D-03 -0.81600018D-03  0.37006888D-03
  0.44593130D-03  0.55398246D-03 -0.34050844D-04  0.71858680D-05 -0.12504019D-03
  0.66619579D-04  0.58420612D-04  0.97810645D-04  0.13833236D-04 -0.10479763D-06
 -0.45156932D-04 -0.56815467D-04 -0.65591435D-05  0.98718919D-05  0.17263805D-03
 -0.24361094D-04  0.12559890D-03 -0.21916465D-05  0.44038525D-04 -0.44720117D-04
  0.22648957D-03  0.94862640D-04 -0.60968523D-05 -0.28742641D-03 -0.36678705D-03
  0.34996031D-04 -0.39204230D-03  0.82199128D-04 -0.16705474D-04 -0.11393023D-04
MO    3     MO 0.0        OCC NO =    2.0000000  ORB. ENERGY =  -24.339487
 -0.20318003D-04 -0.37859607D-04 -0.64030087D-04 -0.96425762D-04 -0.11938135D-03
 -0.10158814D-03 -0.38656161D-04  0.18104330D-06  0.39967070D-05  0.74938630D-05
  0.12749291D-04  0.19798302D-04  0.26273499D-04  0.27688661D-04  0.17168736D-04
 -0.11420650D-04  0.43276066D-03 -0.20052667D-02 -0.66920716D-03  0.34364017D-03
  0.33006228D-03  0.23146245D-03  0.23499762D-03  0.22571240D-03  0.15828512D-03
  0.84475629D-03  0.81137832D-03  0.56899448D-03 -0.37251797D-03 -0.29868543D-03
 -0.89178214D-03 -0.17490066D-04  0.29186628D-03 -0.66333839D-03  0.35412323D-05
  0.30860408D-04 -0.44131614D-04  0.31654447D-05  0.19316335D-03 -0.19632880D-03
 -0.88551916D-04 -0.33473094D-03 -0.22880955D-04  0.25641574D-03  0.13084449D-03
 -0.38726023D-03 -0.16211849D-03 -0.49966288D-03 -0.73229285D-03  0.28733119D-04
 -0.11481167D-05 -0.27585002D-04 -0.12092409D-04 -0.82186191D-05  0.14105857D-04
  0.22421663D-03  0.29188582D-03 -0.30688321D-03  0.22627370D-03  0.64768103D-04
  0.32682743D-03 -0.89892359D-03 -0.94042558D-03  0.59382221D-03 -0.86845696D-03
  0.18146640D-04  0.24363672D-04 -0.46929561D-04 -0.10338620D-04 -0.14053028D-04
  0.28995859D-04 -0.44101300D-04 -0.59037988D-04  0.11179282D-03 -0.35775443D-04
  0.20318024D-04  0.37859646D-04  0.64030153D-04  0.96425862D-04  0.11938147D-03
  0.10158825D-03  0.38656201D-04 -0.18104348D-06 -0.39967200D-05 -0.74938874D-05
 -0.12749332D-04 -0.19798367D-04 -0.26273584D-04 -0.27688751D-04 -0.17168792D-04
  0.11420687D-04 -0.43276072D-03  0.20052669D-02  0.66920718D-03  0.34364023D-03
  0.33006233D-03  0.23146249D-03  0.23499768D-03  0.22571246D-03  0.15828516D-03
 -0.84475645D-03 -0.81137847D-03 -0.56899459D-03 -0.37251803D-03 -0.29868550D-03
  0.89178230D-03 -0.17490088D-04  0.29186628D-03  0.66333846D-03  0.35412317D-05
  0.30860409D-04  0.44131618D-04 -0.31654628D-05 -0.19316337D-03  0.19632884D-03
  0.88551931D-04 -0.33473097D-03 -0.22880985D-04 -0.25641577D-03 -0.13084452D-03
  0.38726030D-03  0.16211853D-03 -0.49966297D-03 -0.73229292D-03 -0.28733122D-04
  0.11481161D-05  0.27585006D-04  0.12092409D-04 -0.82186212D-05  0.14105856D-04
  0.22421667D-03  0.29188586D-03  0.30688326D-03  0.22627374D-03  0.64768131D-04
 -0.32682748D-03 -0.89892376D-03 -0.94042571D-03 -0.59382229D-03  0.86845712D-03
  0.18146641D-04  0.24363674D-04  0.46929564D-04 -0.10338616D-04 -0.14053024D-04
 -0.28995865D-04 -0.44101307D-04 -0.59037999D-04 -0.11179283D-03  0.35775429D-04
 -0.41935508D+00 -0.78169604D+00 -0.13251670D+01 -0.20066933D+01 -0.25093771D+01
 -0.21603399D+01 -0.83051353D+00  0.35987511D-02 -0.56616643D-03 -0.10631603D-02
 -0.18103786D-02 -0.28359474D-02 -0.38005031D-02 -0.40879535D-02 -0.24544019D-02
  0.16141180D-02 -0.47686346D-01  0.67715029D-03  0.60890619D-03  0.19599840D-02
  0.19168215D-02  0.12665250D-02  0.19228808D-02  0.18805355D-02  0.12425493D-02
  0.47555794D-02  0.46508528D-02  0.30730151D-02 -0.40516447D-03 -0.43949582D-03
 -0.94862730D-03 -0.37757600D-03 -0.25786514D-03 -0.79011217D-03 -0.24406109D-04
 -0.12310166D-04 -0.39862709D-04  0.85766968D-03  0.91381061D-03 -0.17714803D-02
 -0.80818890D-03 -0.26497278D-02 -0.21385920D-02 -0.29172876D-03 -0.28494158D-03
  0.57667034D-03  0.30979632D-03  0.89332127D-03  0.67254128D-03 -0.17590098D-04
 -0.11076907D-03  0.12835917D-03  0.59192853D-04  0.16119789D-03  0.13003304D-03
  0.61619205D-04 -0.25220283D-03  0.10370465D-03 -0.37636433D-03  0.37159702D-03
 -0.57712169D-04  0.19150672D-03  0.38501149D-03 -0.25340178D-03  0.20147740D-03
  0.90210053D-04  0.16627809D-03 -0.14749373D-03  0.19047044D-03 -0.78986689D-04