 Molden2AIM, Version 4.0.0 (06/02/2016)           Time: Fri Jun 29 03:55:40 2018
GAUSSIAN              9 MOL ORBITALS    258 PRIMITIVES        6 NUCLEI
  N    1    (CENTRE  1)  -0.01926387  1.34152413 -0.13271169  CHARGE =  7.0
  N    2    (CENTRE  2)   0.01926387 -1.34152413 -0.13271169  CHARGE =  7.0
  H    3    (CENTRE  3)   0.41695484  2.08608190  1.58787828  CHARGE =  1.0
  H    4    (CENTRE  4)  -1.79897014  1.90531259 -0.57432178  CHARGE =  1.0
  H    5    (CENTRE  5)  -0.41695484 -2.08608190  1.58787828  CHARGE =  1.0
  H    6    (CENTRE  6)   1.79897014 -1.90531259 -0.57432178  CHARGE =  1.0
CENTRE ASSIGNMENTS    1  1  1  1  1  1  1  1  1  1  1  1  1  1  1  1  1  1  1  1
CENTRE ASSIGNMENTS    1  1  1  1  1  1  1  1  1  1  1  1  1  1  1  1  1  1  1  1
CENTRE ASSIGNMENTS    1  1  1  1  1  1  1  1  1  1  1  1  1  1  1  1  1  1  1  1
CENTRE ASSIGNMENTS    1  1  1  1  1  1  1  1  1  1  1  1  1  1  1  2  2  2  2  2
CENTRE ASSIGNMENTS    2  2  2  2  2  2  2  2  2  2  2  2  2  2  2  2  2  2  2  2
CENTRE ASSIGNMENTS    2  2  2  2  2  2  2  2  2  2  2  2  2  2  2  2  2  2  2  2
CENTRE ASSIGNMENTS    2  2  2  2  2  2  2  2  2  2  2  2  2  2  2  2  2  2  2  2
CENTRE ASSIGNMENTS    2  2  2  2  2  2  2  2  2  2  3  3  3  3  3  3  3  3  3  3
CENTRE ASSIGNMENTS    3  3  3  3  3  3  3  3  3  3  3  3  3  3  3  3  3  4  4  4
CENTRE ASSIGNMENTS    4  4  4  4  4  4  4  4  4  4  4  4  4  4  4  4  4  4  4  4
CENTRE ASSIGNMENTS    4  4  4  4  5  5  5  5  5  5  5  5  5  5  5  5  5  5  5  5
CENTRE ASSIGNMENTS    5  5  5  5  5  5  5  5  5  5  5  6  6  6  6  6  6  6  6  6
CENTRE ASSIGNMENTS    6  6  6  6  6  6  6  6  6  6  6  6  6  6  6  6  6  6
TYPE ASSIGNMENTS      1  1  1  1  1  1  1  1  1  1  1  1  1  1  1  1  1  1  1  2
TYPE ASSIGNMENTS      2  2  3  3  3  4  4  4  2  3  4  2  3  4  2  3  4  5  6  7
TYPE ASSIGNMENTS      8  9 10  5  6  7  8  9 10  5  6  7  8  9 10 11 12 13 17 14
TYPE ASSIGNMENTS     15 18 19 16 20 11 12 13 17 14 15 18 19 16 20  1  1  1  1  1
TYPE ASSIGNMENTS      1  1  1  1  1  1  1  1  1  1  1  1  1  1  2  2  2  3  3  3
TYPE ASSIGNMENTS      4  4  4  2  3  4  2  3  4  2  3  4  5  6  7  8  9 10  5  6
TYPE ASSIGNMENTS      7  8  9 10  5  6  7  8  9 10 11 12 13 17 14 15 18 19 16 20
TYPE ASSIGNMENTS     11 12 13 17 14 15 18 19 16 20  1  1  1  1  1  1  2  3  4  2
TYPE ASSIGNMENTS      3  4  2  3  4  5  6  7  8  9 10  5  6  7  8  9 10  1  1  1
TYPE ASSIGNMENTS      1  1  1  2  3  4  2  3  4  2  3  4  5  6  7  8  9 10  5  6
TYPE ASSIGNMENTS      7  8  9 10  1  1  1  1  1  1  2  3  4  2  3  4  2  3  4  5
TYPE ASSIGNMENTS      6  7  8  9 10  5  6  7  8  9 10  1  1  1  1  1  1  2  3  4
TYPE ASSIGNMENTS      2  3  4  2  3  4  5  6  7  8  9 10  5  6  7  8  9 10
EXPONENTS  0.1142000D+05 0.1712000D+04 0.3893000D+03 0.1100000D+03 0.3557000D+02
EXPONENTS  0.1254000D+02 0.4644000D+01 0.5118000D+00 0.1142000D+05 0.1712000D+04
EXPONENTS  0.3893000D+03 0.1100000D+03 0.3557000D+02 0.1254000D+02 0.4644000D+01
EXPONENTS  0.5118000D+00 0.1293000D+01 0.1787000D+00 0.5760000D-01 0.2663000D+02
EXPONENTS  0.5948000D+01 0.1742000D+01 0.2663000D+02 0.5948000D+01 0.1742000D+01
EXPONENTS  0.2663000D+02 0.5948000D+01 0.1742000D+01 0.5550000D+00 0.5550000D+00
EXPONENTS  0.5550000D+00 0.1725000D+00 0.1725000D+00 0.1725000D+00 0.4910000D-01
EXPONENTS  0.4910000D-01 0.4910000D-01 0.1654000D+01 0.1654000D+01 0.1654000D+01
EXPONENTS  0.1654000D+01 0.1654000D+01 0.1654000D+01 0.4690000D+00 0.4690000D+00
EXPONENTS  0.4690000D+00 0.4690000D+00 0.4690000D+00 0.4690000D+00 0.1510000D+00
EXPONENTS  0.1510000D+00 0.1510000D+00 0.1510000D+00 0.1510000D+00 0.1510000D+00
EXPONENTS  0.1093000D+01 0.1093000D+01 0.1093000D+01 0.1093000D+01 0.1093000D+01
EXPONENTS  0.1093000D+01 0.1093000D+01 0.1093000D+01 0.1093000D+01 0.1093000D+01
EXPONENTS  0.3640000D+00 0.3640000D+00 0.3640000D+00 0.3640000D+00 0.3640000D+00
EXPONENTS  0.3640000D+00 0.3640000D+00 0.3640000D+00 0.3640000D+00 0.3640000D+00
EXPONENTS  0.1142000D+05 0.1712000D+04 0.3893000D+03 0.1100000D+03 0.3557000D+02
EXPONENTS  0.1254000D+02 0.4644000D+01 0.5118000D+00 0.1142000D+05 0.1712000D+04
EXPONENTS  0.3893000D+03 0.1100000D+03 0.3557000D+02 0.1254000D+02 0.4644000D+01
EXPONENTS  0.5118000D+00 0.1293000D+01 0.1787000D+00 0.5760000D-01 0.2663000D+02
EXPONENTS  0.5948000D+01 0.1742000D+01 0.2663000D+02 0.5948000D+01 0.1742000D+01
EXPONENTS  0.2663000D+02 0.5948000D+01 0.1742000D+01 0.5550000D+00 0.5550000D+00
EXPONENTS  0.5550000D+00 0.1725000D+00 0.1725000D+00 0.1725000D+00 0.4910000D-01
EXPONENTS  0.4910000D-01 0.4910000D-01 0.1654000D+01 0.1654000D+01 0.1654000D+01
EXPONENTS  0.1654000D+01 0.1654000D+01 0.1654000D+01 0.4690000D+00 0.4690000D+00
EXPONENTS  0.4690000D+00 0.4690000D+00 0.4690000D+00 0.4690000D+00 0.1510000D+00
EXPONENTS  0.1510000D+00 0.1510000D+00 0.1510000D+00 0.1510000D+00 0.1510000D+00
EXPONENTS  0.1093000D+01 0.1093000D+01 0.1093000D+01 0.1093000D+01 0.1093000D+01
EXPONENTS  0.1093000D+01 0.1093000D+01 0.1093000D+01 0.1093000D+01 0.1093000D+01
EXPONENTS  0.3640000D+00 0.3640000D+00 0.3640000D+00 0.3640000D+00 0.3640000D+00
EXPONENTS  0.3640000D+00 0.3640000D+00 0.3640000D+00 0.3640000D+00 0.3640000D+00
EXPONENTS  0.3387000D+02 0.5095000D+01 0.1159000D+01 0.3258000D+00 0.1027000D+00
EXPONENTS  0.2526000D-01 0.1407000D+01 0.1407000D+01 0.1407000D+01 0.3880000D+00
EXPONENTS  0.3880000D+00 0.3880000D+00 0.1020000D+00 0.1020000D+00 0.1020000D+00
EXPONENTS  0.1057000D+01 0.1057000D+01 0.1057000D+01 0.1057000D+01 0.1057000D+01
EXPONENTS  0.1057000D+01 0.2470000D+00 0.2470000D+00 0.2470000D+00 0.2470000D+00
EXPONENTS  0.2470000D+00 0.2470000D+00 0.3387000D+02 0.5095000D+01 0.1159000D+01
EXPONENTS  0.3258000D+00 0.1027000D+00 0.2526000D-01 0.1407000D+01 0.1407000D+01
EXPONENTS  0.1407000D+01 0.3880000D+00 0.3880000D+00 0.3880000D+00 0.1020000D+00
EXPONENTS  0.1020000D+00 0.1020000D+00 0.1057000D+01 0.1057000D+01 0.1057000D+01
EXPONENTS  0.1057000D+01 0.1057000D+01 0.1057000D+01 0.2470000D+00 0.2470000D+00
EXPONENTS  0.2470000D+00 0.2470000D+00 0.2470000D+00 0.2470000D+00 0.3387000D+02
EXPONENTS  0.5095000D+01 0.1159000D+01 0.3258000D+00 0.1027000D+00 0.2526000D-01
EXPONENTS  0.1407000D+01 0.1407000D+01 0.1407000D+01 0.3880000D+00 0.3880000D+00
EXPONENTS  0.3880000D+00 0.1020000D+00 0.1020000D+00 0.1020000D+00 0.1057000D+01
EXPONENTS  0.1057000D+01 0.1057000D+01 0.1057000D+01 0.1057000D+01 0.1057000D+01
EXPONENTS  0.2470000D+00 0.2470000D+00 0.2470000D+00 0.2470000D+00 0.2470000D+00
EXPONENTS  0.2470000D+00 0.3387000D+02 0.5095000D+01 0.1159000D+01 0.3258000D+00
EXPONENTS  0.1027000D+00 0.2526000D-01 0.1407000D+01 0.1407000D+01 0.1407000D+01
EXPONENTS  0.3880000D+00 0.3880000D+00 0.3880000D+00 0.1020000D+00 0.1020000D+00
EXPONENTS  0.1020000D+00 0.1057000D+01 0.1057000D+01 0.1057000D+01 0.1057000D+01
EXPONENTS  0.1057000D+01 0.1057000D+01 0.2470000D+00 0.2470000D+00 0.2470000D+00
EXPONENTS  0.2470000D+00 0.2470000D+00 0.2470000D+00
MO    1     MO 0.0        OCC NO =    2.0000000  ORB. ENERGY =  -13.995502
  0.29160903D+00  0.54337048D+00  0.91897571D+00  0.13839265D+01  0.17133908D+01
  0.14580182D+01  0.55480283D+00 -0.25983784D-02 -0.13751849D-02 -0.25784846D-02
 -0.43867695D-02 -0.68121898D-02 -0.90401721D-02 -0.95271005D-02 -0.59074101D-02
  0.39296115D-02  0.31785514D-01  0.10989118D-02  0.13675860D-03 -0.19564566D-02
 -0.18791531D-02 -0.13177919D-02 -0.22352297D-02 -0.21469114D-02 -0.15055625D-02
  0.23223083D-02  0.22305493D-02  0.15642152D-02 -0.14289275D-02 -0.16684453D-03
  0.12677842D-02  0.74417933D-03 -0.14318576D-03 -0.88932743D-04  0.18492558D-04
 -0.10351337D-04 -0.13869632D-05 -0.22373025D-03  0.11126685D-02 -0.88893828D-03
 -0.20633744D-02  0.32714852D-02  0.24341582D-02  0.27031880D-03 -0.98021217D-03
  0.70989338D-03  0.47394131D-03  0.61305017D-03  0.10167092D-03 -0.11177446D-04
 -0.43241202D-04  0.54418648D-04 -0.17473992D-03 -0.59389635D-04 -0.10206805D-03
 -0.10024349D-02 -0.59680783D-03  0.96078867D-03  0.69446046D-03  0.64254824D-03
 -0.21224619D-02  0.23128443D-02  0.11478752D-02 -0.75990413D-03  0.21315361D-02
  0.11991125D-03  0.42624360D-03 -0.20819580D-04  0.10496051D-03 -0.75842296D-03
  0.30972815D-04 -0.46469428D-03 -0.52030784D-03  0.31485925D-04 -0.98395949D-03
  0.29160903D+00  0.54337048D+00  0.91897571D+00  0.13839265D+01  0.17133908D+01
  0.14580182D+01  0.55480283D+00 -0.25983784D-02 -0.13751849D-02 -0.25784846D-02
 -0.43867695D-02 -0.68121898D-02 -0.90401721D-02 -0.95271005D-02 -0.59074101D-02
  0.39296115D-02  0.31785514D-01  0.10989118D-02  0.13675860D-03  0.19564566D-02
  0.18791531D-02  0.13177919D-02  0.22352297D-02  0.21469114D-02  0.15055625D-02
  0.23223083D-02  0.22305493D-02  0.15642152D-02  0.14289275D-02  0.16684453D-03
  0.12677842D-02 -0.74417933D-03  0.14318576D-03 -0.88932743D-04 -0.18492558D-04
  0.10351337D-04 -0.13869632D-05 -0.22373025D-03  0.11126685D-02 -0.88893828D-03
 -0.20633744D-02 -0.32714852D-02 -0.24341582D-02  0.27031880D-03 -0.98021217D-03
  0.70989338D-03  0.47394131D-03 -0.61305017D-03 -0.10167092D-03 -0.11177447D-04
 -0.43241201D-04  0.54418648D-04 -0.17473992D-03  0.59389635D-04  0.10206805D-03
  0.10024349D-02  0.59680783D-03  0.96078867D-03 -0.69446046D-03 -0.64254824D-03
 -0.21224619D-02 -0.23128443D-02 -0.11478752D-02 -0.75990413D-03  0.21315361D-02
 -0.11991125D-03 -0.42624360D-03 -0.20819580D-04 -0.10496051D-03  0.75842296D-03
  0.30972815D-04  0.46469428D-03  0.52030784D-03  0.31485925D-04 -0.98395949D-03
  0.12445509D-03  0.22445987D-03  0.33096595D-03 -0.92916674D-03 -0.32713729D-03
 -0.77645885D-05  0.52752791D-03  0.88863753D-03  0.13856903D-02  0.69628791D-03
  0.11447781D-02  0.12281007D-02  0.30347457D-04  0.98100182D-04  0.96011451D-04
  0.12772038D-02  0.81574701D-04 -0.13587785D-02 -0.10045940D-02 -0.16581029D-02
 -0.33086755D-02  0.90612982D-04 -0.20432474D-05 -0.88569734D-04  0.58734724D-04
 -0.16531068D-03 -0.16864951D-03  0.11437236D-03  0.20627526D-03  0.30415274D-03
  0.13131125D-04 -0.53871884D-03 -0.93433594D-05 -0.13984981D-02  0.71726378D-03
 -0.33933007D-03 -0.11212138D-02  0.12969540D-02  0.33583506D-04 -0.16804618D-03
  0.13012946D-03  0.37650747D-05 -0.17467354D-02  0.60273361D-03  0.11440018D-02
  0.33079834D-02 -0.12507749D-02  0.34026146D-03 -0.63761008D-04 -0.69947900D-04
  0.13370891D-03  0.32405538D-03 -0.33295993D-04  0.45893284D-04  0.12445509D-03
  0.22445987D-03  0.33096595D-03 -0.92916674D-03 -0.32713729D-03 -0.77645885D-05
 -0.52752791D-03 -0.88863753D-03  0.13856903D-02 -0.69628791D-03 -0.11447781D-02
  0.12281007D-02 -0.30347457D-04 -0.98100182D-04  0.96011451D-04  0.12772038D-02
  0.81574701D-04 -0.13587785D-02 -0.10045940D-02  0.16581029D-02  0.33086755D-02
  0.90612982D-04 -0.20432474D-05 -0.88569734D-04  0.58734724D-04  0.16531068D-03
  0.16864951D-03  0.11437236D-03  0.20627526D-03  0.30415274D-03  0.13131125D-04
 -0.53871884D-03 -0.93433594D-05  0.13984981D-02 -0.71726378D-03 -0.33933007D-03
  0.11212138D-02 -0.12969540D-02  0.33583506D-04  0.16804618D-03 -0.13012946D-03
  0.37650747D-05 -0.17467354D-02  0.60273361D-03  0.11440018D-02  0.33079834D-02
  0.12507749D-02 -0.34026146D-03 -0.63761008D-04 -0.69947900D-04  0.13370891D-03
  0.32405538D-03  0.33295993D-04 -0.45893284D-04
MO    2     MO 0.0        OCC NO =    2.0000000  ORB. ENERGY =  -13.995445
  0.29122668D+00  0.54265803D+00  0.91777078D+00  0.13821119D+01  0.17111442D+01
  0.14561065D+01  0.55407539D+00 -0.25949714D-02 -0.10992784D-02 -0.20611572D-02
 -0.35066417D-02 -0.54454443D-02 -0.72264213D-02 -0.76156561D-02 -0.47221926D-02
  0.31412043D-02  0.31965609D-01 -0.31797846D-02 -0.99467900D-03 -0.21002804D-02
 -0.20172942D-02 -0.14146660D-02 -0.33576100D-02 -0.32249443D-02 -0.22615535D-02
  0.24432428D-02  0.23467055D-02  0.16456719D-02 -0.14646877D-02  0.35484343D-02
  0.12226965D-02  0.66100340D-04  0.25439576D-02 -0.76072230D-03  0.29523225D-05
  0.14717074D-03  0.18603595D-04  0.65527772D-03 -0.11329759D-02  0.47769820D-03
 -0.18633718D-02  0.42539308D-02  0.23802063D-02  0.68153410D-03 -0.10673127D-02
  0.38577856D-03 -0.37451046D-03 -0.20897852D-03  0.23459171D-03  0.92343347D-04
 -0.10612199D-03  0.13778639D-04 -0.92712115D-05 -0.10260224D-03  0.22088652D-03
 -0.91628893D-03 -0.79303221D-03  0.69884327D-03  0.75494079D-03  0.10709585D-02
 -0.22399029D-02  0.19939260D-02  0.13081381D-02  0.14337306D-03  0.21875578D-02
  0.15682291D-03  0.16607712D-03 -0.18095713D-03 -0.26556149D-03 -0.57200816D-04
  0.63249596D-03 -0.20490724D-03 -0.44103055D-03 -0.89624557D-04 -0.35808547D-03
 -0.29122668D+00 -0.54265803D+00 -0.91777078D+00 -0.13821119D+01 -0.17111442D+01
 -0.14561065D+01 -0.55407539D+00  0.25949714D-02  0.10992784D-02  0.20611572D-02
  0.35066417D-02  0.54454443D-02  0.72264213D-02  0.76156561D-02  0.47221926D-02
 -0.31412043D-02 -0.31965609D-01  0.31797846D-02  0.99467900D-03 -0.21002804D-02
 -0.20172942D-02 -0.14146660D-02 -0.33576100D-02 -0.32249443D-02 -0.22615535D-02
 -0.24432428D-02 -0.23467055D-02 -0.16456719D-02 -0.14646877D-02  0.35484343D-02
 -0.12226965D-02  0.66100340D-04  0.25439576D-02  0.76072230D-03  0.29523225D-05
  0.14717074D-03 -0.18603595D-04 -0.65527772D-03  0.11329759D-02 -0.47769820D-03
  0.18633718D-02  0.42539308D-02  0.23802063D-02 -0.68153410D-03  0.10673127D-02
 -0.38577856D-03  0.37451046D-03 -0.20897852D-03  0.23459171D-03 -0.92343347D-04
  0.10612199D-03 -0.13778639D-04  0.92712115D-05 -0.10260224D-03  0.22088652D-03
 -0.91628893D-03 -0.79303221D-03 -0.69884327D-03  0.75494079D-03  0.10709585D-02
  0.22399029D-02  0.19939260D-02  0.13081381D-02 -0.14337306D-03 -0.21875578D-02
  0.15682291D-03  0.16607712D-03  0.18095713D-03 -0.26556149D-03 -0.57200816D-04
 -0.63249596D-03 -0.20490724D-03 -0.44103055D-03  0.89624557D-04  0.35808547D-03
  0.13543441D-03  0.24426154D-03  0.36016350D-03 -0.38421336D-04 -0.64591192D-03
 -0.70065524D-04  0.54024559D-03  0.61553918D-03  0.13372766D-02  0.13116510D-03
  0.30719481D-03  0.14535744D-02 -0.10393520D-04  0.60660978D-04  0.20985992D-03
  0.86683351D-03  0.12019785D-02 -0.20688120D-02 -0.61496135D-03 -0.17621127D-02
 -0.28503947D-02  0.11691600D-03 -0.14642710D-04 -0.10227329D-03  0.29819492D-04
 -0.32824891D-04 -0.23212711D-03  0.12807223D-03  0.23098354D-03  0.34058509D-03
 -0.93163379D-03 -0.55274224D-03 -0.29405506D-04 -0.15636704D-02  0.42426398D-03
 -0.69657246D-03 -0.17548036D-02 -0.18075766D-04 -0.79461486D-03 -0.18371857D-03
  0.40101963D-04 -0.11112884D-03 -0.23496649D-02  0.13808685D-02  0.96879640D-03
  0.18816358D-02 -0.23020478D-02  0.53456619D-03 -0.14006875D-03  0.52017570D-04
  0.88051178D-04  0.14564952D-03 -0.18830845D-03 -0.20580651D-04 -0.13543441D-03
 -0.24426154D-03 -0.36016350D-03  0.38421336D-04  0.64591192D-03  0.70065524D-04
  0.54024559D-03  0.61553918D-03 -0.13372766D-02  0.13116510D-03  0.30719481D-03
 -0.14535744D-02 -0.10393520D-04  0.60660978D-04 -0.20985992D-03 -0.86683351D-03
 -0.12019785D-02  0.20688120D-02  0.61496135D-03 -0.17621127D-02 -0.28503947D-02
 -0.11691600D-03  0.14642710D-04  0.10227329D-03 -0.29819492D-04 -0.32824891D-04
 -0.23212711D-03 -0.12807223D-03 -0.23098354D-03 -0.34058509D-03  0.93163379D-03
  0.55274224D-03  0.29405506D-04 -0.15636704D-02  0.42426398D-03  0.69657246D-03
 -0.17548036D-02 -0.18075766D-04  0.79461486D-03 -0.18371857D-03  0.40101963D-04
  0.11112884D-03  0.23496649D-02 -0.13808685D-02 -0.96879640D-03 -0.18816358D-02
 -0.23020478D-02  0.53456619D-03  0.14006875D-03 -0.52017570D-04 -0.88051178D-04
 -0.14564952D-03 -0.18830845D-03 -0.20580651D-04
MO    3     MO 0.0        OCC NO =    2.0000000  ORB. ENERGY =   -0.874148
 -0.83743597D-02 -0.15604386D-01 -0.26390929D-01 -0.39743277D-01 -0.49204755D-01
 -0.41871026D-01 -0.15932698D-01  0.74619621D-04 -0.51766931D-01 -0.97063480D-01
 -0.16513386D+00 -0.25643545D+00 -0.34030475D+00 -0.35863450D+00 -0.22237627D+00
  0.14792478D+00  0.77729852D-01  0.28317330D-01  0.76010833D-03 -0.58805741D-01
 -0.56482212D-01 -0.39609225D-01 -0.17745274D+00 -0.17044124D+00 -0.11952516D+00
  0.77919371D-01  0.74840624D-01  0.52483412D-01 -0.14817497D-01 -0.42900012D-01
  0.19180479D-01  0.14871012D-03 -0.17816300D-02  0.77154639D-03 -0.29488076D-04
  0.72769482D-04 -0.28284501D-04 -0.87076444D-02  0.18010838D-01 -0.93031936D-02
 -0.49363559D-02  0.11771279D-01  0.19678834D-02 -0.28077835D-02  0.57028347D-02
 -0.28950512D-02 -0.18426295D-02  0.10116362D-02  0.49847326D-03 -0.18279446D-03
  0.32152499D-03 -0.13873053D-03 -0.37882869D-03 -0.30295481D-03  0.17088306D-04
 -0.10211524D-02 -0.64069688D-02  0.36780738D-03  0.93787690D-03  0.92960817D-02
 -0.25511594D-02  0.21255803D-02  0.99248248D-02  0.14477372D-02 -0.12376986D-03
  0.18447679D-03 -0.26803842D-03 -0.19323490D-03 -0.37000948D-03  0.41555035D-03
  0.30132247D-04 -0.18342090D-03  0.38856490D-03  0.54957246D-03  0.20453709D-03
 -0.83743597D-02 -0.15604386D-01 -0.26390929D-01 -0.39743277D-01 -0.49204755D-01
 -0.41871026D-01 -0.15932698D-01  0.74619621D-04 -0.51766931D-01 -0.97063480D-01
 -0.16513386D+00 -0.25643545D+00 -0.34030475D+00 -0.35863450D+00 -0.22237627D+00
  0.14792478D+00  0.77729852D-01  0.28317330D-01  0.76010833D-03  0.58805741D-01
  0.56482212D-01  0.39609225D-01  0.17745274D+00  0.17044124D+00  0.11952516D+00
  0.77919371D-01  0.74840624D-01  0.52483412D-01  0.14817497D-01  0.42900012D-01
  0.19180479D-01 -0.14871012D-03  0.17816300D-02  0.77154639D-03  0.29488076D-04
 -0.72769482D-04 -0.28284501D-04 -0.87076444D-02  0.18010838D-01 -0.93031936D-02
 -0.49363559D-02 -0.11771279D-01 -0.19678834D-02 -0.28077835D-02  0.57028347D-02
 -0.28950512D-02 -0.18426295D-02 -0.10116362D-02 -0.49847326D-03 -0.18279446D-03
  0.32152499D-03 -0.13873053D-03 -0.37882869D-03  0.30295481D-03 -0.17088306D-04
  0.10211524D-02  0.64069688D-02  0.36780738D-03 -0.93787690D-03 -0.92960817D-02
 -0.25511594D-02 -0.21255803D-02 -0.99248248D-02  0.14477372D-02 -0.12376986D-03
 -0.18447679D-03  0.26803842D-03 -0.19323490D-03  0.37000948D-03 -0.41555035D-03
  0.30132247D-04  0.18342090D-03 -0.38856490D-03  0.54957246D-03  0.20453709D-03
  0.13452677D-01  0.24262457D-01  0.35774979D-01  0.15299385D-01 -0.32148081D-04
 -0.27160537D-05 -0.35477370D-02 -0.78244553D-02 -0.11457841D-01 -0.53558954D-03
 -0.38895630D-02 -0.14211706D-02  0.13971752D-03 -0.10657395D-03  0.29760558D-03
 -0.19074616D-02  0.13010614D-02  0.60640023D-03  0.12711128D-02  0.84426715D-03
  0.52589680D-02  0.68172630D-04  0.21694257D-03 -0.28511520D-03  0.18016163D-03
 -0.20850325D-03  0.26936418D-03  0.13352802D-01  0.24082328D-01  0.35509378D-01
  0.15186964D-01 -0.70626284D-03 -0.74964773D-04  0.12359466D-01 -0.67524402D-02
  0.38421981D-02  0.14468969D-02 -0.32847341D-02  0.99671263D-03 -0.42206269D-03
 -0.71325990D-04 -0.27863232D-07  0.97014344D-03  0.65749321D-03 -0.16276366D-02
 -0.51417637D-02  0.12341560D-02 -0.14777057D-02 -0.25831015D-03  0.84369113D-04
  0.17394103D-03 -0.25737643D-03 -0.99782325D-04 -0.27590742D-03  0.13452677D-01
  0.24262457D-01  0.35774979D-01  0.15299385D-01 -0.32148082D-04 -0.27160537D-05
  0.35477370D-02  0.78244553D-02 -0.11457841D-01  0.53558954D-03  0.38895630D-02
 -0.14211706D-02 -0.13971752D-03  0.10657395D-03  0.29760558D-03 -0.19074616D-02
  0.13010614D-02  0.60640023D-03  0.12711128D-02 -0.84426715D-03 -0.52589680D-02
  0.68172630D-04  0.21694257D-03 -0.28511520D-03  0.18016163D-03  0.20850325D-03
 -0.26936418D-03  0.13352802D-01  0.24082328D-01  0.35509378D-01  0.15186964D-01
 -0.70626284D-03 -0.74964773D-04 -0.12359466D-01  0.67524402D-02  0.38421981D-02
 -0.14468969D-02  0.32847341D-02  0.99671263D-03  0.42206269D-03  0.71325990D-04
 -0.27863233D-07  0.97014344D-03  0.65749321D-03 -0.16276366D-02 -0.51417637D-02
 -0.12341560D-02  0.14777057D-02 -0.25831015D-03  0.84369113D-04  0.17394103D-03
 -0.25737643D-03  0.99782325D-04  0.27590742D-03
MO    4     MO 0.0        OCC NO =    2.0000000  ORB. ENERGY =   -0.680845
  0.65461194D-02  0.12197730D-01  0.20629419D-01  0.31066761D-01  0.38462666D-01
  0.32729993D-01  0.12454366D-01 -0.58329109D-04  0.48304690D-01  0.90571744D-01
  0.15408949D+00  0.23928470D+00  0.31754472D+00  0.33464854D+00  0.20750344D+00
 -0.13803137D+00 -0.75199746D-01 -0.43314446D-01 -0.30426814D-02  0.15822813D+00
  0.15197622D+00  0.10657622D+00 -0.21348106D+00 -0.20504601D+00 -0.14379241D+00
 -0.11462327D+00 -0.11009428D+00 -0.77205708D-01  0.36183769D-01 -0.42568641D-01
 -0.26950686D-01  0.25532032D-02 -0.24185683D-03 -0.23284832D-02 -0.86848540D-05
  0.14824642D-03 -0.30833591D-04 -0.98384445D-02  0.17471692D-01 -0.76332476D-02
  0.58041439D-02 -0.12688766D-01 -0.16646666D-01 -0.40313824D-03  0.69779669D-03
 -0.29465845D-03  0.88570712D-03 -0.15959031D-02 -0.45418037D-02  0.18692806D-03
 -0.37410695D-03  0.18717889D-03  0.52113637D-04  0.10892835D-03  0.42315767D-04
 -0.54496774D-03  0.11928155D-02 -0.50157942D-04  0.35998687D-02 -0.17476313D-02
  0.13842401D-02 -0.19649655D-02 -0.18308153D-02 -0.12337662D-02  0.10762804D-03
  0.70738600D-04  0.33168675D-03 -0.13135874D-03 -0.33566798D-04 -0.33900433D-03
  0.23393912D-03 -0.17864900D-03 -0.65605593D-03  0.16013709D-03 -0.38718784D-03
 -0.65461194D-02 -0.12197730D-01 -0.20629419D-01 -0.31066761D-01 -0.38462666D-01
 -0.32729993D-01 -0.12454366D-01  0.58329109D-04 -0.48304690D-01 -0.90571744D-01
 -0.15408949D+00 -0.23928470D+00 -0.31754472D+00 -0.33464854D+00 -0.20750344D+00
  0.13803137D+00  0.75199746D-01  0.43314446D-01  0.30426814D-02  0.15822813D+00
  0.15197622D+00  0.10657622D+00 -0.21348106D+00 -0.20504601D+00 -0.14379241D+00
  0.11462327D+00  0.11009428D+00  0.77205708D-01  0.36183769D-01 -0.42568641D-01
  0.26950686D-01  0.25532032D-02 -0.24185683D-03  0.23284832D-02 -0.86848540D-05
  0.14824642D-03  0.30833591D-04  0.98384445D-02 -0.17471692D-01  0.76332476D-02
 -0.58041439D-02 -0.12688766D-01 -0.16646666D-01  0.40313824D-03 -0.69779669D-03
  0.29465845D-03 -0.88570712D-03 -0.15959031D-02 -0.45418037D-02 -0.18692806D-03
  0.37410695D-03 -0.18717889D-03 -0.52113637D-04  0.10892835D-03  0.42315767D-04
 -0.54496774D-03  0.11928155D-02  0.50157942D-04  0.35998687D-02 -0.17476313D-02
 -0.13842401D-02 -0.19649655D-02 -0.18308153D-02  0.12337662D-02 -0.10762804D-03
  0.70738600D-04  0.33168675D-03  0.13135874D-03 -0.33566798D-04 -0.33900433D-03
 -0.23393912D-03 -0.17864900D-03 -0.65605593D-03 -0.16013709D-03  0.38718784D-03
 -0.20802461D-01 -0.37518095D-01 -0.55320409D-01 -0.25537450D-01 -0.11950738D-02
  0.45012801D-04  0.69483636D-02  0.62591807D-02  0.18820333D-01  0.19790453D-02
  0.58332364D-03  0.30446762D-02  0.93552450D-04  0.92711689D-06 -0.25626921D-03
  0.19421376D-02  0.18553685D-02 -0.37975061D-02 -0.14451065D-02 -0.42491712D-02
 -0.50679378D-02 -0.11634242D-03 -0.50786382D-04  0.16712881D-03 -0.72503351D-04
  0.34957686D-04  0.12899282D-03 -0.22005234D-01 -0.39687345D-01 -0.58518967D-01
 -0.28104040D-01 -0.48860490D-03  0.25714481D-04 -0.20893453D-01  0.49130170D-02
 -0.71650838D-02 -0.39468207D-02  0.46444791D-03 -0.20562431D-02  0.37979541D-03
 -0.89216945D-04  0.12853298D-03 -0.46038476D-02  0.23861292D-02  0.22177184D-02
  0.43204910D-02 -0.45211410D-02  0.11502520D-02  0.12998719D-03 -0.17441147D-04
 -0.11254605D-03 -0.53380416D-04  0.79191776D-04 -0.13471164D-03  0.20802461D-01
  0.37518095D-01  0.55320409D-01  0.25537450D-01  0.11950738D-02 -0.45012801D-04
  0.69483636D-02  0.62591807D-02 -0.18820333D-01  0.19790453D-02  0.58332364D-03
 -0.30446762D-02  0.93552450D-04  0.92711689D-06  0.25626921D-03 -0.19421376D-02
 -0.18553685D-02  0.37975061D-02  0.14451065D-02 -0.42491712D-02 -0.50679378D-02
  0.11634242D-03  0.50786382D-04 -0.16712881D-03  0.72503351D-04  0.34957686D-04
  0.12899282D-03  0.22005234D-01  0.39687345D-01  0.58518967D-01  0.28104040D-01
  0.48860490D-03 -0.25714481D-04 -0.20893453D-01  0.49130170D-02  0.71650838D-02
 -0.39468207D-02  0.46444791D-03  0.20562431D-02  0.37979541D-03 -0.89216945D-04
 -0.12853298D-03  0.46038476D-02 -0.23861292D-02 -0.22177184D-02 -0.43204910D-02
 -0.45211410D-02  0.11502520D-02 -0.12998719D-03  0.17441147D-04  0.11254605D-03
  0.53380416D-04  0.79191776D-04 -0.13471164D-03
MO    5     MO 0.0        OCC NO =    2.0000000  ORB. ENERGY =   -0.457520
 -0.19854324D-03 -0.36995608D-03 -0.62568849D-03 -0.94225219D-03 -0.11665693D-02
 -0.99269786D-03 -0.37773985D-03  0.17691169D-05  0.38288362D-02  0.71791037D-02
  0.12213791D-01  0.18966728D-01  0.25169952D-01  0.26525674D-01  0.16447610D-01
 -0.10940957D-01 -0.46808786D-02 -0.66421166D-02 -0.55780687D-03  0.11670515D+00
  0.11209390D+00  0.78607981D-01  0.47452553D+00  0.45577610D+00  0.31962166D+00
  0.52677122D+00  0.50595746D+00  0.35481229D+00  0.22644733D-01  0.10763622D+00
  0.11660678D+00  0.11768084D-02  0.95649709D-02  0.11660678D-01  0.50183405D-04
  0.44028623D-04  0.13893111D-03 -0.49436247D-02 -0.24868636D-01  0.29812260D-01
  0.24419966D-03 -0.14730299D-02  0.25787947D-02  0.11000867D-02 -0.66241303D-02
  0.55240436D-02 -0.13709096D-02 -0.88291710D-03 -0.76217464D-02  0.14859209D-03
 -0.42703751D-03  0.27844542D-03  0.64940009D-03 -0.13499158D-03 -0.41760157D-03
 -0.28540378D-03  0.54276126D-02 -0.35465551D-02 -0.30325050D-02 -0.66577566D-02
 -0.85539903D-03  0.38887164D-02 -0.96250811D-02  0.11495064D-01  0.18175497D-03
 -0.44004011D-04  0.56630646D-03  0.16899542D-03  0.50887230D-03 -0.79206158D-03
 -0.28626690D-03 -0.37686027D-03 -0.90685780D-03 -0.22071936D-03 -0.10504999D-02
 -0.19854324D-03 -0.36995609D-03 -0.62568849D-03 -0.94225219D-03 -0.11665693D-02
 -0.99269786D-03 -0.37773985D-03  0.17691169D-05  0.38288362D-02  0.71791037D-02
  0.12213791D-01  0.18966728D-01  0.25169952D-01  0.26525674D-01  0.16447610D-01
 -0.10940957D-01 -0.46808786D-02 -0.66421166D-02 -0.55780687D-03 -0.11670515D+00
 -0.11209390D+00 -0.78607981D-01 -0.47452553D+00 -0.45577610D+00 -0.31962166D+00
  0.52677122D+00  0.50595746D+00  0.35481229D+00 -0.22644733D-01 -0.10763622D+00
  0.11660678D+00 -0.11768084D-02 -0.95649709D-02  0.11660678D-01 -0.50183405D-04
 -0.44028623D-04  0.13893111D-03 -0.49436247D-02 -0.24868636D-01  0.29812260D-01
  0.24419966D-03  0.14730299D-02 -0.25787947D-02  0.11000867D-02 -0.66241303D-02
  0.55240436D-02 -0.13709096D-02  0.88291710D-03  0.76217464D-02  0.14859209D-03
 -0.42703751D-03  0.27844542D-03  0.64940009D-03  0.13499158D-03  0.41760157D-03
  0.28540378D-03 -0.54276126D-02 -0.35465551D-02  0.30325050D-02  0.66577566D-02
 -0.85539903D-03 -0.38887164D-02  0.96250811D-02  0.11495064D-01  0.18175497D-03
  0.44004011D-04 -0.56630646D-03  0.16899542D-03 -0.50887230D-03  0.79206158D-03
 -0.28626690D-03  0.37686027D-03  0.90685780D-03 -0.22071936D-03 -0.10504999D-02
  0.31085324D-01  0.56063662D-01  0.82665837D-01  0.57831217D-01  0.64503053D-02
 -0.75455128D-04 -0.69110093D-02 -0.75430043D-02 -0.23234970D-01 -0.24533905D-02
 -0.70762249D-03 -0.77272728D-02  0.94176035D-04  0.44690036D-03  0.48997495D-03
 -0.32813222D-02 -0.38431905D-02  0.71245127D-02  0.19042601D-02  0.69881350D-02
  0.62845578D-02  0.28813218D-04 -0.77054254D-04  0.48241037D-04 -0.36708731D-03
 -0.11087430D-03 -0.90486590D-03 -0.54824800D-02 -0.98878785D-02 -0.14579671D-01
 -0.98403478D-02  0.66496329D-03  0.12654803D-03 -0.41313173D-02  0.96215586D-02
  0.64442386D-02 -0.18746646D-02  0.62231880D-02  0.42327443D-02  0.28676616D-03
  0.30480837D-03  0.49652461D-03 -0.73646043D-03 -0.18818525D-02  0.26183130D-02
  0.82182565D-02  0.40775915D-02  0.96870762D-04 -0.33579940D-03  0.13013790D-03
  0.20566150D-03  0.84183597D-03  0.27465153D-03  0.41598037D-04  0.31085324D-01
  0.56063662D-01  0.82665837D-01  0.57831217D-01  0.64503053D-02 -0.75455128D-04
  0.69110093D-02  0.75430043D-02 -0.23234970D-01  0.24533905D-02  0.70762249D-03
 -0.77272728D-02 -0.94176035D-04 -0.44690036D-03  0.48997495D-03 -0.32813222D-02
 -0.38431905D-02  0.71245127D-02  0.19042601D-02 -0.69881350D-02 -0.62845578D-02
  0.28813218D-04 -0.77054254D-04  0.48241037D-04 -0.36708731D-03  0.11087430D-03
  0.90486590D-03 -0.54824800D-02 -0.98878785D-02 -0.14579671D-01 -0.98403478D-02
  0.66496329D-03  0.12654803D-03  0.41313173D-02 -0.96215586D-02  0.64442386D-02
  0.18746646D-02 -0.62231880D-02  0.42327443D-02 -0.28676616D-03 -0.30480837D-03
  0.49652461D-03 -0.73646043D-03 -0.18818525D-02  0.26183130D-02  0.82182565D-02
 -0.40775915D-02 -0.96870762D-04 -0.33579940D-03  0.13013790D-03  0.20566150D-03
  0.84183597D-03 -0.27465153D-03 -0.41598037D-04
MO    6     MO 0.0        OCC NO =    2.0000000  ORB. ENERGY =   -0.441590
 -0.69156632D-03 -0.12886320D-02 -0.21793998D-02 -0.32820553D-02 -0.40633974D-02
 -0.34577678D-02 -0.13157444D-02  0.61621925D-05 -0.73315471D-02 -0.13746719D-01
 -0.23387260D-01 -0.36317945D-01 -0.48196025D-01 -0.50791995D-01 -0.31494277D-01
  0.20950005D-01  0.10879278D-01  0.21682750D-01  0.33166816D-02  0.59382404D+00
  0.57036089D+00  0.39997642D+00  0.56903808D-01  0.54655427D-01  0.38328158D-01
  0.30530328D+00  0.29324015D+00  0.20564024D+00  0.13037728D+00  0.13037212D-01
  0.63736819D-01  0.12102494D-01 -0.18692871D-02  0.54505910D-02  0.14303500D-03
 -0.25852426D-03 -0.97710194D-04 -0.22938639D-01  0.13197986D-02  0.21618840D-01
 -0.16678446D-01  0.72147091D-02  0.22922655D-01 -0.20161844D-02 -0.36555420D-03
  0.23817386D-02 -0.12363398D-01  0.35231817D-02  0.25455200D-02  0.19285630D-03
  0.22748515D-03 -0.42034145D-03 -0.74281248D-03  0.44677013D-03 -0.14611894D-03
 -0.39002116D-02  0.16730220D-03 -0.81766465D-03  0.11820742D-01 -0.10861887D-04
  0.41574033D-02 -0.12010701D-03 -0.49104471D-03 -0.17044094D-02  0.23797452D-02
 -0.14096933D-03 -0.15213235D-03  0.36324130D-03  0.39887467D-03  0.39493114D-03
 -0.71915256D-03  0.24033315D-04  0.61465910D-04 -0.37057135D-03 -0.40044106D-03
  0.69156632D-03  0.12886320D-02  0.21793998D-02  0.32820553D-02  0.40633974D-02
  0.34577678D-02  0.13157444D-02 -0.61621925D-05  0.73315471D-02  0.13746719D-01
  0.23387260D-01  0.36317945D-01  0.48196025D-01  0.50791995D-01  0.31494277D-01
 -0.20950005D-01 -0.10879278D-01 -0.21682750D-01 -0.33166816D-02  0.59382404D+00
  0.57036089D+00  0.39997642D+00  0.56903808D-01  0.54655427D-01  0.38328158D-01
 -0.30530328D+00 -0.29324015D+00 -0.20564024D+00  0.13037728D+00  0.13037212D-01