 Molden2AIM, Version 4.0.0 (06/02/2016)           Time: Fri Jun 29 04:29:49 2018
GAUSSIAN             33 MOL ORBITALS    618 PRIMITIVES        6 NUCLEI
  N    1    (CENTRE  1)  -1.94560911  4.01880874  0.00000000  CHARGE =  7.0
  P    2    (CENTRE  2)  -3.74099632  1.46428830  0.00000000  CHARGE = 15.0
  N    3    (CENTRE  3)  -2.05390364 -1.16297903  0.00000000  CHARGE =  7.0
  P    4    (CENTRE  4)   1.17319300  4.16626974  0.00000000  CHARGE = 15.0
  P    5    (CENTRE  5)   1.05604510 -1.44057602  0.00000000  CHARGE = 15.0
  N    6    (CENTRE  6)   2.48768838  1.33414097  0.00000000  CHARGE =  7.0
CENTRE ASSIGNMENTS    1  1  1  1  1  1  1  1  1  1  1  1  1  1  1  1  1  1  1  1
CENTRE ASSIGNMENTS    1  1  1  1  1  1  1  1  1  1  1  1  1  1  1  1  1  1  1  1
CENTRE ASSIGNMENTS    1  1  1  1  1  1  1  1  1  1  1  1  1  1  1  1  1  1  1  1
CENTRE ASSIGNMENTS    1  1  1  1  1  1  1  1  1  1  1  1  1  1  1  2  2  2  2  2
CENTRE ASSIGNMENTS    2  2  2  2  2  2  2  2  2  2  2  2  2  2  2  2  2  2  2  2
CENTRE ASSIGNMENTS    2  2  2  2  2  2  2  2  2  2  2  2  2  2  2  2  2  2  2  2
CENTRE ASSIGNMENTS    2  2  2  2  2  2  2  2  2  2  2  2  2  2  2  2  2  2  2  2
CENTRE ASSIGNMENTS    2  2  2  2  2  2  2  2  2  2  2  2  2  2  2  2  2  2  2  2
CENTRE ASSIGNMENTS    2  2  2  2  2  2  2  2  2  2  2  2  2  2  2  2  2  2  2  2
CENTRE ASSIGNMENTS    2  2  2  2  2  2  2  2  2  2  2  2  2  2  2  2  2  2  2  2
CENTRE ASSIGNMENTS    2  2  2  2  2  2  3  3  3  3  3  3  3  3  3  3  3  3  3  3
CENTRE ASSIGNMENTS    3  3  3  3  3  3  3  3  3  3  3  3  3  3  3  3  3  3  3  3
CENTRE ASSIGNMENTS    3  3  3  3  3  3  3  3  3  3  3  3  3  3  3  3  3  3  3  3
CENTRE ASSIGNMENTS    3  3  3  3  3  3  3  3  3  3  3  3  3  3  3  3  3  3  3  3
CENTRE ASSIGNMENTS    3  4  4  4  4  4  4  4  4  4  4  4  4  4  4  4  4  4  4  4
CENTRE ASSIGNMENTS    4  4  4  4  4  4  4  4  4  4  4  4  4  4  4  4  4  4  4  4
CENTRE ASSIGNMENTS    4  4  4  4  4  4  4  4  4  4  4  4  4  4  4  4  4  4  4  4
CENTRE ASSIGNMENTS    4  4  4  4  4  4  4  4  4  4  4  4  4  4  4  4  4  4  4  4
CENTRE ASSIGNMENTS    4  4  4  4  4  4  4  4  4  4  4  4  4  4  4  4  4  4  4  4
CENTRE ASSIGNMENTS    4  4  4  4  4  4  4  4  4  4  4  4  4  4  4  4  4  4  4  4
CENTRE ASSIGNMENTS    4  4  4  4  4  4  4  4  4  4  4  4  5  5  5  5  5  5  5  5
CENTRE ASSIGNMENTS    5  5  5  5  5  5  5  5  5  5  5  5  5  5  5  5  5  5  5  5
CENTRE ASSIGNMENTS    5  5  5  5  5  5  5  5  5  5  5  5  5  5  5  5  5  5  5  5
CENTRE ASSIGNMENTS    5  5  5  5  5  5  5  5  5  5  5  5  5  5  5  5  5  5  5  5
CENTRE ASSIGNMENTS    5  5  5  5  5  5  5  5  5  5  5  5  5  5  5  5  5  5  5  5
CENTRE ASSIGNMENTS    5  5  5  5  5  5  5  5  5  5  5  5  5  5  5  5  5  5  5  5
CENTRE ASSIGNMENTS    5  5  5  5  5  5  5  5  5  5  5  5  5  5  5  5  5  5  5  5
CENTRE ASSIGNMENTS    5  5  5  6  6  6  6  6  6  6  6  6  6  6  6  6  6  6  6  6
CENTRE ASSIGNMENTS    6  6  6  6  6  6  6  6  6  6  6  6  6  6  6  6  6  6  6  6
CENTRE ASSIGNMENTS    6  6  6  6  6  6  6  6  6  6  6  6  6  6  6  6  6  6  6  6
CENTRE ASSIGNMENTS    6  6  6  6  6  6  6  6  6  6  6  6  6  6  6  6  6  6
TYPE ASSIGNMENTS      1  1  1  1  1  1  1  1  1  1  1  1  1  1  1  1  1  1  1  2
TYPE ASSIGNMENTS      2  2  3  3  3  4  4  4  2  3  4  2  3  4  2  3  4  5  6  7
TYPE ASSIGNMENTS      8  9 10  5  6  7  8  9 10  5  6  7  8  9 10 11 12 13 17 14
TYPE ASSIGNMENTS     15 18 19 16 20 11 12 13 17 14 15 18 19 16 20  1  1  1  1  1
TYPE ASSIGNMENTS      1  1  1  1  1  1  1  1  1  1  1  1  1  1  1  1  1  1  1  1
TYPE ASSIGNMENTS      1  1  1  1  1  1  1  1  1  1  1  1  1  1  1  1  1  2  2  2
TYPE ASSIGNMENTS      2  2  2  2  3  3  3  3  3  3  3  4  4  4  4  4  4  4  2  2
TYPE ASSIGNMENTS      2  2  2  2  2  3  3  3  3  3  3  3  4  4  4  4  4  4  4  2
TYPE ASSIGNMENTS      3  4  2  3  4  2  3  4  5  6  7  8  9 10  5  6  7  8  9 10
TYPE ASSIGNMENTS      5  6  7  8  9 10 11 12 13 17 14 15 18 19 16 20 11 12 13 17
TYPE ASSIGNMENTS     14 15 18 19 16 20  1  1  1  1  1  1  1  1  1  1  1  1  1  1
TYPE ASSIGNMENTS      1  1  1  1  1  2  2  2  3  3  3  4  4  4  2  3  4  2  3  4
TYPE ASSIGNMENTS      2  3  4  5  6  7  8  9 10  5  6  7  8  9 10  5  6  7  8  9
TYPE ASSIGNMENTS     10 11 12 13 17 14 15 18 19 16 20 11 12 13 17 14 15 18 19 16
TYPE ASSIGNMENTS     20  1  1  1  1  1  1  1  1  1  1  1  1  1  1  1  1  1  1  1
TYPE ASSIGNMENTS      1  1  1  1  1  1  1  1  1  1  1  1  1  1  1  1  1  1  1  1
TYPE ASSIGNMENTS      1  1  1  2  2  2  2  2  2  2  3  3  3  3  3  3  3  4  4  4
TYPE ASSIGNMENTS      4  4  4  4  2  2  2  2  2  2  2  3  3  3  3  3  3  3  4  4
TYPE ASSIGNMENTS      4  4  4  4  4  2  3  4  2  3  4  2  3  4  5  6  7  8  9 10
TYPE ASSIGNMENTS      5  6  7  8  9 10  5  6  7  8  9 10 11 12 13 17 14 15 18 19
TYPE ASSIGNMENTS     16 20 11 12 13 17 14 15 18 19 16 20  1  1  1  1  1  1  1  1
TYPE ASSIGNMENTS      1  1  1  1  1  1  1  1  1  1  1  1  1  1  1  1  1  1  1  1
TYPE ASSIGNMENTS      1  1  1  1  1  1  1  1  1  1  1  1  1  1  2  2  2  2  2  2
TYPE ASSIGNMENTS      2  3  3  3  3  3  3  3  4  4  4  4  4  4  4  2  2  2  2  2
TYPE ASSIGNMENTS      2  2  3  3  3  3  3  3  3  4  4  4  4  4  4  4  2  3  4  2
TYPE ASSIGNMENTS      3  4  2  3  4  5  6  7  8  9 10  5  6  7  8  9 10  5  6  7
TYPE ASSIGNMENTS      8  9 10 11 12 13 17 14 15 18 19 16 20 11 12 13 17 14 15 18
TYPE ASSIGNMENTS     19 16 20  1  1  1  1  1  1  1  1  1  1  1  1  1  1  1  1  1
TYPE ASSIGNMENTS      1  1  2  2  2  3  3  3  4  4  4  2  3  4  2  3  4  2  3  4
TYPE ASSIGNMENTS      5  6  7  8  9 10  5  6  7  8  9 10  5  6  7  8  9 10 11 12
TYPE ASSIGNMENTS     13 17 14 15 18 19 16 20 11 12 13 17 14 15 18 19 16 20
EXPONENTS  0.1142000D+05 0.1712000D+04 0.3893000D+03 0.1100000D+03 0.3557000D+02
EXPONENTS  0.1254000D+02 0.4644000D+01 0.5118000D+00 0.1142000D+05 0.1712000D+04
EXPONENTS  0.3893000D+03 0.1100000D+03 0.3557000D+02 0.1254000D+02 0.4644000D+01
EXPONENTS  0.5118000D+00 0.1293000D+01 0.1787000D+00 0.5760000D-01 0.2663000D+02
EXPONENTS  0.5948000D+01 0.1742000D+01 0.2663000D+02 0.5948000D+01 0.1742000D+01
EXPONENTS  0.2663000D+02 0.5948000D+01 0.1742000D+01 0.5550000D+00 0.5550000D+00
EXPONENTS  0.5550000D+00 0.1725000D+00 0.1725000D+00 0.1725000D+00 0.4910000D-01
EXPONENTS  0.4910000D-01 0.4910000D-01 0.1654000D+01 0.1654000D+01 0.1654000D+01
EXPONENTS  0.1654000D+01 0.1654000D+01 0.1654000D+01 0.4690000D+00 0.4690000D+00
EXPONENTS  0.4690000D+00 0.4690000D+00 0.4690000D+00 0.4690000D+00 0.1510000D+00
EXPONENTS  0.1510000D+00 0.1510000D+00 0.1510000D+00 0.1510000D+00 0.1510000D+00
EXPONENTS  0.1093000D+01 0.1093000D+01 0.1093000D+01 0.1093000D+01 0.1093000D+01
EXPONENTS  0.1093000D+01 0.1093000D+01 0.1093000D+01 0.1093000D+01 0.1093000D+01
EXPONENTS  0.3640000D+00 0.3640000D+00 0.3640000D+00 0.3640000D+00 0.3640000D+00
EXPONENTS  0.3640000D+00 0.3640000D+00 0.3640000D+00 0.3640000D+00 0.3640000D+00
EXPONENTS  0.3124000D+06 0.4680000D+05 0.1065000D+05 0.3018000D+04 0.9868000D+03
EXPONENTS  0.3574000D+03 0.1396000D+03 0.5763000D+02 0.2460000D+02 0.1012000D+02
EXPONENTS  0.4283000D+01 0.1805000D+01 0.2782000D+00 0.3124000D+06 0.4680000D+05
EXPONENTS  0.1065000D+05 0.3018000D+04 0.9868000D+03 0.3574000D+03 0.1396000D+03
EXPONENTS  0.5763000D+02 0.2460000D+02 0.1012000D+02 0.4283000D+01 0.1805000D+01
EXPONENTS  0.2782000D+00 0.3124000D+06 0.4680000D+05 0.1065000D+05 0.3018000D+04
EXPONENTS  0.9868000D+03 0.3574000D+03 0.1396000D+03 0.5763000D+02 0.2460000D+02
EXPONENTS  0.1012000D+02 0.4283000D+01 0.1805000D+01 0.2782000D+00 0.6158000D+00
EXPONENTS  0.1055000D+00 0.4090000D-01 0.5049000D+03 0.1194000D+03 0.3796000D+02
EXPONENTS  0.1395000D+02 0.5457000D+01 0.2177000D+01 0.2877000D+00 0.5049000D+03
EXPONENTS  0.1194000D+03 0.3796000D+02 0.1395000D+02 0.5457000D+01 0.2177000D+01
EXPONENTS  0.2877000D+00 0.5049000D+03 0.1194000D+03 0.3796000D+02 0.1395000D+02
EXPONENTS  0.5457000D+01 0.2177000D+01 0.2877000D+00 0.5049000D+03 0.1194000D+03
EXPONENTS  0.3796000D+02 0.1395000D+02 0.5457000D+01 0.2177000D+01 0.2877000D+00
EXPONENTS  0.5049000D+03 0.1194000D+03 0.3796000D+02 0.1395000D+02 0.5457000D+01
EXPONENTS  0.2177000D+01 0.2877000D+00 0.5049000D+03 0.1194000D+03 0.3796000D+02
EXPONENTS  0.1395000D+02 0.5457000D+01 0.2177000D+01 0.2877000D+00 0.8010000D+00
EXPONENTS  0.8010000D+00 0.8010000D+00 0.9714000D-01 0.9714000D-01 0.9714000D-01
EXPONENTS  0.3070000D-01 0.3070000D-01 0.3070000D-01 0.2160000D+00 0.2160000D+00
EXPONENTS  0.2160000D+00 0.2160000D+00 0.2160000D+00 0.2160000D+00 0.6520000D+00
EXPONENTS  0.6520000D+00 0.6520000D+00 0.6520000D+00 0.6520000D+00 0.6520000D+00
EXPONENTS  0.7750000D-01 0.7750000D-01 0.7750000D-01 0.7750000D-01 0.7750000D-01
EXPONENTS  0.7750000D-01 0.4520000D+00 0.4520000D+00 0.4520000D+00 0.4520000D+00
EXPONENTS  0.4520000D+00 0.4520000D+00 0.4520000D+00 0.4520000D+00 0.4520000D+00
EXPONENTS  0.4520000D+00 0.1650000D+00 0.1650000D+00 0.1650000D+00 0.1650000D+00
EXPONENTS  0.1650000D+00 0.1650000D+00 0.1650000D+00 0.1650000D+00 0.1650000D+00
EXPONENTS  0.1650000D+00 0.1142000D+05 0.1712000D+04 0.3893000D+03 0.1100000D+03
EXPONENTS  0.3557000D+02 0.1254000D+02 0.4644000D+01 0.5118000D+00 0.1142000D+05
EXPONENTS  0.1712000D+04 0.3893000D+03 0.1100000D+03 0.3557000D+02 0.1254000D+02
EXPONENTS  0.4644000D+01 0.5118000D+00 0.1293000D+01 0.1787000D+00 0.5760000D-01
EXPONENTS  0.2663000D+02 0.5948000D+01 0.1742000D+01 0.2663000D+02 0.5948000D+01
EXPONENTS  0.1742000D+01 0.2663000D+02 0.5948000D+01 0.1742000D+01 0.5550000D+00
EXPONENTS  0.5550000D+00 0.5550000D+00 0.1725000D+00 0.1725000D+00 0.1725000D+00
EXPONENTS  0.4910000D-01 0.4910000D-01 0.4910000D-01 0.1654000D+01 0.1654000D+01
EXPONENTS  0.1654000D+01 0.1654000D+01 0.1654000D+01 0.1654000D+01 0.4690000D+00
EXPONENTS  0.4690000D+00 0.4690000D+00 0.4690000D+00 0.4690000D+00 0.4690000D+00
EXPONENTS  0.1510000D+00 0.1510000D+00 0.1510000D+00 0.1510000D+00 0.1510000D+00
EXPONENTS  0.1510000D+00 0.1093000D+01 0.1093000D+01 0.1093000D+01 0.1093000D+01
EXPONENTS  0.1093000D+01 0.1093000D+01 0.1093000D+01 0.1093000D+01 0.1093000D+01
EXPONENTS  0.1093000D+01 0.3640000D+00 0.3640000D+00 0.3640000D+00 0.3640000D+00
EXPONENTS  0.3640000D+00 0.3640000D+00 0.3640000D+00 0.3640000D+00 0.3640000D+00
EXPONENTS  0.3640000D+00 0.3124000D+06 0.4680000D+05 0.1065000D+05 0.3018000D+04
EXPONENTS  0.9868000D+03 0.3574000D+03 0.1396000D+03 0.5763000D+02 0.2460000D+02
EXPONENTS  0.1012000D+02 0.4283000D+01 0.1805000D+01 0.2782000D+00 0.3124000D+06
EXPONENTS  0.4680000D+05 0.1065000D+05 0.3018000D+04 0.9868000D+03 0.3574000D+03
EXPONENTS  0.1396000D+03 0.5763000D+02 0.2460000D+02 0.1012000D+02 0.4283000D+01
EXPONENTS  0.1805000D+01 0.2782000D+00 0.3124000D+06 0.4680000D+05 0.1065000D+05
EXPONENTS  0.3018000D+04 0.9868000D+03 0.3574000D+03 0.1396000D+03 0.5763000D+02
EXPONENTS  0.2460000D+02 0.1012000D+02 0.4283000D+01 0.1805000D+01 0.2782000D+00
EXPONENTS  0.6158000D+00 0.1055000D+00 0.4090000D-01 0.5049000D+03 0.1194000D+03
EXPONENTS  0.3796000D+02 0.1395000D+02 0.5457000D+01 0.2177000D+01 0.2877000D+00
EXPONENTS  0.5049000D+03 0.1194000D+03 0.3796000D+02 0.1395000D+02 0.5457000D+01
EXPONENTS  0.2177000D+01 0.2877000D+00 0.5049000D+03 0.1194000D+03 0.3796000D+02
EXPONENTS  0.1395000D+02 0.5457000D+01 0.2177000D+01 0.2877000D+00 0.5049000D+03
EXPONENTS  0.1194000D+03 0.3796000D+02 0.1395000D+02 0.5457000D+01 0.2177000D+01
EXPONENTS  0.2877000D+00 0.5049000D+03 0.1194000D+03 0.3796000D+02 0.1395000D+02
EXPONENTS  0.5457000D+01 0.2177000D+01 0.2877000D+00 0.5049000D+03 0.1194000D+03
EXPONENTS  0.3796000D+02 0.1395000D+02 0.5457000D+01 0.2177000D+01 0.2877000D+00
EXPONENTS  0.8010000D+00 0.8010000D+00 0.8010000D+00 0.9714000D-01 0.9714000D-01
EXPONENTS  0.9714000D-01 0.3070000D-01 0.3070000D-01 0.3070000D-01 0.2160000D+00
EXPONENTS  0.2160000D+00 0.2160000D+00 0.2160000D+00 0.2160000D+00 0.2160000D+00
EXPONENTS  0.6520000D+00 0.6520000D+00 0.6520000D+00 0.6520000D+00 0.6520000D+00
EXPONENTS  0.6520000D+00 0.7750000D-01 0.7750000D-01 0.7750000D-01 0.7750000D-01
EXPONENTS  0.7750000D-01 0.7750000D-01 0.4520000D+00 0.4520000D+00 0.4520000D+00
EXPONENTS  0.4520000D+00 0.4520000D+00 0.4520000D+00 0.4520000D+00 0.4520000D+00
EXPONENTS  0.4520000D+00 0.4520000D+00 0.1650000D+00 0.1650000D+00 0.1650000D+00
EXPONENTS  0.1650000D+00 0.1650000D+00 0.1650000D+00 0.1650000D+00 0.1650000D+00
EXPONENTS  0.1650000D+00 0.1650000D+00 0.3124000D+06 0.4680000D+05 0.1065000D+05
EXPONENTS  0.3018000D+04 0.9868000D+03 0.3574000D+03 0.1396000D+03 0.5763000D+02
EXPONENTS  0.2460000D+02 0.1012000D+02 0.4283000D+01 0.1805000D+01 0.2782000D+00
EXPONENTS  0.3124000D+06 0.4680000D+05 0.1065000D+05 0.3018000D+04 0.9868000D+03
EXPONENTS  0.3574000D+03 0.1396000D+03 0.5763000D+02 0.2460000D+02 0.1012000D+02
EXPONENTS  0.4283000D+01 0.1805000D+01 0.2782000D+00 0.3124000D+06 0.4680000D+05
EXPONENTS  0.1065000D+05 0.3018000D+04 0.9868000D+03 0.3574000D+03 0.1396000D+03
EXPONENTS  0.5763000D+02 0.2460000D+02 0.1012000D+02 0.4283000D+01 0.1805000D+01
EXPONENTS  0.2782000D+00 0.6158000D+00 0.1055000D+00 0.4090000D-01 0.5049000D+03
EXPONENTS  0.1194000D+03 0.3796000D+02 0.1395000D+02 0.5457000D+01 0.2177000D+01
EXPONENTS  0.2877000D+00 0.5049000D+03 0.1194000D+03 0.3796000D+02 0.1395000D+02
EXPONENTS  0.5457000D+01 0.2177000D+01 0.2877000D+00 0.5049000D+03 0.1194000D+03
EXPONENTS  0.3796000D+02 0.1395000D+02 0.5457000D+01 0.2177000D+01 0.2877000D+00
EXPONENTS  0.5049000D+03 0.1194000D+03 0.3796000D+02 0.1395000D+02 0.5457000D+01
EXPONENTS  0.2177000D+01 0.2877000D+00 0.5049000D+03 0.1194000D+03 0.3796000D+02
EXPONENTS  0.1395000D+02 0.5457000D+01 0.2177000D+01 0.2877000D+00 0.5049000D+03
EXPONENTS  0.1194000D+03 0.3796000D+02 0.1395000D+02 0.5457000D+01 0.2177000D+01
EXPONENTS  0.2877000D+00 0.8010000D+00 0.8010000D+00 0.8010000D+00 0.9714000D-01
EXPONENTS  0.9714000D-01 0.9714000D-01 0.3070000D-01 0.3070000D-01 0.3070000D-01
EXPONENTS  0.2160000D+00 0.2160000D+00 0.2160000D+00 0.2160000D+00 0.2160000D+00
EXPONENTS  0.2160000D+00 0.6520000D+00 0.6520000D+00 0.6520000D+00 0.6520000D+00
EXPONENTS  0.6520000D+00 0.6520000D+00 0.7750000D-01 0.7750000D-01 0.7750000D-01
EXPONENTS  0.7750000D-01 0.7750000D-01 0.7750000D-01 0.4520000D+00 0.4520000D+00
EXPONENTS  0.4520000D+00 0.4520000D+00 0.4520000D+00 0.4520000D+00 0.4520000D+00
EXPONENTS  0.4520000D+00 0.4520000D+00 0.4520000D+00 0.1650000D+00 0.1650000D+00
EXPONENTS  0.1650000D+00 0.1650000D+00 0.1650000D+00 0.1650000D+00 0.1650000D+00
EXPONENTS  0.1650000D+00 0.1650000D+00 0.1650000D+00 0.1142000D+05 0.1712000D+04
EXPONENTS  0.3893000D+03 0.1100000D+03 0.3557000D+02 0.1254000D+02 0.4644000D+01
EXPONENTS  0.5118000D+00 0.1142000D+05 0.1712000D+04 0.3893000D+03 0.1100000D+03
EXPONENTS  0.3557000D+02 0.1254000D+02 0.4644000D+01 0.5118000D+00 0.1293000D+01
EXPONENTS  0.1787000D+00 0.5760000D-01 0.2663000D+02 0.5948000D+01 0.1742000D+01
EXPONENTS  0.2663000D+02 0.5948000D+01 0.1742000D+01 0.2663000D+02 0.5948000D+01
EXPONENTS  0.1742000D+01 0.5550000D+00 0.5550000D+00 0.5550000D+00 0.1725000D+00
EXPONENTS  0.1725000D+00 0.1725000D+00 0.4910000D-01 0.4910000D-01 0.4910000D-01
EXPONENTS  0.1654000D+01 0.1654000D+01 0.1654000D+01 0.1654000D+01 0.1654000D+01
EXPONENTS  0.1654000D+01 0.4690000D+00 0.4690000D+00 0.4690000D+00 0.4690000D+00
EXPONENTS  0.4690000D+00 0.4690000D+00 0.1510000D+00 0.1510000D+00 0.1510000D+00
EXPONENTS  0.1510000D+00 0.1510000D+00 0.1510000D+00 0.1093000D+01 0.1093000D+01
EXPONENTS  0.1093000D+01 0.1093000D+01 0.1093000D+01 0.1093000D+01 0.1093000D+01
EXPONENTS  0.1093000D+01 0.1093000D+01 0.1093000D+01 0.3640000D+00 0.3640000D+00
EXPONENTS  0.3640000D+00 0.3640000D+00 0.3640000D+00 0.3640000D+00 0.3640000D+00
EXPONENTS  0.3640000D+00 0.3640000D+00 0.3640000D+00
MO    1     MO 0.0        OCC NO =    2.0000000  ORB. ENERGY =  -76.409322
  0.17045119D-03  0.31761069D-03  0.53715930D-03  0.80893214D-03  0.10015105D-02
  0.85224021D-03  0.32429312D-03 -0.15188030D-05 -0.12043615D-03 -0.22581891D-03
 -0.38418516D-03 -0.59659898D-03 -0.79172155D-03 -0.83436583D-03 -0.51736004D-03
  0.34414810D-03  0.14867612D-03 -0.74308002D-03 -0.15481300D-03 -0.14653260D-03
 -0.14074281D-03 -0.98698577D-04 -0.39348189D-03 -0.37793465D-03 -0.26503386D-03
  0.28235724D-15  0.27120075D-15  0.19018469D-15  0.36343686D-04  0.23798532D-03
 -0.84671703D-16  0.75682688D-03  0.74341209D-03 -0.48664012D-17 -0.28587201D-04
  0.21223398D-04  0.73561017D-18  0.22921083D-04  0.22899532D-03 -0.25191640D-03
  0.76449103D-03 -0.21514037D-17 -0.12254932D-16 -0.15781465D-04 -0.22797629D-03
  0.24375775D-03 -0.70304831D-03  0.89213581D-18 -0.15811557D-18  0.21891827D-04
 -0.96028504D-04  0.74136677D-04 -0.25073420D-03 -0.25184979D-18  0.22893510D-18
 -0.50931816D-04 -0.10456815D-04  0.36199719D-18  0.68278214D-04 -0.14918964D-04
 -0.16181298D-17  0.84517233D-04  0.46289409D-04  0.53213826D-18 -0.30089667D-17
 -0.36135723D-04  0.95326315D-05 -0.10513033D-18  0.23626797D-03  0.12202678D-03
  0.45796530D-18 -0.12786080D-03 -0.15062468D-03 -0.14257431D-18  0.73076063D-18
  0.54266537D+00  0.10153187D+01  0.17531556D+01  0.28353004D+01  0.42793098D+01
  0.58627869D+01  0.67752126D+01  0.56937199D+01  0.25009312D+01  0.28585232D+00
 -0.38526156D-02  0.23962193D-02  0.11786998D-03 -0.18865881D-02 -0.35286655D-02
 -0.61096935D-02 -0.99207141D-02 -0.15235899D-01 -0.21668946D-01 -0.27570253D-01
 -0.28572488D-01 -0.19067106D-01  0.18778669D-02  0.14343843D-01  0.73649765D-02
 -0.32306183D-04  0.91688446D-03  0.17134013D-02  0.29710986D-02  0.48179542D-02
  0.74263613D-02  0.10567306D-01  0.13607494D-01  0.14304904D-01  0.10028177D-01
 -0.11643610D-02 -0.94262426D-02 -0.88713751D-02  0.43262080D-02 -0.34365683D-02
  0.87016315D-03 -0.17632237D-03  0.18577206D-01  0.24302531D-01  0.26587821D-01
  0.21900992D-01  0.11709961D-01  0.32355758D-02 -0.26520561D-05 -0.37807354D-03
 -0.49459235D-03 -0.54110136D-03 -0.44571749D-03 -0.23831497D-03 -0.65848739D-04
  0.53973253D-07  0.20402491D-16  0.26690352D-16  0.29200181D-16  0.24052852D-16
  0.12860511D-16  0.35534841D-17 -0.29126313D-20 -0.16022226D-01 -0.21219936D-01
 -0.23442329D-01 -0.20078426D-01 -0.10953541D-01 -0.33668314D-02  0.14658005D-02
  0.32620680D-03  0.43203031D-03  0.47727744D-03  0.40878958D-03  0.22301019D-03
  0.68547484D-04 -0.29843174D-04  0.57014629D-17  0.75510529D-17  0.83418850D-17
  0.71448500D-17  0.38977860D-17  0.11980772D-17 -0.52160088D-18 -0.49278913D-03
  0.97247841D-05 -0.14274491D-17  0.49038377D-04 -0.11350471D-05  0.22428170D-18
 -0.44684644D-05  0.10186148D-06  0.17268027D-19 -0.96909098D-04  0.20632320D-03
 -0.10941411D-03  0.12720153D-04  0.10498195D-18  0.12972546D-18  0.70612392D-04
  0.43141550D-03 -0.50202789D-03  0.14974833D-04 -0.78930190D-18 -0.10163670D-17
  0.96880676D-05 -0.27766319D-04  0.18078252D-04 -0.15222623D-05  0.81367543D-19
  0.72526871D-19 -0.99902475D-04 -0.94753633D-05  0.21054593D-18  0.45683174D-03
  0.25354523D-04 -0.17474347D-18 -0.15712432D-03  0.30715668D-05 -0.45689432D-18
 -0.45656574D-19  0.32561076D-05  0.69891513D-06 -0.52984364D-20 -0.33769062D-04
 -0.16581430D-05  0.69712501D-19  0.24000739D-04 -0.43860243D-06 -0.53817192D-19
  0.10529929D-18  0.17139995D-03  0.31937857D-03  0.54014923D-03  0.81343481D-03
  0.10070851D-02  0.85698394D-03  0.32609820D-03 -0.15272570D-05 -0.12110086D-03
 -0.22706524D-03 -0.38630553D-03 -0.59989170D-03 -0.79609117D-03 -0.83897082D-03
 -0.52021543D-03  0.34604750D-03  0.14930548D-03 -0.74803222D-03 -0.15564679D-03
 -0.12789017D-03 -0.12283698D-03 -0.86141766D-04  0.39943023D-03  0.38364796D-03
  0.26904043D-03  0.27515949D-18  0.26428740D-18  0.18533657D-18  0.25319186D-04
 -0.23957383D-03 -0.34068746D-18  0.71976138D-03 -0.77268721D-03  0.63138827D-18
 -0.29494688D-04 -0.20250287D-04  0.74054160D-19 -0.58301396D-05  0.25895604D-03
 -0.25312590D-03 -0.74624321D-03  0.26810583D-18 -0.92056742D-18  0.10698962D-04
 -0.25557297D-03  0.24487401D-03  0.68388300D-03 -0.56836140D-19  0.28226048D-18
  0.31200367D-04 -0.10571505D-03  0.74514679D-04  0.24023334D-03  0.49019695D-19
  0.39416364D-19 -0.49957146D-04  0.75820502D-05  0.28821429D-18  0.67860150D-04
  0.26848040D-04 -0.57439150D-18  0.82011288D-04 -0.49594191D-04 -0.29025138D-18
  0.49089764D-18 -0.41365742D-04 -0.19673202D-04 -0.11406152D-18  0.24451577D-03
 -0.96616212D-04  0.20496801D-18 -0.12041854D-03  0.15563582D-03  0.13721656D-18
 -0.31802016D-18 -0.32339122D-01 -0.60506009D-01 -0.10447601D+00 -0.16896439D+00
 -0.25501742D+00 -0.34938176D+00 -0.40375605D+00 -0.33930653D+00 -0.14903829D+00
 -0.17034831D-01  0.22958938D-03 -0.14279818D-03 -0.70242397D-05  0.11291970D-03
  0.21120447D-03  0.36568913D-03  0.59379367D-03  0.91192832D-03  0.12969714D-02
  0.16501878D-02  0.17101755D-02  0.11412411D-02 -0.11239770D-03 -0.85853529D-03
 -0.44082274D-03  0.19336518D-05 -0.54066701D-04 -0.10103558D-03 -0.17519928D-03
 -0.28410438D-03 -0.43791653D-03 -0.62313130D-03 -0.80240461D-03 -0.84352940D-03
 -0.59133997D-03  0.68659862D-04  0.55584522D-03  0.52312588D-03 -0.25510716D-03
  0.19475781D-03 -0.13170562D-03  0.84926163D-04  0.23770651D-02  0.31096548D-02
  0.34020714D-02  0.28023635D-02  0.14983598D-02  0.41401136D-03 -0.33934651D-06
  0.14171055D-03  0.18538444D-03  0.20281707D-03  0.16706503D-03  0.89325860D-04
  0.24681602D-04 -0.20230400D-07 -0.68890599D-17 -0.90122051D-17 -0.98596682D-17
 -0.81216328D-17 -0.43424518D-17 -0.11998616D-17  0.98347262D-21 -0.20108861D-02
 -0.26632300D-02 -0.29421537D-02 -0.25199636D-02 -0.13747355D-02 -0.42255766D-03
  0.18396681D-03 -0.90557332D-04 -0.11993469D-03 -0.13249562D-03 -0.11348290D-03
 -0.61909217D-04 -0.19029270D-04  0.82846779D-05  0.47211742D-17  0.62527525D-17
  0.69076118D-17  0.59163906D-17  0.32276150D-17  0.99208421D-18 -0.43191873D-18
 -0.12591260D-03 -0.46233250D-05  0.22616376D-18  0.85147273D-05  0.52911405D-04
  0.33956756D-18 -0.21308282D-05 -0.66979979D-05  0.13398512D-19 -0.13971075D-04
  0.20926099D-04 -0.69550245D-05  0.48405363D-04  0.11047435D-18 -0.19553024D-18
  0.14371082D-04 -0.36578472D-04  0.22207389D-04 -0.63864436D-04  0.11830512D-17
  0.31931256D-18 -0.37089809D-05  0.39275448D-05 -0.21856391D-06 -0.26192463D-05
 -0.10420349D-18  0.22154109D-19 -0.21012212D-04 -0.61625772D-05  0.25156006D-18
  0.86334071D-04 -0.19917308D-04 -0.62592506D-18 -0.23297435D-04  0.38405039D-04
 -0.12875513D-18  0.11887227D-18  0.34399263D-05  0.21697571D-05  0.40505645D-20
 -0.23521068D-04 -0.56193013D-05 -0.79792492D-20  0.13201289D-04 -0.88997018D-06
 -0.41724443D-20  0.34109141D-19 -0.29248977D-01 -0.54724394D-01 -0.94492867D-01
 -0.15281910D+00 -0.23064938D+00 -0.31599679D+00 -0.36517538D+00 -0.30688430D+00
 -0.13479703D+00 -0.15407078D-01  0.20765111D-03 -0.12915319D-03 -0.63530427D-05
  0.10217470D-03  0.19110708D-03  0.33089158D-03  0.53729058D-03  0.82515278D-03
  0.11735567D-02  0.14931624D-02  0.15474419D-02  0.10326451D-02 -0.10170237D-03
 -0.77684042D-03 -0.39887577D-03  0.17496530D-05 -0.48849018D-04 -0.91285189D-04
 -0.15829175D-03 -0.25668701D-03 -0.39565559D-03 -0.56299629D-03 -0.72496891D-03
 -0.76212497D-03 -0.53427297D-03  0.62033873D-04  0.50220362D-03  0.47264184D-03
 -0.23048816D-03  0.17524269D-03 -0.12633786D-03  0.83517572D-04  0.23267065D-02
  0.30437762D-02  0.33299978D-02  0.27429949D-02  0.14666168D-02  0.40524044D-03
 -0.33215739D-06 -0.14191320D-03 -0.18564955D-03 -0.20310711D-03 -0.16730395D-03
 -0.89453602D-04 -0.24716898D-04  0.20259331D-07 -0.91338661D-17 -0.11948840D-16
 -0.13072450D-16 -0.10768074D-16 -0.57574434D-17 -0.15908375D-17  0.13039380D-20
 -0.19688533D-02 -0.26075616D-02 -0.28806551D-02 -0.24672899D-02 -0.13460000D-02
 -0.41372511D-03  0.18012143D-03  0.89390462D-04  0.11838928D-03  0.13078836D-03
  0.11202063D-03  0.61111490D-04  0.18784070D-04 -0.81779263D-05  0.62126265D-17
  0.82280412D-17  0.90897752D-17  0.77854202D-17  0.42472413D-17  0.13054906D-17
 -0.56836490D-18 -0.12464949D-03  0.69550877D-05  0.62491888D-18  0.59448419D-05
 -0.52810321D-04 -0.38177992D-18 -0.18115459D-05  0.67326404D-05 -0.25222818D-19
 -0.15154482D-04  0.22659402D-04 -0.75049195D-05 -0.43660586D-04  0.15841087D-19
 -0.38466283D-18  0.18796343D-04 -0.38184591D-04  0.19388248D-04  0.60626037D-04
  0.16741094D-19  0.11489325D-18 -0.37057138D-05  0.38258870D-05 -0.12017318D-06
  0.31055229D-05  0.26830353D-19 -0.52603901D-19 -0.20620634D-04  0.27047679D-05
  0.34750962D-19  0.86576610D-04  0.30030991D-04  0.17035375D-20 -0.24714709D-04
 -0.38145294D-04 -0.10595642D-18 -0.32935955D-18  0.36433849D-05 -0.12242891D-05
  0.33987389D-19 -0.24135249D-04  0.31625456D-05 -0.59741632D-19  0.13205094D-04
  0.51032161D-06 -0.42220534D-19 -0.15833449D-19 -0.51136858D-05 -0.95286006D-05
 -0.16115252D-04 -0.24268677D-04 -0.30046197D-04 -0.25567957D-04 -0.97290794D-05
  0.45565429D-07  0.25363661D-05  0.47557102D-05  0.80908780D-05  0.12564279D-04
  0.16673529D-04  0.17571611D-04  0.10895520D-04 -0.72477040D-05  0.33844159D-04
  0.16347574D-03 -0.19745792D-05 -0.49892918D-04 -0.47921551D-04 -0.33605899D-04
 -0.66542604D-06 -0.63913376D-06 -0.44820471D-06  0.32231616D-18  0.30958081D-18
  0.21709944D-18  0.49033048D-04 -0.23622728D-06 -0.31352339D-18  0.45367870D-04
  0.45354926D-05  0.61633257D-18 -0.97186177D-05  0.12366319D-06  0.43038237D-19
  0.67968348D-04 -0.39073038D-04 -0.28895310D-04 -0.13352224D-05  0.27056017D-18
  0.29431587D-18 -0.26044580D-04 -0.13184290D-04  0.39228870D-04 -0.24533589D-05
 -0.15214982D-18 -0.17585256D-18 -0.11007379D-04  0.65252925D-05  0.44820866D-05
 -0.52462299D-06 -0.80314233D-19 -0.23030837D-18 -0.21054982D-04 -0.18528687D-05
  0.34985725D-18  0.81689721D-04  0.46566118D-05 -0.56173396D-18 -0.18524774D-04
  0.90199444D-06 -0.48783780D-18 -0.38849169D-18  0.42313623D-05  0.58778434D-06
 -0.10409733D-18 -0.10149574D-04 -0.82510198D-06  0.65376353D-19 -0.25445129D-05
 -0.93825104D-06  0.24691563D-18  0.31132827D-18
MO    2     MO 0.0        OCC NO =    2.0000000  ORB. ENERGY =  -76.409314
  0.16132091D-03  0.30059777D-03  0.50838618D-03  0.76560142D-03  0.94786423D-03
  0.80658968D-03  0.30692225D-03 -0.14374478D-05 -0.11355308D-03 -0.21291309D-03
 -0.36222851D-03 -0.56250263D-03 -0.74647371D-03 -0.78668082D-03 -0.48779229D-03
  0.32447962D-03  0.12535498D-03 -0.76005664D-03 -0.14388969D-03  0.34164601D-03
  0.32814691D-03  0.23011926D-03 -0.81723582D-04 -0.78494524D-04 -0.55045778D-04
 -0.45302400D-15 -0.43512414D-15 -0.30513908D-15 -0.18154177D-03  0.81464356D-04
  0.10756719D-15 -0.85214377D-03 -0.18341947D-03  0.35425523D-16 -0.58391712D-05
  0.35760206D-04 -0.74881315D-17  0.45877729D-03 -0.23498281D-03 -0.22379448D-03
  0.20289478D-03  0.16598983D-17 -0.10630828D-17 -0.41939940D-03  0.20736096D-03
  0.21203844D-03 -0.13958235D-03 -0.67697581D-18  0.45168782D-18 -0.15353587D-03
  0.86059739D-04  0.67476130D-04 -0.20689308D-04 -0.10802657D-18 -0.23440737D-18
  0.92586945D-06  0.43702099D-05 -0.21333900D-18  0.69762578D-04  0.18456346D-04
  0.13356751D-17 -0.72540186D-04 -0.31566975D-04 -0.69565804D-18  0.12940962D-17
 -0.10855816D-03  0.11258203D-04  0.60404992D-19  0.16221714D-03 -0.49750724D-04
 -0.38897832D-18  0.16345736D-03  0.15976114D-04  0.20776334D-18 -0.18394691D-18
  0.15738664D-01  0.29446803D-01  0.50845933D-01  0.82230861D-01  0.12411078D+00
  0.17003560D+00  0.19649825D+00  0.16513223D+00  0.72533313D-01  0.82904380D-02
 -0.11173557D-03  0.69496401D-04  0.34185266D-05 -0.54483947D-04 -0.10190652D-03
 -0.17644563D-03 -0.28650645D-03 -0.44000696D-03 -0.62579091D-03 -0.79621842D-03
 -0.82516259D-03 -0.55065078D-03  0.54232081D-04  0.41424473D-03  0.21269772D-03
 -0.93299027D-06  0.26865912D-04  0.50204895D-04  0.87057068D-04  0.14117235D-03
  0.21760208D-03  0.30963588D-03  0.39871735D-03  0.41915238D-03  0.29383867D-03
 -0.34117299D-04 -0.27620122D-03 -0.25994287D-03  0.12676354D-03 -0.10444656D-03
 -0.12764050D-04  0.30276181D-04  0.36987896D-03  0.48387226D-03  0.52937321D-03
  0.43605675D-03  0.23314959D-03  0.64421495D-04 -0.52803406D-07 -0.25132566D-02
 -0.32878193D-02 -0.35969895D-02 -0.29629220D-02 -0.15842068D-02 -0.43773171D-03
  0.35878902D-06  0.14957519D-17  0.19567290D-17  0.21407300D-17  0.17633680D-17
  0.94283263D-18  0.26051380D-18 -0.21353146D-21 -0.34202163D-03 -0.45297558D-03
 -0.50041633D-03 -0.42860812D-03 -0.23382195D-03 -0.71870736D-04  0.31290002D-04
  0.21461241D-02  0.28423401D-02  0.31400223D-02  0.26894387D-02  0.14671906D-02
  0.45097591D-03 -0.19633912D-03 -0.14636938D-17 -0.19385251D-17 -0.21415495D-17
 -0.18342437D-17 -0.10006494D-17 -0.30757337D-18  0.13390668D-18  0.74468358D-05
  0.13447220D-03  0.22610011D-18 -0.20274786D-04  0.26144223D-04 -0.19604957D-18
  0.29493510D-05 -0.21674735D-05 -0.92094070D-20  0.99083381D-05 -0.32649945D-06
 -0.95818387D-05 -0.11298158D-04 -0.92670104D-19 -0.12234117D-18 -0.19872825D-04
  0.38104421D-04 -0.18231596D-04  0.22314531D-04  0.31736736D-18  0.10584226D-17
  0.68382689D-06 -0.16170508D-05  0.93322389D-06 -0.10305936D-04 -0.72562816D-19
 -0.42731794D-19 -0.15727120D-04 -0.20631528D-04 -0.10814912D-18  0.65016512D-04
  0.10615730D-04  0.14844880D-18 -0.17835153D-04  0.51278853D-04  0.17599854D-18
 -0.37429626D-19  0.43611826D-05  0.20432585D-05  0.12298361D-21 -0.11256561D-04
  0.88571963D-05 -0.34719414D-19 -0.18269863D-05 -0.14986972D-04  0.34350463D-19
 -0.64267097D-22 -0.63066764D-04 -0.11751563D-03 -0.19874839D-03 -0.29930406D-03
 -0.37055784D-03 -0.31532800D-03 -0.11998812D-03  0.56195556D-06  0.43617299D-04
  0.81782844D-04  0.13913695D-03  0.21606499D-03  0.28673081D-03  0.30217492D-03
  0.18736773D-03 -0.12463708D-03 -0.21432869D-04  0.39876489D-03  0.51493127D-04
 -0.14959552D-03 -0.14368471D-03 -0.10076163D-03  0.31502703D-04  0.30257970D-04
  0.21218977D-04 -0.16022314D-18 -0.15389242D-18 -0.10791998D-18  0.68628467D-04
 -0.15026565D-04 -0.15903623D-19  0.42690225D-03 -0.18966125D-03  0.18885143D-18
  0.44245691D-05  0.20287897D-04 -0.45697079D-19 -0.21229713D-03  0.15105493D-03
  0.61242193D-04  0.12342948D-03 -0.48558038D-18  0.48243570D-18  0.17725200D-03
 -0.12786426D-03 -0.49387748D-04 -0.39229840D-04  0.25404211D-18 -0.13395403D-18