 Molden2AIM, Version 4.0.0 (06/02/2016)           Time: Thu Jun 28 22:58:38 2018
GAUSSIAN             46 MOL ORBITALS    730 PRIMITIVES        6 NUCLEI
  N    1    (CENTRE  1)  -0.00019842  0.00000000  0.00000378  CHARGE =  7.0
  Cl   2    (CENTRE  2)  -1.63050672  2.82382720 -0.00000189  CHARGE = 17.0
  Cl   3    (CENTRE  3)  -1.63050672 -2.82382720 -0.00000189  CHARGE = 17.0
  Cl   4    (CENTRE  4)   3.26059204  0.00000000 -0.00000189  CHARGE = 17.0
  Cl   5    (CENTRE  5)   0.00030992  0.00000000  4.53941884  CHARGE = 17.0
  Cl   6    (CENTRE  6)   0.00030992  0.00000000 -4.53941884  CHARGE = 17.0
CENTRE ASSIGNMENTS    1  1  1  1  1  1  1  1  1  1  1  1  1  1  1  1  1  1  1  1
CENTRE ASSIGNMENTS    1  1  1  1  1  1  1  1  1  1  1  1  1  1  1  1  1  1  1  1
CENTRE ASSIGNMENTS    1  1  1  1  1  1  1  1  1  1  1  1  1  1  1  1  1  1  1  1
CENTRE ASSIGNMENTS    1  1  1  1  1  1  1  1  1  1  1  1  1  1  1  2  2  2  2  2
CENTRE ASSIGNMENTS    2  2  2  2  2  2  2  2  2  2  2  2  2  2  2  2  2  2  2  2
CENTRE ASSIGNMENTS    2  2  2  2  2  2  2  2  2  2  2  2  2  2  2  2  2  2  2  2
CENTRE ASSIGNMENTS    2  2  2  2  2  2  2  2  2  2  2  2  2  2  2  2  2  2  2  2
CENTRE ASSIGNMENTS    2  2  2  2  2  2  2  2  2  2  2  2  2  2  2  2  2  2  2  2
CENTRE ASSIGNMENTS    2  2  2  2  2  2  2  2  2  2  2  2  2  2  2  2  2  2  2  2
CENTRE ASSIGNMENTS    2  2  2  2  2  2  2  2  2  2  2  2  2  2  2  2  2  2  2  2
CENTRE ASSIGNMENTS    2  2  2  2  2  2  3  3  3  3  3  3  3  3  3  3  3  3  3  3
CENTRE ASSIGNMENTS    3  3  3  3  3  3  3  3  3  3  3  3  3  3  3  3  3  3  3  3
CENTRE ASSIGNMENTS    3  3  3  3  3  3  3  3  3  3  3  3  3  3  3  3  3  3  3  3
CENTRE ASSIGNMENTS    3  3  3  3  3  3  3  3  3  3  3  3  3  3  3  3  3  3  3  3
CENTRE ASSIGNMENTS    3  3  3  3  3  3  3  3  3  3  3  3  3  3  3  3  3  3  3  3
CENTRE ASSIGNMENTS    3  3  3  3  3  3  3  3  3  3  3  3  3  3  3  3  3  3  3  3
CENTRE ASSIGNMENTS    3  3  3  3  3  3  3  3  3  3  3  3  3  3  3  3  3  4  4  4
CENTRE ASSIGNMENTS    4  4  4  4  4  4  4  4  4  4  4  4  4  4  4  4  4  4  4  4
CENTRE ASSIGNMENTS    4  4  4  4  4  4  4  4  4  4  4  4  4  4  4  4  4  4  4  4
CENTRE ASSIGNMENTS    4  4  4  4  4  4  4  4  4  4  4  4  4  4  4  4  4  4  4  4
CENTRE ASSIGNMENTS    4  4  4  4  4  4  4  4  4  4  4  4  4  4  4  4  4  4  4  4
CENTRE ASSIGNMENTS    4  4  4  4  4  4  4  4  4  4  4  4  4  4  4  4  4  4  4  4
CENTRE ASSIGNMENTS    4  4  4  4  4  4  4  4  4  4  4  4  4  4  4  4  4  4  4  4
CENTRE ASSIGNMENTS    4  4  4  4  4  4  4  4  5  5  5  5  5  5  5  5  5  5  5  5
CENTRE ASSIGNMENTS    5  5  5  5  5  5  5  5  5  5  5  5  5  5  5  5  5  5  5  5
CENTRE ASSIGNMENTS    5  5  5  5  5  5  5  5  5  5  5  5  5  5  5  5  5  5  5  5
CENTRE ASSIGNMENTS    5  5  5  5  5  5  5  5  5  5  5  5  5  5  5  5  5  5  5  5
CENTRE ASSIGNMENTS    5  5  5  5  5  5  5  5  5  5  5  5  5  5  5  5  5  5  5  5
CENTRE ASSIGNMENTS    5  5  5  5  5  5  5  5  5  5  5  5  5  5  5  5  5  5  5  5
CENTRE ASSIGNMENTS    5  5  5  5  5  5  5  5  5  5  5  5  5  5  5  5  5  5  5  6
CENTRE ASSIGNMENTS    6  6  6  6  6  6  6  6  6  6  6  6  6  6  6  6  6  6  6  6
CENTRE ASSIGNMENTS    6  6  6  6  6  6  6  6  6  6  6  6  6  6  6  6  6  6  6  6
CENTRE ASSIGNMENTS    6  6  6  6  6  6  6  6  6  6  6  6  6  6  6  6  6  6  6  6
CENTRE ASSIGNMENTS    6  6  6  6  6  6  6  6  6  6  6  6  6  6  6  6  6  6  6  6
CENTRE ASSIGNMENTS    6  6  6  6  6  6  6  6  6  6  6  6  6  6  6  6  6  6  6  6
CENTRE ASSIGNMENTS    6  6  6  6  6  6  6  6  6  6  6  6  6  6  6  6  6  6  6  6
CENTRE ASSIGNMENTS    6  6  6  6  6  6  6  6  6  6
TYPE ASSIGNMENTS      1  1  1  1  1  1  1  1  1  1  1  1  1  1  1  1  1  1  1  2
TYPE ASSIGNMENTS      2  2  3  3  3  4  4  4  2  3  4  2  3  4  2  3  4  5  6  7
TYPE ASSIGNMENTS      8  9 10  5  6  7  8  9 10  5  6  7  8  9 10 11 12 13 17 14
TYPE ASSIGNMENTS     15 18 19 16 20 11 12 13 17 14 15 18 19 16 20  1  1  1  1  1
TYPE ASSIGNMENTS      1  1  1  1  1  1  1  1  1  1  1  1  1  1  1  1  1  1  1  1
TYPE ASSIGNMENTS      1  1  1  1  1  1  1  1  1  1  1  1  1  1  1  1  1  2  2  2
TYPE ASSIGNMENTS      2  2  2  2  3  3  3  3  3  3  3  4  4  4  4  4  4  4  2  2
TYPE ASSIGNMENTS      2  2  2  2  2  3  3  3  3  3  3  3  4  4  4  4  4  4  4  2
TYPE ASSIGNMENTS      3  4  2  3  4  2  3  4  5  6  7  8  9 10  5  6  7  8  9 10
TYPE ASSIGNMENTS      5  6  7  8  9 10 11 12 13 17 14 15 18 19 16 20 11 12 13 17
TYPE ASSIGNMENTS     14 15 18 19 16 20  1  1  1  1  1  1  1  1  1  1  1  1  1  1
TYPE ASSIGNMENTS      1  1  1  1  1  1  1  1  1  1  1  1  1  1  1  1  1  1  1  1
TYPE ASSIGNMENTS      1  1  1  1  1  1  1  1  2  2  2  2  2  2  2  3  3  3  3  3
TYPE ASSIGNMENTS      3  3  4  4  4  4  4  4  4  2  2  2  2  2  2  2  3  3  3  3
TYPE ASSIGNMENTS      3  3  3  4  4  4  4  4  4  4  2  3  4  2  3  4  2  3  4  5
TYPE ASSIGNMENTS      6  7  8  9 10  5  6  7  8  9 10  5  6  7  8  9 10 11 12 13
TYPE ASSIGNMENTS     17 14 15 18 19 16 20 11 12 13 17 14 15 18 19 16 20  1  1  1
TYPE ASSIGNMENTS      1  1  1  1  1  1  1  1  1  1  1  1  1  1  1  1  1  1  1  1
TYPE ASSIGNMENTS      1  1  1  1  1  1  1  1  1  1  1  1  1  1  1  1  1  1  1  2
TYPE ASSIGNMENTS      2  2  2  2  2  2  3  3  3  3  3  3  3  4  4  4  4  4  4  4
TYPE ASSIGNMENTS      2  2  2  2  2  2  2  3  3  3  3  3  3  3  4  4  4  4  4  4
TYPE ASSIGNMENTS      4  2  3  4  2  3  4  2  3  4  5  6  7  8  9 10  5  6  7  8
TYPE ASSIGNMENTS      9 10  5  6  7  8  9 10 11 12 13 17 14 15 18 19 16 20 11 12
TYPE ASSIGNMENTS     13 17 14 15 18 19 16 20  1  1  1  1  1  1  1  1  1  1  1  1
TYPE ASSIGNMENTS      1  1  1  1  1  1  1  1  1  1  1  1  1  1  1  1  1  1  1  1
TYPE ASSIGNMENTS      1  1  1  1  1  1  1  1  1  1  2  2  2  2  2  2  2  3  3  3
TYPE ASSIGNMENTS      3  3  3  3  4  4  4  4  4  4  4  2  2  2  2  2  2  2  3  3
TYPE ASSIGNMENTS      3  3  3  3  3  4  4  4  4  4  4  4  2  3  4  2  3  4  2  3
TYPE ASSIGNMENTS      4  5  6  7  8  9 10  5  6  7  8  9 10  5  6  7  8  9 10 11
TYPE ASSIGNMENTS     12 13 17 14 15 18 19 16 20 11 12 13 17 14 15 18 19 16 20  1
TYPE ASSIGNMENTS      1  1  1  1  1  1  1  1  1  1  1  1  1  1  1  1  1  1  1  1
TYPE ASSIGNMENTS      1  1  1  1  1  1  1  1  1  1  1  1  1  1  1  1  1  1  1  1
TYPE ASSIGNMENTS      1  2  2  2  2  2  2  2  3  3  3  3  3  3  3  4  4  4  4  4
TYPE ASSIGNMENTS      4  4  2  2  2  2  2  2  2  3  3  3  3  3  3  3  4  4  4  4
TYPE ASSIGNMENTS      4  4  4  2  3  4  2  3  4  2  3  4  5  6  7  8  9 10  5  6
TYPE ASSIGNMENTS      7  8  9 10  5  6  7  8  9 10 11 12 13 17 14 15 18 19 16 20
TYPE ASSIGNMENTS     11 12 13 17 14 15 18 19 16 20
EXPONENTS  0.1142000D+05 0.1712000D+04 0.3893000D+03 0.1100000D+03 0.3557000D+02
EXPONENTS  0.1254000D+02 0.4644000D+01 0.5118000D+00 0.1142000D+05 0.1712000D+04
EXPONENTS  0.3893000D+03 0.1100000D+03 0.3557000D+02 0.1254000D+02 0.4644000D+01
EXPONENTS  0.5118000D+00 0.1293000D+01 0.1787000D+00 0.5760000D-01 0.2663000D+02
EXPONENTS  0.5948000D+01 0.1742000D+01 0.2663000D+02 0.5948000D+01 0.1742000D+01
EXPONENTS  0.2663000D+02 0.5948000D+01 0.1742000D+01 0.5550000D+00 0.5550000D+00
EXPONENTS  0.5550000D+00 0.1725000D+00 0.1725000D+00 0.1725000D+00 0.4910000D-01
EXPONENTS  0.4910000D-01 0.4910000D-01 0.1654000D+01 0.1654000D+01 0.1654000D+01
EXPONENTS  0.1654000D+01 0.1654000D+01 0.1654000D+01 0.4690000D+00 0.4690000D+00
EXPONENTS  0.4690000D+00 0.4690000D+00 0.4690000D+00 0.4690000D+00 0.1510000D+00
EXPONENTS  0.1510000D+00 0.1510000D+00 0.1510000D+00 0.1510000D+00 0.1510000D+00
EXPONENTS  0.1093000D+01 0.1093000D+01 0.1093000D+01 0.1093000D+01 0.1093000D+01
EXPONENTS  0.1093000D+01 0.1093000D+01 0.1093000D+01 0.1093000D+01 0.1093000D+01
EXPONENTS  0.3640000D+00 0.3640000D+00 0.3640000D+00 0.3640000D+00 0.3640000D+00
EXPONENTS  0.3640000D+00 0.3640000D+00 0.3640000D+00 0.3640000D+00 0.3640000D+00
EXPONENTS  0.4561000D+06 0.6833000D+05 0.1555000D+05 0.4405000D+04 0.1439000D+04
EXPONENTS  0.5204000D+03 0.2031000D+03 0.8396000D+02 0.3620000D+02 0.1583000D+02
EXPONENTS  0.6334000D+01 0.2694000D+01 0.4313000D+00 0.4561000D+06 0.6833000D+05
EXPONENTS  0.1555000D+05 0.4405000D+04 0.1439000D+04 0.5204000D+03 0.2031000D+03
EXPONENTS  0.8396000D+02 0.3620000D+02 0.1583000D+02 0.6334000D+01 0.2694000D+01
EXPONENTS  0.4313000D+00 0.4561000D+06 0.6833000D+05 0.1555000D+05 0.4405000D+04
EXPONENTS  0.1439000D+04 0.5204000D+03 0.2031000D+03 0.8396000D+02 0.3620000D+02
EXPONENTS  0.1583000D+02 0.6334000D+01 0.2694000D+01 0.4313000D+00 0.9768000D+00
EXPONENTS  0.1625000D+00 0.5910000D-01 0.6633000D+03 0.1568000D+03 0.4998000D+02
EXPONENTS  0.1842000D+02 0.7240000D+01 0.2922000D+01 0.3818000D+00 0.6633000D+03
EXPONENTS  0.1568000D+03 0.4998000D+02 0.1842000D+02 0.7240000D+01 0.2922000D+01
EXPONENTS  0.3818000D+00 0.6633000D+03 0.1568000D+03 0.4998000D+02 0.1842000D+02
EXPONENTS  0.7240000D+01 0.2922000D+01 0.3818000D+00 0.6633000D+03 0.1568000D+03
EXPONENTS  0.4998000D+02 0.1842000D+02 0.7240000D+01 0.2922000D+01 0.3818000D+00
EXPONENTS  0.6633000D+03 0.1568000D+03 0.4998000D+02 0.1842000D+02 0.7240000D+01
EXPONENTS  0.2922000D+01 0.3818000D+00 0.6633000D+03 0.1568000D+03 0.4998000D+02
EXPONENTS  0.1842000D+02 0.7240000D+01 0.2922000D+01 0.3818000D+00 0.1022000D+01
EXPONENTS  0.1022000D+01 0.1022000D+01 0.1301000D+00 0.1301000D+00 0.1301000D+00
EXPONENTS  0.4190000D-01 0.4190000D-01 0.4190000D-01 0.1046000D+01 0.1046000D+01
EXPONENTS  0.1046000D+01 0.1046000D+01 0.1046000D+01 0.1046000D+01 0.3440000D+00
EXPONENTS  0.3440000D+00 0.3440000D+00 0.3440000D+00 0.3440000D+00 0.3440000D+00
EXPONENTS  0.1350000D+00 0.1350000D+00 0.1350000D+00 0.1350000D+00 0.1350000D+00
EXPONENTS  0.1350000D+00 0.7060000D+00 0.7060000D+00 0.7060000D+00 0.7060000D+00
EXPONENTS  0.7060000D+00 0.7060000D+00 0.7060000D+00 0.7060000D+00 0.7060000D+00
EXPONENTS  0.7060000D+00 0.3120000D+00 0.3120000D+00 0.3120000D+00 0.3120000D+00
EXPONENTS  0.3120000D+00 0.3120000D+00 0.3120000D+00 0.3120000D+00 0.3120000D+00
EXPONENTS  0.3120000D+00 0.4561000D+06 0.6833000D+05 0.1555000D+05 0.4405000D+04
EXPONENTS  0.1439000D+04 0.5204000D+03 0.2031000D+03 0.8396000D+02 0.3620000D+02
EXPONENTS  0.1583000D+02 0.6334000D+01 0.2694000D+01 0.4313000D+00 0.4561000D+06
EXPONENTS  0.6833000D+05 0.1555000D+05 0.4405000D+04 0.1439000D+04 0.5204000D+03
EXPONENTS  0.2031000D+03 0.8396000D+02 0.3620000D+02 0.1583000D+02 0.6334000D+01
EXPONENTS  0.2694000D+01 0.4313000D+00 0.4561000D+06 0.6833000D+05 0.1555000D+05
EXPONENTS  0.4405000D+04 0.1439000D+04 0.5204000D+03 0.2031000D+03 0.8396000D+02
EXPONENTS  0.3620000D+02 0.1583000D+02 0.6334000D+01 0.2694000D+01 0.4313000D+00
EXPONENTS  0.9768000D+00 0.1625000D+00 0.5910000D-01 0.6633000D+03 0.1568000D+03
EXPONENTS  0.4998000D+02 0.1842000D+02 0.7240000D+01 0.2922000D+01 0.3818000D+00
EXPONENTS  0.6633000D+03 0.1568000D+03 0.4998000D+02 0.1842000D+02 0.7240000D+01
EXPONENTS  0.2922000D+01 0.3818000D+00 0.6633000D+03 0.1568000D+03 0.4998000D+02
EXPONENTS  0.1842000D+02 0.7240000D+01 0.2922000D+01 0.3818000D+00 0.6633000D+03
EXPONENTS  0.1568000D+03 0.4998000D+02 0.1842000D+02 0.7240000D+01 0.2922000D+01
EXPONENTS  0.3818000D+00 0.6633000D+03 0.1568000D+03 0.4998000D+02 0.1842000D+02
EXPONENTS  0.7240000D+01 0.2922000D+01 0.3818000D+00 0.6633000D+03 0.1568000D+03
EXPONENTS  0.4998000D+02 0.1842000D+02 0.7240000D+01 0.2922000D+01 0.3818000D+00
EXPONENTS  0.1022000D+01 0.1022000D+01 0.1022000D+01 0.1301000D+00 0.1301000D+00
EXPONENTS  0.1301000D+00 0.4190000D-01 0.4190000D-01 0.4190000D-01 0.1046000D+01
EXPONENTS  0.1046000D+01 0.1046000D+01 0.1046000D+01 0.1046000D+01 0.1046000D+01
EXPONENTS  0.3440000D+00 0.3440000D+00 0.3440000D+00 0.3440000D+00 0.3440000D+00
EXPONENTS  0.3440000D+00 0.1350000D+00 0.1350000D+00 0.1350000D+00 0.1350000D+00
EXPONENTS  0.1350000D+00 0.1350000D+00 0.7060000D+00 0.7060000D+00 0.7060000D+00
EXPONENTS  0.7060000D+00 0.7060000D+00 0.7060000D+00 0.7060000D+00 0.7060000D+00
EXPONENTS  0.7060000D+00 0.7060000D+00 0.3120000D+00 0.3120000D+00 0.3120000D+00
EXPONENTS  0.3120000D+00 0.3120000D+00 0.3120000D+00 0.3120000D+00 0.3120000D+00
EXPONENTS  0.3120000D+00 0.3120000D+00 0.4561000D+06 0.6833000D+05 0.1555000D+05
EXPONENTS  0.4405000D+04 0.1439000D+04 0.5204000D+03 0.2031000D+03 0.8396000D+02
EXPONENTS  0.3620000D+02 0.1583000D+02 0.6334000D+01 0.2694000D+01 0.4313000D+00
EXPONENTS  0.4561000D+06 0.6833000D+05 0.1555000D+05 0.4405000D+04 0.1439000D+04
EXPONENTS  0.5204000D+03 0.2031000D+03 0.8396000D+02 0.3620000D+02 0.1583000D+02
EXPONENTS  0.6334000D+01 0.2694000D+01 0.4313000D+00 0.4561000D+06 0.6833000D+05
EXPONENTS  0.1555000D+05 0.4405000D+04 0.1439000D+04 0.5204000D+03 0.2031000D+03
EXPONENTS  0.8396000D+02 0.3620000D+02 0.1583000D+02 0.6334000D+01 0.2694000D+01
EXPONENTS  0.4313000D+00 0.9768000D+00 0.1625000D+00 0.5910000D-01 0.6633000D+03
EXPONENTS  0.1568000D+03 0.4998000D+02 0.1842000D+02 0.7240000D+01 0.2922000D+01
EXPONENTS  0.3818000D+00 0.6633000D+03 0.1568000D+03 0.4998000D+02 0.1842000D+02
EXPONENTS  0.7240000D+01 0.2922000D+01 0.3818000D+00 0.6633000D+03 0.1568000D+03
EXPONENTS  0.4998000D+02 0.1842000D+02 0.7240000D+01 0.2922000D+01 0.3818000D+00
EXPONENTS  0.6633000D+03 0.1568000D+03 0.4998000D+02 0.1842000D+02 0.7240000D+01
EXPONENTS  0.2922000D+01 0.3818000D+00 0.6633000D+03 0.1568000D+03 0.4998000D+02
EXPONENTS  0.1842000D+02 0.7240000D+01 0.2922000D+01 0.3818000D+00 0.6633000D+03
EXPONENTS  0.1568000D+03 0.4998000D+02 0.1842000D+02 0.7240000D+01 0.2922000D+01
EXPONENTS  0.3818000D+00 0.1022000D+01 0.1022000D+01 0.1022000D+01 0.1301000D+00
EXPONENTS  0.1301000D+00 0.1301000D+00 0.4190000D-01 0.4190000D-01 0.4190000D-01
EXPONENTS  0.1046000D+01 0.1046000D+01 0.1046000D+01 0.1046000D+01 0.1046000D+01
EXPONENTS  0.1046000D+01 0.3440000D+00 0.3440000D+00 0.3440000D+00 0.3440000D+00
EXPONENTS  0.3440000D+00 0.3440000D+00 0.1350000D+00 0.1350000D+00 0.1350000D+00
EXPONENTS  0.1350000D+00 0.1350000D+00 0.1350000D+00 0.7060000D+00 0.7060000D+00
EXPONENTS  0.7060000D+00 0.7060000D+00 0.7060000D+00 0.7060000D+00 0.7060000D+00
EXPONENTS  0.7060000D+00 0.7060000D+00 0.7060000D+00 0.3120000D+00 0.3120000D+00
EXPONENTS  0.3120000D+00 0.3120000D+00 0.3120000D+00 0.3120000D+00 0.3120000D+00
EXPONENTS  0.3120000D+00 0.3120000D+00 0.3120000D+00 0.4561000D+06 0.6833000D+05
EXPONENTS  0.1555000D+05 0.4405000D+04 0.1439000D+04 0.5204000D+03 0.2031000D+03
EXPONENTS  0.8396000D+02 0.3620000D+02 0.1583000D+02 0.6334000D+01 0.2694000D+01
EXPONENTS  0.4313000D+00 0.4561000D+06 0.6833000D+05 0.1555000D+05 0.4405000D+04
EXPONENTS  0.1439000D+04 0.5204000D+03 0.2031000D+03 0.8396000D+02 0.3620000D+02
EXPONENTS  0.1583000D+02 0.6334000D+01 0.2694000D+01 0.4313000D+00 0.4561000D+06
EXPONENTS  0.6833000D+05 0.1555000D+05 0.4405000D+04 0.1439000D+04 0.5204000D+03
EXPONENTS  0.2031000D+03 0.8396000D+02 0.3620000D+02 0.1583000D+02 0.6334000D+01
EXPONENTS  0.2694000D+01 0.4313000D+00 0.9768000D+00 0.1625000D+00 0.5910000D-01
EXPONENTS  0.6633000D+03 0.1568000D+03 0.4998000D+02 0.1842000D+02 0.7240000D+01
EXPONENTS  0.2922000D+01 0.3818000D+00 0.6633000D+03 0.1568000D+03 0.4998000D+02
EXPONENTS  0.1842000D+02 0.7240000D+01 0.2922000D+01 0.3818000D+00 0.6633000D+03
EXPONENTS  0.1568000D+03 0.4998000D+02 0.1842000D+02 0.7240000D+01 0.2922000D+01
EXPONENTS  0.3818000D+00 0.6633000D+03 0.1568000D+03 0.4998000D+02 0.1842000D+02
EXPONENTS  0.7240000D+01 0.2922000D+01 0.3818000D+00 0.6633000D+03 0.1568000D+03
EXPONENTS  0.4998000D+02 0.1842000D+02 0.7240000D+01 0.2922000D+01 0.3818000D+00
EXPONENTS  0.6633000D+03 0.1568000D+03 0.4998000D+02 0.1842000D+02 0.7240000D+01
EXPONENTS  0.2922000D+01 0.3818000D+00 0.1022000D+01 0.1022000D+01 0.1022000D+01
EXPONENTS  0.1301000D+00 0.1301000D+00 0.1301000D+00 0.4190000D-01 0.4190000D-01
EXPONENTS  0.4190000D-01 0.1046000D+01 0.1046000D+01 0.1046000D+01 0.1046000D+01
EXPONENTS  0.1046000D+01 0.1046000D+01 0.3440000D+00 0.3440000D+00 0.3440000D+00
EXPONENTS  0.3440000D+00 0.3440000D+00 0.3440000D+00 0.1350000D+00 0.1350000D+00
EXPONENTS  0.1350000D+00 0.1350000D+00 0.1350000D+00 0.1350000D+00 0.7060000D+00
EXPONENTS  0.7060000D+00 0.7060000D+00 0.7060000D+00 0.7060000D+00 0.7060000D+00
EXPONENTS  0.7060000D+00 0.7060000D+00 0.7060000D+00 0.7060000D+00 0.3120000D+00
EXPONENTS  0.3120000D+00 0.3120000D+00 0.3120000D+00 0.3120000D+00 0.3120000D+00
EXPONENTS  0.3120000D+00 0.3120000D+00 0.3120000D+00 0.3120000D+00 0.4561000D+06
EXPONENTS  0.6833000D+05 0.1555000D+05 0.4405000D+04 0.1439000D+04 0.5204000D+03
EXPONENTS  0.2031000D+03 0.8396000D+02 0.3620000D+02 0.1583000D+02 0.6334000D+01
EXPONENTS  0.2694000D+01 0.4313000D+00 0.4561000D+06 0.6833000D+05 0.1555000D+05
EXPONENTS  0.4405000D+04 0.1439000D+04 0.5204000D+03 0.2031000D+03 0.8396000D+02
EXPONENTS  0.3620000D+02 0.1583000D+02 0.6334000D+01 0.2694000D+01 0.4313000D+00
EXPONENTS  0.4561000D+06 0.6833000D+05 0.1555000D+05 0.4405000D+04 0.1439000D+04
EXPONENTS  0.5204000D+03 0.2031000D+03 0.8396000D+02 0.3620000D+02 0.1583000D+02
EXPONENTS  0.6334000D+01 0.2694000D+01 0.4313000D+00 0.9768000D+00 0.1625000D+00
EXPONENTS  0.5910000D-01 0.6633000D+03 0.1568000D+03 0.4998000D+02 0.1842000D+02
EXPONENTS  0.7240000D+01 0.2922000D+01 0.3818000D+00 0.6633000D+03 0.1568000D+03
EXPONENTS  0.4998000D+02 0.1842000D+02 0.7240000D+01 0.2922000D+01 0.3818000D+00
EXPONENTS  0.6633000D+03 0.1568000D+03 0.4998000D+02 0.1842000D+02 0.7240000D+01
EXPONENTS  0.2922000D+01 0.3818000D+00 0.6633000D+03 0.1568000D+03 0.4998000D+02
EXPONENTS  0.1842000D+02 0.7240000D+01 0.2922000D+01 0.3818000D+00 0.6633000D+03
EXPONENTS  0.1568000D+03 0.4998000D+02 0.1842000D+02 0.7240000D+01 0.2922000D+01
EXPONENTS  0.3818000D+00 0.6633000D+03 0.1568000D+03 0.4998000D+02 0.1842000D+02
EXPONENTS  0.7240000D+01 0.2922000D+01 0.3818000D+00 0.1022000D+01 0.1022000D+01
EXPONENTS  0.1022000D+01 0.1301000D+00 0.1301000D+00 0.1301000D+00 0.4190000D-01
EXPONENTS  0.4190000D-01 0.4190000D-01 0.1046000D+01 0.1046000D+01 0.1046000D+01
EXPONENTS  0.1046000D+01 0.1046000D+01 0.1046000D+01 0.3440000D+00 0.3440000D+00
EXPONENTS  0.3440000D+00 0.3440000D+00 0.3440000D+00 0.3440000D+00 0.1350000D+00
EXPONENTS  0.1350000D+00 0.1350000D+00 0.1350000D+00 0.1350000D+00 0.1350000D+00
EXPONENTS  0.7060000D+00 0.7060000D+00 0.7060000D+00 0.7060000D+00 0.7060000D+00
EXPONENTS  0.7060000D+00 0.7060000D+00 0.7060000D+00 0.7060000D+00 0.7060000D+00
EXPONENTS  0.3120000D+00 0.3120000D+00 0.3120000D+00 0.3120000D+00 0.3120000D+00
EXPONENTS  0.3120000D+00 0.3120000D+00 0.3120000D+00 0.3120000D+00 0.3120000D+00
MO    1     MO 0.0        OCC NO =    2.0000000  ORB. ENERGY = -100.801406
  0.10562380D-03  0.19681439D-03  0.33286247D-03  0.50127244D-03  0.62060780D-03
  0.52810923D-03  0.20095530D-03 -0.94115942D-06 -0.76737230D-04 -0.14388302D-03
 -0.24478783D-03 -0.38012966D-03 -0.50445417D-03 -0.53162545D-03 -0.32964169D-03
  0.21927778D-03  0.62994074D-04  0.28759133D-03  0.98495274D-03 -0.27315810D-04
 -0.26236509D-04 -0.18398851D-04 -0.71932705D-11 -0.69090504D-11 -0.48451030D-11
  0.19082571D-09  0.18328582D-09  0.12853267D-09 -0.91728348D-04 -0.24165868D-10
 -0.66742943D-09 -0.30721531D-03 -0.80942193D-10 -0.26621413D-09 -0.32099782D-05
 -0.84767221D-12 -0.31693508D-09  0.49585748D-04  0.18629014D-03 -0.23587589D-03
  0.35997466D-10  0.20981165D-09  0.56536030D-16 -0.48661376D-04 -0.42678871D-04
  0.91340247D-04  0.15842153D-11  0.21142643D-09  0.54750031D-16  0.44118740D-05
  0.14337322D-04 -0.18749196D-04  0.26184068D-11 -0.67317696D-10 -0.13850924D-16
  0.93011410D-04  0.29347373D-11 -0.77800417D-09 -0.23448588D-03  0.29343836D-11
  0.17165237D-08 -0.44548355D-04 -0.11738595D-10  0.61748887D-09 -0.28314754D-15
 -0.82079473D-04  0.18354569D-11 -0.31086026D-10  0.27413341D-03  0.18369951D-11
 -0.34161173D-09 -0.27894994D-04 -0.73433659D-11  0.43486980D-09  0.20153381D-15
  0.43630177D+00  0.81632229D+00  0.14104241D+01  0.22864619D+01  0.34721748D+01
  0.48259147D+01  0.57373164D+01  0.51103601D+01  0.25369358D+01  0.40874100D+00
  0.62752632D-02  0.11213834D-02  0.41904347D-04 -0.81662625D-03 -0.15253406D-02
 -0.26473026D-02 -0.42954962D-02 -0.66489180D-02 -0.95173220D-02 -0.12423078D-01
 -0.13238863D-01 -0.98963186D-02 -0.52240908D-03  0.67126974D-02  0.39881135D-02
 -0.14952436D-04  0.34818272D-03  0.64983288D-03  0.11293523D-02  0.18303479D-02
  0.28428169D-02  0.40724172D-02  0.53772475D-02  0.58143996D-02  0.45585646D-02
  0.22683267D-03 -0.39078425D-02 -0.40453414D-02  0.18305742D-02 -0.22880033D-02
 -0.81091718D-03 -0.36612839D-03  0.36967501D-02  0.48694495D-02  0.53721435D-02
  0.44621827D-02  0.23699736D-02  0.61128533D-03 -0.62838054D-06 -0.47130362D-02
 -0.62081264D-02 -0.68490177D-02 -0.56888965D-02 -0.30215111D-02 -0.77933586D-03
  0.80113077D-06  0.10569449D-07  0.13922337D-07  0.15359599D-07  0.12757912D-07
  0.67760372D-08  0.17477377D-08 -0.17966149D-11 -0.31058743D-02 -0.40777853D-02
 -0.46428585D-02 -0.39313819D-02 -0.22520469D-02 -0.51226254D-03  0.23976706D-03
  0.39470944D-02  0.51822456D-02  0.59003678D-02  0.49961891D-02  0.28620095D-02
  0.65100787D-03 -0.30470751D-03 -0.87909215D-08 -0.11541835D-07 -0.13141229D-07
 -0.11127453D-07 -0.63742334D-08 -0.14499170D-08  0.67864093D-09 -0.15186944D-03
  0.13528816D-03 -0.44390083D-09 -0.21361994D-03  0.33288414D-03 -0.52359241D-09
 -0.11393543D-04  0.16880320D-04 -0.76293656D-11 -0.42314155D-04  0.15767984D-03
 -0.11536568D-03 -0.29492254D-03  0.46067534D-09 -0.89857786D-09  0.77183488D-05
 -0.29780830D-04  0.22062481D-04  0.57823014D-05  0.38054600D-10 -0.65500426D-10
  0.55301223D-05 -0.22931076D-04  0.17400953D-04  0.70148564D-04 -0.11249312D-09
  0.21579855D-09 -0.54417498D-04  0.17618773D-05 -0.29587374D-09  0.21404676D-03
 -0.32873407D-04  0.14395434D-10 -0.50794266D-04  0.27587775D-04  0.87322578D-09
 -0.96211764D-09  0.11596424D-04  0.42460822D-05  0.11717692D-09 -0.60491975D-04
  0.93874541D-05 -0.96310705D-10  0.25702703D-04 -0.22125701D-04 -0.25522006D-09
  0.25573026D-09  0.43630190D+00  0.81632252D+00  0.14104245D+01  0.22864626D+01
  0.34721758D+01  0.48259161D+01  0.57373180D+01  0.51103616D+01  0.25369365D+01
  0.40874112D+00  0.62752650D-02  0.11213837D-02  0.41904359D-04 -0.81662648D-03
 -0.15253410D-02 -0.26473033D-02 -0.42954974D-02 -0.66489198D-02 -0.95173247D-02
 -0.12423082D-01 -0.13238866D-01 -0.98963214D-02 -0.52240923D-03  0.67126993D-02
  0.39881146D-02 -0.14952440D-04  0.34818282D-03  0.64983306D-03  0.11293527D-02
  0.18303484D-02  0.28428177D-02  0.40724184D-02  0.53772490D-02  0.58144012D-02
  0.45585659D-02  0.22683273D-03 -0.39078435D-02 -0.40453425D-02  0.18305747D-02
 -0.22880039D-02 -0.81091741D-03 -0.36612846D-03  0.36967505D-02  0.48694500D-02
  0.53721441D-02  0.44621832D-02  0.23699739D-02  0.61128540D-03 -0.62838061D-06
  0.47130374D-02  0.62081279D-02  0.68490195D-02  0.56888979D-02  0.30215119D-02
  0.77933605D-03 -0.80113097D-06  0.10569447D-07  0.13922333D-07  0.15359595D-07
  0.12757909D-07  0.67760355D-08  0.17477372D-08 -0.17966145D-11 -0.31058746D-02
 -0.40777857D-02 -0.46428590D-02 -0.39313823D-02 -0.22520471D-02 -0.51226259D-03
  0.23976709D-03 -0.39470953D-02 -0.51822468D-02 -0.59003692D-02 -0.49961903D-02
 -0.28620102D-02 -0.65100802D-03  0.30470758D-03 -0.87909190D-08 -0.11541832D-07
 -0.13141225D-07 -0.11127450D-07 -0.63742316D-08 -0.14499165D-08  0.67864074D-09
 -0.15186945D-03 -0.13528822D-03 -0.44390061D-09 -0.21362000D-03 -0.33288426D-03
 -0.52359251D-09 -0.11393545D-04 -0.16880323D-04 -0.76293666D-11 -0.42314158D-04
  0.15767987D-03 -0.11536571D-03  0.29492262D-03  0.46067549D-09  0.89857810D-09
  0.77183466D-05 -0.29780839D-04  0.22062493D-04 -0.57823321D-05  0.38054489D-10
  0.65500230D-10  0.55301275D-05 -0.22931090D-04  0.17400962D-04 -0.70148592D-04
 -0.11249315D-09 -0.21579859D-09 -0.54417512D-04 -0.17618677D-05 -0.29587377D-09
  0.21404681D-03  0.32873406D-04  0.14395503D-10 -0.50794271D-04 -0.27587803D-04
  0.87322582D-09  0.96211774D-09  0.11596431D-04 -0.42460864D-05  0.11717695D-09
 -0.60492001D-04 -0.93874567D-05 -0.96310719D-10  0.25702707D-04  0.22125716D-04
 -0.25522014D-09 -0.25573037D-09  0.19844809D-01  0.37129715D-01  0.64151921D-01
  0.10399775D+00  0.15792887D+00  0.21950256D+00  0.26095688D+00  0.23244032D+00
  0.11539033D+00  0.18591232D-01  0.28542493D-03  0.51005154D-04  0.19059830D-05
 -0.60910705D-04 -0.11377245D-03 -0.19745761D-03 -0.32039345D-03 -0.49593101D-03
 -0.70988019D-03 -0.92661539D-03 -0.98746331D-03 -0.73814887D-03 -0.38965568D-04
  0.50068820D-03  0.29746632D-03 -0.11152757D-05  0.29195280D-04  0.54488784D-04
  0.94696711D-04  0.15347551D-03  0.23837150D-03  0.34147405D-03  0.45088466D-03
  0.48754007D-03  0.38223773D-03  0.19020023D-04 -0.32767438D-03 -0.33920373D-03
  0.15349449D-03 -0.13610421D-03 -0.31500874D-04 -0.13555994D-03 -0.18693172D-02
 -0.24623103D-02 -0.27165051D-02 -0.22563698D-02 -0.11984128D-02 -0.30910562D-03
  0.31775007D-06  0.25700625D-09  0.33853491D-09  0.37348331D-09  0.31022082D-09
  0.16476581D-09  0.42497910D-10 -0.43686406D-13  0.19571848D-07  0.25780516D-07
  0.28441949D-07  0.23624308D-07  0.12547444D-07  0.32363518D-08 -0.33268596D-11
  0.17504440D-02  0.22982046D-02  0.26166750D-02  0.22156929D-02  0.12692342D-02
  0.28870675D-03 -0.13513065D-03 -0.21784569D-09 -0.28601542D-09 -0.32564960D-09
 -0.27574670D-09 -0.15795833D-09 -0.35930040D-10  0.16817236D-10 -0.17076861D-07
 -0.22420667D-07 -0.25527578D-07 -0.21615705D-07 -0.12382308D-07 -0.28165455D-08
  0.13182983D-08  0.18136372D-04 -0.19429586D-10 -0.11855223D-08 -0.55415091D-04
 -0.56448350D-11 -0.18104338D-09  0.80008844D-05 -0.43394892D-12 -0.33394406D-11
  0.49303609D-04 -0.28073132D-04 -0.21230477D-04  0.78310450D-11 -0.83862645D-10
 -0.10997476D-16  0.45838212D-04 -0.29597508D-04 -0.16240704D-04 -0.90003934D-11
 -0.83162784D-09 -0.20495424D-17  0.23787280D-04 -0.11492027D-04 -0.12295253D-04
  0.31721881D-11  0.80066522D-10  0.35736350D-17 -0.85842124D-05 -0.33753022D-12
 -0.17926210D-09  0.64764320D-04  0.10200184D-10  0.77656070D-09 -0.39011683D-04
 -0.91875937D-11 -0.23877441D-09  0.79753509D-16 -0.13660110D-04 -0.46066502D-12
  0.19448767D-10  0.22102731D-04 -0.20249861D-11  0.27924107D-10  0.18877599D-04
  0.34069812D-11 -0.86270408D-10 -0.28196397D-17 -0.30861040D-04 -0.57741124D-04
 -0.99763872D-04 -0.16172887D-03 -0.24559819D-03 -0.34135261D-03 -0.40581901D-03
 -0.36147236D-03 -0.17944570D-03 -0.28911578D-04 -0.44386973D-06 -0.79319084D-07
 -0.29640304D-08  0.36634623D-04  0.68428215D-04  0.11876049D-03  0.19270001D-03
  0.29827672D-03  0.42695603D-03  0.55731099D-03  0.59390785D-03  0.44395818D-03
  0.23435763D-04 -0.30113793D-03 -0.17891053D-03  0.67078034D-06 -0.18672398D-04
 -0.34849340D-04 -0.60565086D-04 -0.98158188D-04 -0.15245503D-03 -0.21839624D-03
 -0.28837188D-03 -0.31181554D-03 -0.24446743D-03 -0.12164618D-04  0.20957039D-03
  0.21694421D-03 -0.98170324D-04  0.66537303D-04 -0.34701193D-04  0.19589786D-04
  0.41060663D-03  0.54086108D-03  0.59669647D-03  0.49562501D-03  0.26323848D-03
  0.67896883D-04 -0.69795688D-07  0.10817130D-09  0.14248588D-09  0.15719531D-09
  0.13056877D-09  0.69348248D-10  0.17886936D-10 -0.18387162D-13  0.14486654D-02
  0.19082175D-02  0.21052109D-02  0.17486197D-02  0.92873439D-03  0.23954769D-03
 -0.24624688D-06 -0.36165242D-03 -0.47482311D-03 -0.54062105D-03 -0.45777570D-03
 -0.26223154D-03 -0.59648579D-04  0.27918818D-04 -0.95272957D-10 -0.12508641D-09
 -0.14242008D-09 -0.12059547D-09 -0.69081730D-10 -0.15713697D-10  0.73548750D-11
 -0.12850032D-02 -0.16871150D-02 -0.19209045D-02 -0.16265431D-02 -0.93174649D-03
 -0.21194000D-03  0.99199584D-04 -0.22705950D-04 -0.59827337D-11 -0.75904125D-04
 -0.29006630D-04 -0.76403171D-11 -0.59869916D-04 -0.63408047D-06 -0.16710486D-12
 -0.12474162D-05  0.27637233D-04 -0.56347162D-05 -0.22002517D-04 -0.87663369D-11
 -0.33265512D-04 -0.87571914D-11 -0.40533592D-05  0.72256131D-05 -0.31722539D-05
  0.29710390D-11  0.56823840D-05  0.14945900D-11 -0.11404189D-04 -0.79251733D-05
  0.19329362D-04  0.91782235D-12  0.14276962D-04  0.37598936D-11 -0.26256428D-04
 -0.34873523D-11  0.31702240D-04  0.25789257D-04 -0.34862718D-11 -0.80292544D-04
  0.52980026D-04  0.13948329D-10 -0.14814176D-04  0.17261086D-10  0.10183537D-04
  0.14203000D-11 -0.11824127D-04 -0.89733424D-05  0.14197808D-11  0.32807907D-04
 -0.21577268D-04 -0.56806809D-11  0.26644732D-05 -0.79456049D-11 -0.30860994D-04
 -0.57741038D-04 -0.99763721D-04 -0.16172863D-03 -0.24559782D-03 -0.34135209D-03
 -0.40581840D-03 -0.36147181D-03 -0.17944543D-03 -0.28911534D-04 -0.44386906D-06
 -0.79318965D-07 -0.29640260D-08  0.36634682D-04  0.68428325D-04  0.11876068D-03
  0.19270032D-03  0.29827720D-03  0.42695672D-03  0.55731188D-03  0.59390881D-03
  0.44395889D-03  0.23435801D-04 -0.30113841D-03 -0.17891081D-03  0.67078142D-06
 -0.18672432D-04 -0.34849405D-04 -0.60565198D-04 -0.98158368D-04 -0.15245531D-03
 -0.21839664D-03 -0.28837241D-03 -0.31181612D-03 -0.24446788D-03 -0.12164641D-04
  0.20957078D-03  0.21694461D-03 -0.98170504D-04  0.66537311D-04 -0.34701041D-04
  0.19589939D-04  0.41060465D-03  0.54085848D-03  0.59669361D-03  0.49562263D-03
  0.26323722D-03  0.67896557D-04 -0.69795353D-07  0.10817068D-09  0.14248506D-09
  0.15719440D-09  0.13056802D-09  0.69347846D-10  0.17886832D-10 -0.18387056D-13
 -0.14486660D-02 -0.19082182D-02 -0.21052117D-02 -0.17486203D-02 -0.92873473D-03
 -0.23954778D-03  0.24624697D-06 -0.36165104D-03 -0.47482131D-03 -0.54061899D-03
 -0.45777396D-03 -0.26223055D-03 -0.59648352D-04  0.27918711D-04 -0.95272509D-10
 -0.12508582D-09 -0.14241941D-09 -0.12059491D-09 -0.69081405D-10 -0.15713623D-10
  0.73548404D-11  0.12850038D-02  0.16871158D-02  0.19209055D-02  0.16265439D-02
  0.93174695D-03  0.21194011D-03 -0.99199634D-04 -0.22705614D-04 -0.59826349D-11
  0.75904009D-04 -0.29006822D-04 -0.76403646D-11  0.59870042D-04 -0.63407746D-06
 -0.16710452D-12  0.12474419D-05  0.27637349D-04 -0.56346802D-05 -0.22002669D-04
 -0.87663388D-11  0.33266501D-04  0.87574469D-11 -0.40534266D-05  0.72255913D-05
 -0.31721647D-05  0.29710430D-11 -0.56828398D-05 -0.14947075D-11 -0.11404192D-04
 -0.79251855D-05  0.19329378D-04  0.91782246D-12 -0.14277059D-04 -0.37599188D-11