 Molden2AIM, Version 4.0.0 (06/02/2016)           Time: Fri Jun 29 05:20:23 2018
GAUSSIAN             22 MOL ORBITALS    392 PRIMITIVES        4 NUCLEI
  N    1    (CENTRE  1)   0.06181672  2.84977314  0.00000000  CHARGE =  7.0
  H    2    (CENTRE  2)  -1.02609861  3.30238144  1.53033801  CHARGE =  1.0
  H    3    (CENTRE  3)  -1.02609861  3.30238144 -1.53033801  CHARGE =  1.0
  Br   4    (CENTRE  4)   0.04544791 -0.74642859  0.00000000  CHARGE = 35.0
CENTRE ASSIGNMENTS    1  1  1  1  1  1  1  1  1  1  1  1  1  1  1  1  1  1  1  1
CENTRE ASSIGNMENTS    1  1  1  1  1  1  1  1  1  1  1  1  1  1  1  1  1  1  1  1
CENTRE ASSIGNMENTS    1  1  1  1  1  1  1  1  1  1  1  1  1  1  1  1  1  1  1  1
CENTRE ASSIGNMENTS    1  1  1  1  1  1  1  1  1  1  1  1  1  1  1  2  2  2  2  2
CENTRE ASSIGNMENTS    2  2  2  2  2  2  2  2  2  2  2  2  2  2  2  2  2  2  2  2
CENTRE ASSIGNMENTS    2  2  3  3  3  3  3  3  3  3  3  3  3  3  3  3  3  3  3  3
CENTRE ASSIGNMENTS    3  3  3  3  3  3  3  3  3  4  4  4  4  4  4  4  4  4  4  4
CENTRE ASSIGNMENTS    4  4  4  4  4  4  4  4  4  4  4  4  4  4  4  4  4  4  4  4
CENTRE ASSIGNMENTS    4  4  4  4  4  4  4  4  4  4  4  4  4  4  4  4  4  4  4  4
CENTRE ASSIGNMENTS    4  4  4  4  4  4  4  4  4  4  4  4  4  4  4  4  4  4  4  4
CENTRE ASSIGNMENTS    4  4  4  4  4  4  4  4  4  4  4  4  4  4  4  4  4  4  4  4
CENTRE ASSIGNMENTS    4  4  4  4  4  4  4  4  4  4  4  4  4  4  4  4  4  4  4  4
CENTRE ASSIGNMENTS    4  4  4  4  4  4  4  4  4  4  4  4  4  4  4  4  4  4  4  4
CENTRE ASSIGNMENTS    4  4  4  4  4  4  4  4  4  4  4  4  4  4  4  4  4  4  4  4
CENTRE ASSIGNMENTS    4  4  4  4  4  4  4  4  4  4  4  4  4  4  4  4  4  4  4  4
CENTRE ASSIGNMENTS    4  4  4  4  4  4  4  4  4  4  4  4  4  4  4  4  4  4  4  4
CENTRE ASSIGNMENTS    4  4  4  4  4  4  4  4  4  4  4  4  4  4  4  4  4  4  4  4
CENTRE ASSIGNMENTS    4  4  4  4  4  4  4  4  4  4  4  4  4  4  4  4  4  4  4  4
CENTRE ASSIGNMENTS    4  4  4  4  4  4  4  4  4  4  4  4  4  4  4  4  4  4  4  4
CENTRE ASSIGNMENTS    4  4  4  4  4  4  4  4  4  4  4  4
TYPE ASSIGNMENTS      1  1  1  1  1  1  1  1  1  1  1  1  1  1  1  1  1  1  1  2
TYPE ASSIGNMENTS      2  2  3  3  3  4  4  4  2  3  4  2  3  4  2  3  4  5  6  7
TYPE ASSIGNMENTS      8  9 10  5  6  7  8  9 10  5  6  7  8  9 10 11 12 13 17 14
TYPE ASSIGNMENTS     15 18 19 16 20 11 12 13 17 14 15 18 19 16 20  1  1  1  1  1
TYPE ASSIGNMENTS      1  2  3  4  2  3  4  2  3  4  5  6  7  8  9 10  5  6  7  8
TYPE ASSIGNMENTS      9 10  1  1  1  1  1  1  2  3  4  2  3  4  2  3  4  5  6  7
TYPE ASSIGNMENTS      8  9 10  5  6  7  8  9 10  1  1  1  1  1  1  1  1  1  1  1
TYPE ASSIGNMENTS      1  1  1  1  1  1  1  1  1  1  1  1  1  1  1  1  1  1  1  1
TYPE ASSIGNMENTS      1  1  1  1  1  1  1  1  1  1  1  1  1  1  1  1  1  1  1  1
TYPE ASSIGNMENTS      1  1  1  1  1  1  1  1  1  1  1  1  1  1  1  1  1  1  1  1
TYPE ASSIGNMENTS      1  1  1  1  2  2  2  2  2  2  2  2  2  2  2  3  3  3  3  3
TYPE ASSIGNMENTS      3  3  3  3  3  3  4  4  4  4  4  4  4  4  4  4  4  2  2  2
TYPE ASSIGNMENTS      2  2  2  2  2  2  2  2  3  3  3  3  3  3  3  3  3  3  3  4
TYPE ASSIGNMENTS      4  4  4  4  4  4  4  4  4  4  2  2  2  2  2  2  2  2  2  2
TYPE ASSIGNMENTS      2  3  3  3  3  3  3  3  3  3  3  3  4  4  4  4  4  4  4  4
TYPE ASSIGNMENTS      4  4  4  2  3  4  2  3  4  2  3  4  5  5  5  5  5  5  5  6
TYPE ASSIGNMENTS      6  6  6  6  6  6  7  7  7  7  7  7  7  8  8  8  8  8  8  8
TYPE ASSIGNMENTS      9  9  9  9  9  9  9 10 10 10 10 10 10 10  5  6  7  8  9 10
TYPE ASSIGNMENTS      5  6  7  8  9 10  5  6  7  8  9 10 11 12 13 17 14 15 18 19
TYPE ASSIGNMENTS     16 20 11 12 13 17 14 15 18 19 16 20
EXPONENTS  0.1142000D+05 0.1712000D+04 0.3893000D+03 0.1100000D+03 0.3557000D+02
EXPONENTS  0.1254000D+02 0.4644000D+01 0.5118000D+00 0.1142000D+05 0.1712000D+04
EXPONENTS  0.3893000D+03 0.1100000D+03 0.3557000D+02 0.1254000D+02 0.4644000D+01
EXPONENTS  0.5118000D+00 0.1293000D+01 0.1787000D+00 0.5760000D-01 0.2663000D+02
EXPONENTS  0.5948000D+01 0.1742000D+01 0.2663000D+02 0.5948000D+01 0.1742000D+01
EXPONENTS  0.2663000D+02 0.5948000D+01 0.1742000D+01 0.5550000D+00 0.5550000D+00
EXPONENTS  0.5550000D+00 0.1725000D+00 0.1725000D+00 0.1725000D+00 0.4910000D-01
EXPONENTS  0.4910000D-01 0.4910000D-01 0.1654000D+01 0.1654000D+01 0.1654000D+01
EXPONENTS  0.1654000D+01 0.1654000D+01 0.1654000D+01 0.4690000D+00 0.4690000D+00
EXPONENTS  0.4690000D+00 0.4690000D+00 0.4690000D+00 0.4690000D+00 0.1510000D+00
EXPONENTS  0.1510000D+00 0.1510000D+00 0.1510000D+00 0.1510000D+00 0.1510000D+00
EXPONENTS  0.1093000D+01 0.1093000D+01 0.1093000D+01 0.1093000D+01 0.1093000D+01
EXPONENTS  0.1093000D+01 0.1093000D+01 0.1093000D+01 0.1093000D+01 0.1093000D+01
EXPONENTS  0.3640000D+00 0.3640000D+00 0.3640000D+00 0.3640000D+00 0.3640000D+00
EXPONENTS  0.3640000D+00 0.3640000D+00 0.3640000D+00 0.3640000D+00 0.3640000D+00
EXPONENTS  0.3387000D+02 0.5095000D+01 0.1159000D+01 0.3258000D+00 0.1027000D+00
EXPONENTS  0.2526000D-01 0.1407000D+01 0.1407000D+01 0.1407000D+01 0.3880000D+00
EXPONENTS  0.3880000D+00 0.3880000D+00 0.1020000D+00 0.1020000D+00 0.1020000D+00
EXPONENTS  0.1057000D+01 0.1057000D+01 0.1057000D+01 0.1057000D+01 0.1057000D+01
EXPONENTS  0.1057000D+01 0.2470000D+00 0.2470000D+00 0.2470000D+00 0.2470000D+00
EXPONENTS  0.2470000D+00 0.2470000D+00 0.3387000D+02 0.5095000D+01 0.1159000D+01
EXPONENTS  0.3258000D+00 0.1027000D+00 0.2526000D-01 0.1407000D+01 0.1407000D+01
EXPONENTS  0.1407000D+01 0.3880000D+00 0.3880000D+00 0.3880000D+00 0.1020000D+00
EXPONENTS  0.1020000D+00 0.1020000D+00 0.1057000D+01 0.1057000D+01 0.1057000D+01
EXPONENTS  0.1057000D+01 0.1057000D+01 0.1057000D+01 0.2470000D+00 0.2470000D+00
EXPONENTS  0.2470000D+00 0.2470000D+00 0.2470000D+00 0.2470000D+00 0.1063900D+08
EXPONENTS  0.1593400D+07 0.3626100D+06 0.1027000D+06 0.3350100D+05 0.1209300D+05
EXPONENTS  0.4715900D+04 0.1955600D+04 0.8526100D+03 0.3876700D+03 0.1826800D+03
EXPONENTS  0.8824500D+02 0.3926300D+02 0.1923400D+02 0.9405700D+01 0.4160100D+01
EXPONENTS  0.1899500D+01 0.3011400D+00 0.1063900D+08 0.1593400D+07 0.3626100D+06
EXPONENTS  0.1027000D+06 0.3350100D+05 0.1209300D+05 0.4715900D+04 0.1955600D+04
EXPONENTS  0.8526100D+03 0.3876700D+03 0.1826800D+03 0.8824500D+02 0.3926300D+02
EXPONENTS  0.1923400D+02 0.9405700D+01 0.4160100D+01 0.1899500D+01 0.3011400D+00
EXPONENTS  0.1063900D+08 0.1593400D+07 0.3626100D+06 0.1027000D+06 0.3350100D+05
EXPONENTS  0.1209300D+05 0.4715900D+04 0.1955600D+04 0.8526100D+03 0.3876700D+03
EXPONENTS  0.1826800D+03 0.8824500D+02 0.3926300D+02 0.1923400D+02 0.9405700D+01
EXPONENTS  0.4160100D+01 0.1899500D+01 0.3011400D+00 0.1063900D+08 0.1593400D+07
EXPONENTS  0.3626100D+06 0.1027000D+06 0.3350100D+05 0.1209300D+05 0.4715900D+04
EXPONENTS  0.1955600D+04 0.8526100D+03 0.3876700D+03 0.1826800D+03 0.8824500D+02
EXPONENTS  0.3926300D+02 0.1923400D+02 0.9405700D+01 0.4160100D+01 0.1899500D+01
EXPONENTS  0.3011400D+00 0.6047200D+00 0.1251500D+00 0.4559300D-01 0.8676500D+04
EXPONENTS  0.2055900D+04 0.6662300D+03 0.2531000D+03 0.1061200D+03 0.4724200D+02
EXPONENTS  0.2182500D+02 0.9968400D+01 0.4517100D+01 0.1998200D+01 0.2814500D+00
EXPONENTS  0.8676500D+04 0.2055900D+04 0.6662300D+03 0.2531000D+03 0.1061200D+03
EXPONENTS  0.4724200D+02 0.2182500D+02 0.9968400D+01 0.4517100D+01 0.1998200D+01
EXPONENTS  0.2814500D+00 0.8676500D+04 0.2055900D+04 0.6662300D+03 0.2531000D+03
EXPONENTS  0.1061200D+03 0.4724200D+02 0.2182500D+02 0.9968400D+01 0.4517100D+01
EXPONENTS  0.1998200D+01 0.2814500D+00 0.8676500D+04 0.2055900D+04 0.6662300D+03
EXPONENTS  0.2531000D+03 0.1061200D+03 0.4724200D+02 0.2182500D+02 0.9968400D+01
EXPONENTS  0.4517100D+01 0.1998200D+01 0.2814500D+00 0.8676500D+04 0.2055900D+04
EXPONENTS  0.6662300D+03 0.2531000D+03 0.1061200D+03 0.4724200D+02 0.2182500D+02
EXPONENTS  0.9968400D+01 0.4517100D+01 0.1998200D+01 0.2814500D+00 0.8676500D+04
EXPONENTS  0.2055900D+04 0.6662300D+03 0.2531000D+03 0.1061200D+03 0.4724200D+02
EXPONENTS  0.2182500D+02 0.9968400D+01 0.4517100D+01 0.1998200D+01 0.2814500D+00
EXPONENTS  0.8676500D+04 0.2055900D+04 0.6662300D+03 0.2531000D+03 0.1061200D+03
EXPONENTS  0.4724200D+02 0.2182500D+02 0.9968400D+01 0.4517100D+01 0.1998200D+01
EXPONENTS  0.2814500D+00 0.8676500D+04 0.2055900D+04 0.6662300D+03 0.2531000D+03
EXPONENTS  0.1061200D+03 0.4724200D+02 0.2182500D+02 0.9968400D+01 0.4517100D+01
EXPONENTS  0.1998200D+01 0.2814500D+00 0.8676500D+04 0.2055900D+04 0.6662300D+03
EXPONENTS  0.2531000D+03 0.1061200D+03 0.4724200D+02 0.2182500D+02 0.9968400D+01
EXPONENTS  0.4517100D+01 0.1998200D+01 0.2814500D+00 0.7098800D+00 0.7098800D+00
EXPONENTS  0.7098800D+00 0.1020400D+00 0.1020400D+00 0.1020400D+00 0.3514200D-01
EXPONENTS  0.3514200D-01 0.3514200D-01 0.4038300D+03 0.1211700D+03 0.4634500D+02
EXPONENTS  0.1972100D+02 0.8862400D+01 0.3996200D+01 0.1763600D+01 0.4038300D+03
EXPONENTS  0.1211700D+03 0.4634500D+02 0.1972100D+02 0.8862400D+01 0.3996200D+01
EXPONENTS  0.1763600D+01 0.4038300D+03 0.1211700D+03 0.4634500D+02 0.1972100D+02
EXPONENTS  0.8862400D+01 0.3996200D+01 0.1763600D+01 0.4038300D+03 0.1211700D+03
EXPONENTS  0.4634500D+02 0.1972100D+02 0.8862400D+01 0.3996200D+01 0.1763600D+01
EXPONENTS  0.4038300D+03 0.1211700D+03 0.4634500D+02 0.1972100D+02 0.8862400D+01
EXPONENTS  0.3996200D+01 0.1763600D+01 0.4038300D+03 0.1211700D+03 0.4634500D+02
EXPONENTS  0.1972100D+02 0.8862400D+01 0.3996200D+01 0.1763600D+01 0.7061900D+00
EXPONENTS  0.7061900D+00 0.7061900D+00 0.7061900D+00 0.7061900D+00 0.7061900D+00
EXPONENTS  0.2639000D+00 0.2639000D+00 0.2639000D+00 0.2639000D+00 0.2639000D+00
EXPONENTS  0.2639000D+00 0.1047000D+00 0.1047000D+00 0.1047000D+00 0.1047000D+00
EXPONENTS  0.1047000D+00 0.1047000D+00 0.5515000D+00 0.5515000D+00 0.5515000D+00
EXPONENTS  0.5515000D+00 0.5515000D+00 0.5515000D+00 0.5515000D+00 0.5515000D+00
EXPONENTS  0.5515000D+00 0.5515000D+00 0.2580000D+00 0.2580000D+00 0.2580000D+00
EXPONENTS  0.2580000D+00 0.2580000D+00 0.2580000D+00 0.2580000D+00 0.2580000D+00
EXPONENTS  0.2580000D+00 0.2580000D+00
MO    1     MO 0.0        OCC NO =    2.0000000  ORB. ENERGY = -481.037096
 -0.53520376D-05 -0.99727340D-05 -0.16866393D-04 -0.25399854D-04 -0.31446667D-04
 -0.26759694D-04 -0.10182557D-04  0.47689260D-07  0.37359108D-05  0.70048676D-05
  0.11917364D-04  0.18506408D-04  0.24559080D-04  0.25881899D-04  0.16048429D-04
 -0.10675421D-04 -0.21562040D-05  0.25538138D-04 -0.24273710D-05  0.43517373D-05
  0.41797917D-05  0.29311584D-05  0.85481933D-05  0.82104375D-05  0.57577255D-05
  0.65125996D-16  0.62552741D-16  0.43866300D-16 -0.74727576D-05  0.54671057D-05
 -0.15145515D-15 -0.59195826D-05 -0.25014389D-05 -0.11100465D-15  0.83972944D-06
 -0.78669481D-06 -0.75825596D-17  0.16978367D-04 -0.24239764D-04  0.72613974D-05
  0.33258325D-05  0.29337685D-16 -0.12259361D-16 -0.93981977D-05  0.90050709D-05
  0.39312678D-06 -0.35303170D-05  0.10485289D-15 -0.44559236D-16 -0.20402423D-05
  0.25863507D-05 -0.54610843D-06  0.24865715D-05  0.14072759D-16 -0.77856622D-17
 -0.41729778D-05  0.10155564D-07 -0.64175453D-17  0.78397545D-05 -0.24243785D-06
 -0.19151337D-16  0.46791790D-05  0.21197116D-06  0.38403973D-16  0.33802829D-16
  0.23167964D-05 -0.38015684D-05 -0.22976633D-18 -0.39582636D-05  0.44641342D-05
 -0.21848950D-17 -0.29921255D-05  0.69405710D-05  0.28741940D-17  0.11419474D-16
  0.35876853D-06  0.64705382D-06  0.95408048D-06 -0.13750597D-04 -0.12082150D-04
  0.64042549D-07 -0.26080564D-06 -0.90129644D-05 -0.13721788D-05 -0.82858723D-05
  0.41294125D-05  0.55902084D-05 -0.23790341D-05  0.45346736D-05  0.18883227D-05
 -0.12989575D-05  0.33203347D-06  0.96692398D-06  0.22027583D-05  0.66955553D-05
  0.27578810D-05  0.10071208D-05 -0.22123002D-05  0.12051794D-05 -0.71827320D-06
  0.12878538D-05 -0.53876782D-07  0.35876853D-06  0.64705382D-06  0.95408048D-06
 -0.13750597D-04 -0.12082150D-04  0.64042549D-07 -0.26080564D-06 -0.90129644D-05
  0.13721788D-05 -0.82858723D-05  0.41294125D-05 -0.55902084D-05 -0.23790341D-05
  0.45346736D-05 -0.18883227D-05 -0.12989575D-05  0.33203347D-06  0.96692398D-06
  0.22027583D-05 -0.66955553D-05 -0.27578810D-05  0.10071208D-05 -0.22123002D-05
  0.12051794D-05 -0.71827320D-06 -0.12878538D-05  0.53876782D-07  0.78329653D+00
  0.14734762D+01  0.25506599D+01  0.41810196D+01  0.65496482D+01  0.98446790D+01
  0.14070519D+02  0.18678964D+02  0.21754191D+02  0.19981014D+02  0.11683685D+02
  0.30658573D+01  0.16760922D+00 -0.59990608D-02  0.16765482D-02 -0.49782373D-03
  0.84870326D-04  0.69242513D-05  0.98659879D-04  0.18126877D-03  0.31345547D-03
  0.51332715D-03  0.80821053D-03  0.12204771D-02  0.17815238D-02  0.24532665D-02
  0.31346178D-02  0.34171007D-02  0.28128001D-02  0.77125068D-03 -0.15556626D-02
 -0.15160612D-02 -0.33175690D-03 -0.11176584D-04 -0.37862697D-06  0.96317817D-09
 -0.59046721D-04 -0.11575523D-03 -0.20274241D-03 -0.33121512D-03 -0.52240603D-03
 -0.78828737D-03 -0.11557859D-02 -0.15957536D-02 -0.20689025D-02 -0.23007413D-02
 -0.19983355D-02 -0.58048072D-03  0.14633848D-02  0.21322548D-02  0.36707529D-03
 -0.89550654D-03 -0.42623854D-03  0.20584361D-05  0.20605470D-04  0.44647077D-04
  0.76004568D-04  0.12405992D-03  0.19556829D-03  0.29516904D-03  0.43276592D-03
  0.59826816D-03  0.77649205D-03  0.86747740D-03  0.75776115D-03  0.22444959D-03
 -0.58344000D-03 -0.89752794D-03 -0.15709480D-03  0.49554685D-03  0.42064433D-03
 -0.15693864D-03  0.16008750D-03  0.44079273D-04  0.30164071D-05  0.37783149D-04
  0.54212129D-04  0.71779741D-04  0.82885263D-04  0.76838452D-04  0.49746615D-04
  0.17558728D-04  0.20580343D-05  0.29920010D-07  0.43814524D-08  0.45048135D-10
 -0.94553140D-04 -0.13566702D-03 -0.17963034D-03 -0.20742215D-03 -0.19228987D-03
 -0.12449197D-03 -0.43941094D-04 -0.51502751D-05 -0.74875467D-07 -0.10964679D-07
 -0.11273393D-09  0.12012400D-16  0.17235667D-16  0.22820940D-16  0.26351720D-16
  0.24429256D-16  0.15815946D-16  0.55824481D-17  0.65431106D-18  0.95124717D-20
  0.13929956D-20  0.14322158D-22 -0.21620262D-03 -0.31209097D-03 -0.41694608D-03
 -0.49534473D-03 -0.48002701D-03 -0.33368001D-03 -0.10857627D-03  0.48867940D-04
  0.52793679D-04  0.13591571D-04 -0.13257322D-07  0.14206074D-02  0.20506631D-02
  0.27396369D-02  0.32547727D-02  0.31541243D-02  0.21925187D-02  0.71342455D-03
 -0.32109766D-03 -0.34689261D-03 -0.89306440D-04  0.87110185D-07 -0.37595635D-16
 -0.54269731D-16 -0.72503064D-16 -0.86135864D-16 -0.83472255D-16 -0.58023865D-16
 -0.18880409D-16  0.84976824D-17  0.91803321D-17  0.23634484D-17 -0.23053257D-20
  0.15118054D-03  0.21967203D-03  0.29205652D-03  0.35044760D-03  0.33905961D-03
  0.24069284D-03  0.74807940D-04 -0.42950000D-04 -0.49340016D-04 -0.13102675D-04
  0.47274859D-05 -0.10157604D-02 -0.14759449D-02 -0.19622858D-02 -0.23546071D-02
 -0.22780928D-02 -0.16171806D-02 -0.50262381D-03  0.28857488D-03  0.33150848D-03
  0.88034991D-04 -0.31763299D-04  0.29956638D-16  0.43528324D-16  0.57871412D-16
  0.69441688D-16  0.67185141D-16  0.47693627D-16  0.14823299D-16 -0.85106033D-17
 -0.97767939D-17 -0.25963135D-17  0.93675802D-18 -0.41349253D-05  0.18527983D-04
 -0.26412455D-19 -0.19467260D-05  0.15739807D-04 -0.75111107D-18 -0.21655535D-06
  0.18801655D-06 -0.63386020D-19 -0.11438374D-03 -0.11969025D-03 -0.10198250D-03
 -0.67163188D-04 -0.30953514D-04 -0.92690798D-05 -0.15770553D-05  0.22498415D-03
  0.23542168D-03  0.20059187D-03  0.13210491D-03  0.60883220D-04  0.18231579D-04
  0.31019486D-05 -0.11060042D-03 -0.11573142D-03 -0.98609365D-04 -0.64941722D-04
 -0.29929706D-04 -0.89624990D-05 -0.15248932D-05 -0.58363573D-05 -0.61071190D-05
 -0.52035923D-05 -0.34269589D-05 -0.15793833D-05 -0.47294889D-06 -0.80468245D-07
 -0.26914486D-16 -0.28163110D-16 -0.23996477D-16 -0.15803494D-16 -0.72833599D-17
 -0.21810139D-17 -0.37108103D-18  0.54845015D-16  0.57389399D-16  0.48898839D-16
  0.32203582D-16  0.14841672D-16  0.44443628D-17  0.75617065D-18  0.53384493D-05
 -0.10496565D-04  0.51581155D-05 -0.53992256D-06  0.21300660D-17 -0.36842761D-17
  0.12178843D-05 -0.24483043D-05  0.12304200D-05  0.26169844D-05 -0.16249411D-17
  0.41218142D-17 -0.13803696D-05  0.25736466D-05 -0.11932770D-05 -0.10425973D-05
  0.30403115D-18 -0.82587194D-18 -0.13470041D-05 -0.73880143D-05 -0.22235983D-18
  0.35160042D-05  0.11819691D-04  0.12581413D-17  0.52500803D-06  0.10344352D-04
 -0.59106184D-18 -0.24797048D-18  0.34249443D-06  0.17592828D-05 -0.14957475D-18
 -0.61474953D-06 -0.30075257D-05 -0.70183986D-18 -0.41273378D-06 -0.22703227D-05
  0.11505641D-17 -0.44219800D-18
MO    2     MO 0.0        OCC NO =    2.0000000  ORB. ENERGY =  -61.840274
  0.12921328D-03  0.24076992D-03  0.40720229D-03  0.61322408D-03  0.75921119D-03
  0.64605446D-03  0.24583564D-03 -0.11513532D-05 -0.90771266D-04 -0.17019697D-03
 -0.28955569D-03 -0.44964941D-03 -0.59671092D-03 -0.62885140D-03 -0.38992799D-03
  0.25938025D-03  0.62260492D-04 -0.60279458D-03  0.13679229D-03 -0.12151228D-03
 -0.11671110D-03 -0.81845876D-04 -0.20527900D-03 -0.19716802D-03 -0.13826783D-03
  0.84706347D-15  0.81359434D-15  0.57054851D-15  0.22429255D-03 -0.19438309D-03
 -0.25904877D-15  0.16852282D-03 -0.30378680D-04 -0.11133539D-15 -0.28301082D-04
  0.19656795D-04  0.96033317D-17 -0.47482790D-03  0.67843319D-03 -0.20360529D-03
 -0.10200030D-03  0.21405835D-15 -0.25909705D-15  0.26176511D-03 -0.23628241D-03
 -0.25482695D-04  0.11280621D-03  0.60207817D-16  0.10187357D-15  0.61309031D-04
 -0.76343983D-04  0.15034951D-04 -0.78428219D-04 -0.27419646D-17  0.41901403D-16
  0.13358183D-03 -0.30220043D-04 -0.63904452D-17 -0.26713333D-03  0.49800879D-04
 -0.17260310D-17 -0.13361217D-03  0.40859251D-04  0.20897367D-16  0.10657543D-15
 -0.72295022D-04  0.11539854D-03 -0.23442999D-16  0.13136374D-03 -0.13479313D-03
  0.38447291D-16  0.85521326D-04 -0.21140249D-03  0.31881705D-16 -0.87886007D-16
 -0.94259678D-05 -0.17000121D-04 -0.25066669D-04  0.38248195D-03  0.40290200D-03
 -0.70947554D-06  0.42713873D-05  0.27334588D-03  0.39466743D-04  0.25456451D-03
 -0.11555355D-03 -0.17087595D-03  0.80178516D-04 -0.15378321D-03 -0.64885988D-04
  0.46219038D-04 -0.29596321D-04 -0.16622717D-04 -0.70421859D-04 -0.19794985D-03
 -0.82869943D-04 -0.35734967D-04  0.75025057D-04 -0.39290090D-04  0.21020614D-04
 -0.44770738D-04  0.35464676D-05 -0.94259678D-05 -0.17000121D-04 -0.25066669D-04
  0.38248195D-03  0.40290200D-03 -0.70947554D-06  0.42713873D-05  0.27334588D-03
 -0.39466743D-04  0.25456451D-03 -0.11555355D-03  0.17087595D-03  0.80178516D-04
 -0.15378321D-03  0.64885988D-04  0.46219038D-04 -0.29596321D-04 -0.16622717D-04
 -0.70421859D-04  0.19794985D-03  0.82869943D-04 -0.35734967D-04  0.75025057D-04
 -0.39290090D-04  0.21020614D-04  0.44770738D-04 -0.35464676D-05  0.80702993D-03
  0.15181216D-02  0.26279433D-02  0.43077019D-02  0.67480985D-02  0.10142967D-01
  0.14496847D-01  0.19244925D-01  0.22413329D-01  0.20586426D-01  0.12037693D-01
  0.31587509D-02  0.17268768D-03 -0.61808286D-05  0.17273466D-05 -0.51290748D-06
  0.87441845D-07  0.71340518D-08 -0.25359784D+00 -0.46593781D+00 -0.80571385D+00
 -0.13194690D+01 -0.20774447D+01 -0.31371451D+01 -0.45792737D+01 -0.63059381D+01
 -0.80573007D+01 -0.87834019D+01 -0.72300922D+01 -0.19824422D+01  0.39987144D+01
  0.38969219D+01  0.85275629D+00  0.28728574D-01  0.97323230D-03 -0.24757774D-05
  0.17518793D-02  0.34343852D-02  0.60152406D-02  0.98269457D-02  0.15499460D-01
  0.23387994D-01  0.34291446D-01  0.47345013D-01  0.61383044D-01  0.68261557D-01
  0.59289365D-01  0.17222500D-01 -0.43417714D-01 -0.63262668D-01 -0.10890895D-01
  0.26569119D-01  0.12646231D-01 -0.61072512D-04 -0.64091614D-03 -0.13887105D-02
 -0.23640594D-02 -0.38587816D-02 -0.60829905D-02 -0.91809896D-02 -0.13460827D-01
 -0.18608638D-01 -0.24152145D-01 -0.26982169D-01 -0.23569536D-01 -0.69813194D-02
  0.18147420D-01  0.27916866D-01  0.48863041D-02 -0.15413576D-01 -0.13083795D-01
  0.48814470D-02 -0.53284817D-02 -0.15838732D-02 -0.13951532D-03 -0.44952962D-02
 -0.64499541D-02 -0.85400821D-02 -0.98613752D-02 -0.91419484D-02 -0.59186641D-02
 -0.20890711D-02 -0.24485714D-03 -0.35597697D-05 -0.52128864D-06 -0.53596568D-08
  0.64522493D-01  0.92578354D-01  0.12257866D+00  0.14154362D+00  0.13121745D+00
  0.84952570D-01  0.29985138D-01  0.35145167D-02  0.51094568D-04  0.74822307D-05
  0.76928951D-07  0.39663100D-14  0.56909525D-14  0.75351237D-14  0.87009330D-14
  0.80661651D-14  0.52221824D-14  0.18432386D-14  0.21604346D-15  0.31408720D-17
  0.45994574D-18  0.47289565D-20  0.68355601D-02  0.98672095D-02  0.13182356D-01
  0.15661043D-01  0.15176751D-01  0.10549778D-01  0.34327966D-02 -0.15450309D-02
 -0.16691489D-02 -0.42971726D-03  0.41914951D-06 -0.39714494D-01 -0.57328329D-01
 -0.76589277D-01 -0.90990411D-01 -0.88176682D-01 -0.61294042D-01 -0.19944493D-01
  0.89766048D-02  0.96977280D-02  0.24966504D-02 -0.24352519D-05 -0.22966093D-14
 -0.33151820D-14 -0.44290039D-14 -0.52617925D-14 -0.50990802D-14 -0.35445112D-14
 -0.11533499D-14  0.51909900D-15  0.56080011D-15  0.14437627D-15 -0.14082572D-18
 -0.48314514D-02 -0.70203132D-02 -0.93335879D-02 -0.11199659D-01 -0.10835720D-01
 -0.76920995D-02 -0.23907239D-02  0.13726028D-02  0.15768159D-02  0.41873733D-03
 -0.15108173D-03  0.28889562D-01  0.41977815D-01  0.55809992D-01  0.66968127D-01
  0.64791959D-01  0.45994747D-01  0.14295283D-01 -0.82074496D-02 -0.94285377D-02
 -0.25038310D-02  0.90339005D-03  0.15409147D-14  0.22390174D-14  0.29767996D-14
  0.35719534D-14  0.34558807D-14  0.24532729D-14  0.76248339D-15 -0.43776986D-15
 -0.50290039D-15 -0.13354962D-15  0.48185119D-16  0.12779206D-03 -0.45763221D-03
 -0.50142429D-16  0.68544376D-04 -0.57353853D-03 -0.31011942D-16  0.73611232D-05
 -0.84737666D-05 -0.23803966D-17  0.19523886D-03  0.20429643D-03  0.17407149D-03
  0.11463924D-03  0.52833812D-04  0.15821170D-04  0.26918380D-05 -0.55916212D-03
 -0.58510292D-03 -0.49853900D-03 -0.32832562D-03 -0.15131550D-03 -0.45311672D-04
 -0.77093969D-05  0.36392327D-03  0.38080649D-03  0.32446751D-03  0.21368638D-03
  0.98481692D-04  0.29490502D-04  0.50175589D-05 -0.79539689D-04 -0.83229714D-04
 -0.70916171D-04 -0.46703660D-04 -0.21524326D-04 -0.64454944D-05 -0.10966462D-05
  0.37080099D-15  0.38800328D-15  0.33059957D-15  0.21772481D-15  0.10034288D-15
  0.30047838D-16  0.51123849D-17  0.13793831D-15  0.14433757D-15  0.12298334D-15
  0.80993826D-16  0.37327643D-16  0.11177823D-16  0.19018118D-17 -0.16641991D-03
  0.32819522D-03 -0.16177531D-03  0.13604395D-04 -0.14145925D-16 -0.22221591D-16
 -0.17817155D-04  0.36139409D-04 -0.18322254D-04 -0.80747284D-04  0.28823069D-17
  0.17216501D-16  0.48649647D-04 -0.90782908D-04  0.42133262D-04  0.36370469D-04
  0.56844284D-17 -0.14690467D-16  0.44199858D-04  0.22852221D-03 -0.63826744D-17
 -0.11787827D-03 -0.36761243D-03 -0.32162800D-17 -0.14721306D-04 -0.31795420D-03
  0.22364303D-16 -0.56620348D-16 -0.11807553D-04 -0.63918367D-04  0.32688008D-17
  0.22907304D-04  0.10851241D-03  0.14860771D-17  0.12515355D-04  0.83242688D-04
 -0.11292479D-16  0.18953211D-16
MO    3     MO 0.0        OCC NO =    2.0000000  ORB. ENERGY =  -55.756106
  0.16347834D-03  0.30461782D-03  0.51518510D-03  0.77584021D-03  0.96054051D-03
  0.81737662D-03  0.31102688D-03 -0.14566716D-05 -0.11441676D-03 -0.21453249D-03
 -0.36498360D-03 -0.56678099D-03 -0.75215134D-03 -0.79266427D-03 -0.49150241D-03
  0.32694759D-03  0.12029193D-03 -0.13901211D-02 -0.22435989D-03 -0.18680161D-03
 -0.17942071D-03 -0.12582219D-03 -0.21837814D-03 -0.20974959D-03 -0.14709089D-03
 -0.37103004D-15 -0.35636992D-15 -0.24991118D-15  0.23033507D-03  0.57512611D-04
  0.44715734D-16  0.13512769D-03  0.72621170D-03  0.79272405D-16  0.13073473D-05
  0.27407128D-04  0.46835192D-17 -0.26636694D-03  0.30216093D-03 -0.35793981D-04
  0.48668494D-04  0.15156371D-16  0.33418083D-16  0.22917851D-03 -0.21667435D-03
 -0.12504159D-04 -0.20201438D-04 -0.51972935D-16 -0.12763110D-16  0.38827109D-04
 -0.63528275D-04  0.24701165D-04 -0.35221344D-04 -0.73782916D-17  0.13358729D-17
 -0.31186122D-04  0.55675800D-04 -0.55718500D-17  0.18942349D-04 -0.53920731D-04
  0.24979402D-16  0.74616017D-04 -0.11310667D-03 -0.82638519D-17  0.55602081D-17
 -0.16972552D-04  0.42654832D-04  0.44232972D-17 -0.29311686D-04 -0.52373270D-04
 -0.25239775D-17  0.80229342D-04 -0.75591227D-04 -0.10745914D-16  0.90301913D-17
 -0.10627748D-05 -0.19167580D-05 -0.28262586D-05  0.42320138D-03 -0.48064905D-04
 -0.28151997D-05  0.54235422D-04  0.63245138D-04 -0.13149230D-04  0.13355399D-03
 -0.18683206D-03 -0.10015710D-03 -0.74338192D-05  0.14007439D-04  0.12058945D-04
  0.68463250D-05  0.68767085D-04 -0.75613410D-04 -0.57156220D-04 -0.12444164D-03
  0.51201693D-04  0.14436236D-04 -0.11957443D-04 -0.24787932D-05  0.72960012D-05
  0.20135977D-05  0.57246333D-05 -0.10627748D-05 -0.19167580D-05 -0.28262586D-05
  0.42320138D-03 -0.48064905D-04 -0.28151997D-05  0.54235422D-04  0.63245138D-04
  0.13149230D-04  0.13355399D-03 -0.18683206D-03  0.10015710D-03 -0.74338192D-05
  0.14007439D-04 -0.12058945D-04  0.68463250D-05  0.68767085D-04 -0.75613410D-04
 -0.57156220D-04  0.12444164D-03 -0.51201693D-04  0.14436236D-04 -0.11957443D-04
 -0.24787932D-05  0.72960012D-05 -0.20135977D-05 -0.57246333D-05 -0.99351682D-05
 -0.18689262D-04 -0.32352033D-04 -0.53031172D-04 -0.83074358D-04 -0.12486784D-03
 -0.17846750D-03 -0.23692005D-03 -0.27592557D-03 -0.25343497D-03 -0.14819339D-03
 -0.38886688D-04 -0.21259201D-05  0.76090824D-07 -0.21264984D-07  0.63142913D-08
 -0.10764773D-08 -0.87825745D-10  0.28066282D-03  0.51566457D-03  0.89170289D-03
  0.14602881D-02  0.22991580D-02  0.34719539D-02  0.50679923D-02  0.69789333D-02
  0.89172084D-02  0.97208020D-02  0.80017168D-02  0.21940164D-02 -0.44254734D-02
 -0.43128171D-02 -0.94376588D-03 -0.31794604D-04 -0.10770996D-05  0.27400024D-08
 -0.22820742D-04 -0.44737796D-04 -0.78357142D-04 -0.12801007D-03 -0.20190272D-03
 -0.30466218D-03 -0.44669529D-03 -0.61673675D-03 -0.79960225D-03 -0.88920476D-03
 -0.77232907D-03 -0.22434778D-03  0.56557804D-03  0.82408705D-03  0.14186953D-03
 -0.34610091D-03 -0.16473531D-03  0.79555712D-06  0.15381444D-04  0.33327874D-04
  0.56735421D-04  0.92607486D-04  0.14598661D-03  0.22033597D-03  0.32304843D-03
  0.44659153D-03  0.57963100D-03  0.64754918D-03  0.56564887D-03  0.16754575D-03
 -0.43552270D-03 -0.66998112D-03 -0.11726715D-03  0.36991276D-03  0.31399999D-03
 -0.11715059D-03 -0.33069054D-03  0.96534028D-03  0.12569601D-03 -0.92623719D+00
 -0.13289864D+01 -0.17596486D+01 -0.20318956D+01 -0.18836607D+01 -0.12195163D+01
 -0.43044446D+00 -0.50451802D-01 -0.73347582D-03 -0.10740937D-03 -0.11043351D-05
  0.52014284D+02  0.74631288D+02  0.98815794D+02  0.11410424D+03  0.10577988D+03
  0.68483825D+02  0.24172275D+02  0.28331991D+01  0.41189471D-01  0.60317395D-02
  0.62015650D-04  0.33923442D-12  0.48674132D-12  0.64447139D-12  0.74418186D-12
  0.68989082D-12  0.44664789D-12  0.15765030D-12  0.18477975D-13  0.26863556D-15
  0.39338687D-16  0.40446279D-18  0.70833386D-03  0.10224881D-02  0.13660196D-02
  0.16228732D-02  0.15726885D-02  0.10932191D-02  0.35572302D-03 -0.16010359D-03
 -0.17296529D-03 -0.44529385D-04  0.43434303D-07 -0.39709845D-01 -0.57321617D-01
 -0.76580310D-01 -0.90979758D-01 -0.88166359D-01 -0.61286866D-01 -0.19942158D-01
  0.89755538D-02  0.96965927D-02  0.24963581D-02 -0.24349668D-05  0.11820802D-15
  0.17063464D-15  0.22796380D-15  0.27082799D-15  0.26245308D-15  0.18243837D-15
  0.59363696D-16 -0.26718374D-16 -0.28864758D-16 -0.74311436D-17  0.72483944D-20
 -0.63588254D-03 -0.92396554D-03 -0.12284229D-02 -0.14740224D-02 -0.14261232D-02
 -0.10123814D-02 -0.31465070D-03  0.18065258D-03  0.20752971D-03  0.55111339D-04
 -0.19884343D-04  0.36824697D-01  0.53507919D-01  0.71139399D-01  0.85362354D-01
  0.82588455D-01  0.58628187D-01  0.18221788D-01 -0.10461801D-01 -0.12018287D-01
 -0.31915617D-02  0.11515254D-02 -0.40362194D-16 -0.58648058D-16 -0.77973273D-16
 -0.93562531D-16 -0.90522162D-16 -0.64260195D-16 -0.19972230D-16  0.11466795D-16
  0.13172802D-16  0.34981532D-17 -0.12621446D-17  0.50921465D-04 -0.25027290D-02
 -0.10939853D-16 -0.28316426D-04  0.25513036D-03  0.42897765D-17 -0.22468904D-06
  0.70672646D-05  0.27140846D-18 -0.37124515D-02 -0.38846805D-02 -0.33099557D-02
 -0.21798561D-02 -0.10046308D-02 -0.30083831D-03 -0.51185087D-04  0.75214946D-02
  0.78704336D-02  0.67060307D-02  0.44164282D-02  0.20354003D-02  0.60950390D-03
  0.10370192D-03 -0.38090431D-02 -0.39857532D-02 -0.33960750D-02 -0.22365721D-02
 -0.10307695D-02 -0.30866560D-03 -0.52516835D-04 -0.94757010D-03 -0.99153001D-03
 -0.84483664D-03 -0.55638880D-03 -0.25642303D-03 -0.76786292D-04 -0.13064537D-04
 -0.48907564D-16 -0.51176496D-16 -0.43605114D-16 -0.28717264D-16 -0.13234932D-16
 -0.39632218D-17 -0.67430859D-18  0.34846411D-15  0.36463015D-15  0.31068440D-15
  0.20460917D-15  0.94298273D-16  0.28237770D-16  0.48044172D-17  0.12075496D-03
 -0.24269946D-03  0.12194450D-03  0.37120539D-04 -0.68385350D-18 -0.12364214D-17
 -0.15566383D-03  0.31059455D-03 -0.15493073D-03 -0.28654495D-04  0.11942499D-17
 -0.21248793D-17 -0.14129828D-04  0.26278707D-04 -0.12148878D-04 -0.12491038D-04
 -0.90328583D-18  0.25768487D-17 -0.32942096D-05  0.47731867D-04  0.12408449D-17
  0.23634661D-04 -0.67446535D-04 -0.46992524D-18 -0.13752032D-04 -0.75749066D-04
 -0.32526094D-17  0.52187901D-17  0.34386137D-05  0.39589165D-04 -0.54403998D-18
 -0.15977598D-04 -0.62585044D-04  0.12488264D-18  0.56617568D-05 -0.56182450D-04
  0.15072373D-17 -0.16195150D-17
MO    4     MO 0.0        OCC NO =    2.0000000  ORB. ENERGY =  -55.750627
 -0.82422853D-17 -0.15358285D-16 -0.25974710D-16 -0.39116474D-16 -0.48428733D-16
 -0.41210666D-16 -0.15681419D-16  0.73442773D-19  0.27233999D-17  0.51064002D-17
  0.86875061D-17  0.13490780D-16  0.17903049D-16  0.18867357D-16  0.11698965D-16
 -0.77821558D-17  0.50906016D-16  0.15665680D-15  0.21981619D-17  0.11141553D-15
  0.10701329D-15  0.75045102D-16  0.29020949D-15  0.27874274D-15  0.19547365D-15
  0.35112215D-04  0.33724862D-04  0.23650201D-04  0.30658932D-16 -0.22309270D-15
 -0.80693859D-04  0.28483465D-16 -0.34769381D-17 -0.21257897D-03 -0.15060656D-17