 Molden2AIM, Version 4.0.0 (06/02/2016)           Time: Fri Jun 29 04:20:22 2018
GAUSSIAN             12 MOL ORBITALS    252 PRIMITIVES        4 NUCLEI
  O    1    (CENTRE  1)  -0.00947320  0.00000000  0.00640995  CHARGE =  8.0
  N    2    (CENTRE  2)   0.01225298  0.00000000  2.24022119  CHARGE =  7.0
  O    3    (CENTRE  3)   2.38356447  0.00000000  3.25311817  CHARGE =  8.0
  H    4    (CENTRE  4)   3.55613764  0.00000000  1.82082104  CHARGE =  1.0
CENTRE ASSIGNMENTS    1  1  1  1  1  1  1  1  1  1  1  1  1  1  1  1  1  1  1  1
CENTRE ASSIGNMENTS    1  1  1  1  1  1  1  1  1  1  1  1  1  1  1  1  1  1  1  1
CENTRE ASSIGNMENTS    1  1  1  1  1  1  1  1  1  1  1  1  1  1  1  1  1  1  1  1
CENTRE ASSIGNMENTS    1  1  1  1  1  1  1  1  1  1  1  1  1  1  1  2  2  2  2  2
CENTRE ASSIGNMENTS    2  2  2  2  2  2  2  2  2  2  2  2  2  2  2  2  2  2  2  2
CENTRE ASSIGNMENTS    2  2  2  2  2  2  2  2  2  2  2  2  2  2  2  2  2  2  2  2
CENTRE ASSIGNMENTS    2  2  2  2  2  2  2  2  2  2  2  2  2  2  2  2  2  2  2  2
CENTRE ASSIGNMENTS    2  2  2  2  2  2  2  2  2  2  3  3  3  3  3  3  3  3  3  3
CENTRE ASSIGNMENTS    3  3  3  3  3  3  3  3  3  3  3  3  3  3  3  3  3  3  3  3
CENTRE ASSIGNMENTS    3  3  3  3  3  3  3  3  3  3  3  3  3  3  3  3  3  3  3  3
CENTRE ASSIGNMENTS    3  3  3  3  3  3  3  3  3  3  3  3  3  3  3  3  3  3  3  3
CENTRE ASSIGNMENTS    3  3  3  3  3  4  4  4  4  4  4  4  4  4  4  4  4  4  4  4
CENTRE ASSIGNMENTS    4  4  4  4  4  4  4  4  4  4  4  4
TYPE ASSIGNMENTS      1  1  1  1  1  1  1  1  1  1  1  1  1  1  1  1  1  1  1  2
TYPE ASSIGNMENTS      2  2  3  3  3  4  4  4  2  3  4  2  3  4  2  3  4  5  6  7
TYPE ASSIGNMENTS      8  9 10  5  6  7  8  9 10  5  6  7  8  9 10 11 12 13 17 14
TYPE ASSIGNMENTS     15 18 19 16 20 11 12 13 17 14 15 18 19 16 20  1  1  1  1  1
TYPE ASSIGNMENTS      1  1  1  1  1  1  1  1  1  1  1  1  1  1  2  2  2  3  3  3
TYPE ASSIGNMENTS      4  4  4  2  3  4  2  3  4  2  3  4  5  6  7  8  9 10  5  6
TYPE ASSIGNMENTS      7  8  9 10  5  6  7  8  9 10 11 12 13 17 14 15 18 19 16 20
TYPE ASSIGNMENTS     11 12 13 17 14 15 18 19 16 20  1  1  1  1  1  1  1  1  1  1
TYPE ASSIGNMENTS      1  1  1  1  1  1  1  1  1  2  2  2  3  3  3  4  4  4  2  3
TYPE ASSIGNMENTS      4  2  3  4  2  3  4  5  6  7  8  9 10  5  6  7  8  9 10  5
TYPE ASSIGNMENTS      6  7  8  9 10 11 12 13 17 14 15 18 19 16 20 11 12 13 17 14
TYPE ASSIGNMENTS     15 18 19 16 20  1  1  1  1  1  1  2  3  4  2  3  4  2  3  4
TYPE ASSIGNMENTS      5  6  7  8  9 10  5  6  7  8  9 10
EXPONENTS  0.1533000D+05 0.2299000D+04 0.5224000D+03 0.1473000D+03 0.4755000D+02
EXPONENTS  0.1676000D+02 0.6207000D+01 0.6882000D+00 0.1533000D+05 0.2299000D+04
EXPONENTS  0.5224000D+03 0.1473000D+03 0.4755000D+02 0.1676000D+02 0.6207000D+01
EXPONENTS  0.6882000D+00 0.1752000D+01 0.2384000D+00 0.7376000D-01 0.3446000D+02
EXPONENTS  0.7749000D+01 0.2280000D+01 0.3446000D+02 0.7749000D+01 0.2280000D+01
EXPONENTS  0.3446000D+02 0.7749000D+01 0.2280000D+01 0.7156000D+00 0.7156000D+00
EXPONENTS  0.7156000D+00 0.2140000D+00 0.2140000D+00 0.2140000D+00 0.5974000D-01
EXPONENTS  0.5974000D-01 0.5974000D-01 0.2314000D+01 0.2314000D+01 0.2314000D+01
EXPONENTS  0.2314000D+01 0.2314000D+01 0.2314000D+01 0.6450000D+00 0.6450000D+00
EXPONENTS  0.6450000D+00 0.6450000D+00 0.6450000D+00 0.6450000D+00 0.2140000D+00
EXPONENTS  0.2140000D+00 0.2140000D+00 0.2140000D+00 0.2140000D+00 0.2140000D+00
EXPONENTS  0.1428000D+01 0.1428000D+01 0.1428000D+01 0.1428000D+01 0.1428000D+01
EXPONENTS  0.1428000D+01 0.1428000D+01 0.1428000D+01 0.1428000D+01 0.1428000D+01
EXPONENTS  0.5000000D+00 0.5000000D+00 0.5000000D+00 0.5000000D+00 0.5000000D+00
EXPONENTS  0.5000000D+00 0.5000000D+00 0.5000000D+00 0.5000000D+00 0.5000000D+00
EXPONENTS  0.1142000D+05 0.1712000D+04 0.3893000D+03 0.1100000D+03 0.3557000D+02
EXPONENTS  0.1254000D+02 0.4644000D+01 0.5118000D+00 0.1142000D+05 0.1712000D+04
EXPONENTS  0.3893000D+03 0.1100000D+03 0.3557000D+02 0.1254000D+02 0.4644000D+01
EXPONENTS  0.5118000D+00 0.1293000D+01 0.1787000D+00 0.5760000D-01 0.2663000D+02
EXPONENTS  0.5948000D+01 0.1742000D+01 0.2663000D+02 0.5948000D+01 0.1742000D+01
EXPONENTS  0.2663000D+02 0.5948000D+01 0.1742000D+01 0.5550000D+00 0.5550000D+00
EXPONENTS  0.5550000D+00 0.1725000D+00 0.1725000D+00 0.1725000D+00 0.4910000D-01
EXPONENTS  0.4910000D-01 0.4910000D-01 0.1654000D+01 0.1654000D+01 0.1654000D+01
EXPONENTS  0.1654000D+01 0.1654000D+01 0.1654000D+01 0.4690000D+00 0.4690000D+00
EXPONENTS  0.4690000D+00 0.4690000D+00 0.4690000D+00 0.4690000D+00 0.1510000D+00
EXPONENTS  0.1510000D+00 0.1510000D+00 0.1510000D+00 0.1510000D+00 0.1510000D+00
EXPONENTS  0.1093000D+01 0.1093000D+01 0.1093000D+01 0.1093000D+01 0.1093000D+01
EXPONENTS  0.1093000D+01 0.1093000D+01 0.1093000D+01 0.1093000D+01 0.1093000D+01
EXPONENTS  0.3640000D+00 0.3640000D+00 0.3640000D+00 0.3640000D+00 0.3640000D+00
EXPONENTS  0.3640000D+00 0.3640000D+00 0.3640000D+00 0.3640000D+00 0.3640000D+00
EXPONENTS  0.1533000D+05 0.2299000D+04 0.5224000D+03 0.1473000D+03 0.4755000D+02
EXPONENTS  0.1676000D+02 0.6207000D+01 0.6882000D+00 0.1533000D+05 0.2299000D+04
EXPONENTS  0.5224000D+03 0.1473000D+03 0.4755000D+02 0.1676000D+02 0.6207000D+01
EXPONENTS  0.6882000D+00 0.1752000D+01 0.2384000D+00 0.7376000D-01 0.3446000D+02
EXPONENTS  0.7749000D+01 0.2280000D+01 0.3446000D+02 0.7749000D+01 0.2280000D+01
EXPONENTS  0.3446000D+02 0.7749000D+01 0.2280000D+01 0.7156000D+00 0.7156000D+00
EXPONENTS  0.7156000D+00 0.2140000D+00 0.2140000D+00 0.2140000D+00 0.5974000D-01
EXPONENTS  0.5974000D-01 0.5974000D-01 0.2314000D+01 0.2314000D+01 0.2314000D+01
EXPONENTS  0.2314000D+01 0.2314000D+01 0.2314000D+01 0.6450000D+00 0.6450000D+00
EXPONENTS  0.6450000D+00 0.6450000D+00 0.6450000D+00 0.6450000D+00 0.2140000D+00
EXPONENTS  0.2140000D+00 0.2140000D+00 0.2140000D+00 0.2140000D+00 0.2140000D+00
EXPONENTS  0.1428000D+01 0.1428000D+01 0.1428000D+01 0.1428000D+01 0.1428000D+01
EXPONENTS  0.1428000D+01 0.1428000D+01 0.1428000D+01 0.1428000D+01 0.1428000D+01
EXPONENTS  0.5000000D+00 0.5000000D+00 0.5000000D+00 0.5000000D+00 0.5000000D+00
EXPONENTS  0.5000000D+00 0.5000000D+00 0.5000000D+00 0.5000000D+00 0.5000000D+00
EXPONENTS  0.3387000D+02 0.5095000D+01 0.1159000D+01 0.3258000D+00 0.1027000D+00
EXPONENTS  0.2526000D-01 0.1407000D+01 0.1407000D+01 0.1407000D+01 0.3880000D+00
EXPONENTS  0.3880000D+00 0.3880000D+00 0.1020000D+00 0.1020000D+00 0.1020000D+00
EXPONENTS  0.1057000D+01 0.1057000D+01 0.1057000D+01 0.1057000D+01 0.1057000D+01
EXPONENTS  0.1057000D+01 0.2470000D+00 0.2470000D+00 0.2470000D+00 0.2470000D+00
EXPONENTS  0.2470000D+00 0.2470000D+00
MO    1     MO 0.0        OCC NO =    2.0000000  ORB. ENERGY =  -18.846878
  0.60679651D-04  0.11309906D-03  0.19177854D-03  0.29026575D-03  0.36216690D-03
  0.31105307D-03  0.11941932D-03 -0.53416995D-06 -0.19037602D-04 -0.35705494D-04
 -0.60870041D-04 -0.95128025D-04 -0.12720430D-03 -0.13582453D-03 -0.83040455D-04
  0.54785048D-04 -0.18138609D-04 -0.43690418D-03 -0.16636607D-03  0.18687700D-03
  0.18120783D-03  0.12224173D-03  0.30762878D-15  0.29829644D-15  0.20122902D-15
 -0.73089138D-04 -0.70871878D-04 -0.47809750D-04 -0.10238526D-03 -0.76412392D-16
  0.14752193D-03 -0.26152686D-04  0.23833849D-17 -0.16591268D-04 -0.86266656D-05
 -0.27314579D-18 -0.40375504D-05  0.27827098D-03 -0.60549320D-04 -0.21772166D-03
  0.28186721D-18  0.13235557D-03 -0.90191931D-17 -0.22920324D-03  0.10292567D-04
  0.21891067D-03 -0.17105319D-18 -0.15615491D-03  0.91519276D-17 -0.24139227D-04
 -0.11675937D-04  0.35815164D-04 -0.12486916D-18  0.25445690D-04  0.60754660D-18
  0.85959263D-04 -0.13766125D-17 -0.14124886D-04  0.49630357D-03 -0.13287814D-17
 -0.77534488D-04 -0.75418135D-03  0.54586188D-17  0.11990914D-03  0.96959932D-18
  0.20228978D-04 -0.62937353D-18  0.73572790D-04 -0.94766497D-04 -0.60416813D-18
 -0.19684661D-03  0.34079564D-04  0.24922887D-17 -0.23871760D-04 -0.41702722D-18
  0.26736606D-03  0.49819728D-03  0.84257651D-03  0.12688735D-02  0.15709477D-02
  0.13368056D-02  0.50867920D-03 -0.23823617D-05 -0.17930363D-03 -0.33619597D-03
 -0.57196938D-03 -0.88820806D-03 -0.11787038D-02 -0.12421920D-02 -0.77023826D-03
  0.51236279D-03 -0.49092130D-03  0.22848979D-02  0.72701775D-03 -0.10941817D-02
 -0.10509484D-02 -0.73699756D-03  0.17899985D-17  0.17192722D-17  0.12056723D-17
 -0.51377093D-03 -0.49347083D-03 -0.34605581D-03  0.21093136D-02 -0.33159973D-17
  0.13382511D-02  0.90518593D-03 -0.14817789D-17 -0.12824308D-03  0.67811619D-04
  0.20534844D-18  0.23132072D-06  0.85069678D-03 -0.38931937D-03 -0.46137741D-03
 -0.21515313D-18  0.18120882D-02 -0.27110671D-17  0.66188411D-03 -0.40576224D-03
 -0.25612186D-03  0.46179490D-18  0.55973736D-03  0.76627880D-17  0.48067193D-04
 -0.61771768D-04  0.13704575D-04  0.14269084D-19 -0.29049195D-04  0.49352443D-19
  0.13984598D-03  0.25447844D-17 -0.17556107D-03 -0.64634269D-03  0.30199211D-17
  0.10591229D-02  0.22680475D-03 -0.10654274D-16 -0.53243974D-03  0.80640378D-18
  0.31498695D-04  0.53150969D-18 -0.55856175D-05 -0.17681372D-04  0.46112645D-18
 -0.12728232D-03 -0.76814715D-04 -0.20556555D-17  0.14403918D-03 -0.61032725D-18
  0.49655838D+00  0.92552093D+00  0.15693768D+01  0.23753250D+01  0.29637120D+01
  0.25454334D+01  0.97724136D+00 -0.43712606D-02  0.72918163D-04  0.13675982D-03
  0.23314552D-03  0.36436106D-03  0.48722016D-03  0.52023754D-03  0.31806303D-03
 -0.20983867D-03  0.56626658D-01 -0.12347402D-02 -0.89382612D-03 -0.23777626D-02
 -0.23056299D-02 -0.15553643D-02 -0.30486544D-16 -0.29561693D-16 -0.19942143D-16
 -0.68740476D-02 -0.66655139D-02 -0.44965163D-02  0.16709454D-02  0.35970352D-17
 -0.23404450D-03  0.11496365D-02 -0.23266253D-18  0.92631620D-03  0.80098536D-04
  0.32820285D-20  0.38640071D-04  0.27886829D-02 -0.29586973D-02  0.17001446D-03
  0.16234928D-17 -0.13806071D-02  0.27046081D-17 -0.11317128D-02  0.68920754D-03
  0.44250529D-03  0.10618855D-17 -0.14954471D-02 -0.60638641D-18 -0.17808800D-03
  0.18859358D-03 -0.10505573D-04  0.11732201D-18 -0.15429547D-03  0.20299346D-18
 -0.26719528D-03 -0.54586356D-18 -0.14215201D-03 -0.12601441D-02 -0.99963290D-18
 -0.69746273D-03  0.20617299D-02  0.26372236D-17  0.11239188D-02  0.11678582D-17
  0.21159400D-03 -0.15751634D-18 -0.18383472D-03 -0.17267673D-03  0.31035346D-18
  0.10173002D-02 -0.46210528D-03  0.16219556D-18 -0.46579608D-03 -0.17737865D-17
  0.21618866D-03  0.38990514D-03  0.57491491D-03 -0.11715063D-03 -0.30196690D-03
 -0.31165378D-04  0.48498297D-03 -0.60996311D-18 -0.26814359D-03  0.69474478D-03
 -0.88275770D-18 -0.48126225D-03  0.98264840D-04  0.95667588D-19 -0.66426048D-04
 -0.49666510D-03  0.11272485D-02 -0.63058340D-03  0.16221615D-17  0.34688208D-02
 -0.18830215D-17 -0.48025669D-04  0.49757361D-04 -0.17316922D-05 -0.26586752D-18
  0.84460020D-04 -0.15365790D-18
MO    2     MO 0.0        OCC NO =    2.0000000  ORB. ENERGY =  -18.837401
  0.49652910D+00  0.92546635D+00  0.15692843D+01  0.23751849D+01  0.29635372D+01
  0.25452832D+01  0.97718373D+00 -0.43710028D-02  0.91602127D-04  0.17180206D-03
  0.29288485D-03  0.45772201D-03  0.61206154D-03  0.65353903D-03  0.39956095D-03
 -0.26360604D-03  0.56605211D-01  0.41572713D-03 -0.65759460D-03  0.10157440D-02
  0.98492998D-03  0.66442794D-03  0.51826182D-16  0.50253964D-16  0.33901027D-16
  0.78340734D-02  0.75964160D-02  0.51244973D-02 -0.20482868D-03 -0.54213725D-17
  0.74360667D-03 -0.73663070D-04  0.55941595D-18 -0.10374839D-02 -0.55060601D-05
 -0.16625766D-19 -0.62395807D-04 -0.21600487D-02 -0.17417729D-02  0.39018216D-02
  0.58875175D-17  0.73449995D-03 -0.96764827D-17  0.18477903D-03  0.47536535D-03
 -0.66014438D-03 -0.24499291D-18 -0.43063980D-03 -0.13200944D-17  0.11742201D-03
  0.14129048D-03 -0.25871249D-03  0.22264759D-19 -0.14120122D-04  0.75356940D-19
 -0.15729560D-04  0.58977710D-18  0.45574370D-03  0.26196382D-03  0.34244422D-18
 -0.72550727D-03 -0.21477514D-03 -0.21117755D-17 -0.64172383D-03 -0.84168870D-19
  0.46878124D-04  0.63849603D-19 -0.29285667D-03 -0.15113984D-04  0.11591963D-18
  0.31532462D-03 -0.12552039D-03 -0.30746844D-18  0.56324537D-03  0.41518697D-20
  0.52209505D-03  0.97284725D-03  0.16453286D-02  0.24777737D-02  0.30676446D-02
  0.26104271D-02  0.99331566D-03 -0.46521210D-05 -0.38630154D-03 -0.72431900D-03
 -0.12322821D-02 -0.19136040D-02 -0.25394638D-02 -0.26762463D-02 -0.16594434D-02
  0.11038624D-02  0.68634784D-03  0.26349224D-03  0.24620868D-03  0.43861575D-04
  0.42128518D-04  0.29543425D-04 -0.78931558D-18 -0.75812818D-18 -0.53165181D-18
 -0.13609955D-02 -0.13072199D-02 -0.91671281D-03 -0.15815444D-03  0.74374616D-18
 -0.89586072D-03  0.87264643D-04 -0.20472537D-18 -0.40938025D-04  0.32202536D-05
  0.63938305D-20 -0.32250279D-04 -0.12114203D-02 -0.70706546D-03  0.19184857D-02
  0.25805154D-18  0.93245921D-03  0.23920468D-18  0.60319014D-03  0.39526332D-03
 -0.99845346D-03 -0.18669151D-18 -0.10663114D-02 -0.12813743D-17  0.75660813D-04
  0.31370821D-04 -0.10703163D-03 -0.16413192D-19 -0.86445929D-04  0.10221184D-18
 -0.80301292D-05 -0.59739849D-18  0.11692189D-02 -0.26213826D-04 -0.67943890D-18
 -0.20026650D-02  0.50304214D-04  0.24716344D-17 -0.15049917D-02 -0.72964384D-19
  0.72129541D-04 -0.39118110D-19  0.23083796D-03 -0.29861739D-04 -0.11546752D-18
 -0.55569083D-03 -0.18652688D-03  0.23282186D-18 -0.13682305D-03 -0.62980879D-19
 -0.86536055D-06 -0.16129207D-05 -0.27349791D-05 -0.41395183D-05 -0.51649102D-05
 -0.44359691D-05 -0.17030548D-05  0.76178686D-08 -0.19381615D-04 -0.36350700D-04
 -0.61969974D-04 -0.96847007D-04 -0.12950290D-03 -0.13827891D-03 -0.84541012D-04
  0.55775025D-04 -0.10800327D-03  0.77619816D-03  0.20350556D-03  0.19896390D-03
  0.19292806D-03  0.13014813D-03 -0.12549414D-18 -0.12168710D-18 -0.82089402D-19
 -0.20760445D-03 -0.20130648D-03 -0.13580016D-03 -0.29531795D-03  0.11707970D-18
  0.50843137D-04 -0.79578985D-04  0.53298188D-19  0.35573615D-04 -0.14894557D-04
 -0.66613115D-20  0.35807234D-05 -0.81173536D-03  0.96434511D-04  0.71530085D-03
  0.48661820D-18  0.16427336D-02 -0.13585377D-18  0.67766148D-03 -0.15178820D-03
 -0.52587329D-03 -0.33497206D-18 -0.98872989D-03  0.16587737D-19  0.10279593D-03
 -0.51737184D-04 -0.51058744D-04 -0.33951774D-19 -0.14789217D-03 -0.49145628D-19
 -0.21452015D-03 -0.11245178D-18  0.18925294D-03  0.21032610D-03  0.11223105D-18
 -0.83333238D-04  0.43323436D-03  0.22512429D-18 -0.48442557D-03 -0.28541804D-19
 -0.15650868D-03  0.27814773D-19  0.22719804D-04 -0.77770444D-04  0.40795556D-19
 -0.15837957D-03  0.54729648D-03 -0.12423988D-18  0.90220156D-04  0.17435617D-18
 -0.60433001D-04 -0.10899341D-03 -0.16071071D-03 -0.65959867D-03 -0.21422983D-03
 -0.42393937D-05 -0.40061989D-04  0.19577487D-18 -0.35754210D-03  0.16939931D-03
  0.40289142D-20 -0.23719555D-03  0.44973556D-04  0.87283475D-20 -0.34688140D-04
  0.20162199D-03 -0.25130149D-04 -0.17649184D-03 -0.13571390D-18 -0.56301607D-04
  0.53610758D-19 -0.17697341D-04  0.22300840D-04 -0.46034985D-05  0.20966284D-19
 -0.20340481D-04  0.36096125D-19
MO    3     MO 0.0        OCC NO =    2.0000000  ORB. ENERGY =  -14.169900
  0.55133411D-03  0.10276158D-02  0.17424960D-02  0.26373488D-02  0.32906413D-02
  0.28262220D-02  0.10850416D-02 -0.48534576D-05 -0.43541608D-03 -0.81663365D-03
 -0.13921813D-02 -0.21757084D-02 -0.29093368D-02 -0.31064934D-02 -0.18992491D-02
  0.12530092D-02  0.99846590D-03 -0.17342119D-02 -0.82606537D-03  0.31059811D-03
  0.30117569D-03  0.20317134D-03 -0.51396482D-15 -0.49837299D-15 -0.33619947D-15
  0.35324207D-02  0.34252599D-02  0.23106601D-02 -0.35313788D-03 -0.12154872D-16
 -0.17537535D-02  0.27030025D-03 -0.17579807D-17 -0.20817134D-02  0.81910218D-05
 -0.23153626D-18 -0.96781889D-04 -0.13788358D-02 -0.12812672D-02  0.26601030D-02
  0.17133106D-17  0.15757179D-03  0.75877932D-17  0.14593676D-02  0.14232982D-02
 -0.28826658D-02 -0.66904628D-18 -0.30018880D-03 -0.54964441D-17  0.20688553D-03
  0.23444229D-03 -0.44132782D-03  0.10659962D-18  0.58801096D-04 -0.19197368D-17
 -0.60679458D-05 -0.66737845D-18 -0.19711324D-02  0.63774386D-04 -0.11491137D-17
  0.32519690D-02 -0.45570548D-04  0.31512490D-17  0.26614282D-02 -0.83288300D-18
  0.45265114D-04  0.10475478D-17 -0.74779401D-03 -0.28610680D-04  0.11219822D-17
  0.10787703D-02 -0.10718466D-03 -0.42646256D-17  0.11646118D-02 -0.10729491D-18
  0.41139978D+00  0.76658292D+00  0.12964839D+01  0.19524329D+01  0.24172386D+01
  0.20569610D+01  0.78271159D+00 -0.36657723D-02 -0.12126941D-02 -0.22738127D-02
 -0.38684320D-02 -0.60072665D-02 -0.79719920D-02 -0.84013853D-02 -0.52093948D-02
  0.34652914D-02  0.45359029D-01  0.58626808D-03  0.97891339D-04  0.73163219D-02
  0.70272397D-02  0.49279856D-02 -0.43867331D-16 -0.42134047D-16 -0.29547302D-16
 -0.55209193D-02 -0.53027770D-02 -0.37186733D-02 -0.47515577D-03  0.96706709D-17
 -0.34718865D-02 -0.12240254D-02  0.12264560D-17  0.11337905D-03 -0.33156780D-04
  0.14055168D-18 -0.22537056D-04 -0.73470866D-03 -0.36917585D-02  0.44264671D-02
 -0.18042932D-17  0.26350894D-02  0.81648689D-17 -0.72690426D-03  0.48442797D-03
  0.24247629D-03  0.58876815D-18 -0.75145534D-03 -0.62395335D-17 -0.93558649D-04
  0.12328188D-03 -0.29723231D-04 -0.17353439D-18  0.94978593D-04 -0.86235536D-18
 -0.16051780D-04 -0.22834958D-17 -0.11525143D-02  0.11226529D-04 -0.15680449D-17
  0.16470825D-02  0.36928810D-04  0.84185322D-17  0.18104605D-02  0.13564105D-17
 -0.14637652D-03  0.19430137D-19  0.22889201D-03  0.28368273D-03  0.16347348D-18
 -0.50300898D-03  0.15544683D-03 -0.22176389D-18 -0.18366705D-03 -0.38579006D-18
  0.24495261D-03  0.45656016D-03  0.77417475D-03  0.11717495D-02  0.14620013D-02
  0.12556641D-02  0.48207388D-03 -0.21563461D-05 -0.17558716D-03 -0.32931808D-03
 -0.56141512D-03 -0.87738256D-03 -0.11732277D-02 -0.12527336D-02 -0.76589677D-03
  0.50529217D-03 -0.20131119D-03  0.17499958D-02  0.58825454D-04  0.48425632D-03
  0.46956574D-03  0.31676627D-03 -0.14240688D-17 -0.13808677D-17 -0.93152519D-18
  0.29817830D-03  0.28913265D-03  0.19504718D-03 -0.17447468D-02  0.13107016D-18
 -0.67169745D-03 -0.19706863D-03  0.10465991D-17 -0.10168645D-02  0.22273568D-05
  0.69069294D-19  0.40116654D-05  0.19184293D-02 -0.77574715D-03 -0.11426821D-02
 -0.91207914D-17  0.22691327D-02  0.14852136D-17 -0.34454268D-03 -0.91907413D-04
  0.43645009D-03  0.30160198D-17 -0.75786430D-04 -0.10659387D-17 -0.21141109D-03
 -0.27716768D-04  0.23912786D-03 -0.18624024D-18  0.60821956D-04 -0.84478303D-19
 -0.27096860D-03 -0.10134902D-18  0.12342512D-04  0.29844495D-03 -0.12185504D-17
  0.22522464D-05  0.51446084D-03  0.15225974D-17 -0.39279782D-04  0.39219771D-17
  0.13352182D-03  0.88233444D-19 -0.30388938D-03 -0.44974476D-03  0.46853006D-18
  0.88087124D-03  0.49179288D-04 -0.73323040D-18  0.30796894D-04 -0.13610734D-17
 -0.35074566D-05 -0.63258424D-05 -0.93274509D-05 -0.75305087D-03  0.42927344D-03
  0.13513790D-04  0.62598247D-03  0.47448088D-18  0.25931859D-04  0.51794435D-03
 -0.11414864D-17  0.42646819D-03 -0.81065591D-04 -0.15540312D-18  0.47459622D-04
 -0.67825869D-03  0.10333407D-04  0.66792528D-03  0.51904230D-18  0.35744427D-04
 -0.13304191D-17  0.12458189D-05 -0.29359053D-04  0.28113234D-04  0.32268514D-18
 -0.37766403D-04 -0.33593286D-18
MO    4     MO 0.0        OCC NO =    2.0000000  ORB. ENERGY =   -1.156318
 -0.83032362D-02 -0.15476164D-01 -0.26242446D-01 -0.39719165D-01 -0.49557921D-01
 -0.42563645D-01 -0.16341011D-01  0.73094344D-04 -0.61641667D-01 -0.11561047D+00
 -0.19709051D+00 -0.30801411D+00 -0.41187355D+00 -0.43978493D+00 -0.26887588D+00
  0.17738798D+00  0.98067386D-01  0.38337028D-01  0.16356810D-03  0.44729560D-01
  0.43372627D-01  0.29258918D-01  0.12810927D-14  0.12422290D-14  0.83800036D-15
  0.46221000D+00  0.44818822D+00  0.30234513D+00  0.10756485D-01  0.14990265D-15
  0.99603204D-01  0.15827920D-02  0.86599175D-17  0.64454584D-02  0.22841293D-04
 -0.58212610D-17 -0.18027342D-03 -0.33396872D-01 -0.26190106D-01  0.59586978D-01
  0.40060233D-15  0.13725217D-01 -0.21894213D-15 -0.76470928D-02 -0.60574321D-02
  0.13704525D-01  0.60143224D-18  0.47184598D-02  0.36753898D-16  0.75877873D-04
 -0.91450427D-04  0.15572553D-04 -0.55167404D-17  0.33712980D-03 -0.30000091D-17
 -0.17774742D-02  0.21596444D-17  0.15209709D-01 -0.17609682D-02 -0.13874897D-16
 -0.23099107D-01  0.70933908D-02  0.73959642D-17 -0.22530021D-01  0.23627307D-16
 -0.52618825D-04 -0.33952562D-17  0.78416696D-03 -0.95820411D-04 -0.17240754D-17
 -0.12869736D-02  0.25367689D-03  0.11909844D-16 -0.10655273D-02  0.29205343D-17
 -0.90621863D-02 -0.16886050D-01 -0.28558544D-01 -0.43007584D-01 -0.53246179D-01
 -0.45310095D-01 -0.17241327D-01  0.80748491D-04 -0.48375767D-01 -0.90705014D-01
 -0.15431622D+00 -0.23963679D+00 -0.31801196D+00 -0.33514095D+00 -0.20780877D+00
  0.13823447D+00  0.75065550D-01  0.12855094D-01 -0.15973134D-03  0.13926982D+00
  0.13376699D+00  0.93806649D-01 -0.20240966D-15 -0.19441206D-15 -0.13633515D-15
 -0.28668946D+00 -0.27536180D+00 -0.19310270D+00  0.37388853D-01 -0.65640306D-16
 -0.56614704D-01  0.21567442D-03 -0.12205984D-17 -0.52815957D-03 -0.66034339D-04
  0.17398038D-17  0.68693163D-04 -0.73822690D-02 -0.30574915D-01  0.37957184D-01
 -0.42899569D-16  0.44709885D-02  0.29587293D-16  0.20997638D-03 -0.50458001D-02
  0.48358238D-02 -0.50015871D-17  0.26442673D-02  0.19573134D-16 -0.76901773D-04
  0.16177361D-03 -0.84871840D-04  0.22029482D-18  0.40092037D-04  0.12927476D-17
  0.29394106D-02  0.13303056D-16 -0.11390814D-01 -0.69129511D-02 -0.77262009D-17
  0.22300245D-01 -0.19052809D-02 -0.32182966D-16  0.11872196D-01 -0.31295774D-16
  0.21716141D-04  0.41005692D-18 -0.93475661D-04 -0.21276257D-03  0.13699574D-17
  0.38393410D-03  0.14761415D-03 -0.26001282D-17 -0.10350712D-03  0.36359770D-17
 -0.47327150D-02 -0.88211719D-02 -0.14957785D-01 -0.22639304D-01 -0.28247241D-01
 -0.24260613D-01 -0.93141211D-02  0.41662635D-04 -0.38964772D-01 -0.73079396D-01
 -0.12458435D+00 -0.19470109D+00 -0.26035245D+00 -0.27799572D+00 -0.16996113D+00
  0.11213003D+00  0.62352008D-01  0.22935111D-01  0.55884984D-03 -0.14029222D+00
 -0.13603626D+00 -0.91769259D-01 -0.17932436D-15 -0.17388430D-15 -0.11730132D-15
 -0.17978557D+00 -0.17433152D+00 -0.11760302D+00 -0.32174385D-01 -0.50762902D-16
 -0.40537584D-01 -0.19875378D-02  0.19752710D-17 -0.20608110D-02  0.11326989D-03
  0.14331723D-17 -0.96444313D-05  0.15018974D-01 -0.17574169D-01  0.25551953D-02
  0.23787274D-16  0.19620607D-01  0.50688444D-16  0.24347374D-02 -0.37741584D-02
  0.13394211D-02  0.23467388D-16  0.88553594D-02  0.12217260D-16  0.20694165D-04
  0.96278655D-04 -0.11697282D-03  0.46948421D-17  0.45156695D-03 -0.34238415D-17
 -0.14277503D-02  0.40711253D-17  0.13948181D-02  0.70345536D-02 -0.22195870D-16
 -0.10627693D-01 -0.27513026D-02  0.99824943D-17  0.64432390D-02  0.14071140D-16
  0.46876014D-03 -0.82105842D-18  0.16433334D-03 -0.86411591D-04 -0.31338834D-18
 -0.63431368D-03 -0.13198688D-02  0.27765636D-17  0.14131365D-03 -0.15263800D-16
  0.82581593D-02  0.14893930D-01  0.21961092D-01  0.10038087D-01 -0.46774971D-03
 -0.27349560D-04 -0.92816304D-02  0.15606945D-17  0.72162395D-02 -0.40322493D-02
 -0.15470349D-16  0.13488738D-02  0.21280120D-04 -0.25973929D-17 -0.14557274D-03
  0.18195698D-02 -0.15354570D-02 -0.28411284D-03  0.36073670D-17 -0.35385109D-02
 -0.39582427D-17  0.34385976D-03 -0.87635335D-04 -0.25622442D-03  0.21423631D-17
 -0.24405461D-03 -0.49049703D-17
MO    5     MO 0.0        OCC NO =    2.0000000  ORB. ENERGY =   -0.993857
  0.50397821D-02  0.93935054D-02  0.15928273D-01  0.24108183D-01  0.30079973D-01
  0.25834685D-01  0.99184381D-02 -0.44365782D-04  0.50153035D-01  0.94063260D-01
  0.16035724D+00  0.25060715D+00  0.33510951D+00  0.35781883D+00  0.21876341D+00
 -0.14432681D+00 -0.80589256D-01 -0.42387930D-01 -0.17436519D-02  0.47023357D-01
  0.45596839D-01  0.30759358D-01 -0.78993852D-15 -0.76597464D-15 -0.51672197D-15
 -0.27254853D+00 -0.26428040D+00 -0.17828199D+00  0.10998979D-01 -0.45113929D-15
 -0.63086653D-01  0.13226306D-02  0.28258188D-16 -0.67883986D-02 -0.40037103D-04
 -0.74563444D-17  0.14403201D-04  0.23055101D-01  0.13123404D-01 -0.36178505D-01
  0.25077332D-15  0.12709798D-01  0.15316723D-15  0.62860931D-02  0.36865650D-02
 -0.99726581D-02 -0.83790018D-16  0.40611155D-02 -0.45080796D-16  0.15351132D-03
  0.61019698D-04 -0.21453101D-03 -0.18245910D-16  0.27294570D-03 -0.10459582D-16
 -0.14293446D-02 -0.23203608D-17 -0.11262485D-01 -0.20496949D-02  0.23931896D-16
  0.19246308D-01  0.63377287D-02 -0.16970814D-16  0.14541147D-01 -0.37894063D-16
 -0.75754483D-04 -0.82947515D-18 -0.75856133D-03  0.22630514D-03 -0.29112335D-17
  0.13052585D-02  0.95831419D-06  0.53996589D-17  0.97042552D-03  0.62483507D-17
  0.11411942D-02  0.21264473D-02  0.35963556D-02  0.54159122D-02  0.67052506D-02
  0.57058657D-02  0.21711871D-02 -0.10168596D-04  0.20477551D-02  0.38395599D-02
  0.65322338D-02  0.10143869D-01  0.13461505D-01  0.14186578D-01  0.87965834D-02
 -0.58514907D-02 -0.45615897D-02  0.96888062D-03  0.51287819D-03  0.23887469D+00
  0.22943629D+00  0.16089656D+00 -0.22122008D-15 -0.21247924D-15 -0.14900511D-15
  0.35864435D+00  0.34447361D+00  0.24156868D+00  0.49926181D-01 -0.58884977D-16
  0.68871731D-01 -0.27993196D-03  0.13818439D-17 -0.19556956D-02 -0.22336505D-04
  0.28465999D-17 -0.13120897D-03  0.43130435D-01  0.24122981D-02 -0.45542733D-01
 -0.73781313D-16  0.25054439D-01 -0.15272151D-16  0.69388900D-02 -0.87999235D-03
 -0.60588976D-02 -0.12074277D-16  0.41808196D-02  0.19054798D-16 -0.25710259D-03
 -0.12334272D-03  0.38044531D-03  0.28289335D-18 -0.12888616D-03  0.29827042D-17
  0.14188600D-02  0.17855875D-16  0.37765625D-02 -0.57418232D-02  0.40074674D-17
 -0.21435130D-02  0.14852433D-02 -0.57575092D-16 -0.91861746D-02 -0.31686174D-16
  0.48634482D-03  0.74566288D-18 -0.15336873D-03 -0.47642338D-03  0.28187283D-17
  0.47984685D-03 -0.98261109D-03 -0.50557170D-17 -0.19740667D-04  0.99174983D-17
 -0.82233717D-02 -0.15327307D-01 -0.25990034D-01 -0.39337127D-01 -0.49081249D-01
 -0.42154247D-01 -0.16183835D-01  0.72391288D-04 -0.81229951D-01 -0.15234879D+00
 -0.25972128D+00 -0.40589381D+00 -0.54275736D+00 -0.57953832D+00 -0.35431837D+00
  0.23375774D+00  0.13146771D+00  0.63849080D-01  0.20723535D-02 -0.69208148D-01
 -0.67108623D-01 -0.45271081D-01 -0.39956346D-15 -0.38744215D-15 -0.26136618D-15
 -0.24527287D+00 -0.23783218D+00 -0.16044019D+00 -0.19683169D-01 -0.11319556D-15
 -0.57105436D-01 -0.62094502D-02 -0.79453571D-17 -0.36439217D-02  0.37063482D-04
  0.25812609D-17 -0.60270385D-05  0.16324328D-01 -0.20451258D-01  0.41269301D-02
  0.24292343D-16 -0.85372705D-02  0.86935148D-16  0.89546681D-02 -0.69996049D-02
 -0.19550632D-02  0.30478079D-16  0.34446250D-02  0.28829281D-16  0.12049931D-02
 -0.31388316D-03 -0.89110996D-03  0.50423209D-17  0.11453722D-02 -0.39412563D-17
 -0.56824782D-02 -0.61183384D-18  0.31995949D-02  0.98009182D-02 -0.30589712D-16
 -0.16982962D-01  0.72465165D-02  0.32425213D-16  0.73841777D-02  0.33475149D-16
 -0.37558197D-03  0.14354656D-17  0.10533967D-02  0.12600221D-02 -0.55681781D-17
 -0.36448992D-02 -0.13327614D-03  0.12617814D-17  0.48470896D-03 -0.15071970D-16
  0.19077202D-01  0.34406520D-01  0.50732394D-01  0.21148170D-01 -0.37113309D-03
 -0.50352813D-04 -0.18011131D-01 -0.19257513D-17  0.17100891D-01 -0.50805120D-02
 -0.15979288D-16  0.24642951D-02 -0.26252287D-04 -0.27997552D-17 -0.27959141D-03
  0.25954242D-02 -0.24710253D-02 -0.12439882D-03  0.30210658D-17 -0.93005338D-02
 -0.72426001D-17  0.20089945D-03  0.11827278D-03 -0.31917223D-03  0.25098950D-17
 -0.34910516D-03 -0.34087113D-17
MO    6     MO 0.0        OCC NO =    2.0000000  ORB. ENERGY =   -0.660629
  0.15526448D-02  0.28939301D-02  0.49071465D-02  0.74271948D-02  0.92669706D-02
  0.79590919D-02  0.30556501D-02 -0.13668111D-04  0.43158929D-01  0.80945640D-01
  0.13799457D+00  0.21565866D+00  0.28837671D+00  0.30791910D+00  0.18825570D+00
 -0.12419968D+00 -0.71879303D-01 -0.58312445D-01 -0.52067960D-02  0.15230151D-01
  0.14768123D-01  0.99624886D-02 -0.27964064D-15 -0.27115735D-15 -0.18292115D-15
  0.27341430D+00  0.26511990D+00  0.17884832D+00  0.44194385D-02  0.17344230D-15
  0.53387850D-01 -0.10910969D-02 -0.11630467D-16  0.12695660D-02 -0.32054748D-04
 -0.84632145D-17 -0.12360833D-03 -0.51759946D-02 -0.98917644D-02  0.15067759D-01
 -0.13353515D-14  0.87844548D-02 -0.14963849D-14 -0.11248651D-02 -0.21396847D-02
  0.32645498D-02  0.19387014D-15  0.34242986D-02  0.46494172D-15 -0.19826512D-03
 -0.94369675D-04  0.29263480D-03  0.46915938D-16 -0.10259714D-03  0.55945043D-16
 -0.14895892D-02 -0.15251164D-15  0.30197541D-03 -0.13907363D-02 -0.11937843D-15
 -0.14417461D-02  0.58595040D-02  0.57691335D-15  0.53581989D-03  0.44076498D-16
 -0.17256450D-03 -0.12588745D-16  0.48377953D-03  0.28714538D-03 -0.11581261D-16
 -0.71831155D-03  0.23054812D-03  0.49347496D-16 -0.73302705D-03 -0.63604730D-18
 -0.31266085D-02 -0.58259745D-02 -0.98531835D-02 -0.14838348D-01 -0.18370838D-01
 -0.15632754D-01 -0.59485512D-02  0.27859603D-04 -0.50629014D-01 -0.94929874D-01
 -0.16150396D+00 -0.25079860D+00 -0.33282433D+00 -0.35075115D+00 -0.21748809D+00
  0.14467316D+00  0.82089562D-01  0.48043924D-01  0.41942418D-02  0.19872751D+00
  0.19087540D+00  0.13385501D+00 -0.74425418D-16 -0.71484725D-16 -0.50130023D-16
  0.27791086D+00  0.26693006D+00  0.18718978D+00  0.47395885D-01 -0.12089455D-15
  0.59070946D-01  0.45639818D-02 -0.69944647D-16 -0.16253270D-02  0.18266869D-03
  0.23877739D-17 -0.24511740D-03  0.12910227D-01  0.32267010D-02 -0.16136928D-01
 -0.31066768D-16  0.27234423D-01  0.42291677D-16  0.20666588D-02 -0.10823293D-02
 -0.98432955D-03  0.21910266D-16  0.87951408D-02  0.10876426D-15  0.68793342D-04
 -0.46133850D-03  0.39254515D-03 -0.10335833D-16 -0.25692963D-03  0.51433261D-17
 -0.47578581D-03  0.60128867D-16 -0.27236273D-02 -0.49060226D-02  0.10147051D-15
  0.10919347D-01  0.63333800D-02 -0.28185711D-15 -0.27484655D-02  0.12280529D-16
  0.38146596D-03  0.51137497D-17 -0.36624959D-03 -0.63292967D-03  0.98390111D-18
  0.11804002D-02 -0.51146821D-03 -0.16325150D-16 -0.81651376D-04 -0.17776647D-16
  0.17881773D-02  0.33329324D-02  0.56515491D-02  0.85538828D-02  0.10672748D-01