 Molden2AIM, Version 4.0.0 (06/02/2016)           Time: Fri Jun 29 00:25:51 2018
GAUSSIAN             16 MOL ORBITALS    300 PRIMITIVES        4 NUCLEI
  N    1    (CENTRE  1)   0.00003779  0.00000000  0.00000000  CHARGE =  7.0
  O    2    (CENTRE  2)  -1.18261140  2.04823635  0.00000000  CHARGE =  8.0
  O    3    (CENTRE  3)  -1.18261140 -2.04823635  0.00000000  CHARGE =  8.0
  O    4    (CENTRE  4)   2.36518500  0.00000000  0.00000000  CHARGE =  8.0
CENTRE ASSIGNMENTS    1  1  1  1  1  1  1  1  1  1  1  1  1  1  1  1  1  1  1  1
CENTRE ASSIGNMENTS    1  1  1  1  1  1  1  1  1  1  1  1  1  1  1  1  1  1  1  1
CENTRE ASSIGNMENTS    1  1  1  1  1  1  1  1  1  1  1  1  1  1  1  1  1  1  1  1
CENTRE ASSIGNMENTS    1  1  1  1  1  1  1  1  1  1  1  1  1  1  1  2  2  2  2  2
CENTRE ASSIGNMENTS    2  2  2  2  2  2  2  2  2  2  2  2  2  2  2  2  2  2  2  2
CENTRE ASSIGNMENTS    2  2  2  2  2  2  2  2  2  2  2  2  2  2  2  2  2  2  2  2
CENTRE ASSIGNMENTS    2  2  2  2  2  2  2  2  2  2  2  2  2  2  2  2  2  2  2  2
CENTRE ASSIGNMENTS    2  2  2  2  2  2  2  2  2  2  3  3  3  3  3  3  3  3  3  3
CENTRE ASSIGNMENTS    3  3  3  3  3  3  3  3  3  3  3  3  3  3  3  3  3  3  3  3
CENTRE ASSIGNMENTS    3  3  3  3  3  3  3  3  3  3  3  3  3  3  3  3  3  3  3  3
CENTRE ASSIGNMENTS    3  3  3  3  3  3  3  3  3  3  3  3  3  3  3  3  3  3  3  3
CENTRE ASSIGNMENTS    3  3  3  3  3  4  4  4  4  4  4  4  4  4  4  4  4  4  4  4
CENTRE ASSIGNMENTS    4  4  4  4  4  4  4  4  4  4  4  4  4  4  4  4  4  4  4  4
CENTRE ASSIGNMENTS    4  4  4  4  4  4  4  4  4  4  4  4  4  4  4  4  4  4  4  4
CENTRE ASSIGNMENTS    4  4  4  4  4  4  4  4  4  4  4  4  4  4  4  4  4  4  4  4
TYPE ASSIGNMENTS      1  1  1  1  1  1  1  1  1  1  1  1  1  1  1  1  1  1  1  2
TYPE ASSIGNMENTS      2  2  3  3  3  4  4  4  2  3  4  2  3  4  2  3  4  5  6  7
TYPE ASSIGNMENTS      8  9 10  5  6  7  8  9 10  5  6  7  8  9 10 11 12 13 17 14
TYPE ASSIGNMENTS     15 18 19 16 20 11 12 13 17 14 15 18 19 16 20  1  1  1  1  1
TYPE ASSIGNMENTS      1  1  1  1  1  1  1  1  1  1  1  1  1  1  2  2  2  3  3  3
TYPE ASSIGNMENTS      4  4  4  2  3  4  2  3  4  2  3  4  5  6  7  8  9 10  5  6
TYPE ASSIGNMENTS      7  8  9 10  5  6  7  8  9 10 11 12 13 17 14 15 18 19 16 20
TYPE ASSIGNMENTS     11 12 13 17 14 15 18 19 16 20  1  1  1  1  1  1  1  1  1  1
TYPE ASSIGNMENTS      1  1  1  1  1  1  1  1  1  2  2  2  3  3  3  4  4  4  2  3
TYPE ASSIGNMENTS      4  2  3  4  2  3  4  5  6  7  8  9 10  5  6  7  8  9 10  5
TYPE ASSIGNMENTS      6  7  8  9 10 11 12 13 17 14 15 18 19 16 20 11 12 13 17 14
TYPE ASSIGNMENTS     15 18 19 16 20  1  1  1  1  1  1  1  1  1  1  1  1  1  1  1
TYPE ASSIGNMENTS      1  1  1  1  2  2  2  3  3  3  4  4  4  2  3  4  2  3  4  2
TYPE ASSIGNMENTS      3  4  5  6  7  8  9 10  5  6  7  8  9 10  5  6  7  8  9 10
TYPE ASSIGNMENTS     11 12 13 17 14 15 18 19 16 20 11 12 13 17 14 15 18 19 16 20
EXPONENTS  0.1142000D+05 0.1712000D+04 0.3893000D+03 0.1100000D+03 0.3557000D+02
EXPONENTS  0.1254000D+02 0.4644000D+01 0.5118000D+00 0.1142000D+05 0.1712000D+04
EXPONENTS  0.3893000D+03 0.1100000D+03 0.3557000D+02 0.1254000D+02 0.4644000D+01
EXPONENTS  0.5118000D+00 0.1293000D+01 0.1787000D+00 0.5760000D-01 0.2663000D+02
EXPONENTS  0.5948000D+01 0.1742000D+01 0.2663000D+02 0.5948000D+01 0.1742000D+01
EXPONENTS  0.2663000D+02 0.5948000D+01 0.1742000D+01 0.5550000D+00 0.5550000D+00
EXPONENTS  0.5550000D+00 0.1725000D+00 0.1725000D+00 0.1725000D+00 0.4910000D-01
EXPONENTS  0.4910000D-01 0.4910000D-01 0.1654000D+01 0.1654000D+01 0.1654000D+01
EXPONENTS  0.1654000D+01 0.1654000D+01 0.1654000D+01 0.4690000D+00 0.4690000D+00
EXPONENTS  0.4690000D+00 0.4690000D+00 0.4690000D+00 0.4690000D+00 0.1510000D+00
EXPONENTS  0.1510000D+00 0.1510000D+00 0.1510000D+00 0.1510000D+00 0.1510000D+00
EXPONENTS  0.1093000D+01 0.1093000D+01 0.1093000D+01 0.1093000D+01 0.1093000D+01
EXPONENTS  0.1093000D+01 0.1093000D+01 0.1093000D+01 0.1093000D+01 0.1093000D+01
EXPONENTS  0.3640000D+00 0.3640000D+00 0.3640000D+00 0.3640000D+00 0.3640000D+00
EXPONENTS  0.3640000D+00 0.3640000D+00 0.3640000D+00 0.3640000D+00 0.3640000D+00
EXPONENTS  0.1533000D+05 0.2299000D+04 0.5224000D+03 0.1473000D+03 0.4755000D+02
EXPONENTS  0.1676000D+02 0.6207000D+01 0.6882000D+00 0.1533000D+05 0.2299000D+04
EXPONENTS  0.5224000D+03 0.1473000D+03 0.4755000D+02 0.1676000D+02 0.6207000D+01
EXPONENTS  0.6882000D+00 0.1752000D+01 0.2384000D+00 0.7376000D-01 0.3446000D+02
EXPONENTS  0.7749000D+01 0.2280000D+01 0.3446000D+02 0.7749000D+01 0.2280000D+01
EXPONENTS  0.3446000D+02 0.7749000D+01 0.2280000D+01 0.7156000D+00 0.7156000D+00
EXPONENTS  0.7156000D+00 0.2140000D+00 0.2140000D+00 0.2140000D+00 0.5974000D-01
EXPONENTS  0.5974000D-01 0.5974000D-01 0.2314000D+01 0.2314000D+01 0.2314000D+01
EXPONENTS  0.2314000D+01 0.2314000D+01 0.2314000D+01 0.6450000D+00 0.6450000D+00
EXPONENTS  0.6450000D+00 0.6450000D+00 0.6450000D+00 0.6450000D+00 0.2140000D+00
EXPONENTS  0.2140000D+00 0.2140000D+00 0.2140000D+00 0.2140000D+00 0.2140000D+00
EXPONENTS  0.1428000D+01 0.1428000D+01 0.1428000D+01 0.1428000D+01 0.1428000D+01
EXPONENTS  0.1428000D+01 0.1428000D+01 0.1428000D+01 0.1428000D+01 0.1428000D+01
EXPONENTS  0.5000000D+00 0.5000000D+00 0.5000000D+00 0.5000000D+00 0.5000000D+00
EXPONENTS  0.5000000D+00 0.5000000D+00 0.5000000D+00 0.5000000D+00 0.5000000D+00
EXPONENTS  0.1533000D+05 0.2299000D+04 0.5224000D+03 0.1473000D+03 0.4755000D+02
EXPONENTS  0.1676000D+02 0.6207000D+01 0.6882000D+00 0.1533000D+05 0.2299000D+04
EXPONENTS  0.5224000D+03 0.1473000D+03 0.4755000D+02 0.1676000D+02 0.6207000D+01
EXPONENTS  0.6882000D+00 0.1752000D+01 0.2384000D+00 0.7376000D-01 0.3446000D+02
EXPONENTS  0.7749000D+01 0.2280000D+01 0.3446000D+02 0.7749000D+01 0.2280000D+01
EXPONENTS  0.3446000D+02 0.7749000D+01 0.2280000D+01 0.7156000D+00 0.7156000D+00
EXPONENTS  0.7156000D+00 0.2140000D+00 0.2140000D+00 0.2140000D+00 0.5974000D-01
EXPONENTS  0.5974000D-01 0.5974000D-01 0.2314000D+01 0.2314000D+01 0.2314000D+01
EXPONENTS  0.2314000D+01 0.2314000D+01 0.2314000D+01 0.6450000D+00 0.6450000D+00
EXPONENTS  0.6450000D+00 0.6450000D+00 0.6450000D+00 0.6450000D+00 0.2140000D+00
EXPONENTS  0.2140000D+00 0.2140000D+00 0.2140000D+00 0.2140000D+00 0.2140000D+00
EXPONENTS  0.1428000D+01 0.1428000D+01 0.1428000D+01 0.1428000D+01 0.1428000D+01
EXPONENTS  0.1428000D+01 0.1428000D+01 0.1428000D+01 0.1428000D+01 0.1428000D+01
EXPONENTS  0.5000000D+00 0.5000000D+00 0.5000000D+00 0.5000000D+00 0.5000000D+00
EXPONENTS  0.5000000D+00 0.5000000D+00 0.5000000D+00 0.5000000D+00 0.5000000D+00
EXPONENTS  0.1533000D+05 0.2299000D+04 0.5224000D+03 0.1473000D+03 0.4755000D+02
EXPONENTS  0.1676000D+02 0.6207000D+01 0.6882000D+00 0.1533000D+05 0.2299000D+04
EXPONENTS  0.5224000D+03 0.1473000D+03 0.4755000D+02 0.1676000D+02 0.6207000D+01
EXPONENTS  0.6882000D+00 0.1752000D+01 0.2384000D+00 0.7376000D-01 0.3446000D+02
EXPONENTS  0.7749000D+01 0.2280000D+01 0.3446000D+02 0.7749000D+01 0.2280000D+01
EXPONENTS  0.3446000D+02 0.7749000D+01 0.2280000D+01 0.7156000D+00 0.7156000D+00
EXPONENTS  0.7156000D+00 0.2140000D+00 0.2140000D+00 0.2140000D+00 0.5974000D-01
EXPONENTS  0.5974000D-01 0.5974000D-01 0.2314000D+01 0.2314000D+01 0.2314000D+01
EXPONENTS  0.2314000D+01 0.2314000D+01 0.2314000D+01 0.6450000D+00 0.6450000D+00
EXPONENTS  0.6450000D+00 0.6450000D+00 0.6450000D+00 0.6450000D+00 0.2140000D+00
EXPONENTS  0.2140000D+00 0.2140000D+00 0.2140000D+00 0.2140000D+00 0.2140000D+00
EXPONENTS  0.1428000D+01 0.1428000D+01 0.1428000D+01 0.1428000D+01 0.1428000D+01
EXPONENTS  0.1428000D+01 0.1428000D+01 0.1428000D+01 0.1428000D+01 0.1428000D+01
EXPONENTS  0.5000000D+00 0.5000000D+00 0.5000000D+00 0.5000000D+00 0.5000000D+00
EXPONENTS  0.5000000D+00 0.5000000D+00 0.5000000D+00 0.5000000D+00 0.5000000D+00
MO    1     MO 0.0        OCC NO =    2.0000000  ORB. ENERGY =  -18.544161
  0.10032925D-02  0.18694879D-02  0.31617727D-02  0.47614544D-02  0.58949895D-02
  0.50163700D-02  0.19088213D-02 -0.89398246D-05 -0.73334355D-03 -0.13750260D-02
 -0.23393284D-02 -0.36327299D-02 -0.48208439D-02 -0.50805077D-02 -0.31502389D-02
  0.20955401D-02  0.66146218D-03 -0.11723149D-02  0.30067555D-03 -0.46330374D-04
 -0.44499771D-04 -0.31206311D-04 -0.52757027D-12 -0.50672493D-12 -0.35535050D-12
  0.37297544D-16  0.35823845D-16  0.25122153D-16  0.67487771D-03  0.68141353D-11
 -0.44361414D-16  0.13503263D-03  0.14596049D-11  0.14270784D-16  0.15123440D-04
  0.15737460D-12  0.56918713D-19  0.15233134D-02  0.59781163D-03 -0.21211250D-02
 -0.91509993D-11 -0.93259726D-18  0.36003773D-18 -0.37943018D-03 -0.30345367D-03
  0.68288385D-03  0.62857166D-12  0.18121046D-17 -0.73473005D-18 -0.40150930D-04
 -0.21842633D-04  0.61993563D-04  0.16786420D-12 -0.33013553D-18  0.53544497D-20
 -0.45459145D-03  0.58129200D-13 -0.67714231D-18  0.13849268D-02  0.70059440D-13
  0.23272832D-17 -0.21152432D-04 -0.24444704D-12 -0.29585627D-18  0.15225571D-17
 -0.67658961D-03 -0.11495171D-12 -0.34235888D-18  0.19853489D-02 -0.90913265D-13
  0.41950217D-18  0.44419946D-04  0.43576841D-12  0.60757447D-18  0.19331439D-18
  0.23671164D+00  0.44120004D+00  0.74812908D+00  0.11323282D+01  0.14128150D+01
  0.12134197D+01  0.46585540D+00 -0.20837998D-02 -0.29715202D-03 -0.55731598D-03
 -0.95010156D-03 -0.14848238D-02 -0.19854923D-02 -0.21200429D-02 -0.12961527D-02
  0.85512281D-03  0.26909877D-01  0.77836290D-03 -0.14234436D-03  0.17876755D-02
  0.17334439D-02  0.11693710D-02 -0.29863185D-02 -0.28957244D-02 -0.19534385D-02
 -0.23909014D-16 -0.23183701D-16 -0.15639588D-16  0.49252008D-03 -0.91243984D-03
  0.23029108D-17 -0.10082735D-03  0.10367190D-03 -0.11938761D-17 -0.97959273D-05
  0.11516139D-04 -0.72800641D-20  0.49126340D-03  0.12205519D-02 -0.17118153D-02
 -0.15856569D-02 -0.56408063D-18 -0.33343479D-17 -0.43256247D-03 -0.16627252D-03
  0.59883499D-03 -0.24138917D-03 -0.33015159D-18  0.86522081D-18 -0.29191205D-04
 -0.38706026D-04  0.67897231D-04  0.46336693D-04 -0.18400692D-18  0.48726535D-18
  0.11421553D-03 -0.78460618D-04  0.12930143D-17 -0.31745559D-03  0.20687050D-04
 -0.16381582D-17 -0.25191005D-04  0.21469480D-03 -0.22408847D-17 -0.27806378D-17
 -0.18020113D-03  0.86497873D-04 -0.86054903D-19  0.31533940D-03  0.15046506D-03
  0.76496669D-19  0.22526400D-03 -0.40995868D-03  0.18166804D-18  0.11647634D-17
  0.23671164D+00  0.44120004D+00  0.74812908D+00  0.11323282D+01  0.14128150D+01
  0.12134197D+01  0.46585540D+00 -0.20837998D-02 -0.29715202D-03 -0.55731598D-03
 -0.95010157D-03 -0.14848238D-02 -0.19854924D-02 -0.21200429D-02 -0.12961527D-02
  0.85512281D-03  0.26909876D-01  0.77836291D-03 -0.14234435D-03  0.17876755D-02
  0.17334439D-02  0.11693710D-02  0.29863184D-02  0.28957243D-02  0.19534385D-02
 -0.65108440D-17 -0.63133285D-17 -0.42589341D-17  0.49252008D-03  0.91243985D-03
  0.24736520D-18 -0.10082735D-03 -0.10367189D-03 -0.12986553D-17 -0.97959272D-05
 -0.11516139D-04 -0.24941511D-19  0.49126340D-03  0.12205519D-02 -0.17118153D-02
  0.15856569D-02  0.13007949D-17  0.32259582D-18 -0.43256247D-03 -0.16627252D-03
  0.59883499D-03  0.24138918D-03 -0.14698656D-17 -0.64315407D-18 -0.29191205D-04
 -0.38706026D-04  0.67897231D-04 -0.46336692D-04 -0.22183463D-18 -0.73016674D-18
  0.11421553D-03  0.78460617D-04  0.56789658D-19 -0.31745559D-03 -0.20687049D-04
  0.16109195D-17 -0.25191006D-04 -0.21469480D-03 -0.17812884D-17 -0.21237743D-17
 -0.18020113D-03 -0.86497873D-04  0.38137234D-18  0.31533940D-03 -0.15046506D-03
 -0.65024532D-18  0.22526400D-03  0.40995868D-03 -0.49387170D-18 -0.10934860D-17
  0.36774973D+00  0.68543817D+00  0.11622760D+01  0.17591589D+01  0.21949167D+01
  0.18851407D+01  0.72374218D+00 -0.32373432D-02 -0.19643703D-03 -0.36842253D-03
 -0.62807964D-03 -0.98156622D-03 -0.13125411D-02 -0.14014879D-02 -0.85684219D-03
  0.56529244D-03  0.41893568D-01  0.53462630D-03 -0.37441901D-03 -0.56646257D-02
 -0.54927815D-02 -0.37053979D-02  0.62837929D-12  0.60931653D-12  0.41104133D-12
  0.39564190D-16  0.38363955D-16  0.25880098D-16 -0.76723521D-03 -0.34343507D-12
 -0.52926292D-17  0.53080430D-03 -0.41341247D-12 -0.16481817D-18  0.31906382D-04
 -0.32226985D-13 -0.36286981D-19  0.26582729D-02 -0.59168908D-03 -0.20665839D-02
 -0.18115786D-11  0.58315797D-18  0.11961588D-16 -0.49114923D-03 -0.26933133D-03
  0.76048056D-03  0.12397792D-11  0.15534516D-17 -0.76662446D-18 -0.12944274D-03
  0.26576572D-04  0.10286617D-03  0.17708529D-12  0.67973375D-18 -0.29090293D-19
  0.81583948D-04  0.39572736D-13 -0.16311025D-17 -0.37572516D-03 -0.10957496D-11
  0.24583007D-18  0.13097331D-03  0.97703142D-12  0.46474775D-17 -0.13989135D-18
  0.92565581D-04  0.20954846D-12  0.79653200D-18  0.31580536D-03 -0.51367420D-12
 -0.20112965D-17 -0.59350210D-03 -0.11497120D-12 -0.37829953D-18  0.30895348D-18
MO    2     MO 0.0        OCC NO =    2.0000000  ORB. ENERGY =  -18.544142
 -0.22157418D-03 -0.41287086D-03 -0.69826813D-03 -0.10515531D-02 -0.13018910D-02
 -0.11078505D-02 -0.42155754D-03  0.19743338D-05  0.16195550D-03  0.30366808D-03
  0.51662976D-03  0.80227146D-03  0.10646609D-02  0.11220064D-02  0.69571557D-03
 -0.46279026D-03 -0.14603380D-03  0.25875848D-03 -0.66418047D-04 -0.20994982D-03
 -0.20165429D-03 -0.14141391D-03  0.25165811D-11  0.24171461D-11  0.16950697D-11
  0.35937490D-15  0.34517530D-15  0.24206074D-15  0.30555827D-02 -0.35684343D-10
 -0.16964489D-15  0.61255284D-03 -0.72555541D-11  0.58093982D-16  0.68435273D-04
 -0.80455642D-12  0.25179689D-18  0.18608364D-02 -0.23292756D-02  0.46843912D-03
  0.48728671D-10  0.12934526D-17 -0.21488048D-17 -0.96814361D-04  0.24759220D-03
 -0.15077784D-03 -0.38709016D-11  0.18973208D-17  0.24139610D-17 -0.34606905D-04
  0.48293594D-04 -0.13686689D-04 -0.94989204D-12  0.39338068D-18 -0.21477776D-18
  0.12541069D-03 -0.28394077D-12 -0.40973399D-17 -0.28084817D-03 -0.29536756D-12
  0.69490093D-17 -0.95383912D-04  0.11471899D-11  0.53430105D-17 -0.13798703D-17
  0.96762236D-04  0.58849826D-12 -0.16744657D-17 -0.49108091D-03  0.56623568D-12
 -0.14363749D-17  0.20079420D-03 -0.23317305D-11  0.64597720D-17 -0.23233873D-17
 -0.25970144D+00 -0.48405008D+00 -0.82078854D+00 -0.12423017D+01 -0.15500298D+01
 -0.13312689D+01 -0.51110001D+00  0.22861817D-02 -0.93866694D-04 -0.17604931D-03
 -0.30012548D-03 -0.46903771D-03 -0.62719278D-03 -0.66969567D-03 -0.40943880D-03
  0.27012285D-03 -0.29661192D-01  0.21431595D-03  0.39877978D-03 -0.18976747D-02
 -0.18401062D-02 -0.12413247D-02  0.37848397D-02  0.36700214D-02  0.24757747D-02
  0.51560782D-16  0.49996615D-16  0.33727421D-16 -0.18831776D-04 -0.23887623D-03
 -0.11064937D-16  0.18507772D-03 -0.64283802D-03 -0.36007164D-17  0.44603863D-05
 -0.32363569D-04 -0.20915591D-19  0.54063048D-03 -0.14802289D-02  0.93959839D-03
  0.20399939D-02  0.74369846D-17 -0.31767509D-16 -0.22630307D-03  0.61444015D-03
 -0.38813708D-03 -0.45809829D-03 -0.83378411D-17  0.12609406D-16 -0.40612279D-04
  0.11093315D-03 -0.70320876D-04 -0.12703709D-03 -0.14818023D-17  0.16578745D-17
 -0.11002326D-03 -0.17477990D-03  0.68827285D-17  0.25633840D-04  0.27548083D-03
 -0.83580757D-17  0.30443595D-03  0.24885887D-03 -0.12290110D-16 -0.11126603D-16
 -0.32850675D-04 -0.13231283D-03  0.21222336D-19  0.28874315D-03  0.15755715D-03
 -0.21043569D-18 -0.19019113D-03  0.23938135D-03  0.14676868D-18  0.95790462D-17
 -0.25970144D+00 -0.48405006D+00 -0.82078852D+00 -0.12423017D+01 -0.15500298D+01
 -0.13312688D+01 -0.51109999D+00  0.22861816D-02 -0.93866688D-04 -0.17604930D-03
 -0.30012546D-03 -0.46903767D-03 -0.62719274D-03 -0.66969562D-03 -0.40943877D-03
  0.27012283D-03 -0.29661191D-01  0.21431594D-03  0.39877977D-03 -0.18976747D-02
 -0.18401061D-02 -0.12413247D-02 -0.37848396D-02 -0.36700213D-02 -0.24757747D-02
  0.32311544D-16  0.31331328D-16  0.21135929D-16 -0.18831786D-04  0.23887622D-03
 -0.52030805D-17  0.18507771D-03  0.64283800D-03 -0.39662277D-17  0.44603856D-05
  0.32363568D-04 -0.75031889D-19  0.54063047D-03 -0.14802288D-02  0.93959837D-03
 -0.20399938D-02  0.22298820D-16 -0.17835906D-16 -0.22630307D-03  0.61444014D-03
 -0.38813707D-03  0.45809826D-03 -0.10276865D-16 -0.22780624D-17 -0.40612278D-04
  0.11093315D-03 -0.70320874D-04  0.12703708D-03 -0.16827739D-17 -0.18918291D-17
 -0.11002326D-03  0.17477990D-03  0.19296872D-17  0.25633837D-04 -0.27548084D-03
  0.77512457D-17  0.30443596D-03 -0.24885887D-03 -0.13540307D-16 -0.63143691D-17
 -0.32850672D-04  0.13231283D-03  0.12566147D-17  0.28874314D-03 -0.15755716D-03
 -0.43561134D-17 -0.19019113D-03 -0.23938135D-03  0.58626924D-18 -0.61974025D-17
  0.33362823D+00  0.62184009D+00  0.10544348D+01  0.15959361D+01  0.19912623D+01
  0.17102288D+01  0.65659007D+00 -0.29369677D-02  0.36231946D-03  0.67953912D-03
  0.11584652D-02  0.18104557D-02  0.24209242D-02  0.25849826D-02  0.15804077D-02
 -0.10426570D-02  0.38183851D-01 -0.89032063D-03 -0.65197404D-03 -0.56649109D-02
 -0.54930580D-02 -0.37055845D-02 -0.33431457D-11 -0.32417268D-11 -0.21868497D-11
  0.38368975D-16  0.37204999D-16  0.25098272D-16  0.10219296D-02  0.18210868D-11
 -0.20601845D-17  0.11192918D-02  0.21706795D-11 -0.44729949D-17  0.46899911D-04
  0.16675389D-12 -0.22516921D-18  0.23677254D-02 -0.17009462D-02 -0.66677915D-03
  0.97716612D-11  0.76122796D-17  0.10716708D-16 -0.10399834D-02  0.69615667D-03
  0.34382678D-03 -0.66781837D-11 -0.12805984D-17 -0.66588701D-18 -0.20261134D-03
  0.11467397D-03  0.87937365D-04 -0.91594414D-12  0.41612897D-17  0.92534000D-19
  0.55663552D-04 -0.20865926D-12 -0.10524056D-16  0.76075373D-04  0.58344009D-11
  0.11151067D-16 -0.24306603D-03 -0.52084231D-11  0.20421102D-16  0.21992998D-18
  0.29461818D-03 -0.11223878D-11  0.39970808D-17 -0.61663794D-03  0.27613429D-11
 -0.93788050D-17 -0.26721659D-03  0.60582042D-12 -0.26124375D-17  0.25619392D-19
MO    3     MO 0.0        OCC NO =    2.0000000  ORB. ENERGY =  -18.544138
  0.46631131D-11  0.86890246D-11  0.14695319D-10  0.22130336D-10  0.27398792D-10
  0.23315135D-10  0.88718390D-11 -0.41550607D-13 -0.34065644D-11 -0.63873401D-11
 -0.10866766D-10 -0.16874940D-10 -0.22394027D-10 -0.23600230D-10 -0.14633648D-10
  0.97343086D-11  0.30047596D-11 -0.46639336D-11  0.15971058D-11  0.23557201D-11
  0.22626410D-11  0.15867200D-11  0.21484543D-03  0.20635647D-03  0.14471140D-03
  0.42890464D-16  0.41195778D-16  0.28889323D-16 -0.33378028D-10 -0.31288715D-02
  0.13979278D-16 -0.68800353D-11 -0.62720634D-03 -0.42324329D-17 -0.76022028D-12
 -0.70079966D-04 -0.10593052D-17 -0.17929374D-10  0.27709629D-10 -0.97802557D-11
  0.42914136D-02 -0.29927659D-15 -0.16425930D-15  0.32082807D-12 -0.33973960D-11
  0.30765679D-11 -0.35286419D-03  0.57711019D-16  0.19625523D-17  0.31995352D-12
 -0.59082297D-12  0.27086945D-12 -0.84926828D-04  0.44541869D-18  0.15768695D-17
 -0.23580243D-11 -0.24427931D-04  0.18372758D-17  0.60329978D-11 -0.24213123D-04
 -0.12290364D-17  0.10410750D-11  0.97496916D-04 -0.42827909D-17 -0.66306438D-17
 -0.25257355D-11  0.51284034D-04 -0.19844950D-18  0.97454803D-11  0.51746036D-04
 -0.59925161D-18 -0.21682737D-11 -0.20559814D-03  0.11946001D-17 -0.24895541D-17
 -0.35081387D+00 -0.65387191D+00 -0.11087501D+01 -0.16781449D+01 -0.20938349D+01
 -0.17983249D+01 -0.69041191D+00  0.30882548D-02 -0.26970956D-03 -0.50584696D-03
 -0.86235817D-03 -0.13476980D-02 -0.18021290D-02 -0.19242536D-02 -0.11764509D-02
  0.77615086D-03 -0.40114213D-01  0.65296499D-03  0.62125921D-03 -0.30522765D-02
 -0.29596815D-02 -0.19965837D-02  0.49907928D-02  0.48393902D-02  0.32646241D-02
  0.42984283D-16  0.41680296D-16  0.28117281D-16  0.43016865D-03 -0.58390713D-03
 -0.74210742D-17  0.60547295D-03 -0.85781764D-03  0.46785960D-18  0.29120485D-04
 -0.35866336D-04 -0.35187312D-19  0.34973089D-03 -0.12996184D-02  0.94988753D-03
  0.37215132D-02  0.66073954D-17 -0.30257249D-18 -0.33006643D-04  0.46577465D-03
 -0.43276801D-03 -0.14549737D-02 -0.35965516D-17  0.32841102D-17 -0.10195009D-04
  0.10377511D-03 -0.93580104D-04 -0.27765156D-03 -0.52844135D-19  0.29046560D-19
  0.55274332D-04  0.56137555D-04 -0.30221383D-17  0.12338125D-03 -0.21032110D-03
  0.63168407D-17 -0.28920424D-03  0.41908437D-04  0.27495742D-17  0.46913528D-17
 -0.14586007D-03 -0.33371898D-04  0.17553061D-18  0.58297177D-03 -0.20490579D-03
  0.19017221D-18 -0.14539156D-03  0.30502148D-03 -0.71676405D-18 -0.14097856D-17
  0.35081387D+00  0.65387192D+00  0.11087501D+01  0.16781450D+01  0.20938349D+01
  0.17983250D+01  0.69041192D+00 -0.30882549D-02  0.26970956D-03  0.50584696D-03
  0.86235817D-03  0.13476980D-02  0.18021290D-02  0.19242536D-02  0.11764509D-02
 -0.77615086D-03  0.40114213D-01 -0.65296499D-03 -0.62125922D-03  0.30522766D-02
  0.29596816D-02  0.19965837D-02  0.49907929D-02  0.48393903D-02  0.32646241D-02
 -0.21201365D-16 -0.20558192D-16 -0.13868435D-16 -0.43016865D-03 -0.58390713D-03
  0.11528965D-17 -0.60547296D-03 -0.85781765D-03  0.96635237D-18 -0.29120485D-04
 -0.35866337D-04 -0.10899522D-18 -0.34973090D-03  0.12996185D-02 -0.94988756D-03
  0.37215133D-02 -0.10321870D-16  0.10161167D-17  0.33006647D-04 -0.46577466D-03
  0.43276802D-03 -0.14549737D-02  0.22318141D-17  0.42851397D-17  0.10195010D-04
 -0.10377512D-03  0.93580106D-04 -0.27765156D-03 -0.42349573D-18  0.54895208D-18
 -0.55274329D-04  0.56137552D-04 -0.79400811D-18 -0.12338125D-03 -0.21032110D-03
  0.46259479D-17  0.28920424D-03  0.41908442D-04 -0.22439236D-17  0.55525671D-18
  0.14586007D-03 -0.33371901D-04 -0.44725142D-18 -0.58297177D-03 -0.20490579D-03
 -0.11595552D-17  0.14539156D-03  0.30502149D-03  0.25013095D-17  0.32260299D-17
 -0.30041464D-08 -0.55993424D-08 -0.94946295D-08 -0.14370564D-07 -0.17930268D-07
 -0.15399709D-07 -0.59122477D-08  0.26445847D-10 -0.45224124D-11 -0.84818965D-11
 -0.14459774D-10 -0.22597812D-10 -0.30217581D-10 -0.32265331D-10 -0.19726391D-10
  0.13014275D-10 -0.34424208D-09  0.11190967D-10  0.65913256D-11  0.52225649D-10
  0.50641312D-10  0.34162330D-10 -0.29443710D-03 -0.28550495D-03 -0.19259995D-03
 -0.34773595D-17 -0.33718690D-17 -0.22746429D-17 -0.13184395D-10  0.16020506D-03
  0.28860012D-17 -0.11549788D-10  0.19046703D-03  0.48351275D-18 -0.46235359D-12
  0.14570392D-04 -0.53540577D-19 -0.21242625D-10  0.18034094D-10  0.32085312D-11
  0.86343767D-03 -0.78754315D-17  0.15201524D-18  0.10757578D-10 -0.84598153D-11
 -0.22977626D-11 -0.58988227D-03 -0.25940017D-17  0.25509645D-18  0.20186262D-11
 -0.12430033D-11 -0.77562286D-12 -0.80048845D-04 -0.69383418D-18  0.29203457D-18
 -0.45619181D-12 -0.18330337D-04  0.14882658D-17 -0.16630456D-11  0.51379368D-03
 -0.66793542D-17  0.30316210D-11 -0.45880267D-03  0.22145567D-17  0.13882780D-17
 -0.31487815D-11 -0.98994671D-04 -0.31864081D-18  0.76662225D-11  0.24378345D-03
  0.14094905D-17  0.17801219D-11  0.53200568D-04 -0.45356801D-18 -0.79325554D-18
MO    4     MO 0.0        OCC NO =    2.0000000  ORB. ENERGY =  -14.012607
  0.41229634D+00  0.76825351D+00  0.12993093D+01  0.19566878D+01  0.24225064D+01
  0.20614436D+01  0.78441733D+00 -0.36737610D-02 -0.18138300D-02 -0.34009482D-02
 -0.57860248D-02 -0.89850856D-02 -0.11923731D-01 -0.12565976D-01 -0.77917067D-02
  0.51830463D-02  0.45247048D-01 -0.21684785D-02 -0.12859124D-03  0.19363518D-06
  0.18598428D-06  0.13042501D-06  0.58644415D-14  0.56327259D-14  0.39500562D-14
 -0.26954018D-16 -0.25889012D-16 -0.18155162D-16 -0.29901007D-06 -0.82451970D-14
  0.54265926D-17 -0.91356667D-07 -0.68471746D-14  0.19058402D-17  0.86554967D-08
 -0.17154937D-15  0.10255092D-19  0.26650975D-02  0.26645843D-02 -0.53296819D-02
  0.97043272D-15 -0.30432772D-17 -0.22150333D-17 -0.47574005D-03 -0.47557519D-03
  0.95131524D-03  0.56908209D-14  0.79571112D-18  0.86839741D-20 -0.10896321D-03
 -0.10896279D-03  0.21792600D-03  0.11322467D-14  0.10431603D-18  0.45347772D-19
  0.10266543D-02 -0.88127304D-15 -0.81463909D-18 -0.30800807D-02  0.40889901D-15
  0.18560138D-17  0.11777243D-06  0.22349201D-14  0.58790347D-18  0.11255579D-17
 -0.58577712D-03 -0.37263101D-15 -0.35849235D-18  0.17573116D-02  0.84535959D-15
  0.55076445D-18  0.19705786D-07  0.27253345D-15  0.52471260D-18  0.43352557D-19
  0.76932475D-03  0.14339223D-02  0.24314572D-02  0.36801237D-02  0.45917199D-02
  0.39436750D-02  0.15140535D-02 -0.67724543D-05 -0.56712283D-03 -0.10636529D-02
 -0.18132951D-02 -0.28338272D-02 -0.37893670D-02 -0.40461605D-02 -0.24737432D-02
  0.16320255D-02  0.51679849D-03  0.86386380D-03 -0.42554199D-04  0.78424837D-03
  0.76045712D-03  0.51299988D-03 -0.13583496D-02 -0.13171421D-02 -0.88853631D-03
  0.50119950D-18  0.48599492D-18  0.32784930D-18  0.40812413D-03 -0.70663079D-03
 -0.33118743D-18 -0.19132082D-03  0.33147713D-03 -0.10020230D-17 -0.14623936D-04
  0.25323086D-04 -0.12400098D-19  0.10736156D-03  0.15894455D-02 -0.16968071D-02
 -0.25675008D-02  0.12530376D-17 -0.18937338D-17 -0.87505354D-04 -0.86013188D-03
  0.94763724D-03  0.13383320D-02 -0.81242549D-18  0.12932600D-17  0.23516431D-04
 -0.11857328D-03  0.95056848D-04  0.24608503D-03 -0.30585796D-18  0.43330685D-18
  0.72105578D-03  0.26813872D-03 -0.17398873D-18 -0.27827418D-02  0.26857140D-03
  0.35780677D-18  0.61957444D-03 -0.10729876D-02  0.16415942D-18 -0.84914117D-18
  0.95125164D-04  0.21293059D-03  0.27628864D-18 -0.77721284D-03  0.21302316D-03
 -0.23978875D-18  0.49183735D-03 -0.85181494D-03 -0.58907718D-18  0.10492928D-17
  0.76932475D-03  0.14339223D-02  0.24314572D-02  0.36801237D-02  0.45917199D-02
  0.39436750D-02  0.15140535D-02 -0.67724543D-05 -0.56712283D-03 -0.10636529D-02
 -0.18132951D-02 -0.28338272D-02 -0.37893670D-02 -0.40461605D-02 -0.24737432D-02
  0.16320255D-02  0.51679849D-03  0.86386380D-03 -0.42554199D-04  0.78424837D-03
  0.76045712D-03  0.51299988D-03  0.13583496D-02  0.13171421D-02  0.88853631D-03
  0.82925877D-18  0.80410206D-18  0.54244250D-18  0.40812413D-03  0.70663079D-03
 -0.57101765D-18 -0.19132082D-03 -0.33147713D-03 -0.87437712D-18 -0.14623936D-04
 -0.25323086D-04 -0.57763096D-20  0.10736156D-03  0.15894455D-02 -0.16968071D-02
  0.25675008D-02  0.14431585D-17  0.26967177D-17 -0.87505354D-04 -0.86013188D-03
  0.94763724D-03 -0.13383320D-02 -0.93313370D-18 -0.16620585D-17  0.23516431D-04
 -0.11857328D-03  0.95056848D-04 -0.24608503D-03 -0.25521377D-18 -0.38584841D-18
  0.72105578D-03 -0.26813872D-03 -0.40820215D-19 -0.27827418D-02 -0.26857140D-03
  0.27847823D-18  0.61957444D-03  0.10729876D-02 -0.15601758D-18  0.33405207D-18
  0.95125164D-04 -0.21293059D-03  0.27596481D-18 -0.77721284D-03 -0.21302316D-03
 -0.18442639D-18  0.49183735D-03  0.85181494D-03 -0.64346803D-18 -0.10724553D-17
  0.76935254D-03  0.14339741D-02  0.24315450D-02  0.36802567D-02  0.45918858D-02
  0.39438175D-02  0.15141082D-02 -0.67726990D-05 -0.56714200D-03 -0.10636889D-02
 -0.18133564D-02 -0.28339230D-02 -0.37894950D-02 -0.40462972D-02 -0.24738268D-02
  0.16320807D-02  0.51677188D-03  0.86404341D-03 -0.42542788D-04 -0.15683767D-02
 -0.15207978D-02 -0.10259212D-02  0.70931634D-15  0.68779825D-15  0.46398464D-15
  0.72891185D-18  0.70679930D-18  0.47680263D-18 -0.81622424D-03 -0.91033958D-15
 -0.47638498D-18  0.38264857D-03 -0.66489260D-15 -0.13447624D-17  0.29234122D-04
 -0.24951666D-16 -0.19812993D-19  0.23306881D-02 -0.63384967D-03 -0.16968384D-02
 -0.21224883D-14 -0.27791353D-17  0.26157029D-19 -0.12463957D-02  0.29879187D-03
  0.94760384D-03  0.20424631D-14  0.21295177D-17 -0.18857265D-19 -0.18959767D-03
  0.94549611D-04  0.95048064D-04  0.12645369D-15  0.69665300D-18 -0.23336309D-19
  0.11856786D-02  0.52652885D-16 -0.31222016D-19 -0.23180246D-02 -0.18959161D-15
  0.50407366D-18 -0.12390112D-02  0.31632956D-16 -0.41040761D-18 -0.82938373D-19
  0.46397322D-03  0.13472256D-15  0.32949135D-18 -0.40833175D-03 -0.48647084D-15
 -0.12870271D-17 -0.98358792D-03  0.82303151D-16  0.29855306D-18  0.76419214D-19
MO    5     MO 0.0        OCC NO =    2.0000000  ORB. ENERGY =   -0.930669
 -0.97665867D-02 -0.18198596D-01 -0.30778389D-01 -0.46350548D-01 -0.57384985D-01
 -0.48832032D-01 -0.18581489D-01  0.87025041D-04 -0.59703112D-01 -0.11194389D+00
 -0.19044987D+00 -0.29574854D+00 -0.39247551D+00 -0.41361531D+00 -0.25646788D+00
  0.17060253D+00  0.93548345D-01  0.20270120D-01  0.38027351D-03 -0.10001542D-04
 -0.96063612D-05 -0.67366436D-05  0.30632144D-12  0.29421808D-12  0.20632603D-12
 -0.11796811D-14 -0.11330696D-14 -0.79458664D-15 -0.20336858D-05 -0.54721651D-12
 -0.20814652D-15 -0.17018638D-06 -0.81270111D-12 -0.23421149D-16  0.65788222D-08
 -0.60417643D-13 -0.51162174D-18  0.17047767D-01  0.17043068D-01 -0.34090835D-01
 -0.43484173D-13 -0.16929505D-17 -0.34626793D-16  0.34004459D-02  0.33996769D-02
 -0.68001228D-02  0.50473821D-12  0.36224590D-17 -0.65085016D-17 -0.29610112D-04
 -0.29656363D-04  0.59266476D-04  0.66564195D-13 -0.19855189D-17  0.16800183D-17
  0.12489315D-01 -0.23288098D-13  0.17509153D-16 -0.37468465D-01 -0.39232443D-13
 -0.64507471D-17  0.52103345D-06  0.10909674D-12 -0.46076713D-16  0.49751866D-16
  0.28479714D-03  0.50795425D-14  0.21466506D-17 -0.85444696D-03 -0.54430516D-13
 -0.94769980D-17  0.55542977D-07  0.39191888D-13  0.30370461D-17 -0.49762687D-18
 -0.56516412D-02 -0.10533932D-01 -0.17862058D-01 -0.27035057D-01 -0.33731858D-01
 -0.28971168D-01 -0.11122595D-01  0.49752048D-04 -0.36772842D-01 -0.68968376D-01
 -0.11757596D+00 -0.18374834D+00 -0.24570655D+00 -0.26235731D+00 -0.16040011D+00
  0.10582225D+00  0.58485195D-01  0.20704950D-01 -0.14670774D-03  0.14787581D+00
  0.14338979D+00  0.96729905D-01 -0.25610972D+00 -0.24834028D+00 -0.16752888D+00
 -0.40969840D-15 -0.39726964D-15 -0.26799575D-15  0.31580614D-01 -0.54695563D-01
 -0.10391328D-15  0.16446498D-02 -0.28482856D-02 -0.79489801D-17 -0.58862794D-04
  0.10194707D-03  0.51387065D-18 -0.56506569D-02  0.23234216D-01 -0.17583559D-01
 -0.50038037D-01 -0.65592087D-16  0.13106967D-15 -0.12750061D-02  0.53485094D-02
 -0.40735032D-02 -0.11473384D-01 -0.19324730D-16  0.23260293D-16 -0.40912638D-04
  0.98920241D-05  0.31020614D-04 -0.88054325D-04  0.36075259D-18 -0.36443186D-17
 -0.29363935D-02 -0.28999574D-02  0.15967097D-16  0.15506934D-01 -0.29004913D-02
 -0.45617452D-17 -0.66977536D-02  0.11600364D-01 -0.43339546D-16  0.46155866D-16
 -0.27310371D-03 -0.11934857D-03 -0.25524942D-17  0.10949359D-02 -0.11938312D-03
 -0.23440419D-17 -0.27562475D-03  0.47742882D-03  0.10001524D-16  0.46665199D-17