 Molden2AIM, Version 4.0.0 (06/02/2016)           Time: Fri Jun 29 04:11:41 2018
GAUSSIAN             16 MOL ORBITALS    281 PRIMITIVES        3 NUCLEI
  N    1    (CENTRE  1)   0.00000000  0.22103371  0.00325789  CHARGE =  7.0
  O    2    (CENTRE  2)   0.00000000  1.47198705 -2.46518552  CHARGE =  8.0
  Cl   3    (CENTRE  3)   0.00000000 -1.69302075 -2.86917873  CHARGE = 17.0
CENTRE ASSIGNMENTS    1  1  1  1  1  1  1  1  1  1  1  1  1  1  1  1  1  1  1  1
CENTRE ASSIGNMENTS    1  1  1  1  1  1  1  1  1  1  1  1  1  1  1  1  1  1  1  1
CENTRE ASSIGNMENTS    1  1  1  1  1  1  1  1  1  1  1  1  1  1  1  1  1  1  1  1
CENTRE ASSIGNMENTS    1  1  1  1  1  1  1  1  1  1  1  1  1  1  1  2  2  2  2  2
CENTRE ASSIGNMENTS    2  2  2  2  2  2  2  2  2  2  2  2  2  2  2  2  2  2  2  2
CENTRE ASSIGNMENTS    2  2  2  2  2  2  2  2  2  2  2  2  2  2  2  2  2  2  2  2
CENTRE ASSIGNMENTS    2  2  2  2  2  2  2  2  2  2  2  2  2  2  2  2  2  2  2  2
CENTRE ASSIGNMENTS    2  2  2  2  2  2  2  2  2  2  3  3  3  3  3  3  3  3  3  3
CENTRE ASSIGNMENTS    3  3  3  3  3  3  3  3  3  3  3  3  3  3  3  3  3  3  3  3
CENTRE ASSIGNMENTS    3  3  3  3  3  3  3  3  3  3  3  3  3  3  3  3  3  3  3  3
CENTRE ASSIGNMENTS    3  3  3  3  3  3  3  3  3  3  3  3  3  3  3  3  3  3  3  3
CENTRE ASSIGNMENTS    3  3  3  3  3  3  3  3  3  3  3  3  3  3  3  3  3  3  3  3
CENTRE ASSIGNMENTS    3  3  3  3  3  3  3  3  3  3  3  3  3  3  3  3  3  3  3  3
CENTRE ASSIGNMENTS    3  3  3  3  3  3  3  3  3  3  3  3  3  3  3  3  3  3  3  3
CENTRE ASSIGNMENTS    3
TYPE ASSIGNMENTS      1  1  1  1  1  1  1  1  1  1  1  1  1  1  1  1  1  1  1  2
TYPE ASSIGNMENTS      2  2  3  3  3  4  4  4  2  3  4  2  3  4  2  3  4  5  6  7
TYPE ASSIGNMENTS      8  9 10  5  6  7  8  9 10  5  6  7  8  9 10 11 12 13 17 14
TYPE ASSIGNMENTS     15 18 19 16 20 11 12 13 17 14 15 18 19 16 20  1  1  1  1  1
TYPE ASSIGNMENTS      1  1  1  1  1  1  1  1  1  1  1  1  1  1  2  2  2  3  3  3
TYPE ASSIGNMENTS      4  4  4  2  3  4  2  3  4  2  3  4  5  6  7  8  9 10  5  6
TYPE ASSIGNMENTS      7  8  9 10  5  6  7  8  9 10 11 12 13 17 14 15 18 19 16 20
TYPE ASSIGNMENTS     11 12 13 17 14 15 18 19 16 20  1  1  1  1  1  1  1  1  1  1
TYPE ASSIGNMENTS      1  1  1  1  1  1  1  1  1  1  1  1  1  1  1  1  1  1  1  1
TYPE ASSIGNMENTS      1  1  1  1  1  1  1  1  1  1  1  1  2  2  2  2  2  2  2  3
TYPE ASSIGNMENTS      3  3  3  3  3  3  4  4  4  4  4  4  4  2  2  2  2  2  2  2
TYPE ASSIGNMENTS      3  3  3  3  3  3  3  4  4  4  4  4  4  4  2  3  4  2  3  4
TYPE ASSIGNMENTS      2  3  4  5  6  7  8  9 10  5  6  7  8  9 10  5  6  7  8  9
TYPE ASSIGNMENTS     10 11 12 13 17 14 15 18 19 16 20 11 12 13 17 14 15 18 19 16
TYPE ASSIGNMENTS     20
EXPONENTS  0.1142000D+05 0.1712000D+04 0.3893000D+03 0.1100000D+03 0.3557000D+02
EXPONENTS  0.1254000D+02 0.4644000D+01 0.5118000D+00 0.1142000D+05 0.1712000D+04
EXPONENTS  0.3893000D+03 0.1100000D+03 0.3557000D+02 0.1254000D+02 0.4644000D+01
EXPONENTS  0.5118000D+00 0.1293000D+01 0.1787000D+00 0.5760000D-01 0.2663000D+02
EXPONENTS  0.5948000D+01 0.1742000D+01 0.2663000D+02 0.5948000D+01 0.1742000D+01
EXPONENTS  0.2663000D+02 0.5948000D+01 0.1742000D+01 0.5550000D+00 0.5550000D+00
EXPONENTS  0.5550000D+00 0.1725000D+00 0.1725000D+00 0.1725000D+00 0.4910000D-01
EXPONENTS  0.4910000D-01 0.4910000D-01 0.1654000D+01 0.1654000D+01 0.1654000D+01
EXPONENTS  0.1654000D+01 0.1654000D+01 0.1654000D+01 0.4690000D+00 0.4690000D+00
EXPONENTS  0.4690000D+00 0.4690000D+00 0.4690000D+00 0.4690000D+00 0.1510000D+00
EXPONENTS  0.1510000D+00 0.1510000D+00 0.1510000D+00 0.1510000D+00 0.1510000D+00
EXPONENTS  0.1093000D+01 0.1093000D+01 0.1093000D+01 0.1093000D+01 0.1093000D+01
EXPONENTS  0.1093000D+01 0.1093000D+01 0.1093000D+01 0.1093000D+01 0.1093000D+01
EXPONENTS  0.3640000D+00 0.3640000D+00 0.3640000D+00 0.3640000D+00 0.3640000D+00
EXPONENTS  0.3640000D+00 0.3640000D+00 0.3640000D+00 0.3640000D+00 0.3640000D+00
EXPONENTS  0.1533000D+05 0.2299000D+04 0.5224000D+03 0.1473000D+03 0.4755000D+02
EXPONENTS  0.1676000D+02 0.6207000D+01 0.6882000D+00 0.1533000D+05 0.2299000D+04
EXPONENTS  0.5224000D+03 0.1473000D+03 0.4755000D+02 0.1676000D+02 0.6207000D+01
EXPONENTS  0.6882000D+00 0.1752000D+01 0.2384000D+00 0.7376000D-01 0.3446000D+02
EXPONENTS  0.7749000D+01 0.2280000D+01 0.3446000D+02 0.7749000D+01 0.2280000D+01
EXPONENTS  0.3446000D+02 0.7749000D+01 0.2280000D+01 0.7156000D+00 0.7156000D+00
EXPONENTS  0.7156000D+00 0.2140000D+00 0.2140000D+00 0.2140000D+00 0.5974000D-01
EXPONENTS  0.5974000D-01 0.5974000D-01 0.2314000D+01 0.2314000D+01 0.2314000D+01
EXPONENTS  0.2314000D+01 0.2314000D+01 0.2314000D+01 0.6450000D+00 0.6450000D+00
EXPONENTS  0.6450000D+00 0.6450000D+00 0.6450000D+00 0.6450000D+00 0.2140000D+00
EXPONENTS  0.2140000D+00 0.2140000D+00 0.2140000D+00 0.2140000D+00 0.2140000D+00
EXPONENTS  0.1428000D+01 0.1428000D+01 0.1428000D+01 0.1428000D+01 0.1428000D+01
EXPONENTS  0.1428000D+01 0.1428000D+01 0.1428000D+01 0.1428000D+01 0.1428000D+01
EXPONENTS  0.5000000D+00 0.5000000D+00 0.5000000D+00 0.5000000D+00 0.5000000D+00
EXPONENTS  0.5000000D+00 0.5000000D+00 0.5000000D+00 0.5000000D+00 0.5000000D+00
EXPONENTS  0.4561000D+06 0.6833000D+05 0.1555000D+05 0.4405000D+04 0.1439000D+04
EXPONENTS  0.5204000D+03 0.2031000D+03 0.8396000D+02 0.3620000D+02 0.1583000D+02
EXPONENTS  0.6334000D+01 0.2694000D+01 0.4313000D+00 0.4561000D+06 0.6833000D+05
EXPONENTS  0.1555000D+05 0.4405000D+04 0.1439000D+04 0.5204000D+03 0.2031000D+03
EXPONENTS  0.8396000D+02 0.3620000D+02 0.1583000D+02 0.6334000D+01 0.2694000D+01
EXPONENTS  0.4313000D+00 0.4561000D+06 0.6833000D+05 0.1555000D+05 0.4405000D+04
EXPONENTS  0.1439000D+04 0.5204000D+03 0.2031000D+03 0.8396000D+02 0.3620000D+02
EXPONENTS  0.1583000D+02 0.6334000D+01 0.2694000D+01 0.4313000D+00 0.9768000D+00
EXPONENTS  0.1625000D+00 0.5910000D-01 0.6633000D+03 0.1568000D+03 0.4998000D+02
EXPONENTS  0.1842000D+02 0.7240000D+01 0.2922000D+01 0.3818000D+00 0.6633000D+03
EXPONENTS  0.1568000D+03 0.4998000D+02 0.1842000D+02 0.7240000D+01 0.2922000D+01
EXPONENTS  0.3818000D+00 0.6633000D+03 0.1568000D+03 0.4998000D+02 0.1842000D+02
EXPONENTS  0.7240000D+01 0.2922000D+01 0.3818000D+00 0.6633000D+03 0.1568000D+03
EXPONENTS  0.4998000D+02 0.1842000D+02 0.7240000D+01 0.2922000D+01 0.3818000D+00
EXPONENTS  0.6633000D+03 0.1568000D+03 0.4998000D+02 0.1842000D+02 0.7240000D+01
EXPONENTS  0.2922000D+01 0.3818000D+00 0.6633000D+03 0.1568000D+03 0.4998000D+02
EXPONENTS  0.1842000D+02 0.7240000D+01 0.2922000D+01 0.3818000D+00 0.1022000D+01
EXPONENTS  0.1022000D+01 0.1022000D+01 0.1301000D+00 0.1301000D+00 0.1301000D+00
EXPONENTS  0.4190000D-01 0.4190000D-01 0.4190000D-01 0.1046000D+01 0.1046000D+01
EXPONENTS  0.1046000D+01 0.1046000D+01 0.1046000D+01 0.1046000D+01 0.3440000D+00
EXPONENTS  0.3440000D+00 0.3440000D+00 0.3440000D+00 0.3440000D+00 0.3440000D+00
EXPONENTS  0.1350000D+00 0.1350000D+00 0.1350000D+00 0.1350000D+00 0.1350000D+00
EXPONENTS  0.1350000D+00 0.7060000D+00 0.7060000D+00 0.7060000D+00 0.7060000D+00
EXPONENTS  0.7060000D+00 0.7060000D+00 0.7060000D+00 0.7060000D+00 0.7060000D+00
EXPONENTS  0.7060000D+00 0.3120000D+00 0.3120000D+00 0.3120000D+00 0.3120000D+00
EXPONENTS  0.3120000D+00 0.3120000D+00 0.3120000D+00 0.3120000D+00 0.3120000D+00
EXPONENTS  0.3120000D+00
MO    1     MO 0.0        OCC NO =    2.0000000  ORB. ENERGY = -100.842676
 -0.37492264D-04 -0.69861314D-04 -0.11815300D-03 -0.17793186D-03 -0.22029119D-03
 -0.18745786D-03 -0.71331174D-04  0.33407432D-06  0.23180489D-04  0.43463633D-04
  0.73944572D-04  0.11482811D-03  0.15238359D-03  0.16059138D-03  0.99576901D-04
 -0.66238593D-04  0.21435330D-04  0.71164568D-03  0.10657901D-03 -0.46490283D-07
 -0.44653361D-07 -0.31314019D-07 -0.92420908D-04 -0.88769177D-04 -0.62251074D-04
  0.61222321D-04  0.58803307D-04  0.41236938D-04  0.17662810D-08  0.11895106D-04
 -0.18403577D-03 -0.83398590D-09 -0.19995718D-03 -0.26071201D-03  0.14719248D-08
 -0.89436457D-05 -0.71663914D-05 -0.51107225D-04 -0.54302833D-04  0.10541006D-03
  0.22160903D-06  0.21264620D-06  0.15108766D-03 -0.12434972D-04  0.59402633D-06
  0.11840946D-04 -0.90312384D-07 -0.68242301D-07  0.39460404D-04 -0.57355753D-06
 -0.44174433D-05  0.49910009D-05 -0.81335411D-08 -0.24695246D-08  0.39796413D-04
  0.25674629D-07  0.21575881D-04 -0.62836432D-04 -0.68929322D-08  0.23336304D-04
  0.13216720D-03 -0.70130954D-07 -0.88063947D-04  0.56342099D-04 -0.14145547D-06
 -0.19244148D-07 -0.40282112D-05  0.20883625D-04  0.17703999D-07 -0.23204657D-04
 -0.63662383D-04  0.40028445D-07  0.35289290D-04  0.10115064D-05  0.10740724D-06
  0.86463383D-04  0.16115662D-03  0.27326823D-03  0.41360420D-03  0.51605728D-03
  0.44322438D-03  0.17016246D-03 -0.76114711D-06 -0.59797105D-04 -0.11215095D-03
 -0.19119279D-03 -0.29879711D-03 -0.39954867D-03 -0.42662483D-03 -0.26083006D-03
  0.17207983D-03 -0.57417120D-05  0.20507924D-03  0.10376172D-03  0.40859900D-08
  0.39620358D-08  0.26727660D-08 -0.55920669D-04 -0.54224238D-04 -0.36579351D-04
 -0.93193830D-04 -0.90366667D-04 -0.60960819D-04 -0.47233813D-07 -0.16612808D-03
  0.76158500D-04  0.10520764D-06  0.75751894D-04 -0.11124299D-03  0.26570851D-08
 -0.64843770D-05 -0.56615183D-06 -0.20775851D-03  0.34910327D-03 -0.14134476D-03
  0.35046297D-06  0.75788657D-07  0.24246522D-03  0.63330808D-04 -0.96962319D-04
  0.33631511D-04 -0.12558547D-06 -0.32966858D-07 -0.13434932D-03  0.46494968D-04
 -0.61514946D-04  0.15019978D-04 -0.74851680D-07  0.13011860D-07  0.66503630D-04
  0.14155484D-06 -0.14270454D-03 -0.40669113D-04 -0.41446438D-06  0.39653074D-03
 -0.34622647D-04 -0.10200156D-07  0.31582885D-04  0.15662999D-03 -0.69617136D-07
 -0.59860366D-07  0.99771200D-04 -0.12257628D-04  0.19215050D-06 -0.21117358D-03
 -0.88097019D-06 -0.12569401D-07 -0.88140024D-04  0.37653856D-04  0.60592066D-07
  0.61731981D+00  0.11550077D+01  0.19955975D+01  0.32350963D+01  0.49127517D+01
  0.68281472D+01  0.81176820D+01  0.72306067D+01  0.35894897D+01  0.57832430D+00
  0.88788185D-02  0.15866361D-02  0.59290117D-04 -0.11143244D-02 -0.20813980D-02
 -0.36123672D-02 -0.58614039D-02 -0.90727571D-02 -0.12986827D-01 -0.16951866D-01
 -0.18065042D-01 -0.13503986D-01 -0.71285143D-03  0.91597870D-02  0.54419659D-02
 -0.20403292D-04  0.47118220D-03  0.87939368D-03  0.15283088D-02  0.24769390D-02
  0.38470740D-02  0.55110446D-02  0.72768209D-02  0.78684019D-02  0.61689291D-02
  0.30696387D-03 -0.52883319D-02 -0.54744039D-02  0.24772452D-02 -0.32060679D-02
 -0.95611418D-03 -0.22655184D-03 -0.64166330D-04 -0.84521457D-04 -0.93246968D-04
 -0.77452325D-04 -0.41136811D-04 -0.10610384D-04  0.10907114D-07  0.80623425D-02
  0.10619915D-01  0.11716254D-01  0.97316954D-02  0.51687398D-02  0.13331688D-02
 -0.13704522D-05  0.25453211D-02  0.33527591D-02  0.36988788D-02  0.30723440D-02
  0.16317965D-02  0.42088793D-03 -0.43265848D-06  0.12268515D-04  0.16107660D-04
  0.18339756D-04  0.15529352D-04  0.88958110D-05  0.20234884D-05 -0.94710392D-06
 -0.66785467D-02 -0.87684422D-02 -0.99835165D-02 -0.84536317D-02 -0.48425657D-02
 -0.11015157D-02  0.51556997D-03 -0.20953107D-02 -0.27509894D-02 -0.31322038D-02
 -0.26522215D-02 -0.15192946D-02 -0.34558681D-03  0.16175365D-03  0.40522895D-05
 -0.32778094D-03 -0.51705160D-04  0.55464245D-07 -0.37995584D-03 -0.28627728D-03
 -0.76092830D-08 -0.81112453D-05 -0.67418908D-05 -0.18789456D-03  0.15927934D-03
  0.28615220D-04  0.91066296D-07  0.25881085D-06  0.29015304D-03  0.16395121D-04
  0.45485755D-04 -0.61880876D-04 -0.17251505D-06 -0.10190502D-06 -0.33527731D-04
  0.52532456D-04 -0.43069944D-04 -0.94625113D-05 -0.13743110D-07 -0.27857706D-08
 -0.95074554D-04  0.14564940D-07  0.10234345D-03 -0.80633382D-06 -0.35824083D-07
 -0.33186361D-03 -0.15230306D-03 -0.78707379D-08  0.24833274D-04  0.15472206D-03
 -0.38494118D-07  0.21429052D-07 -0.21088672D-04 -0.93252396D-05 -0.57889549D-07
  0.10875173D-03  0.66442177D-04 -0.63976066D-08 -0.45485712D-04 -0.38466458D-04
 -0.49714815D-07
MO    2     MO 0.0        OCC NO =    2.0000000  ORB. ENERGY =  -18.873533
  0.13435922D-03  0.25035862D-03  0.42341918D-03  0.63764583D-03  0.78944690D-03
  0.67178368D-03  0.25562608D-03 -0.11972060D-05 -0.81675895D-04 -0.15314307D-03
 -0.26054192D-03 -0.40459410D-03 -0.53691990D-03 -0.56583987D-03 -0.35085682D-03
  0.23339009D-03 -0.46958287D-03  0.16952352D-02  0.48857062D-03 -0.26597637D-05
 -0.25546712D-05 -0.17915118D-05 -0.76857223D-03 -0.73820444D-03 -0.51767991D-03
  0.11764937D-02  0.11300082D-02  0.79243972D-03  0.70248889D-06  0.82272427D-03
 -0.13026388D-02 -0.15582901D-05  0.32120737D-03 -0.82624974D-03 -0.43062384D-08
  0.16131690D-04 -0.51116571D-04 -0.10660299D-03 -0.23742779D-03  0.34403078D-03
 -0.33625362D-05  0.68006578D-05 -0.38327695D-03 -0.37024827D-03 -0.72693972D-04
  0.44294224D-03  0.14957663D-05 -0.25248606D-05 -0.93800345D-03 -0.45638342D-04
 -0.11266019D-04  0.56904361D-04 -0.48520908D-06  0.81166894D-06 -0.44142301D-04
 -0.17367650D-05 -0.31959450D-03 -0.34415100D-03 -0.89939196D-06 -0.50509761D-03
  0.76740010D-03  0.61096870D-05  0.14638811D-02  0.26505290D-03 -0.96059810D-05
 -0.37592510D-06 -0.12919433D-04  0.13946076D-04  0.78101321D-07 -0.99168613D-05
  0.60630865D-04  0.10496740D-05  0.48675161D-04 -0.10246909D-03 -0.83434034D-06
  0.49624848D+00  0.92494332D+00  0.15683974D+01  0.23738425D+01  0.29618624D+01
  0.25438448D+01  0.97663147D+00 -0.43685325D-02  0.31524567D-03  0.59125107D-03
  0.10079535D-02  0.15752351D-02  0.21063894D-02  0.22491328D-02  0.13750757D-02
 -0.90719143D-03  0.56671662D-01 -0.21992777D-02 -0.10990681D-02  0.62248850D-03
  0.60360445D-03  0.40718800D-03 -0.72628097D-02 -0.70424824D-02 -0.47508170D-02
  0.37835094D-02  0.36687314D-02  0.24749045D-02 -0.65202653D-04  0.11647205D-02
 -0.73050774D-03  0.11187747D-04  0.13722145D-02 -0.10402113D-02 -0.55690971D-08
  0.65068184D-04 -0.61127131D-04 -0.27871233D-02  0.19358926D-02  0.85123069D-03
 -0.42143662D-03 -0.17163009D-03 -0.11903128D-02  0.91113749D-03 -0.54344605D-03
 -0.36769145D-03  0.22393745D-04  0.15857290D-05  0.79548180D-03  0.17033152D-03
 -0.98632448D-04 -0.71699075D-04 -0.43815931D-05  0.53088120D-06  0.19397290D-03
  0.74799589D-05 -0.97692934D-04 -0.67971001D-04 -0.21015921D-04 -0.76636407D-04
  0.19283272D-03 -0.14239561D-05  0.36971521D-03  0.11080281D-04  0.30235216D-05
 -0.77369479D-06  0.80741270D-04 -0.15069492D-03  0.27720993D-05 -0.43305762D-03
  0.29684849D-03 -0.45101495D-06  0.19083382D-03  0.15523628D-03  0.13216350D-05
  0.37824201D-04  0.70769224D-04  0.12227354D-03  0.19821967D-03  0.30101239D-03
  0.41837182D-03  0.49738374D-03  0.44303118D-03  0.21993394D-03  0.35434882D-04
  0.54401982D-06  0.97215808D-07  0.36328031D-08 -0.46054973D-04 -0.86024077D-04
 -0.14929896D-03 -0.24225154D-03 -0.37497661D-03 -0.53674494D-03 -0.70061981D-03
 -0.74662732D-03 -0.55811908D-03 -0.29462115D-04  0.37857355D-03  0.22491618D-03
 -0.84326706D-06  0.10296997D-04  0.19217862D-04  0.33398953D-04  0.54129877D-04
  0.84072174D-04  0.12043582D-03  0.15902427D-03  0.17195241D-03  0.13481292D-03
  0.67082462D-05 -0.11556876D-03 -0.11963509D-03  0.54136569D-04 -0.58002123D-03
  0.84138046D-03  0.85433882D-04 -0.43088063D-05 -0.56756649D-05 -0.62615880D-05
 -0.52009686D-05 -0.27623608D-05 -0.71249342D-06  0.73241901D-09  0.19009178D-01
  0.25039354D-01  0.27624273D-01  0.22945134D-01  0.12186718D-01  0.31433101D-02
 -0.32312160D-05  0.14596888D-02  0.19227377D-02  0.21212301D-02  0.17619254D-02
  0.93580139D-03  0.24137048D-03 -0.24812064D-06  0.53441289D-05  0.70164495D-05
  0.79887440D-05  0.67645403D-05  0.38749891D-05  0.88142559D-06 -0.41255568D-06
 -0.16621185D-01 -0.21822398D-01 -0.24846405D-01 -0.21038916D-01 -0.12051901D-01
 -0.27413893D-02  0.12831211D-02 -0.12503947D-02 -0.16416766D-02 -0.18691696D-02
 -0.15827360D-02 -0.90665213D-03 -0.20623190D-03  0.96527881D-04 -0.67169713D-06
 -0.14289311D-02 -0.14632160D-03 -0.19496181D-05  0.28847336D-03 -0.92127255D-06
  0.20468480D-07  0.42242873D-05  0.15086563D-05  0.72129398D-04 -0.14776078D-03
  0.75631380D-04 -0.19281958D-05 -0.77244373D-06 -0.67445921D-04 -0.26246721D-03
  0.54832606D-03 -0.28585885D-03 -0.76318985D-06 -0.44034236D-07  0.22713089D-03
 -0.10464386D-04  0.17773156D-04 -0.73087703D-05 -0.12634672D-05 -0.70767355D-07
  0.11381115D-04 -0.11185709D-05  0.33365831D-03 -0.85559306D-04  0.55139468D-05
 -0.52321404D-03 -0.39222126D-04 -0.21582342D-05 -0.47776088D-03  0.29590004D-03
 -0.17941234D-06  0.26498651D-06  0.44187066D-04 -0.10079536D-04 -0.13894625D-05
 -0.82975738D-04 -0.25644327D-04  0.59450301D-06 -0.49585462D-04  0.55882936D-04
 -0.38480673D-07
MO    3     MO 0.0        OCC NO =    2.0000000  ORB. ENERGY =  -14.069859
  0.40973055D+00  0.76347254D+00  0.12912235D+01  0.19445110D+01  0.24074307D+01
  0.20486149D+01  0.77953577D+00 -0.36508986D-02 -0.15590639D-04 -0.29232593D-04
 -0.49733339D-04 -0.77230624D-04 -0.10248953D-03 -0.10800990D-03 -0.66973026D-04
  0.44550483D-04  0.45246397D-01 -0.29643414D-02 -0.10457392D-02 -0.21739020D-03
 -0.20880069D-03 -0.14642546D-03  0.55068133D-03  0.52892284D-03  0.37091720D-03
 -0.74140631D-02 -0.71211190D-02 -0.49938202D-02  0.22708659D-04 -0.65481361D-04
  0.89712642D-03 -0.34401720D-05  0.18620931D-03  0.20990161D-02  0.17168814D-06
  0.15933540D-04  0.10816029D-03 -0.23398961D-02  0.39708823D-04  0.23001873D-02
 -0.27804869D-03 -0.19551475D-03  0.22990239D-03  0.84662636D-03  0.10733004D-03
 -0.95395640D-03  0.14308300D-04  0.58599129D-05 -0.97094943D-04  0.15044266D-03
  0.36061059D-04 -0.18650372D-03 -0.46039744D-07  0.19077793D-06 -0.23433440D-04
 -0.16045109D-05  0.40510419D-04  0.52888299D-04  0.48349636D-05  0.10135366D-04
 -0.28449219D-03 -0.21430724D-07 -0.13166662D-03  0.12582729D-03 -0.85766878D-05
  0.29192774D-06  0.10362776D-04  0.89409477D-04 -0.37679931D-06 -0.12429175D-04
 -0.42229744D-03 -0.49898391D-06 -0.18659153D-04  0.15406901D-03 -0.32313283D-05
  0.77367505D-04  0.14420307D-03  0.24452063D-03  0.37009337D-03  0.46176847D-03
  0.39659753D-03  0.15226150D-03 -0.68107505D-06 -0.49076291D-04 -0.92043800D-04
 -0.15691450D-03 -0.24522682D-03 -0.32791499D-03 -0.35013676D-03 -0.21406675D-03
  0.14122824D-03 -0.33108446D-03  0.17987635D-02  0.32358404D-03  0.13311509D-05
  0.12907686D-05  0.87074485D-06  0.54419441D-03  0.52768552D-03  0.35597353D-03
 -0.98541639D-03 -0.95552242D-03 -0.64458978D-03 -0.16226327D-07 -0.72456974D-03
  0.13619410D-02 -0.14071971D-05 -0.24111403D-03  0.85690870D-03 -0.80798237D-08
  0.27295454D-04  0.39167153D-04 -0.38493871D-03 -0.68160833D-04  0.45309954D-03
 -0.32538205D-05  0.11885479D-04 -0.12344093D-02 -0.26076268D-03 -0.15326168D-03
  0.41402436D-03  0.11551026D-05 -0.47296969D-05 -0.65635855D-03 -0.14846452D-04
 -0.26393498D-04  0.41239949D-04  0.68937324D-06 -0.56191876D-06 -0.16634317D-04
 -0.20331192D-05  0.47413420D-03  0.97989308D-04  0.76472782D-06  0.61229461D-03
 -0.11896824D-02  0.53346298D-05 -0.20346972D-02  0.89571452D-03 -0.58219165D-05
  0.12869511D-05 -0.76344671D-04 -0.25242113D-04  0.10822594D-06 -0.15189663D-03
  0.27169524D-03 -0.39690794D-05  0.38093064D-03 -0.19596890D-03  0.32418157D-05
 -0.63009745D-04 -0.11789147D-03 -0.20369035D-03 -0.33020582D-03 -0.50144387D-03
 -0.69694802D-03 -0.82857065D-03 -0.73802701D-03 -0.36637870D-03 -0.59029479D-04
 -0.90625975D-06 -0.16194773D-06 -0.60517339D-08  0.13591127D-03  0.25386273D-03
  0.44059109D-03  0.71490028D-03  0.11065807D-02  0.15839698D-02  0.20675753D-02
  0.22033465D-02  0.16470463D-02  0.86944647D-04 -0.11171956D-02 -0.66374251D-03
  0.24885368D-05 -0.91037316D-04 -0.16990803D-03 -0.29528521D-03 -0.47857045D-03
 -0.74329484D-03 -0.10647913D-02 -0.14059577D-02 -0.15202573D-02 -0.11919015D-02
 -0.59308622D-04  0.10217609D-02  0.10577119D-02 -0.47862962D-03 -0.50329930D-03
  0.18245804D-02  0.82207072D-03  0.16521922D-04  0.21763079D-04  0.24009775D-04
  0.19942878D-04  0.10592147D-04  0.27320237D-05 -0.28084275D-08  0.10449016D-01
  0.13763699D-01  0.15184584D-01  0.12612543D-01  0.66988278D-02  0.17278231D-02
 -0.17761434D-05  0.19122751D-01  0.25188955D-01  0.27789319D-01  0.23082223D-01
  0.12259530D-01  0.31620903D-02 -0.32505213D-05 -0.13758517D-04 -0.18063925D-04
 -0.20567107D-04 -0.17415382D-04 -0.99762012D-05 -0.22692397D-05  0.10621290D-05
 -0.89919883D-02 -0.11805821D-01 -0.13441796D-01 -0.11381961D-01 -0.65200255D-02
 -0.14830796D-02  0.69416287D-03 -0.16599595D-01 -0.21794051D-01 -0.24814131D-01
 -0.21011587D-01 -0.12036246D-01 -0.27378284D-02  0.12814543D-02 -0.17996236D-05
 -0.88719890D-03 -0.14585992D-02  0.12760774D-05  0.63192992D-03  0.66880229D-03
 -0.81293453D-07  0.28862747D-04  0.25657970D-04  0.20760909D-03 -0.18813230D-04
 -0.18879586D-03 -0.13707977D-05 -0.26045621D-05 -0.30208261D-03 -0.33521240D-03
 -0.46478395D-04  0.38169080D-03  0.15363169D-05  0.24100179D-05  0.89946097D-03
 -0.57452082D-04  0.32873804D-04  0.24578277D-04  0.42367042D-06  0.46019683D-06
  0.13793907D-03  0.14826280D-06 -0.16930488D-03 -0.28294839D-05 -0.11391517D-06
 -0.22609060D-03 -0.38150972D-03 -0.33087323D-06  0.73400523D-03  0.38999818D-03
 -0.83125310D-07 -0.43418670D-06 -0.15298441D-04  0.28087903D-04  0.19945905D-06
 -0.90006219D-04 -0.90784406D-04  0.11031011D-05  0.13590154D-03  0.65206973D-05
  0.18214452D-05
MO    4     MO 0.0        OCC NO =    2.0000000  ORB. ENERGY =   -9.317904
  0.55228053D-04  0.10290934D-03  0.17404550D-03  0.26210288D-03  0.32450037D-03
  0.27613517D-03  0.10507453D-03 -0.49210883D-06 -0.34094119D-04 -0.63926792D-04
 -0.10875849D-03 -0.16889046D-03 -0.22412746D-03 -0.23619958D-03 -0.14645881D-03
  0.97424454D-04 -0.12347335D-03 -0.13181772D-02 -0.18649281D-04  0.93172079D-06
  0.89490668D-06  0.62757034D-06  0.33967824D-03  0.32625689D-03  0.22879385D-03
  0.37580221D-04  0.36095353D-04  0.25312553D-04 -0.60778166D-07 -0.22195369D-03
  0.25680764D-03  0.11834099D-05  0.39583096D-03  0.40784372D-03 -0.16635348D-06
  0.16561883D-04 -0.64053948D-05  0.67806070D-04  0.73478187D-04 -0.14128426D-03
 -0.23029637D-05 -0.32415542D-05 -0.63809964D-04 -0.47392998D-04 -0.10887753D-04
  0.58280751D-04  0.72794269D-06  0.44907532D-06  0.13614982D-03 -0.10114968D-04
  0.91443575D-05  0.97061014D-06  0.49643910D-07 -0.38655757D-06 -0.85551639D-04
 -0.87867482D-07  0.37260379D-04  0.64242772D-04 -0.36282447D-06  0.54009047D-04
 -0.13720249D-03  0.62642691D-06 -0.16579019D-03 -0.55525821D-04  0.15096237D-05
  0.25048820D-06  0.15335136D-04 -0.42670951D-04  0.38394455D-07  0.43586141D-04
  0.15572119D-03 -0.78985906D-06 -0.89591548D-04 -0.27708335D-04 -0.12126789D-05
 -0.90382201D-04 -0.16846079D-03 -0.28565369D-03 -0.43235016D-03 -0.53944677D-03
 -0.46331283D-03 -0.17787480D-03  0.79564492D-06  0.63424661D-04  0.11895452D-03
  0.20279139D-03  0.31692346D-03  0.42378706D-03  0.45250578D-03  0.27665316D-03
 -0.18251895D-03 -0.13568090D-03 -0.36997976D-03 -0.27257732D-03 -0.73162525D-07
 -0.70943038D-07 -0.47857755D-07  0.25003245D-03  0.24244737D-03  0.16355356D-03
  0.17873842D-03  0.17331615D-03  0.11691805D-03  0.17254568D-05 -0.42247817D-04
 -0.21835723D-03 -0.40439901D-05 -0.18384687D-03  0.24375863D-03  0.17145373D-06
  0.11830530D-04 -0.14683413D-04  0.92760601D-04 -0.24519577D-04 -0.68241024D-04
 -0.11644879D-04 -0.48504835D-05 -0.21038030D-03 -0.15771033D-03  0.23730793D-03
 -0.79597604D-04  0.58087204D-05  0.25372365D-05  0.27253885D-03 -0.96185154D-04
  0.12243912D-03 -0.26253962D-04  0.28258572D-05 -0.31612134D-06 -0.16923504D-03
 -0.33372986D-05  0.65489691D-04  0.69824583D-04  0.85429358D-05 -0.43853236D-03
  0.80835111D-04  0.14689600D-05  0.24206329D-03 -0.29030886D-03  0.50567653D-05
  0.20582628D-05 -0.12704907D-03  0.27748261D-04 -0.65760510D-05  0.31545275D-03
 -0.21074277D-04  0.40126247D-06  0.65694459D-04 -0.62170507D-04 -0.40003575D-05
 -0.36997305D-02 -0.69222100D-02 -0.11960045D-01 -0.19388628D-01 -0.29443179D-01
 -0.40922556D-01 -0.48651016D-01 -0.43334583D-01 -0.21512585D-01 -0.34660220D-02
 -0.53212671D-04 -0.95090520D-05 -0.35533844D-06 -0.16723271D+00 -0.31236668D+00
 -0.54212752D+00 -0.87965266D+00 -0.13615978D+01 -0.19490036D+01 -0.25440585D+01
 -0.27111188D+01 -0.20266164D+01 -0.10698148D+00  0.13746589D+01  0.81670532D+00
 -0.30620327D-02 -0.13839572D-02 -0.25829567D-02 -0.44889515D-02 -0.72752698D-02
 -0.11299633D-01 -0.16187050D-01 -0.21373492D-01 -0.23111085D-01 -0.18119390D-01
 -0.90161485D-03  0.15532898D-01  0.16079429D-01 -0.72761693D-02  0.77233263D-01
  0.24254538D-02  0.24122847D-03 -0.82871100D-02 -0.10915984D-01 -0.12042887D-01
 -0.10003002D-01 -0.53128375D-02 -0.13703358D-02  0.14086586D-05  0.67496825D-01
  0.88908467D-01  0.98086867D-01  0.81472418D-01  0.43271980D-01  0.11161106D-01
 -0.11473237D-04  0.28993479D-01  0.38190919D-01  0.42133531D-01  0.34996740D-01
  0.18587619D-01  0.47942891D-02 -0.49283662D-05 -0.33927855D-03 -0.44544786D-03
 -0.50717516D-03 -0.42945510D-03 -0.24600841D-03 -0.55958379D-04  0.26191601D-04
  0.16868744D-01  0.22147424D-01  0.25216471D-01  0.21352272D-01  0.12231404D-01
  0.27822200D-02 -0.13022321D-02  0.70001375D-02  0.91906674D-02  0.10464251D-01
  0.88606979D-02  0.50757489D-02  0.11545568D-02 -0.54039612D-03 -0.19397179D-03
  0.23423267D-02  0.87250064D-03 -0.19098022D-05  0.69603011D-03  0.51717711D-03
  0.18058701D-06  0.82727012D-05  0.74807317D-05 -0.11559089D-02  0.12322246D-02
 -0.76315651D-04 -0.12353387D-03  0.17252953D-03  0.60813387D-03  0.15749974D-03
 -0.26515721D-03  0.10765746D-03  0.16038579D-04 -0.10194683D-04 -0.19613904D-03
 -0.10964555D-03  0.89827320D-04  0.19818235D-04 -0.65905709D-06  0.84778705D-06
  0.18569172D-03 -0.35880317D-05 -0.15715466D-03 -0.41495063D-04  0.92973874D-05
  0.60479653D-03  0.31599146D-03  0.14667077D-05 -0.13333254D-03 -0.19150627D-03
  0.21187868D-04 -0.33001241D-06  0.24398973D-04  0.28643076D-04  0.17540850D-05
 -0.16146388D-03 -0.10446641D-03 -0.76404778D-06  0.88266962D-04  0.18537178D-04
 -0.12372396D-05
MO    5     MO 0.0        OCC NO =    2.0000000  ORB. ENERGY =   -7.146151
  0.59027273D-04  0.10998863D-03  0.18601835D-03  0.28013333D-03  0.34682324D-03
  0.29513092D-03  0.11230276D-03 -0.52596173D-06 -0.47351890D-04 -0.88785236D-04
 -0.15105010D-03 -0.23456486D-03 -0.31128121D-03 -0.32804767D-03 -0.20341048D-03
  0.13530873D-03 -0.64121213D-04 -0.41563126D-04 -0.55552780D-04  0.39179870D-05
  0.37631797D-05  0.26390013D-05  0.14846974D-03  0.14260341D-03  0.10000336D-03
  0.32667260D-04  0.31376513D-04  0.22003376D-04 -0.14249432D-05 -0.37518482D-03
 -0.24254215D-03  0.52017768D-06  0.45165885D-05  0.55857813D-04  0.37710287D-07
  0.39583863D-05  0.57518370D-05 -0.28192712D-03 -0.74703876D-04  0.35663100D-03
 -0.10657920D-04 -0.89349003D-05  0.85360270D-03  0.53989107D-05 -0.35236546D-04
  0.29837635D-04  0.65646929D-05  0.58930873D-05  0.18151565D-03  0.45589189D-05
  0.49764280D-06 -0.50565617D-05  0.39092150D-06 -0.11818570D-06 -0.12127655D-04
  0.96064761D-06  0.89152699D-04 -0.12258702D-03  0.65386471D-06  0.46647653D-04
  0.22700644D-04 -0.35358076D-05 -0.31410575D-03  0.34506042D-03 -0.37668301D-06
  0.90343087D-06  0.80006610D-05  0.11966401D-04 -0.52431747D-06 -0.47116491D-04
 -0.37494133D-04 -0.21859751D-05  0.23114508D-04  0.15949315D-05 -0.61677730D-05
  0.13710403D-03  0.25554428D-03  0.43331842D-03  0.65584761D-03  0.81830633D-03
  0.70281601D-03  0.26982473D-03 -0.12069426D-05 -0.11606470D-03 -0.21768222D-03
 -0.37110046D-03 -0.57995779D-03 -0.77551407D-03 -0.82806822D-03 -0.50626467D-03
  0.33400268D-03 -0.38734911D-04  0.36598024D-03 -0.72227061D-04 -0.94287901D-06
 -0.91427547D-06 -0.61676483D-06 -0.30033005D-03 -0.29121912D-03 -0.19645470D-03
 -0.93984076D-04 -0.91132939D-04 -0.61477742D-04  0.15775301D-05 -0.72914280D-03
 -0.62214681D-04 -0.85551261D-05  0.22900189D-04  0.13466754D-03  0.39256427D-07
  0.19430728D-04  0.52256415D-05 -0.88153320D-03  0.18191973D-02 -0.93766408D-03
 -0.20696782D-06 -0.18201687D-05  0.66855270D-03  0.10762972D-03 -0.25114259D-03
  0.14351287D-03  0.65492768D-05  0.19730175D-05 -0.19491398D-03  0.15808670D-04
 -0.55027200D-04  0.39218530D-04  0.57020640D-05 -0.29964769D-06 -0.58758619D-04
 -0.23077009D-05  0.22063105D-04 -0.11404888D-03  0.18799183D-05  0.11332664D-04
 -0.40118811D-04  0.50431845D-05 -0.77521978D-04  0.38226546D-03  0.47744018D-05
  0.18390876D-05  0.22798616D-03 -0.52898917D-05 -0.48933138D-05 -0.37204458D-03
 -0.68260239D-04 -0.62394887D-06 -0.31191390D-03  0.84129914D-04 -0.39563292D-05
  0.17058610D-03  0.31916725D-03  0.55145030D-03  0.89396525D-03  0.13575576D-02
  0.18868454D-02  0.22431869D-02  0.19980584D-02  0.99189601D-03  0.15981034D-03
  0.24535144D-05  0.43844061D-06  0.16383842D-07  0.10784779D-02  0.20144418D-02
  0.34961615D-02  0.56728493D-02  0.87808970D-02  0.12569056D-01  0.16406545D-01
  0.17483911D-01  0.13069578D-01  0.68991983D-03 -0.88651273D-02 -0.52669041D-02
  0.19746942D-04  0.19560550D-03  0.36506948D-03  0.63445862D-03  0.10282708D-02
  0.15970655D-02  0.22878424D-02  0.30208828D-02  0.32664704D-02  0.25609551D-02
  0.12743228D-03 -0.21953860D-02 -0.22726315D-02  0.10283979D-02 -0.92905494D-03
 -0.34335384D-03  0.10138807D-03 -0.20071287D+00 -0.26438389D+00 -0.29167737D+00
 -0.24227158D+00 -0.12867632D+00 -0.33189377D-01  0.34117551D-04  0.11069478D+02
  0.14580987D+02  0.16086245D+02  0.13361476D+02  0.70966042D+01  0.18304212D+01
 -0.18816108D-02  0.30386649D+01  0.40026037D+01  0.44158095D+01  0.36678374D+01
  0.19480775D+01  0.50246602D+00 -0.51651799D-03 -0.29722297D-03 -0.39023197D-03
 -0.44430780D-03 -0.37622160D-03 -0.21551422D-03 -0.49022007D-04  0.22944997D-04
  0.71673766D-02  0.94102400D-02  0.10714251D-01  0.90723873D-02  0.51970128D-02
  0.11821401D-02 -0.55330662D-03  0.26997357D-02  0.35445550D-02  0.40357367D-02
  0.34172961D-02  0.19575588D-02  0.44527670D-03 -0.20841400D-03 -0.17183685D-02
  0.95449692D-01  0.26343535D-01 -0.85366534D-06  0.62838543D-04 -0.21818140D-05
  0.86346101D-07 -0.30727120D-05  0.18534228D-05 -0.12512328D-02  0.20624522D-02
 -0.81121945D-03 -0.29195677D-03 -0.70407439D-04  0.23718352D-02  0.12807032D-03
 -0.16408906D-03  0.36018742D-04  0.31652665D-04  0.10917247D-04 -0.28547191D-03