 Molden2AIM, Version 4.0.0 (06/02/2016)           Time: Thu Jun 28 22:49:55 2018
GAUSSIAN              9 MOL ORBITALS    204 PRIMITIVES        4 NUCLEI
  O    1    (CENTRE  1)  -1.10494176  0.58058056 -0.77274681  CHARGE =  8.0
  O    2    (CENTRE  2)   1.10493231  0.58080354  0.77257862  CHARGE =  8.0
  H    3    (CENTRE  3)  -2.24370017 -0.43213312  0.23551846  CHARGE =  1.0
  H    4    (CENTRE  4)   2.24370962 -0.43220493 -0.23535027  CHARGE =  1.0
CENTRE ASSIGNMENTS    1  1  1  1  1  1  1  1  1  1  1  1  1  1  1  1  1  1  1  1
CENTRE ASSIGNMENTS    1  1  1  1  1  1  1  1  1  1  1  1  1  1  1  1  1  1  1  1
CENTRE ASSIGNMENTS    1  1  1  1  1  1  1  1  1  1  1  1  1  1  1  1  1  1  1  1
CENTRE ASSIGNMENTS    1  1  1  1  1  1  1  1  1  1  1  1  1  1  1  2  2  2  2  2
CENTRE ASSIGNMENTS    2  2  2  2  2  2  2  2  2  2  2  2  2  2  2  2  2  2  2  2
CENTRE ASSIGNMENTS    2  2  2  2  2  2  2  2  2  2  2  2  2  2  2  2  2  2  2  2
CENTRE ASSIGNMENTS    2  2  2  2  2  2  2  2  2  2  2  2  2  2  2  2  2  2  2  2
CENTRE ASSIGNMENTS    2  2  2  2  2  2  2  2  2  2  3  3  3  3  3  3  3  3  3  3
CENTRE ASSIGNMENTS    3  3  3  3  3  3  3  3  3  3  3  3  3  3  3  3  3  4  4  4
CENTRE ASSIGNMENTS    4  4  4  4  4  4  4  4  4  4  4  4  4  4  4  4  4  4  4  4
CENTRE ASSIGNMENTS    4  4  4  4
TYPE ASSIGNMENTS      1  1  1  1  1  1  1  1  1  1  1  1  1  1  1  1  1  1  1  2
TYPE ASSIGNMENTS      2  2  3  3  3  4  4  4  2  3  4  2  3  4  2  3  4  5  6  7
TYPE ASSIGNMENTS      8  9 10  5  6  7  8  9 10  5  6  7  8  9 10 11 12 13 17 14
TYPE ASSIGNMENTS     15 18 19 16 20 11 12 13 17 14 15 18 19 16 20  1  1  1  1  1
TYPE ASSIGNMENTS      1  1  1  1  1  1  1  1  1  1  1  1  1  1  2  2  2  3  3  3
TYPE ASSIGNMENTS      4  4  4  2  3  4  2  3  4  2  3  4  5  6  7  8  9 10  5  6
TYPE ASSIGNMENTS      7  8  9 10  5  6  7  8  9 10 11 12 13 17 14 15 18 19 16 20
TYPE ASSIGNMENTS     11 12 13 17 14 15 18 19 16 20  1  1  1  1  1  1  2  3  4  2
TYPE ASSIGNMENTS      3  4  2  3  4  5  6  7  8  9 10  5  6  7  8  9 10  1  1  1
TYPE ASSIGNMENTS      1  1  1  2  3  4  2  3  4  2  3  4  5  6  7  8  9 10  5  6
TYPE ASSIGNMENTS      7  8  9 10
EXPONENTS  0.1533000D+05 0.2299000D+04 0.5224000D+03 0.1473000D+03 0.4755000D+02
EXPONENTS  0.1676000D+02 0.6207000D+01 0.6882000D+00 0.1533000D+05 0.2299000D+04
EXPONENTS  0.5224000D+03 0.1473000D+03 0.4755000D+02 0.1676000D+02 0.6207000D+01
EXPONENTS  0.6882000D+00 0.1752000D+01 0.2384000D+00 0.7376000D-01 0.3446000D+02
EXPONENTS  0.7749000D+01 0.2280000D+01 0.3446000D+02 0.7749000D+01 0.2280000D+01
EXPONENTS  0.3446000D+02 0.7749000D+01 0.2280000D+01 0.7156000D+00 0.7156000D+00
EXPONENTS  0.7156000D+00 0.2140000D+00 0.2140000D+00 0.2140000D+00 0.5974000D-01
EXPONENTS  0.5974000D-01 0.5974000D-01 0.2314000D+01 0.2314000D+01 0.2314000D+01
EXPONENTS  0.2314000D+01 0.2314000D+01 0.2314000D+01 0.6450000D+00 0.6450000D+00
EXPONENTS  0.6450000D+00 0.6450000D+00 0.6450000D+00 0.6450000D+00 0.2140000D+00
EXPONENTS  0.2140000D+00 0.2140000D+00 0.2140000D+00 0.2140000D+00 0.2140000D+00
EXPONENTS  0.1428000D+01 0.1428000D+01 0.1428000D+01 0.1428000D+01 0.1428000D+01
EXPONENTS  0.1428000D+01 0.1428000D+01 0.1428000D+01 0.1428000D+01 0.1428000D+01
EXPONENTS  0.5000000D+00 0.5000000D+00 0.5000000D+00 0.5000000D+00 0.5000000D+00
EXPONENTS  0.5000000D+00 0.5000000D+00 0.5000000D+00 0.5000000D+00 0.5000000D+00
EXPONENTS  0.1533000D+05 0.2299000D+04 0.5224000D+03 0.1473000D+03 0.4755000D+02
EXPONENTS  0.1676000D+02 0.6207000D+01 0.6882000D+00 0.1533000D+05 0.2299000D+04
EXPONENTS  0.5224000D+03 0.1473000D+03 0.4755000D+02 0.1676000D+02 0.6207000D+01
EXPONENTS  0.6882000D+00 0.1752000D+01 0.2384000D+00 0.7376000D-01 0.3446000D+02
EXPONENTS  0.7749000D+01 0.2280000D+01 0.3446000D+02 0.7749000D+01 0.2280000D+01
EXPONENTS  0.3446000D+02 0.7749000D+01 0.2280000D+01 0.7156000D+00 0.7156000D+00
EXPONENTS  0.7156000D+00 0.2140000D+00 0.2140000D+00 0.2140000D+00 0.5974000D-01
EXPONENTS  0.5974000D-01 0.5974000D-01 0.2314000D+01 0.2314000D+01 0.2314000D+01
EXPONENTS  0.2314000D+01 0.2314000D+01 0.2314000D+01 0.6450000D+00 0.6450000D+00
EXPONENTS  0.6450000D+00 0.6450000D+00 0.6450000D+00 0.6450000D+00 0.2140000D+00
EXPONENTS  0.2140000D+00 0.2140000D+00 0.2140000D+00 0.2140000D+00 0.2140000D+00
EXPONENTS  0.1428000D+01 0.1428000D+01 0.1428000D+01 0.1428000D+01 0.1428000D+01
EXPONENTS  0.1428000D+01 0.1428000D+01 0.1428000D+01 0.1428000D+01 0.1428000D+01
EXPONENTS  0.5000000D+00 0.5000000D+00 0.5000000D+00 0.5000000D+00 0.5000000D+00
EXPONENTS  0.5000000D+00 0.5000000D+00 0.5000000D+00 0.5000000D+00 0.5000000D+00
EXPONENTS  0.3387000D+02 0.5095000D+01 0.1159000D+01 0.3258000D+00 0.1027000D+00
EXPONENTS  0.2526000D-01 0.1407000D+01 0.1407000D+01 0.1407000D+01 0.3880000D+00
EXPONENTS  0.3880000D+00 0.3880000D+00 0.1020000D+00 0.1020000D+00 0.1020000D+00
EXPONENTS  0.1057000D+01 0.1057000D+01 0.1057000D+01 0.1057000D+01 0.1057000D+01
EXPONENTS  0.1057000D+01 0.2470000D+00 0.2470000D+00 0.2470000D+00 0.2470000D+00
EXPONENTS  0.2470000D+00 0.2470000D+00 0.3387000D+02 0.5095000D+01 0.1159000D+01
EXPONENTS  0.3258000D+00 0.1027000D+00 0.2526000D-01 0.1407000D+01 0.1407000D+01
EXPONENTS  0.1407000D+01 0.3880000D+00 0.3880000D+00 0.3880000D+00 0.1020000D+00
EXPONENTS  0.1020000D+00 0.1020000D+00 0.1057000D+01 0.1057000D+01 0.1057000D+01
EXPONENTS  0.1057000D+01 0.1057000D+01 0.1057000D+01 0.2470000D+00 0.2470000D+00
EXPONENTS  0.2470000D+00 0.2470000D+00 0.2470000D+00 0.2470000D+00
MO    1     MO 0.0        OCC NO =    2.0000000  ORB. ENERGY =  -18.816795
 -0.14155230D+00 -0.26383527D+00 -0.44737720D+00 -0.67712623D+00 -0.84485584D+00
 -0.72561849D+00 -0.27857905D+00  0.12461012D-02  0.12984916D-03  0.24353532D-03
  0.41517433D-03  0.64883666D-03  0.86761824D-03  0.92641401D-03  0.56639136D-03
 -0.37367062D-03 -0.16509502D-01  0.26771732D-02  0.90401267D-03 -0.21935821D-02
 -0.21270367D-02 -0.14348864D-02  0.95725363D-03  0.92821402D-03  0.62616770D-03
 -0.32815147D-02 -0.31819654D-02 -0.21465351D-02  0.17725312D-02  0.29267492D-03
  0.10080670D-02  0.17455640D-02 -0.66282199D-04  0.11226604D-02  0.99517330D-04
  0.22992632D-05  0.50798661D-04 -0.89316300D-03  0.78801660D-03  0.10514639D-03
 -0.10666599D-02 -0.94501071D-03  0.10362314D-02  0.75104564D-03 -0.76433351D-03
  0.13287872D-04  0.45882160D-05  0.22667875D-02  0.43583968D-04  0.14586622D-03
 -0.14791338D-03  0.20471642D-05 -0.57423353D-04  0.37532186D-03 -0.52397411D-04
 -0.77581628D-04 -0.23819280D-03 -0.24703218D-03 -0.10238812D-02  0.36499587D-03
  0.18363318D-02  0.12566261D-02  0.34958254D-03 -0.10952353D-02 -0.83694916D-03
  0.60414420D-04  0.61953446D-04 -0.84766940D-04 -0.25585971D-03 -0.76532332D-04
  0.36025928D-03  0.74616452D-04 -0.10932801D-03 -0.10595846D-03  0.15265053D-03
  0.47617398D+00  0.88752702D+00  0.15049518D+01  0.22778146D+01  0.28420475D+01
  0.24409398D+01  0.93712426D+00 -0.41918143D-02 -0.20852150D-04 -0.39108725D-04
 -0.66671803D-04 -0.10419505D-03 -0.13932863D-03 -0.14877050D-03 -0.90955366D-04
  0.60006826D-04  0.54224555D-01 -0.17886238D-02 -0.85776957D-03 -0.30866670D-02
 -0.29930287D-02 -0.20190795D-02 -0.33739728D-02 -0.32716187D-02 -0.22070147D-02
 -0.73993617D-02 -0.71748918D-02 -0.48401396D-02  0.22311323D-02 -0.68414970D-03
  0.33361222D-03  0.17065618D-02  0.33993097D-04  0.10844227D-02  0.92607796D-04
 -0.44226611D-05  0.51081477D-04  0.22211768D-02 -0.18303441D-02 -0.39083265D-03
 -0.35073313D-02  0.11341896D-02  0.29528394D-02 -0.92836004D-03  0.80496032D-03
  0.12339972D-03 -0.79730910D-04 -0.23812560D-02  0.23320512D-03 -0.18589343D-03
  0.16556810D-03  0.20325332D-04  0.52590595D-04 -0.36183798D-03 -0.77098092D-04
 -0.39079931D-03  0.45141991D-03  0.24287502D-03 -0.35065215D-04 -0.72892290D-03
  0.30202703D-03  0.12074632D-02 -0.62533683D-03 -0.10306521D-02  0.32653295D-02
  0.11641606D-03 -0.96912750D-04 -0.21320495D-03 -0.50432060D-03  0.23976745D-03
  0.81062924D-03  0.15507241D-03  0.50970797D-04 -0.17101440D-03 -0.58883784D-03
 -0.58727047D-04 -0.10591665D-03 -0.15617404D-03  0.21586010D-03  0.28599632D-03
  0.32467478D-04  0.18552374D-03  0.13641529D-03 -0.17860759D-03  0.13106175D-03
  0.21496367D-03 -0.22520746D-03  0.64595223D-04  0.38697776D-04 -0.36931361D-04
  0.10840445D-04  0.63250564D-04 -0.74091010D-04  0.87977269D-03 -0.99237876D-03
 -0.66578912D-03  0.17204324D-04 -0.88274542D-05 -0.83768699D-05  0.38014967D-04
 -0.35500907D-05 -0.12827996D-05  0.19464681D-03  0.35105355D-03  0.51762825D-03
 -0.67098106D-03 -0.50865516D-03 -0.32576628D-04  0.62422851D-03 -0.46507004D-03
 -0.38402603D-03  0.81616428D-03 -0.60227463D-03 -0.47239113D-03  0.13052682D-03
 -0.74416925D-04 -0.53762253D-04 -0.33957193D-03  0.50032588D-04  0.28953935D-03
  0.27319714D-02  0.26750578D-02 -0.20512194D-02 -0.51074413D-04  0.22479512D-04
  0.28594901D-04  0.96625410D-04  0.39591334D-04 -0.45903137D-04
MO    2     MO 0.0        OCC NO =    2.0000000  ORB. ENERGY =  -18.816783
  0.47606840D+00  0.88733025D+00  0.15046181D+01  0.22773096D+01  0.28414174D+01
  0.24403986D+01  0.93691649D+00 -0.41908849D-02  0.59718385D-04  0.11200331D-03
  0.19094109D-03  0.29840376D-03  0.39902268D-03  0.42606320D-03  0.26048668D-03
 -0.17185329D-03  0.53958499D-01 -0.39107131D-03 -0.43491550D-03  0.22550658D-02
  0.21866552D-02  0.14751047D-02 -0.34003823D-02 -0.32972270D-02 -0.22242898D-02
  0.66942989D-02  0.64912181D-02  0.43789374D-02 -0.15080646D-02 -0.62585340D-03
  0.25858791D-03 -0.89969755D-03 -0.29421453D-05 -0.56301591D-03 -0.45701299D-04
 -0.37974764D-05 -0.27875235D-04  0.20689188D-02 -0.16721275D-02 -0.39679137D-03
  0.34910267D-02  0.73690110D-03 -0.28479787D-02 -0.61875244D-03  0.46274667D-03
  0.15600577D-03  0.97268075D-04 -0.13654041D-02 -0.25034105D-03 -0.12683832D-03
  0.10128028D-03  0.25558037D-04 -0.10028587D-03 -0.18734827D-03  0.57792448D-04
  0.41583796D-03  0.38392442D-03 -0.45045994D-03 -0.62377314D-03 -0.63212268D-03
  0.83567335D-03 -0.62374074D-03 -0.51965058D-03  0.51570647D-03  0.33506451D-02
 -0.99586258D-04 -0.75245547D-04  0.19920416D-03  0.43499418D-03  0.23597805D-03
 -0.73282623D-03 -0.13623541D-03 -0.10241409D-04  0.13521375D-03 -0.60373481D-03
  0.14119694D+00  0.26317293D+00  0.44625409D+00  0.67542635D+00  0.84273488D+00
  0.72379687D+00  0.27787969D+00 -0.12429729D-02  0.14138980D-03  0.26518008D-03
  0.45207390D-03  0.70650351D-03  0.94472980D-03  0.10087512D-02  0.61673069D-03
 -0.40688145D-03  0.15613278D-01  0.20300360D-02  0.52019960D-03  0.60744495D-03
  0.58901727D-03  0.39734757D-03 -0.10538562D-02 -0.10218860D-02 -0.68935827D-03
 -0.90328387D-03 -0.87588150D-03 -0.59086449D-03 -0.66220874D-03 -0.96654731D-04
 -0.98584748D-03 -0.97170672D-03 -0.57358026D-04 -0.63349293D-03 -0.58451260D-04
 -0.15404475D-06 -0.27356119D-04  0.38068672D-03 -0.25201904D-03 -0.12866768D-03
 -0.10116032D-02 -0.38945469D-03  0.68605438D-03  0.29165778D-03 -0.38790464D-03
  0.96246864D-04 -0.56610116D-04  0.11542707D-02  0.10040750D-03  0.53005770D-04
 -0.68669588D-04  0.15663818D-04  0.10291312D-03  0.21223013D-03  0.12424252D-04
 -0.16194739D-03  0.10130714D-04  0.45285540D-03  0.11987309D-02 -0.39772418D-04
 -0.19948532D-02 -0.71288873D-03  0.93802768D-05  0.63628697D-03  0.11262725D-02
  0.37240734D-05  0.10851782D-04 -0.37661348D-04 -0.23058006D-04  0.64693363D-04
  0.98055244D-04  0.11885786D-04 -0.97248711D-04  0.14928799D-04 -0.20155395D-03
  0.19403560D-03  0.34995120D-03  0.51600285D-03 -0.65997061D-03 -0.42071817D-03
 -0.17729847D-04 -0.62398126D-03 -0.46594704D-03  0.34209529D-03 -0.88854256D-03
 -0.57850262D-03  0.41723469D-03 -0.11369508D-03 -0.63580403D-04  0.40128758D-04
 -0.39806755D-03  0.10161469D-03  0.29645285D-03 -0.26861359D-02  0.25469273D-02
  0.20144017D-02 -0.49748245D-04  0.21095877D-04  0.28652367D-04 -0.90532378D-04
  0.44962940D-04  0.53945054D-04  0.56689910D-04  0.10224259D-03  0.15075663D-03
 -0.17939752D-03  0.10017853D-04  0.17529615D-04  0.18509278D-03 -0.14001490D-03
 -0.37023243D-04  0.37517350D-03 -0.13564200D-03 -0.38971568D-04  0.79262003D-05
 -0.22724747D-05  0.90464186D-05 -0.20820171D-03  0.10831148D-03  0.99890233D-04
  0.72900661D-03  0.55822009D-03 -0.54149246D-03 -0.12736154D-04  0.41090433D-05
  0.86271110D-05  0.17567931D-04  0.21559766D-04 -0.28365102D-04
MO    3     MO 0.0        OCC NO =    2.0000000  ORB. ENERGY =   -1.047704
 -0.73857301D-02 -0.13766051D-01 -0.23342661D-01 -0.35330204D-01 -0.44081779D-01
 -0.37860369D-01 -0.14535332D-01  0.65017432D-04 -0.66463650D-01 -0.12465422D+00
 -0.21250812D+00 -0.33210883D+00 -0.44409279D+00 -0.47418756D+00 -0.28990898D+00
  0.19126434D+00  0.10730326D+00  0.43734815D-01  0.17911668D-02  0.16019526D+00
  0.15533551D+00  0.10478842D+00 -0.10311389D+00 -0.99985787D-01 -0.67449821D-01
  0.25740327D+00  0.24959458D+00  0.16837503D+00  0.39868930D-01 -0.22809275D-01
  0.59992411D-01  0.27730826D-02 -0.18436765D-02  0.35424653D-02 -0.57806231D-04
 -0.61688235D-04  0.25348268D-04  0.17195420D-01 -0.18936461D-01  0.17410405D-02
  0.12204802D-01  0.33894464D-01 -0.23792214D-01  0.58246132D-02 -0.62538935D-02
  0.42928030D-03  0.19761817D-02  0.13066651D-01 -0.50998414D-02  0.49663954D-03
 -0.30942471D-03 -0.18721483D-03 -0.13462099D-03  0.55347424D-03  0.94371917D-04
  0.17310406D-02  0.11663012D-02 -0.28343293D-02 -0.93129952D-02 -0.63890455D-03
  0.13310641D-01  0.41198735D-02 -0.28599992D-02 -0.48076535D-02  0.16129381D-02
 -0.71987544D-04  0.26186536D-03 -0.31480698D-03 -0.11555722D-02 -0.95792972D-03
  0.20271898D-02  0.13715349D-02  0.17233365D-03 -0.10827688D-02 -0.28114618D-03
 -0.73858684D-02 -0.13766308D-01 -0.23343098D-01 -0.35330866D-01 -0.44082605D-01
 -0.37861079D-01 -0.14535604D-01  0.65018650D-04 -0.66465276D-01 -0.12465727D+00
 -0.21251332D+00 -0.33211696D+00 -0.44410365D+00 -0.47419916D+00 -0.28991607D+00
  0.19126901D+00  0.10730626D+00  0.43735891D-01  0.17912274D-02 -0.16018926D+00
 -0.15532969D+00 -0.10478449D+00 -0.10319344D+00 -0.10006292D+00 -0.67501856D-01
 -0.25737486D+00 -0.24956704D+00 -0.16835645D+00 -0.39867793D-01 -0.22827603D-01
 -0.59986007D-01 -0.27731035D-02 -0.18447102D-02 -0.35418646D-02  0.57804623D-04
 -0.61697604D-04 -0.25327267D-04  0.17195553D-01 -0.18929293D-01  0.17337406D-02
 -0.12196087D-01  0.33897379D-01  0.23804456D-01  0.58247464D-02 -0.62524105D-02
  0.42766413D-03 -0.19725107D-02  0.13067324D-01  0.51036210D-02  0.49667192D-03
 -0.30946631D-03 -0.18720561D-03  0.13479767D-03  0.55347099D-03 -0.94339601D-04
 -0.17309977D-02  0.11676763D-02  0.28351899D-02  0.93134739D-02 -0.64287141D-03
 -0.13310489D-01 -0.41204809D-02 -0.28601575D-02  0.48049194D-02  0.16052140D-02
  0.72002388D-04  0.26218866D-03  0.31475697D-03  0.11554865D-02 -0.95860020D-03
 -0.20269388D-02 -0.13714937D-02  0.17203423D-03  0.10826678D-02 -0.28268312D-03
  0.14886488D-01  0.26848394D-01  0.39587941D-01  0.14144072D-01 -0.19584502D-02
 -0.58534110D-04  0.15128799D-01  0.10222195D-01 -0.81544186D-02  0.38945132D-02
  0.17092880D-02 -0.81082173D-03 -0.28527580D-03 -0.25444438D-03  0.20865270D-03
  0.21573858D-02 -0.56479200D-03 -0.15925938D-02  0.54268141D-02 -0.43086743D-02
 -0.23231262D-02  0.16775126D-03  0.31147084D-04 -0.19889834D-03  0.29608563D-03
 -0.36725878D-03  0.13324332D-03  0.14886948D-01  0.26849224D-01  0.39589166D-01
  0.14144664D-01 -0.19584489D-02 -0.58533567D-04 -0.15129463D-01  0.10225024D-01
  0.81514786D-02 -0.38947643D-02  0.17095862D-02  0.81023189D-03  0.28527168D-03
 -0.25451106D-03 -0.20858699D-03  0.21575763D-02 -0.56414312D-03 -0.15934332D-02
 -0.54284722D-02 -0.43071936D-02  0.23226082D-02  0.16776582D-03  0.31104822D-04
 -0.19887064D-03 -0.29619760D-03 -0.36715095D-03 -0.13340837D-03
MO    4     MO 0.0        OCC NO =    2.0000000  ORB. ENERGY =   -0.824868
 -0.60410905D-02 -0.11259815D-01 -0.19092916D-01 -0.28898018D-01 -0.36056289D-01
 -0.30967544D-01 -0.11889042D-01  0.53180415D-04 -0.68556794D-01 -0.12857997D+00
 -0.21920066D+00 -0.34256796D+00 -0.45807863D+00 -0.48912118D+00 -0.29903910D+00
  0.19728784D+00  0.11537412D+00  0.61162266D-01  0.43236894D-02 -0.32449339D+00
 -0.31464943D+00 -0.21226065D+00 -0.16899330D+00 -0.16386666D+00 -0.11054348D+00
  0.11701346D+00  0.11346370D+00  0.76541940D-01 -0.67213870D-01 -0.36356155D-01
  0.27255913D-01 -0.79404071D-03 -0.25821347D-02  0.40318831D-02  0.13496193D-03
 -0.45672084D-04  0.16230692D-03 -0.52149680D-02  0.26787394D-02  0.25362286D-02
  0.32073604D-01 -0.38406234D-01 -0.26591744D-01 -0.84728340D-03 -0.28928666D-03
  0.11365701D-02  0.63699753D-02 -0.52461404D-02 -0.52864880D-02  0.29877052D-03
 -0.30355964D-03  0.47891259D-05 -0.21154569D-03  0.11598029D-02  0.23108318D-04
 -0.18187016D-02  0.14234672D-02  0.71765561D-03  0.34441128D-02 -0.36010387D-02
 -0.43544025D-02  0.20119922D-02 -0.66936280D-03  0.22014357D-02  0.65916799D-02
  0.29649443D-05  0.67027262D-04 -0.36424489D-04 -0.30931612D-03 -0.95002610D-04
  0.26073414D-03  0.30042129D-03 -0.10607918D-03 -0.15146068D-03  0.47958630D-03
  0.60409628D-02  0.11259577D-01  0.19092513D-01  0.28897407D-01  0.36055527D-01
  0.30966889D-01  0.11888791D-01 -0.53179291D-04  0.68555618D-01  0.12857776D+00
  0.21919689D+00  0.34256208D+00  0.45807077D+00  0.48911279D+00  0.29903397D+00
 -0.19728445D+00 -0.11537261D+00 -0.61160927D-01 -0.43236168D-02 -0.32451775D+00
 -0.31467305D+00 -0.21227658D+00  0.16903271D+00  0.16390487D+00  0.11056925D+00
  0.11695248D+00  0.11340456D+00  0.76502049D-01 -0.67218974D-01  0.36364953D-01
  0.27242317D-01 -0.79431503D-03  0.25832381D-02  0.40307647D-02  0.13495848D-03
  0.45716624D-04  0.16229105D-03  0.52149640D-02 -0.26873894D-02 -0.25275746D-02
  0.32086023D-01  0.38398854D-01 -0.26591122D-01  0.84742635D-03  0.28744163D-03
 -0.11348680D-02  0.63715619D-02  0.52447525D-02 -0.52870351D-02 -0.29874975D-03
  0.30354909D-03 -0.47993422D-05 -0.21191391D-03 -0.11597370D-02  0.22964150D-04
 -0.18188463D-02 -0.14228376D-02  0.71758354D-03  0.34425868D-02  0.36001185D-02
 -0.43560807D-02  0.20139520D-02  0.66839440D-03  0.22033301D-02 -0.65922364D-02
  0.29492721D-05 -0.67049811D-04 -0.36432436D-04 -0.30938882D-03  0.95028457D-04
  0.26059153D-03  0.30054100D-03  0.10612098D-03 -0.15129422D-03 -0.47919051D-03
  0.23911572D-01  0.43125504D-01  0.63588531D-01  0.28876230D-01 -0.40096495D-03
 -0.64299311D-04  0.16525067D-01  0.15883461D-01 -0.16483687D-01  0.28619741D-02
  0.38341807D-02 -0.42526308D-02 -0.28503684D-03 -0.17399294D-03  0.14605744D-03
 -0.12308985D-03 -0.82603991D-06  0.12391589D-03  0.78410595D-02 -0.82390440D-02
 -0.77738674D-02 -0.94462762D-04  0.57786998D-04  0.36675763D-04 -0.58769091D-05
 -0.56100565D-04 -0.64770084D-04 -0.23911857D-01 -0.43126019D-01 -0.63589290D-01
 -0.28876955D-01  0.40089819D-03  0.64296930D-04  0.16525666D-01 -0.15888743D-01
 -0.16479007D-01  0.28621419D-02 -0.38355783D-02 -0.42515576D-02 -0.28503384D-03
  0.17403499D-03  0.14600269D-03  0.12292693D-03 -0.14840352D-05 -0.12144289D-03
  0.78439763D-02  0.82369694D-02 -0.77741155D-02  0.94473501D-04 -0.57810097D-04
 -0.36663404D-04 -0.58819701D-05  0.56091262D-04 -0.64745402D-04
MO    5     MO 0.0        OCC NO =    2.0000000  ORB. ENERGY =   -0.502683
 -0.11155922D-02 -0.20793204D-02 -0.35258384D-02 -0.53365206D-02 -0.66584196D-02
 -0.57186944D-02 -0.21955180D-02  0.98206867D-05  0.42177658D-03  0.79105244D-03
  0.13485710D-02  0.21075540D-02  0.28182012D-02  0.30091819D-02  0.18397548D-02
 -0.12137585D-02  0.96100488D-03 -0.55472270D-02 -0.33822378D-03 -0.10293120D+01
 -0.99808639D+00 -0.67330318D+00 -0.54632235D+00 -0.52974890D+00 -0.35736548D+00
 -0.16842852D+00 -0.16331900D+00 -0.11017404D+00 -0.22698924D+00 -0.11918639D+00
 -0.44408695D-01 -0.24074550D-01 -0.12467267D-01 -0.64585280D-02 -0.30054765D-03
 -0.14349099D-03  0.34307261D-04 -0.76460207D-02  0.19358355D-01 -0.11712334D-01
  0.27522234D-01 -0.85078756D-01 -0.36555752D-01 -0.35149457D-02  0.64265584D-02
 -0.29116126D-02  0.65537572D-03 -0.22953443D-01 -0.10004340D-01 -0.72661532D-03
  0.69309220D-03  0.33523119D-04 -0.32690102D-03 -0.13389697D-02 -0.78347263D-04
 -0.19342848D-02  0.51162352D-02  0.12399669D-02  0.88883764D-02 -0.16373488D-01
 -0.14038650D-01 -0.30855218D-02  0.10247829D-02  0.10318749D-01 -0.93402881D-03
  0.10299348D-03  0.25282580D-03  0.28354233D-03  0.20300258D-02  0.47541719D-03
 -0.26507810D-02 -0.23390062D-02 -0.12338946D-02  0.18001540D-02 -0.56341577D-03
 -0.11155126D-02 -0.20791719D-02 -0.35255866D-02 -0.53361396D-02 -0.66579442D-02
 -0.57182861D-02 -0.21953612D-02  0.98199855D-05  0.42457786D-03  0.79630630D-03
  0.13575277D-02  0.21215515D-02  0.28369186D-02  0.30291677D-02  0.18519737D-02
 -0.12218198D-02  0.95633361D-03 -0.55522333D-02 -0.33893143D-03  0.10293336D+01
  0.99810738D+00  0.67331735D+00 -0.54629489D+00 -0.52972228D+00 -0.35734752D+00
  0.16857426D+00  0.16346033D+00  0.11026937D+00  0.22699347D+00 -0.11917758D+00
  0.44440859D-01  0.24075173D-01 -0.12465584D-01  0.64622524D-02  0.30059607D-03
 -0.14350839D-03 -0.34245483D-04 -0.76451409D-02  0.19368690D-01 -0.11723549D-01
 -0.27549171D-01 -0.85069718D-01  0.36538023D-01 -0.35151241D-02  0.64295274D-02
 -0.29144033D-02 -0.66216166D-03 -0.22952941D-01  0.99987908D-02 -0.72669958D-03
  0.69317485D-03  0.33524738D-04  0.32657210D-03 -0.13391223D-02  0.77912781D-04
  0.19344532D-02  0.51133370D-02 -0.12403497D-02 -0.88883774D-02 -0.16369735D-01
  0.14043484D-01  0.30850178D-02  0.10297236D-02 -0.10322435D-01 -0.92743522D-03
 -0.10297579D-03  0.25227583D-03 -0.28320024D-03 -0.20302758D-02  0.47627298D-03
  0.26507128D-02  0.23392032D-02 -0.12331005D-02 -0.18011121D-02 -0.56088048D-03
  0.27610433D-01  0.49796552D-01  0.73424987D-01  0.48235172D-01  0.56984858D-02
  0.22458871D-04  0.58474123D-02  0.10542580D-01 -0.20440285D-01  0.15231687D-02
  0.36126103D-02 -0.93706843D-02 -0.19039833D-03 -0.87469702D-04 -0.28821929D-03
 -0.33389095D-02 -0.67442524D-03  0.40133347D-02  0.44031259D-02 -0.98657907D-02
 -0.11182042D-01 -0.26964795D-03 -0.16864498D-03  0.43829293D-03 -0.41166083D-03
 -0.26402056D-04 -0.51236193D-03  0.27611294D-01  0.49798105D-01  0.73427277D-01
  0.48237379D-01  0.56986009D-02  0.22441945D-04 -0.58486339D-02  0.10549283D-01
  0.20437382D-01 -0.15236356D-02  0.36157088D-02  0.93698034D-02  0.19042764D-03
 -0.87399051D-04  0.28824064D-03 -0.33386859D-02 -0.67107024D-03  0.40097561D-02
 -0.44067864D-02 -0.98651414D-02  0.11185051D-01 -0.26966055D-03 -0.16849175D-03
  0.43815230D-03  0.41167301D-03 -0.26516239D-04  0.51273235D-03
MO    6     MO 0.0        OCC NO =    2.0000000  ORB. ENERGY =   -0.444105
  0.96575006D-03  0.18000339D-02  0.30522610D-02  0.46197392D-02  0.57640857D-02
  0.49505809D-02  0.19006243D-02 -0.85016089D-05  0.30560005D-01  0.57316047D-01
  0.97711294D-01  0.15270373D+00  0.20419399D+00  0.21803157D+00  0.13330023D+00
 -0.87943395D-01 -0.50879432D-01 -0.67358246D-01 -0.11182541D-01 -0.49828566D+00
 -0.48316947D+00 -0.32594327D+00 -0.24496660D+00 -0.23753520D+00 -0.16023985D+00
  0.90771404D+00  0.88017728D+00  0.59376239D+00 -0.10742314D+00 -0.47080454D-01
  0.19637431D+00 -0.17437063D-01 -0.59197234D-03  0.17809334D-01 -0.80041594D-03
 -0.62216809D-04 -0.36716613D-04 -0.21059768D-01 -0.89140874D-02  0.29973855D-01
  0.28059531D-01 -0.10513574D-01 -0.33559161D-01 -0.12182272D-01 -0.40598104D-04
  0.12222870D-01  0.16473886D-02  0.18763328D-02 -0.44661616D-02 -0.12279797D-02
  0.76627401D-03  0.46170572D-03  0.26766369D-03 -0.43195414D-03  0.98021043D-03
 -0.64291626D-02  0.26305059D-02  0.15450623D-02  0.20549816D-02 -0.73684075D-03
  0.18953155D-02  0.17232506D-01 -0.71546769D-02 -0.65305026D-02  0.10072238D-01
 -0.98718737D-03 -0.99969922D-04  0.74144511D-03  0.11592611D-02  0.84253249D-03
 -0.19283536D-02  0.18023011D-02 -0.54262272D-03 -0.29598170D-03 -0.61907133D-03
 -0.96573581D-03 -0.18000073D-02 -0.30522160D-02 -0.46196710D-02 -0.57640006D-02
 -0.49505078D-02 -0.19005962D-02  0.85014835D-05 -0.30559940D-01 -0.57315925D-01
 -0.97711088D-01 -0.15270341D+00 -0.20419356D+00 -0.21803111D+00 -0.13329995D+00
  0.87943209D-01  0.50879444D-01  0.67358493D-01  0.11182573D-01 -0.49825883D+00
 -0.48314346D+00 -0.32592572D+00  0.24521566D+00  0.23777671D+00  0.16040276D+00
  0.90767019D+00  0.88013476D+00  0.59373371D+00 -0.10741662D+00  0.47134027D-01
  0.19636694D+00 -0.17436217D-01  0.59661295D-03  0.17810138D-01 -0.80040613D-03
  0.62198913D-04 -0.36723393D-04  0.21058896D-01  0.89051884D-02 -0.29964085D-01
  0.28062724D-01  0.10502887D-01 -0.33581006D-01  0.12182094D-01  0.39555373D-04
 -0.12221649D-01  0.16468494D-02 -0.18775785D-02 -0.44730838D-02  0.12279992D-02
 -0.76595429D-03 -0.46204486D-03  0.26774560D-03  0.43173454D-03  0.98039776D-03
 -0.64291263D-02 -0.26322500D-02  0.15428417D-02  0.20516958D-02  0.73684146D-03
  0.18958353D-02  0.17235683D-01  0.71599086D-02 -0.65243605D-02 -0.10063755D-01
 -0.98719025D-03  0.99908575D-04  0.74127020D-03  0.11593604D-02 -0.84308643D-03
 -0.19279839D-02  0.18022103D-02  0.54336070D-03 -0.29582672D-03  0.61947811D-03
  0.22458846D-01  0.40505453D-01  0.59725267D-01  0.53789528D-01  0.67572122D-02
 -0.19243945D-03  0.11691768D-01  0.11935369D-01 -0.25688295D-02  0.90928808D-02
  0.86729895D-02 -0.27648323D-02 -0.15654473D-03  0.69205968D-04  0.34496876D-03
  0.84781365D-03  0.79915978D-03 -0.16469734D-02  0.97953621D-02 -0.42406777D-02
 -0.66731403D-02 -0.12226983D-03  0.27920609D-03 -0.15693626D-03  0.53813960D-03
 -0.34341797D-03 -0.31933209D-03 -0.22457978D-01 -0.40503889D-01 -0.59722960D-01
 -0.53788175D-01 -0.67569947D-02  0.19244099D-03  0.11692125D-01 -0.11936215D-01
 -0.25642953D-02  0.90930639D-02 -0.86738016D-02 -0.27615969D-02 -0.15652869D-03
 -0.69111203D-04  0.34502492D-03 -0.84814678D-03 -0.80127327D-03  0.16494200D-02
  0.97969095D-02  0.42375176D-02 -0.66710877D-02  0.12223686D-03 -0.27930902D-03
  0.15707216D-03  0.53824659D-03  0.34319016D-03 -0.31899848D-03
MO    7     MO 0.0        OCC NO =    2.0000000  ORB. ENERGY =   -0.383115
 -0.68799582D-03 -0.12823357D-02 -0.21744165D-02 -0.32910806D-02 -0.41063077D-02
 -0.35267707D-02 -0.13539958D-02  0.60565064D-05 -0.21462941D-01 -0.40254278D-01
 -0.68624720D-01 -0.10724708D+00 -0.14340978D+00 -0.15312821D+00 -0.93619585D-01
  0.61764516D-01  0.35986489D-01  0.46566079D-01  0.49364075D-02 -0.53771946D+00
 -0.52140699D+00 -0.35173808D+00  0.91415990D+00  0.88642759D+00  0.59797882D+00
 -0.57358777D+00 -0.55618719D+00 -0.37520059D+00 -0.12854415D+00  0.20302670D+00
 -0.12597183D+00 -0.22804785D-01  0.25662187D-01 -0.12727314D-01 -0.50979084D-03
  0.52634787D-03 -0.38946703D-03  0.42688117D-02 -0.18459965D-02 -0.24228152D-02
  0.28915185D-01 -0.23240328D-01  0.58375541D-01  0.20411881D-02 -0.50018660D-03
 -0.15410015D-02  0.18090147D-01 -0.11271935D-01  0.15477105D-01 -0.74986245D-03
  0.27208461D-03  0.47777784D-03  0.23641032D-02 -0.22839174D-02 -0.32555104D-03
 -0.37185021D-02 -0.56233329D-02  0.29872799D-02  0.14429817D-01  0.84012387D-02
 -0.73503055D-02 -0.32743104D-02  0.84687600D-02 -0.16115340D-02  0.19026987D-01
  0.25501188D-03 -0.62972539D-03  0.94138257D-05 -0.33700496D-03  0.10449538D-02
 -0.38556331D-03 -0.42803068D-03  0.84422235D-03  0.35732183D-03  0.44118897D-02
 -0.68796198D-03 -0.12822726D-02 -0.21743095D-02 -0.32909187D-02 -0.41061057D-02
 -0.35265971D-02 -0.13539292D-02  0.60562085D-05 -0.21462406D-01 -0.40253275D-01
 -0.68623009D-01 -0.10724441D+00 -0.14340620D+00 -0.15312439D+00 -0.93617251D-01
  0.61762976D-01  0.35985613D-01  0.46565314D-01  0.49362094D-02  0.53773206D+00
  0.52141921D+00  0.35174632D+00  0.91435640D+00  0.88661814D+00  0.59810736D+00
  0.57332263D+00  0.55593010D+00  0.37502716D+00  0.12854709D+00  0.20306974D+00
  0.12591302D+00  0.22805603D-01  0.25666628D-01  0.12719971D-01  0.50982098D-03
  0.52648114D-03  0.38932211D-03  0.42691356D-02 -0.18639088D-02 -0.24052268D-02
 -0.28921230D-01 -0.23231298D-01 -0.58376409D-01  0.20412766D-02 -0.50488303D-03
 -0.15363935D-02 -0.18093331D-01 -0.11266365D-01 -0.15477719D-01 -0.74987392D-03
  0.27219961D-03  0.47767431D-03 -0.23648742D-02 -0.22833023D-02  0.32570632D-03
  0.37187720D-02 -0.56227820D-02 -0.29898332D-02 -0.14424831D-01  0.84032923D-02
  0.73479247D-02  0.32685147D-02  0.84650535D-02  0.16215748D-02  0.19037082D-01
 -0.25502737D-03 -0.62982109D-03 -0.96669182D-05  0.33837099D-03  0.10450741D-02
  0.38531646D-03  0.42671111D-03  0.84438922D-03 -0.35631570D-03  0.44119428D-02
 -0.92599563D-02 -0.16700712D-01 -0.24625191D-01 -0.31982766D-01 -0.51849465D-02
 -0.63945711D-04 -0.16238449D-01  0.54202976D-02 -0.69031774D-03 -0.10823980D-01
  0.43601043D-03  0.32121797D-02 -0.67327090D-03  0.39932900D-03  0.13304850D-03
 -0.52754110D-02  0.38497543D-02  0.14256567D-02 -0.39966107D-02  0.62700827D-02
 -0.57399041D-03 -0.38157331D-03  0.13908843D-03  0.24248488D-03 -0.33531201D-03
  0.12698117D-02 -0.49026623D-03 -0.92598289D-02 -0.16700483D-01 -0.24624852D-01
 -0.31983039D-01 -0.51849517D-02 -0.63953202D-04  0.16238845D-01  0.54208386D-02
  0.68893538D-03  0.10824327D-01  0.43530085D-03 -0.32119921D-02  0.67328469D-03
  0.39931341D-03 -0.13314636D-03 -0.52757112D-02  0.38500555D-02  0.14256557D-02
  0.39984756D-02  0.62688133D-02  0.57288191D-03 -0.38159552D-03  0.13925062D-03
  0.24234490D-03  0.33563908D-03  0.12696756D-02  0.49039704D-03
MO    8     MO 0.0        OCC NO =    2.0000000  ORB. ENERGY =   -0.272805
 -0.31606270D-03 -0.58910020D-03 -0.99891875D-03 -0.15119101D-02 -0.18864223D-02
 -0.16201852D-02 -0.62202060D-03  0.27823363D-05 -0.13677054D-01 -0.25651654D-01
 -0.43730447D-01 -0.68342177D-01 -0.91386512D-01 -0.97579489D-01 -0.59658186D-01
  0.39358848D-01  0.23378810D-01  0.27793831D-01  0.54645409D-02  0.37148258D+00
  0.36021314D+00  0.24299766D+00 -0.52727043D+00 -0.51127496D+00 -0.34490306D+00
 -0.11308700D+01 -0.10965635D+01 -0.73973528D+00  0.78594309D-01 -0.12353950D+00
 -0.25378497D+00  0.13594679D-01 -0.21991708D-01 -0.40733371D-01  0.49393193D-03
 -0.79696255D-03 -0.16769221D-02 -0.68993116D-02  0.21338095D-01 -0.14438783D-01
 -0.31683134D-01  0.30453762D-01  0.44040271D-02 -0.40148554D-02  0.55450369D-02
 -0.15301815D-02 -0.10866888D-01  0.88809130D-02 -0.15207972D-02  0.16977264D-03