 Molden2AIM, Version 4.0.0 (06/02/2016)           Time: Fri Jun 29 04:20:07 2018
GAUSSIAN             23 MOL ORBITALS    393 PRIMITIVES        3 NUCLEI
  P    1    (CENTRE  1)   0.00000000  0.00000000 -3.71243311  CHARGE = 15.0
  P    2    (CENTRE  2)   0.00000000  0.00000000 -0.10673929  CHARGE = 15.0
  S    3    (CENTRE  3)   0.00000000  0.00000000  3.52010246  CHARGE = 16.0
CENTRE ASSIGNMENTS    1  1  1  1  1  1  1  1  1  1  1  1  1  1  1  1  1  1  1  1
CENTRE ASSIGNMENTS    1  1  1  1  1  1  1  1  1  1  1  1  1  1  1  1  1  1  1  1
CENTRE ASSIGNMENTS    1  1  1  1  1  1  1  1  1  1  1  1  1  1  1  1  1  1  1  1
CENTRE ASSIGNMENTS    1  1  1  1  1  1  1  1  1  1  1  1  1  1  1  1  1  1  1  1
CENTRE ASSIGNMENTS    1  1  1  1  1  1  1  1  1  1  1  1  1  1  1  1  1  1  1  1
CENTRE ASSIGNMENTS    1  1  1  1  1  1  1  1  1  1  1  1  1  1  1  1  1  1  1  1
CENTRE ASSIGNMENTS    1  1  1  1  1  1  1  1  1  1  1  2  2  2  2  2  2  2  2  2
CENTRE ASSIGNMENTS    2  2  2  2  2  2  2  2  2  2  2  2  2  2  2  2  2  2  2  2
CENTRE ASSIGNMENTS    2  2  2  2  2  2  2  2  2  2  2  2  2  2  2  2  2  2  2  2
CENTRE ASSIGNMENTS    2  2  2  2  2  2  2  2  2  2  2  2  2  2  2  2  2  2  2  2
CENTRE ASSIGNMENTS    2  2  2  2  2  2  2  2  2  2  2  2  2  2  2  2  2  2  2  2
CENTRE ASSIGNMENTS    2  2  2  2  2  2  2  2  2  2  2  2  2  2  2  2  2  2  2  2
CENTRE ASSIGNMENTS    2  2  2  2  2  2  2  2  2  2  2  2  2  2  2  2  2  2  2  2
CENTRE ASSIGNMENTS    2  2  3  3  3  3  3  3  3  3  3  3  3  3  3  3  3  3  3  3
CENTRE ASSIGNMENTS    3  3  3  3  3  3  3  3  3  3  3  3  3  3  3  3  3  3  3  3
CENTRE ASSIGNMENTS    3  3  3  3  3  3  3  3  3  3  3  3  3  3  3  3  3  3  3  3
CENTRE ASSIGNMENTS    3  3  3  3  3  3  3  3  3  3  3  3  3  3  3  3  3  3  3  3
CENTRE ASSIGNMENTS    3  3  3  3  3  3  3  3  3  3  3  3  3  3  3  3  3  3  3  3
CENTRE ASSIGNMENTS    3  3  3  3  3  3  3  3  3  3  3  3  3  3  3  3  3  3  3  3
CENTRE ASSIGNMENTS    3  3  3  3  3  3  3  3  3  3  3  3  3
TYPE ASSIGNMENTS      1  1  1  1  1  1  1  1  1  1  1  1  1  1  1  1  1  1  1  1
TYPE ASSIGNMENTS      1  1  1  1  1  1  1  1  1  1  1  1  1  1  1  1  1  1  1  1
TYPE ASSIGNMENTS      1  1  2  2  2  2  2  2  2  3  3  3  3  3  3  3  4  4  4  4
TYPE ASSIGNMENTS      4  4  4  2  2  2  2  2  2  2  3  3  3  3  3  3  3  4  4  4
TYPE ASSIGNMENTS      4  4  4  4  2  3  4  2  3  4  2  3  4  5  6  7  8  9 10  5
TYPE ASSIGNMENTS      6  7  8  9 10  5  6  7  8  9 10 11 12 13 17 14 15 18 19 16
TYPE ASSIGNMENTS     20 11 12 13 17 14 15 18 19 16 20  1  1  1  1  1  1  1  1  1
TYPE ASSIGNMENTS      1  1  1  1  1  1  1  1  1  1  1  1  1  1  1  1  1  1  1  1
TYPE ASSIGNMENTS      1  1  1  1  1  1  1  1  1  1  1  1  1  2  2  2  2  2  2  2
TYPE ASSIGNMENTS      3  3  3  3  3  3  3  4  4  4  4  4  4  4  2  2  2  2  2  2
TYPE ASSIGNMENTS      2  3  3  3  3  3  3  3  4  4  4  4  4  4  4  2  3  4  2  3
TYPE ASSIGNMENTS      4  2  3  4  5  6  7  8  9 10  5  6  7  8  9 10  5  6  7  8
TYPE ASSIGNMENTS      9 10 11 12 13 17 14 15 18 19 16 20 11 12 13 17 14 15 18 19
TYPE ASSIGNMENTS     16 20  1  1  1  1  1  1  1  1  1  1  1  1  1  1  1  1  1  1
TYPE ASSIGNMENTS      1  1  1  1  1  1  1  1  1  1  1  1  1  1  1  1  1  1  1  1
TYPE ASSIGNMENTS      1  1  1  1  2  2  2  2  2  2  2  3  3  3  3  3  3  3  4  4
TYPE ASSIGNMENTS      4  4  4  4  4  2  2  2  2  2  2  2  3  3  3  3  3  3  3  4
TYPE ASSIGNMENTS      4  4  4  4  4  4  2  3  4  2  3  4  2  3  4  5  6  7  8  9
TYPE ASSIGNMENTS     10  5  6  7  8  9 10  5  6  7  8  9 10 11 12 13 17 14 15 18
TYPE ASSIGNMENTS     19 16 20 11 12 13 17 14 15 18 19 16 20
EXPONENTS  0.3124000D+06 0.4680000D+05 0.1065000D+05 0.3018000D+04 0.9868000D+03
EXPONENTS  0.3574000D+03 0.1396000D+03 0.5763000D+02 0.2460000D+02 0.1012000D+02
EXPONENTS  0.4283000D+01 0.1805000D+01 0.2782000D+00 0.3124000D+06 0.4680000D+05
EXPONENTS  0.1065000D+05 0.3018000D+04 0.9868000D+03 0.3574000D+03 0.1396000D+03
EXPONENTS  0.5763000D+02 0.2460000D+02 0.1012000D+02 0.4283000D+01 0.1805000D+01
EXPONENTS  0.2782000D+00 0.3124000D+06 0.4680000D+05 0.1065000D+05 0.3018000D+04
EXPONENTS  0.9868000D+03 0.3574000D+03 0.1396000D+03 0.5763000D+02 0.2460000D+02
EXPONENTS  0.1012000D+02 0.4283000D+01 0.1805000D+01 0.2782000D+00 0.6158000D+00
EXPONENTS  0.1055000D+00 0.4090000D-01 0.5049000D+03 0.1194000D+03 0.3796000D+02
EXPONENTS  0.1395000D+02 0.5457000D+01 0.2177000D+01 0.2877000D+00 0.5049000D+03
EXPONENTS  0.1194000D+03 0.3796000D+02 0.1395000D+02 0.5457000D+01 0.2177000D+01
EXPONENTS  0.2877000D+00 0.5049000D+03 0.1194000D+03 0.3796000D+02 0.1395000D+02
EXPONENTS  0.5457000D+01 0.2177000D+01 0.2877000D+00 0.5049000D+03 0.1194000D+03
EXPONENTS  0.3796000D+02 0.1395000D+02 0.5457000D+01 0.2177000D+01 0.2877000D+00
EXPONENTS  0.5049000D+03 0.1194000D+03 0.3796000D+02 0.1395000D+02 0.5457000D+01
EXPONENTS  0.2177000D+01 0.2877000D+00 0.5049000D+03 0.1194000D+03 0.3796000D+02
EXPONENTS  0.1395000D+02 0.5457000D+01 0.2177000D+01 0.2877000D+00 0.8010000D+00
EXPONENTS  0.8010000D+00 0.8010000D+00 0.9714000D-01 0.9714000D-01 0.9714000D-01
EXPONENTS  0.3070000D-01 0.3070000D-01 0.3070000D-01 0.2160000D+00 0.2160000D+00
EXPONENTS  0.2160000D+00 0.2160000D+00 0.2160000D+00 0.2160000D+00 0.6520000D+00
EXPONENTS  0.6520000D+00 0.6520000D+00 0.6520000D+00 0.6520000D+00 0.6520000D+00
EXPONENTS  0.7750000D-01 0.7750000D-01 0.7750000D-01 0.7750000D-01 0.7750000D-01
EXPONENTS  0.7750000D-01 0.4520000D+00 0.4520000D+00 0.4520000D+00 0.4520000D+00
EXPONENTS  0.4520000D+00 0.4520000D+00 0.4520000D+00 0.4520000D+00 0.4520000D+00
EXPONENTS  0.4520000D+00 0.1650000D+00 0.1650000D+00 0.1650000D+00 0.1650000D+00
EXPONENTS  0.1650000D+00 0.1650000D+00 0.1650000D+00 0.1650000D+00 0.1650000D+00
EXPONENTS  0.1650000D+00 0.3124000D+06 0.4680000D+05 0.1065000D+05 0.3018000D+04
EXPONENTS  0.9868000D+03 0.3574000D+03 0.1396000D+03 0.5763000D+02 0.2460000D+02
EXPONENTS  0.1012000D+02 0.4283000D+01 0.1805000D+01 0.2782000D+00 0.3124000D+06
EXPONENTS  0.4680000D+05 0.1065000D+05 0.3018000D+04 0.9868000D+03 0.3574000D+03
EXPONENTS  0.1396000D+03 0.5763000D+02 0.2460000D+02 0.1012000D+02 0.4283000D+01
EXPONENTS  0.1805000D+01 0.2782000D+00 0.3124000D+06 0.4680000D+05 0.1065000D+05
EXPONENTS  0.3018000D+04 0.9868000D+03 0.3574000D+03 0.1396000D+03 0.5763000D+02
EXPONENTS  0.2460000D+02 0.1012000D+02 0.4283000D+01 0.1805000D+01 0.2782000D+00
EXPONENTS  0.6158000D+00 0.1055000D+00 0.4090000D-01 0.5049000D+03 0.1194000D+03
EXPONENTS  0.3796000D+02 0.1395000D+02 0.5457000D+01 0.2177000D+01 0.2877000D+00
EXPONENTS  0.5049000D+03 0.1194000D+03 0.3796000D+02 0.1395000D+02 0.5457000D+01
EXPONENTS  0.2177000D+01 0.2877000D+00 0.5049000D+03 0.1194000D+03 0.3796000D+02
EXPONENTS  0.1395000D+02 0.5457000D+01 0.2177000D+01 0.2877000D+00 0.5049000D+03
EXPONENTS  0.1194000D+03 0.3796000D+02 0.1395000D+02 0.5457000D+01 0.2177000D+01
EXPONENTS  0.2877000D+00 0.5049000D+03 0.1194000D+03 0.3796000D+02 0.1395000D+02
EXPONENTS  0.5457000D+01 0.2177000D+01 0.2877000D+00 0.5049000D+03 0.1194000D+03
EXPONENTS  0.3796000D+02 0.1395000D+02 0.5457000D+01 0.2177000D+01 0.2877000D+00
EXPONENTS  0.8010000D+00 0.8010000D+00 0.8010000D+00 0.9714000D-01 0.9714000D-01
EXPONENTS  0.9714000D-01 0.3070000D-01 0.3070000D-01 0.3070000D-01 0.2160000D+00
EXPONENTS  0.2160000D+00 0.2160000D+00 0.2160000D+00 0.2160000D+00 0.2160000D+00
EXPONENTS  0.6520000D+00 0.6520000D+00 0.6520000D+00 0.6520000D+00 0.6520000D+00
EXPONENTS  0.6520000D+00 0.7750000D-01 0.7750000D-01 0.7750000D-01 0.7750000D-01
EXPONENTS  0.7750000D-01 0.7750000D-01 0.4520000D+00 0.4520000D+00 0.4520000D+00
EXPONENTS  0.4520000D+00 0.4520000D+00 0.4520000D+00 0.4520000D+00 0.4520000D+00
EXPONENTS  0.4520000D+00 0.4520000D+00 0.1650000D+00 0.1650000D+00 0.1650000D+00
EXPONENTS  0.1650000D+00 0.1650000D+00 0.1650000D+00 0.1650000D+00 0.1650000D+00
EXPONENTS  0.1650000D+00 0.1650000D+00 0.3741000D+06 0.5605000D+05 0.1276000D+05
EXPONENTS  0.3615000D+04 0.1183000D+04 0.4288000D+03 0.1678000D+03 0.6947000D+02
EXPONENTS  0.2984000D+02 0.1272000D+02 0.5244000D+01 0.2219000D+01 0.3490000D+00
EXPONENTS  0.3741000D+06 0.5605000D+05 0.1276000D+05 0.3615000D+04 0.1183000D+04
EXPONENTS  0.4288000D+03 0.1678000D+03 0.6947000D+02 0.2984000D+02 0.1272000D+02
EXPONENTS  0.5244000D+01 0.2219000D+01 0.3490000D+00 0.3741000D+06 0.5605000D+05
EXPONENTS  0.1276000D+05 0.3615000D+04 0.1183000D+04 0.4288000D+03 0.1678000D+03
EXPONENTS  0.6947000D+02 0.2984000D+02 0.1272000D+02 0.5244000D+01 0.2219000D+01
EXPONENTS  0.3490000D+00 0.7767000D+00 0.1322000D+00 0.4970000D-01 0.5744000D+03
EXPONENTS  0.1358000D+03 0.4319000D+02 0.1587000D+02 0.6208000D+01 0.2483000D+01
EXPONENTS  0.3229000D+00 0.5744000D+03 0.1358000D+03 0.4319000D+02 0.1587000D+02
EXPONENTS  0.6208000D+01 0.2483000D+01 0.3229000D+00 0.5744000D+03 0.1358000D+03
EXPONENTS  0.4319000D+02 0.1587000D+02 0.6208000D+01 0.2483000D+01 0.3229000D+00
EXPONENTS  0.5744000D+03 0.1358000D+03 0.4319000D+02 0.1587000D+02 0.6208000D+01
EXPONENTS  0.2483000D+01 0.3229000D+00 0.5744000D+03 0.1358000D+03 0.4319000D+02
EXPONENTS  0.1587000D+02 0.6208000D+01 0.2483000D+01 0.3229000D+00 0.5744000D+03
EXPONENTS  0.1358000D+03 0.4319000D+02 0.1587000D+02 0.6208000D+01 0.2483000D+01
EXPONENTS  0.3229000D+00 0.8688000D+00 0.8688000D+00 0.8688000D+00 0.1098000D+00
EXPONENTS  0.1098000D+00 0.1098000D+00 0.3510000D-01 0.3510000D-01 0.3510000D-01
EXPONENTS  0.2690000D+00 0.2690000D+00 0.2690000D+00 0.2690000D+00 0.2690000D+00
EXPONENTS  0.2690000D+00 0.8190000D+00 0.8190000D+00 0.8190000D+00 0.8190000D+00
EXPONENTS  0.8190000D+00 0.8190000D+00 0.1010000D+00 0.1010000D+00 0.1010000D+00
EXPONENTS  0.1010000D+00 0.1010000D+00 0.1010000D+00 0.5570000D+00 0.5570000D+00
EXPONENTS  0.5570000D+00 0.5570000D+00 0.5570000D+00 0.5570000D+00 0.5570000D+00
EXPONENTS  0.5570000D+00 0.5570000D+00 0.5570000D+00 0.2180000D+00 0.2180000D+00
EXPONENTS  0.2180000D+00 0.2180000D+00 0.2180000D+00 0.2180000D+00 0.2180000D+00
EXPONENTS  0.2180000D+00 0.2180000D+00 0.2180000D+00
MO    1     MO 0.0        OCC NO =    2.0000000  ORB. ENERGY =  -88.116573
 -0.97408968D-04 -0.18225071D-03 -0.31469315D-03 -0.50893921D-03 -0.76814032D-03
 -0.10523760D-02 -0.12161573D-02 -0.10220283D-02 -0.44891962D-03 -0.51310772D-04
  0.69154830D-06 -0.43012371D-06 -0.21157777D-07  0.18119435D-03  0.33890506D-03
  0.58679580D-03  0.95281921D-03  0.14633077D-02  0.20811594D-02  0.26479411D-02
  0.27441992D-02  0.18312699D-02 -0.18035674D-03 -0.13776316D-02 -0.70735745D-03
  0.31027959D-05 -0.10072001D-03 -0.18821759D-03 -0.32637598D-03 -0.52925357D-03
 -0.81578780D-03 -0.11608215D-02 -0.14947869D-02 -0.15713976D-02 -0.11015979D-02
  0.12790538D-03  0.10354753D-02  0.97452295D-03 -0.47523511D-03  0.11123771D-03
 -0.53044756D-04 -0.68786468D-04  0.46217413D-15  0.60461196D-15  0.66146668D-15
  0.54486514D-15  0.29132696D-15  0.80496465D-16 -0.65979336D-19 -0.10064955D-17
 -0.13166882D-17 -0.14405031D-17 -0.11865751D-17 -0.63443464D-18 -0.17530045D-18
  0.14368590D-21 -0.29864188D-02 -0.39068057D-02 -0.42741824D-02 -0.35207412D-02
 -0.18824600D-02 -0.52014196D-03  0.42633700D-06 -0.75109307D-18 -0.99475234D-18
 -0.10989341D-17 -0.94124042D-18 -0.51348227D-18 -0.15783099D-18  0.68714085D-19
  0.65485983D-18  0.86730044D-18  0.95813400D-18  0.82064469D-18  0.44769273D-18
  0.13760901D-18 -0.59910144D-19  0.27292228D-02  0.36145997D-02  0.39931617D-02
  0.34201552D-02  0.18658241D-02  0.57350540D-03 -0.24968417D-03 -0.15996863D-18
  0.11910119D-18  0.27680130D-04  0.16796190D-18 -0.10962517D-18  0.53714261D-04
  0.55513814D-20 -0.32856909D-20 -0.20416437D-05  0.10240295D-06  0.10240295D-06
 -0.20480590D-06  0.59935173D-21  0.13413777D-18 -0.94228886D-19  0.39505327D-04
  0.39505327D-04 -0.79010654D-04 -0.85527622D-21 -0.85667145D-19  0.67441507D-19
 -0.34942832D-05 -0.34942832D-05  0.69885663D-05  0.11278527D-21  0.27802328D-19
 -0.17987331D-19 -0.10741469D-19  0.70501756D-20  0.56733265D-05 -0.10706735D-19
  0.70635540D-20 -0.85099897D-05  0.42931142D-19 -0.28214081D-19 -0.85099897D-05
 -0.38845654D-21 -0.34591078D-20  0.25572536D-20 -0.82924964D-06 -0.34654086D-20
  0.25558954D-20  0.12438745D-05  0.13842732D-19 -0.10227656D-19  0.12438745D-05
  0.44549915D-21 -0.12580186D-04 -0.23537337D-04 -0.40642030D-04 -0.65728545D-04
 -0.99203883D-04 -0.13591239D-03 -0.15706444D-03 -0.13199304D-03 -0.57977127D-04
 -0.66266900D-05  0.89312166D-07 -0.55549671D-07 -0.27324872D-08  0.22752998D-04
  0.42557100D-04  0.73685318D-04  0.11964773D-03  0.18375096D-03  0.26133604D-03
  0.33250814D-03  0.34459549D-03  0.22995684D-03 -0.22647816D-04 -0.17299241D-03
 -0.88824526D-04  0.38962533D-06 -0.12214918D-04 -0.22826275D-04 -0.39581570D-04
 -0.64185749D-04 -0.98935472D-04 -0.14077977D-03 -0.18128176D-03 -0.19057280D-03
 -0.13359738D-03  0.15511851D-04  0.12557829D-03  0.11818623D-03 -0.57634608D-04
 -0.15942904D-04  0.12298627D-02  0.37534039D-03 -0.72802226D-18 -0.95239206D-18
 -0.10419503D-17 -0.85827813D-18 -0.45890173D-18 -0.12679900D-18  0.10393145D-21
  0.16846205D-18  0.22038051D-18  0.24110400D-18  0.19860285D-18  0.10618841D-18
  0.29340888D-19 -0.24049408D-22  0.37297359D-02  0.48792064D-02  0.53380227D-02
  0.43970507D-02  0.23510027D-02  0.64960485D-03 -0.53245191D-06  0.54173387D-18
  0.71747570D-18  0.79261792D-18  0.67887966D-18  0.37035455D-18  0.11383728D-18
 -0.49560764D-19 -0.10197253D-18 -0.13505305D-18 -0.14919734D-18 -0.12778798D-18
 -0.69713179D-19 -0.21428004D-19  0.93290024D-20 -0.34661574D-02 -0.45906004D-02
 -0.50713802D-02 -0.43436526D-02 -0.23696269D-02 -0.72836117D-03  0.31710295D-03
  0.10558513D-18 -0.41949600D-19  0.78756002D-04 -0.14275479D-18  0.93113094D-19
  0.35100967D-03 -0.42473964D-20  0.18462516D-20 -0.60551890D-06 -0.50303355D-04
 -0.50303355D-04  0.10060671D-03  0.99200291D-22  0.16489373D-19 -0.38565863D-19
  0.13963382D-04  0.13963382D-04 -0.27926765D-04  0.17033301D-21 -0.12708164D-19
  0.26199716D-20 -0.17106609D-04 -0.17106609D-04  0.34213218D-04 -0.14460508D-21
  0.52848422D-19 -0.33021341D-19  0.11807722D-19 -0.33224115D-20 -0.32731216D-04
  0.11649269D-19 -0.33281749D-20  0.49096824D-04 -0.47072434D-19  0.13295409D-19
  0.49096824D-04 -0.59069238D-21  0.15033728D-19 -0.93988423D-20 -0.25817346D-04
  0.15032272D-19 -0.94004886D-20  0.38726019D-04 -0.60133455D-19  0.37597015D-19
  0.38726019D-04  0.80395189D-21  0.58519772D+00  0.10939931D+01  0.18907617D+01
  0.30582222D+01  0.46223238D+01  0.63656984D+01  0.74400255D+01  0.64287434D+01
  0.29983888D+01  0.40711642D+00  0.10901575D-02  0.21384383D-02  0.97628641D-04
 -0.12318290D-02 -0.23004932D-02 -0.39905613D-02 -0.64705572D-02 -0.99621595D-02
 -0.14188353D-01 -0.18244380D-01 -0.19151170D-01 -0.13541234D-01  0.29987630D-03
  0.97295518D-02  0.53573553D-02 -0.22656165D-04  0.54000115D-03  0.10077220D-02
  0.17502925D-02  0.28350856D-02  0.43793775D-02  0.62434606D-02  0.81207028D-02
  0.86544802D-02  0.64188480D-02 -0.19979490D-03 -0.58151419D-02 -0.56968320D-02
  0.26607584D-02 -0.30197825D-02 -0.16494166D-02 -0.46742441D-03  0.25662083D-16
  0.33667256D-16  0.36927848D-16  0.30384819D-16  0.16019477D-16  0.41675109D-17
 -0.46117757D-20  0.22374336D-16  0.29353911D-16  0.32196766D-16  0.26492009D-16
  0.13967111D-16  0.36335822D-17 -0.40209291D-20 -0.47882005D-02 -0.62818583D-02
 -0.68902411D-02 -0.56693996D-02 -0.29890196D-02 -0.77760162D-03  0.86049547D-06
 -0.71963897D-17 -0.94489035D-17 -0.10630653D-16 -0.89571293D-17 -0.50104926D-17
 -0.12471014D-17  0.57198079D-18  0.36873210D-18  0.48414750D-18  0.54469858D-18
  0.45894973D-18  0.25673005D-18  0.63899586D-19 -0.29307429D-19  0.38162413D-02
  0.50107481D-02  0.56374294D-02  0.47499605D-02  0.26570613D-02  0.66133715D-03
 -0.30332108D-03 -0.16818356D-17 -0.10607597D-17  0.15829429D-03 -0.75882457D-19
  0.26535800D-19  0.70590293D-03 -0.80476481D-21  0.23535310D-20  0.25206765D-04
  0.72399322D-04  0.72399322D-04 -0.14479864D-03 -0.61516204D-20 -0.15066582D-18
  0.71480080D-19 -0.13907136D-03 -0.13907136D-03  0.27814273D-03  0.55556107D-19
  0.18486985D-18 -0.80743382D-19  0.33939800D-04  0.33939800D-04 -0.67879601D-04
  0.38695259D-21  0.13711275D-19 -0.98165708D-20 -0.14309442D-19  0.88316984D-20
 -0.33483232D-04 -0.15447991D-19  0.78493527D-20  0.50224848D-04  0.58376318D-19
 -0.34344448D-19  0.50224848D-04 -0.53299351D-21 -0.20738340D-20 -0.60856616D-21
  0.30024366D-04 -0.19748784D-20 -0.56589589D-21 -0.45036548D-04  0.81963803D-20
  0.23915944D-20 -0.45036548D-04  0.54691918D-21
MO    2     MO 0.0        OCC NO =    2.0000000  ORB. ENERGY =  -76.407336
 -0.39201592D-04 -0.73345585D-04 -0.12664617D-03 -0.20481920D-03 -0.30913297D-03
 -0.42352173D-03 -0.48943443D-03 -0.41130850D-03 -0.18066472D-03 -0.20649679D-04
  0.27830901D-06 -0.17310043D-06 -0.85148067D-08  0.12967717D-04  0.24254756D-04
  0.41995800D-04  0.68191362D-04  0.10472600D-03  0.14894441D-03  0.18950784D-03
  0.19639684D-03  0.13106032D-03 -0.12907770D-04 -0.98594333D-04 -0.50624156D-04
  0.22206089D-06 -0.34307069D-05 -0.64110342D-05 -0.11116960D-04 -0.18027341D-04
 -0.27787218D-04 -0.39539694D-04 -0.50915165D-04 -0.53524666D-04 -0.37522432D-04
  0.43566901D-05  0.35270175D-04  0.33194027D-04 -0.16187374D-04  0.15661048D-03
  0.97998716D-03  0.29199185D-03 -0.24434114D-17 -0.31964484D-17 -0.34970266D-17
 -0.28805803D-17 -0.15401806D-17 -0.42556683D-18  0.34881802D-21 -0.91953608D-15
 -0.12029287D-14 -0.13160461D-14 -0.10840571D-14 -0.57962060D-15 -0.16015480D-15
  0.13127169D-18 -0.57351771D-03 -0.75027062D-03 -0.82082235D-03 -0.67613002D-03
 -0.36151130D-03 -0.99889079D-04  0.81874591D-07 -0.67416134D-18 -0.89286347D-18
 -0.98637428D-18 -0.84483258D-18 -0.46088814D-18 -0.14166493D-18  0.61675950D-19
 -0.36820639D-18 -0.48765484D-18 -0.53872759D-18 -0.46142183D-18 -0.25172307D-18
 -0.77373071D-19  0.33685526D-19  0.37230972D-03  0.49308931D-03  0.54473122D-03
  0.46656395D-03  0.25452829D-03  0.78235323D-04 -0.34060920D-04  0.78289893D-18
 -0.53877286D-18  0.18434627D-03  0.12704762D-19 -0.16341999D-19  0.15520759D-03
  0.81107614D-21  0.51168517D-21  0.11088997D-04  0.50310019D-04  0.50310019D-04
 -0.10062004D-03  0.61129342D-21  0.39771398D-19 -0.13390117D-19 -0.20574144D-04
 -0.20574144D-04  0.41148288D-04 -0.81333935D-21 -0.29759651D-19  0.13549909D-19
  0.38752088D-05  0.38752088D-05 -0.77504175D-05 -0.43890481D-22  0.69608681D-21
 -0.18260122D-20 -0.65482998D-20  0.84118168D-21 -0.36431650D-04 -0.66298911D-20
  0.89124366D-21  0.54647476D-04  0.26274790D-19 -0.34147887D-20  0.54647476D-04
 -0.38232087D-21 -0.19742409D-20  0.26354146D-21 -0.17311571D-04 -0.19597910D-20
  0.24814772D-21  0.25967356D-04  0.78825137D-20 -0.10387721D-20  0.25967356D-04
  0.33946090D-21  0.54408886D+00  0.10179820D+01  0.17577544D+01  0.28427378D+01
  0.42905351D+01  0.58781658D+01  0.67929849D+01  0.57086553D+01  0.25074915D+01
  0.28660215D+00 -0.38627216D-02  0.24025049D-02  0.11817917D-03 -0.12786531D-02
 -0.23915868D-02 -0.41409033D-02 -0.67238590D-02 -0.10326276D-01 -0.14686335D-01
 -0.18686003D-01 -0.19365277D-01 -0.12922914D-01  0.12727422D-02  0.97216769D-02
  0.49916833D-02 -0.21895824D-04  0.57051261D-03  0.10661289D-02  0.18487054D-02
  0.29978735D-02  0.46209015D-02  0.65752904D-02  0.84669850D-02  0.89009344D-02
  0.62398279D-02 -0.72449986D-03 -0.58652867D-02 -0.55200318D-02  0.26918945D-02
 -0.30274716D-02 -0.32172201D-03 -0.53340422D-03 -0.89748994D-18 -0.11740881D-17
 -0.12844936D-17 -0.10580665D-17 -0.56572403D-18 -0.15631504D-18  0.12812442D-21
  0.76041540D-18  0.99476847D-18  0.10883116D-17  0.89646697D-18  0.47932043D-18
  0.13244089D-18 -0.10855585D-21  0.11656756D-03  0.15249261D-03  0.16683226D-03
  0.13742353D-03  0.73477223D-04  0.20302470D-04 -0.16641022D-07  0.18435350D-17
  0.24415892D-17  0.26973002D-17  0.23102459D-17  0.12603265D-17  0.38739134D-18
 -0.16865662D-18  0.20176965D-18  0.26722498D-18  0.29521182D-18  0.25284982D-18
  0.13793915D-18  0.42398877D-19 -0.18458986D-19  0.15107196D-03  0.20008064D-03
  0.22103536D-03  0.18931746D-03  0.10327984D-03  0.31745515D-04 -0.13820885D-04
  0.22104000D-18 -0.67547940D-20 -0.59057316D-04 -0.27084139D-19 -0.19135894D-22
  0.56511594D-03 -0.29255335D-20  0.34912009D-22  0.20992988D-04 -0.36525893D-04
 -0.36525893D-04  0.73051787D-04 -0.42258531D-20 -0.15045547D-19 -0.26774508D-19
 -0.13765213D-03 -0.13765213D-03  0.27530425D-03  0.38723644D-19  0.92275703D-20
  0.19791071D-19  0.38734247D-04  0.38734247D-04 -0.77468493D-04  0.26154062D-21
 -0.75293724D-20 -0.61143688D-20  0.16314045D-19  0.20730000D-20  0.69098999D-05
  0.16381510D-19  0.18378100D-20 -0.10364850D-04 -0.65323644D-19 -0.80568102D-20
 -0.10364850D-04 -0.32261333D-21  0.24639146D-20 -0.50871931D-21  0.16857298D-04
  0.24539959D-20 -0.50500713D-21 -0.25285948D-04 -0.98457398D-20  0.20311651D-20
 -0.25285948D-04  0.22253893D-21  0.17120024D-05  0.32004891D-05  0.55314443D-05
  0.89468630D-05  0.13522660D-04  0.18622921D-04  0.21765877D-04  0.18807360D-04
  0.87718197D-05  0.11910236D-05  0.31892678D-08  0.62560250D-08  0.28561367D-09
 -0.81202035D-05 -0.15164826D-04 -0.26305737D-04 -0.42653843D-04 -0.65670447D-04
 -0.93529468D-04 -0.12026675D-03 -0.12624430D-03 -0.89263669D-04  0.19767813D-05
  0.64137100D-04  0.35315628D-04 -0.14934919D-06  0.82345034D-05  0.15366802D-04
  0.26690295D-04  0.43232356D-04  0.66781338D-04  0.95206831D-04  0.12383299D-03
  0.13197258D-03  0.97881321D-04 -0.30466821D-05 -0.88675378D-04 -0.86871264D-04
  0.40574033D-04  0.13290739D-03 -0.25515211D-03 -0.26838687D-06  0.19315052D-18
  0.25340296D-18  0.27794442D-18  0.22869708D-18  0.12057362D-18  0.31367557D-19
 -0.34711400D-22 -0.23412260D-18 -0.30715610D-18 -0.33690343D-18 -0.27720948D-18
 -0.14615032D-18 -0.38021406D-19  0.42074562D-22  0.37987738D-02  0.49837844D-02
  0.54664518D-02  0.44978832D-02  0.23713730D-02  0.61691916D-03 -0.68268395D-06
 -0.13882324D-18 -0.18227575D-18 -0.20507251D-18 -0.17278910D-18 -0.96655799D-19
 -0.24057432D-19  0.11033897D-19  0.25708103D-18  0.33754895D-18  0.37976533D-18
  0.31998100D-18  0.17899289D-18  0.44550965D-19 -0.20433219D-19 -0.32235348D-02
 -0.42325209D-02 -0.47618714D-02 -0.40122367D-02 -0.22443889D-02 -0.55862384D-03
  0.25621181D-03 -0.30687050D-19  0.44068488D-20 -0.31945956D-03  0.42632018D-19
  0.20485490D-19  0.28839232D-03  0.27442123D-20  0.43745244D-21 -0.27201770D-06
  0.81723859D-04  0.81723859D-04 -0.16344772D-03  0.25692434D-21 -0.50063745D-19
 -0.14265603D-19 -0.59068400D-04 -0.59068400D-04  0.11813680D-03 -0.22114415D-21
  0.60232143D-19  0.21134063D-19  0.19245249D-04  0.19245249D-04 -0.38490499D-04
 -0.72303243D-22 -0.15282240D-19 -0.60518434D-20 -0.67728992D-21  0.18664394D-20
  0.25611630D-04 -0.72700939D-21  0.19125768D-20 -0.38417445D-04  0.27588791D-20
 -0.75118950D-20 -0.38417445D-04  0.55755233D-21 -0.56639148D-20 -0.21982032D-20
  0.28947056D-04 -0.56584844D-20 -0.21937622D-20 -0.43420585D-04  0.22650229D-19
  0.87883719D-20 -0.43420585D-04 -0.25268874D-21
MO    3     MO 0.0        OCC NO =    2.0000000  ORB. ENERGY =  -76.369166
  0.54409973D+00  0.10180024D+01  0.17577895D+01  0.28427946D+01  0.42906208D+01
  0.58782832D+01  0.67931206D+01  0.57087693D+01  0.25075416D+01  0.28660787D+00
 -0.38627987D-02  0.24025529D-02  0.11818153D-03 -0.13082954D-02 -0.24470296D-02
 -0.42368995D-02 -0.68797344D-02 -0.10565664D-01 -0.15026800D-01 -0.19119190D-01
 -0.19814212D-01 -0.13222499D-01  0.13022475D-02  0.99470491D-02  0.51074027D-02
 -0.22403423D-04  0.59434151D-03  0.11106585D-02  0.19259212D-02  0.31230872D-02
  0.48139051D-02  0.68499240D-02  0.88206300D-02  0.92727043D-02  0.65004500D-02
 -0.75476042D-03 -0.61102652D-02 -0.57505898D-02  0.28043282D-02 -0.27612617D-02
 -0.19278250D-03  0.21438317D-04  0.19681693D-16  0.25747411D-16  0.28168570D-16
  0.23203091D-16  0.12406163D-16  0.34279433D-17 -0.28097312D-20 -0.90145203D-17
 -0.11792713D-16 -0.12901641D-16 -0.10627375D-16 -0.56822150D-17 -0.15700511D-17
  0.12869004D-20  0.11490215D-01  0.15031394D-01  0.16444872D-01  0.13546015D-01
  0.72427451D-02  0.20012407D-02 -0.16403271D-05 -0.10693802D-16 -0.14162937D-16
 -0.15646241D-16 -0.13401053D-16 -0.73107817D-17 -0.22471426D-17  0.97832720D-18
 -0.27989328D-17 -0.37069240D-17 -0.40951552D-17 -0.35075129D-17 -0.19134810D-17
 -0.58815390D-18  0.25606161D-18 -0.97101224D-02 -0.12860146D-01 -0.14207007D-01
 -0.12168345D-01 -0.66382927D-02 -0.20404371D-02  0.88833488D-03 -0.17487753D-17
  0.38234558D-18 -0.39215576D-03  0.14360774D-19  0.20942891D-19 -0.21475157D-03
 -0.56449678D-20 -0.30000152D-20 -0.69464404D-05  0.37837397D-04  0.37837397D-04
 -0.75674794D-04 -0.38660487D-20  0.38212493D-18  0.15422179D-18 -0.16997717D-03
 -0.16997717D-03  0.33995433D-03  0.33065231D-19 -0.19742675D-18 -0.60331967D-19
  0.16703141D-04  0.16703141D-04 -0.33406282D-04  0.18637093D-21 -0.11234420D-20
  0.23136175D-21 -0.43628446D-19 -0.17115321D-19  0.33365965D-04 -0.43546601D-19
 -0.17750289D-19 -0.50048948D-04  0.17443194D-18  0.69096254D-19 -0.50048948D-04
  0.31817887D-21 -0.57916796D-20 -0.20623872D-20 -0.21015786D-04 -0.58043673D-20
 -0.20094126D-20  0.31523679D-04  0.23179406D-19  0.81965741D-20  0.31523679D-04
 -0.37376184D-21  0.22267916D-04  0.41662935D-04  0.71939585D-04  0.11634468D-03
  0.17559866D-03  0.24057560D-03  0.27801639D-03  0.23363805D-03  0.10262407D-03
  0.11729762D-04 -0.15808955D-06  0.98327279D-07  0.48367169D-08  0.68792845D-05
  0.12866981D-04  0.22278483D-04  0.36175048D-04  0.55556421D-04  0.79013984D-04
  0.10053260D-03  0.10418717D-03  0.69526597D-04 -0.68474833D-05 -0.52303615D-04
 -0.26855766D-04  0.11780177D-06  0.77306350D-06  0.14446400D-05  0.25050570D-05
  0.40622179D-05  0.62614747D-05  0.89097365D-05  0.11473045D-04  0.12061061D-04
  0.84551736D-05 -0.98172132D-06 -0.79476580D-05 -0.74798260D-05  0.36476062D-05
  0.20486968D-03  0.54662332D-03  0.40340625D-04 -0.27657314D-17 -0.36181045D-17
 -0.39583331D-17 -0.32605690D-17 -0.17433518D-17 -0.48170502D-18  0.39483197D-21
 -0.10615225D-17 -0.13886740D-17 -0.15192580D-17 -0.12514473D-17 -0.66912034D-18
 -0.18488444D-18  0.15154147D-21 -0.36036202D-02 -0.47142230D-02 -0.51575251D-02
 -0.42483707D-02 -0.22715069D-02 -0.62763939D-03  0.51444781D-06  0.20860733D-17
  0.27628084D-17  0.30521611D-17  0.26141853D-17  0.14261370D-17  0.43835713D-18
 -0.19084534D-18  0.78229826D-18  0.10360807D-17  0.11445908D-17  0.98034554D-18
  0.53481559D-18  0.16438829D-18 -0.71568905D-19  0.35279418D-02  0.46724281D-02
  0.51617779D-02  0.44210785D-02  0.24118656D-02  0.74134425D-03 -0.32275533D-03
  0.35911500D-18  0.14749148D-18 -0.25695673D-03 -0.43812790D-18 -0.19734981D-18
  0.73080305D-03  0.69409559D-20  0.28003275D-20  0.21050593D-04  0.49895824D-04
  0.49895824D-04 -0.99791649D-04  0.40421368D-21  0.72117764D-19  0.84705838D-20
  0.50153001D-05  0.50153001D-05 -0.10030600D-04 -0.53160548D-21 -0.81618609D-19
 -0.34314749D-19  0.83700145D-06  0.83700145D-06 -0.16740029D-05 -0.67552294D-22
 -0.75609210D-19 -0.32186197D-19  0.16215327D-19  0.64576539D-20  0.17366287D-04
  0.16067397D-19  0.65621695D-20 -0.26049431D-04 -0.64713379D-19 -0.25935131D-19
 -0.26049431D-04  0.11511353D-20  0.48972219D-19  0.21742251D-19  0.81213461D-04
  0.48978726D-19  0.21719447D-19 -0.12182019D-03 -0.19589538D-18 -0.86946198D-19
 -0.12182019D-03 -0.83122362D-21 -0.11633895D-03 -0.21748891D-03 -0.37588874D-03
 -0.60798317D-03 -0.91893096D-03 -0.12655187D-02 -0.14790980D-02 -0.12780522D-02
 -0.59608812D-03 -0.80935889D-04 -0.21672637D-06 -0.42512754D-06 -0.19408848D-07
  0.21075857D-03  0.39360061D-03  0.68276115D-03  0.11070736D-02  0.17044658D-02
  0.24275422D-02  0.31215042D-02  0.32766505D-02  0.23168241D-02 -0.51307040D-04
 -0.16646681D-02 -0.91661142D-03  0.38763341D-05 -0.11440341D-03 -0.21349368D-03
 -0.37081298D-03 -0.60063475D-03 -0.92780491D-03 -0.13227253D-02 -0.17204335D-02
 -0.18335184D-02 -0.13598825D-02  0.42328091D-04  0.12319827D-02  0.12069178D-02
 -0.56370219D-03  0.17606830D-03 -0.71786312D-03 -0.16304899D-03  0.28194904D-17
  0.36990179D-17  0.40572588D-17  0.33383769D-17  0.17600583D-17  0.45788398D-18
 -0.50669531D-21  0.14109823D-17  0.18511319D-17  0.20304096D-17  0.16706532D-17
  0.88080140D-18  0.22914289D-18 -0.25356997D-21  0.50207735D-02  0.65869814D-02
  0.72249146D-02  0.59447743D-02  0.31342026D-02  0.81537137D-03 -0.90229155D-06
 -0.23923532D-17 -0.31411743D-17 -0.35340329D-17 -0.29776899D-17 -0.16656780D-17
 -0.41458386D-18  0.19014814D-18 -0.11810735D-17 -0.15507567D-17 -0.17447058D-17
 -0.14700465D-17 -0.82232343D-18 -0.20467463D-18  0.93873646D-19 -0.46211541D-02
 -0.60676035D-02 -0.68264630D-02 -0.57518112D-02 -0.32174826D-02 -0.80082486D-03
  0.36729687D-03 -0.20181424D-18 -0.10511562D-18 -0.84643023D-04  0.41868065D-18
  0.18717390D-18  0.12828357D-03  0.53480871D-20  0.24693891D-20  0.18854946D-05
 -0.11205042D-04 -0.11205042D-04  0.22410084D-04  0.38525046D-21 -0.34451870D-18
 -0.16406874D-18  0.51112824D-04  0.51112824D-04 -0.10222565D-03 -0.69910667D-21
  0.35387131D-18  0.17360295D-18 -0.39287706D-05 -0.39287706D-05  0.78575412D-05
  0.17593657D-21 -0.10585724D-18 -0.47668806D-19 -0.83933073D-20 -0.39766531D-20
 -0.24470886D-05 -0.84152699D-20 -0.40059116D-20  0.36706329D-05  0.33595192D-19
  0.15935871D-19  0.36706329D-05  0.14322815D-20 -0.15964109D-19 -0.78032264D-20
 -0.86139216D-05 -0.15951643D-19 -0.77896685D-20  0.12920882D-04  0.63843969D-19
  0.31199348D-19  0.12920882D-04 -0.65948800D-21
MO    4     MO 0.0        OCC NO =    2.0000000  ORB. ENERGY =   -7.712893
  0.13825164D-03  0.25866674D-03  0.44664107D-03  0.72233269D-03  0.10902144D-02
  0.14936275D-02  0.17260808D-02  0.14505553D-02  0.63714744D-03  0.72824902D-04
 -0.98150807D-06  0.61047059D-06  0.30029036D-07 -0.26032401D-03 -0.48690881D-03
 -0.84305629D-03 -0.13689263D-02 -0.21023510D-02 -0.29900257D-02 -0.38043275D-02
 -0.39426226D-02 -0.26310066D-02  0.25912060D-03  0.19792592D-02  0.10162686D-02
 -0.44578227D-05  0.14730529D-03  0.27527250D-03  0.47733227D-03  0.77404533D-03
  0.11931081D-02  0.16977277D-02  0.21861597D-02  0.22982046D-02  0.16111119D-02
 -0.18706451D-03 -0.15144061D-02 -0.14252619D-02  0.69504212D-03 -0.80695326D-04