 Molden2AIM, Version 4.0.0 (06/02/2016)           Time: Fri Jun 29 04:24:56 2018
GAUSSIAN             47 MOL ORBITALS    786 PRIMITIVES        6 NUCLEI
  P    1    (CENTRE  1)  -0.50201141  2.10984142  0.29363131  CHARGE = 15.0
  P    2    (CENTRE  2)   0.50201141 -2.10984142  0.29360108  CHARGE = 15.0
  S    3    (CENTRE  3)   2.42989489  4.25597882  0.29588198  CHARGE = 16.0
  S    4    (CENTRE  4)  -4.08633621  2.70538861  0.29142222  CHARGE = 16.0
  S    5    (CENTRE  5)  -2.42989489 -4.25597882  0.29584040  CHARGE = 16.0
  S    6    (CENTRE  6)   4.08633621 -2.70538672  0.29130695  CHARGE = 16.0
CENTRE ASSIGNMENTS    1  1  1  1  1  1  1  1  1  1  1  1  1  1  1  1  1  1  1  1
CENTRE ASSIGNMENTS    1  1  1  1  1  1  1  1  1  1  1  1  1  1  1  1  1  1  1  1
CENTRE ASSIGNMENTS    1  1  1  1  1  1  1  1  1  1  1  1  1  1  1  1  1  1  1  1
CENTRE ASSIGNMENTS    1  1  1  1  1  1  1  1  1  1  1  1  1  1  1  1  1  1  1  1
CENTRE ASSIGNMENTS    1  1  1  1  1  1  1  1  1  1  1  1  1  1  1  1  1  1  1  1
CENTRE ASSIGNMENTS    1  1  1  1  1  1  1  1  1  1  1  1  1  1  1  1  1  1  1  1
CENTRE ASSIGNMENTS    1  1  1  1  1  1  1  1  1  1  1  2  2  2  2  2  2  2  2  2
CENTRE ASSIGNMENTS    2  2  2  2  2  2  2  2  2  2  2  2  2  2  2  2  2  2  2  2
CENTRE ASSIGNMENTS    2  2  2  2  2  2  2  2  2  2  2  2  2  2  2  2  2  2  2  2
CENTRE ASSIGNMENTS    2  2  2  2  2  2  2  2  2  2  2  2  2  2  2  2  2  2  2  2
CENTRE ASSIGNMENTS    2  2  2  2  2  2  2  2  2  2  2  2  2  2  2  2  2  2  2  2
CENTRE ASSIGNMENTS    2  2  2  2  2  2  2  2  2  2  2  2  2  2  2  2  2  2  2  2
CENTRE ASSIGNMENTS    2  2  2  2  2  2  2  2  2  2  2  2  2  2  2  2  2  2  2  2
CENTRE ASSIGNMENTS    2  2  3  3  3  3  3  3  3  3  3  3  3  3  3  3  3  3  3  3
CENTRE ASSIGNMENTS    3  3  3  3  3  3  3  3  3  3  3  3  3  3  3  3  3  3  3  3
CENTRE ASSIGNMENTS    3  3  3  3  3  3  3  3  3  3  3  3  3  3  3  3  3  3  3  3
CENTRE ASSIGNMENTS    3  3  3  3  3  3  3  3  3  3  3  3  3  3  3  3  3  3  3  3
CENTRE ASSIGNMENTS    3  3  3  3  3  3  3  3  3  3  3  3  3  3  3  3  3  3  3  3
CENTRE ASSIGNMENTS    3  3  3  3  3  3  3  3  3  3  3  3  3  3  3  3  3  3  3  3
CENTRE ASSIGNMENTS    3  3  3  3  3  3  3  3  3  3  3  3  3  4  4  4  4  4  4  4
CENTRE ASSIGNMENTS    4  4  4  4  4  4  4  4  4  4  4  4  4  4  4  4  4  4  4  4
CENTRE ASSIGNMENTS    4  4  4  4  4  4  4  4  4  4  4  4  4  4  4  4  4  4  4  4
CENTRE ASSIGNMENTS    4  4  4  4  4  4  4  4  4  4  4  4  4  4  4  4  4  4  4  4
CENTRE ASSIGNMENTS    4  4  4  4  4  4  4  4  4  4  4  4  4  4  4  4  4  4  4  4
CENTRE ASSIGNMENTS    4  4  4  4  4  4  4  4  4  4  4  4  4  4  4  4  4  4  4  4
CENTRE ASSIGNMENTS    4  4  4  4  4  4  4  4  4  4  4  4  4  4  4  4  4  4  4  4
CENTRE ASSIGNMENTS    4  4  4  4  5  5  5  5  5  5  5  5  5  5  5  5  5  5  5  5
CENTRE ASSIGNMENTS    5  5  5  5  5  5  5  5  5  5  5  5  5  5  5  5  5  5  5  5
CENTRE ASSIGNMENTS    5  5  5  5  5  5  5  5  5  5  5  5  5  5  5  5  5  5  5  5
CENTRE ASSIGNMENTS    5  5  5  5  5  5  5  5  5  5  5  5  5  5  5  5  5  5  5  5
CENTRE ASSIGNMENTS    5  5  5  5  5  5  5  5  5  5  5  5  5  5  5  5  5  5  5  5
CENTRE ASSIGNMENTS    5  5  5  5  5  5  5  5  5  5  5  5  5  5  5  5  5  5  5  5
CENTRE ASSIGNMENTS    5  5  5  5  5  5  5  5  5  5  5  5  5  5  5  6  6  6  6  6
CENTRE ASSIGNMENTS    6  6  6  6  6  6  6  6  6  6  6  6  6  6  6  6  6  6  6  6
CENTRE ASSIGNMENTS    6  6  6  6  6  6  6  6  6  6  6  6  6  6  6  6  6  6  6  6
CENTRE ASSIGNMENTS    6  6  6  6  6  6  6  6  6  6  6  6  6  6  6  6  6  6  6  6
CENTRE ASSIGNMENTS    6  6  6  6  6  6  6  6  6  6  6  6  6  6  6  6  6  6  6  6
CENTRE ASSIGNMENTS    6  6  6  6  6  6  6  6  6  6  6  6  6  6  6  6  6  6  6  6
CENTRE ASSIGNMENTS    6  6  6  6  6  6  6  6  6  6  6  6  6  6  6  6  6  6  6  6
CENTRE ASSIGNMENTS    6  6  6  6  6  6
TYPE ASSIGNMENTS      1  1  1  1  1  1  1  1  1  1  1  1  1  1  1  1  1  1  1  1
TYPE ASSIGNMENTS      1  1  1  1  1  1  1  1  1  1  1  1  1  1  1  1  1  1  1  1
TYPE ASSIGNMENTS      1  1  2  2  2  2  2  2  2  3  3  3  3  3  3  3  4  4  4  4
TYPE ASSIGNMENTS      4  4  4  2  2  2  2  2  2  2  3  3  3  3  3  3  3  4  4  4
TYPE ASSIGNMENTS      4  4  4  4  2  3  4  2  3  4  2  3  4  5  6  7  8  9 10  5
TYPE ASSIGNMENTS      6  7  8  9 10  5  6  7  8  9 10 11 12 13 17 14 15 18 19 16
TYPE ASSIGNMENTS     20 11 12 13 17 14 15 18 19 16 20  1  1  1  1  1  1  1  1  1
TYPE ASSIGNMENTS      1  1  1  1  1  1  1  1  1  1  1  1  1  1  1  1  1  1  1  1
TYPE ASSIGNMENTS      1  1  1  1  1  1  1  1  1  1  1  1  1  2  2  2  2  2  2  2
TYPE ASSIGNMENTS      3  3  3  3  3  3  3  4  4  4  4  4  4  4  2  2  2  2  2  2
TYPE ASSIGNMENTS      2  3  3  3  3  3  3  3  4  4  4  4  4  4  4  2  3  4  2  3
TYPE ASSIGNMENTS      4  2  3  4  5  6  7  8  9 10  5  6  7  8  9 10  5  6  7  8
TYPE ASSIGNMENTS      9 10 11 12 13 17 14 15 18 19 16 20 11 12 13 17 14 15 18 19
TYPE ASSIGNMENTS     16 20  1  1  1  1  1  1  1  1  1  1  1  1  1  1  1  1  1  1
TYPE ASSIGNMENTS      1  1  1  1  1  1  1  1  1  1  1  1  1  1  1  1  1  1  1  1
TYPE ASSIGNMENTS      1  1  1  1  2  2  2  2  2  2  2  3  3  3  3  3  3  3  4  4
TYPE ASSIGNMENTS      4  4  4  4  4  2  2  2  2  2  2  2  3  3  3  3  3  3  3  4
TYPE ASSIGNMENTS      4  4  4  4  4  4  2  3  4  2  3  4  2  3  4  5  6  7  8  9
TYPE ASSIGNMENTS     10  5  6  7  8  9 10  5  6  7  8  9 10 11 12 13 17 14 15 18
TYPE ASSIGNMENTS     19 16 20 11 12 13 17 14 15 18 19 16 20  1  1  1  1  1  1  1
TYPE ASSIGNMENTS      1  1  1  1  1  1  1  1  1  1  1  1  1  1  1  1  1  1  1  1
TYPE ASSIGNMENTS      1  1  1  1  1  1  1  1  1  1  1  1  1  1  1  2  2  2  2  2
TYPE ASSIGNMENTS      2  2  3  3  3  3  3  3  3  4  4  4  4  4  4  4  2  2  2  2
TYPE ASSIGNMENTS      2  2  2  3  3  3  3  3  3  3  4  4  4  4  4  4  4  2  3  4
TYPE ASSIGNMENTS      2  3  4  2  3  4  5  6  7  8  9 10  5  6  7  8  9 10  5  6
TYPE ASSIGNMENTS      7  8  9 10 11 12 13 17 14 15 18 19 16 20 11 12 13 17 14 15
TYPE ASSIGNMENTS     18 19 16 20  1  1  1  1  1  1  1  1  1  1  1  1  1  1  1  1
TYPE ASSIGNMENTS      1  1  1  1  1  1  1  1  1  1  1  1  1  1  1  1  1  1  1  1
TYPE ASSIGNMENTS      1  1  1  1  1  1  2  2  2  2  2  2  2  3  3  3  3  3  3  3
TYPE ASSIGNMENTS      4  4  4  4  4  4  4  2  2  2  2  2  2  2  3  3  3  3  3  3
TYPE ASSIGNMENTS      3  4  4  4  4  4  4  4  2  3  4  2  3  4  2  3  4  5  6  7
TYPE ASSIGNMENTS      8  9 10  5  6  7  8  9 10  5  6  7  8  9 10 11 12 13 17 14
TYPE ASSIGNMENTS     15 18 19 16 20 11 12 13 17 14 15 18 19 16 20  1  1  1  1  1
TYPE ASSIGNMENTS      1  1  1  1  1  1  1  1  1  1  1  1  1  1  1  1  1  1  1  1
TYPE ASSIGNMENTS      1  1  1  1  1  1  1  1  1  1  1  1  1  1  1  1  1  2  2  2
TYPE ASSIGNMENTS      2  2  2  2  3  3  3  3  3  3  3  4  4  4  4  4  4  4  2  2
TYPE ASSIGNMENTS      2  2  2  2  2  3  3  3  3  3  3  3  4  4  4  4  4  4  4  2
TYPE ASSIGNMENTS      3  4  2  3  4  2  3  4  5  6  7  8  9 10  5  6  7  8  9 10
TYPE ASSIGNMENTS      5  6  7  8  9 10 11 12 13 17 14 15 18 19 16 20 11 12 13 17
TYPE ASSIGNMENTS     14 15 18 19 16 20
EXPONENTS  0.3124000D+06 0.4680000D+05 0.1065000D+05 0.3018000D+04 0.9868000D+03
EXPONENTS  0.3574000D+03 0.1396000D+03 0.5763000D+02 0.2460000D+02 0.1012000D+02
EXPONENTS  0.4283000D+01 0.1805000D+01 0.2782000D+00 0.3124000D+06 0.4680000D+05
EXPONENTS  0.1065000D+05 0.3018000D+04 0.9868000D+03 0.3574000D+03 0.1396000D+03
EXPONENTS  0.5763000D+02 0.2460000D+02 0.1012000D+02 0.4283000D+01 0.1805000D+01
EXPONENTS  0.2782000D+00 0.3124000D+06 0.4680000D+05 0.1065000D+05 0.3018000D+04
EXPONENTS  0.9868000D+03 0.3574000D+03 0.1396000D+03 0.5763000D+02 0.2460000D+02
EXPONENTS  0.1012000D+02 0.4283000D+01 0.1805000D+01 0.2782000D+00 0.6158000D+00
EXPONENTS  0.1055000D+00 0.4090000D-01 0.5049000D+03 0.1194000D+03 0.3796000D+02
EXPONENTS  0.1395000D+02 0.5457000D+01 0.2177000D+01 0.2877000D+00 0.5049000D+03
EXPONENTS  0.1194000D+03 0.3796000D+02 0.1395000D+02 0.5457000D+01 0.2177000D+01
EXPONENTS  0.2877000D+00 0.5049000D+03 0.1194000D+03 0.3796000D+02 0.1395000D+02
EXPONENTS  0.5457000D+01 0.2177000D+01 0.2877000D+00 0.5049000D+03 0.1194000D+03
EXPONENTS  0.3796000D+02 0.1395000D+02 0.5457000D+01 0.2177000D+01 0.2877000D+00
EXPONENTS  0.5049000D+03 0.1194000D+03 0.3796000D+02 0.1395000D+02 0.5457000D+01
EXPONENTS  0.2177000D+01 0.2877000D+00 0.5049000D+03 0.1194000D+03 0.3796000D+02
EXPONENTS  0.1395000D+02 0.5457000D+01 0.2177000D+01 0.2877000D+00 0.8010000D+00
EXPONENTS  0.8010000D+00 0.8010000D+00 0.9714000D-01 0.9714000D-01 0.9714000D-01
EXPONENTS  0.3070000D-01 0.3070000D-01 0.3070000D-01 0.2160000D+00 0.2160000D+00
EXPONENTS  0.2160000D+00 0.2160000D+00 0.2160000D+00 0.2160000D+00 0.6520000D+00
EXPONENTS  0.6520000D+00 0.6520000D+00 0.6520000D+00 0.6520000D+00 0.6520000D+00
EXPONENTS  0.7750000D-01 0.7750000D-01 0.7750000D-01 0.7750000D-01 0.7750000D-01
EXPONENTS  0.7750000D-01 0.4520000D+00 0.4520000D+00 0.4520000D+00 0.4520000D+00
EXPONENTS  0.4520000D+00 0.4520000D+00 0.4520000D+00 0.4520000D+00 0.4520000D+00
EXPONENTS  0.4520000D+00 0.1650000D+00 0.1650000D+00 0.1650000D+00 0.1650000D+00
EXPONENTS  0.1650000D+00 0.1650000D+00 0.1650000D+00 0.1650000D+00 0.1650000D+00
EXPONENTS  0.1650000D+00 0.3124000D+06 0.4680000D+05 0.1065000D+05 0.3018000D+04
EXPONENTS  0.9868000D+03 0.3574000D+03 0.1396000D+03 0.5763000D+02 0.2460000D+02
EXPONENTS  0.1012000D+02 0.4283000D+01 0.1805000D+01 0.2782000D+00 0.3124000D+06
EXPONENTS  0.4680000D+05 0.1065000D+05 0.3018000D+04 0.9868000D+03 0.3574000D+03
EXPONENTS  0.1396000D+03 0.5763000D+02 0.2460000D+02 0.1012000D+02 0.4283000D+01
EXPONENTS  0.1805000D+01 0.2782000D+00 0.3124000D+06 0.4680000D+05 0.1065000D+05
EXPONENTS  0.3018000D+04 0.9868000D+03 0.3574000D+03 0.1396000D+03 0.5763000D+02
EXPONENTS  0.2460000D+02 0.1012000D+02 0.4283000D+01 0.1805000D+01 0.2782000D+00
EXPONENTS  0.6158000D+00 0.1055000D+00 0.4090000D-01 0.5049000D+03 0.1194000D+03
EXPONENTS  0.3796000D+02 0.1395000D+02 0.5457000D+01 0.2177000D+01 0.2877000D+00
EXPONENTS  0.5049000D+03 0.1194000D+03 0.3796000D+02 0.1395000D+02 0.5457000D+01
EXPONENTS  0.2177000D+01 0.2877000D+00 0.5049000D+03 0.1194000D+03 0.3796000D+02
EXPONENTS  0.1395000D+02 0.5457000D+01 0.2177000D+01 0.2877000D+00 0.5049000D+03
EXPONENTS  0.1194000D+03 0.3796000D+02 0.1395000D+02 0.5457000D+01 0.2177000D+01
EXPONENTS  0.2877000D+00 0.5049000D+03 0.1194000D+03 0.3796000D+02 0.1395000D+02
EXPONENTS  0.5457000D+01 0.2177000D+01 0.2877000D+00 0.5049000D+03 0.1194000D+03
EXPONENTS  0.3796000D+02 0.1395000D+02 0.5457000D+01 0.2177000D+01 0.2877000D+00
EXPONENTS  0.8010000D+00 0.8010000D+00 0.8010000D+00 0.9714000D-01 0.9714000D-01
EXPONENTS  0.9714000D-01 0.3070000D-01 0.3070000D-01 0.3070000D-01 0.2160000D+00
EXPONENTS  0.2160000D+00 0.2160000D+00 0.2160000D+00 0.2160000D+00 0.2160000D+00
EXPONENTS  0.6520000D+00 0.6520000D+00 0.6520000D+00 0.6520000D+00 0.6520000D+00
EXPONENTS  0.6520000D+00 0.7750000D-01 0.7750000D-01 0.7750000D-01 0.7750000D-01
EXPONENTS  0.7750000D-01 0.7750000D-01 0.4520000D+00 0.4520000D+00 0.4520000D+00
EXPONENTS  0.4520000D+00 0.4520000D+00 0.4520000D+00 0.4520000D+00 0.4520000D+00
EXPONENTS  0.4520000D+00 0.4520000D+00 0.1650000D+00 0.1650000D+00 0.1650000D+00
EXPONENTS  0.1650000D+00 0.1650000D+00 0.1650000D+00 0.1650000D+00 0.1650000D+00
EXPONENTS  0.1650000D+00 0.1650000D+00 0.3741000D+06 0.5605000D+05 0.1276000D+05
EXPONENTS  0.3615000D+04 0.1183000D+04 0.4288000D+03 0.1678000D+03 0.6947000D+02
EXPONENTS  0.2984000D+02 0.1272000D+02 0.5244000D+01 0.2219000D+01 0.3490000D+00
EXPONENTS  0.3741000D+06 0.5605000D+05 0.1276000D+05 0.3615000D+04 0.1183000D+04
EXPONENTS  0.4288000D+03 0.1678000D+03 0.6947000D+02 0.2984000D+02 0.1272000D+02
EXPONENTS  0.5244000D+01 0.2219000D+01 0.3490000D+00 0.3741000D+06 0.5605000D+05
EXPONENTS  0.1276000D+05 0.3615000D+04 0.1183000D+04 0.4288000D+03 0.1678000D+03
EXPONENTS  0.6947000D+02 0.2984000D+02 0.1272000D+02 0.5244000D+01 0.2219000D+01
EXPONENTS  0.3490000D+00 0.7767000D+00 0.1322000D+00 0.4970000D-01 0.5744000D+03
EXPONENTS  0.1358000D+03 0.4319000D+02 0.1587000D+02 0.6208000D+01 0.2483000D+01
EXPONENTS  0.3229000D+00 0.5744000D+03 0.1358000D+03 0.4319000D+02 0.1587000D+02
EXPONENTS  0.6208000D+01 0.2483000D+01 0.3229000D+00 0.5744000D+03 0.1358000D+03
EXPONENTS  0.4319000D+02 0.1587000D+02 0.6208000D+01 0.2483000D+01 0.3229000D+00
EXPONENTS  0.5744000D+03 0.1358000D+03 0.4319000D+02 0.1587000D+02 0.6208000D+01
EXPONENTS  0.2483000D+01 0.3229000D+00 0.5744000D+03 0.1358000D+03 0.4319000D+02
EXPONENTS  0.1587000D+02 0.6208000D+01 0.2483000D+01 0.3229000D+00 0.5744000D+03
EXPONENTS  0.1358000D+03 0.4319000D+02 0.1587000D+02 0.6208000D+01 0.2483000D+01
EXPONENTS  0.3229000D+00 0.8688000D+00 0.8688000D+00 0.8688000D+00 0.1098000D+00
EXPONENTS  0.1098000D+00 0.1098000D+00 0.3510000D-01 0.3510000D-01 0.3510000D-01
EXPONENTS  0.2690000D+00 0.2690000D+00 0.2690000D+00 0.2690000D+00 0.2690000D+00
EXPONENTS  0.2690000D+00 0.8190000D+00 0.8190000D+00 0.8190000D+00 0.8190000D+00
EXPONENTS  0.8190000D+00 0.8190000D+00 0.1010000D+00 0.1010000D+00 0.1010000D+00
EXPONENTS  0.1010000D+00 0.1010000D+00 0.1010000D+00 0.5570000D+00 0.5570000D+00
EXPONENTS  0.5570000D+00 0.5570000D+00 0.5570000D+00 0.5570000D+00 0.5570000D+00
EXPONENTS  0.5570000D+00 0.5570000D+00 0.5570000D+00 0.2180000D+00 0.2180000D+00
EXPONENTS  0.2180000D+00 0.2180000D+00 0.2180000D+00 0.2180000D+00 0.2180000D+00
EXPONENTS  0.2180000D+00 0.2180000D+00 0.2180000D+00 0.3741000D+06 0.5605000D+05
EXPONENTS  0.1276000D+05 0.3615000D+04 0.1183000D+04 0.4288000D+03 0.1678000D+03
EXPONENTS  0.6947000D+02 0.2984000D+02 0.1272000D+02 0.5244000D+01 0.2219000D+01
EXPONENTS  0.3490000D+00 0.3741000D+06 0.5605000D+05 0.1276000D+05 0.3615000D+04
EXPONENTS  0.1183000D+04 0.4288000D+03 0.1678000D+03 0.6947000D+02 0.2984000D+02
EXPONENTS  0.1272000D+02 0.5244000D+01 0.2219000D+01 0.3490000D+00 0.3741000D+06
EXPONENTS  0.5605000D+05 0.1276000D+05 0.3615000D+04 0.1183000D+04 0.4288000D+03
EXPONENTS  0.1678000D+03 0.6947000D+02 0.2984000D+02 0.1272000D+02 0.5244000D+01
EXPONENTS  0.2219000D+01 0.3490000D+00 0.7767000D+00 0.1322000D+00 0.4970000D-01
EXPONENTS  0.5744000D+03 0.1358000D+03 0.4319000D+02 0.1587000D+02 0.6208000D+01
EXPONENTS  0.2483000D+01 0.3229000D+00 0.5744000D+03 0.1358000D+03 0.4319000D+02
EXPONENTS  0.1587000D+02 0.6208000D+01 0.2483000D+01 0.3229000D+00 0.5744000D+03
EXPONENTS  0.1358000D+03 0.4319000D+02 0.1587000D+02 0.6208000D+01 0.2483000D+01
EXPONENTS  0.3229000D+00 0.5744000D+03 0.1358000D+03 0.4319000D+02 0.1587000D+02
EXPONENTS  0.6208000D+01 0.2483000D+01 0.3229000D+00 0.5744000D+03 0.1358000D+03
EXPONENTS  0.4319000D+02 0.1587000D+02 0.6208000D+01 0.2483000D+01 0.3229000D+00
EXPONENTS  0.5744000D+03 0.1358000D+03 0.4319000D+02 0.1587000D+02 0.6208000D+01
EXPONENTS  0.2483000D+01 0.3229000D+00 0.8688000D+00 0.8688000D+00 0.8688000D+00
EXPONENTS  0.1098000D+00 0.1098000D+00 0.1098000D+00 0.3510000D-01 0.3510000D-01
EXPONENTS  0.3510000D-01 0.2690000D+00 0.2690000D+00 0.2690000D+00 0.2690000D+00
EXPONENTS  0.2690000D+00 0.2690000D+00 0.8190000D+00 0.8190000D+00 0.8190000D+00
EXPONENTS  0.8190000D+00 0.8190000D+00 0.8190000D+00 0.1010000D+00 0.1010000D+00
EXPONENTS  0.1010000D+00 0.1010000D+00 0.1010000D+00 0.1010000D+00 0.5570000D+00
EXPONENTS  0.5570000D+00 0.5570000D+00 0.5570000D+00 0.5570000D+00 0.5570000D+00
EXPONENTS  0.5570000D+00 0.5570000D+00 0.5570000D+00 0.5570000D+00 0.2180000D+00
EXPONENTS  0.2180000D+00 0.2180000D+00 0.2180000D+00 0.2180000D+00 0.2180000D+00
EXPONENTS  0.2180000D+00 0.2180000D+00 0.2180000D+00 0.2180000D+00 0.3741000D+06
EXPONENTS  0.5605000D+05 0.1276000D+05 0.3615000D+04 0.1183000D+04 0.4288000D+03
EXPONENTS  0.1678000D+03 0.6947000D+02 0.2984000D+02 0.1272000D+02 0.5244000D+01
EXPONENTS  0.2219000D+01 0.3490000D+00 0.3741000D+06 0.5605000D+05 0.1276000D+05
EXPONENTS  0.3615000D+04 0.1183000D+04 0.4288000D+03 0.1678000D+03 0.6947000D+02
EXPONENTS  0.2984000D+02 0.1272000D+02 0.5244000D+01 0.2219000D+01 0.3490000D+00
EXPONENTS  0.3741000D+06 0.5605000D+05 0.1276000D+05 0.3615000D+04 0.1183000D+04
EXPONENTS  0.4288000D+03 0.1678000D+03 0.6947000D+02 0.2984000D+02 0.1272000D+02
EXPONENTS  0.5244000D+01 0.2219000D+01 0.3490000D+00 0.7767000D+00 0.1322000D+00
EXPONENTS  0.4970000D-01 0.5744000D+03 0.1358000D+03 0.4319000D+02 0.1587000D+02
EXPONENTS  0.6208000D+01 0.2483000D+01 0.3229000D+00 0.5744000D+03 0.1358000D+03
EXPONENTS  0.4319000D+02 0.1587000D+02 0.6208000D+01 0.2483000D+01 0.3229000D+00
EXPONENTS  0.5744000D+03 0.1358000D+03 0.4319000D+02 0.1587000D+02 0.6208000D+01
EXPONENTS  0.2483000D+01 0.3229000D+00 0.5744000D+03 0.1358000D+03 0.4319000D+02
EXPONENTS  0.1587000D+02 0.6208000D+01 0.2483000D+01 0.3229000D+00 0.5744000D+03
EXPONENTS  0.1358000D+03 0.4319000D+02 0.1587000D+02 0.6208000D+01 0.2483000D+01
EXPONENTS  0.3229000D+00 0.5744000D+03 0.1358000D+03 0.4319000D+02 0.1587000D+02
EXPONENTS  0.6208000D+01 0.2483000D+01 0.3229000D+00 0.8688000D+00 0.8688000D+00
EXPONENTS  0.8688000D+00 0.1098000D+00 0.1098000D+00 0.1098000D+00 0.3510000D-01
EXPONENTS  0.3510000D-01 0.3510000D-01 0.2690000D+00 0.2690000D+00 0.2690000D+00
EXPONENTS  0.2690000D+00 0.2690000D+00 0.2690000D+00 0.8190000D+00 0.8190000D+00
EXPONENTS  0.8190000D+00 0.8190000D+00 0.8190000D+00 0.8190000D+00 0.1010000D+00
EXPONENTS  0.1010000D+00 0.1010000D+00 0.1010000D+00 0.1010000D+00 0.1010000D+00
EXPONENTS  0.5570000D+00 0.5570000D+00 0.5570000D+00 0.5570000D+00 0.5570000D+00
EXPONENTS  0.5570000D+00 0.5570000D+00 0.5570000D+00 0.5570000D+00 0.5570000D+00
EXPONENTS  0.2180000D+00 0.2180000D+00 0.2180000D+00 0.2180000D+00 0.2180000D+00
EXPONENTS  0.2180000D+00 0.2180000D+00 0.2180000D+00 0.2180000D+00 0.2180000D+00
EXPONENTS  0.3741000D+06 0.5605000D+05 0.1276000D+05 0.3615000D+04 0.1183000D+04
EXPONENTS  0.4288000D+03 0.1678000D+03 0.6947000D+02 0.2984000D+02 0.1272000D+02
EXPONENTS  0.5244000D+01 0.2219000D+01 0.3490000D+00 0.3741000D+06 0.5605000D+05
EXPONENTS  0.1276000D+05 0.3615000D+04 0.1183000D+04 0.4288000D+03 0.1678000D+03
EXPONENTS  0.6947000D+02 0.2984000D+02 0.1272000D+02 0.5244000D+01 0.2219000D+01
EXPONENTS  0.3490000D+00 0.3741000D+06 0.5605000D+05 0.1276000D+05 0.3615000D+04
EXPONENTS  0.1183000D+04 0.4288000D+03 0.1678000D+03 0.6947000D+02 0.2984000D+02
EXPONENTS  0.1272000D+02 0.5244000D+01 0.2219000D+01 0.3490000D+00 0.7767000D+00
EXPONENTS  0.1322000D+00 0.4970000D-01 0.5744000D+03 0.1358000D+03 0.4319000D+02
EXPONENTS  0.1587000D+02 0.6208000D+01 0.2483000D+01 0.3229000D+00 0.5744000D+03
EXPONENTS  0.1358000D+03 0.4319000D+02 0.1587000D+02 0.6208000D+01 0.2483000D+01
EXPONENTS  0.3229000D+00 0.5744000D+03 0.1358000D+03 0.4319000D+02 0.1587000D+02
EXPONENTS  0.6208000D+01 0.2483000D+01 0.3229000D+00 0.5744000D+03 0.1358000D+03
EXPONENTS  0.4319000D+02 0.1587000D+02 0.6208000D+01 0.2483000D+01 0.3229000D+00
EXPONENTS  0.5744000D+03 0.1358000D+03 0.4319000D+02 0.1587000D+02 0.6208000D+01
EXPONENTS  0.2483000D+01 0.3229000D+00 0.5744000D+03 0.1358000D+03 0.4319000D+02
EXPONENTS  0.1587000D+02 0.6208000D+01 0.2483000D+01 0.3229000D+00 0.8688000D+00
EXPONENTS  0.8688000D+00 0.8688000D+00 0.1098000D+00 0.1098000D+00 0.1098000D+00
EXPONENTS  0.3510000D-01 0.3510000D-01 0.3510000D-01 0.2690000D+00 0.2690000D+00
EXPONENTS  0.2690000D+00 0.2690000D+00 0.2690000D+00 0.2690000D+00 0.8190000D+00
EXPONENTS  0.8190000D+00 0.8190000D+00 0.8190000D+00 0.8190000D+00 0.8190000D+00
EXPONENTS  0.1010000D+00 0.1010000D+00 0.1010000D+00 0.1010000D+00 0.1010000D+00
EXPONENTS  0.1010000D+00 0.5570000D+00 0.5570000D+00 0.5570000D+00 0.5570000D+00
EXPONENTS  0.5570000D+00 0.5570000D+00 0.5570000D+00 0.5570000D+00 0.5570000D+00
EXPONENTS  0.5570000D+00 0.2180000D+00 0.2180000D+00 0.2180000D+00 0.2180000D+00
EXPONENTS  0.2180000D+00 0.2180000D+00 0.2180000D+00 0.2180000D+00 0.2180000D+00
EXPONENTS  0.2180000D+00
MO    1     MO 0.0        OCC NO =    2.0000000  ORB. ENERGY =  -88.113673
 -0.18074329D-04 -0.33816796D-04 -0.58391620D-04 -0.94434165D-04 -0.14252918D-03
 -0.19526939D-03 -0.22565917D-03 -0.18963835D-03 -0.83297472D-04 -0.95207636D-05
  0.12831746D-06 -0.79809873D-07 -0.39258461D-08  0.38381940D-04  0.71789399D-04
  0.12429946D-03  0.20183327D-03  0.30996875D-03  0.44084671D-03  0.56090664D-03
  0.58129674D-03  0.38791326D-03 -0.38204510D-04 -0.29182020D-03 -0.14983773D-03
  0.65725738D-06 -0.24830550D-04 -0.46401371D-04 -0.80461623D-04 -0.13047713D-03
 -0.20111655D-03 -0.28617786D-03 -0.36851051D-03 -0.38739739D-03 -0.27157745D-03
  0.31532572D-04  0.25527621D-03  0.24024960D-03 -0.11715993D-03 -0.82128810D-04
 -0.63133521D-04 -0.48415116D-03  0.13405285D-02  0.17536671D-02  0.19185733D-02
  0.15803724D-02  0.84498907D-03  0.23347868D-03 -0.19137199D-06 -0.28655910D-02
 -0.37487399D-02 -0.41012528D-02 -0.33782952D-02 -0.18062973D-02 -0.49909748D-03
  0.40908779D-06 -0.86202171D-06 -0.11276889D-05 -0.12337312D-05 -0.10162524D-05
 -0.54336698D-06 -0.15013757D-06  0.12306102D-09 -0.12232983D-02 -0.16201438D-02
 -0.17898237D-02 -0.15329895D-02 -0.83630377D-03 -0.25705785D-03  0.11191399D-03
  0.25501835D-02  0.33774789D-02  0.37312068D-02  0.31957900D-02  0.17434244D-02
  0.53588295D-03 -0.23330467D-03  0.64783504D-06  0.85799675D-06  0.94785593D-06
  0.81184149D-06  0.44289026D-06  0.13613285D-06 -0.59267477D-07  0.22125622D-04
  0.70099761D-04  0.12064738D-06  0.28354180D-03  0.22261330D-03  0.31869782D-06
  0.20732395D-05  0.28369478D-04  0.13699686D-07 -0.10849363D-04  0.40077198D-04
 -0.29227834D-04 -0.13745874D-03  0.77828562D-07  0.13974150D-06 -0.44938811D-04
  0.85217975D-05  0.36417014D-04  0.95771005D-04 -0.21419743D-06 -0.16826435D-06
 -0.40239258D-04  0.29154483D-04  0.11084775D-04  0.19536530D-04 -0.42846097D-07
  0.33208041D-07 -0.15619775D-04 -0.11192322D-05  0.29815055D-07  0.12009156D-04
 -0.15134302D-04 -0.90447421D-07  0.34850170D-04  0.18491999D-04  0.10022561D-08
 -0.80926183D-08 -0.47019360D-04 -0.58452081D-05 -0.71078754D-08  0.13047916D-03
  0.48687180D-04 -0.72326507D-08  0.10578925D-04 -0.31151555D-04  0.28556277D-07
  0.64181984D-07  0.31660473D-04  0.59236267D-04  0.10228354D-03  0.16541861D-03
  0.24966578D-03  0.34204984D-03  0.39528307D-03  0.33218605D-03  0.14591067D-03
  0.16677349D-04 -0.22477136D-06  0.13980150D-06  0.68768332D-08 -0.65183904D-04
 -0.12191967D-03 -0.21109731D-03 -0.34277269D-03 -0.52641875D-03 -0.74868831D-03
 -0.95258563D-03 -0.98721407D-03 -0.65879162D-03  0.64882575D-04  0.49559715D-03
  0.25446886D-03 -0.11162177D-05  0.40867573D-04  0.76370094D-04  0.13242845D-03
  0.21474690D-03  0.33100939D-03  0.47100828D-03  0.60651618D-03  0.63760131D-03
  0.44697807D-03 -0.51898153D-04 -0.42014853D-03 -0.39541685D-03  0.19282868D-03
  0.96502422D-04  0.23124113D-03  0.52391562D-03 -0.37431592D-03 -0.48967666D-03
 -0.53572342D-03 -0.44128756D-03 -0.23594639D-03 -0.65194277D-04  0.53436820D-07
 -0.31426620D-02 -0.41112016D-02 -0.44977986D-02 -0.37049390D-02 -0.19809463D-02
 -0.54735469D-03  0.44864205D-06 -0.21110901D-06 -0.27617087D-06 -0.30214061D-06
 -0.24888009D-06 -0.13307050D-06 -0.36768671D-07  0.30137628D-10  0.36758634D-03
  0.48683363D-03  0.53782038D-03  0.46064480D-03  0.25129917D-03  0.77242776D-04
 -0.33628800D-04  0.28253827D-02  0.37419544D-02  0.41338544D-02  0.35406589D-02
  0.19315634D-02  0.59371195D-03 -0.25848139D-03  0.83292094D-07  0.11031257D-06
  0.12186575D-06  0.10437839D-06  0.56942361D-07  0.17502589D-07 -0.76200143D-08
 -0.48706591D-04  0.32217723D-04  0.10026987D-06 -0.46542545D-03  0.22486597D-04
  0.34272608D-06 -0.16434608D-04  0.23375377D-04  0.99753422D-08  0.31163060D-04
 -0.70641270D-04  0.39478210D-04 -0.65523105D-05  0.13966143D-06 -0.73154342D-07
  0.15160681D-04  0.40362786D-04 -0.55523467D-04  0.84497270D-04 -0.27941794D-06
  0.26942720D-07  0.17071749D-04 -0.50506503D-05 -0.12021099D-04  0.82729075D-04
 -0.31182097D-07 -0.59428386D-07  0.13590071D-04 -0.50030853D-05  0.31031429D-07
  0.40423120D-05  0.20193119D-04 -0.78941211D-07 -0.44812524D-04 -0.51838628D-05
 -0.14153076D-07 -0.84726385D-07 -0.88143327D-05 -0.44528067D-04 -0.30932011D-08
  0.20202045D-04  0.16612209D-03  0.12658854D-07  0.62409531D-05 -0.32537890D-04
 -0.33792504D-08 -0.12857129D-06 -0.27240725D-01 -0.50924952D-01 -0.88014217D-01
 -0.14235905D+00 -0.21516736D+00 -0.29632077D+00 -0.34633027D+00 -0.29925549D+00
 -0.13957382D+00 -0.18951110D-01 -0.50746404D-04 -0.99543466D-04 -0.45445750D-05
  0.79720487D-04  0.14888141D-03  0.25825783D-03  0.41875615D-03  0.64472276D-03
  0.91823003D-03  0.11807246D-02  0.12394095D-02  0.87635035D-03 -0.19407145D-04
 -0.62966905D-03 -0.34671287D-03  0.14662428D-05 -0.38175184D-04 -0.71240541D-04
 -0.12373629D-03 -0.20042534D-03 -0.30959849D-03 -0.44137917D-03 -0.57409012D-03
 -0.61182532D-03 -0.45377811D-03  0.14124428D-04  0.41109933D-03  0.40273546D-03
 -0.18810134D-03  0.13013420D-03 -0.23898500D-03 -0.74463678D-05  0.20601451D-02
  0.27027982D-02  0.29645577D-02  0.24392851D-02  0.12860393D-02  0.33456665D-03
 -0.37023211D-06 -0.11545474D-02 -0.15147033D-02 -0.16613986D-02 -0.13670251D-02
 -0.72072269D-03 -0.18749798D-03  0.20748563D-06  0.71097023D-06  0.93275422D-06
  0.10230892D-05  0.84181401D-06  0.44382100D-06  0.11546125D-06 -0.12776964D-09
 -0.18159741D-02 -0.23843851D-02 -0.26825940D-02 -0.22602883D-02 -0.12643736D-02
 -0.31470001D-03  0.14433659D-03  0.95341301D-03  0.12518371D-02  0.14084011D-02
  0.11866844D-02  0.66381464D-03  0.16522211D-03 -0.75778821D-04 -0.68534768D-06
 -0.89986568D-06 -0.10124096D-05 -0.85303160D-06 -0.47717392D-06 -0.11876762D-06
  0.54472552D-07 -0.75085917D-04  0.11294579D-03  0.23487159D-07  0.17469544D-03
 -0.12078758D-03  0.15216695D-07  0.79775264D-05 -0.10858105D-04 -0.89437185D-08
 -0.66368193D-04  0.91671326D-04 -0.25303133D-04  0.62946275D-04 -0.23700394D-07
  0.20703965D-06  0.39243978D-04 -0.78496784D-04  0.39252806D-04 -0.60333460D-04
 -0.13219583D-07 -0.26472322D-06 -0.21763274D-04  0.25076536D-04 -0.33132617D-05
  0.34141192D-05 -0.22345139D-07  0.41065807D-07  0.11677388D-04  0.48905580D-05
 -0.10844697D-07 -0.25105101D-04 -0.34331787D-05 -0.16664332D-08 -0.99270628D-05
 -0.11238495D-04  0.34200524D-07 -0.48529487D-07  0.24459221D-05 -0.84923377D-05
  0.18861929D-07 -0.19715954D-04  0.67258684D-05  0.14190144D-07  0.12378187D-04
  0.18751145D-04 -0.70775930D-07 -0.56188261D-07 -0.34498350D+00 -0.64492661D+00
 -0.11146345D+01 -0.18028713D+01 -0.27249345D+01 -0.37526819D+01 -0.43860151D+01
 -0.37898480D+01 -0.17675986D+01 -0.24000170D+00 -0.64266542D-03 -0.12606439D-02
 -0.57553659D-04  0.81914469D-03  0.15297876D-02  0.26536533D-02  0.43028070D-02
  0.66246613D-02  0.94350057D-02  0.12132193D-01  0.12735192D-01  0.90046832D-02
 -0.19941248D-03 -0.64699813D-02 -0.35625473D-02  0.15065952D-04 -0.36865206D-03
 -0.68795928D-03 -0.11949029D-02 -0.19354776D-02 -0.29897465D-02 -0.42623328D-02
 -0.55439027D-02 -0.59083059D-02 -0.43820676D-02  0.13639749D-03  0.39699250D-02
  0.38891563D-02 -0.18164666D-02  0.18633414D-02  0.91595532D-03  0.32396628D-03
 -0.51237303D-02 -0.67220551D-02 -0.73730699D-02 -0.60666787D-02 -0.31984730D-02
 -0.83209150D-03  0.92079408D-06  0.68338290D-03  0.89656116D-03  0.98339094D-03
  0.80914965D-03  0.42659970D-03  0.11098108D-03 -0.12281188D-06 -0.62570701D-05
 -0.82089352D-05 -0.90039507D-05 -0.74085933D-05 -0.39059569D-05 -0.10161454D-05
  0.11244685D-08  0.43625955D-02  0.57281145D-02  0.64445150D-02  0.54299912D-02
  0.30374609D-02  0.75601784D-03 -0.34674621D-03 -0.58802624D-03 -0.77208204D-03
 -0.86864435D-03 -0.73189854D-03 -0.40941378D-03 -0.10190226D-03  0.46737285D-04
  0.52904059D-05  0.69463352D-05  0.78150954D-05  0.65848088D-05  0.36834497D-05
  0.91680313D-06 -0.42049009D-06  0.15011149D-03 -0.10041249D-04  0.31353432D-06
  0.33495806D-03 -0.10632911D-03  0.14872700D-06  0.15432366D-04 -0.10921712D-04
  0.10485046D-07  0.42106705D-04  0.16829226D-04 -0.58935931D-04 -0.41742947D-04
 -0.18352323D-07  0.32554134D-08 -0.15062195D-03  0.24894837D-04  0.12572711D-03
  0.82478285D-04 -0.19620523D-06  0.18674894D-07  0.23667041D-04 -0.10954114D-04
 -0.12712926D-04 -0.26043779D-04  0.30276285D-07 -0.29215159D-07 -0.85789394D-05
 -0.42825080D-05  0.89986427D-08  0.22600506D-04  0.90010565D-05 -0.56880963D-08
  0.31363121D-05  0.38464675D-05 -0.21307832D-07  0.48348930D-07  0.77766294D-05
  0.23073988D-05 -0.15310989D-07  0.36040564D-05 -0.12531594D-04  0.26303084D-07
 -0.26933945D-04  0.56093977D-05  0.19629882D-07 -0.41579925D-07  0.47035582D+00
  0.87930287D+00  0.15197099D+01  0.24580626D+01  0.37152176D+01  0.51164643D+01
  0.59799606D+01  0.51671371D+01  0.24099711D+01  0.32722202D+00  0.87621994D-03
  0.17187813D-02  0.78469546D-04 -0.10882725D-02 -0.20323952D-02 -0.35255039D-02
 -0.57164827D-02 -0.88011759D-02 -0.12534851D-01 -0.16118192D-01 -0.16919305D-01
 -0.11963148D-01  0.26492891D-03  0.85956761D-02  0.47330126D-02 -0.20015830D-04
  0.48709264D-03  0.90898693D-03  0.15788015D-02  0.25573081D-02  0.39502926D-02
  0.56317357D-02  0.73250485D-02  0.78065272D-02  0.57899389D-02 -0.18021930D-03
 -0.52453830D-02 -0.51386649D-02  0.24000613D-02 -0.25183354D-02 -0.12693948D-02
 -0.41189308D-03  0.52241007D-02  0.68537356D-02  0.75175033D-02  0.61855208D-02
  0.32611289D-02  0.84839161D-03 -0.93883181D-06  0.36599664D-02  0.48016766D-02
  0.52667074D-02  0.43335303D-02  0.22847229D-02  0.59437691D-03 -0.65773864D-06
 -0.63522061D-05 -0.83337485D-05 -0.91408519D-05 -0.75212378D-05 -0.39653453D-05
 -0.10315954D-05  0.11415655D-08 -0.44098069D-02 -0.57901033D-02 -0.65142566D-02
 -0.54887537D-02 -0.30703319D-02 -0.76419935D-03  0.35049864D-03 -0.31054858D-02
 -0.40775217D-02 -0.45874869D-02 -0.38653045D-02 -0.21621972D-02 -0.53816647D-03
  0.24682908D-03  0.53557445D-05  0.70321251D-05  0.79116149D-05  0.66661337D-05
  0.37289417D-05  0.92812601D-06 -0.42568331D-06 -0.16120891D-03 -0.99325460D-04
  0.28862959D-06 -0.37604338D-03 -0.31715912D-03  0.27124290D-06 -0.12157673D-04
 -0.18751636D-04  0.14842623D-07 -0.40627698D-04 -0.38520687D-04  0.79148385D-04
 -0.66872101D-04  0.75754393D-07  0.34663405D-07  0.11632485D-03  0.51058869D-04