 Molden2AIM, Version 4.0.0 (06/02/2016)           Time: Thu Jun 28 23:50:47 2018
GAUSSIAN             50 MOL ORBITALS    786 PRIMITIVES        6 NUCLEI
  P    1    (CENTRE  1)  -0.00007370  0.00000000  0.00000000  CHARGE = 15.0
  Cl   2    (CENTRE  2)  -1.94390835  3.36688724  0.00000000  CHARGE = 17.0
  Cl   3    (CENTRE  3)  -1.94390835 -3.36688724  0.00000000  CHARGE = 17.0
  Cl   4    (CENTRE  4)   3.88767686  0.00000000  0.00000000  CHARGE = 17.0
  Cl   5    (CENTRE  5)   0.00010582  0.00000000  4.07371095  CHARGE = 17.0
  Cl   6    (CENTRE  6)   0.00010582  0.00000000 -4.07371095  CHARGE = 17.0
CENTRE ASSIGNMENTS    1  1  1  1  1  1  1  1  1  1  1  1  1  1  1  1  1  1  1  1
CENTRE ASSIGNMENTS    1  1  1  1  1  1  1  1  1  1  1  1  1  1  1  1  1  1  1  1
CENTRE ASSIGNMENTS    1  1  1  1  1  1  1  1  1  1  1  1  1  1  1  1  1  1  1  1
CENTRE ASSIGNMENTS    1  1  1  1  1  1  1  1  1  1  1  1  1  1  1  1  1  1  1  1
CENTRE ASSIGNMENTS    1  1  1  1  1  1  1  1  1  1  1  1  1  1  1  1  1  1  1  1
CENTRE ASSIGNMENTS    1  1  1  1  1  1  1  1  1  1  1  1  1  1  1  1  1  1  1  1
CENTRE ASSIGNMENTS    1  1  1  1  1  1  1  1  1  1  1  2  2  2  2  2  2  2  2  2
CENTRE ASSIGNMENTS    2  2  2  2  2  2  2  2  2  2  2  2  2  2  2  2  2  2  2  2
CENTRE ASSIGNMENTS    2  2  2  2  2  2  2  2  2  2  2  2  2  2  2  2  2  2  2  2
CENTRE ASSIGNMENTS    2  2  2  2  2  2  2  2  2  2  2  2  2  2  2  2  2  2  2  2
CENTRE ASSIGNMENTS    2  2  2  2  2  2  2  2  2  2  2  2  2  2  2  2  2  2  2  2
CENTRE ASSIGNMENTS    2  2  2  2  2  2  2  2  2  2  2  2  2  2  2  2  2  2  2  2
CENTRE ASSIGNMENTS    2  2  2  2  2  2  2  2  2  2  2  2  2  2  2  2  2  2  2  2
CENTRE ASSIGNMENTS    2  2  3  3  3  3  3  3  3  3  3  3  3  3  3  3  3  3  3  3
CENTRE ASSIGNMENTS    3  3  3  3  3  3  3  3  3  3  3  3  3  3  3  3  3  3  3  3
CENTRE ASSIGNMENTS    3  3  3  3  3  3  3  3  3  3  3  3  3  3  3  3  3  3  3  3
CENTRE ASSIGNMENTS    3  3  3  3  3  3  3  3  3  3  3  3  3  3  3  3  3  3  3  3
CENTRE ASSIGNMENTS    3  3  3  3  3  3  3  3  3  3  3  3  3  3  3  3  3  3  3  3
CENTRE ASSIGNMENTS    3  3  3  3  3  3  3  3  3  3  3  3  3  3  3  3  3  3  3  3
CENTRE ASSIGNMENTS    3  3  3  3  3  3  3  3  3  3  3  3  3  4  4  4  4  4  4  4
CENTRE ASSIGNMENTS    4  4  4  4  4  4  4  4  4  4  4  4  4  4  4  4  4  4  4  4
CENTRE ASSIGNMENTS    4  4  4  4  4  4  4  4  4  4  4  4  4  4  4  4  4  4  4  4
CENTRE ASSIGNMENTS    4  4  4  4  4  4  4  4  4  4  4  4  4  4  4  4  4  4  4  4
CENTRE ASSIGNMENTS    4  4  4  4  4  4  4  4  4  4  4  4  4  4  4  4  4  4  4  4
CENTRE ASSIGNMENTS    4  4  4  4  4  4  4  4  4  4  4  4  4  4  4  4  4  4  4  4
CENTRE ASSIGNMENTS    4  4  4  4  4  4  4  4  4  4  4  4  4  4  4  4  4  4  4  4
CENTRE ASSIGNMENTS    4  4  4  4  5  5  5  5  5  5  5  5  5  5  5  5  5  5  5  5
CENTRE ASSIGNMENTS    5  5  5  5  5  5  5  5  5  5  5  5  5  5  5  5  5  5  5  5
CENTRE ASSIGNMENTS    5  5  5  5  5  5  5  5  5  5  5  5  5  5  5  5  5  5  5  5
CENTRE ASSIGNMENTS    5  5  5  5  5  5  5  5  5  5  5  5  5  5  5  5  5  5  5  5
CENTRE ASSIGNMENTS    5  5  5  5  5  5  5  5  5  5  5  5  5  5  5  5  5  5  5  5
CENTRE ASSIGNMENTS    5  5  5  5  5  5  5  5  5  5  5  5  5  5  5  5  5  5  5  5
CENTRE ASSIGNMENTS    5  5  5  5  5  5  5  5  5  5  5  5  5  5  5  6  6  6  6  6
CENTRE ASSIGNMENTS    6  6  6  6  6  6  6  6  6  6  6  6  6  6  6  6  6  6  6  6
CENTRE ASSIGNMENTS    6  6  6  6  6  6  6  6  6  6  6  6  6  6  6  6  6  6  6  6
CENTRE ASSIGNMENTS    6  6  6  6  6  6  6  6  6  6  6  6  6  6  6  6  6  6  6  6
CENTRE ASSIGNMENTS    6  6  6  6  6  6  6  6  6  6  6  6  6  6  6  6  6  6  6  6
CENTRE ASSIGNMENTS    6  6  6  6  6  6  6  6  6  6  6  6  6  6  6  6  6  6  6  6
CENTRE ASSIGNMENTS    6  6  6  6  6  6  6  6  6  6  6  6  6  6  6  6  6  6  6  6
CENTRE ASSIGNMENTS    6  6  6  6  6  6
TYPE ASSIGNMENTS      1  1  1  1  1  1  1  1  1  1  1  1  1  1  1  1  1  1  1  1
TYPE ASSIGNMENTS      1  1  1  1  1  1  1  1  1  1  1  1  1  1  1  1  1  1  1  1
TYPE ASSIGNMENTS      1  1  2  2  2  2  2  2  2  3  3  3  3  3  3  3  4  4  4  4
TYPE ASSIGNMENTS      4  4  4  2  2  2  2  2  2  2  3  3  3  3  3  3  3  4  4  4
TYPE ASSIGNMENTS      4  4  4  4  2  3  4  2  3  4  2  3  4  5  6  7  8  9 10  5
TYPE ASSIGNMENTS      6  7  8  9 10  5  6  7  8  9 10 11 12 13 17 14 15 18 19 16
TYPE ASSIGNMENTS     20 11 12 13 17 14 15 18 19 16 20  1  1  1  1  1  1  1  1  1
TYPE ASSIGNMENTS      1  1  1  1  1  1  1  1  1  1  1  1  1  1  1  1  1  1  1  1
TYPE ASSIGNMENTS      1  1  1  1  1  1  1  1  1  1  1  1  1  2  2  2  2  2  2  2
TYPE ASSIGNMENTS      3  3  3  3  3  3  3  4  4  4  4  4  4  4  2  2  2  2  2  2
TYPE ASSIGNMENTS      2  3  3  3  3  3  3  3  4  4  4  4  4  4  4  2  3  4  2  3
TYPE ASSIGNMENTS      4  2  3  4  5  6  7  8  9 10  5  6  7  8  9 10  5  6  7  8
TYPE ASSIGNMENTS      9 10 11 12 13 17 14 15 18 19 16 20 11 12 13 17 14 15 18 19
TYPE ASSIGNMENTS     16 20  1  1  1  1  1  1  1  1  1  1  1  1  1  1  1  1  1  1
TYPE ASSIGNMENTS      1  1  1  1  1  1  1  1  1  1  1  1  1  1  1  1  1  1  1  1
TYPE ASSIGNMENTS      1  1  1  1  2  2  2  2  2  2  2  3  3  3  3  3  3  3  4  4
TYPE ASSIGNMENTS      4  4  4  4  4  2  2  2  2  2  2  2  3  3  3  3  3  3  3  4
TYPE ASSIGNMENTS      4  4  4  4  4  4  2  3  4  2  3  4  2  3  4  5  6  7  8  9
TYPE ASSIGNMENTS     10  5  6  7  8  9 10  5  6  7  8  9 10 11 12 13 17 14 15 18
TYPE ASSIGNMENTS     19 16 20 11 12 13 17 14 15 18 19 16 20  1  1  1  1  1  1  1
TYPE ASSIGNMENTS      1  1  1  1  1  1  1  1  1  1  1  1  1  1  1  1  1  1  1  1
TYPE ASSIGNMENTS      1  1  1  1  1  1  1  1  1  1  1  1  1  1  1  2  2  2  2  2
TYPE ASSIGNMENTS      2  2  3  3  3  3  3  3  3  4  4  4  4  4  4  4  2  2  2  2
TYPE ASSIGNMENTS      2  2  2  3  3  3  3  3  3  3  4  4  4  4  4  4  4  2  3  4
TYPE ASSIGNMENTS      2  3  4  2  3  4  5  6  7  8  9 10  5  6  7  8  9 10  5  6
TYPE ASSIGNMENTS      7  8  9 10 11 12 13 17 14 15 18 19 16 20 11 12 13 17 14 15
TYPE ASSIGNMENTS     18 19 16 20  1  1  1  1  1  1  1  1  1  1  1  1  1  1  1  1
TYPE ASSIGNMENTS      1  1  1  1  1  1  1  1  1  1  1  1  1  1  1  1  1  1  1  1
TYPE ASSIGNMENTS      1  1  1  1  1  1  2  2  2  2  2  2  2  3  3  3  3  3  3  3
TYPE ASSIGNMENTS      4  4  4  4  4  4  4  2  2  2  2  2  2  2  3  3  3  3  3  3
TYPE ASSIGNMENTS      3  4  4  4  4  4  4  4  2  3  4  2  3  4  2  3  4  5  6  7
TYPE ASSIGNMENTS      8  9 10  5  6  7  8  9 10  5  6  7  8  9 10 11 12 13 17 14
TYPE ASSIGNMENTS     15 18 19 16 20 11 12 13 17 14 15 18 19 16 20  1  1  1  1  1
TYPE ASSIGNMENTS      1  1  1  1  1  1  1  1  1  1  1  1  1  1  1  1  1  1  1  1
TYPE ASSIGNMENTS      1  1  1  1  1  1  1  1  1  1  1  1  1  1  1  1  1  2  2  2
TYPE ASSIGNMENTS      2  2  2  2  3  3  3  3  3  3  3  4  4  4  4  4  4  4  2  2
TYPE ASSIGNMENTS      2  2  2  2  2  3  3  3  3  3  3  3  4  4  4  4  4  4  4  2
TYPE ASSIGNMENTS      3  4  2  3  4  2  3  4  5  6  7  8  9 10  5  6  7  8  9 10
TYPE ASSIGNMENTS      5  6  7  8  9 10 11 12 13 17 14 15 18 19 16 20 11 12 13 17
TYPE ASSIGNMENTS     14 15 18 19 16 20
EXPONENTS  0.3124000D+06 0.4680000D+05 0.1065000D+05 0.3018000D+04 0.9868000D+03
EXPONENTS  0.3574000D+03 0.1396000D+03 0.5763000D+02 0.2460000D+02 0.1012000D+02
EXPONENTS  0.4283000D+01 0.1805000D+01 0.2782000D+00 0.3124000D+06 0.4680000D+05
EXPONENTS  0.1065000D+05 0.3018000D+04 0.9868000D+03 0.3574000D+03 0.1396000D+03
EXPONENTS  0.5763000D+02 0.2460000D+02 0.1012000D+02 0.4283000D+01 0.1805000D+01
EXPONENTS  0.2782000D+00 0.3124000D+06 0.4680000D+05 0.1065000D+05 0.3018000D+04
EXPONENTS  0.9868000D+03 0.3574000D+03 0.1396000D+03 0.5763000D+02 0.2460000D+02
EXPONENTS  0.1012000D+02 0.4283000D+01 0.1805000D+01 0.2782000D+00 0.6158000D+00
EXPONENTS  0.1055000D+00 0.4090000D-01 0.5049000D+03 0.1194000D+03 0.3796000D+02
EXPONENTS  0.1395000D+02 0.5457000D+01 0.2177000D+01 0.2877000D+00 0.5049000D+03
EXPONENTS  0.1194000D+03 0.3796000D+02 0.1395000D+02 0.5457000D+01 0.2177000D+01
EXPONENTS  0.2877000D+00 0.5049000D+03 0.1194000D+03 0.3796000D+02 0.1395000D+02
EXPONENTS  0.5457000D+01 0.2177000D+01 0.2877000D+00 0.5049000D+03 0.1194000D+03
EXPONENTS  0.3796000D+02 0.1395000D+02 0.5457000D+01 0.2177000D+01 0.2877000D+00
EXPONENTS  0.5049000D+03 0.1194000D+03 0.3796000D+02 0.1395000D+02 0.5457000D+01
EXPONENTS  0.2177000D+01 0.2877000D+00 0.5049000D+03 0.1194000D+03 0.3796000D+02
EXPONENTS  0.1395000D+02 0.5457000D+01 0.2177000D+01 0.2877000D+00 0.8010000D+00
EXPONENTS  0.8010000D+00 0.8010000D+00 0.9714000D-01 0.9714000D-01 0.9714000D-01
EXPONENTS  0.3070000D-01 0.3070000D-01 0.3070000D-01 0.2160000D+00 0.2160000D+00
EXPONENTS  0.2160000D+00 0.2160000D+00 0.2160000D+00 0.2160000D+00 0.6520000D+00
EXPONENTS  0.6520000D+00 0.6520000D+00 0.6520000D+00 0.6520000D+00 0.6520000D+00
EXPONENTS  0.7750000D-01 0.7750000D-01 0.7750000D-01 0.7750000D-01 0.7750000D-01
EXPONENTS  0.7750000D-01 0.4520000D+00 0.4520000D+00 0.4520000D+00 0.4520000D+00
EXPONENTS  0.4520000D+00 0.4520000D+00 0.4520000D+00 0.4520000D+00 0.4520000D+00
EXPONENTS  0.4520000D+00 0.1650000D+00 0.1650000D+00 0.1650000D+00 0.1650000D+00
EXPONENTS  0.1650000D+00 0.1650000D+00 0.1650000D+00 0.1650000D+00 0.1650000D+00
EXPONENTS  0.1650000D+00 0.4561000D+06 0.6833000D+05 0.1555000D+05 0.4405000D+04
EXPONENTS  0.1439000D+04 0.5204000D+03 0.2031000D+03 0.8396000D+02 0.3620000D+02
EXPONENTS  0.1583000D+02 0.6334000D+01 0.2694000D+01 0.4313000D+00 0.4561000D+06
EXPONENTS  0.6833000D+05 0.1555000D+05 0.4405000D+04 0.1439000D+04 0.5204000D+03
EXPONENTS  0.2031000D+03 0.8396000D+02 0.3620000D+02 0.1583000D+02 0.6334000D+01
EXPONENTS  0.2694000D+01 0.4313000D+00 0.4561000D+06 0.6833000D+05 0.1555000D+05
EXPONENTS  0.4405000D+04 0.1439000D+04 0.5204000D+03 0.2031000D+03 0.8396000D+02
EXPONENTS  0.3620000D+02 0.1583000D+02 0.6334000D+01 0.2694000D+01 0.4313000D+00
EXPONENTS  0.9768000D+00 0.1625000D+00 0.5910000D-01 0.6633000D+03 0.1568000D+03
EXPONENTS  0.4998000D+02 0.1842000D+02 0.7240000D+01 0.2922000D+01 0.3818000D+00
EXPONENTS  0.6633000D+03 0.1568000D+03 0.4998000D+02 0.1842000D+02 0.7240000D+01
EXPONENTS  0.2922000D+01 0.3818000D+00 0.6633000D+03 0.1568000D+03 0.4998000D+02
EXPONENTS  0.1842000D+02 0.7240000D+01 0.2922000D+01 0.3818000D+00 0.6633000D+03
EXPONENTS  0.1568000D+03 0.4998000D+02 0.1842000D+02 0.7240000D+01 0.2922000D+01
EXPONENTS  0.3818000D+00 0.6633000D+03 0.1568000D+03 0.4998000D+02 0.1842000D+02
EXPONENTS  0.7240000D+01 0.2922000D+01 0.3818000D+00 0.6633000D+03 0.1568000D+03
EXPONENTS  0.4998000D+02 0.1842000D+02 0.7240000D+01 0.2922000D+01 0.3818000D+00
EXPONENTS  0.1022000D+01 0.1022000D+01 0.1022000D+01 0.1301000D+00 0.1301000D+00
EXPONENTS  0.1301000D+00 0.4190000D-01 0.4190000D-01 0.4190000D-01 0.1046000D+01
EXPONENTS  0.1046000D+01 0.1046000D+01 0.1046000D+01 0.1046000D+01 0.1046000D+01
EXPONENTS  0.3440000D+00 0.3440000D+00 0.3440000D+00 0.3440000D+00 0.3440000D+00
EXPONENTS  0.3440000D+00 0.1350000D+00 0.1350000D+00 0.1350000D+00 0.1350000D+00
EXPONENTS  0.1350000D+00 0.1350000D+00 0.7060000D+00 0.7060000D+00 0.7060000D+00
EXPONENTS  0.7060000D+00 0.7060000D+00 0.7060000D+00 0.7060000D+00 0.7060000D+00
EXPONENTS  0.7060000D+00 0.7060000D+00 0.3120000D+00 0.3120000D+00 0.3120000D+00
EXPONENTS  0.3120000D+00 0.3120000D+00 0.3120000D+00 0.3120000D+00 0.3120000D+00
EXPONENTS  0.3120000D+00 0.3120000D+00 0.4561000D+06 0.6833000D+05 0.1555000D+05
EXPONENTS  0.4405000D+04 0.1439000D+04 0.5204000D+03 0.2031000D+03 0.8396000D+02
EXPONENTS  0.3620000D+02 0.1583000D+02 0.6334000D+01 0.2694000D+01 0.4313000D+00
EXPONENTS  0.4561000D+06 0.6833000D+05 0.1555000D+05 0.4405000D+04 0.1439000D+04
EXPONENTS  0.5204000D+03 0.2031000D+03 0.8396000D+02 0.3620000D+02 0.1583000D+02
EXPONENTS  0.6334000D+01 0.2694000D+01 0.4313000D+00 0.4561000D+06 0.6833000D+05
EXPONENTS  0.1555000D+05 0.4405000D+04 0.1439000D+04 0.5204000D+03 0.2031000D+03
EXPONENTS  0.8396000D+02 0.3620000D+02 0.1583000D+02 0.6334000D+01 0.2694000D+01
EXPONENTS  0.4313000D+00 0.9768000D+00 0.1625000D+00 0.5910000D-01 0.6633000D+03
EXPONENTS  0.1568000D+03 0.4998000D+02 0.1842000D+02 0.7240000D+01 0.2922000D+01
EXPONENTS  0.3818000D+00 0.6633000D+03 0.1568000D+03 0.4998000D+02 0.1842000D+02
EXPONENTS  0.7240000D+01 0.2922000D+01 0.3818000D+00 0.6633000D+03 0.1568000D+03
EXPONENTS  0.4998000D+02 0.1842000D+02 0.7240000D+01 0.2922000D+01 0.3818000D+00
EXPONENTS  0.6633000D+03 0.1568000D+03 0.4998000D+02 0.1842000D+02 0.7240000D+01
EXPONENTS  0.2922000D+01 0.3818000D+00 0.6633000D+03 0.1568000D+03 0.4998000D+02
EXPONENTS  0.1842000D+02 0.7240000D+01 0.2922000D+01 0.3818000D+00 0.6633000D+03
EXPONENTS  0.1568000D+03 0.4998000D+02 0.1842000D+02 0.7240000D+01 0.2922000D+01
EXPONENTS  0.3818000D+00 0.1022000D+01 0.1022000D+01 0.1022000D+01 0.1301000D+00
EXPONENTS  0.1301000D+00 0.1301000D+00 0.4190000D-01 0.4190000D-01 0.4190000D-01
EXPONENTS  0.1046000D+01 0.1046000D+01 0.1046000D+01 0.1046000D+01 0.1046000D+01
EXPONENTS  0.1046000D+01 0.3440000D+00 0.3440000D+00 0.3440000D+00 0.3440000D+00
EXPONENTS  0.3440000D+00 0.3440000D+00 0.1350000D+00 0.1350000D+00 0.1350000D+00
EXPONENTS  0.1350000D+00 0.1350000D+00 0.1350000D+00 0.7060000D+00 0.7060000D+00
EXPONENTS  0.7060000D+00 0.7060000D+00 0.7060000D+00 0.7060000D+00 0.7060000D+00
EXPONENTS  0.7060000D+00 0.7060000D+00 0.7060000D+00 0.3120000D+00 0.3120000D+00
EXPONENTS  0.3120000D+00 0.3120000D+00 0.3120000D+00 0.3120000D+00 0.3120000D+00
EXPONENTS  0.3120000D+00 0.3120000D+00 0.3120000D+00 0.4561000D+06 0.6833000D+05
EXPONENTS  0.1555000D+05 0.4405000D+04 0.1439000D+04 0.5204000D+03 0.2031000D+03
EXPONENTS  0.8396000D+02 0.3620000D+02 0.1583000D+02 0.6334000D+01 0.2694000D+01
EXPONENTS  0.4313000D+00 0.4561000D+06 0.6833000D+05 0.1555000D+05 0.4405000D+04
EXPONENTS  0.1439000D+04 0.5204000D+03 0.2031000D+03 0.8396000D+02 0.3620000D+02
EXPONENTS  0.1583000D+02 0.6334000D+01 0.2694000D+01 0.4313000D+00 0.4561000D+06
EXPONENTS  0.6833000D+05 0.1555000D+05 0.4405000D+04 0.1439000D+04 0.5204000D+03
EXPONENTS  0.2031000D+03 0.8396000D+02 0.3620000D+02 0.1583000D+02 0.6334000D+01
EXPONENTS  0.2694000D+01 0.4313000D+00 0.9768000D+00 0.1625000D+00 0.5910000D-01
EXPONENTS  0.6633000D+03 0.1568000D+03 0.4998000D+02 0.1842000D+02 0.7240000D+01
EXPONENTS  0.2922000D+01 0.3818000D+00 0.6633000D+03 0.1568000D+03 0.4998000D+02
EXPONENTS  0.1842000D+02 0.7240000D+01 0.2922000D+01 0.3818000D+00 0.6633000D+03
EXPONENTS  0.1568000D+03 0.4998000D+02 0.1842000D+02 0.7240000D+01 0.2922000D+01
EXPONENTS  0.3818000D+00 0.6633000D+03 0.1568000D+03 0.4998000D+02 0.1842000D+02
EXPONENTS  0.7240000D+01 0.2922000D+01 0.3818000D+00 0.6633000D+03 0.1568000D+03
EXPONENTS  0.4998000D+02 0.1842000D+02 0.7240000D+01 0.2922000D+01 0.3818000D+00
EXPONENTS  0.6633000D+03 0.1568000D+03 0.4998000D+02 0.1842000D+02 0.7240000D+01
EXPONENTS  0.2922000D+01 0.3818000D+00 0.1022000D+01 0.1022000D+01 0.1022000D+01
EXPONENTS  0.1301000D+00 0.1301000D+00 0.1301000D+00 0.4190000D-01 0.4190000D-01
EXPONENTS  0.4190000D-01 0.1046000D+01 0.1046000D+01 0.1046000D+01 0.1046000D+01
EXPONENTS  0.1046000D+01 0.1046000D+01 0.3440000D+00 0.3440000D+00 0.3440000D+00
EXPONENTS  0.3440000D+00 0.3440000D+00 0.3440000D+00 0.1350000D+00 0.1350000D+00
EXPONENTS  0.1350000D+00 0.1350000D+00 0.1350000D+00 0.1350000D+00 0.7060000D+00
EXPONENTS  0.7060000D+00 0.7060000D+00 0.7060000D+00 0.7060000D+00 0.7060000D+00
EXPONENTS  0.7060000D+00 0.7060000D+00 0.7060000D+00 0.7060000D+00 0.3120000D+00
EXPONENTS  0.3120000D+00 0.3120000D+00 0.3120000D+00 0.3120000D+00 0.3120000D+00
EXPONENTS  0.3120000D+00 0.3120000D+00 0.3120000D+00 0.3120000D+00 0.4561000D+06
EXPONENTS  0.6833000D+05 0.1555000D+05 0.4405000D+04 0.1439000D+04 0.5204000D+03
EXPONENTS  0.2031000D+03 0.8396000D+02 0.3620000D+02 0.1583000D+02 0.6334000D+01
EXPONENTS  0.2694000D+01 0.4313000D+00 0.4561000D+06 0.6833000D+05 0.1555000D+05
EXPONENTS  0.4405000D+04 0.1439000D+04 0.5204000D+03 0.2031000D+03 0.8396000D+02
EXPONENTS  0.3620000D+02 0.1583000D+02 0.6334000D+01 0.2694000D+01 0.4313000D+00
EXPONENTS  0.4561000D+06 0.6833000D+05 0.1555000D+05 0.4405000D+04 0.1439000D+04
EXPONENTS  0.5204000D+03 0.2031000D+03 0.8396000D+02 0.3620000D+02 0.1583000D+02
EXPONENTS  0.6334000D+01 0.2694000D+01 0.4313000D+00 0.9768000D+00 0.1625000D+00
EXPONENTS  0.5910000D-01 0.6633000D+03 0.1568000D+03 0.4998000D+02 0.1842000D+02
EXPONENTS  0.7240000D+01 0.2922000D+01 0.3818000D+00 0.6633000D+03 0.1568000D+03
EXPONENTS  0.4998000D+02 0.1842000D+02 0.7240000D+01 0.2922000D+01 0.3818000D+00
EXPONENTS  0.6633000D+03 0.1568000D+03 0.4998000D+02 0.1842000D+02 0.7240000D+01
EXPONENTS  0.2922000D+01 0.3818000D+00 0.6633000D+03 0.1568000D+03 0.4998000D+02
EXPONENTS  0.1842000D+02 0.7240000D+01 0.2922000D+01 0.3818000D+00 0.6633000D+03
EXPONENTS  0.1568000D+03 0.4998000D+02 0.1842000D+02 0.7240000D+01 0.2922000D+01
EXPONENTS  0.3818000D+00 0.6633000D+03 0.1568000D+03 0.4998000D+02 0.1842000D+02
EXPONENTS  0.7240000D+01 0.2922000D+01 0.3818000D+00 0.1022000D+01 0.1022000D+01
EXPONENTS  0.1022000D+01 0.1301000D+00 0.1301000D+00 0.1301000D+00 0.4190000D-01
EXPONENTS  0.4190000D-01 0.4190000D-01 0.1046000D+01 0.1046000D+01 0.1046000D+01
EXPONENTS  0.1046000D+01 0.1046000D+01 0.1046000D+01 0.3440000D+00 0.3440000D+00
EXPONENTS  0.3440000D+00 0.3440000D+00 0.3440000D+00 0.3440000D+00 0.1350000D+00
EXPONENTS  0.1350000D+00 0.1350000D+00 0.1350000D+00 0.1350000D+00 0.1350000D+00
EXPONENTS  0.7060000D+00 0.7060000D+00 0.7060000D+00 0.7060000D+00 0.7060000D+00
EXPONENTS  0.7060000D+00 0.7060000D+00 0.7060000D+00 0.7060000D+00 0.7060000D+00
EXPONENTS  0.3120000D+00 0.3120000D+00 0.3120000D+00 0.3120000D+00 0.3120000D+00
EXPONENTS  0.3120000D+00 0.3120000D+00 0.3120000D+00 0.3120000D+00 0.3120000D+00
EXPONENTS  0.4561000D+06 0.6833000D+05 0.1555000D+05 0.4405000D+04 0.1439000D+04
EXPONENTS  0.5204000D+03 0.2031000D+03 0.8396000D+02 0.3620000D+02 0.1583000D+02
EXPONENTS  0.6334000D+01 0.2694000D+01 0.4313000D+00 0.4561000D+06 0.6833000D+05
EXPONENTS  0.1555000D+05 0.4405000D+04 0.1439000D+04 0.5204000D+03 0.2031000D+03
EXPONENTS  0.8396000D+02 0.3620000D+02 0.1583000D+02 0.6334000D+01 0.2694000D+01
EXPONENTS  0.4313000D+00 0.4561000D+06 0.6833000D+05 0.1555000D+05 0.4405000D+04
EXPONENTS  0.1439000D+04 0.5204000D+03 0.2031000D+03 0.8396000D+02 0.3620000D+02
EXPONENTS  0.1583000D+02 0.6334000D+01 0.2694000D+01 0.4313000D+00 0.9768000D+00
EXPONENTS  0.1625000D+00 0.5910000D-01 0.6633000D+03 0.1568000D+03 0.4998000D+02
EXPONENTS  0.1842000D+02 0.7240000D+01 0.2922000D+01 0.3818000D+00 0.6633000D+03
EXPONENTS  0.1568000D+03 0.4998000D+02 0.1842000D+02 0.7240000D+01 0.2922000D+01
EXPONENTS  0.3818000D+00 0.6633000D+03 0.1568000D+03 0.4998000D+02 0.1842000D+02
EXPONENTS  0.7240000D+01 0.2922000D+01 0.3818000D+00 0.6633000D+03 0.1568000D+03
EXPONENTS  0.4998000D+02 0.1842000D+02 0.7240000D+01 0.2922000D+01 0.3818000D+00
EXPONENTS  0.6633000D+03 0.1568000D+03 0.4998000D+02 0.1842000D+02 0.7240000D+01
EXPONENTS  0.2922000D+01 0.3818000D+00 0.6633000D+03 0.1568000D+03 0.4998000D+02
EXPONENTS  0.1842000D+02 0.7240000D+01 0.2922000D+01 0.3818000D+00 0.1022000D+01
EXPONENTS  0.1022000D+01 0.1022000D+01 0.1301000D+00 0.1301000D+00 0.1301000D+00
EXPONENTS  0.4190000D-01 0.4190000D-01 0.4190000D-01 0.1046000D+01 0.1046000D+01
EXPONENTS  0.1046000D+01 0.1046000D+01 0.1046000D+01 0.1046000D+01 0.3440000D+00
EXPONENTS  0.3440000D+00 0.3440000D+00 0.3440000D+00 0.3440000D+00 0.3440000D+00
EXPONENTS  0.1350000D+00 0.1350000D+00 0.1350000D+00 0.1350000D+00 0.1350000D+00
EXPONENTS  0.1350000D+00 0.7060000D+00 0.7060000D+00 0.7060000D+00 0.7060000D+00
EXPONENTS  0.7060000D+00 0.7060000D+00 0.7060000D+00 0.7060000D+00 0.7060000D+00
EXPONENTS  0.7060000D+00 0.3120000D+00 0.3120000D+00 0.3120000D+00 0.3120000D+00
EXPONENTS  0.3120000D+00 0.3120000D+00 0.3120000D+00 0.3120000D+00 0.3120000D+00
EXPONENTS  0.3120000D+00
MO    1     MO 0.0        OCC NO =    2.0000000  ORB. ENERGY = -100.748251
 -0.55568430D-04 -0.10396769D-03 -0.17952150D-03 -0.29033213D-03 -0.43819735D-03
 -0.60034393D-03 -0.69377548D-03 -0.58303163D-03 -0.25609304D-03 -0.29271012D-04
  0.39450426D-06 -0.24537063D-06 -0.12069776D-07  0.11086163D-03  0.20735507D-03
  0.35902411D-03  0.58297122D-03  0.89530757D-03  0.12733329D-02  0.16201116D-02
  0.16790060D-02  0.11204409D-02 -0.11034915D-03 -0.84288768D-03 -0.43278833D-03
  0.18984092D-05 -0.66304420D-04 -0.12390447D-03 -0.21485474D-03 -0.34840994D-03
 -0.53703668D-03 -0.76417385D-03 -0.98402476D-03 -0.10344579D-02 -0.72518672D-03
  0.84200668D-04  0.68165791D-03  0.64153272D-03 -0.31284935D-03 -0.27766124D-03
  0.21697678D-02  0.28598706D-03 -0.19838395D-02 -0.25952407D-02 -0.28392842D-02
 -0.23387829D-02 -0.12504939D-02 -0.34552359D-03  0.28321017D-06  0.30819149D-10
  0.40317329D-10  0.44108571D-10  0.36333232D-10  0.19426550D-10  0.53677443D-11
 -0.43996989D-14  0.97481838D-15  0.12752485D-14  0.13951665D-14  0.11492304D-14
  0.61446726D-15  0.16978327D-15 -0.13916372D-18  0.17182267D-02  0.22756301D-02
  0.25139600D-02  0.21532144D-02  0.11746599D-02  0.36105967D-03 -0.15719274D-03
 -0.26692276D-10 -0.35351417D-10 -0.39053819D-10 -0.33449715D-10 -0.18248086D-10
 -0.56089830D-11  0.24419548D-11 -0.11791577D-14 -0.15616838D-14 -0.17252411D-14
 -0.14776742D-14 -0.80612721D-15 -0.24778237D-15  0.10787577D-15  0.11486495D-03
 -0.17868683D-11 -0.14802044D-16 -0.39141605D-03  0.61192362D-11 -0.37258952D-15
 -0.87086894D-05  0.13939219D-12 -0.35177416D-18 -0.85774872D-05  0.10659914D-03
 -0.98021654D-04 -0.17937589D-11 -0.54807626D-17 -0.80777126D-17  0.25416698D-04
  0.32243637D-04 -0.57660335D-04 -0.10335013D-12  0.67025998D-17  0.10557333D-16
  0.21857725D-05  0.25241686D-04 -0.27427459D-04 -0.35880056D-12 -0.40869284D-17
 -0.54312319D-17  0.31021251D-04  0.15841933D-12  0.11482996D-16 -0.13380101D-03
  0.15856399D-12 -0.14644247D-16  0.40737254D-04 -0.63382199D-12 -0.19804741D-16
 -0.35448545D-17  0.12852136D-05 -0.25361837D-13 -0.23306575D-16  0.30605029D-05
 -0.30147839D-13  0.33886865D-16 -0.69161436D-05  0.10623335D-12  0.36032861D-16
  0.22819409D-17  0.43394840D+00  0.81191912D+00  0.14028164D+01  0.22741290D+01
  0.34534462D+01  0.47998842D+01  0.57063698D+01  0.50827953D+01  0.25232518D+01
  0.40653629D+00  0.62414150D-02  0.11153347D-02  0.41678318D-04 -0.86372685D-03
 -0.16133177D-02 -0.27999912D-02 -0.45432478D-02 -0.70324080D-02 -0.10066253D-01
 -0.13139605D-01 -0.14002441D-01 -0.10467109D-01 -0.55254010D-03  0.70998660D-02
  0.42181361D-02 -0.15814848D-04  0.37386741D-03  0.69776964D-03  0.12126622D-02
  0.19653687D-02  0.30525253D-02  0.43728306D-02  0.57739154D-02  0.62433153D-02
  0.48948401D-02  0.24356562D-03 -0.41961155D-02 -0.43437575D-02  0.19656117D-02
 -0.22734148D-02 -0.12199589D-02 -0.40879131D-03  0.84203786D-03  0.11091528D-02
  0.12236554D-02  0.10163865D-02  0.53982755D-03  0.13923727D-03 -0.14313118D-06
 -0.24014485D-02 -0.31632466D-02 -0.34898021D-02 -0.28986818D-02 -0.15395603D-02
 -0.39709751D-03  0.40820274D-06 -0.32070069D-15 -0.42243478D-15 -0.46604452D-15
 -0.38710355D-15 -0.20560010D-15 -0.53030263D-16  0.54513307D-19 -0.65620363D-03
 -0.86154727D-03 -0.98093495D-03 -0.83061542D-03 -0.47580849D-03 -0.10822992D-03
  0.50657561D-04  0.19663158D-02  0.25816285D-02  0.29393740D-02  0.24889412D-02
  0.14257613D-02  0.32431124D-03 -0.15179551D-03  0.28993692D-15  0.38066593D-15
  0.43341616D-15  0.36699900D-15  0.21023116D-15  0.47820295D-16 -0.22382530D-16
  0.38457416D-05  0.45689952D-04  0.15968270D-16 -0.26532849D-03  0.53943176D-03
  0.13693005D-16 -0.84320251D-05  0.16902469D-04 -0.30410512D-17 -0.28583219D-04
  0.14746374D-03 -0.11888052D-03 -0.27590438D-03  0.26805453D-17  0.79969444D-18
  0.10642949D-04 -0.74403932D-04  0.63760983D-04  0.15849306D-03 -0.66061260D-17
  0.89172615D-17  0.15852862D-04 -0.58598063D-04  0.42745201D-04  0.85220847D-04
  0.16319769D-17 -0.24885713D-17 -0.13447137D-04 -0.34157945D-04  0.87115223D-18
  0.70607770D-04  0.19832714D-04 -0.13432223D-17 -0.30266359D-04  0.82641120D-04
 -0.12702344D-17 -0.74385340D-17  0.15098942D-04  0.21470089D-04  0.99582501D-18
 -0.77915421D-04  0.18520478D-05 -0.18017889D-17  0.32618594D-04 -0.66262314D-04
 -0.11856861D-17  0.25498033D-17  0.43394839D+00  0.81191911D+00  0.14028164D+01
  0.22741289D+01  0.34534462D+01  0.47998841D+01  0.57063697D+01  0.50827952D+01
  0.25232518D+01  0.40653629D+00  0.62414149D-02  0.11153347D-02  0.41678318D-04
 -0.86372684D-03 -0.16133177D-02 -0.27999911D-02 -0.45432477D-02 -0.70324079D-02
 -0.10066253D-01 -0.13139604D-01 -0.14002441D-01 -0.10467109D-01 -0.55254009D-03
  0.70998659D-02  0.42181360D-02 -0.15814848D-04  0.37386740D-03  0.69776963D-03
  0.12126622D-02  0.19653687D-02  0.30525253D-02  0.43728306D-02  0.57739153D-02
  0.62433152D-02  0.48948400D-02  0.24356562D-03 -0.41961155D-02 -0.43437574D-02
  0.19656117D-02 -0.22734147D-02 -0.12199588D-02 -0.40879131D-03  0.84203784D-03
  0.11091528D-02  0.12236554D-02  0.10163865D-02  0.53982753D-03  0.13923727D-03
 -0.14313118D-06  0.24014485D-02  0.31632466D-02  0.34898021D-02  0.28986817D-02
  0.15395603D-02  0.39709751D-03 -0.40820274D-06 -0.52653804D-15 -0.69356877D-15
 -0.76516883D-15 -0.63556067D-15 -0.33756171D-15 -0.87067012D-16  0.89501928D-19
 -0.65620362D-03 -0.86154725D-03 -0.98093492D-03 -0.83061540D-03 -0.47580848D-03
 -0.10822992D-03  0.50657560D-04 -0.19663158D-02 -0.25816285D-02 -0.29393740D-02
 -0.24889412D-02 -0.14257613D-02 -0.32431124D-03  0.15179551D-03  0.44892970D-15
  0.58941179D-15  0.67108869D-15  0.56825034D-15  0.32551567D-15  0.74043522D-16
 -0.34656443D-16  0.38457420D-05 -0.45689952D-04  0.29213610D-16 -0.26532848D-03
 -0.53943176D-03  0.10953905D-16 -0.84320250D-05 -0.16902469D-04 -0.17116678D-17
 -0.28583218D-04  0.14746374D-03 -0.11888052D-03  0.27590437D-03  0.24715845D-17
  0.82467614D-17  0.10642948D-04 -0.74403931D-04  0.63760983D-04 -0.15849306D-03
 -0.95744197D-17 -0.18464836D-16  0.15852862D-04 -0.58598063D-04  0.42745201D-04
 -0.85220846D-04  0.25467493D-17  0.58526027D-17 -0.13447137D-04  0.34157945D-04
 -0.18978566D-17  0.70607769D-04 -0.19832714D-04  0.94975639D-17 -0.30266359D-04
 -0.82641120D-04 -0.38039941D-17 -0.17492017D-16  0.15098942D-04 -0.21470089D-04
  0.24277942D-17 -0.77915420D-04 -0.18520474D-05 -0.57330751D-17  0.32618594D-04
  0.66262314D-04 -0.15503076D-17  0.46964318D-17  0.67392906D-01  0.12609239D+00
  0.21785971D+00  0.35317600D+00  0.53632593D+00  0.74542997D+00  0.88620870D+00
  0.78936655D+00  0.39186519D+00  0.63135760D-01  0.96930210D-03  0.17321333D-03
  0.64727120D-05 -0.16159421D-03 -0.30183477D-03 -0.52384889D-03 -0.84999386D-03
 -0.13156895D-02 -0.18832900D-02 -0.24582818D-02 -0.26197094D-02 -0.19582860D-02
 -0.10337444D-03  0.13283102D-02  0.78916888D-03 -0.29587917D-05  0.72446906D-04
  0.13521171D-03  0.23498606D-03  0.38084327D-03  0.59150922D-03  0.84735403D-03
  0.11188520D-02  0.12098109D-02  0.94850746D-03  0.47197417D-04 -0.81311071D-03
 -0.84172032D-03  0.38089035D-03 -0.39001473D-03 -0.14961047D-03 -0.13324184D-03
 -0.12475328D-02 -0.16432807D-02 -0.18129236D-02 -0.15058414D-02 -0.79978897D-03
 -0.20628891D-03  0.21205798D-06  0.85878618D-11  0.11312141D-10  0.12479942D-10
  0.10366026D-10  0.55056484D-11  0.14200673D-11 -0.14597809D-14 -0.19225345D-15
 -0.25324094D-15 -0.27938408D-15 -0.23206060D-15 -0.12325302D-15 -0.31790549D-16
  0.32679604D-19  0.10853202D-02  0.14249459D-02  0.16224057D-02  0.13737865D-02
  0.78695781D-03  0.17900560D-03 -0.83784472D-04 -0.75537295D-11 -0.99174931D-11
 -0.11291796D-10 -0.95614287D-11 -0.54771545D-11 -0.12458626D-11  0.58313227D-12
  0.17015084D-15  0.22339558D-15  0.25435230D-15  0.21537508D-15  0.12337514D-15
  0.28063564D-16 -0.13135292D-16  0.41543641D-04 -0.47844724D-12  0.85809878D-17
  0.16983757D-03 -0.72096432D-12  0.76794727D-17  0.95483434D-05 -0.22219564D-13
 -0.60207953D-17  0.69414711D-04 -0.88025147D-05 -0.60612197D-04 -0.25430525D-12
  0.50888090D-17  0.49856619D-17 -0.32319954D-04  0.52615313D-05  0.27058422D-04
 -0.10597496D-12  0.52068190D-17 -0.23766017D-17 -0.31067897D-04  0.10456398D-04
  0.20611499D-04  0.39529460D-12  0.26884606D-17  0.92593437D-18 -0.22472134D-04
 -0.17503184D-12  0.10399403D-17 -0.52543640D-05  0.79927475D-12  0.92153398D-17
  0.72670767D-04 -0.27417922D-12 -0.12335161D-16 -0.52251045D-18  0.15638737D-04
  0.66128244D-13  0.96083714D-18 -0.22323882D-05 -0.28704978D-12 -0.55520859D-17
 -0.44683822D-04  0.88665043D-13  0.26695745D-17  0.41660025D-18 -0.16273408D-04
 -0.30447609D-04 -0.52606724D-04 -0.85281635D-04 -0.12950697D-03 -0.17999945D-03
 -0.21399338D-03 -0.19060885D-03 -0.94623938D-04 -0.15245433D-04 -0.23405800D-06
 -0.41825934D-07 -0.15629699D-08  0.86917185D-05  0.16234882D-04  0.28176425D-04
  0.45718888D-04  0.70767409D-04  0.10129712D-03  0.13222438D-03  0.14090714D-03
  0.10533095D-03  0.55602336D-05 -0.71446241D-04 -0.42447276D-04  0.15914546D-06
 -0.37789181D-05 -0.70528062D-05 -0.12257156D-04 -0.19865245D-04 -0.30853835D-04
 -0.44199009D-04 -0.58360673D-04 -0.63105199D-04 -0.49475294D-04 -0.24618743D-05
  0.42412836D-04  0.43905148D-04 -0.19867701D-04  0.35848482D-04 -0.58045869D-04
  0.13840346D-04  0.27861977D-03  0.36700477D-03  0.40489224D-03  0.33630955D-03
  0.17862217D-03  0.46071868D-04 -0.47360314D-07 -0.43514522D-11 -0.57318391D-11
 -0.63235613D-11 -0.52524445D-11 -0.27897009D-11 -0.71954524D-12  0.73966804D-15
  0.77818607D-03  0.10250457D-02  0.11308655D-02  0.93931382D-03  0.49889239D-03
  0.12867890D-03 -0.13227753D-06 -0.23972494D-03 -0.31474127D-03 -0.35835610D-03
 -0.30344122D-03 -0.17382282D-03 -0.39538660D-04  0.18506269D-04  0.37431187D-11
  0.49144404D-11  0.55954519D-11  0.47379989D-11  0.27141082D-11  0.61736545D-12
 -0.28896101D-12 -0.66827567D-03 -0.87739697D-03 -0.99898099D-03 -0.84589608D-03
 -0.48456184D-03 -0.11022101D-03  0.51589497D-04 -0.20943004D-04  0.32746568D-12
 -0.58144699D-04  0.32604680D-04 -0.50781683D-12  0.48787773D-04  0.73700013D-06
 -0.12238197D-13 -0.22590629D-05  0.63694761D-05 -0.21278324D-04  0.14908847D-04
  0.42936147D-12  0.50599928D-05 -0.78326407D-13  0.24566377D-05  0.90287869D-05