 Molden2AIM, Version 4.0.0 (06/02/2016)           Time: Fri Jun 29 01:22:17 2018
GAUSSIAN             30 MOL ORBITALS    506 PRIMITIVES        6 NUCLEI
  P    1    (CENTRE  1)  -0.00026456  0.00000000  0.00000000  CHARGE = 15.0
  F    2    (CENTRE  2)  -1.49249435  2.58833331  0.00000000  CHARGE =  9.0
  F    3    (CENTRE  3)  -1.49249435 -2.58833331  0.00000000  CHARGE =  9.0
  F    4    (CENTRE  4)   2.98731118  0.00000000  0.00000000  CHARGE =  9.0
  F    5    (CENTRE  5)  -0.00102801  0.00000000  3.04820572  CHARGE =  9.0
  F    6    (CENTRE  6)  -0.00102801  0.00000000 -3.04820572  CHARGE =  9.0
CENTRE ASSIGNMENTS    1  1  1  1  1  1  1  1  1  1  1  1  1  1  1  1  1  1  1  1
CENTRE ASSIGNMENTS    1  1  1  1  1  1  1  1  1  1  1  1  1  1  1  1  1  1  1  1
CENTRE ASSIGNMENTS    1  1  1  1  1  1  1  1  1  1  1  1  1  1  1  1  1  1  1  1
CENTRE ASSIGNMENTS    1  1  1  1  1  1  1  1  1  1  1  1  1  1  1  1  1  1  1  1
CENTRE ASSIGNMENTS    1  1  1  1  1  1  1  1  1  1  1  1  1  1  1  1  1  1  1  1
CENTRE ASSIGNMENTS    1  1  1  1  1  1  1  1  1  1  1  1  1  1  1  1  1  1  1  1
CENTRE ASSIGNMENTS    1  1  1  1  1  1  1  1  1  1  1  2  2  2  2  2  2  2  2  2
CENTRE ASSIGNMENTS    2  2  2  2  2  2  2  2  2  2  2  2  2  2  2  2  2  2  2  2
CENTRE ASSIGNMENTS    2  2  2  2  2  2  2  2  2  2  2  2  2  2  2  2  2  2  2  2
CENTRE ASSIGNMENTS    2  2  2  2  2  2  2  2  2  2  2  2  2  2  2  2  2  2  2  2
CENTRE ASSIGNMENTS    2  2  2  2  2  2  3  3  3  3  3  3  3  3  3  3  3  3  3  3
CENTRE ASSIGNMENTS    3  3  3  3  3  3  3  3  3  3  3  3  3  3  3  3  3  3  3  3
CENTRE ASSIGNMENTS    3  3  3  3  3  3  3  3  3  3  3  3  3  3  3  3  3  3  3  3
CENTRE ASSIGNMENTS    3  3  3  3  3  3  3  3  3  3  3  3  3  3  3  3  3  3  3  3
CENTRE ASSIGNMENTS    3  4  4  4  4  4  4  4  4  4  4  4  4  4  4  4  4  4  4  4
CENTRE ASSIGNMENTS    4  4  4  4  4  4  4  4  4  4  4  4  4  4  4  4  4  4  4  4
CENTRE ASSIGNMENTS    4  4  4  4  4  4  4  4  4  4  4  4  4  4  4  4  4  4  4  4
CENTRE ASSIGNMENTS    4  4  4  4  4  4  4  4  4  4  4  4  4  4  4  4  5  5  5  5
CENTRE ASSIGNMENTS    5  5  5  5  5  5  5  5  5  5  5  5  5  5  5  5  5  5  5  5
CENTRE ASSIGNMENTS    5  5  5  5  5  5  5  5  5  5  5  5  5  5  5  5  5  5  5  5
CENTRE ASSIGNMENTS    5  5  5  5  5  5  5  5  5  5  5  5  5  5  5  5  5  5  5  5
CENTRE ASSIGNMENTS    5  5  5  5  5  5  5  5  5  5  5  6  6  6  6  6  6  6  6  6
CENTRE ASSIGNMENTS    6  6  6  6  6  6  6  6  6  6  6  6  6  6  6  6  6  6  6  6
CENTRE ASSIGNMENTS    6  6  6  6  6  6  6  6  6  6  6  6  6  6  6  6  6  6  6  6
CENTRE ASSIGNMENTS    6  6  6  6  6  6  6  6  6  6  6  6  6  6  6  6  6  6  6  6
CENTRE ASSIGNMENTS    6  6  6  6  6  6
TYPE ASSIGNMENTS      1  1  1  1  1  1  1  1  1  1  1  1  1  1  1  1  1  1  1  1
TYPE ASSIGNMENTS      1  1  1  1  1  1  1  1  1  1  1  1  1  1  1  1  1  1  1  1
TYPE ASSIGNMENTS      1  1  2  2  2  2  2  2  2  3  3  3  3  3  3  3  4  4  4  4
TYPE ASSIGNMENTS      4  4  4  2  2  2  2  2  2  2  3  3  3  3  3  3  3  4  4  4
TYPE ASSIGNMENTS      4  4  4  4  2  3  4  2  3  4  2  3  4  5  6  7  8  9 10  5
TYPE ASSIGNMENTS      6  7  8  9 10  5  6  7  8  9 10 11 12 13 17 14 15 18 19 16
TYPE ASSIGNMENTS     20 11 12 13 17 14 15 18 19 16 20  1  1  1  1  1  1  1  1  1
TYPE ASSIGNMENTS      1  1  1  1  1  1  1  1  1  1  2  2  2  3  3  3  4  4  4  2
TYPE ASSIGNMENTS      3  4  2  3  4  2  3  4  5  6  7  8  9 10  5  6  7  8  9 10
TYPE ASSIGNMENTS      5  6  7  8  9 10 11 12 13 17 14 15 18 19 16 20 11 12 13 17
TYPE ASSIGNMENTS     14 15 18 19 16 20  1  1  1  1  1  1  1  1  1  1  1  1  1  1
TYPE ASSIGNMENTS      1  1  1  1  1  2  2  2  3  3  3  4  4  4  2  3  4  2  3  4
TYPE ASSIGNMENTS      2  3  4  5  6  7  8  9 10  5  6  7  8  9 10  5  6  7  8  9
TYPE ASSIGNMENTS     10 11 12 13 17 14 15 18 19 16 20 11 12 13 17 14 15 18 19 16
TYPE ASSIGNMENTS     20  1  1  1  1  1  1  1  1  1  1  1  1  1  1  1  1  1  1  1
TYPE ASSIGNMENTS      2  2  2  3  3  3  4  4  4  2  3  4  2  3  4  2  3  4  5  6
TYPE ASSIGNMENTS      7  8  9 10  5  6  7  8  9 10  5  6  7  8  9 10 11 12 13 17
TYPE ASSIGNMENTS     14 15 18 19 16 20 11 12 13 17 14 15 18 19 16 20  1  1  1  1
TYPE ASSIGNMENTS      1  1  1  1  1  1  1  1  1  1  1  1  1  1  1  2  2  2  3  3
TYPE ASSIGNMENTS      3  4  4  4  2  3  4  2  3  4  2  3  4  5  6  7  8  9 10  5
TYPE ASSIGNMENTS      6  7  8  9 10  5  6  7  8  9 10 11 12 13 17 14 15 18 19 16
TYPE ASSIGNMENTS     20 11 12 13 17 14 15 18 19 16 20  1  1  1  1  1  1  1  1  1
TYPE ASSIGNMENTS      1  1  1  1  1  1  1  1  1  1  2  2  2  3  3  3  4  4  4  2
TYPE ASSIGNMENTS      3  4  2  3  4  2  3  4  5  6  7  8  9 10  5  6  7  8  9 10
TYPE ASSIGNMENTS      5  6  7  8  9 10 11 12 13 17 14 15 18 19 16 20 11 12 13 17
TYPE ASSIGNMENTS     14 15 18 19 16 20
EXPONENTS  0.3124000D+06 0.4680000D+05 0.1065000D+05 0.3018000D+04 0.9868000D+03
EXPONENTS  0.3574000D+03 0.1396000D+03 0.5763000D+02 0.2460000D+02 0.1012000D+02
EXPONENTS  0.4283000D+01 0.1805000D+01 0.2782000D+00 0.3124000D+06 0.4680000D+05
EXPONENTS  0.1065000D+05 0.3018000D+04 0.9868000D+03 0.3574000D+03 0.1396000D+03
EXPONENTS  0.5763000D+02 0.2460000D+02 0.1012000D+02 0.4283000D+01 0.1805000D+01
EXPONENTS  0.2782000D+00 0.3124000D+06 0.4680000D+05 0.1065000D+05 0.3018000D+04
EXPONENTS  0.9868000D+03 0.3574000D+03 0.1396000D+03 0.5763000D+02 0.2460000D+02
EXPONENTS  0.1012000D+02 0.4283000D+01 0.1805000D+01 0.2782000D+00 0.6158000D+00
EXPONENTS  0.1055000D+00 0.4090000D-01 0.5049000D+03 0.1194000D+03 0.3796000D+02
EXPONENTS  0.1395000D+02 0.5457000D+01 0.2177000D+01 0.2877000D+00 0.5049000D+03
EXPONENTS  0.1194000D+03 0.3796000D+02 0.1395000D+02 0.5457000D+01 0.2177000D+01
EXPONENTS  0.2877000D+00 0.5049000D+03 0.1194000D+03 0.3796000D+02 0.1395000D+02
EXPONENTS  0.5457000D+01 0.2177000D+01 0.2877000D+00 0.5049000D+03 0.1194000D+03
EXPONENTS  0.3796000D+02 0.1395000D+02 0.5457000D+01 0.2177000D+01 0.2877000D+00
EXPONENTS  0.5049000D+03 0.1194000D+03 0.3796000D+02 0.1395000D+02 0.5457000D+01
EXPONENTS  0.2177000D+01 0.2877000D+00 0.5049000D+03 0.1194000D+03 0.3796000D+02
EXPONENTS  0.1395000D+02 0.5457000D+01 0.2177000D+01 0.2877000D+00 0.8010000D+00
EXPONENTS  0.8010000D+00 0.8010000D+00 0.9714000D-01 0.9714000D-01 0.9714000D-01
EXPONENTS  0.3070000D-01 0.3070000D-01 0.3070000D-01 0.2160000D+00 0.2160000D+00
EXPONENTS  0.2160000D+00 0.2160000D+00 0.2160000D+00 0.2160000D+00 0.6520000D+00
EXPONENTS  0.6520000D+00 0.6520000D+00 0.6520000D+00 0.6520000D+00 0.6520000D+00
EXPONENTS  0.7750000D-01 0.7750000D-01 0.7750000D-01 0.7750000D-01 0.7750000D-01
EXPONENTS  0.7750000D-01 0.4520000D+00 0.4520000D+00 0.4520000D+00 0.4520000D+00
EXPONENTS  0.4520000D+00 0.4520000D+00 0.4520000D+00 0.4520000D+00 0.4520000D+00
EXPONENTS  0.4520000D+00 0.1650000D+00 0.1650000D+00 0.1650000D+00 0.1650000D+00
EXPONENTS  0.1650000D+00 0.1650000D+00 0.1650000D+00 0.1650000D+00 0.1650000D+00
EXPONENTS  0.1650000D+00 0.1950000D+05 0.2923000D+04 0.6645000D+03 0.1875000D+03
EXPONENTS  0.6062000D+02 0.2142000D+02 0.7950000D+01 0.8815000D+00 0.1950000D+05
EXPONENTS  0.2923000D+04 0.6645000D+03 0.1875000D+03 0.6062000D+02 0.2142000D+02
EXPONENTS  0.7950000D+01 0.8815000D+00 0.2257000D+01 0.3041000D+00 0.9158000D-01
EXPONENTS  0.4388000D+02 0.9926000D+01 0.2930000D+01 0.4388000D+02 0.9926000D+01
EXPONENTS  0.2930000D+01 0.4388000D+02 0.9926000D+01 0.2930000D+01 0.9132000D+00
EXPONENTS  0.9132000D+00 0.9132000D+00 0.2672000D+00 0.2672000D+00 0.2672000D+00
EXPONENTS  0.7361000D-01 0.7361000D-01 0.7361000D-01 0.3107000D+01 0.3107000D+01
EXPONENTS  0.3107000D+01 0.3107000D+01 0.3107000D+01 0.3107000D+01 0.8550000D+00
EXPONENTS  0.8550000D+00 0.8550000D+00 0.8550000D+00 0.8550000D+00 0.8550000D+00
EXPONENTS  0.2920000D+00 0.2920000D+00 0.2920000D+00 0.2920000D+00 0.2920000D+00
EXPONENTS  0.2920000D+00 0.1917000D+01 0.1917000D+01 0.1917000D+01 0.1917000D+01
EXPONENTS  0.1917000D+01 0.1917000D+01 0.1917000D+01 0.1917000D+01 0.1917000D+01
EXPONENTS  0.1917000D+01 0.7240000D+00 0.7240000D+00 0.7240000D+00 0.7240000D+00
EXPONENTS  0.7240000D+00 0.7240000D+00 0.7240000D+00 0.7240000D+00 0.7240000D+00
EXPONENTS  0.7240000D+00 0.1950000D+05 0.2923000D+04 0.6645000D+03 0.1875000D+03
EXPONENTS  0.6062000D+02 0.2142000D+02 0.7950000D+01 0.8815000D+00 0.1950000D+05
EXPONENTS  0.2923000D+04 0.6645000D+03 0.1875000D+03 0.6062000D+02 0.2142000D+02
EXPONENTS  0.7950000D+01 0.8815000D+00 0.2257000D+01 0.3041000D+00 0.9158000D-01
EXPONENTS  0.4388000D+02 0.9926000D+01 0.2930000D+01 0.4388000D+02 0.9926000D+01
EXPONENTS  0.2930000D+01 0.4388000D+02 0.9926000D+01 0.2930000D+01 0.9132000D+00
EXPONENTS  0.9132000D+00 0.9132000D+00 0.2672000D+00 0.2672000D+00 0.2672000D+00
EXPONENTS  0.7361000D-01 0.7361000D-01 0.7361000D-01 0.3107000D+01 0.3107000D+01
EXPONENTS  0.3107000D+01 0.3107000D+01 0.3107000D+01 0.3107000D+01 0.8550000D+00
EXPONENTS  0.8550000D+00 0.8550000D+00 0.8550000D+00 0.8550000D+00 0.8550000D+00
EXPONENTS  0.2920000D+00 0.2920000D+00 0.2920000D+00 0.2920000D+00 0.2920000D+00
EXPONENTS  0.2920000D+00 0.1917000D+01 0.1917000D+01 0.1917000D+01 0.1917000D+01
EXPONENTS  0.1917000D+01 0.1917000D+01 0.1917000D+01 0.1917000D+01 0.1917000D+01
EXPONENTS  0.1917000D+01 0.7240000D+00 0.7240000D+00 0.7240000D+00 0.7240000D+00
EXPONENTS  0.7240000D+00 0.7240000D+00 0.7240000D+00 0.7240000D+00 0.7240000D+00
EXPONENTS  0.7240000D+00 0.1950000D+05 0.2923000D+04 0.6645000D+03 0.1875000D+03
EXPONENTS  0.6062000D+02 0.2142000D+02 0.7950000D+01 0.8815000D+00 0.1950000D+05
EXPONENTS  0.2923000D+04 0.6645000D+03 0.1875000D+03 0.6062000D+02 0.2142000D+02
EXPONENTS  0.7950000D+01 0.8815000D+00 0.2257000D+01 0.3041000D+00 0.9158000D-01
EXPONENTS  0.4388000D+02 0.9926000D+01 0.2930000D+01 0.4388000D+02 0.9926000D+01
EXPONENTS  0.2930000D+01 0.4388000D+02 0.9926000D+01 0.2930000D+01 0.9132000D+00
EXPONENTS  0.9132000D+00 0.9132000D+00 0.2672000D+00 0.2672000D+00 0.2672000D+00
EXPONENTS  0.7361000D-01 0.7361000D-01 0.7361000D-01 0.3107000D+01 0.3107000D+01
EXPONENTS  0.3107000D+01 0.3107000D+01 0.3107000D+01 0.3107000D+01 0.8550000D+00
EXPONENTS  0.8550000D+00 0.8550000D+00 0.8550000D+00 0.8550000D+00 0.8550000D+00
EXPONENTS  0.2920000D+00 0.2920000D+00 0.2920000D+00 0.2920000D+00 0.2920000D+00
EXPONENTS  0.2920000D+00 0.1917000D+01 0.1917000D+01 0.1917000D+01 0.1917000D+01
EXPONENTS  0.1917000D+01 0.1917000D+01 0.1917000D+01 0.1917000D+01 0.1917000D+01
EXPONENTS  0.1917000D+01 0.7240000D+00 0.7240000D+00 0.7240000D+00 0.7240000D+00
EXPONENTS  0.7240000D+00 0.7240000D+00 0.7240000D+00 0.7240000D+00 0.7240000D+00
EXPONENTS  0.7240000D+00 0.1950000D+05 0.2923000D+04 0.6645000D+03 0.1875000D+03
EXPONENTS  0.6062000D+02 0.2142000D+02 0.7950000D+01 0.8815000D+00 0.1950000D+05
EXPONENTS  0.2923000D+04 0.6645000D+03 0.1875000D+03 0.6062000D+02 0.2142000D+02
EXPONENTS  0.7950000D+01 0.8815000D+00 0.2257000D+01 0.3041000D+00 0.9158000D-01
EXPONENTS  0.4388000D+02 0.9926000D+01 0.2930000D+01 0.4388000D+02 0.9926000D+01
EXPONENTS  0.2930000D+01 0.4388000D+02 0.9926000D+01 0.2930000D+01 0.9132000D+00
EXPONENTS  0.9132000D+00 0.9132000D+00 0.2672000D+00 0.2672000D+00 0.2672000D+00
EXPONENTS  0.7361000D-01 0.7361000D-01 0.7361000D-01 0.3107000D+01 0.3107000D+01
EXPONENTS  0.3107000D+01 0.3107000D+01 0.3107000D+01 0.3107000D+01 0.8550000D+00
EXPONENTS  0.8550000D+00 0.8550000D+00 0.8550000D+00 0.8550000D+00 0.8550000D+00
EXPONENTS  0.2920000D+00 0.2920000D+00 0.2920000D+00 0.2920000D+00 0.2920000D+00
EXPONENTS  0.2920000D+00 0.1917000D+01 0.1917000D+01 0.1917000D+01 0.1917000D+01
EXPONENTS  0.1917000D+01 0.1917000D+01 0.1917000D+01 0.1917000D+01 0.1917000D+01
EXPONENTS  0.1917000D+01 0.7240000D+00 0.7240000D+00 0.7240000D+00 0.7240000D+00
EXPONENTS  0.7240000D+00 0.7240000D+00 0.7240000D+00 0.7240000D+00 0.7240000D+00
EXPONENTS  0.7240000D+00 0.1950000D+05 0.2923000D+04 0.6645000D+03 0.1875000D+03
EXPONENTS  0.6062000D+02 0.2142000D+02 0.7950000D+01 0.8815000D+00 0.1950000D+05
EXPONENTS  0.2923000D+04 0.6645000D+03 0.1875000D+03 0.6062000D+02 0.2142000D+02
EXPONENTS  0.7950000D+01 0.8815000D+00 0.2257000D+01 0.3041000D+00 0.9158000D-01
EXPONENTS  0.4388000D+02 0.9926000D+01 0.2930000D+01 0.4388000D+02 0.9926000D+01
EXPONENTS  0.2930000D+01 0.4388000D+02 0.9926000D+01 0.2930000D+01 0.9132000D+00
EXPONENTS  0.9132000D+00 0.9132000D+00 0.2672000D+00 0.2672000D+00 0.2672000D+00
EXPONENTS  0.7361000D-01 0.7361000D-01 0.7361000D-01 0.3107000D+01 0.3107000D+01
EXPONENTS  0.3107000D+01 0.3107000D+01 0.3107000D+01 0.3107000D+01 0.8550000D+00
EXPONENTS  0.8550000D+00 0.8550000D+00 0.8550000D+00 0.8550000D+00 0.8550000D+00
EXPONENTS  0.2920000D+00 0.2920000D+00 0.2920000D+00 0.2920000D+00 0.2920000D+00
EXPONENTS  0.2920000D+00 0.1917000D+01 0.1917000D+01 0.1917000D+01 0.1917000D+01
EXPONENTS  0.1917000D+01 0.1917000D+01 0.1917000D+01 0.1917000D+01 0.1917000D+01
EXPONENTS  0.1917000D+01 0.7240000D+00 0.7240000D+00 0.7240000D+00 0.7240000D+00
EXPONENTS  0.7240000D+00 0.7240000D+00 0.7240000D+00 0.7240000D+00 0.7240000D+00
EXPONENTS  0.7240000D+00
MO    1     MO 0.0        OCC NO =    2.0000000  ORB. ENERGY =  -76.607455
  0.54488976D+00  0.10194805D+01  0.17603418D+01  0.28469223D+01  0.42968507D+01
  0.58868184D+01  0.68029842D+01  0.57170584D+01  0.25111826D+01  0.28702402D+00
 -0.38684075D-02  0.24060414D-02  0.11835313D-03 -0.27900990D-02 -0.52185879D-02
 -0.90357030D-02 -0.14671870D-01 -0.22532563D-01 -0.32046477D-01 -0.40773995D-01
 -0.42256214D-01 -0.28198585D-01  0.27772010D-02  0.21213291D-01  0.10892157D-01
 -0.47778022D-04  0.14365692D-02  0.26845471D-02  0.46550999D-02  0.75487425D-02
  0.11635580D-01  0.16556794D-01  0.21320142D-01  0.22412841D-01  0.15712089D-01
 -0.18243141D-02 -0.14768982D-01 -0.13899619D-01  0.67782774D-02 -0.41278002D-02
 -0.15069076D-02  0.55826245D-05  0.11241208D-04  0.14705646D-04  0.16088492D-04
  0.13252457D-04  0.70857861D-05  0.19578715D-05 -0.16047793D-08  0.75043257D-14
  0.98170902D-14  0.10740241D-13  0.88469804D-14  0.47302785D-14  0.13070219D-14
 -0.10713071D-17  0.12647939D-13  0.16545919D-13  0.18101815D-13  0.14910876D-13
  0.79725053D-14  0.22028806D-14 -0.18056022D-17 -0.10326249D-04 -0.13676148D-04
 -0.15108470D-04 -0.12940450D-04 -0.70595053D-05 -0.21699068D-05  0.94470146D-06
 -0.65638776D-14 -0.86932403D-14 -0.96036952D-14 -0.82255943D-14 -0.44873729D-14
 -0.13793008D-14  0.60049927D-15 -0.11208407D-13 -0.14844484D-13 -0.16399168D-13
 -0.14045937D-13 -0.76625902D-14 -0.23552793D-14  0.10254061D-14 -0.21814590D-06
 -0.39760746D-15 -0.57813255D-15  0.24247607D-06  0.11323212D-14  0.12519516D-14
  0.37299278D-08 -0.29841049D-17 -0.17901681D-16 -0.52787391D-04 -0.52167319D-04
  0.10495471D-03 -0.79725266D-15 -0.66501730D-17 -0.58113027D-17  0.24031003D-04
  0.24939583D-04 -0.48970587D-04  0.86869351D-16  0.22897852D-17  0.22377455D-17
 -0.83138753D-05 -0.84239335D-05  0.16737809D-04 -0.19278458D-15 -0.67385388D-18
 -0.13571548D-18  0.19662602D-03  0.55738631D-16  0.17236548D-15 -0.58915391D-03
 -0.60999173D-16 -0.25927548D-15 -0.72415398D-06 -0.10621672D-15 -0.25782097D-15
  0.36935348D-17 -0.68599521D-04  0.27064483D-16  0.59200522D-16  0.20581716D-03
 -0.21528381D-16 -0.89353075D-16 -0.18596543D-07 -0.59665068D-16 -0.88248490D-16
  0.13022620D-17  0.11349219D-03  0.21155436D-03  0.35863666D-03  0.54308160D-03
  0.67912544D-03  0.58466375D-03  0.22476609D-03 -0.97394826D-06 -0.78798343D-04
 -0.14796933D-03 -0.25196626D-03 -0.39470365D-03 -0.52894932D-03 -0.56895631D-03
 -0.34160062D-03  0.22465094D-03  0.22272746D-04  0.27617120D-03  0.60626164D-04
  0.35494958D-04  0.34713293D-04  0.22936541D-04 -0.63692498D-04 -0.62289872D-04
 -0.41157552D-04 -0.11068128D-15 -0.10824388D-15 -0.71521307D-16  0.61190969D-04
 -0.10440674D-03  0.75505903D-16 -0.33948129D-03  0.58630433D-03 -0.91260763D-17
 -0.38706309D-05  0.67878800D-05  0.37998068D-16 -0.23878080D-03  0.38622659D-03
 -0.14744578D-03 -0.10788392D-02  0.13058192D-15 -0.22630911D-15  0.11254613D-03
 -0.17220830D-03  0.59662166D-04  0.49127133D-03 -0.45730704D-16  0.79455794D-16
 -0.24093663D-04 -0.21259008D-03  0.23668374D-03  0.32633288D-03  0.20808983D-16
 -0.36402680D-16 -0.16967770D-03 -0.26757166D-03  0.60880476D-16  0.11234299D-02
 -0.26433071D-03 -0.12567586D-15 -0.61439683D-03  0.10670457D-02 -0.56965571D-16
 -0.11144641D-15  0.10945948D-03  0.11986933D-03 -0.21662831D-16 -0.60357266D-03
  0.11815235D-03  0.38720587D-16  0.27519422D-03 -0.47776034D-03  0.26267907D-16
  0.19684128D-16  0.11349219D-03  0.21155436D-03  0.35863666D-03  0.54308160D-03
  0.67912544D-03  0.58466375D-03  0.22476609D-03 -0.97394826D-06 -0.78798343D-04
 -0.14796933D-03 -0.25196626D-03 -0.39470365D-03 -0.52894932D-03 -0.56895631D-03
 -0.34160062D-03  0.22465094D-03  0.22272746D-04  0.27617120D-03  0.60626164D-04
  0.35494958D-04  0.34713293D-04  0.22936541D-04  0.63692498D-04  0.62289872D-04
  0.41157552D-04 -0.11760846D-15 -0.11501850D-15 -0.75997587D-16  0.61190969D-04
  0.10440674D-03  0.81670354D-16 -0.33948129D-03 -0.58630433D-03 -0.18853537D-16
 -0.38706309D-05 -0.67878800D-05  0.37584743D-16 -0.23878080D-03  0.38622659D-03
 -0.14744578D-03  0.10788392D-02  0.13556314D-15  0.22997442D-15  0.11254613D-03
 -0.17220830D-03  0.59662166D-04 -0.49127133D-03 -0.47027720D-16 -0.79850861D-16
 -0.24093663D-04 -0.21259008D-03  0.23668374D-03 -0.32633288D-03  0.18433947D-16
  0.31201659D-16 -0.16967770D-03  0.26757166D-03  0.56182846D-16  0.11234299D-02
  0.26433071D-03 -0.12465229D-15 -0.61439683D-03 -0.10670457D-02 -0.43896249D-16
  0.13346469D-15  0.10945948D-03 -0.11986933D-03 -0.19900651D-16 -0.60357266D-03
 -0.11815235D-03  0.38515671D-16  0.27519422D-03  0.47776034D-03  0.21186281D-16
 -0.27787277D-16  0.11365435D-03  0.21185663D-03  0.35914907D-03  0.54385755D-03
  0.68009577D-03  0.58549911D-03  0.22508723D-03 -0.97533982D-06 -0.78908163D-04
 -0.14817555D-03 -0.25231741D-03 -0.39525374D-03 -0.52968651D-03 -0.56974926D-03
 -0.34207671D-03  0.22496403D-03  0.22263605D-04  0.27567039D-03  0.59980194D-04
 -0.73437838D-04 -0.71820602D-04 -0.47454908D-04 -0.40166503D-16 -0.39281963D-16
 -0.25955254D-16 -0.11731409D-15 -0.11473062D-15 -0.75807372D-16 -0.12058504D-03
 -0.18461912D-16  0.79879672D-16  0.67778955D-03  0.23857418D-15 -0.86952895D-17
  0.78215045D-05  0.12371401D-15  0.38630332D-16  0.69727624D-03 -0.54961240D-03
 -0.14766384D-03  0.75187918D-16 -0.25815832D-15 -0.23893608D-17 -0.31396445D-03
  0.25416982D-03  0.59794625D-04 -0.50121611D-17  0.89156769D-16  0.10213660D-17
 -0.30684137D-03  0.70073665D-04  0.23676770D-03 -0.20019685D-15 -0.41454262D-16
 -0.59872441D-18 -0.63112527D-03  0.25594747D-15  0.62036793D-16  0.66104805D-03
 -0.54749385D-15 -0.15845419D-16  0.12323278D-02 -0.22034857D-15 -0.17026496D-15
 -0.59266910D-18  0.31612053D-03 -0.82972455D-16 -0.22050129D-16 -0.39663007D-03
  0.20129652D-15  0.18537814D-16 -0.55173152D-03  0.47620844D-16  0.47612574D-16
  0.35514007D-18  0.13899748D-03  0.25909733D-03  0.43923367D-03  0.66512923D-03
  0.83174644D-03  0.71605620D-03  0.27527815D-03 -0.11928253D-05 -0.94638245D-04
 -0.17771386D-03 -0.30261606D-03 -0.47404627D-03 -0.63527776D-03 -0.68332689D-03
 -0.41026857D-03  0.26980987D-03 -0.19107795D-04 -0.25701716D-03 -0.62423340D-04
 -0.81440150D-08 -0.79646688D-08 -0.52625935D-08 -0.12866350D-15 -0.12583009D-15
 -0.83141264D-16 -0.58723296D-04 -0.57430101D-04 -0.37946496D-04  0.45576642D-08
  0.99215662D-16 -0.12371785D-03 -0.80085514D-07 -0.71074873D-16  0.56539334D-03
 -0.14534373D-07  0.52981162D-17  0.24749092D-05 -0.20976642D-03 -0.21029652D-03
  0.42006294D-03  0.10088624D-15  0.37152280D-06 -0.18357314D-15  0.66754229D-04
  0.66981080D-04 -0.13373531D-03 -0.60025162D-16 -0.15192238D-06  0.62234426D-16
  0.14037586D-03  0.14031658D-03 -0.28069244D-03  0.92700023D-16  0.14446967D-06
  0.54852371D-17 -0.86358387D-04  0.26183985D-16 -0.79093377D-03  0.25842825D-03
 -0.10936568D-15  0.11870572D-02  0.64690986D-06  0.30813720D-16  0.11857441D-02
  0.91211781D-15  0.32597518D-04 -0.51052033D-17  0.31691237D-03 -0.97631459D-04
  0.34343951D-16 -0.47552634D-03 -0.16109398D-06 -0.19028341D-16 -0.47521076D-03
 -0.30531584D-15  0.13899748D-03  0.25909733D-03  0.43923367D-03  0.66512923D-03
  0.83174644D-03  0.71605620D-03  0.27527815D-03 -0.11928253D-05 -0.94638245D-04
 -0.17771386D-03 -0.30261606D-03 -0.47404627D-03 -0.63527776D-03 -0.68332689D-03
 -0.41026857D-03  0.26980987D-03 -0.19107795D-04 -0.25701716D-03 -0.62423340D-04
 -0.81440151D-08 -0.79646688D-08 -0.52625935D-08 -0.12763799D-15 -0.12482716D-15
 -0.82478585D-16  0.58723296D-04  0.57430101D-04  0.37946496D-04  0.45576643D-08
  0.99033427D-16  0.12371785D-03 -0.80085514D-07 -0.75120282D-16 -0.56539334D-03
 -0.14534373D-07  0.54653071D-17 -0.24749092D-05 -0.20976642D-03 -0.21029652D-03
  0.42006294D-03  0.10125149D-15 -0.37152280D-06  0.19584184D-15  0.66754229D-04
  0.66981080D-04 -0.13373531D-03 -0.60269136D-16  0.15192238D-06 -0.67092614D-16
  0.14037586D-03  0.14031658D-03 -0.28069244D-03  0.93860901D-16 -0.14446967D-06
 -0.70852476D-17 -0.86358387D-04  0.24452367D-16  0.79093377D-03  0.25842825D-03
 -0.11112788D-15 -0.11870572D-02  0.64690986D-06  0.37770780D-16 -0.11857441D-02
 -0.91216150D-15  0.32597518D-04 -0.43818187D-17 -0.31691237D-03 -0.97631459D-04
  0.35060173D-16  0.47552634D-03 -0.16109398D-06 -0.21914717D-16  0.47521076D-03
  0.30641041D-15
MO    2     MO 0.0        OCC NO =    2.0000000  ORB. ENERGY =  -24.332374
  0.10360464D-03  0.19384272D-03  0.33470913D-03  0.54131016D-03  0.81699769D-03
  0.11193121D-02  0.12935107D-02  0.10870342D-02  0.47747303D-03  0.54574380D-04
 -0.73553404D-06  0.45748162D-06  0.22503512D-07 -0.17618056D-03 -0.32952730D-03
 -0.57055871D-03 -0.92645397D-03 -0.14228168D-02 -0.20235721D-02 -0.25746705D-02
 -0.26682651D-02 -0.17805973D-02  0.17536613D-03  0.13395115D-02  0.68778432D-03
 -0.30169392D-05  0.90833140D-04  0.16974180D-03  0.29433830D-03  0.47730104D-03
  0.73570853D-03  0.10468730D-02  0.13480558D-02  0.14171463D-02  0.99346298D-03
 -0.11534994D-03 -0.93383109D-03 -0.87886194D-03  0.42858514D-03 -0.72424357D-03
  0.91442923D-03  0.63407527D-04 -0.59080976D-02 -0.77289192D-02 -0.84557084D-02
 -0.69651592D-02 -0.37241117D-02 -0.10290082D-02  0.84343180D-06  0.34261219D-10
  0.44820213D-10  0.49034884D-10  0.40391148D-10  0.21596225D-10  0.59672466D-11
 -0.48910840D-14 -0.10844915D-13 -0.14187219D-13 -0.15521315D-13 -0.12785260D-13
 -0.68359865D-14 -0.18888494D-14  0.15482050D-17  0.53289948D-02  0.70577538D-02
  0.77969221D-02  0.66780875D-02  0.36431495D-02  0.11198086D-02 -0.48752546D-03
 -0.30901427D-10 -0.40926042D-10 -0.45212282D-10 -0.38724458D-10 -0.21125657D-10
 -0.64934731D-11  0.28270308D-11  0.10083961D-13  0.13355261D-13  0.14753976D-13
  0.12636825D-13  0.68938663D-14  0.21189937D-14 -0.92253568D-15  0.33473784D-03
 -0.19308858D-11 -0.25466432D-15 -0.15533526D-03  0.92362578D-12  0.30839101D-14
  0.14505882D-07 -0.95666978D-15 -0.51778142D-16  0.35716498D-04  0.39127996D-03
 -0.42699646D-03 -0.20666925D-11  0.38467486D-16 -0.71729801D-16 -0.52623464D-04
  0.19423528D-03 -0.14161182D-03 -0.14150757D-11 -0.56924374D-17  0.14755390D-16
  0.12239639D-04  0.23405920D-04 -0.35645559D-04 -0.69358457D-13  0.83535547D-17
 -0.33910186D-16  0.20868574D-03  0.17792112D-12 -0.25298607D-16 -0.74901293D-03
  0.17512971D-12  0.40761855D-16  0.12295570D-03 -0.70889308D-12  0.35133967D-16
  0.72973285D-17  0.30125695D-04  0.91631143D-14  0.17769678D-15 -0.96714387D-04
  0.10134737D-13 -0.26378481D-15  0.63373003D-05 -0.37624080D-13 -0.26930554D-15
  0.30163908D-16  0.41880644D+00  0.78067335D+00  0.13234333D+01  0.20040680D+01
  0.25060941D+01  0.21575135D+01  0.82942697D+00 -0.35940429D-02  0.59697969D-03
  0.11210221D-02  0.19089073D-02  0.29902921D-02  0.40073432D-02  0.43104379D-02
  0.25879812D-02 -0.17019653D-02  0.47541013D-01 -0.53228643D-03 -0.60034395D-03
  0.23567137D-02  0.23048145D-02  0.15228884D-02 -0.42123285D-02 -0.41195653D-02
 -0.27219709D-02 -0.22058044D-15 -0.21572285D-15 -0.14253721D-15 -0.40516654D-03
  0.83317998D-03  0.16858209D-15 -0.36961940D-03  0.42424229D-03  0.85588112D-16
 -0.28216669D-04  0.40368544D-04  0.74339587D-16 -0.14801819D-03  0.10419483D-02
 -0.89393015D-03 -0.20718177D-02  0.21443457D-15 -0.38189267D-15  0.81351801D-04
 -0.32933676D-03  0.24798496D-03  0.65624270D-03 -0.86753979D-16  0.14995301D-15
 -0.20267833D-04  0.20707739D-05  0.18197059D-04  0.12956540D-03  0.39544874D-16
 -0.77386977D-16 -0.90559333D-04  0.66971675D-04  0.27134735D-15  0.28825707D-03
 -0.24187430D-03 -0.59826371D-15 -0.16579073D-04  0.40959281D-04 -0.21577833D-15
 -0.76123098D-15  0.73098994D-04 -0.83135867D-06 -0.82991900D-16 -0.27641848D-03
  0.10117155D-03  0.18393211D-15  0.57121500D-04 -0.98677477D-04  0.65043591D-16
  0.23783419D-15  0.41880644D+00  0.78067335D+00  0.13234333D+01  0.20040680D+01
  0.25060940D+01  0.21575135D+01  0.82942697D+00 -0.35940428D-02  0.59697968D-03
  0.11210221D-02  0.19089073D-02  0.29902920D-02  0.40073431D-02  0.43104378D-02
  0.25879812D-02 -0.17019653D-02  0.47541013D-01 -0.53228643D-03 -0.60034394D-03
  0.23567137D-02  0.23048145D-02  0.15228884D-02  0.42123285D-02  0.41195652D-02
  0.27219709D-02 -0.34724311D-15 -0.33959618D-15 -0.22438555D-15 -0.40516654D-03
 -0.83317998D-03  0.28140481D-15 -0.36961940D-03 -0.42424228D-03 -0.89927603D-16
 -0.28216669D-04 -0.40368543D-04  0.75635394D-16 -0.14801819D-03  0.10419483D-02
 -0.89393015D-03  0.20718177D-02  0.34086452D-15  0.63281226D-15  0.81351800D-04
 -0.32933676D-03  0.24798496D-03 -0.65624270D-03 -0.14343303D-15 -0.26471208D-15
 -0.20267833D-04  0.20707745D-05  0.18197059D-04 -0.12956540D-03  0.41538307D-16
  0.70537600D-16 -0.90559333D-04 -0.66971676D-04  0.23676900D-15  0.28825707D-03
  0.24187431D-03 -0.49058861D-15 -0.16579071D-04 -0.40959279D-04 -0.21971838D-15
  0.41545939D-15  0.73098994D-04  0.83135910D-06 -0.70979684D-16 -0.27641848D-03
 -0.10117155D-03  0.15558800D-15  0.57121500D-04  0.98677476D-04  0.57351049D-16
 -0.15703035D-15  0.29097842D-01  0.54239638D-01  0.91949521D-01  0.13923867D+00
  0.17411845D+00  0.14989977D+00  0.57626943D-01 -0.24970698D-03  0.51424077D-04
  0.96565310D-04  0.16443407D-03  0.25758500D-03  0.34519420D-03  0.37130290D-03
  0.22292978D-03 -0.14660800D-03  0.33616840D-02 -0.36524476D-03 -0.13321697D-03
 -0.61068661D-03 -0.59723817D-03 -0.39462051D-03  0.40564419D-12  0.39671116D-12
  0.26212384D-12 -0.29420548D-15 -0.28772653D-15 -0.19011308D-15  0.33181949D-03
 -0.43090899D-12  0.23561631D-15  0.91158321D-04  0.72667968D-12 -0.40749191D-16
 -0.11778415D-05  0.32911658D-13  0.74242194D-16  0.30219335D-03 -0.16617079D-03
 -0.13602257D-03  0.65762650D-13 -0.61628036D-15  0.20217133D-16 -0.19025357D-03
  0.93268265D-04  0.96985310D-04  0.17388178D-12  0.25662961D-15 -0.43014556D-17
  0.11754033D-04  0.10088181D-04 -0.21842213D-04 -0.56754557D-12 -0.75892801D-16
 -0.65035378D-17  0.26520144D-04  0.53168288D-12  0.23357159D-15  0.23478688D-03
 -0.15532454D-11 -0.66466978D-16 -0.31434731D-03 -0.41803204D-13 -0.63424778D-15
 -0.84596382D-16  0.31105367D-04 -0.17334126D-12 -0.69328976D-16 -0.15163323D-03
  0.52207205D-12  0.23351111D-17  0.58317126D-04 -0.20482658D-14  0.20565182D-15
  0.24000855D-16  0.22539265D-04  0.42014167D-04  0.71224342D-04  0.10785464D-03
  0.13487261D-03  0.11611276D-03  0.44637982D-04 -0.19342368D-06 -0.19170083D-04
 -0.35998021D-04 -0.61298421D-04 -0.96023613D-04 -0.12868294D-03 -0.13841585D-03
 -0.83104695D-04  0.54653144D-04 -0.55710109D-04  0.30677753D-03  0.31140412D-03
  0.54981679D-04  0.53770882D-04  0.35528695D-04 -0.31768478D-12 -0.31068878D-12
 -0.20528521D-12  0.10175047D-03  0.99509740D-04  0.65750293D-04 -0.56149023D-04
  0.32389545D-12 -0.11932707D-03  0.36093561D-04 -0.20828734D-12 -0.18645443D-03
 -0.28158896D-05  0.17327323D-13 -0.23994168D-04 -0.46133326D-04  0.65274208D-04
 -0.19140882D-04 -0.63726323D-12  0.10311573D-03 -0.60009392D-12 -0.58698786D-05
 -0.22962399D-04  0.28832278D-04  0.97502505D-13  0.13845888D-05 -0.43539329D-14
  0.98085306D-05 -0.29135919D-04  0.19327388D-04  0.22502270D-12 -0.28976075D-04
  0.16544243D-12  0.21726759D-03 -0.35413362D-12  0.83748254D-04 -0.40466887D-03
 -0.35652224D-12  0.31335019D-03 -0.24713391D-03  0.14189231D-11 -0.56459495D-03
  0.50432076D-11 -0.65056999D-04  0.95635229D-13 -0.31438884D-04  0.12849727D-03
  0.96334525D-13 -0.92809466D-04  0.66673730D-04 -0.38324021D-12  0.18712612D-03
 -0.16090942D-11  0.22539265D-04  0.42014167D-04  0.71224342D-04  0.10785465D-03
  0.13487261D-03  0.11611276D-03  0.44637982D-04 -0.19342368D-06 -0.19170083D-04
 -0.35998021D-04 -0.61298421D-04 -0.96023613D-04 -0.12868294D-03 -0.13841585D-03
 -0.83104695D-04  0.54653144D-04 -0.55710109D-04  0.30677753D-03  0.31140412D-03
  0.54981679D-04  0.53770882D-04  0.35528695D-04 -0.31776040D-12 -0.31076273D-12
 -0.20533407D-12 -0.10175047D-03 -0.99509740D-04 -0.65750293D-04 -0.56149023D-04
  0.32397646D-12  0.11932707D-03  0.36093561D-04 -0.20840117D-12  0.18645443D-03
 -0.28158896D-05  0.17247990D-13  0.23994168D-04 -0.46133326D-04  0.65274208D-04
 -0.19140882D-04 -0.63717061D-12 -0.10311573D-03  0.59979056D-12 -0.58698786D-05
 -0.22962399D-04  0.28832278D-04  0.97448590D-13 -0.13845888D-05  0.45048235D-14
  0.98085306D-05 -0.29135919D-04  0.19327388D-04  0.22507454D-12  0.28976075D-04
 -0.16555578D-12  0.21726759D-03 -0.35416904D-12 -0.83748254D-04 -0.40466887D-03
 -0.35655243D-12 -0.31335019D-03 -0.24713391D-03  0.14190596D-11  0.56459495D-03
 -0.50434290D-11 -0.65056999D-04  0.95648151D-13  0.31438884D-04  0.12849727D-03
  0.96346356D-13  0.92809466D-04  0.66673730D-04 -0.38329081D-12 -0.18712612D-03
  0.16091713D-11
MO    3     MO 0.0        OCC NO =    2.0000000  ORB. ENERGY =  -24.332373
  0.33186583D-12  0.62091594D-12  0.10721385D-11  0.17339218D-11  0.26170026D-11
  0.35853745D-11  0.41433665D-11  0.34819820D-11  0.15294390D-11  0.17481236D-12
 -0.23560587D-14  0.14654027D-14  0.72083128D-16 -0.56465184D-12 -0.10561221D-11
 -0.18286184D-11 -0.29692488D-11 -0.45600723D-11 -0.64854697D-11 -0.82517185D-11
 -0.85516854D-11 -0.57067447D-11  0.56204159D-12  0.42930820D-11  0.22043219D-11