 Molden2AIM, Version 4.0.0 (06/02/2016)           Time: Fri Jun 29 00:55:13 2018
GAUSSIAN             20 MOL ORBITALS    356 PRIMITIVES        4 NUCLEI
  P    1    (CENTRE  1)  -0.00005858  0.00000000  0.00000000  CHARGE = 15.0
  O    2    (CENTRE  2)  -1.43561360  2.48669817  0.00000000  CHARGE =  8.0
  O    3    (CENTRE  3)  -1.43561360 -2.48669817  0.00000000  CHARGE =  8.0
  O    4    (CENTRE  4)   2.87128767  0.00000000  0.00000000  CHARGE =  8.0
CENTRE ASSIGNMENTS    1  1  1  1  1  1  1  1  1  1  1  1  1  1  1  1  1  1  1  1
CENTRE ASSIGNMENTS    1  1  1  1  1  1  1  1  1  1  1  1  1  1  1  1  1  1  1  1
CENTRE ASSIGNMENTS    1  1  1  1  1  1  1  1  1  1  1  1  1  1  1  1  1  1  1  1
CENTRE ASSIGNMENTS    1  1  1  1  1  1  1  1  1  1  1  1  1  1  1  1  1  1  1  1
CENTRE ASSIGNMENTS    1  1  1  1  1  1  1  1  1  1  1  1  1  1  1  1  1  1  1  1
CENTRE ASSIGNMENTS    1  1  1  1  1  1  1  1  1  1  1  1  1  1  1  1  1  1  1  1
CENTRE ASSIGNMENTS    1  1  1  1  1  1  1  1  1  1  1  2  2  2  2  2  2  2  2  2
CENTRE ASSIGNMENTS    2  2  2  2  2  2  2  2  2  2  2  2  2  2  2  2  2  2  2  2
CENTRE ASSIGNMENTS    2  2  2  2  2  2  2  2  2  2  2  2  2  2  2  2  2  2  2  2
CENTRE ASSIGNMENTS    2  2  2  2  2  2  2  2  2  2  2  2  2  2  2  2  2  2  2  2
CENTRE ASSIGNMENTS    2  2  2  2  2  2  3  3  3  3  3  3  3  3  3  3  3  3  3  3
CENTRE ASSIGNMENTS    3  3  3  3  3  3  3  3  3  3  3  3  3  3  3  3  3  3  3  3
CENTRE ASSIGNMENTS    3  3  3  3  3  3  3  3  3  3  3  3  3  3  3  3  3  3  3  3
CENTRE ASSIGNMENTS    3  3  3  3  3  3  3  3  3  3  3  3  3  3  3  3  3  3  3  3
CENTRE ASSIGNMENTS    3  4  4  4  4  4  4  4  4  4  4  4  4  4  4  4  4  4  4  4
CENTRE ASSIGNMENTS    4  4  4  4  4  4  4  4  4  4  4  4  4  4  4  4  4  4  4  4
CENTRE ASSIGNMENTS    4  4  4  4  4  4  4  4  4  4  4  4  4  4  4  4  4  4  4  4
CENTRE ASSIGNMENTS    4  4  4  4  4  4  4  4  4  4  4  4  4  4  4  4
TYPE ASSIGNMENTS      1  1  1  1  1  1  1  1  1  1  1  1  1  1  1  1  1  1  1  1
TYPE ASSIGNMENTS      1  1  1  1  1  1  1  1  1  1  1  1  1  1  1  1  1  1  1  1
TYPE ASSIGNMENTS      1  1  2  2  2  2  2  2  2  3  3  3  3  3  3  3  4  4  4  4
TYPE ASSIGNMENTS      4  4  4  2  2  2  2  2  2  2  3  3  3  3  3  3  3  4  4  4
TYPE ASSIGNMENTS      4  4  4  4  2  3  4  2  3  4  2  3  4  5  6  7  8  9 10  5
TYPE ASSIGNMENTS      6  7  8  9 10  5  6  7  8  9 10 11 12 13 17 14 15 18 19 16
TYPE ASSIGNMENTS     20 11 12 13 17 14 15 18 19 16 20  1  1  1  1  1  1  1  1  1
TYPE ASSIGNMENTS      1  1  1  1  1  1  1  1  1  1  2  2  2  3  3  3  4  4  4  2
TYPE ASSIGNMENTS      3  4  2  3  4  2  3  4  5  6  7  8  9 10  5  6  7  8  9 10
TYPE ASSIGNMENTS      5  6  7  8  9 10 11 12 13 17 14 15 18 19 16 20 11 12 13 17
TYPE ASSIGNMENTS     14 15 18 19 16 20  1  1  1  1  1  1  1  1  1  1  1  1  1  1
TYPE ASSIGNMENTS      1  1  1  1  1  2  2  2  3  3  3  4  4  4  2  3  4  2  3  4
TYPE ASSIGNMENTS      2  3  4  5  6  7  8  9 10  5  6  7  8  9 10  5  6  7  8  9
TYPE ASSIGNMENTS     10 11 12 13 17 14 15 18 19 16 20 11 12 13 17 14 15 18 19 16
TYPE ASSIGNMENTS     20  1  1  1  1  1  1  1  1  1  1  1  1  1  1  1  1  1  1  1
TYPE ASSIGNMENTS      2  2  2  3  3  3  4  4  4  2  3  4  2  3  4  2  3  4  5  6
TYPE ASSIGNMENTS      7  8  9 10  5  6  7  8  9 10  5  6  7  8  9 10 11 12 13 17
TYPE ASSIGNMENTS     14 15 18 19 16 20 11 12 13 17 14 15 18 19 16 20
EXPONENTS  0.3124000D+06 0.4680000D+05 0.1065000D+05 0.3018000D+04 0.9868000D+03
EXPONENTS  0.3574000D+03 0.1396000D+03 0.5763000D+02 0.2460000D+02 0.1012000D+02
EXPONENTS  0.4283000D+01 0.1805000D+01 0.2782000D+00 0.3124000D+06 0.4680000D+05
EXPONENTS  0.1065000D+05 0.3018000D+04 0.9868000D+03 0.3574000D+03 0.1396000D+03
EXPONENTS  0.5763000D+02 0.2460000D+02 0.1012000D+02 0.4283000D+01 0.1805000D+01
EXPONENTS  0.2782000D+00 0.3124000D+06 0.4680000D+05 0.1065000D+05 0.3018000D+04
EXPONENTS  0.9868000D+03 0.3574000D+03 0.1396000D+03 0.5763000D+02 0.2460000D+02
EXPONENTS  0.1012000D+02 0.4283000D+01 0.1805000D+01 0.2782000D+00 0.6158000D+00
EXPONENTS  0.1055000D+00 0.4090000D-01 0.5049000D+03 0.1194000D+03 0.3796000D+02
EXPONENTS  0.1395000D+02 0.5457000D+01 0.2177000D+01 0.2877000D+00 0.5049000D+03
EXPONENTS  0.1194000D+03 0.3796000D+02 0.1395000D+02 0.5457000D+01 0.2177000D+01
EXPONENTS  0.2877000D+00 0.5049000D+03 0.1194000D+03 0.3796000D+02 0.1395000D+02
EXPONENTS  0.5457000D+01 0.2177000D+01 0.2877000D+00 0.5049000D+03 0.1194000D+03
EXPONENTS  0.3796000D+02 0.1395000D+02 0.5457000D+01 0.2177000D+01 0.2877000D+00
EXPONENTS  0.5049000D+03 0.1194000D+03 0.3796000D+02 0.1395000D+02 0.5457000D+01
EXPONENTS  0.2177000D+01 0.2877000D+00 0.5049000D+03 0.1194000D+03 0.3796000D+02
EXPONENTS  0.1395000D+02 0.5457000D+01 0.2177000D+01 0.2877000D+00 0.8010000D+00
EXPONENTS  0.8010000D+00 0.8010000D+00 0.9714000D-01 0.9714000D-01 0.9714000D-01
EXPONENTS  0.3070000D-01 0.3070000D-01 0.3070000D-01 0.2160000D+00 0.2160000D+00
EXPONENTS  0.2160000D+00 0.2160000D+00 0.2160000D+00 0.2160000D+00 0.6520000D+00
EXPONENTS  0.6520000D+00 0.6520000D+00 0.6520000D+00 0.6520000D+00 0.6520000D+00
EXPONENTS  0.7750000D-01 0.7750000D-01 0.7750000D-01 0.7750000D-01 0.7750000D-01
EXPONENTS  0.7750000D-01 0.4520000D+00 0.4520000D+00 0.4520000D+00 0.4520000D+00
EXPONENTS  0.4520000D+00 0.4520000D+00 0.4520000D+00 0.4520000D+00 0.4520000D+00
EXPONENTS  0.4520000D+00 0.1650000D+00 0.1650000D+00 0.1650000D+00 0.1650000D+00
EXPONENTS  0.1650000D+00 0.1650000D+00 0.1650000D+00 0.1650000D+00 0.1650000D+00
EXPONENTS  0.1650000D+00 0.1533000D+05 0.2299000D+04 0.5224000D+03 0.1473000D+03
EXPONENTS  0.4755000D+02 0.1676000D+02 0.6207000D+01 0.6882000D+00 0.1533000D+05
EXPONENTS  0.2299000D+04 0.5224000D+03 0.1473000D+03 0.4755000D+02 0.1676000D+02
EXPONENTS  0.6207000D+01 0.6882000D+00 0.1752000D+01 0.2384000D+00 0.7376000D-01
EXPONENTS  0.3446000D+02 0.7749000D+01 0.2280000D+01 0.3446000D+02 0.7749000D+01
EXPONENTS  0.2280000D+01 0.3446000D+02 0.7749000D+01 0.2280000D+01 0.7156000D+00
EXPONENTS  0.7156000D+00 0.7156000D+00 0.2140000D+00 0.2140000D+00 0.2140000D+00
EXPONENTS  0.5974000D-01 0.5974000D-01 0.5974000D-01 0.2314000D+01 0.2314000D+01
EXPONENTS  0.2314000D+01 0.2314000D+01 0.2314000D+01 0.2314000D+01 0.6450000D+00
EXPONENTS  0.6450000D+00 0.6450000D+00 0.6450000D+00 0.6450000D+00 0.6450000D+00
EXPONENTS  0.2140000D+00 0.2140000D+00 0.2140000D+00 0.2140000D+00 0.2140000D+00
EXPONENTS  0.2140000D+00 0.1428000D+01 0.1428000D+01 0.1428000D+01 0.1428000D+01
EXPONENTS  0.1428000D+01 0.1428000D+01 0.1428000D+01 0.1428000D+01 0.1428000D+01
EXPONENTS  0.1428000D+01 0.5000000D+00 0.5000000D+00 0.5000000D+00 0.5000000D+00
EXPONENTS  0.5000000D+00 0.5000000D+00 0.5000000D+00 0.5000000D+00 0.5000000D+00
EXPONENTS  0.5000000D+00 0.1533000D+05 0.2299000D+04 0.5224000D+03 0.1473000D+03
EXPONENTS  0.4755000D+02 0.1676000D+02 0.6207000D+01 0.6882000D+00 0.1533000D+05
EXPONENTS  0.2299000D+04 0.5224000D+03 0.1473000D+03 0.4755000D+02 0.1676000D+02
EXPONENTS  0.6207000D+01 0.6882000D+00 0.1752000D+01 0.2384000D+00 0.7376000D-01
EXPONENTS  0.3446000D+02 0.7749000D+01 0.2280000D+01 0.3446000D+02 0.7749000D+01
EXPONENTS  0.2280000D+01 0.3446000D+02 0.7749000D+01 0.2280000D+01 0.7156000D+00
EXPONENTS  0.7156000D+00 0.7156000D+00 0.2140000D+00 0.2140000D+00 0.2140000D+00
EXPONENTS  0.5974000D-01 0.5974000D-01 0.5974000D-01 0.2314000D+01 0.2314000D+01
EXPONENTS  0.2314000D+01 0.2314000D+01 0.2314000D+01 0.2314000D+01 0.6450000D+00
EXPONENTS  0.6450000D+00 0.6450000D+00 0.6450000D+00 0.6450000D+00 0.6450000D+00
EXPONENTS  0.2140000D+00 0.2140000D+00 0.2140000D+00 0.2140000D+00 0.2140000D+00
EXPONENTS  0.2140000D+00 0.1428000D+01 0.1428000D+01 0.1428000D+01 0.1428000D+01
EXPONENTS  0.1428000D+01 0.1428000D+01 0.1428000D+01 0.1428000D+01 0.1428000D+01
EXPONENTS  0.1428000D+01 0.5000000D+00 0.5000000D+00 0.5000000D+00 0.5000000D+00
EXPONENTS  0.5000000D+00 0.5000000D+00 0.5000000D+00 0.5000000D+00 0.5000000D+00
EXPONENTS  0.5000000D+00 0.1533000D+05 0.2299000D+04 0.5224000D+03 0.1473000D+03
EXPONENTS  0.4755000D+02 0.1676000D+02 0.6207000D+01 0.6882000D+00 0.1533000D+05
EXPONENTS  0.2299000D+04 0.5224000D+03 0.1473000D+03 0.4755000D+02 0.1676000D+02
EXPONENTS  0.6207000D+01 0.6882000D+00 0.1752000D+01 0.2384000D+00 0.7376000D-01
EXPONENTS  0.3446000D+02 0.7749000D+01 0.2280000D+01 0.3446000D+02 0.7749000D+01
EXPONENTS  0.2280000D+01 0.3446000D+02 0.7749000D+01 0.2280000D+01 0.7156000D+00
EXPONENTS  0.7156000D+00 0.7156000D+00 0.2140000D+00 0.2140000D+00 0.2140000D+00
EXPONENTS  0.5974000D-01 0.5974000D-01 0.5974000D-01 0.2314000D+01 0.2314000D+01
EXPONENTS  0.2314000D+01 0.2314000D+01 0.2314000D+01 0.2314000D+01 0.6450000D+00
EXPONENTS  0.6450000D+00 0.6450000D+00 0.6450000D+00 0.6450000D+00 0.6450000D+00
EXPONENTS  0.2140000D+00 0.2140000D+00 0.2140000D+00 0.2140000D+00 0.2140000D+00
EXPONENTS  0.2140000D+00 0.1428000D+01 0.1428000D+01 0.1428000D+01 0.1428000D+01
EXPONENTS  0.1428000D+01 0.1428000D+01 0.1428000D+01 0.1428000D+01 0.1428000D+01
EXPONENTS  0.1428000D+01 0.5000000D+00 0.5000000D+00 0.5000000D+00 0.5000000D+00
EXPONENTS  0.5000000D+00 0.5000000D+00 0.5000000D+00 0.5000000D+00 0.5000000D+00
EXPONENTS  0.5000000D+00
MO    1     MO 0.0        OCC NO =    2.0000000  ORB. ENERGY =  -76.223304
  0.54451899D+00  0.10187868D+01  0.17591439D+01  0.28449851D+01  0.42939269D+01
  0.58828127D+01  0.67983550D+01  0.57131682D+01  0.25094738D+01  0.28682872D+00
 -0.38657752D-02  0.24044042D-02  0.11827259D-03 -0.20971713D-02 -0.39225394D-02
 -0.67916649D-02 -0.11028076D-01 -0.16936548D-01 -0.24087659D-01 -0.30647678D-01
 -0.31761784D-01 -0.21195400D-01  0.20874766D-02  0.15944920D-01  0.81870640D-02
 -0.35912238D-04  0.10430660D-02  0.19491994D-02  0.33799809D-02  0.54810005D-02
  0.84483764D-02  0.12021578D-01  0.15480156D-01  0.16273544D-01  0.11408253D-01
 -0.13246003D-02 -0.10723481D-01 -0.10092253D-01  0.49215803D-02 -0.35172873D-02
  0.58151061D-03  0.57407951D-04 -0.24591162D-06 -0.32169934D-06 -0.35195035D-06
 -0.28990950D-06 -0.15500799D-06 -0.42830213D-07  0.35106002D-10 -0.22194148D-14
 -0.29034181D-14 -0.31764411D-14 -0.26165067D-14 -0.13989864D-14 -0.38655353D-15
  0.31684056D-18 -0.11283803D-16 -0.14761368D-16 -0.16149454D-16 -0.13302672D-16
 -0.71126352D-17 -0.19652901D-17  0.16108600D-20  0.18857985D-06  0.24975632D-06
  0.27591364D-06  0.23632088D-06  0.12892198D-06  0.39627237D-07 -0.17252311D-07
  0.19245729D-14  0.25489164D-14  0.28158679D-14  0.24117994D-14  0.13157278D-14
  0.40442024D-15 -0.17607041D-15  0.10380580D-16  0.13748105D-16  0.15187962D-16
  0.13008536D-16  0.70966487D-17  0.21813238D-17 -0.94967198D-18  0.22389303D-08
  0.11930783D-15  0.73481423D-18  0.20617673D-07 -0.44095317D-15 -0.17179981D-18
 -0.12812295D-08  0.79251707D-18 -0.49629077D-20  0.81564983D-04  0.81597402D-04
 -0.16316239D-03  0.47522660D-16 -0.10131307D-19 -0.57168723D-20  0.37553096D-03
  0.37563041D-03 -0.75116137D-03 -0.17302804D-17  0.26092603D-20  0.17684645D-19
 -0.62277116D-05 -0.62385659D-05  0.12466278D-04  0.57258121D-16 -0.41178328D-21
 -0.33972745D-21  0.23695147D-03 -0.67115078D-16  0.14707265D-18 -0.71085663D-03
  0.15931733D-15 -0.22671038D-18  0.22190105D-08  0.42027905D-16 -0.21450756D-18
 -0.15607294D-20 -0.18094000D-04 -0.60792126D-16  0.17027133D-19  0.54282712D-04
  0.15355610D-15 -0.27749635D-19 -0.71096935D-09  0.28820280D-16 -0.23331764D-19
  0.99746323D-21  0.23408046D-03  0.43629586D-03  0.73981321D-03  0.11197418D-02
  0.13971108D-02  0.11999318D-02  0.46067716D-03 -0.20606372D-05 -0.15870022D-03
 -0.29764620D-03 -0.50742152D-03 -0.79300106D-03 -0.10603935D-02 -0.11322531D-02
 -0.69223732D-03  0.45669614D-03  0.19256905D-04 -0.93438888D-03 -0.19132456D-03
  0.28091579D-03  0.27239382D-03  0.18375526D-03 -0.48663446D-03 -0.47187173D-03
 -0.31832188D-03  0.13662896D-18  0.13248413D-18  0.89373010D-19 -0.23309913D-03
  0.40379524D-03 -0.16010500D-18 -0.41697389D-03  0.72228833D-03  0.32085733D-18
 -0.11978073D-04  0.20761168D-04  0.17926915D-19 -0.11599339D-03  0.33345497D-03
 -0.21746158D-03 -0.77815576D-03 -0.26605407D-18  0.44658608D-18  0.82831945D-04
 -0.30379511D-03  0.22096317D-03  0.66942577D-03  0.10613462D-18 -0.17914333D-18
  0.13263243D-04 -0.11026023D-03  0.96996986D-04  0.21390410D-03  0.97762975D-19
 -0.17527321D-18 -0.24985789D-04 -0.27783935D-04  0.29932077D-18  0.13911725D-03
 -0.27779923D-04 -0.20974640D-18 -0.64159884D-04  0.11113173D-03 -0.68821592D-18
  0.79453337D-18  0.70768870D-04  0.34803126D-04 -0.11609127D-18 -0.29262465D-03
  0.34730563D-04  0.67947580D-19  0.80318037D-04 -0.13913994D-03  0.28032622D-18
 -0.35454534D-18  0.23408046D-03  0.43629586D-03  0.73981321D-03  0.11197418D-02
  0.13971108D-02  0.11999318D-02  0.46067716D-03 -0.20606372D-05 -0.15870022D-03
 -0.29764620D-03 -0.50742152D-03 -0.79300106D-03 -0.10603935D-02 -0.11322531D-02
 -0.69223732D-03  0.45669614D-03  0.19256905D-04 -0.93438888D-03 -0.19132456D-03
  0.28091579D-03  0.27239382D-03  0.18375526D-03  0.48663446D-03  0.47187173D-03
  0.31832188D-03  0.13178466D-18  0.12778679D-18  0.86204217D-19 -0.23309913D-03
 -0.40379524D-03 -0.15548779D-18 -0.41697389D-03 -0.72228833D-03  0.31225066D-18
 -0.11978073D-04 -0.20761168D-04  0.17275284D-19 -0.11599339D-03  0.33345497D-03
 -0.21746158D-03  0.77815576D-03 -0.28027462D-18 -0.45122627D-18  0.82831945D-04
 -0.30379511D-03  0.22096317D-03 -0.66942577D-03  0.11177049D-18  0.18210889D-18
  0.13263243D-04 -0.11026023D-03  0.96996986D-04 -0.21390410D-03  0.94783236D-19
  0.17201292D-18 -0.24985789D-04  0.27783935D-04  0.30528564D-18  0.13911725D-03
  0.27779923D-04 -0.21780533D-18 -0.64159884D-04 -0.11113173D-03 -0.69805158D-18
 -0.75826314D-18  0.70768870D-04 -0.34803126D-04 -0.11772744D-18 -0.29262465D-03
 -0.34730563D-04  0.69446018D-19  0.80318037D-04  0.13913994D-03  0.28373630D-18
  0.34994424D-18  0.23408156D-03  0.43629792D-03  0.73981670D-03  0.11197470D-02
  0.13971174D-02  0.11999375D-02  0.46067934D-03 -0.20606469D-05 -0.15870071D-03
 -0.29764711D-03 -0.50742306D-03 -0.79300348D-03 -0.10603968D-02 -0.11322565D-02
 -0.69223943D-03  0.45669753D-03  0.19248344D-04 -0.93434310D-03 -0.19137235D-03
 -0.56187645D-03 -0.54483115D-03 -0.36753987D-03 -0.12400065D-16 -0.12023892D-16
 -0.81112464D-17  0.13633386D-18  0.13219798D-18  0.89179976D-19  0.46621917D-03
  0.21699092D-16 -0.16293437D-18  0.83394719D-03 -0.34323282D-15  0.33691466D-18
  0.23973554D-04 -0.35268781D-16  0.18300766D-19  0.55802982D-03 -0.34056115D-03
 -0.21746867D-03 -0.20292232D-15  0.54499867D-18  0.18484888D-20 -0.49698671D-03
  0.27602727D-03  0.22095943D-03  0.13101586D-15 -0.22078143D-18 -0.94339700D-21
 -0.17199199D-03  0.75003301D-04  0.96988689D-04  0.79883616D-16 -0.20768911D-18
  0.38016276D-21 -0.73106930D-04 -0.55099885D-16  0.29580731D-18  0.91007201D-04
 -0.13422208D-15 -0.93159513D-18  0.12831359D-03  0.29952173D-15  0.44173190D-19
  0.12582139D-19  0.13100895D-03  0.27294683D-16 -0.11706285D-18 -0.23237619D-03
 -0.11493340D-16  0.39090923D-18 -0.16065067D-03 -0.70390710D-16 -0.39720689D-19
 -0.23168169D-20
MO    2     MO 0.0        OCC NO =    2.0000000  ORB. ENERGY =  -18.545104
  0.12714638D-10  0.23788895D-10  0.41076396D-10  0.66431025D-10  0.10026413D-09
  0.13736497D-09  0.15874308D-09  0.13340373D-09  0.58596763D-10  0.66975134D-11
 -0.90266699D-13  0.56143364D-13  0.27616910D-14 -0.24537391D-10 -0.45894620D-10
 -0.79464054D-10 -0.12903105D-09 -0.19816154D-09 -0.28183120D-09 -0.35858493D-09
 -0.37162023D-09 -0.24799109D-09  0.24423961D-10  0.18655926D-09  0.95790547D-10
 -0.42018151D-12  0.14494810D-10  0.27086757D-10  0.46969397D-10  0.76165902D-10
  0.11740160D-09  0.16705606D-09  0.21511767D-09  0.22614286D-09  0.15853308D-09
 -0.18407109D-10 -0.14901725D-09 -0.14024548D-09  0.68392002D-10 -0.27481907D-10
  0.80939062D-10  0.96067904D-11 -0.10751671D-08 -0.14065237D-08 -0.15387863D-08
 -0.12675332D-08 -0.67772109D-09 -0.18726091D-09  0.15348936D-12 -0.29115896D-01
 -0.38089149D-01 -0.41670863D-01 -0.34325237D-01 -0.18352921D-01 -0.50710902D-02
  0.41565448D-05 -0.27608887D-14 -0.36117694D-14 -0.39514023D-14 -0.32548599D-14
 -0.17402993D-14 -0.48086158D-15  0.39414064D-18  0.10030249D-08  0.13284124D-08
  0.14675389D-08  0.12569515D-08  0.68571462D-09  0.21077070D-09 -0.91762181D-10
  0.27163183D-01  0.35975088D-01  0.39742808D-01  0.34039836D-01  0.18570019D-01
  0.57079369D-02 -0.24850359D-02 -0.25596040D-15 -0.33899555D-15 -0.37449902D-15
 -0.32075955D-15 -0.17498647D-15 -0.53786254D-16  0.23416652D-16  0.82546123D-11
  0.22291626D-03 -0.10138586D-15 -0.74758416D-11 -0.20052161D-03  0.12197642D-17
 -0.31017963D-12 -0.83969872D-05 -0.54687555D-18 -0.63763252D-11  0.17214866D-10
 -0.10838541D-10  0.63842451D-03  0.14708583D-17 -0.26226602D-16 -0.18764831D-10
  0.43535358D-10 -0.24770526D-10  0.16877034D-02 -0.52629780D-18  0.18742753D-15
  0.69252888D-12 -0.16716557D-12 -0.52536331D-12 -0.23492710D-04  0.64088978D-19
 -0.28788632D-19  0.34336249D-11 -0.95944541D-04  0.25467759D-18 -0.24469613D-10
 -0.95876701D-04 -0.32372356D-18  0.14168739D-10  0.38371032D-03 -0.44030922D-18
  0.18460743D-18  0.13579799D-11  0.22475596D-05  0.32007700D-19 -0.37472118D-11
  0.22273228D-05  0.70125689D-19 -0.32672788D-12 -0.89700016D-05 -0.16614879D-18
  0.22300785D-18 -0.35070701D+00 -0.65367274D+00 -0.11084124D+01 -0.16776338D+01
 -0.20931971D+01 -0.17977772D+01 -0.69020161D+00  0.30873141D-02 -0.35268060D-03
 -0.66146121D-03 -0.11276464D-02 -0.17622918D-02 -0.23565199D-02 -0.25162138D-02
 -0.15383638D-02  0.10149190D-02 -0.40029029D-01  0.97188023D-03  0.43117665D-03
 -0.23980910D-02 -0.23253416D-02 -0.15686617D-02  0.41391135D-02  0.40135477D-02
  0.27075156D-02 -0.20732920D-17 -0.20103958D-17 -0.13562011D-17  0.46543588D-03
 -0.78478368D-03  0.36178004D-18  0.49799840D-03 -0.96569747D-03  0.12690859D-17
  0.28998772D-04 -0.35598943D-04  0.11173489D-19  0.30488384D-03 -0.10768177D-02
  0.77193386D-03  0.25167102D-02 -0.88623227D-17 -0.12590816D-18 -0.84316089D-04
  0.45380689D-03 -0.36949080D-03 -0.99783147D-03  0.11565435D-17 -0.37647445D-18
 -0.39349762D-04  0.13124733D-03 -0.91897572D-04 -0.24328396D-03  0.87043337D-19
 -0.54163309D-18  0.91131094D-04 -0.43503070D-04  0.25830555D-20 -0.33391286D-03
  0.12827396D-03 -0.30717689D-18  0.60519575D-04  0.22352455D-05  0.29942772D-18
  0.38456760D-17 -0.87667058D-04 -0.44777777D-04  0.46794902D-19  0.40907495D-03
 -0.85929060D-04 -0.23206234D-18 -0.14607378D-03  0.22026239D-03  0.91677629D-19
 -0.76389027D-18  0.35070705D+00  0.65367281D+00  0.11084125D+01  0.16776339D+01
  0.20931973D+01  0.17977774D+01  0.69020168D+00 -0.30873145D-02  0.35268064D-03
  0.66146129D-03  0.11276465D-02  0.17622920D-02  0.23565201D-02  0.25162141D-02
  0.15383640D-02 -0.10149191D-02  0.40029034D-01 -0.97188035D-03 -0.43117670D-03
  0.23980913D-02  0.23253419D-02  0.15686619D-02  0.41391139D-02  0.40135482D-02
  0.27075159D-02 -0.47885588D-17 -0.46432912D-17 -0.31323368D-17 -0.46543593D-03
 -0.78478376D-03  0.53128343D-18 -0.49799845D-03 -0.96569755D-03  0.40851980D-18
 -0.28998774D-04 -0.35598947D-04  0.26619622D-19 -0.30488388D-03  0.10768178D-02
 -0.77193394D-03  0.25167104D-02 -0.25618426D-18  0.87614658D-18  0.84316100D-04
 -0.45380693D-03  0.36949083D-03 -0.99783156D-03 -0.47914459D-18  0.97990698D-18
  0.39349764D-04 -0.13124734D-03  0.91897578D-04 -0.24328399D-03  0.38208642D-18
 -0.33252468D-19 -0.91131102D-04 -0.43503062D-04  0.10668216D-17  0.33391288D-03
  0.12827395D-03 -0.88057137D-18 -0.60519573D-04  0.22352359D-05 -0.23198935D-17
 -0.94563442D-17  0.87667067D-04 -0.44777784D-04 -0.22286934D-18 -0.40907499D-03
 -0.85929061D-04  0.46476799D-18  0.14607379D-03  0.22026241D-03  0.20384002D-18
  0.93107026D-18 -0.33528420D-08 -0.62492661D-08 -0.10596685D-07 -0.16038576D-07
 -0.20011460D-07 -0.17187175D-07 -0.65984907D-08  0.29515454D-10 -0.22384747D-11
 -0.41983147D-11 -0.71572062D-11 -0.11185320D-10 -0.14956904D-10 -0.15970487D-10
 -0.97640425D-11  0.64417222D-11 -0.38430253D-09  0.33089003D-11  0.85890107D-12
  0.52177714D-10  0.50594831D-10  0.34130974D-10 -0.15084769D-04 -0.14627152D-04
 -0.98673903D-05  0.19165105D-17  0.18583705D-17  0.12536458D-17 -0.10109959D-10
  0.21408554D-04  0.27526277D-18 -0.19696539D-10 -0.10289688D-03 -0.14221800D-18
 -0.72853350D-12  0.14630818D-04 -0.89202145D-19 -0.26562166D-10  0.15905044D-10
  0.10657122D-10  0.12419027D-03 -0.16902425D-17 -0.12223465D-17  0.11974404D-10
 -0.62216612D-11 -0.57527424D-11 -0.65980851D-04 -0.13109874D-17  0.22297487D-18
  0.47331017D-11 -0.16925105D-11 -0.30405913D-11  0.52094411D-04  0.12657756D-18
 -0.11866740D-18  0.28297977D-11  0.59191981D-04  0.13673366D-17 -0.10298001D-10
 -0.28460585D-03 -0.27496059D-17  0.18086075D-11  0.10702991D-03 -0.13524038D-17
 -0.35651703D-17 -0.34307791D-11 -0.12428535D-04 -0.35639455D-18  0.48641581D-11
  0.70051507D-04  0.91133093D-18  0.54281792D-11 -0.32765903D-04  0.15785273D-18
  0.45851237D-18
MO    3     MO 0.0        OCC NO =    2.0000000  ORB. ENERGY =  -18.545102
  0.22745990D-03  0.42557404D-03  0.73484069D-03  0.11884251D-02  0.17936862D-02
  0.24574056D-02  0.28398517D-02  0.23865407D-02  0.10482732D-02  0.11981590D-03
 -0.16148360D-05  0.10043829D-05  0.49405573D-07 -0.43898673D-03 -0.82107871D-03
 -0.14216534D-02 -0.23084328D-02 -0.35452134D-02 -0.50421073D-02 -0.64152717D-02
 -0.66484800D-02 -0.44366901D-02  0.43695741D-03  0.33376426D-02  0.17137429D-02
 -0.75172665D-05  0.25933498D-03  0.48462473D-03  0.84035646D-03  0.13627279D-02
  0.21004994D-02  0.29888959D-02  0.38487938D-02  0.40460519D-02  0.28364064D-02
 -0.32933217D-03 -0.26661532D-02 -0.25092124D-02  0.12236406D-02 -0.49088060D-03
  0.14434774D-02  0.17127921D-03 -0.20061673D-01 -0.26244498D-01 -0.28712400D-01
 -0.23651056D-01 -0.12645680D-01 -0.34941241D-02  0.28639766D-05  0.15956436D-08
  0.20874064D-08  0.22836957D-08  0.18811321D-08  0.10057984D-08  0.27791186D-09
 -0.22779187D-12 -0.26715549D-15 -0.34949037D-15 -0.38235471D-15 -0.31495427D-15
 -0.16839886D-15 -0.46530239D-16  0.38138747D-19  0.18716214D-01  0.24787871D-01
  0.27383938D-01  0.23454427D-01  0.12795277D-01  0.39329327D-02 -0.17122612D-02
 -0.14885828D-08 -0.19714884D-08 -0.21779650D-08 -0.18654337D-08 -0.10176647D-08
 -0.31280344D-09  0.13618366D-09  0.79301826D-16  0.10502783D-15  0.11602754D-15
  0.99377943D-16  0.54214428D-16  0.16664094D-16 -0.72549630D-17  0.15359933D-03
 -0.12252074D-10  0.13344035D-16 -0.13820524D-03  0.11123624D-10 -0.10169546D-18
 -0.57858199D-05  0.45898948D-12 -0.94963735D-21 -0.12331698D-03  0.31671523D-03
 -0.19339825D-03 -0.35037162D-10  0.36778807D-18 -0.42557635D-18 -0.35993514D-03
  0.80325392D-03 -0.44331878D-03 -0.92433377D-10 -0.90643853D-19  0.21337657D-18
  0.12771027D-04 -0.34137500D-05 -0.93572774D-05  0.12667053D-11  0.10065009D-19
 -0.54179449D-19  0.58543931D-04  0.52556284D-11  0.40076909D-19 -0.44001522D-03
  0.52628937D-11  0.19924528D-19  0.26438343D-03 -0.21029779D-10 -0.14015525D-18
 -0.11121338D-18  0.24311852D-04 -0.12394390D-12  0.17666821D-19 -0.66758330D-04
 -0.11260063D-12  0.49540911D-20 -0.61772259D-05  0.48443233D-12 -0.57954554D-19
  0.12275119D-18  0.34701056D+00  0.64678303D+00  0.10967297D+01  0.16599515D+01
  0.20711348D+01  0.17788286D+01  0.68292688D+00 -0.30547739D-02  0.36919653D-03
  0.69243724D-03  0.11804537D-02  0.18448193D-02  0.24668750D-02  0.26340473D-02
  0.16104049D-02 -0.10624473D-02  0.39578116D-01 -0.10682179D-02 -0.48580804D-03
  0.23007758D-02  0.22309785D-02  0.15050049D-02 -0.40036974D-02 -0.38822397D-02
 -0.26189360D-02  0.79853533D-17  0.77431066D-17  0.52234540D-17 -0.42772329D-03
  0.76652064D-03 -0.19030397D-17 -0.50658363D-03  0.75463863D-03  0.10559440D-17
 -0.12279920D-04  0.38734937D-04  0.57728878D-19 -0.32239143D-03  0.10275786D-02
 -0.70518718D-03 -0.21897040D-02  0.62941223D-17 -0.22717615D-17  0.10152523D-03
 -0.42735786D-03  0.32583263D-03  0.83715936D-03 -0.53379243D-18  0.16552072D-18
  0.17503609D-04 -0.69760265D-04  0.52256656D-04  0.21331697D-03  0.29416100D-18
 -0.44885590D-18 -0.70151592D-04 -0.73411111D-04 -0.10584763D-18  0.18785603D-03
  0.13167611D-03  0.13408532D-17  0.22598748D-04  0.88557223D-04 -0.10233103D-17
  0.48013739D-18  0.85074277D-04  0.60012817D-04 -0.71559576D-19 -0.34280624D-03
  0.10773211D-04 -0.12602987D-18  0.87583410D-04 -0.19081166D-03  0.34070860D-18
 -0.31335367D-18  0.34701052D+00  0.64678295D+00  0.10967296D+01  0.16599513D+01
  0.20711346D+01  0.17788284D+01  0.68292681D+00 -0.30547735D-02  0.36919649D-03
  0.69243717D-03  0.11804536D-02  0.18448192D-02  0.24668747D-02  0.26340471D-02
  0.16104047D-02 -0.10624472D-02  0.39578112D-01 -0.10682177D-02 -0.48580799D-03
  0.23007755D-02  0.22309783D-02  0.15050048D-02  0.40036970D-02  0.38822393D-02
  0.26189357D-02 -0.49874969D-17 -0.48361943D-17 -0.32624681D-17 -0.42772324D-03
 -0.76652055D-03  0.98912929D-18 -0.50658357D-03 -0.75463853D-03 -0.13579326D-18
 -0.12279917D-04 -0.38734933D-04 -0.34929861D-19 -0.32239140D-03  0.10275785D-02
 -0.70518710D-03  0.21897037D-02 -0.15754197D-17 -0.15134211D-17  0.10152522D-03
 -0.42735781D-03  0.32583259D-03 -0.83715925D-03  0.18201736D-18  0.41360511D-18
  0.17503605D-04 -0.69760250D-04  0.52256646D-04 -0.21331695D-03 -0.19305213D-19
 -0.50582542D-19 -0.70151582D-04  0.73411116D-04  0.64674348D-19  0.18785599D-03
 -0.13167612D-03 -0.33656720D-18  0.22598754D-04 -0.88557223D-04  0.14254416D-18
  0.47653845D-18  0.85074267D-04 -0.60012812D-04 -0.40318866D-19 -0.34280620D-03
 -0.10773201D-04  0.73999530D-19  0.87583394D-04  0.19081164D-03  0.46957069D-19
 -0.60402095D-20 -0.71586004D-01 -0.13342710D+00 -0.22624815D+00 -0.34243712D+00
 -0.42726154D+00 -0.36696068D+00 -0.14088334D+00  0.63017983D-03 -0.51763202D-04
 -0.97083168D-04 -0.16550552D-03 -0.25865291D-03 -0.34586822D-03 -0.36930663D-03
 -0.22578683D-03  0.14896044D-03 -0.81996935D-02  0.91846344D-04  0.28879487D-04
  0.10919202D-02  0.10587953D-02  0.71425707D-03  0.80017623D-12  0.77590178D-12
  0.52341875D-12 -0.43124500D-17 -0.41816259D-17 -0.28209001D-17 -0.21127307D-03
 -0.11496598D-11  0.30484968D-18 -0.38855571D-03  0.56104377D-11 -0.12087720D-18
 -0.14422544D-04 -0.79065119D-12 -0.50522540D-20 -0.53541837D-03  0.31929130D-03
  0.21612707D-03 -0.68045371D-11 -0.42727121D-18 -0.10467409D-17  0.23913194D-03
 -0.12397709D-03 -0.11515486D-03  0.36128352D-11  0.49449724D-19  0.83244803D-19
  0.91160054D-04 -0.33738114D-04 -0.57421940D-04 -0.28465811D-11  0.75652984D-19
 -0.25742488D-19  0.54402664D-04 -0.32326314D-11  0.47776239D-19 -0.19486421D-03
  0.15586484D-10  0.59700135D-19  0.31656218D-04 -0.58885896D-11 -0.20302885D-18
  0.52285699D-19 -0.67703358D-04  0.67905999D-12  0.19525747D-19  0.97329570D-04
 -0.38402070D-11 -0.57360545D-19  0.10578050D-03  0.18030270D-11 -0.12166958D-20
 -0.49416070D-19
MO    4     MO 0.0        OCC NO =    2.0000000  ORB. ENERGY =  -18.545093
  0.21629377D-03  0.40468238D-03  0.69876697D-03  0.11300847D-02  0.17056332D-02
  0.23367703D-02  0.27004419D-02  0.22693841D-02  0.99681293D-03  0.11393407D-03
 -0.15355628D-05  0.95507717D-06  0.46980227D-07 -0.41743350D-03 -0.78076565D-03
 -0.13518535D-02 -0.21950941D-02 -0.33711517D-02 -0.47945516D-02 -0.61002968D-02
 -0.63220551D-02 -0.42188589D-02  0.41550381D-03  0.31737721D-02  0.16296021D-02
 -0.71481862D-05  0.24660052D-03  0.46082759D-03  0.79909137D-03  0.12958121D-02
  0.19973559D-02  0.28421283D-02  0.36598015D-02  0.38473734D-02  0.26971267D-02
 -0.31316055D-03 -0.25352337D-02 -0.23859994D-02  0.11635546D-02 -0.46687420D-03
  0.13727689D-02  0.16289167D-03  0.21097986D-01  0.27600193D-01  0.30195578D-01
  0.24872784D-01  0.13298910D-01  0.36746179D-02 -0.30119192D-05  0.33830448D-10
  0.44256683D-10  0.48418362D-10  0.39883305D-10  0.21324693D-10  0.58922197D-11
 -0.48295878D-14  0.26266467D-15  0.34361551D-15  0.37592741D-15  0.30965995D-15
  0.16556811D-15  0.45748076D-16 -0.37497643D-19 -0.19682973D-01 -0.26068252D-01
 -0.28798416D-01 -0.24665931D-01 -0.13456199D-01 -0.41360827D-02  0.18007056D-02
 -0.31555264D-10 -0.41791988D-10 -0.46168920D-10 -0.39543821D-10 -0.21572651D-10
 -0.66308672D-11  0.28868474D-11 -0.14645285D-15 -0.19396307D-15 -0.21427709D-15
 -0.18352898D-15 -0.10012200D-15 -0.30774879D-16  0.13398305D-16 -0.16159522D-03
 -0.26400094D-12 -0.64861780D-18  0.14534334D-03  0.25239872D-12  0.39478090D-19
  0.60847654D-05  0.95814624D-14  0.43352471D-20  0.32329372D-03 -0.13936479D-03
 -0.18392892D-03 -0.74897762D-12 -0.24525752D-19  0.37456917D-19  0.82228395D-03
 -0.40072229D-03 -0.42156166D-03 -0.19527174D-11  0.17994836D-18  0.52443417D-19
 -0.40606266D-05  0.12960892D-04 -0.89002650D-05  0.24285493D-13 -0.67773667D-20
  0.25576212D-19  0.18804765D-03  0.11112016D-12 -0.59759385D-19 -0.28608733D-03
  0.11266542D-12  0.21065661D-18 -0.27805562D-03 -0.44602590D-12 -0.31378455D-19
  0.16130642D-20  0.20032193D-04 -0.27283575D-14 -0.10511081D-19 -0.66593399D-04
 -0.12107030D-14  0.91677610D-20  0.64968196D-05  0.93957755D-14  0.22365481D-19
 -0.14117024D-19  0.50574140D-01  0.94263689D-01  0.15983998D+00  0.24192526D+00
  0.30185209D+00  0.25925069D+00  0.99531380D-01 -0.44520997D-03  0.70095082D-04
  0.13146506D-03  0.22411911D-03  0.35025455D-03  0.46835707D-03  0.50009615D-03
  0.30574898D-03 -0.20171461D-03  0.57448501D-02 -0.24154179D-03 -0.11843880D-03
  0.29816562D-03  0.28912035D-03  0.19503888D-03 -0.49758566D-03 -0.48249071D-03
 -0.32548538D-03 -0.33403239D-19 -0.32389906D-19 -0.21850039D-19 -0.65515258D-04
  0.86615692D-04  0.96455337D-19  0.57121435D-04  0.30283797D-04 -0.24473427D-18
 -0.87616405D-05 -0.31861202D-05 -0.41170443D-19  0.21969779D-04  0.33651776D-04
 -0.55621555D-04 -0.17606787D-03  0.15937947D-17  0.25093727D-17 -0.16149508D-04
  0.66142235D-06  0.15488086D-04  0.53673292D-04  0.16089758D-18 -0.14085544D-18
  0.21259946D-04  0.22633651D-05 -0.23523311D-04 -0.32493081D-04 -0.11024383D-18
  0.16646378D-18  0.42803485D-04  0.53761346D-04  0.96329642D-19 -0.50378943D-04
 -0.16203379D-03 -0.85831435D-18 -0.78031513D-04  0.74975773D-06  0.56932543D-18
  0.45913786D-18 -0.24902672D-06 -0.17972995D-04  0.23871763D-19 -0.11386703D-04