 Molden2AIM, Version 4.0.0 (06/02/2016)           Time: Fri Jun 29 01:18:52 2018
GAUSSIAN             24 MOL ORBITALS    393 PRIMITIVES        3 NUCLEI
  S    1    (CENTRE  1)  -0.00985681  0.00000000 -0.00599232  CHARGE = 16.0
  S    2    (CENTRE  2)  -0.01022153  0.00000000  3.65584715  CHARGE = 16.0
  S    3    (CENTRE  3)   3.24221256  0.00000000 -1.68920729  CHARGE = 16.0
CENTRE ASSIGNMENTS    1  1  1  1  1  1  1  1  1  1  1  1  1  1  1  1  1  1  1  1
CENTRE ASSIGNMENTS    1  1  1  1  1  1  1  1  1  1  1  1  1  1  1  1  1  1  1  1
CENTRE ASSIGNMENTS    1  1  1  1  1  1  1  1  1  1  1  1  1  1  1  1  1  1  1  1
CENTRE ASSIGNMENTS    1  1  1  1  1  1  1  1  1  1  1  1  1  1  1  1  1  1  1  1
CENTRE ASSIGNMENTS    1  1  1  1  1  1  1  1  1  1  1  1  1  1  1  1  1  1  1  1
CENTRE ASSIGNMENTS    1  1  1  1  1  1  1  1  1  1  1  1  1  1  1  1  1  1  1  1
CENTRE ASSIGNMENTS    1  1  1  1  1  1  1  1  1  1  1  2  2  2  2  2  2  2  2  2
CENTRE ASSIGNMENTS    2  2  2  2  2  2  2  2  2  2  2  2  2  2  2  2  2  2  2  2
CENTRE ASSIGNMENTS    2  2  2  2  2  2  2  2  2  2  2  2  2  2  2  2  2  2  2  2
CENTRE ASSIGNMENTS    2  2  2  2  2  2  2  2  2  2  2  2  2  2  2  2  2  2  2  2
CENTRE ASSIGNMENTS    2  2  2  2  2  2  2  2  2  2  2  2  2  2  2  2  2  2  2  2
CENTRE ASSIGNMENTS    2  2  2  2  2  2  2  2  2  2  2  2  2  2  2  2  2  2  2  2
CENTRE ASSIGNMENTS    2  2  2  2  2  2  2  2  2  2  2  2  2  2  2  2  2  2  2  2
CENTRE ASSIGNMENTS    2  2  3  3  3  3  3  3  3  3  3  3  3  3  3  3  3  3  3  3
CENTRE ASSIGNMENTS    3  3  3  3  3  3  3  3  3  3  3  3  3  3  3  3  3  3  3  3
CENTRE ASSIGNMENTS    3  3  3  3  3  3  3  3  3  3  3  3  3  3  3  3  3  3  3  3
CENTRE ASSIGNMENTS    3  3  3  3  3  3  3  3  3  3  3  3  3  3  3  3  3  3  3  3
CENTRE ASSIGNMENTS    3  3  3  3  3  3  3  3  3  3  3  3  3  3  3  3  3  3  3  3
CENTRE ASSIGNMENTS    3  3  3  3  3  3  3  3  3  3  3  3  3  3  3  3  3  3  3  3
CENTRE ASSIGNMENTS    3  3  3  3  3  3  3  3  3  3  3  3  3
TYPE ASSIGNMENTS      1  1  1  1  1  1  1  1  1  1  1  1  1  1  1  1  1  1  1  1
TYPE ASSIGNMENTS      1  1  1  1  1  1  1  1  1  1  1  1  1  1  1  1  1  1  1  1
TYPE ASSIGNMENTS      1  1  2  2  2  2  2  2  2  3  3  3  3  3  3  3  4  4  4  4
TYPE ASSIGNMENTS      4  4  4  2  2  2  2  2  2  2  3  3  3  3  3  3  3  4  4  4
TYPE ASSIGNMENTS      4  4  4  4  2  3  4  2  3  4  2  3  4  5  6  7  8  9 10  5
TYPE ASSIGNMENTS      6  7  8  9 10  5  6  7  8  9 10 11 12 13 17 14 15 18 19 16
TYPE ASSIGNMENTS     20 11 12 13 17 14 15 18 19 16 20  1  1  1  1  1  1  1  1  1
TYPE ASSIGNMENTS      1  1  1  1  1  1  1  1  1  1  1  1  1  1  1  1  1  1  1  1
TYPE ASSIGNMENTS      1  1  1  1  1  1  1  1  1  1  1  1  1  2  2  2  2  2  2  2
TYPE ASSIGNMENTS      3  3  3  3  3  3  3  4  4  4  4  4  4  4  2  2  2  2  2  2
TYPE ASSIGNMENTS      2  3  3  3  3  3  3  3  4  4  4  4  4  4  4  2  3  4  2  3
TYPE ASSIGNMENTS      4  2  3  4  5  6  7  8  9 10  5  6  7  8  9 10  5  6  7  8
TYPE ASSIGNMENTS      9 10 11 12 13 17 14 15 18 19 16 20 11 12 13 17 14 15 18 19
TYPE ASSIGNMENTS     16 20  1  1  1  1  1  1  1  1  1  1  1  1  1  1  1  1  1  1
TYPE ASSIGNMENTS      1  1  1  1  1  1  1  1  1  1  1  1  1  1  1  1  1  1  1  1
TYPE ASSIGNMENTS      1  1  1  1  2  2  2  2  2  2  2  3  3  3  3  3  3  3  4  4
TYPE ASSIGNMENTS      4  4  4  4  4  2  2  2  2  2  2  2  3  3  3  3  3  3  3  4
TYPE ASSIGNMENTS      4  4  4  4  4  4  2  3  4  2  3  4  2  3  4  5  6  7  8  9
TYPE ASSIGNMENTS     10  5  6  7  8  9 10  5  6  7  8  9 10 11 12 13 17 14 15 18
TYPE ASSIGNMENTS     19 16 20 11 12 13 17 14 15 18 19 16 20
EXPONENTS  0.3741000D+06 0.5605000D+05 0.1276000D+05 0.3615000D+04 0.1183000D+04
EXPONENTS  0.4288000D+03 0.1678000D+03 0.6947000D+02 0.2984000D+02 0.1272000D+02
EXPONENTS  0.5244000D+01 0.2219000D+01 0.3490000D+00 0.3741000D+06 0.5605000D+05
EXPONENTS  0.1276000D+05 0.3615000D+04 0.1183000D+04 0.4288000D+03 0.1678000D+03
EXPONENTS  0.6947000D+02 0.2984000D+02 0.1272000D+02 0.5244000D+01 0.2219000D+01
EXPONENTS  0.3490000D+00 0.3741000D+06 0.5605000D+05 0.1276000D+05 0.3615000D+04
EXPONENTS  0.1183000D+04 0.4288000D+03 0.1678000D+03 0.6947000D+02 0.2984000D+02
EXPONENTS  0.1272000D+02 0.5244000D+01 0.2219000D+01 0.3490000D+00 0.7767000D+00
EXPONENTS  0.1322000D+00 0.4970000D-01 0.5744000D+03 0.1358000D+03 0.4319000D+02
EXPONENTS  0.1587000D+02 0.6208000D+01 0.2483000D+01 0.3229000D+00 0.5744000D+03
EXPONENTS  0.1358000D+03 0.4319000D+02 0.1587000D+02 0.6208000D+01 0.2483000D+01
EXPONENTS  0.3229000D+00 0.5744000D+03 0.1358000D+03 0.4319000D+02 0.1587000D+02
EXPONENTS  0.6208000D+01 0.2483000D+01 0.3229000D+00 0.5744000D+03 0.1358000D+03
EXPONENTS  0.4319000D+02 0.1587000D+02 0.6208000D+01 0.2483000D+01 0.3229000D+00
EXPONENTS  0.5744000D+03 0.1358000D+03 0.4319000D+02 0.1587000D+02 0.6208000D+01
EXPONENTS  0.2483000D+01 0.3229000D+00 0.5744000D+03 0.1358000D+03 0.4319000D+02
EXPONENTS  0.1587000D+02 0.6208000D+01 0.2483000D+01 0.3229000D+00 0.8688000D+00
EXPONENTS  0.8688000D+00 0.8688000D+00 0.1098000D+00 0.1098000D+00 0.1098000D+00
EXPONENTS  0.3510000D-01 0.3510000D-01 0.3510000D-01 0.2690000D+00 0.2690000D+00
EXPONENTS  0.2690000D+00 0.2690000D+00 0.2690000D+00 0.2690000D+00 0.8190000D+00
EXPONENTS  0.8190000D+00 0.8190000D+00 0.8190000D+00 0.8190000D+00 0.8190000D+00
EXPONENTS  0.1010000D+00 0.1010000D+00 0.1010000D+00 0.1010000D+00 0.1010000D+00
EXPONENTS  0.1010000D+00 0.5570000D+00 0.5570000D+00 0.5570000D+00 0.5570000D+00
EXPONENTS  0.5570000D+00 0.5570000D+00 0.5570000D+00 0.5570000D+00 0.5570000D+00
EXPONENTS  0.5570000D+00 0.2180000D+00 0.2180000D+00 0.2180000D+00 0.2180000D+00
EXPONENTS  0.2180000D+00 0.2180000D+00 0.2180000D+00 0.2180000D+00 0.2180000D+00
EXPONENTS  0.2180000D+00 0.3741000D+06 0.5605000D+05 0.1276000D+05 0.3615000D+04
EXPONENTS  0.1183000D+04 0.4288000D+03 0.1678000D+03 0.6947000D+02 0.2984000D+02
EXPONENTS  0.1272000D+02 0.5244000D+01 0.2219000D+01 0.3490000D+00 0.3741000D+06
EXPONENTS  0.5605000D+05 0.1276000D+05 0.3615000D+04 0.1183000D+04 0.4288000D+03
EXPONENTS  0.1678000D+03 0.6947000D+02 0.2984000D+02 0.1272000D+02 0.5244000D+01
EXPONENTS  0.2219000D+01 0.3490000D+00 0.3741000D+06 0.5605000D+05 0.1276000D+05
EXPONENTS  0.3615000D+04 0.1183000D+04 0.4288000D+03 0.1678000D+03 0.6947000D+02
EXPONENTS  0.2984000D+02 0.1272000D+02 0.5244000D+01 0.2219000D+01 0.3490000D+00
EXPONENTS  0.7767000D+00 0.1322000D+00 0.4970000D-01 0.5744000D+03 0.1358000D+03
EXPONENTS  0.4319000D+02 0.1587000D+02 0.6208000D+01 0.2483000D+01 0.3229000D+00
EXPONENTS  0.5744000D+03 0.1358000D+03 0.4319000D+02 0.1587000D+02 0.6208000D+01
EXPONENTS  0.2483000D+01 0.3229000D+00 0.5744000D+03 0.1358000D+03 0.4319000D+02
EXPONENTS  0.1587000D+02 0.6208000D+01 0.2483000D+01 0.3229000D+00 0.5744000D+03
EXPONENTS  0.1358000D+03 0.4319000D+02 0.1587000D+02 0.6208000D+01 0.2483000D+01
EXPONENTS  0.3229000D+00 0.5744000D+03 0.1358000D+03 0.4319000D+02 0.1587000D+02
EXPONENTS  0.6208000D+01 0.2483000D+01 0.3229000D+00 0.5744000D+03 0.1358000D+03
EXPONENTS  0.4319000D+02 0.1587000D+02 0.6208000D+01 0.2483000D+01 0.3229000D+00
EXPONENTS  0.8688000D+00 0.8688000D+00 0.8688000D+00 0.1098000D+00 0.1098000D+00
EXPONENTS  0.1098000D+00 0.3510000D-01 0.3510000D-01 0.3510000D-01 0.2690000D+00
EXPONENTS  0.2690000D+00 0.2690000D+00 0.2690000D+00 0.2690000D+00 0.2690000D+00
EXPONENTS  0.8190000D+00 0.8190000D+00 0.8190000D+00 0.8190000D+00 0.8190000D+00
EXPONENTS  0.8190000D+00 0.1010000D+00 0.1010000D+00 0.1010000D+00 0.1010000D+00
EXPONENTS  0.1010000D+00 0.1010000D+00 0.5570000D+00 0.5570000D+00 0.5570000D+00
EXPONENTS  0.5570000D+00 0.5570000D+00 0.5570000D+00 0.5570000D+00 0.5570000D+00
EXPONENTS  0.5570000D+00 0.5570000D+00 0.2180000D+00 0.2180000D+00 0.2180000D+00
EXPONENTS  0.2180000D+00 0.2180000D+00 0.2180000D+00 0.2180000D+00 0.2180000D+00
EXPONENTS  0.2180000D+00 0.2180000D+00 0.3741000D+06 0.5605000D+05 0.1276000D+05
EXPONENTS  0.3615000D+04 0.1183000D+04 0.4288000D+03 0.1678000D+03 0.6947000D+02
EXPONENTS  0.2984000D+02 0.1272000D+02 0.5244000D+01 0.2219000D+01 0.3490000D+00
EXPONENTS  0.3741000D+06 0.5605000D+05 0.1276000D+05 0.3615000D+04 0.1183000D+04
EXPONENTS  0.4288000D+03 0.1678000D+03 0.6947000D+02 0.2984000D+02 0.1272000D+02
EXPONENTS  0.5244000D+01 0.2219000D+01 0.3490000D+00 0.3741000D+06 0.5605000D+05
EXPONENTS  0.1276000D+05 0.3615000D+04 0.1183000D+04 0.4288000D+03 0.1678000D+03
EXPONENTS  0.6947000D+02 0.2984000D+02 0.1272000D+02 0.5244000D+01 0.2219000D+01
EXPONENTS  0.3490000D+00 0.7767000D+00 0.1322000D+00 0.4970000D-01 0.5744000D+03
EXPONENTS  0.1358000D+03 0.4319000D+02 0.1587000D+02 0.6208000D+01 0.2483000D+01
EXPONENTS  0.3229000D+00 0.5744000D+03 0.1358000D+03 0.4319000D+02 0.1587000D+02
EXPONENTS  0.6208000D+01 0.2483000D+01 0.3229000D+00 0.5744000D+03 0.1358000D+03
EXPONENTS  0.4319000D+02 0.1587000D+02 0.6208000D+01 0.2483000D+01 0.3229000D+00
EXPONENTS  0.5744000D+03 0.1358000D+03 0.4319000D+02 0.1587000D+02 0.6208000D+01
EXPONENTS  0.2483000D+01 0.3229000D+00 0.5744000D+03 0.1358000D+03 0.4319000D+02
EXPONENTS  0.1587000D+02 0.6208000D+01 0.2483000D+01 0.3229000D+00 0.5744000D+03
EXPONENTS  0.1358000D+03 0.4319000D+02 0.1587000D+02 0.6208000D+01 0.2483000D+01
EXPONENTS  0.3229000D+00 0.8688000D+00 0.8688000D+00 0.8688000D+00 0.1098000D+00
EXPONENTS  0.1098000D+00 0.1098000D+00 0.3510000D-01 0.3510000D-01 0.3510000D-01
EXPONENTS  0.2690000D+00 0.2690000D+00 0.2690000D+00 0.2690000D+00 0.2690000D+00
EXPONENTS  0.2690000D+00 0.8190000D+00 0.8190000D+00 0.8190000D+00 0.8190000D+00
EXPONENTS  0.8190000D+00 0.8190000D+00 0.1010000D+00 0.1010000D+00 0.1010000D+00
EXPONENTS  0.1010000D+00 0.1010000D+00 0.1010000D+00 0.5570000D+00 0.5570000D+00
EXPONENTS  0.5570000D+00 0.5570000D+00 0.5570000D+00 0.5570000D+00 0.5570000D+00
EXPONENTS  0.5570000D+00 0.5570000D+00 0.5570000D+00 0.2180000D+00 0.2180000D+00
EXPONENTS  0.2180000D+00 0.2180000D+00 0.2180000D+00 0.2180000D+00 0.2180000D+00
EXPONENTS  0.2180000D+00 0.2180000D+00 0.2180000D+00
MO    1     MO 0.0        OCC NO =    2.0000000  ORB. ENERGY =  -88.208774
  0.58520569D+00  0.10940080D+01  0.18907875D+01  0.30582639D+01  0.46223868D+01
  0.63657851D+01  0.74401269D+01  0.64288309D+01  0.29984296D+01  0.40712197D+00
  0.10901723D-02  0.21384674D-02  0.97629971D-04 -0.12458753D-02 -0.23267252D-02
 -0.40360648D-02 -0.65443396D-02 -0.10075756D-01 -0.14350139D-01 -0.18452417D-01
 -0.19369546D-01 -0.13695642D-01  0.30329572D-03  0.98404957D-02  0.54184440D-02
 -0.22914508D-04  0.54986657D-03  0.10261324D-02  0.17822691D-02  0.28868805D-02
  0.44593855D-02  0.63575240D-02  0.82690621D-02  0.88125912D-02  0.65361156D-02
 -0.20344501D-03 -0.59213802D-02 -0.58009089D-02  0.27093685D-02 -0.30105781D-02
 -0.17985292D-02 -0.56637466D-03  0.24194610D-02  0.31742011D-02  0.34816148D-02
  0.28647278D-02  0.15103412D-02  0.39291938D-03 -0.43480536D-06 -0.76070302D-16
 -0.99800094D-16 -0.10946549D-15 -0.90069942D-16 -0.47486655D-16 -0.12353783D-16
  0.13670720D-19  0.14723659D-02  0.19316638D-02  0.21187408D-02  0.17433335D-02
  0.91911991D-03  0.23911156D-03 -0.26460132D-06 -0.16423728D-02 -0.21564455D-02
 -0.24261466D-02 -0.20442120D-02 -0.11435035D-02 -0.28461570D-03  0.13053847D-03
  0.11010683D-16  0.14457094D-16  0.16265206D-16  0.13704666D-16  0.76661979D-17
  0.19081010D-17 -0.87514707D-18 -0.99949607D-03 -0.13123444D-02 -0.14764760D-02
 -0.12440426D-02 -0.69590001D-03 -0.17320810D-03  0.79441578D-04 -0.65416886D-04
  0.44539699D-17 -0.39813158D-04 -0.38621868D-03  0.46303608D-19 -0.23501199D-03
 -0.10834967D-04 -0.57207486D-20 -0.65930332D-05 -0.18403874D-04  0.10318743D-03
 -0.84783561D-04 -0.73456136D-19  0.12828809D-03 -0.44379344D-19  0.35945827D-04
 -0.20393774D-03  0.16799191D-03  0.10755701D-18 -0.25518039D-03  0.65929822D-19
 -0.73573826D-05  0.49572582D-04 -0.42215200D-04  0.74352461D-21  0.67363361D-04
  0.10229784D-20  0.16394345D-04  0.17232994D-19  0.53961375D-04 -0.52860847D-04
 -0.23221572D-19 -0.12971642D-03  0.36778119D-05 -0.28477409D-19 -0.32167707D-04
  0.10901890D-19 -0.11724325D-04  0.86253482D-20 -0.41782973D-04  0.36878867D-04
 -0.58964393D-20  0.10290833D-03 -0.17058921D-05 -0.19979605D-19  0.22440586D-04
  0.27692135D-19 -0.53625546D-04 -0.10024984D-03 -0.17326303D-03 -0.28024517D-03
 -0.42357417D-03 -0.58333113D-03 -0.68177885D-03 -0.58910836D-03 -0.27476224D-03
 -0.37306776D-04 -0.99898355D-07 -0.19595928D-06 -0.89463595D-08  0.56703413D-04
  0.10589604D-03  0.18369306D-03  0.29785195D-03  0.45857699D-03  0.65311664D-03
  0.83982321D-03  0.88156446D-03  0.62332855D-03 -0.13803872D-04 -0.44786962D-03
 -0.24660917D-03  0.10429060D-05 -0.28551641D-04 -0.53281586D-04 -0.92543737D-04
 -0.14990032D-03 -0.23155213D-03 -0.33011235D-03 -0.42936833D-03 -0.45759090D-03
 -0.33938566D-03  0.10563815D-04  0.30746573D-03  0.30121029D-03 -0.14068307D-03
  0.73716971D-04  0.80908892D-03  0.25639323D-03  0.15759303D-03  0.20675347D-03
  0.22677704D-03  0.18659574D-03  0.98376967D-04  0.25593037D-04 -0.28321305D-07
  0.10279838D-17  0.13486588D-17  0.14792731D-17  0.12171694D-17  0.64171577D-18
  0.16694411D-18 -0.18474068D-21 -0.32570534D-02 -0.42730767D-02 -0.46869138D-02
 -0.38564670D-02 -0.20332057D-02 -0.52894401D-03  0.58533048D-06 -0.11835355D-03
 -0.15539893D-03 -0.17483428D-03 -0.14731110D-03 -0.82403762D-04 -0.20510129D-04
  0.94069332D-05 -0.83844956D-18 -0.11008894D-17 -0.12385748D-17 -0.10435929D-17
 -0.58377123D-18 -0.14529947D-18  0.66641339D-19  0.29850569D-02  0.39193978D-02
  0.44095868D-02  0.37154103D-02  0.20783484D-02  0.51729669D-03 -0.23725719D-03
 -0.15647470D-04 -0.99993924D-19  0.28305506D-04 -0.13570553D-04  0.82330482D-20
 -0.29779575D-03 -0.77178454D-06  0.11289145D-20 -0.12340868D-04 -0.21532557D-04
 -0.86455230D-05  0.30178080D-04 -0.47739251D-20 -0.38706817D-05 -0.89653853D-19
 -0.98278750D-05 -0.23785588D-04  0.33613463D-04  0.66406143D-20  0.35512594D-04
  0.85218510D-19 -0.65157717D-05 -0.10187362D-04  0.16703134D-04 -0.16169157D-20
  0.28953629D-05 -0.93392975D-21  0.11001783D-04 -0.10824348D-19  0.18214314D-04
  0.26383803D-05 -0.16923242D-19 -0.19836320D-04 -0.35643729D-04  0.49396285D-19
 -0.34806620D-04 -0.10138732D-19 -0.21124196D-06 -0.60511167D-20  0.89558027D-05
 -0.99598364D-06 -0.33148798D-20 -0.11219069D-04  0.16297095D-05  0.21468230D-19
 -0.15648340D-04  0.69417947D-20 -0.53626670D-04 -0.10025194D-03 -0.17326666D-03
 -0.28025104D-03 -0.42358304D-03 -0.58334336D-03 -0.68179314D-03 -0.58912071D-03
 -0.27476800D-03 -0.37307558D-04 -0.99900448D-07 -0.19596338D-06 -0.89465469D-08
  0.56705340D-04  0.10589964D-03  0.18369931D-03  0.29786208D-03  0.45859258D-03
  0.65313884D-03  0.83985176D-03  0.88159443D-03  0.62334974D-03 -0.13804341D-04
 -0.44788484D-03 -0.24661755D-03  0.10429414D-05 -0.28552814D-04 -0.53283776D-04
 -0.92547540D-04 -0.14990648D-03 -0.23156164D-03 -0.33012591D-03 -0.42938598D-03
 -0.45760971D-03 -0.33939960D-03  0.10564249D-04  0.30747836D-03  0.30122267D-03
 -0.14068885D-03  0.73712775D-04  0.80908903D-03  0.25639437D-03 -0.28203523D-02
 -0.37001486D-02 -0.40584991D-02 -0.33393974D-02 -0.17605963D-02 -0.45802395D-03
  0.50685020D-06  0.10182980D-17  0.13359515D-17  0.14653352D-17  0.12057010D-17
  0.63566941D-18  0.16537114D-18 -0.18300002D-21  0.16368636D-02  0.21474759D-02
  0.23554537D-02  0.19381047D-02  0.10218071D-02  0.26582591D-03 -0.29416347D-06
  0.25968054D-02  0.34096212D-02  0.38360538D-02  0.32321654D-02  0.18080280D-02
  0.45001449D-03 -0.20639833D-03 -0.83062193D-18 -0.10906116D-17 -0.12270116D-17
 -0.10338501D-17 -0.57832124D-18 -0.14394298D-18  0.66019186D-19 -0.14770046D-02
 -0.19393160D-02 -0.21818613D-02 -0.18383831D-02 -0.10283657D-02 -0.25595814D-03
  0.11739473D-03  0.17955429D-04 -0.99800053D-19 -0.26910173D-04 -0.27072395D-03
  0.95997913D-20  0.12480906D-03 -0.11315199D-04  0.11835954D-20  0.49861887D-05
  0.17678980D-04 -0.86477540D-05 -0.90312261D-05 -0.82087744D-19 -0.44455249D-04
  0.37731007D-19  0.38932947D-04 -0.23785236D-04 -0.15147711D-04  0.79446803D-19
 -0.14949003D-04 -0.36211638D-19  0.12981212D-04 -0.10187711D-04 -0.27935017D-05
 -0.21411894D-20 -0.17282856D-04 -0.90920043D-21 -0.28145490D-05 -0.10143462D-19
  0.64432267D-05 -0.29698812D-04  0.29155834D-19 -0.37668260D-04  0.38142459D-04
  0.12745512D-20  0.18338580D-04 -0.59091153D-19  0.47397275D-05 -0.62192033D-20
  0.33551684D-05 -0.14354789D-04  0.19608142D-19 -0.16371938D-04  0.13560635D-06
 -0.95053237D-21  0.63064333D-05 -0.16611215D-19
MO    2     MO 0.0        OCC NO =    2.0000000  ORB. ENERGY =  -88.117866
 -0.33194147D-06 -0.62054528D-06 -0.10724960D-05 -0.17347141D-05 -0.26219189D-05
 -0.36108125D-05 -0.42202027D-05 -0.36465735D-05 -0.17007749D-05 -0.23092848D-06
 -0.61836958D-09 -0.12129855D-08 -0.55377854D-10  0.18064204D-05  0.33735671D-05
  0.58519741D-05  0.94887736D-05  0.14609047D-04  0.20806565D-04  0.26754541D-04
  0.28084307D-04  0.19857595D-04 -0.43975476D-06 -0.14267939D-04 -0.78563143D-05
  0.33224220D-07 -0.88457089D-06 -0.16507401D-05 -0.28671380D-05 -0.46441275D-05
 -0.71738178D-05 -0.10227355D-04 -0.13302448D-04 -0.14176824D-04 -0.10514656D-04
  0.32728218D-06  0.95257302D-05  0.93319278D-05 -0.43585638D-05  0.30029810D-05
  0.31013196D-04  0.10831453D-04 -0.11424868D-02 -0.14988804D-02 -0.16440434D-02
 -0.13527449D-02 -0.71319388D-03 -0.18553934D-03  0.20531820D-06 -0.51829744D-15
 -0.67997802D-15 -0.74583224D-15 -0.61368259D-15 -0.32354560D-15 -0.84171272D-16
  0.93144094D-19  0.19608451D-02  0.25725220D-02  0.28216646D-02  0.23217103D-02
  0.12240516D-02  0.31844037D-03 -0.35238674D-06  0.10773547D-02  0.14145732D-02
  0.15914903D-02  0.13409509D-02  0.75010913D-03  0.18670063D-03 -0.85629907D-04
  0.73133742D-15  0.96025049D-15  0.10803465D-14  0.91027365D-15  0.50919432D-15
  0.12673743D-15 -0.58127891D-16 -0.18494671D-02 -0.24283616D-02 -0.27320705D-02
 -0.23019760D-02 -0.12876931D-02 -0.32050419D-03  0.14699866D-03 -0.11370997D-04
 -0.24593362D-17  0.20145539D-04 -0.44383653D-03 -0.39605542D-19  0.74268845D-03
 -0.10500276D-04  0.28628720D-20  0.17905665D-04 -0.45039521D-04  0.13063672D-06
  0.44908884D-04  0.87070595D-19  0.48296730D-04  0.10452635D-19 -0.20482772D-05
 -0.13972456D-05  0.34455228D-05 -0.17442760D-18 -0.18951420D-05 -0.28910626D-19
 -0.44136277D-04 -0.30047233D-06  0.44436749D-04  0.21526956D-20  0.46029585D-04
 -0.16064844D-19  0.33838649D-06 -0.24323337D-19 -0.12679147D-04 -0.31704539D-04
  0.49378677D-19 -0.15042390D-04  0.30689379D-04  0.23591334D-19  0.53079831D-04
  0.82594502D-19  0.12651629D-04 -0.11931071D-19  0.93140015D-06  0.65053748D-05
  0.16492074D-19  0.72904853D-05 -0.44460262D-04  0.19301139D-19 -0.10084686D-04
 -0.62600077D-19  0.42394795D+00  0.79254607D+00  0.13697670D+01  0.22155367D+01
  0.33486540D+01  0.46116461D+01  0.53899451D+01  0.46573192D+01  0.21721903D+01
  0.29493651D+00  0.78976731D-03  0.15491970D-02  0.70727313D-04 -0.83597955D-03
 -0.15612274D-02 -0.27081905D-02 -0.43912373D-02 -0.67608097D-02 -0.96289116D-02
 -0.12381530D-01 -0.12996923D-01 -0.91897453D-02  0.20351076D-03  0.66029507D-02
  0.36357639D-02 -0.15375584D-04  0.36067660D-03  0.67307589D-03  0.11690523D-02
  0.18936053D-02  0.29250660D-02  0.41701210D-02  0.54239653D-02  0.57804849D-02
  0.42872654D-02 -0.13344665D-03 -0.38840391D-02 -0.38050178D-02  0.17771690D-02
 -0.21356672D-02 -0.13995956D-02 -0.30328167D-03  0.12346345D-02  0.16197732D-02
  0.17766443D-02  0.14618511D-02  0.77071679D-03  0.20050408D-03 -0.22187821D-06
 -0.17811124D-16 -0.23367225D-16 -0.25630284D-16 -0.21089004D-16 -0.11118540D-16
 -0.28925186D-17  0.32008667D-20 -0.17429547D-02 -0.22866617D-02 -0.25081193D-02
 -0.20637203D-02 -0.10880342D-02 -0.28305507D-03  0.31322929D-06 -0.10193854D-02
 -0.13384592D-02 -0.15058569D-02 -0.12687983D-02 -0.70974796D-03 -0.17665482D-03
  0.81022413D-04  0.39209479D-17  0.51482285D-17  0.57921042D-17  0.48802857D-17
  0.27299634D-17  0.67948233D-18 -0.31164334D-18  0.12534628D-02  0.16458042D-02
  0.18516407D-02  0.15601473D-02  0.87272454D-03  0.21721936D-03 -0.99627265D-04
 -0.91397391D-04  0.10957985D-17  0.57491683D-04  0.14795916D-04  0.45414415D-19
  0.56771645D-03  0.22160536D-06 -0.26401377D-20  0.13263408D-04  0.46372122D-04
  0.55605108D-04 -0.10197723D-03  0.11934759D-19 -0.68012405D-04  0.44755555D-19
 -0.74806933D-04 -0.98274292D-04  0.17308123D-03  0.66125511D-20  0.53435098D-04
  0.21701806D-18  0.27885046D-04  0.25198100D-04 -0.53083146D-04  0.28794473D-20
 -0.42904055D-05 -0.30220679D-20  0.19637963D-05  0.99297813D-20 -0.23198475D-04
 -0.17508202D-04  0.27012880D-19  0.32834401D-04  0.11616813D-04 -0.56802224D-19
  0.36761023D-04  0.11628722D-19 -0.44187371D-05  0.64496675D-20  0.20427723D-04
  0.28218956D-05 -0.23736936D-20 -0.28318132D-04  0.10434316D-04 -0.16975309D-19
 -0.32965036D-04 -0.15145001D-19 -0.40332984D+00 -0.75400171D+00 -0.13031504D+01
 -0.21077872D+01 -0.31857970D+01 -0.43873652D+01 -0.51278127D+01 -0.44308171D+01
 -0.20665489D+01 -0.28059269D+00 -0.75135809D-03 -0.14738540D-02 -0.67287590D-04
  0.79780643D-03  0.14899375D-02  0.25845271D-02  0.41907214D-02  0.64520926D-02
  0.91892291D-02  0.11816156D-01  0.12403447D-01  0.87701163D-02 -0.19421790D-03
 -0.63014419D-02 -0.34697449D-02  0.14673493D-04 -0.34441994D-03 -0.64273856D-03
 -0.11163599D-02 -0.18082554D-02 -0.27932254D-02 -0.39821625D-02 -0.51794927D-02
 -0.55199430D-02 -0.40940269D-02  0.12743186D-03  0.37089751D-02  0.36335155D-02
 -0.16970672D-02  0.20345176D-02  0.13594975D-02  0.29181141D-03  0.80579079D-03
  0.10571536D-02  0.11595364D-02  0.95408493D-03  0.50301244D-03  0.13086006D-03
 -0.14481000D-06 -0.72493277D-17 -0.95107232D-17 -0.10431814D-16 -0.85834617D-17
 -0.45253708D-17 -0.11772876D-17  0.13027887D-20 -0.18448571D-02 -0.24203521D-02
 -0.26547573D-02 -0.21843764D-02 -0.11516464D-02 -0.29960397D-03  0.33154234D-06
 -0.50155298D-03 -0.65854211D-03 -0.74090428D-03 -0.62426787D-03 -0.34920670D-03
 -0.86916836D-04  0.39864249D-04  0.42958454D-17  0.56404712D-17  0.63459104D-17
  0.53469093D-17  0.29909861D-17  0.74445035D-18 -0.34144080D-18  0.14391478D-02
  0.18896099D-02  0.21259385D-02  0.17912639D-02  0.10020079D-02  0.24939773D-03
 -0.11438582D-03 -0.27138261D-05  0.63319236D-18  0.10768960D-03 -0.49526617D-03
  0.16351307D-19  0.23822011D-03 -0.11332308D-04 -0.62008297D-20  0.55313317D-05
  0.96810504D-04 -0.53211233D-04 -0.43599271D-04  0.11266044D-18 -0.76720930D-04
 -0.61704468D-19 -0.13685571D-03  0.92723427D-04  0.44132279D-04 -0.38882725D-19
  0.15951158D-03 -0.54053077D-19  0.36440896D-04 -0.24182944D-04 -0.12257952D-04
  0.92166918D-20 -0.60949672D-04  0.92087388D-21  0.43871383D-05 -0.37800034D-20
  0.47386588D-05 -0.21636040D-04 -0.18723546D-20 -0.46395497D-04  0.84746252D-05
  0.13212365D-19  0.32179521D-04  0.23785776D-18 -0.11904146D-04  0.10248757D-19
 -0.66751444D-05  0.26141604D-04 -0.32106742D-19  0.37007374D-04  0.95708333D-05
  0.13604707D-20 -0.16981941D-04 -0.29991621D-20
MO    3     MO 0.0        OCC NO =    2.0000000  ORB. ENERGY =  -88.117862
 -0.13341617D-04 -0.24941377D-04 -0.43106487D-04 -0.69722809D-04 -0.10538194D-03
 -0.14512823D-03 -0.16962125D-03 -0.14656556D-03 -0.68358698D-04 -0.92816344D-05
 -0.24853930D-07 -0.48753136D-07 -0.22257843D-08  0.72531786D-04  0.13545620D-03
  0.23496974D-03  0.38099530D-03  0.58658564D-03  0.83542971D-03  0.10742542D-02
  0.11276472D-02  0.79732648D-03 -0.17657129D-04 -0.57288938D-03 -0.31544844D-03
  0.13340261D-05 -0.35524213D-04 -0.66293438D-04 -0.11514377D-03 -0.18650735D-03
 -0.28809928D-03 -0.41072881D-03 -0.53422402D-03 -0.56933880D-03 -0.42226674D-03
  0.13143596D-04  0.38255167D-03  0.37476860D-03 -0.17503916D-03  0.12036929D-03
  0.12442652D-02  0.43461853D-03  0.15142748D-02  0.19866461D-02  0.21790479D-02
  0.17929552D-02  0.94528142D-03  0.24591755D-03 -0.27213284D-06  0.16980637D-16
  0.22277671D-16  0.24435209D-16  0.20105677D-16  0.10600111D-16  0.27576478D-17
 -0.30516184D-20  0.85516999D-03  0.11219365D-02  0.12305933D-02  0.10125517D-02
  0.53383726D-03  0.13887922D-03 -0.15368402D-06 -0.14350993D-02 -0.18842941D-02
 -0.21199579D-02 -0.17862248D-02 -0.99918914D-03 -0.24869614D-03  0.11406403D-03
 -0.22747865D-16 -0.29868085D-16 -0.33603610D-16 -0.28313582D-16 -0.15838221D-16
 -0.39421009D-17  0.18080374D-17 -0.81076416D-03 -0.10645383D-02 -0.11976773D-02
 -0.10091337D-02 -0.56449525D-03 -0.14050172D-03  0.64440858D-04  0.26153841D-04
  0.95066357D-19  0.15245855D-04  0.24796474D-03  0.49518221D-22  0.12563805D-03
  0.11842111D-04  0.19363281D-21  0.66001716D-05  0.12872535D-04  0.51737731D-05
 -0.18046308D-04 -0.60679047D-19  0.54205479D-04  0.73209195D-19 -0.10721155D-04
 -0.56033640D-04  0.66754795D-04  0.10689279D-18 -0.14993904D-03 -0.11679847D-18
  0.87471498D-05 -0.12065885D-04  0.33187349D-05  0.69417545D-20  0.50750203D-05
 -0.79115997D-20 -0.41700869D-05 -0.31443101D-20  0.31192032D-06  0.18167392D-04
 -0.10330735D-19 -0.10188320D-04 -0.56571311D-05  0.19763666D-19  0.92525594D-05
 -0.14000228D-19 -0.46764668D-05  0.34384206D-20 -0.25673772D-04  0.10633770D-04
 -0.20016101D-19  0.70200152D-04  0.33956304D-05  0.97008395D-20  0.68211645D-05
  0.32945595D-19  0.40330005D+00  0.75394602D+00  0.13030541D+01  0.21076316D+01
  0.31855617D+01  0.43870411D+01  0.51274340D+01  0.44304898D+01  0.20663962D+01
  0.28057197D+00  0.75130260D-03  0.14737451D-02  0.67282620D-04 -0.74537904D-03
 -0.13920271D-02 -0.24146864D-02 -0.39153305D-02 -0.60280971D-02 -0.85853642D-02
 -0.11039664D-01 -0.11588362D-01 -0.81937931D-02  0.18145498D-03  0.58873463D-02
  0.32417326D-02 -0.13709232D-04  0.31731430D-03  0.59215542D-03  0.10285031D-02
  0.16659468D-02  0.25734003D-02  0.36687687D-02  0.47718697D-02  0.50855268D-02
  0.37718295D-02 -0.11740305D-03 -0.34170810D-02 -0.33475600D-02  0.15635091D-02
 -0.19770605D-02 -0.77000437D-03 -0.22269700D-03 -0.70393505D-03 -0.92352445D-03
 -0.10129656D-02 -0.83348411D-03 -0.43942931D-03 -0.11431874D-03  0.12650534D-06
 -0.16211176D-16 -0.21268180D-16 -0.23327951D-16 -0.19194608D-16 -0.10119777D-16
 -0.26326877D-17  0.29133373D-20 -0.35567234D-02 -0.46662275D-02 -0.51181403D-02
 -0.42112870D-02 -0.22202738D-02 -0.57761029D-03  0.63918468D-06  0.59319542D-03
  0.77886920D-03  0.87628037D-03  0.73833246D-03  0.41301283D-03  0.10279805D-03
 -0.47148140D-04  0.32432853D-17  0.42584534D-17  0.47910472D-17  0.40368195D-17
  0.22581402D-17  0.56204651D-18 -0.25778161D-18  0.29102142D-02  0.38211290D-02
  0.42990278D-02  0.36222560D-02  0.20262392D-02  0.50432681D-03 -0.23130858D-03
  0.62467544D-04  0.10261107D-17  0.11066867D-03 -0.25313177D-04  0.35796445D-19
  0.35463900D-03 -0.14875323D-05 -0.18346435D-20  0.12852166D-04  0.21221085D-04
  0.46684418D-04 -0.67905503D-04 -0.99401448D-20  0.47775891D-04  0.41734605D-19
 -0.74284621D-04 -0.10896809D-03  0.18325271D-03  0.35191301D-19 -0.45084793D-04
 -0.37542695D-19  0.20083924D-04  0.19750833D-04 -0.39834757D-04 -0.19915708D-20
  0.53342917D-05 -0.64420286D-20  0.15231763D-05  0.14686776D-19 -0.43096271D-04
  0.23085468D-04 -0.66161128D-20  0.74899877D-04 -0.27654997D-04 -0.37444215D-19
  0.54388937D-04 -0.83213123D-20  0.33390979D-05 -0.16183786D-20  0.21894567D-04
 -0.50183541D-05  0.60631439D-20 -0.27496456D-04 -0.49989396D-05 -0.12080080D-20
 -0.38187244D-04  0.84491802D-20  0.42391961D+00  0.79249308D+00  0.13696755D+01
  0.22153886D+01  0.33484302D+01  0.46113378D+01  0.53895848D+01  0.46570078D+01
  0.21720450D+01  0.29491679D+00  0.78971451D-03  0.15490934D-02  0.70722585D-04
 -0.78609852D-03 -0.14680725D-02 -0.25465989D-02 -0.41292220D-02 -0.63574073D-02
 -0.90543760D-02 -0.11642752D-01 -0.12221425D-01 -0.86414137D-02  0.19136773D-03
  0.62089674D-02  0.34188260D-02 -0.14458157D-04  0.33488756D-03  0.62494972D-03
  0.10854629D-02  0.17582090D-02  0.27159184D-02  0.38719497D-02  0.50361418D-02
  0.53671696D-02  0.39807181D-02 -0.12390497D-03 -0.36063232D-02 -0.35329520D-02
  0.16500981D-02 -0.20809972D-02 -0.83877859D-03 -0.23752916D-03 -0.35268082D-02
 -0.46269803D-02 -0.50750921D-02 -0.41758662D-02 -0.22015993D-02 -0.57275207D-03
  0.63380856D-06  0.73600764D-17  0.96560194D-17  0.10591181D-16  0.87145920D-17
  0.45945052D-17  0.11952731D-17 -0.13226916D-20  0.11026272D-02  0.14465869D-02
  0.15866853D-02  0.13055498D-02  0.68831170D-03  0.17906617D-03 -0.19815497D-06
  0.28857909D-02  0.37890611D-02  0.42629492D-02  0.35918570D-02  0.20092344D-02
  0.50009436D-03 -0.22936737D-03 -0.39999319D-17 -0.52519350D-17 -0.59087809D-17
 -0.49785947D-17 -0.27849561D-17 -0.69316990D-18  0.31792111D-18 -0.88337579D-03
 -0.11598778D-02 -0.13049407D-02 -0.10995112D-02 -0.61505116D-03 -0.15308498D-03
  0.70212148D-04  0.12728665D-03 -0.68948410D-18 -0.74494166D-06  0.32841740D-03
 -0.48257621D-19 -0.19757775D-03  0.11309463D-04  0.27468356D-20 -0.75124836D-05
 -0.34447179D-04  0.49397152D-04 -0.14949973D-04 -0.70914430D-19  0.10430481D-03
  0.31875736D-19  0.11741940D-03 -0.11372797D-03 -0.36914321D-05  0.10450288D-18
 -0.24452510D-03 -0.14921052D-19 -0.26850892D-04  0.20981556D-04  0.58693361D-05
  0.76183869D-20  0.55099285D-04 -0.29713541D-20 -0.26269689D-04 -0.16408093D-19
 -0.27358760D-04  0.60065568D-04  0.42122751D-19  0.88179100D-04  0.18743499D-04
  0.71015279D-20 -0.61028191D-05 -0.56519102D-19  0.92970540D-05 -0.90910442D-22
  0.95884765D-05 -0.37570807D-04  0.29072851D-20 -0.42721666D-04  0.96796451D-05
 -0.26345537D-20  0.13956236D-04 -0.54465668D-20
MO    4     MO 0.0        OCC NO =    2.0000000  ORB. ENERGY =   -7.796611
 -0.36363637D-02 -0.67979706D-02 -0.11749016D-01 -0.19003506D-01 -0.28722686D-01
 -0.39555852D-01 -0.46231620D-01 -0.39947607D-01 -0.18631706D-01 -0.25297832D-02
 -0.67741362D-05 -0.13288055D-04 -0.60665521D-06 -0.15570884D+00 -0.29079289D+00
 -0.50442527D+00 -0.81790813D+00 -0.12592627D+01 -0.17934729D+01 -0.23061733D+01
 -0.24207958D+01 -0.17116741D+01  0.37905741D-01  0.12298600D+01  0.67719429D+00
 -0.28638432D-02 -0.15567107D-02 -0.29050525D-02 -0.50457285D-02 -0.81729607D-02
 -0.12624832D-01 -0.17998596D-01 -0.23410294D-01 -0.24949062D-01 -0.18504201D-01
  0.57596706D-03  0.16763842D-01  0.16422779D-01 -0.76704118D-02  0.59841980D-01