 Molden2AIM, Version 4.0.0 (06/02/2016)           Time: Fri Jun 29 01:18:28 2018
GAUSSIAN             35 MOL ORBITALS    581 PRIMITIVES        7 NUCLEI
  S    1    (CENTRE  1)   0.00000000  0.00000000  0.00000000  CHARGE = 16.0
  F    2    (CENTRE  2)   0.00000000  0.00000000 -3.02755290  CHARGE =  9.0
  F    3    (CENTRE  3)   3.02755290  0.00000000  0.00000000  CHARGE =  9.0
  F    4    (CENTRE  4)  -3.02755290  0.00000000  0.00000000  CHARGE =  9.0
  F    5    (CENTRE  5)   0.00000000  3.02755290  0.00000000  CHARGE =  9.0
  F    6    (CENTRE  6)   0.00000000 -3.02755290  0.00000000  CHARGE =  9.0
  F    7    (CENTRE  7)   0.00000000  0.00000000  3.02755290  CHARGE =  9.0
CENTRE ASSIGNMENTS    1  1  1  1  1  1  1  1  1  1  1  1  1  1  1  1  1  1  1  1
CENTRE ASSIGNMENTS    1  1  1  1  1  1  1  1  1  1  1  1  1  1  1  1  1  1  1  1
CENTRE ASSIGNMENTS    1  1  1  1  1  1  1  1  1  1  1  1  1  1  1  1  1  1  1  1
CENTRE ASSIGNMENTS    1  1  1  1  1  1  1  1  1  1  1  1  1  1  1  1  1  1  1  1
CENTRE ASSIGNMENTS    1  1  1  1  1  1  1  1  1  1  1  1  1  1  1  1  1  1  1  1
CENTRE ASSIGNMENTS    1  1  1  1  1  1  1  1  1  1  1  1  1  1  1  1  1  1  1  1
CENTRE ASSIGNMENTS    1  1  1  1  1  1  1  1  1  1  1  2  2  2  2  2  2  2  2  2
CENTRE ASSIGNMENTS    2  2  2  2  2  2  2  2  2  2  2  2  2  2  2  2  2  2  2  2
CENTRE ASSIGNMENTS    2  2  2  2  2  2  2  2  2  2  2  2  2  2  2  2  2  2  2  2
CENTRE ASSIGNMENTS    2  2  2  2  2  2  2  2  2  2  2  2  2  2  2  2  2  2  2  2
CENTRE ASSIGNMENTS    2  2  2  2  2  2  3  3  3  3  3  3  3  3  3  3  3  3  3  3
CENTRE ASSIGNMENTS    3  3  3  3  3  3  3  3  3  3  3  3  3  3  3  3  3  3  3  3
CENTRE ASSIGNMENTS    3  3  3  3  3  3  3  3  3  3  3  3  3  3  3  3  3  3  3  3
CENTRE ASSIGNMENTS    3  3  3  3  3  3  3  3  3  3  3  3  3  3  3  3  3  3  3  3
CENTRE ASSIGNMENTS    3  4  4  4  4  4  4  4  4  4  4  4  4  4  4  4  4  4  4  4
CENTRE ASSIGNMENTS    4  4  4  4  4  4  4  4  4  4  4  4  4  4  4  4  4  4  4  4
CENTRE ASSIGNMENTS    4  4  4  4  4  4  4  4  4  4  4  4  4  4  4  4  4  4  4  4
CENTRE ASSIGNMENTS    4  4  4  4  4  4  4  4  4  4  4  4  4  4  4  4  5  5  5  5
CENTRE ASSIGNMENTS    5  5  5  5  5  5  5  5  5  5  5  5  5  5  5  5  5  5  5  5
CENTRE ASSIGNMENTS    5  5  5  5  5  5  5  5  5  5  5  5  5  5  5  5  5  5  5  5
CENTRE ASSIGNMENTS    5  5  5  5  5  5  5  5  5  5  5  5  5  5  5  5  5  5  5  5
CENTRE ASSIGNMENTS    5  5  5  5  5  5  5  5  5  5  5  6  6  6  6  6  6  6  6  6
CENTRE ASSIGNMENTS    6  6  6  6  6  6  6  6  6  6  6  6  6  6  6  6  6  6  6  6
CENTRE ASSIGNMENTS    6  6  6  6  6  6  6  6  6  6  6  6  6  6  6  6  6  6  6  6
CENTRE ASSIGNMENTS    6  6  6  6  6  6  6  6  6  6  6  6  6  6  6  6  6  6  6  6
CENTRE ASSIGNMENTS    6  6  6  6  6  6  7  7  7  7  7  7  7  7  7  7  7  7  7  7
CENTRE ASSIGNMENTS    7  7  7  7  7  7  7  7  7  7  7  7  7  7  7  7  7  7  7  7
CENTRE ASSIGNMENTS    7  7  7  7  7  7  7  7  7  7  7  7  7  7  7  7  7  7  7  7
CENTRE ASSIGNMENTS    7  7  7  7  7  7  7  7  7  7  7  7  7  7  7  7  7  7  7  7
CENTRE ASSIGNMENTS    7
TYPE ASSIGNMENTS      1  1  1  1  1  1  1  1  1  1  1  1  1  1  1  1  1  1  1  1
TYPE ASSIGNMENTS      1  1  1  1  1  1  1  1  1  1  1  1  1  1  1  1  1  1  1  1
TYPE ASSIGNMENTS      1  1  2  2  2  2  2  2  2  3  3  3  3  3  3  3  4  4  4  4
TYPE ASSIGNMENTS      4  4  4  2  2  2  2  2  2  2  3  3  3  3  3  3  3  4  4  4
TYPE ASSIGNMENTS      4  4  4  4  2  3  4  2  3  4  2  3  4  5  6  7  8  9 10  5
TYPE ASSIGNMENTS      6  7  8  9 10  5  6  7  8  9 10 11 12 13 17 14 15 18 19 16
TYPE ASSIGNMENTS     20 11 12 13 17 14 15 18 19 16 20  1  1  1  1  1  1  1  1  1
TYPE ASSIGNMENTS      1  1  1  1  1  1  1  1  1  1  2  2  2  3  3  3  4  4  4  2
TYPE ASSIGNMENTS      3  4  2  3  4  2  3  4  5  6  7  8  9 10  5  6  7  8  9 10
TYPE ASSIGNMENTS      5  6  7  8  9 10 11 12 13 17 14 15 18 19 16 20 11 12 13 17
TYPE ASSIGNMENTS     14 15 18 19 16 20  1  1  1  1  1  1  1  1  1  1  1  1  1  1
TYPE ASSIGNMENTS      1  1  1  1  1  2  2  2  3  3  3  4  4  4  2  3  4  2  3  4
TYPE ASSIGNMENTS      2  3  4  5  6  7  8  9 10  5  6  7  8  9 10  5  6  7  8  9
TYPE ASSIGNMENTS     10 11 12 13 17 14 15 18 19 16 20 11 12 13 17 14 15 18 19 16
TYPE ASSIGNMENTS     20  1  1  1  1  1  1  1  1  1  1  1  1  1  1  1  1  1  1  1
TYPE ASSIGNMENTS      2  2  2  3  3  3  4  4  4  2  3  4  2  3  4  2  3  4  5  6
TYPE ASSIGNMENTS      7  8  9 10  5  6  7  8  9 10  5  6  7  8  9 10 11 12 13 17
TYPE ASSIGNMENTS     14 15 18 19 16 20 11 12 13 17 14 15 18 19 16 20  1  1  1  1
TYPE ASSIGNMENTS      1  1  1  1  1  1  1  1  1  1  1  1  1  1  1  2  2  2  3  3
TYPE ASSIGNMENTS      3  4  4  4  2  3  4  2  3  4  2  3  4  5  6  7  8  9 10  5
TYPE ASSIGNMENTS      6  7  8  9 10  5  6  7  8  9 10 11 12 13 17 14 15 18 19 16
TYPE ASSIGNMENTS     20 11 12 13 17 14 15 18 19 16 20  1  1  1  1  1  1  1  1  1
TYPE ASSIGNMENTS      1  1  1  1  1  1  1  1  1  1  2  2  2  3  3  3  4  4  4  2
TYPE ASSIGNMENTS      3  4  2  3  4  2  3  4  5  6  7  8  9 10  5  6  7  8  9 10
TYPE ASSIGNMENTS      5  6  7  8  9 10 11 12 13 17 14 15 18 19 16 20 11 12 13 17
TYPE ASSIGNMENTS     14 15 18 19 16 20  1  1  1  1  1  1  1  1  1  1  1  1  1  1
TYPE ASSIGNMENTS      1  1  1  1  1  2  2  2  3  3  3  4  4  4  2  3  4  2  3  4
TYPE ASSIGNMENTS      2  3  4  5  6  7  8  9 10  5  6  7  8  9 10  5  6  7  8  9
TYPE ASSIGNMENTS     10 11 12 13 17 14 15 18 19 16 20 11 12 13 17 14 15 18 19 16
TYPE ASSIGNMENTS     20
EXPONENTS  0.3741000D+06 0.5605000D+05 0.1276000D+05 0.3615000D+04 0.1183000D+04
EXPONENTS  0.4288000D+03 0.1678000D+03 0.6947000D+02 0.2984000D+02 0.1272000D+02
EXPONENTS  0.5244000D+01 0.2219000D+01 0.3490000D+00 0.3741000D+06 0.5605000D+05
EXPONENTS  0.1276000D+05 0.3615000D+04 0.1183000D+04 0.4288000D+03 0.1678000D+03
EXPONENTS  0.6947000D+02 0.2984000D+02 0.1272000D+02 0.5244000D+01 0.2219000D+01
EXPONENTS  0.3490000D+00 0.3741000D+06 0.5605000D+05 0.1276000D+05 0.3615000D+04
EXPONENTS  0.1183000D+04 0.4288000D+03 0.1678000D+03 0.6947000D+02 0.2984000D+02
EXPONENTS  0.1272000D+02 0.5244000D+01 0.2219000D+01 0.3490000D+00 0.7767000D+00
EXPONENTS  0.1322000D+00 0.4970000D-01 0.5744000D+03 0.1358000D+03 0.4319000D+02
EXPONENTS  0.1587000D+02 0.6208000D+01 0.2483000D+01 0.3229000D+00 0.5744000D+03
EXPONENTS  0.1358000D+03 0.4319000D+02 0.1587000D+02 0.6208000D+01 0.2483000D+01
EXPONENTS  0.3229000D+00 0.5744000D+03 0.1358000D+03 0.4319000D+02 0.1587000D+02
EXPONENTS  0.6208000D+01 0.2483000D+01 0.3229000D+00 0.5744000D+03 0.1358000D+03
EXPONENTS  0.4319000D+02 0.1587000D+02 0.6208000D+01 0.2483000D+01 0.3229000D+00
EXPONENTS  0.5744000D+03 0.1358000D+03 0.4319000D+02 0.1587000D+02 0.6208000D+01
EXPONENTS  0.2483000D+01 0.3229000D+00 0.5744000D+03 0.1358000D+03 0.4319000D+02
EXPONENTS  0.1587000D+02 0.6208000D+01 0.2483000D+01 0.3229000D+00 0.8688000D+00
EXPONENTS  0.8688000D+00 0.8688000D+00 0.1098000D+00 0.1098000D+00 0.1098000D+00
EXPONENTS  0.3510000D-01 0.3510000D-01 0.3510000D-01 0.2690000D+00 0.2690000D+00
EXPONENTS  0.2690000D+00 0.2690000D+00 0.2690000D+00 0.2690000D+00 0.8190000D+00
EXPONENTS  0.8190000D+00 0.8190000D+00 0.8190000D+00 0.8190000D+00 0.8190000D+00
EXPONENTS  0.1010000D+00 0.1010000D+00 0.1010000D+00 0.1010000D+00 0.1010000D+00
EXPONENTS  0.1010000D+00 0.5570000D+00 0.5570000D+00 0.5570000D+00 0.5570000D+00
EXPONENTS  0.5570000D+00 0.5570000D+00 0.5570000D+00 0.5570000D+00 0.5570000D+00
EXPONENTS  0.5570000D+00 0.2180000D+00 0.2180000D+00 0.2180000D+00 0.2180000D+00
EXPONENTS  0.2180000D+00 0.2180000D+00 0.2180000D+00 0.2180000D+00 0.2180000D+00
EXPONENTS  0.2180000D+00 0.1950000D+05 0.2923000D+04 0.6645000D+03 0.1875000D+03
EXPONENTS  0.6062000D+02 0.2142000D+02 0.7950000D+01 0.8815000D+00 0.1950000D+05
EXPONENTS  0.2923000D+04 0.6645000D+03 0.1875000D+03 0.6062000D+02 0.2142000D+02
EXPONENTS  0.7950000D+01 0.8815000D+00 0.2257000D+01 0.3041000D+00 0.9158000D-01
EXPONENTS  0.4388000D+02 0.9926000D+01 0.2930000D+01 0.4388000D+02 0.9926000D+01
EXPONENTS  0.2930000D+01 0.4388000D+02 0.9926000D+01 0.2930000D+01 0.9132000D+00
EXPONENTS  0.9132000D+00 0.9132000D+00 0.2672000D+00 0.2672000D+00 0.2672000D+00
EXPONENTS  0.7361000D-01 0.7361000D-01 0.7361000D-01 0.3107000D+01 0.3107000D+01
EXPONENTS  0.3107000D+01 0.3107000D+01 0.3107000D+01 0.3107000D+01 0.8550000D+00
EXPONENTS  0.8550000D+00 0.8550000D+00 0.8550000D+00 0.8550000D+00 0.8550000D+00
EXPONENTS  0.2920000D+00 0.2920000D+00 0.2920000D+00 0.2920000D+00 0.2920000D+00
EXPONENTS  0.2920000D+00 0.1917000D+01 0.1917000D+01 0.1917000D+01 0.1917000D+01
EXPONENTS  0.1917000D+01 0.1917000D+01 0.1917000D+01 0.1917000D+01 0.1917000D+01
EXPONENTS  0.1917000D+01 0.7240000D+00 0.7240000D+00 0.7240000D+00 0.7240000D+00
EXPONENTS  0.7240000D+00 0.7240000D+00 0.7240000D+00 0.7240000D+00 0.7240000D+00
EXPONENTS  0.7240000D+00 0.1950000D+05 0.2923000D+04 0.6645000D+03 0.1875000D+03
EXPONENTS  0.6062000D+02 0.2142000D+02 0.7950000D+01 0.8815000D+00 0.1950000D+05
EXPONENTS  0.2923000D+04 0.6645000D+03 0.1875000D+03 0.6062000D+02 0.2142000D+02
EXPONENTS  0.7950000D+01 0.8815000D+00 0.2257000D+01 0.3041000D+00 0.9158000D-01
EXPONENTS  0.4388000D+02 0.9926000D+01 0.2930000D+01 0.4388000D+02 0.9926000D+01
EXPONENTS  0.2930000D+01 0.4388000D+02 0.9926000D+01 0.2930000D+01 0.9132000D+00
EXPONENTS  0.9132000D+00 0.9132000D+00 0.2672000D+00 0.2672000D+00 0.2672000D+00
EXPONENTS  0.7361000D-01 0.7361000D-01 0.7361000D-01 0.3107000D+01 0.3107000D+01
EXPONENTS  0.3107000D+01 0.3107000D+01 0.3107000D+01 0.3107000D+01 0.8550000D+00
EXPONENTS  0.8550000D+00 0.8550000D+00 0.8550000D+00 0.8550000D+00 0.8550000D+00
EXPONENTS  0.2920000D+00 0.2920000D+00 0.2920000D+00 0.2920000D+00 0.2920000D+00
EXPONENTS  0.2920000D+00 0.1917000D+01 0.1917000D+01 0.1917000D+01 0.1917000D+01
EXPONENTS  0.1917000D+01 0.1917000D+01 0.1917000D+01 0.1917000D+01 0.1917000D+01
EXPONENTS  0.1917000D+01 0.7240000D+00 0.7240000D+00 0.7240000D+00 0.7240000D+00
EXPONENTS  0.7240000D+00 0.7240000D+00 0.7240000D+00 0.7240000D+00 0.7240000D+00
EXPONENTS  0.7240000D+00 0.1950000D+05 0.2923000D+04 0.6645000D+03 0.1875000D+03
EXPONENTS  0.6062000D+02 0.2142000D+02 0.7950000D+01 0.8815000D+00 0.1950000D+05
EXPONENTS  0.2923000D+04 0.6645000D+03 0.1875000D+03 0.6062000D+02 0.2142000D+02
EXPONENTS  0.7950000D+01 0.8815000D+00 0.2257000D+01 0.3041000D+00 0.9158000D-01
EXPONENTS  0.4388000D+02 0.9926000D+01 0.2930000D+01 0.4388000D+02 0.9926000D+01
EXPONENTS  0.2930000D+01 0.4388000D+02 0.9926000D+01 0.2930000D+01 0.9132000D+00
EXPONENTS  0.9132000D+00 0.9132000D+00 0.2672000D+00 0.2672000D+00 0.2672000D+00
EXPONENTS  0.7361000D-01 0.7361000D-01 0.7361000D-01 0.3107000D+01 0.3107000D+01
EXPONENTS  0.3107000D+01 0.3107000D+01 0.3107000D+01 0.3107000D+01 0.8550000D+00
EXPONENTS  0.8550000D+00 0.8550000D+00 0.8550000D+00 0.8550000D+00 0.8550000D+00
EXPONENTS  0.2920000D+00 0.2920000D+00 0.2920000D+00 0.2920000D+00 0.2920000D+00
EXPONENTS  0.2920000D+00 0.1917000D+01 0.1917000D+01 0.1917000D+01 0.1917000D+01
EXPONENTS  0.1917000D+01 0.1917000D+01 0.1917000D+01 0.1917000D+01 0.1917000D+01
EXPONENTS  0.1917000D+01 0.7240000D+00 0.7240000D+00 0.7240000D+00 0.7240000D+00
EXPONENTS  0.7240000D+00 0.7240000D+00 0.7240000D+00 0.7240000D+00 0.7240000D+00
EXPONENTS  0.7240000D+00 0.1950000D+05 0.2923000D+04 0.6645000D+03 0.1875000D+03
EXPONENTS  0.6062000D+02 0.2142000D+02 0.7950000D+01 0.8815000D+00 0.1950000D+05
EXPONENTS  0.2923000D+04 0.6645000D+03 0.1875000D+03 0.6062000D+02 0.2142000D+02
EXPONENTS  0.7950000D+01 0.8815000D+00 0.2257000D+01 0.3041000D+00 0.9158000D-01
EXPONENTS  0.4388000D+02 0.9926000D+01 0.2930000D+01 0.4388000D+02 0.9926000D+01
EXPONENTS  0.2930000D+01 0.4388000D+02 0.9926000D+01 0.2930000D+01 0.9132000D+00
EXPONENTS  0.9132000D+00 0.9132000D+00 0.2672000D+00 0.2672000D+00 0.2672000D+00
EXPONENTS  0.7361000D-01 0.7361000D-01 0.7361000D-01 0.3107000D+01 0.3107000D+01
EXPONENTS  0.3107000D+01 0.3107000D+01 0.3107000D+01 0.3107000D+01 0.8550000D+00
EXPONENTS  0.8550000D+00 0.8550000D+00 0.8550000D+00 0.8550000D+00 0.8550000D+00
EXPONENTS  0.2920000D+00 0.2920000D+00 0.2920000D+00 0.2920000D+00 0.2920000D+00
EXPONENTS  0.2920000D+00 0.1917000D+01 0.1917000D+01 0.1917000D+01 0.1917000D+01
EXPONENTS  0.1917000D+01 0.1917000D+01 0.1917000D+01 0.1917000D+01 0.1917000D+01
EXPONENTS  0.1917000D+01 0.7240000D+00 0.7240000D+00 0.7240000D+00 0.7240000D+00
EXPONENTS  0.7240000D+00 0.7240000D+00 0.7240000D+00 0.7240000D+00 0.7240000D+00
EXPONENTS  0.7240000D+00 0.1950000D+05 0.2923000D+04 0.6645000D+03 0.1875000D+03
EXPONENTS  0.6062000D+02 0.2142000D+02 0.7950000D+01 0.8815000D+00 0.1950000D+05
EXPONENTS  0.2923000D+04 0.6645000D+03 0.1875000D+03 0.6062000D+02 0.2142000D+02
EXPONENTS  0.7950000D+01 0.8815000D+00 0.2257000D+01 0.3041000D+00 0.9158000D-01
EXPONENTS  0.4388000D+02 0.9926000D+01 0.2930000D+01 0.4388000D+02 0.9926000D+01
EXPONENTS  0.2930000D+01 0.4388000D+02 0.9926000D+01 0.2930000D+01 0.9132000D+00
EXPONENTS  0.9132000D+00 0.9132000D+00 0.2672000D+00 0.2672000D+00 0.2672000D+00
EXPONENTS  0.7361000D-01 0.7361000D-01 0.7361000D-01 0.3107000D+01 0.3107000D+01
EXPONENTS  0.3107000D+01 0.3107000D+01 0.3107000D+01 0.3107000D+01 0.8550000D+00
EXPONENTS  0.8550000D+00 0.8550000D+00 0.8550000D+00 0.8550000D+00 0.8550000D+00
EXPONENTS  0.2920000D+00 0.2920000D+00 0.2920000D+00 0.2920000D+00 0.2920000D+00
EXPONENTS  0.2920000D+00 0.1917000D+01 0.1917000D+01 0.1917000D+01 0.1917000D+01
EXPONENTS  0.1917000D+01 0.1917000D+01 0.1917000D+01 0.1917000D+01 0.1917000D+01
EXPONENTS  0.1917000D+01 0.7240000D+00 0.7240000D+00 0.7240000D+00 0.7240000D+00
EXPONENTS  0.7240000D+00 0.7240000D+00 0.7240000D+00 0.7240000D+00 0.7240000D+00
EXPONENTS  0.7240000D+00 0.1950000D+05 0.2923000D+04 0.6645000D+03 0.1875000D+03
EXPONENTS  0.6062000D+02 0.2142000D+02 0.7950000D+01 0.8815000D+00 0.1950000D+05
EXPONENTS  0.2923000D+04 0.6645000D+03 0.1875000D+03 0.6062000D+02 0.2142000D+02
EXPONENTS  0.7950000D+01 0.8815000D+00 0.2257000D+01 0.3041000D+00 0.9158000D-01
EXPONENTS  0.4388000D+02 0.9926000D+01 0.2930000D+01 0.4388000D+02 0.9926000D+01
EXPONENTS  0.2930000D+01 0.4388000D+02 0.9926000D+01 0.2930000D+01 0.9132000D+00
EXPONENTS  0.9132000D+00 0.9132000D+00 0.2672000D+00 0.2672000D+00 0.2672000D+00
EXPONENTS  0.7361000D-01 0.7361000D-01 0.7361000D-01 0.3107000D+01 0.3107000D+01
EXPONENTS  0.3107000D+01 0.3107000D+01 0.3107000D+01 0.3107000D+01 0.8550000D+00
EXPONENTS  0.8550000D+00 0.8550000D+00 0.8550000D+00 0.8550000D+00 0.8550000D+00
EXPONENTS  0.2920000D+00 0.2920000D+00 0.2920000D+00 0.2920000D+00 0.2920000D+00
EXPONENTS  0.2920000D+00 0.1917000D+01 0.1917000D+01 0.1917000D+01 0.1917000D+01
EXPONENTS  0.1917000D+01 0.1917000D+01 0.1917000D+01 0.1917000D+01 0.1917000D+01
EXPONENTS  0.1917000D+01 0.7240000D+00 0.7240000D+00 0.7240000D+00 0.7240000D+00
EXPONENTS  0.7240000D+00 0.7240000D+00 0.7240000D+00 0.7240000D+00 0.7240000D+00
EXPONENTS  0.7240000D+00
MO    1     MO 0.0        OCC NO =    2.0000000  ORB. ENERGY =  -88.494558
  0.58562926D+00  0.10947999D+01  0.18921560D+01  0.30604774D+01  0.46257324D+01
  0.63703926D+01  0.74455120D+01  0.64334841D+01  0.30005999D+01  0.40741664D+00
  0.10909614D-02  0.21400153D-02  0.97700635D-04 -0.20011720D-02 -0.37372740D-02
 -0.64828800D-02 -0.10511766D-01 -0.16184060D-01 -0.23049737D-01 -0.29638969D-01
 -0.31112098D-01 -0.21998458D-01  0.48716506D-03  0.15806176D-01  0.87033097D-02
 -0.36806149D-04  0.96938815D-03  0.18090217D-02  0.31420541D-02  0.50894306D-02
  0.78616808D-02  0.11208007D-01  0.14577956D-01  0.15536172D-01  0.11522855D-01
 -0.35866370D-03 -0.10439107D-01 -0.10226722D-01  0.47764855D-02 -0.41976512D-02
 -0.72641477D-03 -0.10454065D-03 -0.14500540D-13 -0.19023919D-13 -0.20866339D-13
 -0.17169154D-13 -0.90519178D-14 -0.23548812D-14  0.26059161D-17 -0.53707208D-14
 -0.70460932D-14 -0.77284903D-14 -0.63591243D-14 -0.33526561D-14 -0.87220265D-15
  0.96518116D-18 -0.51287558D-13 -0.67286483D-13 -0.73803016D-13 -0.60726291D-13
 -0.32016102D-13 -0.83290764D-14  0.92169722D-17  0.13061916D-13  0.17150375D-13
  0.19295328D-13  0.16257773D-13  0.90943700D-14  0.22635702D-14 -0.10381824D-14
  0.49084560D-14  0.64448326D-14  0.72508712D-14  0.61094072D-14  0.34175168D-14
  0.85061296D-15 -0.39013209D-15  0.46260192D-13  0.60739913D-13  0.68336498D-13
  0.57578666D-13  0.32208699D-13  0.80166795D-14 -0.36768355D-14  0.63951538D-15
  0.19941038D-15  0.22367457D-14 -0.55847558D-15 -0.17430551D-15 -0.18740114D-14
  0.22044387D-16  0.84133454D-17  0.79626067D-16  0.22300309D-14 -0.12388107D-14
 -0.99122027D-15 -0.18092827D-18 -0.76435846D-18 -0.24109983D-17 -0.10838441D-14
  0.51493435D-15  0.56890975D-15  0.82818873D-19  0.54445911D-18  0.18254898D-17
  0.78339500D-15 -0.54075635D-15 -0.24263865D-15  0.66610440D-20 -0.52300959D-19
 -0.31119605D-18 -0.16094754D-15 -0.61130640D-16 -0.57028947D-15  0.25452758D-15
  0.68263777D-16  0.85566463D-15  0.22831505D-15  0.11512814D-15  0.85520378D-15
 -0.20789972D-20 -0.66136748D-16 -0.82428447D-17 -0.24950447D-15  0.54066586D-16
  0.96090619D-16  0.37206314D-15  0.14434366D-15 -0.71362084D-16  0.37645026D-15
  0.60776520D-20  0.45864116D-04  0.85492699D-04  0.14493114D-03  0.21946846D-03
  0.27444608D-03  0.23627251D-03  0.90831780D-04 -0.39358897D-06 -0.32846231D-04
 -0.61679404D-04 -0.10502939D-03 -0.16452792D-03 -0.22048676D-03 -0.23716324D-03
 -0.14239250D-03  0.93643298D-04  0.22269421D-04  0.18716633D-04  0.25100024D-04
  0.45111465D-17  0.44118027D-17  0.29150646D-17  0.14289340D-16  0.13974662D-16
  0.92336503D-17  0.96502679D-04  0.94377512D-04  0.62359213D-04  0.17277006D-16
 -0.20032802D-16  0.75095941D-04 -0.13003296D-15  0.11694380D-15 -0.23448770D-03
 -0.33044252D-16 -0.13938310D-16 -0.82913851D-05 -0.24232421D-03 -0.24232421D-03
  0.48464843D-03 -0.74657609D-19 -0.76182736D-16 -0.14487991D-15  0.79897604D-04
  0.79897604D-04 -0.15979521D-03  0.22417583D-19  0.42253165D-16  0.58424878D-16
  0.81519933D-04  0.81519933D-04 -0.16303987D-03  0.86608080D-20 -0.10901472D-15
  0.45382801D-16 -0.48671750D-16  0.12673521D-16  0.66961488D-03 -0.30845591D-16
  0.11194955D-16 -0.10044223D-02  0.17686084D-15 -0.49215518D-16 -0.10044223D-02
 -0.32457302D-18  0.18436851D-16 -0.43414892D-17 -0.28467660D-03  0.12310481D-16
 -0.96592354D-17  0.42701491D-03 -0.67621034D-16  0.22683703D-16  0.42701491D-03
  0.10218888D-18  0.45864116D-04  0.85492699D-04  0.14493114D-03  0.21946846D-03
  0.27444608D-03  0.23627251D-03  0.90831780D-04 -0.39358897D-06 -0.32846231D-04
 -0.61679404D-04 -0.10502939D-03 -0.16452792D-03 -0.22048676D-03 -0.23716324D-03
 -0.14239250D-03  0.93643298D-04  0.22269421D-04  0.18716633D-04  0.25100024D-04
 -0.96502679D-04 -0.94377512D-04 -0.62359213D-04  0.43011657D-17  0.42064461D-17
  0.27793768D-17 -0.11777527D-16 -0.11518164D-16 -0.76105383D-17 -0.75095941D-04
  0.13727134D-16  0.60410005D-16  0.23448770D-03 -0.11416624D-15 -0.29509512D-15
  0.82913851D-05 -0.12212368D-16 -0.11639322D-15  0.48464843D-03 -0.24232421D-03
 -0.24232421D-03 -0.56639221D-16  0.42470023D-15  0.61762805D-19 -0.15979521D-03
  0.79897604D-04  0.79897604D-04  0.16732454D-16 -0.21214106D-15 -0.12086827D-18
 -0.16303987D-03  0.81519933D-04  0.81519933D-04  0.68872415D-16  0.30225825D-15
  0.28049071D-18 -0.66961488D-03  0.61254933D-17 -0.22211301D-15  0.10044223D-02
  0.84276264D-16  0.56328886D-15  0.10044223D-02 -0.10265274D-15  0.10305019D-15
  0.39177371D-17  0.28467660D-03  0.30459135D-18  0.77350039D-16 -0.42701491D-03
 -0.37207749D-16 -0.20536888D-15 -0.42701491D-03  0.36293975D-16 -0.26681238D-16
 -0.12629976D-17  0.45864116D-04  0.85492699D-04  0.14493114D-03  0.21946846D-03
  0.27444608D-03  0.23627251D-03  0.90831780D-04 -0.39358897D-06 -0.32846231D-04
 -0.61679404D-04 -0.10502939D-03 -0.16452792D-03 -0.22048676D-03 -0.23716324D-03
 -0.14239250D-03  0.93643298D-04  0.22269421D-04  0.18716633D-04  0.25100024D-04
  0.96502679D-04  0.94377512D-04  0.62359213D-04  0.45162920D-17  0.44168349D-17
  0.29183896D-17 -0.12975928D-16 -0.12690174D-16 -0.83849343D-17  0.75095941D-04
  0.13550888D-16  0.61329801D-16 -0.23448770D-03 -0.11416993D-15 -0.29595842D-15
 -0.82913851D-05 -0.12148946D-16 -0.11641174D-15  0.48464843D-03 -0.24232421D-03
 -0.24232421D-03  0.57664768D-16 -0.42537577D-15  0.74917035D-19 -0.15979521D-03
  0.79897604D-04  0.79897604D-04 -0.17152202D-16  0.21247721D-15 -0.12486231D-18
 -0.16303987D-03  0.81519933D-04  0.81519933D-04 -0.68777838D-16 -0.30291020D-15
  0.28625113D-18  0.66961488D-03  0.59857699D-17 -0.22317380D-15 -0.10044223D-02
  0.84343771D-16  0.56827087D-15 -0.10044223D-02 -0.10230108D-15  0.10125052D-15
 -0.39803552D-17 -0.28467660D-03  0.35220484D-18  0.77678704D-16  0.42701491D-03
 -0.37265375D-16 -0.20678708D-15  0.42701491D-03  0.36208760D-16 -0.26249027D-16
  0.12833011D-17  0.45864116D-04  0.85492699D-04  0.14493114D-03  0.21946846D-03
  0.27444608D-03  0.23627251D-03  0.90831780D-04 -0.39358897D-06 -0.32846231D-04
 -0.61679404D-04 -0.10502939D-03 -0.16452792D-03 -0.22048676D-03 -0.23716324D-03
 -0.14239250D-03  0.93643298D-04  0.22269421D-04  0.18716633D-04  0.25100024D-04
  0.93763847D-17  0.91698994D-17  0.60589402D-17 -0.96502679D-04 -0.94377512D-04
 -0.62359213D-04 -0.15356318D-16 -0.15018143D-16 -0.99231221D-17 -0.58439950D-18
 -0.75095941D-04  0.63261976D-16 -0.50740919D-17  0.23448770D-03 -0.30148104D-15
 -0.33946901D-16  0.82913851D-05 -0.11630463D-15 -0.24232421D-03  0.48464843D-03
 -0.24232421D-03  0.18548382D-15 -0.73568997D-19  0.42054869D-15  0.79897604D-04
 -0.15979521D-03  0.79897604D-04 -0.83195295D-16  0.16364602D-20 -0.21107050D-15
  0.81519933D-04 -0.16303987D-03  0.81519933D-04  0.47287069D-16  0.66005963D-19
  0.30555852D-15 -0.43765642D-16 -0.66961488D-03 -0.22230235D-15  0.10256484D-15
  0.10044223D-02  0.97091033D-16  0.28732087D-16  0.10044223D-02  0.56981603D-15
  0.11465197D-17  0.15561190D-16  0.28467660D-03  0.77451626D-16 -0.34732005D-16
 -0.42701491D-03 -0.24722543D-16 -0.11951566D-16 -0.42701491D-03 -0.20763234D-15
 -0.37087956D-18  0.45864116D-04  0.85492699D-04  0.14493114D-03  0.21946846D-03
  0.27444608D-03  0.23627251D-03  0.90831780D-04 -0.39358897D-06 -0.32846231D-04
 -0.61679404D-04 -0.10502939D-03 -0.16452792D-03 -0.22048676D-03 -0.23716324D-03
 -0.14239250D-03  0.93643298D-04  0.22269421D-04  0.18716633D-04  0.25100024D-04
  0.92002972D-17  0.89976897D-17  0.59451540D-17  0.96502679D-04  0.94377512D-04
  0.62359213D-04 -0.16352211D-16 -0.15992105D-16 -0.10566660D-16 -0.39492523D-18
  0.75095941D-04  0.64334313D-16 -0.52557808D-17 -0.23448770D-03 -0.30350071D-15
 -0.33994750D-16 -0.82913851D-05 -0.11631141D-15 -0.24232421D-03  0.48464843D-03
 -0.24232421D-03 -0.18606220D-15 -0.88185360D-19 -0.41874619D-15  0.79897604D-04
 -0.15979521D-03  0.79897604D-04  0.83474570D-16 -0.13381300D-20  0.21030963D-15
  0.81519933D-04 -0.16303987D-03  0.81519933D-04 -0.47533925D-16  0.74873127D-19
 -0.30669899D-15 -0.44039831D-16  0.66961488D-03 -0.22449375D-15  0.10394552D-15
 -0.10044223D-02  0.97476981D-16  0.28173977D-16 -0.10044223D-02  0.57600426D-15
 -0.12709034D-17  0.15646957D-16 -0.28467660D-03  0.78224985D-16 -0.35145145D-16
  0.42701491D-03 -0.24741135D-16 -0.11795726D-16  0.42701491D-03 -0.20993382D-15
  0.41559574D-18  0.45864116D-04  0.85492699D-04  0.14493114D-03  0.21946846D-03
  0.27444608D-03  0.23627251D-03  0.90831780D-04 -0.39358897D-06 -0.32846231D-04
 -0.61679404D-04 -0.10502939D-03 -0.16452792D-03 -0.22048676D-03 -0.23716324D-03
 -0.14239250D-03  0.93643298D-04  0.22269421D-04  0.18716633D-04  0.25100024D-04
  0.43585230D-17  0.42625403D-17  0.28164406D-17  0.14032920D-16  0.13723889D-16
  0.90679540D-17 -0.96502679D-04 -0.94377512D-04 -0.62359213D-04  0.17364468D-16
 -0.20576354D-16 -0.75095941D-04 -0.12969246D-15  0.11881082D-15  0.23448770D-03
 -0.33050408D-16 -0.13675465D-16  0.82913851D-05 -0.24232421D-03 -0.24232421D-03
  0.48464843D-03 -0.28645189D-19  0.79128642D-16  0.14504184D-15  0.79897604D-04
  0.79897604D-04 -0.15979521D-03  0.92265589D-20 -0.43419283D-16 -0.58376538D-16
  0.81519933D-04  0.81519933D-04 -0.16303987D-03  0.60445955D-20  0.10900711D-15
 -0.46865871D-16 -0.48161119D-16  0.15291315D-16 -0.66961488D-03 -0.32452087D-16
  0.10825736D-16  0.10044223D-02  0.17693544D-15 -0.56699682D-16  0.10044223D-02
  0.28724357D-18  0.18239579D-16 -0.51961619D-17  0.28467660D-03  0.12665528D-16
 -0.97032547D-17 -0.42701491D-03 -0.67384265D-16  0.25291740D-16 -0.42701491D-03
 -0.85639489D-19
MO    2     MO 0.0        OCC NO =    2.0000000  ORB. ENERGY =  -24.330129
  0.10343085D-12  0.19335797D-12  0.33418293D-12  0.54052590D-12  0.81697325D-12
  0.11251062D-11  0.13149883D-11  0.11362491D-11  0.52995063D-12  0.71955847D-13
  0.19268003D-15  0.37795857D-15  0.17255387D-16 -0.16384881D-12 -0.30599464D-12
 -0.53079505D-12 -0.86066582D-12 -0.13250930D-11 -0.18872301D-11 -0.24267329D-11
 -0.25473474D-11 -0.18011551D-11  0.39887335D-13  0.12941533D-11  0.71259590D-12
 -0.30135560D-14  0.75862881D-13  0.14157136D-12  0.24589250D-12  0.39829130D-12
  0.61524349D-12  0.87712204D-12  0.11408493D-11  0.12158378D-11  0.90176160D-12
 -0.28068490D-13 -0.81694903D-12 -0.80032809D-12  0.37380068D-12 -0.73531770D-12
  0.76847233D-12  0.28862754D-12 -0.55864891D-03 -0.73291695D-03 -0.80389819D-03
 -0.66146017D-03 -0.34873488D-03 -0.90724334D-04  0.10039572D-06 -0.42807642D-03
 -0.56161295D-03 -0.61600381D-03 -0.50685770D-03 -0.26722540D-03 -0.69519419D-04
  0.76930325D-07  0.38928323D-01  0.51071839D-01  0.56018024D-01  0.46092518D-01
  0.24300887D-01  0.63219422D-02 -0.69958736D-05  0.50304389D-03  0.66049969D-03
  0.74310669D-03  0.62612357D-03  0.35024475D-03  0.87175205D-04 -0.39982749D-04
  0.38546791D-03  0.50612171D-03  0.56942105D-03  0.47978029D-03  0.26838237D-03
  0.66799825D-04 -0.30637618D-04 -0.35053599D-01 -0.46025589D-01 -0.51781891D-01
 -0.43630158D-01 -0.24406099D-01 -0.60746283D-02  0.27861172D-02  0.29192084D-04
  0.22369045D-04 -0.20341915D-02 -0.41811376D-05 -0.32038842D-05  0.29135414D-03
  0.21926622D-06  0.16801733D-06 -0.15279124D-04 -0.17677359D-11 -0.48972299D-12
  0.22574589D-11  0.17595881D-16  0.16231476D-15 -0.20696361D-15  0.59471763D-12
  0.15136612D-12 -0.74608375D-12 -0.65819414D-16 -0.21765128D-15  0.25238480D-15
 -0.12566659D-12 -0.21360508D-13  0.14702710D-12 -0.45601072D-17 -0.17873458D-16
 -0.28111704D-16 -0.95313942D-05 -0.73036302D-05  0.66417598D-03  0.14297091D-04
  0.10955445D-04 -0.99626396D-03  0.14297091D-04  0.10955445D-04 -0.99626396D-03
  0.48261207D-16  0.49932774D-08  0.38262031D-08 -0.34794626D-06 -0.74899158D-08
 -0.57393045D-08  0.52191939D-06 -0.74899163D-08 -0.57393048D-08  0.52191939D-06
  0.10690014D-17 -0.41935685D+00 -0.78169933D+00 -0.13251725D+01 -0.20067018D+01
 -0.25093876D+01 -0.21603490D+01 -0.83051702D+00  0.35987662D-02 -0.51569555D-03
 -0.96838491D-03 -0.16489925D-02 -0.25831370D-02 -0.34617074D-02 -0.37235331D-02
 -0.22356044D-02  0.14702275D-02 -0.47652165D-01  0.26655576D-03  0.60193856D-03
  0.99763473D-06  0.97566497D-06  0.64466310D-06  0.76445849D-06  0.74762370D-06
  0.49398659D-06 -0.49349310D-02 -0.48262547D-02 -0.31889106D-02 -0.80410796D-06
 -0.61616455D-06  0.83169239D-03  0.64034138D-06  0.49067499D-06  0.96138981D-03
 -0.43365606D-06 -0.33229803D-06  0.91887492D-04  0.12994857D-02  0.12994857D-02
 -0.25989714D-02 -0.24819190D-16 -0.13259428D-05 -0.10160314D-05 -0.44413772D-03
 -0.44413772D-03  0.88827544D-03 -0.12099111D-18 -0.38552662D-06 -0.29541784D-06
 -0.13320702D-03 -0.13320702D-03  0.26641404D-03  0.44774902D-17  0.54894059D-06
  0.42063721D-06  0.93064062D-06  0.71312285D-06 -0.48886770D-03  0.40017933D-05
  0.30664579D-05  0.73330155D-03 -0.67937152D-05 -0.52058264D-05  0.73330155D-03
 -0.65095189D-16 -0.63430491D-07 -0.48604941D-07  0.39231133D-03 -0.86940599D-06
 -0.66620053D-06 -0.58846700D-03  0.10596975D-05  0.81201536D-06 -0.58846700D-03
  0.14310451D-16 -0.60180672D-02 -0.11217938D-01 -0.19017163D-01 -0.28797589D-01
 -0.36011486D-01 -0.31002535D-01 -0.11918506D-01  0.51644839D-04 -0.74005957D-05
 -0.13897008D-04 -0.23664208D-04 -0.37069842D-04 -0.49677949D-04 -0.53435332D-04
 -0.32082503D-04  0.21098804D-04 -0.68384225D-03  0.38252645D-05  0.86382441D-05
  0.70819749D-04  0.69260167D-04  0.45763121D-04  0.76445848D-06  0.74762370D-06
  0.49398659D-06 -0.69518164D-04 -0.67987246D-04 -0.44922048D-04 -0.11935374D-04
 -0.61616455D-06  0.56032641D-04 -0.13796623D-04  0.49067499D-06 -0.44620898D-04
 -0.13186505D-05 -0.33229803D-06  0.30218448D-04 -0.37297076D-04  0.18648538D-04
  0.18648539D-04  0.10160314D-05 -0.92395650D-04  0.49650388D-16  0.12747380D-04
 -0.63736899D-05 -0.63736902D-05  0.29541784D-06 -0.26864645D-04 -0.27605420D-16
  0.38232297D-05 -0.19116148D-05 -0.19116149D-05 -0.42063721D-06  0.38251817D-04
  0.25959174D-16  0.70155969D-05  0.71312285D-06 -0.64849814D-04 -0.10523393D-04
 -0.52058264D-05  0.47340634D-03 -0.10523397D-04  0.30664578D-05 -0.27885689D-03
  0.17991182D-15 -0.56299447D-05 -0.48604941D-07  0.44200258D-05  0.84449163D-05
  0.81201536D-06 -0.73842880D-04  0.84449177D-05 -0.66620053D-06  0.60582803D-04
 -0.78706467D-16  0.60180665D-02  0.11217937D-01  0.19017160D-01  0.28797586D-01
  0.36011482D-01  0.31002531D-01  0.11918505D-01 -0.51644833D-04  0.74005948D-05
  0.13897006D-04  0.23664205D-04  0.37069837D-04  0.49677943D-04  0.53435326D-04
  0.32082499D-04 -0.21098801D-04  0.68384217D-03 -0.38252622D-05 -0.86382425D-05
  0.70819740D-04  0.69260159D-04  0.45763115D-04  0.76445848D-06  0.74762370D-06
  0.49398659D-06 -0.69518164D-04 -0.67987246D-04 -0.44922048D-04 -0.11935372D-04
 -0.61616455D-06  0.56032641D-04 -0.13796622D-04  0.49067499D-06 -0.44620898D-04
 -0.13186503D-05 -0.33229803D-06  0.30218448D-04  0.37297074D-04 -0.18648537D-04
 -0.18648536D-04 -0.10160314D-05  0.92395650D-04  0.34455243D-16 -0.12747379D-04
  0.63736898D-05  0.63736895D-05 -0.29541784D-06  0.26864645D-04 -0.25970585D-16
 -0.38232293D-05  0.19116147D-05  0.19116146D-05  0.42063721D-06 -0.38251817D-04
  0.32554007D-16  0.70155964D-05  0.71312285D-06 -0.64849814D-04 -0.10523397D-04