 Molden2AIM, Version 4.0.0 (06/02/2016)           Time: Fri Jun 29 00:55:23 2018
GAUSSIAN              9 MOL ORBITALS    185 PRIMITIVES        3 NUCLEI
  S    1    (CENTRE  1)   0.00000000  0.00000000  0.21618845  CHARGE = 16.0
  H    2    (CENTRE  2)   0.00000000  1.84470907 -1.55565278  CHARGE =  1.0
  H    3    (CENTRE  3)   0.00000000 -1.84470907 -1.55565278  CHARGE =  1.0
CENTRE ASSIGNMENTS    1  1  1  1  1  1  1  1  1  1  1  1  1  1  1  1  1  1  1  1
CENTRE ASSIGNMENTS    1  1  1  1  1  1  1  1  1  1  1  1  1  1  1  1  1  1  1  1
CENTRE ASSIGNMENTS    1  1  1  1  1  1  1  1  1  1  1  1  1  1  1  1  1  1  1  1
CENTRE ASSIGNMENTS    1  1  1  1  1  1  1  1  1  1  1  1  1  1  1  1  1  1  1  1
CENTRE ASSIGNMENTS    1  1  1  1  1  1  1  1  1  1  1  1  1  1  1  1  1  1  1  1
CENTRE ASSIGNMENTS    1  1  1  1  1  1  1  1  1  1  1  1  1  1  1  1  1  1  1  1
CENTRE ASSIGNMENTS    1  1  1  1  1  1  1  1  1  1  1  2  2  2  2  2  2  2  2  2
CENTRE ASSIGNMENTS    2  2  2  2  2  2  2  2  2  2  2  2  2  2  2  2  2  2  3  3
CENTRE ASSIGNMENTS    3  3  3  3  3  3  3  3  3  3  3  3  3  3  3  3  3  3  3  3
CENTRE ASSIGNMENTS    3  3  3  3  3
TYPE ASSIGNMENTS      1  1  1  1  1  1  1  1  1  1  1  1  1  1  1  1  1  1  1  1
TYPE ASSIGNMENTS      1  1  1  1  1  1  1  1  1  1  1  1  1  1  1  1  1  1  1  1
TYPE ASSIGNMENTS      1  1  2  2  2  2  2  2  2  3  3  3  3  3  3  3  4  4  4  4
TYPE ASSIGNMENTS      4  4  4  2  2  2  2  2  2  2  3  3  3  3  3  3  3  4  4  4
TYPE ASSIGNMENTS      4  4  4  4  2  3  4  2  3  4  2  3  4  5  6  7  8  9 10  5
TYPE ASSIGNMENTS      6  7  8  9 10  5  6  7  8  9 10 11 12 13 17 14 15 18 19 16
TYPE ASSIGNMENTS     20 11 12 13 17 14 15 18 19 16 20  1  1  1  1  1  1  2  3  4
TYPE ASSIGNMENTS      2  3  4  2  3  4  5  6  7  8  9 10  5  6  7  8  9 10  1  1
TYPE ASSIGNMENTS      1  1  1  1  2  3  4  2  3  4  2  3  4  5  6  7  8  9 10  5
TYPE ASSIGNMENTS      6  7  8  9 10
EXPONENTS  0.3741000D+06 0.5605000D+05 0.1276000D+05 0.3615000D+04 0.1183000D+04
EXPONENTS  0.4288000D+03 0.1678000D+03 0.6947000D+02 0.2984000D+02 0.1272000D+02
EXPONENTS  0.5244000D+01 0.2219000D+01 0.3490000D+00 0.3741000D+06 0.5605000D+05
EXPONENTS  0.1276000D+05 0.3615000D+04 0.1183000D+04 0.4288000D+03 0.1678000D+03
EXPONENTS  0.6947000D+02 0.2984000D+02 0.1272000D+02 0.5244000D+01 0.2219000D+01
EXPONENTS  0.3490000D+00 0.3741000D+06 0.5605000D+05 0.1276000D+05 0.3615000D+04
EXPONENTS  0.1183000D+04 0.4288000D+03 0.1678000D+03 0.6947000D+02 0.2984000D+02
EXPONENTS  0.1272000D+02 0.5244000D+01 0.2219000D+01 0.3490000D+00 0.7767000D+00
EXPONENTS  0.1322000D+00 0.4970000D-01 0.5744000D+03 0.1358000D+03 0.4319000D+02
EXPONENTS  0.1587000D+02 0.6208000D+01 0.2483000D+01 0.3229000D+00 0.5744000D+03
EXPONENTS  0.1358000D+03 0.4319000D+02 0.1587000D+02 0.6208000D+01 0.2483000D+01
EXPONENTS  0.3229000D+00 0.5744000D+03 0.1358000D+03 0.4319000D+02 0.1587000D+02
EXPONENTS  0.6208000D+01 0.2483000D+01 0.3229000D+00 0.5744000D+03 0.1358000D+03
EXPONENTS  0.4319000D+02 0.1587000D+02 0.6208000D+01 0.2483000D+01 0.3229000D+00
EXPONENTS  0.5744000D+03 0.1358000D+03 0.4319000D+02 0.1587000D+02 0.6208000D+01
EXPONENTS  0.2483000D+01 0.3229000D+00 0.5744000D+03 0.1358000D+03 0.4319000D+02
EXPONENTS  0.1587000D+02 0.6208000D+01 0.2483000D+01 0.3229000D+00 0.8688000D+00
EXPONENTS  0.8688000D+00 0.8688000D+00 0.1098000D+00 0.1098000D+00 0.1098000D+00
EXPONENTS  0.3510000D-01 0.3510000D-01 0.3510000D-01 0.2690000D+00 0.2690000D+00
EXPONENTS  0.2690000D+00 0.2690000D+00 0.2690000D+00 0.2690000D+00 0.8190000D+00
EXPONENTS  0.8190000D+00 0.8190000D+00 0.8190000D+00 0.8190000D+00 0.8190000D+00
EXPONENTS  0.1010000D+00 0.1010000D+00 0.1010000D+00 0.1010000D+00 0.1010000D+00
EXPONENTS  0.1010000D+00 0.5570000D+00 0.5570000D+00 0.5570000D+00 0.5570000D+00
EXPONENTS  0.5570000D+00 0.5570000D+00 0.5570000D+00 0.5570000D+00 0.5570000D+00
EXPONENTS  0.5570000D+00 0.2180000D+00 0.2180000D+00 0.2180000D+00 0.2180000D+00
EXPONENTS  0.2180000D+00 0.2180000D+00 0.2180000D+00 0.2180000D+00 0.2180000D+00
EXPONENTS  0.2180000D+00 0.3387000D+02 0.5095000D+01 0.1159000D+01 0.3258000D+00
EXPONENTS  0.1027000D+00 0.2526000D-01 0.1407000D+01 0.1407000D+01 0.1407000D+01
EXPONENTS  0.3880000D+00 0.3880000D+00 0.3880000D+00 0.1020000D+00 0.1020000D+00
EXPONENTS  0.1020000D+00 0.1057000D+01 0.1057000D+01 0.1057000D+01 0.1057000D+01
EXPONENTS  0.1057000D+01 0.1057000D+01 0.2470000D+00 0.2470000D+00 0.2470000D+00
EXPONENTS  0.2470000D+00 0.2470000D+00 0.2470000D+00 0.3387000D+02 0.5095000D+01
EXPONENTS  0.1159000D+01 0.3258000D+00 0.1027000D+00 0.2526000D-01 0.1407000D+01
EXPONENTS  0.1407000D+01 0.1407000D+01 0.3880000D+00 0.3880000D+00 0.3880000D+00
EXPONENTS  0.1020000D+00 0.1020000D+00 0.1020000D+00 0.1057000D+01 0.1057000D+01
EXPONENTS  0.1057000D+01 0.1057000D+01 0.1057000D+01 0.1057000D+01 0.2470000D+00
EXPONENTS  0.2470000D+00 0.2470000D+00 0.2470000D+00 0.2470000D+00 0.2470000D+00
MO    1     MO 0.0        OCC NO =    2.0000000  ORB. ENERGY =  -88.091529
  0.58537179D+00  0.10943186D+01  0.18913241D+01  0.30591319D+01  0.46236988D+01
  0.63675919D+01  0.74422386D+01  0.64306557D+01  0.29992807D+01  0.40723752D+00
  0.10904818D-02  0.21390744D-02  0.97657682D-04 -0.15395754D-02 -0.28752227D-02
 -0.49875186D-02 -0.80870890D-02 -0.12450994D-01 -0.17733012D-01 -0.22802352D-01
 -0.23935684D-01 -0.16924225D-01  0.37479405D-03  0.12160274D-01  0.66957771D-02
 -0.28316328D-04  0.70331624D-03  0.13124922D-02  0.22796418D-02  0.36925139D-02
  0.57038533D-02  0.81316999D-02  0.10576685D-01  0.11271896D-01  0.83601305D-02
 -0.26021982D-03 -0.75738427D-02 -0.74197518D-02  0.34654641D-02 -0.36526509D-02
 -0.64978381D-03 -0.18910195D-03  0.42544330D-16  0.55815844D-16  0.61221473D-16
  0.50373998D-16  0.26558168D-16  0.69091801D-17 -0.76457122D-20  0.76516891D-15
  0.10038599D-14  0.11010813D-14  0.90598718D-15  0.47765436D-15  0.12426309D-15
 -0.13750978D-18 -0.18972445D-01 -0.24890814D-01 -0.27301430D-01 -0.22464049D-01
 -0.11843491D-01 -0.30811165D-02  0.34095696D-05 -0.79947875D-17 -0.10497205D-16
 -0.11810063D-16 -0.99508711D-17 -0.55663778D-17 -0.13854601D-17  0.63543875D-18
 -0.86893622D-15 -0.11409186D-14 -0.12836103D-14 -0.10815387D-14 -0.60499760D-15
 -0.15058267D-15  0.69064469D-16  0.16621033D-01  0.21823518D-01  0.24552929D-01
  0.20687699D-01  0.11572409D-01  0.28803490D-02 -0.13210668D-02 -0.26964682D-17
  0.60327131D-16  0.66106136D-03 -0.28449697D-19  0.12224326D-14  0.29134157D-03
  0.31939119D-20  0.37017673D-16  0.75527048D-05 -0.12457329D-03  0.46262636D-04
  0.78310654D-04  0.34264453D-20 -0.10301216D-18 -0.47868127D-15 -0.39675928D-03
  0.24715322D-03  0.14960605D-03 -0.19569265D-19  0.68000598D-19  0.21244992D-15
  0.31271642D-04 -0.12188707D-04 -0.19082935D-04 -0.60765758D-22 -0.51130356D-21
 -0.22459495D-15 -0.23729402D-19 -0.29747874D-17  0.54556759D-04  0.37469467D-19
 -0.75296747D-17  0.35002849D-03  0.33718739D-19  0.16454037D-16 -0.51369876D-03
 -0.10833023D-21 -0.52180079D-20 -0.97859894D-17 -0.53922466D-05  0.78252643D-20
 -0.62439898D-16 -0.26586026D-04  0.78287593D-20  0.91797867D-16  0.42762766D-04
 -0.58312374D-21  0.50786707D-04  0.91595917D-04  0.13505813D-03 -0.53426737D-03
  0.32336903D-03  0.92263529D-05  0.81856791D-19  0.18018599D-04  0.13288753D-05
 -0.12740347D-18  0.62404845D-03 -0.56314809D-03 -0.80418421D-20 -0.58594117D-05
 -0.96134766D-05  0.26588415D-03 -0.16173402D-03 -0.10415013D-03  0.29380169D-19
  0.18989701D-21  0.79926499D-03  0.65775035D-04 -0.43064791D-04 -0.22710244D-04
  0.42623785D-19 -0.40393986D-19  0.18472467D-03  0.50786707D-04  0.91595917D-04
  0.13505813D-03 -0.53426737D-03  0.32336903D-03  0.92263529D-05  0.77546282D-19
 -0.18018599D-04  0.13288753D-05 -0.12326406D-18 -0.62404845D-03 -0.56314809D-03
 -0.77048656D-20  0.58594117D-05 -0.96134766D-05  0.26588415D-03 -0.16173402D-03
 -0.10415013D-03 -0.31708676D-19 -0.27735738D-20 -0.79926499D-03  0.65775035D-04
 -0.43064791D-04 -0.22710244D-04 -0.41864207D-19 -0.38943362D-19 -0.18472467D-03
MO    2     MO 0.0        OCC NO =    2.0000000  ORB. ENERGY =   -7.690465
 -0.39143607D-02 -0.73176699D-02 -0.12647218D-01 -0.20456308D-01 -0.30918512D-01
 -0.42579864D-01 -0.49765990D-01 -0.43001570D-01 -0.20056085D-01 -0.27231831D-02
 -0.72920134D-05 -0.14303916D-04 -0.65303350D-06 -0.15524491D+00 -0.28992649D+00
 -0.50292236D+00 -0.81547121D+00 -0.12555108D+01 -0.17881293D+01 -0.22993022D+01
 -0.24135831D+01 -0.17065743D+01  0.37792803D-01  0.12261957D+01  0.67517663D+00
 -0.28553105D-02 -0.17578303D-02 -0.32803714D-02 -0.56976125D-02 -0.92288681D-02
 -0.14255900D-01 -0.20323928D-01 -0.26434791D-01 -0.28172362D-01 -0.20894855D-01
  0.65037925D-03  0.18929650D-01  0.18544524D-01 -0.86613923D-02  0.60867526D-01
  0.34982383D-02  0.52083273D-03  0.17246977D-14  0.22627095D-14  0.24818474D-14
  0.20421034D-14  0.10766373D-14  0.28009013D-15 -0.30994829D-18 -0.13951651D-12
 -0.18303807D-12 -0.20076486D-12 -0.16519251D-12 -0.87092759D-13 -0.22657420D-13
  0.25072745D-16 -0.49378302D-01 -0.64781644D-01 -0.71055589D-01 -0.58465665D-01
 -0.30824255D-01 -0.80190142D-02  0.88738568D-05 -0.53410693D-17 -0.70128566D-17
 -0.78899365D-17 -0.66478680D-17 -0.37187242D-17 -0.92558287D-18  0.42451690D-18
  0.13097183D-12  0.17196681D-12  0.19347426D-12  0.16301669D-12  0.91189251D-13
  0.22696819D-13 -0.10409855D-13 -0.21491856D-01 -0.28218938D-01 -0.31748208D-01
 -0.26750266D-01 -0.14963724D-01 -0.37244404D-02  0.17082078D-02  0.37995585D-17
  0.42093285D-14 -0.19348344D-02 -0.71918292D-19 -0.34583561D-13 -0.90033584D-03
  0.74816278D-20 -0.89451529D-15 -0.18314744D-04  0.14141907D-03 -0.62809564D-04
 -0.78609509D-04  0.73899778D-18  0.10343412D-17  0.18241115D-13 -0.34920885D-03
  0.30543846D-03  0.43770388D-04 -0.65726966D-17 -0.10091446D-16 -0.33882008D-14
 -0.76532145D-04  0.33522975D-04  0.43009170D-04 -0.30681637D-19 -0.63323056D-19
  0.60720880D-14 -0.30245733D-19  0.24397802D-15 -0.40279588D-04  0.79821895D-19
  0.23803548D-14 -0.31680257D-03  0.10915302D-19 -0.31122889D-14  0.43764133D-03
  0.18604068D-18  0.15257606D-19  0.34217490D-15  0.89110096D-05 -0.39870341D-20
  0.18588322D-14  0.53348172D-04 -0.41785784D-19 -0.28853569D-14 -0.80081200D-04
 -0.91068792D-19 -0.67413700D-05 -0.12158338D-04 -0.17927463D-04  0.35394224D-03
 -0.13220677D-02 -0.27182176D-04 -0.42202789D-19  0.24119617D-04 -0.10668592D-03
  0.21814633D-19 -0.66570418D-03  0.63535465D-03 -0.27264084D-19  0.12522106D-03
 -0.92102811D-04 -0.91723735D-04  0.10499298D-03 -0.13269240D-04 -0.62571030D-19
  0.10938309D-19 -0.35071934D-03 -0.10171821D-03  0.64171806D-04  0.37546404D-04
 -0.49658553D-19 -0.52956151D-19 -0.27491186D-03 -0.67413700D-05 -0.12158338D-04
 -0.17927463D-04  0.35394224D-03 -0.13220677D-02 -0.27182176D-04 -0.59087038D-18
 -0.24119617D-04 -0.10668592D-03  0.64266903D-18  0.66570418D-03  0.63535465D-03
  0.77726318D-20 -0.12522106D-03 -0.92102811D-04 -0.91723735D-04  0.10499298D-03
 -0.13269240D-04 -0.78231826D-18 -0.77236160D-18  0.35071934D-03 -0.10171821D-03
  0.64171806D-04  0.37546404D-04  0.20835394D-18  0.16447806D-18  0.27491186D-03
MO    3     MO 0.0        OCC NO =    2.0000000  ORB. ENERGY =   -5.713848
  0.42211403D-16  0.78911765D-16  0.13638417D-15  0.22059527D-15  0.33341684D-15
  0.45916969D-15  0.53666292D-15  0.46371725D-15  0.21627938D-15  0.29366067D-16
  0.78635092D-19  0.15424954D-18  0.70421359D-20 -0.54261006D-16 -0.10133474D-15
 -0.17578079D-15 -0.28502247D-15 -0.43882454D-15 -0.62498471D-15 -0.80364921D-15
 -0.84359253D-15 -0.59647970D-15  0.13209293D-16  0.42857837D-15  0.23598688D-15
 -0.99798452D-18  0.25234686D-16  0.47091658D-16  0.81792572D-16  0.13248582D-15
  0.20465182D-15  0.29176192D-15  0.37948695D-15  0.40443079D-15  0.29995791D-15
 -0.93365759D-17 -0.27174624D-15 -0.26621752D-15  0.12433937D-15 -0.46578690D-15
  0.17206948D-14  0.28442767D-15 -0.58270065D-12 -0.76447152D-12 -0.83850874D-12
 -0.68993828D-12 -0.36374910D-12 -0.94630325D-13  0.10471810D-15  0.97090806D+01
  0.12737785D+02  0.13971409D+02  0.11495896D+02  0.60608640D+01  0.15767503D+01
 -0.17448350D-02  0.22149655D-12  0.29059141D-12  0.31873448D-12  0.26225978D-12
  0.13826854D-12  0.35970940D-13 -0.39805512D-16  0.22861029D-16  0.30016671D-16
  0.33770778D-16  0.28454434D-16  0.15917011D-16  0.39617118D-17 -0.18170319D-17
 -0.38866257D-01 -0.51031632D-01 -0.57414027D-01 -0.48375659D-01 -0.27060665D-01
 -0.67353445D-02  0.30891535D-02  0.74267175D-14  0.97513252D-14  0.10970898D-13
  0.92438114D-14  0.51708585D-14  0.12870161D-14 -0.59028762D-15 -0.51134689D-14
  0.83096888D-01  0.21207670D-14 -0.78492527D-17  0.16658179D-02 -0.27915938D-15
 -0.17036100D-17  0.13490250D-04 -0.54631181D-17 -0.18201403D-15  0.29002421D-15
 -0.10801019D-15  0.52621334D-16 -0.54455443D-17 -0.20513799D-02 -0.39794102D-16
  0.15886318D-16  0.23907784D-16 -0.59519294D-15  0.15800801D-15 -0.36951229D-02
 -0.13309651D-16  0.24365321D-16 -0.11055670D-16  0.95127361D-18  0.11507545D-17
 -0.20608904D-03  0.82793679D-17 -0.27070818D-04  0.97825007D-16 -0.16059334D-16
 -0.12857563D-02  0.11106433D-15 -0.87787698D-17  0.13669688D-02 -0.40453935D-15
 -0.61761031D-18 -0.69298452D-18 -0.35321934D-04  0.28352236D-16  0.13386603D-17
 -0.58911299D-04  0.14805006D-16  0.74029327D-18  0.16487710D-03 -0.99861714D-16
 -0.22468076D-19  0.19535735D-03  0.35233503D-03  0.51951779D-03 -0.28199014D-02
 -0.28119848D-02 -0.48417210D-04  0.43982411D-17  0.26351576D-03 -0.24379312D-03
 -0.64106944D-17  0.18529885D-02 -0.16806454D-02  0.33681146D-18  0.41944750D-03
 -0.41288144D-03  0.72435983D-03 -0.31922809D-03 -0.40513174D-03 -0.15503185D-16
  0.20203125D-16  0.23266907D-02  0.64701752D-04 -0.45704020D-04 -0.18997733D-04
  0.19784765D-17 -0.12746737D-17  0.34811716D-03 -0.19535735D-03 -0.35233503D-03
 -0.51951779D-03  0.28199014D-02  0.28119848D-02  0.48417210D-04  0.10508789D-16
  0.26351576D-03  0.24379312D-03 -0.10599492D-16  0.18529885D-02  0.16806454D-02
  0.78603134D-18  0.41944750D-03  0.41288144D-03 -0.72435983D-03  0.31922809D-03
  0.40513174D-03  0.31100769D-16  0.29879680D-16  0.23266907D-02 -0.64701752D-04
  0.45704020D-04  0.18997733D-04 -0.32145179D-17 -0.43999480D-17  0.34811716D-03
MO    4     MO 0.0        OCC NO =    2.0000000  ORB. ENERGY =   -5.710425
 -0.30180766D-03 -0.56421189D-03 -0.97513429D-03 -0.15772360D-02 -0.23838998D-02
 -0.32830212D-02 -0.38370906D-02 -0.33155358D-02 -0.15463777D-02 -0.20996468D-03
 -0.56223369D-06 -0.11028701D-05 -0.50350626D-07 -0.66727678D-03 -0.12461678D-02
 -0.21616709D-02 -0.35050746D-02 -0.53964613D-02 -0.76857731D-02 -0.98829065D-02
 -0.10374111D-01 -0.73352316D-02  0.16244178D-03  0.52704587D-02  0.29020576D-02
 -0.12272752D-04 -0.31102387D-03 -0.58041655D-03 -0.10081141D-02 -0.16329211D-02
 -0.25223853D-02 -0.35960392D-02 -0.46772723D-02 -0.49847115D-02 -0.36970569D-02
  0.11507565D-03  0.33493409D-02  0.32811981D-02 -0.15325141D-02  0.16879163D-02
 -0.28487362D-02 -0.42793350D-03 -0.48303286D-12 -0.63371281D-12 -0.69508636D-12
 -0.57192808D-12 -0.30153179D-12 -0.78444321D-13  0.86806638D-16 -0.28363162D-12
 -0.37210923D-12 -0.40814711D-12 -0.33582991D-12 -0.17705617D-12 -0.46061647D-13
  0.50971909D-16  0.96948441D+01  0.12719107D+02  0.13950922D+02  0.11479040D+02
  0.60519769D+01  0.15744383D+01 -0.17422765D-02 -0.15383637D-15 -0.20198808D-15
 -0.22725021D-15 -0.19147549D-15 -0.10710870D-15 -0.26659138D-16  0.12227165D-16
  0.52184676D-13  0.68518797D-13  0.77088267D-13  0.64952693D-13  0.36333626D-13
  0.90433655D-14 -0.41477232D-14 -0.25108034D-01 -0.32967002D-01 -0.37090100D-01
 -0.31251213D-01 -0.17481491D-01 -0.43511074D-02  0.19956275D-02 -0.41401736D-14
 -0.32768150D-15  0.83390046D-01 -0.67332917D-17 -0.10827115D-13  0.68670340D-03
  0.34712290D-18 -0.30705349D-15  0.43682130D-05  0.36163372D-03 -0.30268050D-03
 -0.58953225D-04  0.24644499D-19 -0.89219592D-17  0.60583811D-14  0.11793176D-02
  0.24009254D-03 -0.14194101D-02  0.87762591D-18  0.96381030D-16 -0.11129731D-15
  0.18193219D-04 -0.30639238D-05 -0.15129295D-04  0.20637664D-19  0.58046072D-18
  0.19027040D-14  0.71789066D-17  0.15365756D-15 -0.10584841D-03 -0.12223571D-16
  0.95441705D-15 -0.93860960D-03 -0.93131483D-17 -0.14153897D-14  0.12561548D-02
 -0.10058208D-17 -0.56134156D-18  0.10988851D-15 -0.73988867D-05  0.82092800D-18
  0.58635312D-15 -0.87622406D-05  0.86309667D-18 -0.91601865D-15  0.30958901D-04
  0.76909828D-20 -0.15571006D-03 -0.28082950D-03 -0.41408293D-03  0.15757835D-02
  0.12084924D-02  0.29744694D-04  0.38735330D-17 -0.26002234D-03  0.22971267D-03
 -0.52227766D-17 -0.11281696D-02  0.11968927D-02  0.29109928D-18 -0.20442849D-03
  0.18996202D-03 -0.60754889D-03  0.49984189D-03  0.10770701D-03 -0.19374887D-16
  0.19339105D-16 -0.15527912D-02 -0.78722048D-04  0.22255642D-04  0.56466405D-04
  0.16545273D-17 -0.12629436D-17 -0.22866864D-03 -0.15571006D-03 -0.28082950D-03
 -0.41408293D-03  0.15757835D-02  0.12084924D-02  0.29744694D-04  0.37176048D-17
  0.26002234D-03  0.22971267D-03 -0.49613551D-17  0.11281696D-02  0.11968927D-02
  0.35273207D-18  0.20442849D-03  0.18996202D-03 -0.60754889D-03  0.49984189D-03
  0.10770701D-03  0.19647117D-16  0.19566180D-16  0.15527912D-02 -0.78722048D-04
  0.22255642D-04  0.56466405D-04 -0.15862367D-17 -0.11658380D-17  0.22866864D-03
MO    5     MO 0.0        OCC NO =    2.0000000  ORB. ENERGY =   -5.703125
  0.91596404D-15  0.17123416D-14  0.29594608D-14  0.47867951D-14  0.72349605D-14
  0.99637278D-14  0.11645288D-13  0.10062407D-13  0.46931425D-14  0.63722737D-15
  0.17063379D-17  0.33471296D-17  0.15281045D-18 -0.15841182D-14 -0.29584082D-14
 -0.51318169D-14 -0.83210636D-14 -0.12811225D-13 -0.18246062D-13 -0.23462067D-13
 -0.24628188D-13 -0.17413874D-13  0.38563754D-15  0.12512094D-13  0.68894984D-14
 -0.29135572D-16  0.73755896D-15  0.13763941D-14  0.23906319D-14  0.38722932D-14
  0.59815598D-14  0.85276122D-14  0.11091638D-13  0.11820696D-13  0.87671645D-14
 -0.27288928D-15 -0.79425943D-14 -0.77810011D-14  0.36341890D-14 -0.38601630D-14
  0.10459382D-14  0.20206790D-16  0.96698255D+01  0.12686285D+02  0.13914920D+02
  0.11449417D+02  0.60363591D+01  0.15703753D+01 -0.17377804D-02  0.59023137D-12
  0.77435142D-12  0.84934548D-12  0.69885492D-12  0.36845014D-12  0.95853311D-13
 -0.10607146D-15  0.44817173D-12  0.58797691D-12  0.64492105D-12  0.53065126D-12
  0.27976984D-12  0.72782889D-13 -0.80541687D-16  0.12385498D-02  0.16262234D-02
  0.18296110D-02  0.15415856D-02  0.86234137D-03  0.21463501D-03 -0.98441958D-04
 -0.49430376D-14 -0.64902385D-14 -0.73019559D-14 -0.61524499D-14 -0.34415942D-14
 -0.85660579D-15  0.39288069D-15  0.29291576D-13  0.38460017D-13  0.43270113D-13
  0.36458342D-13  0.20394285D-13  0.50760961D-14 -0.23281422D-14  0.83531147D-01
  0.49257270D-14  0.53977173D-14  0.14488856D-03  0.67793809D-16 -0.20323761D-15
 -0.65154524D-05 -0.20247461D-17  0.58750367D-17 -0.40661177D-15  0.24663760D-15
  0.15997418D-15  0.46406410D-16  0.13559933D-03 -0.22890945D-15 -0.83940698D-15
  0.37539926D-15  0.46400772D-15  0.42293332D-16 -0.16587289D-02 -0.37309020D-15
  0.96860348D-19 -0.10399374D-16  0.10302513D-16 -0.72849122D-17 -0.13204447D-04
  0.14258584D-17 -0.14262449D-03 -0.96919755D-17  0.15572034D-15  0.25995028D-03
 -0.13200417D-15  0.66612520D-15  0.16792318D-03  0.16108010D-15 -0.11332862D-14
 -0.86586216D-16  0.89186226D-05 -0.72927766D-17 -0.20191873D-17 -0.14782740D-04
  0.25645092D-18  0.39885280D-16 -0.11973128D-04  0.21621879D-16 -0.33827718D-16
 -0.40822013D-17  0.18732562D-15  0.33784946D-15  0.49815883D-15 -0.22883896D-14
 -0.39066880D-15  0.15364223D-17 -0.49860146D-04  0.32286452D-15 -0.36576342D-15
  0.70301154D-04  0.14487054D-14 -0.12756300D-14 -0.13061447D-04  0.11796630D-15
 -0.57242906D-16  0.11522624D-14 -0.64844167D-15 -0.50382068D-15  0.38012913D-03
 -0.38167285D-03  0.30710820D-14  0.52304441D-16 -0.40459732D-16 -0.11844709D-16
 -0.18560788D-04  0.14725503D-04  0.15053252D-15  0.16387254D-15  0.29555088D-15
  0.43578960D-15 -0.16803643D-14 -0.88357680D-16 -0.71030569D-18 -0.49860146D-04
 -0.44228261D-15 -0.49866182D-15  0.70301154D-04 -0.94746475D-15 -0.90460162D-15
 -0.13061447D-04 -0.29047724D-16 -0.21036005D-16  0.10289716D-14 -0.57959647D-15
 -0.44937508D-15 -0.38012913D-03 -0.38167285D-03 -0.24641092D-14  0.32829309D-16
 -0.71985989D-17 -0.25630710D-16  0.18560788D-04  0.14725503D-04 -0.67082654D-16
MO    6     MO 0.0        OCC NO =    2.0000000  ORB. ENERGY =   -0.678564
 -0.14406916D-02 -0.26932893D-02 -0.46548448D-02 -0.75290026D-02 -0.11379647D-01
 -0.15671641D-01 -0.18316514D-01 -0.15826850D-01 -0.73816994D-02 -0.10022753D-02
 -0.26838463D-05 -0.52645970D-05 -0.24035084D-06  0.47301904D-02  0.88338320D-02
  0.15323649D-01  0.24846766D-01  0.38254425D-01  0.54482894D-01  0.70057930D-01
  0.73539979D-01  0.51997976D-01 -0.11515170D-02 -0.37361218D-01 -0.20572101D-01
  0.86999065D-04  0.39906054D-01  0.74470600D-01  0.12934652D+00  0.20951266D+00
  0.32363575D+00  0.46139138D+00  0.60011947D+00  0.63956559D+00  0.47435250D+00
 -0.14764832D-01 -0.42973865D+00 -0.42099556D+00  0.19662989D+00  0.47477993D-01
  0.45376012D-01  0.74242351D-03 -0.62331600D-15 -0.81775665D-15 -0.89695441D-15
 -0.73802830D-15 -0.38910312D-15 -0.10122624D-15  0.11201715D-18  0.49255127D-12
  0.64620045D-12  0.70878340D-12  0.58319821D-12  0.30747363D-12  0.79990107D-13
 -0.88517208D-16  0.18768191D+00  0.24622844D+00  0.27007507D+00  0.22222205D+00
  0.11715986D+00  0.30479458D-01 -0.33728628D-04 -0.69515082D-15 -0.91273725D-15
 -0.10268910D-14 -0.86523327D-15 -0.48399936D-15 -0.12046646D-15  0.55251721D-16
 -0.44449560D-12 -0.58362542D-12 -0.65661795D-12 -0.55325027D-12 -0.30948044D-12
 -0.77029053D-13  0.35329235D-13  0.31106261D+00  0.40842710D+00  0.45950802D+00
  0.38717025D+00  0.21657761D+00  0.53905726D-01 -0.24723763D-01 -0.14874943D-16
 -0.21722363D-13 -0.51868725D-01  0.32359535D-17  0.63889738D-13 -0.22298298D-02
  0.17592907D-19  0.18356299D-14  0.60294093D-05 -0.18502300D-02  0.94743561D-03
  0.90279440D-03 -0.12133090D-17 -0.12485144D-16 -0.43423026D-13 -0.20418175D-01
  0.11835352D-01  0.85828235D-02 -0.26827189D-16 -0.62743386D-16  0.46295089D-14
 -0.51041518D-04  0.26052549D-04  0.24988969D-04  0.21865664D-18  0.20991794D-18
 -0.11455745D-13 -0.43673774D-17 -0.74217408D-15  0.31069029D-03  0.46190173D-17
 -0.78114116D-14  0.35228772D-02  0.84831150D-17  0.10037934D-13 -0.44549481D-02
  0.47425232D-17 -0.87421328D-20 -0.71633244D-15 -0.31066676D-04  0.98921799D-19
 -0.41231425D-14 -0.32374592D-04 -0.72695400D-19  0.62721398D-14  0.12557462D-03
 -0.68387876D-18  0.21545474D-01  0.38858149D-01  0.57296318D-01  0.32425386D-01
  0.39923773D-03 -0.46844985D-05  0.57039316D-17 -0.14479344D-01  0.12020863D-01
  0.70481105D-17 -0.51082565D-02  0.43746607D-02  0.17672669D-19  0.24337961D-03
 -0.25436493D-03 -0.28162220D-02  0.20773685D-02  0.73885348D-03 -0.88351947D-17
  0.98555486D-17 -0.73624509D-02 -0.10946623D-03  0.32996320D-04  0.76469907D-04
 -0.10210257D-17 -0.17434419D-17 -0.22028560D-03  0.21545474D-01  0.38858149D-01
  0.57296318D-01  0.32425386D-01  0.39923773D-03 -0.46844985D-05  0.18091696D-16
  0.14479344D-01  0.12020863D-01  0.10563750D-16  0.51082565D-02  0.43746607D-02
  0.93017924D-18 -0.24337961D-03 -0.25436493D-03 -0.28162220D-02  0.20773685D-02
  0.73885348D-03  0.65181209D-17  0.12287302D-16  0.73624509D-02 -0.10946623D-03
  0.32996320D-04  0.76469907D-04  0.73100569D-18  0.52218792D-18  0.22028560D-03
MO    7     MO 0.0        OCC NO =    2.0000000  ORB. ENERGY =   -0.403742
  0.19311701D-14  0.36102102D-14  0.62395704D-14  0.10092225D-13  0.15253807D-13
  0.21006996D-13  0.24552308D-13  0.21215046D-13  0.98947731D-14  0.13434964D-14
  0.35975524D-17  0.70569106D-17  0.32217745D-18 -0.33824537D-14 -0.63168763D-14
 -0.10957599D-13 -0.17767368D-13 -0.27354886D-13 -0.38959503D-13 -0.50096863D-13
 -0.52586799D-13 -0.37182593D-13  0.82342410D-15  0.26716174D-13  0.14710650D-13
 -0.62211091D-16  0.16491551D-14  0.30775674D-14  0.53453662D-14  0.86583072D-14
  0.13374551D-13  0.19067432D-13  0.24800500D-13  0.26430648D-13  0.19603062D-13
 -0.61017053D-15 -0.17759353D-13 -0.17398036D-13  0.81259148D-14 -0.71784271D-14
  0.20430668D-13  0.91301203D-14  0.16886275D-14  0.22153873D-14  0.24299422D-14
  0.19993950D-14  0.10541206D-14  0.27423235D-15 -0.30346605D-18 -0.35754952D+00
 -0.46908550D+00 -0.51451530D+00 -0.42335134D+00 -0.22319920D+00 -0.58065882D-01
  0.64255818D-04 -0.21582715D-12 -0.28315346D-12 -0.31057619D-12 -0.25554701D-12
 -0.13472944D-12 -0.35050232D-13  0.38786655D-16 -0.39001686D-14 -0.51209451D-14
 -0.57614085D-14 -0.48544223D-14 -0.27154958D-14 -0.67588137D-15  0.30999176D-15
 -0.16196989D+01 -0.21266745D+01 -0.23926522D+01 -0.20159904D+01 -0.11277168D+01
 -0.28068641D+00  0.12873631D+00  0.22058400D-12  0.28962813D-12  0.32585118D-12
  0.27455425D-12  0.15358180D-12  0.38226197D-13 -0.17532376D-13 -0.30604813D-17
  0.21219648D+00  0.78119960D-14 -0.61983448D-16  0.14324558D-01 -0.51008360D-14
  0.20709679D-16 -0.21804495D-04 -0.46009062D-15 -0.22647442D-14  0.16063532D-15
  0.21041089D-14  0.14592297D-15 -0.14445570D-16 -0.11062939D-01 -0.19943433D-14
  0.19057255D-14  0.88617819D-16  0.31433461D-16 -0.13669431D-15 -0.10803731D+00
 -0.16303546D-15  0.46408144D-16  0.11662732D-15 -0.14019732D-16  0.28834423D-16
 -0.49864445D-03 -0.19273703D-16  0.24017693D-03  0.19664428D-15  0.13056285D-16
 -0.94403338D-02  0.45470806D-14  0.44764824D-16  0.87198031D-02 -0.51370135D-14
  0.26160504D-15 -0.34523746D-17  0.43451606D-04 -0.90196104D-16 -0.26762386D-17
  0.46585394D-04  0.12754647D-15  0.13033363D-16 -0.17694021D-03  0.14304185D-15
 -0.37175919D-16  0.35686734D-01  0.64362494D-01  0.94902459D-01  0.64521161D-01
  0.91318368D-02  0.29521653D-03  0.25220913D-15 -0.90428407D-02  0.17137992D-01
 -0.15689105D-15 -0.75590763D-04  0.54173994D-02  0.89305702D-17  0.48048562D-03
 -0.26420946D-03 -0.15279182D-02 -0.18872905D-02  0.34152087D-02  0.10316162D-15
  0.47314412D-16 -0.43000693D-02 -0.34997911D-04 -0.97394686D-04  0.13239260D-03
  0.24735705D-16 -0.24143535D-16  0.12301477D-03 -0.35686734D-01 -0.64362494D-01
 -0.94902459D-01 -0.64521161D-01 -0.91318368D-02 -0.29521653D-03 -0.82285132D-16
 -0.90428407D-02 -0.17137992D-01  0.15272097D-16 -0.75590763D-04 -0.54173994D-02
  0.11336582D-16  0.48048562D-03  0.26420946D-03  0.15279182D-02  0.18872905D-02
 -0.34152087D-02 -0.37350763D-15 -0.28284111D-15 -0.43000693D-02  0.34997911D-04
  0.97394686D-04 -0.13239260D-03  0.32586337D-16  0.47091763D-16  0.12301477D-03
MO    8     MO 0.0        OCC NO =    2.0000000  ORB. ENERGY =   -0.332726
 -0.56485901D-03 -0.10559711D-02 -0.18250477D-02 -0.29519328D-02 -0.44616736D-02
 -0.61444567D-02 -0.71814453D-02 -0.62053105D-02 -0.28941789D-02 -0.39296697D-03
 -0.10522687D-05 -0.20641163D-05 -0.94235530D-07  0.71005606D-03  0.13260599D-02
  0.23002561D-02  0.37297858D-02  0.57424299D-02  0.81785100D-02  0.10516502D-01
  0.11039198D-01  0.78054952D-02 -0.17285596D-03 -0.56083492D-02 -0.30881093D-02
  0.13059562D-04  0.18613094D-01  0.34734786D-01  0.60330166D-01  0.97721483D-01
  0.15095109D+00  0.21520346D+00  0.27990941D+00  0.29830798D+00  0.22124882D+00
 -0.68866543D-02 -0.20043991D+00 -0.19636193D+00  0.91712667D-01  0.22324935D-01
  0.46513337D-01  0.38131730D-02  0.22849285D-14  0.29977017D-14  0.32880219D-14
  0.27054365D-14  0.14263596D-14  0.37107136D-15 -0.41062829D-18 -0.10588179D-12
 -0.13891114D-12 -0.15236435D-12 -0.12536780D-12 -0.66096384D-13 -0.17195155D-13
  0.19028192D-16 -0.32014016D+00 -0.42000646D+00 -0.46068307D+00 -0.37905733D+00
 -0.19984652D+00 -0.51990619D-01  0.57532921D-04 -0.31970789D-14 -0.41977840D-14
 -0.47227900D-14 -0.39793077D-14 -0.22259689D-14 -0.55403913D-15  0.25410904D-15
  0.69542760D-13  0.91310067D-13  0.10272998D-12  0.86557777D-13  0.48419207D-13
  0.12051442D-13 -0.55273720D-14 -0.17758201D+01 -0.23316626D+01 -0.26232777D+01
 -0.22103098D+01 -0.12364163D+01 -0.30774150D+00  0.14114508D+00 -0.13880162D-17
  0.99297745D-14  0.22870186D+00  0.76812121D-16  0.75787909D-13  0.16916425D-01
 -0.11678370D-17  0.32844612D-14  0.18936437D-03  0.16232514D-02  0.44630460D-03
 -0.20695560D-02  0.23039114D-15 -0.13215596D-15 -0.13434862D-13  0.24214388D-01
 -0.43561530D-02 -0.19858235D-01 -0.22713620D-15  0.16383315D-15  0.34362560D-14
  0.30132922D-04  0.14521976D-03 -0.17535268D-03  0.14754958D-16 -0.14433681D-16
 -0.14175644D-13  0.17143480D-16 -0.22585510D-15  0.15864219D-04  0.49808927D-17
  0.15389086D-14 -0.68693490D-02 -0.56411333D-16 -0.86134328D-15  0.68217563D-02
  0.13815790D-15 -0.15669572D-16  0.22370311D-15  0.10011861D-03  0.19463035D-16
 -0.30390115D-14  0.14929110D-03  0.27545682D-16  0.23679021D-14 -0.44964692D-03
 -0.10636573D-15 -0.24086102D-01 -0.43440276D-01 -0.64052662D-01 -0.50896549D-01
 -0.11882598D-01 -0.17781457D-03  0.28314336D-14  0.11995414D-01 -0.73140297D-03
 -0.83582578D-15  0.56348808D-02  0.21262762D-02 -0.56861236D-16  0.13242340D-03
  0.36609714D-03  0.19219789D-02 -0.41169319D-02  0.21949531D-02 -0.28415367D-15
 -0.18848796D-15  0.35621221D-02 -0.31467524D-04 -0.19210545D-03  0.22357297D-03
  0.15786971D-15 -0.12278790D-15 -0.76513908D-03 -0.24086102D-01 -0.43440276D-01
 -0.64052662D-01 -0.50896549D-01 -0.11882598D-01 -0.17781457D-03 -0.48402976D-15
 -0.11995414D-01 -0.73140297D-03  0.12188312D-15 -0.56348808D-02  0.21262762D-02
 -0.36241259D-17 -0.13242340D-03  0.36609714D-03  0.19219789D-02 -0.41169319D-02
  0.21949531D-02 -0.26348447D-15 -0.58474736D-16 -0.35621221D-02 -0.31467524D-04
 -0.19210545D-03  0.22357297D-03  0.18341480D-16  0.33753472D-16  0.76513908D-03
MO    9     MO 0.0        OCC NO =    2.0000000  ORB. ENERGY =   -0.231536
  0.73225921D-16  0.13689161D-15  0.23659143D-15  0.38267603D-15  0.57839241D-15
  0.79654125D-15  0.93097205D-15  0.80443009D-15  0.37518906D-15  0.50942569D-16
  0.13641165D-18  0.26758326D-18  0.12216294D-19 -0.10874785D-15 -0.20309124D-15
 -0.35229318D-15 -0.57123121D-15 -0.87947548D-15 -0.12525706D-14 -0.16106432D-14
 -0.16906961D-14 -0.11954420D-14  0.26473563D-16  0.85894050D-15  0.47295595D-15