 Molden2AIM, Version 4.0.0 (06/02/2016)           Time: Thu Jun 28 22:57:33 2018
GAUSSIAN             41 MOL ORBITALS    655 PRIMITIVES        5 NUCLEI
  Si   1    (CENTRE  1)   0.00000000  0.00000000  0.00000000  CHARGE = 14.0
  Cl   2    (CENTRE  2)   2.23759069  2.23759069  2.23759069  CHARGE = 17.0
  Cl   3    (CENTRE  3)  -2.23759069 -2.23759069  2.23759069  CHARGE = 17.0
  Cl   4    (CENTRE  4)  -2.23759069  2.23759069 -2.23759069  CHARGE = 17.0
  Cl   5    (CENTRE  5)   2.23759069 -2.23759069 -2.23759069  CHARGE = 17.0
CENTRE ASSIGNMENTS    1  1  1  1  1  1  1  1  1  1  1  1  1  1  1  1  1  1  1  1
CENTRE ASSIGNMENTS    1  1  1  1  1  1  1  1  1  1  1  1  1  1  1  1  1  1  1  1
CENTRE ASSIGNMENTS    1  1  1  1  1  1  1  1  1  1  1  1  1  1  1  1  1  1  1  1
CENTRE ASSIGNMENTS    1  1  1  1  1  1  1  1  1  1  1  1  1  1  1  1  1  1  1  1
CENTRE ASSIGNMENTS    1  1  1  1  1  1  1  1  1  1  1  1  1  1  1  1  1  1  1  1
CENTRE ASSIGNMENTS    1  1  1  1  1  1  1  1  1  1  1  1  1  1  1  1  1  1  1  1
CENTRE ASSIGNMENTS    1  1  1  1  1  1  1  1  1  1  1  2  2  2  2  2  2  2  2  2
CENTRE ASSIGNMENTS    2  2  2  2  2  2  2  2  2  2  2  2  2  2  2  2  2  2  2  2
CENTRE ASSIGNMENTS    2  2  2  2  2  2  2  2  2  2  2  2  2  2  2  2  2  2  2  2
CENTRE ASSIGNMENTS    2  2  2  2  2  2  2  2  2  2  2  2  2  2  2  2  2  2  2  2
CENTRE ASSIGNMENTS    2  2  2  2  2  2  2  2  2  2  2  2  2  2  2  2  2  2  2  2
CENTRE ASSIGNMENTS    2  2  2  2  2  2  2  2  2  2  2  2  2  2  2  2  2  2  2  2
CENTRE ASSIGNMENTS    2  2  2  2  2  2  2  2  2  2  2  2  2  2  2  2  2  2  2  2
CENTRE ASSIGNMENTS    2  2  3  3  3  3  3  3  3  3  3  3  3  3  3  3  3  3  3  3
CENTRE ASSIGNMENTS    3  3  3  3  3  3  3  3  3  3  3  3  3  3  3  3  3  3  3  3
CENTRE ASSIGNMENTS    3  3  3  3  3  3  3  3  3  3  3  3  3  3  3  3  3  3  3  3
CENTRE ASSIGNMENTS    3  3  3  3  3  3  3  3  3  3  3  3  3  3  3  3  3  3  3  3
CENTRE ASSIGNMENTS    3  3  3  3  3  3  3  3  3  3  3  3  3  3  3  3  3  3  3  3
CENTRE ASSIGNMENTS    3  3  3  3  3  3  3  3  3  3  3  3  3  3  3  3  3  3  3  3
CENTRE ASSIGNMENTS    3  3  3  3  3  3  3  3  3  3  3  3  3  4  4  4  4  4  4  4
CENTRE ASSIGNMENTS    4  4  4  4  4  4  4  4  4  4  4  4  4  4  4  4  4  4  4  4
CENTRE ASSIGNMENTS    4  4  4  4  4  4  4  4  4  4  4  4  4  4  4  4  4  4  4  4
CENTRE ASSIGNMENTS    4  4  4  4  4  4  4  4  4  4  4  4  4  4  4  4  4  4  4  4
CENTRE ASSIGNMENTS    4  4  4  4  4  4  4  4  4  4  4  4  4  4  4  4  4  4  4  4
CENTRE ASSIGNMENTS    4  4  4  4  4  4  4  4  4  4  4  4  4  4  4  4  4  4  4  4
CENTRE ASSIGNMENTS    4  4  4  4  4  4  4  4  4  4  4  4  4  4  4  4  4  4  4  4
CENTRE ASSIGNMENTS    4  4  4  4  5  5  5  5  5  5  5  5  5  5  5  5  5  5  5  5
CENTRE ASSIGNMENTS    5  5  5  5  5  5  5  5  5  5  5  5  5  5  5  5  5  5  5  5
CENTRE ASSIGNMENTS    5  5  5  5  5  5  5  5  5  5  5  5  5  5  5  5  5  5  5  5
CENTRE ASSIGNMENTS    5  5  5  5  5  5  5  5  5  5  5  5  5  5  5  5  5  5  5  5
CENTRE ASSIGNMENTS    5  5  5  5  5  5  5  5  5  5  5  5  5  5  5  5  5  5  5  5
CENTRE ASSIGNMENTS    5  5  5  5  5  5  5  5  5  5  5  5  5  5  5  5  5  5  5  5
CENTRE ASSIGNMENTS    5  5  5  5  5  5  5  5  5  5  5  5  5  5  5
TYPE ASSIGNMENTS      1  1  1  1  1  1  1  1  1  1  1  1  1  1  1  1  1  1  1  1
TYPE ASSIGNMENTS      1  1  1  1  1  1  1  1  1  1  1  1  1  1  1  1  1  1  1  1
TYPE ASSIGNMENTS      1  1  2  2  2  2  2  2  2  3  3  3  3  3  3  3  4  4  4  4
TYPE ASSIGNMENTS      4  4  4  2  2  2  2  2  2  2  3  3  3  3  3  3  3  4  4  4
TYPE ASSIGNMENTS      4  4  4  4  2  3  4  2  3  4  2  3  4  5  6  7  8  9 10  5
TYPE ASSIGNMENTS      6  7  8  9 10  5  6  7  8  9 10 11 12 13 17 14 15 18 19 16
TYPE ASSIGNMENTS     20 11 12 13 17 14 15 18 19 16 20  1  1  1  1  1  1  1  1  1
TYPE ASSIGNMENTS      1  1  1  1  1  1  1  1  1  1  1  1  1  1  1  1  1  1  1  1
TYPE ASSIGNMENTS      1  1  1  1  1  1  1  1  1  1  1  1  1  2  2  2  2  2  2  2
TYPE ASSIGNMENTS      3  3  3  3  3  3  3  4  4  4  4  4  4  4  2  2  2  2  2  2
TYPE ASSIGNMENTS      2  3  3  3  3  3  3  3  4  4  4  4  4  4  4  2  3  4  2  3
TYPE ASSIGNMENTS      4  2  3  4  5  6  7  8  9 10  5  6  7  8  9 10  5  6  7  8
TYPE ASSIGNMENTS      9 10 11 12 13 17 14 15 18 19 16 20 11 12 13 17 14 15 18 19
TYPE ASSIGNMENTS     16 20  1  1  1  1  1  1  1  1  1  1  1  1  1  1  1  1  1  1
TYPE ASSIGNMENTS      1  1  1  1  1  1  1  1  1  1  1  1  1  1  1  1  1  1  1  1
TYPE ASSIGNMENTS      1  1  1  1  2  2  2  2  2  2  2  3  3  3  3  3  3  3  4  4
TYPE ASSIGNMENTS      4  4  4  4  4  2  2  2  2  2  2  2  3  3  3  3  3  3  3  4
TYPE ASSIGNMENTS      4  4  4  4  4  4  2  3  4  2  3  4  2  3  4  5  6  7  8  9
TYPE ASSIGNMENTS     10  5  6  7  8  9 10  5  6  7  8  9 10 11 12 13 17 14 15 18
TYPE ASSIGNMENTS     19 16 20 11 12 13 17 14 15 18 19 16 20  1  1  1  1  1  1  1
TYPE ASSIGNMENTS      1  1  1  1  1  1  1  1  1  1  1  1  1  1  1  1  1  1  1  1
TYPE ASSIGNMENTS      1  1  1  1  1  1  1  1  1  1  1  1  1  1  1  2  2  2  2  2
TYPE ASSIGNMENTS      2  2  3  3  3  3  3  3  3  4  4  4  4  4  4  4  2  2  2  2
TYPE ASSIGNMENTS      2  2  2  3  3  3  3  3  3  3  4  4  4  4  4  4  4  2  3  4
TYPE ASSIGNMENTS      2  3  4  2  3  4  5  6  7  8  9 10  5  6  7  8  9 10  5  6
TYPE ASSIGNMENTS      7  8  9 10 11 12 13 17 14 15 18 19 16 20 11 12 13 17 14 15
TYPE ASSIGNMENTS     18 19 16 20  1  1  1  1  1  1  1  1  1  1  1  1  1  1  1  1
TYPE ASSIGNMENTS      1  1  1  1  1  1  1  1  1  1  1  1  1  1  1  1  1  1  1  1
TYPE ASSIGNMENTS      1  1  1  1  1  1  2  2  2  2  2  2  2  3  3  3  3  3  3  3
TYPE ASSIGNMENTS      4  4  4  4  4  4  4  2  2  2  2  2  2  2  3  3  3  3  3  3
TYPE ASSIGNMENTS      3  4  4  4  4  4  4  4  2  3  4  2  3  4  2  3  4  5  6  7
TYPE ASSIGNMENTS      8  9 10  5  6  7  8  9 10  5  6  7  8  9 10 11 12 13 17 14
TYPE ASSIGNMENTS     15 18 19 16 20 11 12 13 17 14 15 18 19 16 20
EXPONENTS  0.2549000D+06 0.3819000D+05 0.8690000D+04 0.2462000D+04 0.8048000D+03
EXPONENTS  0.2913000D+03 0.1136000D+03 0.4675000D+02 0.1982000D+02 0.7708000D+01
EXPONENTS  0.3340000D+01 0.1402000D+01 0.2070000D+00 0.2549000D+06 0.3819000D+05
EXPONENTS  0.8690000D+04 0.2462000D+04 0.8048000D+03 0.2913000D+03 0.1136000D+03
EXPONENTS  0.4675000D+02 0.1982000D+02 0.7708000D+01 0.3340000D+01 0.1402000D+01
EXPONENTS  0.2070000D+00 0.2549000D+06 0.3819000D+05 0.8690000D+04 0.2462000D+04
EXPONENTS  0.8048000D+03 0.2913000D+03 0.1136000D+03 0.4675000D+02 0.1982000D+02
EXPONENTS  0.7708000D+01 0.3340000D+01 0.1402000D+01 0.2070000D+00 0.4387000D+00
EXPONENTS  0.7944000D-01 0.3300000D-01 0.4815000D+03 0.1139000D+03 0.3623000D+02
EXPONENTS  0.1334000D+02 0.5252000D+01 0.2120000D+01 0.2528000D+00 0.4815000D+03
EXPONENTS  0.1139000D+03 0.3623000D+02 0.1334000D+02 0.5252000D+01 0.2120000D+01
EXPONENTS  0.2528000D+00 0.4815000D+03 0.1139000D+03 0.3623000D+02 0.1334000D+02
EXPONENTS  0.5252000D+01 0.2120000D+01 0.2528000D+00 0.4815000D+03 0.1139000D+03
EXPONENTS  0.3623000D+02 0.1334000D+02 0.5252000D+01 0.2120000D+01 0.2528000D+00
EXPONENTS  0.4815000D+03 0.1139000D+03 0.3623000D+02 0.1334000D+02 0.5252000D+01
EXPONENTS  0.2120000D+01 0.2528000D+00 0.4815000D+03 0.1139000D+03 0.3623000D+02
EXPONENTS  0.1334000D+02 0.5252000D+01 0.2120000D+01 0.2528000D+00 0.8561000D+00
EXPONENTS  0.8561000D+00 0.8561000D+00 0.7889000D-01 0.7889000D-01 0.7889000D-01
EXPONENTS  0.2370000D-01 0.2370000D-01 0.2370000D-01 0.1590000D+00 0.1590000D+00
EXPONENTS  0.1590000D+00 0.1590000D+00 0.1590000D+00 0.1590000D+00 0.4810000D+00
EXPONENTS  0.4810000D+00 0.4810000D+00 0.4810000D+00 0.4810000D+00 0.4810000D+00
EXPONENTS  0.5560000D-01 0.5560000D-01 0.5560000D-01 0.5560000D-01 0.5560000D-01
EXPONENTS  0.5560000D-01 0.3360000D+00 0.3360000D+00 0.3360000D+00 0.3360000D+00
EXPONENTS  0.3360000D+00 0.3360000D+00 0.3360000D+00 0.3360000D+00 0.3360000D+00
EXPONENTS  0.3360000D+00 0.1250000D+00 0.1250000D+00 0.1250000D+00 0.1250000D+00
EXPONENTS  0.1250000D+00 0.1250000D+00 0.1250000D+00 0.1250000D+00 0.1250000D+00
EXPONENTS  0.1250000D+00 0.4561000D+06 0.6833000D+05 0.1555000D+05 0.4405000D+04
EXPONENTS  0.1439000D+04 0.5204000D+03 0.2031000D+03 0.8396000D+02 0.3620000D+02
EXPONENTS  0.1583000D+02 0.6334000D+01 0.2694000D+01 0.4313000D+00 0.4561000D+06
EXPONENTS  0.6833000D+05 0.1555000D+05 0.4405000D+04 0.1439000D+04 0.5204000D+03
EXPONENTS  0.2031000D+03 0.8396000D+02 0.3620000D+02 0.1583000D+02 0.6334000D+01
EXPONENTS  0.2694000D+01 0.4313000D+00 0.4561000D+06 0.6833000D+05 0.1555000D+05
EXPONENTS  0.4405000D+04 0.1439000D+04 0.5204000D+03 0.2031000D+03 0.8396000D+02
EXPONENTS  0.3620000D+02 0.1583000D+02 0.6334000D+01 0.2694000D+01 0.4313000D+00
EXPONENTS  0.9768000D+00 0.1625000D+00 0.5910000D-01 0.6633000D+03 0.1568000D+03
EXPONENTS  0.4998000D+02 0.1842000D+02 0.7240000D+01 0.2922000D+01 0.3818000D+00
EXPONENTS  0.6633000D+03 0.1568000D+03 0.4998000D+02 0.1842000D+02 0.7240000D+01
EXPONENTS  0.2922000D+01 0.3818000D+00 0.6633000D+03 0.1568000D+03 0.4998000D+02
EXPONENTS  0.1842000D+02 0.7240000D+01 0.2922000D+01 0.3818000D+00 0.6633000D+03
EXPONENTS  0.1568000D+03 0.4998000D+02 0.1842000D+02 0.7240000D+01 0.2922000D+01
EXPONENTS  0.3818000D+00 0.6633000D+03 0.1568000D+03 0.4998000D+02 0.1842000D+02
EXPONENTS  0.7240000D+01 0.2922000D+01 0.3818000D+00 0.6633000D+03 0.1568000D+03
EXPONENTS  0.4998000D+02 0.1842000D+02 0.7240000D+01 0.2922000D+01 0.3818000D+00
EXPONENTS  0.1022000D+01 0.1022000D+01 0.1022000D+01 0.1301000D+00 0.1301000D+00
EXPONENTS  0.1301000D+00 0.4190000D-01 0.4190000D-01 0.4190000D-01 0.1046000D+01
EXPONENTS  0.1046000D+01 0.1046000D+01 0.1046000D+01 0.1046000D+01 0.1046000D+01
EXPONENTS  0.3440000D+00 0.3440000D+00 0.3440000D+00 0.3440000D+00 0.3440000D+00
EXPONENTS  0.3440000D+00 0.1350000D+00 0.1350000D+00 0.1350000D+00 0.1350000D+00
EXPONENTS  0.1350000D+00 0.1350000D+00 0.7060000D+00 0.7060000D+00 0.7060000D+00
EXPONENTS  0.7060000D+00 0.7060000D+00 0.7060000D+00 0.7060000D+00 0.7060000D+00
EXPONENTS  0.7060000D+00 0.7060000D+00 0.3120000D+00 0.3120000D+00 0.3120000D+00
EXPONENTS  0.3120000D+00 0.3120000D+00 0.3120000D+00 0.3120000D+00 0.3120000D+00
EXPONENTS  0.3120000D+00 0.3120000D+00 0.4561000D+06 0.6833000D+05 0.1555000D+05
EXPONENTS  0.4405000D+04 0.1439000D+04 0.5204000D+03 0.2031000D+03 0.8396000D+02
EXPONENTS  0.3620000D+02 0.1583000D+02 0.6334000D+01 0.2694000D+01 0.4313000D+00
EXPONENTS  0.4561000D+06 0.6833000D+05 0.1555000D+05 0.4405000D+04 0.1439000D+04
EXPONENTS  0.5204000D+03 0.2031000D+03 0.8396000D+02 0.3620000D+02 0.1583000D+02
EXPONENTS  0.6334000D+01 0.2694000D+01 0.4313000D+00 0.4561000D+06 0.6833000D+05
EXPONENTS  0.1555000D+05 0.4405000D+04 0.1439000D+04 0.5204000D+03 0.2031000D+03
EXPONENTS  0.8396000D+02 0.3620000D+02 0.1583000D+02 0.6334000D+01 0.2694000D+01
EXPONENTS  0.4313000D+00 0.9768000D+00 0.1625000D+00 0.5910000D-01 0.6633000D+03
EXPONENTS  0.1568000D+03 0.4998000D+02 0.1842000D+02 0.7240000D+01 0.2922000D+01
EXPONENTS  0.3818000D+00 0.6633000D+03 0.1568000D+03 0.4998000D+02 0.1842000D+02
EXPONENTS  0.7240000D+01 0.2922000D+01 0.3818000D+00 0.6633000D+03 0.1568000D+03
EXPONENTS  0.4998000D+02 0.1842000D+02 0.7240000D+01 0.2922000D+01 0.3818000D+00
EXPONENTS  0.6633000D+03 0.1568000D+03 0.4998000D+02 0.1842000D+02 0.7240000D+01
EXPONENTS  0.2922000D+01 0.3818000D+00 0.6633000D+03 0.1568000D+03 0.4998000D+02
EXPONENTS  0.1842000D+02 0.7240000D+01 0.2922000D+01 0.3818000D+00 0.6633000D+03
EXPONENTS  0.1568000D+03 0.4998000D+02 0.1842000D+02 0.7240000D+01 0.2922000D+01
EXPONENTS  0.3818000D+00 0.1022000D+01 0.1022000D+01 0.1022000D+01 0.1301000D+00
EXPONENTS  0.1301000D+00 0.1301000D+00 0.4190000D-01 0.4190000D-01 0.4190000D-01
EXPONENTS  0.1046000D+01 0.1046000D+01 0.1046000D+01 0.1046000D+01 0.1046000D+01
EXPONENTS  0.1046000D+01 0.3440000D+00 0.3440000D+00 0.3440000D+00 0.3440000D+00
EXPONENTS  0.3440000D+00 0.3440000D+00 0.1350000D+00 0.1350000D+00 0.1350000D+00
EXPONENTS  0.1350000D+00 0.1350000D+00 0.1350000D+00 0.7060000D+00 0.7060000D+00
EXPONENTS  0.7060000D+00 0.7060000D+00 0.7060000D+00 0.7060000D+00 0.7060000D+00
EXPONENTS  0.7060000D+00 0.7060000D+00 0.7060000D+00 0.3120000D+00 0.3120000D+00
EXPONENTS  0.3120000D+00 0.3120000D+00 0.3120000D+00 0.3120000D+00 0.3120000D+00
EXPONENTS  0.3120000D+00 0.3120000D+00 0.3120000D+00 0.4561000D+06 0.6833000D+05
EXPONENTS  0.1555000D+05 0.4405000D+04 0.1439000D+04 0.5204000D+03 0.2031000D+03
EXPONENTS  0.8396000D+02 0.3620000D+02 0.1583000D+02 0.6334000D+01 0.2694000D+01
EXPONENTS  0.4313000D+00 0.4561000D+06 0.6833000D+05 0.1555000D+05 0.4405000D+04
EXPONENTS  0.1439000D+04 0.5204000D+03 0.2031000D+03 0.8396000D+02 0.3620000D+02
EXPONENTS  0.1583000D+02 0.6334000D+01 0.2694000D+01 0.4313000D+00 0.4561000D+06
EXPONENTS  0.6833000D+05 0.1555000D+05 0.4405000D+04 0.1439000D+04 0.5204000D+03
EXPONENTS  0.2031000D+03 0.8396000D+02 0.3620000D+02 0.1583000D+02 0.6334000D+01
EXPONENTS  0.2694000D+01 0.4313000D+00 0.9768000D+00 0.1625000D+00 0.5910000D-01
EXPONENTS  0.6633000D+03 0.1568000D+03 0.4998000D+02 0.1842000D+02 0.7240000D+01
EXPONENTS  0.2922000D+01 0.3818000D+00 0.6633000D+03 0.1568000D+03 0.4998000D+02
EXPONENTS  0.1842000D+02 0.7240000D+01 0.2922000D+01 0.3818000D+00 0.6633000D+03
EXPONENTS  0.1568000D+03 0.4998000D+02 0.1842000D+02 0.7240000D+01 0.2922000D+01
EXPONENTS  0.3818000D+00 0.6633000D+03 0.1568000D+03 0.4998000D+02 0.1842000D+02
EXPONENTS  0.7240000D+01 0.2922000D+01 0.3818000D+00 0.6633000D+03 0.1568000D+03
EXPONENTS  0.4998000D+02 0.1842000D+02 0.7240000D+01 0.2922000D+01 0.3818000D+00
EXPONENTS  0.6633000D+03 0.1568000D+03 0.4998000D+02 0.1842000D+02 0.7240000D+01
EXPONENTS  0.2922000D+01 0.3818000D+00 0.1022000D+01 0.1022000D+01 0.1022000D+01
EXPONENTS  0.1301000D+00 0.1301000D+00 0.1301000D+00 0.4190000D-01 0.4190000D-01
EXPONENTS  0.4190000D-01 0.1046000D+01 0.1046000D+01 0.1046000D+01 0.1046000D+01
EXPONENTS  0.1046000D+01 0.1046000D+01 0.3440000D+00 0.3440000D+00 0.3440000D+00
EXPONENTS  0.3440000D+00 0.3440000D+00 0.3440000D+00 0.1350000D+00 0.1350000D+00
EXPONENTS  0.1350000D+00 0.1350000D+00 0.1350000D+00 0.1350000D+00 0.7060000D+00
EXPONENTS  0.7060000D+00 0.7060000D+00 0.7060000D+00 0.7060000D+00 0.7060000D+00
EXPONENTS  0.7060000D+00 0.7060000D+00 0.7060000D+00 0.7060000D+00 0.3120000D+00
EXPONENTS  0.3120000D+00 0.3120000D+00 0.3120000D+00 0.3120000D+00 0.3120000D+00
EXPONENTS  0.3120000D+00 0.3120000D+00 0.3120000D+00 0.3120000D+00 0.4561000D+06
EXPONENTS  0.6833000D+05 0.1555000D+05 0.4405000D+04 0.1439000D+04 0.5204000D+03
EXPONENTS  0.2031000D+03 0.8396000D+02 0.3620000D+02 0.1583000D+02 0.6334000D+01
EXPONENTS  0.2694000D+01 0.4313000D+00 0.4561000D+06 0.6833000D+05 0.1555000D+05
EXPONENTS  0.4405000D+04 0.1439000D+04 0.5204000D+03 0.2031000D+03 0.8396000D+02
EXPONENTS  0.3620000D+02 0.1583000D+02 0.6334000D+01 0.2694000D+01 0.4313000D+00
EXPONENTS  0.4561000D+06 0.6833000D+05 0.1555000D+05 0.4405000D+04 0.1439000D+04
EXPONENTS  0.5204000D+03 0.2031000D+03 0.8396000D+02 0.3620000D+02 0.1583000D+02
EXPONENTS  0.6334000D+01 0.2694000D+01 0.4313000D+00 0.9768000D+00 0.1625000D+00
EXPONENTS  0.5910000D-01 0.6633000D+03 0.1568000D+03 0.4998000D+02 0.1842000D+02
EXPONENTS  0.7240000D+01 0.2922000D+01 0.3818000D+00 0.6633000D+03 0.1568000D+03
EXPONENTS  0.4998000D+02 0.1842000D+02 0.7240000D+01 0.2922000D+01 0.3818000D+00
EXPONENTS  0.6633000D+03 0.1568000D+03 0.4998000D+02 0.1842000D+02 0.7240000D+01
EXPONENTS  0.2922000D+01 0.3818000D+00 0.6633000D+03 0.1568000D+03 0.4998000D+02
EXPONENTS  0.1842000D+02 0.7240000D+01 0.2922000D+01 0.3818000D+00 0.6633000D+03
EXPONENTS  0.1568000D+03 0.4998000D+02 0.1842000D+02 0.7240000D+01 0.2922000D+01
EXPONENTS  0.3818000D+00 0.6633000D+03 0.1568000D+03 0.4998000D+02 0.1842000D+02
EXPONENTS  0.7240000D+01 0.2922000D+01 0.3818000D+00 0.1022000D+01 0.1022000D+01
EXPONENTS  0.1022000D+01 0.1301000D+00 0.1301000D+00 0.1301000D+00 0.4190000D-01
EXPONENTS  0.4190000D-01 0.4190000D-01 0.1046000D+01 0.1046000D+01 0.1046000D+01
EXPONENTS  0.1046000D+01 0.1046000D+01 0.1046000D+01 0.3440000D+00 0.3440000D+00
EXPONENTS  0.3440000D+00 0.3440000D+00 0.3440000D+00 0.3440000D+00 0.1350000D+00
EXPONENTS  0.1350000D+00 0.1350000D+00 0.1350000D+00 0.1350000D+00 0.1350000D+00
EXPONENTS  0.7060000D+00 0.7060000D+00 0.7060000D+00 0.7060000D+00 0.7060000D+00
EXPONENTS  0.7060000D+00 0.7060000D+00 0.7060000D+00 0.7060000D+00 0.7060000D+00
EXPONENTS  0.3120000D+00 0.3120000D+00 0.3120000D+00 0.3120000D+00 0.3120000D+00
EXPONENTS  0.3120000D+00 0.3120000D+00 0.3120000D+00 0.3120000D+00 0.3120000D+00
MO    1     MO 0.0        OCC NO =    2.0000000  ORB. ENERGY = -100.728203
 -0.44802638D-04 -0.83805959D-04 -0.14472912D-03 -0.23377526D-03 -0.35206074D-03
 -0.47880094D-03 -0.54506633D-03 -0.44157847D-03 -0.17924543D-03 -0.16344717D-04
  0.62813112D-06 -0.21004252D-06 -0.11787110D-07  0.95204914D-04  0.17819739D-03
  0.30819923D-03  0.50092214D-03  0.76640679D-03  0.10875842D-02  0.13642841D-02
  0.13910058D-02  0.85466161D-03 -0.18626651D-03 -0.68226665D-03 -0.31204475D-03
  0.16563506D-05 -0.59959354D-04 -0.11214493D-03 -0.19420462D-03 -0.31531981D-03
 -0.48400953D-03 -0.68751394D-03 -0.87222049D-03 -0.90298387D-03 -0.58163134D-03
  0.14305525D-03  0.58313724D-03  0.50859714D-03 -0.25920758D-03 -0.51260650D-03
  0.32991242D-02  0.22303929D-03 -0.19425941D-10 -0.25623818D-10 -0.28461767D-10
 -0.24359261D-10 -0.13918686D-10 -0.45169170D-11 -0.31804916D-14 -0.24497457D-10
 -0.32313408D-10 -0.35892259D-10 -0.30718715D-10 -0.17552427D-10 -0.56961451D-11
 -0.40108202D-14  0.32948646D-10  0.43460962D-10  0.48274452D-10  0.41316127D-10
  0.23607703D-10  0.76612142D-11  0.53944820D-14  0.16564919D-10  0.22652314D-10
  0.24625347D-10  0.22604781D-10  0.12320524D-10  0.51990244D-11 -0.17930804D-11
  0.20881639D-10  0.28555373D-10  0.31042567D-10  0.28495453D-10  0.15531179D-10
  0.65538593D-11 -0.22603466D-11 -0.28100926D-10 -0.38427655D-10 -0.41774732D-10
 -0.38347019D-10 -0.20900683D-10 -0.88196866D-11  0.30418030D-11  0.74966489D-12
  0.95325657D-12 -0.12671869D-11 -0.20891683D-11 -0.26601979D-11  0.35390816D-11
 -0.71100900D-14 -0.93418045D-14  0.13078840D-13 -0.58822942D-14 -0.58100862D-14
  0.11692380D-13  0.18874938D-12 -0.16596435D-12 -0.12093104D-12  0.28556817D-14
  0.28200080D-14 -0.56756897D-14  0.16546221D-11 -0.12140704D-11 -0.97001311D-12
 -0.11346729D-14 -0.11208222D-14  0.22554951D-14  0.15193916D-12 -0.11646124D-12
 -0.90573788D-13 -0.62167658D-13 -0.76651733D-13  0.10749279D-12  0.93255469D-13
  0.11439880D-12 -0.16123691D-12  0.93247505D-13  0.11555640D-12 -0.16124147D-12
  0.11040089D-03 -0.65333921D-13 -0.82124616D-13  0.11145997D-12  0.98003323D-13
  0.12241190D-12 -0.16718343D-12  0.97998441D-13  0.12396195D-12 -0.16719649D-12
  0.11871237D-03  0.30871178D+00  0.57760093D+00  0.99796645D+00  0.16178200D+01
  0.24567888D+01  0.34146475D+01  0.40595232D+01  0.36159111D+01  0.17950465D+01
  0.28921075D+00  0.44401555D-02  0.79345142D-03  0.29650041D-04 -0.65028768D-03
 -0.12146440D-02 -0.21080736D-02 -0.34205467D-02 -0.52946001D-02 -0.75787390D-02
 -0.98926217D-02 -0.10542239D-01 -0.78805378D-02 -0.41599959D-03  0.53453882D-02
  0.31757747D-02 -0.11906774D-04  0.28525265D-03  0.53238296D-03  0.92523473D-03
  0.14995333D-02  0.23290100D-02  0.33363740D-02  0.44053710D-02  0.47635129D-02
  0.37346558D-02  0.18583524D-03 -0.32015443D-02 -0.33141919D-02  0.14997187D-02
 -0.16397763D-02 -0.13561254D-02 -0.39960554D-03 -0.87614255D-04 -0.11540764D-03
 -0.12732166D-03 -0.10575527D-03 -0.56169195D-04 -0.14487674D-04  0.14892836D-07
 -0.87614256D-04 -0.11540764D-03 -0.12732166D-03 -0.10575527D-03 -0.56169195D-04
 -0.14487674D-04  0.14892836D-07 -0.87614247D-04 -0.11540763D-03 -0.12732165D-03
 -0.10575526D-03 -0.56169190D-04 -0.14487672D-04  0.14892835D-07  0.82089524D-05
  0.10777753D-04  0.12271264D-04  0.10390803D-04  0.59522518D-05  0.13539308D-05
 -0.63371412D-06  0.82089531D-05  0.10777754D-04  0.12271265D-04  0.10390804D-04
  0.59522524D-05  0.13539309D-05 -0.63371418D-06  0.82089453D-05  0.10777743D-04
  0.12271254D-04  0.10390794D-04  0.59522467D-05  0.13539296D-05 -0.63371357D-06
 -0.35020033D-04 -0.35020033D-04 -0.35020034D-04  0.30592107D-03  0.30592107D-03
  0.30592107D-03  0.10005953D-04  0.10005953D-04  0.10005953D-04  0.21266405D-12
  0.27847419D-12 -0.49113825D-12  0.13437390D-03  0.13437390D-03  0.13437390D-03
 -0.11472544D-12 -0.14968149D-12  0.26440693D-12 -0.88295536D-04 -0.88295535D-04
 -0.88295535D-04 -0.61933433D-13 -0.80473161D-13  0.14240659D-12 -0.46782183D-04
 -0.46782182D-04 -0.46782182D-04  0.79465636D-05  0.79465637D-05  0.79465633D-05
 -0.11919846D-04 -0.11919846D-04 -0.11919845D-04 -0.11919845D-04 -0.11919845D-04
 -0.11919845D-04  0.22974974D-04 -0.85980316D-05 -0.85980316D-05 -0.85980315D-05
  0.12897048D-04  0.12897048D-04  0.12897047D-04  0.12897047D-04  0.12897047D-04
  0.12897047D-04  0.24919162D-04  0.30871179D+00  0.57760095D+00  0.99796648D+00
  0.16178201D+01  0.24567888D+01  0.34146475D+01  0.40595233D+01  0.36159111D+01
  0.17950466D+01  0.28921076D+00  0.44401556D-02  0.79345143D-03  0.29650042D-04
 -0.65028769D-03 -0.12146440D-02 -0.21080736D-02 -0.34205468D-02 -0.52946002D-02
 -0.75787391D-02 -0.98926219D-02 -0.10542239D-01 -0.78805379D-02 -0.41599960D-03
  0.53453883D-02  0.31757748D-02 -0.11906775D-04  0.28525265D-03  0.53238297D-03
  0.92523475D-03  0.14995333D-02  0.23290100D-02  0.33363741D-02  0.44053711D-02
  0.47635129D-02  0.37346559D-02  0.18583524D-03 -0.32015444D-02 -0.33141919D-02
  0.14997187D-02 -0.16397764D-02 -0.13561254D-02 -0.39960554D-03  0.87614288D-04
  0.11540768D-03  0.12732171D-03  0.10575531D-03  0.56169216D-04  0.14487679D-04
 -0.14892842D-07  0.87614287D-04  0.11540768D-03  0.12732171D-03  0.10575531D-03
  0.56169215D-04  0.14487679D-04 -0.14892842D-07 -0.87614286D-04 -0.11540768D-03
 -0.12732170D-03 -0.10575531D-03 -0.56169214D-04 -0.14487679D-04  0.14892841D-07
 -0.82089788D-05 -0.10777787D-04 -0.12271304D-04 -0.10390836D-04 -0.59522710D-05
 -0.13539351D-05  0.63371616D-06 -0.82089781D-05 -0.10777786D-04 -0.12271303D-04
 -0.10390835D-04 -0.59522704D-05 -0.13539350D-05  0.63371610D-06  0.82089769D-05
  0.10777785D-04  0.12271301D-04  0.10390834D-04  0.59522696D-05  0.13539348D-05
 -0.63371601D-06  0.35020032D-04  0.35020032D-04 -0.35020032D-04 -0.30592107D-03
 -0.30592107D-03  0.30592107D-03 -0.10005953D-04 -0.10005953D-04  0.10005953D-04
  0.83258651D-13  0.17404880D-13 -0.10066353D-12  0.13437391D-03 -0.13437391D-03
 -0.13437391D-03 -0.44887455D-13 -0.99041040D-14  0.54791559D-13 -0.88295537D-04
  0.88295537D-04  0.88295537D-04 -0.24544784D-13 -0.60035433D-14  0.30548327D-13
 -0.46782183D-04  0.46782183D-04  0.46782183D-04 -0.79465639D-05 -0.79465638D-05
  0.79465638D-05  0.11919846D-04  0.11919846D-04 -0.11919846D-04  0.11919846D-04
  0.11919846D-04 -0.11919846D-04  0.22974973D-04  0.85980318D-05  0.85980318D-05
 -0.85980318D-05 -0.12897048D-04 -0.12897048D-04  0.12897048D-04 -0.12897048D-04
 -0.12897048D-04  0.12897048D-04  0.24919163D-04  0.30871178D+00  0.57760093D+00
  0.99796645D+00  0.16178200D+01  0.24567887D+01  0.34146474D+01  0.40595232D+01
  0.36159110D+01  0.17950465D+01  0.28921075D+00  0.44401554D-02  0.79345141D-03
  0.29650041D-04 -0.65028767D-03 -0.12146440D-02 -0.21080736D-02 -0.34205467D-02
 -0.52946000D-02 -0.75787389D-02 -0.98926216D-02 -0.10542239D-01 -0.78805377D-02
 -0.41599959D-03  0.53453882D-02  0.31757747D-02 -0.11906774D-04  0.28525264D-03
  0.53238296D-03  0.92523472D-03  0.14995333D-02  0.23290100D-02  0.33363740D-02
  0.44053710D-02  0.47635128D-02  0.37346558D-02  0.18583524D-03 -0.32015443D-02
 -0.33141918D-02  0.14997187D-02 -0.16397763D-02 -0.13561254D-02 -0.39960553D-03
  0.87614237D-04  0.11540761D-03  0.12732163D-03  0.10575525D-03  0.56169183D-04
  0.14487671D-04 -0.14892833D-07 -0.87614244D-04 -0.11540762D-03 -0.12732164D-03
 -0.10575526D-03 -0.56169187D-04 -0.14487672D-04  0.14892834D-07  0.87614245D-04
  0.11540762D-03  0.12732164D-03  0.10575526D-03  0.56169188D-04  0.14487672D-04
 -0.14892834D-07 -0.82089374D-05 -0.10777733D-04 -0.12271242D-04 -0.10390784D-04
 -0.59522410D-05 -0.13539283D-05  0.63371296D-06  0.82089433D-05  0.10777741D-04
  0.12271251D-04  0.10390791D-04  0.59522452D-05  0.13539293D-05 -0.63371342D-06
 -0.82089442D-05 -0.10777742D-04 -0.12271252D-04 -0.10390792D-04 -0.59522459D-05
 -0.13539294D-05  0.63371349D-06  0.35020034D-04 -0.35020034D-04  0.35020034D-04
 -0.30592107D-03  0.30592107D-03 -0.30592107D-03 -0.10005953D-04  0.10005953D-04
 -0.10005953D-04 -0.42685762D-12  0.15843081D-12  0.26842681D-12 -0.13437390D-03
  0.13437390D-03 -0.13437390D-03  0.22981884D-12 -0.84799506D-13 -0.14501933D-12
  0.88295535D-04 -0.88295535D-04  0.88295536D-04  0.12044883D-12 -0.44796372D-13
 -0.75652462D-13  0.46782182D-04 -0.46782182D-04  0.46782183D-04 -0.79465633D-05
  0.79465635D-05 -0.79465636D-05  0.11919845D-04 -0.11919845D-04  0.11919845D-04
  0.11919845D-04 -0.11919846D-04  0.11919846D-04  0.22974974D-04  0.85980315D-05
 -0.85980316D-05  0.85980316D-05 -0.12897047D-04  0.12897047D-04 -0.12897047D-04
 -0.12897047D-04  0.12897048D-04 -0.12897048D-04  0.24919162D-04  0.30871178D+00
  0.57760093D+00  0.99796645D+00  0.16178200D+01  0.24567887D+01  0.34146474D+01
  0.40595232D+01  0.36159110D+01  0.17950465D+01  0.28921075D+00  0.44401554D-02
  0.79345141D-03  0.29650041D-04 -0.65028767D-03 -0.12146440D-02 -0.21080736D-02
 -0.34205467D-02 -0.52946000D-02 -0.75787389D-02 -0.98926217D-02 -0.10542239D-01
 -0.78805377D-02 -0.41599959D-03  0.53453882D-02  0.31757747D-02 -0.11906774D-04
  0.28525264D-03  0.53238296D-03  0.92523473D-03  0.14995333D-02  0.23290100D-02
  0.33363740D-02  0.44053710D-02  0.47635128D-02  0.37346558D-02  0.18583524D-03
 -0.32015443D-02 -0.33141918D-02  0.14997187D-02 -0.16397763D-02 -0.13561254D-02
 -0.39960553D-03 -0.87614247D-04 -0.11540763D-03 -0.12732165D-03 -0.10575526D-03
 -0.56169190D-04 -0.14487673D-04  0.14892835D-07  0.87614241D-04  0.11540762D-03
  0.12732164D-03  0.10575526D-03  0.56169186D-04  0.14487671D-04 -0.14892834D-07
  0.87614249D-04  0.11540763D-03  0.12732165D-03  0.10575527D-03  0.56169191D-04
  0.14487673D-04 -0.14892835D-07  0.82089462D-05  0.10777745D-04  0.12271255D-04
  0.10390795D-04  0.59522473D-05  0.13539298D-05 -0.63371364D-06 -0.82089403D-05
 -0.10777737D-04 -0.12271246D-04 -0.10390787D-04 -0.59522430D-05 -0.13539288D-05
  0.63371319D-06 -0.82089479D-05 -0.10777747D-04 -0.12271258D-04 -0.10390797D-04
 -0.59522485D-05 -0.13539300D-05  0.63371377D-06 -0.35020034D-04  0.35020034D-04
  0.35020034D-04  0.30592107D-03 -0.30592107D-03 -0.30592107D-03  0.10005953D-04
 -0.10005953D-04 -0.10005953D-04  0.13636015D-12 -0.44896318D-12  0.31260303D-12
 -0.13437390D-03 -0.13437390D-03  0.13437390D-03 -0.73216503D-13  0.24141832D-12
 -0.16820182D-12  0.88295535D-04  0.88295536D-04 -0.88295535D-04 -0.37793038D-13
  0.12749598D-12 -0.89702940D-13  0.46782182D-04  0.46782183D-04 -0.46782182D-04
  0.79465636D-05 -0.79465633D-05 -0.79465636D-05 -0.11919845D-04  0.11919845D-04
  0.11919846D-04 -0.11919846D-04  0.11919845D-04  0.11919845D-04  0.22974974D-04
 -0.85980316D-05  0.85980315D-05  0.85980316D-05  0.12897047D-04 -0.12897047D-04
 -0.12897048D-04  0.12897048D-04 -0.12897047D-04 -0.12897047D-04  0.24919162D-04
MO    2     MO 0.0        OCC NO =    2.0000000  ORB. ENERGY = -100.728194
  0.44457659D-12  0.83160656D-12  0.14361472D-11  0.23197520D-11  0.34934988D-11
  0.47511419D-11  0.54086934D-11  0.43817833D-11  0.17786524D-11  0.16218864D-12
 -0.62329453D-14  0.20842520D-14  0.11696350D-15 -0.94461166D-12 -0.17680529D-11
 -0.30579155D-11 -0.49700890D-11 -0.76041955D-11 -0.10790879D-10 -0.13536262D-10
 -0.13801391D-10 -0.84798493D-11  0.18481138D-11  0.67693673D-11  0.30960703D-11
 -0.16434111D-13  0.59482317D-12  0.11125270D-11  0.19265953D-11  0.31281112D-11
  0.48015874D-11  0.68204408D-11  0.86528109D-11  0.89579973D-11  0.57700387D-11
 -0.14191710D-11 -0.57849780D-11 -0.50455073D-11  0.25714532D-11  0.50756481D-11
 -0.32671227D-10 -0.22179343D-11 -0.28353465D-02 -0.37399681D-02 -0.41541859D-02
 -0.35553976D-02 -0.20315256D-02 -0.65927434D-03 -0.46421410D-06 -0.22117224D-02
 -0.29173758D-02 -0.32404879D-02 -0.27734009D-02 -0.15846990D-02 -0.51426936D-03
 -0.36211190D-06  0.72298089D-03  0.95364905D-03  0.10592698D-02  0.90658567D-03
  0.51801577D-03  0.16810741D-03  0.11836928D-06  0.24177879D-02  0.33062938D-02
  0.35942744D-02  0.32993560D-02  0.17982830D-02  0.75884088D-03 -0.26171502D-03
  0.18860043D-02  0.25790866D-02  0.28037269D-02  0.25736747D-02  0.14027572D-02
  0.59193660D-03 -0.20415175D-03 -0.61650822D-03 -0.84306707D-03 -0.91649882D-03
 -0.84129799D-03 -0.45854157D-03 -0.19349573D-03  0.66734332D-04  0.10939287D-03
  0.85332310D-04 -0.27893930D-04 -0.30493619D-03 -0.23786659D-03  0.77755236D-04
 -0.10371934D-05 -0.80906652D-06  0.26447244D-06 -0.89969244D-15 -0.91338165D-15
  0.18130741D-14  0.44900007D-05 -0.13735681D-04 -0.17608637D-04  0.50387981D-15
  0.50950236D-15 -0.10133822D-14  0.36107708D-04 -0.11045966D-03 -0.14160521D-03
 -0.14889859D-15 -0.14960977D-15  0.29850836D-15  0.33706006D-05 -0.10311245D-04
 -0.13218635D-04 -0.90807652D-05 -0.70834840D-05  0.23154911D-05  0.13621148D-04
  0.10625226D-04 -0.34732367D-05  0.13621148D-04  0.10625226D-04 -0.34732367D-05
 -0.10958808D-11 -0.95387546D-05 -0.74407403D-05  0.24322732D-05  0.14308132D-04
  0.11161110D-04 -0.36484098D-05  0.14308132D-04  0.11161110D-04 -0.36484098D-05
 -0.11754056D-11 -0.36385626D+00 -0.68077646D+00 -0.11762309D+01 -0.19068075D+01
 -0.28956393D+01 -0.40245981D+01 -0.47846666D+01 -0.42618130D+01 -0.21156916D+01
 -0.34087181D+00 -0.52332902D-02 -0.93518382D-03 -0.34946360D-04  0.62045906D-03
  0.11589284D-02  0.20113765D-02  0.32636467D-02  0.50517374D-02  0.72311032D-02
  0.94388484D-02  0.10058668D-01  0.75190585D-02  0.39691774D-03 -0.51001960D-02
 -0.30301024D-02  0.11360612D-04 -0.25769072D-03 -0.48094259D-03 -0.83583590D-03
 -0.13546441D-02 -0.21039744D-02 -0.30140040D-02 -0.39797115D-02 -0.43032486D-02
 -0.33738027D-02 -0.16787931D-03  0.28922019D-02  0.29939651D-02 -0.13548116D-02