 Molden2AIM, Version 4.0.0 (06/02/2016)           Time: Fri Jun 29 00:40:30 2018
GAUSSIAN              9 MOL ORBITALS    239 PRIMITIVES        5 NUCLEI
  Si   1    (CENTRE  1)   0.00000000  0.00000000  0.00000000  CHARGE = 14.0
  H    2    (CENTRE  2)   1.63215834  1.63215834  1.63215834  CHARGE =  1.0
  H    3    (CENTRE  3)  -1.63215834 -1.63215834  1.63215834  CHARGE =  1.0
  H    4    (CENTRE  4)  -1.63215834  1.63215834 -1.63215834  CHARGE =  1.0
  H    5    (CENTRE  5)   1.63215834 -1.63215834 -1.63215834  CHARGE =  1.0
CENTRE ASSIGNMENTS    1  1  1  1  1  1  1  1  1  1  1  1  1  1  1  1  1  1  1  1
CENTRE ASSIGNMENTS    1  1  1  1  1  1  1  1  1  1  1  1  1  1  1  1  1  1  1  1
CENTRE ASSIGNMENTS    1  1  1  1  1  1  1  1  1  1  1  1  1  1  1  1  1  1  1  1
CENTRE ASSIGNMENTS    1  1  1  1  1  1  1  1  1  1  1  1  1  1  1  1  1  1  1  1
CENTRE ASSIGNMENTS    1  1  1  1  1  1  1  1  1  1  1  1  1  1  1  1  1  1  1  1
CENTRE ASSIGNMENTS    1  1  1  1  1  1  1  1  1  1  1  1  1  1  1  1  1  1  1  1
CENTRE ASSIGNMENTS    1  1  1  1  1  1  1  1  1  1  1  2  2  2  2  2  2  2  2  2
CENTRE ASSIGNMENTS    2  2  2  2  2  2  2  2  2  2  2  2  2  2  2  2  2  2  3  3
CENTRE ASSIGNMENTS    3  3  3  3  3  3  3  3  3  3  3  3  3  3  3  3  3  3  3  3
CENTRE ASSIGNMENTS    3  3  3  3  3  4  4  4  4  4  4  4  4  4  4  4  4  4  4  4
CENTRE ASSIGNMENTS    4  4  4  4  4  4  4  4  4  4  4  4  5  5  5  5  5  5  5  5
CENTRE ASSIGNMENTS    5  5  5  5  5  5  5  5  5  5  5  5  5  5  5  5  5  5  5
TYPE ASSIGNMENTS      1  1  1  1  1  1  1  1  1  1  1  1  1  1  1  1  1  1  1  1
TYPE ASSIGNMENTS      1  1  1  1  1  1  1  1  1  1  1  1  1  1  1  1  1  1  1  1
TYPE ASSIGNMENTS      1  1  2  2  2  2  2  2  2  3  3  3  3  3  3  3  4  4  4  4
TYPE ASSIGNMENTS      4  4  4  2  2  2  2  2  2  2  3  3  3  3  3  3  3  4  4  4
TYPE ASSIGNMENTS      4  4  4  4  2  3  4  2  3  4  2  3  4  5  6  7  8  9 10  5
TYPE ASSIGNMENTS      6  7  8  9 10  5  6  7  8  9 10 11 12 13 17 14 15 18 19 16
TYPE ASSIGNMENTS     20 11 12 13 17 14 15 18 19 16 20  1  1  1  1  1  1  2  3  4
TYPE ASSIGNMENTS      2  3  4  2  3  4  5  6  7  8  9 10  5  6  7  8  9 10  1  1
TYPE ASSIGNMENTS      1  1  1  1  2  3  4  2  3  4  2  3  4  5  6  7  8  9 10  5
TYPE ASSIGNMENTS      6  7  8  9 10  1  1  1  1  1  1  2  3  4  2  3  4  2  3  4
TYPE ASSIGNMENTS      5  6  7  8  9 10  5  6  7  8  9 10  1  1  1  1  1  1  2  3
TYPE ASSIGNMENTS      4  2  3  4  2  3  4  5  6  7  8  9 10  5  6  7  8  9 10
EXPONENTS  0.2549000D+06 0.3819000D+05 0.8690000D+04 0.2462000D+04 0.8048000D+03
EXPONENTS  0.2913000D+03 0.1136000D+03 0.4675000D+02 0.1982000D+02 0.7708000D+01
EXPONENTS  0.3340000D+01 0.1402000D+01 0.2070000D+00 0.2549000D+06 0.3819000D+05
EXPONENTS  0.8690000D+04 0.2462000D+04 0.8048000D+03 0.2913000D+03 0.1136000D+03
EXPONENTS  0.4675000D+02 0.1982000D+02 0.7708000D+01 0.3340000D+01 0.1402000D+01
EXPONENTS  0.2070000D+00 0.2549000D+06 0.3819000D+05 0.8690000D+04 0.2462000D+04
EXPONENTS  0.8048000D+03 0.2913000D+03 0.1136000D+03 0.4675000D+02 0.1982000D+02
EXPONENTS  0.7708000D+01 0.3340000D+01 0.1402000D+01 0.2070000D+00 0.4387000D+00
EXPONENTS  0.7944000D-01 0.3300000D-01 0.4815000D+03 0.1139000D+03 0.3623000D+02
EXPONENTS  0.1334000D+02 0.5252000D+01 0.2120000D+01 0.2528000D+00 0.4815000D+03
EXPONENTS  0.1139000D+03 0.3623000D+02 0.1334000D+02 0.5252000D+01 0.2120000D+01
EXPONENTS  0.2528000D+00 0.4815000D+03 0.1139000D+03 0.3623000D+02 0.1334000D+02
EXPONENTS  0.5252000D+01 0.2120000D+01 0.2528000D+00 0.4815000D+03 0.1139000D+03
EXPONENTS  0.3623000D+02 0.1334000D+02 0.5252000D+01 0.2120000D+01 0.2528000D+00
EXPONENTS  0.4815000D+03 0.1139000D+03 0.3623000D+02 0.1334000D+02 0.5252000D+01
EXPONENTS  0.2120000D+01 0.2528000D+00 0.4815000D+03 0.1139000D+03 0.3623000D+02
EXPONENTS  0.1334000D+02 0.5252000D+01 0.2120000D+01 0.2528000D+00 0.8561000D+00
EXPONENTS  0.8561000D+00 0.8561000D+00 0.7889000D-01 0.7889000D-01 0.7889000D-01
EXPONENTS  0.2370000D-01 0.2370000D-01 0.2370000D-01 0.1590000D+00 0.1590000D+00
EXPONENTS  0.1590000D+00 0.1590000D+00 0.1590000D+00 0.1590000D+00 0.4810000D+00
EXPONENTS  0.4810000D+00 0.4810000D+00 0.4810000D+00 0.4810000D+00 0.4810000D+00
EXPONENTS  0.5560000D-01 0.5560000D-01 0.5560000D-01 0.5560000D-01 0.5560000D-01
EXPONENTS  0.5560000D-01 0.3360000D+00 0.3360000D+00 0.3360000D+00 0.3360000D+00
EXPONENTS  0.3360000D+00 0.3360000D+00 0.3360000D+00 0.3360000D+00 0.3360000D+00
EXPONENTS  0.3360000D+00 0.1250000D+00 0.1250000D+00 0.1250000D+00 0.1250000D+00
EXPONENTS  0.1250000D+00 0.1250000D+00 0.1250000D+00 0.1250000D+00 0.1250000D+00
EXPONENTS  0.1250000D+00 0.3387000D+02 0.5095000D+01 0.1159000D+01 0.3258000D+00
EXPONENTS  0.1027000D+00 0.2526000D-01 0.1407000D+01 0.1407000D+01 0.1407000D+01
EXPONENTS  0.3880000D+00 0.3880000D+00 0.3880000D+00 0.1020000D+00 0.1020000D+00
EXPONENTS  0.1020000D+00 0.1057000D+01 0.1057000D+01 0.1057000D+01 0.1057000D+01
EXPONENTS  0.1057000D+01 0.1057000D+01 0.2470000D+00 0.2470000D+00 0.2470000D+00
EXPONENTS  0.2470000D+00 0.2470000D+00 0.2470000D+00 0.3387000D+02 0.5095000D+01
EXPONENTS  0.1159000D+01 0.3258000D+00 0.1027000D+00 0.2526000D-01 0.1407000D+01
EXPONENTS  0.1407000D+01 0.1407000D+01 0.3880000D+00 0.3880000D+00 0.3880000D+00
EXPONENTS  0.1020000D+00 0.1020000D+00 0.1020000D+00 0.1057000D+01 0.1057000D+01
EXPONENTS  0.1057000D+01 0.1057000D+01 0.1057000D+01 0.1057000D+01 0.2470000D+00
EXPONENTS  0.2470000D+00 0.2470000D+00 0.2470000D+00 0.2470000D+00 0.2470000D+00
EXPONENTS  0.3387000D+02 0.5095000D+01 0.1159000D+01 0.3258000D+00 0.1027000D+00
EXPONENTS  0.2526000D-01 0.1407000D+01 0.1407000D+01 0.1407000D+01 0.3880000D+00
EXPONENTS  0.3880000D+00 0.3880000D+00 0.1020000D+00 0.1020000D+00 0.1020000D+00
EXPONENTS  0.1057000D+01 0.1057000D+01 0.1057000D+01 0.1057000D+01 0.1057000D+01
EXPONENTS  0.1057000D+01 0.2470000D+00 0.2470000D+00 0.2470000D+00 0.2470000D+00
EXPONENTS  0.2470000D+00 0.2470000D+00 0.3387000D+02 0.5095000D+01 0.1159000D+01
EXPONENTS  0.3258000D+00 0.1027000D+00 0.2526000D-01 0.1407000D+01 0.1407000D+01
EXPONENTS  0.1407000D+01 0.3880000D+00 0.3880000D+00 0.3880000D+00 0.1020000D+00
EXPONENTS  0.1020000D+00 0.1020000D+00 0.1057000D+01 0.1057000D+01 0.1057000D+01
EXPONENTS  0.1057000D+01 0.1057000D+01 0.1057000D+01 0.2470000D+00 0.2470000D+00
EXPONENTS  0.2470000D+00 0.2470000D+00 0.2470000D+00 0.2470000D+00
MO    1     MO 0.0        OCC NO =    2.0000000  ORB. ENERGY =  -65.424437
  0.50695051D+00  0.94828063D+00  0.16376380D+01  0.26452123D+01  0.39836353D+01
  0.54177252D+01  0.61675309D+01  0.49965458D+01  0.20281967D+01  0.18494364D+00
 -0.71074251D-02  0.23766718D-02  0.13337343D-03 -0.29691383D-02 -0.55574094D-02
 -0.96117534D-02 -0.15622168D-01 -0.23901789D-01 -0.33918291D-01 -0.42547679D-01
 -0.43381044D-01 -0.26654176D-01  0.58090596D-02  0.21277726D-01  0.97316827D-02
 -0.51656305D-04  0.15698363D-02  0.29361420D-02  0.50846023D-02  0.82556007D-02
  0.12672180D-01  0.18000266D-01  0.22836193D-01  0.23641630D-01  0.15228082D-01
 -0.37454261D-02 -0.15267510D-01 -0.13315925D-01  0.67864885D-02 -0.30347982D-02
 -0.11303187D-01  0.57061292D-03 -0.15688106D-14 -0.20693420D-14 -0.22985307D-14
 -0.19672183D-14 -0.11240527D-14 -0.36477961D-15 -0.25685185D-18 -0.50727475D-14
 -0.66912153D-14 -0.74322965D-14 -0.63609983D-14 -0.36346233D-14 -0.11795145D-14
 -0.83053020D-18  0.13746035D-15  0.18131728D-15  0.20139896D-15  0.17236912D-15
  0.98490330D-16  0.31962259D-16  0.22505549D-19  0.13618295D-14  0.18622844D-14
  0.20244907D-14  0.18583766D-14  0.10128907D-14  0.42742042D-15 -0.14741212D-15
  0.43089240D-14  0.58923982D-14  0.64056303D-14  0.58800337D-14  0.32048571D-14
  0.13523882D-14 -0.46642227D-15 -0.34373443D-16 -0.47005242D-16 -0.51099432D-16
 -0.46906607D-16 -0.25566005D-16 -0.10788363D-16  0.37207756D-17  0.92421594D-16
  0.19789152D-15 -0.13288322D-15  0.22653604D-17 -0.52513014D-15  0.15976965D-15
  0.53482011D-17 -0.48574702D-17  0.16145550D-16  0.38189014D-16 -0.51734242D-16
  0.13545229D-16  0.20180882D-15 -0.14540568D-15 -0.10631767D-15 -0.40317296D-17
 -0.26590574D-17  0.66907870D-17 -0.39778787D-16 -0.14454565D-15 -0.13791387D-15
  0.42557278D-17 -0.45947449D-17  0.33901705D-18  0.27142254D-16 -0.13796306D-16
  0.84019694D-19  0.25890990D-16  0.14944415D-16 -0.19398008D-16 -0.37983622D-16
 -0.73783558D-17  0.26532241D-16 -0.39689348D-16 -0.37454889D-16  0.31661783D-16
  0.13009352D-02  0.21165064D-17 -0.31211483D-17 -0.10410279D-16  0.21137519D-18
  0.71795937D-17  0.23437324D-16 -0.65608943D-17  0.21838513D-17  0.77935117D-17
 -0.26438950D-03  0.61894319D-04  0.11162895D-03  0.16459683D-03 -0.79471261D-03
  0.33898788D-02 -0.50736939D-04 -0.14522290D-03 -0.14522290D-03 -0.14522290D-03
  0.61061600D-03  0.61061600D-03  0.61061600D-03 -0.28241055D-03 -0.28241055D-03
 -0.28241055D-03 -0.23958006D-16  0.41951730D-16 -0.17993724D-16 -0.37519777D-03
 -0.37519777D-03 -0.37519777D-03  0.41406697D-16 -0.19309573D-16 -0.22097124D-16
 -0.14777335D-03 -0.14777335D-03 -0.14777335D-03  0.61894319D-04  0.11162895D-03
  0.16459683D-03 -0.79471261D-03  0.33898788D-02 -0.50736939D-04  0.14522290D-03
  0.14522290D-03 -0.14522290D-03 -0.61061600D-03 -0.61061600D-03  0.61061600D-03
  0.28241055D-03  0.28241055D-03 -0.28241055D-03 -0.19512671D-16  0.63624028D-16
 -0.44111357D-16 -0.37519777D-03  0.37519777D-03  0.37519777D-03  0.78370682D-17
 -0.18021799D-16  0.10184731D-16 -0.14777335D-03  0.14777335D-03  0.14777335D-03
  0.61894319D-04  0.11162895D-03  0.16459683D-03 -0.79471261D-03  0.33898788D-02
 -0.50736939D-04  0.14522290D-03 -0.14522290D-03  0.14522290D-03 -0.61061600D-03
  0.61061600D-03 -0.61061600D-03  0.28241055D-03 -0.28241055D-03  0.28241055D-03
  0.37939658D-16 -0.57156790D-17 -0.32223979D-16  0.37519777D-03 -0.37519777D-03
  0.37519777D-03 -0.13448480D-16 -0.58110482D-17  0.19259528D-16  0.14777335D-03
 -0.14777335D-03  0.14777335D-03  0.61894319D-04  0.11162895D-03  0.16459683D-03
 -0.79471261D-03  0.33898788D-02 -0.50736939D-04 -0.14522290D-03  0.14522290D-03
  0.14522290D-03  0.61061600D-03 -0.61061600D-03 -0.61061600D-03 -0.28241055D-03
  0.28241055D-03  0.28241055D-03  0.88617242D-17  0.93440974D-17 -0.18205822D-16
  0.37519777D-03  0.37519777D-03 -0.37519777D-03  0.31119715D-17 -0.17520068D-16
  0.14408097D-16  0.14777335D-03  0.14777335D-03 -0.14777335D-03
MO    2     MO 0.0        OCC NO =    2.0000000  ORB. ENERGY =   -5.055723
 -0.40277959D-02 -0.75342282D-02 -0.13011273D-01 -0.21016598D-01 -0.31650565D-01
 -0.43044619D-01 -0.49001934D-01 -0.39698287D-01 -0.16114319D-01 -0.14694042D-02
  0.56469531D-04 -0.18883005D-04 -0.10596714D-05 -0.12751174D+00 -0.23866687D+00
 -0.41278353D+00 -0.67090501D+00 -0.10264792D+01 -0.14566449D+01 -0.18272401D+01
 -0.18630295D+01 -0.11446824D+01  0.24947416D+00  0.91378694D+00  0.41793398D+00
 -0.22184165D-02 -0.25523433D-02 -0.47737730D-02 -0.82668814D-02 -0.13422500D-01
 -0.20603265D-01 -0.29266019D-01 -0.37128587D-01 -0.38438120D-01 -0.24758820D-01
  0.60895606D-02  0.24822923D-01  0.21649908D-01 -0.11033920D-01  0.33490551D-01
  0.16667830D-01 -0.12211466D-02 -0.16724432D-12 -0.22060388D-12 -0.24503672D-12
 -0.20971690D-12 -0.11983055D-12 -0.38887625D-13 -0.27381899D-16  0.88128573D-13
  0.11624613D-12  0.12912089D-12  0.11050929D-12  0.63144118D-13  0.20491643D-13
  0.14428757D-16 -0.21131329D-12 -0.27873312D-12 -0.30960402D-12 -0.26497741D-12
 -0.15140596D-12 -0.49134535D-13 -0.34597044D-16  0.14521522D-12  0.19857994D-12
  0.21587640D-12  0.19816325D-12  0.10800702D-12  0.45576887D-13 -0.15718915D-13
 -0.72713972D-13 -0.99435422D-13 -0.10809632D-12 -0.99226769D-13 -0.54082618D-13
 -0.22821826D-13  0.78709711D-14  0.18120251D-12  0.24779210D-12  0.26937497D-12
  0.24727213D-12  0.13477335D-12  0.56871767D-13 -0.19614383D-13  0.60667835D-14
 -0.29974547D-14  0.80270205D-14 -0.15371702D-13  0.13292745D-13 -0.17673402D-13
 -0.81739093D-15 -0.60105775D-15 -0.45700016D-15  0.14972742D-14 -0.19877283D-14
  0.49045414D-15 -0.73885302D-14 -0.21745524D-14 -0.58643598D-14  0.32855158D-15
 -0.43559531D-15  0.10704373D-15 -0.10385057D-13  0.69372441D-16 -0.72587291D-14
  0.10261970D-15 -0.12437207D-15  0.21752371D-16 -0.72193115D-15 -0.64138759D-15
 -0.91148092D-15  0.67007330D-15  0.32928495D-15  0.12522744D-14 -0.11879950D-14
 -0.53636144D-15 -0.13457094D-14 -0.82222486D-15 -0.45149341D-15 -0.24111137D-14
 -0.12935071D-02  0.85492159D-16  0.49971573D-15  0.59964897D-16 -0.26712984D-15
 -0.67857538D-15 -0.59409274D-16  0.10653363D-16 -0.82057180D-15 -0.12048542D-15
  0.31769419D-03 -0.38319505D-04 -0.69110805D-04 -0.10190384D-03  0.96051573D-03
 -0.47565481D-02  0.11699256D-03  0.16758741D-03  0.16758741D-03  0.16758741D-03
 -0.61389165D-03 -0.61389165D-03 -0.61389165D-03  0.42600309D-03  0.42600309D-03
  0.42600309D-03 -0.29614680D-15 -0.38412343D-15  0.68027024D-15  0.41924211D-03
  0.41924211D-03  0.41924211D-03  0.34335725D-15 -0.14144236D-15 -0.20191488D-15
  0.10802790D-03  0.10802790D-03  0.10802790D-03 -0.38319505D-04 -0.69110805D-04
 -0.10190384D-03  0.96051573D-03 -0.47565481D-02  0.11699256D-03 -0.16758741D-03
 -0.16758741D-03  0.16758741D-03  0.61389165D-03  0.61389165D-03 -0.61389165D-03
 -0.42600309D-03 -0.42600309D-03  0.42600309D-03 -0.50390413D-15  0.39611418D-15
  0.10778996D-15  0.41924211D-03 -0.41924211D-03 -0.41924211D-03  0.89596903D-15
 -0.12620904D-14  0.36612135D-15  0.10802790D-03 -0.10802790D-03 -0.10802790D-03
 -0.38319505D-04 -0.69110805D-04 -0.10190384D-03  0.96051573D-03 -0.47565481D-02
  0.11699256D-03 -0.16758741D-03  0.16758741D-03 -0.16758741D-03  0.61389165D-03
 -0.61389165D-03  0.61389165D-03 -0.42600309D-03  0.42600309D-03 -0.42600309D-03
  0.11585415D-15 -0.16291050D-15  0.47056350D-16 -0.41924211D-03  0.41924211D-03
 -0.41924211D-03 -0.12494680D-15  0.53367778D-15 -0.40873098D-15 -0.10802790D-03
  0.10802790D-03 -0.10802790D-03 -0.38319505D-04 -0.69110805D-04 -0.10190384D-03
  0.96051573D-03 -0.47565481D-02  0.11699256D-03  0.16758741D-03 -0.16758741D-03
 -0.16758741D-03 -0.61389165D-03  0.61389165D-03  0.61389165D-03  0.42600309D-03
 -0.42600309D-03 -0.42600309D-03 -0.13836402D-15  0.84325007D-15 -0.70488605D-15
 -0.41924211D-03 -0.41924211D-03  0.41924211D-03  0.53452867D-15 -0.10912031D-14
  0.55667441D-15 -0.10802790D-03 -0.10802790D-03  0.10802790D-03
MO    3     MO 0.0        OCC NO =    2.0000000  ORB. ENERGY =   -3.466104
 -0.19521083D-14 -0.36515330D-14 -0.63060334D-14 -0.10185888D-13 -0.15339737D-13
 -0.20861970D-13 -0.23749238D-13 -0.19240140D-13 -0.78099528D-14 -0.71216027D-15
  0.27368478D-16 -0.91518218D-17 -0.51357950D-18  0.38795568D-14  0.72614620D-14
  0.12558978D-13  0.20412348D-13  0.31230726D-13  0.44318559D-13  0.55593952D-13
  0.56682850D-13  0.34827070D-13 -0.75902750D-14 -0.27802054D-13 -0.12715681D-13
  0.67495531D-16 -0.22620414D-14 -0.42308071D-14 -0.73266115D-14 -0.11895833D-13
 -0.18259863D-13 -0.25937320D-13 -0.32905605D-13 -0.34066192D-13 -0.21942767D-13
  0.53969377D-14  0.21999579D-13  0.19187461D-13 -0.97789290D-14 -0.34953849D-14
  0.10347160D-12 -0.49779299D-14 -0.20357521D+01 -0.26852620D+01 -0.29826664D+01
 -0.25527421D+01 -0.14586163D+01 -0.47335279D+00 -0.33330136D-03  0.42641309D+01
  0.56246084D+01  0.62475582D+01  0.53470292D+01  0.30552495D+01  0.99149508D+00
  0.69814030D-03  0.40665321D+01  0.53639655D+01  0.59580480D+01  0.50992493D+01
  0.29136701D+01  0.94554945D+00  0.66578866D-03  0.24519842D-01  0.33530568D-01
  0.36451105D-01  0.33460209D-01  0.18237172D-01  0.76957365D-02 -0.26541662D-02
 -0.51359796D-01 -0.70233861D-01 -0.76351281D-01 -0.70086483D-01 -0.38199979D-01
 -0.16119658D-01  0.55594744D-02 -0.48979796D-01 -0.66979242D-01 -0.72813182D-01
 -0.66838694D-01 -0.36429802D-01 -0.15372677D-01  0.53018498D-02 -0.50920647D-01
  0.10665950D+00  0.10171692D+00 -0.66882433D-03  0.14009340D-02  0.13360151D-02
 -0.51716971D-05  0.10832750D-04  0.10330763D-04 -0.14418242D-15  0.17855474D-15
 -0.34372317D-16  0.96675265D-03  0.10137286D-02 -0.48396735D-03 -0.34169821D-16
 -0.16460652D-16  0.50630473D-16  0.18612586D-02  0.19516999D-02 -0.93176717D-03
 -0.11738801D-16  0.25895866D-16 -0.14157065D-16  0.23394103D-04  0.24530857D-04
 -0.11711354D-04  0.12171697D-03 -0.25495101D-03 -0.24313665D-03 -0.18257545D-03
  0.38242652D-03  0.36470498D-03 -0.18257545D-03  0.38242652D-03  0.36470498D-03
  0.12067563D-14  0.15149824D-05 -0.31733151D-05 -0.30262645D-05 -0.22724735D-05
  0.47599727D-05  0.45393968D-05 -0.22724735D-05  0.47599727D-05  0.45393968D-05
  0.17296805D-14  0.26279862D-03  0.47396813D-03  0.69886573D-03 -0.23883016D-02
 -0.35764945D-02 -0.15065103D-03 -0.77936309D-03 -0.54349746D-03 -0.55089549D-03
  0.14019009D-02  0.14549595D-02  0.14532953D-02  0.58084644D-03  0.32401827D-03
  0.33207380D-03  0.20410050D-03 -0.10692803D-03 -0.97172475D-04 -0.12469099D-03
 -0.10538242D-03 -0.72098229D-03 -0.11721961D-03  0.61411222D-04  0.55808384D-04
 -0.26983405D-03 -0.27825868D-03 -0.96629568D-05  0.76738843D-04  0.13840166D-03
  0.20407317D-03 -0.69739905D-03 -0.10443588D-02 -0.43991045D-04  0.12910488D-03
  0.36497051D-03 -0.53073116D-04 -0.43151584D-03 -0.37845721D-03  0.44861940D-03
 -0.62384899D-04 -0.31921308D-03 -0.20404182D-04 -0.70255952D-04  0.24077258D-03
 -0.17051663D-03  0.24492179D-03  0.56911794D-03 -0.46481929D-04  0.40349606D-04
 -0.13828122D-03  0.97931614D-04 -0.20154288D-03 -0.15363522D-03  0.11496050D-03
  0.93237463D-04  0.16815760D-03  0.24794829D-03 -0.84733774D-03 -0.12688928D-02
 -0.53448987D-04  0.17324866D-03 -0.89818865D-04  0.40171626D-03 -0.52060423D-03
  0.53937200D-03 -0.46920981D-03 -0.93640449D-04  0.27958335D-05 -0.34241309D-03
 -0.63752250D-04 -0.17376848D-03  0.23752073D-03  0.58258433D-03  0.23145541D-03
 -0.13706972D-04  0.36614381D-04  0.99799227D-04 -0.13641361D-03 -0.13915496D-03
 -0.21602314D-03  0.12101614D-03 -0.43277492D-03 -0.78052740D-03 -0.11508872D-02
  0.39330384D-02  0.58897461D-02  0.24809106D-03  0.10817166D-02 -0.99828684D-03
 -0.10056849D-02 -0.23540209D-02  0.23727887D-02  0.23711245D-02 -0.73687179D-03
  0.64602718D-03  0.65408271D-03 -0.70092300D-04  0.39923927D-04  0.30168374D-04
 -0.46235353D-03 -0.44304496D-03  0.66079339D-03  0.40255618D-04 -0.22929228D-04
 -0.17326390D-04 -0.33222197D-03 -0.34064660D-03  0.24563960D-03
MO    4     MO 0.0        OCC NO =    2.0000000  ORB. ENERGY =   -3.466104
 -0.50512326D-14 -0.94486266D-14 -0.16317353D-13 -0.26356779D-13 -0.39692767D-13
 -0.53981976D-13 -0.61453007D-13 -0.49785363D-13 -0.20208862D-13 -0.18427703D-14
  0.70818072D-16 -0.23681053D-16 -0.13289270D-17  0.10116664D-13  0.18935609D-13
  0.32749865D-13  0.53228985D-13  0.81439913D-13  0.11556887D-12  0.14497154D-12
  0.14781105D-12  0.90818047D-13 -0.19793050D-13 -0.72499014D-13 -0.33158497D-13
  0.17600712D-15 -0.59212966D-14 -0.11074892D-13 -0.19178712D-13 -0.31139463D-13
 -0.47798446D-13 -0.67895561D-13 -0.86136288D-13 -0.89174332D-13 -0.57439105D-13
  0.14127447D-13  0.57587821D-13  0.50226600D-13 -0.25598090D-13 -0.17064567D-13
  0.42218633D-12 -0.17079334D-13  0.22584981D+01  0.29790753D+01  0.33090209D+01
  0.28320555D+01  0.16182137D+01  0.52514563D+00  0.36977020D-03  0.45384809D+01
  0.59864902D+01  0.66495201D+01  0.56910519D+01  0.32518213D+01  0.10552869D+01
  0.74305797D-03 -0.36283826D+01 -0.47860236D+01 -0.53160965D+01 -0.45498293D+01
 -0.25997359D+01 -0.84367098D+00 -0.59405309D-03 -0.27202730D-01 -0.37199383D-01
 -0.40439476D-01 -0.37121325D-01 -0.20232629D-01 -0.85377810D-02  0.29445771D-02
 -0.54664236D-01 -0.74752639D-01 -0.81263648D-01 -0.74595780D-01 -0.40657729D-01
 -0.17156781D-01  0.59171656D-02  0.43702455D-01  0.59762546D-01  0.64967907D-01
  0.59637141D-01  0.32504664D-01  0.13716344D-01 -0.47306006D-02  0.56492232D-01
  0.11352187D+00 -0.90757408D-01  0.74200508D-03  0.14910688D-02 -0.11920658D-02
  0.57375687D-05  0.11529718D-04 -0.92176720D-05  0.32935788D-15 -0.36795849D-15
  0.38600611D-16 -0.86258963D-03  0.10789509D-02  0.53692161D-03  0.13949479D-17
 -0.21012252D-16  0.19617304D-16 -0.16607168D-02  0.20772703D-02  0.10337183D-02
  0.33616723D-16 -0.36138807D-16  0.25220842D-17 -0.20873500D-04  0.26109149D-04
  0.12992775D-04 -0.13503487D-03 -0.27135432D-03  0.21693983D-03  0.20255231D-03
  0.40703147D-03 -0.32540974D-03  0.20255231D-03  0.40703147D-03 -0.32540974D-03
  0.64048034D-14 -0.16807472D-05 -0.33774831D-05  0.27001988D-05  0.25211208D-05
  0.50662247D-05 -0.40502983D-05  0.25211208D-05  0.50662247D-05 -0.40502983D-05
  0.70213203D-14  0.13228190D-03  0.23857585D-03  0.35177995D-03 -0.12021717D-02
 -0.18002586D-02 -0.75831465D-04 -0.26937659D-03 -0.18401475D-03 -0.48977954D-03
  0.73331034D-03  0.75251272D-03  0.68373008D-03  0.15852684D-03  0.65578476D-04
  0.39851810D-03 -0.59358145D-04 -0.17192210D-03  0.23128024D-03 -0.61733290D-03
  0.18070099D-03 -0.42089997D-04  0.34090746D-04  0.98738807D-04 -0.13282955D-03
  0.10614361D-03 -0.24205089D-03 -0.14484374D-03 -0.43523580D-03 -0.78496570D-03
 -0.11574315D-02  0.39554028D-02  0.59232369D-02  0.24950178D-03 -0.10799614D-02
 -0.99459960D-03  0.10286734D-02  0.23691851D-02  0.23883874D-02 -0.23807225D-02
  0.73245306D-03  0.63950469D-03 -0.67660679D-03 -0.60065289D-04  0.52498661D-04
  0.75666281D-05  0.51005640D-03 -0.42112515D-03 -0.64391614D-03  0.34496875D-04
 -0.30151187D-04 -0.43456882D-05  0.31444469D-03 -0.35324676D-03 -0.25603962D-03
  0.24666120D-03  0.44486363D-03  0.65595117D-03 -0.22416455D-02 -0.33568762D-02
 -0.14140015D-03  0.74452528D-03 -0.49004853D-03  0.52412233D-03 -0.13128869D-02
  0.13701321D-02 -0.13624671D-02 -0.55935588D-03  0.28226253D-03 -0.31936463D-03
  0.20873627D-03 -0.12683415D-03 -0.81902117D-04  0.13544784D-03 -0.46516592D-04
  0.71069073D-03 -0.11988203D-03  0.72843765D-04  0.47038267D-04  0.24523047D-03
 -0.28403254D-03 -0.57568827D-05  0.56292708D-04  0.10152622D-03  0.14970035D-03
 -0.51158552D-03 -0.76610205D-03 -0.32270164D-04 -0.66059570D-04  0.32053632D-03
  0.14771525D-04  0.32298787D-03 -0.26574261D-03 -0.33452526D-03  0.14570331D-04
 -0.29166369D-03  0.41275935D-04 -0.89312834D-04  0.24625758D-03 -0.15694475D-03
 -0.24272433D-03  0.55530955D-03  0.10886459D-03  0.51294411D-04 -0.14143139D-03
  0.90136974D-04  0.17535783D-03 -0.17283667D-03 -0.11695275D-03
MO    5     MO 0.0        OCC NO =    2.0000000  ORB. ENERGY =   -3.466104
 -0.91737106D-15 -0.17159963D-14 -0.29634485D-14 -0.47867419D-14 -0.72087347D-14
 -0.98038452D-14 -0.11160684D-13 -0.90416844D-14 -0.36701983D-14 -0.33467161D-15
  0.12861504D-16 -0.43007944D-17 -0.24135083D-18  0.17780894D-14  0.33280937D-14
  0.57560661D-14  0.93554450D-14  0.14313754D-13  0.20312207D-13  0.25479976D-13
  0.25979043D-13  0.15962041D-13 -0.34787962D-14 -0.12742316D-13 -0.58278866D-14
  0.30934742D-16 -0.10040105D-14 -0.18778502D-14 -0.32519277D-14 -0.52799835D-14
 -0.81046679D-14 -0.11512319D-13 -0.14605203D-13 -0.15120331D-13 -0.97393306D-14
  0.23954390D-14  0.97645468D-14  0.85163838D-14 -0.43403925D-14 -0.27487063D-14
  0.66858472D-13  0.14471114D-14  0.54423049D+01  0.71786806D+01  0.79737507D+01
  0.68244067D+01  0.38994111D+01  0.12654439D+01  0.89103559D-03 -0.28837722D+00
 -0.38038442D+00 -0.42251364D+00 -0.36161213D+00 -0.20662226D+00 -0.67053429D-01
 -0.47214254D-04  0.30268695D+01  0.39925968D+01  0.44347943D+01  0.37955588D+01
  0.21687518D+01  0.70380724D+00  0.49557099D-03 -0.65550443D-01 -0.89639388D-01
 -0.97447044D-01 -0.89451290D-01 -0.48754586D-01 -0.20573499D-01  0.70955502D-02
  0.34733913D-02  0.47498180D-02  0.51635306D-02  0.47398511D-02  0.25834113D-02
  0.10901500D-02 -0.37597950D-03 -0.36457464D-01 -0.49855114D-01 -0.54197530D-01
 -0.49750499D-01 -0.27116042D-01 -0.11442449D-01  0.39463619D-02  0.13612938D+00
 -0.72132330D-02  0.75711649D-01  0.17880103D-02 -0.94743214D-04  0.99444520D-03
  0.13825825D-04 -0.73260374D-06  0.76895668D-05 -0.22350430D-15  0.61568766D-16
  0.16193553D-15  0.71958957D-03 -0.68557049D-04  0.12938205D-02 -0.45536191D-16
  0.43529371D-16  0.20068197D-17  0.13854032D-02 -0.13199074D-03  0.24909521D-02
 -0.22308163D-16  0.11145436D-17  0.21193619D-16  0.17413092D-04 -0.16589876D-05
  0.31308702D-04 -0.32539366D-03  0.17241981D-04 -0.18097555D-03  0.48809049D-03
 -0.25862972D-04  0.27146333D-03  0.48809049D-03 -0.25862972D-04  0.27146333D-03
  0.13399988D-14 -0.40500981D-05  0.21460687D-06 -0.22525600D-05  0.60751471D-05
 -0.32191031D-06  0.33788400D-05  0.60751471D-05 -0.32191031D-06  0.33788400D-05
  0.13651736D-14  0.34153020D-03  0.61596378D-03  0.90823824D-03 -0.31038106D-02
 -0.46479730D-02 -0.19578443D-03 -0.71004158D-03 -0.92459651D-03 -0.80047472D-03
  0.18900130D-02  0.18417482D-02  0.18696698D-02  0.42513928D-03  0.65876277D-03
  0.52360966D-03 -0.13405936D-03  0.14886742D-03 -0.14808052D-04 -0.38268518D-03
 -0.70663809D-03 -0.14665830D-03  0.76993372D-04 -0.85497976D-04  0.85046043D-05
 -0.25440555D-03 -0.11305990D-03 -0.35738772D-03 -0.88799978D-04 -0.16015442D-03
 -0.23614760D-03  0.80701008D-03  0.12085019D-02  0.50905170D-04 -0.33835447D-04
 -0.24839038D-03  0.35091866D-03  0.52533347D-03  0.47706874D-03 -0.45400471D-03
 -0.53641467D-04  0.17998202D-03 -0.29162250D-03  0.23368479D-03 -0.49241994D-04
 -0.18444279D-03  0.47217738D-03 -0.20458265D-03  0.35539714D-03 -0.13421054D-03
  0.28280808D-04  0.10592973D-03 -0.96457635D-04 -0.20298075D-04 -0.26462590D-03
 -0.36560842D-03 -0.65938985D-03 -0.97226995D-03  0.33226324D-02  0.49756598D-02
  0.20958743D-03 -0.77446538D-03  0.96742681D-03 -0.86489852D-03  0.20200293D-02
 -0.19766221D-02  0.19996861D-02  0.47075389D-03 -0.68086475D-03  0.56922427D-03
  0.12456781D-03 -0.12988430D-03  0.53164956D-05 -0.43051722D-03  0.69811195D-03
 -0.19449034D-03 -0.71542153D-04  0.74595538D-04 -0.30533855D-05 -0.26324320D-03
  0.14648749D-03 -0.36622537D-03  0.11287820D-03  0.20358049D-03  0.30017931D-03
 -0.10258319D-02 -0.15361887D-02 -0.64708169D-04 -0.98259251D-04  0.29122068D-03
  0.41534247D-03  0.65534980D-03 -0.61194259D-03 -0.58402105D-03 -0.80268602D-05
 -0.20208400D-03 -0.33723711D-03 -0.22419323D-03  0.30258881D-04  0.19393435D-03
  0.52000943D-03  0.19605651D-03  0.30756509D-03  0.12875932D-03 -0.17378370D-04
 -0.11138095D-03 -0.87619990D-04  0.53725664D-04 -0.27346354D-03
MO    6     MO 0.0        OCC NO =    2.0000000  ORB. ENERGY =   -0.493561
 -0.24665233D-02 -0.46137763D-02 -0.79677842D-02 -0.12870049D-01 -0.19382028D-01
 -0.26359467D-01 -0.30007581D-01 -0.24310255D-01 -0.98680130D-02 -0.89982705D-03
  0.34580554D-04 -0.11563488D-04 -0.64891674D-06  0.74406467D-02  0.13926842D-01
  0.24087009D-01  0.39149079D-01  0.59897771D-01  0.84999077D-01  0.10662428D+00
  0.10871269D+00  0.66795241D-01 -0.14557476D-01 -0.53321881D-01 -0.24387551D-01
  0.12945046D-03  0.25714343D-01  0.48094798D-01  0.83287158D-01  0.13522897D+00
  0.20757373D+00  0.29484922D+00  0.37406301D+00  0.38725628D+00  0.24944010D+00
 -0.61351091D-01 -0.25008593D+00 -0.21811844D+00  0.11116451D+00  0.36443202D-01
 -0.20367348D-01  0.10586165D-03 -0.32394280D-12 -0.42729724D-12 -0.47462227D-12
 -0.40620977D-12 -0.23210500D-12 -0.75323131D-13 -0.53037190D-16 -0.54617234D-12
 -0.72042946D-12 -0.80022016D-12 -0.68487566D-12 -0.39133245D-12 -0.12699591D-12
 -0.89421486D-16 -0.79403159D-13 -0.10473686D-12 -0.11633692D-12 -0.99568008D-13
 -0.56892359D-13 -0.18462811D-13 -0.13000198D-16  0.28696574D-12  0.39242196D-12
  0.42660219D-12  0.39159851D-12  0.21343709D-12  0.90066352D-13 -0.31062792D-13
  0.47627647D-12  0.65130195D-12  0.70803082D-12  0.64993527D-12  0.35424111D-12
  0.14948295D-12 -0.51554855D-13  0.76008869D-13  0.10394115D-12  0.11299450D-12
  0.10372304D-12  0.56533271D-13  0.23855954D-13 -0.82276293D-14  0.12001240D-13
  0.18106986D-13  0.22273949D-14 -0.49763608D-13 -0.63330376D-13  0.19542630D-13
  0.23414656D-14 -0.42140212D-14  0.54680864D-14  0.61689021D-14 -0.20815217D-14
 -0.40873804D-14 -0.31724423D-14 -0.31714093D-13 -0.17388519D-13 -0.91142048D-15
  0.28663149D-15  0.62478900D-15 -0.99889828D-14 -0.22254787D-13 -0.95170152D-14
  0.84482018D-15 -0.29627563D-15 -0.54854455D-15  0.31305025D-14 -0.50176069D-14
 -0.39619536D-16  0.24034668D-14  0.39061191D-14  0.22774785D-14 -0.32979803D-14
 -0.59699023D-14 -0.40505222D-14 -0.39124201D-14 -0.57484551D-14 -0.27819132D-14
  0.45191916D-02 -0.28522502D-15  0.96157554D-15 -0.23357220D-15  0.88598651D-15
 -0.19039182D-14  0.43020653D-15 -0.30311455D-16 -0.98080838D-15  0.27051008D-15
 -0.61235086D-03  0.18346007D-01  0.33087780D-01  0.48787912D-01  0.33049460D-01
  0.17625216D-01  0.90487236D-04 -0.56276295D-02 -0.56276295D-02 -0.56276295D-02
 -0.41151856D-02 -0.41151856D-02 -0.41151856D-02 -0.14428545D-02 -0.14428545D-02
 -0.14428545D-02 -0.12961042D-14 -0.32816323D-15  0.16242674D-14  0.42856328D-02
  0.42856328D-02  0.42856328D-02  0.50942888D-15  0.41317391D-15 -0.92260279D-15
  0.36235895D-03  0.36235895D-03  0.36235895D-03  0.18346007D-01  0.33087780D-01
  0.48787912D-01  0.33049460D-01  0.17625216D-01  0.90487236D-04  0.56276295D-02
  0.56276295D-02 -0.56276295D-02  0.41151856D-02  0.41151856D-02 -0.41151856D-02
  0.14428545D-02  0.14428545D-02 -0.14428545D-02 -0.27197245D-14  0.11571795D-15
  0.26040065D-14  0.42856328D-02 -0.42856328D-02 -0.42856328D-02  0.16228239D-14
 -0.24494339D-14  0.82660998D-15  0.36235895D-03 -0.36235895D-03 -0.36235895D-03
  0.18346007D-01  0.33087780D-01  0.48787912D-01  0.33049460D-01  0.17625216D-01
  0.90487236D-04  0.56276295D-02 -0.56276295D-02  0.56276295D-02  0.41151856D-02
 -0.41151856D-02  0.41151856D-02  0.14428545D-02 -0.14428545D-02  0.14428545D-02
 -0.18291172D-14 -0.68261918D-15  0.25117364D-14 -0.42856328D-02  0.42856328D-02
 -0.42856328D-02  0.52449477D-15  0.10434541D-14 -0.15679489D-14 -0.36235895D-03
  0.36235895D-03 -0.36235895D-03  0.18346007D-01  0.33087780D-01  0.48787912D-01
  0.33049460D-01  0.17625216D-01  0.90487236D-04 -0.56276295D-02  0.56276295D-02
  0.56276295D-02 -0.41151856D-02  0.41151856D-02  0.41151856D-02 -0.14428545D-02
  0.14428545D-02  0.14428545D-02 -0.23068794D-14 -0.19189723D-14  0.42258518D-14
 -0.42856328D-02 -0.42856328D-02  0.42856328D-02  0.36787198D-14 -0.11446534D-14