 Molden2AIM, Version 4.0.0 (06/02/2016)           Time: Fri Jun 29 01:21:55 2018
GAUSSIAN             21 MOL ORBITALS    383 PRIMITIVES        5 NUCLEI
  Si   1    (CENTRE  1)   0.00000000 -0.00016252  0.63677534  CHARGE = 14.0
  H    2    (CENTRE  2)   0.00000000 -0.00027401  3.41358426  CHARGE =  1.0
  F    3    (CENTRE  3)   0.00000000  2.84595589 -0.46482160  CHARGE =  9.0
  F    4    (CENTRE  4)  -2.46526678 -1.42276913 -0.46438697  CHARGE =  9.0
  F    5    (CENTRE  5)   2.46526678 -1.42276913 -0.46438697  CHARGE =  9.0
CENTRE ASSIGNMENTS    1  1  1  1  1  1  1  1  1  1  1  1  1  1  1  1  1  1  1  1
CENTRE ASSIGNMENTS    1  1  1  1  1  1  1  1  1  1  1  1  1  1  1  1  1  1  1  1
CENTRE ASSIGNMENTS    1  1  1  1  1  1  1  1  1  1  1  1  1  1  1  1  1  1  1  1
CENTRE ASSIGNMENTS    1  1  1  1  1  1  1  1  1  1  1  1  1  1  1  1  1  1  1  1
CENTRE ASSIGNMENTS    1  1  1  1  1  1  1  1  1  1  1  1  1  1  1  1  1  1  1  1
CENTRE ASSIGNMENTS    1  1  1  1  1  1  1  1  1  1  1  1  1  1  1  1  1  1  1  1
CENTRE ASSIGNMENTS    1  1  1  1  1  1  1  1  1  1  1  2  2  2  2  2  2  2  2  2
CENTRE ASSIGNMENTS    2  2  2  2  2  2  2  2  2  2  2  2  2  2  2  2  2  2  3  3
CENTRE ASSIGNMENTS    3  3  3  3  3  3  3  3  3  3  3  3  3  3  3  3  3  3  3  3
CENTRE ASSIGNMENTS    3  3  3  3  3  3  3  3  3  3  3  3  3  3  3  3  3  3  3  3
CENTRE ASSIGNMENTS    3  3  3  3  3  3  3  3  3  3  3  3  3  3  3  3  3  3  3  3
CENTRE ASSIGNMENTS    3  3  3  3  3  3  3  3  3  3  3  3  3  4  4  4  4  4  4  4
CENTRE ASSIGNMENTS    4  4  4  4  4  4  4  4  4  4  4  4  4  4  4  4  4  4  4  4
CENTRE ASSIGNMENTS    4  4  4  4  4  4  4  4  4  4  4  4  4  4  4  4  4  4  4  4
CENTRE ASSIGNMENTS    4  4  4  4  4  4  4  4  4  4  4  4  4  4  4  4  4  4  4  4
CENTRE ASSIGNMENTS    4  4  4  4  4  4  4  4  5  5  5  5  5  5  5  5  5  5  5  5
CENTRE ASSIGNMENTS    5  5  5  5  5  5  5  5  5  5  5  5  5  5  5  5  5  5  5  5
CENTRE ASSIGNMENTS    5  5  5  5  5  5  5  5  5  5  5  5  5  5  5  5  5  5  5  5
CENTRE ASSIGNMENTS    5  5  5  5  5  5  5  5  5  5  5  5  5  5  5  5  5  5  5  5
CENTRE ASSIGNMENTS    5  5  5
TYPE ASSIGNMENTS      1  1  1  1  1  1  1  1  1  1  1  1  1  1  1  1  1  1  1  1
TYPE ASSIGNMENTS      1  1  1  1  1  1  1  1  1  1  1  1  1  1  1  1  1  1  1  1
TYPE ASSIGNMENTS      1  1  2  2  2  2  2  2  2  3  3  3  3  3  3  3  4  4  4  4
TYPE ASSIGNMENTS      4  4  4  2  2  2  2  2  2  2  3  3  3  3  3  3  3  4  4  4
TYPE ASSIGNMENTS      4  4  4  4  2  3  4  2  3  4  2  3  4  5  6  7  8  9 10  5
TYPE ASSIGNMENTS      6  7  8  9 10  5  6  7  8  9 10 11 12 13 17 14 15 18 19 16
TYPE ASSIGNMENTS     20 11 12 13 17 14 15 18 19 16 20  1  1  1  1  1  1  2  3  4
TYPE ASSIGNMENTS      2  3  4  2  3  4  5  6  7  8  9 10  5  6  7  8  9 10  1  1
TYPE ASSIGNMENTS      1  1  1  1  1  1  1  1  1  1  1  1  1  1  1  1  1  2  2  2
TYPE ASSIGNMENTS      3  3  3  4  4  4  2  3  4  2  3  4  2  3  4  5  6  7  8  9
TYPE ASSIGNMENTS     10  5  6  7  8  9 10  5  6  7  8  9 10 11 12 13 17 14 15 18
TYPE ASSIGNMENTS     19 16 20 11 12 13 17 14 15 18 19 16 20  1  1  1  1  1  1  1
TYPE ASSIGNMENTS      1  1  1  1  1  1  1  1  1  1  1  1  2  2  2  3  3  3  4  4
TYPE ASSIGNMENTS      4  2  3  4  2  3  4  2  3  4  5  6  7  8  9 10  5  6  7  8
TYPE ASSIGNMENTS      9 10  5  6  7  8  9 10 11 12 13 17 14 15 18 19 16 20 11 12
TYPE ASSIGNMENTS     13 17 14 15 18 19 16 20  1  1  1  1  1  1  1  1  1  1  1  1
TYPE ASSIGNMENTS      1  1  1  1  1  1  1  2  2  2  3  3  3  4  4  4  2  3  4  2
TYPE ASSIGNMENTS      3  4  2  3  4  5  6  7  8  9 10  5  6  7  8  9 10  5  6  7
TYPE ASSIGNMENTS      8  9 10 11 12 13 17 14 15 18 19 16 20 11 12 13 17 14 15 18
TYPE ASSIGNMENTS     19 16 20
EXPONENTS  0.2549000D+06 0.3819000D+05 0.8690000D+04 0.2462000D+04 0.8048000D+03
EXPONENTS  0.2913000D+03 0.1136000D+03 0.4675000D+02 0.1982000D+02 0.7708000D+01
EXPONENTS  0.3340000D+01 0.1402000D+01 0.2070000D+00 0.2549000D+06 0.3819000D+05
EXPONENTS  0.8690000D+04 0.2462000D+04 0.8048000D+03 0.2913000D+03 0.1136000D+03
EXPONENTS  0.4675000D+02 0.1982000D+02 0.7708000D+01 0.3340000D+01 0.1402000D+01
EXPONENTS  0.2070000D+00 0.2549000D+06 0.3819000D+05 0.8690000D+04 0.2462000D+04
EXPONENTS  0.8048000D+03 0.2913000D+03 0.1136000D+03 0.4675000D+02 0.1982000D+02
EXPONENTS  0.7708000D+01 0.3340000D+01 0.1402000D+01 0.2070000D+00 0.4387000D+00
EXPONENTS  0.7944000D-01 0.3300000D-01 0.4815000D+03 0.1139000D+03 0.3623000D+02
EXPONENTS  0.1334000D+02 0.5252000D+01 0.2120000D+01 0.2528000D+00 0.4815000D+03
EXPONENTS  0.1139000D+03 0.3623000D+02 0.1334000D+02 0.5252000D+01 0.2120000D+01
EXPONENTS  0.2528000D+00 0.4815000D+03 0.1139000D+03 0.3623000D+02 0.1334000D+02
EXPONENTS  0.5252000D+01 0.2120000D+01 0.2528000D+00 0.4815000D+03 0.1139000D+03
EXPONENTS  0.3623000D+02 0.1334000D+02 0.5252000D+01 0.2120000D+01 0.2528000D+00
EXPONENTS  0.4815000D+03 0.1139000D+03 0.3623000D+02 0.1334000D+02 0.5252000D+01
EXPONENTS  0.2120000D+01 0.2528000D+00 0.4815000D+03 0.1139000D+03 0.3623000D+02
EXPONENTS  0.1334000D+02 0.5252000D+01 0.2120000D+01 0.2528000D+00 0.8561000D+00
EXPONENTS  0.8561000D+00 0.8561000D+00 0.7889000D-01 0.7889000D-01 0.7889000D-01
EXPONENTS  0.2370000D-01 0.2370000D-01 0.2370000D-01 0.1590000D+00 0.1590000D+00
EXPONENTS  0.1590000D+00 0.1590000D+00 0.1590000D+00 0.1590000D+00 0.4810000D+00
EXPONENTS  0.4810000D+00 0.4810000D+00 0.4810000D+00 0.4810000D+00 0.4810000D+00
EXPONENTS  0.5560000D-01 0.5560000D-01 0.5560000D-01 0.5560000D-01 0.5560000D-01
EXPONENTS  0.5560000D-01 0.3360000D+00 0.3360000D+00 0.3360000D+00 0.3360000D+00
EXPONENTS  0.3360000D+00 0.3360000D+00 0.3360000D+00 0.3360000D+00 0.3360000D+00
EXPONENTS  0.3360000D+00 0.1250000D+00 0.1250000D+00 0.1250000D+00 0.1250000D+00
EXPONENTS  0.1250000D+00 0.1250000D+00 0.1250000D+00 0.1250000D+00 0.1250000D+00
EXPONENTS  0.1250000D+00 0.3387000D+02 0.5095000D+01 0.1159000D+01 0.3258000D+00
EXPONENTS  0.1027000D+00 0.2526000D-01 0.1407000D+01 0.1407000D+01 0.1407000D+01
EXPONENTS  0.3880000D+00 0.3880000D+00 0.3880000D+00 0.1020000D+00 0.1020000D+00
EXPONENTS  0.1020000D+00 0.1057000D+01 0.1057000D+01 0.1057000D+01 0.1057000D+01
EXPONENTS  0.1057000D+01 0.1057000D+01 0.2470000D+00 0.2470000D+00 0.2470000D+00
EXPONENTS  0.2470000D+00 0.2470000D+00 0.2470000D+00 0.1950000D+05 0.2923000D+04
EXPONENTS  0.6645000D+03 0.1875000D+03 0.6062000D+02 0.2142000D+02 0.7950000D+01
EXPONENTS  0.8815000D+00 0.1950000D+05 0.2923000D+04 0.6645000D+03 0.1875000D+03
EXPONENTS  0.6062000D+02 0.2142000D+02 0.7950000D+01 0.8815000D+00 0.2257000D+01
EXPONENTS  0.3041000D+00 0.9158000D-01 0.4388000D+02 0.9926000D+01 0.2930000D+01
EXPONENTS  0.4388000D+02 0.9926000D+01 0.2930000D+01 0.4388000D+02 0.9926000D+01
EXPONENTS  0.2930000D+01 0.9132000D+00 0.9132000D+00 0.9132000D+00 0.2672000D+00
EXPONENTS  0.2672000D+00 0.2672000D+00 0.7361000D-01 0.7361000D-01 0.7361000D-01
EXPONENTS  0.3107000D+01 0.3107000D+01 0.3107000D+01 0.3107000D+01 0.3107000D+01
EXPONENTS  0.3107000D+01 0.8550000D+00 0.8550000D+00 0.8550000D+00 0.8550000D+00
EXPONENTS  0.8550000D+00 0.8550000D+00 0.2920000D+00 0.2920000D+00 0.2920000D+00
EXPONENTS  0.2920000D+00 0.2920000D+00 0.2920000D+00 0.1917000D+01 0.1917000D+01
EXPONENTS  0.1917000D+01 0.1917000D+01 0.1917000D+01 0.1917000D+01 0.1917000D+01
EXPONENTS  0.1917000D+01 0.1917000D+01 0.1917000D+01 0.7240000D+00 0.7240000D+00
EXPONENTS  0.7240000D+00 0.7240000D+00 0.7240000D+00 0.7240000D+00 0.7240000D+00
EXPONENTS  0.7240000D+00 0.7240000D+00 0.7240000D+00 0.1950000D+05 0.2923000D+04
EXPONENTS  0.6645000D+03 0.1875000D+03 0.6062000D+02 0.2142000D+02 0.7950000D+01
EXPONENTS  0.8815000D+00 0.1950000D+05 0.2923000D+04 0.6645000D+03 0.1875000D+03
EXPONENTS  0.6062000D+02 0.2142000D+02 0.7950000D+01 0.8815000D+00 0.2257000D+01
EXPONENTS  0.3041000D+00 0.9158000D-01 0.4388000D+02 0.9926000D+01 0.2930000D+01
EXPONENTS  0.4388000D+02 0.9926000D+01 0.2930000D+01 0.4388000D+02 0.9926000D+01
EXPONENTS  0.2930000D+01 0.9132000D+00 0.9132000D+00 0.9132000D+00 0.2672000D+00
EXPONENTS  0.2672000D+00 0.2672000D+00 0.7361000D-01 0.7361000D-01 0.7361000D-01
EXPONENTS  0.3107000D+01 0.3107000D+01 0.3107000D+01 0.3107000D+01 0.3107000D+01
EXPONENTS  0.3107000D+01 0.8550000D+00 0.8550000D+00 0.8550000D+00 0.8550000D+00
EXPONENTS  0.8550000D+00 0.8550000D+00 0.2920000D+00 0.2920000D+00 0.2920000D+00
EXPONENTS  0.2920000D+00 0.2920000D+00 0.2920000D+00 0.1917000D+01 0.1917000D+01
EXPONENTS  0.1917000D+01 0.1917000D+01 0.1917000D+01 0.1917000D+01 0.1917000D+01
EXPONENTS  0.1917000D+01 0.1917000D+01 0.1917000D+01 0.7240000D+00 0.7240000D+00
EXPONENTS  0.7240000D+00 0.7240000D+00 0.7240000D+00 0.7240000D+00 0.7240000D+00
EXPONENTS  0.7240000D+00 0.7240000D+00 0.7240000D+00 0.1950000D+05 0.2923000D+04
EXPONENTS  0.6645000D+03 0.1875000D+03 0.6062000D+02 0.2142000D+02 0.7950000D+01
EXPONENTS  0.8815000D+00 0.1950000D+05 0.2923000D+04 0.6645000D+03 0.1875000D+03
EXPONENTS  0.6062000D+02 0.2142000D+02 0.7950000D+01 0.8815000D+00 0.2257000D+01
EXPONENTS  0.3041000D+00 0.9158000D-01 0.4388000D+02 0.9926000D+01 0.2930000D+01
EXPONENTS  0.4388000D+02 0.9926000D+01 0.2930000D+01 0.4388000D+02 0.9926000D+01
EXPONENTS  0.2930000D+01 0.9132000D+00 0.9132000D+00 0.9132000D+00 0.2672000D+00
EXPONENTS  0.2672000D+00 0.2672000D+00 0.7361000D-01 0.7361000D-01 0.7361000D-01
EXPONENTS  0.3107000D+01 0.3107000D+01 0.3107000D+01 0.3107000D+01 0.3107000D+01
EXPONENTS  0.3107000D+01 0.8550000D+00 0.8550000D+00 0.8550000D+00 0.8550000D+00
EXPONENTS  0.8550000D+00 0.8550000D+00 0.2920000D+00 0.2920000D+00 0.2920000D+00
EXPONENTS  0.2920000D+00 0.2920000D+00 0.2920000D+00 0.1917000D+01 0.1917000D+01
EXPONENTS  0.1917000D+01 0.1917000D+01 0.1917000D+01 0.1917000D+01 0.1917000D+01
EXPONENTS  0.1917000D+01 0.1917000D+01 0.1917000D+01 0.7240000D+00 0.7240000D+00
EXPONENTS  0.7240000D+00 0.7240000D+00 0.7240000D+00 0.7240000D+00 0.7240000D+00
EXPONENTS  0.7240000D+00 0.7240000D+00 0.7240000D+00
MO    1     MO 0.0        OCC NO =    2.0000000  ORB. ENERGY =  -65.545920
  0.50692650D+00  0.94823571D+00  0.16375605D+01  0.26450870D+01  0.39834466D+01
  0.54174686D+01  0.61672387D+01  0.49963091D+01  0.20281006D+01  0.18493488D+00
 -0.71070884D-02  0.23765592D-02  0.13336712D-03 -0.29220346D-02 -0.54692443D-02
 -0.94592684D-02 -0.15374331D-01 -0.23522601D-01 -0.33380196D-01 -0.41872684D-01
 -0.42692829D-01 -0.26231323D-01  0.57169022D-02  0.20940167D-01  0.95772951D-02
 -0.50836807D-04  0.15455089D-02  0.28906411D-02  0.50058072D-02  0.81276653D-02
  0.12475802D-01  0.17721320D-01  0.22482305D-01  0.23275260D-01  0.14992096D-01
 -0.36873840D-02 -0.15030912D-01 -0.13109571D-01  0.66813196D-02 -0.34078325D-02
 -0.22754013D-02  0.12913226D-03  0.74729286D-14  0.98571780D-14  0.10948903D-13
  0.93707180D-14  0.53543529D-14  0.17376043D-14  0.12234973D-17  0.36873784D-05
  0.48638422D-05  0.54025339D-05  0.46238075D-05  0.26420064D-05  0.85738869D-06
  0.60371212D-09 -0.50020216D-02 -0.65979242D-02 -0.73286730D-02 -0.62723111D-02
 -0.35839482D-02 -0.11630693D-02 -0.81895067D-06 -0.65439531D-14 -0.89487717D-14
 -0.97282162D-14 -0.89299938D-14 -0.48672092D-14 -0.20538688D-14  0.70835444D-15
 -0.33390960D-05 -0.45661709D-05 -0.49638877D-05 -0.45565893D-05 -0.24835262D-05
 -0.10480004D-05  0.36144262D-06  0.40504433D-02  0.55389291D-02  0.60213739D-02
  0.55273063D-02  0.30126064D-02  0.12712620D-02 -0.43844286D-03 -0.19839494D-15
 -0.70199931D-07  0.12330148D-03  0.42778644D-15 -0.10273806D-06 -0.67024068D-04
 -0.14112174D-17  0.18464409D-08  0.18930530D-05 -0.47867743D-05 -0.45429300D-05
  0.93297043D-05 -0.28139657D-15 -0.19589580D-15  0.13918760D-06  0.59675148D-05
  0.55078029D-05 -0.11475318D-04 -0.36654473D-15 -0.27923035D-15 -0.42496041D-06
  0.13001918D-06  0.14652050D-06 -0.27653967D-06 -0.88837325D-17 -0.15286446D-16
  0.40742728D-08  0.81290795D-17  0.15732972D-03  0.26666818D-03  0.18512927D-16
 -0.47194713D-03 -0.39998682D-03 -0.42900165D-16 -0.42024264D-07 -0.40001772D-03
  0.21193967D-15 -0.82297816D-18 -0.16151337D-04 -0.18728539D-04  0.79023327D-18
  0.48475364D-04  0.28110326D-04  0.16787012D-17 -0.21352139D-07  0.28075292D-04
  0.24320745D-16  0.76453145D-04  0.13788640D-03  0.20331341D-03 -0.11683493D-02
  0.70009302D-03 -0.38053379D-04 -0.36364141D-16  0.16959847D-06 -0.27963556D-03
  0.58234702D-16 -0.17982677D-06  0.11981206D-02 -0.14224085D-16  0.26456769D-07
 -0.36721878D-04  0.17923659D-03  0.17926063D-03 -0.35849722D-03 -0.13568403D-16
 -0.21131355D-16  0.43256015D-07  0.58854372D-04  0.58826817D-04 -0.11768119D-03
  0.32256554D-17 -0.10347608D-16  0.75858993D-07  0.38357062D-03  0.71499225D-03
  0.12120876D-02  0.18354579D-02  0.22952465D-02  0.19759935D-02  0.75964403D-03
 -0.32916619D-05 -0.25501993D-03 -0.47888226D-03 -0.81545390D-03 -0.12774037D-02
 -0.17118713D-02 -0.18413483D-02 -0.11055431D-02  0.72705167D-03 -0.16130514D-03
 -0.10432756D-02  0.28199443D-03  0.53948049D-16  0.52760014D-16  0.34860772D-16
 -0.19434374D-03 -0.19006393D-03 -0.12558327D-03  0.89335590D-04  0.87368255D-04
  0.57727900D-04 -0.45359985D-16  0.24383164D-04 -0.33105080D-04  0.82755111D-16
  0.10991489D-02 -0.36375497D-03 -0.18275128D-16 -0.29151824D-04  0.23562511D-04
 -0.75022878D-04  0.24394765D-03 -0.16892477D-03 -0.67637419D-16  0.99169268D-16
 -0.16356002D-03  0.55397636D-04 -0.13320502D-03  0.77807389D-04  0.26305842D-16
 -0.44336826D-16  0.11961353D-03  0.18015129D-03 -0.29862235D-03  0.11847106D-03
 -0.41023578D-16  0.32723934D-16  0.35493960D-03 -0.31771936D-16 -0.26863007D-03
 -0.15556046D-03  0.30194916D-16  0.46970347D-03 -0.24131379D-03  0.65120891D-16
  0.33618675D-03  0.70799516D-03  0.13088451D-15  0.55425641D-17  0.13325542D-03
  0.80139487D-04  0.49108970D-17 -0.24165405D-03  0.11840348D-03 -0.21538589D-16
 -0.15811221D-03 -0.35882194D-03 -0.35172853D-16  0.38347297D-03  0.71481023D-03
  0.12117791D-02  0.18349907D-02  0.22946623D-02  0.19754905D-02  0.75945065D-03
 -0.32908240D-05 -0.25495445D-03 -0.47875931D-03 -0.81524454D-03 -0.12770757D-02
 -0.17114317D-02 -0.18408756D-02 -0.11052593D-02  0.72686501D-03 -0.16127590D-03
 -0.10427299D-02  0.28190396D-03  0.16784724D-03  0.16415094D-03  0.10846146D-03
  0.97239736D-04  0.95098338D-04  0.62835493D-04  0.89531193D-04  0.87559551D-04
  0.57854297D-04 -0.20741684D-04 -0.12286679D-04 -0.33304963D-04 -0.95225246D-03
 -0.54912425D-03 -0.36317684D-03  0.25200068D-04  0.14572276D-04  0.23562887D-04
  0.16397454D-03  0.47806225D-05 -0.16875517D-03  0.27640865D-03  0.14188132D-03
  0.81303356D-04 -0.85946447D-04  0.82174738D-05  0.77728973D-04 -0.16340185D-03
 -0.10369175D-03 -0.59600705D-04 -0.17925343D-03  0.60618860D-04  0.11863457D-03
 -0.41444510D-03 -0.30708076D-03 -0.17723319D-03  0.73429059D-04 -0.14246767D-03
 -0.15531697D-03  0.71940731D-04  0.59587165D-03  0.47035774D-03 -0.29222791D-03
 -0.16846866D-03 -0.44068227D-05  0.82097421D-03 -0.34473195D-04  0.73940978D-04
  0.80047899D-04 -0.33900084D-04 -0.30102235D-03 -0.23942602D-03  0.13731967D-03
  0.79199415D-04 -0.71768245D-06 -0.41279345D-03  0.38347297D-03  0.71481023D-03
  0.12117791D-02  0.18349907D-02  0.22946623D-02  0.19754905D-02  0.75945065D-03
 -0.32908240D-05 -0.25495445D-03 -0.47875931D-03 -0.81524454D-03 -0.12770757D-02
 -0.17114317D-02 -0.18408756D-02 -0.11052593D-02  0.72686501D-03 -0.16127590D-03
 -0.10427299D-02  0.28190396D-03 -0.16784724D-03 -0.16415094D-03 -0.10846146D-03
  0.97239736D-04  0.95098338D-04  0.62835493D-04  0.89531193D-04  0.87559551D-04
  0.57854297D-04  0.20741684D-04 -0.12286679D-04 -0.33304963D-04  0.95225246D-03
 -0.54912425D-03 -0.36317684D-03 -0.25200068D-04  0.14572276D-04  0.23562887D-04
  0.16397454D-03  0.47806225D-05 -0.16875517D-03 -0.27640865D-03 -0.14188132D-03
  0.81303356D-04 -0.85946447D-04  0.82174738D-05  0.77728973D-04  0.16340185D-03
  0.10369175D-03 -0.59600705D-04 -0.17925343D-03  0.60618860D-04  0.11863457D-03
  0.41444510D-03  0.30708076D-03 -0.17723319D-03 -0.73429059D-04 -0.14246767D-03
 -0.15531697D-03 -0.71940731D-04  0.59587165D-03  0.47035774D-03  0.29222791D-03
 -0.16846866D-03 -0.44068227D-05 -0.82097421D-03  0.34473195D-04  0.73940978D-04
  0.80047899D-04  0.33900084D-04 -0.30102235D-03 -0.23942602D-03 -0.13731967D-03
  0.79199415D-04 -0.71768245D-06  0.41279345D-03
MO    2     MO 0.0        OCC NO =    2.0000000  ORB. ENERGY =  -24.283977
 -0.27914532D-14 -0.52215767D-14 -0.90174283D-14 -0.14565497D-13 -0.21935339D-13
 -0.29831958D-13 -0.33960660D-13 -0.27512791D-13 -0.11167986D-13 -0.10183667D-14
  0.39136058D-16 -0.13086816D-16 -0.73440244D-18  0.54194434D-14  0.10143706D-13
  0.17543929D-13  0.28514486D-13  0.43626930D-13  0.61909630D-13  0.77660489D-13
  0.79181596D-13  0.48650747D-13 -0.10603032D-13 -0.38837338D-13 -0.17762831D-13
  0.94286082D-16 -0.30269754D-14 -0.56615007D-14 -0.98041852D-14 -0.15918539D-13
 -0.24434635D-13 -0.34708309D-13 -0.44032995D-13 -0.45586047D-13 -0.29362953D-13
  0.72219711D-14  0.29438977D-13  0.25675910D-13 -0.13085781D-13 -0.48097186D-14
  0.99034441D-13  0.24881185D-14  0.45633373D-02  0.60192771D-02  0.66859382D-02
  0.57222208D-02  0.32696310D-02  0.10610665D-02  0.74712756D-06 -0.35872173D-11
 -0.47317245D-11 -0.52557836D-11 -0.44982099D-11 -0.25702410D-11 -0.83409924D-12
 -0.58731335D-15 -0.13193922D-13 -0.17403463D-13 -0.19330973D-13 -0.16544588D-13
 -0.94534445D-14 -0.30678488D-14 -0.21601609D-17 -0.41276473D-02 -0.56445046D-02
 -0.61361450D-02 -0.56326602D-02 -0.30700286D-02 -0.12954931D-02  0.44679985D-03
  0.32457491D-11  0.44385201D-11  0.48251184D-11  0.44292064D-11  0.24140973D-11
  0.10187027D-11 -0.35133821D-12  0.12159009D-13  0.16627289D-13  0.18075538D-13
  0.16592399D-13  0.90435310D-14  0.38161964D-14 -0.13161599D-14 -0.25846632D-03
  0.19854168D-12 -0.11458582D-14  0.21591732D-03 -0.17188247D-12 -0.13035505D-14
 -0.10697972D-05  0.82891294D-15  0.36279182D-15  0.79845200D-13 -0.82596306D-13
  0.27511065D-14 -0.22019692D-03 -0.12376342D-03  0.10132273D-12  0.19131686D-12
 -0.19169362D-12  0.37675979D-15 -0.49634538D-03 -0.34497008D-03  0.27053790D-12
  0.17119871D-14 -0.23248800D-14  0.61289292D-15 -0.83221549D-05 -0.44811011D-05
  0.45897685D-14  0.19251978D-04 -0.14199908D-13  0.17357872D-14  0.19138462D-04
 -0.16198554D-13 -0.14326914D-12 -0.76894396D-04  0.58798279D-13  0.13806178D-12
  0.36665003D-03  0.69791682D-06 -0.45557080D-15  0.57016938D-15  0.69437554D-06
 -0.10219076D-15 -0.71089495D-14 -0.27881260D-05  0.14689032D-14  0.53984414D-14
  0.19549735D-04  0.37884901D-15  0.68326978D-15  0.10074809D-14 -0.13338422D-13
 -0.35319566D-13 -0.26744214D-14 -0.67917804D-04  0.50362149D-13  0.27910143D-15
  0.12366960D-03 -0.94178169D-13  0.59555657D-14 -0.53771400D-06 -0.25835926D-14
  0.28459748D-14  0.37969802D-13 -0.35508474D-13 -0.24613274D-14 -0.93785405D-04
 -0.20912571D-03  0.15831084D-12  0.28398764D-14 -0.34627154D-14  0.62283899D-15
 -0.93369116D-05 -0.15629239D-04  0.14556417D-13 -0.37352661D-09 -0.69626978D-09
 -0.11803485D-08 -0.17873954D-08 -0.22351443D-08 -0.19242510D-08 -0.73975234D-09
  0.32054680D-11 -0.57032679D-12 -0.10709727D-11 -0.18236818D-11 -0.28567868D-11
 -0.38284303D-11 -0.41179930D-11 -0.24724376D-11  0.16259790D-11 -0.42345105D-10
 -0.15444872D-12  0.46957529D-12  0.94485501D-05  0.92404757D-05  0.61055730D-05
  0.31983198D-11  0.31278869D-11  0.20667271D-11 -0.12159112D-11 -0.11891345D-11
 -0.78571147D-12 -0.42436667D-04 -0.41614728D-12  0.14726714D-12  0.14781075D-03
 -0.26666662D-12  0.91842702D-13  0.70961930D-05 -0.41744370D-13  0.15133672D-13
  0.49315669D-12 -0.85295410D-12  0.35979740D-12  0.32635880D-03  0.73353846D-05
  0.10099486D-11 -0.12704987D-12  0.22961531D-12 -0.10256544D-12 -0.11865158D-03
 -0.71683457D-05 -0.26216181D-12 -0.20368398D-13  0.30701138D-13 -0.10332740D-13
 -0.85735711D-04  0.21232792D-04 -0.27671862D-13  0.28378098D-04  0.90206544D-13
  0.10333508D-12 -0.19734659D-03 -0.27076891D-12 -0.11559629D-12  0.11221230D-03
  0.14927800D-15 -0.19440895D-12  0.14904031D-03 -0.25150943D-04 -0.55284406D-13
 -0.47333877D-13  0.13262021D-03  0.13151433D-12  0.14461178D-13 -0.57167387D-04
  0.34338882D-13  0.12754045D-12 -0.54172947D-04 -0.41925956D+00 -0.78151799D+00
 -0.13248651D+01 -0.20062362D+01 -0.25088055D+01 -0.21598478D+01 -0.83032435D+00
  0.35979313D-02 -0.63869065D-03 -0.11993479D-02 -0.20422827D-02 -0.31992237D-02
 -0.42873362D-02 -0.46116081D-02 -0.27688034D-02  0.18208816D-02 -0.47528554D-01
 -0.15837396D-03  0.54989574D-03 -0.31073142D-02 -0.30388854D-02 -0.20079201D-02
 -0.17983254D-02 -0.17587230D-02 -0.11620626D-02 -0.13686385D-02 -0.13384986D-02
 -0.88440260D-03  0.39485685D-03  0.25246834D-03  0.16889481D-03  0.29887380D-03
  0.87050059D-04  0.10262934D-03  0.42722767D-04  0.20550519D-04  0.19890363D-04
 -0.65474631D-03  0.24659135D-03  0.40815495D-03 -0.12329309D-02 -0.97862332D-03
 -0.56950075D-03  0.18546303D-03 -0.68431039D-04 -0.11703199D-03  0.32091362D-03
  0.25292205D-03  0.15015261D-03  0.37544660D-04 -0.26817847D-04 -0.10726813D-04
  0.25529092D-04  0.32238718D-04  0.63723096D-05 -0.34708250D-04  0.11160523D-03
  0.11659102D-03  0.79623300D-04 -0.28353195D-03 -0.22679205D-03  0.24501450D-04
 -0.51283743D-04 -0.12298103D-03 -0.32066341D-04  0.31495187D-04 -0.53058037D-04
 -0.53041283D-04 -0.47828269D-04  0.15289978D-03  0.12220596D-03 -0.46657293D-04
  0.62743335D-05  0.36917893D-04  0.93756003D-04  0.41925956D+00  0.78151799D+00
  0.13248651D+01  0.20062363D+01  0.25088055D+01  0.21598478D+01  0.83032435D+00
 -0.35979313D-02  0.63869065D-03  0.11993479D-02  0.20422827D-02  0.31992237D-02
  0.42873362D-02  0.46116081D-02  0.27688034D-02 -0.18208816D-02  0.47528555D-01
  0.15837396D-03 -0.54989574D-03 -0.31073142D-02 -0.30388854D-02 -0.20079201D-02
  0.17983254D-02  0.17587230D-02  0.11620626D-02  0.13686385D-02  0.13384986D-02
  0.88440260D-03  0.39485685D-03 -0.25246834D-03 -0.16889481D-03  0.29887380D-03
 -0.87050059D-04 -0.10262935D-03  0.42722767D-04 -0.20550519D-04 -0.19890363D-04
  0.65474631D-03 -0.24659135D-03 -0.40815495D-03 -0.12329309D-02 -0.97862332D-03
  0.56950075D-03 -0.18546303D-03  0.68431039D-04  0.11703199D-03  0.32091362D-03
  0.25292205D-03 -0.15015261D-03 -0.37544660D-04  0.26817847D-04  0.10726813D-04
  0.25529092D-04  0.32238718D-04 -0.63723096D-05 -0.34708250D-04 -0.11160523D-03
 -0.11659102D-03  0.79623300D-04  0.28353195D-03  0.22679205D-03  0.24501449D-04
  0.51283743D-04  0.12298103D-03 -0.32066341D-04  0.31495187D-04  0.53058037D-04
  0.53041283D-04 -0.47828269D-04 -0.15289978D-03 -0.12220596D-03 -0.46657293D-04
 -0.62743334D-05 -0.36917893D-04  0.93756003D-04
MO    3     MO 0.0        OCC NO =    2.0000000  ORB. ENERGY =  -24.283975
  0.11753533D-03  0.21985673D-03  0.37968269D-03  0.61328651D-03  0.92359687D-03
  0.12560874D-02  0.14299281D-02  0.11584379D-02  0.47023282D-03  0.42878765D-04
 -0.16478405D-05  0.55102599D-06  0.30922330D-07 -0.22772998D-03 -0.42624781D-03
 -0.73721199D-03 -0.11982048D-02 -0.18332436D-02 -0.26014994D-02 -0.32633649D-02
 -0.33272832D-02 -0.20443490D-02  0.44554914D-03  0.16319806D-02  0.74641045D-03
 -0.39619876D-05  0.13354651D-03  0.24977860D-03  0.43254885D-03  0.70230676D-03
  0.10780267D-02  0.15312888D-02  0.19426827D-02  0.20112015D-02  0.12954582D-02
 -0.31862468D-03 -0.12988122D-02 -0.11327903D-02  0.57732889D-03 -0.19367734D-03
 -0.25331091D-03  0.46797919D-04 -0.24124092D-11 -0.31820921D-11 -0.35345226D-11
 -0.30250532D-11 -0.17284911D-11 -0.56093303D-12 -0.39496914D-15 -0.27902408D-02
 -0.36804714D-02 -0.40880996D-02 -0.34988371D-02 -0.19992074D-02 -0.64878638D-03
 -0.45682921D-06 -0.24442257D-02 -0.32240597D-02 -0.35811384D-02 -0.30649497D-02
 -0.17512876D-02 -0.56833101D-03 -0.40017827D-06  0.21798186D-11  0.29808739D-11
  0.32405102D-11  0.29746189D-11  0.16212881D-11  0.68415243D-12 -0.23595588D-12
  0.25237531D-02  0.34511999D-02  0.37518020D-02  0.34439580D-02  0.18770970D-02
  0.79209887D-03 -0.27318529D-03  0.21983923D-02  0.30062732D-02  0.32681217D-02
  0.29999649D-02  0.16351027D-02  0.68998192D-03 -0.23796640D-03  0.12222351D-12
  0.15818317D-03  0.11353885D-03 -0.10881442D-12 -0.13211683D-03 -0.98342709D-04
  0.10401598D-14  0.65452045D-06  0.18955197D-05  0.96443794D-04 -0.38413328D-04
 -0.58030466D-04  0.10832825D-12  0.60950038D-13  0.75727227D-04  0.22406817D-03
 -0.79917317D-04 -0.14415085D-03  0.24997705D-12  0.17489568D-12  0.21088423D-03
  0.31797454D-05 -0.19149648D-05 -0.12647806D-05  0.37749632D-14  0.16946752D-14
  0.27431879D-05 -0.91830777D-14  0.45087300D-04  0.26842188D-04 -0.96874745D-14
 -0.18233678D-03 -0.15252462D-03  0.37236708D-13  0.47074881D-04  0.71998054D-04
 -0.17836843D-12 -0.16490069D-16 -0.25795814D-05 -0.48322611D-05 -0.65511232D-15
  0.60313014D-05  0.12625028D-05  0.70458253D-15  0.17074428D-05  0.13234281D-04
 -0.87172292D-14 -0.16411202D-04 -0.29598278D-04 -0.43642644D-04  0.14518739D-03
  0.36366630D-03 -0.14250048D-04  0.30510032D-13  0.41580525D-04  0.16876092D-04
 -0.56877095D-13 -0.75687232D-04 -0.87330193D-04  0.18206184D-14  0.33738509D-06
 -0.49568152D-04 -0.11722238D-04 -0.69150897D-04  0.80873135D-04  0.44738711D-13
  0.97527596D-13  0.12791895D-03  0.34619679D-05 -0.22554140D-05 -0.12065539D-05
  0.41236794D-14  0.76287045D-14  0.95730934D-05 -0.25509005D-01 -0.47549890D-01
 -0.80608754D-01 -0.12206541D+00 -0.15264322D+00 -0.13141160D+00 -0.50519416D-01
  0.21890890D-03 -0.80602670D-05 -0.15135754D-04 -0.25773579D-04 -0.40374158D-04
 -0.54106122D-04 -0.58198430D-04 -0.34942261D-04  0.22979501D-04 -0.28868835D-02
  0.20028822D-03  0.29071106D-03 -0.17817032D-14 -0.17424669D-14 -0.11513215D-14
  0.31237990D-03  0.30550072D-03  0.20185724D-03 -0.10135700D-03 -0.99124930D-04
 -0.65496032D-04  0.18036099D-13 -0.63346656D-04  0.25822366D-04 -0.68150281D-13
 -0.94361915D-04 -0.20713006D-04 -0.36613494D-14 -0.24985074D-04  0.12959196D-04
  0.96827409D-04 -0.26568846D-03  0.16886105D-03 -0.14673647D-12 -0.41875879D-14
  0.18269243D-03 -0.37764288D-04  0.10612545D-03 -0.68361165D-04  0.52900811D-13
  0.38471793D-14 -0.75151552D-04  0.59331855D-05 -0.29642532D-06 -0.56367602D-05
  0.41646338D-13 -0.10413028D-13  0.39307419D-04 -0.12170648D-13  0.27874313D-04
  0.66605263D-04  0.94943222D-13 -0.10524592D-03 -0.24531118D-03 -0.58431277D-13
  0.21622983D-04  0.45495394D-04 -0.73372640D-13  0.11602638D-13 -0.24523842D-04
 -0.25008434D-04 -0.63429526D-13  0.37194374D-04  0.72609671D-04  0.28621613D-13
  0.36377151D-04  0.24156301D-05  0.26354563D-13  0.41882828D+00  0.78071405D+00
  0.13235023D+01  0.20041725D+01  0.25062247D+01  0.21576260D+01  0.82947021D+00
 -0.35942302D-02  0.66891269D-03  0.12560996D-02  0.21389209D-02  0.33506070D-02
  0.44902075D-02  0.48298236D-02  0.28998197D-02 -0.19070435D-02  0.47484729D-01
  0.36790697D-03 -0.29210521D-03  0.30282910D-02  0.29616025D-02  0.19568560D-02
  0.17410710D-02  0.17027294D-02  0.11250653D-02  0.13492133D-02  0.13195012D-02
  0.87185022D-03 -0.38668048D-03 -0.19694313D-03 -0.15318630D-03 -0.15652544D-03
 -0.18085356D-03 -0.12957880D-03 -0.19863692D-04 -0.15803845D-04 -0.81298578D-05
  0.36918963D-03 -0.10543421D-03 -0.26375542D-03  0.11659528D-02  0.88326303D-03
  0.50549864D-03 -0.72137714D-04  0.16373086D-04  0.55764628D-04 -0.27850027D-03
 -0.20695356D-03 -0.11500570D-03  0.93410700D-06 -0.65963189D-05  0.56622119D-05
 -0.77929944D-04 -0.56984495D-04 -0.45841532D-04 -0.34164803D-04 -0.56644361D-04
 -0.56940102D-04  0.86161691D-04  0.22990434D-03  0.14525971D-03  0.16332718D-04
 -0.59971258D-04  0.25560593D-04  0.36460072D-03  0.24146051D-04  0.32274471D-04
  0.31216359D-04 -0.59638387D-04 -0.12462110D-03 -0.84912806D-04 -0.12799767D-04
  0.27797692D-04 -0.87362725D-05 -0.18882098D-03  0.41882828D+00  0.78071405D+00
  0.13235023D+01  0.20041725D+01  0.25062247D+01  0.21576260D+01  0.82947021D+00
 -0.35942302D-02  0.66891269D-03  0.12560996D-02  0.21389209D-02  0.33506070D-02
  0.44902075D-02  0.48298236D-02  0.28998197D-02 -0.19070435D-02  0.47484729D-01
  0.36790697D-03 -0.29210521D-03 -0.30282910D-02 -0.29616025D-02 -0.19568560D-02
  0.17410710D-02  0.17027294D-02  0.11250653D-02  0.13492133D-02  0.13195012D-02
  0.87185022D-03  0.38668048D-03 -0.19694313D-03 -0.15318630D-03  0.15652544D-03
 -0.18085356D-03 -0.12957880D-03  0.19863692D-04 -0.15803845D-04 -0.81298578D-05
  0.36918963D-03 -0.10543421D-03 -0.26375542D-03 -0.11659528D-02 -0.88326303D-03
  0.50549864D-03 -0.72137713D-04  0.16373086D-04  0.55764628D-04  0.27850027D-03
  0.20695356D-03 -0.11500570D-03  0.93410704D-06 -0.65963189D-05  0.56622119D-05
  0.77929944D-04  0.56984495D-04 -0.45841532D-04  0.34164803D-04 -0.56644361D-04
 -0.56940102D-04 -0.86161691D-04  0.22990434D-03  0.14525971D-03 -0.16332718D-04
 -0.59971258D-04  0.25560593D-04 -0.36460072D-03 -0.24146051D-04  0.32274470D-04
  0.31216359D-04  0.59638387D-04 -0.12462110D-03 -0.84912806D-04  0.12799767D-04
  0.27797692D-04 -0.87362724D-05  0.18882098D-03
MO    4     MO 0.0        OCC NO =    2.0000000  ORB. ENERGY =  -24.283956
  0.90962911D-04  0.17015145D-03  0.29384392D-03  0.47463452D-03  0.71478982D-03
  0.97211078D-03  0.11066496D-02  0.89653791D-03  0.36392245D-03  0.33184722D-04
 -0.12752962D-05  0.42644988D-06  0.23931400D-07 -0.17624854D-03 -0.32988874D-03
 -0.57055526D-03 -0.92733445D-03 -0.14188141D-02 -0.20133953D-02 -0.25256372D-02
 -0.25751059D-02 -0.15821963D-02  0.34482674D-03  0.12630493D-02  0.57767429D-03
 -0.30663268D-05  0.10335766D-03  0.19331491D-03  0.33476905D-03  0.54354686D-03
  0.83433343D-03  0.11851334D-02  0.15035297D-02  0.15565595D-02  0.10026135D-02
 -0.24659800D-03 -0.10052093D-02 -0.87671744D-03  0.44682085D-03 -0.14975066D-03
 -0.19643976D-03  0.36203847D-04  0.27757585D-11  0.36613685D-11  0.40668810D-11
  0.34806769D-11  0.19888308D-11  0.64541896D-12  0.45445812D-15  0.36091957D-02
  0.47607151D-02  0.52879850D-02  0.45257698D-02  0.25859885D-02  0.83920964D-03
  0.59091173D-06 -0.18919527D-02 -0.24955831D-02 -0.27719798D-02 -0.23724240D-02
 -0.13555840D-02 -0.43991656D-03 -0.30975795D-06 -0.25109791D-11 -0.34337317D-11
 -0.37328122D-11 -0.34265264D-11 -0.18675960D-11 -0.78808965D-12  0.27180256D-12