 Molden2AIM, Version 4.0.0 (06/02/2016)           Time: Fri Jun 29 04:28:13 2018
GAUSSIAN             15 MOL ORBITALS    281 PRIMITIVES        3 NUCLEI
  Si   1    (CENTRE  1)   0.00000000  0.00000000  0.00000000  CHARGE = 14.0
  O    2    (CENTRE  2)   0.00000000  0.00000000  2.90699026  CHARGE =  8.0
  O    3    (CENTRE  3)   0.00000000  0.00000000 -2.90699026  CHARGE =  8.0
CENTRE ASSIGNMENTS    1  1  1  1  1  1  1  1  1  1  1  1  1  1  1  1  1  1  1  1
CENTRE ASSIGNMENTS    1  1  1  1  1  1  1  1  1  1  1  1  1  1  1  1  1  1  1  1
CENTRE ASSIGNMENTS    1  1  1  1  1  1  1  1  1  1  1  1  1  1  1  1  1  1  1  1
CENTRE ASSIGNMENTS    1  1  1  1  1  1  1  1  1  1  1  1  1  1  1  1  1  1  1  1
CENTRE ASSIGNMENTS    1  1  1  1  1  1  1  1  1  1  1  1  1  1  1  1  1  1  1  1
CENTRE ASSIGNMENTS    1  1  1  1  1  1  1  1  1  1  1  1  1  1  1  1  1  1  1  1
CENTRE ASSIGNMENTS    1  1  1  1  1  1  1  1  1  1  1  2  2  2  2  2  2  2  2  2
CENTRE ASSIGNMENTS    2  2  2  2  2  2  2  2  2  2  2  2  2  2  2  2  2  2  2  2
CENTRE ASSIGNMENTS    2  2  2  2  2  2  2  2  2  2  2  2  2  2  2  2  2  2  2  2
CENTRE ASSIGNMENTS    2  2  2  2  2  2  2  2  2  2  2  2  2  2  2  2  2  2  2  2
CENTRE ASSIGNMENTS    2  2  2  2  2  2  3  3  3  3  3  3  3  3  3  3  3  3  3  3
CENTRE ASSIGNMENTS    3  3  3  3  3  3  3  3  3  3  3  3  3  3  3  3  3  3  3  3
CENTRE ASSIGNMENTS    3  3  3  3  3  3  3  3  3  3  3  3  3  3  3  3  3  3  3  3
CENTRE ASSIGNMENTS    3  3  3  3  3  3  3  3  3  3  3  3  3  3  3  3  3  3  3  3
CENTRE ASSIGNMENTS    3
TYPE ASSIGNMENTS      1  1  1  1  1  1  1  1  1  1  1  1  1  1  1  1  1  1  1  1
TYPE ASSIGNMENTS      1  1  1  1  1  1  1  1  1  1  1  1  1  1  1  1  1  1  1  1
TYPE ASSIGNMENTS      1  1  2  2  2  2  2  2  2  3  3  3  3  3  3  3  4  4  4  4
TYPE ASSIGNMENTS      4  4  4  2  2  2  2  2  2  2  3  3  3  3  3  3  3  4  4  4
TYPE ASSIGNMENTS      4  4  4  4  2  3  4  2  3  4  2  3  4  5  6  7  8  9 10  5
TYPE ASSIGNMENTS      6  7  8  9 10  5  6  7  8  9 10 11 12 13 17 14 15 18 19 16
TYPE ASSIGNMENTS     20 11 12 13 17 14 15 18 19 16 20  1  1  1  1  1  1  1  1  1
TYPE ASSIGNMENTS      1  1  1  1  1  1  1  1  1  1  2  2  2  3  3  3  4  4  4  2
TYPE ASSIGNMENTS      3  4  2  3  4  2  3  4  5  6  7  8  9 10  5  6  7  8  9 10
TYPE ASSIGNMENTS      5  6  7  8  9 10 11 12 13 17 14 15 18 19 16 20 11 12 13 17
TYPE ASSIGNMENTS     14 15 18 19 16 20  1  1  1  1  1  1  1  1  1  1  1  1  1  1
TYPE ASSIGNMENTS      1  1  1  1  1  2  2  2  3  3  3  4  4  4  2  3  4  2  3  4
TYPE ASSIGNMENTS      2  3  4  5  6  7  8  9 10  5  6  7  8  9 10  5  6  7  8  9
TYPE ASSIGNMENTS     10 11 12 13 17 14 15 18 19 16 20 11 12 13 17 14 15 18 19 16
TYPE ASSIGNMENTS     20
EXPONENTS  0.2549000D+06 0.3819000D+05 0.8690000D+04 0.2462000D+04 0.8048000D+03
EXPONENTS  0.2913000D+03 0.1136000D+03 0.4675000D+02 0.1982000D+02 0.7708000D+01
EXPONENTS  0.3340000D+01 0.1402000D+01 0.2070000D+00 0.2549000D+06 0.3819000D+05
EXPONENTS  0.8690000D+04 0.2462000D+04 0.8048000D+03 0.2913000D+03 0.1136000D+03
EXPONENTS  0.4675000D+02 0.1982000D+02 0.7708000D+01 0.3340000D+01 0.1402000D+01
EXPONENTS  0.2070000D+00 0.2549000D+06 0.3819000D+05 0.8690000D+04 0.2462000D+04
EXPONENTS  0.8048000D+03 0.2913000D+03 0.1136000D+03 0.4675000D+02 0.1982000D+02
EXPONENTS  0.7708000D+01 0.3340000D+01 0.1402000D+01 0.2070000D+00 0.4387000D+00
EXPONENTS  0.7944000D-01 0.3300000D-01 0.4815000D+03 0.1139000D+03 0.3623000D+02
EXPONENTS  0.1334000D+02 0.5252000D+01 0.2120000D+01 0.2528000D+00 0.4815000D+03
EXPONENTS  0.1139000D+03 0.3623000D+02 0.1334000D+02 0.5252000D+01 0.2120000D+01
EXPONENTS  0.2528000D+00 0.4815000D+03 0.1139000D+03 0.3623000D+02 0.1334000D+02
EXPONENTS  0.5252000D+01 0.2120000D+01 0.2528000D+00 0.4815000D+03 0.1139000D+03
EXPONENTS  0.3623000D+02 0.1334000D+02 0.5252000D+01 0.2120000D+01 0.2528000D+00
EXPONENTS  0.4815000D+03 0.1139000D+03 0.3623000D+02 0.1334000D+02 0.5252000D+01
EXPONENTS  0.2120000D+01 0.2528000D+00 0.4815000D+03 0.1139000D+03 0.3623000D+02
EXPONENTS  0.1334000D+02 0.5252000D+01 0.2120000D+01 0.2528000D+00 0.8561000D+00
EXPONENTS  0.8561000D+00 0.8561000D+00 0.7889000D-01 0.7889000D-01 0.7889000D-01
EXPONENTS  0.2370000D-01 0.2370000D-01 0.2370000D-01 0.1590000D+00 0.1590000D+00
EXPONENTS  0.1590000D+00 0.1590000D+00 0.1590000D+00 0.1590000D+00 0.4810000D+00
EXPONENTS  0.4810000D+00 0.4810000D+00 0.4810000D+00 0.4810000D+00 0.4810000D+00
EXPONENTS  0.5560000D-01 0.5560000D-01 0.5560000D-01 0.5560000D-01 0.5560000D-01
EXPONENTS  0.5560000D-01 0.3360000D+00 0.3360000D+00 0.3360000D+00 0.3360000D+00
EXPONENTS  0.3360000D+00 0.3360000D+00 0.3360000D+00 0.3360000D+00 0.3360000D+00
EXPONENTS  0.3360000D+00 0.1250000D+00 0.1250000D+00 0.1250000D+00 0.1250000D+00
EXPONENTS  0.1250000D+00 0.1250000D+00 0.1250000D+00 0.1250000D+00 0.1250000D+00
EXPONENTS  0.1250000D+00 0.1533000D+05 0.2299000D+04 0.5224000D+03 0.1473000D+03
EXPONENTS  0.4755000D+02 0.1676000D+02 0.6207000D+01 0.6882000D+00 0.1533000D+05
EXPONENTS  0.2299000D+04 0.5224000D+03 0.1473000D+03 0.4755000D+02 0.1676000D+02
EXPONENTS  0.6207000D+01 0.6882000D+00 0.1752000D+01 0.2384000D+00 0.7376000D-01
EXPONENTS  0.3446000D+02 0.7749000D+01 0.2280000D+01 0.3446000D+02 0.7749000D+01
EXPONENTS  0.2280000D+01 0.3446000D+02 0.7749000D+01 0.2280000D+01 0.7156000D+00
EXPONENTS  0.7156000D+00 0.7156000D+00 0.2140000D+00 0.2140000D+00 0.2140000D+00
EXPONENTS  0.5974000D-01 0.5974000D-01 0.5974000D-01 0.2314000D+01 0.2314000D+01
EXPONENTS  0.2314000D+01 0.2314000D+01 0.2314000D+01 0.2314000D+01 0.6450000D+00
EXPONENTS  0.6450000D+00 0.6450000D+00 0.6450000D+00 0.6450000D+00 0.6450000D+00
EXPONENTS  0.2140000D+00 0.2140000D+00 0.2140000D+00 0.2140000D+00 0.2140000D+00
EXPONENTS  0.2140000D+00 0.1428000D+01 0.1428000D+01 0.1428000D+01 0.1428000D+01
EXPONENTS  0.1428000D+01 0.1428000D+01 0.1428000D+01 0.1428000D+01 0.1428000D+01
EXPONENTS  0.1428000D+01 0.5000000D+00 0.5000000D+00 0.5000000D+00 0.5000000D+00
EXPONENTS  0.5000000D+00 0.5000000D+00 0.5000000D+00 0.5000000D+00 0.5000000D+00
EXPONENTS  0.5000000D+00 0.1533000D+05 0.2299000D+04 0.5224000D+03 0.1473000D+03
EXPONENTS  0.4755000D+02 0.1676000D+02 0.6207000D+01 0.6882000D+00 0.1533000D+05
EXPONENTS  0.2299000D+04 0.5224000D+03 0.1473000D+03 0.4755000D+02 0.1676000D+02
EXPONENTS  0.6207000D+01 0.6882000D+00 0.1752000D+01 0.2384000D+00 0.7376000D-01
EXPONENTS  0.3446000D+02 0.7749000D+01 0.2280000D+01 0.3446000D+02 0.7749000D+01
EXPONENTS  0.2280000D+01 0.3446000D+02 0.7749000D+01 0.2280000D+01 0.7156000D+00
EXPONENTS  0.7156000D+00 0.7156000D+00 0.2140000D+00 0.2140000D+00 0.2140000D+00
EXPONENTS  0.5974000D-01 0.5974000D-01 0.5974000D-01 0.2314000D+01 0.2314000D+01
EXPONENTS  0.2314000D+01 0.2314000D+01 0.2314000D+01 0.2314000D+01 0.6450000D+00
EXPONENTS  0.6450000D+00 0.6450000D+00 0.6450000D+00 0.6450000D+00 0.6450000D+00
EXPONENTS  0.2140000D+00 0.2140000D+00 0.2140000D+00 0.2140000D+00 0.2140000D+00
EXPONENTS  0.2140000D+00 0.1428000D+01 0.1428000D+01 0.1428000D+01 0.1428000D+01
EXPONENTS  0.1428000D+01 0.1428000D+01 0.1428000D+01 0.1428000D+01 0.1428000D+01
EXPONENTS  0.1428000D+01 0.5000000D+00 0.5000000D+00 0.5000000D+00 0.5000000D+00
EXPONENTS  0.5000000D+00 0.5000000D+00 0.5000000D+00 0.5000000D+00 0.5000000D+00
EXPONENTS  0.5000000D+00
MO    1     MO 0.0        OCC NO =    2.0000000  ORB. ENERGY =  -65.511325
  0.50634792D+00  0.94715346D+00  0.16356915D+01  0.26420681D+01  0.39789002D+01
  0.54112855D+01  0.61601999D+01  0.49906067D+01  0.20257858D+01  0.18472380D+00
 -0.70989769D-02  0.23738467D-02  0.13321490D-03 -0.18114832D-02 -0.33905978D-02
 -0.58641694D-02 -0.95311473D-02 -0.14582578D-01 -0.20693685D-01 -0.25958510D-01
 -0.26466950D-01 -0.16261820D-01  0.35441306D-02  0.12981626D-01  0.59373387D-02
 -0.31515719D-04  0.91500107D-03  0.17113714D-02  0.29636316D-02  0.48118924D-02
  0.73861575D-02  0.10491707D-01  0.13310395D-01  0.13779855D-01  0.88759010D-02
 -0.21830740D-02 -0.88988817D-02 -0.77613732D-02  0.39555998D-02 -0.21837122D-02
  0.31469618D-03 -0.63374641D-04 -0.17210237D-16 -0.22701189D-16 -0.25215445D-16
 -0.21580867D-16 -0.12331134D-16 -0.40017217D-17 -0.28177278D-20  0.87550450D-17
  0.11548356D-16  0.12827386D-16  0.10978435D-16  0.62729893D-17  0.20357218D-17
  0.14334105D-20 -0.35328946D-12 -0.46600700D-12 -0.51761931D-12 -0.44300917D-12
 -0.25313188D-12 -0.82146813D-13 -0.57841942D-16  0.97361203D-17  0.13314019D-16
  0.14473680D-16  0.13286081D-16  0.72414539D-17  0.30557545D-17 -0.10538927D-17
 -0.98772127D-17 -0.13506961D-16 -0.14683427D-16 -0.13478619D-16 -0.73463945D-17
 -0.31000374D-17  0.10691653D-17  0.20070628D-12  0.27446325D-12  0.29836920D-12
  0.27388732D-12  0.14927971D-12  0.62993172D-13 -0.21725581D-13  0.13389479D-17
 -0.62185090D-18  0.19536337D-13 -0.15156690D-18  0.16624577D-18  0.38497792D-14
 -0.16332358D-20  0.14543845D-20 -0.13906744D-16 -0.10871436D-03 -0.10871436D-03
  0.21742872D-03  0.13212862D-20  0.17757096D-21 -0.63402390D-23 -0.45157093D-03
 -0.45157093D-03  0.90314185D-03 -0.12966676D-19  0.73497103D-21  0.35744477D-20
  0.12298220D-04  0.12298220D-04 -0.24596441D-04 -0.79638699D-22 -0.13078242D-21
  0.14106003D-21  0.14650674D-18 -0.15972925D-18 -0.14893745D-14  0.14654165D-18
 -0.15980071D-18  0.22340598D-14 -0.58606187D-18  0.63898848D-18  0.22340637D-14
  0.64270914D-23  0.10092810D-19 -0.10143596D-19  0.22175463D-15  0.10087836D-19
 -0.10137034D-19 -0.33263194D-15 -0.40366265D-19  0.40567821D-19 -0.33263196D-15
 -0.20124613D-22  0.52628022D-03  0.98091862D-03  0.16633130D-02  0.25175017D-02
  0.31411070D-02  0.26977920D-02  0.10357348D-02 -0.46329054D-05 -0.34937775D-03
 -0.65526663D-03 -0.11170859D-02 -0.17457879D-02 -0.23344511D-02 -0.24926495D-02
 -0.15239570D-02  0.10054143D-02 -0.19777954D-03 -0.17864303D-02 -0.11326730D-03
 -0.11898962D-19 -0.11537991D-19 -0.77834604D-20  0.31503181D-19  0.30547488D-19
  0.20607155D-19 -0.32437116D-03 -0.31453091D-03 -0.21218069D-03 -0.62146715D-19
  0.59431291D-19  0.12781431D-03  0.63610142D-18 -0.67348718D-18  0.11170766D-02
  0.33567193D-19 -0.36148900D-19  0.64649574D-04 -0.27248068D-03 -0.27248068D-03
  0.54496136D-03  0.51904107D-20  0.14205871D-17 -0.16331906D-17  0.18901998D-03
  0.18901998D-03 -0.37803996D-03  0.24533270D-21 -0.70895281D-18  0.78150591D-18
  0.10398555D-03  0.10398555D-03 -0.20797110D-03 -0.85368909D-22 -0.31253682D-18
  0.33910919D-18  0.25552476D-18 -0.31235796D-18 -0.93378292D-04  0.25387952D-18
 -0.30750679D-18  0.14006744D-03 -0.10204538D-17  0.12445807D-17  0.14006744D-03
  0.76741378D-21 -0.13711076D-18  0.15926332D-18  0.12052272D-03 -0.13668913D-18
  0.15896849D-18 -0.18078408D-03  0.54802141D-18 -0.63675844D-18 -0.18078408D-03
 -0.15802126D-20  0.52628022D-03  0.98091862D-03  0.16633130D-02  0.25175017D-02
  0.31411070D-02  0.26977920D-02  0.10357348D-02 -0.46329054D-05 -0.34937775D-03
 -0.65526663D-03 -0.11170859D-02 -0.17457879D-02 -0.23344511D-02 -0.24926495D-02
 -0.15239570D-02  0.10054143D-02 -0.19777954D-03 -0.17864303D-02 -0.11326730D-03
 -0.96223521D-20 -0.93304448D-20 -0.62942629D-20  0.27770163D-19  0.26927717D-19
  0.18165279D-19  0.32437116D-03  0.31453091D-03  0.21218069D-03 -0.63281069D-19
  0.58356234D-19 -0.12781431D-03  0.63684263D-18 -0.67230816D-18 -0.11170766D-02
  0.33015967D-19 -0.35659053D-19 -0.64649574D-04 -0.27248068D-03 -0.27248068D-03
  0.54496136D-03  0.11192997D-19 -0.14292263D-17  0.16158213D-17  0.18901998D-03
  0.18901998D-03 -0.37803996D-03  0.19642718D-21  0.71000211D-18 -0.77790806D-18
  0.10398555D-03  0.10398555D-03 -0.20797110D-03 -0.21117957D-21  0.31271933D-18
 -0.33857578D-18  0.25446799D-18 -0.31007502D-18  0.93378292D-04  0.25673485D-18
 -0.30159906D-18 -0.14006744D-03 -0.10201388D-17  0.12318241D-17 -0.14006744D-03
 -0.66777656D-20 -0.13705313D-18  0.15845237D-18 -0.12052272D-03 -0.13730415D-18
  0.15802943D-18  0.18078408D-03  0.54846354D-18 -0.63338654D-18  0.18078408D-03
  0.18016044D-20
MO    2     MO 0.0        OCC NO =    2.0000000  ORB. ENERGY =  -18.791998
  0.37294829D-03  0.69762163D-03  0.12047612D-02  0.19460034D-02  0.29306411D-02
  0.39856580D-02  0.45372675D-02  0.36758089D-02  0.14920835D-02  0.13605749D-03
 -0.52287195D-05  0.17484462D-05  0.98118835D-07 -0.78081721D-03 -0.14614748D-02
 -0.25276769D-02 -0.41082819D-02 -0.62856378D-02 -0.89197545D-02 -0.11189091D-01
 -0.11408248D-01 -0.70094543D-02  0.15276532D-02  0.55955677D-02  0.25592157D-02
 -0.13584457D-04  0.49016085D-03  0.91677190D-03  0.15876005D-02  0.25777033D-02
  0.39567224D-02  0.56203477D-02  0.71303025D-02  0.73817896D-02  0.47547695D-02
 -0.11694603D-02 -0.47670801D-02 -0.41577233D-02  0.21189922D-02  0.30613831D-03
  0.90682656D-03  0.46658179D-04  0.18747616D-15  0.24729072D-15  0.27467924D-15
  0.23508671D-15  0.13432666D-15  0.43591929D-16  0.30694335D-19  0.16064058D-16
  0.21189320D-16  0.23536130D-16  0.20143609D-16  0.11509897D-16  0.37352123D-17
  0.26300708D-20 -0.18947513D-05 -0.24992746D-05 -0.27760801D-05 -0.23759333D-05
 -0.13575892D-05 -0.44056729D-06 -0.31021615D-09 -0.19592873D-17 -0.26793002D-17
 -0.29126692D-17 -0.26736781D-17 -0.14572631D-17 -0.61493704D-18  0.21208433D-18
 -0.38508478D-17 -0.52659849D-17 -0.57246560D-17 -0.52549348D-17 -0.28641529D-17
 -0.12086175D-17  0.41683752D-18  0.17243560D-05  0.23580347D-05  0.25634212D-05
  0.23530866D-05  0.12825278D-05  0.54120209D-06 -0.18665404D-06  0.73525670D-19
 -0.25831015D-18 -0.63219170D-08  0.86333251D-19 -0.23959951D-19  0.29749123D-07
  0.82262052D-21  0.10629319D-21 -0.26489934D-09 -0.73384817D-04 -0.73384817D-04
  0.14676963D-03 -0.36110871D-20  0.11459886D-18  0.10508377D-18 -0.65568491D-03
 -0.65568491D-03  0.13113698D-02  0.42543387D-20  0.84592825D-19  0.97245370D-19
  0.12497604D-05  0.12497604D-05 -0.24995209D-05 -0.32029473D-21 -0.55622495D-20
  0.22655382D-21  0.31865464D-21 -0.11847145D-18 -0.11899645D-07  0.54045447D-21
 -0.11823232D-18  0.17849467D-07 -0.14964184D-20  0.47364668D-18  0.17849467D-07
 -0.25867731D-19 -0.76071951D-20  0.54389865D-20  0.18431343D-08 -0.76465791D-20
  0.54936725D-20 -0.27647015D-08  0.30468164D-19 -0.21810632D-19 -0.27647015D-08
  0.70553459D-20  0.35074498D+00  0.65374351D+00  0.11085324D+01  0.16778154D+01
  0.20934237D+01  0.17979718D+01  0.69027634D+00 -0.30876484D-02  0.31604941D-03
  0.59275850D-03  0.10105233D-02  0.15792512D-02  0.21117598D-02  0.22548671D-02
  0.13785815D-02 -0.90950437D-03  0.39996265D-01 -0.89504791D-03 -0.50376038D-03
 -0.12678066D-16 -0.12293460D-16 -0.82930953D-17  0.58838431D-17  0.57053486D-17
  0.38487944D-17 -0.48087465D-02 -0.46628666D-02 -0.31455422D-02  0.14305845D-17
 -0.10353746D-17  0.81387245D-03 -0.47316330D-18 -0.15185627D-18  0.94404380D-03
 -0.90238090D-20  0.15601155D-21  0.56285082D-04 -0.96548038D-03 -0.96548038D-03
  0.19309608D-02 -0.18396812D-17 -0.27672526D-18 -0.57140319D-17  0.40913234D-03
  0.40913234D-03 -0.81826467D-03  0.12631058D-18 -0.12702144D-18  0.86710828D-18
  0.77468792D-04  0.77468792D-04 -0.15493758D-03 -0.16584512D-19  0.15680298D-18
  0.16114797D-18 -0.25717998D-18 -0.12866392D-18 -0.20899443D-04 -0.31676712D-19
 -0.11099876D-18  0.31349164D-04  0.80321665D-18  0.49699051D-18  0.31349164D-04
  0.42446226D-19  0.29463316D-19  0.98893646D-19  0.19875283D-03  0.21800912D-19
  0.94299684D-19 -0.29812924D-03 -0.11019086D-18 -0.39098062D-18 -0.29812924D-03
 -0.13744791D-19  0.35078925D+00  0.65382602D+00  0.11086723D+01  0.16780272D+01
  0.20936880D+01  0.17981987D+01  0.69036346D+00 -0.30880381D-02  0.31610546D-03
  0.59286363D-03  0.10107025D-02  0.15795313D-02  0.21121343D-02  0.22552670D-02
  0.13788260D-02 -0.90966567D-03  0.40001313D-01 -0.89509119D-03 -0.50373407D-03
 -0.41266556D-17 -0.40014678D-17 -0.26993665D-17  0.16039753D-16  0.15553165D-16
  0.10492073D-16  0.48093150D-02  0.46634178D-02  0.31459141D-02  0.17827552D-18
 -0.21863191D-17 -0.81397598D-03 -0.79111499D-19  0.21948165D-18 -0.94419235D-03
 -0.28553321D-19  0.27861143D-20 -0.56283773D-04 -0.96557421D-03 -0.96557421D-03
  0.19311484D-02  0.13716399D-16  0.92029791D-18  0.15499224D-17  0.40916884D-03
  0.40916884D-03 -0.81833767D-03 -0.57936664D-18  0.35557048D-19 -0.71922451D-18
  0.77485116D-04  0.77485116D-04 -0.15497023D-03  0.49024052D-19  0.57787818D-20
 -0.18149353D-19  0.22501456D-18 -0.12417033D-18  0.20936864D-04  0.76905974D-19
  0.79316577D-19 -0.31405296D-04 -0.75194965D-18  0.29319441D-18 -0.31405296D-04
 -0.30269876D-18 -0.32450789D-19  0.63117269D-19 -0.19877597D-03 -0.23511892D-19
  0.57356025D-19  0.29816395D-03  0.12086426D-18 -0.24670783D-18  0.29816395D-03
  0.10937801D-19
MO    3     MO 0.0        OCC NO =    2.0000000  ORB. ENERGY =  -18.791994
  0.23546285D-07  0.44044705D-07  0.76063226D-07  0.12286194D-06  0.18502755D-06
  0.25163659D-06  0.28646275D-06  0.23207411D-06  0.94203467D-07  0.85900604D-08
 -0.33011793D-09  0.11038906D-09  0.61947838D-11 -0.49297302D-07 -0.92270976D-07
 -0.15958620D-06 -0.25937852D-06 -0.39684702D-06 -0.56315335D-06 -0.70642911D-06
 -0.72026568D-06 -0.44254556D-06  0.96449183D-07  0.35327909D-06  0.16157742D-06
 -0.85766178D-09  0.30946561D-07  0.57880874D-07  0.10023399D-06  0.16274464D-06
  0.24980974D-06  0.35484359D-06  0.45017538D-06  0.46605315D-06  0.30019486D-06
 -0.73834487D-07 -0.30097209D-06 -0.26250003D-06  0.13378368D-06  0.19328208D-07
  0.57252963D-07  0.29457837D-08 -0.28166955D-14 -0.37153666D-14 -0.41268596D-14
 -0.35320101D-14 -0.20181622D-14 -0.65493763D-15 -0.46116049D-18 -0.22062694D-15
 -0.29101831D-15 -0.32324985D-15 -0.27665631D-15 -0.15807919D-15 -0.51300144D-16
 -0.36121912D-19  0.30010909D-01  0.39585935D-01  0.43970250D-01  0.37632336D-01
  0.21502814D-01  0.69781320D-02  0.49135042D-05  0.18949134D-14  0.25912697D-14
  0.28169712D-14  0.25858322D-14  0.14093836D-14  0.59473280D-15 -0.20511613D-15
  0.20044548D-16  0.27410662D-16  0.29798151D-16  0.27353144D-16  0.14908574D-16
  0.62911320D-17 -0.21697351D-17 -0.27312023D-01 -0.37348840D-01 -0.40601951D-01
 -0.37270468D-01 -0.20313918D-01 -0.85720834D-02  0.29564076D-02  0.45494351D-15
  0.34383082D-16  0.10013246D-03  0.61259638D-16 -0.53617927D-19 -0.47120020D-03
  0.11751668D-18 -0.13665690D-19  0.41957504D-05 -0.46331860D-08 -0.46331860D-08
  0.92663721D-08  0.52988720D-20 -0.62381014D-18 -0.15888719D-18 -0.41397017D-07
 -0.41397017D-07  0.82794034D-07 -0.78586109D-20 -0.12019452D-17  0.10773648D-18
  0.78904946D-10  0.78904946D-10 -0.15780989D-09  0.45412635D-21  0.58685219D-19
 -0.40914524D-19 -0.27764639D-17 -0.78644829D-19  0.18847807D-03 -0.27757968D-17
 -0.78995054D-19 -0.28271710D-03  0.11105189D-16  0.31492954D-18 -0.28271710D-03
  0.13114566D-19 -0.33810879D-18 -0.25528130D-20 -0.29193495D-04 -0.33804444D-18
 -0.25433926D-20  0.43790242D-04  0.13523708D-17  0.10201831D-19  0.43790242D-04
 -0.54268657D-20  0.35060549D+00  0.65348353D+00  0.11080915D+01  0.16771482D+01
  0.20925912D+01  0.17972568D+01  0.69000183D+00 -0.30864205D-02  0.44391895D-03
  0.83258100D-03  0.14193681D-02  0.22181960D-02  0.29661508D-02  0.31671575D-02
  0.19363380D-02 -0.12774782D-02  0.39979524D-01 -0.34279724D-03  0.20830577D-03
 -0.13704475D-16 -0.13288731D-16 -0.89644991D-17  0.58466047D-17  0.56692399D-17
  0.38244357D-17 -0.45025101D-02 -0.43659202D-02 -0.29452240D-02  0.46308449D-17
 -0.76033385D-18  0.81994564D-03 -0.15205693D-16 -0.53450341D-19  0.11765210D-02
 -0.85780695D-18  0.14600852D-18 -0.10364916D-04 -0.74320255D-03 -0.74320255D-03
  0.14864051D-02 -0.17172638D-17 -0.10092932D-16 -0.23659190D-17  0.28907511D-03
  0.28907511D-03 -0.57815022D-03  0.75350860D-19  0.12170123D-16 -0.39849834D-19
  0.12927935D-03  0.12927935D-03 -0.25855870D-03  0.16029745D-20  0.63014638D-17
  0.97438720D-20 -0.10293563D-17  0.23475968D-18 -0.29635815D-03 -0.79015243D-18
  0.23786434D-18  0.44453723D-03  0.38782213D-17 -0.94214337D-18  0.44453723D-03
  0.67561282D-20  0.13888753D-17  0.27703865D-19  0.18326185D-03  0.13789299D-17
  0.24253745D-19 -0.27489278D-03 -0.55455559D-17 -0.10736534D-18 -0.27489278D-03
  0.68516555D-20 -0.35056120D+00 -0.65340098D+00 -0.11079516D+01 -0.16769363D+01
 -0.20923269D+01 -0.17970297D+01 -0.68991466D+00  0.30860306D-02 -0.44387904D-03
 -0.83250614D-03 -0.14192405D-02 -0.22179966D-02 -0.29658841D-02 -0.31668727D-02
 -0.19361639D-02  0.12773633D-02 -0.39974473D-01  0.34268422D-03 -0.20836938D-03
  0.19217934D-17  0.18634932D-17  0.12571015D-17 -0.14188796D-16 -0.13758359D-16
 -0.92813077D-17 -0.45019028D-02 -0.43653314D-02 -0.29448268D-02  0.40944094D-17
  0.13894919D-17  0.81984287D-03 -0.16839494D-16 -0.65002524D-18  0.11764018D-02
 -0.67014543D-18 -0.12059287D-19 -0.10372023D-04  0.74308063D-03  0.74308063D-03
 -0.14861613D-02 -0.13719639D-16  0.63562357D-17  0.34033425D-17 -0.28902345D-03
 -0.28902345D-03  0.57804689D-03  0.57607368D-18 -0.10342748D-16 -0.14708081D-17
 -0.12926957D-03 -0.12926957D-03  0.25853913D-03 -0.48566412D-19 -0.73302615D-17
 -0.47985670D-19 -0.42869545D-17 -0.67830423D-20 -0.29635551D-03 -0.41231887D-17
 -0.22043850D-18  0.44453326D-03  0.16984052D-16  0.24078763D-18  0.44453326D-03
  0.33390122D-18  0.20638953D-17 -0.80740536D-19  0.18323675D-03  0.20537521D-17
 -0.74640967D-19 -0.27485513D-03 -0.82454380D-17  0.31686257D-18 -0.27485513D-03
 -0.22046057D-19
MO    4     MO 0.0        OCC NO =    2.0000000  ORB. ENERGY =   -5.144277
 -0.37070643D-02 -0.69342810D-02 -0.11975192D-01 -0.19343056D-01 -0.29130244D-01
 -0.39616995D-01 -0.45099932D-01 -0.36537130D-01 -0.14831143D-01 -0.13523962D-02
  0.51972888D-04 -0.17379359D-04 -0.97529025D-06 -0.12813236D+00 -0.23982849D+00
 -0.41479260D+00 -0.67417039D+00 -0.10314752D+01 -0.14637346D+01 -0.18361335D+01
 -0.18720972D+01 -0.11502537D+01  0.25068839D+00  0.91823446D+00  0.41996812D+00
 -0.22292138D-02 -0.21856188D-02 -0.40878703D-02 -0.70790836D-02 -0.11493935D-01
 -0.17642958D-01 -0.25061034D-01 -0.31793897D-01 -0.32915274D-01 -0.21201436D-01
  0.52146035D-02  0.21256329D-01  0.18539217D-01 -0.94485502D-02  0.33390232D-01
  0.67948470D-03  0.10943371D-03 -0.64152140D-15 -0.84619979D-15 -0.93992010D-15
 -0.80443912D-15 -0.45965005D-15 -0.14916646D-15 -0.10503241D-18 -0.87162346D-15
 -0.11497163D-14 -0.12770523D-14 -0.10929768D-14 -0.62451816D-15 -0.20266976D-15
 -0.14270563D-18 -0.22698505D-10 -0.29940498D-10 -0.33256538D-10 -0.28462909D-10
 -0.16263478D-10 -0.52778530D-11 -0.37162886D-14  0.74943421D-17  0.10248416D-16
  0.11141061D-16  0.10226911D-16  0.55740820D-17  0.23521555D-17 -0.81122992D-18
  0.87222567D-16  0.11927574D-15  0.12966474D-15  0.11902545D-15  0.64873705D-16
  0.27375458D-16 -0.94414633D-17 -0.76201261D-11 -0.10420424D-10 -0.11328051D-10
 -0.10398558D-10 -0.56676366D-11 -0.23916338D-11  0.82484549D-12 -0.35588545D-16
 -0.31684804D-16 -0.24633653D-11 -0.33000167D-18 -0.14518214D-17 -0.29665689D-12
 -0.24834622D-20 -0.75984218D-20  0.13330610D-14  0.23494495D-03  0.23494495D-03
 -0.46988991D-03  0.41318036D-18  0.31199527D-18  0.42715584D-18  0.65362903D-03
  0.65362903D-03 -0.13072581D-02 -0.50058418D-17  0.15003460D-17 -0.83369298D-18
 -0.25644755D-04 -0.25644755D-04  0.51289509D-04 -0.23403371D-19  0.18995922D-19
 -0.34417663D-19  0.17704244D-18  0.14975441D-17  0.29054256D-13  0.17761330D-18
  0.15839512D-17 -0.43581263D-13 -0.70874062D-18 -0.60765834D-17 -0.43581504D-13
 -0.21096923D-18  0.15338683D-19  0.79772779D-19 -0.13375671D-13  0.15788570D-19
  0.75000090D-19  0.20063501D-13 -0.61804618D-19 -0.31431843D-18  0.20063513D-13
  0.47776524D-20 -0.62409756D-03 -0.11632375D-02 -0.19724654D-02 -0.29854183D-02
 -0.37249304D-02 -0.31992185D-02 -0.12282422D-02  0.54940026D-05  0.28254736D-03
  0.52992457D-03  0.90340523D-03  0.14118465D-02  0.18879078D-02  0.20158454D-02
  0.12324483D-02 -0.81309456D-03 -0.72443561D-04  0.31535375D-02 -0.23867837D-03
 -0.14199900D-18 -0.13769127D-18 -0.92885715D-19 -0.90657861D-18 -0.87907630D-18
 -0.59301968D-18 -0.64305383D-03 -0.62354591D-03 -0.42064038D-03  0.39366708D-19
 -0.58934267D-19 -0.98603772D-03  0.36560646D-18  0.56186940D-17 -0.16395397D-02
  0.24743694D-19  0.34289659D-18 -0.64505673D-04 -0.72855672D-04 -0.72855672D-04
  0.14571134D-03 -0.90013280D-18  0.11848905D-17  0.12814700D-16 -0.40965890D-03
 -0.40965890D-03  0.81931779D-03  0.33985670D-18 -0.40282927D-18 -0.73309301D-17
 -0.11055368D-03 -0.11055368D-03  0.22110736D-03 -0.39373039D-19 -0.16208391D-18
 -0.30541873D-17  0.30339481D-18  0.26397257D-17 -0.13178872D-02  0.35051068D-18
  0.24400306D-17  0.19768308D-02 -0.12606951D-17 -0.10359208D-16  0.19768308D-02
  0.12362128D-17 -0.96784065D-19 -0.15823052D-17 -0.75056269D-04 -0.10973153D-18
 -0.15568369D-17  0.11258440D-03  0.40008373D-18  0.63037524D-17  0.11258440D-03
 -0.65820155D-18 -0.62409756D-03 -0.11632375D-02 -0.19724654D-02 -0.29854183D-02
 -0.37249304D-02 -0.31992185D-02 -0.12282422D-02  0.54940026D-05  0.28254736D-03
  0.52992457D-03  0.90340523D-03  0.14118465D-02  0.18879078D-02  0.20158454D-02
  0.12324483D-02 -0.81309456D-03 -0.72443562D-04  0.31535375D-02 -0.23867837D-03
  0.11030331D-18  0.10695711D-18  0.72152633D-19  0.21770991D-18  0.21110538D-18
  0.14241044D-18  0.64305383D-03  0.62354591D-03  0.42064038D-03 -0.67514604D-18
 -0.93061874D-18  0.98603772D-03  0.13649030D-17  0.64981178D-17  0.16395397D-02
  0.12645634D-18  0.25049690D-18  0.64505673D-04 -0.72855672D-04 -0.72855672D-04
  0.14571134D-03 -0.31489755D-18 -0.12499241D-17 -0.10404140D-16 -0.40965890D-03
 -0.40965890D-03  0.81931779D-03  0.19470883D-18  0.41209550D-18  0.61439798D-17
 -0.11055368D-03 -0.11055368D-03  0.22110736D-03 -0.57963740D-19  0.82067956D-18
  0.35398214D-17  0.46085704D-18  0.28166012D-17  0.13178872D-02  0.42558403D-18
  0.28043007D-17 -0.19768308D-02 -0.18081551D-17 -0.11254104D-16 -0.19768308D-02
 -0.41219790D-18 -0.25098308D-18 -0.15693326D-17  0.75056269D-04 -0.25066806D-18
 -0.15831723D-17 -0.11258440D-03  0.10036173D-17  0.62911700D-17 -0.11258440D-03
  0.35159072D-18
MO    5     MO 0.0        OCC NO =    2.0000000  ORB. ENERGY =   -3.558043
 -0.18076480D-15 -0.33813114D-15 -0.58393729D-15 -0.94321093D-15 -0.14204563D-14
 -0.19318138D-14 -0.21991742D-14 -0.17816326D-14 -0.72319989D-15 -0.65945883D-16
  0.25343149D-17 -0.84745666D-18 -0.47557347D-19  0.36101494D-15  0.67572056D-15
  0.11686847D-14  0.18994857D-14  0.29061977D-14  0.41240953D-14  0.51733351D-14
  0.52746633D-14  0.32408580D-14 -0.70631849D-15 -0.25871401D-14 -0.11832668D-14
  0.62808450D-17 -0.23033166D-15 -0.43080062D-15 -0.74602994D-15 -0.12112895D-14
 -0.18593048D-14 -0.26410596D-14 -0.33506030D-14 -0.34687794D-14 -0.22343154D-14
  0.54954151D-15  0.22401003D-14  0.19537572D-14 -0.99573640D-15 -0.13762648D-15
 -0.13966590D-15  0.52759381D-16 -0.38236347D+01 -0.50435712D+01 -0.56021686D+01
 -0.47946667D+01 -0.27396340D+01 -0.88907096D+00 -0.62602053D-03  0.48976361D+01
  0.64602344D+01  0.71757335D+01  0.61414164D+01  0.35091560D+01  0.11387976D+01
  0.80186027D-03  0.77627624D-13  0.10239484D-12  0.11373551D-12  0.97341566D-13
  0.55620189D-13  0.18049964D-13  0.12709500D-16  0.35482816D-01  0.48522295D-01
  0.52748622D-01  0.48420476D-01  0.26391126D-01  0.11136548D-01 -0.38408604D-02
 -0.45449405D-01 -0.62151477D-01 -0.67564916D-01 -0.62021060D-01 -0.33803996D-01
 -0.14264637D-01  0.49197003D-02 -0.30996052D-14 -0.42386703D-14 -0.46078616D-14
 -0.42297760D-14 -0.23053997D-14 -0.97283438D-15  0.33551878D-15 -0.96849136D-01
  0.12405260D+00  0.22756935D-14 -0.44166332D-03  0.56571990D-03 -0.62209069D-15
 -0.94334524D-05  0.12083167D-04  0.10038159D-16  0.25509285D-16  0.19438894D-16
 -0.44948179D-16  0.55527356D-17  0.95245672D-14 -0.11308784D-13  0.26734993D-15
  0.23811977D-15 -0.50546970D-15 -0.70958865D-16  0.92335709D-12 -0.11818440D-11
 -0.47310991D-17 -0.45544224D-17  0.92855214D-17 -0.78020261D-18  0.82611906D-14
 -0.10656309D-13  0.40268949D-03 -0.51579890D-03 -0.32479519D-16  0.40268808D-03
 -0.51579710D-03  0.18167749D-16 -0.16107565D-02  0.20631938D-02  0.79270808D-16
 -0.57492287D-17  0.37086848D-04 -0.47503985D-04 -0.13212004D-16  0.37086920D-04
 -0.47504078D-04  0.25377328D-16 -0.14834746D-03  0.19001603D-03  0.14258684D-16
 -0.24293580D-18 -0.89347076D-16 -0.16653145D-15 -0.28238217D-15 -0.42739856D-15
 -0.53326862D-15 -0.45800662D-15 -0.17583765D-15  0.78653259D-18  0.12385655D-15
  0.23229603D-15  0.39601380D-15  0.61889248D-15  0.82757717D-15  0.88365948D-15
  0.54025208D-15 -0.35642551D-15 -0.15216030D-15  0.99340366D-15  0.69296714D-15
 -0.40356558D-03 -0.39132286D-03 -0.26398409D-03  0.51692108D-03  0.50123957D-03
  0.33813325D-03  0.51621346D-15  0.50055341D-15  0.33767038D-15 -0.53980885D-03
  0.69143303D-03 -0.62815567D-15  0.20054671D-02 -0.25687726D-02 -0.24311504D-15
  0.11107091D-03 -0.14226906D-03 -0.90363958D-16  0.19033064D-15  0.10913872D-15
 -0.29946936D-15 -0.42037481D-15  0.29421995D-02 -0.37686190D-02 -0.29723343D-15
 -0.29588745D-15  0.59312088D-15  0.81526517D-17 -0.13346736D-02  0.17095634D-02
  0.17201934D-16  0.10906849D-16 -0.28108782D-16  0.25132384D-17 -0.96533228D-03
  0.12364796D-02  0.59245739D-03 -0.75886976D-03 -0.19766304D-15  0.59245777D-03
 -0.75887024D-03  0.11000261D-14 -0.23698299D-02  0.30354795D-02 -0.50703699D-15
  0.48558675D-15 -0.30340496D-03  0.38862684D-03 -0.50085440D-16 -0.30340491D-03
  0.38862678D-03  0.29329207D-16  0.12136198D-02 -0.15545073D-02  0.12092711D-15
 -0.33253470D-16 -0.96555768D-17 -0.17996753D-16 -0.30516530D-16 -0.46188189D-16
 -0.57629375D-16 -0.49495947D-16 -0.19002457D-16  0.84999154D-19  0.30753913D-16
  0.57679726D-16  0.98331288D-16  0.15367266D-15  0.20548963D-15  0.21941502D-15
  0.13414604D-15 -0.88501410D-16 -0.17527197D-15  0.10250664D-15 -0.67326502D-15
 -0.40356558D-03 -0.39132286D-03 -0.26398409D-03  0.51692108D-03  0.50123957D-03
  0.33813325D-03 -0.95516724D-15 -0.92619093D-15 -0.62480293D-15 -0.53980885D-03
  0.69143303D-03  0.13952307D-15  0.20054671D-02 -0.25687726D-02  0.47397839D-15
  0.11107091D-03 -0.14226906D-03 -0.46791022D-16 -0.17728324D-16 -0.16889357D-15
  0.18662189D-15 -0.34128763D-15 -0.29421995D-02  0.37686191D-02 -0.62104917D-16
 -0.46793727D-16  0.10889864D-15 -0.40865778D-17  0.13346736D-02 -0.17095634D-02