 Molden2AIM, Version 4.0.0 (06/02/2016)           Time: Thu Jun 28 23:38:28 2018
GAUSSIAN              6 MOL ORBITALS    150 PRIMITIVES        2 NUCLEI
  C    1    (CENTRE  1)   0.00000000  0.00000000  1.17761874  CHARGE =  6.0
  C    2    (CENTRE  2)   0.00000000  0.00000000 -1.17761874  CHARGE =  6.0
CENTRE ASSIGNMENTS    1  1  1  1  1  1  1  1  1  1  1  1  1  1  1  1  1  1  1  1
CENTRE ASSIGNMENTS    1  1  1  1  1  1  1  1  1  1  1  1  1  1  1  1  1  1  1  1
CENTRE ASSIGNMENTS    1  1  1  1  1  1  1  1  1  1  1  1  1  1  1  1  1  1  1  1
CENTRE ASSIGNMENTS    1  1  1  1  1  1  1  1  1  1  1  1  1  1  1  2  2  2  2  2
CENTRE ASSIGNMENTS    2  2  2  2  2  2  2  2  2  2  2  2  2  2  2  2  2  2  2  2
CENTRE ASSIGNMENTS    2  2  2  2  2  2  2  2  2  2  2  2  2  2  2  2  2  2  2  2
CENTRE ASSIGNMENTS    2  2  2  2  2  2  2  2  2  2  2  2  2  2  2  2  2  2  2  2
CENTRE ASSIGNMENTS    2  2  2  2  2  2  2  2  2  2
TYPE ASSIGNMENTS      1  1  1  1  1  1  1  1  1  1  1  1  1  1  1  1  1  1  1  2
TYPE ASSIGNMENTS      2  2  3  3  3  4  4  4  2  3  4  2  3  4  2  3  4  5  6  7
TYPE ASSIGNMENTS      8  9 10  5  6  7  8  9 10  5  6  7  8  9 10 11 12 13 17 14
TYPE ASSIGNMENTS     15 18 19 16 20 11 12 13 17 14 15 18 19 16 20  1  1  1  1  1
TYPE ASSIGNMENTS      1  1  1  1  1  1  1  1  1  1  1  1  1  1  2  2  2  3  3  3
TYPE ASSIGNMENTS      4  4  4  2  3  4  2  3  4  2  3  4  5  6  7  8  9 10  5  6
TYPE ASSIGNMENTS      7  8  9 10  5  6  7  8  9 10 11 12 13 17 14 15 18 19 16 20
TYPE ASSIGNMENTS     11 12 13 17 14 15 18 19 16 20
EXPONENTS  0.8236000D+04 0.1235000D+04 0.2808000D+03 0.7927000D+02 0.2559000D+02
EXPONENTS  0.8997000D+01 0.3319000D+01 0.3643000D+00 0.8236000D+04 0.1235000D+04
EXPONENTS  0.2808000D+03 0.7927000D+02 0.2559000D+02 0.8997000D+01 0.3319000D+01
EXPONENTS  0.3643000D+00 0.9059000D+00 0.1285000D+00 0.4402000D-01 0.1871000D+02
EXPONENTS  0.4133000D+01 0.1200000D+01 0.1871000D+02 0.4133000D+01 0.1200000D+01
EXPONENTS  0.1871000D+02 0.4133000D+01 0.1200000D+01 0.3827000D+00 0.3827000D+00
EXPONENTS  0.3827000D+00 0.1209000D+00 0.1209000D+00 0.1209000D+00 0.3569000D-01
EXPONENTS  0.3569000D-01 0.3569000D-01 0.1097000D+01 0.1097000D+01 0.1097000D+01
EXPONENTS  0.1097000D+01 0.1097000D+01 0.1097000D+01 0.3180000D+00 0.3180000D+00
EXPONENTS  0.3180000D+00 0.3180000D+00 0.3180000D+00 0.3180000D+00 0.1000000D+00
EXPONENTS  0.1000000D+00 0.1000000D+00 0.1000000D+00 0.1000000D+00 0.1000000D+00
EXPONENTS  0.7610000D+00 0.7610000D+00 0.7610000D+00 0.7610000D+00 0.7610000D+00
EXPONENTS  0.7610000D+00 0.7610000D+00 0.7610000D+00 0.7610000D+00 0.7610000D+00
EXPONENTS  0.2680000D+00 0.2680000D+00 0.2680000D+00 0.2680000D+00 0.2680000D+00
EXPONENTS  0.2680000D+00 0.2680000D+00 0.2680000D+00 0.2680000D+00 0.2680000D+00
EXPONENTS  0.8236000D+04 0.1235000D+04 0.2808000D+03 0.7927000D+02 0.2559000D+02
EXPONENTS  0.8997000D+01 0.3319000D+01 0.3643000D+00 0.8236000D+04 0.1235000D+04
EXPONENTS  0.2808000D+03 0.7927000D+02 0.2559000D+02 0.8997000D+01 0.3319000D+01
EXPONENTS  0.3643000D+00 0.9059000D+00 0.1285000D+00 0.4402000D-01 0.1871000D+02
EXPONENTS  0.4133000D+01 0.1200000D+01 0.1871000D+02 0.4133000D+01 0.1200000D+01
EXPONENTS  0.1871000D+02 0.4133000D+01 0.1200000D+01 0.3827000D+00 0.3827000D+00
EXPONENTS  0.3827000D+00 0.1209000D+00 0.1209000D+00 0.1209000D+00 0.3569000D-01
EXPONENTS  0.3569000D-01 0.3569000D-01 0.1097000D+01 0.1097000D+01 0.1097000D+01
EXPONENTS  0.1097000D+01 0.1097000D+01 0.1097000D+01 0.3180000D+00 0.3180000D+00
EXPONENTS  0.3180000D+00 0.3180000D+00 0.3180000D+00 0.3180000D+00 0.1000000D+00
EXPONENTS  0.1000000D+00 0.1000000D+00 0.1000000D+00 0.1000000D+00 0.1000000D+00
EXPONENTS  0.7610000D+00 0.7610000D+00 0.7610000D+00 0.7610000D+00 0.7610000D+00
EXPONENTS  0.7610000D+00 0.7610000D+00 0.7610000D+00 0.7610000D+00 0.7610000D+00
EXPONENTS  0.2680000D+00 0.2680000D+00 0.2680000D+00 0.2680000D+00 0.2680000D+00
EXPONENTS  0.2680000D+00 0.2680000D+00 0.2680000D+00 0.2680000D+00 0.2680000D+00
MO    1     MO 0.0        OCC NO =    2.0000000  ORB. ENERGY =   -9.995087
  0.23072565D+00  0.43012506D+00  0.72698713D+00  0.10928998D+01  0.13427537D+01
  0.11341701D+01  0.42776724D+00 -0.21170440D-02 -0.72737584D-03 -0.13618771D-02
 -0.23187122D-02 -0.35866953D-02 -0.47235515D-02 -0.49080726D-02 -0.31188598D-02
  0.20901873D-02  0.26303243D-01  0.51834572D-03 -0.21595672D-03  0.57037327D-09
  0.53476120D-09  0.38078183D-09 -0.20315663D-08 -0.19047225D-08 -0.13562759D-08
 -0.17783194D-02 -0.16672875D-02 -0.11872080D-02  0.14690245D-09 -0.52323968D-09
 -0.26051966D-03  0.17672078D-10 -0.62944656D-10  0.13578004D-02  0.25250144D-12
 -0.89935768D-12  0.53222276D-04 -0.87979807D-03 -0.87979807D-03  0.17595961D-02
 -0.59617765D-16 -0.56511522D-10  0.20128337D-09  0.59718804D-03  0.59718804D-03
 -0.11943761D-02  0.61865000D-17 -0.57939008D-11  0.20637038D-10  0.81148098D-04
  0.81148098D-04 -0.16229620D-03 -0.14856736D-17  0.14428396D-12 -0.51392496D-12
 -0.47892662D-11  0.17058525D-10  0.14748505D-03 -0.47892845D-11  0.17058581D-10
 -0.22122757D-03  0.19157083D-10 -0.68234156D-10 -0.22122757D-03  0.33998613D-16
  0.11401776D-12 -0.40610601D-12  0.20630087D-03  0.11401773D-12 -0.40610925D-12
 -0.30945130D-03 -0.45607102D-12  0.16244273D-11 -0.30945130D-03  0.28410518D-17
  0.23088558D+00  0.43042321D+00  0.72749105D+00  0.10936573D+01  0.13436844D+01
  0.11349563D+01  0.42806375D+00 -0.21185114D-02 -0.72878187D-03 -0.13645096D-02
 -0.23231944D-02 -0.35936284D-02 -0.47326822D-02 -0.49175600D-02 -0.31248886D-02
  0.20942277D-02  0.26320252D-01  0.53086531D-03 -0.21433534D-03  0.57035087D-09
  0.53474020D-09  0.38076688D-09 -0.20314849D-08 -0.19046462D-08 -0.13562216D-08
  0.17767752D-02  0.16658397D-02  0.11861771D-02  0.14690976D-09 -0.52326532D-09
  0.26874728D-03  0.17673485D-10 -0.62949758D-10 -0.13543007D-02  0.25253374D-12
 -0.89948566D-12 -0.53139946D-04 -0.88176017D-03 -0.88176017D-03  0.17635203D-02
 -0.44268090D-16  0.56514510D-10 -0.20129456D-09  0.59624154D-03  0.59624154D-03
 -0.11924831D-02  0.12802453D-16  0.57991569D-11 -0.20655294D-10  0.81077861D-04
  0.81077861D-04 -0.16215572D-03 -0.41331177D-18 -0.14405637D-12  0.51307757D-12
 -0.47901590D-11  0.17061625D-10 -0.14621973D-03 -0.47901782D-11  0.17061693D-10
  0.21932960D-03  0.19160655D-10 -0.68246569D-10  0.21932960D-03  0.29823243D-16
  0.11380731D-12 -0.40536867D-12 -0.20620034D-03  0.11380885D-12 -0.40537180D-12
  0.30930050D-03 -0.45523078D-12  0.16214778D-11  0.30930050D-03  0.21040538D-17
MO    2     MO 0.0        OCC NO =    2.0000000  ORB. ENERGY =   -9.993681
 -0.23283814D+00 -0.43406324D+00 -0.73364334D+00 -0.11029063D+01 -0.13550478D+01
 -0.11445545D+01 -0.43168383D+00  0.21364274D-02  0.20466890D-02  0.38320476D-02
  0.65243890D-02  0.10092238D-01  0.13291122D-01  0.13810327D-01  0.87758429D-02
 -0.58813659D-02 -0.24762956D-01 -0.18221991D-01 -0.23597785D-02  0.32816933D-10
  0.30767961D-10  0.21908621D-10 -0.11688873D-09 -0.10959062D-09 -0.78035047D-10
 -0.22497752D-02 -0.21093073D-02 -0.15019524D-02 -0.10545604D-10  0.37561350D-10
  0.11974946D-01 -0.20904654D-11  0.74458921D-11  0.50932948D-02 -0.45760822D-13
  0.16299785D-12  0.11980937D-03  0.28557074D-02  0.28557074D-02 -0.57114149D-02
 -0.60119426D-16  0.46055873D-11 -0.16404518D-10  0.13773630D-02  0.13773630D-02
 -0.27547261D-02  0.58322633D-17  0.74318101D-11 -0.26470525D-10  0.10219972D-03
  0.10219972D-03 -0.20439944D-03 -0.15446590D-17  0.34081524D-12 -0.12139341D-11
  0.12643849D-11 -0.45034683D-11  0.18413415D-02  0.12643935D-11 -0.45035084D-11
 -0.27620122D-02 -0.50575484D-11  0.18013913D-10 -0.27620122D-02  0.33545609D-16
  0.30008422D-12 -0.10688410D-11  0.14625394D-03  0.30008301D-12 -0.10688400D-11
 -0.21938092D-03 -0.12003357D-11  0.42753629D-11 -0.21938092D-03  0.29076590D-17
  0.23267956D+00  0.43376759D+00  0.73314365D+00  0.11021551D+01  0.13541248D+01
  0.11437749D+01  0.43138981D+00 -0.21349722D-02 -0.20461885D-02 -0.38311105D-02
 -0.65227934D-02 -0.10089770D-01 -0.13287872D-01 -0.13806950D-01 -0.87736967D-02
  0.58799275D-02  0.24744877D-01  0.18221630D-01  0.23599263D-02 -0.33211482D-10
 -0.31137875D-10 -0.22172022D-10  0.11829313D-09  0.11090733D-09  0.78972624D-10
 -0.22509956D-02 -0.21104515D-02 -0.15027672D-02  0.10444136D-10 -0.37199880D-10
  0.11974764D-01  0.20782487D-11 -0.74024017D-11  0.50942265D-02  0.45586470D-13
 -0.16237768D-12  0.11984592D-03 -0.28551022D-02 -0.28551022D-02  0.57102045D-02
 -0.44867431D-16  0.45665363D-11 -0.16265426D-10 -0.13777730D-02 -0.13777730D-02
  0.27555459D-02  0.12687635D-16  0.74278038D-11 -0.26456249D-10 -0.10225545D-03
 -0.10225545D-03  0.20451091D-03 -0.48140780D-18  0.34091167D-12 -0.12142904D-11
 -0.12610787D-11  0.44916905D-11  0.18414422D-02 -0.12610874D-11  0.44917212D-11
 -0.27621633D-02  0.50443235D-11 -0.17966793D-10 -0.27621633D-02  0.30391522D-16
 -0.30016359D-12  0.10691202D-11  0.14639565D-03 -0.30016234D-12  0.10691180D-11
 -0.21959347D-03  0.12006531D-11 -0.42764786D-11 -0.21959347D-03  0.21630659D-17
MO    3     MO 0.0        OCC NO =    2.0000000  ORB. ENERGY =   -0.720382
 -0.10468797D-01 -0.19516217D-01 -0.32985845D-01 -0.49588530D-01 -0.60925239D-01
 -0.51461104D-01 -0.19409235D-01  0.96057388D-04 -0.43721080D-01 -0.81859657D-01
 -0.13937307D+00 -0.21558895D+00 -0.28392306D+00 -0.29501425D+00 -0.18746831D+00
  0.12563690D+00  0.64116393D-01  0.17270099D-01 -0.33868892D-03  0.46491157D-07
  0.43588415D-07  0.31037548D-07 -0.16559295D-06 -0.15525391D-06 -0.11055004D-06
 -0.28476923D+00 -0.26698926D+00 -0.19011226D+00  0.11181713D-07 -0.39827203D-07
 -0.46758537D-01  0.13990830D-08 -0.49832759D-08  0.92222741D-03  0.18493746D-10
 -0.65871316D-10  0.20637039D-03 -0.17123947D-01 -0.17123947D-01  0.34247894D-01
  0.88428462D-16 -0.41547270D-08  0.14798373D-07 -0.82844400D-03 -0.82844400D-03
  0.16568880D-02  0.32807806D-16 -0.48215630D-09  0.17173519D-08  0.19328957D-03
  0.19328957D-03 -0.38657915D-03  0.33829732D-17  0.99933127D-11 -0.35594355D-10
 -0.35240591D-09  0.12552050D-08 -0.52725443D-02 -0.35240686D-09  0.12552084D-08
  0.79088165D-02  0.14096246D-08 -0.50208234D-08  0.79088165D-02  0.33057644D-16
  0.39835854D-11 -0.14188800D-10  0.21293738D-03  0.39836233D-11 -0.14188937D-10
 -0.31940607D-03 -0.15934380D-10  0.56755338D-10 -0.31940607D-03 -0.33752416D-17
 -0.10468799D-01 -0.19516222D-01 -0.32985853D-01 -0.49588542D-01 -0.60925254D-01
 -0.51461116D-01 -0.19409240D-01  0.96057411D-04 -0.43721116D-01 -0.81859725D-01
 -0.13937319D+00 -0.21558913D+00 -0.28392329D+00 -0.29501449D+00 -0.18746846D+00
  0.12563701D+00  0.64116444D-01  0.17270144D-01 -0.33868716D-03  0.46491144D-07
  0.43588403D-07  0.31037540D-07 -0.16559290D-06 -0.15525387D-06 -0.11055000D-06
  0.28476897D+00  0.26698901D+00  0.19011208D+00  0.11181710D-07 -0.39827192D-07
  0.46758465D-01  0.13990824D-08 -0.49832741D-08 -0.92223383D-03  0.18493746D-10
 -0.65871323D-10 -0.20637047D-03 -0.17123946D-01 -0.17123946D-01  0.34247893D-01
  0.10057436D-15  0.41547280D-08 -0.14798377D-07 -0.82844346D-03 -0.82844346D-03
  0.16568869D-02  0.26383030D-16  0.48215649D-09 -0.17173527D-08  0.19328951D-03
  0.19328951D-03 -0.38657902D-03  0.23167199D-17 -0.99933332D-11  0.35594400D-10
 -0.35240593D-09  0.12552051D-08  0.52725432D-02 -0.35240689D-09  0.12552085D-08
 -0.79088148D-02  0.14096247D-08 -0.50208237D-08 -0.79088148D-02 -0.39311059D-16
  0.39835882D-11 -0.14188807D-10 -0.21293752D-03  0.39836267D-11 -0.14188942D-10
  0.31940628D-03 -0.15934391D-10  0.56755363D-10  0.31940628D-03 -0.22765847D-17
MO    4     MO 0.0        OCC NO =    2.0000000  ORB. ENERGY =   -0.379628
  0.42330307D-02  0.78913317D-02  0.13337741D-01  0.20050993D-01  0.24634962D-01
  0.20808164D-01  0.78480737D-02 -0.38840555D-04  0.42248085D-01  0.79101745D-01
  0.13467749D+00  0.20832560D+00  0.27435748D+00  0.28507500D+00  0.18115236D+00
 -0.12140410D+00 -0.63729930D-01 -0.46525463D-01 -0.75192840D-03  0.64340654D-09
  0.60323453D-09  0.42953892D-09 -0.22916945D-08 -0.21486093D-08 -0.15299378D-08
 -0.26693661D+00 -0.25027004D+00 -0.17820717D+00  0.20552505D-09 -0.73204208D-09
 -0.77491062D-01  0.32923646D-10 -0.11726791D-09 -0.74097596D-02 -0.21293799D-12
  0.75844255D-12 -0.13862317D-03 -0.22441411D-02 -0.22441411D-02  0.44882822D-02
  0.21121151D-16  0.15190839D-09 -0.54106977D-09 -0.99710094D-03 -0.99710094D-03
  0.19942019D-02  0.33781255D-17  0.37803648D-10 -0.13464961D-09  0.45074123D-04
  0.45074123D-04 -0.90148246D-04  0.11111449D-17 -0.74352655D-13  0.26484987D-12
 -0.33803712D-11  0.12040259D-10 -0.15884138D-02 -0.33803369D-11  0.12040142D-10
  0.23826206D-02  0.13521451D-10 -0.48160919D-10  0.23826206D-02  0.74744120D-17
 -0.32578851D-12  0.11604029D-11 -0.19617892D-03 -0.32579112D-12  0.11604089D-11
  0.29426838D-03  0.13031567D-11 -0.46416176D-11  0.29426838D-03 -0.54817251D-17
 -0.42330219D-02 -0.78913152D-02 -0.13337713D-01 -0.20050951D-01 -0.24634910D-01
 -0.20808120D-01 -0.78480573D-02  0.38840473D-04 -0.42248034D-01 -0.79101650D-01
 -0.13467733D+00 -0.20832535D+00 -0.27435715D+00 -0.28507466D+00 -0.18115215D+00
  0.12140396D+00  0.63729855D-01  0.46525428D-01  0.75192770D-03 -0.64727655D-09
 -0.60686291D-09 -0.43212255D-09  0.23054811D-08  0.21615350D-08  0.15391417D-08
 -0.26693642D+00 -0.25026987D+00 -0.17820705D+00 -0.20645755D-09  0.73536411D-09
 -0.77491011D-01 -0.33039891D-10  0.11768209D-09 -0.74097541D-02  0.21141265D-12
 -0.75301000D-12 -0.13862320D-03  0.22441425D-02  0.22441425D-02 -0.44882850D-02
 -0.45985182D-17  0.15156653D-09 -0.53985192D-09  0.99710214D-03  0.99710214D-03
 -0.19942043D-02 -0.19171804D-17  0.37763955D-10 -0.13450818D-09 -0.45074031D-04
 -0.45074031D-04  0.90148063D-04 -0.10093716D-17 -0.73566159D-13  0.26203558D-12
  0.34089477D-11 -0.12142048D-10 -0.15884148D-02  0.34089128D-11 -0.12141944D-10
  0.23826222D-02 -0.13635756D-10  0.48568088D-10  0.23826222D-02 -0.20536892D-17
  0.32545966D-12 -0.11592281D-11 -0.19617915D-03  0.32546221D-12 -0.11592339D-11
  0.29426873D-03 -0.13018412D-11  0.46369183D-11  0.29426873D-03 -0.58105797D-17
MO    5     MO 0.0        OCC NO =    2.0000000  ORB. ENERGY =   -0.292980
  0.24734668D-12  0.46111044D-12  0.77935788D-12  0.11716302D-11  0.14394831D-11
  0.12158736D-11  0.45858277D-12 -0.22695517D-14  0.80280797D-11  0.15031098D-10
  0.25591731D-10  0.39586516D-10  0.52134049D-10  0.54170617D-10  0.34422995D-10
 -0.23069491D-10 -0.97563240D-11 -0.16054404D-10 -0.13245831D-11  0.52496484D+00
  0.49218790D+00  0.35046711D+00  0.14731035D+00  0.13811281D+00  0.98344551D-01
 -0.26955397D-09 -0.25272398D-09 -0.17995453D-09  0.12649812D+00  0.35496629D-01
 -0.56754644D-10  0.15771017D-01  0.44255039D-02 -0.40960398D-11  0.20677782D-03
  0.58023911D-04  0.59552686D-13 -0.15529872D-09  0.13712413D-09  0.18174593D-10
  0.47987608D-09 -0.46367967D-01 -0.13011312D-01 -0.43434482D-10  0.43436769D-10
 -0.22876723D-14  0.14255823D-09 -0.53850173D-02 -0.15110893D-02 -0.34600030D-11
  0.36877765D-11 -0.22777351D-12  0.11729725D-10  0.10704087D-03  0.30036731D-04
 -0.38749705D-02 -0.10873552D-02 -0.23337292D-11 -0.38749802D-02 -0.10873579D-02
 -0.42361568D-10  0.15499892D-01  0.43494235D-02  0.49362756D-10  0.15052174D-09
  0.44707945D-04  0.12545494D-04  0.19451101D-12  0.44708336D-04  0.12545603D-04
 -0.87675528D-13 -0.17883217D-03 -0.50182084D-04 -0.49585749D-12 -0.66984575D-12
  0.24734554D-12  0.46110833D-12  0.77935431D-12  0.11716248D-11  0.14394764D-11
  0.12158680D-11  0.45858067D-12 -0.22695413D-14  0.80279916D-11  0.15030933D-10
  0.25591450D-10  0.39586082D-10  0.52133477D-10  0.54170022D-10  0.34422617D-10
 -0.23069238D-10 -0.97561767D-11 -0.16053269D-10 -0.13243866D-11  0.52496470D+00
  0.49218777D+00  0.35046701D+00  0.14731031D+00  0.13811278D+00  0.98344525D-01
  0.26955324D-09  0.25272330D-09  0.17995404D-09  0.12649809D+00  0.35496620D-01
  0.56754744D-10  0.15771011D-01  0.44255023D-02  0.40963324D-11  0.20677784D-03
  0.58023917D-04 -0.59545926D-13 -0.15529869D-09  0.13712408D-09  0.18174613D-10
  0.47987604D-09  0.46367977D-01  0.13011315D-01 -0.43434527D-10  0.43436748D-10
 -0.22213712D-14  0.14255822D-09  0.53850194D-02  0.15110899D-02 -0.34600148D-11
  0.36877711D-11 -0.22775633D-12  0.11729718D-10 -0.10704103D-03 -0.30036777D-04
 -0.38749708D-02 -0.10873553D-02  0.23337356D-11 -0.38749805D-02 -0.10873580D-02
  0.42361599D-10  0.15499893D-01  0.43494239D-02 -0.49362806D-10 -0.15052173D-09
  0.44707965D-04  0.12545499D-04 -0.19450490D-12  0.44708356D-04  0.12545609D-04
  0.87657365D-13 -0.17883225D-03 -0.50182105D-04  0.49585734D-12  0.66981753D-12
MO    6     MO 0.0        OCC NO =    2.0000000  ORB. ENERGY =   -0.292980
  0.18311507D-08  0.34136812D-08  0.57697225D-08  0.86737829D-08  0.10656744D-07
  0.90013243D-08  0.33949683D-08 -0.16801888D-10  0.59429668D-07  0.11127109D-06
  0.18944855D-06  0.29304810D-06  0.38593404D-06  0.40101019D-06  0.25482397D-06
 -0.17077710D-06 -0.72223387D-07 -0.11884233D-06 -0.98048371D-08  0.14731035D+00
  0.13811281D+00  0.98344551D-01 -0.52496484D+00 -0.49218790D+00 -0.35046711D+00
 -0.19954311D-05 -0.18708435D-05 -0.13321520D-05  0.35496629D-01 -0.12649812D+00
 -0.42013973D-06  0.44255039D-02 -0.15771017D-01 -0.30322891D-07  0.58023911D-04
 -0.20677782D-03  0.44084511D-09 -0.67030683D-07 -0.67510558D-07  0.13454124D-06
  0.29242387D-09 -0.13011312D-01  0.46367967D-01  0.79668109D-10 -0.62890142D-10
 -0.16777967D-10  0.86871222D-10 -0.15110893D-02  0.53850173D-02  0.84891881D-09
  0.83718909D-09 -0.16861079D-08  0.71477808D-11  0.30036731D-04 -0.10704087D-03
 -0.10873552D-02  0.38749705D-02 -0.17275959D-07 -0.10873579D-02  0.38749802D-02
  0.25989200D-07  0.43494235D-02 -0.15499892D-01  0.25838678D-07  0.91723942D-10
  0.12545494D-04 -0.44707945D-04  0.14398969D-08  0.12545603D-04 -0.44708336D-04
 -0.21601802D-08 -0.50182084D-04  0.17883217D-03 -0.21595104D-08 -0.40816367D-12
  0.18310525D-08  0.34134981D-08  0.57694131D-08  0.86733178D-08  0.10656173D-07
  0.90008416D-08  0.33947863D-08 -0.16800987D-10  0.59428668D-07  0.11126922D-06
  0.18944536D-06  0.29304317D-06  0.38592755D-06  0.40100344D-06  0.25481969D-06
 -0.17077423D-06 -0.72221877D-07 -0.11884122D-06 -0.98048198D-08  0.14731031D+00
  0.13811278D+00  0.98344525D-01 -0.52496470D+00 -0.49218777D+00 -0.35046701D+00
  0.19954248D-05  0.18708376D-05  0.13321478D-05  0.35496620D-01 -0.12649809D+00
  0.42013789D-06  0.44255023D-02 -0.15771011D-01  0.30322716D-07  0.58023917D-04
 -0.20677784D-03 -0.44084841D-09 -0.67030630D-07 -0.67510504D-07  0.13454113D-06
  0.29242391D-09  0.13011315D-01 -0.46367977D-01  0.79691763D-10 -0.62866493D-10
 -0.16825271D-10  0.86871264D-10  0.15110899D-02 -0.53850194D-02  0.84891774D-09
  0.83718803D-09 -0.16861058D-08  0.71477873D-11 -0.30036777D-04  0.10704103D-03
 -0.10873553D-02  0.38749708D-02  0.17275921D-07 -0.10873580D-02  0.38749805D-02
 -0.25989143D-07  0.43494239D-02 -0.15499893D-01 -0.25838621D-07 -0.91724006D-10
  0.12545499D-04 -0.44707965D-04 -0.14399015D-08  0.12545609D-04 -0.44708356D-04
  0.21601872D-08 -0.50182105D-04  0.17883225D-03  0.21595173D-08  0.40819007D-12
END DATA
RHF
