 Molden2AIM, Version 4.0.0 (06/02/2016)           Time: Fri Jun 29 23:17:35 2018
GAUSSIAN             20 MOL ORBITALS    338 PRIMITIVES        2 NUCLEI
  B    1    (CENTRE  1)   0.00000000  0.00000000 -0.37231573  CHARGE =  5.0
  Br   2    (CENTRE  2)   0.00000000  0.00000000  3.20690492  CHARGE = 35.0
CENTRE ASSIGNMENTS    1  1  1  1  1  1  1  1  1  1  1  1  1  1  1  1  1  1  1  1
CENTRE ASSIGNMENTS    1  1  1  1  1  1  1  1  1  1  1  1  1  1  1  1  1  1  1  1
CENTRE ASSIGNMENTS    1  1  1  1  1  1  1  1  1  1  1  1  1  1  1  1  1  1  1  1
CENTRE ASSIGNMENTS    1  1  1  1  1  1  1  1  1  1  1  1  1  1  1  2  2  2  2  2
CENTRE ASSIGNMENTS    2  2  2  2  2  2  2  2  2  2  2  2  2  2  2  2  2  2  2  2
CENTRE ASSIGNMENTS    2  2  2  2  2  2  2  2  2  2  2  2  2  2  2  2  2  2  2  2
CENTRE ASSIGNMENTS    2  2  2  2  2  2  2  2  2  2  2  2  2  2  2  2  2  2  2  2
CENTRE ASSIGNMENTS    2  2  2  2  2  2  2  2  2  2  2  2  2  2  2  2  2  2  2  2
CENTRE ASSIGNMENTS    2  2  2  2  2  2  2  2  2  2  2  2  2  2  2  2  2  2  2  2
CENTRE ASSIGNMENTS    2  2  2  2  2  2  2  2  2  2  2  2  2  2  2  2  2  2  2  2
CENTRE ASSIGNMENTS    2  2  2  2  2  2  2  2  2  2  2  2  2  2  2  2  2  2  2  2
CENTRE ASSIGNMENTS    2  2  2  2  2  2  2  2  2  2  2  2  2  2  2  2  2  2  2  2
CENTRE ASSIGNMENTS    2  2  2  2  2  2  2  2  2  2  2  2  2  2  2  2  2  2  2  2
CENTRE ASSIGNMENTS    2  2  2  2  2  2  2  2  2  2  2  2  2  2  2  2  2  2  2  2
CENTRE ASSIGNMENTS    2  2  2  2  2  2  2  2  2  2  2  2  2  2  2  2  2  2  2  2
CENTRE ASSIGNMENTS    2  2  2  2  2  2  2  2  2  2  2  2  2  2  2  2  2  2  2  2
CENTRE ASSIGNMENTS    2  2  2  2  2  2  2  2  2  2  2  2  2  2  2  2  2  2
TYPE ASSIGNMENTS      1  1  1  1  1  1  1  1  1  1  1  1  1  1  1  1  1  1  1  2
TYPE ASSIGNMENTS      2  2  3  3  3  4  4  4  2  3  4  2  3  4  2  3  4  5  6  7
TYPE ASSIGNMENTS      8  9 10  5  6  7  8  9 10  5  6  7  8  9 10 11 12 13 17 14
TYPE ASSIGNMENTS     15 18 19 16 20 11 12 13 17 14 15 18 19 16 20  1  1  1  1  1
TYPE ASSIGNMENTS      1  1  1  1  1  1  1  1  1  1  1  1  1  1  1  1  1  1  1  1
TYPE ASSIGNMENTS      1  1  1  1  1  1  1  1  1  1  1  1  1  1  1  1  1  1  1  1
TYPE ASSIGNMENTS      1  1  1  1  1  1  1  1  1  1  1  1  1  1  1  1  1  1  1  1
TYPE ASSIGNMENTS      1  1  1  1  1  1  1  1  1  1  2  2  2  2  2  2  2  2  2  2
TYPE ASSIGNMENTS      2  3  3  3  3  3  3  3  3  3  3  3  4  4  4  4  4  4  4  4
TYPE ASSIGNMENTS      4  4  4  2  2  2  2  2  2  2  2  2  2  2  3  3  3  3  3  3
TYPE ASSIGNMENTS      3  3  3  3  3  4  4  4  4  4  4  4  4  4  4  4  2  2  2  2
TYPE ASSIGNMENTS      2  2  2  2  2  2  2  3  3  3  3  3  3  3  3  3  3  3  4  4
TYPE ASSIGNMENTS      4  4  4  4  4  4  4  4  4  2  3  4  2  3  4  2  3  4  5  5
TYPE ASSIGNMENTS      5  5  5  5  5  6  6  6  6  6  6  6  7  7  7  7  7  7  7  8
TYPE ASSIGNMENTS      8  8  8  8  8  8  9  9  9  9  9  9  9 10 10 10 10 10 10 10
TYPE ASSIGNMENTS      5  6  7  8  9 10  5  6  7  8  9 10  5  6  7  8  9 10 11 12
TYPE ASSIGNMENTS     13 17 14 15 18 19 16 20 11 12 13 17 14 15 18 19 16 20
EXPONENTS  0.5473000D+04 0.8209000D+03 0.1868000D+03 0.5283000D+02 0.1708000D+02
EXPONENTS  0.5999000D+01 0.2208000D+01 0.2415000D+00 0.5473000D+04 0.8209000D+03
EXPONENTS  0.1868000D+03 0.5283000D+02 0.1708000D+02 0.5999000D+01 0.2208000D+01
EXPONENTS  0.2415000D+00 0.5879000D+00 0.8610000D-01 0.2914000D-01 0.1205000D+02
EXPONENTS  0.2613000D+01 0.7475000D+00 0.1205000D+02 0.2613000D+01 0.7475000D+00
EXPONENTS  0.1205000D+02 0.2613000D+01 0.7475000D+00 0.2385000D+00 0.2385000D+00
EXPONENTS  0.2385000D+00 0.7698000D-01 0.7698000D-01 0.7698000D-01 0.2096000D-01
EXPONENTS  0.2096000D-01 0.2096000D-01 0.6610000D+00 0.6610000D+00 0.6610000D+00
EXPONENTS  0.6610000D+00 0.6610000D+00 0.6610000D+00 0.1990000D+00 0.1990000D+00
EXPONENTS  0.1990000D+00 0.1990000D+00 0.1990000D+00 0.1990000D+00 0.6040000D-01
EXPONENTS  0.6040000D-01 0.6040000D-01 0.6040000D-01 0.6040000D-01 0.6040000D-01
EXPONENTS  0.4900000D+00 0.4900000D+00 0.4900000D+00 0.4900000D+00 0.4900000D+00
EXPONENTS  0.4900000D+00 0.4900000D+00 0.4900000D+00 0.4900000D+00 0.4900000D+00
EXPONENTS  0.1630000D+00 0.1630000D+00 0.1630000D+00 0.1630000D+00 0.1630000D+00
EXPONENTS  0.1630000D+00 0.1630000D+00 0.1630000D+00 0.1630000D+00 0.1630000D+00
EXPONENTS  0.1063900D+08 0.1593400D+07 0.3626100D+06 0.1027000D+06 0.3350100D+05
EXPONENTS  0.1209300D+05 0.4715900D+04 0.1955600D+04 0.8526100D+03 0.3876700D+03
EXPONENTS  0.1826800D+03 0.8824500D+02 0.3926300D+02 0.1923400D+02 0.9405700D+01
EXPONENTS  0.4160100D+01 0.1899500D+01 0.3011400D+00 0.1063900D+08 0.1593400D+07
EXPONENTS  0.3626100D+06 0.1027000D+06 0.3350100D+05 0.1209300D+05 0.4715900D+04
EXPONENTS  0.1955600D+04 0.8526100D+03 0.3876700D+03 0.1826800D+03 0.8824500D+02
EXPONENTS  0.3926300D+02 0.1923400D+02 0.9405700D+01 0.4160100D+01 0.1899500D+01
EXPONENTS  0.3011400D+00 0.1063900D+08 0.1593400D+07 0.3626100D+06 0.1027000D+06
EXPONENTS  0.3350100D+05 0.1209300D+05 0.4715900D+04 0.1955600D+04 0.8526100D+03
EXPONENTS  0.3876700D+03 0.1826800D+03 0.8824500D+02 0.3926300D+02 0.1923400D+02
EXPONENTS  0.9405700D+01 0.4160100D+01 0.1899500D+01 0.3011400D+00 0.1063900D+08
EXPONENTS  0.1593400D+07 0.3626100D+06 0.1027000D+06 0.3350100D+05 0.1209300D+05
EXPONENTS  0.4715900D+04 0.1955600D+04 0.8526100D+03 0.3876700D+03 0.1826800D+03
EXPONENTS  0.8824500D+02 0.3926300D+02 0.1923400D+02 0.9405700D+01 0.4160100D+01
EXPONENTS  0.1899500D+01 0.3011400D+00 0.6047200D+00 0.1251500D+00 0.4559300D-01
EXPONENTS  0.8676500D+04 0.2055900D+04 0.6662300D+03 0.2531000D+03 0.1061200D+03
EXPONENTS  0.4724200D+02 0.2182500D+02 0.9968400D+01 0.4517100D+01 0.1998200D+01
EXPONENTS  0.2814500D+00 0.8676500D+04 0.2055900D+04 0.6662300D+03 0.2531000D+03
EXPONENTS  0.1061200D+03 0.4724200D+02 0.2182500D+02 0.9968400D+01 0.4517100D+01
EXPONENTS  0.1998200D+01 0.2814500D+00 0.8676500D+04 0.2055900D+04 0.6662300D+03
EXPONENTS  0.2531000D+03 0.1061200D+03 0.4724200D+02 0.2182500D+02 0.9968400D+01
EXPONENTS  0.4517100D+01 0.1998200D+01 0.2814500D+00 0.8676500D+04 0.2055900D+04
EXPONENTS  0.6662300D+03 0.2531000D+03 0.1061200D+03 0.4724200D+02 0.2182500D+02
EXPONENTS  0.9968400D+01 0.4517100D+01 0.1998200D+01 0.2814500D+00 0.8676500D+04
EXPONENTS  0.2055900D+04 0.6662300D+03 0.2531000D+03 0.1061200D+03 0.4724200D+02
EXPONENTS  0.2182500D+02 0.9968400D+01 0.4517100D+01 0.1998200D+01 0.2814500D+00
EXPONENTS  0.8676500D+04 0.2055900D+04 0.6662300D+03 0.2531000D+03 0.1061200D+03
EXPONENTS  0.4724200D+02 0.2182500D+02 0.9968400D+01 0.4517100D+01 0.1998200D+01
EXPONENTS  0.2814500D+00 0.8676500D+04 0.2055900D+04 0.6662300D+03 0.2531000D+03
EXPONENTS  0.1061200D+03 0.4724200D+02 0.2182500D+02 0.9968400D+01 0.4517100D+01
EXPONENTS  0.1998200D+01 0.2814500D+00 0.8676500D+04 0.2055900D+04 0.6662300D+03
EXPONENTS  0.2531000D+03 0.1061200D+03 0.4724200D+02 0.2182500D+02 0.9968400D+01
EXPONENTS  0.4517100D+01 0.1998200D+01 0.2814500D+00 0.8676500D+04 0.2055900D+04
EXPONENTS  0.6662300D+03 0.2531000D+03 0.1061200D+03 0.4724200D+02 0.2182500D+02
EXPONENTS  0.9968400D+01 0.4517100D+01 0.1998200D+01 0.2814500D+00 0.7098800D+00
EXPONENTS  0.7098800D+00 0.7098800D+00 0.1020400D+00 0.1020400D+00 0.1020400D+00
EXPONENTS  0.3514200D-01 0.3514200D-01 0.3514200D-01 0.4038300D+03 0.1211700D+03
EXPONENTS  0.4634500D+02 0.1972100D+02 0.8862400D+01 0.3996200D+01 0.1763600D+01
EXPONENTS  0.4038300D+03 0.1211700D+03 0.4634500D+02 0.1972100D+02 0.8862400D+01
EXPONENTS  0.3996200D+01 0.1763600D+01 0.4038300D+03 0.1211700D+03 0.4634500D+02
EXPONENTS  0.1972100D+02 0.8862400D+01 0.3996200D+01 0.1763600D+01 0.4038300D+03
EXPONENTS  0.1211700D+03 0.4634500D+02 0.1972100D+02 0.8862400D+01 0.3996200D+01
EXPONENTS  0.1763600D+01 0.4038300D+03 0.1211700D+03 0.4634500D+02 0.1972100D+02
EXPONENTS  0.8862400D+01 0.3996200D+01 0.1763600D+01 0.4038300D+03 0.1211700D+03
EXPONENTS  0.4634500D+02 0.1972100D+02 0.8862400D+01 0.3996200D+01 0.1763600D+01
EXPONENTS  0.7061900D+00 0.7061900D+00 0.7061900D+00 0.7061900D+00 0.7061900D+00
EXPONENTS  0.7061900D+00 0.2639000D+00 0.2639000D+00 0.2639000D+00 0.2639000D+00
EXPONENTS  0.2639000D+00 0.2639000D+00 0.1047000D+00 0.1047000D+00 0.1047000D+00
EXPONENTS  0.1047000D+00 0.1047000D+00 0.1047000D+00 0.5515000D+00 0.5515000D+00
EXPONENTS  0.5515000D+00 0.5515000D+00 0.5515000D+00 0.5515000D+00 0.5515000D+00
EXPONENTS  0.5515000D+00 0.5515000D+00 0.5515000D+00 0.2580000D+00 0.2580000D+00
EXPONENTS  0.2580000D+00 0.2580000D+00 0.2580000D+00 0.2580000D+00 0.2580000D+00
EXPONENTS  0.2580000D+00 0.2580000D+00 0.2580000D+00
MO    1     MO 0.0        OCC NO =    2.0000000  ORB. ENERGY = -484.229855
 -0.25920161D-05 -0.48300523D-05 -0.81399741D-05 -0.12144775D-04 -0.14710712D-04
 -0.12240408D-04 -0.45461514D-05  0.24134562D-07  0.21210211D-05  0.39618250D-05
  0.67430461D-05  0.10312745D-04  0.13412337D-04  0.13576325D-04  0.89393216D-05
 -0.61105196D-05 -0.13639111D-04 -0.51709606D-04 -0.44680867D-05 -0.41811080D-19
 -0.37682460D-19 -0.27359910D-19  0.20044873D-20  0.18065549D-20  0.13116760D-20
 -0.10313646D-04 -0.92952284D-05 -0.67489386D-05  0.36078188D-20 -0.22812366D-20
 -0.38024257D-05  0.93843653D-21  0.11319136D-21 -0.11370280D-04  0.16765588D-22
 -0.28814571D-22 -0.13603889D-06 -0.20055529D-05 -0.20055529D-05  0.40111059D-05
  0.21744471D-21 -0.74824438D-20 -0.54546143D-22 -0.26322756D-05 -0.26322756D-05
  0.52645512D-05 -0.24476298D-21  0.54052272D-20 -0.22110508D-20  0.14190155D-06
  0.14190155D-06 -0.28380311D-06  0.53731241D-22  0.49661385D-22  0.78017287D-22
 -0.14008459D-20  0.46052504D-21  0.47258789D-05 -0.13957858D-20  0.44852666D-21
 -0.70888184D-05  0.55983235D-20 -0.18301018D-20 -0.70888184D-05 -0.62798270D-21
 -0.33166355D-21  0.99985140D-22  0.11356018D-05 -0.33011666D-21  0.98260427D-22
 -0.17034027D-05  0.13251073D-20 -0.39821585D-21 -0.17034027D-05 -0.71477812D-22
  0.78328902D+00  0.14734621D+01  0.25506355D+01  0.41809795D+01  0.65495854D+01
  0.98445847D+01  0.14070384D+02  0.18678785D+02  0.21753982D+02  0.19980822D+02
  0.11683573D+02  0.30658279D+01  0.16760761D+00 -0.59990033D-02  0.16765321D-02
 -0.49781895D-03  0.84869513D-04  0.69241849D-05  0.42070840D-04  0.77297168D-04
  0.13366462D-03  0.21889449D-03  0.34463954D-03  0.52043948D-03  0.75968271D-03
  0.10461292D-02  0.13366731D-02  0.14571303D-02  0.11994426D-02  0.32887901D-03
 -0.66337030D-03 -0.64648333D-03 -0.14146877D-03 -0.47659525D-05 -0.16145524D-06
  0.41072131D-09 -0.82393605D-04 -0.16152447D-03 -0.28290610D-03 -0.46217652D-03
 -0.72896369D-03 -0.10999737D-02 -0.16127799D-02 -0.22267095D-02 -0.28869399D-02
 -0.32104470D-02 -0.27884709D-02 -0.81000092D-03  0.20420025D-02  0.29753415D-02
  0.51221568D-03 -0.12495869D-02 -0.59477188D-03  0.28723351D-05  0.28984680D-04
  0.62802801D-04  0.10691181D-03  0.17450886D-03  0.27509610D-03  0.41519947D-03
  0.60875009D-03  0.84155378D-03  0.10922524D-02  0.12202369D-02  0.10659046D-02
  0.31572197D-03 -0.82069576D-03 -0.12625075D-02 -0.22097736D-03  0.69706088D-03
  0.59169927D-03 -0.22075771D-03  0.20486376D-03  0.86536595D-04  0.18419877D-04
 -0.64841840D-16 -0.93036560D-16 -0.12318535D-15 -0.14224418D-15 -0.13186690D-15
 -0.85373034D-16 -0.30133546D-16 -0.35319114D-17 -0.51347454D-19 -0.75192631D-20
 -0.77309703D-22 -0.27288866D-16 -0.39154690D-16 -0.51842892D-16 -0.59863852D-16
 -0.55496544D-16 -0.35929474D-16 -0.12681785D-16 -0.14864146D-17 -0.21609717D-19
 -0.31645024D-20 -0.32536000D-22  0.38154606D-03  0.54745104D-03  0.72485428D-03
  0.83700132D-03  0.77593873D-03  0.50235688D-03  0.17731353D-03  0.20782675D-04
  0.30214162D-06  0.44245278D-07  0.45491017D-09 -0.82203093D-17 -0.11866111D-16
 -0.15852841D-16 -0.18833661D-16 -0.18251261D-16 -0.12686955D-16 -0.41282133D-17
  0.18580236D-17  0.20072854D-17  0.51676948D-18 -0.50406091D-21 -0.40386791D-17
 -0.58298797D-17 -0.77885799D-17 -0.92530718D-17 -0.89669359D-17 -0.62331643D-17
 -0.20282119D-17  0.91285629D-18  0.98618935D-18  0.25389143D-18 -0.24764765D-21
 -0.18402564D-02 -0.26564312D-02 -0.35489286D-02 -0.42162361D-02 -0.40858559D-02
 -0.28401911D-02 -0.92417093D-03  0.41595026D-03  0.44936505D-03  0.11568766D-03
 -0.11284263D-06  0.52055000D-18  0.75638225D-18  0.10056190D-17  0.12066732D-17
  0.11674616D-17  0.82876181D-18  0.25758125D-18 -0.14788691D-18 -0.16988923D-18
 -0.45115577D-19  0.16277841D-19  0.77198993D-18  0.11217356D-17  0.14913605D-17
  0.17895294D-17  0.17313776D-17  0.12290765D-17  0.38200006D-18 -0.21932034D-18
 -0.25195038D-18 -0.66907638D-19  0.24140485D-19  0.13321526D-02  0.19356768D-02
  0.25735048D-02  0.30880276D-02  0.29876804D-02  0.21209052D-02  0.65918266D-03
 -0.37846110D-03 -0.43476779D-03 -0.11545641D-03  0.41657032D-04 -0.16652699D-18
 -0.90089007D-19 -0.24286203D-04 -0.12811276D-20 -0.24078070D-20 -0.32729900D-04
 -0.13946958D-21  0.20121727D-21 -0.84916625D-06 -0.12024138D-03 -0.12581965D-03
 -0.10720508D-03 -0.70602647D-04 -0.32538658D-04 -0.97437538D-05 -0.16578171D-05
 -0.12024138D-03 -0.12581965D-03 -0.10720508D-03 -0.70602647D-04 -0.32538658D-04
 -0.97437538D-05 -0.16578171D-05  0.24048276D-03  0.25163930D-03  0.21441015D-03
  0.14120529D-03  0.65077316D-04  0.19487508D-04  0.33156342D-05  0.97878532D-17
  0.10241934D-16  0.87266757D-17  0.57471757D-17  0.26487022D-17  0.79315815D-18
  0.13494913D-18 -0.41711827D-17 -0.43646932D-17 -0.37189522D-17 -0.24492112D-17
 -0.11287685D-17 -0.33801156D-18 -0.57509802D-19  0.13102919D-17  0.13710793D-17
  0.11682330D-17  0.76936973D-18  0.35457960D-18  0.10617944D-18  0.18065531D-19
  0.64554307D-05  0.64554307D-05 -0.12910861D-04 -0.54152030D-19  0.11911479D-19
  0.11265255D-21  0.16513700D-06  0.16513700D-06 -0.33027401D-06  0.66529581D-20
  0.51158159D-20 -0.31349887D-20 -0.21910157D-05 -0.21910157D-05  0.43820314D-05
 -0.55949315D-21  0.33636287D-21  0.37487785D-22  0.10081046D-20  0.47590078D-21
  0.85834134D-05  0.96696310D-21  0.47663125D-21 -0.12875120D-04 -0.39912769D-20
 -0.19043336D-20 -0.12875120D-04 -0.23326047D-20  0.27730834D-21 -0.28895806D-21
 -0.29096517D-05  0.28495314D-21 -0.29688434D-21  0.43644776D-05 -0.11168782D-20
  0.11637585D-20  0.43644776D-05  0.14662672D-21
MO    2     MO 0.0        OCC NO =    2.0000000  ORB. ENERGY =  -63.088597
  0.35944749D-04  0.66980685D-04  0.11288098D-03  0.16841750D-03  0.20400060D-03
  0.16974370D-03  0.63043692D-04 -0.33468571D-06 -0.29012880D-04 -0.54192745D-04
 -0.92236326D-04 -0.14106528D-03 -0.18346377D-03 -0.18570692D-03 -0.12227859D-03
  0.83584164D-04  0.17807221D-03  0.70647835D-03  0.60225149D-04 -0.37081282D-18
 -0.33419705D-18 -0.24264873D-18  0.33824880D-16  0.30484854D-16  0.22133981D-16
  0.12682724D-03  0.11430373D-03  0.82991923D-04  0.39417480D-18  0.51010933D-18
  0.58954699D-04  0.10526590D-19  0.24220774D-19  0.15652851D-03  0.47805406D-20
  0.32568391D-20  0.17996251D-05  0.25710967D-04  0.25710967D-04 -0.51421934D-04
  0.64040794D-19  0.10521518D-19 -0.14479797D-18  0.34257925D-04  0.34257925D-04
 -0.68515850D-04 -0.42939321D-19  0.43346520D-18  0.47443980D-18 -0.20006735D-05
 -0.20006735D-05  0.40013469D-05  0.72786658D-20 -0.85527184D-20 -0.50260611D-20
 -0.97965163D-19 -0.10604848D-18 -0.60126273D-04 -0.98308363D-19 -0.10655223D-18
  0.90189410D-04  0.39220385D-18  0.42469767D-18  0.90189410D-04 -0.58951982D-19
 -0.20290857D-19 -0.23672741D-19 -0.15229773D-04 -0.20222939D-19 -0.23711186D-19
  0.22844660D-04  0.81095509D-19  0.94729409D-19  0.22844660D-04 -0.17842098D-19
  0.33104220D-03  0.62273071D-03  0.10779776D-02  0.17670115D-02  0.27680577D-02
  0.41606264D-02  0.59465803D-02  0.78942332D-02  0.91939067D-02  0.84445144D-02
  0.49378397D-02  0.12957138D-02  0.70836170D-04 -0.25353646D-05  0.70855440D-06
 -0.21039371D-06  0.35868485D-07  0.29263750D-08 -0.25306937D+00 -0.46496684D+00
 -0.80403483D+00 -0.13167194D+01 -0.20731155D+01 -0.31306076D+01 -0.45697310D+01
 -0.62927972D+01 -0.80405102D+01 -0.87650982D+01 -0.72150255D+01 -0.19783110D+01
  0.39903816D+01  0.38888011D+01  0.85097924D+00  0.28668707D-01  0.97120419D-03
 -0.24706182D-05  0.10614728D-02  0.20809118D-02  0.36446655D-02  0.59541975D-02
  0.93912035D-02  0.14170907D-01  0.20777365D-01  0.28686589D-01  0.37192305D-01
  0.41360032D-01  0.35923734D-01  0.10435202D-01 -0.26307018D-01 -0.38331179D-01
 -0.65988496D-02  0.16098367D-01  0.76624171D-02 -0.37004152D-04 -0.39330393D-03
 -0.85219464D-03 -0.14507262D-02 -0.23679759D-02 -0.37328816D-02 -0.56339965D-02
 -0.82603571D-02 -0.11419357D-01 -0.14821180D-01 -0.16557850D-01 -0.14463657D-01
 -0.42841492D-02  0.11136327D-01  0.17131435D-01  0.29985243D-02 -0.94586790D-02
 -0.80289881D-02  0.29955437D-02 -0.31001041D-02 -0.11989988D-02 -0.24728222D-03
 -0.23813195D-13 -0.34167719D-13 -0.45239876D-13 -0.52239239D-13 -0.48428178D-13
 -0.31353285D-13 -0.11066558D-13 -0.12970961D-14 -0.18857376D-16 -0.27614528D-17
 -0.28392023D-19 -0.90676823D-14 -0.13010519D-13 -0.17226618D-13 -0.19891863D-13
 -0.18440672D-13 -0.11938828D-13 -0.42139677D-14 -0.49391335D-15 -0.71805859D-17
 -0.10515169D-17 -0.10811226D-19 -0.71857150D-02 -0.10310229D-01 -0.13651291D-01
 -0.15763373D-01 -0.14613372D-01 -0.94609637D-02 -0.33393727D-02 -0.39140328D-03
 -0.56902792D-05 -0.83327805D-06 -0.85673925D-08  0.59748751D-15  0.86248009D-15
  0.11522528D-14  0.13689117D-14  0.13265803D-14  0.92214255D-15  0.30005634D-15
 -0.13504916D-15 -0.14589815D-15 -0.37561033D-16  0.36637320D-19  0.24624339D-15
  0.35545516D-15  0.47487960D-15  0.56417154D-15  0.54672546D-15  0.38004394D-15
  0.12366265D-15 -0.55658007D-16 -0.60129217D-16 -0.15480083D-16  0.15099391D-19
  0.24108869D-01  0.34801430D-01  0.46493878D-01  0.55236154D-01  0.53528067D-01
  0.37208835D-01  0.12107398D-01 -0.54492899D-02 -0.58870511D-02 -0.15156033D-02
  0.14783311D-05 -0.11925354D-15 -0.17328068D-15 -0.23037868D-15 -0.27643847D-15
 -0.26745544D-15 -0.18986222D-15 -0.59009655D-16  0.33879622D-16  0.38920164D-16
  0.10335592D-16 -0.37291137D-17 -0.81481585D-16 -0.11839636D-15 -0.15740933D-15
 -0.18888030D-15 -0.18274252D-15 -0.12972591D-15 -0.40319140D-16  0.23148707D-16
  0.26592725D-16  0.70619320D-17 -0.25479671D-17 -0.17563218D-01 -0.25520135D-01
 -0.33929315D-01 -0.40712829D-01 -0.39389842D-01 -0.27962202D-01 -0.86907226D-02
  0.49896647D-02  0.57320170D-02  0.15221875D-02 -0.54921000D-03  0.13922849D-16
  0.70371220D-17  0.31495603D-03  0.35549630D-18  0.21402260D-18  0.44331014D-03
 -0.34879528D-19 -0.25910377D-19  0.11395224D-04  0.10948451D-02  0.11456374D-02
  0.97614439D-03  0.64286488D-03  0.29627728D-03  0.88720712D-04  0.15095077D-04
  0.10948451D-02  0.11456374D-02  0.97614439D-03  0.64286488D-03  0.29627728D-03
  0.88720712D-04  0.15095077D-04 -0.21896902D-02 -0.22912748D-02 -0.19522888D-02
 -0.12857298D-02 -0.59255457D-03 -0.17744142D-03 -0.30190154D-04  0.16870756D-14
  0.17653428D-14  0.15041666D-14  0.99060740D-15  0.45654146D-15  0.13671208D-15
  0.23260401D-16 -0.22926990D-15 -0.23990625D-15 -0.20441296D-15 -0.13462139D-15
 -0.62042990D-16 -0.18578874D-16 -0.31610379D-17 -0.98319681D-16 -0.10288095D-15
 -0.87660078D-16 -0.57730788D-16 -0.26606402D-16 -0.79673300D-17 -0.13555737D-17
 -0.82132910D-04 -0.82132910D-04  0.16426582D-03 -0.81232223D-17  0.26345081D-18
 -0.32498100D-18 -0.16391723D-05 -0.16391723D-05  0.32783446D-05  0.97470518D-18
  0.52912310D-18  0.64810309D-18  0.29535047D-04  0.29535047D-04 -0.59070094D-04
 -0.78819723D-19  0.10517888D-19  0.11839467D-19  0.13697090D-19  0.29355500D-19
 -0.11205689D-03  0.24333948D-19  0.32507038D-19  0.16808534D-03 -0.65425217D-19
 -0.12057354D-18  0.16808534D-03  0.10746957D-18  0.47588029D-19  0.44255155D-19
  0.38716306D-04  0.46837730D-19  0.44033239D-19 -0.58074459D-04 -0.18960182D-18
 -0.17679870D-18 -0.58074459D-04 -0.38343582D-19
MO    3     MO 0.0        OCC NO =    2.0000000  ORB. ENERGY =  -56.748095
  0.12979480D-03  0.24186412D-03  0.40760793D-03  0.60814769D-03  0.73663661D-03
  0.61293654D-03  0.22764782D-03 -0.12085344D-05 -0.86335545D-04 -0.16126493D-03
 -0.27447373D-03 -0.41977728D-03 -0.54594526D-03 -0.55262036D-03 -0.36387248D-03
  0.24872692D-03 -0.15141245D-03  0.28448954D-03  0.16559929D-04 -0.11610201D-15
 -0.10463756D-15 -0.75973655D-16  0.42122955D-15  0.37963540D-15  0.27563992D-15
 -0.14535406D-03 -0.13100113D-03 -0.95115314D-04  0.12834448D-16 -0.79896745D-17
  0.41311997D-03  0.55766257D-18 -0.44735920D-18  0.94488530D-04  0.13958864D-18
 -0.74260221D-19  0.55270272D-06 -0.57384926D-04 -0.57384926D-04  0.11476985D-03
 -0.83794952D-19 -0.12543264D-17  0.12463685D-17 -0.51207314D-04 -0.51207314D-04
  0.10241463D-03 -0.18161941D-19  0.13113720D-16 -0.88737272D-17 -0.26177343D-05
 -0.26177343D-05  0.52354687D-05 -0.46231277D-21 -0.18812561D-18  0.10904551D-18
 -0.26309357D-17  0.15482484D-17  0.21699595D-04 -0.26302039D-17  0.15488369D-17
 -0.32549393D-04  0.10523011D-16 -0.61935822D-17 -0.32549393D-04 -0.46302665D-19
 -0.64432349D-18  0.43717632D-18  0.73843827D-05 -0.64435460D-18  0.43731861D-18
 -0.11076574D-04  0.25773251D-17 -0.17488476D-17 -0.11076574D-04 -0.11636003D-20
 -0.70372677D-05 -0.13237958D-04 -0.22915558D-04 -0.37562983D-04 -0.58843141D-04
 -0.88446252D-04 -0.12641191D-03 -0.16781495D-03 -0.19544331D-03 -0.17951279D-03
 -0.10496819D-03 -0.27544177D-04 -0.15058294D-05  0.53896571D-07 -0.15062391D-07
  0.44725321D-08 -0.76248928D-09 -0.62208638D-10  0.10488007D-04  0.19269719D-04
  0.33321785D-04  0.54569080D-04  0.85916565D-04  0.12974243D-03  0.18938433D-03
  0.26079372D-03  0.33322456D-03  0.36325381D-03  0.29901382D-03  0.81987560D-04
 -0.16537422D-03 -0.16116440D-03 -0.35267312D-04 -0.11881233D-05 -0.40249820D-07
  0.10239035D-09 -0.18816389D-04 -0.36887660D-04 -0.64607822D-04 -0.10554816D-03
 -0.16647487D-03 -0.25120314D-03 -0.36831372D-03 -0.50851801D-03 -0.65929612D-03
 -0.73317609D-03 -0.63680857D-03 -0.18498150D-03  0.46633612D-03  0.67948458D-03
  0.11697570D-03 -0.28537062D-03 -0.13582922D-03  0.65596079D-06  0.64060237D-05
  0.13880306D-04  0.23629020D-04  0.38568924D-04  0.60800125D-04  0.91764949D-04
  0.13454237D-03  0.18599528D-03  0.24140321D-03  0.26968960D-03  0.23557997D-03
  0.69779016D-04 -0.18138536D-03 -0.27903199D-03 -0.48839119D-04  0.15406030D-03
  0.13077390D-03 -0.48790572D-04  0.20117242D-03 -0.55820731D-03 -0.35261542D-04
 -0.15697774D-10 -0.22523526D-10 -0.29822346D-10 -0.34436361D-10 -0.31924090D-10
 -0.20668238D-10 -0.72951290D-11 -0.85505203D-12 -0.12430874D-13 -0.18203631D-14
 -0.18716160D-16  0.95176381D-11  0.13656126D-10  0.18081436D-10  0.20878936D-10
  0.19355734D-10  0.12531255D-10  0.44230728D-11  0.51842228D-12  0.75369004D-14
  0.11036952D-14  0.11347700D-16  0.52017323D+02  0.74635648D+02  0.98821566D+02
  0.11411091D+03  0.10578606D+03  0.68487826D+02  0.24173687D+02  0.28333646D+01
  0.41191877D-01  0.60320919D-02  0.62019272D-04  0.32560741D-14  0.47001804D-14
  0.62793286D-14  0.74600350D-14  0.72293458D-14  0.50253175D-14  0.16351901D-14
 -0.73596531D-15 -0.79508808D-15 -0.20469299D-15  0.19965911D-18 -0.20239326D-14
 -0.29215700D-14 -0.39031477D-14 -0.46370592D-14 -0.44936658D-14 -0.31236709D-14
 -0.10164126D-14  0.45746631D-15  0.49421624D-15  0.12723446D-15 -0.12410547D-18
 -0.31526625D-01 -0.45509046D-01 -0.60798997D-01 -0.72231074D-01 -0.69997448D-01
 -0.48657155D-01 -0.15832572D-01  0.71259136D-02  0.76983641D-02  0.19819203D-02
 -0.19331802D-05 -0.28581265D-14 -0.41529846D-14 -0.55214412D-14 -0.66253472D-14
 -0.64100527D-14 -0.45503911D-14 -0.14142730D-14  0.81198633D-15  0.93279204D-15
  0.24771112D-15 -0.89374946D-16  0.17661847D-14  0.25663447D-14  0.34119850D-14
  0.40941458D-14  0.39611042D-14  0.28119228D-14  0.87395266D-15 -0.50176849D-15
 -0.57642060D-15 -0.15307356D-15  0.55229417D-16  0.23957526D-01  0.34811349D-01
  0.46282092D-01  0.55535306D-01  0.53730654D-01  0.38142508D-01  0.11854787D-01
 -0.68062711D-02 -0.78188946D-02 -0.20763762D-02  0.74916300D-03  0.43244418D-15
 -0.26320911D-15 -0.18452359D-02  0.97209446D-17 -0.55632463D-17  0.60499988D-04
 -0.10172304D-17  0.58303432D-18  0.51324086D-06  0.48385365D-03  0.50630071D-03
  0.43139531D-03  0.28410642D-03  0.13093619D-03  0.39209055D-04  0.66710882D-05
  0.48385365D-03  0.50630071D-03  0.43139531D-03  0.28410642D-03  0.13093619D-03
  0.39209055D-04  0.66710882D-05 -0.96770731D-03 -0.10126014D-02 -0.86279061D-03
 -0.56821285D-03 -0.26187238D-03 -0.78418109D-04 -0.13342176D-04 -0.11714964D-15
 -0.12258447D-15 -0.10444853D-15 -0.68787256D-16 -0.31701998D-16 -0.94932147D-17
 -0.16151900D-17 -0.44867607D-14 -0.46949116D-14 -0.40003160D-14 -0.26345105D-14
 -0.12141675D-14 -0.36358441D-15 -0.61860805D-16 -0.22371138D-14 -0.23408986D-14
 -0.19945709D-14 -0.13135757D-14 -0.60538794D-15 -0.18128440D-15 -0.30844003D-16
 -0.63386541D-04 -0.63386541D-04  0.12677308D-03 -0.21364299D-18 -0.56616480D-17
  0.27114249D-16  0.86520170D-04  0.86520170D-04 -0.17304034D-03  0.70429004D-19
  0.17960966D-16 -0.14646962D-16 -0.98543945D-06 -0.98543945D-06  0.19708789D-05
  0.35665500D-20  0.26357826D-18  0.27145958D-19  0.27074183D-19  0.13038960D-18
  0.38660210D-04  0.31253845D-19  0.15370997D-18 -0.57990314D-04 -0.11247639D-18
 -0.54487878D-18 -0.57990314D-04  0.50989178D-18  0.14150475D-17 -0.95267201D-18
  0.17472739D-04  0.14146119D-17 -0.95609947D-18 -0.26209109D-04 -0.56597543D-17
  0.38141155D-17 -0.26209109D-04 -0.74740657D-19
MO    4     MO 0.0        OCC NO =    2.0000000  ORB. ENERGY =  -56.747514
 -0.38284079D-16 -0.71339874D-16 -0.12022742D-15 -0.17937832D-15 -0.21727722D-15
 -0.18079084D-15 -0.67146656D-16  0.35646748D-18  0.24484149D-16  0.45733593D-16
  0.77838806D-16  0.11904586D-15  0.15482621D-15  0.15671922D-15  0.10319166D-15
 -0.70537193D-16 -0.93645495D-16  0.11766638D-14  0.11932846D-15  0.41866810D-04
  0.37732687D-04  0.27396378D-04 -0.25527822D-04 -0.23007087D-04 -0.16704637D-04
 -0.13693756D-15 -0.12341571D-15 -0.89607809D-16 -0.38548417D-04  0.23504469D-04
  0.56494641D-15 -0.17572678D-05  0.10714745D-05  0.51206851D-15 -0.35869525D-06
  0.21871045D-06  0.10521171D-16 -0.22786208D-15 -0.22776143D-15  0.45562351D-15
 -0.23916906D-16  0.42556713D-05 -0.25948483D-05 -0.98854480D-16 -0.98961955D-16
  0.19781644D-15 -0.32709025D-19 -0.39798833D-04  0.24266896D-04 -0.23058897D-16
 -0.23040939D-16  0.46099836D-16  0.32816795D-20  0.51397914D-06 -0.31339308D-06
  0.74431445D-05 -0.45383747D-05 -0.14185143D-15  0.74431525D-05 -0.45383796D-05
  0.21284674D-15 -0.29772586D-04  0.18153504D-04  0.21270755D-15 -0.84925090D-19
  0.19501038D-05 -0.11890541D-05  0.81095249D-16  0.19501387D-05 -0.11890754D-05
 -0.12161901D-15 -0.78004500D-05  0.47562378D-05 -0.12166674D-15 -0.12298630D-19
 -0.79748981D-17 -0.15001755D-16 -0.25968777D-16 -0.42567794D-16 -0.66683274D-16
 -0.10023064D-15 -0.14325476D-15 -0.19017426D-15 -0.22148375D-15 -0.20343068D-15
 -0.11895392D-15 -0.31214104D-16 -0.17064629D-17  0.61077633D-19 -0.17069271D-19
  0.50684426D-20 -0.86408171D-21 -0.70497182D-22 -0.51837959D-16 -0.95242393D-16
 -0.16469605D-15 -0.26971280D-15 -0.42465068D-15 -0.64126413D-15 -0.93604980D-15
 -0.12889974D-14 -0.16469936D-14 -0.17954160D-14 -0.14779039D-14 -0.40523120D-15
  0.81737761D-15  0.79657018D-15  0.17431200D-15  0.58724107D-17  0.19893851D-18
 -0.50607391D-21 -0.25258070D-16 -0.49515934D-16 -0.86725931D-16 -0.14168195D-15
 -0.22346656D-15 -0.33720106D-15 -0.49440376D-15 -0.68260617D-15 -0.88500228D-15
 -0.98417462D-15 -0.85481625D-15 -0.24830883D-15  0.62598355D-15  0.91210214D-15
  0.15702164D-15 -0.38306558D-15 -0.18232956D-15  0.88052512D-18  0.86914682D-17
  0.18832313D-16  0.32059026D-16  0.52328964D-16  0.82491477D-16  0.12450346D-15
  0.18254237D-15  0.25235187D-15  0.32752741D-15  0.36590539D-15  0.31962664D-15
  0.94673722D-16 -0.24609729D-15 -0.37858082D-15 -0.66263204D-16  0.20902361D-15
  0.17742944D-15 -0.66197337D-16  0.14342449D-15 -0.19788802D-14 -0.26175207D-15
  0.44408152D+02  0.63717835D+02  0.84365801D+02  0.97418598D+02  0.90311521D+02
  0.58469325D+02  0.20637525D+02  0.24188958D+01  0.35166268D-01  0.51497086D-02
  0.52947002D-04 -0.27077378D+02 -0.38851243D+02 -0.51441111D+02 -0.59399908D+02
 -0.55066447D+02 -0.35651022D+02 -0.12583502D+02 -0.14748949D+01 -0.21442242D-01
 -0.31399776D-02 -0.32283846D-04  0.18361048D-10  0.26344853D-10  0.34881986D-10
  0.40278811D-10  0.37340311D-10  0.24174798D-10  0.85328159D-11  0.10001196D-11
  0.14539888D-13  0.21292047D-14  0.21891531D-16 -0.92869870D-02 -0.13405872D-01
 -0.17909925D-01 -0.21277540D-01 -0.20619568D-01 -0.14333230D-01 -0.46638955D-02
  0.20991231D-02  0.22677533D-02  0.58382613D-03 -0.56946849D-06  0.56626372D-02
  0.81740819D-02  0.10920378D-01  0.12973744D-01  0.12572552D-01  0.87395277D-02
  0.28437585D-02 -0.12799170D-02 -0.13827374D-02 -0.35598150D-03  0.34722709D-06
 -0.22136155D-13 -0.31953795D-13 -0.42689506D-13 -0.50716443D-13 -0.49148120D-13
 -0.34164213D-13 -0.11116707D-13  0.50034004D-14  0.54053418D-14  0.13915887D-14
 -0.13573663D-17  0.81349592D-02  0.11820457D-01  0.15715434D-01  0.18857433D-01
  0.18244650D-01  0.12951577D-01  0.40253827D-02 -0.23111208D-02 -0.26549648D-02
 -0.70504923D-03  0.25438396D-03 -0.49602010D-02 -0.72073921D-02 -0.95823114D-02
 -0.11498110D-01 -0.11124473D-01 -0.78970803D-02 -0.24544324D-02  0.14091803D-02
  0.16188353D-02  0.42989594D-03 -0.15510779D-03  0.19346150D-13  0.28110815D-13
  0.37373654D-13  0.44845797D-13  0.43388507D-13  0.30800788D-13  0.95729624D-14
 -0.54961911D-14 -0.63139035D-14 -0.16767126D-14  0.60496312D-15 -0.12235932D-02
  0.74607239D-03 -0.25176696D-15 -0.26204908D-04  0.15978152D-04  0.35251189D-15
  0.27357755D-05 -0.16681088D-05 -0.14975012D-16 -0.81672651D-14 -0.85461629D-14
 -0.72817882D-14 -0.47956080D-14 -0.22101530D-14 -0.66183388D-15 -0.11260542D-15
 -0.36879303D-14 -0.38590217D-14 -0.32880931D-14 -0.21654579D-14 -0.99799506D-15
 -0.29885124D-15 -0.50847004D-16  0.11855195D-13  0.12405185D-13  0.10569881D-13
  0.69610659D-14  0.32081480D-14  0.96068512D-15  0.16345243D-15  0.11163030D-14
  0.11680908D-14  0.99527586D-15  0.65546440D-15  0.30208403D-15  0.90459551D-16
  0.15390926D-16 -0.12279197D-02 -0.12848857D-02 -0.10947914D-02 -0.72100289D-03