 Molden2AIM, Version 4.0.0 (06/02/2016)           Time: Fri Jun 29 23:20:44 2018
GAUSSIAN             35 MOL ORBITALS    526 PRIMITIVES        2 NUCLEI
  Br   1    (CENTRE  1)   0.00000000  0.00000000  2.15296497  CHARGE = 35.0
  Br   2    (CENTRE  2)   0.00000000  0.00000000 -2.15296497  CHARGE = 35.0
CENTRE ASSIGNMENTS    1  1  1  1  1  1  1  1  1  1  1  1  1  1  1  1  1  1  1  1
CENTRE ASSIGNMENTS    1  1  1  1  1  1  1  1  1  1  1  1  1  1  1  1  1  1  1  1
CENTRE ASSIGNMENTS    1  1  1  1  1  1  1  1  1  1  1  1  1  1  1  1  1  1  1  1
CENTRE ASSIGNMENTS    1  1  1  1  1  1  1  1  1  1  1  1  1  1  1  1  1  1  1  1
CENTRE ASSIGNMENTS    1  1  1  1  1  1  1  1  1  1  1  1  1  1  1  1  1  1  1  1
CENTRE ASSIGNMENTS    1  1  1  1  1  1  1  1  1  1  1  1  1  1  1  1  1  1  1  1
CENTRE ASSIGNMENTS    1  1  1  1  1  1  1  1  1  1  1  1  1  1  1  1  1  1  1  1
CENTRE ASSIGNMENTS    1  1  1  1  1  1  1  1  1  1  1  1  1  1  1  1  1  1  1  1
CENTRE ASSIGNMENTS    1  1  1  1  1  1  1  1  1  1  1  1  1  1  1  1  1  1  1  1
CENTRE ASSIGNMENTS    1  1  1  1  1  1  1  1  1  1  1  1  1  1  1  1  1  1  1  1
CENTRE ASSIGNMENTS    1  1  1  1  1  1  1  1  1  1  1  1  1  1  1  1  1  1  1  1
CENTRE ASSIGNMENTS    1  1  1  1  1  1  1  1  1  1  1  1  1  1  1  1  1  1  1  1
CENTRE ASSIGNMENTS    1  1  1  1  1  1  1  1  1  1  1  1  1  1  1  1  1  1  1  1
CENTRE ASSIGNMENTS    1  1  1  2  2  2  2  2  2  2  2  2  2  2  2  2  2  2  2  2
CENTRE ASSIGNMENTS    2  2  2  2  2  2  2  2  2  2  2  2  2  2  2  2  2  2  2  2
CENTRE ASSIGNMENTS    2  2  2  2  2  2  2  2  2  2  2  2  2  2  2  2  2  2  2  2
CENTRE ASSIGNMENTS    2  2  2  2  2  2  2  2  2  2  2  2  2  2  2  2  2  2  2  2
CENTRE ASSIGNMENTS    2  2  2  2  2  2  2  2  2  2  2  2  2  2  2  2  2  2  2  2
CENTRE ASSIGNMENTS    2  2  2  2  2  2  2  2  2  2  2  2  2  2  2  2  2  2  2  2
CENTRE ASSIGNMENTS    2  2  2  2  2  2  2  2  2  2  2  2  2  2  2  2  2  2  2  2
CENTRE ASSIGNMENTS    2  2  2  2  2  2  2  2  2  2  2  2  2  2  2  2  2  2  2  2
CENTRE ASSIGNMENTS    2  2  2  2  2  2  2  2  2  2  2  2  2  2  2  2  2  2  2  2
CENTRE ASSIGNMENTS    2  2  2  2  2  2  2  2  2  2  2  2  2  2  2  2  2  2  2  2
CENTRE ASSIGNMENTS    2  2  2  2  2  2  2  2  2  2  2  2  2  2  2  2  2  2  2  2
CENTRE ASSIGNMENTS    2  2  2  2  2  2  2  2  2  2  2  2  2  2  2  2  2  2  2  2
CENTRE ASSIGNMENTS    2  2  2  2  2  2  2  2  2  2  2  2  2  2  2  2  2  2  2  2
CENTRE ASSIGNMENTS    2  2  2  2  2  2
TYPE ASSIGNMENTS      1  1  1  1  1  1  1  1  1  1  1  1  1  1  1  1  1  1  1  1
TYPE ASSIGNMENTS      1  1  1  1  1  1  1  1  1  1  1  1  1  1  1  1  1  1  1  1
TYPE ASSIGNMENTS      1  1  1  1  1  1  1  1  1  1  1  1  1  1  1  1  1  1  1  1
TYPE ASSIGNMENTS      1  1  1  1  1  1  1  1  1  1  1  1  1  1  1  2  2  2  2  2
TYPE ASSIGNMENTS      2  2  2  2  2  2  3  3  3  3  3  3  3  3  3  3  3  4  4  4
TYPE ASSIGNMENTS      4  4  4  4  4  4  4  4  2  2  2  2  2  2  2  2  2  2  2  3
TYPE ASSIGNMENTS      3  3  3  3  3  3  3  3  3  3  4  4  4  4  4  4  4  4  4  4
TYPE ASSIGNMENTS      4  2  2  2  2  2  2  2  2  2  2  2  3  3  3  3  3  3  3  3
TYPE ASSIGNMENTS      3  3  3  4  4  4  4  4  4  4  4  4  4  4  2  3  4  2  3  4
TYPE ASSIGNMENTS      2  3  4  5  5  5  5  5  5  5  6  6  6  6  6  6  6  7  7  7
TYPE ASSIGNMENTS      7  7  7  7  8  8  8  8  8  8  8  9  9  9  9  9  9  9 10 10
TYPE ASSIGNMENTS     10 10 10 10 10  5  6  7  8  9 10  5  6  7  8  9 10  5  6  7
TYPE ASSIGNMENTS      8  9 10 11 12 13 17 14 15 18 19 16 20 11 12 13 17 14 15 18
TYPE ASSIGNMENTS     19 16 20  1  1  1  1  1  1  1  1  1  1  1  1  1  1  1  1  1
TYPE ASSIGNMENTS      1  1  1  1  1  1  1  1  1  1  1  1  1  1  1  1  1  1  1  1
TYPE ASSIGNMENTS      1  1  1  1  1  1  1  1  1  1  1  1  1  1  1  1  1  1  1  1
TYPE ASSIGNMENTS      1  1  1  1  1  1  1  1  1  1  1  1  1  1  1  1  1  1  2  2
TYPE ASSIGNMENTS      2  2  2  2  2  2  2  2  2  3  3  3  3  3  3  3  3  3  3  3
TYPE ASSIGNMENTS      4  4  4  4  4  4  4  4  4  4  4  2  2  2  2  2  2  2  2  2
TYPE ASSIGNMENTS      2  2  3  3  3  3  3  3  3  3  3  3  3  4  4  4  4  4  4  4
TYPE ASSIGNMENTS      4  4  4  4  2  2  2  2  2  2  2  2  2  2  2  3  3  3  3  3
TYPE ASSIGNMENTS      3  3  3  3  3  3  4  4  4  4  4  4  4  4  4  4  4  2  3  4
TYPE ASSIGNMENTS      2  3  4  2  3  4  5  5  5  5  5  5  5  6  6  6  6  6  6  6
TYPE ASSIGNMENTS      7  7  7  7  7  7  7  8  8  8  8  8  8  8  9  9  9  9  9  9
TYPE ASSIGNMENTS      9 10 10 10 10 10 10 10  5  6  7  8  9 10  5  6  7  8  9 10
TYPE ASSIGNMENTS      5  6  7  8  9 10 11 12 13 17 14 15 18 19 16 20 11 12 13 17
TYPE ASSIGNMENTS     14 15 18 19 16 20
EXPONENTS  0.1063900D+08 0.1593400D+07 0.3626100D+06 0.1027000D+06 0.3350100D+05
EXPONENTS  0.1209300D+05 0.4715900D+04 0.1955600D+04 0.8526100D+03 0.3876700D+03
EXPONENTS  0.1826800D+03 0.8824500D+02 0.3926300D+02 0.1923400D+02 0.9405700D+01
EXPONENTS  0.4160100D+01 0.1899500D+01 0.3011400D+00 0.1063900D+08 0.1593400D+07
EXPONENTS  0.3626100D+06 0.1027000D+06 0.3350100D+05 0.1209300D+05 0.4715900D+04
EXPONENTS  0.1955600D+04 0.8526100D+03 0.3876700D+03 0.1826800D+03 0.8824500D+02
EXPONENTS  0.3926300D+02 0.1923400D+02 0.9405700D+01 0.4160100D+01 0.1899500D+01
EXPONENTS  0.3011400D+00 0.1063900D+08 0.1593400D+07 0.3626100D+06 0.1027000D+06
EXPONENTS  0.3350100D+05 0.1209300D+05 0.4715900D+04 0.1955600D+04 0.8526100D+03
EXPONENTS  0.3876700D+03 0.1826800D+03 0.8824500D+02 0.3926300D+02 0.1923400D+02
EXPONENTS  0.9405700D+01 0.4160100D+01 0.1899500D+01 0.3011400D+00 0.1063900D+08
EXPONENTS  0.1593400D+07 0.3626100D+06 0.1027000D+06 0.3350100D+05 0.1209300D+05
EXPONENTS  0.4715900D+04 0.1955600D+04 0.8526100D+03 0.3876700D+03 0.1826800D+03
EXPONENTS  0.8824500D+02 0.3926300D+02 0.1923400D+02 0.9405700D+01 0.4160100D+01
EXPONENTS  0.1899500D+01 0.3011400D+00 0.6047200D+00 0.1251500D+00 0.4559300D-01
EXPONENTS  0.8676500D+04 0.2055900D+04 0.6662300D+03 0.2531000D+03 0.1061200D+03
EXPONENTS  0.4724200D+02 0.2182500D+02 0.9968400D+01 0.4517100D+01 0.1998200D+01
EXPONENTS  0.2814500D+00 0.8676500D+04 0.2055900D+04 0.6662300D+03 0.2531000D+03
EXPONENTS  0.1061200D+03 0.4724200D+02 0.2182500D+02 0.9968400D+01 0.4517100D+01
EXPONENTS  0.1998200D+01 0.2814500D+00 0.8676500D+04 0.2055900D+04 0.6662300D+03
EXPONENTS  0.2531000D+03 0.1061200D+03 0.4724200D+02 0.2182500D+02 0.9968400D+01
EXPONENTS  0.4517100D+01 0.1998200D+01 0.2814500D+00 0.8676500D+04 0.2055900D+04
EXPONENTS  0.6662300D+03 0.2531000D+03 0.1061200D+03 0.4724200D+02 0.2182500D+02
EXPONENTS  0.9968400D+01 0.4517100D+01 0.1998200D+01 0.2814500D+00 0.8676500D+04
EXPONENTS  0.2055900D+04 0.6662300D+03 0.2531000D+03 0.1061200D+03 0.4724200D+02
EXPONENTS  0.2182500D+02 0.9968400D+01 0.4517100D+01 0.1998200D+01 0.2814500D+00
EXPONENTS  0.8676500D+04 0.2055900D+04 0.6662300D+03 0.2531000D+03 0.1061200D+03
EXPONENTS  0.4724200D+02 0.2182500D+02 0.9968400D+01 0.4517100D+01 0.1998200D+01
EXPONENTS  0.2814500D+00 0.8676500D+04 0.2055900D+04 0.6662300D+03 0.2531000D+03
EXPONENTS  0.1061200D+03 0.4724200D+02 0.2182500D+02 0.9968400D+01 0.4517100D+01
EXPONENTS  0.1998200D+01 0.2814500D+00 0.8676500D+04 0.2055900D+04 0.6662300D+03
EXPONENTS  0.2531000D+03 0.1061200D+03 0.4724200D+02 0.2182500D+02 0.9968400D+01
EXPONENTS  0.4517100D+01 0.1998200D+01 0.2814500D+00 0.8676500D+04 0.2055900D+04
EXPONENTS  0.6662300D+03 0.2531000D+03 0.1061200D+03 0.4724200D+02 0.2182500D+02
EXPONENTS  0.9968400D+01 0.4517100D+01 0.1998200D+01 0.2814500D+00 0.7098800D+00
EXPONENTS  0.7098800D+00 0.7098800D+00 0.1020400D+00 0.1020400D+00 0.1020400D+00
EXPONENTS  0.3514200D-01 0.3514200D-01 0.3514200D-01 0.4038300D+03 0.1211700D+03
EXPONENTS  0.4634500D+02 0.1972100D+02 0.8862400D+01 0.3996200D+01 0.1763600D+01
EXPONENTS  0.4038300D+03 0.1211700D+03 0.4634500D+02 0.1972100D+02 0.8862400D+01
EXPONENTS  0.3996200D+01 0.1763600D+01 0.4038300D+03 0.1211700D+03 0.4634500D+02
EXPONENTS  0.1972100D+02 0.8862400D+01 0.3996200D+01 0.1763600D+01 0.4038300D+03
EXPONENTS  0.1211700D+03 0.4634500D+02 0.1972100D+02 0.8862400D+01 0.3996200D+01
EXPONENTS  0.1763600D+01 0.4038300D+03 0.1211700D+03 0.4634500D+02 0.1972100D+02
EXPONENTS  0.8862400D+01 0.3996200D+01 0.1763600D+01 0.4038300D+03 0.1211700D+03
EXPONENTS  0.4634500D+02 0.1972100D+02 0.8862400D+01 0.3996200D+01 0.1763600D+01
EXPONENTS  0.7061900D+00 0.7061900D+00 0.7061900D+00 0.7061900D+00 0.7061900D+00
EXPONENTS  0.7061900D+00 0.2639000D+00 0.2639000D+00 0.2639000D+00 0.2639000D+00
EXPONENTS  0.2639000D+00 0.2639000D+00 0.1047000D+00 0.1047000D+00 0.1047000D+00
EXPONENTS  0.1047000D+00 0.1047000D+00 0.1047000D+00 0.5515000D+00 0.5515000D+00
EXPONENTS  0.5515000D+00 0.5515000D+00 0.5515000D+00 0.5515000D+00 0.5515000D+00
EXPONENTS  0.5515000D+00 0.5515000D+00 0.5515000D+00 0.2580000D+00 0.2580000D+00
EXPONENTS  0.2580000D+00 0.2580000D+00 0.2580000D+00 0.2580000D+00 0.2580000D+00
EXPONENTS  0.2580000D+00 0.2580000D+00 0.2580000D+00 0.1063900D+08 0.1593400D+07
EXPONENTS  0.3626100D+06 0.1027000D+06 0.3350100D+05 0.1209300D+05 0.4715900D+04
EXPONENTS  0.1955600D+04 0.8526100D+03 0.3876700D+03 0.1826800D+03 0.8824500D+02
EXPONENTS  0.3926300D+02 0.1923400D+02 0.9405700D+01 0.4160100D+01 0.1899500D+01
EXPONENTS  0.3011400D+00 0.1063900D+08 0.1593400D+07 0.3626100D+06 0.1027000D+06
EXPONENTS  0.3350100D+05 0.1209300D+05 0.4715900D+04 0.1955600D+04 0.8526100D+03
EXPONENTS  0.3876700D+03 0.1826800D+03 0.8824500D+02 0.3926300D+02 0.1923400D+02
EXPONENTS  0.9405700D+01 0.4160100D+01 0.1899500D+01 0.3011400D+00 0.1063900D+08
EXPONENTS  0.1593400D+07 0.3626100D+06 0.1027000D+06 0.3350100D+05 0.1209300D+05
EXPONENTS  0.4715900D+04 0.1955600D+04 0.8526100D+03 0.3876700D+03 0.1826800D+03
EXPONENTS  0.8824500D+02 0.3926300D+02 0.1923400D+02 0.9405700D+01 0.4160100D+01
EXPONENTS  0.1899500D+01 0.3011400D+00 0.1063900D+08 0.1593400D+07 0.3626100D+06
EXPONENTS  0.1027000D+06 0.3350100D+05 0.1209300D+05 0.4715900D+04 0.1955600D+04
EXPONENTS  0.8526100D+03 0.3876700D+03 0.1826800D+03 0.8824500D+02 0.3926300D+02
EXPONENTS  0.1923400D+02 0.9405700D+01 0.4160100D+01 0.1899500D+01 0.3011400D+00
EXPONENTS  0.6047200D+00 0.1251500D+00 0.4559300D-01 0.8676500D+04 0.2055900D+04
EXPONENTS  0.6662300D+03 0.2531000D+03 0.1061200D+03 0.4724200D+02 0.2182500D+02
EXPONENTS  0.9968400D+01 0.4517100D+01 0.1998200D+01 0.2814500D+00 0.8676500D+04
EXPONENTS  0.2055900D+04 0.6662300D+03 0.2531000D+03 0.1061200D+03 0.4724200D+02
EXPONENTS  0.2182500D+02 0.9968400D+01 0.4517100D+01 0.1998200D+01 0.2814500D+00
EXPONENTS  0.8676500D+04 0.2055900D+04 0.6662300D+03 0.2531000D+03 0.1061200D+03
EXPONENTS  0.4724200D+02 0.2182500D+02 0.9968400D+01 0.4517100D+01 0.1998200D+01
EXPONENTS  0.2814500D+00 0.8676500D+04 0.2055900D+04 0.6662300D+03 0.2531000D+03
EXPONENTS  0.1061200D+03 0.4724200D+02 0.2182500D+02 0.9968400D+01 0.4517100D+01
EXPONENTS  0.1998200D+01 0.2814500D+00 0.8676500D+04 0.2055900D+04 0.6662300D+03
EXPONENTS  0.2531000D+03 0.1061200D+03 0.4724200D+02 0.2182500D+02 0.9968400D+01
EXPONENTS  0.4517100D+01 0.1998200D+01 0.2814500D+00 0.8676500D+04 0.2055900D+04
EXPONENTS  0.6662300D+03 0.2531000D+03 0.1061200D+03 0.4724200D+02 0.2182500D+02
EXPONENTS  0.9968400D+01 0.4517100D+01 0.1998200D+01 0.2814500D+00 0.8676500D+04
EXPONENTS  0.2055900D+04 0.6662300D+03 0.2531000D+03 0.1061200D+03 0.4724200D+02
EXPONENTS  0.2182500D+02 0.9968400D+01 0.4517100D+01 0.1998200D+01 0.2814500D+00
EXPONENTS  0.8676500D+04 0.2055900D+04 0.6662300D+03 0.2531000D+03 0.1061200D+03
EXPONENTS  0.4724200D+02 0.2182500D+02 0.9968400D+01 0.4517100D+01 0.1998200D+01
EXPONENTS  0.2814500D+00 0.8676500D+04 0.2055900D+04 0.6662300D+03 0.2531000D+03
EXPONENTS  0.1061200D+03 0.4724200D+02 0.2182500D+02 0.9968400D+01 0.4517100D+01
EXPONENTS  0.1998200D+01 0.2814500D+00 0.7098800D+00 0.7098800D+00 0.7098800D+00
EXPONENTS  0.1020400D+00 0.1020400D+00 0.1020400D+00 0.3514200D-01 0.3514200D-01
EXPONENTS  0.3514200D-01 0.4038300D+03 0.1211700D+03 0.4634500D+02 0.1972100D+02
EXPONENTS  0.8862400D+01 0.3996200D+01 0.1763600D+01 0.4038300D+03 0.1211700D+03
EXPONENTS  0.4634500D+02 0.1972100D+02 0.8862400D+01 0.3996200D+01 0.1763600D+01
EXPONENTS  0.4038300D+03 0.1211700D+03 0.4634500D+02 0.1972100D+02 0.8862400D+01
EXPONENTS  0.3996200D+01 0.1763600D+01 0.4038300D+03 0.1211700D+03 0.4634500D+02
EXPONENTS  0.1972100D+02 0.8862400D+01 0.3996200D+01 0.1763600D+01 0.4038300D+03
EXPONENTS  0.1211700D+03 0.4634500D+02 0.1972100D+02 0.8862400D+01 0.3996200D+01
EXPONENTS  0.1763600D+01 0.4038300D+03 0.1211700D+03 0.4634500D+02 0.1972100D+02
EXPONENTS  0.8862400D+01 0.3996200D+01 0.1763600D+01 0.7061900D+00 0.7061900D+00
EXPONENTS  0.7061900D+00 0.7061900D+00 0.7061900D+00 0.7061900D+00 0.2639000D+00
EXPONENTS  0.2639000D+00 0.2639000D+00 0.2639000D+00 0.2639000D+00 0.2639000D+00
EXPONENTS  0.1047000D+00 0.1047000D+00 0.1047000D+00 0.1047000D+00 0.1047000D+00
EXPONENTS  0.1047000D+00 0.5515000D+00 0.5515000D+00 0.5515000D+00 0.5515000D+00
EXPONENTS  0.5515000D+00 0.5515000D+00 0.5515000D+00 0.5515000D+00 0.5515000D+00
EXPONENTS  0.5515000D+00 0.2580000D+00 0.2580000D+00 0.2580000D+00 0.2580000D+00
EXPONENTS  0.2580000D+00 0.2580000D+00 0.2580000D+00 0.2580000D+00 0.2580000D+00
EXPONENTS  0.2580000D+00
MO    1     MO 0.0        OCC NO =    2.0000000  ORB. ENERGY = -484.238797
  0.55386961D+00  0.10418962D+01  0.18035737D+01  0.29564024D+01  0.46312616D+01
  0.69611805D+01  0.99492756D+01  0.13207911D+02  0.15382406D+02  0.14128591D+02
  0.82615428D+01  0.21678702D+01  0.11851662D+00 -0.42419407D-02  0.11854886D-02
 -0.35201156D-03  0.60011877D-04  0.48961437D-05  0.30698992D-04  0.56403561D-04
  0.97534756D-04  0.15972680D-03  0.25148266D-03  0.37976346D-03  0.55433868D-03
  0.76335803D-03  0.97536720D-03  0.10632645D-02  0.87523043D-03  0.23998224D-03
 -0.48405974D-03 -0.47173736D-03 -0.10322942D-03 -0.34777043D-05 -0.11781351D-06
  0.29970237D-09 -0.59429660D-04 -0.11650594D-03 -0.20405727D-03 -0.33336317D-03
 -0.52579402D-03 -0.79339969D-03 -0.11632816D-02 -0.16061027D-02 -0.20823201D-02
 -0.23156625D-02 -0.20112954D-02 -0.58424534D-03  0.14728754D-02  0.21460833D-02
  0.36945591D-03 -0.90131422D-03 -0.42900285D-03  0.20717858D-05  0.21149939D-04
  0.45826811D-04  0.78012879D-04  0.12733803D-03  0.20073590D-03  0.30296846D-03
  0.44420113D-03  0.61407653D-03  0.79700973D-03  0.89039924D-03  0.77778390D-03
  0.23038035D-03 -0.59885656D-03 -0.92124382D-03 -0.16124580D-03  0.50864096D-03
  0.43175925D-03 -0.16108552D-03  0.13418034D-03  0.11686383D-03  0.27721422D-04
  0.89548000D-17  0.12848553D-16  0.17012167D-16  0.19644233D-16  0.18211107D-16
  0.11790203D-16  0.41615086D-17  0.48776469D-18  0.70911959D-20  0.10384267D-20
  0.10676639D-22 -0.14104884D-16 -0.20238012D-16 -0.26796203D-16 -0.30942023D-16
 -0.28684678D-16 -0.18570984D-16 -0.65548753D-17 -0.76828790D-18 -0.11169484D-19
 -0.16356466D-20 -0.16816987D-22 -0.19104855D-03 -0.27412084D-03 -0.36295057D-03
 -0.41910507D-03 -0.38852968D-03 -0.25154120D-03 -0.88784806D-04 -0.10406345D-04
 -0.15128899D-06 -0.22154589D-07 -0.22778358D-09 -0.20005274D-17 -0.28877843D-17
 -0.38580108D-17 -0.45834352D-17 -0.44417000D-17 -0.30875481D-17 -0.10046585D-17
  0.45217607D-18  0.48850102D-18  0.12576309D-18 -0.12267028D-21 -0.49538699D-17
 -0.71509681D-17 -0.95535225D-17 -0.11349878D-16 -0.10998902D-16 -0.76456396D-17
 -0.24878178D-17  0.11197154D-17  0.12096662D-17  0.31142487D-18 -0.30376621D-21
  0.12147839D-03  0.17535546D-03  0.23427070D-03  0.27832078D-03  0.26971417D-03
  0.18748575D-03  0.61006066D-04 -0.27457571D-04 -0.29663337D-04 -0.76367353D-05
  0.74489302D-08  0.10353488D-17  0.15044078D-17  0.20001276D-17  0.24000146D-17
  0.23220248D-17  0.16483672D-17  0.51231668D-18 -0.29413992D-18 -0.33790147D-18
 -0.89732705D-19  0.32375840D-19  0.18628750D-17  0.27068400D-17  0.35987751D-17
  0.43182810D-17  0.41779560D-17  0.29658623D-17  0.92179745D-18 -0.52923795D-18
 -0.60797691D-18 -0.16145361D-18  0.58252967D-19 -0.10181188D-03 -0.14793718D-03
 -0.19668420D-03 -0.23600742D-03 -0.22833822D-03 -0.16209355D-03 -0.50379084D-04
  0.28924492D-04  0.33227820D-04  0.88239397D-05 -0.31837049D-05 -0.75013811D-19
 -0.14229586D-18  0.49491589D-05 -0.76358763D-20 -0.16783710D-19 -0.47065548D-04
  0.65155800D-21  0.13669322D-20 -0.16245196D-05 -0.70773877D-04 -0.74057236D-04
 -0.63100729D-04 -0.41556601D-04 -0.19152200D-04 -0.57351573D-05 -0.97578839D-06
 -0.70773877D-04 -0.74057236D-04 -0.63100729D-04 -0.41556601D-04 -0.19152200D-04
 -0.57351573D-05 -0.97578839D-06  0.14154775D-03  0.14811447D-03  0.12620146D-03
  0.83113201D-04  0.38304400D-04  0.11470315D-04  0.19515768D-05  0.48890365D-17
  0.51158499D-17  0.43589779D-17  0.28707165D-17  0.13230278D-17  0.39618281D-18
  0.67407146D-19 -0.25653267D-18 -0.26843380D-18 -0.22871997D-18 -0.15062939D-18
 -0.69420601D-19 -0.20788111D-19 -0.35369209D-20 -0.56465585D-17 -0.59085151D-17
 -0.50343711D-17 -0.33155140D-17 -0.15280217D-17 -0.45756857D-18 -0.77851412D-19
  0.44727177D-05  0.44727177D-05 -0.89454353D-05 -0.26221118D-19  0.13606836D-19
  0.66507079D-19 -0.45342492D-05 -0.45342492D-05  0.90684984D-05  0.24545119D-20
 -0.49273904D-20 -0.19671008D-19 -0.29569809D-05 -0.29569809D-05  0.59139618D-05
 -0.12776952D-21  0.14307417D-20  0.52876266D-20 -0.54406509D-21  0.18059990D-20
  0.44652457D-05  0.18489528D-20  0.21086164D-20 -0.66978686D-05 -0.21675752D-21
 -0.75266133D-20 -0.66978686D-05  0.28614286D-22 -0.12465156D-21 -0.15964872D-20
 -0.30606842D-05 -0.42208141D-21 -0.16609087D-20  0.45910264D-05  0.79603607D-21
  0.64503704D-20  0.45910264D-05  0.13664369D-21 -0.55386761D+00 -0.10418924D+01
 -0.18035672D+01 -0.29563917D+01 -0.46312448D+01 -0.69611554D+01 -0.99492396D+01
 -0.13207863D+02 -0.15382350D+02 -0.14128540D+02 -0.82615130D+01 -0.21678623D+01
 -0.11851619D+00  0.42419254D-02 -0.11854843D-02  0.35201029D-03 -0.60011660D-04
 -0.48961260D-05 -0.30698930D-04 -0.56403446D-04 -0.97534557D-04 -0.15972647D-03
 -0.25148215D-03 -0.37976268D-03 -0.55433754D-03 -0.76335647D-03 -0.97536520D-03
 -0.10632624D-02 -0.87522864D-03 -0.23998175D-03  0.48405875D-03  0.47173639D-03
  0.10322921D-03  0.34776971D-05  0.11781327D-06 -0.29970176D-09  0.59429508D-04
  0.11650564D-03  0.20405674D-03  0.33336232D-03  0.52579267D-03  0.79339766D-03
  0.11632786D-02  0.16060985D-02  0.20823147D-02  0.23156565D-02  0.20112902D-02
  0.58424384D-03 -0.14728716D-02 -0.21460778D-02 -0.36945496D-03  0.90131191D-03
  0.42900174D-03 -0.20717804D-05 -0.21149892D-04 -0.45826709D-04 -0.78012704D-04
 -0.12733774D-03 -0.20073546D-03 -0.30296778D-03 -0.44420014D-03 -0.61407516D-03
 -0.79700795D-03 -0.89039725D-03 -0.77778216D-03 -0.23037983D-03  0.59885522D-03
  0.92124176D-03  0.16124544D-03 -0.50863982D-03 -0.43175829D-03  0.16108516D-03
 -0.13417990D-03 -0.11686375D-03 -0.27721428D-04  0.19658820D-16  0.28206926D-16
  0.37347469D-16  0.43125746D-16  0.39979550D-16  0.25883490D-16  0.91359213D-17
  0.10708087D-17  0.15567577D-19  0.22796984D-20  0.23438840D-22  0.13028849D-16
  0.18694092D-16  0.24751971D-16  0.28581514D-16  0.26496378D-16  0.17154238D-16
  0.60548162D-17  0.70967666D-18  0.10317385D-19  0.15108662D-20  0.15534051D-22
 -0.19104836D-03 -0.27412057D-03 -0.36295021D-03 -0.41910466D-03 -0.38852930D-03
 -0.25154095D-03 -0.88784719D-04 -0.10406335D-04 -0.15128884D-06 -0.22154567D-07
 -0.22778336D-09  0.34636137D-17  0.49997661D-17  0.66795680D-17  0.79355317D-17
  0.76901385D-17  0.53456272D-17  0.17394158D-17 -0.78287516D-18 -0.84576636D-18
 -0.21773996D-18  0.21238523D-21  0.15950505D-16  0.23024737D-16  0.30760498D-16
  0.36544416D-16  0.35414340D-16  0.24617484D-16  0.80102931D-17 -0.36052676D-17
 -0.38948918D-17 -0.10027280D-17  0.97806854D-21  0.12148003D-03  0.17535782D-03
  0.23427385D-03  0.27832452D-03  0.26971779D-03  0.18748827D-03  0.61006886D-04
 -0.27457940D-04 -0.29663736D-04 -0.76368380D-05  0.74490303D-08 -0.12158471D-17
 -0.17666798D-17 -0.23488213D-17 -0.28184230D-17 -0.27268367D-17 -0.19357366D-17
 -0.60163179D-18  0.34541902D-18  0.39680977D-18  0.10537632D-18 -0.38020106D-19
 -0.59335388D-17 -0.86216951D-17 -0.11462644D-16 -0.13754379D-16 -0.13307422D-16
 -0.94467204D-17 -0.29360644D-17  0.16857030D-17  0.19364985D-17  0.51425420D-18
 -0.18554452D-18 -0.10181305D-03 -0.14793887D-03 -0.19668645D-03 -0.23601012D-03
 -0.22834084D-03 -0.16209541D-03 -0.50379660D-04  0.28924823D-04  0.33228200D-04
  0.88240406D-05 -0.31837414D-05  0.10605046D-18  0.47427519D-18  0.49491697D-05
  0.79566827D-20  0.37749134D-19 -0.47065538D-04 -0.66166854D-21 -0.31128403D-20
 -0.16245198D-05  0.70773650D-04  0.74056999D-04  0.63100527D-04  0.41556467D-04
  0.19152139D-04  0.57351389D-05  0.97578526D-06  0.70773650D-04  0.74056999D-04
  0.63100527D-04  0.41556467D-04  0.19152139D-04  0.57351389D-05  0.97578526D-06
 -0.14154730D-03 -0.14811400D-03 -0.12620105D-03 -0.83112935D-04 -0.38304277D-04
 -0.11470278D-04 -0.19515705D-05  0.92092755D-17  0.96365145D-17  0.82108262D-17
  0.54074498D-17  0.24921326D-17  0.74627314D-18  0.12697205D-18  0.26025710D-17
  0.27233101D-17  0.23204060D-17  0.15281628D-17  0.70428472D-18  0.21089920D-18
  0.35882711D-19  0.50035799D-18  0.52357073D-18  0.44611028D-18  0.29379735D-18
  0.13540245D-18  0.40546483D-19  0.68986403D-20 -0.44727039D-05 -0.44727039D-05
  0.89454078D-05 -0.42770165D-19 -0.86469726D-20  0.22714789D-19  0.45342471D-05
  0.45342471D-05 -0.90684942D-05  0.49981589D-20 -0.27909574D-20 -0.15665189D-19
  0.29569796D-05  0.29569796D-05 -0.59139593D-05 -0.40222840D-21  0.12389224D-20
  0.47949844D-20  0.86369926D-21  0.22231166D-20  0.44652319D-05 -0.27541428D-20
  0.26726433D-20 -0.66978478D-05  0.16304497D-21 -0.93419932D-20 -0.66978478D-05
 -0.40888427D-21  0.99492827D-22  0.11312456D-21 -0.30606773D-05  0.57772745D-21
  0.66446270D-22  0.45910159D-05 -0.87620593D-21 -0.40581996D-21  0.45910159D-05
 -0.28508482D-22
MO    2     MO 0.0        OCC NO =    2.0000000  ORB. ENERGY = -484.238797
  0.55387388D+00  0.10419042D+01  0.18035876D+01  0.29564251D+01  0.46312972D+01
  0.69612341D+01  0.99493522D+01  0.13208012D+02  0.15382524D+02  0.14128700D+02
  0.82616065D+01  0.21678869D+01  0.11851753D+00 -0.42419734D-02  0.11854977D-02
 -0.35201427D-03  0.60012339D-04  0.48961814D-05  0.17343857D-04  0.31866040D-04
  0.55103727D-04  0.90240055D-04  0.14207891D-03  0.21455308D-03  0.31318197D-03
  0.43127060D-03  0.55104836D-03  0.60070728D-03  0.49447459D-03  0.13558157D-03
 -0.27347683D-03 -0.26651511D-03 -0.58321015D-04 -0.19647813D-05 -0.66560513D-07
  0.16932136D-09 -0.42235002D-04 -0.82797522D-04 -0.14501781D-03 -0.23691191D-03
 -0.37366714D-03 -0.56384703D-03 -0.82671178D-03 -0.11414124D-02 -0.14798468D-02
 -0.16456767D-02 -0.14293715D-02 -0.41520687D-03  0.10467315D-02  0.15251615D-02
  0.26256201D-03 -0.64053888D-03 -0.30488036D-03  0.14723603D-05  0.13088613D-04
  0.28359863D-04  0.48278170D-04  0.78802973D-04  0.12422516D-03  0.18749164D-03
  0.27489330D-03  0.38002047D-03  0.49322844D-03  0.55102242D-03  0.48133056D-03
  0.14257058D-03 -0.37060161D-03 -0.57011055D-03 -0.99786755D-04  0.31477180D-03
  0.26719366D-03 -0.99687565D-04  0.12097482D-03  0.20948280D-04 -0.17392917D-05
  0.60839297D-17  0.87293619D-17  0.11558139D-16  0.13346376D-16  0.12372705D-16
  0.80103145D-17  0.28273469D-17  0.33138943D-18  0.48177890D-20  0.70551157D-21
  0.72537546D-23 -0.13103561D-16 -0.18801290D-16 -0.24893908D-16 -0.28745410D-16
 -0.26648318D-16 -0.17252607D-16 -0.60895366D-17 -0.71374620D-18 -0.10376549D-19
 -0.15195301D-20 -0.15623129D-22 -0.51559483D-04 -0.73978729D-04 -0.97951770D-04
 -0.11310654D-03 -0.10485497D-03 -0.67885018D-04 -0.23960918D-04 -0.28084262D-05
 -0.40829319D-07 -0.59789994D-08 -0.61473399D-10 -0.19446624D-17 -0.28071426D-17
 -0.37502754D-17 -0.44554422D-17 -0.43176650D-17 -0.30013279D-17 -0.97660332D-18
  0.43954900D-18  0.47485956D-18  0.12225114D-18 -0.11924470D-21 -0.36455378D-17
 -0.52623757D-17 -0.70304082D-17 -0.83523406D-17 -0.80940583D-17 -0.56264030D-17
 -0.18307776D-17  0.82399519D-18  0.89018972D-18  0.22917662D-18 -0.22354063D-21
 -0.45168247D-03 -0.65200884D-03 -0.87106822D-03 -0.10348558D-02 -0.10028546D-02
 -0.69711185D-03 -0.22683351D-03  0.10209308D-03  0.11029459D-03  0.28395004D-04
 -0.27696704D-07  0.91660730D-18  0.13318711D-17  0.17707380D-17  0.21247630D-17
  0.20557176D-17  0.14593202D-17  0.45356038D-18 -0.26040576D-18 -0.29914841D-18
 -0.79441489D-19  0.28662737D-19  0.11004233D-17  0.15989639D-17  0.21258410D-17
  0.25508621D-17  0.24679703D-17  0.17519716D-17  0.54451717D-18 -0.31262741D-18
 -0.35913949D-18 -0.95372649D-19  0.34410749D-19  0.32226559D-03  0.46826619D-03
  0.62256533D-03  0.74703531D-03  0.72275996D-03  0.51307542D-03  0.15946513D-03
 -0.91554818D-04 -0.10517616D-03 -0.27930454D-04  0.10077395D-04 -0.67780240D-19
 -0.10648867D-18 -0.30012502D-05 -0.49293747D-20 -0.89238153D-21 -0.27679383D-05
  0.38322967D-21  0.42229361D-22  0.63311110D-07 -0.62727918D-04 -0.65638007D-04
 -0.55927095D-04 -0.36832220D-04 -0.16974874D-04 -0.50831534D-05 -0.86485546D-06
 -0.62727918D-04 -0.65638007D-04 -0.55927095D-04 -0.36832220D-04 -0.16974874D-04
 -0.50831534D-05 -0.86485546D-06  0.12545584D-03  0.13127601D-03  0.11185419D-03
  0.73664440D-04  0.33949747D-04  0.10166307D-04  0.17297109D-05  0.50274251D-17
  0.52606587D-17  0.44823628D-17  0.29519748D-17  0.13604773D-17  0.40739712D-18
  0.69315167D-19 -0.11660342D-17 -0.12201292D-17 -0.10396154D-17 -0.68466532D-18
 -0.31554186D-18 -0.94489521D-19 -0.16076591D-19 -0.40161505D-17 -0.42024688D-17
 -0.35807283D-17 -0.23581803D-17 -0.10868151D-17 -0.32544854D-18 -0.55372310D-19
  0.38059733D-05  0.38059733D-05 -0.76119465D-05 -0.27461773D-19  0.94872372D-21
  0.35170643D-20 -0.58192492D-06 -0.58192492D-06  0.11638498D-05  0.30041188D-20
 -0.64385990D-21  0.65131251D-20 -0.35016993D-06 -0.35016993D-06  0.70033986D-06
 -0.26897059D-21  0.77201516D-22 -0.28924945D-20 -0.13039272D-20 -0.27186334D-20
  0.38396279D-05  0.95330937D-21 -0.22779973D-20 -0.57594418D-05  0.29584723D-20
  0.10433897D-19 -0.57594418D-05  0.20830980D-21  0.38129429D-21  0.15691326D-20
 -0.19213756D-05  0.11377412D-21  0.14963668D-20  0.28820633D-05 -0.12576570D-20
 -0.62037645D-20  0.28820633D-05 -0.13173410D-21  0.55387588D+00  0.10419080D+01
  0.18035941D+01  0.29564358D+01  0.46313140D+01  0.69612593D+01  0.99493882D+01
  0.13208060D+02  0.15382580D+02  0.14128751D+02  0.82616363D+01  0.21678947D+01
  0.11851796D+00 -0.42419888D-02  0.11855020D-02 -0.35201554D-03  0.60012556D-04
  0.48961991D-05  0.17343968D-04  0.31866244D-04  0.55104080D-04  0.90240632D-04
  0.14207982D-03  0.21455445D-03  0.31318397D-03  0.43127335D-03  0.55105189D-03
  0.60071113D-03  0.49447775D-03  0.13558244D-03 -0.27347858D-03 -0.26651682D-03
 -0.58321388D-04 -0.19647939D-05 -0.66560939D-07  0.16932244D-09 -0.42235217D-04
 -0.82797943D-04 -0.14501854D-03 -0.23691311D-03 -0.37366904D-03 -0.56384990D-03
 -0.82671599D-03 -0.11414182D-02 -0.14798543D-02 -0.16456851D-02 -0.14293788D-02
 -0.41520898D-03  0.10467368D-02  0.15251693D-02  0.26256334D-03 -0.64054214D-03
 -0.30488191D-03  0.14723678D-05  0.13088689D-04  0.28360029D-04  0.48278452D-04
  0.78803434D-04  0.12422588D-03  0.18749273D-03  0.27489490D-03  0.38002269D-03
  0.49323132D-03  0.55102564D-03  0.48133337D-03  0.14257141D-03 -0.37060378D-03
 -0.57011388D-03 -0.99787338D-04  0.31477364D-03  0.26719522D-03 -0.99688147D-04
  0.12097531D-03  0.20948702D-04 -0.17391918D-05 -0.19710306D-16 -0.28280800D-16
 -0.37445282D-16 -0.43238692D-16 -0.40084256D-16 -0.25951278D-16 -0.91598482D-17
 -0.10736132D-17 -0.15608349D-19 -0.22856689D-20 -0.23500226D-22 -0.13110455D-16
 -0.18811182D-16 -0.24907005D-16 -0.28760533D-16 -0.26662338D-16 -0.17261683D-16
 -0.60927403D-17 -0.71412170D-18 -0.10382008D-19 -0.15203295D-20 -0.15631348D-22
  0.51560173D-04  0.73979720D-04  0.97953082D-04  0.11310806D-03  0.10485637D-03
  0.67885927D-04  0.23961239D-04  0.28084638D-05  0.40829866D-07  0.59790794D-08
  0.61474222D-10 -0.32595720D-17 -0.47052296D-17 -0.62860742D-17 -0.74680490D-17
 -0.72371120D-17 -0.50307160D-17 -0.16369467D-17  0.73675593D-18  0.79594221D-18
  0.20491289D-18 -0.19987360D-21 -0.15630407D-16 -0.22562672D-16 -0.30143191D-16
 -0.35811035D-16 -0.34703638D-16 -0.24123455D-16 -0.78495410D-17  0.35329164D-17
  0.38167284D-17  0.98260503D-18 -0.95844048D-21  0.45168203D-03  0.65200821D-03
  0.87106738D-03  0.10348548D-02  0.10028536D-02  0.69711117D-03  0.22683329D-03
 -0.10209298D-03 -0.11029448D-03 -0.28394976D-04  0.27696678D-07  0.10792417D-17
  0.15681861D-17  0.20849216D-17  0.25017616D-17  0.24204655D-17  0.17182486D-17
  0.53403600D-18 -0.30660978D-18 -0.35222657D-18 -0.93536862D-19  0.33748392D-19
  0.57275419D-17  0.83223724D-17  0.11064691D-16  0.13276863D-16  0.12845424D-16
  0.91187550D-17  0.28341320D-17 -0.16271798D-17 -0.18692684D-17 -0.49640065D-18
  0.17910290D-18 -0.32226522D-03 -0.46826566D-03 -0.62256463D-03 -0.74703446D-03
 -0.72275914D-03 -0.51307483D-03 -0.15946495D-03  0.91554714D-04  0.10517604D-03
  0.27930422D-04 -0.10077383D-04 -0.99631683D-19 -0.46353585D-18  0.30012324D-05
 -0.50069349D-20 -0.33821571D-19  0.27681083D-05  0.43909940D-21  0.28473877D-20
 -0.63305260D-07 -0.62728173D-04 -0.65638275D-04 -0.55927323D-04 -0.36832370D-04
 -0.16974943D-04 -0.50831741D-05 -0.86485898D-06 -0.62728173D-04 -0.65638275D-04
 -0.55927323D-04 -0.36832370D-04 -0.16974943D-04 -0.50831741D-05 -0.86485898D-06
  0.12545635D-03  0.13127655D-03  0.11185465D-03  0.73664741D-04  0.33949886D-04
  0.10166348D-04  0.17297180D-05 -0.92352366D-17 -0.96636800D-17 -0.82339726D-17
 -0.54226934D-17 -0.24991580D-17 -0.74837689D-18 -0.12732998D-18 -0.27647018D-17
 -0.28929626D-17 -0.24649590D-17 -0.16233618D-17 -0.74815913D-18 -0.22403746D-18
 -0.38118075D-19 -0.76507600D-18 -0.80056960D-18 -0.68212815D-18 -0.44923296D-18
 -0.20703809D-18 -0.61997892D-19 -0.10548416D-19  0.38059894D-05  0.38059894D-05
 -0.76119788D-05  0.43259267D-19  0.19687111D-19 -0.51356448D-20 -0.58194129D-06
 -0.58194129D-06  0.11638826D-05 -0.51790507D-20 -0.18810440D-20  0.78176730D-20
 -0.35018061D-06 -0.35018061D-06  0.70036121D-06  0.44679697D-21  0.27306097D-21