 Molden2AIM, Version 4.0.0 (06/02/2016)           Time: Fri Jun 29 23:19:08 2018
GAUSSIAN             13 MOL ORBITALS    206 PRIMITIVES        2 NUCLEI
  F    1    (CENTRE  1)   0.00000000  0.00000000 -2.01232778  CHARGE =  9.0
  Cl   2    (CENTRE  2)   0.00000000  0.00000000  1.04763771  CHARGE = 17.0
CENTRE ASSIGNMENTS    1  1  1  1  1  1  1  1  1  1  1  1  1  1  1  1  1  1  1  1
CENTRE ASSIGNMENTS    1  1  1  1  1  1  1  1  1  1  1  1  1  1  1  1  1  1  1  1
CENTRE ASSIGNMENTS    1  1  1  1  1  1  1  1  1  1  1  1  1  1  1  1  1  1  1  1
CENTRE ASSIGNMENTS    1  1  1  1  1  1  1  1  1  1  1  1  1  1  1  2  2  2  2  2
CENTRE ASSIGNMENTS    2  2  2  2  2  2  2  2  2  2  2  2  2  2  2  2  2  2  2  2
CENTRE ASSIGNMENTS    2  2  2  2  2  2  2  2  2  2  2  2  2  2  2  2  2  2  2  2
CENTRE ASSIGNMENTS    2  2  2  2  2  2  2  2  2  2  2  2  2  2  2  2  2  2  2  2
CENTRE ASSIGNMENTS    2  2  2  2  2  2  2  2  2  2  2  2  2  2  2  2  2  2  2  2
CENTRE ASSIGNMENTS    2  2  2  2  2  2  2  2  2  2  2  2  2  2  2  2  2  2  2  2
CENTRE ASSIGNMENTS    2  2  2  2  2  2  2  2  2  2  2  2  2  2  2  2  2  2  2  2
CENTRE ASSIGNMENTS    2  2  2  2  2  2
TYPE ASSIGNMENTS      1  1  1  1  1  1  1  1  1  1  1  1  1  1  1  1  1  1  1  2
TYPE ASSIGNMENTS      2  2  3  3  3  4  4  4  2  3  4  2  3  4  2  3  4  5  6  7
TYPE ASSIGNMENTS      8  9 10  5  6  7  8  9 10  5  6  7  8  9 10 11 12 13 17 14
TYPE ASSIGNMENTS     15 18 19 16 20 11 12 13 17 14 15 18 19 16 20  1  1  1  1  1
TYPE ASSIGNMENTS      1  1  1  1  1  1  1  1  1  1  1  1  1  1  1  1  1  1  1  1
TYPE ASSIGNMENTS      1  1  1  1  1  1  1  1  1  1  1  1  1  1  1  1  1  2  2  2
TYPE ASSIGNMENTS      2  2  2  2  3  3  3  3  3  3  3  4  4  4  4  4  4  4  2  2
TYPE ASSIGNMENTS      2  2  2  2  2  3  3  3  3  3  3  3  4  4  4  4  4  4  4  2
TYPE ASSIGNMENTS      3  4  2  3  4  2  3  4  5  6  7  8  9 10  5  6  7  8  9 10
TYPE ASSIGNMENTS      5  6  7  8  9 10 11 12 13 17 14 15 18 19 16 20 11 12 13 17
TYPE ASSIGNMENTS     14 15 18 19 16 20
EXPONENTS  0.1950000D+05 0.2923000D+04 0.6645000D+03 0.1875000D+03 0.6062000D+02
EXPONENTS  0.2142000D+02 0.7950000D+01 0.8815000D+00 0.1950000D+05 0.2923000D+04
EXPONENTS  0.6645000D+03 0.1875000D+03 0.6062000D+02 0.2142000D+02 0.7950000D+01
EXPONENTS  0.8815000D+00 0.2257000D+01 0.3041000D+00 0.9158000D-01 0.4388000D+02
EXPONENTS  0.9926000D+01 0.2930000D+01 0.4388000D+02 0.9926000D+01 0.2930000D+01
EXPONENTS  0.4388000D+02 0.9926000D+01 0.2930000D+01 0.9132000D+00 0.9132000D+00
EXPONENTS  0.9132000D+00 0.2672000D+00 0.2672000D+00 0.2672000D+00 0.7361000D-01
EXPONENTS  0.7361000D-01 0.7361000D-01 0.3107000D+01 0.3107000D+01 0.3107000D+01
EXPONENTS  0.3107000D+01 0.3107000D+01 0.3107000D+01 0.8550000D+00 0.8550000D+00
EXPONENTS  0.8550000D+00 0.8550000D+00 0.8550000D+00 0.8550000D+00 0.2920000D+00
EXPONENTS  0.2920000D+00 0.2920000D+00 0.2920000D+00 0.2920000D+00 0.2920000D+00
EXPONENTS  0.1917000D+01 0.1917000D+01 0.1917000D+01 0.1917000D+01 0.1917000D+01
EXPONENTS  0.1917000D+01 0.1917000D+01 0.1917000D+01 0.1917000D+01 0.1917000D+01
EXPONENTS  0.7240000D+00 0.7240000D+00 0.7240000D+00 0.7240000D+00 0.7240000D+00
EXPONENTS  0.7240000D+00 0.7240000D+00 0.7240000D+00 0.7240000D+00 0.7240000D+00
EXPONENTS  0.4561000D+06 0.6833000D+05 0.1555000D+05 0.4405000D+04 0.1439000D+04
EXPONENTS  0.5204000D+03 0.2031000D+03 0.8396000D+02 0.3620000D+02 0.1583000D+02
EXPONENTS  0.6334000D+01 0.2694000D+01 0.4313000D+00 0.4561000D+06 0.6833000D+05
EXPONENTS  0.1555000D+05 0.4405000D+04 0.1439000D+04 0.5204000D+03 0.2031000D+03
EXPONENTS  0.8396000D+02 0.3620000D+02 0.1583000D+02 0.6334000D+01 0.2694000D+01
EXPONENTS  0.4313000D+00 0.4561000D+06 0.6833000D+05 0.1555000D+05 0.4405000D+04
EXPONENTS  0.1439000D+04 0.5204000D+03 0.2031000D+03 0.8396000D+02 0.3620000D+02
EXPONENTS  0.1583000D+02 0.6334000D+01 0.2694000D+01 0.4313000D+00 0.9768000D+00
EXPONENTS  0.1625000D+00 0.5910000D-01 0.6633000D+03 0.1568000D+03 0.4998000D+02
EXPONENTS  0.1842000D+02 0.7240000D+01 0.2922000D+01 0.3818000D+00 0.6633000D+03
EXPONENTS  0.1568000D+03 0.4998000D+02 0.1842000D+02 0.7240000D+01 0.2922000D+01
EXPONENTS  0.3818000D+00 0.6633000D+03 0.1568000D+03 0.4998000D+02 0.1842000D+02
EXPONENTS  0.7240000D+01 0.2922000D+01 0.3818000D+00 0.6633000D+03 0.1568000D+03
EXPONENTS  0.4998000D+02 0.1842000D+02 0.7240000D+01 0.2922000D+01 0.3818000D+00
EXPONENTS  0.6633000D+03 0.1568000D+03 0.4998000D+02 0.1842000D+02 0.7240000D+01
EXPONENTS  0.2922000D+01 0.3818000D+00 0.6633000D+03 0.1568000D+03 0.4998000D+02
EXPONENTS  0.1842000D+02 0.7240000D+01 0.2922000D+01 0.3818000D+00 0.1022000D+01
EXPONENTS  0.1022000D+01 0.1022000D+01 0.1301000D+00 0.1301000D+00 0.1301000D+00
EXPONENTS  0.4190000D-01 0.4190000D-01 0.4190000D-01 0.1046000D+01 0.1046000D+01
EXPONENTS  0.1046000D+01 0.1046000D+01 0.1046000D+01 0.1046000D+01 0.3440000D+00
EXPONENTS  0.3440000D+00 0.3440000D+00 0.3440000D+00 0.3440000D+00 0.3440000D+00
EXPONENTS  0.1350000D+00 0.1350000D+00 0.1350000D+00 0.1350000D+00 0.1350000D+00
EXPONENTS  0.1350000D+00 0.7060000D+00 0.7060000D+00 0.7060000D+00 0.7060000D+00
EXPONENTS  0.7060000D+00 0.7060000D+00 0.7060000D+00 0.7060000D+00 0.7060000D+00
EXPONENTS  0.7060000D+00 0.3120000D+00 0.3120000D+00 0.3120000D+00 0.3120000D+00
EXPONENTS  0.3120000D+00 0.3120000D+00 0.3120000D+00 0.3120000D+00 0.3120000D+00
EXPONENTS  0.3120000D+00
MO    1     MO 0.0        OCC NO =    2.0000000  ORB. ENERGY = -102.206792
  0.92913599D-04  0.17319497D-03  0.29360806D-03  0.44460913D-03  0.55598528D-03
  0.47865154D-03  0.18401113D-03 -0.79735033D-06 -0.63291197D-04 -0.11884966D-03
 -0.20238047D-03 -0.31702781D-03 -0.42485456D-03 -0.45698836D-03 -0.27437521D-03
  0.18044068D-03 -0.17121227D-04 -0.26415329D-04  0.93942013D-04 -0.22280333D-14
 -0.21789679D-14 -0.14397362D-14 -0.24855553D-18 -0.24308188D-18 -0.16061447D-18
  0.18570054D-03  0.18161107D-03  0.11999812D-03 -0.67707188D-17  0.47273744D-19
  0.22728504D-04  0.67494207D-18  0.54145522D-19 -0.14532760D-03 -0.24814114D-19
  0.21113900D-20  0.14188541D-04 -0.22419243D-03 -0.22419243D-03  0.44838486D-03
  0.60530731D-21  0.10130059D-17 -0.91494115D-20  0.76594034D-04  0.76594034D-04
 -0.15318807D-03 -0.87378481D-21 -0.44044297D-18 -0.16344953D-19  0.51316850D-04
  0.51316850D-04 -0.10263370D-03  0.52523002D-22  0.24979904D-18  0.83288959D-19
  0.45451165D-18  0.24273439D-18  0.41966449D-03  0.45573392D-18  0.24609526D-18
 -0.62949674D-03 -0.18192689D-17 -0.97429842D-18 -0.62949674D-03  0.29693607D-20
 -0.12460553D-18 -0.74184415D-19 -0.20271870D-03 -0.12436887D-18 -0.74152878D-19
  0.30407805D-03  0.49818546D-18  0.29670612D-18  0.30407805D-03 -0.11089708D-20
  0.61709960D+00  0.11545957D+01  0.19948856D+01  0.32339423D+01  0.49109993D+01
  0.68257116D+01  0.81147864D+01  0.72280275D+01  0.35882093D+01  0.57811801D+00
  0.88756514D-02  0.15860702D-02  0.59268968D-04 -0.80879629D-03 -0.15107153D-02
 -0.26219197D-02 -0.42543102D-02 -0.65851669D-02 -0.94260682D-02 -0.12303963D-01
 -0.13111926D-01 -0.98014309D-02 -0.51740013D-03  0.66483348D-02  0.39498747D-02
 -0.14809069D-04  0.28684331D-03  0.53535171D-03  0.93039416D-03  0.15078952D-02
  0.23419974D-02  0.33549788D-02  0.44299369D-02  0.47900758D-02  0.37554816D-02
  0.18687152D-03 -0.32193972D-02 -0.33326729D-02  0.15080816D-02 -0.25402660D-02
 -0.32205989D-03 -0.27200837D-04 -0.11919646D-16 -0.15700849D-16 -0.17321715D-16
 -0.14387675D-16 -0.76416438D-17 -0.19710028D-17  0.20261239D-20 -0.66441558D-17
 -0.87518444D-17 -0.96553346D-17 -0.80198652D-17 -0.42595452D-17 -0.10986610D-17
  0.11293861D-20 -0.76291349D-02 -0.10049283D-01 -0.11086713D-01 -0.92087896D-02
 -0.48910119D-02 -0.12615346D-02  0.12968147D-05  0.60968530D-17  0.80047211D-17
  0.91139639D-17  0.77173303D-17  0.44207839D-17  0.10055750D-17 -0.47066443D-18
  0.45505658D-17  0.59745592D-17  0.68024752D-17  0.57600566D-17  0.32995822D-17
  0.75054048D-18 -0.35129425D-18  0.61119247D-02  0.80245091D-02  0.91364940D-02
  0.77364079D-02  0.44317123D-02  0.10080608D-02 -0.47182793D-03  0.96566863D-18
  0.85541427D-18  0.39614824D-03 -0.10375779D-19  0.42361339D-19  0.11352323D-03
 -0.36024055D-20 -0.47866113D-20  0.18919851D-05 -0.74797817D-04 -0.74797817D-04
  0.14959563D-03 -0.22402192D-19  0.17700413D-18 -0.85858503D-19 -0.39879315D-04
 -0.39879315D-04  0.79758630D-04  0.46965085D-21  0.89829961D-19  0.90932551D-19
  0.13606523D-04  0.13606523D-04 -0.27213046D-04  0.10561880D-22  0.51786016D-19
  0.41866705D-20  0.92124600D-20  0.14272036D-19 -0.15052138D-03  0.77818264D-20
  0.16101007D-19  0.22578206D-03 -0.35419206D-19 -0.58917115D-19  0.22578206D-03
 -0.42619254D-20  0.11482930D-19  0.75361308D-20  0.27704230D-04  0.11708945D-19
  0.72947328D-20 -0.41556345D-04 -0.46157737D-19 -0.29903125D-19 -0.41556345D-04
  0.34989906D-21
MO    2     MO 0.0        OCC NO =    2.0000000  ORB. ENERGY =  -24.996357
  0.59462210D+00  0.11084014D+01  0.18790128D+01  0.28453792D+01  0.35581566D+01
  0.30632414D+01  0.11776218D+01 -0.51028282D-02  0.29397730D-03  0.55203731D-03
  0.94002433D-03  0.14725426D-02  0.19733803D-02  0.21226365D-02  0.12744282D-02
 -0.83811760D-03  0.62515071D-01  0.38253451D-03 -0.23547111D-03 -0.21284450D-15
 -0.20815727D-15 -0.13753831D-15  0.18346082D-16  0.17942068D-16  0.11855083D-16
  0.65138572D-02  0.63704100D-02  0.42091993D-02  0.22278831D-16 -0.19826877D-17
 -0.77476806D-03 -0.34614356D-17  0.27713461D-18 -0.28708133D-03  0.10104470D-18
 -0.12987226D-19 -0.26646569D-04  0.55662837D-03  0.55662837D-03 -0.11132567D-02
  0.10548434D-17 -0.22875795D-17 -0.47159373D-17  0.15068568D-03  0.15068568D-03
 -0.30137136D-03 -0.89847429D-19  0.21638528D-17  0.21061859D-18  0.41173436D-04
  0.41173436D-04 -0.82346871D-04  0.70646306D-21 -0.11592183D-17  0.41028784D-19
  0.32398158D-17 -0.22507143D-17  0.10720712D-03  0.23697823D-18  0.23711189D-17
 -0.16081068D-03 -0.99564256D-17  0.43810239D-17 -0.16081068D-03 -0.98583505D-18
  0.10491841D-18  0.12919437D-18 -0.12397328D-03  0.29196653D-18 -0.14388525D-18
  0.18595993D-03 -0.60672176D-18 -0.24369787D-18  0.18595993D-03  0.15909303D-19
  0.32388654D-04  0.60599295D-04  0.10470216D-03  0.16973441D-03  0.25775524D-03
  0.35824947D-03  0.42590694D-03  0.37936515D-03  0.18832822D-03  0.30342693D-04
  0.46584117D-06  0.83245358D-07  0.31107492D-08 -0.45734331D-04 -0.85425162D-04
 -0.14825951D-03 -0.24056494D-03 -0.37236595D-03 -0.53300803D-03 -0.69574197D-03
 -0.74142917D-03 -0.55423335D-03 -0.29256994D-04  0.37593785D-03  0.22335028D-03
 -0.83739609D-06  0.16803394D-04  0.31361114D-04  0.54502855D-04  0.88333095D-04
  0.13719513D-03  0.19653598D-03  0.25950745D-03  0.28060453D-03  0.21999759D-03
  0.10947007D-04 -0.18859355D-03 -0.19522929D-03  0.88344016D-04 -0.30880499D-03
  0.29118639D-03  0.66556207D-04  0.27468152D-17  0.36181721D-17  0.39916914D-17
  0.33155585D-17  0.17609737D-17  0.45420648D-18 -0.46690882D-21  0.75502890D-19
  0.99454251D-19  0.10972134D-18  0.91136183D-19  0.48404640D-19  0.12484969D-19
 -0.12834123D-22 -0.76065966D-02 -0.10019595D-01 -0.11053960D-01 -0.91815847D-02
 -0.48765627D-02 -0.12578078D-02  0.12929836D-05 -0.22958201D-17 -0.30142435D-17
 -0.34319380D-17 -0.29060241D-17 -0.16646825D-17 -0.37865752D-18  0.17723256D-18
 -0.97224466D-19 -0.12764860D-18 -0.14533732D-18 -0.12306567D-18 -0.70496755D-19
 -0.16035566D-19  0.75055274D-20  0.67061160D-02  0.88046387D-02  0.10024729D-01
  0.84885287D-02  0.48625561D-02  0.11060628D-02 -0.51769826D-03 -0.15753065D-18
 -0.23626732D-19  0.63982845D-03  0.41853361D-18 -0.26636706D-19 -0.89952987D-04
 -0.30200594D-19  0.30861214D-20 -0.48158299D-05  0.28745033D-04  0.28745033D-04
 -0.57490067D-04  0.60492602D-20  0.34779689D-18 -0.27797666D-19 -0.11368031D-03
 -0.11368031D-03  0.22736062D-03 -0.31575806D-20 -0.61874396D-18  0.27445627D-19
 -0.84946874D-06 -0.84946874D-06  0.16989375D-05  0.59297731D-22 -0.25727250D-18
  0.17784008D-19  0.32086519D-18 -0.29818533D-19 -0.21621173D-03  0.32315646D-18
 -0.28773169D-19  0.32431759D-03 -0.12857520D-17  0.11822877D-18  0.32431759D-03
  0.56589934D-20 -0.15087682D-18  0.96203445D-20 -0.19563543D-04 -0.15235531D-18
  0.13549867D-19  0.29345315D-04  0.60498576D-18 -0.42410901D-19  0.29345315D-04
  0.95588297D-21
MO    3     MO 0.0        OCC NO =    2.0000000  ORB. ENERGY =   -9.763156
  0.23750642D-04  0.44272226D-04  0.75052307D-04  0.11365131D-03  0.14212137D-03
  0.12235326D-03  0.47037059D-04 -0.20381928D-06 -0.28589447D-04 -0.53685919D-04
 -0.91417861D-04 -0.14320554D-03 -0.19191227D-03 -0.20642752D-03 -0.12393881D-03
  0.81507377D-04 -0.70545015D-04  0.18948208D-03 -0.99771363D-04  0.74599320D-15
  0.72956505D-15  0.48205448D-15 -0.52175858D-15 -0.51026850D-15 -0.33715597D-15
  0.11696464D-03  0.11438887D-03  0.75581560D-04 -0.35010053D-15  0.68023385D-16
  0.48839557D-03 -0.34862874D-17  0.49974276D-17  0.11917835D-03 -0.28097414D-18
 -0.11807954D-18 -0.17335819D-04 -0.44083973D-03 -0.44083973D-03  0.88167945D-03
 -0.13175837D-18 -0.14616675D-16  0.50591563D-17 -0.14886609D-04 -0.14886609D-04
  0.29773219D-04  0.42728839D-19  0.47703841D-17 -0.20739188D-17 -0.21737464D-04
 -0.21737464D-04  0.43474927D-04  0.27058784D-19 -0.32105976D-17  0.10663989D-18
 -0.20821983D-17  0.28128625D-17  0.43937249D-03 -0.18609142D-17  0.31419749D-17
 -0.65905873D-03  0.81075090D-17 -0.11580562D-16 -0.65905873D-03 -0.60892092D-18
  0.11522772D-17 -0.59407947D-18 -0.15527909D-03  0.11348858D-17 -0.63529016D-18
  0.23291864D-03 -0.45917174D-17  0.24175286D-17  0.23291864D-03  0.23382519D-18
 -0.13645356D-02 -0.25530513D-02 -0.44111071D-02 -0.71509190D-02 -0.10859241D-01
 -0.15093068D-01 -0.17943481D-01 -0.15982672D-01 -0.79342771D-02 -0.12783392D-02
 -0.19625911D-04 -0.35071311D-05 -0.13105602D-06 -0.17128221D+00 -0.31993058D+00
 -0.55525504D+00 -0.90095327D+00 -0.13945687D+01 -0.19961983D+01 -0.26056624D+01
 -0.27767681D+01 -0.20756905D+01 -0.10957201D+00  0.14079460D+01  0.83648168D+00
 -0.31361792D-02 -0.18357979D-03 -0.34262522D-03 -0.59545248D-03 -0.96505330D-03
 -0.14988789D-02 -0.21471872D-02 -0.28351607D-02 -0.30656497D-02 -0.24035091D-02
 -0.11959782D-03  0.20604150D-02  0.21329115D-02 -0.96517261D-03  0.63210836D-01
  0.49312547D-03  0.17302172D-05 -0.94497619D-16 -0.12447457D-15 -0.13732461D-15
 -0.11406388D-15 -0.60582095D-16 -0.15625890D-16  0.16062883D-19  0.10230204D-15
  0.13475475D-15  0.14866605D-15  0.12348425D-15  0.65585483D-16  0.16916409D-16
 -0.17389494D-19 -0.85822255D-01 -0.11304717D+00 -0.12471751D+00 -0.10359223D+00
 -0.55020350D-01 -0.14191353D-01  0.14588229D-04  0.23679647D-16  0.31089641D-16
  0.35397843D-16  0.29973440D-16  0.17169940D-16  0.39055658D-17 -0.18280197D-17
  0.10482720D-15  0.13763042D-15  0.15670236D-15  0.13268913D-15  0.76009440D-16
  0.17289511D-16 -0.80924425D-17 -0.68633027D-02 -0.90110133D-02 -0.10259702D-01
 -0.86874939D-02 -0.49765310D-02 -0.11319881D-02  0.52983275D-03  0.21932541D-17
  0.21844033D-16 -0.24093104D-02  0.17114029D-17  0.13585917D-17 -0.42220707D-04
 -0.13796296D-18 -0.92076990D-19 -0.42898105D-05 -0.11132529D-02 -0.11132529D-02
  0.22265058D-02  0.13573605D-16  0.11808004D-16  0.52332623D-17  0.16025600D-03
  0.16025600D-03 -0.32051199D-03 -0.11832002D-17 -0.38095081D-17 -0.60353759D-19
 -0.12045046D-04 -0.12045046D-04  0.24090092D-04  0.97081976D-19 -0.72811641D-18
 -0.73714018D-19  0.19910895D-17  0.64763101D-18 -0.47894423D-04  0.25206654D-17
  0.60603869D-18  0.71841635D-04 -0.84939340D-17 -0.25489317D-17  0.71841635D-04
 -0.10591187D-17 -0.76359318D-18 -0.19037339D-18  0.24742102D-04 -0.82611161D-18
 -0.18864566D-18 -0.37113153D-04  0.31168911D-17  0.75976584D-18 -0.37113153D-04
  0.12341561D-18
MO    4     MO 0.0        OCC NO =    2.0000000  ORB. ENERGY =   -7.445162
 -0.14631288D-03 -0.27273355D-03 -0.46235041D-03 -0.70013478D-03 -0.87552100D-03
 -0.75374203D-03 -0.28976595D-03  0.12556033D-05  0.14420561D-03  0.27079260D-03
  0.46111310D-03  0.72233095D-03  0.96800845D-03  0.10412236D-02  0.62514928D-03
 -0.41112447D-03 -0.44421949D-04 -0.21382669D-03  0.13956455D-03  0.41702839D-15
  0.40784465D-15  0.26948021D-15 -0.41891960D-15 -0.40969422D-15 -0.27070229D-15
 -0.99728125D-03 -0.97531928D-03 -0.64443469D-03  0.91641720D-16  0.12025180D-15
 -0.67226199D-03 -0.15982812D-18  0.29806574D-16  0.11627058D-03 -0.79495119D-18
 -0.63203787D-18  0.29663071D-04  0.12974734D-02  0.12974734D-02 -0.25949467D-02
 -0.10649334D-18  0.12673407D-16  0.66127829D-17 -0.23706590D-03 -0.23706590D-03
  0.47413180D-03  0.94648849D-19 -0.88680742D-18 -0.31767266D-17 -0.46445033D-04
 -0.46445033D-04  0.92890066D-04 -0.51106824D-19  0.65674902D-18  0.32566236D-17
  0.13043623D-18  0.45958897D-17 -0.51437419D-03  0.13777725D-19  0.45098852D-17
  0.77156129D-03 -0.40508642D-18 -0.18297554D-16  0.77156129D-03  0.16716346D-18
 -0.93634921D-18 -0.16894767D-17  0.53269352D-03 -0.92476009D-18 -0.16627095D-17
 -0.79904028D-03  0.37338077D-17  0.67311396D-17 -0.79904028D-03 -0.77664068D-20
  0.19501192D-04  0.36486806D-04  0.63041117D-04  0.10219700D-03  0.15519430D-03
  0.21570183D-03  0.25643836D-03  0.22841557D-03  0.11339233D-03  0.18269321D-04
  0.28048274D-06  0.50121989D-07  0.18729805D-08 -0.14149561D-02 -0.26429348D-02
 -0.45869415D-02 -0.74427419D-02 -0.11520480D-01 -0.16490521D-01 -0.21525281D-01
 -0.22938779D-01 -0.17147203D-01 -0.90517038D-03  0.11630990D-01  0.69101444D-02
 -0.25907861D-04 -0.76252950D-04 -0.14231514D-03 -0.24733119D-03 -0.40085111D-03
 -0.62258453D-03 -0.89187030D-03 -0.11776316D-02 -0.12733691D-02 -0.99833789D-03
 -0.49676963D-04  0.85582799D-03  0.88594062D-03 -0.40090066D-03  0.13746621D-03
  0.74970234D-04 -0.52274809D-04  0.23367685D-14  0.30780485D-14  0.33958086D-14
  0.28206094D-14  0.14980942D-14  0.38640219D-15 -0.39720831D-18 -0.44977407D-14
 -0.59245339D-14 -0.65361488D-14 -0.54290229D-14 -0.28834859D-14 -0.74373514D-15
  0.76453444D-18  0.11511959D+02  0.15163834D+02  0.16729261D+02  0.13895574D+02
  0.73802769D+01  0.19035887D+01 -0.19568245D-02  0.75016323D-16  0.98490933D-16
  0.11213917D-15  0.94954846D-16  0.54393791D-16  0.12372700D-16 -0.57911047D-17
  0.53448411D-16  0.70173845D-16  0.79898085D-16  0.67654417D-16  0.38755055D-16
  0.88154304D-17 -0.41261066D-17 -0.12946443D-02 -0.16997730D-02 -0.19353166D-02
 -0.16387466D-02 -0.93873717D-03 -0.21353014D-03  0.99943856D-04  0.29251874D-16
 -0.26796834D-16  0.92660596D-01  0.11194694D-17 -0.45149496D-18  0.10638529D-03
  0.10878174D-18  0.86915070D-19 -0.39117294D-05  0.13197236D-02  0.13197236D-02
 -0.26394472D-02 -0.16917391D-17 -0.28430210D-17  0.18948382D-16 -0.91710335D-04
 -0.91710335D-04  0.18342067D-03  0.11951409D-18  0.30949808D-17  0.77149282D-18
 -0.60322983D-05 -0.60322983D-05  0.12064597D-04 -0.61500038D-20 -0.91692070D-18
  0.67222375D-18 -0.21241895D-18 -0.88502602D-18  0.61448621D-03  0.18386424D-19
 -0.54053668D-18 -0.92172931D-03  0.61887042D-18  0.31956147D-17 -0.92172931D-03
  0.26701967D-17  0.23870349D-18  0.39417032D-18 -0.10502857D-03  0.22907649D-18
  0.36063585D-18  0.15754285D-03 -0.94518696D-18 -0.15431468D-17  0.15754285D-03
 -0.26627717D-18
MO    5     MO 0.0        OCC NO =    2.0000000  ORB. ENERGY =   -7.427129
  0.32771874D-16  0.61088192D-16  0.10355950D-15  0.15681961D-15  0.19610347D-15
  0.16882682D-15  0.64903194D-16 -0.28123617D-18 -0.19187210D-16 -0.36030183D-16
 -0.61353188D-16 -0.96109406D-16 -0.12879791D-15 -0.13853952D-15 -0.83178945D-16
  0.54701974D-16 -0.36089134D-16 -0.57289315D-16 -0.15254952D-16  0.87108029D-04
  0.85189750D-04  0.56288470D-04 -0.72048779D-04 -0.70462132D-04 -0.46557310D-04
 -0.65322105D-15 -0.63883592D-15 -0.42210591D-15  0.44370638D-04 -0.36699835D-04
 -0.15911278D-15  0.56281486D-04 -0.46551534D-04 -0.25605006D-16 -0.26219418D-05
  0.21686601D-05 -0.14151599D-16  0.50524675D-15  0.10048881D-14 -0.15101348D-14
  0.10943195D-14  0.52783390D-03 -0.43658188D-03 -0.38935243D-16 -0.36450209D-16
  0.75385452D-16  0.27901536D-15 -0.17876060D-04  0.14785644D-04  0.29591576D-16
  0.45722737D-16 -0.75314312D-16 -0.18435729D-16  0.56155131D-04 -0.46447022D-04
 -0.19062781D-03  0.15767204D-03  0.43693933D-15 -0.19063657D-03  0.15767929D-03
 -0.31548372D-14  0.76252001D-03 -0.63069542D-03  0.18440193D-14  0.68262469D-14
  0.50017497D-04 -0.41370464D-04 -0.77659925D-17  0.49949909D-04 -0.41314560D-04
  0.22253152D-15 -0.20000240D-03  0.16542595D-03 -0.19923355D-15 -0.39794996D-15
 -0.88424962D-17 -0.16544344D-16 -0.28584962D-16 -0.46339557D-16 -0.70370314D-16
 -0.97806462D-16 -0.11627777D-15 -0.10357130D-15 -0.51415893D-16 -0.82839242D-17
 -0.12718030D-18 -0.22726995D-19 -0.84927234D-21  0.60995804D-16  0.11393140D-15
  0.19773348D-15  0.32084107D-15  0.49662388D-15  0.71087196D-15  0.92790996D-15
  0.98884290D-15  0.73918014D-15  0.39020007D-16 -0.50138771D-15 -0.29788191D-15
  0.11168338D-17 -0.30006785D-16 -0.56003340D-16 -0.97328876D-16 -0.15774148D-15
 -0.24499721D-15 -0.35096557D-15 -0.46341733D-15 -0.50109160D-15 -0.39286231D-15
 -0.19548699D-16  0.33678233D-15  0.34863215D-15 -0.15776098D-15  0.16336859D-15
  0.15006687D-15 -0.15831282D-16  0.88830159D+01  0.11700925D+02  0.12908862D+02
  0.10722294D+02  0.56948706D+01  0.14688733D+01 -0.15099518D-02 -0.73473186D+01
 -0.96780676D+01 -0.10677176D+02 -0.88686218D+01 -0.47103405D+01 -0.12149342D+01
  0.12489111D-02 -0.52068375D-14 -0.68585735D-14 -0.75666133D-14 -0.62849421D-14
 -0.33380854D-14 -0.86098961D-15  0.88506805D-18 -0.33771119D-02 -0.44339003D-02
 -0.50483217D-02 -0.42747115D-02 -0.24487193D-02 -0.55699869D-03  0.26070604D-03
  0.27932762D-02  0.36673669D-02  0.41755670D-02  0.35356987D-02  0.20253843D-02
  0.46070467D-03 -0.21563514D-03  0.16381139D-14  0.21507234D-14  0.24487569D-14
  0.20735067D-14  0.11877845D-14  0.27017976D-15 -0.12645900D-15  0.68542964D-01
 -0.56693245D-01  0.25733486D-16  0.83071391D-04 -0.68709995D-04 -0.23521786D-17
 -0.46600765D-05  0.38544417D-05  0.19868808D-17  0.21897204D-16  0.12518399D-15
 -0.14708120D-15 -0.86436150D-17 -0.22289488D-02  0.18436078D-02 -0.21526215D-16
 -0.33752303D-16  0.55278519D-16  0.53612954D-17  0.19880066D-03 -0.16443197D-03
  0.31278920D-17  0.38383782D-17 -0.69662702D-17  0.31434771D-18 -0.52771241D-05
  0.43648140D-05 -0.13557300D-03  0.11213512D-03 -0.22942868D-16 -0.13585231D-03
  0.11236614D-03  0.13257723D-15  0.54257131D-03 -0.44877149D-03 -0.63748631D-16
  0.98604385D-18  0.19223805D-04 -0.15900390D-04 -0.52741726D-17  0.19240038D-04
 -0.15913817D-04 -0.53928037D-17 -0.76911453D-04  0.63614988D-04  0.21215322D-16
 -0.12592680D-16
MO    6     MO 0.0        OCC NO =    2.0000000  ORB. ENERGY =   -7.427129
  0.72819721D-17  0.13573912D-16  0.23011117D-16  0.34845613D-16  0.43574562D-16
  0.37513639D-16  0.14421612D-16 -0.62491206D-19 -0.51888931D-17 -0.97438222D-17
 -0.16592049D-16 -0.25991346D-16 -0.34831462D-16 -0.37465933D-16 -0.22494497D-16
  0.14793328D-16  0.14295683D-17 -0.22240946D-16 -0.15654126D-16  0.72048779D-04
  0.70462132D-04  0.46557310D-04  0.87108029D-04  0.85189750D-04  0.56288470D-04
 -0.12249780D-15 -0.11980017D-15 -0.79157040D-16  0.36699835D-04  0.44370638D-04
  0.14059289D-16  0.46551534D-04  0.56281486D-04 -0.27607280D-16 -0.21686601D-05
 -0.26219418D-05 -0.14732863D-17  0.25587782D-14 -0.26858506D-14  0.12707233D-15
 -0.49531731D-14  0.43658188D-03  0.52783390D-03 -0.98757286D-16  0.11451775D-15
 -0.15760467D-16  0.93520554D-16 -0.14785644D-04 -0.17876060D-04 -0.79208877D-18
  0.70752610D-17 -0.62831723D-17  0.46558486D-17  0.46447022D-04  0.56155131D-04
 -0.15767204D-03 -0.19062781D-03 -0.10393436D-16 -0.15767929D-03 -0.19063657D-03
 -0.15561641D-14  0.63069542D-03  0.76252001D-03  0.15873444D-14  0.20923559D-14
  0.41370464D-04  0.50017497D-04 -0.31219476D-17  0.41314560D-04  0.49949909D-04
 -0.49011562D-16 -0.16542595D-03 -0.20000240D-03  0.58377405D-16 -0.48281755D-15
 -0.18220924D-17 -0.34091419D-17 -0.58902419D-17 -0.95487691D-17 -0.14500568D-16
 -0.20154084D-16 -0.23960298D-16 -0.21341991D-16 -0.10594803D-16 -0.17069926D-17
 -0.26206883D-19 -0.46831442D-20 -0.17500179D-21  0.38033398D-17  0.71040926D-17
  0.12329497D-16  0.20005764D-16  0.30966546D-16  0.44325797D-16  0.57859011D-16
  0.61658431D-16  0.46090929D-16  0.24330583D-17 -0.31263591D-16 -0.18574165D-16
  0.69639193D-19 -0.96362742D-18 -0.17984717D-17 -0.31255856D-17 -0.50656547D-17
 -0.78677549D-17 -0.11270786D-16 -0.14882023D-16 -0.16091881D-16 -0.12616243D-16
 -0.62778009D-18  0.10815310D-16  0.11195851D-16 -0.50662810D-17 -0.99817411D-17
  0.24069370D-16  0.48783762D-17  0.73473186D+01  0.96780676D+01  0.10677176D+02
  0.88686218D+01  0.47103405D+01  0.12149342D+01 -0.12489111D-02  0.88830159D+01
  0.11700925D+02  0.12908862D+02  0.10722294D+02  0.56948706D+01  0.14688733D+01
 -0.15099518D-02  0.12755291D-14  0.16801581D-14  0.18536080D-14  0.15396345D-14
  0.81773730D-15  0.21091830D-15 -0.21681685D-18 -0.27932762D-02 -0.36673669D-02
 -0.41755670D-02 -0.35356987D-02 -0.20253843D-02 -0.46070467D-03  0.21563514D-03
 -0.33771119D-02 -0.44339003D-02 -0.50483217D-02 -0.42747115D-02 -0.24487193D-02
 -0.55699869D-03  0.26070604D-03  0.44102142D-15  0.57902879D-15  0.65926688D-15
  0.55824012D-15  0.31978143D-15  0.72739181D-16 -0.34045940D-16  0.56693245D-01
  0.68542964D-01  0.49178190D-16  0.68709995D-04  0.83071391D-04 -0.73240866D-17
 -0.38544417D-05 -0.46600765D-05 -0.27683632D-18  0.11712180D-15 -0.11802788D-15
  0.90608359D-18 -0.56665061D-16 -0.18436078D-02 -0.22289488D-02 -0.22261710D-16
  0.10776368D-16  0.11485341D-16  0.11514209D-16  0.16443197D-03  0.19880066D-03
  0.20710864D-17 -0.27739374D-17  0.70285092D-18  0.11500866D-17 -0.43648140D-05
 -0.52771241D-05 -0.11213512D-03 -0.13557300D-03 -0.82765668D-17 -0.11236614D-03
 -0.13585231D-03  0.20436882D-15  0.44877149D-03  0.54257131D-03 -0.17953912D-15
 -0.82368230D-16  0.15900390D-04  0.19223805D-04 -0.51925322D-18  0.15913817D-04
  0.19240038D-04 -0.31036958D-16 -0.63614988D-04 -0.76911453D-04  0.32594718D-16
  0.80721327D-17
MO    7     MO 0.0        OCC NO =    2.0000000  ORB. ENERGY =   -1.327667
 -0.64599439D-02 -0.12041615D-01 -0.20413498D-01 -0.30912053D-01 -0.38655630D-01
 -0.33278897D-01 -0.12793623D-01  0.55436863D-04 -0.12271507D+00 -0.23043716D+00
 -0.39239474D+00 -0.61468404D+00 -0.82374893D+00 -0.88605304D+00 -0.53198508D+00
  0.34985577D+00  0.20482539D+00  0.10406949D+00  0.39866873D-02 -0.11732341D-13
 -0.11473973D-13 -0.75813392D-14  0.73697872D-15  0.72074910D-15  0.47622940D-15
  0.26749880D+00  0.26160799D+00  0.17285546D+00 -0.19560747D-14  0.18117269D-15
  0.74105565D-01 -0.83721866D-16  0.41554858D-16  0.11621591D-01  0.42762291D-18
  0.27065278D-18  0.15614173D-03 -0.10523709D-01 -0.10523709D-01  0.21047417D-01
  0.46330057D-16 -0.59125884D-15  0.15584027D-16 -0.93191925D-02 -0.93191925D-02
  0.18638385D-01  0.14035730D-16 -0.25369888D-15  0.57142526D-17 -0.57470887D-03
 -0.57470887D-03  0.11494177D-02  0.14162842D-17  0.26502892D-16  0.33581193D-17
  0.58572563D-16 -0.34088220D-16  0.31932212D-02  0.19546672D-16  0.68933285D-17
 -0.47898318D-02 -0.19526436D-15  0.95371331D-16 -0.47898318D-02  0.39306460D-16
 -0.75974940D-18  0.74821812D-17  0.40589921D-02  0.11839176D-16 -0.17747572D-17
 -0.60884881D-02 -0.95599278D-17 -0.20671786D-16 -0.60884881D-02 -0.58580556D-17
  0.62913020D-03  0.11771050D-02  0.20337767D-02  0.32969893D-02  0.50067412D-02
  0.69587815D-02  0.82729873D-02  0.73689408D-02  0.36581629D-02  0.58938865D-03
  0.90486857D-05  0.16169912D-05  0.60424440D-07 -0.52708828D-04 -0.98452522D-04
 -0.17086913D-03 -0.27725115D-03 -0.42915186D-03 -0.61429189D-03 -0.80184280D-03
 -0.85449731D-03 -0.63875408D-03 -0.33718693D-04  0.43326847D-03  0.25741125D-03
 -0.96509921D-06  0.12209011D-01  0.22786360D-01  0.39600688D-01  0.64181066D-01
  0.99683244D-01  0.14279912D+00  0.18855294D+00  0.20388166D+00  0.15984586D+00
  0.79538772D-02 -0.13702832D+00 -0.14184971D+00  0.64189001D-01  0.94015488D-02
  0.47256447D-02 -0.15775322D-02 -0.55137962D-16 -0.72629070D-16 -0.80126879D-16
 -0.66554583D-16 -0.35348756D-16 -0.91174753D-17  0.93724546D-20  0.11160917D-18
  0.14701433D-18  0.16219125D-18  0.13471847D-18  0.71552254D-19  0.18455413D-19
 -0.18971538D-22  0.18334398D+00  0.24150517D+00  0.26643678D+00  0.22130637D+00
  0.11754119D+00  0.30317302D-01 -0.31165156D-04  0.27739033D-15  0.36419317D-15
  0.41466072D-15  0.35111767D-15  0.20113372D-15  0.45750943D-16 -0.21413959D-16
 -0.15482210D-15 -0.20327006D-15 -0.23143792D-15 -0.19597213D-15 -0.11226038D-15
 -0.25535342D-16  0.11951945D-16  0.34980815D+00  0.45927245D+00  0.52291547D+00
  0.44278335D+00  0.25364335D+00  0.57695062D-01 -0.27004464D-01 -0.92817120D-17
  0.14726875D-16 -0.55121550D-01 -0.33372549D-17  0.48157560D-18  0.25346834D-02
  0.32075404D-18 -0.27499184D-18  0.53726660D-04 -0.19630369D-01 -0.19630369D-01
  0.39260738D-01  0.11252987D-16  0.57684866D-16 -0.17432753D-16 -0.18305485D-02
 -0.18305485D-02  0.36610969D-02  0.34563093D-18  0.21648936D-16 -0.20404425D-17
  0.31788463D-03  0.31788463D-03 -0.63576926D-03 -0.83907771D-19  0.43037431D-18
  0.12305787D-17  0.83982938D-17 -0.58098420D-17 -0.59335788D-02  0.85132436D-17
 -0.55769598D-17  0.89003682D-02 -0.33708125D-16  0.23006486D-16  0.89003682D-02
 -0.33714557D-17  0.79774671D-18  0.13623544D-17  0.14387516D-03  0.37654256D-18
  0.16757743D-17 -0.21581274D-03 -0.27697827D-17 -0.57628375D-17 -0.21581274D-03
  0.89737638D-19
MO    8     MO 0.0        OCC NO =    2.0000000  ORB. ENERGY =   -0.881428
  0.50202835D-03  0.93580260D-03  0.15864155D-02  0.24023006D-02  0.30040853D-02
  0.25862376D-02  0.99424416D-03 -0.43082227D-05  0.45335458D-01  0.85131961D-01
  0.14496505D+00  0.22708689D+00  0.30432315D+00  0.32734058D+00  0.19653485D+00
 -0.12924959D+00 -0.80784528D-01 -0.50504455D-01 -0.21779803D-02 -0.47727656D-14
 -0.46676605D-14 -0.30841206D-14  0.53672666D-14  0.52490695D-14  0.34682822D-14
  0.64252610D+00  0.62837649D+00  0.41519492D+00 -0.32980383D-15  0.85266724D-15
  0.14560126D+00 -0.51912581D-16  0.21677157D-15  0.13207474D-01  0.47125578D-17
  0.97072727D-17 -0.24825766D-03 -0.16982202D-01 -0.16982202D-01  0.33964404D-01