 Molden2AIM, Version 4.0.0 (06/02/2016)           Time: Fri Jun 29 23:19:14 2018
GAUSSIAN             22 MOL ORBITALS    338 PRIMITIVES        2 NUCLEI
  F    1    (CENTRE  1)   0.00000000  0.00000000 -2.64110391  CHARGE =  9.0
  Br   2    (CENTRE  2)   0.00000000  0.00000000  0.67138946  CHARGE = 35.0
CENTRE ASSIGNMENTS    1  1  1  1  1  1  1  1  1  1  1  1  1  1  1  1  1  1  1  1
CENTRE ASSIGNMENTS    1  1  1  1  1  1  1  1  1  1  1  1  1  1  1  1  1  1  1  1
CENTRE ASSIGNMENTS    1  1  1  1  1  1  1  1  1  1  1  1  1  1  1  1  1  1  1  1
CENTRE ASSIGNMENTS    1  1  1  1  1  1  1  1  1  1  1  1  1  1  1  2  2  2  2  2
CENTRE ASSIGNMENTS    2  2  2  2  2  2  2  2  2  2  2  2  2  2  2  2  2  2  2  2
CENTRE ASSIGNMENTS    2  2  2  2  2  2  2  2  2  2  2  2  2  2  2  2  2  2  2  2
CENTRE ASSIGNMENTS    2  2  2  2  2  2  2  2  2  2  2  2  2  2  2  2  2  2  2  2
CENTRE ASSIGNMENTS    2  2  2  2  2  2  2  2  2  2  2  2  2  2  2  2  2  2  2  2
CENTRE ASSIGNMENTS    2  2  2  2  2  2  2  2  2  2  2  2  2  2  2  2  2  2  2  2
CENTRE ASSIGNMENTS    2  2  2  2  2  2  2  2  2  2  2  2  2  2  2  2  2  2  2  2
CENTRE ASSIGNMENTS    2  2  2  2  2  2  2  2  2  2  2  2  2  2  2  2  2  2  2  2
CENTRE ASSIGNMENTS    2  2  2  2  2  2  2  2  2  2  2  2  2  2  2  2  2  2  2  2
CENTRE ASSIGNMENTS    2  2  2  2  2  2  2  2  2  2  2  2  2  2  2  2  2  2  2  2
CENTRE ASSIGNMENTS    2  2  2  2  2  2  2  2  2  2  2  2  2  2  2  2  2  2  2  2
CENTRE ASSIGNMENTS    2  2  2  2  2  2  2  2  2  2  2  2  2  2  2  2  2  2  2  2
CENTRE ASSIGNMENTS    2  2  2  2  2  2  2  2  2  2  2  2  2  2  2  2  2  2  2  2
CENTRE ASSIGNMENTS    2  2  2  2  2  2  2  2  2  2  2  2  2  2  2  2  2  2
TYPE ASSIGNMENTS      1  1  1  1  1  1  1  1  1  1  1  1  1  1  1  1  1  1  1  2
TYPE ASSIGNMENTS      2  2  3  3  3  4  4  4  2  3  4  2  3  4  2  3  4  5  6  7
TYPE ASSIGNMENTS      8  9 10  5  6  7  8  9 10  5  6  7  8  9 10 11 12 13 17 14
TYPE ASSIGNMENTS     15 18 19 16 20 11 12 13 17 14 15 18 19 16 20  1  1  1  1  1
TYPE ASSIGNMENTS      1  1  1  1  1  1  1  1  1  1  1  1  1  1  1  1  1  1  1  1
TYPE ASSIGNMENTS      1  1  1  1  1  1  1  1  1  1  1  1  1  1  1  1  1  1  1  1
TYPE ASSIGNMENTS      1  1  1  1  1  1  1  1  1  1  1  1  1  1  1  1  1  1  1  1
TYPE ASSIGNMENTS      1  1  1  1  1  1  1  1  1  1  2  2  2  2  2  2  2  2  2  2
TYPE ASSIGNMENTS      2  3  3  3  3  3  3  3  3  3  3  3  4  4  4  4  4  4  4  4
TYPE ASSIGNMENTS      4  4  4  2  2  2  2  2  2  2  2  2  2  2  3  3  3  3  3  3
TYPE ASSIGNMENTS      3  3  3  3  3  4  4  4  4  4  4  4  4  4  4  4  2  2  2  2
TYPE ASSIGNMENTS      2  2  2  2  2  2  2  3  3  3  3  3  3  3  3  3  3  3  4  4
TYPE ASSIGNMENTS      4  4  4  4  4  4  4  4  4  2  3  4  2  3  4  2  3  4  5  5
TYPE ASSIGNMENTS      5  5  5  5  5  6  6  6  6  6  6  6  7  7  7  7  7  7  7  8
TYPE ASSIGNMENTS      8  8  8  8  8  8  9  9  9  9  9  9  9 10 10 10 10 10 10 10
TYPE ASSIGNMENTS      5  6  7  8  9 10  5  6  7  8  9 10  5  6  7  8  9 10 11 12
TYPE ASSIGNMENTS     13 17 14 15 18 19 16 20 11 12 13 17 14 15 18 19 16 20
EXPONENTS  0.1950000D+05 0.2923000D+04 0.6645000D+03 0.1875000D+03 0.6062000D+02
EXPONENTS  0.2142000D+02 0.7950000D+01 0.8815000D+00 0.1950000D+05 0.2923000D+04
EXPONENTS  0.6645000D+03 0.1875000D+03 0.6062000D+02 0.2142000D+02 0.7950000D+01
EXPONENTS  0.8815000D+00 0.2257000D+01 0.3041000D+00 0.9158000D-01 0.4388000D+02
EXPONENTS  0.9926000D+01 0.2930000D+01 0.4388000D+02 0.9926000D+01 0.2930000D+01
EXPONENTS  0.4388000D+02 0.9926000D+01 0.2930000D+01 0.9132000D+00 0.9132000D+00
EXPONENTS  0.9132000D+00 0.2672000D+00 0.2672000D+00 0.2672000D+00 0.7361000D-01
EXPONENTS  0.7361000D-01 0.7361000D-01 0.3107000D+01 0.3107000D+01 0.3107000D+01
EXPONENTS  0.3107000D+01 0.3107000D+01 0.3107000D+01 0.8550000D+00 0.8550000D+00
EXPONENTS  0.8550000D+00 0.8550000D+00 0.8550000D+00 0.8550000D+00 0.2920000D+00
EXPONENTS  0.2920000D+00 0.2920000D+00 0.2920000D+00 0.2920000D+00 0.2920000D+00
EXPONENTS  0.1917000D+01 0.1917000D+01 0.1917000D+01 0.1917000D+01 0.1917000D+01
EXPONENTS  0.1917000D+01 0.1917000D+01 0.1917000D+01 0.1917000D+01 0.1917000D+01
EXPONENTS  0.7240000D+00 0.7240000D+00 0.7240000D+00 0.7240000D+00 0.7240000D+00
EXPONENTS  0.7240000D+00 0.7240000D+00 0.7240000D+00 0.7240000D+00 0.7240000D+00
EXPONENTS  0.1063900D+08 0.1593400D+07 0.3626100D+06 0.1027000D+06 0.3350100D+05
EXPONENTS  0.1209300D+05 0.4715900D+04 0.1955600D+04 0.8526100D+03 0.3876700D+03
EXPONENTS  0.1826800D+03 0.8824500D+02 0.3926300D+02 0.1923400D+02 0.9405700D+01
EXPONENTS  0.4160100D+01 0.1899500D+01 0.3011400D+00 0.1063900D+08 0.1593400D+07
EXPONENTS  0.3626100D+06 0.1027000D+06 0.3350100D+05 0.1209300D+05 0.4715900D+04
EXPONENTS  0.1955600D+04 0.8526100D+03 0.3876700D+03 0.1826800D+03 0.8824500D+02
EXPONENTS  0.3926300D+02 0.1923400D+02 0.9405700D+01 0.4160100D+01 0.1899500D+01
EXPONENTS  0.3011400D+00 0.1063900D+08 0.1593400D+07 0.3626100D+06 0.1027000D+06
EXPONENTS  0.3350100D+05 0.1209300D+05 0.4715900D+04 0.1955600D+04 0.8526100D+03
EXPONENTS  0.3876700D+03 0.1826800D+03 0.8824500D+02 0.3926300D+02 0.1923400D+02
EXPONENTS  0.9405700D+01 0.4160100D+01 0.1899500D+01 0.3011400D+00 0.1063900D+08
EXPONENTS  0.1593400D+07 0.3626100D+06 0.1027000D+06 0.3350100D+05 0.1209300D+05
EXPONENTS  0.4715900D+04 0.1955600D+04 0.8526100D+03 0.3876700D+03 0.1826800D+03
EXPONENTS  0.8824500D+02 0.3926300D+02 0.1923400D+02 0.9405700D+01 0.4160100D+01
EXPONENTS  0.1899500D+01 0.3011400D+00 0.6047200D+00 0.1251500D+00 0.4559300D-01
EXPONENTS  0.8676500D+04 0.2055900D+04 0.6662300D+03 0.2531000D+03 0.1061200D+03
EXPONENTS  0.4724200D+02 0.2182500D+02 0.9968400D+01 0.4517100D+01 0.1998200D+01
EXPONENTS  0.2814500D+00 0.8676500D+04 0.2055900D+04 0.6662300D+03 0.2531000D+03
EXPONENTS  0.1061200D+03 0.4724200D+02 0.2182500D+02 0.9968400D+01 0.4517100D+01
EXPONENTS  0.1998200D+01 0.2814500D+00 0.8676500D+04 0.2055900D+04 0.6662300D+03
EXPONENTS  0.2531000D+03 0.1061200D+03 0.4724200D+02 0.2182500D+02 0.9968400D+01
EXPONENTS  0.4517100D+01 0.1998200D+01 0.2814500D+00 0.8676500D+04 0.2055900D+04
EXPONENTS  0.6662300D+03 0.2531000D+03 0.1061200D+03 0.4724200D+02 0.2182500D+02
EXPONENTS  0.9968400D+01 0.4517100D+01 0.1998200D+01 0.2814500D+00 0.8676500D+04
EXPONENTS  0.2055900D+04 0.6662300D+03 0.2531000D+03 0.1061200D+03 0.4724200D+02
EXPONENTS  0.2182500D+02 0.9968400D+01 0.4517100D+01 0.1998200D+01 0.2814500D+00
EXPONENTS  0.8676500D+04 0.2055900D+04 0.6662300D+03 0.2531000D+03 0.1061200D+03
EXPONENTS  0.4724200D+02 0.2182500D+02 0.9968400D+01 0.4517100D+01 0.1998200D+01
EXPONENTS  0.2814500D+00 0.8676500D+04 0.2055900D+04 0.6662300D+03 0.2531000D+03
EXPONENTS  0.1061200D+03 0.4724200D+02 0.2182500D+02 0.9968400D+01 0.4517100D+01
EXPONENTS  0.1998200D+01 0.2814500D+00 0.8676500D+04 0.2055900D+04 0.6662300D+03
EXPONENTS  0.2531000D+03 0.1061200D+03 0.4724200D+02 0.2182500D+02 0.9968400D+01
EXPONENTS  0.4517100D+01 0.1998200D+01 0.2814500D+00 0.8676500D+04 0.2055900D+04
EXPONENTS  0.6662300D+03 0.2531000D+03 0.1061200D+03 0.4724200D+02 0.2182500D+02
EXPONENTS  0.9968400D+01 0.4517100D+01 0.1998200D+01 0.2814500D+00 0.7098800D+00
EXPONENTS  0.7098800D+00 0.7098800D+00 0.1020400D+00 0.1020400D+00 0.1020400D+00
EXPONENTS  0.3514200D-01 0.3514200D-01 0.3514200D-01 0.4038300D+03 0.1211700D+03
EXPONENTS  0.4634500D+02 0.1972100D+02 0.8862400D+01 0.3996200D+01 0.1763600D+01
EXPONENTS  0.4038300D+03 0.1211700D+03 0.4634500D+02 0.1972100D+02 0.8862400D+01
EXPONENTS  0.3996200D+01 0.1763600D+01 0.4038300D+03 0.1211700D+03 0.4634500D+02
EXPONENTS  0.1972100D+02 0.8862400D+01 0.3996200D+01 0.1763600D+01 0.4038300D+03
EXPONENTS  0.1211700D+03 0.4634500D+02 0.1972100D+02 0.8862400D+01 0.3996200D+01
EXPONENTS  0.1763600D+01 0.4038300D+03 0.1211700D+03 0.4634500D+02 0.1972100D+02
EXPONENTS  0.8862400D+01 0.3996200D+01 0.1763600D+01 0.4038300D+03 0.1211700D+03
EXPONENTS  0.4634500D+02 0.1972100D+02 0.8862400D+01 0.3996200D+01 0.1763600D+01
EXPONENTS  0.7061900D+00 0.7061900D+00 0.7061900D+00 0.7061900D+00 0.7061900D+00
EXPONENTS  0.7061900D+00 0.2639000D+00 0.2639000D+00 0.2639000D+00 0.2639000D+00
EXPONENTS  0.2639000D+00 0.2639000D+00 0.1047000D+00 0.1047000D+00 0.1047000D+00
EXPONENTS  0.1047000D+00 0.1047000D+00 0.1047000D+00 0.5515000D+00 0.5515000D+00
EXPONENTS  0.5515000D+00 0.5515000D+00 0.5515000D+00 0.5515000D+00 0.5515000D+00
EXPONENTS  0.5515000D+00 0.5515000D+00 0.5515000D+00 0.2580000D+00 0.2580000D+00
EXPONENTS  0.2580000D+00 0.2580000D+00 0.2580000D+00 0.2580000D+00 0.2580000D+00
EXPONENTS  0.2580000D+00 0.2580000D+00 0.2580000D+00
MO    1     MO 0.0        OCC NO =    2.0000000  ORB. ENERGY = -484.268477
 -0.20057539D-04 -0.37388121D-04 -0.63382057D-04 -0.95979113D-04 -0.12002222D-03
 -0.10332795D-03 -0.39723036D-04  0.17212642D-06  0.13156250D-04  0.24705108D-04
  0.42068538D-04  0.65900115D-04  0.88313907D-04  0.94993514D-04  0.57033981D-04
 -0.37507946D-04  0.11712191D-04  0.26589832D-04 -0.13990905D-04 -0.46790684D-16
 -0.45760267D-16 -0.30235743D-16 -0.75323684D-18 -0.73664918D-18 -0.48673526D-18
 -0.11090520D-04 -0.10846286D-04 -0.71665997D-05 -0.12288336D-19  0.12792127D-19
 -0.69458445D-05  0.53934638D-20 -0.41281957D-20  0.29563050D-04  0.15030551D-22
  0.33187304D-21 -0.24127975D-05  0.18492399D-04  0.18492399D-04 -0.36984798D-04
 -0.15767380D-21  0.28760285D-19 -0.59617390D-19 -0.57861291D-05 -0.57861291D-05
  0.11572258D-04 -0.34624609D-21 -0.20576284D-19  0.31230042D-19 -0.69710625D-05
 -0.69710625D-05  0.13942125D-04  0.17263053D-21  0.64183498D-20 -0.64228024D-20
  0.24235724D-19 -0.40998671D-19 -0.42380180D-04  0.24563081D-19 -0.41494978D-19
  0.63570269D-04 -0.97270252D-19  0.16449099D-18  0.63570269D-04 -0.11824351D-20
 -0.45381784D-20  0.68886696D-20  0.18437898D-04 -0.45090302D-20  0.70231229D-20
 -0.27656847D-04  0.18123565D-19 -0.27689132D-19 -0.27656847D-04  0.33382988D-21
  0.78329316D+00  0.14734698D+01  0.25506489D+01  0.41810016D+01  0.65496200D+01
  0.98446367D+01  0.14070459D+02  0.18678884D+02  0.21754097D+02  0.19980928D+02
  0.11683634D+02  0.30658441D+01  0.16760850D+00 -0.59990350D-02  0.16765410D-02
 -0.49782158D-03  0.84869961D-04  0.69242215D-05  0.33566020D-04  0.61671180D-04
  0.10664368D-03  0.17464394D-03  0.27496903D-03  0.41523017D-03  0.60610925D-03
  0.83464925D-03  0.10664583D-02  0.11625645D-02  0.95696959D-03  0.26239456D-03
 -0.52926685D-03 -0.51579366D-03 -0.11287018D-03 -0.38024926D-05 -0.12881630D-06
  0.32769205D-09 -0.70947911D-04 -0.13908633D-03 -0.24360625D-03 -0.39797335D-03
 -0.62769982D-03 -0.94717100D-03 -0.13887409D-02 -0.19173865D-02 -0.24859011D-02
 -0.27644684D-02 -0.24011109D-02 -0.69747978D-03  0.17583381D-02  0.25620225D-02
  0.44106133D-03 -0.10760008D-02 -0.51214925D-03  0.24733251D-05  0.23642124D-04
  0.51226774D-04  0.87205460D-04  0.14234279D-03  0.22438945D-03  0.33866849D-03
  0.49654319D-03  0.68643571D-03  0.89092469D-03  0.99531868D-03  0.86943340D-03
  0.25752702D-03 -0.66942232D-03 -0.10297978D-02 -0.18024606D-03  0.56857623D-03
  0.48263523D-03 -0.18006689D-03  0.19982998D-03  0.41562676D-04  0.91441579D-06
 -0.89398703D-16 -0.12827131D-15 -0.16983803D-15 -0.19611481D-15 -0.18180745D-15
 -0.11770546D-15 -0.41545704D-16 -0.48695148D-17 -0.70793732D-19 -0.10366954D-19
 -0.10658839D-21  0.15788537D-15  0.22653755D-15  0.29994777D-15  0.34635469D-15
  0.32108673D-15  0.20787740D-15  0.73373089D-16  0.85999586D-17  0.12502748D-18
  0.18308883D-19  0.18824375D-21  0.25400319D-03  0.36444961D-03  0.48255066D-03
  0.55720929D-03  0.51655865D-03  0.33442949D-03  0.11804133D-03  0.13835461D-04
  0.20114200D-06  0.29455007D-07  0.30284322D-09 -0.17656503D-16 -0.25487364D-16
 -0.34050509D-16 -0.40453050D-16 -0.39202106D-16 -0.27250464D-16 -0.88670398D-17
  0.39908716D-17  0.43114728D-17  0.11099755D-17 -0.10826786D-20  0.30315085D-16
  0.43760173D-16  0.58462545D-16  0.69455297D-16  0.67307507D-16  0.46787303D-16
  0.15224140D-16 -0.68520710D-17 -0.74025228D-17 -0.19057568D-17  0.18588898D-20
 -0.22107945D-02 -0.31913073D-02 -0.42635103D-02 -0.50651810D-02 -0.49085487D-02
 -0.34120675D-02 -0.11102540D-02  0.49970242D-03  0.53984533D-03  0.13898153D-03
 -0.13556365D-06  0.17986291D-17  0.26134879D-17  0.34746625D-17  0.41693545D-17
  0.40338689D-17  0.28635772D-17  0.89000700D-18 -0.51098587D-18 -0.58700934D-18
 -0.15588549D-18  0.56243970D-19 -0.36499910D-17 -0.53035989D-17 -0.70511962D-17
 -0.84609473D-17 -0.81860039D-17 -0.58111096D-17 -0.18061075D-17  0.10369530D-17
  0.11912288D-17  0.31634127D-18 -0.11413692D-18  0.15929036D-02  0.23145596D-02
  0.30772339D-02  0.36924676D-02  0.35724788D-02  0.25360440D-02  0.78820884D-03
 -0.45253979D-03 -0.51986776D-03 -0.13805545D-03  0.49810838D-04 -0.36602000D-18
  0.68146843D-18 -0.32046513D-04 -0.49088152D-20  0.10409576D-19 -0.10710494D-04
  0.22876370D-21 -0.70383420D-21  0.16097180D-07 -0.15378322D-03 -0.16091757D-03
 -0.13711039D-03 -0.90297555D-04 -0.41615455D-04 -0.12461815D-04 -0.21202722D-05
 -0.15378322D-03 -0.16091757D-03 -0.13711039D-03 -0.90297555D-04 -0.41615455D-04
 -0.12461815D-04 -0.21202722D-05  0.30756645D-03  0.32183515D-03  0.27422077D-03
  0.18059511D-03  0.83230910D-04  0.24923631D-04  0.42405444D-05 -0.37264803D-17
 -0.38993601D-17 -0.33224635D-17 -0.21880934D-17 -0.10084271D-17 -0.30197513D-18
 -0.51378508D-19  0.16863326D-16  0.17645654D-16  0.15035041D-16  0.99017114D-17
  0.45634040D-17  0.13665187D-17  0.23250157D-18 -0.24809345D-16 -0.25960306D-16
 -0.22119570D-16 -0.14567409D-16 -0.67136853D-17 -0.20104239D-17 -0.34205658D-18
  0.61605283D-05  0.61605283D-05 -0.12321057D-04  0.20679418D-19 -0.14983760D-18
  0.19669684D-18  0.49135479D-05  0.49135479D-05 -0.98270958D-05 -0.25378228D-20
  0.14765118D-19 -0.19009999D-19 -0.97432213D-06 -0.97432213D-06  0.19486443D-05
  0.18896053D-21 -0.10470412D-20  0.15740323D-20 -0.30519700D-21 -0.14786288D-20
  0.11584276D-04  0.43146206D-20 -0.15102620D-20 -0.17376414D-04 -0.33990296D-20
  0.59461484D-20 -0.17376414D-04 -0.51179893D-20  0.36586385D-21 -0.17994374D-21
 -0.11828972D-05 -0.11210878D-21 -0.17117008D-21  0.17743458D-05 -0.98548277D-21
  0.71100128D-21  0.17743458D-05  0.60091981D-21
MO    2     MO 0.0        OCC NO =    2.0000000  ORB. ENERGY =  -63.124084
  0.22925464D-03  0.42734057D-03  0.72444733D-03  0.10970268D-02  0.13718358D-02
  0.11810229D-02  0.45402830D-03 -0.19673790D-05 -0.15212013D-03 -0.28565466D-03
 -0.48642063D-03 -0.76197503D-03 -0.10211362D-02 -0.10983696D-02 -0.65945969D-03
  0.43368844D-03 -0.11220606D-03 -0.31519798D-03  0.20670168D-03  0.55068715D-15
  0.53856000D-15  0.35584936D-15  0.14868442D-14  0.14541011D-14  0.96078610D-15
  0.14612103D-03  0.14290318D-03  0.94422173D-04 -0.83955835D-16  0.66650729D-17
  0.63235754D-04 -0.22454339D-18 -0.36876663D-17 -0.35726463D-03 -0.85700135D-19
  0.24733057D-18  0.35063350D-04 -0.18993120D-03 -0.18993120D-03  0.37986241D-03
  0.43356161D-19  0.20555129D-17 -0.40048139D-17  0.67301787D-04  0.67301787D-04
 -0.13460357D-03 -0.47302144D-20  0.12604785D-18  0.14581279D-17  0.87457691D-04
  0.87457691D-04 -0.17491538D-03  0.28802249D-20  0.96483466D-18 -0.24113478D-17
 -0.45903047D-18 -0.88694861D-18  0.46899835D-03 -0.39512396D-18 -0.88504526D-18
 -0.70349753D-03  0.17722154D-17  0.35458911D-17 -0.70349753D-03 -0.59342881D-19
  0.12936945D-19  0.49322478D-18 -0.21607442D-03  0.10021431D-20  0.49413584D-18
  0.32411163D-03 -0.39812977D-19 -0.19738102D-17  0.32411163D-03  0.11921499D-19
  0.27453322D-03  0.51643043D-03  0.89396653D-03  0.14653822D-02  0.22955496D-02
  0.34504065D-02  0.49314977D-02  0.65466857D-02  0.76245047D-02  0.70030338D-02
  0.40949493D-02  0.10745352D-02  0.58744419D-04 -0.21025773D-05  0.58760400D-06
 -0.17447946D-06  0.29745726D-07  0.24268421D-08 -0.25294655D+00 -0.46474118D+00
 -0.80364461D+00 -0.13160804D+01 -0.20721094D+01 -0.31290882D+01 -0.45675132D+01
 -0.62897432D+01 -0.80366079D+01 -0.87608443D+01 -0.72115238D+01 -0.19773509D+01
  0.39884449D+01  0.38869138D+01  0.85056624D+00  0.28654793D-01  0.97073284D-03
 -0.24694191D-05  0.90226490D-03  0.17688006D-02  0.30980104D-02  0.50611409D-02
  0.79826383D-02  0.12045445D-01  0.17661015D-01  0.24383953D-01  0.31613916D-01
  0.35156535D-01  0.30535615D-01  0.88700500D-02 -0.22361289D-01 -0.32581973D-01
 -0.56091032D-02  0.13683810D-01  0.65131486D-02 -0.31453984D-04 -0.31891809D-03
 -0.69101850D-03 -0.11763494D-02 -0.19201190D-02 -0.30268792D-02 -0.45684350D-02
 -0.66980702D-02 -0.92596066D-02 -0.12018040D-01 -0.13426253D-01 -0.11728136D-01
 -0.34738852D-02  0.90301060D-02  0.13891355D-01  0.24314114D-02 -0.76697527D-02
 -0.65104602D-02  0.24289945D-02 -0.30194687D-02 -0.60159741D-03 -0.13235681D-04
 -0.30672848D-13 -0.44010106D-13 -0.58271720D-13 -0.67287327D-13 -0.62378448D-13
 -0.40384944D-13 -0.14254402D-13 -0.16707389D-14 -0.24289451D-16 -0.35569197D-17
 -0.36570658D-19  0.58945927D-13  0.84576969D-13  0.11198440D-12  0.12931026D-12
  0.11987656D-12  0.77610269D-13  0.27393575D-13  0.32107632D-14  0.46678554D-16
  0.68355546D-17  0.70280117D-19 -0.75178706D-01 -0.10786813D+00 -0.14282314D+00
 -0.16492026D+00 -0.15288867D+00 -0.98982913D-01 -0.34937333D-01 -0.40949567D-02
 -0.59533091D-04 -0.87179585D-05 -0.89634153D-07  0.81536436D-15  0.11769878D-14
  0.15724276D-14  0.18680922D-14  0.18103245D-14  0.12584065D-14  0.40947340D-15
 -0.18429552D-15 -0.19910065D-15 -0.51257854D-16  0.49997303D-19 -0.13581931D-14
 -0.19605673D-14 -0.26192711D-14 -0.31117744D-14 -0.30155479D-14 -0.20961904D-14
 -0.68208027D-15  0.30699025D-15  0.33165189D-15  0.85382764D-16 -0.83283002D-19
  0.28958029D-01  0.41801247D-01  0.55845467D-01  0.66346128D-01  0.64294484D-01
  0.44692868D-01  0.14542630D-01 -0.65453378D-02 -0.70711485D-02 -0.18204455D-02
  0.17756765D-05 -0.15233509D-15 -0.22134964D-15 -0.29428691D-15 -0.35312392D-15
 -0.34164895D-15 -0.24253098D-15 -0.75379237D-16  0.43278003D-16  0.49716818D-16
  0.13202738D-16 -0.47635890D-17  0.27729634D-15  0.40292388D-15  0.53569197D-15
  0.64279328D-15  0.62190534D-15  0.44148038D-15  0.13721321D-15 -0.78779171D-16
 -0.90499779D-16 -0.24033012D-16  0.86711855D-17 -0.20347042D-01 -0.29565154D-01
 -0.39307215D-01 -0.47165937D-01 -0.45633253D-01 -0.32394296D-01 -0.10068229D-01
  0.57805418D-02  0.66405593D-02  0.17634589D-02 -0.63626146D-03  0.18339315D-16
 -0.32366753D-16  0.43595644D-03  0.56777725D-18 -0.83713057D-18  0.15027184D-03
 -0.38028979D-19  0.30708042D-19 -0.66577569D-07 -0.26227205D-02 -0.27443944D-02
 -0.23383709D-02 -0.15399941D-02 -0.70973741D-03 -0.21253202D-03 -0.36160521D-04
 -0.26227205D-02 -0.27443944D-02 -0.23383709D-02 -0.15399941D-02 -0.70973741D-03
 -0.21253202D-03 -0.36160521D-04  0.52454411D-02  0.54887889D-02  0.46767419D-02
  0.30799881D-02  0.14194748D-02  0.42506403D-03  0.72321041D-04 -0.37861838D-16
 -0.39618334D-16 -0.33756941D-16 -0.22231498D-16 -0.10245835D-16 -0.30681320D-17
 -0.52201665D-18  0.51761377D-14  0.54162704D-14  0.46149523D-14  0.30392950D-14
  0.14007206D-14  0.41944804D-15  0.71365528D-16 -0.67221745D-14 -0.70340313D-14
 -0.59933712D-14 -0.39470880D-14 -0.18190954D-14 -0.54473105D-15 -0.92681370D-16
 -0.52908071D-04 -0.52908071D-04  0.10581614D-03  0.18513983D-18 -0.20489532D-16
  0.27826609D-16 -0.64108443D-04 -0.64108443D-04  0.12821689D-03 -0.66328096D-20
  0.33064087D-17 -0.52052203D-17  0.13521417D-04  0.13521417D-04 -0.27042833D-04
  0.59448516D-21 -0.24137160D-18  0.27212798D-18 -0.41422970D-19  0.41251908D-19
 -0.14506701D-03 -0.34739861D-19  0.33007179D-19  0.21760051D-03  0.15900877D-18
 -0.15676290D-18  0.21760051D-03 -0.22060180D-19  0.93653395D-19 -0.18197807D-18
  0.15781568D-04  0.91629641D-19 -0.18162203D-18 -0.23672352D-04 -0.37258983D-18
  0.72755623D-18 -0.23672352D-04  0.95305540D-21
MO    3     MO 0.0        OCC NO =    2.0000000  ORB. ENERGY =  -56.787285
 -0.16874885D-03 -0.31455517D-03 -0.53324835D-03 -0.80749516D-03 -0.10097755D-02
 -0.86932267D-03 -0.33419937D-03  0.14481406D-05  0.11161522D-03  0.20959361D-03
  0.35690177D-03  0.55908452D-03  0.74923902D-03  0.80590759D-03  0.48386586D-03
 -0.31821055D-03  0.75020720D-04  0.48498146D-03  0.14152631D-03  0.90902446D-15
  0.88900607D-15  0.58740390D-15 -0.84598752D-15 -0.82735731D-15 -0.54666996D-15
 -0.26334017D-04 -0.25754093D-04 -0.17016818D-04 -0.33973884D-15 -0.93678643D-16
  0.87251649D-05 -0.10521669D-16  0.11542565D-16  0.39540423D-03  0.39404465D-18
 -0.51060329D-18  0.14631704D-04 -0.12440765D-04 -0.12440765D-04  0.24881530D-04
 -0.77131944D-19 -0.14736169D-16  0.16387489D-16 -0.35114432D-04 -0.35114432D-04
  0.70228865D-04  0.28881461D-19  0.45821759D-17 -0.57465104D-17 -0.40482453D-04
 -0.40482453D-04  0.80964905D-04  0.67330484D-20 -0.10065719D-16  0.13634434D-16
 -0.57938759D-17  0.82750820D-17  0.26833134D-03 -0.58001896D-17  0.82823266D-17
 -0.40249702D-03  0.23181817D-16 -0.33107572D-16 -0.40249702D-03 -0.24937667D-18
  0.33336010D-17 -0.43224501D-17 -0.48076602D-04  0.33352139D-17 -0.43251433D-17
  0.72114903D-04 -0.13336017D-16  0.17292494D-16  0.72114903D-04  0.10620819D-18
 -0.18588420D-05 -0.34967082D-05 -0.60529744D-05 -0.99219831D-05 -0.15542979D-04
 -0.23362421D-04 -0.33390768D-04 -0.44327074D-04 -0.51624898D-04 -0.47416970D-04
 -0.27726567D-04 -0.72755899D-05 -0.39775366D-06  0.14236379D-07 -0.39786187D-08
  0.11813861D-08 -0.20140588D-09 -0.16431950D-10 -0.31894359D-03 -0.58599820D-03
 -0.10133259D-02 -0.16594629D-02 -0.26127497D-02 -0.39455080D-02 -0.57592368D-02
 -0.79308189D-02 -0.10133463D-01 -0.11046662D-01 -0.90931042D-02 -0.24932674D-02
  0.50290821D-02  0.49010601D-02  0.10724900D-02  0.36131202D-04  0.12240097D-05
 -0.31137227D-08 -0.14500477D-04 -0.28426743D-04 -0.49788736D-04 -0.81338593D-04
 -0.12829055D-03 -0.19358472D-03 -0.28383366D-03 -0.39187932D-03 -0.50807348D-03
 -0.56500761D-03 -0.49074389D-03 -0.14255232D-03  0.35937267D-03  0.52363131D-03
  0.90145002D-04 -0.21991521D-03 -0.10467409D-03  0.50550317D-06  0.30063581D-05
  0.65140520D-05  0.11089141D-04  0.18100464D-04  0.28533605D-04  0.43065451D-04
  0.63140970D-04  0.87287908D-04  0.11329095D-03  0.12656580D-03  0.11055809D-03
  0.32747414D-04 -0.85124466D-04 -0.13095020D-03 -0.22920284D-04  0.72300769D-04
  0.61372418D-04 -0.22897501D-04  0.20205548D-03 -0.30251889D-03 -0.10138898D-04
  0.97592742D-11  0.14002831D-10  0.18540492D-10  0.21409015D-10  0.19847142D-10
  0.12849402D-10  0.45353669D-11  0.53158411D-12  0.77282491D-14  0.11317161D-14
  0.11635799D-16 -0.13616221D-10 -0.19536866D-10 -0.25867850D-10 -0.29870037D-10
 -0.27690899D-10 -0.17927593D-10 -0.63277818D-11 -0.74167059D-12 -0.10782518D-13
 -0.15789797D-14 -0.16234363D-16  0.52016077D+02  0.74633862D+02  0.98819201D+02
  0.11410818D+03  0.10578353D+03  0.68486186D+02  0.24173109D+02  0.28332968D+01
  0.41190891D-01  0.60319475D-02  0.62017788D-04 -0.21273401D-14 -0.30708399D-14
 -0.41025687D-14 -0.48739775D-14 -0.47232578D-14 -0.32832666D-14 -0.10683435D-14
  0.48083934D-15  0.51946691D-15  0.13373517D-15 -0.13044631D-18  0.28275532D-14
  0.40816056D-14  0.54529275D-14  0.64782451D-14  0.62779161D-14  0.43639525D-14
  0.14199883D-14 -0.63910742D-15 -0.69044924D-15 -0.17775404D-15  0.17338265D-18
 -0.27361117D-01 -0.39496086D-01 -0.52765827D-01 -0.62687422D-01 -0.60748917D-01
 -0.42228246D-01 -0.13740666D-01  0.61843903D-02  0.66812048D-02  0.17200557D-02
 -0.16777555D-05  0.16318617D-14  0.23711675D-14  0.31524946D-14  0.37827753D-14
  0.36598519D-14  0.25980687D-14  0.80748628D-15 -0.46360768D-15 -0.53258231D-15
 -0.14143191D-15  0.51029075D-16 -0.22319979D-14 -0.32431919D-14 -0.43118613D-14
 -0.51739350D-14 -0.50058050D-14 -0.35535387D-14 -0.11044488D-14  0.63410481D-15
  0.72844566D-15  0.19344515D-15 -0.69795612D-16  0.20114267D-01  0.29226923D-01
  0.38857533D-01  0.46626349D-01  0.45111199D-01  0.32023699D-01  0.99530461D-02
 -0.57144112D-02 -0.65645899D-02 -0.17432846D-02  0.62898250D-03 -0.27002432D-15
  0.37318303D-15 -0.18081872D-02 -0.68833124D-17  0.95903002D-17  0.37972891D-04
  0.49238806D-18 -0.71313539D-18  0.25479600D-05  0.46039709D-02  0.48175595D-02
  0.41048185D-02  0.27033333D-02  0.12458858D-02  0.37308253D-03  0.63476830D-04
  0.46039709D-02  0.48175595D-02  0.41048185D-02  0.27033333D-02  0.12458858D-02
  0.37308253D-03  0.63476830D-04 -0.92079418D-02 -0.96351190D-02 -0.82096371D-02
 -0.54066667D-02 -0.24917717D-02 -0.74616507D-03 -0.12695366D-03 -0.81508312D-15
 -0.85289666D-15 -0.72671360D-15 -0.47859585D-15 -0.22057058D-15 -0.66050216D-16
 -0.11237884D-16 -0.83708601D-14 -0.87592032D-14 -0.74633099D-14 -0.49151538D-14
 -0.22652481D-14 -0.67833220D-15 -0.11541247D-15  0.13991406D-13  0.14640499D-13
  0.12474489D-13  0.82153940D-14  0.37862305D-14  0.11337929D-14  0.19290524D-15
 -0.87121136D-04 -0.87121136D-04  0.17424227D-03  0.37105269D-17  0.49219959D-16
 -0.76668363D-16  0.83665019D-04  0.83665019D-04 -0.16733004D-03 -0.41541377D-18
 -0.12642900D-16  0.18369804D-16  0.20072278D-05  0.20072278D-05 -0.40144556D-05
  0.31848924D-19  0.42503140D-18 -0.72974650D-18 -0.16186997D-18  0.36639819D-18
  0.18900493D-04 -0.19007785D-18  0.33260648D-18 -0.28350739D-04  0.67568775D-18
 -0.14318011D-17 -0.28350739D-04  0.73155999D-19 -0.77117417D-18  0.10685194D-17
  0.26500537D-04 -0.76828047D-18  0.10715818D-17 -0.39750805D-04  0.30818030D-17
 -0.42771400D-17 -0.39750805D-04 -0.21838098D-20
MO    4     MO 0.0        OCC NO =    2.0000000  ORB. ENERGY =  -56.781482
  0.33926631D-16  0.63240709D-16  0.10720855D-15  0.16234534D-15  0.20301342D-15
  0.17477564D-15  0.67190138D-16 -0.29114586D-18 -0.22568170D-16 -0.42379027D-16
 -0.72164175D-16 -0.11304475D-15 -0.15149327D-15 -0.16295143D-15 -0.97835828D-16
  0.64340956D-16 -0.18785405D-16 -0.70820057D-16 -0.89662029D-16 -0.25274164D-04
 -0.24717580D-04 -0.16331950D-04  0.12591813D-04  0.12314518D-04  0.81367230D-05
 -0.12937344D-15 -0.12652440D-15 -0.83600020D-16  0.23628190D-04 -0.11771775D-04
  0.10192987D-15 -0.31577402D-04  0.15732143D-04 -0.11379277D-15  0.98183708D-06
 -0.48915997D-06 -0.85983884D-17 -0.12646231D-13  0.12496219D-13  0.15001200D-15
  0.25648819D-14 -0.41715459D-04  0.20783013D-04  0.12472462D-14 -0.13958771D-14
  0.14863086D-15 -0.20009870D-15  0.15925950D-04 -0.79344502D-05 -0.68121811D-16
  0.11543076D-15 -0.47308945D-16  0.13294224D-16 -0.39511654D-04  0.19685058D-04
 -0.33399264D-04  0.16639810D-04 -0.17056330D-15 -0.33404238D-04  0.16642289D-04
  0.35326754D-14  0.13360203D-03 -0.66561720D-04 -0.30209855D-14 -0.70967266D-15
  0.15102638D-04 -0.75242688D-05 -0.13336269D-15  0.15103250D-04 -0.75245735D-05
 -0.42838026D-16 -0.60411165D-04  0.30097380D-04  0.44292609D-15  0.47892974D-16
 -0.24129432D-16 -0.45390401D-16 -0.78573021D-16 -0.12879622D-15 -0.20176177D-15
 -0.30326512D-15 -0.43344203D-15 -0.57540507D-15 -0.67013736D-15 -0.61551468D-15
 -0.35991564D-15 -0.94443665D-16 -0.51631983D-17  0.18480093D-18 -0.51646029D-19
  0.15335449D-19 -0.26144285D-20 -0.21330141D-21 -0.12246585D-15 -0.22500771D-15
 -0.38909018D-15 -0.63718955D-15 -0.10032263D-14 -0.15149700D-14 -0.22113936D-14
 -0.30452233D-14 -0.38909801D-14 -0.42416243D-14 -0.34915099D-14 -0.95734830D-15
  0.19310336D-14  0.18818766D-14  0.41180761D-15  0.13873419D-16  0.46998712D-18
 -0.11955866D-20 -0.52799750D-16 -0.10350866D-15 -0.18129285D-15 -0.29617353D-15
 -0.46713699D-15 -0.70488886D-15 -0.10335071D-14 -0.14269275D-14 -0.18500186D-14
 -0.20573296D-14 -0.17869174D-14 -0.51906755D-15  0.13085630D-14  0.19066685D-14
  0.32823980D-15 -0.80076456D-15 -0.38114374D-15  0.18406595D-17  0.18492668D-16
  0.40069147D-16  0.68211368D-16  0.11133932D-15  0.17551552D-15  0.26490361D-15
  0.38839186D-15  0.53692417D-15  0.69687371D-15  0.77852980D-15  0.68006340D-15
  0.20143544D-15 -0.52361644D-15 -0.80549907D-15 -0.14098693D-15  0.44473549D-15
  0.37751317D-15 -0.14084679D-15  0.23785570D-15  0.10225706D-15  0.16872124D-16
  0.46553830D+02  0.66796504D+02  0.88442122D+02  0.10212559D+03  0.94675123D+02
  0.61294400D+02  0.21634672D+02  0.25357702D+01  0.36865405D-01  0.53985281D-02
  0.55505253D-04 -0.23193532D+02 -0.33278613D+02 -0.44062652D+02 -0.50879879D+02
 -0.47167989D+02 -0.30537416D+02 -0.10778586D+02 -0.12633433D+01 -0.18366673D-01
 -0.26895948D-02 -0.27653211D-04 -0.14806926D-10 -0.21245318D-10 -0.28129930D-10
 -0.32482099D-10 -0.30112400D-10 -0.19495317D-10 -0.68811310D-11 -0.80652788D-12
 -0.11725423D-13 -0.17170576D-14 -0.17654019D-16 -0.68737435D-02 -0.99223277D-02
 -0.13255993D-01 -0.15748526D-01 -0.15261529D-01 -0.10608709D-01 -0.34519722D-02
  0.15536614D-02  0.16784727D-02  0.43211766D-03 -0.42149088D-06  0.34245602D-02
  0.49433920D-02  0.66042535D-02  0.78460558D-02  0.76034294D-02  0.52853534D-02
  0.17198033D-02 -0.77404796D-03 -0.83623004D-03 -0.21528486D-03  0.20999051D-06
  0.18964614D-14  0.27375638D-14  0.36573199D-14  0.43450082D-14  0.42106460D-14
  0.29269361D-14  0.95239693D-15 -0.42865420D-15 -0.46308955D-15 -0.11922099D-15
  0.11628906D-18  0.70835843D-02  0.10292762D-01  0.13684347D-01  0.16420269D-01
  0.15886683D-01  0.11277695D-01  0.35051359D-02 -0.20124279D-02 -0.23118330D-02
 -0.61392756D-03  0.22150698D-03 -0.35291047D-02 -0.51279457D-02 -0.68176633D-02
 -0.81807240D-02 -0.79148867D-02 -0.56186480D-02 -0.17462899D-02  0.10026095D-02
  0.11517758D-02  0.30586417D-03 -0.11035675D-03 -0.33928987D-14 -0.49300323D-14
 -0.65545351D-14 -0.78649883D-14 -0.76094110D-14 -0.54017958D-14 -0.16788917D-14
  0.96391371D-15  0.11073229D-14  0.29405932D-15 -0.10609752D-15 -0.12153874D-02
  0.60551682D-03  0.21144856D-15 -0.31310462D-04  0.15599151D-04 -0.19156373D-16
  0.24592989D-05 -0.12252446D-05 -0.21338793D-17 -0.44916520D-14 -0.47000298D-14
 -0.40046770D-14 -0.26373825D-14 -0.12154911D-14 -0.36398077D-15 -0.61928243D-16
 -0.59959084D-14 -0.62740721D-14 -0.53458452D-14 -0.35206432D-14 -0.16225596D-14
 -0.48587811D-15 -0.82668041D-16  0.10487560D-13  0.10974102D-13  0.93505222D-14
  0.61580257D-14  0.28380507D-14  0.84985888D-15  0.14459628D-15  0.23121873D-13
  0.24194548D-13  0.20615050D-13  0.13576569D-13  0.62570365D-14  0.18736797D-14
  0.31879072D-15 -0.12280946D-01 -0.12850687D-01 -0.10949473D-01 -0.72110556D-02