 Molden2AIM, Version 4.0.0 (06/02/2016)           Time: Fri Jun 29 23:17:48 2018
GAUSSIAN              3 MOL ORBITALS    154 PRIMITIVES        2 NUCLEI
  Li   1    (CENTRE  1)   0.00000000  0.00000000  2.59176694  CHARGE =  3.0
  Li   2    (CENTRE  2)   0.00000000  0.00000000 -2.59176694  CHARGE =  3.0
CENTRE ASSIGNMENTS    1  1  1  1  1  1  1  1  1  1  1  1  1  1  1  1  1  1  1  1
CENTRE ASSIGNMENTS    1  1  1  1  1  1  1  1  1  1  1  1  1  1  1  1  1  1  1  1
CENTRE ASSIGNMENTS    1  1  1  1  1  1  1  1  1  1  1  1  1  1  1  1  1  1  1  1
CENTRE ASSIGNMENTS    1  1  1  1  1  1  1  1  1  1  1  1  1  1  1  1  1  2  2  2
CENTRE ASSIGNMENTS    2  2  2  2  2  2  2  2  2  2  2  2  2  2  2  2  2  2  2  2
CENTRE ASSIGNMENTS    2  2  2  2  2  2  2  2  2  2  2  2  2  2  2  2  2  2  2  2
CENTRE ASSIGNMENTS    2  2  2  2  2  2  2  2  2  2  2  2  2  2  2  2  2  2  2  2
CENTRE ASSIGNMENTS    2  2  2  2  2  2  2  2  2  2  2  2  2  2
TYPE ASSIGNMENTS      1  1  1  1  1  1  1  1  1  1  1  1  1  1  1  1  1  1  1  1
TYPE ASSIGNMENTS      1  2  2  2  3  3  3  4  4  4  2  3  4  2  3  4  2  3  4  5
TYPE ASSIGNMENTS      6  7  8  9 10  5  6  7  8  9 10  5  6  7  8  9 10 11 12 13
TYPE ASSIGNMENTS     17 14 15 18 19 16 20 11 12 13 17 14 15 18 19 16 20  1  1  1
TYPE ASSIGNMENTS      1  1  1  1  1  1  1  1  1  1  1  1  1  1  1  1  1  1  2  2
TYPE ASSIGNMENTS      2  3  3  3  4  4  4  2  3  4  2  3  4  2  3  4  5  6  7  8
TYPE ASSIGNMENTS      9 10  5  6  7  8  9 10  5  6  7  8  9 10 11 12 13 17 14 15
TYPE ASSIGNMENTS     18 19 16 20 11 12 13 17 14 15 18 19 16 20
EXPONENTS  0.5988000D+04 0.8989000D+03 0.2059000D+03 0.5924000D+02 0.1987000D+02
EXPONENTS  0.7406000D+01 0.2930000D+01 0.1189000D+01 0.4798000D+00 0.5988000D+04
EXPONENTS  0.8989000D+03 0.2059000D+03 0.5924000D+02 0.1987000D+02 0.7406000D+01
EXPONENTS  0.2930000D+01 0.1189000D+01 0.4798000D+00 0.7509000D-01 0.2832000D-01
EXPONENTS  0.7600000D-02 0.3266000D+01 0.6511000D+00 0.1696000D+00 0.3266000D+01
EXPONENTS  0.6511000D+00 0.1696000D+00 0.3266000D+01 0.6511000D+00 0.1696000D+00
EXPONENTS  0.5578000D-01 0.5578000D-01 0.5578000D-01 0.2050000D-01 0.2050000D-01
EXPONENTS  0.2050000D-01 0.9100000D-02 0.9100000D-02 0.9100000D-02 0.1874000D+00
EXPONENTS  0.1874000D+00 0.1874000D+00 0.1874000D+00 0.1874000D+00 0.1874000D+00
EXPONENTS  0.8010000D-01 0.8010000D-01 0.8010000D-01 0.8010000D-01 0.8010000D-01
EXPONENTS  0.8010000D-01 0.3710000D-01 0.3710000D-01 0.3710000D-01 0.3710000D-01
EXPONENTS  0.3710000D-01 0.3710000D-01 0.1829000D+00 0.1829000D+00 0.1829000D+00
EXPONENTS  0.1829000D+00 0.1829000D+00 0.1829000D+00 0.1829000D+00 0.1829000D+00
EXPONENTS  0.1829000D+00 0.1829000D+00 0.8160000D-01 0.8160000D-01 0.8160000D-01
EXPONENTS  0.8160000D-01 0.8160000D-01 0.8160000D-01 0.8160000D-01 0.8160000D-01
EXPONENTS  0.8160000D-01 0.8160000D-01 0.5988000D+04 0.8989000D+03 0.2059000D+03
EXPONENTS  0.5924000D+02 0.1987000D+02 0.7406000D+01 0.2930000D+01 0.1189000D+01
EXPONENTS  0.4798000D+00 0.5988000D+04 0.8989000D+03 0.2059000D+03 0.5924000D+02
EXPONENTS  0.1987000D+02 0.7406000D+01 0.2930000D+01 0.1189000D+01 0.4798000D+00
EXPONENTS  0.7509000D-01 0.2832000D-01 0.7600000D-02 0.3266000D+01 0.6511000D+00
EXPONENTS  0.1696000D+00 0.3266000D+01 0.6511000D+00 0.1696000D+00 0.3266000D+01
EXPONENTS  0.6511000D+00 0.1696000D+00 0.5578000D-01 0.5578000D-01 0.5578000D-01
EXPONENTS  0.2050000D-01 0.2050000D-01 0.2050000D-01 0.9100000D-02 0.9100000D-02
EXPONENTS  0.9100000D-02 0.1874000D+00 0.1874000D+00 0.1874000D+00 0.1874000D+00
EXPONENTS  0.1874000D+00 0.1874000D+00 0.8010000D-01 0.8010000D-01 0.8010000D-01
EXPONENTS  0.8010000D-01 0.8010000D-01 0.8010000D-01 0.3710000D-01 0.3710000D-01
EXPONENTS  0.3710000D-01 0.3710000D-01 0.3710000D-01 0.3710000D-01 0.1829000D+00
EXPONENTS  0.1829000D+00 0.1829000D+00 0.1829000D+00 0.1829000D+00 0.1829000D+00
EXPONENTS  0.1829000D+00 0.1829000D+00 0.1829000D+00 0.1829000D+00 0.8160000D-01
EXPONENTS  0.8160000D-01 0.8160000D-01 0.8160000D-01 0.8160000D-01 0.8160000D-01
EXPONENTS  0.8160000D-01 0.8160000D-01 0.8160000D-01 0.8160000D-01
MO    1     MO 0.0        OCC NO =    2.0000000  ORB. ENERGY =   -2.065156
  0.45965110D-01  0.85432422D-01  0.14548995D+00  0.22689508D+00  0.31698535D+00
  0.37785236D+00  0.35820280D+00  0.22749499D+00  0.55866077D-01 -0.30698622D-03
 -0.56760689D-03 -0.95718163D-03 -0.15251824D-02 -0.21259894D-02 -0.27088564D-02
 -0.26901740D-02 -0.24266004D-02 -0.13889407D-02 -0.30188624D-03  0.21425192D-03
 -0.39175771D-05 -0.23500566D-16 -0.17244389D-16 -0.14160452D-16  0.24066965D-16
  0.17660005D-16  0.14501740D-16  0.15704775D-02  0.11523946D-02  0.94630365D-03
 -0.74648068D-19  0.59736416D-18 -0.36122197D-03 -0.14463230D-18 -0.85660242D-20
 -0.88091925D-05  0.39451218D-19  0.11685699D-19  0.92234132D-06  0.66631612D-04
  0.66631612D-04 -0.13326322D-03  0.71604807D-20  0.14129576D-18 -0.23452961D-18
 -0.78994995D-04 -0.78994995D-04  0.15798999D-03 -0.98907390D-20 -0.20574725D-18
 -0.26706935D-19 -0.35136386D-05 -0.35136386D-05  0.70272772D-05  0.27782871D-20
  0.61970114D-19 -0.43074991D-19 -0.13098207D-19 -0.12515961D-19 -0.36876109D-04
 -0.19601679D-19  0.35725137D-20  0.55314163D-04  0.58896301D-19  0.33975369D-19
  0.55314163D-04 -0.36785075D-20  0.36132753D-20  0.18853699D-20 -0.19107460D-04
  0.39400109D-20  0.46227396D-21  0.28661191D-04 -0.14779837D-19 -0.61183835D-20
  0.28661191D-04  0.61212141D-21  0.45965110D-01  0.85432422D-01  0.14548995D+00
  0.22689508D+00  0.31698535D+00  0.37785236D+00  0.35820280D+00  0.22749499D+00
  0.55866077D-01 -0.30698622D-03 -0.56760689D-03 -0.95718163D-03 -0.15251824D-02
 -0.21259894D-02 -0.27088564D-02 -0.26901740D-02 -0.24266004D-02 -0.13889407D-02
 -0.30188624D-03  0.21425192D-03 -0.39175775D-05  0.16145850D-17  0.11847601D-17
  0.97288097D-18  0.28038780D-17  0.20574468D-17  0.16894989D-17 -0.15704775D-02
 -0.11523946D-02 -0.94630365D-03 -0.34963523D-18 -0.64779254D-18  0.36122197D-03
  0.20515201D-18  0.40252870D-19  0.88091927D-05 -0.45906271D-19 -0.26577837D-19
 -0.92234135D-06  0.66631612D-04  0.66631612D-04 -0.13326322D-03 -0.71556691D-20
  0.34284678D-18  0.15127981D-18 -0.78994995D-04 -0.78994995D-04  0.15798999D-03
  0.14071750D-20 -0.29851099D-18 -0.66534748D-19 -0.35136386D-05 -0.35136386D-05
  0.70272772D-05 -0.18177590D-21  0.58664461D-19 -0.58827893D-19  0.10487625D-19
  0.12683802D-19  0.36876109D-04  0.50508470D-20  0.25759401D-19 -0.55314163D-04
 -0.36513721D-19 -0.63810809D-19 -0.55314163D-04  0.37117258D-20  0.12925457D-19
  0.12916853D-19  0.19107460D-04  0.13910273D-19  0.12117116D-19 -0.28661191D-04
 -0.52686644D-19 -0.50867675D-19 -0.28661191D-04 -0.17369678D-23
MO    2     MO 0.0        OCC NO =    2.0000000  ORB. ENERGY =   -2.064857
  0.46037775D-01  0.85567480D-01  0.14571995D+00  0.22725378D+00  0.31748646D+00
  0.37844970D+00  0.35876907D+00  0.22785463D+00  0.55954394D-01 -0.35180868D-03
 -0.65048207D-03 -0.10969379D-02 -0.17478713D-02 -0.24364010D-02 -0.31043712D-02
 -0.30829610D-02 -0.27809036D-02 -0.15917372D-02  0.34886767D-02  0.50265967D-02
 -0.89548988D-03  0.49953261D-16  0.36655011D-16  0.30099734D-16  0.19677901D-17
  0.14439371D-17  0.11857076D-17  0.71736860D-03  0.52639513D-03  0.43225614D-03
 -0.26132195D-18 -0.21786890D-17 -0.19030793D-02  0.13239031D-18 -0.83307190D-19
 -0.33931113D-03  0.60936043D-20 -0.26225806D-19  0.70346832D-04  0.65419148D-04
  0.65419148D-04 -0.13083830D-03 -0.27892903D-20 -0.57139944D-18 -0.30824887D-18
 -0.96864452D-04 -0.96864452D-04  0.19372890D-03  0.20275154D-20  0.14863977D-18
  0.53886247D-18 -0.25627425D-04 -0.25627425D-04  0.51254849D-04  0.25423414D-20
 -0.45463792D-19  0.19824102D-18 -0.26291709D-19 -0.55692264D-19  0.41722939D-04
 -0.34320989D-19 -0.34420528D-19 -0.62584408D-04  0.11319612D-18  0.20149732D-18
 -0.62584408D-04  0.25292133D-19  0.92424521D-21  0.33003441D-19 -0.15240970D-04
  0.16812890D-20  0.30508077D-19  0.22861455D-04 -0.44540246D-20 -0.12951840D-18
  0.22861455D-04 -0.97255821D-20 -0.46037775D-01 -0.85567480D-01 -0.14571995D+00
 -0.22725378D+00 -0.31748646D+00 -0.37844970D+00 -0.35876907D+00 -0.22785463D+00
 -0.55954394D-01  0.35180868D-03  0.65048207D-03  0.10969379D-02  0.17478713D-02
  0.24364010D-02  0.31043712D-02  0.30829610D-02  0.27809036D-02  0.15917372D-02
 -0.34886767D-02 -0.50265967D-02  0.89548988D-03 -0.15031124D-17 -0.11029631D-17
 -0.90571231D-18 -0.29077261D-17 -0.21336491D-17 -0.17520734D-17  0.71736860D-03
  0.52639513D-03  0.43225614D-03  0.22554112D-18  0.18011226D-17 -0.19030793D-02
 -0.10055839D-18  0.20256201D-18 -0.33931113D-03 -0.14398690D-19  0.12328592D-20
  0.70346832D-04 -0.65419148D-04 -0.65419148D-04  0.13083830D-03  0.87279214D-20
 -0.37403438D-18 -0.35474914D-18  0.96864452D-04  0.96864452D-04 -0.19372890D-03
 -0.57577971D-20  0.16260997D-18  0.52574715D-18  0.25627425D-04  0.25627425D-04
 -0.51254849D-04 -0.19553382D-20 -0.45696048D-19  0.21173322D-18  0.17882154D-19
  0.41605342D-19  0.41722939D-04  0.26592788D-19  0.15871710D-19 -0.62584408D-04
 -0.80239250D-19 -0.14068774D-18 -0.62584408D-04  0.20350502D-19 -0.17573234D-20
 -0.41227588D-19 -0.15240970D-04 -0.32510433D-20 -0.37768409D-19  0.22861455D-04
  0.85230136D-20  0.16145117D-18  0.22861455D-04 -0.86044819D-20
MO    3     MO 0.0        OCC NO =    2.0000000  ORB. ENERGY =   -0.137602
 -0.61870212D-03 -0.11499422D-02 -0.19583318D-02 -0.30540658D-02 -0.42667038D-02
 -0.50859893D-02 -0.48215012D-02 -0.30621406D-02 -0.75197167D-03 -0.70014901D-02
 -0.12945513D-01 -0.21830614D-01 -0.34785109D-01 -0.48487824D-01 -0.61781375D-01
 -0.61355283D-01 -0.55343912D-01 -0.31677821D-01  0.32581873D-01  0.12885484D-01
  0.13155807D-03  0.21334311D-16  0.15654822D-16  0.12855158D-16  0.81860175D-17
  0.60067862D-17  0.49325498D-17 -0.15770727D-01 -0.11572341D-01 -0.95027768D-02
  0.21582024D-17  0.12307088D-16 -0.15298836D-02 -0.28601903D-18  0.28709261D-18
 -0.26472887D-03  0.18820393D-18 -0.73141895D-19  0.19214711D-04 -0.35888427D-03
 -0.35888427D-03  0.71776854D-03  0.74601842D-19 -0.33457438D-17 -0.81431466D-18
  0.13302180D-03  0.13302180D-03 -0.26604359D-03 -0.48311959D-19  0.28266437D-18
 -0.36969775D-17 -0.22189453D-04 -0.22189453D-04  0.44378906D-04  0.15499524D-19
 -0.14357837D-18 -0.31291695D-18 -0.44603214D-19 -0.13755106D-18 -0.12889467D-04
 -0.14012829D-18  0.90618474D-19  0.19334200D-04  0.27393794D-18  0.32203469D-18
  0.19334200D-04  0.55438199D-19  0.26668633D-20 -0.15510271D-18  0.37836546D-04
 -0.94746842D-20 -0.16274696D-18 -0.56754819D-04  0.14740942D-20  0.62805509D-18
 -0.56754819D-04 -0.54466264D-20 -0.61870212D-03 -0.11499422D-02 -0.19583318D-02
 -0.30540658D-02 -0.42667038D-02 -0.50859893D-02 -0.48215012D-02 -0.30621406D-02
 -0.75197167D-03 -0.70014901D-02 -0.12945513D-01 -0.21830614D-01 -0.34785109D-01
 -0.48487824D-01 -0.61781375D-01 -0.61355283D-01 -0.55343912D-01 -0.31677821D-01
  0.32581873D-01  0.12885484D-01  0.13155807D-03  0.61016047D-17  0.44772730D-17
  0.36765703D-17  0.99196272D-17  0.72788849D-17  0.59771500D-17  0.15770727D-01
  0.11572341D-01  0.95027768D-02  0.52079805D-17 -0.50434680D-18  0.15298836D-02
 -0.55921607D-18  0.95347184D-19  0.26472887D-03  0.14991934D-18  0.11085161D-18
 -0.19214711D-04 -0.35888427D-03 -0.35888427D-03  0.71776854D-03  0.25207930D-18
  0.12742650D-17  0.29151414D-17  0.13302180D-03  0.13302180D-03 -0.26604359D-03
 -0.24520987D-19  0.19043743D-17 -0.17364772D-17 -0.22189453D-04 -0.22189453D-04
  0.44378906D-04 -0.98141079D-20 -0.10215675D-18 -0.11160574D-18 -0.18375994D-19
 -0.21484381D-18  0.12889467D-04 -0.12067929D-18 -0.13091336D-18 -0.19334200D-04
  0.17580727D-18  0.77544478D-18 -0.19334200D-04 -0.51482440D-19 -0.56636840D-19
  0.83554927D-19 -0.37836546D-04 -0.41491315D-19  0.92728966D-19  0.56754819D-04
  0.21140184D-18 -0.34339375D-18  0.56754819D-04  0.19572823D-19
END DATA
RHF
