 Molden2AIM, Version 4.0.0 (06/02/2016)           Time: Fri Jun 29 23:17:44 2018
GAUSSIAN             10 MOL ORBITALS    208 PRIMITIVES        2 NUCLEI
  Li   1    (CENTRE  1)   0.00000000  0.00000000  3.38620969  CHARGE =  3.0
  Cl   2    (CENTRE  2)   0.00000000  0.00000000 -0.43086701  CHARGE = 17.0
CENTRE ASSIGNMENTS    1  1  1  1  1  1  1  1  1  1  1  1  1  1  1  1  1  1  1  1
CENTRE ASSIGNMENTS    1  1  1  1  1  1  1  1  1  1  1  1  1  1  1  1  1  1  1  1
CENTRE ASSIGNMENTS    1  1  1  1  1  1  1  1  1  1  1  1  1  1  1  1  1  1  1  1
CENTRE ASSIGNMENTS    1  1  1  1  1  1  1  1  1  1  1  1  1  1  1  1  1  2  2  2
CENTRE ASSIGNMENTS    2  2  2  2  2  2  2  2  2  2  2  2  2  2  2  2  2  2  2  2
CENTRE ASSIGNMENTS    2  2  2  2  2  2  2  2  2  2  2  2  2  2  2  2  2  2  2  2
CENTRE ASSIGNMENTS    2  2  2  2  2  2  2  2  2  2  2  2  2  2  2  2  2  2  2  2
CENTRE ASSIGNMENTS    2  2  2  2  2  2  2  2  2  2  2  2  2  2  2  2  2  2  2  2
CENTRE ASSIGNMENTS    2  2  2  2  2  2  2  2  2  2  2  2  2  2  2  2  2  2  2  2
CENTRE ASSIGNMENTS    2  2  2  2  2  2  2  2  2  2  2  2  2  2  2  2  2  2  2  2
CENTRE ASSIGNMENTS    2  2  2  2  2  2  2  2
TYPE ASSIGNMENTS      1  1  1  1  1  1  1  1  1  1  1  1  1  1  1  1  1  1  1  1
TYPE ASSIGNMENTS      1  2  2  2  3  3  3  4  4  4  2  3  4  2  3  4  2  3  4  5
TYPE ASSIGNMENTS      6  7  8  9 10  5  6  7  8  9 10  5  6  7  8  9 10 11 12 13
TYPE ASSIGNMENTS     17 14 15 18 19 16 20 11 12 13 17 14 15 18 19 16 20  1  1  1
TYPE ASSIGNMENTS      1  1  1  1  1  1  1  1  1  1  1  1  1  1  1  1  1  1  1  1
TYPE ASSIGNMENTS      1  1  1  1  1  1  1  1  1  1  1  1  1  1  1  1  1  1  1  2
TYPE ASSIGNMENTS      2  2  2  2  2  2  3  3  3  3  3  3  3  4  4  4  4  4  4  4
TYPE ASSIGNMENTS      2  2  2  2  2  2  2  3  3  3  3  3  3  3  4  4  4  4  4  4
TYPE ASSIGNMENTS      4  2  3  4  2  3  4  2  3  4  5  6  7  8  9 10  5  6  7  8
TYPE ASSIGNMENTS      9 10  5  6  7  8  9 10 11 12 13 17 14 15 18 19 16 20 11 12
TYPE ASSIGNMENTS     13 17 14 15 18 19 16 20
EXPONENTS  0.5988000D+04 0.8989000D+03 0.2059000D+03 0.5924000D+02 0.1987000D+02
EXPONENTS  0.7406000D+01 0.2930000D+01 0.1189000D+01 0.4798000D+00 0.5988000D+04
EXPONENTS  0.8989000D+03 0.2059000D+03 0.5924000D+02 0.1987000D+02 0.7406000D+01
EXPONENTS  0.2930000D+01 0.1189000D+01 0.4798000D+00 0.7509000D-01 0.2832000D-01
EXPONENTS  0.7600000D-02 0.3266000D+01 0.6511000D+00 0.1696000D+00 0.3266000D+01
EXPONENTS  0.6511000D+00 0.1696000D+00 0.3266000D+01 0.6511000D+00 0.1696000D+00
EXPONENTS  0.5578000D-01 0.5578000D-01 0.5578000D-01 0.2050000D-01 0.2050000D-01
EXPONENTS  0.2050000D-01 0.9100000D-02 0.9100000D-02 0.9100000D-02 0.1874000D+00
EXPONENTS  0.1874000D+00 0.1874000D+00 0.1874000D+00 0.1874000D+00 0.1874000D+00
EXPONENTS  0.8010000D-01 0.8010000D-01 0.8010000D-01 0.8010000D-01 0.8010000D-01
EXPONENTS  0.8010000D-01 0.3710000D-01 0.3710000D-01 0.3710000D-01 0.3710000D-01
EXPONENTS  0.3710000D-01 0.3710000D-01 0.1829000D+00 0.1829000D+00 0.1829000D+00
EXPONENTS  0.1829000D+00 0.1829000D+00 0.1829000D+00 0.1829000D+00 0.1829000D+00
EXPONENTS  0.1829000D+00 0.1829000D+00 0.8160000D-01 0.8160000D-01 0.8160000D-01
EXPONENTS  0.8160000D-01 0.8160000D-01 0.8160000D-01 0.8160000D-01 0.8160000D-01
EXPONENTS  0.8160000D-01 0.8160000D-01 0.4561000D+06 0.6833000D+05 0.1555000D+05
EXPONENTS  0.4405000D+04 0.1439000D+04 0.5204000D+03 0.2031000D+03 0.8396000D+02
EXPONENTS  0.3620000D+02 0.1583000D+02 0.6334000D+01 0.2694000D+01 0.4313000D+00
EXPONENTS  0.4561000D+06 0.6833000D+05 0.1555000D+05 0.4405000D+04 0.1439000D+04
EXPONENTS  0.5204000D+03 0.2031000D+03 0.8396000D+02 0.3620000D+02 0.1583000D+02
EXPONENTS  0.6334000D+01 0.2694000D+01 0.4313000D+00 0.4561000D+06 0.6833000D+05
EXPONENTS  0.1555000D+05 0.4405000D+04 0.1439000D+04 0.5204000D+03 0.2031000D+03
EXPONENTS  0.8396000D+02 0.3620000D+02 0.1583000D+02 0.6334000D+01 0.2694000D+01
EXPONENTS  0.4313000D+00 0.9768000D+00 0.1625000D+00 0.5910000D-01 0.6633000D+03
EXPONENTS  0.1568000D+03 0.4998000D+02 0.1842000D+02 0.7240000D+01 0.2922000D+01
EXPONENTS  0.3818000D+00 0.6633000D+03 0.1568000D+03 0.4998000D+02 0.1842000D+02
EXPONENTS  0.7240000D+01 0.2922000D+01 0.3818000D+00 0.6633000D+03 0.1568000D+03
EXPONENTS  0.4998000D+02 0.1842000D+02 0.7240000D+01 0.2922000D+01 0.3818000D+00
EXPONENTS  0.6633000D+03 0.1568000D+03 0.4998000D+02 0.1842000D+02 0.7240000D+01
EXPONENTS  0.2922000D+01 0.3818000D+00 0.6633000D+03 0.1568000D+03 0.4998000D+02
EXPONENTS  0.1842000D+02 0.7240000D+01 0.2922000D+01 0.3818000D+00 0.6633000D+03
EXPONENTS  0.1568000D+03 0.4998000D+02 0.1842000D+02 0.7240000D+01 0.2922000D+01
EXPONENTS  0.3818000D+00 0.1022000D+01 0.1022000D+01 0.1022000D+01 0.1301000D+00
EXPONENTS  0.1301000D+00 0.1301000D+00 0.4190000D-01 0.4190000D-01 0.4190000D-01
EXPONENTS  0.1046000D+01 0.1046000D+01 0.1046000D+01 0.1046000D+01 0.1046000D+01
EXPONENTS  0.1046000D+01 0.3440000D+00 0.3440000D+00 0.3440000D+00 0.3440000D+00
EXPONENTS  0.3440000D+00 0.3440000D+00 0.1350000D+00 0.1350000D+00 0.1350000D+00
EXPONENTS  0.1350000D+00 0.1350000D+00 0.1350000D+00 0.7060000D+00 0.7060000D+00
EXPONENTS  0.7060000D+00 0.7060000D+00 0.7060000D+00 0.7060000D+00 0.7060000D+00
EXPONENTS  0.7060000D+00 0.7060000D+00 0.7060000D+00 0.3120000D+00 0.3120000D+00
EXPONENTS  0.3120000D+00 0.3120000D+00 0.3120000D+00 0.3120000D+00 0.3120000D+00
EXPONENTS  0.3120000D+00 0.3120000D+00 0.3120000D+00
MO    1     MO 0.0        OCC NO =    2.0000000  ORB. ENERGY = -102.009163
 -0.12621504D-04 -0.23458786D-04 -0.39949909D-04 -0.62302848D-04 -0.87040625D-04
 -0.10375402D-03 -0.98358476D-04 -0.62467575D-04 -0.15340199D-04  0.91110693D-05
  0.16846051D-04  0.28408272D-04  0.45266013D-04  0.63097415D-04  0.80396371D-04
  0.79841894D-04  0.72019272D-04  0.41222485D-04  0.16333234D-03  0.12751147D-04
 -0.54368397D-06  0.44658992D-19  0.32770149D-19  0.26909630D-19  0.10992315D-19
  0.80660086D-20  0.66235068D-20 -0.11272362D-03 -0.82715030D-04 -0.67922511D-04
  0.20983628D-19  0.98471917D-20 -0.52076097D-04 -0.18892243D-20 -0.74935332D-21
  0.32897243D-05  0.23366143D-21  0.10824478D-21 -0.44859802D-06  0.10173325D-05
  0.10173325D-05 -0.20346650D-05 -0.83505523D-23  0.68506185D-20 -0.37624679D-20
 -0.67289173D-05 -0.67289173D-05  0.13457835D-04  0.16136503D-22 -0.18807245D-19
 -0.77476985D-20 -0.94555457D-07 -0.94555457D-07  0.18911091D-06  0.22451973D-23
  0.31694266D-21  0.25423189D-22  0.18668283D-20  0.18672877D-21  0.65761283D-05
  0.18290226D-20  0.20834785D-21 -0.98641924D-05 -0.74295074D-20 -0.76853416D-21
 -0.98641924D-05  0.78167181D-22 -0.10032330D-20 -0.40444499D-21 -0.17699698D-05
 -0.98478299D-21 -0.40784470D-21  0.26549547D-05  0.39944819D-20  0.16211797D-20
  0.26549547D-05 -0.18652307D-22  0.61709822D+00  0.11545931D+01  0.19948812D+01
  0.32339350D+01  0.49109883D+01  0.68256962D+01  0.81147682D+01  0.72280113D+01
  0.35882012D+01  0.57811671D+00  0.88756314D-02  0.15860666D-02  0.59268835D-04
 -0.80962001D-03 -0.15122539D-02 -0.26245900D-02 -0.42586430D-02 -0.65918736D-02
 -0.94356682D-02 -0.12316494D-01 -0.13125280D-01 -0.98114132D-02 -0.51792708D-03
  0.66551058D-02  0.39538975D-02 -0.14824151D-04  0.28551574D-03  0.53287400D-03
  0.92608811D-03  0.15009164D-02  0.23311581D-02  0.33394513D-02  0.44094343D-02
  0.47679064D-02  0.37381004D-02  0.18600664D-03 -0.32044972D-02 -0.33172487D-02
  0.15011019D-02 -0.24735295D-02 -0.62556441D-03 -0.57923056D-04  0.35808313D-16
  0.47167585D-16  0.52036896D-16  0.43222623D-16  0.22956585D-16  0.59211730D-17
 -0.60867645D-20 -0.74584367D-17 -0.98244350D-17 -0.10838653D-16 -0.90027475D-17
 -0.47815779D-17 -0.12333084D-17  0.12677991D-20  0.22708987D-02  0.29912832D-02
  0.33000862D-02  0.27411009D-02  0.14558653D-02  0.37551012D-03 -0.38601164D-06
 -0.72951957D-17 -0.95780572D-17 -0.10905323D-16 -0.92341794D-17 -0.52896935D-17
 -0.12032217D-17  0.56317400D-18 -0.74239964D-18 -0.97471631D-18 -0.11097862D-17
 -0.93972139D-18 -0.53830859D-18 -0.12244653D-18  0.57311715D-19 -0.17937550D-02
 -0.23550688D-02 -0.26814191D-02 -0.22705156D-02 -0.13006387D-02 -0.29585019D-03
  0.13847417D-03 -0.23261850D-17  0.23222056D-18 -0.13294158D-03 -0.13769836D-18
 -0.48449606D-19 -0.12395612D-03  0.31444547D-21 -0.11085273D-20 -0.34578056D-06
 -0.28921896D-04 -0.28921896D-04  0.57843792D-04 -0.18107106D-19 -0.14184446D-18
 -0.25202574D-19  0.52589847D-05  0.52589847D-05 -0.10517969D-04  0.24472437D-20
  0.62443242D-19  0.19698674D-19  0.67927286D-05  0.67927286D-05 -0.13585457D-04
 -0.27904315D-21 -0.29421784D-19 -0.14751701D-19 -0.58712089D-20 -0.11406762D-19
  0.43620729D-04  0.69953157D-20  0.11440903D-19 -0.65431093D-04  0.10618311D-19
  0.22779382D-19 -0.65431093D-04 -0.49179874D-20  0.15076270D-20  0.20730196D-20
 -0.16146674D-04  0.17378810D-21  0.94237203D-21  0.24220011D-04 -0.46966690D-20
 -0.71614308D-20  0.24220011D-04  0.67651254D-21
MO    2     MO 0.0        OCC NO =    2.0000000  ORB. ENERGY =   -9.573690
  0.12048599D-04  0.22393964D-04  0.38136536D-04  0.59474848D-04  0.83089748D-04
  0.99044507D-04  0.93893869D-04  0.59632098D-04  0.14643889D-04 -0.10160952D-04
 -0.18787248D-04 -0.31681802D-04 -0.50482087D-04 -0.70368229D-04 -0.89660570D-04
 -0.89042201D-04 -0.80318166D-04 -0.45972617D-04 -0.15548793D-03  0.17247504D-05
  0.17518760D-06 -0.20902059D-18 -0.15337641D-18 -0.12594701D-18  0.12108474D-16
  0.88850300D-17  0.72960568D-17  0.98886364D-04  0.72561444D-04  0.59584763D-04
  0.38082222D-18 -0.40564447D-19  0.51784702D-04 -0.18020833D-19 -0.11790966D-20
 -0.52671002D-05  0.21235789D-20  0.14735689D-20  0.69185702D-06 -0.71651003D-05
 -0.71651003D-05  0.14330201D-04  0.35964115D-21 -0.64298308D-19 -0.14139357D-18
  0.81245009D-05  0.81245009D-05 -0.16249002D-04 -0.25014001D-20 -0.23447344D-18
  0.10741099D-18 -0.10441452D-06 -0.10441452D-06  0.20882904D-06  0.14415858D-21
  0.37502917D-20 -0.33405169D-20  0.17106108D-19 -0.10184963D-19 -0.94436254D-05
  0.15334941D-19 -0.11790733D-19  0.14165438D-04 -0.66653265D-19  0.42345622D-19
  0.14165438D-04  0.38722771D-21 -0.12633397D-19  0.48109391D-20  0.21093164D-05
 -0.11273136D-19  0.50419287D-20 -0.31639746D-05  0.49173326D-19 -0.19474746D-19
 -0.31639746D-05  0.13117322D-20 -0.15443802D-02 -0.28895412D-02 -0.49924871D-02
 -0.80934039D-02 -0.12290479D-01 -0.17082321D-01 -0.20308416D-01 -0.18089174D-01
 -0.89800079D-02 -0.14468231D-02 -0.22212589D-04 -0.39693679D-05 -0.14832908D-06
 -0.17099728D+00 -0.31939837D+00 -0.55433137D+00 -0.89945453D+00 -0.13922488D+01
 -0.19928777D+01 -0.26013278D+01 -0.27721489D+01 -0.20722376D+01 -0.10938974D+00
  0.14056039D+01  0.83509018D+00 -0.31309621D-02 -0.30836701D-03 -0.57552259D-03
 -0.10002076D-02 -0.16210423D-02 -0.25177325D-02 -0.36067244D-02 -0.47623435D-02
 -0.51495060D-02 -0.40372794D-02 -0.20089369D-03  0.34609692D-02  0.35827448D-02
 -0.16212427D-02  0.63770554D-01  0.10791385D-02 -0.21575276D-04  0.13170745D-14
  0.17348828D-14  0.19139821D-14  0.15897822D-14  0.84437192D-15  0.21778815D-15
 -0.22387881D-18 -0.44522138D-16 -0.58645648D-16 -0.64699888D-16 -0.53740694D-16
 -0.28542988D-16 -0.73620693D-17  0.75679569D-20  0.16248089D-01  0.21402379D-01
  0.23611838D-01  0.19612346D-01  0.10416593D-01  0.26867433D-02 -0.27618807D-05
 -0.49517138D-16 -0.65012372D-16 -0.74021368D-16 -0.62678254D-16 -0.35904517D-16
 -0.81670320D-17  0.38226205D-17  0.32070200D-16  0.42105821D-16  0.47940575D-16
  0.40594110D-16  0.23253869D-16  0.52894485D-17 -0.24757530D-17  0.24951165D-02
  0.32759051D-02  0.37298590D-02  0.31582914D-02  0.18091909D-02  0.41152816D-03
 -0.19261783D-03  0.57616103D-17  0.78140273D-17  0.48679694D-03 -0.15526922D-17
  0.63291206D-18  0.12978299D-03 -0.64271217D-20 -0.10241790D-20 -0.27504609D-05
 -0.45374526D-04 -0.45374526D-04  0.90749052D-04  0.22178989D-17 -0.15885264D-17
  0.37635753D-17  0.35102829D-05  0.35102829D-05 -0.70205658D-05 -0.16152426D-18
  0.41589941D-18 -0.38964660D-18 -0.76499362D-05 -0.76499362D-05  0.15299872D-04
  0.13829362D-19 -0.43910952D-18  0.14294347D-18 -0.28463217D-18 -0.74589436D-18
 -0.27698048D-04  0.87652870D-18  0.55164126D-18  0.41547072D-04 -0.22632176D-19
  0.16860418D-17  0.41547072D-04 -0.31509383D-18  0.89497035D-19  0.64722876D-19
  0.14551045D-04 -0.21351864D-19  0.92865460D-20 -0.21826567D-04 -0.24713924D-18
 -0.20345517D-18 -0.21826567D-04  0.44960043D-19
MO    3     MO 0.0        OCC NO =    2.0000000  ORB. ENERGY =   -7.243886
  0.74548405D-05  0.13855837D-04  0.23596253D-04  0.36798926D-04  0.51410194D-04
  0.61281896D-04  0.58095037D-04  0.36896221D-04  0.90606265D-05 -0.89696890D-05
 -0.16584644D-04 -0.27967449D-04 -0.44563601D-04 -0.62118306D-04 -0.79148827D-04
 -0.78602955D-04 -0.70901719D-04 -0.40582819D-04 -0.81977577D-04 -0.41601076D-04
  0.12957847D-05  0.35827422D-16  0.26289666D-16  0.21588097D-16 -0.24637434D-16
 -0.18078608D-16 -0.14845481D-16 -0.86977337D-04 -0.63822764D-04 -0.52408884D-04
 -0.10005321D-17  0.20963461D-19  0.26776201D-04 -0.26645513D-19  0.70921713D-20
  0.23605506D-05  0.33035792D-20 -0.45300800D-20 -0.19844594D-06 -0.25100562D-04
 -0.25100562D-04  0.50201124D-04  0.49278202D-20 -0.13969117D-19  0.79317916D-19
  0.14155698D-06  0.14155698D-06 -0.28311395D-06  0.13664006D-20  0.88679619D-19
 -0.16821099D-18  0.40261942D-06  0.40261942D-06 -0.80523883D-06 -0.31894115D-22
 -0.11200109D-20  0.55625424D-20 -0.11736562D-19 -0.64314687D-21 -0.85356671D-05
 -0.12126687D-19 -0.55667287D-21  0.12803501D-04  0.47336374D-19  0.24861135D-20
  0.12803501D-04 -0.53464162D-20  0.30125202D-20 -0.70937627D-20 -0.48168588D-06
  0.30858098D-20 -0.71322495D-20  0.72252883D-06 -0.12123370D-19  0.28413538D-19
  0.72252883D-06 -0.53315456D-21  0.10796624D-04  0.20200526D-04  0.34902033D-04
  0.56580267D-04  0.85921648D-04  0.11942099D-03  0.14197433D-03  0.12645981D-03
  0.62778436D-04  0.10114612D-04  0.15528623D-06  0.27749498D-07  0.10369554D-08
  0.26053163D-03  0.48663568D-03  0.84457983D-03  0.13704098D-02  0.21212317D-02
  0.30363504D-02  0.39633857D-02  0.42236488D-02  0.31572633D-02  0.16666632D-03
 -0.21415795D-02 -0.12723442D-02  0.47703370D-05  0.28618384D-04  0.53412090D-04
  0.92825512D-04  0.15044285D-03  0.23366130D-03  0.33472655D-03  0.44197522D-03
  0.47790632D-03  0.37468475D-03  0.18644189D-04 -0.32119956D-03 -0.33250109D-03
  0.15046145D-03 -0.78047746D-04 -0.30185941D-03  0.22538580D-03 -0.11127350D-13
 -0.14657218D-13 -0.16170345D-13 -0.13431330D-13 -0.71337056D-14 -0.18399908D-14
  0.18914480D-17  0.39918247D-14  0.52581290D-14  0.58009481D-14  0.48183542D-14
  0.25591449D-14  0.66007813D-15 -0.67853788D-18  0.11514012D+02  0.15166538D+02
  0.16732244D+02  0.13898052D+02  0.73815931D+01  0.19039282D+01 -0.19571734D-02
 -0.28731811D-18 -0.37722762D-18 -0.42950140D-18 -0.36368415D-18 -0.20833228D-18
 -0.47388366D-19  0.22180363D-19 -0.46989958D-16 -0.61694370D-16 -0.70243579D-16
 -0.59479378D-16 -0.34072078D-16 -0.77502156D-17  0.36275274D-17  0.23074381D-02
  0.30294971D-02  0.34493053D-02  0.29207301D-02  0.16731066D-02  0.38057371D-03
 -0.17812944D-03 -0.89190570D-16  0.21791316D-16  0.91082871D-01  0.22547210D-18
 -0.11358062D-17  0.22025754D-03  0.46721925D-19  0.14972425D-19  0.46739049D-05
 -0.29436170D-03 -0.29436170D-03  0.58872340D-03 -0.84615114D-18  0.21799681D-16
  0.27022620D-17  0.56014480D-04  0.56014480D-04 -0.11202896D-03  0.62294447D-19
 -0.15441880D-17 -0.63228458D-18 -0.11100208D-04 -0.11100208D-04  0.22200417D-04
 -0.11107342D-19  0.34660085D-18 -0.21351784D-18  0.11068930D-19  0.97447330D-18
  0.41376638D-04 -0.25350906D-19  0.10179351D-17 -0.62064957D-04 -0.78558845D-20
 -0.39413550D-17 -0.62064957D-04  0.15822819D-17 -0.25712324D-19 -0.87262172D-19
 -0.47549326D-05 -0.31121354D-19 -0.88278844D-19  0.71323989D-05  0.10825833D-18
  0.35006536D-18  0.71323989D-05 -0.10846403D-18
MO    4     MO 0.0        OCC NO =    2.0000000  ORB. ENERGY =   -7.243357
  0.10052031D-17  0.18683069D-17  0.31816946D-17  0.49619295D-17  0.69320980D-17
  0.82631882D-17  0.78334754D-17  0.49750487D-17  0.12217256D-17  0.36124415D-16
  0.66792792D-16  0.11263576D-15  0.17947490D-15  0.25017450D-15  0.31876301D-15
  0.31656457D-15  0.28554871D-15  0.16344275D-15 -0.51512071D-16 -0.25224213D-16
  0.34192762D-17 -0.89085250D-05 -0.65369522D-05 -0.53679024D-05  0.19870175D-05
  0.14580459D-05  0.11972932D-05  0.92402987D-16  0.67804031D-16  0.55678153D-16
 -0.30617540D-04  0.68291426D-05  0.25426093D-16  0.35252792D-05 -0.78630205D-06
 -0.35299458D-17 -0.37946695D-06  0.84638868D-07  0.10722174D-17 -0.24275006D-17
  0.21909134D-16 -0.19481634D-16 -0.46503224D-16 -0.31320890D-04  0.69860226D-05
  0.19876506D-16 -0.14495099D-16 -0.53814073D-17  0.17161415D-16  0.30268832D-04
 -0.67513646D-05 -0.52994509D-18  0.10574627D-17 -0.52751759D-18  0.22190865D-18
 -0.10180508D-05  0.22707291D-06 -0.41450193D-05  0.92453307D-06 -0.34174212D-17
 -0.41444119D-05  0.92439760D-06  0.34322720D-17  0.16579470D-04 -0.36979968D-05
  0.68199914D-17  0.11636014D-17  0.15257418D-05 -0.34031176D-06  0.22802158D-17
  0.15258233D-05 -0.34032993D-06 -0.12973279D-16 -0.61030489D-05  0.13612652D-05
  0.61326322D-17 -0.14855525D-17  0.16198968D-17  0.30308332D-17  0.52366083D-17
  0.84891527D-17  0.12891456D-16  0.17917607D-16  0.21301450D-16  0.18973694D-16
  0.94191096D-17  0.15175695D-17  0.23298734D-19  0.41634608D-20  0.15558204D-21
  0.12296854D-16  0.22968758D-16  0.39863394D-16  0.64682088D-16  0.10012019D-15
  0.14331296D-15  0.18706818D-15  0.19935236D-15  0.14901993D-15  0.78664975D-17
 -0.10108059D-15 -0.60053483D-16  0.22515554D-18  0.26594753D-16  0.49635275D-16
  0.86261739D-16  0.13980490D-15  0.21713890D-15  0.31105774D-15  0.41072277D-15
  0.44411314D-15  0.34819046D-15  0.17325842D-16 -0.29848726D-15 -0.30898965D-15
  0.13982219D-15  0.92446266D-16  0.66396599D-16  0.53097714D-16  0.11240740D+02
  0.14806578D+02  0.16335124D+02  0.13568198D+02  0.72063995D+01  0.18587406D+01
 -0.19107222D-02 -0.25072105D+01 -0.33025590D+01 -0.36434962D+01 -0.30263424D+01
 -0.16073640D+01 -0.41458605D+00  0.42618037D-03  0.16770166D-13  0.22090073D-13
  0.24370525D-13  0.20242522D-13  0.10751295D-13  0.27730727D-14 -0.28506245D-17
  0.52171415D-03  0.68497243D-03  0.77989151D-03  0.66038009D-03  0.37829114D-03
  0.86048111D-04 -0.40275252D-04 -0.11636664D-03 -0.15278087D-03 -0.17395226D-03
 -0.14729563D-03 -0.84376609D-04 -0.19192751D-04  0.89832638D-05 -0.27515699D-14
 -0.36126096D-14 -0.41132218D-14 -0.34829073D-14 -0.19951434D-14 -0.45382590D-15
  0.21241550D-15  0.88554958D-01 -0.19751895D-01 -0.56987510D-15  0.26431811D-03
 -0.58955296D-04  0.82333648D-17 -0.55734057D-05  0.12431300D-05  0.23580843D-17
 -0.30119900D-15  0.23601629D-15  0.65182709D-16 -0.35856144D-16  0.67502830D-03
 -0.15056287D-03 -0.12652090D-16  0.12040941D-16  0.61114845D-18 -0.63912935D-17
 -0.13091806D-03  0.29200847D-04 -0.52134668D-16  0.53095980D-16 -0.96131194D-18
 -0.63907844D-17  0.38458168D-04 -0.85779692D-05 -0.22799376D-04  0.50853266D-05
  0.50711550D-16 -0.22237207D-04  0.49599368D-05 -0.58571606D-16  0.90635334D-04
 -0.20215916D-04 -0.93563044D-16  0.79275904D-17  0.47220055D-05 -0.10532280D-05
  0.20129897D-16  0.46868389D-05 -0.10453842D-05 -0.31732175D-16 -0.18852856D-04
  0.42050681D-05 -0.28657517D-16  0.76025876D-18
MO    5     MO 0.0        OCC NO =    2.0000000  ORB. ENERGY =   -7.243357
 -0.24764387D-18 -0.46027989D-18 -0.78384874D-18 -0.12224310D-17 -0.17078057D-17
 -0.20357358D-17 -0.19298709D-17 -0.12256631D-17 -0.30098681D-18  0.10935137D-17
  0.20218690D-17  0.34095708D-17  0.54328427D-17  0.75729737D-17  0.96492004D-17
  0.95826520D-17  0.86437782D-17  0.49475370D-17  0.31008130D-16  0.26696768D-16
 -0.17175890D-17 -0.19870175D-05 -0.14580459D-05 -0.11972932D-05 -0.89085250D-05
 -0.65369522D-05 -0.53679024D-05 -0.11390931D-16 -0.83585076D-17 -0.68636961D-17
 -0.68291426D-05 -0.30617540D-04 -0.13307189D-16  0.78630205D-06  0.35252792D-05
 -0.18538223D-17 -0.84638868D-07 -0.37946695D-06  0.12149010D-18 -0.21991156D-16
  0.16506098D-18  0.21826095D-16  0.22325948D-16 -0.69860226D-05 -0.31320890D-04
  0.79344319D-17 -0.46741022D-18 -0.74670217D-17 -0.56722110D-17  0.67513646D-05
  0.30268832D-04 -0.10571521D-17 -0.60518565D-18  0.16623378D-17 -0.40376148D-19
 -0.22707291D-06 -0.10180508D-05 -0.92453307D-06 -0.41450193D-05  0.81223562D-17
 -0.92439760D-06 -0.41444119D-05 -0.27475058D-16  0.36979968D-05  0.16579470D-04
  0.31079892D-17  0.16679909D-16  0.34031176D-06  0.15257418D-05 -0.91984507D-18
  0.34032993D-06  0.15258233D-05  0.18425164D-17 -0.13612652D-05 -0.61030489D-05
  0.91701884D-18 -0.60888233D-18 -0.96177731D-17 -0.17994890D-16 -0.31091184D-16
 -0.50402435D-16 -0.76540119D-16 -0.10638176D-15 -0.12647257D-15 -0.11265204D-15
 -0.55923845D-16 -0.90102275D-17 -0.13833099D-18 -0.24719612D-19 -0.92373335D-21
  0.21728564D-16  0.40585837D-16  0.70438688D-16  0.11429337D-15  0.17691256D-15
  0.25323425D-15  0.33054980D-15  0.35225597D-15  0.26331849D-15  0.13900115D-16
 -0.17860958D-15 -0.10611461D-15  0.39785024D-18 -0.15001537D-16 -0.27998207D-16
 -0.48658420D-16 -0.78860984D-16 -0.12248346D-15 -0.17546109D-15 -0.23168001D-15
 -0.25051482D-15 -0.19640687D-15 -0.97731406D-17  0.16837034D-15  0.17429452D-15
 -0.78870734D-16 -0.24145060D-16  0.10437049D-15 -0.10370623D-15  0.25072105D+01
  0.33025590D+01  0.36434962D+01  0.30263424D+01  0.16073640D+01  0.41458605D+00
 -0.42618037D-03  0.11240740D+02  0.14806578D+02  0.16335124D+02  0.13568198D+02
  0.72063995D+01  0.18587406D+01 -0.19107222D-02 -0.92720190D-15 -0.12213330D-14
 -0.13474164D-14 -0.11191842D-14 -0.59442592D-15 -0.15331978D-15  0.15760753D-18
  0.11636664D-03  0.15278087D-03  0.17395226D-03  0.14729563D-03  0.84376609D-04
  0.19192751D-04 -0.89832638D-05  0.52171415D-03  0.68497243D-03  0.77989151D-03
  0.66038009D-03  0.37829114D-03  0.86048111D-04 -0.40275252D-04 -0.51063690D-15
 -0.67042881D-15 -0.76333253D-15 -0.64635863D-15 -0.37025911D-15 -0.84221102D-16
  0.39420111D-16  0.19751895D-01  0.88554958D-01 -0.20621577D-16  0.58955296D-04
  0.26431811D-03 -0.31839522D-16 -0.12431300D-05 -0.55734057D-05 -0.15917760D-17
  0.34904211D-16 -0.47563471D-16  0.12659261D-16 -0.44495436D-15  0.15056287D-03
  0.67502830D-03  0.21996901D-16 -0.23122434D-16  0.11255339D-17  0.78160139D-16
 -0.29200847D-04 -0.13091806D-03 -0.70486379D-17  0.10649865D-16 -0.36012271D-17
 -0.93215397D-17  0.85779692D-05  0.38458168D-04 -0.50853266D-05 -0.22799376D-04
  0.25329990D-17 -0.49599368D-05 -0.22237207D-04  0.63043676D-16  0.20215916D-04
  0.90635334D-04 -0.70642674D-16  0.17541568D-15  0.10532280D-05  0.47220055D-05
 -0.57057428D-17  0.10453842D-05  0.46868389D-05 -0.25660475D-16 -0.42050681D-05
 -0.18852856D-04  0.42777703D-16 -0.25320598D-16
MO    6     MO 0.0        OCC NO =    2.0000000  ORB. ENERGY =   -2.092370
  0.64881362D-01  0.12059085D+00  0.20536415D+00  0.32027035D+00  0.44743591D+00
  0.53335183D+00  0.50561579D+00  0.32111714D+00  0.78856923D-01 -0.40648424D-03
 -0.75157528D-03 -0.12674160D-02 -0.20195128D-02 -0.28150488D-02 -0.35868301D-02
 -0.35620925D-02 -0.32130915D-02 -0.18391135D-02 -0.39707540D-02 -0.28880850D-03
  0.10729251D-04 -0.38959625D-18 -0.28588033D-18 -0.23475431D-18 -0.54266869D-17
 -0.39820277D-17 -0.32698933D-17  0.65203268D-02  0.47845254D-02  0.39288746D-02
  0.13226324D-18 -0.46865727D-19  0.44625039D-03 -0.67178957D-20 -0.35509642D-19
  0.66945769D-05  0.15912558D-20  0.63555699D-20 -0.27267277D-05  0.37612658D-03
  0.37612658D-03 -0.75225316D-03  0.17170380D-18 -0.36461021D-18  0.19022612D-18
  0.11461981D-05  0.11461981D-05 -0.22923962D-05 -0.15108080D-19 -0.10085760D-19
  0.66466443D-18  0.11833300D-05  0.11833300D-05 -0.23666599D-05  0.19774939D-20
 -0.10074808D-19 -0.46307880D-19 -0.13583587D-19  0.18664921D-18  0.63829175D-04
  0.29706347D-20  0.11596816D-18 -0.95743762D-04  0.37780125D-19 -0.67591580D-18
 -0.95743762D-04 -0.18071026D-18 -0.16199564D-20  0.12895454D-19 -0.10875457D-04
 -0.30384783D-20  0.54080115D-20  0.16313186D-04  0.78983476D-20 -0.44094373D-19
  0.16313186D-04  0.97851317D-20 -0.51426579D-03 -0.96219326D-03 -0.16624568D-02
 -0.26950364D-02 -0.40926277D-02 -0.56882713D-02 -0.67625339D-02 -0.60235451D-02
 -0.29902681D-02 -0.48178011D-03 -0.73966080D-05 -0.13217666D-05 -0.49392355D-07
  0.10260955D-02  0.19165991D-02  0.33263506D-02  0.53973153D-02  0.83544030D-02
  0.11958569D-01  0.15609668D-01  0.16634706D-01  0.12434780D-01  0.65640996D-03
 -0.84345422D-02 -0.50110871D-02  0.18787820D-04 -0.28268655D-03 -0.52759371D-03
 -0.91691144D-03 -0.14860437D-02 -0.23080585D-02 -0.33063604D-02 -0.43657409D-02
 -0.47206609D-02 -0.37010594D-02 -0.18416349D-03  0.31727436D-02  0.32843778D-02
 -0.14862274D-02  0.37886972D-04  0.37837666D-02  0.33344840D-02 -0.10232177D-13
 -0.13478073D-13 -0.14869472D-13 -0.12350806D-13 -0.65598129D-14 -0.16919671D-14
  0.17392847D-17  0.22516657D-14  0.29659490D-14  0.32721366D-14  0.27178856D-14
  0.14435350D-14  0.37232980D-15 -0.38274237D-18 -0.45493239D-02 -0.59924806D-02
 -0.66111099D-02 -0.54912867D-02 -0.29165558D-02 -0.75226481D-03  0.77330265D-06
 -0.11681236D-17 -0.15336607D-17 -0.17461856D-17 -0.14785982D-17 -0.84699798D-18
 -0.19266266D-18  0.90176726D-19  0.24887472D-16  0.32675426D-16  0.37203377D-16
  0.31502291D-16  0.18045725D-16  0.41047764D-17 -0.19212613D-17 -0.17074465D-01
 -0.22417521D-01 -0.25523997D-01 -0.21612672D-01 -0.12380571D-01 -0.28161503D-02
  0.13181133D-02 -0.80243924D-16  0.19785005D-16  0.56410267D-03 -0.41247321D-18
  0.30360950D-17  0.37593236D-02 -0.38720409D-19  0.14667305D-19  0.23542486D-03
  0.85196278D-04  0.85196278D-04 -0.17039256D-03  0.25940122D-18 -0.53234019D-18
 -0.64073624D-18 -0.67853415D-03 -0.67853415D-03  0.13570683D-02  0.50280270D-19
  0.18803384D-18  0.34929477D-18 -0.32665830D-03 -0.32665830D-03  0.65331661D-03
 -0.31279501D-19 -0.17677689D-18  0.14697632D-17 -0.96794893D-19  0.89051849D-18
 -0.26729824D-03 -0.19367843D-18  0.12434820D-17  0.40094736D-03  0.48406311D-18
 -0.39150375D-17  0.40094736D-03  0.58071078D-18  0.35369529D-19 -0.46238012D-18
  0.55345572D-03  0.61998260D-19 -0.56767907D-18 -0.83018358D-03 -0.16810685D-18
  0.19548194D-17 -0.83018358D-03 -0.15820601D-18
MO    7     MO 0.0        OCC NO =    2.0000000  ORB. ENERGY =   -0.752299
 -0.15797697D-02 -0.29362172D-02 -0.50003274D-02 -0.77981314D-02 -0.10894433D-01
 -0.12986365D-01 -0.12311031D-01 -0.78187494D-02 -0.19200549D-02 -0.13312532D-02
 -0.24614410D-02 -0.41508413D-02 -0.66139903D-02 -0.92194046D-02 -0.11747021D-01
 -0.11666005D-01 -0.10523011D-01 -0.60231750D-02  0.79131727D-02  0.80190909D-03
 -0.32260746D-04 -0.18620008D-16 -0.13663104D-16 -0.11219633D-16  0.94518702D-17
  0.69356513D-17  0.56952993D-17 -0.10233568D-01 -0.75092501D-02 -0.61663173D-02
  0.39867900D-18  0.80658523D-17 -0.16823234D-02  0.17324367D-17 -0.28438913D-18
  0.35506715D-04 -0.90431109D-19  0.10117055D-19 -0.19324724D-05 -0.82249587D-03
 -0.82249587D-03  0.16449917D-02 -0.94793910D-19 -0.23649543D-17 -0.23959870D-17
 -0.11408267D-03 -0.11408267D-03  0.22816534D-03 -0.15421003D-18 -0.12648720D-17
  0.68759379D-18 -0.92269531D-05 -0.92269531D-05  0.18453906D-04  0.42694860D-19
  0.13936711D-18 -0.40451010D-19 -0.32699348D-18  0.34041330D-18 -0.19073210D-03
 -0.19089058D-18 -0.60967488D-18  0.28609815D-03  0.11718710D-17 -0.41156503D-18
  0.28609815D-03  0.65331597D-18 -0.22075940D-19 -0.31656850D-20 -0.14233909D-04
 -0.31139371D-19  0.52618801D-19  0.21350863D-04  0.97367191D-19 -0.43121746D-19
  0.21350863D-04 -0.38376570D-19 -0.84013794D-03 -0.15719013D-02 -0.27158972D-02
 -0.44027861D-02 -0.66859820D-02 -0.92927288D-02 -0.11047714D-01 -0.98404538D-02
 -0.48850959D-02 -0.78706722D-03 -0.12083578D-04 -0.21593236D-05 -0.80690553D-07
  0.30158484D-02  0.56331719D-02  0.97766430D-02  0.15863518D-01  0.24554842D-01
  0.35148026D-01  0.45879153D-01  0.48891893D-01  0.36547683D-01  0.19292872D-02
 -0.24790383D-01 -0.14728336D-01  0.55220218D-04  0.49351265D-01  0.92107026D-01
  0.16007390D+00  0.25943271D+00  0.40293961D+00  0.57722263D+00  0.76216869D+00
  0.82413044D+00  0.64612895D+00  0.32151163D-01 -0.55389587D+00 -0.57338491D+00
  0.25946478D+00  0.48084458D-01  0.67931739D-01 -0.33341981D-02  0.83691338D-15
  0.11024027D-14  0.12162085D-14  0.10102009D-14  0.53654226D-15  0.13838990D-15
 -0.14226011D-18 -0.31670214D-15 -0.41716780D-15 -0.46023381D-15 -0.38227708D-15
 -0.20303664D-15 -0.52369073D-16  0.53833627D-19 -0.29234074D-01 -0.38507836D-01
 -0.42483164D-01 -0.35287151D-01 -0.18741863D-01 -0.48340732D-02  0.49692629D-05
 -0.32717683D-15 -0.42955920D-15 -0.48908475D-15 -0.41413688D-15 -0.23723355D-15
 -0.53962402D-16  0.25257374D-16 -0.37055106D-15 -0.48650638D-15 -0.55392330D-15
 -0.46903950D-15 -0.26868388D-15 -0.61116262D-16  0.28605774D-16 -0.10021496D+00
 -0.13157489D+00 -0.14980769D+00 -0.12685100D+00 -0.72665138D-01 -0.16528798D-01
  0.77363870D-02  0.61260618D-16  0.76988687D-16  0.12253593D-01 -0.36276850D-17
  0.43087817D-17 -0.10374616D-02  0.79584945D-19  0.69488770D-20 -0.30254454D-03
 -0.22626114D-02 -0.22626114D-02  0.45252228D-02  0.36172913D-16  0.46118384D-18
 -0.10419565D-16 -0.63703416D-03 -0.63703416D-03  0.12740683D-02  0.10246536D-16
  0.19748079D-17 -0.55345532D-17  0.34019499D-04  0.34019499D-04 -0.68038998D-04
 -0.43662750D-18 -0.35155886D-17  0.84627804D-18  0.16409466D-17  0.13956139D-17
  0.72244641D-03 -0.46590532D-17 -0.33441469D-18 -0.10836696D-02 -0.26378666D-18
 -0.38524271D-17 -0.10836696D-02 -0.56207751D-17  0.75978472D-19 -0.27386254D-18
  0.21576555D-03  0.48355792D-18  0.49494106D-18 -0.32364832D-03 -0.71149333D-18
  0.32664656D-18 -0.32364832D-03  0.37789412D-17
MO    8     MO 0.0        OCC NO =    2.0000000  ORB. ENERGY =   -0.289629
 -0.18721926D-02 -0.34797252D-02 -0.59259122D-02 -0.92416032D-02 -0.12911046D-01
 -0.15390204D-01 -0.14589863D-01 -0.92660377D-02 -0.22754663D-02 -0.42054934D-02
 -0.77758115D-02 -0.13112709D-01 -0.20893916D-01 -0.29124546D-01 -0.37109410D-01
 -0.36853474D-01 -0.33242703D-01 -0.19027502D-01  0.23516607D-01  0.14467297D-02
 -0.53679412D-04 -0.77748486D-16 -0.57050762D-16 -0.46847967D-16  0.67713179D-16