 Molden2AIM, Version 4.0.0 (06/02/2016)           Time: Fri Jun 29 23:22:06 2018
GAUSSIAN             23 MOL ORBITALS    400 PRIMITIVES        2 NUCLEI
  Mg   1    (CENTRE  1)   0.00000000  0.00000000 -0.71579235  CHARGE = 12.0
  Se   2    (CENTRE  2)   0.00000000  0.00000000  3.55038154  CHARGE = 34.0
CENTRE ASSIGNMENTS    1  1  1  1  1  1  1  1  1  1  1  1  1  1  1  1  1  1  1  1
CENTRE ASSIGNMENTS    1  1  1  1  1  1  1  1  1  1  1  1  1  1  1  1  1  1  1  1
CENTRE ASSIGNMENTS    1  1  1  1  1  1  1  1  1  1  1  1  1  1  1  1  1  1  1  1
CENTRE ASSIGNMENTS    1  1  1  1  1  1  1  1  1  1  1  1  1  1  1  1  1  1  1  1
CENTRE ASSIGNMENTS    1  1  1  1  1  1  1  1  1  1  1  1  1  1  1  1  1  1  1  1
CENTRE ASSIGNMENTS    1  1  1  1  1  1  1  1  1  1  1  1  1  1  1  1  1  1  1  1
CENTRE ASSIGNMENTS    1  1  1  1  1  1  1  1  1  1  1  1  1  1  1  1  1  2  2  2
CENTRE ASSIGNMENTS    2  2  2  2  2  2  2  2  2  2  2  2  2  2  2  2  2  2  2  2
CENTRE ASSIGNMENTS    2  2  2  2  2  2  2  2  2  2  2  2  2  2  2  2  2  2  2  2
CENTRE ASSIGNMENTS    2  2  2  2  2  2  2  2  2  2  2  2  2  2  2  2  2  2  2  2
CENTRE ASSIGNMENTS    2  2  2  2  2  2  2  2  2  2  2  2  2  2  2  2  2  2  2  2
CENTRE ASSIGNMENTS    2  2  2  2  2  2  2  2  2  2  2  2  2  2  2  2  2  2  2  2
CENTRE ASSIGNMENTS    2  2  2  2  2  2  2  2  2  2  2  2  2  2  2  2  2  2  2  2
CENTRE ASSIGNMENTS    2  2  2  2  2  2  2  2  2  2  2  2  2  2  2  2  2  2  2  2
CENTRE ASSIGNMENTS    2  2  2  2  2  2  2  2  2  2  2  2  2  2  2  2  2  2  2  2
CENTRE ASSIGNMENTS    2  2  2  2  2  2  2  2  2  2  2  2  2  2  2  2  2  2  2  2
CENTRE ASSIGNMENTS    2  2  2  2  2  2  2  2  2  2  2  2  2  2  2  2  2  2  2  2
CENTRE ASSIGNMENTS    2  2  2  2  2  2  2  2  2  2  2  2  2  2  2  2  2  2  2  2
CENTRE ASSIGNMENTS    2  2  2  2  2  2  2  2  2  2  2  2  2  2  2  2  2  2  2  2
CENTRE ASSIGNMENTS    2  2  2  2  2  2  2  2  2  2  2  2  2  2  2  2  2  2  2  2
TYPE ASSIGNMENTS      1  1  1  1  1  1  1  1  1  1  1  1  1  1  1  1  1  1  1  1
TYPE ASSIGNMENTS      1  1  1  1  1  1  1  1  1  1  1  1  1  1  1  1  1  1  1  1
TYPE ASSIGNMENTS      1  1  2  2  2  2  2  2  2  2  3  3  3  3  3  3  3  3  4  4
TYPE ASSIGNMENTS      4  4  4  4  4  4  2  2  2  2  2  2  2  2  3  3  3  3  3  3
TYPE ASSIGNMENTS      3  3  4  4  4  4  4  4  4  4  2  3  4  2  3  4  2  3  4  5
TYPE ASSIGNMENTS      6  7  8  9 10  5  6  7  8  9 10  5  6  7  8  9 10 11 12 13
TYPE ASSIGNMENTS     17 14 15 18 19 16 20 11 12 13 17 14 15 18 19 16 20  1  1  1
TYPE ASSIGNMENTS      1  1  1  1  1  1  1  1  1  1  1  1  1  1  1  1  1  1  1  1
TYPE ASSIGNMENTS      1  1  1  1  1  1  1  1  1  1  1  1  1  1  1  1  1  1  1  1
TYPE ASSIGNMENTS      1  1  1  1  1  1  1  1  1  1  1  1  1  1  1  1  1  1  1  1
TYPE ASSIGNMENTS      1  1  1  1  1  1  1  1  1  1  1  1  2  2  2  2  2  2  2  2
TYPE ASSIGNMENTS      2  2  2  3  3  3  3  3  3  3  3  3  3  3  4  4  4  4  4  4
TYPE ASSIGNMENTS      4  4  4  4  4  2  2  2  2  2  2  2  2  2  2  2  3  3  3  3
TYPE ASSIGNMENTS      3  3  3  3  3  3  3  4  4  4  4  4  4  4  4  4  4  4  2  2
TYPE ASSIGNMENTS      2  2  2  2  2  2  2  2  2  3  3  3  3  3  3  3  3  3  3  3
TYPE ASSIGNMENTS      4  4  4  4  4  4  4  4  4  4  4  2  3  4  2  3  4  2  3  4
TYPE ASSIGNMENTS      5  5  5  5  5  5  5  6  6  6  6  6  6  6  7  7  7  7  7  7
TYPE ASSIGNMENTS      7  8  8  8  8  8  8  8  9  9  9  9  9  9  9 10 10 10 10 10
TYPE ASSIGNMENTS     10 10  5  6  7  8  9 10  5  6  7  8  9 10  5  6  7  8  9 10
TYPE ASSIGNMENTS     11 12 13 17 14 15 18 19 16 20 11 12 13 17 14 15 18 19 16 20
EXPONENTS  0.1649000D+06 0.2471000D+05 0.5628000D+04 0.1596000D+04 0.5210000D+03
EXPONENTS  0.1880000D+03 0.7301000D+02 0.2990000D+02 0.1254000D+02 0.4306000D+01
EXPONENTS  0.1826000D+01 0.7417000D+00 0.7612000D-01 0.1649000D+06 0.2471000D+05
EXPONENTS  0.5628000D+04 0.1596000D+04 0.5210000D+03 0.1880000D+03 0.7301000D+02
EXPONENTS  0.2990000D+02 0.1254000D+02 0.4306000D+01 0.1826000D+01 0.7417000D+00
EXPONENTS  0.7612000D-01 0.1649000D+06 0.2471000D+05 0.5628000D+04 0.1596000D+04
EXPONENTS  0.5210000D+03 0.1880000D+03 0.7301000D+02 0.2990000D+02 0.1254000D+02
EXPONENTS  0.4306000D+01 0.1826000D+01 0.7417000D+00 0.7612000D-01 0.1457000D+00
EXPONENTS  0.3310000D-01 0.1290000D-01 0.3169000D+03 0.7486000D+02 0.2372000D+02
EXPONENTS  0.8669000D+01 0.3363000D+01 0.1310000D+01 0.4911000D+00 0.2364000D+00
EXPONENTS  0.3169000D+03 0.7486000D+02 0.2372000D+02 0.8669000D+01 0.3363000D+01
EXPONENTS  0.1310000D+01 0.4911000D+00 0.2364000D+00 0.3169000D+03 0.7486000D+02
EXPONENTS  0.2372000D+02 0.8669000D+01 0.3363000D+01 0.1310000D+01 0.4911000D+00
EXPONENTS  0.2364000D+00 0.3169000D+03 0.7486000D+02 0.2372000D+02 0.8669000D+01
EXPONENTS  0.3363000D+01 0.1310000D+01 0.4911000D+00 0.2364000D+00 0.3169000D+03
EXPONENTS  0.7486000D+02 0.2372000D+02 0.8669000D+01 0.3363000D+01 0.1310000D+01
EXPONENTS  0.4911000D+00 0.2364000D+00 0.3169000D+03 0.7486000D+02 0.2372000D+02
EXPONENTS  0.8669000D+01 0.3363000D+01 0.1310000D+01 0.4911000D+00 0.2364000D+00
EXPONENTS  0.8733000D-01 0.8733000D-01 0.8733000D-01 0.3237000D-01 0.3237000D-01
EXPONENTS  0.3237000D-01 0.7450000D-02 0.7450000D-02 0.7450000D-02 0.1260000D+00
EXPONENTS  0.1260000D+00 0.1260000D+00 0.1260000D+00 0.1260000D+00 0.1260000D+00
EXPONENTS  0.2940000D+00 0.2940000D+00 0.2940000D+00 0.2940000D+00 0.2940000D+00
EXPONENTS  0.2940000D+00 0.4680000D-01 0.4680000D-01 0.4680000D-01 0.4680000D-01
EXPONENTS  0.4680000D-01 0.4680000D-01 0.2520000D+00 0.2520000D+00 0.2520000D+00
EXPONENTS  0.2520000D+00 0.2520000D+00 0.2520000D+00 0.2520000D+00 0.2520000D+00
EXPONENTS  0.2520000D+00 0.2520000D+00 0.9400000D-01 0.9400000D-01 0.9400000D-01
EXPONENTS  0.9400000D-01 0.9400000D-01 0.9400000D-01 0.9400000D-01 0.9400000D-01
EXPONENTS  0.9400000D-01 0.9400000D-01 0.9563600D+07 0.1432100D+07 0.3259100D+06
EXPONENTS  0.9231200D+05 0.3011600D+05 0.1087200D+05 0.4240100D+04 0.1758400D+04
EXPONENTS  0.7665900D+03 0.3484300D+03 0.1640300D+03 0.7914200D+02 0.3552400D+02
EXPONENTS  0.1730500D+02 0.8378400D+01 0.3740500D+01 0.1689000D+01 0.2552000D+00
EXPONENTS  0.9563600D+07 0.1432100D+07 0.3259100D+06 0.9231200D+05 0.3011600D+05
EXPONENTS  0.1087200D+05 0.4240100D+04 0.1758400D+04 0.7665900D+03 0.3484300D+03
EXPONENTS  0.1640300D+03 0.7914200D+02 0.3552400D+02 0.1730500D+02 0.8378400D+01
EXPONENTS  0.3740500D+01 0.1689000D+01 0.2552000D+00 0.9563600D+07 0.1432100D+07
EXPONENTS  0.3259100D+06 0.9231200D+05 0.3011600D+05 0.1087200D+05 0.4240100D+04
EXPONENTS  0.1758400D+04 0.7665900D+03 0.3484300D+03 0.1640300D+03 0.7914200D+02
EXPONENTS  0.3552400D+02 0.1730500D+02 0.8378400D+01 0.3740500D+01 0.1689000D+01
EXPONENTS  0.2552000D+00 0.9563600D+07 0.1432100D+07 0.3259100D+06 0.9231200D+05
EXPONENTS  0.3011600D+05 0.1087200D+05 0.4240100D+04 0.1758400D+04 0.7665900D+03
EXPONENTS  0.3484300D+03 0.1640300D+03 0.7914200D+02 0.3552400D+02 0.1730500D+02
EXPONENTS  0.8378400D+01 0.3740500D+01 0.1689000D+01 0.2552000D+00 0.5092700D+00
EXPONENTS  0.1065100D+00 0.3920100D-01 0.8004300D+04 0.1896900D+04 0.6147100D+03
EXPONENTS  0.2335000D+03 0.9785600D+02 0.4351400D+02 0.2006300D+02 0.9112700D+01
EXPONENTS  0.4106300D+01 0.1794900D+01 0.2461500D+00 0.8004300D+04 0.1896900D+04
EXPONENTS  0.6147100D+03 0.2335000D+03 0.9785600D+02 0.4351400D+02 0.2006300D+02
EXPONENTS  0.9112700D+01 0.4106300D+01 0.1794900D+01 0.2461500D+00 0.8004300D+04
EXPONENTS  0.1896900D+04 0.6147100D+03 0.2335000D+03 0.9785600D+02 0.4351400D+02
EXPONENTS  0.2006300D+02 0.9112700D+01 0.4106300D+01 0.1794900D+01 0.2461500D+00
EXPONENTS  0.8004300D+04 0.1896900D+04 0.6147100D+03 0.2335000D+03 0.9785600D+02
EXPONENTS  0.4351400D+02 0.2006300D+02 0.9112700D+01 0.4106300D+01 0.1794900D+01
EXPONENTS  0.2461500D+00 0.8004300D+04 0.1896900D+04 0.6147100D+03 0.2335000D+03
EXPONENTS  0.9785600D+02 0.4351400D+02 0.2006300D+02 0.9112700D+01 0.4106300D+01
EXPONENTS  0.1794900D+01 0.2461500D+00 0.8004300D+04 0.1896900D+04 0.6147100D+03
EXPONENTS  0.2335000D+03 0.9785600D+02 0.4351400D+02 0.2006300D+02 0.9112700D+01
EXPONENTS  0.4106300D+01 0.1794900D+01 0.2461500D+00 0.8004300D+04 0.1896900D+04
EXPONENTS  0.6147100D+03 0.2335000D+03 0.9785600D+02 0.4351400D+02 0.2006300D+02
EXPONENTS  0.9112700D+01 0.4106300D+01 0.1794900D+01 0.2461500D+00 0.8004300D+04
EXPONENTS  0.1896900D+04 0.6147100D+03 0.2335000D+03 0.9785600D+02 0.4351400D+02
EXPONENTS  0.2006300D+02 0.9112700D+01 0.4106300D+01 0.1794900D+01 0.2461500D+00
EXPONENTS  0.8004300D+04 0.1896900D+04 0.6147100D+03 0.2335000D+03 0.9785600D+02
EXPONENTS  0.4351400D+02 0.2006300D+02 0.9112700D+01 0.4106300D+01 0.1794900D+01
EXPONENTS  0.2461500D+00 0.6243200D+00 0.6243200D+00 0.6243200D+00 0.8891700D-01
EXPONENTS  0.8891700D-01 0.8891700D-01 0.3025100D-01 0.3025100D-01 0.3025100D-01
EXPONENTS  0.3618500D+03 0.1085500D+03 0.4143300D+02 0.1757900D+02 0.7862700D+01
EXPONENTS  0.3518000D+01 0.1534800D+01 0.3618500D+03 0.1085500D+03 0.4143300D+02
EXPONENTS  0.1757900D+02 0.7862700D+01 0.3518000D+01 0.1534800D+01 0.3618500D+03
EXPONENTS  0.1085500D+03 0.4143300D+02 0.1757900D+02 0.7862700D+01 0.3518000D+01
EXPONENTS  0.1534800D+01 0.3618500D+03 0.1085500D+03 0.4143300D+02 0.1757900D+02
EXPONENTS  0.7862700D+01 0.3518000D+01 0.1534800D+01 0.3618500D+03 0.1085500D+03
EXPONENTS  0.4143300D+02 0.1757900D+02 0.7862700D+01 0.3518000D+01 0.1534800D+01
EXPONENTS  0.3618500D+03 0.1085500D+03 0.4143300D+02 0.1757900D+02 0.7862700D+01
EXPONENTS  0.3518000D+01 0.1534800D+01 0.6081300D+00 0.6081300D+00 0.6081300D+00
EXPONENTS  0.6081300D+00 0.6081300D+00 0.6081300D+00 0.2220000D+00 0.2220000D+00
EXPONENTS  0.2220000D+00 0.2220000D+00 0.2220000D+00 0.2220000D+00 0.8370000D-01
EXPONENTS  0.8370000D-01 0.8370000D-01 0.8370000D-01 0.8370000D-01 0.8370000D-01
EXPONENTS  0.4620000D+00 0.4620000D+00 0.4620000D+00 0.4620000D+00 0.4620000D+00
EXPONENTS  0.4620000D+00 0.4620000D+00 0.4620000D+00 0.4620000D+00 0.4620000D+00
EXPONENTS  0.1880000D+00 0.1880000D+00 0.1880000D+00 0.1880000D+00 0.1880000D+00
EXPONENTS  0.1880000D+00 0.1880000D+00 0.1880000D+00 0.1880000D+00 0.1880000D+00
MO    1     MO 0.0        OCC NO =    2.0000000  ORB. ENERGY = -455.103842
 -0.61321070D-05 -0.11465278D-04 -0.19763570D-04 -0.31875661D-04 -0.47840883D-04
 -0.64118449D-04 -0.70472175D-04 -0.52746833D-04 -0.18108638D-04 -0.10207210D-05
  0.71171737D-07 -0.16904512D-07 -0.10536359D-08  0.13213341D-04  0.24785680D-04
  0.42635717D-04  0.69576286D-04  0.10558695D-03  0.14952954D-03  0.18079349D-03
  0.17852610D-03  0.89287554D-04 -0.49996521D-04 -0.79840085D-04 -0.26058078D-04
  0.15157202D-06 -0.76957914D-05 -0.14425079D-04 -0.24844999D-04 -0.40500275D-04
 -0.61655990D-04 -0.87373922D-04 -0.10677221D-03 -0.10690867D-03 -0.55823636D-04
  0.34757834D-04  0.62844042D-04  0.46063823D-04 -0.20999071D-04 -0.22121584D-04
 -0.45398298D-05  0.48061768D-06 -0.25947590D-19 -0.33535893D-19 -0.36159203D-19
 -0.29808252D-19 -0.16274444D-19 -0.52182579D-20 -0.58771472D-21  0.67442904D-23
 -0.18269156D-19 -0.23611921D-19 -0.25458939D-19 -0.20987367D-19 -0.11458496D-19
 -0.36740664D-20 -0.41379766D-21  0.47485140D-23 -0.17598798D-03 -0.22745519D-03
 -0.24524764D-03 -0.20217269D-03 -0.11038045D-03 -0.35392523D-04 -0.39861401D-05
  0.45742748D-07 -0.22814701D-19 -0.29485386D-19 -0.32269000D-19 -0.26959904D-19
 -0.15082534D-19 -0.51090261D-20 -0.79959166D-21  0.15102386D-20  0.12766046D-19
  0.16498651D-19  0.18056232D-19  0.15085509D-19  0.84394849D-20  0.28587736D-20
  0.44741433D-21 -0.84505932D-21  0.16142390D-03  0.20862189D-03  0.22831717D-03
  0.19075301D-03  0.10671547D-03  0.36148576D-04  0.56574579D-05 -0.10685593D-04
 -0.13286593D-20  0.19301048D-20 -0.11305610D-04 -0.17962630D-21  0.20821452D-21
 -0.16619671D-06  0.11801571D-22 -0.93625885D-23  0.50229812D-08  0.30164990D-06
  0.30164990D-06 -0.60329979D-06  0.26623558D-22 -0.40194715D-21  0.10630627D-20
  0.45224016D-06  0.45224016D-06 -0.90448032D-06  0.51563662D-22  0.14741919D-20
 -0.12228261D-20  0.44574511D-07  0.44574511D-07 -0.89149022D-07 -0.10107020D-22
 -0.25181691D-21  0.26116884D-21 -0.32030003D-21  0.20841146D-21  0.88496285D-06
 -0.31503110D-21  0.21264550D-21 -0.13274443D-05  0.12759312D-20 -0.83787988D-21
 -0.13274443D-05  0.14798268D-21  0.41429778D-22 -0.53652070D-22  0.91913509D-07
  0.41498399D-22 -0.53685668D-22 -0.13787026D-06 -0.16578773D-21  0.21464188D-21
 -0.13787026D-06 -0.94671678D-23  0.77215494D+00  0.14427355D+01  0.25022440D+01
  0.40993149D+01  0.64192016D+01  0.96399290D+01  0.13749299D+02  0.18165609D+02
  0.20949413D+02  0.18855144D+02  0.10578204D+02  0.25573375D+01  0.12140971D+00
 -0.20776850D-02  0.58436326D-03 -0.22772543D-03  0.21540226D-04  0.21239116D-05
  0.30186711D-04  0.55589298D-04  0.96489057D-04  0.15803100D-03  0.24873352D-03
  0.37543032D-03  0.54726804D-03  0.75151400D-03  0.95441320D-03  0.10278425D-02
  0.81999341D-03  0.18367198D-03 -0.49113476D-03 -0.43675357D-03 -0.85299744D-04
 -0.23629784D-05 -0.17111886D-06 -0.34947153D-08 -0.71933548D-04 -0.12986936D-03
 -0.22607782D-03 -0.37021198D-03 -0.58366027D-03 -0.88072729D-03 -0.12890099D-02
 -0.17760863D-02 -0.22880750D-02 -0.25184511D-02 -0.21201274D-02 -0.50487821D-03
  0.17006239D-02  0.22723901D-02  0.27916777D-03 -0.97545011D-03 -0.43059777D-03
  0.21369793D-05  0.22443691D-04  0.48624007D-04  0.82776002D-04  0.13511968D-03
  0.21302198D-03  0.32146213D-03  0.47048710D-03  0.64900747D-03  0.83715179D-03
  0.92548471D-03  0.78381692D-03  0.19039434D-03 -0.66055618D-03 -0.93229930D-03
 -0.11123615D-03  0.52278430D-03  0.41789041D-03 -0.15831665D-03  0.16555424D-03
  0.67879016D-04  0.54103732D-05  0.53066069D-16  0.76055983D-16  0.10043484D-15
  0.11544479D-15  0.10620199D-15  0.67940323D-16  0.23516781D-16  0.26438485D-17
  0.33636197D-19  0.58285717D-20  0.59561660D-22 -0.34026431D-16 -0.48767767D-16
 -0.64399708D-16 -0.74024217D-16 -0.68097653D-16 -0.43563934D-16 -0.15079167D-16
 -0.16952590D-17 -0.21567826D-19 -0.37373316D-20 -0.38191462D-22  0.42185868D-05
  0.60462132D-05  0.79842565D-05  0.91775003D-05  0.84427266D-05  0.54010435D-05
  0.18695106D-05  0.21017770D-06  0.26739727D-08  0.46335325D-09  0.47349660D-11
  0.97945625D-17  0.14127885D-16  0.18816515D-16  0.22268653D-16  0.21399339D-16
  0.14708920D-16  0.46310263D-17 -0.22381332D-17 -0.22968664D-17 -0.57843620D-18
  0.63065862D-21 -0.59968361D-17 -0.86499636D-17 -0.11520632D-16 -0.13634245D-16
 -0.13101997D-16 -0.90057091D-17 -0.28354003D-17  0.13703234D-17  0.14062835D-17
  0.35415437D-18 -0.38612815D-21 -0.56587845D-03 -0.81623508D-03 -0.10871195D-02
 -0.12865660D-02 -0.12363416D-02 -0.84980424D-03 -0.26755641D-03  0.12930760D-03
  0.13270089D-03  0.33419010D-04 -0.36436147D-07 -0.14337094D-17 -0.20784299D-17
 -0.27585958D-17 -0.32921202D-17 -0.31629460D-17 -0.22138936D-17 -0.66846550D-18
  0.40920061D-18  0.44008795D-18  0.11835404D-18 -0.44118527D-19  0.11284662D-17
  0.16359227D-17  0.21712782D-17  0.25912129D-17  0.24895404D-17  0.17425456D-17
  0.52614615D-18 -0.32207994D-18 -0.34639122D-18 -0.93155930D-19  0.34725492D-19
  0.40114428D-03  0.58153365D-03  0.77184048D-03  0.92111777D-03  0.88497551D-03
  0.61943568D-03  0.18703310D-03 -0.11449216D-03 -0.12313427D-03 -0.33114834D-04
  0.12344130D-04  0.22354085D-18 -0.13665414D-18 -0.62455878D-05  0.72634262D-20
 -0.63660191D-20 -0.19688324D-04 -0.25327830D-21  0.15602226D-21 -0.35282864D-06
 -0.90067909D-04 -0.93228893D-04 -0.78001561D-04 -0.50333156D-04 -0.22610342D-04
 -0.66018539D-05 -0.11137732D-05 -0.90067909D-04 -0.93228893D-04 -0.78001561D-04
 -0.50333156D-04 -0.22610342D-04 -0.66018539D-05 -0.11137732D-05  0.18013582D-03
  0.18645779D-03  0.15600312D-03  0.10066631D-03  0.45220684D-04  0.13203708D-04
  0.22275464D-05 -0.17795498D-17 -0.18420041D-17 -0.15411445D-17 -0.99447583D-18
 -0.44673214D-18 -0.13043855D-18 -0.22005783D-19 -0.86009890D-17 -0.89028455D-17
 -0.74487192D-17 -0.48065391D-17 -0.21591631D-17 -0.63044067D-18 -0.10635920D-18
  0.76047674D-17  0.78716610D-17  0.65859609D-17  0.42498149D-17  0.19090750D-17
  0.55741899D-18  0.94040000D-19  0.47923262D-05  0.47923262D-05 -0.95846523D-05
  0.68988336D-20  0.41840902D-19 -0.41923975D-19 -0.19939244D-05 -0.19939244D-05
  0.39878487D-05 -0.75088766D-21 -0.26625441D-20  0.31529215D-20 -0.10813977D-05
 -0.10813977D-05  0.21627955D-05  0.55839058D-22 -0.37118814D-21  0.55931996D-21
  0.27846235D-21 -0.45174744D-21  0.25981169D-05  0.29848457D-21 -0.45802446D-21
 -0.38971753D-05 -0.11338716D-20  0.18132668D-20 -0.38971753D-05 -0.75549414D-21
 -0.25049207D-22  0.10955665D-21 -0.13889862D-05 -0.21813846D-22  0.11103423D-21
  0.20834794D-05  0.96961467D-22 -0.43970417D-21  0.20834794D-05  0.14586029D-23
MO    2     MO 0.0        OCC NO =    2.0000000  ORB. ENERGY =  -58.533880
  0.86710560D-04  0.16212383D-03  0.27946515D-03  0.45073519D-03  0.67649012D-03
  0.90666171D-03  0.99650605D-03  0.74586230D-03  0.25606372D-03  0.14433422D-04
 -0.10063981D-05  0.23903688D-06  0.14898852D-07 -0.18598369D-03 -0.34886954D-03
 -0.60011680D-03 -0.97931737D-03 -0.14861836D-02 -0.21046952D-02 -0.25447493D-02
 -0.25128347D-02 -0.12567623D-02  0.70372340D-03  0.11237849D-02  0.36677911D-03
 -0.21334441D-05  0.10822283D-03  0.20285411D-03  0.34938527D-03  0.56953915D-03
  0.86704350D-03  0.12287045D-02  0.15014948D-02  0.15034139D-02  0.78502545D-03
 -0.48878550D-03 -0.88375060D-03 -0.64777710D-03  0.29530152D-03  0.31912235D-03
  0.55827658D-04 -0.71716368D-05 -0.15285645D-17 -0.19755890D-17 -0.21301274D-17
 -0.17559949D-17 -0.95872243D-18 -0.30740595D-18 -0.34622092D-19  0.39730405D-21
  0.93501802D-17  0.12084615D-16  0.13029922D-16  0.10741365D-16  0.58644746D-17
  0.18803924D-17  0.21178223D-18 -0.24302962D-20  0.24927646D-02  0.32217669D-02
  0.34737863D-02  0.28636554D-02  0.15634730D-02  0.50131394D-03  0.56461292D-04
 -0.64791869D-06  0.14804182D-17  0.19132708D-17  0.20938961D-17  0.17493954D-17
  0.97868727D-18  0.33151849D-18  0.51884530D-19 -0.97997545D-19 -0.27688285D-17
 -0.35783935D-17 -0.39162173D-17 -0.32718970D-17 -0.18304404D-17 -0.62003957D-18
 -0.97039721D-19  0.18328497D-18 -0.22814635D-02 -0.29485301D-02 -0.32268907D-02
 -0.26959827D-02 -0.15082490D-02 -0.51090115D-03 -0.79958937D-04  0.15102343D-03
 -0.10139590D-19 -0.18519913D-19  0.15782173D-03  0.34107992D-19 -0.39970046D-19
  0.64759016D-06 -0.80155936D-21  0.10178276D-20 -0.64590755D-07 -0.35995759D-05
 -0.35995759D-05  0.71991519D-05 -0.10879436D-19 -0.13488286D-18  0.12321161D-18
 -0.58474260D-05 -0.58474260D-05  0.11694852D-04  0.51169957D-20 -0.12975969D-18
  0.16895184D-18 -0.52920353D-06 -0.52920353D-06  0.10584071D-05  0.39189037D-20
  0.26662983D-19 -0.32057673D-19  0.52046981D-19 -0.59233949D-19 -0.13145410D-04
  0.51742157D-19 -0.59287253D-19  0.19718115D-04 -0.20788310D-18  0.23698910D-18
  0.19718115D-04 -0.40575918D-19 -0.18894791D-21  0.87712596D-21 -0.14322551D-05
 -0.13147286D-21  0.89089431D-21  0.21483826D-05  0.69831660D-21 -0.35222722D-20
  0.21483826D-05  0.29523703D-20  0.27418893D-03  0.51230923D-03  0.88853619D-03
  0.14556493D-02  0.22794312D-02  0.34230978D-02  0.48823175D-02  0.64505305D-02
  0.74390473D-02  0.66953812D-02  0.37562753D-02  0.90809966D-03  0.43112070D-04
 -0.73777710D-06  0.20750491D-06 -0.80864331D-07  0.76488425D-08  0.75419198D-09
 -0.24581175D+00 -0.45266617D+00 -0.78571475D+00 -0.12868536D+01 -0.20254483D+01
 -0.30571460D+01 -0.44564284D+01 -0.61196124D+01 -0.77718298D+01 -0.83697677D+01
 -0.66772434D+01 -0.14956493D+01  0.39993325D+01  0.35565041D+01  0.69459967D+00
  0.19241840D-01  0.13934286D-02  0.28457625D-04  0.10078774D-02  0.18196294D-02
  0.31676283D-02  0.51871250D-02  0.81777980D-02  0.12340072D-01  0.18060614D-01
  0.24885153D-01  0.32058744D-01  0.35286596D-01  0.29705592D-01  0.70739645D-02
 -0.23827832D-01 -0.31838979D-01 -0.39114837D-02  0.13667255D-01  0.60332041D-02
 -0.29941707D-04 -0.33158826D-03 -0.71838227D-03 -0.12229517D-02 -0.19962893D-02
 -0.31472357D-02 -0.47493555D-02 -0.69510847D-02 -0.95885857D-02 -0.12368273D-01
 -0.13673324D-01 -0.11580292D-01 -0.28129298D-02  0.97592090D-02  0.13774004D-01
  0.16434284D-02 -0.77237355D-02 -0.61740091D-02  0.23390067D-02 -0.26725991D-02
 -0.99089149D-03 -0.62525241D-04  0.17232755D-13  0.24698535D-13  0.32615363D-13
  0.37489716D-13  0.34488195D-13  0.22063043D-13  0.76368750D-14  0.85856736D-15
  0.10923070D-16  0.18927792D-17  0.19342143D-19 -0.19166853D-13 -0.27470546D-13
 -0.36275910D-13 -0.41697329D-13 -0.38358937D-13 -0.24539263D-13 -0.84939906D-14
 -0.95492765D-15 -0.12149007D-16 -0.21052130D-17 -0.21512986D-19 -0.22767777D-01
 -0.32631505D-01 -0.43091154D-01 -0.49531109D-01 -0.45565524D-01 -0.29149514D-01
 -0.10089777D-01 -0.11343323D-02 -0.14431471D-04 -0.25007246D-05 -0.25554684D-07
 -0.57087594D-15 -0.82344356D-15 -0.10967203D-14 -0.12979281D-14 -0.12472602D-14
 -0.85730918D-15 -0.26991930D-15  0.13044956D-15  0.13387283D-15  0.33714146D-16
 -0.36757929D-19  0.68612190D-15  0.98967679D-15  0.13181214D-14  0.15599482D-14
  0.14990517D-14  0.10303790D-14  0.32440944D-15 -0.15678415D-15 -0.16089849D-15
 -0.40520212D-16  0.44178460D-19  0.85614213D-02  0.12349176D-01  0.16447504D-01
  0.19465016D-01  0.18705150D-01  0.12857058D-01  0.40479773D-02 -0.19563509D-02
 -0.20076896D-02 -0.50561074D-03  0.55125833D-06  0.95070101D-16  0.13782189D-15
  0.18292409D-15  0.21830240D-15  0.20973678D-15  0.14680457D-15  0.44326334D-16
 -0.27134329D-16 -0.29182487D-16 -0.78481252D-17  0.29255251D-17 -0.11539717D-15
 -0.16728977D-15 -0.22203533D-15 -0.26497792D-15 -0.25458088D-15 -0.17819305D-15
 -0.53803807D-16  0.32935956D-16  0.35422033D-16  0.95261433D-17 -0.35510355D-17
 -0.60340433D-02 -0.87474741D-02 -0.11610084D-01 -0.13855525D-01 -0.13311870D-01
 -0.93175994D-02 -0.28133663D-02  0.17221999D-02  0.18521952D-02  0.49811589D-03
 -0.18568135D-03 -0.11467280D-16  0.13743743D-16  0.97636754D-04 -0.35603481D-18
  0.47629938D-18  0.27992992D-03 -0.28073426D-20  0.55947677D-21  0.42900469D-05
  0.14143734D-04  0.14640117D-04  0.12248906D-04  0.79040226D-05  0.35505950D-05
  0.10367163D-05  0.17490039D-06  0.14143734D-04  0.14640117D-04  0.12248906D-04
  0.79040226D-05  0.35505950D-05  0.10367163D-05  0.17490039D-06 -0.28287469D-04
 -0.29280233D-04 -0.24497812D-04 -0.15808045D-04 -0.71011900D-05 -0.20734325D-05
 -0.34980078D-06  0.95182844D-15  0.98523339D-15  0.82431250D-15  0.53191564D-15
  0.23894378D-15  0.69767716D-16  0.11770241D-16 -0.10015985D-14 -0.10367501D-14
 -0.86741487D-15 -0.55972891D-15 -0.25143788D-15 -0.73415791D-16 -0.12385694D-16
  0.96867490D-15  0.10026711D-14  0.83890205D-15  0.54133004D-15  0.24317286D-15
  0.71002538D-16  0.11978563D-16 -0.62920624D-04 -0.62920624D-04  0.12584125D-03
 -0.38959689D-17  0.42572850D-17 -0.41753759D-17  0.26896742D-04  0.26896742D-04
 -0.53793484D-04  0.42655399D-18 -0.84124639D-18  0.86314068D-18  0.15593097D-04
  0.15593097D-04 -0.31186195D-04 -0.34219527D-19  0.62014777D-19 -0.77107187D-19
 -0.14462011D-19  0.25113413D-19 -0.37993947D-04 -0.15303228D-19  0.26595284D-19
  0.56990920D-04  0.58689262D-19 -0.10193552D-18  0.56990920D-04  0.61813314D-19
 -0.18214939D-19  0.17318766D-19  0.19906727D-04 -0.18198167D-19  0.17277693D-19
 -0.29860091D-04  0.72842984D-19 -0.69233989D-19 -0.29860091D-04 -0.39252065D-20
MO    3     MO 0.0        OCC NO =    2.0000000  ORB. ENERGY =  -52.430881
  0.56221574D-04  0.10511819D-03  0.18120020D-03  0.29224862D-03  0.43862408D-03
  0.58786322D-03  0.64611668D-03  0.48360376D-03  0.16602713D-03  0.93583724D-05
 -0.65253054D-06  0.15498723D-06  0.96601492D-08 -0.12583139D-03 -0.23603541D-03
 -0.40602232D-03 -0.66257886D-03 -0.10055105D-02 -0.14239782D-02 -0.17217065D-02
 -0.17001140D-02 -0.85029036D-03  0.47611966D-03  0.76032158D-03  0.24815253D-03
 -0.14434288D-05  0.79028014D-04  0.14813101D-03  0.25513307D-03  0.41589696D-03
  0.63314481D-03  0.89724202D-03  0.10964429D-02  0.10978442D-02  0.57325242D-03
 -0.35692789D-03 -0.64534491D-03 -0.47302899D-03  0.21563927D-03  0.40264351D-04
  0.90213639D-05 -0.77311274D-06  0.62052471D-16  0.80199547D-16  0.86473074D-16
  0.71285065D-16  0.38919585D-16  0.12479224D-16  0.14054928D-17 -0.16128661D-19
 -0.29255817D-16 -0.37811601D-16 -0.40769375D-16 -0.33608699D-16 -0.18349378D-16
 -0.58835675D-17 -0.66264629D-18  0.76041638D-20  0.19029959D-02  0.24595218D-02
  0.26519154D-02  0.21861367D-02  0.11935675D-02  0.38270696D-03  0.43102989D-04
 -0.49462616D-06  0.18487665D-16  0.23893189D-16  0.26148862D-16  0.21846690D-16
  0.12221981D-16  0.41400484D-17  0.64794114D-18 -0.12238068D-17  0.32717954D-16
  0.42284206D-16  0.46276113D-16  0.38662480D-16  0.21629460D-16  0.73267182D-17
  0.11466731D-17 -0.21657929D-17 -0.20096847D-02 -0.25972871D-02 -0.28424881D-02
 -0.23748243D-02 -0.13285792D-02 -0.45004017D-03 -0.70433847D-04  0.13303279D-03
 -0.14774363D-17  0.14475418D-17  0.14113232D-03 -0.46683048D-18  0.48327338D-18
  0.18518125D-05  0.12756126D-19 -0.13294451D-19  0.28169615D-07 -0.23248085D-04
 -0.23248085D-04  0.46496170D-04 -0.36519996D-21  0.19443745D-18 -0.29891850D-18
 -0.26593867D-04 -0.26593867D-04  0.53187733D-04  0.13353731D-20  0.21147422D-17
 -0.22317398D-17 -0.12042863D-05 -0.12042863D-05  0.24085726D-05  0.57090380D-22
 -0.42200071D-18  0.43538758D-18 -0.57759246D-18  0.61092895D-18  0.16273121D-04
 -0.57760914D-18  0.61097871D-18 -0.24409681D-04  0.23103865D-17 -0.24437656D-17
 -0.24409681D-04  0.22863802D-20  0.39942308D-19 -0.39121860D-19  0.23426025D-05
  0.39959992D-19 -0.39150199D-19 -0.35139037D-05 -0.15978692D-18  0.15651578D-18
 -0.35139037D-05 -0.52514294D-21  0.40558476D-05  0.75781622D-05  0.13143373D-04
  0.21532203D-04  0.33717719D-04  0.50635023D-04  0.72220041D-04  0.95417305D-04
  0.11003961D-03  0.99039176D-04  0.55563441D-04  0.13432759D-04  0.63772081D-06
 -0.10913320D-07  0.30694466D-08 -0.11961584D-08  0.11314293D-09  0.11156131D-10
 -0.10966009D-03 -0.20194077D-03 -0.35051844D-03 -0.57408355D-03 -0.90358108D-03
 -0.13638360D-02 -0.19880756D-02 -0.27300455D-02 -0.34671230D-02 -0.37338715D-02
 -0.29788125D-02 -0.66723025D-03  0.17841587D-02  0.15866067D-02  0.30987072D-03
  0.85840564D-05  0.62162817D-06  0.12695348D-07  0.84260796D-05  0.15212507D-04
  0.26482077D-04  0.43365519D-04  0.68368210D-04  0.10316575D-03  0.15099075D-03
  0.20804541D-03  0.26801823D-03  0.29500380D-03  0.24834536D-03  0.59139917D-04
 -0.19920598D-03 -0.26618095D-03 -0.32700873D-04  0.11426129D-03  0.50438928D-04
 -0.25031933D-06 -0.59635839D-05 -0.12920038D-04 -0.21994673D-04 -0.35903077D-04
 -0.56602741D-04 -0.85416716D-04 -0.12501461D-03 -0.17244982D-03 -0.22244224D-03
 -0.24591346D-03 -0.20827047D-03 -0.50590280D-04  0.17551847D-03  0.24772419D-03
  0.29556907D-04 -0.13891066D-03 -0.11103898D-03  0.42066817D-04  0.12088523D-03
 -0.47904406D-03  0.10562531D-04 -0.69944619D-11 -0.10024686D-10 -0.13237983D-10
 -0.15216394D-10 -0.13998131D-10 -0.89549879D-11 -0.30996686D-11 -0.34847687D-12
 -0.44334752D-14 -0.76824464D-15 -0.78506242D-17  0.75561561D-11  0.10829724D-10
  0.14301066D-10  0.16438355D-10  0.15122259D-10  0.96741232D-11  0.33485893D-11
  0.37646150D-12  0.47895080D-14  0.82993896D-15  0.84810730D-17  0.48625398D+02
  0.69691472D+02  0.92030263D+02  0.10578415D+03  0.97314803D+02  0.62254946D+02
  0.21548851D+02  0.24226062D+01  0.30821456D-01  0.53408256D-02  0.54577426D-04
  0.17056160D-14  0.24602167D-14  0.32766903D-14  0.38778425D-14  0.37264610D-14
  0.25613976D-14  0.80644261D-15 -0.38974643D-15 -0.39997418D-15 -0.10072834D-15
  0.10982231D-18 -0.17659414D-14 -0.25472313D-14 -0.33925825D-14 -0.40149966D-14
 -0.38582610D-14 -0.26519908D-14 -0.83496541D-15  0.40353124D-15  0.41412074D-15
  0.10429097D-15 -0.11370657D-18 -0.25841639D-01 -0.37274528D-01 -0.49644848D-01
 -0.58752852D-01 -0.56459284D-01 -0.38807511D-01 -0.12218341D-01  0.59050141D-02
  0.60599738D-02  0.15261263D-02 -0.16639081D-05 -0.11515944D-14 -0.16694515D-14
 -0.22157793D-14 -0.26443206D-14 -0.25405643D-14 -0.17782596D-14 -0.53692969D-15
  0.32868107D-15  0.35349062D-15  0.95065191D-16 -0.35437202D-16  0.12110496D-14
  0.17556429D-14  0.23301768D-14  0.27808431D-14  0.26717301D-14  0.18700686D-14
  0.56465061D-15 -0.34565041D-15 -0.37174084D-15 -0.99973271D-16  0.37266775D-16
  0.17667982D-01  0.25613044D-01  0.33994910D-01  0.40569673D-01  0.38977824D-01
  0.27282399D-01  0.82376781D-02 -0.50426879D-02 -0.54233208D-02 -0.14585083D-02
  0.54368434D-03  0.18237069D-15 -0.19493583D-15 -0.15859345D-02  0.74064370D-17
 -0.76422250D-17  0.44921229D-04 -0.37704527D-19  0.41874847D-19 -0.23369492D-05
  0.17058269D-02  0.17656938D-02  0.14772982D-02  0.95327682D-03  0.42822498D-03
  0.12503476D-03  0.21094131D-04  0.17058269D-02  0.17656938D-02  0.14772982D-02
  0.95327682D-03  0.42822498D-03  0.12503476D-03  0.21094131D-04 -0.34116537D-02
 -0.35313876D-02 -0.29545963D-02 -0.19065536D-02 -0.85644996D-03 -0.25006953D-03
 -0.42188262D-04 -0.40119428D-17 -0.41527442D-17 -0.34744650D-17 -0.22420166D-17
 -0.10071445D-17 -0.29406989D-18 -0.49611393D-19  0.42133881D-14  0.43612593D-14
  0.36489228D-14  0.23545913D-14  0.10577146D-14  0.30883555D-15  0.52102450D-16
 -0.48068583D-14 -0.49755577D-14 -0.41628861D-14 -0.26862437D-14 -0.12066974D-14
 -0.35233610D-15 -0.59441260D-16 -0.48446592D-04 -0.48446592D-04  0.96893184D-04
  0.13078083D-18 -0.21740807D-16  0.24402565D-16  0.48580120D-04  0.48580120D-04
 -0.97160239D-04  0.29513957D-20  0.54750961D-17 -0.60027835D-17 -0.84842906D-06
 -0.84842906D-06  0.16968581D-05 -0.13948363D-21 -0.10835287D-17  0.11092439D-17
  0.59994686D-18 -0.59755852D-18  0.31827664D-04  0.61246017D-18 -0.61137940D-18
 -0.47741496D-04 -0.24123008D-17  0.24040549D-17 -0.47741496D-04  0.24056708D-19
  0.40314718D-19 -0.56263134D-19  0.34445685D-05  0.39331801D-19 -0.55229136D-19
 -0.51668527D-05 -0.16027596D-18  0.22401854D-18 -0.51668527D-05 -0.40791775D-20
MO    4     MO 0.0        OCC NO =    2.0000000  ORB. ENERGY =  -52.428762
 -0.22959558D-16 -0.42927778D-16 -0.73997867D-16 -0.11934741D-15 -0.17912368D-15
 -0.24006941D-15 -0.26385874D-15 -0.19749231D-15 -0.67801545D-16 -0.38217375D-17