 Molden2AIM, Version 4.0.0 (06/02/2016)           Time: Fri Jun 29 23:16:57 2018
GAUSSIAN              7 MOL ORBITALS    150 PRIMITIVES        2 NUCLEI
  N    1    (CENTRE  1)   0.00000000  0.00000000  2.00260325  CHARGE =  7.0
  O    2    (CENTRE  2)   0.00000000  0.00000000  0.01127789  CHARGE =  8.0
CENTRE ASSIGNMENTS    1  1  1  1  1  1  1  1  1  1  1  1  1  1  1  1  1  1  1  1
CENTRE ASSIGNMENTS    1  1  1  1  1  1  1  1  1  1  1  1  1  1  1  1  1  1  1  1
CENTRE ASSIGNMENTS    1  1  1  1  1  1  1  1  1  1  1  1  1  1  1  1  1  1  1  1
CENTRE ASSIGNMENTS    1  1  1  1  1  1  1  1  1  1  1  1  1  1  1  2  2  2  2  2
CENTRE ASSIGNMENTS    2  2  2  2  2  2  2  2  2  2  2  2  2  2  2  2  2  2  2  2
CENTRE ASSIGNMENTS    2  2  2  2  2  2  2  2  2  2  2  2  2  2  2  2  2  2  2  2
CENTRE ASSIGNMENTS    2  2  2  2  2  2  2  2  2  2  2  2  2  2  2  2  2  2  2  2
CENTRE ASSIGNMENTS    2  2  2  2  2  2  2  2  2  2
TYPE ASSIGNMENTS      1  1  1  1  1  1  1  1  1  1  1  1  1  1  1  1  1  1  1  2
TYPE ASSIGNMENTS      2  2  3  3  3  4  4  4  2  3  4  2  3  4  2  3  4  5  6  7
TYPE ASSIGNMENTS      8  9 10  5  6  7  8  9 10  5  6  7  8  9 10 11 12 13 17 14
TYPE ASSIGNMENTS     15 18 19 16 20 11 12 13 17 14 15 18 19 16 20  1  1  1  1  1
TYPE ASSIGNMENTS      1  1  1  1  1  1  1  1  1  1  1  1  1  1  2  2  2  3  3  3
TYPE ASSIGNMENTS      4  4  4  2  3  4  2  3  4  2  3  4  5  6  7  8  9 10  5  6
TYPE ASSIGNMENTS      7  8  9 10  5  6  7  8  9 10 11 12 13 17 14 15 18 19 16 20
TYPE ASSIGNMENTS     11 12 13 17 14 15 18 19 16 20
EXPONENTS  0.1142000D+05 0.1712000D+04 0.3893000D+03 0.1100000D+03 0.3557000D+02
EXPONENTS  0.1254000D+02 0.4644000D+01 0.5118000D+00 0.1142000D+05 0.1712000D+04
EXPONENTS  0.3893000D+03 0.1100000D+03 0.3557000D+02 0.1254000D+02 0.4644000D+01
EXPONENTS  0.5118000D+00 0.1293000D+01 0.1787000D+00 0.5760000D-01 0.2663000D+02
EXPONENTS  0.5948000D+01 0.1742000D+01 0.2663000D+02 0.5948000D+01 0.1742000D+01
EXPONENTS  0.2663000D+02 0.5948000D+01 0.1742000D+01 0.5550000D+00 0.5550000D+00
EXPONENTS  0.5550000D+00 0.1725000D+00 0.1725000D+00 0.1725000D+00 0.4910000D-01
EXPONENTS  0.4910000D-01 0.4910000D-01 0.1654000D+01 0.1654000D+01 0.1654000D+01
EXPONENTS  0.1654000D+01 0.1654000D+01 0.1654000D+01 0.4690000D+00 0.4690000D+00
EXPONENTS  0.4690000D+00 0.4690000D+00 0.4690000D+00 0.4690000D+00 0.1510000D+00
EXPONENTS  0.1510000D+00 0.1510000D+00 0.1510000D+00 0.1510000D+00 0.1510000D+00
EXPONENTS  0.1093000D+01 0.1093000D+01 0.1093000D+01 0.1093000D+01 0.1093000D+01
EXPONENTS  0.1093000D+01 0.1093000D+01 0.1093000D+01 0.1093000D+01 0.1093000D+01
EXPONENTS  0.3640000D+00 0.3640000D+00 0.3640000D+00 0.3640000D+00 0.3640000D+00
EXPONENTS  0.3640000D+00 0.3640000D+00 0.3640000D+00 0.3640000D+00 0.3640000D+00
EXPONENTS  0.1533000D+05 0.2299000D+04 0.5224000D+03 0.1473000D+03 0.4755000D+02
EXPONENTS  0.1676000D+02 0.6207000D+01 0.6882000D+00 0.1533000D+05 0.2299000D+04
EXPONENTS  0.5224000D+03 0.1473000D+03 0.4755000D+02 0.1676000D+02 0.6207000D+01
EXPONENTS  0.6882000D+00 0.1752000D+01 0.2384000D+00 0.7376000D-01 0.3446000D+02
EXPONENTS  0.7749000D+01 0.2280000D+01 0.3446000D+02 0.7749000D+01 0.2280000D+01
EXPONENTS  0.3446000D+02 0.7749000D+01 0.2280000D+01 0.7156000D+00 0.7156000D+00
EXPONENTS  0.7156000D+00 0.2140000D+00 0.2140000D+00 0.2140000D+00 0.5974000D-01
EXPONENTS  0.5974000D-01 0.5974000D-01 0.2314000D+01 0.2314000D+01 0.2314000D+01
EXPONENTS  0.2314000D+01 0.2314000D+01 0.2314000D+01 0.6450000D+00 0.6450000D+00
EXPONENTS  0.6450000D+00 0.6450000D+00 0.6450000D+00 0.6450000D+00 0.2140000D+00
EXPONENTS  0.2140000D+00 0.2140000D+00 0.2140000D+00 0.2140000D+00 0.2140000D+00
EXPONENTS  0.1428000D+01 0.1428000D+01 0.1428000D+01 0.1428000D+01 0.1428000D+01
EXPONENTS  0.1428000D+01 0.1428000D+01 0.1428000D+01 0.1428000D+01 0.1428000D+01
EXPONENTS  0.5000000D+00 0.5000000D+00 0.5000000D+00 0.5000000D+00 0.5000000D+00
EXPONENTS  0.5000000D+00 0.5000000D+00 0.5000000D+00 0.5000000D+00 0.5000000D+00
MO    1     MO 0.0        OCC NO =    2.0000000  ORB. ENERGY =  -19.995275
  0.14240189D-03  0.26534495D-03  0.44876483D-03  0.67581496D-03  0.83670277D-03
  0.71199629D-03  0.27092772D-03 -0.12688701D-05 -0.92697275D-04 -0.17380826D-03
 -0.29569956D-03 -0.45919020D-03 -0.60937210D-03 -0.64219454D-03 -0.39820159D-03
  0.26488385D-03  0.11123362D-02 -0.89133906D-03  0.60520825D-04  0.14511223D-14
  0.13937856D-14  0.97741869D-15 -0.36933457D-15 -0.35474144D-15 -0.24876919D-15
 -0.25298090D-02 -0.24298513D-02 -0.17039795D-02  0.36744169D-16 -0.70945155D-17
  0.17638200D-02  0.58005687D-17 -0.85178865D-18  0.78318046D-03  0.16900438D-18
 -0.27843174D-19 -0.46004812D-05  0.58891029D-03  0.58891029D-03 -0.11778206D-02
  0.58045145D-19  0.23784431D-17  0.35109728D-17  0.63808889D-03  0.63808889D-03
 -0.12761778D-02  0.48426452D-19 -0.19253402D-16  0.30110527D-17  0.45903082D-04
  0.45903082D-04 -0.91806165D-04  0.21606277D-21 -0.18774049D-17  0.26450063D-18
 -0.35155106D-17  0.10099223D-17  0.19181758D-02 -0.35534889D-17  0.98047580D-18
 -0.28772637D-02  0.14100021D-16 -0.40102428D-17 -0.28772637D-02  0.72219233D-20
 -0.97412299D-18  0.44697015D-19  0.13267068D-03 -0.96783509D-18  0.43397795D-19
 -0.19900603D-03  0.38902041D-17 -0.17748884D-18 -0.19900603D-03 -0.27781523D-19
  0.49833986D+00  0.92884139D+00  0.15750072D+01  0.23838468D+01  0.29743448D+01
  0.25545655D+01  0.98074737D+00 -0.43869432D-02 -0.56487561D-03 -0.10594382D-02
 -0.18061099D-02 -0.28225982D-02 -0.37743516D-02 -0.40301276D-02 -0.24639410D-02
  0.16255586D-02  0.51972140D-01  0.18810395D-02 -0.21719685D-03  0.41744536D-16
  0.40478157D-16  0.27306326D-16 -0.22755243D-16 -0.22064932D-16 -0.14884873D-16
  0.10361511D-01  0.10047180D-01  0.67777684D-02 -0.15434861D-16  0.24488791D-17
  0.18844638D-02 -0.10401682D-16  0.16989871D-17 -0.33223657D-03 -0.27090389D-18
  0.65264083D-19 -0.31736890D-04 -0.31638918D-02 -0.31638918D-02  0.63277835D-02
  0.73048107D-17  0.30228125D-16  0.43541384D-17  0.75116807D-04  0.75116807D-04
 -0.15023361D-03 -0.20514157D-18 -0.23217997D-16  0.26162145D-17  0.93416816D-04
  0.93416816D-04 -0.18683363D-03  0.16240107D-20 -0.43528837D-17  0.98762365D-18
 -0.23426931D-17  0.17712551D-18  0.11480974D-02 -0.14558599D-17 -0.37556767D-19
 -0.17221462D-02  0.84839391D-17 -0.49381978D-18 -0.17221462D-02  0.49639480D-18
  0.15452984D-17 -0.65671504D-18 -0.24451464D-03  0.15201607D-17 -0.65671844D-18
  0.36677196D-03 -0.61560560D-17  0.26268636D-17  0.36677196D-03 -0.58555934D-19
MO    2     MO 0.0        OCC NO =    2.0000000  ORB. ENERGY =  -15.148279
  0.41312859D+00  0.76980429D+00  0.13019320D+01  0.19606375D+01  0.24273964D+01
  0.20656048D+01  0.78600074D+00 -0.36811768D-02 -0.17446036D-02 -0.32711480D-02
 -0.55651960D-02 -0.86421618D-02 -0.11468651D-01 -0.12086384D-01 -0.74943293D-02
  0.49852307D-02  0.40663957D-01  0.45040190D-02  0.61935596D-03  0.31499215D-16
  0.30254620D-16  0.21216628D-16 -0.79552205D-17 -0.76408942D-17 -0.53583224D-17
 -0.10206215D-01 -0.98029473D-02 -0.68745033D-02 -0.64884902D-17  0.11069173D-17
 -0.51416321D-02 -0.12454887D-17  0.50424149D-18 -0.10343007D-02 -0.30773664D-19
  0.67636631D-20 -0.47278170D-04 -0.43037458D-02 -0.43037458D-02  0.86074917D-02
  0.37308448D-17 -0.81327788D-17  0.96353824D-17 -0.28800639D-03 -0.28800639D-03
  0.57601279D-03  0.96307894D-19  0.42993079D-17 -0.12216659D-17  0.24541806D-05
  0.24541806D-05 -0.49083613D-05 -0.42506879D-20  0.38375546D-18 -0.14561953D-18
  0.72231876D-18 -0.13491872D-18 -0.17241846D-02  0.54356235D-18  0.16951074D-17
  0.25862768D-02 -0.27105186D-17 -0.12903512D-17  0.25862768D-02 -0.22273247D-17
  0.17598632D-18 -0.55070467D-19  0.81720431D-04  0.17588428D-18 -0.13581643D-18
 -0.12258065D-03 -0.70384325D-18  0.30102783D-18 -0.12258065D-03  0.23426377D-19
 -0.24823258D-03 -0.46267359D-03 -0.78454110D-03 -0.11874395D-02 -0.14815778D-02
 -0.12724777D-02 -0.48852895D-03  0.21852200D-05  0.21744150D-04  0.40781692D-04
  0.69523845D-04  0.10865224D-03  0.14528874D-03  0.15513451D-03  0.94846195D-04
 -0.62573759D-04  0.12900461D-02 -0.53482635D-02 -0.13706188D-02 -0.22781551D-17
 -0.22090441D-17 -0.14902081D-17  0.29832571D-18  0.28927559D-18  0.19514360D-18
  0.47309775D-02  0.45874567D-02  0.30946712D-02  0.25037245D-17 -0.33120798D-18
 -0.54490468D-02  0.23849478D-17 -0.79314276D-18 -0.31142483D-02  0.48868220D-19
 -0.17983523D-19 -0.10875707D-03  0.20266758D-03  0.20266758D-03 -0.40533517D-03
  0.23636885D-18 -0.41301740D-17  0.74762391D-18  0.18792475D-02  0.18792475D-02
 -0.37584950D-02 -0.92007825D-19  0.47972344D-17 -0.53231467D-18  0.21393552D-03
  0.21393552D-03 -0.42787104D-03  0.73101396D-20  0.10395677D-17 -0.32840470D-18
  0.39803903D-18 -0.52116500D-18 -0.24437112D-02  0.44273411D-18 -0.62720595D-18
  0.36655668D-02 -0.16368512D-17  0.21907010D-17  0.36655668D-02 -0.75144293D-18
 -0.46920095D-18  0.53760001D-19 -0.61410385D-03 -0.46292591D-18  0.68036048D-19
  0.92115578D-03  0.18705288D-17 -0.22931605D-18  0.92115578D-03 -0.32940033D-19
MO    3     MO 0.0        OCC NO =    2.0000000  ORB. ENERGY =   -1.855039
 -0.95812838D-02 -0.17853311D-01 -0.30194425D-01 -0.45471132D-01 -0.56296211D-01
 -0.47905535D-01 -0.18228940D-01  0.85373901D-04 -0.46875239D-01 -0.87891511D-01
 -0.14952961D+00 -0.23220370D+00 -0.30814781D+00 -0.32474550D+00 -0.20136293D+00
  0.13394670D+00  0.70083403D-01  0.13280012D-01  0.22377805D-02  0.12583794D-14
  0.12086583D-14  0.84759465D-15  0.77354807D-18  0.74298367D-18  0.52103144D-18
 -0.46641952D+00 -0.44799037D+00 -0.31416177D+00  0.92825343D-16 -0.57871417D-16
 -0.92267652D-01  0.75656010D-17 -0.16173014D-16 -0.58568371D-03  0.73749076D-18
  0.16027382D-18 -0.56809816D-04 -0.43866368D-01 -0.43866368D-01  0.87732735D-01
  0.14616573D-16 -0.13517632D-15  0.25958557D-16 -0.40725062D-02 -0.40725062D-02
  0.81450124D-02  0.79465244D-17 -0.40866094D-16  0.21212896D-16  0.27844662D-03
  0.27844662D-03 -0.55689324D-03  0.26224398D-18 -0.23010871D-17  0.35552309D-17
 -0.82130301D-17  0.33860346D-17 -0.17191652D-01 -0.20725890D-16 -0.84385816D-17
  0.25787478D-01  0.45364981D-16 -0.17195220D-17  0.25787478D-01 -0.63592634D-17
 -0.77252927D-18  0.15427946D-17  0.40308212D-03 -0.14953736D-17 -0.24318210D-18
 -0.60462317D-03  0.38129614D-17 -0.43852017D-17 -0.60462317D-03 -0.23286693D-17
 -0.79062086D-02 -0.14736156D-01 -0.24987637D-01 -0.37819953D-01 -0.47188259D-01
 -0.40528421D-01 -0.15559649D-01  0.69599264D-04 -0.81055992D-01 -0.15202252D+00
 -0.25916507D+00 -0.40502456D+00 -0.54159501D+00 -0.57829721D+00 -0.35355957D+00
  0.23325713D+00  0.12580898D+00  0.33925346D-01 -0.50602337D-02  0.24328036D-15
  0.23590012D-15  0.15913683D-15 -0.76951416D-16 -0.74616989D-16 -0.50336180D-16
  0.63229602D+00  0.61311445D+00  0.41360339D+00  0.64339612D-16 -0.31388049D-16
  0.12890910D+00 -0.14271489D-16  0.16783450D-16 -0.12143883D-02 -0.41453973D-18
  0.90861499D-18 -0.65416906D-03 -0.48788749D-01 -0.48788749D-01  0.97577499D-01
  0.21099370D-16  0.14566694D-15 -0.26413541D-16 -0.76922423D-02 -0.76922423D-02
  0.15384485D-01 -0.10064414D-16 -0.98915268D-17 -0.42551582D-17  0.69952094D-03
  0.69952094D-03 -0.13990419D-02 -0.54871260D-18 -0.73588322D-17  0.85800210D-17
 -0.13487899D-16  0.24039349D-17  0.20677807D-01 -0.32259501D-16  0.23666417D-17
 -0.31016711D-01  0.72723199D-16 -0.95784463D-17 -0.31016711D-01 -0.16240962D-16
  0.14634606D-17 -0.94288558D-18  0.42388377D-03  0.97156119D-17 -0.17264165D-18
 -0.63582566D-03 -0.14105994D-16  0.30012984D-17 -0.63582566D-03 -0.82335946D-17
MO    4     MO 0.0        OCC NO =    2.0000000  ORB. ENERGY =   -1.135642
 -0.28081049D-03 -0.52324899D-03 -0.88494522D-03 -0.13326785D-02 -0.16499424D-02
 -0.14040265D-02 -0.53425799D-03  0.25021581D-05  0.59160489D-01  0.11092647D+00
  0.18871893D+00  0.29306057D+00  0.38890842D+00  0.40985609D+00  0.25413693D+00
 -0.16905198D+00 -0.93987369D-01 -0.49796371D-01 -0.27392278D-03 -0.15558509D-14
 -0.14943762D-14 -0.10479597D-14  0.20119260D-15  0.19324308D-15  0.13551539D-15
 -0.13127858D-01 -0.12609151D-01 -0.88424068D-02 -0.51369104D-15 -0.30677675D-16
 -0.97350446D-02 -0.71909036D-16  0.14871193D-16  0.57475519D-02  0.43888437D-17
 -0.92419636D-18  0.87861304D-05  0.54108877D-02  0.54108877D-02 -0.10821775D-01
  0.12975147D-16  0.22476451D-15 -0.31064680D-16 -0.19860726D-02 -0.19860726D-02
  0.39721452D-02  0.15265574D-17  0.64510349D-16  0.57243082D-17  0.46845641D-03
  0.46845641D-03 -0.93691282D-03 -0.44860225D-18  0.65743438D-17  0.58155338D-17
  0.18413253D-16 -0.65856527D-17  0.52768970D-02  0.15322942D-16 -0.42910302D-17
 -0.79153456D-02 -0.70562702D-16  0.24047988D-16 -0.79153456D-02  0.27352661D-16
  0.12810673D-17  0.16368280D-17 -0.56068341D-03  0.40100084D-17  0.17959898D-18
  0.84102511D-03 -0.78532104D-17 -0.50900830D-17  0.84102511D-03 -0.10153492D-17
  0.19585298D-02  0.36504475D-02  0.61899494D-02  0.93687767D-02  0.11689498D-01
  0.10039720D-01  0.38544436D-02 -0.17241163D-04 -0.74569428D-01 -0.13985681D+00
 -0.23842520D+00 -0.37261218D+00 -0.49825348D+00 -0.53201856D+00 -0.32526571D+00
  0.21459056D+00  0.12545592D+00  0.98552509D-01  0.15585307D-02 -0.21444689D-14
 -0.20794135D-14 -0.14027601D-14 -0.13066084D-15 -0.12669706D-15 -0.85469090D-16
 -0.10983998D+01 -0.10650783D+01 -0.71849552D+00 -0.47376932D-15 -0.44182342D-16
 -0.24020897D+00 -0.23343141D-16  0.12377324D-16 -0.12654056D-01  0.18183973D-17
  0.17731502D-17  0.12024187D-03  0.38214713D-01  0.38214713D-01 -0.76429426D-01
  0.41369014D-17 -0.52978097D-15  0.99795384D-16  0.78435239D-02  0.78435239D-02
 -0.15687048D-01 -0.41526309D-17 -0.95743207D-16 -0.28853016D-17  0.24171298D-03
  0.24171298D-03 -0.48342596D-03 -0.95660112D-19  0.72573530D-17  0.84169745D-17
  0.30910126D-16  0.47165592D-17 -0.10152364D-01  0.72190430D-17 -0.26188718D-16
  0.15228547D-01 -0.99949420D-16  0.12039040D-16  0.15228547D-01  0.45081197D-16
 -0.72222242D-18  0.14204490D-17 -0.10310303D-02  0.64709150D-17  0.14095667D-16
  0.15465454D-02 -0.43042477D-17 -0.18357015D-16  0.15465454D-02 -0.11191551D-16
MO    5     MO 0.0        OCC NO =    2.0000000  ORB. ENERGY =   -1.011589
 -0.49908217D-16 -0.92996613D-16 -0.15728059D-15 -0.23685585D-15 -0.29324290D-15
 -0.24953648D-15 -0.94953233D-16  0.44470650D-18  0.47486765D-16  0.89038128D-16
  0.15148035D-15  0.23523299D-15  0.31216786D-15  0.32898207D-15  0.20398987D-15
 -0.13569414D-15 -0.10100542D-15 -0.31614101D-15 -0.13422789D-16 -0.16811843D+00
 -0.16147575D+00 -0.11323794D+00  0.74288515D+00  0.71353230D+00  0.50037810D+00
 -0.17670122D-14 -0.16971941D-14 -0.11901897D-14 -0.41644012D-01  0.18401740D+00
 -0.14211367D-15 -0.16414983D-02  0.72534861D-02 -0.77748290D-16  0.30304988D-04
 -0.13391230D-03  0.14697632D-16 -0.49698599D-15  0.25488291D-15  0.24210308D-15
  0.53566416D-15  0.34486483D-01 -0.15238957D+00  0.19647695D-15 -0.15216148D-15
 -0.44315472D-16 -0.36569528D-16  0.52368624D-02 -0.23140754D-01 -0.30261439D-16
  0.69079811D-17  0.23353457D-16  0.21596323D-16 -0.39649863D-03  0.17520562D-02
  0.21213481D-02 -0.93738562D-02 -0.44965508D-16  0.21198153D-02 -0.93670829D-02
  0.14597093D-15 -0.84838598D-02  0.37488652D-01 -0.11074401D-16 -0.12950321D-14
 -0.66913894D-05  0.29568047D-04  0.24369142D-16 -0.65403624D-05  0.28900686D-04
  0.36986162D-16  0.26614531D-04 -0.11760483D-03 -0.11009359D-15 -0.24977789D-16
  0.80412767D-17  0.14987905D-16  0.25414521D-16  0.38466061D-16  0.47994414D-16
  0.41220801D-16  0.15825467D-16 -0.70788284D-19  0.31043739D-16  0.58223302D-16
  0.99257967D-16  0.15512088D-15  0.20742618D-15  0.22148280D-15  0.13541024D-15
 -0.89335451D-16  0.69863881D-17  0.88335962D-16  0.49418251D-16 -0.32928285D+00
 -0.31929360D+00 -0.21539358D+00  0.14550417D+01  0.14109010D+01  0.95178551D+00
  0.14933423D-14  0.14480397D-14  0.97683900D-15 -0.78622646D-01  0.34741934D+00
  0.91620821D-15 -0.93635084D-02  0.41375661D-01  0.10932321D-15  0.97302569D-06
 -0.42996257D-05 -0.15041162D-17  0.34294200D-15 -0.15558031D-14  0.12128611D-14
  0.36887274D-16 -0.41567208D-01  0.18367802D+00 -0.70853362D-16 -0.86320118D-16
  0.15717348D-15  0.16142183D-15 -0.10821174D-01  0.47816821D-01 -0.40973451D-17
 -0.31860417D-16  0.35957762D-16 -0.21124645D-17 -0.11965262D-02  0.52872344D-02
  0.36370201D-02 -0.16071338D-01  0.22072815D-15  0.36415123D-02 -0.16091188D-01
 -0.12893713D-14 -0.14552573D-01  0.64305203D-01  0.62718681D-15  0.26776266D-15
  0.22073628D-03 -0.97539397D-03  0.83214272D-16  0.22046625D-03 -0.97420075D-03
  0.55787596D-16 -0.88267510D-03  0.39003827D-02 -0.30543041D-15  0.35027201D-16
MO    6     MO 0.0        OCC NO =    2.0000000  ORB. ENERGY =   -1.011589
 -0.25805724D-15 -0.48085166D-15 -0.81324071D-15 -0.12246954D-14 -0.15162524D-14
 -0.12902624D-14 -0.49096863D-15  0.22994156D-17  0.19747919D-15  0.37027533D-15
  0.62994851D-15  0.97824353D-15  0.12981861D-14  0.13681099D-14  0.84831542D-15
 -0.56429974D-15 -0.36894885D-15 -0.98718141D-15 -0.25756842D-15  0.74288515D+00
  0.71353230D+00  0.50037810D+00  0.16811843D+00  0.16147575D+00  0.11323794D+00
  0.27317727D-14  0.26238350D-14  0.18400142D-14  0.18401740D+00  0.41644012D-01
  0.97523995D-15  0.72534861D-02  0.16414983D-02  0.22295597D-15 -0.13391230D-03
 -0.30304988D-04  0.14561218D-16  0.16200158D-16  0.50291840D-15 -0.51911855D-15
  0.60886969D-15 -0.15238957D+00 -0.34486483D-01 -0.23359539D-15  0.46114055D-16
  0.18748133D-15 -0.20468971D-16 -0.23140754D-01 -0.52368624D-02 -0.10562415D-16
 -0.27373274D-18  0.10836148D-16 -0.17535227D-16  0.17520562D-02  0.39649863D-03
 -0.93738562D-02 -0.21213481D-02  0.16850980D-15 -0.93670829D-02 -0.21198153D-02
  0.91686060D-16  0.37488652D-01  0.84838598D-02 -0.59721547D-15 -0.19807152D-15
  0.29568047D-04  0.66913894D-05 -0.46651450D-16  0.28900686D-04  0.65403624D-05
  0.14061765D-15 -0.11760483D-03 -0.26614531D-04 -0.66329713D-18 -0.19325681D-15
 -0.51445714D-15 -0.95888191D-15 -0.16259460D-14 -0.24609450D-14 -0.30705409D-14
 -0.26371851D-14 -0.10124666D-14  0.45288254D-17  0.27369331D-15  0.51331859D-15
  0.87509567D-15  0.13676042D-14  0.18287474D-14  0.19526758D-14  0.11938277D-14
 -0.78761502D-15  0.57731113D-15  0.12249818D-14  0.58607490D-15  0.14550417D+01
  0.14109010D+01  0.95178551D+00  0.32928285D+00  0.31929360D+00  0.21539358D+00
 -0.54355917D-14 -0.52706955D-14 -0.35555800D-14  0.34741934D+00  0.78622646D-01
 -0.15175574D-14  0.41375661D-01  0.93635084D-02  0.82876215D-15 -0.42996257D-05
 -0.97302569D-06  0.59269122D-16  0.17731624D-16  0.48257625D-15 -0.50030787D-15
  0.13645550D-15  0.18367802D+00  0.41567208D-01  0.20917230D-15 -0.23010702D-15
  0.20934712D-16 -0.20837311D-15  0.47816821D-01  0.10821174D-01 -0.97172621D-16
 -0.98297660D-16  0.19547028D-15 -0.20341223D-16  0.52872344D-02  0.11965262D-02
 -0.16071338D-01 -0.36370201D-02  0.21814561D-16 -0.16091188D-01 -0.36415123D-02
 -0.20268986D-15  0.64305203D-01  0.14552573D-01  0.13724617D-15 -0.44317023D-15
 -0.97539397D-03 -0.22073628D-03  0.11181918D-15 -0.97420075D-03 -0.22046625D-03
 -0.61552564D-16  0.39003827D-02  0.88267510D-03 -0.27390497D-15 -0.21016320D-15
MO    7     MO 0.0        OCC NO =    2.0000000  ORB. ENERGY =   -0.944387
  0.26008935D-02  0.48463820D-02  0.81964469D-02  0.12343395D-01  0.15281924D-01
  0.13004227D-01  0.49483484D-02 -0.23175227D-04 -0.49307910D-01 -0.92452793D-01
 -0.15728971D+00 -0.24425431D+00 -0.32413967D+00 -0.34159872D+00 -0.21181300D+00
  0.14089809D+00  0.75139496D-01  0.55528070D-01 -0.62922535D-03 -0.20420083D-14
 -0.19613246D-14 -0.13754162D-14 -0.61639885D-16 -0.59204373D-16 -0.41518193D-16
  0.97508532D+00  0.93655779D+00  0.65677897D+00 -0.35577121D-15  0.91485009D-16
  0.22401774D+00 -0.75125031D-16  0.46957609D-16  0.12100186D-01  0.36845215D-17
 -0.11973560D-17 -0.28677700D-03  0.46682232D-01  0.46682232D-01 -0.93364464D-01
 -0.43563903D-16  0.64182631D-15 -0.15196038D-15  0.45275820D-02  0.45275820D-02
 -0.90551640D-02 -0.21160704D-17  0.14447999D-15 -0.53340609D-16 -0.40397211D-03
 -0.40397211D-03  0.80794421D-03  0.74965791D-18  0.42340182D-17 -0.56090284D-17
  0.33865012D-16  0.22413333D-17  0.14664448D-01  0.44232903D-16 -0.18276461D-16
 -0.21996673D-01 -0.14582794D-15  0.11552461D-16 -0.21996673D-01 -0.62300300D-16
  0.42699386D-17 -0.33975168D-17 -0.10870806D-02  0.13101823D-18  0.11988445D-17
  0.16306209D-02 -0.12940834D-16  0.89937060D-17  0.16306209D-02 -0.13118257D-17
  0.11933247D-03  0.22242037D-03  0.37715124D-03  0.57083597D-03  0.71223663D-03
  0.61171628D-03  0.23484977D-03 -0.10504974D-05 -0.70200241D-02 -0.13166229D-01
 -0.22445535D-01 -0.35078001D-01 -0.46905972D-01 -0.50084642D-01 -0.30620768D-01
  0.20201723D-01  0.94701153D-02  0.24959164D-01  0.28521034D-02 -0.53399052D-14
 -0.51779118D-14 -0.34929887D-14  0.16659136D-14  0.16153758D-14  0.10897230D-14
 -0.11066841D+01 -0.10731113D+01 -0.72391456D+00 -0.12577875D-14  0.37991946D-15
 -0.23452440D+00 -0.11119760D-15  0.34138963D-16 -0.11448868D-01  0.21815346D-17
 -0.62410681D-18  0.53772997D-03  0.42941319D-01  0.42941319D-01 -0.85882638D-01
 -0.11632854D-17 -0.76051701D-15  0.21666754D-15  0.36285181D-02  0.36285181D-02
 -0.72570362D-02  0.25910096D-17 -0.11288745D-15  0.23771465D-16 -0.10566915D-02
 -0.10566915D-02  0.21133831D-02 -0.18406881D-18  0.23409620D-17  0.29443079D-17
  0.58881862D-16 -0.45193348D-17 -0.14971784D-01  0.47401094D-16 -0.19152261D-16
  0.22457676D-01 -0.22404668D-15  0.32710265D-16  0.22457676D-01  0.21726598D-16
 -0.21430657D-17  0.59426834D-18  0.78480419D-03  0.35889304D-17  0.29132261D-17
 -0.11772063D-02  0.28402666D-17 -0.46960311D-17 -0.11772063D-02 -0.17694211D-17
END DATA
RHF
