 Molden2AIM, Version 4.0.0 (06/02/2016)           Time: Fri Jun 29 23:19:19 2018
GAUSSIAN             20 MOL ORBITALS    338 PRIMITIVES        2 NUCLEI
  N    1    (CENTRE  1)   0.00000000  0.00000000 -0.06506705  CHARGE =  7.0
  Se   2    (CENTRE  2)   0.00000000  0.00000000  2.89965624  CHARGE = 34.0
CENTRE ASSIGNMENTS    1  1  1  1  1  1  1  1  1  1  1  1  1  1  1  1  1  1  1  1
CENTRE ASSIGNMENTS    1  1  1  1  1  1  1  1  1  1  1  1  1  1  1  1  1  1  1  1
CENTRE ASSIGNMENTS    1  1  1  1  1  1  1  1  1  1  1  1  1  1  1  1  1  1  1  1
CENTRE ASSIGNMENTS    1  1  1  1  1  1  1  1  1  1  1  1  1  1  1  2  2  2  2  2
CENTRE ASSIGNMENTS    2  2  2  2  2  2  2  2  2  2  2  2  2  2  2  2  2  2  2  2
CENTRE ASSIGNMENTS    2  2  2  2  2  2  2  2  2  2  2  2  2  2  2  2  2  2  2  2
CENTRE ASSIGNMENTS    2  2  2  2  2  2  2  2  2  2  2  2  2  2  2  2  2  2  2  2
CENTRE ASSIGNMENTS    2  2  2  2  2  2  2  2  2  2  2  2  2  2  2  2  2  2  2  2
CENTRE ASSIGNMENTS    2  2  2  2  2  2  2  2  2  2  2  2  2  2  2  2  2  2  2  2
CENTRE ASSIGNMENTS    2  2  2  2  2  2  2  2  2  2  2  2  2  2  2  2  2  2  2  2
CENTRE ASSIGNMENTS    2  2  2  2  2  2  2  2  2  2  2  2  2  2  2  2  2  2  2  2
CENTRE ASSIGNMENTS    2  2  2  2  2  2  2  2  2  2  2  2  2  2  2  2  2  2  2  2
CENTRE ASSIGNMENTS    2  2  2  2  2  2  2  2  2  2  2  2  2  2  2  2  2  2  2  2
CENTRE ASSIGNMENTS    2  2  2  2  2  2  2  2  2  2  2  2  2  2  2  2  2  2  2  2
CENTRE ASSIGNMENTS    2  2  2  2  2  2  2  2  2  2  2  2  2  2  2  2  2  2  2  2
CENTRE ASSIGNMENTS    2  2  2  2  2  2  2  2  2  2  2  2  2  2  2  2  2  2  2  2
CENTRE ASSIGNMENTS    2  2  2  2  2  2  2  2  2  2  2  2  2  2  2  2  2  2
TYPE ASSIGNMENTS      1  1  1  1  1  1  1  1  1  1  1  1  1  1  1  1  1  1  1  2
TYPE ASSIGNMENTS      2  2  3  3  3  4  4  4  2  3  4  2  3  4  2  3  4  5  6  7
TYPE ASSIGNMENTS      8  9 10  5  6  7  8  9 10  5  6  7  8  9 10 11 12 13 17 14
TYPE ASSIGNMENTS     15 18 19 16 20 11 12 13 17 14 15 18 19 16 20  1  1  1  1  1
TYPE ASSIGNMENTS      1  1  1  1  1  1  1  1  1  1  1  1  1  1  1  1  1  1  1  1
TYPE ASSIGNMENTS      1  1  1  1  1  1  1  1  1  1  1  1  1  1  1  1  1  1  1  1
TYPE ASSIGNMENTS      1  1  1  1  1  1  1  1  1  1  1  1  1  1  1  1  1  1  1  1
TYPE ASSIGNMENTS      1  1  1  1  1  1  1  1  1  1  2  2  2  2  2  2  2  2  2  2
TYPE ASSIGNMENTS      2  3  3  3  3  3  3  3  3  3  3  3  4  4  4  4  4  4  4  4
TYPE ASSIGNMENTS      4  4  4  2  2  2  2  2  2  2  2  2  2  2  3  3  3  3  3  3
TYPE ASSIGNMENTS      3  3  3  3  3  4  4  4  4  4  4  4  4  4  4  4  2  2  2  2
TYPE ASSIGNMENTS      2  2  2  2  2  2  2  3  3  3  3  3  3  3  3  3  3  3  4  4
TYPE ASSIGNMENTS      4  4  4  4  4  4  4  4  4  2  3  4  2  3  4  2  3  4  5  5
TYPE ASSIGNMENTS      5  5  5  5  5  6  6  6  6  6  6  6  7  7  7  7  7  7  7  8
TYPE ASSIGNMENTS      8  8  8  8  8  8  9  9  9  9  9  9  9 10 10 10 10 10 10 10
TYPE ASSIGNMENTS      5  6  7  8  9 10  5  6  7  8  9 10  5  6  7  8  9 10 11 12
TYPE ASSIGNMENTS     13 17 14 15 18 19 16 20 11 12 13 17 14 15 18 19 16 20
EXPONENTS  0.1142000D+05 0.1712000D+04 0.3893000D+03 0.1100000D+03 0.3557000D+02
EXPONENTS  0.1254000D+02 0.4644000D+01 0.5118000D+00 0.1142000D+05 0.1712000D+04
EXPONENTS  0.3893000D+03 0.1100000D+03 0.3557000D+02 0.1254000D+02 0.4644000D+01
EXPONENTS  0.5118000D+00 0.1293000D+01 0.1787000D+00 0.5760000D-01 0.2663000D+02
EXPONENTS  0.5948000D+01 0.1742000D+01 0.2663000D+02 0.5948000D+01 0.1742000D+01
EXPONENTS  0.2663000D+02 0.5948000D+01 0.1742000D+01 0.5550000D+00 0.5550000D+00
EXPONENTS  0.5550000D+00 0.1725000D+00 0.1725000D+00 0.1725000D+00 0.4910000D-01
EXPONENTS  0.4910000D-01 0.4910000D-01 0.1654000D+01 0.1654000D+01 0.1654000D+01
EXPONENTS  0.1654000D+01 0.1654000D+01 0.1654000D+01 0.4690000D+00 0.4690000D+00
EXPONENTS  0.4690000D+00 0.4690000D+00 0.4690000D+00 0.4690000D+00 0.1510000D+00
EXPONENTS  0.1510000D+00 0.1510000D+00 0.1510000D+00 0.1510000D+00 0.1510000D+00
EXPONENTS  0.1093000D+01 0.1093000D+01 0.1093000D+01 0.1093000D+01 0.1093000D+01
EXPONENTS  0.1093000D+01 0.1093000D+01 0.1093000D+01 0.1093000D+01 0.1093000D+01
EXPONENTS  0.3640000D+00 0.3640000D+00 0.3640000D+00 0.3640000D+00 0.3640000D+00
EXPONENTS  0.3640000D+00 0.3640000D+00 0.3640000D+00 0.3640000D+00 0.3640000D+00
EXPONENTS  0.9563600D+07 0.1432100D+07 0.3259100D+06 0.9231200D+05 0.3011600D+05
EXPONENTS  0.1087200D+05 0.4240100D+04 0.1758400D+04 0.7665900D+03 0.3484300D+03
EXPONENTS  0.1640300D+03 0.7914200D+02 0.3552400D+02 0.1730500D+02 0.8378400D+01
EXPONENTS  0.3740500D+01 0.1689000D+01 0.2552000D+00 0.9563600D+07 0.1432100D+07
EXPONENTS  0.3259100D+06 0.9231200D+05 0.3011600D+05 0.1087200D+05 0.4240100D+04
EXPONENTS  0.1758400D+04 0.7665900D+03 0.3484300D+03 0.1640300D+03 0.7914200D+02
EXPONENTS  0.3552400D+02 0.1730500D+02 0.8378400D+01 0.3740500D+01 0.1689000D+01
EXPONENTS  0.2552000D+00 0.9563600D+07 0.1432100D+07 0.3259100D+06 0.9231200D+05
EXPONENTS  0.3011600D+05 0.1087200D+05 0.4240100D+04 0.1758400D+04 0.7665900D+03
EXPONENTS  0.3484300D+03 0.1640300D+03 0.7914200D+02 0.3552400D+02 0.1730500D+02
EXPONENTS  0.8378400D+01 0.3740500D+01 0.1689000D+01 0.2552000D+00 0.9563600D+07
EXPONENTS  0.1432100D+07 0.3259100D+06 0.9231200D+05 0.3011600D+05 0.1087200D+05
EXPONENTS  0.4240100D+04 0.1758400D+04 0.7665900D+03 0.3484300D+03 0.1640300D+03
EXPONENTS  0.7914200D+02 0.3552400D+02 0.1730500D+02 0.8378400D+01 0.3740500D+01
EXPONENTS  0.1689000D+01 0.2552000D+00 0.5092700D+00 0.1065100D+00 0.3920100D-01
EXPONENTS  0.8004300D+04 0.1896900D+04 0.6147100D+03 0.2335000D+03 0.9785600D+02
EXPONENTS  0.4351400D+02 0.2006300D+02 0.9112700D+01 0.4106300D+01 0.1794900D+01
EXPONENTS  0.2461500D+00 0.8004300D+04 0.1896900D+04 0.6147100D+03 0.2335000D+03
EXPONENTS  0.9785600D+02 0.4351400D+02 0.2006300D+02 0.9112700D+01 0.4106300D+01
EXPONENTS  0.1794900D+01 0.2461500D+00 0.8004300D+04 0.1896900D+04 0.6147100D+03
EXPONENTS  0.2335000D+03 0.9785600D+02 0.4351400D+02 0.2006300D+02 0.9112700D+01
EXPONENTS  0.4106300D+01 0.1794900D+01 0.2461500D+00 0.8004300D+04 0.1896900D+04
EXPONENTS  0.6147100D+03 0.2335000D+03 0.9785600D+02 0.4351400D+02 0.2006300D+02
EXPONENTS  0.9112700D+01 0.4106300D+01 0.1794900D+01 0.2461500D+00 0.8004300D+04
EXPONENTS  0.1896900D+04 0.6147100D+03 0.2335000D+03 0.9785600D+02 0.4351400D+02
EXPONENTS  0.2006300D+02 0.9112700D+01 0.4106300D+01 0.1794900D+01 0.2461500D+00
EXPONENTS  0.8004300D+04 0.1896900D+04 0.6147100D+03 0.2335000D+03 0.9785600D+02
EXPONENTS  0.4351400D+02 0.2006300D+02 0.9112700D+01 0.4106300D+01 0.1794900D+01
EXPONENTS  0.2461500D+00 0.8004300D+04 0.1896900D+04 0.6147100D+03 0.2335000D+03
EXPONENTS  0.9785600D+02 0.4351400D+02 0.2006300D+02 0.9112700D+01 0.4106300D+01
EXPONENTS  0.1794900D+01 0.2461500D+00 0.8004300D+04 0.1896900D+04 0.6147100D+03
EXPONENTS  0.2335000D+03 0.9785600D+02 0.4351400D+02 0.2006300D+02 0.9112700D+01
EXPONENTS  0.4106300D+01 0.1794900D+01 0.2461500D+00 0.8004300D+04 0.1896900D+04
EXPONENTS  0.6147100D+03 0.2335000D+03 0.9785600D+02 0.4351400D+02 0.2006300D+02
EXPONENTS  0.9112700D+01 0.4106300D+01 0.1794900D+01 0.2461500D+00 0.6243200D+00
EXPONENTS  0.6243200D+00 0.6243200D+00 0.8891700D-01 0.8891700D-01 0.8891700D-01
EXPONENTS  0.3025100D-01 0.3025100D-01 0.3025100D-01 0.3618500D+03 0.1085500D+03
EXPONENTS  0.4143300D+02 0.1757900D+02 0.7862700D+01 0.3518000D+01 0.1534800D+01
EXPONENTS  0.3618500D+03 0.1085500D+03 0.4143300D+02 0.1757900D+02 0.7862700D+01
EXPONENTS  0.3518000D+01 0.1534800D+01 0.3618500D+03 0.1085500D+03 0.4143300D+02
EXPONENTS  0.1757900D+02 0.7862700D+01 0.3518000D+01 0.1534800D+01 0.3618500D+03
EXPONENTS  0.1085500D+03 0.4143300D+02 0.1757900D+02 0.7862700D+01 0.3518000D+01
EXPONENTS  0.1534800D+01 0.3618500D+03 0.1085500D+03 0.4143300D+02 0.1757900D+02
EXPONENTS  0.7862700D+01 0.3518000D+01 0.1534800D+01 0.3618500D+03 0.1085500D+03
EXPONENTS  0.4143300D+02 0.1757900D+02 0.7862700D+01 0.3518000D+01 0.1534800D+01
EXPONENTS  0.6081300D+00 0.6081300D+00 0.6081300D+00 0.6081300D+00 0.6081300D+00
EXPONENTS  0.6081300D+00 0.2220000D+00 0.2220000D+00 0.2220000D+00 0.2220000D+00
EXPONENTS  0.2220000D+00 0.2220000D+00 0.8370000D-01 0.8370000D-01 0.8370000D-01
EXPONENTS  0.8370000D-01 0.8370000D-01 0.8370000D-01 0.4620000D+00 0.4620000D+00
EXPONENTS  0.4620000D+00 0.4620000D+00 0.4620000D+00 0.4620000D+00 0.4620000D+00
EXPONENTS  0.4620000D+00 0.4620000D+00 0.4620000D+00 0.1880000D+00 0.1880000D+00
EXPONENTS  0.1880000D+00 0.1880000D+00 0.1880000D+00 0.1880000D+00 0.1880000D+00
EXPONENTS  0.1880000D+00 0.1880000D+00 0.1880000D+00
MO    1     MO 0.0        OCC NO =    2.0000000  ORB. ENERGY = -455.581845
 -0.96958590D-05 -0.18066806D-04 -0.30555498D-04 -0.46014886D-04 -0.56969414D-04
 -0.48478400D-04 -0.18446926D-04  0.86394823D-07  0.68402278D-05  0.12825491D-04
  0.21819976D-04  0.33884120D-04  0.44966197D-04  0.47388200D-04  0.29383707D-04
 -0.19546053D-04 -0.12466803D-04  0.83411331D-04  0.70921605D-05  0.76482947D-18
  0.73460956D-18  0.51515893D-18  0.21728122D-19  0.20869601D-19  0.14635205D-19
 -0.48920400D-04 -0.46987460D-04 -0.32950850D-04 -0.19588684D-19 -0.90021220D-20
  0.50483871D-04  0.12555355D-18  0.69209682D-19  0.72977926D-04  0.54679700D-20
  0.31599173D-20  0.18477833D-05  0.16015492D-04  0.16015492D-04 -0.32030985D-04
 -0.20568494D-20 -0.26890931D-18 -0.57561164D-19 -0.20447487D-04 -0.20447487D-04
  0.40894973D-04  0.44905000D-21  0.13604665D-18  0.45275463D-19 -0.55030783D-05
 -0.55030783D-05  0.11006157D-04  0.30227235D-22  0.49491280D-19  0.27371323D-19
  0.40720025D-19  0.27145521D-19 -0.25272846D-05  0.40794912D-19  0.27100574D-19
  0.37909269D-05 -0.16295499D-18 -0.10853714D-18  0.37909269D-05 -0.33592580D-20
 -0.20359356D-19 -0.64297816D-20  0.67033500D-05 -0.20377585D-19 -0.64047127D-20
 -0.10055025D-04  0.81455653D-19  0.25694058D-19 -0.10055025D-04  0.20959217D-21
  0.77214604D+00  0.14427189D+01  0.25022152D+01  0.40992677D+01  0.64191277D+01
  0.96398180D+01  0.13749141D+02  0.18165400D+02  0.20949172D+02  0.18854926D+02
  0.10578083D+02  0.25573080D+01  0.12140831D+00 -0.20776611D-02  0.58435653D-03
 -0.22772281D-03  0.21539978D-04  0.21238872D-05  0.49277434D-04  0.90745161D-04
  0.15751080D-03  0.25797319D-03  0.40603793D-03  0.61286049D-03  0.89337207D-03
  0.12267875D-02  0.15580045D-02  0.16778721D-02  0.13385748D-02  0.29983008D-03
 -0.80173889D-03 -0.71296588D-03 -0.13924513D-03 -0.38573765D-05 -0.27933809D-06
 -0.57048481D-08 -0.99622303D-04 -0.17985884D-03 -0.31310000D-03 -0.51271446D-03
 -0.80832355D-03 -0.12197380D-02 -0.17851773D-02 -0.24597398D-02 -0.31688039D-02
 -0.34878566D-02 -0.29362097D-02 -0.69921660D-03  0.23552303D-02  0.31470815D-02
  0.38662539D-03 -0.13509216D-02 -0.59634402D-03  0.29595481D-05  0.34953645D-04
  0.75726683D-04  0.12891476D-03  0.21043443D-03  0.33175891D-03  0.50064283D-03
  0.73273326D-03  0.10107596D-02  0.13037742D-02  0.14413433D-02  0.12207109D-02
  0.29651879D-03 -0.10287455D-02 -0.14519563D-02 -0.17323838D-03  0.81418054D-03
  0.65081955D-03 -0.24656123D-03  0.18741605D-03 -0.86513108D-05  0.34911038D-06
  0.91510689D-17  0.13115604D-16  0.17319658D-16  0.19908074D-16  0.18314184D-16
  0.11716085D-16  0.40553914D-17  0.45592297D-18  0.58004515D-20  0.10051180D-20
  0.10271212D-22  0.11884459D-15  0.17033186D-15  0.22492976D-15  0.25854542D-15
  0.23784562D-15  0.15215636D-15  0.52667218D-16  0.59210547D-17  0.75330248D-19
  0.13053430D-19  0.13339185D-21  0.10078379D-02  0.14444655D-02  0.19074721D-02
  0.21925430D-02  0.20170025D-02  0.12903318D-02  0.44663387D-03  0.50212327D-04
  0.63882320D-06  0.11069702D-06  0.11312031D-08  0.10208408D-16  0.14724825D-16
  0.19611562D-16  0.23209562D-16  0.22303517D-16  0.15330410D-16  0.48266993D-17
 -0.23327002D-17 -0.23939150D-17 -0.60287665D-18  0.65730560D-21  0.25155833D-16
  0.36285307D-16  0.48327334D-16  0.57193622D-16  0.54960923D-16  0.37777606D-16
  0.11894081D-16 -0.57483021D-17 -0.58991494D-17 -0.14856247D-17  0.16197500D-20
 -0.46547077D-02 -0.67140491D-02 -0.89422446D-02 -0.10582818D-01 -0.10169690D-01
 -0.69901766D-02 -0.22008204D-02  0.10636367D-02  0.10915487D-02  0.27489246D-03
 -0.29971032D-06 -0.58997739D-17 -0.85528256D-17 -0.11351737D-16 -0.13547212D-16
 -0.13015655D-16 -0.91102644D-17 -0.27507634D-17  0.16838776D-17  0.18109802D-17
  0.48703182D-18 -0.18154958D-18 -0.57883886D-17 -0.83913517D-17 -0.11137421D-16
 -0.13291446D-16 -0.12769924D-16 -0.89382663D-17 -0.26988301D-17  0.16520866D-17
  0.17767897D-17  0.47783686D-18 -0.17812200D-18  0.35317559D-02  0.51199406D-02
  0.67954407D-02  0.81097083D-02  0.77915045D-02  0.54536378D-02  0.16466775D-02
 -0.10080123D-02 -0.10840992D-02 -0.29154974D-03  0.10868023D-03  0.19828916D-18
  0.55269506D-18 -0.19600031D-04 -0.21428794D-19 -0.31466242D-20 -0.51198935D-05
 -0.11670641D-20 -0.13646464D-20 -0.31384799D-06 -0.26346156D-03 -0.27270789D-03
 -0.22816576D-03 -0.14723171D-03 -0.66138495D-04 -0.19311370D-04 -0.32579465D-05
 -0.26346156D-03 -0.27270789D-03 -0.22816576D-03 -0.14723171D-03 -0.66138495D-04
 -0.19311370D-04 -0.32579465D-05  0.52692312D-03  0.54541578D-03  0.45633152D-03
  0.29446341D-03  0.13227699D-03  0.38622740D-04  0.65158930D-05 -0.69133115D-17
 -0.71559380D-17 -0.59871389D-17 -0.38634048D-17 -0.17354942D-17 -0.50673623D-18
 -0.85489507D-19 -0.73139406D-18 -0.75706274D-18 -0.63340960D-18 -0.40872906D-18
 -0.18360668D-18 -0.53610179D-19 -0.90443657D-20  0.26966247D-17  0.27912643D-17
  0.23353594D-17  0.15069700D-17  0.67695151D-18  0.19765888D-18  0.33346265D-19
  0.18420124D-04  0.18420124D-04 -0.36840248D-04  0.46307811D-19  0.17054178D-19
 -0.37958560D-19  0.60718830D-05  0.60718830D-05 -0.12143766D-04 -0.38368863D-20
  0.10016279D-18  0.53405549D-19 -0.93082353D-06 -0.93082353D-06  0.18616471D-05
  0.25978197D-21  0.70813226D-20  0.44637219D-20  0.14385723D-19  0.27187646D-20
  0.12730677D-04  0.14388898D-19  0.26895282D-20 -0.19096016D-04 -0.57546067D-19
 -0.10845822D-19 -0.19096016D-04  0.39750500D-22  0.38529997D-20  0.26387563D-20
 -0.13107362D-05  0.38564030D-20  0.26442978D-20  0.19661042D-05 -0.15415402D-19
 -0.10560567D-19  0.19661042D-05  0.56343921D-22
MO    2     MO 0.0        OCC NO =    2.0000000  ORB. ENERGY =  -59.010553
  0.13208612D-03  0.24612304D-03  0.41625576D-03  0.62685811D-03  0.77609101D-03
  0.66041842D-03  0.25130139D-03 -0.11769516D-05 -0.93617779D-04 -0.17553421D-03
 -0.29863592D-03 -0.46375005D-03 -0.61542329D-03 -0.64857167D-03 -0.40215581D-03
  0.26751420D-03  0.17649261D-03 -0.11101861D-02 -0.77379664D-04 -0.75129493D-15
 -0.72160980D-15 -0.50604260D-15 -0.90709611D-16 -0.87125497D-16 -0.61098412D-16
  0.64931199D-03  0.62365640D-03  0.43735092D-03 -0.39285160D-17 -0.14857345D-17
 -0.68438329D-03 -0.29500371D-18 -0.28744498D-17 -0.10113231D-02 -0.54359768D-19
 -0.12984182D-18 -0.24315613D-04 -0.22257213D-03 -0.22257213D-03  0.44514427D-03
  0.23793896D-18  0.13039353D-17  0.39208546D-17  0.28219746D-03  0.28219746D-03
 -0.56439491D-03 -0.19685912D-19 -0.81762114D-18 -0.28236144D-17  0.78133940D-04
  0.78133940D-04 -0.15626788D-03  0.22342227D-19 -0.26023037D-18 -0.11856693D-17
 -0.85460725D-19 -0.98432652D-18  0.41550292D-04 -0.82849101D-19 -0.98634331D-18
 -0.62325438D-04  0.33923127D-18  0.39393229D-17 -0.62325438D-04 -0.44053622D-18
  0.12087031D-18  0.38139649D-18 -0.94812492D-04  0.11992235D-18  0.38210335D-18
  0.14221874D-03 -0.48253327D-18 -0.15262928D-17  0.14221874D-03  0.23728235D-19
  0.39846442D-03  0.74451220D-03  0.12912632D-02  0.21154189D-02  0.33125780D-02
  0.49746088D-02  0.70952166D-02  0.93742185D-02  0.10810778D-01  0.97300471D-02
  0.54587984D-02  0.13196937D-02  0.62652516D-04 -0.10721729D-05  0.30155602D-06
 -0.11751590D-06  0.11115663D-07  0.10960277D-08 -0.24607437D+00 -0.45314978D+00
 -0.78655417D+00 -0.12882284D+01 -0.20276122D+01 -0.30604122D+01 -0.44611895D+01
 -0.61261504D+01 -0.77801329D+01 -0.83787096D+01 -0.66843771D+01 -0.14972472D+01
  0.40036052D+01  0.35603037D+01  0.69534175D+00  0.19262397D-01  0.13949173D-02
  0.28488028D-04  0.13940934D-02  0.25169065D-02  0.43814550D-02  0.71748175D-02
  0.11311508D-01  0.17068755D-01  0.24981393D-01  0.34421077D-01  0.44343570D-01
  0.48808326D-01  0.41088696D-01  0.97846888D-02 -0.32958594D-01 -0.44039591D-01
 -0.54103538D-02  0.18904511D-01  0.83451118D-02 -0.41415289D-04 -0.50572977D-03
 -0.10956579D-02 -0.18652141D-02 -0.30446884D-02 -0.48000819D-02 -0.72435932D-02
 -0.10601613D-01 -0.14624261D-01 -0.18863768D-01 -0.20854197D-01 -0.17661959D-01
 -0.42902072D-02  0.14884491D-01  0.21007752D-01  0.25065142D-02 -0.11780040D-01
 -0.94164378D-02  0.35673920D-02 -0.29605559D-02  0.47222491D-04 -0.12205856D-04
 -0.35334570D-15 -0.50642633D-15 -0.66875540D-15 -0.76870061D-15 -0.70715651D-15
 -0.45238739D-15 -0.15658882D-15 -0.17604328D-16 -0.22396996D-18 -0.38810124D-19
 -0.39659723D-21  0.32963025D-13  0.47243659D-13  0.62387064D-13  0.71710785D-13
  0.65969439D-13  0.42202458D-13  0.14607907D-13  0.16422781D-14  0.20893780D-16
  0.36205311D-17  0.36997888D-19  0.14412659D-01  0.20656682D-01  0.27277942D-01
  0.31354619D-01  0.28844289D-01  0.18452482D-01  0.63871197D-02  0.71806499D-03
  0.91355369D-05  0.15830307D-05  0.16176851D-07 -0.39186284D-16 -0.56523128D-16
 -0.75281493D-16 -0.89092878D-16 -0.85614910D-16 -0.58847744D-16 -0.18527904D-16
  0.89543686D-17  0.91893497D-17  0.23142193D-17 -0.25231518D-20 -0.10351937D-14
 -0.14931854D-14 -0.19887297D-14 -0.23535885D-14 -0.22617101D-14 -0.15545953D-14
 -0.48945619D-15  0.23654976D-15  0.24275731D-15  0.61135300D-16 -0.66654721D-19
  0.63706319D-01  0.91891346D-01  0.12238738D+00  0.14484097D+00  0.13918673D+00
  0.95670545D-01  0.30121369D-01 -0.14557386D-01 -0.14939402D-01 -0.37622958D-02
  0.41019636D-05  0.31177464D-16  0.45197564D-16  0.59988462D-16  0.71590490D-16
  0.68781466D-16  0.48143360D-16  0.14536460D-16 -0.88984819D-17 -0.95701584D-17
 -0.25737286D-17  0.95940208D-18  0.23652463D-15  0.34288668D-15  0.45509631D-15
  0.54311391D-15  0.52180353D-15  0.36523466D-15  0.11027936D-15 -0.67507420D-16
 -0.72603025D-16 -0.19525328D-16  0.72784054D-17 -0.48850285D-01 -0.70817623D-01
 -0.93992683D-01 -0.11217127D+00 -0.10776997D+00 -0.75433231D-01 -0.22776394D-01
  0.13942551D-01  0.14994964D-01  0.40326364D-02 -0.15032353D-02 -0.84974872D-18
 -0.20405517D-16  0.24424485D-03  0.80798750D-19  0.15947624D-18  0.88869939D-04
  0.10851701D-19  0.52142797D-19  0.48975968D-05  0.46398683D-02  0.48027071D-02
  0.40182677D-02  0.25929237D-02  0.11647768D-02  0.34009597D-03  0.57376274D-04
  0.46398683D-02  0.48027071D-02  0.40182677D-02  0.25929237D-02  0.11647768D-02
  0.34009597D-03  0.57376274D-04 -0.92797366D-02 -0.96054141D-02 -0.80365353D-02
 -0.51858474D-02 -0.23295535D-02 -0.68019193D-03 -0.11475255D-03 -0.14079786D-14
 -0.14573924D-14 -0.12193525D-14 -0.78682860D-15 -0.35345417D-15 -0.10320290D-15
 -0.17410961D-16 -0.15318837D-15 -0.15856460D-15 -0.13266581D-15 -0.85607118D-16
 -0.38455888D-16 -0.11228497D-16 -0.18943162D-17  0.29019894D-15  0.30038363D-15
  0.25132114D-15  0.16217350D-15  0.72850555D-16  0.21271183D-16  0.35885789D-17
 -0.26085704D-03 -0.26085704D-03  0.52171407D-03  0.47812791D-17  0.24726687D-18
 -0.61692950D-18 -0.80723317D-04 -0.80723317D-04  0.16144663D-03 -0.53925469D-18
 -0.56748912D-18 -0.22852999D-17  0.13917076D-04  0.13917076D-04 -0.27834152D-04
  0.33366783D-19 -0.28085085D-19 -0.17679985D-18 -0.16971100D-18 -0.29175320D-18
 -0.17687573D-03 -0.16881021D-18 -0.28280184D-18  0.26531360D-03  0.67794320D-18
  0.11580614D-17  0.26531360D-03 -0.75256076D-19 -0.59211107D-20 -0.10082815D-18
  0.19548312D-04 -0.63406430D-20 -0.10168902D-18 -0.29322469D-04  0.24103975D-19
  0.40417348D-18 -0.29322469D-04  0.21958077D-19
MO    3     MO 0.0        OCC NO =    2.0000000  ORB. ENERGY =  -52.906679
  0.25545120D-16  0.47599570D-16  0.80502806D-16  0.12123276D-15  0.15009403D-15
  0.12772324D-15  0.48601050D-16 -0.22761945D-18 -0.14243775D-16 -0.26707212D-16
 -0.45436914D-16 -0.70558729D-16 -0.93635538D-16 -0.98679004D-16 -0.61187277D-16
  0.40701800D-16 -0.48234446D-16  0.20616309D-15  0.14483317D-15 -0.30160977D-04
 -0.28969258D-04 -0.20315243D-04  0.14481453D-04  0.13909263D-04  0.97541351D-05
 -0.18252109D-15 -0.17530932D-15 -0.12293900D-15  0.20742984D-04 -0.99595098D-05
  0.25294820D-15 -0.13779146D-03  0.66159017D-04  0.71469690D-16 -0.64104316D-05
  0.30778965D-05  0.94067198D-17  0.48699014D-16  0.17025612D-15 -0.21895513D-15
 -0.10728451D-16  0.14905570D-03 -0.71567413D-04 -0.37967928D-16 -0.99175741D-16
  0.13714367D-15  0.21288384D-16 -0.98518111D-04  0.47302360D-04  0.38405933D-17
  0.36930998D-17 -0.75336931D-17 -0.41161658D-17 -0.54825219D-04  0.26323711D-04
 -0.52681824D-04  0.25294584D-04  0.24805064D-16 -0.52681884D-04  0.25294613D-04
 -0.36440225D-16  0.21072736D-03 -0.10117836D-03 -0.37974966D-16  0.22915463D-17
  0.14351911D-04 -0.68909081D-05 -0.85275615D-18  0.14351931D-04 -0.68909178D-05
  0.11773888D-17 -0.57407663D-04  0.27563642D-04  0.13808796D-17 -0.17882682D-18
 -0.17741643D-16 -0.33149433D-16 -0.57493539D-16 -0.94189105D-16 -0.14749266D-15
 -0.22149464D-15 -0.31591478D-15 -0.41738742D-15 -0.48135029D-15 -0.43323070D-15
 -0.24305320D-15 -0.58759411D-16 -0.27896055D-17  0.47738536D-19 -0.13426793D-19
  0.52323998D-20 -0.49492528D-21 -0.48800675D-22 -0.47039497D-16 -0.86623966D-16
 -0.15035744D-15 -0.24625733D-15 -0.38759770D-15 -0.58502741D-15 -0.85279954D-15
 -0.11710729D-14 -0.14872477D-14 -0.16016714D-14 -0.12777834D-14 -0.28621328D-15
  0.76532789D-15  0.68058651D-15  0.13292131D-15  0.36821936D-17  0.26665194D-18
  0.54457622D-20 -0.45369069D-16 -0.81909654D-16 -0.14258911D-15 -0.23349568D-15
 -0.36811924D-15 -0.55548181D-15 -0.81298897D-15 -0.11201920D-14 -0.14431074D-14
 -0.15884074D-14 -0.13371815D-14 -0.31843076D-15  0.10725972D-14  0.14332148D-14
  0.17607337D-15 -0.61522426D-15 -0.27158149D-15  0.13478101D-17  0.19199110D-16
  0.41594659D-16  0.70809457D-16  0.11558605D-15  0.18222637D-15  0.27498983D-15
  0.40247095D-15  0.55518345D-15  0.71612861D-15  0.79169165D-15  0.67050412D-15
  0.16286991D-15 -0.56506262D-15 -0.79752108D-15 -0.95155249D-16  0.44720778D-15
  0.35747792D-15 -0.13542955D-15  0.11371082D-15 -0.10627178D-15 -0.83442011D-16
  0.43832351D+02  0.62821925D+02  0.82958762D+02  0.95356914D+02  0.87722400D+02
  0.56118423D+02  0.19424763D+02  0.21838078D+01  0.27783358D-01  0.48143759D-02
  0.49197682D-04 -0.21045609D+02 -0.30163239D+02 -0.39831714D+02 -0.45784547D+02
 -0.42118922D+02 -0.26944628D+02 -0.93265808D+01 -0.10485307D+01 -0.13339866D-01
 -0.23115683D-02 -0.23621713D-04  0.77658749D-13  0.11130300D-12  0.14697988D-12
  0.16894596D-12  0.15541972D-12  0.99426254D-13  0.34415283D-13  0.38691007D-14
  0.49224392D-16  0.85297365D-17  0.87164625D-19 -0.14412023D-01 -0.20788208D-01
 -0.27687203D-01 -0.32766787D-01 -0.31487651D-01 -0.21643161D-01 -0.68142357D-02
  0.32932586D-02  0.33796805D-02  0.85112897D-03 -0.92797065D-06  0.69197704D-02
  0.99812237D-02  0.13293698D-01  0.15732603D-01  0.15118441D-01  0.10391720D-01
  0.32717785D-02 -0.15812210D-02 -0.16227155D-02 -0.40865998D-03  0.44555465D-06
 -0.45391132D-14 -0.65473131D-14 -0.87201740D-14 -0.10320005D-13 -0.99171374D-14
 -0.68165833D-14 -0.21461655D-14  0.10372224D-14  0.10644413D-14  0.26806582D-15
 -0.29226735D-18  0.99514653D-02  0.14426510D-01  0.19147584D-01  0.22850809D-01
  0.21954203D-01  0.15366772D-01  0.46398602D-02 -0.28402867D-02 -0.30546776D-02
 -0.82150272D-03  0.30622942D-03 -0.47780839D-02 -0.69267261D-02 -0.91934965D-02
 -0.10971559D-01 -0.10541063D-01 -0.73781823D-02 -0.22277766D-02  0.13637316D-02
  0.14666690D-02  0.39443527D-03 -0.14703260D-03  0.34037163D-14  0.49343232D-14
  0.65490800D-14  0.78157004D-14  0.75090327D-14  0.52559226D-14  0.15869791D-14
 -0.97146797D-15 -0.10447965D-14 -0.28097994D-15  0.10474016D-15 -0.11823691D-02
  0.56770121D-03  0.16466796D-15  0.66518646D-05 -0.31938178D-05  0.49286416D-16
  0.27266800D-05 -0.13091847D-05  0.65909221D-17  0.25287030D-14  0.26174492D-14
  0.21899340D-14  0.14131293D-14  0.63479700D-15  0.18535045D-15  0.31269757D-16
 -0.77852409D-16 -0.80584682D-16 -0.67422564D-16 -0.43506699D-16 -0.19543804D-16
 -0.57064745D-17 -0.96271722D-18 -0.24508506D-14 -0.25368645D-14 -0.21225114D-14
 -0.13696226D-14 -0.61525319D-15 -0.17964398D-15 -0.30307040D-16  0.57493913D-14
  0.59511693D-14  0.49791484D-14  0.32129646D-14  0.14433076D-14  0.42142247D-15
  0.71096554D-16  0.43011960D-02  0.44521489D-02  0.37249671D-02  0.24036616D-02
  0.10797576D-02  0.31527175D-03  0.53188277D-04 -0.20651708D-02 -0.21376491D-02
 -0.17885010D-02 -0.11540910D-02 -0.51843345D-03 -0.15137418D-03 -0.25537751D-04
  0.87932704D-18  0.94574229D-17 -0.10336750D-16 -0.21736984D-16  0.25141044D-04
 -0.12071189D-04  0.16619000D-16  0.16028508D-16 -0.32647508D-16  0.22752908D-17
 -0.10386692D-03  0.49870533D-04  0.40086084D-17  0.39719455D-17 -0.79805539D-17
 -0.14221301D-18 -0.90373859D-05  0.43391989D-05 -0.68216652D-05  0.32753456D-05
  0.31799421D-16 -0.68215193D-05  0.32752756D-05 -0.48152854D-16  0.27286515D-04
 -0.13101312D-04 -0.47245408D-16  0.22041519D-18 -0.51089534D-05  0.24530064D-05
  0.71314285D-17 -0.51089677D-05  0.24530133D-05 -0.10700044D-16  0.20435828D-04
 -0.98120324D-05 -0.10694241D-16 -0.58904068D-19
MO    4     MO 0.0        OCC NO =    2.0000000  ORB. ENERGY =  -52.906679
  0.26580624D-16  0.49529079D-16  0.83766089D-16  0.12614709D-15  0.15617828D-15
  0.13290067D-15  0.50571155D-16 -0.23684629D-18 -0.16983476D-16 -0.31844177D-16
 -0.54176419D-16 -0.84130259D-16 -0.11164575D-15 -0.11765929D-15 -0.72956267D-16
  0.48530537D-16 -0.18037498D-16  0.59330364D-15  0.17811133D-15 -0.14481453D-04
 -0.13909263D-04 -0.97541351D-05 -0.30160977D-04 -0.28969258D-04 -0.20315243D-04
  0.47863309D-15  0.45972136D-15  0.32238835D-15  0.99595098D-05  0.20742984D-04
  0.16056622D-16 -0.66159017D-04 -0.13779146D-03  0.34957703D-15 -0.30778965D-05
 -0.64104316D-05  0.18423089D-16 -0.11032490D-15 -0.29851520D-15  0.40884009D-15
 -0.10215762D-15  0.71567413D-04  0.14905570D-03  0.32353395D-16  0.31676710D-16
 -0.64030106D-16 -0.86777754D-18 -0.47302360D-04 -0.98518111D-04 -0.17777165D-16
 -0.17825919D-16  0.35603084D-16 -0.64647717D-20 -0.26323711D-04 -0.54825219D-04
 -0.25294584D-04 -0.52681824D-04 -0.20172985D-15 -0.25294613D-04 -0.52681884D-04
  0.30165600D-15  0.10117836D-03  0.21072736D-03  0.30353355D-15  0.14728057D-17
  0.68909081D-05  0.14351911D-04 -0.23877003D-16  0.68909178D-05  0.14351931D-04
  0.35880492D-16 -0.27563642D-04 -0.57407663D-04  0.35750517D-16 -0.12385373D-18
 -0.68684280D-16 -0.12833337D-15 -0.22257816D-15 -0.36463989D-15 -0.57099711D-15
 -0.85748540D-15 -0.12230197D-14 -0.16158568D-14 -0.18634801D-14 -0.16771918D-14
 -0.94094632D-15 -0.22747881D-15 -0.10799566D-16  0.18481304D-18 -0.51979943D-19
  0.20256501D-19 -0.19160337D-20 -0.18892496D-21  0.29023920D-15  0.53448000D-15
  0.92772300D-15  0.15194365D-14  0.23915231D-14  0.36096875D-14  0.52618729D-14
  0.72256569D-14  0.91764923D-14  0.98825001D-14  0.78840728D-14  0.17659694D-14
 -0.47221626D-14 -0.41992983D-14 -0.82014000D-15 -0.22719565D-16 -0.16452737D-17
 -0.33600990D-19 -0.18309745D-15 -0.33056548D-15 -0.57545156D-15 -0.94232622D-15
 -0.14856309D-14 -0.22417762D-14 -0.32810063D-14 -0.45207956D-14 -0.58239960D-14
 -0.64103882D-14 -0.53965074D-14 -0.12851015D-14  0.43287160D-14  0.57840721D-14
  0.71058507D-15 -0.24828808D-14 -0.10960303D-14  0.54394015D-17  0.70169203D-16
  0.15202080D-15  0.25879549D-15  0.42244568D-15  0.66600374D-15  0.10050371D-14
  0.14709570D-14  0.20290930D-14  0.26173179D-14  0.28934868D-14  0.24505688D-14
  0.59525944D-15 -0.20651996D-14 -0.29147923D-14 -0.34777487D-15  0.16344619D-14
  0.13065158D-14 -0.49496999D-15  0.57761997D-15 -0.41904328D-15 -0.54211363D-16
  0.21045609D+02  0.30163239D+02  0.39831714D+02  0.45784547D+02  0.42118922D+02
  0.26944628D+02  0.93265808D+01  0.10485307D+01  0.13339866D-01  0.23115683D-02
  0.23621713D-04  0.43832351D+02  0.62821925D+02  0.82958762D+02  0.95356914D+02
  0.87722400D+02  0.56118423D+02  0.19424763D+02  0.21838078D+01  0.27783358D-01
  0.48143759D-02  0.49197682D-04  0.30027428D-11  0.43036268D-11  0.56831044D-11
  0.65324420D-11  0.60094382D-11  0.38444023D-11  0.13306967D-11  0.14960213D-12
  0.19033038D-14  0.32980966D-15  0.33702958D-17 -0.69197704D-02 -0.99812237D-02
 -0.13293698D-01 -0.15732603D-01 -0.15118441D-01 -0.10391720D-01 -0.32717785D-02
  0.15812210D-02  0.16227155D-02  0.40865998D-03 -0.44555465D-06 -0.14412023D-01
 -0.20788208D-01 -0.27687203D-01 -0.32766787D-01 -0.31487651D-01 -0.21643161D-01
 -0.68142357D-02  0.32932586D-02  0.33796805D-02  0.85112897D-03 -0.92797065D-06
 -0.31109430D-13 -0.44872901D-13 -0.59764899D-13 -0.70729559D-13 -0.67968450D-13
 -0.46718381D-13 -0.14709037D-13  0.71087450D-14  0.72952931D-14  0.18372255D-14
 -0.20030941D-17  0.47780839D-02  0.69267261D-02  0.91934965D-02  0.10971559D-01
  0.10541063D-01  0.73781823D-02  0.22277766D-02 -0.13637316D-02 -0.14666690D-02
 -0.39443527D-03  0.14703260D-03  0.99514653D-02  0.14426510D-01  0.19147584D-01
  0.22850809D-01  0.21954203D-01  0.15366772D-01  0.46398602D-02 -0.28402867D-02
 -0.30546776D-02 -0.82150272D-03  0.30622942D-03  0.20574854D-13  0.29827098D-13
  0.39588013D-13  0.47244507D-13  0.45390755D-13  0.31771109D-13  0.95930041D-14
 -0.58723496D-14 -0.63156071D-14 -0.16984733D-14  0.63313546D-15 -0.56770121D-03
 -0.11823691D-02 -0.90076936D-15  0.31938178D-05  0.66518646D-05  0.83044243D-16
  0.13091847D-05  0.27266800D-05  0.18385858D-17 -0.68818789D-15 -0.71234023D-15
 -0.59599173D-15 -0.38458391D-15 -0.17276035D-15 -0.50443226D-16 -0.85100813D-17
  0.50328821D-14  0.52095139D-14  0.43586296D-14  0.28125538D-14  0.12634376D-14
  0.36890333D-15  0.62236254D-16 -0.43446942D-14 -0.44971737D-14 -0.37626379D-14
 -0.24279699D-14 -0.10906773D-14 -0.31846011D-15 -0.53726172D-16  0.27315647D-14
  0.28274305D-14  0.23656185D-14  0.15264957D-14  0.68572272D-15  0.20021994D-15
  0.33778331D-16  0.20651708D-02  0.21376491D-02  0.17885010D-02  0.11540910D-02