 Molden2AIM, Version 4.0.0 (06/02/2016)           Time: Fri Jun 29 23:18:58 2018
GAUSSIAN             11 MOL ORBITALS    206 PRIMITIVES        2 NUCLEI
  P    1    (CENTRE  1)   0.00000000  0.00000000  2.87507090  CHARGE = 15.0
  N    2    (CENTRE  2)   0.00000000  0.00000000  0.08027179  CHARGE =  7.0
CENTRE ASSIGNMENTS    1  1  1  1  1  1  1  1  1  1  1  1  1  1  1  1  1  1  1  1
CENTRE ASSIGNMENTS    1  1  1  1  1  1  1  1  1  1  1  1  1  1  1  1  1  1  1  1
CENTRE ASSIGNMENTS    1  1  1  1  1  1  1  1  1  1  1  1  1  1  1  1  1  1  1  1
CENTRE ASSIGNMENTS    1  1  1  1  1  1  1  1  1  1  1  1  1  1  1  1  1  1  1  1
CENTRE ASSIGNMENTS    1  1  1  1  1  1  1  1  1  1  1  1  1  1  1  1  1  1  1  1
CENTRE ASSIGNMENTS    1  1  1  1  1  1  1  1  1  1  1  1  1  1  1  1  1  1  1  1
CENTRE ASSIGNMENTS    1  1  1  1  1  1  1  1  1  1  1  2  2  2  2  2  2  2  2  2
CENTRE ASSIGNMENTS    2  2  2  2  2  2  2  2  2  2  2  2  2  2  2  2  2  2  2  2
CENTRE ASSIGNMENTS    2  2  2  2  2  2  2  2  2  2  2  2  2  2  2  2  2  2  2  2
CENTRE ASSIGNMENTS    2  2  2  2  2  2  2  2  2  2  2  2  2  2  2  2  2  2  2  2
CENTRE ASSIGNMENTS    2  2  2  2  2  2
TYPE ASSIGNMENTS      1  1  1  1  1  1  1  1  1  1  1  1  1  1  1  1  1  1  1  1
TYPE ASSIGNMENTS      1  1  1  1  1  1  1  1  1  1  1  1  1  1  1  1  1  1  1  1
TYPE ASSIGNMENTS      1  1  2  2  2  2  2  2  2  3  3  3  3  3  3  3  4  4  4  4
TYPE ASSIGNMENTS      4  4  4  2  2  2  2  2  2  2  3  3  3  3  3  3  3  4  4  4
TYPE ASSIGNMENTS      4  4  4  4  2  3  4  2  3  4  2  3  4  5  6  7  8  9 10  5
TYPE ASSIGNMENTS      6  7  8  9 10  5  6  7  8  9 10 11 12 13 17 14 15 18 19 16
TYPE ASSIGNMENTS     20 11 12 13 17 14 15 18 19 16 20  1  1  1  1  1  1  1  1  1
TYPE ASSIGNMENTS      1  1  1  1  1  1  1  1  1  1  2  2  2  3  3  3  4  4  4  2
TYPE ASSIGNMENTS      3  4  2  3  4  2  3  4  5  6  7  8  9 10  5  6  7  8  9 10
TYPE ASSIGNMENTS      5  6  7  8  9 10 11 12 13 17 14 15 18 19 16 20 11 12 13 17
TYPE ASSIGNMENTS     14 15 18 19 16 20
EXPONENTS  0.3124000D+06 0.4680000D+05 0.1065000D+05 0.3018000D+04 0.9868000D+03
EXPONENTS  0.3574000D+03 0.1396000D+03 0.5763000D+02 0.2460000D+02 0.1012000D+02
EXPONENTS  0.4283000D+01 0.1805000D+01 0.2782000D+00 0.3124000D+06 0.4680000D+05
EXPONENTS  0.1065000D+05 0.3018000D+04 0.9868000D+03 0.3574000D+03 0.1396000D+03
EXPONENTS  0.5763000D+02 0.2460000D+02 0.1012000D+02 0.4283000D+01 0.1805000D+01
EXPONENTS  0.2782000D+00 0.3124000D+06 0.4680000D+05 0.1065000D+05 0.3018000D+04
EXPONENTS  0.9868000D+03 0.3574000D+03 0.1396000D+03 0.5763000D+02 0.2460000D+02
EXPONENTS  0.1012000D+02 0.4283000D+01 0.1805000D+01 0.2782000D+00 0.6158000D+00
EXPONENTS  0.1055000D+00 0.4090000D-01 0.5049000D+03 0.1194000D+03 0.3796000D+02
EXPONENTS  0.1395000D+02 0.5457000D+01 0.2177000D+01 0.2877000D+00 0.5049000D+03
EXPONENTS  0.1194000D+03 0.3796000D+02 0.1395000D+02 0.5457000D+01 0.2177000D+01
EXPONENTS  0.2877000D+00 0.5049000D+03 0.1194000D+03 0.3796000D+02 0.1395000D+02
EXPONENTS  0.5457000D+01 0.2177000D+01 0.2877000D+00 0.5049000D+03 0.1194000D+03
EXPONENTS  0.3796000D+02 0.1395000D+02 0.5457000D+01 0.2177000D+01 0.2877000D+00
EXPONENTS  0.5049000D+03 0.1194000D+03 0.3796000D+02 0.1395000D+02 0.5457000D+01
EXPONENTS  0.2177000D+01 0.2877000D+00 0.5049000D+03 0.1194000D+03 0.3796000D+02
EXPONENTS  0.1395000D+02 0.5457000D+01 0.2177000D+01 0.2877000D+00 0.8010000D+00
EXPONENTS  0.8010000D+00 0.8010000D+00 0.9714000D-01 0.9714000D-01 0.9714000D-01
EXPONENTS  0.3070000D-01 0.3070000D-01 0.3070000D-01 0.2160000D+00 0.2160000D+00
EXPONENTS  0.2160000D+00 0.2160000D+00 0.2160000D+00 0.2160000D+00 0.6520000D+00
EXPONENTS  0.6520000D+00 0.6520000D+00 0.6520000D+00 0.6520000D+00 0.6520000D+00
EXPONENTS  0.7750000D-01 0.7750000D-01 0.7750000D-01 0.7750000D-01 0.7750000D-01
EXPONENTS  0.7750000D-01 0.4520000D+00 0.4520000D+00 0.4520000D+00 0.4520000D+00
EXPONENTS  0.4520000D+00 0.4520000D+00 0.4520000D+00 0.4520000D+00 0.4520000D+00
EXPONENTS  0.4520000D+00 0.1650000D+00 0.1650000D+00 0.1650000D+00 0.1650000D+00
EXPONENTS  0.1650000D+00 0.1650000D+00 0.1650000D+00 0.1650000D+00 0.1650000D+00
EXPONENTS  0.1650000D+00 0.1142000D+05 0.1712000D+04 0.3893000D+03 0.1100000D+03
EXPONENTS  0.3557000D+02 0.1254000D+02 0.4644000D+01 0.5118000D+00 0.1142000D+05
EXPONENTS  0.1712000D+04 0.3893000D+03 0.1100000D+03 0.3557000D+02 0.1254000D+02
EXPONENTS  0.4644000D+01 0.5118000D+00 0.1293000D+01 0.1787000D+00 0.5760000D-01
EXPONENTS  0.2663000D+02 0.5948000D+01 0.1742000D+01 0.2663000D+02 0.5948000D+01
EXPONENTS  0.1742000D+01 0.2663000D+02 0.5948000D+01 0.1742000D+01 0.5550000D+00
EXPONENTS  0.5550000D+00 0.5550000D+00 0.1725000D+00 0.1725000D+00 0.1725000D+00
EXPONENTS  0.4910000D-01 0.4910000D-01 0.4910000D-01 0.1654000D+01 0.1654000D+01
EXPONENTS  0.1654000D+01 0.1654000D+01 0.1654000D+01 0.1654000D+01 0.4690000D+00
EXPONENTS  0.4690000D+00 0.4690000D+00 0.4690000D+00 0.4690000D+00 0.4690000D+00
EXPONENTS  0.1510000D+00 0.1510000D+00 0.1510000D+00 0.1510000D+00 0.1510000D+00
EXPONENTS  0.1510000D+00 0.1093000D+01 0.1093000D+01 0.1093000D+01 0.1093000D+01
EXPONENTS  0.1093000D+01 0.1093000D+01 0.1093000D+01 0.1093000D+01 0.1093000D+01
EXPONENTS  0.1093000D+01 0.3640000D+00 0.3640000D+00 0.3640000D+00 0.3640000D+00
EXPONENTS  0.3640000D+00 0.3640000D+00 0.3640000D+00 0.3640000D+00 0.3640000D+00
EXPONENTS  0.3640000D+00
MO    1     MO 0.0        OCC NO =    2.0000000  ORB. ENERGY =  -77.602964
  0.54399200D+00  0.10178008D+01  0.17574414D+01  0.28422317D+01  0.42897712D+01
  0.58771193D+01  0.67917756D+01  0.57076390D+01  0.25070451D+01  0.28655112D+00
 -0.38620339D-02  0.24020772D-02  0.11815813D-03 -0.11811213D-02 -0.22091637D-02
 -0.38250475D-02 -0.62109830D-02 -0.95386185D-02 -0.13566105D-01 -0.17260690D-01
 -0.17888151D-01 -0.11937192D-01  0.11756612D-02  0.89801363D-02  0.46109325D-02
 -0.20225676D-04  0.52244377D-03  0.97630167D-03  0.16929417D-02  0.27452861D-02
  0.42315650D-02  0.60212858D-02  0.77535947D-02  0.81509814D-02  0.57140879D-02
 -0.66345674D-03 -0.53711039D-02 -0.50549386D-02  0.24650875D-02 -0.22777335D-02
  0.20313929D-03  0.29091056D-04  0.28484327D-16  0.37262936D-16  0.40766958D-16
  0.33580670D-16  0.17954818D-16  0.49610904D-17 -0.40663829D-20 -0.17454604D-16
 -0.22833953D-16 -0.24981144D-16 -0.20577536D-16 -0.11002339D-16 -0.30400531D-17
  0.24917949D-20 -0.14848720D-01 -0.19424960D-01 -0.21251587D-01 -0.17505415D-01
 -0.93597460D-02 -0.25861886D-02  0.21197827D-05 -0.10896509D-16 -0.14431405D-16
 -0.15942825D-16 -0.13655079D-16 -0.74493621D-17 -0.22897386D-17  0.99687201D-18
  0.77445949D-17  0.10256990D-16  0.11331218D-16  0.97052230D-17  0.52945664D-17
  0.16274109D-17 -0.70851772D-18  0.13294651D-01  0.17607519D-01  0.19451578D-01
  0.16660336D-01  0.90888437D-02  0.27936722D-02 -0.12162671D-02 -0.18849978D-17
  0.12012198D-17  0.22820946D-03  0.15820948D-18 -0.11773125D-18  0.19190194D-04
  0.59674589D-20 -0.40527078D-20  0.41085669D-05 -0.32268208D-04 -0.32268208D-04
  0.64536415D-04 -0.86655819D-21 -0.46644008D-18  0.34123799D-18 -0.25541249D-03
 -0.25541249D-03  0.51082497D-03 -0.76247327D-20 -0.22979913D-18  0.17156171D-18
  0.79642360D-05  0.79642360D-05 -0.15928472D-04  0.75839591D-22 -0.26424076D-19
  0.19546475D-19 -0.81592323D-19  0.62589027D-19 -0.95000592D-04 -0.80394208D-19
  0.57229373D-19  0.14250089D-03  0.32517118D-18 -0.24499645D-18  0.14250089D-03
  0.85941459D-20 -0.11257596D-19  0.81319600D-20  0.11733549D-04 -0.11363221D-19
  0.84102014D-20 -0.17600324D-04  0.45136009D-19 -0.32806081D-19 -0.17600324D-04
 -0.58269340D-21  0.91350299D-04  0.17021783D-03  0.28788103D-03  0.43353287D-03
  0.53674182D-03  0.45674306D-03  0.17379916D-03 -0.81397562D-06 -0.64772210D-04
 -0.12144850D-03 -0.20662003D-03 -0.32085909D-03 -0.42579868D-03 -0.44873336D-03
 -0.27824331D-03  0.18508756D-03  0.13899145D-03 -0.86284144D-03 -0.15625178D-03
  0.68423674D-19  0.65720121D-19  0.46087485D-19 -0.54423201D-19 -0.52272834D-19
 -0.36657319D-19  0.49425845D-03  0.47472933D-03  0.33291297D-03 -0.10520577D-19
  0.90694957D-20 -0.56927900D-03 -0.63110161D-18  0.46350745D-18 -0.79794072D-03
 -0.28380828D-19  0.20433632D-19 -0.31541365D-04 -0.20031523D-03 -0.20031523D-03
  0.40063046D-03 -0.27271664D-20  0.11784812D-17 -0.89809266D-18  0.24425778D-03
  0.24425778D-03 -0.48851557D-03  0.13399688D-20 -0.72545565D-18  0.54813605D-18
  0.58428813D-04  0.58428813D-04 -0.11685763D-03 -0.22150053D-21 -0.22496054D-18
  0.16391359D-18 -0.13384697D-18  0.92227884D-19  0.37370478D-04 -0.13158226D-18
  0.93543549D-19 -0.56055717D-04  0.53312318D-18 -0.37022720D-18 -0.56055717D-04
  0.17442331D-20  0.89251247D-19 -0.66702886D-19 -0.85274811D-04  0.89184294D-19
 -0.66711806D-19  0.12791222D-03 -0.35693804D-18  0.26682046D-18  0.12791222D-03
  0.70451058D-21
MO    2     MO 0.0        OCC NO =    2.0000000  ORB. ENERGY =  -14.548368
  0.20465025D-03  0.38289752D-03  0.66115094D-03  0.10692499D-02  0.16138155D-02
  0.22109772D-02  0.25550717D-02  0.21472186D-02  0.94315248D-03  0.10780077D-03
 -0.14529004D-05  0.90366344D-06  0.44451187D-07 -0.41718099D-03 -0.78029335D-03
 -0.13510358D-02 -0.21937663D-02 -0.33691124D-02 -0.47916512D-02 -0.60966066D-02
 -0.63182307D-02 -0.42163069D-02  0.41525247D-03  0.31718522D-02  0.16286163D-02
 -0.71438621D-05  0.25685975D-03  0.47999923D-03  0.83233567D-03  0.13497213D-02
  0.20804511D-02  0.29603683D-02  0.38120589D-02  0.40074343D-02  0.28093343D-02
 -0.32618885D-03 -0.26407060D-02 -0.24852632D-02  0.12119615D-02  0.28914155D-03
  0.73933482D-03  0.15527595D-03 -0.43598619D-15 -0.57035314D-15 -0.62398632D-15
 -0.51399171D-15 -0.27481964D-15 -0.75935334D-16  0.62240782D-19  0.45728377D-17
  0.59821444D-17  0.65446756D-17  0.53909980D-17  0.28824436D-17  0.79644714D-18
 -0.65281195D-21 -0.97157626D-02 -0.12710072D-01 -0.13905264D-01 -0.11454082D-01
 -0.61242362D-02 -0.16921859D-02  0.13870088D-05 -0.16579893D-16 -0.21958514D-16
 -0.24258259D-16 -0.20777273D-16 -0.11334788D-16 -0.34840168D-17  0.15168189D-17
 -0.23266418D-17 -0.30814189D-17 -0.34041402D-17 -0.29156564D-17 -0.15906009D-17
 -0.48890902D-18  0.21285387D-18  0.96399581D-02  0.12767220D-01  0.14104349D-01
  0.12080418D-01  0.65903251D-02  0.20256931D-02 -0.88191586D-03 -0.29146932D-17
 -0.65865883D-18 -0.80814220D-03 -0.15423387D-17  0.13164600D-18 -0.15589969D-03
 -0.31756162D-19  0.26109588D-20 -0.79659232D-05 -0.92492691D-05 -0.92492691D-05
  0.18498538D-04 -0.22927431D-19  0.18210448D-18 -0.22865206D-18 -0.23759505D-03
 -0.23759505D-03  0.47519011D-03  0.27732124D-19 -0.50073350D-17  0.10840051D-18
 -0.14517402D-05 -0.14517402D-05  0.29034804D-05  0.19735270D-20  0.40494298D-18
 -0.24059278D-19 -0.10274389D-17 -0.18758538D-19  0.92480899D-04 -0.10412260D-17
 -0.16489087D-19 -0.13872135D-03  0.41235428D-17  0.72764701D-19 -0.13872135D-03
 -0.67586059D-20  0.81660070D-19 -0.10337011D-19  0.11830061D-05  0.82988171D-19
 -0.10644599D-19 -0.17745091D-05 -0.32796838D-18  0.41655630D-19 -0.17745091D-05
  0.87137866D-20  0.41104909D+00  0.76592945D+00  0.12953787D+01  0.19507686D+01
  0.24151780D+01  0.20552075D+01  0.78204437D+00 -0.36626474D-02 -0.25329161D-03
 -0.47492414D-03 -0.80798726D-03 -0.12547189D-02 -0.16650850D-02 -0.17547710D-02
 -0.10880700D-02  0.72378456D-03  0.39993737D-01 -0.91754178D-03 -0.47628935D-03
  0.22228504D-15  0.21350213D-15  0.14972243D-15 -0.38936612D-17 -0.37398150D-17
 -0.26226164D-17  0.53820854D-02  0.51694287D-02  0.36251602D-02 -0.26826122D-16
  0.21186082D-18 -0.42616104D-03  0.49101628D-17 -0.36822647D-18 -0.90841664D-03
  0.20529342D-18 -0.21155598D-19 -0.47867790D-04 -0.13957174D-02 -0.13957174D-02
  0.27914348D-02 -0.19665033D-16  0.94254403D-17 -0.14587897D-20  0.33995677D-03
  0.33995677D-03 -0.67991355D-03  0.35069119D-18 -0.54822619D-17 -0.27246432D-18
  0.58123728D-04  0.58123728D-04 -0.11624746D-03 -0.16374997D-19  0.95811379D-18
 -0.95867939D-19  0.83649750D-18  0.20283313D-18  0.12824724D-03  0.14130915D-17
  0.14084884D-18 -0.19237086D-03 -0.39225840D-17 -0.74934822D-18 -0.19237086D-03
 -0.29919204D-17  0.20753071D-18  0.18574361D-19 -0.14941268D-03  0.18540307D-18
  0.21122863D-19  0.22411902D-03 -0.80799520D-18 -0.76845947D-19  0.22411902D-03
  0.80772065D-19
MO    3     MO 0.0        OCC NO =    2.0000000  ORB. ENERGY =   -6.783952
 -0.18258956D-02 -0.34162231D-02 -0.58988085D-02 -0.95398802D-02 -0.14398511D-01
 -0.19726405D-01 -0.22796426D-01 -0.19157549D-01 -0.84148348D-02 -0.96180174D-03
  0.12962821D-04 -0.80625124D-05 -0.39659482D-06 -0.14490539D+00 -0.27103035D+00
 -0.46927441D+00 -0.76199194D+00 -0.11702416D+01 -0.16643521D+01 -0.21176208D+01
 -0.21946006D+01 -0.14645096D+01  0.14423553D+00  0.11017244D+01  0.56569040D+00
 -0.24813789D-02 -0.77658823D-03 -0.14512268D-02 -0.25164787D-02 -0.40807393D-02
 -0.62900235D-02 -0.89503597D-02 -0.11525356D-01 -0.12116053D-01 -0.84937244D-02
  0.98619741D-03  0.79838947D-02  0.75139297D-02 -0.36642372D-02  0.37184103D-01
  0.23286596D-03 -0.25284758D-04  0.23102850D-14  0.30222936D-14  0.33064952D-14
  0.27236352D-14  0.14562656D-14  0.40238032D-15 -0.32981307D-18 -0.12067867D-14
 -0.15787073D-14 -0.17271611D-14 -0.14227019D-14 -0.76068623D-15 -0.21018499D-15
  0.17227919D-18  0.35952012D-01  0.47032093D-01  0.51454758D-01  0.42384454D-01
  0.22662000D-01  0.62617306D-02 -0.51324593D-05  0.14527915D-15  0.19240860D-15
  0.21255982D-15  0.18205813D-15  0.99319602D-16  0.30528241D-16 -0.13290927D-16
  0.95647715D-16  0.12667643D-15  0.13994342D-15  0.11986197D-15  0.65389241D-16
  0.20098938D-16 -0.87503739D-17 -0.17000099D-01 -0.22515037D-01 -0.24873068D-01
 -0.21303859D-01 -0.11622061D-01 -0.35723168D-02  0.15552617D-02  0.92037965D-16
 -0.90423664D-17  0.73448853D-03 -0.16888797D-17 -0.22339160D-17 -0.11056290D-03
 -0.87812152D-19 -0.52110337D-19 -0.65785551D-05  0.76764268D-05  0.76764268D-05
 -0.15352854D-04  0.61534584D-18  0.60541566D-17  0.57197247D-17  0.45437323D-03
  0.45437323D-03 -0.90874645D-03 -0.64172917D-17 -0.14222265D-16 -0.98005925D-19
 -0.12178232D-04 -0.12178232D-04  0.24356464D-04 -0.32632444D-19  0.29962300D-18
  0.30772688D-18  0.31563810D-18  0.11742730D-17  0.60898391D-04 -0.62794859D-19
  0.51207808D-18 -0.91347587D-04 -0.88411944D-18 -0.40348971D-17 -0.91347587D-04
 -0.42434364D-18  0.17611871D-18  0.12032548D-18 -0.18411685D-04  0.18949526D-18
  0.15092877D-18  0.27617527D-04 -0.71785140D-18 -0.51190520D-18  0.27617527D-04
 -0.12808400D-19 -0.16895723D-03 -0.31482691D-03 -0.53245124D-03 -0.80184206D-03
 -0.99273248D-03 -0.84477054D-03 -0.32145077D-03  0.15054911D-05  0.46745453D-05
  0.87648161D-05  0.14911560D-04  0.23156078D-04  0.30729463D-04  0.32384635D-04
  0.20080540D-04 -0.13357583D-04 -0.34692279D-03  0.98511777D-03  0.11328741D-03
  0.16437777D-17  0.15788288D-17  0.11071837D-17 -0.63861971D-18 -0.61338660D-18
 -0.43014902D-18 -0.31800827D-03 -0.30544314D-03 -0.21419781D-03 -0.12037877D-17
 -0.40326419D-18  0.11918822D-02  0.74594827D-17  0.75025982D-17  0.10806916D-02
  0.32621274D-18  0.34931722D-18  0.30065360D-04  0.33659270D-04  0.33659270D-04
 -0.67318541D-04 -0.29680918D-18 -0.44858502D-17 -0.11941071D-16 -0.45561627D-03
 -0.45561627D-03  0.91123253D-03 -0.41712478D-19  0.39693121D-17  0.79164772D-17
 -0.81417357D-04 -0.81417357D-04  0.16283471D-03 -0.21878598D-19  0.26127792D-17
  0.27107730D-17  0.14731762D-17  0.14070495D-17  0.84791779D-03  0.15664430D-17
  0.14381615D-17 -0.12718767D-02 -0.59859715D-17 -0.56593100D-17 -0.12718767D-02
 -0.31042895D-19 -0.50622638D-18 -0.10746571D-17  0.12547441D-03 -0.52759648D-18
 -0.10568400D-17 -0.18821162D-03  0.20462756D-17  0.42808114D-17 -0.18821162D-03
  0.51735481D-19
MO    4     MO 0.0        OCC NO =    2.0000000  ORB. ENERGY =   -4.863000
 -0.49452516D-16 -0.92524909D-16 -0.15976319D-15 -0.25837790D-15 -0.38996893D-15
 -0.53426950D-15 -0.61741788D-15 -0.51886261D-15 -0.22790719D-15 -0.26049416D-16
  0.35108475D-18 -0.21836490D-18 -0.10741365D-19  0.14659539D-15  0.27419133D-15
  0.47474747D-15  0.77087892D-15  0.11838899D-14  0.16837632D-14  0.21423182D-14
  0.22201959D-14  0.14815900D-14 -0.14591772D-15 -0.11145736D-14 -0.57228794D-15
  0.25103188D-17 -0.47611079D-16 -0.88971826D-16 -0.15428030D-15 -0.25018201D-15
 -0.38562883D-15 -0.54872875D-15 -0.70659664D-15 -0.74281108D-15 -0.52073335D-15
  0.60461801D-16  0.48947670D-15  0.46066408D-15 -0.22464709D-15  0.34513873D-16
  0.11201107D-15  0.34175947D-16  0.66897430D+01  0.87514606D+01  0.95744046D+01
  0.78866546D+01  0.42168143D+01  0.11651467D+01 -0.95501841D-03 -0.43436161D+01
 -0.56822788D+01 -0.62166122D+01 -0.51207647D+01 -0.27379561D+01 -0.75652383D+00
  0.62008860D-03 -0.10007838D-12 -0.13092163D-12 -0.14323285D-12 -0.11798415D-12
 -0.63083433D-13 -0.17430565D-13  0.14287051D-16 -0.13902120D-01 -0.18412054D-01
 -0.20340373D-01 -0.17421592D-01 -0.95041376D-02 -0.29213227D-02  0.12718416D-02
  0.90265756D-02  0.11954853D-01  0.13206901D-01  0.11311751D-01  0.61709882D-02
  0.18968000D-02 -0.82580029D-03 -0.32050567D-15 -0.42447970D-15 -0.46893604D-15
 -0.40164515D-15 -0.21911263D-15 -0.67349477D-16  0.29321604D-16  0.71729290D-01
 -0.46573463D-01 -0.11880395D-14  0.14203307D-03 -0.92221347D-04 -0.78433190D-16
  0.12430461D-05 -0.80710349D-06 -0.39666976D-17 -0.14537390D-16 -0.18302045D-16
  0.32839435D-16 -0.25054997D-16 -0.30233344D-03  0.19630356D-03  0.35740794D-16
 -0.17252281D-16 -0.18488514D-16  0.36809096D-15  0.64351411D-03 -0.41783044D-03
 -0.34864478D-17 -0.38053726D-17  0.72918204D-17 -0.62438085D-18 -0.14658316D-04
  0.95175701D-05 -0.53073426D-04  0.34460306D-04 -0.17111218D-16 -0.52817262D-04
  0.34293979D-04  0.20773858D-16  0.21203754D-03 -0.13767490D-03  0.30559795D-16
 -0.13662773D-16 -0.57821897D-05  0.37543464D-05 -0.64745114D-17 -0.57939642D-05
  0.37619915D-05  0.90446668D-17  0.23140533D-04 -0.15025031D-04  0.10378867D-16
 -0.26746624D-20  0.47317172D-16  0.88168582D-16  0.14911518D-15  0.22455919D-15
  0.27801885D-15  0.23658149D-15  0.90023622D-16 -0.42161903D-18 -0.29198312D-16
 -0.54747108D-16 -0.93141121D-16 -0.14463833D-15 -0.19194347D-15 -0.20228207D-15
 -0.12542779D-15  0.83434613D-16 -0.10108875D-15 -0.22981776D-15 -0.23938529D-16
  0.27888060D-03  0.26786148D-03  0.18784296D-03 -0.18107575D-03 -0.17392110D-03
 -0.12196548D-03 -0.63987092D-17 -0.61458837D-17 -0.43099179D-17  0.15964698D-03
 -0.10365797D-03 -0.12313460D-15 -0.37680310D-03  0.24465634D-03  0.56640279D-16
 -0.18707114D-04  0.12146434D-04  0.52126004D-17 -0.41639974D-16 -0.40414261D-16
  0.82054236D-16  0.70864997D-16  0.91115725D-03 -0.59160977D-03  0.59406628D-16
  0.60603041D-16 -0.12000967D-15 -0.11818720D-16 -0.22960868D-03  0.14908375D-03
 -0.14446034D-16 -0.12592503D-16  0.27038537D-16  0.84020503D-19 -0.14297046D-03
  0.92829990D-04 -0.22172108D-03  0.14396237D-03  0.26620469D-16 -0.22176437D-03
  0.14399048D-03 -0.39848840D-16  0.88692759D-03 -0.57587758D-03 -0.40012568D-16
  0.35523187D-16  0.49340444D-04 -0.32036499D-04  0.79741450D-17  0.49379735D-04
 -0.32062011D-04 -0.21583192D-16 -0.19740107D-03  0.12817151D-03 -0.23392431D-17
 -0.10455435D-16
MO    5     MO 0.0        OCC NO =    2.0000000  ORB. ENERGY =   -4.863000
 -0.20040661D-16 -0.37495775D-16 -0.64744130D-16 -0.10470780D-15 -0.15803514D-15
 -0.21651303D-15 -0.25020897D-15 -0.21026938D-15 -0.92359525D-16 -0.10556541D-16
  0.14227730D-18 -0.88492506D-19 -0.43529446D-20  0.54464064D-16  0.10186933D-15
  0.17638124D-15  0.28640190D-15  0.43984639D-15  0.62556254D-15  0.79592785D-15
  0.82486146D-15  0.55044983D-15 -0.54212290D-16 -0.41409356D-15 -0.21262010D-15
  0.93264979D-18 -0.17120832D-16 -0.31994059D-16 -0.55478832D-16 -0.89964861D-16
 -0.13867122D-15 -0.19732156D-15 -0.25409049D-15 -0.26711311D-15 -0.18725448D-15
  0.21741921D-16  0.17601467D-15  0.16565372D-15 -0.80782565D-16  0.10828771D-15
  0.40325149D-14  0.90952647D-15  0.43436161D+01  0.56822788D+01  0.62166122D+01
  0.51207647D+01  0.27379561D+01  0.75652383D+00 -0.62008860D-03  0.66897430D+01
  0.87514606D+01  0.95744046D+01  0.78866546D+01  0.42168143D+01  0.11651467D+01
 -0.95501841D-03  0.15174220D-12  0.19850775D-12  0.21717444D-12  0.17889152D-12
  0.95649214D-13  0.26428806D-13 -0.21662505D-16 -0.90265756D-02 -0.11954853D-01
 -0.13206901D-01 -0.11311751D-01 -0.61709882D-02 -0.18968000D-02  0.82580029D-03
 -0.13902120D-01 -0.18412054D-01 -0.20340373D-01 -0.17421592D-01 -0.95041376D-02
 -0.29213227D-02  0.12718416D-02  0.83264393D-14  0.11027588D-13  0.12182522D-13
  0.10434368D-13  0.56923424D-14  0.17496768D-14 -0.76174801D-15  0.46573463D-01
  0.71729290D-01  0.26147971D-14  0.92221347D-04  0.14203307D-03 -0.27981367D-14
  0.80710349D-06  0.12430461D-05 -0.11123512D-15 -0.51924048D-15 -0.47522610D-15
  0.99446659D-15 -0.26340520D-16 -0.19630356D-03 -0.30233344D-03  0.14812700D-14
  0.14333029D-14 -0.29145729D-14  0.15704078D-15  0.41783044D-03  0.64351411D-03
 -0.20489065D-15 -0.20138559D-15  0.40627624D-15 -0.10884506D-17 -0.95175701D-05
 -0.14658316D-04 -0.34460306D-04 -0.53073426D-04 -0.39956495D-15 -0.34293979D-04
 -0.52817262D-04  0.57750395D-15  0.13767490D-03  0.21203754D-03  0.62119090D-15
  0.74504843D-16 -0.37543464D-05 -0.57821897D-05 -0.48990611D-16 -0.37619915D-05
 -0.57939642D-05  0.87517180D-16  0.15025031D-04  0.23140533D-04  0.59454652D-16
  0.57318389D-17  0.52788379D-15  0.98363372D-15  0.16635712D-14  0.25052461D-14
  0.31016571D-14  0.26393703D-14  0.10043291D-14 -0.47037015D-17 -0.46567709D-15
 -0.87314890D-15 -0.14854861D-14 -0.23068030D-14 -0.30612618D-14 -0.32261497D-14
 -0.20004186D-14  0.13306792D-14  0.63639237D-15 -0.92481729D-14 -0.19671861D-14
  0.18107575D-03  0.17392110D-03  0.12196548D-03  0.27888060D-03  0.26786148D-03
  0.18784296D-03 -0.13987687D-14 -0.13435007D-14 -0.94215539D-15  0.10365797D-03
  0.15964698D-03 -0.29353814D-14 -0.24465634D-03 -0.37680310D-03 -0.99768854D-15
 -0.12146434D-04 -0.18707114D-04  0.29577766D-15  0.13558600D-14 -0.47680857D-15
 -0.87905139D-15  0.88548285D-16  0.59160977D-03  0.91115725D-03 -0.12013228D-15
  0.13280309D-15 -0.12670806D-16  0.69870716D-17 -0.14908375D-03 -0.22960868D-03
  0.17106840D-15  0.12186363D-15 -0.29293203D-15  0.10731346D-16 -0.92829990D-04
 -0.14297046D-03 -0.14396237D-03 -0.22172108D-03  0.18285054D-15 -0.14399048D-03
 -0.22176437D-03  0.44129349D-15  0.57587758D-03  0.88692759D-03 -0.98984512D-15
 -0.25311052D-16  0.32036499D-04  0.49340444D-04 -0.36129132D-15  0.32062011D-04
  0.49379735D-04  0.64939419D-15 -0.12817151D-03 -0.19740107D-03  0.43447977D-15
  0.10713111D-15
MO    6     MO 0.0        OCC NO =    2.0000000  ORB. ENERGY =   -4.858958
 -0.18273802D-03 -0.34190007D-03 -0.59036046D-03 -0.95476367D-03 -0.14410218D-02
 -0.19742444D-02 -0.22814961D-02 -0.19173125D-02 -0.84216766D-03 -0.96258374D-04
  0.12973361D-05 -0.80690677D-06 -0.39691728D-07  0.62728612D-03  0.11732730D-02
  0.20314588D-02  0.32986142D-02  0.50659006D-02  0.72048736D-02  0.91670445D-02
  0.95002854D-02  0.63397682D-02 -0.62438634D-03 -0.47692942D-02 -0.24488374D-02
  0.10741730D-04 -0.14010979D-03 -0.26182612D-03 -0.45401577D-03 -0.73623514D-03
 -0.11348278D-02 -0.16147979D-02 -0.20793712D-02 -0.21859430D-02 -0.15324131D-02
  0.17792687D-03  0.14404311D-02  0.13556414D-02 -0.66109104D-03  0.12065496D-02
 -0.26011960D-02 -0.41518027D-03 -0.59022913D-14 -0.77213235D-14 -0.84473985D-14
 -0.69583141D-14 -0.37204518D-14 -0.10279969D-14  0.84260291D-18 -0.19469433D-12
 -0.25469734D-12 -0.27864781D-12 -0.22952854D-12 -0.12272367D-12 -0.33909741D-13
  0.27794292D-16  0.79998231D+01  0.10465295D+02  0.11449400D+02  0.94311309D+01
  0.50426105D+01  0.13933222D+01 -0.11420436D-02  0.33930981D-15  0.44938402D-15
  0.49644862D-15  0.42520976D-15  0.23196802D-15  0.71300886D-16 -0.31041909D-16
  0.52189550D-15  0.69120165D-15  0.76359215D-15  0.65401900D-15  0.35679212D-15
  0.10966854D-15 -0.47745843D-16 -0.36779394D-01 -0.48710858D-01 -0.53812413D-01
 -0.46090496D-01 -0.25144110D-01 -0.77286400D-02  0.33647792D-02 -0.77827035D-16
 -0.21156143D-14  0.82907622D-01  0.68353250D-18 -0.20960693D-17  0.87453123D-03
 -0.78505547D-19 -0.81236572D-19  0.16143470D-04  0.30067743D-03  0.30067743D-03
 -0.60135486D-03 -0.22508384D-18 -0.14686374D-17  0.15330048D-17 -0.85059226D-04
 -0.85059226D-04  0.17011845D-03  0.34889129D-18  0.92711981D-16 -0.49847195D-16
  0.14702772D-04  0.14702772D-04 -0.29405545D-04  0.58313204D-20  0.23077321D-18
  0.20268466D-18  0.30001626D-17 -0.97034111D-18  0.31974556D-03  0.32918145D-17
 -0.10651709D-17 -0.47961834D-03 -0.12292302D-16  0.39761943D-17 -0.47961834D-03
 -0.85977371D-18 -0.97916290D-19  0.83550221D-19  0.22086376D-04 -0.10478035D-18
  0.85961470D-19 -0.33129565D-04  0.39852922D-18 -0.33661213D-18 -0.33129565D-04
  0.90249266D-19  0.24933526D-03  0.46459954D-03  0.78575429D-03  0.11833024D-02
  0.14650052D-02  0.12466533D-02  0.47437457D-03 -0.22216985D-05  0.21456039D-03
  0.40230274D-03  0.68443666D-03  0.10628579D-02  0.14104742D-02  0.14864462D-02
  0.92169147D-03 -0.61310952D-03 -0.10977190D-03  0.34182738D-02  0.11052281D-02
 -0.37035771D-17 -0.35572416D-17 -0.24945833D-17  0.10753548D-17  0.10328654D-17
  0.72431650D-18 -0.30696312D-02 -0.29483441D-02 -0.20675824D-02  0.64552494D-17
 -0.58035041D-17  0.11395556D-03  0.22108596D-17  0.74198014D-18  0.12895124D-02
  0.26616063D-18  0.43836547D-18  0.99744661D-04  0.56277471D-03  0.56277471D-03
 -0.11255494D-02  0.33239798D-18 -0.21890234D-16 -0.51166020D-17  0.90462180D-04
  0.90462180D-04 -0.18092436D-03 -0.95849996D-19  0.16538333D-16 -0.13119507D-16
 -0.33977916D-04 -0.33977916D-04  0.67955833D-04  0.44347427D-19  0.12648727D-17
  0.53779252D-18 -0.24978104D-17  0.59732785D-17 -0.18230444D-02 -0.26335188D-17
  0.60350306D-17  0.27345666D-02  0.10126950D-16 -0.23954866D-16  0.27345666D-02
 -0.57154028D-18 -0.17617269D-17  0.95309203D-18 -0.56229463D-04 -0.17323558D-17
  0.94096942D-18  0.84344194D-04  0.70175364D-17 -0.38002455D-17  0.84344194D-04
 -0.54594535D-19
MO    7     MO 0.0        OCC NO =    2.0000000  ORB. ENERGY =   -0.909385
 -0.52525711D-03 -0.98274811D-03 -0.16969158D-02 -0.27443463D-02 -0.41420331D-02
 -0.56747134D-02 -0.65578693D-02 -0.55110700D-02 -0.24207034D-02 -0.27668241D-03
  0.37290269D-05 -0.23193505D-05 -0.11408881D-06  0.33746513D-02  0.63119318D-02
  0.10928769D-01  0.17745766D-01  0.27253350D-01  0.38760520D-01  0.49316536D-01
  0.51109293D-01  0.34106457D-01 -0.33590511D-02 -0.25657677D-01 -0.13174167D-01
  0.57787972D-04  0.19269237D-01  0.36008830D-01  0.62440587D-01  0.10125409D+00
  0.15607236D+00  0.22208244D+00  0.28597500D+00  0.30063177D+00  0.21075209D+00
 -0.24470204D-01 -0.19810185D+00 -0.18644076D+00  0.90919556D-01  0.16134788D-01
  0.14042026D-01  0.14494891D-03  0.12843395D-14  0.16801611D-14  0.18381552D-14
  0.15141302D-14  0.80957087D-15  0.22369229D-15 -0.18335052D-18 -0.84256722D-15
 -0.11022387D-14 -0.12058878D-14 -0.99331718D-15 -0.53110403D-15 -0.14674920D-15
  0.12028373D-18  0.36118579D+00  0.47249995D+00  0.51693150D+00  0.42580822D+00
  0.22766994D+00  0.62907414D-01 -0.51562381D-04 -0.19327622D-14 -0.25597622D-14
 -0.28278496D-14 -0.24220618D-14 -0.13213264D-14 -0.40614109D-15  0.17681961D-15
  0.42633314D-16  0.56463827D-16  0.62377361D-16  0.53426400D-16  0.29146123D-16
  0.89587539D-17 -0.39003278D-17  0.43788679D+00  0.57993999D+00  0.64067790D+00
  0.54874258D+00  0.29935984D+00  0.92015366D-01 -0.40060268D-01  0.22118596D-15
 -0.25892038D-16 -0.56147394D-01 -0.11638719D-16 -0.24066983D-17 -0.80205821D-03
 -0.24617563D-19  0.62856975D-18  0.20617812D-04 -0.11160097D-02 -0.11160097D-02
  0.22320194D-02  0.57929596D-17 -0.25787207D-16 -0.15049764D-17 -0.17460677D-01
 -0.17460677D-01  0.34921353D-01 -0.32602935D-18 -0.22716062D-15  0.49807151D-16
  0.54505667D-04  0.54505667D-04 -0.10901133D-03 -0.24509822D-18  0.58957135D-18
 -0.84253391D-18 -0.34743434D-17  0.26001755D-17 -0.31200960D-02 -0.79138413D-17
  0.34613645D-17  0.46801441D-02  0.18336871D-16 -0.11261891D-16  0.46801441D-02
 -0.19796157D-16 -0.22460526D-17 -0.57833713D-18  0.85059509D-04 -0.22510192D-17
 -0.63739126D-18 -0.12758926D-03  0.89891770D-17  0.23724026D-17 -0.12758926D-03
  0.70037468D-18 -0.70761764D-02 -0.13185413D-01 -0.22299839D-01 -0.33582321D-01
 -0.41577092D-01 -0.35380229D-01 -0.13462830D-01  0.63052176D-04 -0.68148904D-01
 -0.12777983D+00 -0.21739151D+00 -0.33758607D+00 -0.44799635D+00 -0.47212665D+00
 -0.29274864D+00  0.19473651D+00  0.98540352D-01  0.38204784D-01 -0.14241153D-02
  0.23799908D-14  0.22859527D-14  0.16030678D-14 -0.79600857D-16 -0.76455672D-16
 -0.53615995D-16  0.30374641D+00  0.29174479D+00  0.20459159D+00  0.76996154D-15
 -0.29914503D-16  0.72916275D-01  0.10629017D-15 -0.39056663D-17  0.10514961D-02
  0.32714836D-17 -0.81385326D-18 -0.37097350D-03 -0.16498263D-01 -0.16498263D-01
  0.32996526D-01 -0.32528450D-16  0.50844250D-15 -0.33518956D-16 -0.27732310D-02
 -0.27732310D-02  0.55464620D-02 -0.13221456D-17  0.12694493D-15 -0.10606963D-16
  0.17422401D-03  0.17422401D-03 -0.34844802D-03  0.21938561D-17  0.40064796D-16
  0.30470534D-17 -0.58191251D-16  0.31060686D-17  0.77893319D-02 -0.49561025D-16
 -0.16499980D-17 -0.11683998D-01  0.22413478D-15 -0.76682079D-17 -0.11683998D-01
  0.41291513D-16 -0.46636788D-17 -0.71605875D-18  0.33645994D-03 -0.63579605D-17
  0.10717994D-17 -0.50468992D-03  0.20348997D-16  0.10763768D-17 -0.50468992D-03
 -0.16224428D-16
MO    8     MO 0.0        OCC NO =    2.0000000  ORB. ENERGY =   -0.523122
  0.44890850D-03  0.83990103D-03  0.14502610D-02  0.23454426D-02  0.35399690D-02
  0.48498670D-02  0.56046519D-02  0.47100099D-02  0.20688427D-02  0.23646531D-03
 -0.31869952D-05  0.19822219D-05  0.97505457D-07 -0.34920894D-03 -0.65315875D-03
 -0.11309091D-02 -0.18363320D-02 -0.28201768D-02 -0.40109389D-02 -0.51032755D-02
 -0.52887900D-02 -0.35293364D-02  0.34759464D-03  0.26550566D-02  0.13632629D-02
 -0.59798998D-05  0.33583039D-01  0.62757332D-01  0.10882344D+00  0.17646885D+00
  0.27200786D+00  0.38705233D+00  0.49840632D+00  0.52395060D+00  0.36730544D+00
 -0.42647448D-01 -0.34525819D+00 -0.32493487D+00  0.15845749D+00  0.28151547D-01