 Molden2AIM, Version 4.0.0 (06/02/2016)           Time: Wed Jun 27 19:54:53 2018
GAUSSIAN              6 MOL ORBITALS    150 PRIMITIVES        2 NUCLEI
  C    1    (CENTRE  1)   0.00000000  0.00000000  2.77888762  CHARGE =  6.0
  B    2    (CENTRE  2)   0.00000000  0.00000000  0.17645507  CHARGE =  5.0
CENTRE ASSIGNMENTS    1  1  1  1  1  1  1  1  1  1  1  1  1  1  1  1  1  1  1  1
CENTRE ASSIGNMENTS    1  1  1  1  1  1  1  1  1  1  1  1  1  1  1  1  1  1  1  1
CENTRE ASSIGNMENTS    1  1  1  1  1  1  1  1  1  1  1  1  1  1  1  1  1  1  1  1
CENTRE ASSIGNMENTS    1  1  1  1  1  1  1  1  1  1  1  1  1  1  1  2  2  2  2  2
CENTRE ASSIGNMENTS    2  2  2  2  2  2  2  2  2  2  2  2  2  2  2  2  2  2  2  2
CENTRE ASSIGNMENTS    2  2  2  2  2  2  2  2  2  2  2  2  2  2  2  2  2  2  2  2
CENTRE ASSIGNMENTS    2  2  2  2  2  2  2  2  2  2  2  2  2  2  2  2  2  2  2  2
CENTRE ASSIGNMENTS    2  2  2  2  2  2  2  2  2  2
TYPE ASSIGNMENTS      1  1  1  1  1  1  1  1  1  1  1  1  1  1  1  1  1  1  1  2
TYPE ASSIGNMENTS      2  2  3  3  3  4  4  4  2  3  4  2  3  4  2  3  4  5  6  7
TYPE ASSIGNMENTS      8  9 10  5  6  7  8  9 10  5  6  7  8  9 10 11 12 13 17 14
TYPE ASSIGNMENTS     15 18 19 16 20 11 12 13 17 14 15 18 19 16 20  1  1  1  1  1
TYPE ASSIGNMENTS      1  1  1  1  1  1  1  1  1  1  1  1  1  1  2  2  2  3  3  3
TYPE ASSIGNMENTS      4  4  4  2  3  4  2  3  4  2  3  4  5  6  7  8  9 10  5  6
TYPE ASSIGNMENTS      7  8  9 10  5  6  7  8  9 10 11 12 13 17 14 15 18 19 16 20
TYPE ASSIGNMENTS     11 12 13 17 14 15 18 19 16 20
EXPONENTS  0.8236000D+04 0.1235000D+04 0.2808000D+03 0.7927000D+02 0.2559000D+02
EXPONENTS  0.8997000D+01 0.3319000D+01 0.3643000D+00 0.8236000D+04 0.1235000D+04
EXPONENTS  0.2808000D+03 0.7927000D+02 0.2559000D+02 0.8997000D+01 0.3319000D+01
EXPONENTS  0.3643000D+00 0.9059000D+00 0.1285000D+00 0.4402000D-01 0.1871000D+02
EXPONENTS  0.4133000D+01 0.1200000D+01 0.1871000D+02 0.4133000D+01 0.1200000D+01
EXPONENTS  0.1871000D+02 0.4133000D+01 0.1200000D+01 0.3827000D+00 0.3827000D+00
EXPONENTS  0.3827000D+00 0.1209000D+00 0.1209000D+00 0.1209000D+00 0.3569000D-01
EXPONENTS  0.3569000D-01 0.3569000D-01 0.1097000D+01 0.1097000D+01 0.1097000D+01
EXPONENTS  0.1097000D+01 0.1097000D+01 0.1097000D+01 0.3180000D+00 0.3180000D+00
EXPONENTS  0.3180000D+00 0.3180000D+00 0.3180000D+00 0.3180000D+00 0.1000000D+00
EXPONENTS  0.1000000D+00 0.1000000D+00 0.1000000D+00 0.1000000D+00 0.1000000D+00
EXPONENTS  0.7610000D+00 0.7610000D+00 0.7610000D+00 0.7610000D+00 0.7610000D+00
EXPONENTS  0.7610000D+00 0.7610000D+00 0.7610000D+00 0.7610000D+00 0.7610000D+00
EXPONENTS  0.2680000D+00 0.2680000D+00 0.2680000D+00 0.2680000D+00 0.2680000D+00
EXPONENTS  0.2680000D+00 0.2680000D+00 0.2680000D+00 0.2680000D+00 0.2680000D+00
EXPONENTS  0.5473000D+04 0.8209000D+03 0.1868000D+03 0.5283000D+02 0.1708000D+02
EXPONENTS  0.5999000D+01 0.2208000D+01 0.2415000D+00 0.5473000D+04 0.8209000D+03
EXPONENTS  0.1868000D+03 0.5283000D+02 0.1708000D+02 0.5999000D+01 0.2208000D+01
EXPONENTS  0.2415000D+00 0.5879000D+00 0.8610000D-01 0.2914000D-01 0.1205000D+02
EXPONENTS  0.2613000D+01 0.7475000D+00 0.1205000D+02 0.2613000D+01 0.7475000D+00
EXPONENTS  0.1205000D+02 0.2613000D+01 0.7475000D+00 0.2385000D+00 0.2385000D+00
EXPONENTS  0.2385000D+00 0.7698000D-01 0.7698000D-01 0.7698000D-01 0.2096000D-01
EXPONENTS  0.2096000D-01 0.2096000D-01 0.6610000D+00 0.6610000D+00 0.6610000D+00
EXPONENTS  0.6610000D+00 0.6610000D+00 0.6610000D+00 0.1990000D+00 0.1990000D+00
EXPONENTS  0.1990000D+00 0.1990000D+00 0.1990000D+00 0.1990000D+00 0.6040000D-01
EXPONENTS  0.6040000D-01 0.6040000D-01 0.6040000D-01 0.6040000D-01 0.6040000D-01
EXPONENTS  0.4900000D+00 0.4900000D+00 0.4900000D+00 0.4900000D+00 0.4900000D+00
EXPONENTS  0.4900000D+00 0.4900000D+00 0.4900000D+00 0.4900000D+00 0.4900000D+00
EXPONENTS  0.1630000D+00 0.1630000D+00 0.1630000D+00 0.1630000D+00 0.1630000D+00
EXPONENTS  0.1630000D+00 0.1630000D+00 0.1630000D+00 0.1630000D+00 0.1630000D+00
MO    1     MO 0.0        OCC NO =    2.0000000  ORB. ENERGY =  -10.023445
  0.32686151D+00  0.60934417D+00  0.10298990D+01  0.15482755D+01  0.19022354D+01
  0.16067419D+01  0.60600392D+00 -0.29991472D-02 -0.86090805D-03 -0.16118915D-02
 -0.27443832D-02 -0.42451435D-02 -0.55907047D-02 -0.58091003D-02 -0.36914224D-02
  0.24739055D-02  0.32761714D-01  0.35771804D-02  0.16330797D-03 -0.66955864D-13
 -0.62775378D-13 -0.44699809D-13  0.57630362D-13  0.54032128D-13  0.38474094D-13
 -0.45647552D-03 -0.42797482D-03 -0.30474356D-03  0.13559484D-13 -0.11670371D-13
 -0.34046052D-02  0.15564414D-14 -0.13399889D-14  0.13969949D-03  0.10311019D-15
 -0.88753754D-16  0.40642055D-04 -0.13881707D-02 -0.13881707D-02  0.27763415D-02
 -0.18363386D-17 -0.15008221D-14  0.12829071D-14 -0.11517518D-04 -0.11517518D-04
  0.23035037D-04  0.19656924D-18 -0.49286322D-14  0.42434084D-14  0.47184126D-04
  0.47184126D-04 -0.94368252D-04 -0.17189269D-19 -0.25432158D-15  0.21887421D-15
 -0.11584427D-14  0.99675237D-15 -0.52021950D-03 -0.11583806D-14  0.99658440D-15
  0.78032925D-03  0.46337086D-14 -0.39868415D-14  0.78032925D-03 -0.16595468D-18
 -0.17766370D-15  0.15295135D-15  0.98099585D-04 -0.17766762D-15  0.15295765D-15
 -0.14714938D-03  0.71065873D-15 -0.61181169D-15 -0.14714938D-03  0.50603407D-19
 -0.44300293D-03 -0.82550696D-03 -0.13912075D-02 -0.20756702D-02 -0.25142161D-02
 -0.20920151D-02 -0.77698528D-03  0.41248515D-05  0.31558008D-03  0.58946754D-03
  0.10032767D-02  0.15344010D-02  0.19955796D-02  0.20199789D-02  0.13300537D-02
 -0.90916507D-03  0.12018588D-02 -0.18486868D-02 -0.13112321D-03  0.50794362D-14
  0.45778691D-14  0.33238298D-14 -0.43738257D-14 -0.39419339D-14 -0.28620996D-14
  0.89584300D-03  0.80738331D-03  0.58621264D-03 -0.34903334D-14  0.30040606D-14
 -0.26891647D-02 -0.42573102D-15  0.36642159D-15 -0.76787586D-03 -0.13634458D-16
  0.11739918D-16 -0.91499754D-05  0.78029713D-03  0.78029713D-03 -0.15605943D-02
 -0.28897926D-19 -0.51417169D-14  0.44244736D-14  0.37226535D-03  0.37226535D-03
 -0.74453070D-03 -0.17054398D-20 -0.28881171D-14  0.24858319D-14  0.20574295D-04
  0.20574295D-04 -0.41148591D-04  0.32002914D-20 -0.33839634D-16  0.29142096D-16
  0.85122444D-15 -0.73249381D-15 -0.63741074D-03  0.85122611D-15 -0.73247765D-15
  0.95611611D-03 -0.34048994D-14  0.29299591D-14  0.95611611D-03 -0.32917583D-19
  0.85906365D-16 -0.73946326D-16 -0.42540058D-04  0.85906007D-16 -0.73948499D-16
  0.63810087D-04 -0.34362510D-15  0.29578748D-15  0.63810087D-04  0.12059559D-19
MO    2     MO 0.0        OCC NO =    2.0000000  ORB. ENERGY =   -6.581832
  0.71996832D-03  0.13421846D-02  0.22685285D-02  0.34103414D-02  0.41899984D-02
  0.35391235D-02  0.13348272D-02 -0.66061341D-05 -0.37328474D-03 -0.69890681D-03
 -0.11899487D-02 -0.18406696D-02 -0.24240971D-02 -0.25187922D-02 -0.16005794D-02
  0.10726711D-02 -0.31223521D-03  0.74420416D-02  0.19071887D-02 -0.82886428D-14
 -0.77711295D-14 -0.55335071D-14  0.72814150D-14  0.68267894D-14  0.48610807D-14
  0.16065190D-02  0.15062137D-02  0.10725139D-02  0.38137396D-14 -0.32241379D-14
 -0.41524411D-02  0.53611677D-14 -0.47016101D-14 -0.26749107D-02  0.24182049D-15
 -0.21694519D-15 -0.12689334D-03 -0.18477740D-03 -0.18477740D-03  0.36955481D-03
 -0.71996799D-17  0.35135229D-14 -0.31195912D-14 -0.72573712D-03 -0.72573712D-03
  0.14514742D-02 -0.24640177D-17 -0.63408461D-14  0.55225983D-14 -0.69057970D-04
 -0.69057970D-04  0.13811594D-03  0.21542907D-17 -0.11100917D-14  0.97695130D-15
  0.56287711D-15 -0.49429454D-15 -0.45183243D-05  0.56919335D-15 -0.47437982D-15
  0.67774864D-05 -0.22578247D-14  0.19572634D-14  0.67774864D-05  0.29989756D-16
 -0.29817153D-15  0.26107464D-15 -0.15100943D-03 -0.29853879D-15  0.25980743D-15
  0.22651414D-03  0.11930534D-14 -0.10430313D-14  0.22651414D-03 -0.59437884D-17
 -0.25215740D+00 -0.46987881D+00 -0.79187576D+00 -0.11814721D+01 -0.14310925D+01
 -0.11907756D+01 -0.44226026D+00  0.23478667D-02  0.14459977D-02  0.27009585D-02
  0.45970449D-02  0.70306730D-02  0.91438073D-02  0.92556057D-02  0.60943470D-02
 -0.41658225D-02 -0.24662738D-01 -0.61346335D-02 -0.50834009D-03  0.57607263D-13
  0.51918855D-13  0.37696456D-13 -0.49616629D-13 -0.44717253D-13 -0.32467626D-13
  0.88214744D-03  0.79504011D-03  0.57725068D-03 -0.14587461D-13  0.12625266D-13
 -0.47913301D-02 -0.20828227D-14  0.18447291D-14 -0.93891524D-03 -0.56722361D-16
  0.50112831D-16 -0.12769200D-04  0.11840436D-02  0.11840436D-02 -0.23680873D-02
  0.10221784D-17 -0.78508074D-15  0.76007401D-15  0.24823901D-03  0.24823901D-03
 -0.49647803D-03 -0.59032647D-17 -0.48339147D-14  0.41931721D-14  0.82238804D-05
  0.82238804D-05 -0.16447761D-04 -0.67910036D-18 -0.27676891D-15  0.24595738D-15
  0.78262840D-15 -0.69851768D-15 -0.48567904D-03  0.78220622D-15 -0.69945618D-15
  0.72851856D-03 -0.31300914D-14  0.27950092D-14  0.72851856D-03  0.73172064D-17
  0.13958242D-15 -0.12072162D-15  0.21978767D-05  0.13959174D-15 -0.12057101D-15
 -0.32968150D-05 -0.55833900D-15  0.48273588D-15 -0.32968150D-05 -0.64639101D-17
MO    3     MO 0.0        OCC NO =    2.0000000  ORB. ENERGY =   -0.392919
  0.85866175D-02  0.16007407D-01  0.27055338D-01  0.40673036D-01  0.49971524D-01
  0.42208941D-01  0.15919659D-01 -0.78787283D-04  0.52185093D-01  0.97706959D-01
  0.16635446D+00  0.25732505D+00  0.33888804D+00  0.35212638D+00  0.22376051D+00
 -0.14995909D+00 -0.72613381D-01 -0.22956802D-01  0.27700564D-02 -0.31970639D-12
 -0.29974506D-12 -0.21343634D-12  0.27575423D-12  0.25853712D-12  0.18409383D-12
  0.19555879D+00  0.18334880D+00  0.13055527D+00 -0.21816466D-13  0.18872920D-13
  0.33515209D-01 -0.35165984D-13  0.30283055D-13 -0.54989466D-02 -0.61022242D-14
  0.52506215D-14 -0.52601902D-03  0.10437992D-01  0.10437992D-01 -0.20875983D-01
 -0.16155667D-16  0.65826049D-13 -0.56466434D-13  0.38429556D-03  0.38429556D-03
 -0.76859113D-03 -0.57086969D-17  0.13881288D-13 -0.11904534D-13 -0.33537110D-03
 -0.33537110D-03  0.67074220D-03 -0.96595229D-18 -0.95569470D-15  0.82470328D-15
  0.13039254D-13 -0.11205615D-13  0.26760863D-02  0.13039800D-13 -0.11211828D-13
 -0.40141295D-02 -0.52157562D-13  0.44828673D-13 -0.40141295D-02  0.12889894D-16
  0.25681464D-15 -0.22003718D-15 -0.81203122D-04  0.25677527D-15 -0.22006444D-15
  0.12180468D-03 -0.10272192D-14  0.88017597D-15  0.12180468D-03 -0.12973878D-17
  0.71212682D-02  0.13270017D-01  0.22363649D-01  0.33366380D-01  0.40416001D-01
  0.33629124D-01  0.12490031D-01 -0.66306951D-04  0.26092445D-01  0.48737706D-01
  0.82951821D-01  0.12686566D+00  0.16499631D+00  0.16701367D+00  0.10997003D+00
 -0.75170586D-01 -0.30445633D-01 -0.17068958D-01 -0.83218325D-03 -0.23445595D-12
 -0.21130468D-12 -0.15342090D-12  0.20206297D-12  0.18211034D-12  0.13222391D-12
 -0.14840532D+00 -0.13375109D+00 -0.97111965D-01 -0.24562264D-13  0.21215746D-13
 -0.24470103D-01 -0.14203442D-13  0.12246426D-13 -0.20873687D-03 -0.30210178D-15
  0.26042890D-15  0.41611727D-04  0.90870804D-02  0.90870804D-02 -0.18174161D-01
 -0.43105766D-17  0.18392170D-13 -0.15858727D-13  0.10110353D-03  0.10110353D-03
 -0.20220705D-03 -0.27894295D-17  0.15348490D-13 -0.13202553D-13 -0.72214932D-04
 -0.72214932D-04  0.14442986D-03  0.75940820D-18  0.84108448D-15 -0.72196944D-15
  0.35034320D-14 -0.30099854D-14 -0.24670529D-02  0.35034016D-14 -0.30100764D-14
  0.37005793D-02 -0.14013698D-13  0.12040033D-13  0.37005793D-02 -0.51015251D-17
 -0.35902006D-15  0.30863470D-15  0.20987122D-03 -0.35902584D-15  0.30866384D-15
 -0.31480684D-03  0.14360860D-14 -0.12345680D-14 -0.31480684D-03 -0.41716457D-18
MO    4     MO 0.0        OCC NO =    2.0000000  ORB. ENERGY =   -0.077482
 -0.18092542D-02 -0.33728611D-02 -0.57007294D-02 -0.85700637D-02 -0.10529313D-01
 -0.88936884D-02 -0.33543720D-02  0.16600974D-04 -0.31724609D-01 -0.59398477D-01
 -0.10113099D+00 -0.15643426D+00 -0.20601842D+00 -0.21406634D+00 -0.13602955D+00
  0.91163839D-01  0.45258104D-01  0.45238438D-01  0.66566891D-02 -0.51244055D-12
 -0.48044559D-12 -0.34210588D-12  0.44204304D-12  0.41444345D-12  0.29510842D-12
  0.34924790D+00  0.32744211D+00  0.23315829D+00 -0.22790800D-12  0.19637526D-12
  0.86901941D-01 -0.30399975D-13  0.26204576D-13  0.12291819D-01  0.55420106D-14
 -0.47708059D-14  0.69285464D-03  0.46575258D-02  0.46575258D-02 -0.93150517D-02
  0.78761661D-17 -0.30743894D-12  0.26448235D-12  0.11863508D-04  0.11863508D-04
 -0.23727017D-04  0.82777474D-17 -0.95536121D-13  0.82183002D-13 -0.93964879D-04
 -0.93964879D-04  0.18792976D-03 -0.10954934D-17 -0.91368143D-14  0.78607670D-14
  0.11402166D-13 -0.97978186D-14  0.19068015D-02  0.11401498D-13 -0.97999603D-14
 -0.28602022D-02 -0.45607995D-13  0.39193416D-13 -0.28602022D-02  0.10259955D-16
  0.38205473D-15 -0.32706730D-15 -0.29890852D-04  0.38199109D-15 -0.32703578D-15
  0.44836277D-04 -0.15281553D-14  0.13082377D-14  0.44836277D-04  0.28340489D-18
  0.44975076D-02  0.83808109D-02  0.14123984D-01  0.21072869D-01  0.25525126D-01
  0.21238807D-01  0.78882033D-02 -0.41876813D-04  0.33046849D-01  0.61727739D-01
  0.10506092D+00  0.16067909D+00  0.20897268D+00  0.21152773D+00  0.13928028D+00
 -0.95205758D-01 -0.38139997D-01 -0.36170712D-01 -0.33037249D-02  0.64307057D-12
  0.57957081D-12  0.42080599D-12 -0.55317589D-12 -0.49855274D-12 -0.36198162D-12
  0.60137054D-01  0.54198843D-01  0.39351874D-01  0.24608352D-12 -0.21171497D-12
  0.23123519D-01  0.15984053D-13 -0.13739549D-13  0.49095037D-02 -0.48642699D-14
  0.41889138D-14  0.15051996D-03  0.13381580D-02  0.13381580D-02 -0.26763159D-02
 -0.63058931D-17 -0.44910772D-13  0.38613986D-13 -0.17621949D-04 -0.17621949D-04
  0.35243898D-04 -0.34482208D-17 -0.26118953D-13  0.22453747D-13  0.49355108D-06
  0.49355108D-06 -0.98710216D-06  0.46183910D-18 -0.92008539D-15  0.79060690D-15
 -0.31498366D-14  0.27061765D-14 -0.22370596D-03 -0.31495984D-14  0.27062964D-14
  0.33555895D-03  0.12599108D-13 -0.10824826D-13  0.33555895D-03 -0.20765821D-17
  0.49156206D-15 -0.42267551D-15  0.67342040D-04  0.49153573D-15 -0.42274540D-15
 -0.10101306D-03 -0.19662219D-14  0.16907719D-14 -0.10101306D-03 -0.30679485D-18
MO    5     MO 0.0        OCC NO =    2.0000000  ORB. ENERGY =   -0.007684
 -0.10577789D-13 -0.19719403D-13 -0.33329266D-13 -0.50104804D-13 -0.61559541D-13
 -0.51996873D-13 -0.19611307D-13  0.97057455D-16  0.19287577D-14  0.36112430D-14
  0.61484501D-14  0.95107175D-14  0.12525280D-13  0.13014569D-13  0.82701741D-14
 -0.55424783D-14 -0.36321935D-14 -0.16351012D-12  0.69395788D-13 -0.51383573D+00
 -0.48175366D+00 -0.34303730D+00  0.52942874D-01  0.49637309D-01  0.35344721D-01
 -0.50957232D-11 -0.47775644D-11 -0.34019104D-11 -0.12721304D+00  0.13107349D-01
 -0.10947884D-11 -0.21872429D-01  0.22536176D-02 -0.17717562D-12 -0.16891781D-02
  0.17404383D-03 -0.31670774D-13  0.11265877D-12 -0.16507424D-12  0.52415466D-13
 -0.29373454D-12  0.36779479D-01 -0.37895600D-02  0.85311885D-13 -0.19253536D-13
 -0.66058349D-13 -0.11058052D-12  0.43937365D-02 -0.45270702D-03  0.12391607D-13
 -0.14786271D-14 -0.10912980D-13 -0.14663453D-13 -0.23144615D-03  0.23846968D-04
  0.30815055D-02 -0.31750177D-03 -0.50278326D-13  0.30815317D-02 -0.31750448D-03
  0.11937891D-12 -0.12326048D-01  0.12700098D-02  0.31456068D-13 -0.92781770D-13
 -0.90756640D-05  0.93510768D-06  0.12109943D-14 -0.90769958D-05  0.93524490D-06
 -0.27773700D-14  0.36303988D-04 -0.37405679D-05 -0.85561286D-15  0.20441302D-14
  0.11170987D-13  0.20816402D-13  0.35081396D-13  0.52341154D-13  0.63399748D-13
  0.52753314D-13  0.19592855D-13 -0.10401435D-15  0.62214808D-13  0.11621015D-12
  0.19779027D-12  0.30249839D-12  0.39341710D-12  0.39822729D-12  0.26221247D-12
 -0.17923669D-12 -0.23620901D-13 -0.32634046D-12 -0.18624969D-12 -0.24798645D+00
 -0.22349912D+00 -0.16227486D+00  0.25551192D-01  0.23028149D-01  0.16719930D-01
  0.32922964D-11  0.29671998D-11  0.21543795D-11 -0.59149945D-01  0.60944926D-02
  0.73720854D-12 -0.90061549D-02  0.92794583D-03  0.10143892D-12 -0.52223122D-03
  0.53807900D-04  0.69357989D-14  0.56605011D-13 -0.94756695D-13  0.38151684D-13
 -0.16006455D-12 -0.24514518D-01  0.25258443D-02  0.46344902D-13  0.12219585D-15
 -0.46467097D-13 -0.48870976D-13 -0.15082902D-02  0.15540612D-03  0.60211924D-14
  0.35617594D-15 -0.63773683D-14 -0.59878361D-14  0.18829889D-03 -0.19401306D-04
  0.15619579D-02 -0.16093576D-03  0.26390710D-13  0.15619510D-02 -0.16093505D-03
 -0.47259705D-13 -0.62478248D-02  0.64374231D-03 -0.31912425D-13  0.16157176D-13
 -0.64723645D-05  0.66687768D-06 -0.23337123D-14 -0.64719723D-05  0.66683727D-06
  0.49252084D-14  0.25889066D-04 -0.26674703D-05  0.20759284D-14 -0.30153136D-14
MO    6     MO 0.0        OCC NO =    2.0000000  ORB. ENERGY =   -0.007684
 -0.73576683D-14 -0.13716367D-13 -0.23183076D-13 -0.34851757D-13 -0.42819410D-13
 -0.36167837D-13 -0.13641177D-13  0.67510948D-16  0.12873958D-14  0.24104112D-14
  0.41039313D-14  0.63481576D-14  0.83603003D-14  0.86868875D-14  0.55201271D-14
 -0.36994608D-14 -0.25004485D-14 -0.11365517D-12  0.48178489D-13  0.52942874D-01
  0.49637309D-01  0.35344721D-01  0.51383573D+00  0.48175366D+00  0.34303730D+00
 -0.35408653D-11 -0.33197863D-11 -0.23638856D-11  0.13107349D-01  0.12721304D+00
 -0.76073218D-12  0.22536176D-02  0.21872429D-01 -0.12310838D-12  0.17404383D-03
  0.16891781D-02 -0.22008612D-13 -0.16501932D-12  0.12871419D-12  0.36305123D-13
 -0.27773639D-12 -0.37895600D-02 -0.36779479D-01 -0.32316066D-13  0.78263979D-13
 -0.45947913D-13 -0.10456614D-12 -0.45270702D-03 -0.43937365D-02 -0.35373742D-14
  0.11125942D-13 -0.75885679D-14 -0.13869507D-13  0.23846968D-04  0.23144615D-03
 -0.31750177D-03 -0.30815055D-02 -0.34934031D-13 -0.31750448D-03 -0.30815317D-02
  0.60121716D-14  0.12700098D-02  0.12326048D-01  0.98789920D-13 -0.87918853D-13
  0.93510768D-06  0.90756640D-05  0.84391809D-15  0.93524490D-06  0.90769958D-05
 -0.24349425D-15 -0.37405679D-05 -0.36303988D-04 -0.22882600D-14  0.19206746D-14
  0.77578349D-14  0.14456217D-13  0.24362725D-13  0.36348985D-13  0.44028768D-13
  0.36635215D-13  0.13606509D-13 -0.72234097D-16  0.43155183D-13  0.80608951D-13
  0.13719684D-12  0.20982743D-12  0.27289302D-12  0.27622960D-12  0.18188318D-12
 -0.12432719D-12 -0.16345549D-13 -0.22659428D-12 -0.12939813D-12  0.25551192D-01
  0.23028149D-01  0.16719930D-01  0.24798645D+00  0.22349912D+00  0.16227486D+00
  0.22876065D-11  0.20617177D-11  0.14969407D-11  0.60944926D-02  0.59149945D-01
  0.51226807D-12  0.92794583D-03  0.90061549D-02  0.70522719D-13  0.53807900D-04
  0.52223122D-03  0.48216667D-14 -0.93245275D-13  0.66817976D-13  0.26427299D-13
 -0.15136303D-12  0.25258443D-02  0.24514518D-01 -0.82858299D-14  0.40585521D-13
 -0.32299691D-13 -0.46222628D-13  0.15540612D-03  0.15082902D-02 -0.77782176D-15
  0.52100119D-14 -0.44321902D-14 -0.56651851D-14 -0.19401306D-04 -0.18829889D-03
 -0.16093576D-03 -0.15619579D-02  0.18330053D-13 -0.16093505D-03 -0.15619510D-02
 -0.19415931D-13  0.64374231D-03  0.62478248D-02 -0.35574227D-13  0.15348882D-13
  0.66687768D-06  0.64723645D-05 -0.16218617D-14  0.66683727D-06  0.64719723D-05
  0.92508701D-15 -0.26674703D-05 -0.25889066D-04  0.39404981D-14 -0.28499686D-14
END DATA
RHF
