 Molden2AIM, Version 4.0.0 (06/02/2016)           Time: Mon Jul  2 20:03:33 2018
GAUSSIAN             22 MOL ORBITALS    558 PRIMITIVES       10 NUCLEI
  O    1    (CENTRE  1)   1.67288572 -1.88868300  0.00000000  CHARGE =  8.0
  O    2    (CENTRE  2)   2.38892941  0.79862472  0.00000000  CHARGE =  8.0
  C    3    (CENTRE  3)   0.45229839  2.50884954  0.00000000  CHARGE =  6.0
  C    4    (CENTRE  4)  -2.00689103  1.95659030  0.00000000  CHARGE =  6.0
  C    5    (CENTRE  5)  -2.71653422 -0.70747945  0.00000000  CHARGE =  6.0
  C    6    (CENTRE  6)  -0.85767866 -2.40957088  0.00000000  CHARGE =  6.0
  H    7    (CENTRE  7)   1.27622087  4.39788969  0.00000000  CHARGE =  1.0
  H    8    (CENTRE  8)  -3.39235319  3.47127949  0.00000000  CHARGE =  1.0
  H    9    (CENTRE  9)  -4.67185462 -1.33240054  0.00000000  CHARGE =  1.0
  H   10    (CENTRE 10)  -1.08227072 -4.45822487  0.00000000  CHARGE =  1.0
CENTRE ASSIGNMENTS    1  1  1  1  1  1  1  1  1  1  1  1  1  1  1  1  1  1  1  1
CENTRE ASSIGNMENTS    1  1  1  1  1  1  1  1  1  1  1  1  1  1  1  1  1  1  1  1
CENTRE ASSIGNMENTS    1  1  1  1  1  1  1  1  1  1  1  1  1  1  1  1  1  1  1  1
CENTRE ASSIGNMENTS    1  1  1  1  1  1  1  1  1  1  1  1  1  1  1  2  2  2  2  2
CENTRE ASSIGNMENTS    2  2  2  2  2  2  2  2  2  2  2  2  2  2  2  2  2  2  2  2
CENTRE ASSIGNMENTS    2  2  2  2  2  2  2  2  2  2  2  2  2  2  2  2  2  2  2  2
CENTRE ASSIGNMENTS    2  2  2  2  2  2  2  2  2  2  2  2  2  2  2  2  2  2  2  2
CENTRE ASSIGNMENTS    2  2  2  2  2  2  2  2  2  2  3  3  3  3  3  3  3  3  3  3
CENTRE ASSIGNMENTS    3  3  3  3  3  3  3  3  3  3  3  3  3  3  3  3  3  3  3  3
CENTRE ASSIGNMENTS    3  3  3  3  3  3  3  3  3  3  3  3  3  3  3  3  3  3  3  3
CENTRE ASSIGNMENTS    3  3  3  3  3  3  3  3  3  3  3  3  3  3  3  3  3  3  3  3
CENTRE ASSIGNMENTS    3  3  3  3  3  4  4  4  4  4  4  4  4  4  4  4  4  4  4  4
CENTRE ASSIGNMENTS    4  4  4  4  4  4  4  4  4  4  4  4  4  4  4  4  4  4  4  4
CENTRE ASSIGNMENTS    4  4  4  4  4  4  4  4  4  4  4  4  4  4  4  4  4  4  4  4
CENTRE ASSIGNMENTS    4  4  4  4  4  4  4  4  4  4  4  4  4  4  4  4  4  4  4  4
CENTRE ASSIGNMENTS    5  5  5  5  5  5  5  5  5  5  5  5  5  5  5  5  5  5  5  5
CENTRE ASSIGNMENTS    5  5  5  5  5  5  5  5  5  5  5  5  5  5  5  5  5  5  5  5
CENTRE ASSIGNMENTS    5  5  5  5  5  5  5  5  5  5  5  5  5  5  5  5  5  5  5  5
CENTRE ASSIGNMENTS    5  5  5  5  5  5  5  5  5  5  5  5  5  5  5  6  6  6  6  6
CENTRE ASSIGNMENTS    6  6  6  6  6  6  6  6  6  6  6  6  6  6  6  6  6  6  6  6
CENTRE ASSIGNMENTS    6  6  6  6  6  6  6  6  6  6  6  6  6  6  6  6  6  6  6  6
CENTRE ASSIGNMENTS    6  6  6  6  6  6  6  6  6  6  6  6  6  6  6  6  6  6  6  6
CENTRE ASSIGNMENTS    6  6  6  6  6  6  6  6  6  6  7  7  7  7  7  7  7  7  7  7
CENTRE ASSIGNMENTS    7  7  7  7  7  7  7  7  7  7  7  7  7  7  7  7  7  8  8  8
CENTRE ASSIGNMENTS    8  8  8  8  8  8  8  8  8  8  8  8  8  8  8  8  8  8  8  8
CENTRE ASSIGNMENTS    8  8  8  8  9  9  9  9  9  9  9  9  9  9  9  9  9  9  9  9
CENTRE ASSIGNMENTS    9  9  9  9  9  9  9  9  9  9  9 10 10 10 10 10 10 10 10 10
CENTRE ASSIGNMENTS   10 10 10 10 10 10 10 10 10 10 10 10 10 10 10 10 10 10
TYPE ASSIGNMENTS      1  1  1  1  1  1  1  1  1  1  1  1  1  1  1  1  1  1  1  2
TYPE ASSIGNMENTS      2  2  3  3  3  4  4  4  2  3  4  2  3  4  2  3  4  5  6  7
TYPE ASSIGNMENTS      8  9 10  5  6  7  8  9 10  5  6  7  8  9 10 11 12 13 17 14
TYPE ASSIGNMENTS     15 18 19 16 20 11 12 13 17 14 15 18 19 16 20  1  1  1  1  1
TYPE ASSIGNMENTS      1  1  1  1  1  1  1  1  1  1  1  1  1  1  2  2  2  3  3  3
TYPE ASSIGNMENTS      4  4  4  2  3  4  2  3  4  2  3  4  5  6  7  8  9 10  5  6
TYPE ASSIGNMENTS      7  8  9 10  5  6  7  8  9 10 11 12 13 17 14 15 18 19 16 20
TYPE ASSIGNMENTS     11 12 13 17 14 15 18 19 16 20  1  1  1  1  1  1  1  1  1  1
TYPE ASSIGNMENTS      1  1  1  1  1  1  1  1  1  2  2  2  3  3  3  4  4  4  2  3
TYPE ASSIGNMENTS      4  2  3  4  2  3  4  5  6  7  8  9 10  5  6  7  8  9 10  5
TYPE ASSIGNMENTS      6  7  8  9 10 11 12 13 17 14 15 18 19 16 20 11 12 13 17 14
TYPE ASSIGNMENTS     15 18 19 16 20  1  1  1  1  1  1  1  1  1  1  1  1  1  1  1
TYPE ASSIGNMENTS      1  1  1  1  2  2  2  3  3  3  4  4  4  2  3  4  2  3  4  2
TYPE ASSIGNMENTS      3  4  5  6  7  8  9 10  5  6  7  8  9 10  5  6  7  8  9 10
TYPE ASSIGNMENTS     11 12 13 17 14 15 18 19 16 20 11 12 13 17 14 15 18 19 16 20
TYPE ASSIGNMENTS      1  1  1  1  1  1  1  1  1  1  1  1  1  1  1  1  1  1  1  2
TYPE ASSIGNMENTS      2  2  3  3  3  4  4  4  2  3  4  2  3  4  2  3  4  5  6  7
TYPE ASSIGNMENTS      8  9 10  5  6  7  8  9 10  5  6  7  8  9 10 11 12 13 17 14
TYPE ASSIGNMENTS     15 18 19 16 20 11 12 13 17 14 15 18 19 16 20  1  1  1  1  1
TYPE ASSIGNMENTS      1  1  1  1  1  1  1  1  1  1  1  1  1  1  2  2  2  3  3  3
TYPE ASSIGNMENTS      4  4  4  2  3  4  2  3  4  2  3  4  5  6  7  8  9 10  5  6
TYPE ASSIGNMENTS      7  8  9 10  5  6  7  8  9 10 11 12 13 17 14 15 18 19 16 20
TYPE ASSIGNMENTS     11 12 13 17 14 15 18 19 16 20  1  1  1  1  1  1  2  3  4  2
TYPE ASSIGNMENTS      3  4  2  3  4  5  6  7  8  9 10  5  6  7  8  9 10  1  1  1
TYPE ASSIGNMENTS      1  1  1  2  3  4  2  3  4  2  3  4  5  6  7  8  9 10  5  6
TYPE ASSIGNMENTS      7  8  9 10  1  1  1  1  1  1  2  3  4  2  3  4  2  3  4  5
TYPE ASSIGNMENTS      6  7  8  9 10  5  6  7  8  9 10  1  1  1  1  1  1  2  3  4
TYPE ASSIGNMENTS      2  3  4  2  3  4  5  6  7  8  9 10  5  6  7  8  9 10
EXPONENTS  0.1533000D+05 0.2299000D+04 0.5224000D+03 0.1473000D+03 0.4755000D+02
EXPONENTS  0.1676000D+02 0.6207000D+01 0.6882000D+00 0.1533000D+05 0.2299000D+04
EXPONENTS  0.5224000D+03 0.1473000D+03 0.4755000D+02 0.1676000D+02 0.6207000D+01
EXPONENTS  0.6882000D+00 0.1752000D+01 0.2384000D+00 0.7376000D-01 0.3446000D+02
EXPONENTS  0.7749000D+01 0.2280000D+01 0.3446000D+02 0.7749000D+01 0.2280000D+01
EXPONENTS  0.3446000D+02 0.7749000D+01 0.2280000D+01 0.7156000D+00 0.7156000D+00
EXPONENTS  0.7156000D+00 0.2140000D+00 0.2140000D+00 0.2140000D+00 0.5974000D-01
EXPONENTS  0.5974000D-01 0.5974000D-01 0.2314000D+01 0.2314000D+01 0.2314000D+01
EXPONENTS  0.2314000D+01 0.2314000D+01 0.2314000D+01 0.6450000D+00 0.6450000D+00
EXPONENTS  0.6450000D+00 0.6450000D+00 0.6450000D+00 0.6450000D+00 0.2140000D+00
EXPONENTS  0.2140000D+00 0.2140000D+00 0.2140000D+00 0.2140000D+00 0.2140000D+00
EXPONENTS  0.1428000D+01 0.1428000D+01 0.1428000D+01 0.1428000D+01 0.1428000D+01
EXPONENTS  0.1428000D+01 0.1428000D+01 0.1428000D+01 0.1428000D+01 0.1428000D+01
EXPONENTS  0.5000000D+00 0.5000000D+00 0.5000000D+00 0.5000000D+00 0.5000000D+00
EXPONENTS  0.5000000D+00 0.5000000D+00 0.5000000D+00 0.5000000D+00 0.5000000D+00
EXPONENTS  0.1533000D+05 0.2299000D+04 0.5224000D+03 0.1473000D+03 0.4755000D+02
EXPONENTS  0.1676000D+02 0.6207000D+01 0.6882000D+00 0.1533000D+05 0.2299000D+04
EXPONENTS  0.5224000D+03 0.1473000D+03 0.4755000D+02 0.1676000D+02 0.6207000D+01
EXPONENTS  0.6882000D+00 0.1752000D+01 0.2384000D+00 0.7376000D-01 0.3446000D+02
EXPONENTS  0.7749000D+01 0.2280000D+01 0.3446000D+02 0.7749000D+01 0.2280000D+01
EXPONENTS  0.3446000D+02 0.7749000D+01 0.2280000D+01 0.7156000D+00 0.7156000D+00
EXPONENTS  0.7156000D+00 0.2140000D+00 0.2140000D+00 0.2140000D+00 0.5974000D-01
EXPONENTS  0.5974000D-01 0.5974000D-01 0.2314000D+01 0.2314000D+01 0.2314000D+01
EXPONENTS  0.2314000D+01 0.2314000D+01 0.2314000D+01 0.6450000D+00 0.6450000D+00
EXPONENTS  0.6450000D+00 0.6450000D+00 0.6450000D+00 0.6450000D+00 0.2140000D+00
EXPONENTS  0.2140000D+00 0.2140000D+00 0.2140000D+00 0.2140000D+00 0.2140000D+00
EXPONENTS  0.1428000D+01 0.1428000D+01 0.1428000D+01 0.1428000D+01 0.1428000D+01
EXPONENTS  0.1428000D+01 0.1428000D+01 0.1428000D+01 0.1428000D+01 0.1428000D+01
EXPONENTS  0.5000000D+00 0.5000000D+00 0.5000000D+00 0.5000000D+00 0.5000000D+00
EXPONENTS  0.5000000D+00 0.5000000D+00 0.5000000D+00 0.5000000D+00 0.5000000D+00
EXPONENTS  0.8236000D+04 0.1235000D+04 0.2808000D+03 0.7927000D+02 0.2559000D+02
EXPONENTS  0.8997000D+01 0.3319000D+01 0.3643000D+00 0.8236000D+04 0.1235000D+04
EXPONENTS  0.2808000D+03 0.7927000D+02 0.2559000D+02 0.8997000D+01 0.3319000D+01
EXPONENTS  0.3643000D+00 0.9059000D+00 0.1285000D+00 0.4402000D-01 0.1871000D+02
EXPONENTS  0.4133000D+01 0.1200000D+01 0.1871000D+02 0.4133000D+01 0.1200000D+01
EXPONENTS  0.1871000D+02 0.4133000D+01 0.1200000D+01 0.3827000D+00 0.3827000D+00
EXPONENTS  0.3827000D+00 0.1209000D+00 0.1209000D+00 0.1209000D+00 0.3569000D-01
EXPONENTS  0.3569000D-01 0.3569000D-01 0.1097000D+01 0.1097000D+01 0.1097000D+01
EXPONENTS  0.1097000D+01 0.1097000D+01 0.1097000D+01 0.3180000D+00 0.3180000D+00
EXPONENTS  0.3180000D+00 0.3180000D+00 0.3180000D+00 0.3180000D+00 0.1000000D+00
EXPONENTS  0.1000000D+00 0.1000000D+00 0.1000000D+00 0.1000000D+00 0.1000000D+00
EXPONENTS  0.7610000D+00 0.7610000D+00 0.7610000D+00 0.7610000D+00 0.7610000D+00
EXPONENTS  0.7610000D+00 0.7610000D+00 0.7610000D+00 0.7610000D+00 0.7610000D+00
EXPONENTS  0.2680000D+00 0.2680000D+00 0.2680000D+00 0.2680000D+00 0.2680000D+00
EXPONENTS  0.2680000D+00 0.2680000D+00 0.2680000D+00 0.2680000D+00 0.2680000D+00
EXPONENTS  0.8236000D+04 0.1235000D+04 0.2808000D+03 0.7927000D+02 0.2559000D+02
EXPONENTS  0.8997000D+01 0.3319000D+01 0.3643000D+00 0.8236000D+04 0.1235000D+04
EXPONENTS  0.2808000D+03 0.7927000D+02 0.2559000D+02 0.8997000D+01 0.3319000D+01
EXPONENTS  0.3643000D+00 0.9059000D+00 0.1285000D+00 0.4402000D-01 0.1871000D+02
EXPONENTS  0.4133000D+01 0.1200000D+01 0.1871000D+02 0.4133000D+01 0.1200000D+01
EXPONENTS  0.1871000D+02 0.4133000D+01 0.1200000D+01 0.3827000D+00 0.3827000D+00
EXPONENTS  0.3827000D+00 0.1209000D+00 0.1209000D+00 0.1209000D+00 0.3569000D-01
EXPONENTS  0.3569000D-01 0.3569000D-01 0.1097000D+01 0.1097000D+01 0.1097000D+01
EXPONENTS  0.1097000D+01 0.1097000D+01 0.1097000D+01 0.3180000D+00 0.3180000D+00
EXPONENTS  0.3180000D+00 0.3180000D+00 0.3180000D+00 0.3180000D+00 0.1000000D+00
EXPONENTS  0.1000000D+00 0.1000000D+00 0.1000000D+00 0.1000000D+00 0.1000000D+00
EXPONENTS  0.7610000D+00 0.7610000D+00 0.7610000D+00 0.7610000D+00 0.7610000D+00
EXPONENTS  0.7610000D+00 0.7610000D+00 0.7610000D+00 0.7610000D+00 0.7610000D+00
EXPONENTS  0.2680000D+00 0.2680000D+00 0.2680000D+00 0.2680000D+00 0.2680000D+00
EXPONENTS  0.2680000D+00 0.2680000D+00 0.2680000D+00 0.2680000D+00 0.2680000D+00
EXPONENTS  0.8236000D+04 0.1235000D+04 0.2808000D+03 0.7927000D+02 0.2559000D+02
EXPONENTS  0.8997000D+01 0.3319000D+01 0.3643000D+00 0.8236000D+04 0.1235000D+04
EXPONENTS  0.2808000D+03 0.7927000D+02 0.2559000D+02 0.8997000D+01 0.3319000D+01
EXPONENTS  0.3643000D+00 0.9059000D+00 0.1285000D+00 0.4402000D-01 0.1871000D+02
EXPONENTS  0.4133000D+01 0.1200000D+01 0.1871000D+02 0.4133000D+01 0.1200000D+01
EXPONENTS  0.1871000D+02 0.4133000D+01 0.1200000D+01 0.3827000D+00 0.3827000D+00
EXPONENTS  0.3827000D+00 0.1209000D+00 0.1209000D+00 0.1209000D+00 0.3569000D-01
EXPONENTS  0.3569000D-01 0.3569000D-01 0.1097000D+01 0.1097000D+01 0.1097000D+01
EXPONENTS  0.1097000D+01 0.1097000D+01 0.1097000D+01 0.3180000D+00 0.3180000D+00
EXPONENTS  0.3180000D+00 0.3180000D+00 0.3180000D+00 0.3180000D+00 0.1000000D+00
EXPONENTS  0.1000000D+00 0.1000000D+00 0.1000000D+00 0.1000000D+00 0.1000000D+00
EXPONENTS  0.7610000D+00 0.7610000D+00 0.7610000D+00 0.7610000D+00 0.7610000D+00
EXPONENTS  0.7610000D+00 0.7610000D+00 0.7610000D+00 0.7610000D+00 0.7610000D+00
EXPONENTS  0.2680000D+00 0.2680000D+00 0.2680000D+00 0.2680000D+00 0.2680000D+00
EXPONENTS  0.2680000D+00 0.2680000D+00 0.2680000D+00 0.2680000D+00 0.2680000D+00
EXPONENTS  0.8236000D+04 0.1235000D+04 0.2808000D+03 0.7927000D+02 0.2559000D+02
EXPONENTS  0.8997000D+01 0.3319000D+01 0.3643000D+00 0.8236000D+04 0.1235000D+04
EXPONENTS  0.2808000D+03 0.7927000D+02 0.2559000D+02 0.8997000D+01 0.3319000D+01
EXPONENTS  0.3643000D+00 0.9059000D+00 0.1285000D+00 0.4402000D-01 0.1871000D+02
EXPONENTS  0.4133000D+01 0.1200000D+01 0.1871000D+02 0.4133000D+01 0.1200000D+01
EXPONENTS  0.1871000D+02 0.4133000D+01 0.1200000D+01 0.3827000D+00 0.3827000D+00
EXPONENTS  0.3827000D+00 0.1209000D+00 0.1209000D+00 0.1209000D+00 0.3569000D-01
EXPONENTS  0.3569000D-01 0.3569000D-01 0.1097000D+01 0.1097000D+01 0.1097000D+01
EXPONENTS  0.1097000D+01 0.1097000D+01 0.1097000D+01 0.3180000D+00 0.3180000D+00
EXPONENTS  0.3180000D+00 0.3180000D+00 0.3180000D+00 0.3180000D+00 0.1000000D+00
EXPONENTS  0.1000000D+00 0.1000000D+00 0.1000000D+00 0.1000000D+00 0.1000000D+00
EXPONENTS  0.7610000D+00 0.7610000D+00 0.7610000D+00 0.7610000D+00 0.7610000D+00
EXPONENTS  0.7610000D+00 0.7610000D+00 0.7610000D+00 0.7610000D+00 0.7610000D+00
EXPONENTS  0.2680000D+00 0.2680000D+00 0.2680000D+00 0.2680000D+00 0.2680000D+00
EXPONENTS  0.2680000D+00 0.2680000D+00 0.2680000D+00 0.2680000D+00 0.2680000D+00
EXPONENTS  0.3387000D+02 0.5095000D+01 0.1159000D+01 0.3258000D+00 0.1027000D+00
EXPONENTS  0.2526000D-01 0.1407000D+01 0.1407000D+01 0.1407000D+01 0.3880000D+00
EXPONENTS  0.3880000D+00 0.3880000D+00 0.1020000D+00 0.1020000D+00 0.1020000D+00
EXPONENTS  0.1057000D+01 0.1057000D+01 0.1057000D+01 0.1057000D+01 0.1057000D+01
EXPONENTS  0.1057000D+01 0.2470000D+00 0.2470000D+00 0.2470000D+00 0.2470000D+00
EXPONENTS  0.2470000D+00 0.2470000D+00 0.3387000D+02 0.5095000D+01 0.1159000D+01
EXPONENTS  0.3258000D+00 0.1027000D+00 0.2526000D-01 0.1407000D+01 0.1407000D+01
EXPONENTS  0.1407000D+01 0.3880000D+00 0.3880000D+00 0.3880000D+00 0.1020000D+00
EXPONENTS  0.1020000D+00 0.1020000D+00 0.1057000D+01 0.1057000D+01 0.1057000D+01
EXPONENTS  0.1057000D+01 0.1057000D+01 0.1057000D+01 0.2470000D+00 0.2470000D+00
EXPONENTS  0.2470000D+00 0.2470000D+00 0.2470000D+00 0.2470000D+00 0.3387000D+02
EXPONENTS  0.5095000D+01 0.1159000D+01 0.3258000D+00 0.1027000D+00 0.2526000D-01
EXPONENTS  0.1407000D+01 0.1407000D+01 0.1407000D+01 0.3880000D+00 0.3880000D+00
EXPONENTS  0.3880000D+00 0.1020000D+00 0.1020000D+00 0.1020000D+00 0.1057000D+01
EXPONENTS  0.1057000D+01 0.1057000D+01 0.1057000D+01 0.1057000D+01 0.1057000D+01
EXPONENTS  0.2470000D+00 0.2470000D+00 0.2470000D+00 0.2470000D+00 0.2470000D+00
EXPONENTS  0.2470000D+00 0.3387000D+02 0.5095000D+01 0.1159000D+01 0.3258000D+00
EXPONENTS  0.1027000D+00 0.2526000D-01 0.1407000D+01 0.1407000D+01 0.1407000D+01
EXPONENTS  0.3880000D+00 0.3880000D+00 0.3880000D+00 0.1020000D+00 0.1020000D+00
EXPONENTS  0.1020000D+00 0.1057000D+01 0.1057000D+01 0.1057000D+01 0.1057000D+01
EXPONENTS  0.1057000D+01 0.1057000D+01 0.2470000D+00 0.2470000D+00 0.2470000D+00
EXPONENTS  0.2470000D+00 0.2470000D+00 0.2470000D+00
MO    1     MO 0.0        OCC NO =    2.0000000  ORB. ENERGY =  -19.045524
 -0.18610419D-01 -0.34687427D-01 -0.58818383D-01 -0.89024362D-01 -0.11107641D+00
 -0.95399824D-01 -0.36625847D-01  0.16382966D-03  0.25880347D-03  0.48539231D-03
  0.82748749D-03  0.12932019D-02  0.17292573D-02  0.18464436D-02  0.11288794D-02
 -0.74476609D-03 -0.24767466D-02  0.38974255D-02  0.22403383D-03  0.26379516D-03
  0.25579257D-03  0.17255616D-03 -0.15355961D-02 -0.14890117D-02 -0.10044785D-02
 -0.41482039D-15 -0.40223625D-15 -0.27134619D-15 -0.19839984D-03  0.96729321D-03
  0.26375557D-15 -0.27352507D-03  0.34191547D-02 -0.99300684D-17  0.18204969D-03
  0.24230625D-03 -0.27148651D-17  0.18551006D-03 -0.80700486D-03  0.62149480D-03
 -0.11833486D-02  0.73943415D-17  0.47634462D-17 -0.20328650D-03  0.97313188D-03
 -0.76984537D-03  0.12378873D-02 -0.24923381D-17  0.10035938D-17 -0.27343089D-04
  0.34067807D-03 -0.31333498D-03 -0.27724211D-03  0.50737023D-17  0.34248018D-17
 -0.22654589D-03  0.56011153D-03  0.24507897D-17  0.11095479D-02 -0.10806249D-02
 -0.34507194D-17 -0.42991019D-03 -0.59970971D-03 -0.39016498D-17  0.20797102D-16
 -0.15535262D-03  0.14865370D-03 -0.69760715D-18  0.39094763D-03 -0.86447620D-04
  0.12121807D-17  0.75110242D-04 -0.35951348D-03  0.88064070D-18 -0.71812244D-17
  0.49766082D+00  0.92757574D+00  0.15728611D+01  0.23805986D+01  0.29702919D+01
  0.25510846D+01  0.97941100D+00 -0.43809655D-02 -0.57126577D-03 -0.10714231D-02
 -0.18265415D-02 -0.28545289D-02 -0.38170490D-02 -0.40757184D-02 -0.24918143D-02
  0.16439478D-02  0.53865414D-01 -0.44311016D-02 -0.20505239D-03 -0.94913314D-02
 -0.92033987D-02 -0.62085584D-02 -0.21803723D-02 -0.21142277D-02 -0.14262455D-02
  0.12580295D-16  0.12198654D-16  0.82291401D-17  0.18346597D-02  0.35868358D-03
 -0.29388679D-17  0.31969922D-02  0.21301690D-02  0.67949517D-17 -0.43294557D-04
  0.27584459D-03  0.17943892D-17  0.39346957D-03  0.50337304D-03 -0.89684261D-03
 -0.26832966D-02  0.15201850D-16  0.20050522D-16 -0.28281635D-03 -0.11097639D-02
  0.13925803D-02  0.11460975D-02 -0.37865889D-17  0.31125969D-17 -0.31286280D-03
 -0.19150117D-03  0.50436397D-03 -0.11250417D-04 -0.27017724D-17  0.32275095D-17
 -0.15604312D-03 -0.38082919D-04 -0.17019427D-17  0.44469654D-03  0.13233989D-03
  0.10611395D-16  0.23432826D-04 -0.18091133D-04 -0.55055664D-17  0.84753252D-17
 -0.28407208D-04  0.39394522D-03 -0.12212516D-18  0.73936257D-03 -0.10204173D-02
  0.68089391D-18 -0.65414095D-03 -0.16141834D-03 -0.31451845D-18 -0.56213098D-17
  0.21002541D-03  0.39153511D-03  0.66176331D-03  0.99484702D-03  0.12222845D-02
  0.10324147D-02  0.38938883D-03 -0.19271070D-05 -0.15377697D-03 -0.28791901D-03
 -0.49020675D-03 -0.75827530D-03 -0.99862189D-03 -0.10376321D-02 -0.65936863D-03
  0.44189352D-03 -0.37852351D-03  0.74269737D-02 -0.11378801D-03 -0.50136898D-03
 -0.47006529D-03 -0.33471449D-03  0.14361951D-03  0.13465242D-03  0.95880545D-04
  0.63214591D-18  0.59267697D-18  0.42202131D-18  0.42169174D-02 -0.99759984D-03
 -0.20354869D-17 -0.20391215D-02 -0.11099651D-02 -0.62262728D-17 -0.49828734D-04
 -0.49062763D-04 -0.63238012D-18  0.34409153D-03  0.18806287D-03 -0.53215440D-03
 -0.18209231D-02  0.25002427D-17 -0.22086773D-17 -0.47908139D-03  0.85017072D-03
 -0.37108933D-03 -0.11672803D-02 -0.59794952D-17  0.25838020D-17 -0.36366791D-04
  0.23178377D-04  0.13188413D-04  0.69258315D-03 -0.92238788D-18  0.78701009D-18
  0.68973275D-04  0.99737436D-04 -0.51112435D-18  0.38317835D-03 -0.53405746D-03
  0.24653950D-17 -0.59009817D-03  0.23484516D-03 -0.93202195D-18  0.47547793D-18
 -0.60896189D-04 -0.20226913D-03  0.27854681D-18 -0.14372477D-04  0.61257234D-03
 -0.45617612D-18  0.19706104D-03 -0.57649617D-05 -0.37946431D-18  0.38419455D-17
  0.75863818D-04  0.14142740D-03  0.23903723D-03  0.35935125D-03  0.44150453D-03
  0.37292116D-03  0.14065214D-03 -0.69609529D-06 -0.51001187D-04 -0.95490314D-04
 -0.16258043D-03 -0.25148720D-03 -0.33119980D-03 -0.34413781D-03 -0.21868413D-03
  0.14655702D-03 -0.66004249D-04 -0.24928789D-02  0.93850116D-04 -0.32535315D-03
 -0.30503926D-03 -0.21720613D-03 -0.15643252D-04 -0.14666543D-04 -0.10443452D-04
 -0.16781591D-17 -0.15733809D-17 -0.11203409D-17  0.19736390D-02 -0.24265703D-03
  0.17117549D-17 -0.23948717D-02 -0.86053735D-03  0.10088372D-16 -0.27761831D-04
  0.13006111D-04  0.10419866D-17  0.49837610D-04 -0.22652596D-04 -0.27185015D-04
 -0.62649816D-04  0.33322983D-17  0.42044966D-17  0.89611392D-03 -0.90154302D-03
  0.54291049D-05  0.89070824D-03 -0.63101584D-17 -0.66525679D-17 -0.32264341D-03
  0.34759363D-03 -0.24950222D-04  0.30106012D-03  0.11528903D-17 -0.30817097D-17
 -0.37269266D-04  0.41945744D-04  0.10754454D-17  0.28083431D-03  0.57780512D-05
 -0.19671864D-17 -0.16902651D-03 -0.13161528D-03 -0.12591498D-17  0.53683101D-18
  0.16472177D-03 -0.87933534D-04 -0.69856691D-18 -0.58074754D-03  0.22293616D-03
  0.20156622D-18  0.86582216D-04  0.40864445D-04  0.18941345D-17  0.26889237D-17
 -0.84669741D-04 -0.15784365D-03 -0.26678357D-03 -0.40106309D-03 -0.49275235D-03
 -0.41620813D-03 -0.15697839D-03  0.77689483D-06  0.64542374D-04  0.12084369D-03
  0.20574672D-03  0.31825889D-03  0.41913576D-03  0.43550890D-03  0.27674636D-03
 -0.18546897D-03 -0.25051986D-03  0.69331616D-03  0.53019011D-03 -0.13592254D-03
 -0.12743602D-03 -0.90742037D-04 -0.18545744D-03 -0.17387814D-03 -0.12381159D-03
  0.53936668D-18  0.50569054D-18  0.36008179D-18  0.32541596D-03 -0.96299503D-04
 -0.69669878D-18  0.67366615D-03 -0.16507944D-02 -0.92750101D-17  0.36935998D-04
 -0.26647259D-04 -0.12148416D-17 -0.32486599D-04  0.16703779D-04  0.15782820D-04
 -0.20326138D-03 -0.50715013D-17  0.17190431D-17  0.53645264D-04  0.59649620D-04
 -0.11329488D-03  0.82901294D-03  0.50904107D-17 -0.50354253D-17  0.16709759D-03
 -0.11527826D-03 -0.51819328D-04 -0.23454975D-03 -0.22542991D-17 -0.22731949D-17
  0.58969654D-04  0.16758576D-04 -0.25324129D-17  0.23534013D-05  0.11386107D-03
  0.34514261D-17 -0.17926236D-03 -0.16413680D-03  0.41458126D-17 -0.26177498D-17
 -0.10737418D-03 -0.42078829D-04  0.10598697D-17  0.23034203D-03  0.18217906D-03
  0.20552103D-17  0.91780501D-04 -0.55942567D-04 -0.52348194D-17 -0.89239327D-18
  0.69352768D-04  0.12928933D-03  0.21852174D-03  0.32850976D-03  0.40361219D-03
  0.34091502D-03  0.12858060D-03 -0.63635257D-06 -0.53973723D-04 -0.10105584D-03
 -0.17205621D-03 -0.26614480D-03 -0.35050334D-03 -0.36419542D-03 -0.23142984D-03
  0.15509890D-03  0.35539197D-03 -0.55058390D-02 -0.31448814D-03  0.16669012D-03
  0.15628258D-03  0.11128251D-03 -0.19788591D-04 -0.18553062D-04 -0.13210885D-04
 -0.10110518D-17 -0.94792528D-18 -0.67497927D-18 -0.71208213D-03  0.40951395D-03
  0.93742791D-18  0.10373878D-02 -0.98227745D-03  0.96506570D-17  0.47581071D-04
 -0.81467227D-04  0.10367719D-17 -0.82675626D-04  0.10386485D-03 -0.21189224D-04
  0.12012967D-03 -0.28994170D-17  0.56248840D-17 -0.23948373D-03 -0.56840904D-04
  0.29632463D-03 -0.59269160D-03  0.30841035D-17 -0.74892689D-17  0.20621219D-03
 -0.22265746D-03  0.16445267D-04  0.15719549D-03  0.22203781D-17 -0.71760607D-18
 -0.12868506D-03 -0.52288159D-04  0.16511071D-17  0.19946059D-03  0.59212841D-04
 -0.11220382D-16  0.18659458D-03  0.97651638D-04  0.62670610D-17 -0.53076141D-17
  0.17410563D-04  0.12978114D-03 -0.70399095D-18 -0.71085323D-04 -0.34827920D-03
  0.53668145D-17  0.18853634D-04 -0.41064223D-04 -0.32548416D-17  0.21343007D-17
  0.36264094D-04  0.65403788D-04  0.96437847D-04 -0.62294660D-03 -0.14671472D-02
  0.87056657D-04  0.59131292D-04 -0.88653369D-04 -0.12150827D-17 -0.32161550D-05
  0.95902937D-03 -0.12275001D-18 -0.19170204D-03  0.23091849D-03  0.62243801D-18
  0.47131214D-04 -0.34162178D-03  0.29449057D-03  0.72861911D-04  0.45037385D-19
 -0.18281560D-17  0.73383465D-04 -0.88885862D-04  0.15502397D-04 -0.54208421D-04
  0.30939139D-19  0.26530992D-18 -0.94639271D-05 -0.17068582D-04 -0.25167615D-04
  0.21304901D-03  0.79629930D-03 -0.55349715D-04  0.36011276D-04 -0.16075155D-04
  0.17069144D-18  0.84679137D-03 -0.37866053D-03  0.16108124D-18 -0.10377541D-03
 -0.28554004D-03  0.17708179D-17  0.21999137D-03 -0.33882690D-04 -0.18610868D-03
 -0.33629216D-03  0.47451892D-18  0.52541766D-18  0.59067226D-04 -0.14852736D-05
 -0.57581952D-04 -0.87087444D-04  0.39002387D-18 -0.11259811D-18 -0.44763639D-05
 -0.80733066D-05 -0.11904086D-04 -0.46949820D-03 -0.13338128D-02  0.48049812D-04
  0.34407466D-04  0.80223996D-04  0.10180215D-17  0.15715954D-04 -0.25159130D-03
 -0.78652153D-18 -0.10367988D-03 -0.15943965D-03 -0.78540683D-18  0.83264365D-04
 -0.11044906D-04 -0.72219460D-04  0.18095448D-05 -0.15677452D-18 -0.18530658D-17
  0.31860330D-04 -0.38386647D-04  0.65263174D-05  0.65488868D-04  0.13155389D-18
 -0.17459592D-18 -0.16235092D-05 -0.29280656D-05 -0.43174311D-05  0.11200287D-02
  0.14238299D-02 -0.10376662D-03 -0.12409480D-03 -0.28051777D-04  0.11335200D-17
  0.18172045D-03  0.39405554D-03 -0.14907802D-17  0.22638239D-03  0.89794357D-04
 -0.32972664D-17  0.17483911D-04  0.36254793D-04 -0.53738705D-04 -0.34004430D-04
 -0.22016941D-18 -0.46648327D-18 -0.59119845D-04  0.33090413D-04  0.26029432D-04
  0.10631052D-03  0.61675298D-18 -0.97884780D-18
MO    2     MO 0.0        OCC NO =    2.0000000  ORB. ENERGY =  -19.045389
  0.49763797D+00  0.92753314D+00  0.15727889D+01  0.23804892D+01  0.29701555D+01
  0.25509675D+01  0.97936602D+00 -0.43807643D-02 -0.55440516D-03 -0.10398006D-02
 -0.17726321D-02 -0.27702789D-02 -0.37043908D-02 -0.39554257D-02 -0.24182697D-02
  0.15954275D-02  0.53828989D-01 -0.41614828D-02 -0.18907903D-03 -0.71544909D-02
 -0.69374496D-02 -0.46799625D-02  0.65200216D-02  0.63222278D-02  0.42649375D-02
  0.23546139D-15  0.22831834D-15  0.15402220D-15  0.14074547D-02 -0.11556499D-02
 -0.27701951D-16  0.17002480D-02 -0.31967162D-02  0.84738842D-18 -0.16192528D-03
 -0.20056724D-03  0.50741123D-19  0.15858188D-02 -0.71695734D-03 -0.86886148D-03
  0.13646863D-02  0.74994661D-17 -0.13475338D-15 -0.10008313D-02 -0.34050441D-03
  0.13413357D-02 -0.12068431D-02  0.62649241D-17  0.61692362D-17 -0.28122225D-03
 -0.20181116D-03  0.48303341D-03  0.89690820D-04  0.13664814D-17  0.13356185D-17
 -0.75560321D-04 -0.11051010D-03  0.57492953D-17  0.20811913D-03  0.37037857D-03
  0.36848952D-18  0.18561835D-04 -0.38848258D-04 -0.17616376D-16  0.21418257D-16
  0.46424348D-03 -0.30160489D-03  0.21227900D-18 -0.90825982D-03  0.46469608D-03
 -0.22996338D-17 -0.48447061D-03  0.44011858D-03  0.16627968D-17 -0.53399966D-17
  0.17964820D-01  0.33484113D-01  0.56777961D-01  0.85936089D-01  0.10722315D+00
  0.92090385D-01  0.35355289D-01 -0.15814638D-03  0.21756602D-03  0.40805045D-03
  0.69563657D-03  0.10871446D-02  0.14537194D-02  0.15522334D-02  0.94900507D-03
 -0.62609591D-03  0.14806870D-02  0.35841187D-02  0.20951579D-03  0.29727272D-03
  0.28825454D-03  0.19445481D-03  0.10441621D-02  0.10124860D-02  0.68301705D-03
 -0.52150668D-19 -0.50568606D-19 -0.34113283D-19 -0.52041555D-03 -0.71702775D-03
 -0.69796802D-19 -0.17095406D-02 -0.26809164D-02 -0.12796728D-18  0.34287948D-04
 -0.28136762D-03 -0.81833731D-19  0.48041617D-03 -0.10366666D-02  0.55625044D-03
 -0.45700384D-03 -0.70464711D-18  0.45112769D-17 -0.46841705D-03  0.11379325D-02
 -0.66951540D-03  0.47697167D-03  0.67411362D-18 -0.43242541D-18  0.16104705D-03
  0.11621777D-03 -0.27726482D-03  0.45802954D-03 -0.12036267D-18  0.10859789D-17
  0.41572164D-03 -0.52565821D-03  0.11498368D-17 -0.11742192D-02  0.84159873D-03
  0.21715574D-17 -0.72945737D-04  0.73537592D-03 -0.56210676D-17  0.17391398D-17
 -0.55020685D-05 -0.17705359D-03 -0.49152540D-18 -0.18029413D-03  0.26818735D-03
 -0.88583586D-18  0.19680033D-03  0.26297341D-03  0.23604121D-17 -0.12538598D-17
  0.85147573D-04  0.15873443D-03  0.26828916D-03  0.40332649D-03  0.49553319D-03
  0.41855699D-03  0.15786430D-03 -0.78127922D-06 -0.65547158D-04 -0.12272496D-03
 -0.20894975D-03 -0.32321349D-03 -0.42566079D-03 -0.44228883D-03 -0.28105470D-03
  0.18835632D-03  0.32842300D-03 -0.49796397D-02 -0.32488446D-03  0.11825659D-03
  0.11087307D-03  0.78948233D-04 -0.55415414D-04 -0.51955473D-04 -0.36995392D-04
 -0.95025457D-19 -0.89092407D-19 -0.63439101D-19 -0.51429270D-03 -0.74504736D-04
  0.12115616D-19  0.12420292D-02  0.25598279D-03 -0.10068055D-17  0.78457646D-04
  0.43622673D-04  0.23089574D-19 -0.63097709D-04  0.12373892D-03 -0.60641211D-04
 -0.33534878D-04  0.55998387D-18  0.40851008D-18  0.26112848D-04 -0.29581671D-03
  0.26970386D-03  0.37327223D-03 -0.15456310D-17 -0.82739156D-18  0.29914625D-04
 -0.47369749D-04  0.17455124D-04 -0.40012846D-03  0.15799012D-18 -0.19360527D-19
 -0.52297881D-04 -0.29876608D-04 -0.81578504D-19  0.86561011D-04  0.25059239D-03
 -0.52144737D-18  0.70332632D-04 -0.16096256D-03  0.76618288D-18  0.56288222D-19
  0.10636502D-03 -0.53492703D-06  0.13644656D-18 -0.37060296D-03 -0.24337105D-04
 -0.41672835D-18  0.51507911D-04  0.25941886D-04  0.73886525D-20  0.10984977D-18
 -0.79189821D-04 -0.14762783D-03 -0.24951704D-03 -0.37510585D-03 -0.46086087D-03
 -0.38927068D-03 -0.14681858D-03  0.72661334D-06  0.60879566D-04  0.11398576D-03
  0.19407050D-03  0.30019756D-03  0.39534962D-03  0.41079358D-03  0.26104088D-03
 -0.17494353D-03 -0.25602263D-03  0.50871805D-03  0.54044453D-03 -0.49834673D-04
 -0.46723174D-04 -0.33269683D-04  0.22829489D-03  0.21404097D-03  0.15240992D-03
 -0.13352403D-17 -0.12518727D-17 -0.89140791D-18  0.47714990D-03 -0.97946396D-04
  0.22242652D-17  0.12344668D-02  0.10387372D-02 -0.37066569D-18  0.43470718D-04
  0.56529431D-05 -0.27227553D-19  0.71069024D-04 -0.85034688D-04  0.13965664D-04
  0.14135217D-03  0.11178580D-17  0.36070969D-18 -0.23817730D-03  0.35137492D-03
 -0.11319762D-03 -0.35045864D-03 -0.12827493D-17 -0.18609797D-17  0.17551879D-03
 -0.12161958D-03 -0.53899210D-04 -0.10389594D-03  0.33949417D-18  0.57527976D-19
 -0.86088231D-05 -0.40511994D-04 -0.49970646D-19  0.11224051D-03 -0.10114092D-03
  0.62276726D-19 -0.86414043D-04  0.22267691D-03  0.87635212D-19  0.15304358D-17
 -0.71855425D-04 -0.91584876D-04  0.73108152D-20  0.10123430D-03  0.26891373D-03
 -0.31124850D-18  0.11433197D-03  0.58409001D-05  0.28931605D-18  0.67076135D-18
  0.69922471D-04  0.13035138D-03  0.22031680D-03  0.33120832D-03  0.40692769D-03
  0.34371549D-03  0.12963684D-03 -0.64157994D-06 -0.46445040D-04 -0.86959769D-04
 -0.14805645D-03 -0.22902081D-03 -0.30161235D-03 -0.31339455D-03 -0.19914817D-03
  0.13346447D-03 -0.84716973D-04 -0.24488408D-02  0.13286615D-03 -0.28536556D-03
 -0.26754836D-03 -0.19051037D-03  0.16256846D-03  0.15241827D-03  0.10853089D-03
 -0.29943780D-18 -0.28074197D-18 -0.19990501D-18  0.18628056D-02 -0.78138264D-03
  0.42637009D-18 -0.16064142D-02  0.18253640D-02 -0.51313373D-18 -0.27928864D-04
  0.54236568D-06 -0.26397579D-19  0.56307393D-04 -0.30319914D-04 -0.25987479D-04
 -0.45594161D-04 -0.23436931D-17  0.83288684D-19  0.72095351D-04 -0.69013244D-04
 -0.30821069D-05 -0.19475372D-02  0.35757201D-17 -0.64383372D-18 -0.27548777D-03
  0.30431672D-03 -0.28828951D-04  0.41077285D-03  0.45641855D-18  0.74669080D-18
  0.32967281D-04 -0.12838851D-03 -0.25628358D-18 -0.43117257D-05  0.19815964D-03
  0.10972235D-17 -0.94590116D-04  0.18700588D-03 -0.32837278D-18 -0.63036660D-18
 -0.97610112D-04  0.20454223D-03  0.13095796D-18  0.23106857D-03 -0.53073400D-03
  0.15121105D-17  0.61761762D-04 -0.82892700D-04 -0.19049843D-17 -0.11005723D-17
  0.21575677D-03  0.40221968D-03  0.67982212D-03  0.10219953D-02  0.12556393D-02
  0.10605881D-02  0.40001483D-03 -0.19796957D-05 -0.15819865D-03 -0.29619779D-03
 -0.50430209D-03 -0.78007865D-03 -0.10273361D-02 -0.10674681D-02 -0.67832803D-03