 Molden2AIM, Version 4.0.0 (06/02/2016)           Time: Mon Jul  2 20:01:23 2018
GAUSSIAN             22 MOL ORBITALS    558 PRIMITIVES       10 NUCLEI
  O    1    (CENTRE  1)   2.72092216  0.00000000  0.00000000  CHARGE =  8.0
  O    2    (CENTRE  2)  -2.72092216  0.00000000  0.00000000  CHARGE =  8.0
  C    3    (CENTRE  3)  -1.25828548 -2.16068073  0.00000000  CHARGE =  6.0
  C    4    (CENTRE  4)   1.25828548 -2.16068073  0.00000000  CHARGE =  6.0
  C    5    (CENTRE  5)  -1.25828548  2.16068073  0.00000000  CHARGE =  6.0
  C    6    (CENTRE  6)   1.25828548  2.16068073  0.00000000  CHARGE =  6.0
  H    7    (CENTRE  7)  -2.36464265 -3.88818331  0.00000000  CHARGE =  1.0
  H    8    (CENTRE  8)   2.36464265 -3.88818331  0.00000000  CHARGE =  1.0
  H    9    (CENTRE  9)  -2.36464265  3.88818331  0.00000000  CHARGE =  1.0
  H   10    (CENTRE 10)   2.36464265  3.88818331  0.00000000  CHARGE =  1.0
CENTRE ASSIGNMENTS    1  1  1  1  1  1  1  1  1  1  1  1  1  1  1  1  1  1  1  1
CENTRE ASSIGNMENTS    1  1  1  1  1  1  1  1  1  1  1  1  1  1  1  1  1  1  1  1
CENTRE ASSIGNMENTS    1  1  1  1  1  1  1  1  1  1  1  1  1  1  1  1  1  1  1  1
CENTRE ASSIGNMENTS    1  1  1  1  1  1  1  1  1  1  1  1  1  1  1  2  2  2  2  2
CENTRE ASSIGNMENTS    2  2  2  2  2  2  2  2  2  2  2  2  2  2  2  2  2  2  2  2
CENTRE ASSIGNMENTS    2  2  2  2  2  2  2  2  2  2  2  2  2  2  2  2  2  2  2  2
CENTRE ASSIGNMENTS    2  2  2  2  2  2  2  2  2  2  2  2  2  2  2  2  2  2  2  2
CENTRE ASSIGNMENTS    2  2  2  2  2  2  2  2  2  2  3  3  3  3  3  3  3  3  3  3
CENTRE ASSIGNMENTS    3  3  3  3  3  3  3  3  3  3  3  3  3  3  3  3  3  3  3  3
CENTRE ASSIGNMENTS    3  3  3  3  3  3  3  3  3  3  3  3  3  3  3  3  3  3  3  3
CENTRE ASSIGNMENTS    3  3  3  3  3  3  3  3  3  3  3  3  3  3  3  3  3  3  3  3
CENTRE ASSIGNMENTS    3  3  3  3  3  4  4  4  4  4  4  4  4  4  4  4  4  4  4  4
CENTRE ASSIGNMENTS    4  4  4  4  4  4  4  4  4  4  4  4  4  4  4  4  4  4  4  4
CENTRE ASSIGNMENTS    4  4  4  4  4  4  4  4  4  4  4  4  4  4  4  4  4  4  4  4
CENTRE ASSIGNMENTS    4  4  4  4  4  4  4  4  4  4  4  4  4  4  4  4  4  4  4  4
CENTRE ASSIGNMENTS    5  5  5  5  5  5  5  5  5  5  5  5  5  5  5  5  5  5  5  5
CENTRE ASSIGNMENTS    5  5  5  5  5  5  5  5  5  5  5  5  5  5  5  5  5  5  5  5
CENTRE ASSIGNMENTS    5  5  5  5  5  5  5  5  5  5  5  5  5  5  5  5  5  5  5  5
CENTRE ASSIGNMENTS    5  5  5  5  5  5  5  5  5  5  5  5  5  5  5  6  6  6  6  6
CENTRE ASSIGNMENTS    6  6  6  6  6  6  6  6  6  6  6  6  6  6  6  6  6  6  6  6
CENTRE ASSIGNMENTS    6  6  6  6  6  6  6  6  6  6  6  6  6  6  6  6  6  6  6  6
CENTRE ASSIGNMENTS    6  6  6  6  6  6  6  6  6  6  6  6  6  6  6  6  6  6  6  6
CENTRE ASSIGNMENTS    6  6  6  6  6  6  6  6  6  6  7  7  7  7  7  7  7  7  7  7
CENTRE ASSIGNMENTS    7  7  7  7  7  7  7  7  7  7  7  7  7  7  7  7  7  8  8  8
CENTRE ASSIGNMENTS    8  8  8  8  8  8  8  8  8  8  8  8  8  8  8  8  8  8  8  8
CENTRE ASSIGNMENTS    8  8  8  8  9  9  9  9  9  9  9  9  9  9  9  9  9  9  9  9
CENTRE ASSIGNMENTS    9  9  9  9  9  9  9  9  9  9  9 10 10 10 10 10 10 10 10 10
CENTRE ASSIGNMENTS   10 10 10 10 10 10 10 10 10 10 10 10 10 10 10 10 10 10
TYPE ASSIGNMENTS      1  1  1  1  1  1  1  1  1  1  1  1  1  1  1  1  1  1  1  2
TYPE ASSIGNMENTS      2  2  3  3  3  4  4  4  2  3  4  2  3  4  2  3  4  5  6  7
TYPE ASSIGNMENTS      8  9 10  5  6  7  8  9 10  5  6  7  8  9 10 11 12 13 17 14
TYPE ASSIGNMENTS     15 18 19 16 20 11 12 13 17 14 15 18 19 16 20  1  1  1  1  1
TYPE ASSIGNMENTS      1  1  1  1  1  1  1  1  1  1  1  1  1  1  2  2  2  3  3  3
TYPE ASSIGNMENTS      4  4  4  2  3  4  2  3  4  2  3  4  5  6  7  8  9 10  5  6
TYPE ASSIGNMENTS      7  8  9 10  5  6  7  8  9 10 11 12 13 17 14 15 18 19 16 20
TYPE ASSIGNMENTS     11 12 13 17 14 15 18 19 16 20  1  1  1  1  1  1  1  1  1  1
TYPE ASSIGNMENTS      1  1  1  1  1  1  1  1  1  2  2  2  3  3  3  4  4  4  2  3
TYPE ASSIGNMENTS      4  2  3  4  2  3  4  5  6  7  8  9 10  5  6  7  8  9 10  5
TYPE ASSIGNMENTS      6  7  8  9 10 11 12 13 17 14 15 18 19 16 20 11 12 13 17 14
TYPE ASSIGNMENTS     15 18 19 16 20  1  1  1  1  1  1  1  1  1  1  1  1  1  1  1
TYPE ASSIGNMENTS      1  1  1  1  2  2  2  3  3  3  4  4  4  2  3  4  2  3  4  2
TYPE ASSIGNMENTS      3  4  5  6  7  8  9 10  5  6  7  8  9 10  5  6  7  8  9 10
TYPE ASSIGNMENTS     11 12 13 17 14 15 18 19 16 20 11 12 13 17 14 15 18 19 16 20
TYPE ASSIGNMENTS      1  1  1  1  1  1  1  1  1  1  1  1  1  1  1  1  1  1  1  2
TYPE ASSIGNMENTS      2  2  3  3  3  4  4  4  2  3  4  2  3  4  2  3  4  5  6  7
TYPE ASSIGNMENTS      8  9 10  5  6  7  8  9 10  5  6  7  8  9 10 11 12 13 17 14
TYPE ASSIGNMENTS     15 18 19 16 20 11 12 13 17 14 15 18 19 16 20  1  1  1  1  1
TYPE ASSIGNMENTS      1  1  1  1  1  1  1  1  1  1  1  1  1  1  2  2  2  3  3  3
TYPE ASSIGNMENTS      4  4  4  2  3  4  2  3  4  2  3  4  5  6  7  8  9 10  5  6
TYPE ASSIGNMENTS      7  8  9 10  5  6  7  8  9 10 11 12 13 17 14 15 18 19 16 20
TYPE ASSIGNMENTS     11 12 13 17 14 15 18 19 16 20  1  1  1  1  1  1  2  3  4  2
TYPE ASSIGNMENTS      3  4  2  3  4  5  6  7  8  9 10  5  6  7  8  9 10  1  1  1
TYPE ASSIGNMENTS      1  1  1  2  3  4  2  3  4  2  3  4  5  6  7  8  9 10  5  6
TYPE ASSIGNMENTS      7  8  9 10  1  1  1  1  1  1  2  3  4  2  3  4  2  3  4  5
TYPE ASSIGNMENTS      6  7  8  9 10  5  6  7  8  9 10  1  1  1  1  1  1  2  3  4
TYPE ASSIGNMENTS      2  3  4  2  3  4  5  6  7  8  9 10  5  6  7  8  9 10
EXPONENTS  0.1533000D+05 0.2299000D+04 0.5224000D+03 0.1473000D+03 0.4755000D+02
EXPONENTS  0.1676000D+02 0.6207000D+01 0.6882000D+00 0.1533000D+05 0.2299000D+04
EXPONENTS  0.5224000D+03 0.1473000D+03 0.4755000D+02 0.1676000D+02 0.6207000D+01
EXPONENTS  0.6882000D+00 0.1752000D+01 0.2384000D+00 0.7376000D-01 0.3446000D+02
EXPONENTS  0.7749000D+01 0.2280000D+01 0.3446000D+02 0.7749000D+01 0.2280000D+01
EXPONENTS  0.3446000D+02 0.7749000D+01 0.2280000D+01 0.7156000D+00 0.7156000D+00
EXPONENTS  0.7156000D+00 0.2140000D+00 0.2140000D+00 0.2140000D+00 0.5974000D-01
EXPONENTS  0.5974000D-01 0.5974000D-01 0.2314000D+01 0.2314000D+01 0.2314000D+01
EXPONENTS  0.2314000D+01 0.2314000D+01 0.2314000D+01 0.6450000D+00 0.6450000D+00
EXPONENTS  0.6450000D+00 0.6450000D+00 0.6450000D+00 0.6450000D+00 0.2140000D+00
EXPONENTS  0.2140000D+00 0.2140000D+00 0.2140000D+00 0.2140000D+00 0.2140000D+00
EXPONENTS  0.1428000D+01 0.1428000D+01 0.1428000D+01 0.1428000D+01 0.1428000D+01
EXPONENTS  0.1428000D+01 0.1428000D+01 0.1428000D+01 0.1428000D+01 0.1428000D+01
EXPONENTS  0.5000000D+00 0.5000000D+00 0.5000000D+00 0.5000000D+00 0.5000000D+00
EXPONENTS  0.5000000D+00 0.5000000D+00 0.5000000D+00 0.5000000D+00 0.5000000D+00
EXPONENTS  0.1533000D+05 0.2299000D+04 0.5224000D+03 0.1473000D+03 0.4755000D+02
EXPONENTS  0.1676000D+02 0.6207000D+01 0.6882000D+00 0.1533000D+05 0.2299000D+04
EXPONENTS  0.5224000D+03 0.1473000D+03 0.4755000D+02 0.1676000D+02 0.6207000D+01
EXPONENTS  0.6882000D+00 0.1752000D+01 0.2384000D+00 0.7376000D-01 0.3446000D+02
EXPONENTS  0.7749000D+01 0.2280000D+01 0.3446000D+02 0.7749000D+01 0.2280000D+01
EXPONENTS  0.3446000D+02 0.7749000D+01 0.2280000D+01 0.7156000D+00 0.7156000D+00
EXPONENTS  0.7156000D+00 0.2140000D+00 0.2140000D+00 0.2140000D+00 0.5974000D-01
EXPONENTS  0.5974000D-01 0.5974000D-01 0.2314000D+01 0.2314000D+01 0.2314000D+01
EXPONENTS  0.2314000D+01 0.2314000D+01 0.2314000D+01 0.6450000D+00 0.6450000D+00
EXPONENTS  0.6450000D+00 0.6450000D+00 0.6450000D+00 0.6450000D+00 0.2140000D+00
EXPONENTS  0.2140000D+00 0.2140000D+00 0.2140000D+00 0.2140000D+00 0.2140000D+00
EXPONENTS  0.1428000D+01 0.1428000D+01 0.1428000D+01 0.1428000D+01 0.1428000D+01
EXPONENTS  0.1428000D+01 0.1428000D+01 0.1428000D+01 0.1428000D+01 0.1428000D+01
EXPONENTS  0.5000000D+00 0.5000000D+00 0.5000000D+00 0.5000000D+00 0.5000000D+00
EXPONENTS  0.5000000D+00 0.5000000D+00 0.5000000D+00 0.5000000D+00 0.5000000D+00
EXPONENTS  0.8236000D+04 0.1235000D+04 0.2808000D+03 0.7927000D+02 0.2559000D+02
EXPONENTS  0.8997000D+01 0.3319000D+01 0.3643000D+00 0.8236000D+04 0.1235000D+04
EXPONENTS  0.2808000D+03 0.7927000D+02 0.2559000D+02 0.8997000D+01 0.3319000D+01
EXPONENTS  0.3643000D+00 0.9059000D+00 0.1285000D+00 0.4402000D-01 0.1871000D+02
EXPONENTS  0.4133000D+01 0.1200000D+01 0.1871000D+02 0.4133000D+01 0.1200000D+01
EXPONENTS  0.1871000D+02 0.4133000D+01 0.1200000D+01 0.3827000D+00 0.3827000D+00
EXPONENTS  0.3827000D+00 0.1209000D+00 0.1209000D+00 0.1209000D+00 0.3569000D-01
EXPONENTS  0.3569000D-01 0.3569000D-01 0.1097000D+01 0.1097000D+01 0.1097000D+01
EXPONENTS  0.1097000D+01 0.1097000D+01 0.1097000D+01 0.3180000D+00 0.3180000D+00
EXPONENTS  0.3180000D+00 0.3180000D+00 0.3180000D+00 0.3180000D+00 0.1000000D+00
EXPONENTS  0.1000000D+00 0.1000000D+00 0.1000000D+00 0.1000000D+00 0.1000000D+00
EXPONENTS  0.7610000D+00 0.7610000D+00 0.7610000D+00 0.7610000D+00 0.7610000D+00
EXPONENTS  0.7610000D+00 0.7610000D+00 0.7610000D+00 0.7610000D+00 0.7610000D+00
EXPONENTS  0.2680000D+00 0.2680000D+00 0.2680000D+00 0.2680000D+00 0.2680000D+00
EXPONENTS  0.2680000D+00 0.2680000D+00 0.2680000D+00 0.2680000D+00 0.2680000D+00
EXPONENTS  0.8236000D+04 0.1235000D+04 0.2808000D+03 0.7927000D+02 0.2559000D+02
EXPONENTS  0.8997000D+01 0.3319000D+01 0.3643000D+00 0.8236000D+04 0.1235000D+04
EXPONENTS  0.2808000D+03 0.7927000D+02 0.2559000D+02 0.8997000D+01 0.3319000D+01
EXPONENTS  0.3643000D+00 0.9059000D+00 0.1285000D+00 0.4402000D-01 0.1871000D+02
EXPONENTS  0.4133000D+01 0.1200000D+01 0.1871000D+02 0.4133000D+01 0.1200000D+01
EXPONENTS  0.1871000D+02 0.4133000D+01 0.1200000D+01 0.3827000D+00 0.3827000D+00
EXPONENTS  0.3827000D+00 0.1209000D+00 0.1209000D+00 0.1209000D+00 0.3569000D-01
EXPONENTS  0.3569000D-01 0.3569000D-01 0.1097000D+01 0.1097000D+01 0.1097000D+01
EXPONENTS  0.1097000D+01 0.1097000D+01 0.1097000D+01 0.3180000D+00 0.3180000D+00
EXPONENTS  0.3180000D+00 0.3180000D+00 0.3180000D+00 0.3180000D+00 0.1000000D+00
EXPONENTS  0.1000000D+00 0.1000000D+00 0.1000000D+00 0.1000000D+00 0.1000000D+00
EXPONENTS  0.7610000D+00 0.7610000D+00 0.7610000D+00 0.7610000D+00 0.7610000D+00
EXPONENTS  0.7610000D+00 0.7610000D+00 0.7610000D+00 0.7610000D+00 0.7610000D+00
EXPONENTS  0.2680000D+00 0.2680000D+00 0.2680000D+00 0.2680000D+00 0.2680000D+00
EXPONENTS  0.2680000D+00 0.2680000D+00 0.2680000D+00 0.2680000D+00 0.2680000D+00
EXPONENTS  0.8236000D+04 0.1235000D+04 0.2808000D+03 0.7927000D+02 0.2559000D+02
EXPONENTS  0.8997000D+01 0.3319000D+01 0.3643000D+00 0.8236000D+04 0.1235000D+04
EXPONENTS  0.2808000D+03 0.7927000D+02 0.2559000D+02 0.8997000D+01 0.3319000D+01
EXPONENTS  0.3643000D+00 0.9059000D+00 0.1285000D+00 0.4402000D-01 0.1871000D+02
EXPONENTS  0.4133000D+01 0.1200000D+01 0.1871000D+02 0.4133000D+01 0.1200000D+01
EXPONENTS  0.1871000D+02 0.4133000D+01 0.1200000D+01 0.3827000D+00 0.3827000D+00
EXPONENTS  0.3827000D+00 0.1209000D+00 0.1209000D+00 0.1209000D+00 0.3569000D-01
EXPONENTS  0.3569000D-01 0.3569000D-01 0.1097000D+01 0.1097000D+01 0.1097000D+01
EXPONENTS  0.1097000D+01 0.1097000D+01 0.1097000D+01 0.3180000D+00 0.3180000D+00
EXPONENTS  0.3180000D+00 0.3180000D+00 0.3180000D+00 0.3180000D+00 0.1000000D+00
EXPONENTS  0.1000000D+00 0.1000000D+00 0.1000000D+00 0.1000000D+00 0.1000000D+00
EXPONENTS  0.7610000D+00 0.7610000D+00 0.7610000D+00 0.7610000D+00 0.7610000D+00
EXPONENTS  0.7610000D+00 0.7610000D+00 0.7610000D+00 0.7610000D+00 0.7610000D+00
EXPONENTS  0.2680000D+00 0.2680000D+00 0.2680000D+00 0.2680000D+00 0.2680000D+00
EXPONENTS  0.2680000D+00 0.2680000D+00 0.2680000D+00 0.2680000D+00 0.2680000D+00
EXPONENTS  0.8236000D+04 0.1235000D+04 0.2808000D+03 0.7927000D+02 0.2559000D+02
EXPONENTS  0.8997000D+01 0.3319000D+01 0.3643000D+00 0.8236000D+04 0.1235000D+04
EXPONENTS  0.2808000D+03 0.7927000D+02 0.2559000D+02 0.8997000D+01 0.3319000D+01
EXPONENTS  0.3643000D+00 0.9059000D+00 0.1285000D+00 0.4402000D-01 0.1871000D+02
EXPONENTS  0.4133000D+01 0.1200000D+01 0.1871000D+02 0.4133000D+01 0.1200000D+01
EXPONENTS  0.1871000D+02 0.4133000D+01 0.1200000D+01 0.3827000D+00 0.3827000D+00
EXPONENTS  0.3827000D+00 0.1209000D+00 0.1209000D+00 0.1209000D+00 0.3569000D-01
EXPONENTS  0.3569000D-01 0.3569000D-01 0.1097000D+01 0.1097000D+01 0.1097000D+01
EXPONENTS  0.1097000D+01 0.1097000D+01 0.1097000D+01 0.3180000D+00 0.3180000D+00
EXPONENTS  0.3180000D+00 0.3180000D+00 0.3180000D+00 0.3180000D+00 0.1000000D+00
EXPONENTS  0.1000000D+00 0.1000000D+00 0.1000000D+00 0.1000000D+00 0.1000000D+00
EXPONENTS  0.7610000D+00 0.7610000D+00 0.7610000D+00 0.7610000D+00 0.7610000D+00
EXPONENTS  0.7610000D+00 0.7610000D+00 0.7610000D+00 0.7610000D+00 0.7610000D+00
EXPONENTS  0.2680000D+00 0.2680000D+00 0.2680000D+00 0.2680000D+00 0.2680000D+00
EXPONENTS  0.2680000D+00 0.2680000D+00 0.2680000D+00 0.2680000D+00 0.2680000D+00
EXPONENTS  0.3387000D+02 0.5095000D+01 0.1159000D+01 0.3258000D+00 0.1027000D+00
EXPONENTS  0.2526000D-01 0.1407000D+01 0.1407000D+01 0.1407000D+01 0.3880000D+00
EXPONENTS  0.3880000D+00 0.3880000D+00 0.1020000D+00 0.1020000D+00 0.1020000D+00
EXPONENTS  0.1057000D+01 0.1057000D+01 0.1057000D+01 0.1057000D+01 0.1057000D+01
EXPONENTS  0.1057000D+01 0.2470000D+00 0.2470000D+00 0.2470000D+00 0.2470000D+00
EXPONENTS  0.2470000D+00 0.2470000D+00 0.3387000D+02 0.5095000D+01 0.1159000D+01
EXPONENTS  0.3258000D+00 0.1027000D+00 0.2526000D-01 0.1407000D+01 0.1407000D+01
EXPONENTS  0.1407000D+01 0.3880000D+00 0.3880000D+00 0.3880000D+00 0.1020000D+00
EXPONENTS  0.1020000D+00 0.1020000D+00 0.1057000D+01 0.1057000D+01 0.1057000D+01
EXPONENTS  0.1057000D+01 0.1057000D+01 0.1057000D+01 0.2470000D+00 0.2470000D+00
EXPONENTS  0.2470000D+00 0.2470000D+00 0.2470000D+00 0.2470000D+00 0.3387000D+02
EXPONENTS  0.5095000D+01 0.1159000D+01 0.3258000D+00 0.1027000D+00 0.2526000D-01
EXPONENTS  0.1407000D+01 0.1407000D+01 0.1407000D+01 0.3880000D+00 0.3880000D+00
EXPONENTS  0.3880000D+00 0.1020000D+00 0.1020000D+00 0.1020000D+00 0.1057000D+01
EXPONENTS  0.1057000D+01 0.1057000D+01 0.1057000D+01 0.1057000D+01 0.1057000D+01
EXPONENTS  0.2470000D+00 0.2470000D+00 0.2470000D+00 0.2470000D+00 0.2470000D+00
EXPONENTS  0.2470000D+00 0.3387000D+02 0.5095000D+01 0.1159000D+01 0.3258000D+00
EXPONENTS  0.1027000D+00 0.2526000D-01 0.1407000D+01 0.1407000D+01 0.1407000D+01
EXPONENTS  0.3880000D+00 0.3880000D+00 0.3880000D+00 0.1020000D+00 0.1020000D+00
EXPONENTS  0.1020000D+00 0.1057000D+01 0.1057000D+01 0.1057000D+01 0.1057000D+01
EXPONENTS  0.1057000D+01 0.1057000D+01 0.2470000D+00 0.2470000D+00 0.2470000D+00
EXPONENTS  0.2470000D+00 0.2470000D+00 0.2470000D+00
MO    1     MO 0.0        OCC NO =    2.0000000  ORB. ENERGY =  -19.003018
  0.35240107D+00  0.65683025D+00  0.11137665D+01  0.16857374D+01  0.21033081D+01
  0.18064612D+01  0.69353557D+00 -0.31022272D-02 -0.61032412D-03 -0.11446780D-02
 -0.19514251D-02 -0.30496975D-02 -0.40780267D-02 -0.43543818D-02 -0.26621836D-02
  0.17563471D-02  0.38421211D-01 -0.34962890D-02  0.66754990D-02 -0.67935481D-02
 -0.65874564D-02 -0.44438592D-02 -0.16927274D-14 -0.16413762D-14 -0.11072627D-14
 -0.13919937D-15 -0.13497656D-15 -0.91054390D-16  0.13391337D-02  0.45270672D-14
  0.66056556D-16  0.48071492D-02 -0.33327893D-13 -0.15862741D-17 -0.40536646D-03
  0.26394199D-13  0.21111016D-18  0.46975473D-03  0.11620488D-02 -0.16318035D-02
  0.14872127D-13  0.12868141D-16  0.96401833D-16 -0.30689365D-03 -0.11518586D-02
  0.14587522D-02 -0.15331954D-13  0.23478384D-18 -0.99723413D-17 -0.56791165D-03
 -0.26487292D-04  0.59439895D-03  0.49165462D-13  0.53748212D-18  0.16838890D-17
 -0.24368876D-03 -0.67513518D-14 -0.13243112D-18  0.31404604D-03  0.39705161D-13
 -0.92578770D-18  0.41702023D-03 -0.19451106D-13  0.13230811D-17 -0.29117957D-17
 -0.13490870D-03  0.60139922D-14 -0.84069406D-20  0.11992725D-02 -0.23020988D-13
  0.40612876D-18 -0.79454642D-03  0.49790118D-14 -0.38090793D-18  0.39503980D-17
 -0.35240096D+00 -0.65683005D+00 -0.11137661D+01 -0.16857369D+01 -0.21033075D+01
 -0.18064606D+01 -0.69353536D+00  0.31022262D-02  0.61032406D-03  0.11446779D-02
  0.19514249D-02  0.30496972D-02  0.40780263D-02  0.43543813D-02  0.26621833D-02
 -0.17563469D-02 -0.38421199D-01  0.34962885D-02 -0.66754992D-02 -0.67935461D-02
 -0.65874545D-02 -0.44438579D-02  0.65146549D-14  0.63170238D-14  0.42614270D-14
 -0.12945277D-16 -0.12552564D-16 -0.84678858D-17  0.13391333D-02 -0.10944717D-14
  0.28820959D-17  0.48071488D-02 -0.96098537D-13  0.26438146D-17 -0.40536647D-03
  0.10070029D-13  0.17340341D-18 -0.46975474D-03 -0.11620486D-02  0.16318033D-02
  0.55408195D-13 -0.60451617D-17 -0.10957042D-17  0.30689363D-03  0.11518584D-02
 -0.14587520D-02 -0.46698525D-13  0.15054413D-17 -0.15720649D-18  0.56791163D-03
  0.26487255D-04 -0.59439889D-03  0.52081802D-15  0.74155541D-18 -0.95852203D-18
 -0.24368879D-03  0.87356738D-14  0.53517373D-18  0.31404615D-03 -0.23799008D-13
  0.90699606D-18  0.41702020D-03 -0.24080136D-14 -0.25125173D-17  0.13482117D-17
 -0.13490866D-03 -0.64692333D-14 -0.36871335D-18  0.11992723D-02  0.76363357D-14
 -0.39295635D-18 -0.79454632D-03  0.11771364D-13  0.14990964D-17  0.81333147D-18
 -0.12713344D-03 -0.23700564D-03 -0.40058128D-03 -0.60220487D-03 -0.73987826D-03
 -0.62494547D-03 -0.23570644D-03  0.11665243D-05  0.93069464D-04  0.17425540D-03
  0.29668473D-03  0.45892617D-03  0.60438962D-03  0.62799953D-03  0.39906551D-03
 -0.26744442D-03  0.22980205D-03 -0.73872548D-02  0.17860031D-02 -0.69655209D-03
 -0.65306186D-03 -0.46501895D-03  0.40139098D-03  0.37632956D-03  0.26796907D-03
 -0.10684545D-17 -0.10017440D-17 -0.71330140D-18  0.40690765D-02 -0.17811552D-02
  0.17800457D-17 -0.20529873D-02 -0.22146974D-02 -0.38962193D-18  0.93208493D-04
  0.19921101D-04 -0.44440219D-19  0.17900679D-03 -0.47451585D-03  0.29550906D-03
  0.11662484D-02 -0.20021831D-17 -0.20647771D-17  0.11461689D-02 -0.14121332D-02
  0.26596422D-03  0.11673523D-02  0.35522788D-17  0.13172925D-17 -0.60248683D-04
 -0.78014054D-05  0.68050089D-04 -0.14521744D-02  0.24098889D-18  0.29636036D-18
  0.29022238D-05  0.49749521D-04 -0.94776366D-18  0.55461963D-03 -0.58879649D-03
  0.22484073D-17 -0.56332630D-03  0.43954792D-03  0.59488365D-18  0.23758224D-18
  0.12818133D-03 -0.84567174D-04  0.12743986D-18 -0.54378306D-03  0.29016868D-03
 -0.23138587D-18  0.15923906D-03 -0.36467156D-04 -0.15093372D-18  0.33266921D-17
  0.12713354D-03  0.23700582D-03  0.40058159D-03  0.60220534D-03  0.73987884D-03
  0.62494596D-03  0.23570662D-03 -0.11665252D-05 -0.93069536D-04 -0.17425554D-03
 -0.29668496D-03 -0.45892652D-03 -0.60439008D-03 -0.62800001D-03 -0.39906581D-03
  0.26744463D-03 -0.22980203D-03  0.73872548D-02 -0.17860031D-02 -0.69655211D-03
 -0.65306188D-03 -0.46501896D-03 -0.40139106D-03 -0.37632963D-03 -0.26796912D-03
 -0.76335296D-19 -0.71569192D-19 -0.50961528D-19  0.40690767D-02  0.17811558D-02
 -0.83455923D-18 -0.20529873D-02  0.22146975D-02  0.51666494D-18  0.93208494D-04
 -0.19921100D-04 -0.12203116D-19 -0.17900678D-03  0.47451595D-03 -0.29550917D-03
  0.11662487D-02 -0.27985007D-17  0.63696923D-18 -0.11461689D-02  0.14121331D-02
 -0.26596422D-03  0.11673524D-02  0.27162512D-17 -0.34936909D-17  0.60248692D-04
  0.78013993D-05 -0.68050092D-04 -0.14521744D-02  0.28259833D-18 -0.44332848D-18
  0.29022312D-05 -0.49749514D-04  0.14385624D-17  0.55461966D-03  0.58879650D-03
 -0.91906789D-18 -0.56332636D-03 -0.43954796D-03 -0.33966193D-17 -0.78261977D-17
  0.12818134D-03  0.84567198D-04  0.62680502D-19 -0.54378308D-03 -0.29016875D-03
 -0.72260475D-18  0.15923907D-03  0.36467151D-04  0.53456324D-18  0.36028029D-17
 -0.12713344D-03 -0.23700564D-03 -0.40058128D-03 -0.60220487D-03 -0.73987826D-03
 -0.62494547D-03 -0.23570644D-03  0.11665243D-05  0.93069464D-04  0.17425540D-03
  0.29668473D-03  0.45892617D-03  0.60438962D-03  0.62799953D-03  0.39906551D-03
 -0.26744442D-03  0.22980205D-03 -0.73872548D-02  0.17860031D-02 -0.69655209D-03
 -0.65306186D-03 -0.46501895D-03 -0.40139098D-03 -0.37632956D-03 -0.26796907D-03
 -0.16199741D-17 -0.15188287D-17 -0.10814965D-17  0.40690765D-02  0.17811552D-02
  0.21347858D-17 -0.20529873D-02  0.22146974D-02 -0.21999361D-17  0.93208493D-04
 -0.19921101D-04 -0.23989819D-18  0.17900679D-03 -0.47451585D-03  0.29550906D-03
 -0.11662484D-02 -0.86049982D-18 -0.69039781D-18  0.11461689D-02 -0.14121332D-02
  0.26596422D-03 -0.11673523D-02  0.44539114D-17  0.88235789D-18 -0.60248683D-04
 -0.78014053D-05  0.68050089D-04  0.14521744D-02 -0.24105231D-18 -0.42982344D-19
  0.29022238D-05 -0.49749521D-04 -0.22854725D-18  0.55461963D-03  0.58879649D-03
  0.16126075D-17 -0.56332630D-03 -0.43954792D-03 -0.92696574D-18 -0.26402565D-17
  0.12818133D-03  0.84567174D-04  0.21995943D-18 -0.54378306D-03 -0.29016868D-03
  0.52796051D-18  0.15923906D-03  0.36467156D-04 -0.11878388D-17  0.13744243D-17
  0.12713354D-03  0.23700582D-03  0.40058159D-03  0.60220534D-03  0.73987884D-03
  0.62494596D-03  0.23570662D-03 -0.11665252D-05 -0.93069536D-04 -0.17425554D-03
 -0.29668496D-03 -0.45892652D-03 -0.60439008D-03 -0.62800001D-03 -0.39906581D-03
  0.26744463D-03 -0.22980203D-03  0.73872548D-02 -0.17860031D-02 -0.69655211D-03
 -0.65306188D-03 -0.46501896D-03  0.40139106D-03  0.37632963D-03  0.26796912D-03
 -0.10375494D-17 -0.97276854D-18 -0.69266915D-18  0.40690767D-02 -0.17811558D-02
 -0.69196382D-18 -0.20529873D-02 -0.22146975D-02  0.15045437D-17  0.93208494D-04
  0.19921100D-04  0.22985348D-18 -0.17900678D-03  0.47451595D-03 -0.29550917D-03
 -0.11662487D-02  0.16834218D-17 -0.18899086D-17 -0.11461689D-02  0.14121331D-02
 -0.26596422D-03 -0.11673524D-02  0.47893777D-17 -0.67876317D-18  0.60248693D-04
  0.78013993D-05 -0.68050092D-04  0.14521744D-02 -0.57465750D-18  0.29488597D-18
  0.29022312D-05  0.49749514D-04 -0.56182642D-18  0.55461966D-03 -0.58879650D-03
 -0.71453099D-18 -0.56332636D-03  0.43954796D-03  0.24000102D-17 -0.80739689D-17
  0.12818134D-03 -0.84567198D-04 -0.16527659D-18 -0.54378308D-03  0.29016875D-03
 -0.65001494D-18  0.15923907D-03 -0.36467151D-04  0.11458447D-17  0.21096974D-17
 -0.38155211D-04 -0.68814495D-04 -0.10146693D-03 -0.73025428D-04  0.41116913D-02
  0.41314389D-04 -0.23173448D-04 -0.43557798D-04 -0.17519407D-20  0.65004872D-03
  0.33430125D-03 -0.84468435D-18 -0.93557765D-04  0.39677864D-03  0.46718841D-18
  0.22106476D-03  0.55923730D-04 -0.27698849D-03  0.14479668D-03 -0.15525940D-17
 -0.77262958D-18  0.54817733D-04 -0.11367736D-04 -0.43449997D-04  0.16520194D-03
  0.13112955D-18 -0.18261966D-19  0.38155216D-04  0.68814503D-04  0.10146694D-03
  0.73025641D-04 -0.41116912D-02 -0.41314391D-04 -0.23173468D-04  0.43557836D-04
  0.89224291D-18  0.65004855D-03 -0.33430123D-03 -0.55066822D-18 -0.93557795D-04
 -0.39677862D-03 -0.75937257D-18 -0.22106471D-03 -0.55923782D-04  0.27698849D-03
  0.14479656D-03 -0.89593480D-18  0.39537220D-18 -0.54817728D-04  0.11367733D-04
  0.43449995D-04  0.16520193D-03  0.16124115D-17 -0.69399234D-19 -0.38155211D-04
 -0.68814495D-04 -0.10146693D-03 -0.73025427D-04  0.41116913D-02  0.41314389D-04
 -0.23173448D-04  0.43557798D-04 -0.21643418D-17  0.65004872D-03 -0.33430125D-03
  0.38543006D-17 -0.93557765D-04 -0.39677864D-03  0.31001317D-18  0.22106476D-03
  0.55923730D-04 -0.27698849D-03 -0.14479668D-03  0.19035062D-17 -0.16740336D-18
  0.54817733D-04 -0.11367736D-04 -0.43449997D-04 -0.16520194D-03  0.18738485D-18
 -0.41775712D-18  0.38155216D-04  0.68814503D-04  0.10146694D-03  0.73025641D-04
 -0.41116912D-02 -0.41314391D-04 -0.23173468D-04 -0.43557836D-04  0.43725971D-17
  0.65004855D-03  0.33430123D-03 -0.49578968D-17 -0.93557795D-04  0.39677862D-03
 -0.66241878D-18 -0.22106471D-03 -0.55923782D-04  0.27698849D-03 -0.14479656D-03
  0.12586321D-17 -0.25701936D-17 -0.54817728D-04  0.11367733D-04  0.43449995D-04
 -0.16520193D-03  0.12829200D-18  0.76757582D-18
MO    2     MO 0.0        OCC NO =    2.0000000  ORB. ENERGY =  -19.003004
  0.35183431D+00  0.65577388D+00  0.11119752D+01  0.16830263D+01  0.20999254D+01
  0.18035559D+01  0.69242016D+00 -0.30972379D-02 -0.20807243D-03 -0.39024501D-03
 -0.66528219D-03 -0.10397066D-02 -0.13902858D-02 -0.14845011D-02 -0.90759485D-03
  0.59877596D-03  0.38037513D-01 -0.14726582D-02 -0.71021146D-03 -0.64211864D-02
 -0.62263909D-02 -0.42002865D-02  0.12439323D-13  0.12061959D-13  0.81369262D-14
  0.82941912D-17  0.80425755D-17  0.54254739D-17  0.11794134D-02 -0.20834854D-14
 -0.41169838D-17  0.11986575D-02 -0.34842911D-13  0.29240714D-17  0.34156958D-04
 -0.51998149D-15 -0.23468619D-18 -0.21914313D-04  0.71169310D-03 -0.68977879D-03
 -0.34367191D-13  0.19582900D-16  0.84006641D-16 -0.70679995D-04 -0.58757760D-03
  0.65825759D-03  0.39005511D-13 -0.14342934D-17 -0.47843799D-17 -0.73817574D-04
 -0.11650092D-03  0.19031849D-03  0.46526968D-13 -0.83331995D-18 -0.27510761D-17
  0.90784627D-04 -0.28655840D-14  0.14193788D-17 -0.37711304D-03  0.15523741D-13
 -0.22443310D-17  0.10475916D-03 -0.69269889D-14 -0.20138053D-17 -0.10527999D-16
 -0.15431830D-03  0.24769665D-14 -0.14360860D-18  0.79303580D-03 -0.19009252D-13
  0.89474789D-19 -0.33008090D-03  0.11578353D-13  0.34135100D-18  0.15535103D-17
  0.35183442D+00  0.65577408D+00  0.11119756D+01  0.16830268D+01  0.20999261D+01
  0.18035564D+01  0.69242038D+00 -0.30972389D-02 -0.20807263D-03 -0.39024537D-03
 -0.66528280D-03 -0.10397075D-02 -0.13902871D-02 -0.14845024D-02 -0.90759569D-03
  0.59877651D-03  0.38037525D-01 -0.14726593D-02 -0.71020936D-03  0.64211886D-02
  0.62263930D-02  0.42002879D-02  0.33411401D-14  0.32397820D-14  0.21855378D-14
  0.12409661D-16  0.12033197D-16  0.81175238D-17 -0.11794138D-02 -0.16072370D-13
 -0.25159809D-17 -0.11986590D-02 -0.71604988D-14 -0.35462894D-17 -0.34156831D-04
  0.37372557D-13 -0.16177084D-18 -0.21914165D-04  0.71169347D-03 -0.68977930D-03
  0.15576736D-13  0.66130111D-17 -0.31467233D-18 -0.70680091D-04 -0.58757796D-03
  0.65825805D-03 -0.13410637D-13 -0.17901358D-17  0.10149954D-17 -0.73817753D-04
 -0.11650093D-03  0.19031868D-03  0.11402981D-13 -0.11572288D-17  0.12299451D-17
 -0.90784551D-04 -0.41951225D-14 -0.87449757D-18  0.37711294D-03  0.14529177D-14
 -0.13709884D-18 -0.10475929D-03  0.11132450D-13  0.27605915D-17 -0.14362831D-17
  0.15431834D-03  0.28554330D-14  0.52833128D-18 -0.79303618D-03 -0.48290182D-15
  0.73517894D-19  0.33008115D-03 -0.80833971D-14 -0.16585117D-17 -0.51059309D-18
  0.31262882D-03  0.58281121D-03  0.98505361D-03  0.14808582D-02  0.18194054D-02
  0.15367788D-02  0.57961640D-03 -0.28685539D-05 -0.22611099D-03 -0.42335112D-03
 -0.72079151D-03 -0.11149549D-02 -0.14683563D-02 -0.15257163D-02 -0.96952421D-03
  0.64975258D-03  0.48982318D-04 -0.26141767D-03  0.95176974D-04  0.50072294D-04
  0.46945959D-04  0.33428319D-04 -0.24400178D-03 -0.22876718D-03 -0.16289586D-03
  0.11088824D-17  0.10396477D-17  0.74029113D-18 -0.63662188D-03  0.17052820D-02
 -0.22308735D-17  0.20671904D-03  0.28446641D-03  0.13470761D-17 -0.19125478D-05
  0.50604054D-05  0.29074777D-19  0.42667897D-04  0.30721143D-03 -0.34987933D-03
 -0.11255955D-02  0.21589729D-17  0.17705752D-17  0.79716725D-04 -0.73706049D-04
 -0.60106770D-05 -0.32128476D-03 -0.48451091D-17 -0.11857165D-17  0.29455755D-04
 -0.19255273D-04 -0.10200482D-04  0.18428605D-04 -0.33809774D-19 -0.47039336D-19
 -0.23525054D-04  0.24360976D-04  0.10407933D-17 -0.98550076D-04  0.35992123D-04
 -0.26560538D-17  0.16912524D-03 -0.10907505D-03 -0.46632599D-18 -0.55444766D-18
 -0.63537031D-05  0.78150184D-04 -0.27027107D-18  0.68742401D-04 -0.21804110D-03
  0.99655074D-19 -0.49681292D-04 -0.16409455D-04  0.71115814D-18 -0.35258800D-17
  0.31262878D-03  0.58281113D-03  0.98505348D-03  0.14808581D-02  0.18194052D-02
  0.15367786D-02  0.57961633D-03 -0.28685536D-05 -0.22611097D-03 -0.42335107D-03
 -0.72079142D-03 -0.11149547D-02 -0.14683561D-02 -0.15257161D-02 -0.96952409D-03
  0.64975250D-03  0.48982391D-04 -0.26141999D-03  0.95177534D-04 -0.50072075D-04
 -0.46945753D-04 -0.33428173D-04 -0.24400165D-03 -0.22876706D-03 -0.16289577D-03
  0.55362220D-18  0.51905601D-18  0.36959880D-18  0.63662060D-03  0.17052814D-02
 -0.28351827D-19 -0.20671839D-03  0.28446571D-03 -0.13392111D-17  0.19125186D-05
  0.50604117D-05  0.46622685D-19  0.42667953D-04  0.30721128D-03 -0.34987924D-03
  0.11255951D-02  0.24727763D-17 -0.16786064D-17  0.79717086D-04 -0.73706493D-04
 -0.60105932D-05  0.32128439D-03 -0.47161082D-17  0.91040855D-18  0.29455736D-04
 -0.19255275D-04 -0.10200461D-04 -0.18428149D-04 -0.61235501D-19  0.85340514D-19
  0.23525053D-04  0.24360992D-04 -0.10880523D-17  0.98549902D-04  0.35991937D-04
  0.11177568D-17 -0.16912506D-03 -0.10907491D-03  0.21464001D-17  0.51929739D-17
  0.63536628D-05  0.78150158D-04  0.51800788D-19 -0.68742230D-04 -0.21804101D-03
  0.94075516D-18  0.49681242D-04 -0.16409467D-04 -0.10961575D-17 -0.48068147D-17
  0.31262882D-03  0.58281121D-03  0.98505361D-03  0.14808582D-02  0.18194054D-02
  0.15367788D-02  0.57961640D-03 -0.28685539D-05 -0.22611099D-03 -0.42335112D-03
 -0.72079151D-03 -0.11149549D-02 -0.14683563D-02 -0.15257163D-02 -0.96952421D-03
  0.64975258D-03  0.48982318D-04 -0.26141767D-03  0.95176974D-04  0.50072294D-04
  0.46945959D-04  0.33428319D-04  0.24400178D-03  0.22876718D-03  0.16289586D-03
  0.10128419D-17  0.94960363D-18  0.67617435D-18 -0.63662188D-03 -0.17052820D-02
 -0.10495432D-17  0.20671904D-03 -0.28446641D-03  0.21751929D-17 -0.19125478D-05
 -0.50604054D-05  0.24245602D-18  0.42667897D-04  0.30721143D-03 -0.34987933D-03
  0.11255955D-02  0.49623113D-18  0.12566902D-17  0.79716725D-04 -0.73706049D-04
 -0.60106769D-05  0.32128476D-03 -0.29855906D-17 -0.22169379D-17  0.29455755D-04
 -0.19255273D-04 -0.10200482D-04 -0.18428605D-04  0.39906317D-18 -0.51219421D-19
 -0.23525054D-04 -0.24360976D-04  0.10809350D-18 -0.98550076D-04 -0.35992123D-04
 -0.13156228D-17  0.16912524D-03  0.10907505D-03  0.99134234D-18  0.18944109D-17
 -0.63537031D-05 -0.78150184D-04 -0.13815726D-18  0.68742401D-04  0.21804110D-03
 -0.35251436D-18 -0.49681292D-04  0.16409455D-04  0.76698615D-18 -0.16710014D-17
  0.31262878D-03  0.58281113D-03  0.98505348D-03  0.14808581D-02  0.18194052D-02
  0.15367786D-02  0.57961633D-03 -0.28685536D-05 -0.22611097D-03 -0.42335107D-03
 -0.72079142D-03 -0.11149547D-02 -0.14683561D-02 -0.15257161D-02 -0.96952409D-03