 Molden2AIM, Version 4.0.0 (06/02/2016)           Time: Mon Jul  2 19:59:43 2018
GAUSSIAN             18 MOL ORBITALS    537 PRIMITIVES       11 NUCLEI
  H    1    (CENTRE  1)  -1.66482037  0.00000000  3.54469346  CHARGE =  1.0
  H    2    (CENTRE  2)   1.66482037  0.00000000  3.54469346  CHARGE =  1.0
  H    3    (CENTRE  3)   0.00000000  4.18335664  1.15925249  CHARGE =  1.0
  H    4    (CENTRE  4)   0.00000000 -4.18335664  1.15925249  CHARGE =  1.0
  H    5    (CENTRE  5)   0.00000000  2.55712259 -3.56595855  CHARGE =  1.0
  H    6    (CENTRE  6)   0.00000000 -2.55712259 -3.56595855  CHARGE =  1.0
  C    7    (CENTRE  7)   0.00000000  0.00000000  2.28897045  CHARGE =  6.0
  C    8    (CENTRE  8)   0.00000000 -2.22252390  0.53771968  CHARGE =  6.0
  C    9    (CENTRE  9)   0.00000000  2.22252390  0.53771968  CHARGE =  6.0
  C   10    (CENTRE 10)   0.00000000 -1.38392959 -1.87363322  CHARGE =  6.0
  C   11    (CENTRE 11)   0.00000000  1.38392959 -1.87363322  CHARGE =  6.0
CENTRE ASSIGNMENTS    1  1  1  1  1  1  1  1  1  1  1  1  1  1  1  1  1  1  1  1
CENTRE ASSIGNMENTS    1  1  1  1  1  1  1  2  2  2  2  2  2  2  2  2  2  2  2  2
CENTRE ASSIGNMENTS    2  2  2  2  2  2  2  2  2  2  2  2  2  2  3  3  3  3  3  3
CENTRE ASSIGNMENTS    3  3  3  3  3  3  3  3  3  3  3  3  3  3  3  3  3  3  3  3
CENTRE ASSIGNMENTS    3  4  4  4  4  4  4  4  4  4  4  4  4  4  4  4  4  4  4  4
CENTRE ASSIGNMENTS    4  4  4  4  4  4  4  4  5  5  5  5  5  5  5  5  5  5  5  5
CENTRE ASSIGNMENTS    5  5  5  5  5  5  5  5  5  5  5  5  5  5  5  6  6  6  6  6
CENTRE ASSIGNMENTS    6  6  6  6  6  6  6  6  6  6  6  6  6  6  6  6  6  6  6  6
CENTRE ASSIGNMENTS    6  6  7  7  7  7  7  7  7  7  7  7  7  7  7  7  7  7  7  7
CENTRE ASSIGNMENTS    7  7  7  7  7  7  7  7  7  7  7  7  7  7  7  7  7  7  7  7
CENTRE ASSIGNMENTS    7  7  7  7  7  7  7  7  7  7  7  7  7  7  7  7  7  7  7  7
CENTRE ASSIGNMENTS    7  7  7  7  7  7  7  7  7  7  7  7  7  7  7  7  7  8  8  8
CENTRE ASSIGNMENTS    8  8  8  8  8  8  8  8  8  8  8  8  8  8  8  8  8  8  8  8
CENTRE ASSIGNMENTS    8  8  8  8  8  8  8  8  8  8  8  8  8  8  8  8  8  8  8  8
CENTRE ASSIGNMENTS    8  8  8  8  8  8  8  8  8  8  8  8  8  8  8  8  8  8  8  8
CENTRE ASSIGNMENTS    8  8  8  8  8  8  8  8  8  8  8  8  9  9  9  9  9  9  9  9
CENTRE ASSIGNMENTS    9  9  9  9  9  9  9  9  9  9  9  9  9  9  9  9  9  9  9  9
CENTRE ASSIGNMENTS    9  9  9  9  9  9  9  9  9  9  9  9  9  9  9  9  9  9  9  9
CENTRE ASSIGNMENTS    9  9  9  9  9  9  9  9  9  9  9  9  9  9  9  9  9  9  9  9
CENTRE ASSIGNMENTS    9  9  9  9  9  9  9 10 10 10 10 10 10 10 10 10 10 10 10 10
CENTRE ASSIGNMENTS   10 10 10 10 10 10 10 10 10 10 10 10 10 10 10 10 10 10 10 10
CENTRE ASSIGNMENTS   10 10 10 10 10 10 10 10 10 10 10 10 10 10 10 10 10 10 10 10
CENTRE ASSIGNMENTS   10 10 10 10 10 10 10 10 10 10 10 10 10 10 10 10 10 10 10 10
CENTRE ASSIGNMENTS   10 10 11 11 11 11 11 11 11 11 11 11 11 11 11 11 11 11 11 11
CENTRE ASSIGNMENTS   11 11 11 11 11 11 11 11 11 11 11 11 11 11 11 11 11 11 11 11
CENTRE ASSIGNMENTS   11 11 11 11 11 11 11 11 11 11 11 11 11 11 11 11 11 11 11 11
CENTRE ASSIGNMENTS   11 11 11 11 11 11 11 11 11 11 11 11 11 11 11 11 11
TYPE ASSIGNMENTS      1  1  1  1  1  1  2  3  4  2  3  4  2  3  4  5  6  7  8  9
TYPE ASSIGNMENTS     10  5  6  7  8  9 10  1  1  1  1  1  1  2  3  4  2  3  4  2
TYPE ASSIGNMENTS      3  4  5  6  7  8  9 10  5  6  7  8  9 10  1  1  1  1  1  1
TYPE ASSIGNMENTS      2  3  4  2  3  4  2  3  4  5  6  7  8  9 10  5  6  7  8  9
TYPE ASSIGNMENTS     10  1  1  1  1  1  1  2  3  4  2  3  4  2  3  4  5  6  7  8
TYPE ASSIGNMENTS      9 10  5  6  7  8  9 10  1  1  1  1  1  1  2  3  4  2  3  4
TYPE ASSIGNMENTS      2  3  4  5  6  7  8  9 10  5  6  7  8  9 10  1  1  1  1  1
TYPE ASSIGNMENTS      1  2  3  4  2  3  4  2  3  4  5  6  7  8  9 10  5  6  7  8
TYPE ASSIGNMENTS      9 10  1  1  1  1  1  1  1  1  1  1  1  1  1  1  1  1  1  1
TYPE ASSIGNMENTS      1  2  2  2  3  3  3  4  4  4  2  3  4  2  3  4  2  3  4  5
TYPE ASSIGNMENTS      6  7  8  9 10  5  6  7  8  9 10  5  6  7  8  9 10 11 12 13
TYPE ASSIGNMENTS     17 14 15 18 19 16 20 11 12 13 17 14 15 18 19 16 20  1  1  1
TYPE ASSIGNMENTS      1  1  1  1  1  1  1  1  1  1  1  1  1  1  1  1  2  2  2  3
TYPE ASSIGNMENTS      3  3  4  4  4  2  3  4  2  3  4  2  3  4  5  6  7  8  9 10
TYPE ASSIGNMENTS      5  6  7  8  9 10  5  6  7  8  9 10 11 12 13 17 14 15 18 19
TYPE ASSIGNMENTS     16 20 11 12 13 17 14 15 18 19 16 20  1  1  1  1  1  1  1  1
TYPE ASSIGNMENTS      1  1  1  1  1  1  1  1  1  1  1  2  2  2  3  3  3  4  4  4
TYPE ASSIGNMENTS      2  3  4  2  3  4  2  3  4  5  6  7  8  9 10  5  6  7  8  9
TYPE ASSIGNMENTS     10  5  6  7  8  9 10 11 12 13 17 14 15 18 19 16 20 11 12 13
TYPE ASSIGNMENTS     17 14 15 18 19 16 20  1  1  1  1  1  1  1  1  1  1  1  1  1
TYPE ASSIGNMENTS      1  1  1  1  1  1  2  2  2  3  3  3  4  4  4  2  3  4  2  3
TYPE ASSIGNMENTS      4  2  3  4  5  6  7  8  9 10  5  6  7  8  9 10  5  6  7  8
TYPE ASSIGNMENTS      9 10 11 12 13 17 14 15 18 19 16 20 11 12 13 17 14 15 18 19
TYPE ASSIGNMENTS     16 20  1  1  1  1  1  1  1  1  1  1  1  1  1  1  1  1  1  1
TYPE ASSIGNMENTS      1  2  2  2  3  3  3  4  4  4  2  3  4  2  3  4  2  3  4  5
TYPE ASSIGNMENTS      6  7  8  9 10  5  6  7  8  9 10  5  6  7  8  9 10 11 12 13
TYPE ASSIGNMENTS     17 14 15 18 19 16 20 11 12 13 17 14 15 18 19 16 20
EXPONENTS  0.3387000D+02 0.5095000D+01 0.1159000D+01 0.3258000D+00 0.1027000D+00
EXPONENTS  0.2526000D-01 0.1407000D+01 0.1407000D+01 0.1407000D+01 0.3880000D+00
EXPONENTS  0.3880000D+00 0.3880000D+00 0.1020000D+00 0.1020000D+00 0.1020000D+00
EXPONENTS  0.1057000D+01 0.1057000D+01 0.1057000D+01 0.1057000D+01 0.1057000D+01
EXPONENTS  0.1057000D+01 0.2470000D+00 0.2470000D+00 0.2470000D+00 0.2470000D+00
EXPONENTS  0.2470000D+00 0.2470000D+00 0.3387000D+02 0.5095000D+01 0.1159000D+01
EXPONENTS  0.3258000D+00 0.1027000D+00 0.2526000D-01 0.1407000D+01 0.1407000D+01
EXPONENTS  0.1407000D+01 0.3880000D+00 0.3880000D+00 0.3880000D+00 0.1020000D+00
EXPONENTS  0.1020000D+00 0.1020000D+00 0.1057000D+01 0.1057000D+01 0.1057000D+01
EXPONENTS  0.1057000D+01 0.1057000D+01 0.1057000D+01 0.2470000D+00 0.2470000D+00
EXPONENTS  0.2470000D+00 0.2470000D+00 0.2470000D+00 0.2470000D+00 0.3387000D+02
EXPONENTS  0.5095000D+01 0.1159000D+01 0.3258000D+00 0.1027000D+00 0.2526000D-01
EXPONENTS  0.1407000D+01 0.1407000D+01 0.1407000D+01 0.3880000D+00 0.3880000D+00
EXPONENTS  0.3880000D+00 0.1020000D+00 0.1020000D+00 0.1020000D+00 0.1057000D+01
EXPONENTS  0.1057000D+01 0.1057000D+01 0.1057000D+01 0.1057000D+01 0.1057000D+01
EXPONENTS  0.2470000D+00 0.2470000D+00 0.2470000D+00 0.2470000D+00 0.2470000D+00
EXPONENTS  0.2470000D+00 0.3387000D+02 0.5095000D+01 0.1159000D+01 0.3258000D+00
EXPONENTS  0.1027000D+00 0.2526000D-01 0.1407000D+01 0.1407000D+01 0.1407000D+01
EXPONENTS  0.3880000D+00 0.3880000D+00 0.3880000D+00 0.1020000D+00 0.1020000D+00
EXPONENTS  0.1020000D+00 0.1057000D+01 0.1057000D+01 0.1057000D+01 0.1057000D+01
EXPONENTS  0.1057000D+01 0.1057000D+01 0.2470000D+00 0.2470000D+00 0.2470000D+00
EXPONENTS  0.2470000D+00 0.2470000D+00 0.2470000D+00 0.3387000D+02 0.5095000D+01
EXPONENTS  0.1159000D+01 0.3258000D+00 0.1027000D+00 0.2526000D-01 0.1407000D+01
EXPONENTS  0.1407000D+01 0.1407000D+01 0.3880000D+00 0.3880000D+00 0.3880000D+00
EXPONENTS  0.1020000D+00 0.1020000D+00 0.1020000D+00 0.1057000D+01 0.1057000D+01
EXPONENTS  0.1057000D+01 0.1057000D+01 0.1057000D+01 0.1057000D+01 0.2470000D+00
EXPONENTS  0.2470000D+00 0.2470000D+00 0.2470000D+00 0.2470000D+00 0.2470000D+00
EXPONENTS  0.3387000D+02 0.5095000D+01 0.1159000D+01 0.3258000D+00 0.1027000D+00
EXPONENTS  0.2526000D-01 0.1407000D+01 0.1407000D+01 0.1407000D+01 0.3880000D+00
EXPONENTS  0.3880000D+00 0.3880000D+00 0.1020000D+00 0.1020000D+00 0.1020000D+00
EXPONENTS  0.1057000D+01 0.1057000D+01 0.1057000D+01 0.1057000D+01 0.1057000D+01
EXPONENTS  0.1057000D+01 0.2470000D+00 0.2470000D+00 0.2470000D+00 0.2470000D+00
EXPONENTS  0.2470000D+00 0.2470000D+00 0.8236000D+04 0.1235000D+04 0.2808000D+03
EXPONENTS  0.7927000D+02 0.2559000D+02 0.8997000D+01 0.3319000D+01 0.3643000D+00
EXPONENTS  0.8236000D+04 0.1235000D+04 0.2808000D+03 0.7927000D+02 0.2559000D+02
EXPONENTS  0.8997000D+01 0.3319000D+01 0.3643000D+00 0.9059000D+00 0.1285000D+00
EXPONENTS  0.4402000D-01 0.1871000D+02 0.4133000D+01 0.1200000D+01 0.1871000D+02
EXPONENTS  0.4133000D+01 0.1200000D+01 0.1871000D+02 0.4133000D+01 0.1200000D+01
EXPONENTS  0.3827000D+00 0.3827000D+00 0.3827000D+00 0.1209000D+00 0.1209000D+00
EXPONENTS  0.1209000D+00 0.3569000D-01 0.3569000D-01 0.3569000D-01 0.1097000D+01
EXPONENTS  0.1097000D+01 0.1097000D+01 0.1097000D+01 0.1097000D+01 0.1097000D+01
EXPONENTS  0.3180000D+00 0.3180000D+00 0.3180000D+00 0.3180000D+00 0.3180000D+00
EXPONENTS  0.3180000D+00 0.1000000D+00 0.1000000D+00 0.1000000D+00 0.1000000D+00
EXPONENTS  0.1000000D+00 0.1000000D+00 0.7610000D+00 0.7610000D+00 0.7610000D+00
EXPONENTS  0.7610000D+00 0.7610000D+00 0.7610000D+00 0.7610000D+00 0.7610000D+00
EXPONENTS  0.7610000D+00 0.7610000D+00 0.2680000D+00 0.2680000D+00 0.2680000D+00
EXPONENTS  0.2680000D+00 0.2680000D+00 0.2680000D+00 0.2680000D+00 0.2680000D+00
EXPONENTS  0.2680000D+00 0.2680000D+00 0.8236000D+04 0.1235000D+04 0.2808000D+03
EXPONENTS  0.7927000D+02 0.2559000D+02 0.8997000D+01 0.3319000D+01 0.3643000D+00
EXPONENTS  0.8236000D+04 0.1235000D+04 0.2808000D+03 0.7927000D+02 0.2559000D+02
EXPONENTS  0.8997000D+01 0.3319000D+01 0.3643000D+00 0.9059000D+00 0.1285000D+00
EXPONENTS  0.4402000D-01 0.1871000D+02 0.4133000D+01 0.1200000D+01 0.1871000D+02
EXPONENTS  0.4133000D+01 0.1200000D+01 0.1871000D+02 0.4133000D+01 0.1200000D+01
EXPONENTS  0.3827000D+00 0.3827000D+00 0.3827000D+00 0.1209000D+00 0.1209000D+00
EXPONENTS  0.1209000D+00 0.3569000D-01 0.3569000D-01 0.3569000D-01 0.1097000D+01
EXPONENTS  0.1097000D+01 0.1097000D+01 0.1097000D+01 0.1097000D+01 0.1097000D+01
EXPONENTS  0.3180000D+00 0.3180000D+00 0.3180000D+00 0.3180000D+00 0.3180000D+00
EXPONENTS  0.3180000D+00 0.1000000D+00 0.1000000D+00 0.1000000D+00 0.1000000D+00
EXPONENTS  0.1000000D+00 0.1000000D+00 0.7610000D+00 0.7610000D+00 0.7610000D+00
EXPONENTS  0.7610000D+00 0.7610000D+00 0.7610000D+00 0.7610000D+00 0.7610000D+00
EXPONENTS  0.7610000D+00 0.7610000D+00 0.2680000D+00 0.2680000D+00 0.2680000D+00
EXPONENTS  0.2680000D+00 0.2680000D+00 0.2680000D+00 0.2680000D+00 0.2680000D+00
EXPONENTS  0.2680000D+00 0.2680000D+00 0.8236000D+04 0.1235000D+04 0.2808000D+03
EXPONENTS  0.7927000D+02 0.2559000D+02 0.8997000D+01 0.3319000D+01 0.3643000D+00
EXPONENTS  0.8236000D+04 0.1235000D+04 0.2808000D+03 0.7927000D+02 0.2559000D+02
EXPONENTS  0.8997000D+01 0.3319000D+01 0.3643000D+00 0.9059000D+00 0.1285000D+00
EXPONENTS  0.4402000D-01 0.1871000D+02 0.4133000D+01 0.1200000D+01 0.1871000D+02
EXPONENTS  0.4133000D+01 0.1200000D+01 0.1871000D+02 0.4133000D+01 0.1200000D+01
EXPONENTS  0.3827000D+00 0.3827000D+00 0.3827000D+00 0.1209000D+00 0.1209000D+00
EXPONENTS  0.1209000D+00 0.3569000D-01 0.3569000D-01 0.3569000D-01 0.1097000D+01
EXPONENTS  0.1097000D+01 0.1097000D+01 0.1097000D+01 0.1097000D+01 0.1097000D+01
EXPONENTS  0.3180000D+00 0.3180000D+00 0.3180000D+00 0.3180000D+00 0.3180000D+00
EXPONENTS  0.3180000D+00 0.1000000D+00 0.1000000D+00 0.1000000D+00 0.1000000D+00
EXPONENTS  0.1000000D+00 0.1000000D+00 0.7610000D+00 0.7610000D+00 0.7610000D+00
EXPONENTS  0.7610000D+00 0.7610000D+00 0.7610000D+00 0.7610000D+00 0.7610000D+00
EXPONENTS  0.7610000D+00 0.7610000D+00 0.2680000D+00 0.2680000D+00 0.2680000D+00
EXPONENTS  0.2680000D+00 0.2680000D+00 0.2680000D+00 0.2680000D+00 0.2680000D+00
EXPONENTS  0.2680000D+00 0.2680000D+00 0.8236000D+04 0.1235000D+04 0.2808000D+03
EXPONENTS  0.7927000D+02 0.2559000D+02 0.8997000D+01 0.3319000D+01 0.3643000D+00
EXPONENTS  0.8236000D+04 0.1235000D+04 0.2808000D+03 0.7927000D+02 0.2559000D+02
EXPONENTS  0.8997000D+01 0.3319000D+01 0.3643000D+00 0.9059000D+00 0.1285000D+00
EXPONENTS  0.4402000D-01 0.1871000D+02 0.4133000D+01 0.1200000D+01 0.1871000D+02
EXPONENTS  0.4133000D+01 0.1200000D+01 0.1871000D+02 0.4133000D+01 0.1200000D+01
EXPONENTS  0.3827000D+00 0.3827000D+00 0.3827000D+00 0.1209000D+00 0.1209000D+00
EXPONENTS  0.1209000D+00 0.3569000D-01 0.3569000D-01 0.3569000D-01 0.1097000D+01
EXPONENTS  0.1097000D+01 0.1097000D+01 0.1097000D+01 0.1097000D+01 0.1097000D+01
EXPONENTS  0.3180000D+00 0.3180000D+00 0.3180000D+00 0.3180000D+00 0.3180000D+00
EXPONENTS  0.3180000D+00 0.1000000D+00 0.1000000D+00 0.1000000D+00 0.1000000D+00
EXPONENTS  0.1000000D+00 0.1000000D+00 0.7610000D+00 0.7610000D+00 0.7610000D+00
EXPONENTS  0.7610000D+00 0.7610000D+00 0.7610000D+00 0.7610000D+00 0.7610000D+00
EXPONENTS  0.7610000D+00 0.7610000D+00 0.2680000D+00 0.2680000D+00 0.2680000D+00
EXPONENTS  0.2680000D+00 0.2680000D+00 0.2680000D+00 0.2680000D+00 0.2680000D+00
EXPONENTS  0.2680000D+00 0.2680000D+00 0.8236000D+04 0.1235000D+04 0.2808000D+03
EXPONENTS  0.7927000D+02 0.2559000D+02 0.8997000D+01 0.3319000D+01 0.3643000D+00
EXPONENTS  0.8236000D+04 0.1235000D+04 0.2808000D+03 0.7927000D+02 0.2559000D+02
EXPONENTS  0.8997000D+01 0.3319000D+01 0.3643000D+00 0.9059000D+00 0.1285000D+00
EXPONENTS  0.4402000D-01 0.1871000D+02 0.4133000D+01 0.1200000D+01 0.1871000D+02
EXPONENTS  0.4133000D+01 0.1200000D+01 0.1871000D+02 0.4133000D+01 0.1200000D+01
EXPONENTS  0.3827000D+00 0.3827000D+00 0.3827000D+00 0.1209000D+00 0.1209000D+00
EXPONENTS  0.1209000D+00 0.3569000D-01 0.3569000D-01 0.3569000D-01 0.1097000D+01
EXPONENTS  0.1097000D+01 0.1097000D+01 0.1097000D+01 0.1097000D+01 0.1097000D+01
EXPONENTS  0.3180000D+00 0.3180000D+00 0.3180000D+00 0.3180000D+00 0.3180000D+00
EXPONENTS  0.3180000D+00 0.1000000D+00 0.1000000D+00 0.1000000D+00 0.1000000D+00
EXPONENTS  0.1000000D+00 0.1000000D+00 0.7610000D+00 0.7610000D+00 0.7610000D+00
EXPONENTS  0.7610000D+00 0.7610000D+00 0.7610000D+00 0.7610000D+00 0.7610000D+00
EXPONENTS  0.7610000D+00 0.7610000D+00 0.2680000D+00 0.2680000D+00 0.2680000D+00
EXPONENTS  0.2680000D+00 0.2680000D+00 0.2680000D+00 0.2680000D+00 0.2680000D+00
EXPONENTS  0.2680000D+00 0.2680000D+00
MO    1     MO 0.0        OCC NO =    2.0000000  ORB. ENERGY =  -10.039403
 -0.14071865D-04 -0.25379188D-04 -0.37421597D-04  0.18523808D-02 -0.14853662D-02
 -0.17846219D-04 -0.11383265D-02  0.74195022D-14  0.11711620D-02 -0.13378811D-02
  0.22486797D-14  0.72807757D-03 -0.21156383D-03  0.18677587D-13  0.28460416D-03
 -0.82862028D-03  0.12446791D-02 -0.41605880D-03  0.42105999D-14  0.29644321D-02
 -0.10945410D-13 -0.14291851D-03  0.21526954D-03 -0.72351030D-04 -0.27366223D-14
  0.35179161D-03 -0.26462976D-14 -0.14071865D-04 -0.25379188D-04 -0.37421597D-04
  0.18523808D-02 -0.14853662D-02 -0.17846219D-04  0.11383265D-02  0.77269237D-14
  0.11711620D-02  0.13378811D-02  0.17873244D-14  0.72807757D-03  0.21156383D-03
  0.20107268D-13  0.28460416D-03 -0.82862028D-03  0.12446791D-02 -0.41605880D-03
 -0.43307182D-14 -0.29644321D-02 -0.11286889D-13 -0.14291851D-03  0.21526954D-03
 -0.72351030D-04  0.30814862D-14 -0.35179161D-03 -0.25177108D-14  0.10081839D-03
  0.18183013D-03  0.26810841D-03  0.27286844D-02  0.47550133D-02  0.12630749D-04
 -0.55308662D-15 -0.68331518D-03 -0.49678140D-03  0.12990446D-14 -0.75045649D-03
  0.11776602D-02 -0.77636089D-16 -0.57642393D-03 -0.20889131D-03  0.85056665D-04
  0.27232643D-03 -0.35738309D-03 -0.12599541D-14 -0.94001299D-15 -0.91861999D-05
  0.80759855D-04  0.41318768D-04 -0.12207862D-03 -0.22762412D-15 -0.36746657D-15
 -0.34767178D-04  0.10081839D-03  0.18183013D-03  0.26810841D-03  0.27286844D-02
  0.47550133D-02  0.12630749D-04 -0.93639184D-15  0.68331518D-03 -0.49678140D-03
  0.12549376D-14  0.75045649D-03  0.11776602D-02 -0.65401613D-15  0.57642393D-03
 -0.20889131D-03  0.85056665D-04  0.27232643D-03 -0.35738309D-03  0.91687571D-15
 -0.11313596D-14  0.91861999D-05  0.80759855D-04  0.41318768D-04 -0.12207862D-03
  0.10560433D-15 -0.21738415D-15  0.34767178D-04  0.11098837D-05  0.20017210D-05
  0.29515364D-05  0.10261146D-02 -0.33132666D-03  0.53425721D-04  0.26303285D-15
 -0.12660372D-03 -0.58206448D-04 -0.34454964D-15  0.24651291D-03  0.23401530D-03
 -0.11934810D-14  0.21235206D-03 -0.66832404D-04  0.92835326D-05 -0.16152640D-04
  0.68691073D-05 -0.54511237D-15 -0.68702311D-16  0.41053987D-03 -0.18129634D-04
  0.14020302D-04  0.41093324D-05 -0.17336711D-15 -0.80404592D-16  0.11069745D-03
  0.11098837D-05  0.20017210D-05  0.29515364D-05  0.10261146D-02 -0.33132667D-03
  0.53425721D-04  0.15189174D-15  0.12660372D-03 -0.58206448D-04  0.14380434D-15
 -0.24651291D-03  0.23401530D-03 -0.44809252D-15 -0.21235206D-03 -0.66832404D-04
  0.92835326D-05 -0.16152640D-04  0.68691073D-05  0.80020644D-15 -0.17232578D-15
 -0.41053987D-03 -0.18129634D-04  0.14020302D-04  0.41093324D-05  0.36234554D-16
  0.25282652D-15 -0.11069745D-03  0.33115844D+00  0.61735462D+00  0.10434381D+01
  0.15686292D+01  0.19272422D+01  0.16278641D+01  0.61397046D+00 -0.30385741D-02
 -0.39174798D-02 -0.73347583D-02 -0.12488054D-01 -0.19317120D-01 -0.25439967D-01
 -0.26433756D-01 -0.16797465D-01  0.11257270D-01  0.33277417D-01 -0.80352824D-02
 -0.97163893D-03  0.97014166D-14  0.90956947D-14  0.64766765D-14 -0.35222491D-13
 -0.33023324D-13 -0.23514574D-13  0.52099161D-03  0.48846275D-03  0.34781458D-03
 -0.39746316D-13  0.13242688D-12 -0.14899885D-02 -0.29360728D-13 -0.36886024D-12
  0.76271700D-03 -0.31702723D-15 -0.56147255D-13  0.45214619D-04  0.27405989D-04
 -0.90997888D-03  0.88257290D-03  0.20528583D-15 -0.55955683D-14  0.17085204D-13
  0.50788466D-03 -0.42250138D-03 -0.85383280D-04 -0.43644779D-15 -0.38130549D-13
 -0.19906686D-12  0.20027466D-03 -0.31774365D-03  0.11746898D-03 -0.13723441D-14
 -0.74717296D-14  0.32199898D-13 -0.70333303D-15  0.33297381D-14 -0.28770730D-03
  0.81540256D-14 -0.28719141D-13  0.35123210D-02 -0.60440265D-14  0.18729926D-13
 -0.26491991D-02 -0.26726086D-15 -0.47862278D-15 -0.25002125D-13  0.27719825D-03
  0.39016578D-14  0.52534082D-14 -0.14162927D-02 -0.24657895D-14  0.69752966D-13
  0.58469793D-03  0.55252411D-15  0.32209300D-02  0.60045459D-02  0.10148740D-01
  0.15256881D-01  0.18744841D-01  0.15833015D-01  0.59716307D-02 -0.29553933D-04
 -0.33170162D-03 -0.62105010D-03 -0.10573909D-02 -0.16356230D-02 -0.21540579D-02
 -0.22382042D-02 -0.14222783D-02  0.95317782D-03  0.16017803D-02 -0.32321294D-02
  0.10236641D-03  0.23794422D-15  0.22308783D-15  0.15885182D-15 -0.10864554D-03
 -0.10186210D-03 -0.72531884D-04  0.56262780D-03  0.52749933D-03  0.37561094D-03
 -0.21507014D-14  0.17430911D-02  0.41449768D-03 -0.61739781D-14  0.20303003D-02
  0.87118489D-03 -0.20793169D-15 -0.44049038D-05  0.55240980D-05  0.80367329D-04
  0.10786889D-03 -0.18823622D-03  0.27481594D-15  0.11929464D-14  0.55203786D-03
  0.58858067D-03 -0.83438747D-04 -0.50514193D-03 -0.29192989D-14 -0.32968092D-14
 -0.11474742D-02 -0.15807726D-04 -0.25164267D-03  0.26745040D-03 -0.13333177D-14
 -0.24759124D-15  0.23856953D-03  0.45178406D-15  0.11916293D-03  0.41285952D-03
 -0.20621124D-14  0.51441821D-03  0.43068025D-03  0.70676026D-15 -0.87190701D-03
 -0.16692588D-02 -0.52863709D-16  0.39832146D-15 -0.46861883D-04  0.42628638D-03
 -0.80143887D-15 -0.15365881D-03  0.20925933D-03 -0.39352551D-15  0.29424446D-03
 -0.14881185D-02 -0.19598817D-14  0.32209300D-02  0.60045459D-02  0.10148740D-01
  0.15256881D-01  0.18744841D-01  0.15833015D-01  0.59716307D-02 -0.29553933D-04
 -0.33170162D-03 -0.62105010D-03 -0.10573909D-02 -0.16356230D-02 -0.21540579D-02
 -0.22382042D-02 -0.14222783D-02  0.95317782D-03  0.16017803D-02 -0.32321294D-02
  0.10236641D-03  0.55939619D-16  0.52446948D-16  0.37345352D-16  0.10864554D-03
  0.10186210D-03  0.72531884D-04  0.56262780D-03  0.52749933D-03  0.37561094D-03
 -0.15146358D-14 -0.17430911D-02  0.41449768D-03 -0.24456826D-14 -0.20303003D-02
  0.87118489D-03 -0.23942083D-15  0.44049038D-05  0.55240981D-05  0.80367329D-04
  0.10786889D-03 -0.18823622D-03  0.57797990D-15  0.12964317D-14 -0.55203786D-03
  0.58858067D-03 -0.83438747D-04 -0.50514193D-03  0.17685796D-14 -0.37110499D-14
  0.11474742D-02 -0.15807726D-04 -0.25164267D-03  0.26745040D-03  0.34723679D-15
  0.59894759D-15 -0.23856953D-03  0.52970692D-15 -0.11916293D-03  0.41285952D-03
 -0.21524637D-14 -0.51441821D-03  0.43068025D-03  0.56334292D-15  0.87190701D-03
 -0.16692588D-02 -0.33115968D-16  0.26757210D-15  0.46861883D-04  0.42628638D-03
 -0.78968261D-15  0.15365881D-03  0.20925933D-03 -0.13033678D-16 -0.29424446D-03
 -0.14881185D-02  0.15945350D-14 -0.85514879D-04 -0.15941918D-03 -0.26944649D-03
 -0.40506634D-03 -0.49767080D-03 -0.42036255D-03 -0.15854529D-03  0.78464948D-06
  0.68346698D-04  0.12796658D-03  0.21787406D-03  0.33701804D-03  0.44384090D-03
  0.46117913D-03  0.29305863D-03 -0.19640108D-03 -0.16211929D-03  0.16713392D-02
  0.28726634D-04 -0.22359228D-15 -0.20963197D-15 -0.14927045D-15  0.39079388D-03
  0.36639410D-03  0.26089443D-03 -0.16050790D-03 -0.15048636D-03 -0.10715525D-03
 -0.64252785D-15 -0.25688932D-02  0.69817992D-04  0.18044442D-14  0.60611637D-04
  0.78728531D-03  0.15883456D-16  0.43849467D-04  0.35977392D-04 -0.33513642D-04
 -0.20887346D-03  0.24238710D-03 -0.61118810D-15 -0.14241157D-14 -0.38062197D-03
  0.59640611D-05  0.47432090D-03 -0.48028496D-03  0.34037046D-15  0.48661586D-15
 -0.17197941D-02  0.94881032D-05 -0.10369229D-03  0.94204185D-04  0.13638442D-15
 -0.42547555D-15 -0.11156181D-03  0.21652759D-15  0.19711327D-03 -0.18668599D-03
 -0.78953623D-15  0.96449926D-04  0.76232047D-04  0.13995346D-15 -0.68778975D-03
  0.48382593D-03  0.33971920D-15 -0.94287684D-16  0.10071497D-03 -0.47487428D-04
  0.46538961D-15 -0.20571712D-03 -0.90553368D-04 -0.18252656D-15 -0.96427784D-04
  0.23301565D-03 -0.16898421D-15 -0.85514879D-04 -0.15941918D-03 -0.26944649D-03
 -0.40506634D-03 -0.49767080D-03 -0.42036255D-03 -0.15854529D-03  0.78464948D-06
  0.68346698D-04  0.12796658D-03  0.21787406D-03  0.33701804D-03  0.44384090D-03
  0.46117913D-03  0.29305863D-03 -0.19640108D-03 -0.16211929D-03  0.16713392D-02
  0.28726634D-04 -0.30607547D-16 -0.28696521D-16 -0.20433632D-16 -0.39079388D-03
 -0.36639410D-03 -0.26089443D-03 -0.16050790D-03 -0.15048636D-03 -0.10715525D-03
 -0.95288938D-15  0.25688932D-02  0.69817992D-04 -0.40698531D-15 -0.60611635D-04
  0.78728531D-03  0.92112463D-16 -0.43849467D-04  0.35977392D-04 -0.33513642D-04
 -0.20887346D-03  0.24238710D-03  0.66744635D-15 -0.97759488D-15  0.38062197D-03
  0.59640612D-05  0.47432090D-03 -0.48028496D-03 -0.36474582D-15 -0.29052157D-15
  0.17197941D-02  0.94881032D-05 -0.10369229D-03  0.94204185D-04  0.10189405D-14
 -0.65936859D-15  0.11156181D-03  0.13647614D-15 -0.19711327D-03 -0.18668599D-03
 -0.55826461D-15 -0.96449926D-04  0.76232047D-04  0.14883618D-15  0.68778975D-03
  0.48382593D-03  0.17749724D-15 -0.32185854D-17 -0.10071497D-03 -0.47487428D-04
  0.35412358D-15  0.20571712D-03 -0.90553368D-04 -0.34446783D-15  0.96427784D-04
  0.23301565D-03 -0.68675044D-15
MO    2     MO 0.0        OCC NO =    2.0000000  ORB. ENERGY =  -10.029805
 -0.22683769D-04 -0.40911112D-04 -0.60323411D-04  0.18669564D-03 -0.18955067D-02
  0.89264637D-04 -0.21909908D-04 -0.16715143D-13  0.20154124D-03  0.26984359D-03
 -0.68228561D-14 -0.32483628D-03 -0.41563318D-04  0.41605513D-13  0.28068651D-03
 -0.62299153D-05 -0.76317627D-04  0.82547542D-04 -0.37446266D-13 -0.50851859D-04
  0.23387423D-13 -0.16066099D-04  0.24181853D-04 -0.81157547D-05  0.25790409D-13
 -0.45447916D-04  0.90887950D-14 -0.22683769D-04 -0.40911112D-04 -0.60323411D-04
  0.18669564D-03 -0.18955067D-02  0.89264637D-04  0.21909908D-04 -0.16767051D-13
  0.20154124D-03 -0.26984359D-03 -0.70756873D-14 -0.32483628D-03  0.41563318D-04
  0.43202891D-13  0.28068651D-03 -0.62299153D-05 -0.76317627D-04  0.82547542D-04
  0.36732721D-13  0.50851859D-04  0.23444547D-13 -0.16066099D-04  0.24181853D-04
 -0.81157547D-05 -0.25405648D-13  0.45447916D-04  0.90421918D-14  0.61940138D-04
  0.11171159D-03  0.16471867D-03  0.36420725D-02  0.39744811D-02 -0.65431486D-04
 -0.94897083D-15 -0.13465378D-03  0.13940661D-04  0.17085998D-14  0.14898395D-03
 -0.72027070D-03 -0.73846875D-15 -0.35655576D-03  0.76524599D-05  0.36720111D-03
 -0.62301099D-03  0.25580988D-03 -0.12150332D-14 -0.75209082D-15 -0.17767413D-03
  0.15788440D-03 -0.10605412D-03 -0.51830273D-04 -0.24412528D-15 -0.26611382D-15
 -0.16082238D-03  0.61940138D-04  0.11171159D-03  0.16471867D-03  0.36420725D-02
  0.39744811D-02 -0.65431486D-04 -0.12807132D-14  0.13465378D-03  0.13940661D-04
  0.16385943D-14 -0.14898395D-03 -0.72027070D-03 -0.13289034D-14  0.35655576D-03
  0.76524597D-05  0.36720111D-03 -0.62301099D-03  0.25580988D-03  0.89568844D-15
 -0.88970056D-15  0.17767413D-03  0.15788440D-03 -0.10605412D-03 -0.51830273D-04
  0.94463073D-16 -0.15954089D-15  0.16082238D-03  0.85769170D-04  0.15468823D-03
  0.22808771D-03  0.23256180D-02  0.34016441D-02  0.91438191D-04  0.28042747D-15
  0.40430064D-03 -0.47842978D-03 -0.22614789D-15  0.18658667D-03 -0.15979128D-02
 -0.12907383D-14  0.37576118D-05  0.25319294D-03  0.96769423D-03  0.17996126D-03
 -0.11476555D-02 -0.54933696D-15  0.45951032D-16  0.23658747D-02  0.32460920D-03
 -0.13709841D-03 -0.18751079D-03 -0.17137651D-15 -0.80448862D-16  0.20662921D-03
  0.85769170D-04  0.15468823D-03  0.22808771D-03  0.23256180D-02  0.34016441D-02
  0.91438191D-04  0.21872497D-15 -0.40430064D-03 -0.47842978D-03  0.20073024D-15
 -0.18658667D-03 -0.15979128D-02 -0.49664083D-15 -0.37576114D-05  0.25319294D-03
  0.96769423D-03  0.17996126D-03 -0.11476555D-02  0.72927685D-15 -0.65882012D-16
 -0.23658747D-02  0.32460920D-03 -0.13709841D-03 -0.18751079D-03  0.58227361D-16
  0.25016743D-15 -0.20662921D-03 -0.85495643D-03 -0.15938332D-02 -0.26938588D-02
 -0.40497522D-02 -0.49755885D-02 -0.42026799D-02 -0.15850962D-02  0.78447297D-05
  0.63300846D-04  0.11851916D-03  0.20178900D-03  0.31213690D-03  0.41107332D-03
  0.42713151D-03  0.27142290D-03 -0.18190132D-03 -0.49258263D-06  0.32301210D-02
  0.24601115D-02  0.82582065D-14  0.77425935D-14  0.55131878D-14 -0.39760229D-13
 -0.37277742D-13 -0.26543973D-13 -0.62956573D-03 -0.59025789D-03 -0.42029878D-03
 -0.32892657D-13  0.21232154D-12  0.81411534D-03 -0.26090174D-13 -0.85861707D-12
  0.33892942D-03 -0.29869167D-15 -0.81423123D-13 -0.11781918D-03 -0.24751648D-04
 -0.16014724D-03  0.18489889D-03  0.30321741D-15 -0.29094593D-14 -0.61025242D-13
 -0.11330164D-03  0.13043698D-02 -0.11910682D-02 -0.41433093D-15 -0.34340036D-13
 -0.68098653D-13  0.16434668D-03 -0.94373066D-04 -0.69973618D-04 -0.13239460D-14
 -0.89597261D-14  0.71102640D-13 -0.42701985D-15  0.10724840D-13  0.22249019D-03
  0.74714367D-14 -0.81202328D-14 -0.22711924D-03 -0.61903772D-14 -0.24054286D-13
 -0.44035132D-03 -0.32623747D-15 -0.33880560D-15 -0.16511575D-13  0.14111782D-03
  0.34003422D-14  0.37188824D-13  0.47067764D-05 -0.23839254D-14  0.12345902D-13
 -0.42806023D-03  0.50330479D-15  0.44443751D-01  0.82853257D-01  0.14003660D+00
  0.21052088D+00  0.25864922D+00  0.21847062D+00  0.82399079D-01 -0.40779764D-03
 -0.62953853D-03 -0.11786948D-02 -0.20068287D-02 -0.31042588D-02 -0.40881996D-02
 -0.42479013D-02 -0.26993506D-02  0.18090420D-02  0.61145404D-02 -0.72775043D-02
 -0.17040323D-02  0.15637519D-15  0.14661168D-15  0.10439625D-15  0.57691740D-03
  0.54089673D-03  0.38515070D-03 -0.66997563D-03 -0.62814474D-03 -0.44727648D-03
 -0.20305424D-14 -0.19426737D-02 -0.48370760D-03 -0.81575465D-14  0.81117482D-03
 -0.97150082D-04 -0.22465816D-15 -0.13521814D-03 -0.62668448D-04 -0.57220154D-03
  0.54045383D-03  0.31747717D-04  0.41700457D-15  0.91411245D-15 -0.42320726D-03
  0.11758688D-02 -0.57648433D-03 -0.59938445D-03 -0.29472583D-14 -0.24823397D-14
  0.21832212D-02  0.77178923D-04 -0.20094279D-03  0.12376386D-03 -0.20019056D-14
  0.10637287D-15  0.35677279D-03  0.56264225D-15  0.21754055D-03  0.98053932D-04
 -0.17803503D-14  0.53825797D-03 -0.75688622D-03  0.92423559D-16 -0.11908796D-02
  0.46272442D-03 -0.58567278D-15  0.41296472D-15  0.46529732D-03  0.10193313D-03
 -0.83017957D-15 -0.25275032D-03 -0.15671499D-03 -0.40871460D-15 -0.11431416D-02
 -0.14908440D-03 -0.13820524D-14  0.44443751D-01  0.82853257D-01  0.14003660D+00
  0.21052088D+00  0.25864922D+00  0.21847062D+00  0.82399079D-01 -0.40779764D-03
 -0.62953853D-03 -0.11786948D-02 -0.20068287D-02 -0.31042588D-02 -0.40881996D-02
 -0.42479013D-02 -0.26993506D-02  0.18090420D-02  0.61145404D-02 -0.72775043D-02
 -0.17040323D-02 -0.62742700D-16 -0.58825269D-16 -0.41887096D-16 -0.57691740D-03
 -0.54089673D-03 -0.38515070D-03 -0.66997563D-03 -0.62814474D-03 -0.44727648D-03
 -0.12894656D-14  0.19426737D-02 -0.48370760D-03 -0.44606727D-14 -0.81117482D-03
 -0.97150079D-04 -0.27412181D-15  0.13521814D-03 -0.62668448D-04 -0.57220154D-03
  0.54045383D-03  0.31747717D-04  0.33431289D-15  0.12578554D-14  0.42320726D-03
  0.11758688D-02 -0.57648433D-03 -0.59938445D-03  0.18407830D-14 -0.31542974D-14
 -0.21832212D-02  0.77178923D-04 -0.20094279D-03  0.12376386D-03  0.10797949D-14
  0.77603426D-15 -0.35677279D-03  0.58664420D-15 -0.21754055D-03  0.98053932D-04
 -0.18370234D-14 -0.53825797D-03 -0.75688622D-03  0.77090791D-16  0.11908796D-02
  0.46272442D-03  0.60329858D-15  0.30601720D-15 -0.46529732D-03  0.10193313D-03
 -0.83791073D-15  0.25275032D-03 -0.15671499D-03 -0.80140858D-16  0.11431416D-02
 -0.14908440D-03  0.11222247D-14  0.23008104D+00  0.42892337D+00  0.72495606D+00
  0.10898464D+01  0.13390023D+01  0.11310015D+01  0.42657214D+00 -0.21111293D-02
 -0.28704677D-02 -0.53744212D-02 -0.91504119D-02 -0.14154296D-01 -0.18640710D-01
 -0.19368891D-01 -0.12308061D-01  0.82485763D-02  0.24796992D-01 -0.27334323D-02
 -0.36397720D-03 -0.62670919D-15 -0.58757970D-15 -0.41839175D-15  0.51651886D-03
  0.48426926D-03  0.34482856D-03 -0.20166354D-03 -0.18907239D-03 -0.13463081D-03
 -0.60905398D-16  0.61930178D-03  0.15765227D-02  0.28945382D-14  0.13611810D-02
  0.22117912D-02  0.28315702D-16  0.84888523D-04  0.47795788D-04 -0.31209287D-02
  0.11586448D-02  0.19622840D-02 -0.46170812D-15 -0.22801632D-14  0.68065446D-03
  0.11309156D-02 -0.11842040D-02  0.53288337D-04  0.23592596D-15  0.14868849D-14