 Molden2AIM, Version 4.0.0 (06/02/2016)           Time: Mon Jul  2 20:28:59 2018
GAUSSIAN             18 MOL ORBITALS    483 PRIMITIVES        9 NUCLEI
  H    1    (CENTRE  1)   0.00000000  4.00801840  1.34448534  CHARGE =  1.0
  H    2    (CENTRE  2)   0.00000000  2.27538899 -3.60087124  CHARGE =  1.0
  H    3    (CENTRE  3)   0.00000000 -3.97701556  1.25378793  CHARGE =  1.0
  H    4    (CENTRE  4)   0.00000000 -0.02663947  3.98897185  CHARGE =  1.0
  C    5    (CENTRE  5)   0.00000000  2.10992646  0.57551609  CHARGE =  6.0
  C    6    (CENTRE  6)   0.00000000  1.19873265 -1.85468115  CHARGE =  6.0
  C    7    (CENTRE  7)   0.00000000 -2.05581415  0.53571090  CHARGE =  6.0
  N    8    (CENTRE  8)   0.00000000 -1.39582730 -1.85844927  CHARGE =  7.0
  N    9    (CENTRE  9)   0.00000000 -0.00257192  2.08433012  CHARGE =  7.0
CENTRE ASSIGNMENTS    1  1  1  1  1  1  1  1  1  1  1  1  1  1  1  1  1  1  1  1
CENTRE ASSIGNMENTS    1  1  1  1  1  1  1  2  2  2  2  2  2  2  2  2  2  2  2  2
CENTRE ASSIGNMENTS    2  2  2  2  2  2  2  2  2  2  2  2  2  2  3  3  3  3  3  3
CENTRE ASSIGNMENTS    3  3  3  3  3  3  3  3  3  3  3  3  3  3  3  3  3  3  3  3
CENTRE ASSIGNMENTS    3  4  4  4  4  4  4  4  4  4  4  4  4  4  4  4  4  4  4  4
CENTRE ASSIGNMENTS    4  4  4  4  4  4  4  4  5  5  5  5  5  5  5  5  5  5  5  5
CENTRE ASSIGNMENTS    5  5  5  5  5  5  5  5  5  5  5  5  5  5  5  5  5  5  5  5
CENTRE ASSIGNMENTS    5  5  5  5  5  5  5  5  5  5  5  5  5  5  5  5  5  5  5  5
CENTRE ASSIGNMENTS    5  5  5  5  5  5  5  5  5  5  5  5  5  5  5  5  5  5  5  5
CENTRE ASSIGNMENTS    5  5  5  6  6  6  6  6  6  6  6  6  6  6  6  6  6  6  6  6
CENTRE ASSIGNMENTS    6  6  6  6  6  6  6  6  6  6  6  6  6  6  6  6  6  6  6  6
CENTRE ASSIGNMENTS    6  6  6  6  6  6  6  6  6  6  6  6  6  6  6  6  6  6  6  6
CENTRE ASSIGNMENTS    6  6  6  6  6  6  6  6  6  6  6  6  6  6  6  6  6  6  7  7
CENTRE ASSIGNMENTS    7  7  7  7  7  7  7  7  7  7  7  7  7  7  7  7  7  7  7  7
CENTRE ASSIGNMENTS    7  7  7  7  7  7  7  7  7  7  7  7  7  7  7  7  7  7  7  7
CENTRE ASSIGNMENTS    7  7  7  7  7  7  7  7  7  7  7  7  7  7  7  7  7  7  7  7
CENTRE ASSIGNMENTS    7  7  7  7  7  7  7  7  7  7  7  7  7  8  8  8  8  8  8  8
CENTRE ASSIGNMENTS    8  8  8  8  8  8  8  8  8  8  8  8  8  8  8  8  8  8  8  8
CENTRE ASSIGNMENTS    8  8  8  8  8  8  8  8  8  8  8  8  8  8  8  8  8  8  8  8
CENTRE ASSIGNMENTS    8  8  8  8  8  8  8  8  8  8  8  8  8  8  8  8  8  8  8  8
CENTRE ASSIGNMENTS    8  8  8  8  8  8  8  8  9  9  9  9  9  9  9  9  9  9  9  9
CENTRE ASSIGNMENTS    9  9  9  9  9  9  9  9  9  9  9  9  9  9  9  9  9  9  9  9
CENTRE ASSIGNMENTS    9  9  9  9  9  9  9  9  9  9  9  9  9  9  9  9  9  9  9  9
CENTRE ASSIGNMENTS    9  9  9  9  9  9  9  9  9  9  9  9  9  9  9  9  9  9  9  9
CENTRE ASSIGNMENTS    9  9  9
TYPE ASSIGNMENTS      1  1  1  1  1  1  2  3  4  2  3  4  2  3  4  5  6  7  8  9
TYPE ASSIGNMENTS     10  5  6  7  8  9 10  1  1  1  1  1  1  2  3  4  2  3  4  2
TYPE ASSIGNMENTS      3  4  5  6  7  8  9 10  5  6  7  8  9 10  1  1  1  1  1  1
TYPE ASSIGNMENTS      2  3  4  2  3  4  2  3  4  5  6  7  8  9 10  5  6  7  8  9
TYPE ASSIGNMENTS     10  1  1  1  1  1  1  2  3  4  2  3  4  2  3  4  5  6  7  8
TYPE ASSIGNMENTS      9 10  5  6  7  8  9 10  1  1  1  1  1  1  1  1  1  1  1  1
TYPE ASSIGNMENTS      1  1  1  1  1  1  1  2  2  2  3  3  3  4  4  4  2  3  4  2
TYPE ASSIGNMENTS      3  4  2  3  4  5  6  7  8  9 10  5  6  7  8  9 10  5  6  7
TYPE ASSIGNMENTS      8  9 10 11 12 13 17 14 15 18 19 16 20 11 12 13 17 14 15 18
TYPE ASSIGNMENTS     19 16 20  1  1  1  1  1  1  1  1  1  1  1  1  1  1  1  1  1
TYPE ASSIGNMENTS      1  1  2  2  2  3  3  3  4  4  4  2  3  4  2  3  4  2  3  4
TYPE ASSIGNMENTS      5  6  7  8  9 10  5  6  7  8  9 10  5  6  7  8  9 10 11 12
TYPE ASSIGNMENTS     13 17 14 15 18 19 16 20 11 12 13 17 14 15 18 19 16 20  1  1
TYPE ASSIGNMENTS      1  1  1  1  1  1  1  1  1  1  1  1  1  1  1  1  1  2  2  2
TYPE ASSIGNMENTS      3  3  3  4  4  4  2  3  4  2  3  4  2  3  4  5  6  7  8  9
TYPE ASSIGNMENTS     10  5  6  7  8  9 10  5  6  7  8  9 10 11 12 13 17 14 15 18
TYPE ASSIGNMENTS     19 16 20 11 12 13 17 14 15 18 19 16 20  1  1  1  1  1  1  1
TYPE ASSIGNMENTS      1  1  1  1  1  1  1  1  1  1  1  1  2  2  2  3  3  3  4  4
TYPE ASSIGNMENTS      4  2  3  4  2  3  4  2  3  4  5  6  7  8  9 10  5  6  7  8
TYPE ASSIGNMENTS      9 10  5  6  7  8  9 10 11 12 13 17 14 15 18 19 16 20 11 12
TYPE ASSIGNMENTS     13 17 14 15 18 19 16 20  1  1  1  1  1  1  1  1  1  1  1  1
TYPE ASSIGNMENTS      1  1  1  1  1  1  1  2  2  2  3  3  3  4  4  4  2  3  4  2
TYPE ASSIGNMENTS      3  4  2  3  4  5  6  7  8  9 10  5  6  7  8  9 10  5  6  7
TYPE ASSIGNMENTS      8  9 10 11 12 13 17 14 15 18 19 16 20 11 12 13 17 14 15 18
TYPE ASSIGNMENTS     19 16 20
EXPONENTS  0.3387000D+02 0.5095000D+01 0.1159000D+01 0.3258000D+00 0.1027000D+00
EXPONENTS  0.2526000D-01 0.1407000D+01 0.1407000D+01 0.1407000D+01 0.3880000D+00
EXPONENTS  0.3880000D+00 0.3880000D+00 0.1020000D+00 0.1020000D+00 0.1020000D+00
EXPONENTS  0.1057000D+01 0.1057000D+01 0.1057000D+01 0.1057000D+01 0.1057000D+01
EXPONENTS  0.1057000D+01 0.2470000D+00 0.2470000D+00 0.2470000D+00 0.2470000D+00
EXPONENTS  0.2470000D+00 0.2470000D+00 0.3387000D+02 0.5095000D+01 0.1159000D+01
EXPONENTS  0.3258000D+00 0.1027000D+00 0.2526000D-01 0.1407000D+01 0.1407000D+01
EXPONENTS  0.1407000D+01 0.3880000D+00 0.3880000D+00 0.3880000D+00 0.1020000D+00
EXPONENTS  0.1020000D+00 0.1020000D+00 0.1057000D+01 0.1057000D+01 0.1057000D+01
EXPONENTS  0.1057000D+01 0.1057000D+01 0.1057000D+01 0.2470000D+00 0.2470000D+00
EXPONENTS  0.2470000D+00 0.2470000D+00 0.2470000D+00 0.2470000D+00 0.3387000D+02
EXPONENTS  0.5095000D+01 0.1159000D+01 0.3258000D+00 0.1027000D+00 0.2526000D-01
EXPONENTS  0.1407000D+01 0.1407000D+01 0.1407000D+01 0.3880000D+00 0.3880000D+00
EXPONENTS  0.3880000D+00 0.1020000D+00 0.1020000D+00 0.1020000D+00 0.1057000D+01
EXPONENTS  0.1057000D+01 0.1057000D+01 0.1057000D+01 0.1057000D+01 0.1057000D+01
EXPONENTS  0.2470000D+00 0.2470000D+00 0.2470000D+00 0.2470000D+00 0.2470000D+00
EXPONENTS  0.2470000D+00 0.3387000D+02 0.5095000D+01 0.1159000D+01 0.3258000D+00
EXPONENTS  0.1027000D+00 0.2526000D-01 0.1407000D+01 0.1407000D+01 0.1407000D+01
EXPONENTS  0.3880000D+00 0.3880000D+00 0.3880000D+00 0.1020000D+00 0.1020000D+00
EXPONENTS  0.1020000D+00 0.1057000D+01 0.1057000D+01 0.1057000D+01 0.1057000D+01
EXPONENTS  0.1057000D+01 0.1057000D+01 0.2470000D+00 0.2470000D+00 0.2470000D+00
EXPONENTS  0.2470000D+00 0.2470000D+00 0.2470000D+00 0.8236000D+04 0.1235000D+04
EXPONENTS  0.2808000D+03 0.7927000D+02 0.2559000D+02 0.8997000D+01 0.3319000D+01
EXPONENTS  0.3643000D+00 0.8236000D+04 0.1235000D+04 0.2808000D+03 0.7927000D+02
EXPONENTS  0.2559000D+02 0.8997000D+01 0.3319000D+01 0.3643000D+00 0.9059000D+00
EXPONENTS  0.1285000D+00 0.4402000D-01 0.1871000D+02 0.4133000D+01 0.1200000D+01
EXPONENTS  0.1871000D+02 0.4133000D+01 0.1200000D+01 0.1871000D+02 0.4133000D+01
EXPONENTS  0.1200000D+01 0.3827000D+00 0.3827000D+00 0.3827000D+00 0.1209000D+00
EXPONENTS  0.1209000D+00 0.1209000D+00 0.3569000D-01 0.3569000D-01 0.3569000D-01
EXPONENTS  0.1097000D+01 0.1097000D+01 0.1097000D+01 0.1097000D+01 0.1097000D+01
EXPONENTS  0.1097000D+01 0.3180000D+00 0.3180000D+00 0.3180000D+00 0.3180000D+00
EXPONENTS  0.3180000D+00 0.3180000D+00 0.1000000D+00 0.1000000D+00 0.1000000D+00
EXPONENTS  0.1000000D+00 0.1000000D+00 0.1000000D+00 0.7610000D+00 0.7610000D+00
EXPONENTS  0.7610000D+00 0.7610000D+00 0.7610000D+00 0.7610000D+00 0.7610000D+00
EXPONENTS  0.7610000D+00 0.7610000D+00 0.7610000D+00 0.2680000D+00 0.2680000D+00
EXPONENTS  0.2680000D+00 0.2680000D+00 0.2680000D+00 0.2680000D+00 0.2680000D+00
EXPONENTS  0.2680000D+00 0.2680000D+00 0.2680000D+00 0.8236000D+04 0.1235000D+04
EXPONENTS  0.2808000D+03 0.7927000D+02 0.2559000D+02 0.8997000D+01 0.3319000D+01
EXPONENTS  0.3643000D+00 0.8236000D+04 0.1235000D+04 0.2808000D+03 0.7927000D+02
EXPONENTS  0.2559000D+02 0.8997000D+01 0.3319000D+01 0.3643000D+00 0.9059000D+00
EXPONENTS  0.1285000D+00 0.4402000D-01 0.1871000D+02 0.4133000D+01 0.1200000D+01
EXPONENTS  0.1871000D+02 0.4133000D+01 0.1200000D+01 0.1871000D+02 0.4133000D+01
EXPONENTS  0.1200000D+01 0.3827000D+00 0.3827000D+00 0.3827000D+00 0.1209000D+00
EXPONENTS  0.1209000D+00 0.1209000D+00 0.3569000D-01 0.3569000D-01 0.3569000D-01
EXPONENTS  0.1097000D+01 0.1097000D+01 0.1097000D+01 0.1097000D+01 0.1097000D+01
EXPONENTS  0.1097000D+01 0.3180000D+00 0.3180000D+00 0.3180000D+00 0.3180000D+00
EXPONENTS  0.3180000D+00 0.3180000D+00 0.1000000D+00 0.1000000D+00 0.1000000D+00
EXPONENTS  0.1000000D+00 0.1000000D+00 0.1000000D+00 0.7610000D+00 0.7610000D+00
EXPONENTS  0.7610000D+00 0.7610000D+00 0.7610000D+00 0.7610000D+00 0.7610000D+00
EXPONENTS  0.7610000D+00 0.7610000D+00 0.7610000D+00 0.2680000D+00 0.2680000D+00
EXPONENTS  0.2680000D+00 0.2680000D+00 0.2680000D+00 0.2680000D+00 0.2680000D+00
EXPONENTS  0.2680000D+00 0.2680000D+00 0.2680000D+00 0.8236000D+04 0.1235000D+04
EXPONENTS  0.2808000D+03 0.7927000D+02 0.2559000D+02 0.8997000D+01 0.3319000D+01
EXPONENTS  0.3643000D+00 0.8236000D+04 0.1235000D+04 0.2808000D+03 0.7927000D+02
EXPONENTS  0.2559000D+02 0.8997000D+01 0.3319000D+01 0.3643000D+00 0.9059000D+00
EXPONENTS  0.1285000D+00 0.4402000D-01 0.1871000D+02 0.4133000D+01 0.1200000D+01
EXPONENTS  0.1871000D+02 0.4133000D+01 0.1200000D+01 0.1871000D+02 0.4133000D+01
EXPONENTS  0.1200000D+01 0.3827000D+00 0.3827000D+00 0.3827000D+00 0.1209000D+00
EXPONENTS  0.1209000D+00 0.1209000D+00 0.3569000D-01 0.3569000D-01 0.3569000D-01
EXPONENTS  0.1097000D+01 0.1097000D+01 0.1097000D+01 0.1097000D+01 0.1097000D+01
EXPONENTS  0.1097000D+01 0.3180000D+00 0.3180000D+00 0.3180000D+00 0.3180000D+00
EXPONENTS  0.3180000D+00 0.3180000D+00 0.1000000D+00 0.1000000D+00 0.1000000D+00
EXPONENTS  0.1000000D+00 0.1000000D+00 0.1000000D+00 0.7610000D+00 0.7610000D+00
EXPONENTS  0.7610000D+00 0.7610000D+00 0.7610000D+00 0.7610000D+00 0.7610000D+00
EXPONENTS  0.7610000D+00 0.7610000D+00 0.7610000D+00 0.2680000D+00 0.2680000D+00
EXPONENTS  0.2680000D+00 0.2680000D+00 0.2680000D+00 0.2680000D+00 0.2680000D+00
EXPONENTS  0.2680000D+00 0.2680000D+00 0.2680000D+00 0.1142000D+05 0.1712000D+04
EXPONENTS  0.3893000D+03 0.1100000D+03 0.3557000D+02 0.1254000D+02 0.4644000D+01
EXPONENTS  0.5118000D+00 0.1142000D+05 0.1712000D+04 0.3893000D+03 0.1100000D+03
EXPONENTS  0.3557000D+02 0.1254000D+02 0.4644000D+01 0.5118000D+00 0.1293000D+01
EXPONENTS  0.1787000D+00 0.5760000D-01 0.2663000D+02 0.5948000D+01 0.1742000D+01
EXPONENTS  0.2663000D+02 0.5948000D+01 0.1742000D+01 0.2663000D+02 0.5948000D+01
EXPONENTS  0.1742000D+01 0.5550000D+00 0.5550000D+00 0.5550000D+00 0.1725000D+00
EXPONENTS  0.1725000D+00 0.1725000D+00 0.4910000D-01 0.4910000D-01 0.4910000D-01
EXPONENTS  0.1654000D+01 0.1654000D+01 0.1654000D+01 0.1654000D+01 0.1654000D+01
EXPONENTS  0.1654000D+01 0.4690000D+00 0.4690000D+00 0.4690000D+00 0.4690000D+00
EXPONENTS  0.4690000D+00 0.4690000D+00 0.1510000D+00 0.1510000D+00 0.1510000D+00
EXPONENTS  0.1510000D+00 0.1510000D+00 0.1510000D+00 0.1093000D+01 0.1093000D+01
EXPONENTS  0.1093000D+01 0.1093000D+01 0.1093000D+01 0.1093000D+01 0.1093000D+01
EXPONENTS  0.1093000D+01 0.1093000D+01 0.1093000D+01 0.3640000D+00 0.3640000D+00
EXPONENTS  0.3640000D+00 0.3640000D+00 0.3640000D+00 0.3640000D+00 0.3640000D+00
EXPONENTS  0.3640000D+00 0.3640000D+00 0.3640000D+00 0.1142000D+05 0.1712000D+04
EXPONENTS  0.3893000D+03 0.1100000D+03 0.3557000D+02 0.1254000D+02 0.4644000D+01
EXPONENTS  0.5118000D+00 0.1142000D+05 0.1712000D+04 0.3893000D+03 0.1100000D+03
EXPONENTS  0.3557000D+02 0.1254000D+02 0.4644000D+01 0.5118000D+00 0.1293000D+01
EXPONENTS  0.1787000D+00 0.5760000D-01 0.2663000D+02 0.5948000D+01 0.1742000D+01
EXPONENTS  0.2663000D+02 0.5948000D+01 0.1742000D+01 0.2663000D+02 0.5948000D+01
EXPONENTS  0.1742000D+01 0.5550000D+00 0.5550000D+00 0.5550000D+00 0.1725000D+00
EXPONENTS  0.1725000D+00 0.1725000D+00 0.4910000D-01 0.4910000D-01 0.4910000D-01
EXPONENTS  0.1654000D+01 0.1654000D+01 0.1654000D+01 0.1654000D+01 0.1654000D+01
EXPONENTS  0.1654000D+01 0.4690000D+00 0.4690000D+00 0.4690000D+00 0.4690000D+00
EXPONENTS  0.4690000D+00 0.4690000D+00 0.1510000D+00 0.1510000D+00 0.1510000D+00
EXPONENTS  0.1510000D+00 0.1510000D+00 0.1510000D+00 0.1093000D+01 0.1093000D+01
EXPONENTS  0.1093000D+01 0.1093000D+01 0.1093000D+01 0.1093000D+01 0.1093000D+01
EXPONENTS  0.1093000D+01 0.1093000D+01 0.1093000D+01 0.3640000D+00 0.3640000D+00
EXPONENTS  0.3640000D+00 0.3640000D+00 0.3640000D+00 0.3640000D+00 0.3640000D+00
EXPONENTS  0.3640000D+00 0.3640000D+00 0.3640000D+00
MO    1     MO 0.0        OCC NO =    2.0000000  ORB. ENERGY =  -14.216233
  0.58658389D-04  0.10579282D-03  0.15599145D-03  0.10085320D-02  0.20406195D-02
  0.85155907D-05 -0.25033158D-15 -0.48915927D-03 -0.23121667D-03  0.73172791D-16
 -0.17486791D-03  0.50740616D-03 -0.17996728D-16 -0.12382443D-03 -0.40002726D-03
  0.10378008D-03  0.14768312D-03 -0.25146320D-03 -0.15995946D-15 -0.16086370D-15
 -0.16250908D-04  0.10378735D-03 -0.46236513D-04 -0.57550840D-04  0.35136958D-17
  0.36529446D-18  0.40810805D-04 -0.23249482D-04 -0.41931399D-04 -0.61827823D-04
  0.16477394D-02  0.34688217D-03  0.17005380D-05 -0.98758456D-18  0.79599550D-04
 -0.10369853D-03  0.17666572D-18 -0.93142232D-04  0.78180044D-03  0.28822962D-18
  0.36659650D-04  0.13475388D-03  0.68557001D-05 -0.12299826D-03  0.11614256D-03
  0.20950769D-17 -0.31614910D-17  0.29194236D-03 -0.30898335D-04  0.17439188D-04
  0.13459147D-04 -0.97916860D-19  0.90318627D-18  0.21897501D-04  0.65155285D-04
  0.11751024D-03  0.17326878D-03  0.18281300D-02  0.16154788D-02  0.45306270D-04
 -0.23665705D-17  0.47003572D-03 -0.19050475D-03  0.54303692D-17  0.44154926D-03
  0.24296931D-03 -0.95949333D-18  0.10899987D-03 -0.33916413D-03  0.16516785D-03
  0.96289551D-04 -0.26145740D-03  0.52575899D-17 -0.14592250D-17 -0.37340194D-04
  0.86793680D-04 -0.52442616D-04 -0.34351063D-04  0.51168412D-18 -0.38524625D-18
 -0.28377276D-04  0.24969140D-03  0.45032873D-03  0.66400945D-03 -0.74691049D-03
 -0.12184832D-02 -0.17852416D-04 -0.15812828D-17  0.12354666D-04  0.22659951D-02
 -0.25491147D-17  0.12839014D-03  0.29819273D-02 -0.12793004D-17  0.30642309D-05
  0.52935787D-03  0.21168530D-02  0.15838297D-02 -0.37006827D-02  0.51943338D-19
  0.21216853D-17  0.66538429D-05  0.20485358D-03  0.12477431D-03 -0.32962790D-03
  0.48859146D-18  0.13572869D-17  0.35861992D-04  0.44340327D-03  0.82660450D-03
  0.13971072D-02  0.21003098D-02  0.25804733D-02  0.21796222D-02  0.82207329D-03
 -0.40684866D-05 -0.33871752D-03 -0.63418608D-03 -0.10797561D-02 -0.16702184D-02
 -0.21996189D-02 -0.22855450D-02 -0.14523612D-02  0.97333872D-03  0.12437909D-02
 -0.38105029D-02 -0.27858152D-03 -0.74681496D-17 -0.70018649D-17 -0.49857450D-17
 -0.54685050D-03 -0.51270710D-03 -0.36507800D-03  0.45176386D-03  0.42355733D-03
  0.30159805D-03  0.64591919D-17 -0.12264784D-02  0.15259744D-02  0.50897276D-18
 -0.18497111D-03 -0.40760330D-03 -0.11402967D-18 -0.41603698D-05  0.46677559D-04
 -0.22903798D-03  0.24898480D-04  0.20413950D-03 -0.21362349D-17 -0.10832119D-17
 -0.12192231D-02  0.56997885D-03  0.15549868D-03 -0.72547753D-03  0.13047795D-16
  0.53506239D-17  0.94068195D-03 -0.10564286D-04 -0.22203572D-03  0.23260000D-03
 -0.69810706D-18  0.26875076D-18  0.10449214D-03  0.90581203D-18  0.12062279D-03
  0.39255330D-03  0.20240268D-18 -0.46656753D-03  0.53549559D-03 -0.29198388D-17
  0.10469916D-03 -0.17131555D-02 -0.49879355D-17 -0.76970585D-18  0.63150734D-04
  0.20760458D-03  0.35582257D-17 -0.11486712D-03  0.57495713D-04 -0.12491081D-17
 -0.74585083D-04 -0.68030946D-03  0.42809997D-17 -0.18366307D-04 -0.34238972D-04
 -0.57869894D-04 -0.86997406D-04 -0.10688637D-03 -0.90282623D-04 -0.34051284D-04
  0.16852170D-06  0.11133684D-04  0.20845770D-04  0.35491707D-04  0.54900274D-04
  0.72301729D-04  0.75126128D-04  0.47739282D-04 -0.31993756D-04  0.31453052D-04
 -0.18881753D-02  0.40415211D-03 -0.53993073D-17 -0.50621938D-17 -0.36045836D-17
 -0.26760899D-03 -0.25090043D-03 -0.17865606D-03  0.12862605D-04  0.12059510D-04
  0.85870892D-05  0.25897027D-17  0.14677292D-02  0.82768661D-03  0.10969033D-17
  0.35733079D-04  0.68030842D-03  0.17497054D-19  0.77848710D-05 -0.36297079D-05
  0.64986071D-05 -0.37823991D-03  0.37174130D-03  0.81308212D-18  0.32003217D-18
 -0.24848739D-03  0.77518284D-04  0.54045870D-03 -0.61797699D-03  0.13375917D-17
  0.23798279D-17  0.19731849D-02 -0.16872651D-04 -0.77049490D-04  0.93922142D-04
  0.26637601D-18  0.40720058D-18  0.38218769D-04 -0.11111110D-17 -0.19651906D-03
 -0.34591398D-03 -0.42904832D-20 -0.16236974D-03  0.16368721D-03  0.33376236D-17
  0.75192691D-03  0.87405475D-03  0.18623126D-18 -0.18382899D-18 -0.10212164D-03
 -0.55784505D-04  0.45106542D-19  0.89338667D-04 -0.11256597D-03  0.50638043D-18
  0.21702627D-03  0.27991948D-03  0.10088857D-17  0.42774442D-03  0.79741285D-03
  0.13477682D-02  0.20261371D-02  0.24893435D-02  0.21026485D-02  0.79304167D-03
 -0.39248075D-05 -0.32758718D-03 -0.61334655D-03 -0.10442750D-02 -0.16153346D-02
 -0.21273389D-02 -0.22104414D-02 -0.14046363D-02  0.94135455D-03  0.13463884D-02
 -0.11850548D-02 -0.26228414D-03  0.27296472D-18  0.25592178D-18  0.18223155D-18
  0.68670614D-03  0.64383066D-03  0.45844578D-03  0.50935112D-03  0.47754905D-03
  0.34004337D-03  0.50933986D-18  0.73341039D-03  0.13653666D-02 -0.11737046D-17
  0.83124357D-03 -0.46221554D-03 -0.13839146D-18  0.33891360D-04  0.31451546D-04
 -0.11713500D-03  0.15260853D-04  0.10187415D-03 -0.14105976D-17 -0.90937430D-18
  0.75033377D-03  0.59935056D-03 -0.48835672D-03 -0.11099384D-03  0.30646330D-17
 -0.23672842D-17  0.22279671D-04 -0.11214730D-05 -0.14199212D-03  0.14311359D-03
 -0.87956615D-18  0.38147038D-18 -0.19799013D-03 -0.30526977D-18 -0.93562242D-04
  0.37931429D-03 -0.97502949D-18  0.57355057D-03  0.47092189D-03  0.18908388D-17
 -0.29286385D-03 -0.16088648D-02  0.19705157D-17  0.39044737D-18 -0.22543696D-04
  0.14074626D-03 -0.12474707D-17  0.86383204D-04  0.13999252D-03  0.76128588D-19
 -0.18752115D-04 -0.56223129D-03  0.58116006D-18  0.27386820D-05  0.51031307D-05
  0.86306733D-05  0.12997316D-04  0.16091520D-04  0.13693157D-04  0.52104990D-05
 -0.24402990D-07  0.19207595D-05  0.36014419D-05  0.61271243D-05  0.95147771D-05
  0.12626663D-04  0.13306769D-04  0.82510458D-05 -0.54885988D-05 -0.12050482D-03
  0.11376894D-03 -0.22118155D-03  0.21538150D-17  0.20687135D-17  0.14507247D-17
  0.45624278D-03  0.43821573D-03  0.30730712D-03 -0.51330363D-04 -0.49302200D-04
 -0.34574106D-04 -0.94424784D-18 -0.11486598D-02  0.68233430D-03 -0.72828622D-19
  0.11806665D-03 -0.95836855D-04  0.25709767D-18 -0.10080234D-03  0.83690168D-05
  0.22675941D-04 -0.57175111D-03  0.54907517D-03 -0.85502341D-18  0.34113959D-17
  0.22615539D-03 -0.12626991D-03  0.23048983D-03 -0.10421992D-03  0.13854621D-17
 -0.21077358D-17 -0.72617910D-03 -0.38165818D-04  0.36149443D-04  0.20163756D-05
  0.17509919D-19 -0.15269632D-18 -0.16571249D-03 -0.10259253D-17  0.14701876D-03
 -0.11931201D-03  0.51611349D-18  0.17092218D-03  0.14026674D-03  0.25616625D-17
 -0.61197847D-03  0.21766929D-03  0.34285544D-17  0.39090741D-18  0.12760910D-03
  0.22051145D-05  0.19213098D-18 -0.17470198D-03  0.58864854D-04 -0.13648532D-17
 -0.20812532D-03 -0.65480197D-04  0.53897251D-18  0.41343757D+00  0.77038003D+00
  0.13029058D+01  0.19621039D+01  0.24292119D+01  0.20671497D+01  0.78658859D+00
 -0.36839299D-02 -0.22669435D-02 -0.42505402D-02 -0.72314336D-02 -0.11229653D-01
 -0.14902402D-01 -0.15705087D-01 -0.97381555D-02  0.64778248D-02  0.41858948D-01
  0.22115158D-02  0.12944053D-03 -0.30983997D-16 -0.29759759D-16 -0.20869597D-16
  0.13045952D-03  0.12530481D-03  0.87872379D-04 -0.43285861D-03 -0.41575552D-03
 -0.29155647D-03  0.67886333D-17 -0.53451049D-04  0.24383636D-02  0.20843779D-17
  0.54260201D-03 -0.22475907D-03  0.46790199D-18 -0.32282234D-04 -0.15698221D-03
 -0.40309481D-02  0.42776659D-03  0.36031816D-02  0.15828554D-17  0.96309334D-19
 -0.71964585D-04  0.47932327D-03 -0.95657762D-03  0.47725434D-03  0.13119704D-17
  0.21557266D-17  0.29089190D-04  0.27769277D-03 -0.18072308D-03 -0.96969693D-04
  0.30456301D-18  0.63038241D-18 -0.23853116D-03 -0.79188700D-18  0.66777884D-04
  0.23134747D-02  0.14390028D-17  0.10008657D-03 -0.21638687D-02  0.93665824D-18
 -0.30042022D-03 -0.47765553D-02  0.22285593D-18 -0.25483838D-18  0.43461908D-04
 -0.63142630D-03  0.17618324D-19  0.36182518D-05  0.23970633D-03  0.74689680D-18
 -0.13400397D-03  0.16545726D-02 -0.11893182D-17
MO    2     MO 0.0        OCC NO =    2.0000000  ORB. ENERGY =  -14.134869
 -0.30977182D-04 -0.55868624D-04 -0.82378253D-04  0.21169741D-02 -0.11568518D-03
 -0.28495565D-04 -0.19518717D-15  0.28426887D-03  0.46754766D-04  0.10452132D-16
 -0.13374595D-02 -0.60937101D-03 -0.50287702D-17  0.14681887D-04 -0.13383260D-03
 -0.52759778D-04 -0.70185927D-04  0.12294570D-03 -0.19145103D-15 -0.67379601D-15
  0.17515339D-03 -0.52836648D-04  0.71966797D-05  0.45639968D-04  0.11440628D-16
 -0.52774561D-18  0.43040920D-04  0.76310521D-04  0.13762917D-03  0.20293413D-03
  0.49534358D-03  0.23253697D-02  0.43725264D-04 -0.13148232D-17 -0.28544696D-03
  0.64014990D-03  0.41209466D-17  0.32866167D-03 -0.99802111D-03  0.21334033D-17
  0.56549665D-04  0.38319071D-03  0.18661816D-03 -0.15221946D-03 -0.34398699D-04
 -0.11244676D-17 -0.59768117D-17 -0.18254831D-04  0.12713351D-03 -0.84110275D-04
 -0.43023231D-04  0.65515084D-18  0.31218754D-17  0.10607123D-03  0.90991466D-04
  0.16410686D-03  0.24197546D-03  0.18652412D-02  0.21313317D-02  0.35423665D-04
 -0.10606575D-17  0.86502453D-03 -0.15581393D-03  0.39528816D-17 -0.35876913D-03
 -0.91554257D-03 -0.28809709D-17  0.42793280D-03  0.23527183D-03  0.15403581D-03
 -0.43068836D-04 -0.11096697D-03  0.54844111D-17 -0.10423440D-17 -0.69949306D-03
  0.10129121D-03 -0.16599049D-04 -0.84692159D-04 -0.71912150D-18  0.51365223D-18
  0.47492471D-04  0.16914755D-04  0.30506457D-04  0.44981753D-04  0.11051957D-02
  0.11022755D-02 -0.26747705D-05  0.77923896D-18 -0.27108213D-05 -0.13499490D-03
 -0.18894690D-17 -0.15934207D-02 -0.20428342D-03  0.21272693D-18 -0.19413192D-03
 -0.12518804D-03 -0.16356522D-04  0.19252572D-03 -0.17616919D-03  0.81639038D-18
  0.45274289D-17  0.77759651D-03 -0.16621067D-05 -0.14267851D-04  0.15929957D-04
  0.86597540D-18  0.15346830D-18  0.29348589D-03 -0.63936710D-04 -0.11919257D-03
 -0.20145643D-03 -0.30285501D-03 -0.37209237D-03 -0.31429149D-03 -0.11853919D-03
  0.58665705D-06  0.43810235D-04  0.82026582D-04  0.13965727D-03  0.21602857D-03
  0.28450202D-03  0.29561583D-03  0.18785059D-03 -0.12589310D-03  0.14601209D-03
 -0.15425255D-02  0.20430339D-03 -0.13918024D-17 -0.13049033D-17 -0.92916885D-18
 -0.38581791D-03 -0.36172881D-03 -0.25757246D-03  0.42979969D-04  0.40296453D-04
  0.28693475D-04  0.48510947D-17  0.13220928D-02 -0.20671033D-02  0.71134208D-17
  0.30814555D-03 -0.44302187D-03  0.17053884D-18 -0.92658446D-05  0.19446719D-04
  0.47933780D-04 -0.48028298D-04  0.94518544D-07  0.14818990D-16 -0.57680552D-17
  0.11208093D-02  0.35857448D-03 -0.22400508D-02  0.18814763D-02  0.10975047D-16
  0.44762582D-17 -0.20501706D-02 -0.30397355D-04 -0.34405828D-04  0.64803183D-04
 -0.12735475D-17 -0.17133985D-17  0.10889787D-03 -0.51382936D-18  0.53352056D-04
 -0.23229319D-03  0.10410984D-16 -0.35099546D-03 -0.77338390D-06 -0.88694957D-17
  0.19093929D-03  0.69765296D-03  0.57252491D-19 -0.10853913D-17  0.16333280D-03
 -0.14866581D-03  0.48164602D-17 -0.30978443D-06 -0.39074268D-04 -0.15602863D-17
 -0.48968863D-03  0.48507169D-03  0.72849116D-17  0.31217142D-03  0.58195851D-03
  0.98361240D-03  0.14786916D-02  0.18167435D-02  0.15345303D-02  0.57876838D-03
 -0.28643570D-05 -0.23990585D-03 -0.44917945D-03 -0.76476644D-03 -0.11829774D-02
 -0.15579396D-02 -0.16187991D-02 -0.10286741D-02  0.68939348D-03  0.67761634D-03
 -0.41078759D-02 -0.31330845D-03 -0.41193851D-17 -0.38621853D-17 -0.27501060D-17
 -0.27661550D-03 -0.25934462D-03 -0.18466882D-03 -0.13509793D-03 -0.12666290D-03
 -0.90191528D-04  0.23981041D-17 -0.19699341D-02 -0.84690858D-03 -0.56034023D-17
 -0.74856103D-04  0.13187167D-02 -0.29339223D-18  0.17069424D-04  0.30595911D-04
 -0.43909288D-03  0.98135308D-03 -0.54226020D-03 -0.21338603D-17  0.31560709D-17
  0.28476994D-03  0.31847832D-03 -0.96814299D-03  0.64966467D-03  0.16948660D-17
 -0.25789205D-18 -0.30511756D-02  0.31236467D-04 -0.14729211D-03  0.11605564D-03
 -0.18242924D-17 -0.68082495D-18  0.18080024D-03 -0.98834125D-18  0.52717461D-03
  0.92465095D-04  0.48307582D-17 -0.28009340D-03 -0.11869966D-03 -0.18657345D-17
 -0.13014304D-02 -0.15869563D-03  0.48146831D-17  0.66503962D-19  0.37140249D-03
  0.77770119D-04  0.16197077D-18 -0.54941268D-04 -0.17119429D-03 -0.36148265D-18
 -0.10592662D-02 -0.62116069D-04  0.45787532D-17  0.47188207D-03  0.87969546D-03
  0.14868403D-02  0.22352080D-02  0.27462113D-02  0.23196144D-02  0.87487322D-03
 -0.43297964D-05 -0.36029570D-03 -0.67458723D-03 -0.11485425D-02 -0.17766206D-02
 -0.23397468D-02 -0.24311468D-02 -0.15448847D-02  0.10353458D-02  0.16048354D-02
 -0.33162060D-02  0.10104958D-03  0.18506046D-17  0.17350595D-17  0.12354657D-17
 -0.71477647D-04 -0.67014837D-04 -0.47718557D-04 -0.10499731D-02 -0.98441649D-03
 -0.70096319D-03 -0.47063685D-18  0.12934418D-02  0.24073400D-03 -0.13909477D-17
  0.11641608D-02 -0.52401280D-03 -0.67543920D-19  0.23299727D-04 -0.16009209D-04
 -0.81906240D-04 -0.17033326D-03  0.25223950D-03 -0.58147169D-18  0.94781590D-18
  0.68448427D-04  0.66605398D-03  0.13133414D-02 -0.19793954D-02  0.11005966D-17
 -0.23907229D-17  0.81339066D-03  0.44992064D-04  0.13427876D-03 -0.17927083D-03
 -0.20137091D-17  0.65046290D-18  0.28382069D-03 -0.67125452D-18  0.72682761D-03
  0.63784519D-03  0.17385499D-17 -0.69721911D-04 -0.92577029D-03  0.27521368D-18
 -0.21107609D-02 -0.98776526D-03  0.27186873D-17  0.59600349D-18  0.50603386D-03
  0.12938435D-03 -0.14767280D-17 -0.11873773D-03 -0.15020768D-03 -0.31128249D-18
 -0.13993639D-02 -0.23794537D-03  0.91240331D-18  0.41318880D+00  0.76991650D+00
  0.13021218D+01  0.19609233D+01  0.24277502D+01  0.20659059D+01  0.78611530D+00
 -0.36817133D-02 -0.20412268D-02 -0.38273193D-02 -0.65114088D-02 -0.10111530D-01
 -0.13418589D-01 -0.14141351D-01 -0.87685396D-02  0.58328359D-02  0.41893284D-01
  0.32968890D-02 -0.37541283D-03  0.10870536D-16  0.10441019D-16  0.73219636D-17
  0.37246226D-02  0.35774555D-02  0.25087587D-02  0.45376785D-02  0.43583860D-02
  0.30564011D-02 -0.15491192D-17  0.11953901D-03  0.22704608D-02 -0.10657490D-17
  0.58975199D-03 -0.91767543D-03  0.95576978D-20  0.58043346D-05 -0.87922572D-04
 -0.35571883D-02  0.14081231D-02  0.21490652D-02 -0.77189558D-18 -0.45151804D-17
  0.53497957D-03  0.89208976D-03 -0.82911777D-03 -0.62971989D-04  0.29537010D-18
  0.11302521D-17 -0.14548945D-02  0.20108193D-03 -0.49823695D-04 -0.15125823D-03
 -0.63571230D-18  0.11605216D-17  0.11523608D-03 -0.99591282D-18  0.31526347D-03
  0.38463807D-03  0.86152780D-18  0.13939922D-03 -0.46142258D-03  0.21262107D-17
 -0.10851896D-02 -0.69249164D-03 -0.15219400D-17  0.22641374D-18 -0.99151349D-04
 -0.21985671D-04 -0.70139650D-18  0.25264041D-03  0.44423149D-03  0.22155297D-19
  0.44813641D-04 -0.37827448D-03  0.37678591D-17 -0.60945337D-05 -0.11356266D-04
 -0.19206293D-04 -0.28923613D-04 -0.35809309D-04 -0.30472106D-04 -0.11595199D-04
  0.54305262D-07 -0.31322518D-06 -0.58730014D-06 -0.99917227D-06 -0.15516090D-05
 -0.20590754D-05 -0.21699829D-05 -0.13455278D-05  0.89504562D-06  0.61505299D-05
 -0.84566735D-03 -0.54577343D-03 -0.67477126D-17 -0.64810973D-17 -0.45449928D-17
  0.13465015D-03  0.12932986D-03  0.90695027D-04 -0.21364152D-03 -0.20520013D-03
 -0.14390050D-03  0.40922034D-17 -0.97709363D-03  0.41625838D-03  0.23577060D-17
 -0.63048353D-03  0.91784059D-04  0.17287815D-18 -0.81799761D-05 -0.86963090D-05
 -0.21518945D-03 -0.39871863D-03  0.61390808D-03  0.11974035D-16 -0.36463739D-17
  0.19408288D-02  0.94807575D-04  0.66326503D-03 -0.75807260D-03  0.35349045D-17
  0.31967209D-17 -0.15147052D-02  0.10762028D-04  0.31208843D-03 -0.32285046D-03
  0.38180927D-18  0.21591285D-18  0.16658310D-03  0.19059518D-17 -0.26106344D-03
  0.34130519D-03 -0.51657484D-17  0.97244494D-04 -0.38504506D-03 -0.55210716D-18
  0.68594584D-03 -0.63887051D-03  0.48879353D-17 -0.75506994D-18 -0.45417947D-03
 -0.87425731D-05  0.31927238D-17 -0.37487362D-03  0.20677704D-03 -0.92751401D-18
  0.17374120D-02 -0.18054932D-03 -0.28585398D-17
MO    3     MO 0.0        OCC NO =    2.0000000  ORB. ENERGY =  -10.084967
  0.13511751D-05  0.24368999D-05  0.35932076D-05  0.45226982D-03  0.12821382D-02
 -0.22609087D-04 -0.12089992D-15  0.17942573D-03  0.20251238D-03  0.30440866D-17
  0.18946817D-03  0.55934823D-04  0.25885672D-17  0.13355870D-03 -0.45511031D-03
  0.14260090D-03 -0.20028724D-03  0.57686338D-04 -0.18892041D-16 -0.23282941D-15
 -0.63831211D-03  0.25942382D-04 -0.97130460D-04  0.71188078D-04  0.17284746D-16
  0.16488172D-16 -0.52855748D-04 -0.13248042D-04 -0.23893389D-04 -0.35230789D-04
 -0.30678029D-03 -0.90451430D-04 -0.44733235D-04 -0.58196789D-18 -0.10493181D-03
  0.62632582D-04  0.31511005D-17  0.53557706D-04 -0.25737051D-03 -0.33970027D-19
  0.61029640D-03  0.38852229D-03 -0.51803486D-05  0.98367216D-04 -0.93186868D-04
  0.49628129D-19  0.76252174D-18  0.88561611D-04 -0.17560866D-04  0.11482044D-04
  0.60788214D-05 -0.62545365D-19  0.75800103D-18  0.14866975D-03  0.68997306D-04
  0.12443948D-03  0.18348594D-03  0.52943371D-04  0.11026060D-02  0.10441461D-03
  0.80050581D-18 -0.20675491D-02  0.89280313D-03 -0.74620790D-18 -0.27124672D-02
  0.89195402D-03 -0.23580679D-18 -0.16081978D-04  0.32601936D-04  0.14872396D-02
 -0.24031261D-02  0.91588653D-03  0.43010993D-19 -0.14383784D-18  0.31684340D-02
  0.29368599D-03 -0.27746532D-03 -0.16220668D-04  0.38812816D-19 -0.18224472D-18
  0.27698586D-03  0.15268663D-03  0.27537663D-03  0.40604269D-03  0.27259708D-02
  0.53459890D-03 -0.15428076D-04 -0.15023639D-18  0.97624263D-05 -0.42306017D-03