 Molden2AIM, Version 4.0.0 (06/02/2016)           Time: Mon Jul  2 20:31:13 2018
GAUSSIAN             21 MOL ORBITALS    558 PRIMITIVES       10 NUCLEI
  H    1    (CENTRE  1)   0.00000000  4.55007689 -0.29307196  CHARGE =  1.0
  H    2    (CENTRE  2)   0.00000000 -4.55007689 -0.29307196  CHARGE =  1.0
  H    3    (CENTRE  3)   0.00000000  2.40741282  3.97138795  CHARGE =  1.0
  H    4    (CENTRE  4)   0.00000000 -2.40741282  3.97138795  CHARGE =  1.0
  C    5    (CENTRE  5)   0.00000000  2.49439502 -0.12568946  CHARGE =  6.0
  C    6    (CENTRE  6)   0.00000000 -2.49439502 -0.12568946  CHARGE =  6.0
  C    7    (CENTRE  7)   0.00000000  1.30637523  2.23048154  CHARGE =  6.0
  C    8    (CENTRE  8)   0.00000000 -1.30637523  2.23048154  CHARGE =  6.0
  N    9    (CENTRE  9)   0.00000000  1.25097413 -2.31686470  CHARGE =  7.0
  N   10    (CENTRE 10)   0.00000000 -1.25097413 -2.31686470  CHARGE =  7.0
CENTRE ASSIGNMENTS    1  1  1  1  1  1  1  1  1  1  1  1  1  1  1  1  1  1  1  1
CENTRE ASSIGNMENTS    1  1  1  1  1  1  1  2  2  2  2  2  2  2  2  2  2  2  2  2
CENTRE ASSIGNMENTS    2  2  2  2  2  2  2  2  2  2  2  2  2  2  3  3  3  3  3  3
CENTRE ASSIGNMENTS    3  3  3  3  3  3  3  3  3  3  3  3  3  3  3  3  3  3  3  3
CENTRE ASSIGNMENTS    3  4  4  4  4  4  4  4  4  4  4  4  4  4  4  4  4  4  4  4
CENTRE ASSIGNMENTS    4  4  4  4  4  4  4  4  5  5  5  5  5  5  5  5  5  5  5  5
CENTRE ASSIGNMENTS    5  5  5  5  5  5  5  5  5  5  5  5  5  5  5  5  5  5  5  5
CENTRE ASSIGNMENTS    5  5  5  5  5  5  5  5  5  5  5  5  5  5  5  5  5  5  5  5
CENTRE ASSIGNMENTS    5  5  5  5  5  5  5  5  5  5  5  5  5  5  5  5  5  5  5  5
CENTRE ASSIGNMENTS    5  5  5  6  6  6  6  6  6  6  6  6  6  6  6  6  6  6  6  6
CENTRE ASSIGNMENTS    6  6  6  6  6  6  6  6  6  6  6  6  6  6  6  6  6  6  6  6
CENTRE ASSIGNMENTS    6  6  6  6  6  6  6  6  6  6  6  6  6  6  6  6  6  6  6  6
CENTRE ASSIGNMENTS    6  6  6  6  6  6  6  6  6  6  6  6  6  6  6  6  6  6  7  7
CENTRE ASSIGNMENTS    7  7  7  7  7  7  7  7  7  7  7  7  7  7  7  7  7  7  7  7
CENTRE ASSIGNMENTS    7  7  7  7  7  7  7  7  7  7  7  7  7  7  7  7  7  7  7  7
CENTRE ASSIGNMENTS    7  7  7  7  7  7  7  7  7  7  7  7  7  7  7  7  7  7  7  7
CENTRE ASSIGNMENTS    7  7  7  7  7  7  7  7  7  7  7  7  7  8  8  8  8  8  8  8
CENTRE ASSIGNMENTS    8  8  8  8  8  8  8  8  8  8  8  8  8  8  8  8  8  8  8  8
CENTRE ASSIGNMENTS    8  8  8  8  8  8  8  8  8  8  8  8  8  8  8  8  8  8  8  8
CENTRE ASSIGNMENTS    8  8  8  8  8  8  8  8  8  8  8  8  8  8  8  8  8  8  8  8
CENTRE ASSIGNMENTS    8  8  8  8  8  8  8  8  9  9  9  9  9  9  9  9  9  9  9  9
CENTRE ASSIGNMENTS    9  9  9  9  9  9  9  9  9  9  9  9  9  9  9  9  9  9  9  9
CENTRE ASSIGNMENTS    9  9  9  9  9  9  9  9  9  9  9  9  9  9  9  9  9  9  9  9
CENTRE ASSIGNMENTS    9  9  9  9  9  9  9  9  9  9  9  9  9  9  9  9  9  9  9  9
CENTRE ASSIGNMENTS    9  9  9 10 10 10 10 10 10 10 10 10 10 10 10 10 10 10 10 10
CENTRE ASSIGNMENTS   10 10 10 10 10 10 10 10 10 10 10 10 10 10 10 10 10 10 10 10
CENTRE ASSIGNMENTS   10 10 10 10 10 10 10 10 10 10 10 10 10 10 10 10 10 10 10 10
CENTRE ASSIGNMENTS   10 10 10 10 10 10 10 10 10 10 10 10 10 10 10 10 10 10
TYPE ASSIGNMENTS      1  1  1  1  1  1  2  3  4  2  3  4  2  3  4  5  6  7  8  9
TYPE ASSIGNMENTS     10  5  6  7  8  9 10  1  1  1  1  1  1  2  3  4  2  3  4  2
TYPE ASSIGNMENTS      3  4  5  6  7  8  9 10  5  6  7  8  9 10  1  1  1  1  1  1
TYPE ASSIGNMENTS      2  3  4  2  3  4  2  3  4  5  6  7  8  9 10  5  6  7  8  9
TYPE ASSIGNMENTS     10  1  1  1  1  1  1  2  3  4  2  3  4  2  3  4  5  6  7  8
TYPE ASSIGNMENTS      9 10  5  6  7  8  9 10  1  1  1  1  1  1  1  1  1  1  1  1
TYPE ASSIGNMENTS      1  1  1  1  1  1  1  2  2  2  3  3  3  4  4  4  2  3  4  2
TYPE ASSIGNMENTS      3  4  2  3  4  5  6  7  8  9 10  5  6  7  8  9 10  5  6  7
TYPE ASSIGNMENTS      8  9 10 11 12 13 17 14 15 18 19 16 20 11 12 13 17 14 15 18
TYPE ASSIGNMENTS     19 16 20  1  1  1  1  1  1  1  1  1  1  1  1  1  1  1  1  1
TYPE ASSIGNMENTS      1  1  2  2  2  3  3  3  4  4  4  2  3  4  2  3  4  2  3  4
TYPE ASSIGNMENTS      5  6  7  8  9 10  5  6  7  8  9 10  5  6  7  8  9 10 11 12
TYPE ASSIGNMENTS     13 17 14 15 18 19 16 20 11 12 13 17 14 15 18 19 16 20  1  1
TYPE ASSIGNMENTS      1  1  1  1  1  1  1  1  1  1  1  1  1  1  1  1  1  2  2  2
TYPE ASSIGNMENTS      3  3  3  4  4  4  2  3  4  2  3  4  2  3  4  5  6  7  8  9
TYPE ASSIGNMENTS     10  5  6  7  8  9 10  5  6  7  8  9 10 11 12 13 17 14 15 18
TYPE ASSIGNMENTS     19 16 20 11 12 13 17 14 15 18 19 16 20  1  1  1  1  1  1  1
TYPE ASSIGNMENTS      1  1  1  1  1  1  1  1  1  1  1  1  2  2  2  3  3  3  4  4
TYPE ASSIGNMENTS      4  2  3  4  2  3  4  2  3  4  5  6  7  8  9 10  5  6  7  8
TYPE ASSIGNMENTS      9 10  5  6  7  8  9 10 11 12 13 17 14 15 18 19 16 20 11 12
TYPE ASSIGNMENTS     13 17 14 15 18 19 16 20  1  1  1  1  1  1  1  1  1  1  1  1
TYPE ASSIGNMENTS      1  1  1  1  1  1  1  2  2  2  3  3  3  4  4  4  2  3  4  2
TYPE ASSIGNMENTS      3  4  2  3  4  5  6  7  8  9 10  5  6  7  8  9 10  5  6  7
TYPE ASSIGNMENTS      8  9 10 11 12 13 17 14 15 18 19 16 20 11 12 13 17 14 15 18
TYPE ASSIGNMENTS     19 16 20  1  1  1  1  1  1  1  1  1  1  1  1  1  1  1  1  1
TYPE ASSIGNMENTS      1  1  2  2  2  3  3  3  4  4  4  2  3  4  2  3  4  2  3  4
TYPE ASSIGNMENTS      5  6  7  8  9 10  5  6  7  8  9 10  5  6  7  8  9 10 11 12
TYPE ASSIGNMENTS     13 17 14 15 18 19 16 20 11 12 13 17 14 15 18 19 16 20
EXPONENTS  0.3387000D+02 0.5095000D+01 0.1159000D+01 0.3258000D+00 0.1027000D+00
EXPONENTS  0.2526000D-01 0.1407000D+01 0.1407000D+01 0.1407000D+01 0.3880000D+00
EXPONENTS  0.3880000D+00 0.3880000D+00 0.1020000D+00 0.1020000D+00 0.1020000D+00
EXPONENTS  0.1057000D+01 0.1057000D+01 0.1057000D+01 0.1057000D+01 0.1057000D+01
EXPONENTS  0.1057000D+01 0.2470000D+00 0.2470000D+00 0.2470000D+00 0.2470000D+00
EXPONENTS  0.2470000D+00 0.2470000D+00 0.3387000D+02 0.5095000D+01 0.1159000D+01
EXPONENTS  0.3258000D+00 0.1027000D+00 0.2526000D-01 0.1407000D+01 0.1407000D+01
EXPONENTS  0.1407000D+01 0.3880000D+00 0.3880000D+00 0.3880000D+00 0.1020000D+00
EXPONENTS  0.1020000D+00 0.1020000D+00 0.1057000D+01 0.1057000D+01 0.1057000D+01
EXPONENTS  0.1057000D+01 0.1057000D+01 0.1057000D+01 0.2470000D+00 0.2470000D+00
EXPONENTS  0.2470000D+00 0.2470000D+00 0.2470000D+00 0.2470000D+00 0.3387000D+02
EXPONENTS  0.5095000D+01 0.1159000D+01 0.3258000D+00 0.1027000D+00 0.2526000D-01
EXPONENTS  0.1407000D+01 0.1407000D+01 0.1407000D+01 0.3880000D+00 0.3880000D+00
EXPONENTS  0.3880000D+00 0.1020000D+00 0.1020000D+00 0.1020000D+00 0.1057000D+01
EXPONENTS  0.1057000D+01 0.1057000D+01 0.1057000D+01 0.1057000D+01 0.1057000D+01
EXPONENTS  0.2470000D+00 0.2470000D+00 0.2470000D+00 0.2470000D+00 0.2470000D+00
EXPONENTS  0.2470000D+00 0.3387000D+02 0.5095000D+01 0.1159000D+01 0.3258000D+00
EXPONENTS  0.1027000D+00 0.2526000D-01 0.1407000D+01 0.1407000D+01 0.1407000D+01
EXPONENTS  0.3880000D+00 0.3880000D+00 0.3880000D+00 0.1020000D+00 0.1020000D+00
EXPONENTS  0.1020000D+00 0.1057000D+01 0.1057000D+01 0.1057000D+01 0.1057000D+01
EXPONENTS  0.1057000D+01 0.1057000D+01 0.2470000D+00 0.2470000D+00 0.2470000D+00
EXPONENTS  0.2470000D+00 0.2470000D+00 0.2470000D+00 0.8236000D+04 0.1235000D+04
EXPONENTS  0.2808000D+03 0.7927000D+02 0.2559000D+02 0.8997000D+01 0.3319000D+01
EXPONENTS  0.3643000D+00 0.8236000D+04 0.1235000D+04 0.2808000D+03 0.7927000D+02
EXPONENTS  0.2559000D+02 0.8997000D+01 0.3319000D+01 0.3643000D+00 0.9059000D+00
EXPONENTS  0.1285000D+00 0.4402000D-01 0.1871000D+02 0.4133000D+01 0.1200000D+01
EXPONENTS  0.1871000D+02 0.4133000D+01 0.1200000D+01 0.1871000D+02 0.4133000D+01
EXPONENTS  0.1200000D+01 0.3827000D+00 0.3827000D+00 0.3827000D+00 0.1209000D+00
EXPONENTS  0.1209000D+00 0.1209000D+00 0.3569000D-01 0.3569000D-01 0.3569000D-01
EXPONENTS  0.1097000D+01 0.1097000D+01 0.1097000D+01 0.1097000D+01 0.1097000D+01
EXPONENTS  0.1097000D+01 0.3180000D+00 0.3180000D+00 0.3180000D+00 0.3180000D+00
EXPONENTS  0.3180000D+00 0.3180000D+00 0.1000000D+00 0.1000000D+00 0.1000000D+00
EXPONENTS  0.1000000D+00 0.1000000D+00 0.1000000D+00 0.7610000D+00 0.7610000D+00
EXPONENTS  0.7610000D+00 0.7610000D+00 0.7610000D+00 0.7610000D+00 0.7610000D+00
EXPONENTS  0.7610000D+00 0.7610000D+00 0.7610000D+00 0.2680000D+00 0.2680000D+00
EXPONENTS  0.2680000D+00 0.2680000D+00 0.2680000D+00 0.2680000D+00 0.2680000D+00
EXPONENTS  0.2680000D+00 0.2680000D+00 0.2680000D+00 0.8236000D+04 0.1235000D+04
EXPONENTS  0.2808000D+03 0.7927000D+02 0.2559000D+02 0.8997000D+01 0.3319000D+01
EXPONENTS  0.3643000D+00 0.8236000D+04 0.1235000D+04 0.2808000D+03 0.7927000D+02
EXPONENTS  0.2559000D+02 0.8997000D+01 0.3319000D+01 0.3643000D+00 0.9059000D+00
EXPONENTS  0.1285000D+00 0.4402000D-01 0.1871000D+02 0.4133000D+01 0.1200000D+01
EXPONENTS  0.1871000D+02 0.4133000D+01 0.1200000D+01 0.1871000D+02 0.4133000D+01
EXPONENTS  0.1200000D+01 0.3827000D+00 0.3827000D+00 0.3827000D+00 0.1209000D+00
EXPONENTS  0.1209000D+00 0.1209000D+00 0.3569000D-01 0.3569000D-01 0.3569000D-01
EXPONENTS  0.1097000D+01 0.1097000D+01 0.1097000D+01 0.1097000D+01 0.1097000D+01
EXPONENTS  0.1097000D+01 0.3180000D+00 0.3180000D+00 0.3180000D+00 0.3180000D+00
EXPONENTS  0.3180000D+00 0.3180000D+00 0.1000000D+00 0.1000000D+00 0.1000000D+00
EXPONENTS  0.1000000D+00 0.1000000D+00 0.1000000D+00 0.7610000D+00 0.7610000D+00
EXPONENTS  0.7610000D+00 0.7610000D+00 0.7610000D+00 0.7610000D+00 0.7610000D+00
EXPONENTS  0.7610000D+00 0.7610000D+00 0.7610000D+00 0.2680000D+00 0.2680000D+00
EXPONENTS  0.2680000D+00 0.2680000D+00 0.2680000D+00 0.2680000D+00 0.2680000D+00
EXPONENTS  0.2680000D+00 0.2680000D+00 0.2680000D+00 0.8236000D+04 0.1235000D+04
EXPONENTS  0.2808000D+03 0.7927000D+02 0.2559000D+02 0.8997000D+01 0.3319000D+01
EXPONENTS  0.3643000D+00 0.8236000D+04 0.1235000D+04 0.2808000D+03 0.7927000D+02
EXPONENTS  0.2559000D+02 0.8997000D+01 0.3319000D+01 0.3643000D+00 0.9059000D+00
EXPONENTS  0.1285000D+00 0.4402000D-01 0.1871000D+02 0.4133000D+01 0.1200000D+01
EXPONENTS  0.1871000D+02 0.4133000D+01 0.1200000D+01 0.1871000D+02 0.4133000D+01
EXPONENTS  0.1200000D+01 0.3827000D+00 0.3827000D+00 0.3827000D+00 0.1209000D+00
EXPONENTS  0.1209000D+00 0.1209000D+00 0.3569000D-01 0.3569000D-01 0.3569000D-01
EXPONENTS  0.1097000D+01 0.1097000D+01 0.1097000D+01 0.1097000D+01 0.1097000D+01
EXPONENTS  0.1097000D+01 0.3180000D+00 0.3180000D+00 0.3180000D+00 0.3180000D+00
EXPONENTS  0.3180000D+00 0.3180000D+00 0.1000000D+00 0.1000000D+00 0.1000000D+00
EXPONENTS  0.1000000D+00 0.1000000D+00 0.1000000D+00 0.7610000D+00 0.7610000D+00
EXPONENTS  0.7610000D+00 0.7610000D+00 0.7610000D+00 0.7610000D+00 0.7610000D+00
EXPONENTS  0.7610000D+00 0.7610000D+00 0.7610000D+00 0.2680000D+00 0.2680000D+00
EXPONENTS  0.2680000D+00 0.2680000D+00 0.2680000D+00 0.2680000D+00 0.2680000D+00
EXPONENTS  0.2680000D+00 0.2680000D+00 0.2680000D+00 0.8236000D+04 0.1235000D+04
EXPONENTS  0.2808000D+03 0.7927000D+02 0.2559000D+02 0.8997000D+01 0.3319000D+01
EXPONENTS  0.3643000D+00 0.8236000D+04 0.1235000D+04 0.2808000D+03 0.7927000D+02
EXPONENTS  0.2559000D+02 0.8997000D+01 0.3319000D+01 0.3643000D+00 0.9059000D+00
EXPONENTS  0.1285000D+00 0.4402000D-01 0.1871000D+02 0.4133000D+01 0.1200000D+01
EXPONENTS  0.1871000D+02 0.4133000D+01 0.1200000D+01 0.1871000D+02 0.4133000D+01
EXPONENTS  0.1200000D+01 0.3827000D+00 0.3827000D+00 0.3827000D+00 0.1209000D+00
EXPONENTS  0.1209000D+00 0.1209000D+00 0.3569000D-01 0.3569000D-01 0.3569000D-01
EXPONENTS  0.1097000D+01 0.1097000D+01 0.1097000D+01 0.1097000D+01 0.1097000D+01
EXPONENTS  0.1097000D+01 0.3180000D+00 0.3180000D+00 0.3180000D+00 0.3180000D+00
EXPONENTS  0.3180000D+00 0.3180000D+00 0.1000000D+00 0.1000000D+00 0.1000000D+00
EXPONENTS  0.1000000D+00 0.1000000D+00 0.1000000D+00 0.7610000D+00 0.7610000D+00
EXPONENTS  0.7610000D+00 0.7610000D+00 0.7610000D+00 0.7610000D+00 0.7610000D+00
EXPONENTS  0.7610000D+00 0.7610000D+00 0.7610000D+00 0.2680000D+00 0.2680000D+00
EXPONENTS  0.2680000D+00 0.2680000D+00 0.2680000D+00 0.2680000D+00 0.2680000D+00
EXPONENTS  0.2680000D+00 0.2680000D+00 0.2680000D+00 0.1142000D+05 0.1712000D+04
EXPONENTS  0.3893000D+03 0.1100000D+03 0.3557000D+02 0.1254000D+02 0.4644000D+01
EXPONENTS  0.5118000D+00 0.1142000D+05 0.1712000D+04 0.3893000D+03 0.1100000D+03
EXPONENTS  0.3557000D+02 0.1254000D+02 0.4644000D+01 0.5118000D+00 0.1293000D+01
EXPONENTS  0.1787000D+00 0.5760000D-01 0.2663000D+02 0.5948000D+01 0.1742000D+01
EXPONENTS  0.2663000D+02 0.5948000D+01 0.1742000D+01 0.2663000D+02 0.5948000D+01
EXPONENTS  0.1742000D+01 0.5550000D+00 0.5550000D+00 0.5550000D+00 0.1725000D+00
EXPONENTS  0.1725000D+00 0.1725000D+00 0.4910000D-01 0.4910000D-01 0.4910000D-01
EXPONENTS  0.1654000D+01 0.1654000D+01 0.1654000D+01 0.1654000D+01 0.1654000D+01
EXPONENTS  0.1654000D+01 0.4690000D+00 0.4690000D+00 0.4690000D+00 0.4690000D+00
EXPONENTS  0.4690000D+00 0.4690000D+00 0.1510000D+00 0.1510000D+00 0.1510000D+00
EXPONENTS  0.1510000D+00 0.1510000D+00 0.1510000D+00 0.1093000D+01 0.1093000D+01
EXPONENTS  0.1093000D+01 0.1093000D+01 0.1093000D+01 0.1093000D+01 0.1093000D+01
EXPONENTS  0.1093000D+01 0.1093000D+01 0.1093000D+01 0.3640000D+00 0.3640000D+00
EXPONENTS  0.3640000D+00 0.3640000D+00 0.3640000D+00 0.3640000D+00 0.3640000D+00
EXPONENTS  0.3640000D+00 0.3640000D+00 0.3640000D+00 0.1142000D+05 0.1712000D+04
EXPONENTS  0.3893000D+03 0.1100000D+03 0.3557000D+02 0.1254000D+02 0.4644000D+01
EXPONENTS  0.5118000D+00 0.1142000D+05 0.1712000D+04 0.3893000D+03 0.1100000D+03
EXPONENTS  0.3557000D+02 0.1254000D+02 0.4644000D+01 0.5118000D+00 0.1293000D+01
EXPONENTS  0.1787000D+00 0.5760000D-01 0.2663000D+02 0.5948000D+01 0.1742000D+01
EXPONENTS  0.2663000D+02 0.5948000D+01 0.1742000D+01 0.2663000D+02 0.5948000D+01
EXPONENTS  0.1742000D+01 0.5550000D+00 0.5550000D+00 0.5550000D+00 0.1725000D+00
EXPONENTS  0.1725000D+00 0.1725000D+00 0.4910000D-01 0.4910000D-01 0.4910000D-01
EXPONENTS  0.1654000D+01 0.1654000D+01 0.1654000D+01 0.1654000D+01 0.1654000D+01
EXPONENTS  0.1654000D+01 0.4690000D+00 0.4690000D+00 0.4690000D+00 0.4690000D+00
EXPONENTS  0.4690000D+00 0.4690000D+00 0.1510000D+00 0.1510000D+00 0.1510000D+00
EXPONENTS  0.1510000D+00 0.1510000D+00 0.1510000D+00 0.1093000D+01 0.1093000D+01
EXPONENTS  0.1093000D+01 0.1093000D+01 0.1093000D+01 0.1093000D+01 0.1093000D+01
EXPONENTS  0.1093000D+01 0.1093000D+01 0.1093000D+01 0.3640000D+00 0.3640000D+00
EXPONENTS  0.3640000D+00 0.3640000D+00 0.3640000D+00 0.3640000D+00 0.3640000D+00
EXPONENTS  0.3640000D+00 0.3640000D+00 0.3640000D+00
MO    1     MO 0.0        OCC NO =    2.0000000  ORB. ENERGY =  -14.191919
  0.72903744D-04  0.13148490D-03  0.19387441D-03  0.44198842D-03  0.18385696D-02
 -0.96465818D-05  0.98329102D-16 -0.33847093D-03  0.50457903D-04  0.13148583D-16
  0.13525558D-02 -0.27666892D-03 -0.38690441D-17 -0.25266461D-03  0.16594137D-03
  0.39681460D-03 -0.43396398D-03  0.37149384D-04 -0.15393645D-16  0.12529989D-15
  0.68591731D-06  0.12594042D-03 -0.16889674D-03  0.42956316D-04  0.72280661D-18
 -0.14856598D-16 -0.41100218D-04  0.72903744D-04  0.13148491D-03  0.19387442D-03
  0.44198842D-03  0.18385696D-02 -0.96465819D-05  0.97014551D-18  0.33847093D-03
  0.50457904D-04 -0.24362903D-17 -0.13525558D-02 -0.27666891D-03  0.44140741D-18
  0.25266461D-03  0.16594137D-03  0.39681460D-03 -0.43396398D-03  0.37149384D-04
 -0.16367537D-18 -0.13011294D-17 -0.68591226D-06  0.12594042D-03 -0.16889674D-03
  0.42956316D-04 -0.22795182D-18 -0.29064852D-18  0.41100219D-04 -0.14872196D-04
 -0.26822619D-04 -0.39549936D-04  0.63401526D-03 -0.81405106D-03  0.20866459D-04
  0.75739938D-19 -0.47602006D-04  0.81247192D-04 -0.58619603D-17  0.14710581D-03
 -0.14893900D-02  0.76555184D-18  0.60368291D-05  0.10649610D-03 -0.21211278D-03
 -0.19525271D-03  0.40736549D-03  0.21368373D-17  0.44534160D-17 -0.24592369D-04
 -0.61535005D-04 -0.43620693D-04  0.10515570D-03 -0.50542697D-18  0.67749795D-18
  0.13857129D-03 -0.14872197D-04 -0.26822619D-04 -0.39549936D-04  0.63401528D-03
 -0.81405103D-03  0.20866459D-04  0.72573848D-18  0.47602006D-04  0.81247192D-04
 -0.19206612D-17 -0.14710580D-03 -0.14893900D-02 -0.18186601D-17 -0.60368274D-05
  0.10649609D-03 -0.21211278D-03 -0.19525271D-03  0.40736549D-03  0.15402813D-17
  0.13717582D-18  0.24592367D-04 -0.61535006D-04 -0.43620693D-04  0.10515570D-03
 -0.15162011D-17  0.80465596D-18 -0.13857129D-03  0.36285493D-03  0.67644409D-03
  0.11433097D-02  0.17187689D-02  0.21117062D-02  0.17836735D-02  0.67273602D-03
 -0.33294081D-05 -0.28158303D-03 -0.52721227D-03 -0.89762400D-03 -0.13884878D-02
 -0.18285896D-02 -0.19000218D-02 -0.12073785D-02  0.80915702D-03  0.11283988D-02
 -0.24288587D-02 -0.10630953D-02 -0.75360379D-17 -0.70655146D-17 -0.50310673D-17
 -0.57277198D-03 -0.53701014D-03 -0.38238321D-03 -0.27402960D-03 -0.25692017D-03
 -0.18294247D-03  0.74479393D-17  0.11502899D-02 -0.27408114D-02  0.52336194D-17
 -0.17880276D-02  0.71480673D-03  0.52308556D-18  0.17443005D-04 -0.59881235D-04
 -0.24881621D-03 -0.90133523D-04  0.33894974D-03 -0.11300638D-16 -0.50169098D-17
  0.72414304D-03  0.44183829D-03  0.91513166D-03 -0.13569699D-02 -0.38042882D-17
  0.98483763D-17 -0.31398992D-03  0.41628264D-04  0.54226199D-04 -0.95854462D-04
  0.17961127D-17 -0.16875832D-18 -0.38672051D-03  0.35232601D-18 -0.44863952D-04
 -0.17861094D-03 -0.26755645D-17 -0.68662164D-03 -0.16496934D-03  0.16185865D-17
  0.82121349D-03  0.70080217D-03 -0.26823393D-17 -0.42708968D-18 -0.32572254D-03
 -0.15751659D-04 -0.13767322D-17  0.15023200D-03 -0.30882845D-03  0.26580012D-17
  0.82693560D-03  0.35608343D-03 -0.25867472D-17  0.36285493D-03  0.67644409D-03
  0.11433097D-02  0.17187689D-02  0.21117062D-02  0.17836735D-02  0.67273602D-03
 -0.33294081D-05 -0.28158303D-03 -0.52721227D-03 -0.89762401D-03 -0.13884878D-02
 -0.18285897D-02 -0.19000218D-02 -0.12073785D-02  0.80915702D-03  0.11283988D-02
 -0.24288587D-02 -0.10630953D-02  0.21208913D-17  0.19884704D-17  0.14159094D-17
  0.57277198D-03  0.53701014D-03  0.38238321D-03 -0.27402961D-03 -0.25692017D-03
 -0.18294247D-03 -0.28600227D-17 -0.11502899D-02 -0.27408114D-02  0.16491180D-17
  0.17880276D-02  0.71480673D-03 -0.14885289D-18 -0.17443005D-04 -0.59881236D-04
 -0.24881621D-03 -0.90133525D-04  0.33894974D-03 -0.19641551D-17  0.12436097D-17
 -0.72414305D-03  0.44183829D-03  0.91513167D-03 -0.13569700D-02 -0.11528209D-17
  0.56641084D-20  0.31398993D-03  0.41628263D-04  0.54226200D-04 -0.95854464D-04
  0.57189081D-18  0.64880712D-18  0.38672051D-03  0.22097155D-18  0.44863953D-04
 -0.17861094D-03 -0.71407125D-18  0.68662164D-03 -0.16496935D-03  0.51156594D-19
 -0.82121350D-03  0.70080217D-03  0.54469547D-17 -0.13363415D-18  0.32572254D-03
 -0.15751659D-04  0.11904659D-17 -0.15023200D-03 -0.30882845D-03 -0.78956345D-18
 -0.82693561D-03  0.35608343D-03 -0.14501242D-17 -0.62444676D-04 -0.11641107D-03
 -0.19675522D-03 -0.29578755D-03 -0.36340918D-03 -0.30695714D-03 -0.11577294D-03
  0.57296675D-06  0.50053334D-04  0.93715635D-04  0.15955889D-03  0.24681334D-03
  0.32504448D-03  0.33774204D-03  0.21461990D-03 -0.14383327D-03 -0.41980144D-03
 -0.98605238D-03  0.10550837D-02  0.26208734D-17  0.24572354D-17  0.17496980D-17
 -0.25991427D-04 -0.24368615D-04 -0.17351905D-04  0.32414629D-03  0.30390775D-03
  0.21640043D-03 -0.41222905D-17  0.10520080D-02 -0.24584141D-02  0.62929981D-18
  0.58493114D-03  0.85950621D-03 -0.50416665D-18  0.33938208D-04 -0.44148089D-04
 -0.14935546D-03 -0.23901601D-03  0.38837148D-03  0.74279269D-17 -0.48249522D-17
  0.31176760D-04 -0.67187721D-04  0.11802943D-03 -0.50841711D-04 -0.97071885D-17
  0.10235956D-16 -0.22178755D-02 -0.76810627D-04  0.19550550D-03 -0.11869487D-03
 -0.94585588D-18 -0.59174932D-18 -0.12918237D-03 -0.66393332D-19 -0.69566525D-04
  0.12069194D-03  0.72490910D-18  0.42831603D-04  0.14978395D-03 -0.52572911D-18
  0.16586797D-03 -0.51185976D-03 -0.30841725D-18 -0.17611310D-18 -0.24180078D-03
  0.15770574D-03  0.17731053D-17  0.10518765D-03 -0.13618912D-03 -0.12447660D-17
  0.62021469D-03 -0.33692812D-03  0.67111195D-17 -0.62444673D-04 -0.11641107D-03
 -0.19675521D-03 -0.29578753D-03 -0.36340916D-03 -0.30695713D-03 -0.11577294D-03
  0.57296672D-06  0.50053333D-04  0.93715632D-04  0.15955888D-03  0.24681333D-03
  0.32504447D-03  0.33774202D-03  0.21461990D-03 -0.14383326D-03 -0.41980144D-03
 -0.98605241D-03  0.10550837D-02  0.77768714D-18  0.72913113D-18  0.51918480D-18
  0.25991428D-04  0.24368616D-04  0.17351906D-04  0.32414629D-03  0.30390775D-03
  0.21640043D-03 -0.17686454D-17 -0.10520080D-02 -0.24584141D-02 -0.23445524D-17
 -0.58493114D-03  0.85950621D-03  0.31376719D-18 -0.33938208D-04 -0.44148088D-04
 -0.14935546D-03 -0.23901601D-03  0.38837148D-03  0.97935599D-18 -0.60579903D-18
 -0.31176761D-04 -0.67187717D-04  0.11802943D-03 -0.50841716D-04 -0.60212765D-17
  0.22402717D-17  0.22178755D-02 -0.76810627D-04  0.19550550D-03 -0.11869488D-03
 -0.42989348D-19  0.12640850D-17  0.12918238D-03  0.36742381D-18  0.69566524D-04
  0.12069194D-03 -0.15387355D-17 -0.42831601D-04  0.14978395D-03  0.43646406D-18
 -0.16586797D-03 -0.51185976D-03  0.11861677D-17  0.55098064D-19  0.24180078D-03
  0.15770574D-03 -0.87395334D-18 -0.10518765D-03 -0.13618911D-03  0.70865915D-18
 -0.62021469D-03 -0.33692812D-03  0.81088693D-18  0.29228895D+00  0.54463742D+00
  0.92111842D+00  0.13871533D+01  0.17173858D+01  0.14614178D+01  0.55609643D+00
 -0.26044368D-02 -0.15374664D-02 -0.28827638D-02 -0.49044390D-02 -0.76160759D-02
 -0.10106976D-01 -0.10651365D-01 -0.66045258D-02  0.43933331D-02  0.29973970D-01
  0.17229028D-02 -0.14321209D-04 -0.22818906D-16 -0.21917286D-16 -0.15369914D-16
 -0.32880026D-02 -0.31580871D-02 -0.22146687D-02  0.41269160D-02  0.39638535D-02
  0.27797277D-02  0.49935690D-17 -0.63584724D-03  0.68569094D-03  0.33384745D-17
  0.10248360D-02 -0.60995977D-03 -0.24529459D-18 -0.26733646D-04  0.65002586D-05
 -0.29349606D-02  0.22449942D-02  0.68996643D-03  0.10346928D-16 -0.94572999D-17
  0.12788868D-02  0.91155203D-03 -0.78458924D-03 -0.12696279D-03 -0.45750272D-17
  0.16983451D-17 -0.33080182D-03  0.19730490D-03 -0.20614228D-03  0.88373767D-05
 -0.23500445D-17 -0.27135471D-18 -0.10871837D-03 -0.93557557D-18  0.36408092D-04
  0.14700092D-03  0.55211429D-17 -0.77447498D-04 -0.12682566D-03 -0.27144162D-17
 -0.31776777D-04 -0.31417710D-03 -0.31071379D-17 -0.22338935D-19  0.36390824D-03
 -0.57045983D-04  0.28673019D-18 -0.40190956D-03  0.24434989D-03 -0.21971339D-18
 -0.68981515D-03 -0.73211945D-04 -0.47048976D-18  0.29228895D+00  0.54463742D+00
  0.92111842D+00  0.13871533D+01  0.17173858D+01  0.14614178D+01  0.55609643D+00
 -0.26044368D-02 -0.15374664D-02 -0.28827638D-02 -0.49044390D-02 -0.76160760D-02
 -0.10106976D-01 -0.10651365D-01 -0.66045259D-02  0.43933331D-02  0.29973970D-01
  0.17229028D-02 -0.14321198D-04  0.51222859D-17  0.49198944D-17  0.34501695D-17
  0.32880026D-02  0.31580872D-02  0.22146687D-02  0.41269160D-02  0.39638535D-02
  0.27797277D-02 -0.15061902D-17  0.63584723D-03  0.68569095D-03 -0.27737394D-17
 -0.10248360D-02 -0.60995978D-03  0.17623231D-18  0.26733647D-04  0.65002588D-05
 -0.29349606D-02  0.22449942D-02  0.68996644D-03 -0.16805445D-17 -0.12304264D-17
 -0.12788868D-02  0.91155203D-03 -0.78458924D-03 -0.12696280D-03 -0.32480921D-17
  0.19088423D-17  0.33080181D-03  0.19730490D-03 -0.20614227D-03  0.88373745D-05
 -0.23010125D-17  0.26898522D-18  0.10871837D-03  0.39579467D-18 -0.36408089D-04
  0.14700092D-03 -0.84711292D-18  0.77447498D-04 -0.12682566D-03 -0.34027108D-18
  0.31776770D-04 -0.31417710D-03 -0.15090156D-17  0.92878511D-19 -0.36390824D-03
 -0.57045983D-04 -0.10480616D-17  0.40190956D-03  0.24434990D-03  0.76942611D-18
  0.68981515D-03 -0.73211949D-04 -0.51844273D-18
MO    2     MO 0.0        OCC NO =    2.0000000  ORB. ENERGY =  -14.191775
  0.77132010D-04  0.13911076D-03  0.20511873D-03 -0.13848243D-03 -0.88201668D-03
 -0.12795512D-04 -0.22398382D-15 -0.22032221D-03  0.25530454D-03  0.11085582D-15
  0.14951860D-02  0.47237016D-03 -0.38440735D-16  0.57848342D-05  0.22005856D-03
  0.33969133D-03 -0.27647985D-03 -0.63211478D-04 -0.17144949D-16 -0.40941767D-16
 -0.10371569D-02  0.14343117D-03 -0.10702330D-03 -0.36407872D-04  0.10671389D-16
 -0.98980496D-18 -0.11900984D-03 -0.77132010D-04 -0.13911076D-03 -0.20511873D-03
  0.13848243D-03  0.88201669D-03  0.12795512D-04 -0.33184731D-18 -0.22032221D-03
 -0.25530454D-03 -0.47247444D-18  0.14951860D-02 -0.47237016D-03  0.11183916D-18
  0.57848354D-05 -0.22005856D-03 -0.33969133D-03  0.27647985D-03  0.63211478D-04
 -0.22369468D-18  0.92501730D-18 -0.10371569D-02 -0.14343117D-03  0.10702330D-03
  0.36407872D-04  0.37955895D-18 -0.15838854D-18 -0.11900984D-03 -0.31851447D-04
 -0.57445396D-04 -0.84703203D-04  0.47495586D-02  0.46067874D-02 -0.42079852D-04
  0.40444839D-18 -0.15386933D-03 -0.57712489D-05 -0.73467270D-17 -0.11856011D-02
 -0.28949055D-02  0.42171227D-18 -0.33268867D-03 -0.42501736D-03 -0.34352024D-03
 -0.92828789D-04  0.43634903D-03  0.10939152D-17  0.47964690D-18  0.50661746D-03
 -0.99393816D-04 -0.11397176D-04  0.11079099D-03  0.64814087D-18  0.11692805D-17
  0.12094548D-03  0.31851447D-04  0.57445396D-04  0.84703203D-04 -0.47495586D-02
 -0.46067874D-02  0.42079853D-04 -0.50935765D-18 -0.15386933D-03  0.57712493D-05
 -0.27156327D-18 -0.11856011D-02  0.28949055D-02 -0.12369158D-17 -0.33268867D-03
  0.42501736D-03  0.34352024D-03  0.92828788D-04 -0.43634903D-03 -0.41938688D-19
 -0.74512332D-18  0.50661746D-03  0.99393816D-04  0.11397175D-04 -0.11079099D-03
  0.67377100D-19  0.93525389D-18  0.12094548D-03  0.20568563D-03  0.38344479D-03
  0.64808924D-03  0.97429042D-03  0.11970284D-02  0.10110818D-02  0.38134286D-03
 -0.18872871D-05 -0.15941714D-03 -0.29847918D-03 -0.50818635D-03 -0.78608701D-03
 -0.10352489D-02 -0.10756900D-02 -0.68355268D-03  0.45810111D-03  0.77543049D-03
  0.31076875D-02 -0.10666450D-02 -0.75931379D-17 -0.71190494D-17 -0.50691873D-17
 -0.28275267D-03 -0.26509860D-03 -0.18876600D-03 -0.39919441D-03 -0.37427013D-03
 -0.26650263D-03  0.11119589D-16  0.11368240D-02 -0.18741092D-02  0.57606782D-17
 -0.23524570D-02  0.18004430D-03 -0.25350529D-18  0.35449941D-04 -0.59442008D-04
 -0.72566838D-04 -0.25624321D-03  0.32881004D-03 -0.65230020D-17 -0.52022836D-17
  0.48905507D-03  0.23170394D-03  0.15745423D-02 -0.18062462D-02  0.10163584D-16
  0.64404469D-17 -0.19955436D-02 -0.32543147D-04  0.30121710D-03 -0.26867395D-03
  0.11226280D-17 -0.61261832D-20 -0.44419869D-03  0.11883024D-17 -0.31317629D-03
  0.27341911D-03 -0.20373878D-17 -0.21833419D-03 -0.45085326D-03 -0.15275195D-17
  0.11578631D-02 -0.36940406D-03 -0.52109316D-17 -0.13681112D-17 -0.50275481D-03
 -0.69757389D-04  0.24001138D-17  0.19436568D-04 -0.16664612D-03  0.17042198D-17
  0.14888279D-02  0.37591829D-03  0.22844758D-18 -0.20568563D-03 -0.38344479D-03
 -0.64808924D-03 -0.97429041D-03 -0.11970283D-02 -0.10110818D-02 -0.38134285D-03
  0.18872871D-05  0.15941714D-03  0.29847918D-03  0.50818634D-03  0.78608700D-03
  0.10352489D-02  0.10756899D-02  0.68355267D-03 -0.45810111D-03 -0.77543048D-03
 -0.31076875D-02  0.10666450D-02  0.11922523D-17  0.11178123D-17  0.79594894D-18
 -0.28275267D-03 -0.26509860D-03 -0.18876600D-03  0.39919441D-03  0.37427013D-03
  0.26650263D-03 -0.12109882D-17  0.11368240D-02  0.18741091D-02 -0.53292449D-18
 -0.23524569D-02 -0.18004430D-03  0.17641579D-18  0.35449941D-04  0.59442007D-04
  0.72566837D-04  0.25624321D-03 -0.32881004D-03 -0.23137154D-17  0.88804683D-18
  0.48905507D-03 -0.23170393D-03 -0.15745423D-02  0.18062462D-02  0.70480881D-18
  0.28365349D-17 -0.19955436D-02  0.32543148D-04 -0.30121710D-03  0.26867395D-03
  0.79745820D-19  0.77538897D-18 -0.44419869D-03 -0.92379033D-20 -0.31317629D-03
 -0.27341911D-03 -0.55385334D-18 -0.21833419D-03  0.45085326D-03  0.58156705D-18
  0.11578631D-02  0.36940407D-03  0.53493744D-17  0.41376297D-19 -0.50275481D-03
  0.69757389D-04  0.75531221D-18  0.19436568D-04  0.16664612D-03 -0.87944110D-18
  0.14888279D-02 -0.37591828D-03  0.92500526D-18  0.49522017D-03  0.92320298D-03
  0.15603757D-02  0.23457558D-02  0.28820320D-02  0.24343367D-02  0.91814225D-03
 -0.45439372D-05 -0.36912159D-03 -0.69111209D-03 -0.11766775D-02 -0.18201411D-02
 -0.23970618D-02 -0.24907008D-02 -0.15827285D-02  0.10607079D-02  0.13663265D-02
 -0.61800776D-02  0.26634625D-03  0.12420156D-17  0.11644685D-17  0.82917097D-18
 -0.26772487D-03 -0.25100909D-03 -0.17873342D-03 -0.11677960D-03 -0.10948830D-03
 -0.77962192D-04 -0.27923032D-17  0.88337898D-04 -0.21842297D-02  0.15538655D-17
  0.14403314D-03  0.15596861D-02  0.50853508D-18  0.62780908D-04  0.54514616D-05
  0.32734735D-04 -0.40370040D-03  0.37096567D-03  0.62473788D-17 -0.21406602D-17
  0.21602315D-03  0.82306395D-03  0.24893239D-03 -0.10719963D-02 -0.43642189D-17
  0.63624877D-17 -0.51636036D-02  0.62082087D-04  0.22895559D-03 -0.29103768D-03
 -0.11928898D-17 -0.68237685D-18 -0.78435788D-03  0.33601589D-18  0.20903938D-03
 -0.22663594D-04  0.15104497D-17 -0.30364116D-03 -0.12361891D-03 -0.25184973D-17
 -0.32347697D-03  0.19160969D-03 -0.22853256D-17 -0.15743497D-18 -0.26330575D-03
 -0.10212324D-04 -0.47879220D-18  0.19786712D-03  0.52700655D-04  0.95109710D-18
  0.59205012D-03 -0.22063685D-04  0.66652066D-17 -0.49522017D-03 -0.92320299D-03
 -0.15603757D-02 -0.23457558D-02 -0.28820320D-02 -0.24343367D-02 -0.91814225D-03
  0.45439372D-05  0.36912159D-03  0.69111209D-03  0.11766775D-02  0.18201411D-02
  0.23970618D-02  0.24907008D-02  0.15827285D-02 -0.10607079D-02 -0.13663265D-02
  0.61800776D-02 -0.26634624D-03 -0.10366785D-17 -0.97195198D-18 -0.69208771D-18
 -0.26772487D-03 -0.25100909D-03 -0.17873342D-03  0.11677960D-03  0.10948830D-03
  0.77962193D-04 -0.27791735D-18  0.88337893D-04  0.21842296D-02 -0.29617883D-17
  0.14403314D-03 -0.15596861D-02 -0.39971981D-18  0.62780908D-04 -0.54514619D-05
 -0.32734735D-04  0.40370040D-03 -0.37096566D-03  0.85345808D-18 -0.36759598D-17
  0.21602315D-03 -0.82306395D-03 -0.24893239D-03  0.10719963D-02 -0.16272498D-17
  0.47475580D-17 -0.51636036D-02 -0.62082087D-04 -0.22895559D-03  0.29103768D-03
 -0.59373230D-18  0.81837383D-18 -0.78435788D-03  0.46264465D-18  0.20903938D-03