 Molden2AIM, Version 4.0.0 (06/02/2016)           Time: Mon Jul  2 19:22:21 2018
GAUSSIAN             22 MOL ORBITALS    512 PRIMITIVES        8 NUCLEI
  N    1    (CENTRE  1)   2.51446391 -1.26602769  0.00000000  CHARGE =  7.0
  C    2    (CENTRE  2)   2.38906547  1.31985653  0.00000000  CHARGE =  6.0
  C    3    (CENTRE  3)   0.01359280  2.33620416  0.00000000  CHARGE =  6.0
  S    4    (CENTRE  4)  -2.19470524 -0.05733618  0.00000000  CHARGE = 16.0
  C    5    (CENTRE  5)   0.25603899 -2.23523231  0.00000000  CHARGE =  6.0
  H    6    (CENTRE  6)   4.12963740  2.41579186  0.00000000  CHARGE =  1.0
  H    7    (CENTRE  7)  -0.54307138  4.31165393  0.00000000  CHARGE =  1.0
  H    8    (CENTRE  8)  -0.13424614 -4.25524182  0.00000000  CHARGE =  1.0
CENTRE ASSIGNMENTS    1  1  1  1  1  1  1  1  1  1  1  1  1  1  1  1  1  1  1  1
CENTRE ASSIGNMENTS    1  1  1  1  1  1  1  1  1  1  1  1  1  1  1  1  1  1  1  1
CENTRE ASSIGNMENTS    1  1  1  1  1  1  1  1  1  1  1  1  1  1  1  1  1  1  1  1
CENTRE ASSIGNMENTS    1  1  1  1  1  1  1  1  1  1  1  1  1  1  1  2  2  2  2  2
CENTRE ASSIGNMENTS    2  2  2  2  2  2  2  2  2  2  2  2  2  2  2  2  2  2  2  2
CENTRE ASSIGNMENTS    2  2  2  2  2  2  2  2  2  2  2  2  2  2  2  2  2  2  2  2
CENTRE ASSIGNMENTS    2  2  2  2  2  2  2  2  2  2  2  2  2  2  2  2  2  2  2  2
CENTRE ASSIGNMENTS    2  2  2  2  2  2  2  2  2  2  3  3  3  3  3  3  3  3  3  3
CENTRE ASSIGNMENTS    3  3  3  3  3  3  3  3  3  3  3  3  3  3  3  3  3  3  3  3
CENTRE ASSIGNMENTS    3  3  3  3  3  3  3  3  3  3  3  3  3  3  3  3  3  3  3  3
CENTRE ASSIGNMENTS    3  3  3  3  3  3  3  3  3  3  3  3  3  3  3  3  3  3  3  3
CENTRE ASSIGNMENTS    3  3  3  3  3  4  4  4  4  4  4  4  4  4  4  4  4  4  4  4
CENTRE ASSIGNMENTS    4  4  4  4  4  4  4  4  4  4  4  4  4  4  4  4  4  4  4  4
CENTRE ASSIGNMENTS    4  4  4  4  4  4  4  4  4  4  4  4  4  4  4  4  4  4  4  4
CENTRE ASSIGNMENTS    4  4  4  4  4  4  4  4  4  4  4  4  4  4  4  4  4  4  4  4
CENTRE ASSIGNMENTS    4  4  4  4  4  4  4  4  4  4  4  4  4  4  4  4  4  4  4  4
CENTRE ASSIGNMENTS    4  4  4  4  4  4  4  4  4  4  4  4  4  4  4  4  4  4  4  4
CENTRE ASSIGNMENTS    4  4  4  4  4  4  4  4  4  4  4  4  4  4  4  4  5  5  5  5
CENTRE ASSIGNMENTS    5  5  5  5  5  5  5  5  5  5  5  5  5  5  5  5  5  5  5  5
CENTRE ASSIGNMENTS    5  5  5  5  5  5  5  5  5  5  5  5  5  5  5  5  5  5  5  5
CENTRE ASSIGNMENTS    5  5  5  5  5  5  5  5  5  5  5  5  5  5  5  5  5  5  5  5
CENTRE ASSIGNMENTS    5  5  5  5  5  5  5  5  5  5  5  6  6  6  6  6  6  6  6  6
CENTRE ASSIGNMENTS    6  6  6  6  6  6  6  6  6  6  6  6  6  6  6  6  6  6  7  7
CENTRE ASSIGNMENTS    7  7  7  7  7  7  7  7  7  7  7  7  7  7  7  7  7  7  7  7
CENTRE ASSIGNMENTS    7  7  7  7  7  8  8  8  8  8  8  8  8  8  8  8  8  8  8  8
CENTRE ASSIGNMENTS    8  8  8  8  8  8  8  8  8  8  8  8
TYPE ASSIGNMENTS      1  1  1  1  1  1  1  1  1  1  1  1  1  1  1  1  1  1  1  2
TYPE ASSIGNMENTS      2  2  3  3  3  4  4  4  2  3  4  2  3  4  2  3  4  5  6  7
TYPE ASSIGNMENTS      8  9 10  5  6  7  8  9 10  5  6  7  8  9 10 11 12 13 17 14
TYPE ASSIGNMENTS     15 18 19 16 20 11 12 13 17 14 15 18 19 16 20  1  1  1  1  1
TYPE ASSIGNMENTS      1  1  1  1  1  1  1  1  1  1  1  1  1  1  2  2  2  3  3  3
TYPE ASSIGNMENTS      4  4  4  2  3  4  2  3  4  2  3  4  5  6  7  8  9 10  5  6
TYPE ASSIGNMENTS      7  8  9 10  5  6  7  8  9 10 11 12 13 17 14 15 18 19 16 20
TYPE ASSIGNMENTS     11 12 13 17 14 15 18 19 16 20  1  1  1  1  1  1  1  1  1  1
TYPE ASSIGNMENTS      1  1  1  1  1  1  1  1  1  2  2  2  3  3  3  4  4  4  2  3
TYPE ASSIGNMENTS      4  2  3  4  2  3  4  5  6  7  8  9 10  5  6  7  8  9 10  5
TYPE ASSIGNMENTS      6  7  8  9 10 11 12 13 17 14 15 18 19 16 20 11 12 13 17 14
TYPE ASSIGNMENTS     15 18 19 16 20  1  1  1  1  1  1  1  1  1  1  1  1  1  1  1
TYPE ASSIGNMENTS      1  1  1  1  1  1  1  1  1  1  1  1  1  1  1  1  1  1  1  1
TYPE ASSIGNMENTS      1  1  1  1  1  1  1  2  2  2  2  2  2  2  3  3  3  3  3  3
TYPE ASSIGNMENTS      3  4  4  4  4  4  4  4  2  2  2  2  2  2  2  3  3  3  3  3
TYPE ASSIGNMENTS      3  3  4  4  4  4  4  4  4  2  3  4  2  3  4  2  3  4  5  6
TYPE ASSIGNMENTS      7  8  9 10  5  6  7  8  9 10  5  6  7  8  9 10 11 12 13 17
TYPE ASSIGNMENTS     14 15 18 19 16 20 11 12 13 17 14 15 18 19 16 20  1  1  1  1
TYPE ASSIGNMENTS      1  1  1  1  1  1  1  1  1  1  1  1  1  1  1  2  2  2  3  3
TYPE ASSIGNMENTS      3  4  4  4  2  3  4  2  3  4  2  3  4  5  6  7  8  9 10  5
TYPE ASSIGNMENTS      6  7  8  9 10  5  6  7  8  9 10 11 12 13 17 14 15 18 19 16
TYPE ASSIGNMENTS     20 11 12 13 17 14 15 18 19 16 20  1  1  1  1  1  1  2  3  4
TYPE ASSIGNMENTS      2  3  4  2  3  4  5  6  7  8  9 10  5  6  7  8  9 10  1  1
TYPE ASSIGNMENTS      1  1  1  1  2  3  4  2  3  4  2  3  4  5  6  7  8  9 10  5
TYPE ASSIGNMENTS      6  7  8  9 10  1  1  1  1  1  1  2  3  4  2  3  4  2  3  4
TYPE ASSIGNMENTS      5  6  7  8  9 10  5  6  7  8  9 10
EXPONENTS  0.1142000D+05 0.1712000D+04 0.3893000D+03 0.1100000D+03 0.3557000D+02
EXPONENTS  0.1254000D+02 0.4644000D+01 0.5118000D+00 0.1142000D+05 0.1712000D+04
EXPONENTS  0.3893000D+03 0.1100000D+03 0.3557000D+02 0.1254000D+02 0.4644000D+01
EXPONENTS  0.5118000D+00 0.1293000D+01 0.1787000D+00 0.5760000D-01 0.2663000D+02
EXPONENTS  0.5948000D+01 0.1742000D+01 0.2663000D+02 0.5948000D+01 0.1742000D+01
EXPONENTS  0.2663000D+02 0.5948000D+01 0.1742000D+01 0.5550000D+00 0.5550000D+00
EXPONENTS  0.5550000D+00 0.1725000D+00 0.1725000D+00 0.1725000D+00 0.4910000D-01
EXPONENTS  0.4910000D-01 0.4910000D-01 0.1654000D+01 0.1654000D+01 0.1654000D+01
EXPONENTS  0.1654000D+01 0.1654000D+01 0.1654000D+01 0.4690000D+00 0.4690000D+00
EXPONENTS  0.4690000D+00 0.4690000D+00 0.4690000D+00 0.4690000D+00 0.1510000D+00
EXPONENTS  0.1510000D+00 0.1510000D+00 0.1510000D+00 0.1510000D+00 0.1510000D+00
EXPONENTS  0.1093000D+01 0.1093000D+01 0.1093000D+01 0.1093000D+01 0.1093000D+01
EXPONENTS  0.1093000D+01 0.1093000D+01 0.1093000D+01 0.1093000D+01 0.1093000D+01
EXPONENTS  0.3640000D+00 0.3640000D+00 0.3640000D+00 0.3640000D+00 0.3640000D+00
EXPONENTS  0.3640000D+00 0.3640000D+00 0.3640000D+00 0.3640000D+00 0.3640000D+00
EXPONENTS  0.8236000D+04 0.1235000D+04 0.2808000D+03 0.7927000D+02 0.2559000D+02
EXPONENTS  0.8997000D+01 0.3319000D+01 0.3643000D+00 0.8236000D+04 0.1235000D+04
EXPONENTS  0.2808000D+03 0.7927000D+02 0.2559000D+02 0.8997000D+01 0.3319000D+01
EXPONENTS  0.3643000D+00 0.9059000D+00 0.1285000D+00 0.4402000D-01 0.1871000D+02
EXPONENTS  0.4133000D+01 0.1200000D+01 0.1871000D+02 0.4133000D+01 0.1200000D+01
EXPONENTS  0.1871000D+02 0.4133000D+01 0.1200000D+01 0.3827000D+00 0.3827000D+00
EXPONENTS  0.3827000D+00 0.1209000D+00 0.1209000D+00 0.1209000D+00 0.3569000D-01
EXPONENTS  0.3569000D-01 0.3569000D-01 0.1097000D+01 0.1097000D+01 0.1097000D+01
EXPONENTS  0.1097000D+01 0.1097000D+01 0.1097000D+01 0.3180000D+00 0.3180000D+00
EXPONENTS  0.3180000D+00 0.3180000D+00 0.3180000D+00 0.3180000D+00 0.1000000D+00
EXPONENTS  0.1000000D+00 0.1000000D+00 0.1000000D+00 0.1000000D+00 0.1000000D+00
EXPONENTS  0.7610000D+00 0.7610000D+00 0.7610000D+00 0.7610000D+00 0.7610000D+00
EXPONENTS  0.7610000D+00 0.7610000D+00 0.7610000D+00 0.7610000D+00 0.7610000D+00
EXPONENTS  0.2680000D+00 0.2680000D+00 0.2680000D+00 0.2680000D+00 0.2680000D+00
EXPONENTS  0.2680000D+00 0.2680000D+00 0.2680000D+00 0.2680000D+00 0.2680000D+00
EXPONENTS  0.8236000D+04 0.1235000D+04 0.2808000D+03 0.7927000D+02 0.2559000D+02
EXPONENTS  0.8997000D+01 0.3319000D+01 0.3643000D+00 0.8236000D+04 0.1235000D+04
EXPONENTS  0.2808000D+03 0.7927000D+02 0.2559000D+02 0.8997000D+01 0.3319000D+01
EXPONENTS  0.3643000D+00 0.9059000D+00 0.1285000D+00 0.4402000D-01 0.1871000D+02
EXPONENTS  0.4133000D+01 0.1200000D+01 0.1871000D+02 0.4133000D+01 0.1200000D+01
EXPONENTS  0.1871000D+02 0.4133000D+01 0.1200000D+01 0.3827000D+00 0.3827000D+00
EXPONENTS  0.3827000D+00 0.1209000D+00 0.1209000D+00 0.1209000D+00 0.3569000D-01
EXPONENTS  0.3569000D-01 0.3569000D-01 0.1097000D+01 0.1097000D+01 0.1097000D+01
EXPONENTS  0.1097000D+01 0.1097000D+01 0.1097000D+01 0.3180000D+00 0.3180000D+00
EXPONENTS  0.3180000D+00 0.3180000D+00 0.3180000D+00 0.3180000D+00 0.1000000D+00
EXPONENTS  0.1000000D+00 0.1000000D+00 0.1000000D+00 0.1000000D+00 0.1000000D+00
EXPONENTS  0.7610000D+00 0.7610000D+00 0.7610000D+00 0.7610000D+00 0.7610000D+00
EXPONENTS  0.7610000D+00 0.7610000D+00 0.7610000D+00 0.7610000D+00 0.7610000D+00
EXPONENTS  0.2680000D+00 0.2680000D+00 0.2680000D+00 0.2680000D+00 0.2680000D+00
EXPONENTS  0.2680000D+00 0.2680000D+00 0.2680000D+00 0.2680000D+00 0.2680000D+00
EXPONENTS  0.3741000D+06 0.5605000D+05 0.1276000D+05 0.3615000D+04 0.1183000D+04
EXPONENTS  0.4288000D+03 0.1678000D+03 0.6947000D+02 0.2984000D+02 0.1272000D+02
EXPONENTS  0.5244000D+01 0.2219000D+01 0.3490000D+00 0.3741000D+06 0.5605000D+05
EXPONENTS  0.1276000D+05 0.3615000D+04 0.1183000D+04 0.4288000D+03 0.1678000D+03
EXPONENTS  0.6947000D+02 0.2984000D+02 0.1272000D+02 0.5244000D+01 0.2219000D+01
EXPONENTS  0.3490000D+00 0.3741000D+06 0.5605000D+05 0.1276000D+05 0.3615000D+04
EXPONENTS  0.1183000D+04 0.4288000D+03 0.1678000D+03 0.6947000D+02 0.2984000D+02
EXPONENTS  0.1272000D+02 0.5244000D+01 0.2219000D+01 0.3490000D+00 0.7767000D+00
EXPONENTS  0.1322000D+00 0.4970000D-01 0.5744000D+03 0.1358000D+03 0.4319000D+02
EXPONENTS  0.1587000D+02 0.6208000D+01 0.2483000D+01 0.3229000D+00 0.5744000D+03
EXPONENTS  0.1358000D+03 0.4319000D+02 0.1587000D+02 0.6208000D+01 0.2483000D+01
EXPONENTS  0.3229000D+00 0.5744000D+03 0.1358000D+03 0.4319000D+02 0.1587000D+02
EXPONENTS  0.6208000D+01 0.2483000D+01 0.3229000D+00 0.5744000D+03 0.1358000D+03
EXPONENTS  0.4319000D+02 0.1587000D+02 0.6208000D+01 0.2483000D+01 0.3229000D+00
EXPONENTS  0.5744000D+03 0.1358000D+03 0.4319000D+02 0.1587000D+02 0.6208000D+01
EXPONENTS  0.2483000D+01 0.3229000D+00 0.5744000D+03 0.1358000D+03 0.4319000D+02
EXPONENTS  0.1587000D+02 0.6208000D+01 0.2483000D+01 0.3229000D+00 0.8688000D+00
EXPONENTS  0.8688000D+00 0.8688000D+00 0.1098000D+00 0.1098000D+00 0.1098000D+00
EXPONENTS  0.3510000D-01 0.3510000D-01 0.3510000D-01 0.2690000D+00 0.2690000D+00
EXPONENTS  0.2690000D+00 0.2690000D+00 0.2690000D+00 0.2690000D+00 0.8190000D+00
EXPONENTS  0.8190000D+00 0.8190000D+00 0.8190000D+00 0.8190000D+00 0.8190000D+00
EXPONENTS  0.1010000D+00 0.1010000D+00 0.1010000D+00 0.1010000D+00 0.1010000D+00
EXPONENTS  0.1010000D+00 0.5570000D+00 0.5570000D+00 0.5570000D+00 0.5570000D+00
EXPONENTS  0.5570000D+00 0.5570000D+00 0.5570000D+00 0.5570000D+00 0.5570000D+00
EXPONENTS  0.5570000D+00 0.2180000D+00 0.2180000D+00 0.2180000D+00 0.2180000D+00
EXPONENTS  0.2180000D+00 0.2180000D+00 0.2180000D+00 0.2180000D+00 0.2180000D+00
EXPONENTS  0.2180000D+00 0.8236000D+04 0.1235000D+04 0.2808000D+03 0.7927000D+02
EXPONENTS  0.2559000D+02 0.8997000D+01 0.3319000D+01 0.3643000D+00 0.8236000D+04
EXPONENTS  0.1235000D+04 0.2808000D+03 0.7927000D+02 0.2559000D+02 0.8997000D+01
EXPONENTS  0.3319000D+01 0.3643000D+00 0.9059000D+00 0.1285000D+00 0.4402000D-01
EXPONENTS  0.1871000D+02 0.4133000D+01 0.1200000D+01 0.1871000D+02 0.4133000D+01
EXPONENTS  0.1200000D+01 0.1871000D+02 0.4133000D+01 0.1200000D+01 0.3827000D+00
EXPONENTS  0.3827000D+00 0.3827000D+00 0.1209000D+00 0.1209000D+00 0.1209000D+00
EXPONENTS  0.3569000D-01 0.3569000D-01 0.3569000D-01 0.1097000D+01 0.1097000D+01
EXPONENTS  0.1097000D+01 0.1097000D+01 0.1097000D+01 0.1097000D+01 0.3180000D+00
EXPONENTS  0.3180000D+00 0.3180000D+00 0.3180000D+00 0.3180000D+00 0.3180000D+00
EXPONENTS  0.1000000D+00 0.1000000D+00 0.1000000D+00 0.1000000D+00 0.1000000D+00
EXPONENTS  0.1000000D+00 0.7610000D+00 0.7610000D+00 0.7610000D+00 0.7610000D+00
EXPONENTS  0.7610000D+00 0.7610000D+00 0.7610000D+00 0.7610000D+00 0.7610000D+00
EXPONENTS  0.7610000D+00 0.2680000D+00 0.2680000D+00 0.2680000D+00 0.2680000D+00
EXPONENTS  0.2680000D+00 0.2680000D+00 0.2680000D+00 0.2680000D+00 0.2680000D+00
EXPONENTS  0.2680000D+00 0.3387000D+02 0.5095000D+01 0.1159000D+01 0.3258000D+00
EXPONENTS  0.1027000D+00 0.2526000D-01 0.1407000D+01 0.1407000D+01 0.1407000D+01
EXPONENTS  0.3880000D+00 0.3880000D+00 0.3880000D+00 0.1020000D+00 0.1020000D+00
EXPONENTS  0.1020000D+00 0.1057000D+01 0.1057000D+01 0.1057000D+01 0.1057000D+01
EXPONENTS  0.1057000D+01 0.1057000D+01 0.2470000D+00 0.2470000D+00 0.2470000D+00
EXPONENTS  0.2470000D+00 0.2470000D+00 0.2470000D+00 0.3387000D+02 0.5095000D+01
EXPONENTS  0.1159000D+01 0.3258000D+00 0.1027000D+00 0.2526000D-01 0.1407000D+01
EXPONENTS  0.1407000D+01 0.1407000D+01 0.3880000D+00 0.3880000D+00 0.3880000D+00
EXPONENTS  0.1020000D+00 0.1020000D+00 0.1020000D+00 0.1057000D+01 0.1057000D+01
EXPONENTS  0.1057000D+01 0.1057000D+01 0.1057000D+01 0.1057000D+01 0.2470000D+00
EXPONENTS  0.2470000D+00 0.2470000D+00 0.2470000D+00 0.2470000D+00 0.2470000D+00
EXPONENTS  0.3387000D+02 0.5095000D+01 0.1159000D+01 0.3258000D+00 0.1027000D+00
EXPONENTS  0.2526000D-01 0.1407000D+01 0.1407000D+01 0.1407000D+01 0.3880000D+00
EXPONENTS  0.3880000D+00 0.3880000D+00 0.1020000D+00 0.1020000D+00 0.1020000D+00
EXPONENTS  0.1057000D+01 0.1057000D+01 0.1057000D+01 0.1057000D+01 0.1057000D+01
EXPONENTS  0.1057000D+01 0.2470000D+00 0.2470000D+00 0.2470000D+00 0.2470000D+00
EXPONENTS  0.2470000D+00 0.2470000D+00
MO    1     MO 0.0        OCC NO =    2.0000000  ORB. ENERGY =  -88.620343
 -0.43644812D-04 -0.81325681D-04 -0.13754211D-03 -0.20713080D-03 -0.25644137D-03
 -0.21822003D-03 -0.83036748D-04  0.38889652D-06  0.29267161D-04  0.54876201D-04
  0.93360746D-04  0.14497938D-03  0.19239607D-03  0.20275905D-03  0.12572354D-03
 -0.83631350D-04  0.29939888D-04 -0.40407415D-03  0.69655724D-04 -0.32789711D-04
 -0.31494125D-04 -0.22085855D-04  0.19414668D-03  0.18647557D-03  0.13076954D-03
 -0.14969493D-14 -0.14378019D-14 -0.10082859D-14 -0.69239441D-05 -0.55065649D-03
 -0.10724638D-16  0.34001647D-03 -0.45792696D-03 -0.80046781D-18  0.35042115D-04
  0.37349080D-04 -0.86413175D-19  0.15824239D-03 -0.13105888D-03 -0.27183508D-04
  0.35293973D-04 -0.87232773D-18  0.48939382D-19 -0.11086012D-03  0.54383192D-04
  0.56476933D-04  0.85994548D-04  0.14690142D-17 -0.27099471D-18  0.82647439D-05
 -0.45603577D-04  0.37338833D-04  0.10038815D-03  0.21574782D-18  0.63014536D-19
  0.38084372D-04  0.17543415D-04  0.22250783D-18 -0.85309754D-04 -0.22231877D-04
 -0.56758574D-18 -0.28943362D-04 -0.30398369D-04 -0.99937766D-19  0.48979595D-18
  0.87085161D-05  0.21172794D-04  0.23651831D-18 -0.71053813D-05 -0.68754398D-05
 -0.24371787D-18 -0.19020167D-04 -0.56642941D-04 -0.46583707D-18 -0.97982135D-18
 -0.32047693D-04 -0.59744187D-04 -0.10097820D-03 -0.15180331D-03 -0.18650791D-03
 -0.15753574D-03 -0.59416686D-04  0.29405650D-06  0.23298891D-04  0.43622876D-04
  0.74271679D-04  0.11488699D-03  0.15130213D-03  0.15721260D-03  0.99901553D-04
 -0.66951697D-04 -0.40012019D-04  0.27756458D-02  0.28524251D-03  0.30693628D-04
  0.28777227D-04  0.20491100D-04 -0.46478585D-04 -0.43576628D-04 -0.31029155D-04
 -0.23868881D-18 -0.22378593D-18 -0.15934891D-18 -0.14116797D-03  0.50960869D-03
  0.71020993D-18 -0.60394394D-03 -0.16711513D-03  0.69928375D-19 -0.52819469D-04
  0.13041918D-04  0.44314855D-19  0.10386147D-03 -0.16119789D-03  0.57336420D-04
  0.10688095D-03  0.85903355D-19  0.49367821D-18 -0.34740253D-03  0.38844464D-03
 -0.41042106D-04 -0.78215992D-03 -0.36178020D-18 -0.76141215D-18  0.77364671D-04
 -0.73612156D-04 -0.37525151D-05  0.99385049D-04  0.27379913D-19  0.39601751D-19
  0.53359686D-04 -0.35892723D-04 -0.22544166D-18 -0.19542888D-03  0.10798599D-03
 -0.36077380D-19  0.35349824D-04 -0.30782021D-06  0.71240235D-18 -0.72920925D-18
  0.29920178D-04 -0.56954714D-04 -0.29900213D-19 -0.11236931D-03  0.11578574D-03
 -0.22845683D-18  0.22608771D-04  0.55078403D-04  0.31815747D-18 -0.51022329D-18
  0.11550099D-03  0.21532011D-03  0.36392892D-03  0.54710437D-03  0.67218093D-03
  0.56776425D-03  0.21413979D-03 -0.10597898D-05 -0.86940463D-04 -0.16277998D-03
 -0.27714684D-03 -0.42870402D-03 -0.56458811D-03 -0.58664322D-03 -0.37278543D-03
  0.24983212D-03  0.25598426D-03 -0.17051274D-02 -0.29081790D-03 -0.10598762D-03
 -0.99370135D-04 -0.70757456D-04 -0.79010355D-04 -0.74077230D-04 -0.52747401D-04
  0.13616359D-18  0.12766202D-18  0.90902963D-19 -0.27390044D-03 -0.49948756D-04
 -0.16008340D-18 -0.57161963D-03 -0.11380127D-03 -0.34687874D-19 -0.35965690D-04
  0.66726198D-05 -0.40273142D-19  0.37367503D-04  0.12670933D-03 -0.16407684D-03
  0.34983046D-03  0.93975752D-18  0.49429094D-18 -0.30699537D-03  0.10625797D-03
  0.20073741D-03 -0.62944174D-03 -0.73543719D-18 -0.53351255D-18  0.34359847D-04
 -0.50408042D-04  0.16048194D-04  0.27701740D-03  0.39123365D-19 -0.12006521D-18
 -0.56227203D-04  0.27681412D-04  0.20144535D-19  0.24049639D-03 -0.14174407D-04
 -0.71263853D-20 -0.71814783D-04 -0.68869830D-04 -0.53307219D-19  0.12969433D-18
 -0.14844023D-03  0.75393106D-05 -0.34051422D-20  0.49353722D-03  0.24317927D-04
 -0.17232279D-18 -0.48216542D-04 -0.46935859D-04  0.18253822D-18  0.81825048D-19
  0.58552410D+00  0.10946033D+01  0.18918162D+01  0.30599279D+01  0.46249018D+01
  0.63692487D+01  0.74441750D+01  0.64323288D+01  0.30000611D+01  0.40734348D+00
  0.10907655D-02  0.21396310D-02  0.97683091D-04 -0.18916412D-02 -0.35327205D-02
 -0.61280504D-02 -0.99364218D-02 -0.15298252D-01 -0.21788148D-01 -0.28016730D-01
 -0.29409229D-01 -0.20794409D-01  0.46050090D-03  0.14941052D-01  0.82269486D-02
 -0.34791626D-04  0.84615953D-03  0.15790589D-02  0.27426362D-02  0.44424622D-02
  0.68623039D-02  0.97832453D-02  0.12724806D-01  0.13561214D-01  0.10058070D-01
 -0.31307037D-03 -0.91120875D-02 -0.89267008D-02  0.41692987D-02 -0.36673974D-02
 -0.25598837D-02 -0.57894266D-03  0.16898219D-01  0.22169543D-01  0.24316609D-01
  0.20008092D-01  0.10548662D-01  0.27442632D-02 -0.30368070D-05  0.36656480D-02
  0.48091306D-02  0.52748833D-02  0.43402576D-02  0.22882696D-02  0.59529960D-03
 -0.65875970D-06 -0.18069332D-16 -0.23705980D-16 -0.26001847D-16 -0.21394732D-16
 -0.11279726D-16 -0.29344515D-17  0.32472698D-20 -0.15046665D-01 -0.19756363D-01
 -0.22227240D-01 -0.18728130D-01 -0.10476253D-01 -0.26075182D-02  0.11959335D-02
 -0.32848630D-02 -0.43130451D-02 -0.48524666D-02 -0.40885700D-02 -0.22870887D-02
 -0.56925172D-03  0.26108627D-03  0.12648128D-16  0.16607069D-16  0.18684072D-16
  0.15742744D-16  0.88062701D-17  0.21918627D-17 -0.10052938D-17 -0.34333240D-03
 -0.91926440D-04  0.16859594D-17 -0.65461021D-03 -0.26347237D-03 -0.67678887D-19
 -0.20464947D-04 -0.11934528D-04 -0.66434600D-21  0.15413138D-03 -0.19422262D-03
  0.40091244D-04  0.15373709D-03 -0.39847275D-18 -0.61595123D-19  0.12006608D-03
  0.28588673D-03 -0.40595281D-03  0.42510316D-04  0.14721821D-18  0.20870183D-18
 -0.24866531D-04 -0.14935379D-04  0.39801910D-04 -0.25353548D-04 -0.36667312D-19
  0.53532834D-19 -0.18282140D-04  0.48154385D-05  0.14387693D-18  0.18841294D-03
  0.47810698D-06 -0.36786529D-18 -0.13356652D-03 -0.14924422D-04 -0.63765491D-19
  0.11810107D-18  0.10842635D-04 -0.12349411D-04  0.96102578D-20 -0.68001260D-04
  0.34504906D-04 -0.23268035D-19  0.35473355D-04  0.25433279D-05 -0.55627381D-20
 -0.49320615D-19  0.14249515D-03  0.26564336D-03  0.44898408D-03  0.67497014D-03
  0.82927880D-03  0.70045852D-03  0.26418718D-03 -0.13074771D-05 -0.10584020D-03
 -0.19816624D-03 -0.33739498D-03 -0.52189873D-03 -0.68732227D-03 -0.71417187D-03
 -0.45382416D-03  0.30414240D-03  0.27266003D-03 -0.51979359D-03  0.11689494D-03
 -0.14590194D-03 -0.13679234D-03 -0.97404297D-04  0.68052518D-04  0.63803561D-04
  0.45431937D-04 -0.65095835D-18 -0.61031483D-18 -0.43458052D-18  0.68813429D-04
  0.15510257D-03  0.10223887D-17 -0.75211994D-04  0.67258679D-03  0.69526889D-18
  0.69254980D-05  0.58852697D-05  0.18336910D-19  0.51921050D-04  0.86892885D-04
 -0.13881394D-03 -0.18836649D-03 -0.60260387D-18 -0.29798454D-18 -0.31684580D-04
 -0.14270369D-03  0.17438827D-03  0.21761896D-03  0.14611197D-17  0.91190695D-18
  0.76787907D-05 -0.12761906D-04  0.50831157D-05 -0.66902216D-04  0.11737326D-19
 -0.40362746D-19 -0.17728780D-04  0.11544677D-04 -0.22127176D-18  0.13119717D-03
 -0.66543329D-04  0.10288732D-17 -0.78010830D-04  0.31909297D-04 -0.36505796D-18
  0.61691589D-18 -0.76424925D-04  0.42436782D-04 -0.10322850D-18  0.27925747D-03
 -0.14672663D-03  0.32327857D-18 -0.49982691D-04  0.19416288D-04 -0.13593065D-19
 -0.11326572D-18  0.37978384D-05  0.68495580D-05  0.10099669D-04  0.44060835D-03
 -0.60237972D-03  0.54130490D-04 -0.39023824D-05 -0.55028735D-04 -0.30591797D-18
 -0.23081356D-03 -0.41705896D-04  0.90217872D-18  0.38369864D-04  0.61193044D-04
 -0.46790394D-19  0.70307021D-05 -0.28129586D-05 -0.42177435D-05 -0.16988972D-04
 -0.27760057D-18  0.18014285D-18 -0.51108480D-05  0.26255962D-04 -0.21145114D-04
 -0.99917146D-05 -0.11754919D-19 -0.20306475D-18  0.20061541D-04  0.36181815D-04
  0.53350066D-04  0.30090941D-03  0.11709753D-02 -0.26649401D-04  0.99406917D-04
 -0.43632096D-04  0.48181383D-19 -0.40685470D-03  0.78841826D-04 -0.15762618D-18
 -0.10687992D-03 -0.13043517D-03  0.21200211D-18 -0.57679235D-04 -0.18572720D-04
  0.76251955D-04  0.16759587D-03 -0.12278947D-18 -0.34180241D-18 -0.46496535D-04
 -0.10753726D-04  0.57250262D-04 -0.13494349D-04  0.51172871D-19 -0.14489396D-18
  0.13589063D-04  0.24508435D-04  0.36137674D-04  0.75821430D-03  0.10127487D-02
  0.48167283D-05  0.52956691D-04  0.10131655D-03 -0.23473846D-18 -0.14384214D-03
  0.94146011D-04  0.49796273D-18 -0.21411958D-04  0.14319839D-03 -0.13031180D-18
 -0.63349021D-04 -0.88792322D-06  0.64236944D-04 -0.56651721D-04 -0.13115847D-18
  0.37600345D-18 -0.30106390D-04 -0.13901802D-04  0.44008192D-04  0.10066509D-04
 -0.35185802D-20  0.16380792D-18
MO    2     MO 0.0        OCC NO =    2.0000000  ORB. ENERGY =  -14.163921
  0.41306845D+00  0.76969223D+00  0.13017425D+01  0.19603521D+01  0.24270431D+01
  0.20653041D+01  0.78588632D+00 -0.36806409D-02 -0.19585806D-02 -0.36723569D-02
 -0.62477718D-02 -0.97021299D-02 -0.12875291D-01 -0.13568789D-01 -0.84135148D-02
  0.55966733D-02  0.41782614D-01  0.30434849D-02 -0.62925618D-04 -0.45421505D-02
 -0.43626813D-02 -0.30594132D-02  0.32769633D-02  0.31474841D-02  0.22072331D-02
  0.14185940D-15  0.13625426D-15  0.95550890D-16 -0.20926482D-02 -0.19518280D-03
 -0.22016439D-16  0.14176825D-02  0.53786015D-03 -0.26977164D-17  0.54876248D-04
  0.19026398D-04  0.16036346D-19  0.19276672D-02  0.16345805D-02 -0.35622477D-02
  0.36257748D-03  0.42934034D-17 -0.13361556D-17 -0.53453562D-04 -0.71982190D-03
  0.77327546D-03  0.14710535D-02  0.57537620D-17 -0.23954969D-17 -0.14364970D-03
 -0.74035759D-04  0.21768546D-03 -0.88941769D-05  0.61061735D-18 -0.13817470D-18
 -0.25898103D-03  0.37307278D-03 -0.68307665D-18 -0.70632931D-04 -0.14877836D-02
  0.17213442D-17  0.84757602D-03  0.36856523D-03  0.32788569D-18 -0.31049367D-17
 -0.58129173D-05 -0.11177650D-03  0.69474125D-18  0.49335044D-03  0.19344735D-03
 -0.78326656D-18 -0.47591169D-03  0.14188215D-03 -0.13009572D-17 -0.24511408D-17
  0.38788719D-03  0.72310992D-03  0.12221832D-02  0.18373416D-02  0.22573865D-02
  0.19067237D-02  0.71914604D-03 -0.35590939D-05 -0.29385576D-03 -0.55019069D-03
 -0.93674673D-03 -0.14490048D-02 -0.19082883D-02 -0.19828338D-02 -0.12600018D-02
  0.84442394D-03  0.74104573D-03  0.45995057D-04 -0.52040681D-03  0.97523886D-04
  0.91434842D-04  0.65107055D-04 -0.27987269D-03 -0.26239843D-03 -0.18684332D-03
 -0.12685117D-17 -0.11893103D-17 -0.84685979D-18  0.81224384D-03 -0.20224815D-02
  0.87712673D-18 -0.24930641D-02  0.35862723D-03  0.13054655D-17 -0.15793146D-04
  0.42059689D-05  0.40255911D-19 -0.50214454D-03  0.83297235D-03 -0.33082781D-03
 -0.54856679D-03 -0.36131995D-18  0.46997203D-18  0.85631218D-03 -0.10415984D-02
  0.18528620D-03  0.32692002D-02  0.17058928D-17 -0.42199094D-17  0.21116485D-03
 -0.24054326D-03  0.29378408D-04 -0.10683040D-03  0.83217459D-19  0.46900985D-18
 -0.67076361D-04  0.46015954D-03 -0.68939493D-18  0.16735244D-03 -0.11106739D-02
 -0.86082518D-18  0.33876641D-04 -0.26980469D-03  0.29290100D-17  0.95201115D-18
  0.28326030D-05  0.32574033D-03 -0.25921457D-18 -0.18617116D-03 -0.82480310D-03
 -0.84971321D-18  0.17767336D-03 -0.15241789D-03  0.16273569D-17 -0.85296209D-18
  0.16696946D-03  0.31126903D-03  0.52609950D-03  0.79089988D-03  0.97171188D-03
  0.82076602D-03  0.30956275D-03 -0.15320433D-05 -0.12184054D-03 -0.22812394D-03
 -0.38840052D-03 -0.60079655D-03 -0.79122793D-03 -0.82213650D-03 -0.52243084D-03
  0.35012100D-03  0.27249038D-03 -0.25729640D-02  0.51523894D-03 -0.67015818D-04
 -0.62831589D-04 -0.44739835D-04 -0.13614322D-03 -0.12764292D-03 -0.90889363D-04
 -0.39049065D-18 -0.36610980D-18 -0.26069199D-18  0.18067806D-02 -0.12304299D-02
  0.83482143D-18 -0.99728257D-03  0.13827143D-02 -0.53200796D-18 -0.30815551D-05
 -0.13852743D-04 -0.34036800D-19  0.90503014D-04 -0.56603544D-04 -0.33899470D-04
 -0.48363270D-03 -0.16979105D-18  0.26674507D-18  0.11622025D-02 -0.13887504D-02
  0.22654789D-03  0.13046969D-02  0.11502498D-17 -0.14918084D-17 -0.59830583D-04
  0.83944887D-04 -0.24114304D-04  0.17254631D-03 -0.36421376D-18 -0.31112305D-18
  0.27298165D-03 -0.16970806D-03 -0.89025186D-19 -0.89341908D-03  0.57639396D-03
  0.20013178D-18  0.74474121D-04 -0.67269774D-04  0.66943784D-19  0.56759728D-18
  0.26067933D-03  0.90151564D-04  0.11119423D-18 -0.91081204D-03 -0.23621693D-03
  0.18837660D-18  0.12877405D-03 -0.34237768D-04 -0.52195930D-18 -0.16374166D-17
 -0.21497038D-04 -0.40187464D-04 -0.69456484D-04 -0.11234275D-03 -0.16979948D-03
 -0.23384175D-03 -0.27330679D-03 -0.23615769D-03 -0.11014479D-03 -0.14955282D-04
 -0.40046562D-07 -0.78554799D-07 -0.35863547D-08  0.40428621D-04  0.75502172D-04
  0.13097020D-03  0.21236365D-03  0.32695802D-03  0.46566166D-03  0.59878044D-03
  0.62854129D-03  0.44442323D-03 -0.98419385D-05 -0.31932383D-03 -0.17582837D-03
  0.74357519D-06 -0.23126545D-04 -0.43157555D-04 -0.74959507D-04 -0.12141777D-03
 -0.18755492D-03 -0.26738772D-03 -0.34778408D-03 -0.37064408D-03 -0.27489901D-03
  0.85565853D-05  0.24904418D-03  0.24397734D-03 -0.11395189D-03  0.25530751D-04
 -0.98118505D-03 -0.16708478D-03 -0.74875766D-02 -0.98232928D-02 -0.10774655D-01
 -0.88655568D-02 -0.46740969D-02 -0.12159791D-02  0.13456048D-05 -0.22824960D-01
 -0.29945105D-01 -0.32845216D-01 -0.27025564D-01 -0.14248412D-01 -0.37067633D-02
  0.41019116D-05  0.29031040D-16  0.38087144D-16  0.41775791D-16  0.34373783D-16
  0.18122538D-16  0.47146279D-17 -0.52172164D-20  0.65696196D-02  0.86259505D-02
  0.97047759D-02  0.81770075D-02  0.45741033D-02  0.11384850D-02 -0.52216408D-03
  0.20873833D-01  0.27407469D-01  0.30835251D-01  0.25981030D-01  0.14533424D-01
  0.36173397D-02 -0.16590863D-02 -0.25254200D-16 -0.33158919D-16 -0.37306019D-16
 -0.31433142D-16 -0.17583259D-16 -0.43764373D-17  0.20072450D-17  0.34654261D-03
  0.51152294D-03 -0.17207191D-17 -0.33496367D-03 -0.70586228D-04 -0.90471454D-18
 -0.77754730D-05 -0.17324290D-04 -0.13374666D-19 -0.32073536D-03  0.28696550D-03
  0.33769859D-04 -0.73056259D-03  0.11860931D-17  0.52858552D-18  0.16047291D-03
 -0.18723268D-03  0.26759769D-04 -0.36132827D-03 -0.26738072D-18 -0.29333734D-18
 -0.42280180D-04  0.62921097D-04 -0.20640917D-04 -0.18292019D-04 -0.14718848D-18
 -0.47864964D-19 -0.87077741D-04 -0.72386488D-04 -0.24652592D-18  0.16008992D-03
  0.12101145D-03  0.27300302D-18  0.10114330D-03  0.96148018D-04  0.46657473D-18
  0.16348991D-18 -0.36165346D-04  0.41546577D-04  0.88471763D-20  0.98803778D-04
 -0.10430545D-03  0.24110172D-18  0.96922601D-05 -0.20334279D-04 -0.26764325D-18
  0.64499257D-20  0.35694281D-03  0.66542255D-03  0.11246813D-02  0.16907644D-02
  0.20772995D-02  0.17546115D-02  0.66177489D-03 -0.32751609D-05 -0.27689182D-03
 -0.51842886D-03 -0.88266949D-03 -0.13653555D-02 -0.17981251D-02 -0.18683672D-02
 -0.11872635D-02  0.79567638D-03  0.15957427D-02 -0.27955228D-02 -0.13919726D-03
  0.12481152D-02  0.11701874D-02  0.83324311D-03  0.36178825D-03  0.33919948D-03
  0.24153024D-03 -0.22828734D-17 -0.21403389D-17 -0.15240488D-17 -0.59182879D-03
 -0.46519875D-03  0.33468397D-17 -0.24682376D-05  0.10320476D-02  0.13095727D-17
  0.16494711D-04  0.11696315D-04 -0.11878855D-19  0.64292981D-04  0.89934445D-05
 -0.73286425D-04 -0.29158928D-04  0.12302935D-18  0.25480089D-18 -0.93703695D-03
  0.11209383D-03  0.82494312D-03 -0.16302448D-02  0.51960125D-17  0.22565199D-17
 -0.43124622D-04 -0.60426573D-06  0.43728888D-04 -0.25135116D-03 -0.22264556D-19
  0.28859666D-18 -0.62805435D-03  0.46441563D-03 -0.10481208D-17  0.78110133D-03
 -0.17620148D-02  0.32935531D-17  0.11030617D-02  0.36876789D-03 -0.14919075D-18
  0.33941742D-17 -0.47098160D-04  0.37377626D-03 -0.22724027D-18  0.40281604D-04
 -0.10210267D-02  0.13638980D-17  0.10101288D-03 -0.10030204D-03 -0.68217719D-18
  0.13695292D-17  0.72568273D-04  0.13087987D-03  0.19298229D-03 -0.43954283D-03
  0.23089965D-02  0.38701286D-04 -0.53690115D-03 -0.27499572D-03 -0.60596487D-19
  0.10710549D-02  0.77322377D-03  0.66089611D-18 -0.44792471D-03  0.71062778D-04
 -0.52104723D-18  0.14283421D-04 -0.22977808D-03  0.21549466D-03 -0.10208359D-03
  0.11676388D-18 -0.89973193D-19 -0.20101527D-04 -0.89492312D-04  0.10959384D-03
 -0.14910037D-03  0.26283817D-18 -0.48414786D-18 -0.59006386D-04 -0.10642045D-03
 -0.15691689D-03  0.13576829D-02 -0.16595720D-02 -0.14728151D-04 -0.80513936D-04
  0.17501524D-03 -0.50248222D-18  0.12652104D-02 -0.15120420D-02  0.11650675D-17
 -0.11598628D-03  0.14813204D-03  0.30252800D-18  0.16026059D-03  0.13527207D-03
 -0.29553266D-03 -0.83187260D-03  0.87734354D-18 -0.72828456D-18  0.30212703D-04
  0.83548165D-04 -0.11376087D-03 -0.10708241D-03  0.70928732D-18 -0.66735319D-20
  0.10914292D-03  0.19684375D-03  0.29024599D-03  0.23397525D-02  0.19540628D-02
  0.21816515D-04  0.29844462D-04  0.70447167D-03 -0.84341699D-18  0.14649330D-03
 -0.61127885D-04  0.17570309D-17 -0.15485125D-03  0.26319791D-03  0.26322816D-18
 -0.31264725D-03 -0.40055006D-05  0.31665275D-03 -0.18746539D-03  0.37848412D-18
  0.22708778D-18 -0.53119221D-04 -0.61375932D-04  0.11449515D-03 -0.13026204D-03
  0.67386413D-18  0.36457577D-18