 Molden2AIM, Version 4.0.0 (06/02/2016)           Time: Mon Jul  2 19:49:49 2018
GAUSSIAN             25 MOL ORBITALS    741 PRIMITIVES       15 NUCLEI
  C    1    (CENTRE  1)  -0.01071664  1.73100236  0.00000000  CHARGE =  6.0
  C    2    (CENTRE  2)  -0.01636692  0.37236108  2.26870503  CHARGE =  6.0
  C    3    (CENTRE  3)  -0.01636692  0.37236108 -2.26870503  CHARGE =  6.0
  C    4    (CENTRE  4)  -0.01313738 -2.26205886  2.27486554  CHARGE =  6.0
  C    5    (CENTRE  5)  -0.01313738 -2.26205886 -2.27486554  CHARGE =  6.0
  C    6    (CENTRE  6)  -0.00926155 -3.59171174  0.00000000  CHARGE =  6.0
  C    7    (CENTRE  7)   0.05008530  4.57078829  0.00000000  CHARGE =  6.0
  H    8    (CENTRE  8)   2.00992215  5.26698229  0.00000000  CHARGE =  1.0
  H    9    (CENTRE  9)  -0.88460348  5.34771895 -1.68118540  CHARGE =  1.0
  H   10    (CENTRE 10)  -0.88460348  5.34771895  1.68118540  CHARGE =  1.0
  H   11    (CENTRE 11)  -0.02118194 -3.28181177  4.06677944  CHARGE =  1.0
  H   12    (CENTRE 12)  -0.02118194 -3.28181177 -4.06677944  CHARGE =  1.0
  H   13    (CENTRE 13)  -0.01193551 -5.65263193  0.00000000  CHARGE =  1.0
  H   14    (CENTRE 14)  -0.02638247  1.39467835  4.06121797  CHARGE =  1.0
  H   15    (CENTRE 15)  -0.02638247  1.39467835 -4.06121797  CHARGE =  1.0
CENTRE ASSIGNMENTS    1  1  1  1  1  1  1  1  1  1  1  1  1  1  1  1  1  1  1  1
CENTRE ASSIGNMENTS    1  1  1  1  1  1  1  1  1  1  1  1  1  1  1  1  1  1  1  1
CENTRE ASSIGNMENTS    1  1  1  1  1  1  1  1  1  1  1  1  1  1  1  1  1  1  1  1
CENTRE ASSIGNMENTS    1  1  1  1  1  1  1  1  1  1  1  1  1  1  1  2  2  2  2  2
CENTRE ASSIGNMENTS    2  2  2  2  2  2  2  2  2  2  2  2  2  2  2  2  2  2  2  2
CENTRE ASSIGNMENTS    2  2  2  2  2  2  2  2  2  2  2  2  2  2  2  2  2  2  2  2
CENTRE ASSIGNMENTS    2  2  2  2  2  2  2  2  2  2  2  2  2  2  2  2  2  2  2  2
CENTRE ASSIGNMENTS    2  2  2  2  2  2  2  2  2  2  3  3  3  3  3  3  3  3  3  3
CENTRE ASSIGNMENTS    3  3  3  3  3  3  3  3  3  3  3  3  3  3  3  3  3  3  3  3
CENTRE ASSIGNMENTS    3  3  3  3  3  3  3  3  3  3  3  3  3  3  3  3  3  3  3  3
CENTRE ASSIGNMENTS    3  3  3  3  3  3  3  3  3  3  3  3  3  3  3  3  3  3  3  3
CENTRE ASSIGNMENTS    3  3  3  3  3  4  4  4  4  4  4  4  4  4  4  4  4  4  4  4
CENTRE ASSIGNMENTS    4  4  4  4  4  4  4  4  4  4  4  4  4  4  4  4  4  4  4  4
CENTRE ASSIGNMENTS    4  4  4  4  4  4  4  4  4  4  4  4  4  4  4  4  4  4  4  4
CENTRE ASSIGNMENTS    4  4  4  4  4  4  4  4  4  4  4  4  4  4  4  4  4  4  4  4
CENTRE ASSIGNMENTS    5  5  5  5  5  5  5  5  5  5  5  5  5  5  5  5  5  5  5  5
CENTRE ASSIGNMENTS    5  5  5  5  5  5  5  5  5  5  5  5  5  5  5  5  5  5  5  5
CENTRE ASSIGNMENTS    5  5  5  5  5  5  5  5  5  5  5  5  5  5  5  5  5  5  5  5
CENTRE ASSIGNMENTS    5  5  5  5  5  5  5  5  5  5  5  5  5  5  5  6  6  6  6  6
CENTRE ASSIGNMENTS    6  6  6  6  6  6  6  6  6  6  6  6  6  6  6  6  6  6  6  6
CENTRE ASSIGNMENTS    6  6  6  6  6  6  6  6  6  6  6  6  6  6  6  6  6  6  6  6
CENTRE ASSIGNMENTS    6  6  6  6  6  6  6  6  6  6  6  6  6  6  6  6  6  6  6  6
CENTRE ASSIGNMENTS    6  6  6  6  6  6  6  6  6  6  7  7  7  7  7  7  7  7  7  7
CENTRE ASSIGNMENTS    7  7  7  7  7  7  7  7  7  7  7  7  7  7  7  7  7  7  7  7
CENTRE ASSIGNMENTS    7  7  7  7  7  7  7  7  7  7  7  7  7  7  7  7  7  7  7  7
CENTRE ASSIGNMENTS    7  7  7  7  7  7  7  7  7  7  7  7  7  7  7  7  7  7  7  7
CENTRE ASSIGNMENTS    7  7  7  7  7  8  8  8  8  8  8  8  8  8  8  8  8  8  8  8
CENTRE ASSIGNMENTS    8  8  8  8  8  8  8  8  8  8  8  8  9  9  9  9  9  9  9  9
CENTRE ASSIGNMENTS    9  9  9  9  9  9  9  9  9  9  9  9  9  9  9  9  9  9  9 10
CENTRE ASSIGNMENTS   10 10 10 10 10 10 10 10 10 10 10 10 10 10 10 10 10 10 10 10
CENTRE ASSIGNMENTS   10 10 10 10 10 10 11 11 11 11 11 11 11 11 11 11 11 11 11 11
CENTRE ASSIGNMENTS   11 11 11 11 11 11 11 11 11 11 11 11 11 12 12 12 12 12 12 12
CENTRE ASSIGNMENTS   12 12 12 12 12 12 12 12 12 12 12 12 12 12 12 12 12 12 12 12
CENTRE ASSIGNMENTS   13 13 13 13 13 13 13 13 13 13 13 13 13 13 13 13 13 13 13 13
CENTRE ASSIGNMENTS   13 13 13 13 13 13 13 14 14 14 14 14 14 14 14 14 14 14 14 14
CENTRE ASSIGNMENTS   14 14 14 14 14 14 14 14 14 14 14 14 14 14 15 15 15 15 15 15
CENTRE ASSIGNMENTS   15 15 15 15 15 15 15 15 15 15 15 15 15 15 15 15 15 15 15 15
CENTRE ASSIGNMENTS   15
TYPE ASSIGNMENTS      1  1  1  1  1  1  1  1  1  1  1  1  1  1  1  1  1  1  1  2
TYPE ASSIGNMENTS      2  2  3  3  3  4  4  4  2  3  4  2  3  4  2  3  4  5  6  7
TYPE ASSIGNMENTS      8  9 10  5  6  7  8  9 10  5  6  7  8  9 10 11 12 13 17 14
TYPE ASSIGNMENTS     15 18 19 16 20 11 12 13 17 14 15 18 19 16 20  1  1  1  1  1
TYPE ASSIGNMENTS      1  1  1  1  1  1  1  1  1  1  1  1  1  1  2  2  2  3  3  3
TYPE ASSIGNMENTS      4  4  4  2  3  4  2  3  4  2  3  4  5  6  7  8  9 10  5  6
TYPE ASSIGNMENTS      7  8  9 10  5  6  7  8  9 10 11 12 13 17 14 15 18 19 16 20
TYPE ASSIGNMENTS     11 12 13 17 14 15 18 19 16 20  1  1  1  1  1  1  1  1  1  1
TYPE ASSIGNMENTS      1  1  1  1  1  1  1  1  1  2  2  2  3  3  3  4  4  4  2  3
TYPE ASSIGNMENTS      4  2  3  4  2  3  4  5  6  7  8  9 10  5  6  7  8  9 10  5
TYPE ASSIGNMENTS      6  7  8  9 10 11 12 13 17 14 15 18 19 16 20 11 12 13 17 14
TYPE ASSIGNMENTS     15 18 19 16 20  1  1  1  1  1  1  1  1  1  1  1  1  1  1  1
TYPE ASSIGNMENTS      1  1  1  1  2  2  2  3  3  3  4  4  4  2  3  4  2  3  4  2
TYPE ASSIGNMENTS      3  4  5  6  7  8  9 10  5  6  7  8  9 10  5  6  7  8  9 10
TYPE ASSIGNMENTS     11 12 13 17 14 15 18 19 16 20 11 12 13 17 14 15 18 19 16 20
TYPE ASSIGNMENTS      1  1  1  1  1  1  1  1  1  1  1  1  1  1  1  1  1  1  1  2
TYPE ASSIGNMENTS      2  2  3  3  3  4  4  4  2  3  4  2  3  4  2  3  4  5  6  7
TYPE ASSIGNMENTS      8  9 10  5  6  7  8  9 10  5  6  7  8  9 10 11 12 13 17 14
TYPE ASSIGNMENTS     15 18 19 16 20 11 12 13 17 14 15 18 19 16 20  1  1  1  1  1
TYPE ASSIGNMENTS      1  1  1  1  1  1  1  1  1  1  1  1  1  1  2  2  2  3  3  3
TYPE ASSIGNMENTS      4  4  4  2  3  4  2  3  4  2  3  4  5  6  7  8  9 10  5  6
TYPE ASSIGNMENTS      7  8  9 10  5  6  7  8  9 10 11 12 13 17 14 15 18 19 16 20
TYPE ASSIGNMENTS     11 12 13 17 14 15 18 19 16 20  1  1  1  1  1  1  1  1  1  1
TYPE ASSIGNMENTS      1  1  1  1  1  1  1  1  1  2  2  2  3  3  3  4  4  4  2  3
TYPE ASSIGNMENTS      4  2  3  4  2  3  4  5  6  7  8  9 10  5  6  7  8  9 10  5
TYPE ASSIGNMENTS      6  7  8  9 10 11 12 13 17 14 15 18 19 16 20 11 12 13 17 14
TYPE ASSIGNMENTS     15 18 19 16 20  1  1  1  1  1  1  2  3  4  2  3  4  2  3  4
TYPE ASSIGNMENTS      5  6  7  8  9 10  5  6  7  8  9 10  1  1  1  1  1  1  2  3
TYPE ASSIGNMENTS      4  2  3  4  2  3  4  5  6  7  8  9 10  5  6  7  8  9 10  1
TYPE ASSIGNMENTS      1  1  1  1  1  2  3  4  2  3  4  2  3  4  5  6  7  8  9 10
TYPE ASSIGNMENTS      5  6  7  8  9 10  1  1  1  1  1  1  2  3  4  2  3  4  2  3
TYPE ASSIGNMENTS      4  5  6  7  8  9 10  5  6  7  8  9 10  1  1  1  1  1  1  2
TYPE ASSIGNMENTS      3  4  2  3  4  2  3  4  5  6  7  8  9 10  5  6  7  8  9 10
TYPE ASSIGNMENTS      1  1  1  1  1  1  2  3  4  2  3  4  2  3  4  5  6  7  8  9
TYPE ASSIGNMENTS     10  5  6  7  8  9 10  1  1  1  1  1  1  2  3  4  2  3  4  2
TYPE ASSIGNMENTS      3  4  5  6  7  8  9 10  5  6  7  8  9 10  1  1  1  1  1  1
TYPE ASSIGNMENTS      2  3  4  2  3  4  2  3  4  5  6  7  8  9 10  5  6  7  8  9
TYPE ASSIGNMENTS     10
EXPONENTS  0.8236000D+04 0.1235000D+04 0.2808000D+03 0.7927000D+02 0.2559000D+02
EXPONENTS  0.8997000D+01 0.3319000D+01 0.3643000D+00 0.8236000D+04 0.1235000D+04
EXPONENTS  0.2808000D+03 0.7927000D+02 0.2559000D+02 0.8997000D+01 0.3319000D+01
EXPONENTS  0.3643000D+00 0.9059000D+00 0.1285000D+00 0.4402000D-01 0.1871000D+02
EXPONENTS  0.4133000D+01 0.1200000D+01 0.1871000D+02 0.4133000D+01 0.1200000D+01
EXPONENTS  0.1871000D+02 0.4133000D+01 0.1200000D+01 0.3827000D+00 0.3827000D+00
EXPONENTS  0.3827000D+00 0.1209000D+00 0.1209000D+00 0.1209000D+00 0.3569000D-01
EXPONENTS  0.3569000D-01 0.3569000D-01 0.1097000D+01 0.1097000D+01 0.1097000D+01
EXPONENTS  0.1097000D+01 0.1097000D+01 0.1097000D+01 0.3180000D+00 0.3180000D+00
EXPONENTS  0.3180000D+00 0.3180000D+00 0.3180000D+00 0.3180000D+00 0.1000000D+00
EXPONENTS  0.1000000D+00 0.1000000D+00 0.1000000D+00 0.1000000D+00 0.1000000D+00
EXPONENTS  0.7610000D+00 0.7610000D+00 0.7610000D+00 0.7610000D+00 0.7610000D+00
EXPONENTS  0.7610000D+00 0.7610000D+00 0.7610000D+00 0.7610000D+00 0.7610000D+00
EXPONENTS  0.2680000D+00 0.2680000D+00 0.2680000D+00 0.2680000D+00 0.2680000D+00
EXPONENTS  0.2680000D+00 0.2680000D+00 0.2680000D+00 0.2680000D+00 0.2680000D+00
EXPONENTS  0.8236000D+04 0.1235000D+04 0.2808000D+03 0.7927000D+02 0.2559000D+02
EXPONENTS  0.8997000D+01 0.3319000D+01 0.3643000D+00 0.8236000D+04 0.1235000D+04
EXPONENTS  0.2808000D+03 0.7927000D+02 0.2559000D+02 0.8997000D+01 0.3319000D+01
EXPONENTS  0.3643000D+00 0.9059000D+00 0.1285000D+00 0.4402000D-01 0.1871000D+02
EXPONENTS  0.4133000D+01 0.1200000D+01 0.1871000D+02 0.4133000D+01 0.1200000D+01
EXPONENTS  0.1871000D+02 0.4133000D+01 0.1200000D+01 0.3827000D+00 0.3827000D+00
EXPONENTS  0.3827000D+00 0.1209000D+00 0.1209000D+00 0.1209000D+00 0.3569000D-01
EXPONENTS  0.3569000D-01 0.3569000D-01 0.1097000D+01 0.1097000D+01 0.1097000D+01
EXPONENTS  0.1097000D+01 0.1097000D+01 0.1097000D+01 0.3180000D+00 0.3180000D+00
EXPONENTS  0.3180000D+00 0.3180000D+00 0.3180000D+00 0.3180000D+00 0.1000000D+00
EXPONENTS  0.1000000D+00 0.1000000D+00 0.1000000D+00 0.1000000D+00 0.1000000D+00
EXPONENTS  0.7610000D+00 0.7610000D+00 0.7610000D+00 0.7610000D+00 0.7610000D+00
EXPONENTS  0.7610000D+00 0.7610000D+00 0.7610000D+00 0.7610000D+00 0.7610000D+00
EXPONENTS  0.2680000D+00 0.2680000D+00 0.2680000D+00 0.2680000D+00 0.2680000D+00
EXPONENTS  0.2680000D+00 0.2680000D+00 0.2680000D+00 0.2680000D+00 0.2680000D+00
EXPONENTS  0.8236000D+04 0.1235000D+04 0.2808000D+03 0.7927000D+02 0.2559000D+02
EXPONENTS  0.8997000D+01 0.3319000D+01 0.3643000D+00 0.8236000D+04 0.1235000D+04
EXPONENTS  0.2808000D+03 0.7927000D+02 0.2559000D+02 0.8997000D+01 0.3319000D+01
EXPONENTS  0.3643000D+00 0.9059000D+00 0.1285000D+00 0.4402000D-01 0.1871000D+02
EXPONENTS  0.4133000D+01 0.1200000D+01 0.1871000D+02 0.4133000D+01 0.1200000D+01
EXPONENTS  0.1871000D+02 0.4133000D+01 0.1200000D+01 0.3827000D+00 0.3827000D+00
EXPONENTS  0.3827000D+00 0.1209000D+00 0.1209000D+00 0.1209000D+00 0.3569000D-01
EXPONENTS  0.3569000D-01 0.3569000D-01 0.1097000D+01 0.1097000D+01 0.1097000D+01
EXPONENTS  0.1097000D+01 0.1097000D+01 0.1097000D+01 0.3180000D+00 0.3180000D+00
EXPONENTS  0.3180000D+00 0.3180000D+00 0.3180000D+00 0.3180000D+00 0.1000000D+00
EXPONENTS  0.1000000D+00 0.1000000D+00 0.1000000D+00 0.1000000D+00 0.1000000D+00
EXPONENTS  0.7610000D+00 0.7610000D+00 0.7610000D+00 0.7610000D+00 0.7610000D+00
EXPONENTS  0.7610000D+00 0.7610000D+00 0.7610000D+00 0.7610000D+00 0.7610000D+00
EXPONENTS  0.2680000D+00 0.2680000D+00 0.2680000D+00 0.2680000D+00 0.2680000D+00
EXPONENTS  0.2680000D+00 0.2680000D+00 0.2680000D+00 0.2680000D+00 0.2680000D+00
EXPONENTS  0.8236000D+04 0.1235000D+04 0.2808000D+03 0.7927000D+02 0.2559000D+02
EXPONENTS  0.8997000D+01 0.3319000D+01 0.3643000D+00 0.8236000D+04 0.1235000D+04
EXPONENTS  0.2808000D+03 0.7927000D+02 0.2559000D+02 0.8997000D+01 0.3319000D+01
EXPONENTS  0.3643000D+00 0.9059000D+00 0.1285000D+00 0.4402000D-01 0.1871000D+02
EXPONENTS  0.4133000D+01 0.1200000D+01 0.1871000D+02 0.4133000D+01 0.1200000D+01
EXPONENTS  0.1871000D+02 0.4133000D+01 0.1200000D+01 0.3827000D+00 0.3827000D+00
EXPONENTS  0.3827000D+00 0.1209000D+00 0.1209000D+00 0.1209000D+00 0.3569000D-01
EXPONENTS  0.3569000D-01 0.3569000D-01 0.1097000D+01 0.1097000D+01 0.1097000D+01
EXPONENTS  0.1097000D+01 0.1097000D+01 0.1097000D+01 0.3180000D+00 0.3180000D+00
EXPONENTS  0.3180000D+00 0.3180000D+00 0.3180000D+00 0.3180000D+00 0.1000000D+00
EXPONENTS  0.1000000D+00 0.1000000D+00 0.1000000D+00 0.1000000D+00 0.1000000D+00
EXPONENTS  0.7610000D+00 0.7610000D+00 0.7610000D+00 0.7610000D+00 0.7610000D+00
EXPONENTS  0.7610000D+00 0.7610000D+00 0.7610000D+00 0.7610000D+00 0.7610000D+00
EXPONENTS  0.2680000D+00 0.2680000D+00 0.2680000D+00 0.2680000D+00 0.2680000D+00
EXPONENTS  0.2680000D+00 0.2680000D+00 0.2680000D+00 0.2680000D+00 0.2680000D+00
EXPONENTS  0.8236000D+04 0.1235000D+04 0.2808000D+03 0.7927000D+02 0.2559000D+02
EXPONENTS  0.8997000D+01 0.3319000D+01 0.3643000D+00 0.8236000D+04 0.1235000D+04
EXPONENTS  0.2808000D+03 0.7927000D+02 0.2559000D+02 0.8997000D+01 0.3319000D+01
EXPONENTS  0.3643000D+00 0.9059000D+00 0.1285000D+00 0.4402000D-01 0.1871000D+02
EXPONENTS  0.4133000D+01 0.1200000D+01 0.1871000D+02 0.4133000D+01 0.1200000D+01
EXPONENTS  0.1871000D+02 0.4133000D+01 0.1200000D+01 0.3827000D+00 0.3827000D+00
EXPONENTS  0.3827000D+00 0.1209000D+00 0.1209000D+00 0.1209000D+00 0.3569000D-01
EXPONENTS  0.3569000D-01 0.3569000D-01 0.1097000D+01 0.1097000D+01 0.1097000D+01
EXPONENTS  0.1097000D+01 0.1097000D+01 0.1097000D+01 0.3180000D+00 0.3180000D+00
EXPONENTS  0.3180000D+00 0.3180000D+00 0.3180000D+00 0.3180000D+00 0.1000000D+00
EXPONENTS  0.1000000D+00 0.1000000D+00 0.1000000D+00 0.1000000D+00 0.1000000D+00
EXPONENTS  0.7610000D+00 0.7610000D+00 0.7610000D+00 0.7610000D+00 0.7610000D+00
EXPONENTS  0.7610000D+00 0.7610000D+00 0.7610000D+00 0.7610000D+00 0.7610000D+00
EXPONENTS  0.2680000D+00 0.2680000D+00 0.2680000D+00 0.2680000D+00 0.2680000D+00
EXPONENTS  0.2680000D+00 0.2680000D+00 0.2680000D+00 0.2680000D+00 0.2680000D+00
EXPONENTS  0.8236000D+04 0.1235000D+04 0.2808000D+03 0.7927000D+02 0.2559000D+02
EXPONENTS  0.8997000D+01 0.3319000D+01 0.3643000D+00 0.8236000D+04 0.1235000D+04
EXPONENTS  0.2808000D+03 0.7927000D+02 0.2559000D+02 0.8997000D+01 0.3319000D+01
EXPONENTS  0.3643000D+00 0.9059000D+00 0.1285000D+00 0.4402000D-01 0.1871000D+02
EXPONENTS  0.4133000D+01 0.1200000D+01 0.1871000D+02 0.4133000D+01 0.1200000D+01
EXPONENTS  0.1871000D+02 0.4133000D+01 0.1200000D+01 0.3827000D+00 0.3827000D+00
EXPONENTS  0.3827000D+00 0.1209000D+00 0.1209000D+00 0.1209000D+00 0.3569000D-01
EXPONENTS  0.3569000D-01 0.3569000D-01 0.1097000D+01 0.1097000D+01 0.1097000D+01
EXPONENTS  0.1097000D+01 0.1097000D+01 0.1097000D+01 0.3180000D+00 0.3180000D+00
EXPONENTS  0.3180000D+00 0.3180000D+00 0.3180000D+00 0.3180000D+00 0.1000000D+00
EXPONENTS  0.1000000D+00 0.1000000D+00 0.1000000D+00 0.1000000D+00 0.1000000D+00
EXPONENTS  0.7610000D+00 0.7610000D+00 0.7610000D+00 0.7610000D+00 0.7610000D+00
EXPONENTS  0.7610000D+00 0.7610000D+00 0.7610000D+00 0.7610000D+00 0.7610000D+00
EXPONENTS  0.2680000D+00 0.2680000D+00 0.2680000D+00 0.2680000D+00 0.2680000D+00
EXPONENTS  0.2680000D+00 0.2680000D+00 0.2680000D+00 0.2680000D+00 0.2680000D+00
EXPONENTS  0.8236000D+04 0.1235000D+04 0.2808000D+03 0.7927000D+02 0.2559000D+02
EXPONENTS  0.8997000D+01 0.3319000D+01 0.3643000D+00 0.8236000D+04 0.1235000D+04
EXPONENTS  0.2808000D+03 0.7927000D+02 0.2559000D+02 0.8997000D+01 0.3319000D+01
EXPONENTS  0.3643000D+00 0.9059000D+00 0.1285000D+00 0.4402000D-01 0.1871000D+02
EXPONENTS  0.4133000D+01 0.1200000D+01 0.1871000D+02 0.4133000D+01 0.1200000D+01
EXPONENTS  0.1871000D+02 0.4133000D+01 0.1200000D+01 0.3827000D+00 0.3827000D+00
EXPONENTS  0.3827000D+00 0.1209000D+00 0.1209000D+00 0.1209000D+00 0.3569000D-01
EXPONENTS  0.3569000D-01 0.3569000D-01 0.1097000D+01 0.1097000D+01 0.1097000D+01
EXPONENTS  0.1097000D+01 0.1097000D+01 0.1097000D+01 0.3180000D+00 0.3180000D+00
EXPONENTS  0.3180000D+00 0.3180000D+00 0.3180000D+00 0.3180000D+00 0.1000000D+00
EXPONENTS  0.1000000D+00 0.1000000D+00 0.1000000D+00 0.1000000D+00 0.1000000D+00
EXPONENTS  0.7610000D+00 0.7610000D+00 0.7610000D+00 0.7610000D+00 0.7610000D+00
EXPONENTS  0.7610000D+00 0.7610000D+00 0.7610000D+00 0.7610000D+00 0.7610000D+00
EXPONENTS  0.2680000D+00 0.2680000D+00 0.2680000D+00 0.2680000D+00 0.2680000D+00
EXPONENTS  0.2680000D+00 0.2680000D+00 0.2680000D+00 0.2680000D+00 0.2680000D+00
EXPONENTS  0.3387000D+02 0.5095000D+01 0.1159000D+01 0.3258000D+00 0.1027000D+00
EXPONENTS  0.2526000D-01 0.1407000D+01 0.1407000D+01 0.1407000D+01 0.3880000D+00
EXPONENTS  0.3880000D+00 0.3880000D+00 0.1020000D+00 0.1020000D+00 0.1020000D+00
EXPONENTS  0.1057000D+01 0.1057000D+01 0.1057000D+01 0.1057000D+01 0.1057000D+01
EXPONENTS  0.1057000D+01 0.2470000D+00 0.2470000D+00 0.2470000D+00 0.2470000D+00
EXPONENTS  0.2470000D+00 0.2470000D+00 0.3387000D+02 0.5095000D+01 0.1159000D+01
EXPONENTS  0.3258000D+00 0.1027000D+00 0.2526000D-01 0.1407000D+01 0.1407000D+01
EXPONENTS  0.1407000D+01 0.3880000D+00 0.3880000D+00 0.3880000D+00 0.1020000D+00
EXPONENTS  0.1020000D+00 0.1020000D+00 0.1057000D+01 0.1057000D+01 0.1057000D+01
EXPONENTS  0.1057000D+01 0.1057000D+01 0.1057000D+01 0.2470000D+00 0.2470000D+00
EXPONENTS  0.2470000D+00 0.2470000D+00 0.2470000D+00 0.2470000D+00 0.3387000D+02
EXPONENTS  0.5095000D+01 0.1159000D+01 0.3258000D+00 0.1027000D+00 0.2526000D-01
EXPONENTS  0.1407000D+01 0.1407000D+01 0.1407000D+01 0.3880000D+00 0.3880000D+00
EXPONENTS  0.3880000D+00 0.1020000D+00 0.1020000D+00 0.1020000D+00 0.1057000D+01
EXPONENTS  0.1057000D+01 0.1057000D+01 0.1057000D+01 0.1057000D+01 0.1057000D+01
EXPONENTS  0.2470000D+00 0.2470000D+00 0.2470000D+00 0.2470000D+00 0.2470000D+00
EXPONENTS  0.2470000D+00 0.3387000D+02 0.5095000D+01 0.1159000D+01 0.3258000D+00
EXPONENTS  0.1027000D+00 0.2526000D-01 0.1407000D+01 0.1407000D+01 0.1407000D+01
EXPONENTS  0.3880000D+00 0.3880000D+00 0.3880000D+00 0.1020000D+00 0.1020000D+00
EXPONENTS  0.1020000D+00 0.1057000D+01 0.1057000D+01 0.1057000D+01 0.1057000D+01
EXPONENTS  0.1057000D+01 0.1057000D+01 0.2470000D+00 0.2470000D+00 0.2470000D+00
EXPONENTS  0.2470000D+00 0.2470000D+00 0.2470000D+00 0.3387000D+02 0.5095000D+01
EXPONENTS  0.1159000D+01 0.3258000D+00 0.1027000D+00 0.2526000D-01 0.1407000D+01
EXPONENTS  0.1407000D+01 0.1407000D+01 0.3880000D+00 0.3880000D+00 0.3880000D+00
EXPONENTS  0.1020000D+00 0.1020000D+00 0.1020000D+00 0.1057000D+01 0.1057000D+01
EXPONENTS  0.1057000D+01 0.1057000D+01 0.1057000D+01 0.1057000D+01 0.2470000D+00
EXPONENTS  0.2470000D+00 0.2470000D+00 0.2470000D+00 0.2470000D+00 0.2470000D+00
EXPONENTS  0.3387000D+02 0.5095000D+01 0.1159000D+01 0.3258000D+00 0.1027000D+00
EXPONENTS  0.2526000D-01 0.1407000D+01 0.1407000D+01 0.1407000D+01 0.3880000D+00
EXPONENTS  0.3880000D+00 0.3880000D+00 0.1020000D+00 0.1020000D+00 0.1020000D+00
EXPONENTS  0.1057000D+01 0.1057000D+01 0.1057000D+01 0.1057000D+01 0.1057000D+01
EXPONENTS  0.1057000D+01 0.2470000D+00 0.2470000D+00 0.2470000D+00 0.2470000D+00
EXPONENTS  0.2470000D+00 0.2470000D+00 0.3387000D+02 0.5095000D+01 0.1159000D+01
EXPONENTS  0.3258000D+00 0.1027000D+00 0.2526000D-01 0.1407000D+01 0.1407000D+01
EXPONENTS  0.1407000D+01 0.3880000D+00 0.3880000D+00 0.3880000D+00 0.1020000D+00
EXPONENTS  0.1020000D+00 0.1020000D+00 0.1057000D+01 0.1057000D+01 0.1057000D+01
EXPONENTS  0.1057000D+01 0.1057000D+01 0.1057000D+01 0.2470000D+00 0.2470000D+00
EXPONENTS  0.2470000D+00 0.2470000D+00 0.2470000D+00 0.2470000D+00 0.3387000D+02
EXPONENTS  0.5095000D+01 0.1159000D+01 0.3258000D+00 0.1027000D+00 0.2526000D-01
EXPONENTS  0.1407000D+01 0.1407000D+01 0.1407000D+01 0.3880000D+00 0.3880000D+00
EXPONENTS  0.3880000D+00 0.1020000D+00 0.1020000D+00 0.1020000D+00 0.1057000D+01
EXPONENTS  0.1057000D+01 0.1057000D+01 0.1057000D+01 0.1057000D+01 0.1057000D+01
EXPONENTS  0.2470000D+00 0.2470000D+00 0.2470000D+00 0.2470000D+00 0.2470000D+00
EXPONENTS  0.2470000D+00
MO    1     MO 0.0        OCC NO =    2.0000000  ORB. ENERGY =  -10.044761
  0.33128291D+00  0.61758667D+00  0.10438303D+01  0.15692188D+01  0.19279666D+01
  0.16284760D+01  0.61420124D+00 -0.30397162D-02 -0.40902067D-02 -0.76581575D-02
 -0.13038668D-01 -0.20168837D-01 -0.26561649D-01 -0.27599255D-01 -0.17538088D-01
  0.11753618D-01  0.34982363D-01 -0.13896409D-02 -0.10874924D-02  0.30767574D-04
  0.28846556D-04  0.20540466D-04  0.47849467D-03  0.44861917D-03  0.31944357D-03
 -0.83214063D-13 -0.78018473D-13 -0.55553801D-13  0.55045315D-04 -0.33682550D-02
  0.78433669D-12  0.32939190D-03 -0.46937960D-02 -0.14175929D-10 -0.42131590D-05
 -0.60067104D-03  0.16245026D-11 -0.37966099D-02  0.20150057D-02  0.17816042D-02
  0.35802712D-03 -0.75112428D-14  0.99809923D-13  0.10082745D-02 -0.27513277D-02
  0.17430533D-02 -0.49995214D-03  0.15866079D-13 -0.14947331D-11  0.59728048D-04
 -0.35321345D-04 -0.24406703D-04 -0.11228490D-04  0.53397319D-14  0.21093812D-11
 -0.15161788D-04  0.76108235D-03  0.19833952D-13 -0.31069193D-04  0.24807048D-03
 -0.13143132D-12  0.76554558D-04 -0.25313175D-02  0.71929466D-13 -0.34281515D-14
 -0.39630018D-04 -0.22160361D-03 -0.36103073D-12 -0.15713661D-03 -0.32004445D-03
  0.20560385D-12  0.27602667D-03  0.98485527D-03  0.87748833D-12 -0.39833919D-13
  0.58197216D-02  0.10849284D-01  0.18337202D-01  0.27566821D-01  0.33869024D-01
  0.28607805D-01  0.10789812D-01 -0.53399380D-04 -0.33605398D-03 -0.62919907D-03
 -0.10712653D-02 -0.16570845D-02 -0.21823219D-02 -0.22675723D-02 -0.14409404D-02
  0.96568475D-03  0.24043602D-02 -0.83508621D-02 -0.34252267D-02  0.10550721D-03
  0.98919714D-04  0.70436729D-04  0.42742765D-03  0.40074059D-03  0.28535118D-03
 -0.67217282D-03 -0.63020474D-03 -0.44874332D-03 -0.22683829D-03  0.16176327D-02
  0.11072138D-04 -0.11538920D-03 -0.19441413D-02  0.13359522D-02  0.46913216D-05
  0.28838768D-03  0.50962712D-04 -0.83417139D-04  0.11666815D-03 -0.33251010D-04
  0.62242664D-04  0.69022421D-05 -0.20244131D-03  0.10697799D-02 -0.12477323D-02
  0.17795237D-03 -0.29933431D-03  0.19209745D-03  0.47889176D-02  0.20047814D-03
  0.19386845D-03 -0.39434659D-03 -0.11610546D-04  0.28216274D-04 -0.84658309D-03
  0.23987845D-04  0.45191998D-03  0.17527431D-03 -0.56329226D-05  0.27753879D-03
 -0.73358391D-03 -0.66330613D-04 -0.16332987D-02  0.20776098D-03  0.12145827D-03
 -0.37253753D-05  0.45570567D-03  0.93993779D-04  0.82424667D-06  0.38192227D-03
 -0.20158063D-03  0.10351879D-04 -0.17490393D-02 -0.80400704D-04  0.14198262D-03
  0.58197216D-02  0.10849284D-01  0.18337202D-01  0.27566821D-01  0.33869024D-01
  0.28607805D-01  0.10789812D-01 -0.53399380D-04 -0.33605398D-03 -0.62919907D-03
 -0.10712653D-02 -0.16570845D-02 -0.21823219D-02 -0.22675723D-02 -0.14409404D-02
  0.96568475D-03  0.24043602D-02 -0.83508621D-02 -0.34252267D-02  0.10550721D-03
  0.98919714D-04  0.70436729D-04  0.42742765D-03  0.40074059D-03  0.28535118D-03
  0.67217282D-03  0.63020474D-03  0.44874332D-03 -0.22683829D-03  0.16176327D-02
 -0.11072137D-04 -0.11538920D-03 -0.19441413D-02 -0.13359522D-02  0.46913216D-05
  0.28838768D-03 -0.50962711D-04 -0.83417139D-04  0.11666815D-03 -0.33251010D-04
  0.62242664D-04 -0.69022421D-05  0.20244131D-03  0.10697799D-02 -0.12477323D-02
  0.17795237D-03 -0.29933431D-03 -0.19209745D-03 -0.47889176D-02  0.20047814D-03
  0.19386845D-03 -0.39434659D-03 -0.11610546D-04 -0.28216274D-04  0.84658309D-03
  0.23987845D-04  0.45191998D-03 -0.17527431D-03 -0.56329226D-05  0.27753879D-03
  0.73358391D-03 -0.66330613D-04 -0.16332987D-02 -0.20776098D-03 -0.12145827D-03
 -0.37253753D-05  0.45570567D-03 -0.93993779D-04  0.82424664D-06  0.38192227D-03
  0.20158063D-03  0.10351879D-04 -0.17490393D-02  0.80400703D-04 -0.14198262D-03
  0.50503109D-03  0.94149277D-03  0.15912886D-02  0.23922281D-02  0.29391286D-02
  0.24825639D-02  0.93633178D-03 -0.46339582D-05 -0.17509303D-03 -0.32782939D-03
 -0.55815759D-03 -0.86338492D-03 -0.11370476D-02 -0.11814653D-02 -0.75076813D-03
  0.50314734D-03  0.67425190D-03  0.11550060D-03  0.17288177D-02  0.41225100D-04
  0.38651152D-04  0.27521923D-04 -0.29567873D-03 -0.27721761D-03 -0.19739545D-03
 -0.22358588D-03 -0.20962597D-03 -0.14926618D-03 -0.64663799D-04  0.35094966D-02
 -0.11311732D-03  0.40007388D-04  0.69756713D-03 -0.82013683D-03 -0.54163827D-05
  0.16103046D-03  0.57906975D-04 -0.78250425D-05  0.23413535D-03 -0.22631031D-03
  0.27253692D-04 -0.97719869D-05 -0.89895688D-03  0.39118063D-03  0.12960060D-02
 -0.16871867D-02 -0.11120474D-03  0.35624398D-04  0.31474302D-02 -0.98133380D-04
 -0.35941478D-03  0.45754816D-03  0.16225526D-04 -0.20450856D-04 -0.11735588D-02
  0.46006439D-05 -0.61593046D-04 -0.13675605D-03 -0.30854588D-04 -0.18308417D-03
 -0.12513205D-03  0.17052656D-04  0.36786330D-03  0.53540019D-03 -0.17118178D-05
  0.10693799D-07  0.20992940D-03 -0.23211675D-03 -0.18000610D-04  0.19270071D-03
  0.14782348D-03  0.17968529D-04 -0.82248892D-03  0.54852676D-03  0.41618084D-04
  0.50503109D-03  0.94149277D-03  0.15912886D-02  0.23922281D-02  0.29391286D-02
  0.24825639D-02  0.93633178D-03 -0.46339582D-05 -0.17509303D-03 -0.32782939D-03
 -0.55815759D-03 -0.86338492D-03 -0.11370476D-02 -0.11814653D-02 -0.75076813D-03
  0.50314734D-03  0.67425190D-03  0.11550060D-03  0.17288177D-02  0.41225100D-04
  0.38651152D-04  0.27521923D-04 -0.29567873D-03 -0.27721761D-03 -0.19739545D-03
  0.22358588D-03  0.20962597D-03  0.14926618D-03 -0.64663799D-04  0.35094966D-02
  0.11311732D-03  0.40007388D-04  0.69756711D-03  0.82013685D-03 -0.54163827D-05
  0.16103047D-03 -0.57906977D-04 -0.78250425D-05  0.23413535D-03 -0.22631031D-03
  0.27253692D-04  0.97719870D-05  0.89895688D-03  0.39118063D-03  0.12960060D-02
 -0.16871867D-02 -0.11120474D-03 -0.35624398D-04 -0.31474302D-02 -0.98133380D-04
 -0.35941478D-03  0.45754816D-03  0.16225526D-04  0.20450856D-04  0.11735588D-02
  0.46006439D-05 -0.61593046D-04  0.13675605D-03 -0.30854588D-04 -0.18308417D-03
  0.12513205D-03  0.17052656D-04  0.36786330D-03 -0.53540019D-03  0.17118177D-05
  0.10693799D-07  0.20992940D-03  0.23211675D-03 -0.18000610D-04  0.19270071D-03
 -0.14782348D-03  0.17968529D-04 -0.82248892D-03 -0.54852676D-03 -0.41618084D-04
 -0.80774637D-03 -0.15058229D-02 -0.25451059D-02 -0.38261279D-02 -0.47008402D-02
 -0.39706110D-02 -0.14975684D-02  0.74115496D-05  0.40945588D-03  0.76663059D-03
  0.13052542D-02  0.20190298D-02  0.26589912D-02  0.27628621D-02  0.17556749D-02
 -0.11766125D-02 -0.16696420D-02  0.28973336D-02  0.10768838D-02  0.29285398D-04
  0.27456922D-04  0.19550964D-04 -0.21411967D-03 -0.20075080D-03 -0.14294653D-03
  0.52249054D-13  0.48986810D-13  0.34881527D-13 -0.58562230D-04 -0.11758912D-02
 -0.57677547D-12 -0.70172647D-04 -0.17574237D-02  0.12320482D-10  0.40990247D-05
 -0.51693685D-05 -0.14402165D-11 -0.23799547D-03  0.21755827D-03  0.20437205D-04
  0.15196167D-04  0.15281838D-13  0.12774151D-12 -0.71762068D-03  0.12381405D-02
 -0.52051982D-03 -0.30484371D-04 -0.30610035D-13 -0.10050159D-11  0.30272294D-04
 -0.73902879D-03  0.70875649D-03 -0.35874599D-04  0.25242874D-13  0.19799360D-11
 -0.35778824D-05 -0.17207241D-03 -0.31639170D-14  0.23385176D-04 -0.25994862D-03
  0.33953174D-13 -0.12651528D-04  0.77616584D-03 -0.24461423D-13 -0.82422866D-14
  0.33758294D-05 -0.48935322D-04  0.36243340D-12 -0.24534888D-05  0.56725103D-04
 -0.13232142D-12 -0.76739993D-05  0.90080863D-04 -0.95497880D-12 -0.10234827D-13
  0.22023874D-02  0.41057509D-02  0.69394423D-02  0.10432255D-01  0.12817230D-01
  0.10826200D-01  0.40832443D-02 -0.20208204D-04 -0.12500969D-03 -0.23405758D-03
 -0.39850305D-03 -0.61642363D-03 -0.81180824D-03 -0.84352076D-03 -0.53601958D-03
  0.35922785D-03  0.12911000D-03  0.92882100D-02  0.24665755D-02  0.22337481D-04
  0.20942809D-04  0.14912527D-04  0.13911104D-04  0.13042544D-04  0.92870686D-05
  0.93888851D-13  0.88026766D-13  0.62680301D-13 -0.22590013D-03 -0.33866574D-02
 -0.47892009D-12 -0.47838288D-03 -0.20028454D-02  0.34360193D-12 -0.91450411D-05
 -0.15343004D-03 -0.33070813D-13 -0.58199901D-03  0.92620962D-03 -0.34421062D-03
  0.23021175D-03  0.76267472D-13 -0.83979355D-14  0.22140834D-03 -0.43977197D-03
  0.21836363D-03 -0.62103156D-03  0.81707737D-13  0.21273175D-12 -0.12189531D-03
  0.61238028D-04  0.60657279D-04  0.51942034D-04 -0.16536878D-12  0.22785244D-12
 -0.10732227D-04  0.53872313D-03  0.14981304D-13  0.81731641D-04 -0.71075702D-03
 -0.62891153D-13 -0.49534961D-04 -0.90541236D-03  0.17947240D-13  0.62270266D-13
  0.20204678D-03  0.33129221D-04  0.52739222D-14  0.67085344D-04 -0.51107175D-03
 -0.13229342D-13 -0.67322569D-03  0.41168409D-03 -0.25924243D-14 -0.60659314D-13
 -0.60167448D-05 -0.10851447D-04 -0.16000452D-04 -0.49886903D-03  0.38494408D-03
  0.83140586D-04  0.12064549D-04  0.84980937D-04  0.16443463D-13 -0.69876724D-03
  0.11045166D-02  0.15406576D-13 -0.36813142D-04  0.27500264D-05 -0.17968311D-13
  0.61120136D-03 -0.70175724D-03  0.90555882D-04 -0.61009676D-03 -0.46353698D-13
  0.56791410D-14  0.11989774D-03 -0.10499678D-03 -0.14900954D-04  0.21573844D-04
  0.12625381D-13 -0.24488267D-13  0.15569808D-04  0.28080791D-04  0.41405109D-04
 -0.22726950D-02 -0.83029085D-03  0.82031051D-04  0.95661352D-04 -0.14792946D-04
 -0.89019684D-04 -0.13331881D-03  0.79077427D-03  0.29876249D-03 -0.13619727D-03
  0.94792968D-04  0.35862391D-04  0.20337662D-03 -0.62942988D-03  0.42605326D-03
  0.10614625D-03  0.38577866D-03  0.44124326D-03 -0.10410737D-04 -0.11545027D-03
  0.12586101D-03 -0.16344239D-03  0.12998662D-04  0.33175051D-04  0.15569808D-04
  0.28080791D-04  0.41405109D-04 -0.22726950D-02 -0.83029086D-03  0.82031051D-04
  0.95661352D-04 -0.14792946D-04  0.89019684D-04 -0.13331881D-03  0.79077427D-03
 -0.29876249D-03 -0.13619727D-03  0.94792968D-04 -0.35862390D-04  0.20337662D-03
 -0.62942988D-03  0.42605326D-03  0.10614625D-03 -0.38577866D-03 -0.44124326D-03
 -0.10410737D-04 -0.11545027D-03  0.12586101D-03 -0.16344239D-03 -0.12998662D-04
 -0.33175051D-04 -0.22343261D-04 -0.40296992D-04 -0.59417891D-04  0.29082383D-02
 -0.66964865D-02  0.75502292D-04  0.48207017D-05 -0.51270802D-04 -0.22573510D-03
 -0.41242241D-05  0.21203187D-02 -0.13404566D-02  0.12924943D-04 -0.19323287D-03
  0.44627671D-03 -0.22535122D-03  0.21414070D-03  0.11210517D-04  0.56359083D-05
  0.48247906D-05 -0.78604588D-03 -0.11870583D-03  0.69002903D-04  0.49702930D-04
 -0.12082986D-04 -0.54891128D-05 -0.19911862D-03 -0.22343261D-04 -0.40296992D-04
 -0.59417890D-04  0.29082383D-02 -0.66964864D-02  0.75502292D-04  0.48207017D-05
 -0.51270802D-04  0.22573510D-03 -0.41242241D-05  0.21203187D-02  0.13404566D-02
  0.12924943D-04 -0.19323287D-03 -0.44627671D-03 -0.22535122D-03  0.21414070D-03