 Molden2AIM, Version 4.0.0 (06/02/2016)           Time: Tue Jul  3 09:09:04 2018
GAUSSIAN             16 MOL ORBITALS    516 PRIMITIVES       12 NUCLEI
  C    1    (CENTRE  1)  -0.89180900 -0.89180900 -3.51321063  CHARGE =  6.0
  C    2    (CENTRE  2)   0.89180900  0.89180900 -3.51321063  CHARGE =  6.0
  H    3    (CENTRE  3)  -1.64863865 -1.64863865 -1.76901987  CHARGE =  1.0
  H    4    (CENTRE  4)   1.64863865  1.64863865 -1.76901987  CHARGE =  1.0
  H    5    (CENTRE  5)  -1.64493856 -1.64493856 -5.25968984  CHARGE =  1.0
  H    6    (CENTRE  6)   1.64493856  1.64493856 -5.25968984  CHARGE =  1.0
  C    7    (CENTRE  7)  -0.89180900  0.89180900  3.51321063  CHARGE =  6.0
  C    8    (CENTRE  8)   0.89180900 -0.89180900  3.51321063  CHARGE =  6.0
  H    9    (CENTRE  9)  -1.64863865  1.64863865  1.76901987  CHARGE =  1.0
  H   10    (CENTRE 10)   1.64863865 -1.64863865  1.76901987  CHARGE =  1.0
  H   11    (CENTRE 11)  -1.64493856  1.64493856  5.25968984  CHARGE =  1.0
  H   12    (CENTRE 12)   1.64493856 -1.64493856  5.25968984  CHARGE =  1.0
CENTRE ASSIGNMENTS    1  1  1  1  1  1  1  1  1  1  1  1  1  1  1  1  1  1  1  1
CENTRE ASSIGNMENTS    1  1  1  1  1  1  1  1  1  1  1  1  1  1  1  1  1  1  1  1
CENTRE ASSIGNMENTS    1  1  1  1  1  1  1  1  1  1  1  1  1  1  1  1  1  1  1  1
CENTRE ASSIGNMENTS    1  1  1  1  1  1  1  1  1  1  1  1  1  1  1  2  2  2  2  2
CENTRE ASSIGNMENTS    2  2  2  2  2  2  2  2  2  2  2  2  2  2  2  2  2  2  2  2
CENTRE ASSIGNMENTS    2  2  2  2  2  2  2  2  2  2  2  2  2  2  2  2  2  2  2  2
CENTRE ASSIGNMENTS    2  2  2  2  2  2  2  2  2  2  2  2  2  2  2  2  2  2  2  2
CENTRE ASSIGNMENTS    2  2  2  2  2  2  2  2  2  2  3  3  3  3  3  3  3  3  3  3
CENTRE ASSIGNMENTS    3  3  3  3  3  3  3  3  3  3  3  3  3  3  3  3  3  4  4  4
CENTRE ASSIGNMENTS    4  4  4  4  4  4  4  4  4  4  4  4  4  4  4  4  4  4  4  4
CENTRE ASSIGNMENTS    4  4  4  4  5  5  5  5  5  5  5  5  5  5  5  5  5  5  5  5
CENTRE ASSIGNMENTS    5  5  5  5  5  5  5  5  5  5  5  6  6  6  6  6  6  6  6  6
CENTRE ASSIGNMENTS    6  6  6  6  6  6  6  6  6  6  6  6  6  6  6  6  6  6  7  7
CENTRE ASSIGNMENTS    7  7  7  7  7  7  7  7  7  7  7  7  7  7  7  7  7  7  7  7
CENTRE ASSIGNMENTS    7  7  7  7  7  7  7  7  7  7  7  7  7  7  7  7  7  7  7  7
CENTRE ASSIGNMENTS    7  7  7  7  7  7  7  7  7  7  7  7  7  7  7  7  7  7  7  7
CENTRE ASSIGNMENTS    7  7  7  7  7  7  7  7  7  7  7  7  7  8  8  8  8  8  8  8
CENTRE ASSIGNMENTS    8  8  8  8  8  8  8  8  8  8  8  8  8  8  8  8  8  8  8  8
CENTRE ASSIGNMENTS    8  8  8  8  8  8  8  8  8  8  8  8  8  8  8  8  8  8  8  8
CENTRE ASSIGNMENTS    8  8  8  8  8  8  8  8  8  8  8  8  8  8  8  8  8  8  8  8
CENTRE ASSIGNMENTS    8  8  8  8  8  8  8  8  9  9  9  9  9  9  9  9  9  9  9  9
CENTRE ASSIGNMENTS    9  9  9  9  9  9  9  9  9  9  9  9  9  9  9 10 10 10 10 10
CENTRE ASSIGNMENTS   10 10 10 10 10 10 10 10 10 10 10 10 10 10 10 10 10 10 10 10
CENTRE ASSIGNMENTS   10 10 11 11 11 11 11 11 11 11 11 11 11 11 11 11 11 11 11 11
CENTRE ASSIGNMENTS   11 11 11 11 11 11 11 11 11 12 12 12 12 12 12 12 12 12 12 12
CENTRE ASSIGNMENTS   12 12 12 12 12 12 12 12 12 12 12 12 12 12 12 12
TYPE ASSIGNMENTS      1  1  1  1  1  1  1  1  1  1  1  1  1  1  1  1  1  1  1  2
TYPE ASSIGNMENTS      2  2  3  3  3  4  4  4  2  3  4  2  3  4  2  3  4  5  6  7
TYPE ASSIGNMENTS      8  9 10  5  6  7  8  9 10  5  6  7  8  9 10 11 12 13 17 14
TYPE ASSIGNMENTS     15 18 19 16 20 11 12 13 17 14 15 18 19 16 20  1  1  1  1  1
TYPE ASSIGNMENTS      1  1  1  1  1  1  1  1  1  1  1  1  1  1  2  2  2  3  3  3
TYPE ASSIGNMENTS      4  4  4  2  3  4  2  3  4  2  3  4  5  6  7  8  9 10  5  6
TYPE ASSIGNMENTS      7  8  9 10  5  6  7  8  9 10 11 12 13 17 14 15 18 19 16 20
TYPE ASSIGNMENTS     11 12 13 17 14 15 18 19 16 20  1  1  1  1  1  1  2  3  4  2
TYPE ASSIGNMENTS      3  4  2  3  4  5  6  7  8  9 10  5  6  7  8  9 10  1  1  1
TYPE ASSIGNMENTS      1  1  1  2  3  4  2  3  4  2  3  4  5  6  7  8  9 10  5  6
TYPE ASSIGNMENTS      7  8  9 10  1  1  1  1  1  1  2  3  4  2  3  4  2  3  4  5
TYPE ASSIGNMENTS      6  7  8  9 10  5  6  7  8  9 10  1  1  1  1  1  1  2  3  4
TYPE ASSIGNMENTS      2  3  4  2  3  4  5  6  7  8  9 10  5  6  7  8  9 10  1  1
TYPE ASSIGNMENTS      1  1  1  1  1  1  1  1  1  1  1  1  1  1  1  1  1  2  2  2
TYPE ASSIGNMENTS      3  3  3  4  4  4  2  3  4  2  3  4  2  3  4  5  6  7  8  9
TYPE ASSIGNMENTS     10  5  6  7  8  9 10  5  6  7  8  9 10 11 12 13 17 14 15 18
TYPE ASSIGNMENTS     19 16 20 11 12 13 17 14 15 18 19 16 20  1  1  1  1  1  1  1
TYPE ASSIGNMENTS      1  1  1  1  1  1  1  1  1  1  1  1  2  2  2  3  3  3  4  4
TYPE ASSIGNMENTS      4  2  3  4  2  3  4  2  3  4  5  6  7  8  9 10  5  6  7  8
TYPE ASSIGNMENTS      9 10  5  6  7  8  9 10 11 12 13 17 14 15 18 19 16 20 11 12
TYPE ASSIGNMENTS     13 17 14 15 18 19 16 20  1  1  1  1  1  1  2  3  4  2  3  4
TYPE ASSIGNMENTS      2  3  4  5  6  7  8  9 10  5  6  7  8  9 10  1  1  1  1  1
TYPE ASSIGNMENTS      1  2  3  4  2  3  4  2  3  4  5  6  7  8  9 10  5  6  7  8
TYPE ASSIGNMENTS      9 10  1  1  1  1  1  1  2  3  4  2  3  4  2  3  4  5  6  7
TYPE ASSIGNMENTS      8  9 10  5  6  7  8  9 10  1  1  1  1  1  1  2  3  4  2  3
TYPE ASSIGNMENTS      4  2  3  4  5  6  7  8  9 10  5  6  7  8  9 10
EXPONENTS  0.8236000D+04 0.1235000D+04 0.2808000D+03 0.7927000D+02 0.2559000D+02
EXPONENTS  0.8997000D+01 0.3319000D+01 0.3643000D+00 0.8236000D+04 0.1235000D+04
EXPONENTS  0.2808000D+03 0.7927000D+02 0.2559000D+02 0.8997000D+01 0.3319000D+01
EXPONENTS  0.3643000D+00 0.9059000D+00 0.1285000D+00 0.4402000D-01 0.1871000D+02
EXPONENTS  0.4133000D+01 0.1200000D+01 0.1871000D+02 0.4133000D+01 0.1200000D+01
EXPONENTS  0.1871000D+02 0.4133000D+01 0.1200000D+01 0.3827000D+00 0.3827000D+00
EXPONENTS  0.3827000D+00 0.1209000D+00 0.1209000D+00 0.1209000D+00 0.3569000D-01
EXPONENTS  0.3569000D-01 0.3569000D-01 0.1097000D+01 0.1097000D+01 0.1097000D+01
EXPONENTS  0.1097000D+01 0.1097000D+01 0.1097000D+01 0.3180000D+00 0.3180000D+00
EXPONENTS  0.3180000D+00 0.3180000D+00 0.3180000D+00 0.3180000D+00 0.1000000D+00
EXPONENTS  0.1000000D+00 0.1000000D+00 0.1000000D+00 0.1000000D+00 0.1000000D+00
EXPONENTS  0.7610000D+00 0.7610000D+00 0.7610000D+00 0.7610000D+00 0.7610000D+00
EXPONENTS  0.7610000D+00 0.7610000D+00 0.7610000D+00 0.7610000D+00 0.7610000D+00
EXPONENTS  0.2680000D+00 0.2680000D+00 0.2680000D+00 0.2680000D+00 0.2680000D+00
EXPONENTS  0.2680000D+00 0.2680000D+00 0.2680000D+00 0.2680000D+00 0.2680000D+00
EXPONENTS  0.8236000D+04 0.1235000D+04 0.2808000D+03 0.7927000D+02 0.2559000D+02
EXPONENTS  0.8997000D+01 0.3319000D+01 0.3643000D+00 0.8236000D+04 0.1235000D+04
EXPONENTS  0.2808000D+03 0.7927000D+02 0.2559000D+02 0.8997000D+01 0.3319000D+01
EXPONENTS  0.3643000D+00 0.9059000D+00 0.1285000D+00 0.4402000D-01 0.1871000D+02
EXPONENTS  0.4133000D+01 0.1200000D+01 0.1871000D+02 0.4133000D+01 0.1200000D+01
EXPONENTS  0.1871000D+02 0.4133000D+01 0.1200000D+01 0.3827000D+00 0.3827000D+00
EXPONENTS  0.3827000D+00 0.1209000D+00 0.1209000D+00 0.1209000D+00 0.3569000D-01
EXPONENTS  0.3569000D-01 0.3569000D-01 0.1097000D+01 0.1097000D+01 0.1097000D+01
EXPONENTS  0.1097000D+01 0.1097000D+01 0.1097000D+01 0.3180000D+00 0.3180000D+00
EXPONENTS  0.3180000D+00 0.3180000D+00 0.3180000D+00 0.3180000D+00 0.1000000D+00
EXPONENTS  0.1000000D+00 0.1000000D+00 0.1000000D+00 0.1000000D+00 0.1000000D+00
EXPONENTS  0.7610000D+00 0.7610000D+00 0.7610000D+00 0.7610000D+00 0.7610000D+00
EXPONENTS  0.7610000D+00 0.7610000D+00 0.7610000D+00 0.7610000D+00 0.7610000D+00
EXPONENTS  0.2680000D+00 0.2680000D+00 0.2680000D+00 0.2680000D+00 0.2680000D+00
EXPONENTS  0.2680000D+00 0.2680000D+00 0.2680000D+00 0.2680000D+00 0.2680000D+00
EXPONENTS  0.3387000D+02 0.5095000D+01 0.1159000D+01 0.3258000D+00 0.1027000D+00
EXPONENTS  0.2526000D-01 0.1407000D+01 0.1407000D+01 0.1407000D+01 0.3880000D+00
EXPONENTS  0.3880000D+00 0.3880000D+00 0.1020000D+00 0.1020000D+00 0.1020000D+00
EXPONENTS  0.1057000D+01 0.1057000D+01 0.1057000D+01 0.1057000D+01 0.1057000D+01
EXPONENTS  0.1057000D+01 0.2470000D+00 0.2470000D+00 0.2470000D+00 0.2470000D+00
EXPONENTS  0.2470000D+00 0.2470000D+00 0.3387000D+02 0.5095000D+01 0.1159000D+01
EXPONENTS  0.3258000D+00 0.1027000D+00 0.2526000D-01 0.1407000D+01 0.1407000D+01
EXPONENTS  0.1407000D+01 0.3880000D+00 0.3880000D+00 0.3880000D+00 0.1020000D+00
EXPONENTS  0.1020000D+00 0.1020000D+00 0.1057000D+01 0.1057000D+01 0.1057000D+01
EXPONENTS  0.1057000D+01 0.1057000D+01 0.1057000D+01 0.2470000D+00 0.2470000D+00
EXPONENTS  0.2470000D+00 0.2470000D+00 0.2470000D+00 0.2470000D+00 0.3387000D+02
EXPONENTS  0.5095000D+01 0.1159000D+01 0.3258000D+00 0.1027000D+00 0.2526000D-01
EXPONENTS  0.1407000D+01 0.1407000D+01 0.1407000D+01 0.3880000D+00 0.3880000D+00
EXPONENTS  0.3880000D+00 0.1020000D+00 0.1020000D+00 0.1020000D+00 0.1057000D+01
EXPONENTS  0.1057000D+01 0.1057000D+01 0.1057000D+01 0.1057000D+01 0.1057000D+01
EXPONENTS  0.2470000D+00 0.2470000D+00 0.2470000D+00 0.2470000D+00 0.2470000D+00
EXPONENTS  0.2470000D+00 0.3387000D+02 0.5095000D+01 0.1159000D+01 0.3258000D+00
EXPONENTS  0.1027000D+00 0.2526000D-01 0.1407000D+01 0.1407000D+01 0.1407000D+01
EXPONENTS  0.3880000D+00 0.3880000D+00 0.3880000D+00 0.1020000D+00 0.1020000D+00
EXPONENTS  0.1020000D+00 0.1057000D+01 0.1057000D+01 0.1057000D+01 0.1057000D+01
EXPONENTS  0.1057000D+01 0.1057000D+01 0.2470000D+00 0.2470000D+00 0.2470000D+00
EXPONENTS  0.2470000D+00 0.2470000D+00 0.2470000D+00 0.8236000D+04 0.1235000D+04
EXPONENTS  0.2808000D+03 0.7927000D+02 0.2559000D+02 0.8997000D+01 0.3319000D+01
EXPONENTS  0.3643000D+00 0.8236000D+04 0.1235000D+04 0.2808000D+03 0.7927000D+02
EXPONENTS  0.2559000D+02 0.8997000D+01 0.3319000D+01 0.3643000D+00 0.9059000D+00
EXPONENTS  0.1285000D+00 0.4402000D-01 0.1871000D+02 0.4133000D+01 0.1200000D+01
EXPONENTS  0.1871000D+02 0.4133000D+01 0.1200000D+01 0.1871000D+02 0.4133000D+01
EXPONENTS  0.1200000D+01 0.3827000D+00 0.3827000D+00 0.3827000D+00 0.1209000D+00
EXPONENTS  0.1209000D+00 0.1209000D+00 0.3569000D-01 0.3569000D-01 0.3569000D-01
EXPONENTS  0.1097000D+01 0.1097000D+01 0.1097000D+01 0.1097000D+01 0.1097000D+01
EXPONENTS  0.1097000D+01 0.3180000D+00 0.3180000D+00 0.3180000D+00 0.3180000D+00
EXPONENTS  0.3180000D+00 0.3180000D+00 0.1000000D+00 0.1000000D+00 0.1000000D+00
EXPONENTS  0.1000000D+00 0.1000000D+00 0.1000000D+00 0.7610000D+00 0.7610000D+00
EXPONENTS  0.7610000D+00 0.7610000D+00 0.7610000D+00 0.7610000D+00 0.7610000D+00
EXPONENTS  0.7610000D+00 0.7610000D+00 0.7610000D+00 0.2680000D+00 0.2680000D+00
EXPONENTS  0.2680000D+00 0.2680000D+00 0.2680000D+00 0.2680000D+00 0.2680000D+00
EXPONENTS  0.2680000D+00 0.2680000D+00 0.2680000D+00 0.8236000D+04 0.1235000D+04
EXPONENTS  0.2808000D+03 0.7927000D+02 0.2559000D+02 0.8997000D+01 0.3319000D+01
EXPONENTS  0.3643000D+00 0.8236000D+04 0.1235000D+04 0.2808000D+03 0.7927000D+02
EXPONENTS  0.2559000D+02 0.8997000D+01 0.3319000D+01 0.3643000D+00 0.9059000D+00
EXPONENTS  0.1285000D+00 0.4402000D-01 0.1871000D+02 0.4133000D+01 0.1200000D+01
EXPONENTS  0.1871000D+02 0.4133000D+01 0.1200000D+01 0.1871000D+02 0.4133000D+01
EXPONENTS  0.1200000D+01 0.3827000D+00 0.3827000D+00 0.3827000D+00 0.1209000D+00
EXPONENTS  0.1209000D+00 0.1209000D+00 0.3569000D-01 0.3569000D-01 0.3569000D-01
EXPONENTS  0.1097000D+01 0.1097000D+01 0.1097000D+01 0.1097000D+01 0.1097000D+01
EXPONENTS  0.1097000D+01 0.3180000D+00 0.3180000D+00 0.3180000D+00 0.3180000D+00
EXPONENTS  0.3180000D+00 0.3180000D+00 0.1000000D+00 0.1000000D+00 0.1000000D+00
EXPONENTS  0.1000000D+00 0.1000000D+00 0.1000000D+00 0.7610000D+00 0.7610000D+00
EXPONENTS  0.7610000D+00 0.7610000D+00 0.7610000D+00 0.7610000D+00 0.7610000D+00
EXPONENTS  0.7610000D+00 0.7610000D+00 0.7610000D+00 0.2680000D+00 0.2680000D+00
EXPONENTS  0.2680000D+00 0.2680000D+00 0.2680000D+00 0.2680000D+00 0.2680000D+00
EXPONENTS  0.2680000D+00 0.2680000D+00 0.2680000D+00 0.3387000D+02 0.5095000D+01
EXPONENTS  0.1159000D+01 0.3258000D+00 0.1027000D+00 0.2526000D-01 0.1407000D+01
EXPONENTS  0.1407000D+01 0.1407000D+01 0.3880000D+00 0.3880000D+00 0.3880000D+00
EXPONENTS  0.1020000D+00 0.1020000D+00 0.1020000D+00 0.1057000D+01 0.1057000D+01
EXPONENTS  0.1057000D+01 0.1057000D+01 0.1057000D+01 0.1057000D+01 0.2470000D+00
EXPONENTS  0.2470000D+00 0.2470000D+00 0.2470000D+00 0.2470000D+00 0.2470000D+00
EXPONENTS  0.3387000D+02 0.5095000D+01 0.1159000D+01 0.3258000D+00 0.1027000D+00
EXPONENTS  0.2526000D-01 0.1407000D+01 0.1407000D+01 0.1407000D+01 0.3880000D+00
EXPONENTS  0.3880000D+00 0.3880000D+00 0.1020000D+00 0.1020000D+00 0.1020000D+00
EXPONENTS  0.1057000D+01 0.1057000D+01 0.1057000D+01 0.1057000D+01 0.1057000D+01
EXPONENTS  0.1057000D+01 0.2470000D+00 0.2470000D+00 0.2470000D+00 0.2470000D+00
EXPONENTS  0.2470000D+00 0.2470000D+00 0.3387000D+02 0.5095000D+01 0.1159000D+01
EXPONENTS  0.3258000D+00 0.1027000D+00 0.2526000D-01 0.1407000D+01 0.1407000D+01
EXPONENTS  0.1407000D+01 0.3880000D+00 0.3880000D+00 0.3880000D+00 0.1020000D+00
EXPONENTS  0.1020000D+00 0.1020000D+00 0.1057000D+01 0.1057000D+01 0.1057000D+01
EXPONENTS  0.1057000D+01 0.1057000D+01 0.1057000D+01 0.2470000D+00 0.2470000D+00
EXPONENTS  0.2470000D+00 0.2470000D+00 0.2470000D+00 0.2470000D+00 0.3387000D+02
EXPONENTS  0.5095000D+01 0.1159000D+01 0.3258000D+00 0.1027000D+00 0.2526000D-01
EXPONENTS  0.1407000D+01 0.1407000D+01 0.1407000D+01 0.3880000D+00 0.3880000D+00
EXPONENTS  0.3880000D+00 0.1020000D+00 0.1020000D+00 0.1020000D+00 0.1057000D+01
EXPONENTS  0.1057000D+01 0.1057000D+01 0.1057000D+01 0.1057000D+01 0.1057000D+01
EXPONENTS  0.2470000D+00 0.2470000D+00 0.2470000D+00 0.2470000D+00 0.2470000D+00
EXPONENTS  0.2470000D+00
MO    1     MO 0.0        OCC NO =    2.0000000  ORB. ENERGY =   -9.926210
  0.16663512D+00  0.31064575D+00  0.52504604D+00  0.78931619D+00  0.96976614D+00
  0.81912253D+00  0.30894288D+00 -0.15289756D-02 -0.29410958D-02 -0.55066593D-02
 -0.93755586D-02 -0.14502564D-01 -0.19099366D-01 -0.19845465D-01 -0.12610902D-01
  0.84515332D-02  0.20572831D-01 -0.51641581D-02 -0.85683127D-03  0.68572150D-03
  0.64290749D-03  0.45778843D-03  0.68572150D-03  0.64290749D-03  0.45778843D-03
  0.19777363D-03  0.18542535D-03  0.13203389D-03 -0.31985932D-03 -0.31985932D-03
 -0.37154617D-03  0.72249510D-03  0.72249510D-03  0.24881544D-02  0.11582485D-04
  0.11582486D-04 -0.10757671D-04 -0.10707840D-02 -0.10707840D-02  0.21415680D-02
  0.45219862D-02  0.15221559D-03  0.15221559D-03 -0.46539085D-04 -0.46539085D-04
  0.93078169D-04 -0.26921599D-02 -0.23109104D-03 -0.23109104D-03  0.11717573D-03
  0.11717573D-03 -0.23435145D-03 -0.47430950D-05 -0.22151444D-03 -0.22151444D-03
  0.54589055D-03  0.54589055D-03 -0.79022061D-04 -0.43606227D-03 -0.43606227D-03
  0.11853309D-03 -0.12016094D-02 -0.12016094D-02  0.11853309D-03 -0.30442160D-04
 -0.18104726D-03 -0.18104726D-03  0.31744891D-04 -0.63304892D-03 -0.63304892D-03
 -0.47617336D-04  0.11761907D-02  0.11761907D-02 -0.47617337D-04  0.15278420D-03
  0.16663512D+00  0.31064575D+00  0.52504604D+00  0.78931619D+00  0.96976613D+00
  0.81912253D+00  0.30894288D+00 -0.15289756D-02 -0.29410958D-02 -0.55066593D-02
 -0.93755586D-02 -0.14502564D-01 -0.19099366D-01 -0.19845465D-01 -0.12610902D-01
  0.84515332D-02  0.20572831D-01 -0.51641581D-02 -0.85683127D-03 -0.68572150D-03
 -0.64290749D-03 -0.45778844D-03 -0.68572150D-03 -0.64290749D-03 -0.45778844D-03
  0.19777363D-03  0.18542535D-03  0.13203389D-03  0.31985932D-03  0.31985932D-03
 -0.37154618D-03 -0.72249509D-03 -0.72249509D-03  0.24881544D-02 -0.11582485D-04
 -0.11582485D-04 -0.10757671D-04 -0.10707840D-02 -0.10707840D-02  0.21415680D-02
  0.45219861D-02 -0.15221559D-03 -0.15221559D-03 -0.46539085D-04 -0.46539085D-04
  0.93078170D-04 -0.26921599D-02  0.23109104D-03  0.23109104D-03  0.11717573D-03
  0.11717573D-03 -0.23435145D-03 -0.47430964D-05  0.22151444D-03  0.22151444D-03
 -0.54589055D-03 -0.54589055D-03 -0.79022061D-04  0.43606227D-03  0.43606227D-03
  0.11853309D-03  0.12016094D-02  0.12016094D-02  0.11853309D-03 -0.30442161D-04
  0.18104726D-03  0.18104726D-03  0.31744891D-04  0.63304892D-03  0.63304892D-03
 -0.47617337D-04 -0.11761907D-02 -0.11761907D-02 -0.47617337D-04  0.15278420D-03
  0.17949651D-03  0.32372935D-03  0.47733873D-03  0.14681723D-02 -0.19718261D-02
  0.99585431D-04 -0.62661579D-04 -0.62661579D-04  0.46976796D-03 -0.10976493D-02
 -0.10976493D-02  0.18801747D-02 -0.22127408D-03 -0.22127408D-03  0.84441750D-03
  0.67623553D-03  0.67623553D-03 -0.13524711D-02 -0.13876620D-02  0.23903321D-02
  0.23903321D-02  0.31054640D-04  0.31054640D-04 -0.62109280D-04 -0.70850064D-03
  0.22979499D-03  0.22979499D-03  0.17949651D-03  0.32372935D-03  0.47733873D-03
  0.14681723D-02 -0.19718261D-02  0.99585431D-04  0.62661577D-04  0.62661577D-04
  0.46976796D-03  0.10976493D-02  0.10976493D-02  0.18801747D-02  0.22127408D-03
  0.22127408D-03  0.84441750D-03  0.67623553D-03  0.67623553D-03 -0.13524711D-02
 -0.13876620D-02 -0.23903321D-02 -0.23903321D-02  0.31054640D-04  0.31054640D-04
 -0.62109279D-04 -0.70850064D-03 -0.22979499D-03 -0.22979499D-03  0.16758162D-03
  0.30224036D-03  0.44565323D-03  0.27927597D-02  0.56753072D-02  0.18002128D-04
 -0.90805861D-04 -0.90805861D-04 -0.65267896D-03 -0.10951456D-02 -0.10951456D-02
 -0.16244721D-02  0.21209462D-03  0.21209462D-03  0.32963660D-03  0.69568209D-03
  0.69568209D-03 -0.13913642D-02 -0.16449316D-02 -0.24011948D-02 -0.24011948D-02
  0.93541392D-04  0.93541392D-04 -0.18708278D-03 -0.62542898D-03 -0.33464283D-03
 -0.33464283D-03  0.16758162D-03  0.30224036D-03  0.44565323D-03  0.27927597D-02
  0.56753072D-02  0.18002128D-04  0.90805860D-04  0.90805860D-04 -0.65267895D-03
  0.10951456D-02  0.10951456D-02 -0.16244721D-02 -0.21209462D-03 -0.21209462D-03
  0.32963660D-03  0.69568208D-03  0.69568208D-03 -0.13913642D-02 -0.16449316D-02
  0.24011948D-02  0.24011948D-02  0.93541391D-04  0.93541391D-04 -0.18708278D-03
 -0.62542898D-03  0.33464283D-03  0.33464283D-03  0.16663512D+00  0.31064575D+00
  0.52504604D+00  0.78931618D+00  0.96976613D+00  0.81912253D+00  0.30894288D+00
 -0.15289755D-02 -0.29410958D-02 -0.55066593D-02 -0.93755586D-02 -0.14502563D-01
 -0.19099366D-01 -0.19845465D-01 -0.12610902D-01  0.84515332D-02  0.20572831D-01
 -0.51641581D-02 -0.85683127D-03  0.68572150D-03  0.64290749D-03  0.45778843D-03
 -0.68572150D-03 -0.64290749D-03 -0.45778843D-03 -0.19777363D-03 -0.18542535D-03
 -0.13203389D-03 -0.31985932D-03  0.31985932D-03  0.37154618D-03  0.72249509D-03
 -0.72249509D-03 -0.24881544D-02  0.11582485D-04 -0.11582485D-04  0.10757671D-04
 -0.10707840D-02 -0.10707840D-02  0.21415679D-02 -0.45219861D-02 -0.15221559D-03
  0.15221559D-03 -0.46539085D-04 -0.46539084D-04  0.93078169D-04  0.26921599D-02
  0.23109104D-03 -0.23109104D-03  0.11717573D-03  0.11717573D-03 -0.23435145D-03
  0.47430957D-05  0.22151444D-03 -0.22151444D-03  0.54589055D-03 -0.54589055D-03
  0.79022061D-04 -0.43606227D-03  0.43606227D-03 -0.11853309D-03 -0.12016094D-02
  0.12016094D-02 -0.11853309D-03 -0.30442162D-04 -0.18104726D-03  0.18104726D-03
 -0.31744891D-04 -0.63304892D-03  0.63304892D-03  0.47617336D-04  0.11761907D-02
 -0.11761907D-02  0.47617336D-04  0.15278420D-03  0.16663512D+00  0.31064575D+00
  0.52504604D+00  0.78931618D+00  0.96976613D+00  0.81912253D+00  0.30894288D+00
 -0.15289756D-02 -0.29410958D-02 -0.55066593D-02 -0.93755586D-02 -0.14502563D-01
 -0.19099366D-01 -0.19845465D-01 -0.12610902D-01  0.84515332D-02  0.20572831D-01
 -0.51641580D-02 -0.85683127D-03 -0.68572150D-03 -0.64290749D-03 -0.45778843D-03
  0.68572150D-03  0.64290749D-03  0.45778843D-03 -0.19777363D-03 -0.18542535D-03
 -0.13203389D-03  0.31985932D-03 -0.31985932D-03  0.37154618D-03 -0.72249509D-03
  0.72249509D-03 -0.24881544D-02 -0.11582485D-04  0.11582485D-04  0.10757671D-04
 -0.10707840D-02 -0.10707840D-02  0.21415680D-02 -0.45219861D-02  0.15221559D-03
 -0.15221559D-03 -0.46539084D-04 -0.46539084D-04  0.93078169D-04  0.26921599D-02
 -0.23109104D-03  0.23109104D-03  0.11717573D-03  0.11717573D-03 -0.23435145D-03
  0.47430950D-05 -0.22151444D-03  0.22151444D-03 -0.54589055D-03  0.54589055D-03
  0.79022061D-04  0.43606227D-03 -0.43606227D-03 -0.11853309D-03  0.12016094D-02
 -0.12016094D-02 -0.11853309D-03 -0.30442161D-04  0.18104726D-03 -0.18104726D-03
 -0.31744891D-04  0.63304892D-03 -0.63304892D-03  0.47617336D-04 -0.11761907D-02
  0.11761907D-02  0.47617336D-04  0.15278420D-03  0.17949651D-03  0.32372934D-03
  0.47733873D-03  0.14681723D-02 -0.19718261D-02  0.99585430D-04 -0.62661578D-04
  0.62661578D-04 -0.46976795D-03 -0.10976493D-02  0.10976493D-02 -0.18801747D-02
 -0.22127408D-03  0.22127408D-03 -0.84441750D-03  0.67623553D-03  0.67623553D-03
 -0.13524711D-02  0.13876620D-02 -0.23903321D-02  0.23903321D-02  0.31054640D-04
  0.31054640D-04 -0.62109279D-04  0.70850064D-03 -0.22979499D-03  0.22979499D-03
  0.17949651D-03  0.32372934D-03  0.47733873D-03  0.14681723D-02 -0.19718261D-02
  0.99585430D-04  0.62661579D-04 -0.62661579D-04 -0.46976795D-03  0.10976493D-02
 -0.10976493D-02 -0.18801747D-02  0.22127408D-03 -0.22127408D-03 -0.84441750D-03
  0.67623553D-03  0.67623553D-03 -0.13524711D-02  0.13876620D-02  0.23903321D-02
 -0.23903321D-02  0.31054640D-04  0.31054640D-04 -0.62109280D-04  0.70850064D-03
  0.22979499D-03 -0.22979499D-03  0.16758162D-03  0.30224035D-03  0.44565323D-03
  0.27927597D-02  0.56753072D-02  0.18002128D-04 -0.90805860D-04  0.90805860D-04
  0.65267895D-03 -0.10951456D-02  0.10951456D-02  0.16244721D-02  0.21209462D-03
 -0.21209462D-03 -0.32963660D-03  0.69568208D-03  0.69568208D-03 -0.13913642D-02
  0.16449316D-02  0.24011948D-02 -0.24011948D-02  0.93541391D-04  0.93541391D-04
 -0.18708278D-03  0.62542898D-03  0.33464283D-03 -0.33464283D-03  0.16758162D-03
  0.30224035D-03  0.44565323D-03  0.27927597D-02  0.56753072D-02  0.18002128D-04
  0.90805861D-04 -0.90805861D-04  0.65267895D-03  0.10951456D-02 -0.10951456D-02
  0.16244721D-02 -0.21209462D-03  0.21209462D-03 -0.32963660D-03  0.69568208D-03
  0.69568208D-03 -0.13913642D-02  0.16449316D-02 -0.24011948D-02  0.24011948D-02
  0.93541391D-04  0.93541391D-04 -0.18708278D-03  0.62542898D-03 -0.33464283D-03
  0.33464283D-03
MO    2     MO 0.0        OCC NO =    2.0000000  ORB. ENERGY =   -9.926201
 -0.16655077D+00 -0.31048851D+00 -0.52478028D+00 -0.78891666D+00 -0.96927527D+00
 -0.81870791D+00 -0.30878650D+00  0.15282016D-02  0.28737699D-02  0.53806041D-02
  0.91609388D-02  0.14170579D-01  0.18662155D-01  0.19391174D-01  0.12322221D-01
 -0.82580657D-02 -0.20350511D-01  0.46531761D-02  0.79785793D-03 -0.63863373D-03
 -0.59875971D-03 -0.42635258D-03 -0.63863373D-03 -0.59875971D-03 -0.42635258D-03
  0.84296019D-04  0.79032876D-04  0.56276116D-04  0.34820303D-04  0.34820303D-04
 -0.47939660D-03 -0.53831543D-03 -0.53831543D-03 -0.13069911D-02 -0.44027889D-04
 -0.44027889D-04 -0.19324019D-04  0.10239102D-02  0.10239102D-02 -0.20478204D-02
 -0.45438372D-02  0.86667822D-04  0.86667822D-04  0.10324177D-03  0.10324177D-03
 -0.20648355D-03  0.27980544D-02  0.77392161D-04  0.77392162D-04 -0.83778015D-04
 -0.83778015D-04  0.16755603D-03  0.69643456D-04  0.19922563D-03  0.19922563D-03
 -0.44779328D-03 -0.44779328D-03 -0.32255787D-04  0.49664526D-03  0.49664526D-03
  0.48383680D-04  0.84673458D-03  0.84673458D-03  0.48383680D-04 -0.17541388D-03
  0.14482106D-03  0.14482106D-03 -0.46742938D-04  0.59479355D-03  0.59479355D-03
  0.70114407D-04 -0.10292567D-02 -0.10292567D-02  0.70114407D-04  0.11513942D-03
 -0.16655077D+00 -0.31048851D+00 -0.52478028D+00 -0.78891666D+00 -0.96927527D+00
 -0.81870791D+00 -0.30878650D+00  0.15282016D-02  0.28737699D-02  0.53806041D-02
  0.91609388D-02  0.14170579D-01  0.18662155D-01  0.19391174D-01  0.12322221D-01
 -0.82580657D-02 -0.20350511D-01  0.46531762D-02  0.79785793D-03  0.63863373D-03
  0.59875971D-03  0.42635259D-03  0.63863373D-03  0.59875971D-03  0.42635259D-03
  0.84296019D-04  0.79032876D-04  0.56276116D-04 -0.34820306D-04 -0.34820306D-04
 -0.47939660D-03  0.53831542D-03  0.53831542D-03 -0.13069911D-02  0.44027889D-04
  0.44027889D-04 -0.19324019D-04  0.10239102D-02  0.10239102D-02 -0.20478204D-02
 -0.45438372D-02 -0.86667822D-04 -0.86667822D-04  0.10324177D-03  0.10324177D-03
 -0.20648355D-03  0.27980544D-02 -0.77392160D-04 -0.77392160D-04 -0.83778015D-04
 -0.83778015D-04  0.16755603D-03  0.69643458D-04 -0.19922563D-03 -0.19922563D-03
  0.44779328D-03  0.44779328D-03 -0.32255787D-04 -0.49664527D-03 -0.49664527D-03
  0.48383680D-04 -0.84673457D-03 -0.84673457D-03  0.48383680D-04 -0.17541388D-03
 -0.14482106D-03 -0.14482106D-03 -0.46742938D-04 -0.59479355D-03 -0.59479355D-03
  0.70114407D-04  0.10292567D-02  0.10292567D-02  0.70114407D-04  0.11513942D-03
 -0.20733434D-03 -0.37393602D-03 -0.55136844D-03 -0.12591876D-02  0.95596049D-03
 -0.25229820D-03 -0.44221830D-04 -0.44221830D-04 -0.83463947D-03  0.13757149D-02
  0.13757149D-02 -0.12978751D-02  0.17101507D-03  0.17101507D-03 -0.97889358D-04
 -0.64851531D-03 -0.64851531D-03  0.12970306D-02  0.14067504D-02 -0.23718838D-02
 -0.23718838D-02 -0.33396273D-04 -0.33396273D-04  0.66792547D-04  0.69437919D-03
 -0.26112270D-03 -0.26112270D-03 -0.20733434D-03 -0.37393602D-03 -0.55136844D-03
 -0.12591876D-02  0.95596051D-03 -0.25229820D-03  0.44221832D-04  0.44221832D-04
 -0.83463947D-03 -0.13757148D-02 -0.13757148D-02 -0.12978751D-02 -0.17101507D-03
 -0.17101507D-03 -0.97889359D-04 -0.64851531D-03 -0.64851531D-03  0.12970306D-02
  0.14067504D-02  0.23718838D-02  0.23718838D-02 -0.33396273D-04 -0.33396273D-04
  0.66792546D-04  0.69437919D-03  0.26112270D-03  0.26112270D-03 -0.16056516D-03
 -0.28958588D-03 -0.42699421D-03 -0.23868142D-02 -0.33183822D-02 -0.35051873D-04
 -0.12141209D-04 -0.12141209D-04  0.55491878D-03  0.92922516D-03  0.92922516D-03
  0.13050287D-02 -0.18969277D-04 -0.18969277D-04 -0.15321530D-04 -0.60422877D-03
 -0.60422877D-03  0.12084575D-02  0.14048243D-02  0.20946229D-02  0.20946229D-02
 -0.78782308D-04 -0.78782308D-04  0.15756462D-03  0.59247239D-03  0.27992290D-03
  0.27992290D-03 -0.16056516D-03 -0.28958588D-03 -0.42699421D-03 -0.23868142D-02
 -0.33183822D-02 -0.35051872D-04  0.12141211D-04  0.12141211D-04  0.55491877D-03
 -0.92922516D-03 -0.92922516D-03  0.13050287D-02  0.18969276D-04  0.18969276D-04
 -0.15321532D-04 -0.60422876D-03 -0.60422877D-03  0.12084575D-02  0.14048243D-02
 -0.20946228D-02 -0.20946228D-02 -0.78782308D-04 -0.78782308D-04  0.15756462D-03
  0.59247239D-03 -0.27992290D-03 -0.27992290D-03  0.16655077D+00  0.31048851D+00
  0.52478028D+00  0.78891666D+00  0.96927527D+00  0.81870792D+00  0.30878650D+00
 -0.15282016D-02 -0.28737700D-02 -0.53806041D-02 -0.91609388D-02 -0.14170579D-01
 -0.18662155D-01 -0.19391174D-01 -0.12322221D-01  0.82580657D-02  0.20350511D-01
 -0.46531762D-02 -0.79785793D-03  0.63863373D-03  0.59875972D-03  0.42635259D-03
 -0.63863373D-03 -0.59875972D-03 -0.42635259D-03  0.84296018D-04  0.79032875D-04
  0.56276115D-04 -0.34820307D-04  0.34820307D-04 -0.47939659D-03  0.53831542D-03
 -0.53831542D-03 -0.13069911D-02  0.44027889D-04 -0.44027889D-04 -0.19324019D-04
 -0.10239102D-02 -0.10239102D-02  0.20478204D-02 -0.45438372D-02  0.86667821D-04
 -0.86667821D-04 -0.10324177D-03 -0.10324177D-03  0.20648355D-03  0.27980544D-02
  0.77392162D-04 -0.77392161D-04  0.83778015D-04  0.83778015D-04 -0.16755603D-03
  0.69643458D-04  0.19922563D-03 -0.19922563D-03  0.44779328D-03 -0.44779328D-03
 -0.32255786D-04 -0.49664527D-03  0.49664527D-03  0.48383680D-04 -0.84673458D-03
  0.84673458D-03  0.48383679D-04  0.17541388D-03 -0.14482107D-03  0.14482107D-03
 -0.46742938D-04 -0.59479355D-03  0.59479355D-03  0.70114407D-04  0.10292567D-02
 -0.10292567D-02  0.70114407D-04 -0.11513942D-03  0.16655077D+00  0.31048851D+00
  0.52478028D+00  0.78891666D+00  0.96927527D+00  0.81870792D+00  0.30878650D+00
 -0.15282016D-02 -0.28737700D-02 -0.53806041D-02 -0.91609389D-02 -0.14170579D-01
 -0.18662155D-01 -0.19391174D-01 -0.12322221D-01  0.82580657D-02  0.20350511D-01
 -0.46531762D-02 -0.79785793D-03 -0.63863373D-03 -0.59875972D-03 -0.42635259D-03
  0.63863373D-03  0.59875972D-03  0.42635259D-03  0.84296018D-04  0.79032875D-04
  0.56276115D-04  0.34820305D-04 -0.34820305D-04 -0.47939660D-03 -0.53831543D-03
  0.53831543D-03 -0.13069911D-02 -0.44027889D-04  0.44027889D-04 -0.19324019D-04
 -0.10239102D-02 -0.10239102D-02  0.20478204D-02 -0.45438372D-02 -0.86667821D-04
  0.86667821D-04 -0.10324177D-03 -0.10324177D-03  0.20648355D-03  0.27980544D-02
 -0.77392162D-04  0.77392162D-04  0.83778016D-04  0.83778016D-04 -0.16755603D-03
  0.69643457D-04 -0.19922563D-03  0.19922563D-03 -0.44779328D-03  0.44779328D-03
 -0.32255786D-04  0.49664527D-03 -0.49664527D-03  0.48383679D-04  0.84673458D-03
 -0.84673458D-03  0.48383680D-04  0.17541388D-03  0.14482107D-03 -0.14482107D-03
 -0.46742938D-04  0.59479355D-03 -0.59479355D-03  0.70114407D-04 -0.10292567D-02
  0.10292567D-02  0.70114407D-04 -0.11513942D-03  0.20733434D-03  0.37393602D-03
  0.55136844D-03  0.12591876D-02 -0.95596051D-03  0.25229820D-03  0.44221831D-04
 -0.44221831D-04 -0.83463947D-03 -0.13757149D-02  0.13757149D-02 -0.12978751D-02
 -0.17101507D-03  0.17101507D-03 -0.97889362D-04  0.64851531D-03  0.64851531D-03
 -0.12970306D-02  0.14067504D-02 -0.23718838D-02  0.23718838D-02  0.33396273D-04
  0.33396273D-04 -0.66792546D-04  0.69437920D-03 -0.26112270D-03  0.26112270D-03
  0.20733434D-03  0.37393602D-03  0.55136844D-03  0.12591876D-02 -0.95596050D-03
  0.25229820D-03 -0.44221830D-04  0.44221830D-04 -0.83463947D-03  0.13757149D-02
 -0.13757149D-02 -0.12978751D-02  0.17101507D-03 -0.17101507D-03 -0.97889362D-04
  0.64851531D-03  0.64851531D-03 -0.12970306D-02  0.14067504D-02  0.23718838D-02
 -0.23718838D-02  0.33396273D-04  0.33396273D-04 -0.66792547D-04  0.69437920D-03
  0.26112270D-03 -0.26112270D-03  0.16056516D-03  0.28958588D-03  0.42699421D-03
  0.23868142D-02  0.33183822D-02  0.35051873D-04  0.12141210D-04 -0.12141210D-04
  0.55491878D-03 -0.92922516D-03  0.92922516D-03  0.13050287D-02  0.18969277D-04
 -0.18969277D-04 -0.15321533D-04  0.60422877D-03  0.60422877D-03 -0.12084575D-02
  0.14048243D-02  0.20946229D-02 -0.20946229D-02  0.78782308D-04  0.78782308D-04