 Molden2AIM, Version 4.0.0 (06/02/2016)           Time: Tue Jul  3 17:55:22 2018
GAUSSIAN             26 MOL ORBITALS    795 PRIMITIVES       17 NUCLEI
  C    1    (CENTRE  1)   2.63280045  0.06858005 -1.19672576  CHARGE =  6.0
  C    2    (CENTRE  2)   1.37578865 -2.24575242 -1.19676733  CHARGE =  6.0
  C    3    (CENTRE  3)  -1.25700802 -2.31436270 -1.19672576  CHARGE =  6.0
  C    4    (CENTRE  4)  -2.63277400 -0.06859139 -1.19676733  CHARGE =  6.0
  C    5    (CENTRE  5)  -1.37579243  2.24578076 -1.19672576  CHARGE =  6.0
  C    6    (CENTRE  6)   1.25698535  2.31434570 -1.19676733  CHARGE =  6.0
  H    7    (CENTRE  7)   4.67570022  0.12178907 -1.19378535  CHARGE =  1.0
  H    8    (CENTRE  8)   2.44333840 -3.98834446 -1.19381558  CHARGE =  1.0
  H    9    (CENTRE  9)  -2.23237693 -4.11016944 -1.19378535  CHARGE =  1.0
  H   10    (CENTRE 10)  -4.67567565 -0.12182119 -1.19381558  CHARGE =  1.0
  H   11    (CENTRE 11)  -2.44332328  3.98838037 -1.19378535  CHARGE =  1.0
  H   12    (CENTRE 12)   2.23233914  4.11016566 -1.19381558  CHARGE =  1.0
  C   13    (CENTRE 13)   0.00000000  0.00000000  5.82530566  CHARGE =  6.0
  H   14    (CENTRE 14)   1.10903869  1.58391930  6.51270865  CHARGE =  1.0
  H   15    (CENTRE 15)  -1.92623374  0.16849554  6.51270865  CHARGE =  1.0
  H   16    (CENTRE 16)   0.00000000  0.00000000  3.77315946  CHARGE =  1.0
  H   17    (CENTRE 17)   0.81719506 -1.75241484  6.51270865  CHARGE =  1.0
CENTRE ASSIGNMENTS    1  1  1  1  1  1  1  1  1  1  1  1  1  1  1  1  1  1  1  1
CENTRE ASSIGNMENTS    1  1  1  1  1  1  1  1  1  1  1  1  1  1  1  1  1  1  1  1
CENTRE ASSIGNMENTS    1  1  1  1  1  1  1  1  1  1  1  1  1  1  1  1  1  1  1  1
CENTRE ASSIGNMENTS    1  1  1  1  1  1  1  1  1  1  1  1  1  1  1  2  2  2  2  2
CENTRE ASSIGNMENTS    2  2  2  2  2  2  2  2  2  2  2  2  2  2  2  2  2  2  2  2
CENTRE ASSIGNMENTS    2  2  2  2  2  2  2  2  2  2  2  2  2  2  2  2  2  2  2  2
CENTRE ASSIGNMENTS    2  2  2  2  2  2  2  2  2  2  2  2  2  2  2  2  2  2  2  2
CENTRE ASSIGNMENTS    2  2  2  2  2  2  2  2  2  2  3  3  3  3  3  3  3  3  3  3
CENTRE ASSIGNMENTS    3  3  3  3  3  3  3  3  3  3  3  3  3  3  3  3  3  3  3  3
CENTRE ASSIGNMENTS    3  3  3  3  3  3  3  3  3  3  3  3  3  3  3  3  3  3  3  3
CENTRE ASSIGNMENTS    3  3  3  3  3  3  3  3  3  3  3  3  3  3  3  3  3  3  3  3
CENTRE ASSIGNMENTS    3  3  3  3  3  4  4  4  4  4  4  4  4  4  4  4  4  4  4  4
CENTRE ASSIGNMENTS    4  4  4  4  4  4  4  4  4  4  4  4  4  4  4  4  4  4  4  4
CENTRE ASSIGNMENTS    4  4  4  4  4  4  4  4  4  4  4  4  4  4  4  4  4  4  4  4
CENTRE ASSIGNMENTS    4  4  4  4  4  4  4  4  4  4  4  4  4  4  4  4  4  4  4  4
CENTRE ASSIGNMENTS    5  5  5  5  5  5  5  5  5  5  5  5  5  5  5  5  5  5  5  5
CENTRE ASSIGNMENTS    5  5  5  5  5  5  5  5  5  5  5  5  5  5  5  5  5  5  5  5
CENTRE ASSIGNMENTS    5  5  5  5  5  5  5  5  5  5  5  5  5  5  5  5  5  5  5  5
CENTRE ASSIGNMENTS    5  5  5  5  5  5  5  5  5  5  5  5  5  5  5  6  6  6  6  6
CENTRE ASSIGNMENTS    6  6  6  6  6  6  6  6  6  6  6  6  6  6  6  6  6  6  6  6
CENTRE ASSIGNMENTS    6  6  6  6  6  6  6  6  6  6  6  6  6  6  6  6  6  6  6  6
CENTRE ASSIGNMENTS    6  6  6  6  6  6  6  6  6  6  6  6  6  6  6  6  6  6  6  6
CENTRE ASSIGNMENTS    6  6  6  6  6  6  6  6  6  6  7  7  7  7  7  7  7  7  7  7
CENTRE ASSIGNMENTS    7  7  7  7  7  7  7  7  7  7  7  7  7  7  7  7  7  8  8  8
CENTRE ASSIGNMENTS    8  8  8  8  8  8  8  8  8  8  8  8  8  8  8  8  8  8  8  8
CENTRE ASSIGNMENTS    8  8  8  8  9  9  9  9  9  9  9  9  9  9  9  9  9  9  9  9
CENTRE ASSIGNMENTS    9  9  9  9  9  9  9  9  9  9  9 10 10 10 10 10 10 10 10 10
CENTRE ASSIGNMENTS   10 10 10 10 10 10 10 10 10 10 10 10 10 10 10 10 10 10 11 11
CENTRE ASSIGNMENTS   11 11 11 11 11 11 11 11 11 11 11 11 11 11 11 11 11 11 11 11
CENTRE ASSIGNMENTS   11 11 11 11 11 12 12 12 12 12 12 12 12 12 12 12 12 12 12 12
CENTRE ASSIGNMENTS   12 12 12 12 12 12 12 12 12 12 12 12 13 13 13 13 13 13 13 13
CENTRE ASSIGNMENTS   13 13 13 13 13 13 13 13 13 13 13 13 13 13 13 13 13 13 13 13
CENTRE ASSIGNMENTS   13 13 13 13 13 13 13 13 13 13 13 13 13 13 13 13 13 13 13 13
CENTRE ASSIGNMENTS   13 13 13 13 13 13 13 13 13 13 13 13 13 13 13 13 13 13 13 13
CENTRE ASSIGNMENTS   13 13 13 13 13 13 13 14 14 14 14 14 14 14 14 14 14 14 14 14
CENTRE ASSIGNMENTS   14 14 14 14 14 14 14 14 14 14 14 14 14 14 15 15 15 15 15 15
CENTRE ASSIGNMENTS   15 15 15 15 15 15 15 15 15 15 15 15 15 15 15 15 15 15 15 15
CENTRE ASSIGNMENTS   15 16 16 16 16 16 16 16 16 16 16 16 16 16 16 16 16 16 16 16
CENTRE ASSIGNMENTS   16 16 16 16 16 16 16 16 17 17 17 17 17 17 17 17 17 17 17 17
CENTRE ASSIGNMENTS   17 17 17 17 17 17 17 17 17 17 17 17 17 17 17
TYPE ASSIGNMENTS      1  1  1  1  1  1  1  1  1  1  1  1  1  1  1  1  1  1  1  2
TYPE ASSIGNMENTS      2  2  3  3  3  4  4  4  2  3  4  2  3  4  2  3  4  5  6  7
TYPE ASSIGNMENTS      8  9 10  5  6  7  8  9 10  5  6  7  8  9 10 11 12 13 17 14
TYPE ASSIGNMENTS     15 18 19 16 20 11 12 13 17 14 15 18 19 16 20  1  1  1  1  1
TYPE ASSIGNMENTS      1  1  1  1  1  1  1  1  1  1  1  1  1  1  2  2  2  3  3  3
TYPE ASSIGNMENTS      4  4  4  2  3  4  2  3  4  2  3  4  5  6  7  8  9 10  5  6
TYPE ASSIGNMENTS      7  8  9 10  5  6  7  8  9 10 11 12 13 17 14 15 18 19 16 20
TYPE ASSIGNMENTS     11 12 13 17 14 15 18 19 16 20  1  1  1  1  1  1  1  1  1  1
TYPE ASSIGNMENTS      1  1  1  1  1  1  1  1  1  2  2  2  3  3  3  4  4  4  2  3
TYPE ASSIGNMENTS      4  2  3  4  2  3  4  5  6  7  8  9 10  5  6  7  8  9 10  5
TYPE ASSIGNMENTS      6  7  8  9 10 11 12 13 17 14 15 18 19 16 20 11 12 13 17 14
TYPE ASSIGNMENTS     15 18 19 16 20  1  1  1  1  1  1  1  1  1  1  1  1  1  1  1
TYPE ASSIGNMENTS      1  1  1  1  2  2  2  3  3  3  4  4  4  2  3  4  2  3  4  2
TYPE ASSIGNMENTS      3  4  5  6  7  8  9 10  5  6  7  8  9 10  5  6  7  8  9 10
TYPE ASSIGNMENTS     11 12 13 17 14 15 18 19 16 20 11 12 13 17 14 15 18 19 16 20
TYPE ASSIGNMENTS      1  1  1  1  1  1  1  1  1  1  1  1  1  1  1  1  1  1  1  2
TYPE ASSIGNMENTS      2  2  3  3  3  4  4  4  2  3  4  2  3  4  2  3  4  5  6  7
TYPE ASSIGNMENTS      8  9 10  5  6  7  8  9 10  5  6  7  8  9 10 11 12 13 17 14
TYPE ASSIGNMENTS     15 18 19 16 20 11 12 13 17 14 15 18 19 16 20  1  1  1  1  1
TYPE ASSIGNMENTS      1  1  1  1  1  1  1  1  1  1  1  1  1  1  2  2  2  3  3  3
TYPE ASSIGNMENTS      4  4  4  2  3  4  2  3  4  2  3  4  5  6  7  8  9 10  5  6
TYPE ASSIGNMENTS      7  8  9 10  5  6  7  8  9 10 11 12 13 17 14 15 18 19 16 20
TYPE ASSIGNMENTS     11 12 13 17 14 15 18 19 16 20  1  1  1  1  1  1  2  3  4  2
TYPE ASSIGNMENTS      3  4  2  3  4  5  6  7  8  9 10  5  6  7  8  9 10  1  1  1
TYPE ASSIGNMENTS      1  1  1  2  3  4  2  3  4  2  3  4  5  6  7  8  9 10  5  6
TYPE ASSIGNMENTS      7  8  9 10  1  1  1  1  1  1  2  3  4  2  3  4  2  3  4  5
TYPE ASSIGNMENTS      6  7  8  9 10  5  6  7  8  9 10  1  1  1  1  1  1  2  3  4
TYPE ASSIGNMENTS      2  3  4  2  3  4  5  6  7  8  9 10  5  6  7  8  9 10  1  1
TYPE ASSIGNMENTS      1  1  1  1  2  3  4  2  3  4  2  3  4  5  6  7  8  9 10  5
TYPE ASSIGNMENTS      6  7  8  9 10  1  1  1  1  1  1  2  3  4  2  3  4  2  3  4
TYPE ASSIGNMENTS      5  6  7  8  9 10  5  6  7  8  9 10  1  1  1  1  1  1  1  1
TYPE ASSIGNMENTS      1  1  1  1  1  1  1  1  1  1  1  2  2  2  3  3  3  4  4  4
TYPE ASSIGNMENTS      2  3  4  2  3  4  2  3  4  5  6  7  8  9 10  5  6  7  8  9
TYPE ASSIGNMENTS     10  5  6  7  8  9 10 11 12 13 17 14 15 18 19 16 20 11 12 13
TYPE ASSIGNMENTS     17 14 15 18 19 16 20  1  1  1  1  1  1  2  3  4  2  3  4  2
TYPE ASSIGNMENTS      3  4  5  6  7  8  9 10  5  6  7  8  9 10  1  1  1  1  1  1
TYPE ASSIGNMENTS      2  3  4  2  3  4  2  3  4  5  6  7  8  9 10  5  6  7  8  9
TYPE ASSIGNMENTS     10  1  1  1  1  1  1  2  3  4  2  3  4  2  3  4  5  6  7  8
TYPE ASSIGNMENTS      9 10  5  6  7  8  9 10  1  1  1  1  1  1  2  3  4  2  3  4
TYPE ASSIGNMENTS      2  3  4  5  6  7  8  9 10  5  6  7  8  9 10
EXPONENTS  0.8236000D+04 0.1235000D+04 0.2808000D+03 0.7927000D+02 0.2559000D+02
EXPONENTS  0.8997000D+01 0.3319000D+01 0.3643000D+00 0.8236000D+04 0.1235000D+04
EXPONENTS  0.2808000D+03 0.7927000D+02 0.2559000D+02 0.8997000D+01 0.3319000D+01
EXPONENTS  0.3643000D+00 0.9059000D+00 0.1285000D+00 0.4402000D-01 0.1871000D+02
EXPONENTS  0.4133000D+01 0.1200000D+01 0.1871000D+02 0.4133000D+01 0.1200000D+01
EXPONENTS  0.1871000D+02 0.4133000D+01 0.1200000D+01 0.3827000D+00 0.3827000D+00
EXPONENTS  0.3827000D+00 0.1209000D+00 0.1209000D+00 0.1209000D+00 0.3569000D-01
EXPONENTS  0.3569000D-01 0.3569000D-01 0.1097000D+01 0.1097000D+01 0.1097000D+01
EXPONENTS  0.1097000D+01 0.1097000D+01 0.1097000D+01 0.3180000D+00 0.3180000D+00
EXPONENTS  0.3180000D+00 0.3180000D+00 0.3180000D+00 0.3180000D+00 0.1000000D+00
EXPONENTS  0.1000000D+00 0.1000000D+00 0.1000000D+00 0.1000000D+00 0.1000000D+00
EXPONENTS  0.7610000D+00 0.7610000D+00 0.7610000D+00 0.7610000D+00 0.7610000D+00
EXPONENTS  0.7610000D+00 0.7610000D+00 0.7610000D+00 0.7610000D+00 0.7610000D+00
EXPONENTS  0.2680000D+00 0.2680000D+00 0.2680000D+00 0.2680000D+00 0.2680000D+00
EXPONENTS  0.2680000D+00 0.2680000D+00 0.2680000D+00 0.2680000D+00 0.2680000D+00
EXPONENTS  0.8236000D+04 0.1235000D+04 0.2808000D+03 0.7927000D+02 0.2559000D+02
EXPONENTS  0.8997000D+01 0.3319000D+01 0.3643000D+00 0.8236000D+04 0.1235000D+04
EXPONENTS  0.2808000D+03 0.7927000D+02 0.2559000D+02 0.8997000D+01 0.3319000D+01
EXPONENTS  0.3643000D+00 0.9059000D+00 0.1285000D+00 0.4402000D-01 0.1871000D+02
EXPONENTS  0.4133000D+01 0.1200000D+01 0.1871000D+02 0.4133000D+01 0.1200000D+01
EXPONENTS  0.1871000D+02 0.4133000D+01 0.1200000D+01 0.3827000D+00 0.3827000D+00
EXPONENTS  0.3827000D+00 0.1209000D+00 0.1209000D+00 0.1209000D+00 0.3569000D-01
EXPONENTS  0.3569000D-01 0.3569000D-01 0.1097000D+01 0.1097000D+01 0.1097000D+01
EXPONENTS  0.1097000D+01 0.1097000D+01 0.1097000D+01 0.3180000D+00 0.3180000D+00
EXPONENTS  0.3180000D+00 0.3180000D+00 0.3180000D+00 0.3180000D+00 0.1000000D+00
EXPONENTS  0.1000000D+00 0.1000000D+00 0.1000000D+00 0.1000000D+00 0.1000000D+00
EXPONENTS  0.7610000D+00 0.7610000D+00 0.7610000D+00 0.7610000D+00 0.7610000D+00
EXPONENTS  0.7610000D+00 0.7610000D+00 0.7610000D+00 0.7610000D+00 0.7610000D+00
EXPONENTS  0.2680000D+00 0.2680000D+00 0.2680000D+00 0.2680000D+00 0.2680000D+00
EXPONENTS  0.2680000D+00 0.2680000D+00 0.2680000D+00 0.2680000D+00 0.2680000D+00
EXPONENTS  0.8236000D+04 0.1235000D+04 0.2808000D+03 0.7927000D+02 0.2559000D+02
EXPONENTS  0.8997000D+01 0.3319000D+01 0.3643000D+00 0.8236000D+04 0.1235000D+04
EXPONENTS  0.2808000D+03 0.7927000D+02 0.2559000D+02 0.8997000D+01 0.3319000D+01
EXPONENTS  0.3643000D+00 0.9059000D+00 0.1285000D+00 0.4402000D-01 0.1871000D+02
EXPONENTS  0.4133000D+01 0.1200000D+01 0.1871000D+02 0.4133000D+01 0.1200000D+01
EXPONENTS  0.1871000D+02 0.4133000D+01 0.1200000D+01 0.3827000D+00 0.3827000D+00
EXPONENTS  0.3827000D+00 0.1209000D+00 0.1209000D+00 0.1209000D+00 0.3569000D-01
EXPONENTS  0.3569000D-01 0.3569000D-01 0.1097000D+01 0.1097000D+01 0.1097000D+01
EXPONENTS  0.1097000D+01 0.1097000D+01 0.1097000D+01 0.3180000D+00 0.3180000D+00
EXPONENTS  0.3180000D+00 0.3180000D+00 0.3180000D+00 0.3180000D+00 0.1000000D+00
EXPONENTS  0.1000000D+00 0.1000000D+00 0.1000000D+00 0.1000000D+00 0.1000000D+00
EXPONENTS  0.7610000D+00 0.7610000D+00 0.7610000D+00 0.7610000D+00 0.7610000D+00
EXPONENTS  0.7610000D+00 0.7610000D+00 0.7610000D+00 0.7610000D+00 0.7610000D+00
EXPONENTS  0.2680000D+00 0.2680000D+00 0.2680000D+00 0.2680000D+00 0.2680000D+00
EXPONENTS  0.2680000D+00 0.2680000D+00 0.2680000D+00 0.2680000D+00 0.2680000D+00
EXPONENTS  0.8236000D+04 0.1235000D+04 0.2808000D+03 0.7927000D+02 0.2559000D+02
EXPONENTS  0.8997000D+01 0.3319000D+01 0.3643000D+00 0.8236000D+04 0.1235000D+04
EXPONENTS  0.2808000D+03 0.7927000D+02 0.2559000D+02 0.8997000D+01 0.3319000D+01
EXPONENTS  0.3643000D+00 0.9059000D+00 0.1285000D+00 0.4402000D-01 0.1871000D+02
EXPONENTS  0.4133000D+01 0.1200000D+01 0.1871000D+02 0.4133000D+01 0.1200000D+01
EXPONENTS  0.1871000D+02 0.4133000D+01 0.1200000D+01 0.3827000D+00 0.3827000D+00
EXPONENTS  0.3827000D+00 0.1209000D+00 0.1209000D+00 0.1209000D+00 0.3569000D-01
EXPONENTS  0.3569000D-01 0.3569000D-01 0.1097000D+01 0.1097000D+01 0.1097000D+01
EXPONENTS  0.1097000D+01 0.1097000D+01 0.1097000D+01 0.3180000D+00 0.3180000D+00
EXPONENTS  0.3180000D+00 0.3180000D+00 0.3180000D+00 0.3180000D+00 0.1000000D+00
EXPONENTS  0.1000000D+00 0.1000000D+00 0.1000000D+00 0.1000000D+00 0.1000000D+00
EXPONENTS  0.7610000D+00 0.7610000D+00 0.7610000D+00 0.7610000D+00 0.7610000D+00
EXPONENTS  0.7610000D+00 0.7610000D+00 0.7610000D+00 0.7610000D+00 0.7610000D+00
EXPONENTS  0.2680000D+00 0.2680000D+00 0.2680000D+00 0.2680000D+00 0.2680000D+00
EXPONENTS  0.2680000D+00 0.2680000D+00 0.2680000D+00 0.2680000D+00 0.2680000D+00
EXPONENTS  0.8236000D+04 0.1235000D+04 0.2808000D+03 0.7927000D+02 0.2559000D+02
EXPONENTS  0.8997000D+01 0.3319000D+01 0.3643000D+00 0.8236000D+04 0.1235000D+04
EXPONENTS  0.2808000D+03 0.7927000D+02 0.2559000D+02 0.8997000D+01 0.3319000D+01
EXPONENTS  0.3643000D+00 0.9059000D+00 0.1285000D+00 0.4402000D-01 0.1871000D+02
EXPONENTS  0.4133000D+01 0.1200000D+01 0.1871000D+02 0.4133000D+01 0.1200000D+01
EXPONENTS  0.1871000D+02 0.4133000D+01 0.1200000D+01 0.3827000D+00 0.3827000D+00
EXPONENTS  0.3827000D+00 0.1209000D+00 0.1209000D+00 0.1209000D+00 0.3569000D-01
EXPONENTS  0.3569000D-01 0.3569000D-01 0.1097000D+01 0.1097000D+01 0.1097000D+01
EXPONENTS  0.1097000D+01 0.1097000D+01 0.1097000D+01 0.3180000D+00 0.3180000D+00
EXPONENTS  0.3180000D+00 0.3180000D+00 0.3180000D+00 0.3180000D+00 0.1000000D+00
EXPONENTS  0.1000000D+00 0.1000000D+00 0.1000000D+00 0.1000000D+00 0.1000000D+00
EXPONENTS  0.7610000D+00 0.7610000D+00 0.7610000D+00 0.7610000D+00 0.7610000D+00
EXPONENTS  0.7610000D+00 0.7610000D+00 0.7610000D+00 0.7610000D+00 0.7610000D+00
EXPONENTS  0.2680000D+00 0.2680000D+00 0.2680000D+00 0.2680000D+00 0.2680000D+00
EXPONENTS  0.2680000D+00 0.2680000D+00 0.2680000D+00 0.2680000D+00 0.2680000D+00
EXPONENTS  0.8236000D+04 0.1235000D+04 0.2808000D+03 0.7927000D+02 0.2559000D+02
EXPONENTS  0.8997000D+01 0.3319000D+01 0.3643000D+00 0.8236000D+04 0.1235000D+04
EXPONENTS  0.2808000D+03 0.7927000D+02 0.2559000D+02 0.8997000D+01 0.3319000D+01
EXPONENTS  0.3643000D+00 0.9059000D+00 0.1285000D+00 0.4402000D-01 0.1871000D+02
EXPONENTS  0.4133000D+01 0.1200000D+01 0.1871000D+02 0.4133000D+01 0.1200000D+01
EXPONENTS  0.1871000D+02 0.4133000D+01 0.1200000D+01 0.3827000D+00 0.3827000D+00
EXPONENTS  0.3827000D+00 0.1209000D+00 0.1209000D+00 0.1209000D+00 0.3569000D-01
EXPONENTS  0.3569000D-01 0.3569000D-01 0.1097000D+01 0.1097000D+01 0.1097000D+01
EXPONENTS  0.1097000D+01 0.1097000D+01 0.1097000D+01 0.3180000D+00 0.3180000D+00
EXPONENTS  0.3180000D+00 0.3180000D+00 0.3180000D+00 0.3180000D+00 0.1000000D+00
EXPONENTS  0.1000000D+00 0.1000000D+00 0.1000000D+00 0.1000000D+00 0.1000000D+00
EXPONENTS  0.7610000D+00 0.7610000D+00 0.7610000D+00 0.7610000D+00 0.7610000D+00
EXPONENTS  0.7610000D+00 0.7610000D+00 0.7610000D+00 0.7610000D+00 0.7610000D+00
EXPONENTS  0.2680000D+00 0.2680000D+00 0.2680000D+00 0.2680000D+00 0.2680000D+00
EXPONENTS  0.2680000D+00 0.2680000D+00 0.2680000D+00 0.2680000D+00 0.2680000D+00
EXPONENTS  0.3387000D+02 0.5095000D+01 0.1159000D+01 0.3258000D+00 0.1027000D+00
EXPONENTS  0.2526000D-01 0.1407000D+01 0.1407000D+01 0.1407000D+01 0.3880000D+00
EXPONENTS  0.3880000D+00 0.3880000D+00 0.1020000D+00 0.1020000D+00 0.1020000D+00
EXPONENTS  0.1057000D+01 0.1057000D+01 0.1057000D+01 0.1057000D+01 0.1057000D+01
EXPONENTS  0.1057000D+01 0.2470000D+00 0.2470000D+00 0.2470000D+00 0.2470000D+00
EXPONENTS  0.2470000D+00 0.2470000D+00 0.3387000D+02 0.5095000D+01 0.1159000D+01
EXPONENTS  0.3258000D+00 0.1027000D+00 0.2526000D-01 0.1407000D+01 0.1407000D+01
EXPONENTS  0.1407000D+01 0.3880000D+00 0.3880000D+00 0.3880000D+00 0.1020000D+00
EXPONENTS  0.1020000D+00 0.1020000D+00 0.1057000D+01 0.1057000D+01 0.1057000D+01
EXPONENTS  0.1057000D+01 0.1057000D+01 0.1057000D+01 0.2470000D+00 0.2470000D+00
EXPONENTS  0.2470000D+00 0.2470000D+00 0.2470000D+00 0.2470000D+00 0.3387000D+02
EXPONENTS  0.5095000D+01 0.1159000D+01 0.3258000D+00 0.1027000D+00 0.2526000D-01
EXPONENTS  0.1407000D+01 0.1407000D+01 0.1407000D+01 0.3880000D+00 0.3880000D+00
EXPONENTS  0.3880000D+00 0.1020000D+00 0.1020000D+00 0.1020000D+00 0.1057000D+01
EXPONENTS  0.1057000D+01 0.1057000D+01 0.1057000D+01 0.1057000D+01 0.1057000D+01
EXPONENTS  0.2470000D+00 0.2470000D+00 0.2470000D+00 0.2470000D+00 0.2470000D+00
EXPONENTS  0.2470000D+00 0.3387000D+02 0.5095000D+01 0.1159000D+01 0.3258000D+00
EXPONENTS  0.1027000D+00 0.2526000D-01 0.1407000D+01 0.1407000D+01 0.1407000D+01
EXPONENTS  0.3880000D+00 0.3880000D+00 0.3880000D+00 0.1020000D+00 0.1020000D+00
EXPONENTS  0.1020000D+00 0.1057000D+01 0.1057000D+01 0.1057000D+01 0.1057000D+01
EXPONENTS  0.1057000D+01 0.1057000D+01 0.2470000D+00 0.2470000D+00 0.2470000D+00
EXPONENTS  0.2470000D+00 0.2470000D+00 0.2470000D+00 0.3387000D+02 0.5095000D+01
EXPONENTS  0.1159000D+01 0.3258000D+00 0.1027000D+00 0.2526000D-01 0.1407000D+01
EXPONENTS  0.1407000D+01 0.1407000D+01 0.3880000D+00 0.3880000D+00 0.3880000D+00
EXPONENTS  0.1020000D+00 0.1020000D+00 0.1020000D+00 0.1057000D+01 0.1057000D+01
EXPONENTS  0.1057000D+01 0.1057000D+01 0.1057000D+01 0.1057000D+01 0.2470000D+00
EXPONENTS  0.2470000D+00 0.2470000D+00 0.2470000D+00 0.2470000D+00 0.2470000D+00
EXPONENTS  0.3387000D+02 0.5095000D+01 0.1159000D+01 0.3258000D+00 0.1027000D+00
EXPONENTS  0.2526000D-01 0.1407000D+01 0.1407000D+01 0.1407000D+01 0.3880000D+00
EXPONENTS  0.3880000D+00 0.3880000D+00 0.1020000D+00 0.1020000D+00 0.1020000D+00
EXPONENTS  0.1057000D+01 0.1057000D+01 0.1057000D+01 0.1057000D+01 0.1057000D+01
EXPONENTS  0.1057000D+01 0.2470000D+00 0.2470000D+00 0.2470000D+00 0.2470000D+00
EXPONENTS  0.2470000D+00 0.2470000D+00 0.8236000D+04 0.1235000D+04 0.2808000D+03
EXPONENTS  0.7927000D+02 0.2559000D+02 0.8997000D+01 0.3319000D+01 0.3643000D+00
EXPONENTS  0.8236000D+04 0.1235000D+04 0.2808000D+03 0.7927000D+02 0.2559000D+02
EXPONENTS  0.8997000D+01 0.3319000D+01 0.3643000D+00 0.9059000D+00 0.1285000D+00
EXPONENTS  0.4402000D-01 0.1871000D+02 0.4133000D+01 0.1200000D+01 0.1871000D+02
EXPONENTS  0.4133000D+01 0.1200000D+01 0.1871000D+02 0.4133000D+01 0.1200000D+01
EXPONENTS  0.3827000D+00 0.3827000D+00 0.3827000D+00 0.1209000D+00 0.1209000D+00
EXPONENTS  0.1209000D+00 0.3569000D-01 0.3569000D-01 0.3569000D-01 0.1097000D+01
EXPONENTS  0.1097000D+01 0.1097000D+01 0.1097000D+01 0.1097000D+01 0.1097000D+01
EXPONENTS  0.3180000D+00 0.3180000D+00 0.3180000D+00 0.3180000D+00 0.3180000D+00
EXPONENTS  0.3180000D+00 0.1000000D+00 0.1000000D+00 0.1000000D+00 0.1000000D+00
EXPONENTS  0.1000000D+00 0.1000000D+00 0.7610000D+00 0.7610000D+00 0.7610000D+00
EXPONENTS  0.7610000D+00 0.7610000D+00 0.7610000D+00 0.7610000D+00 0.7610000D+00
EXPONENTS  0.7610000D+00 0.7610000D+00 0.2680000D+00 0.2680000D+00 0.2680000D+00
EXPONENTS  0.2680000D+00 0.2680000D+00 0.2680000D+00 0.2680000D+00 0.2680000D+00
EXPONENTS  0.2680000D+00 0.2680000D+00 0.3387000D+02 0.5095000D+01 0.1159000D+01
EXPONENTS  0.3258000D+00 0.1027000D+00 0.2526000D-01 0.1407000D+01 0.1407000D+01
EXPONENTS  0.1407000D+01 0.3880000D+00 0.3880000D+00 0.3880000D+00 0.1020000D+00
EXPONENTS  0.1020000D+00 0.1020000D+00 0.1057000D+01 0.1057000D+01 0.1057000D+01
EXPONENTS  0.1057000D+01 0.1057000D+01 0.1057000D+01 0.2470000D+00 0.2470000D+00
EXPONENTS  0.2470000D+00 0.2470000D+00 0.2470000D+00 0.2470000D+00 0.3387000D+02
EXPONENTS  0.5095000D+01 0.1159000D+01 0.3258000D+00 0.1027000D+00 0.2526000D-01
EXPONENTS  0.1407000D+01 0.1407000D+01 0.1407000D+01 0.3880000D+00 0.3880000D+00
EXPONENTS  0.3880000D+00 0.1020000D+00 0.1020000D+00 0.1020000D+00 0.1057000D+01
EXPONENTS  0.1057000D+01 0.1057000D+01 0.1057000D+01 0.1057000D+01 0.1057000D+01
EXPONENTS  0.2470000D+00 0.2470000D+00 0.2470000D+00 0.2470000D+00 0.2470000D+00
EXPONENTS  0.2470000D+00 0.3387000D+02 0.5095000D+01 0.1159000D+01 0.3258000D+00
EXPONENTS  0.1027000D+00 0.2526000D-01 0.1407000D+01 0.1407000D+01 0.1407000D+01
EXPONENTS  0.3880000D+00 0.3880000D+00 0.3880000D+00 0.1020000D+00 0.1020000D+00
EXPONENTS  0.1020000D+00 0.1057000D+01 0.1057000D+01 0.1057000D+01 0.1057000D+01
EXPONENTS  0.1057000D+01 0.1057000D+01 0.2470000D+00 0.2470000D+00 0.2470000D+00
EXPONENTS  0.2470000D+00 0.2470000D+00 0.2470000D+00 0.3387000D+02 0.5095000D+01
EXPONENTS  0.1159000D+01 0.3258000D+00 0.1027000D+00 0.2526000D-01 0.1407000D+01
EXPONENTS  0.1407000D+01 0.1407000D+01 0.3880000D+00 0.3880000D+00 0.3880000D+00
EXPONENTS  0.1020000D+00 0.1020000D+00 0.1020000D+00 0.1057000D+01 0.1057000D+01
EXPONENTS  0.1057000D+01 0.1057000D+01 0.1057000D+01 0.1057000D+01 0.2470000D+00
EXPONENTS  0.2470000D+00 0.2470000D+00 0.2470000D+00 0.2470000D+00 0.2470000D+00
MO    1     MO 0.0        OCC NO =    2.0000000  ORB. ENERGY =   -9.930246
  0.13628047D+00  0.25405778D+00  0.42940240D+00  0.64553246D+00  0.79311121D+00
  0.66990921D+00  0.25266511D+00 -0.12504537D-02 -0.28327559D-02 -0.53038127D-02
 -0.90301950D-02 -0.13968339D-01 -0.18395811D-01 -0.19114425D-01 -0.12146359D-01
  0.81402076D-02  0.18358357D-01 -0.10939780D-01  0.74655300D-03 -0.37235447D-03
 -0.34910598D-03 -0.24858426D-03 -0.13705509D-04 -0.12849786D-04 -0.91498128D-05
 -0.24962997D-03 -0.23404397D-03 -0.16665325D-03 -0.26333577D-02 -0.49668724D-04
  0.25412524D-03 -0.51864502D-03  0.67789069D-04 -0.50090720D-03 -0.70118743D-04
 -0.10352989D-04 -0.58474692D-05  0.16159152D-02  0.10706884D-02 -0.26866036D-02
  0.26176460D-04  0.49448016D-04 -0.78360227D-05 -0.17029959D-02 -0.64195212D-03
  0.23449480D-02 -0.20097285D-04 -0.64197827D-04  0.52723463D-06 -0.12448208D-02
  0.10136619D-02  0.23115896D-03 -0.14684189D-03  0.26686901D-03  0.22550037D-05
  0.90977193D-04  0.23312387D-04  0.33176026D-04  0.82984987D-03 -0.45825991D-04
  0.23349117D-04 -0.11027814D-02 -0.24111169D-04 -0.12287720D-03  0.81793913D-05
 -0.59818093D-03  0.40512987D-04  0.23502304D-05  0.17619615D-02 -0.12170459D-03
 -0.61146599D-04  0.32581348D-04  0.16563074D-06  0.54095908D-04 -0.77760159D-05
  0.13716190D+00  0.25570097D+00  0.43217968D+00  0.64970762D+00  0.79824088D+00
  0.67424203D+00  0.25429929D+00 -0.12585414D-02 -0.28459444D-02 -0.53285059D-02
 -0.90722372D-02 -0.14033371D-01 -0.18481457D-01 -0.19203417D-01 -0.12202910D-01
  0.81781062D-02  0.18335862D-01 -0.60532671D-02 -0.20854790D-02 -0.19016763D-03
 -0.17829424D-03 -0.12695612D-03  0.32012331D-03  0.30013595D-03  0.21371468D-03
 -0.25699206D-03 -0.24094640D-03 -0.17156819D-03 -0.13695110D-02  0.21565019D-02
  0.24908280D-03 -0.21051629D-02  0.35633539D-02  0.18738166D-03  0.36108905D-04
 -0.67996016D-04 -0.44962531D-04  0.12212036D-02  0.14534116D-02 -0.26746152D-02
 -0.46714623D-03  0.87185070D-04 -0.12515696D-03 -0.89108629D-03 -0.12532845D-02
  0.21443708D-02  0.74651273D-03 -0.95771677D-04  0.15272140D-03 -0.22588162D-03
  0.30330526D-03 -0.77423642D-04 -0.10439079D-02 -0.24659262D-04  0.45799138D-04
  0.28937183D-03 -0.24434134D-03  0.35869555D-04 -0.28459838D-03 -0.21190331D-03
 -0.80438258D-04 -0.58351709D-03  0.94492733D-03 -0.27170408D-04 -0.10354417D-03
  0.56500453D-03 -0.47218062D-04 -0.20471872D-04 -0.17061963D-02  0.16352132D-03
  0.14533743D-04  0.11182688D-04 -0.21867140D-04  0.46881873D-04 -0.66473916D-04
  0.13646950D+00  0.25441017D+00  0.42999800D+00  0.64642785D+00  0.79421130D+00
  0.67083841D+00  0.25301557D+00 -0.12521882D-02 -0.28367836D-02 -0.53113540D-02
 -0.90430346D-02 -0.13988200D-01 -0.18421967D-01 -0.19141603D-01 -0.12163630D-01
  0.81517818D-02  0.18384627D-01 -0.10964166D-01  0.74103481D-03  0.17455812D-03
  0.16365933D-03  0.11653519D-03  0.33029974D-03  0.30967700D-03  0.22050847D-03
 -0.24970446D-03 -0.23411380D-03 -0.16670297D-03  0.12872805D-02  0.22971118D-02
  0.25425874D-03  0.31797505D-03  0.42015581D-03 -0.50112693D-03  0.26845453D-04
  0.65500250D-04 -0.58585457D-05  0.11988060D-02  0.14909191D-02 -0.26897251D-02
  0.46098312D-03 -0.31340786D-04 -0.38855087D-04 -0.89992127D-03 -0.14482759D-02
  0.23481972D-02 -0.90530792D-03  0.32427520D-04  0.55291285D-04  0.51357558D-03
 -0.74486324D-03  0.23128766D-03 -0.18830471D-02 -0.13133770D-03 -0.23223451D-03
 -0.31769050D-03 -0.22419668D-03  0.33209781D-04  0.42113182D-03 -0.29573610D-03
 -0.89854014D-04  0.53193968D-03  0.96832613D-03 -0.97753271D-05  0.12261442D-03
 -0.58761903D-03  0.48409869D-04  0.23346395D-05  0.17778023D-02 -0.11601061D-03
  0.28623939D-04 -0.14945178D-04 -0.29218994D-04 -0.35627857D-04 -0.95903154D-04
  0.13700306D+00  0.25540485D+00  0.43167919D+00  0.64895522D+00  0.79731647D+00
  0.67346122D+00  0.25400479D+00 -0.12570839D-02 -0.28427309D-02 -0.53224891D-02
 -0.90619931D-02 -0.14017525D-01 -0.18460588D-01 -0.19181733D-01 -0.12189130D-01
  0.81688717D-02  0.18314564D-01 -0.60366074D-02 -0.20813926D-02  0.37164014D-03
  0.34843625D-03  0.24810737D-03  0.52198278D-05  0.48939203D-05  0.34847628D-05
 -0.25693964D-03 -0.24089724D-03 -0.17153319D-03  0.25535255D-02  0.89922136D-04
  0.24897519D-03  0.41351265D-02  0.43189037D-04  0.18748926D-03 -0.76932006D-04
  0.17860990D-05 -0.44956986D-04  0.15964349D-02  0.10755566D-02 -0.26719914D-02
  0.28256339D-04 -0.15205018D-03 -0.12969916D-04 -0.14858047D-02 -0.65628518D-03
  0.21420899D-02 -0.62910758D-04  0.18018437D-03  0.65614887D-05  0.62378797D-03
 -0.54626090D-03 -0.77527067D-04  0.62197774D-04  0.51941619D-04 -0.16768916D-05
 -0.13362434D-03 -0.16926723D-04  0.35854159D-04 -0.70790939D-03  0.18330971D-04
  0.43739964D-05  0.11087824D-02  0.32449199D-04 -0.11193647D-03  0.54402399D-05
  0.57283772D-03 -0.53022912D-04 -0.20458499D-04 -0.16941948D-02  0.15942963D-03
  0.67557579D-04 -0.24318333D-04 -0.36089297D-06 -0.61820803D-05  0.53271008D-05
  0.13613540D+00  0.25378735D+00  0.42894532D+00  0.64484532D+00  0.79226699D+00
  0.66919612D+00  0.25239616D+00 -0.12491227D-02 -0.28297194D-02 -0.52981275D-02
 -0.90205154D-02 -0.13953366D-01 -0.18376092D-01 -0.19093936D-01 -0.12133339D-01
  0.81314819D-02  0.18338405D-01 -0.10921840D-01  0.75047799D-03  0.19788154D-03
  0.18552652D-03  0.13210594D-03 -0.31489224D-03 -0.29523149D-03 -0.21022241D-03
 -0.24957680D-03 -0.23399412D-03 -0.16661775D-03  0.13449949D-02 -0.22654961D-02
  0.25403071D-03  0.20121334D-03 -0.47907394D-03 -0.50069618D-03  0.43217905D-04
 -0.56023950D-04 -0.58364512D-05  0.12153025D-02  0.14688954D-02 -0.26841980D-02
 -0.48346451D-03 -0.18099388D-04  0.46763077D-04 -0.91536284D-03 -0.14272038D-02
  0.23425666D-02  0.93193173D-03  0.31767957D-04 -0.55888451D-04  0.38454389D-03
 -0.61561419D-03  0.23107030D-03  0.20289917D-02 -0.13552492D-03  0.22996298D-03
 -0.32741465D-03  0.25350508D-03  0.33145141D-04  0.41131856D-03  0.18172973D-03
 -0.82803724D-04  0.57092539D-03 -0.94224496D-03 -0.16631697D-04 -0.13065531D-03
 -0.58454875D-03  0.34187702D-04  0.23599479D-05  0.17714064D-02 -0.12967596D-03
  0.21960155D-04 -0.17760163D-04  0.27112851D-04 -0.29039999D-04  0.10370736D-03
  0.13677956D+00  0.25498820D+00  0.43097498D+00  0.64789656D+00  0.79601578D+00
  0.67236258D+00  0.25359043D+00 -0.12550332D-02 -0.28382701D-02 -0.53141372D-02
 -0.90477732D-02 -0.13995529D-01 -0.18431620D-01 -0.19151634D-01 -0.12170003D-01
  0.81560533D-02  0.18284828D-01 -0.60137567D-02 -0.20760461D-02 -0.18133305D-03
 -0.17001126D-03 -0.12105814D-03 -0.32344177D-03 -0.30324722D-03 -0.21593008D-03
 -0.25687345D-03 -0.24083519D-03 -0.17148900D-03 -0.11852207D-02 -0.22651189D-02
  0.24883560D-03 -0.20294994D-02 -0.35979763D-02  0.18767914D-03  0.40771730D-04
  0.65348180D-04 -0.44943419D-04  0.11901198D-02  0.14781630D-02 -0.26682827D-02
  0.43479925D-03  0.64858117D-04  0.13824592D-03 -0.83528893D-03 -0.13037182D-02
  0.21390071D-02 -0.69094834D-03 -0.84400061D-04 -0.15939435D-03 -0.28168256D-03
  0.35934062D-03 -0.77658058D-04  0.98291739D-03 -0.27280844D-04 -0.44138495D-04
  0.27512908D-03  0.23554583D-03  0.35826268D-04 -0.30031325D-03  0.26837618D-03
 -0.85251787D-04 -0.52507399D-03 -0.97501368D-03 -0.22227018D-04  0.97897955D-04
  0.56216189D-03 -0.57629238D-04 -0.20441951D-04 -0.16995062D-02  0.15256181D-03
  0.99644287D-05  0.13020504D-04  0.20325905D-04  0.51361426D-04  0.61237986D-04
  0.15111867D-03  0.27254875D-03  0.40187298D-03  0.68944102D-02  0.12781645D-01
  0.58092951D-04 -0.28382562D-04 -0.14267011D-05 -0.10847096D-03 -0.69667726D-03
 -0.50279972D-04  0.16850850D-03 -0.10356196D-02  0.41300752D-06 -0.20544710D-03
 -0.13921894D-02  0.40384762D-03  0.98834177D-03 -0.77636521D-04  0.59974597D-04
 -0.14083336D-04 -0.14866913D-03 -0.19391403D-03  0.34258316D-03  0.40640964D-05
 -0.61945866D-04  0.70143240D-05  0.15377244D-03  0.27733493D-03  0.40893019D-03
  0.62250278D-02 -0.30236751D-02 -0.27721546D-04  0.86005620D-05 -0.13867654D-04
 -0.43218266D-04 -0.15455872D-03  0.31770818D-03 -0.26851661D-04  0.14096603D-03
 -0.25932162D-03  0.73499351D-04 -0.87595988D-04 -0.93429270D-03  0.10218887D-02
  0.16947666D-02  0.66691956D-04 -0.79947844D-04 -0.17269558D-03 -0.16950195D-03
  0.34219753D-03  0.21042904D-05 -0.30628429D-04  0.34367163D-04  0.15132771D-03
  0.27292575D-03  0.40242886D-03  0.69031656D-02  0.12795781D-01  0.57963983D-04
  0.12651178D-04  0.25186535D-04 -0.10847013D-03  0.30638530D-03  0.62579756D-03
  0.16839053D-03  0.51923432D-03  0.89748227D-03 -0.20535739D-03 -0.11181956D-04
 -0.97885390D-03  0.99003586D-03 -0.15188352D-02 -0.42146119D-04 -0.45010716D-04
 -0.18481127D-03 -0.15847263D-03  0.34328391D-03  0.36655190D-04  0.36968912D-04
  0.50160629D-04  0.15361486D-03  0.27705073D-03  0.40851113D-03  0.62190488D-02
 -0.30347830D-02 -0.27641564D-04 -0.15943922D-04 -0.23459665D-06 -0.43228394D-04
  0.35409728D-03 -0.28211631D-04 -0.26793280D-04 -0.29596837D-03  0.69157634D-05
  0.73442890D-04 -0.14543253D-02  0.43383249D-03  0.10204928D-02 -0.11513855D-03
 -0.10253373D-03 -0.17802275D-04 -0.17081048D-03 -0.17085389D-03  0.34166437D-03
 -0.34388552D-05  0.45082160D-04  0.94137816D-05  0.15096113D-03  0.27226461D-03