 Molden2AIM, Version 4.0.0 (06/02/2016)           Time: Fri Jun 29 20:24:54 2018
GAUSSIAN             32 MOL ORBITALS    524 PRIMITIVES        4 NUCLEI
  Al   1    (CENTRE  1)   0.00000000 -0.00000567  0.00000000  CHARGE = 13.0
  Cl   2    (CENTRE  2)   0.00000000  3.96290119  0.00000000  CHARGE = 17.0
  Cl   3    (CENTRE  3)   3.43195996 -1.98144776  0.00000000  CHARGE = 17.0
  Cl   4    (CENTRE  4)  -3.43195996 -1.98144776  0.00000000  CHARGE = 17.0
CENTRE ASSIGNMENTS    1  1  1  1  1  1  1  1  1  1  1  1  1  1  1  1  1  1  1  1
CENTRE ASSIGNMENTS    1  1  1  1  1  1  1  1  1  1  1  1  1  1  1  1  1  1  1  1
CENTRE ASSIGNMENTS    1  1  1  1  1  1  1  1  1  1  1  1  1  1  1  1  1  1  1  1
CENTRE ASSIGNMENTS    1  1  1  1  1  1  1  1  1  1  1  1  1  1  1  1  1  1  1  1
CENTRE ASSIGNMENTS    1  1  1  1  1  1  1  1  1  1  1  1  1  1  1  1  1  1  1  1
CENTRE ASSIGNMENTS    1  1  1  1  1  1  1  1  1  1  1  1  1  1  1  1  1  1  1  1
CENTRE ASSIGNMENTS    1  1  1  1  1  1  1  1  1  1  1  2  2  2  2  2  2  2  2  2
CENTRE ASSIGNMENTS    2  2  2  2  2  2  2  2  2  2  2  2  2  2  2  2  2  2  2  2
CENTRE ASSIGNMENTS    2  2  2  2  2  2  2  2  2  2  2  2  2  2  2  2  2  2  2  2
CENTRE ASSIGNMENTS    2  2  2  2  2  2  2  2  2  2  2  2  2  2  2  2  2  2  2  2
CENTRE ASSIGNMENTS    2  2  2  2  2  2  2  2  2  2  2  2  2  2  2  2  2  2  2  2
CENTRE ASSIGNMENTS    2  2  2  2  2  2  2  2  2  2  2  2  2  2  2  2  2  2  2  2
CENTRE ASSIGNMENTS    2  2  2  2  2  2  2  2  2  2  2  2  2  2  2  2  2  2  2  2
CENTRE ASSIGNMENTS    2  2  3  3  3  3  3  3  3  3  3  3  3  3  3  3  3  3  3  3
CENTRE ASSIGNMENTS    3  3  3  3  3  3  3  3  3  3  3  3  3  3  3  3  3  3  3  3
CENTRE ASSIGNMENTS    3  3  3  3  3  3  3  3  3  3  3  3  3  3  3  3  3  3  3  3
CENTRE ASSIGNMENTS    3  3  3  3  3  3  3  3  3  3  3  3  3  3  3  3  3  3  3  3
CENTRE ASSIGNMENTS    3  3  3  3  3  3  3  3  3  3  3  3  3  3  3  3  3  3  3  3
CENTRE ASSIGNMENTS    3  3  3  3  3  3  3  3  3  3  3  3  3  3  3  3  3  3  3  3
CENTRE ASSIGNMENTS    3  3  3  3  3  3  3  3  3  3  3  3  3  4  4  4  4  4  4  4
CENTRE ASSIGNMENTS    4  4  4  4  4  4  4  4  4  4  4  4  4  4  4  4  4  4  4  4
CENTRE ASSIGNMENTS    4  4  4  4  4  4  4  4  4  4  4  4  4  4  4  4  4  4  4  4
CENTRE ASSIGNMENTS    4  4  4  4  4  4  4  4  4  4  4  4  4  4  4  4  4  4  4  4
CENTRE ASSIGNMENTS    4  4  4  4  4  4  4  4  4  4  4  4  4  4  4  4  4  4  4  4
CENTRE ASSIGNMENTS    4  4  4  4  4  4  4  4  4  4  4  4  4  4  4  4  4  4  4  4
CENTRE ASSIGNMENTS    4  4  4  4  4  4  4  4  4  4  4  4  4  4  4  4  4  4  4  4
CENTRE ASSIGNMENTS    4  4  4  4
TYPE ASSIGNMENTS      1  1  1  1  1  1  1  1  1  1  1  1  1  1  1  1  1  1  1  1
TYPE ASSIGNMENTS      1  1  1  1  1  1  1  1  1  1  1  1  1  1  1  1  1  1  1  1
TYPE ASSIGNMENTS      1  1  2  2  2  2  2  2  2  3  3  3  3  3  3  3  4  4  4  4
TYPE ASSIGNMENTS      4  4  4  2  2  2  2  2  2  2  3  3  3  3  3  3  3  4  4  4
TYPE ASSIGNMENTS      4  4  4  4  2  3  4  2  3  4  2  3  4  5  6  7  8  9 10  5
TYPE ASSIGNMENTS      6  7  8  9 10  5  6  7  8  9 10 11 12 13 17 14 15 18 19 16
TYPE ASSIGNMENTS     20 11 12 13 17 14 15 18 19 16 20  1  1  1  1  1  1  1  1  1
TYPE ASSIGNMENTS      1  1  1  1  1  1  1  1  1  1  1  1  1  1  1  1  1  1  1  1
TYPE ASSIGNMENTS      1  1  1  1  1  1  1  1  1  1  1  1  1  2  2  2  2  2  2  2
TYPE ASSIGNMENTS      3  3  3  3  3  3  3  4  4  4  4  4  4  4  2  2  2  2  2  2
TYPE ASSIGNMENTS      2  3  3  3  3  3  3  3  4  4  4  4  4  4  4  2  3  4  2  3
TYPE ASSIGNMENTS      4  2  3  4  5  6  7  8  9 10  5  6  7  8  9 10  5  6  7  8
TYPE ASSIGNMENTS      9 10 11 12 13 17 14 15 18 19 16 20 11 12 13 17 14 15 18 19
TYPE ASSIGNMENTS     16 20  1  1  1  1  1  1  1  1  1  1  1  1  1  1  1  1  1  1
TYPE ASSIGNMENTS      1  1  1  1  1  1  1  1  1  1  1  1  1  1  1  1  1  1  1  1
TYPE ASSIGNMENTS      1  1  1  1  2  2  2  2  2  2  2  3  3  3  3  3  3  3  4  4
TYPE ASSIGNMENTS      4  4  4  4  4  2  2  2  2  2  2  2  3  3  3  3  3  3  3  4
TYPE ASSIGNMENTS      4  4  4  4  4  4  2  3  4  2  3  4  2  3  4  5  6  7  8  9
TYPE ASSIGNMENTS     10  5  6  7  8  9 10  5  6  7  8  9 10 11 12 13 17 14 15 18
TYPE ASSIGNMENTS     19 16 20 11 12 13 17 14 15 18 19 16 20  1  1  1  1  1  1  1
TYPE ASSIGNMENTS      1  1  1  1  1  1  1  1  1  1  1  1  1  1  1  1  1  1  1  1
TYPE ASSIGNMENTS      1  1  1  1  1  1  1  1  1  1  1  1  1  1  1  2  2  2  2  2
TYPE ASSIGNMENTS      2  2  3  3  3  3  3  3  3  4  4  4  4  4  4  4  2  2  2  2
TYPE ASSIGNMENTS      2  2  2  3  3  3  3  3  3  3  4  4  4  4  4  4  4  2  3  4
TYPE ASSIGNMENTS      2  3  4  2  3  4  5  6  7  8  9 10  5  6  7  8  9 10  5  6
TYPE ASSIGNMENTS      7  8  9 10 11 12 13 17 14 15 18 19 16 20 11 12 13 17 14 15
TYPE ASSIGNMENTS     18 19 16 20
EXPONENTS  0.2055000D+06 0.3078000D+05 0.7006000D+04 0.1985000D+04 0.6491000D+03
EXPONENTS  0.2350000D+03 0.9162000D+02 0.3767000D+02 0.1591000D+02 0.5850000D+01
EXPONENTS  0.2542000D+01 0.1057000D+01 0.1455000D+00 0.2055000D+06 0.3078000D+05
EXPONENTS  0.7006000D+04 0.1985000D+04 0.6491000D+03 0.2350000D+03 0.9162000D+02
EXPONENTS  0.3767000D+02 0.1591000D+02 0.5850000D+01 0.2542000D+01 0.1057000D+01
EXPONENTS  0.1455000D+00 0.2055000D+06 0.3078000D+05 0.7006000D+04 0.1985000D+04
EXPONENTS  0.6491000D+03 0.2350000D+03 0.9162000D+02 0.3767000D+02 0.1591000D+02
EXPONENTS  0.5850000D+01 0.2542000D+01 0.1057000D+01 0.1455000D+00 0.2931000D+00
EXPONENTS  0.5650000D-01 0.2210000D-01 0.4444000D+03 0.1051000D+03 0.3347000D+02
EXPONENTS  0.1233000D+02 0.4869000D+01 0.1961000D+01 0.1888000D+00 0.4444000D+03
EXPONENTS  0.1051000D+03 0.3347000D+02 0.1233000D+02 0.4869000D+01 0.1961000D+01
EXPONENTS  0.1888000D+00 0.4444000D+03 0.1051000D+03 0.3347000D+02 0.1233000D+02
EXPONENTS  0.4869000D+01 0.1961000D+01 0.1888000D+00 0.4444000D+03 0.1051000D+03
EXPONENTS  0.3347000D+02 0.1233000D+02 0.4869000D+01 0.1961000D+01 0.1888000D+00
EXPONENTS  0.4444000D+03 0.1051000D+03 0.3347000D+02 0.1233000D+02 0.4869000D+01
EXPONENTS  0.1961000D+01 0.1888000D+00 0.4444000D+03 0.1051000D+03 0.3347000D+02
EXPONENTS  0.1233000D+02 0.4869000D+01 0.1961000D+01 0.1888000D+00 0.7834000D+00
EXPONENTS  0.7834000D+00 0.7834000D+00 0.5557000D-01 0.5557000D-01 0.5557000D-01
EXPONENTS  0.1460000D-01 0.1460000D-01 0.1460000D-01 0.1090000D+00 0.1090000D+00
EXPONENTS  0.1090000D+00 0.1090000D+00 0.1090000D+00 0.1090000D+00 0.3330000D+00
EXPONENTS  0.3330000D+00 0.3330000D+00 0.3330000D+00 0.3330000D+00 0.3330000D+00
EXPONENTS  0.3560000D-01 0.3560000D-01 0.3560000D-01 0.3560000D-01 0.3560000D-01
EXPONENTS  0.3560000D-01 0.2440000D+00 0.2440000D+00 0.2440000D+00 0.2440000D+00
EXPONENTS  0.2440000D+00 0.2440000D+00 0.2440000D+00 0.2440000D+00 0.2440000D+00
EXPONENTS  0.2440000D+00 0.8580000D-01 0.8580000D-01 0.8580000D-01 0.8580000D-01
EXPONENTS  0.8580000D-01 0.8580000D-01 0.8580000D-01 0.8580000D-01 0.8580000D-01
EXPONENTS  0.8580000D-01 0.4561000D+06 0.6833000D+05 0.1555000D+05 0.4405000D+04
EXPONENTS  0.1439000D+04 0.5204000D+03 0.2031000D+03 0.8396000D+02 0.3620000D+02
EXPONENTS  0.1583000D+02 0.6334000D+01 0.2694000D+01 0.4313000D+00 0.4561000D+06
EXPONENTS  0.6833000D+05 0.1555000D+05 0.4405000D+04 0.1439000D+04 0.5204000D+03
EXPONENTS  0.2031000D+03 0.8396000D+02 0.3620000D+02 0.1583000D+02 0.6334000D+01
EXPONENTS  0.2694000D+01 0.4313000D+00 0.4561000D+06 0.6833000D+05 0.1555000D+05
EXPONENTS  0.4405000D+04 0.1439000D+04 0.5204000D+03 0.2031000D+03 0.8396000D+02
EXPONENTS  0.3620000D+02 0.1583000D+02 0.6334000D+01 0.2694000D+01 0.4313000D+00
EXPONENTS  0.9768000D+00 0.1625000D+00 0.5910000D-01 0.6633000D+03 0.1568000D+03
EXPONENTS  0.4998000D+02 0.1842000D+02 0.7240000D+01 0.2922000D+01 0.3818000D+00
EXPONENTS  0.6633000D+03 0.1568000D+03 0.4998000D+02 0.1842000D+02 0.7240000D+01
EXPONENTS  0.2922000D+01 0.3818000D+00 0.6633000D+03 0.1568000D+03 0.4998000D+02
EXPONENTS  0.1842000D+02 0.7240000D+01 0.2922000D+01 0.3818000D+00 0.6633000D+03
EXPONENTS  0.1568000D+03 0.4998000D+02 0.1842000D+02 0.7240000D+01 0.2922000D+01
EXPONENTS  0.3818000D+00 0.6633000D+03 0.1568000D+03 0.4998000D+02 0.1842000D+02
EXPONENTS  0.7240000D+01 0.2922000D+01 0.3818000D+00 0.6633000D+03 0.1568000D+03
EXPONENTS  0.4998000D+02 0.1842000D+02 0.7240000D+01 0.2922000D+01 0.3818000D+00
EXPONENTS  0.1022000D+01 0.1022000D+01 0.1022000D+01 0.1301000D+00 0.1301000D+00
EXPONENTS  0.1301000D+00 0.4190000D-01 0.4190000D-01 0.4190000D-01 0.1046000D+01
EXPONENTS  0.1046000D+01 0.1046000D+01 0.1046000D+01 0.1046000D+01 0.1046000D+01
EXPONENTS  0.3440000D+00 0.3440000D+00 0.3440000D+00 0.3440000D+00 0.3440000D+00
EXPONENTS  0.3440000D+00 0.1350000D+00 0.1350000D+00 0.1350000D+00 0.1350000D+00
EXPONENTS  0.1350000D+00 0.1350000D+00 0.7060000D+00 0.7060000D+00 0.7060000D+00
EXPONENTS  0.7060000D+00 0.7060000D+00 0.7060000D+00 0.7060000D+00 0.7060000D+00
EXPONENTS  0.7060000D+00 0.7060000D+00 0.3120000D+00 0.3120000D+00 0.3120000D+00
EXPONENTS  0.3120000D+00 0.3120000D+00 0.3120000D+00 0.3120000D+00 0.3120000D+00
EXPONENTS  0.3120000D+00 0.3120000D+00 0.4561000D+06 0.6833000D+05 0.1555000D+05
EXPONENTS  0.4405000D+04 0.1439000D+04 0.5204000D+03 0.2031000D+03 0.8396000D+02
EXPONENTS  0.3620000D+02 0.1583000D+02 0.6334000D+01 0.2694000D+01 0.4313000D+00
EXPONENTS  0.4561000D+06 0.6833000D+05 0.1555000D+05 0.4405000D+04 0.1439000D+04
EXPONENTS  0.5204000D+03 0.2031000D+03 0.8396000D+02 0.3620000D+02 0.1583000D+02
EXPONENTS  0.6334000D+01 0.2694000D+01 0.4313000D+00 0.4561000D+06 0.6833000D+05
EXPONENTS  0.1555000D+05 0.4405000D+04 0.1439000D+04 0.5204000D+03 0.2031000D+03
EXPONENTS  0.8396000D+02 0.3620000D+02 0.1583000D+02 0.6334000D+01 0.2694000D+01
EXPONENTS  0.4313000D+00 0.9768000D+00 0.1625000D+00 0.5910000D-01 0.6633000D+03
EXPONENTS  0.1568000D+03 0.4998000D+02 0.1842000D+02 0.7240000D+01 0.2922000D+01
EXPONENTS  0.3818000D+00 0.6633000D+03 0.1568000D+03 0.4998000D+02 0.1842000D+02
EXPONENTS  0.7240000D+01 0.2922000D+01 0.3818000D+00 0.6633000D+03 0.1568000D+03
EXPONENTS  0.4998000D+02 0.1842000D+02 0.7240000D+01 0.2922000D+01 0.3818000D+00
EXPONENTS  0.6633000D+03 0.1568000D+03 0.4998000D+02 0.1842000D+02 0.7240000D+01
EXPONENTS  0.2922000D+01 0.3818000D+00 0.6633000D+03 0.1568000D+03 0.4998000D+02
EXPONENTS  0.1842000D+02 0.7240000D+01 0.2922000D+01 0.3818000D+00 0.6633000D+03
EXPONENTS  0.1568000D+03 0.4998000D+02 0.1842000D+02 0.7240000D+01 0.2922000D+01
EXPONENTS  0.3818000D+00 0.1022000D+01 0.1022000D+01 0.1022000D+01 0.1301000D+00
EXPONENTS  0.1301000D+00 0.1301000D+00 0.4190000D-01 0.4190000D-01 0.4190000D-01
EXPONENTS  0.1046000D+01 0.1046000D+01 0.1046000D+01 0.1046000D+01 0.1046000D+01
EXPONENTS  0.1046000D+01 0.3440000D+00 0.3440000D+00 0.3440000D+00 0.3440000D+00
EXPONENTS  0.3440000D+00 0.3440000D+00 0.1350000D+00 0.1350000D+00 0.1350000D+00
EXPONENTS  0.1350000D+00 0.1350000D+00 0.1350000D+00 0.7060000D+00 0.7060000D+00
EXPONENTS  0.7060000D+00 0.7060000D+00 0.7060000D+00 0.7060000D+00 0.7060000D+00
EXPONENTS  0.7060000D+00 0.7060000D+00 0.7060000D+00 0.3120000D+00 0.3120000D+00
EXPONENTS  0.3120000D+00 0.3120000D+00 0.3120000D+00 0.3120000D+00 0.3120000D+00
EXPONENTS  0.3120000D+00 0.3120000D+00 0.3120000D+00 0.4561000D+06 0.6833000D+05
EXPONENTS  0.1555000D+05 0.4405000D+04 0.1439000D+04 0.5204000D+03 0.2031000D+03
EXPONENTS  0.8396000D+02 0.3620000D+02 0.1583000D+02 0.6334000D+01 0.2694000D+01
EXPONENTS  0.4313000D+00 0.4561000D+06 0.6833000D+05 0.1555000D+05 0.4405000D+04
EXPONENTS  0.1439000D+04 0.5204000D+03 0.2031000D+03 0.8396000D+02 0.3620000D+02
EXPONENTS  0.1583000D+02 0.6334000D+01 0.2694000D+01 0.4313000D+00 0.4561000D+06
EXPONENTS  0.6833000D+05 0.1555000D+05 0.4405000D+04 0.1439000D+04 0.5204000D+03
EXPONENTS  0.2031000D+03 0.8396000D+02 0.3620000D+02 0.1583000D+02 0.6334000D+01
EXPONENTS  0.2694000D+01 0.4313000D+00 0.9768000D+00 0.1625000D+00 0.5910000D-01
EXPONENTS  0.6633000D+03 0.1568000D+03 0.4998000D+02 0.1842000D+02 0.7240000D+01
EXPONENTS  0.2922000D+01 0.3818000D+00 0.6633000D+03 0.1568000D+03 0.4998000D+02
EXPONENTS  0.1842000D+02 0.7240000D+01 0.2922000D+01 0.3818000D+00 0.6633000D+03
EXPONENTS  0.1568000D+03 0.4998000D+02 0.1842000D+02 0.7240000D+01 0.2922000D+01
EXPONENTS  0.3818000D+00 0.6633000D+03 0.1568000D+03 0.4998000D+02 0.1842000D+02
EXPONENTS  0.7240000D+01 0.2922000D+01 0.3818000D+00 0.6633000D+03 0.1568000D+03
EXPONENTS  0.4998000D+02 0.1842000D+02 0.7240000D+01 0.2922000D+01 0.3818000D+00
EXPONENTS  0.6633000D+03 0.1568000D+03 0.4998000D+02 0.1842000D+02 0.7240000D+01
EXPONENTS  0.2922000D+01 0.3818000D+00 0.1022000D+01 0.1022000D+01 0.1022000D+01
EXPONENTS  0.1301000D+00 0.1301000D+00 0.1301000D+00 0.4190000D-01 0.4190000D-01
EXPONENTS  0.4190000D-01 0.1046000D+01 0.1046000D+01 0.1046000D+01 0.1046000D+01
EXPONENTS  0.1046000D+01 0.1046000D+01 0.3440000D+00 0.3440000D+00 0.3440000D+00
EXPONENTS  0.3440000D+00 0.3440000D+00 0.3440000D+00 0.1350000D+00 0.1350000D+00
EXPONENTS  0.1350000D+00 0.1350000D+00 0.1350000D+00 0.1350000D+00 0.7060000D+00
EXPONENTS  0.7060000D+00 0.7060000D+00 0.7060000D+00 0.7060000D+00 0.7060000D+00
EXPONENTS  0.7060000D+00 0.7060000D+00 0.7060000D+00 0.7060000D+00 0.3120000D+00
EXPONENTS  0.3120000D+00 0.3120000D+00 0.3120000D+00 0.3120000D+00 0.3120000D+00
EXPONENTS  0.3120000D+00 0.3120000D+00 0.3120000D+00 0.3120000D+00
MO    1     MO 0.0        OCC NO =    2.0000000  ORB. ENERGY = -101.747001
  0.80475765D-04  0.15046179D-03  0.25978996D-03  0.41906480D-03  0.62894585D-03
  0.84808845D-03  0.94893515D-03  0.74029770D-03  0.27846738D-03  0.20540506D-04
 -0.12112269D-05  0.33450985D-06  0.20893766D-07 -0.16530612D-03 -0.30958354D-03
 -0.53458312D-03 -0.86963217D-03 -0.13238386D-02 -0.18728826D-02 -0.23095679D-02
 -0.23150708D-02 -0.13024796D-02  0.46344133D-03  0.10976526D-02  0.44196820D-03
 -0.26207750D-05  0.96875377D-04  0.18127581D-03  0.31346438D-03  0.50930076D-03
  0.77799857D-03  0.11012778D-02  0.13737533D-02  0.13967354D-02  0.82348291D-03
 -0.32847635D-03 -0.86880298D-03 -0.70951040D-03  0.37897234D-03 -0.12287134D-03
  0.73872640D-03  0.38147699D-06 -0.17933707D-10 -0.23744949D-10 -0.26616346D-10
 -0.23436715D-10 -0.14076109D-10 -0.51177092D-11 -0.65617007D-14 -0.35527923D-03
 -0.47040398D-03 -0.52728836D-03 -0.46429765D-03 -0.27885752D-03 -0.10138538D-03
 -0.12999186D-06  0.13886234D-16  0.18385931D-16  0.20609281D-16  0.18147263D-16
  0.10899260D-16  0.39626891D-17  0.50807849D-20  0.15568216D-10  0.21727457D-10
  0.23308756D-10  0.22428959D-10  0.12355082D-10  0.60118451D-11 -0.16695324D-11
  0.30844879D-03  0.43048013D-03  0.46180998D-03  0.44437880D-03  0.24478784D-03
  0.11911103D-03 -0.33077987D-04 -0.23019951D-17 -0.32127316D-17 -0.34465505D-17
 -0.33164592D-17 -0.18268849D-17 -0.88894180D-18  0.24686550D-18  0.29317601D-12
  0.57901466D-05  0.51215130D-19 -0.24030279D-12 -0.47022376D-05 -0.46352650D-19
  0.15116112D-14  0.23386008D-07  0.37332146D-21  0.29348833D-04  0.23473823D-04
 -0.52822655D-04  0.30037003D-12 -0.26573110D-19 -0.36089662D-19  0.22815127D-04
  0.89948890D-05 -0.31810015D-04  0.69781440D-12  0.28795688D-20  0.15542039D-20
  0.66409822D-06  0.84630478D-06 -0.15104030D-05 -0.87530114D-14 -0.56806003D-21
 -0.72424142D-21  0.21881791D-14  0.78133986D-06 -0.17362968D-20 -0.17228180D-14
 -0.22360981D-05  0.66619812D-20 -0.48417192D-14 -0.10792142D-06 -0.14530909D-20
  0.23884610D-20 -0.38900357D-15  0.37633372D-05  0.25142721D-20 -0.23085423D-14
 -0.11366225D-04 -0.31380559D-21  0.34755530D-14  0.76213218D-07 -0.72290106D-20
  0.52203809D-20  0.29907902D+00  0.55957800D+00  0.96682682D+00  0.15673390D+01
  0.23801293D+01  0.33080999D+01  0.39328536D+01  0.35030834D+01  0.17390355D+01
  0.28018648D+00  0.43016089D-02  0.76869328D-03  0.28724869D-04 -0.39598843D-03
 -0.73964954D-03 -0.12836976D-02 -0.20829196D-02 -0.32241121D-02 -0.46150236D-02
 -0.60240474D-02 -0.64196277D-02 -0.47988020D-02 -0.25332023D-03  0.32550393D-02
  0.19338673D-02 -0.72505525D-05  0.16547275D-03  0.30883104D-03  0.53672116D-03
  0.86986711D-03  0.13510398D-02  0.19354035D-02  0.25555200D-02  0.27632752D-02
  0.21664436D-02  0.10780152D-03 -0.18571899D-02 -0.19225358D-02  0.86997466D-03
 -0.11620634D-02 -0.55348248D-03 -0.18590162D-03  0.29142236D-11  0.38386865D-11
  0.42349705D-11  0.35176298D-11  0.18682986D-11  0.48188871D-12 -0.49536522D-15
 -0.12878904D-02 -0.16964407D-02 -0.18715715D-02 -0.15545552D-02 -0.82566206D-03
 -0.21296233D-03  0.21891803D-06 -0.85792981D-17 -0.11300861D-16 -0.12467497D-16
 -0.10355689D-16 -0.55001582D-17 -0.14186513D-17  0.14583253D-20 -0.24226361D-11
 -0.31807436D-11 -0.36215106D-11 -0.30665464D-11 -0.17566359D-11 -0.39957371D-12
  0.18702249D-12  0.97273509D-03  0.12771299D-02  0.14541063D-02  0.12312775D-02
  0.70532316D-03  0.16043655D-03 -0.75093134D-04  0.61110865D-17  0.80234086D-17
  0.91352410D-17  0.77353469D-17  0.44311045D-17  0.10079225D-17 -0.47176322D-18
 -0.24040255D-12  0.50788485D-04  0.96566678D-18 -0.16699261D-12  0.19202810D-03
  0.18767128D-18  0.33792519D-13  0.87532005D-05  0.41018645D-20 -0.10017229D-04
  0.75317178D-04 -0.65299949D-04  0.13511615D-12  0.56089945D-20 -0.13600459D-18
  0.32553966D-05 -0.31111694D-04  0.27856297D-04 -0.85369906D-13  0.68409711D-20
  0.55587605D-19  0.12519468D-04 -0.19105510D-04  0.65860422D-05  0.76857674D-13
 -0.36696161D-20 -0.58595074D-19 -0.18539885D-13 -0.20668044D-04  0.30695799D-19
  0.15059287D-12  0.11402726D-04  0.20879774D-19 -0.94973214D-13  0.50601404D-04
 -0.11296717D-18  0.74013232D-20  0.49552613D-14  0.12490198D-04 -0.11606220D-19
 -0.42231665D-13 -0.90637326D-05 -0.81249572D-20  0.27365881D-13 -0.28406860D-04
  0.42943617D-19 -0.37137456D-20  0.38170125D+00  0.71416450D+00  0.12339181D+01
  0.20003251D+01  0.30376532D+01  0.42219807D+01  0.50193260D+01  0.44708296D+01
  0.22194537D+01  0.35758954D+00  0.54899520D-02  0.98104903D-03  0.36660272D-04
 -0.48779200D-03 -0.91112541D-03 -0.15813023D-02 -0.25658111D-02 -0.39715708D-02
 -0.56849428D-02 -0.74206261D-02 -0.79079154D-02 -0.59113273D-02 -0.31204847D-03
  0.40096679D-02  0.23822034D-02 -0.89314768D-05  0.20207652D-03  0.37714670D-03
  0.65544777D-03  0.10622880D-02  0.16498996D-02  0.23635288D-02  0.31208195D-02
  0.33745317D-02  0.26456766D-02  0.13164799D-03 -0.22680137D-02 -0.23478147D-02
  0.10624194D-02 -0.14576244D-02 -0.64337112D-03 -0.19589979D-03 -0.12286496D-02
 -0.16184073D-02 -0.17854824D-02 -0.14830484D-02 -0.78768301D-03 -0.20316642D-03
  0.20884818D-06  0.76832987D-03  0.10120629D-02  0.11165424D-02  0.92741684D-03
  0.49257361D-03  0.12704910D-03 -0.13060216D-06 -0.82207888D-17 -0.10828624D-16
 -0.11946509D-16 -0.99229487D-17 -0.52703191D-17 -0.13593690D-17  0.13973852D-20
  0.90641120D-03  0.11900515D-02  0.13549611D-02  0.11473254D-02  0.65723219D-03
  0.14949752D-03 -0.69973067D-04 -0.57232338D-03 -0.75141864D-03 -0.85554540D-03
 -0.72444071D-03 -0.41498753D-03 -0.94395265D-04  0.44182179D-04  0.44437188D-17
  0.58342770D-17  0.66427536D-17  0.56248109D-17  0.32221082D-17  0.73291784D-18
 -0.34304588D-18  0.43056464D-04 -0.29728029D-04  0.71930153D-18  0.19101086D-03
 -0.11370298D-03  0.10872723D-18  0.83922718D-05 -0.41482642D-05  0.30680316D-20
  0.67206712D-04  0.65654985D-05 -0.73772210D-04 -0.10051934D-03 -0.95530763D-19
  0.58208338D-19 -0.29064945D-04 -0.30166173D-05  0.32081562D-04  0.42287266D-04
  0.46735526D-19 -0.12265258D-19 -0.13549646D-04  0.47014343D-05  0.88482113D-05
  0.34231161D-04 -0.31267219D-19  0.10850278D-19 -0.12714558D-04 -0.61364492D-05
  0.24554229D-19 -0.15566285D-04  0.51218769D-04 -0.45974025D-19  0.53709959D-04
 -0.32809421D-04 -0.27688662D-19  0.35919976D-19  0.74677062D-05  0.44849456D-05
 -0.81244987D-20  0.82738384D-05 -0.31683329D-04  0.14632185D-19 -0.30676957D-04
  0.18228492D-04  0.97413111D-20 -0.15980859D-19  0.38170125D+00  0.71416451D+00
  0.12339181D+01  0.20003251D+01  0.30376532D+01  0.42219808D+01  0.50193261D+01
  0.44708296D+01  0.22194537D+01  0.35758955D+00  0.54899521D-02  0.98104904D-03
  0.36660272D-04 -0.48779200D-03 -0.91112542D-03 -0.15813024D-02 -0.25658111D-02
 -0.39715709D-02 -0.56849429D-02 -0.74206262D-02 -0.79079155D-02 -0.59113273D-02
 -0.31204847D-03  0.40096679D-02  0.23822034D-02 -0.89314769D-05  0.20207652D-03
  0.37714670D-03  0.65544778D-03  0.10622880D-02  0.16498996D-02  0.23635288D-02
  0.31208196D-02  0.33745317D-02  0.26456766D-02  0.13164799D-03 -0.22680138D-02
 -0.23478147D-02  0.10624194D-02 -0.14576244D-02 -0.64337113D-03 -0.19589979D-03
  0.12286496D-02  0.16184073D-02  0.17854824D-02  0.14830484D-02  0.78768301D-03
  0.20316643D-03 -0.20884818D-06  0.76832987D-03  0.10120629D-02  0.11165424D-02
  0.92741684D-03  0.49257361D-03  0.12704910D-03 -0.13060216D-06  0.51105556D-17
  0.67317487D-17  0.74266958D-17  0.61687246D-17  0.32763595D-17  0.84506868D-18
 -0.86870187D-21 -0.90641121D-03 -0.11900515D-02 -0.13549611D-02 -0.11473255D-02
 -0.65723219D-03 -0.14949752D-03  0.69973068D-04 -0.57232338D-03 -0.75141864D-03
 -0.85554540D-03 -0.72444071D-03 -0.41498753D-03 -0.94395266D-04  0.44182179D-04
 -0.28817591D-18 -0.37835385D-18 -0.43078369D-18 -0.36476994D-18 -0.20895427D-18
 -0.47529846D-19  0.22246584D-19 -0.43056464D-04 -0.29728029D-04 -0.24770567D-18
 -0.19101086D-03 -0.11370298D-03 -0.15093203D-19 -0.83922718D-05 -0.41482643D-05
  0.20283090D-20  0.67206713D-04  0.65654983D-05 -0.73772211D-04  0.10051934D-03
 -0.42103996D-20  0.18902446D-19 -0.29064945D-04 -0.30166173D-05  0.32081562D-04
 -0.42287267D-04 -0.88688989D-20 -0.25528894D-20 -0.13549646D-04  0.47014344D-05
  0.88482115D-05 -0.34231162D-04 -0.47866376D-20 -0.52440698D-20  0.12714558D-04
 -0.61364495D-05  0.95990597D-20  0.15566285D-04  0.51218770D-04  0.87973276D-20
 -0.53709960D-04 -0.32809422D-04 -0.37594507D-19  0.62712288D-19 -0.74677063D-05
  0.44849458D-05 -0.31807563D-20 -0.82738384D-05 -0.31683329D-04 -0.22315667D-20
  0.30676957D-04  0.18228492D-04  0.11773836D-19 -0.20888997D-19
MO    2     MO 0.0        OCC NO =    2.0000000  ORB. ENERGY = -101.746997
 -0.73856111D-12 -0.13808533D-11 -0.23842055D-11 -0.38459400D-11 -0.57721097D-11
 -0.77832767D-11 -0.87087908D-11 -0.67940341D-11 -0.25556163D-11 -0.18850916D-12
  0.11115956D-13 -0.30699424D-14 -0.19175118D-15  0.15171541D-11  0.28413099D-11
  0.49063213D-11  0.79813497D-11  0.12149986D-10  0.17189027D-10  0.21196858D-10
  0.21247362D-10  0.11953957D-10 -0.42533929D-11 -0.10074086D-10 -0.40563158D-11
  0.24053068D-13 -0.88916503D-12 -0.16638295D-11 -0.28771146D-11 -0.46745874D-11
 -0.71408147D-11 -0.10108015D-10 -0.12608915D-10 -0.12819855D-10 -0.75582901D-11
  0.30149011D-11  0.79742577D-11  0.65122000D-11 -0.34783756D-11  0.11206908D-11
 -0.67702506D-11 -0.30911684D-14 -0.32496099D-02 -0.43026142D-02 -0.48229149D-02
 -0.42467618D-02 -0.25506084D-02 -0.92733525D-03 -0.11889883D-05 -0.10609727D-09
 -0.14047705D-09 -0.15746447D-09 -0.13865351D-09 -0.83275403D-10 -0.30276783D-10
 -0.38819554D-13 -0.20684845D-15 -0.27387566D-15 -0.30699452D-15 -0.27032047D-15
 -0.16235468D-15 -0.59027962D-16 -0.75683047D-19  0.28212553D-02  0.39374264D-02
  0.42239877D-02  0.40645517D-02  0.22389747D-02  0.10894601D-02 -0.30255087D-03
  0.92114110D-10  0.12855714D-09  0.13791338D-09  0.13270779D-09  0.73102620D-10
  0.35570919D-10 -0.98782990D-11  0.85320575D-16  0.11907589D-15  0.12774209D-15
  0.12292042D-15  0.67711207D-16  0.32947518D-16 -0.91497616D-17  0.52980970D-04
  0.17275225D-11  0.44886620D-16 -0.43010442D-04 -0.14019980D-11  0.99548695D-18
  0.21389086D-06  0.70637592D-14 -0.26534948D-18  0.64261578D-12 -0.11253700D-11
  0.48275424D-12  0.53740523D-04  0.47210671D-19 -0.18748653D-19  0.19185010D-11
 -0.22112053D-11  0.29270433D-12  0.12641509D-03 -0.90076175D-20  0.12694476D-19
 -0.32613016D-13  0.18896969D-13  0.13716047D-13 -0.16665113D-05  0.50900115D-21
 -0.64341352D-21  0.24632379D-06  0.13902160D-14 -0.14694565D-19  0.24614570D-06
  0.29770255D-13  0.25403199D-19 -0.98511706D-06 -0.33940903D-13  0.18680496D-19
 -0.92250788D-20 -0.17429276D-06 -0.40033068D-13 -0.20789013D-20 -0.17440689D-06
  0.97331324D-13  0.57858097D-20  0.69728517D-06  0.22767880D-13  0.45089408D-21
 -0.90954737D-20 -0.19707685D-07 -0.36873154D-07 -0.63708641D-07 -0.10327914D-06
 -0.15683761D-06 -0.21798584D-06 -0.25915371D-06 -0.23083419D-06 -0.11459301D-06
 -0.18462769D-07 -0.28345269D-09 -0.50652716D-10 -0.18928130D-11  0.22477929D-10
  0.41985545D-10  0.72867949D-10  0.11823507D-09  0.18301384D-09  0.26196769D-09
  0.34194966D-09  0.36440443D-09  0.27239971D-09  0.14379497D-10 -0.18476939D-09
 -0.10977425D-09  0.41157113D-12 -0.90314471D-11 -0.16855895D-10 -0.29294061D-10
 -0.47477056D-10 -0.73739301D-10 -0.10563368D-09 -0.13947943D-09 -0.15081863D-09
 -0.11824376D-09 -0.58837706D-11  0.10136480D-09  0.10493136D-09 -0.47482925D-10
  0.71339538D-10  0.23525118D-10  0.37755682D-11  0.53935674D-03  0.71045388D-03
  0.78379706D-03  0.65103355D-03  0.34577974D-03  0.89186680D-04 -0.91680875D-07
  0.44770558D-10  0.58972873D-10  0.65060894D-10  0.54040551D-10  0.28702249D-10
  0.74031474D-11 -0.76101838D-14  0.55743865D-19  0.73427180D-19  0.81007381D-19
  0.67285942D-19  0.35737198D-19  0.92176659D-20 -0.94754472D-23 -0.44823634D-03
 -0.58850145D-03 -0.67005220D-03 -0.56737268D-03 -0.32501292D-03 -0.73929163D-04
  0.34602917D-04 -0.29157816D-10 -0.38282075D-10 -0.43586958D-10 -0.36907646D-10
 -0.21142121D-10 -0.48090990D-11  0.22509230D-11  0.40303943D-19  0.52916123D-19
  0.60248899D-19  0.51016293D-19  0.29224097D-19  0.66474682D-20 -0.31113809D-20
 -0.44537344D-04 -0.75048779D-12  0.47111871D-19 -0.31308699D-04 -0.79739800D-11
 -0.29632053D-19  0.63753122D-05 -0.19934733D-12 -0.20991178D-20  0.25091753D-11
 -0.48509618D-11  0.23417865D-11  0.23836802D-04  0.38075110D-19  0.33563046D-19
 -0.11634698D-11  0.22880409D-11 -0.11245711D-11 -0.14941703D-04 -0.18724194D-19
  0.27138143D-19 -0.61689969D-12  0.11406853D-11 -0.52378560D-12  0.13832864D-04
  0.77087836D-20  0.17790613D-19 -0.34146480D-05  0.21195899D-11  0.11425650D-19
  0.26704332D-04 -0.33695014D-11 -0.14513626D-18 -0.16460388D-04 -0.29892682D-11
  0.11085931D-18 -0.91454644D-20  0.94639615D-06 -0.12379163D-11  0.46864390D-20
 -0.75684131D-05  0.19618303D-11  0.27622521D-19  0.47292247D-05  0.17519185D-11
 -0.41681838D-19  0.39836962D-20 -0.43632646D+00 -0.81636847D+00 -0.14105039D+01
 -0.22865913D+01 -0.34723713D+01 -0.48261877D+01 -0.57376410D+01 -0.51106493D+01
 -0.25370793D+01 -0.40876413D+00 -0.62756182D-02 -0.11214468D-02 -0.41906717D-04
  0.48481259D-03  0.90556030D-03  0.15716438D-02  0.25501392D-02  0.39473126D-02
  0.56502194D-02  0.73753013D-02  0.78596142D-02  0.58752212D-02  0.31014249D-03
 -0.39851770D-02 -0.23676530D-02  0.88769238D-05 -0.19330334D-03 -0.36077283D-03
 -0.62699142D-03 -0.10161686D-02 -0.15782690D-02 -0.22609159D-02 -0.29853288D-02
 -0.32280259D-02 -0.25308142D-02 -0.12593248D-03  0.21695476D-02  0.22458840D-02
 -0.10162943D-02  0.15608550D-02  0.47468555D-03  0.52794109D-04  0.86817979D-03
  0.11435876D-02  0.12616451D-02  0.10479412D-02  0.55658705D-03  0.14356004D-03
 -0.14757484D-06 -0.18982844D-03 -0.25004666D-03 -0.27586005D-03 -0.22913348D-03
 -0.12169836D-03 -0.31389556D-04  0.32267396D-07  0.10487527D-16  0.13814426D-16
  0.15240549D-16  0.12659027D-16  0.67235170D-17  0.17341912D-17 -0.17826896D-20
 -0.56218965D-03 -0.73811380D-03 -0.84039687D-03 -0.71161355D-03 -0.40763964D-03
 -0.92723876D-04  0.43399877D-04  0.65776533D-04  0.86359766D-04  0.98326948D-04
  0.83259221D-04  0.47694087D-04  0.10848750D-04 -0.50778121D-05 -0.55805581D-17
 -0.73268636D-17 -0.83421733D-17 -0.70638097D-17 -0.40464222D-17 -0.92042066D-18
  0.43080752D-18 -0.17380723D-04 -0.15680236D-04 -0.93256883D-18 -0.14614684D-03
  0.66300495D-04 -0.21366606D-18 -0.10990864D-05  0.43153353D-05 -0.38927989D-20
 -0.59508422D-04  0.14767426D-04  0.44740995D-04  0.15248695D-03  0.86902264D-19
 -0.57825884D-19  0.28092619D-04 -0.57803917D-05 -0.22312227D-04 -0.73611833D-04
 -0.52065149D-19  0.33905828D-19  0.18402517D-04 -0.64558457D-05 -0.11946671D-04
 -0.29222374D-04  0.68753806D-19 -0.44269193D-19  0.18877158D-04  0.27033402D-04
 -0.20700439D-19  0.38172946D-05 -0.10649679D-03  0.24390474D-19 -0.60448768D-04
  0.25396590D-04  0.37710844D-19 -0.26447728D-18 -0.96771975D-05 -0.15004866D-04
  0.15665993D-19 -0.54195445D-05  0.62174488D-04 -0.32835791D-19  0.34451137D-04
 -0.17159889D-04 -0.14162190D-19  0.10612812D-18  0.43632647D+00  0.81636849D+00
  0.14105039D+01  0.22865913D+01  0.34723713D+01  0.48261878D+01  0.57376411D+01
  0.51106494D+01  0.25370794D+01  0.40876414D+00  0.62756183D-02  0.11214468D-02
  0.41906718D-04 -0.48481260D-03 -0.90556032D-03 -0.15716439D-02 -0.25501393D-02
 -0.39473127D-02 -0.56502195D-02 -0.73753014D-02 -0.78596144D-02 -0.58752213D-02
 -0.31014250D-03  0.39851771D-02  0.23676531D-02 -0.88769239D-05  0.19330334D-03
  0.36077284D-03  0.62699144D-03  0.10161687D-02  0.15782690D-02  0.22609159D-02
  0.29853288D-02  0.32280260D-02  0.25308142D-02  0.12593248D-03 -0.21695477D-02
 -0.22458840D-02  0.10162943D-02 -0.15608550D-02 -0.47468556D-03 -0.52794107D-04
  0.86817978D-03  0.11435876D-02  0.12616450D-02  0.10479412D-02  0.55658705D-03
  0.14356003D-03 -0.14757484D-06  0.18982847D-03  0.25004670D-03  0.27586009D-03
  0.22913351D-03  0.12169837D-03  0.31389561D-04 -0.32267401D-07  0.63369036D-17
  0.83471242D-17  0.92088334D-17  0.76489947D-17  0.40625669D-17  0.10478545D-17
 -0.10771588D-20 -0.56218964D-03 -0.73811379D-03 -0.84039685D-03 -0.71161353D-03
 -0.40763963D-03 -0.92723873D-04  0.43399876D-04 -0.65776556D-04 -0.86359796D-04
 -0.98326981D-04 -0.83259249D-04 -0.47694103D-04 -0.10848754D-04  0.50778139D-05
 -0.39098597D-18 -0.51333592D-18 -0.58447071D-18 -0.49490579D-18 -0.28350109D-18
 -0.64486663D-19  0.30183307D-19 -0.17380721D-04  0.15680234D-04 -0.32934974D-18
 -0.14614684D-03 -0.66300497D-04 -0.11521917D-19 -0.10990865D-05 -0.43153350D-05
 -0.37634356D-20  0.59508424D-04 -0.14767428D-04 -0.44740996D-04  0.15248695D-03
 -0.13596517D-19 -0.21296753D-19 -0.28092620D-04  0.57803925D-05  0.22312228D-04
 -0.73611835D-04 -0.98698935D-20  0.43854172D-20 -0.18402517D-04  0.64558454D-05