 Molden2AIM, Version 4.0.0 (06/02/2016)           Time: Fri Jun 29 18:27:29 2018
GAUSSIAN             20 MOL ORBITALS    356 PRIMITIVES        4 NUCLEI
  Al   1    (CENTRE  1)   0.00000000 -0.00101100  0.00000000  CHARGE = 13.0
  F    2    (CENTRE  2)   0.00000000  3.12136646  0.00000000  CHARGE =  9.0
  F    3    (CENTRE  3)   2.70510326 -1.56017868  0.00000000  CHARGE =  9.0
  F    4    (CENTRE  4)  -2.70510326 -1.56017868  0.00000000  CHARGE =  9.0
CENTRE ASSIGNMENTS    1  1  1  1  1  1  1  1  1  1  1  1  1  1  1  1  1  1  1  1
CENTRE ASSIGNMENTS    1  1  1  1  1  1  1  1  1  1  1  1  1  1  1  1  1  1  1  1
CENTRE ASSIGNMENTS    1  1  1  1  1  1  1  1  1  1  1  1  1  1  1  1  1  1  1  1
CENTRE ASSIGNMENTS    1  1  1  1  1  1  1  1  1  1  1  1  1  1  1  1  1  1  1  1
CENTRE ASSIGNMENTS    1  1  1  1  1  1  1  1  1  1  1  1  1  1  1  1  1  1  1  1
CENTRE ASSIGNMENTS    1  1  1  1  1  1  1  1  1  1  1  1  1  1  1  1  1  1  1  1
CENTRE ASSIGNMENTS    1  1  1  1  1  1  1  1  1  1  1  2  2  2  2  2  2  2  2  2
CENTRE ASSIGNMENTS    2  2  2  2  2  2  2  2  2  2  2  2  2  2  2  2  2  2  2  2
CENTRE ASSIGNMENTS    2  2  2  2  2  2  2  2  2  2  2  2  2  2  2  2  2  2  2  2
CENTRE ASSIGNMENTS    2  2  2  2  2  2  2  2  2  2  2  2  2  2  2  2  2  2  2  2
CENTRE ASSIGNMENTS    2  2  2  2  2  2  3  3  3  3  3  3  3  3  3  3  3  3  3  3
CENTRE ASSIGNMENTS    3  3  3  3  3  3  3  3  3  3  3  3  3  3  3  3  3  3  3  3
CENTRE ASSIGNMENTS    3  3  3  3  3  3  3  3  3  3  3  3  3  3  3  3  3  3  3  3
CENTRE ASSIGNMENTS    3  3  3  3  3  3  3  3  3  3  3  3  3  3  3  3  3  3  3  3
CENTRE ASSIGNMENTS    3  4  4  4  4  4  4  4  4  4  4  4  4  4  4  4  4  4  4  4
CENTRE ASSIGNMENTS    4  4  4  4  4  4  4  4  4  4  4  4  4  4  4  4  4  4  4  4
CENTRE ASSIGNMENTS    4  4  4  4  4  4  4  4  4  4  4  4  4  4  4  4  4  4  4  4
CENTRE ASSIGNMENTS    4  4  4  4  4  4  4  4  4  4  4  4  4  4  4  4
TYPE ASSIGNMENTS      1  1  1  1  1  1  1  1  1  1  1  1  1  1  1  1  1  1  1  1
TYPE ASSIGNMENTS      1  1  1  1  1  1  1  1  1  1  1  1  1  1  1  1  1  1  1  1
TYPE ASSIGNMENTS      1  1  2  2  2  2  2  2  2  3  3  3  3  3  3  3  4  4  4  4
TYPE ASSIGNMENTS      4  4  4  2  2  2  2  2  2  2  3  3  3  3  3  3  3  4  4  4
TYPE ASSIGNMENTS      4  4  4  4  2  3  4  2  3  4  2  3  4  5  6  7  8  9 10  5
TYPE ASSIGNMENTS      6  7  8  9 10  5  6  7  8  9 10 11 12 13 17 14 15 18 19 16
TYPE ASSIGNMENTS     20 11 12 13 17 14 15 18 19 16 20  1  1  1  1  1  1  1  1  1
TYPE ASSIGNMENTS      1  1  1  1  1  1  1  1  1  1  2  2  2  3  3  3  4  4  4  2
TYPE ASSIGNMENTS      3  4  2  3  4  2  3  4  5  6  7  8  9 10  5  6  7  8  9 10
TYPE ASSIGNMENTS      5  6  7  8  9 10 11 12 13 17 14 15 18 19 16 20 11 12 13 17
TYPE ASSIGNMENTS     14 15 18 19 16 20  1  1  1  1  1  1  1  1  1  1  1  1  1  1
TYPE ASSIGNMENTS      1  1  1  1  1  2  2  2  3  3  3  4  4  4  2  3  4  2  3  4
TYPE ASSIGNMENTS      2  3  4  5  6  7  8  9 10  5  6  7  8  9 10  5  6  7  8  9
TYPE ASSIGNMENTS     10 11 12 13 17 14 15 18 19 16 20 11 12 13 17 14 15 18 19 16
TYPE ASSIGNMENTS     20  1  1  1  1  1  1  1  1  1  1  1  1  1  1  1  1  1  1  1
TYPE ASSIGNMENTS      2  2  2  3  3  3  4  4  4  2  3  4  2  3  4  2  3  4  5  6
TYPE ASSIGNMENTS      7  8  9 10  5  6  7  8  9 10  5  6  7  8  9 10 11 12 13 17
TYPE ASSIGNMENTS     14 15 18 19 16 20 11 12 13 17 14 15 18 19 16 20
EXPONENTS  0.2055000D+06 0.3078000D+05 0.7006000D+04 0.1985000D+04 0.6491000D+03
EXPONENTS  0.2350000D+03 0.9162000D+02 0.3767000D+02 0.1591000D+02 0.5850000D+01
EXPONENTS  0.2542000D+01 0.1057000D+01 0.1455000D+00 0.2055000D+06 0.3078000D+05
EXPONENTS  0.7006000D+04 0.1985000D+04 0.6491000D+03 0.2350000D+03 0.9162000D+02
EXPONENTS  0.3767000D+02 0.1591000D+02 0.5850000D+01 0.2542000D+01 0.1057000D+01
EXPONENTS  0.1455000D+00 0.2055000D+06 0.3078000D+05 0.7006000D+04 0.1985000D+04
EXPONENTS  0.6491000D+03 0.2350000D+03 0.9162000D+02 0.3767000D+02 0.1591000D+02
EXPONENTS  0.5850000D+01 0.2542000D+01 0.1057000D+01 0.1455000D+00 0.2931000D+00
EXPONENTS  0.5650000D-01 0.2210000D-01 0.4444000D+03 0.1051000D+03 0.3347000D+02
EXPONENTS  0.1233000D+02 0.4869000D+01 0.1961000D+01 0.1888000D+00 0.4444000D+03
EXPONENTS  0.1051000D+03 0.3347000D+02 0.1233000D+02 0.4869000D+01 0.1961000D+01
EXPONENTS  0.1888000D+00 0.4444000D+03 0.1051000D+03 0.3347000D+02 0.1233000D+02
EXPONENTS  0.4869000D+01 0.1961000D+01 0.1888000D+00 0.4444000D+03 0.1051000D+03
EXPONENTS  0.3347000D+02 0.1233000D+02 0.4869000D+01 0.1961000D+01 0.1888000D+00
EXPONENTS  0.4444000D+03 0.1051000D+03 0.3347000D+02 0.1233000D+02 0.4869000D+01
EXPONENTS  0.1961000D+01 0.1888000D+00 0.4444000D+03 0.1051000D+03 0.3347000D+02
EXPONENTS  0.1233000D+02 0.4869000D+01 0.1961000D+01 0.1888000D+00 0.7834000D+00
EXPONENTS  0.7834000D+00 0.7834000D+00 0.5557000D-01 0.5557000D-01 0.5557000D-01
EXPONENTS  0.1460000D-01 0.1460000D-01 0.1460000D-01 0.1090000D+00 0.1090000D+00
EXPONENTS  0.1090000D+00 0.1090000D+00 0.1090000D+00 0.1090000D+00 0.3330000D+00
EXPONENTS  0.3330000D+00 0.3330000D+00 0.3330000D+00 0.3330000D+00 0.3330000D+00
EXPONENTS  0.3560000D-01 0.3560000D-01 0.3560000D-01 0.3560000D-01 0.3560000D-01
EXPONENTS  0.3560000D-01 0.2440000D+00 0.2440000D+00 0.2440000D+00 0.2440000D+00
EXPONENTS  0.2440000D+00 0.2440000D+00 0.2440000D+00 0.2440000D+00 0.2440000D+00
EXPONENTS  0.2440000D+00 0.8580000D-01 0.8580000D-01 0.8580000D-01 0.8580000D-01
EXPONENTS  0.8580000D-01 0.8580000D-01 0.8580000D-01 0.8580000D-01 0.8580000D-01
EXPONENTS  0.8580000D-01 0.1950000D+05 0.2923000D+04 0.6645000D+03 0.1875000D+03
EXPONENTS  0.6062000D+02 0.2142000D+02 0.7950000D+01 0.8815000D+00 0.1950000D+05
EXPONENTS  0.2923000D+04 0.6645000D+03 0.1875000D+03 0.6062000D+02 0.2142000D+02
EXPONENTS  0.7950000D+01 0.8815000D+00 0.2257000D+01 0.3041000D+00 0.9158000D-01
EXPONENTS  0.4388000D+02 0.9926000D+01 0.2930000D+01 0.4388000D+02 0.9926000D+01
EXPONENTS  0.2930000D+01 0.4388000D+02 0.9926000D+01 0.2930000D+01 0.9132000D+00
EXPONENTS  0.9132000D+00 0.9132000D+00 0.2672000D+00 0.2672000D+00 0.2672000D+00
EXPONENTS  0.7361000D-01 0.7361000D-01 0.7361000D-01 0.3107000D+01 0.3107000D+01
EXPONENTS  0.3107000D+01 0.3107000D+01 0.3107000D+01 0.3107000D+01 0.8550000D+00
EXPONENTS  0.8550000D+00 0.8550000D+00 0.8550000D+00 0.8550000D+00 0.8550000D+00
EXPONENTS  0.2920000D+00 0.2920000D+00 0.2920000D+00 0.2920000D+00 0.2920000D+00
EXPONENTS  0.2920000D+00 0.1917000D+01 0.1917000D+01 0.1917000D+01 0.1917000D+01
EXPONENTS  0.1917000D+01 0.1917000D+01 0.1917000D+01 0.1917000D+01 0.1917000D+01
EXPONENTS  0.1917000D+01 0.7240000D+00 0.7240000D+00 0.7240000D+00 0.7240000D+00
EXPONENTS  0.7240000D+00 0.7240000D+00 0.7240000D+00 0.7240000D+00 0.7240000D+00
EXPONENTS  0.7240000D+00 0.1950000D+05 0.2923000D+04 0.6645000D+03 0.1875000D+03
EXPONENTS  0.6062000D+02 0.2142000D+02 0.7950000D+01 0.8815000D+00 0.1950000D+05
EXPONENTS  0.2923000D+04 0.6645000D+03 0.1875000D+03 0.6062000D+02 0.2142000D+02
EXPONENTS  0.7950000D+01 0.8815000D+00 0.2257000D+01 0.3041000D+00 0.9158000D-01
EXPONENTS  0.4388000D+02 0.9926000D+01 0.2930000D+01 0.4388000D+02 0.9926000D+01
EXPONENTS  0.2930000D+01 0.4388000D+02 0.9926000D+01 0.2930000D+01 0.9132000D+00
EXPONENTS  0.9132000D+00 0.9132000D+00 0.2672000D+00 0.2672000D+00 0.2672000D+00
EXPONENTS  0.7361000D-01 0.7361000D-01 0.7361000D-01 0.3107000D+01 0.3107000D+01
EXPONENTS  0.3107000D+01 0.3107000D+01 0.3107000D+01 0.3107000D+01 0.8550000D+00
EXPONENTS  0.8550000D+00 0.8550000D+00 0.8550000D+00 0.8550000D+00 0.8550000D+00
EXPONENTS  0.2920000D+00 0.2920000D+00 0.2920000D+00 0.2920000D+00 0.2920000D+00
EXPONENTS  0.2920000D+00 0.1917000D+01 0.1917000D+01 0.1917000D+01 0.1917000D+01
EXPONENTS  0.1917000D+01 0.1917000D+01 0.1917000D+01 0.1917000D+01 0.1917000D+01
EXPONENTS  0.1917000D+01 0.7240000D+00 0.7240000D+00 0.7240000D+00 0.7240000D+00
EXPONENTS  0.7240000D+00 0.7240000D+00 0.7240000D+00 0.7240000D+00 0.7240000D+00
EXPONENTS  0.7240000D+00 0.1950000D+05 0.2923000D+04 0.6645000D+03 0.1875000D+03
EXPONENTS  0.6062000D+02 0.2142000D+02 0.7950000D+01 0.8815000D+00 0.1950000D+05
EXPONENTS  0.2923000D+04 0.6645000D+03 0.1875000D+03 0.6062000D+02 0.2142000D+02
EXPONENTS  0.7950000D+01 0.8815000D+00 0.2257000D+01 0.3041000D+00 0.9158000D-01
EXPONENTS  0.4388000D+02 0.9926000D+01 0.2930000D+01 0.4388000D+02 0.9926000D+01
EXPONENTS  0.2930000D+01 0.4388000D+02 0.9926000D+01 0.2930000D+01 0.9132000D+00
EXPONENTS  0.9132000D+00 0.9132000D+00 0.2672000D+00 0.2672000D+00 0.2672000D+00
EXPONENTS  0.7361000D-01 0.7361000D-01 0.7361000D-01 0.3107000D+01 0.3107000D+01
EXPONENTS  0.3107000D+01 0.3107000D+01 0.3107000D+01 0.3107000D+01 0.8550000D+00
EXPONENTS  0.8550000D+00 0.8550000D+00 0.8550000D+00 0.8550000D+00 0.8550000D+00
EXPONENTS  0.2920000D+00 0.2920000D+00 0.2920000D+00 0.2920000D+00 0.2920000D+00
EXPONENTS  0.2920000D+00 0.1917000D+01 0.1917000D+01 0.1917000D+01 0.1917000D+01
EXPONENTS  0.1917000D+01 0.1917000D+01 0.1917000D+01 0.1917000D+01 0.1917000D+01
EXPONENTS  0.1917000D+01 0.7240000D+00 0.7240000D+00 0.7240000D+00 0.7240000D+00
EXPONENTS  0.7240000D+00 0.7240000D+00 0.7240000D+00 0.7240000D+00 0.7240000D+00
EXPONENTS  0.7240000D+00
MO    1     MO 0.0        OCC NO =    2.0000000  ORB. ENERGY =  -56.245992
  0.46774778D+00  0.87452624D+00  0.15099723D+01  0.24357225D+01  0.36556101D+01
  0.49293285D+01  0.55154779D+01  0.43028184D+01  0.16185307D+01  0.11938719D+00
 -0.70399914D-02  0.19442653D-02  0.12144044D-03 -0.15914676D-02 -0.29804836D-02
 -0.51466438D-02 -0.83722940D-02 -0.12745120D-01 -0.18030984D-01 -0.22235127D-01
 -0.22288105D-01 -0.12539488D-01  0.44617336D-02  0.10567537D-01  0.42550032D-02
 -0.25231241D-04  0.83883505D-03  0.15696507D-02  0.27142594D-02  0.44099888D-02
  0.67366185D-02  0.95358642D-02  0.11895205D-01  0.12094204D-01  0.71304634D-02
 -0.28442467D-02 -0.75228856D-02 -0.61435858D-02  0.32814869D-02 -0.18928171D-02
  0.14624176D-02 -0.66915985D-04 -0.12129004D-13 -0.16059289D-13 -0.18001285D-13
 -0.15850822D-13 -0.95200160D-14 -0.34612317D-14 -0.44378384D-17 -0.19688449D-05
 -0.26068298D-05 -0.29220650D-05 -0.25729905D-05 -0.15453400D-05 -0.56184568D-06
 -0.72037372D-09 -0.15560676D-16 -0.20602961D-16 -0.23094408D-16 -0.20335513D-16
 -0.12213524D-16 -0.44405217D-17 -0.56934408D-20  0.11017835D-13  0.15376812D-13
  0.16495918D-13  0.15873274D-13  0.87438566D-14  0.42546631D-14 -0.11815504D-14
  0.88333265D-06  0.12328048D-05  0.13225269D-05  0.12726077D-05  0.70102106D-06
  0.34110903D-06 -0.94728419D-07  0.56877586D-17  0.79380020D-17  0.85157206D-17
  0.81942917D-17  0.45138585D-17  0.21963932D-17 -0.60995411D-18 -0.16573331D-15
  0.23624506D-06  0.14118922D-17 -0.16179037D-15  0.16790021D-07  0.10537187D-19
  0.30817266D-17 -0.83081561D-09 -0.10717052D-20  0.65884346D-04  0.65660837D-04
 -0.13154518D-03  0.91434848D-16 -0.62289916D-21  0.75601559D-22  0.22686591D-03
  0.22604832D-03 -0.45291423D-03  0.75092069D-15 -0.23213883D-20  0.80877380D-20
 -0.32862735D-07 -0.25392461D-07  0.58255196D-07  0.28250823D-18 -0.10363328D-23
  0.19214312D-22  0.43537497D-17  0.13263657D-03  0.77446831D-19 -0.10570333D-15
 -0.39798244D-03 -0.11762328D-18  0.92642082D-16  0.72716284D-07 -0.11471721D-18
  0.32342136D-20  0.42618883D-18  0.36125042D-05 -0.52706471D-21 -0.32542900D-17
 -0.10837868D-04  0.78252923D-21  0.19757235D-17  0.35535537D-09  0.79866490D-21
  0.49252165D-22  0.28431270D-03  0.52997118D-03  0.89843144D-03  0.13604900D-02
  0.17012975D-02  0.14646587D-02  0.56306827D-03 -0.24398670D-05 -0.18903905D-03
 -0.35498186D-03 -0.60447289D-03 -0.94690320D-03 -0.12689617D-02 -0.13649394D-02
 -0.81950782D-03  0.53894282D-03 -0.12273855D-03 -0.12180978D-02 -0.11012098D-02
  0.80975524D-16  0.79192294D-16  0.52325697D-16  0.80464613D-04  0.78692634D-04
  0.51995551D-04  0.44869919D-18  0.43881801D-18  0.28994561D-18 -0.67259267D-16
 -0.10166327D-03 -0.34879940D-18  0.12370063D-15  0.89707547D-03  0.32861650D-18
  0.30499942D-16  0.11413778D-03  0.67551281D-20 -0.12669237D-03  0.26807004D-03
 -0.14137767D-03 -0.35196292D-15 -0.16837782D-20 -0.11153626D-17  0.55059344D-04
 -0.13629472D-03  0.81235375D-04  0.15850253D-15 -0.10426491D-21  0.49518635D-18
  0.10205465D-03 -0.12815367D-03  0.26099014D-04 -0.12767407D-15 -0.75980144D-21
 -0.36089349D-18 -0.13869704D-16  0.24531148D-04  0.54254783D-18 -0.15062001D-15
  0.66721464D-03 -0.23543829D-18  0.19222912D-15 -0.74080809D-03 -0.13922052D-17
 -0.23419504D-19  0.86903548D-17  0.29956692D-04 -0.15571039D-18  0.21566329D-16
 -0.25586367D-03  0.45440122D-19 -0.47637394D-16  0.16599360D-03  0.42169106D-18
  0.42323320D-20  0.28456354D-03  0.53043876D-03  0.89922411D-03  0.13616903D-02
  0.17027985D-02  0.14659509D-02  0.56356505D-03 -0.24420196D-05 -0.18920629D-03
 -0.35529590D-03 -0.60500764D-03 -0.94774089D-03 -0.12700843D-02 -0.13661469D-02
 -0.82023280D-03  0.53941960D-03 -0.12283622D-03 -0.12190839D-02 -0.11019171D-02
  0.69465716D-04  0.67935953D-04  0.44888157D-04 -0.39931949D-04 -0.39052574D-04
 -0.25803687D-04  0.45025609D-18  0.44034063D-18  0.29095167D-18 -0.87995822D-04
  0.50529989D-04 -0.34599961D-18  0.77806126D-03 -0.44754623D-03  0.33686102D-18
  0.99050613D-04 -0.56973295D-04  0.72492935D-20  0.16999371D-03 -0.28553575D-04
 -0.14144014D-03 -0.34235749D-03 -0.98371885D-18  0.55925246D-18 -0.88733629D-04
  0.74505003D-05  0.81283129D-04  0.16597222D-03  0.43180501D-18 -0.24529229D-18
 -0.71066549D-04  0.44902335D-04  0.26164215D-04  0.19896231D-03 -0.32014834D-18
  0.18431503D-18  0.15953228D-03 -0.25312666D-03  0.55851322D-18  0.16275061D-03
  0.38957114D-03 -0.11474886D-17 -0.64134744D-03  0.36980884D-03 -0.52805111D-18
  0.10635646D-17 -0.35575815D-04  0.92201205D-04 -0.16023381D-18 -0.36882401D-04
 -0.19374990D-03  0.33786600D-18  0.14360985D-03 -0.82853719D-04  0.14283542D-18
 -0.34658448D-18  0.28456354D-03  0.53043876D-03  0.89922411D-03  0.13616903D-02
  0.17027985D-02  0.14659509D-02  0.56356505D-03 -0.24420196D-05 -0.18920629D-03
 -0.35529590D-03 -0.60500764D-03 -0.94774089D-03 -0.12700843D-02 -0.13661469D-02
 -0.82023280D-03  0.53941960D-03 -0.12283622D-03 -0.12190839D-02 -0.11019171D-02
 -0.69465716D-04 -0.67935953D-04 -0.44888157D-04 -0.39931949D-04 -0.39052574D-04
 -0.25803687D-04  0.44899624D-18  0.43910852D-18  0.29013756D-18  0.87995822D-04
  0.50529989D-04 -0.34533398D-18 -0.77806126D-03 -0.44754623D-03  0.32963595D-18
 -0.99050613D-04 -0.56973295D-04  0.68081607D-20  0.16999371D-03 -0.28553575D-04
 -0.14144014D-03  0.34235749D-03  0.97270639D-18  0.56085744D-18 -0.88733629D-04
  0.74505003D-05  0.81283129D-04 -0.16597222D-03 -0.42910409D-18 -0.25067738D-18
 -0.71066549D-04  0.44902335D-04  0.26164215D-04 -0.19896231D-03  0.31328211D-18
  0.18272351D-18 -0.15953228D-03 -0.25312666D-03  0.54481144D-18 -0.16275061D-03
  0.38957114D-03 -0.10977027D-17  0.64134744D-03  0.36980884D-03 -0.53673157D-18
 -0.10170966D-17  0.35575815D-04  0.92201205D-04 -0.15618276D-18  0.36882401D-04
 -0.19374990D-03  0.32700715D-18 -0.14360985D-03 -0.82853719D-04  0.14154113D-18
  0.33236003D-18
MO    2     MO 0.0        OCC NO =    2.0000000  ORB. ENERGY =  -24.767436
  0.18363237D-14  0.34332889D-14  0.59279768D-14  0.95623648D-14  0.14351503D-13
  0.19351974D-13  0.21653129D-13  0.16892368D-13  0.63541645D-14  0.46870032D-15
 -0.27638192D-16  0.76329608D-17  0.47676114D-18 -0.40172955D-14 -0.75235482D-14
 -0.12991524D-13 -0.21133939D-13 -0.32172135D-13 -0.45515090D-13 -0.56127485D-13
 -0.56261216D-13 -0.31653066D-13  0.11262625D-13  0.26675326D-13  0.10740781D-13
 -0.63690489D-16  0.25086557D-14  0.46942642D-14  0.81173797D-14  0.13188700D-13
  0.20146818D-13  0.28518361D-13  0.35574304D-13  0.36169441D-13  0.21324667D-13
 -0.85061252D-14 -0.22498262D-13 -0.18373269D-13  0.98137541D-14  0.75996132D-14
  0.17511477D-14 -0.11730939D-14  0.77705187D-03  0.10288479D-02  0.11532630D-02
  0.10154924D-02  0.60990550D-03  0.22174587D-03  0.28431276D-06  0.49935507D-13
  0.66116618D-13  0.74111880D-13  0.65258356D-13  0.39194218D-13  0.14250004D-13
  0.18270726D-16 -0.30781261D-15 -0.40755627D-15 -0.45684069D-15 -0.40226577D-15
 -0.24160113D-15 -0.87839923D-16 -0.11262447D-18 -0.60582901D-03 -0.84551266D-03
 -0.90704809D-03 -0.87281124D-03 -0.48079158D-03 -0.23394782D-03  0.64968984D-04
 -0.29259524D-13 -0.40835446D-13 -0.43807402D-13 -0.42153876D-13 -0.23220632D-13
 -0.11298900D-13  0.31377855D-14  0.26847648D-16  0.37469362D-16  0.40196339D-16
  0.38679113D-16  0.21306545D-16  0.10367527D-16 -0.28791365D-17  0.14151606D-03
  0.19675118D-13  0.45325939D-17 -0.29073684D-04 -0.62760986D-14  0.19631288D-17
  0.45185617D-06  0.11805642D-15 -0.63814295D-18 -0.16798852D-14  0.10091254D-14
  0.67075980D-15 -0.32611614D-05 -0.66296599D-17  0.23230714D-19  0.93450701D-14
 -0.76522310D-14 -0.16928391D-14  0.98455733D-04 -0.53038353D-18 -0.17890622D-17
 -0.14505681D-15  0.76263846D-16  0.68792962D-16  0.10464300D-06 -0.80958305D-20
  0.15101064D-20 -0.35119496D-05 -0.98003991D-15  0.46956633D-20 -0.22236424D-05
  0.54706361D-15 -0.12416713D-19  0.12759491D-04  0.23930561D-14 -0.16702772D-20
  0.17371568D-18  0.26666539D-06 -0.91711032D-16 -0.43737676D-22  0.26729392D-06
  0.47135466D-15 -0.28303782D-21 -0.10672901D-05 -0.19622156D-15  0.41425084D-21
  0.18824325D-19 -0.75582863D-10 -0.14088973D-09 -0.23884273D-09 -0.36167829D-09
 -0.45227997D-09 -0.38937092D-09 -0.14968840D-09  0.64862433D-12 -0.10798072D-12
 -0.20276867D-12 -0.34528007D-12 -0.54087919D-12 -0.72484175D-12 -0.77966503D-12
 -0.46810986D-12  0.30784874D-12 -0.82351587D-11 -0.14747543D-12  0.31079848D-13
 -0.48189274D-04 -0.47128058D-04 -0.31139500D-04  0.61624695D-12  0.60267606D-12
  0.39821355D-12 -0.38467211D-17 -0.37620092D-17 -0.24857185D-17  0.53868003D-04
 -0.74885238D-13  0.84547292D-20 -0.49396340D-04  0.14440357D-13 -0.84961007D-19
  0.60753175D-05 -0.29354982D-14 -0.13190277D-19  0.41383917D-13 -0.80298900D-13
  0.38914983D-13 -0.90932958D-04 -0.22158814D-17  0.22040660D-17 -0.69053702D-14
  0.14794614D-13 -0.78892438D-14  0.49525266D-05 -0.61840569D-19 -0.63744618D-18
  0.17980467D-14 -0.38254860D-14  0.20274394D-14  0.48093828D-04 -0.15640673D-19
  0.17024534D-18 -0.12993309D-03 -0.14795620D-13  0.13784645D-18  0.43660745D-03
  0.21785963D-13  0.32133698D-18 -0.46808167D-04  0.22600897D-13 -0.73487633D-18
  0.36653489D-18  0.39737545D-04  0.44277558D-14 -0.45100592D-19 -0.13862387D-03
 -0.66365226D-14 -0.45188959D-19  0.19411239D-04 -0.66467448D-14  0.18049073D-18
  0.81298555D-19 -0.41967270D+00 -0.78228809D+00 -0.13261706D+01 -0.20082132D+01
 -0.25112776D+01 -0.21619761D+01 -0.83114255D+00  0.36014767D-02 -0.59996788D-03
 -0.11266334D-02 -0.19184624D-02 -0.30052600D-02 -0.40274020D-02 -0.43320138D-02
 -0.26009354D-02  0.17104846D-02 -0.45725221D-01 -0.83365870D-03  0.15403400D-03
  0.29412267D-02  0.28764555D-02  0.19005958D-02 -0.17214993D-02 -0.16835888D-02
 -0.11124183D-02  0.24931649D-16  0.24382608D-16  0.16110620D-16 -0.33742985D-03
  0.22503478D-03 -0.45523095D-17  0.61821497D-04 -0.62297565D-04  0.50604302D-18
 -0.12088358D-04  0.10488452D-04  0.79486685D-19 -0.30113935D-03  0.85032712D-04
  0.21610664D-03  0.57879999D-03  0.38284022D-17 -0.58348990D-18  0.53857074D-04
 -0.10432350D-04 -0.43424723D-04 -0.10724335D-03  0.17846196D-18 -0.20911485D-18
 -0.45168525D-05 -0.66429543D-05  0.11159807D-04  0.42151669D-04 -0.27902903D-18
  0.10292651D-18  0.46707450D-04 -0.25751428D-04  0.46722638D-18 -0.23228052D-03
  0.15803815D-03 -0.27207605D-17  0.92158169D-04 -0.80783862D-04  0.13190814D-17
  0.84692906D-18 -0.15718266D-04  0.85657761D-05 -0.30964970D-19  0.71708991D-04
 -0.51087586D-04  0.47238242D-18 -0.24554193D-04  0.25390258D-04 -0.37948751D-18
 -0.24053157D-18  0.41967270D+00  0.78228809D+00  0.13261706D+01  0.20082132D+01
  0.25112776D+01  0.21619761D+01  0.83114255D+00 -0.36014767D-02  0.59996788D-03
  0.11266334D-02  0.19184624D-02  0.30052600D-02  0.40274020D-02  0.43320138D-02
  0.26009354D-02 -0.17104846D-02  0.45725221D-01  0.83365870D-03 -0.15403400D-03
  0.29412267D-02  0.28764555D-02  0.19005958D-02  0.17214993D-02  0.16835888D-02
  0.11124183D-02 -0.45234329D-16 -0.44238186D-16 -0.29230040D-16 -0.33742985D-03
 -0.22503478D-03  0.49493936D-17  0.61821497D-04  0.62297565D-04 -0.74996274D-18
 -0.12088358D-04 -0.10488452D-04 -0.77025982D-19  0.30113935D-03 -0.85032712D-04
 -0.21610664D-03  0.57879999D-03  0.17979700D-17 -0.87091987D-17 -0.53857074D-04
  0.10432350D-04  0.43424723D-04 -0.10724335D-03  0.15512443D-18  0.94504501D-18
  0.45168525D-05  0.66429543D-05 -0.11159807D-04  0.42151669D-04 -0.42443417D-18
 -0.27418257D-18  0.46707450D-04  0.25751428D-04 -0.76284552D-20 -0.23228052D-03
 -0.15803815D-03  0.10165411D-17  0.92158169D-04  0.80783862D-04 -0.99365575D-18
 -0.98339213D-18 -0.15718266D-04 -0.85657761D-05  0.22543406D-19  0.71708991D-04
  0.51087586D-04 -0.29036332D-18 -0.24554193D-04 -0.25390258D-04  0.22273311D-18
 -0.11405658D-18
MO    3     MO 0.0        OCC NO =    2.0000000  ORB. ENERGY =  -24.767434
  0.37000626D-04  0.69178348D-04  0.11944455D-03  0.19267490D-03  0.28917265D-03
  0.38992861D-03  0.43629526D-03  0.34036928D-03  0.12803193D-03  0.94439807D-05
 -0.55689007D-06  0.15379877D-06  0.96064003D-08 -0.67086723D-04 -0.12563930D-03
 -0.21695161D-03 -0.35292566D-03 -0.53725775D-03 -0.76007807D-03 -0.93729949D-03
 -0.93953273D-03 -0.52858956D-03  0.18807991D-03  0.44546392D-03  0.17936540D-03
 -0.10635977D-05  0.38488776D-04  0.72021235D-04  0.12454001D-03  0.20234618D-03
  0.30910035D-03  0.43753983D-03  0.54579487D-03  0.55492569D-03  0.32717137D-03
 -0.13050430D-03 -0.34517712D-03 -0.28188987D-03  0.15056645D-03 -0.23365635D-03
  0.18888047D-03 -0.90841405D-05  0.10491402D-13  0.13891038D-13  0.15570835D-13
  0.13710718D-13  0.82346675D-14  0.29939122D-14  0.38386620D-17  0.43989831D-03
  0.58244304D-03  0.65287593D-03  0.57488232D-03  0.34527476D-03  0.12553297D-03
  0.16095284D-06  0.13238468D-15  0.17528263D-15  0.19647898D-15  0.17300728D-15
  0.10390831D-15  0.37778373D-16  0.48437762D-19 -0.20807769D-13 -0.29039930D-13
 -0.31153422D-13 -0.29977525D-13 -0.16513240D-13 -0.80351584D-14  0.22314210D-14
 -0.34170086D-03 -0.47688770D-03 -0.51159504D-03 -0.49228470D-03 -0.27117700D-03
 -0.13195170D-03  0.36643933D-04 -0.93571873D-16 -0.13059164D-15 -0.14009595D-15
 -0.13480797D-15 -0.74259514D-16 -0.36133851D-16  0.10034629D-16 -0.89401270D-14
  0.82585245D-04  0.12202707D-17  0.42239524D-15 -0.16918509D-04 -0.24836492D-20
 -0.81293361D-16  0.26312556D-06 -0.30907686D-21  0.35218501D-05  0.54322688D-05
 -0.89541189D-05  0.79093539D-15 -0.27695229D-19 -0.26437300D-19  0.44303617D-04
 -0.13596259D-04 -0.30707358D-04 -0.15467809D-13 -0.34220289D-19 -0.87077344D-19
  0.10636632D-06  0.44419354D-07 -0.15078567D-06  0.85163109D-16 -0.33932619D-21
  0.81083300D-21 -0.42361937D-15  0.29598368D-04 -0.51206894D-19  0.31722167D-14
 -0.96391136D-04  0.99291236D-19 -0.19013585D-14  0.75960327D-05  0.54329447D-19
  0.43450637D-19 -0.27672089D-15  0.88422416D-07 -0.41429023D-21  0.51072240D-15
  0.35966887D-06  0.30433150D-20  0.31944028D-15 -0.62493612D-06 -0.18004443D-20
  0.43243168D-20 -0.42130410D-02 -0.78532910D-02 -0.13313259D-01 -0.20160198D-01
 -0.25210398D-01 -0.21703804D-01 -0.83437347D-02  0.36154768D-04  0.47608363D-05
  0.89400074D-05  0.15223291D-04  0.23847195D-04  0.31958047D-04  0.34375188D-04
  0.20638818D-04 -0.13572955D-04 -0.43344897D-03 -0.13330466D-03 -0.32461233D-04
 -0.25055789D-14 -0.24504014D-14 -0.16190838D-14 -0.68183318D-04 -0.66681796D-04
 -0.44059482D-04 -0.23563363D-19 -0.23044454D-19 -0.15226445D-19  0.61266497D-15
  0.98865623D-04  0.29151889D-18 -0.21252036D-14  0.17801212D-04  0.24832193D-19
 -0.16340928D-14  0.23630459D-05  0.16636144D-20  0.61563708D-05 -0.66456246D-05
  0.48925380D-06  0.66369944D-14 -0.12474101D-18 -0.39076260D-17 -0.20278758D-05
 -0.12268982D-04  0.14296858D-04 -0.31905766D-16  0.30683774D-19 -0.58992837D-19
  0.14561098D-04  0.66680757D-05 -0.21229173D-04 -0.21429924D-14 -0.20733817D-19
  0.53914452D-19  0.95425152D-14 -0.10231105D-04  0.61385823D-19 -0.39264777D-13
  0.31460123D-03  0.43511035D-18  0.10637231D-13 -0.28390791D-03 -0.61926782D-18
 -0.21390462D-18 -0.29403089D-14  0.20360184D-05 -0.14143921D-19  0.12148700D-13
 -0.97677357D-04  0.37028917D-19 -0.33277731D-14  0.91569301D-04  0.54028453D-20
  0.69367258D-19  0.41964587D+00  0.78223808D+00  0.13260859D+01  0.20080848D+01
  0.25111171D+01  0.21618379D+01  0.83108942D+00 -0.36012465D-02  0.61033088D-03
  0.11460933D-02  0.19515992D-02  0.30571686D-02  0.40969656D-02  0.44068389D-02
  0.26458603D-02 -0.17400291D-02  0.45747636D-01  0.70691331D-03 -0.18830816D-03
 -0.30541917D-02 -0.29869327D-02 -0.19735928D-02  0.17311515D-02  0.16930283D-02
  0.11186554D-02 -0.36883082D-16 -0.36070849D-16 -0.23833535D-16  0.45334790D-03
 -0.23017808D-03  0.32983415D-17 -0.69553802D-04  0.12430835D-04 -0.24146833D-18
  0.17376392D-04 -0.64685436D-05  0.19805610D-19  0.26294555D-03 -0.44491422D-04
 -0.21845413D-03 -0.61933015D-03 -0.43805074D-17 -0.12227382D-17 -0.62667665D-04
  0.42364761D-05  0.58431189D-04  0.11972718D-03  0.47085145D-18  0.39282643D-19
  0.33317650D-04 -0.94865979D-06 -0.32368991D-04 -0.12017465D-04  0.15767018D-19
 -0.37562097D-19  0.16172847D-03 -0.80817937D-04 -0.25481669D-18 -0.12200581D-03
  0.60464804D-04  0.59125614D-18 -0.36317959D-03  0.18198901D-03  0.17319391D-18
 -0.59497698D-18 -0.50732400D-04  0.23637213D-04  0.53014584D-19  0.38393300D-04
 -0.16578534D-04 -0.84822786D-19  0.11380390D-03 -0.54333104D-04 -0.74220967D-19
  0.21577137D-18  0.41964587D+00  0.78223808D+00  0.13260859D+01  0.20080848D+01
  0.25111171D+01  0.21618379D+01  0.83108942D+00 -0.36012465D-02  0.61033088D-03
  0.11460933D-02  0.19515992D-02  0.30571686D-02  0.40969656D-02  0.44068389D-02
  0.26458603D-02 -0.17400291D-02  0.45747636D-01  0.70691331D-03 -0.18830816D-03
  0.30541917D-02  0.29869327D-02  0.19735928D-02  0.17311515D-02  0.16930283D-02
  0.11186554D-02 -0.43706315D-16 -0.42743821D-16 -0.28242650D-16 -0.45334790D-03
 -0.23017808D-03  0.32221005D-17  0.69553802D-04  0.12430835D-04 -0.46628299D-18
 -0.17376392D-04 -0.64685436D-05 -0.50821637D-20  0.26294555D-03 -0.44491422D-04
 -0.21845413D-03  0.61933015D-03  0.52779677D-18  0.12924051D-17 -0.62667665D-04
  0.42364761D-05  0.58431189D-04 -0.11972718D-03  0.50468355D-18  0.83790045D-18
  0.33317650D-04 -0.94865980D-06 -0.32368991D-04  0.12017465D-04 -0.16828720D-18
 -0.11423639D-18 -0.16172847D-03 -0.80817937D-04 -0.21279290D-18  0.12200581D-03
  0.60464804D-04  0.13208264D-17  0.36317959D-03  0.18198901D-03 -0.68244767D-18
  0.57605152D-18  0.50732400D-04  0.23637213D-04  0.30997806D-19 -0.38393300D-04
 -0.16578534D-04 -0.10092555D-18 -0.11380390D-03 -0.54333104D-04  0.79321358D-20
 -0.19056889D-18
MO    4     MO 0.0        OCC NO =    2.0000000  ORB. ENERGY =  -24.767304
  0.26502775D-04  0.49551005D-04  0.85555633D-04  0.13800901D-03  0.20712833D-03
  0.27929772D-03  0.31250918D-03  0.24379941D-03  0.91706596D-04  0.67645260D-05
 -0.39888872D-06  0.11016285D-06  0.68808638D-08 -0.48032423D-04 -0.89954609D-04
 -0.15533195D-03 -0.25268599D-03 -0.38466317D-03 -0.54419697D-03 -0.67108309D-03
 -0.67268203D-03 -0.37845696D-03  0.13466053D-03  0.31894108D-03  0.12842116D-03
 -0.76150945D-06  0.27548858D-04  0.51550165D-04  0.89141183D-04  0.14483200D-03
  0.22124272D-03  0.31317500D-03  0.39066000D-03  0.39719551D-03  0.23417730D-03
 -0.93410201D-04 -0.24706515D-03 -0.20176645D-03  0.10776996D-03 -0.16772581D-03
  0.13550608D-03 -0.65166604D-05  0.10263103D-12  0.13588761D-12  0.15232005D-12
  0.13412365D-12  0.80554767D-13  0.29287630D-13  0.37551306D-16 -0.63035179D-03
 -0.83461111D-03 -0.93553784D-03 -0.82377700D-03 -0.49476109D-03 -0.17988234D-03
 -0.23063719D-06 -0.21725879D-15 -0.28765937D-15 -0.32244506D-15 -0.28392526D-15
 -0.17052573D-15 -0.61998744D-16 -0.79492052D-19 -0.80508443D-13 -0.11235993D-12
 -0.12053736D-12 -0.11598763D-12 -0.63892254D-13 -0.31089258D-13  0.86337096D-14
  0.49136710D-03  0.68576627D-03  0.73567555D-03  0.70790721D-03  0.38995353D-03
  0.18974704D-03 -0.52694111D-04  0.18316200D-15  0.25562623D-15  0.27423041D-15
  0.26387949D-15  0.14535908D-15  0.70730105D-16 -0.19642257D-16  0.17990557D-13
 -0.11488079D-03 -0.12175479D-17 -0.36334181D-14  0.23596555D-04 -0.15177864D-19
  0.55918420D-16 -0.36714852D-06 -0.84930668D-21  0.45215058D-05  0.19000532D-05
 -0.64215589D-05 -0.41905321D-15  0.30189850D-19  0.48350706D-19 -0.29136300D-04
  0.51090634D-04 -0.21954334D-04  0.12245880D-13 -0.32872171D-21  0.96073233D-19
  0.11369198D-07  0.96940487D-07 -0.10830969D-06  0.15429828D-16  0.15742930D-20
 -0.12839280D-20 -0.41566234D-15  0.25204936D-04  0.12468926D-19 -0.34006226D-15
 -0.65272900D-04 -0.63123248D-19  0.15870493D-14 -0.10341907D-04  0.25716470D-19
 -0.61377744D-19  0.36120292D-16 -0.26690216D-06 -0.79334182D-21  0.26290649D-16
 -0.68336062D-07 -0.19191979D-20 -0.13465152D-15  0.86904255D-06  0.42992233D-20
 -0.60526977D-20  0.59348011D+00  0.11062726D+01  0.18754041D+01  0.28399145D+01
  0.35513231D+01  0.30573584D+01  0.11753602D+01 -0.50930280D-02  0.85600282D-03
  0.16074217D-02  0.27371619D-02  0.42877479D-02  0.57460867D-02  0.61806910D-02
  0.37108787D-02 -0.24404300D-02  0.64680609D-01  0.10883564D-02 -0.24232649D-03
 -0.60985773D-14 -0.59642754D-14 -0.39408490D-14 -0.48926537D-02 -0.47849085D-02
 -0.31615914D-02 -0.48372478D-16 -0.47307227D-16 -0.31257885D-16  0.67886076D-14
  0.64632251D-03  0.42294688D-17 -0.61791813D-14 -0.10694809D-03 -0.86345563D-18
  0.77251512D-15  0.24059669D-04  0.29564703D-19 -0.33569778D-03  0.64244080D-03
 -0.30674302D-03 -0.11257820D-13  0.50387816D-17  0.33716312D-17  0.56624567D-04
 -0.12877003D-03  0.72145461D-04  0.51566781D-15 -0.54539535D-18  0.31164425D-18
 -0.67130513D-05  0.37777000D-04 -0.31063949D-04  0.60841387D-14  0.73918673D-19
  0.25890130D-18 -0.16406812D-13  0.10053087D-03 -0.82811685D-18  0.55220637D-13
  0.74226349D-04 -0.48995620D-18 -0.60002016D-14 -0.37581897D-03  0.29743067D-17
  0.27670548D-20  0.50120299D-14 -0.31663358D-04  0.21800820D-18 -0.17509027D-13