 Molden2AIM, Version 4.0.0 (06/02/2016)           Time: Fri Jun 29 16:32:01 2018
GAUSSIAN             18 MOL ORBITALS    344 PRIMITIVES        4 NUCLEI
  As   1    (CENTRE  1)   0.00000000  0.00003968  0.66214492  CHARGE = 33.0
  H    2    (CENTRE  2)   0.00000000 -2.39983502 -0.94185840  CHARGE =  1.0
  H    3    (CENTRE  3)   2.07836992  1.19999310 -0.94182249  CHARGE =  1.0
  H    4    (CENTRE  4)  -2.07836992  1.19999310 -0.94182249  CHARGE =  1.0
CENTRE ASSIGNMENTS    1  1  1  1  1  1  1  1  1  1  1  1  1  1  1  1  1  1  1  1
CENTRE ASSIGNMENTS    1  1  1  1  1  1  1  1  1  1  1  1  1  1  1  1  1  1  1  1
CENTRE ASSIGNMENTS    1  1  1  1  1  1  1  1  1  1  1  1  1  1  1  1  1  1  1  1
CENTRE ASSIGNMENTS    1  1  1  1  1  1  1  1  1  1  1  1  1  1  1  1  1  1  1  1
CENTRE ASSIGNMENTS    1  1  1  1  1  1  1  1  1  1  1  1  1  1  1  1  1  1  1  1
CENTRE ASSIGNMENTS    1  1  1  1  1  1  1  1  1  1  1  1  1  1  1  1  1  1  1  1
CENTRE ASSIGNMENTS    1  1  1  1  1  1  1  1  1  1  1  1  1  1  1  1  1  1  1  1
CENTRE ASSIGNMENTS    1  1  1  1  1  1  1  1  1  1  1  1  1  1  1  1  1  1  1  1
CENTRE ASSIGNMENTS    1  1  1  1  1  1  1  1  1  1  1  1  1  1  1  1  1  1  1  1
CENTRE ASSIGNMENTS    1  1  1  1  1  1  1  1  1  1  1  1  1  1  1  1  1  1  1  1
CENTRE ASSIGNMENTS    1  1  1  1  1  1  1  1  1  1  1  1  1  1  1  1  1  1  1  1
CENTRE ASSIGNMENTS    1  1  1  1  1  1  1  1  1  1  1  1  1  1  1  1  1  1  1  1
CENTRE ASSIGNMENTS    1  1  1  1  1  1  1  1  1  1  1  1  1  1  1  1  1  1  1  1
CENTRE ASSIGNMENTS    1  1  1  2  2  2  2  2  2  2  2  2  2  2  2  2  2  2  2  2
CENTRE ASSIGNMENTS    2  2  2  2  2  2  2  2  2  2  3  3  3  3  3  3  3  3  3  3
CENTRE ASSIGNMENTS    3  3  3  3  3  3  3  3  3  3  3  3  3  3  3  3  3  4  4  4
CENTRE ASSIGNMENTS    4  4  4  4  4  4  4  4  4  4  4  4  4  4  4  4  4  4  4  4
CENTRE ASSIGNMENTS    4  4  4  4
TYPE ASSIGNMENTS      1  1  1  1  1  1  1  1  1  1  1  1  1  1  1  1  1  1  1  1
TYPE ASSIGNMENTS      1  1  1  1  1  1  1  1  1  1  1  1  1  1  1  1  1  1  1  1
TYPE ASSIGNMENTS      1  1  1  1  1  1  1  1  1  1  1  1  1  1  1  1  1  1  1  1
TYPE ASSIGNMENTS      1  1  1  1  1  1  1  1  1  1  1  1  1  1  1  2  2  2  2  2
TYPE ASSIGNMENTS      2  2  2  2  2  2  3  3  3  3  3  3  3  3  3  3  3  4  4  4
TYPE ASSIGNMENTS      4  4  4  4  4  4  4  4  2  2  2  2  2  2  2  2  2  2  2  3
TYPE ASSIGNMENTS      3  3  3  3  3  3  3  3  3  3  4  4  4  4  4  4  4  4  4  4
TYPE ASSIGNMENTS      4  2  2  2  2  2  2  2  2  2  2  2  3  3  3  3  3  3  3  3
TYPE ASSIGNMENTS      3  3  3  4  4  4  4  4  4  4  4  4  4  4  2  3  4  2  3  4
TYPE ASSIGNMENTS      2  3  4  5  5  5  5  5  5  5  6  6  6  6  6  6  6  7  7  7
TYPE ASSIGNMENTS      7  7  7  7  8  8  8  8  8  8  8  9  9  9  9  9  9  9 10 10
TYPE ASSIGNMENTS     10 10 10 10 10  5  6  7  8  9 10  5  6  7  8  9 10  5  6  7
TYPE ASSIGNMENTS      8  9 10 11 12 13 17 14 15 18 19 16 20 11 12 13 17 14 15 18
TYPE ASSIGNMENTS     19 16 20  1  1  1  1  1  1  2  3  4  2  3  4  2  3  4  5  6
TYPE ASSIGNMENTS      7  8  9 10  5  6  7  8  9 10  1  1  1  1  1  1  2  3  4  2
TYPE ASSIGNMENTS      3  4  2  3  4  5  6  7  8  9 10  5  6  7  8  9 10  1  1  1
TYPE ASSIGNMENTS      1  1  1  2  3  4  2  3  4  2  3  4  5  6  7  8  9 10  5  6
TYPE ASSIGNMENTS      7  8  9 10
EXPONENTS  0.8482340D+07 0.1270151D+07 0.2890570D+06 0.8187985D+05 0.2671656D+05
EXPONENTS  0.9647584D+04 0.3764119D+04 0.1561566D+04 0.6808147D+03 0.3092412D+03
EXPONENTS  0.1452574D+03 0.6973905D+02 0.3177032D+02 0.1539176D+02 0.7341526D+01
EXPONENTS  0.3323716D+01 0.1485867D+01 0.2115000D+00 0.8482340D+07 0.1270151D+07
EXPONENTS  0.2890570D+06 0.8187985D+05 0.2671656D+05 0.9647584D+04 0.3764119D+04
EXPONENTS  0.1561566D+04 0.6808147D+03 0.3092412D+03 0.1452574D+03 0.6973905D+02
EXPONENTS  0.3177032D+02 0.1539176D+02 0.7341526D+01 0.3323716D+01 0.1485867D+01
EXPONENTS  0.2115000D+00 0.8482340D+07 0.1270151D+07 0.2890570D+06 0.8187985D+05
EXPONENTS  0.2671656D+05 0.9647584D+04 0.3764119D+04 0.1561566D+04 0.6808147D+03
EXPONENTS  0.3092412D+03 0.1452574D+03 0.6973905D+02 0.3177032D+02 0.1539176D+02
EXPONENTS  0.7341526D+01 0.3323716D+01 0.1485867D+01 0.2115000D+00 0.8482340D+07
EXPONENTS  0.1270151D+07 0.2890570D+06 0.8187985D+05 0.2671656D+05 0.9647584D+04
EXPONENTS  0.3764119D+04 0.1561566D+04 0.6808147D+03 0.3092412D+03 0.1452574D+03
EXPONENTS  0.6973905D+02 0.3177032D+02 0.1539176D+02 0.7341526D+01 0.3323716D+01
EXPONENTS  0.1485867D+01 0.2115000D+00 0.4210860D+00 0.8897400D-01 0.3340700D-01
EXPONENTS  0.7423861D+04 0.1759517D+04 0.5702292D+03 0.2165800D+03 0.9073425D+02
EXPONENTS  0.4030879D+02 0.1855550D+02 0.8396543D+01 0.3767367D+01 0.1629701D+01
EXPONENTS  0.2225030D+00 0.7423861D+04 0.1759517D+04 0.5702292D+03 0.2165800D+03
EXPONENTS  0.9073425D+02 0.4030879D+02 0.1855550D+02 0.8396543D+01 0.3767367D+01
EXPONENTS  0.1629701D+01 0.2225030D+00 0.7423861D+04 0.1759517D+04 0.5702292D+03
EXPONENTS  0.2165800D+03 0.9073425D+02 0.4030879D+02 0.1855550D+02 0.8396543D+01
EXPONENTS  0.3767367D+01 0.1629701D+01 0.2225030D+00 0.7423861D+04 0.1759517D+04
EXPONENTS  0.5702292D+03 0.2165800D+03 0.9073425D+02 0.4030879D+02 0.1855550D+02
EXPONENTS  0.8396543D+01 0.3767367D+01 0.1629701D+01 0.2225030D+00 0.7423861D+04
EXPONENTS  0.1759517D+04 0.5702292D+03 0.2165800D+03 0.9073425D+02 0.4030879D+02
EXPONENTS  0.1855550D+02 0.8396543D+01 0.3767367D+01 0.1629701D+01 0.2225030D+00
EXPONENTS  0.7423861D+04 0.1759517D+04 0.5702292D+03 0.2165800D+03 0.9073425D+02
EXPONENTS  0.4030879D+02 0.1855550D+02 0.8396543D+01 0.3767367D+01 0.1629701D+01
EXPONENTS  0.2225030D+00 0.7423861D+04 0.1759517D+04 0.5702292D+03 0.2165800D+03
EXPONENTS  0.9073425D+02 0.4030879D+02 0.1855550D+02 0.8396543D+01 0.3767367D+01
EXPONENTS  0.1629701D+01 0.2225030D+00 0.7423861D+04 0.1759517D+04 0.5702292D+03
EXPONENTS  0.2165800D+03 0.9073425D+02 0.4030879D+02 0.1855550D+02 0.8396543D+01
EXPONENTS  0.3767367D+01 0.1629701D+01 0.2225030D+00 0.7423861D+04 0.1759517D+04
EXPONENTS  0.5702292D+03 0.2165800D+03 0.9073425D+02 0.4030879D+02 0.1855550D+02
EXPONENTS  0.8396543D+01 0.3767367D+01 0.1629701D+01 0.2225030D+00 0.5682630D+00
EXPONENTS  0.5682630D+00 0.5682630D+00 0.8040500D-01 0.8040500D-01 0.8040500D-01
EXPONENTS  0.2679900D-01 0.2679900D-01 0.2679900D-01 0.3210196D+03 0.9624931D+02
EXPONENTS  0.3664496D+02 0.1549396D+02 0.6891138D+01 0.3054831D+01 0.1314241D+01
EXPONENTS  0.3210196D+03 0.9624931D+02 0.3664496D+02 0.1549396D+02 0.6891138D+01
EXPONENTS  0.3054831D+01 0.1314241D+01 0.3210196D+03 0.9624931D+02 0.3664496D+02
EXPONENTS  0.1549396D+02 0.6891138D+01 0.3054831D+01 0.1314241D+01 0.3210196D+03
EXPONENTS  0.9624931D+02 0.3664496D+02 0.1549396D+02 0.6891138D+01 0.3054831D+01
EXPONENTS  0.1314241D+01 0.3210196D+03 0.9624931D+02 0.3664496D+02 0.1549396D+02
EXPONENTS  0.6891138D+01 0.3054831D+01 0.1314241D+01 0.3210196D+03 0.9624931D+02
EXPONENTS  0.3664496D+02 0.1549396D+02 0.6891138D+01 0.3054831D+01 0.1314241D+01
EXPONENTS  0.5134300D+00 0.5134300D+00 0.5134300D+00 0.5134300D+00 0.5134300D+00
EXPONENTS  0.5134300D+00 0.1877000D+00 0.1877000D+00 0.1877000D+00 0.1877000D+00
EXPONENTS  0.1877000D+00 0.1877000D+00 0.7000000D-01 0.7000000D-01 0.7000000D-01
EXPONENTS  0.7000000D-01 0.7000000D-01 0.7000000D-01 0.4158000D+00 0.4158000D+00
EXPONENTS  0.4158000D+00 0.4158000D+00 0.4158000D+00 0.4158000D+00 0.4158000D+00
EXPONENTS  0.4158000D+00 0.4158000D+00 0.4158000D+00 0.1690000D+00 0.1690000D+00
EXPONENTS  0.1690000D+00 0.1690000D+00 0.1690000D+00 0.1690000D+00 0.1690000D+00
EXPONENTS  0.1690000D+00 0.1690000D+00 0.1690000D+00 0.3387000D+02 0.5095000D+01
EXPONENTS  0.1159000D+01 0.3258000D+00 0.1027000D+00 0.2526000D-01 0.1407000D+01
EXPONENTS  0.1407000D+01 0.1407000D+01 0.3880000D+00 0.3880000D+00 0.3880000D+00
EXPONENTS  0.1020000D+00 0.1020000D+00 0.1020000D+00 0.1057000D+01 0.1057000D+01
EXPONENTS  0.1057000D+01 0.1057000D+01 0.1057000D+01 0.1057000D+01 0.2470000D+00
EXPONENTS  0.2470000D+00 0.2470000D+00 0.2470000D+00 0.2470000D+00 0.2470000D+00
EXPONENTS  0.3387000D+02 0.5095000D+01 0.1159000D+01 0.3258000D+00 0.1027000D+00
EXPONENTS  0.2526000D-01 0.1407000D+01 0.1407000D+01 0.1407000D+01 0.3880000D+00
EXPONENTS  0.3880000D+00 0.3880000D+00 0.1020000D+00 0.1020000D+00 0.1020000D+00
EXPONENTS  0.1057000D+01 0.1057000D+01 0.1057000D+01 0.1057000D+01 0.1057000D+01
EXPONENTS  0.1057000D+01 0.2470000D+00 0.2470000D+00 0.2470000D+00 0.2470000D+00
EXPONENTS  0.2470000D+00 0.2470000D+00 0.3387000D+02 0.5095000D+01 0.1159000D+01
EXPONENTS  0.3258000D+00 0.1027000D+00 0.2526000D-01 0.1407000D+01 0.1407000D+01
EXPONENTS  0.1407000D+01 0.3880000D+00 0.3880000D+00 0.3880000D+00 0.1020000D+00
EXPONENTS  0.1020000D+00 0.1020000D+00 0.1057000D+01 0.1057000D+01 0.1057000D+01
EXPONENTS  0.1057000D+01 0.1057000D+01 0.1057000D+01 0.2470000D+00 0.2470000D+00
EXPONENTS  0.2470000D+00 0.2470000D+00 0.2470000D+00 0.2470000D+00
MO    1     MO 0.0        OCC NO =    2.0000000  ORB. ENERGY = -426.235106
  0.76171400D+00  0.14237105D+01  0.24645652D+01  0.40368178D+01  0.63177529D+01
  0.94737994D+01  0.13473396D+02  0.17691264D+02  0.20152190D+02  0.17679011D+02
  0.94084149D+01  0.20317390D+01  0.76368612D-01  0.18237032D-02 -0.48410096D-03
  0.43332243D-04 -0.35104462D-04 -0.20893294D-05  0.86975716D-04  0.16450057D-03
  0.28447719D-03  0.46593402D-03  0.73286310D-03  0.11053826D-02  0.16078699D-02
  0.22004332D-02  0.27726770D-02  0.29428777D-02  0.22514085D-02  0.35443797D-03
 -0.14766383D-02 -0.11791994D-02 -0.19942203D-03 -0.39348360D-05 -0.62432821D-06
 -0.19033266D-07 -0.74951785D-04 -0.14433668D-03 -0.25042214D-03 -0.41057540D-03
 -0.64623529D-03 -0.97494511D-03 -0.14230107D-02 -0.19562644D-02 -0.24991292D-02
 -0.27185044D-02 -0.21937003D-02 -0.37048484D-03  0.19586380D-02  0.23579684D-02
  0.14774871D-03 -0.10394156D-02 -0.41964028D-03  0.20668030D-05  0.30442716D-04
  0.65952407D-04  0.11227606D-03  0.18375345D-03  0.28919071D-03  0.43638294D-03
  0.63697512D-03  0.87662771D-03  0.11214454D-02  0.12251678D-02  0.99482462D-03
  0.17183150D-03 -0.93318525D-03 -0.11862030D-02 -0.61365039D-04  0.67978585D-03
  0.50638568D-03 -0.19617837D-03  0.12851982D-03  0.11654807D-03 -0.97017921D-06
 -0.83786399D-15 -0.11997713D-14 -0.15812160D-14 -0.18113315D-14 -0.16575703D-14
 -0.10527774D-14 -0.36065455D-15 -0.39625547D-16 -0.46712803D-18 -0.90035141D-19
 -0.92801208D-21  0.18766894D-08  0.26873075D-08  0.35416861D-08  0.40571104D-08
  0.37127084D-08  0.23580633D-08  0.80781201D-09  0.88755272D-10  0.10462966D-11
  0.20166519D-12  0.20786076D-14  0.50569732D-04  0.72412844D-04  0.95435139D-04
  0.10932389D-03  0.10004355D-03  0.63540948D-04  0.21767500D-04  0.23916212D-05
  0.28193763D-07  0.54341193D-08  0.56010668D-10  0.37746236D-14  0.54421451D-14
  0.72316847D-14  0.85319536D-14  0.81503218D-14  0.55621858D-14  0.17246093D-14
 -0.85797885D-15 -0.86090339D-15 -0.21686481D-15  0.25198561D-18  0.50056371D-08
  0.72169855D-08  0.95901455D-08  0.11314470D-07  0.10808377D-07  0.73761750D-08
  0.22870542D-08 -0.11377905D-08 -0.11416688D-08 -0.28759068D-09  0.33416538D-12
 -0.14421771D-02 -0.20792901D-02 -0.27630227D-02 -0.32598187D-02 -0.31140080D-02
 -0.21251543D-02 -0.65892457D-03  0.32780951D-03  0.32892689D-03  0.82857925D-04
 -0.96276591D-07 -0.28644120D-14 -0.41408877D-14 -0.55019293D-14 -0.65198449D-14
 -0.62523303D-14 -0.43149886D-14 -0.13049147D-14  0.81722254D-15  0.82670785D-15
  0.23959428D-15 -0.93216702D-16 -0.40705843D-08 -0.58845699D-08 -0.78187311D-08
 -0.92652798D-08 -0.88851177D-08 -0.61319828D-08 -0.18543999D-08  0.11613460D-08
  0.11748254D-08  0.34048479D-09 -0.13246923D-09  0.11170810D-02  0.16148888D-02
  0.21456762D-02  0.25426492D-02  0.24383222D-02  0.16827858D-02  0.50889865D-03
 -0.31870547D-03 -0.32240461D-03 -0.93438449D-04  0.36353222D-04  0.30686125D-16
 -0.10097280D-09 -0.11169457D-05 -0.63951408D-16  0.22448484D-09 -0.26449713D-04
 -0.12653631D-17 -0.35690637D-11  0.36007889D-06  0.38576254D-05  0.39401599D-05
  0.32263498D-05  0.20322108D-05  0.88509069D-06  0.25062327D-06  0.41744395D-07
  0.38538908D-05  0.39363454D-05  0.32232264D-05  0.20302434D-05  0.88423383D-06
  0.25038064D-06  0.41703982D-07 -0.77115162D-05 -0.78765053D-05 -0.64495762D-05
 -0.40624541D-05 -0.17693245D-05 -0.50100391D-06 -0.83448377D-07  0.35601220D-15
  0.36362913D-15  0.29775309D-15  0.18754849D-15  0.81683173D-16  0.23129499D-16
  0.38525031D-17 -0.41164219D-15 -0.42044934D-15 -0.34427959D-15 -0.21685457D-15
 -0.94446876D-16 -0.26743683D-16 -0.44544901D-17  0.29809167D-08  0.30446938D-08
  0.24931088D-08  0.15703575D-08  0.68393929D-09  0.19366502D-09  0.32257296D-10
 -0.17837931D-06 -0.17818032D-06  0.35655963D-06 -0.23648873D-16  0.27595943D-16
 -0.13101180D-09 -0.17927536D-06 -0.17925981D-06  0.35853517D-06 -0.26487964D-16
  0.40384922D-16 -0.10067830D-09 -0.48310712D-06 -0.48310526D-06  0.96621238D-06
 -0.36802059D-17  0.71395005D-17 -0.21283421D-10  0.18471941D-17  0.47060208D-05
 -0.53952560D-05  0.16970614D-17 -0.14118431D-04  0.80928162D-05 -0.72386438D-17
  0.36848999D-09  0.80929519D-05  0.32453404D-16  0.75734536D-18 -0.43231041D-06
  0.37564550D-06  0.29882145D-18  0.12969420D-05 -0.56345684D-06 -0.25708575D-17
 -0.10757956D-10 -0.56347967D-06  0.49960305D-17 -0.32379556D-05 -0.58397863D-05
 -0.86107614D-05  0.25529721D-04 -0.36448531D-04  0.41219980D-06  0.28110351D-17
 -0.13521399D-04 -0.24369800D-05 -0.11875441D-17  0.28828816D-04  0.14595063D-04
  0.65550927D-17 -0.47154361D-05  0.19721639D-05 -0.43513060D-05  0.30243951D-05
  0.13269110D-05  0.69040929D-17 -0.82813724D-17  0.97577250D-05 -0.20822001D-05
  0.26139478D-05 -0.53174776D-06  0.27430973D-17 -0.27297330D-18  0.69581433D-05
 -0.32379427D-05 -0.58397630D-05 -0.86107272D-05  0.25529569D-04 -0.36448590D-04
  0.41220141D-06  0.11709840D-04  0.67607180D-05 -0.24367799D-05 -0.24966520D-04
 -0.14414546D-04  0.14594641D-04  0.40837342D-05  0.23576761D-05  0.19722562D-05
  0.11805169D-05 -0.25073081D-05  0.13267912D-05  0.63876591D-05 -0.84503603D-05
 -0.48789120D-05  0.14399556D-05 -0.90812261D-06 -0.53183297D-06  0.40671019D-05
 -0.60258514D-05 -0.34790279D-05 -0.32379427D-05 -0.58397630D-05 -0.86107272D-05
  0.25529569D-04 -0.36448590D-04  0.41220141D-06 -0.11709840D-04  0.67607180D-05
 -0.24367799D-05  0.24966520D-04 -0.14414546D-04  0.14594641D-04 -0.40837342D-05
  0.23576761D-05  0.19722562D-05  0.11805169D-05 -0.25073081D-05  0.13267912D-05
 -0.63876591D-05  0.84503603D-05 -0.48789120D-05  0.14399556D-05 -0.90812261D-06
 -0.53183297D-06 -0.40671019D-05  0.60258514D-05 -0.34790279D-05
MO    2     MO 0.0        OCC NO =    2.0000000  ORB. ENERGY =  -53.985415
  0.85740951D-03  0.16025739D-02  0.27741930D-02  0.45439706D-02  0.71114637D-02
  0.10664010D-01  0.15166084D-01  0.19913850D-01  0.22683947D-01  0.19900057D-01
  0.10590411D-01  0.22869900D-02  0.85962939D-04  0.20528183D-05 -0.54491944D-06
  0.48776151D-07 -0.39514699D-07 -0.23518156D-08 -0.23677191D+00 -0.44781596D+00
 -0.77442542D+00 -0.12684010D+01 -0.19950557D+01 -0.30091567D+01 -0.43770657D+01
 -0.59901865D+01 -0.75479923D+01 -0.80113254D+01 -0.61289554D+01 -0.96487799D+00
  0.40198171D+01  0.32101063D+01  0.54288182D+00  0.10711710D-01  0.16995937D-02
  0.51813803D-04  0.22404331D-02  0.43144627D-02  0.74855330D-02  0.12272779D-01
  0.19317044D-01  0.29142726D-01  0.42536149D-01  0.58475986D-01  0.74703115D-01
  0.81260603D-01  0.65573339D-01  0.11074406D-01 -0.58546938D-01 -0.70483585D-01
 -0.44164539D-02  0.31069855D-01  0.12543744D-01 -0.61780167D-04 -0.93606495D-03
 -0.20279313D-02 -0.34523099D-02 -0.56501254D-02 -0.88921530D-02 -0.13418080D-01
 -0.19585969D-01 -0.26954904D-01 -0.34482658D-01 -0.37671955D-01 -0.30589270D-01
 -0.52835447D-02  0.28693958D-01  0.36473849D-01  0.18868771D-02 -0.20902331D-01
 -0.15570552D-01  0.60321720D-02 -0.37614854D-02 -0.34746941D-02  0.23744790D-04
 -0.81989359D-14 -0.11740388D-13 -0.15473022D-13 -0.17724823D-13 -0.16220190D-13
 -0.10301976D-13 -0.35291928D-14 -0.38775664D-15 -0.45710913D-17 -0.88104079D-18
 -0.90810820D-20  0.62492861D-06  0.89486055D-06  0.11793645D-05  0.13509984D-05
  0.12363142D-05  0.78522379D-06  0.26899754D-06  0.29555081D-07  0.34841176D-09
  0.67153543D-10  0.69216640D-12 -0.52586585D-01 -0.75300858D-01 -0.99241342D-01
 -0.11368401D+00 -0.10403355D+00 -0.66075128D-01 -0.22635644D-01 -0.24870053D-02
 -0.29318204D-04 -0.56508462D-05 -0.58244520D-07  0.39495131D-13  0.56942958D-13
  0.75667501D-13  0.89272643D-13  0.85279504D-13  0.58198984D-13  0.18045156D-13
 -0.89773156D-14 -0.90079160D-14 -0.22691280D-14  0.26366085D-17 -0.17296011D-06
 -0.24936898D-06 -0.33136894D-06 -0.39094962D-06 -0.37346256D-06 -0.25486947D-06
 -0.79024736D-07  0.39314151D-07  0.39448159D-07  0.99371399D-08 -0.11546439D-10
  0.45335049D-01  0.65362786D-01  0.86856020D-01  0.10247288D+00  0.97889295D-01
  0.66804534D-01  0.20713390D-01 -0.10304740D-01 -0.10339865D-01 -0.26046509D-02
  0.30264687D-05 -0.30199078D-13 -0.43656775D-13 -0.58006038D-13 -0.68737774D-13
 -0.65917406D-13 -0.45492296D-13 -0.13757525D-13  0.86158580D-14  0.87158603D-14
  0.25260075D-14 -0.98277010D-15  0.14384515D-06  0.20794726D-06  0.27629610D-06
  0.32741382D-06  0.31397976D-06  0.21669026D-06  0.65530256D-07 -0.41039313D-07
 -0.41515646D-07 -0.12031955D-07  0.46811599D-08 -0.35755522D-01 -0.51689353D-01
 -0.68678792D-01 -0.81385101D-01 -0.78045803D-01 -0.53862598D-01 -0.16288825D-01
  0.10201123D-01  0.10319525D-01  0.29907774D-02 -0.11635937D-02  0.27352701D-15
  0.33532116D-08 -0.15245927D-04 -0.41298117D-15 -0.67783344D-08  0.80677670D-03
 -0.21257716D-16  0.10940039D-09 -0.10736983D-04  0.57159421D-03  0.58382356D-03
  0.47805650D-03  0.30111786D-03  0.13114615D-03  0.37135490D-04  0.61853737D-05
  0.57171416D-03  0.58394608D-03  0.47815682D-03  0.30118105D-03  0.13117367D-03
  0.37143283D-04  0.61866717D-05 -0.11433084D-02 -0.11677696D-02 -0.95621331D-03
 -0.60229891D-03 -0.26231982D-03 -0.74278774D-04 -0.12372045D-04  0.59165369D-14
  0.60431222D-14  0.49483337D-14  0.31168527D-14  0.13574858D-14  0.38438720D-15
  0.64024427D-16 -0.82297275D-14 -0.84058038D-14 -0.68829855D-14 -0.43354497D-14
 -0.18882225D-14 -0.53467121D-15 -0.89056081D-16 -0.49348773D-07 -0.50404598D-07
 -0.41273164D-07 -0.25997109D-07 -0.11322546D-07 -0.32061047D-08 -0.53401626D-09
  0.45513573D-05  0.45447881D-05 -0.90961454D-05 -0.34414558D-15  0.46827167D-15
  0.39900079D-08  0.56556005D-05  0.56551358D-05 -0.11310736D-04 -0.32023597D-15
  0.35376878D-15  0.29618688D-08  0.14941883D-04  0.14941828D-04 -0.29883711D-04
 -0.35094254D-16  0.47786230D-16  0.64536348D-09  0.22592550D-16 -0.14899181D-03
  0.17079802D-03  0.80344203D-17  0.44698703D-03 -0.25619494D-03 -0.75812070D-16
 -0.11588778D-07 -0.25619911D-03  0.42231981D-15  0.17697349D-16  0.13964348D-04
 -0.12350394D-04 -0.17447151D-16 -0.41893449D-04  0.18525243D-04 -0.35644894D-16
  0.40559472D-09  0.18525941D-04  0.75327646D-16  0.10318917D-03  0.18610591D-03
  0.27441305D-03 -0.79100794D-03  0.10782208D-02 -0.12225584D-04  0.52222955D-16
  0.45316506D-03  0.10558169D-03 -0.52485534D-16 -0.92740766D-03 -0.47604679D-03
  0.12010273D-17  0.13335092D-03 -0.69259842D-04  0.15559220D-03 -0.11757414D-03
 -0.38018054D-04  0.57834106D-16 -0.76612506D-16 -0.36319058D-03  0.70197090D-04
 -0.87121082D-04  0.16923992D-04 -0.49975858D-17 -0.15422009D-16 -0.23059068D-03
  0.10318882D-03  0.18610529D-03  0.27441215D-03 -0.79100372D-03  0.10782223D-02
 -0.12225646D-04 -0.39245200D-03 -0.22658335D-03  0.10557491D-03  0.80316041D-03
  0.46370843D-03 -0.47603330D-03 -0.11548659D-03 -0.66674097D-04 -0.69262523D-04
 -0.49284806D-04  0.87298183D-04 -0.38013377D-04 -0.23657372D-03  0.31452939D-03
  0.18159665D-03 -0.47793104D-04  0.30866228D-04  0.16926876D-04 -0.13624540D-03
  0.19969485D-03  0.11529394D-03  0.10318882D-03  0.18610529D-03  0.27441215D-03
 -0.79100372D-03  0.10782223D-02 -0.12225646D-04  0.39245200D-03 -0.22658335D-03
  0.10557491D-03 -0.80316041D-03  0.46370843D-03 -0.47603330D-03  0.11548659D-03
 -0.66674097D-04 -0.69262523D-04 -0.49284806D-04  0.87298183D-04 -0.38013377D-04
  0.23657372D-03 -0.31452939D-03  0.18159665D-03 -0.47793104D-04  0.30866228D-04
  0.16926876D-04  0.13624540D-03 -0.19969485D-03  0.11529394D-03
MO    3     MO 0.0        OCC NO =    2.0000000  ORB. ENERGY =  -48.231864
 -0.13832805D-09 -0.25854730D-09 -0.44756759D-09 -0.73309029D-09 -0.11473105D-08
 -0.17204518D-08 -0.24467827D-08 -0.32127519D-08 -0.36596586D-08 -0.32105267D-08
 -0.17085779D-08 -0.36896590D-09 -0.13868619D-10 -0.33118639D-12  0.87913234D-13
 -0.78691801D-14  0.63750066D-14  0.37942438D-15  0.11955377D-08  0.22611673D-08
  0.39103238D-08  0.64045660D-08  0.10073680D-07  0.15194203D-07  0.22101217D-07
  0.30246384D-07  0.38112248D-07  0.40451766D-07  0.30947073D-07  0.48719802D-08
 -0.20297354D-07 -0.16208862D-07 -0.27411854D-08 -0.54086878D-10 -0.85817970D-11
 -0.26162461D-12 -0.38449112D-09 -0.74042496D-09 -0.12846271D-08 -0.21061886D-08
 -0.33150876D-08 -0.50013184D-08 -0.72998259D-08 -0.10035335D-07 -0.12820148D-07
 -0.13945509D-07 -0.11253345D-07 -0.19005302D-08  0.10047512D-07  0.12096015D-07
  0.75792815D-09 -0.53320421D-08 -0.21526901D-08  0.10602381D-10  0.18444494D-09
  0.39958943D-09  0.68025308D-09  0.11133170D-08  0.17521355D-08  0.26439370D-08
  0.38592758D-08  0.53112720D-08  0.67945623D-08  0.74229906D-08  0.60273980D-08
  0.10410849D-08 -0.56539402D-08 -0.71869123D-08 -0.37179570D-09  0.41186555D-08
  0.30680664D-08 -0.11885965D-08  0.65107314D-09 -0.63970273D-10  0.13865683D-09
  0.94281431D-05  0.13500539D-04  0.17792781D-04  0.20382178D-04  0.18651965D-04
  0.11846477D-04  0.40582992D-05  0.44589019D-06  0.52564019D-08  0.10131289D-08
  0.10442543D-10  0.45182915D+02  0.64699244D+02  0.85269145D+02  0.97678429D+02
  0.89386655D+02  0.56772405D+02  0.19448770D+02  0.21368597D+01  0.25190492D-01
  0.48552631D-02  0.50044269D-04  0.43670312D-03  0.62533286D-03  0.82414563D-03
  0.94408416D-03  0.86394228D-03  0.54871817D-03  0.18797677D-03  0.20653233D-04
  0.24347182D-06  0.46927219D-07  0.48368921D-09 -0.49395712D-08 -0.71217335D-08
 -0.94635719D-08 -0.11165138D-07 -0.10665724D-07 -0.72788220D-08 -0.22568689D-08
  0.11227736D-08  0.11266007D-08  0.28379497D-09 -0.32975496D-12 -0.23672067D-01
 -0.34129715D-01 -0.45352583D-01 -0.53507052D-01 -0.51113698D-01 -0.34882535D-01
 -0.10815666D-01  0.53807043D-02  0.53990452D-02  0.13600398D-02 -0.15802954D-05
 -0.27294506D-06 -0.39352444D-06 -0.52292702D-06 -0.61695016D-06 -0.58935417D-06
 -0.40220466D-06 -0.12470743D-06  0.62040913D-07  0.62252388D-07  0.15681611D-07
 -0.18221215D-10  0.42861293D-08  0.61961688D-08  0.82327475D-08  0.97558936D-08
  0.93556012D-08  0.64566827D-08  0.19525938D-08 -0.12228414D-08 -0.12370346D-08
 -0.35851409D-09  0.13948372D-09  0.20540569D-01  0.29694119D-01  0.39454088D-01
  0.46753515D-01  0.44835179D-01  0.30942589D-01  0.93574845D-02 -0.58602661D-02
 -0.59282848D-02 -0.17181198D-02  0.66845278D-03  0.23037491D-06  0.33303751D-06
  0.44250145D-06  0.52436895D-06  0.50285365D-06  0.34703986D-06  0.10494985D-06
 -0.65726428D-07 -0.66489300D-07 -0.19269753D-07  0.74971022D-08 -0.31876187D-09
 -0.15276155D-02 -0.15523792D-07  0.32359980D-10  0.15508004D-03  0.13871821D-08
  0.72484023D-12  0.34737064D-05  0.26277761D-10  0.57884578D-05  0.59123027D-05
  0.48412139D-05  0.30493801D-05  0.13280994D-05  0.37606612D-06  0.62638448D-07
 -0.56990919D-05 -0.58210249D-05 -0.47664722D-05 -0.30023019D-05 -0.13075954D-05
 -0.37026018D-06 -0.61671397D-07 -0.89365807D-07 -0.91277802D-07 -0.74741667D-07
 -0.47078224D-07 -0.20504024D-07 -0.58059424D-08 -0.96705128D-09  0.24413729D-11
  0.24936064D-11  0.20418579D-11  0.12861239D-11  0.56014677D-12  0.15861179D-12
  0.26418748D-13 -0.15486664D-08 -0.15818004D-08 -0.12952371D-08 -0.81584298D-09
 -0.35532487D-09 -0.10061419D-09 -0.16758533D-10 -0.74217677D-02 -0.75805576D-02
 -0.62072432D-02 -0.39098136D-02 -0.17028448D-02 -0.48217945D-03 -0.80312932D-04
 -0.31601613D-04  0.31600217D-04  0.13965798D-08 -0.13188474D-10  0.27598339D-10
  0.13226190D-03  0.69153139D-04 -0.69150246D-04 -0.28927161D-08  0.28859916D-10
 -0.59377422D-10 -0.28455844D-03  0.41874796D-05 -0.41873296D-05 -0.14999445D-09
  0.17475796D-11 -0.36666570D-11 -0.17572046D-04 -0.11393015D-11 -0.54603462D-05
  0.16633099D-09 -0.11391819D-11 -0.54591020D-05 -0.46930150D-04  0.45570863D-11
  0.21840141D-04  0.46929651D-04 -0.19585321D-10 -0.14127701D-11 -0.67706616D-05
  0.26380377D-09 -0.14127331D-11 -0.67703047D-05 -0.20079717D-04  0.56510434D-11
  0.27082289D-04  0.20078926D-04 -0.83798878D-11 -0.20896593D-04 -0.37687866D-04
 -0.55570736D-04  0.54197148D-03  0.44246018D-03  0.21554021D-04  0.21314053D-10
 -0.79690927D-04 -0.51488510D-04 -0.20704909D-10  0.24891659D-03  0.13611677D-03
 -0.60821143D-11  0.48769014D-04  0.44716029D-04  0.69081408D-04 -0.42533984D-04
 -0.26547423D-04  0.16595202D-11  0.83945881D-11 -0.22568180D-03  0.63547928D-05
 -0.18379615D-04  0.12024822D-04 -0.15414901D-10  0.14085202D-11  0.37257030D-05
  0.10448191D-04  0.18843743D-04  0.27785089D-04 -0.27098460D-03 -0.22123032D-03
 -0.10777047D-04 -0.78736298D-04  0.56684865D-04  0.25744470D-04  0.15074872D-03
 -0.12188530D-04 -0.68057278D-04  0.33739114D-04 -0.96682243D-05 -0.22357741D-04
  0.10299723D-04 -0.23571430D-04  0.13271707D-04  0.44887414D-04 -0.11514223D-03
 -0.26247796D-04 -0.21604354D-04  0.27616637D-04 -0.60122829D-05  0.42698968D-04
 -0.13093893D-05  0.59954526D-05  0.10448184D-04  0.18843730D-04  0.27785069D-04
 -0.27098441D-03 -0.22123016D-03 -0.10777039D-04  0.78736284D-04  0.56684898D-04
  0.25744451D-04 -0.15074866D-03 -0.12188593D-04 -0.68057229D-04 -0.33739102D-04
 -0.96682384D-05 -0.22357725D-04  0.10299719D-04 -0.23571416D-04  0.13271698D-04
 -0.44887378D-04  0.11514216D-03 -0.26247748D-04 -0.21604365D-04  0.27616644D-04
 -0.60122785D-05 -0.42698968D-04  0.13093912D-05  0.59954531D-05
MO    4     MO 0.0        OCC NO =    2.0000000  ORB. ENERGY =  -48.231864
 -0.37788167D-18 -0.70629410D-18 -0.12226558D-17 -0.20026407D-17 -0.31341987D-17
 -0.46998941D-17 -0.66840697D-17 -0.87765282D-17 -0.99973786D-17 -0.87704496D-17
 -0.46674572D-17 -0.10079333D-17 -0.37886002D-19 -0.90472803D-21  0.24015953D-21
 -0.21496861D-22  0.17415109D-22  0.10365036D-23 -0.11224038D-15 -0.21228462D-15
 -0.36711199D-15 -0.60127833D-15 -0.94574484D-15 -0.14264737D-14 -0.20749232D-14
 -0.28396140D-14 -0.35780830D-14 -0.37977235D-14 -0.29053966D-14 -0.45739495D-15
  0.19055716D-14  0.15217327D-14  0.25735005D-15  0.50778253D-17  0.80568279D-18
  0.24562040D-19 -0.50752542D-17 -0.97735544D-17 -0.16956981D-16 -0.27801533D-16
 -0.43758910D-16 -0.66017030D-16 -0.96357158D-16 -0.13246568D-15 -0.16922500D-15
 -0.18407968D-15 -0.14854332D-15 -0.25086858D-16  0.13262641D-15  0.15966650D-15
  0.10004595D-16 -0.70382558D-16 -0.28415348D-16  0.13995064D-18  0.86855512D-17
  0.18816751D-16  0.32033262D-16  0.52426334D-16  0.82508431D-16  0.12450356D-15
  0.18173412D-15  0.25010892D-15  0.31995738D-15  0.34955020D-15  0.28383145D-15
  0.49024907D-16 -0.26624524D-15 -0.33843323D-15 -0.17507938D-16  0.19394836D-15
  0.14447590D-15 -0.55971264D-16 -0.38024662D-15  0.68528775D-15  0.66143671D-17
  0.45182915D+02  0.64699244D+02  0.85269146D+02  0.97678429D+02  0.89386655D+02
  0.56772405D+02  0.19448770D+02  0.21368597D+01  0.25190492D-01  0.48552631D-02
  0.50044270D-04 -0.94281431D-05 -0.13500539D-04 -0.17792781D-04 -0.20382178D-04
 -0.18651965D-04 -0.11846477D-04 -0.40582992D-05 -0.44589019D-06 -0.52564019D-08
 -0.10131289D-08 -0.10442543D-10 -0.10408102D-09 -0.14903783D-09 -0.19642159D-09
 -0.22500697D-09 -0.20590647D-09 -0.13077797D-09 -0.44801180D-10 -0.49223593D-11
 -0.58027513D-13 -0.11184333D-13 -0.11527939D-15 -0.23672135D-01 -0.34129813D-01
 -0.45352713D-01 -0.53507206D-01 -0.51113845D-01 -0.34882635D-01 -0.10815697D-01
  0.53807197D-02  0.53990607D-02  0.13600438D-02 -0.15803000D-05  0.49395727D-08
  0.71217357D-08  0.94635748D-08  0.11165141D-07  0.10665728D-07  0.72788242D-08
  0.22568696D-08 -0.11227739D-08 -0.11266011D-08 -0.28379506D-09  0.32975507D-12
  0.47467238D-13  0.68436916D-13  0.90941015D-13  0.10729236D-12  0.10249320D-12
  0.69946471D-13  0.21687578D-13 -0.10789390D-13 -0.10826167D-13 -0.27271524D-14
  0.31688089D-17  0.20540616D-01  0.29694187D-01  0.39454177D-01  0.46753621D-01
  0.44835281D-01  0.30942660D-01  0.93575058D-02 -0.58602794D-02 -0.59282983D-02
 -0.17181237D-02  0.66845430D-03 -0.42861329D-08 -0.61961741D-08 -0.82327545D-08
 -0.97559019D-08 -0.93556092D-08 -0.64566882D-08 -0.19525955D-08  0.12228424D-08
  0.12370357D-08  0.35851440D-09 -0.13948384D-09 -0.44123827D-13 -0.63786848D-13
 -0.84752535D-13 -0.10043266D-12 -0.96311823D-13 -0.66468725D-13 -0.20101099D-13
  0.12588617D-13  0.12734730D-13  0.36907458D-14 -0.14359239D-14 -0.15276170D-02
  0.31876154D-09  0.34010924D-14  0.15508022D-03 -0.32360024D-10 -0.53440818D-15
  0.34736847D-05 -0.72484403D-12  0.10506676D-16 -0.12042664D-11 -0.12300319D-11
 -0.10071959D-11 -0.63441181D-12 -0.27630598D-12 -0.78239110D-13 -0.13031688D-13
  0.11871665D-11  0.12125661D-11  0.99289435D-12  0.62540354D-12  0.27238260D-12
  0.77128161D-13  0.12846646D-13  0.17099868D-13  0.17465722D-13  0.14301585D-13
  0.90082712D-14  0.39233809D-14  0.11109489D-14  0.18504224D-15  0.11698252D-04
  0.11948538D-04  0.97839086D-05  0.61626809D-05  0.26840383D-05  0.76001528D-06
  0.12658991D-06 -0.74217462D-02 -0.75805356D-02 -0.62072252D-02 -0.39098023D-02
 -0.17028399D-02 -0.48217805D-03 -0.80312699D-04  0.15486646D-08  0.15817985D-08
  0.12952356D-08  0.81584199D-09  0.35532444D-09  0.10061407D-09  0.16758513D-10
  0.65940318D-11 -0.65937342D-11 -0.29757090D-15 -0.63203764D-04  0.13226090D-03
 -0.27598187D-10 -0.14429964D-10  0.14429348D-10  0.61630637D-15  0.13830677D-03
 -0.28455706D-03  0.59377861D-10 -0.87378791D-12  0.87375150D-12  0.36405327D-16
  0.83750219D-05 -0.17571883D-04  0.36666974D-11 -0.54599056D-05  0.11394232D-11
 -0.66818366D-16 -0.54593377D-05  0.11390893D-11  0.97929029D-11  0.21839055D-04