 Molden2AIM, Version 4.0.0 (06/02/2016)           Time: Fri Jun 29 16:36:00 2018
GAUSSIAN             21 MOL ORBITALS    612 PRIMITIVES       12 NUCLEI
  N    1    (CENTRE  1)  -4.56813701  3.78905962  0.30055338  CHARGE =  7.0
  B    2    (CENTRE  2)  -3.72915719  1.22616391  0.15936249  CHARGE =  5.0
  N    3    (CENTRE  3)  -1.07481386  0.81364804 -0.11634288  CHARGE =  7.0
  B    4    (CENTRE  4)   0.71598510  2.83041856 -0.25098020  CHARGE =  5.0
  N    5    (CENTRE  5)  -0.25016572  5.34740148 -0.09650831  CHARGE =  7.0
  B    6    (CENTRE  6)  -2.88017505  5.89352288  0.18023452  CHARGE =  5.0
  H    7    (CENTRE  7)  -6.43497855  4.12777791  0.49495518  CHARGE =  1.0
  H    8    (CENTRE  8)   0.97907655  6.80290066 -0.18675029  CHARGE =  1.0
  H    9    (CENTRE  9)  -0.43670815 -0.98064881 -0.22116977  CHARGE =  1.0
  H   10    (CENTRE 10)  -5.19394438 -0.50869160  0.26756254  CHARGE =  1.0
  H   11    (CENTRE 11)  -3.64052525  8.03202389  0.30554226  CHARGE =  1.0
  H   12    (CENTRE 12)   2.94083526  2.42677684 -0.48372453  CHARGE =  1.0
CENTRE ASSIGNMENTS    1  1  1  1  1  1  1  1  1  1  1  1  1  1  1  1  1  1  1  1
CENTRE ASSIGNMENTS    1  1  1  1  1  1  1  1  1  1  1  1  1  1  1  1  1  1  1  1
CENTRE ASSIGNMENTS    1  1  1  1  1  1  1  1  1  1  1  1  1  1  1  1  1  1  1  1
CENTRE ASSIGNMENTS    1  1  1  1  1  1  1  1  1  1  1  1  1  1  1  2  2  2  2  2
CENTRE ASSIGNMENTS    2  2  2  2  2  2  2  2  2  2  2  2  2  2  2  2  2  2  2  2
CENTRE ASSIGNMENTS    2  2  2  2  2  2  2  2  2  2  2  2  2  2  2  2  2  2  2  2
CENTRE ASSIGNMENTS    2  2  2  2  2  2  2  2  2  2  2  2  2  2  2  2  2  2  2  2
CENTRE ASSIGNMENTS    2  2  2  2  2  2  2  2  2  2  3  3  3  3  3  3  3  3  3  3
CENTRE ASSIGNMENTS    3  3  3  3  3  3  3  3  3  3  3  3  3  3  3  3  3  3  3  3
CENTRE ASSIGNMENTS    3  3  3  3  3  3  3  3  3  3  3  3  3  3  3  3  3  3  3  3
CENTRE ASSIGNMENTS    3  3  3  3  3  3  3  3  3  3  3  3  3  3  3  3  3  3  3  3
CENTRE ASSIGNMENTS    3  3  3  3  3  4  4  4  4  4  4  4  4  4  4  4  4  4  4  4
CENTRE ASSIGNMENTS    4  4  4  4  4  4  4  4  4  4  4  4  4  4  4  4  4  4  4  4
CENTRE ASSIGNMENTS    4  4  4  4  4  4  4  4  4  4  4  4  4  4  4  4  4  4  4  4
CENTRE ASSIGNMENTS    4  4  4  4  4  4  4  4  4  4  4  4  4  4  4  4  4  4  4  4
CENTRE ASSIGNMENTS    5  5  5  5  5  5  5  5  5  5  5  5  5  5  5  5  5  5  5  5
CENTRE ASSIGNMENTS    5  5  5  5  5  5  5  5  5  5  5  5  5  5  5  5  5  5  5  5
CENTRE ASSIGNMENTS    5  5  5  5  5  5  5  5  5  5  5  5  5  5  5  5  5  5  5  5
CENTRE ASSIGNMENTS    5  5  5  5  5  5  5  5  5  5  5  5  5  5  5  6  6  6  6  6
CENTRE ASSIGNMENTS    6  6  6  6  6  6  6  6  6  6  6  6  6  6  6  6  6  6  6  6
CENTRE ASSIGNMENTS    6  6  6  6  6  6  6  6  6  6  6  6  6  6  6  6  6  6  6  6
CENTRE ASSIGNMENTS    6  6  6  6  6  6  6  6  6  6  6  6  6  6  6  6  6  6  6  6
CENTRE ASSIGNMENTS    6  6  6  6  6  6  6  6  6  6  7  7  7  7  7  7  7  7  7  7
CENTRE ASSIGNMENTS    7  7  7  7  7  7  7  7  7  7  7  7  7  7  7  7  7  8  8  8
CENTRE ASSIGNMENTS    8  8  8  8  8  8  8  8  8  8  8  8  8  8  8  8  8  8  8  8
CENTRE ASSIGNMENTS    8  8  8  8  9  9  9  9  9  9  9  9  9  9  9  9  9  9  9  9
CENTRE ASSIGNMENTS    9  9  9  9  9  9  9  9  9  9  9 10 10 10 10 10 10 10 10 10
CENTRE ASSIGNMENTS   10 10 10 10 10 10 10 10 10 10 10 10 10 10 10 10 10 10 11 11
CENTRE ASSIGNMENTS   11 11 11 11 11 11 11 11 11 11 11 11 11 11 11 11 11 11 11 11
CENTRE ASSIGNMENTS   11 11 11 11 11 12 12 12 12 12 12 12 12 12 12 12 12 12 12 12
CENTRE ASSIGNMENTS   12 12 12 12 12 12 12 12 12 12 12 12
TYPE ASSIGNMENTS      1  1  1  1  1  1  1  1  1  1  1  1  1  1  1  1  1  1  1  2
TYPE ASSIGNMENTS      2  2  3  3  3  4  4  4  2  3  4  2  3  4  2  3  4  5  6  7
TYPE ASSIGNMENTS      8  9 10  5  6  7  8  9 10  5  6  7  8  9 10 11 12 13 17 14
TYPE ASSIGNMENTS     15 18 19 16 20 11 12 13 17 14 15 18 19 16 20  1  1  1  1  1
TYPE ASSIGNMENTS      1  1  1  1  1  1  1  1  1  1  1  1  1  1  2  2  2  3  3  3
TYPE ASSIGNMENTS      4  4  4  2  3  4  2  3  4  2  3  4  5  6  7  8  9 10  5  6
TYPE ASSIGNMENTS      7  8  9 10  5  6  7  8  9 10 11 12 13 17 14 15 18 19 16 20
TYPE ASSIGNMENTS     11 12 13 17 14 15 18 19 16 20  1  1  1  1  1  1  1  1  1  1
TYPE ASSIGNMENTS      1  1  1  1  1  1  1  1  1  2  2  2  3  3  3  4  4  4  2  3
TYPE ASSIGNMENTS      4  2  3  4  2  3  4  5  6  7  8  9 10  5  6  7  8  9 10  5
TYPE ASSIGNMENTS      6  7  8  9 10 11 12 13 17 14 15 18 19 16 20 11 12 13 17 14
TYPE ASSIGNMENTS     15 18 19 16 20  1  1  1  1  1  1  1  1  1  1  1  1  1  1  1
TYPE ASSIGNMENTS      1  1  1  1  2  2  2  3  3  3  4  4  4  2  3  4  2  3  4  2
TYPE ASSIGNMENTS      3  4  5  6  7  8  9 10  5  6  7  8  9 10  5  6  7  8  9 10
TYPE ASSIGNMENTS     11 12 13 17 14 15 18 19 16 20 11 12 13 17 14 15 18 19 16 20
TYPE ASSIGNMENTS      1  1  1  1  1  1  1  1  1  1  1  1  1  1  1  1  1  1  1  2
TYPE ASSIGNMENTS      2  2  3  3  3  4  4  4  2  3  4  2  3  4  2  3  4  5  6  7
TYPE ASSIGNMENTS      8  9 10  5  6  7  8  9 10  5  6  7  8  9 10 11 12 13 17 14
TYPE ASSIGNMENTS     15 18 19 16 20 11 12 13 17 14 15 18 19 16 20  1  1  1  1  1
TYPE ASSIGNMENTS      1  1  1  1  1  1  1  1  1  1  1  1  1  1  2  2  2  3  3  3
TYPE ASSIGNMENTS      4  4  4  2  3  4  2  3  4  2  3  4  5  6  7  8  9 10  5  6
TYPE ASSIGNMENTS      7  8  9 10  5  6  7  8  9 10 11 12 13 17 14 15 18 19 16 20
TYPE ASSIGNMENTS     11 12 13 17 14 15 18 19 16 20  1  1  1  1  1  1  2  3  4  2
TYPE ASSIGNMENTS      3  4  2  3  4  5  6  7  8  9 10  5  6  7  8  9 10  1  1  1
TYPE ASSIGNMENTS      1  1  1  2  3  4  2  3  4  2  3  4  5  6  7  8  9 10  5  6
TYPE ASSIGNMENTS      7  8  9 10  1  1  1  1  1  1  2  3  4  2  3  4  2  3  4  5
TYPE ASSIGNMENTS      6  7  8  9 10  5  6  7  8  9 10  1  1  1  1  1  1  2  3  4
TYPE ASSIGNMENTS      2  3  4  2  3  4  5  6  7  8  9 10  5  6  7  8  9 10  1  1
TYPE ASSIGNMENTS      1  1  1  1  2  3  4  2  3  4  2  3  4  5  6  7  8  9 10  5
TYPE ASSIGNMENTS      6  7  8  9 10  1  1  1  1  1  1  2  3  4  2  3  4  2  3  4
TYPE ASSIGNMENTS      5  6  7  8  9 10  5  6  7  8  9 10
EXPONENTS  0.1142000D+05 0.1712000D+04 0.3893000D+03 0.1100000D+03 0.3557000D+02
EXPONENTS  0.1254000D+02 0.4644000D+01 0.5118000D+00 0.1142000D+05 0.1712000D+04
EXPONENTS  0.3893000D+03 0.1100000D+03 0.3557000D+02 0.1254000D+02 0.4644000D+01
EXPONENTS  0.5118000D+00 0.1293000D+01 0.1787000D+00 0.5760000D-01 0.2663000D+02
EXPONENTS  0.5948000D+01 0.1742000D+01 0.2663000D+02 0.5948000D+01 0.1742000D+01
EXPONENTS  0.2663000D+02 0.5948000D+01 0.1742000D+01 0.5550000D+00 0.5550000D+00
EXPONENTS  0.5550000D+00 0.1725000D+00 0.1725000D+00 0.1725000D+00 0.4910000D-01
EXPONENTS  0.4910000D-01 0.4910000D-01 0.1654000D+01 0.1654000D+01 0.1654000D+01
EXPONENTS  0.1654000D+01 0.1654000D+01 0.1654000D+01 0.4690000D+00 0.4690000D+00
EXPONENTS  0.4690000D+00 0.4690000D+00 0.4690000D+00 0.4690000D+00 0.1510000D+00
EXPONENTS  0.1510000D+00 0.1510000D+00 0.1510000D+00 0.1510000D+00 0.1510000D+00
EXPONENTS  0.1093000D+01 0.1093000D+01 0.1093000D+01 0.1093000D+01 0.1093000D+01
EXPONENTS  0.1093000D+01 0.1093000D+01 0.1093000D+01 0.1093000D+01 0.1093000D+01
EXPONENTS  0.3640000D+00 0.3640000D+00 0.3640000D+00 0.3640000D+00 0.3640000D+00
EXPONENTS  0.3640000D+00 0.3640000D+00 0.3640000D+00 0.3640000D+00 0.3640000D+00
EXPONENTS  0.5473000D+04 0.8209000D+03 0.1868000D+03 0.5283000D+02 0.1708000D+02
EXPONENTS  0.5999000D+01 0.2208000D+01 0.2415000D+00 0.5473000D+04 0.8209000D+03
EXPONENTS  0.1868000D+03 0.5283000D+02 0.1708000D+02 0.5999000D+01 0.2208000D+01
EXPONENTS  0.2415000D+00 0.5879000D+00 0.8610000D-01 0.2914000D-01 0.1205000D+02
EXPONENTS  0.2613000D+01 0.7475000D+00 0.1205000D+02 0.2613000D+01 0.7475000D+00
EXPONENTS  0.1205000D+02 0.2613000D+01 0.7475000D+00 0.2385000D+00 0.2385000D+00
EXPONENTS  0.2385000D+00 0.7698000D-01 0.7698000D-01 0.7698000D-01 0.2096000D-01
EXPONENTS  0.2096000D-01 0.2096000D-01 0.6610000D+00 0.6610000D+00 0.6610000D+00
EXPONENTS  0.6610000D+00 0.6610000D+00 0.6610000D+00 0.1990000D+00 0.1990000D+00
EXPONENTS  0.1990000D+00 0.1990000D+00 0.1990000D+00 0.1990000D+00 0.6040000D-01
EXPONENTS  0.6040000D-01 0.6040000D-01 0.6040000D-01 0.6040000D-01 0.6040000D-01
EXPONENTS  0.4900000D+00 0.4900000D+00 0.4900000D+00 0.4900000D+00 0.4900000D+00
EXPONENTS  0.4900000D+00 0.4900000D+00 0.4900000D+00 0.4900000D+00 0.4900000D+00
EXPONENTS  0.1630000D+00 0.1630000D+00 0.1630000D+00 0.1630000D+00 0.1630000D+00
EXPONENTS  0.1630000D+00 0.1630000D+00 0.1630000D+00 0.1630000D+00 0.1630000D+00
EXPONENTS  0.1142000D+05 0.1712000D+04 0.3893000D+03 0.1100000D+03 0.3557000D+02
EXPONENTS  0.1254000D+02 0.4644000D+01 0.5118000D+00 0.1142000D+05 0.1712000D+04
EXPONENTS  0.3893000D+03 0.1100000D+03 0.3557000D+02 0.1254000D+02 0.4644000D+01
EXPONENTS  0.5118000D+00 0.1293000D+01 0.1787000D+00 0.5760000D-01 0.2663000D+02
EXPONENTS  0.5948000D+01 0.1742000D+01 0.2663000D+02 0.5948000D+01 0.1742000D+01
EXPONENTS  0.2663000D+02 0.5948000D+01 0.1742000D+01 0.5550000D+00 0.5550000D+00
EXPONENTS  0.5550000D+00 0.1725000D+00 0.1725000D+00 0.1725000D+00 0.4910000D-01
EXPONENTS  0.4910000D-01 0.4910000D-01 0.1654000D+01 0.1654000D+01 0.1654000D+01
EXPONENTS  0.1654000D+01 0.1654000D+01 0.1654000D+01 0.4690000D+00 0.4690000D+00
EXPONENTS  0.4690000D+00 0.4690000D+00 0.4690000D+00 0.4690000D+00 0.1510000D+00
EXPONENTS  0.1510000D+00 0.1510000D+00 0.1510000D+00 0.1510000D+00 0.1510000D+00
EXPONENTS  0.1093000D+01 0.1093000D+01 0.1093000D+01 0.1093000D+01 0.1093000D+01
EXPONENTS  0.1093000D+01 0.1093000D+01 0.1093000D+01 0.1093000D+01 0.1093000D+01
EXPONENTS  0.3640000D+00 0.3640000D+00 0.3640000D+00 0.3640000D+00 0.3640000D+00
EXPONENTS  0.3640000D+00 0.3640000D+00 0.3640000D+00 0.3640000D+00 0.3640000D+00
EXPONENTS  0.5473000D+04 0.8209000D+03 0.1868000D+03 0.5283000D+02 0.1708000D+02
EXPONENTS  0.5999000D+01 0.2208000D+01 0.2415000D+00 0.5473000D+04 0.8209000D+03
EXPONENTS  0.1868000D+03 0.5283000D+02 0.1708000D+02 0.5999000D+01 0.2208000D+01
EXPONENTS  0.2415000D+00 0.5879000D+00 0.8610000D-01 0.2914000D-01 0.1205000D+02
EXPONENTS  0.2613000D+01 0.7475000D+00 0.1205000D+02 0.2613000D+01 0.7475000D+00
EXPONENTS  0.1205000D+02 0.2613000D+01 0.7475000D+00 0.2385000D+00 0.2385000D+00
EXPONENTS  0.2385000D+00 0.7698000D-01 0.7698000D-01 0.7698000D-01 0.2096000D-01
EXPONENTS  0.2096000D-01 0.2096000D-01 0.6610000D+00 0.6610000D+00 0.6610000D+00
EXPONENTS  0.6610000D+00 0.6610000D+00 0.6610000D+00 0.1990000D+00 0.1990000D+00
EXPONENTS  0.1990000D+00 0.1990000D+00 0.1990000D+00 0.1990000D+00 0.6040000D-01
EXPONENTS  0.6040000D-01 0.6040000D-01 0.6040000D-01 0.6040000D-01 0.6040000D-01
EXPONENTS  0.4900000D+00 0.4900000D+00 0.4900000D+00 0.4900000D+00 0.4900000D+00
EXPONENTS  0.4900000D+00 0.4900000D+00 0.4900000D+00 0.4900000D+00 0.4900000D+00
EXPONENTS  0.1630000D+00 0.1630000D+00 0.1630000D+00 0.1630000D+00 0.1630000D+00
EXPONENTS  0.1630000D+00 0.1630000D+00 0.1630000D+00 0.1630000D+00 0.1630000D+00
EXPONENTS  0.1142000D+05 0.1712000D+04 0.3893000D+03 0.1100000D+03 0.3557000D+02
EXPONENTS  0.1254000D+02 0.4644000D+01 0.5118000D+00 0.1142000D+05 0.1712000D+04
EXPONENTS  0.3893000D+03 0.1100000D+03 0.3557000D+02 0.1254000D+02 0.4644000D+01
EXPONENTS  0.5118000D+00 0.1293000D+01 0.1787000D+00 0.5760000D-01 0.2663000D+02
EXPONENTS  0.5948000D+01 0.1742000D+01 0.2663000D+02 0.5948000D+01 0.1742000D+01
EXPONENTS  0.2663000D+02 0.5948000D+01 0.1742000D+01 0.5550000D+00 0.5550000D+00
EXPONENTS  0.5550000D+00 0.1725000D+00 0.1725000D+00 0.1725000D+00 0.4910000D-01
EXPONENTS  0.4910000D-01 0.4910000D-01 0.1654000D+01 0.1654000D+01 0.1654000D+01
EXPONENTS  0.1654000D+01 0.1654000D+01 0.1654000D+01 0.4690000D+00 0.4690000D+00
EXPONENTS  0.4690000D+00 0.4690000D+00 0.4690000D+00 0.4690000D+00 0.1510000D+00
EXPONENTS  0.1510000D+00 0.1510000D+00 0.1510000D+00 0.1510000D+00 0.1510000D+00
EXPONENTS  0.1093000D+01 0.1093000D+01 0.1093000D+01 0.1093000D+01 0.1093000D+01
EXPONENTS  0.1093000D+01 0.1093000D+01 0.1093000D+01 0.1093000D+01 0.1093000D+01
EXPONENTS  0.3640000D+00 0.3640000D+00 0.3640000D+00 0.3640000D+00 0.3640000D+00
EXPONENTS  0.3640000D+00 0.3640000D+00 0.3640000D+00 0.3640000D+00 0.3640000D+00
EXPONENTS  0.5473000D+04 0.8209000D+03 0.1868000D+03 0.5283000D+02 0.1708000D+02
EXPONENTS  0.5999000D+01 0.2208000D+01 0.2415000D+00 0.5473000D+04 0.8209000D+03
EXPONENTS  0.1868000D+03 0.5283000D+02 0.1708000D+02 0.5999000D+01 0.2208000D+01
EXPONENTS  0.2415000D+00 0.5879000D+00 0.8610000D-01 0.2914000D-01 0.1205000D+02
EXPONENTS  0.2613000D+01 0.7475000D+00 0.1205000D+02 0.2613000D+01 0.7475000D+00
EXPONENTS  0.1205000D+02 0.2613000D+01 0.7475000D+00 0.2385000D+00 0.2385000D+00
EXPONENTS  0.2385000D+00 0.7698000D-01 0.7698000D-01 0.7698000D-01 0.2096000D-01
EXPONENTS  0.2096000D-01 0.2096000D-01 0.6610000D+00 0.6610000D+00 0.6610000D+00
EXPONENTS  0.6610000D+00 0.6610000D+00 0.6610000D+00 0.1990000D+00 0.1990000D+00
EXPONENTS  0.1990000D+00 0.1990000D+00 0.1990000D+00 0.1990000D+00 0.6040000D-01
EXPONENTS  0.6040000D-01 0.6040000D-01 0.6040000D-01 0.6040000D-01 0.6040000D-01
EXPONENTS  0.4900000D+00 0.4900000D+00 0.4900000D+00 0.4900000D+00 0.4900000D+00
EXPONENTS  0.4900000D+00 0.4900000D+00 0.4900000D+00 0.4900000D+00 0.4900000D+00
EXPONENTS  0.1630000D+00 0.1630000D+00 0.1630000D+00 0.1630000D+00 0.1630000D+00
EXPONENTS  0.1630000D+00 0.1630000D+00 0.1630000D+00 0.1630000D+00 0.1630000D+00
EXPONENTS  0.3387000D+02 0.5095000D+01 0.1159000D+01 0.3258000D+00 0.1027000D+00
EXPONENTS  0.2526000D-01 0.1407000D+01 0.1407000D+01 0.1407000D+01 0.3880000D+00
EXPONENTS  0.3880000D+00 0.3880000D+00 0.1020000D+00 0.1020000D+00 0.1020000D+00
EXPONENTS  0.1057000D+01 0.1057000D+01 0.1057000D+01 0.1057000D+01 0.1057000D+01
EXPONENTS  0.1057000D+01 0.2470000D+00 0.2470000D+00 0.2470000D+00 0.2470000D+00
EXPONENTS  0.2470000D+00 0.2470000D+00 0.3387000D+02 0.5095000D+01 0.1159000D+01
EXPONENTS  0.3258000D+00 0.1027000D+00 0.2526000D-01 0.1407000D+01 0.1407000D+01
EXPONENTS  0.1407000D+01 0.3880000D+00 0.3880000D+00 0.3880000D+00 0.1020000D+00
EXPONENTS  0.1020000D+00 0.1020000D+00 0.1057000D+01 0.1057000D+01 0.1057000D+01
EXPONENTS  0.1057000D+01 0.1057000D+01 0.1057000D+01 0.2470000D+00 0.2470000D+00
EXPONENTS  0.2470000D+00 0.2470000D+00 0.2470000D+00 0.2470000D+00 0.3387000D+02
EXPONENTS  0.5095000D+01 0.1159000D+01 0.3258000D+00 0.1027000D+00 0.2526000D-01
EXPONENTS  0.1407000D+01 0.1407000D+01 0.1407000D+01 0.3880000D+00 0.3880000D+00
EXPONENTS  0.3880000D+00 0.1020000D+00 0.1020000D+00 0.1020000D+00 0.1057000D+01
EXPONENTS  0.1057000D+01 0.1057000D+01 0.1057000D+01 0.1057000D+01 0.1057000D+01
EXPONENTS  0.2470000D+00 0.2470000D+00 0.2470000D+00 0.2470000D+00 0.2470000D+00
EXPONENTS  0.2470000D+00 0.3387000D+02 0.5095000D+01 0.1159000D+01 0.3258000D+00
EXPONENTS  0.1027000D+00 0.2526000D-01 0.1407000D+01 0.1407000D+01 0.1407000D+01
EXPONENTS  0.3880000D+00 0.3880000D+00 0.3880000D+00 0.1020000D+00 0.1020000D+00
EXPONENTS  0.1020000D+00 0.1057000D+01 0.1057000D+01 0.1057000D+01 0.1057000D+01
EXPONENTS  0.1057000D+01 0.1057000D+01 0.2470000D+00 0.2470000D+00 0.2470000D+00
EXPONENTS  0.2470000D+00 0.2470000D+00 0.2470000D+00 0.3387000D+02 0.5095000D+01
EXPONENTS  0.1159000D+01 0.3258000D+00 0.1027000D+00 0.2526000D-01 0.1407000D+01
EXPONENTS  0.1407000D+01 0.1407000D+01 0.3880000D+00 0.3880000D+00 0.3880000D+00
EXPONENTS  0.1020000D+00 0.1020000D+00 0.1020000D+00 0.1057000D+01 0.1057000D+01
EXPONENTS  0.1057000D+01 0.1057000D+01 0.1057000D+01 0.1057000D+01 0.2470000D+00
EXPONENTS  0.2470000D+00 0.2470000D+00 0.2470000D+00 0.2470000D+00 0.2470000D+00
EXPONENTS  0.3387000D+02 0.5095000D+01 0.1159000D+01 0.3258000D+00 0.1027000D+00
EXPONENTS  0.2526000D-01 0.1407000D+01 0.1407000D+01 0.1407000D+01 0.3880000D+00
EXPONENTS  0.3880000D+00 0.3880000D+00 0.1020000D+00 0.1020000D+00 0.1020000D+00
EXPONENTS  0.1057000D+01 0.1057000D+01 0.1057000D+01 0.1057000D+01 0.1057000D+01
EXPONENTS  0.1057000D+01 0.2470000D+00 0.2470000D+00 0.2470000D+00 0.2470000D+00
EXPONENTS  0.2470000D+00 0.2470000D+00
MO    1     MO 0.0        OCC NO =    2.0000000  ORB. ENERGY =  -14.373508
  0.37755972D+00  0.70352694D+00  0.11898404D+01  0.17918337D+01  0.22184064D+01
  0.18877637D+01  0.71832893D+00 -0.33642408D-02 -0.99395924D-03 -0.18636829D-02
 -0.31706791D-02 -0.49237298D-02 -0.65340758D-02 -0.68860190D-02 -0.42697711D-02
  0.28402534D-02  0.40106687D-01 -0.72040156D-02  0.28184738D-02 -0.31419158D-04
 -0.30177726D-04 -0.21162704D-04  0.14349643D-04  0.13782661D-04  0.96653531D-05
  0.63101993D-05  0.60608710D-05  0.42503011D-05 -0.37140121D-02  0.65479544D-03
  0.38547536D-03 -0.64485600D-02  0.11483511D-02  0.67165404D-03  0.54977523D-03
 -0.93448150D-04 -0.57175707D-04  0.31941752D-02  0.48500573D-03 -0.36791810D-02
 -0.10218876D-02 -0.14107411D-02  0.29397666D-03  0.31153529D-03 -0.12505961D-02
  0.93906085D-03 -0.59351738D-03  0.11202251D-03 -0.39936423D-04 -0.78812725D-03
  0.32813358D-03  0.45999366D-03  0.39499382D-03  0.26083406D-03 -0.45852559D-04
 -0.15914300D-02 -0.57333254D-03 -0.21055812D-03  0.28321415D-02  0.20686663D-02
  0.93774248D-03  0.19421486D-02 -0.34866873D-03 -0.30606813D-03 -0.45298937D-03
  0.58242695D-03  0.29620854D-03  0.28912182D-04 -0.14883575D-02 -0.93232338D-03
 -0.25347761D-03 -0.25892336D-03  0.43697765D-04  0.16674106D-03  0.14145663D-03
  0.26213286D-03  0.48846743D-03  0.82320272D-03  0.12282117D-02  0.14877072D-02
  0.12378832D-02  0.45975627D-03 -0.24407494D-05 -0.20683274D-03 -0.38633993D-03
 -0.65755251D-03 -0.10056540D-02 -0.13079127D-02 -0.13239041D-02 -0.87172373D-03
  0.59587127D-03  0.88279752D-03 -0.59581309D-03  0.26868841D-03 -0.41543590D-03
 -0.37441383D-03 -0.27184872D-03  0.10418050D-02  0.93893232D-03  0.68172575D-03
  0.64761107D-04  0.58366295D-04  0.42377715D-04 -0.27726945D-02  0.30732147D-02
  0.34676932D-03  0.25641947D-03 -0.97250015D-03 -0.47336532D-04  0.26383548D-04
 -0.84161945D-05 -0.28256744D-05 -0.48964203D-03  0.58143872D-03 -0.91796689D-04
 -0.25935635D-03  0.74966068D-04  0.55130251D-04 -0.13281026D-02  0.13634271D-02
 -0.35324544D-04 -0.86980031D-04  0.25988490D-03  0.70622296D-04  0.31403488D-04
 -0.30409477D-04 -0.99401109D-06 -0.40051672D-04 -0.74399753D-05  0.27809905D-05
  0.39799347D-04 -0.19420488D-03  0.13897442D-04 -0.47934748D-04  0.29444035D-03
 -0.20142138D-04 -0.71463293D-04  0.28817428D-03 -0.21550187D-04 -0.40829250D-06
 -0.10710469D-03  0.10483032D-03  0.23077437D-05  0.33473399D-03 -0.35485090D-03
  0.21747172D-04 -0.13419912D-04  0.40359931D-04 -0.28670403D-04  0.95683299D-04
 -0.11070574D+00 -0.20628384D+00 -0.34887769D+00 -0.52539047D+00 -0.65046749D+00
 -0.55351848D+00 -0.21062399D+00  0.98644201D-03  0.30064262D-03  0.56370772D-03
  0.95903456D-03  0.14892794D-02  0.19763604D-02  0.20828126D-02  0.12914767D-02
 -0.85909078D-03 -0.11849019D-01  0.39258887D-02 -0.13265517D-02  0.43127183D-03
  0.41423144D-03  0.29048768D-03  0.93033279D-05  0.89357353D-05  0.62663544D-05
 -0.42997799D-04 -0.41298872D-04 -0.28961620D-04 -0.13581682D-02  0.11204154D-02
  0.16187964D-03 -0.19836503D-02  0.24731802D-02  0.25470952D-03  0.37017472D-03
 -0.13754362D-03 -0.40256808D-04 -0.10162374D-03 -0.10085522D-02  0.11101759D-02
  0.17541775D-03  0.25067843D-03 -0.11457252D-03  0.53652013D-03 -0.20196742D-03
 -0.33455272D-03  0.31580404D-03 -0.16956813D-03 -0.25324645D-04  0.24010696D-03
 -0.48438316D-04 -0.19166865D-03 -0.11673395D-02 -0.11404218D-03  0.12422506D-03
  0.27219433D-03  0.36320322D-03 -0.60668014D-04 -0.12774725D-02 -0.48617281D-03
  0.90061236D-06  0.46088949D-03 -0.60343685D-03  0.18110343D-03 -0.10432830D-03
 -0.19155838D-03 -0.41885976D-04  0.27389695D-04  0.83305122D-03  0.74874531D-04
  0.68497009D-05 -0.25837607D-03  0.50783398D-04 -0.89018787D-04  0.45045672D-04
 -0.29657361D-03 -0.55264550D-03 -0.93136052D-03 -0.13895822D-02 -0.16831720D-02
 -0.14005245D-02 -0.52016208D-03  0.27614311D-05  0.23489556D-03  0.43875806D-03
  0.74676843D-03  0.11420999D-02  0.14853687D-02  0.15035298D-02  0.98999815D-03
 -0.67671836D-03 -0.97419309D-03  0.76776171D-03 -0.48812855D-03  0.68564850D-03
  0.61794439D-03  0.44866770D-03 -0.14541584D-03 -0.13105680D-03 -0.95155739D-04
 -0.72071443D-04 -0.64954775D-04 -0.47161379D-04  0.38486490D-03 -0.15714090D-03
 -0.42516384D-04 -0.99571726D-03  0.19816264D-03  0.10417931D-03  0.23729940D-04
 -0.37600244D-05 -0.24868937D-05 -0.31299478D-04 -0.12860364D-03  0.15990312D-03
 -0.12359288D-04  0.38773038D-04 -0.11728139D-04 -0.30160700D-03  0.17268951D-03
  0.12891749D-03  0.23746520D-03  0.92914658D-04 -0.22126049D-04  0.39155251D-04
 -0.42220950D-04  0.30656992D-05 -0.31784001D-04 -0.80339286D-05  0.11531965D-05
 -0.88639737D-04 -0.73457584D-05 -0.26309018D-04  0.23896459D-04  0.70764729D-04
  0.79108567D-04  0.24202275D-03 -0.48727454D-04 -0.18151448D-06 -0.34824839D-04
  0.31959666D-04  0.26876742D-04 -0.19975498D-05 -0.11527035D-03 -0.76326165D-04
 -0.75252595D-05  0.19391349D-04 -0.43040605D-05  0.13517909D-04  0.83923642D-05
 -0.12088633D+00 -0.22525387D+00 -0.38096077D+00 -0.57370581D+00 -0.71028501D+00
 -0.60442048D+00 -0.22999314D+00  0.10771560D-02  0.32764636D-03  0.61433999D-03
  0.10451751D-02  0.16230466D-02  0.21538772D-02  0.22698909D-02  0.14074772D-02
 -0.93625437D-03 -0.12932326D-01  0.41576293D-02 -0.14128489D-02  0.39541913D-03
  0.37979534D-03  0.26633871D-03 -0.15306885D-03 -0.14702080D-03 -0.10310113D-03
 -0.43565647D-04 -0.41844283D-04 -0.29344100D-04 -0.17231017D-02 -0.66823268D-03
  0.15800724D-03 -0.28403295D-02 -0.17848014D-02  0.24456348D-03  0.40118141D-03
  0.15746733D-04 -0.39885561D-04 -0.31966478D-03 -0.89122679D-03  0.12108916D-02
 -0.81163740D-03  0.29279077D-03 -0.14793315D-04  0.35583579D-03  0.44822316D-05
 -0.36031802D-03 -0.77345975D-03 -0.16385561D-03  0.94564698D-04  0.58228126D-03
 -0.37573484D-03 -0.20654642D-03  0.72065954D-03 -0.14309319D-03 -0.80283735D-04
  0.23162037D-03  0.14599622D-03 -0.58476621D-04 -0.13753965D-02 -0.89218532D-03
  0.47981052D-04  0.68053542D-03  0.45419664D-03  0.12744881D-03  0.17681439D-03
 -0.97021279D-04 -0.22697351D-03  0.27393955D-04  0.55455720D-03  0.64927742D-03
 -0.93274953D-05 -0.26349336D-03  0.31643096D-04 -0.72854370D-04 -0.86538842D-04
  0.25071652D-03  0.46719383D-03  0.78735082D-03  0.11747210D-02  0.14229150D-02
  0.11839713D-02  0.43973309D-03 -0.23344505D-05 -0.19780625D-03 -0.36947948D-03
 -0.62885593D-03 -0.96176576D-03 -0.12508334D-02 -0.12661270D-02 -0.83368040D-03
  0.56986656D-03  0.84464632D-03 -0.56783296D-03  0.25326412D-03 -0.78349848D-03
 -0.70613221D-03 -0.51269777D-03 -0.81263366D-03 -0.73239045D-03 -0.53176296D-03
  0.59646086D-04  0.53756355D-04  0.39030600D-04 -0.37646960D-02 -0.19140086D-02
  0.33315706D-03  0.60955471D-03  0.79541888D-03 -0.42873149D-04  0.27924597D-04
 -0.53361139D-06 -0.28058085D-05 -0.28250328D-03  0.37002486D-03 -0.87521577D-04
  0.91622251D-03  0.61702908D-04 -0.70196721D-04 -0.97821455D-03  0.10115975D-02
 -0.33382960D-04  0.18922200D-02  0.23587302D-03 -0.14204041D-03  0.36190568D-04
 -0.35261918D-04 -0.92864984D-06 -0.13220582D-04 -0.78253669D-05 -0.29495701D-06
 -0.54411192D-04  0.13875325D-03  0.12423574D-04  0.33907339D-03 -0.17753070D-03
 -0.23253377D-04 -0.17583981D-03 -0.23872904D-03 -0.14017346D-04  0.11793541D-04
  0.59257672D-04 -0.14553170D-03  0.21088405D-05 -0.14905949D-03  0.46901890D-03
 -0.12819203D-04 -0.28713528D-04 -0.32423805D-04  0.64926815D-05 -0.10711476D-03
  0.28864289D-03  0.52057934D-03  0.76759394D-03 -0.38617813D-03 -0.32616460D-03
  0.28136388D-03 -0.17343783D-02  0.31537120D-03  0.18054664D-03 -0.25687030D-02
  0.45421525D-03  0.26650927D-03 -0.49537264D-03  0.88027649D-04  0.51384915D-04
 -0.34019305D-02  0.13892100D-02  0.20127205D-02  0.17902432D-02  0.11346016D-02
 -0.20986449D-03 -0.28999053D-03  0.16527740D-03  0.12471313D-03  0.17233233D-03
  0.87751609D-04 -0.15616823D-04 -0.10508284D-03 -0.18952122D-03 -0.27944893D-03
  0.10047914D-03 -0.59469699D-04 -0.14805627D-03 -0.38903834D-03 -0.51006736D-03
  0.27293269D-04 -0.10717173D-02 -0.40394077D-03  0.98630244D-04 -0.18648309D-03
 -0.85969068D-04  0.16773191D-04  0.38136927D-03  0.37013131D-03 -0.75150059D-03
  0.18143291D-02 -0.18816014D-03 -0.13083071D-03 -0.34069652D-04  0.69769650D-04
 -0.35699998D-04  0.22680365D-03  0.49207566D-05 -0.17894707D-04 -0.97038484D-04
 -0.17501290D-03 -0.25805642D-03  0.90649789D-04 -0.64932553D-04 -0.13927948D-03
 -0.16746107D-03  0.56801338D-03  0.29582669D-04 -0.84729207D-03  0.68100735D-03
  0.10046493D-03 -0.14127138D-03  0.13206218D-03  0.17126315D-04 -0.18923264D-03
  0.88196579D-03 -0.69273315D-03 -0.12866080D-02 -0.13225052D-03  0.20110209D-03
 -0.92298216D-04  0.12449390D-03 -0.32195682D-04 -0.91781773D-04  0.98836831D-05
  0.16192670D-04  0.25432436D-04  0.45868446D-04  0.67632998D-04 -0.11384410D-03
 -0.57122994D-03  0.37181532D-04  0.25166741D-04  0.15653805D-03  0.68204051D-06
 -0.38771837D-03  0.63374745D-05  0.39608671D-04 -0.24625286D-04 -0.11307958D-03
  0.20475521D-06 -0.26772495D-03  0.13594013D-03  0.13178482D-03 -0.23367257D-03
  0.76034402D-04  0.23697184D-04 -0.14233745D-03  0.91839081D-04  0.50498370D-04
 -0.13324767D-05  0.39081774D-04  0.19090499D-05  0.24334245D-04  0.43887812D-04
  0.64712553D-04 -0.98936879D-04 -0.53588605D-03  0.34585097D-04 -0.34577420D-04
 -0.15192527D-03 -0.23586583D-06 -0.36546662D-03  0.11251934D-03  0.39690008D-04
  0.19974681D-04  0.10892501D-03  0.72897411D-06 -0.14434034D-03  0.19379059D-04
  0.12496128D-03  0.44190461D-03  0.64996448D-04 -0.49724748D-04 -0.11289047D-03
  0.64598048D-04  0.48292420D-04  0.15964460D-03  0.36448585D-04 -0.15345015D-04
 -0.28250040D-04 -0.50950111D-04 -0.75125909D-04  0.61741623D-03  0.11589918D-02
 -0.87881518D-04  0.70319748D-04 -0.14496750D-04 -0.72132749D-05 -0.55202383D-03
  0.93758708D-04  0.57418800D-04 -0.20318336D-03  0.38001118D-04  0.21225276D-04
  0.24479712D-03 -0.64811697D-04 -0.17998543D-03 -0.10631037D-03 -0.88726369D-04
  0.16157758D-04  0.13577131D-04  0.37089436D-04 -0.50666567D-04  0.14067856D-04
 -0.12727328D-04  0.25730399D-05
MO    2     MO 0.0        OCC NO =    2.0000000  ORB. ENERGY =  -14.373505
  0.97867892D-02  0.18236241D-01  0.30842055D-01  0.46446425D-01  0.57503688D-01
  0.48933043D-01  0.18619926D-01 -0.87205055D-04 -0.25157694D-04 -0.47170911D-04
 -0.80251755D-04 -0.12462250D-03 -0.16538131D-03 -0.17428920D-03 -0.10807042D-03
  0.71888486D-04  0.10337716D-02 -0.68365070D-04  0.40301361D-04 -0.96239306D-04
 -0.92436703D-04 -0.64822997D-04 -0.47064409D-03 -0.45204803D-03 -0.31700728D-03
 -0.10331522D-05 -0.99233032D-06 -0.69589052D-06  0.11939075D-03  0.10560995D-02
  0.12023396D-04  0.12013798D-03  0.12183810D-02  0.15766509D-04 -0.55123149D-04
 -0.35077704D-03 -0.24081895D-05  0.17118549D-03 -0.77162240D-04 -0.94023252D-04
  0.43641919D-03 -0.43723895D-04 -0.43477509D-04  0.48875514D-04 -0.68743028D-04
  0.19867514D-04  0.24291600D-03 -0.88306041D-07 -0.27674393D-04  0.21033220D-03
 -0.21785827D-03  0.75260699D-05  0.11959586D-02 -0.13280750D-04 -0.12987009D-03
 -0.13419533D-04  0.36070820D-04 -0.58491783D-05  0.46154128D-04  0.16696654D-03
  0.69912675D-05 -0.58955306D-05 -0.27517900D-03  0.10556267D-04 -0.87384518D-04
 -0.64050270D-04  0.48363000D-04  0.15413748D-05  0.14862326D-03 -0.40040100D-03
  0.19019417D-04  0.43527550D-04  0.25531200D-03 -0.23643542D-04  0.13795618D-03
 -0.31579997D-03 -0.58847256D-03 -0.99173903D-03 -0.14796665D-02 -0.17922892D-02
 -0.14913181D-02 -0.55388330D-03  0.29404500D-05  0.24972241D-03  0.46645293D-03
  0.79390523D-03  0.12141904D-02  0.15791267D-02  0.15984342D-02  0.10524879D-02
 -0.71943352D-03 -0.10489015D-02  0.77610439D-03 -0.43695660D-03 -0.91039242D-03
 -0.82049605D-03 -0.59573334D-03 -0.14337636D-03 -0.12921872D-03 -0.93821168D-04
  0.88140097D-04  0.79436735D-04  0.57676221D-04 -0.22416899D-02  0.12196783D-02
  0.25245790D-03  0.97529104D-03  0.37709298D-03 -0.89026464D-04 -0.12243699D-05
 -0.25622161D-04 -0.44991903D-06 -0.40614574D-03  0.26702764D-03  0.13911810D-03
 -0.13246232D-04  0.10992226D-03  0.73957361D-05 -0.80382512D-03  0.71681578D-03
  0.87009343D-04 -0.76519570D-03  0.16310621D-03  0.10456821D-03  0.87844227D-05
 -0.10996101D-04  0.22116781D-05  0.83341748D-04  0.57990348D-06 -0.89600944D-05
  0.10136673D-03 -0.37581371D-04  0.24918681D-04 -0.41658573D-04  0.20317113D-03
 -0.80744935D-04 -0.26244160D-03 -0.90427014D-04  0.59888923D-05 -0.48710118D-04
 -0.14288898D-05  0.10652957D-03  0.32561956D-05  0.36516576D-04 -0.31234888D-03
 -0.13403094D-04 -0.32229906D-04 -0.72398343D-05  0.36345077D-05  0.64958019D-04
 -0.28778644D+00 -0.53624765D+00 -0.90692921D+00 -0.13657851D+01 -0.16909306D+01
 -0.14389056D+01 -0.54753014D+00  0.25643172D-02  0.76384756D-03  0.14322213D-02
  0.24366346D-02  0.37838362D-02  0.50213708D-02  0.52918355D-02  0.32812756D-02
 -0.21827058D-02 -0.30630629D-01  0.67121343D-02 -0.24864986D-02 -0.19552693D-03
 -0.18780128D-03 -0.13169922D-03 -0.14903766D-03 -0.14314889D-03 -0.10038588D-03
  0.17069863D-04  0.16395400D-04  0.11497586D-04 -0.57195369D-03  0.31502445D-02
  0.12866224D-03 -0.13632922D-02  0.56044365D-02  0.26245244D-03  0.12971297D-05
 -0.51834311D-03 -0.11862416D-04 -0.62018321D-03 -0.22148861D-02  0.28350693D-02
  0.15713154D-02  0.73815496D-03 -0.38782801D-03  0.88962382D-03 -0.13957697D-03
 -0.75004685D-03  0.10314723D-02 -0.30891424D-03 -0.76141673D-04 -0.39400492D-03
  0.79442954D-03 -0.40042462D-03 -0.16605841D-03 -0.48623154D-05  0.70384190D-04
  0.76446158D-03  0.94396767D-03 -0.81089386D-04 -0.27372712D-02 -0.12222260D-02
 -0.17028529D-03  0.44388651D-03 -0.16096770D-02  0.41355345D-03 -0.22604808D-03
 -0.40080518D-03 -0.38056121D-03  0.35990883D-05  0.11830460D-02  0.85236660D-03
  0.14703566D-03  0.19369535D-04  0.28931703D-03 -0.15783292D-03 -0.61440787D-04
  0.30242876D-05  0.56355619D-05  0.94974805D-05  0.14170163D-04  0.17164023D-04
  0.14281746D-04  0.53043146D-05 -0.28159491D-07 -0.23448461D-05 -0.43799045D-05
 -0.74546196D-05 -0.11401018D-04 -0.14827700D-04 -0.15008994D-04 -0.98826614D-05
  0.67553444D-05  0.11282735D-04 -0.24037000D-05 -0.54668320D-05  0.21100997D-03