 Molden2AIM, Version 4.0.0 (06/02/2016)           Time: Fri Jun 29 19:20:59 2018
GAUSSIAN             28 MOL ORBITALS    468 PRIMITIVES        4 NUCLEI
  B    1    (CENTRE  1)   0.00000000  0.00001323  0.00000000  CHARGE =  5.0
  Cl   2    (CENTRE  2)   0.00000000  3.30297481  0.00000000  CHARGE = 17.0
  Cl   3    (CENTRE  3)   2.86041985 -1.65149402  0.00000000  CHARGE = 17.0
  Cl   4    (CENTRE  4)  -2.86041985 -1.65149402  0.00000000  CHARGE = 17.0
CENTRE ASSIGNMENTS    1  1  1  1  1  1  1  1  1  1  1  1  1  1  1  1  1  1  1  1
CENTRE ASSIGNMENTS    1  1  1  1  1  1  1  1  1  1  1  1  1  1  1  1  1  1  1  1
CENTRE ASSIGNMENTS    1  1  1  1  1  1  1  1  1  1  1  1  1  1  1  1  1  1  1  1
CENTRE ASSIGNMENTS    1  1  1  1  1  1  1  1  1  1  1  1  1  1  1  2  2  2  2  2
CENTRE ASSIGNMENTS    2  2  2  2  2  2  2  2  2  2  2  2  2  2  2  2  2  2  2  2
CENTRE ASSIGNMENTS    2  2  2  2  2  2  2  2  2  2  2  2  2  2  2  2  2  2  2  2
CENTRE ASSIGNMENTS    2  2  2  2  2  2  2  2  2  2  2  2  2  2  2  2  2  2  2  2
CENTRE ASSIGNMENTS    2  2  2  2  2  2  2  2  2  2  2  2  2  2  2  2  2  2  2  2
CENTRE ASSIGNMENTS    2  2  2  2  2  2  2  2  2  2  2  2  2  2  2  2  2  2  2  2
CENTRE ASSIGNMENTS    2  2  2  2  2  2  2  2  2  2  2  2  2  2  2  2  2  2  2  2
CENTRE ASSIGNMENTS    2  2  2  2  2  2  3  3  3  3  3  3  3  3  3  3  3  3  3  3
CENTRE ASSIGNMENTS    3  3  3  3  3  3  3  3  3  3  3  3  3  3  3  3  3  3  3  3
CENTRE ASSIGNMENTS    3  3  3  3  3  3  3  3  3  3  3  3  3  3  3  3  3  3  3  3
CENTRE ASSIGNMENTS    3  3  3  3  3  3  3  3  3  3  3  3  3  3  3  3  3  3  3  3
CENTRE ASSIGNMENTS    3  3  3  3  3  3  3  3  3  3  3  3  3  3  3  3  3  3  3  3
CENTRE ASSIGNMENTS    3  3  3  3  3  3  3  3  3  3  3  3  3  3  3  3  3  3  3  3
CENTRE ASSIGNMENTS    3  3  3  3  3  3  3  3  3  3  3  3  3  3  3  3  3  4  4  4
CENTRE ASSIGNMENTS    4  4  4  4  4  4  4  4  4  4  4  4  4  4  4  4  4  4  4  4
CENTRE ASSIGNMENTS    4  4  4  4  4  4  4  4  4  4  4  4  4  4  4  4  4  4  4  4
CENTRE ASSIGNMENTS    4  4  4  4  4  4  4  4  4  4  4  4  4  4  4  4  4  4  4  4
CENTRE ASSIGNMENTS    4  4  4  4  4  4  4  4  4  4  4  4  4  4  4  4  4  4  4  4
CENTRE ASSIGNMENTS    4  4  4  4  4  4  4  4  4  4  4  4  4  4  4  4  4  4  4  4
CENTRE ASSIGNMENTS    4  4  4  4  4  4  4  4  4  4  4  4  4  4  4  4  4  4  4  4
CENTRE ASSIGNMENTS    4  4  4  4  4  4  4  4
TYPE ASSIGNMENTS      1  1  1  1  1  1  1  1  1  1  1  1  1  1  1  1  1  1  1  2
TYPE ASSIGNMENTS      2  2  3  3  3  4  4  4  2  3  4  2  3  4  2  3  4  5  6  7
TYPE ASSIGNMENTS      8  9 10  5  6  7  8  9 10  5  6  7  8  9 10 11 12 13 17 14
TYPE ASSIGNMENTS     15 18 19 16 20 11 12 13 17 14 15 18 19 16 20  1  1  1  1  1
TYPE ASSIGNMENTS      1  1  1  1  1  1  1  1  1  1  1  1  1  1  1  1  1  1  1  1
TYPE ASSIGNMENTS      1  1  1  1  1  1  1  1  1  1  1  1  1  1  1  1  1  2  2  2
TYPE ASSIGNMENTS      2  2  2  2  3  3  3  3  3  3  3  4  4  4  4  4  4  4  2  2
TYPE ASSIGNMENTS      2  2  2  2  2  3  3  3  3  3  3  3  4  4  4  4  4  4  4  2
TYPE ASSIGNMENTS      3  4  2  3  4  2  3  4  5  6  7  8  9 10  5  6  7  8  9 10
TYPE ASSIGNMENTS      5  6  7  8  9 10 11 12 13 17 14 15 18 19 16 20 11 12 13 17
TYPE ASSIGNMENTS     14 15 18 19 16 20  1  1  1  1  1  1  1  1  1  1  1  1  1  1
TYPE ASSIGNMENTS      1  1  1  1  1  1  1  1  1  1  1  1  1  1  1  1  1  1  1  1
TYPE ASSIGNMENTS      1  1  1  1  1  1  1  1  2  2  2  2  2  2  2  3  3  3  3  3
TYPE ASSIGNMENTS      3  3  4  4  4  4  4  4  4  2  2  2  2  2  2  2  3  3  3  3
TYPE ASSIGNMENTS      3  3  3  4  4  4  4  4  4  4  2  3  4  2  3  4  2  3  4  5
TYPE ASSIGNMENTS      6  7  8  9 10  5  6  7  8  9 10  5  6  7  8  9 10 11 12 13
TYPE ASSIGNMENTS     17 14 15 18 19 16 20 11 12 13 17 14 15 18 19 16 20  1  1  1
TYPE ASSIGNMENTS      1  1  1  1  1  1  1  1  1  1  1  1  1  1  1  1  1  1  1  1
TYPE ASSIGNMENTS      1  1  1  1  1  1  1  1  1  1  1  1  1  1  1  1  1  1  1  2
TYPE ASSIGNMENTS      2  2  2  2  2  2  3  3  3  3  3  3  3  4  4  4  4  4  4  4
TYPE ASSIGNMENTS      2  2  2  2  2  2  2  3  3  3  3  3  3  3  4  4  4  4  4  4
TYPE ASSIGNMENTS      4  2  3  4  2  3  4  2  3  4  5  6  7  8  9 10  5  6  7  8
TYPE ASSIGNMENTS      9 10  5  6  7  8  9 10 11 12 13 17 14 15 18 19 16 20 11 12
TYPE ASSIGNMENTS     13 17 14 15 18 19 16 20
EXPONENTS  0.5473000D+04 0.8209000D+03 0.1868000D+03 0.5283000D+02 0.1708000D+02
EXPONENTS  0.5999000D+01 0.2208000D+01 0.2415000D+00 0.5473000D+04 0.8209000D+03
EXPONENTS  0.1868000D+03 0.5283000D+02 0.1708000D+02 0.5999000D+01 0.2208000D+01
EXPONENTS  0.2415000D+00 0.5879000D+00 0.8610000D-01 0.2914000D-01 0.1205000D+02
EXPONENTS  0.2613000D+01 0.7475000D+00 0.1205000D+02 0.2613000D+01 0.7475000D+00
EXPONENTS  0.1205000D+02 0.2613000D+01 0.7475000D+00 0.2385000D+00 0.2385000D+00
EXPONENTS  0.2385000D+00 0.7698000D-01 0.7698000D-01 0.7698000D-01 0.2096000D-01
EXPONENTS  0.2096000D-01 0.2096000D-01 0.6610000D+00 0.6610000D+00 0.6610000D+00
EXPONENTS  0.6610000D+00 0.6610000D+00 0.6610000D+00 0.1990000D+00 0.1990000D+00
EXPONENTS  0.1990000D+00 0.1990000D+00 0.1990000D+00 0.1990000D+00 0.6040000D-01
EXPONENTS  0.6040000D-01 0.6040000D-01 0.6040000D-01 0.6040000D-01 0.6040000D-01
EXPONENTS  0.4900000D+00 0.4900000D+00 0.4900000D+00 0.4900000D+00 0.4900000D+00
EXPONENTS  0.4900000D+00 0.4900000D+00 0.4900000D+00 0.4900000D+00 0.4900000D+00
EXPONENTS  0.1630000D+00 0.1630000D+00 0.1630000D+00 0.1630000D+00 0.1630000D+00
EXPONENTS  0.1630000D+00 0.1630000D+00 0.1630000D+00 0.1630000D+00 0.1630000D+00
EXPONENTS  0.4561000D+06 0.6833000D+05 0.1555000D+05 0.4405000D+04 0.1439000D+04
EXPONENTS  0.5204000D+03 0.2031000D+03 0.8396000D+02 0.3620000D+02 0.1583000D+02
EXPONENTS  0.6334000D+01 0.2694000D+01 0.4313000D+00 0.4561000D+06 0.6833000D+05
EXPONENTS  0.1555000D+05 0.4405000D+04 0.1439000D+04 0.5204000D+03 0.2031000D+03
EXPONENTS  0.8396000D+02 0.3620000D+02 0.1583000D+02 0.6334000D+01 0.2694000D+01
EXPONENTS  0.4313000D+00 0.4561000D+06 0.6833000D+05 0.1555000D+05 0.4405000D+04
EXPONENTS  0.1439000D+04 0.5204000D+03 0.2031000D+03 0.8396000D+02 0.3620000D+02
EXPONENTS  0.1583000D+02 0.6334000D+01 0.2694000D+01 0.4313000D+00 0.9768000D+00
EXPONENTS  0.1625000D+00 0.5910000D-01 0.6633000D+03 0.1568000D+03 0.4998000D+02
EXPONENTS  0.1842000D+02 0.7240000D+01 0.2922000D+01 0.3818000D+00 0.6633000D+03
EXPONENTS  0.1568000D+03 0.4998000D+02 0.1842000D+02 0.7240000D+01 0.2922000D+01
EXPONENTS  0.3818000D+00 0.6633000D+03 0.1568000D+03 0.4998000D+02 0.1842000D+02
EXPONENTS  0.7240000D+01 0.2922000D+01 0.3818000D+00 0.6633000D+03 0.1568000D+03
EXPONENTS  0.4998000D+02 0.1842000D+02 0.7240000D+01 0.2922000D+01 0.3818000D+00
EXPONENTS  0.6633000D+03 0.1568000D+03 0.4998000D+02 0.1842000D+02 0.7240000D+01
EXPONENTS  0.2922000D+01 0.3818000D+00 0.6633000D+03 0.1568000D+03 0.4998000D+02
EXPONENTS  0.1842000D+02 0.7240000D+01 0.2922000D+01 0.3818000D+00 0.1022000D+01
EXPONENTS  0.1022000D+01 0.1022000D+01 0.1301000D+00 0.1301000D+00 0.1301000D+00
EXPONENTS  0.4190000D-01 0.4190000D-01 0.4190000D-01 0.1046000D+01 0.1046000D+01
EXPONENTS  0.1046000D+01 0.1046000D+01 0.1046000D+01 0.1046000D+01 0.3440000D+00
EXPONENTS  0.3440000D+00 0.3440000D+00 0.3440000D+00 0.3440000D+00 0.3440000D+00
EXPONENTS  0.1350000D+00 0.1350000D+00 0.1350000D+00 0.1350000D+00 0.1350000D+00
EXPONENTS  0.1350000D+00 0.7060000D+00 0.7060000D+00 0.7060000D+00 0.7060000D+00
EXPONENTS  0.7060000D+00 0.7060000D+00 0.7060000D+00 0.7060000D+00 0.7060000D+00
EXPONENTS  0.7060000D+00 0.3120000D+00 0.3120000D+00 0.3120000D+00 0.3120000D+00
EXPONENTS  0.3120000D+00 0.3120000D+00 0.3120000D+00 0.3120000D+00 0.3120000D+00
EXPONENTS  0.3120000D+00 0.4561000D+06 0.6833000D+05 0.1555000D+05 0.4405000D+04
EXPONENTS  0.1439000D+04 0.5204000D+03 0.2031000D+03 0.8396000D+02 0.3620000D+02
EXPONENTS  0.1583000D+02 0.6334000D+01 0.2694000D+01 0.4313000D+00 0.4561000D+06
EXPONENTS  0.6833000D+05 0.1555000D+05 0.4405000D+04 0.1439000D+04 0.5204000D+03
EXPONENTS  0.2031000D+03 0.8396000D+02 0.3620000D+02 0.1583000D+02 0.6334000D+01
EXPONENTS  0.2694000D+01 0.4313000D+00 0.4561000D+06 0.6833000D+05 0.1555000D+05
EXPONENTS  0.4405000D+04 0.1439000D+04 0.5204000D+03 0.2031000D+03 0.8396000D+02
EXPONENTS  0.3620000D+02 0.1583000D+02 0.6334000D+01 0.2694000D+01 0.4313000D+00
EXPONENTS  0.9768000D+00 0.1625000D+00 0.5910000D-01 0.6633000D+03 0.1568000D+03
EXPONENTS  0.4998000D+02 0.1842000D+02 0.7240000D+01 0.2922000D+01 0.3818000D+00
EXPONENTS  0.6633000D+03 0.1568000D+03 0.4998000D+02 0.1842000D+02 0.7240000D+01
EXPONENTS  0.2922000D+01 0.3818000D+00 0.6633000D+03 0.1568000D+03 0.4998000D+02
EXPONENTS  0.1842000D+02 0.7240000D+01 0.2922000D+01 0.3818000D+00 0.6633000D+03
EXPONENTS  0.1568000D+03 0.4998000D+02 0.1842000D+02 0.7240000D+01 0.2922000D+01
EXPONENTS  0.3818000D+00 0.6633000D+03 0.1568000D+03 0.4998000D+02 0.1842000D+02
EXPONENTS  0.7240000D+01 0.2922000D+01 0.3818000D+00 0.6633000D+03 0.1568000D+03
EXPONENTS  0.4998000D+02 0.1842000D+02 0.7240000D+01 0.2922000D+01 0.3818000D+00
EXPONENTS  0.1022000D+01 0.1022000D+01 0.1022000D+01 0.1301000D+00 0.1301000D+00
EXPONENTS  0.1301000D+00 0.4190000D-01 0.4190000D-01 0.4190000D-01 0.1046000D+01
EXPONENTS  0.1046000D+01 0.1046000D+01 0.1046000D+01 0.1046000D+01 0.1046000D+01
EXPONENTS  0.3440000D+00 0.3440000D+00 0.3440000D+00 0.3440000D+00 0.3440000D+00
EXPONENTS  0.3440000D+00 0.1350000D+00 0.1350000D+00 0.1350000D+00 0.1350000D+00
EXPONENTS  0.1350000D+00 0.1350000D+00 0.7060000D+00 0.7060000D+00 0.7060000D+00
EXPONENTS  0.7060000D+00 0.7060000D+00 0.7060000D+00 0.7060000D+00 0.7060000D+00
EXPONENTS  0.7060000D+00 0.7060000D+00 0.3120000D+00 0.3120000D+00 0.3120000D+00
EXPONENTS  0.3120000D+00 0.3120000D+00 0.3120000D+00 0.3120000D+00 0.3120000D+00
EXPONENTS  0.3120000D+00 0.3120000D+00 0.4561000D+06 0.6833000D+05 0.1555000D+05
EXPONENTS  0.4405000D+04 0.1439000D+04 0.5204000D+03 0.2031000D+03 0.8396000D+02
EXPONENTS  0.3620000D+02 0.1583000D+02 0.6334000D+01 0.2694000D+01 0.4313000D+00
EXPONENTS  0.4561000D+06 0.6833000D+05 0.1555000D+05 0.4405000D+04 0.1439000D+04
EXPONENTS  0.5204000D+03 0.2031000D+03 0.8396000D+02 0.3620000D+02 0.1583000D+02
EXPONENTS  0.6334000D+01 0.2694000D+01 0.4313000D+00 0.4561000D+06 0.6833000D+05
EXPONENTS  0.1555000D+05 0.4405000D+04 0.1439000D+04 0.5204000D+03 0.2031000D+03
EXPONENTS  0.8396000D+02 0.3620000D+02 0.1583000D+02 0.6334000D+01 0.2694000D+01
EXPONENTS  0.4313000D+00 0.9768000D+00 0.1625000D+00 0.5910000D-01 0.6633000D+03
EXPONENTS  0.1568000D+03 0.4998000D+02 0.1842000D+02 0.7240000D+01 0.2922000D+01
EXPONENTS  0.3818000D+00 0.6633000D+03 0.1568000D+03 0.4998000D+02 0.1842000D+02
EXPONENTS  0.7240000D+01 0.2922000D+01 0.3818000D+00 0.6633000D+03 0.1568000D+03
EXPONENTS  0.4998000D+02 0.1842000D+02 0.7240000D+01 0.2922000D+01 0.3818000D+00
EXPONENTS  0.6633000D+03 0.1568000D+03 0.4998000D+02 0.1842000D+02 0.7240000D+01
EXPONENTS  0.2922000D+01 0.3818000D+00 0.6633000D+03 0.1568000D+03 0.4998000D+02
EXPONENTS  0.1842000D+02 0.7240000D+01 0.2922000D+01 0.3818000D+00 0.6633000D+03
EXPONENTS  0.1568000D+03 0.4998000D+02 0.1842000D+02 0.7240000D+01 0.2922000D+01
EXPONENTS  0.3818000D+00 0.1022000D+01 0.1022000D+01 0.1022000D+01 0.1301000D+00
EXPONENTS  0.1301000D+00 0.1301000D+00 0.4190000D-01 0.4190000D-01 0.4190000D-01
EXPONENTS  0.1046000D+01 0.1046000D+01 0.1046000D+01 0.1046000D+01 0.1046000D+01
EXPONENTS  0.1046000D+01 0.3440000D+00 0.3440000D+00 0.3440000D+00 0.3440000D+00
EXPONENTS  0.3440000D+00 0.3440000D+00 0.1350000D+00 0.1350000D+00 0.1350000D+00
EXPONENTS  0.1350000D+00 0.1350000D+00 0.1350000D+00 0.7060000D+00 0.7060000D+00
EXPONENTS  0.7060000D+00 0.7060000D+00 0.7060000D+00 0.7060000D+00 0.7060000D+00
EXPONENTS  0.7060000D+00 0.7060000D+00 0.7060000D+00 0.3120000D+00 0.3120000D+00
EXPONENTS  0.3120000D+00 0.3120000D+00 0.3120000D+00 0.3120000D+00 0.3120000D+00
EXPONENTS  0.3120000D+00 0.3120000D+00 0.3120000D+00
MO    1     MO 0.0        OCC NO =    2.0000000  ORB. ENERGY = -101.762072
  0.15353523D-03  0.28610285D-03  0.48216244D-03  0.71938240D-03  0.87137290D-03
  0.72504717D-03  0.26928629D-03 -0.14295843D-05 -0.11029557D-03 -0.20601953D-03
 -0.35064628D-03 -0.53627479D-03 -0.69745718D-03 -0.70598477D-03 -0.46485517D-03
  0.31775416D-03  0.25172622D-03  0.36126729D-03  0.41304922D-04 -0.21511272D-12
 -0.19387150D-12 -0.14076328D-12  0.10481456D-04  0.94464683D-05  0.68587486D-05
 -0.18292616D-16 -0.16486318D-16 -0.11970136D-16 -0.90663782D-12  0.50552752D-04
  0.99483466D-18 -0.53690818D-12  0.29027836D-04  0.11940464D-19  0.66635856D-14
 -0.29143595D-06 -0.11208184D-20 -0.16082821D-04 -0.47186159D-05  0.20801437D-04
  0.19564672D-12 -0.60562858D-20  0.19782481D-20 -0.22419114D-04 -0.32556872D-04
  0.54975986D-04 -0.21498960D-12 -0.33039999D-19 -0.10658196D-18 -0.13253289D-06
  0.22280552D-05 -0.20955223D-05  0.43834426D-13  0.17251474D-20  0.57705827D-20
  0.51816938D-13 -0.83389055D-04  0.19332872D-19  0.55259529D-13  0.23946683D-03
  0.57300937D-19 -0.21071034D-12  0.10700339D-04 -0.11529955D-18  0.82346239D-19
  0.45108413D-14 -0.35764396D-04  0.91738997D-21  0.93125600D-14  0.10608836D-03
  0.35632696D-19 -0.22845084D-13  0.12048313D-05 -0.38384866D-19  0.21670538D-19
  0.43296439D+00  0.81007803D+00  0.13996354D+01  0.22689722D+01  0.34456153D+01
  0.47890001D+01  0.56934302D+01  0.50712697D+01  0.25175301D+01  0.40561444D+00
  0.62272621D-02  0.11128056D-02  0.41583810D-04 -0.66380627D-03 -0.12398948D-02
 -0.21518976D-02 -0.34916552D-02 -0.54046676D-02 -0.77362906D-02 -0.10098276D-01
 -0.10761398D-01 -0.80443634D-02 -0.42464765D-03  0.54565116D-02  0.32417948D-02
 -0.12154300D-04  0.28711527D-03  0.53585929D-03  0.93127628D-03  0.15093249D-02
  0.23442179D-02  0.33581597D-02  0.44341370D-02  0.47946174D-02  0.37590422D-02
  0.18704870D-03 -0.32224496D-02 -0.33358327D-02  0.15095115D-02 -0.18189150D-02
 -0.34304632D-03 -0.16318331D-03  0.23076399D-11  0.30396796D-11  0.33534787D-11
  0.27854496D-11  0.14794199D-11  0.38158555D-12 -0.39225698D-15 -0.59723344D-02
 -0.78669047D-02 -0.86790389D-02 -0.72089394D-02 -0.38288428D-02 -0.98757026D-03
  0.10151886D-05  0.10160774D-16  0.13384019D-16  0.14765709D-16  0.12264618D-16
  0.65140368D-17  0.16801601D-17 -0.17271475D-20 -0.19525165D-11 -0.25635110D-11
 -0.29187459D-11 -0.24714741D-11 -0.14157555D-11 -0.32203526D-12  0.15073023D-12
  0.50784973D-02  0.66676947D-02  0.75916609D-02  0.64283066D-02  0.36823815D-02
  0.83761405D-03 -0.39204947D-03 -0.71346280D-17 -0.93672436D-17 -0.10665296D-16
 -0.90309346D-17 -0.51732670D-17 -0.11767388D-17  0.55077850D-18 -0.18473488D-12
  0.23669494D-03 -0.10103659D-17  0.78137823D-13  0.22790095D-03 -0.14403512D-19
 -0.25868789D-13  0.67609079D-05  0.31321147D-21 -0.85260241D-05  0.14786204D-03
 -0.13933602D-03  0.16594773D-12  0.59910958D-19  0.31874593D-18 -0.36156901D-04
 -0.24981664D-05  0.38655067D-04 -0.17393576D-12 -0.11092418D-19 -0.20520247D-18
  0.50437553D-05 -0.31469312D-04  0.26425557D-04 -0.18253081D-13 -0.81012095D-20
 -0.87073728D-20  0.34300191D-13 -0.47445994D-04 -0.21608250D-19  0.74255698D-13
  0.14404131D-04  0.64373455D-19 -0.17715627D-12  0.12793385D-03  0.45129576D-21
 -0.46052582D-19 -0.26663546D-13  0.12724146D-04 -0.46406171D-20  0.26988074D-13
  0.25942088D-04 -0.34221350D-19  0.53002563D-13 -0.64114525D-04  0.48143201D-19
  0.26464999D-19  0.31105242D+00  0.58198028D+00  0.10055330D+01  0.16300863D+01
  0.24754160D+01  0.34405372D+01  0.40903024D+01  0.36433267D+01  0.18086565D+01
  0.29140354D+00  0.44738205D-02  0.79946733D-03  0.29874847D-04 -0.50235365D-03
 -0.93832449D-03 -0.16285077D-02 -0.26424061D-02 -0.40901309D-02 -0.58546507D-02
 -0.76421480D-02 -0.81439839D-02 -0.60877933D-02 -0.32136379D-03  0.41293652D-02
  0.24533174D-02 -0.91981009D-05  0.21974244D-03  0.41011761D-03  0.71274831D-03
  0.11551553D-02  0.17941371D-02  0.25701532D-02  0.33936478D-02  0.36695399D-02
  0.28769668D-02  0.14315692D-03 -0.24662880D-02 -0.25530653D-02  0.11552981D-02
 -0.13414162D-02 -0.18233105D-03 -0.92204388D-04 -0.44227797D-02 -0.58257934D-02
 -0.64272150D-02 -0.53385408D-02 -0.28354287D-02 -0.73133977D-03  0.75179242D-06
  0.24286142D-02  0.31990299D-02  0.35292794D-02  0.29314723D-02  0.15569761D-02
  0.40158956D-03 -0.41282041D-06 -0.45321969D-17 -0.59699204D-17 -0.65862207D-17
 -0.54706134D-17 -0.29055757D-17 -0.74943272D-18  0.77039136D-21  0.38062534D-02
  0.49973316D-02  0.56898297D-02  0.48179141D-02  0.27598867D-02  0.62777848D-03
 -0.29383488D-03 -0.20918546D-02 -0.27464518D-02 -0.31270374D-02 -0.26478468D-02
 -0.15167886D-02 -0.34501678D-03  0.16148684D-03  0.46664825D-18  0.61267495D-18
  0.69757550D-18  0.59067828D-18  0.33836326D-18  0.76965903D-19 -0.36024278D-19
  0.17211570D-03 -0.89396817D-04  0.22413453D-18  0.13167130D-03 -0.80209587D-04
 -0.17429379D-19  0.24914659D-05 -0.11547013D-06  0.17535552D-20  0.81439183D-04
  0.35294831D-04 -0.11673401D-03 -0.94729861D-04  0.46691206D-19  0.53793110D-19
  0.98401351D-06 -0.31735588D-04  0.30751574D-04 -0.40870717D-04 -0.79329324D-20
 -0.23437288D-19 -0.15467133D-04 -0.59823199D-05  0.21449453D-04  0.18161154D-04
 -0.92690010D-20 -0.27313033D-19 -0.22677534D-04  0.34314376D-05  0.90522358D-20
 -0.20692709D-04  0.31447514D-04 -0.80272539D-19  0.88725313D-04 -0.41741827D-04
  0.53115831D-19 -0.86025252D-19  0.10276966D-04 -0.13869744D-04 -0.44083155D-20
  0.12700549D-04  0.19316285D-04  0.42777175D-19 -0.43531446D-04  0.22292948D-04
 -0.29552229D-19  0.48494331D-19  0.31105243D+00  0.58198028D+00  0.10055330D+01
  0.16300863D+01  0.24754160D+01  0.34405372D+01  0.40903024D+01  0.36433268D+01
  0.18086565D+01  0.29140354D+00  0.44738206D-02  0.79946734D-03  0.29874847D-04
 -0.50235366D-03 -0.93832450D-03 -0.16285077D-02 -0.26424061D-02 -0.40901309D-02
 -0.58546508D-02 -0.76421480D-02 -0.81439839D-02 -0.60877933D-02 -0.32136380D-03
  0.41293653D-02  0.24533174D-02 -0.91981009D-05  0.21974245D-03  0.41011761D-03
  0.71274831D-03  0.11551553D-02  0.17941371D-02  0.25701532D-02  0.33936478D-02
  0.36695399D-02  0.28769669D-02  0.14315692D-03 -0.24662880D-02 -0.25530653D-02
  0.11552982D-02 -0.13414162D-02 -0.18233105D-03 -0.92204389D-04  0.44227797D-02
  0.58257935D-02  0.64272150D-02  0.53385408D-02  0.28354287D-02  0.73133978D-03
 -0.75179243D-06  0.24286142D-02  0.31990299D-02  0.35292794D-02  0.29314723D-02
  0.15569761D-02  0.40158956D-03 -0.41282042D-06  0.26505442D-17  0.34913616D-17
  0.38517897D-17  0.31993541D-17  0.16992547D-17  0.43828735D-18 -0.45054450D-21
 -0.38062534D-02 -0.49973317D-02 -0.56898298D-02 -0.48179141D-02 -0.27598867D-02
 -0.62777848D-03  0.29383488D-03 -0.20918546D-02 -0.27464518D-02 -0.31270374D-02
 -0.26478468D-02 -0.15167886D-02 -0.34501679D-03  0.16148684D-03  0.22466664D-17
  0.29497082D-17  0.33584598D-17  0.28438058D-17  0.16290415D-17  0.37055042D-18
 -0.17343799D-18 -0.17211570D-03 -0.89396817D-04  0.12399269D-18 -0.13167130D-03
 -0.80209588D-04 -0.21586711D-19 -0.24914660D-05 -0.11547015D-06  0.23570531D-20
  0.81439184D-04  0.35294831D-04 -0.11673401D-03  0.94729862D-04  0.72220430D-19
  0.12710357D-18  0.98401343D-06 -0.31735588D-04  0.30751574D-04  0.40870717D-04
 -0.79379088D-19 -0.67464032D-19 -0.15467133D-04 -0.59823199D-05  0.21449453D-04
 -0.18161154D-04  0.73487891D-21 -0.22793266D-19  0.22677535D-04  0.34314374D-05
  0.14081362D-19  0.20692709D-04  0.31447515D-04 -0.60109885D-19 -0.88725313D-04
 -0.41741827D-04  0.17865798D-19  0.82740683D-19 -0.10276966D-04 -0.13869744D-04
 -0.11055746D-20 -0.12700549D-04  0.19316284D-04  0.17291015D-19  0.43531446D-04
  0.22292948D-04 -0.13974291D-19 -0.72054525D-19
MO    2     MO 0.0        OCC NO =    2.0000000  ORB. ENERGY = -101.762068
 -0.25092881D-04 -0.46758941D-04 -0.78801748D-04 -0.11757156D-03 -0.14241198D-03
 -0.11849738D-03 -0.44010542D-04  0.23364271D-06  0.18026063D-04  0.33670626D-04
  0.57307575D-04  0.87645612D-04  0.11398832D-03  0.11538202D-03  0.75973208D-04
 -0.51931880D-04 -0.41144491D-04 -0.59041612D-04 -0.67496674D-05  0.14873136D-11
  0.13404493D-11  0.97325315D-12  0.64146197D-04  0.57812104D-04  0.41975337D-04
 -0.10718868D-15 -0.96604369D-16 -0.70141036D-16  0.70412182D-11  0.30922451D-03
  0.39377664D-17  0.40609396D-11  0.17764853D-03  0.57958120D-20 -0.42031822D-13
 -0.17839103D-05 -0.31709264D-20 -0.33055534D-04  0.36456691D-04 -0.34011576D-05
 -0.15748819D-11 -0.70787865D-19  0.28182818D-20  0.35519139D-04 -0.26533216D-04
 -0.89859226D-05  0.14456751D-11  0.15048044D-19 -0.14803016D-18 -0.73940668D-05
  0.70517119D-05  0.34235493D-06 -0.33039554D-12 -0.15038904D-20  0.28763415D-20
 -0.37656486D-12 -0.31816163D-05  0.46328254D-19 -0.38011129D-12 -0.55951028D-04
  0.38539266D-19  0.15098059D-11  0.65495877D-04 -0.17752403D-18 -0.12334537D-19
 -0.41010703D-13  0.39544612D-05  0.50924754D-20 -0.45911932D-13 -0.19229004D-04
  0.31579674D-19  0.16894404D-12  0.73656201D-05 -0.46857100D-19 -0.46460291D-19
  0.43981279D+00  0.82289142D+00  0.14217741D+01  0.23048616D+01  0.35001162D+01
  0.48647500D+01  0.57834859D+01  0.51514844D+01  0.25573511D+01  0.41203024D+00
  0.63257617D-02  0.11304074D-02  0.42241561D-04 -0.56767764D-03 -0.10603403D-02
 -0.18402720D-02 -0.29860136D-02 -0.46219945D-02 -0.66159652D-02 -0.86359012D-02
 -0.92029937D-02 -0.68794247D-02 -0.36315261D-03  0.46663307D-02  0.27723366D-02
 -0.10394184D-04  0.23523336D-03  0.43902916D-03  0.76299405D-03  0.12365889D-02
  0.19206162D-02  0.27513381D-02  0.36328855D-02  0.39282269D-02  0.30797808D-02
  0.15324887D-03 -0.26401508D-02 -0.27330455D-02  0.12367418D-02 -0.17025142D-02
 -0.61701247D-03 -0.27061029D-03 -0.17493401D-10 -0.23042735D-10 -0.25421535D-10
 -0.21115507D-10 -0.11214959D-10 -0.28926650D-11  0.29735613D-14 -0.29096644D-02
 -0.38326810D-02 -0.42283450D-02 -0.35121266D-02 -0.18653757D-02 -0.48113482D-03
  0.49459024D-06  0.10441444D-16  0.13753725D-16  0.15173581D-16  0.12603403D-16
  0.66939736D-17  0.17265711D-17 -0.17748563D-20  0.14804510D-10  0.19437237D-10
  0.22130724D-10  0.18739388D-10  0.10734643D-10  0.24417588D-11 -0.11428775D-11
  0.22536251D-02  0.29588446D-02  0.33688622D-02  0.28526142D-02  0.16340872D-02
  0.37169815D-03 -0.17397519D-03 -0.73032922D-17 -0.95886873D-17 -0.10917426D-16
 -0.92444278D-17 -0.52955642D-17 -0.12045571D-17  0.56379903D-18  0.13970074D-11
  0.14115790D-03 -0.10576288D-17 -0.58673664D-12  0.27165655D-03  0.45497158D-19
  0.18647088D-12  0.17933618D-04  0.30795643D-20 -0.58638746D-04  0.13052799D-03
 -0.71889247D-04 -0.12032023D-11 -0.72556560D-20  0.48501025D-18  0.27238370D-04
 -0.54019765D-04  0.26781395D-04  0.12820482D-11  0.23340684D-19 -0.29438961D-18
  0.22346301D-04 -0.38863178D-04  0.16516877D-04  0.13963618D-12  0.16919015D-19
 -0.34288243D-19 -0.25238153D-12 -0.59315653D-04  0.44162358D-20 -0.57179391D-12
  0.72281720D-04  0.16877318D-18  0.13289385D-11  0.10566524D-03 -0.18202189D-18
  0.12312327D-18  0.19779329D-12  0.34809809D-04 -0.23035038D-19 -0.19544453D-12
 -0.50969146D-04 -0.59007696D-19 -0.39793534D-12 -0.53460280D-04  0.12811281D-18
 -0.63794383D-19 -0.30612387D+00 -0.57275893D+00 -0.98960055D+00 -0.16042579D+01
 -0.24361936D+01 -0.33860226D+01 -0.40254925D+01 -0.35855990D+01 -0.17799987D+01
 -0.28678631D+00 -0.44029338D-02 -0.78679995D-03 -0.29401487D-04  0.42018406D-03
  0.78484349D-03  0.13621339D-02  0.22101898D-02  0.34211113D-02  0.48970101D-02
  0.63921278D-02  0.68118788D-02  0.50920177D-02  0.26879857D-03 -0.34539282D-02
 -0.20520302D-02  0.76935747D-05 -0.17699183D-03 -0.33032975D-03 -0.57408402D-03
 -0.93042132D-03 -0.14450900D-02 -0.20701331D-02 -0.27334179D-02 -0.29556355D-02
 -0.23172566D-02 -0.11530592D-03  0.19864748D-02  0.20563696D-02 -0.93053635D-03
  0.12191268D-02  0.36633584D-03  0.16370790D-03  0.20649954D-02  0.27200623D-02
  0.30008660D-02  0.24925641D-02  0.13238614D-02  0.34146246D-03 -0.35101180D-06
 -0.19579719D-02 -0.25790885D-02 -0.28453388D-02 -0.23633809D-02 -0.12552490D-02
 -0.32376534D-03  0.33281976D-06  0.39318481D-17  0.51791264D-17  0.57137897D-17
  0.47459592D-17  0.25206942D-17  0.65016056D-18 -0.66834296D-21 -0.16692237D-02
 -0.21915683D-02 -0.24952618D-02 -0.21128852D-02 -0.12103420D-02 -0.27531081D-03
  0.12886061D-03  0.16117937D-02  0.21161669D-02  0.24094117D-02  0.20401909D-02
  0.11686999D-02  0.26583868D-03 -0.12442713D-03  0.70232144D-18  0.92209657D-18
  0.10498748D-17  0.88899084D-18  0.50924818D-18  0.11583629D-18 -0.54217760D-19
 -0.78830267D-04  0.10663727D-03 -0.14365741D-18 -0.16667794D-03  0.70589091D-04
 -0.33835029D-19 -0.50513372D-05  0.11013641D-04  0.61569425D-20 -0.83948672D-04
  0.17541137D-04  0.66407534D-04  0.85215853D-04  0.28779093D-19 -0.41174464D-19
  0.39093068D-04 -0.17518723D-04 -0.21574345D-04 -0.12873410D-05  0.21109836D-19
 -0.31450186D-19  0.18490018D-04 -0.45667614D-05 -0.13923257D-04 -0.29336350D-04
  0.35750554D-21 -0.14114286D-19  0.78217507D-05 -0.19357251D-05  0.38807146D-19
  0.20027960D-04 -0.77371242D-04 -0.12330855D-18 -0.43493212D-04  0.83178417D-04
  0.68871068D-20 -0.64051352D-22 -0.10473362D-04 -0.84223826D-06 -0.20312683D-19
  0.43513192D-05  0.35545332D-04  0.52872096D-19  0.27068765D-04 -0.33018618D-04
  0.80659541D-20  0.18077164D-19 -0.30612389D+00 -0.57275897D+00 -0.98960061D+00
 -0.16042580D+01 -0.24361938D+01 -0.33860229D+01 -0.40254927D+01 -0.35855993D+01
 -0.17799988D+01 -0.28678633D+00 -0.44029341D-02 -0.78680000D-03 -0.29401489D-04
  0.42018408D-03  0.78484354D-03  0.13621340D-02  0.22101900D-02  0.34211116D-02
  0.48970104D-02  0.63921282D-02  0.68118792D-02  0.50920180D-02  0.26879858D-03
 -0.34539284D-02 -0.20520303D-02  0.76935752D-05 -0.17699184D-03 -0.33032977D-03
 -0.57408406D-03 -0.93042137D-03 -0.14450901D-02 -0.20701332D-02 -0.27334180D-02
 -0.29556357D-02 -0.23172567D-02 -0.11530593D-03  0.19864749D-02  0.20563698D-02
 -0.93053641D-03  0.12191269D-02  0.36633586D-03  0.16370791D-03 -0.20649955D-02
 -0.27200625D-02 -0.30008662D-02 -0.24925643D-02 -0.13238615D-02 -0.34146249D-03
  0.35101183D-06 -0.19579720D-02 -0.25790885D-02 -0.28453389D-02 -0.23633810D-02
 -0.12552491D-02 -0.32376535D-03  0.33281977D-06 -0.30066354D-17 -0.39604137D-17
 -0.43692640D-17 -0.36291760D-17 -0.19275435D-17 -0.49716971D-18  0.51107356D-21
  0.16692238D-02  0.21915685D-02  0.24952619D-02  0.21128853D-02  0.12103421D-02
  0.27531083D-03 -0.12886062D-03  0.16117937D-02  0.21161670D-02  0.24094118D-02
  0.20401909D-02  0.11686999D-02  0.26583869D-03 -0.12442714D-03 -0.13083633D-17
 -0.17177851D-17 -0.19558248D-17 -0.16561121D-17 -0.94868476D-18 -0.21579287D-18
  0.10100294D-18  0.78830274D-04  0.10663728D-03 -0.36203176D-19  0.16667795D-03
  0.70589098D-04 -0.21724669D-19  0.50513380D-05  0.11013641D-04  0.43936033D-20
 -0.83948675D-04  0.17541137D-04  0.66407538D-04 -0.85215861D-04 -0.21080981D-18
 -0.43095447D-19  0.39093069D-04 -0.17518723D-04 -0.21574346D-04  0.12873442D-05
  0.47743577D-19 -0.12894845D-19  0.18490019D-04 -0.45667616D-05 -0.13923257D-04
  0.29336352D-04  0.13124060D-19 -0.29097772D-19 -0.78217520D-05 -0.19357241D-05
 -0.34097136D-19 -0.20027961D-04 -0.77371247D-04 -0.90430435D-19  0.43493217D-04
  0.83178419D-04  0.19272184D-18  0.57996317D-19  0.10473362D-04 -0.84223884D-06
  0.66429213D-20 -0.43513183D-05  0.35545335D-04  0.46250876D-19 -0.27068768D-04
 -0.33018618D-04 -0.66179640D-19 -0.65117597D-19
MO    3     MO 0.0        OCC NO =    2.0000000  ORB. ENERGY = -101.762067
  0.10243714D-11  0.19088491D-11  0.32169387D-11  0.47996461D-11  0.58137112D-11
  0.48374409D-11  0.17966507D-11 -0.95380408D-14 -0.73682718D-12 -0.13763090D-11
 -0.23424848D-11 -0.35825720D-11 -0.46593475D-11 -0.47163159D-11 -0.31054548D-11
  0.21227497D-11  0.17249541D-11  0.22957975D-11  0.26244783D-12  0.65004377D-04
  0.58585544D-04  0.42536904D-04 -0.14420176D-11 -0.12996261D-11 -0.94361281D-12
  0.80522591D-16  0.72571417D-16  0.52691555D-16  0.31331598D-03 -0.67885644D-11
 -0.20990606D-16  0.17999847D-03 -0.38914740D-11  0.49309951D-17 -0.18075172D-05
  0.39124232D-13  0.31411571D-20  0.69163443D-12 -0.83365124D-12  0.14201681D-12
 -0.70435326D-04 -0.49101962D-17  0.19313875D-17 -0.89585649D-12  0.51139809D-12
  0.38445840D-12  0.62886912D-04  0.84110438D-19 -0.53417487D-18  0.16257635D-12
 -0.14993195D-12 -0.12644406D-13 -0.14636720D-04  0.53619899D-20 -0.59983554D-19
 -0.16589688D-04 -0.18561113D-12  0.92488713D-19 -0.16597888D-04  0.20148096D-11
 -0.11180951D-18  0.66366952D-04 -0.14579762D-11 -0.16565663D-18 -0.23161633D-19
 -0.18635027D-05 -0.19910939D-12 -0.98348832D-20 -0.18725539D-05  0.76222466D-12
  0.59725692D-19  0.74630619D-05 -0.16489649D-12 -0.30221043D-19 -0.63227740D-19
 -0.86309189D-08 -0.16148482D-07 -0.27901000D-07 -0.45230776D-07 -0.68686541D-07
 -0.95466215D-07 -0.11349556D-06 -0.10109311D-06 -0.50185648D-07 -0.80857120D-08
 -0.12413722D-09 -0.22183199D-10 -0.82895153D-12  0.10814153D-10  0.20199286D-10
  0.35056840D-10  0.56883005D-10  0.88048135D-10  0.12603291D-09  0.16451231D-09
  0.17531532D-09  0.13105176D-09  0.69179896D-11 -0.88892732D-10 -0.52812496D-10
  0.19800727D-12 -0.44436938D-11 -0.82935143D-11 -0.14413398D-10 -0.23359878D-10
 -0.36281548D-10 -0.51974364D-10 -0.68627305D-10 -0.74206473D-10 -0.58178837D-10
 -0.28949597D-11  0.49873973D-10  0.51628808D-10 -0.23362766D-10  0.32971031D-10
  0.12874930D-10  0.55937216D-11 -0.77566531D-03 -0.10217253D-02 -0.11272023D-02
 -0.93627112D-03 -0.49727634D-03 -0.12826207D-03  0.13184905D-06  0.47956464D-10
  0.63169426D-10  0.69690675D-10  0.57886116D-10  0.30744722D-10  0.79299608D-11
 -0.81517301D-14 -0.41734727D-17 -0.54974002D-17 -0.60649203D-17 -0.50376134D-17
 -0.26755989D-17 -0.69011499D-18  0.70941475D-21  0.65646131D-03  0.86188558D-03
  0.98132014D-03  0.83094159D-03  0.47599534D-03  0.10827242D-03 -0.50677454D-04
 -0.35792123D-10 -0.46992433D-10 -0.53504343D-10 -0.45305280D-10 -0.25952609D-10
 -0.59033181D-11  0.27630777D-11  0.34843524D-17  0.45746993D-17  0.52086317D-17
  0.44104554D-17  0.25264787D-17  0.57468624D-18 -0.26898479D-18  0.61921407D-04
 -0.24949072D-11  0.64163730D-18 -0.25979269D-04 -0.54458804D-11  0.22873105D-18