 Molden2AIM, Version 4.0.0 (06/02/2016)           Time: Fri Jun 29 17:29:48 2018
GAUSSIAN              8 MOL ORBITALS    204 PRIMITIVES        4 NUCLEI
  B    1    (CENTRE  1)   0.09410647  0.05519134  0.00000000  CHARGE =  5.0
  H    2    (CENTRE  2)  -0.01098309  2.32926508  0.00000000  CHARGE =  1.0
  H    3    (CENTRE  3)   2.01001286 -1.17379771  0.00000000  CHARGE =  1.0
  F    4    (CENTRE  4)  -2.09313813 -1.21065871  0.00000000  CHARGE =  9.0
CENTRE ASSIGNMENTS    1  1  1  1  1  1  1  1  1  1  1  1  1  1  1  1  1  1  1  1
CENTRE ASSIGNMENTS    1  1  1  1  1  1  1  1  1  1  1  1  1  1  1  1  1  1  1  1
CENTRE ASSIGNMENTS    1  1  1  1  1  1  1  1  1  1  1  1  1  1  1  1  1  1  1  1
CENTRE ASSIGNMENTS    1  1  1  1  1  1  1  1  1  1  1  1  1  1  1  2  2  2  2  2
CENTRE ASSIGNMENTS    2  2  2  2  2  2  2  2  2  2  2  2  2  2  2  2  2  2  2  2
CENTRE ASSIGNMENTS    2  2  3  3  3  3  3  3  3  3  3  3  3  3  3  3  3  3  3  3
CENTRE ASSIGNMENTS    3  3  3  3  3  3  3  3  3  4  4  4  4  4  4  4  4  4  4  4
CENTRE ASSIGNMENTS    4  4  4  4  4  4  4  4  4  4  4  4  4  4  4  4  4  4  4  4
CENTRE ASSIGNMENTS    4  4  4  4  4  4  4  4  4  4  4  4  4  4  4  4  4  4  4  4
CENTRE ASSIGNMENTS    4  4  4  4  4  4  4  4  4  4  4  4  4  4  4  4  4  4  4  4
CENTRE ASSIGNMENTS    4  4  4  4
TYPE ASSIGNMENTS      1  1  1  1  1  1  1  1  1  1  1  1  1  1  1  1  1  1  1  2
TYPE ASSIGNMENTS      2  2  3  3  3  4  4  4  2  3  4  2  3  4  2  3  4  5  6  7
TYPE ASSIGNMENTS      8  9 10  5  6  7  8  9 10  5  6  7  8  9 10 11 12 13 17 14
TYPE ASSIGNMENTS     15 18 19 16 20 11 12 13 17 14 15 18 19 16 20  1  1  1  1  1
TYPE ASSIGNMENTS      1  2  3  4  2  3  4  2  3  4  5  6  7  8  9 10  5  6  7  8
TYPE ASSIGNMENTS      9 10  1  1  1  1  1  1  2  3  4  2  3  4  2  3  4  5  6  7
TYPE ASSIGNMENTS      8  9 10  5  6  7  8  9 10  1  1  1  1  1  1  1  1  1  1  1
TYPE ASSIGNMENTS      1  1  1  1  1  1  1  1  2  2  2  3  3  3  4  4  4  2  3  4
TYPE ASSIGNMENTS      2  3  4  2  3  4  5  6  7  8  9 10  5  6  7  8  9 10  5  6
TYPE ASSIGNMENTS      7  8  9 10 11 12 13 17 14 15 18 19 16 20 11 12 13 17 14 15
TYPE ASSIGNMENTS     18 19 16 20
EXPONENTS  0.5473000D+04 0.8209000D+03 0.1868000D+03 0.5283000D+02 0.1708000D+02
EXPONENTS  0.5999000D+01 0.2208000D+01 0.2415000D+00 0.5473000D+04 0.8209000D+03
EXPONENTS  0.1868000D+03 0.5283000D+02 0.1708000D+02 0.5999000D+01 0.2208000D+01
EXPONENTS  0.2415000D+00 0.5879000D+00 0.8610000D-01 0.2914000D-01 0.1205000D+02
EXPONENTS  0.2613000D+01 0.7475000D+00 0.1205000D+02 0.2613000D+01 0.7475000D+00
EXPONENTS  0.1205000D+02 0.2613000D+01 0.7475000D+00 0.2385000D+00 0.2385000D+00
EXPONENTS  0.2385000D+00 0.7698000D-01 0.7698000D-01 0.7698000D-01 0.2096000D-01
EXPONENTS  0.2096000D-01 0.2096000D-01 0.6610000D+00 0.6610000D+00 0.6610000D+00
EXPONENTS  0.6610000D+00 0.6610000D+00 0.6610000D+00 0.1990000D+00 0.1990000D+00
EXPONENTS  0.1990000D+00 0.1990000D+00 0.1990000D+00 0.1990000D+00 0.6040000D-01
EXPONENTS  0.6040000D-01 0.6040000D-01 0.6040000D-01 0.6040000D-01 0.6040000D-01
EXPONENTS  0.4900000D+00 0.4900000D+00 0.4900000D+00 0.4900000D+00 0.4900000D+00
EXPONENTS  0.4900000D+00 0.4900000D+00 0.4900000D+00 0.4900000D+00 0.4900000D+00
EXPONENTS  0.1630000D+00 0.1630000D+00 0.1630000D+00 0.1630000D+00 0.1630000D+00
EXPONENTS  0.1630000D+00 0.1630000D+00 0.1630000D+00 0.1630000D+00 0.1630000D+00
EXPONENTS  0.3387000D+02 0.5095000D+01 0.1159000D+01 0.3258000D+00 0.1027000D+00
EXPONENTS  0.2526000D-01 0.1407000D+01 0.1407000D+01 0.1407000D+01 0.3880000D+00
EXPONENTS  0.3880000D+00 0.3880000D+00 0.1020000D+00 0.1020000D+00 0.1020000D+00
EXPONENTS  0.1057000D+01 0.1057000D+01 0.1057000D+01 0.1057000D+01 0.1057000D+01
EXPONENTS  0.1057000D+01 0.2470000D+00 0.2470000D+00 0.2470000D+00 0.2470000D+00
EXPONENTS  0.2470000D+00 0.2470000D+00 0.3387000D+02 0.5095000D+01 0.1159000D+01
EXPONENTS  0.3258000D+00 0.1027000D+00 0.2526000D-01 0.1407000D+01 0.1407000D+01
EXPONENTS  0.1407000D+01 0.3880000D+00 0.3880000D+00 0.3880000D+00 0.1020000D+00
EXPONENTS  0.1020000D+00 0.1020000D+00 0.1057000D+01 0.1057000D+01 0.1057000D+01
EXPONENTS  0.1057000D+01 0.1057000D+01 0.1057000D+01 0.2470000D+00 0.2470000D+00
EXPONENTS  0.2470000D+00 0.2470000D+00 0.2470000D+00 0.2470000D+00 0.1950000D+05
EXPONENTS  0.2923000D+04 0.6645000D+03 0.1875000D+03 0.6062000D+02 0.2142000D+02
EXPONENTS  0.7950000D+01 0.8815000D+00 0.1950000D+05 0.2923000D+04 0.6645000D+03
EXPONENTS  0.1875000D+03 0.6062000D+02 0.2142000D+02 0.7950000D+01 0.8815000D+00
EXPONENTS  0.2257000D+01 0.3041000D+00 0.9158000D-01 0.4388000D+02 0.9926000D+01
EXPONENTS  0.2930000D+01 0.4388000D+02 0.9926000D+01 0.2930000D+01 0.4388000D+02
EXPONENTS  0.9926000D+01 0.2930000D+01 0.9132000D+00 0.9132000D+00 0.9132000D+00
EXPONENTS  0.2672000D+00 0.2672000D+00 0.2672000D+00 0.7361000D-01 0.7361000D-01
EXPONENTS  0.7361000D-01 0.3107000D+01 0.3107000D+01 0.3107000D+01 0.3107000D+01
EXPONENTS  0.3107000D+01 0.3107000D+01 0.8550000D+00 0.8550000D+00 0.8550000D+00
EXPONENTS  0.8550000D+00 0.8550000D+00 0.8550000D+00 0.2920000D+00 0.2920000D+00
EXPONENTS  0.2920000D+00 0.2920000D+00 0.2920000D+00 0.2920000D+00 0.1917000D+01
EXPONENTS  0.1917000D+01 0.1917000D+01 0.1917000D+01 0.1917000D+01 0.1917000D+01
EXPONENTS  0.1917000D+01 0.1917000D+01 0.1917000D+01 0.1917000D+01 0.7240000D+00
EXPONENTS  0.7240000D+00 0.7240000D+00 0.7240000D+00 0.7240000D+00 0.7240000D+00
EXPONENTS  0.7240000D+00 0.7240000D+00 0.7240000D+00 0.7240000D+00
MO    1     MO 0.0        OCC NO =    2.0000000  ORB. ENERGY =  -24.791789
  0.20495025D-03  0.38191137D-03  0.64362629D-03  0.96028514D-03  0.11631734D-02
  0.96784690D-03  0.35946337D-03 -0.19083154D-05 -0.15664817D-03 -0.29260088D-03
 -0.49800816D-03 -0.76164853D-03 -0.99056910D-03 -0.10026805D-02 -0.66021425D-03
  0.45129287D-03 -0.62032729D-04  0.62180139D-03  0.92479981D-04 -0.15453319D-03
 -0.13927387D-03 -0.10112186D-03 -0.89519929D-04 -0.80680317D-04 -0.58579142D-04
 -0.27475827D-18 -0.24762737D-18 -0.17979353D-18 -0.57989946D-03 -0.33647157D-03
 -0.76463533D-19 -0.15665067D-03 -0.90769940D-04 -0.11069624D-19  0.25504428D-05
  0.14795940D-05 -0.27877753D-21  0.37260969D-03 -0.77621582D-04 -0.29498811D-03
  0.78360747D-03  0.13832555D-18  0.83458805D-19  0.69600288D-04 -0.15746956D-04
 -0.53853332D-04  0.14957202D-03  0.74521030D-19  0.41339174D-19  0.22352155D-05
  0.98109168D-06 -0.32163072D-05  0.22317973D-05  0.21835420D-20  0.13017814D-20
 -0.42916940D-04  0.69302834D-04  0.19585273D-19 -0.43956727D-04 -0.30797325D-03
 -0.73079163D-19  0.17270755D-03  0.10006475D-03  0.14323345D-19 -0.12404686D-18
 -0.22760319D-05  0.44299555D-05  0.17423609D-20 -0.24457852D-05 -0.18695448D-04
 -0.53051745D-20  0.92738808D-05  0.54055815D-05  0.78091879D-22 -0.15031392D-19
 -0.52933929D-05 -0.95468521D-05 -0.14076828D-04  0.16120451D-04 -0.10306472D-04
 -0.29411624D-04 -0.64059751D-04 -0.47464225D-05  0.12854859D-19  0.12034621D-05
 -0.17165613D-05 -0.29958892D-19  0.31685804D-04  0.54701396D-05 -0.50235510D-20
  0.18329840D-04 -0.55397967D-05 -0.12790043D-04  0.14870652D-03  0.24665076D-19
  0.40096620D-19  0.10471546D-04 -0.11807727D-04  0.13361811D-05 -0.34092535D-04
  0.35965778D-21  0.70736076D-20 -0.51636313D-05 -0.93128217D-05 -0.13731750D-04
  0.15902453D-04 -0.10887606D-04 -0.29325415D-04 -0.37689734D-04 -0.53324175D-04
  0.22447291D-19  0.13238656D-06  0.17912613D-05 -0.34719565D-19  0.20724694D-04
  0.24714339D-04 -0.65694111D-20  0.64518940D-04 -0.52141711D-04 -0.12377229D-04
  0.94033702D-04  0.33985080D-19  0.94837761D-20 -0.21262053D-04  0.19743675D-04
  0.15183778D-05  0.20240997D-05  0.35959914D-20 -0.52733809D-20  0.59359310D+00
  0.11064833D+01  0.18757612D+01  0.28404552D+01  0.35519992D+01  0.30579404D+01
  0.11755839D+01 -0.50939977D-02  0.77989742D-03  0.14645092D-02  0.24938066D-02
  0.39065334D-02  0.52352143D-02  0.56311788D-02  0.33809524D-02 -0.22234565D-02
  0.64789270D-01  0.90681706D-04 -0.79939696D-03  0.56517047D-02  0.55272438D-02
  0.36520837D-02  0.32746224D-02  0.32025092D-02  0.21160332D-02 -0.10330596D-16
 -0.10103097D-16 -0.66755436D-17 -0.10671648D-02 -0.61842756D-03  0.66783190D-18
 -0.36021808D-03 -0.20757781D-03  0.13957865D-18 -0.51732221D-04 -0.29876353D-04
  0.17290297D-19  0.99619693D-03 -0.28354569D-03 -0.71265125D-03  0.22282982D-02
 -0.83222074D-18 -0.15259294D-18 -0.39226507D-03  0.79197549D-04  0.31306752D-03
 -0.82088048D-03  0.24245029D-19  0.19773472D-19 -0.93315959D-05  0.11076763D-04
 -0.17451668D-05 -0.34875544D-04  0.11350036D-18  0.61494313D-19 -0.54990123D-04
 -0.26590193D-04 -0.90021859D-19 -0.55653540D-04 -0.47904812D-04 -0.21264329D-18
  0.22062391D-03  0.12767539D-03  0.48270887D-18 -0.14667457D-17 -0.20057484D-04
  0.57657220D-04 -0.34607491D-19 -0.20708386D-04 -0.21976282D-03  0.15045140D-18
  0.80880839D-04  0.46791158D-04 -0.46628929D-19  0.26647066D-18
MO    2     MO 0.0        OCC NO =    2.0000000  ORB. ENERGY =   -6.851567
  0.25446599D+00  0.47418071D+00  0.79912565D+00  0.11922889D+01  0.14441947D+01
  0.12016776D+01  0.44630930D+00 -0.23693622D-02 -0.31979768D-02 -0.59734553D-02
 -0.10166851D-01 -0.15549077D-01 -0.20222497D-01 -0.20469751D-01 -0.13478293D-01
  0.92131569D-02  0.26496016D-01  0.59011235D-02 -0.97391372D-04 -0.23740727D-02
 -0.21396458D-02 -0.15535216D-02 -0.13708473D-02 -0.12354835D-02 -0.89704111D-03
 -0.28573165D-17 -0.25751719D-17 -0.18697418D-17 -0.11360938D-03 -0.61331487D-04
  0.10026611D-17 -0.24311922D-03 -0.14037218D-03  0.20653840D-18  0.17324244D-05
  0.10496373D-05  0.87122819D-22  0.19095133D-02  0.17489566D-02 -0.36584699D-02
  0.30005672D-03 -0.62754408D-19  0.96743966D-18  0.19395713D-03  0.14613082D-03
 -0.34008795D-03  0.72898608D-04  0.17139839D-18 -0.59037501D-19  0.18860151D-05
 -0.37735238D-05  0.18875087D-05  0.93992943D-05  0.19338974D-19 -0.79417529D-20
  0.20020280D-04  0.83887825D-03 -0.10510697D-18  0.18252727D-04 -0.24697594D-02
  0.68043249D-19 -0.78313567D-04 -0.46875363D-04  0.24727765D-18 -0.10767057D-18
  0.32811373D-05 -0.22203059D-04 -0.21339408D-19  0.40504085D-05  0.74871456D-04
  0.35882407D-19 -0.13893821D-04 -0.82622778D-05  0.28135817D-19 -0.61510614D-19
  0.12260203D-03  0.22111781D-03  0.32603808D-03 -0.33342063D-02 -0.21602972D-02
  0.41254488D-05  0.48677313D-04  0.57206455D-03  0.27162938D-18 -0.42941253D-03
  0.38521699D-02 -0.49723437D-18 -0.27586492D-04  0.58422842D-03 -0.10836313D-18
  0.12478697D-02 -0.20422919D-02  0.79442227D-03  0.73477788D-03  0.86588575D-20
  0.57144975D-18  0.20332798D-03 -0.44153428D-03  0.23820630D-03  0.17605985D-03
  0.24175384D-19  0.18192948D-18  0.12227829D-03  0.22053392D-03  0.32517714D-03
 -0.33342789D-02 -0.21605583D-02  0.44925096D-05  0.51914568D-03 -0.24171530D-03
  0.37081033D-18  0.31119098D-02 -0.23017508D-02 -0.59243154D-18  0.49045070D-03
 -0.31694310D-03 -0.32897850D-18 -0.89397025D-03  0.10282177D-03  0.79114849D-03
  0.32119025D-02 -0.21538104D-18  0.48983434D-19 -0.20153387D-03 -0.35325185D-04
  0.23685906D-03  0.64791844D-03  0.28919086D-18 -0.16709004D-18  0.57519846D-03
  0.10721948D-02  0.18176339D-02  0.27524333D-02  0.34419276D-02  0.29631790D-02
  0.11391542D-02 -0.49361416D-05 -0.55778920D-03 -0.10474293D-02 -0.17835915D-02
 -0.27939855D-02 -0.37442693D-02 -0.40274665D-02 -0.24180856D-02  0.15902348D-02
  0.52827414D-03 -0.34289221D-02 -0.30366355D-02  0.31779909D-02  0.31080056D-02
  0.20535907D-02  0.18362625D-02  0.17958246D-02  0.11865772D-02 -0.32585163D-18
 -0.31867577D-18 -0.21056256D-18 -0.72534528D-03 -0.41651863D-03 -0.37413078D-19
 -0.32294674D-02 -0.18783971D-02 -0.17795348D-18 -0.31589332D-03 -0.18367346D-03
 -0.17561162D-19  0.18398967D-02 -0.62173957D-03 -0.12181571D-02  0.42890026D-02
  0.20757879D-18  0.28128356D-18 -0.11259072D-02  0.34993276D-03  0.77597445D-03
 -0.25716981D-02 -0.25094490D-18 -0.14607251D-18 -0.61362287D-03  0.11670931D-03
  0.49691356D-03 -0.12804963D-02 -0.90171152D-19 -0.73550526D-19  0.51040083D-03
 -0.12887424D-02 -0.82823942D-19  0.54193364D-03  0.50681484D-02  0.18330008D-19
 -0.20731361D-02 -0.12019211D-02  0.23014182D-18 -0.66342416D-18 -0.25293200D-03
  0.63576131D-03  0.86314354D-19 -0.26857605D-03 -0.25030503D-02 -0.15954183D-18
  0.10273721D-02  0.59576637D-03 -0.99401230D-19 -0.34568175D-19
MO    3     MO 0.0        OCC NO =    2.0000000  ORB. ENERGY =   -1.251750
 -0.49151857D-02 -0.91591267D-02 -0.15435662D-01 -0.23029881D-01 -0.27895614D-01
 -0.23211229D-01 -0.86207712D-02  0.45765862D-04 -0.88808595D-02 -0.16588431D-01
 -0.28233593D-01 -0.43180165D-01 -0.56158366D-01 -0.56844997D-01 -0.37429548D-01
  0.25585161D-01  0.86755165D-02  0.61599987D-02  0.71494505D-03 -0.70520457D-01
 -0.63556940D-01 -0.46146460D-01 -0.40817858D-01 -0.36787314D-01 -0.26709975D-01
  0.52156508D-16  0.47006333D-16  0.34129646D-16 -0.28002710D-02 -0.16082128D-02
 -0.36254465D-16  0.40808262D-03  0.23902961D-03 -0.57742272D-17  0.14620930D-04
  0.83435241D-05  0.16034071D-19  0.10131327D-01 -0.44905392D-03 -0.96822735D-02
  0.18427680D-01  0.43680503D-17  0.52049649D-17  0.73299358D-03  0.55384305D-03
 -0.12868366D-02  0.32134974D-03  0.32953406D-17  0.28554670D-17 -0.19255683D-05
  0.16849965D-04 -0.14924397D-04 -0.33292441D-04  0.72924290D-18  0.59062485D-18
 -0.42166508D-03  0.23280528D-02  0.57164708D-18 -0.44360241D-03 -0.79693743D-02
 -0.22652021D-17  0.17085976D-02  0.98521581D-03  0.55026089D-18 -0.29154582D-17
  0.81906358D-05  0.17077586D-03  0.28899593D-18  0.64956205D-05 -0.49410749D-03
 -0.10059034D-17 -0.31067528D-04 -0.18220097D-04  0.13891555D-18 -0.21792989D-17
  0.69155565D-03  0.12472491D-02  0.18390681D-02 -0.66522893D-02 -0.36520880D-02
 -0.28801457D-03 -0.10161109D-02 -0.43612099D-03 -0.42430167D-19 -0.15514284D-02
  0.40151406D-02 -0.33332003D-17 -0.81199692D-04  0.55223171D-03 -0.15252488D-18
  0.51641586D-03 -0.10253148D-03 -0.41388438D-03  0.36653195D-02 -0.49242800D-18
  0.10607587D-16  0.36445427D-03 -0.41815984D-03  0.53705564D-04  0.21604950D-03
  0.13449667D-17 -0.71372191D-18  0.69664334D-03  0.12564250D-02  0.18525979D-02
 -0.66204356D-02 -0.36443504D-02 -0.28921344D-03 -0.90701117D-03 -0.65897787D-03
 -0.29054839D-17  0.26802287D-02 -0.33584739D-02 -0.19600807D-17  0.43441389D-03
 -0.34961076D-03  0.11775634D-17  0.16523749D-02 -0.12371990D-02 -0.41517590D-03
  0.23626265D-02 -0.79270335D-17 -0.17659542D-17 -0.12790975D-03  0.73462585D-04
  0.54447169D-04  0.78464284D-03 -0.10595715D-18  0.13072395D-17 -0.72965305D-02
 -0.13601049D-01 -0.23057122D-01 -0.34915278D-01 -0.43661677D-01 -0.37588637D-01
 -0.14450444D-01  0.62616141D-04 -0.12577393D+00 -0.23618117D+00 -0.40217579D+00
 -0.63000600D+00 -0.84428216D+00 -0.90813929D+00 -0.54524564D+00  0.35857647D+00
  0.21128409D+00  0.95851222D-01  0.10546480D-02  0.26374993D+00  0.25794167D+00
  0.17043296D+00  0.15268250D+00  0.14932015D+00  0.98662137D-01 -0.12206403D-15
 -0.11937595D-15 -0.78876740D-16  0.61544994D-01  0.35627918D-01 -0.55277498D-16
  0.74969380D-02  0.43395806D-02  0.38176114D-17 -0.11435906D-03 -0.67446640D-04
  0.49311473D-17  0.14826848D-01 -0.49884019D-02 -0.98384457D-02  0.34515169D-01
 -0.20661015D-16 -0.35365651D-16  0.64069181D-02 -0.22024855D-02 -0.42044326D-02
  0.14989996D-01 -0.97275533D-17 -0.12344647D-16  0.89475473D-03 -0.16288337D-04
 -0.87846639D-03  0.15839163D-02  0.47720960D-17  0.18158898D-17  0.11533022D-02
 -0.27627871D-02  0.53557399D-17  0.12078385D-02  0.10993810D-01 -0.26885899D-16
 -0.46677449D-02 -0.27054491D-02  0.10818680D-16  0.30368632D-16  0.76169167D-03
 -0.81745343D-03 -0.32344549D-18  0.77403262D-03  0.42214257D-02  0.63978713D-17
 -0.30591076D-02 -0.17690655D-02 -0.54275349D-17 -0.67538492D-17
MO    4     MO 0.0        OCC NO =    2.0000000  ORB. ENERGY =   -0.585903
 -0.67251865D-02 -0.12531945D-01 -0.21119793D-01 -0.31510558D-01 -0.38168081D-01
 -0.31758687D-01 -0.11795342D-01  0.62618988D-04 -0.28962780D-01 -0.54099164D-01
 -0.92077049D-01 -0.14082169D+00 -0.18314696D+00 -0.18538624D+00 -0.12206744D+00
  0.83439828D-01  0.32478808D-01  0.17926850D-01 -0.18555926D-03 -0.78238542D-01
 -0.70512906D-01 -0.51196943D-01 -0.45388757D-01 -0.40906861D-01 -0.29701034D-01
 -0.14443639D-15 -0.13017407D-15 -0.94514816D-16 -0.10162452D-01 -0.59049486D-02
  0.83670831D-18 -0.29200231D-03 -0.16863902D-03  0.20668629D-16 -0.11417843D-04
 -0.67797263D-05 -0.42405188D-17  0.10200524D-01  0.26243609D-02 -0.12824885D-01
  0.13226784D-01  0.41315623D-17 -0.37140721D-16  0.16643528D-02  0.68003603D-03
 -0.23443888D-02  0.17348084D-02  0.50740286D-17 -0.45755419D-17  0.28347372D-04
  0.15975823D-04 -0.44323195D-04  0.21419456D-04  0.45529603D-18 -0.28648021D-18
 -0.39855255D-03  0.27414824D-02 -0.17519689D-18 -0.41616321D-03 -0.91597847D-02
 -0.43228009D-17  0.16118209D-02  0.93533754D-03  0.48483916D-17  0.50850468D-18
 -0.39168867D-04  0.34327670D-03 -0.14188751D-18 -0.43241255D-04 -0.11232259D-02
  0.52952076D-18  0.16074786D-03  0.93395748D-04 -0.10385822D-18 -0.21821159D-17
  0.12806356D-01  0.23096791D-01  0.34056205D-01  0.13259733D-01 -0.46425974D-03
  0.63616307D-04 -0.10641508D-02 -0.69333993D-02 -0.29346542D-17 -0.12513630D-02
  0.67311789D-03 -0.78020647D-17 -0.15101596D-03  0.17700341D-03  0.33447040D-18
 -0.51370651D-03  0.12844858D-02 -0.77077927D-03  0.21871697D-02  0.54647519D-18
  0.62220511D-17  0.43968022D-03 -0.41219930D-03 -0.27480920D-04 -0.17229003D-03
  0.11570905D-17  0.31951426D-17  0.12826865D-01  0.23133780D-01  0.34110745D-01
  0.13296482D-01 -0.46154364D-03  0.61382979D-04 -0.65635077D-02  0.25525336D-02
  0.53448044D-17 -0.45578169D-04 -0.14272636D-02 -0.15268589D-17  0.77883665D-04
 -0.22162391D-03 -0.61324775D-17  0.17899433D-02 -0.10197959D-02 -0.77014740D-03
 -0.46839621D-03 -0.47002403D-17  0.39017580D-17 -0.27716250D-03  0.30124971D-03
 -0.24087210D-04  0.64505599D-03  0.27855266D-17 -0.19722356D-17  0.38028661D-04
  0.70887071D-04  0.12017101D-03  0.18197433D-03  0.22755954D-03  0.19590756D-03
  0.75314020D-04 -0.32634798D-06  0.34235137D-01  0.64287524D-01  0.10947057D+00
  0.17148499D+00  0.22981007D+00  0.24719171D+00  0.14841358D+00 -0.97603014D-01
 -0.62678489D-01 -0.62744288D-01 -0.79188049D-02  0.17370201D+01  0.16987677D+01
  0.11224477D+01  0.10046707D+01  0.98254599D+00  0.64920968D+00  0.73117453D-15
  0.71507272D-15  0.47247878D-15  0.38153872D+00  0.22066865D+00  0.17294547D-15
  0.48175954D-01  0.27868910D-01  0.32992221D-16  0.59690271D-03  0.34506950D-03
  0.66728084D-18  0.36007999D-01 -0.60374610D-02 -0.29970538D-01  0.73151382D-01
 -0.36642766D-16 -0.23874825D-16  0.10825618D-01 -0.22536342D-02 -0.85719834D-02
  0.22739399D-01 -0.23267059D-16 -0.46180120D-17  0.12034195D-02  0.11542203D-03
 -0.13188415D-02  0.18991594D-02  0.80211845D-17 -0.40530169D-18  0.26741701D-02
 -0.60694344D-02 -0.38785918D-17  0.27638200D-02  0.24449360D-01  0.48507331D-17
 -0.10786330D-01 -0.62410573D-02  0.67850423D-17 -0.48725900D-16  0.84222385D-03
 -0.10000842D-02  0.20021849D-17  0.86130726D-03  0.49620074D-02 -0.29358203D-17
 -0.33879788D-02 -0.19617548D-02 -0.30707343D-17  0.92767030D-17
MO    5     MO 0.0        OCC NO =    2.0000000  ORB. ENERGY =   -0.497391
 -0.29113878D-05 -0.54251805D-05 -0.91429297D-05 -0.13641176D-04 -0.16523272D-04
 -0.13748593D-04 -0.51062991D-05  0.27108268D-07 -0.51713599D-05 -0.96595094D-05
 -0.16440534D-04 -0.25143982D-04 -0.32701240D-04 -0.33101068D-04 -0.21795375D-04
  0.14898341D-04 -0.15821700D-05  0.39981022D-04 -0.76431759D-05 -0.90540911D-01
 -0.81600482D-01 -0.59247242D-01  0.15638741D+00  0.14094499D+00  0.10233520D+00
 -0.52319902D-16 -0.47153592D-16 -0.34236566D-16 -0.12314531D-01  0.21263712D-01
 -0.14733151D-15 -0.58787439D-03  0.10009562D-02  0.57944654D-17  0.56779664D-04
 -0.98515473D-04 -0.43457492D-17  0.90737580D-02 -0.90729045D-02 -0.85345675D-06
 -0.10377336D-01  0.26007880D-15 -0.85955647D-16 -0.32133782D-02  0.32168659D-02
 -0.34877322D-05  0.37156275D-02 -0.10197104D-17  0.15623227D-16 -0.60729647D-06
  0.53076011D-06  0.76536355D-07  0.10197996D-05  0.46789858D-17 -0.25157460D-17
 -0.23028035D-02  0.95175367D-04  0.11539936D-16  0.67013566D-02  0.71335683D-04
 -0.60900296D-16  0.20705401D-03 -0.35686178D-03  0.26280489D-16 -0.16384317D-15
  0.50602845D-03 -0.77466063D-04 -0.23502681D-17 -0.13430295D-02 -0.72715235D-04
  0.46492667D-17 -0.17505586D-03  0.30511342D-03  0.24015375D-17  0.20456162D-16
  0.14873051D-01  0.26824160D-01  0.39552208D-01  0.23515396D-01  0.52187765D-02
  0.62860770D-03 -0.29021817D-02 -0.97578219D-02 -0.17204721D-16 -0.39723963D-02
 -0.54662934D-02 -0.30665872D-16  0.11924913D-03 -0.64137753D-03  0.53552249D-17
 -0.17612901D-02  0.22290928D-02 -0.46780269D-03  0.41252044D-02  0.21073709D-16
  0.15527457D-16  0.18469941D-03  0.70197053D-03 -0.88666994D-03  0.18543935D-02
  0.14481670D-17  0.20535162D-17 -0.14899679D-01 -0.26872184D-01 -0.39623020D-01
 -0.23544461D-01 -0.52313859D-02 -0.62363823D-03  0.99082992D-02 -0.23795450D-02
 -0.42390976D-17  0.67248030D-02  0.70099802D-03 -0.88281817D-17  0.50114056D-03
 -0.42637464D-03 -0.13831744D-16 -0.29946297D-02  0.25378723D-02  0.45675742D-03
  0.13995285D-02 -0.86238660D-17 -0.13861676D-17 -0.13713843D-02  0.48428632D-03
  0.88709803D-03 -0.47868472D-03  0.78472823D-17  0.55558203D-17 -0.23600638D-06
 -0.43992612D-06 -0.74578292D-06 -0.11293351D-05 -0.14122376D-05 -0.12158050D-05
 -0.46739982D-06  0.20253199D-08  0.81979887D-05  0.15394371D-04  0.26213959D-04
  0.41064011D-04  0.55030606D-04  0.59192836D-04  0.35539301D-04 -0.23372140D-04
 -0.14376463D-04 -0.37216577D-04 -0.20511064D-04 -0.11112297D+01 -0.10867584D+01
 -0.71806723D+00  0.19222526D+01  0.18799211D+01  0.12421433D+01 -0.10534625D-13
 -0.10302634D-13 -0.68073856D-14 -0.24567996D+00  0.42498040D+00 -0.23336620D-14
 -0.44062331D-01  0.76205928D-01 -0.42435150D-15 -0.10146003D-02  0.17514230D-02
 -0.68763421D-17 -0.33903472D-01  0.33919439D-01 -0.15967283D-04  0.38990094D-01
 -0.26262894D-15 -0.26805233D-15 -0.13800795D-01  0.13805741D-01 -0.49459872D-05
  0.15874455D-01 -0.93409783D-16 -0.94433302D-16 -0.40661360D-02  0.40689626D-02
 -0.28265524D-05  0.46774676D-02 -0.33188746D-16 -0.31543181D-16 -0.84519989D-02
  0.82505010D-03  0.12471617D-15  0.23494895D-01  0.73450201D-03 -0.36323309D-15
  0.18611014D-02 -0.32096523D-02 -0.10915427D-16 -0.49129346D-15 -0.32057817D-02
  0.17729628D-03 -0.26349661D-17  0.92383524D-02  0.13845790D-03  0.17338977D-16
  0.37899277D-03 -0.67034674D-03 -0.94340791D-17 -0.62681066D-17
MO    6     MO 0.0        OCC NO =    2.0000000  ORB. ENERGY =   -0.480462
  0.11551789D-15  0.21526002D-15  0.36277267D-15  0.54125385D-15  0.65560950D-15
  0.54551595D-15  0.20260746D-15 -0.10756004D-17  0.11321084D-15  0.21146491D-15
  0.35991434D-15  0.55044927D-15  0.71589193D-15  0.72464492D-15  0.47714193D-15
 -0.32615284D-15 -0.33404078D-15  0.62863680D-15 -0.59086410D-16 -0.25729673D-14
 -0.23189006D-14 -0.16836722D-14  0.85770614D-16  0.77301226D-16  0.56125703D-16
  0.11452315D+00  0.10321460D+00  0.74940493D-01 -0.25986049D-15 -0.48658591D-15
  0.19905027D-01  0.60137993D-16 -0.21870213D-15  0.56806648D-03 -0.23088330D-17
  0.30030294D-17 -0.26161401D-04  0.22566022D-16 -0.79225397D-16  0.56659374D-16
  0.12638865D-15 -0.28053298D-01 -0.16231054D-01  0.11287482D-15 -0.70348381D-16
 -0.42526436D-16  0.33982922D-16  0.54531721D-03  0.31842270D-03  0.58988790D-17
 -0.17201245D-17 -0.41787545D-17 -0.41407917D-17  0.87959956D-04  0.50827309D-04
 -0.18080311D-16  0.83133589D-16 -0.15877423D-02 -0.85981992D-16 -0.52723155D-16
  0.44305781D-02  0.14022293D-15 -0.19667761D-15  0.33264882D-03  0.71376709D-02
  0.76824235D-17  0.11310057D-16  0.16064692D-03 -0.56880672D-16 -0.67327017D-16
 -0.49055089D-03  0.33833401D-16  0.33396845D-16  0.86101443D-05 -0.86918386D-03
 -0.13377489D-15 -0.24126852D-15 -0.35575029D-15 -0.14801627D-15  0.31815751D-15
  0.77445380D-16  0.11046283D-15  0.74659598D-16  0.32053843D-02  0.95044446D-18
 -0.16798033D-15  0.10024154D-02  0.77064710D-16 -0.74005481D-16 -0.19105536D-03
 -0.14040464D-15  0.18317766D-15 -0.42773023D-16  0.84024367D-16 -0.15129522D-02
 -0.41840205D-02  0.97191374D-16 -0.63100625D-16 -0.34090749D-16 -0.14998038D-15
  0.10386649D-03  0.21860935D-03 -0.32390594D-15 -0.58417771D-15 -0.86136969D-15
 -0.84776135D-15 -0.96185914D-15 -0.31542121D-16  0.91478945D-17  0.69850327D-16
  0.32125217D-02  0.19564353D-15 -0.48227587D-15  0.10092616D-02 -0.90459820D-17
 -0.14337883D-15 -0.19069446D-03 -0.19525622D-15  0.82061841D-16  0.11319438D-15
 -0.21920108D-15 -0.43779466D-02  0.79243820D-03  0.33569980D-16  0.48090893D-16
 -0.81660873D-16  0.12903598D-15  0.23687551D-03 -0.20287014D-04  0.15453508D-15
  0.28806008D-15  0.48833265D-15  0.73947955D-15  0.92472178D-15  0.79609931D-15
  0.30604964D-15 -0.13261632D-17 -0.11311246D-15 -0.21240517D-15 -0.36168938D-15
 -0.56658427D-15 -0.75928958D-15 -0.81671832D-15 -0.49035661D-15  0.32247914D-15
  0.83987818D-17 -0.77523076D-15 -0.28471093D-15  0.30653339D-14  0.29978296D-14
  0.19807928D-14  0.10576399D-13  0.10343488D-13  0.68343795D-14  0.24826488D+01
  0.24279763D+01  0.16042666D+01  0.95450604D-15  0.23899952D-14  0.55414638D+00
 -0.25293203D-15  0.60250964D-15  0.92372105D-01 -0.12111203D-16  0.32399046D-16
  0.25895274D-02  0.35019520D-15 -0.49074601D-15  0.14055080D-15  0.23846691D-14
  0.67120330D-01  0.38864692D-01 -0.17049614D-15  0.11032246D-15  0.60173682D-16
  0.74378893D-16  0.29530081D-01  0.17098969D-01 -0.42482505D-16  0.73866124D-16
 -0.31383619D-16  0.27873145D-15  0.66019505D-02  0.38214643D-02  0.83613013D-15
 -0.61441243D-15 -0.42098586D-02 -0.16279337D-14  0.53551773D-15  0.13727603D-01
 -0.88045667D-15  0.13077196D-14 -0.10980272D-02  0.25818886D-01 -0.15485867D-15
  0.51212987D-16 -0.19283497D-02  0.42540804D-15 -0.29558475D-16  0.63983282D-02
  0.39167964D-16 -0.12408049D-15 -0.61327916D-03  0.12215948D-01
MO    7     MO 0.0        OCC NO =    2.0000000  ORB. ENERGY =   -0.465522
 -0.35963449D-02 -0.67015533D-02 -0.11293971D-01 -0.16850512D-01 -0.20410673D-01
 -0.16983201D-01 -0.63076492D-02  0.33485983D-04 -0.21722251D-01 -0.40574683D-01
 -0.69058314D-01 -0.10561707D+00 -0.13736127D+00 -0.13904074D+00 -0.91551277D-01
  0.62580349D-01  0.21141636D-01  0.12593732D-01 -0.38346034D-03  0.20387990D+00
  0.18374786D+00  0.13341286D+00  0.11812599D+00  0.10646169D+00  0.77298088D-01
  0.67229035D-15  0.60590528D-15  0.43992653D-15  0.36149935D-01  0.20924549D-01
  0.16457602D-15  0.95820459D-03  0.54836101D-03 -0.34231505D-16  0.45009061D-05
  0.28533673D-05  0.89645853D-17 -0.93906429D-02  0.99708138D-02 -0.58017095D-03
 -0.33556948D-01 -0.25549087D-15  0.90632609D-17 -0.83865194D-03  0.14419053D-02
 -0.60325332D-03 -0.39527460D-02 -0.48140038D-17  0.10955715D-16 -0.26847455D-04
  0.32108950D-04 -0.52614950D-05 -0.10090187D-03 -0.11001373D-17 -0.12590520D-17
  0.62723194D-03  0.71157363D-03 -0.12851357D-16  0.64242698D-03 -0.67713651D-03
  0.40309329D-16 -0.25241228D-02 -0.14575844D-02 -0.17552584D-17  0.58256118D-16
  0.25665942D-04  0.47081977D-04  0.15240210D-17  0.27884775D-04 -0.80709605D-04
 -0.31208134D-17 -0.10488260D-03 -0.60536326D-04 -0.14512497D-17 -0.36987308D-17
  0.28701469D-01  0.51764282D-01  0.76326403D-01  0.47204351D-01  0.12005329D-01
  0.21416030D-03  0.48342890D-02 -0.12252962D-01  0.11320753D-16  0.31682267D-02
 -0.50315049D-02  0.21744935D-16  0.60799527D-03 -0.10272243D-02  0.53735372D-17
 -0.64929687D-03  0.11575336D-02 -0.50823673D-03 -0.62324453D-02 -0.10338985D-16
 -0.21418288D-16 -0.36492482D-03  0.61391604D-03 -0.24899122D-03 -0.23645769D-03
 -0.33188680D-18 -0.43799589D-17  0.28625056D-01  0.51626468D-01  0.76123196D-01
  0.47035974D-01  0.11944506D-01  0.21649024D-03 -0.81510121D-02  0.10302564D-01
  0.84845741D-17 -0.27348716D-02  0.52547678D-02  0.41331718D-17 -0.57645815D-03
  0.10410559D-02  0.38457119D-17 -0.20071522D-02  0.25115707D-02 -0.50441844D-03
 -0.46679067D-02 -0.99018419D-17 -0.33953974D-17  0.26485609D-03 -0.15807281D-04
 -0.24904881D-03 -0.96082566D-03 -0.14398101D-17 -0.20268631D-17 -0.12754561D-02
 -0.23775054D-02 -0.40304562D-02 -0.61032986D-02 -0.76321963D-02 -0.65706101D-02
 -0.25259824D-02  0.10945495D-04 -0.54692314D-03 -0.10270248D-02 -0.17488461D-02
 -0.27395570D-02 -0.36713287D-02 -0.39490091D-02 -0.23709799D-02  0.15592561D-02
  0.16768107D-02  0.11051391D-01  0.44523828D-04 -0.10913692D+01 -0.10673352D+01
 -0.70523352D+00 -0.63176892D+00 -0.61785621D+00 -0.40824372D+00  0.18886274D-13
  0.18470363D-13  0.12204150D-13 -0.24335406D+00 -0.14087779D+00  0.42153616D-14
 -0.33710364D-01 -0.19513754D-01  0.70572436D-15 -0.11686566D-02 -0.67397216D-03
  0.11141891D-16 -0.19919903D-01  0.40752214D-02  0.15844682D-01 -0.41798907D-01
  0.53099672D-15  0.30682995D-15 -0.49174347D-02  0.17240157D-02  0.31934190D-02
 -0.11568585D-01  0.22959297D-15  0.13224520D-15 -0.77063607D-03  0.48124252D-04
  0.72251181D-03 -0.14172273D-02  0.37490807D-16  0.23936202D-16 -0.12984030D-02
  0.43208159D-02 -0.32876674D-16 -0.13913927D-02 -0.16031504D-01  0.12906004D-15
  0.52866016D-02  0.30690561D-02 -0.30430014D-16  0.24652373D-15 -0.22164430D-03
  0.48283752D-03 -0.12315461D-16 -0.21798342D-03 -0.19555694D-02  0.35268150D-16
  0.88291631D-03  0.50705679D-03  0.16782322D-17  0.68842434D-16
MO    8     MO 0.0        OCC NO =    2.0000000  ORB. ENERGY =   -0.345852
 -0.22660839D-05 -0.42226990D-05 -0.71164158D-05 -0.10617634D-04 -0.12860919D-04
 -0.10701242D-04 -0.39744971D-05  0.21099769D-07 -0.12841246D-04 -0.23985981D-04
 -0.40824260D-04 -0.62436200D-04 -0.81201983D-04 -0.82194814D-04 -0.54121117D-04
  0.36994770D-04  0.10127775D-04  0.28331408D-04 -0.15992650D-05  0.12515893D+00
  0.11280015D+00  0.81900227D-01 -0.21620333D+00 -0.19485441D+00 -0.14147694D+00
  0.17251902D-15  0.15548370D-15  0.11289125D-15  0.27622859D-01 -0.47695391D-01
 -0.31405836D-16  0.13377421D-02 -0.23111906D-02  0.64202663D-16  0.10000901D-04
 -0.17229276D-04  0.45887185D-17  0.21185412D-01 -0.21190515D-01  0.51029293D-05
 -0.24503411D-01 -0.31841417D-15  0.37838384D-18  0.15259199D-02 -0.15247755D-02
 -0.11443961D-05 -0.17696752D-02  0.28985413D-16  0.38848235D-16 -0.19198414D-04