 Molden2AIM, Version 4.0.0 (06/02/2016)           Time: Fri Jun 29 17:30:00 2018
GAUSSIAN             12 MOL ORBITALS    252 PRIMITIVES        4 NUCLEI
  B    1    (CENTRE  1)   0.00000000  0.00000000  0.51596515  CHARGE =  5.0
  H    2    (CENTRE  2)   0.00000000  0.00000000  2.77480203  CHARGE =  1.0
  F    3    (CENTRE  3)   0.00000000 -2.14673077 -0.78871688  CHARGE =  9.0
  F    4    (CENTRE  4)   0.00000000  2.14673077 -0.78871688  CHARGE =  9.0
CENTRE ASSIGNMENTS    1  1  1  1  1  1  1  1  1  1  1  1  1  1  1  1  1  1  1  1
CENTRE ASSIGNMENTS    1  1  1  1  1  1  1  1  1  1  1  1  1  1  1  1  1  1  1  1
CENTRE ASSIGNMENTS    1  1  1  1  1  1  1  1  1  1  1  1  1  1  1  1  1  1  1  1
CENTRE ASSIGNMENTS    1  1  1  1  1  1  1  1  1  1  1  1  1  1  1  2  2  2  2  2
CENTRE ASSIGNMENTS    2  2  2  2  2  2  2  2  2  2  2  2  2  2  2  2  2  2  2  2
CENTRE ASSIGNMENTS    2  2  3  3  3  3  3  3  3  3  3  3  3  3  3  3  3  3  3  3
CENTRE ASSIGNMENTS    3  3  3  3  3  3  3  3  3  3  3  3  3  3  3  3  3  3  3  3
CENTRE ASSIGNMENTS    3  3  3  3  3  3  3  3  3  3  3  3  3  3  3  3  3  3  3  3
CENTRE ASSIGNMENTS    3  3  3  3  3  3  3  3  3  3  3  3  3  3  3  3  3  4  4  4
CENTRE ASSIGNMENTS    4  4  4  4  4  4  4  4  4  4  4  4  4  4  4  4  4  4  4  4
CENTRE ASSIGNMENTS    4  4  4  4  4  4  4  4  4  4  4  4  4  4  4  4  4  4  4  4
CENTRE ASSIGNMENTS    4  4  4  4  4  4  4  4  4  4  4  4  4  4  4  4  4  4  4  4
CENTRE ASSIGNMENTS    4  4  4  4  4  4  4  4  4  4  4  4
TYPE ASSIGNMENTS      1  1  1  1  1  1  1  1  1  1  1  1  1  1  1  1  1  1  1  2
TYPE ASSIGNMENTS      2  2  3  3  3  4  4  4  2  3  4  2  3  4  2  3  4  5  6  7
TYPE ASSIGNMENTS      8  9 10  5  6  7  8  9 10  5  6  7  8  9 10 11 12 13 17 14
TYPE ASSIGNMENTS     15 18 19 16 20 11 12 13 17 14 15 18 19 16 20  1  1  1  1  1
TYPE ASSIGNMENTS      1  2  3  4  2  3  4  2  3  4  5  6  7  8  9 10  5  6  7  8
TYPE ASSIGNMENTS      9 10  1  1  1  1  1  1  1  1  1  1  1  1  1  1  1  1  1  1
TYPE ASSIGNMENTS      1  2  2  2  3  3  3  4  4  4  2  3  4  2  3  4  2  3  4  5
TYPE ASSIGNMENTS      6  7  8  9 10  5  6  7  8  9 10  5  6  7  8  9 10 11 12 13
TYPE ASSIGNMENTS     17 14 15 18 19 16 20 11 12 13 17 14 15 18 19 16 20  1  1  1
TYPE ASSIGNMENTS      1  1  1  1  1  1  1  1  1  1  1  1  1  1  1  1  2  2  2  3
TYPE ASSIGNMENTS      3  3  4  4  4  2  3  4  2  3  4  2  3  4  5  6  7  8  9 10
TYPE ASSIGNMENTS      5  6  7  8  9 10  5  6  7  8  9 10 11 12 13 17 14 15 18 19
TYPE ASSIGNMENTS     16 20 11 12 13 17 14 15 18 19 16 20
EXPONENTS  0.5473000D+04 0.8209000D+03 0.1868000D+03 0.5283000D+02 0.1708000D+02
EXPONENTS  0.5999000D+01 0.2208000D+01 0.2415000D+00 0.5473000D+04 0.8209000D+03
EXPONENTS  0.1868000D+03 0.5283000D+02 0.1708000D+02 0.5999000D+01 0.2208000D+01
EXPONENTS  0.2415000D+00 0.5879000D+00 0.8610000D-01 0.2914000D-01 0.1205000D+02
EXPONENTS  0.2613000D+01 0.7475000D+00 0.1205000D+02 0.2613000D+01 0.7475000D+00
EXPONENTS  0.1205000D+02 0.2613000D+01 0.7475000D+00 0.2385000D+00 0.2385000D+00
EXPONENTS  0.2385000D+00 0.7698000D-01 0.7698000D-01 0.7698000D-01 0.2096000D-01
EXPONENTS  0.2096000D-01 0.2096000D-01 0.6610000D+00 0.6610000D+00 0.6610000D+00
EXPONENTS  0.6610000D+00 0.6610000D+00 0.6610000D+00 0.1990000D+00 0.1990000D+00
EXPONENTS  0.1990000D+00 0.1990000D+00 0.1990000D+00 0.1990000D+00 0.6040000D-01
EXPONENTS  0.6040000D-01 0.6040000D-01 0.6040000D-01 0.6040000D-01 0.6040000D-01
EXPONENTS  0.4900000D+00 0.4900000D+00 0.4900000D+00 0.4900000D+00 0.4900000D+00
EXPONENTS  0.4900000D+00 0.4900000D+00 0.4900000D+00 0.4900000D+00 0.4900000D+00
EXPONENTS  0.1630000D+00 0.1630000D+00 0.1630000D+00 0.1630000D+00 0.1630000D+00
EXPONENTS  0.1630000D+00 0.1630000D+00 0.1630000D+00 0.1630000D+00 0.1630000D+00
EXPONENTS  0.3387000D+02 0.5095000D+01 0.1159000D+01 0.3258000D+00 0.1027000D+00
EXPONENTS  0.2526000D-01 0.1407000D+01 0.1407000D+01 0.1407000D+01 0.3880000D+00
EXPONENTS  0.3880000D+00 0.3880000D+00 0.1020000D+00 0.1020000D+00 0.1020000D+00
EXPONENTS  0.1057000D+01 0.1057000D+01 0.1057000D+01 0.1057000D+01 0.1057000D+01
EXPONENTS  0.1057000D+01 0.2470000D+00 0.2470000D+00 0.2470000D+00 0.2470000D+00
EXPONENTS  0.2470000D+00 0.2470000D+00 0.1950000D+05 0.2923000D+04 0.6645000D+03
EXPONENTS  0.1875000D+03 0.6062000D+02 0.2142000D+02 0.7950000D+01 0.8815000D+00
EXPONENTS  0.1950000D+05 0.2923000D+04 0.6645000D+03 0.1875000D+03 0.6062000D+02
EXPONENTS  0.2142000D+02 0.7950000D+01 0.8815000D+00 0.2257000D+01 0.3041000D+00
EXPONENTS  0.9158000D-01 0.4388000D+02 0.9926000D+01 0.2930000D+01 0.4388000D+02
EXPONENTS  0.9926000D+01 0.2930000D+01 0.4388000D+02 0.9926000D+01 0.2930000D+01
EXPONENTS  0.9132000D+00 0.9132000D+00 0.9132000D+00 0.2672000D+00 0.2672000D+00
EXPONENTS  0.2672000D+00 0.7361000D-01 0.7361000D-01 0.7361000D-01 0.3107000D+01
EXPONENTS  0.3107000D+01 0.3107000D+01 0.3107000D+01 0.3107000D+01 0.3107000D+01
EXPONENTS  0.8550000D+00 0.8550000D+00 0.8550000D+00 0.8550000D+00 0.8550000D+00
EXPONENTS  0.8550000D+00 0.2920000D+00 0.2920000D+00 0.2920000D+00 0.2920000D+00
EXPONENTS  0.2920000D+00 0.2920000D+00 0.1917000D+01 0.1917000D+01 0.1917000D+01
EXPONENTS  0.1917000D+01 0.1917000D+01 0.1917000D+01 0.1917000D+01 0.1917000D+01
EXPONENTS  0.1917000D+01 0.1917000D+01 0.7240000D+00 0.7240000D+00 0.7240000D+00
EXPONENTS  0.7240000D+00 0.7240000D+00 0.7240000D+00 0.7240000D+00 0.7240000D+00
EXPONENTS  0.7240000D+00 0.7240000D+00 0.1950000D+05 0.2923000D+04 0.6645000D+03
EXPONENTS  0.1875000D+03 0.6062000D+02 0.2142000D+02 0.7950000D+01 0.8815000D+00
EXPONENTS  0.1950000D+05 0.2923000D+04 0.6645000D+03 0.1875000D+03 0.6062000D+02
EXPONENTS  0.2142000D+02 0.7950000D+01 0.8815000D+00 0.2257000D+01 0.3041000D+00
EXPONENTS  0.9158000D-01 0.4388000D+02 0.9926000D+01 0.2930000D+01 0.4388000D+02
EXPONENTS  0.9926000D+01 0.2930000D+01 0.4388000D+02 0.9926000D+01 0.2930000D+01
EXPONENTS  0.9132000D+00 0.9132000D+00 0.9132000D+00 0.2672000D+00 0.2672000D+00
EXPONENTS  0.2672000D+00 0.7361000D-01 0.7361000D-01 0.7361000D-01 0.3107000D+01
EXPONENTS  0.3107000D+01 0.3107000D+01 0.3107000D+01 0.3107000D+01 0.3107000D+01
EXPONENTS  0.8550000D+00 0.8550000D+00 0.8550000D+00 0.8550000D+00 0.8550000D+00
EXPONENTS  0.8550000D+00 0.2920000D+00 0.2920000D+00 0.2920000D+00 0.2920000D+00
EXPONENTS  0.2920000D+00 0.2920000D+00 0.1917000D+01 0.1917000D+01 0.1917000D+01
EXPONENTS  0.1917000D+01 0.1917000D+01 0.1917000D+01 0.1917000D+01 0.1917000D+01
EXPONENTS  0.1917000D+01 0.1917000D+01 0.7240000D+00 0.7240000D+00 0.7240000D+00
EXPONENTS  0.7240000D+00 0.7240000D+00 0.7240000D+00 0.7240000D+00 0.7240000D+00
EXPONENTS  0.7240000D+00 0.7240000D+00
MO    1     MO 0.0        OCC NO =    2.0000000  ORB. ENERGY =  -24.801957
  0.67140656D-14  0.12511222D-13  0.21084869D-13  0.31458451D-13  0.38104966D-13
  0.31706171D-13  0.11775837D-13 -0.62515441D-16 -0.45129256D-14 -0.84296294D-14
 -0.14347272D-13 -0.21942569D-13 -0.28537613D-13 -0.28886533D-13 -0.19020317D-13
  0.13001436D-13 -0.16349943D-13  0.16123399D-12  0.48633465D-14 -0.95890746D-17
 -0.86422049D-17 -0.62748012D-17 -0.19555958D-03 -0.17624912D-03 -0.12796829D-03
  0.44577217D-14  0.40175456D-14  0.29169987D-14 -0.23956209D-17 -0.10091446D-02
  0.28601679D-14 -0.97392607D-18 -0.29403718D-03 -0.85599178D-14  0.97005528D-19
  0.17144321D-05  0.38397181D-15 -0.52324213D-15  0.80560830D-14 -0.75328409D-14
 -0.38210635D-16  0.11588069D-17  0.12069701D-02 -0.11260093D-13  0.21043147D-13
 -0.97830544D-14 -0.97553940D-19  0.20667951D-18  0.28557349D-03 -0.71727642D-15
  0.12137568D-14 -0.49648040D-15  0.35628079D-19  0.23563489D-19  0.56628722D-05
  0.27993882D-19 -0.56627228D-04  0.69883570D-14 -0.28249665D-18  0.26494577D-03
 -0.23360711D-14  0.19851501D-18 -0.95064090D-04 -0.18629000D-13  0.36300761D-18
  0.97367966D-20 -0.17883956D-05  0.12306234D-14 -0.46494495D-19  0.16936715D-04
  0.29309344D-15  0.17284105D-19 -0.11571528D-04 -0.39849635D-14 -0.66783298D-19
 -0.54309045D-15 -0.97948599D-15 -0.14442515D-14 -0.79468904D-14 -0.33803302D-13
 -0.31865859D-14 -0.12613643D-18 -0.72272695D-04  0.81576772D-14 -0.31521938D-18
  0.17614769D-04  0.29306575D-14 -0.23020759D-19  0.58599799D-04  0.87211492D-14
  0.14298318D-15 -0.18937064D-15  0.46387463D-16  0.26552650D-18 -0.10167030D-18
  0.18994260D-03  0.11267524D-14 -0.22983139D-15 -0.89692101D-15  0.95269841D-19
  0.46170467D-19 -0.50729089D-04  0.41974629D+00  0.78242527D+00  0.13264032D+01
  0.20085653D+01  0.25117180D+01  0.21623552D+01  0.83128830D+00 -0.36021083D-02
  0.54042820D-03  0.10148285D-02  0.17280778D-02  0.27070237D-02  0.36277302D-02
  0.39021130D-02  0.23428235D-02 -0.15407393D-02  0.45841234D-01 -0.11465835D-03
 -0.74962651D-03  0.18162245D-16  0.17762279D-16  0.11736289D-16  0.41409808D-02
  0.40497887D-02  0.26758666D-02  0.23643083D-02  0.23122419D-02  0.15277960D-02
 -0.87534072D-18 -0.80282014D-03 -0.42821601D-03  0.67810704D-18 -0.34573039D-03
 -0.20643090D-03  0.10802457D-18 -0.44611249D-04 -0.40903184D-04 -0.54929783D-03
  0.75224777D-03 -0.20294994D-03  0.84860928D-19 -0.27076642D-17  0.15730605D-02
  0.24511532D-03 -0.31950009D-03  0.74384772D-04 -0.10264481D-17 -0.22198165D-18
 -0.57417383D-03  0.30506189D-05  0.35191723D-05 -0.65697912D-05  0.55451511D-18
  0.28514361D-18 -0.40029403D-04  0.13187976D-17 -0.19363734D-03  0.21394249D-04
 -0.32574827D-17  0.48481198D-03 -0.16664217D-04 -0.69891008D-18  0.96100034D-04
 -0.47518530D-04  0.57479237D-17 -0.57620198D-18  0.85619207D-05  0.25310840D-04
  0.16037697D-17 -0.96742671D-05  0.71200751D-04  0.12483624D-18 -0.16011495D-04
 -0.14713327D-03  0.31394590D-18 -0.41974629D+00 -0.78242527D+00 -0.13264032D+01
 -0.20085653D+01 -0.25117180D+01 -0.21623552D+01 -0.83128830D+00  0.36021083D-02
 -0.54042820D-03 -0.10148285D-02 -0.17280778D-02 -0.27070237D-02 -0.36277302D-02
 -0.39021130D-02 -0.23428235D-02  0.15407393D-02 -0.45841234D-01  0.11465835D-03
  0.74962651D-03 -0.83242423D-17 -0.81409271D-17 -0.53790548D-17  0.41409808D-02
  0.40497887D-02  0.26758666D-02 -0.23643083D-02 -0.23122419D-02 -0.15277960D-02
 -0.10886743D-17 -0.80282014D-03  0.42821601D-03  0.67129132D-18 -0.34573039D-03
  0.20643090D-03  0.79086688D-20 -0.44611249D-04  0.40903184D-04  0.54929783D-03
 -0.75224777D-03  0.20294994D-03  0.11998636D-16 -0.46745112D-18  0.15730605D-02
 -0.24511532D-03  0.31950009D-03 -0.74384772D-04  0.89273141D-18 -0.41664457D-18
 -0.57417383D-03 -0.30506189D-05 -0.35191723D-05  0.65697912D-05 -0.49523665D-18
  0.46821371D-18 -0.40029403D-04 -0.89992753D-18 -0.19363734D-03 -0.21394249D-04
  0.23028523D-17  0.48481198D-03  0.16664217D-04  0.39693033D-18  0.96100034D-04
  0.47518530D-04  0.87264730D-17  0.10077223D-18  0.85619207D-05 -0.25310840D-04
 -0.12302136D-18 -0.96742671D-05 -0.71200751D-04 -0.17929533D-18 -0.16011495D-04
  0.14713327D-03 -0.39491141D-17
MO    2     MO 0.0        OCC NO =    2.0000000  ORB. ENERGY =  -24.801951
  0.28123525D-03  0.52406348D-03  0.88319190D-03  0.13177151D-02  0.15961208D-02
  0.13280914D-02  0.49326005D-03 -0.26186139D-05 -0.21786759D-03 -0.40695177D-03
 -0.69263396D-03 -0.10593072D-02 -0.13776919D-02 -0.13945365D-02 -0.91823156D-03
  0.62766193D-03 -0.27975031D-04  0.65357277D-03  0.93349723D-04 -0.17307539D-16
 -0.15598512D-16 -0.11325532D-16 -0.61108159D-14 -0.55074056D-14 -0.39987336D-14
 -0.17160988D-03 -0.15466433D-03 -0.11229633D-03 -0.18522675D-18  0.12839607D-12
 -0.41594852D-03 -0.48213796D-19  0.50254857D-13 -0.82753998D-04  0.51510713D-21
 -0.35190789D-15  0.41409984D-05 -0.43033801D-03  0.49068900D-03 -0.60350985D-04
  0.10697906D-18  0.13206642D-19 -0.35916403D-13 -0.60741322D-04  0.80980837D-04
 -0.20239514D-04  0.80715081D-19  0.82431268D-19 -0.25783841D-13 -0.33007491D-05
  0.16955025D-05  0.16052466D-05  0.23405560D-20  0.39125410D-20 -0.10799716D-14
  0.31674895D-20  0.82088988D-14  0.82135216D-04  0.37920059D-19 -0.13433065D-13
  0.15436287D-03 -0.47422528D-19 -0.11193632D-13 -0.40076852D-03 -0.68667402D-19
  0.75848573D-20  0.81709777D-15  0.56963752D-05 -0.26493887D-19 -0.26838407D-14
  0.87476283D-05  0.37393150D-20  0.23254741D-15 -0.25836754D-04 -0.22955263D-19
 -0.70905108D-05 -0.12788028D-04 -0.18855940D-04  0.26195634D-04 -0.49736281D-04
 -0.56341511D-04  0.47708544D-19  0.74177291D-14 -0.74628527D-05 -0.54371489D-20
 -0.45452242D-14  0.22204591D-04 -0.11514434D-20 -0.10328457D-13  0.14344311D-04
 -0.13844490D-04  0.55242898D-04 -0.41398408D-04 -0.15323021D-19 -0.15250981D-18
 -0.62880558D-14 -0.29638810D-06  0.23166577D-04 -0.22870189D-04  0.10357301D-19
 -0.91940171D-20  0.63517599D-14  0.41973422D+00  0.78240276D+00  0.13263650D+01
  0.20085076D+01  0.25116458D+01  0.21622930D+01  0.83126438D+00 -0.36020046D-02
  0.55085114D-03  0.10344009D-02  0.17614063D-02  0.27592325D-02  0.36976962D-02
  0.39773708D-02  0.23880082D-02 -0.15704547D-02  0.45799590D-01  0.11101557D-03
 -0.42340294D-03  0.11191887D-16  0.10945421D-16  0.72321022D-17  0.39884483D-02
  0.39006153D-02  0.25773015D-02  0.24519052D-02  0.23979097D-02  0.15844003D-02
 -0.14937005D-17 -0.72659123D-03 -0.49679706D-03  0.42096120D-18 -0.21808331D-03
 -0.11437079D-03  0.24939302D-19 -0.27484450D-04 -0.94750758D-05 -0.55362031D-03
  0.65546489D-03 -0.10184457D-03 -0.37409957D-17  0.46278331D-17  0.16778586D-02
  0.21604952D-03 -0.22999031D-03  0.13940793D-04 -0.94993202D-19 -0.58206791D-18
 -0.62610247D-03  0.74238576D-06 -0.20008393D-04  0.19266007D-04  0.14113828D-18
  0.15142463D-18 -0.25182040D-04  0.71057423D-19  0.93498293D-04 -0.48594310D-04
 -0.31231599D-18 -0.18622449D-03  0.16030334D-03  0.99143719D-19 -0.94270393D-04
 -0.14520415D-04 -0.84822292D-18 -0.54278585D-19 -0.28301625D-04  0.52245897D-04
  0.22478674D-18  0.13763815D-03  0.15933415D-04 -0.61950983D-19 -0.52733278D-04
 -0.17267111D-03  0.14785141D-18  0.41973422D+00  0.78240276D+00  0.13263650D+01
  0.20085076D+01  0.25116458D+01  0.21622930D+01  0.83126438D+00 -0.36020046D-02
  0.55085114D-03  0.10344009D-02  0.17614063D-02  0.27592325D-02  0.36976962D-02
  0.39773708D-02  0.23880082D-02 -0.15704547D-02  0.45799590D-01  0.11101556D-03
 -0.42340294D-03  0.50984885D-17  0.49862104D-17  0.32946001D-17 -0.39884483D-02
 -0.39006153D-02 -0.25773015D-02  0.24519052D-02  0.23979097D-02  0.15844003D-02
 -0.55443475D-18  0.72659123D-03 -0.49679706D-03  0.10068304D-18  0.21808331D-03
 -0.11437079D-03  0.13671282D-19  0.27484450D-04 -0.94750759D-05 -0.55362031D-03
  0.65546489D-03 -0.10184457D-03 -0.33127669D-17  0.11828390D-17 -0.16778586D-02
  0.21604952D-03 -0.22999031D-03  0.13940793D-04  0.20876912D-18 -0.39540665D-18
  0.62610247D-03  0.74238577D-06 -0.20008393D-04  0.19266007D-04 -0.59932709D-19
  0.61924979D-19  0.25182040D-04  0.64723216D-19 -0.93498293D-04 -0.48594310D-04
  0.67077488D-19  0.18622449D-03  0.16030334D-03 -0.26124714D-18  0.94270393D-04
 -0.14520415D-04  0.10021748D-17  0.12168559D-20  0.28301625D-04  0.52245897D-04
  0.24229736D-19 -0.13763815D-03  0.15933415D-04 -0.27880304D-19  0.52733278D-04
 -0.17267111D-03  0.76467294D-20
MO    3     MO 0.0        OCC NO =    2.0000000  ORB. ENERGY =   -6.899295
  0.25469233D+00  0.47460247D+00  0.79983643D+00  0.11933494D+01  0.14454792D+01
  0.12027464D+01  0.44670627D+00 -0.23714697D-02 -0.33790248D-02 -0.63116323D-02
 -0.10742430D-01 -0.16429361D-01 -0.21367359D-01 -0.21628611D-01 -0.14241344D-01
  0.97347441D-02  0.26981146D-01  0.55523749D-02  0.91925542D-04  0.47039488D-17
  0.42394591D-17  0.30781222D-17 -0.25552696D-14 -0.23029504D-14 -0.16720914D-14
 -0.30531439D-02 -0.27516623D-02 -0.19978853D-02 -0.45370292D-18  0.67501745D-14
  0.14227224D-02 -0.10856051D-19  0.15453954D-14  0.13094317D-03 -0.12816550D-20
  0.10466113D-16  0.95442389D-05 -0.39483766D-02  0.23645730D-02  0.15838036D-02
  0.10722666D-17  0.36235613D-18  0.27373980D-14 -0.30709778D-03  0.30572350D-03
  0.13742877D-05  0.10512548D-18 -0.19838206D-18  0.12294195D-14  0.24841072D-05
  0.24220554D-04 -0.26704661D-04  0.23784203D-20 -0.13611985D-19  0.16931954D-16
 -0.73950366D-19  0.22792088D-14  0.10663761D-02  0.31760264D-18 -0.10102556D-14
 -0.43556768D-03 -0.95751548D-19 -0.58273709D-14 -0.27635608D-02 -0.61768917D-18
  0.81857018D-20  0.26612795D-15 -0.21181016D-04  0.14692182D-19 -0.16266735D-15
 -0.63568279D-04 -0.39249288D-19 -0.63571650D-15  0.12711133D-03 -0.17077528D-20
  0.98370057D-04  0.17741445D-03  0.26159750D-03 -0.43084404D-02 -0.25146281D-02
 -0.10381631D-03 -0.30568486D-18  0.15107416D-14  0.72812682D-03  0.28603266D-18
  0.64246953D-15  0.44711344D-02  0.15757991D-18 -0.39454310D-15  0.70836474D-03
  0.70568199D-03  0.12774507D-02 -0.19831327D-02  0.61131467D-19  0.60824622D-18
 -0.33358407D-14  0.30463230D-03  0.14871727D-03 -0.45334957D-03 -0.57191179D-21
 -0.97238549D-19  0.66420621D-15  0.43122126D-03  0.80381511D-03  0.13626642D-02
  0.20634752D-02  0.25803830D-02  0.22214694D-02  0.85401395D-03 -0.37005823D-05
 -0.46054819D-03 -0.86482794D-03 -0.14726528D-02 -0.23069020D-02 -0.30915200D-02
 -0.33253466D-02 -0.19965337D-02  0.13130046D-02  0.52489301D-03 -0.30192281D-02
 -0.22730379D-02 -0.13020692D-17 -0.12733952D-17 -0.84138606D-18  0.32248655D-02
  0.31538480D-02  0.20838807D-02  0.19020691D-02  0.18601820D-02  0.12291009D-02
  0.39511280D-19 -0.99665226D-03 -0.38479859D-03  0.12448497D-18 -0.25937295D-02
 -0.23570715D-02 -0.69638988D-20 -0.16761788D-03 -0.25680523D-03 -0.10135124D-02
  0.13805253D-02 -0.36701283D-03 -0.54927936D-18 -0.27067705D-19  0.46252087D-02
  0.68899925D-03 -0.91699999D-03  0.22800074D-03  0.28386539D-18 -0.47242910D-19
 -0.27902652D-02  0.44991983D-03 -0.31372901D-03 -0.13619083D-03  0.87591759D-19
 -0.14309578D-19 -0.15302344D-02 -0.26020181D-18 -0.13345759D-03 -0.12921785D-02
  0.33853272D-18 -0.14736257D-02 -0.17307560D-02  0.44207270D-18  0.18739985D-02
  0.56072915D-02  0.25725316D-18  0.32657207D-19  0.10640068D-03  0.63112568D-03
  0.64515477D-19  0.66816055D-03  0.78769527D-03 -0.16248710D-18 -0.98736259D-03
 -0.26810723D-02 -0.11941490D-18  0.43122126D-03  0.80381511D-03  0.13626642D-02
  0.20634752D-02  0.25803830D-02  0.22214694D-02  0.85401395D-03 -0.37005823D-05
 -0.46054819D-03 -0.86482794D-03 -0.14726528D-02 -0.23069020D-02 -0.30915200D-02
 -0.33253466D-02 -0.19965337D-02  0.13130046D-02  0.52489301D-03 -0.30192281D-02
 -0.22730379D-02  0.70053593D-18  0.68510884D-18  0.45268038D-18 -0.32248655D-02
 -0.31538480D-02 -0.20838807D-02  0.19020691D-02  0.18601820D-02  0.12291009D-02
 -0.39049728D-19  0.99665226D-03 -0.38479859D-03 -0.26714247D-18  0.25937295D-02
 -0.23570715D-02 -0.20899423D-19  0.16761788D-03 -0.25680523D-03 -0.10135124D-02
  0.13805253D-02 -0.36701283D-03 -0.13292917D-17  0.75633731D-18 -0.46252087D-02
  0.68899925D-03 -0.91699999D-03  0.22800074D-03  0.61537384D-18 -0.14856224D-18
  0.27902652D-02  0.44991983D-03 -0.31372901D-03 -0.13619083D-03  0.17414736D-18
 -0.18839217D-18  0.15302344D-02 -0.64360275D-18  0.13345759D-03 -0.12921785D-02
  0.12468858D-17  0.14736257D-02 -0.17307560D-02  0.68392242D-18 -0.18739985D-02
  0.56072915D-02 -0.35967619D-17  0.28841415D-18 -0.10640068D-03  0.63112568D-03
 -0.69076430D-18 -0.66816055D-03  0.78769527D-03 -0.17447815D-18  0.98736259D-03
 -0.26810723D-02  0.14746431D-17
MO    4     MO 0.0        OCC NO =    2.0000000  ORB. ENERGY =   -1.280690
 -0.69598733D-02 -0.12969268D-01 -0.21856804D-01 -0.32610172D-01 -0.39500021D-01
 -0.32866961D-01 -0.12206960D-01  0.64804184D-04 -0.12694783D-01 -0.23712404D-01
 -0.40358632D-01 -0.61724074D-01 -0.80275820D-01 -0.81257327D-01 -0.53503829D-01
  0.36572819D-01  0.12763083D-01  0.60399715D-02  0.91081816D-03 -0.21136047D-15
 -0.19048976D-15 -0.13830792D-15  0.97101561D-14  0.87513303D-14  0.63540333D-14
 -0.62381180D-01 -0.56221373D-01 -0.40820363D-01 -0.62314632D-16  0.15910048D-14
  0.13770666D-02 -0.32507924D-17 -0.11145363D-14  0.15030839D-02  0.22995743D-18
  0.30553772D-16  0.41863111D-04 -0.13779604D-01  0.13241418D-01  0.53818592D-03
  0.74627264D-17 -0.19174686D-17 -0.19643794D-13 -0.17262551D-02  0.12326637D-02
  0.49359134D-03 -0.16358796D-18 -0.20526249D-18 -0.24508896D-14 -0.14436939D-04
  0.74939346D-04 -0.60502407D-04 -0.43066744D-18 -0.32125026D-18  0.11762509D-14
  0.56484411D-18 -0.84839253D-14  0.35191098D-02  0.30478237D-17 -0.15233027D-16
  0.70652337D-03 -0.47423560D-17  0.25467009D-13 -0.11263853D-01 -0.64111702D-17
  0.11961842D-18 -0.11264142D-14  0.24097812D-03  0.92019986D-19  0.15137781D-15
 -0.98815777D-04 -0.45087525D-18  0.32278648D-14 -0.62411858D-03  0.37194097D-18
  0.78901175D-03  0.14230152D-02  0.20982351D-02 -0.11800549D-01 -0.65678193D-02
 -0.65861633D-03 -0.50644604D-17 -0.66345270D-15  0.81762937D-04  0.21059768D-17
 -0.12399391D-13  0.75056002D-02  0.18504555D-17 -0.64816839D-14  0.12841674D-02
 -0.47000563D-03  0.12513173D-02 -0.78131165D-03  0.56207595D-18 -0.65476231D-17
  0.13433974D-13  0.21470739D-03  0.51444936D-03 -0.72915676D-03  0.32260361D-18
 -0.88940571D-18  0.39166198D-14 -0.52028401D-02 -0.96983193D-02 -0.16441035D-01
 -0.24896573D-01 -0.31133252D-01 -0.26802830D-01 -0.10303986D-01  0.44648860D-04
 -0.87093516D-01 -0.16354620D+00 -0.27849097D+00 -0.43625446D+00 -0.58463229D+00
 -0.62885086D+00 -0.37756123D+00  0.24830015D+00  0.14581030D+00  0.61648161D-01
  0.25490996D-03  0.21221511D-16  0.20754174D-16  0.13713161D-16  0.21608653D+00
  0.21132790D+00  0.13963328D+00  0.10821282D+00  0.10582978D+00  0.69926209D-01
  0.22980742D-16  0.48858660D-01  0.24057229D-01  0.49097648D-17  0.52725731D-02
  0.75142672D-03 -0.17679221D-17  0.25705063D-03 -0.38086785D-03 -0.83188778D-02
  0.11803637D-01 -0.34847596D-02  0.12442518D-16  0.64490100D-16  0.25930200D-01
 -0.37640388D-02  0.63590305D-02 -0.25949917D-02  0.76400562D-17  0.11652016D-16
  0.91299849D-02 -0.62299319D-03  0.97432170D-03 -0.35132851D-03  0.16627768D-17
  0.20103410D-17 -0.11449760D-03 -0.15370422D-17  0.62653899D-03 -0.25552620D-02
 -0.15362273D-16 -0.37998729D-02 -0.16161880D-02  0.19973400D-16  0.19202559D-02
  0.92819739D-02  0.26775406D-16 -0.18323383D-17  0.15095905D-02 -0.30798649D-03
  0.67271651D-17 -0.30858973D-02 -0.14526799D-02 -0.12301503D-17 -0.14428743D-02
  0.23766394D-02 -0.37223092D-17 -0.52028401D-02 -0.96983193D-02 -0.16441035D-01
 -0.24896573D-01 -0.31133252D-01 -0.26802830D-01 -0.10303986D-01  0.44648860D-04
 -0.87093516D-01 -0.16354620D+00 -0.27849097D+00 -0.43625446D+00 -0.58463229D+00
 -0.62885086D+00 -0.37756123D+00  0.24830015D+00  0.14581030D+00  0.61648161D-01
  0.25490996D-03  0.60206488D-16  0.58880630D-16  0.38904922D-16 -0.21608653D+00
 -0.21132790D+00 -0.13963328D+00  0.10821282D+00  0.10582978D+00  0.69926209D-01
  0.72195558D-19 -0.48858660D-01  0.24057229D-01  0.44313725D-19 -0.52725731D-02
  0.75142672D-03  0.50423044D-18 -0.25705063D-03 -0.38086785D-03 -0.83188778D-02
  0.11803637D-01 -0.34847596D-02 -0.10442425D-16  0.51153268D-16 -0.25930200D-01
 -0.37640388D-02  0.63590305D-02 -0.25949917D-02  0.20510396D-16  0.72035284D-17
 -0.91299849D-02 -0.62299319D-03  0.97432170D-03 -0.35132851D-03  0.31861213D-19
 -0.42415894D-18  0.11449760D-03 -0.60521366D-17 -0.62653899D-03 -0.25552620D-02
 -0.28573806D-17  0.37998729D-02 -0.16161880D-02  0.21013790D-16 -0.19202559D-02
  0.92819739D-02 -0.21251448D-16  0.26576409D-17 -0.15095905D-02 -0.30798649D-03
 -0.61290616D-17  0.30858973D-02 -0.14526799D-02 -0.18438611D-17  0.14428743D-02
  0.23766394D-02  0.15105346D-16
MO    5     MO 0.0        OCC NO =    2.0000000  ORB. ENERGY =   -1.252519
  0.51614965D-14  0.96181108D-14  0.16209177D-13  0.24183959D-13  0.29293525D-13
  0.24374395D-13  0.90527772D-14 -0.48059290D-16 -0.44183540D-14 -0.82529805D-14
 -0.14046614D-13 -0.21482747D-13 -0.27939586D-13 -0.28281195D-13 -0.18621733D-13
  0.12728982D-13  0.14179476D-13 -0.88787170D-13 -0.19864443D-13 -0.48214519D-16
 -0.43453594D-16 -0.31550127D-16 -0.10718701D+00 -0.96602867D-01 -0.70139946D-01
 -0.49024774D-14 -0.44183841D-14 -0.32080334D-14  0.16575666D-15 -0.38097848D-02
 -0.10180150D-13 -0.81248625D-17  0.24620001D-03  0.38782224D-13 -0.13980397D-17
  0.10970343D-04 -0.12953146D-14 -0.25565004D-14 -0.35766474D-14  0.61331478D-14
 -0.64458196D-16 -0.51176360D-15  0.30350923D-01  0.59289269D-14 -0.27227194D-13
  0.21298267D-13  0.10242197D-16  0.10264882D-15  0.93032146D-03  0.67174131D-15
  0.18343270D-15 -0.85517401D-15 -0.14278169D-17 -0.28343943D-17 -0.78827030D-04
 -0.32229258D-16  0.50475915D-04 -0.60892314D-14 -0.34149779D-16  0.26160619D-02
  0.79982931D-14  0.13083755D-15 -0.27674897D-02  0.10269401D-13  0.10228000D-16
  0.44609059D-17  0.72792660D-04 -0.74795015D-15 -0.60794010D-17 -0.29365990D-04
  0.51549660D-16 -0.73033167D-17 -0.18901199D-03  0.21923008D-14 -0.21439678D-16
 -0.12958554D-15 -0.23371285D-15 -0.34460946D-15 -0.24407286D-14 -0.65876673D-13
  0.12875513D-13  0.28163011D-15 -0.11023405D-02 -0.10379466D-13 -0.11163680D-15
 -0.88338574D-03  0.55782727D-14 -0.13648129D-16  0.29618054D-03  0.10219319D-13
 -0.17132805D-14  0.92570413D-15  0.78757633D-15 -0.10639338D-16  0.18190093D-16
  0.35383444D-02 -0.12549224D-14  0.25096121D-14 -0.12546897D-14 -0.87630864D-18
  0.40958395D-16  0.68839092D-04 -0.54155667D-02 -0.10094851D-01 -0.17113254D-01
 -0.25914510D-01 -0.32406186D-01 -0.27898708D-01 -0.10725282D-01  0.46474402D-04
 -0.90147448D-01 -0.16928094D+00 -0.28825625D+00 -0.45155171D+00 -0.60513241D+00
 -0.65090150D+00 -0.39080041D+00  0.25700679D+00  0.15185703D+00  0.74336489D-01
  0.24273811D-02  0.38901515D-15  0.38044832D-15  0.25137829D-15  0.16758983D+00
  0.16389920D+00  0.10829513D+00  0.12328262D+00  0.12056771D+00  0.79664183D-01
  0.95409778D-16  0.40557361D-01  0.29869118D-01  0.47161643D-16  0.64714880D-02
  0.63431292D-02 -0.12877008D-17 -0.43131998D-04 -0.27668480D-04 -0.73564397D-02
  0.96865563D-02 -0.23301166D-02  0.13256222D-15  0.13801681D-15  0.25041624D-01
 -0.30110031D-02  0.25874785D-02  0.42352459D-03  0.49770777D-16  0.31859731D-16
  0.13025554D-01 -0.76488879D-03  0.49566697D-03  0.26922182D-03  0.26046362D-16
  0.16541711D-16  0.24032054D-02  0.14311954D-16  0.68518174D-03 -0.16549643D-02
 -0.80936929D-16 -0.30055332D-02 -0.30004115D-02  0.38001067D-16  0.94998795D-03
  0.79653043D-02  0.72471430D-16 -0.14786916D-16 -0.47387337D-03 -0.58280321D-03
  0.51317985D-16 -0.15671772D-02 -0.12010570D-02 -0.69572369D-17  0.29887973D-02
  0.29494667D-02  0.11269439D-16  0.54155667D-02  0.10094851D-01  0.17113254D-01
  0.25914510D-01  0.32406186D-01  0.27898708D-01  0.10725282D-01 -0.46474402D-04
  0.90147448D-01  0.16928094D+00  0.28825625D+00  0.45155171D+00  0.60513241D+00
  0.65090150D+00  0.39080041D+00 -0.25700679D+00 -0.15185703D+00 -0.74336489D-01
 -0.24273811D-02  0.58899254D-15  0.57602184D-15  0.38060198D-15  0.16758983D+00
  0.16389920D+00  0.10829513D+00 -0.12328262D+00 -0.12056771D+00 -0.79664183D-01
  0.91631884D-16  0.40557361D-01 -0.29869118D-01  0.70583214D-16  0.64714880D-02
 -0.63431292D-02 -0.43504336D-17 -0.43131998D-04  0.27668480D-04  0.73564397D-02
 -0.96865563D-02  0.23301166D-02 -0.16145042D-15  0.48955947D-16  0.25041624D-01
  0.30110031D-02 -0.25874785D-02 -0.42352459D-03 -0.64536811D-16  0.12545779D-16
  0.13025554D-01  0.76488879D-03 -0.49566697D-03 -0.26922182D-03 -0.36175695D-16
  0.14284485D-16  0.24032054D-02  0.35338209D-16  0.68518174D-03  0.16549643D-02
  0.72974959D-18 -0.30055332D-02  0.30004115D-02 -0.10674438D-15  0.94998795D-03
 -0.79653043D-02  0.55381522D-16 -0.16230679D-16 -0.47387337D-03  0.58280321D-03
  0.25013427D-16 -0.15671772D-02  0.12010570D-02  0.23678610D-16  0.29887973D-02
 -0.29494667D-02 -0.38005656D-16
MO    6     MO 0.0        OCC NO =    2.0000000  ORB. ENERGY =   -0.613034
 -0.68948239D-02 -0.12848053D-01 -0.21652523D-01 -0.32305386D-01 -0.39130840D-01
 -0.32559775D-01 -0.12092870D-01  0.64198502D-04 -0.28617380D-01 -0.53453996D-01
 -0.90978970D-01 -0.13914230D+00 -0.18096281D+00 -0.18317539D+00 -0.12061170D+00
  0.82444754D-01  0.33767134D-01  0.17364331D-01  0.42042177D-03 -0.23478627D-15
 -0.21160239D-15 -0.15363706D-15 -0.65006661D-13 -0.58587602D-13 -0.42538399D-13
 -0.71458904D-01 -0.64402721D-01 -0.46760552D-01 -0.46042826D-16  0.16079402D-11
 -0.68433027D-02  0.92558658D-17  0.93045927D-12 -0.35448237D-04 -0.19628118D-17
 -0.74378002D-14  0.84949932D-05 -0.14294189D-01  0.94114741D-02  0.48827147D-02
 -0.30661004D-17  0.11453277D-15 -0.49132246D-12 -0.27332321D-02  0.24505427D-02
  0.28268941D-03  0.16160023D-16 -0.20799970D-17 -0.48363514D-12 -0.58030263D-04
  0.48994994D-04  0.90352693D-05  0.13009061D-17  0.50318579D-19 -0.25319357D-13
  0.28213069D-17  0.25514159D-13  0.31143020D-02  0.81136950D-18 -0.14376419D-12
  0.11794982D-02 -0.92752903D-17  0.67221712D-13 -0.10522404D-01 -0.65436035D-17
 -0.45664028D-18  0.84598532D-15  0.43969474D-03  0.12658630D-17 -0.39953820D-13
  0.13291424D-03  0.10405785D-18  0.37415864D-13 -0.14519985D-02 -0.39517666D-17
  0.10495837D-01  0.18929674D-01  0.27911793D-01  0.69885454D-02 -0.21612535D-02
 -0.24007879D-03  0.25438762D-17  0.19270914D-13 -0.50093107D-02  0.12475053D-16
 -0.72541646D-13  0.30131557D-02 -0.25250674D-18 -0.18598084D-12  0.38599558D-03
 -0.40381952D-03  0.12889273D-03  0.27492680D-03 -0.84306007D-17 -0.94069312D-17
  0.45116845D-13  0.38901080D-04  0.67954461D-03 -0.71844569D-03  0.38687703D-17
 -0.57737742D-17  0.66987275D-13  0.70175954D-04  0.13081102D-03  0.22175683D-03
  0.33580520D-03  0.41992559D-03  0.36151681D-03  0.13898026D-03 -0.60222422D-06
  0.29110065D-01  0.54663546D-01  0.93082591D-01  0.14581333D+00  0.19540701D+00
  0.21018659D+00  0.12619575D+00 -0.82991636D-01 -0.53200765D-01 -0.54351295D-01
 -0.68223948D-02 -0.13833643D-14 -0.13529000D-14 -0.89391826D-15  0.13488927D+01
  0.13191876D+01  0.87164302D+00  0.65332395D+00  0.63893655D+00  0.42217240D+00
 -0.33725539D-15  0.29524003D+00  0.14214037D+00 -0.37617144D-16  0.36900030D-01
  0.15374592D-01  0.56557954D-17  0.51072910D-03  0.95980316D-04 -0.23378995D-01
  0.30679527D-01 -0.73005319D-02  0.31019631D-16 -0.56883392D-17  0.54083531D-01
 -0.66709905D-02  0.10208402D-01 -0.35374113D-02 -0.81442793D-17 -0.19574307D-16
  0.15945875D-01 -0.10501417D-02  0.11655789D-02 -0.11543725D-03  0.22444869D-17