 Molden2AIM, Version 4.0.0 (06/02/2016)           Time: Fri Jun 29 19:45:09 2018
GAUSSIAN             52 MOL ORBITALS    787 PRIMITIVES        5 NUCLEI
  Br   1    (CENTRE  1)   0.00000000  0.00000000  0.00000000  CHARGE = 35.0
  Cl   2    (CENTRE  2)  -4.54387481  0.00000000  0.00000000  CHARGE = 17.0
  Cl   3    (CENTRE  3)   0.00000000 -4.54387481  0.00000000  CHARGE = 17.0
  Cl   4    (CENTRE  4)   4.54387481  0.00000000  0.00000000  CHARGE = 17.0
  Cl   5    (CENTRE  5)   0.00000000  4.54387481  0.00000000  CHARGE = 17.0
CENTRE ASSIGNMENTS    1  1  1  1  1  1  1  1  1  1  1  1  1  1  1  1  1  1  1  1
CENTRE ASSIGNMENTS    1  1  1  1  1  1  1  1  1  1  1  1  1  1  1  1  1  1  1  1
CENTRE ASSIGNMENTS    1  1  1  1  1  1  1  1  1  1  1  1  1  1  1  1  1  1  1  1
CENTRE ASSIGNMENTS    1  1  1  1  1  1  1  1  1  1  1  1  1  1  1  1  1  1  1  1
CENTRE ASSIGNMENTS    1  1  1  1  1  1  1  1  1  1  1  1  1  1  1  1  1  1  1  1
CENTRE ASSIGNMENTS    1  1  1  1  1  1  1  1  1  1  1  1  1  1  1  1  1  1  1  1
CENTRE ASSIGNMENTS    1  1  1  1  1  1  1  1  1  1  1  1  1  1  1  1  1  1  1  1
CENTRE ASSIGNMENTS    1  1  1  1  1  1  1  1  1  1  1  1  1  1  1  1  1  1  1  1
CENTRE ASSIGNMENTS    1  1  1  1  1  1  1  1  1  1  1  1  1  1  1  1  1  1  1  1
CENTRE ASSIGNMENTS    1  1  1  1  1  1  1  1  1  1  1  1  1  1  1  1  1  1  1  1
CENTRE ASSIGNMENTS    1  1  1  1  1  1  1  1  1  1  1  1  1  1  1  1  1  1  1  1
CENTRE ASSIGNMENTS    1  1  1  1  1  1  1  1  1  1  1  1  1  1  1  1  1  1  1  1
CENTRE ASSIGNMENTS    1  1  1  1  1  1  1  1  1  1  1  1  1  1  1  1  1  1  1  1
CENTRE ASSIGNMENTS    1  1  1  2  2  2  2  2  2  2  2  2  2  2  2  2  2  2  2  2
CENTRE ASSIGNMENTS    2  2  2  2  2  2  2  2  2  2  2  2  2  2  2  2  2  2  2  2
CENTRE ASSIGNMENTS    2  2  2  2  2  2  2  2  2  2  2  2  2  2  2  2  2  2  2  2
CENTRE ASSIGNMENTS    2  2  2  2  2  2  2  2  2  2  2  2  2  2  2  2  2  2  2  2
CENTRE ASSIGNMENTS    2  2  2  2  2  2  2  2  2  2  2  2  2  2  2  2  2  2  2  2
CENTRE ASSIGNMENTS    2  2  2  2  2  2  2  2  2  2  2  2  2  2  2  2  2  2  2  2
CENTRE ASSIGNMENTS    2  2  2  2  2  2  2  2  2  2  2  2  2  2  3  3  3  3  3  3
CENTRE ASSIGNMENTS    3  3  3  3  3  3  3  3  3  3  3  3  3  3  3  3  3  3  3  3
CENTRE ASSIGNMENTS    3  3  3  3  3  3  3  3  3  3  3  3  3  3  3  3  3  3  3  3
CENTRE ASSIGNMENTS    3  3  3  3  3  3  3  3  3  3  3  3  3  3  3  3  3  3  3  3
CENTRE ASSIGNMENTS    3  3  3  3  3  3  3  3  3  3  3  3  3  3  3  3  3  3  3  3
CENTRE ASSIGNMENTS    3  3  3  3  3  3  3  3  3  3  3  3  3  3  3  3  3  3  3  3
CENTRE ASSIGNMENTS    3  3  3  3  3  3  3  3  3  3  3  3  3  3  3  3  3  3  3  3
CENTRE ASSIGNMENTS    3  3  3  3  3  4  4  4  4  4  4  4  4  4  4  4  4  4  4  4
CENTRE ASSIGNMENTS    4  4  4  4  4  4  4  4  4  4  4  4  4  4  4  4  4  4  4  4
CENTRE ASSIGNMENTS    4  4  4  4  4  4  4  4  4  4  4  4  4  4  4  4  4  4  4  4
CENTRE ASSIGNMENTS    4  4  4  4  4  4  4  4  4  4  4  4  4  4  4  4  4  4  4  4
CENTRE ASSIGNMENTS    4  4  4  4  4  4  4  4  4  4  4  4  4  4  4  4  4  4  4  4
CENTRE ASSIGNMENTS    4  4  4  4  4  4  4  4  4  4  4  4  4  4  4  4  4  4  4  4
CENTRE ASSIGNMENTS    4  4  4  4  4  4  4  4  4  4  4  4  4  4  4  4  5  5  5  5
CENTRE ASSIGNMENTS    5  5  5  5  5  5  5  5  5  5  5  5  5  5  5  5  5  5  5  5
CENTRE ASSIGNMENTS    5  5  5  5  5  5  5  5  5  5  5  5  5  5  5  5  5  5  5  5
CENTRE ASSIGNMENTS    5  5  5  5  5  5  5  5  5  5  5  5  5  5  5  5  5  5  5  5
CENTRE ASSIGNMENTS    5  5  5  5  5  5  5  5  5  5  5  5  5  5  5  5  5  5  5  5
CENTRE ASSIGNMENTS    5  5  5  5  5  5  5  5  5  5  5  5  5  5  5  5  5  5  5  5
CENTRE ASSIGNMENTS    5  5  5  5  5  5  5  5  5  5  5  5  5  5  5  5  5  5  5  5
CENTRE ASSIGNMENTS    5  5  5  5  5  5  5
TYPE ASSIGNMENTS      1  1  1  1  1  1  1  1  1  1  1  1  1  1  1  1  1  1  1  1
TYPE ASSIGNMENTS      1  1  1  1  1  1  1  1  1  1  1  1  1  1  1  1  1  1  1  1
TYPE ASSIGNMENTS      1  1  1  1  1  1  1  1  1  1  1  1  1  1  1  1  1  1  1  1
TYPE ASSIGNMENTS      1  1  1  1  1  1  1  1  1  1  1  1  1  1  1  2  2  2  2  2
TYPE ASSIGNMENTS      2  2  2  2  2  2  3  3  3  3  3  3  3  3  3  3  3  4  4  4
TYPE ASSIGNMENTS      4  4  4  4  4  4  4  4  2  2  2  2  2  2  2  2  2  2  2  3
TYPE ASSIGNMENTS      3  3  3  3  3  3  3  3  3  3  4  4  4  4  4  4  4  4  4  4
TYPE ASSIGNMENTS      4  2  2  2  2  2  2  2  2  2  2  2  3  3  3  3  3  3  3  3
TYPE ASSIGNMENTS      3  3  3  4  4  4  4  4  4  4  4  4  4  4  2  3  4  2  3  4
TYPE ASSIGNMENTS      2  3  4  5  5  5  5  5  5  5  6  6  6  6  6  6  6  7  7  7
TYPE ASSIGNMENTS      7  7  7  7  8  8  8  8  8  8  8  9  9  9  9  9  9  9 10 10
TYPE ASSIGNMENTS     10 10 10 10 10  5  6  7  8  9 10  5  6  7  8  9 10  5  6  7
TYPE ASSIGNMENTS      8  9 10 11 12 13 17 14 15 18 19 16 20 11 12 13 17 14 15 18
TYPE ASSIGNMENTS     19 16 20  1  1  1  1  1  1  1  1  1  1  1  1  1  1  1  1  1
TYPE ASSIGNMENTS      1  1  1  1  1  1  1  1  1  1  1  1  1  1  1  1  1  1  1  1
TYPE ASSIGNMENTS      1  1  1  1  1  2  2  2  2  2  2  2  3  3  3  3  3  3  3  4
TYPE ASSIGNMENTS      4  4  4  4  4  4  2  2  2  2  2  2  2  3  3  3  3  3  3  3
TYPE ASSIGNMENTS      4  4  4  4  4  4  4  2  3  4  2  3  4  2  3  4  5  6  7  8
TYPE ASSIGNMENTS      9 10  5  6  7  8  9 10  5  6  7  8  9 10 11 12 13 17 14 15
TYPE ASSIGNMENTS     18 19 16 20 11 12 13 17 14 15 18 19 16 20  1  1  1  1  1  1
TYPE ASSIGNMENTS      1  1  1  1  1  1  1  1  1  1  1  1  1  1  1  1  1  1  1  1
TYPE ASSIGNMENTS      1  1  1  1  1  1  1  1  1  1  1  1  1  1  1  1  2  2  2  2
TYPE ASSIGNMENTS      2  2  2  3  3  3  3  3  3  3  4  4  4  4  4  4  4  2  2  2
TYPE ASSIGNMENTS      2  2  2  2  3  3  3  3  3  3  3  4  4  4  4  4  4  4  2  3
TYPE ASSIGNMENTS      4  2  3  4  2  3  4  5  6  7  8  9 10  5  6  7  8  9 10  5
TYPE ASSIGNMENTS      6  7  8  9 10 11 12 13 17 14 15 18 19 16 20 11 12 13 17 14
TYPE ASSIGNMENTS     15 18 19 16 20  1  1  1  1  1  1  1  1  1  1  1  1  1  1  1
TYPE ASSIGNMENTS      1  1  1  1  1  1  1  1  1  1  1  1  1  1  1  1  1  1  1  1
TYPE ASSIGNMENTS      1  1  1  1  1  1  1  2  2  2  2  2  2  2  3  3  3  3  3  3
TYPE ASSIGNMENTS      3  4  4  4  4  4  4  4  2  2  2  2  2  2  2  3  3  3  3  3
TYPE ASSIGNMENTS      3  3  4  4  4  4  4  4  4  2  3  4  2  3  4  2  3  4  5  6
TYPE ASSIGNMENTS      7  8  9 10  5  6  7  8  9 10  5  6  7  8  9 10 11 12 13 17
TYPE ASSIGNMENTS     14 15 18 19 16 20 11 12 13 17 14 15 18 19 16 20  1  1  1  1
TYPE ASSIGNMENTS      1  1  1  1  1  1  1  1  1  1  1  1  1  1  1  1  1  1  1  1
TYPE ASSIGNMENTS      1  1  1  1  1  1  1  1  1  1  1  1  1  1  1  1  1  1  2  2
TYPE ASSIGNMENTS      2  2  2  2  2  3  3  3  3  3  3  3  4  4  4  4  4  4  4  2
TYPE ASSIGNMENTS      2  2  2  2  2  2  3  3  3  3  3  3  3  4  4  4  4  4  4  4
TYPE ASSIGNMENTS      2  3  4  2  3  4  2  3  4  5  6  7  8  9 10  5  6  7  8  9
TYPE ASSIGNMENTS     10  5  6  7  8  9 10 11 12 13 17 14 15 18 19 16 20 11 12 13
TYPE ASSIGNMENTS     17 14 15 18 19 16 20
EXPONENTS  0.1063900D+08 0.1593400D+07 0.3626100D+06 0.1027000D+06 0.3350100D+05
EXPONENTS  0.1209300D+05 0.4715900D+04 0.1955600D+04 0.8526100D+03 0.3876700D+03
EXPONENTS  0.1826800D+03 0.8824500D+02 0.3926300D+02 0.1923400D+02 0.9405700D+01
EXPONENTS  0.4160100D+01 0.1899500D+01 0.3011400D+00 0.1063900D+08 0.1593400D+07
EXPONENTS  0.3626100D+06 0.1027000D+06 0.3350100D+05 0.1209300D+05 0.4715900D+04
EXPONENTS  0.1955600D+04 0.8526100D+03 0.3876700D+03 0.1826800D+03 0.8824500D+02
EXPONENTS  0.3926300D+02 0.1923400D+02 0.9405700D+01 0.4160100D+01 0.1899500D+01
EXPONENTS  0.3011400D+00 0.1063900D+08 0.1593400D+07 0.3626100D+06 0.1027000D+06
EXPONENTS  0.3350100D+05 0.1209300D+05 0.4715900D+04 0.1955600D+04 0.8526100D+03
EXPONENTS  0.3876700D+03 0.1826800D+03 0.8824500D+02 0.3926300D+02 0.1923400D+02
EXPONENTS  0.9405700D+01 0.4160100D+01 0.1899500D+01 0.3011400D+00 0.1063900D+08
EXPONENTS  0.1593400D+07 0.3626100D+06 0.1027000D+06 0.3350100D+05 0.1209300D+05
EXPONENTS  0.4715900D+04 0.1955600D+04 0.8526100D+03 0.3876700D+03 0.1826800D+03
EXPONENTS  0.8824500D+02 0.3926300D+02 0.1923400D+02 0.9405700D+01 0.4160100D+01
EXPONENTS  0.1899500D+01 0.3011400D+00 0.6047200D+00 0.1251500D+00 0.4559300D-01
EXPONENTS  0.8676500D+04 0.2055900D+04 0.6662300D+03 0.2531000D+03 0.1061200D+03
EXPONENTS  0.4724200D+02 0.2182500D+02 0.9968400D+01 0.4517100D+01 0.1998200D+01
EXPONENTS  0.2814500D+00 0.8676500D+04 0.2055900D+04 0.6662300D+03 0.2531000D+03
EXPONENTS  0.1061200D+03 0.4724200D+02 0.2182500D+02 0.9968400D+01 0.4517100D+01
EXPONENTS  0.1998200D+01 0.2814500D+00 0.8676500D+04 0.2055900D+04 0.6662300D+03
EXPONENTS  0.2531000D+03 0.1061200D+03 0.4724200D+02 0.2182500D+02 0.9968400D+01
EXPONENTS  0.4517100D+01 0.1998200D+01 0.2814500D+00 0.8676500D+04 0.2055900D+04
EXPONENTS  0.6662300D+03 0.2531000D+03 0.1061200D+03 0.4724200D+02 0.2182500D+02
EXPONENTS  0.9968400D+01 0.4517100D+01 0.1998200D+01 0.2814500D+00 0.8676500D+04
EXPONENTS  0.2055900D+04 0.6662300D+03 0.2531000D+03 0.1061200D+03 0.4724200D+02
EXPONENTS  0.2182500D+02 0.9968400D+01 0.4517100D+01 0.1998200D+01 0.2814500D+00
EXPONENTS  0.8676500D+04 0.2055900D+04 0.6662300D+03 0.2531000D+03 0.1061200D+03
EXPONENTS  0.4724200D+02 0.2182500D+02 0.9968400D+01 0.4517100D+01 0.1998200D+01
EXPONENTS  0.2814500D+00 0.8676500D+04 0.2055900D+04 0.6662300D+03 0.2531000D+03
EXPONENTS  0.1061200D+03 0.4724200D+02 0.2182500D+02 0.9968400D+01 0.4517100D+01
EXPONENTS  0.1998200D+01 0.2814500D+00 0.8676500D+04 0.2055900D+04 0.6662300D+03
EXPONENTS  0.2531000D+03 0.1061200D+03 0.4724200D+02 0.2182500D+02 0.9968400D+01
EXPONENTS  0.4517100D+01 0.1998200D+01 0.2814500D+00 0.8676500D+04 0.2055900D+04
EXPONENTS  0.6662300D+03 0.2531000D+03 0.1061200D+03 0.4724200D+02 0.2182500D+02
EXPONENTS  0.9968400D+01 0.4517100D+01 0.1998200D+01 0.2814500D+00 0.7098800D+00
EXPONENTS  0.7098800D+00 0.7098800D+00 0.1020400D+00 0.1020400D+00 0.1020400D+00
EXPONENTS  0.3514200D-01 0.3514200D-01 0.3514200D-01 0.4038300D+03 0.1211700D+03
EXPONENTS  0.4634500D+02 0.1972100D+02 0.8862400D+01 0.3996200D+01 0.1763600D+01
EXPONENTS  0.4038300D+03 0.1211700D+03 0.4634500D+02 0.1972100D+02 0.8862400D+01
EXPONENTS  0.3996200D+01 0.1763600D+01 0.4038300D+03 0.1211700D+03 0.4634500D+02
EXPONENTS  0.1972100D+02 0.8862400D+01 0.3996200D+01 0.1763600D+01 0.4038300D+03
EXPONENTS  0.1211700D+03 0.4634500D+02 0.1972100D+02 0.8862400D+01 0.3996200D+01
EXPONENTS  0.1763600D+01 0.4038300D+03 0.1211700D+03 0.4634500D+02 0.1972100D+02
EXPONENTS  0.8862400D+01 0.3996200D+01 0.1763600D+01 0.4038300D+03 0.1211700D+03
EXPONENTS  0.4634500D+02 0.1972100D+02 0.8862400D+01 0.3996200D+01 0.1763600D+01
EXPONENTS  0.7061900D+00 0.7061900D+00 0.7061900D+00 0.7061900D+00 0.7061900D+00
EXPONENTS  0.7061900D+00 0.2639000D+00 0.2639000D+00 0.2639000D+00 0.2639000D+00
EXPONENTS  0.2639000D+00 0.2639000D+00 0.1047000D+00 0.1047000D+00 0.1047000D+00
EXPONENTS  0.1047000D+00 0.1047000D+00 0.1047000D+00 0.5515000D+00 0.5515000D+00
EXPONENTS  0.5515000D+00 0.5515000D+00 0.5515000D+00 0.5515000D+00 0.5515000D+00
EXPONENTS  0.5515000D+00 0.5515000D+00 0.5515000D+00 0.2580000D+00 0.2580000D+00
EXPONENTS  0.2580000D+00 0.2580000D+00 0.2580000D+00 0.2580000D+00 0.2580000D+00
EXPONENTS  0.2580000D+00 0.2580000D+00 0.2580000D+00 0.4561000D+06 0.6833000D+05
EXPONENTS  0.1555000D+05 0.4405000D+04 0.1439000D+04 0.5204000D+03 0.2031000D+03
EXPONENTS  0.8396000D+02 0.3620000D+02 0.1583000D+02 0.6334000D+01 0.2694000D+01
EXPONENTS  0.4313000D+00 0.4561000D+06 0.6833000D+05 0.1555000D+05 0.4405000D+04
EXPONENTS  0.1439000D+04 0.5204000D+03 0.2031000D+03 0.8396000D+02 0.3620000D+02
EXPONENTS  0.1583000D+02 0.6334000D+01 0.2694000D+01 0.4313000D+00 0.4561000D+06
EXPONENTS  0.6833000D+05 0.1555000D+05 0.4405000D+04 0.1439000D+04 0.5204000D+03
EXPONENTS  0.2031000D+03 0.8396000D+02 0.3620000D+02 0.1583000D+02 0.6334000D+01
EXPONENTS  0.2694000D+01 0.4313000D+00 0.9768000D+00 0.1625000D+00 0.5910000D-01
EXPONENTS  0.6633000D+03 0.1568000D+03 0.4998000D+02 0.1842000D+02 0.7240000D+01
EXPONENTS  0.2922000D+01 0.3818000D+00 0.6633000D+03 0.1568000D+03 0.4998000D+02
EXPONENTS  0.1842000D+02 0.7240000D+01 0.2922000D+01 0.3818000D+00 0.6633000D+03
EXPONENTS  0.1568000D+03 0.4998000D+02 0.1842000D+02 0.7240000D+01 0.2922000D+01
EXPONENTS  0.3818000D+00 0.6633000D+03 0.1568000D+03 0.4998000D+02 0.1842000D+02
EXPONENTS  0.7240000D+01 0.2922000D+01 0.3818000D+00 0.6633000D+03 0.1568000D+03
EXPONENTS  0.4998000D+02 0.1842000D+02 0.7240000D+01 0.2922000D+01 0.3818000D+00
EXPONENTS  0.6633000D+03 0.1568000D+03 0.4998000D+02 0.1842000D+02 0.7240000D+01
EXPONENTS  0.2922000D+01 0.3818000D+00 0.1022000D+01 0.1022000D+01 0.1022000D+01
EXPONENTS  0.1301000D+00 0.1301000D+00 0.1301000D+00 0.4190000D-01 0.4190000D-01
EXPONENTS  0.4190000D-01 0.1046000D+01 0.1046000D+01 0.1046000D+01 0.1046000D+01
EXPONENTS  0.1046000D+01 0.1046000D+01 0.3440000D+00 0.3440000D+00 0.3440000D+00
EXPONENTS  0.3440000D+00 0.3440000D+00 0.3440000D+00 0.1350000D+00 0.1350000D+00
EXPONENTS  0.1350000D+00 0.1350000D+00 0.1350000D+00 0.1350000D+00 0.7060000D+00
EXPONENTS  0.7060000D+00 0.7060000D+00 0.7060000D+00 0.7060000D+00 0.7060000D+00
EXPONENTS  0.7060000D+00 0.7060000D+00 0.7060000D+00 0.7060000D+00 0.3120000D+00
EXPONENTS  0.3120000D+00 0.3120000D+00 0.3120000D+00 0.3120000D+00 0.3120000D+00
EXPONENTS  0.3120000D+00 0.3120000D+00 0.3120000D+00 0.3120000D+00 0.4561000D+06
EXPONENTS  0.6833000D+05 0.1555000D+05 0.4405000D+04 0.1439000D+04 0.5204000D+03
EXPONENTS  0.2031000D+03 0.8396000D+02 0.3620000D+02 0.1583000D+02 0.6334000D+01
EXPONENTS  0.2694000D+01 0.4313000D+00 0.4561000D+06 0.6833000D+05 0.1555000D+05
EXPONENTS  0.4405000D+04 0.1439000D+04 0.5204000D+03 0.2031000D+03 0.8396000D+02
EXPONENTS  0.3620000D+02 0.1583000D+02 0.6334000D+01 0.2694000D+01 0.4313000D+00
EXPONENTS  0.4561000D+06 0.6833000D+05 0.1555000D+05 0.4405000D+04 0.1439000D+04
EXPONENTS  0.5204000D+03 0.2031000D+03 0.8396000D+02 0.3620000D+02 0.1583000D+02
EXPONENTS  0.6334000D+01 0.2694000D+01 0.4313000D+00 0.9768000D+00 0.1625000D+00
EXPONENTS  0.5910000D-01 0.6633000D+03 0.1568000D+03 0.4998000D+02 0.1842000D+02
EXPONENTS  0.7240000D+01 0.2922000D+01 0.3818000D+00 0.6633000D+03 0.1568000D+03
EXPONENTS  0.4998000D+02 0.1842000D+02 0.7240000D+01 0.2922000D+01 0.3818000D+00
EXPONENTS  0.6633000D+03 0.1568000D+03 0.4998000D+02 0.1842000D+02 0.7240000D+01
EXPONENTS  0.2922000D+01 0.3818000D+00 0.6633000D+03 0.1568000D+03 0.4998000D+02
EXPONENTS  0.1842000D+02 0.7240000D+01 0.2922000D+01 0.3818000D+00 0.6633000D+03
EXPONENTS  0.1568000D+03 0.4998000D+02 0.1842000D+02 0.7240000D+01 0.2922000D+01
EXPONENTS  0.3818000D+00 0.6633000D+03 0.1568000D+03 0.4998000D+02 0.1842000D+02
EXPONENTS  0.7240000D+01 0.2922000D+01 0.3818000D+00 0.1022000D+01 0.1022000D+01
EXPONENTS  0.1022000D+01 0.1301000D+00 0.1301000D+00 0.1301000D+00 0.4190000D-01
EXPONENTS  0.4190000D-01 0.4190000D-01 0.1046000D+01 0.1046000D+01 0.1046000D+01
EXPONENTS  0.1046000D+01 0.1046000D+01 0.1046000D+01 0.3440000D+00 0.3440000D+00
EXPONENTS  0.3440000D+00 0.3440000D+00 0.3440000D+00 0.3440000D+00 0.1350000D+00
EXPONENTS  0.1350000D+00 0.1350000D+00 0.1350000D+00 0.1350000D+00 0.1350000D+00
EXPONENTS  0.7060000D+00 0.7060000D+00 0.7060000D+00 0.7060000D+00 0.7060000D+00
EXPONENTS  0.7060000D+00 0.7060000D+00 0.7060000D+00 0.7060000D+00 0.7060000D+00
EXPONENTS  0.3120000D+00 0.3120000D+00 0.3120000D+00 0.3120000D+00 0.3120000D+00
EXPONENTS  0.3120000D+00 0.3120000D+00 0.3120000D+00 0.3120000D+00 0.3120000D+00
EXPONENTS  0.4561000D+06 0.6833000D+05 0.1555000D+05 0.4405000D+04 0.1439000D+04
EXPONENTS  0.5204000D+03 0.2031000D+03 0.8396000D+02 0.3620000D+02 0.1583000D+02
EXPONENTS  0.6334000D+01 0.2694000D+01 0.4313000D+00 0.4561000D+06 0.6833000D+05
EXPONENTS  0.1555000D+05 0.4405000D+04 0.1439000D+04 0.5204000D+03 0.2031000D+03
EXPONENTS  0.8396000D+02 0.3620000D+02 0.1583000D+02 0.6334000D+01 0.2694000D+01
EXPONENTS  0.4313000D+00 0.4561000D+06 0.6833000D+05 0.1555000D+05 0.4405000D+04
EXPONENTS  0.1439000D+04 0.5204000D+03 0.2031000D+03 0.8396000D+02 0.3620000D+02
EXPONENTS  0.1583000D+02 0.6334000D+01 0.2694000D+01 0.4313000D+00 0.9768000D+00
EXPONENTS  0.1625000D+00 0.5910000D-01 0.6633000D+03 0.1568000D+03 0.4998000D+02
EXPONENTS  0.1842000D+02 0.7240000D+01 0.2922000D+01 0.3818000D+00 0.6633000D+03
EXPONENTS  0.1568000D+03 0.4998000D+02 0.1842000D+02 0.7240000D+01 0.2922000D+01
EXPONENTS  0.3818000D+00 0.6633000D+03 0.1568000D+03 0.4998000D+02 0.1842000D+02
EXPONENTS  0.7240000D+01 0.2922000D+01 0.3818000D+00 0.6633000D+03 0.1568000D+03
EXPONENTS  0.4998000D+02 0.1842000D+02 0.7240000D+01 0.2922000D+01 0.3818000D+00
EXPONENTS  0.6633000D+03 0.1568000D+03 0.4998000D+02 0.1842000D+02 0.7240000D+01
EXPONENTS  0.2922000D+01 0.3818000D+00 0.6633000D+03 0.1568000D+03 0.4998000D+02
EXPONENTS  0.1842000D+02 0.7240000D+01 0.2922000D+01 0.3818000D+00 0.1022000D+01
EXPONENTS  0.1022000D+01 0.1022000D+01 0.1301000D+00 0.1301000D+00 0.1301000D+00
EXPONENTS  0.4190000D-01 0.4190000D-01 0.4190000D-01 0.1046000D+01 0.1046000D+01
EXPONENTS  0.1046000D+01 0.1046000D+01 0.1046000D+01 0.1046000D+01 0.3440000D+00
EXPONENTS  0.3440000D+00 0.3440000D+00 0.3440000D+00 0.3440000D+00 0.3440000D+00
EXPONENTS  0.1350000D+00 0.1350000D+00 0.1350000D+00 0.1350000D+00 0.1350000D+00
EXPONENTS  0.1350000D+00 0.7060000D+00 0.7060000D+00 0.7060000D+00 0.7060000D+00
EXPONENTS  0.7060000D+00 0.7060000D+00 0.7060000D+00 0.7060000D+00 0.7060000D+00
EXPONENTS  0.7060000D+00 0.3120000D+00 0.3120000D+00 0.3120000D+00 0.3120000D+00
EXPONENTS  0.3120000D+00 0.3120000D+00 0.3120000D+00 0.3120000D+00 0.3120000D+00
EXPONENTS  0.3120000D+00 0.4561000D+06 0.6833000D+05 0.1555000D+05 0.4405000D+04
EXPONENTS  0.1439000D+04 0.5204000D+03 0.2031000D+03 0.8396000D+02 0.3620000D+02
EXPONENTS  0.1583000D+02 0.6334000D+01 0.2694000D+01 0.4313000D+00 0.4561000D+06
EXPONENTS  0.6833000D+05 0.1555000D+05 0.4405000D+04 0.1439000D+04 0.5204000D+03
EXPONENTS  0.2031000D+03 0.8396000D+02 0.3620000D+02 0.1583000D+02 0.6334000D+01
EXPONENTS  0.2694000D+01 0.4313000D+00 0.4561000D+06 0.6833000D+05 0.1555000D+05
EXPONENTS  0.4405000D+04 0.1439000D+04 0.5204000D+03 0.2031000D+03 0.8396000D+02
EXPONENTS  0.3620000D+02 0.1583000D+02 0.6334000D+01 0.2694000D+01 0.4313000D+00
EXPONENTS  0.9768000D+00 0.1625000D+00 0.5910000D-01 0.6633000D+03 0.1568000D+03
EXPONENTS  0.4998000D+02 0.1842000D+02 0.7240000D+01 0.2922000D+01 0.3818000D+00
EXPONENTS  0.6633000D+03 0.1568000D+03 0.4998000D+02 0.1842000D+02 0.7240000D+01
EXPONENTS  0.2922000D+01 0.3818000D+00 0.6633000D+03 0.1568000D+03 0.4998000D+02
EXPONENTS  0.1842000D+02 0.7240000D+01 0.2922000D+01 0.3818000D+00 0.6633000D+03
EXPONENTS  0.1568000D+03 0.4998000D+02 0.1842000D+02 0.7240000D+01 0.2922000D+01
EXPONENTS  0.3818000D+00 0.6633000D+03 0.1568000D+03 0.4998000D+02 0.1842000D+02
EXPONENTS  0.7240000D+01 0.2922000D+01 0.3818000D+00 0.6633000D+03 0.1568000D+03
EXPONENTS  0.4998000D+02 0.1842000D+02 0.7240000D+01 0.2922000D+01 0.3818000D+00
EXPONENTS  0.1022000D+01 0.1022000D+01 0.1022000D+01 0.1301000D+00 0.1301000D+00
EXPONENTS  0.1301000D+00 0.4190000D-01 0.4190000D-01 0.4190000D-01 0.1046000D+01
EXPONENTS  0.1046000D+01 0.1046000D+01 0.1046000D+01 0.1046000D+01 0.1046000D+01
EXPONENTS  0.3440000D+00 0.3440000D+00 0.3440000D+00 0.3440000D+00 0.3440000D+00
EXPONENTS  0.3440000D+00 0.1350000D+00 0.1350000D+00 0.1350000D+00 0.1350000D+00
EXPONENTS  0.1350000D+00 0.1350000D+00 0.7060000D+00 0.7060000D+00 0.7060000D+00
EXPONENTS  0.7060000D+00 0.7060000D+00 0.7060000D+00 0.7060000D+00 0.7060000D+00
EXPONENTS  0.7060000D+00 0.7060000D+00 0.3120000D+00 0.3120000D+00 0.3120000D+00
EXPONENTS  0.3120000D+00 0.3120000D+00 0.3120000D+00 0.3120000D+00 0.3120000D+00
EXPONENTS  0.3120000D+00 0.3120000D+00
MO    1     MO 0.0        OCC NO =    2.0000000  ORB. ENERGY = -483.261748
  0.78329969D+00  0.14734821D+01  0.25506702D+01  0.41810365D+01  0.65496746D+01
  0.98447188D+01  0.14070576D+02  0.18679040D+02  0.21754279D+02  0.19981094D+02
  0.11683732D+02  0.30658697D+01  0.16760990D+00 -0.59990850D-02  0.16765549D-02
 -0.49782574D-03  0.84870669D-04  0.69242792D-05  0.77973998D-04  0.14326240D-03
  0.24773370D-03  0.40569855D-03  0.63875414D-03  0.96458134D-03  0.14079942D-02
  0.19388935D-02  0.24773868D-02  0.27006419D-02  0.22230442D-02  0.60954361D-03
 -0.12294890D-02 -0.11981907D-02 -0.26219789D-03 -0.88332054D-05 -0.29924077D-06
  0.76122993D-09 -0.49991699D-04 -0.98003755D-04 -0.17165115D-03 -0.28042212D-03
 -0.44229323D-03 -0.66740073D-03 -0.97854208D-03 -0.13510392D-02 -0.17516290D-02
 -0.19479146D-02 -0.16918837D-02 -0.49146196D-03  0.12389696D-02  0.18052661D-02
  0.31078301D-03 -0.75817747D-03 -0.36087336D-03  0.17427677D-05  0.18227699D-04
  0.39495021D-04  0.67234011D-04  0.10974401D-03  0.17300067D-03  0.26110797D-03
  0.38282684D-03  0.52923093D-03  0.68688865D-03  0.76737474D-03  0.67031921D-03
  0.19854920D-03 -0.51611387D-03 -0.79395758D-03 -0.13896682D-03  0.43836316D-03
  0.37210403D-03 -0.13882869D-03  0.11286835D-03  0.73774355D-04  0.18969773D-04
 -0.22851724D-14 -0.32788179D-14 -0.43413292D-14 -0.50130052D-14 -0.46472864D-14
 -0.30087379D-14 -0.10619740D-14 -0.12447251D-15 -0.18095999D-17 -0.26499576D-18
 -0.27245680D-20 -0.10187035D-14 -0.14616592D-14 -0.19353145D-14 -0.22347399D-14
 -0.20717067D-14 -0.13412607D-14 -0.47341576D-15 -0.55488410D-16 -0.80669877D-18
 -0.11813206D-18 -0.12145810D-20 -0.21097822D-16 -0.30271639D-16 -0.40081260D-16
 -0.46282499D-16 -0.42906006D-16 -0.27778130D-16 -0.98046599D-17 -0.11491907D-17
 -0.16707105D-19 -0.24465696D-20 -0.25154535D-22 -0.51915022D-15 -0.74939930D-15
 -0.10011796D-14 -0.11894320D-14 -0.11526508D-14 -0.80123934D-15 -0.26071560D-15
  0.11734271D-15  0.12676927D-15  0.32636362D-16 -0.31833757D-19 -0.25163171D-15
 -0.36323327D-15 -0.48527096D-15 -0.57651680D-15 -0.55868896D-15 -0.38836010D-15
 -0.12636865D-15  0.56875921D-16  0.61444970D-16  0.15818819D-16 -0.15429798D-19
  0.16407756D-16  0.23684784D-16  0.31642306D-16  0.37592030D-16  0.36429559D-16
  0.25323190D-16  0.82399232D-17 -0.37086193D-17 -0.40065462D-17 -0.10314731D-17
  0.10061067D-20  0.12442480D-15  0.18079475D-15  0.24036871D-15  0.28842582D-15
  0.27905325D-15  0.19809532D-15  0.61568523D-16 -0.35348762D-16 -0.40607880D-16
 -0.10783780D-16  0.38908213D-17  0.57654888D-16  0.83775109D-16  0.11137998D-15
  0.13364826D-15  0.12930529D-15  0.91791698D-16  0.28529091D-16 -0.16379604D-16
 -0.18816529D-16 -0.49968947D-17  0.18028952D-17 -0.10901709D-16 -0.15840667D-16
 -0.21060351D-16 -0.25270963D-16 -0.24449769D-16 -0.17356489D-16 -0.53944404D-17
  0.30971474D-17  0.35579348D-17  0.94484086D-18 -0.34090153D-18 -0.32884372D-17
 -0.55951424D-17  0.60079501D-18 -0.32480183D-16 -0.38881094D-17  0.96778119D-19
 -0.25100010D-17  0.35953336D-18 -0.11478623D-19  0.64131051D-04  0.67106235D-04
  0.57178104D-04  0.37656104D-04  0.17354577D-04  0.51968563D-05  0.88420104D-06
  0.64131051D-04  0.67106235D-04  0.57178104D-04  0.37656104D-04  0.17354577D-04
  0.51968563D-05  0.88420104D-06 -0.12826210D-03 -0.13421247D-03 -0.11435621D-03
 -0.75312209D-04 -0.34709155D-04 -0.10393713D-04 -0.17684021D-05 -0.21682915D-18
 -0.22688835D-18 -0.19332102D-18 -0.12731650D-18 -0.58676386D-19 -0.17570739D-19
 -0.29895122D-20 -0.15755654D-17 -0.16486595D-17 -0.14047461D-17 -0.92513151D-18
 -0.42636557D-18 -0.12767586D-18 -0.21722965D-19  0.43419898D-18  0.45434245D-18
  0.38712409D-18  0.25495048D-18  0.11749908D-18  0.35185291D-19  0.59864790D-20
 -0.31588730D-05 -0.31588730D-05  0.63177460D-05  0.10038069D-20  0.13447885D-19
 -0.35789557D-20  0.17030940D-05  0.17030940D-05 -0.34061880D-05  0.86979008D-21
 -0.17123744D-20  0.48208692D-21  0.14954452D-05  0.14954452D-05 -0.29908904D-05
 -0.41114340D-20  0.20077898D-21 -0.50722641D-22  0.45608608D-17  0.49900619D-18
  0.33155011D-19 -0.47933526D-17 -0.38687599D-18 -0.49367017D-19 -0.88892297D-17
 -0.11101426D-17 -0.50098017D-19 -0.81377378D-22 -0.37311312D-17 -0.36493924D-18
 -0.12486554D-19  0.49608847D-17  0.46985745D-18  0.18664050D-19  0.62325087D-17
  0.62496028D-18  0.18795610D-19 -0.11393201D-22  0.30209238D-05  0.56521600D-05
  0.97656803D-05  0.15831307D-04  0.24041102D-04  0.33414305D-04  0.39724788D-04
  0.35383786D-04  0.17565571D-04  0.28300949D-05  0.43449495D-07  0.77643821D-08
  0.29014285D-09 -0.52691554D-05 -0.98420256D-05 -0.17081313D-04 -0.27716029D-04
 -0.42901121D-04 -0.61409057D-04 -0.80158002D-04 -0.85421726D-04 -0.63854475D-04
 -0.33707643D-05  0.43312648D-04  0.25732689D-04 -0.96478292D-07  0.27645194D-05
  0.51595771D-05  0.89668908D-05  0.14532692D-04  0.22571546D-04  0.32334391D-04
  0.42694551D-04  0.46165474D-04  0.36194330D-04  0.18010179D-05 -0.31027692D-04
 -0.32119413D-04  0.14534489D-04 -0.60919519D-05 -0.13395011D-04 -0.84882618D-05
  0.48987060D-04  0.64526953D-04  0.71188345D-04  0.59130103D-04  0.31405434D-04
  0.81003776D-05 -0.83269128D-08  0.11406616D-16  0.15025073D-16  0.16576175D-16
  0.13768419D-16  0.73127416D-17  0.18861694D-17 -0.19389180D-20  0.25801535D-18
  0.33986412D-18  0.37494975D-18  0.31143886D-18  0.16541275D-18  0.42664772D-19
 -0.43857936D-22 -0.42314571D-04 -0.55555930D-04 -0.63254514D-04 -0.53561324D-04
 -0.30681989D-04 -0.69790880D-05  0.32665973D-05 -0.95478168D-17 -0.12535584D-16
 -0.14272684D-16 -0.12085523D-16 -0.69230527D-17 -0.15747543D-17  0.73707168D-18
 -0.21708889D-18 -0.28502180D-18 -0.32451828D-18 -0.27478875D-18 -0.15740958D-18
 -0.35805218D-19  0.16758812D-19 -0.25199065D-05 -0.91219582D-18 -0.18768333D-19
 -0.10316109D-04 -0.16909133D-18 -0.18096780D-19 -0.54212191D-06 -0.13623996D-18
  0.28292763D-20 -0.89117082D-07  0.75905658D-06 -0.66993950D-06 -0.53035928D-18
 -0.66842508D-20 -0.15507115D-22 -0.76150605D-06  0.31950088D-07  0.72955596D-06
  0.41741685D-18 -0.12070882D-20 -0.32332816D-22 -0.15983541D-05  0.83298026D-06
  0.76537380D-06 -0.17922062D-18 -0.83596066D-20  0.45321394D-23  0.18742422D-06
  0.58245102D-19  0.62098700D-20 -0.74040565D-07  0.44179098D-18 -0.18390937D-19
 -0.48823209D-06 -0.61652628D-18 -0.23867265D-21 -0.38677821D-22 -0.22746719D-06
 -0.67757571D-20 -0.60775577D-21  0.13935588D-06 -0.18824690D-18  0.78224965D-21
  0.54304570D-06  0.20857417D-18  0.10410177D-20 -0.15544439D-22  0.30209238D-05
  0.56521600D-05  0.97656803D-05  0.15831307D-04  0.24041102D-04  0.33414305D-04
  0.39724788D-04  0.35383786D-04  0.17565571D-04  0.28300949D-05  0.43449495D-07
  0.77643821D-08  0.29014285D-09 -0.52691554D-05 -0.98420256D-05 -0.17081313D-04
 -0.27716029D-04 -0.42901121D-04 -0.61409057D-04 -0.80158002D-04 -0.85421726D-04
 -0.63854475D-04 -0.33707643D-05  0.43312648D-04  0.25732689D-04 -0.96478292D-07
  0.27645194D-05  0.51595771D-05  0.89668908D-05  0.14532692D-04  0.22571546D-04
  0.32334391D-04  0.42694551D-04  0.46165474D-04  0.36194330D-04  0.18010179D-05
 -0.31027692D-04 -0.32119413D-04  0.14534489D-04 -0.60919519D-05 -0.13395011D-04
 -0.84882618D-05  0.36716229D-16  0.48363514D-16  0.53356286D-16  0.44318529D-16
  0.23538647D-16  0.60713037D-17 -0.62410938D-20  0.48987060D-04  0.64526953D-04
  0.71188345D-04  0.59130103D-04  0.31405434D-04  0.81003776D-05 -0.83269128D-08
  0.25872250D-18  0.34079560D-18  0.37597738D-18  0.31229243D-18  0.16586610D-18
  0.42781704D-19 -0.43978138D-22 -0.29336713D-16 -0.38516954D-16 -0.43854386D-16
 -0.37134092D-16 -0.21271838D-16 -0.48386051D-17  0.22647335D-17 -0.42314571D-04
 -0.55555930D-04 -0.63254514D-04 -0.53561324D-04 -0.30681989D-04 -0.69790880D-05
  0.32665973D-05 -0.21624248D-18 -0.28391053D-18 -0.32325302D-18 -0.27371738D-18
 -0.15679585D-18 -0.35665617D-19  0.16693472D-19 -0.29435766D-17 -0.25199065D-05
 -0.19376622D-19  0.31397996D-18 -0.10316109D-04 -0.18206468D-19  0.31629194D-19
 -0.54212191D-06  0.28137355D-20  0.75905658D-06 -0.89117082D-07 -0.66993950D-06
 -0.69463841D-18 -0.89515011D-22 -0.75104089D-20  0.31950088D-07 -0.76150605D-06
  0.72955596D-06  0.66462433D-18  0.56185483D-22 -0.10187477D-20  0.83298026D-06
 -0.15983541D-05  0.76537380D-06  0.69227831D-19 -0.16674011D-22 -0.84161630D-20
  0.12191437D-17  0.18742422D-06  0.62936995D-20 -0.28696502D-18 -0.74040565D-07
 -0.23421395D-21 -0.33704662D-17 -0.48823209D-06 -0.18646885D-19 -0.10386912D-21
 -0.28894516D-18 -0.22746719D-06 -0.64899736D-21 -0.28697014D-18  0.13935588D-06
  0.10195399D-20  0.11538056D-17  0.54304570D-06  0.92745222D-21  0.52513427D-22
  0.30209238D-05  0.56521600D-05  0.97656803D-05  0.15831307D-04  0.24041102D-04
  0.33414305D-04  0.39724788D-04  0.35383786D-04  0.17565571D-04  0.28300949D-05
  0.43449495D-07  0.77643821D-08  0.29014285D-09 -0.52691554D-05 -0.98420256D-05
 -0.17081313D-04 -0.27716029D-04 -0.42901121D-04 -0.61409057D-04 -0.80158002D-04
 -0.85421726D-04 -0.63854475D-04 -0.33707643D-05  0.43312648D-04  0.25732689D-04
 -0.96478292D-07  0.27645194D-05  0.51595771D-05  0.89668908D-05  0.14532692D-04
  0.22571546D-04  0.32334391D-04  0.42694551D-04  0.46165474D-04  0.36194330D-04
  0.18010179D-05 -0.31027692D-04 -0.32119413D-04  0.14534489D-04 -0.60919519D-05
 -0.13395011D-04 -0.84882618D-05 -0.48987060D-04 -0.64526953D-04 -0.71188345D-04
 -0.59130103D-04 -0.31405434D-04 -0.81003776D-05  0.83269128D-08  0.15311351D-16
  0.20168486D-16  0.22250564D-16  0.18481651D-16  0.98160540D-17  0.25318467D-17
 -0.26026523D-20  0.26212682D-18  0.34527985D-18  0.38092456D-18  0.31640163D-18
  0.16804859D-18  0.43344634D-19 -0.44556810D-22  0.42314571D-04  0.55555930D-04
  0.63254514D-04  0.53561324D-04  0.30681989D-04  0.69790880D-05 -0.32665973D-05
 -0.11493636D-16 -0.15090301D-16 -0.17181418D-16 -0.14548519D-16 -0.83339518D-17
 -0.18956849D-17  0.88728486D-18 -0.21857352D-18 -0.28697101D-18 -0.32673761D-18
 -0.27666799D-18 -0.15848608D-18 -0.36050084D-19  0.16873423D-19  0.25199065D-05
 -0.12301857D-17 -0.19481893D-19  0.10316109D-04 -0.21433151D-18 -0.18248344D-19
  0.54212191D-06 -0.15098320D-18  0.28068935D-20 -0.89117082D-07  0.75905658D-06
 -0.66993950D-06  0.66786892D-18  0.79931328D-20  0.41827319D-22 -0.76150605D-06
  0.31950088D-07  0.72955596D-06 -0.50156924D-18  0.75137532D-21 -0.15955192D-22