 Molden2AIM, Version 4.0.0 (06/02/2016)           Time: Fri Jun 29 20:24:13 2018
GAUSSIAN             15 MOL ORBITALS    300 PRIMITIVES        4 NUCLEI
  C    1    (CENTRE  1)   0.00000000  0.00000000 -1.12839704  CHARGE =  6.0
  C    2    (CENTRE  2)   0.00000000  0.00000000  1.12839704  CHARGE =  6.0
  F    3    (CENTRE  3)   0.00000000  0.00000000 -3.55679905  CHARGE =  9.0
  F    4    (CENTRE  4)   0.00000000  0.00000000  3.55679905  CHARGE =  9.0
CENTRE ASSIGNMENTS    1  1  1  1  1  1  1  1  1  1  1  1  1  1  1  1  1  1  1  1
CENTRE ASSIGNMENTS    1  1  1  1  1  1  1  1  1  1  1  1  1  1  1  1  1  1  1  1
CENTRE ASSIGNMENTS    1  1  1  1  1  1  1  1  1  1  1  1  1  1  1  1  1  1  1  1
CENTRE ASSIGNMENTS    1  1  1  1  1  1  1  1  1  1  1  1  1  1  1  2  2  2  2  2
CENTRE ASSIGNMENTS    2  2  2  2  2  2  2  2  2  2  2  2  2  2  2  2  2  2  2  2
CENTRE ASSIGNMENTS    2  2  2  2  2  2  2  2  2  2  2  2  2  2  2  2  2  2  2  2
CENTRE ASSIGNMENTS    2  2  2  2  2  2  2  2  2  2  2  2  2  2  2  2  2  2  2  2
CENTRE ASSIGNMENTS    2  2  2  2  2  2  2  2  2  2  3  3  3  3  3  3  3  3  3  3
CENTRE ASSIGNMENTS    3  3  3  3  3  3  3  3  3  3  3  3  3  3  3  3  3  3  3  3
CENTRE ASSIGNMENTS    3  3  3  3  3  3  3  3  3  3  3  3  3  3  3  3  3  3  3  3
CENTRE ASSIGNMENTS    3  3  3  3  3  3  3  3  3  3  3  3  3  3  3  3  3  3  3  3
CENTRE ASSIGNMENTS    3  3  3  3  3  4  4  4  4  4  4  4  4  4  4  4  4  4  4  4
CENTRE ASSIGNMENTS    4  4  4  4  4  4  4  4  4  4  4  4  4  4  4  4  4  4  4  4
CENTRE ASSIGNMENTS    4  4  4  4  4  4  4  4  4  4  4  4  4  4  4  4  4  4  4  4
CENTRE ASSIGNMENTS    4  4  4  4  4  4  4  4  4  4  4  4  4  4  4  4  4  4  4  4
TYPE ASSIGNMENTS      1  1  1  1  1  1  1  1  1  1  1  1  1  1  1  1  1  1  1  2
TYPE ASSIGNMENTS      2  2  3  3  3  4  4  4  2  3  4  2  3  4  2  3  4  5  6  7
TYPE ASSIGNMENTS      8  9 10  5  6  7  8  9 10  5  6  7  8  9 10 11 12 13 17 14
TYPE ASSIGNMENTS     15 18 19 16 20 11 12 13 17 14 15 18 19 16 20  1  1  1  1  1
TYPE ASSIGNMENTS      1  1  1  1  1  1  1  1  1  1  1  1  1  1  2  2  2  3  3  3
TYPE ASSIGNMENTS      4  4  4  2  3  4  2  3  4  2  3  4  5  6  7  8  9 10  5  6
TYPE ASSIGNMENTS      7  8  9 10  5  6  7  8  9 10 11 12 13 17 14 15 18 19 16 20
TYPE ASSIGNMENTS     11 12 13 17 14 15 18 19 16 20  1  1  1  1  1  1  1  1  1  1
TYPE ASSIGNMENTS      1  1  1  1  1  1  1  1  1  2  2  2  3  3  3  4  4  4  2  3
TYPE ASSIGNMENTS      4  2  3  4  2  3  4  5  6  7  8  9 10  5  6  7  8  9 10  5
TYPE ASSIGNMENTS      6  7  8  9 10 11 12 13 17 14 15 18 19 16 20 11 12 13 17 14
TYPE ASSIGNMENTS     15 18 19 16 20  1  1  1  1  1  1  1  1  1  1  1  1  1  1  1
TYPE ASSIGNMENTS      1  1  1  1  2  2  2  3  3  3  4  4  4  2  3  4  2  3  4  2
TYPE ASSIGNMENTS      3  4  5  6  7  8  9 10  5  6  7  8  9 10  5  6  7  8  9 10
TYPE ASSIGNMENTS     11 12 13 17 14 15 18 19 16 20 11 12 13 17 14 15 18 19 16 20
EXPONENTS  0.8236000D+04 0.1235000D+04 0.2808000D+03 0.7927000D+02 0.2559000D+02
EXPONENTS  0.8997000D+01 0.3319000D+01 0.3643000D+00 0.8236000D+04 0.1235000D+04
EXPONENTS  0.2808000D+03 0.7927000D+02 0.2559000D+02 0.8997000D+01 0.3319000D+01
EXPONENTS  0.3643000D+00 0.9059000D+00 0.1285000D+00 0.4402000D-01 0.1871000D+02
EXPONENTS  0.4133000D+01 0.1200000D+01 0.1871000D+02 0.4133000D+01 0.1200000D+01
EXPONENTS  0.1871000D+02 0.4133000D+01 0.1200000D+01 0.3827000D+00 0.3827000D+00
EXPONENTS  0.3827000D+00 0.1209000D+00 0.1209000D+00 0.1209000D+00 0.3569000D-01
EXPONENTS  0.3569000D-01 0.3569000D-01 0.1097000D+01 0.1097000D+01 0.1097000D+01
EXPONENTS  0.1097000D+01 0.1097000D+01 0.1097000D+01 0.3180000D+00 0.3180000D+00
EXPONENTS  0.3180000D+00 0.3180000D+00 0.3180000D+00 0.3180000D+00 0.1000000D+00
EXPONENTS  0.1000000D+00 0.1000000D+00 0.1000000D+00 0.1000000D+00 0.1000000D+00
EXPONENTS  0.7610000D+00 0.7610000D+00 0.7610000D+00 0.7610000D+00 0.7610000D+00
EXPONENTS  0.7610000D+00 0.7610000D+00 0.7610000D+00 0.7610000D+00 0.7610000D+00
EXPONENTS  0.2680000D+00 0.2680000D+00 0.2680000D+00 0.2680000D+00 0.2680000D+00
EXPONENTS  0.2680000D+00 0.2680000D+00 0.2680000D+00 0.2680000D+00 0.2680000D+00
EXPONENTS  0.8236000D+04 0.1235000D+04 0.2808000D+03 0.7927000D+02 0.2559000D+02
EXPONENTS  0.8997000D+01 0.3319000D+01 0.3643000D+00 0.8236000D+04 0.1235000D+04
EXPONENTS  0.2808000D+03 0.7927000D+02 0.2559000D+02 0.8997000D+01 0.3319000D+01
EXPONENTS  0.3643000D+00 0.9059000D+00 0.1285000D+00 0.4402000D-01 0.1871000D+02
EXPONENTS  0.4133000D+01 0.1200000D+01 0.1871000D+02 0.4133000D+01 0.1200000D+01
EXPONENTS  0.1871000D+02 0.4133000D+01 0.1200000D+01 0.3827000D+00 0.3827000D+00
EXPONENTS  0.3827000D+00 0.1209000D+00 0.1209000D+00 0.1209000D+00 0.3569000D-01
EXPONENTS  0.3569000D-01 0.3569000D-01 0.1097000D+01 0.1097000D+01 0.1097000D+01
EXPONENTS  0.1097000D+01 0.1097000D+01 0.1097000D+01 0.3180000D+00 0.3180000D+00
EXPONENTS  0.3180000D+00 0.3180000D+00 0.3180000D+00 0.3180000D+00 0.1000000D+00
EXPONENTS  0.1000000D+00 0.1000000D+00 0.1000000D+00 0.1000000D+00 0.1000000D+00
EXPONENTS  0.7610000D+00 0.7610000D+00 0.7610000D+00 0.7610000D+00 0.7610000D+00
EXPONENTS  0.7610000D+00 0.7610000D+00 0.7610000D+00 0.7610000D+00 0.7610000D+00
EXPONENTS  0.2680000D+00 0.2680000D+00 0.2680000D+00 0.2680000D+00 0.2680000D+00
EXPONENTS  0.2680000D+00 0.2680000D+00 0.2680000D+00 0.2680000D+00 0.2680000D+00
EXPONENTS  0.1950000D+05 0.2923000D+04 0.6645000D+03 0.1875000D+03 0.6062000D+02
EXPONENTS  0.2142000D+02 0.7950000D+01 0.8815000D+00 0.1950000D+05 0.2923000D+04
EXPONENTS  0.6645000D+03 0.1875000D+03 0.6062000D+02 0.2142000D+02 0.7950000D+01
EXPONENTS  0.8815000D+00 0.2257000D+01 0.3041000D+00 0.9158000D-01 0.4388000D+02
EXPONENTS  0.9926000D+01 0.2930000D+01 0.4388000D+02 0.9926000D+01 0.2930000D+01
EXPONENTS  0.4388000D+02 0.9926000D+01 0.2930000D+01 0.9132000D+00 0.9132000D+00
EXPONENTS  0.9132000D+00 0.2672000D+00 0.2672000D+00 0.2672000D+00 0.7361000D-01
EXPONENTS  0.7361000D-01 0.7361000D-01 0.3107000D+01 0.3107000D+01 0.3107000D+01
EXPONENTS  0.3107000D+01 0.3107000D+01 0.3107000D+01 0.8550000D+00 0.8550000D+00
EXPONENTS  0.8550000D+00 0.8550000D+00 0.8550000D+00 0.8550000D+00 0.2920000D+00
EXPONENTS  0.2920000D+00 0.2920000D+00 0.2920000D+00 0.2920000D+00 0.2920000D+00
EXPONENTS  0.1917000D+01 0.1917000D+01 0.1917000D+01 0.1917000D+01 0.1917000D+01
EXPONENTS  0.1917000D+01 0.1917000D+01 0.1917000D+01 0.1917000D+01 0.1917000D+01
EXPONENTS  0.7240000D+00 0.7240000D+00 0.7240000D+00 0.7240000D+00 0.7240000D+00
EXPONENTS  0.7240000D+00 0.7240000D+00 0.7240000D+00 0.7240000D+00 0.7240000D+00
EXPONENTS  0.1950000D+05 0.2923000D+04 0.6645000D+03 0.1875000D+03 0.6062000D+02
EXPONENTS  0.2142000D+02 0.7950000D+01 0.8815000D+00 0.1950000D+05 0.2923000D+04
EXPONENTS  0.6645000D+03 0.1875000D+03 0.6062000D+02 0.2142000D+02 0.7950000D+01
EXPONENTS  0.8815000D+00 0.2257000D+01 0.3041000D+00 0.9158000D-01 0.4388000D+02
EXPONENTS  0.9926000D+01 0.2930000D+01 0.4388000D+02 0.9926000D+01 0.2930000D+01
EXPONENTS  0.4388000D+02 0.9926000D+01 0.2930000D+01 0.9132000D+00 0.9132000D+00
EXPONENTS  0.9132000D+00 0.2672000D+00 0.2672000D+00 0.2672000D+00 0.7361000D-01
EXPONENTS  0.7361000D-01 0.7361000D-01 0.3107000D+01 0.3107000D+01 0.3107000D+01
EXPONENTS  0.3107000D+01 0.3107000D+01 0.3107000D+01 0.8550000D+00 0.8550000D+00
EXPONENTS  0.8550000D+00 0.8550000D+00 0.8550000D+00 0.8550000D+00 0.2920000D+00
EXPONENTS  0.2920000D+00 0.2920000D+00 0.2920000D+00 0.2920000D+00 0.2920000D+00
EXPONENTS  0.1917000D+01 0.1917000D+01 0.1917000D+01 0.1917000D+01 0.1917000D+01
EXPONENTS  0.1917000D+01 0.1917000D+01 0.1917000D+01 0.1917000D+01 0.1917000D+01
EXPONENTS  0.7240000D+00 0.7240000D+00 0.7240000D+00 0.7240000D+00 0.7240000D+00
EXPONENTS  0.7240000D+00 0.7240000D+00 0.7240000D+00 0.7240000D+00 0.7240000D+00
MO    1     MO 0.0        OCC NO =    2.0000000  ORB. ENERGY =  -24.859638
  0.44137872D-04  0.82283029D-04  0.13907281D-03  0.20907199D-03  0.25686910D-03
  0.21696702D-03  0.81831977D-04 -0.40499102D-06 -0.32854172D-04 -0.61513376D-04
 -0.10473179D-03 -0.16200415D-03 -0.21335376D-03 -0.22168823D-03 -0.14087292D-03
  0.94409753D-04 -0.31426454D-03  0.50691752D-03  0.63757305D-03 -0.26040052D-15
 -0.24414204D-15 -0.17384368D-15 -0.20562045D-16 -0.19278224D-16 -0.13727244D-16
  0.30864369D-03  0.28937308D-03  0.20605087D-03  0.50133920D-17 -0.12049452D-17
 -0.41186878D-02 -0.23390938D-17  0.28069799D-17  0.67674487D-04 -0.42146228D-19
 -0.40247343D-19  0.30850102D-04 -0.24309587D-03 -0.24309587D-03  0.48619174D-03
 -0.66354441D-19  0.13107529D-17 -0.85013339D-18  0.10814701D-04  0.10814701D-04
 -0.21629403D-04  0.16963812D-19 -0.12401053D-17  0.37394042D-18  0.11126174D-04
  0.11126174D-04 -0.22252348D-04  0.14691181D-20 -0.25039409D-18  0.51447418D-18
  0.77033041D-18 -0.21475802D-18 -0.72730604D-03  0.75666936D-18 -0.21683068D-18
  0.10909591D-02 -0.30676606D-17  0.86110474D-18  0.10909591D-02 -0.19404272D-19
  0.57458941D-19 -0.36579540D-18  0.33959867D-05  0.57216864D-19 -0.36634882D-18
 -0.50939801D-05 -0.22959369D-18  0.14637350D-17 -0.50939801D-05 -0.16161077D-20
 -0.44137847D-04 -0.82282981D-04 -0.13907273D-03 -0.20907187D-03 -0.25686895D-03
 -0.21696689D-03 -0.81831930D-04  0.40499079D-06  0.32854153D-04  0.61513341D-04
  0.10473173D-03  0.16200406D-03  0.21335364D-03  0.22168810D-03  0.14087284D-03
 -0.94409699D-04  0.31426454D-03 -0.50691749D-03 -0.63757305D-03  0.12082598D-18
  0.11328204D-18  0.80663561D-19  0.19258122D-17  0.18055713D-17  0.12856743D-17
  0.30864364D-03  0.28937303D-03  0.20605084D-03  0.10266701D-17 -0.37751977D-17
 -0.41186877D-02  0.10902026D-17 -0.24809993D-17  0.67674490D-04  0.24880070D-19
 -0.10473499D-19  0.30850102D-04  0.24309583D-03  0.24309583D-03 -0.48619166D-03
 -0.15879299D-19 -0.12634410D-17 -0.18158481D-17 -0.10814712D-04 -0.10814712D-04
  0.21629425D-04 -0.91816494D-21 -0.23746456D-17  0.13081505D-17 -0.11126174D-04
 -0.11126174D-04  0.22252349D-04 -0.55955921D-21 -0.34704827D-18  0.29479575D-18
 -0.30481642D-18  0.23426827D-18 -0.72730600D-03 -0.30535316D-18  0.23260281D-18
  0.10909590D-02  0.12198024D-17 -0.93540761D-18  0.10909590D-02 -0.24003652D-19
 -0.17822482D-20  0.55493871D-19  0.33959877D-05 -0.99853893D-21  0.55148325D-19
 -0.50939815D-05  0.63452836D-20 -0.22162994D-18 -0.50939815D-05  0.46013050D-20
  0.41986759D+00  0.78265137D+00  0.13267865D+01  0.20091458D+01  0.25124438D+01
  0.21629801D+01  0.83152852D+00 -0.36031492D-02  0.45863139D-03  0.86122852D-03
  0.14665236D-02  0.22973006D-02  0.30786531D-02  0.33115065D-02  0.19882241D-02
 -0.13075398D-02  0.45968842D-01 -0.65057113D-03 -0.51475783D-03 -0.83181087D-17
 -0.81349287D-17 -0.53750913D-17  0.70198584D-18  0.68652682D-18  0.45361729D-18
  0.73065847D-02  0.71456803D-02  0.47214531D-02  0.13324611D-17 -0.13213506D-18
 -0.18608167D-02  0.25919450D-18 -0.24666846D-17 -0.13067802D-02  0.31778354D-19
  0.22148890D-18 -0.71377272D-04 -0.11077421D-02 -0.11077421D-02  0.22154842D-02
  0.34479669D-18 -0.47043640D-17  0.57630863D-17  0.61280580D-03  0.61280580D-03
 -0.12256116D-02 -0.72422004D-19  0.38768687D-18 -0.29513468D-17  0.17377191D-03
  0.17377191D-03 -0.34754382D-03 -0.27545354D-20  0.73439223D-18 -0.12340859D-17
  0.18605733D-17 -0.11603704D-17  0.11064390D-03  0.16863963D-17 -0.13245183D-17
 -0.16596584D-03 -0.72681161D-17  0.48056295D-17 -0.16596584D-03 -0.91407243D-19
 -0.66282292D-18  0.48947851D-18 -0.37065950D-03 -0.69566348D-18  0.48988577D-18
  0.55598925D-03  0.26841322D-17 -0.19583213D-17  0.55598925D-03 -0.25884530D-20
 -0.41986755D+00 -0.78265130D+00 -0.13267864D+01 -0.20091456D+01 -0.25124436D+01
 -0.21629799D+01 -0.83152845D+00  0.36031489D-02 -0.45863134D-03 -0.86122843D-03
 -0.14665235D-02 -0.22973004D-02 -0.30786527D-02 -0.33115061D-02 -0.19882239D-02
  0.13075397D-02 -0.45968838D-01  0.65057111D-03  0.51475780D-03  0.91025409D-17
  0.89020862D-17  0.58819847D-17 -0.15054275D-16 -0.14722752D-16 -0.97279447D-17
  0.73065841D-02  0.71456797D-02  0.47214527D-02 -0.49216029D-18  0.17904819D-17
 -0.18608165D-02  0.88947751D-18  0.52556983D-18 -0.13067801D-02  0.15101657D-18
  0.66301512D-19 -0.71377271D-04  0.11077420D-02  0.11077420D-02 -0.22154840D-02
 -0.13818977D-17 -0.21289944D-17 -0.54333714D-18 -0.61280576D-03 -0.61280576D-03
  0.12256115D-02  0.10081339D-18  0.77625091D-18  0.36950122D-18 -0.17377191D-03
 -0.17377191D-03  0.34754381D-03 -0.20473906D-20 -0.76728219D-18 -0.89843881D-18
 -0.11161496D-19  0.50342702D-18  0.11064390D-03 -0.30366498D-18  0.98504372D-18
 -0.16596586D-03  0.33714947D-18 -0.24953248D-17 -0.16596586D-03  0.16924114D-18
  0.36336316D-19 -0.31075879D-18 -0.37065948D-03  0.33174072D-19 -0.35756850D-18
  0.55598922D-03 -0.14218302D-18  0.12898449D-17  0.55598922D-03 -0.16827176D-19
MO    2     MO 0.0        OCC NO =    2.0000000  ORB. ENERGY =  -24.859636
  0.29925778D-03  0.55788455D-03  0.94292316D-03  0.14175224D-02  0.17415900D-02
  0.14710512D-02  0.55482638D-03 -0.27458667D-05 -0.21888969D-03 -0.40983057D-03
 -0.69777160D-03 -0.10793466D-02 -0.14214615D-02 -0.14769895D-02 -0.93856053D-03
  0.62900144D-03 -0.27061289D-04  0.34681167D-03  0.38882138D-04  0.16363382D-16
  0.15341711D-16  0.10924212D-16 -0.35863135D-16 -0.33623969D-16 -0.23942269D-16
  0.61050293D-03  0.57238530D-03  0.40757243D-03 -0.57675737D-17 -0.11250115D-17
 -0.11983231D-02  0.17290303D-17 -0.29002676D-17 -0.41890073D-04  0.85076761D-19
  0.59010221D-19 -0.78586408D-05 -0.48399313D-03 -0.48399313D-03  0.96798625D-03
  0.58536427D-17 -0.81031135D-18  0.83612035D-18 -0.13029944D-03 -0.13029944D-03
  0.26059889D-03 -0.11824501D-19  0.30527904D-17 -0.29672834D-19 -0.32702903D-05
 -0.32702903D-05  0.65405806D-05 -0.13126855D-20  0.25529120D-18 -0.60910580D-18
 -0.15120508D-18  0.60533646D-19 -0.44588701D-03 -0.16528010D-18  0.59082685D-19
  0.66883051D-03  0.61889535D-18 -0.24068362D-18  0.66883051D-03 -0.65555946D-20
  0.21845260D-18  0.45195931D-18 -0.10933413D-04  0.21804815D-18  0.44993346D-18
  0.16400120D-04 -0.87340596D-18 -0.18058114D-17  0.16400120D-04 -0.48513233D-20
  0.29925779D-03  0.55788455D-03  0.94292317D-03  0.14175224D-02  0.17415900D-02
  0.14710512D-02  0.55482639D-03 -0.27458668D-05 -0.21888969D-03 -0.40983057D-03
 -0.69777161D-03 -0.10793466D-02 -0.14214615D-02 -0.14769895D-02 -0.93856054D-03
  0.62900145D-03 -0.27061316D-04  0.34681171D-03  0.38882192D-04  0.15581507D-18
  0.14608654D-18  0.10402232D-18 -0.19431938D-17 -0.18218677D-17 -0.12972783D-17
 -0.61050295D-03 -0.57238532D-03 -0.40757245D-03 -0.34877290D-18  0.42535914D-17
  0.11983235D-02 -0.13649439D-17  0.28961308D-17  0.41890067D-04 -0.68550550D-19
 -0.51202817D-20  0.78586382D-05 -0.48399315D-03 -0.48399315D-03  0.96798630D-03
  0.27680377D-19 -0.21991051D-18  0.22414453D-17 -0.13029944D-03 -0.13029944D-03
  0.26059889D-03  0.34820182D-20  0.15433600D-17 -0.13887182D-17 -0.32702893D-05
 -0.32702893D-05  0.65405787D-05  0.51389588D-21  0.25913944D-18 -0.39293716D-18
  0.40253639D-19 -0.22922746D-18  0.44588707D-03  0.43233976D-19 -0.22891058D-18
 -0.66883060D-03 -0.16399489D-18  0.91659297D-18 -0.66883060D-03  0.10549839D-19
  0.19748907D-18 -0.46234868D-19  0.10933413D-04  0.19676344D-18 -0.44092820D-19
 -0.16400120D-04 -0.78923064D-18  0.18279742D-18 -0.16400120D-04 -0.62929302D-20
  0.41973603D+00  0.78240614D+00  0.13263708D+01  0.20085162D+01  0.25116566D+01
  0.21623024D+01  0.83126797D+00 -0.36020202D-02  0.55020190D-03  0.10331817D-02
  0.17593303D-02  0.27559805D-02  0.36933381D-02  0.39726831D-02  0.23851937D-02
 -0.15686037D-02  0.45918557D-01 -0.28040670D-03 -0.27096927D-03 -0.90327527D-17
 -0.88338348D-17 -0.58368882D-17 -0.40734045D-17 -0.39837006D-17 -0.26321994D-17
  0.70910662D-02  0.69349079D-02  0.45821869D-02  0.13342647D-17 -0.31836752D-18
 -0.16511665D-02  0.23290819D-17  0.31632958D-17 -0.54652134D-03  0.16771368D-19
 -0.25792428D-18 -0.13898296D-04 -0.97816787D-03 -0.97816787D-03  0.19563357D-02
  0.26241957D-18 -0.24148524D-17 -0.19101215D-17  0.45870610D-03  0.45870610D-03
 -0.91741219D-03 -0.69087580D-19  0.21518346D-17  0.23300681D-17  0.51534675D-04
  0.51534675D-04 -0.10306935D-03  0.20205789D-20  0.11564789D-17  0.17517649D-17
  0.15162745D-18  0.10335878D-17 -0.10215419D-03 -0.14493237D-19  0.86948177D-18
  0.15323128D-03 -0.44038911D-18 -0.39702450D-17  0.15323128D-03 -0.18200657D-18
  0.10736689D-19 -0.43392868D-18 -0.21432271D-03 -0.24323379D-19 -0.43193748D-18
  0.32148407D-03 -0.78866875D-20  0.17337235D-17  0.32148407D-03  0.23176673D-19
  0.41973606D+00  0.78240620D+00  0.13263709D+01  0.20085164D+01  0.25116568D+01
  0.21623025D+01  0.83126804D+00 -0.36020205D-02  0.55020194D-03  0.10331818D-02
  0.17593304D-02  0.27559807D-02  0.36933384D-02  0.39726834D-02  0.23851939D-02
 -0.15686039D-02  0.45918561D-01 -0.28040676D-03 -0.27096932D-03 -0.82934867D-17
 -0.81108489D-17 -0.53591808D-17  0.14516903D-16  0.14197214D-16  0.93806994D-17
 -0.70910669D-02 -0.69349085D-02 -0.45821873D-02  0.37083638D-18 -0.18744649D-17
  0.16511666D-02  0.32585759D-18 -0.57418864D-18  0.54652145D-03  0.22814631D-19
 -0.81364185D-20  0.13898302D-04 -0.97816796D-03 -0.97816796D-03  0.19563359D-02
  0.13686838D-17  0.26376439D-17  0.84506247D-18  0.45870615D-03  0.45870615D-03
 -0.91741230D-03 -0.98557396D-19 -0.10566791D-17 -0.45979238D-18  0.51534689D-04
  0.51534689D-04 -0.10306938D-03  0.24520522D-20 -0.11032758D-18  0.96016357D-18
  0.31939531D-18 -0.73360545D-18  0.10215418D-03  0.60320983D-18 -0.12216328D-17
 -0.15323127D-03 -0.15613958D-17  0.34224491D-17 -0.15323127D-03 -0.16788871D-18
 -0.89754644D-19  0.41002080D-18  0.21432274D-03 -0.84963825D-19  0.45627401D-18
 -0.32148411D-03  0.35422776D-18 -0.16863364D-17 -0.32148411D-03  0.11668169D-19
MO    3     MO 0.0        OCC NO =    2.0000000  ORB. ENERGY =  -10.331485
  0.23230372D+00  0.43306696D+00  0.73195945D+00  0.11003748D+01  0.13519376D+01
  0.11419274D+01  0.43069301D+00 -0.21315237D-02 -0.16786118D-02 -0.31428909D-02
 -0.53510407D-02 -0.82772463D-02 -0.10900842D-01 -0.11326673D-01 -0.71975924D-02
  0.48236591D-02  0.27292240D-01 -0.42153868D-03 -0.25383885D-03 -0.32457847D-16
 -0.30431295D-16 -0.21668895D-16 -0.10643671D-15 -0.99791182D-16 -0.71057266D-16
 -0.11015267D-02 -0.10327513D-02 -0.73538047D-03  0.77623369D-17  0.13374987D-16
 -0.35995459D-03  0.22377101D-17 -0.48983311D-17 -0.12486471D-02 -0.36830067D-18
  0.58345307D-19 -0.17989705D-05 -0.25575214D-02 -0.25575214D-02  0.51150428D-02
  0.49878752D-18  0.81796976D-17 -0.30575478D-17  0.12437505D-02  0.12437505D-02
 -0.24875010D-02 -0.11931035D-18 -0.63281683D-17 -0.54581091D-17  0.10940445D-03
  0.10940445D-03 -0.21880890D-03  0.27103281D-20  0.27029056D-18 -0.81980171D-18
 -0.23373903D-18 -0.71819296D-18 -0.91806476D-03 -0.28819987D-18 -0.88506954D-18
  0.13770971D-02  0.98941697D-18  0.30396484D-17  0.13770971D-02 -0.19347113D-18
 -0.83188714D-18  0.33870484D-18 -0.14032284D-03 -0.82783221D-18  0.36563198D-18
  0.21048427D-03  0.33234936D-17 -0.13817465D-17  0.21048427D-03 -0.20589247D-19
  0.23230372D+00  0.43306696D+00  0.73195945D+00  0.11003748D+01  0.13519376D+01
  0.11419274D+01  0.43069301D+00 -0.21315237D-02 -0.16786118D-02 -0.31428909D-02
 -0.53510407D-02 -0.82772463D-02 -0.10900842D-01 -0.11326673D-01 -0.71975924D-02
  0.48236591D-02  0.27292240D-01 -0.42153869D-03 -0.25383885D-03  0.46990220D-17
  0.44056318D-17  0.31370723D-17 -0.18709688D-17 -0.17541522D-17 -0.12490609D-17
  0.11015267D-02  0.10327513D-02  0.73538047D-03 -0.68075088D-17  0.68774017D-17
  0.35995459D-03 -0.17985479D-17  0.46916022D-17  0.12486471D-02  0.28004659D-18
 -0.64356426D-19  0.17989704D-05 -0.25575214D-02 -0.25575214D-02  0.51150428D-02
  0.66248546D-18  0.43312210D-17  0.18121391D-17  0.12437505D-02  0.12437505D-02
 -0.24875010D-02  0.33018987D-19 -0.28896622D-17 -0.24257783D-17  0.10940445D-03
  0.10940445D-03 -0.21880890D-03 -0.34808149D-20  0.13576253D-18 -0.96710346D-18
  0.11728128D-17  0.39040893D-18  0.91806476D-03  0.10461327D-17  0.33732017D-18
 -0.13770971D-02 -0.45645712D-17 -0.15085470D-17 -0.13770971D-02  0.21513150D-18
  0.79905596D-19 -0.39573724D-18  0.14032284D-03  0.88287308D-19 -0.39573728D-18
 -0.21048427D-03 -0.32800410D-18  0.15829490D-17 -0.21048427D-03 -0.49754069D-19
  0.28009658D-03  0.52211216D-03  0.88510846D-03  0.13403151D-02  0.16760687D-02
  0.14429390D-02  0.55471844D-03 -0.24036858D-05 -0.24222180D-03 -0.45484964D-03
 -0.77453049D-03 -0.12132974D-02 -0.16259613D-02 -0.17489406D-02 -0.10500616D-02
  0.69056471D-03  0.41464663D-03  0.10465047D-02  0.11799524D-03 -0.11211375D-16
 -0.10964479D-16 -0.72446952D-17 -0.58989573D-17 -0.57690514D-17 -0.38118562D-17
  0.14493525D-02  0.14174351D-02  0.93655927D-03  0.45497944D-17  0.28786979D-17
  0.68241035D-03 -0.94465562D-17 -0.49715101D-18 -0.43488966D-03  0.55523481D-18
 -0.26971015D-18 -0.11524530D-03 -0.17905927D-02 -0.17905927D-02  0.35811855D-02
  0.11535522D-18  0.23746883D-16  0.20043733D-18  0.93539899D-03  0.93539899D-03
 -0.18707980D-02  0.56419232D-20 -0.10240859D-16  0.11704918D-17  0.22036168D-03
  0.22036168D-03 -0.44072336D-03 -0.81488264D-20 -0.44229440D-17 -0.13618497D-17
  0.43649585D-18 -0.63395639D-17  0.14394165D-02  0.34882977D-18 -0.62542067D-17
 -0.21591248D-02 -0.16583173D-17  0.25272898D-16 -0.21591248D-02  0.18142765D-18
 -0.24129393D-18  0.26891687D-17 -0.15945576D-02 -0.22653825D-18  0.26595794D-17
  0.23918364D-02  0.95042005D-18 -0.10727085D-16  0.23918364D-02 -0.33950361D-19
  0.28009658D-03  0.52211216D-03  0.88510846D-03  0.13403151D-02  0.16760687D-02
  0.14429390D-02  0.55471844D-03 -0.24036858D-05 -0.24222180D-03 -0.45484964D-03
 -0.77453049D-03 -0.12132974D-02 -0.16259613D-02 -0.17489406D-02 -0.10500616D-02
  0.69056471D-03  0.41464663D-03  0.10465047D-02  0.11799524D-03 -0.28017261D-17
 -0.27400269D-17 -0.18104517D-17 -0.92608756D-18 -0.90569340D-18 -0.59842992D-18
 -0.14493525D-02 -0.14174351D-02 -0.93655927D-03  0.14605927D-17 -0.19070343D-18
 -0.68241035D-03  0.25731967D-17 -0.23378122D-17  0.43488966D-03 -0.11704027D-18
  0.34881555D-18  0.11524530D-03 -0.17905927D-02 -0.17905927D-02  0.35811855D-02
  0.10301730D-18  0.77667507D-17  0.56005968D-17  0.93539899D-03  0.93539899D-03
 -0.18707980D-02 -0.19213400D-19 -0.44706051D-17 -0.17830532D-17  0.22036168D-03
  0.22036168D-03 -0.44072336D-03  0.29603672D-19 -0.23079571D-17  0.21297676D-17
  0.33751986D-17 -0.45297399D-18 -0.14394165D-02  0.33304736D-17 -0.29833242D-18
  0.21591248D-02 -0.13456069D-16  0.16572544D-17  0.21591248D-02  0.87114074D-19
 -0.14636133D-17  0.22102117D-18  0.15945576D-02 -0.14327270D-17  0.19325095D-18
 -0.23918364D-02  0.58235670D-17 -0.85631445D-18 -0.23918364D-02 -0.85558257D-20
MO    4     MO 0.0        OCC NO =    2.0000000  ORB. ENERGY =  -10.328807
 -0.23402876D+00 -0.43628281D+00 -0.73739481D+00 -0.11085459D+01 -0.13619768D+01
 -0.11504071D+01 -0.43389124D+00  0.21473520D-02  0.27901510D-02  0.52240430D-02
  0.88943802D-02  0.13758254D-01  0.18119136D-01  0.18826943D-01  0.11963677D-01
 -0.80177782D-02 -0.26584921D-01 -0.10954706D-01  0.30796945D-02 -0.20829618D-16
 -0.19529091D-16 -0.13905876D-16 -0.13071286D-15 -0.12255161D-15 -0.87264048D-16
  0.49613874D-02  0.46516160D-02  0.33122277D-02  0.58274450D-18 -0.19989220D-16
 -0.11782380D-01 -0.41414049D-17 -0.45687389D-17 -0.73814338D-02 -0.33031585D-18
  0.56524977D-19  0.14451610D-03  0.37602654D-02  0.37602654D-02 -0.75205308D-02
 -0.57148169D-18  0.78959672D-17 -0.50064886D-17  0.35641504D-03  0.35641504D-03
 -0.71283007D-03  0.12130987D-18 -0.87863242D-17 -0.50557499D-17 -0.43239660D-04
 -0.43239660D-04  0.86479320D-04 -0.35007658D-20 -0.74268515D-18 -0.54597574D-18
  0.66946315D-18 -0.23085560D-18 -0.22964556D-02  0.65840556D-18 -0.69965225D-19
  0.34446834D-02 -0.26667950D-17  0.76253201D-18  0.34446834D-02  0.20586434D-18
 -0.26200773D-18  0.56620574D-18 -0.69725765D-03 -0.26321365D-18  0.55130144D-18
  0.10458865D-02  0.10492368D-17 -0.22499186D-17  0.10458865D-02  0.13987705D-19
  0.23402876D+00  0.43628281D+00  0.73739481D+00  0.11085459D+01  0.13619768D+01
  0.11504071D+01  0.43389124D+00 -0.21473520D-02 -0.27901510D-02 -0.52240430D-02
 -0.88943802D-02 -0.13758254D-01 -0.18119136D-01 -0.18826943D-01 -0.11963677D-01
  0.80177782D-02  0.26584921D-01  0.10954706D-01 -0.30796945D-02  0.22416856D-17
  0.21017227D-17  0.14965518D-17 -0.20083746D-17 -0.18829788D-17 -0.13407931D-17
  0.49613874D-02  0.46516160D-02  0.33122277D-02 -0.28792414D-18  0.88675230D-17
 -0.11782380D-01  0.34551840D-17  0.37571437D-17 -0.73814338D-02  0.23866701D-18
 -0.56771078D-19  0.14451610D-03 -0.37602654D-02 -0.37602654D-02  0.75205308D-02
  0.68071561D-18  0.25929407D-17  0.63365658D-19 -0.35641504D-03 -0.35641504D-03
  0.71283007D-03 -0.22056548D-19 -0.79965784D-17 -0.42293961D-17  0.43239660D-04
  0.43239660D-04 -0.86479320D-04  0.40723709D-21 -0.10403895D-17 -0.76395638D-18
  0.82237318D-18  0.47786215D-19 -0.22964556D-02  0.70883034D-18 -0.62258935D-19
  0.34446834D-02 -0.31759499D-17 -0.81099711D-19  0.34446834D-02  0.13849361D-18
 -0.17613274D-18 -0.31869804D-18 -0.69725765D-03 -0.16864401D-18 -0.30952918D-18
  0.10458865D-02  0.69704223D-18  0.12656233D-17  0.10458865D-02  0.27718784D-19
 -0.60870329D-03 -0.11346493D-02 -0.19235095D-02 -0.29127603D-02 -0.36424170D-02
 -0.31357817D-02 -0.12055090D-02  0.52236677D-05  0.45555557D-03  0.85545268D-03
  0.14566884D-02  0.22818937D-02  0.30580060D-02  0.32892978D-02  0.19748901D-02
 -0.12987708D-02  0.30911310D-03 -0.62958605D-02 -0.47244797D-02 -0.11899330D-16
 -0.11637285D-16 -0.76892460D-17 -0.62185936D-17 -0.60816487D-17 -0.40184024D-17
  0.14052734D-02  0.13743267D-02  0.90807575D-03  0.49520576D-17  0.29708130D-17
 -0.45440736D-02 -0.55171046D-17  0.15941915D-17 -0.10250222D-02  0.26776848D-18
 -0.13032026D-18 -0.47903995D-03  0.94504830D-03  0.94504830D-03 -0.18900966D-02
 -0.28562226D-18  0.20463970D-16 -0.23045885D-17  0.38856916D-03  0.38856916D-03
 -0.77713832D-03  0.27593971D-19 -0.78968421D-17  0.29651555D-17 -0.18162107D-03
 -0.18162107D-03  0.36324215D-03  0.62073332D-20 -0.19648323D-17 -0.14450481D-18
  0.12282904D-17 -0.57978803D-17 -0.11168470D-02  0.11814989D-17 -0.60416591D-17
  0.16752705D-02 -0.48663700D-17  0.23435300D-16  0.16752705D-02 -0.17099297D-18
 -0.97343780D-18  0.22417141D-17  0.78727808D-03 -0.97870983D-18  0.22415086D-17
 -0.11809171D-02  0.38990232D-17 -0.89666508D-17 -0.11809171D-02  0.51158182D-19
  0.60870329D-03  0.11346493D-02  0.19235095D-02  0.29127603D-02  0.36424170D-02
  0.31357817D-02  0.12055090D-02 -0.52236677D-05 -0.45555557D-03 -0.85545268D-03
 -0.14566884D-02 -0.22818937D-02 -0.30580060D-02 -0.32892978D-02 -0.19748901D-02
  0.12987708D-02 -0.30911310D-03  0.62958605D-02  0.47244797D-02 -0.21909395D-17
 -0.21426910D-17 -0.14157665D-17 -0.56189682D-18 -0.54952282D-18 -0.36309296D-18
  0.14052734D-02  0.13743267D-02  0.90807575D-03  0.95120527D-18 -0.45424820D-18
 -0.45440736D-02  0.23740275D-17 -0.13135135D-17 -0.10250222D-02  0.30263977D-18
  0.26177186D-18 -0.47903995D-03 -0.94504830D-03 -0.94504830D-03  0.18900966D-02
  0.28867966D-18  0.75986192D-17  0.53213824D-17 -0.38856916D-03 -0.38856916D-03
  0.77713832D-03 -0.11874677D-19 -0.43434146D-17 -0.14605073D-17  0.18162107D-03
  0.18162107D-03 -0.36324215D-03 -0.10752117D-19 -0.22682023D-17  0.13985737D-17
  0.37651610D-17  0.23246706D-18 -0.11168470D-02  0.37047649D-17 -0.65638673D-19
  0.16752705D-02 -0.15000248D-16 -0.63176252D-18  0.16752705D-02 -0.34749931D-18
 -0.15153429D-17  0.10262586D-18  0.78727808D-03 -0.14929811D-17  0.11005163D-18
 -0.11809171D-02  0.60390100D-17 -0.41792922D-18 -0.11809171D-02  0.84893803D-19
MO    5     MO 0.0        OCC NO =    2.0000000  ORB. ENERGY =   -1.336039
 -0.35674186D-02 -0.66504794D-02 -0.11240482D-01 -0.16898126D-01 -0.20761300D-01
 -0.17536237D-01 -0.66140234D-02  0.32733171D-04 -0.11567215D-01 -0.21657477D-01
 -0.36873707D-01 -0.57038018D-01 -0.75117064D-01 -0.78051441D-01 -0.49598187D-01
  0.33239551D-01  0.18252554D-01 -0.15345794D-03 -0.74154291D-03  0.15523091D-15
  0.14553884D-15  0.10363233D-15 -0.10661831D-15 -0.99961441D-16 -0.71178501D-16
 -0.10218246D+00 -0.95802555D-01 -0.68217126D-01 -0.76308296D-16  0.11243565D-16
 -0.18091404D-01  0.47391320D-16 -0.47284996D-16 -0.16691337D-02  0.32372395D-17
 -0.24341447D-17 -0.56563597D-04 -0.10879336D-01 -0.10879336D-01  0.21758672D-01
 -0.18063121D-16 -0.20722968D-15  0.64360852D-16 -0.50638430D-03 -0.50638430D-03
  0.10127686D-02  0.13558674D-17  0.15276181D-16  0.11751474D-16  0.21444492D-03
  0.21444492D-03 -0.42888983D-03 -0.39115995D-17  0.43520865D-17 -0.82460105D-17
  0.23551327D-16  0.19315345D-16 -0.32478043D-02  0.22657980D-16  0.13877397D-16
  0.48717065D-02 -0.93311961D-16 -0.71823433D-16  0.48717065D-02 -0.20558664D-18
 -0.55345201D-17  0.28487921D-17 -0.59997199D-03 -0.55389237D-17  0.29921892D-17
  0.89995798D-03  0.22142484D-16 -0.11538565D-16  0.89995798D-03 -0.40484262D-17
 -0.35674186D-02 -0.66504794D-02 -0.11240482D-01 -0.16898126D-01 -0.20761300D-01
 -0.17536237D-01 -0.66140234D-02  0.32733171D-04 -0.11567215D-01 -0.21657477D-01
 -0.36873707D-01 -0.57038018D-01 -0.75117064D-01 -0.78051441D-01 -0.49598187D-01
  0.33239551D-01  0.18252554D-01 -0.15345794D-03 -0.74154291D-03  0.18119610D-16
  0.16988286D-16  0.12096671D-16  0.33236146D-17  0.31160999D-17  0.22188488D-17
  0.10218246D+00  0.95802555D-01  0.68217126D-01  0.53126765D-17  0.38268722D-16
  0.18091404D-01 -0.68169254D-17  0.26697462D-16  0.16691337D-02 -0.23432768D-17
 -0.12356423D-17  0.56563597D-04 -0.10879336D-01 -0.10879336D-01  0.21758672D-01
  0.32706163D-18 -0.75611499D-17 -0.20194763D-16 -0.50638430D-03 -0.50638430D-03
  0.10127686D-02  0.31549488D-17  0.38857810D-16 -0.33617802D-16  0.21444492D-03
  0.21444492D-03 -0.42888983D-03  0.44819149D-18  0.14585029D-17 -0.80419544D-17
 -0.24407178D-16 -0.17514342D-16  0.32478043D-02 -0.24751639D-16 -0.18162706D-16
 -0.48717065D-02  0.97973172D-16  0.70705733D-16 -0.48717065D-02  0.22676769D-17
 -0.28669233D-17  0.10082017D-17  0.59997199D-03 -0.28673212D-17  0.14050682D-17
 -0.89995798D-03  0.11468091D-16 -0.44296734D-17 -0.89995798D-03 -0.49456079D-17