 Molden2AIM, Version 4.0.0 (06/02/2016)           Time: Fri Jun 29 19:24:20 2018
GAUSSIAN             46 MOL ORBITALS    788 PRIMITIVES        8 NUCLEI
  C    1    (CENTRE  1)   1.97636251  1.55327551  0.00000000  CHARGE =  6.0
  C    2    (CENTRE  2)   0.62338852 -1.04520563  0.00000000  CHARGE =  6.0
  F    3    (CENTRE  3)   1.35676667  2.87220608  2.05293988  CHARGE =  9.0
  F    4    (CENTRE  4)   4.47290237  1.17576492  0.00000000  CHARGE =  9.0
  F    5    (CENTRE  5)   1.35676667  2.87220608 -2.05293988  CHARGE =  9.0
  F    6    (CENTRE  6)   1.35420420 -2.33007578  2.05459339  CHARGE =  9.0
  F    7    (CENTRE  7)   1.35420420 -2.33007578 -2.05459339  CHARGE =  9.0
  Br   8    (CENTRE  8)  -3.00233262 -0.67616668  0.00000000  CHARGE = 35.0
CENTRE ASSIGNMENTS    1  1  1  1  1  1  1  1  1  1  1  1  1  1  1  1  1  1  1  1
CENTRE ASSIGNMENTS    1  1  1  1  1  1  1  1  1  1  1  1  1  1  1  1  1  1  1  1
CENTRE ASSIGNMENTS    1  1  1  1  1  1  1  1  1  1  1  1  1  1  1  1  1  1  1  1
CENTRE ASSIGNMENTS    1  1  1  1  1  1  1  1  1  1  1  1  1  1  1  2  2  2  2  2
CENTRE ASSIGNMENTS    2  2  2  2  2  2  2  2  2  2  2  2  2  2  2  2  2  2  2  2
CENTRE ASSIGNMENTS    2  2  2  2  2  2  2  2  2  2  2  2  2  2  2  2  2  2  2  2
CENTRE ASSIGNMENTS    2  2  2  2  2  2  2  2  2  2  2  2  2  2  2  2  2  2  2  2
CENTRE ASSIGNMENTS    2  2  2  2  2  2  2  2  2  2  3  3  3  3  3  3  3  3  3  3
CENTRE ASSIGNMENTS    3  3  3  3  3  3  3  3  3  3  3  3  3  3  3  3  3  3  3  3
CENTRE ASSIGNMENTS    3  3  3  3  3  3  3  3  3  3  3  3  3  3  3  3  3  3  3  3
CENTRE ASSIGNMENTS    3  3  3  3  3  3  3  3  3  3  3  3  3  3  3  3  3  3  3  3
CENTRE ASSIGNMENTS    3  3  3  3  3  4  4  4  4  4  4  4  4  4  4  4  4  4  4  4
CENTRE ASSIGNMENTS    4  4  4  4  4  4  4  4  4  4  4  4  4  4  4  4  4  4  4  4
CENTRE ASSIGNMENTS    4  4  4  4  4  4  4  4  4  4  4  4  4  4  4  4  4  4  4  4
CENTRE ASSIGNMENTS    4  4  4  4  4  4  4  4  4  4  4  4  4  4  4  4  4  4  4  4
CENTRE ASSIGNMENTS    5  5  5  5  5  5  5  5  5  5  5  5  5  5  5  5  5  5  5  5
CENTRE ASSIGNMENTS    5  5  5  5  5  5  5  5  5  5  5  5  5  5  5  5  5  5  5  5
CENTRE ASSIGNMENTS    5  5  5  5  5  5  5  5  5  5  5  5  5  5  5  5  5  5  5  5
CENTRE ASSIGNMENTS    5  5  5  5  5  5  5  5  5  5  5  5  5  5  5  6  6  6  6  6
CENTRE ASSIGNMENTS    6  6  6  6  6  6  6  6  6  6  6  6  6  6  6  6  6  6  6  6
CENTRE ASSIGNMENTS    6  6  6  6  6  6  6  6  6  6  6  6  6  6  6  6  6  6  6  6
CENTRE ASSIGNMENTS    6  6  6  6  6  6  6  6  6  6  6  6  6  6  6  6  6  6  6  6
CENTRE ASSIGNMENTS    6  6  6  6  6  6  6  6  6  6  7  7  7  7  7  7  7  7  7  7
CENTRE ASSIGNMENTS    7  7  7  7  7  7  7  7  7  7  7  7  7  7  7  7  7  7  7  7
CENTRE ASSIGNMENTS    7  7  7  7  7  7  7  7  7  7  7  7  7  7  7  7  7  7  7  7
CENTRE ASSIGNMENTS    7  7  7  7  7  7  7  7  7  7  7  7  7  7  7  7  7  7  7  7
CENTRE ASSIGNMENTS    7  7  7  7  7  8  8  8  8  8  8  8  8  8  8  8  8  8  8  8
CENTRE ASSIGNMENTS    8  8  8  8  8  8  8  8  8  8  8  8  8  8  8  8  8  8  8  8
CENTRE ASSIGNMENTS    8  8  8  8  8  8  8  8  8  8  8  8  8  8  8  8  8  8  8  8
CENTRE ASSIGNMENTS    8  8  8  8  8  8  8  8  8  8  8  8  8  8  8  8  8  8  8  8
CENTRE ASSIGNMENTS    8  8  8  8  8  8  8  8  8  8  8  8  8  8  8  8  8  8  8  8
CENTRE ASSIGNMENTS    8  8  8  8  8  8  8  8  8  8  8  8  8  8  8  8  8  8  8  8
CENTRE ASSIGNMENTS    8  8  8  8  8  8  8  8  8  8  8  8  8  8  8  8  8  8  8  8
CENTRE ASSIGNMENTS    8  8  8  8  8  8  8  8  8  8  8  8  8  8  8  8  8  8  8  8
CENTRE ASSIGNMENTS    8  8  8  8  8  8  8  8  8  8  8  8  8  8  8  8  8  8  8  8
CENTRE ASSIGNMENTS    8  8  8  8  8  8  8  8  8  8  8  8  8  8  8  8  8  8  8  8
CENTRE ASSIGNMENTS    8  8  8  8  8  8  8  8  8  8  8  8  8  8  8  8  8  8  8  8
CENTRE ASSIGNMENTS    8  8  8  8  8  8  8  8  8  8  8  8  8  8  8  8  8  8  8  8
CENTRE ASSIGNMENTS    8  8  8  8  8  8  8  8  8  8  8  8  8  8  8  8  8  8  8  8
CENTRE ASSIGNMENTS    8  8  8  8  8  8  8  8
TYPE ASSIGNMENTS      1  1  1  1  1  1  1  1  1  1  1  1  1  1  1  1  1  1  1  2
TYPE ASSIGNMENTS      2  2  3  3  3  4  4  4  2  3  4  2  3  4  2  3  4  5  6  7
TYPE ASSIGNMENTS      8  9 10  5  6  7  8  9 10  5  6  7  8  9 10 11 12 13 17 14
TYPE ASSIGNMENTS     15 18 19 16 20 11 12 13 17 14 15 18 19 16 20  1  1  1  1  1
TYPE ASSIGNMENTS      1  1  1  1  1  1  1  1  1  1  1  1  1  1  2  2  2  3  3  3
TYPE ASSIGNMENTS      4  4  4  2  3  4  2  3  4  2  3  4  5  6  7  8  9 10  5  6
TYPE ASSIGNMENTS      7  8  9 10  5  6  7  8  9 10 11 12 13 17 14 15 18 19 16 20
TYPE ASSIGNMENTS     11 12 13 17 14 15 18 19 16 20  1  1  1  1  1  1  1  1  1  1
TYPE ASSIGNMENTS      1  1  1  1  1  1  1  1  1  2  2  2  3  3  3  4  4  4  2  3
TYPE ASSIGNMENTS      4  2  3  4  2  3  4  5  6  7  8  9 10  5  6  7  8  9 10  5
TYPE ASSIGNMENTS      6  7  8  9 10 11 12 13 17 14 15 18 19 16 20 11 12 13 17 14
TYPE ASSIGNMENTS     15 18 19 16 20  1  1  1  1  1  1  1  1  1  1  1  1  1  1  1
TYPE ASSIGNMENTS      1  1  1  1  2  2  2  3  3  3  4  4  4  2  3  4  2  3  4  2
TYPE ASSIGNMENTS      3  4  5  6  7  8  9 10  5  6  7  8  9 10  5  6  7  8  9 10
TYPE ASSIGNMENTS     11 12 13 17 14 15 18 19 16 20 11 12 13 17 14 15 18 19 16 20
TYPE ASSIGNMENTS      1  1  1  1  1  1  1  1  1  1  1  1  1  1  1  1  1  1  1  2
TYPE ASSIGNMENTS      2  2  3  3  3  4  4  4  2  3  4  2  3  4  2  3  4  5  6  7
TYPE ASSIGNMENTS      8  9 10  5  6  7  8  9 10  5  6  7  8  9 10 11 12 13 17 14
TYPE ASSIGNMENTS     15 18 19 16 20 11 12 13 17 14 15 18 19 16 20  1  1  1  1  1
TYPE ASSIGNMENTS      1  1  1  1  1  1  1  1  1  1  1  1  1  1  2  2  2  3  3  3
TYPE ASSIGNMENTS      4  4  4  2  3  4  2  3  4  2  3  4  5  6  7  8  9 10  5  6
TYPE ASSIGNMENTS      7  8  9 10  5  6  7  8  9 10 11 12 13 17 14 15 18 19 16 20
TYPE ASSIGNMENTS     11 12 13 17 14 15 18 19 16 20  1  1  1  1  1  1  1  1  1  1
TYPE ASSIGNMENTS      1  1  1  1  1  1  1  1  1  2  2  2  3  3  3  4  4  4  2  3
TYPE ASSIGNMENTS      4  2  3  4  2  3  4  5  6  7  8  9 10  5  6  7  8  9 10  5
TYPE ASSIGNMENTS      6  7  8  9 10 11 12 13 17 14 15 18 19 16 20 11 12 13 17 14
TYPE ASSIGNMENTS     15 18 19 16 20  1  1  1  1  1  1  1  1  1  1  1  1  1  1  1
TYPE ASSIGNMENTS      1  1  1  1  1  1  1  1  1  1  1  1  1  1  1  1  1  1  1  1
TYPE ASSIGNMENTS      1  1  1  1  1  1  1  1  1  1  1  1  1  1  1  1  1  1  1  1
TYPE ASSIGNMENTS      1  1  1  1  1  1  1  1  1  1  1  1  1  1  1  1  1  1  1  1
TYPE ASSIGNMENTS      2  2  2  2  2  2  2  2  2  2  2  3  3  3  3  3  3  3  3  3
TYPE ASSIGNMENTS      3  3  4  4  4  4  4  4  4  4  4  4  4  2  2  2  2  2  2  2
TYPE ASSIGNMENTS      2  2  2  2  3  3  3  3  3  3  3  3  3  3  3  4  4  4  4  4
TYPE ASSIGNMENTS      4  4  4  4  4  4  2  2  2  2  2  2  2  2  2  2  2  3  3  3
TYPE ASSIGNMENTS      3  3  3  3  3  3  3  3  4  4  4  4  4  4  4  4  4  4  4  2
TYPE ASSIGNMENTS      3  4  2  3  4  2  3  4  5  5  5  5  5  5  5  6  6  6  6  6
TYPE ASSIGNMENTS      6  6  7  7  7  7  7  7  7  8  8  8  8  8  8  8  9  9  9  9
TYPE ASSIGNMENTS      9  9  9 10 10 10 10 10 10 10  5  6  7  8  9 10  5  6  7  8
TYPE ASSIGNMENTS      9 10  5  6  7  8  9 10 11 12 13 17 14 15 18 19 16 20 11 12
TYPE ASSIGNMENTS     13 17 14 15 18 19 16 20
EXPONENTS  0.8236000D+04 0.1235000D+04 0.2808000D+03 0.7927000D+02 0.2559000D+02
EXPONENTS  0.8997000D+01 0.3319000D+01 0.3643000D+00 0.8236000D+04 0.1235000D+04
EXPONENTS  0.2808000D+03 0.7927000D+02 0.2559000D+02 0.8997000D+01 0.3319000D+01
EXPONENTS  0.3643000D+00 0.9059000D+00 0.1285000D+00 0.4402000D-01 0.1871000D+02
EXPONENTS  0.4133000D+01 0.1200000D+01 0.1871000D+02 0.4133000D+01 0.1200000D+01
EXPONENTS  0.1871000D+02 0.4133000D+01 0.1200000D+01 0.3827000D+00 0.3827000D+00
EXPONENTS  0.3827000D+00 0.1209000D+00 0.1209000D+00 0.1209000D+00 0.3569000D-01
EXPONENTS  0.3569000D-01 0.3569000D-01 0.1097000D+01 0.1097000D+01 0.1097000D+01
EXPONENTS  0.1097000D+01 0.1097000D+01 0.1097000D+01 0.3180000D+00 0.3180000D+00
EXPONENTS  0.3180000D+00 0.3180000D+00 0.3180000D+00 0.3180000D+00 0.1000000D+00
EXPONENTS  0.1000000D+00 0.1000000D+00 0.1000000D+00 0.1000000D+00 0.1000000D+00
EXPONENTS  0.7610000D+00 0.7610000D+00 0.7610000D+00 0.7610000D+00 0.7610000D+00
EXPONENTS  0.7610000D+00 0.7610000D+00 0.7610000D+00 0.7610000D+00 0.7610000D+00
EXPONENTS  0.2680000D+00 0.2680000D+00 0.2680000D+00 0.2680000D+00 0.2680000D+00
EXPONENTS  0.2680000D+00 0.2680000D+00 0.2680000D+00 0.2680000D+00 0.2680000D+00
EXPONENTS  0.8236000D+04 0.1235000D+04 0.2808000D+03 0.7927000D+02 0.2559000D+02
EXPONENTS  0.8997000D+01 0.3319000D+01 0.3643000D+00 0.8236000D+04 0.1235000D+04
EXPONENTS  0.2808000D+03 0.7927000D+02 0.2559000D+02 0.8997000D+01 0.3319000D+01
EXPONENTS  0.3643000D+00 0.9059000D+00 0.1285000D+00 0.4402000D-01 0.1871000D+02
EXPONENTS  0.4133000D+01 0.1200000D+01 0.1871000D+02 0.4133000D+01 0.1200000D+01
EXPONENTS  0.1871000D+02 0.4133000D+01 0.1200000D+01 0.3827000D+00 0.3827000D+00
EXPONENTS  0.3827000D+00 0.1209000D+00 0.1209000D+00 0.1209000D+00 0.3569000D-01
EXPONENTS  0.3569000D-01 0.3569000D-01 0.1097000D+01 0.1097000D+01 0.1097000D+01
EXPONENTS  0.1097000D+01 0.1097000D+01 0.1097000D+01 0.3180000D+00 0.3180000D+00
EXPONENTS  0.3180000D+00 0.3180000D+00 0.3180000D+00 0.3180000D+00 0.1000000D+00
EXPONENTS  0.1000000D+00 0.1000000D+00 0.1000000D+00 0.1000000D+00 0.1000000D+00
EXPONENTS  0.7610000D+00 0.7610000D+00 0.7610000D+00 0.7610000D+00 0.7610000D+00
EXPONENTS  0.7610000D+00 0.7610000D+00 0.7610000D+00 0.7610000D+00 0.7610000D+00
EXPONENTS  0.2680000D+00 0.2680000D+00 0.2680000D+00 0.2680000D+00 0.2680000D+00
EXPONENTS  0.2680000D+00 0.2680000D+00 0.2680000D+00 0.2680000D+00 0.2680000D+00
EXPONENTS  0.1950000D+05 0.2923000D+04 0.6645000D+03 0.1875000D+03 0.6062000D+02
EXPONENTS  0.2142000D+02 0.7950000D+01 0.8815000D+00 0.1950000D+05 0.2923000D+04
EXPONENTS  0.6645000D+03 0.1875000D+03 0.6062000D+02 0.2142000D+02 0.7950000D+01
EXPONENTS  0.8815000D+00 0.2257000D+01 0.3041000D+00 0.9158000D-01 0.4388000D+02
EXPONENTS  0.9926000D+01 0.2930000D+01 0.4388000D+02 0.9926000D+01 0.2930000D+01
EXPONENTS  0.4388000D+02 0.9926000D+01 0.2930000D+01 0.9132000D+00 0.9132000D+00
EXPONENTS  0.9132000D+00 0.2672000D+00 0.2672000D+00 0.2672000D+00 0.7361000D-01
EXPONENTS  0.7361000D-01 0.7361000D-01 0.3107000D+01 0.3107000D+01 0.3107000D+01
EXPONENTS  0.3107000D+01 0.3107000D+01 0.3107000D+01 0.8550000D+00 0.8550000D+00
EXPONENTS  0.8550000D+00 0.8550000D+00 0.8550000D+00 0.8550000D+00 0.2920000D+00
EXPONENTS  0.2920000D+00 0.2920000D+00 0.2920000D+00 0.2920000D+00 0.2920000D+00
EXPONENTS  0.1917000D+01 0.1917000D+01 0.1917000D+01 0.1917000D+01 0.1917000D+01
EXPONENTS  0.1917000D+01 0.1917000D+01 0.1917000D+01 0.1917000D+01 0.1917000D+01
EXPONENTS  0.7240000D+00 0.7240000D+00 0.7240000D+00 0.7240000D+00 0.7240000D+00
EXPONENTS  0.7240000D+00 0.7240000D+00 0.7240000D+00 0.7240000D+00 0.7240000D+00
EXPONENTS  0.1950000D+05 0.2923000D+04 0.6645000D+03 0.1875000D+03 0.6062000D+02
EXPONENTS  0.2142000D+02 0.7950000D+01 0.8815000D+00 0.1950000D+05 0.2923000D+04
EXPONENTS  0.6645000D+03 0.1875000D+03 0.6062000D+02 0.2142000D+02 0.7950000D+01
EXPONENTS  0.8815000D+00 0.2257000D+01 0.3041000D+00 0.9158000D-01 0.4388000D+02
EXPONENTS  0.9926000D+01 0.2930000D+01 0.4388000D+02 0.9926000D+01 0.2930000D+01
EXPONENTS  0.4388000D+02 0.9926000D+01 0.2930000D+01 0.9132000D+00 0.9132000D+00
EXPONENTS  0.9132000D+00 0.2672000D+00 0.2672000D+00 0.2672000D+00 0.7361000D-01
EXPONENTS  0.7361000D-01 0.7361000D-01 0.3107000D+01 0.3107000D+01 0.3107000D+01
EXPONENTS  0.3107000D+01 0.3107000D+01 0.3107000D+01 0.8550000D+00 0.8550000D+00
EXPONENTS  0.8550000D+00 0.8550000D+00 0.8550000D+00 0.8550000D+00 0.2920000D+00
EXPONENTS  0.2920000D+00 0.2920000D+00 0.2920000D+00 0.2920000D+00 0.2920000D+00
EXPONENTS  0.1917000D+01 0.1917000D+01 0.1917000D+01 0.1917000D+01 0.1917000D+01
EXPONENTS  0.1917000D+01 0.1917000D+01 0.1917000D+01 0.1917000D+01 0.1917000D+01
EXPONENTS  0.7240000D+00 0.7240000D+00 0.7240000D+00 0.7240000D+00 0.7240000D+00
EXPONENTS  0.7240000D+00 0.7240000D+00 0.7240000D+00 0.7240000D+00 0.7240000D+00
EXPONENTS  0.1950000D+05 0.2923000D+04 0.6645000D+03 0.1875000D+03 0.6062000D+02
EXPONENTS  0.2142000D+02 0.7950000D+01 0.8815000D+00 0.1950000D+05 0.2923000D+04
EXPONENTS  0.6645000D+03 0.1875000D+03 0.6062000D+02 0.2142000D+02 0.7950000D+01
EXPONENTS  0.8815000D+00 0.2257000D+01 0.3041000D+00 0.9158000D-01 0.4388000D+02
EXPONENTS  0.9926000D+01 0.2930000D+01 0.4388000D+02 0.9926000D+01 0.2930000D+01
EXPONENTS  0.4388000D+02 0.9926000D+01 0.2930000D+01 0.9132000D+00 0.9132000D+00
EXPONENTS  0.9132000D+00 0.2672000D+00 0.2672000D+00 0.2672000D+00 0.7361000D-01
EXPONENTS  0.7361000D-01 0.7361000D-01 0.3107000D+01 0.3107000D+01 0.3107000D+01
EXPONENTS  0.3107000D+01 0.3107000D+01 0.3107000D+01 0.8550000D+00 0.8550000D+00
EXPONENTS  0.8550000D+00 0.8550000D+00 0.8550000D+00 0.8550000D+00 0.2920000D+00
EXPONENTS  0.2920000D+00 0.2920000D+00 0.2920000D+00 0.2920000D+00 0.2920000D+00
EXPONENTS  0.1917000D+01 0.1917000D+01 0.1917000D+01 0.1917000D+01 0.1917000D+01
EXPONENTS  0.1917000D+01 0.1917000D+01 0.1917000D+01 0.1917000D+01 0.1917000D+01
EXPONENTS  0.7240000D+00 0.7240000D+00 0.7240000D+00 0.7240000D+00 0.7240000D+00
EXPONENTS  0.7240000D+00 0.7240000D+00 0.7240000D+00 0.7240000D+00 0.7240000D+00
EXPONENTS  0.1950000D+05 0.2923000D+04 0.6645000D+03 0.1875000D+03 0.6062000D+02
EXPONENTS  0.2142000D+02 0.7950000D+01 0.8815000D+00 0.1950000D+05 0.2923000D+04
EXPONENTS  0.6645000D+03 0.1875000D+03 0.6062000D+02 0.2142000D+02 0.7950000D+01
EXPONENTS  0.8815000D+00 0.2257000D+01 0.3041000D+00 0.9158000D-01 0.4388000D+02
EXPONENTS  0.9926000D+01 0.2930000D+01 0.4388000D+02 0.9926000D+01 0.2930000D+01
EXPONENTS  0.4388000D+02 0.9926000D+01 0.2930000D+01 0.9132000D+00 0.9132000D+00
EXPONENTS  0.9132000D+00 0.2672000D+00 0.2672000D+00 0.2672000D+00 0.7361000D-01
EXPONENTS  0.7361000D-01 0.7361000D-01 0.3107000D+01 0.3107000D+01 0.3107000D+01
EXPONENTS  0.3107000D+01 0.3107000D+01 0.3107000D+01 0.8550000D+00 0.8550000D+00
EXPONENTS  0.8550000D+00 0.8550000D+00 0.8550000D+00 0.8550000D+00 0.2920000D+00
EXPONENTS  0.2920000D+00 0.2920000D+00 0.2920000D+00 0.2920000D+00 0.2920000D+00
EXPONENTS  0.1917000D+01 0.1917000D+01 0.1917000D+01 0.1917000D+01 0.1917000D+01
EXPONENTS  0.1917000D+01 0.1917000D+01 0.1917000D+01 0.1917000D+01 0.1917000D+01
EXPONENTS  0.7240000D+00 0.7240000D+00 0.7240000D+00 0.7240000D+00 0.7240000D+00
EXPONENTS  0.7240000D+00 0.7240000D+00 0.7240000D+00 0.7240000D+00 0.7240000D+00
EXPONENTS  0.1950000D+05 0.2923000D+04 0.6645000D+03 0.1875000D+03 0.6062000D+02
EXPONENTS  0.2142000D+02 0.7950000D+01 0.8815000D+00 0.1950000D+05 0.2923000D+04
EXPONENTS  0.6645000D+03 0.1875000D+03 0.6062000D+02 0.2142000D+02 0.7950000D+01
EXPONENTS  0.8815000D+00 0.2257000D+01 0.3041000D+00 0.9158000D-01 0.4388000D+02
EXPONENTS  0.9926000D+01 0.2930000D+01 0.4388000D+02 0.9926000D+01 0.2930000D+01
EXPONENTS  0.4388000D+02 0.9926000D+01 0.2930000D+01 0.9132000D+00 0.9132000D+00
EXPONENTS  0.9132000D+00 0.2672000D+00 0.2672000D+00 0.2672000D+00 0.7361000D-01
EXPONENTS  0.7361000D-01 0.7361000D-01 0.3107000D+01 0.3107000D+01 0.3107000D+01
EXPONENTS  0.3107000D+01 0.3107000D+01 0.3107000D+01 0.8550000D+00 0.8550000D+00
EXPONENTS  0.8550000D+00 0.8550000D+00 0.8550000D+00 0.8550000D+00 0.2920000D+00
EXPONENTS  0.2920000D+00 0.2920000D+00 0.2920000D+00 0.2920000D+00 0.2920000D+00
EXPONENTS  0.1917000D+01 0.1917000D+01 0.1917000D+01 0.1917000D+01 0.1917000D+01
EXPONENTS  0.1917000D+01 0.1917000D+01 0.1917000D+01 0.1917000D+01 0.1917000D+01
EXPONENTS  0.7240000D+00 0.7240000D+00 0.7240000D+00 0.7240000D+00 0.7240000D+00
EXPONENTS  0.7240000D+00 0.7240000D+00 0.7240000D+00 0.7240000D+00 0.7240000D+00
EXPONENTS  0.1063900D+08 0.1593400D+07 0.3626100D+06 0.1027000D+06 0.3350100D+05
EXPONENTS  0.1209300D+05 0.4715900D+04 0.1955600D+04 0.8526100D+03 0.3876700D+03
EXPONENTS  0.1826800D+03 0.8824500D+02 0.3926300D+02 0.1923400D+02 0.9405700D+01
EXPONENTS  0.4160100D+01 0.1899500D+01 0.3011400D+00 0.1063900D+08 0.1593400D+07
EXPONENTS  0.3626100D+06 0.1027000D+06 0.3350100D+05 0.1209300D+05 0.4715900D+04
EXPONENTS  0.1955600D+04 0.8526100D+03 0.3876700D+03 0.1826800D+03 0.8824500D+02
EXPONENTS  0.3926300D+02 0.1923400D+02 0.9405700D+01 0.4160100D+01 0.1899500D+01
EXPONENTS  0.3011400D+00 0.1063900D+08 0.1593400D+07 0.3626100D+06 0.1027000D+06
EXPONENTS  0.3350100D+05 0.1209300D+05 0.4715900D+04 0.1955600D+04 0.8526100D+03
EXPONENTS  0.3876700D+03 0.1826800D+03 0.8824500D+02 0.3926300D+02 0.1923400D+02
EXPONENTS  0.9405700D+01 0.4160100D+01 0.1899500D+01 0.3011400D+00 0.1063900D+08
EXPONENTS  0.1593400D+07 0.3626100D+06 0.1027000D+06 0.3350100D+05 0.1209300D+05
EXPONENTS  0.4715900D+04 0.1955600D+04 0.8526100D+03 0.3876700D+03 0.1826800D+03
EXPONENTS  0.8824500D+02 0.3926300D+02 0.1923400D+02 0.9405700D+01 0.4160100D+01
EXPONENTS  0.1899500D+01 0.3011400D+00 0.6047200D+00 0.1251500D+00 0.4559300D-01
EXPONENTS  0.8676500D+04 0.2055900D+04 0.6662300D+03 0.2531000D+03 0.1061200D+03
EXPONENTS  0.4724200D+02 0.2182500D+02 0.9968400D+01 0.4517100D+01 0.1998200D+01
EXPONENTS  0.2814500D+00 0.8676500D+04 0.2055900D+04 0.6662300D+03 0.2531000D+03
EXPONENTS  0.1061200D+03 0.4724200D+02 0.2182500D+02 0.9968400D+01 0.4517100D+01
EXPONENTS  0.1998200D+01 0.2814500D+00 0.8676500D+04 0.2055900D+04 0.6662300D+03
EXPONENTS  0.2531000D+03 0.1061200D+03 0.4724200D+02 0.2182500D+02 0.9968400D+01
EXPONENTS  0.4517100D+01 0.1998200D+01 0.2814500D+00 0.8676500D+04 0.2055900D+04
EXPONENTS  0.6662300D+03 0.2531000D+03 0.1061200D+03 0.4724200D+02 0.2182500D+02
EXPONENTS  0.9968400D+01 0.4517100D+01 0.1998200D+01 0.2814500D+00 0.8676500D+04
EXPONENTS  0.2055900D+04 0.6662300D+03 0.2531000D+03 0.1061200D+03 0.4724200D+02
EXPONENTS  0.2182500D+02 0.9968400D+01 0.4517100D+01 0.1998200D+01 0.2814500D+00
EXPONENTS  0.8676500D+04 0.2055900D+04 0.6662300D+03 0.2531000D+03 0.1061200D+03
EXPONENTS  0.4724200D+02 0.2182500D+02 0.9968400D+01 0.4517100D+01 0.1998200D+01
EXPONENTS  0.2814500D+00 0.8676500D+04 0.2055900D+04 0.6662300D+03 0.2531000D+03
EXPONENTS  0.1061200D+03 0.4724200D+02 0.2182500D+02 0.9968400D+01 0.4517100D+01
EXPONENTS  0.1998200D+01 0.2814500D+00 0.8676500D+04 0.2055900D+04 0.6662300D+03
EXPONENTS  0.2531000D+03 0.1061200D+03 0.4724200D+02 0.2182500D+02 0.9968400D+01
EXPONENTS  0.4517100D+01 0.1998200D+01 0.2814500D+00 0.8676500D+04 0.2055900D+04
EXPONENTS  0.6662300D+03 0.2531000D+03 0.1061200D+03 0.4724200D+02 0.2182500D+02
EXPONENTS  0.9968400D+01 0.4517100D+01 0.1998200D+01 0.2814500D+00 0.7098800D+00
EXPONENTS  0.7098800D+00 0.7098800D+00 0.1020400D+00 0.1020400D+00 0.1020400D+00
EXPONENTS  0.3514200D-01 0.3514200D-01 0.3514200D-01 0.4038300D+03 0.1211700D+03
EXPONENTS  0.4634500D+02 0.1972100D+02 0.8862400D+01 0.3996200D+01 0.1763600D+01
EXPONENTS  0.4038300D+03 0.1211700D+03 0.4634500D+02 0.1972100D+02 0.8862400D+01
EXPONENTS  0.3996200D+01 0.1763600D+01 0.4038300D+03 0.1211700D+03 0.4634500D+02
EXPONENTS  0.1972100D+02 0.8862400D+01 0.3996200D+01 0.1763600D+01 0.4038300D+03
EXPONENTS  0.1211700D+03 0.4634500D+02 0.1972100D+02 0.8862400D+01 0.3996200D+01
EXPONENTS  0.1763600D+01 0.4038300D+03 0.1211700D+03 0.4634500D+02 0.1972100D+02
EXPONENTS  0.8862400D+01 0.3996200D+01 0.1763600D+01 0.4038300D+03 0.1211700D+03
EXPONENTS  0.4634500D+02 0.1972100D+02 0.8862400D+01 0.3996200D+01 0.1763600D+01
EXPONENTS  0.7061900D+00 0.7061900D+00 0.7061900D+00 0.7061900D+00 0.7061900D+00
EXPONENTS  0.7061900D+00 0.2639000D+00 0.2639000D+00 0.2639000D+00 0.2639000D+00
EXPONENTS  0.2639000D+00 0.2639000D+00 0.1047000D+00 0.1047000D+00 0.1047000D+00
EXPONENTS  0.1047000D+00 0.1047000D+00 0.1047000D+00 0.5515000D+00 0.5515000D+00
EXPONENTS  0.5515000D+00 0.5515000D+00 0.5515000D+00 0.5515000D+00 0.5515000D+00
EXPONENTS  0.5515000D+00 0.5515000D+00 0.5515000D+00 0.2580000D+00 0.2580000D+00
EXPONENTS  0.2580000D+00 0.2580000D+00 0.2580000D+00 0.2580000D+00 0.2580000D+00
EXPONENTS  0.2580000D+00 0.2580000D+00 0.2580000D+00
MO    1     MO 0.0        OCC NO =    2.0000000  ORB. ENERGY = -483.307714
  0.30456130D-05  0.56777151D-05  0.95963388D-05  0.14426441D-04  0.17724549D-04
  0.14971215D-04  0.56465916D-05 -0.27945297D-07 -0.21457447D-05 -0.40175112D-05
 -0.68401565D-05 -0.10580682D-04 -0.13934386D-04 -0.14478720D-04 -0.92005764D-05
  0.61660123D-05  0.39795796D-05 -0.10153743D-03 -0.59058395D-05  0.51579719D-06
  0.48359265D-06  0.34434678D-06 -0.24397833D-05 -0.22874519D-05 -0.16288020D-05
 -0.49135860D-17 -0.46067992D-17 -0.32803155D-17 -0.46510206D-05 -0.10699968D-05
  0.48884505D-16  0.22578698D-04  0.27068718D-04 -0.30927901D-17  0.18630103D-06
  0.26982557D-06 -0.41432056D-18 -0.33419711D-05  0.16950719D-05  0.16468992D-05
  0.68255776D-06 -0.11603946D-16  0.39040114D-16  0.65102226D-05 -0.28986873D-05
 -0.36115352D-05  0.66555938D-05 -0.81657154D-17 -0.10953556D-16 -0.12329476D-05
 -0.14401757D-07  0.12473494D-05 -0.30366454D-05  0.11954191D-17 -0.22124115D-17
 -0.84879694D-06  0.22922308D-05 -0.65684578D-18  0.18560802D-05 -0.38232553D-05
 -0.15705679D-17  0.69031056D-06 -0.30534372D-05  0.35411052D-17  0.91690074D-18
 -0.18358015D-06  0.10320480D-06 -0.35032792D-17 -0.11688362D-05 -0.42956097D-06
  0.13099857D-16  0.17195766D-05  0.11994658D-06 -0.25900189D-17 -0.99843044D-17
 -0.94588398D-05 -0.17633428D-04 -0.29803600D-04 -0.44804573D-04 -0.55047594D-04
 -0.46496493D-04 -0.17536767D-04  0.86790436D-07  0.67483366D-05  0.12635015D-04
  0.21512195D-04  0.33276094D-04  0.43823445D-04  0.45535367D-04  0.28935681D-04
 -0.19392021D-04 -0.84313226D-05  0.69951179D-04 -0.93946237D-05  0.30926110D-05
  0.28995194D-05  0.20646305D-05 -0.17620643D-06 -0.16520473D-06 -0.11763561D-06
 -0.11671851D-16 -0.10943102D-16 -0.77921406D-17  0.85241193D-05 -0.24051379D-05
 -0.87005819D-17  0.34629745D-04  0.29949044D-04  0.37244914D-16  0.54770396D-06
  0.99391384D-07 -0.85481663D-18 -0.12668333D-04  0.75536035D-05  0.51147295D-05
  0.30974006D-05 -0.30847476D-17  0.17926180D-16  0.11541830D-04 -0.74588302D-05
 -0.40830002D-05 -0.32770676D-05 -0.19739930D-16 -0.16362690D-16 -0.20522682D-05
  0.26636308D-05 -0.61136256D-06  0.20698416D-06 -0.19190673D-18 -0.80484964D-17
 -0.80027838D-06 -0.97388725D-06  0.12265682D-17  0.42410466D-05  0.16862771D-05
 -0.43950320D-17 -0.18402114D-05  0.12353847D-05  0.71532745D-18 -0.11572621D-16
 -0.42329347D-05 -0.95693583D-06  0.64292269D-17  0.36236778D-05  0.10674898D-05
 -0.13135812D-16  0.90751261D-05  0.18033177D-05 -0.61518683D-17  0.10600860D-16
 -0.40780275D-05 -0.76016200D-05 -0.12886615D-04 -0.19514133D-04 -0.24402491D-04
 -0.21008272D-04 -0.80763467D-05  0.34996132D-07  0.26784801D-05  0.50297113D-05
  0.85647310D-05  0.13416600D-04  0.17979823D-04  0.19339724D-04  0.11611545D-04
 -0.76362404D-05  0.20337780D-05  0.19160772D-04 -0.35084629D-05 -0.20036242D-05
 -0.19595007D-05 -0.12947250D-05  0.20418037D-05  0.19968395D-05  0.13193963D-05
  0.28293489D-05  0.27670414D-05  0.18283013D-05  0.20182456D-05 -0.13700898D-05
 -0.21311844D-05 -0.17262605D-05 -0.71276853D-05 -0.71674161D-05  0.11545040D-06
  0.17534703D-06  0.45047908D-06 -0.26694189D-06 -0.35671070D-05  0.38340488D-05
 -0.10025417D-04  0.12808208D-05  0.19407555D-05 -0.30866657D-06  0.14279739D-05
 -0.11193073D-05  0.34764448D-05 -0.12938419D-05  0.37176958D-06 -0.88831317D-06
 -0.33073494D-06  0.12190481D-05 -0.16701536D-05  0.41681459D-06  0.22787799D-05
  0.22108631D-06  0.18484574D-05  0.10881704D-05 -0.53440002D-05 -0.61827006D-05
  0.22071561D-05  0.46807413D-05  0.63732826D-06 -0.54716672D-05 -0.55514698D-05
 -0.21610140D-06 -0.45640192D-06 -0.33060577D-06  0.17800575D-05  0.15354496D-05
 -0.21702655D-06 -0.11317533D-05 -0.16624384D-06  0.12088439D-05  0.16379499D-05
 -0.30702558D-05 -0.57230898D-05 -0.97020443D-05 -0.14691754D-04 -0.18372090D-04
 -0.15816659D-04 -0.60805010D-05  0.26347806D-07  0.20246111D-05  0.38018611D-05
  0.64739138D-05  0.10141348D-04  0.13590599D-04  0.14618522D-04  0.87769412D-05
 -0.57720858D-05  0.15893258D-05  0.56785212D-05  0.55117762D-05 -0.15751484D-05
 -0.15404607D-05 -0.10178475D-05  0.30279825D-06  0.29613007D-06  0.19566566D-06
  0.24983955D-17  0.24433762D-17  0.16144420D-17  0.32996550D-05  0.14106799D-06
 -0.16014740D-17 -0.59109401D-05 -0.34787430D-05 -0.17591225D-16 -0.56320370D-07
  0.26678515D-06 -0.37685670D-18 -0.36477905D-05  0.35614836D-05  0.86306881D-07
 -0.60515265D-05 -0.18250566D-16 -0.22265366D-18  0.10611797D-05 -0.11600518D-05
  0.98872076D-07  0.20363203D-05  0.85658440D-17 -0.28416099D-17  0.15601880D-05
 -0.41464230D-06 -0.11455457D-05  0.23145339D-05  0.10808958D-16  0.41784816D-17
  0.15381965D-05 -0.25639403D-05 -0.10430634D-16  0.44905049D-06  0.94559039D-05
  0.34464239D-16 -0.50636399D-05 -0.17640830D-05 -0.31723352D-17  0.54855378D-16
 -0.87510787D-06  0.79251368D-06  0.35518101D-17  0.10314288D-06 -0.29000400D-05
 -0.13114821D-16  0.25221807D-05  0.52249895D-06  0.24593905D-17 -0.15397686D-16
 -0.40780275D-05 -0.76016200D-05 -0.12886615D-04 -0.19514133D-04 -0.24402491D-04
 -0.21008272D-04 -0.80763467D-05  0.34996132D-07  0.26784801D-05  0.50297113D-05
  0.85647310D-05  0.13416600D-04  0.17979823D-04  0.19339724D-04  0.11611545D-04
 -0.76362404D-05  0.20337780D-05  0.19160772D-04 -0.35084629D-05 -0.20036242D-05
 -0.19595007D-05 -0.12947250D-05  0.20418037D-05  0.19968395D-05  0.13193963D-05
 -0.28293489D-05 -0.27670414D-05 -0.18283013D-05  0.20182456D-05 -0.13700898D-05
  0.21311844D-05 -0.17262605D-05 -0.71276853D-05  0.71674161D-05  0.11545040D-06
  0.17534703D-06 -0.45047908D-06 -0.26694189D-06 -0.35671070D-05  0.38340488D-05
 -0.10025417D-04 -0.12808208D-05 -0.19407555D-05 -0.30866657D-06  0.14279739D-05
 -0.11193073D-05  0.34764448D-05  0.12938419D-05 -0.37176958D-06 -0.88831317D-06
 -0.33073494D-06  0.12190481D-05 -0.16701536D-05 -0.41681459D-06 -0.22787799D-05
  0.22108631D-06  0.18484574D-05 -0.10881704D-05 -0.53440002D-05 -0.61827006D-05
 -0.22071561D-05  0.46807413D-05  0.63732826D-06  0.54716672D-05  0.55514698D-05
 -0.21610140D-06 -0.45640192D-06  0.33060577D-06  0.17800575D-05  0.15354496D-05
  0.21702655D-06 -0.11317533D-05 -0.16624384D-06 -0.12088439D-05 -0.16379499D-05
  0.30408964D-05  0.56683627D-05  0.96092683D-05  0.14551264D-04  0.18196407D-04
  0.15665411D-04  0.60223561D-05 -0.26095855D-07 -0.19828467D-05 -0.37234349D-05
 -0.63403675D-05 -0.99321481D-05 -0.13310247D-04 -0.14316965D-04 -0.85958871D-05
  0.56530170D-05 -0.19564027D-05 -0.14100129D-04 -0.42754061D-05  0.33665953D-08
  0.32924567D-08  0.21754653D-08  0.72078475D-06  0.70491175D-06  0.46576499D-06
  0.93528246D-07  0.91468582D-07  0.60437159D-07  0.37672816D-06  0.10377240D-06
 -0.59982220D-06 -0.10906653D-04 -0.76302080D-05  0.63955330D-05  0.98423143D-06
 -0.32243133D-06  0.96091003D-06 -0.86483601D-05  0.37772217D-05  0.48711384D-05
  0.11112637D-04 -0.75021978D-05 -0.39948014D-05  0.38872372D-05 -0.16606434D-05
 -0.22265938D-05 -0.51509637D-05  0.36645517D-05  0.19783958D-05  0.20413679D-05
 -0.16327726D-05 -0.40859530D-06 -0.14403722D-05  0.38062137D-05  0.13111731D-05
 -0.58605408D-05  0.32504575D-05 -0.14639128D-05  0.75299152D-05 -0.27935041D-05
  0.97918507D-05  0.10051707D-04 -0.69578683D-05 -0.54001124D-05  0.16192917D-05
  0.19029008D-05 -0.12840258D-05  0.88611786D-06 -0.23630610D-05  0.21071656D-05
 -0.44703260D-05 -0.33456414D-05  0.17449119D-05  0.18119724D-05  0.12694544D-05
  0.30408964D-05  0.56683627D-05  0.96092683D-05  0.14551264D-04  0.18196407D-04
  0.15665411D-04  0.60223561D-05 -0.26095855D-07 -0.19828467D-05 -0.37234349D-05
 -0.63403675D-05 -0.99321481D-05 -0.13310247D-04 -0.14316965D-04 -0.85958871D-05
  0.56530170D-05 -0.19564027D-05 -0.14100129D-04 -0.42754061D-05  0.33665953D-08
  0.32924566D-08  0.21754653D-08  0.72078475D-06  0.70491175D-06  0.46576499D-06
 -0.93528246D-07 -0.91468582D-07 -0.60437159D-07  0.37672816D-06  0.10377240D-06
  0.59982220D-06 -0.10906653D-04 -0.76302080D-05 -0.63955330D-05  0.98423143D-06
 -0.32243133D-06 -0.96091003D-06 -0.86483601D-05  0.37772217D-05  0.48711384D-05
  0.11112637D-04  0.75021978D-05  0.39948014D-05  0.38872372D-05 -0.16606434D-05
 -0.22265938D-05 -0.51509637D-05 -0.36645517D-05 -0.19783958D-05  0.20413679D-05
 -0.16327726D-05 -0.40859530D-06 -0.14403722D-05 -0.38062137D-05 -0.13111731D-05
 -0.58605408D-05  0.32504575D-05  0.14639128D-05  0.75299152D-05 -0.27935041D-05
 -0.97918507D-05  0.10051707D-04 -0.69578683D-05  0.54001124D-05 -0.16192917D-05
  0.19029008D-05 -0.12840258D-05 -0.88611786D-06 -0.23630610D-05  0.21071656D-05
  0.44703260D-05 -0.33456414D-05  0.17449119D-05 -0.18119724D-05 -0.12694544D-05
  0.78329869D+00  0.14734802D+01  0.25506669D+01  0.41810312D+01  0.65496663D+01
  0.98447062D+01  0.14070558D+02  0.18679016D+02  0.21754251D+02  0.19981069D+02
  0.11683717D+02  0.30658657D+01  0.16760968D+00 -0.59990773D-02  0.16765528D-02
 -0.49782510D-03  0.84870561D-04  0.69242704D-05  0.79501534D-04  0.14606895D-03
  0.25258688D-03  0.41364632D-03  0.65126754D-03  0.98347780D-03  0.14355772D-02
  0.19768771D-02  0.25259196D-02  0.27535484D-02  0.22665943D-02  0.62148477D-03
 -0.12535751D-02 -0.12216637D-02 -0.26733443D-03 -0.90062507D-05 -0.30510300D-06
  0.77614267D-09 -0.52710483D-04 -0.10333366D-03 -0.18098634D-03 -0.29567279D-03
 -0.46634721D-03 -0.70369712D-03 -0.10317598D-02 -0.14245151D-02 -0.18468909D-02
 -0.20538513D-02 -0.17838963D-02 -0.51818997D-03  0.13063506D-02  0.19034449D-02
  0.32768485D-03 -0.79941072D-03 -0.38049935D-03  0.18375476D-05  0.19396555D-04
  0.42027652D-04  0.71545412D-04  0.11678138D-03  0.18409439D-03  0.27785160D-03
  0.40737573D-03  0.56316802D-03  0.73093559D-03  0.81658287D-03  0.71330363D-03
  0.21128123D-03 -0.54920983D-03 -0.84487035D-03 -0.14787811D-03  0.46647332D-03
  0.39596531D-03 -0.14773112D-03  0.12430100D-03  0.68880592D-04  0.16812625D-04
 -0.90355923D-04 -0.12964475D-03 -0.17165654D-03 -0.19821467D-03 -0.18375412D-03
 -0.11896577D-03 -0.41990547D-04 -0.49216542D-05 -0.71551742D-07 -0.10477956D-07
 -0.10772966D-09 -0.28747768D-04 -0.41247958D-04 -0.54614489D-04 -0.63064261D-04