 Molden2AIM, Version 4.0.0 (06/02/2016)           Time: Fri Jun 29 17:37:05 2018
GAUSSIAN             11 MOL ORBITALS    279 PRIMITIVES        5 NUCLEI
  C    1    (CENTRE  1)   0.00000000  0.00000000 -2.30193208  CHARGE =  6.0
  N    2    (CENTRE  2)   0.00000000  0.00000000  0.14319589  CHARGE =  7.0
  H    3    (CENTRE  3)   1.81289364  0.00000000 -3.25616630  CHARGE =  1.0
  H    4    (CENTRE  4)  -1.81289364  0.00000000 -3.25616630  CHARGE =  1.0
  N    5    (CENTRE  5)   0.00000000  0.00000000  2.29709816  CHARGE =  7.0
CENTRE ASSIGNMENTS    1  1  1  1  1  1  1  1  1  1  1  1  1  1  1  1  1  1  1  1
CENTRE ASSIGNMENTS    1  1  1  1  1  1  1  1  1  1  1  1  1  1  1  1  1  1  1  1
CENTRE ASSIGNMENTS    1  1  1  1  1  1  1  1  1  1  1  1  1  1  1  1  1  1  1  1
CENTRE ASSIGNMENTS    1  1  1  1  1  1  1  1  1  1  1  1  1  1  1  2  2  2  2  2
CENTRE ASSIGNMENTS    2  2  2  2  2  2  2  2  2  2  2  2  2  2  2  2  2  2  2  2
CENTRE ASSIGNMENTS    2  2  2  2  2  2  2  2  2  2  2  2  2  2  2  2  2  2  2  2
CENTRE ASSIGNMENTS    2  2  2  2  2  2  2  2  2  2  2  2  2  2  2  2  2  2  2  2
CENTRE ASSIGNMENTS    2  2  2  2  2  2  2  2  2  2  3  3  3  3  3  3  3  3  3  3
CENTRE ASSIGNMENTS    3  3  3  3  3  3  3  3  3  3  3  3  3  3  3  3  3  4  4  4
CENTRE ASSIGNMENTS    4  4  4  4  4  4  4  4  4  4  4  4  4  4  4  4  4  4  4  4
CENTRE ASSIGNMENTS    4  4  4  4  5  5  5  5  5  5  5  5  5  5  5  5  5  5  5  5
CENTRE ASSIGNMENTS    5  5  5  5  5  5  5  5  5  5  5  5  5  5  5  5  5  5  5  5
CENTRE ASSIGNMENTS    5  5  5  5  5  5  5  5  5  5  5  5  5  5  5  5  5  5  5  5
CENTRE ASSIGNMENTS    5  5  5  5  5  5  5  5  5  5  5  5  5  5  5  5  5  5  5
TYPE ASSIGNMENTS      1  1  1  1  1  1  1  1  1  1  1  1  1  1  1  1  1  1  1  2
TYPE ASSIGNMENTS      2  2  3  3  3  4  4  4  2  3  4  2  3  4  2  3  4  5  6  7
TYPE ASSIGNMENTS      8  9 10  5  6  7  8  9 10  5  6  7  8  9 10 11 12 13 17 14
TYPE ASSIGNMENTS     15 18 19 16 20 11 12 13 17 14 15 18 19 16 20  1  1  1  1  1
TYPE ASSIGNMENTS      1  1  1  1  1  1  1  1  1  1  1  1  1  1  2  2  2  3  3  3
TYPE ASSIGNMENTS      4  4  4  2  3  4  2  3  4  2  3  4  5  6  7  8  9 10  5  6
TYPE ASSIGNMENTS      7  8  9 10  5  6  7  8  9 10 11 12 13 17 14 15 18 19 16 20
TYPE ASSIGNMENTS     11 12 13 17 14 15 18 19 16 20  1  1  1  1  1  1  2  3  4  2
TYPE ASSIGNMENTS      3  4  2  3  4  5  6  7  8  9 10  5  6  7  8  9 10  1  1  1
TYPE ASSIGNMENTS      1  1  1  2  3  4  2  3  4  2  3  4  5  6  7  8  9 10  5  6
TYPE ASSIGNMENTS      7  8  9 10  1  1  1  1  1  1  1  1  1  1  1  1  1  1  1  1
TYPE ASSIGNMENTS      1  1  1  2  2  2  3  3  3  4  4  4  2  3  4  2  3  4  2  3
TYPE ASSIGNMENTS      4  5  6  7  8  9 10  5  6  7  8  9 10  5  6  7  8  9 10 11
TYPE ASSIGNMENTS     12 13 17 14 15 18 19 16 20 11 12 13 17 14 15 18 19 16 20
EXPONENTS  0.8236000D+04 0.1235000D+04 0.2808000D+03 0.7927000D+02 0.2559000D+02
EXPONENTS  0.8997000D+01 0.3319000D+01 0.3643000D+00 0.8236000D+04 0.1235000D+04
EXPONENTS  0.2808000D+03 0.7927000D+02 0.2559000D+02 0.8997000D+01 0.3319000D+01
EXPONENTS  0.3643000D+00 0.9059000D+00 0.1285000D+00 0.4402000D-01 0.1871000D+02
EXPONENTS  0.4133000D+01 0.1200000D+01 0.1871000D+02 0.4133000D+01 0.1200000D+01
EXPONENTS  0.1871000D+02 0.4133000D+01 0.1200000D+01 0.3827000D+00 0.3827000D+00
EXPONENTS  0.3827000D+00 0.1209000D+00 0.1209000D+00 0.1209000D+00 0.3569000D-01
EXPONENTS  0.3569000D-01 0.3569000D-01 0.1097000D+01 0.1097000D+01 0.1097000D+01
EXPONENTS  0.1097000D+01 0.1097000D+01 0.1097000D+01 0.3180000D+00 0.3180000D+00
EXPONENTS  0.3180000D+00 0.3180000D+00 0.3180000D+00 0.3180000D+00 0.1000000D+00
EXPONENTS  0.1000000D+00 0.1000000D+00 0.1000000D+00 0.1000000D+00 0.1000000D+00
EXPONENTS  0.7610000D+00 0.7610000D+00 0.7610000D+00 0.7610000D+00 0.7610000D+00
EXPONENTS  0.7610000D+00 0.7610000D+00 0.7610000D+00 0.7610000D+00 0.7610000D+00
EXPONENTS  0.2680000D+00 0.2680000D+00 0.2680000D+00 0.2680000D+00 0.2680000D+00
EXPONENTS  0.2680000D+00 0.2680000D+00 0.2680000D+00 0.2680000D+00 0.2680000D+00
EXPONENTS  0.1142000D+05 0.1712000D+04 0.3893000D+03 0.1100000D+03 0.3557000D+02
EXPONENTS  0.1254000D+02 0.4644000D+01 0.5118000D+00 0.1142000D+05 0.1712000D+04
EXPONENTS  0.3893000D+03 0.1100000D+03 0.3557000D+02 0.1254000D+02 0.4644000D+01
EXPONENTS  0.5118000D+00 0.1293000D+01 0.1787000D+00 0.5760000D-01 0.2663000D+02
EXPONENTS  0.5948000D+01 0.1742000D+01 0.2663000D+02 0.5948000D+01 0.1742000D+01
EXPONENTS  0.2663000D+02 0.5948000D+01 0.1742000D+01 0.5550000D+00 0.5550000D+00
EXPONENTS  0.5550000D+00 0.1725000D+00 0.1725000D+00 0.1725000D+00 0.4910000D-01
EXPONENTS  0.4910000D-01 0.4910000D-01 0.1654000D+01 0.1654000D+01 0.1654000D+01
EXPONENTS  0.1654000D+01 0.1654000D+01 0.1654000D+01 0.4690000D+00 0.4690000D+00
EXPONENTS  0.4690000D+00 0.4690000D+00 0.4690000D+00 0.4690000D+00 0.1510000D+00
EXPONENTS  0.1510000D+00 0.1510000D+00 0.1510000D+00 0.1510000D+00 0.1510000D+00
EXPONENTS  0.1093000D+01 0.1093000D+01 0.1093000D+01 0.1093000D+01 0.1093000D+01
EXPONENTS  0.1093000D+01 0.1093000D+01 0.1093000D+01 0.1093000D+01 0.1093000D+01
EXPONENTS  0.3640000D+00 0.3640000D+00 0.3640000D+00 0.3640000D+00 0.3640000D+00
EXPONENTS  0.3640000D+00 0.3640000D+00 0.3640000D+00 0.3640000D+00 0.3640000D+00
EXPONENTS  0.3387000D+02 0.5095000D+01 0.1159000D+01 0.3258000D+00 0.1027000D+00
EXPONENTS  0.2526000D-01 0.1407000D+01 0.1407000D+01 0.1407000D+01 0.3880000D+00
EXPONENTS  0.3880000D+00 0.3880000D+00 0.1020000D+00 0.1020000D+00 0.1020000D+00
EXPONENTS  0.1057000D+01 0.1057000D+01 0.1057000D+01 0.1057000D+01 0.1057000D+01
EXPONENTS  0.1057000D+01 0.2470000D+00 0.2470000D+00 0.2470000D+00 0.2470000D+00
EXPONENTS  0.2470000D+00 0.2470000D+00 0.3387000D+02 0.5095000D+01 0.1159000D+01
EXPONENTS  0.3258000D+00 0.1027000D+00 0.2526000D-01 0.1407000D+01 0.1407000D+01
EXPONENTS  0.1407000D+01 0.3880000D+00 0.3880000D+00 0.3880000D+00 0.1020000D+00
EXPONENTS  0.1020000D+00 0.1020000D+00 0.1057000D+01 0.1057000D+01 0.1057000D+01
EXPONENTS  0.1057000D+01 0.1057000D+01 0.1057000D+01 0.2470000D+00 0.2470000D+00
EXPONENTS  0.2470000D+00 0.2470000D+00 0.2470000D+00 0.2470000D+00 0.1142000D+05
EXPONENTS  0.1712000D+04 0.3893000D+03 0.1100000D+03 0.3557000D+02 0.1254000D+02
EXPONENTS  0.4644000D+01 0.5118000D+00 0.1142000D+05 0.1712000D+04 0.3893000D+03
EXPONENTS  0.1100000D+03 0.3557000D+02 0.1254000D+02 0.4644000D+01 0.5118000D+00
EXPONENTS  0.1293000D+01 0.1787000D+00 0.5760000D-01 0.2663000D+02 0.5948000D+01
EXPONENTS  0.1742000D+01 0.2663000D+02 0.5948000D+01 0.1742000D+01 0.2663000D+02
EXPONENTS  0.5948000D+01 0.1742000D+01 0.5550000D+00 0.5550000D+00 0.5550000D+00
EXPONENTS  0.1725000D+00 0.1725000D+00 0.1725000D+00 0.4910000D-01 0.4910000D-01
EXPONENTS  0.4910000D-01 0.1654000D+01 0.1654000D+01 0.1654000D+01 0.1654000D+01
EXPONENTS  0.1654000D+01 0.1654000D+01 0.4690000D+00 0.4690000D+00 0.4690000D+00
EXPONENTS  0.4690000D+00 0.4690000D+00 0.4690000D+00 0.1510000D+00 0.1510000D+00
EXPONENTS  0.1510000D+00 0.1510000D+00 0.1510000D+00 0.1510000D+00 0.1093000D+01
EXPONENTS  0.1093000D+01 0.1093000D+01 0.1093000D+01 0.1093000D+01 0.1093000D+01
EXPONENTS  0.1093000D+01 0.1093000D+01 0.1093000D+01 0.1093000D+01 0.3640000D+00
EXPONENTS  0.3640000D+00 0.3640000D+00 0.3640000D+00 0.3640000D+00 0.3640000D+00
EXPONENTS  0.3640000D+00 0.3640000D+00 0.3640000D+00 0.3640000D+00
MO    1     MO 0.0        OCC NO =    2.0000000  ORB. ENERGY =  -14.533411
  0.24688990D-03  0.46025892D-03  0.77791865D-03  0.11694665D-02  0.14368248D-02
  0.12136282D-02  0.45773591D-03 -0.22653606D-05 -0.19261438D-03 -0.36063490D-03
 -0.61401177D-03 -0.94978284D-03 -0.12508306D-02 -0.12996931D-02 -0.82589662D-03
  0.55349671D-03  0.23478298D-03 -0.31289822D-02  0.13434070D-03 -0.31307854D-14
 -0.29353103D-14 -0.20901158D-14  0.23731771D-15  0.22250044D-15  0.15843357D-15
  0.68356300D-03  0.64088376D-03  0.45634742D-03  0.58336114D-14  0.19559661D-17
  0.10948056D-02  0.12746906D-13 -0.11711988D-17 -0.72066828D-03  0.37388222D-15
 -0.14858050D-19  0.15563012D-04 -0.56836661D-03 -0.78855771D-03  0.13569243D-02
 -0.13541985D-17 -0.14869619D-14  0.86827632D-18  0.22014668D-03  0.24811651D-03
 -0.46826318D-03  0.21880745D-17 -0.41240319D-14  0.43048056D-18  0.39218808D-04
  0.28632199D-04 -0.67851007D-04  0.21963825D-18 -0.80853551D-15 -0.43587290D-19
  0.29248208D-15 -0.32448170D-18 -0.36787418D-03 -0.54394438D-15 -0.13474882D-18
  0.95607945D-03 -0.33350186D-15  0.11081939D-17  0.14754309D-03 -0.12472240D-17
  0.15444305D-15 -0.11180197D-19 -0.12362175D-03 -0.68439716D-15 -0.14423890D-18
  0.50814909D-03  0.22106801D-15  0.17777949D-18 -0.13728385D-03 -0.35803206D-18
  0.41194642D+00  0.76760149D+00  0.12982066D+01  0.19550271D+01  0.24204504D+01
  0.20596941D+01  0.78375159D+00 -0.36706430D-02 -0.13589753D-02 -0.25480914D-02
 -0.43350617D-02 -0.67318931D-02 -0.89336137D-02 -0.94148025D-02 -0.58377782D-02
  0.38832923D-02  0.44167136D-01  0.21147582D-02 -0.28739447D-05 -0.56786610D-15
 -0.54542860D-15 -0.38249218D-15  0.17303030D-16  0.16619353D-16  0.11654638D-16
 -0.28079377D-03 -0.26969906D-03 -0.18913160D-03  0.74847843D-15 -0.32921405D-17
  0.57018564D-02 -0.71561001D-15 -0.21515820D-18 -0.33709356D-02 -0.91866249D-17
  0.23069459D-19  0.46407417D-04 -0.32251338D-02 -0.40597740D-02  0.72849078D-02
  0.77688260D-18  0.29091911D-15 -0.55011602D-17  0.92367149D-04  0.51833359D-03
 -0.61070074D-03 -0.13190045D-18 -0.42918120D-15  0.39212542D-18  0.16952056D-03
  0.21547569D-03 -0.38499625D-03 -0.48810952D-19  0.18343894D-14 -0.93664911D-18
  0.65248656D-16  0.60175363D-18  0.16914326D-02 -0.21417856D-15  0.21374057D-18
 -0.25333031D-02  0.18432590D-16 -0.20190015D-17 -0.25409948D-02 -0.36384146D-18
 -0.97050548D-16  0.20748899D-19 -0.29407876D-03  0.15509529D-15  0.73252164D-19
  0.68324878D-03  0.13605636D-15 -0.13549886D-18  0.19898751D-03  0.83361058D-19
  0.78930384D-04  0.14235420D-03  0.20990118D-03  0.11199027D-02  0.28218035D-04
  0.56849321D-05 -0.30558375D-03  0.99995288D-18  0.27888783D-03 -0.31272844D-03
 -0.15980774D-17 -0.64742873D-03 -0.46124394D-04 -0.28425063D-18 -0.57465199D-04
  0.32192146D-03  0.18472141D-03 -0.50664287D-03  0.67535291D-18  0.38484111D-03
  0.61308252D-18  0.58318204D-04  0.74567874D-04 -0.13288608D-03  0.47028562D-18
  0.62074435D-04 -0.47196130D-18  0.78930384D-04  0.14235420D-03  0.20990118D-03
  0.11199027D-02  0.28218035D-04  0.56849321D-05  0.30558375D-03 -0.12551075D-17
  0.27888783D-03  0.31272844D-03  0.22472343D-17 -0.64742873D-03  0.46124394D-04
  0.55777278D-18 -0.57465199D-04  0.32192146D-03  0.18472141D-03 -0.50664287D-03
  0.66557525D-18 -0.38484111D-03  0.22413656D-18  0.58318204D-04  0.74567874D-04
 -0.13288608D-03  0.67977790D-18 -0.62074435D-04  0.45805375D-18  0.36992077D-02
  0.68929289D-02  0.11657671D-01  0.17555806D-01  0.21735227D-01  0.18495697D-01
  0.70379541D-02 -0.32961741D-04 -0.10602960D-03 -0.19880649D-03 -0.33822900D-03
 -0.52523392D-03 -0.69701597D-03 -0.73455915D-03 -0.45547353D-03  0.30298117D-03
  0.21250887D-02  0.22373078D-02 -0.46770360D-03 -0.32735596D-15 -0.31442149D-15
 -0.22049405D-15 -0.96632912D-18 -0.92814757D-18 -0.65088114D-18 -0.33011214D-02
 -0.31706876D-02 -0.22235050D-02  0.29830267D-15  0.14384403D-17  0.29505524D-02
 -0.19718894D-14  0.12089996D-17  0.81829639D-03 -0.55007838D-16  0.28401153D-19
  0.45976531D-04  0.65957949D-03  0.34551242D-03 -0.10050919D-02 -0.75467913D-19
 -0.62429570D-15  0.25700823D-18  0.11765956D-02  0.14194416D-02 -0.25960372D-02
  0.19341558D-19  0.39733698D-15 -0.16529444D-17  0.10195261D-03  0.92430364D-04
 -0.19438297D-03  0.44254737D-20  0.29999710D-15 -0.16148575D-18  0.74965959D-16
 -0.26933257D-18  0.23076022D-02  0.32133538D-15 -0.70144621D-18 -0.33983156D-02
 -0.54623325D-15  0.15094439D-17 -0.35244910D-02  0.94938078D-19 -0.21819865D-17
 -0.69806627D-19  0.35917973D-03 -0.11163237D-15 -0.14182241D-19 -0.49288497D-03
  0.11817833D-15  0.22360212D-18 -0.58465423D-03 -0.34551293D-19
MO    2     MO 0.0        OCC NO =    2.0000000  ORB. ENERGY =  -14.459760
 -0.44117950D-03 -0.82245889D-03 -0.13901004D-02 -0.20897763D-02 -0.25675316D-02
 -0.21686909D-02 -0.81795041D-03  0.40480822D-05  0.33737994D-03  0.63168169D-03
  0.10754921D-02  0.16636228D-02  0.21909327D-02  0.22765194D-02  0.14466259D-02
 -0.96949503D-03 -0.14329028D-02 -0.31429155D-02 -0.13933955D-03  0.14542115D-14
  0.13634157D-14  0.97083322D-15  0.28657667D-15  0.26868384D-15  0.19131890D-15
 -0.11179907D-02 -0.10481873D-02 -0.74637181D-03 -0.59402050D-14 -0.13395620D-15
  0.35317960D-04 -0.15193773D-13  0.31891734D-16 -0.13426930D-02 -0.65782950D-16
  0.67289478D-19  0.69883846D-05  0.20326279D-03 -0.66296509D-04 -0.13696628D-03
  0.39335390D-17  0.14841828D-14 -0.79946647D-17 -0.14353454D-03 -0.30542149D-03
  0.44895603D-03 -0.66221222D-17  0.40591748D-14  0.17583814D-16  0.83598389D-06
  0.19205329D-04 -0.20041313D-04 -0.18814572D-18  0.97423372D-15  0.14791831D-17
 -0.31190878D-15  0.25131219D-18 -0.89118333D-04  0.43093867D-15 -0.96366587D-17
  0.18877110D-03  0.50478768D-15  0.88827222D-17  0.78583897D-04 -0.83363588D-18
 -0.22196240D-15  0.16013233D-18  0.16469483D-04  0.86018935D-15 -0.21532604D-19
  0.12009623D-03 -0.19430213D-15 -0.45886439D-18 -0.16950468D-03  0.41291923D-17
 -0.35956671D-02 -0.66999962D-02 -0.11331373D-01 -0.17064420D-01 -0.21126859D-01
 -0.17978004D-01 -0.68409620D-02  0.32039144D-04 -0.11327389D-03 -0.21238959D-03
 -0.36133789D-03 -0.56111959D-03 -0.74463834D-03 -0.78474659D-03 -0.48659295D-03
  0.32368182D-03  0.18289134D-02 -0.14107357D-01 -0.15352524D-02  0.73542812D-15
  0.70636992D-15  0.49535534D-15 -0.75943267D-19 -0.72942600D-19 -0.51152386D-19
  0.34859478D-02  0.33482112D-02  0.23479968D-02 -0.10836496D-14  0.71247553D-18
 -0.22345749D-02  0.24153347D-15 -0.22158466D-17 -0.12583606D-01 -0.44418351D-15
 -0.14060128D-18 -0.21561148D-03  0.10738738D-03 -0.26283068D-03  0.15544330D-03
  0.34890735D-17  0.41133834D-15 -0.21190727D-16  0.18632105D-02  0.20751766D-02
 -0.39383871D-02 -0.20315352D-17 -0.32672710D-15  0.17289006D-16  0.36209804D-03
  0.35740198D-03 -0.71950002D-03 -0.37397969D-18 -0.21702011D-14  0.56157463D-17
 -0.44893220D-16 -0.22820086D-17 -0.18235770D-02  0.33831062D-15 -0.16577693D-17
  0.27264259D-02 -0.20363096D-15  0.85037951D-17  0.27443050D-02 -0.36651431D-17
  0.15474757D-15  0.91288065D-18 -0.10128085D-02 -0.16234442D-15  0.86823149D-18
  0.16360706D-02 -0.30189830D-15 -0.36068734D-17  0.14023550D-02  0.17351943D-17
  0.38513643D-04  0.69460941D-04  0.10242012D-03  0.19051327D-03 -0.32872799D-03
  0.42319276D-05 -0.16640875D-03 -0.98116236D-17  0.10806911D-04  0.21010794D-03
  0.16532782D-16 -0.30138092D-03  0.83661461D-04  0.30022329D-17  0.11061773D-04
  0.10077847D-03  0.12497261D-03 -0.22575108D-03  0.30593550D-17  0.28392742D-03
  0.62291342D-17 -0.20948883D-05  0.71092489D-04 -0.68997601D-04 -0.87856500D-17
 -0.37908068D-04  0.26456878D-18  0.38513643D-04  0.69460941D-04  0.10242012D-03
  0.19051327D-03 -0.32872800D-03  0.42319276D-05  0.16640875D-03  0.10755498D-18
  0.10806911D-04 -0.21010794D-03  0.13186163D-17 -0.30138092D-03 -0.83661461D-04
  0.95506775D-18  0.11061773D-04  0.10077847D-03  0.12497261D-03 -0.22575108D-03
  0.46575158D-18 -0.28392742D-03  0.10987517D-17 -0.20948883D-05  0.71092489D-04
 -0.68997601D-04  0.20361783D-17  0.37908068D-04 -0.33353730D-20  0.41208430D+00
  0.76785841D+00  0.12986411D+01  0.19556815D+01  0.24212606D+01  0.20603835D+01
  0.78401391D+00 -0.36718716D-02 -0.14119965D-02 -0.26475067D-02 -0.45041966D-02
 -0.69945417D-02 -0.92821637D-02 -0.97821264D-02 -0.60655424D-02  0.40348011D-02
  0.44354006D-01  0.20311070D-01  0.16738739D-02  0.35149730D-15  0.33760895D-15
  0.23675470D-15 -0.14494335D-17 -0.13921635D-17 -0.97628117D-18 -0.78713851D-02
 -0.75603713D-02 -0.53018542D-02 -0.13897296D-15 -0.20239863D-17 -0.65396172D-02
  0.28070831D-14 -0.72337833D-17 -0.53685176D-02  0.23784334D-15 -0.22942422D-18
 -0.77934624D-04 -0.27452619D-02 -0.30820791D-02  0.58273410D-02  0.97244030D-18
  0.88835752D-15 -0.82376401D-17 -0.22908572D-03 -0.73991734D-04  0.30307745D-03
 -0.17869140D-18 -0.10017489D-14  0.63290482D-17 -0.56582830D-04 -0.50877506D-04
  0.10746034D-03 -0.10174409D-20 -0.54367116D-15  0.16816769D-17 -0.10945393D-15
  0.20577920D-17 -0.10973652D-02 -0.41650107D-15  0.11098239D-17  0.16281187D-02
  0.74486286D-15 -0.72832000D-17  0.16639770D-02  0.41859508D-18 -0.48984248D-16
  0.22715450D-18  0.22404748D-03  0.87467357D-16  0.37377570D-18 -0.29956406D-03
  0.59485388D-16 -0.10552392D-17 -0.37257838D-03  0.41620587D-19
MO    3     MO 0.0        OCC NO =    2.0000000  ORB. ENERGY =  -10.263964
  0.32971781D+00  0.61466896D+00  0.10388988D+01  0.15618052D+01  0.19188582D+01
  0.16207825D+01  0.61129952D+00 -0.30253554D-02 -0.30819879D-02 -0.57704537D-02
 -0.98246912D-02 -0.15197303D-01 -0.20014314D-01 -0.20796154D-01 -0.13215022D-01
  0.88564007D-02  0.35843336D-01  0.61654125D-02  0.87801897D-03 -0.82709392D-14
 -0.77545312D-14 -0.55216882D-14  0.62745556D-18  0.58827947D-18  0.41889003D-18
  0.38335729D-02  0.35942183D-02  0.25592976D-02  0.32834343D-13 -0.13531080D-17
  0.21882153D-02  0.46656143D-13 -0.76736703D-18  0.26077594D-02 -0.22080698D-16
 -0.22773479D-19  0.20717732D-04  0.19937140D-02 -0.47404637D-02  0.27467497D-02
 -0.78858948D-18 -0.85792590D-14  0.10806859D-17  0.32005001D-03  0.10888484D-03
 -0.42893485D-03  0.26492123D-18 -0.21335485D-13 -0.13002751D-17 -0.16244259D-03
 -0.28635575D-04  0.19107817D-03  0.41227700D-19 -0.36761738D-14 -0.10571759D-18
  0.20112656D-14  0.19375560D-18  0.11655702D-02 -0.42304559D-14 -0.14746774D-18
 -0.36681675D-02 -0.18033410D-14 -0.43379905D-18  0.17145677D-03 -0.97482859D-19
  0.88983896D-15  0.53917343D-19 -0.43638767D-03 -0.28537446D-14  0.13854166D-19
  0.12456391D-02  0.18422774D-15 -0.17560620D-18  0.63523956D-04 -0.50963566D-19
  0.23375348D-03  0.43556519D-03  0.73664993D-03  0.11093540D-02  0.13734522D-02
  0.11687458D-02  0.44472935D-03 -0.20828573D-05 -0.25171885D-03 -0.47197519D-03
 -0.80297024D-03 -0.12469280D-02 -0.16547460D-02 -0.17438751D-02 -0.10813138D-02
  0.71929037D-03  0.12391390D-02 -0.11875083D-03 -0.40031433D-03 -0.24518910D-14
 -0.23550120D-14 -0.16514970D-14 -0.27055644D-18 -0.25986622D-18 -0.18223613D-18
 -0.19075708D-02 -0.18321989D-02 -0.12848644D-02  0.37635794D-14  0.12601314D-19
 -0.16856674D-02  0.48273069D-15  0.75026076D-18  0.11739230D-01  0.16290281D-14
  0.84908893D-19  0.29918776D-03  0.39026245D-03 -0.70490296D-03  0.31464051D-03
 -0.20993068D-19  0.14862111D-14  0.12194783D-17  0.81680431D-03  0.15231653D-02
 -0.23399696D-02  0.22392110D-19 -0.25508530D-14 -0.14616917D-17 -0.30287450D-03
 -0.16813545D-03  0.47100996D-03 -0.95887632D-20  0.50898496D-14 -0.56641816D-18
  0.66905641D-15  0.25624644D-18  0.64919441D-03 -0.93384715D-15  0.23091923D-18
 -0.15219089D-02 -0.10733221D-14 -0.99965854D-18 -0.42567431D-03 -0.19888172D-18
 -0.60476297D-15 -0.16364501D-18  0.10088655D-02  0.58968430D-15 -0.14590756D-18
 -0.12386907D-02  0.12246046D-14  0.63684259D-18 -0.17879056D-02  0.77737106D-19
  0.15333965D-03  0.27655438D-03  0.40777927D-03 -0.52399609D-03  0.40774113D-03
 -0.34938296D-04  0.16588011D-02  0.11196602D-18 -0.79436731D-03  0.18597085D-02
 -0.18818948D-18 -0.14312684D-02  0.18007281D-03 -0.27700303D-19  0.12345502D-03
 -0.18785849D-02  0.14328501D-02  0.44573475D-03 -0.22777549D-18  0.36282206D-02
  0.97982789D-19 -0.20575066D-03  0.22594997D-03 -0.20199316D-04  0.82125639D-19
  0.11352644D-03 -0.43613754D-19  0.15333965D-03  0.27655438D-03  0.40777927D-03
 -0.52399609D-03  0.40774113D-03 -0.34938296D-04 -0.16588011D-02 -0.10618642D-18
 -0.79436731D-03 -0.18597085D-02  0.25816731D-18 -0.14312684D-02 -0.18007281D-03
  0.12614710D-18  0.12345503D-03 -0.18785849D-02  0.14328501D-02  0.44573475D-03
  0.23824296D-18 -0.36282206D-02  0.25173316D-18 -0.20575066D-03  0.22594997D-03
 -0.20199316D-04  0.86604896D-19 -0.11352644D-03  0.54542718D-19 -0.38268055D-03
 -0.71306886D-03 -0.12059782D-02 -0.18161363D-02 -0.22484946D-02 -0.19133674D-02
 -0.72807161D-03  0.34098700D-05  0.30378386D-03  0.56959757D-03  0.96905495D-03
  0.15048400D-02  0.19970102D-02  0.21045747D-02  0.13049705D-02 -0.86806691D-03
 -0.12750861D-02 -0.12401773D-01 -0.10584893D-02 -0.81455993D-15 -0.78237507D-15
 -0.54865541D-15  0.16515255D-18  0.15862705D-18  0.11124024D-18  0.96312575D-03
  0.92507077D-03  0.64872348D-03  0.44450100D-15 -0.43163780D-18 -0.48052237D-03
 -0.65578473D-14  0.55234854D-18  0.27782281D-02 -0.75398101D-15 -0.23116537D-19
  0.12577054D-04  0.37574367D-03  0.89923595D-04 -0.46566727D-03  0.79999536D-19
 -0.21638524D-14  0.55971379D-18 -0.56278058D-03 -0.34767706D-03  0.91045764D-03
 -0.36933305D-19  0.15975423D-14 -0.43437732D-18  0.16823210D-04 -0.42344163D-04
  0.25520953D-04 -0.48164270D-20  0.12568122D-14 -0.92316621D-19 -0.34269831D-16
 -0.12966914D-18  0.13873988D-03  0.83550299D-15 -0.21997581D-18 -0.16714942D-03
 -0.73269350D-15  0.60898325D-18 -0.24907021D-03 -0.10189880D-18  0.92024721D-16
 -0.42606499D-19 -0.11532228D-03 -0.35983792D-15 -0.42429230D-19  0.16352924D-03
  0.83763758D-16  0.17024873D-18  0.18243759D-03  0.41885052D-19
MO    4     MO 0.0        OCC NO =    2.0000000  ORB. ENERGY =   -1.141586
 -0.21680086D-02 -0.40416610D-02 -0.68311191D-02 -0.10269410D-01 -0.12617156D-01
 -0.10657205D-01 -0.40195058D-02  0.19892758D-04 -0.10176233D-01 -0.19053120D-01
 -0.32439567D-01 -0.50179077D-01 -0.66084079D-01 -0.68665591D-01 -0.43633901D-01
  0.29242425D-01  0.12456123D-01  0.41603250D-02  0.25207197D-02 -0.43380218D-13
 -0.40671711D-13 -0.28960681D-13 -0.88630051D-16 -0.83096306D-16 -0.59169520D-16
  0.77281734D-01  0.72456538D-01  0.51593372D-01  0.17567023D-12 -0.15948621D-15
  0.14422796D-01  0.42924400D-12  0.54288186D-16  0.38818639D-03  0.85296632D-15
  0.24044377D-17  0.19170179D-03 -0.56288880D-02 -0.88685781D-02  0.14497466D-01
 -0.89363968D-16 -0.34919715D-13  0.36591097D-16  0.12138764D-02 -0.59773435D-03
 -0.61614209D-03 -0.12996161D-16 -0.12912555D-12  0.40349670D-16  0.31341259D-04
  0.38583080D-04 -0.69924339D-04 -0.28888188D-18 -0.25733923D-13  0.49480951D-17
  0.85173626D-14 -0.51886235D-17  0.18894547D-02 -0.17663885D-13 -0.13172994D-16
 -0.33189967D-02 -0.78882026D-14  0.28738865D-16 -0.23493672D-02  0.50321572D-17
  0.47625917D-14  0.37629531D-18 -0.55103425D-03 -0.23355432D-13 -0.27791998D-17
  0.15990584D-02  0.90676572D-14  0.16503138D-17  0.54044373D-04  0.15830968D-16
 -0.92195826D-02 -0.17179335D-01 -0.29054562D-01 -0.43754560D-01 -0.54170983D-01
 -0.46097062D-01 -0.17540782D-01  0.82150968D-04 -0.63545157D-01 -0.11914776D+00
 -0.20270580D+00 -0.31478070D+00 -0.41773229D+00 -0.44023250D+00 -0.27297223D+00
  0.18158123D+00  0.94413376D-01  0.18369500D-01 -0.82612150D-02 -0.12288901D-13
 -0.11803343D-13 -0.82773185D-14  0.10529322D-15  0.10113288D-15  0.70921353D-16
  0.30684244D+00  0.29471849D+00  0.20667695D+00  0.20886403D-13  0.18213016D-16
  0.52427358D-01 -0.16107151D-13  0.67606094D-17 -0.98594155D-03  0.15453106D-13
  0.56855343D-17  0.19673520D-04 -0.30947573D-01 -0.34688081D-01  0.65635653D-01
  0.33539090D-16 -0.28268296D-14 -0.18089072D-16 -0.27494818D-02 -0.30292556D-02
  0.57787373D-02 -0.54998661D-17 -0.22846064D-14  0.59111561D-16  0.58667314D-03
  0.68548383D-03 -0.12721570D-02 -0.90669939D-18  0.49907446D-13  0.21558757D-16
  0.23846194D-14 -0.12094949D-17  0.91634767D-02 -0.52861901D-14  0.16607308D-17
 -0.13746116D-01 -0.18676682D-14  0.19677538D-17 -0.13744314D-01 -0.11432414D-16
 -0.35938254D-14  0.31472043D-17 -0.53979221D-03  0.38992593D-14  0.40519010D-17
  0.17022706D-02  0.68822169D-14 -0.13493514D-16 -0.82894002D-04  0.12641710D-16
  0.15438023D-02  0.27843110D-02  0.41054650D-02  0.20465634D-02 -0.35201141D-03
 -0.23188812D-04 -0.64742495D-03 -0.86243736D-17  0.15260329D-02  0.47459029D-03
  0.28319987D-16 -0.18523847D-02  0.36933961D-04  0.16913508D-16 -0.51771321D-04
 -0.10096478D-03  0.24601279D-04  0.76363500D-04  0.10214766D-17  0.38528522D-03
  0.11443708D-16  0.65401325D-04  0.31217997D-03 -0.37758129D-03 -0.21656724D-16
  0.96241412D-04 -0.19208248D-17  0.15438023D-02  0.27843110D-02  0.41054650D-02
  0.20465634D-02 -0.35201141D-03 -0.23188812D-04  0.64742495D-03  0.12511080D-16
  0.15260329D-02 -0.47459029D-03 -0.69165644D-17 -0.18523847D-02 -0.36933960D-04
  0.89228862D-17 -0.51771321D-04 -0.10096478D-03  0.24601279D-04  0.76363500D-04
 -0.13102459D-16 -0.38528522D-03  0.13607675D-16  0.65401325D-04  0.31217997D-03
 -0.37758129D-03 -0.21620351D-17 -0.96241412D-04  0.32595855D-17 -0.84983356D-02
 -0.15835397D-01 -0.26781626D-01 -0.40331645D-01 -0.49933193D-01 -0.42490894D-01
 -0.16168569D-01  0.75724306D-04 -0.49095853D-01 -0.92055184D-01 -0.15661326D+00
 -0.24320385D+00 -0.32274566D+00 -0.34012962D+00 -0.21090206D+00  0.14029213D+00
  0.72195240D-01  0.26974302D-01  0.29013649D-02 -0.62896626D-14 -0.60411457D-14
 -0.42364684D-14  0.62328756D-16  0.59866025D-16  0.41982189D-16 -0.40019679D+00
 -0.38438424D+00 -0.26955676D+00  0.55215256D-14  0.10786395D-16 -0.86983859D-01
 -0.60560396D-13 -0.32917236D-16 -0.40187040D-02 -0.79305769D-14 -0.35255280D-17
 -0.17137488D-03 -0.29483420D-01 -0.34211312D-01  0.63694732D-01  0.14213602D-16
 -0.89175902D-14 -0.40941746D-16 -0.42241639D-02 -0.42872694D-02  0.85114332D-02
 -0.15549450D-17  0.13026905D-13  0.17603453D-16  0.12062310D-03  0.12796228D-03
 -0.24858539D-03 -0.31225225D-18  0.12212059D-13  0.99218175D-17  0.59836486D-15
  0.48808343D-18 -0.11849256D-01  0.57738155D-14 -0.18223412D-17  0.16311195D-01
 -0.75689101D-14  0.35809093D-18  0.19236572D-01 -0.47999133D-17  0.86496820D-15
  0.17471850D-17 -0.83384770D-04 -0.21568830D-14  0.28873099D-17  0.25478578D-03
 -0.43802160D-15 -0.81288650D-17 -0.46314674D-05 -0.17249422D-18
MO    5     MO 0.0        OCC NO =    2.0000000  ORB. ENERGY =   -0.874958
 -0.84712881D-02 -0.15792407D-01 -0.26691950D-01 -0.40126744D-01 -0.49300342D-01
 -0.41642020D-01 -0.15705838D-01  0.77729067D-04 -0.39158338D-01 -0.73316763D-01
 -0.12482806D+00 -0.19309003D+00 -0.25429278D+00 -0.26422649D+00 -0.16790407D+00
  0.11252540D+00  0.47773066D-01  0.33488957D-01  0.17567392D-02 -0.51686376D-13
 -0.48459263D-13 -0.34505882D-13  0.19507179D-15  0.18289220D-15  0.13023014D-15
  0.20323271D+00  0.19054359D+00  0.13567839D+00  0.20302861D-12  0.35794346D-16
  0.28858198D-01  0.42750683D-12  0.16298986D-16 -0.54955675D-03  0.58323183D-14
  0.12882179D-17 -0.61996733D-04 -0.63247235D-02 -0.20994155D-01  0.27318878D-01
 -0.10484236D-15 -0.37854177D-13  0.12819982D-15  0.34932584D-02 -0.49665679D-02
  0.14733095D-02  0.24401310D-17 -0.18371260D-12  0.14725950D-18  0.15252347D-03
 -0.29860636D-04 -0.12266283D-03 -0.25890319D-17 -0.31631273D-13 -0.66937998D-18
  0.98408174D-14 -0.25255313D-17  0.66798266D-02 -0.22732749D-13  0.34855904D-17
 -0.13788216D-01 -0.67897033D-14  0.40910036D-17 -0.62512639D-02  0.61118762D-17
  0.25633811D-14 -0.17562193D-17  0.15228255D-03 -0.24122158D-13  0.46103065D-17
 -0.11343286D-02  0.16432015D-13  0.65835151D-18  0.67748100D-03 -0.39724427D-17
 -0.23181808D-02 -0.43195886D-02 -0.73055072D-02 -0.11001689D-01 -0.13620805D-01
 -0.11590690D-01 -0.44104714D-02  0.20656119D-04 -0.28338362D-01 -0.53134694D-01
 -0.90397924D-01 -0.14037843D+00 -0.18629034D+00 -0.19632445D+00 -0.12173368D+00
  0.80977293D-01  0.40110453D-01  0.41842254D-01  0.47561283D-02 -0.11911368D-13
 -0.11440726D-13 -0.80230271D-14  0.16246650D-15  0.15604713D-15  0.10943102D-15
 -0.73636209D+00 -0.70726698D+00 -0.49598443D+00  0.16364097D-13  0.44016779D-16
 -0.16347101D+00 -0.11182544D-13 -0.17123252D-16  0.16412136D-02  0.94334141D-14
 -0.27859720D-17  0.81238644D-03  0.14065295D-03 -0.68915020D-03  0.54849725D-03
  0.12854847D-16  0.12219528D-13 -0.60866989D-16 -0.30950825D-02 -0.36561748D-02
  0.67512573D-02  0.49105556D-17 -0.20055983D-13 -0.12514283D-16 -0.35314152D-03
 -0.51769345D-03  0.87083497D-03  0.86693365D-18  0.45118008D-13 -0.79196437D-17
  0.44068219D-14 -0.85023131D-17 -0.15641115D-01 -0.55030452D-14 -0.92667818D-17
  0.21360871D-01 -0.77174204D-14  0.34773721D-16  0.25562475D-01 -0.19287540D-16
 -0.56769363D-14  0.25941274D-18 -0.57740755D-03  0.26221041D-14  0.47226361D-18
  0.94940541D-03  0.14408705D-13 -0.12505018D-17  0.78281724D-03 -0.29293032D-17
  0.96961886D-02  0.17487476D-01  0.25785272D-01 -0.96520740D-04 -0.58116130D-02
 -0.14944979D-03 -0.47707038D-02  0.12275152D-16  0.56360844D-02  0.46169668D-02
 -0.20259440D-16 -0.15182489D-02  0.10541571D-02 -0.25878704D-17 -0.83664742D-03
 -0.16603514D-02 -0.12090317D-02  0.28693831D-02  0.58269851D-17 -0.17303731D-02
 -0.34804350D-17 -0.22591630D-03  0.23274261D-03 -0.68263165D-05  0.50939359D-17
  0.65414788D-03 -0.29828790D-17  0.96961886D-02  0.17487476D-01  0.25785272D-01
 -0.96520739D-04 -0.58116130D-02 -0.14944979D-03  0.47707038D-02 -0.34645247D-17
  0.56360844D-02 -0.46169668D-02 -0.12912548D-16 -0.15182489D-02 -0.10541571D-02
 -0.10134761D-16 -0.83664742D-03 -0.16603514D-02 -0.12090317D-02  0.28693831D-02
  0.10470905D-16  0.17303731D-02 -0.13680996D-16 -0.22591630D-03  0.23274261D-03
 -0.68263165D-05 -0.71398855D-17 -0.65414788D-03 -0.61107801D-17  0.42384909D-02
  0.78978037D-02  0.13357166D-01  0.20115152D-01  0.24903863D-01  0.21192063D-01
  0.80639710D-02 -0.37767017D-04  0.34080401D-01  0.63901070D-01  0.10871473D+00
  0.16882250D+00  0.22403728D+00  0.23610454D+00  0.14639988D+00 -0.97385253D-01
 -0.51502688D-01 -0.41627451D-01 -0.54924501D-02 -0.18591411D-14 -0.17856828D-14
 -0.12522441D-14  0.22734005D-16  0.21835740D-16  0.15312728D-16  0.18707337D+00
  0.17968173D+00  0.12600523D+00 -0.30858798D-14  0.42222030D-18  0.41575424D-01
 -0.50987801D-13  0.21836539D-16  0.98577101D-02 -0.51908793D-14  0.13639257D-17
  0.23235270D-03  0.13238965D-01  0.15528171D-01 -0.28767136D-01 -0.99124857D-17
 -0.78896450D-14  0.12222014D-16  0.11344528D-02  0.18209188D-02 -0.29553717D-02
  0.55900357D-19  0.10823695D-13 -0.77281044D-17  0.14288047D-03  0.16857385D-03
 -0.31145432D-03  0.30239795D-18  0.89678731D-14 -0.47574045D-17 -0.26559988D-15