 Molden2AIM, Version 4.0.0 (06/02/2016)           Time: Fri Jun 29 19:05:55 2018
GAUSSIAN             16 MOL ORBITALS    354 PRIMITIVES        6 NUCLEI
  C    1    (CENTRE  1)   0.00000000  0.00000000  1.39243714  CHARGE =  6.0
  C    2    (CENTRE  2)   0.00000000  0.00000000 -1.10464885  CHARGE =  6.0
  H    3    (CENTRE  3)   0.00000000  1.78366903  2.40402832  CHARGE =  1.0
  H    4    (CENTRE  4)   0.00000000 -1.78366903  2.40402832  CHARGE =  1.0
  F    5    (CENTRE  5)   0.00000000  2.04058485 -2.54792151  CHARGE =  9.0
  F    6    (CENTRE  6)   0.00000000 -2.04058485 -2.54792151  CHARGE =  9.0
CENTRE ASSIGNMENTS    1  1  1  1  1  1  1  1  1  1  1  1  1  1  1  1  1  1  1  1
CENTRE ASSIGNMENTS    1  1  1  1  1  1  1  1  1  1  1  1  1  1  1  1  1  1  1  1
CENTRE ASSIGNMENTS    1  1  1  1  1  1  1  1  1  1  1  1  1  1  1  1  1  1  1  1
CENTRE ASSIGNMENTS    1  1  1  1  1  1  1  1  1  1  1  1  1  1  1  2  2  2  2  2
CENTRE ASSIGNMENTS    2  2  2  2  2  2  2  2  2  2  2  2  2  2  2  2  2  2  2  2
CENTRE ASSIGNMENTS    2  2  2  2  2  2  2  2  2  2  2  2  2  2  2  2  2  2  2  2
CENTRE ASSIGNMENTS    2  2  2  2  2  2  2  2  2  2  2  2  2  2  2  2  2  2  2  2
CENTRE ASSIGNMENTS    2  2  2  2  2  2  2  2  2  2  3  3  3  3  3  3  3  3  3  3
CENTRE ASSIGNMENTS    3  3  3  3  3  3  3  3  3  3  3  3  3  3  3  3  3  4  4  4
CENTRE ASSIGNMENTS    4  4  4  4  4  4  4  4  4  4  4  4  4  4  4  4  4  4  4  4
CENTRE ASSIGNMENTS    4  4  4  4  5  5  5  5  5  5  5  5  5  5  5  5  5  5  5  5
CENTRE ASSIGNMENTS    5  5  5  5  5  5  5  5  5  5  5  5  5  5  5  5  5  5  5  5
CENTRE ASSIGNMENTS    5  5  5  5  5  5  5  5  5  5  5  5  5  5  5  5  5  5  5  5
CENTRE ASSIGNMENTS    5  5  5  5  5  5  5  5  5  5  5  5  5  5  5  5  5  5  5  6
CENTRE ASSIGNMENTS    6  6  6  6  6  6  6  6  6  6  6  6  6  6  6  6  6  6  6  6
CENTRE ASSIGNMENTS    6  6  6  6  6  6  6  6  6  6  6  6  6  6  6  6  6  6  6  6
CENTRE ASSIGNMENTS    6  6  6  6  6  6  6  6  6  6  6  6  6  6  6  6  6  6  6  6
CENTRE ASSIGNMENTS    6  6  6  6  6  6  6  6  6  6  6  6  6  6
TYPE ASSIGNMENTS      1  1  1  1  1  1  1  1  1  1  1  1  1  1  1  1  1  1  1  2
TYPE ASSIGNMENTS      2  2  3  3  3  4  4  4  2  3  4  2  3  4  2  3  4  5  6  7
TYPE ASSIGNMENTS      8  9 10  5  6  7  8  9 10  5  6  7  8  9 10 11 12 13 17 14
TYPE ASSIGNMENTS     15 18 19 16 20 11 12 13 17 14 15 18 19 16 20  1  1  1  1  1
TYPE ASSIGNMENTS      1  1  1  1  1  1  1  1  1  1  1  1  1  1  2  2  2  3  3  3
TYPE ASSIGNMENTS      4  4  4  2  3  4  2  3  4  2  3  4  5  6  7  8  9 10  5  6
TYPE ASSIGNMENTS      7  8  9 10  5  6  7  8  9 10 11 12 13 17 14 15 18 19 16 20
TYPE ASSIGNMENTS     11 12 13 17 14 15 18 19 16 20  1  1  1  1  1  1  2  3  4  2
TYPE ASSIGNMENTS      3  4  2  3  4  5  6  7  8  9 10  5  6  7  8  9 10  1  1  1
TYPE ASSIGNMENTS      1  1  1  2  3  4  2  3  4  2  3  4  5  6  7  8  9 10  5  6
TYPE ASSIGNMENTS      7  8  9 10  1  1  1  1  1  1  1  1  1  1  1  1  1  1  1  1
TYPE ASSIGNMENTS      1  1  1  2  2  2  3  3  3  4  4  4  2  3  4  2  3  4  2  3
TYPE ASSIGNMENTS      4  5  6  7  8  9 10  5  6  7  8  9 10  5  6  7  8  9 10 11
TYPE ASSIGNMENTS     12 13 17 14 15 18 19 16 20 11 12 13 17 14 15 18 19 16 20  1
TYPE ASSIGNMENTS      1  1  1  1  1  1  1  1  1  1  1  1  1  1  1  1  1  1  2  2
TYPE ASSIGNMENTS      2  3  3  3  4  4  4  2  3  4  2  3  4  2  3  4  5  6  7  8
TYPE ASSIGNMENTS      9 10  5  6  7  8  9 10  5  6  7  8  9 10 11 12 13 17 14 15
TYPE ASSIGNMENTS     18 19 16 20 11 12 13 17 14 15 18 19 16 20
EXPONENTS  0.8236000D+04 0.1235000D+04 0.2808000D+03 0.7927000D+02 0.2559000D+02
EXPONENTS  0.8997000D+01 0.3319000D+01 0.3643000D+00 0.8236000D+04 0.1235000D+04
EXPONENTS  0.2808000D+03 0.7927000D+02 0.2559000D+02 0.8997000D+01 0.3319000D+01
EXPONENTS  0.3643000D+00 0.9059000D+00 0.1285000D+00 0.4402000D-01 0.1871000D+02
EXPONENTS  0.4133000D+01 0.1200000D+01 0.1871000D+02 0.4133000D+01 0.1200000D+01
EXPONENTS  0.1871000D+02 0.4133000D+01 0.1200000D+01 0.3827000D+00 0.3827000D+00
EXPONENTS  0.3827000D+00 0.1209000D+00 0.1209000D+00 0.1209000D+00 0.3569000D-01
EXPONENTS  0.3569000D-01 0.3569000D-01 0.1097000D+01 0.1097000D+01 0.1097000D+01
EXPONENTS  0.1097000D+01 0.1097000D+01 0.1097000D+01 0.3180000D+00 0.3180000D+00
EXPONENTS  0.3180000D+00 0.3180000D+00 0.3180000D+00 0.3180000D+00 0.1000000D+00
EXPONENTS  0.1000000D+00 0.1000000D+00 0.1000000D+00 0.1000000D+00 0.1000000D+00
EXPONENTS  0.7610000D+00 0.7610000D+00 0.7610000D+00 0.7610000D+00 0.7610000D+00
EXPONENTS  0.7610000D+00 0.7610000D+00 0.7610000D+00 0.7610000D+00 0.7610000D+00
EXPONENTS  0.2680000D+00 0.2680000D+00 0.2680000D+00 0.2680000D+00 0.2680000D+00
EXPONENTS  0.2680000D+00 0.2680000D+00 0.2680000D+00 0.2680000D+00 0.2680000D+00
EXPONENTS  0.8236000D+04 0.1235000D+04 0.2808000D+03 0.7927000D+02 0.2559000D+02
EXPONENTS  0.8997000D+01 0.3319000D+01 0.3643000D+00 0.8236000D+04 0.1235000D+04
EXPONENTS  0.2808000D+03 0.7927000D+02 0.2559000D+02 0.8997000D+01 0.3319000D+01
EXPONENTS  0.3643000D+00 0.9059000D+00 0.1285000D+00 0.4402000D-01 0.1871000D+02
EXPONENTS  0.4133000D+01 0.1200000D+01 0.1871000D+02 0.4133000D+01 0.1200000D+01
EXPONENTS  0.1871000D+02 0.4133000D+01 0.1200000D+01 0.3827000D+00 0.3827000D+00
EXPONENTS  0.3827000D+00 0.1209000D+00 0.1209000D+00 0.1209000D+00 0.3569000D-01
EXPONENTS  0.3569000D-01 0.3569000D-01 0.1097000D+01 0.1097000D+01 0.1097000D+01
EXPONENTS  0.1097000D+01 0.1097000D+01 0.1097000D+01 0.3180000D+00 0.3180000D+00
EXPONENTS  0.3180000D+00 0.3180000D+00 0.3180000D+00 0.3180000D+00 0.1000000D+00
EXPONENTS  0.1000000D+00 0.1000000D+00 0.1000000D+00 0.1000000D+00 0.1000000D+00
EXPONENTS  0.7610000D+00 0.7610000D+00 0.7610000D+00 0.7610000D+00 0.7610000D+00
EXPONENTS  0.7610000D+00 0.7610000D+00 0.7610000D+00 0.7610000D+00 0.7610000D+00
EXPONENTS  0.2680000D+00 0.2680000D+00 0.2680000D+00 0.2680000D+00 0.2680000D+00
EXPONENTS  0.2680000D+00 0.2680000D+00 0.2680000D+00 0.2680000D+00 0.2680000D+00
EXPONENTS  0.3387000D+02 0.5095000D+01 0.1159000D+01 0.3258000D+00 0.1027000D+00
EXPONENTS  0.2526000D-01 0.1407000D+01 0.1407000D+01 0.1407000D+01 0.3880000D+00
EXPONENTS  0.3880000D+00 0.3880000D+00 0.1020000D+00 0.1020000D+00 0.1020000D+00
EXPONENTS  0.1057000D+01 0.1057000D+01 0.1057000D+01 0.1057000D+01 0.1057000D+01
EXPONENTS  0.1057000D+01 0.2470000D+00 0.2470000D+00 0.2470000D+00 0.2470000D+00
EXPONENTS  0.2470000D+00 0.2470000D+00 0.3387000D+02 0.5095000D+01 0.1159000D+01
EXPONENTS  0.3258000D+00 0.1027000D+00 0.2526000D-01 0.1407000D+01 0.1407000D+01
EXPONENTS  0.1407000D+01 0.3880000D+00 0.3880000D+00 0.3880000D+00 0.1020000D+00
EXPONENTS  0.1020000D+00 0.1020000D+00 0.1057000D+01 0.1057000D+01 0.1057000D+01
EXPONENTS  0.1057000D+01 0.1057000D+01 0.1057000D+01 0.2470000D+00 0.2470000D+00
EXPONENTS  0.2470000D+00 0.2470000D+00 0.2470000D+00 0.2470000D+00 0.1950000D+05
EXPONENTS  0.2923000D+04 0.6645000D+03 0.1875000D+03 0.6062000D+02 0.2142000D+02
EXPONENTS  0.7950000D+01 0.8815000D+00 0.1950000D+05 0.2923000D+04 0.6645000D+03
EXPONENTS  0.1875000D+03 0.6062000D+02 0.2142000D+02 0.7950000D+01 0.8815000D+00
EXPONENTS  0.2257000D+01 0.3041000D+00 0.9158000D-01 0.4388000D+02 0.9926000D+01
EXPONENTS  0.2930000D+01 0.4388000D+02 0.9926000D+01 0.2930000D+01 0.4388000D+02
EXPONENTS  0.9926000D+01 0.2930000D+01 0.9132000D+00 0.9132000D+00 0.9132000D+00
EXPONENTS  0.2672000D+00 0.2672000D+00 0.2672000D+00 0.7361000D-01 0.7361000D-01
EXPONENTS  0.7361000D-01 0.3107000D+01 0.3107000D+01 0.3107000D+01 0.3107000D+01
EXPONENTS  0.3107000D+01 0.3107000D+01 0.8550000D+00 0.8550000D+00 0.8550000D+00
EXPONENTS  0.8550000D+00 0.8550000D+00 0.8550000D+00 0.2920000D+00 0.2920000D+00
EXPONENTS  0.2920000D+00 0.2920000D+00 0.2920000D+00 0.2920000D+00 0.1917000D+01
EXPONENTS  0.1917000D+01 0.1917000D+01 0.1917000D+01 0.1917000D+01 0.1917000D+01
EXPONENTS  0.1917000D+01 0.1917000D+01 0.1917000D+01 0.1917000D+01 0.7240000D+00
EXPONENTS  0.7240000D+00 0.7240000D+00 0.7240000D+00 0.7240000D+00 0.7240000D+00
EXPONENTS  0.7240000D+00 0.7240000D+00 0.7240000D+00 0.7240000D+00 0.1950000D+05
EXPONENTS  0.2923000D+04 0.6645000D+03 0.1875000D+03 0.6062000D+02 0.2142000D+02
EXPONENTS  0.7950000D+01 0.8815000D+00 0.1950000D+05 0.2923000D+04 0.6645000D+03
EXPONENTS  0.1875000D+03 0.6062000D+02 0.2142000D+02 0.7950000D+01 0.8815000D+00
EXPONENTS  0.2257000D+01 0.3041000D+00 0.9158000D-01 0.4388000D+02 0.9926000D+01
EXPONENTS  0.2930000D+01 0.4388000D+02 0.9926000D+01 0.2930000D+01 0.4388000D+02
EXPONENTS  0.9926000D+01 0.2930000D+01 0.9132000D+00 0.9132000D+00 0.9132000D+00
EXPONENTS  0.2672000D+00 0.2672000D+00 0.2672000D+00 0.7361000D-01 0.7361000D-01
EXPONENTS  0.7361000D-01 0.3107000D+01 0.3107000D+01 0.3107000D+01 0.3107000D+01
EXPONENTS  0.3107000D+01 0.3107000D+01 0.8550000D+00 0.8550000D+00 0.8550000D+00
EXPONENTS  0.8550000D+00 0.8550000D+00 0.8550000D+00 0.2920000D+00 0.2920000D+00
EXPONENTS  0.2920000D+00 0.2920000D+00 0.2920000D+00 0.2920000D+00 0.1917000D+01
EXPONENTS  0.1917000D+01 0.1917000D+01 0.1917000D+01 0.1917000D+01 0.1917000D+01
EXPONENTS  0.1917000D+01 0.1917000D+01 0.1917000D+01 0.1917000D+01 0.7240000D+00
EXPONENTS  0.7240000D+00 0.7240000D+00 0.7240000D+00 0.7240000D+00 0.7240000D+00
EXPONENTS  0.7240000D+00 0.7240000D+00 0.7240000D+00 0.7240000D+00
MO    1     MO 0.0        OCC NO =    2.0000000  ORB. ENERGY =  -24.822775
 -0.25609107D-12 -0.47741198D-12 -0.80691034D-12 -0.12130506D-11 -0.14903728D-11
 -0.12588581D-11 -0.47479494D-12  0.23497867D-14  0.23247237D-12  0.43526162D-12
  0.74107016D-12  0.11463229D-11  0.15096669D-11  0.15686406D-11  0.99680067D-12
 -0.66803263D-12 -0.14004084D-11 -0.95518519D-11  0.21248939D-12  0.77449301D-16
  0.72613642D-16  0.51705239D-16 -0.41030232D-04 -0.38468451D-04 -0.27391829D-04
  0.28093760D-11  0.26339686D-11  0.18755425D-11  0.57435130D-17  0.27191132D-03
 -0.12004305D-10 -0.47104505D-17 -0.84677895D-04  0.83673630D-11  0.15344483D-18
 -0.79601593D-05  0.24278345D-12  0.57619350D-12 -0.11124341D-11  0.53624059D-12
  0.45385237D-16  0.76827442D-17  0.44782443D-04 -0.29050574D-12 -0.44636461D-11
  0.47541518D-11 -0.43861817D-17 -0.21257351D-17  0.82097692D-03 -0.30285596D-12
  0.64100049D-12 -0.33814453D-12  0.75136607D-18 -0.57698977D-18  0.61362291D-04
 -0.13438695D-17  0.25049737D-04  0.52125957D-12  0.20086947D-17 -0.16213759D-03
  0.21756504D-11  0.20229136D-17  0.86988377D-04 -0.37394291D-11 -0.24232158D-17
  0.48390306D-18  0.25729880D-04 -0.11133174D-11 -0.14015626D-17 -0.32501946D-04
 -0.63828776D-12 -0.50146592D-19 -0.44687695D-04  0.39782399D-11 -0.22564704D-17
  0.23420556D-11  0.43661241D-11  0.73795189D-11  0.11093834D-10  0.13630057D-10
  0.11512762D-10  0.43421903D-11 -0.21489742D-13 -0.16799791D-11 -0.31454509D-11
 -0.53553992D-11 -0.82839883D-11 -0.10909721D-10 -0.11335899D-10 -0.72034550D-11
  0.48275880D-11 -0.57686068D-11  0.22894347D-10  0.25385503D-11  0.70614856D-18
  0.66205916D-18  0.47142556D-18  0.50402303D-03  0.47255363D-03  0.33648633D-03
  0.54805926D-11  0.51384039D-11  0.36588497D-11 -0.85736741D-18 -0.18822391D-02
 -0.25648286D-10 -0.43393038D-18  0.95087527D-04  0.84660226D-11  0.21963805D-19
 -0.78435455D-05  0.13214900D-13 -0.68795875D-11  0.76823177D-11 -0.80273021D-12
 -0.82486029D-18 -0.87633344D-18  0.19825079D-02 -0.31499140D-11  0.59592750D-11
 -0.28093610D-11 -0.12442922D-17 -0.44595105D-19  0.12761579D-02  0.66851345D-13
 -0.69415398D-12  0.62730264D-12 -0.20250938D-18 -0.16375258D-18 -0.38333455D-04
  0.82182240D-18 -0.84610610D-04  0.16735177D-11 -0.13914060D-17  0.78955616D-03
  0.74476903D-11 -0.10740612D-17 -0.53572433D-03 -0.12468243D-10  0.78810156D-18
 -0.12484294D-18 -0.78105341D-04 -0.42563980D-12  0.39676865D-18  0.31053303D-05
 -0.10157687D-11 -0.22239823D-19  0.23121069D-03  0.22926881D-11 -0.69405675D-18
  0.54108206D-05  0.97586378D-05  0.14389106D-04 -0.67213797D-03 -0.16320896D-04
  0.23014613D-04 -0.54128991D-17  0.56884489D-04 -0.28932975D-04  0.86313410D-17
  0.36599001D-03  0.19884128D-03  0.45831954D-18  0.18966453D-04 -0.43213636D-04
  0.80203648D-04 -0.78438081D-04 -0.17655675D-05  0.30459980D-17 -0.66666307D-17
 -0.10924275D-03  0.17370691D-04 -0.18571985D-04  0.12012936D-05 -0.20981745D-17
  0.63800019D-19 -0.28158172D-04 -0.54108208D-05 -0.97586381D-05 -0.14389106D-04
  0.67213797D-03  0.16320885D-04 -0.23014613D-04 -0.93595245D-18  0.56884491D-04
  0.28932976D-04 -0.64277481D-18  0.36599001D-03 -0.19884129D-03  0.18760514D-17
  0.18966453D-04  0.43213636D-04 -0.80203651D-04  0.78438082D-04  0.17655687D-05
 -0.76936661D-17  0.37875888D-18 -0.10924276D-03 -0.17370692D-04  0.18571985D-04
 -0.12012929D-05 -0.32585940D-18 -0.34098428D-18 -0.28158173D-04 -0.41979059D+00
 -0.78250784D+00 -0.13265432D+01 -0.20087773D+01 -0.25119831D+01 -0.21625834D+01
 -0.83137603D+00  0.36024884D-02 -0.50981996D-03 -0.95735159D-03 -0.16302047D-02
 -0.25537059D-02 -0.34222664D-02 -0.36811089D-02 -0.22101330D-02  0.14534764D-02
 -0.45891946D-01  0.25442630D-03  0.21804299D-03 -0.22777824D-16 -0.22276215D-16
 -0.14718837D-16  0.49741100D-02  0.48645709D-02  0.32142277D-02 -0.35295981D-02
 -0.34518699D-02 -0.22807964D-02  0.28996199D-17 -0.10754510D-02  0.75518403D-03
 -0.63848227D-18 -0.51397336D-03  0.62174714D-03  0.48119958D-19 -0.11198863D-04
  0.20958356D-04  0.77000287D-03 -0.77269839D-03  0.26955227D-05 -0.29801895D-17
  0.41256733D-17  0.27500183D-02 -0.33184447D-03  0.33978229D-03 -0.79378232D-05
  0.12691327D-17 -0.61563059D-18 -0.11234888D-02 -0.98547665D-04  0.43057850D-04
  0.55489815D-04 -0.88097528D-18  0.51717537D-18 -0.29110144D-03  0.18308551D-17
 -0.21293846D-03  0.10608848D-03 -0.37918060D-17  0.12203533D-03  0.53253080D-04
 -0.17007595D-17  0.51678005D-03 -0.37151852D-03  0.10085441D-17 -0.56545138D-18
  0.33560879D-04 -0.10401496D-03  0.11726877D-17  0.19797192D-03 -0.17813825D-03
  0.52366639D-18 -0.29865456D-03  0.49018314D-03 -0.15400871D-17  0.41979060D+00
  0.78250786D+00  0.13265432D+01  0.20087774D+01  0.25119831D+01  0.21625835D+01
  0.83137604D+00 -0.36024885D-02  0.50981997D-03  0.95735161D-03  0.16302047D-02
  0.25537060D-02  0.34222665D-02  0.36811090D-02  0.22101330D-02 -0.14534765D-02
  0.45891947D-01 -0.25442630D-03 -0.21804300D-03 -0.28013694D-16 -0.27396781D-16
 -0.18102212D-16  0.49741101D-02  0.48645710D-02  0.32142278D-02  0.35295982D-02
  0.34518699D-02  0.22807964D-02  0.34681725D-17 -0.10754510D-02 -0.75518405D-03
 -0.33046615D-18 -0.51397338D-03 -0.62174715D-03 -0.14817668D-18 -0.11198863D-04
 -0.20958356D-04 -0.77000289D-03  0.77269841D-03 -0.26955236D-05 -0.91712484D-17
 -0.81425696D-17  0.27500184D-02  0.33184448D-03 -0.33978230D-03  0.79378231D-05
  0.17385076D-17  0.19915931D-17 -0.11234888D-02  0.98547668D-04 -0.43057852D-04
 -0.55489816D-04 -0.35800213D-18 -0.23926984D-18 -0.29110145D-03  0.10897383D-17
 -0.21293846D-03 -0.10608848D-03  0.66579536D-17  0.12203532D-03 -0.53253081D-04
 -0.99271686D-17  0.51678005D-03  0.37151852D-03  0.17949178D-17  0.31794827D-18
  0.33560878D-04  0.10401496D-03 -0.11325362D-17  0.19797193D-03  0.17813825D-03
  0.17869143D-18 -0.29865456D-03 -0.49018315D-03 -0.40307474D-18
MO    2     MO 0.0        OCC NO =    2.0000000  ORB. ENERGY =  -24.822768
 -0.26113526D-04 -0.48681550D-04 -0.82280395D-04 -0.12369439D-03 -0.15197284D-03
 -0.12836536D-03 -0.48414691D-04  0.23960701D-06  0.23787059D-04  0.44536880D-04
  0.75827849D-04  0.11729415D-03  0.15447227D-03  0.16050659D-03  0.10199473D-03
 -0.68354496D-04 -0.14501399D-03 -0.95977007D-03  0.14740471D-04 -0.24877653D-17
 -0.23324381D-17 -0.16608349D-17  0.41170234D-12  0.38599711D-12  0.27485294D-12
  0.29229016D-03  0.27404060D-03  0.19513323D-03  0.32635479D-17 -0.27051638D-11
 -0.12484172D-02  0.12743886D-17  0.80170076D-12  0.85371354D-03  0.36176983D-19
  0.85997027D-13  0.25239395D-04  0.59487611D-04 -0.11556111D-03  0.56073503D-04
  0.51836318D-19  0.83460478D-18 -0.43529927D-12 -0.30403945D-04 -0.46362515D-03
  0.49402909D-03  0.32981502D-18 -0.23568029D-17 -0.78163368D-11 -0.31018581D-04
  0.64747856D-04 -0.33729274D-04  0.17113742D-18 -0.80735170D-19 -0.68746971D-12
 -0.36587043D-18 -0.23499067D-12  0.53720911D-04 -0.60544507D-18  0.15650945D-11
  0.22661221D-03  0.17030564D-17 -0.86012248D-12 -0.38777494D-03 -0.20371546D-18
 -0.15234611D-18 -0.25151134D-12 -0.11499808D-03  0.39539203D-19  0.30594431D-12
 -0.66435637D-04  0.41749912D-18  0.44858971D-12  0.41142988D-03  0.25561371D-18
  0.24222702D-03  0.45156624D-03  0.76322650D-03  0.11473794D-02  0.14096882D-02
  0.11907070D-02  0.44909089D-03 -0.22225759D-05 -0.17376309D-03 -0.32533933D-03
 -0.55391805D-03 -0.85682700D-03 -0.11284110D-02 -0.11724913D-02 -0.74506560D-03
  0.49932564D-03 -0.59864741D-03  0.23407234D-02  0.27014965D-03  0.16064109D-17
  0.15061124D-17  0.10724417D-17 -0.48565248D-11 -0.45533007D-11 -0.32422213D-11
  0.56894351D-03  0.53342070D-03  0.37982732D-03 -0.23785402D-17  0.18132176D-10
 -0.26586011D-02 -0.90795619D-18 -0.10046855D-11  0.86217511D-03 -0.21327554D-19
  0.64493053D-13  0.19401317D-05 -0.71395132D-03  0.79627778D-03 -0.82326462D-04
 -0.22650114D-18  0.84026346D-18 -0.19110797D-10 -0.32595332D-03  0.62098826D-03
 -0.29503494D-03 -0.91404411D-19 -0.27627454D-17 -0.12302161D-10  0.65511934D-05
 -0.70088246D-04  0.63537053D-04 -0.12936250D-18 -0.13947174D-18  0.27719654D-12
  0.14979733D-18  0.80683995D-12  0.17356154D-03  0.19675663D-19 -0.76083666D-11
  0.77348779D-03 -0.46906765D-18  0.51878468D-11 -0.12941724D-02  0.12187758D-18
  0.15896366D-18  0.72750161D-12 -0.43609902D-04  0.18555389D-18 -0.28758403D-13
 -0.10528373D-03 -0.66244486D-18 -0.21537464D-11  0.23611344D-03 -0.24506973D-19
 -0.73803940D-05 -0.13310845D-04 -0.19626833D-04 -0.14371567D-03 -0.55593193D-03
 -0.23401053D-04  0.48935450D-18 -0.90130479D-04  0.56786470D-04 -0.97267528D-18
 -0.24434114D-03 -0.50344040D-03 -0.38958635D-18  0.10668868D-04  0.35067780D-06
 -0.15380059D-03  0.89809333D-04  0.63991262D-04 -0.13328608D-18  0.29487402D-18
  0.25874784D-03 -0.46839060D-04  0.13094101D-04  0.33744959D-04  0.37382881D-18
  0.58353499D-19  0.53676843D-04 -0.73803939D-05 -0.13310844D-04 -0.19626832D-04
 -0.14371569D-03 -0.55593193D-03 -0.23401052D-04  0.43479265D-18  0.90130478D-04
  0.56786470D-04 -0.16216362D-18  0.24434114D-03 -0.50344040D-03  0.69411280D-19
 -0.10668868D-04  0.35067699D-06 -0.15380059D-03  0.89809331D-04  0.63991262D-04
 -0.97457954D-19 -0.19630817D-18 -0.25874784D-03 -0.46839060D-04  0.13094101D-04
  0.33744959D-04  0.44995991D-19  0.13035691D-18 -0.53676843D-04  0.41987464D+00
  0.78266452D+00  0.13268088D+01  0.20091795D+01  0.25124861D+01  0.21630165D+01
  0.83154249D+00 -0.36032097D-02  0.45325584D-03  0.85113420D-03  0.14493348D-02
  0.22703743D-02  0.30425687D-02  0.32726928D-02  0.19649205D-02 -0.12922144D-02
  0.45877930D-01 -0.15844695D-04 -0.14861981D-03  0.19584773D-16  0.19153480D-16
  0.12655514D-16 -0.48885442D-02 -0.47808895D-02 -0.31589358D-02  0.35342424D-02
  0.34564119D-02  0.22837975D-02 -0.23570176D-17  0.97505478D-03 -0.74228273D-03
  0.42449631D-18  0.59451311D-03 -0.58152839D-03  0.47698942D-19  0.26057728D-04
  0.90668328D-05 -0.99982174D-03  0.10458650D-02 -0.46043240D-04  0.27433593D-18
 -0.87125000D-18 -0.25393059D-02  0.44814821D-03 -0.44067767D-03 -0.74705432D-05
 -0.15296784D-19  0.95939700D-19  0.11595785D-02  0.12501310D-03 -0.71511238D-04
 -0.53501859D-04 -0.11071592D-18  0.37988119D-19  0.30679480D-03  0.63196744D-18
 -0.17081240D-03  0.16777642D-04 -0.13926259D-17  0.27157440D-03 -0.61375974D-04
 -0.50327645D-18  0.24086280D-03  0.11043048D-04  0.29377328D-17 -0.10438688D-18
  0.85902441D-04  0.71606739D-04  0.33664117D-18 -0.36916325D-03  0.22241709D-03
 -0.23480531D-19  0.11145593D-03 -0.43723731D-03 -0.78383380D-18  0.41987463D+00
  0.78266451D+00  0.13268088D+01  0.20091795D+01  0.25124860D+01  0.21630164D+01
  0.83154248D+00 -0.36032097D-02  0.45325583D-03  0.85113418D-03  0.14493347D-02
  0.22703743D-02  0.30425686D-02  0.32726928D-02  0.19649204D-02 -0.12922144D-02
  0.45877929D-01 -0.15844690D-04 -0.14861981D-03 -0.22324524D-16 -0.21832897D-16
 -0.14425918D-16  0.48885441D-02  0.47808894D-02  0.31589358D-02  0.35342423D-02
  0.34564118D-02  0.22837974D-02  0.21012183D-17 -0.97505476D-03 -0.74228272D-03
 -0.43344589D-18 -0.59451310D-03 -0.58152838D-03 -0.34006144D-19 -0.26057728D-04
  0.90668332D-05 -0.99982173D-03  0.10458650D-02 -0.46043240D-04  0.21026458D-18
 -0.33950338D-17  0.25393058D-02  0.44814821D-03 -0.44067766D-03 -0.74705434D-05
  0.57115937D-19  0.36769926D-18 -0.11595785D-02  0.12501310D-03 -0.71511237D-04
 -0.53501858D-04 -0.32944661D-19 -0.26426732D-18 -0.30679479D-03 -0.78630842D-19
  0.17081240D-03  0.16777644D-04 -0.10302173D-17 -0.27157440D-03 -0.61375973D-04
  0.12661099D-17 -0.24086281D-03  0.11043041D-04  0.22310535D-17 -0.66183134D-22
 -0.85902442D-04  0.71606737D-04  0.20019669D-18  0.36916325D-03  0.22241709D-03
 -0.19999814D-18 -0.11145593D-03 -0.43723730D-03 -0.61797943D-18
MO    3     MO 0.0        OCC NO =    2.0000000  ORB. ENERGY =  -10.405091
  0.11093495D-02  0.20680797D-02  0.34954189D-02  0.52547596D-02  0.64560793D-02
  0.54531911D-02  0.20567430D-02 -0.10178936D-04 -0.12450851D-03 -0.23311922D-03
 -0.39690542D-03 -0.61395233D-03 -0.80855362D-03 -0.84013901D-03 -0.53387062D-03
  0.35778768D-03  0.22875497D-02 -0.12855199D-01 -0.27972443D-03  0.18794696D-15
  0.17621222D-15  0.12547360D-15 -0.61014703D-14 -0.57205162D-14 -0.40733483D-14
 -0.20454992D-02 -0.19177855D-02 -0.13655775D-02 -0.16928703D-15  0.28243491D-13
  0.51907883D-02  0.18029475D-17  0.20026648D-13  0.24155715D-02  0.14858298D-19
 -0.14745329D-14  0.67985075D-05  0.97780884D-04  0.11982669D-02 -0.12960478D-02
 -0.37843799D-18  0.73499400D-17 -0.12298775D-14  0.14901485D-02  0.15953240D-02
 -0.30854726D-02 -0.42802600D-18 -0.10733845D-16  0.27070754D-13  0.74867094D-04
  0.50942497D-04 -0.12580959D-03 -0.62373033D-18 -0.85863587D-19  0.23779592D-13
 -0.29773104D-18  0.21771762D-14  0.10994439D-02 -0.30990044D-17 -0.34652203D-14
 -0.16679696D-02  0.39921976D-17 -0.30663082D-14 -0.16303622D-02  0.37739481D-18
 -0.37578651D-18  0.34207237D-14  0.46337225D-03 -0.96833812D-18 -0.13571424D-14
 -0.64885234D-04  0.20956977D-17 -0.89050287D-14 -0.13252315D-02  0.38570784D-18
  0.32952071D+00  0.61430152D+00  0.10382778D+01  0.15608716D+01  0.19177111D+01
  0.16198136D+01  0.61093409D+00 -0.30235469D-02 -0.28514882D-02 -0.53388856D-02
 -0.90899096D-02 -0.14060708D-01 -0.18517458D-01 -0.19240825D-01 -0.12226680D-01
  0.81940368D-02  0.34787949D-01  0.64686557D-02 -0.20964487D-03 -0.41131379D-16
 -0.38563282D-16 -0.27459354D-16  0.41405003D-14  0.38819822D-14  0.27642026D-14
 -0.57060459D-02 -0.53497808D-02 -0.38093626D-02 -0.22102721D-17  0.42745079D-14
  0.62946603D-02 -0.95316167D-18  0.11142937D-13  0.36425804D-02 -0.10707548D-18
  0.16078525D-14 -0.36371785D-04 -0.45799626D-02  0.14739930D-02  0.31059696D-02
  0.19039187D-17  0.16035642D-17 -0.56428914D-14  0.41691715D-03 -0.13326301D-02
  0.91571298D-03 -0.16228057D-17 -0.14984981D-16  0.35294319D-13  0.20404644D-04
 -0.20401690D-03  0.18361225D-03  0.28977274D-18 -0.23511860D-18  0.22209129D-13
 -0.62010765D-18  0.16071109D-15  0.12142854D-02  0.15969343D-17  0.11807688D-14
 -0.35634316D-03  0.26338869D-18 -0.16629021D-14 -0.32865131D-02 -0.23981857D-18
 -0.62808326D-20  0.86603786D-15 -0.11768821D-03  0.18877300D-17  0.17910527D-14
 -0.11264723D-03 -0.18688875D-17 -0.43891663D-14  0.46571187D-03  0.13248310D-17
  0.11697022D-03  0.21096061D-03  0.31106130D-03  0.15659962D-02  0.32363807D-03
  0.29356997D-04 -0.24048106D-17 -0.11415440D-03 -0.61354200D-03  0.48152078D-18
  0.27016094D-04  0.17536926D-02  0.81218370D-18 -0.29871232D-04  0.76497774D-04
  0.40857401D-03  0.57039755D-04 -0.46561377D-03 -0.47916499D-18  0.51298926D-19
 -0.74971378D-03  0.20553857D-03  0.64639852D-04 -0.27017842D-03 -0.31950319D-19
 -0.49802067D-18 -0.26203894D-03  0.11697022D-03  0.21096061D-03  0.31106130D-03
  0.15659962D-02  0.32363807D-03  0.29356997D-04  0.86116536D-18  0.11415440D-03
 -0.61354200D-03  0.85001127D-19 -0.27016094D-04  0.17536926D-02 -0.64581540D-18
  0.29871232D-04  0.76497774D-04  0.40857401D-03  0.57039755D-04 -0.46561377D-03
 -0.24594880D-18  0.18170784D-18  0.74971378D-03  0.20553857D-03  0.64639852D-04
 -0.27017842D-03 -0.11525848D-19 -0.23259389D-18  0.26203894D-03  0.26522319D-03
  0.49438752D-03  0.83810838D-03  0.12691431D-02  0.15870679D-02  0.13663176D-02
  0.52526238D-03 -0.22760479D-05 -0.23118661D-03 -0.43412750D-03 -0.73924426D-03
 -0.11580218D-02 -0.15518854D-02 -0.16692620D-02 -0.10022227D-02  0.65910382D-03
  0.27462883D-03  0.13078628D-02  0.11623922D-02  0.26890823D-17  0.26298638D-17
  0.17376622D-17 -0.12790115D-02 -0.12508454D-02 -0.82648641D-03  0.65921535D-03
  0.64469821D-03  0.42597937D-03  0.12970223D-17 -0.36460727D-03  0.63360068D-03
 -0.25886563D-17  0.27822491D-03 -0.22390208D-03  0.17878412D-19 -0.19796262D-04
  0.14875388D-03 -0.10768583D-02  0.10907099D-02 -0.13851646D-04 -0.32352988D-17
 -0.56634956D-17 -0.41418141D-02  0.49919604D-03 -0.51972931D-03  0.20533262D-04
  0.12392633D-17  0.22046423D-17  0.19063618D-02  0.23636473D-03 -0.17997293D-03
 -0.56391800D-04  0.12871353D-17 -0.22312151D-17  0.56293380D-03 -0.29076366D-17
  0.74882110D-04 -0.16280572D-03  0.56812184D-17  0.81027638D-03 -0.12213403D-02
  0.30416915D-17 -0.10349227D-02  0.17097574D-02  0.25225411D-17  0.12423750D-17
 -0.50732553D-04  0.40158305D-03 -0.20998244D-17 -0.11751656D-02  0.11603601D-02
 -0.16273005D-17  0.13273633D-02 -0.23651093D-02  0.65369019D-18  0.26522319D-03
  0.49438752D-03  0.83810838D-03  0.12691431D-02  0.15870679D-02  0.13663176D-02
  0.52526238D-03 -0.22760479D-05 -0.23118661D-03 -0.43412750D-03 -0.73924426D-03
 -0.11580218D-02 -0.15518854D-02 -0.16692620D-02 -0.10022227D-02  0.65910382D-03
  0.27462883D-03  0.13078628D-02  0.11623922D-02  0.33301778D-17  0.32568412D-17
  0.21519327D-17  0.12790115D-02  0.12508454D-02  0.82648641D-03  0.65921535D-03
  0.64469821D-03  0.42597937D-03  0.56372099D-18  0.36460727D-03  0.63360068D-03
 -0.45893732D-17 -0.27822491D-03 -0.22390208D-03  0.23580114D-18  0.19796262D-04
  0.14875388D-03 -0.10768583D-02  0.10907099D-02 -0.13851646D-04  0.36071646D-17
  0.33898853D-17  0.41418141D-02  0.49919604D-03 -0.51972931D-03  0.20533262D-04
 -0.15854258D-17 -0.11892981D-17 -0.19063618D-02  0.23636473D-03 -0.17997293D-03
 -0.56391800D-04 -0.27534344D-17 -0.28356199D-17 -0.56293380D-03 -0.42790662D-18
 -0.74882110D-04 -0.16280572D-03  0.98983124D-18 -0.81027638D-03 -0.12213403D-02
  0.29388862D-18  0.10349227D-02  0.17097574D-02  0.96270437D-17  0.52556153D-18
  0.50732553D-04  0.40158305D-03 -0.91497848D-18  0.11751656D-02  0.11603601D-02
 -0.66170611D-18 -0.13273633D-02 -0.23651093D-02 -0.42263233D-17
MO    4     MO 0.0        OCC NO =    2.0000000  ORB. ENERGY =  -10.239709
  0.32946081D+00  0.61418987D+00  0.10380891D+01  0.15605879D+01  0.19173626D+01
  0.16195192D+01  0.61082305D+00 -0.30229974D-02 -0.29128051D-02 -0.54536902D-02
 -0.92853742D-02 -0.14363062D-01 -0.18915647D-01 -0.19654569D-01 -0.12489596D-01
  0.83702371D-02  0.35121253D-01  0.57299419D-02 -0.12112883D-04 -0.13789284D-17
 -0.12928330D-17 -0.92057414D-18  0.11371348D-13  0.10661362D-13  0.75915248D-14
 -0.70053504D-03 -0.65679613D-03 -0.46767797D-03  0.24880697D-18 -0.58787225D-13
 -0.20133657D-02 -0.31772610D-18 -0.43302406D-13 -0.35478545D-02 -0.15894689D-20
  0.15766064D-14 -0.36927538D-04 -0.50029519D-02  0.22713962D-02  0.27315558D-02
 -0.43607770D-17 -0.16841152D-17 -0.63738228D-14  0.18705762D-03 -0.42563406D-03
  0.23857645D-03  0.26620906D-18  0.14755361D-17 -0.52517847D-13  0.44608734D-04
 -0.36347389D-03  0.31886516D-03 -0.64964038D-20  0.99341835D-19 -0.37143748D-13
  0.50400055D-19 -0.39877319D-14 -0.14664448D-02  0.36395391D-18  0.83605957D-14
 -0.30305639D-03 -0.51515408D-18  0.36026001D-14  0.47023907D-02 -0.45362296D-20
 -0.12191457D-19 -0.44190397D-14  0.40533852D-03  0.19693826D-18  0.32627805D-14
  0.10380068D-03 -0.16036389D-18  0.99943386D-14 -0.13198162D-02 -0.94546755D-19
 -0.81507902D-03 -0.15194926D-02 -0.25682102D-02 -0.38608611D-02 -0.47435140D-02
 -0.40066559D-02 -0.15111632D-02  0.74788309D-05 -0.22341028D-03 -0.41829454D-03
 -0.71218225D-03 -0.11016376D-02 -0.14508180D-02 -0.15074929D-02 -0.95794404D-03
  0.64199182D-03  0.25352482D-02 -0.12929543D-01 -0.54845490D-03 -0.21861692D-18
 -0.20496726D-18 -0.14594890D-18  0.13639980D-15  0.12788348D-15  0.91060655D-16
  0.15976098D-02  0.14978607D-02  0.10665661D-02  0.46262875D-18 -0.15675203D-13
 -0.19429988D-02  0.37364295D-18 -0.32126609D-13 -0.29298208D-02  0.46209331D-21
 -0.21587218D-14 -0.94691688D-05  0.27978285D-03  0.91701930D-03 -0.11968022D-02
 -0.84094322D-19 -0.60884894D-18  0.62755295D-14  0.16887425D-02  0.42180023D-03
 -0.21105427D-02 -0.92666909D-19  0.10262318D-17 -0.33186055D-13  0.65684085D-04
  0.13905765D-03 -0.20474174D-03  0.48720229D-20  0.11385477D-18 -0.29164412D-13
  0.35189215D-19 -0.10802588D-14 -0.15010698D-02 -0.58521487D-19  0.51952745D-15
  0.14305068D-02 -0.47046160D-19  0.27212491D-14  0.30727027D-02 -0.21147579D-19
  0.34660428D-20  0.45760249D-15 -0.26201094D-03 -0.12680846D-18 -0.11266875D-14
  0.21881083D-03  0.11641034D-18 -0.24611995D-15  0.56722199D-03 -0.15653629D-18
  0.14447871D-03  0.26057330D-03  0.38421518D-03  0.61772860D-03  0.20536461D-02
  0.32657690D-04  0.37430016D-18  0.17367696D-02  0.69808090D-03 -0.62264392D-18
  0.19351402D-02  0.13739799D-02 -0.78493760D-19  0.21954758D-03 -0.33405977D-03
  0.15696456D-02 -0.19609342D-02  0.39128863D-03 -0.19382851D-18  0.15194845D-19
 -0.40021819D-02  0.31213812D-03 -0.23629317D-03 -0.75844946D-04  0.17201575D-18
  0.11201770D-18 -0.18682070D-03  0.14447871D-03  0.26057330D-03  0.38421518D-03
  0.61772860D-03  0.20536461D-02  0.32657690D-04  0.19779043D-18 -0.17367696D-02
  0.69808090D-03 -0.62205877D-18 -0.19351402D-02  0.13739799D-02 -0.80258295D-19
 -0.21954758D-03 -0.33405977D-03  0.15696456D-02 -0.19609342D-02  0.39128863D-03
 -0.42328696D-18  0.42246984D-18  0.40021819D-02  0.31213812D-03 -0.23629317D-03