 Molden2AIM, Version 4.0.0 (06/02/2016)           Time: Fri Jun 29 18:47:15 2018
GAUSSIAN             31 MOL ORBITALS    631 PRIMITIVES        7 NUCLEI
  C    1    (CENTRE  1)  -5.66063114  0.36722103  0.06352314  CHARGE =  6.0
  C    2    (CENTRE  2)  -3.95298580  2.25024618  0.00129635  CHARGE =  6.0
  H    3    (CENTRE  3)  -7.70623889  0.70388519  0.06266710  CHARGE =  1.0
  H    4    (CENTRE  4)  -5.12199873 -1.63090546  0.11930030  CHARGE =  1.0
  Mg   5    (CENTRE  5)  -0.10790336  1.60142573 -0.00077101  CHARGE = 12.0
  H    6    (CENTRE  6)  -4.76609905  4.16208966 -0.05057474  CHARGE =  1.0
  Br   7    (CENTRE  7)   4.27654282  0.79783103 -0.00623988  CHARGE = 35.0
CENTRE ASSIGNMENTS    1  1  1  1  1  1  1  1  1  1  1  1  1  1  1  1  1  1  1  1
CENTRE ASSIGNMENTS    1  1  1  1  1  1  1  1  1  1  1  1  1  1  1  1  1  1  1  1
CENTRE ASSIGNMENTS    1  1  1  1  1  1  1  1  1  1  1  1  1  1  1  1  1  1  1  1
CENTRE ASSIGNMENTS    1  1  1  1  1  1  1  1  1  1  1  1  1  1  1  2  2  2  2  2
CENTRE ASSIGNMENTS    2  2  2  2  2  2  2  2  2  2  2  2  2  2  2  2  2  2  2  2
CENTRE ASSIGNMENTS    2  2  2  2  2  2  2  2  2  2  2  2  2  2  2  2  2  2  2  2
CENTRE ASSIGNMENTS    2  2  2  2  2  2  2  2  2  2  2  2  2  2  2  2  2  2  2  2
CENTRE ASSIGNMENTS    2  2  2  2  2  2  2  2  2  2  3  3  3  3  3  3  3  3  3  3
CENTRE ASSIGNMENTS    3  3  3  3  3  3  3  3  3  3  3  3  3  3  3  3  3  4  4  4
CENTRE ASSIGNMENTS    4  4  4  4  4  4  4  4  4  4  4  4  4  4  4  4  4  4  4  4
CENTRE ASSIGNMENTS    4  4  4  4  5  5  5  5  5  5  5  5  5  5  5  5  5  5  5  5
CENTRE ASSIGNMENTS    5  5  5  5  5  5  5  5  5  5  5  5  5  5  5  5  5  5  5  5
CENTRE ASSIGNMENTS    5  5  5  5  5  5  5  5  5  5  5  5  5  5  5  5  5  5  5  5
CENTRE ASSIGNMENTS    5  5  5  5  5  5  5  5  5  5  5  5  5  5  5  5  5  5  5  5
CENTRE ASSIGNMENTS    5  5  5  5  5  5  5  5  5  5  5  5  5  5  5  5  5  5  5  5
CENTRE ASSIGNMENTS    5  5  5  5  5  5  5  5  5  5  5  5  5  5  5  5  5  5  5  5
CENTRE ASSIGNMENTS    5  5  5  5  5  5  5  5  5  5  5  5  5  5  5  5  5  5  5  5
CENTRE ASSIGNMENTS    5  6  6  6  6  6  6  6  6  6  6  6  6  6  6  6  6  6  6  6
CENTRE ASSIGNMENTS    6  6  6  6  6  6  6  6  7  7  7  7  7  7  7  7  7  7  7  7
CENTRE ASSIGNMENTS    7  7  7  7  7  7  7  7  7  7  7  7  7  7  7  7  7  7  7  7
CENTRE ASSIGNMENTS    7  7  7  7  7  7  7  7  7  7  7  7  7  7  7  7  7  7  7  7
CENTRE ASSIGNMENTS    7  7  7  7  7  7  7  7  7  7  7  7  7  7  7  7  7  7  7  7
CENTRE ASSIGNMENTS    7  7  7  7  7  7  7  7  7  7  7  7  7  7  7  7  7  7  7  7
CENTRE ASSIGNMENTS    7  7  7  7  7  7  7  7  7  7  7  7  7  7  7  7  7  7  7  7
CENTRE ASSIGNMENTS    7  7  7  7  7  7  7  7  7  7  7  7  7  7  7  7  7  7  7  7
CENTRE ASSIGNMENTS    7  7  7  7  7  7  7  7  7  7  7  7  7  7  7  7  7  7  7  7
CENTRE ASSIGNMENTS    7  7  7  7  7  7  7  7  7  7  7  7  7  7  7  7  7  7  7  7
CENTRE ASSIGNMENTS    7  7  7  7  7  7  7  7  7  7  7  7  7  7  7  7  7  7  7  7
CENTRE ASSIGNMENTS    7  7  7  7  7  7  7  7  7  7  7  7  7  7  7  7  7  7  7  7
CENTRE ASSIGNMENTS    7  7  7  7  7  7  7  7  7  7  7  7  7  7  7  7  7  7  7  7
CENTRE ASSIGNMENTS    7  7  7  7  7  7  7  7  7  7  7  7  7  7  7  7  7  7  7  7
CENTRE ASSIGNMENTS    7  7  7  7  7  7  7  7  7  7  7
TYPE ASSIGNMENTS      1  1  1  1  1  1  1  1  1  1  1  1  1  1  1  1  1  1  1  2
TYPE ASSIGNMENTS      2  2  3  3  3  4  4  4  2  3  4  2  3  4  2  3  4  5  6  7
TYPE ASSIGNMENTS      8  9 10  5  6  7  8  9 10  5  6  7  8  9 10 11 12 13 17 14
TYPE ASSIGNMENTS     15 18 19 16 20 11 12 13 17 14 15 18 19 16 20  1  1  1  1  1
TYPE ASSIGNMENTS      1  1  1  1  1  1  1  1  1  1  1  1  1  1  2  2  2  3  3  3
TYPE ASSIGNMENTS      4  4  4  2  3  4  2  3  4  2  3  4  5  6  7  8  9 10  5  6
TYPE ASSIGNMENTS      7  8  9 10  5  6  7  8  9 10 11 12 13 17 14 15 18 19 16 20
TYPE ASSIGNMENTS     11 12 13 17 14 15 18 19 16 20  1  1  1  1  1  1  2  3  4  2
TYPE ASSIGNMENTS      3  4  2  3  4  5  6  7  8  9 10  5  6  7  8  9 10  1  1  1
TYPE ASSIGNMENTS      1  1  1  2  3  4  2  3  4  2  3  4  5  6  7  8  9 10  5  6
TYPE ASSIGNMENTS      7  8  9 10  1  1  1  1  1  1  1  1  1  1  1  1  1  1  1  1
TYPE ASSIGNMENTS      1  1  1  1  1  1  1  1  1  1  1  1  1  1  1  1  1  1  1  1
TYPE ASSIGNMENTS      1  1  1  1  1  1  2  2  2  2  2  2  2  2  3  3  3  3  3  3
TYPE ASSIGNMENTS      3  3  4  4  4  4  4  4  4  4  2  2  2  2  2  2  2  2  3  3
TYPE ASSIGNMENTS      3  3  3  3  3  3  4  4  4  4  4  4  4  4  2  3  4  2  3  4
TYPE ASSIGNMENTS      2  3  4  5  6  7  8  9 10  5  6  7  8  9 10  5  6  7  8  9
TYPE ASSIGNMENTS     10 11 12 13 17 14 15 18 19 16 20 11 12 13 17 14 15 18 19 16
TYPE ASSIGNMENTS     20  1  1  1  1  1  1  2  3  4  2  3  4  2  3  4  5  6  7  8
TYPE ASSIGNMENTS      9 10  5  6  7  8  9 10  1  1  1  1  1  1  1  1  1  1  1  1
TYPE ASSIGNMENTS      1  1  1  1  1  1  1  1  1  1  1  1  1  1  1  1  1  1  1  1
TYPE ASSIGNMENTS      1  1  1  1  1  1  1  1  1  1  1  1  1  1  1  1  1  1  1  1
TYPE ASSIGNMENTS      1  1  1  1  1  1  1  1  1  1  1  1  1  1  1  1  1  1  1  1
TYPE ASSIGNMENTS      1  1  1  2  2  2  2  2  2  2  2  2  2  2  3  3  3  3  3  3
TYPE ASSIGNMENTS      3  3  3  3  3  4  4  4  4  4  4  4  4  4  4  4  2  2  2  2
TYPE ASSIGNMENTS      2  2  2  2  2  2  2  3  3  3  3  3  3  3  3  3  3  3  4  4
TYPE ASSIGNMENTS      4  4  4  4  4  4  4  4  4  2  2  2  2  2  2  2  2  2  2  2
TYPE ASSIGNMENTS      3  3  3  3  3  3  3  3  3  3  3  4  4  4  4  4  4  4  4  4
TYPE ASSIGNMENTS      4  4  2  3  4  2  3  4  2  3  4  5  5  5  5  5  5  5  6  6
TYPE ASSIGNMENTS      6  6  6  6  6  7  7  7  7  7  7  7  8  8  8  8  8  8  8  9
TYPE ASSIGNMENTS      9  9  9  9  9  9 10 10 10 10 10 10 10  5  6  7  8  9 10  5
TYPE ASSIGNMENTS      6  7  8  9 10  5  6  7  8  9 10 11 12 13 17 14 15 18 19 16
TYPE ASSIGNMENTS     20 11 12 13 17 14 15 18 19 16 20
EXPONENTS  0.8236000D+04 0.1235000D+04 0.2808000D+03 0.7927000D+02 0.2559000D+02
EXPONENTS  0.8997000D+01 0.3319000D+01 0.3643000D+00 0.8236000D+04 0.1235000D+04
EXPONENTS  0.2808000D+03 0.7927000D+02 0.2559000D+02 0.8997000D+01 0.3319000D+01
EXPONENTS  0.3643000D+00 0.9059000D+00 0.1285000D+00 0.4402000D-01 0.1871000D+02
EXPONENTS  0.4133000D+01 0.1200000D+01 0.1871000D+02 0.4133000D+01 0.1200000D+01
EXPONENTS  0.1871000D+02 0.4133000D+01 0.1200000D+01 0.3827000D+00 0.3827000D+00
EXPONENTS  0.3827000D+00 0.1209000D+00 0.1209000D+00 0.1209000D+00 0.3569000D-01
EXPONENTS  0.3569000D-01 0.3569000D-01 0.1097000D+01 0.1097000D+01 0.1097000D+01
EXPONENTS  0.1097000D+01 0.1097000D+01 0.1097000D+01 0.3180000D+00 0.3180000D+00
EXPONENTS  0.3180000D+00 0.3180000D+00 0.3180000D+00 0.3180000D+00 0.1000000D+00
EXPONENTS  0.1000000D+00 0.1000000D+00 0.1000000D+00 0.1000000D+00 0.1000000D+00
EXPONENTS  0.7610000D+00 0.7610000D+00 0.7610000D+00 0.7610000D+00 0.7610000D+00
EXPONENTS  0.7610000D+00 0.7610000D+00 0.7610000D+00 0.7610000D+00 0.7610000D+00
EXPONENTS  0.2680000D+00 0.2680000D+00 0.2680000D+00 0.2680000D+00 0.2680000D+00
EXPONENTS  0.2680000D+00 0.2680000D+00 0.2680000D+00 0.2680000D+00 0.2680000D+00
EXPONENTS  0.8236000D+04 0.1235000D+04 0.2808000D+03 0.7927000D+02 0.2559000D+02
EXPONENTS  0.8997000D+01 0.3319000D+01 0.3643000D+00 0.8236000D+04 0.1235000D+04
EXPONENTS  0.2808000D+03 0.7927000D+02 0.2559000D+02 0.8997000D+01 0.3319000D+01
EXPONENTS  0.3643000D+00 0.9059000D+00 0.1285000D+00 0.4402000D-01 0.1871000D+02
EXPONENTS  0.4133000D+01 0.1200000D+01 0.1871000D+02 0.4133000D+01 0.1200000D+01
EXPONENTS  0.1871000D+02 0.4133000D+01 0.1200000D+01 0.3827000D+00 0.3827000D+00
EXPONENTS  0.3827000D+00 0.1209000D+00 0.1209000D+00 0.1209000D+00 0.3569000D-01
EXPONENTS  0.3569000D-01 0.3569000D-01 0.1097000D+01 0.1097000D+01 0.1097000D+01
EXPONENTS  0.1097000D+01 0.1097000D+01 0.1097000D+01 0.3180000D+00 0.3180000D+00
EXPONENTS  0.3180000D+00 0.3180000D+00 0.3180000D+00 0.3180000D+00 0.1000000D+00
EXPONENTS  0.1000000D+00 0.1000000D+00 0.1000000D+00 0.1000000D+00 0.1000000D+00
EXPONENTS  0.7610000D+00 0.7610000D+00 0.7610000D+00 0.7610000D+00 0.7610000D+00
EXPONENTS  0.7610000D+00 0.7610000D+00 0.7610000D+00 0.7610000D+00 0.7610000D+00
EXPONENTS  0.2680000D+00 0.2680000D+00 0.2680000D+00 0.2680000D+00 0.2680000D+00
EXPONENTS  0.2680000D+00 0.2680000D+00 0.2680000D+00 0.2680000D+00 0.2680000D+00
EXPONENTS  0.3387000D+02 0.5095000D+01 0.1159000D+01 0.3258000D+00 0.1027000D+00
EXPONENTS  0.2526000D-01 0.1407000D+01 0.1407000D+01 0.1407000D+01 0.3880000D+00
EXPONENTS  0.3880000D+00 0.3880000D+00 0.1020000D+00 0.1020000D+00 0.1020000D+00
EXPONENTS  0.1057000D+01 0.1057000D+01 0.1057000D+01 0.1057000D+01 0.1057000D+01
EXPONENTS  0.1057000D+01 0.2470000D+00 0.2470000D+00 0.2470000D+00 0.2470000D+00
EXPONENTS  0.2470000D+00 0.2470000D+00 0.3387000D+02 0.5095000D+01 0.1159000D+01
EXPONENTS  0.3258000D+00 0.1027000D+00 0.2526000D-01 0.1407000D+01 0.1407000D+01
EXPONENTS  0.1407000D+01 0.3880000D+00 0.3880000D+00 0.3880000D+00 0.1020000D+00
EXPONENTS  0.1020000D+00 0.1020000D+00 0.1057000D+01 0.1057000D+01 0.1057000D+01
EXPONENTS  0.1057000D+01 0.1057000D+01 0.1057000D+01 0.2470000D+00 0.2470000D+00
EXPONENTS  0.2470000D+00 0.2470000D+00 0.2470000D+00 0.2470000D+00 0.1649000D+06
EXPONENTS  0.2471000D+05 0.5628000D+04 0.1596000D+04 0.5210000D+03 0.1880000D+03
EXPONENTS  0.7301000D+02 0.2990000D+02 0.1254000D+02 0.4306000D+01 0.1826000D+01
EXPONENTS  0.7417000D+00 0.7612000D-01 0.1649000D+06 0.2471000D+05 0.5628000D+04
EXPONENTS  0.1596000D+04 0.5210000D+03 0.1880000D+03 0.7301000D+02 0.2990000D+02
EXPONENTS  0.1254000D+02 0.4306000D+01 0.1826000D+01 0.7417000D+00 0.7612000D-01
EXPONENTS  0.1649000D+06 0.2471000D+05 0.5628000D+04 0.1596000D+04 0.5210000D+03
EXPONENTS  0.1880000D+03 0.7301000D+02 0.2990000D+02 0.1254000D+02 0.4306000D+01
EXPONENTS  0.1826000D+01 0.7417000D+00 0.7612000D-01 0.1457000D+00 0.3310000D-01
EXPONENTS  0.1290000D-01 0.3169000D+03 0.7486000D+02 0.2372000D+02 0.8669000D+01
EXPONENTS  0.3363000D+01 0.1310000D+01 0.4911000D+00 0.2364000D+00 0.3169000D+03
EXPONENTS  0.7486000D+02 0.2372000D+02 0.8669000D+01 0.3363000D+01 0.1310000D+01
EXPONENTS  0.4911000D+00 0.2364000D+00 0.3169000D+03 0.7486000D+02 0.2372000D+02
EXPONENTS  0.8669000D+01 0.3363000D+01 0.1310000D+01 0.4911000D+00 0.2364000D+00
EXPONENTS  0.3169000D+03 0.7486000D+02 0.2372000D+02 0.8669000D+01 0.3363000D+01
EXPONENTS  0.1310000D+01 0.4911000D+00 0.2364000D+00 0.3169000D+03 0.7486000D+02
EXPONENTS  0.2372000D+02 0.8669000D+01 0.3363000D+01 0.1310000D+01 0.4911000D+00
EXPONENTS  0.2364000D+00 0.3169000D+03 0.7486000D+02 0.2372000D+02 0.8669000D+01
EXPONENTS  0.3363000D+01 0.1310000D+01 0.4911000D+00 0.2364000D+00 0.8733000D-01
EXPONENTS  0.8733000D-01 0.8733000D-01 0.3237000D-01 0.3237000D-01 0.3237000D-01
EXPONENTS  0.7450000D-02 0.7450000D-02 0.7450000D-02 0.1260000D+00 0.1260000D+00
EXPONENTS  0.1260000D+00 0.1260000D+00 0.1260000D+00 0.1260000D+00 0.2940000D+00
EXPONENTS  0.2940000D+00 0.2940000D+00 0.2940000D+00 0.2940000D+00 0.2940000D+00
EXPONENTS  0.4680000D-01 0.4680000D-01 0.4680000D-01 0.4680000D-01 0.4680000D-01
EXPONENTS  0.4680000D-01 0.2520000D+00 0.2520000D+00 0.2520000D+00 0.2520000D+00
EXPONENTS  0.2520000D+00 0.2520000D+00 0.2520000D+00 0.2520000D+00 0.2520000D+00
EXPONENTS  0.2520000D+00 0.9400000D-01 0.9400000D-01 0.9400000D-01 0.9400000D-01
EXPONENTS  0.9400000D-01 0.9400000D-01 0.9400000D-01 0.9400000D-01 0.9400000D-01
EXPONENTS  0.9400000D-01 0.3387000D+02 0.5095000D+01 0.1159000D+01 0.3258000D+00
EXPONENTS  0.1027000D+00 0.2526000D-01 0.1407000D+01 0.1407000D+01 0.1407000D+01
EXPONENTS  0.3880000D+00 0.3880000D+00 0.3880000D+00 0.1020000D+00 0.1020000D+00
EXPONENTS  0.1020000D+00 0.1057000D+01 0.1057000D+01 0.1057000D+01 0.1057000D+01
EXPONENTS  0.1057000D+01 0.1057000D+01 0.2470000D+00 0.2470000D+00 0.2470000D+00
EXPONENTS  0.2470000D+00 0.2470000D+00 0.2470000D+00 0.1063900D+08 0.1593400D+07
EXPONENTS  0.3626100D+06 0.1027000D+06 0.3350100D+05 0.1209300D+05 0.4715900D+04
EXPONENTS  0.1955600D+04 0.8526100D+03 0.3876700D+03 0.1826800D+03 0.8824500D+02
EXPONENTS  0.3926300D+02 0.1923400D+02 0.9405700D+01 0.4160100D+01 0.1899500D+01
EXPONENTS  0.3011400D+00 0.1063900D+08 0.1593400D+07 0.3626100D+06 0.1027000D+06
EXPONENTS  0.3350100D+05 0.1209300D+05 0.4715900D+04 0.1955600D+04 0.8526100D+03
EXPONENTS  0.3876700D+03 0.1826800D+03 0.8824500D+02 0.3926300D+02 0.1923400D+02
EXPONENTS  0.9405700D+01 0.4160100D+01 0.1899500D+01 0.3011400D+00 0.1063900D+08
EXPONENTS  0.1593400D+07 0.3626100D+06 0.1027000D+06 0.3350100D+05 0.1209300D+05
EXPONENTS  0.4715900D+04 0.1955600D+04 0.8526100D+03 0.3876700D+03 0.1826800D+03
EXPONENTS  0.8824500D+02 0.3926300D+02 0.1923400D+02 0.9405700D+01 0.4160100D+01
EXPONENTS  0.1899500D+01 0.3011400D+00 0.1063900D+08 0.1593400D+07 0.3626100D+06
EXPONENTS  0.1027000D+06 0.3350100D+05 0.1209300D+05 0.4715900D+04 0.1955600D+04
EXPONENTS  0.8526100D+03 0.3876700D+03 0.1826800D+03 0.8824500D+02 0.3926300D+02
EXPONENTS  0.1923400D+02 0.9405700D+01 0.4160100D+01 0.1899500D+01 0.3011400D+00
EXPONENTS  0.6047200D+00 0.1251500D+00 0.4559300D-01 0.8676500D+04 0.2055900D+04
EXPONENTS  0.6662300D+03 0.2531000D+03 0.1061200D+03 0.4724200D+02 0.2182500D+02
EXPONENTS  0.9968400D+01 0.4517100D+01 0.1998200D+01 0.2814500D+00 0.8676500D+04
EXPONENTS  0.2055900D+04 0.6662300D+03 0.2531000D+03 0.1061200D+03 0.4724200D+02
EXPONENTS  0.2182500D+02 0.9968400D+01 0.4517100D+01 0.1998200D+01 0.2814500D+00
EXPONENTS  0.8676500D+04 0.2055900D+04 0.6662300D+03 0.2531000D+03 0.1061200D+03
EXPONENTS  0.4724200D+02 0.2182500D+02 0.9968400D+01 0.4517100D+01 0.1998200D+01
EXPONENTS  0.2814500D+00 0.8676500D+04 0.2055900D+04 0.6662300D+03 0.2531000D+03
EXPONENTS  0.1061200D+03 0.4724200D+02 0.2182500D+02 0.9968400D+01 0.4517100D+01
EXPONENTS  0.1998200D+01 0.2814500D+00 0.8676500D+04 0.2055900D+04 0.6662300D+03
EXPONENTS  0.2531000D+03 0.1061200D+03 0.4724200D+02 0.2182500D+02 0.9968400D+01
EXPONENTS  0.4517100D+01 0.1998200D+01 0.2814500D+00 0.8676500D+04 0.2055900D+04
EXPONENTS  0.6662300D+03 0.2531000D+03 0.1061200D+03 0.4724200D+02 0.2182500D+02
EXPONENTS  0.9968400D+01 0.4517100D+01 0.1998200D+01 0.2814500D+00 0.8676500D+04
EXPONENTS  0.2055900D+04 0.6662300D+03 0.2531000D+03 0.1061200D+03 0.4724200D+02
EXPONENTS  0.2182500D+02 0.9968400D+01 0.4517100D+01 0.1998200D+01 0.2814500D+00
EXPONENTS  0.8676500D+04 0.2055900D+04 0.6662300D+03 0.2531000D+03 0.1061200D+03
EXPONENTS  0.4724200D+02 0.2182500D+02 0.9968400D+01 0.4517100D+01 0.1998200D+01
EXPONENTS  0.2814500D+00 0.8676500D+04 0.2055900D+04 0.6662300D+03 0.2531000D+03
EXPONENTS  0.1061200D+03 0.4724200D+02 0.2182500D+02 0.9968400D+01 0.4517100D+01
EXPONENTS  0.1998200D+01 0.2814500D+00 0.7098800D+00 0.7098800D+00 0.7098800D+00
EXPONENTS  0.1020400D+00 0.1020400D+00 0.1020400D+00 0.3514200D-01 0.3514200D-01
EXPONENTS  0.3514200D-01 0.4038300D+03 0.1211700D+03 0.4634500D+02 0.1972100D+02
EXPONENTS  0.8862400D+01 0.3996200D+01 0.1763600D+01 0.4038300D+03 0.1211700D+03
EXPONENTS  0.4634500D+02 0.1972100D+02 0.8862400D+01 0.3996200D+01 0.1763600D+01
EXPONENTS  0.4038300D+03 0.1211700D+03 0.4634500D+02 0.1972100D+02 0.8862400D+01
EXPONENTS  0.3996200D+01 0.1763600D+01 0.4038300D+03 0.1211700D+03 0.4634500D+02
EXPONENTS  0.1972100D+02 0.8862400D+01 0.3996200D+01 0.1763600D+01 0.4038300D+03
EXPONENTS  0.1211700D+03 0.4634500D+02 0.1972100D+02 0.8862400D+01 0.3996200D+01
EXPONENTS  0.1763600D+01 0.4038300D+03 0.1211700D+03 0.4634500D+02 0.1972100D+02
EXPONENTS  0.8862400D+01 0.3996200D+01 0.1763600D+01 0.7061900D+00 0.7061900D+00
EXPONENTS  0.7061900D+00 0.7061900D+00 0.7061900D+00 0.7061900D+00 0.2639000D+00
EXPONENTS  0.2639000D+00 0.2639000D+00 0.2639000D+00 0.2639000D+00 0.2639000D+00
EXPONENTS  0.1047000D+00 0.1047000D+00 0.1047000D+00 0.1047000D+00 0.1047000D+00
EXPONENTS  0.1047000D+00 0.5515000D+00 0.5515000D+00 0.5515000D+00 0.5515000D+00
EXPONENTS  0.5515000D+00 0.5515000D+00 0.5515000D+00 0.5515000D+00 0.5515000D+00
EXPONENTS  0.5515000D+00 0.2580000D+00 0.2580000D+00 0.2580000D+00 0.2580000D+00
EXPONENTS  0.2580000D+00 0.2580000D+00 0.2580000D+00 0.2580000D+00 0.2580000D+00
EXPONENTS  0.2580000D+00
MO    1     MO 0.0        OCC NO =    2.0000000  ORB. ENERGY = -483.235200
  0.17941614D-06  0.33447247D-06  0.56531740D-06  0.84985722D-06  0.10441478D-05
  0.88194973D-06  0.33263899D-06 -0.16462489D-08 -0.12369621D-06 -0.23159834D-06
 -0.39431599D-06 -0.60994688D-06 -0.80327858D-06 -0.83465790D-06 -0.53038763D-06
  0.35545345D-06  0.67225304D-06 -0.14225865D-04  0.14741160D-04  0.55052415D-06
  0.51615138D-06  0.36753053D-06  0.41986613D-07  0.39365119D-07  0.28030310D-07
 -0.14164197D-08 -0.13279835D-08 -0.94560339D-09 -0.69011664D-07  0.59702865D-05
 -0.17577411D-06 -0.12426261D-06 -0.22526640D-04  0.65196869D-06  0.52914115D-06
  0.99289350D-06 -0.31480981D-07  0.28421023D-07 -0.39207807D-06  0.36365705D-06
  0.62344684D-07  0.17826083D-08  0.48658565D-07  0.26190899D-06 -0.10229219D-05
  0.76101287D-06  0.33619886D-05 -0.88920892D-07  0.88406320D-07 -0.96397616D-05
  0.98808711D-05 -0.24110954D-06 -0.46611724D-05  0.21768857D-06 -0.56757611D-06
 -0.51108604D-07  0.98489277D-06  0.20830550D-07 -0.10685867D-05 -0.20502030D-05
  0.71513165D-07  0.12219125D-05 -0.90447529D-06 -0.13400482D-06  0.14397601D-06
 -0.14520366D-05 -0.39722332D-06 -0.43739382D-07  0.42467889D-05 -0.30312554D-06
  0.29502008D-07  0.10932091D-06  0.14947955D-05  0.10171614D-06 -0.22105932D-06
 -0.22607312D-06 -0.42145170D-06 -0.71232762D-06 -0.10708617D-05 -0.13156774D-05
 -0.11112999D-05 -0.41914143D-06  0.20743543D-08  0.14832842D-06  0.27771760D-06
  0.47283797D-06  0.73140844D-06  0.96323918D-06  0.10008672D-05  0.63600618D-06
 -0.42623655D-06 -0.41780296D-06  0.24369426D-04 -0.25407652D-05 -0.80777500D-06
 -0.75734041D-06 -0.53927149D-06  0.13545722D-06  0.12699976D-06  0.90431393D-07
  0.20822411D-08  0.19522334D-08  0.13901065D-08  0.48219435D-05  0.20486727D-05
 -0.83544578D-07 -0.36883111D-04 -0.52774053D-06  0.18900809D-06  0.19656353D-05
  0.43599149D-06 -0.21805605D-07  0.67513903D-06  0.32169304D-06 -0.99683206D-06
 -0.60097315D-06 -0.38392959D-08 -0.78087844D-07 -0.14684544D-05  0.15487487D-05
 -0.80294311D-07 -0.40534051D-05  0.13465394D-06 -0.72029858D-07 -0.11648396D-04
  0.10994917D-04  0.65347887D-06 -0.15461140D-05  0.15561802D-06 -0.59528715D-06
  0.17097898D-05 -0.92745933D-07  0.48791487D-10 -0.29207483D-05 -0.13590126D-06
 -0.46977241D-07 -0.22086212D-05  0.41413906D-06  0.46830867D-07  0.44391860D-07
 -0.17691195D-05 -0.11241532D-05 -0.16168181D-07  0.23166126D-05  0.33123167D-05
 -0.41308073D-07  0.29907459D-05  0.60142933D-07  0.89812615D-07  0.91023055D-08
 -0.15781824D-06 -0.28463169D-06 -0.41968926D-06 -0.37401239D-05  0.98712391D-04
  0.73961838D-06  0.95663555D-07 -0.71287630D-06  0.19447307D-07  0.44921960D-06
  0.56121379D-05 -0.16233009D-06  0.10510727D-04 -0.69292167D-05  0.15820604D-06
  0.53478170D-06  0.12902428D-05 -0.18250245D-05  0.39297150D-05 -0.13523358D-06
 -0.19476975D-06 -0.13634420D-06 -0.12095379D-06  0.25729799D-06  0.78669954D-06
 -0.16787931D-07  0.19144955D-07 -0.96132306D-07 -0.17337857D-06 -0.25564660D-06
 -0.51066470D-05 -0.12597350D-03  0.67665257D-06  0.60818834D-06  0.12796680D-06
 -0.78418521D-08 -0.39206625D-05  0.31017472D-05 -0.69035120D-07  0.58649708D-05
 -0.13073926D-04  0.35760006D-06 -0.85575033D-06  0.15293080D-05 -0.67355768D-06
 -0.11471647D-05  0.33529352D-07 -0.12178101D-06  0.44433234D-06  0.33293764D-06
 -0.77726997D-06 -0.18725680D-05  0.44400937D-07 -0.55560942D-07  0.31546460D-06
  0.58982816D-06  0.10167315D-05  0.16398348D-05  0.24611614D-05  0.32985564D-05
  0.36254221D-05  0.27135467D-05  0.93159402D-06  0.52510717D-07 -0.36614109D-08
  0.86964808D-09  0.54204015D-10 -0.78458764D-06 -0.14717351D-05 -0.25316426D-05
 -0.41313316D-05 -0.62695891D-05 -0.88788315D-05 -0.10735236D-04 -0.10600602D-04
 -0.53017560D-05  0.29687156D-05  0.47407800D-05  0.15472881D-05 -0.90001109D-08
  0.54607735D-06  0.10235736D-05  0.17629494D-05  0.28738152D-05  0.43749808D-05
  0.61998717D-05  0.75763339D-05  0.75860171D-05  0.39611291D-05 -0.24663436D-05
 -0.44592825D-05 -0.32685931D-05  0.14900504D-05  0.34199925D-04 -0.33975815D-04
  0.70642953D-06 -0.72575800D-04 -0.93800395D-04 -0.10113783D-03 -0.83374128D-04
 -0.45519864D-04 -0.14595546D-04 -0.16438469D-05  0.18863882D-07  0.18944779D-04
  0.24485129D-04  0.26400452D-04  0.21763514D-04  0.11882250D-04  0.38099393D-05
  0.42910057D-06 -0.49241217D-08 -0.32381856D-06 -0.41851842D-06 -0.45125659D-06
 -0.37199852D-06 -0.20310044D-06 -0.65122377D-07 -0.73345129D-08  0.84166830D-10
  0.72737932D-04  0.94005440D-04  0.10288017D-03  0.85953688D-04  0.48086202D-04
  0.16288620D-04  0.25492618D-05 -0.48149495D-05 -0.19496656D-04 -0.25197194D-04
 -0.27575975D-04 -0.23039004D-04 -0.12889013D-04 -0.43659976D-05 -0.68330347D-06
  0.12905978D-05  0.33059209D-06  0.42725239D-06  0.46758782D-06  0.39065738D-06
  0.21855060D-06  0.74031375D-07  0.11586331D-07 -0.21883826D-07 -0.85668207D-04
  0.20369409D-04 -0.46462094D-07 -0.20744390D-05  0.41532486D-06  0.32950103D-08
  0.15260439D-07 -0.19266795D-08 -0.72176606D-10 -0.27729465D-05  0.13341569D-05
  0.14387897D-05 -0.47473337D-06  0.77922943D-07  0.70344208D-08  0.14432550D-05
 -0.78355559D-06 -0.65969945D-06 -0.17332408D-06 -0.20005115D-07  0.66476777D-08
 -0.86469503D-06  0.40183627D-06  0.46285876D-06  0.38704119D-06  0.56718747D-08
  0.94179685D-09 -0.13447291D-05 -0.42739850D-06 -0.57038714D-08  0.18974870D-05
  0.15807964D-05  0.98997764D-08  0.21367003D-05 -0.29860093D-06  0.72118378D-08
 -0.11605856D-07 -0.93467910D-06 -0.38502351D-06  0.41495374D-09  0.12206510D-05
  0.15246339D-05 -0.53316939D-08  0.15833863D-05 -0.36956333D-06  0.40868326D-08
 -0.36358831D-08  0.31388007D-06  0.56609563D-06  0.83470768D-06 -0.34672630D-05
 -0.11098843D-03 -0.38994311D-06 -0.22844375D-05 -0.61212345D-06  0.29649747D-07
  0.51117235D-05  0.56131323D-05 -0.18790267D-06 -0.11189737D-04  0.10211950D-04
 -0.24545132D-06 -0.36812685D-06 -0.20528786D-05  0.24210054D-05 -0.20576776D-05
  0.87960031D-07  0.27122817D-06  0.28746136D-06 -0.23725364D-06 -0.50207716D-07
 -0.10563332D-05  0.27578611D-07  0.16438033D-07  0.78329820D+00  0.14734793D+01
  0.25506654D+01  0.41810285D+01  0.65496622D+01  0.98447000D+01  0.14070549D+02
  0.18679004D+02  0.21754237D+02  0.19981056D+02  0.11683710D+02  0.30658638D+01
  0.16760958D+00 -0.59990736D-02  0.16765518D-02 -0.49782479D-03  0.84870508D-04
  0.69242661D-05  0.80506290D-04  0.14791500D-03  0.25577912D-03  0.41887406D-03
  0.65949839D-03  0.99590718D-03  0.14537204D-02  0.20018612D-02  0.25578427D-02
  0.27883483D-02  0.22952400D-02  0.62933921D-03 -0.12694180D-02 -0.12371033D-02
 -0.27071305D-03 -0.91200735D-05 -0.30895895D-06  0.78595171D-09 -0.54143972D-04
 -0.10614387D-03 -0.18590836D-03 -0.30371377D-03 -0.47902977D-03 -0.72283454D-03
 -0.10598191D-02 -0.14632555D-02 -0.18971180D-02 -0.21097069D-02 -0.18324103D-02
 -0.53228242D-03  0.13418775D-02  0.19552101D-02  0.33659641D-03 -0.82115112D-03
 -0.39084723D-03  0.18875206D-05  0.20094241D-04  0.43539368D-04  0.74118869D-04
  0.12098195D-03  0.19071618D-03  0.28784580D-03  0.42202885D-03  0.58342492D-03
  0.75722702D-03  0.84595500D-03  0.73896084D-03  0.21888092D-03 -0.56896466D-03
 -0.87525996D-03 -0.15319722D-03  0.48325216D-03  0.41020800D-03 -0.15304494D-03
  0.11704122D-03  0.13661820D-03  0.44169927D-04 -0.14252804D-03 -0.20450251D-03
 -0.27077219D-03 -0.31266516D-03 -0.28985499D-03 -0.18765740D-03 -0.66236172D-04
 -0.77634505D-05 -0.11286620D-06 -0.16527999D-07 -0.16993350D-09  0.31966242D-04
  0.45865897D-04  0.60728886D-04  0.70124657D-04  0.65008783D-04  0.42087871D-04
  0.14855473D-04  0.17411895D-05  0.25313673D-07  0.37069057D-08  0.38112747D-10
 -0.48825462D-07 -0.70055893D-07 -0.92757726D-07 -0.10710889D-06 -0.99294871D-07
 -0.64285310D-07 -0.22690354D-07 -0.26595051D-08 -0.38664282D-10 -0.56619537D-11
 -0.58213677D-13  0.59122298D-04  0.85343717D-04  0.11401717D-03  0.13545589D-03
  0.13126714D-03  0.91247407D-04  0.29691031D-04 -0.13363320D-04 -0.14436844D-04
 -0.37167214D-05  0.36253185D-08 -0.34845026D-04 -0.50299195D-04 -0.67198522D-04
 -0.79833906D-04 -0.77365175D-04 -0.53778665D-04 -0.17499062D-04  0.78759665D-05
  0.85086715D-05  0.21905314D-05 -0.21366611D-08  0.92141933D-06  0.13300794D-05
  0.17769543D-05  0.21110762D-05  0.20457946D-05  0.14220882D-05  0.46273387D-06
 -0.20826696D-06 -0.22499781D-06 -0.57924996D-07  0.56500485D-10 -0.43457476D-04
 -0.63145640D-04 -0.83952861D-04 -0.10073762D-03 -0.97464094D-04 -0.69188158D-04
 -0.21503854D-04  0.12346156D-04  0.14182993D-04  0.37664184D-05 -0.13589355D-05
  0.24883724D-04  0.36157154D-04  0.48071356D-04  0.57682299D-04  0.55807880D-04
  0.39617096D-04  0.12313093D-04 -0.70694014D-05 -0.81211728D-05 -0.21566488D-05
  0.77812562D-06 -0.63432631D-06 -0.92170427D-06 -0.12254165D-05 -0.14704150D-05
 -0.14226330D-05 -0.10099038D-05 -0.31388064D-06  0.18021046D-06  0.20702181D-06
  0.54976462D-07 -0.19835679D-07  0.52815759D-05 -0.14079446D-05  0.14305988D-07
 -0.46976586D-04  0.70920910D-05  0.10524024D-06 -0.22912935D-05  0.43487016D-06
  0.24687602D-08  0.12477949D-03  0.13056830D-03  0.11125118D-03  0.73267311D-04
  0.33766722D-04  0.10111500D-04  0.17203859D-05 -0.60920694D-04 -0.63746942D-04
 -0.54315807D-04 -0.35771065D-04 -0.16485819D-04 -0.49367051D-05 -0.83993853D-06
 -0.63858801D-04 -0.66821355D-04 -0.56935371D-04 -0.37496246D-04 -0.17280903D-04
 -0.51747945D-05 -0.88044741D-06 -0.66985770D-04 -0.70093391D-04 -0.59723321D-04
 -0.39332322D-04 -0.18127096D-04 -0.54281883D-05 -0.92356021D-06 -0.42624602D-06
 -0.44602053D-06 -0.38003337D-06 -0.25028070D-06 -0.11534692D-06 -0.34540823D-07
 -0.58768282D-08  0.23473080D-06  0.24562049D-06  0.20928180D-06  0.13782789D-06
  0.63520771D-07  0.19021398D-07  0.32363295D-08 -0.84442242D-05  0.41068178D-05
  0.43374063D-05  0.45822376D-05  0.27200344D-07 -0.14418150D-07  0.60254307D-05
 -0.28913344D-05 -0.31340963D-05 -0.33725432D-05 -0.17685401D-07  0.67648603D-08
  0.43580315D-05 -0.21246109D-05 -0.22334206D-05 -0.19606885D-05 -0.30580612D-07
  0.68872535D-08  0.21159750D-05  0.50407721D-06  0.15174546D-08 -0.31753848D-05
 -0.21767984D-05 -0.19641288D-07 -0.31725401D-05  0.66456678D-06  0.15088924D-07
  0.37349411D-07 -0.15307595D-05 -0.40041049D-06 -0.19930637D-08  0.22031585D-05
  0.16648834D-05  0.12148870D-07  0.23891201D-05 -0.46365195D-06 -0.61696793D-08
 -0.16762813D-07
MO    2     MO 0.0        OCC NO =    2.0000000  ORB. ENERGY =  -62.634163
 -0.63525964D-05 -0.11842684D-04 -0.20016222D-04 -0.30090939D-04 -0.36970195D-04
 -0.31227240D-04 -0.11777766D-04  0.58288821D-07  0.44250035D-05  0.82850028D-05
  0.14105926D-04  0.21819723D-04  0.28735807D-04  0.29858344D-04  0.18973638D-04
 -0.12715691D-04 -0.25407564D-04  0.49765489D-03 -0.48681068D-03 -0.14451177D-04
 -0.13548897D-04 -0.96476220D-05 -0.73436287D-06 -0.68851187D-06 -0.49026147D-06
  0.21212255D-07  0.19887838D-07  0.14161325D-07 -0.17125010D-04 -0.19656315D-03
  0.58662139D-05  0.17909776D-04  0.73166872D-03 -0.21236474D-04 -0.17326084D-04
 -0.32767775D-04  0.10374095D-05 -0.71780042D-06  0.12843436D-04 -0.12125636D-04
 -0.37809036D-05  0.21389114D-08 -0.15810089D-05  0.95728144D-06  0.27224935D-04
 -0.28182217D-04 -0.11182669D-03  0.28471973D-05 -0.27137076D-05  0.31169507D-03
 -0.31974640D-03  0.80513314D-05  0.15103021D-03 -0.70448802D-05  0.18381254D-04
 -0.79452564D-06 -0.33028857D-04 -0.66869808D-06  0.39281657D-04  0.70364220D-04
 -0.23819179D-05 -0.36898080D-04  0.28722352D-04  0.43880121D-05 -0.48110077D-05
  0.47648012D-04  0.12840130D-04  0.14267861D-05 -0.13855930D-03  0.10119483D-04
 -0.97288661D-06 -0.43847341D-05 -0.48639871D-04 -0.33074717D-05  0.71720303D-05
  0.35225041D-05  0.65667486D-05  0.11098962D-04  0.16685375D-04  0.20499912D-04
  0.17315452D-04  0.65307516D-05 -0.32321054D-07 -0.20474681D-05 -0.38335062D-05
 -0.65268724D-05 -0.10096079D-04 -0.13296181D-04 -0.13815584D-04 -0.87791833D-05
  0.58836045D-05  0.69413860D-05 -0.68877966D-03  0.92547791D-04  0.22146108D-04
  0.20763384D-04  0.14784766D-04 -0.40900563D-05 -0.38346878D-05 -0.27305261D-05
 -0.43100330D-07 -0.40409299D-07 -0.28773828D-07 -0.15269700D-03 -0.64380557D-04
  0.26087879D-05  0.12196368D-02  0.31364408D-04 -0.66228451D-05 -0.64795700D-04
 -0.15012412D-04  0.73989470D-06 -0.25208330D-04 -0.93273133D-05  0.34535643D-04
  0.17210675D-04  0.19379821D-06  0.26050085D-05  0.55516320D-04 -0.52891314D-04
 -0.26250058D-05  0.12989052D-03 -0.44279995D-05  0.22029162D-05  0.37767543D-03
 -0.35643154D-03 -0.21243889D-04  0.45520263D-04 -0.49035809D-05  0.19314120D-04
 -0.54407146D-04  0.28918799D-05 -0.26972317D-07  0.94908186D-04  0.30699500D-05
  0.14902452D-05  0.68313253D-04 -0.11745590D-04 -0.14093282D-05 -0.16183465D-05
  0.58200538D-04  0.37867485D-04  0.55468117D-06 -0.78516533D-04 -0.11031498D-03
  0.14384864D-05 -0.96085080D-04 -0.32874785D-05 -0.31025299D-05 -0.36952721D-07
  0.50299393D-05  0.90717026D-05  0.13376220D-04  0.10248016D-03 -0.31805623D-02
 -0.24643709D-04 -0.50016377D-05  0.23557921D-04 -0.62512150D-06 -0.31218434D-04
 -0.17897652D-03  0.52356038D-05 -0.33887572D-03  0.22391764D-03 -0.51155155D-05
 -0.22727338D-04 -0.37739658D-04  0.60466996D-04 -0.12164515D-03  0.42755747D-05
  0.61349009D-05  0.31938188D-05  0.45221941D-05 -0.77160129D-05 -0.24767539D-04
  0.53586183D-06 -0.61806108D-06  0.31990338D-05  0.57695892D-05  0.85072559D-05
  0.16721094D-03  0.40724964D-02 -0.22037276D-04 -0.19602117D-04 -0.57026480D-05
  0.29674998D-06  0.12506569D-03 -0.99843686D-04  0.22381081D-05 -0.19098296D-03
  0.42229600D-03 -0.11541058D-04  0.26633749D-04 -0.49839789D-04  0.23206040D-04
  0.35829358D-04 -0.10295884D-05  0.40571772D-05 -0.14333596D-04 -0.10732867D-04
  0.25066463D-04  0.60276340D-04 -0.14287299D-05  0.17936364D-05 -0.79495583D-05
 -0.14863390D-04 -0.25621153D-04 -0.41323060D-04 -0.62020101D-04 -0.83122058D-04
 -0.91358918D-04 -0.68380090D-04 -0.23475728D-04 -0.13232452D-05  0.92265818D-07
 -0.21914719D-07 -0.13659155D-08  0.20733335D-04  0.38891738D-04  0.66900612D-04