 Molden2AIM, Version 4.0.0 (06/02/2016)           Time: Fri Jun 29 19:28:53 2018
GAUSSIAN             25 MOL ORBITALS    521 PRIMITIVES        7 NUCLEI
  C    1    (CENTRE  1)  -0.01093018 -0.00000378 -0.17302710  CHARGE =  6.0
  Se   2    (CENTRE  2)   0.17952776  0.00000000  3.14565700  CHARGE = 34.0
  H    3    (CENTRE  3)   1.76078066  0.00000378 -1.25305283  CHARGE =  1.0
  C    4    (CENTRE  4)  -2.35885630  0.00000000 -1.70638679  CHARGE =  6.0
  H    5    (CENTRE  5)  -4.06019185  0.00000189 -0.52807452  CHARGE =  1.0
  H    6    (CENTRE  6)  -2.37338263  1.66296844 -2.96310757  CHARGE =  1.0
  H    7    (CENTRE  7)  -2.37338641 -1.66297033 -2.96310568  CHARGE =  1.0
CENTRE ASSIGNMENTS    1  1  1  1  1  1  1  1  1  1  1  1  1  1  1  1  1  1  1  1
CENTRE ASSIGNMENTS    1  1  1  1  1  1  1  1  1  1  1  1  1  1  1  1  1  1  1  1
CENTRE ASSIGNMENTS    1  1  1  1  1  1  1  1  1  1  1  1  1  1  1  1  1  1  1  1
CENTRE ASSIGNMENTS    1  1  1  1  1  1  1  1  1  1  1  1  1  1  1  2  2  2  2  2
CENTRE ASSIGNMENTS    2  2  2  2  2  2  2  2  2  2  2  2  2  2  2  2  2  2  2  2
CENTRE ASSIGNMENTS    2  2  2  2  2  2  2  2  2  2  2  2  2  2  2  2  2  2  2  2
CENTRE ASSIGNMENTS    2  2  2  2  2  2  2  2  2  2  2  2  2  2  2  2  2  2  2  2
CENTRE ASSIGNMENTS    2  2  2  2  2  2  2  2  2  2  2  2  2  2  2  2  2  2  2  2
CENTRE ASSIGNMENTS    2  2  2  2  2  2  2  2  2  2  2  2  2  2  2  2  2  2  2  2
CENTRE ASSIGNMENTS    2  2  2  2  2  2  2  2  2  2  2  2  2  2  2  2  2  2  2  2
CENTRE ASSIGNMENTS    2  2  2  2  2  2  2  2  2  2  2  2  2  2  2  2  2  2  2  2
CENTRE ASSIGNMENTS    2  2  2  2  2  2  2  2  2  2  2  2  2  2  2  2  2  2  2  2
CENTRE ASSIGNMENTS    2  2  2  2  2  2  2  2  2  2  2  2  2  2  2  2  2  2  2  2
CENTRE ASSIGNMENTS    2  2  2  2  2  2  2  2  2  2  2  2  2  2  2  2  2  2  2  2
CENTRE ASSIGNMENTS    2  2  2  2  2  2  2  2  2  2  2  2  2  2  2  2  2  2  2  2
CENTRE ASSIGNMENTS    2  2  2  2  2  2  2  2  2  2  2  2  2  2  2  2  2  2  2  2
CENTRE ASSIGNMENTS    2  2  2  2  2  2  2  2  2  2  2  2  2  2  2  2  2  2  3  3
CENTRE ASSIGNMENTS    3  3  3  3  3  3  3  3  3  3  3  3  3  3  3  3  3  3  3  3
CENTRE ASSIGNMENTS    3  3  3  3  3  4  4  4  4  4  4  4  4  4  4  4  4  4  4  4
CENTRE ASSIGNMENTS    4  4  4  4  4  4  4  4  4  4  4  4  4  4  4  4  4  4  4  4
CENTRE ASSIGNMENTS    4  4  4  4  4  4  4  4  4  4  4  4  4  4  4  4  4  4  4  4
CENTRE ASSIGNMENTS    4  4  4  4  4  4  4  4  4  4  4  4  4  4  4  4  4  4  4  4
CENTRE ASSIGNMENTS    5  5  5  5  5  5  5  5  5  5  5  5  5  5  5  5  5  5  5  5
CENTRE ASSIGNMENTS    5  5  5  5  5  5  5  6  6  6  6  6  6  6  6  6  6  6  6  6
CENTRE ASSIGNMENTS    6  6  6  6  6  6  6  6  6  6  6  6  6  6  7  7  7  7  7  7
CENTRE ASSIGNMENTS    7  7  7  7  7  7  7  7  7  7  7  7  7  7  7  7  7  7  7  7
CENTRE ASSIGNMENTS    7
TYPE ASSIGNMENTS      1  1  1  1  1  1  1  1  1  1  1  1  1  1  1  1  1  1  1  2
TYPE ASSIGNMENTS      2  2  3  3  3  4  4  4  2  3  4  2  3  4  2  3  4  5  6  7
TYPE ASSIGNMENTS      8  9 10  5  6  7  8  9 10  5  6  7  8  9 10 11 12 13 17 14
TYPE ASSIGNMENTS     15 18 19 16 20 11 12 13 17 14 15 18 19 16 20  1  1  1  1  1
TYPE ASSIGNMENTS      1  1  1  1  1  1  1  1  1  1  1  1  1  1  1  1  1  1  1  1
TYPE ASSIGNMENTS      1  1  1  1  1  1  1  1  1  1  1  1  1  1  1  1  1  1  1  1
TYPE ASSIGNMENTS      1  1  1  1  1  1  1  1  1  1  1  1  1  1  1  1  1  1  1  1
TYPE ASSIGNMENTS      1  1  1  1  1  1  1  1  1  1  2  2  2  2  2  2  2  2  2  2
TYPE ASSIGNMENTS      2  3  3  3  3  3  3  3  3  3  3  3  4  4  4  4  4  4  4  4
TYPE ASSIGNMENTS      4  4  4  2  2  2  2  2  2  2  2  2  2  2  3  3  3  3  3  3
TYPE ASSIGNMENTS      3  3  3  3  3  4  4  4  4  4  4  4  4  4  4  4  2  2  2  2
TYPE ASSIGNMENTS      2  2  2  2  2  2  2  3  3  3  3  3  3  3  3  3  3  3  4  4
TYPE ASSIGNMENTS      4  4  4  4  4  4  4  4  4  2  3  4  2  3  4  2  3  4  5  5
TYPE ASSIGNMENTS      5  5  5  5  5  6  6  6  6  6  6  6  7  7  7  7  7  7  7  8
TYPE ASSIGNMENTS      8  8  8  8  8  8  9  9  9  9  9  9  9 10 10 10 10 10 10 10
TYPE ASSIGNMENTS      5  6  7  8  9 10  5  6  7  8  9 10  5  6  7  8  9 10 11 12
TYPE ASSIGNMENTS     13 17 14 15 18 19 16 20 11 12 13 17 14 15 18 19 16 20  1  1
TYPE ASSIGNMENTS      1  1  1  1  2  3  4  2  3  4  2  3  4  5  6  7  8  9 10  5
TYPE ASSIGNMENTS      6  7  8  9 10  1  1  1  1  1  1  1  1  1  1  1  1  1  1  1
TYPE ASSIGNMENTS      1  1  1  1  2  2  2  3  3  3  4  4  4  2  3  4  2  3  4  2
TYPE ASSIGNMENTS      3  4  5  6  7  8  9 10  5  6  7  8  9 10  5  6  7  8  9 10
TYPE ASSIGNMENTS     11 12 13 17 14 15 18 19 16 20 11 12 13 17 14 15 18 19 16 20
TYPE ASSIGNMENTS      1  1  1  1  1  1  2  3  4  2  3  4  2  3  4  5  6  7  8  9
TYPE ASSIGNMENTS     10  5  6  7  8  9 10  1  1  1  1  1  1  2  3  4  2  3  4  2
TYPE ASSIGNMENTS      3  4  5  6  7  8  9 10  5  6  7  8  9 10  1  1  1  1  1  1
TYPE ASSIGNMENTS      2  3  4  2  3  4  2  3  4  5  6  7  8  9 10  5  6  7  8  9
TYPE ASSIGNMENTS     10
EXPONENTS  0.8236000D+04 0.1235000D+04 0.2808000D+03 0.7927000D+02 0.2559000D+02
EXPONENTS  0.8997000D+01 0.3319000D+01 0.3643000D+00 0.8236000D+04 0.1235000D+04
EXPONENTS  0.2808000D+03 0.7927000D+02 0.2559000D+02 0.8997000D+01 0.3319000D+01
EXPONENTS  0.3643000D+00 0.9059000D+00 0.1285000D+00 0.4402000D-01 0.1871000D+02
EXPONENTS  0.4133000D+01 0.1200000D+01 0.1871000D+02 0.4133000D+01 0.1200000D+01
EXPONENTS  0.1871000D+02 0.4133000D+01 0.1200000D+01 0.3827000D+00 0.3827000D+00
EXPONENTS  0.3827000D+00 0.1209000D+00 0.1209000D+00 0.1209000D+00 0.3569000D-01
EXPONENTS  0.3569000D-01 0.3569000D-01 0.1097000D+01 0.1097000D+01 0.1097000D+01
EXPONENTS  0.1097000D+01 0.1097000D+01 0.1097000D+01 0.3180000D+00 0.3180000D+00
EXPONENTS  0.3180000D+00 0.3180000D+00 0.3180000D+00 0.3180000D+00 0.1000000D+00
EXPONENTS  0.1000000D+00 0.1000000D+00 0.1000000D+00 0.1000000D+00 0.1000000D+00
EXPONENTS  0.7610000D+00 0.7610000D+00 0.7610000D+00 0.7610000D+00 0.7610000D+00
EXPONENTS  0.7610000D+00 0.7610000D+00 0.7610000D+00 0.7610000D+00 0.7610000D+00
EXPONENTS  0.2680000D+00 0.2680000D+00 0.2680000D+00 0.2680000D+00 0.2680000D+00
EXPONENTS  0.2680000D+00 0.2680000D+00 0.2680000D+00 0.2680000D+00 0.2680000D+00
EXPONENTS  0.9563600D+07 0.1432100D+07 0.3259100D+06 0.9231200D+05 0.3011600D+05
EXPONENTS  0.1087200D+05 0.4240100D+04 0.1758400D+04 0.7665900D+03 0.3484300D+03
EXPONENTS  0.1640300D+03 0.7914200D+02 0.3552400D+02 0.1730500D+02 0.8378400D+01
EXPONENTS  0.3740500D+01 0.1689000D+01 0.2552000D+00 0.9563600D+07 0.1432100D+07
EXPONENTS  0.3259100D+06 0.9231200D+05 0.3011600D+05 0.1087200D+05 0.4240100D+04
EXPONENTS  0.1758400D+04 0.7665900D+03 0.3484300D+03 0.1640300D+03 0.7914200D+02
EXPONENTS  0.3552400D+02 0.1730500D+02 0.8378400D+01 0.3740500D+01 0.1689000D+01
EXPONENTS  0.2552000D+00 0.9563600D+07 0.1432100D+07 0.3259100D+06 0.9231200D+05
EXPONENTS  0.3011600D+05 0.1087200D+05 0.4240100D+04 0.1758400D+04 0.7665900D+03
EXPONENTS  0.3484300D+03 0.1640300D+03 0.7914200D+02 0.3552400D+02 0.1730500D+02
EXPONENTS  0.8378400D+01 0.3740500D+01 0.1689000D+01 0.2552000D+00 0.9563600D+07
EXPONENTS  0.1432100D+07 0.3259100D+06 0.9231200D+05 0.3011600D+05 0.1087200D+05
EXPONENTS  0.4240100D+04 0.1758400D+04 0.7665900D+03 0.3484300D+03 0.1640300D+03
EXPONENTS  0.7914200D+02 0.3552400D+02 0.1730500D+02 0.8378400D+01 0.3740500D+01
EXPONENTS  0.1689000D+01 0.2552000D+00 0.5092700D+00 0.1065100D+00 0.3920100D-01
EXPONENTS  0.8004300D+04 0.1896900D+04 0.6147100D+03 0.2335000D+03 0.9785600D+02
EXPONENTS  0.4351400D+02 0.2006300D+02 0.9112700D+01 0.4106300D+01 0.1794900D+01
EXPONENTS  0.2461500D+00 0.8004300D+04 0.1896900D+04 0.6147100D+03 0.2335000D+03
EXPONENTS  0.9785600D+02 0.4351400D+02 0.2006300D+02 0.9112700D+01 0.4106300D+01
EXPONENTS  0.1794900D+01 0.2461500D+00 0.8004300D+04 0.1896900D+04 0.6147100D+03
EXPONENTS  0.2335000D+03 0.9785600D+02 0.4351400D+02 0.2006300D+02 0.9112700D+01
EXPONENTS  0.4106300D+01 0.1794900D+01 0.2461500D+00 0.8004300D+04 0.1896900D+04
EXPONENTS  0.6147100D+03 0.2335000D+03 0.9785600D+02 0.4351400D+02 0.2006300D+02
EXPONENTS  0.9112700D+01 0.4106300D+01 0.1794900D+01 0.2461500D+00 0.8004300D+04
EXPONENTS  0.1896900D+04 0.6147100D+03 0.2335000D+03 0.9785600D+02 0.4351400D+02
EXPONENTS  0.2006300D+02 0.9112700D+01 0.4106300D+01 0.1794900D+01 0.2461500D+00
EXPONENTS  0.8004300D+04 0.1896900D+04 0.6147100D+03 0.2335000D+03 0.9785600D+02
EXPONENTS  0.4351400D+02 0.2006300D+02 0.9112700D+01 0.4106300D+01 0.1794900D+01
EXPONENTS  0.2461500D+00 0.8004300D+04 0.1896900D+04 0.6147100D+03 0.2335000D+03
EXPONENTS  0.9785600D+02 0.4351400D+02 0.2006300D+02 0.9112700D+01 0.4106300D+01
EXPONENTS  0.1794900D+01 0.2461500D+00 0.8004300D+04 0.1896900D+04 0.6147100D+03
EXPONENTS  0.2335000D+03 0.9785600D+02 0.4351400D+02 0.2006300D+02 0.9112700D+01
EXPONENTS  0.4106300D+01 0.1794900D+01 0.2461500D+00 0.8004300D+04 0.1896900D+04
EXPONENTS  0.6147100D+03 0.2335000D+03 0.9785600D+02 0.4351400D+02 0.2006300D+02
EXPONENTS  0.9112700D+01 0.4106300D+01 0.1794900D+01 0.2461500D+00 0.6243200D+00
EXPONENTS  0.6243200D+00 0.6243200D+00 0.8891700D-01 0.8891700D-01 0.8891700D-01
EXPONENTS  0.3025100D-01 0.3025100D-01 0.3025100D-01 0.3618500D+03 0.1085500D+03
EXPONENTS  0.4143300D+02 0.1757900D+02 0.7862700D+01 0.3518000D+01 0.1534800D+01
EXPONENTS  0.3618500D+03 0.1085500D+03 0.4143300D+02 0.1757900D+02 0.7862700D+01
EXPONENTS  0.3518000D+01 0.1534800D+01 0.3618500D+03 0.1085500D+03 0.4143300D+02
EXPONENTS  0.1757900D+02 0.7862700D+01 0.3518000D+01 0.1534800D+01 0.3618500D+03
EXPONENTS  0.1085500D+03 0.4143300D+02 0.1757900D+02 0.7862700D+01 0.3518000D+01
EXPONENTS  0.1534800D+01 0.3618500D+03 0.1085500D+03 0.4143300D+02 0.1757900D+02
EXPONENTS  0.7862700D+01 0.3518000D+01 0.1534800D+01 0.3618500D+03 0.1085500D+03
EXPONENTS  0.4143300D+02 0.1757900D+02 0.7862700D+01 0.3518000D+01 0.1534800D+01
EXPONENTS  0.6081300D+00 0.6081300D+00 0.6081300D+00 0.6081300D+00 0.6081300D+00
EXPONENTS  0.6081300D+00 0.2220000D+00 0.2220000D+00 0.2220000D+00 0.2220000D+00
EXPONENTS  0.2220000D+00 0.2220000D+00 0.8370000D-01 0.8370000D-01 0.8370000D-01
EXPONENTS  0.8370000D-01 0.8370000D-01 0.8370000D-01 0.4620000D+00 0.4620000D+00
EXPONENTS  0.4620000D+00 0.4620000D+00 0.4620000D+00 0.4620000D+00 0.4620000D+00
EXPONENTS  0.4620000D+00 0.4620000D+00 0.4620000D+00 0.1880000D+00 0.1880000D+00
EXPONENTS  0.1880000D+00 0.1880000D+00 0.1880000D+00 0.1880000D+00 0.1880000D+00
EXPONENTS  0.1880000D+00 0.1880000D+00 0.1880000D+00 0.3387000D+02 0.5095000D+01
EXPONENTS  0.1159000D+01 0.3258000D+00 0.1027000D+00 0.2526000D-01 0.1407000D+01
EXPONENTS  0.1407000D+01 0.1407000D+01 0.3880000D+00 0.3880000D+00 0.3880000D+00
EXPONENTS  0.1020000D+00 0.1020000D+00 0.1020000D+00 0.1057000D+01 0.1057000D+01
EXPONENTS  0.1057000D+01 0.1057000D+01 0.1057000D+01 0.1057000D+01 0.2470000D+00
EXPONENTS  0.2470000D+00 0.2470000D+00 0.2470000D+00 0.2470000D+00 0.2470000D+00
EXPONENTS  0.8236000D+04 0.1235000D+04 0.2808000D+03 0.7927000D+02 0.2559000D+02
EXPONENTS  0.8997000D+01 0.3319000D+01 0.3643000D+00 0.8236000D+04 0.1235000D+04
EXPONENTS  0.2808000D+03 0.7927000D+02 0.2559000D+02 0.8997000D+01 0.3319000D+01
EXPONENTS  0.3643000D+00 0.9059000D+00 0.1285000D+00 0.4402000D-01 0.1871000D+02
EXPONENTS  0.4133000D+01 0.1200000D+01 0.1871000D+02 0.4133000D+01 0.1200000D+01
EXPONENTS  0.1871000D+02 0.4133000D+01 0.1200000D+01 0.3827000D+00 0.3827000D+00
EXPONENTS  0.3827000D+00 0.1209000D+00 0.1209000D+00 0.1209000D+00 0.3569000D-01
EXPONENTS  0.3569000D-01 0.3569000D-01 0.1097000D+01 0.1097000D+01 0.1097000D+01
EXPONENTS  0.1097000D+01 0.1097000D+01 0.1097000D+01 0.3180000D+00 0.3180000D+00
EXPONENTS  0.3180000D+00 0.3180000D+00 0.3180000D+00 0.3180000D+00 0.1000000D+00
EXPONENTS  0.1000000D+00 0.1000000D+00 0.1000000D+00 0.1000000D+00 0.1000000D+00
EXPONENTS  0.7610000D+00 0.7610000D+00 0.7610000D+00 0.7610000D+00 0.7610000D+00
EXPONENTS  0.7610000D+00 0.7610000D+00 0.7610000D+00 0.7610000D+00 0.7610000D+00
EXPONENTS  0.2680000D+00 0.2680000D+00 0.2680000D+00 0.2680000D+00 0.2680000D+00
EXPONENTS  0.2680000D+00 0.2680000D+00 0.2680000D+00 0.2680000D+00 0.2680000D+00
EXPONENTS  0.3387000D+02 0.5095000D+01 0.1159000D+01 0.3258000D+00 0.1027000D+00
EXPONENTS  0.2526000D-01 0.1407000D+01 0.1407000D+01 0.1407000D+01 0.3880000D+00
EXPONENTS  0.3880000D+00 0.3880000D+00 0.1020000D+00 0.1020000D+00 0.1020000D+00
EXPONENTS  0.1057000D+01 0.1057000D+01 0.1057000D+01 0.1057000D+01 0.1057000D+01
EXPONENTS  0.1057000D+01 0.2470000D+00 0.2470000D+00 0.2470000D+00 0.2470000D+00
EXPONENTS  0.2470000D+00 0.2470000D+00 0.3387000D+02 0.5095000D+01 0.1159000D+01
EXPONENTS  0.3258000D+00 0.1027000D+00 0.2526000D-01 0.1407000D+01 0.1407000D+01
EXPONENTS  0.1407000D+01 0.3880000D+00 0.3880000D+00 0.3880000D+00 0.1020000D+00
EXPONENTS  0.1020000D+00 0.1020000D+00 0.1057000D+01 0.1057000D+01 0.1057000D+01
EXPONENTS  0.1057000D+01 0.1057000D+01 0.1057000D+01 0.2470000D+00 0.2470000D+00
EXPONENTS  0.2470000D+00 0.2470000D+00 0.2470000D+00 0.2470000D+00 0.3387000D+02
EXPONENTS  0.5095000D+01 0.1159000D+01 0.3258000D+00 0.1027000D+00 0.2526000D-01
EXPONENTS  0.1407000D+01 0.1407000D+01 0.1407000D+01 0.3880000D+00 0.3880000D+00
EXPONENTS  0.3880000D+00 0.1020000D+00 0.1020000D+00 0.1020000D+00 0.1057000D+01
EXPONENTS  0.1057000D+01 0.1057000D+01 0.1057000D+01 0.1057000D+01 0.1057000D+01
EXPONENTS  0.2470000D+00 0.2470000D+00 0.2470000D+00 0.2470000D+00 0.2470000D+00
EXPONENTS  0.2470000D+00
MO    1     MO 0.0        OCC NO =    2.0000000  ORB. ENERGY = -454.273376
 -0.30429455D-05 -0.56727423D-05 -0.95879339D-05 -0.14413805D-04 -0.17709025D-04
 -0.14958103D-04 -0.56416460D-05  0.27920821D-07  0.24865730D-05  0.46556492D-05
  0.79266410D-05  0.12261308D-04  0.16147712D-04  0.16778507D-04  0.10661988D-04
 -0.71454164D-05 -0.16070556D-04  0.66739110D-04  0.21946345D-04 -0.12363549D-06
 -0.11591613D-06 -0.82539189D-07 -0.23239049D-10 -0.21788086D-10 -0.15514415D-10
 -0.13160025D-04 -0.12338359D-04 -0.87856470D-05  0.23027762D-06  0.25988235D-10
  0.29134918D-05  0.25837476D-04  0.18410555D-09  0.29131300D-04 -0.91422156D-06
 -0.15145442D-11  0.16895558D-05  0.39738472D-05  0.64940544D-05 -0.10467902D-04
 -0.62788304D-10 -0.44476903D-05 -0.26609178D-10 -0.83703435D-05 -0.12640620D-04
  0.21010963D-04  0.10886888D-09  0.70278037D-05  0.39643979D-10 -0.21039948D-05
 -0.24965254D-05  0.46005202D-05 -0.44161922D-10 -0.12069900D-04 -0.10604648D-11
  0.12312884D-05  0.14932845D-10  0.28031497D-05 -0.86157463D-06 -0.64327887D-10
 -0.75794464D-05 -0.28322905D-05  0.19529353D-10 -0.83000267D-06 -0.82556227D-11
  0.35810213D-06 -0.17657956D-10  0.42172475D-05 -0.20379384D-05  0.28344475D-10
 -0.79746643D-05  0.96363203D-06  0.24629393D-10 -0.46770781D-05 -0.57979963D-10
  0.77215765D+00  0.14427406D+01  0.25022528D+01  0.40993294D+01  0.64192242D+01
  0.96399630D+01  0.13749347D+02  0.18165673D+02  0.20949487D+02  0.18855210D+02
  0.10578242D+02  0.25573465D+01  0.12141013D+00 -0.20776923D-02  0.58436532D-03
 -0.22772623D-03  0.21540302D-04  0.21239191D-05  0.78529737D-04  0.14461373D-03
  0.25101311D-03  0.41111245D-03  0.64707208D-03  0.97666962D-03  0.14236998D-02
  0.19550389D-02  0.24828746D-02  0.26738984D-02  0.21331859D-02  0.47781663D-03
 -0.12776709D-02 -0.11362001D-02 -0.22190448D-03 -0.61472106D-05 -0.44516009D-06
 -0.90913869D-08 -0.60433131D-04 -0.10910642D-03 -0.18993351D-03 -0.31102413D-03
 -0.49034726D-03 -0.73992052D-03 -0.10829287D-02 -0.14921335D-02 -0.19222678D-02
 -0.21158123D-02 -0.17811709D-02 -0.42416053D-03  0.14287357D-02  0.19090905D-02
  0.23453566D-03 -0.81949947D-03 -0.36175571D-03  0.17953285D-05  0.21222278D-04
  0.45977830D-04  0.78271232D-04  0.12776630D-03  0.20142906D-03  0.30396777D-03
  0.44488263D-03  0.61368770D-03  0.79159298D-03  0.87511871D-03  0.74116066D-03
  0.18003285D-03 -0.62460792D-03 -0.88156244D-03 -0.10518254D-03  0.49433375D-03
  0.39514831D-03 -0.14970087D-03  0.12240800D-03 -0.98441150D-05 -0.62056677D-05
  0.43243418D-04  0.61977846D-04  0.81844124D-04  0.94075695D-04  0.86543758D-04
  0.55364413D-04  0.19163771D-04  0.21544661D-05  0.27410060D-07  0.47496897D-08
  0.48536660D-10 -0.39804998D-10 -0.57049794D-10 -0.75336442D-10 -0.86595442D-10
 -0.79662393D-10 -0.50962216D-10 -0.17639999D-10 -0.19831577D-11 -0.25230600D-13
 -0.43720270D-14 -0.44677358D-16  0.38931227D-03  0.55797477D-03  0.73682710D-03
  0.84694560D-03  0.77913701D-03  0.49843529D-03  0.17252779D-03  0.19396249D-04
  0.24676756D-06  0.42760554D-07  0.43696633D-09 -0.24654362D-03 -0.35561974D-03
 -0.47363948D-03 -0.56053491D-03 -0.53865299D-03 -0.37024525D-03 -0.11656978D-03
  0.56337120D-04  0.57815523D-04  0.14560094D-04 -0.15874610D-07 -0.18572354D-08
 -0.26789157D-08 -0.35679691D-08 -0.42225602D-08 -0.40577218D-08 -0.27890910D-08
 -0.87813067D-09  0.42439263D-09  0.43552957D-09  0.10968251D-09 -0.11958487D-12
 -0.25014445D-02 -0.36081366D-02 -0.48055711D-02 -0.56872166D-02 -0.54652016D-02
 -0.37565278D-02 -0.11827231D-02  0.57159938D-03  0.58659933D-03  0.14772748D-03
 -0.16106462D-06  0.18220360D-03  0.26413819D-03  0.35057738D-03  0.41838056D-03
  0.40196440D-03  0.28135365D-03  0.84952236D-04 -0.52003442D-04 -0.55928773D-04
 -0.15041076D-04  0.56068227D-05  0.14209133D-08  0.20598796D-08  0.27339750D-08
  0.32627376D-08  0.31347163D-08  0.21941343D-08  0.66249935D-09 -0.40554844D-09
 -0.43616010D-09 -0.11729772D-09  0.43724763D-10  0.18727574D-02  0.27149121D-02
  0.36033668D-02  0.43002736D-02  0.41315420D-02  0.28918592D-02  0.87317119D-03
 -0.53451103D-03 -0.57485707D-03 -0.15459787D-03  0.57629043D-04 -0.19311975D-05
  0.64771173D-11 -0.13719960D-04  0.56664582D-05  0.13847025D-10 -0.43721405D-05
  0.53128204D-07  0.14180204D-11  0.54185247D-07 -0.15306988D-03 -0.15844195D-03
 -0.13256319D-03 -0.85540902D-04 -0.38426143D-04 -0.11219812D-04 -0.18928510D-05
 -0.16538045D-03 -0.17118456D-03 -0.14322452D-03 -0.92420485D-04 -0.41516545D-04
 -0.12122159D-04 -0.20450826D-05  0.31845033D-03  0.32962652D-03  0.27578771D-03
  0.17796139D-03  0.79942688D-04  0.23341971D-04  0.39379336D-05  0.12917733D-09
  0.13371088D-09  0.11187151D-09  0.72188894D-10  0.32428238D-10  0.94685207D-11
  0.15973975D-11  0.64176280D-04  0.66428582D-04  0.55578619D-04  0.35863991D-04
  0.16110595D-04  0.47040331D-05  0.79359921D-06  0.12385318D-08  0.12819988D-08
  0.10726064D-08  0.69213572D-09  0.31091683D-09  0.90782681D-10  0.15315595D-10
  0.83813023D-05  0.10776388D-04 -0.19157691D-04 -0.12964932D-10 -0.38406893D-05
 -0.73465153D-10  0.31973424D-05  0.17928949D-05 -0.49902373D-05  0.13530845D-10
 -0.54897700D-06 -0.11316290D-10 -0.51629382D-06 -0.87904150D-06  0.13953353D-05
 -0.14775700D-11 -0.73132289D-06 -0.18892064D-12 -0.13187966D-06 -0.68256141D-11
  0.56634197D-05 -0.11947184D-05 -0.18251766D-10 -0.74319190D-05  0.15903574D-05
  0.38728608D-10 -0.95583401D-05 -0.10634568D-10  0.10008515D-07  0.98514842D-12
 -0.66540247D-06  0.62995069D-06  0.14508079D-11  0.21101951D-06 -0.65997623D-06
 -0.44062532D-11  0.17851879D-05 -0.60559767D-11  0.73160418D-06  0.13194783D-05
  0.19455699D-05 -0.26661840D-04 -0.70562379D-04  0.67050649D-06  0.42720517D-05
  0.31783017D-10  0.14934734D-05  0.43334893D-05 -0.38602662D-10 -0.26127118D-05
  0.97365357D-05  0.10278457D-09  0.23990281D-05 -0.20238554D-05  0.36554851D-06
  0.16583069D-05  0.24716691D-10  0.34165778D-05  0.31110746D-10  0.60972057D-06
 -0.44493271D-06 -0.16478786D-06  0.82278898D-11 -0.22467894D-05 -0.18157000D-10
  0.14285865D-05  0.26632100D-05  0.45012940D-05  0.67669193D-05  0.83139422D-05
  0.70224533D-05  0.26486110D-05 -0.13108124D-07 -0.10326173D-05 -0.19333854D-05
 -0.32917541D-05 -0.50918431D-05 -0.67057782D-05 -0.69677331D-05 -0.44276816D-05
  0.29673292D-05  0.11612369D-05  0.36837903D-04 -0.89585880D-05 -0.14947822D-05
 -0.14014533D-05 -0.99791823D-06  0.14843382D-10  0.13916614D-10  0.99094585D-11
  0.30506819D-05  0.28602082D-05  0.20366386D-05 -0.35468351D-05 -0.20324361D-10
 -0.11562660D-04  0.96978951D-05 -0.18133496D-09  0.66631098D-07  0.30413382D-06
  0.30689955D-11 -0.10780129D-05  0.93972682D-06  0.60110158D-06 -0.15408284D-05
  0.20332556D-10 -0.50599963D-05 -0.36104336D-10 -0.98198122D-05  0.65761864D-05
  0.32436258D-05  0.60301301D-10  0.60879237D-05  0.11607167D-09  0.21130004D-05
  0.26887440D-05 -0.48017444D-05 -0.44160840D-10  0.70080410D-06 -0.31447888D-10
 -0.11197618D-06 -0.82758823D-11  0.57997096D-06  0.94657154D-06  0.11259446D-10
  0.12835013D-05 -0.61064299D-06  0.13568200D-10 -0.30234142D-05  0.64756317D-10
 -0.18485149D-06  0.18901052D-10  0.27275099D-05 -0.37745105D-05  0.18235610D-10
 -0.66469316D-05  0.43290649D-05 -0.74938766D-10 -0.15355982D-05  0.29440122D-10
  0.20212316D-06  0.36453744D-06  0.53751024D-06  0.33850475D-04 -0.86867855D-05
  0.11613723D-05  0.36455890D-05 -0.21818011D-10 -0.39096609D-05  0.18123209D-05
  0.31312159D-10 -0.13423840D-05 -0.17191944D-05 -0.54822325D-11  0.47067315D-05
 -0.16463898D-05 -0.53741464D-07  0.17001313D-05  0.29211027D-10  0.27313312D-05
 -0.62147357D-11 -0.12148884D-05  0.16792647D-05 -0.46437634D-06  0.17904053D-10
 -0.19520275D-05  0.29394821D-10  0.13965558D-06  0.25187458D-06  0.37138892D-06
 -0.11073572D-04  0.92800028D-05 -0.49900217D-06 -0.13169836D-05  0.28262665D-05
  0.72591666D-06  0.38983556D-05  0.16956771D-05 -0.79198746D-05  0.11187588D-06
 -0.41563860D-05 -0.26680727D-05  0.29172568D-05 -0.37279179D-06 -0.25444650D-05
 -0.20668956D-05  0.16660829D-05  0.19261364D-05 -0.14572264D-05  0.64030885D-06
  0.81691754D-06  0.12652316D-05  0.26622070D-05  0.27508325D-05  0.13965103D-06
  0.25186638D-06  0.37137682D-06 -0.11073917D-04  0.92799558D-05 -0.49899217D-06
 -0.13170046D-05 -0.28262548D-05  0.72586188D-06  0.38983503D-05 -0.16958800D-05
 -0.79197579D-05  0.11180436D-06  0.41563583D-05 -0.26680833D-05  0.29172544D-05
 -0.37284232D-06 -0.25444120D-05  0.20668822D-05  0.16660687D-05 -0.19261339D-05
 -0.14572320D-05  0.64029859D-06  0.81693345D-06 -0.12652353D-05  0.26621991D-05
 -0.27508289D-05
MO    2     MO 0.0        OCC NO =    2.0000000  ORB. ENERGY =  -58.217933
  0.11693952D-03  0.21800185D-03  0.36846153D-03  0.55391837D-03  0.68055271D-03
  0.57483556D-03  0.21680682D-03 -0.10729891D-05 -0.93535115D-04 -0.17512725D-03
 -0.29816912D-03 -0.46122230D-03 -0.60741354D-03 -0.63114158D-03 -0.40106214D-03
  0.26878252D-03  0.52081167D-03 -0.21505322D-02 -0.71604926D-03 -0.83442347D-05
 -0.78232504D-05 -0.55706204D-05  0.56614344D-09  0.53079546D-09  0.37795799D-09
  0.36078329D-03  0.33825727D-03  0.24085933D-03  0.54353092D-04 -0.52185855D-09
  0.36067145D-04 -0.92506768D-03 -0.61463313D-08 -0.97032756D-03  0.30065528D-04
  0.50597742D-10 -0.51874609D-04 -0.13474263D-03 -0.24208762D-03  0.37683026D-03
  0.24118648D-08  0.14028992D-03  0.86752829D-09  0.22379868D-03  0.41835633D-03
 -0.64215501D-03 -0.36919607D-08 -0.23345957D-03 -0.11704389D-08  0.76619359D-04
  0.81208808D-04 -0.15782817D-03  0.14220926D-08  0.39900210D-03  0.20596925D-09
 -0.37834474D-04 -0.50789928D-09 -0.70604871D-04  0.12127259D-04  0.19782903D-08
  0.21342088D-03  0.10137616D-03 -0.45459248D-09 -0.16062690D-05  0.18351972D-09
 -0.86651824D-05  0.56139683D-09 -0.16178539D-03  0.78197562D-04 -0.75414607D-09
  0.31995487D-03 -0.52202015D-04 -0.93004442D-09  0.16540131D-03  0.19082412D-08
  0.69982281D-03  0.13075863D-02  0.22678446D-02  0.37153089D-02  0.58178786D-02
  0.87369022D-02  0.12461324D-01  0.16463934D-01  0.18986963D-01  0.17088875D-01
  0.95872840D-02  0.23177772D-02  0.11003657D-03 -0.18830565D-05  0.52962264D-06
 -0.20639310D-06  0.19522431D-07  0.19249528D-08 -0.24635230D+00 -0.45366160D+00
 -0.78744256D+00 -0.12896834D+01 -0.20299024D+01 -0.30638688D+01 -0.44662283D+01
 -0.61330697D+01 -0.77889204D+01 -0.83881732D+01 -0.66919269D+01 -0.14989383D+01
  0.40081272D+01  0.35643250D+01  0.69612712D+00  0.19284153D-01  0.13964928D-02
  0.28520204D-04  0.17978636D-02  0.32458762D-02  0.56504525D-02  0.92528544D-02
  0.14587652D-01  0.22012365D-01  0.32216735D-01  0.44390427D-01  0.57186764D-01
  0.62944644D-01  0.52989183D-01  0.12618621D-01 -0.42504366D-01 -0.56794744D-01
 -0.69773504D-02  0.24379810D-01  0.10762100D-01 -0.53410368D-04 -0.65738265D-03
 -0.14242122D-02 -0.24245347D-02 -0.39576972D-02 -0.62394795D-02 -0.94157251D-02
 -0.13780713D-01 -0.19009629D-01 -0.24520435D-01 -0.27107733D-01 -0.22958240D-01
 -0.55767090D-02  0.19347895D-01  0.27307334D-01  0.32581411D-02 -0.15312514D-01
 -0.12240139D-01  0.46371437D-02 -0.37905982D-02  0.37451279D-03  0.18633529D-03
 -0.34621611D-02 -0.49620798D-02 -0.65526168D-02 -0.75319026D-02 -0.69288796D-02
 -0.44325941D-02 -0.15342927D-02 -0.17249119D-03 -0.21945084D-05 -0.38027038D-06
 -0.38859495D-08 -0.90597062D-07 -0.12984660D-06 -0.17146742D-06 -0.19709315D-06
 -0.18131338D-06 -0.11599114D-06 -0.40149031D-07 -0.45137111D-08 -0.57425408D-10
 -0.99508308D-11 -0.10168666D-12 -0.39418388D-01 -0.56495691D-01 -0.74604728D-01
 -0.85754374D-01 -0.78888663D-01 -0.50467239D-01 -0.17468669D-01 -0.19638961D-02
 -0.24985545D-04 -0.43295632D-05 -0.44243425D-07  0.68331545D-02  0.98562869D-02
  0.13127299D-01  0.15535675D-01  0.14929201D-01  0.10261645D-01  0.32308250D-02
 -0.15614286D-02 -0.16024037D-02 -0.40354471D-03  0.43997756D-06  0.58750535D-07
  0.84743018D-07  0.11286674D-06  0.13357363D-06  0.12835924D-06  0.88228229D-07
  0.27778195D-07 -0.13424951D-07 -0.13777249D-07 -0.34696227D-08  0.37828674D-11
  0.77586511D-01  0.11191243D+00  0.14905288D+00  0.17639860D+00  0.16951243D+00
  0.11651503D+00  0.36684147D-01 -0.17729117D-01 -0.18194366D-01 -0.45820165D-02
  0.49956904D-05 -0.51077186D-02 -0.74045932D-02 -0.98277455D-02 -0.11728474D-01
 -0.11268279D-01 -0.78871948D-02 -0.23814684D-02  0.14578139D-02  0.15678529D-02
  0.42164692D-03 -0.15717622D-03 -0.46112597D-07 -0.66848833D-07 -0.88725106D-07
 -0.10588493D-06 -0.10173028D-06 -0.71205771D-07 -0.21499950D-07  0.13161177D-07
  0.14154611D-07  0.38066378D-08 -0.14189904D-08 -0.58922969D-01 -0.85419862D-01
 -0.11337350D+00 -0.13530043D+00 -0.12999159D+00 -0.90987186D-01 -0.27472772D-01
  0.16817435D-01  0.18086851D-01  0.48641459D-02 -0.18131949D-02  0.41137981D-04
 -0.32916032D-09  0.29551754D-03 -0.18584166D-03 -0.60205757D-09  0.14153437D-03
 -0.18668502D-05 -0.45440794D-10 -0.11116279D-05  0.10410619D-02  0.10775985D-02
  0.90159138D-03  0.58178246D-03  0.26134463D-03  0.76308403D-04  0.12873695D-04
  0.78257283D-02  0.81003766D-02  0.67773197D-02  0.43732958D-02  0.19645442D-02
  0.57361512D-03  0.96772387D-04 -0.88667902D-02 -0.91779751D-02 -0.76789111D-02
 -0.49550782D-02 -0.22258889D-02 -0.64992353D-03 -0.10964608D-03 -0.13873285D-07
 -0.14360176D-07 -0.12014689D-07 -0.77528861D-08 -0.34827024D-08 -0.10168927D-08
 -0.17155604D-09 -0.14346458D-02 -0.14849955D-02 -0.12424471D-02 -0.80173119D-03
 -0.36014861D-03 -0.10515756D-03 -0.17740726D-04 -0.21335309D-07 -0.22084083D-07
 -0.18477029D-07 -0.11922931D-07 -0.53559434D-08 -0.15638488D-08 -0.26383087D-09
 -0.26508852D-03 -0.36369093D-03  0.62877944D-03  0.47483650D-09  0.11974000D-03
  0.23068344D-08 -0.97289590D-04 -0.41112301D-04  0.13840189D-03 -0.48254501D-09
  0.94281677D-06  0.34151711D-09  0.16747139D-04  0.28546099D-04 -0.45293238D-04
  0.52840458D-10  0.24280248D-04  0.36108716D-10  0.24046940D-05  0.20219033D-09
 -0.17021943D-03  0.33495430D-04  0.55562350D-09  0.23066387D-03 -0.40709512D-04
 -0.11621945D-08  0.27999441D-03  0.40503885D-09 -0.87750754D-06 -0.37895373D-10
  0.23265729D-04 -0.20676047D-04 -0.40349775D-10 -0.84780714D-05  0.23308569D-04
  0.15403589D-09 -0.61319114D-04  0.20823611D-09 -0.16881043D-04 -0.30445657D-04
 -0.44892103D-04  0.98598088D-03  0.23394939D-02 -0.19431422D-04 -0.14346113D-03
 -0.87818826D-09 -0.41536935D-04 -0.13543029D-03  0.65011855D-09  0.87386786D-04
 -0.32744951D-03 -0.32977844D-08 -0.83459850D-04  0.56027392D-04  0.16277866D-04
 -0.72305258D-04 -0.85812162D-09 -0.10953972D-03 -0.13107297D-08 -0.22087316D-04
  0.22128933D-04 -0.41616663D-07 -0.35118162D-09  0.68790978D-04  0.47746607D-09
 -0.25144255D-04 -0.46874609D-04 -0.79226347D-04 -0.11910315D-03 -0.14633198D-03
 -0.12360075D-03 -0.46617656D-04  0.23071338D-06  0.18694086D-04  0.35001228D-04
  0.59592586D-04  0.92180669D-04  0.12139870D-03  0.12614102D-03  0.80156958D-04
 -0.53719329D-04 -0.19595472D-04 -0.14001504D-02  0.30306324D-03  0.31010735D-04
  0.29074535D-04  0.20702801D-04 -0.52043588D-09 -0.48794171D-09 -0.34744357D-09
 -0.10010402D-03 -0.93853881D-04 -0.66829554D-04  0.21459722D-03  0.88699873D-09
  0.40585614D-03 -0.37189856D-03  0.64629341D-08 -0.17064310D-04 -0.94116336D-05
 -0.91807321D-10  0.34931676D-04 -0.24421522D-04 -0.36676317D-04  0.61097839D-04
 -0.82800454D-09  0.17512275D-03  0.11959594D-08  0.30947191D-03 -0.19845831D-03
 -0.11101360D-03 -0.19155330D-08 -0.89576387D-04 -0.45783818D-08 -0.64332876D-04
 -0.88245247D-04  0.15257812D-03  0.15692755D-08 -0.28004589D-04  0.94143619D-09
  0.27407035D-05  0.34247420D-09 -0.18854828D-04 -0.49811786D-04 -0.68074478D-09
 -0.58846397D-04  0.41589676D-04 -0.34667782D-09  0.11541088D-03 -0.21493699D-08
 -0.43944342D-05 -0.65289852D-09 -0.98644799D-04  0.13081292D-03 -0.46254247D-09
  0.23435880D-03 -0.11762962D-03  0.24212380D-08  0.61575601D-04 -0.13242266D-08
 -0.67560460D-05 -0.12184807D-04 -0.17966491D-04 -0.99119828D-03  0.19635540D-03
 -0.37837574D-04 -0.10732837D-03  0.82858874D-09  0.11099907D-03  0.36862139D-04
 -0.14026794D-08  0.54843856D-04  0.51771808D-04  0.30338406D-09 -0.14195639D-03
  0.81542106D-04 -0.11483970D-04 -0.70058136D-04 -0.10226337D-08 -0.90239554D-04
  0.24625419D-09  0.42864582D-04 -0.54332994D-04  0.11468412D-04 -0.59030671D-09
  0.54678342D-04 -0.94466783D-09 -0.47594559D-05 -0.85838747D-05 -0.12656918D-04
  0.38971643D-03 -0.26332892D-03  0.16580186D-04  0.42975496D-04 -0.99000024D-04
 -0.25084565D-04 -0.12456975D-03 -0.58623769D-04  0.26841093D-03 -0.15532033D-05
  0.12946958D-03  0.90442069D-04 -0.85263924D-04  0.12622410D-04  0.72641514D-04
  0.54259592D-04 -0.56495990D-04 -0.76779777D-04  0.49433623D-04 -0.21712925D-04