 Molden2AIM, Version 4.0.0 (06/02/2016)           Time: Fri Jun 29 19:49:36 2018
GAUSSIAN             16 MOL ORBITALS    408 PRIMITIVES        8 NUCLEI
  C    1    (CENTRE  1)  -2.00447596  2.48397696  0.55972932  CHARGE =  6.0
  O    2    (CENTRE  2)  -0.62951690  4.25282108  0.99515056  CHARGE =  8.0
  O    3    (CENTRE  3)  -1.10355659  0.15880313  0.00277601  CHARGE =  8.0
  H    4    (CENTRE  4)   0.72105524  0.28760687  0.04624727  CHARGE =  1.0
  C    5    (CENTRE  5)  -4.83323913  2.53550412  0.55940618  CHARGE =  6.0
  H    6    (CENTRE  6)  -5.48666485  4.44780870  0.98265758  CHARGE =  1.0
  H    7    (CENTRE  7)  -5.54401236  1.92020174 -1.28951887  CHARGE =  1.0
  H    8    (CENTRE  8)  -5.55235928  1.19965106  1.97442365  CHARGE =  1.0
CENTRE ASSIGNMENTS    1  1  1  1  1  1  1  1  1  1  1  1  1  1  1  1  1  1  1  1
CENTRE ASSIGNMENTS    1  1  1  1  1  1  1  1  1  1  1  1  1  1  1  1  1  1  1  1
CENTRE ASSIGNMENTS    1  1  1  1  1  1  1  1  1  1  1  1  1  1  1  1  1  1  1  1
CENTRE ASSIGNMENTS    1  1  1  1  1  1  1  1  1  1  1  1  1  1  1  2  2  2  2  2
CENTRE ASSIGNMENTS    2  2  2  2  2  2  2  2  2  2  2  2  2  2  2  2  2  2  2  2
CENTRE ASSIGNMENTS    2  2  2  2  2  2  2  2  2  2  2  2  2  2  2  2  2  2  2  2
CENTRE ASSIGNMENTS    2  2  2  2  2  2  2  2  2  2  2  2  2  2  2  2  2  2  2  2
CENTRE ASSIGNMENTS    2  2  2  2  2  2  2  2  2  2  3  3  3  3  3  3  3  3  3  3
CENTRE ASSIGNMENTS    3  3  3  3  3  3  3  3  3  3  3  3  3  3  3  3  3  3  3  3
CENTRE ASSIGNMENTS    3  3  3  3  3  3  3  3  3  3  3  3  3  3  3  3  3  3  3  3
CENTRE ASSIGNMENTS    3  3  3  3  3  3  3  3  3  3  3  3  3  3  3  3  3  3  3  3
CENTRE ASSIGNMENTS    3  3  3  3  3  4  4  4  4  4  4  4  4  4  4  4  4  4  4  4
CENTRE ASSIGNMENTS    4  4  4  4  4  4  4  4  4  4  4  4  5  5  5  5  5  5  5  5
CENTRE ASSIGNMENTS    5  5  5  5  5  5  5  5  5  5  5  5  5  5  5  5  5  5  5  5
CENTRE ASSIGNMENTS    5  5  5  5  5  5  5  5  5  5  5  5  5  5  5  5  5  5  5  5
CENTRE ASSIGNMENTS    5  5  5  5  5  5  5  5  5  5  5  5  5  5  5  5  5  5  5  5
CENTRE ASSIGNMENTS    5  5  5  5  5  5  5  6  6  6  6  6  6  6  6  6  6  6  6  6
CENTRE ASSIGNMENTS    6  6  6  6  6  6  6  6  6  6  6  6  6  6  7  7  7  7  7  7
CENTRE ASSIGNMENTS    7  7  7  7  7  7  7  7  7  7  7  7  7  7  7  7  7  7  7  7
CENTRE ASSIGNMENTS    7  8  8  8  8  8  8  8  8  8  8  8  8  8  8  8  8  8  8  8
CENTRE ASSIGNMENTS    8  8  8  8  8  8  8  8
TYPE ASSIGNMENTS      1  1  1  1  1  1  1  1  1  1  1  1  1  1  1  1  1  1  1  2
TYPE ASSIGNMENTS      2  2  3  3  3  4  4  4  2  3  4  2  3  4  2  3  4  5  6  7
TYPE ASSIGNMENTS      8  9 10  5  6  7  8  9 10  5  6  7  8  9 10 11 12 13 17 14
TYPE ASSIGNMENTS     15 18 19 16 20 11 12 13 17 14 15 18 19 16 20  1  1  1  1  1
TYPE ASSIGNMENTS      1  1  1  1  1  1  1  1  1  1  1  1  1  1  2  2  2  3  3  3
TYPE ASSIGNMENTS      4  4  4  2  3  4  2  3  4  2  3  4  5  6  7  8  9 10  5  6
TYPE ASSIGNMENTS      7  8  9 10  5  6  7  8  9 10 11 12 13 17 14 15 18 19 16 20
TYPE ASSIGNMENTS     11 12 13 17 14 15 18 19 16 20  1  1  1  1  1  1  1  1  1  1
TYPE ASSIGNMENTS      1  1  1  1  1  1  1  1  1  2  2  2  3  3  3  4  4  4  2  3
TYPE ASSIGNMENTS      4  2  3  4  2  3  4  5  6  7  8  9 10  5  6  7  8  9 10  5
TYPE ASSIGNMENTS      6  7  8  9 10 11 12 13 17 14 15 18 19 16 20 11 12 13 17 14
TYPE ASSIGNMENTS     15 18 19 16 20  1  1  1  1  1  1  2  3  4  2  3  4  2  3  4
TYPE ASSIGNMENTS      5  6  7  8  9 10  5  6  7  8  9 10  1  1  1  1  1  1  1  1
TYPE ASSIGNMENTS      1  1  1  1  1  1  1  1  1  1  1  2  2  2  3  3  3  4  4  4
TYPE ASSIGNMENTS      2  3  4  2  3  4  2  3  4  5  6  7  8  9 10  5  6  7  8  9
TYPE ASSIGNMENTS     10  5  6  7  8  9 10 11 12 13 17 14 15 18 19 16 20 11 12 13
TYPE ASSIGNMENTS     17 14 15 18 19 16 20  1  1  1  1  1  1  2  3  4  2  3  4  2
TYPE ASSIGNMENTS      3  4  5  6  7  8  9 10  5  6  7  8  9 10  1  1  1  1  1  1
TYPE ASSIGNMENTS      2  3  4  2  3  4  2  3  4  5  6  7  8  9 10  5  6  7  8  9
TYPE ASSIGNMENTS     10  1  1  1  1  1  1  2  3  4  2  3  4  2  3  4  5  6  7  8
TYPE ASSIGNMENTS      9 10  5  6  7  8  9 10
EXPONENTS  0.8236000D+04 0.1235000D+04 0.2808000D+03 0.7927000D+02 0.2559000D+02
EXPONENTS  0.8997000D+01 0.3319000D+01 0.3643000D+00 0.8236000D+04 0.1235000D+04
EXPONENTS  0.2808000D+03 0.7927000D+02 0.2559000D+02 0.8997000D+01 0.3319000D+01
EXPONENTS  0.3643000D+00 0.9059000D+00 0.1285000D+00 0.4402000D-01 0.1871000D+02
EXPONENTS  0.4133000D+01 0.1200000D+01 0.1871000D+02 0.4133000D+01 0.1200000D+01
EXPONENTS  0.1871000D+02 0.4133000D+01 0.1200000D+01 0.3827000D+00 0.3827000D+00
EXPONENTS  0.3827000D+00 0.1209000D+00 0.1209000D+00 0.1209000D+00 0.3569000D-01
EXPONENTS  0.3569000D-01 0.3569000D-01 0.1097000D+01 0.1097000D+01 0.1097000D+01
EXPONENTS  0.1097000D+01 0.1097000D+01 0.1097000D+01 0.3180000D+00 0.3180000D+00
EXPONENTS  0.3180000D+00 0.3180000D+00 0.3180000D+00 0.3180000D+00 0.1000000D+00
EXPONENTS  0.1000000D+00 0.1000000D+00 0.1000000D+00 0.1000000D+00 0.1000000D+00
EXPONENTS  0.7610000D+00 0.7610000D+00 0.7610000D+00 0.7610000D+00 0.7610000D+00
EXPONENTS  0.7610000D+00 0.7610000D+00 0.7610000D+00 0.7610000D+00 0.7610000D+00
EXPONENTS  0.2680000D+00 0.2680000D+00 0.2680000D+00 0.2680000D+00 0.2680000D+00
EXPONENTS  0.2680000D+00 0.2680000D+00 0.2680000D+00 0.2680000D+00 0.2680000D+00
EXPONENTS  0.1533000D+05 0.2299000D+04 0.5224000D+03 0.1473000D+03 0.4755000D+02
EXPONENTS  0.1676000D+02 0.6207000D+01 0.6882000D+00 0.1533000D+05 0.2299000D+04
EXPONENTS  0.5224000D+03 0.1473000D+03 0.4755000D+02 0.1676000D+02 0.6207000D+01
EXPONENTS  0.6882000D+00 0.1752000D+01 0.2384000D+00 0.7376000D-01 0.3446000D+02
EXPONENTS  0.7749000D+01 0.2280000D+01 0.3446000D+02 0.7749000D+01 0.2280000D+01
EXPONENTS  0.3446000D+02 0.7749000D+01 0.2280000D+01 0.7156000D+00 0.7156000D+00
EXPONENTS  0.7156000D+00 0.2140000D+00 0.2140000D+00 0.2140000D+00 0.5974000D-01
EXPONENTS  0.5974000D-01 0.5974000D-01 0.2314000D+01 0.2314000D+01 0.2314000D+01
EXPONENTS  0.2314000D+01 0.2314000D+01 0.2314000D+01 0.6450000D+00 0.6450000D+00
EXPONENTS  0.6450000D+00 0.6450000D+00 0.6450000D+00 0.6450000D+00 0.2140000D+00
EXPONENTS  0.2140000D+00 0.2140000D+00 0.2140000D+00 0.2140000D+00 0.2140000D+00
EXPONENTS  0.1428000D+01 0.1428000D+01 0.1428000D+01 0.1428000D+01 0.1428000D+01
EXPONENTS  0.1428000D+01 0.1428000D+01 0.1428000D+01 0.1428000D+01 0.1428000D+01
EXPONENTS  0.5000000D+00 0.5000000D+00 0.5000000D+00 0.5000000D+00 0.5000000D+00
EXPONENTS  0.5000000D+00 0.5000000D+00 0.5000000D+00 0.5000000D+00 0.5000000D+00
EXPONENTS  0.1533000D+05 0.2299000D+04 0.5224000D+03 0.1473000D+03 0.4755000D+02
EXPONENTS  0.1676000D+02 0.6207000D+01 0.6882000D+00 0.1533000D+05 0.2299000D+04
EXPONENTS  0.5224000D+03 0.1473000D+03 0.4755000D+02 0.1676000D+02 0.6207000D+01
EXPONENTS  0.6882000D+00 0.1752000D+01 0.2384000D+00 0.7376000D-01 0.3446000D+02
EXPONENTS  0.7749000D+01 0.2280000D+01 0.3446000D+02 0.7749000D+01 0.2280000D+01
EXPONENTS  0.3446000D+02 0.7749000D+01 0.2280000D+01 0.7156000D+00 0.7156000D+00
EXPONENTS  0.7156000D+00 0.2140000D+00 0.2140000D+00 0.2140000D+00 0.5974000D-01
EXPONENTS  0.5974000D-01 0.5974000D-01 0.2314000D+01 0.2314000D+01 0.2314000D+01
EXPONENTS  0.2314000D+01 0.2314000D+01 0.2314000D+01 0.6450000D+00 0.6450000D+00
EXPONENTS  0.6450000D+00 0.6450000D+00 0.6450000D+00 0.6450000D+00 0.2140000D+00
EXPONENTS  0.2140000D+00 0.2140000D+00 0.2140000D+00 0.2140000D+00 0.2140000D+00
EXPONENTS  0.1428000D+01 0.1428000D+01 0.1428000D+01 0.1428000D+01 0.1428000D+01
EXPONENTS  0.1428000D+01 0.1428000D+01 0.1428000D+01 0.1428000D+01 0.1428000D+01
EXPONENTS  0.5000000D+00 0.5000000D+00 0.5000000D+00 0.5000000D+00 0.5000000D+00
EXPONENTS  0.5000000D+00 0.5000000D+00 0.5000000D+00 0.5000000D+00 0.5000000D+00
EXPONENTS  0.3387000D+02 0.5095000D+01 0.1159000D+01 0.3258000D+00 0.1027000D+00
EXPONENTS  0.2526000D-01 0.1407000D+01 0.1407000D+01 0.1407000D+01 0.3880000D+00
EXPONENTS  0.3880000D+00 0.3880000D+00 0.1020000D+00 0.1020000D+00 0.1020000D+00
EXPONENTS  0.1057000D+01 0.1057000D+01 0.1057000D+01 0.1057000D+01 0.1057000D+01
EXPONENTS  0.1057000D+01 0.2470000D+00 0.2470000D+00 0.2470000D+00 0.2470000D+00
EXPONENTS  0.2470000D+00 0.2470000D+00 0.8236000D+04 0.1235000D+04 0.2808000D+03
EXPONENTS  0.7927000D+02 0.2559000D+02 0.8997000D+01 0.3319000D+01 0.3643000D+00
EXPONENTS  0.8236000D+04 0.1235000D+04 0.2808000D+03 0.7927000D+02 0.2559000D+02
EXPONENTS  0.8997000D+01 0.3319000D+01 0.3643000D+00 0.9059000D+00 0.1285000D+00
EXPONENTS  0.4402000D-01 0.1871000D+02 0.4133000D+01 0.1200000D+01 0.1871000D+02
EXPONENTS  0.4133000D+01 0.1200000D+01 0.1871000D+02 0.4133000D+01 0.1200000D+01
EXPONENTS  0.3827000D+00 0.3827000D+00 0.3827000D+00 0.1209000D+00 0.1209000D+00
EXPONENTS  0.1209000D+00 0.3569000D-01 0.3569000D-01 0.3569000D-01 0.1097000D+01
EXPONENTS  0.1097000D+01 0.1097000D+01 0.1097000D+01 0.1097000D+01 0.1097000D+01
EXPONENTS  0.3180000D+00 0.3180000D+00 0.3180000D+00 0.3180000D+00 0.3180000D+00
EXPONENTS  0.3180000D+00 0.1000000D+00 0.1000000D+00 0.1000000D+00 0.1000000D+00
EXPONENTS  0.1000000D+00 0.1000000D+00 0.7610000D+00 0.7610000D+00 0.7610000D+00
EXPONENTS  0.7610000D+00 0.7610000D+00 0.7610000D+00 0.7610000D+00 0.7610000D+00
EXPONENTS  0.7610000D+00 0.7610000D+00 0.2680000D+00 0.2680000D+00 0.2680000D+00
EXPONENTS  0.2680000D+00 0.2680000D+00 0.2680000D+00 0.2680000D+00 0.2680000D+00
EXPONENTS  0.2680000D+00 0.2680000D+00 0.3387000D+02 0.5095000D+01 0.1159000D+01
EXPONENTS  0.3258000D+00 0.1027000D+00 0.2526000D-01 0.1407000D+01 0.1407000D+01
EXPONENTS  0.1407000D+01 0.3880000D+00 0.3880000D+00 0.3880000D+00 0.1020000D+00
EXPONENTS  0.1020000D+00 0.1020000D+00 0.1057000D+01 0.1057000D+01 0.1057000D+01
EXPONENTS  0.1057000D+01 0.1057000D+01 0.1057000D+01 0.2470000D+00 0.2470000D+00
EXPONENTS  0.2470000D+00 0.2470000D+00 0.2470000D+00 0.2470000D+00 0.3387000D+02
EXPONENTS  0.5095000D+01 0.1159000D+01 0.3258000D+00 0.1027000D+00 0.2526000D-01
EXPONENTS  0.1407000D+01 0.1407000D+01 0.1407000D+01 0.3880000D+00 0.3880000D+00
EXPONENTS  0.3880000D+00 0.1020000D+00 0.1020000D+00 0.1020000D+00 0.1057000D+01
EXPONENTS  0.1057000D+01 0.1057000D+01 0.1057000D+01 0.1057000D+01 0.1057000D+01
EXPONENTS  0.2470000D+00 0.2470000D+00 0.2470000D+00 0.2470000D+00 0.2470000D+00
EXPONENTS  0.2470000D+00 0.3387000D+02 0.5095000D+01 0.1159000D+01 0.3258000D+00
EXPONENTS  0.1027000D+00 0.2526000D-01 0.1407000D+01 0.1407000D+01 0.1407000D+01
EXPONENTS  0.3880000D+00 0.3880000D+00 0.3880000D+00 0.1020000D+00 0.1020000D+00
EXPONENTS  0.1020000D+00 0.1057000D+01 0.1057000D+01 0.1057000D+01 0.1057000D+01
EXPONENTS  0.1057000D+01 0.1057000D+01 0.2470000D+00 0.2470000D+00 0.2470000D+00
EXPONENTS  0.2470000D+00 0.2470000D+00 0.2470000D+00
MO    1     MO 0.0        OCC NO =    2.0000000  ORB. ENERGY =  -19.263811
  0.33702138D-03  0.62828447D-03  0.10619114D-02  0.15964007D-02  0.19613627D-02
  0.16566844D-02  0.62484040D-03 -0.30923700D-05 -0.24654606D-03 -0.46161201D-03
 -0.78593394D-03 -0.12157203D-02 -0.16010609D-02 -0.16636048D-02 -0.10571462D-02
  0.70847478D-03 -0.66484872D-04  0.21854078D-02  0.16372376D-03 -0.58695234D-04
 -0.55030513D-04 -0.39185003D-04  0.11139340D-03  0.10443840D-03  0.74366361D-04
  0.26842279D-04  0.25166343D-04  0.17919935D-04  0.94562568D-03 -0.23641038D-02
 -0.56522498D-03 -0.44511389D-03  0.20791700D-03  0.47509769D-04  0.16752787D-04
 -0.12066089D-04 -0.28335983D-05 -0.52969017D-03  0.94538525D-03 -0.41569508D-03
 -0.14015979D-02 -0.33734696D-03  0.68744949D-03  0.30099268D-04  0.86567839D-04
 -0.11666711D-03 -0.18361077D-03 -0.46209131D-04  0.10686440D-03  0.12212592D-03
 -0.82672886D-04 -0.39453032D-04 -0.23395452D-03 -0.54947288D-04 -0.23588901D-04
  0.65879042D-04 -0.19342228D-03  0.99119080D-04 -0.14987699D-04  0.24379050D-03
  0.62169382D-04 -0.18264943D-03  0.33647634D-03 -0.35952662D-03  0.85516687D-04
  0.72611025D-04  0.16740799D-03 -0.23221318D-04 -0.15804914D-03 -0.43680327D-03
 -0.10399357D-03 -0.59783936D-04 -0.65420698D-04  0.17365753D-03 -0.58837253D-04
  0.11390049D-03  0.21229586D-03  0.35998343D-03  0.54485169D-03  0.67981583D-03
  0.58387113D-03  0.22415948D-03 -0.10026791D-05 -0.99484090D-04 -0.18658488D-03
 -0.31808631D-03 -0.49710699D-03 -0.66472676D-03 -0.70977321D-03 -0.43394142D-03
  0.28628819D-03 -0.24218163D-04  0.29499382D-03  0.43274844D-03  0.87525994D-04
  0.84870772D-04  0.57253322D-04  0.15676157D-03  0.15200599D-03  0.10254234D-03
  0.35620571D-04  0.34539972D-04  0.23300461D-04 -0.15884908D-03 -0.36208932D-03
 -0.85320944D-04  0.24076982D-03 -0.24689352D-03 -0.55470871D-04 -0.43035991D-04
 -0.13525860D-04 -0.34599423D-05 -0.83551879D-04  0.39072830D-03 -0.30717642D-03
 -0.46244622D-03 -0.10986661D-03  0.35742813D-03  0.80632343D-04 -0.17339108D-03
  0.92758741D-04  0.46833895D-03  0.11245566D-03 -0.13555116D-03 -0.10134232D-03
  0.64343963D-04  0.36998352D-04  0.92777319D-04  0.20693161D-04  0.13775728D-04
 -0.13300333D-03 -0.42720395D-04  0.15067270D-04  0.23266493D-03  0.79276748D-04
  0.18788447D-04  0.16634505D-03  0.48884437D-04 -0.63990256D-04  0.36470860D-04
  0.55768540D-04  0.10607551D-03 -0.23266034D-04 -0.13656553D-03 -0.24674234D-03
 -0.59674532D-04 -0.30740090D-04 -0.71484182D-04  0.12947264D-03 -0.56901504D-04
  0.49713814D+00  0.92660154D+00  0.15712092D+01  0.23780983D+01  0.29671723D+01
  0.25484053D+01  0.97838235D+00 -0.43763643D-02  0.20846135D-04  0.39097444D-04
  0.66652570D-04  0.10416499D-03  0.13928844D-03  0.14872758D-03  0.90929129D-04
 -0.59989516D-04  0.54272363D-01 -0.44972543D-03 -0.28280831D-04  0.34770427D-02
  0.33715618D-02  0.22744357D-02  0.65317977D-02  0.63336466D-02  0.42726406D-02
  0.16061444D-02  0.15574198D-02  0.10506262D-02  0.86832593D-03 -0.91748801D-03
 -0.21600501D-03 -0.64105255D-03 -0.12737789D-02 -0.31185527D-03 -0.22968832D-04
 -0.12101382D-04 -0.31062889D-05  0.21809586D-02  0.41488250D-03 -0.25958411D-02
 -0.17840146D-02 -0.36281387D-03  0.15294600D-02  0.59343471D-04 -0.75469622D-03
  0.69535275D-03  0.11192792D-02  0.25851797D-03 -0.73388339D-03  0.46215174D-04
 -0.20836434D-03  0.16214917D-03 -0.46005452D-04 -0.14681943D-04 -0.19065460D-03
  0.80542516D-03 -0.71453062D-04 -0.41520822D-04 -0.97572099D-03  0.33286559D-03
  0.11850497D-03 -0.14405545D-02 -0.11850640D-03  0.60575007D-05  0.24875020D-03
 -0.32379235D-03 -0.16033968D-03  0.10074345D-03  0.69520009D-03  0.14288559D-03
  0.22942336D-04  0.27617695D-03  0.33813346D-03 -0.32517268D-03  0.20876718D-03
  0.20827461D-03  0.37563183D-03  0.55386892D-03  0.50246182D-03 -0.98471348D-03
 -0.23150904D-04  0.27249935D-03 -0.78471229D-04 -0.17447119D-04  0.43005547D-03
 -0.10860584D-03 -0.20589739D-04  0.17389427D-03 -0.15002365D-03 -0.34569693D-04
 -0.18512161D-02  0.92801060D-03  0.92320549D-03 -0.24580135D-04 -0.45924735D-04
  0.21054107D-05 -0.21096036D-04 -0.21966199D-04  0.43062235D-04  0.76046184D-04
  0.16853920D-04 -0.32839697D-04  0.12724651D-03  0.23721642D-03  0.40093753D-03
  0.60274045D-03  0.74053628D-03  0.62550127D-03  0.23591607D-03 -0.11675618D-05
 -0.93619398D-04 -0.17528505D-03 -0.29843780D-03 -0.46163790D-03 -0.60796087D-03
 -0.63171029D-03 -0.40142353D-03  0.26902471D-03  0.34048916D-03 -0.40328943D-02
 -0.12813192D-03 -0.17535455D-03 -0.16440604D-03 -0.11706689D-03  0.19865768D-05
  0.18625420D-05  0.13262409D-05 -0.17526494D-05 -0.16432202D-05 -0.11700707D-05
  0.66976403D-03 -0.20771475D-03 -0.43157700D-04 -0.56807934D-03 -0.10413594D-03
 -0.33258617D-04 -0.11976982D-04 -0.10818214D-05 -0.42658132D-06  0.32027359D-04
  0.32703948D-04 -0.64731307D-04 -0.24710790D-03 -0.62035042D-04  0.50133330D-04
  0.45431550D-03 -0.41901966D-03 -0.35295835D-04  0.79536516D-03  0.19987943D-03
 -0.17518224D-03 -0.48017099D-05  0.19631383D-04 -0.14829673D-04 -0.54643802D-04
 -0.13165835D-04  0.16231075D-04 -0.30852135D-04 -0.13998610D-03  0.39298944D-04
  0.11634362D-03  0.27638748D-03  0.63705350D-04 -0.23787217D-04  0.14357083D-03
 -0.18160218D-03  0.63922193D-04  0.23289241D-04 -0.11409672D-03  0.53024517D-04
 -0.62789411D-04  0.14622820D-03  0.32608867D-04 -0.70783113D-05  0.19606197D-03
 -0.19168242D-03 -0.41361100D-04  0.84805378D-05  0.15294999D-04  0.22552467D-04
  0.20010420D-02 -0.35221203D-03  0.12559916D-04  0.48188751D-04 -0.21218748D-03
 -0.46343827D-04  0.54426363D-03 -0.61667782D-03 -0.13405854D-03  0.62895771D-05
  0.31964987D-04  0.74560250D-05  0.12005893D-04  0.63093603D-04 -0.75099496D-04
 -0.22880319D-03 -0.47774136D-04  0.61778458D-04 -0.10334995D-04  0.13490342D-04
 -0.31553472D-05 -0.34058339D-04 -0.46396505D-05  0.85062722D-05 -0.13149503D-04
 -0.23715670D-04 -0.34968741D-04  0.85228460D-03  0.56509630D-03 -0.20992526D-05
 -0.22870536D-04  0.11052152D-04  0.14454065D-03  0.40656106D-03  0.80186867D-04
  0.65983198D-04  0.81653986D-04  0.35205424D-04  0.48098057D-04  0.12756974D-03
 -0.86654577D-04 -0.40915162D-04 -0.68568185D-04  0.24628676D-03  0.83511897D-04
  0.44473237D-04 -0.16393520D-04 -0.28079717D-04 -0.13048873D-04 -0.11752935D-04
  0.18560396D-04 -0.12690560D-04 -0.22887948D-04 -0.33748265D-04  0.88662451D-03
  0.56183342D-03 -0.13298750D-05 -0.22728982D-04  0.76178049D-04 -0.12379998D-03
  0.39055913D-03  0.98168397D-04 -0.46315805D-04  0.80914654D-04  0.49829303D-04
 -0.29441238D-04  0.12124356D-03 -0.47140416D-04 -0.74103140D-04  0.37724654D-04
 -0.24437052D-03 -0.94290982D-04  0.44114378D-04 -0.11538312D-04 -0.32576065D-04
 -0.20038036D-04  0.51277266D-05 -0.25564313D-05
MO    2     MO 0.0        OCC NO =    2.0000000  ORB. ENERGY =  -19.204008
  0.50039963D-03  0.93285869D-03  0.15766955D-02  0.23702898D-02  0.29121749D-02
  0.24597973D-02  0.92774502D-03 -0.45914619D-05 -0.38788745D-03 -0.72624770D-03
 -0.12364989D-02 -0.19126757D-02 -0.25189266D-02 -0.26173261D-02 -0.16631932D-02
  0.11146334D-02  0.12442143D-02 -0.55434534D-03 -0.42813537D-03  0.53989663D-03
  0.50618741D-03  0.36043559D-03  0.82855833D-03  0.77682610D-03  0.55314646D-03
  0.20501962D-03  0.19221893D-03  0.13687133D-03  0.13381645D-02  0.13488971D-02
  0.33361459D-03 -0.11031353D-02 -0.25795674D-03 -0.67886469D-04  0.12378500D-04
  0.15956428D-05  0.63075063D-06  0.73805203D-04  0.27280146D-03 -0.34660666D-03
  0.14571210D-02  0.35672337D-03  0.32793918D-03 -0.22558429D-03 -0.10196546D-03
  0.32754975D-03 -0.76372196D-03 -0.18609506D-03 -0.22539284D-03  0.71742985D-04
 -0.10134647D-03  0.29603484D-04 -0.28613177D-03 -0.68884808D-04 -0.68350620D-04
  0.37334562D-03  0.14284538D-03  0.55170788D-04 -0.11321396D-02 -0.64086060D-03
 -0.15191930D-03  0.12102734D-04  0.21232445D-03 -0.13593061D-04 -0.59397584D-03
  0.17775116D-03  0.80507793D-04  0.14392699D-04 -0.63335014D-03 -0.29782791D-03
 -0.71249142D-04  0.10009665D-03  0.56304533D-04  0.28071045D-04 -0.37879218D-03
  0.49705020D+00  0.92643763D+00  0.15709312D+01  0.23776776D+01  0.29666475D+01
  0.25479545D+01  0.97820928D+00 -0.43755901D-02  0.89211263D-04  0.16731793D-03
  0.28524040D-03  0.44577522D-03  0.59608641D-03  0.63648131D-03  0.38913219D-03
 -0.25672579D-03  0.54283387D-01  0.19272392D-02  0.64122210D-03 -0.45173344D-02
 -0.43802948D-02 -0.29549210D-02 -0.62289334D-02 -0.60399701D-02 -0.40745281D-02
 -0.15314641D-02 -0.14850050D-02 -0.10017756D-02  0.71800187D-04  0.13916443D-04
  0.47071927D-05  0.91504523D-03  0.73103553D-03  0.17842337D-03 -0.10021469D-04
 -0.12925591D-04 -0.34957785D-05  0.28657861D-03  0.12242220D-02 -0.15108006D-02
  0.41117890D-02  0.10177694D-02  0.14258671D-02 -0.20757831D-03 -0.35075264D-03
  0.55833095D-03 -0.11260909D-02 -0.28212209D-03 -0.47096462D-03 -0.11866312D-03
 -0.10213103D-03  0.22079415D-03 -0.44851244D-03 -0.11127501D-03 -0.16751808D-03
 -0.10359362D-04  0.12939925D-05  0.49709938D-04 -0.19646942D-03 -0.18045512D-03
 -0.45351642D-04  0.22754750D-03  0.17657314D-03 -0.10377817D-03 -0.22044202D-03
 -0.12873917D-05  0.30282011D-04 -0.10175813D-03  0.34417091D-03  0.26645138D-03
  0.68696920D-04 -0.34030874D-03 -0.35729741D-03  0.23657746D-03  0.35838593D-03
  0.22382750D-03  0.41718566D-03  0.70740865D-03  0.10706959D-02  0.13359159D-02
  0.11473736D-02  0.44049904D-03 -0.19703792D-05 -0.13126688D-03 -0.24619428D-03
 -0.41970728D-03 -0.65592078D-03 -0.87709107D-03 -0.93652877D-03 -0.57257533D-03
  0.37775043D-03 -0.84491853D-04  0.10869774D-02  0.47372841D-03  0.24772503D-03
  0.24020994D-03  0.16204421D-03 -0.41620991D-03 -0.40358361D-03 -0.27225512D-03
 -0.99991926D-04 -0.96958533D-04 -0.65407653D-04 -0.42774331D-03  0.73210089D-03
  0.17516599D-03 -0.67539187D-04  0.18764471D-03  0.45280511D-04 -0.51999305D-04
  0.15639421D-04  0.33603269D-05 -0.13781365D-03  0.51631095D-03 -0.37849730D-03
  0.74194729D-03  0.18372197D-03  0.46078022D-03 -0.11353149D-03  0.10317751D-04
  0.10321374D-03 -0.74658906D-03 -0.18429178D-03 -0.50519933D-04  0.31892165D-04
 -0.20060517D-04 -0.11831648D-04 -0.75932906D-04 -0.17711229D-04 -0.51551772D-05
 -0.22319562D-03  0.16843201D-03 -0.50861591D-04  0.19792134D-03 -0.33250442D-03
 -0.91481755D-04  0.47166553D-03 -0.17279160D-03  0.24406653D-03 -0.14473946D-03
  0.16182765D-03 -0.33951766D-04  0.31937542D-04 -0.36257863D-03 -0.11126213D-04
  0.13025705D-05 -0.12290431D-03  0.11298151D-03 -0.97115196D-04 -0.12456878D-03
 -0.20165726D-04 -0.36369717D-04 -0.53627126D-04 -0.93358523D-04 -0.54869057D-03
  0.69977646D-05 -0.19565653D-03  0.31992867D-03  0.75522547D-04 -0.31147060D-04
  0.10930697D-04  0.35762236D-05  0.98976625D-04 -0.82419448D-04 -0.18827644D-04
  0.18274446D-03 -0.99067836D-04 -0.83676620D-04 -0.27987652D-03 -0.64704285D-04
 -0.11385828D-04  0.22364661D-04 -0.27984126D-04  0.56194647D-05  0.60119826D-04
  0.14224156D-04 -0.16268859D-04  0.14922655D-03  0.27819223D-03  0.47019387D-03
  0.70685540D-03  0.86845353D-03  0.73354784D-03  0.27666726D-03 -0.13692417D-05
 -0.10766602D-03 -0.20158477D-03 -0.34321531D-03 -0.53090190D-03 -0.69917912D-03
 -0.72649189D-03 -0.46165299D-03  0.30938910D-03  0.13010843D-03 -0.18037773D-02
  0.17950240D-03 -0.19494151D-03 -0.18277005D-03 -0.13014317D-03  0.45466951D-05
  0.42628157D-05  0.30353787D-05 -0.12010617D-05 -0.11260717D-05 -0.80183010D-06
  0.12391924D-02  0.64271054D-05  0.90326850D-05 -0.43128778D-03  0.14904051D-03
  0.27399302D-04  0.92061586D-05  0.15165812D-04  0.33609593D-05  0.35076597D-03
 -0.92890246D-04 -0.25787573D-03  0.38129807D-03  0.93177464D-04  0.89952326D-04
  0.44430813D-03 -0.38281650D-03 -0.61491632D-04 -0.45333720D-03 -0.93441202D-04
 -0.16442409D-03 -0.10904677D-04  0.45832685D-04 -0.34928008D-04 -0.10747753D-03
 -0.24351791D-04  0.39880152D-04  0.90024664D-04 -0.10779921D-03  0.32193745D-04
 -0.28960871D-03  0.20692008D-03  0.43892481D-04  0.19534718D-04  0.11647755D-03
 -0.14047372D-03 -0.15558093D-03  0.44596424D-04 -0.13563195D-04  0.16839438D-04
 -0.29289107D-03 -0.26199920D-04 -0.85257797D-05  0.15910180D-03  0.66889506D-04
 -0.41992535D-04 -0.22619263D-03 -0.25042161D-04 -0.45164568D-04 -0.66595129D-04
  0.28063883D-03 -0.97843368D-03 -0.27259354D-04  0.75312087D-05 -0.22166139D-05
  0.31262180D-05  0.76411500D-03 -0.17811156D-03 -0.44805826D-04  0.46433811D-04
  0.79885498D-04  0.15283202D-04  0.23193726D-03 -0.10083735D-03 -0.13109991D-03
 -0.53282297D-03 -0.11178548D-03  0.15782361D-04  0.13262059D-04  0.85768825D-05
 -0.21838941D-04 -0.10067994D-03 -0.20886540D-04  0.14879794D-04  0.64816579D-05
  0.11689937D-04  0.17236805D-04  0.66055596D-03  0.39713294D-03  0.18706473D-04
 -0.35467585D-05 -0.27985497D-04  0.83177876D-04  0.63603828D-04  0.15602829D-03
  0.24603711D-03  0.24948581D-05  0.22775916D-04  0.48833543D-04 -0.91513077D-04
 -0.21057494D-05  0.93618826D-04 -0.92874594D-04  0.21191808D-04  0.98502766D-04
 -0.15452204D-04 -0.34449375D-05  0.18897141D-04 -0.65921290D-04  0.34258005D-04
  0.27881392D-04  0.55426108D-05  0.99963269D-05  0.14739578D-04  0.67256220D-03
  0.39734416D-03  0.18731431D-04 -0.87776614D-05  0.10116518D-04 -0.91846550D-04
  0.52362233D-04  0.25184563D-03 -0.15569098D-03  0.13536141D-05  0.39627893D-04
 -0.35231340D-04 -0.95091075D-04  0.54418838D-04  0.40672237D-04 -0.74453416D-04
 -0.47041664D-04 -0.14511338D-03 -0.13719594D-04  0.10888154D-04  0.28314399D-05
 -0.42241338D-04 -0.56642337D-04 -0.35772178D-04
MO    3     MO 0.0        OCC NO =    2.0000000  ORB. ENERGY =  -10.365459
  0.32959015D+00  0.61443097D+00  0.10384966D+01  0.15612005D+01  0.19181152D+01
  0.16201550D+01  0.61106284D+00 -0.30241841D-02 -0.29408617D-02 -0.55062210D-02
 -0.93748124D-02 -0.14501409D-01 -0.19097846D-01 -0.19843885D-01 -0.12609898D-01
  0.84508605D-02  0.35502680D-01  0.40066301D-02 -0.79950868D-03  0.14637671D-02
  0.13723747D-02  0.97721256D-03 -0.10157604D-02 -0.95233995D-03 -0.67812278D-03
 -0.23814517D-03 -0.22327624D-03 -0.15898598D-03  0.34601892D-02  0.24740658D-02
  0.62562958D-03 -0.41712519D-02 -0.59286216D-03 -0.16125736D-03  0.53313999D-04
 -0.24803814D-04 -0.52098850D-05  0.12558249D-02  0.29420060D-02 -0.41978309D-02
  0.37464361D-02  0.96280626D-03  0.36932928D-02 -0.94857286D-03  0.53538410D-03
  0.41318876D-03  0.38928781D-04  0.11995015D-04  0.61345494D-04  0.25310351D-03
 -0.29200640D-03  0.38902890D-04 -0.50677848D-03 -0.12030047D-03 -0.17211384D-03
 -0.81920685D-03 -0.22378149D-03 -0.19685020D-03  0.35388133D-02  0.13599273D-02
  0.32792848D-03 -0.10811928D-02 -0.68858280D-03  0.26262213D-03  0.24046916D-02
  0.35185404D-03 -0.20428435D-04  0.15026827D-04 -0.14969956D-02  0.20924850D-04
  0.13911251D-05  0.44143348D-03  0.40360453D-04 -0.46471606D-04 -0.98718064D-03
  0.57846758D-03  0.10781891D-02  0.18282515D-02  0.27671438D-02  0.34525876D-02
  0.29653123D-02  0.11384410D-02 -0.50923167D-05 -0.51089124D-03 -0.95818919D-03
 -0.16335025D-02 -0.25528465D-02 -0.34136421D-02 -0.36449739D-02 -0.22284656D-02
  0.14702063D-02  0.12187344D-02  0.14369725D-03  0.13750194D-02 -0.21060516D-02
 -0.20421616D-02 -0.13776302D-02 -0.27447534D-02 -0.26614875D-02 -0.17954238D-02
 -0.67228764D-03 -0.65189286D-03 -0.43976307D-03  0.14958936D-02  0.21870796D-02
  0.53263323D-03  0.26237072D-02  0.27768894D-02  0.67169457D-03 -0.59958508D-04
  0.95660070D-06 -0.11766115D-05  0.34037549D-03  0.41458279D-03 -0.75495828D-03
  0.21883024D-02  0.54436393D-03  0.59848027D-03 -0.31138064D-03 -0.12114069D-02
  0.15227875D-02 -0.46387432D-02 -0.11407557D-02 -0.14208545D-02 -0.24962097D-03
 -0.29950852D-03  0.54912949D-03 -0.12445107D-02 -0.30488910D-03 -0.44043608D-03
 -0.67644686D-03 -0.65173595D-04 -0.22165369D-03  0.22299202D-02  0.99613208D-03
  0.23377076D-03 -0.20057960D-03 -0.80061129D-03  0.43119030D-03  0.12694467D-02
 -0.14287739D-03 -0.28639313D-04 -0.20069498D-03  0.12207952D-02  0.79837096D-03
  0.19980217D-03 -0.79216299D-03 -0.71245302D-03  0.40228276D-03  0.10488171D-02
  0.39642097D-03  0.73887768D-03  0.12528917D-02  0.18963100D-02  0.23660412D-02
  0.20321138D-02  0.78016802D-03 -0.34897394D-05 -0.32650394D-03 -0.61236624D-03
 -0.10439502D-02 -0.16314909D-02 -0.21816143D-02 -0.23294554D-02 -0.14241834D-02
  0.93958968D-03  0.58126571D-03  0.46541623D-03  0.68782503D-03 -0.41977924D-03
 -0.40704466D-03 -0.27458992D-03  0.11795558D-02  0.11437723D-02  0.77158207D-03
  0.28129087D-03  0.27275752D-03  0.18400061D-03 -0.52237725D-03  0.51747464D-03
  0.12213589D-03  0.23356541D-02 -0.41891396D-03 -0.89384547D-04 -0.86788723D-04
  0.23287335D-04  0.45019679D-05 -0.87631556D-03  0.18251361D-02 -0.94882051D-03
 -0.35072873D-02 -0.84670180D-03  0.14066763D-02  0.30551895D-03 -0.11169326D-02
  0.81141366D-03  0.25215847D-02  0.60783164D-03 -0.97810274D-03  0.59867078D-04
 -0.20334546D-03  0.14347838D-03  0.12706349D-02  0.31118812D-03 -0.17213729D-03
 -0.44494308D-03 -0.43453866D-03  0.21959785D-03  0.12086087D-02  0.58014239D-03
  0.11561600D-03  0.12622052D-03  0.72347360D-03 -0.77440954D-03  0.54464924D-03
 -0.24209998D-03 -0.46906228D-03  0.12927368D-03  0.10813604D-02  0.97939039D-03
  0.24752778D-03 -0.35506052D-03  0.42779647D-03 -0.63534881D-03  0.75069041D-03
 -0.37862871D-04 -0.68287247D-04 -0.10068951D-03 -0.81035295D-03 -0.79456744D-03
 -0.16898228D-04  0.27514288D-03 -0.82028512D-03 -0.19995653D-03 -0.44897744D-03
 -0.80324134D-03 -0.20468318D-03  0.83160344D-04 -0.20175119D-03 -0.47857114D-04
  0.27580802D-03 -0.26935306D-04 -0.24887271D-03  0.13478982D-02  0.34304304D-03
  0.12424921D-03  0.91670168D-04  0.47022605D-04 -0.13869277D-03  0.86735974D-04
  0.24580471D-04  0.98064312D-04  0.54761758D-03  0.10208837D-02  0.17254733D-02
  0.25939515D-02  0.31869691D-02  0.26919049D-02  0.10152875D-02 -0.50247145D-05
 -0.11835477D-03 -0.22159747D-03 -0.37728864D-03 -0.58360816D-03 -0.76859142D-03
 -0.79861572D-03 -0.50748444D-03  0.34010427D-03  0.46603114D-03 -0.34922231D-02
  0.43009173D-03  0.46169821D-03  0.43287142D-03  0.30823024D-03  0.86032408D-04
  0.80660851D-04  0.57435331D-04  0.19692943D-04  0.18463385D-04  0.13147030D-04
  0.24373294D-02 -0.31527685D-03 -0.67155492D-04 -0.20393663D-02  0.14323259D-03
  0.11501307D-04  0.23240424D-04  0.37337184D-04  0.85970506D-05  0.10275854D-02
 -0.45718816D-03 -0.57039729D-03  0.34829814D-03  0.85559081D-04  0.72853003D-04
 -0.81432807D-03  0.24809405D-03  0.56623402D-03 -0.86230608D-03 -0.20175659D-03
 -0.17085891D-03 -0.87255739D-04  0.13092664D-03 -0.43670897D-04 -0.13500204D-03
 -0.29613541D-04  0.88812401D-04 -0.76785801D-03  0.15162546D-04  0.49667472D-04
  0.14464937D-02 -0.22881571D-03 -0.70779107D-04  0.85708034D-03  0.18332807D-03
 -0.78223311D-04  0.29295208D-03 -0.91524776D-04  0.15583534D-03 -0.10668691D-03
 -0.35651814D-03 -0.36520241D-04 -0.15623713D-04  0.63109247D-03 -0.43098578D-03
  0.33568444D-03 -0.48192114D-03 -0.50089786D-04 -0.90338991D-04 -0.13320479D-03
 -0.12520748D-02 -0.23072429D-02 -0.47941461D-04  0.29680620D-04 -0.87647874D-04
 -0.11860550D-04 -0.23305661D-03 -0.48886420D-03 -0.11123907D-03 -0.77714085D-04
  0.19370633D-03  0.36348373D-04 -0.51307104D-03  0.63320779D-03 -0.12013675D-03
  0.35676885D-03  0.86239388D-04  0.34737131D-03 -0.20228780D-03  0.12450133D-03
  0.77786469D-04 -0.79065437D-04 -0.16801164D-04  0.24103629D-04 -0.31865344D-04
 -0.57470461D-04 -0.84740161D-04  0.44887117D-04 -0.38725619D-03  0.38824653D-04