 Molden2AIM, Version 4.0.0 (06/02/2016)           Time: Fri Jun 29 16:39:23 2018
GAUSSIAN             21 MOL ORBITALS    518 PRIMITIVES       10 NUCLEI
  C    1    (CENTRE  1)  -5.94748779  5.31484339  0.80794863  CHARGE =  6.0
  C    2    (CENTRE  2) -11.46882533  5.27454687 -2.25794871  CHARGE =  6.0
  O    3    (CENTRE  3) -10.99190192  5.77979349  0.33875797  CHARGE =  8.0
  H    4    (CENTRE  4)  -9.76981036  5.57910836 -3.42113183  CHARGE =  1.0
  H    5    (CENTRE  5) -12.93529060  6.62197451 -2.83907918  CHARGE =  1.0
  H    6    (CENTRE  6) -12.15389829  3.33198022 -2.53715385  CHARGE =  1.0
  S    7    (CENTRE  7)  -8.87316366  3.79798479  1.67971519  CHARGE = 16.0
  H    8    (CENTRE  8)  -4.45504068  4.21524955  1.74705558  CHARGE =  1.0
  H    9    (CENTRE  9)  -5.89951520  7.26357432  1.51248577  CHARGE =  1.0
  H   10    (CENTRE 10)  -5.61902882  5.25995629 -1.23889311  CHARGE =  1.0
CENTRE ASSIGNMENTS    1  1  1  1  1  1  1  1  1  1  1  1  1  1  1  1  1  1  1  1
CENTRE ASSIGNMENTS    1  1  1  1  1  1  1  1  1  1  1  1  1  1  1  1  1  1  1  1
CENTRE ASSIGNMENTS    1  1  1  1  1  1  1  1  1  1  1  1  1  1  1  1  1  1  1  1
CENTRE ASSIGNMENTS    1  1  1  1  1  1  1  1  1  1  1  1  1  1  1  2  2  2  2  2
CENTRE ASSIGNMENTS    2  2  2  2  2  2  2  2  2  2  2  2  2  2  2  2  2  2  2  2
CENTRE ASSIGNMENTS    2  2  2  2  2  2  2  2  2  2  2  2  2  2  2  2  2  2  2  2
CENTRE ASSIGNMENTS    2  2  2  2  2  2  2  2  2  2  2  2  2  2  2  2  2  2  2  2
CENTRE ASSIGNMENTS    2  2  2  2  2  2  2  2  2  2  3  3  3  3  3  3  3  3  3  3
CENTRE ASSIGNMENTS    3  3  3  3  3  3  3  3  3  3  3  3  3  3  3  3  3  3  3  3
CENTRE ASSIGNMENTS    3  3  3  3  3  3  3  3  3  3  3  3  3  3  3  3  3  3  3  3
CENTRE ASSIGNMENTS    3  3  3  3  3  3  3  3  3  3  3  3  3  3  3  3  3  3  3  3
CENTRE ASSIGNMENTS    3  3  3  3  3  4  4  4  4  4  4  4  4  4  4  4  4  4  4  4
CENTRE ASSIGNMENTS    4  4  4  4  4  4  4  4  4  4  4  4  5  5  5  5  5  5  5  5
CENTRE ASSIGNMENTS    5  5  5  5  5  5  5  5  5  5  5  5  5  5  5  5  5  5  5  6
CENTRE ASSIGNMENTS    6  6  6  6  6  6  6  6  6  6  6  6  6  6  6  6  6  6  6  6
CENTRE ASSIGNMENTS    6  6  6  6  6  6  7  7  7  7  7  7  7  7  7  7  7  7  7  7
CENTRE ASSIGNMENTS    7  7  7  7  7  7  7  7  7  7  7  7  7  7  7  7  7  7  7  7
CENTRE ASSIGNMENTS    7  7  7  7  7  7  7  7  7  7  7  7  7  7  7  7  7  7  7  7
CENTRE ASSIGNMENTS    7  7  7  7  7  7  7  7  7  7  7  7  7  7  7  7  7  7  7  7
CENTRE ASSIGNMENTS    7  7  7  7  7  7  7  7  7  7  7  7  7  7  7  7  7  7  7  7
CENTRE ASSIGNMENTS    7  7  7  7  7  7  7  7  7  7  7  7  7  7  7  7  7  7  7  7
CENTRE ASSIGNMENTS    7  7  7  7  7  7  7  7  7  7  7  7  7  7  7  7  7  8  8  8
CENTRE ASSIGNMENTS    8  8  8  8  8  8  8  8  8  8  8  8  8  8  8  8  8  8  8  8
CENTRE ASSIGNMENTS    8  8  8  8  9  9  9  9  9  9  9  9  9  9  9  9  9  9  9  9
CENTRE ASSIGNMENTS    9  9  9  9  9  9  9  9  9  9  9 10 10 10 10 10 10 10 10 10
CENTRE ASSIGNMENTS   10 10 10 10 10 10 10 10 10 10 10 10 10 10 10 10 10 10
TYPE ASSIGNMENTS      1  1  1  1  1  1  1  1  1  1  1  1  1  1  1  1  1  1  1  2
TYPE ASSIGNMENTS      2  2  3  3  3  4  4  4  2  3  4  2  3  4  2  3  4  5  6  7
TYPE ASSIGNMENTS      8  9 10  5  6  7  8  9 10  5  6  7  8  9 10 11 12 13 17 14
TYPE ASSIGNMENTS     15 18 19 16 20 11 12 13 17 14 15 18 19 16 20  1  1  1  1  1
TYPE ASSIGNMENTS      1  1  1  1  1  1  1  1  1  1  1  1  1  1  2  2  2  3  3  3
TYPE ASSIGNMENTS      4  4  4  2  3  4  2  3  4  2  3  4  5  6  7  8  9 10  5  6
TYPE ASSIGNMENTS      7  8  9 10  5  6  7  8  9 10 11 12 13 17 14 15 18 19 16 20
TYPE ASSIGNMENTS     11 12 13 17 14 15 18 19 16 20  1  1  1  1  1  1  1  1  1  1
TYPE ASSIGNMENTS      1  1  1  1  1  1  1  1  1  2  2  2  3  3  3  4  4  4  2  3
TYPE ASSIGNMENTS      4  2  3  4  2  3  4  5  6  7  8  9 10  5  6  7  8  9 10  5
TYPE ASSIGNMENTS      6  7  8  9 10 11 12 13 17 14 15 18 19 16 20 11 12 13 17 14
TYPE ASSIGNMENTS     15 18 19 16 20  1  1  1  1  1  1  2  3  4  2  3  4  2  3  4
TYPE ASSIGNMENTS      5  6  7  8  9 10  5  6  7  8  9 10  1  1  1  1  1  1  2  3
TYPE ASSIGNMENTS      4  2  3  4  2  3  4  5  6  7  8  9 10  5  6  7  8  9 10  1
TYPE ASSIGNMENTS      1  1  1  1  1  2  3  4  2  3  4  2  3  4  5  6  7  8  9 10
TYPE ASSIGNMENTS      5  6  7  8  9 10  1  1  1  1  1  1  1  1  1  1  1  1  1  1
TYPE ASSIGNMENTS      1  1  1  1  1  1  1  1  1  1  1  1  1  1  1  1  1  1  1  1
TYPE ASSIGNMENTS      1  1  1  1  1  1  1  1  2  2  2  2  2  2  2  3  3  3  3  3
TYPE ASSIGNMENTS      3  3  4  4  4  4  4  4  4  2  2  2  2  2  2  2  3  3  3  3
TYPE ASSIGNMENTS      3  3  3  4  4  4  4  4  4  4  2  3  4  2  3  4  2  3  4  5
TYPE ASSIGNMENTS      6  7  8  9 10  5  6  7  8  9 10  5  6  7  8  9 10 11 12 13
TYPE ASSIGNMENTS     17 14 15 18 19 16 20 11 12 13 17 14 15 18 19 16 20  1  1  1
TYPE ASSIGNMENTS      1  1  1  2  3  4  2  3  4  2  3  4  5  6  7  8  9 10  5  6
TYPE ASSIGNMENTS      7  8  9 10  1  1  1  1  1  1  2  3  4  2  3  4  2  3  4  5
TYPE ASSIGNMENTS      6  7  8  9 10  5  6  7  8  9 10  1  1  1  1  1  1  2  3  4
TYPE ASSIGNMENTS      2  3  4  2  3  4  5  6  7  8  9 10  5  6  7  8  9 10
EXPONENTS  0.8236000D+04 0.1235000D+04 0.2808000D+03 0.7927000D+02 0.2559000D+02
EXPONENTS  0.8997000D+01 0.3319000D+01 0.3643000D+00 0.8236000D+04 0.1235000D+04
EXPONENTS  0.2808000D+03 0.7927000D+02 0.2559000D+02 0.8997000D+01 0.3319000D+01
EXPONENTS  0.3643000D+00 0.9059000D+00 0.1285000D+00 0.4402000D-01 0.1871000D+02
EXPONENTS  0.4133000D+01 0.1200000D+01 0.1871000D+02 0.4133000D+01 0.1200000D+01
EXPONENTS  0.1871000D+02 0.4133000D+01 0.1200000D+01 0.3827000D+00 0.3827000D+00
EXPONENTS  0.3827000D+00 0.1209000D+00 0.1209000D+00 0.1209000D+00 0.3569000D-01
EXPONENTS  0.3569000D-01 0.3569000D-01 0.1097000D+01 0.1097000D+01 0.1097000D+01
EXPONENTS  0.1097000D+01 0.1097000D+01 0.1097000D+01 0.3180000D+00 0.3180000D+00
EXPONENTS  0.3180000D+00 0.3180000D+00 0.3180000D+00 0.3180000D+00 0.1000000D+00
EXPONENTS  0.1000000D+00 0.1000000D+00 0.1000000D+00 0.1000000D+00 0.1000000D+00
EXPONENTS  0.7610000D+00 0.7610000D+00 0.7610000D+00 0.7610000D+00 0.7610000D+00
EXPONENTS  0.7610000D+00 0.7610000D+00 0.7610000D+00 0.7610000D+00 0.7610000D+00
EXPONENTS  0.2680000D+00 0.2680000D+00 0.2680000D+00 0.2680000D+00 0.2680000D+00
EXPONENTS  0.2680000D+00 0.2680000D+00 0.2680000D+00 0.2680000D+00 0.2680000D+00
EXPONENTS  0.8236000D+04 0.1235000D+04 0.2808000D+03 0.7927000D+02 0.2559000D+02
EXPONENTS  0.8997000D+01 0.3319000D+01 0.3643000D+00 0.8236000D+04 0.1235000D+04
EXPONENTS  0.2808000D+03 0.7927000D+02 0.2559000D+02 0.8997000D+01 0.3319000D+01
EXPONENTS  0.3643000D+00 0.9059000D+00 0.1285000D+00 0.4402000D-01 0.1871000D+02
EXPONENTS  0.4133000D+01 0.1200000D+01 0.1871000D+02 0.4133000D+01 0.1200000D+01
EXPONENTS  0.1871000D+02 0.4133000D+01 0.1200000D+01 0.3827000D+00 0.3827000D+00
EXPONENTS  0.3827000D+00 0.1209000D+00 0.1209000D+00 0.1209000D+00 0.3569000D-01
EXPONENTS  0.3569000D-01 0.3569000D-01 0.1097000D+01 0.1097000D+01 0.1097000D+01
EXPONENTS  0.1097000D+01 0.1097000D+01 0.1097000D+01 0.3180000D+00 0.3180000D+00
EXPONENTS  0.3180000D+00 0.3180000D+00 0.3180000D+00 0.3180000D+00 0.1000000D+00
EXPONENTS  0.1000000D+00 0.1000000D+00 0.1000000D+00 0.1000000D+00 0.1000000D+00
EXPONENTS  0.7610000D+00 0.7610000D+00 0.7610000D+00 0.7610000D+00 0.7610000D+00
EXPONENTS  0.7610000D+00 0.7610000D+00 0.7610000D+00 0.7610000D+00 0.7610000D+00
EXPONENTS  0.2680000D+00 0.2680000D+00 0.2680000D+00 0.2680000D+00 0.2680000D+00
EXPONENTS  0.2680000D+00 0.2680000D+00 0.2680000D+00 0.2680000D+00 0.2680000D+00
EXPONENTS  0.1533000D+05 0.2299000D+04 0.5224000D+03 0.1473000D+03 0.4755000D+02
EXPONENTS  0.1676000D+02 0.6207000D+01 0.6882000D+00 0.1533000D+05 0.2299000D+04
EXPONENTS  0.5224000D+03 0.1473000D+03 0.4755000D+02 0.1676000D+02 0.6207000D+01
EXPONENTS  0.6882000D+00 0.1752000D+01 0.2384000D+00 0.7376000D-01 0.3446000D+02
EXPONENTS  0.7749000D+01 0.2280000D+01 0.3446000D+02 0.7749000D+01 0.2280000D+01
EXPONENTS  0.3446000D+02 0.7749000D+01 0.2280000D+01 0.7156000D+00 0.7156000D+00
EXPONENTS  0.7156000D+00 0.2140000D+00 0.2140000D+00 0.2140000D+00 0.5974000D-01
EXPONENTS  0.5974000D-01 0.5974000D-01 0.2314000D+01 0.2314000D+01 0.2314000D+01
EXPONENTS  0.2314000D+01 0.2314000D+01 0.2314000D+01 0.6450000D+00 0.6450000D+00
EXPONENTS  0.6450000D+00 0.6450000D+00 0.6450000D+00 0.6450000D+00 0.2140000D+00
EXPONENTS  0.2140000D+00 0.2140000D+00 0.2140000D+00 0.2140000D+00 0.2140000D+00
EXPONENTS  0.1428000D+01 0.1428000D+01 0.1428000D+01 0.1428000D+01 0.1428000D+01
EXPONENTS  0.1428000D+01 0.1428000D+01 0.1428000D+01 0.1428000D+01 0.1428000D+01
EXPONENTS  0.5000000D+00 0.5000000D+00 0.5000000D+00 0.5000000D+00 0.5000000D+00
EXPONENTS  0.5000000D+00 0.5000000D+00 0.5000000D+00 0.5000000D+00 0.5000000D+00
EXPONENTS  0.3387000D+02 0.5095000D+01 0.1159000D+01 0.3258000D+00 0.1027000D+00
EXPONENTS  0.2526000D-01 0.1407000D+01 0.1407000D+01 0.1407000D+01 0.3880000D+00
EXPONENTS  0.3880000D+00 0.3880000D+00 0.1020000D+00 0.1020000D+00 0.1020000D+00
EXPONENTS  0.1057000D+01 0.1057000D+01 0.1057000D+01 0.1057000D+01 0.1057000D+01
EXPONENTS  0.1057000D+01 0.2470000D+00 0.2470000D+00 0.2470000D+00 0.2470000D+00
EXPONENTS  0.2470000D+00 0.2470000D+00 0.3387000D+02 0.5095000D+01 0.1159000D+01
EXPONENTS  0.3258000D+00 0.1027000D+00 0.2526000D-01 0.1407000D+01 0.1407000D+01
EXPONENTS  0.1407000D+01 0.3880000D+00 0.3880000D+00 0.3880000D+00 0.1020000D+00
EXPONENTS  0.1020000D+00 0.1020000D+00 0.1057000D+01 0.1057000D+01 0.1057000D+01
EXPONENTS  0.1057000D+01 0.1057000D+01 0.1057000D+01 0.2470000D+00 0.2470000D+00
EXPONENTS  0.2470000D+00 0.2470000D+00 0.2470000D+00 0.2470000D+00 0.3387000D+02
EXPONENTS  0.5095000D+01 0.1159000D+01 0.3258000D+00 0.1027000D+00 0.2526000D-01
EXPONENTS  0.1407000D+01 0.1407000D+01 0.1407000D+01 0.3880000D+00 0.3880000D+00
EXPONENTS  0.3880000D+00 0.1020000D+00 0.1020000D+00 0.1020000D+00 0.1057000D+01
EXPONENTS  0.1057000D+01 0.1057000D+01 0.1057000D+01 0.1057000D+01 0.1057000D+01
EXPONENTS  0.2470000D+00 0.2470000D+00 0.2470000D+00 0.2470000D+00 0.2470000D+00
EXPONENTS  0.2470000D+00 0.3741000D+06 0.5605000D+05 0.1276000D+05 0.3615000D+04
EXPONENTS  0.1183000D+04 0.4288000D+03 0.1678000D+03 0.6947000D+02 0.2984000D+02
EXPONENTS  0.1272000D+02 0.5244000D+01 0.2219000D+01 0.3490000D+00 0.3741000D+06
EXPONENTS  0.5605000D+05 0.1276000D+05 0.3615000D+04 0.1183000D+04 0.4288000D+03
EXPONENTS  0.1678000D+03 0.6947000D+02 0.2984000D+02 0.1272000D+02 0.5244000D+01
EXPONENTS  0.2219000D+01 0.3490000D+00 0.3741000D+06 0.5605000D+05 0.1276000D+05
EXPONENTS  0.3615000D+04 0.1183000D+04 0.4288000D+03 0.1678000D+03 0.6947000D+02
EXPONENTS  0.2984000D+02 0.1272000D+02 0.5244000D+01 0.2219000D+01 0.3490000D+00
EXPONENTS  0.7767000D+00 0.1322000D+00 0.4970000D-01 0.5744000D+03 0.1358000D+03
EXPONENTS  0.4319000D+02 0.1587000D+02 0.6208000D+01 0.2483000D+01 0.3229000D+00
EXPONENTS  0.5744000D+03 0.1358000D+03 0.4319000D+02 0.1587000D+02 0.6208000D+01
EXPONENTS  0.2483000D+01 0.3229000D+00 0.5744000D+03 0.1358000D+03 0.4319000D+02
EXPONENTS  0.1587000D+02 0.6208000D+01 0.2483000D+01 0.3229000D+00 0.5744000D+03
EXPONENTS  0.1358000D+03 0.4319000D+02 0.1587000D+02 0.6208000D+01 0.2483000D+01
EXPONENTS  0.3229000D+00 0.5744000D+03 0.1358000D+03 0.4319000D+02 0.1587000D+02
EXPONENTS  0.6208000D+01 0.2483000D+01 0.3229000D+00 0.5744000D+03 0.1358000D+03
EXPONENTS  0.4319000D+02 0.1587000D+02 0.6208000D+01 0.2483000D+01 0.3229000D+00
EXPONENTS  0.8688000D+00 0.8688000D+00 0.8688000D+00 0.1098000D+00 0.1098000D+00
EXPONENTS  0.1098000D+00 0.3510000D-01 0.3510000D-01 0.3510000D-01 0.2690000D+00
EXPONENTS  0.2690000D+00 0.2690000D+00 0.2690000D+00 0.2690000D+00 0.2690000D+00
EXPONENTS  0.8190000D+00 0.8190000D+00 0.8190000D+00 0.8190000D+00 0.8190000D+00
EXPONENTS  0.8190000D+00 0.1010000D+00 0.1010000D+00 0.1010000D+00 0.1010000D+00
EXPONENTS  0.1010000D+00 0.1010000D+00 0.5570000D+00 0.5570000D+00 0.5570000D+00
EXPONENTS  0.5570000D+00 0.5570000D+00 0.5570000D+00 0.5570000D+00 0.5570000D+00
EXPONENTS  0.5570000D+00 0.5570000D+00 0.2180000D+00 0.2180000D+00 0.2180000D+00
EXPONENTS  0.2180000D+00 0.2180000D+00 0.2180000D+00 0.2180000D+00 0.2180000D+00
EXPONENTS  0.2180000D+00 0.2180000D+00 0.3387000D+02 0.5095000D+01 0.1159000D+01
EXPONENTS  0.3258000D+00 0.1027000D+00 0.2526000D-01 0.1407000D+01 0.1407000D+01
EXPONENTS  0.1407000D+01 0.3880000D+00 0.3880000D+00 0.3880000D+00 0.1020000D+00
EXPONENTS  0.1020000D+00 0.1020000D+00 0.1057000D+01 0.1057000D+01 0.1057000D+01
EXPONENTS  0.1057000D+01 0.1057000D+01 0.1057000D+01 0.2470000D+00 0.2470000D+00
EXPONENTS  0.2470000D+00 0.2470000D+00 0.2470000D+00 0.2470000D+00 0.3387000D+02
EXPONENTS  0.5095000D+01 0.1159000D+01 0.3258000D+00 0.1027000D+00 0.2526000D-01
EXPONENTS  0.1407000D+01 0.1407000D+01 0.1407000D+01 0.3880000D+00 0.3880000D+00
EXPONENTS  0.3880000D+00 0.1020000D+00 0.1020000D+00 0.1020000D+00 0.1057000D+01
EXPONENTS  0.1057000D+01 0.1057000D+01 0.1057000D+01 0.1057000D+01 0.1057000D+01
EXPONENTS  0.2470000D+00 0.2470000D+00 0.2470000D+00 0.2470000D+00 0.2470000D+00
EXPONENTS  0.2470000D+00 0.3387000D+02 0.5095000D+01 0.1159000D+01 0.3258000D+00
EXPONENTS  0.1027000D+00 0.2526000D-01 0.1407000D+01 0.1407000D+01 0.1407000D+01
EXPONENTS  0.3880000D+00 0.3880000D+00 0.3880000D+00 0.1020000D+00 0.1020000D+00
EXPONENTS  0.1020000D+00 0.1057000D+01 0.1057000D+01 0.1057000D+01 0.1057000D+01
EXPONENTS  0.1057000D+01 0.1057000D+01 0.2470000D+00 0.2470000D+00 0.2470000D+00
EXPONENTS  0.2470000D+00 0.2470000D+00 0.2470000D+00
MO    1     MO 0.0        OCC NO =    2.0000000  ORB. ENERGY =  -89.085040
  0.28650741D-04  0.53411495D-04  0.90274836D-04  0.13571265D-03  0.16673867D-03
  0.14083746D-03  0.53118709D-04 -0.26288746D-06 -0.20602366D-04 -0.38574129D-04
 -0.65675755D-04 -0.10159041D-03 -0.13379099D-03 -0.13901741D-03 -0.88339323D-04
  0.59202960D-04  0.18240187D-04  0.76015776D-03  0.12698131D-03 -0.14125381D-03
 -0.13243442D-03 -0.94301199D-04 -0.39366046D-04 -0.36908170D-04 -0.26280816D-04
  0.12392386D-04  0.11618650D-04  0.82731708D-05 -0.26909587D-05 -0.81698702D-04
  0.65495250D-04 -0.33339849D-03 -0.81553603D-04  0.32974198D-04 -0.96524234D-05
 -0.66584948D-05  0.46682702D-05  0.11308912D-03 -0.37928190D-04 -0.75160927D-04
  0.19315950D-03 -0.14856778D-03 -0.38556765D-04 -0.18132957D-03  0.67431304D-04
  0.11389827D-03 -0.28383980D-03  0.19837335D-03  0.25719585D-04  0.15906057D-04
 -0.91440672D-05 -0.67619895D-05  0.18651746D-04 -0.87385328D-05  0.25013188D-04
  0.15490171D-04 -0.17374167D-04 -0.11322360D-04  0.13930002D-04  0.10137486D-03
 -0.25842792D-04 -0.60400514D-04 -0.49252358D-04  0.59809873D-04 -0.15283875D-03
  0.15300975D-04 -0.67107310D-05 -0.11830381D-04  0.81087748D-05  0.79473769D-04
 -0.40565475D-04 -0.54011700D-04 -0.59341576D-04  0.76056617D-04 -0.13433448D-03
 -0.98466102D-05 -0.18356320D-04 -0.31025415D-04 -0.46641361D-04 -0.57304301D-04
 -0.48402643D-04 -0.18255696D-04  0.90348459D-07  0.61817815D-05  0.11574245D-04
  0.19706143D-04  0.30482407D-04  0.40144258D-04  0.41712455D-04  0.26506393D-04
 -0.17763968D-04 -0.40280678D-04  0.27346173D-03  0.52062806D-04  0.50871746D-04
  0.47695495D-04  0.33962034D-04 -0.25783827D-04 -0.24173976D-04 -0.17213311D-04
  0.61189377D-04  0.57368930D-04  0.40850096D-04 -0.29663571D-03  0.18363833D-03
 -0.21930462D-03  0.13204629D-03 -0.14912233D-03  0.72152547D-04  0.91118193D-05
 -0.82071470D-05  0.24000446D-05 -0.12900797D-04  0.52464919D-04 -0.39564122D-04
 -0.87783972D-04 -0.10899324D-03  0.89431162D-04  0.36683749D-04  0.13290413D-04
 -0.49974163D-04 -0.63244709D-04  0.11819951D-03 -0.10886780D-03 -0.36978363D-05
  0.52983810D-05 -0.16005447D-05 -0.15815160D-04  0.15156193D-04 -0.16788588D-04
  0.93023208D-05 -0.25460986D-04  0.32288920D-04 -0.34638220D-04  0.54642473D-04
 -0.54824667D-04  0.67312571D-05  0.21740484D-04 -0.42042094D-04  0.18365090D-03
 -0.11633406D-04  0.23282419D-05 -0.72143319D-05 -0.19220915D-04  0.11271542D-04
  0.22118020D-04  0.54121133D-04 -0.18256267D-04 -0.47502419D-06 -0.91578686D-04
  0.58842138D-04  0.10967417D-03  0.18597106D-03  0.28147586D-03  0.35119969D-03
  0.30163370D-03  0.11580304D-03 -0.51799411D-06 -0.41482222D-04 -0.77800935D-04
 -0.13263354D-03 -0.20728040D-03 -0.27717339D-03 -0.29595656D-03 -0.18094204D-03
  0.11937457D-03  0.22815321D-04  0.14266156D-03  0.16557180D-03  0.36866212D-04
  0.35747824D-04  0.24115271D-04 -0.26695300D-04 -0.25885461D-04 -0.17462179D-04
 -0.34519316D-04 -0.33472125D-04 -0.22580098D-04  0.75380114D-04 -0.80028919D-04
  0.10904647D-03 -0.17332217D-03  0.19190929D-03 -0.17675785D-03 -0.34112033D-05
 -0.13714444D-05 -0.95436185D-05 -0.17117636D-04  0.55575690D-04 -0.38458055D-04
 -0.52276775D-03  0.35564501D-03 -0.22586205D-03  0.12922594D-04 -0.16928009D-04
  0.40054151D-05  0.22415241D-03 -0.14878661D-03  0.85826467D-04 -0.32220596D-04
 -0.38724796D-04  0.70945391D-04  0.15619089D-03 -0.61319611D-05  0.68824324D-04
 -0.61625526D-04  0.36061140D-04 -0.62500702D-05  0.16680697D-03 -0.21636637D-03
  0.75881657D-04  0.18069605D-04  0.10818295D-03 -0.57131447D-04 -0.13692992D-03
  0.43796399D-04 -0.36979871D-04  0.33121396D-04 -0.11310925D-03  0.14488013D-03
 -0.85791315D-04 -0.18279944D-04 -0.33940515D-04 -0.13572874D-04  0.22386951D-03
  0.81774099D-05  0.14748295D-04  0.21746353D-04 -0.84638881D-04 -0.94048051D-05
 -0.10692607D-04  0.38181617D-05  0.84152294D-05 -0.17337093D-04  0.27356717D-04
 -0.57858562D-04  0.16346194D-04 -0.13370578D-04 -0.11517365D-05 -0.11388512D-05
 -0.40764979D-05  0.29186023D-04 -0.25109525D-04  0.42053400D-04 -0.68115076D-05
  0.64227784D-05 -0.61895232D-05  0.77428470D-07  0.61120948D-05  0.16766725D-04
 -0.13337498D-04 -0.12905699D-04  0.79837060D-05  0.14398943D-04  0.21231232D-04
 -0.32233635D-03  0.63094145D-04  0.19729229D-04 -0.24539929D-04  0.44961799D-04
  0.97640930D-04 -0.19263470D-03  0.18150342D-03 -0.20985917D-03  0.21248280D-06
 -0.12702197D-04  0.77239684D-05 -0.27256087D-04 -0.26881629D-04  0.54137715D-04
  0.17063241D-03 -0.64249832D-04  0.72507702D-04 -0.67563410D-05 -0.33068905D-05
  0.10063231D-04  0.30450325D-04 -0.21237645D-04  0.33677828D-04  0.11026288D-04
  0.19886364D-04  0.29322432D-04 -0.17938042D-03 -0.17574438D-03 -0.14032700D-04
  0.13381742D-04 -0.26597777D-04  0.10916652D-04 -0.21196108D-04 -0.47061441D-04
 -0.35626634D-04 -0.38183494D-04 -0.63034483D-05 -0.16971998D-04  0.21447297D-04
 -0.18645828D-04 -0.28014692D-05  0.50691730D-05 -0.92510382D-04 -0.95166687D-05
 -0.26216153D-05  0.14997386D-05  0.11218767D-05  0.18838038D-04 -0.70367476D-06
  0.41645415D-05  0.58518490D+00  0.10939692D+01  0.18907203D+01  0.30581552D+01
  0.46222225D+01  0.63655588D+01  0.74398624D+01  0.64286024D+01  0.29983231D+01
  0.40710750D+00  0.10901336D-02  0.21383914D-02  0.97626501D-04 -0.12272183D-02
 -0.22918824D-02 -0.39756247D-02 -0.64463380D-02 -0.99248713D-02 -0.14135246D-01
 -0.18176091D-01 -0.19079487D-01 -0.13490550D-01  0.29875387D-03  0.96931342D-02
  0.53373028D-02 -0.22571363D-04  0.56778053D-03  0.10595625D-02  0.18403332D-02
  0.29809314D-02  0.46046667D-02  0.65646442D-02  0.85384577D-02  0.90996943D-02
  0.67490540D-02 -0.21007299D-03 -0.61142914D-02 -0.59898952D-02  0.27976363D-02
 -0.27733813D-02 -0.12148022D-02 -0.44976452D-03 -0.10432028D-04 -0.13686252D-04
 -0.15011732D-04 -0.12351891D-04 -0.65121614D-05 -0.16941566D-05  0.18747570D-08
  0.80529342D-02  0.10565011D-01  0.11588207D-01  0.95349602D-02  0.50270196D-02
  0.13077929D-02 -0.14472062D-05 -0.64837201D-02 -0.85062877D-02 -0.93301011D-02
 -0.76769550D-02 -0.40474425D-02 -0.10529532D-02  0.11652001D-05 -0.10686341D-05
 -0.14031231D-05 -0.15786081D-05 -0.13300967D-05 -0.74403745D-06 -0.18518941D-06
  0.84936785D-07 -0.67143946D-02 -0.88160409D-02 -0.99186405D-02 -0.83572045D-02
 -0.46749030D-02 -0.11635739D-02  0.53367103D-03  0.54639547D-02  0.71742058D-02
  0.80714653D-02  0.68008198D-02  0.38042832D-02  0.94687835D-03 -0.43428403D-03
  0.41046911D-04 -0.24747233D-03  0.20180544D-03 -0.24135658D-03 -0.35826033D-03
  0.30692012D-03 -0.10927847D-04 -0.11389446D-04  0.10737619D-04 -0.10995909D-04
  0.19044450D-04 -0.80485406D-05 -0.32652938D-04 -0.17953643D-04  0.21513813D-07
  0.17980518D-03 -0.67780908D-04 -0.11202427D-03 -0.49443138D-05  0.14175298D-03
 -0.34023509D-03 -0.18157101D-04  0.59405544D-05  0.12216546D-04 -0.27283245D-04
  0.91757108D-05  0.56465888D-04  0.42289449D-04 -0.54991887D-04  0.51081190D-04
 -0.60536225D-04  0.17799379D-03 -0.10249585D-03 -0.66332124D-04 -0.13018134D-04
 -0.50747719D-04  0.74236608D-04 -0.16557246D-04  0.13888236D-04 -0.69836654D-05
  0.18028101D-04 -0.40031118D-04  0.16167846D-04  0.31643635D-04 -0.16335910D-05
  0.47831499D-05 -0.20830306D-04 -0.14085909D-04 -0.25404516D-04 -0.37458944D-04
 -0.22916627D-03  0.25121490D-03 -0.57907990D-05  0.10394803D-04 -0.53114854D-04
  0.32773074D-04  0.24315977D-03  0.11820598D-03 -0.70101124D-04 -0.40961484D-04
 -0.61868605D-05  0.55560599D-06 -0.12492453D-03  0.74040854D-04  0.50883678D-04
 -0.40173112D-04  0.15613678D-04 -0.10237329D-03 -0.17645767D-04  0.74232891D-05
  0.10222478D-04  0.31150027D-05 -0.70739873D-06  0.46376137D-05 -0.48484638D-05
 -0.87444042D-05 -0.12893619D-04 -0.22058575D-03  0.29306799D-04  0.77782440D-05
 -0.29749356D-04  0.31296955D-04  0.17587781D-04  0.18981054D-03  0.40887302D-04
 -0.45412756D-04 -0.20158390D-04  0.73422426D-05 -0.14676549D-04 -0.48124693D-04
  0.16750344D-04  0.31374350D-04 -0.16331633D-03 -0.27084816D-04  0.65267110D-04
 -0.32755096D-05 -0.35448101D-05  0.68203198D-05 -0.15883790D-04  0.14108576D-04
 -0.73018912D-05 -0.32687975D-05 -0.58954110D-05 -0.86927800D-05 -0.21723946D-03
  0.11510548D-03  0.13451810D-04 -0.25273569D-04 -0.22181191D-04 -0.48440493D-04
  0.23461517D-03  0.99750001D-04  0.87991850D-05 -0.20761957D-04  0.30957990D-04
  0.10738926D-04 -0.78741661D-04  0.16380172D-04  0.62361489D-04 -0.38812585D-04
  0.17988958D-03  0.71985249D-04 -0.68964439D-05  0.55594068D-05  0.13370372D-05
 -0.25898478D-04  0.23563312D-04  0.76376371D-05
MO    2     MO 0.0        OCC NO =    2.0000000  ORB. ENERGY =  -19.243988
  0.28897421D-04  0.53871363D-04  0.91052093D-04  0.13688112D-03  0.16817427D-03
  0.14205006D-03  0.53576055D-04 -0.26515089D-06 -0.20438781D-04 -0.38267846D-04
 -0.65154282D-04 -0.10078377D-03 -0.13272868D-03 -0.13791360D-03 -0.87637900D-04
  0.58732882D-04  0.59597645D-04 -0.87981227D-03 -0.11126297D-03  0.54469566D-04
  0.51068681D-04  0.36363943D-04 -0.15783289D-04 -0.14797837D-04 -0.10536942D-04
  0.37609494D-04  0.35261292D-04  0.25108140D-04 -0.26127876D-03  0.60402496D-05
 -0.74621373D-04  0.13726502D-03  0.70205436D-04 -0.20269154D-04  0.10712645D-04
  0.16469128D-04 -0.28930553D-05  0.25787080D-04  0.23496144D-05 -0.28136695D-04
  0.70357277D-04 -0.86698338D-04 -0.44395934D-04  0.77148795D-04 -0.67068730D-04
 -0.10080065D-04  0.63724076D-04  0.39853593D-04  0.59318580D-04  0.33407870D-06
 -0.86671070D-05  0.83330283D-05  0.16467097D-04  0.43837167D-04  0.27943403D-04
  0.10555160D-05 -0.21179463D-04  0.24030532D-04 -0.16540256D-04  0.72417889D-04
 -0.65139948D-04  0.13373708D-04 -0.88794993D-05 -0.69516470D-05  0.84314908D-04
  0.11008127D-04 -0.38788046D-05  0.11593217D-04  0.13447993D-04 -0.24527802D-04
  0.54217930D-04 -0.46472373D-04  0.36164216D-04 -0.88997580D-04 -0.68387982D-04
  0.20927039D-03  0.39012758D-03  0.65938434D-03  0.99127066D-03  0.12178905D-02
  0.10287033D-02  0.38798902D-03 -0.19201793D-05 -0.14729419D-03 -0.27578120D-03
 -0.46954110D-03 -0.72630868D-03 -0.95652298D-03 -0.99388865D-03 -0.63157162D-03
  0.42326461D-03 -0.31852720D-03  0.55399735D-03  0.19838568D-03 -0.15740195D-03
 -0.14757433D-03 -0.10508171D-03 -0.78069160D-04 -0.73194800D-04 -0.52119058D-04
 -0.60482176D-03 -0.56705885D-03 -0.40377968D-03  0.54626665D-03  0.32985994D-03
  0.21775571D-02  0.12957088D-03 -0.38474135D-04  0.29361924D-03  0.31280269D-05
 -0.69836366D-07  0.54694295D-05 -0.49886077D-03 -0.50239316D-03  0.10012539D-02
  0.88126928D-04  0.57739392D-03  0.66064887D-03 -0.24171075D-03 -0.23910439D-03
  0.48081513D-03  0.20047088D-03  0.20872048D-03  0.22618053D-03 -0.12664464D-04
  0.79884056D-05  0.46760582D-05  0.30890176D-04  0.15549674D-04  0.54113337D-06
 -0.87442573D-04 -0.55240109D-04  0.19912153D-03  0.62514823D-04 -0.15120514D-03
 -0.29810523D-03  0.19981289D-03  0.31692547D-03 -0.29925935D-03  0.64509812D-04
  0.21272265D-05 -0.62963477D-05  0.12322748D-05 -0.85154042D-05  0.17302600D-04
 -0.77851303D-05  0.21337247D-05  0.15864436D-05  0.40883058D-05  0.14708878D-04
  0.49693193D+00  0.92621718D+00  0.15705575D+01  0.23771119D+01  0.29659416D+01
  0.25473482D+01  0.97797652D+00 -0.43745490D-02  0.19603036D-03  0.36765980D-03
  0.62677936D-03  0.97953414D-03  0.13098238D-02  0.13985864D-02  0.85506832D-03
 -0.56412214D-03  0.54238369D-01 -0.25164291D-02 -0.13222750D-02  0.34460993D-02
  0.33415572D-02  0.22541947D-02 -0.58350444D-02 -0.56580303D-02 -0.38168738D-02
 -0.48768230D-02 -0.47288779D-02 -0.31900731D-02 -0.47685359D-03  0.91347088D-03
  0.11272547D-02 -0.53953473D-03  0.90557011D-03  0.69348576D-03 -0.55075176D-04
  0.59764393D-04  0.64009273D-04 -0.63258851D-03 -0.88428589D-03  0.15168744D-02
 -0.21315752D-02  0.27454893D-02 -0.23265090D-03  0.32535576D-03  0.45966984D-03
 -0.78502561D-03  0.87482275D-03 -0.12575131D-02  0.13900710D-04  0.83829609D-04
  0.55274466D-04 -0.13910407D-03  0.17847191D-03 -0.20026049D-03 -0.26356336D-04
 -0.14606355D-03  0.38728194D-04  0.31056305D-04  0.13053066D-03 -0.10052453D-03
  0.54423084D-04  0.30766000D-03 -0.15660054D-04 -0.14759200D-03 -0.30813385D-03
  0.19486458D-04 -0.12999609D-03  0.26154014D-03 -0.23202157D-03  0.14347205D-03
 -0.44012315D-03  0.17356220D-03  0.24651621D-03 -0.34449728D-03  0.63206204D-03
 -0.37900957D-05 -0.68355938D-05 -0.10079079D-04  0.24232891D-03  0.34176615D-04
  0.19764778D-05  0.57493129D-05  0.30640552D-05 -0.94955899D-05 -0.19441641D-03
 -0.89356314D-04  0.11730445D-03 -0.34176676D-04 -0.29560934D-04  0.60230122D-05
  0.16968423D-03  0.11803498D-04 -0.18148773D-03  0.79206066D-04 -0.65259068D-05
 -0.13784725D-03 -0.99487715D-05  0.79558244D-05  0.19929472D-05  0.19332127D-04
 -0.99817859D-04 -0.27456118D-04 -0.55829820D-06 -0.10069138D-05 -0.14846938D-05
  0.53701649D-03  0.34006270D-03 -0.14262409D-04  0.40490968D-04 -0.32499974D-04
  0.13440251D-04  0.27472775D-03 -0.26268536D-03  0.85486436D-04  0.42083655D-04
 -0.49206840D-04  0.48116502D-04  0.81271807D-04  0.13192287D-03 -0.21319467D-03
 -0.20199509D-03 -0.12463322D-03 -0.72230047D-05  0.16407614D-04  0.76666452D-05
 -0.24074259D-04 -0.35957993D-04  0.16344151D-05 -0.27568222D-04 -0.69139660D-06
 -0.12469622D-05 -0.18386451D-05  0.24241028D-03 -0.74713867D-04 -0.52716836D-05
  0.67668554D-05 -0.23717068D-04 -0.12752557D-04  0.94795985D-04  0.28542445D-03
 -0.17429370D-04  0.10159776D-04  0.27489306D-04  0.22564822D-04  0.27904943D-04
  0.13305172D-03 -0.16095667D-03  0.53634050D-04 -0.60064616D-04 -0.26204872D-03
 -0.41527365D-06  0.33221835D-04 -0.32806562D-04  0.35242325D-04 -0.41114748D-05
  0.43640760D-04  0.36683524D-04  0.68577716D-04  0.11852370D-03  0.19170677D-03
  0.28975356D-03  0.39903820D-03  0.46638314D-03  0.40299022D-03  0.18795607D-03
  0.25520374D-04  0.68337275D-07  0.13404948D-06  0.61199188D-08 -0.49207492D-04
 -0.91897087D-04 -0.15940972D-03 -0.25847734D-03 -0.39795529D-03 -0.56677773D-03
 -0.72880259D-03 -0.76502584D-03 -0.54092748D-03  0.11979066D-04  0.38866339D-03
  0.21400861D-03 -0.90503878D-06  0.16934158D-04  0.31601644D-04  0.54888273D-04
  0.88906824D-04  0.13733502D-03  0.19579171D-03  0.25466106D-03  0.27140004D-03
  0.20129177D-03 -0.62654653D-05 -0.18235986D-03 -0.17864972D-03  0.83440013D-04
 -0.62027100D-03  0.14792088D-02  0.39202590D-03 -0.11702057D-01 -0.15352461D-01
 -0.16839310D-01 -0.13855651D-01 -0.73049732D-02 -0.19004088D-02  0.21029960D-05
  0.11193442D-01  0.14685186D-01  0.16107411D-01  0.13253433D-01  0.69874721D-02
  0.18178100D-02 -0.20115921D-05 -0.72965840D-02 -0.95727209D-02 -0.10499816D-01
 -0.86394148D-02 -0.45548703D-02 -0.11849620D-02  0.13112812D-05  0.10541052D-01
  0.13840466D-01  0.15571457D-01  0.13120130D-01  0.73392167D-02  0.18267161D-02
 -0.83782002D-03 -0.10093002D-01 -0.13252173D-01 -0.14909589D-01 -0.12562456D-01
 -0.70272616D-02 -0.17490711D-02  0.80220829D-03  0.65622447D-02  0.86162672D-02
  0.96938816D-02  0.81678281D-02  0.45689685D-02  0.11372070D-02 -0.52157791D-03
  0.66919383D-03 -0.63309958D-03  0.41758830D-03 -0.15921617D-03  0.31637725D-03
 -0.20647575D-03  0.59861199D-05  0.61253778D-05 -0.10871976D-04  0.11114184D-03
  0.72629617D-05 -0.11840480D-03 -0.62339482D-03  0.45400189D-03 -0.37519441D-03
  0.31269612D-04  0.50466026D-04 -0.81735638D-04 -0.26271348D-03  0.74919731D-04
 -0.14914048D-03  0.54713781D-05 -0.45417365D-08 -0.54668364D-05 -0.11078684D-04
  0.30044840D-04 -0.27931080D-04  0.74617910D-04 -0.89461134D-04  0.13655771D-03
 -0.31612508D-03  0.35869409D-03 -0.22603233D-03  0.92271352D-04 -0.90310689D-04
 -0.18364081D-03  0.77547248D-03  0.26584849D-04 -0.84633102D-05  0.91284986D-05
 -0.41405924D-04  0.59494974D-05 -0.24332234D-05 -0.38348623D-04  0.19440433D-04
 -0.24952272D-04  0.92916224D-04 -0.12781967D-04 -0.23052804D-04 -0.33991346D-04
  0.22976951D-03  0.11381088D-03  0.21189189D-04 -0.85211504D-05  0.41836018D-04
 -0.39208120D-04 -0.24652698D-03 -0.14087835D-04 -0.16119167D-04 -0.34651480D-04
 -0.31986938D-04 -0.30962207D-04  0.79150726D-04 -0.46094496D-04 -0.33056230D-04
 -0.59392756D-04  0.64292746D-04 -0.34369451D-04  0.28597852D-05 -0.72075671D-05
  0.43477819D-05 -0.10682317D-04  0.21356259D-05 -0.72547311D-05 -0.56644228D-05
 -0.10216020D-04 -0.15063515D-04  0.34559550D-03  0.39157812D-04 -0.30749064D-04
  0.32592852D-04 -0.10004160D-04 -0.28107458D-04 -0.40430241D-04 -0.10719759D-03
 -0.21078930D-04 -0.59007237D-04  0.17225943D-05 -0.31706131D-04  0.29391541D-04
  0.20837748D-05 -0.31475316D-04 -0.19155716D-04  0.75736012D-04  0.53726919D-04
  0.18856945D-05  0.14376001D-06 -0.20294545D-05  0.19595398D-05  0.11153243D-04