 Molden2AIM, Version 4.0.0 (06/02/2016)           Time: Fri Jun 29 18:15:26 2018
GAUSSIAN             13 MOL ORBITALS    387 PRIMITIVES        9 NUCLEI
  O    1    (CENTRE  1)  -9.52870588  5.11796983  0.13557084  CHARGE =  8.0
  C    2    (CENTRE  2)  -6.87327029  5.12899827  0.19921115  CHARGE =  6.0
  C    3    (CENTRE  3) -10.47084773  5.61107496 -2.29853814  CHARGE =  6.0
  H    4    (CENTRE  4)  -6.29615171  4.73263578  2.14863183  CHARGE =  1.0
  H    5    (CENTRE  5)  -6.10189920  6.98350557 -0.37403727  CHARGE =  1.0
  H    6    (CENTRE  6)  -6.07187901  3.66554523 -1.05732822  CHARGE =  1.0
  H    7    (CENTRE  7)  -9.86652655  7.48818906 -2.98707497  CHARGE =  1.0
  H    8    (CENTRE  8) -12.53866354  5.56846353 -2.18567046  CHARGE =  1.0
  H    9    (CENTRE  9)  -9.83568622  4.17038745 -3.67105378  CHARGE =  1.0
CENTRE ASSIGNMENTS    1  1  1  1  1  1  1  1  1  1  1  1  1  1  1  1  1  1  1  1
CENTRE ASSIGNMENTS    1  1  1  1  1  1  1  1  1  1  1  1  1  1  1  1  1  1  1  1
CENTRE ASSIGNMENTS    1  1  1  1  1  1  1  1  1  1  1  1  1  1  1  1  1  1  1  1
CENTRE ASSIGNMENTS    1  1  1  1  1  1  1  1  1  1  1  1  1  1  1  2  2  2  2  2
CENTRE ASSIGNMENTS    2  2  2  2  2  2  2  2  2  2  2  2  2  2  2  2  2  2  2  2
CENTRE ASSIGNMENTS    2  2  2  2  2  2  2  2  2  2  2  2  2  2  2  2  2  2  2  2
CENTRE ASSIGNMENTS    2  2  2  2  2  2  2  2  2  2  2  2  2  2  2  2  2  2  2  2
CENTRE ASSIGNMENTS    2  2  2  2  2  2  2  2  2  2  3  3  3  3  3  3  3  3  3  3
CENTRE ASSIGNMENTS    3  3  3  3  3  3  3  3  3  3  3  3  3  3  3  3  3  3  3  3
CENTRE ASSIGNMENTS    3  3  3  3  3  3  3  3  3  3  3  3  3  3  3  3  3  3  3  3
CENTRE ASSIGNMENTS    3  3  3  3  3  3  3  3  3  3  3  3  3  3  3  3  3  3  3  3
CENTRE ASSIGNMENTS    3  3  3  3  3  4  4  4  4  4  4  4  4  4  4  4  4  4  4  4
CENTRE ASSIGNMENTS    4  4  4  4  4  4  4  4  4  4  4  4  5  5  5  5  5  5  5  5
CENTRE ASSIGNMENTS    5  5  5  5  5  5  5  5  5  5  5  5  5  5  5  5  5  5  5  6
CENTRE ASSIGNMENTS    6  6  6  6  6  6  6  6  6  6  6  6  6  6  6  6  6  6  6  6
CENTRE ASSIGNMENTS    6  6  6  6  6  6  7  7  7  7  7  7  7  7  7  7  7  7  7  7
CENTRE ASSIGNMENTS    7  7  7  7  7  7  7  7  7  7  7  7  7  8  8  8  8  8  8  8
CENTRE ASSIGNMENTS    8  8  8  8  8  8  8  8  8  8  8  8  8  8  8  8  8  8  8  8
CENTRE ASSIGNMENTS    9  9  9  9  9  9  9  9  9  9  9  9  9  9  9  9  9  9  9  9
CENTRE ASSIGNMENTS    9  9  9  9  9  9  9
TYPE ASSIGNMENTS      1  1  1  1  1  1  1  1  1  1  1  1  1  1  1  1  1  1  1  2
TYPE ASSIGNMENTS      2  2  3  3  3  4  4  4  2  3  4  2  3  4  2  3  4  5  6  7
TYPE ASSIGNMENTS      8  9 10  5  6  7  8  9 10  5  6  7  8  9 10 11 12 13 17 14
TYPE ASSIGNMENTS     15 18 19 16 20 11 12 13 17 14 15 18 19 16 20  1  1  1  1  1
TYPE ASSIGNMENTS      1  1  1  1  1  1  1  1  1  1  1  1  1  1  2  2  2  3  3  3
TYPE ASSIGNMENTS      4  4  4  2  3  4  2  3  4  2  3  4  5  6  7  8  9 10  5  6
TYPE ASSIGNMENTS      7  8  9 10  5  6  7  8  9 10 11 12 13 17 14 15 18 19 16 20
TYPE ASSIGNMENTS     11 12 13 17 14 15 18 19 16 20  1  1  1  1  1  1  1  1  1  1
TYPE ASSIGNMENTS      1  1  1  1  1  1  1  1  1  2  2  2  3  3  3  4  4  4  2  3
TYPE ASSIGNMENTS      4  2  3  4  2  3  4  5  6  7  8  9 10  5  6  7  8  9 10  5
TYPE ASSIGNMENTS      6  7  8  9 10 11 12 13 17 14 15 18 19 16 20 11 12 13 17 14
TYPE ASSIGNMENTS     15 18 19 16 20  1  1  1  1  1  1  2  3  4  2  3  4  2  3  4
TYPE ASSIGNMENTS      5  6  7  8  9 10  5  6  7  8  9 10  1  1  1  1  1  1  2  3
TYPE ASSIGNMENTS      4  2  3  4  2  3  4  5  6  7  8  9 10  5  6  7  8  9 10  1
TYPE ASSIGNMENTS      1  1  1  1  1  2  3  4  2  3  4  2  3  4  5  6  7  8  9 10
TYPE ASSIGNMENTS      5  6  7  8  9 10  1  1  1  1  1  1  2  3  4  2  3  4  2  3
TYPE ASSIGNMENTS      4  5  6  7  8  9 10  5  6  7  8  9 10  1  1  1  1  1  1  2
TYPE ASSIGNMENTS      3  4  2  3  4  2  3  4  5  6  7  8  9 10  5  6  7  8  9 10
TYPE ASSIGNMENTS      1  1  1  1  1  1  2  3  4  2  3  4  2  3  4  5  6  7  8  9
TYPE ASSIGNMENTS     10  5  6  7  8  9 10
EXPONENTS  0.1533000D+05 0.2299000D+04 0.5224000D+03 0.1473000D+03 0.4755000D+02
EXPONENTS  0.1676000D+02 0.6207000D+01 0.6882000D+00 0.1533000D+05 0.2299000D+04
EXPONENTS  0.5224000D+03 0.1473000D+03 0.4755000D+02 0.1676000D+02 0.6207000D+01
EXPONENTS  0.6882000D+00 0.1752000D+01 0.2384000D+00 0.7376000D-01 0.3446000D+02
EXPONENTS  0.7749000D+01 0.2280000D+01 0.3446000D+02 0.7749000D+01 0.2280000D+01
EXPONENTS  0.3446000D+02 0.7749000D+01 0.2280000D+01 0.7156000D+00 0.7156000D+00
EXPONENTS  0.7156000D+00 0.2140000D+00 0.2140000D+00 0.2140000D+00 0.5974000D-01
EXPONENTS  0.5974000D-01 0.5974000D-01 0.2314000D+01 0.2314000D+01 0.2314000D+01
EXPONENTS  0.2314000D+01 0.2314000D+01 0.2314000D+01 0.6450000D+00 0.6450000D+00
EXPONENTS  0.6450000D+00 0.6450000D+00 0.6450000D+00 0.6450000D+00 0.2140000D+00
EXPONENTS  0.2140000D+00 0.2140000D+00 0.2140000D+00 0.2140000D+00 0.2140000D+00
EXPONENTS  0.1428000D+01 0.1428000D+01 0.1428000D+01 0.1428000D+01 0.1428000D+01
EXPONENTS  0.1428000D+01 0.1428000D+01 0.1428000D+01 0.1428000D+01 0.1428000D+01
EXPONENTS  0.5000000D+00 0.5000000D+00 0.5000000D+00 0.5000000D+00 0.5000000D+00
EXPONENTS  0.5000000D+00 0.5000000D+00 0.5000000D+00 0.5000000D+00 0.5000000D+00
EXPONENTS  0.8236000D+04 0.1235000D+04 0.2808000D+03 0.7927000D+02 0.2559000D+02
EXPONENTS  0.8997000D+01 0.3319000D+01 0.3643000D+00 0.8236000D+04 0.1235000D+04
EXPONENTS  0.2808000D+03 0.7927000D+02 0.2559000D+02 0.8997000D+01 0.3319000D+01
EXPONENTS  0.3643000D+00 0.9059000D+00 0.1285000D+00 0.4402000D-01 0.1871000D+02
EXPONENTS  0.4133000D+01 0.1200000D+01 0.1871000D+02 0.4133000D+01 0.1200000D+01
EXPONENTS  0.1871000D+02 0.4133000D+01 0.1200000D+01 0.3827000D+00 0.3827000D+00
EXPONENTS  0.3827000D+00 0.1209000D+00 0.1209000D+00 0.1209000D+00 0.3569000D-01
EXPONENTS  0.3569000D-01 0.3569000D-01 0.1097000D+01 0.1097000D+01 0.1097000D+01
EXPONENTS  0.1097000D+01 0.1097000D+01 0.1097000D+01 0.3180000D+00 0.3180000D+00
EXPONENTS  0.3180000D+00 0.3180000D+00 0.3180000D+00 0.3180000D+00 0.1000000D+00
EXPONENTS  0.1000000D+00 0.1000000D+00 0.1000000D+00 0.1000000D+00 0.1000000D+00
EXPONENTS  0.7610000D+00 0.7610000D+00 0.7610000D+00 0.7610000D+00 0.7610000D+00
EXPONENTS  0.7610000D+00 0.7610000D+00 0.7610000D+00 0.7610000D+00 0.7610000D+00
EXPONENTS  0.2680000D+00 0.2680000D+00 0.2680000D+00 0.2680000D+00 0.2680000D+00
EXPONENTS  0.2680000D+00 0.2680000D+00 0.2680000D+00 0.2680000D+00 0.2680000D+00
EXPONENTS  0.8236000D+04 0.1235000D+04 0.2808000D+03 0.7927000D+02 0.2559000D+02
EXPONENTS  0.8997000D+01 0.3319000D+01 0.3643000D+00 0.8236000D+04 0.1235000D+04
EXPONENTS  0.2808000D+03 0.7927000D+02 0.2559000D+02 0.8997000D+01 0.3319000D+01
EXPONENTS  0.3643000D+00 0.9059000D+00 0.1285000D+00 0.4402000D-01 0.1871000D+02
EXPONENTS  0.4133000D+01 0.1200000D+01 0.1871000D+02 0.4133000D+01 0.1200000D+01
EXPONENTS  0.1871000D+02 0.4133000D+01 0.1200000D+01 0.3827000D+00 0.3827000D+00
EXPONENTS  0.3827000D+00 0.1209000D+00 0.1209000D+00 0.1209000D+00 0.3569000D-01
EXPONENTS  0.3569000D-01 0.3569000D-01 0.1097000D+01 0.1097000D+01 0.1097000D+01
EXPONENTS  0.1097000D+01 0.1097000D+01 0.1097000D+01 0.3180000D+00 0.3180000D+00
EXPONENTS  0.3180000D+00 0.3180000D+00 0.3180000D+00 0.3180000D+00 0.1000000D+00
EXPONENTS  0.1000000D+00 0.1000000D+00 0.1000000D+00 0.1000000D+00 0.1000000D+00
EXPONENTS  0.7610000D+00 0.7610000D+00 0.7610000D+00 0.7610000D+00 0.7610000D+00
EXPONENTS  0.7610000D+00 0.7610000D+00 0.7610000D+00 0.7610000D+00 0.7610000D+00
EXPONENTS  0.2680000D+00 0.2680000D+00 0.2680000D+00 0.2680000D+00 0.2680000D+00
EXPONENTS  0.2680000D+00 0.2680000D+00 0.2680000D+00 0.2680000D+00 0.2680000D+00
EXPONENTS  0.3387000D+02 0.5095000D+01 0.1159000D+01 0.3258000D+00 0.1027000D+00
EXPONENTS  0.2526000D-01 0.1407000D+01 0.1407000D+01 0.1407000D+01 0.3880000D+00
EXPONENTS  0.3880000D+00 0.3880000D+00 0.1020000D+00 0.1020000D+00 0.1020000D+00
EXPONENTS  0.1057000D+01 0.1057000D+01 0.1057000D+01 0.1057000D+01 0.1057000D+01
EXPONENTS  0.1057000D+01 0.2470000D+00 0.2470000D+00 0.2470000D+00 0.2470000D+00
EXPONENTS  0.2470000D+00 0.2470000D+00 0.3387000D+02 0.5095000D+01 0.1159000D+01
EXPONENTS  0.3258000D+00 0.1027000D+00 0.2526000D-01 0.1407000D+01 0.1407000D+01
EXPONENTS  0.1407000D+01 0.3880000D+00 0.3880000D+00 0.3880000D+00 0.1020000D+00
EXPONENTS  0.1020000D+00 0.1020000D+00 0.1057000D+01 0.1057000D+01 0.1057000D+01
EXPONENTS  0.1057000D+01 0.1057000D+01 0.1057000D+01 0.2470000D+00 0.2470000D+00
EXPONENTS  0.2470000D+00 0.2470000D+00 0.2470000D+00 0.2470000D+00 0.3387000D+02
EXPONENTS  0.5095000D+01 0.1159000D+01 0.3258000D+00 0.1027000D+00 0.2526000D-01
EXPONENTS  0.1407000D+01 0.1407000D+01 0.1407000D+01 0.3880000D+00 0.3880000D+00
EXPONENTS  0.3880000D+00 0.1020000D+00 0.1020000D+00 0.1020000D+00 0.1057000D+01
EXPONENTS  0.1057000D+01 0.1057000D+01 0.1057000D+01 0.1057000D+01 0.1057000D+01
EXPONENTS  0.2470000D+00 0.2470000D+00 0.2470000D+00 0.2470000D+00 0.2470000D+00
EXPONENTS  0.2470000D+00 0.3387000D+02 0.5095000D+01 0.1159000D+01 0.3258000D+00
EXPONENTS  0.1027000D+00 0.2526000D-01 0.1407000D+01 0.1407000D+01 0.1407000D+01
EXPONENTS  0.3880000D+00 0.3880000D+00 0.3880000D+00 0.1020000D+00 0.1020000D+00
EXPONENTS  0.1020000D+00 0.1057000D+01 0.1057000D+01 0.1057000D+01 0.1057000D+01
EXPONENTS  0.1057000D+01 0.1057000D+01 0.2470000D+00 0.2470000D+00 0.2470000D+00
EXPONENTS  0.2470000D+00 0.2470000D+00 0.2470000D+00 0.3387000D+02 0.5095000D+01
EXPONENTS  0.1159000D+01 0.3258000D+00 0.1027000D+00 0.2526000D-01 0.1407000D+01
EXPONENTS  0.1407000D+01 0.1407000D+01 0.3880000D+00 0.3880000D+00 0.3880000D+00
EXPONENTS  0.1020000D+00 0.1020000D+00 0.1020000D+00 0.1057000D+01 0.1057000D+01
EXPONENTS  0.1057000D+01 0.1057000D+01 0.1057000D+01 0.1057000D+01 0.2470000D+00
EXPONENTS  0.2470000D+00 0.2470000D+00 0.2470000D+00 0.2470000D+00 0.2470000D+00
EXPONENTS  0.3387000D+02 0.5095000D+01 0.1159000D+01 0.3258000D+00 0.1027000D+00
EXPONENTS  0.2526000D-01 0.1407000D+01 0.1407000D+01 0.1407000D+01 0.3880000D+00
EXPONENTS  0.3880000D+00 0.3880000D+00 0.1020000D+00 0.1020000D+00 0.1020000D+00
EXPONENTS  0.1057000D+01 0.1057000D+01 0.1057000D+01 0.1057000D+01 0.1057000D+01
EXPONENTS  0.1057000D+01 0.2470000D+00 0.2470000D+00 0.2470000D+00 0.2470000D+00
EXPONENTS  0.2470000D+00 0.2470000D+00
MO    1     MO 0.0        OCC NO =    2.0000000  ORB. ENERGY =  -19.216545
  0.49692435D+00  0.92620306D+00  0.15705335D+01  0.23770756D+01  0.29658963D+01
  0.25473094D+01  0.97796161D+00 -0.43744823D-02  0.18265161D-03  0.34256763D-03
  0.58400271D-03  0.91268256D-03  0.12204305D-02  0.13031352D-02  0.79671132D-03
 -0.52562174D-03  0.54425543D-01 -0.28497143D-02 -0.14213307D-02  0.50514043D-02
  0.48981630D-02  0.33042718D-02  0.14864244D-02  0.14413316D-02  0.97231381D-03
 -0.69888589D-02 -0.67768422D-02 -0.45716177D-02 -0.96243275D-03 -0.28321647D-03
  0.13317037D-02 -0.80791247D-03 -0.23768420D-03  0.11176377D-02 -0.59278532D-04
 -0.17443379D-04  0.82027954D-04  0.17169906D-02 -0.22972884D-02  0.58029787D-03
 -0.50701034D-03  0.28249586D-02 -0.12109423D-02 -0.83549804D-03  0.11112950D-02
 -0.27579700D-03  0.25097064D-03 -0.13947326D-02  0.58336921D-03 -0.92406273D-04
  0.13818680D-03 -0.45780525D-04  0.17867107D-04 -0.10796953D-03  0.78100792D-04
 -0.55483133D-04  0.31355168D-04  0.38398491D-04  0.10935982D-03 -0.67455079D-05
  0.15472886D-04  0.57089580D-04 -0.87319997D-04 -0.13066836D-03  0.25941952D-04
 -0.35136831D-03  0.53212889D-04  0.13500561D-03  0.21885998D-03  0.25720908D-04
 -0.18812686D-03  0.83524495D-03 -0.18535958D-03 -0.21688997D-03 -0.26377303D-03
  0.23562747D-03  0.43926319D-03  0.74243217D-03  0.11161187D-02  0.13712808D-02
  0.11582659D-02  0.43685527D-03 -0.21620211D-05 -0.16828137D-03 -0.31507582D-03
 -0.53644354D-03 -0.82979658D-03 -0.10928129D-02 -0.11355026D-02 -0.72156093D-03
  0.48357336D-03 -0.27467165D-03  0.67064398D-03  0.19697926D-03  0.49885448D-03
  0.46770778D-03  0.33303580D-03  0.81252606D-07  0.76179483D-07  0.54244330D-07
  0.21876436D-04  0.20510549D-04  0.14604733D-04 -0.23315209D-02 -0.20296519D-04
 -0.51838399D-05 -0.34886206D-03  0.48025241D-04 -0.24830646D-03 -0.54371501D-05
  0.87358418D-06 -0.44668307D-05  0.12374940D-02 -0.64530744D-03 -0.59218659D-03
  0.46816146D-04 -0.61067655D-04 -0.23483169D-04  0.40937932D-03 -0.16044358D-03
 -0.24893574D-03  0.90361705D-05  0.60850372D-05  0.38265538D-04  0.16419759D-04
  0.89228382D-05 -0.25342597D-04  0.10508490D-05 -0.46806573D-05  0.14684811D-04
 -0.20375900D-03 -0.70828909D-05 -0.69762169D-04  0.29800363D-03 -0.46489638D-04
  0.17220303D-03  0.31327337D-03  0.67738311D-04  0.37083480D-04 -0.40609856D-05
  0.56273731D-05  0.85919573D-05  0.16537440D-04 -0.13751830D-04  0.30083006D-05
 -0.12354899D-04 -0.31302892D-05 -0.28784172D-04 -0.37257420D-04 -0.39485785D-05
  0.23561868D-03  0.43924678D-03  0.74240444D-03  0.11160771D-02  0.13712296D-02
  0.11582226D-02  0.43683896D-03 -0.21619404D-05 -0.16827387D-03 -0.31506178D-03
 -0.53641964D-03 -0.82975962D-03 -0.10927642D-02 -0.11354520D-02 -0.72152880D-03
  0.48355182D-03 -0.27469041D-03  0.67016179D-03  0.19697869D-03 -0.18658590D-03
 -0.17493614D-03 -0.12456496D-03  0.91852761D-04  0.86117802D-04  0.61321005D-04
 -0.45408681D-03 -0.42573524D-03 -0.30314886D-03  0.77838464D-03 -0.43669377D-03
  0.21539580D-02  0.35472500D-03 -0.46306581D-04  0.24015391D-03  0.61035486D-05
 -0.67975751D-06  0.35432151D-05 -0.40830116D-03 -0.58035215D-03  0.98865330D-03
 -0.21678951D-03  0.10732641D-02 -0.66486689D-03 -0.17795302D-03 -0.13731047D-03
  0.31526349D-03 -0.85147354D-04  0.41109616D-03 -0.19077931D-03 -0.23547506D-04
  0.10495645D-04  0.13051861D-04 -0.53669083D-05  0.22860676D-04 -0.88617987D-06
 -0.39421428D-04  0.48250151D-04  0.16644626D-03 -0.13249855D-03  0.62233570D-04
 -0.29388892D-03  0.25076283D-03 -0.20698402D-03 -0.20544986D-03 -0.16570235D-03
 -0.14424343D-04  0.87249981D-06 -0.71120845D-05  0.45708875D-04 -0.61592654D-05
  0.23643085D-04 -0.24358450D-05  0.35417660D-05 -0.23068311D-05  0.21284182D-04
  0.17409049D-05  0.31397936D-05  0.46296239D-05  0.33934656D-03  0.54156381D-03
 -0.11237232D-04 -0.79219907D-04  0.12764544D-04 -0.65409688D-04  0.89649047D-04
  0.52511147D-04 -0.25137309D-03 -0.35257546D-04  0.16932942D-04 -0.83734702D-04
 -0.22908689D-03  0.47847403D-04  0.18123948D-03  0.35494485D-04 -0.19610296D-03
 -0.59242515D-04 -0.37303486D-04  0.11476913D-04  0.25826573D-04  0.91501858D-06
 -0.86118655D-05 -0.62461440D-05  0.12450941D-07  0.22455786D-07  0.33111043D-07
  0.15020191D-03 -0.54377416D-04 -0.64553266D-05  0.13177408D-04  0.51684282D-05
 -0.18904003D-04  0.16677107D-04 -0.28790805D-03  0.94993836D-04 -0.29028243D-04
 -0.15760651D-04 -0.12107676D-04 -0.23989685D-03  0.20944907D-03  0.30447779D-04
 -0.12964070D-03  0.64775886D-04 -0.10528457D-03 -0.26227947D-04  0.29953626D-04
 -0.37256782D-05  0.64976196D-04 -0.10809863D-04 -0.16428002D-04  0.17177380D-07
  0.30980112D-07  0.45680157D-07  0.14986758D-03 -0.54249540D-04 -0.64323664D-05
  0.13202323D-04  0.28920016D-05 -0.19387736D-04  0.12287094D-04  0.22713519D-03
  0.20095832D-03 -0.29408537D-04  0.18767836D-04 -0.50482641D-05 -0.24183702D-03
  0.14483428D-03  0.97002735D-04  0.79489021D-04  0.10485705D-03  0.20447048D-03
 -0.25103817D-04  0.17734703D-04  0.73691132D-05 -0.57053377D-04 -0.36366390D-04
  0.34911219D-04  0.24242434D-07  0.43722228D-07  0.64468400D-07  0.15014894D-03
 -0.54120261D-04 -0.64303735D-05  0.14042732D-04  0.50845604D-05 -0.18279950D-04
 -0.14479910D-03 -0.26621091D-03 -0.17437239D-04  0.18147704D-04 -0.22093438D-04
  0.20656546D-04  0.51171274D-04  0.15846847D-03 -0.20963974D-03  0.21192124D-03
 -0.78940184D-04  0.20557851D-03 -0.96128726D-05  0.36724433D-04 -0.27111561D-04
  0.12040201D-04 -0.32875692D-04 -0.47072568D-04  0.17401040D-05  0.31383493D-05
  0.46274942D-05  0.33949279D-03  0.54168564D-03 -0.11234093D-04  0.89262822D-04
 -0.97927456D-05  0.51557545D-04  0.21225126D-03  0.36227626D-04 -0.16609610D-03
  0.92312417D-04 -0.14284209D-06  0.48430730D-05  0.78574267D-04  0.35729888D-04
 -0.11430415D-03  0.84820839D-04 -0.40793418D-03  0.60490120D-04  0.16671993D-04
  0.93433609D-05 -0.26015354D-04  0.95484402D-05 -0.45784413D-04  0.14787742D-04
  0.93432231D-08  0.16850888D-07  0.24846624D-07  0.15028881D-03 -0.54397432D-04
 -0.64613704D-05  0.14036447D-04  0.28324879D-05 -0.18795931D-04 -0.14962434D-03
  0.24874299D-03  0.88968333D-04  0.17761845D-04  0.12436492D-04  0.27715405D-04
  0.54734775D-04  0.17254098D-03 -0.22727575D-03 -0.16826580D-03 -0.15652081D-03
  0.12282678D-03 -0.95353961D-05  0.96753784D-05 -0.13998225D-06  0.98252568D-06
 -0.36475959D-04  0.78125774D-04
MO    2     MO 0.0        OCC NO =    2.0000000  ORB. ENERGY =  -10.264535
  0.55287057D-04  0.10304796D-03  0.17473520D-03  0.26446986D-03  0.32998117D-03
  0.28340982D-03  0.10880654D-03 -0.48669833D-06 -0.66637943D-04 -0.12498111D-03
 -0.21306540D-03 -0.33297975D-03 -0.44525737D-03 -0.47543106D-03 -0.29066923D-03
  0.19176590D-03  0.29369434D-03  0.14354582D-02  0.22613965D-03 -0.74954780D-03
 -0.72680924D-03 -0.49030122D-03  0.25011185D-03  0.24252436D-03  0.16360550D-03
 -0.12460352D-02 -0.12082350D-02 -0.81506821D-03 -0.60310507D-04 -0.90651334D-06
  0.12342324D-05 -0.48423536D-03  0.21443176D-03 -0.10611809D-02 -0.56343683D-04
  0.13452066D-04 -0.67655700D-04 -0.10898720D-02 -0.37863275D-03  0.14685048D-02
 -0.45248683D-03  0.21389477D-02 -0.77402354D-03  0.63973682D-03  0.22214345D-03
 -0.86188027D-03  0.24974375D-03 -0.11786611D-02  0.45502676D-03  0.11588540D-03
  0.44835240D-04 -0.16072064D-03  0.12852918D-03 -0.61834042D-03  0.82189194D-04
  0.39970403D-03  0.18183673D-03 -0.49297650D-04 -0.13994639D-02 -0.17200770D-03
  0.10191650D-02  0.20035184D-03 -0.37350248D-03 -0.87127206D-03 -0.64905751D-03
 -0.21572495D-03  0.69106186D-04  0.46239858D-03  0.24945133D-04  0.22518008D-03
 -0.11214975D-02  0.62222972D-03 -0.43249864D-03 -0.26569828D-03 -0.27213981D-03
 -0.90063503D-01 -0.16789885D+00 -0.28377863D+00 -0.42661223D+00 -0.52414242D+00
 -0.44272206D+00 -0.16697847D+00  0.82638579D-03  0.74951823D-03  0.14033346D-02
  0.23892973D-02  0.36958796D-02  0.48673434D-02  0.50574815D-02  0.32138025D-02
 -0.21538157D-02 -0.91096885D-02  0.20207541D-02  0.27957748D-03  0.15471081D-03
  0.14505122D-03  0.10328511D-03  0.96430707D-04  0.90409917D-04  0.64377247D-04
 -0.46123526D-03 -0.43243737D-03 -0.30792117D-03 -0.28469090D-03 -0.21154747D-03
  0.10159231D-02 -0.31679698D-03 -0.20297569D-03  0.97009508D-03 -0.41553608D-04
 -0.27100499D-05  0.11239322D-04  0.15667931D-03 -0.72203526D-04 -0.84475788D-04
  0.58596758D-04 -0.26618022D-03  0.23891828D-05 -0.37646723D-04 -0.91836465D-04
  0.12948319D-03  0.16520760D-03 -0.79379112D-03 -0.10309464D-03  0.15779285D-04
 -0.38842474D-04  0.23063190D-04  0.24381230D-04 -0.11287131D-03 -0.27587192D-04
  0.31002341D-03 -0.16430376D-03 -0.54387204D-03 -0.62222604D-03 -0.18174266D-03
  0.97902842D-03 -0.30784418D-03  0.67465393D-03  0.65258769D-03 -0.13222696D-03
 -0.90394762D-04  0.68540762D-04  0.12017660D-03  0.15146884D-03  0.10182037D-04
 -0.74457936D-04  0.11971545D-03 -0.21580432D-03 -0.28607187D-03  0.18642271D-04
  0.31704184D+00  0.59103806D+00  0.99895845D+00  0.15017618D+01  0.18450878D+01
  0.15584716D+01  0.58779816D+00 -0.29090459D-02 -0.28137514D-02 -0.52682304D-02
 -0.89696130D-02 -0.13874627D-01 -0.18272396D-01 -0.18986190D-01 -0.12064872D-01
  0.80855963D-02  0.32810308D-01 -0.35107246D-02 -0.42138154D-03  0.55797168D-03
  0.52313392D-03  0.37250251D-03 -0.40059309D-03 -0.37558148D-03 -0.26743639D-03
  0.19687614D-02  0.18458389D-02  0.13143473D-02 -0.16112833D-03  0.34630263D-03
 -0.16895066D-02  0.72692485D-03  0.12198377D-03 -0.55841548D-03 -0.20966019D-04
  0.61998201D-05 -0.30973070D-04  0.36923267D-03 -0.20829739D-04 -0.34840294D-03
  0.85649934D-04 -0.38047790D-03  0.13691195D-03 -0.39820354D-03  0.61667141D-03
 -0.21846787D-03 -0.12227463D-04 -0.36171925D-04  0.35958586D-03 -0.86001381D-05
  0.77380531D-04 -0.68780393D-04 -0.14545064D-04  0.62450799D-04  0.63581472D-04
 -0.15683282D-02  0.57516485D-03  0.59311818D-03  0.25290038D-02 -0.21608219D-03
  0.60395583D-03  0.21759807D-02 -0.15094124D-02 -0.23833104D-02  0.22158881D-03
  0.40139797D-03 -0.12875138D-03 -0.12131955D-03 -0.70940495D-03  0.58708760D-04
 -0.16401224D-03 -0.49478894D-03  0.32754537D-03  0.52797088D-03 -0.10831864D-03
  0.31156762D-04  0.56192503D-04  0.82855812D-04 -0.12133428D-02 -0.14830288D-02
 -0.35018980D-04 -0.33560894D-03  0.74792910D-04 -0.37882301D-03  0.43871434D-03
  0.49550016D-04 -0.21892074D-03  0.22216586D-03 -0.31307220D-04  0.16123694D-03
 -0.30185876D-03 -0.13935667D-03  0.44121543D-03 -0.83930712D-04  0.39499374D-03
 -0.24599916D-03 -0.38904401D-04 -0.42099937D-04  0.81004338D-04  0.37139407D-05
 -0.17288555D-04 -0.53195335D-04 -0.56175735D-05 -0.10131525D-04 -0.14938928D-04
 -0.33262244D-03  0.39786170D-03  0.46784876D-04 -0.36099886D-03 -0.49612782D-03
  0.18868635D-03 -0.70360607D-04 -0.42910150D-03  0.10958142D-03 -0.37186144D-04
 -0.82769462D-04  0.81789893D-04 -0.24125907D-03  0.48848602D-03 -0.24722695D-03
  0.70425867D-03 -0.14405956D-03 -0.48422503D-03 -0.72695035D-04  0.62727112D-04
  0.99679227D-05  0.95347955D-04 -0.30896420D-04 -0.88496697D-04 -0.55845719D-05
 -0.10072005D-04 -0.14851166D-04 -0.33213348D-03  0.39719279D-03  0.46709154D-04
 -0.36877223D-03  0.37473837D-03  0.36802261D-03 -0.76916331D-04  0.34980578D-03
  0.27073220D-03 -0.38196566D-04  0.42968594D-04  0.10788112D-03 -0.22964094D-03
  0.18766473D-03  0.41976208D-04 -0.60762156D-03 -0.42775276D-03  0.85802545D-03
 -0.71083052D-04  0.20992245D-04  0.50090807D-04 -0.79005854D-04 -0.68614131D-04
  0.97749248D-04  0.31995755D-04  0.57705662D-04  0.85086965D-04  0.67589350D-04
 -0.52386630D-03 -0.25959394D-04  0.46910150D-03  0.16061329D-02 -0.59667824D-03
  0.88655852D-03  0.18348523D-02 -0.70626441D-03  0.15284499D-03  0.16375383D-03
 -0.18932579D-03  0.89209535D-03 -0.17548764D-02  0.86278101D-03 -0.19557983D-02
  0.85163250D-03  0.22623242D-02  0.71030258D-04 -0.20338538D-03  0.13235513D-03
 -0.26005180D-03  0.20990702D-03  0.34229291D-03  0.68669960D-06  0.12384910D-05
  0.18261543D-05  0.20760404D-02  0.15722580D-02 -0.30811761D-05 -0.16953766D-02
 -0.38259584D-04  0.10887906D-03 -0.14497899D-02 -0.10200379D-03  0.42792222D-03
  0.11134486D-03 -0.15354506D-04  0.79609030D-04 -0.24265853D-02  0.11061408D-02
  0.13204445D-02 -0.24324743D-03  0.85915199D-03 -0.83297758D-04 -0.34571058D-03
  0.11220616D-03  0.23350442D-03 -0.17123375D-04  0.41833810D-04 -0.51706774D-04
  0.31944690D-04  0.57613564D-04  0.84951166D-04  0.66894384D-04 -0.52381607D-03
 -0.25921224D-04  0.49545092D-03 -0.12306199D-02 -0.11815251D-02  0.91696137D-03
 -0.13901496D-02 -0.13710105D-02  0.15517936D-03 -0.72807435D-04 -0.23808649D-03
  0.85972878D-03 -0.49714865D-03 -0.36258013D-03  0.15215758D-02  0.16263757D-02
 -0.34223980D-02  0.67127743D-04 -0.23723648D-04 -0.43404095D-04  0.16105542D-03
  0.30502414D-03 -0.47313968D-03
MO    3     MO 0.0        OCC NO =    2.0000000  ORB. ENERGY =  -10.264532
  0.99188584D-04  0.18487476D-03  0.31348633D-03  0.47447617D-03  0.59200772D-03
  0.50845568D-03  0.19520602D-03 -0.87316852D-06 -0.11956489D-03 -0.22424692D-03
 -0.38229184D-03 -0.59744774D-03 -0.79890146D-03 -0.85304051D-03 -0.52153224D-03
  0.34407530D-03  0.52706765D-03  0.25756366D-02  0.40566806D-03  0.12392754D-02
  0.12016803D-02  0.81064642D-03  0.10235271D-03  0.99247699D-04  0.66951911D-04
 -0.44194777D-03 -0.42854068D-03 -0.28909101D-03 -0.15503598D-04 -0.13909265D-04
  0.66868860D-04  0.10903575D-02  0.12178921D-03 -0.54363701D-03  0.63678292D-04
  0.20094492D-05 -0.69932420D-05  0.16073117D-02 -0.81987600D-03 -0.78743570D-03
 -0.24028909D-03  0.13820248D-02 -0.23153257D-06 -0.91463136D-03  0.48002112D-03
  0.43461024D-03  0.11723907D-03 -0.69327469D-03  0.12631377D-04 -0.32283053D-03
  0.10133588D-03  0.22149465D-03  0.14561264D-03 -0.74370925D-03 -0.59003889D-04
  0.20877271D-04 -0.11105940D-03 -0.45972784D-04  0.71728342D-03  0.65654845D-04
 -0.38388561D-03 -0.77991523D-03  0.26752335D-03  0.52180397D-03  0.62459555D-03
 -0.70962484D-03  0.76361688D-04  0.53106070D-04  0.46751432D-03 -0.59916433D-04
  0.15946459D-03  0.16613602D-02 -0.16916863D-03 -0.31878280D-03 -0.50313995D-03
  0.31707909D+00  0.59110752D+00  0.99907585D+00  0.15019383D+01  0.18453047D+01
  0.15586548D+01  0.58786724D+00 -0.29093878D-02 -0.28449354D-02 -0.53266166D-02
 -0.90690206D-02 -0.14028396D-01 -0.18474904D-01 -0.19196608D-01 -0.12198583D-01
  0.81752066D-02  0.32944787D-01 -0.28792039D-02 -0.32252828D-03 -0.23500988D-02
 -0.22033670D-02 -0.15689286D-02  0.43903340D-05  0.41162172D-05  0.29309918D-05
 -0.12400306D-03 -0.11626075D-03 -0.82784584D-04  0.17983316D-02 -0.14008096D-04
  0.14460623D-03  0.15271947D-03  0.85334883D-04 -0.40802315D-03  0.17534390D-04
 -0.34795539D-05  0.17667515D-04 -0.37731354D-03 -0.33375467D-04  0.41068901D-03
 -0.86921003D-05  0.13826708D-04 -0.19151905D-03 -0.35429914D-03  0.66281330D-03
 -0.30851415D-03  0.10991239D-03 -0.62753568D-03  0.41209321D-03 -0.46457362D-04
  0.68790626D-04 -0.22333264D-04 -0.93616509D-05  0.35419396D-04  0.39748770D-04
 -0.13045464D-02  0.67270737D-03  0.95200857D-03  0.18007645D-02 -0.60856387D-04
 -0.34877860D-04  0.21128746D-02 -0.19572657D-02 -0.28211478D-02 -0.68392696D-04
  0.26877633D-03 -0.16150027D-03 -0.26350462D-03 -0.33267964D-03 -0.96628152D-05
  0.11218446D-03 -0.47364935D-03  0.49416361D-03  0.67832939D-03  0.46871831D-04
  0.90194366D-01  0.16814281D+00  0.28419096D+00  0.42723210D+00  0.52490400D+00
  0.44336534D+00  0.16722109D+00 -0.82758653D-03 -0.85904163D-03 -0.16083970D-02
 -0.27384335D-02 -0.42359402D-02 -0.55785842D-02 -0.57965063D-02 -0.36834195D-02
  0.24685421D-02  0.95820933D-02  0.20490052D-03  0.68097437D-04  0.80680577D-03
  0.75643169D-03  0.53862443D-03 -0.17193241D-03 -0.16119756D-03 -0.11478227D-03
  0.86959163D-03  0.81529743D-03  0.58054034D-03 -0.11383594D-02  0.59320091D-04
 -0.33901772D-03 -0.52464885D-03 -0.82194430D-04  0.37745999D-03 -0.94784272D-05
 -0.63480741D-05  0.30403030D-04  0.59849876D-04 -0.83997595D-04  0.24147720D-04
  0.65555322D-04 -0.30512335D-03 -0.49720313D-04 -0.40370796D-03  0.27794038D-03
  0.12576757D-03  0.16852975D-03 -0.87766057D-03  0.56783812D-04 -0.18778649D-04
  0.34977618D-05  0.15280888D-04  0.14748050D-04 -0.71977760D-04 -0.57688271D-05
 -0.39858185D-03  0.14827967D-03  0.45422140D-03  0.86907326D-03  0.13407750D-03
 -0.78576288D-03  0.32667231D-03 -0.57891652D-03 -0.57690131D-03  0.23298245D-03
  0.80001509D-04 -0.17321003D-04 -0.35628693D-04 -0.11574745D-03 -0.34029160D-05
  0.38314369D-04 -0.12425708D-03  0.55365926D-04  0.68571709D-04  0.25584655D-05
  0.20072713D-04  0.36201964D-04  0.53379775D-04  0.16908011D-02  0.93153938D-03
 -0.25285264D-04  0.33027498D-03 -0.33729465D-03  0.16513533D-02  0.35207169D-03
 -0.32789180D-03  0.16077613D-02  0.38515019D-05 -0.21314181D-05  0.96950420D-05
  0.12134447D-02  0.10468643D-02 -0.22603089D-02  0.34564850D-03 -0.16761151D-02
  0.14066472D-02  0.19674320D-03  0.81170398D-04 -0.27791360D-03  0.82851352D-04
 -0.39376168D-03  0.15062938D-03  0.34138540D-04  0.61570262D-04  0.90785316D-04
 -0.12524193D-03 -0.36980872D-03 -0.15832086D-05  0.57984156D-03  0.15477452D-02
 -0.41092383D-03  0.76286253D-03  0.19230020D-02 -0.92708509D-03  0.15752344D-03
  0.14115912D-03 -0.17162050D-03  0.77679775D-03 -0.16704768D-02  0.89367902D-03
 -0.25185060D-02  0.87561614D-03  0.18903088D-02  0.11784456D-03 -0.18295180D-03
  0.65107243D-04 -0.38604520D-03  0.14383592D-03  0.27725588D-03  0.34114858D-04
  0.61527550D-04  0.90722337D-04 -0.12640183D-03 -0.36999279D-03 -0.15950026D-05
  0.60521194D-03 -0.12492194D-02 -0.98696386D-03  0.79328363D-03 -0.13870362D-02
 -0.16086239D-02  0.15940664D-03 -0.59172081D-04 -0.21267664D-03  0.73551714D-03
 -0.54937345D-03 -0.18614368D-03  0.20249585D-02  0.18606833D-02 -0.31224312D-02
  0.11163783D-03 -0.38464551D-04 -0.73173279D-04  0.30449947D-03  0.29260150D-03
 -0.36467990D-03  0.13192323D-04  0.23792899D-04  0.35082615D-04 -0.34957279D-03
  0.14267635D-03  0.38900201D-04  0.12217236D-03  0.37578140D-03  0.30534606D-04
  0.36605092D-03  0.64338715D-03 -0.37701547D-03  0.24826279D-05  0.10508679D-04
 -0.54420786D-04  0.28174467D-03 -0.47952014D-03  0.19777547D-03 -0.61511419D-03
  0.30242248D-03  0.67834487D-03  0.46190990D-04 -0.51931071D-04  0.57400804D-05
 -0.61339600D-04  0.28067371D-04  0.12394942D-03  0.37058451D-04  0.66836442D-04
  0.98550295D-04 -0.14261385D-03 -0.77119009D-03 -0.43074324D-04 -0.48902075D-03
 -0.63149627D-04  0.28456709D-03 -0.81999617D-03  0.53666875D-04 -0.29772156D-03
 -0.20027880D-03  0.25059427D-04 -0.12937476D-03 -0.90393581D-03  0.48280687D-03
  0.42112894D-03 -0.96012152D-04  0.33998299D-03  0.30056989D-04 -0.13505449D-03
  0.15017310D-04  0.12003718D-03  0.13828909D-04 -0.80253672D-04 -0.46102167D-04
  0.13177096D-04  0.23765436D-04  0.35042122D-04 -0.34885480D-03  0.14397758D-03
  0.38941101D-04  0.12893462D-03 -0.35489273D-03 -0.11990787D-03  0.37655131D-03
 -0.43522766D-03 -0.59929692D-03  0.27521131D-05  0.12052531D-04 -0.54006054D-04
  0.27184490D-03 -0.11926388D-03 -0.15258102D-03  0.46319630D-03  0.54133024D-03
 -0.94706020D-03  0.45078201D-04  0.30426813D-05 -0.48120882D-04  0.47309173D-04
  0.52888580D-04 -0.12601677D-03
MO    4     MO 0.0        OCC NO =    2.0000000  ORB. ENERGY =   -1.068426
 -0.82947418D-02 -0.15460331D-01 -0.26215600D-01 -0.39678531D-01 -0.49507222D-01
 -0.42520101D-01 -0.16324294D-01  0.73019567D-04 -0.88258596D-01 -0.16553118D+00
 -0.28219438D+00 -0.44101489D+00 -0.58972094D+00 -0.62968447D+00 -0.38497674D+00
  0.25398427D+00  0.13592891D+00  0.66055203D-01  0.26394774D-02  0.15541327D+00
  0.15069860D+00  0.10166038D+00  0.45724923D-01  0.44337794D-01  0.29910014D-01
 -0.21500281D+00 -0.20848041D+00 -0.14063965D+00  0.39616248D-01  0.11655925D-01
 -0.54806565D-01  0.25528129D-02  0.75114900D-03 -0.35310455D-02 -0.13418721D-04