 Molden2AIM, Version 4.0.0 (06/02/2016)           Time: Fri Jun 29 18:11:31 2018
GAUSSIAN              9 MOL ORBITALS    312 PRIMITIVES        8 NUCLEI
  C    1    (CENTRE  1)   0.00000000 -0.00000189 -0.16511482  CHARGE =  6.0
  C    2    (CENTRE  2)   0.00000000  0.00000945  2.71058536  CHARGE =  6.0
  H    3    (CENTRE  3)   1.67476222  0.96692373  3.46786287  CHARGE =  1.0
  H    4    (CENTRE  4)  -1.67476222  0.96692373  3.46786287  CHARGE =  1.0
  H    5    (CENTRE  5)   0.00000000 -1.93383422  3.46786665  CHARGE =  1.0
  H    6    (CENTRE  6)   0.00000000  1.93369627 -0.92238666  CHARGE =  1.0
  H    7    (CENTRE  7)  -1.67463561 -0.96684058 -0.92238666  CHARGE =  1.0
  H    8    (CENTRE  8)   1.67463561 -0.96684058 -0.92238666  CHARGE =  1.0
CENTRE ASSIGNMENTS    1  1  1  1  1  1  1  1  1  1  1  1  1  1  1  1  1  1  1  1
CENTRE ASSIGNMENTS    1  1  1  1  1  1  1  1  1  1  1  1  1  1  1  1  1  1  1  1
CENTRE ASSIGNMENTS    1  1  1  1  1  1  1  1  1  1  1  1  1  1  1  1  1  1  1  1
CENTRE ASSIGNMENTS    1  1  1  1  1  1  1  1  1  1  1  1  1  1  1  2  2  2  2  2
CENTRE ASSIGNMENTS    2  2  2  2  2  2  2  2  2  2  2  2  2  2  2  2  2  2  2  2
CENTRE ASSIGNMENTS    2  2  2  2  2  2  2  2  2  2  2  2  2  2  2  2  2  2  2  2
CENTRE ASSIGNMENTS    2  2  2  2  2  2  2  2  2  2  2  2  2  2  2  2  2  2  2  2
CENTRE ASSIGNMENTS    2  2  2  2  2  2  2  2  2  2  3  3  3  3  3  3  3  3  3  3
CENTRE ASSIGNMENTS    3  3  3  3  3  3  3  3  3  3  3  3  3  3  3  3  3  4  4  4
CENTRE ASSIGNMENTS    4  4  4  4  4  4  4  4  4  4  4  4  4  4  4  4  4  4  4  4
CENTRE ASSIGNMENTS    4  4  4  4  5  5  5  5  5  5  5  5  5  5  5  5  5  5  5  5
CENTRE ASSIGNMENTS    5  5  5  5  5  5  5  5  5  5  5  6  6  6  6  6  6  6  6  6
CENTRE ASSIGNMENTS    6  6  6  6  6  6  6  6  6  6  6  6  6  6  6  6  6  6  7  7
CENTRE ASSIGNMENTS    7  7  7  7  7  7  7  7  7  7  7  7  7  7  7  7  7  7  7  7
CENTRE ASSIGNMENTS    7  7  7  7  7  8  8  8  8  8  8  8  8  8  8  8  8  8  8  8
CENTRE ASSIGNMENTS    8  8  8  8  8  8  8  8  8  8  8  8
TYPE ASSIGNMENTS      1  1  1  1  1  1  1  1  1  1  1  1  1  1  1  1  1  1  1  2
TYPE ASSIGNMENTS      2  2  3  3  3  4  4  4  2  3  4  2  3  4  2  3  4  5  6  7
TYPE ASSIGNMENTS      8  9 10  5  6  7  8  9 10  5  6  7  8  9 10 11 12 13 17 14
TYPE ASSIGNMENTS     15 18 19 16 20 11 12 13 17 14 15 18 19 16 20  1  1  1  1  1
TYPE ASSIGNMENTS      1  1  1  1  1  1  1  1  1  1  1  1  1  1  2  2  2  3  3  3
TYPE ASSIGNMENTS      4  4  4  2  3  4  2  3  4  2  3  4  5  6  7  8  9 10  5  6
TYPE ASSIGNMENTS      7  8  9 10  5  6  7  8  9 10 11 12 13 17 14 15 18 19 16 20
TYPE ASSIGNMENTS     11 12 13 17 14 15 18 19 16 20  1  1  1  1  1  1  2  3  4  2
TYPE ASSIGNMENTS      3  4  2  3  4  5  6  7  8  9 10  5  6  7  8  9 10  1  1  1
TYPE ASSIGNMENTS      1  1  1  2  3  4  2  3  4  2  3  4  5  6  7  8  9 10  5  6
TYPE ASSIGNMENTS      7  8  9 10  1  1  1  1  1  1  2  3  4  2  3  4  2  3  4  5
TYPE ASSIGNMENTS      6  7  8  9 10  5  6  7  8  9 10  1  1  1  1  1  1  2  3  4
TYPE ASSIGNMENTS      2  3  4  2  3  4  5  6  7  8  9 10  5  6  7  8  9 10  1  1
TYPE ASSIGNMENTS      1  1  1  1  2  3  4  2  3  4  2  3  4  5  6  7  8  9 10  5
TYPE ASSIGNMENTS      6  7  8  9 10  1  1  1  1  1  1  2  3  4  2  3  4  2  3  4
TYPE ASSIGNMENTS      5  6  7  8  9 10  5  6  7  8  9 10
EXPONENTS  0.8236000D+04 0.1235000D+04 0.2808000D+03 0.7927000D+02 0.2559000D+02
EXPONENTS  0.8997000D+01 0.3319000D+01 0.3643000D+00 0.8236000D+04 0.1235000D+04
EXPONENTS  0.2808000D+03 0.7927000D+02 0.2559000D+02 0.8997000D+01 0.3319000D+01
EXPONENTS  0.3643000D+00 0.9059000D+00 0.1285000D+00 0.4402000D-01 0.1871000D+02
EXPONENTS  0.4133000D+01 0.1200000D+01 0.1871000D+02 0.4133000D+01 0.1200000D+01
EXPONENTS  0.1871000D+02 0.4133000D+01 0.1200000D+01 0.3827000D+00 0.3827000D+00
EXPONENTS  0.3827000D+00 0.1209000D+00 0.1209000D+00 0.1209000D+00 0.3569000D-01
EXPONENTS  0.3569000D-01 0.3569000D-01 0.1097000D+01 0.1097000D+01 0.1097000D+01
EXPONENTS  0.1097000D+01 0.1097000D+01 0.1097000D+01 0.3180000D+00 0.3180000D+00
EXPONENTS  0.3180000D+00 0.3180000D+00 0.3180000D+00 0.3180000D+00 0.1000000D+00
EXPONENTS  0.1000000D+00 0.1000000D+00 0.1000000D+00 0.1000000D+00 0.1000000D+00
EXPONENTS  0.7610000D+00 0.7610000D+00 0.7610000D+00 0.7610000D+00 0.7610000D+00
EXPONENTS  0.7610000D+00 0.7610000D+00 0.7610000D+00 0.7610000D+00 0.7610000D+00
EXPONENTS  0.2680000D+00 0.2680000D+00 0.2680000D+00 0.2680000D+00 0.2680000D+00
EXPONENTS  0.2680000D+00 0.2680000D+00 0.2680000D+00 0.2680000D+00 0.2680000D+00
EXPONENTS  0.8236000D+04 0.1235000D+04 0.2808000D+03 0.7927000D+02 0.2559000D+02
EXPONENTS  0.8997000D+01 0.3319000D+01 0.3643000D+00 0.8236000D+04 0.1235000D+04
EXPONENTS  0.2808000D+03 0.7927000D+02 0.2559000D+02 0.8997000D+01 0.3319000D+01
EXPONENTS  0.3643000D+00 0.9059000D+00 0.1285000D+00 0.4402000D-01 0.1871000D+02
EXPONENTS  0.4133000D+01 0.1200000D+01 0.1871000D+02 0.4133000D+01 0.1200000D+01
EXPONENTS  0.1871000D+02 0.4133000D+01 0.1200000D+01 0.3827000D+00 0.3827000D+00
EXPONENTS  0.3827000D+00 0.1209000D+00 0.1209000D+00 0.1209000D+00 0.3569000D-01
EXPONENTS  0.3569000D-01 0.3569000D-01 0.1097000D+01 0.1097000D+01 0.1097000D+01
EXPONENTS  0.1097000D+01 0.1097000D+01 0.1097000D+01 0.3180000D+00 0.3180000D+00
EXPONENTS  0.3180000D+00 0.3180000D+00 0.3180000D+00 0.3180000D+00 0.1000000D+00
EXPONENTS  0.1000000D+00 0.1000000D+00 0.1000000D+00 0.1000000D+00 0.1000000D+00
EXPONENTS  0.7610000D+00 0.7610000D+00 0.7610000D+00 0.7610000D+00 0.7610000D+00
EXPONENTS  0.7610000D+00 0.7610000D+00 0.7610000D+00 0.7610000D+00 0.7610000D+00
EXPONENTS  0.2680000D+00 0.2680000D+00 0.2680000D+00 0.2680000D+00 0.2680000D+00
EXPONENTS  0.2680000D+00 0.2680000D+00 0.2680000D+00 0.2680000D+00 0.2680000D+00
EXPONENTS  0.3387000D+02 0.5095000D+01 0.1159000D+01 0.3258000D+00 0.1027000D+00
EXPONENTS  0.2526000D-01 0.1407000D+01 0.1407000D+01 0.1407000D+01 0.3880000D+00
EXPONENTS  0.3880000D+00 0.3880000D+00 0.1020000D+00 0.1020000D+00 0.1020000D+00
EXPONENTS  0.1057000D+01 0.1057000D+01 0.1057000D+01 0.1057000D+01 0.1057000D+01
EXPONENTS  0.1057000D+01 0.2470000D+00 0.2470000D+00 0.2470000D+00 0.2470000D+00
EXPONENTS  0.2470000D+00 0.2470000D+00 0.3387000D+02 0.5095000D+01 0.1159000D+01
EXPONENTS  0.3258000D+00 0.1027000D+00 0.2526000D-01 0.1407000D+01 0.1407000D+01
EXPONENTS  0.1407000D+01 0.3880000D+00 0.3880000D+00 0.3880000D+00 0.1020000D+00
EXPONENTS  0.1020000D+00 0.1020000D+00 0.1057000D+01 0.1057000D+01 0.1057000D+01
EXPONENTS  0.1057000D+01 0.1057000D+01 0.1057000D+01 0.2470000D+00 0.2470000D+00
EXPONENTS  0.2470000D+00 0.2470000D+00 0.2470000D+00 0.2470000D+00 0.3387000D+02
EXPONENTS  0.5095000D+01 0.1159000D+01 0.3258000D+00 0.1027000D+00 0.2526000D-01
EXPONENTS  0.1407000D+01 0.1407000D+01 0.1407000D+01 0.3880000D+00 0.3880000D+00
EXPONENTS  0.3880000D+00 0.1020000D+00 0.1020000D+00 0.1020000D+00 0.1057000D+01
EXPONENTS  0.1057000D+01 0.1057000D+01 0.1057000D+01 0.1057000D+01 0.1057000D+01
EXPONENTS  0.2470000D+00 0.2470000D+00 0.2470000D+00 0.2470000D+00 0.2470000D+00
EXPONENTS  0.2470000D+00 0.3387000D+02 0.5095000D+01 0.1159000D+01 0.3258000D+00
EXPONENTS  0.1027000D+00 0.2526000D-01 0.1407000D+01 0.1407000D+01 0.1407000D+01
EXPONENTS  0.3880000D+00 0.3880000D+00 0.3880000D+00 0.1020000D+00 0.1020000D+00
EXPONENTS  0.1020000D+00 0.1057000D+01 0.1057000D+01 0.1057000D+01 0.1057000D+01
EXPONENTS  0.1057000D+01 0.1057000D+01 0.2470000D+00 0.2470000D+00 0.2470000D+00
EXPONENTS  0.2470000D+00 0.2470000D+00 0.2470000D+00 0.3387000D+02 0.5095000D+01
EXPONENTS  0.1159000D+01 0.3258000D+00 0.1027000D+00 0.2526000D-01 0.1407000D+01
EXPONENTS  0.1407000D+01 0.1407000D+01 0.3880000D+00 0.3880000D+00 0.3880000D+00
EXPONENTS  0.1020000D+00 0.1020000D+00 0.1020000D+00 0.1057000D+01 0.1057000D+01
EXPONENTS  0.1057000D+01 0.1057000D+01 0.1057000D+01 0.1057000D+01 0.2470000D+00
EXPONENTS  0.2470000D+00 0.2470000D+00 0.2470000D+00 0.2470000D+00 0.2470000D+00
EXPONENTS  0.3387000D+02 0.5095000D+01 0.1159000D+01 0.3258000D+00 0.1027000D+00
EXPONENTS  0.2526000D-01 0.1407000D+01 0.1407000D+01 0.1407000D+01 0.3880000D+00
EXPONENTS  0.3880000D+00 0.3880000D+00 0.1020000D+00 0.1020000D+00 0.1020000D+00
EXPONENTS  0.1057000D+01 0.1057000D+01 0.1057000D+01 0.1057000D+01 0.1057000D+01
EXPONENTS  0.1057000D+01 0.2470000D+00 0.2470000D+00 0.2470000D+00 0.2470000D+00
EXPONENTS  0.2470000D+00 0.2470000D+00
MO    1     MO 0.0        OCC NO =    2.0000000  ORB. ENERGY =  -10.212032
  0.22562481D+00  0.42061594D+00  0.71091504D+00  0.10687382D+01  0.13130683D+01
  0.11090961D+01  0.41831025D+00 -0.20702408D-02 -0.20838835D-02 -0.39016874D-02
 -0.66429566D-02 -0.10275644D-01 -0.13532661D-01 -0.14061302D-01 -0.89353262D-02
  0.59882478D-02  0.23829565D-01 -0.52107753D-03  0.11096227D-04  0.26628466D-14
  0.24965879D-14  0.17777193D-14 -0.70594603D-08 -0.66186928D-08 -0.47129035D-08
  0.28383582D-03  0.26611412D-03  0.18948911D-03 -0.87815435D-14  0.31898865D-07
  0.70605475D-03  0.13433376D-13  0.42741920D-08  0.13689302D-03  0.51473240D-15
 -0.11452775D-08  0.71358997D-05  0.48715233D-04  0.48649338D-04 -0.97364571D-04
  0.28564084D-14 -0.26194273D-16  0.17342945D-07  0.47913544D-03  0.47918797D-03
 -0.95832341D-03  0.54608295D-14  0.22076124D-14 -0.26998792D-07  0.92816980D-05
  0.92832688D-05 -0.18564967D-04 -0.46004569D-15 -0.15140568D-14  0.12046535D-07
  0.83341422D-17  0.86763781D-03  0.24204272D-03 -0.48938086D-15 -0.26028964D-02
 -0.36306832D-03  0.46437843D-15 -0.17035726D-07 -0.36305984D-03 -0.93836427D-15
 -0.21542796D-16 -0.11759569D-03 -0.35673639D-03 -0.14483354D-14  0.35280141D-03
  0.53512038D-03  0.15129637D-14 -0.14330639D-07  0.53508878D-03  0.59473530D-16
  0.24040152D+00  0.44816310D+00  0.75747459D+00  0.11387324D+01  0.13990644D+01
  0.11817335D+01  0.44570640D+00 -0.22058258D-02 -0.22047391D-02 -0.41279671D-02
 -0.70282173D-02 -0.10871583D-01 -0.14317493D-01 -0.14876792D-01 -0.94535336D-02
  0.63355384D-02  0.25338595D-01 -0.78417468D-03 -0.46217518D-04  0.45811595D-14
  0.42951283D-14  0.30583872D-14  0.60032812D-08  0.56284577D-08  0.40077972D-08
 -0.27410914D-03 -0.25699474D-03 -0.18299557D-03 -0.17364269D-13 -0.32404662D-07
 -0.61982130D-03 -0.29384731D-13  0.11526742D-08 -0.55214370D-04 -0.66161746D-15
  0.11280593D-08 -0.11404438D-05  0.76867807D-04  0.76806094D-04 -0.15367390D-03
 -0.10844461D-14 -0.42381922D-14  0.81643073D-08  0.45384253D-03  0.45389295D-03
 -0.90773548D-03 -0.12400257D-13 -0.55817529D-14 -0.23808372D-07  0.11709820D-04
  0.11711117D-04 -0.23420937D-04 -0.48464380D-14 -0.28558200D-14  0.12002829D-07
 -0.71517175D-15 -0.91088716D-03 -0.32024894D-03 -0.13305577D-15  0.27326503D-02
  0.48037243D-03  0.22785710D-14  0.11236219D-07  0.48037438D-03 -0.69374880D-14
 -0.31198580D-15  0.13238864D-03  0.35619599D-03  0.12892881D-14 -0.39718214D-03
 -0.53430286D-03 -0.35333071D-15  0.16231897D-07 -0.53428512D-03 -0.18078063D-15
  0.22211650D-04  0.40059626D-04  0.59067895D-04  0.25997952D-03 -0.13570632D-03
 -0.65477667D-05  0.10000943D-02  0.57739623D-03  0.41783552D-03  0.88120724D-03
  0.50874099D-03  0.11011666D-02  0.94953187D-04  0.54815002D-04  0.10306130D-03
 -0.55330261D-03  0.44148189D-03  0.11182071D-03 -0.17229220D-02 -0.21859009D-02
 -0.12620139D-02 -0.43728198D-04  0.77140680D-04 -0.33412482D-04 -0.20933542D-03
 -0.22364197D-03 -0.12912519D-03  0.22211650D-04  0.40059626D-04  0.59067895D-04
  0.25997952D-03 -0.13570632D-03 -0.65477667D-05 -0.10000943D-02  0.57739623D-03
  0.41783552D-03 -0.88120724D-03  0.50874099D-03  0.11011666D-02 -0.94953187D-04
  0.54815002D-04  0.10306130D-03 -0.55330261D-03  0.44148189D-03  0.11182071D-03
  0.17229220D-02  0.21859009D-02 -0.12620139D-02 -0.43728198D-04  0.77140680D-04
 -0.33412482D-04  0.20933542D-03  0.22364197D-03 -0.12912519D-03  0.22207220D-04
  0.40051636D-04  0.59056114D-04  0.25990347D-03 -0.13563702D-03 -0.65451701D-05
 -0.14482463D-14 -0.11548078D-02  0.41784269D-03 -0.12527325D-14 -0.10175335D-02
  0.11011891D-02 -0.30247391D-14 -0.10963060D-03  0.10306740D-03  0.93882945D-03
 -0.10506419D-02  0.11181243D-03 -0.98293100D-15  0.86557632D-15  0.25240652D-02
  0.13756540D-03 -0.10415710D-03 -0.33408305D-04 -0.37137113D-15  0.18058452D-14
  0.25824743D-03  0.22130414D-04  0.39913113D-04  0.58851862D-04  0.22074490D-03
 -0.11981828D-03 -0.30971668D-05  0.20164423D-14  0.10815612D-02 -0.37761419D-03
 -0.17256429D-14  0.92568220D-03 -0.11333697D-02 -0.64341125D-15  0.10155266D-03
 -0.99672624D-04  0.88940542D-03 -0.93593943D-03  0.46534003D-04 -0.15206563D-15
 -0.30164728D-15  0.24445352D-02  0.13542176D-03 -0.90661178D-04 -0.44760585D-04
  0.74883637D-15  0.77400790D-15  0.24524490D-03  0.22135668D-04  0.39922589D-04
  0.58865834D-04  0.22083877D-03 -0.11987428D-03 -0.30998181D-05 -0.93665890D-03
 -0.54077192D-03 -0.37760906D-03 -0.80166149D-03 -0.46280767D-03 -0.11333553D-02
 -0.87955614D-04 -0.50774544D-04 -0.99665967D-04 -0.47963176D-03  0.43309563D-03
  0.46536124D-04 -0.15807802D-02 -0.21170317D-02 -0.12222516D-02 -0.34142690D-04
  0.78907835D-04 -0.44765145D-04 -0.19579017D-03 -0.21238264D-03 -0.12262603D-03
  0.22135668D-04  0.39922589D-04  0.58865834D-04  0.22083877D-03 -0.11987428D-03
 -0.30998181D-05  0.93665890D-03 -0.54077192D-03 -0.37760906D-03  0.80166149D-03
 -0.46280767D-03 -0.11333553D-02  0.87955614D-04 -0.50774544D-04 -0.99665967D-04
 -0.47963176D-03  0.43309563D-03  0.46536124D-04  0.15807802D-02  0.21170317D-02
 -0.12222516D-02 -0.34142690D-04  0.78907835D-04 -0.44765145D-04  0.19579017D-03
  0.21238264D-03 -0.12262603D-03
MO    2     MO 0.0        OCC NO =    2.0000000  ORB. ENERGY =  -10.211766
  0.24012227D+00  0.44764250D+00  0.75659468D+00  0.11374096D+01  0.13974392D+01
  0.11803608D+01  0.44518865D+00 -0.22032635D-02 -0.19757369D-02 -0.36992029D-02
 -0.62982094D-02 -0.97423723D-02 -0.12830362D-01 -0.13331568D-01 -0.84716127D-02
  0.56774778D-02  0.24558446D-01 -0.41299314D-02 -0.90689498D-03 -0.11928876D-15
 -0.11184079D-15 -0.79637306D-16 -0.22058281D-08 -0.20681041D-08 -0.14726133D-08
 -0.14302557D-03 -0.13409557D-03 -0.95484031D-04  0.53685377D-15  0.15206120D-07
 -0.13661870D-02  0.42197180D-14 -0.22702489D-07 -0.12783200D-02  0.67290904D-17
 -0.11493540D-08 -0.94367242D-04  0.44924206D-03  0.44918819D-03 -0.89843025D-03
  0.88442832D-15  0.15649002D-14  0.14332253D-07 -0.37593791D-03 -0.37593308D-03
  0.75187099D-03 -0.45070116D-15  0.62831809D-15 -0.14958873D-07  0.38557309D-04
  0.38554908D-04 -0.77112217D-04 -0.13871528D-14 -0.87233717D-15  0.56989489D-08
 -0.93949301D-16  0.71199685D-03  0.12403749D-02 -0.29494432D-15 -0.21360119D-02
 -0.18605852D-02  0.57679222D-15  0.21374029D-07 -0.18605396D-02 -0.73302770D-15
 -0.61444980D-16 -0.23553629D-03 -0.44005636D-05 -0.53161178D-16  0.70660679D-03
  0.66168057D-05  0.23749612D-15  0.20958609D-08  0.65848851D-05 -0.36297117D-15
 -0.22532663D+00 -0.42006008D+00 -0.70997553D+00 -0.10673258D+01 -0.13113330D+01
 -0.11076304D+01 -0.41775743D+00  0.20675048D-02  0.18393093D-02  0.34437674D-02
  0.58633086D-02  0.90696469D-02  0.11944406D-01  0.12411003D-01  0.78866351D-02
 -0.52854395D-02 -0.22996963D-01  0.40906741D-02  0.90586524D-03 -0.38082624D-14
 -0.35704881D-14 -0.25424002D-14 -0.92861392D-09 -0.87063457D-09 -0.61994368D-09
 -0.16052709D-03 -0.15050435D-03 -0.10716806D-03  0.13465984D-13  0.10265294D-08
 -0.14067816D-02  0.16055150D-13 -0.26091313D-07 -0.12843748D-02  0.49514297D-15
 -0.10221316D-08 -0.94628555D-04 -0.44504903D-03 -0.44500781D-03  0.89005683D-03
  0.13390454D-14 -0.42769045D-15 -0.41151646D-09  0.40552480D-03  0.40553593D-03
 -0.81106074D-03  0.93098078D-14  0.87209032D-14 -0.10240140D-07 -0.37888536D-04
 -0.37885579D-04  0.75774116D-04  0.26243198D-14  0.17377248D-14 -0.25065462D-08
  0.31852281D-15  0.65547384D-03  0.12224150D-02 -0.48690158D-16 -0.19664539D-02
 -0.18336418D-02 -0.90687828D-15  0.32420735D-07 -0.18336033D-02  0.47988953D-14
  0.40127987D-15 -0.22764079D-03  0.18149513D-04 -0.38484825D-15  0.68291731D-03
 -0.27212758D-04 -0.81899137D-15  0.50665830D-08 -0.27235782D-04  0.13403566D-14
  0.12509824D-06  0.22561983D-06  0.33267631D-06 -0.58880879D-03  0.24808453D-03
  0.54100569D-04 -0.97404650D-03 -0.56236332D-03 -0.62364720D-03 -0.12341487D-02
 -0.71252495D-03  0.52783853D-03 -0.10817327D-03 -0.62453372D-04 -0.51752243D-04
  0.11424592D-02 -0.12077218D-03 -0.10216870D-02  0.21879214D-02  0.10236579D-02
  0.59100664D-03  0.14959805D-03  0.29553963D-04 -0.17915201D-03  0.20791228D-03
  0.17150459D-03  0.99023876D-04  0.12509824D-06  0.22561983D-06  0.33267630D-06
 -0.58880879D-03  0.24808453D-03  0.54100569D-04  0.97404650D-03 -0.56236332D-03
 -0.62364720D-03  0.12341487D-02 -0.71252495D-03  0.52783853D-03  0.10817327D-03
 -0.62453372D-04 -0.51752243D-04  0.11424592D-02 -0.12077218D-03 -0.10216870D-02
 -0.21879214D-02 -0.10236579D-02  0.59100664D-03  0.14959805D-03  0.29553963D-04
 -0.17915201D-03 -0.20791228D-03 -0.17150459D-03  0.99023876D-04  0.12604487D-06
  0.22732712D-06  0.33519370D-06 -0.58882902D-03  0.24804637D-03  0.54097858D-04
  0.57503312D-15  0.11247121D-02 -0.62363878D-03  0.90078492D-15  0.14250627D-02
  0.52785778D-03  0.13242168D-14  0.12490428D-03 -0.51755508D-04 -0.75236118D-03
  0.17740449D-02 -0.10216838D-02  0.35060710D-15 -0.60861203D-15 -0.11820103D-02
 -0.30466332D-04  0.20961556D-03 -0.17914923D-03  0.18065295D-15 -0.65183307D-15
 -0.19803749D-03  0.12432159D-05  0.22421912D-05  0.33061096D-05  0.60279549D-03
 -0.25653874D-03 -0.54410045D-04  0.42894308D-15  0.11962100D-02 -0.64903862D-03
 -0.41576424D-15  0.14875998D-02  0.45673389D-03  0.10105166D-14  0.13168204D-03
 -0.58236070D-04  0.81050907D-03 -0.18372718D-02  0.10267627D-02  0.43110109D-15
  0.16062503D-15  0.13400334D-02  0.39131137D-04 -0.21581812D-03  0.17668698D-03
 -0.55220874D-16  0.15484499D-15  0.21406272D-03  0.12448059D-05  0.22450586D-05
  0.33103377D-05  0.60281517D-03 -0.25658929D-03 -0.54413189D-04 -0.10359659D-02
 -0.59810984D-03 -0.64904988D-03 -0.12882952D-02 -0.74378264D-03  0.45671274D-03
 -0.11404497D-03 -0.65841661D-04 -0.58231776D-04 -0.11753422D-02  0.14858160D-03
  0.10267606D-02 -0.22930256D-02 -0.11605226D-02 -0.67002144D-03 -0.15208327D-03
 -0.24604686D-04  0.17668796D-03 -0.22078548D-03 -0.18538333D-03 -0.10703887D-03
  0.12448059D-05  0.22450586D-05  0.33103377D-05  0.60281517D-03 -0.25658929D-03
 -0.54413189D-04  0.10359659D-02 -0.59810984D-03 -0.64904988D-03  0.12882952D-02
 -0.74378264D-03  0.45671274D-03  0.11404497D-03 -0.65841661D-04 -0.58231776D-04
 -0.11753422D-02  0.14858160D-03  0.10267606D-02  0.22930256D-02  0.11605226D-02
 -0.67002144D-03 -0.15208327D-03 -0.24604686D-04  0.17668796D-03  0.22078548D-03
  0.18538333D-03 -0.10703887D-03
MO    3     MO 0.0        OCC NO =    2.0000000  ORB. ENERGY =   -0.774509
 -0.70664135D-02 -0.13173401D-01 -0.22265369D-01 -0.33472143D-01 -0.41124395D-01
 -0.34736126D-01 -0.13101189D-01  0.64838514D-04 -0.39201483D-01 -0.73397545D-01
 -0.12496560D+00 -0.19330278D+00 -0.25457296D+00 -0.26451761D+00 -0.16808907D+00
  0.11264939D+00  0.48590160D-01  0.20255717D-01  0.29038625D-04 -0.56517868D-13
 -0.52989094D-13 -0.37731392D-13  0.86945870D-06  0.81517280D-06  0.58045160D-06
  0.70709020D-01  0.66294201D-01  0.47205420D-01  0.23577752D-12 -0.18100649D-07
  0.14450268D-01  0.32825705D-12 -0.30621837D-07  0.52750773D-03  0.26053253D-14
  0.41184423D-08 -0.13217229D-04 -0.34101694D-02 -0.34103620D-02  0.68205313D-02
 -0.10555486D-13 -0.58433236D-14  0.86779198D-07 -0.10340286D-02 -0.10342443D-02
  0.20682729D-02 -0.22197964D-12 -0.22206753D-12  0.91406809D-07 -0.31454773D-04
 -0.31459281D-04  0.62914055D-04 -0.41130453D-13 -0.21487302D-13  0.15372768D-07
  0.57453475D-14  0.11126318D-02  0.34691614D-02  0.55258246D-14 -0.33380067D-02
 -0.52037872D-02 -0.22761867D-13  0.11141903D-06 -0.52036970D-02  0.11251176D-12
  0.37966431D-14 -0.34202056D-04  0.13218351D-03  0.43368466D-14  0.10260108D-03
 -0.19829561D-03 -0.15726776D-13  0.50888800D-08 -0.19825492D-03  0.60450416D-13
 -0.70651230D-02 -0.13170996D-01 -0.22261303D-01 -0.33466030D-01 -0.41116885D-01
 -0.34729782D-01 -0.13098796D-01  0.64826673D-04 -0.39195913D-01 -0.73387116D-01
 -0.12494784D+00 -0.19327532D+00 -0.25453679D+00 -0.26448003D+00 -0.16806519D+00
  0.11263338D+00  0.48583066D-01  0.20252413D-01  0.29095140D-04  0.57510747D-13
  0.53919981D-13  0.38394239D-13 -0.71007121D-06 -0.66573689D-06 -0.47404433D-06
 -0.70739094D-01 -0.66322397D-01 -0.47225497D-01 -0.28073169D-12  0.56835213D-07
 -0.14455630D-01 -0.44798168D-12  0.20929241D-07 -0.52729517D-03 -0.97380690D-14
 -0.45139838D-08  0.13225631D-04 -0.34107909D-02 -0.34109728D-02  0.68217637D-02
 -0.16914774D-13 -0.64029737D-14  0.67657156D-07 -0.10336190D-02 -0.10338217D-02
  0.20674407D-02 -0.25566868D-12 -0.24453890D-12  0.86211252D-07 -0.31439781D-04
 -0.31443161D-04  0.62882942D-04 -0.62354475D-13 -0.40654451D-14  0.14690132D-07
 -0.93619870D-14 -0.11130930D-02 -0.34691113D-02 -0.91562087D-14  0.33393945D-02
  0.52037045D-02  0.37242170D-13 -0.11537630D-06  0.52036295D-02 -0.10752029D-12
 -0.38039049D-14  0.34173741D-04 -0.13204647D-03 -0.33394252D-14 -0.10251555D-03
  0.19808651D-03  0.14751140D-13 -0.56722984D-08  0.19805289D-03 -0.64101194D-13
  0.13156526D-01  0.23728337D-01  0.34987419D-01  0.17477554D-01  0.29331019D-03
 -0.78281619D-05 -0.86919382D-02 -0.50182778D-02 -0.52391720D-02 -0.67400140D-03
 -0.38907321D-03 -0.21964033D-02  0.34159122D-03  0.19722460D-03  0.56706992D-04
  0.19058593D-03 -0.92069097D-03  0.73010503D-03  0.19247409D-02  0.32781707D-02
  0.18926315D-02 -0.25858382D-03  0.15544000D-04  0.24303982D-03 -0.47483526D-03
 -0.15212518D-03 -0.87832188D-04  0.13156526D-01  0.23728337D-01  0.34987419D-01
  0.17477554D-01  0.29331019D-03 -0.78281620D-05  0.86919382D-02 -0.50182778D-02
 -0.52391720D-02  0.67400140D-03 -0.38907321D-03 -0.21964033D-02 -0.34159122D-03
  0.19722460D-03  0.56706992D-04  0.19058593D-03 -0.92069097D-03  0.73010503D-03
 -0.19247409D-02 -0.32781707D-02  0.18926315D-02 -0.25858382D-03  0.15544000D-04
  0.24303982D-03  0.47483526D-03  0.15212518D-03 -0.87832188D-04  0.13156541D-01
  0.23728364D-01  0.34987459D-01  0.17477900D-01  0.29360547D-03 -0.78313101D-05
 -0.11813657D-13  0.10036609D-01 -0.52391876D-02 -0.23344125D-13  0.77845401D-03
 -0.21965105D-02 -0.46677097D-13 -0.39438445D-03  0.56679419D-04 -0.14763501D-02
  0.74626426D-03  0.73008587D-03 -0.84967286D-14  0.18525858D-13 -0.37854433D-02
  0.15261308D-03 -0.39566441D-03  0.24305133D-03 -0.14162905D-13  0.45706338D-14
  0.17564514D-03  0.13160520D-01  0.23735540D-01  0.34998040D-01  0.17482070D-01
  0.29391672D-03 -0.78199189D-05  0.22700897D-14 -0.10040696D-01  0.52409320D-02
  0.33650921D-13 -0.77822066D-03  0.21969806D-02  0.27765069D-13  0.39443368D-03
 -0.56680323D-04 -0.14770202D-02  0.74698699D-03  0.73003323D-03 -0.16392047D-13
  0.67121782D-14 -0.37868185D-02  0.15263177D-03 -0.39578198D-03  0.24315022D-03
 -0.14258078D-13  0.12955976D-13  0.17570209D-03  0.13160493D-01  0.23735492D-01
  0.34997968D-01  0.17481677D-01  0.29359208D-03 -0.78181091D-05  0.86954616D-02
  0.50203040D-02  0.52409205D-02  0.67379447D-03  0.38894673D-03  0.21968711D-02
 -0.34163612D-03 -0.19725047D-03 -0.56709069D-04  0.19096074D-03 -0.92101725D-03
  0.73005651D-03  0.19259396D-02  0.32793551D-02  0.18933119D-02 -0.25866613D-03
  0.15528332D-04  0.24313779D-03 -0.47495196D-03 -0.15217431D-03 -0.87860417D-04
  0.13160493D-01  0.23735492D-01  0.34997968D-01  0.17481677D-01  0.29359208D-03
 -0.78181091D-05 -0.86954616D-02  0.50203040D-02  0.52409205D-02 -0.67379447D-03
  0.38894673D-03  0.21968711D-02  0.34163612D-03 -0.19725047D-03 -0.56709069D-04
  0.19096074D-03 -0.92101725D-03  0.73005651D-03 -0.19259396D-02 -0.32793551D-02
  0.18933119D-02 -0.25866613D-03  0.15528332D-04  0.24313779D-03  0.47495196D-03
  0.15217431D-03 -0.87860417D-04
MO    4     MO 0.0        OCC NO =    2.0000000  ORB. ENERGY =   -0.631051
  0.51768109D-02  0.96507525D-02  0.16311472D-01  0.24521485D-01  0.30127478D-01
  0.25447471D-01  0.95978499D-02 -0.47500295D-04  0.35093346D-01  0.65705816D-01
  0.11186977D+00  0.17304553D+00  0.22789488D+00  0.23679737D+00  0.15047410D+00
 -0.10084424D+00 -0.44531713D-01 -0.26754748D-01 -0.57332224D-03  0.47290990D-13
  0.44338309D-13  0.31571517D-13 -0.55657177D-06 -0.52182141D-06 -0.37156793D-06
  0.15717374D+00  0.14736037D+00  0.10492936D+00 -0.18611730D-12 -0.25240687D-06
  0.34420325D-01  0.12611488D-12 -0.16094357D-06  0.38545373D-02  0.94876350D-14
 -0.31428033D-08  0.97082960D-05 -0.50146769D-02 -0.50144283D-02  0.10029105D-01
  0.25112763D-13 -0.17088068D-13  0.71667422D-07 -0.82159171D-03 -0.82164433D-03
  0.16432360D-02  0.15374894D-12  0.12557550D-12  0.70499777D-07 -0.35424796D-04
 -0.35464999D-04  0.70889795D-04 -0.21720299D-14 -0.48235037D-13  0.57270367D-08
 -0.27199864D-14 -0.10887557D-02 -0.19180984D-02 -0.26264899D-14  0.32662716D-02
  0.28771562D-02  0.10786449D-13 -0.44254934D-08  0.28771391D-02 -0.34886141D-13
 -0.45720659D-14 -0.13006143D-03 -0.99079103D-04 -0.54901831D-14  0.39018490D-03
  0.14864647D-03  0.19206381D-13 -0.59979236D-09  0.14859084D-03 -0.64697884D-13
 -0.51774336D-02 -0.96519133D-02 -0.16313434D-01 -0.24524435D-01 -0.30131102D-01
 -0.25450532D-01 -0.95990043D-02  0.47506008D-04 -0.35099806D-01 -0.65717911D-01
 -0.11189037D+00 -0.17307738D+00 -0.22793683D+00 -0.23684096D+00 -0.15050180D+00
  0.10086281D+00  0.44539247D-01  0.26759417D-01  0.57355841D-03  0.45604477D-13
  0.42757096D-13  0.30445599D-13 -0.46363813D-06 -0.43469022D-06 -0.30952533D-06
  0.15711917D+00  0.14730921D+00  0.10489294D+00 -0.21460768D-12 -0.22954703D-06
  0.34408920D-01 -0.47502029D-12 -0.16214023D-06  0.38537303D-02 -0.11909053D-13
 -0.30867754D-08  0.97021686D-05  0.50134617D-02  0.50132432D-02 -0.10026705D-01
 -0.22049770D-13 -0.45456138D-13 -0.86369678D-07  0.82134815D-03  0.82142056D-03
 -0.16427687D-02 -0.15627338D-12 -0.75525984D-13 -0.89654060D-07  0.35434900D-04
  0.35475367D-04 -0.70910267D-04 -0.69563349D-13 -0.70981394D-13 -0.27556568D-08
 -0.44967630D-14 -0.10894940D-02 -0.19192894D-02 -0.31368671D-14  0.32684964D-02
  0.28789360D-02  0.16627156D-13 -0.14381269D-07  0.28789323D-02 -0.70636796D-13
  0.58663396D-14 -0.13004788D-03 -0.99107636D-04  0.66604132D-14  0.39014249D-03
  0.14868470D-03 -0.24259432D-13  0.11403179D-08  0.14863821D-03 -0.38206362D-13
  0.18432572D-01  0.33243903D-01  0.49018116D-01  0.25176597D-01  0.40169560D-03
 -0.25781453D-04 -0.12656791D-01 -0.73073739D-02 -0.30338168D-02 -0.19371870D-02
 -0.11183980D-02  0.65489795D-03  0.32405145D-03  0.18705976D-03  0.19707929D-03
  0.18677367D-02 -0.24715157D-03 -0.16205851D-02  0.36630134D-02  0.13116201D-02
  0.75727742D-03 -0.57020758D-04  0.81972099D-04 -0.24951342D-04 -0.24075009D-03
 -0.14636101D-03 -0.84488456D-04  0.18432572D-01  0.33243903D-01  0.49018116D-01
  0.25176597D-01  0.40169560D-03 -0.25781453D-04  0.12656791D-01 -0.73073739D-02
 -0.30338168D-02  0.19371870D-02 -0.11183980D-02  0.65489795D-03 -0.32405145D-03
  0.18705976D-03  0.19707929D-03  0.18677367D-02 -0.24715157D-03 -0.16205851D-02
 -0.36630134D-02 -0.13116201D-02  0.75727742D-03 -0.57020758D-04  0.81972099D-04
 -0.24951342D-04  0.24075009D-03  0.14636101D-03 -0.84488456D-04  0.18432598D-01
  0.33243950D-01  0.49018185D-01  0.25176355D-01  0.40121209D-03 -0.25792721D-04
 -0.18451939D-13  0.14614765D-01 -0.30338619D-02 -0.17670176D-14  0.22367496D-02
  0.65499686D-03 -0.34992690D-13 -0.37421917D-03  0.19710664D-03 -0.13045424D-02
  0.29251475D-02 -0.16206051D-02 -0.52843892D-14 -0.60711507D-15 -0.15145101D-02
  0.15147552D-03 -0.12652670D-03 -0.24948812D-04 -0.60924987D-14  0.20014950D-13
  0.16898327D-03 -0.18432797D-01 -0.33244308D-01 -0.49018712D-01 -0.25174642D-01
 -0.40117194D-03  0.25782982D-04  0.30384020D-13  0.14616372D-01 -0.30333118D-02
 -0.80711295D-13  0.22361900D-02  0.65584989D-03 -0.25871435D-13 -0.37424342D-03
  0.19706466D-03  0.13045650D-02 -0.29256525D-02  0.16210875D-02  0.12375674D-13
 -0.15811819D-13  0.15140615D-02 -0.15151359D-03  0.12658037D-03  0.24933221D-04
  0.26356950D-13  0.14388993D-13 -0.16905260D-03 -0.18432787D-01 -0.33244291D-01
 -0.49018688D-01 -0.25174873D-01 -0.40166935D-03  0.25771563D-04 -0.12658195D-01
 -0.73081703D-02 -0.30333024D-02 -0.19366970D-02 -0.11181072D-02  0.65574060D-03
  0.32407081D-03  0.18707150D-03  0.19703887D-03 -0.18681104D-02  0.24705092D-03
  0.16210595D-02 -0.36634652D-02 -0.13112523D-02 -0.75706037D-03  0.57051666D-04
 -0.81985978D-04  0.24934311D-04  0.24083005D-03  0.14642254D-03  0.84521704D-04
 -0.18432787D-01 -0.33244291D-01 -0.49018688D-01 -0.25174873D-01 -0.40166935D-03
  0.25771563D-04  0.12658195D-01 -0.73081703D-02 -0.30333024D-02  0.19366970D-02
 -0.11181072D-02  0.65574060D-03 -0.32407081D-03  0.18707150D-03  0.19703887D-03
 -0.18681104D-02  0.24705092D-03  0.16210595D-02  0.36634652D-02  0.13112523D-02
 -0.75706037D-03  0.57051666D-04 -0.81985978D-04  0.24934311D-04 -0.24083005D-03
 -0.14642254D-03  0.84521704D-04
MO    5     MO 0.0        OCC NO =    2.0000000  ORB. ENERGY =   -0.446181
 -0.14269097D-14 -0.26600842D-14 -0.44960108D-14 -0.67589770D-14 -0.83041842D-14
 -0.70142110D-14 -0.26455023D-14  0.13092739D-16  0.88941609D-15  0.16652675D-14
  0.28352605D-14  0.43857168D-14  0.57758348D-14  0.60014623D-14  0.38136599D-14
 -0.25558262D-14  0.14797079D-13 -0.43398788D-12 -0.82881710D-14  0.38483507D+00
  0.36080734D+00  0.25691632D+00  0.40515060D-09  0.37985444D-09  0.27047899D-09
  0.29445903D-13  0.27607406D-13  0.19658118D-13  0.90728218D-01  0.95560845D-10
 -0.57779840D-13  0.12347295D-01  0.13273814D-10 -0.36006935D-12  0.12271994D-03
  0.13918472D-12 -0.97392197D-14 -0.11697140D-10  0.11687399D-10  0.97408058D-14
 -0.22212896D-01 -0.33430968D-02 -0.35370516D-11 -0.19685219D-11  0.20101012D-11
 -0.41579354D-13 -0.37503468D-02  0.19365831D-02  0.20381266D-11 -0.13092348D-12
  0.14755462D-12 -0.16631142D-13 -0.21572502D-03 -0.51509038D-03 -0.60239218D-12
 -0.14833581D-02 -0.15620768D-11 -0.14252508D-13 -0.14834154D-02 -0.15579297D-11