 Molden2AIM, Version 4.0.0 (06/02/2016)           Time: Fri Jun 29 20:02:11 2018
GAUSSIAN             26 MOL ORBITALS    629 PRIMITIVES       11 NUCLEI
  Ge   1    (CENTRE  1)   0.00000000  0.00000000  1.10364352  CHARGE = 32.0
  H    2    (CENTRE  2)   2.36287575  0.00000000  2.82363822  CHARGE =  1.0
  H    3    (CENTRE  3)  -2.36287575  0.00000000  2.82363822  CHARGE =  1.0
  C    4    (CENTRE  4)   0.00000000  3.04343983 -1.00058920  CHARGE =  6.0
  H    5    (CENTRE  5)  -1.68238537  3.08463586 -2.21550546  CHARGE =  1.0
  H    6    (CENTRE  6)   0.00000000  4.75362874  0.17284758  CHARGE =  1.0
  H    7    (CENTRE  7)   1.68238537  3.08463586 -2.21550546  CHARGE =  1.0
  C    8    (CENTRE  8)   0.00000000 -3.04343983 -1.00058920  CHARGE =  6.0
  H    9    (CENTRE  9)   0.00000000 -4.75362874  0.17284758  CHARGE =  1.0
  H   10    (CENTRE 10)  -1.68238537 -3.08463586 -2.21550546  CHARGE =  1.0
  H   11    (CENTRE 11)   1.68238537 -3.08463586 -2.21550546  CHARGE =  1.0
CENTRE ASSIGNMENTS    1  1  1  1  1  1  1  1  1  1  1  1  1  1  1  1  1  1  1  1
CENTRE ASSIGNMENTS    1  1  1  1  1  1  1  1  1  1  1  1  1  1  1  1  1  1  1  1
CENTRE ASSIGNMENTS    1  1  1  1  1  1  1  1  1  1  1  1  1  1  1  1  1  1  1  1
CENTRE ASSIGNMENTS    1  1  1  1  1  1  1  1  1  1  1  1  1  1  1  1  1  1  1  1
CENTRE ASSIGNMENTS    1  1  1  1  1  1  1  1  1  1  1  1  1  1  1  1  1  1  1  1
CENTRE ASSIGNMENTS    1  1  1  1  1  1  1  1  1  1  1  1  1  1  1  1  1  1  1  1
CENTRE ASSIGNMENTS    1  1  1  1  1  1  1  1  1  1  1  1  1  1  1  1  1  1  1  1
CENTRE ASSIGNMENTS    1  1  1  1  1  1  1  1  1  1  1  1  1  1  1  1  1  1  1  1
CENTRE ASSIGNMENTS    1  1  1  1  1  1  1  1  1  1  1  1  1  1  1  1  1  1  1  1
CENTRE ASSIGNMENTS    1  1  1  1  1  1  1  1  1  1  1  1  1  1  1  1  1  1  1  1
CENTRE ASSIGNMENTS    1  1  1  1  1  1  1  1  1  1  1  1  1  1  1  1  1  1  1  1
CENTRE ASSIGNMENTS    1  1  1  1  1  1  1  1  1  1  1  1  1  1  1  1  1  1  1  1
CENTRE ASSIGNMENTS    1  1  1  1  1  1  1  1  1  1  1  1  1  1  1  1  1  1  1  1
CENTRE ASSIGNMENTS    1  1  1  2  2  2  2  2  2  2  2  2  2  2  2  2  2  2  2  2
CENTRE ASSIGNMENTS    2  2  2  2  2  2  2  2  2  2  3  3  3  3  3  3  3  3  3  3
CENTRE ASSIGNMENTS    3  3  3  3  3  3  3  3  3  3  3  3  3  3  3  3  3  4  4  4
CENTRE ASSIGNMENTS    4  4  4  4  4  4  4  4  4  4  4  4  4  4  4  4  4  4  4  4
CENTRE ASSIGNMENTS    4  4  4  4  4  4  4  4  4  4  4  4  4  4  4  4  4  4  4  4
CENTRE ASSIGNMENTS    4  4  4  4  4  4  4  4  4  4  4  4  4  4  4  4  4  4  4  4
CENTRE ASSIGNMENTS    4  4  4  4  4  4  4  4  4  4  4  4  5  5  5  5  5  5  5  5
CENTRE ASSIGNMENTS    5  5  5  5  5  5  5  5  5  5  5  5  5  5  5  5  5  5  5  6
CENTRE ASSIGNMENTS    6  6  6  6  6  6  6  6  6  6  6  6  6  6  6  6  6  6  6  6
CENTRE ASSIGNMENTS    6  6  6  6  6  6  7  7  7  7  7  7  7  7  7  7  7  7  7  7
CENTRE ASSIGNMENTS    7  7  7  7  7  7  7  7  7  7  7  7  7  8  8  8  8  8  8  8
CENTRE ASSIGNMENTS    8  8  8  8  8  8  8  8  8  8  8  8  8  8  8  8  8  8  8  8
CENTRE ASSIGNMENTS    8  8  8  8  8  8  8  8  8  8  8  8  8  8  8  8  8  8  8  8
CENTRE ASSIGNMENTS    8  8  8  8  8  8  8  8  8  8  8  8  8  8  8  8  8  8  8  8
CENTRE ASSIGNMENTS    8  8  8  8  8  8  8  8  9  9  9  9  9  9  9  9  9  9  9  9
CENTRE ASSIGNMENTS    9  9  9  9  9  9  9  9  9  9  9  9  9  9  9 10 10 10 10 10
CENTRE ASSIGNMENTS   10 10 10 10 10 10 10 10 10 10 10 10 10 10 10 10 10 10 10 10
CENTRE ASSIGNMENTS   10 10 11 11 11 11 11 11 11 11 11 11 11 11 11 11 11 11 11 11
CENTRE ASSIGNMENTS   11 11 11 11 11 11 11 11 11
TYPE ASSIGNMENTS      1  1  1  1  1  1  1  1  1  1  1  1  1  1  1  1  1  1  1  1
TYPE ASSIGNMENTS      1  1  1  1  1  1  1  1  1  1  1  1  1  1  1  1  1  1  1  1
TYPE ASSIGNMENTS      1  1  1  1  1  1  1  1  1  1  1  1  1  1  1  1  1  1  1  1
TYPE ASSIGNMENTS      1  1  1  1  1  1  1  1  1  1  1  1  1  1  1  2  2  2  2  2
TYPE ASSIGNMENTS      2  2  2  2  2  2  3  3  3  3  3  3  3  3  3  3  3  4  4  4
TYPE ASSIGNMENTS      4  4  4  4  4  4  4  4  2  2  2  2  2  2  2  2  2  2  2  3
TYPE ASSIGNMENTS      3  3  3  3  3  3  3  3  3  3  4  4  4  4  4  4  4  4  4  4
TYPE ASSIGNMENTS      4  2  2  2  2  2  2  2  2  2  2  2  3  3  3  3  3  3  3  3
TYPE ASSIGNMENTS      3  3  3  4  4  4  4  4  4  4  4  4  4  4  2  3  4  2  3  4
TYPE ASSIGNMENTS      2  3  4  5  5  5  5  5  5  5  6  6  6  6  6  6  6  7  7  7
TYPE ASSIGNMENTS      7  7  7  7  8  8  8  8  8  8  8  9  9  9  9  9  9  9 10 10
TYPE ASSIGNMENTS     10 10 10 10 10  5  6  7  8  9 10  5  6  7  8  9 10  5  6  7
TYPE ASSIGNMENTS      8  9 10 11 12 13 17 14 15 18 19 16 20 11 12 13 17 14 15 18
TYPE ASSIGNMENTS     19 16 20  1  1  1  1  1  1  2  3  4  2  3  4  2  3  4  5  6
TYPE ASSIGNMENTS      7  8  9 10  5  6  7  8  9 10  1  1  1  1  1  1  2  3  4  2
TYPE ASSIGNMENTS      3  4  2  3  4  5  6  7  8  9 10  5  6  7  8  9 10  1  1  1
TYPE ASSIGNMENTS      1  1  1  1  1  1  1  1  1  1  1  1  1  1  1  1  2  2  2  3
TYPE ASSIGNMENTS      3  3  4  4  4  2  3  4  2  3  4  2  3  4  5  6  7  8  9 10
TYPE ASSIGNMENTS      5  6  7  8  9 10  5  6  7  8  9 10 11 12 13 17 14 15 18 19
TYPE ASSIGNMENTS     16 20 11 12 13 17 14 15 18 19 16 20  1  1  1  1  1  1  2  3
TYPE ASSIGNMENTS      4  2  3  4  2  3  4  5  6  7  8  9 10  5  6  7  8  9 10  1
TYPE ASSIGNMENTS      1  1  1  1  1  2  3  4  2  3  4  2  3  4  5  6  7  8  9 10
TYPE ASSIGNMENTS      5  6  7  8  9 10  1  1  1  1  1  1  2  3  4  2  3  4  2  3
TYPE ASSIGNMENTS      4  5  6  7  8  9 10  5  6  7  8  9 10  1  1  1  1  1  1  1
TYPE ASSIGNMENTS      1  1  1  1  1  1  1  1  1  1  1  1  2  2  2  3  3  3  4  4
TYPE ASSIGNMENTS      4  2  3  4  2  3  4  2  3  4  5  6  7  8  9 10  5  6  7  8
TYPE ASSIGNMENTS      9 10  5  6  7  8  9 10 11 12 13 17 14 15 18 19 16 20 11 12
TYPE ASSIGNMENTS     13 17 14 15 18 19 16 20  1  1  1  1  1  1  2  3  4  2  3  4
TYPE ASSIGNMENTS      2  3  4  5  6  7  8  9 10  5  6  7  8  9 10  1  1  1  1  1
TYPE ASSIGNMENTS      1  2  3  4  2  3  4  2  3  4  5  6  7  8  9 10  5  6  7  8
TYPE ASSIGNMENTS      9 10  1  1  1  1  1  1  2  3  4  2  3  4  2  3  4  5  6  7
TYPE ASSIGNMENTS      8  9 10  5  6  7  8  9 10
EXPONENTS  0.7447967D+07 0.1115318D+07 0.2538426D+06 0.7191529D+05 0.2347018D+05
EXPONENTS  0.8477492D+04 0.3308391D+04 0.1372605D+04 0.5982201D+03 0.2713860D+03
EXPONENTS  0.1269780D+03 0.6022207D+02 0.2801858D+02 0.1351752D+02 0.6309406D+01
EXPONENTS  0.2904534D+01 0.1287556D+01 0.1677320D+00 0.7447967D+07 0.1115318D+07
EXPONENTS  0.2538426D+06 0.7191529D+05 0.2347018D+05 0.8477492D+04 0.3308391D+04
EXPONENTS  0.1372605D+04 0.5982201D+03 0.2713860D+03 0.1269780D+03 0.6022207D+02
EXPONENTS  0.2801858D+02 0.1351752D+02 0.6309406D+01 0.2904534D+01 0.1287556D+01
EXPONENTS  0.1677320D+00 0.7447967D+07 0.1115318D+07 0.2538426D+06 0.7191529D+05
EXPONENTS  0.2347018D+05 0.8477492D+04 0.3308391D+04 0.1372605D+04 0.5982201D+03
EXPONENTS  0.2713860D+03 0.1269780D+03 0.6022207D+02 0.2801858D+02 0.1351752D+02
EXPONENTS  0.6309406D+01 0.2904534D+01 0.1287556D+01 0.1677320D+00 0.7447967D+07
EXPONENTS  0.1115318D+07 0.2538426D+06 0.7191529D+05 0.2347018D+05 0.8477492D+04
EXPONENTS  0.3308391D+04 0.1372605D+04 0.5982201D+03 0.2713860D+03 0.1269780D+03
EXPONENTS  0.6022207D+02 0.2801858D+02 0.1351752D+02 0.6309406D+01 0.2904534D+01
EXPONENTS  0.1287556D+01 0.1677320D+00 0.3365520D+00 0.7106900D-01 0.2737000D-01
EXPONENTS  0.6979598D+04 0.1654165D+04 0.5360286D+03 0.2035371D+03 0.8523753D+02
EXPONENTS  0.3784196D+02 0.1740651D+02 0.7881492D+01 0.3533213D+01 0.1521473D+01
EXPONENTS  0.1990930D+00 0.6979598D+04 0.1654165D+04 0.5360286D+03 0.2035371D+03
EXPONENTS  0.8523753D+02 0.3784196D+02 0.1740651D+02 0.7881492D+01 0.3533213D+01
EXPONENTS  0.1521473D+01 0.1990930D+00 0.6979598D+04 0.1654165D+04 0.5360286D+03
EXPONENTS  0.2035371D+03 0.8523753D+02 0.3784196D+02 0.1740651D+02 0.7881492D+01
EXPONENTS  0.3533213D+01 0.1521473D+01 0.1990930D+00 0.6979598D+04 0.1654165D+04
EXPONENTS  0.5360286D+03 0.2035371D+03 0.8523753D+02 0.3784196D+02 0.1740651D+02
EXPONENTS  0.7881492D+01 0.3533213D+01 0.1521473D+01 0.1990930D+00 0.6979598D+04
EXPONENTS  0.1654165D+04 0.5360286D+03 0.2035371D+03 0.8523753D+02 0.3784196D+02
EXPONENTS  0.1740651D+02 0.7881492D+01 0.3533213D+01 0.1521473D+01 0.1990930D+00
EXPONENTS  0.6979598D+04 0.1654165D+04 0.5360286D+03 0.2035371D+03 0.8523753D+02
EXPONENTS  0.3784196D+02 0.1740651D+02 0.7881492D+01 0.3533213D+01 0.1521473D+01
EXPONENTS  0.1990930D+00 0.6979598D+04 0.1654165D+04 0.5360286D+03 0.2035371D+03
EXPONENTS  0.8523753D+02 0.3784196D+02 0.1740651D+02 0.7881492D+01 0.3533213D+01
EXPONENTS  0.1521473D+01 0.1990930D+00 0.6979598D+04 0.1654165D+04 0.5360286D+03
EXPONENTS  0.2035371D+03 0.8523753D+02 0.3784196D+02 0.1740651D+02 0.7881492D+01
EXPONENTS  0.3533213D+01 0.1521473D+01 0.1990930D+00 0.6979598D+04 0.1654165D+04
EXPONENTS  0.5360286D+03 0.2035371D+03 0.8523753D+02 0.3784196D+02 0.1740651D+02
EXPONENTS  0.7881492D+01 0.3533213D+01 0.1521473D+01 0.1990930D+00 0.5627040D+00
EXPONENTS  0.5627040D+00 0.5627040D+00 0.6703100D-01 0.6703100D-01 0.6703100D-01
EXPONENTS  0.2136800D-01 0.2136800D-01 0.2136800D-01 0.2822391D+03 0.8454996D+02
EXPONENTS  0.3207366D+02 0.1349750D+02 0.5958550D+01 0.2610788D+01 0.1103987D+01
EXPONENTS  0.2822391D+03 0.8454996D+02 0.3207366D+02 0.1349750D+02 0.5958550D+01
EXPONENTS  0.2610788D+01 0.1103987D+01 0.2822391D+03 0.8454996D+02 0.3207366D+02
EXPONENTS  0.1349750D+02 0.5958550D+01 0.2610788D+01 0.1103987D+01 0.2822391D+03
EXPONENTS  0.8454996D+02 0.3207366D+02 0.1349750D+02 0.5958550D+01 0.2610788D+01
EXPONENTS  0.1103987D+01 0.2822391D+03 0.8454996D+02 0.3207366D+02 0.1349750D+02
EXPONENTS  0.5958550D+01 0.2610788D+01 0.1103987D+01 0.2822391D+03 0.8454996D+02
EXPONENTS  0.3207366D+02 0.1349750D+02 0.5958550D+01 0.2610788D+01 0.1103987D+01
EXPONENTS  0.4240490D+00 0.4240490D+00 0.4240490D+00 0.4240490D+00 0.4240490D+00
EXPONENTS  0.4240490D+00 0.1520000D+00 0.1520000D+00 0.1520000D+00 0.1520000D+00
EXPONENTS  0.1520000D+00 0.1520000D+00 0.5280000D-01 0.5280000D-01 0.5280000D-01
EXPONENTS  0.5280000D-01 0.5280000D-01 0.5280000D-01 0.3458000D+00 0.3458000D+00
EXPONENTS  0.3458000D+00 0.3458000D+00 0.3458000D+00 0.3458000D+00 0.3458000D+00
EXPONENTS  0.3458000D+00 0.3458000D+00 0.3458000D+00 0.1323000D+00 0.1323000D+00
EXPONENTS  0.1323000D+00 0.1323000D+00 0.1323000D+00 0.1323000D+00 0.1323000D+00
EXPONENTS  0.1323000D+00 0.1323000D+00 0.1323000D+00 0.3387000D+02 0.5095000D+01
EXPONENTS  0.1159000D+01 0.3258000D+00 0.1027000D+00 0.2526000D-01 0.1407000D+01
EXPONENTS  0.1407000D+01 0.1407000D+01 0.3880000D+00 0.3880000D+00 0.3880000D+00
EXPONENTS  0.1020000D+00 0.1020000D+00 0.1020000D+00 0.1057000D+01 0.1057000D+01
EXPONENTS  0.1057000D+01 0.1057000D+01 0.1057000D+01 0.1057000D+01 0.2470000D+00
EXPONENTS  0.2470000D+00 0.2470000D+00 0.2470000D+00 0.2470000D+00 0.2470000D+00
EXPONENTS  0.3387000D+02 0.5095000D+01 0.1159000D+01 0.3258000D+00 0.1027000D+00
EXPONENTS  0.2526000D-01 0.1407000D+01 0.1407000D+01 0.1407000D+01 0.3880000D+00
EXPONENTS  0.3880000D+00 0.3880000D+00 0.1020000D+00 0.1020000D+00 0.1020000D+00
EXPONENTS  0.1057000D+01 0.1057000D+01 0.1057000D+01 0.1057000D+01 0.1057000D+01
EXPONENTS  0.1057000D+01 0.2470000D+00 0.2470000D+00 0.2470000D+00 0.2470000D+00
EXPONENTS  0.2470000D+00 0.2470000D+00 0.8236000D+04 0.1235000D+04 0.2808000D+03
EXPONENTS  0.7927000D+02 0.2559000D+02 0.8997000D+01 0.3319000D+01 0.3643000D+00
EXPONENTS  0.8236000D+04 0.1235000D+04 0.2808000D+03 0.7927000D+02 0.2559000D+02
EXPONENTS  0.8997000D+01 0.3319000D+01 0.3643000D+00 0.9059000D+00 0.1285000D+00
EXPONENTS  0.4402000D-01 0.1871000D+02 0.4133000D+01 0.1200000D+01 0.1871000D+02
EXPONENTS  0.4133000D+01 0.1200000D+01 0.1871000D+02 0.4133000D+01 0.1200000D+01
EXPONENTS  0.3827000D+00 0.3827000D+00 0.3827000D+00 0.1209000D+00 0.1209000D+00
EXPONENTS  0.1209000D+00 0.3569000D-01 0.3569000D-01 0.3569000D-01 0.1097000D+01
EXPONENTS  0.1097000D+01 0.1097000D+01 0.1097000D+01 0.1097000D+01 0.1097000D+01
EXPONENTS  0.3180000D+00 0.3180000D+00 0.3180000D+00 0.3180000D+00 0.3180000D+00
EXPONENTS  0.3180000D+00 0.1000000D+00 0.1000000D+00 0.1000000D+00 0.1000000D+00
EXPONENTS  0.1000000D+00 0.1000000D+00 0.7610000D+00 0.7610000D+00 0.7610000D+00
EXPONENTS  0.7610000D+00 0.7610000D+00 0.7610000D+00 0.7610000D+00 0.7610000D+00
EXPONENTS  0.7610000D+00 0.7610000D+00 0.2680000D+00 0.2680000D+00 0.2680000D+00
EXPONENTS  0.2680000D+00 0.2680000D+00 0.2680000D+00 0.2680000D+00 0.2680000D+00
EXPONENTS  0.2680000D+00 0.2680000D+00 0.3387000D+02 0.5095000D+01 0.1159000D+01
EXPONENTS  0.3258000D+00 0.1027000D+00 0.2526000D-01 0.1407000D+01 0.1407000D+01
EXPONENTS  0.1407000D+01 0.3880000D+00 0.3880000D+00 0.3880000D+00 0.1020000D+00
EXPONENTS  0.1020000D+00 0.1020000D+00 0.1057000D+01 0.1057000D+01 0.1057000D+01
EXPONENTS  0.1057000D+01 0.1057000D+01 0.1057000D+01 0.2470000D+00 0.2470000D+00
EXPONENTS  0.2470000D+00 0.2470000D+00 0.2470000D+00 0.2470000D+00 0.3387000D+02
EXPONENTS  0.5095000D+01 0.1159000D+01 0.3258000D+00 0.1027000D+00 0.2526000D-01
EXPONENTS  0.1407000D+01 0.1407000D+01 0.1407000D+01 0.3880000D+00 0.3880000D+00
EXPONENTS  0.3880000D+00 0.1020000D+00 0.1020000D+00 0.1020000D+00 0.1057000D+01
EXPONENTS  0.1057000D+01 0.1057000D+01 0.1057000D+01 0.1057000D+01 0.1057000D+01
EXPONENTS  0.2470000D+00 0.2470000D+00 0.2470000D+00 0.2470000D+00 0.2470000D+00
EXPONENTS  0.2470000D+00 0.3387000D+02 0.5095000D+01 0.1159000D+01 0.3258000D+00
EXPONENTS  0.1027000D+00 0.2526000D-01 0.1407000D+01 0.1407000D+01 0.1407000D+01
EXPONENTS  0.3880000D+00 0.3880000D+00 0.3880000D+00 0.1020000D+00 0.1020000D+00
EXPONENTS  0.1020000D+00 0.1057000D+01 0.1057000D+01 0.1057000D+01 0.1057000D+01
EXPONENTS  0.1057000D+01 0.1057000D+01 0.2470000D+00 0.2470000D+00 0.2470000D+00
EXPONENTS  0.2470000D+00 0.2470000D+00 0.2470000D+00 0.8236000D+04 0.1235000D+04
EXPONENTS  0.2808000D+03 0.7927000D+02 0.2559000D+02 0.8997000D+01 0.3319000D+01
EXPONENTS  0.3643000D+00 0.8236000D+04 0.1235000D+04 0.2808000D+03 0.7927000D+02
EXPONENTS  0.2559000D+02 0.8997000D+01 0.3319000D+01 0.3643000D+00 0.9059000D+00
EXPONENTS  0.1285000D+00 0.4402000D-01 0.1871000D+02 0.4133000D+01 0.1200000D+01
EXPONENTS  0.1871000D+02 0.4133000D+01 0.1200000D+01 0.1871000D+02 0.4133000D+01
EXPONENTS  0.1200000D+01 0.3827000D+00 0.3827000D+00 0.3827000D+00 0.1209000D+00
EXPONENTS  0.1209000D+00 0.1209000D+00 0.3569000D-01 0.3569000D-01 0.3569000D-01
EXPONENTS  0.1097000D+01 0.1097000D+01 0.1097000D+01 0.1097000D+01 0.1097000D+01
EXPONENTS  0.1097000D+01 0.3180000D+00 0.3180000D+00 0.3180000D+00 0.3180000D+00
EXPONENTS  0.3180000D+00 0.3180000D+00 0.1000000D+00 0.1000000D+00 0.1000000D+00
EXPONENTS  0.1000000D+00 0.1000000D+00 0.1000000D+00 0.7610000D+00 0.7610000D+00
EXPONENTS  0.7610000D+00 0.7610000D+00 0.7610000D+00 0.7610000D+00 0.7610000D+00
EXPONENTS  0.7610000D+00 0.7610000D+00 0.7610000D+00 0.2680000D+00 0.2680000D+00
EXPONENTS  0.2680000D+00 0.2680000D+00 0.2680000D+00 0.2680000D+00 0.2680000D+00
EXPONENTS  0.2680000D+00 0.2680000D+00 0.2680000D+00 0.3387000D+02 0.5095000D+01
EXPONENTS  0.1159000D+01 0.3258000D+00 0.1027000D+00 0.2526000D-01 0.1407000D+01
EXPONENTS  0.1407000D+01 0.1407000D+01 0.3880000D+00 0.3880000D+00 0.3880000D+00
EXPONENTS  0.1020000D+00 0.1020000D+00 0.1020000D+00 0.1057000D+01 0.1057000D+01
EXPONENTS  0.1057000D+01 0.1057000D+01 0.1057000D+01 0.1057000D+01 0.2470000D+00
EXPONENTS  0.2470000D+00 0.2470000D+00 0.2470000D+00 0.2470000D+00 0.2470000D+00
EXPONENTS  0.3387000D+02 0.5095000D+01 0.1159000D+01 0.3258000D+00 0.1027000D+00
EXPONENTS  0.2526000D-01 0.1407000D+01 0.1407000D+01 0.1407000D+01 0.3880000D+00
EXPONENTS  0.3880000D+00 0.3880000D+00 0.1020000D+00 0.1020000D+00 0.1020000D+00
EXPONENTS  0.1057000D+01 0.1057000D+01 0.1057000D+01 0.1057000D+01 0.1057000D+01
EXPONENTS  0.1057000D+01 0.2470000D+00 0.2470000D+00 0.2470000D+00 0.2470000D+00
EXPONENTS  0.2470000D+00 0.2470000D+00 0.3387000D+02 0.5095000D+01 0.1159000D+01
EXPONENTS  0.3258000D+00 0.1027000D+00 0.2526000D-01 0.1407000D+01 0.1407000D+01
EXPONENTS  0.1407000D+01 0.3880000D+00 0.3880000D+00 0.3880000D+00 0.1020000D+00
EXPONENTS  0.1020000D+00 0.1020000D+00 0.1057000D+01 0.1057000D+01 0.1057000D+01
EXPONENTS  0.1057000D+01 0.1057000D+01 0.1057000D+01 0.2470000D+00 0.2470000D+00
EXPONENTS  0.2470000D+00 0.2470000D+00 0.2470000D+00 0.2470000D+00
MO    1     MO 0.0        OCC NO =    2.0000000  ORB. ENERGY = -399.085905
  0.75188773D+00  0.14039575D+01  0.24332097D+01  0.39851037D+01  0.62330105D+01
  0.93321722D+01  0.13229453D+02  0.17245438D+02  0.19354836D+02  0.16454953D+02
  0.82094438D+01  0.15262959D+01  0.35859677D-01  0.51985263D-02 -0.13777265D-02
  0.28620521D-03 -0.78561979D-04 -0.49686289D-05  0.98348195D-04  0.18425207D-03
  0.31883175D-03  0.52210735D-03  0.82037688D-03  0.12367876D-02  0.17944368D-02
  0.24470030D-02  0.30535321D-02  0.31861123D-02  0.23073646D-02  0.16300823D-03
 -0.16710922D-02 -0.11781197D-02 -0.16680733D-03 -0.15110886D-05 -0.75865064D-06
 -0.25791609D-07 -0.99275166D-04 -0.18321794D-03 -0.31673921D-03 -0.51916938D-03
 -0.81614289D-03 -0.12316206D-02 -0.17916544D-02 -0.24579282D-02 -0.31072102D-02
 -0.33347622D-02 -0.25448115D-02 -0.19861035D-03  0.25671229D-02  0.27279646D-02
 -0.33435437D-04 -0.12422297D-02 -0.44937308D-03  0.20744103D-05  0.40929320D-04
  0.88674313D-04  0.15096721D-03  0.24710311D-03  0.38813525D-03  0.58602040D-03
  0.85246113D-03  0.11709654D-02  0.14820788D-02  0.15980734D-02  0.12266194D-02
  0.99754712D-04 -0.13023147D-02 -0.14575114D-02  0.46180600D-04  0.86360759D-03
  0.59018065D-03 -0.23290291D-03  0.11155265D-03  0.14597562D-03  0.14803234D-05
  0.65189396D-15  0.93340362D-15  0.12294867D-14  0.14076837D-14  0.12880680D-14
  0.81984009D-15  0.28311188D-15  0.31611035D-16  0.40021070D-18  0.72632145D-19
  0.57017724D-21 -0.14791640D-14 -0.21179166D-14 -0.27897367D-14 -0.31940701D-14
 -0.29226591D-14 -0.18602380D-14 -0.64238806D-15 -0.71726244D-16 -0.90808827D-18
 -0.16480419D-18 -0.12937467D-20  0.13926049D-03  0.19939783D-03  0.26264843D-03
  0.30071565D-03  0.27516281D-03  0.17513789D-03  0.60479618D-04  0.67528899D-05
  0.85494790D-07  0.15516002D-07  0.12180380D-09 -0.29204431D-14 -0.42091365D-14
 -0.55905862D-14 -0.65881617D-14 -0.62904642D-14 -0.42955075D-14 -0.13605858D-14
  0.64134871D-15  0.66486806D-15  0.17492464D-15 -0.11606885D-18  0.71723800D-14
  0.10337310D-13  0.13730043D-13  0.16180010D-13  0.15448889D-13  0.10549431D-13
  0.33414923D-14 -0.15751023D-14 -0.16328640D-14 -0.42960124D-15  0.28505604D-18
 -0.61904190D-03 -0.89220430D-03 -0.11850281D-02 -0.13964827D-02 -0.13333802D-02
 -0.91051224D-03 -0.28840131D-03  0.13594572D-03  0.14093108D-03  0.37078511D-04
 -0.24602940D-07  0.22683247D-14  0.32486630D-14  0.43447479D-14  0.51042928D-14
  0.49321107D-14  0.33622733D-14  0.10748822D-14 -0.63747286D-15 -0.61859595D-15
 -0.20904560D-15  0.78195702D-16 -0.55096858D-14 -0.78908953D-14 -0.10553249D-13
 -0.12398159D-13 -0.11979934D-13 -0.81668511D-14 -0.26108534D-14  0.15484006D-14
  0.15025492D-14  0.50776487D-15 -0.18993478D-15  0.44454835D-03  0.63667596D-03
  0.85148769D-03  0.10003440D-02  0.96659958D-03  0.65894141D-03  0.21065639D-03
 -0.12493252D-03 -0.12123300D-03 -0.40968948D-04  0.15324866D-04 -0.89054748D-17
  0.39316243D-16 -0.10376211D-04  0.19585367D-16  0.68860320D-16 -0.18922464D-04
  0.36422269D-17  0.58745545D-18 -0.47444043D-06 -0.53262468D-04 -0.53576441D-04
 -0.42814428D-04 -0.26219209D-04 -0.11000088D-04 -0.29990242D-05 -0.49065538D-06
  0.10292184D-04  0.10352855D-04  0.82732552D-05  0.50664743D-05  0.21256043D-05
  0.57951707D-06  0.94811896D-07  0.42970284D-04  0.43223586D-04  0.34541173D-04
  0.21152734D-04  0.88744834D-05  0.24195071D-05  0.39584348D-06 -0.24386580D-15
 -0.24530334D-15 -0.19602874D-15 -0.12004641D-15 -0.50364643D-16 -0.13731234D-16
 -0.22464987D-17 -0.41143604D-15 -0.41386138D-15 -0.33072818D-15 -0.20253525D-15
 -0.84972265D-16 -0.23166531D-16 -0.37901606D-17 -0.57331902D-15 -0.57669863D-15
 -0.46085596D-15 -0.28222445D-15 -0.11840532D-15 -0.32281598D-16 -0.52814311D-17
  0.14558093D-05  0.93526452D-06 -0.23910739D-05  0.16416464D-16  0.33367433D-16
  0.30444645D-16 -0.20226747D-05  0.46439294D-06  0.15582818D-05 -0.30134598D-16
  0.33697369D-16  0.81188497D-16 -0.54652589D-06  0.68580068D-06 -0.13927479D-06
  0.45944122D-17 -0.16132172D-17 -0.28186926D-17  0.23782784D-17 -0.13774200D-16
  0.53765557D-06 -0.14604311D-16  0.35127945D-16 -0.17852186D-04  0.74694761D-17
  0.61946559D-17  0.16239219D-04  0.15467963D-19  0.51086604D-18  0.62218386D-17
  0.21253183D-06 -0.14032084D-17  0.55535551D-18  0.18425233D-05 -0.12938978D-18
 -0.19220871D-16 -0.24801188D-05  0.11191961D-16 -0.23329337D-05 -0.42075421D-05
 -0.62040184D-05  0.27824407D-04 -0.23728904D-04  0.18533916D-05  0.59023371D-05
 -0.81471384D-18  0.87258274D-05 -0.21432058D-04 -0.82937113D-17 -0.21057353D-04
  0.42449995D-06 -0.19498594D-16  0.42010696D-05 -0.31691123D-06 -0.17413905D-05
  0.20583017D-05  0.31035871D-16  0.93606003D-05 -0.79697175D-17  0.17647117D-05
 -0.19589825D-05  0.19427079D-06 -0.83459566D-17  0.44915041D-05  0.86110749D-17
 -0.23329337D-05 -0.42075421D-05 -0.62040184D-05  0.27824407D-04 -0.23728904D-04
  0.18533916D-05 -0.59023371D-05  0.10488756D-16  0.87258274D-05  0.21432058D-04
 -0.20726923D-16 -0.21057353D-04 -0.42449995D-06  0.34823389D-17  0.42010696D-05
 -0.31691123D-06 -0.17413905D-05  0.20583017D-05 -0.50316136D-16 -0.93606003D-05
 -0.18944400D-17  0.17647117D-05 -0.19589825D-05  0.19427079D-06  0.17136706D-16
 -0.44915041D-05  0.12009671D-16 -0.59672696D-05 -0.11124347D-04 -0.18802107D-04
 -0.28265725D-04 -0.34727709D-04 -0.29333102D-04 -0.11063367D-04  0.54753220D-07
  0.43348861D-05  0.81162746D-05  0.13818652D-04  0.21375353D-04  0.28150588D-04
  0.29250264D-04  0.18587230D-04 -0.12456729D-04 -0.14511181D-04  0.11062373D-03
 -0.51337911D-05 -0.18532954D-16 -0.17375822D-16 -0.12372620D-16  0.58249611D-05
  0.54612713D-05  0.38887505D-05 -0.83071011D-05 -0.77884353D-05 -0.55458299D-05
  0.72260977D-16  0.52277781D-05  0.85768030D-05  0.10744767D-15  0.10956272D-04
  0.10733209D-04 -0.53111366D-17 -0.34987097D-06 -0.18241827D-06  0.44211886D-05
 -0.50661428D-05  0.64495425D-06  0.35741097D-16 -0.20986559D-16  0.88757566D-05
 -0.84375171D-05  0.78742787D-05  0.56323843D-06 -0.55719839D-16 -0.89311509D-16
  0.61001980D-05 -0.16962660D-05  0.64038976D-07  0.16322271D-05 -0.54649608D-16
 -0.95644180D-17  0.12199931D-05  0.54725695D-17 -0.25897707D-06 -0.20522921D-05
 -0.30340783D-16  0.34391246D-05 -0.56342624D-06  0.13923074D-16 -0.26621934D-05
  0.67203025D-05  0.13394437D-16 -0.17266969D-17  0.64685315D-06 -0.61424257D-06
 -0.93341978D-17 -0.43146792D-05 -0.68035686D-05  0.14514288D-16  0.23741197D-05
  0.86462963D-05 -0.78531097D-17  0.87513681D-06  0.15783453D-05  0.23272692D-05
 -0.22274232D-04 -0.26800778D-04 -0.88820587D-06  0.88052081D-06 -0.53865688D-05
  0.28651291D-05 -0.72040738D-05  0.78413901D-05 -0.42245031D-05 -0.42512916D-05
  0.63418918D-05 -0.31133895D-05 -0.22000636D-05  0.17685388D-05  0.43152482D-06
  0.23234990D-05 -0.34960739D-05  0.23377116D-05  0.81201743D-06 -0.13675917D-05
  0.55557432D-06  0.36438979D-07  0.16012871D-05  0.35234273D-05  0.96433136D-06
  0.17392113D-05  0.25644661D-05 -0.62027400D-04 -0.58570909D-04  0.69519023D-06
 -0.63965208D-17 -0.88882764D-07  0.63202202D-05  0.37354688D-16  0.19355593D-04
  0.81385059D-05  0.43220874D-16  0.11467035D-04 -0.57757527D-06  0.29341324D-05
 -0.29250031D-05 -0.91292946D-08 -0.30498657D-16 -0.53136372D-17 -0.77033355D-05
  0.62337529D-06 -0.36231289D-06 -0.26106240D-06 -0.25648326D-17 -0.16808274D-16
  0.37711920D-05  0.87513681D-06  0.15783453D-05  0.23272692D-05 -0.22274232D-04
 -0.26800778D-04 -0.88820587D-06 -0.88052081D-06 -0.53865688D-05  0.28651291D-05
  0.72040738D-05  0.78413901D-05 -0.42245031D-05  0.42512916D-05  0.63418918D-05
 -0.31133895D-05 -0.22000636D-05  0.17685388D-05  0.43152482D-06 -0.23234990D-05
  0.34960739D-05  0.23377116D-05  0.81201743D-06 -0.13675917D-05  0.55557432D-06
 -0.36438979D-07 -0.16012871D-05  0.35234273D-05 -0.59672696D-05 -0.11124347D-04
 -0.18802107D-04 -0.28265725D-04 -0.34727709D-04 -0.29333102D-04 -0.11063367D-04
  0.54753220D-07  0.43348861D-05  0.81162746D-05  0.13818652D-04  0.21375353D-04
  0.28150588D-04  0.29250264D-04  0.18587230D-04 -0.12456729D-04 -0.14511181D-04
  0.11062373D-03 -0.51337911D-05  0.38348632D-16  0.35954280D-16  0.25601589D-16
 -0.58249611D-05 -0.54612713D-05 -0.38887505D-05 -0.83071011D-05 -0.77884353D-05
 -0.55458299D-05 -0.14935595D-15 -0.52277781D-05  0.85768030D-05 -0.23650359D-15
 -0.10956272D-04  0.10733209D-04  0.67760832D-18  0.34987097D-06 -0.18241827D-06
  0.44211886D-05 -0.50661428D-05  0.64495425D-06  0.17435211D-16  0.24845255D-16
 -0.88757566D-05 -0.84375171D-05  0.78742787D-05  0.56323843D-06 -0.19022737D-16
  0.15543941D-15 -0.61001980D-05 -0.16962660D-05  0.64038976D-07  0.16322271D-05
 -0.21779309D-16  0.43897774D-16 -0.12199931D-05 -0.64095893D-17  0.25897707D-06
 -0.20522921D-05  0.44586044D-16 -0.34391246D-05 -0.56342624D-06 -0.25357276D-16
  0.26621934D-05  0.67203025D-05  0.61746424D-18  0.19430922D-17 -0.64685315D-06
 -0.61424257D-06  0.11026140D-16  0.43146792D-05 -0.68035686D-05 -0.16855416D-16
 -0.23741197D-05  0.86462963D-05 -0.56921810D-17  0.96433136D-06  0.17392113D-05
  0.25644661D-05 -0.62027400D-04 -0.58570909D-04  0.69519023D-06 -0.15724532D-16
  0.88882764D-07  0.63202202D-05 -0.95162982D-17 -0.19355593D-04  0.81385059D-05
 -0.30103388D-16 -0.11467035D-04 -0.57757527D-06  0.29341324D-05 -0.29250031D-05
 -0.91292946D-08 -0.14118679D-16  0.12747292D-16  0.77033355D-05  0.62337529D-06
 -0.36231289D-06 -0.26106240D-06 -0.59027201D-17  0.49991205D-18 -0.37711920D-05
  0.87513681D-06  0.15783453D-05  0.23272692D-05 -0.22274232D-04 -0.26800778D-04
 -0.88820587D-06  0.88052081D-06  0.53865688D-05  0.28651291D-05 -0.72040738D-05
 -0.78413901D-05 -0.42245031D-05 -0.42512916D-05 -0.63418918D-05 -0.31133895D-05
 -0.22000636D-05  0.17685388D-05  0.43152482D-06 -0.23234990D-05 -0.34960739D-05
 -0.23377116D-05  0.81201743D-06 -0.13675917D-05  0.55557432D-06 -0.36438979D-07
  0.16012871D-05 -0.35234273D-05  0.87513681D-06  0.15783453D-05  0.23272692D-05
 -0.22274232D-04 -0.26800778D-04 -0.88820587D-06 -0.88052081D-06  0.53865688D-05
  0.28651291D-05  0.72040738D-05 -0.78413901D-05 -0.42245031D-05  0.42512916D-05
 -0.63418918D-05 -0.31133895D-05 -0.22000636D-05  0.17685388D-05  0.43152482D-06
  0.23234990D-05  0.34960739D-05 -0.23377116D-05  0.81201743D-06 -0.13675917D-05
  0.55557432D-06  0.36438979D-07 -0.16012871D-05 -0.35234273D-05
MO    2     MO 0.0        OCC NO =    2.0000000  ORB. ENERGY =  -49.902988
  0.10462206D-02  0.19535487D-02  0.33857104D-02  0.55451066D-02  0.86729757D-02
  0.12985331D-01  0.18408236D-01  0.23996313D-01  0.26931452D-01  0.22896385D-01
  0.11423101D-01  0.21237774D-02  0.49897254D-04  0.72335338D-05 -0.19170493D-05
  0.39824269D-06 -0.10931574D-06 -0.69136412D-08 -0.23566597D+00 -0.44151235D+00
 -0.76399767D+00 -0.12510950D+01 -0.19658206D+01 -0.29636410D+01 -0.42999029D+01
 -0.58636086D+01 -0.73169984D+01 -0.76346925D+01 -0.55290015D+01 -0.39060699D+00
  0.40043393D+01  0.28230586D+01  0.39971053D+00  0.36209323D-02  0.18179097D-02
  0.61802908D-04  0.30848561D-02  0.56932766D-02  0.98422892D-02  0.16132563D-01
  0.25360657D-01  0.38271124D-01  0.55673501D-01  0.76377155D-01  0.96552812D-01
  0.10362372D+00  0.79076949D-01  0.61715772D-02 -0.79770250D-01 -0.84768212D-01
  0.10389659D-02  0.38600791D-01  0.13963727D-01 -0.64459799D-04 -0.13068210D-02
 -0.28312577D-02 -0.48201904D-02 -0.78896869D-02 -0.12392663D-01 -0.18710884D-01
 -0.27217996D-01 -0.37387430D-01 -0.47320884D-01 -0.51024445D-01 -0.39164394D-01
 -0.31850407D-02  0.41581248D-01  0.46536479D-01 -0.14744876D-02 -0.27573888D-01
 -0.18843715D-01  0.74362928D-02 -0.28746288D-02 -0.52616409D-02 -0.53944377D-04
  0.43252887D-14  0.61930933D-14  0.81575923D-14  0.93399214D-14  0.85462764D-14
  0.54396042D-14  0.18784353D-14  0.20973787D-15  0.26553810D-17  0.48191120D-18
  0.37831017D-20 -0.20299365D-13 -0.29065311D-13 -0.38285061D-13 -0.43833946D-13
 -0.40109226D-13 -0.25529050D-13 -0.88158376D-14 -0.98433791D-15 -0.12462185D-16
 -0.22616967D-17 -0.17754783D-19 -0.31689566D-02 -0.45374183D-02 -0.59767238D-02
 -0.68429665D-02 -0.62614962D-02 -0.39853685D-02 -0.13762503D-02 -0.15366609D-03
 -0.19454856D-05 -0.35307601D-06 -0.27717191D-08  0.20609529D-13  0.29703821D-13
  0.39452694D-13  0.46492571D-13  0.44391723D-13  0.30313341D-13  0.96016359D-14
 -0.45259894D-14 -0.46919652D-14 -0.12344409D-14  0.81909639D-18  0.19990794D-12
  0.28812060D-12  0.38268255D-12  0.45096782D-12  0.43059006D-12  0.29403281D-12
  0.93133779D-13 -0.43901113D-13 -0.45511042D-13 -0.11973808D-13  0.79450568D-17
  0.15532845D-01  0.22386967D-01  0.29734429D-01  0.35040195D-01  0.33456843D-01
  0.22846346D-01  0.72364935D-02 -0.34111160D-02 -0.35362074D-02 -0.93036474D-03
  0.61733082D-06 -0.16865133D-13 -0.24154009D-13 -0.32303468D-13 -0.37950730D-13
 -0.36670546D-13 -0.24998709D-13 -0.79918150D-14  0.47396499D-14  0.45992989D-14
  0.15542669D-14 -0.58138985D-15 -0.15656195D-12 -0.22422584D-12 -0.29987868D-12
 -0.35230319D-12 -0.34041901D-12 -0.23206733D-12 -0.74189400D-13  0.43998989D-13
  0.42696086D-13  0.14428528D-13 -0.53971425D-14 -0.11150925D-01 -0.15970199D-01
 -0.21358476D-01 -0.25092345D-01 -0.24245910D-01 -0.16528700D-01 -0.52840454D-02
  0.31337719D-02  0.30409743D-02  0.10276535D-02 -0.38440459D-03 -0.24960461D-15
  0.84542162D-15  0.24132893D-03  0.23522717D-15 -0.58190954D-14  0.63158133D-03
 -0.22655668D-15 -0.16453727D-15  0.17500614D-04  0.15620174D-02  0.15712252D-02
  0.12556099D-02  0.76892531D-03  0.32259730D-03  0.87951762D-04  0.14389349D-04
 -0.29982963D-03 -0.30159707D-03 -0.24101463D-03 -0.14759540D-03 -0.61922631D-04
 -0.16882362D-04 -0.27620391D-05 -0.12621878D-02 -0.12696281D-02 -0.10145953D-02
 -0.62132991D-03 -0.26067467D-03 -0.71069399D-04 -0.11627310D-04  0.55677139D-14