 Molden2AIM, Version 4.0.0 (06/02/2016)           Time: Fri Jun 29 19:34:57 2018
GAUSSIAN             25 MOL ORBITALS    701 PRIMITIVES       15 NUCLEI
  Si   1    (CENTRE  1)   0.00025889  0.03399050  0.00000000  CHARGE = 14.0
  O    2    (CENTRE  2)  -1.10952057  3.05451173  0.00000000  CHARGE =  8.0
  H    3    (CENTRE  3)  -2.91530695  3.22403717  0.00000000  CHARGE =  1.0
  C    4    (CENTRE  4)   3.51864737  0.40433903  0.00000000  CHARGE =  6.0
  H    5    (CENTRE  5)   4.14736681  1.45044606  1.67937315  CHARGE =  1.0
  H    6    (CENTRE  6)   4.46437970 -1.44537025  0.00000000  CHARGE =  1.0
  H    7    (CENTRE  7)   4.14736681  1.45044606 -1.67937315  CHARGE =  1.0
  C    8    (CENTRE  8)  -1.12306046 -1.67827144  2.90627406  CHARGE =  6.0
  H    9    (CENTRE  9)  -0.34592760 -3.60488124  2.97801373  CHARGE =  1.0
  H   10    (CENTRE 10)  -0.53093745 -0.68325883  4.62991026  CHARGE =  1.0
  H   11    (CENTRE 11)  -3.19484658 -1.83920619  2.93878491  CHARGE =  1.0
  C   12    (CENTRE 12)  -1.12306046 -1.67827144 -2.90627406  CHARGE =  6.0
  H   13    (CENTRE 13)  -0.53093745 -0.68325883 -4.62991026  CHARGE =  1.0
  H   14    (CENTRE 14)  -0.34592760 -3.60488124 -2.97801373  CHARGE =  1.0
  H   15    (CENTRE 15)  -3.19484658 -1.83920619 -2.93878491  CHARGE =  1.0
CENTRE ASSIGNMENTS    1  1  1  1  1  1  1  1  1  1  1  1  1  1  1  1  1  1  1  1
CENTRE ASSIGNMENTS    1  1  1  1  1  1  1  1  1  1  1  1  1  1  1  1  1  1  1  1
CENTRE ASSIGNMENTS    1  1  1  1  1  1  1  1  1  1  1  1  1  1  1  1  1  1  1  1
CENTRE ASSIGNMENTS    1  1  1  1  1  1  1  1  1  1  1  1  1  1  1  1  1  1  1  1
CENTRE ASSIGNMENTS    1  1  1  1  1  1  1  1  1  1  1  1  1  1  1  1  1  1  1  1
CENTRE ASSIGNMENTS    1  1  1  1  1  1  1  1  1  1  1  1  1  1  1  1  1  1  1  1
CENTRE ASSIGNMENTS    1  1  1  1  1  1  1  1  1  1  1  2  2  2  2  2  2  2  2  2
CENTRE ASSIGNMENTS    2  2  2  2  2  2  2  2  2  2  2  2  2  2  2  2  2  2  2  2
CENTRE ASSIGNMENTS    2  2  2  2  2  2  2  2  2  2  2  2  2  2  2  2  2  2  2  2
CENTRE ASSIGNMENTS    2  2  2  2  2  2  2  2  2  2  2  2  2  2  2  2  2  2  2  2
CENTRE ASSIGNMENTS    2  2  2  2  2  2  3  3  3  3  3  3  3  3  3  3  3  3  3  3
CENTRE ASSIGNMENTS    3  3  3  3  3  3  3  3  3  3  3  3  3  4  4  4  4  4  4  4
CENTRE ASSIGNMENTS    4  4  4  4  4  4  4  4  4  4  4  4  4  4  4  4  4  4  4  4
CENTRE ASSIGNMENTS    4  4  4  4  4  4  4  4  4  4  4  4  4  4  4  4  4  4  4  4
CENTRE ASSIGNMENTS    4  4  4  4  4  4  4  4  4  4  4  4  4  4  4  4  4  4  4  4
CENTRE ASSIGNMENTS    4  4  4  4  4  4  4  4  5  5  5  5  5  5  5  5  5  5  5  5
CENTRE ASSIGNMENTS    5  5  5  5  5  5  5  5  5  5  5  5  5  5  5  6  6  6  6  6
CENTRE ASSIGNMENTS    6  6  6  6  6  6  6  6  6  6  6  6  6  6  6  6  6  6  6  6
CENTRE ASSIGNMENTS    6  6  7  7  7  7  7  7  7  7  7  7  7  7  7  7  7  7  7  7
CENTRE ASSIGNMENTS    7  7  7  7  7  7  7  7  7  8  8  8  8  8  8  8  8  8  8  8
CENTRE ASSIGNMENTS    8  8  8  8  8  8  8  8  8  8  8  8  8  8  8  8  8  8  8  8
CENTRE ASSIGNMENTS    8  8  8  8  8  8  8  8  8  8  8  8  8  8  8  8  8  8  8  8
CENTRE ASSIGNMENTS    8  8  8  8  8  8  8  8  8  8  8  8  8  8  8  8  8  8  8  8
CENTRE ASSIGNMENTS    8  8  8  8  9  9  9  9  9  9  9  9  9  9  9  9  9  9  9  9
CENTRE ASSIGNMENTS    9  9  9  9  9  9  9  9  9  9  9 10 10 10 10 10 10 10 10 10
CENTRE ASSIGNMENTS   10 10 10 10 10 10 10 10 10 10 10 10 10 10 10 10 10 10 11 11
CENTRE ASSIGNMENTS   11 11 11 11 11 11 11 11 11 11 11 11 11 11 11 11 11 11 11 11
CENTRE ASSIGNMENTS   11 11 11 11 11 12 12 12 12 12 12 12 12 12 12 12 12 12 12 12
CENTRE ASSIGNMENTS   12 12 12 12 12 12 12 12 12 12 12 12 12 12 12 12 12 12 12 12
CENTRE ASSIGNMENTS   12 12 12 12 12 12 12 12 12 12 12 12 12 12 12 12 12 12 12 12
CENTRE ASSIGNMENTS   12 12 12 12 12 12 12 12 12 12 12 12 12 12 12 12 12 12 12 12
CENTRE ASSIGNMENTS   13 13 13 13 13 13 13 13 13 13 13 13 13 13 13 13 13 13 13 13
CENTRE ASSIGNMENTS   13 13 13 13 13 13 13 14 14 14 14 14 14 14 14 14 14 14 14 14
CENTRE ASSIGNMENTS   14 14 14 14 14 14 14 14 14 14 14 14 14 14 15 15 15 15 15 15
CENTRE ASSIGNMENTS   15 15 15 15 15 15 15 15 15 15 15 15 15 15 15 15 15 15 15 15
CENTRE ASSIGNMENTS   15
TYPE ASSIGNMENTS      1  1  1  1  1  1  1  1  1  1  1  1  1  1  1  1  1  1  1  1
TYPE ASSIGNMENTS      1  1  1  1  1  1  1  1  1  1  1  1  1  1  1  1  1  1  1  1
TYPE ASSIGNMENTS      1  1  2  2  2  2  2  2  2  3  3  3  3  3  3  3  4  4  4  4
TYPE ASSIGNMENTS      4  4  4  2  2  2  2  2  2  2  3  3  3  3  3  3  3  4  4  4
TYPE ASSIGNMENTS      4  4  4  4  2  3  4  2  3  4  2  3  4  5  6  7  8  9 10  5
TYPE ASSIGNMENTS      6  7  8  9 10  5  6  7  8  9 10 11 12 13 17 14 15 18 19 16
TYPE ASSIGNMENTS     20 11 12 13 17 14 15 18 19 16 20  1  1  1  1  1  1  1  1  1
TYPE ASSIGNMENTS      1  1  1  1  1  1  1  1  1  1  2  2  2  3  3  3  4  4  4  2
TYPE ASSIGNMENTS      3  4  2  3  4  2  3  4  5  6  7  8  9 10  5  6  7  8  9 10
TYPE ASSIGNMENTS      5  6  7  8  9 10 11 12 13 17 14 15 18 19 16 20 11 12 13 17
TYPE ASSIGNMENTS     14 15 18 19 16 20  1  1  1  1  1  1  2  3  4  2  3  4  2  3
TYPE ASSIGNMENTS      4  5  6  7  8  9 10  5  6  7  8  9 10  1  1  1  1  1  1  1
TYPE ASSIGNMENTS      1  1  1  1  1  1  1  1  1  1  1  1  2  2  2  3  3  3  4  4
TYPE ASSIGNMENTS      4  2  3  4  2  3  4  2  3  4  5  6  7  8  9 10  5  6  7  8
TYPE ASSIGNMENTS      9 10  5  6  7  8  9 10 11 12 13 17 14 15 18 19 16 20 11 12
TYPE ASSIGNMENTS     13 17 14 15 18 19 16 20  1  1  1  1  1  1  2  3  4  2  3  4
TYPE ASSIGNMENTS      2  3  4  5  6  7  8  9 10  5  6  7  8  9 10  1  1  1  1  1
TYPE ASSIGNMENTS      1  2  3  4  2  3  4  2  3  4  5  6  7  8  9 10  5  6  7  8
TYPE ASSIGNMENTS      9 10  1  1  1  1  1  1  2  3  4  2  3  4  2  3  4  5  6  7
TYPE ASSIGNMENTS      8  9 10  5  6  7  8  9 10  1  1  1  1  1  1  1  1  1  1  1
TYPE ASSIGNMENTS      1  1  1  1  1  1  1  1  2  2  2  3  3  3  4  4  4  2  3  4
TYPE ASSIGNMENTS      2  3  4  2  3  4  5  6  7  8  9 10  5  6  7  8  9 10  5  6
TYPE ASSIGNMENTS      7  8  9 10 11 12 13 17 14 15 18 19 16 20 11 12 13 17 14 15
TYPE ASSIGNMENTS     18 19 16 20  1  1  1  1  1  1  2  3  4  2  3  4  2  3  4  5
TYPE ASSIGNMENTS      6  7  8  9 10  5  6  7  8  9 10  1  1  1  1  1  1  2  3  4
TYPE ASSIGNMENTS      2  3  4  2  3  4  5  6  7  8  9 10  5  6  7  8  9 10  1  1
TYPE ASSIGNMENTS      1  1  1  1  2  3  4  2  3  4  2  3  4  5  6  7  8  9 10  5
TYPE ASSIGNMENTS      6  7  8  9 10  1  1  1  1  1  1  1  1  1  1  1  1  1  1  1
TYPE ASSIGNMENTS      1  1  1  1  2  2  2  3  3  3  4  4  4  2  3  4  2  3  4  2
TYPE ASSIGNMENTS      3  4  5  6  7  8  9 10  5  6  7  8  9 10  5  6  7  8  9 10
TYPE ASSIGNMENTS     11 12 13 17 14 15 18 19 16 20 11 12 13 17 14 15 18 19 16 20
TYPE ASSIGNMENTS      1  1  1  1  1  1  2  3  4  2  3  4  2  3  4  5  6  7  8  9
TYPE ASSIGNMENTS     10  5  6  7  8  9 10  1  1  1  1  1  1  2  3  4  2  3  4  2
TYPE ASSIGNMENTS      3  4  5  6  7  8  9 10  5  6  7  8  9 10  1  1  1  1  1  1
TYPE ASSIGNMENTS      2  3  4  2  3  4  2  3  4  5  6  7  8  9 10  5  6  7  8  9
TYPE ASSIGNMENTS     10
EXPONENTS  0.2549000D+06 0.3819000D+05 0.8690000D+04 0.2462000D+04 0.8048000D+03
EXPONENTS  0.2913000D+03 0.1136000D+03 0.4675000D+02 0.1982000D+02 0.7708000D+01
EXPONENTS  0.3340000D+01 0.1402000D+01 0.2070000D+00 0.2549000D+06 0.3819000D+05
EXPONENTS  0.8690000D+04 0.2462000D+04 0.8048000D+03 0.2913000D+03 0.1136000D+03
EXPONENTS  0.4675000D+02 0.1982000D+02 0.7708000D+01 0.3340000D+01 0.1402000D+01
EXPONENTS  0.2070000D+00 0.2549000D+06 0.3819000D+05 0.8690000D+04 0.2462000D+04
EXPONENTS  0.8048000D+03 0.2913000D+03 0.1136000D+03 0.4675000D+02 0.1982000D+02
EXPONENTS  0.7708000D+01 0.3340000D+01 0.1402000D+01 0.2070000D+00 0.4387000D+00
EXPONENTS  0.7944000D-01 0.3300000D-01 0.4815000D+03 0.1139000D+03 0.3623000D+02
EXPONENTS  0.1334000D+02 0.5252000D+01 0.2120000D+01 0.2528000D+00 0.4815000D+03
EXPONENTS  0.1139000D+03 0.3623000D+02 0.1334000D+02 0.5252000D+01 0.2120000D+01
EXPONENTS  0.2528000D+00 0.4815000D+03 0.1139000D+03 0.3623000D+02 0.1334000D+02
EXPONENTS  0.5252000D+01 0.2120000D+01 0.2528000D+00 0.4815000D+03 0.1139000D+03
EXPONENTS  0.3623000D+02 0.1334000D+02 0.5252000D+01 0.2120000D+01 0.2528000D+00
EXPONENTS  0.4815000D+03 0.1139000D+03 0.3623000D+02 0.1334000D+02 0.5252000D+01
EXPONENTS  0.2120000D+01 0.2528000D+00 0.4815000D+03 0.1139000D+03 0.3623000D+02
EXPONENTS  0.1334000D+02 0.5252000D+01 0.2120000D+01 0.2528000D+00 0.8561000D+00
EXPONENTS  0.8561000D+00 0.8561000D+00 0.7889000D-01 0.7889000D-01 0.7889000D-01
EXPONENTS  0.2370000D-01 0.2370000D-01 0.2370000D-01 0.1590000D+00 0.1590000D+00
EXPONENTS  0.1590000D+00 0.1590000D+00 0.1590000D+00 0.1590000D+00 0.4810000D+00
EXPONENTS  0.4810000D+00 0.4810000D+00 0.4810000D+00 0.4810000D+00 0.4810000D+00
EXPONENTS  0.5560000D-01 0.5560000D-01 0.5560000D-01 0.5560000D-01 0.5560000D-01
EXPONENTS  0.5560000D-01 0.3360000D+00 0.3360000D+00 0.3360000D+00 0.3360000D+00
EXPONENTS  0.3360000D+00 0.3360000D+00 0.3360000D+00 0.3360000D+00 0.3360000D+00
EXPONENTS  0.3360000D+00 0.1250000D+00 0.1250000D+00 0.1250000D+00 0.1250000D+00
EXPONENTS  0.1250000D+00 0.1250000D+00 0.1250000D+00 0.1250000D+00 0.1250000D+00
EXPONENTS  0.1250000D+00 0.1533000D+05 0.2299000D+04 0.5224000D+03 0.1473000D+03
EXPONENTS  0.4755000D+02 0.1676000D+02 0.6207000D+01 0.6882000D+00 0.1533000D+05
EXPONENTS  0.2299000D+04 0.5224000D+03 0.1473000D+03 0.4755000D+02 0.1676000D+02
EXPONENTS  0.6207000D+01 0.6882000D+00 0.1752000D+01 0.2384000D+00 0.7376000D-01
EXPONENTS  0.3446000D+02 0.7749000D+01 0.2280000D+01 0.3446000D+02 0.7749000D+01
EXPONENTS  0.2280000D+01 0.3446000D+02 0.7749000D+01 0.2280000D+01 0.7156000D+00
EXPONENTS  0.7156000D+00 0.7156000D+00 0.2140000D+00 0.2140000D+00 0.2140000D+00
EXPONENTS  0.5974000D-01 0.5974000D-01 0.5974000D-01 0.2314000D+01 0.2314000D+01
EXPONENTS  0.2314000D+01 0.2314000D+01 0.2314000D+01 0.2314000D+01 0.6450000D+00
EXPONENTS  0.6450000D+00 0.6450000D+00 0.6450000D+00 0.6450000D+00 0.6450000D+00
EXPONENTS  0.2140000D+00 0.2140000D+00 0.2140000D+00 0.2140000D+00 0.2140000D+00
EXPONENTS  0.2140000D+00 0.1428000D+01 0.1428000D+01 0.1428000D+01 0.1428000D+01
EXPONENTS  0.1428000D+01 0.1428000D+01 0.1428000D+01 0.1428000D+01 0.1428000D+01
EXPONENTS  0.1428000D+01 0.5000000D+00 0.5000000D+00 0.5000000D+00 0.5000000D+00
EXPONENTS  0.5000000D+00 0.5000000D+00 0.5000000D+00 0.5000000D+00 0.5000000D+00
EXPONENTS  0.5000000D+00 0.3387000D+02 0.5095000D+01 0.1159000D+01 0.3258000D+00
EXPONENTS  0.1027000D+00 0.2526000D-01 0.1407000D+01 0.1407000D+01 0.1407000D+01
EXPONENTS  0.3880000D+00 0.3880000D+00 0.3880000D+00 0.1020000D+00 0.1020000D+00
EXPONENTS  0.1020000D+00 0.1057000D+01 0.1057000D+01 0.1057000D+01 0.1057000D+01
EXPONENTS  0.1057000D+01 0.1057000D+01 0.2470000D+00 0.2470000D+00 0.2470000D+00
EXPONENTS  0.2470000D+00 0.2470000D+00 0.2470000D+00 0.8236000D+04 0.1235000D+04
EXPONENTS  0.2808000D+03 0.7927000D+02 0.2559000D+02 0.8997000D+01 0.3319000D+01
EXPONENTS  0.3643000D+00 0.8236000D+04 0.1235000D+04 0.2808000D+03 0.7927000D+02
EXPONENTS  0.2559000D+02 0.8997000D+01 0.3319000D+01 0.3643000D+00 0.9059000D+00
EXPONENTS  0.1285000D+00 0.4402000D-01 0.1871000D+02 0.4133000D+01 0.1200000D+01
EXPONENTS  0.1871000D+02 0.4133000D+01 0.1200000D+01 0.1871000D+02 0.4133000D+01
EXPONENTS  0.1200000D+01 0.3827000D+00 0.3827000D+00 0.3827000D+00 0.1209000D+00
EXPONENTS  0.1209000D+00 0.1209000D+00 0.3569000D-01 0.3569000D-01 0.3569000D-01
EXPONENTS  0.1097000D+01 0.1097000D+01 0.1097000D+01 0.1097000D+01 0.1097000D+01
EXPONENTS  0.1097000D+01 0.3180000D+00 0.3180000D+00 0.3180000D+00 0.3180000D+00
EXPONENTS  0.3180000D+00 0.3180000D+00 0.1000000D+00 0.1000000D+00 0.1000000D+00
EXPONENTS  0.1000000D+00 0.1000000D+00 0.1000000D+00 0.7610000D+00 0.7610000D+00
EXPONENTS  0.7610000D+00 0.7610000D+00 0.7610000D+00 0.7610000D+00 0.7610000D+00
EXPONENTS  0.7610000D+00 0.7610000D+00 0.7610000D+00 0.2680000D+00 0.2680000D+00
EXPONENTS  0.2680000D+00 0.2680000D+00 0.2680000D+00 0.2680000D+00 0.2680000D+00
EXPONENTS  0.2680000D+00 0.2680000D+00 0.2680000D+00 0.3387000D+02 0.5095000D+01
EXPONENTS  0.1159000D+01 0.3258000D+00 0.1027000D+00 0.2526000D-01 0.1407000D+01
EXPONENTS  0.1407000D+01 0.1407000D+01 0.3880000D+00 0.3880000D+00 0.3880000D+00
EXPONENTS  0.1020000D+00 0.1020000D+00 0.1020000D+00 0.1057000D+01 0.1057000D+01
EXPONENTS  0.1057000D+01 0.1057000D+01 0.1057000D+01 0.1057000D+01 0.2470000D+00
EXPONENTS  0.2470000D+00 0.2470000D+00 0.2470000D+00 0.2470000D+00 0.2470000D+00
EXPONENTS  0.3387000D+02 0.5095000D+01 0.1159000D+01 0.3258000D+00 0.1027000D+00
EXPONENTS  0.2526000D-01 0.1407000D+01 0.1407000D+01 0.1407000D+01 0.3880000D+00
EXPONENTS  0.3880000D+00 0.3880000D+00 0.1020000D+00 0.1020000D+00 0.1020000D+00
EXPONENTS  0.1057000D+01 0.1057000D+01 0.1057000D+01 0.1057000D+01 0.1057000D+01
EXPONENTS  0.1057000D+01 0.2470000D+00 0.2470000D+00 0.2470000D+00 0.2470000D+00
EXPONENTS  0.2470000D+00 0.2470000D+00 0.3387000D+02 0.5095000D+01 0.1159000D+01
EXPONENTS  0.3258000D+00 0.1027000D+00 0.2526000D-01 0.1407000D+01 0.1407000D+01
EXPONENTS  0.1407000D+01 0.3880000D+00 0.3880000D+00 0.3880000D+00 0.1020000D+00
EXPONENTS  0.1020000D+00 0.1020000D+00 0.1057000D+01 0.1057000D+01 0.1057000D+01
EXPONENTS  0.1057000D+01 0.1057000D+01 0.1057000D+01 0.2470000D+00 0.2470000D+00
EXPONENTS  0.2470000D+00 0.2470000D+00 0.2470000D+00 0.2470000D+00 0.8236000D+04
EXPONENTS  0.1235000D+04 0.2808000D+03 0.7927000D+02 0.2559000D+02 0.8997000D+01
EXPONENTS  0.3319000D+01 0.3643000D+00 0.8236000D+04 0.1235000D+04 0.2808000D+03
EXPONENTS  0.7927000D+02 0.2559000D+02 0.8997000D+01 0.3319000D+01 0.3643000D+00
EXPONENTS  0.9059000D+00 0.1285000D+00 0.4402000D-01 0.1871000D+02 0.4133000D+01
EXPONENTS  0.1200000D+01 0.1871000D+02 0.4133000D+01 0.1200000D+01 0.1871000D+02
EXPONENTS  0.4133000D+01 0.1200000D+01 0.3827000D+00 0.3827000D+00 0.3827000D+00
EXPONENTS  0.1209000D+00 0.1209000D+00 0.1209000D+00 0.3569000D-01 0.3569000D-01
EXPONENTS  0.3569000D-01 0.1097000D+01 0.1097000D+01 0.1097000D+01 0.1097000D+01
EXPONENTS  0.1097000D+01 0.1097000D+01 0.3180000D+00 0.3180000D+00 0.3180000D+00
EXPONENTS  0.3180000D+00 0.3180000D+00 0.3180000D+00 0.1000000D+00 0.1000000D+00
EXPONENTS  0.1000000D+00 0.1000000D+00 0.1000000D+00 0.1000000D+00 0.7610000D+00
EXPONENTS  0.7610000D+00 0.7610000D+00 0.7610000D+00 0.7610000D+00 0.7610000D+00
EXPONENTS  0.7610000D+00 0.7610000D+00 0.7610000D+00 0.7610000D+00 0.2680000D+00
EXPONENTS  0.2680000D+00 0.2680000D+00 0.2680000D+00 0.2680000D+00 0.2680000D+00
EXPONENTS  0.2680000D+00 0.2680000D+00 0.2680000D+00 0.2680000D+00 0.3387000D+02
EXPONENTS  0.5095000D+01 0.1159000D+01 0.3258000D+00 0.1027000D+00 0.2526000D-01
EXPONENTS  0.1407000D+01 0.1407000D+01 0.1407000D+01 0.3880000D+00 0.3880000D+00
EXPONENTS  0.3880000D+00 0.1020000D+00 0.1020000D+00 0.1020000D+00 0.1057000D+01
EXPONENTS  0.1057000D+01 0.1057000D+01 0.1057000D+01 0.1057000D+01 0.1057000D+01
EXPONENTS  0.2470000D+00 0.2470000D+00 0.2470000D+00 0.2470000D+00 0.2470000D+00
EXPONENTS  0.2470000D+00 0.3387000D+02 0.5095000D+01 0.1159000D+01 0.3258000D+00
EXPONENTS  0.1027000D+00 0.2526000D-01 0.1407000D+01 0.1407000D+01 0.1407000D+01
EXPONENTS  0.3880000D+00 0.3880000D+00 0.3880000D+00 0.1020000D+00 0.1020000D+00
EXPONENTS  0.1020000D+00 0.1057000D+01 0.1057000D+01 0.1057000D+01 0.1057000D+01
EXPONENTS  0.1057000D+01 0.1057000D+01 0.2470000D+00 0.2470000D+00 0.2470000D+00
EXPONENTS  0.2470000D+00 0.2470000D+00 0.2470000D+00 0.3387000D+02 0.5095000D+01
EXPONENTS  0.1159000D+01 0.3258000D+00 0.1027000D+00 0.2526000D-01 0.1407000D+01
EXPONENTS  0.1407000D+01 0.1407000D+01 0.3880000D+00 0.3880000D+00 0.3880000D+00
EXPONENTS  0.1020000D+00 0.1020000D+00 0.1020000D+00 0.1057000D+01 0.1057000D+01
EXPONENTS  0.1057000D+01 0.1057000D+01 0.1057000D+01 0.1057000D+01 0.2470000D+00
EXPONENTS  0.2470000D+00 0.2470000D+00 0.2470000D+00 0.2470000D+00 0.2470000D+00
EXPONENTS  0.8236000D+04 0.1235000D+04 0.2808000D+03 0.7927000D+02 0.2559000D+02
EXPONENTS  0.8997000D+01 0.3319000D+01 0.3643000D+00 0.8236000D+04 0.1235000D+04
EXPONENTS  0.2808000D+03 0.7927000D+02 0.2559000D+02 0.8997000D+01 0.3319000D+01
EXPONENTS  0.3643000D+00 0.9059000D+00 0.1285000D+00 0.4402000D-01 0.1871000D+02
EXPONENTS  0.4133000D+01 0.1200000D+01 0.1871000D+02 0.4133000D+01 0.1200000D+01
EXPONENTS  0.1871000D+02 0.4133000D+01 0.1200000D+01 0.3827000D+00 0.3827000D+00
EXPONENTS  0.3827000D+00 0.1209000D+00 0.1209000D+00 0.1209000D+00 0.3569000D-01
EXPONENTS  0.3569000D-01 0.3569000D-01 0.1097000D+01 0.1097000D+01 0.1097000D+01
EXPONENTS  0.1097000D+01 0.1097000D+01 0.1097000D+01 0.3180000D+00 0.3180000D+00
EXPONENTS  0.3180000D+00 0.3180000D+00 0.3180000D+00 0.3180000D+00 0.1000000D+00
EXPONENTS  0.1000000D+00 0.1000000D+00 0.1000000D+00 0.1000000D+00 0.1000000D+00
EXPONENTS  0.7610000D+00 0.7610000D+00 0.7610000D+00 0.7610000D+00 0.7610000D+00
EXPONENTS  0.7610000D+00 0.7610000D+00 0.7610000D+00 0.7610000D+00 0.7610000D+00
EXPONENTS  0.2680000D+00 0.2680000D+00 0.2680000D+00 0.2680000D+00 0.2680000D+00
EXPONENTS  0.2680000D+00 0.2680000D+00 0.2680000D+00 0.2680000D+00 0.2680000D+00
EXPONENTS  0.3387000D+02 0.5095000D+01 0.1159000D+01 0.3258000D+00 0.1027000D+00
EXPONENTS  0.2526000D-01 0.1407000D+01 0.1407000D+01 0.1407000D+01 0.3880000D+00
EXPONENTS  0.3880000D+00 0.3880000D+00 0.1020000D+00 0.1020000D+00 0.1020000D+00
EXPONENTS  0.1057000D+01 0.1057000D+01 0.1057000D+01 0.1057000D+01 0.1057000D+01
EXPONENTS  0.1057000D+01 0.2470000D+00 0.2470000D+00 0.2470000D+00 0.2470000D+00
EXPONENTS  0.2470000D+00 0.2470000D+00 0.3387000D+02 0.5095000D+01 0.1159000D+01
EXPONENTS  0.3258000D+00 0.1027000D+00 0.2526000D-01 0.1407000D+01 0.1407000D+01
EXPONENTS  0.1407000D+01 0.3880000D+00 0.3880000D+00 0.3880000D+00 0.1020000D+00
EXPONENTS  0.1020000D+00 0.1020000D+00 0.1057000D+01 0.1057000D+01 0.1057000D+01
EXPONENTS  0.1057000D+01 0.1057000D+01 0.1057000D+01 0.2470000D+00 0.2470000D+00
EXPONENTS  0.2470000D+00 0.2470000D+00 0.2470000D+00 0.2470000D+00 0.3387000D+02
EXPONENTS  0.5095000D+01 0.1159000D+01 0.3258000D+00 0.1027000D+00 0.2526000D-01
EXPONENTS  0.1407000D+01 0.1407000D+01 0.1407000D+01 0.3880000D+00 0.3880000D+00
EXPONENTS  0.3880000D+00 0.1020000D+00 0.1020000D+00 0.1020000D+00 0.1057000D+01
EXPONENTS  0.1057000D+01 0.1057000D+01 0.1057000D+01 0.1057000D+01 0.1057000D+01
EXPONENTS  0.2470000D+00 0.2470000D+00 0.2470000D+00 0.2470000D+00 0.2470000D+00
EXPONENTS  0.2470000D+00
MO    1     MO 0.0        OCC NO =    2.0000000  ORB. ENERGY =  -66.259588
  0.50674858D+00  0.94790290D+00  0.16369857D+01  0.26441586D+01  0.39820485D+01
  0.54155672D+01  0.61650742D+01  0.49945555D+01  0.20273888D+01  0.18486997D+00
 -0.71045940D-02  0.23757251D-02  0.13332031D-03 -0.26055647D-02 -0.48768998D-02
 -0.84347857D-02 -0.13709220D-01 -0.20974994D-01 -0.29764966D-01 -0.37337678D-01
 -0.38068997D-01 -0.23390349D-01  0.50977352D-02  0.18672250D-01  0.85400296D-02
 -0.45330945D-04  0.14022911D-02  0.26227738D-02  0.45419336D-02  0.73744982D-02
  0.11319706D-01  0.16079137D-01  0.20398935D-01  0.21118410D-01  0.13602822D-01
 -0.33456848D-02 -0.13638041D-01 -0.11894745D-01  0.60621812D-02 -0.16859721D-02
 -0.75837914D-02 -0.46853121D-04 -0.12865008D-02 -0.16969608D-02 -0.18849066D-02
 -0.16132144D-02 -0.92177774D-03 -0.29913697D-03 -0.21063098D-06  0.47036639D-02
  0.62043751D-02  0.68915366D-02  0.58981840D-02  0.33701749D-02  0.10936952D-02
  0.77010238D-06  0.20335101D-13  0.26823047D-13  0.29793816D-13  0.25499307D-13
  0.14570099D-13  0.47283148D-14  0.33293429D-17  0.10535891D-02  0.14407696D-02
  0.15662617D-02  0.14377463D-02  0.78363013D-03  0.33067686D-03 -0.11404644D-03
 -0.39821710D-02 -0.54455676D-02 -0.59198805D-02 -0.54341407D-02 -0.29618273D-02
 -0.12498343D-02  0.43105268D-03 -0.17587658D-13 -0.24050896D-13 -0.26145747D-13
 -0.24000429D-13 -0.13081208D-13 -0.55200186D-14  0.19037875D-14  0.31844529D-04
 -0.64858456D-04 -0.58386209D-15 -0.34148334D-03  0.81189022D-03  0.99810702D-14
 -0.77316488D-05 -0.33758394D-05  0.96331585D-15 -0.93973549D-04  0.13088487D-03
 -0.36911324D-04 -0.26546601D-04 -0.23972690D-14 -0.14174430D-14 -0.20996443D-04
  0.81019797D-04 -0.60023354D-04 -0.71591819D-04  0.61567264D-16 -0.13059994D-14
 -0.64667805D-06  0.22034815D-04 -0.21388137D-04 -0.20880702D-05  0.71209155D-16
 -0.43556527D-15  0.79586394D-04  0.68329643D-04 -0.11545446D-15 -0.13859519D-03
 -0.37465856D-05 -0.45220634D-15 -0.10016399D-03 -0.20124234D-03  0.79856972D-15
  0.40946803D-15 -0.47869823D-04 -0.27022840D-04  0.20371237D-15  0.87315648D-04
 -0.55772189D-04  0.20464350D-15  0.56293821D-04  0.13684071D-03 -0.81578062D-15
  0.53989770D-15  0.78327454D-05  0.14599230D-04  0.24755456D-04  0.37468536D-04
  0.46749793D-04  0.40151838D-04  0.15415071D-04 -0.68952560D-07 -0.77447521D-05
 -0.14525474D-04 -0.24762750D-04 -0.38699358D-04 -0.51748415D-04 -0.55255242D-04
 -0.33781972D-04  0.22287293D-04  0.28415499D-04  0.96151225D-03 -0.21159203D-03
  0.11602019D-03  0.11250056D-03  0.75892214D-04 -0.87368935D-04 -0.84718477D-04
 -0.57150584D-04  0.67229089D-15  0.65189602D-15  0.43976520D-15 -0.13599966D-03
 -0.16503134D-04 -0.57868799D-15 -0.69708471D-03  0.45286365D-03  0.89116231D-15
 -0.14149134D-04 -0.52903698D-05  0.30661204D-16 -0.14949572D-03  0.37914775D-03
 -0.22965203D-03 -0.11713833D-03  0.15915616D-14  0.34334566D-15  0.18410589D-03
 -0.22999984D-03  0.45893948D-04  0.36099995D-05 -0.79593102D-15 -0.98699093D-18
  0.16218443D-03 -0.24265673D-03  0.80472302D-04  0.38640807D-03  0.89463179D-15
 -0.20784454D-15 -0.15644510D-03 -0.24345097D-03 -0.19568792D-15  0.56190113D-03
  0.20468130D-03  0.33001427D-15 -0.92565836D-04  0.52567160D-03  0.25704949D-15
 -0.11422437D-14  0.43459277D-04  0.11295918D-03  0.76566724D-16 -0.26086581D-03
 -0.77776211D-04 -0.30721918D-16  0.13048798D-03 -0.26110132D-03 -0.19897826D-15
  0.43390236D-15  0.21639777D-04  0.39028230D-04  0.57547102D-04 -0.93674000D-03
  0.44608010D-03 -0.24466404D-05 -0.18098508D-03  0.99133486D-04 -0.38392169D-15
 -0.23854732D-03  0.54221599D-04  0.54962445D-15  0.10131242D-03 -0.66889380D-04
  0.60433053D-16 -0.83244556D-04 -0.50341886D-04  0.13358644D-03 -0.45866468D-04
 -0.43831640D-15 -0.34432218D-15 -0.22952633D-04  0.56679798D-04 -0.33727165D-04
  0.71600996D-05  0.27019200D-15  0.42271063D-15  0.12004985D-03  0.22380022D-03
  0.37826180D-03  0.56865138D-03  0.69865393D-03  0.59012493D-03  0.22257341D-03
 -0.11015282D-05 -0.86704521D-04 -0.16233822D-03 -0.27639471D-03 -0.42754059D-03
 -0.56305592D-03 -0.58505117D-03 -0.37177375D-03  0.24915412D-03  0.10285910D-03
  0.10636134D-02  0.91209404D-04 -0.14950110D-03 -0.14016678D-03 -0.99807100D-04
 -0.16844103D-04 -0.15792417D-04 -0.11245142D-04  0.93953556D-15  0.88087431D-15
  0.62723498D-15  0.12744060D-03  0.31313939D-04 -0.38910217D-14 -0.96867290D-03
  0.19466318D-03 -0.27568029D-14 -0.81575519D-05  0.55060692D-06  0.14235411D-15
  0.11853215D-03 -0.45340744D-04 -0.73191404D-04  0.36595082D-04 -0.75898639D-16
 -0.43776660D-15 -0.25154791D-03  0.10378949D-03  0.14775842D-03 -0.94734909D-05
 -0.16305158D-14 -0.30662522D-14  0.20554849D-04 -0.29065714D-04  0.85108646D-05
  0.10968597D-03  0.44541057D-15 -0.44989401D-15 -0.40683783D-04 -0.66895829D-04
  0.10358951D-15  0.84743535D-04 -0.80048801D-04  0.83490385D-16  0.37307815D-04
  0.28073629D-03 -0.39425891D-15 -0.12716405D-14  0.74297805D-04 -0.15838999D-04
 -0.23764674D-15 -0.11468933D-03  0.88727164D-04  0.53264887D-15 -0.10820409D-03
 -0.41210167D-04  0.18029134D-15 -0.34994768D-15  0.22615400D-05  0.40787806D-05
  0.60141595D-05 -0.90958837D-04  0.19839372D-03  0.11529702D-04  0.27451354D-04
  0.77169825D-04  0.85419332D-04  0.16438684D-03  0.17251847D-04  0.21348048D-04
 -0.88152328D-04 -0.34288657D-04  0.28089121D-05 -0.46599278D-04  0.10553310D-04
  0.36045969D-04 -0.94716601D-04 -0.13478639D-03 -0.12204701D-04 -0.22153226D-05
  0.16175202D-04 -0.13959880D-04 -0.10677676D-04  0.75213720D-05 -0.26443607D-04
  0.21993801D-05  0.39666725D-05  0.58488563D-05  0.44252487D-04  0.16961550D-02
  0.36640531D-05 -0.11965058D-04 -0.12254260D-03  0.11423036D-15  0.24953254D-03
  0.10318644D-03 -0.84815040D-15 -0.15469875D-03  0.19272988D-03 -0.84457668D-15
 -0.87896911D-04  0.45111791D-04  0.42785120D-04  0.88224443D-04  0.27690227D-15
 -0.18200423D-16  0.57143138D-05 -0.60234915D-05  0.30917776D-06  0.56299234D-04
  0.82510910D-16 -0.39424369D-15  0.22615400D-05  0.40787806D-05  0.60141595D-05
 -0.90958837D-04  0.19839372D-03  0.11529702D-04  0.27451354D-04  0.77169825D-04
 -0.85419332D-04  0.16438684D-03  0.17251847D-04 -0.21348048D-04 -0.88152328D-04
 -0.34288657D-04 -0.28089121D-05 -0.46599278D-04  0.10553310D-04  0.36045969D-04
 -0.94716601D-04  0.13478639D-03  0.12204701D-04 -0.22153226D-05  0.16175202D-04
 -0.13959880D-04 -0.10677676D-04 -0.75213720D-05  0.26443607D-04  0.10940119D-03
  0.20394869D-03  0.34470921D-03  0.51821086D-03  0.63668191D-03  0.53777966D-03
  0.20283070D-03 -0.10038205D-05 -0.79198827D-04 -0.14828519D-03 -0.25246823D-03
 -0.39052996D-03 -0.51431422D-03 -0.53440542D-03 -0.33959066D-03  0.22758576D-03
  0.91307693D-04  0.11548418D-02  0.21575416D-04  0.35079841D-04  0.32889581D-04
  0.23419341D-04  0.74382703D-04  0.69738512D-04  0.49657975D-04 -0.16140714D-03
 -0.15132945D-03 -0.10775559D-03 -0.34581984D-04 -0.55028353D-04  0.18416522D-03
  0.28316513D-03  0.53358728D-03 -0.70367153D-03  0.11274835D-05  0.80171904D-05
  0.46792648D-05 -0.51145906D-04 -0.14488750D-05  0.52594781D-04  0.41000411D-04
 -0.96896436D-04 -0.16188360D-03  0.10125364D-03 -0.11063677D-04 -0.90189962D-04
 -0.55918822D-04  0.20812464D-03  0.41516324D-03  0.67404761D-05 -0.23819392D-04
  0.17078915D-04  0.15578985D-04 -0.41629157D-04 -0.12483937D-04 -0.95308667D-04
 -0.38103112D-04 -0.68750268D-05  0.18467170D-03  0.41138100D-05 -0.62279747D-04
  0.10125430D-03  0.11019553D-03  0.82904828D-04  0.10556939D-03  0.35412665D-04
  0.32434281D-04  0.32062137D-04 -0.30714458D-04  0.61935192D-05 -0.48124517D-04
 -0.75523538D-04 -0.10349636D-03 -0.48061896D-04  0.19063744D-03  0.45487769D-05
  0.82039065D-05  0.12096655D-04  0.20020979D-04  0.12252938D-02  0.96792365D-05
  0.55649219D-04 -0.93735181D-04 -0.69599087D-04 -0.88702555D-04 -0.42470971D-04
  0.30775305D-03 -0.38222773D-04  0.18873070D-03 -0.48941336D-04  0.42819457D-04
 -0.31388492D-04 -0.11430964D-04 -0.23639389D-04 -0.24221669D-05  0.15563086D-03
  0.19502853D-05 -0.26619915D-04  0.24669630D-04  0.10111412D-04 -0.38311960D-04
  0.54255572D-04  0.99165843D-06  0.17884968D-05  0.26371375D-05 -0.28528137D-03
  0.47317573D-03 -0.80904559D-05  0.34355418D-04  0.73071997D-04  0.10041661D-03
 -0.38736435D-04 -0.10337034D-04  0.18011931D-03  0.28940677D-04  0.24221348D-04
 -0.79897196D-04  0.34056387D-04  0.70626659D-04 -0.10468305D-03  0.27077827D-04
  0.43145295D-04  0.12883862D-04  0.14920904D-04 -0.10923137D-04 -0.39977671D-05
 -0.31279426D-04 -0.11593941D-04 -0.17755589D-04  0.10340792D-05  0.18650044D-05
  0.27499479D-05 -0.87407958D-04  0.40298869D-03 -0.72177809D-05 -0.10285817D-03
 -0.99272556D-07 -0.14950424D-04 -0.78507987D-04 -0.61180372D-04  0.16280865D-03
  0.70184310D-04  0.12712286D-04 -0.41747514D-04 -0.29057621D-04  0.23204857D-04
  0.58527641D-05 -0.73579449D-04  0.14650766D-03  0.36761421D-04 -0.11601810D-04
  0.66790787D-05  0.49227313D-05  0.10367870D-05  0.10721685D-05  0.24607139D-04
  0.10940119D-03  0.20394869D-03  0.34470921D-03  0.51821086D-03  0.63668191D-03
  0.53777966D-03  0.20283070D-03 -0.10038205D-05 -0.79198827D-04 -0.14828519D-03
 -0.25246823D-03 -0.39052996D-03 -0.51431422D-03 -0.53440542D-03 -0.33959066D-03
  0.22758576D-03  0.91307693D-04  0.11548418D-02  0.21575416D-04  0.35079841D-04
  0.32889581D-04  0.23419341D-04  0.74382703D-04  0.69738512D-04  0.49657975D-04
  0.16140714D-03  0.15132945D-03  0.10775559D-03 -0.34581984D-04 -0.55028353D-04
 -0.18416522D-03  0.28316513D-03  0.53358728D-03  0.70367153D-03  0.11274835D-05
  0.80171904D-05 -0.46792648D-05 -0.51145906D-04 -0.14488750D-05  0.52594781D-04
  0.41000411D-04  0.96896436D-04  0.16188360D-03  0.10125364D-03 -0.11063677D-04
 -0.90189962D-04 -0.55918822D-04 -0.20812464D-03 -0.41516324D-03  0.67404761D-05
 -0.23819392D-04  0.17078915D-04  0.15578985D-04  0.41629157D-04  0.12483937D-04
 -0.95308667D-04 -0.38103112D-04  0.68750268D-05  0.18467170D-03  0.41138100D-05
  0.62279747D-04  0.10125430D-03  0.11019553D-03 -0.82904828D-04 -0.10556939D-03
  0.35412665D-04  0.32434281D-04 -0.32062137D-04 -0.30714458D-04  0.61935192D-05
  0.48124517D-04 -0.75523538D-04 -0.10349636D-03  0.48061896D-04 -0.19063744D-03
  0.99165843D-06  0.17884968D-05  0.26371375D-05 -0.28528137D-03  0.47317573D-03
 -0.80904559D-05  0.34355418D-04  0.73071997D-04 -0.10041661D-03 -0.38736435D-04
 -0.10337034D-04 -0.18011931D-03  0.28940677D-04  0.24221348D-04  0.79897196D-04
  0.34056387D-04  0.70626659D-04 -0.10468305D-03  0.27077827D-04 -0.43145295D-04
 -0.12883862D-04  0.14920904D-04 -0.10923137D-04 -0.39977671D-05 -0.31279426D-04
  0.11593941D-04  0.17755589D-04  0.45487769D-05  0.82039065D-05  0.12096655D-04
  0.20020979D-04  0.12252938D-02  0.96792365D-05  0.55649219D-04 -0.93735181D-04
  0.69599087D-04 -0.88702555D-04 -0.42470971D-04 -0.30775305D-03 -0.38222773D-04
  0.18873070D-03  0.48941336D-04  0.42819457D-04 -0.31388492D-04 -0.11430964D-04
 -0.23639389D-04  0.24221669D-05 -0.15563086D-03  0.19502853D-05 -0.26619915D-04
  0.24669630D-04  0.10111412D-04  0.38311960D-04 -0.54255572D-04  0.10340792D-05
  0.18650044D-05  0.27499479D-05 -0.87407958D-04  0.40298869D-03 -0.72177809D-05
 -0.10285817D-03 -0.99272556D-07  0.14950424D-04 -0.78507987D-04 -0.61180372D-04
 -0.16280865D-03  0.70184310D-04  0.12712286D-04  0.41747514D-04 -0.29057621D-04
  0.23204857D-04  0.58527641D-05 -0.73579449D-04 -0.14650766D-03 -0.36761421D-04
 -0.11601810D-04  0.66790787D-05  0.49227313D-05  0.10367870D-05 -0.10721685D-05
 -0.24607139D-04
MO    2     MO 0.0        OCC NO =    2.0000000  ORB. ENERGY =  -19.193261
  0.84397677D-04  0.15787080D-03  0.27263578D-03  0.44037785D-03  0.66319997D-03