 Molden2AIM, Version 4.0.0 (06/02/2016)           Time: Fri Jun 29 19:15:01 2018
GAUSSIAN             21 MOL ORBITALS    531 PRIMITIVES        9 NUCLEI
  H    1    (CENTRE  1)   0.00000000  0.00000000  4.50412442  CHARGE =  1.0
  H    2    (CENTRE  2)   0.00000000 -3.90066684 -2.25206032  CHARGE =  1.0
  H    3    (CENTRE  3)   0.00000000  3.90066684 -2.25206032  CHARGE =  1.0
  C    4    (CENTRE  4)   0.00000000  0.00000000  2.43963643  CHARGE =  6.0
  C    5    (CENTRE  5)   0.00000000  2.11276483 -1.21981443  CHARGE =  6.0
  C    6    (CENTRE  6)   0.00000000 -2.11276483 -1.21981443  CHARGE =  6.0
  N    7    (CENTRE  7)   0.00000000  0.00000000 -2.59215433  CHARGE =  7.0
  N    8    (CENTRE  8)   0.00000000  2.24490393  1.29607244  CHARGE =  7.0
  N    9    (CENTRE  9)   0.00000000 -2.24490393  1.29607244  CHARGE =  7.0
CENTRE ASSIGNMENTS    1  1  1  1  1  1  1  1  1  1  1  1  1  1  1  1  1  1  1  1
CENTRE ASSIGNMENTS    1  1  1  1  1  1  1  2  2  2  2  2  2  2  2  2  2  2  2  2
CENTRE ASSIGNMENTS    2  2  2  2  2  2  2  2  2  2  2  2  2  2  3  3  3  3  3  3
CENTRE ASSIGNMENTS    3  3  3  3  3  3  3  3  3  3  3  3  3  3  3  3  3  3  3  3
CENTRE ASSIGNMENTS    3  4  4  4  4  4  4  4  4  4  4  4  4  4  4  4  4  4  4  4
CENTRE ASSIGNMENTS    4  4  4  4  4  4  4  4  4  4  4  4  4  4  4  4  4  4  4  4
CENTRE ASSIGNMENTS    4  4  4  4  4  4  4  4  4  4  4  4  4  4  4  4  4  4  4  4
CENTRE ASSIGNMENTS    4  4  4  4  4  4  4  4  4  4  4  4  4  4  4  4  5  5  5  5
CENTRE ASSIGNMENTS    5  5  5  5  5  5  5  5  5  5  5  5  5  5  5  5  5  5  5  5
CENTRE ASSIGNMENTS    5  5  5  5  5  5  5  5  5  5  5  5  5  5  5  5  5  5  5  5
CENTRE ASSIGNMENTS    5  5  5  5  5  5  5  5  5  5  5  5  5  5  5  5  5  5  5  5
CENTRE ASSIGNMENTS    5  5  5  5  5  5  5  5  5  5  5  6  6  6  6  6  6  6  6  6
CENTRE ASSIGNMENTS    6  6  6  6  6  6  6  6  6  6  6  6  6  6  6  6  6  6  6  6
CENTRE ASSIGNMENTS    6  6  6  6  6  6  6  6  6  6  6  6  6  6  6  6  6  6  6  6
CENTRE ASSIGNMENTS    6  6  6  6  6  6  6  6  6  6  6  6  6  6  6  6  6  6  6  6
CENTRE ASSIGNMENTS    6  6  6  6  6  6  7  7  7  7  7  7  7  7  7  7  7  7  7  7
CENTRE ASSIGNMENTS    7  7  7  7  7  7  7  7  7  7  7  7  7  7  7  7  7  7  7  7
CENTRE ASSIGNMENTS    7  7  7  7  7  7  7  7  7  7  7  7  7  7  7  7  7  7  7  7
CENTRE ASSIGNMENTS    7  7  7  7  7  7  7  7  7  7  7  7  7  7  7  7  7  7  7  7
CENTRE ASSIGNMENTS    7  8  8  8  8  8  8  8  8  8  8  8  8  8  8  8  8  8  8  8
CENTRE ASSIGNMENTS    8  8  8  8  8  8  8  8  8  8  8  8  8  8  8  8  8  8  8  8
CENTRE ASSIGNMENTS    8  8  8  8  8  8  8  8  8  8  8  8  8  8  8  8  8  8  8  8
CENTRE ASSIGNMENTS    8  8  8  8  8  8  8  8  8  8  8  8  8  8  8  8  9  9  9  9
CENTRE ASSIGNMENTS    9  9  9  9  9  9  9  9  9  9  9  9  9  9  9  9  9  9  9  9
CENTRE ASSIGNMENTS    9  9  9  9  9  9  9  9  9  9  9  9  9  9  9  9  9  9  9  9
CENTRE ASSIGNMENTS    9  9  9  9  9  9  9  9  9  9  9  9  9  9  9  9  9  9  9  9
CENTRE ASSIGNMENTS    9  9  9  9  9  9  9  9  9  9  9
TYPE ASSIGNMENTS      1  1  1  1  1  1  2  3  4  2  3  4  2  3  4  5  6  7  8  9
TYPE ASSIGNMENTS     10  5  6  7  8  9 10  1  1  1  1  1  1  2  3  4  2  3  4  2
TYPE ASSIGNMENTS      3  4  5  6  7  8  9 10  5  6  7  8  9 10  1  1  1  1  1  1
TYPE ASSIGNMENTS      2  3  4  2  3  4  2  3  4  5  6  7  8  9 10  5  6  7  8  9
TYPE ASSIGNMENTS     10  1  1  1  1  1  1  1  1  1  1  1  1  1  1  1  1  1  1  1
TYPE ASSIGNMENTS      2  2  2  3  3  3  4  4  4  2  3  4  2  3  4  2  3  4  5  6
TYPE ASSIGNMENTS      7  8  9 10  5  6  7  8  9 10  5  6  7  8  9 10 11 12 13 17
TYPE ASSIGNMENTS     14 15 18 19 16 20 11 12 13 17 14 15 18 19 16 20  1  1  1  1
TYPE ASSIGNMENTS      1  1  1  1  1  1  1  1  1  1  1  1  1  1  1  2  2  2  3  3
TYPE ASSIGNMENTS      3  4  4  4  2  3  4  2  3  4  2  3  4  5  6  7  8  9 10  5
TYPE ASSIGNMENTS      6  7  8  9 10  5  6  7  8  9 10 11 12 13 17 14 15 18 19 16
TYPE ASSIGNMENTS     20 11 12 13 17 14 15 18 19 16 20  1  1  1  1  1  1  1  1  1
TYPE ASSIGNMENTS      1  1  1  1  1  1  1  1  1  1  2  2  2  3  3  3  4  4  4  2
TYPE ASSIGNMENTS      3  4  2  3  4  2  3  4  5  6  7  8  9 10  5  6  7  8  9 10
TYPE ASSIGNMENTS      5  6  7  8  9 10 11 12 13 17 14 15 18 19 16 20 11 12 13 17
TYPE ASSIGNMENTS     14 15 18 19 16 20  1  1  1  1  1  1  1  1  1  1  1  1  1  1
TYPE ASSIGNMENTS      1  1  1  1  1  2  2  2  3  3  3  4  4  4  2  3  4  2  3  4
TYPE ASSIGNMENTS      2  3  4  5  6  7  8  9 10  5  6  7  8  9 10  5  6  7  8  9
TYPE ASSIGNMENTS     10 11 12 13 17 14 15 18 19 16 20 11 12 13 17 14 15 18 19 16
TYPE ASSIGNMENTS     20  1  1  1  1  1  1  1  1  1  1  1  1  1  1  1  1  1  1  1
TYPE ASSIGNMENTS      2  2  2  3  3  3  4  4  4  2  3  4  2  3  4  2  3  4  5  6
TYPE ASSIGNMENTS      7  8  9 10  5  6  7  8  9 10  5  6  7  8  9 10 11 12 13 17
TYPE ASSIGNMENTS     14 15 18 19 16 20 11 12 13 17 14 15 18 19 16 20  1  1  1  1
TYPE ASSIGNMENTS      1  1  1  1  1  1  1  1  1  1  1  1  1  1  1  2  2  2  3  3
TYPE ASSIGNMENTS      3  4  4  4  2  3  4  2  3  4  2  3  4  5  6  7  8  9 10  5
TYPE ASSIGNMENTS      6  7  8  9 10  5  6  7  8  9 10 11 12 13 17 14 15 18 19 16
TYPE ASSIGNMENTS     20 11 12 13 17 14 15 18 19 16 20
EXPONENTS  0.3387000D+02 0.5095000D+01 0.1159000D+01 0.3258000D+00 0.1027000D+00
EXPONENTS  0.2526000D-01 0.1407000D+01 0.1407000D+01 0.1407000D+01 0.3880000D+00
EXPONENTS  0.3880000D+00 0.3880000D+00 0.1020000D+00 0.1020000D+00 0.1020000D+00
EXPONENTS  0.1057000D+01 0.1057000D+01 0.1057000D+01 0.1057000D+01 0.1057000D+01
EXPONENTS  0.1057000D+01 0.2470000D+00 0.2470000D+00 0.2470000D+00 0.2470000D+00
EXPONENTS  0.2470000D+00 0.2470000D+00 0.3387000D+02 0.5095000D+01 0.1159000D+01
EXPONENTS  0.3258000D+00 0.1027000D+00 0.2526000D-01 0.1407000D+01 0.1407000D+01
EXPONENTS  0.1407000D+01 0.3880000D+00 0.3880000D+00 0.3880000D+00 0.1020000D+00
EXPONENTS  0.1020000D+00 0.1020000D+00 0.1057000D+01 0.1057000D+01 0.1057000D+01
EXPONENTS  0.1057000D+01 0.1057000D+01 0.1057000D+01 0.2470000D+00 0.2470000D+00
EXPONENTS  0.2470000D+00 0.2470000D+00 0.2470000D+00 0.2470000D+00 0.3387000D+02
EXPONENTS  0.5095000D+01 0.1159000D+01 0.3258000D+00 0.1027000D+00 0.2526000D-01
EXPONENTS  0.1407000D+01 0.1407000D+01 0.1407000D+01 0.3880000D+00 0.3880000D+00
EXPONENTS  0.3880000D+00 0.1020000D+00 0.1020000D+00 0.1020000D+00 0.1057000D+01
EXPONENTS  0.1057000D+01 0.1057000D+01 0.1057000D+01 0.1057000D+01 0.1057000D+01
EXPONENTS  0.2470000D+00 0.2470000D+00 0.2470000D+00 0.2470000D+00 0.2470000D+00
EXPONENTS  0.2470000D+00 0.8236000D+04 0.1235000D+04 0.2808000D+03 0.7927000D+02
EXPONENTS  0.2559000D+02 0.8997000D+01 0.3319000D+01 0.3643000D+00 0.8236000D+04
EXPONENTS  0.1235000D+04 0.2808000D+03 0.7927000D+02 0.2559000D+02 0.8997000D+01
EXPONENTS  0.3319000D+01 0.3643000D+00 0.9059000D+00 0.1285000D+00 0.4402000D-01
EXPONENTS  0.1871000D+02 0.4133000D+01 0.1200000D+01 0.1871000D+02 0.4133000D+01
EXPONENTS  0.1200000D+01 0.1871000D+02 0.4133000D+01 0.1200000D+01 0.3827000D+00
EXPONENTS  0.3827000D+00 0.3827000D+00 0.1209000D+00 0.1209000D+00 0.1209000D+00
EXPONENTS  0.3569000D-01 0.3569000D-01 0.3569000D-01 0.1097000D+01 0.1097000D+01
EXPONENTS  0.1097000D+01 0.1097000D+01 0.1097000D+01 0.1097000D+01 0.3180000D+00
EXPONENTS  0.3180000D+00 0.3180000D+00 0.3180000D+00 0.3180000D+00 0.3180000D+00
EXPONENTS  0.1000000D+00 0.1000000D+00 0.1000000D+00 0.1000000D+00 0.1000000D+00
EXPONENTS  0.1000000D+00 0.7610000D+00 0.7610000D+00 0.7610000D+00 0.7610000D+00
EXPONENTS  0.7610000D+00 0.7610000D+00 0.7610000D+00 0.7610000D+00 0.7610000D+00
EXPONENTS  0.7610000D+00 0.2680000D+00 0.2680000D+00 0.2680000D+00 0.2680000D+00
EXPONENTS  0.2680000D+00 0.2680000D+00 0.2680000D+00 0.2680000D+00 0.2680000D+00
EXPONENTS  0.2680000D+00 0.8236000D+04 0.1235000D+04 0.2808000D+03 0.7927000D+02
EXPONENTS  0.2559000D+02 0.8997000D+01 0.3319000D+01 0.3643000D+00 0.8236000D+04
EXPONENTS  0.1235000D+04 0.2808000D+03 0.7927000D+02 0.2559000D+02 0.8997000D+01
EXPONENTS  0.3319000D+01 0.3643000D+00 0.9059000D+00 0.1285000D+00 0.4402000D-01
EXPONENTS  0.1871000D+02 0.4133000D+01 0.1200000D+01 0.1871000D+02 0.4133000D+01
EXPONENTS  0.1200000D+01 0.1871000D+02 0.4133000D+01 0.1200000D+01 0.3827000D+00
EXPONENTS  0.3827000D+00 0.3827000D+00 0.1209000D+00 0.1209000D+00 0.1209000D+00
EXPONENTS  0.3569000D-01 0.3569000D-01 0.3569000D-01 0.1097000D+01 0.1097000D+01
EXPONENTS  0.1097000D+01 0.1097000D+01 0.1097000D+01 0.1097000D+01 0.3180000D+00
EXPONENTS  0.3180000D+00 0.3180000D+00 0.3180000D+00 0.3180000D+00 0.3180000D+00
EXPONENTS  0.1000000D+00 0.1000000D+00 0.1000000D+00 0.1000000D+00 0.1000000D+00
EXPONENTS  0.1000000D+00 0.7610000D+00 0.7610000D+00 0.7610000D+00 0.7610000D+00
EXPONENTS  0.7610000D+00 0.7610000D+00 0.7610000D+00 0.7610000D+00 0.7610000D+00
EXPONENTS  0.7610000D+00 0.2680000D+00 0.2680000D+00 0.2680000D+00 0.2680000D+00
EXPONENTS  0.2680000D+00 0.2680000D+00 0.2680000D+00 0.2680000D+00 0.2680000D+00
EXPONENTS  0.2680000D+00 0.8236000D+04 0.1235000D+04 0.2808000D+03 0.7927000D+02
EXPONENTS  0.2559000D+02 0.8997000D+01 0.3319000D+01 0.3643000D+00 0.8236000D+04
EXPONENTS  0.1235000D+04 0.2808000D+03 0.7927000D+02 0.2559000D+02 0.8997000D+01
EXPONENTS  0.3319000D+01 0.3643000D+00 0.9059000D+00 0.1285000D+00 0.4402000D-01
EXPONENTS  0.1871000D+02 0.4133000D+01 0.1200000D+01 0.1871000D+02 0.4133000D+01
EXPONENTS  0.1200000D+01 0.1871000D+02 0.4133000D+01 0.1200000D+01 0.3827000D+00
EXPONENTS  0.3827000D+00 0.3827000D+00 0.1209000D+00 0.1209000D+00 0.1209000D+00
EXPONENTS  0.3569000D-01 0.3569000D-01 0.3569000D-01 0.1097000D+01 0.1097000D+01
EXPONENTS  0.1097000D+01 0.1097000D+01 0.1097000D+01 0.1097000D+01 0.3180000D+00
EXPONENTS  0.3180000D+00 0.3180000D+00 0.3180000D+00 0.3180000D+00 0.3180000D+00
EXPONENTS  0.1000000D+00 0.1000000D+00 0.1000000D+00 0.1000000D+00 0.1000000D+00
EXPONENTS  0.1000000D+00 0.7610000D+00 0.7610000D+00 0.7610000D+00 0.7610000D+00
EXPONENTS  0.7610000D+00 0.7610000D+00 0.7610000D+00 0.7610000D+00 0.7610000D+00
EXPONENTS  0.7610000D+00 0.2680000D+00 0.2680000D+00 0.2680000D+00 0.2680000D+00
EXPONENTS  0.2680000D+00 0.2680000D+00 0.2680000D+00 0.2680000D+00 0.2680000D+00
EXPONENTS  0.2680000D+00 0.1142000D+05 0.1712000D+04 0.3893000D+03 0.1100000D+03
EXPONENTS  0.3557000D+02 0.1254000D+02 0.4644000D+01 0.5118000D+00 0.1142000D+05
EXPONENTS  0.1712000D+04 0.3893000D+03 0.1100000D+03 0.3557000D+02 0.1254000D+02
EXPONENTS  0.4644000D+01 0.5118000D+00 0.1293000D+01 0.1787000D+00 0.5760000D-01
EXPONENTS  0.2663000D+02 0.5948000D+01 0.1742000D+01 0.2663000D+02 0.5948000D+01
EXPONENTS  0.1742000D+01 0.2663000D+02 0.5948000D+01 0.1742000D+01 0.5550000D+00
EXPONENTS  0.5550000D+00 0.5550000D+00 0.1725000D+00 0.1725000D+00 0.1725000D+00
EXPONENTS  0.4910000D-01 0.4910000D-01 0.4910000D-01 0.1654000D+01 0.1654000D+01
EXPONENTS  0.1654000D+01 0.1654000D+01 0.1654000D+01 0.1654000D+01 0.4690000D+00
EXPONENTS  0.4690000D+00 0.4690000D+00 0.4690000D+00 0.4690000D+00 0.4690000D+00
EXPONENTS  0.1510000D+00 0.1510000D+00 0.1510000D+00 0.1510000D+00 0.1510000D+00
EXPONENTS  0.1510000D+00 0.1093000D+01 0.1093000D+01 0.1093000D+01 0.1093000D+01
EXPONENTS  0.1093000D+01 0.1093000D+01 0.1093000D+01 0.1093000D+01 0.1093000D+01
EXPONENTS  0.1093000D+01 0.3640000D+00 0.3640000D+00 0.3640000D+00 0.3640000D+00
EXPONENTS  0.3640000D+00 0.3640000D+00 0.3640000D+00 0.3640000D+00 0.3640000D+00
EXPONENTS  0.3640000D+00 0.1142000D+05 0.1712000D+04 0.3893000D+03 0.1100000D+03
EXPONENTS  0.3557000D+02 0.1254000D+02 0.4644000D+01 0.5118000D+00 0.1142000D+05
EXPONENTS  0.1712000D+04 0.3893000D+03 0.1100000D+03 0.3557000D+02 0.1254000D+02
EXPONENTS  0.4644000D+01 0.5118000D+00 0.1293000D+01 0.1787000D+00 0.5760000D-01
EXPONENTS  0.2663000D+02 0.5948000D+01 0.1742000D+01 0.2663000D+02 0.5948000D+01
EXPONENTS  0.1742000D+01 0.2663000D+02 0.5948000D+01 0.1742000D+01 0.5550000D+00
EXPONENTS  0.5550000D+00 0.5550000D+00 0.1725000D+00 0.1725000D+00 0.1725000D+00
EXPONENTS  0.4910000D-01 0.4910000D-01 0.4910000D-01 0.1654000D+01 0.1654000D+01
EXPONENTS  0.1654000D+01 0.1654000D+01 0.1654000D+01 0.1654000D+01 0.4690000D+00
EXPONENTS  0.4690000D+00 0.4690000D+00 0.4690000D+00 0.4690000D+00 0.4690000D+00
EXPONENTS  0.1510000D+00 0.1510000D+00 0.1510000D+00 0.1510000D+00 0.1510000D+00
EXPONENTS  0.1510000D+00 0.1093000D+01 0.1093000D+01 0.1093000D+01 0.1093000D+01
EXPONENTS  0.1093000D+01 0.1093000D+01 0.1093000D+01 0.1093000D+01 0.1093000D+01
EXPONENTS  0.1093000D+01 0.3640000D+00 0.3640000D+00 0.3640000D+00 0.3640000D+00
EXPONENTS  0.3640000D+00 0.3640000D+00 0.3640000D+00 0.3640000D+00 0.3640000D+00
EXPONENTS  0.3640000D+00 0.1142000D+05 0.1712000D+04 0.3893000D+03 0.1100000D+03
EXPONENTS  0.3557000D+02 0.1254000D+02 0.4644000D+01 0.5118000D+00 0.1142000D+05
EXPONENTS  0.1712000D+04 0.3893000D+03 0.1100000D+03 0.3557000D+02 0.1254000D+02
EXPONENTS  0.4644000D+01 0.5118000D+00 0.1293000D+01 0.1787000D+00 0.5760000D-01
EXPONENTS  0.2663000D+02 0.5948000D+01 0.1742000D+01 0.2663000D+02 0.5948000D+01
EXPONENTS  0.1742000D+01 0.2663000D+02 0.5948000D+01 0.1742000D+01 0.5550000D+00
EXPONENTS  0.5550000D+00 0.5550000D+00 0.1725000D+00 0.1725000D+00 0.1725000D+00
EXPONENTS  0.4910000D-01 0.4910000D-01 0.4910000D-01 0.1654000D+01 0.1654000D+01
EXPONENTS  0.1654000D+01 0.1654000D+01 0.1654000D+01 0.1654000D+01 0.4690000D+00
EXPONENTS  0.4690000D+00 0.4690000D+00 0.4690000D+00 0.4690000D+00 0.4690000D+00
EXPONENTS  0.1510000D+00 0.1510000D+00 0.1510000D+00 0.1510000D+00 0.1510000D+00
EXPONENTS  0.1510000D+00 0.1093000D+01 0.1093000D+01 0.1093000D+01 0.1093000D+01
EXPONENTS  0.1093000D+01 0.1093000D+01 0.1093000D+01 0.1093000D+01 0.1093000D+01
EXPONENTS  0.1093000D+01 0.3640000D+00 0.3640000D+00 0.3640000D+00 0.3640000D+00
EXPONENTS  0.3640000D+00 0.3640000D+00 0.3640000D+00 0.3640000D+00 0.3640000D+00
EXPONENTS  0.3640000D+00
MO    1     MO 0.0        OCC NO =    2.0000000  ORB. ENERGY =  -14.417372
  0.26406572D-11  0.47625340D-11  0.70223536D-11  0.76828493D-10  0.72060920D-10
  0.71837527D-12  0.24529363D-15  0.10838693D-03 -0.19867565D-10 -0.14656565D-15
 -0.67093546D-03 -0.83868016D-11  0.31868111D-16 -0.24799786D-03 -0.12041142D-10
  0.66175179D-11 -0.11542048D-10  0.49245297D-11 -0.31774854D-17  0.81938325D-16
  0.84111429D-03  0.33107306D-11 -0.22167496D-11 -0.10939809D-11 -0.84654273D-17
 -0.21518637D-17  0.25533442D-03 -0.73098344D-04 -0.13183587D-03 -0.19439192D-03
 -0.28380287D-02 -0.33689802D-02 -0.37680088D-04 -0.76654913D-16 -0.46992561D-03
 -0.33386987D-03 -0.85876318D-17 -0.23648775D-03  0.25092535D-03  0.91272337D-18
 -0.54422232D-03 -0.17102755D-03 -0.26942436D-03 -0.15966259D-03  0.42908695D-03
 -0.13547709D-14  0.12430936D-16 -0.17842021D-03 -0.13085063D-03  0.10674878D-04
  0.12017575D-03 -0.99143985D-17 -0.34532388D-17  0.65724306D-04  0.73098346D-04
  0.13183588D-03  0.19439192D-03  0.28380287D-02  0.33689802D-02  0.37680088D-04
 -0.62998557D-17 -0.46992562D-03  0.33386988D-03  0.12141801D-16 -0.23648777D-03
 -0.25092536D-03 -0.35008592D-17 -0.54422232D-03  0.17102754D-03  0.26942436D-03
  0.15966260D-03 -0.42908696D-03 -0.27539662D-17  0.29736040D-17 -0.17842021D-03
  0.13085063D-03 -0.10674875D-04 -0.12017575D-03  0.43451384D-18  0.25166650D-17
  0.65724307D-04  0.15299945D-10  0.28522576D-10  0.48208178D-10  0.72472683D-10
  0.89041064D-10  0.75209413D-10  0.28366223D-10 -0.14038602D-12 -0.11611863D-10
 -0.21741072D-10 -0.37016035D-10 -0.57258178D-10 -0.75407006D-10 -0.78352709D-10
 -0.49789629D-10  0.33367852D-10  0.41156854D-10 -0.41740615D-10 -0.23006691D-11
  0.41022180D-18  0.38460902D-18  0.27386453D-18  0.10002477D-02  0.93779577D-03
  0.66776645D-03 -0.10954589D-10 -0.10270623D-10 -0.73132956D-11 -0.28620219D-17
  0.18299414D-02 -0.13125609D-10  0.25941848D-17 -0.18681177D-02 -0.59061303D-10
 -0.46007145D-18 -0.83236184D-06 -0.38067237D-12 -0.68368831D-11  0.15007279D-10
 -0.81703956D-11 -0.37903542D-17  0.14748108D-17 -0.13299316D-02  0.17446192D-10
 -0.13312010D-10 -0.41341815D-11  0.36409368D-17 -0.70532806D-17 -0.17620302D-03
  0.68225910D-13 -0.83991050D-12  0.77168459D-12  0.51664193D-18  0.84514202D-18
  0.37533639D-03 -0.25810542D-18 -0.23089440D-03 -0.15734370D-10  0.19761783D-18
  0.35191129D-03 -0.86696557D-11  0.57669844D-18  0.34077190D-03  0.55872767D-10
  0.13277596D-17  0.42270207D-18 -0.19023401D-03 -0.10099691D-10  0.18232933D-17
  0.24152504D-03  0.20241192D-11 -0.30913996D-17  0.32917700D-03  0.28274953D-10
 -0.10924684D-17  0.58135357D-03  0.10837752D-02  0.18317711D-02  0.27537520D-02
  0.33833024D-02  0.28577398D-02  0.10778343D-02 -0.53342621D-05 -0.43759774D-03
 -0.81932103D-03 -0.13949642D-02 -0.21577974D-02 -0.28417433D-02 -0.29527533D-02
 -0.18763422D-02  0.12574809D-02  0.16055259D-02  0.22795649D-03 -0.17522493D-03
 -0.15721843D-17 -0.14740227D-17 -0.10495920D-17 -0.16025758D-03 -0.15025167D-03
 -0.10698814D-03  0.67015384D-03  0.62831182D-03  0.44739545D-03  0.50132733D-17
  0.77276705D-03  0.61016225D-03 -0.33749861D-17 -0.31783148D-02  0.75639513D-03
  0.88588054D-19 -0.11532227D-04  0.61734840D-05 -0.82410530D-05 -0.51828834D-03
  0.52652939D-03 -0.36974454D-17 -0.20065158D-17  0.48001721D-03  0.57201712D-03
 -0.26677536D-03 -0.30524176D-03 -0.59371111D-17 -0.22674188D-17 -0.24231923D-03
 -0.16314860D-04  0.10478639D-03 -0.88471534D-04  0.26137088D-17 -0.20764734D-17
  0.40588338D-04 -0.44472058D-17  0.14771111D-03 -0.63515499D-03  0.14762518D-16
 -0.30486775D-03  0.37933100D-03 -0.14209004D-17 -0.13826558D-03  0.15261340D-02
  0.12935726D-16  0.15825232D-17  0.25726485D-04 -0.40501539D-03 -0.63177602D-17
  0.15679569D-03  0.48932376D-04  0.15701906D-17 -0.23397515D-03  0.11661138D-02
  0.28148275D-17 -0.58135357D-03 -0.10837752D-02 -0.18317711D-02 -0.27537519D-02
 -0.33833024D-02 -0.28577398D-02 -0.10778343D-02  0.53342621D-05  0.43759773D-03
  0.81932103D-03  0.13949642D-02  0.21577974D-02  0.28417433D-02  0.29527533D-02
  0.18763422D-02 -0.12574809D-02 -0.16055259D-02 -0.22795658D-03  0.17522492D-03
 -0.12866275D-16 -0.12062950D-16 -0.85895394D-17 -0.16025759D-03 -0.15025168D-03
 -0.10698815D-03 -0.67015382D-03 -0.62831180D-03 -0.44739543D-03  0.80769842D-17
  0.77276706D-03 -0.61016219D-03  0.52123038D-17 -0.31783148D-02 -0.75639518D-03
 -0.20487428D-18 -0.11532227D-04 -0.61734841D-05  0.82410397D-05  0.51828833D-03
 -0.52652937D-03  0.44110196D-16 -0.26467340D-17  0.48001722D-03 -0.57201711D-03
  0.26677536D-03  0.30524176D-03 -0.29159831D-17 -0.56175825D-17 -0.24231922D-03
  0.16314861D-04 -0.10478639D-03  0.88471529D-04  0.33231595D-17 -0.16265308D-18
  0.40588335D-04 -0.26928259D-17  0.14771111D-03  0.63515498D-03 -0.57558400D-17
 -0.30486776D-03 -0.37933099D-03  0.13834318D-16 -0.13826556D-03 -0.15261339D-02
  0.64281873D-17 -0.17342185D-17  0.25726483D-04  0.40501538D-03  0.64882822D-17
  0.15679569D-03 -0.48932371D-04 -0.12856266D-17 -0.23397514D-03 -0.11661138D-02
  0.20803293D-18 -0.73329790D-09 -0.13663927D-08 -0.23109125D-08 -0.34801062D-08
 -0.43085973D-08 -0.36664218D-08 -0.13951411D-08  0.65340412D-11 -0.13105651D-11
 -0.24573218D-11 -0.41806356D-11 -0.64920856D-11 -0.86153752D-11 -0.90794228D-11
 -0.56298214D-11  0.37449593D-11 -0.78460835D-10  0.88503623D-12 -0.79433064D-12
  0.86173347D-19  0.82768470D-19  0.58042964D-19 -0.10424848D-02 -0.10012941D-02
 -0.70217657D-03 -0.14127175D-10 -0.13568982D-10 -0.95155071D-11 -0.51354188D-17
  0.31715112D-02  0.11705560D-10 -0.72075309D-17 -0.21998320D-02  0.17553886D-10
 -0.45273729D-18 -0.39316240D-05 -0.41215027D-12 -0.44677922D-11 -0.66327440D-11
  0.11100536D-10  0.53524017D-17  0.69384268D-17  0.89676847D-03  0.10823656D-12
  0.39655763D-11 -0.40738129D-11 -0.32687428D-17 -0.92116782D-17  0.14240748D-02
 -0.18128456D-11  0.59453767D-12  0.12183079D-11 -0.36915115D-18  0.32453822D-18
 -0.22020172D-03 -0.19067332D-17  0.14656529D-03 -0.84410189D-12  0.94377875D-17
 -0.67718457D-03  0.51597469D-11 -0.37175880D-17  0.23748869D-03 -0.26274412D-11
  0.38172021D-17  0.11751239D-17 -0.28908901D-03 -0.24832927D-11 -0.54313352D-17
  0.58036175D-03 -0.28633849D-12  0.19059635D-17  0.28690527D-03  0.77362166D-11
 -0.22914467D-17  0.29090524D+00  0.54205908D+00  0.91675779D+00  0.13805864D+01
  0.17092556D+01  0.14544993D+01  0.55346383D+00 -0.25921073D-02 -0.63834253D-03
 -0.11968982D-02 -0.20362800D-02 -0.31621278D-02 -0.41963275D-02 -0.44223532D-02
 -0.27421411D-02  0.18240733D-02  0.30829385D-01  0.10734335D-02  0.67099044D-04
 -0.21440300D-16 -0.20593152D-16 -0.14441340D-16 -0.46694312D-02 -0.44849329D-02
 -0.31451445D-02 -0.20938276D-02 -0.20110964D-02 -0.14103196D-02  0.37639648D-18
  0.87787443D-03 -0.13245349D-02 -0.12491744D-17  0.90933803D-03  0.17950749D-02
  0.66193795D-18 -0.15448910D-06  0.21709111D-05 -0.18018501D-02  0.22701040D-03
  0.15748397D-02  0.32554976D-17 -0.15273524D-18 -0.14376145D-02  0.68370870D-03
 -0.60819505D-03 -0.75513643D-04  0.52077466D-18 -0.15558000D-17  0.50183642D-03
  0.18579613D-03 -0.92139292D-04 -0.93656833D-04  0.10222060D-17 -0.14868366D-17
 -0.21759550D-03  0.90185343D-18  0.75855684D-05 -0.29022461D-03 -0.77998719D-17
  0.15071296D-04  0.39978866D-03  0.50943116D-17 -0.37828001D-04  0.47088517D-03
 -0.12479458D-16 -0.46023629D-20  0.93531087D-04  0.23155571D-03  0.71131495D-18
 -0.86079558D-04 -0.38476545D-03 -0.69750787D-18 -0.19451370D-03 -0.30990168D-03
  0.40006969D-17 -0.29090523D+00 -0.54205905D+00 -0.91675776D+00 -0.13805864D+01
 -0.17092555D+01 -0.14544993D+01 -0.55346381D+00  0.25921071D-02  0.63834250D-03
  0.11968982D-02  0.20362799D-02  0.31621277D-02  0.41963273D-02  0.44223530D-02
  0.27421410D-02 -0.18240732D-02 -0.30829384D-01 -0.10734334D-02 -0.67099045D-04
  0.18180478D-16  0.17462131D-16  0.12245652D-16 -0.46694310D-02 -0.44849327D-02
 -0.31451444D-02  0.20938275D-02  0.20110963D-02  0.14103195D-02 -0.34588175D-17
  0.87787448D-03  0.13245350D-02  0.22884499D-17  0.90933796D-03 -0.17950749D-02
  0.99059730D-18 -0.15449032D-06 -0.21709109D-05  0.18018500D-02 -0.22701036D-03
 -0.15748397D-02  0.13431150D-17 -0.79421957D-17 -0.14376144D-02 -0.68370866D-03
  0.60819505D-03  0.75513614D-04  0.16326565D-17  0.26225021D-17  0.50183644D-03
 -0.18579612D-03  0.92139285D-04  0.93656835D-04 -0.57805515D-18 -0.24483790D-17
 -0.21759550D-03  0.19964486D-17  0.75855708D-05  0.29022461D-03  0.19635056D-18
  0.15071289D-04 -0.39978867D-03 -0.61856964D-17 -0.37828001D-04 -0.47088515D-03
 -0.14904811D-19 -0.82853382D-19  0.93531086D-04 -0.23155571D-03  0.13323054D-17
 -0.86079541D-04  0.38476546D-03 -0.10837453D-17 -0.19451372D-03  0.30990168D-03
 -0.11147280D-17
MO    2     MO 0.0        OCC NO =    2.0000000  ORB. ENERGY =  -14.417371
  0.12624526D-03  0.22768852D-03  0.33572659D-03  0.36598115D-02  0.34188265D-02
  0.32370029D-04  0.17919502D-18 -0.22112727D-11 -0.94812547D-03  0.14872523D-16
  0.13825075D-10 -0.39511561D-03 -0.80620403D-18  0.52589570D-11 -0.57233659D-03
  0.31648560D-03 -0.55018879D-03  0.23370319D-03 -0.25488458D-17  0.87845555D-17
 -0.17547233D-10  0.15794974D-03 -0.10500791D-03 -0.52941829D-04 -0.41305063D-17
  0.24555446D-17 -0.52768522D-11  0.44512208D-04  0.80279601D-04  0.11837222D-03
  0.48635140D-03 -0.34861438D-03 -0.97633183D-05 -0.15824993D-18  0.23498334D-03
  0.20565204D-03  0.10585534D-17  0.45292081D-03 -0.17190378D-03 -0.27005418D-18
  0.25708271D-04 -0.14527557D-03  0.15260584D-04  0.26656703D-03 -0.28182761D-03
  0.15619065D-17 -0.25585119D-18  0.88836003D-05  0.11646791D-04  0.69641792D-04
 -0.81288583D-04 -0.43199153D-19 -0.22599221D-18 -0.24206097D-04  0.44512205D-04
  0.80279595D-04  0.11837222D-03  0.48635128D-03 -0.34861452D-03 -0.97633199D-05
  0.46601147D-18 -0.23498332D-03  0.20565202D-03  0.38715414D-18 -0.45292080D-03
 -0.17190377D-03 -0.90134556D-19 -0.25708248D-04 -0.14527558D-03  0.15260573D-04
  0.26656702D-03 -0.28182760D-03 -0.11247514D-17  0.27592510D-18 -0.88835928D-05
  0.11646786D-04  0.69641792D-04 -0.81288578D-04  0.37133038D-18  0.98769225D-19
  0.24206094D-04  0.73062429D-03  0.13620498D-02  0.23021041D-02  0.34608165D-02
  0.42520130D-02  0.35915047D-02  0.13545834D-02 -0.67039090D-05 -0.55456813D-03
 -0.10383265D-02 -0.17678397D-02 -0.27345792D-02 -0.36013447D-02 -0.37420278D-02
 -0.23778907D-02  0.15936070D-02  0.19681206D-02 -0.20053972D-02 -0.18899647D-03
  0.32417059D-17  0.30393053D-17  0.21641665D-17 -0.20916287D-10 -0.19610349D-10
 -0.13963737D-10 -0.52576210D-03 -0.49293539D-03 -0.35099936D-03  0.22842322D-19
 -0.38351662D-10 -0.62019465D-03  0.12282799D-19  0.39377586D-10 -0.28128377D-02
 -0.27219169D-19 -0.33068521D-13 -0.14798060D-04 -0.32727784D-03  0.71707375D-03
 -0.38979591D-03 -0.12930405D-17 -0.81179005D-18  0.27817416D-10  0.83498766D-03
 -0.64337074D-03 -0.19161692D-03 -0.89118441D-18  0.69383829D-17  0.36921258D-11
  0.37031073D-05 -0.42981175D-04  0.39278067D-04  0.66150955D-19  0.29634642D-18
 -0.80393261D-11  0.11712052D-17  0.48126166D-11 -0.75133905D-03 -0.36612871D-17
 -0.73514785D-11 -0.41590640D-03  0.14767155D-18 -0.70863714D-11  0.26699235D-02
  0.16968548D-17 -0.17617981D-18  0.39489305D-11 -0.48241468D-03 -0.33918055D-18
 -0.50777339D-11  0.97001455D-04  0.86771998D-18 -0.67690577D-11  0.13502426D-02
 -0.26219300D-18  0.80493517D-04  0.15005822D-03  0.25362482D-03  0.38128119D-03
  0.46844799D-03  0.39567922D-03  0.14923564D-03 -0.73857552D-06 -0.65202601D-04
 -0.12207984D-03 -0.20785138D-03 -0.32151448D-03 -0.42342325D-03 -0.43996388D-03
 -0.27957730D-03  0.18736620D-03  0.17297978D-03 -0.22600547D-02  0.69005512D-05
  0.61396449D-19  0.57563074D-19  0.40988338D-19  0.28319094D-03  0.26550951D-03
  0.18905859D-03  0.48253882D-03  0.45241082D-03  0.32214345D-03  0.24817816D-18
 -0.37760695D-03  0.13994620D-02  0.53887682D-18  0.73622012D-04 -0.12486973D-02
 -0.15181689D-19 -0.38796478D-06 -0.31457773D-06 -0.31792025D-03 -0.17735441D-03
  0.49527466D-03 -0.95914317D-18  0.14262975D-17 -0.32193742D-03  0.19543643D-03
 -0.91300967D-04 -0.10413547D-03  0.57226408D-18  0.20895328D-18 -0.21851069D-03
  0.21954976D-04  0.83265445D-04 -0.10522042D-03  0.10428487D-18  0.12802304D-18
  0.93252149D-04  0.32582909D-18  0.35555504D-04 -0.28242705D-03 -0.34600698D-18
  0.17752940D-03  0.12489634D-03 -0.63148028D-18 -0.28419592D-03  0.72238480D-03
 -0.30255138D-18  0.11546559D-18  0.61683747D-04 -0.51692373D-04 -0.56657188D-18
  0.43727610D-04  0.13072466D-03  0.22017512D-18 -0.22877885D-03  0.24352456D-04
  0.35950156D-18  0.80493542D-04  0.15005826D-03  0.25362490D-03  0.38128130D-03
  0.46844813D-03  0.39567934D-03  0.14923569D-03 -0.73857574D-06 -0.65202620D-04
 -0.12207988D-03 -0.20785144D-03 -0.32151457D-03 -0.42342337D-03 -0.43996401D-03
 -0.27957738D-03  0.18736626D-03  0.17297984D-03 -0.22600546D-02  0.69005445D-05
 -0.86038324D-18 -0.80666398D-18 -0.57439281D-18 -0.28319093D-03 -0.26550950D-03
 -0.18905858D-03  0.48253885D-03  0.45241085D-03  0.32214347D-03  0.81630697D-18
  0.37760691D-03  0.13994620D-02  0.13672894D-17 -0.73621880D-04 -0.12486973D-02
 -0.10635099D-19  0.38796542D-06 -0.31457757D-06 -0.31792025D-03 -0.17735443D-03
  0.49527469D-03  0.37056907D-18  0.10023897D-18  0.32193740D-03  0.19543646D-03
 -0.91300978D-04 -0.10413548D-03  0.46831395D-18  0.71529698D-18  0.21851070D-03
  0.21954975D-04  0.83265449D-04 -0.10522042D-03 -0.11716254D-18  0.17784784D-18
 -0.93252151D-04  0.21393071D-18 -0.35555510D-04 -0.28242707D-03 -0.26446988D-18
 -0.17752939D-03  0.12489635D-03 -0.37732225D-18  0.28419592D-03  0.72238486D-03
 -0.18297434D-18  0.38084154D-19 -0.61683748D-04 -0.51692390D-04 -0.17937172D-18
 -0.43727617D-04  0.13072467D-03  0.65119258D-19  0.22877886D-03  0.24352505D-04
 -0.87660926D-18 -0.35322877D-01 -0.65818981D-01 -0.11131640D+00 -0.16763633D+00
 -0.20754465D+00 -0.17661113D+00 -0.67203792D-01  0.31474403D-03 -0.62269814D-04
 -0.11675648D-03 -0.19863752D-03 -0.30846309D-03 -0.40934846D-03 -0.43139709D-03
 -0.26749372D-03  0.17793692D-03 -0.37777839D-02  0.86893901D-05 -0.69248084D-04
  0.10858478D-17  0.10429438D-17  0.73138418D-18  0.21851124D-10  0.20987744D-10
  0.14718054D-10 -0.67656556D-03 -0.64983313D-03 -0.45570785D-03  0.17867975D-18
 -0.66377946D-10  0.55286143D-03 -0.25162678D-18  0.45629807D-10  0.83244770D-03
  0.76965031D-19  0.19853900D-12 -0.23731271D-04 -0.21170121D-03 -0.31719259D-03
  0.52889381D-03 -0.12647010D-17 -0.44563226D-18 -0.18672019D-10  0.68969678D-05
  0.18636020D-03 -0.19325717D-03  0.88442526D-18  0.84632549D-18 -0.30013439D-10
 -0.86674124D-04  0.29736307D-04  0.56937817D-04  0.98758567D-19 -0.13083978D-18
  0.45494189D-11 -0.58891686D-18 -0.30475273D-11 -0.38095636D-04  0.40809981D-18
  0.14184964D-10  0.24631354D-03  0.13586508D-17 -0.50423818D-11 -0.13202663D-03
  0.56821362D-18 -0.14446414D-19  0.60271362D-11 -0.11893993D-03 -0.13768588D-18
 -0.12087480D-10 -0.13440335D-04  0.18102512D-18 -0.59939282D-11  0.37026013D-03
  0.24063308D-18  0.29001724D+00  0.54040442D+00  0.91395935D+00  0.13763721D+01
  0.17040380D+01  0.14500594D+01  0.55177436D+00 -0.25841947D-02 -0.77609401D-03
 -0.14551835D-02 -0.24757001D-02 -0.38445009D-02 -0.51018763D-02 -0.53766773D-02
 -0.33338829D-02  0.22177002D-02  0.30700824D-01  0.12090961D-02  0.57796894D-05
 -0.23298816D-16 -0.22378234D-16 -0.15693162D-16 -0.40532378D-02 -0.38930864D-02
 -0.27301009D-02 -0.30130744D-02 -0.28940219D-02 -0.20294879D-02  0.26072189D-17
 -0.12702393D-02  0.13137444D-02  0.43539864D-18  0.15260250D-02 -0.53891052D-03
 -0.21067643D-19  0.22571079D-04  0.10493644D-04 -0.22267380D-02  0.10053793D-02
  0.12213587D-02  0.29591867D-17 -0.46623935D-17 -0.13764372D-02  0.77144973D-03
 -0.88881649D-04 -0.68256808D-03 -0.24804138D-17  0.16026398D-17 -0.56386199D-03
  0.12111313D-03 -0.15953017D-03  0.38417041D-04 -0.74115119D-18  0.51083355D-18
 -0.96671478D-04 -0.26627430D-19 -0.58258903D-04 -0.10636177D-03 -0.10433340D-18
  0.18229282D-03 -0.33187590D-03  0.18421568D-18 -0.75161154D-05  0.65096121D-03
 -0.43389602D-17 -0.49061861D-18  0.21792621D-04 -0.54969174D-05  0.18326717D-17
 -0.40912153D-03  0.13841947D-03 -0.36081591D-18  0.34374367D-03 -0.12192871D-03
 -0.85201170D-18  0.29001725D+00  0.54040444D+00  0.91395938D+00  0.13763722D+01