 Molden2AIM, Version 4.0.0 (06/02/2016)           Time: Fri Jun 29 17:12:10 2018
GAUSSIAN             15 MOL ORBITALS    462 PRIMITIVES       10 NUCLEI
  C    1    (CENTRE  1)   0.00000000  0.00000000  0.59438690  CHARGE =  6.0
  C    2    (CENTRE  2)   0.00000000 -1.45175942 -1.76370596  CHARGE =  6.0
  C    3    (CENTRE  3)   0.00000000  1.45175942 -1.76370596  CHARGE =  6.0
  C    4    (CENTRE  4)   0.00000000  0.00000000  3.09642586  CHARGE =  6.0
  H    5    (CENTRE  5)  -1.73473268 -2.40977308 -2.33789546  CHARGE =  1.0
  H    6    (CENTRE  6)   1.73473268 -2.40977308 -2.33789546  CHARGE =  1.0
  H    7    (CENTRE  7)   1.73473268  2.40977308 -2.33789546  CHARGE =  1.0
  H    8    (CENTRE  8)  -1.73473268  2.40977308 -2.33789546  CHARGE =  1.0
  H    9    (CENTRE  9)   0.00000000 -1.76444106  4.16423072  CHARGE =  1.0
  H   10    (CENTRE 10)   0.00000000  1.76444106  4.16423072  CHARGE =  1.0
CENTRE ASSIGNMENTS    1  1  1  1  1  1  1  1  1  1  1  1  1  1  1  1  1  1  1  1
CENTRE ASSIGNMENTS    1  1  1  1  1  1  1  1  1  1  1  1  1  1  1  1  1  1  1  1
CENTRE ASSIGNMENTS    1  1  1  1  1  1  1  1  1  1  1  1  1  1  1  1  1  1  1  1
CENTRE ASSIGNMENTS    1  1  1  1  1  1  1  1  1  1  1  1  1  1  1  2  2  2  2  2
CENTRE ASSIGNMENTS    2  2  2  2  2  2  2  2  2  2  2  2  2  2  2  2  2  2  2  2
CENTRE ASSIGNMENTS    2  2  2  2  2  2  2  2  2  2  2  2  2  2  2  2  2  2  2  2
CENTRE ASSIGNMENTS    2  2  2  2  2  2  2  2  2  2  2  2  2  2  2  2  2  2  2  2
CENTRE ASSIGNMENTS    2  2  2  2  2  2  2  2  2  2  3  3  3  3  3  3  3  3  3  3
CENTRE ASSIGNMENTS    3  3  3  3  3  3  3  3  3  3  3  3  3  3  3  3  3  3  3  3
CENTRE ASSIGNMENTS    3  3  3  3  3  3  3  3  3  3  3  3  3  3  3  3  3  3  3  3
CENTRE ASSIGNMENTS    3  3  3  3  3  3  3  3  3  3  3  3  3  3  3  3  3  3  3  3
CENTRE ASSIGNMENTS    3  3  3  3  3  4  4  4  4  4  4  4  4  4  4  4  4  4  4  4
CENTRE ASSIGNMENTS    4  4  4  4  4  4  4  4  4  4  4  4  4  4  4  4  4  4  4  4
CENTRE ASSIGNMENTS    4  4  4  4  4  4  4  4  4  4  4  4  4  4  4  4  4  4  4  4
CENTRE ASSIGNMENTS    4  4  4  4  4  4  4  4  4  4  4  4  4  4  4  4  4  4  4  4
CENTRE ASSIGNMENTS    5  5  5  5  5  5  5  5  5  5  5  5  5  5  5  5  5  5  5  5
CENTRE ASSIGNMENTS    5  5  5  5  5  5  5  6  6  6  6  6  6  6  6  6  6  6  6  6
CENTRE ASSIGNMENTS    6  6  6  6  6  6  6  6  6  6  6  6  6  6  7  7  7  7  7  7
CENTRE ASSIGNMENTS    7  7  7  7  7  7  7  7  7  7  7  7  7  7  7  7  7  7  7  7
CENTRE ASSIGNMENTS    7  8  8  8  8  8  8  8  8  8  8  8  8  8  8  8  8  8  8  8
CENTRE ASSIGNMENTS    8  8  8  8  8  8  8  8  9  9  9  9  9  9  9  9  9  9  9  9
CENTRE ASSIGNMENTS    9  9  9  9  9  9  9  9  9  9  9  9  9  9  9 10 10 10 10 10
CENTRE ASSIGNMENTS   10 10 10 10 10 10 10 10 10 10 10 10 10 10 10 10 10 10 10 10
CENTRE ASSIGNMENTS   10 10
TYPE ASSIGNMENTS      1  1  1  1  1  1  1  1  1  1  1  1  1  1  1  1  1  1  1  2
TYPE ASSIGNMENTS      2  2  3  3  3  4  4  4  2  3  4  2  3  4  2  3  4  5  6  7
TYPE ASSIGNMENTS      8  9 10  5  6  7  8  9 10  5  6  7  8  9 10 11 12 13 17 14
TYPE ASSIGNMENTS     15 18 19 16 20 11 12 13 17 14 15 18 19 16 20  1  1  1  1  1
TYPE ASSIGNMENTS      1  1  1  1  1  1  1  1  1  1  1  1  1  1  2  2  2  3  3  3
TYPE ASSIGNMENTS      4  4  4  2  3  4  2  3  4  2  3  4  5  6  7  8  9 10  5  6
TYPE ASSIGNMENTS      7  8  9 10  5  6  7  8  9 10 11 12 13 17 14 15 18 19 16 20
TYPE ASSIGNMENTS     11 12 13 17 14 15 18 19 16 20  1  1  1  1  1  1  1  1  1  1
TYPE ASSIGNMENTS      1  1  1  1  1  1  1  1  1  2  2  2  3  3  3  4  4  4  2  3
TYPE ASSIGNMENTS      4  2  3  4  2  3  4  5  6  7  8  9 10  5  6  7  8  9 10  5
TYPE ASSIGNMENTS      6  7  8  9 10 11 12 13 17 14 15 18 19 16 20 11 12 13 17 14
TYPE ASSIGNMENTS     15 18 19 16 20  1  1  1  1  1  1  1  1  1  1  1  1  1  1  1
TYPE ASSIGNMENTS      1  1  1  1  2  2  2  3  3  3  4  4  4  2  3  4  2  3  4  2
TYPE ASSIGNMENTS      3  4  5  6  7  8  9 10  5  6  7  8  9 10  5  6  7  8  9 10
TYPE ASSIGNMENTS     11 12 13 17 14 15 18 19 16 20 11 12 13 17 14 15 18 19 16 20
TYPE ASSIGNMENTS      1  1  1  1  1  1  2  3  4  2  3  4  2  3  4  5  6  7  8  9
TYPE ASSIGNMENTS     10  5  6  7  8  9 10  1  1  1  1  1  1  2  3  4  2  3  4  2
TYPE ASSIGNMENTS      3  4  5  6  7  8  9 10  5  6  7  8  9 10  1  1  1  1  1  1
TYPE ASSIGNMENTS      2  3  4  2  3  4  2  3  4  5  6  7  8  9 10  5  6  7  8  9
TYPE ASSIGNMENTS     10  1  1  1  1  1  1  2  3  4  2  3  4  2  3  4  5  6  7  8
TYPE ASSIGNMENTS      9 10  5  6  7  8  9 10  1  1  1  1  1  1  2  3  4  2  3  4
TYPE ASSIGNMENTS      2  3  4  5  6  7  8  9 10  5  6  7  8  9 10  1  1  1  1  1
TYPE ASSIGNMENTS      1  2  3  4  2  3  4  2  3  4  5  6  7  8  9 10  5  6  7  8
TYPE ASSIGNMENTS      9 10
EXPONENTS  0.8236000D+04 0.1235000D+04 0.2808000D+03 0.7927000D+02 0.2559000D+02
EXPONENTS  0.8997000D+01 0.3319000D+01 0.3643000D+00 0.8236000D+04 0.1235000D+04
EXPONENTS  0.2808000D+03 0.7927000D+02 0.2559000D+02 0.8997000D+01 0.3319000D+01
EXPONENTS  0.3643000D+00 0.9059000D+00 0.1285000D+00 0.4402000D-01 0.1871000D+02
EXPONENTS  0.4133000D+01 0.1200000D+01 0.1871000D+02 0.4133000D+01 0.1200000D+01
EXPONENTS  0.1871000D+02 0.4133000D+01 0.1200000D+01 0.3827000D+00 0.3827000D+00
EXPONENTS  0.3827000D+00 0.1209000D+00 0.1209000D+00 0.1209000D+00 0.3569000D-01
EXPONENTS  0.3569000D-01 0.3569000D-01 0.1097000D+01 0.1097000D+01 0.1097000D+01
EXPONENTS  0.1097000D+01 0.1097000D+01 0.1097000D+01 0.3180000D+00 0.3180000D+00
EXPONENTS  0.3180000D+00 0.3180000D+00 0.3180000D+00 0.3180000D+00 0.1000000D+00
EXPONENTS  0.1000000D+00 0.1000000D+00 0.1000000D+00 0.1000000D+00 0.1000000D+00
EXPONENTS  0.7610000D+00 0.7610000D+00 0.7610000D+00 0.7610000D+00 0.7610000D+00
EXPONENTS  0.7610000D+00 0.7610000D+00 0.7610000D+00 0.7610000D+00 0.7610000D+00
EXPONENTS  0.2680000D+00 0.2680000D+00 0.2680000D+00 0.2680000D+00 0.2680000D+00
EXPONENTS  0.2680000D+00 0.2680000D+00 0.2680000D+00 0.2680000D+00 0.2680000D+00
EXPONENTS  0.8236000D+04 0.1235000D+04 0.2808000D+03 0.7927000D+02 0.2559000D+02
EXPONENTS  0.8997000D+01 0.3319000D+01 0.3643000D+00 0.8236000D+04 0.1235000D+04
EXPONENTS  0.2808000D+03 0.7927000D+02 0.2559000D+02 0.8997000D+01 0.3319000D+01
EXPONENTS  0.3643000D+00 0.9059000D+00 0.1285000D+00 0.4402000D-01 0.1871000D+02
EXPONENTS  0.4133000D+01 0.1200000D+01 0.1871000D+02 0.4133000D+01 0.1200000D+01
EXPONENTS  0.1871000D+02 0.4133000D+01 0.1200000D+01 0.3827000D+00 0.3827000D+00
EXPONENTS  0.3827000D+00 0.1209000D+00 0.1209000D+00 0.1209000D+00 0.3569000D-01
EXPONENTS  0.3569000D-01 0.3569000D-01 0.1097000D+01 0.1097000D+01 0.1097000D+01
EXPONENTS  0.1097000D+01 0.1097000D+01 0.1097000D+01 0.3180000D+00 0.3180000D+00
EXPONENTS  0.3180000D+00 0.3180000D+00 0.3180000D+00 0.3180000D+00 0.1000000D+00
EXPONENTS  0.1000000D+00 0.1000000D+00 0.1000000D+00 0.1000000D+00 0.1000000D+00
EXPONENTS  0.7610000D+00 0.7610000D+00 0.7610000D+00 0.7610000D+00 0.7610000D+00
EXPONENTS  0.7610000D+00 0.7610000D+00 0.7610000D+00 0.7610000D+00 0.7610000D+00
EXPONENTS  0.2680000D+00 0.2680000D+00 0.2680000D+00 0.2680000D+00 0.2680000D+00
EXPONENTS  0.2680000D+00 0.2680000D+00 0.2680000D+00 0.2680000D+00 0.2680000D+00
EXPONENTS  0.8236000D+04 0.1235000D+04 0.2808000D+03 0.7927000D+02 0.2559000D+02
EXPONENTS  0.8997000D+01 0.3319000D+01 0.3643000D+00 0.8236000D+04 0.1235000D+04
EXPONENTS  0.2808000D+03 0.7927000D+02 0.2559000D+02 0.8997000D+01 0.3319000D+01
EXPONENTS  0.3643000D+00 0.9059000D+00 0.1285000D+00 0.4402000D-01 0.1871000D+02
EXPONENTS  0.4133000D+01 0.1200000D+01 0.1871000D+02 0.4133000D+01 0.1200000D+01
EXPONENTS  0.1871000D+02 0.4133000D+01 0.1200000D+01 0.3827000D+00 0.3827000D+00
EXPONENTS  0.3827000D+00 0.1209000D+00 0.1209000D+00 0.1209000D+00 0.3569000D-01
EXPONENTS  0.3569000D-01 0.3569000D-01 0.1097000D+01 0.1097000D+01 0.1097000D+01
EXPONENTS  0.1097000D+01 0.1097000D+01 0.1097000D+01 0.3180000D+00 0.3180000D+00
EXPONENTS  0.3180000D+00 0.3180000D+00 0.3180000D+00 0.3180000D+00 0.1000000D+00
EXPONENTS  0.1000000D+00 0.1000000D+00 0.1000000D+00 0.1000000D+00 0.1000000D+00
EXPONENTS  0.7610000D+00 0.7610000D+00 0.7610000D+00 0.7610000D+00 0.7610000D+00
EXPONENTS  0.7610000D+00 0.7610000D+00 0.7610000D+00 0.7610000D+00 0.7610000D+00
EXPONENTS  0.2680000D+00 0.2680000D+00 0.2680000D+00 0.2680000D+00 0.2680000D+00
EXPONENTS  0.2680000D+00 0.2680000D+00 0.2680000D+00 0.2680000D+00 0.2680000D+00
EXPONENTS  0.8236000D+04 0.1235000D+04 0.2808000D+03 0.7927000D+02 0.2559000D+02
EXPONENTS  0.8997000D+01 0.3319000D+01 0.3643000D+00 0.8236000D+04 0.1235000D+04
EXPONENTS  0.2808000D+03 0.7927000D+02 0.2559000D+02 0.8997000D+01 0.3319000D+01
EXPONENTS  0.3643000D+00 0.9059000D+00 0.1285000D+00 0.4402000D-01 0.1871000D+02
EXPONENTS  0.4133000D+01 0.1200000D+01 0.1871000D+02 0.4133000D+01 0.1200000D+01
EXPONENTS  0.1871000D+02 0.4133000D+01 0.1200000D+01 0.3827000D+00 0.3827000D+00
EXPONENTS  0.3827000D+00 0.1209000D+00 0.1209000D+00 0.1209000D+00 0.3569000D-01
EXPONENTS  0.3569000D-01 0.3569000D-01 0.1097000D+01 0.1097000D+01 0.1097000D+01
EXPONENTS  0.1097000D+01 0.1097000D+01 0.1097000D+01 0.3180000D+00 0.3180000D+00
EXPONENTS  0.3180000D+00 0.3180000D+00 0.3180000D+00 0.3180000D+00 0.1000000D+00
EXPONENTS  0.1000000D+00 0.1000000D+00 0.1000000D+00 0.1000000D+00 0.1000000D+00
EXPONENTS  0.7610000D+00 0.7610000D+00 0.7610000D+00 0.7610000D+00 0.7610000D+00
EXPONENTS  0.7610000D+00 0.7610000D+00 0.7610000D+00 0.7610000D+00 0.7610000D+00
EXPONENTS  0.2680000D+00 0.2680000D+00 0.2680000D+00 0.2680000D+00 0.2680000D+00
EXPONENTS  0.2680000D+00 0.2680000D+00 0.2680000D+00 0.2680000D+00 0.2680000D+00
EXPONENTS  0.3387000D+02 0.5095000D+01 0.1159000D+01 0.3258000D+00 0.1027000D+00
EXPONENTS  0.2526000D-01 0.1407000D+01 0.1407000D+01 0.1407000D+01 0.3880000D+00
EXPONENTS  0.3880000D+00 0.3880000D+00 0.1020000D+00 0.1020000D+00 0.1020000D+00
EXPONENTS  0.1057000D+01 0.1057000D+01 0.1057000D+01 0.1057000D+01 0.1057000D+01
EXPONENTS  0.1057000D+01 0.2470000D+00 0.2470000D+00 0.2470000D+00 0.2470000D+00
EXPONENTS  0.2470000D+00 0.2470000D+00 0.3387000D+02 0.5095000D+01 0.1159000D+01
EXPONENTS  0.3258000D+00 0.1027000D+00 0.2526000D-01 0.1407000D+01 0.1407000D+01
EXPONENTS  0.1407000D+01 0.3880000D+00 0.3880000D+00 0.3880000D+00 0.1020000D+00
EXPONENTS  0.1020000D+00 0.1020000D+00 0.1057000D+01 0.1057000D+01 0.1057000D+01
EXPONENTS  0.1057000D+01 0.1057000D+01 0.1057000D+01 0.2470000D+00 0.2470000D+00
EXPONENTS  0.2470000D+00 0.2470000D+00 0.2470000D+00 0.2470000D+00 0.3387000D+02
EXPONENTS  0.5095000D+01 0.1159000D+01 0.3258000D+00 0.1027000D+00 0.2526000D-01
EXPONENTS  0.1407000D+01 0.1407000D+01 0.1407000D+01 0.3880000D+00 0.3880000D+00
EXPONENTS  0.3880000D+00 0.1020000D+00 0.1020000D+00 0.1020000D+00 0.1057000D+01
EXPONENTS  0.1057000D+01 0.1057000D+01 0.1057000D+01 0.1057000D+01 0.1057000D+01
EXPONENTS  0.2470000D+00 0.2470000D+00 0.2470000D+00 0.2470000D+00 0.2470000D+00
EXPONENTS  0.2470000D+00 0.3387000D+02 0.5095000D+01 0.1159000D+01 0.3258000D+00
EXPONENTS  0.1027000D+00 0.2526000D-01 0.1407000D+01 0.1407000D+01 0.1407000D+01
EXPONENTS  0.3880000D+00 0.3880000D+00 0.3880000D+00 0.1020000D+00 0.1020000D+00
EXPONENTS  0.1020000D+00 0.1057000D+01 0.1057000D+01 0.1057000D+01 0.1057000D+01
EXPONENTS  0.1057000D+01 0.1057000D+01 0.2470000D+00 0.2470000D+00 0.2470000D+00
EXPONENTS  0.2470000D+00 0.2470000D+00 0.2470000D+00 0.3387000D+02 0.5095000D+01
EXPONENTS  0.1159000D+01 0.3258000D+00 0.1027000D+00 0.2526000D-01 0.1407000D+01
EXPONENTS  0.1407000D+01 0.1407000D+01 0.3880000D+00 0.3880000D+00 0.3880000D+00
EXPONENTS  0.1020000D+00 0.1020000D+00 0.1020000D+00 0.1057000D+01 0.1057000D+01
EXPONENTS  0.1057000D+01 0.1057000D+01 0.1057000D+01 0.1057000D+01 0.2470000D+00
EXPONENTS  0.2470000D+00 0.2470000D+00 0.2470000D+00 0.2470000D+00 0.2470000D+00
EXPONENTS  0.3387000D+02 0.5095000D+01 0.1159000D+01 0.3258000D+00 0.1027000D+00
EXPONENTS  0.2526000D-01 0.1407000D+01 0.1407000D+01 0.1407000D+01 0.3880000D+00
EXPONENTS  0.3880000D+00 0.3880000D+00 0.1020000D+00 0.1020000D+00 0.1020000D+00
EXPONENTS  0.1057000D+01 0.1057000D+01 0.1057000D+01 0.1057000D+01 0.1057000D+01
EXPONENTS  0.1057000D+01 0.2470000D+00 0.2470000D+00 0.2470000D+00 0.2470000D+00
EXPONENTS  0.2470000D+00 0.2470000D+00
MO    1     MO 0.0        OCC NO =    2.0000000  ORB. ENERGY =  -10.243398
  0.32914580D+00  0.61360261D+00  0.10370965D+01  0.15590958D+01  0.19155293D+01
  0.16179707D+01  0.61023901D+00 -0.30201069D-02 -0.28956781D-02 -0.54216230D-02
 -0.92307771D-02 -0.14278609D-01 -0.18804425D-01 -0.19539002D-01 -0.12416159D-01
  0.83210209D-02  0.36885563D-01 -0.57923974D-02  0.53455384D-03 -0.92180072D-15
 -0.86424677D-15 -0.61539519D-15  0.97652883D-15  0.91555785D-15  0.65193173D-15
 -0.31701554D-02 -0.29722222D-02 -0.21163993D-02  0.29028572D-14  0.25482885D-13
  0.66633921D-02  0.66780763D-14 -0.73110690D-13  0.16744554D-02  0.54040045D-15
  0.29424064D-13  0.56469829D-03 -0.32616195D-02 -0.20566242D-02  0.53182437D-02
  0.10602373D-14  0.77640016D-15 -0.37136212D-13  0.11252617D-02 -0.96518756D-05
 -0.11156098D-02  0.38578681D-14 -0.48644792D-14  0.38576024D-13  0.70745855D-04
  0.19141763D-03 -0.26216349D-03  0.38105616D-14 -0.15705349D-14 -0.48823872D-12
 -0.42383084D-15 -0.61528629D-14  0.88651213D-03  0.93665668D-15  0.54338853D-14
 -0.13355914D-02  0.33483584D-15  0.13024703D-13 -0.13239450D-02 -0.18103319D-14
 -0.62762471D-15  0.32612663D-15 -0.11501863D-03 -0.16640494D-15 -0.26451052D-14
  0.46643670D-03  0.20492791D-14  0.16667253D-14 -0.12138081D-03 -0.41424808D-14
  0.85119042D-02  0.15868125D-01  0.26819926D-01  0.40319134D-01  0.49536715D-01
  0.41841675D-01  0.15781140D-01 -0.78101744D-04 -0.26342618D-03 -0.49321692D-03
 -0.83974401D-03 -0.12989563D-02 -0.17106797D-02 -0.17775058D-02 -0.11295252D-02
  0.75698150D-03  0.13474422D-02  0.64185306D-03  0.12061450D-02 -0.12017420D-14
 -0.11267095D-14 -0.80228426D-15  0.23955182D-03  0.22459506D-03  0.15992506D-03
  0.10752964D-03  0.10081587D-03  0.71786907D-04  0.52040089D-14  0.11038599D-02
  0.23208119D-02 -0.11479187D-13  0.10386171D-02  0.83398279D-03  0.10761686D-15
  0.55217859D-04  0.59989396D-04 -0.44259055D-03  0.36219314D-04  0.40637124D-03
 -0.21458442D-14 -0.19424339D-14  0.23096869D-02 -0.71868565D-05  0.10091249D-03
 -0.93725629D-04  0.57369384D-14  0.61173943D-15 -0.37811063D-03 -0.88489319D-04
  0.65625442D-04  0.22863877D-04  0.82584288D-14  0.59943577D-14  0.93953282D-04
 -0.16192526D-16  0.56824906D-04 -0.50934408D-03  0.16334359D-14  0.15472568D-03
  0.73545597D-03 -0.15848583D-14 -0.32520040D-03  0.79257626D-03 -0.41928963D-15
 -0.76930617D-15 -0.19246736D-05 -0.12290225D-03  0.10342403D-14  0.23280584D-03
  0.58030931D-03  0.12736782D-14 -0.22703182D-03 -0.21160257D-03 -0.17536825D-15
  0.85119042D-02  0.15868125D-01  0.26819926D-01  0.40319134D-01  0.49536715D-01
  0.41841675D-01  0.15781140D-01 -0.78101744D-04 -0.26342618D-03 -0.49321692D-03
 -0.83974401D-03 -0.12989563D-02 -0.17106797D-02 -0.17775058D-02 -0.11295252D-02
  0.75698150D-03  0.13474422D-02  0.64185306D-03  0.12061450D-02 -0.84136815D-14
 -0.78883612D-14 -0.56169831D-14 -0.23955182D-03 -0.22459506D-03 -0.15992506D-03
  0.10752964D-03  0.10081587D-03  0.71786907D-04  0.37634820D-13 -0.11038599D-02
  0.23208119D-02  0.41502596D-13 -0.10386171D-02  0.83398279D-03 -0.25889968D-15
 -0.55217859D-04  0.59989396D-04 -0.44259055D-03  0.36219314D-04  0.40637124D-03
  0.19340636D-14 -0.12953429D-14 -0.23096869D-02 -0.71868565D-05  0.10091249D-03
 -0.93725629D-04  0.34497908D-13 -0.19812278D-13  0.37811063D-03 -0.88489319D-04
  0.65625442D-04  0.22863877D-04  0.13924351D-13 -0.95114560D-14 -0.93953283D-04
  0.17769857D-14 -0.56824906D-04 -0.50934408D-03 -0.71127935D-15 -0.15472568D-03
  0.73545597D-03 -0.46196778D-14  0.32520040D-03  0.79257626D-03 -0.62908233D-14
  0.13952031D-14  0.19246736D-05 -0.12290225D-03 -0.56599661D-15 -0.23280584D-03
  0.58030931D-03 -0.36196128D-14  0.22703182D-03 -0.21160257D-03 -0.14713246D-14
  0.85400397D-02  0.15920576D-01  0.26908578D-01  0.40452406D-01  0.49700455D-01
  0.41979979D-01  0.15833304D-01 -0.78359904D-04 -0.52215673D-03 -0.97764214D-03
 -0.16645194D-02 -0.25747584D-02 -0.33908662D-02 -0.35233272D-02 -0.22389163D-02
  0.15004696D-02  0.40581860D-02 -0.10267480D-01 -0.41109995D-02  0.16881384D-14
  0.15827371D-14  0.11270031D-14 -0.83113891D-14 -0.77924556D-14 -0.55486926D-14
 -0.18851798D-02 -0.17674759D-02 -0.12585482D-02 -0.25414643D-14  0.88324293D-14
  0.16294640D-02  0.12411361D-14  0.57859237D-13 -0.73440896D-03 -0.12162191D-15
  0.36509068D-14  0.17198945D-03  0.68822451D-05  0.57261973D-03 -0.57950197D-03
 -0.10276777D-14  0.10712411D-15  0.13001614D-13  0.19177155D-02  0.94789634D-03
 -0.28656118D-02  0.17566092D-14  0.80157780D-15  0.34055520D-13  0.18878232D-03
 -0.23456830D-03  0.45785978D-04 -0.78912073D-15 -0.43946359D-15 -0.32705563D-12
 -0.11279157D-15  0.80849747D-14  0.14077400D-02  0.45578419D-15 -0.17019789D-13
 -0.20839632D-02 -0.11740949D-15 -0.72351354D-14 -0.21392567D-02 -0.10070222D-14
 -0.77252308D-17 -0.56698021D-15  0.64060693D-03 -0.19646515D-15  0.28501361D-14
  0.90815697D-04  0.21964084D-15 -0.11491955D-14 -0.20126365D-02 -0.10803557D-14
  0.61513837D-04  0.11094274D-03  0.16358500D-03  0.12483172D-02  0.51069110D-03
  0.79625980D-04  0.31909081D-03  0.19407812D-03  0.12258561D-03  0.29884097D-03
  0.96483656D-04 -0.65126134D-03 -0.12461891D-04  0.96012342D-04 -0.27599891D-04
  0.32787670D-03  0.32060499D-04 -0.35993720D-03  0.87547350D-04 -0.53152941D-03
 -0.73222029D-03  0.11699953D-04  0.46212994D-04 -0.57912947D-04 -0.11015179D-05
  0.36238043D-04 -0.18453738D-03  0.61513837D-04  0.11094274D-03  0.16358500D-03
  0.12483172D-02  0.51069110D-03  0.79625980D-04 -0.31909081D-03  0.19407812D-03
  0.12258561D-03 -0.29884097D-03  0.96483656D-04 -0.65126134D-03  0.12461891D-04
  0.96012342D-04 -0.27599891D-04  0.32787670D-03  0.32060499D-04 -0.35993720D-03
 -0.87547350D-04  0.53152941D-03 -0.73222029D-03  0.11699953D-04  0.46212994D-04
 -0.57912947D-04  0.11015179D-05 -0.36238043D-04 -0.18453738D-03  0.61513837D-04
  0.11094274D-03  0.16358500D-03  0.12483172D-02  0.51069110D-03  0.79625980D-04
 -0.31909081D-03 -0.19407812D-03  0.12258561D-03 -0.29884097D-03 -0.96483656D-04
 -0.65126134D-03  0.12461891D-04 -0.96012342D-04 -0.27599891D-04  0.32787670D-03
  0.32060499D-04 -0.35993720D-03  0.87547350D-04  0.53152941D-03  0.73222029D-03
  0.11699953D-04  0.46212994D-04 -0.57912947D-04 -0.11015179D-05 -0.36238043D-04
  0.18453738D-03  0.61513837D-04  0.11094274D-03  0.16358500D-03  0.12483172D-02
  0.51069110D-03  0.79625980D-04  0.31909081D-03 -0.19407812D-03  0.12258561D-03
  0.29884097D-03 -0.96483656D-04 -0.65126134D-03 -0.12461891D-04 -0.96012342D-04
 -0.27599891D-04  0.32787670D-03  0.32060499D-04 -0.35993720D-03 -0.87547350D-04
 -0.53152941D-03  0.73222029D-03  0.11699953D-04  0.46212994D-04 -0.57912947D-04
  0.11015179D-05  0.36238043D-04  0.18453738D-03  0.10305255D-03  0.18585951D-03
  0.27404974D-03  0.47989549D-02  0.36032181D-02 -0.94078527D-04  0.86270008D-15
  0.46715059D-03 -0.59672772D-03 -0.74254555D-15  0.91834660D-03  0.82473773D-03
 -0.14188125D-15  0.18004878D-03 -0.19400485D-03  0.33155542D-03  0.24773326D-03
 -0.57928868D-03  0.19574673D-15 -0.51973437D-15  0.97244627D-04  0.24931558D-03
  0.23223205D-04 -0.27253879D-03 -0.39408340D-15 -0.19175586D-15  0.15991872D-03
  0.10305255D-03  0.18585951D-03  0.27404974D-03  0.47989549D-02  0.36032181D-02
 -0.94078527D-04  0.67704391D-15 -0.46715059D-03 -0.59672772D-03 -0.24069698D-15
 -0.91834660D-03  0.82473773D-03  0.61397747D-15 -0.18004878D-03 -0.19400485D-03
  0.33155542D-03  0.24773326D-03 -0.57928868D-03  0.43812817D-15 -0.10677123D-14
 -0.97244627D-04  0.24931558D-03  0.23223205D-04 -0.27253879D-03 -0.18403615D-15
  0.75377624D-15 -0.15991872D-03
MO    2     MO 0.0        OCC NO =    2.0000000  ORB. ENERGY =  -10.235633
 -0.11359650D-01 -0.21176970D-01 -0.35792810D-01 -0.53808317D-01 -0.66109735D-01
 -0.55840239D-01 -0.21060884D-01  0.10423149D-03 -0.19756814D-03 -0.36990990D-03
 -0.62980326D-03 -0.97420987D-03 -0.12830001D-02 -0.13331193D-02 -0.84713748D-03
  0.56773184D-03 -0.16177207D-03  0.49254101D-02 -0.82753194D-03  0.49020728D-15
  0.45960048D-15  0.32726292D-15 -0.11193363D-13 -0.10494489D-13 -0.74727017D-14
 -0.23491112D-03 -0.22024410D-03 -0.15682692D-03 -0.23640271D-15  0.15669777D-11
 -0.52749584D-02  0.11830582D-14  0.28934422D-11  0.12670999D-01  0.87368099D-16
  0.14466543D-12 -0.86010193D-04  0.30390930D-03 -0.64821407D-03  0.34430477D-03
  0.20349991D-14 -0.91528435D-15 -0.59845894D-12  0.28958166D-04  0.55353503D-03
 -0.58249320D-03 -0.27147311D-14  0.24291281D-14 -0.99517534D-12  0.32583343D-05
 -0.24648824D-03  0.24322991D-03 -0.78408765D-14 -0.12471112D-14 -0.31599726D-11
 -0.22696155D-15 -0.15661942D-12 -0.55786817D-03  0.70906652D-16  0.38979774D-13
 -0.18777878D-03  0.60997800D-15  0.43087849D-12  0.18613833D-02 -0.21451818D-14
  0.24399108D-16  0.21790957D-12  0.13136522D-03 -0.54458770D-15 -0.13977317D-13
 -0.31380220D-03  0.47139037D-15 -0.63975139D-12 -0.80293469D-04  0.19265084D-14
  0.23297632D+00  0.43432084D+00  0.73407872D+00  0.11035608D+01  0.13558519D+01
  0.11452337D+01  0.43194001D+00 -0.21376952D-02 -0.21553123D-02 -0.40354246D-02
 -0.68706557D-02 -0.10627860D-01 -0.13996517D-01 -0.14543278D-01 -0.92416003D-02
  0.61935056D-02  0.25332453D-01  0.33988744D-02  0.21912465D-04  0.47459854D-14
  0.44496630D-14  0.31684251D-14  0.16539511D-02  0.15506843D-02  0.11041796D-02
  0.56962563D-03  0.53406023D-03  0.38028270D-03 -0.18255788D-13  0.69573395D-03
 -0.65659715D-03  0.71320865D-14  0.12487204D-02  0.16899411D-02 -0.75355172D-15
  0.84327201D-05  0.11827653D-04  0.95070574D-03  0.95439585D-03 -0.19051016D-02
  0.12348351D-14  0.21418944D-14  0.33159354D-02  0.60256980D-03 -0.75183720D-03
  0.14926741D-03  0.16603131D-13  0.74170709D-14 -0.10714632D-02  0.14571925D-04
 -0.47017087D-04  0.32445162D-04 -0.48773417D-14 -0.10163470D-13 -0.14069665D-04
 -0.10957404D-14  0.28188941D-03  0.40172210D-03 -0.46550694D-17 -0.12535621D-02
 -0.12331386D-02  0.32918764D-14  0.40789384D-03  0.27972334D-04 -0.31899497D-14
  0.95075296D-16 -0.32681290D-03 -0.13019075D-03  0.13788927D-14  0.10463283D-02
  0.40427356D-03 -0.16641186D-14 -0.65889591D-04 -0.13701324D-04 -0.51076962D-14
  0.23297632D+00  0.43432084D+00  0.73407872D+00  0.11035608D+01  0.13558519D+01
  0.11452337D+01  0.43194001D+00 -0.21376952D-02 -0.21553123D-02 -0.40354246D-02
 -0.68706557D-02 -0.10627860D-01 -0.13996517D-01 -0.14543278D-01 -0.92416003D-02
  0.61935056D-02  0.25332453D-01  0.33988743D-02  0.21912461D-04 -0.44455838D-15
 -0.41680174D-15 -0.29678767D-15 -0.16539511D-02 -0.15506843D-02 -0.11041796D-02
  0.56962563D-03  0.53406023D-03  0.38028270D-03  0.10295080D-14 -0.69573395D-03
 -0.65659715D-03 -0.87766795D-14 -0.12487203D-02  0.16899411D-02  0.88907042D-15
 -0.84327199D-05  0.11827653D-04  0.95070574D-03  0.95439585D-03 -0.19051016D-02
 -0.37070800D-14  0.16200212D-15 -0.33159354D-02  0.60256980D-03 -0.75183720D-03
  0.14926741D-03  0.72627012D-14 -0.89479594D-15  0.10714632D-02  0.14571926D-04
 -0.47017087D-04  0.32445162D-04 -0.38168170D-14  0.96024802D-14  0.14069665D-04
  0.12008155D-15 -0.28188941D-03  0.40172210D-03  0.72868726D-15  0.12535621D-02
 -0.12331386D-02 -0.10889319D-14 -0.40789384D-03  0.27972333D-04  0.31526166D-15
  0.24093281D-15  0.32681290D-03 -0.13019075D-03 -0.29727669D-14 -0.10463283D-02
  0.40427357D-03  0.22499684D-14  0.65889592D-04 -0.13701324D-04 -0.35667065D-14
 -0.51100103D-03 -0.95262210D-03 -0.16100992D-02 -0.24205065D-02 -0.29738719D-02
 -0.25119102D-02 -0.94740011D-03  0.46887360D-05 -0.14114263D-05 -0.26426353D-05
 -0.44993127D-05 -0.69597526D-05 -0.91657493D-05 -0.95238006D-05 -0.60519478D-05
  0.40558747D-05 -0.39850098D-03 -0.16677389D-01  0.95506501D-03  0.11314673D-14
  0.10608226D-14  0.75536886D-15 -0.18814698D-12 -0.17639975D-12 -0.12560713D-12
  0.55485982D-03  0.52021635D-03  0.37042503D-03 -0.15975729D-14  0.65590190D-12
 -0.26363339D-02  0.17841794D-14 -0.47143366D-12  0.53604293D-02 -0.17708462D-16
  0.17485456D-13 -0.22891547D-05 -0.20023329D-03 -0.36964289D-03  0.56987619D-03
  0.32681652D-15 -0.11039848D-15  0.24264798D-12  0.84975717D-04 -0.11589784D-02
  0.10740027D-02 -0.88169862D-15  0.19632277D-14 -0.12248986D-11 -0.50610203D-04
  0.13916191D-03 -0.88551708D-04  0.28571672D-14 -0.27798433D-15 -0.15527176D-11
  0.42231502D-16  0.36203406D-13 -0.51579040D-04  0.29189100D-15 -0.15296970D-12
 -0.73599579D-04 -0.41858550D-15  0.44359482D-13  0.22833670D-03  0.11034412D-14
 -0.59931455D-16 -0.24313473D-15 -0.12866716D-03  0.48151069D-15  0.13305206D-12
  0.15503290D-03 -0.30171632D-15 -0.13232266D-12  0.23096858D-03 -0.52501746D-15
  0.13071669D-03  0.23575293D-03  0.34761755D-03  0.65966338D-03  0.10477313D-02
 -0.16494045D-05 -0.84636696D-03 -0.28910812D-03 -0.32736826D-03 -0.98095805D-03
 -0.13483632D-02 -0.25404425D-03  0.14261764D-03 -0.48243077D-04  0.82740478D-04
 -0.79315989D-03 -0.10579374D-03  0.89895363D-03 -0.25950886D-02 -0.11365294D-02
 -0.91187164D-03 -0.74070684D-04 -0.12553900D-03  0.19960968D-03 -0.26014739D-03
 -0.20855955D-03 -0.10917026D-03  0.13071669D-03  0.23575293D-03  0.34761755D-03
  0.65966338D-03  0.10477313D-02 -0.16494045D-05  0.84636696D-03 -0.28910812D-03
 -0.32736826D-03  0.98095805D-03 -0.13483632D-02 -0.25404425D-03 -0.14261764D-03
 -0.48243077D-04  0.82740478D-04 -0.79315989D-03 -0.10579374D-03  0.89895363D-03
  0.25950886D-02  0.11365294D-02 -0.91187164D-03 -0.74070684D-04 -0.12553900D-03
  0.19960968D-03  0.26014739D-03  0.20855955D-03 -0.10917026D-03  0.13071669D-03
  0.23575293D-03  0.34761755D-03  0.65966338D-03  0.10477313D-02 -0.16494047D-05
  0.84636696D-03  0.28910812D-03 -0.32736826D-03  0.98095805D-03  0.13483632D-02
 -0.25404425D-03 -0.14261764D-03  0.48243078D-04  0.82740477D-04 -0.79315989D-03
 -0.10579374D-03  0.89895363D-03 -0.25950886D-02  0.11365294D-02  0.91187164D-03
 -0.74070684D-04 -0.12553900D-03  0.19960968D-03 -0.26014739D-03  0.20855955D-03
  0.10917027D-03  0.13071669D-03  0.23575293D-03  0.34761755D-03  0.65966338D-03
  0.10477313D-02 -0.16494047D-05 -0.84636696D-03  0.28910812D-03 -0.32736826D-03
 -0.98095805D-03  0.13483632D-02 -0.25404425D-03  0.14261764D-03  0.48243078D-04
  0.82740477D-04 -0.79315989D-03 -0.10579374D-03  0.89895363D-03  0.25950886D-02
 -0.11365294D-02  0.91187164D-03 -0.74070684D-04 -0.12553900D-03  0.19960968D-03
  0.26014739D-03 -0.20855955D-03  0.10917027D-03 -0.57079466D-04 -0.10294517D-03
 -0.15179259D-03  0.15577342D-02 -0.19973705D-02 -0.14069842D-04  0.75961727D-15
  0.35620498D-04  0.19156208D-03 -0.16479504D-14  0.64933150D-03 -0.10868609D-02
  0.20120429D-14 -0.20943972D-03 -0.96282654D-05 -0.25684691D-03  0.43618014D-04
  0.21322889D-03 -0.11013131D-14 -0.59514115D-15 -0.38073469D-03 -0.65084206D-05
 -0.65800608D-05  0.13088481D-04  0.45326533D-16  0.66208108D-15 -0.19222146D-03
 -0.57079466D-04 -0.10294517D-03 -0.15179259D-03  0.15577342D-02 -0.19973705D-02
 -0.14069843D-04  0.87420880D-15 -0.35620498D-04  0.19156208D-03 -0.98936664D-15
 -0.64933150D-03 -0.10868609D-02 -0.18448311D-14  0.20943972D-03 -0.96282664D-05
 -0.25684691D-03  0.43618014D-04  0.21322889D-03 -0.41900020D-15  0.11070238D-14
  0.38073469D-03 -0.65084206D-05 -0.65800608D-05  0.13088481D-04  0.25193316D-15
 -0.18906589D-15  0.19222146D-03
MO    3     MO 0.0        OCC NO =    2.0000000  ORB. ENERGY =  -10.235407
 -0.18720099D-11 -0.34898521D-11 -0.58984649D-11 -0.88673248D-11 -0.10894533D-10
 -0.92021748D-11 -0.34707218D-11  0.17176796D-13 -0.50983314D-14 -0.95456850D-14
 -0.16252345D-13 -0.25139907D-13 -0.33108373D-13 -0.34401721D-13 -0.21860749D-13
  0.14650566D-13 -0.15234936D-12  0.23844409D-11  0.39839120D-12 -0.91657257D-15
 -0.85934505D-15 -0.61190487D-15 -0.10449379D-02 -0.97969571D-03 -0.69760171D-03
  0.10797953D-12  0.10123767D-12  0.72087254D-13  0.13374709D-14 -0.26397100D-02
 -0.14050882D-11 -0.10816335D-14 -0.99238367D-03  0.10126936D-11 -0.15088566D-15
 -0.85440764D-04 -0.39966865D-12  0.11941886D-12 -0.12856811D-12  0.91492477D-14
  0.78696016D-15  0.18948731D-14  0.13255384D-02 -0.16327228D-12  0.10546572D-13
  0.15272571D-12 -0.19951094D-13 -0.57181199D-14  0.20582856D-02 -0.18243016D-13
 -0.67640013D-13  0.85883029D-13 -0.29863167D-13  0.64010320D-15  0.81736257D-04
  0.63594126D-15 -0.80883299D-04 -0.13413972D-12 -0.22307757D-15 -0.64173660D-03
  0.17680723D-13 -0.16847462D-14  0.88438649D-03  0.38473844D-12  0.74628316D-14
 -0.39216863D-16 -0.82989873D-03  0.10656584D-13  0.79756328D-15 -0.11378396D-03
  0.12257834D-13 -0.67991269D-15  0.26034802D-02 -0.44227587D-13  0.17219408D-13
  0.23334982D+00  0.43501712D+00  0.73525557D+00  0.11053300D+01  0.13580256D+01
  0.11470697D+01  0.43263249D+00 -0.21411223D-02 -0.23007347D-02 -0.43077013D-02
 -0.73342300D-02 -0.11344939D-01 -0.14940885D-01 -0.15524537D-01 -0.98651461D-02
  0.66113915D-02  0.26155673D-01 -0.20952659D-01 -0.20814444D-02 -0.87480558D-14
 -0.82018584D-14 -0.58402118D-14  0.11138711D-02  0.10443249D-02  0.74362155D-03
  0.82360679D-03  0.77218372D-03  0.54984081D-03  0.40214467D-13 -0.21049458D-02
  0.81024006D-03  0.10815774D-12 -0.33191463D-02 -0.82837382D-03 -0.19733080D-14
 -0.12652871D-03 -0.36323364D-04  0.84454809D-03 -0.50036669D-03 -0.34418140D-03
 -0.11535313D-14  0.48594889D-14  0.28009576D-02  0.71237463D-03 -0.35966110D-03
 -0.35271353D-03 -0.54981261D-13 -0.33421251D-13 -0.14815877D-02  0.20928945D-03
 -0.18128631D-03 -0.28003135D-04 -0.62323545D-13 -0.52693693D-13 -0.18951975D-03
  0.24199531D-14  0.56968097D-03  0.54213384D-03 -0.61280142D-14 -0.22290602D-02
 -0.86245042D-03 -0.11318452D-14  0.52001730D-03 -0.76395111D-03  0.13669562D-13
  0.41248431D-14 -0.39113815D-03 -0.60068891D-03  0.42250837D-15  0.16056266D-02
  0.15705822D-02 -0.12797038D-13 -0.43221215D-03  0.23148455D-03 -0.72319181D-14
 -0.23334982D+00 -0.43501712D+00 -0.73525557D+00 -0.11053300D+01 -0.13580256D+01
 -0.11470697D+01 -0.43263249D+00  0.21411223D-02  0.23007347D-02  0.43077013D-02