 Molden2AIM, Version 4.0.0 (06/02/2016)           Time: Fri Jun 29 19:17:05 2018
GAUSSIAN             20 MOL ORBITALS    558 PRIMITIVES       10 NUCLEI
  C    1    (CENTRE  1)  -1.24158597  0.00000000  0.00000000  CHARGE =  6.0
  C    2    (CENTRE  2)   1.24158597  0.00000000  0.00000000  CHARGE =  6.0
  C    3    (CENTRE  3)  -3.70483263  1.24592478  0.00000000  CHARGE =  6.0
  C    4    (CENTRE  4)   3.70483263  1.24592478  0.00000000  CHARGE =  6.0
  C    5    (CENTRE  5)  -3.70483263 -1.24592478  0.00000000  CHARGE =  6.0
  C    6    (CENTRE  6)   3.70483263 -1.24592478  0.00000000  CHARGE =  6.0
  H    7    (CENTRE  7)  -4.79646694  2.98222593  0.00000000  CHARGE =  1.0
  H    8    (CENTRE  8)   4.79646694  2.98222593  0.00000000  CHARGE =  1.0
  H    9    (CENTRE  9)  -4.79646883 -2.98222593  0.00000000  CHARGE =  1.0
  H   10    (CENTRE 10)   4.79646883 -2.98222593  0.00000000  CHARGE =  1.0
CENTRE ASSIGNMENTS    1  1  1  1  1  1  1  1  1  1  1  1  1  1  1  1  1  1  1  1
CENTRE ASSIGNMENTS    1  1  1  1  1  1  1  1  1  1  1  1  1  1  1  1  1  1  1  1
CENTRE ASSIGNMENTS    1  1  1  1  1  1  1  1  1  1  1  1  1  1  1  1  1  1  1  1
CENTRE ASSIGNMENTS    1  1  1  1  1  1  1  1  1  1  1  1  1  1  1  2  2  2  2  2
CENTRE ASSIGNMENTS    2  2  2  2  2  2  2  2  2  2  2  2  2  2  2  2  2  2  2  2
CENTRE ASSIGNMENTS    2  2  2  2  2  2  2  2  2  2  2  2  2  2  2  2  2  2  2  2
CENTRE ASSIGNMENTS    2  2  2  2  2  2  2  2  2  2  2  2  2  2  2  2  2  2  2  2
CENTRE ASSIGNMENTS    2  2  2  2  2  2  2  2  2  2  3  3  3  3  3  3  3  3  3  3
CENTRE ASSIGNMENTS    3  3  3  3  3  3  3  3  3  3  3  3  3  3  3  3  3  3  3  3
CENTRE ASSIGNMENTS    3  3  3  3  3  3  3  3  3  3  3  3  3  3  3  3  3  3  3  3
CENTRE ASSIGNMENTS    3  3  3  3  3  3  3  3  3  3  3  3  3  3  3  3  3  3  3  3
CENTRE ASSIGNMENTS    3  3  3  3  3  4  4  4  4  4  4  4  4  4  4  4  4  4  4  4
CENTRE ASSIGNMENTS    4  4  4  4  4  4  4  4  4  4  4  4  4  4  4  4  4  4  4  4
CENTRE ASSIGNMENTS    4  4  4  4  4  4  4  4  4  4  4  4  4  4  4  4  4  4  4  4
CENTRE ASSIGNMENTS    4  4  4  4  4  4  4  4  4  4  4  4  4  4  4  4  4  4  4  4
CENTRE ASSIGNMENTS    5  5  5  5  5  5  5  5  5  5  5  5  5  5  5  5  5  5  5  5
CENTRE ASSIGNMENTS    5  5  5  5  5  5  5  5  5  5  5  5  5  5  5  5  5  5  5  5
CENTRE ASSIGNMENTS    5  5  5  5  5  5  5  5  5  5  5  5  5  5  5  5  5  5  5  5
CENTRE ASSIGNMENTS    5  5  5  5  5  5  5  5  5  5  5  5  5  5  5  6  6  6  6  6
CENTRE ASSIGNMENTS    6  6  6  6  6  6  6  6  6  6  6  6  6  6  6  6  6  6  6  6
CENTRE ASSIGNMENTS    6  6  6  6  6  6  6  6  6  6  6  6  6  6  6  6  6  6  6  6
CENTRE ASSIGNMENTS    6  6  6  6  6  6  6  6  6  6  6  6  6  6  6  6  6  6  6  6
CENTRE ASSIGNMENTS    6  6  6  6  6  6  6  6  6  6  7  7  7  7  7  7  7  7  7  7
CENTRE ASSIGNMENTS    7  7  7  7  7  7  7  7  7  7  7  7  7  7  7  7  7  8  8  8
CENTRE ASSIGNMENTS    8  8  8  8  8  8  8  8  8  8  8  8  8  8  8  8  8  8  8  8
CENTRE ASSIGNMENTS    8  8  8  8  9  9  9  9  9  9  9  9  9  9  9  9  9  9  9  9
CENTRE ASSIGNMENTS    9  9  9  9  9  9  9  9  9  9  9 10 10 10 10 10 10 10 10 10
CENTRE ASSIGNMENTS   10 10 10 10 10 10 10 10 10 10 10 10 10 10 10 10 10 10
TYPE ASSIGNMENTS      1  1  1  1  1  1  1  1  1  1  1  1  1  1  1  1  1  1  1  2
TYPE ASSIGNMENTS      2  2  3  3  3  4  4  4  2  3  4  2  3  4  2  3  4  5  6  7
TYPE ASSIGNMENTS      8  9 10  5  6  7  8  9 10  5  6  7  8  9 10 11 12 13 17 14
TYPE ASSIGNMENTS     15 18 19 16 20 11 12 13 17 14 15 18 19 16 20  1  1  1  1  1
TYPE ASSIGNMENTS      1  1  1  1  1  1  1  1  1  1  1  1  1  1  2  2  2  3  3  3
TYPE ASSIGNMENTS      4  4  4  2  3  4  2  3  4  2  3  4  5  6  7  8  9 10  5  6
TYPE ASSIGNMENTS      7  8  9 10  5  6  7  8  9 10 11 12 13 17 14 15 18 19 16 20
TYPE ASSIGNMENTS     11 12 13 17 14 15 18 19 16 20  1  1  1  1  1  1  1  1  1  1
TYPE ASSIGNMENTS      1  1  1  1  1  1  1  1  1  2  2  2  3  3  3  4  4  4  2  3
TYPE ASSIGNMENTS      4  2  3  4  2  3  4  5  6  7  8  9 10  5  6  7  8  9 10  5
TYPE ASSIGNMENTS      6  7  8  9 10 11 12 13 17 14 15 18 19 16 20 11 12 13 17 14
TYPE ASSIGNMENTS     15 18 19 16 20  1  1  1  1  1  1  1  1  1  1  1  1  1  1  1
TYPE ASSIGNMENTS      1  1  1  1  2  2  2  3  3  3  4  4  4  2  3  4  2  3  4  2
TYPE ASSIGNMENTS      3  4  5  6  7  8  9 10  5  6  7  8  9 10  5  6  7  8  9 10
TYPE ASSIGNMENTS     11 12 13 17 14 15 18 19 16 20 11 12 13 17 14 15 18 19 16 20
TYPE ASSIGNMENTS      1  1  1  1  1  1  1  1  1  1  1  1  1  1  1  1  1  1  1  2
TYPE ASSIGNMENTS      2  2  3  3  3  4  4  4  2  3  4  2  3  4  2  3  4  5  6  7
TYPE ASSIGNMENTS      8  9 10  5  6  7  8  9 10  5  6  7  8  9 10 11 12 13 17 14
TYPE ASSIGNMENTS     15 18 19 16 20 11 12 13 17 14 15 18 19 16 20  1  1  1  1  1
TYPE ASSIGNMENTS      1  1  1  1  1  1  1  1  1  1  1  1  1  1  2  2  2  3  3  3
TYPE ASSIGNMENTS      4  4  4  2  3  4  2  3  4  2  3  4  5  6  7  8  9 10  5  6
TYPE ASSIGNMENTS      7  8  9 10  5  6  7  8  9 10 11 12 13 17 14 15 18 19 16 20
TYPE ASSIGNMENTS     11 12 13 17 14 15 18 19 16 20  1  1  1  1  1  1  2  3  4  2
TYPE ASSIGNMENTS      3  4  2  3  4  5  6  7  8  9 10  5  6  7  8  9 10  1  1  1
TYPE ASSIGNMENTS      1  1  1  2  3  4  2  3  4  2  3  4  5  6  7  8  9 10  5  6
TYPE ASSIGNMENTS      7  8  9 10  1  1  1  1  1  1  2  3  4  2  3  4  2  3  4  5
TYPE ASSIGNMENTS      6  7  8  9 10  5  6  7  8  9 10  1  1  1  1  1  1  2  3  4
TYPE ASSIGNMENTS      2  3  4  2  3  4  5  6  7  8  9 10  5  6  7  8  9 10
EXPONENTS  0.8236000D+04 0.1235000D+04 0.2808000D+03 0.7927000D+02 0.2559000D+02
EXPONENTS  0.8997000D+01 0.3319000D+01 0.3643000D+00 0.8236000D+04 0.1235000D+04
EXPONENTS  0.2808000D+03 0.7927000D+02 0.2559000D+02 0.8997000D+01 0.3319000D+01
EXPONENTS  0.3643000D+00 0.9059000D+00 0.1285000D+00 0.4402000D-01 0.1871000D+02
EXPONENTS  0.4133000D+01 0.1200000D+01 0.1871000D+02 0.4133000D+01 0.1200000D+01
EXPONENTS  0.1871000D+02 0.4133000D+01 0.1200000D+01 0.3827000D+00 0.3827000D+00
EXPONENTS  0.3827000D+00 0.1209000D+00 0.1209000D+00 0.1209000D+00 0.3569000D-01
EXPONENTS  0.3569000D-01 0.3569000D-01 0.1097000D+01 0.1097000D+01 0.1097000D+01
EXPONENTS  0.1097000D+01 0.1097000D+01 0.1097000D+01 0.3180000D+00 0.3180000D+00
EXPONENTS  0.3180000D+00 0.3180000D+00 0.3180000D+00 0.3180000D+00 0.1000000D+00
EXPONENTS  0.1000000D+00 0.1000000D+00 0.1000000D+00 0.1000000D+00 0.1000000D+00
EXPONENTS  0.7610000D+00 0.7610000D+00 0.7610000D+00 0.7610000D+00 0.7610000D+00
EXPONENTS  0.7610000D+00 0.7610000D+00 0.7610000D+00 0.7610000D+00 0.7610000D+00
EXPONENTS  0.2680000D+00 0.2680000D+00 0.2680000D+00 0.2680000D+00 0.2680000D+00
EXPONENTS  0.2680000D+00 0.2680000D+00 0.2680000D+00 0.2680000D+00 0.2680000D+00
EXPONENTS  0.8236000D+04 0.1235000D+04 0.2808000D+03 0.7927000D+02 0.2559000D+02
EXPONENTS  0.8997000D+01 0.3319000D+01 0.3643000D+00 0.8236000D+04 0.1235000D+04
EXPONENTS  0.2808000D+03 0.7927000D+02 0.2559000D+02 0.8997000D+01 0.3319000D+01
EXPONENTS  0.3643000D+00 0.9059000D+00 0.1285000D+00 0.4402000D-01 0.1871000D+02
EXPONENTS  0.4133000D+01 0.1200000D+01 0.1871000D+02 0.4133000D+01 0.1200000D+01
EXPONENTS  0.1871000D+02 0.4133000D+01 0.1200000D+01 0.3827000D+00 0.3827000D+00
EXPONENTS  0.3827000D+00 0.1209000D+00 0.1209000D+00 0.1209000D+00 0.3569000D-01
EXPONENTS  0.3569000D-01 0.3569000D-01 0.1097000D+01 0.1097000D+01 0.1097000D+01
EXPONENTS  0.1097000D+01 0.1097000D+01 0.1097000D+01 0.3180000D+00 0.3180000D+00
EXPONENTS  0.3180000D+00 0.3180000D+00 0.3180000D+00 0.3180000D+00 0.1000000D+00
EXPONENTS  0.1000000D+00 0.1000000D+00 0.1000000D+00 0.1000000D+00 0.1000000D+00
EXPONENTS  0.7610000D+00 0.7610000D+00 0.7610000D+00 0.7610000D+00 0.7610000D+00
EXPONENTS  0.7610000D+00 0.7610000D+00 0.7610000D+00 0.7610000D+00 0.7610000D+00
EXPONENTS  0.2680000D+00 0.2680000D+00 0.2680000D+00 0.2680000D+00 0.2680000D+00
EXPONENTS  0.2680000D+00 0.2680000D+00 0.2680000D+00 0.2680000D+00 0.2680000D+00
EXPONENTS  0.8236000D+04 0.1235000D+04 0.2808000D+03 0.7927000D+02 0.2559000D+02
EXPONENTS  0.8997000D+01 0.3319000D+01 0.3643000D+00 0.8236000D+04 0.1235000D+04
EXPONENTS  0.2808000D+03 0.7927000D+02 0.2559000D+02 0.8997000D+01 0.3319000D+01
EXPONENTS  0.3643000D+00 0.9059000D+00 0.1285000D+00 0.4402000D-01 0.1871000D+02
EXPONENTS  0.4133000D+01 0.1200000D+01 0.1871000D+02 0.4133000D+01 0.1200000D+01
EXPONENTS  0.1871000D+02 0.4133000D+01 0.1200000D+01 0.3827000D+00 0.3827000D+00
EXPONENTS  0.3827000D+00 0.1209000D+00 0.1209000D+00 0.1209000D+00 0.3569000D-01
EXPONENTS  0.3569000D-01 0.3569000D-01 0.1097000D+01 0.1097000D+01 0.1097000D+01
EXPONENTS  0.1097000D+01 0.1097000D+01 0.1097000D+01 0.3180000D+00 0.3180000D+00
EXPONENTS  0.3180000D+00 0.3180000D+00 0.3180000D+00 0.3180000D+00 0.1000000D+00
EXPONENTS  0.1000000D+00 0.1000000D+00 0.1000000D+00 0.1000000D+00 0.1000000D+00
EXPONENTS  0.7610000D+00 0.7610000D+00 0.7610000D+00 0.7610000D+00 0.7610000D+00
EXPONENTS  0.7610000D+00 0.7610000D+00 0.7610000D+00 0.7610000D+00 0.7610000D+00
EXPONENTS  0.2680000D+00 0.2680000D+00 0.2680000D+00 0.2680000D+00 0.2680000D+00
EXPONENTS  0.2680000D+00 0.2680000D+00 0.2680000D+00 0.2680000D+00 0.2680000D+00
EXPONENTS  0.8236000D+04 0.1235000D+04 0.2808000D+03 0.7927000D+02 0.2559000D+02
EXPONENTS  0.8997000D+01 0.3319000D+01 0.3643000D+00 0.8236000D+04 0.1235000D+04
EXPONENTS  0.2808000D+03 0.7927000D+02 0.2559000D+02 0.8997000D+01 0.3319000D+01
EXPONENTS  0.3643000D+00 0.9059000D+00 0.1285000D+00 0.4402000D-01 0.1871000D+02
EXPONENTS  0.4133000D+01 0.1200000D+01 0.1871000D+02 0.4133000D+01 0.1200000D+01
EXPONENTS  0.1871000D+02 0.4133000D+01 0.1200000D+01 0.3827000D+00 0.3827000D+00
EXPONENTS  0.3827000D+00 0.1209000D+00 0.1209000D+00 0.1209000D+00 0.3569000D-01
EXPONENTS  0.3569000D-01 0.3569000D-01 0.1097000D+01 0.1097000D+01 0.1097000D+01
EXPONENTS  0.1097000D+01 0.1097000D+01 0.1097000D+01 0.3180000D+00 0.3180000D+00
EXPONENTS  0.3180000D+00 0.3180000D+00 0.3180000D+00 0.3180000D+00 0.1000000D+00
EXPONENTS  0.1000000D+00 0.1000000D+00 0.1000000D+00 0.1000000D+00 0.1000000D+00
EXPONENTS  0.7610000D+00 0.7610000D+00 0.7610000D+00 0.7610000D+00 0.7610000D+00
EXPONENTS  0.7610000D+00 0.7610000D+00 0.7610000D+00 0.7610000D+00 0.7610000D+00
EXPONENTS  0.2680000D+00 0.2680000D+00 0.2680000D+00 0.2680000D+00 0.2680000D+00
EXPONENTS  0.2680000D+00 0.2680000D+00 0.2680000D+00 0.2680000D+00 0.2680000D+00
EXPONENTS  0.8236000D+04 0.1235000D+04 0.2808000D+03 0.7927000D+02 0.2559000D+02
EXPONENTS  0.8997000D+01 0.3319000D+01 0.3643000D+00 0.8236000D+04 0.1235000D+04
EXPONENTS  0.2808000D+03 0.7927000D+02 0.2559000D+02 0.8997000D+01 0.3319000D+01
EXPONENTS  0.3643000D+00 0.9059000D+00 0.1285000D+00 0.4402000D-01 0.1871000D+02
EXPONENTS  0.4133000D+01 0.1200000D+01 0.1871000D+02 0.4133000D+01 0.1200000D+01
EXPONENTS  0.1871000D+02 0.4133000D+01 0.1200000D+01 0.3827000D+00 0.3827000D+00
EXPONENTS  0.3827000D+00 0.1209000D+00 0.1209000D+00 0.1209000D+00 0.3569000D-01
EXPONENTS  0.3569000D-01 0.3569000D-01 0.1097000D+01 0.1097000D+01 0.1097000D+01
EXPONENTS  0.1097000D+01 0.1097000D+01 0.1097000D+01 0.3180000D+00 0.3180000D+00
EXPONENTS  0.3180000D+00 0.3180000D+00 0.3180000D+00 0.3180000D+00 0.1000000D+00
EXPONENTS  0.1000000D+00 0.1000000D+00 0.1000000D+00 0.1000000D+00 0.1000000D+00
EXPONENTS  0.7610000D+00 0.7610000D+00 0.7610000D+00 0.7610000D+00 0.7610000D+00
EXPONENTS  0.7610000D+00 0.7610000D+00 0.7610000D+00 0.7610000D+00 0.7610000D+00
EXPONENTS  0.2680000D+00 0.2680000D+00 0.2680000D+00 0.2680000D+00 0.2680000D+00
EXPONENTS  0.2680000D+00 0.2680000D+00 0.2680000D+00 0.2680000D+00 0.2680000D+00
EXPONENTS  0.8236000D+04 0.1235000D+04 0.2808000D+03 0.7927000D+02 0.2559000D+02
EXPONENTS  0.8997000D+01 0.3319000D+01 0.3643000D+00 0.8236000D+04 0.1235000D+04
EXPONENTS  0.2808000D+03 0.7927000D+02 0.2559000D+02 0.8997000D+01 0.3319000D+01
EXPONENTS  0.3643000D+00 0.9059000D+00 0.1285000D+00 0.4402000D-01 0.1871000D+02
EXPONENTS  0.4133000D+01 0.1200000D+01 0.1871000D+02 0.4133000D+01 0.1200000D+01
EXPONENTS  0.1871000D+02 0.4133000D+01 0.1200000D+01 0.3827000D+00 0.3827000D+00
EXPONENTS  0.3827000D+00 0.1209000D+00 0.1209000D+00 0.1209000D+00 0.3569000D-01
EXPONENTS  0.3569000D-01 0.3569000D-01 0.1097000D+01 0.1097000D+01 0.1097000D+01
EXPONENTS  0.1097000D+01 0.1097000D+01 0.1097000D+01 0.3180000D+00 0.3180000D+00
EXPONENTS  0.3180000D+00 0.3180000D+00 0.3180000D+00 0.3180000D+00 0.1000000D+00
EXPONENTS  0.1000000D+00 0.1000000D+00 0.1000000D+00 0.1000000D+00 0.1000000D+00
EXPONENTS  0.7610000D+00 0.7610000D+00 0.7610000D+00 0.7610000D+00 0.7610000D+00
EXPONENTS  0.7610000D+00 0.7610000D+00 0.7610000D+00 0.7610000D+00 0.7610000D+00
EXPONENTS  0.2680000D+00 0.2680000D+00 0.2680000D+00 0.2680000D+00 0.2680000D+00
EXPONENTS  0.2680000D+00 0.2680000D+00 0.2680000D+00 0.2680000D+00 0.2680000D+00
EXPONENTS  0.3387000D+02 0.5095000D+01 0.1159000D+01 0.3258000D+00 0.1027000D+00
EXPONENTS  0.2526000D-01 0.1407000D+01 0.1407000D+01 0.1407000D+01 0.3880000D+00
EXPONENTS  0.3880000D+00 0.3880000D+00 0.1020000D+00 0.1020000D+00 0.1020000D+00
EXPONENTS  0.1057000D+01 0.1057000D+01 0.1057000D+01 0.1057000D+01 0.1057000D+01
EXPONENTS  0.1057000D+01 0.2470000D+00 0.2470000D+00 0.2470000D+00 0.2470000D+00
EXPONENTS  0.2470000D+00 0.2470000D+00 0.3387000D+02 0.5095000D+01 0.1159000D+01
EXPONENTS  0.3258000D+00 0.1027000D+00 0.2526000D-01 0.1407000D+01 0.1407000D+01
EXPONENTS  0.1407000D+01 0.3880000D+00 0.3880000D+00 0.3880000D+00 0.1020000D+00
EXPONENTS  0.1020000D+00 0.1020000D+00 0.1057000D+01 0.1057000D+01 0.1057000D+01
EXPONENTS  0.1057000D+01 0.1057000D+01 0.1057000D+01 0.2470000D+00 0.2470000D+00
EXPONENTS  0.2470000D+00 0.2470000D+00 0.2470000D+00 0.2470000D+00 0.3387000D+02
EXPONENTS  0.5095000D+01 0.1159000D+01 0.3258000D+00 0.1027000D+00 0.2526000D-01
EXPONENTS  0.1407000D+01 0.1407000D+01 0.1407000D+01 0.3880000D+00 0.3880000D+00
EXPONENTS  0.3880000D+00 0.1020000D+00 0.1020000D+00 0.1020000D+00 0.1057000D+01
EXPONENTS  0.1057000D+01 0.1057000D+01 0.1057000D+01 0.1057000D+01 0.1057000D+01
EXPONENTS  0.2470000D+00 0.2470000D+00 0.2470000D+00 0.2470000D+00 0.2470000D+00
EXPONENTS  0.2470000D+00 0.3387000D+02 0.5095000D+01 0.1159000D+01 0.3258000D+00
EXPONENTS  0.1027000D+00 0.2526000D-01 0.1407000D+01 0.1407000D+01 0.1407000D+01
EXPONENTS  0.3880000D+00 0.3880000D+00 0.3880000D+00 0.1020000D+00 0.1020000D+00
EXPONENTS  0.1020000D+00 0.1057000D+01 0.1057000D+01 0.1057000D+01 0.1057000D+01
EXPONENTS  0.1057000D+01 0.1057000D+01 0.2470000D+00 0.2470000D+00 0.2470000D+00
EXPONENTS  0.2470000D+00 0.2470000D+00 0.2470000D+00
MO    1     MO 0.0        OCC NO =    2.0000000  ORB. ENERGY =  -10.255870
 -0.32302924D-02 -0.60219994D-02 -0.10178240D-01 -0.15301228D-01 -0.18799327D-01
 -0.15879037D-01 -0.59889885D-02  0.29639839D-04  0.17483152D-03  0.32733976D-03
  0.55732395D-03  0.86209541D-03  0.11353493D-02  0.11797007D-02  0.74964682D-03
 -0.50239587D-03 -0.16818914D-02  0.56763985D-02  0.15129425D-02  0.29589423D-03
  0.27741965D-03  0.19753932D-03 -0.15328823D-07 -0.14371746D-07 -0.10233540D-07
 -0.28713950D-16 -0.26921153D-16 -0.19169465D-16  0.41718445D-02 -0.24277602D-06
  0.17777697D-16 -0.76057146D-02  0.12391253D-05 -0.31439589D-17  0.74965787D-03
 -0.13395327D-06 -0.21379062D-18 -0.78500376D-03  0.81523737D-03 -0.30233608D-04
  0.14572397D-07 -0.76780896D-16  0.26202133D-15  0.27054184D-02 -0.20723272D-02
 -0.63309125D-03  0.11483783D-05 -0.98643235D-17 -0.52757830D-16  0.32467102D-03
 -0.23979962D-03 -0.84871394D-04  0.17379811D-06 -0.25733475D-17  0.45291098D-18
  0.39449395D-03 -0.48652468D-07  0.39022839D-19 -0.73841238D-03  0.76985373D-07
  0.11033197D-17 -0.44506947D-03  0.68972032D-07 -0.12203882D-17  0.91734328D-17
 -0.55853860D-03 -0.39134307D-07  0.22902199D-18  0.49964208D-03  0.21953417D-06
 -0.12755149D-17  0.11759737D-02 -0.10213125D-06  0.58844895D-18 -0.65817645D-17
  0.32302924D-02  0.60219994D-02  0.10178240D-01  0.15301229D-01  0.18799327D-01
  0.15879037D-01  0.59889886D-02 -0.29639839D-04 -0.17483152D-03 -0.32733976D-03
 -0.55732395D-03 -0.86209541D-03 -0.11353493D-02 -0.11797007D-02 -0.74964682D-03
  0.50239587D-03  0.16818914D-02 -0.56763985D-02 -0.15129425D-02  0.29589424D-03
  0.27741965D-03  0.19753932D-03  0.15328821D-07  0.14371744D-07  0.10233538D-07
  0.23598308D-17  0.22124913D-17  0.15754256D-17  0.41718445D-02  0.24277600D-06
  0.93783728D-18 -0.76057146D-02 -0.12391252D-05  0.39823821D-17  0.74965787D-03
  0.13395328D-06  0.98933799D-20  0.78500377D-03 -0.81523737D-03  0.30233606D-04
  0.14572398D-07  0.88568068D-18 -0.64877826D-18 -0.27054184D-02  0.20723272D-02
  0.63309125D-03  0.11483783D-05 -0.67126637D-17  0.52125525D-18 -0.32467102D-03
  0.23979962D-03  0.84871393D-04  0.17379818D-06 -0.55405595D-18 -0.10388114D-20
  0.39449395D-03  0.48652465D-07  0.65742219D-18 -0.73841238D-03 -0.76985355D-07
  0.14687614D-17 -0.44506947D-03 -0.68972041D-07 -0.34410280D-17 -0.75964560D-17
 -0.55853860D-03  0.39134303D-07 -0.10867246D-18  0.49964208D-03 -0.21953416D-06
 -0.51924773D-19  0.11759737D-02  0.10213125D-06  0.37794215D-18  0.73855936D-18
 -0.16489177D+00 -0.30739574D+00 -0.51955296D+00 -0.78105828D+00 -0.95962035D+00
 -0.81055279D+00 -0.30571069D+00  0.15129793D-02  0.15959838D-02  0.29881853D-02
  0.50876411D-02  0.78698071D-02  0.10364259D-01  0.10769129D-01  0.68432981D-02
 -0.45862193D-02 -0.19344792D-01 -0.51980657D-03  0.27709013D-02 -0.68491981D-03
 -0.64215586D-03 -0.45725323D-03  0.10039666D-02  0.94128254D-03  0.67024924D-03
  0.10551322D-16  0.98925348D-17  0.70440741D-17 -0.15537260D-03  0.22068637D-02
  0.90730660D-18 -0.26226246D-02  0.25490012D-02 -0.47396264D-17  0.12369989D-03
 -0.95642263D-04 -0.28763740D-18  0.46015801D-04 -0.19249378D-02  0.18789220D-02
  0.28315719D-02  0.43876040D-17  0.25723768D-17  0.35329960D-03  0.77207354D-03
 -0.11253731D-02 -0.10939401D-02 -0.65469646D-17 -0.49190033D-17 -0.18429276D-03
  0.33980485D-03 -0.15551209D-03 -0.44230846D-04 -0.18951787D-17  0.17537280D-17
 -0.25820026D-04 -0.55606957D-03 -0.16947194D-17  0.35276253D-03  0.59399526D-03
  0.35469617D-17 -0.27530245D-03  0.10742134D-02  0.15371964D-17 -0.57874875D-17
  0.26496099D-03 -0.17456386D-03  0.29934387D-18 -0.10361982D-02  0.59247170D-03
 -0.23080673D-17  0.24131526D-03 -0.68780121D-04  0.14100357D-17  0.20430839D-18
  0.16489177D+00  0.30739575D+00  0.51955296D+00  0.78105829D+00  0.95962035D+00
  0.81055279D+00  0.30571069D+00 -0.15129793D-02 -0.15959838D-02 -0.29881853D-02
 -0.50876411D-02 -0.78698072D-02 -0.10364259D-01 -0.10769129D-01 -0.68432982D-02
  0.45862193D-02  0.19344792D-01  0.51980655D-03 -0.27709013D-02 -0.68491981D-03
 -0.64215586D-03 -0.45725323D-03 -0.10039666D-02 -0.94128254D-03 -0.67024924D-03
 -0.17001667D-16 -0.15940144D-16 -0.11350332D-16 -0.15537259D-03 -0.22068637D-02
  0.65024706D-17 -0.26226247D-02 -0.25490012D-02  0.51724015D-17  0.12369989D-03
  0.95642263D-04  0.95105593D-19 -0.46015801D-04  0.19249379D-02 -0.18789220D-02
  0.28315719D-02  0.31086848D-17  0.50362638D-18 -0.35329961D-03 -0.77207355D-03
  0.11253732D-02 -0.10939401D-02 -0.20921727D-18 -0.17059935D-17  0.18429276D-03
 -0.33980486D-03  0.15551209D-03 -0.44230846D-04 -0.14818016D-17 -0.31707710D-17
 -0.25820027D-04  0.55606957D-03 -0.79569940D-18  0.35276254D-03 -0.59399526D-03
  0.63543430D-19 -0.27530246D-03 -0.10742135D-02  0.23235548D-17  0.53272615D-18
  0.26496099D-03  0.17456386D-03 -0.69500490D-18 -0.10361982D-02 -0.59247170D-03
  0.56296292D-18  0.24131526D-03  0.68780121D-04  0.15220518D-17  0.27481046D-17
 -0.16485272D+00 -0.30732295D+00 -0.51942993D+00 -0.78087333D+00 -0.95939311D+00
 -0.81036085D+00 -0.30563830D+00  0.15126210D-02  0.15955779D-02  0.29874253D-02
  0.50863472D-02  0.78678057D-02  0.10361623D-01  0.10766390D-01  0.68415578D-02
 -0.45850529D-02 -0.19340331D-01 -0.52061814D-03  0.27692744D-02 -0.68470650D-03
 -0.64195587D-03 -0.45711082D-03 -0.10041126D-02 -0.94141943D-03 -0.67034671D-03
  0.90412096D-17  0.84767087D-17  0.60359216D-17 -0.15546315D-03 -0.22064061D-02
 -0.10104957D-17 -0.26218072D-02 -0.25481220D-02  0.15602045D-17  0.12362145D-03
  0.95605461D-04 -0.10252869D-18  0.46035369D-04 -0.19244691D-02  0.18784337D-02
 -0.28312743D-02 -0.77596063D-17  0.52020544D-17  0.35285024D-03  0.77230966D-03
 -0.11251599D-02  0.10943092D-02  0.60665528D-17 -0.51964526D-17 -0.18425620D-03
  0.33975158D-03 -0.15549538D-03  0.44161833D-04 -0.23533165D-18 -0.30993959D-18
 -0.25847149D-04  0.55624329D-03 -0.10607813D-17  0.35264836D-03 -0.59443287D-03
 -0.16441944D-17 -0.27510692D-03 -0.10742970D-02  0.48265382D-17 -0.92792986D-17
  0.26481814D-03  0.17468561D-03  0.71101547D-18 -0.10357665D-02 -0.59275005D-03
  0.93881883D-18  0.24131206D-03  0.68693233D-04 -0.30718652D-17 -0.10959058D-17
  0.16485272D+00  0.30732295D+00  0.51942993D+00  0.78087333D+00  0.95939311D+00
  0.81036085D+00  0.30563830D+00 -0.15126210D-02 -0.15955779D-02 -0.29874253D-02
 -0.50863472D-02 -0.78678058D-02 -0.10361623D-01 -0.10766390D-01 -0.68415578D-02
  0.45850530D-02  0.19340331D-01  0.52061813D-03 -0.27692744D-02 -0.68470651D-03
 -0.64195587D-03 -0.45711083D-03  0.10041126D-02  0.94141943D-03  0.67034672D-03
 -0.86390859D-17 -0.80996921D-17 -0.57674633D-17 -0.15546315D-03  0.22064061D-02
 -0.23378551D-17 -0.26218072D-02  0.25481220D-02 -0.67434328D-17  0.12362145D-03
 -0.95605461D-04 -0.29136872D-18 -0.46035370D-04  0.19244691D-02 -0.18784337D-02
 -0.28312743D-02 -0.10766627D-17  0.58461212D-18 -0.35285024D-03 -0.77230966D-03
  0.11251599D-02  0.10943092D-02  0.83800737D-18 -0.39891282D-17  0.18425620D-03
 -0.33975158D-03  0.15549538D-03  0.44161833D-04  0.77739925D-18 -0.17257814D-17
 -0.25847150D-04 -0.55624330D-03  0.30774468D-20  0.35264837D-03  0.59443288D-03
 -0.32017420D-18 -0.27510692D-03  0.10742970D-02  0.31094186D-18  0.19481016D-17
  0.26481814D-03 -0.17468561D-03  0.35203126D-18 -0.10357665D-02  0.59275005D-03
  0.34130008D-18  0.24131206D-03 -0.68693233D-04 -0.13973939D-17  0.11235689D-17
 -0.94922589D-04 -0.17119680D-03 -0.25242958D-03 -0.43681305D-02 -0.61702941D-02
  0.15137185D-03  0.75921194D-04 -0.40632160D-03 -0.22859137D-17  0.74788114D-03
  0.65528749D-03  0.29137550D-18 -0.61353065D-03  0.38924072D-03 -0.20661470D-17
  0.41480715D-03  0.50201631D-03 -0.91682347D-03 -0.20872524D-02 -0.20881555D-17
  0.18006739D-19  0.84646531D-04  0.91025308D-04 -0.17567184D-03 -0.21155121D-03
  0.97275512D-19 -0.15225391D-18  0.94922590D-04  0.17119680D-03  0.25242958D-03
  0.43681305D-02  0.61702941D-02 -0.15137185D-03  0.75921195D-04  0.40632161D-03
  0.17303464D-17  0.74788115D-03 -0.65528749D-03 -0.56128906D-17 -0.61353065D-03
 -0.38924072D-03  0.40797372D-17 -0.41480715D-03 -0.50201632D-03  0.91682347D-03
 -0.20872525D-02  0.19050246D-17  0.26222428D-17 -0.84646531D-04 -0.91025309D-04
  0.17567184D-03 -0.21155121D-03  0.10745404D-18  0.10252861D-19 -0.94901167D-04
 -0.17115816D-03 -0.25237261D-03 -0.43674174D-02 -0.61684349D-02  0.15131147D-03
  0.75877142D-04  0.40627289D-03 -0.26922455D-19  0.74810081D-03 -0.65575614D-03
  0.21598347D-17 -0.61340003D-03 -0.38910269D-03 -0.11583072D-17  0.41500587D-03
  0.50165927D-03 -0.91666514D-03  0.20869405D-02  0.16900704D-17  0.28555372D-17
  0.84641721D-04  0.90973399D-04 -0.17561512D-03  0.21152463D-03 -0.92399419D-18
 -0.15236933D-17  0.94901168D-04  0.17115816D-03  0.25237261D-03  0.43674174D-02
  0.61684349D-02 -0.15131147D-03  0.75877143D-04 -0.40627290D-03 -0.68017430D-18
  0.74810082D-03  0.65575613D-03  0.10848653D-17 -0.61340003D-03  0.38910269D-03
 -0.12519420D-17 -0.41500587D-03 -0.50165927D-03  0.91666514D-03  0.20869405D-02
  0.24606457D-17  0.48356754D-18 -0.84641721D-04 -0.90973400D-04  0.17561512D-03
  0.21152463D-03 -0.40515153D-18 -0.53974127D-18
MO    2     MO 0.0        OCC NO =    2.0000000  ORB. ENERGY =  -10.255857
  0.30115520D-02  0.56142176D-02  0.94890168D-02  0.14265101D-01  0.17526324D-01
  0.14803783D-01  0.55834421D-02 -0.27632767D-04 -0.20180634D-04 -0.37784515D-04
 -0.64331369D-04 -0.99510846D-04 -0.13105228D-03 -0.13617172D-03 -0.86531013D-04
  0.57991073D-04  0.56232105D-03 -0.54778831D-02  0.92783341D-03 -0.79526871D-03
 -0.74561496D-03 -0.53092227D-03 -0.57792126D-07 -0.54183792D-07 -0.38582088D-07
  0.40026274D-16  0.37527176D-16  0.26721585D-16  0.53101400D-03  0.60414532D-06
  0.49010406D-16  0.20478150D-02 -0.39574439D-06 -0.66993721D-17  0.44945438D-04
  0.14215618D-07 -0.90066188D-18  0.12334274D-02 -0.93626792D-03 -0.29715943D-03
 -0.20281342D-06  0.45943570D-16  0.21044933D-15 -0.12018421D-02  0.10243917D-02
  0.17745037D-03  0.17607274D-06  0.17395544D-17 -0.39129786D-16  0.20262493D-03
 -0.89975053D-04 -0.11264988D-03  0.10625272D-06 -0.65613922D-19 -0.25496596D-18
 -0.13974606D-03 -0.21275032D-07  0.69874438D-18  0.33270718D-03  0.62222458D-07
 -0.29820070D-17  0.86531003D-04  0.16026384D-08  0.88577383D-18 -0.16994979D-17
  0.21134771D-03  0.69283497D-07  0.54505376D-18 -0.41918997D-03 -0.27599637D-06
 -0.13092709D-17 -0.21485314D-03  0.68145878D-07 -0.32589035D-18 -0.21617796D-17
  0.30115520D-02  0.56142176D-02  0.94890168D-02  0.14265100D-01  0.17526324D-01
  0.14803783D-01  0.55834421D-02 -0.27632766D-04 -0.20180633D-04 -0.37784513D-04
 -0.64331366D-04 -0.99510841D-04 -0.13105228D-03 -0.13617171D-03 -0.86531009D-04
  0.57991070D-04  0.56232104D-03 -0.54778831D-02  0.92783342D-03  0.79526871D-03
  0.74561496D-03  0.53092227D-03 -0.57792122D-07 -0.54183788D-07 -0.38582085D-07
 -0.51340975D-18 -0.48135428D-18 -0.34275292D-18 -0.53101402D-03  0.60414524D-06
  0.24566817D-17 -0.20478149D-02 -0.39574432D-06  0.28877846D-17 -0.44945441D-04
  0.14215564D-07  0.43782124D-18  0.12334273D-02 -0.93626791D-03 -0.29715943D-03
  0.20281340D-06 -0.15138257D-17 -0.27208975D-17 -0.12018420D-02  0.10243917D-02
  0.17745037D-03 -0.17607288D-06 -0.30522705D-17  0.23902239D-17  0.20262493D-03
 -0.89975055D-04 -0.11264988D-03 -0.10625261D-06  0.68700157D-18  0.10662322D-18
  0.13974606D-03 -0.21275043D-07 -0.64220031D-18 -0.33270717D-03  0.62222476D-07
  0.15461078D-17 -0.86531001D-04  0.16026540D-08  0.38049316D-18 -0.53722854D-17
 -0.21134770D-03  0.69283496D-07 -0.22558370D-18  0.41918997D-03 -0.27599634D-06
  0.10708279D-17  0.21485314D-03  0.68145855D-07 -0.39407680D-18  0.38769852D-17
  0.16460484D+00  0.30686084D+00  0.51864888D+00  0.77969916D+00  0.95795051D+00
  0.80914234D+00  0.30517872D+00 -0.15103465D-02 -0.13840328D-02 -0.25913462D-02
 -0.44119886D-02 -0.68246755D-02 -0.89878575D-02 -0.93389597D-02 -0.59344897D-02
  0.39771570D-02  0.18668330D-01 -0.17403995D-02 -0.63612608D-03  0.49106282D-03
  0.46040261D-03  0.32783408D-03 -0.12324709D-02 -0.11555198D-02 -0.82279897D-03
 -0.21685076D-16 -0.20331137D-16 -0.14476981D-16 -0.81846218D-03 -0.80774728D-03
  0.98042332D-17  0.13536646D-02 -0.83833253D-03  0.23297704D-17 -0.28104409D-04
  0.14831112D-04  0.22104424D-18 -0.16033019D-03  0.21918106D-02 -0.20314804D-02
 -0.27576027D-02  0.35250078D-17  0.97720970D-18 -0.85647282D-04 -0.83747851D-03
  0.92312579D-03  0.54801244D-03 -0.16711893D-17 -0.81962902D-17  0.12311854D-03
 -0.20470470D-03  0.81586165D-04  0.34777708D-04 -0.58604060D-19  0.44299522D-18
  0.16643767D-03  0.58083607D-03 -0.53423029D-18 -0.75945843D-03 -0.63727445D-03
  0.16280378D-19  0.26014542D-03 -0.11052338D-02  0.15864105D-17  0.10536713D-17
 -0.24485405D-03  0.20385004D-03 -0.41089348D-18  0.89831885D-03 -0.58729937D-03
 -0.13673263D-17 -0.16375671D-03 -0.24250746D-04  0.26000067D-17 -0.11913966D-17
  0.16460484D+00  0.30686084D+00  0.51864888D+00  0.77969916D+00  0.95795050D+00
  0.80914234D+00  0.30517872D+00 -0.15103465D-02 -0.13840328D-02 -0.25913462D-02
 -0.44119886D-02 -0.68246755D-02 -0.89878575D-02 -0.93389596D-02 -0.59344896D-02
  0.39771569D-02  0.18668330D-01 -0.17403995D-02 -0.63612607D-03 -0.49106282D-03
 -0.46040260D-03 -0.32783408D-03 -0.12324709D-02 -0.11555198D-02 -0.82279896D-03
 -0.13427259D-16 -0.12588909D-16 -0.89640532D-17  0.81846218D-03 -0.80774727D-03
  0.17391679D-17 -0.13536646D-02 -0.83833252D-03 -0.21246085D-17  0.28104409D-04
  0.14831112D-04  0.20770154D-19 -0.16033019D-03  0.21918106D-02 -0.20314804D-02
  0.27576027D-02  0.26243208D-17  0.35385593D-17 -0.85647280D-04 -0.83747850D-03
  0.92312578D-03 -0.54801244D-03  0.16543258D-17 -0.24447401D-17  0.12311853D-03
 -0.20470470D-03  0.81586164D-04 -0.34777708D-04  0.14452272D-17  0.23472282D-17
 -0.16643767D-03  0.58083607D-03 -0.19649926D-19  0.75945842D-03 -0.63727444D-03
  0.67944856D-18 -0.26014542D-03 -0.11052338D-02 -0.62049878D-18 -0.19962019D-17
  0.24485405D-03  0.20385004D-03 -0.41684311D-19 -0.89831885D-03 -0.58729936D-03
 -0.78946507D-18  0.16375671D-03 -0.24250747D-04  0.91451800D-18  0.27533721D-18
  0.16456573D+00  0.30678794D+00  0.51852566D+00  0.77951391D+00  0.95772290D+00
  0.80895010D+00  0.30510621D+00 -0.15099877D-02 -0.13836531D-02 -0.25906351D-02
 -0.44107779D-02 -0.68228028D-02 -0.89853913D-02 -0.93363971D-02 -0.59328612D-02
  0.39760656D-02  0.18664058D-01 -0.17416977D-02 -0.63561120D-03  0.49096270D-03
  0.46030874D-03  0.32776725D-03  0.12325582D-02  0.11556017D-02  0.82285722D-03
  0.47060094D-18  0.44121829D-18  0.31417371D-18 -0.81898822D-03  0.80733001D-03
 -0.30625019D-17  0.13531606D-02  0.83757436D-03 -0.55549055D-18 -0.28079002D-04
 -0.14816386D-04  0.11248120D-18 -0.16036803D-03  0.21913631D-02 -0.20309951D-02
  0.27572800D-02  0.39073938D-17 -0.66478702D-18 -0.85494608D-04 -0.83754142D-03
  0.92303603D-03 -0.54827104D-03  0.72793138D-17 -0.43560053D-17  0.12313061D-03
 -0.20469821D-03  0.81567597D-04 -0.34739868D-04  0.40037645D-19 -0.54650245D-19
  0.16643999D-03 -0.58102629D-03  0.64582695D-19 -0.75928659D-03  0.63776449D-03
  0.35981458D-17  0.25996663D-03  0.11053144D-02 -0.37918939D-17  0.37072099D-17
 -0.24478278D-03 -0.20388088D-03  0.23267105D-18  0.89812646D-03  0.58734308D-03
  0.24333488D-17 -0.16377812D-03  0.24299572D-04 -0.31313620D-17 -0.11619476D-17
  0.16456573D+00  0.30678793D+00  0.51852565D+00  0.77951390D+00  0.95772290D+00
  0.80895009D+00  0.30510621D+00 -0.15099877D-02 -0.13836531D-02 -0.25906351D-02
 -0.44107779D-02 -0.68228027D-02 -0.89853912D-02 -0.93363970D-02 -0.59328612D-02