 Molden2AIM, Version 4.0.0 (06/02/2016)           Time: Fri Jun 29 16:53:13 2018
GAUSSIAN             28 MOL ORBITALS    708 PRIMITIVES       12 NUCLEI
  H    1    (CENTRE  1)   0.00000000  4.12770988  2.38521987  CHARGE =  1.0
  H    2    (CENTRE  2)   0.00000000 -4.12770988  2.38521987  CHARGE =  1.0
  H    3    (CENTRE  3)   0.00000000  4.12770988 -2.38521987  CHARGE =  1.0
  H    4    (CENTRE  4)   0.00000000 -4.12770988 -2.38521987  CHARGE =  1.0
  C    5    (CENTRE  5)   0.00000000  0.00000000  2.71794773  CHARGE =  6.0
  C    6    (CENTRE  6)   0.00000000  0.00000000 -2.71794773  CHARGE =  6.0
  C    7    (CENTRE  7)   0.00000000  2.39481590  1.26851079  CHARGE =  6.0
  C    8    (CENTRE  8)   0.00000000 -2.39481590  1.26851079  CHARGE =  6.0
  C    9    (CENTRE  9)   0.00000000  2.39481590 -1.26851079  CHARGE =  6.0
  C   10    (CENTRE 10)   0.00000000 -2.39481590 -1.26851079  CHARGE =  6.0
  O   11    (CENTRE 11)   0.00000000  0.00000000  5.02495373  CHARGE =  8.0
  O   12    (CENTRE 12)   0.00000000  0.00000000 -5.02495373  CHARGE =  8.0
CENTRE ASSIGNMENTS    1  1  1  1  1  1  1  1  1  1  1  1  1  1  1  1  1  1  1  1
CENTRE ASSIGNMENTS    1  1  1  1  1  1  1  2  2  2  2  2  2  2  2  2  2  2  2  2
CENTRE ASSIGNMENTS    2  2  2  2  2  2  2  2  2  2  2  2  2  2  3  3  3  3  3  3
CENTRE ASSIGNMENTS    3  3  3  3  3  3  3  3  3  3  3  3  3  3  3  3  3  3  3  3
CENTRE ASSIGNMENTS    3  4  4  4  4  4  4  4  4  4  4  4  4  4  4  4  4  4  4  4
CENTRE ASSIGNMENTS    4  4  4  4  4  4  4  4  5  5  5  5  5  5  5  5  5  5  5  5
CENTRE ASSIGNMENTS    5  5  5  5  5  5  5  5  5  5  5  5  5  5  5  5  5  5  5  5
CENTRE ASSIGNMENTS    5  5  5  5  5  5  5  5  5  5  5  5  5  5  5  5  5  5  5  5
CENTRE ASSIGNMENTS    5  5  5  5  5  5  5  5  5  5  5  5  5  5  5  5  5  5  5  5
CENTRE ASSIGNMENTS    5  5  5  6  6  6  6  6  6  6  6  6  6  6  6  6  6  6  6  6
CENTRE ASSIGNMENTS    6  6  6  6  6  6  6  6  6  6  6  6  6  6  6  6  6  6  6  6
CENTRE ASSIGNMENTS    6  6  6  6  6  6  6  6  6  6  6  6  6  6  6  6  6  6  6  6
CENTRE ASSIGNMENTS    6  6  6  6  6  6  6  6  6  6  6  6  6  6  6  6  6  6  7  7
CENTRE ASSIGNMENTS    7  7  7  7  7  7  7  7  7  7  7  7  7  7  7  7  7  7  7  7
CENTRE ASSIGNMENTS    7  7  7  7  7  7  7  7  7  7  7  7  7  7  7  7  7  7  7  7
CENTRE ASSIGNMENTS    7  7  7  7  7  7  7  7  7  7  7  7  7  7  7  7  7  7  7  7
CENTRE ASSIGNMENTS    7  7  7  7  7  7  7  7  7  7  7  7  7  8  8  8  8  8  8  8
CENTRE ASSIGNMENTS    8  8  8  8  8  8  8  8  8  8  8  8  8  8  8  8  8  8  8  8
CENTRE ASSIGNMENTS    8  8  8  8  8  8  8  8  8  8  8  8  8  8  8  8  8  8  8  8
CENTRE ASSIGNMENTS    8  8  8  8  8  8  8  8  8  8  8  8  8  8  8  8  8  8  8  8
CENTRE ASSIGNMENTS    8  8  8  8  8  8  8  8  9  9  9  9  9  9  9  9  9  9  9  9
CENTRE ASSIGNMENTS    9  9  9  9  9  9  9  9  9  9  9  9  9  9  9  9  9  9  9  9
CENTRE ASSIGNMENTS    9  9  9  9  9  9  9  9  9  9  9  9  9  9  9  9  9  9  9  9
CENTRE ASSIGNMENTS    9  9  9  9  9  9  9  9  9  9  9  9  9  9  9  9  9  9  9  9
CENTRE ASSIGNMENTS    9  9  9 10 10 10 10 10 10 10 10 10 10 10 10 10 10 10 10 10
CENTRE ASSIGNMENTS   10 10 10 10 10 10 10 10 10 10 10 10 10 10 10 10 10 10 10 10
CENTRE ASSIGNMENTS   10 10 10 10 10 10 10 10 10 10 10 10 10 10 10 10 10 10 10 10
CENTRE ASSIGNMENTS   10 10 10 10 10 10 10 10 10 10 10 10 10 10 10 10 10 10 11 11
CENTRE ASSIGNMENTS   11 11 11 11 11 11 11 11 11 11 11 11 11 11 11 11 11 11 11 11
CENTRE ASSIGNMENTS   11 11 11 11 11 11 11 11 11 11 11 11 11 11 11 11 11 11 11 11
CENTRE ASSIGNMENTS   11 11 11 11 11 11 11 11 11 11 11 11 11 11 11 11 11 11 11 11
CENTRE ASSIGNMENTS   11 11 11 11 11 11 11 11 11 11 11 11 11 12 12 12 12 12 12 12
CENTRE ASSIGNMENTS   12 12 12 12 12 12 12 12 12 12 12 12 12 12 12 12 12 12 12 12
CENTRE ASSIGNMENTS   12 12 12 12 12 12 12 12 12 12 12 12 12 12 12 12 12 12 12 12
CENTRE ASSIGNMENTS   12 12 12 12 12 12 12 12 12 12 12 12 12 12 12 12 12 12 12 12
CENTRE ASSIGNMENTS   12 12 12 12 12 12 12 12
TYPE ASSIGNMENTS      1  1  1  1  1  1  2  3  4  2  3  4  2  3  4  5  6  7  8  9
TYPE ASSIGNMENTS     10  5  6  7  8  9 10  1  1  1  1  1  1  2  3  4  2  3  4  2
TYPE ASSIGNMENTS      3  4  5  6  7  8  9 10  5  6  7  8  9 10  1  1  1  1  1  1
TYPE ASSIGNMENTS      2  3  4  2  3  4  2  3  4  5  6  7  8  9 10  5  6  7  8  9
TYPE ASSIGNMENTS     10  1  1  1  1  1  1  2  3  4  2  3  4  2  3  4  5  6  7  8
TYPE ASSIGNMENTS      9 10  5  6  7  8  9 10  1  1  1  1  1  1  1  1  1  1  1  1
TYPE ASSIGNMENTS      1  1  1  1  1  1  1  2  2  2  3  3  3  4  4  4  2  3  4  2
TYPE ASSIGNMENTS      3  4  2  3  4  5  6  7  8  9 10  5  6  7  8  9 10  5  6  7
TYPE ASSIGNMENTS      8  9 10 11 12 13 17 14 15 18 19 16 20 11 12 13 17 14 15 18
TYPE ASSIGNMENTS     19 16 20  1  1  1  1  1  1  1  1  1  1  1  1  1  1  1  1  1
TYPE ASSIGNMENTS      1  1  2  2  2  3  3  3  4  4  4  2  3  4  2  3  4  2  3  4
TYPE ASSIGNMENTS      5  6  7  8  9 10  5  6  7  8  9 10  5  6  7  8  9 10 11 12
TYPE ASSIGNMENTS     13 17 14 15 18 19 16 20 11 12 13 17 14 15 18 19 16 20  1  1
TYPE ASSIGNMENTS      1  1  1  1  1  1  1  1  1  1  1  1  1  1  1  1  1  2  2  2
TYPE ASSIGNMENTS      3  3  3  4  4  4  2  3  4  2  3  4  2  3  4  5  6  7  8  9
TYPE ASSIGNMENTS     10  5  6  7  8  9 10  5  6  7  8  9 10 11 12 13 17 14 15 18
TYPE ASSIGNMENTS     19 16 20 11 12 13 17 14 15 18 19 16 20  1  1  1  1  1  1  1
TYPE ASSIGNMENTS      1  1  1  1  1  1  1  1  1  1  1  1  2  2  2  3  3  3  4  4
TYPE ASSIGNMENTS      4  2  3  4  2  3  4  2  3  4  5  6  7  8  9 10  5  6  7  8
TYPE ASSIGNMENTS      9 10  5  6  7  8  9 10 11 12 13 17 14 15 18 19 16 20 11 12
TYPE ASSIGNMENTS     13 17 14 15 18 19 16 20  1  1  1  1  1  1  1  1  1  1  1  1
TYPE ASSIGNMENTS      1  1  1  1  1  1  1  2  2  2  3  3  3  4  4  4  2  3  4  2
TYPE ASSIGNMENTS      3  4  2  3  4  5  6  7  8  9 10  5  6  7  8  9 10  5  6  7
TYPE ASSIGNMENTS      8  9 10 11 12 13 17 14 15 18 19 16 20 11 12 13 17 14 15 18
TYPE ASSIGNMENTS     19 16 20  1  1  1  1  1  1  1  1  1  1  1  1  1  1  1  1  1
TYPE ASSIGNMENTS      1  1  2  2  2  3  3  3  4  4  4  2  3  4  2  3  4  2  3  4
TYPE ASSIGNMENTS      5  6  7  8  9 10  5  6  7  8  9 10  5  6  7  8  9 10 11 12
TYPE ASSIGNMENTS     13 17 14 15 18 19 16 20 11 12 13 17 14 15 18 19 16 20  1  1
TYPE ASSIGNMENTS      1  1  1  1  1  1  1  1  1  1  1  1  1  1  1  1  1  2  2  2
TYPE ASSIGNMENTS      3  3  3  4  4  4  2  3  4  2  3  4  2  3  4  5  6  7  8  9
TYPE ASSIGNMENTS     10  5  6  7  8  9 10  5  6  7  8  9 10 11 12 13 17 14 15 18
TYPE ASSIGNMENTS     19 16 20 11 12 13 17 14 15 18 19 16 20  1  1  1  1  1  1  1
TYPE ASSIGNMENTS      1  1  1  1  1  1  1  1  1  1  1  1  2  2  2  3  3  3  4  4
TYPE ASSIGNMENTS      4  2  3  4  2  3  4  2  3  4  5  6  7  8  9 10  5  6  7  8
TYPE ASSIGNMENTS      9 10  5  6  7  8  9 10 11 12 13 17 14 15 18 19 16 20 11 12
TYPE ASSIGNMENTS     13 17 14 15 18 19 16 20
EXPONENTS  0.3387000D+02 0.5095000D+01 0.1159000D+01 0.3258000D+00 0.1027000D+00
EXPONENTS  0.2526000D-01 0.1407000D+01 0.1407000D+01 0.1407000D+01 0.3880000D+00
EXPONENTS  0.3880000D+00 0.3880000D+00 0.1020000D+00 0.1020000D+00 0.1020000D+00
EXPONENTS  0.1057000D+01 0.1057000D+01 0.1057000D+01 0.1057000D+01 0.1057000D+01
EXPONENTS  0.1057000D+01 0.2470000D+00 0.2470000D+00 0.2470000D+00 0.2470000D+00
EXPONENTS  0.2470000D+00 0.2470000D+00 0.3387000D+02 0.5095000D+01 0.1159000D+01
EXPONENTS  0.3258000D+00 0.1027000D+00 0.2526000D-01 0.1407000D+01 0.1407000D+01
EXPONENTS  0.1407000D+01 0.3880000D+00 0.3880000D+00 0.3880000D+00 0.1020000D+00
EXPONENTS  0.1020000D+00 0.1020000D+00 0.1057000D+01 0.1057000D+01 0.1057000D+01
EXPONENTS  0.1057000D+01 0.1057000D+01 0.1057000D+01 0.2470000D+00 0.2470000D+00
EXPONENTS  0.2470000D+00 0.2470000D+00 0.2470000D+00 0.2470000D+00 0.3387000D+02
EXPONENTS  0.5095000D+01 0.1159000D+01 0.3258000D+00 0.1027000D+00 0.2526000D-01
EXPONENTS  0.1407000D+01 0.1407000D+01 0.1407000D+01 0.3880000D+00 0.3880000D+00
EXPONENTS  0.3880000D+00 0.1020000D+00 0.1020000D+00 0.1020000D+00 0.1057000D+01
EXPONENTS  0.1057000D+01 0.1057000D+01 0.1057000D+01 0.1057000D+01 0.1057000D+01
EXPONENTS  0.2470000D+00 0.2470000D+00 0.2470000D+00 0.2470000D+00 0.2470000D+00
EXPONENTS  0.2470000D+00 0.3387000D+02 0.5095000D+01 0.1159000D+01 0.3258000D+00
EXPONENTS  0.1027000D+00 0.2526000D-01 0.1407000D+01 0.1407000D+01 0.1407000D+01
EXPONENTS  0.3880000D+00 0.3880000D+00 0.3880000D+00 0.1020000D+00 0.1020000D+00
EXPONENTS  0.1020000D+00 0.1057000D+01 0.1057000D+01 0.1057000D+01 0.1057000D+01
EXPONENTS  0.1057000D+01 0.1057000D+01 0.2470000D+00 0.2470000D+00 0.2470000D+00
EXPONENTS  0.2470000D+00 0.2470000D+00 0.2470000D+00 0.8236000D+04 0.1235000D+04
EXPONENTS  0.2808000D+03 0.7927000D+02 0.2559000D+02 0.8997000D+01 0.3319000D+01
EXPONENTS  0.3643000D+00 0.8236000D+04 0.1235000D+04 0.2808000D+03 0.7927000D+02
EXPONENTS  0.2559000D+02 0.8997000D+01 0.3319000D+01 0.3643000D+00 0.9059000D+00
EXPONENTS  0.1285000D+00 0.4402000D-01 0.1871000D+02 0.4133000D+01 0.1200000D+01
EXPONENTS  0.1871000D+02 0.4133000D+01 0.1200000D+01 0.1871000D+02 0.4133000D+01
EXPONENTS  0.1200000D+01 0.3827000D+00 0.3827000D+00 0.3827000D+00 0.1209000D+00
EXPONENTS  0.1209000D+00 0.1209000D+00 0.3569000D-01 0.3569000D-01 0.3569000D-01
EXPONENTS  0.1097000D+01 0.1097000D+01 0.1097000D+01 0.1097000D+01 0.1097000D+01
EXPONENTS  0.1097000D+01 0.3180000D+00 0.3180000D+00 0.3180000D+00 0.3180000D+00
EXPONENTS  0.3180000D+00 0.3180000D+00 0.1000000D+00 0.1000000D+00 0.1000000D+00
EXPONENTS  0.1000000D+00 0.1000000D+00 0.1000000D+00 0.7610000D+00 0.7610000D+00
EXPONENTS  0.7610000D+00 0.7610000D+00 0.7610000D+00 0.7610000D+00 0.7610000D+00
EXPONENTS  0.7610000D+00 0.7610000D+00 0.7610000D+00 0.2680000D+00 0.2680000D+00
EXPONENTS  0.2680000D+00 0.2680000D+00 0.2680000D+00 0.2680000D+00 0.2680000D+00
EXPONENTS  0.2680000D+00 0.2680000D+00 0.2680000D+00 0.8236000D+04 0.1235000D+04
EXPONENTS  0.2808000D+03 0.7927000D+02 0.2559000D+02 0.8997000D+01 0.3319000D+01
EXPONENTS  0.3643000D+00 0.8236000D+04 0.1235000D+04 0.2808000D+03 0.7927000D+02
EXPONENTS  0.2559000D+02 0.8997000D+01 0.3319000D+01 0.3643000D+00 0.9059000D+00
EXPONENTS  0.1285000D+00 0.4402000D-01 0.1871000D+02 0.4133000D+01 0.1200000D+01
EXPONENTS  0.1871000D+02 0.4133000D+01 0.1200000D+01 0.1871000D+02 0.4133000D+01
EXPONENTS  0.1200000D+01 0.3827000D+00 0.3827000D+00 0.3827000D+00 0.1209000D+00
EXPONENTS  0.1209000D+00 0.1209000D+00 0.3569000D-01 0.3569000D-01 0.3569000D-01
EXPONENTS  0.1097000D+01 0.1097000D+01 0.1097000D+01 0.1097000D+01 0.1097000D+01
EXPONENTS  0.1097000D+01 0.3180000D+00 0.3180000D+00 0.3180000D+00 0.3180000D+00
EXPONENTS  0.3180000D+00 0.3180000D+00 0.1000000D+00 0.1000000D+00 0.1000000D+00
EXPONENTS  0.1000000D+00 0.1000000D+00 0.1000000D+00 0.7610000D+00 0.7610000D+00
EXPONENTS  0.7610000D+00 0.7610000D+00 0.7610000D+00 0.7610000D+00 0.7610000D+00
EXPONENTS  0.7610000D+00 0.7610000D+00 0.7610000D+00 0.2680000D+00 0.2680000D+00
EXPONENTS  0.2680000D+00 0.2680000D+00 0.2680000D+00 0.2680000D+00 0.2680000D+00
EXPONENTS  0.2680000D+00 0.2680000D+00 0.2680000D+00 0.8236000D+04 0.1235000D+04
EXPONENTS  0.2808000D+03 0.7927000D+02 0.2559000D+02 0.8997000D+01 0.3319000D+01
EXPONENTS  0.3643000D+00 0.8236000D+04 0.1235000D+04 0.2808000D+03 0.7927000D+02
EXPONENTS  0.2559000D+02 0.8997000D+01 0.3319000D+01 0.3643000D+00 0.9059000D+00
EXPONENTS  0.1285000D+00 0.4402000D-01 0.1871000D+02 0.4133000D+01 0.1200000D+01
EXPONENTS  0.1871000D+02 0.4133000D+01 0.1200000D+01 0.1871000D+02 0.4133000D+01
EXPONENTS  0.1200000D+01 0.3827000D+00 0.3827000D+00 0.3827000D+00 0.1209000D+00
EXPONENTS  0.1209000D+00 0.1209000D+00 0.3569000D-01 0.3569000D-01 0.3569000D-01
EXPONENTS  0.1097000D+01 0.1097000D+01 0.1097000D+01 0.1097000D+01 0.1097000D+01
EXPONENTS  0.1097000D+01 0.3180000D+00 0.3180000D+00 0.3180000D+00 0.3180000D+00
EXPONENTS  0.3180000D+00 0.3180000D+00 0.1000000D+00 0.1000000D+00 0.1000000D+00
EXPONENTS  0.1000000D+00 0.1000000D+00 0.1000000D+00 0.7610000D+00 0.7610000D+00
EXPONENTS  0.7610000D+00 0.7610000D+00 0.7610000D+00 0.7610000D+00 0.7610000D+00
EXPONENTS  0.7610000D+00 0.7610000D+00 0.7610000D+00 0.2680000D+00 0.2680000D+00
EXPONENTS  0.2680000D+00 0.2680000D+00 0.2680000D+00 0.2680000D+00 0.2680000D+00
EXPONENTS  0.2680000D+00 0.2680000D+00 0.2680000D+00 0.8236000D+04 0.1235000D+04
EXPONENTS  0.2808000D+03 0.7927000D+02 0.2559000D+02 0.8997000D+01 0.3319000D+01
EXPONENTS  0.3643000D+00 0.8236000D+04 0.1235000D+04 0.2808000D+03 0.7927000D+02
EXPONENTS  0.2559000D+02 0.8997000D+01 0.3319000D+01 0.3643000D+00 0.9059000D+00
EXPONENTS  0.1285000D+00 0.4402000D-01 0.1871000D+02 0.4133000D+01 0.1200000D+01
EXPONENTS  0.1871000D+02 0.4133000D+01 0.1200000D+01 0.1871000D+02 0.4133000D+01
EXPONENTS  0.1200000D+01 0.3827000D+00 0.3827000D+00 0.3827000D+00 0.1209000D+00
EXPONENTS  0.1209000D+00 0.1209000D+00 0.3569000D-01 0.3569000D-01 0.3569000D-01
EXPONENTS  0.1097000D+01 0.1097000D+01 0.1097000D+01 0.1097000D+01 0.1097000D+01
EXPONENTS  0.1097000D+01 0.3180000D+00 0.3180000D+00 0.3180000D+00 0.3180000D+00
EXPONENTS  0.3180000D+00 0.3180000D+00 0.1000000D+00 0.1000000D+00 0.1000000D+00
EXPONENTS  0.1000000D+00 0.1000000D+00 0.1000000D+00 0.7610000D+00 0.7610000D+00
EXPONENTS  0.7610000D+00 0.7610000D+00 0.7610000D+00 0.7610000D+00 0.7610000D+00
EXPONENTS  0.7610000D+00 0.7610000D+00 0.7610000D+00 0.2680000D+00 0.2680000D+00
EXPONENTS  0.2680000D+00 0.2680000D+00 0.2680000D+00 0.2680000D+00 0.2680000D+00
EXPONENTS  0.2680000D+00 0.2680000D+00 0.2680000D+00 0.8236000D+04 0.1235000D+04
EXPONENTS  0.2808000D+03 0.7927000D+02 0.2559000D+02 0.8997000D+01 0.3319000D+01
EXPONENTS  0.3643000D+00 0.8236000D+04 0.1235000D+04 0.2808000D+03 0.7927000D+02
EXPONENTS  0.2559000D+02 0.8997000D+01 0.3319000D+01 0.3643000D+00 0.9059000D+00
EXPONENTS  0.1285000D+00 0.4402000D-01 0.1871000D+02 0.4133000D+01 0.1200000D+01
EXPONENTS  0.1871000D+02 0.4133000D+01 0.1200000D+01 0.1871000D+02 0.4133000D+01
EXPONENTS  0.1200000D+01 0.3827000D+00 0.3827000D+00 0.3827000D+00 0.1209000D+00
EXPONENTS  0.1209000D+00 0.1209000D+00 0.3569000D-01 0.3569000D-01 0.3569000D-01
EXPONENTS  0.1097000D+01 0.1097000D+01 0.1097000D+01 0.1097000D+01 0.1097000D+01
EXPONENTS  0.1097000D+01 0.3180000D+00 0.3180000D+00 0.3180000D+00 0.3180000D+00
EXPONENTS  0.3180000D+00 0.3180000D+00 0.1000000D+00 0.1000000D+00 0.1000000D+00
EXPONENTS  0.1000000D+00 0.1000000D+00 0.1000000D+00 0.7610000D+00 0.7610000D+00
EXPONENTS  0.7610000D+00 0.7610000D+00 0.7610000D+00 0.7610000D+00 0.7610000D+00
EXPONENTS  0.7610000D+00 0.7610000D+00 0.7610000D+00 0.2680000D+00 0.2680000D+00
EXPONENTS  0.2680000D+00 0.2680000D+00 0.2680000D+00 0.2680000D+00 0.2680000D+00
EXPONENTS  0.2680000D+00 0.2680000D+00 0.2680000D+00 0.8236000D+04 0.1235000D+04
EXPONENTS  0.2808000D+03 0.7927000D+02 0.2559000D+02 0.8997000D+01 0.3319000D+01
EXPONENTS  0.3643000D+00 0.8236000D+04 0.1235000D+04 0.2808000D+03 0.7927000D+02
EXPONENTS  0.2559000D+02 0.8997000D+01 0.3319000D+01 0.3643000D+00 0.9059000D+00
EXPONENTS  0.1285000D+00 0.4402000D-01 0.1871000D+02 0.4133000D+01 0.1200000D+01
EXPONENTS  0.1871000D+02 0.4133000D+01 0.1200000D+01 0.1871000D+02 0.4133000D+01
EXPONENTS  0.1200000D+01 0.3827000D+00 0.3827000D+00 0.3827000D+00 0.1209000D+00
EXPONENTS  0.1209000D+00 0.1209000D+00 0.3569000D-01 0.3569000D-01 0.3569000D-01
EXPONENTS  0.1097000D+01 0.1097000D+01 0.1097000D+01 0.1097000D+01 0.1097000D+01
EXPONENTS  0.1097000D+01 0.3180000D+00 0.3180000D+00 0.3180000D+00 0.3180000D+00
EXPONENTS  0.3180000D+00 0.3180000D+00 0.1000000D+00 0.1000000D+00 0.1000000D+00
EXPONENTS  0.1000000D+00 0.1000000D+00 0.1000000D+00 0.7610000D+00 0.7610000D+00
EXPONENTS  0.7610000D+00 0.7610000D+00 0.7610000D+00 0.7610000D+00 0.7610000D+00
EXPONENTS  0.7610000D+00 0.7610000D+00 0.7610000D+00 0.2680000D+00 0.2680000D+00
EXPONENTS  0.2680000D+00 0.2680000D+00 0.2680000D+00 0.2680000D+00 0.2680000D+00
EXPONENTS  0.2680000D+00 0.2680000D+00 0.2680000D+00 0.1533000D+05 0.2299000D+04
EXPONENTS  0.5224000D+03 0.1473000D+03 0.4755000D+02 0.1676000D+02 0.6207000D+01
EXPONENTS  0.6882000D+00 0.1533000D+05 0.2299000D+04 0.5224000D+03 0.1473000D+03
EXPONENTS  0.4755000D+02 0.1676000D+02 0.6207000D+01 0.6882000D+00 0.1752000D+01
EXPONENTS  0.2384000D+00 0.7376000D-01 0.3446000D+02 0.7749000D+01 0.2280000D+01
EXPONENTS  0.3446000D+02 0.7749000D+01 0.2280000D+01 0.3446000D+02 0.7749000D+01
EXPONENTS  0.2280000D+01 0.7156000D+00 0.7156000D+00 0.7156000D+00 0.2140000D+00
EXPONENTS  0.2140000D+00 0.2140000D+00 0.5974000D-01 0.5974000D-01 0.5974000D-01
EXPONENTS  0.2314000D+01 0.2314000D+01 0.2314000D+01 0.2314000D+01 0.2314000D+01
EXPONENTS  0.2314000D+01 0.6450000D+00 0.6450000D+00 0.6450000D+00 0.6450000D+00
EXPONENTS  0.6450000D+00 0.6450000D+00 0.2140000D+00 0.2140000D+00 0.2140000D+00
EXPONENTS  0.2140000D+00 0.2140000D+00 0.2140000D+00 0.1428000D+01 0.1428000D+01
EXPONENTS  0.1428000D+01 0.1428000D+01 0.1428000D+01 0.1428000D+01 0.1428000D+01
EXPONENTS  0.1428000D+01 0.1428000D+01 0.1428000D+01 0.5000000D+00 0.5000000D+00
EXPONENTS  0.5000000D+00 0.5000000D+00 0.5000000D+00 0.5000000D+00 0.5000000D+00
EXPONENTS  0.5000000D+00 0.5000000D+00 0.5000000D+00 0.1533000D+05 0.2299000D+04
EXPONENTS  0.5224000D+03 0.1473000D+03 0.4755000D+02 0.1676000D+02 0.6207000D+01
EXPONENTS  0.6882000D+00 0.1533000D+05 0.2299000D+04 0.5224000D+03 0.1473000D+03
EXPONENTS  0.4755000D+02 0.1676000D+02 0.6207000D+01 0.6882000D+00 0.1752000D+01
EXPONENTS  0.2384000D+00 0.7376000D-01 0.3446000D+02 0.7749000D+01 0.2280000D+01
EXPONENTS  0.3446000D+02 0.7749000D+01 0.2280000D+01 0.3446000D+02 0.7749000D+01
EXPONENTS  0.2280000D+01 0.7156000D+00 0.7156000D+00 0.7156000D+00 0.2140000D+00
EXPONENTS  0.2140000D+00 0.2140000D+00 0.5974000D-01 0.5974000D-01 0.5974000D-01
EXPONENTS  0.2314000D+01 0.2314000D+01 0.2314000D+01 0.2314000D+01 0.2314000D+01
EXPONENTS  0.2314000D+01 0.6450000D+00 0.6450000D+00 0.6450000D+00 0.6450000D+00
EXPONENTS  0.6450000D+00 0.6450000D+00 0.2140000D+00 0.2140000D+00 0.2140000D+00
EXPONENTS  0.2140000D+00 0.2140000D+00 0.2140000D+00 0.1428000D+01 0.1428000D+01
EXPONENTS  0.1428000D+01 0.1428000D+01 0.1428000D+01 0.1428000D+01 0.1428000D+01
EXPONENTS  0.1428000D+01 0.1428000D+01 0.1428000D+01 0.5000000D+00 0.5000000D+00
EXPONENTS  0.5000000D+00 0.5000000D+00 0.5000000D+00 0.5000000D+00 0.5000000D+00
EXPONENTS  0.5000000D+00 0.5000000D+00 0.5000000D+00
MO    1     MO 0.0        OCC NO =    2.0000000  ORB. ENERGY =  -19.230692
 -0.51353440D-04 -0.92618044D-04 -0.13656525D-03 -0.16402493D-02 -0.35355524D-02
  0.18616639D-04 -0.13983897D-16 -0.16215598D-04  0.61657884D-04  0.39558796D-16
  0.18820960D-03 -0.54142117D-03 -0.88618752D-17  0.27240771D-03  0.14152907D-03
 -0.26432081D-03  0.17979419D-03  0.84526621D-04 -0.13862201D-15  0.10652345D-15
  0.11774689D-03 -0.80888545D-04 -0.37621085D-05  0.84650653D-04  0.23088294D-17
 -0.30851975D-16  0.82125966D-04 -0.51353440D-04 -0.92618044D-04 -0.13656525D-03
 -0.16402493D-02 -0.35355524D-02  0.18616639D-04 -0.12276547D-18  0.16215598D-04
  0.61657884D-04  0.37842367D-18 -0.18820960D-03 -0.54142117D-03 -0.14973088D-18
 -0.27240771D-03  0.14152907D-03 -0.26432081D-03  0.17979419D-03  0.84526621D-04
  0.28692367D-18 -0.67130662D-20 -0.11774689D-03 -0.80888545D-04 -0.37621085D-05
  0.84650653D-04 -0.22889346D-18  0.16285558D-18 -0.82125966D-04 -0.51353453D-04
 -0.92618067D-04 -0.13656529D-03 -0.16402492D-02 -0.35355546D-02  0.18616660D-04
 -0.20448133D-17 -0.16215576D-04 -0.61657900D-04  0.16101479D-17  0.18820941D-03
  0.54142128D-03  0.13028055D-17  0.27240787D-03 -0.14152919D-03 -0.26432087D-03
  0.17979423D-03  0.84526637D-04 -0.87344980D-18  0.18936854D-17 -0.11774692D-03
 -0.80888569D-04 -0.37620926D-05  0.84650662D-04 -0.45449829D-18 -0.43988211D-18
 -0.82125975D-04 -0.51353453D-04 -0.92618067D-04 -0.13656529D-03 -0.16402492D-02
 -0.35355546D-02  0.18616660D-04 -0.42688359D-18  0.16215576D-04 -0.61657900D-04
 -0.17248203D-18 -0.18820941D-03  0.54142128D-03 -0.89349408D-18 -0.27240787D-03
 -0.14152919D-03 -0.26432087D-03  0.17979423D-03  0.84526637D-04 -0.29249598D-18
  0.34744317D-18  0.11774692D-03 -0.80888569D-04 -0.37620926D-05  0.84650662D-04
 -0.82897943D-19  0.17047795D-18  0.82125975D-04  0.41414784D-03  0.77206574D-03
  0.13049271D-02  0.19617329D-02  0.24102155D-02  0.20358123D-02  0.76783350D-03
 -0.38000508D-05 -0.32004545D-03 -0.59922607D-03 -0.10202337D-02 -0.15781463D-02
 -0.20783632D-02 -0.21595525D-02 -0.13722987D-02  0.91968265D-03  0.87841577D-03
  0.41534226D-02 -0.19203141D-02  0.16503808D-17  0.15473369D-17  0.11017960D-17
  0.41424180D-14  0.38837802D-14  0.27654829D-14  0.24269764D-03  0.22754446D-03
  0.16202521D-03 -0.23243453D-17  0.11177021D-13  0.37349886D-02 -0.10612024D-17
  0.14251086D-12 -0.85101537D-04  0.83546561D-19 -0.20943499D-13  0.80183832D-04
 -0.35648435D-03 -0.82897718D-03  0.11854615D-02  0.36816162D-17 -0.29112399D-17
 -0.18413024D-14  0.10679975D-03  0.83826219D-03 -0.94506194D-03 -0.47150691D-17
  0.47600513D-17  0.40226280D-13  0.68044976D-04  0.52131213D-03 -0.58935710D-03
 -0.16088031D-17  0.12124726D-17 -0.29437908D-13  0.83129961D-18  0.28114859D-14
 -0.73671883D-04 -0.26674346D-18  0.48112239D-14 -0.13697157D-03 -0.22271554D-17
 -0.13245682D-13  0.35798722D-03 -0.87792757D-18  0.70764457D-19  0.13818717D-14
 -0.51112376D-03 -0.36285116D-17  0.63390902D-14  0.26004485D-03  0.34162182D-17
 -0.10484705D-13  0.12733264D-02  0.98299950D-18  0.41414797D-03  0.77206597D-03
  0.13049275D-02  0.19617335D-02  0.24102162D-02  0.20358129D-02  0.76783373D-03
 -0.38000520D-05 -0.32004555D-03 -0.59922625D-03 -0.10202340D-02 -0.15781468D-02
 -0.20783638D-02 -0.21595531D-02 -0.13722991D-02  0.91968293D-03  0.87841602D-03
  0.41534236D-02 -0.19203150D-02  0.11236754D-17  0.10535171D-17  0.75016696D-18
 -0.19431947D-13 -0.18218686D-13 -0.12972789D-13 -0.24269774D-03 -0.22754456D-03
 -0.16202528D-03 -0.31186932D-18  0.26222949D-13 -0.37349898D-02  0.16453127D-17
  0.26106055D-13  0.85101368D-04  0.64181536D-19  0.13654017D-13 -0.80183848D-04
 -0.35648452D-03 -0.82897742D-03  0.11854619D-02 -0.46707609D-18 -0.15683199D-17
  0.72162706D-14  0.10679981D-03  0.83826220D-03 -0.94506202D-03 -0.11639586D-18
  0.64394892D-18  0.41504395D-13  0.68045021D-04  0.52131234D-03 -0.58935736D-03
  0.12977527D-17  0.36741594D-18  0.19868826D-14  0.18969219D-18 -0.28446241D-14
  0.73671883D-04 -0.46300030D-18 -0.48660113D-14  0.13697162D-03 -0.10607626D-18
  0.13399883D-13 -0.35798727D-03  0.87562686D-18  0.15401706D-19  0.25935407D-14
  0.51112389D-03  0.45520541D-18 -0.10943942D-13 -0.26004492D-03 -0.50141053D-18
  0.31633198D-14 -0.12733267D-02 -0.14498142D-17  0.73295839D-05  0.13664011D-04
  0.23094586D-04  0.34718727D-04  0.42655968D-04  0.36029784D-04  0.13589109D-04
 -0.67253258D-07  0.38669878D-07  0.72402212D-07  0.12327096D-06  0.19068143D-06
  0.25112074D-06  0.26093053D-06  0.16580964D-06 -0.11112176D-06 -0.28752753D-03
  0.56821604D-03  0.77676722D-03 -0.64008547D-18 -0.60012082D-18 -0.42732177D-18
  0.29105763D-03  0.27288503D-03  0.19431040D-03 -0.28222204D-04 -0.26460110D-04
 -0.18841175D-04  0.13586575D-17 -0.22441412D-02  0.10225955D-02  0.42826545D-17
  0.16260199D-02 -0.14073199D-02  0.14940909D-18 -0.42757388D-04 -0.26629438D-04
 -0.22368049D-04 -0.14221420D-03  0.16458225D-03  0.47098307D-17  0.74386248D-17
 -0.26143297D-03 -0.13298195D-03  0.36691855D-03 -0.23393660D-03 -0.60954109D-17
 -0.33359172D-18  0.47229596D-03 -0.30168030D-04  0.17669412D-03 -0.14652609D-03
 -0.52228678D-18  0.44215455D-18  0.52943491D-03 -0.28105114D-17  0.21600567D-04
  0.11963147D-04  0.61860465D-17  0.16533517D-03 -0.58985759D-05  0.22454876D-17
 -0.23013687D-03 -0.29990866D-04  0.32229106D-17  0.16429235D-18 -0.22708575D-03
 -0.25910243D-03 -0.19813003D-17 -0.27580809D-03  0.15736096D-03  0.14884232D-17
  0.95706535D-03  0.61994634D-03 -0.74997325D-17  0.73295839D-05  0.13664011D-04
  0.23094586D-04  0.34718727D-04  0.42655968D-04  0.36029784D-04  0.13589109D-04
 -0.67253258D-07  0.38669881D-07  0.72402218D-07  0.12327097D-06  0.19068145D-06
  0.25112076D-06  0.26093055D-06  0.16580965D-06 -0.11112177D-06 -0.28752753D-03
  0.56821604D-03  0.77676722D-03 -0.20819575D-18 -0.19519675D-18 -0.13899171D-18
 -0.29105763D-03 -0.27288503D-03 -0.19431040D-03 -0.28222204D-04 -0.26460110D-04
 -0.18841175D-04  0.75221433D-18  0.22441412D-02  0.10225955D-02  0.25861303D-17
 -0.16260199D-02 -0.14073199D-02 -0.14772358D-18  0.42757388D-04 -0.26629438D-04
 -0.22368049D-04 -0.14221420D-03  0.16458225D-03  0.11811034D-17 -0.86583936D-18
  0.26143297D-03 -0.13298195D-03  0.36691855D-03 -0.23393660D-03 -0.48848069D-18
  0.26538633D-17 -0.47229596D-03 -0.30168030D-04  0.17669412D-03 -0.14652609D-03
 -0.26804966D-18 -0.11358412D-17 -0.52943491D-03  0.38382491D-19 -0.21600567D-04
  0.11963147D-04  0.13144233D-17 -0.16533517D-03 -0.58985759D-05 -0.14295708D-17
  0.23013687D-03 -0.29990866D-04  0.15468333D-17 -0.95270208D-19  0.22708575D-03
 -0.25910243D-03 -0.42680777D-18  0.27580809D-03  0.15736096D-03  0.71261840D-18
 -0.95706535D-03  0.61994634D-03  0.18256494D-17  0.73296290D-05  0.13664095D-04
  0.23094728D-04  0.34718940D-04  0.42656230D-04  0.36030005D-04  0.13589192D-04
 -0.67253671D-07  0.38636563D-07  0.72339837D-07  0.12316476D-06  0.19051716D-06
  0.25090440D-06  0.26070574D-06  0.16566679D-06 -0.11102603D-06 -0.28752742D-03
  0.56821615D-03  0.77676776D-03 -0.33467411D-18 -0.31377825D-18 -0.22342881D-18
  0.29105760D-03  0.27288500D-03  0.19431038D-03  0.28222268D-04  0.26460170D-04
  0.18841218D-04 -0.13997300D-17 -0.22441414D-02 -0.10225958D-02 -0.43432509D-17
  0.16260200D-02  0.14073199D-02 -0.29890801D-18 -0.42757430D-04  0.26629440D-04
 -0.22368046D-04 -0.14221420D-03  0.16458225D-03  0.40691922D-17  0.14839331D-17
  0.26143307D-03 -0.13298188D-03  0.36691861D-03 -0.23393673D-03 -0.43183995D-17
 -0.23387281D-17 -0.47229547D-03 -0.30168063D-04  0.17669423D-03 -0.14652617D-03
  0.65433877D-19  0.11533959D-17 -0.52943523D-03  0.16361219D-18  0.21600521D-04
 -0.11963156D-04 -0.82241994D-18  0.16533518D-03  0.58985794D-05  0.33158337D-18
 -0.23013674D-03  0.29990887D-04  0.24304888D-17  0.24013923D-18 -0.22708578D-03
  0.25910248D-03  0.27716203D-18 -0.27580811D-03 -0.15736096D-03 -0.99757972D-18
  0.95706546D-03 -0.61994649D-03 -0.24209189D-17  0.73296290D-05  0.13664095D-04
  0.23094728D-04  0.34718940D-04  0.42656230D-04  0.36030005D-04  0.13589192D-04
 -0.67253671D-07  0.38636563D-07  0.72339836D-07  0.12316476D-06  0.19051716D-06
  0.25090439D-06  0.26070574D-06  0.16566679D-06 -0.11102603D-06 -0.28752742D-03
  0.56821615D-03  0.77676776D-03  0.25631786D-18  0.24031429D-18  0.17111809D-18
 -0.29105760D-03 -0.27288500D-03 -0.19431038D-03  0.28222268D-04  0.26460170D-04
  0.18841218D-04 -0.40519990D-18  0.22441414D-02 -0.10225958D-02 -0.17296759D-17
 -0.16260200D-02  0.14073199D-02  0.19424348D-18  0.42757430D-04  0.26629440D-04
 -0.22368046D-04 -0.14221420D-03  0.16458225D-03 -0.93468395D-18  0.72142347D-18
 -0.26143307D-03 -0.13298188D-03  0.36691861D-03 -0.23393673D-03  0.60982702D-18
  0.72578960D-18  0.47229547D-03 -0.30168063D-04  0.17669423D-03 -0.14652617D-03
 -0.56077754D-19 -0.13524074D-17  0.52943523D-03 -0.19925753D-18 -0.21600521D-04
 -0.11963156D-04 -0.31238815D-18 -0.16533518D-03  0.58985794D-05  0.91016074D-18
  0.23013674D-03  0.29990887D-04  0.30537013D-18 -0.34470318D-19  0.22708578D-03
  0.25910248D-03  0.91998816D-20  0.27580811D-03 -0.15736096D-03  0.94211073D-19
 -0.95706546D-03 -0.61994649D-03  0.13029121D-17  0.35178305D+00  0.65567835D+00
  0.11118132D+01  0.16827811D+01  0.20996195D+01  0.18032931D+01  0.69231930D+00
 -0.30967867D-02 -0.15603436D-03 -0.29264632D-03 -0.49889781D-03 -0.77968017D-03
 -0.10425810D-02 -0.11132334D-02 -0.68060906D-03  0.44902452D-03  0.38586239D-01
  0.21358423D-02  0.25191335D-02 -0.10896899D-16 -0.10566327D-16 -0.71279818D-17
  0.25150701D-14  0.24387720D-14  0.16451812D-14 -0.57888478D-02 -0.56132351D-02
 -0.37866552D-02 -0.76254916D-18 -0.28102060D-14  0.25393484D-03 -0.63965908D-17
  0.12425067D-13  0.14207842D-02 -0.39756068D-18  0.98843616D-15 -0.15542525D-03
 -0.14000358D-02 -0.76596159D-03  0.21659974D-02 -0.65190658D-17 -0.26764835D-17
  0.96164736D-14  0.80871178D-03  0.23014410D-03 -0.10388559D-02  0.24148320D-17
  0.18549578D-17 -0.67320080D-14  0.26117569D-03  0.11203547D-03 -0.37321117D-03
  0.31625154D-18  0.21914959D-17 -0.21973492D-14 -0.75368266D-19 -0.42741168D-14
  0.15964003D-03 -0.18759380D-17  0.27029159D-14 -0.18764615D-03  0.21020428D-17
  0.10119435D-13 -0.29127394D-03 -0.33069318D-17 -0.12965950D-18  0.12211574D-14
  0.22172088D-03  0.77898170D-18 -0.25268913D-14 -0.53944650D-03 -0.39000320D-18
 -0.11365811D-14 -0.12571615D-03 -0.20177836D-18  0.35178317D+00  0.65567856D+00
  0.11118136D+01  0.16827817D+01  0.20996202D+01  0.18032937D+01  0.69231952D+00
 -0.30967877D-02 -0.15603438D-03 -0.29264635D-03 -0.49889787D-03 -0.77968026D-03
 -0.10425811D-02 -0.11132335D-02 -0.68060914D-03  0.44902457D-03  0.38586251D-01
  0.21358427D-02  0.25191345D-02  0.66023679D-17  0.64020759D-17  0.43188026D-17
 -0.32279271D-14 -0.31300035D-14 -0.21114819D-14  0.57888496D-02  0.56132369D-02
  0.37866564D-02 -0.34213039D-18  0.60076371D-14 -0.25393499D-03  0.10767008D-17
 -0.17842692D-13 -0.14207850D-02  0.34178709D-19  0.36233381D-14  0.15542531D-03
 -0.14000362D-02 -0.76596192D-03  0.21659981D-02  0.19733320D-17  0.13912921D-17
  0.37928275D-14  0.80871202D-03  0.23014424D-03 -0.10388563D-02 -0.10692073D-17
  0.36787529D-20 -0.36795283D-14  0.26117580D-03  0.11203553D-03 -0.37321133D-03
 -0.39726836D-18  0.48421308D-18 -0.93152270D-14 -0.18880079D-18  0.20167742D-14
 -0.15964007D-03 -0.12894134D-17 -0.16186393D-14  0.18764615D-03  0.18558158D-17
 -0.44316832D-14  0.29127407D-03  0.37350882D-17 -0.46201401D-20 -0.22510770D-15
 -0.22172097D-03  0.15246500D-18  0.36414286D-14  0.53944669D-03 -0.13860458D-18
 -0.29661055D-14  0.12571621D-03 -0.10076590D-17
MO    2     MO 0.0        OCC NO =    2.0000000  ORB. ENERGY =  -19.230689
 -0.39875493D-04 -0.71917095D-04 -0.10604171D-03  0.16117901D-03 -0.67850141D-02