 Molden2AIM, Version 4.0.0 (06/02/2016)           Time: Fri Jun 29 19:25:52 2018
GAUSSIAN             20 MOL ORBITALS    337 PRIMITIVES        3 NUCLEI
  C    1    (CENTRE  1)   0.00000000  0.00000000 -0.60856551  CHARGE =  6.0
  Cl   2    (CENTRE  2)  -2.65967425  0.00000000  1.28500243  CHARGE = 17.0
  Cl   3    (CENTRE  3)   2.65967425  0.00000000  1.28500243  CHARGE = 17.0
CENTRE ASSIGNMENTS    1  1  1  1  1  1  1  1  1  1  1  1  1  1  1  1  1  1  1  1
CENTRE ASSIGNMENTS    1  1  1  1  1  1  1  1  1  1  1  1  1  1  1  1  1  1  1  1
CENTRE ASSIGNMENTS    1  1  1  1  1  1  1  1  1  1  1  1  1  1  1  1  1  1  1  1
CENTRE ASSIGNMENTS    1  1  1  1  1  1  1  1  1  1  1  1  1  1  1  2  2  2  2  2
CENTRE ASSIGNMENTS    2  2  2  2  2  2  2  2  2  2  2  2  2  2  2  2  2  2  2  2
CENTRE ASSIGNMENTS    2  2  2  2  2  2  2  2  2  2  2  2  2  2  2  2  2  2  2  2
CENTRE ASSIGNMENTS    2  2  2  2  2  2  2  2  2  2  2  2  2  2  2  2  2  2  2  2
CENTRE ASSIGNMENTS    2  2  2  2  2  2  2  2  2  2  2  2  2  2  2  2  2  2  2  2
CENTRE ASSIGNMENTS    2  2  2  2  2  2  2  2  2  2  2  2  2  2  2  2  2  2  2  2
CENTRE ASSIGNMENTS    2  2  2  2  2  2  2  2  2  2  2  2  2  2  2  2  2  2  2  2
CENTRE ASSIGNMENTS    2  2  2  2  2  2  3  3  3  3  3  3  3  3  3  3  3  3  3  3
CENTRE ASSIGNMENTS    3  3  3  3  3  3  3  3  3  3  3  3  3  3  3  3  3  3  3  3
CENTRE ASSIGNMENTS    3  3  3  3  3  3  3  3  3  3  3  3  3  3  3  3  3  3  3  3
CENTRE ASSIGNMENTS    3  3  3  3  3  3  3  3  3  3  3  3  3  3  3  3  3  3  3  3
CENTRE ASSIGNMENTS    3  3  3  3  3  3  3  3  3  3  3  3  3  3  3  3  3  3  3  3
CENTRE ASSIGNMENTS    3  3  3  3  3  3  3  3  3  3  3  3  3  3  3  3  3  3  3  3
CENTRE ASSIGNMENTS    3  3  3  3  3  3  3  3  3  3  3  3  3  3  3  3  3
TYPE ASSIGNMENTS      1  1  1  1  1  1  1  1  1  1  1  1  1  1  1  1  1  1  1  2
TYPE ASSIGNMENTS      2  2  3  3  3  4  4  4  2  3  4  2  3  4  2  3  4  5  6  7
TYPE ASSIGNMENTS      8  9 10  5  6  7  8  9 10  5  6  7  8  9 10 11 12 13 17 14
TYPE ASSIGNMENTS     15 18 19 16 20 11 12 13 17 14 15 18 19 16 20  1  1  1  1  1
TYPE ASSIGNMENTS      1  1  1  1  1  1  1  1  1  1  1  1  1  1  1  1  1  1  1  1
TYPE ASSIGNMENTS      1  1  1  1  1  1  1  1  1  1  1  1  1  1  1  1  1  2  2  2
TYPE ASSIGNMENTS      2  2  2  2  3  3  3  3  3  3  3  4  4  4  4  4  4  4  2  2
TYPE ASSIGNMENTS      2  2  2  2  2  3  3  3  3  3  3  3  4  4  4  4  4  4  4  2
TYPE ASSIGNMENTS      3  4  2  3  4  2  3  4  5  6  7  8  9 10  5  6  7  8  9 10
TYPE ASSIGNMENTS      5  6  7  8  9 10 11 12 13 17 14 15 18 19 16 20 11 12 13 17
TYPE ASSIGNMENTS     14 15 18 19 16 20  1  1  1  1  1  1  1  1  1  1  1  1  1  1
TYPE ASSIGNMENTS      1  1  1  1  1  1  1  1  1  1  1  1  1  1  1  1  1  1  1  1
TYPE ASSIGNMENTS      1  1  1  1  1  1  1  1  2  2  2  2  2  2  2  3  3  3  3  3
TYPE ASSIGNMENTS      3  3  4  4  4  4  4  4  4  2  2  2  2  2  2  2  3  3  3  3
TYPE ASSIGNMENTS      3  3  3  4  4  4  4  4  4  4  2  3  4  2  3  4  2  3  4  5
TYPE ASSIGNMENTS      6  7  8  9 10  5  6  7  8  9 10  5  6  7  8  9 10 11 12 13
TYPE ASSIGNMENTS     17 14 15 18 19 16 20 11 12 13 17 14 15 18 19 16 20
EXPONENTS  0.8236000D+04 0.1235000D+04 0.2808000D+03 0.7927000D+02 0.2559000D+02
EXPONENTS  0.8997000D+01 0.3319000D+01 0.3643000D+00 0.8236000D+04 0.1235000D+04
EXPONENTS  0.2808000D+03 0.7927000D+02 0.2559000D+02 0.8997000D+01 0.3319000D+01
EXPONENTS  0.3643000D+00 0.9059000D+00 0.1285000D+00 0.4402000D-01 0.1871000D+02
EXPONENTS  0.4133000D+01 0.1200000D+01 0.1871000D+02 0.4133000D+01 0.1200000D+01
EXPONENTS  0.1871000D+02 0.4133000D+01 0.1200000D+01 0.3827000D+00 0.3827000D+00
EXPONENTS  0.3827000D+00 0.1209000D+00 0.1209000D+00 0.1209000D+00 0.3569000D-01
EXPONENTS  0.3569000D-01 0.3569000D-01 0.1097000D+01 0.1097000D+01 0.1097000D+01
EXPONENTS  0.1097000D+01 0.1097000D+01 0.1097000D+01 0.3180000D+00 0.3180000D+00
EXPONENTS  0.3180000D+00 0.3180000D+00 0.3180000D+00 0.3180000D+00 0.1000000D+00
EXPONENTS  0.1000000D+00 0.1000000D+00 0.1000000D+00 0.1000000D+00 0.1000000D+00
EXPONENTS  0.7610000D+00 0.7610000D+00 0.7610000D+00 0.7610000D+00 0.7610000D+00
EXPONENTS  0.7610000D+00 0.7610000D+00 0.7610000D+00 0.7610000D+00 0.7610000D+00
EXPONENTS  0.2680000D+00 0.2680000D+00 0.2680000D+00 0.2680000D+00 0.2680000D+00
EXPONENTS  0.2680000D+00 0.2680000D+00 0.2680000D+00 0.2680000D+00 0.2680000D+00
EXPONENTS  0.4561000D+06 0.6833000D+05 0.1555000D+05 0.4405000D+04 0.1439000D+04
EXPONENTS  0.5204000D+03 0.2031000D+03 0.8396000D+02 0.3620000D+02 0.1583000D+02
EXPONENTS  0.6334000D+01 0.2694000D+01 0.4313000D+00 0.4561000D+06 0.6833000D+05
EXPONENTS  0.1555000D+05 0.4405000D+04 0.1439000D+04 0.5204000D+03 0.2031000D+03
EXPONENTS  0.8396000D+02 0.3620000D+02 0.1583000D+02 0.6334000D+01 0.2694000D+01
EXPONENTS  0.4313000D+00 0.4561000D+06 0.6833000D+05 0.1555000D+05 0.4405000D+04
EXPONENTS  0.1439000D+04 0.5204000D+03 0.2031000D+03 0.8396000D+02 0.3620000D+02
EXPONENTS  0.1583000D+02 0.6334000D+01 0.2694000D+01 0.4313000D+00 0.9768000D+00
EXPONENTS  0.1625000D+00 0.5910000D-01 0.6633000D+03 0.1568000D+03 0.4998000D+02
EXPONENTS  0.1842000D+02 0.7240000D+01 0.2922000D+01 0.3818000D+00 0.6633000D+03
EXPONENTS  0.1568000D+03 0.4998000D+02 0.1842000D+02 0.7240000D+01 0.2922000D+01
EXPONENTS  0.3818000D+00 0.6633000D+03 0.1568000D+03 0.4998000D+02 0.1842000D+02
EXPONENTS  0.7240000D+01 0.2922000D+01 0.3818000D+00 0.6633000D+03 0.1568000D+03
EXPONENTS  0.4998000D+02 0.1842000D+02 0.7240000D+01 0.2922000D+01 0.3818000D+00
EXPONENTS  0.6633000D+03 0.1568000D+03 0.4998000D+02 0.1842000D+02 0.7240000D+01
EXPONENTS  0.2922000D+01 0.3818000D+00 0.6633000D+03 0.1568000D+03 0.4998000D+02
EXPONENTS  0.1842000D+02 0.7240000D+01 0.2922000D+01 0.3818000D+00 0.1022000D+01
EXPONENTS  0.1022000D+01 0.1022000D+01 0.1301000D+00 0.1301000D+00 0.1301000D+00
EXPONENTS  0.4190000D-01 0.4190000D-01 0.4190000D-01 0.1046000D+01 0.1046000D+01
EXPONENTS  0.1046000D+01 0.1046000D+01 0.1046000D+01 0.1046000D+01 0.3440000D+00
EXPONENTS  0.3440000D+00 0.3440000D+00 0.3440000D+00 0.3440000D+00 0.3440000D+00
EXPONENTS  0.1350000D+00 0.1350000D+00 0.1350000D+00 0.1350000D+00 0.1350000D+00
EXPONENTS  0.1350000D+00 0.7060000D+00 0.7060000D+00 0.7060000D+00 0.7060000D+00
EXPONENTS  0.7060000D+00 0.7060000D+00 0.7060000D+00 0.7060000D+00 0.7060000D+00
EXPONENTS  0.7060000D+00 0.3120000D+00 0.3120000D+00 0.3120000D+00 0.3120000D+00
EXPONENTS  0.3120000D+00 0.3120000D+00 0.3120000D+00 0.3120000D+00 0.3120000D+00
EXPONENTS  0.3120000D+00 0.4561000D+06 0.6833000D+05 0.1555000D+05 0.4405000D+04
EXPONENTS  0.1439000D+04 0.5204000D+03 0.2031000D+03 0.8396000D+02 0.3620000D+02
EXPONENTS  0.1583000D+02 0.6334000D+01 0.2694000D+01 0.4313000D+00 0.4561000D+06
EXPONENTS  0.6833000D+05 0.1555000D+05 0.4405000D+04 0.1439000D+04 0.5204000D+03
EXPONENTS  0.2031000D+03 0.8396000D+02 0.3620000D+02 0.1583000D+02 0.6334000D+01
EXPONENTS  0.2694000D+01 0.4313000D+00 0.4561000D+06 0.6833000D+05 0.1555000D+05
EXPONENTS  0.4405000D+04 0.1439000D+04 0.5204000D+03 0.2031000D+03 0.8396000D+02
EXPONENTS  0.3620000D+02 0.1583000D+02 0.6334000D+01 0.2694000D+01 0.4313000D+00
EXPONENTS  0.9768000D+00 0.1625000D+00 0.5910000D-01 0.6633000D+03 0.1568000D+03
EXPONENTS  0.4998000D+02 0.1842000D+02 0.7240000D+01 0.2922000D+01 0.3818000D+00
EXPONENTS  0.6633000D+03 0.1568000D+03 0.4998000D+02 0.1842000D+02 0.7240000D+01
EXPONENTS  0.2922000D+01 0.3818000D+00 0.6633000D+03 0.1568000D+03 0.4998000D+02
EXPONENTS  0.1842000D+02 0.7240000D+01 0.2922000D+01 0.3818000D+00 0.6633000D+03
EXPONENTS  0.1568000D+03 0.4998000D+02 0.1842000D+02 0.7240000D+01 0.2922000D+01
EXPONENTS  0.3818000D+00 0.6633000D+03 0.1568000D+03 0.4998000D+02 0.1842000D+02
EXPONENTS  0.7240000D+01 0.2922000D+01 0.3818000D+00 0.6633000D+03 0.1568000D+03
EXPONENTS  0.4998000D+02 0.1842000D+02 0.7240000D+01 0.2922000D+01 0.3818000D+00
EXPONENTS  0.1022000D+01 0.1022000D+01 0.1022000D+01 0.1301000D+00 0.1301000D+00
EXPONENTS  0.1301000D+00 0.4190000D-01 0.4190000D-01 0.4190000D-01 0.1046000D+01
EXPONENTS  0.1046000D+01 0.1046000D+01 0.1046000D+01 0.1046000D+01 0.1046000D+01
EXPONENTS  0.3440000D+00 0.3440000D+00 0.3440000D+00 0.3440000D+00 0.3440000D+00
EXPONENTS  0.3440000D+00 0.1350000D+00 0.1350000D+00 0.1350000D+00 0.1350000D+00
EXPONENTS  0.1350000D+00 0.1350000D+00 0.7060000D+00 0.7060000D+00 0.7060000D+00
EXPONENTS  0.7060000D+00 0.7060000D+00 0.7060000D+00 0.7060000D+00 0.7060000D+00
EXPONENTS  0.7060000D+00 0.7060000D+00 0.3120000D+00 0.3120000D+00 0.3120000D+00
EXPONENTS  0.3120000D+00 0.3120000D+00 0.3120000D+00 0.3120000D+00 0.3120000D+00
EXPONENTS  0.3120000D+00 0.3120000D+00
MO    1     MO 0.0        OCC NO =    2.0000000  ORB. ENERGY = -101.785446
 -0.15620396D-11 -0.29119969D-11 -0.49217877D-11 -0.73990591D-11 -0.90905991D-11
 -0.76784641D-11 -0.28960342D-11  0.14332635D-13  0.18704395D-12  0.35020529D-12
  0.59625447D-12  0.92231500D-12  0.12146564D-11  0.12621058D-11  0.80201159D-12
 -0.53748952D-12  0.15573137D-10  0.19709407D-09  0.22334495D-10  0.61658092D-04
  0.57808380D-04  0.41163010D-04 -0.90725766D-16 -0.85061173D-16 -0.60568622D-16
 -0.31017645D-12 -0.29081014D-12 -0.20707414D-12  0.17480692D-03  0.66191219D-16
  0.28192527D-10  0.44175663D-03 -0.16034797D-16  0.44111378D-10  0.11004642D-04
 -0.43017207D-21  0.10532440D-11  0.11639412D-10 -0.38610161D-11 -0.77783957D-11
  0.64958059D-18  0.14242528D-03 -0.17638101D-19 -0.40979547D-11  0.13052904D-12
  0.39674257D-11 -0.44787883D-18 -0.44183789D-04  0.24628498D-19  0.36117480D-12
 -0.14074363D-11  0.10462615D-11 -0.26894540D-19  0.37397680D-04  0.29745770D-19
 -0.33807969D-04 -0.40622870D-19  0.12578851D-11  0.97269096D-04  0.20702718D-18
 -0.10313963D-10  0.41548098D-05 -0.85158572D-19  0.65403078D-11 -0.65650319D-19
  0.19953118D-04  0.13550699D-19  0.29092853D-11  0.14306205D-04 -0.88754630D-19
 -0.12473490D-10 -0.74165560D-04  0.48102532D-19  0.37456338D-11 -0.23019337D-18
 -0.43641873D+00 -0.81654111D+00 -0.14108022D+01 -0.22870748D+01 -0.34731056D+01
 -0.48272083D+01 -0.57388543D+01 -0.51117300D+01 -0.25376159D+01 -0.40885057D+00
 -0.62769453D-02 -0.11216840D-02 -0.41915580D-04  0.64460044D-03  0.12040211D-02
  0.20896369D-02  0.33906315D-02  0.52482949D-02  0.75124574D-02  0.98061035D-02
  0.10450040D-01  0.78116167D-02  0.41236137D-03 -0.52986389D-02 -0.31480003D-02
  0.11802641D-04 -0.27673060D-03 -0.51647780D-03 -0.89759296D-03 -0.14547341D-02
 -0.22594299D-02 -0.32366985D-02 -0.42737588D-02 -0.46212009D-02 -0.36230815D-02
 -0.18028333D-03  0.31058968D-02  0.32151790D-02 -0.14549140D-02  0.17869946D-02
  0.85507413D-03  0.22718632D-03 -0.38324012D-02 -0.50481325D-02 -0.55692728D-02
 -0.46259212D-02 -0.24569391D-02 -0.63371627D-03  0.65143878D-06  0.45650818D-17
  0.60132373D-17  0.66340094D-17  0.55103074D-17  0.29266581D-17  0.75487050D-18
 -0.77598121D-21  0.78398936D-03  0.10326899D-02  0.11392989D-02  0.94631871D-03
  0.50261286D-03  0.12963852D-03 -0.13326399D-06  0.31747394D-02  0.41682001D-02
  0.47458024D-02  0.40185506D-02  0.23019805D-02  0.52362070D-03 -0.24508330D-03
  0.43985565D-18  0.57749823D-18  0.65752422D-18  0.55676450D-18  0.31893614D-18
  0.72546907D-19 -0.33955945D-19 -0.59459144D-03 -0.78065497D-03 -0.88883311D-03
 -0.75262737D-03 -0.43113394D-03 -0.98068013D-04  0.45901227D-04  0.16456919D-03
  0.53754490D-19  0.19531185D-05  0.31824837D-03 -0.17147566D-18 -0.22775835D-03
  0.79163966D-05 -0.37871624D-20 -0.47613239D-05 -0.71354083D-04  0.95712990D-04
 -0.24358907D-04  0.15148522D-18  0.17071959D-03 -0.42968158D-18 -0.10678263D-04
 -0.28901681D-04  0.39579943D-04 -0.80384222D-19 -0.61364993D-04  0.10296035D-18
  0.27694206D-04 -0.28500293D-04  0.80608680D-06 -0.99915794D-19 -0.73631671D-04
  0.42980871D-19 -0.31178742D-04  0.29312240D-19 -0.17303793D-04  0.11614257D-03
  0.10643111D-18  0.90945851D-04 -0.22606341D-04 -0.19436783D-18 -0.39034472D-04
 -0.25640307D-19  0.83058604D-05  0.27811638D-19  0.44633741D-05 -0.57515807D-04
 -0.17440539D-18 -0.40562963D-04  0.32598226D-04  0.90970474D-19  0.27172840D-04
  0.10178037D-18  0.43641888D+00  0.81654141D+00  0.14108027D+01  0.22870757D+01
  0.34731068D+01  0.48272101D+01  0.57388564D+01  0.51117319D+01  0.25376168D+01
  0.40885072D+00  0.62769476D-02  0.11216844D-02  0.41915595D-04 -0.64460065D-03
 -0.12040215D-02 -0.20896376D-02 -0.33906327D-02 -0.52482967D-02 -0.75124598D-02
 -0.98061067D-02 -0.10450043D-01 -0.78116193D-02 -0.41236151D-03  0.52986407D-02
  0.31480013D-02 -0.11802645D-04  0.27673069D-03  0.51647797D-03  0.89759325D-03
  0.14547346D-02  0.22594306D-02  0.32366995D-02  0.42737601D-02  0.46212024D-02
  0.36230826D-02  0.18028339D-03 -0.31058978D-02 -0.32151800D-02  0.14549145D-02
 -0.17869952D-02 -0.85507438D-03 -0.22718637D-03 -0.38324020D-02 -0.50481335D-02
 -0.55692738D-02 -0.46259221D-02 -0.24569396D-02 -0.63371639D-03  0.65143891D-06
  0.40986586D-18  0.53988532D-18  0.59561998D-18  0.49473086D-18  0.26276358D-18
  0.67774392D-19 -0.69669771D-22 -0.78399009D-03 -0.10326909D-02 -0.11393000D-02
 -0.94631960D-03 -0.50261333D-03 -0.12963864D-03  0.13326411D-06  0.31747400D-02
  0.41682008D-02  0.47458033D-02  0.40185513D-02  0.23019809D-02  0.52362079D-03
 -0.24508335D-03 -0.78483334D-17 -0.10304286D-16 -0.11732188D-16 -0.99343351D-17
 -0.56907696D-17 -0.12944527D-17  0.60587508D-18  0.59459204D-03  0.78065576D-03
  0.88883402D-03  0.75262814D-03  0.43113438D-03  0.98068113D-04 -0.45901274D-04
  0.16456921D-03 -0.46797075D-18 -0.19530909D-05  0.31824846D-03 -0.47694321D-19
  0.22775841D-03  0.79163984D-05  0.51780125D-20  0.47613248D-05  0.71354105D-04
 -0.95713012D-04  0.24358907D-04  0.83089843D-18  0.17071966D-03  0.31662154D-18
  0.10678252D-04  0.28901688D-04 -0.39579940D-04 -0.21404102D-18 -0.61365006D-04
 -0.17760318D-18 -0.27694216D-04  0.28500302D-04 -0.80608585D-06 -0.22900288D-19
 -0.73631695D-04 -0.17874561D-19 -0.31178740D-04 -0.25833162D-19  0.17303801D-04
  0.11614259D-03 -0.97138820D-19 -0.90945904D-04 -0.22606370D-04  0.17463830D-18
  0.39034500D-04  0.44960611D-18  0.83058618D-05 -0.17271305D-19 -0.44633781D-05
 -0.57515819D-04  0.51608866D-19  0.40562987D-04  0.32598234D-04  0.20504847D-21
 -0.27172853D-04  0.15008852D-18
MO    2     MO 0.0        OCC NO =    2.0000000  ORB. ENERGY = -101.785443
 -0.87738632D-05 -0.16356476D-04 -0.27645326D-04 -0.41559980D-04 -0.51061237D-04
 -0.43129377D-04 -0.16266814D-04  0.80505372D-07  0.10960225D-05  0.20520998D-05
  0.34938756D-05  0.54044942D-05  0.71175288D-05  0.73955683D-05  0.46995517D-05
 -0.31495302D-05  0.86574021D-04  0.10992791D-02  0.12504138D-03 -0.11119765D-10
 -0.10425487D-10 -0.74235677D-11  0.35073801D-19  0.32883917D-19  0.23415308D-19
 -0.19997382D-05 -0.18748816D-05 -0.13350274D-05 -0.31334818D-10 -0.17837246D-19
  0.15729402D-03 -0.79312585D-10  0.51715257D-20  0.24614216D-03 -0.19774117D-11
 -0.21117750D-21  0.59110727D-05  0.64692701D-04 -0.21409423D-04 -0.43283278D-04
 -0.73078308D-19 -0.25598961D-10  0.49955362D-19 -0.22656764D-04  0.57101285D-06
  0.22085751D-04  0.44947796D-19  0.79838853D-11 -0.21837741D-19  0.20199414D-05
 -0.78587694D-05  0.58388280D-05 -0.16230673D-20 -0.67182807D-11  0.22392782D-20
  0.60751566D-11 -0.20021543D-20  0.69657861D-05 -0.17492142D-10  0.11993191D-19
 -0.57231670D-04 -0.73332763D-12 -0.59867278D-20  0.36334312D-04  0.70585723D-20
 -0.35860963D-11  0.50664103D-20  0.16185727D-04 -0.25683009D-11 -0.14104298D-19
 -0.69390145D-04  0.13326590D-10 -0.10949326D-20  0.20832966D-04  0.28342327D-19
  0.43638797D+00  0.81648356D+00  0.14107027D+01  0.22869136D+01  0.34728608D+01
  0.48268681D+01  0.57384499D+01  0.51113698D+01  0.25374370D+01  0.40882176D+00
  0.62765029D-02  0.11216049D-02  0.41912626D-04 -0.59141210D-03 -0.11046729D-02
 -0.19172134D-02 -0.31108582D-02 -0.48152390D-02 -0.68925771D-02 -0.89969662D-02
 -0.95877687D-02 -0.71670518D-02 -0.37833593D-03  0.48614289D-02  0.28882473D-02
 -0.10828762D-04  0.24931969D-03  0.46531927D-03  0.80868394D-03  0.13106388D-02
  0.20356272D-02  0.29160947D-02  0.38504314D-02  0.41634585D-02  0.32642054D-02
  0.16242578D-03 -0.27982493D-02 -0.28967068D-02  0.13108008D-02 -0.17016709D-02
 -0.70198978D-03 -0.16000903D-03  0.20680296D-02  0.27240591D-02  0.30052753D-02
  0.24962266D-02  0.13258066D-02  0.34196419D-03 -0.35152756D-06 -0.33295433D-17
 -0.43857557D-17 -0.48385160D-17 -0.40189437D-17 -0.21345586D-17 -0.55056494D-18
  0.56596204D-21 -0.20407762D-02 -0.26881602D-02 -0.29656705D-02 -0.24633302D-02
 -0.13083345D-02 -0.33745764D-03  0.34689498D-06 -0.16271210D-02 -0.21362906D-02
 -0.24323240D-02 -0.20595921D-02 -0.11798136D-02 -0.26836667D-03  0.12561037D-03
 -0.18688036D-17 -0.24536021D-17 -0.27936065D-17 -0.23655113D-17 -0.13550559D-17
 -0.30822821D-18  0.14426777D-18  0.16866748D-02  0.22144804D-02  0.25213489D-02
  0.21349747D-02  0.12229957D-02  0.27818909D-03 -0.13020780D-03 -0.57972130D-04
 -0.53492279D-19  0.76782048D-04 -0.27313076D-03 -0.28185121D-19  0.17287290D-03
 -0.50144974D-05  0.18211954D-20  0.24752880D-05  0.60947522D-04 -0.61328065D-04
  0.38054318D-06  0.87090182D-20 -0.18109147D-03  0.13070360D-18 -0.29391845D-04
  0.19024972D-04  0.10366873D-04  0.45790324D-19  0.36143532D-04 -0.41675446D-19
 -0.27264101D-04  0.24598343D-04  0.26657574D-05 -0.47224632D-20  0.69583540D-04
  0.30712751D-20 -0.58747917D-05 -0.96506847D-20  0.23248830D-04 -0.63728886D-04
  0.13972641D-19 -0.14766152D-03  0.81353261D-04  0.14979414D-19  0.77915028D-04
 -0.29606276D-19 -0.39854626D-05 -0.19748957D-20 -0.11062987D-04  0.34178422D-04
  0.34161498D-20  0.68228304D-04 -0.22222035D-04  0.25085373D-20 -0.35039343D-04
 -0.11235456D-19  0.43638781D+00  0.81648327D+00  0.14107022D+01  0.22869128D+01
  0.34728596D+01  0.48268664D+01  0.57384478D+01  0.51113679D+01  0.25374361D+01
  0.40882161D+00  0.62765007D-02  0.11216045D-02  0.41912610D-04 -0.59141187D-03
 -0.11046725D-02 -0.19172126D-02 -0.31108570D-02 -0.48152371D-02 -0.68925744D-02
 -0.89969626D-02 -0.95877650D-02 -0.71670490D-02 -0.37833578D-03  0.48614270D-02
  0.28882462D-02 -0.10828758D-04  0.24931959D-03  0.46531909D-03  0.80868362D-03
  0.13106382D-02  0.20356264D-02  0.29160936D-02  0.38504298D-02  0.41634568D-02
  0.32642041D-02  0.16242572D-03 -0.27982482D-02 -0.28967056D-02  0.13108003D-02
 -0.17016703D-02 -0.70198948D-03 -0.16000894D-03 -0.20680282D-02 -0.27240573D-02
 -0.30052733D-02 -0.24962249D-02 -0.13258057D-02 -0.34196397D-03  0.35152733D-06
 -0.83230400D-17 -0.10963312D-16 -0.12095101D-16 -0.10046372D-16 -0.53358720D-17
 -0.13762770D-17  0.14147660D-20 -0.20407759D-02 -0.26881599D-02 -0.29656701D-02
 -0.24633299D-02 -0.13083343D-02 -0.33745759D-03  0.34689493D-06  0.16271199D-02
  0.21362891D-02  0.24323223D-02  0.20595906D-02  0.11798128D-02  0.26836648D-03
 -0.12561028D-03  0.65530021D-18  0.86036113D-18  0.97958445D-18  0.82947188D-18
  0.47515343D-18  0.10808092D-18 -0.50587819D-19  0.16866746D-02  0.22144801D-02
  0.25213486D-02  0.21349744D-02  0.12229955D-02  0.27818905D-03 -0.13020779D-03
  0.57972071D-04  0.45631496D-18  0.76782049D-04  0.27313065D-03  0.13499852D-20
  0.17287282D-03  0.50144946D-05  0.48967689D-22  0.24752863D-05  0.60947496D-04
 -0.61328030D-04  0.38053443D-06 -0.60032430D-19  0.18109141D-03  0.70298812D-19
 -0.29391849D-04  0.19024962D-04  0.10366887D-04  0.13281376D-19 -0.36143510D-04
  0.21958891D-20 -0.27264091D-04  0.24598333D-04  0.26657577D-05  0.48674671D-21
 -0.69583514D-04 -0.11180558D-20  0.58748029D-05  0.67446204D-20  0.23248824D-04
  0.63728844D-04 -0.18962873D-19 -0.14766149D-03 -0.81353253D-04 -0.12709879D-20
  0.77915014D-04  0.24096314D-20  0.39854596D-05 -0.16855263D-20 -0.11062985D-04
 -0.34178402D-04 -0.50097318D-21  0.68228289D-04  0.22222023D-04  0.55575521D-20
 -0.35039333D-04 -0.10932979D-19
MO    3     MO 0.0        OCC NO =    2.0000000  ORB. ENERGY =  -10.392037
  0.32597335D+00  0.60768843D+00  0.10271005D+01  0.15440685D+01  0.18970666D+01
  0.16023760D+01  0.60435726D+00 -0.29909978D-02 -0.19281073D-03 -0.36100252D-03
 -0.61463768D-03 -0.95075104D-03 -0.12521057D-02 -0.13010180D-02 -0.82673853D-03
  0.55406094D-03  0.32928383D-01 -0.39378363D-02 -0.68759701D-03 -0.23893655D-14
 -0.22401821D-14 -0.15951431D-14 -0.12610954D-15 -0.11823571D-15 -0.84190869D-16
  0.81741491D-02  0.76637844D-02  0.54570710D-02 -0.11219094D-15  0.16057641D-16
 -0.14738701D-02 -0.16518466D-14  0.37560212D-20 -0.13437679D-02 -0.12470222D-15
  0.74125495D-19 -0.43892088D-04  0.12966219D-02 -0.11559808D-02 -0.14064113D-03
  0.21398915D-17  0.79900588D-15 -0.82358879D-17 -0.83860598D-03  0.76572302D-03
  0.72882955D-04 -0.34751772D-18 -0.56932057D-15  0.39396890D-17 -0.54376209D-04
  0.84913463D-04 -0.30537254D-04 -0.15774404D-19 -0.17412286D-15  0.61234264D-19
  0.13027492D-16 -0.45616333D-18  0.10948615D-03 -0.12997973D-15  0.15791857D-17
 -0.44376537D-03  0.90897249D-16 -0.21069573D-18  0.11530693D-03  0.45308483D-18
  0.56767319D-16 -0.42430496D-18  0.10197872D-03 -0.48472872D-16  0.10215922D-17
 -0.50992886D-03 -0.12182909D-15  0.25132271D-18  0.20399271D-03 -0.13056642D-18
  0.60495022D-04  0.11318642D-03  0.19556106D-03  0.31702728D-03  0.48143122D-03
  0.66913278D-03  0.79550235D-03  0.70857230D-03  0.35175651D-03  0.56673609D-04
  0.87009086D-06  0.15548438D-06  0.58102088D-08 -0.11420037D-03 -0.21330990D-03
 -0.37020968D-03 -0.60069985D-03 -0.92981203D-03 -0.13309414D-02 -0.17372943D-02
 -0.18513770D-02 -0.13839419D-02 -0.73055834D-04  0.93873120D-03  0.55771419D-03
 -0.20910101D-05  0.52693288D-04  0.98344429D-04  0.17091396D-03  0.27700125D-03
  0.43022631D-03  0.61631161D-03  0.81378206D-03  0.87993980D-03  0.68988421D-03
  0.34328410D-04 -0.59140519D-03 -0.61221401D-03  0.27703550D-03 -0.51405121D-03
  0.23146963D-02  0.61828973D-03  0.20076984D-01  0.26445894D-01  0.29176016D-01
  0.24234035D-01  0.12871285D-01  0.33198798D-02 -0.34127236D-05 -0.33490526D-16
 -0.44114539D-16 -0.48668671D-16 -0.40424926D-16 -0.21470660D-16 -0.55379096D-17
  0.56927827D-20 -0.16723131D-01 -0.22028116D-01 -0.24302173D-01 -0.20185748D-01
 -0.10721141D-01 -0.27652950D-02  0.28426293D-05 -0.18527321D-01 -0.24325015D-01
 -0.27695819D-01 -0.23451682D-01 -0.13434026D-01 -0.30557749D-02  0.14302708D-02
  0.26268407D-16  0.34488492D-16  0.39267686D-16  0.33250264D-16  0.19047031D-16
  0.43325388D-17 -0.20278666D-17  0.15392233D-01  0.20208873D-01  0.23009289D-01
  0.19483321D-01  0.11160796D-01  0.25386939D-02 -0.11882485D-02 -0.67536544D-03
  0.32338992D-17  0.59877332D-03  0.68072906D-03 -0.71666011D-18 -0.35550738D-03
  0.12171550D-04 -0.86400059D-20 -0.18463518D-05  0.25460312D-03 -0.26324237D-03
  0.86392556D-05  0.43695927D-17 -0.74942153D-03 -0.29759973D-17  0.14507066D-03
 -0.20212565D-03  0.57054999D-04 -0.30349488D-17 -0.64054826D-03  0.21710323D-17
  0.42642352D-04 -0.17713917D-04 -0.24928435D-04 -0.20577365D-18 -0.44657888D-04
  0.20275031D-18 -0.25395376D-05 -0.24725843D-18  0.27932270D-04 -0.32004537D-03
  0.27186579D-18 -0.32463201D-03  0.32766399D-03  0.46990950D-18  0.24083520D-03
 -0.11164319D-17 -0.14562209D-04  0.50924699D-18 -0.20817327D-05  0.80675948D-04
 -0.10561354D-17  0.65829961D-04 -0.36989320D-04 -0.47160559D-18 -0.59584762D-04
  0.22794138D-17  0.60495022D-04  0.11318642D-03  0.19556106D-03  0.31702728D-03
  0.48143122D-03  0.66913278D-03  0.79550235D-03  0.70857230D-03  0.35175651D-03
  0.56673609D-04  0.87009086D-06  0.15548438D-06  0.58102088D-08 -0.11420037D-03
 -0.21330990D-03 -0.37020968D-03 -0.60069985D-03 -0.92981203D-03 -0.13309414D-02
 -0.17372943D-02 -0.18513770D-02 -0.13839419D-02 -0.73055834D-04  0.93873120D-03
  0.55771419D-03 -0.20910101D-05  0.52693288D-04  0.98344429D-04  0.17091396D-03
  0.27700125D-03  0.43022631D-03  0.61631161D-03  0.81378206D-03  0.87993980D-03
  0.68988421D-03  0.34328410D-04 -0.59140519D-03 -0.61221401D-03  0.27703550D-03
 -0.51405121D-03  0.23146963D-02  0.61828973D-03 -0.20076984D-01 -0.26445894D-01
 -0.29176016D-01 -0.24234035D-01 -0.12871285D-01 -0.33198798D-02  0.34127236D-05
 -0.29032870D-16 -0.38242806D-16 -0.42190774D-16 -0.35044287D-16 -0.18612872D-16
 -0.48008027D-17  0.49350620D-20 -0.16723131D-01 -0.22028116D-01 -0.24302173D-01
 -0.20185748D-01 -0.10721141D-01 -0.27652950D-02  0.28426293D-05  0.18527321D-01
  0.24325015D-01  0.27695819D-01  0.23451682D-01  0.13434026D-01  0.30557749D-02
 -0.14302708D-02  0.24946288D-16  0.32752647D-16  0.37291299D-16  0.31576740D-16
  0.18088373D-16  0.41144772D-17 -0.19258018D-17  0.15392233D-01  0.20208873D-01
  0.23009289D-01  0.19483321D-01  0.11160796D-01  0.25386939D-02 -0.11882485D-02
  0.67536544D-03  0.30723975D-17  0.59877332D-03 -0.68072906D-03 -0.59390111D-18
 -0.35550738D-03 -0.12171550D-04 -0.84610457D-20 -0.18463518D-05  0.25460312D-03
 -0.26324237D-03  0.86392556D-05 -0.41472310D-17  0.74942153D-03 -0.28585583D-17
  0.14507066D-03 -0.20212565D-03  0.57054999D-04  0.28666503D-17  0.64054826D-03
  0.20455462D-17  0.42642352D-04 -0.17713917D-04 -0.24928435D-04  0.16709292D-18
  0.44657888D-04  0.16560158D-18  0.25395376D-05 -0.22400077D-18  0.27932270D-04
  0.32004537D-03  0.24781573D-18 -0.32463201D-03 -0.32766399D-03  0.42418659D-18
  0.24083520D-03  0.79584543D-18  0.14562209D-04  0.48962762D-18 -0.20817327D-05
 -0.80675948D-04 -0.10248691D-17  0.65829961D-04  0.36989320D-04 -0.44401379D-18
 -0.59584762D-04 -0.21061378D-17
MO    4     MO 0.0        OCC NO =    2.0000000  ORB. ENERGY =   -9.587588
  0.88960895D-12  0.16584334D-11  0.28030445D-11  0.42138941D-11  0.51772558D-11
  0.43730201D-11  0.16493423D-11 -0.81626871D-14 -0.15592943D-11 -0.29194910D-11
 -0.49706832D-11 -0.76888911D-11 -0.10125999D-10 -0.10521562D-10 -0.66859801D-11
  0.44807884D-11 -0.55058556D-11 -0.58213857D-10 -0.32894170D-11  0.97222097D-05
  0.91151895D-05  0.64905580D-05 -0.32507106D-15 -0.30477478D-15 -0.21701780D-15
  0.22019955D-11  0.20645108D-11  0.14700547D-11 -0.11084257D-03  0.17834282D-17
 -0.40161490D-11 -0.10625972D-02 -0.12848997D-16 -0.12357434D-10 -0.19943196D-04
 -0.51127783D-19 -0.68273526D-13  0.15792614D-11 -0.23450558D-11  0.76579437D-12
  0.73265353D-16  0.24437492D-03 -0.11684417D-15  0.78532792D-12 -0.68068060D-12
 -0.10464732D-12 -0.19608490D-16  0.96347662D-04  0.19826470D-16 -0.82891668D-13
  0.34618560D-12 -0.26329394D-12 -0.14506998D-18 -0.10384671D-03  0.12390167D-18
  0.60828588D-04 -0.65129182D-18  0.38399764D-12 -0.10236483D-03  0.80582957D-18
 -0.11526259D-11 -0.80120932D-04  0.11480459D-17  0.63298531D-15 -0.18965302D-17
 -0.37854970D-04 -0.12205976D-18 -0.77218481D-12 -0.29539537D-04  0.22187287D-18
  0.38099668D-11  0.14310445D-03  0.14430643D-18 -0.14934124D-11 -0.56745472D-19
  0.20443083D-02  0.38249087D-02  0.66085949D-02  0.10713303D-01  0.16269005D-01
  0.22612005D-01  0.26882411D-01  0.23944784D-01  0.11886908D-01  0.19151713D-02
  0.29402981D-04  0.52542838D-05  0.19634439D-06  0.11913399D+00  0.22252518D+00
  0.38620325D+00  0.62665092D+00  0.96998120D+00  0.13884400D+01  0.18123479D+01
  0.19313591D+01  0.14437301D+01  0.76211948D-01 -0.97928570D+00 -0.58180821D+00
  0.21813446D-02  0.82293671D-03  0.15358928D-02  0.26692465D-02  0.43260633D-02
  0.67190537D-02  0.96252383D-02  0.12709230D-01  0.13742448D-01  0.10774257D-01
  0.53612348D-03 -0.92362626D-02 -0.95612440D-02  0.43265982D-02 -0.50666982D-01
 -0.24216532D-02 -0.42097004D-03 -0.19200323D-01 -0.25291134D-01 -0.27902046D-01
 -0.23175857D-01 -0.12309260D-01 -0.31749173D-02  0.32637071D-05  0.13621867D-14
  0.17943055D-14  0.19795394D-14  0.16442350D-14  0.87329314D-15  0.22524777D-15
 -0.23154705D-18  0.14028291D-01  0.18478407D-01  0.20386012D-01  0.16932926D-01
  0.89934884D-02  0.23196830D-02 -0.23845553D-05 -0.73021010D-02 -0.95871233D-02
 -0.10915645D-01 -0.92429200D-02 -0.52947004D-02 -0.12043607D-02  0.56370707D-03
  0.95279098D-16  0.12509447D-15  0.14242926D-15  0.12060325D-15  0.69086183D-16
  0.15714710D-16 -0.73553490D-17  0.20986080D-02  0.27553184D-02  0.31371327D-02
  0.26563951D-02  0.15216854D-02  0.34613064D-03 -0.16200819D-03 -0.86033945D-03
  0.46884075D-16  0.36002694D-03 -0.70540465D-03  0.11202802D-17  0.50718066D-03
 -0.14090533D-04 -0.11947575D-18  0.80282923D-05 -0.17090288D-03 -0.40772872D-04
  0.21167575D-03 -0.71889163D-17  0.84794335D-03 -0.16827196D-16  0.52546462D-04
  0.34243371D-04 -0.86789834D-04 -0.18193409D-18 -0.29657551D-04  0.24569023D-17
 -0.59837135D-04  0.59631840D-04  0.20529565D-06  0.27371171D-19  0.16780716D-03
 -0.41356428D-18  0.40890292D-04  0.35116060D-19  0.22426649D-04 -0.17038554D-03
 -0.15760606D-17 -0.11175797D-03  0.47714665D-04  0.14707125D-17  0.44478017D-04
  0.18393963D-17 -0.15202613D-04  0.13895617D-18 -0.42823108D-05  0.96968644D-04
 -0.18420913D-18  0.51759201D-04 -0.51360804D-04 -0.23265937D-18 -0.38912268D-04
  0.21278411D-18 -0.20443084D-02 -0.38249089D-02 -0.66085953D-02 -0.10713304D-01
 -0.16269006D-01 -0.22612006D-01 -0.26882413D-01 -0.23944785D-01 -0.11886909D-01
 -0.19151714D-02 -0.29402983D-04 -0.52542841D-05 -0.19634440D-06 -0.11913399D+00
 -0.22252519D+00 -0.38620327D+00 -0.62665095D+00 -0.96998125D+00 -0.13884400D+01
 -0.18123479D+01 -0.19313592D+01 -0.14437302D+01 -0.76211951D-01  0.97928575D+00
  0.58180824D+00 -0.21813447D-02 -0.82293675D-03 -0.15358929D-02 -0.26692466D-02
 -0.43260635D-02 -0.67190540D-02 -0.96252387D-02 -0.12709231D-01 -0.13742449D-01
 -0.10774258D-01 -0.53612350D-03  0.92362630D-02  0.95612444D-02 -0.43265984D-02
  0.50666984D-01  0.24216533D-02  0.42097005D-03 -0.19200324D-01 -0.25291136D-01
 -0.27902048D-01 -0.23175858D-01 -0.12309261D-01 -0.31749175D-02  0.32637073D-05
 -0.15880015D-14 -0.20917544D-14 -0.23076952D-14 -0.19168061D-14 -0.10180623D-14
 -0.26258796D-15  0.26993150D-18 -0.14028291D-01 -0.18478408D-01 -0.20386013D-01
 -0.16932927D-01 -0.89934888D-02 -0.23196831D-02  0.23845554D-05 -0.73021012D-02
 -0.95871236D-02 -0.10915646D-01 -0.92429203D-02 -0.52947006D-02 -0.12043607D-02
  0.56370709D-03 -0.77902999D-16 -0.10228093D-15 -0.11645436D-15 -0.98608769D-16
 -0.56486899D-16 -0.12848810D-16  0.60139502D-17 -0.20986082D-02 -0.27553187D-02
 -0.31371330D-02 -0.26563954D-02 -0.15216856D-02 -0.34613067D-03  0.16200820D-03