 Molden2AIM, Version 4.0.0 (06/02/2016)           Time: Fri Jun 29 17:36:06 2018
GAUSSIAN             16 MOL ORBITALS    300 PRIMITIVES        4 NUCLEI
  F    1    (CENTRE  1)   0.00000000  2.01139992 -1.26898133  CHARGE =  9.0
  F    2    (CENTRE  2)   0.00000000 -2.01139992 -1.26898133  CHARGE =  9.0
  C    3    (CENTRE  3)   0.00000000  0.00000000  0.20106119  CHARGE =  6.0
  O    4    (CENTRE  4)   0.00000000  0.00000000  2.42184088  CHARGE =  8.0
CENTRE ASSIGNMENTS    1  1  1  1  1  1  1  1  1  1  1  1  1  1  1  1  1  1  1  1
CENTRE ASSIGNMENTS    1  1  1  1  1  1  1  1  1  1  1  1  1  1  1  1  1  1  1  1
CENTRE ASSIGNMENTS    1  1  1  1  1  1  1  1  1  1  1  1  1  1  1  1  1  1  1  1
CENTRE ASSIGNMENTS    1  1  1  1  1  1  1  1  1  1  1  1  1  1  1  2  2  2  2  2
CENTRE ASSIGNMENTS    2  2  2  2  2  2  2  2  2  2  2  2  2  2  2  2  2  2  2  2
CENTRE ASSIGNMENTS    2  2  2  2  2  2  2  2  2  2  2  2  2  2  2  2  2  2  2  2
CENTRE ASSIGNMENTS    2  2  2  2  2  2  2  2  2  2  2  2  2  2  2  2  2  2  2  2
CENTRE ASSIGNMENTS    2  2  2  2  2  2  2  2  2  2  3  3  3  3  3  3  3  3  3  3
CENTRE ASSIGNMENTS    3  3  3  3  3  3  3  3  3  3  3  3  3  3  3  3  3  3  3  3
CENTRE ASSIGNMENTS    3  3  3  3  3  3  3  3  3  3  3  3  3  3  3  3  3  3  3  3
CENTRE ASSIGNMENTS    3  3  3  3  3  3  3  3  3  3  3  3  3  3  3  3  3  3  3  3
CENTRE ASSIGNMENTS    3  3  3  3  3  4  4  4  4  4  4  4  4  4  4  4  4  4  4  4
CENTRE ASSIGNMENTS    4  4  4  4  4  4  4  4  4  4  4  4  4  4  4  4  4  4  4  4
CENTRE ASSIGNMENTS    4  4  4  4  4  4  4  4  4  4  4  4  4  4  4  4  4  4  4  4
CENTRE ASSIGNMENTS    4  4  4  4  4  4  4  4  4  4  4  4  4  4  4  4  4  4  4  4
TYPE ASSIGNMENTS      1  1  1  1  1  1  1  1  1  1  1  1  1  1  1  1  1  1  1  2
TYPE ASSIGNMENTS      2  2  3  3  3  4  4  4  2  3  4  2  3  4  2  3  4  5  6  7
TYPE ASSIGNMENTS      8  9 10  5  6  7  8  9 10  5  6  7  8  9 10 11 12 13 17 14
TYPE ASSIGNMENTS     15 18 19 16 20 11 12 13 17 14 15 18 19 16 20  1  1  1  1  1
TYPE ASSIGNMENTS      1  1  1  1  1  1  1  1  1  1  1  1  1  1  2  2  2  3  3  3
TYPE ASSIGNMENTS      4  4  4  2  3  4  2  3  4  2  3  4  5  6  7  8  9 10  5  6
TYPE ASSIGNMENTS      7  8  9 10  5  6  7  8  9 10 11 12 13 17 14 15 18 19 16 20
TYPE ASSIGNMENTS     11 12 13 17 14 15 18 19 16 20  1  1  1  1  1  1  1  1  1  1
TYPE ASSIGNMENTS      1  1  1  1  1  1  1  1  1  2  2  2  3  3  3  4  4  4  2  3
TYPE ASSIGNMENTS      4  2  3  4  2  3  4  5  6  7  8  9 10  5  6  7  8  9 10  5
TYPE ASSIGNMENTS      6  7  8  9 10 11 12 13 17 14 15 18 19 16 20 11 12 13 17 14
TYPE ASSIGNMENTS     15 18 19 16 20  1  1  1  1  1  1  1  1  1  1  1  1  1  1  1
TYPE ASSIGNMENTS      1  1  1  1  2  2  2  3  3  3  4  4  4  2  3  4  2  3  4  2
TYPE ASSIGNMENTS      3  4  5  6  7  8  9 10  5  6  7  8  9 10  5  6  7  8  9 10
TYPE ASSIGNMENTS     11 12 13 17 14 15 18 19 16 20 11 12 13 17 14 15 18 19 16 20
EXPONENTS  0.1950000D+05 0.2923000D+04 0.6645000D+03 0.1875000D+03 0.6062000D+02
EXPONENTS  0.2142000D+02 0.7950000D+01 0.8815000D+00 0.1950000D+05 0.2923000D+04
EXPONENTS  0.6645000D+03 0.1875000D+03 0.6062000D+02 0.2142000D+02 0.7950000D+01
EXPONENTS  0.8815000D+00 0.2257000D+01 0.3041000D+00 0.9158000D-01 0.4388000D+02
EXPONENTS  0.9926000D+01 0.2930000D+01 0.4388000D+02 0.9926000D+01 0.2930000D+01
EXPONENTS  0.4388000D+02 0.9926000D+01 0.2930000D+01 0.9132000D+00 0.9132000D+00
EXPONENTS  0.9132000D+00 0.2672000D+00 0.2672000D+00 0.2672000D+00 0.7361000D-01
EXPONENTS  0.7361000D-01 0.7361000D-01 0.3107000D+01 0.3107000D+01 0.3107000D+01
EXPONENTS  0.3107000D+01 0.3107000D+01 0.3107000D+01 0.8550000D+00 0.8550000D+00
EXPONENTS  0.8550000D+00 0.8550000D+00 0.8550000D+00 0.8550000D+00 0.2920000D+00
EXPONENTS  0.2920000D+00 0.2920000D+00 0.2920000D+00 0.2920000D+00 0.2920000D+00
EXPONENTS  0.1917000D+01 0.1917000D+01 0.1917000D+01 0.1917000D+01 0.1917000D+01
EXPONENTS  0.1917000D+01 0.1917000D+01 0.1917000D+01 0.1917000D+01 0.1917000D+01
EXPONENTS  0.7240000D+00 0.7240000D+00 0.7240000D+00 0.7240000D+00 0.7240000D+00
EXPONENTS  0.7240000D+00 0.7240000D+00 0.7240000D+00 0.7240000D+00 0.7240000D+00
EXPONENTS  0.1950000D+05 0.2923000D+04 0.6645000D+03 0.1875000D+03 0.6062000D+02
EXPONENTS  0.2142000D+02 0.7950000D+01 0.8815000D+00 0.1950000D+05 0.2923000D+04
EXPONENTS  0.6645000D+03 0.1875000D+03 0.6062000D+02 0.2142000D+02 0.7950000D+01
EXPONENTS  0.8815000D+00 0.2257000D+01 0.3041000D+00 0.9158000D-01 0.4388000D+02
EXPONENTS  0.9926000D+01 0.2930000D+01 0.4388000D+02 0.9926000D+01 0.2930000D+01
EXPONENTS  0.4388000D+02 0.9926000D+01 0.2930000D+01 0.9132000D+00 0.9132000D+00
EXPONENTS  0.9132000D+00 0.2672000D+00 0.2672000D+00 0.2672000D+00 0.7361000D-01
EXPONENTS  0.7361000D-01 0.7361000D-01 0.3107000D+01 0.3107000D+01 0.3107000D+01
EXPONENTS  0.3107000D+01 0.3107000D+01 0.3107000D+01 0.8550000D+00 0.8550000D+00
EXPONENTS  0.8550000D+00 0.8550000D+00 0.8550000D+00 0.8550000D+00 0.2920000D+00
EXPONENTS  0.2920000D+00 0.2920000D+00 0.2920000D+00 0.2920000D+00 0.2920000D+00
EXPONENTS  0.1917000D+01 0.1917000D+01 0.1917000D+01 0.1917000D+01 0.1917000D+01
EXPONENTS  0.1917000D+01 0.1917000D+01 0.1917000D+01 0.1917000D+01 0.1917000D+01
EXPONENTS  0.7240000D+00 0.7240000D+00 0.7240000D+00 0.7240000D+00 0.7240000D+00
EXPONENTS  0.7240000D+00 0.7240000D+00 0.7240000D+00 0.7240000D+00 0.7240000D+00
EXPONENTS  0.8236000D+04 0.1235000D+04 0.2808000D+03 0.7927000D+02 0.2559000D+02
EXPONENTS  0.8997000D+01 0.3319000D+01 0.3643000D+00 0.8236000D+04 0.1235000D+04
EXPONENTS  0.2808000D+03 0.7927000D+02 0.2559000D+02 0.8997000D+01 0.3319000D+01
EXPONENTS  0.3643000D+00 0.9059000D+00 0.1285000D+00 0.4402000D-01 0.1871000D+02
EXPONENTS  0.4133000D+01 0.1200000D+01 0.1871000D+02 0.4133000D+01 0.1200000D+01
EXPONENTS  0.1871000D+02 0.4133000D+01 0.1200000D+01 0.3827000D+00 0.3827000D+00
EXPONENTS  0.3827000D+00 0.1209000D+00 0.1209000D+00 0.1209000D+00 0.3569000D-01
EXPONENTS  0.3569000D-01 0.3569000D-01 0.1097000D+01 0.1097000D+01 0.1097000D+01
EXPONENTS  0.1097000D+01 0.1097000D+01 0.1097000D+01 0.3180000D+00 0.3180000D+00
EXPONENTS  0.3180000D+00 0.3180000D+00 0.3180000D+00 0.3180000D+00 0.1000000D+00
EXPONENTS  0.1000000D+00 0.1000000D+00 0.1000000D+00 0.1000000D+00 0.1000000D+00
EXPONENTS  0.7610000D+00 0.7610000D+00 0.7610000D+00 0.7610000D+00 0.7610000D+00
EXPONENTS  0.7610000D+00 0.7610000D+00 0.7610000D+00 0.7610000D+00 0.7610000D+00
EXPONENTS  0.2680000D+00 0.2680000D+00 0.2680000D+00 0.2680000D+00 0.2680000D+00
EXPONENTS  0.2680000D+00 0.2680000D+00 0.2680000D+00 0.2680000D+00 0.2680000D+00
EXPONENTS  0.1533000D+05 0.2299000D+04 0.5224000D+03 0.1473000D+03 0.4755000D+02
EXPONENTS  0.1676000D+02 0.6207000D+01 0.6882000D+00 0.1533000D+05 0.2299000D+04
EXPONENTS  0.5224000D+03 0.1473000D+03 0.4755000D+02 0.1676000D+02 0.6207000D+01
EXPONENTS  0.6882000D+00 0.1752000D+01 0.2384000D+00 0.7376000D-01 0.3446000D+02
EXPONENTS  0.7749000D+01 0.2280000D+01 0.3446000D+02 0.7749000D+01 0.2280000D+01
EXPONENTS  0.3446000D+02 0.7749000D+01 0.2280000D+01 0.7156000D+00 0.7156000D+00
EXPONENTS  0.7156000D+00 0.2140000D+00 0.2140000D+00 0.2140000D+00 0.5974000D-01
EXPONENTS  0.5974000D-01 0.5974000D-01 0.2314000D+01 0.2314000D+01 0.2314000D+01
EXPONENTS  0.2314000D+01 0.2314000D+01 0.2314000D+01 0.6450000D+00 0.6450000D+00
EXPONENTS  0.6450000D+00 0.6450000D+00 0.6450000D+00 0.6450000D+00 0.2140000D+00
EXPONENTS  0.2140000D+00 0.2140000D+00 0.2140000D+00 0.2140000D+00 0.2140000D+00
EXPONENTS  0.1428000D+01 0.1428000D+01 0.1428000D+01 0.1428000D+01 0.1428000D+01
EXPONENTS  0.1428000D+01 0.1428000D+01 0.1428000D+01 0.1428000D+01 0.1428000D+01
EXPONENTS  0.5000000D+00 0.5000000D+00 0.5000000D+00 0.5000000D+00 0.5000000D+00
EXPONENTS  0.5000000D+00 0.5000000D+00 0.5000000D+00 0.5000000D+00 0.5000000D+00
MO    1     MO 0.0        OCC NO =    2.0000000  ORB. ENERGY =  -24.858826
  0.41978724D+00  0.78250160D+00  0.13265326D+01  0.20087613D+01  0.25119631D+01
  0.21625662D+01  0.83136940D+00 -0.36024597D-02  0.51266357D-03  0.96269139D-03
  0.16392974D-02  0.25679497D-02  0.34413547D-02  0.37016409D-02  0.22224604D-02
 -0.14615834D-02  0.45885066D-01 -0.21028249D-03 -0.23808999D-03 -0.91837207D-15
 -0.89814782D-15 -0.59344424D-15 -0.50162188D-02 -0.49057524D-02 -0.32414380D-02
  0.35126922D-02  0.34353362D-02  0.22698719D-02  0.17609987D-15  0.10835584D-02
 -0.72973528D-03 -0.89334264D-18  0.48000415D-03 -0.42821703D-03  0.22644919D-19
  0.15774546D-04 -0.15336257D-04 -0.77861748D-03  0.74712031D-03  0.31497173D-04
  0.34204617D-17 -0.11297838D-17 -0.27673595D-02  0.34693067D-03 -0.34331865D-03
 -0.36120209D-05 -0.36235828D-19 -0.42462848D-19  0.11091132D-02  0.71121218D-04
 -0.45687313D-04 -0.25433905D-04  0.49723763D-18 -0.17314481D-18  0.22056625D-03
 -0.38182462D-18  0.23339488D-03 -0.48223483D-04  0.14089756D-18 -0.23662939D-03
 -0.10076135D-03  0.10045763D-17 -0.46355526D-03  0.24543179D-03  0.67376437D-17
  0.28728733D-18 -0.39666858D-04  0.85662462D-04 -0.80852846D-18 -0.16616386D-03
  0.20117507D-03 -0.53333541D-19  0.28516443D-03 -0.45816245D-03 -0.28397439D-18
 -0.41978724D+00 -0.78250160D+00 -0.13265326D+01 -0.20087613D+01 -0.25119630D+01
 -0.21625662D+01 -0.83136940D+00  0.36024597D-02 -0.51266356D-03 -0.96269138D-03
 -0.16392974D-02 -0.25679497D-02 -0.34413547D-02 -0.37016409D-02 -0.22224604D-02
  0.14615834D-02 -0.45885066D-01  0.21028249D-03  0.23808999D-03  0.16822747D-17
  0.16452279D-17  0.10870716D-17 -0.50162188D-02 -0.49057524D-02 -0.32414380D-02
 -0.35126921D-02 -0.34353362D-02 -0.22698719D-02  0.56437179D-18  0.10835584D-02
  0.72973527D-03  0.11954488D-17  0.48000415D-03  0.42821703D-03 -0.73855313D-19
  0.15774546D-04  0.15336257D-04  0.77861748D-03 -0.74712031D-03 -0.31497174D-04
 -0.17290674D-17  0.80308273D-18 -0.27673595D-02 -0.34693067D-03  0.34331865D-03
  0.36120212D-05  0.67577106D-18 -0.49134086D-18  0.11091132D-02 -0.71121218D-04
  0.45687313D-04  0.25433905D-04  0.93466655D-18  0.71766160D-18  0.22056625D-03
  0.24537625D-17  0.23339489D-03  0.48223482D-04 -0.50414012D-17 -0.23662939D-03
  0.10076135D-03 -0.23198864D-17 -0.46355526D-03 -0.24543179D-03 -0.85167063D-17
 -0.83173102D-18 -0.39666858D-04 -0.85662462D-04  0.19546082D-17 -0.16616386D-03
 -0.20117507D-03  0.54058484D-18  0.28516443D-03  0.45816245D-03  0.33213299D-17
  0.78166816D-12  0.14572072D-11  0.24629368D-11  0.37026008D-11  0.45490729D-11
  0.38424193D-11  0.14492192D-11 -0.71722666D-14 -0.55901777D-12 -0.10466576D-11
 -0.17820242D-11 -0.27565205D-11 -0.36302405D-11 -0.37720524D-11 -0.23969700D-11
  0.16063935D-11 -0.11934306D-11  0.11174429D-11  0.14727301D-12  0.38351633D-19
  0.35957094D-19  0.25603593D-19 -0.48167236D-03 -0.45159846D-03 -0.32156501D-03
  0.10197126D-11  0.95604542D-12  0.68076129D-12 -0.58413721D-18  0.19461317D-02
 -0.43740611D-11  0.70333331D-19  0.86567575D-04 -0.91017020D-13  0.44692795D-19
  0.79654686D-05 -0.14538424D-13 -0.17236748D-11  0.20855053D-11 -0.36183050D-12
 -0.49217890D-18 -0.14923472D-17 -0.20158234D-02 -0.52544099D-12  0.65217029D-12
 -0.12672931D-12  0.60656424D-18  0.85265216D-18 -0.76745550D-03 -0.92384602D-14
 -0.26806933D-13  0.36045393D-13 -0.66603898D-19 -0.56692745D-19  0.23895601D-04
  0.94369470D-19  0.34882410D-04  0.15874637D-12 -0.85670418D-18 -0.80207795D-03
  0.18879360D-11  0.57359577D-18  0.69743072D-03 -0.23641751D-11 -0.49000614D-17
 -0.20738829D-19  0.16070975D-04  0.10412737D-12  0.22948973D-19 -0.11710990D-04
 -0.32458745D-14  0.39267516D-19 -0.36501935D-04 -0.30913622D-12 -0.10867668D-17
 -0.44816688D-13 -0.83532540D-13 -0.14164351D-12 -0.21438405D-12 -0.26748870D-12
 -0.22973712D-12 -0.88200548D-13  0.39452646D-15  0.36303296D-13  0.68087731D-13
  0.11607465D-12  0.18140209D-12  0.24256916D-12  0.25900731D-12  0.15835199D-12
 -0.10447103D-12 -0.22273310D-12  0.86094669D-12  0.12672698D-12  0.38207438D-18
  0.37048363D-18  0.24992607D-18 -0.40344219D-04 -0.39120321D-04 -0.26390338D-04
  0.91747378D-12  0.88964095D-12  0.60014653D-12 -0.22270678D-18  0.31592986D-04
 -0.10851277D-11 -0.20805927D-18  0.53650677D-04 -0.99257553D-12 -0.57541755D-19
 -0.12326974D-04 -0.22208282D-13  0.22948374D-13  0.17044617D-12 -0.19339454D-12
 -0.66013143D-17 -0.15151252D-17 -0.31507392D-03 -0.32178592D-12 -0.17586913D-12
  0.49765505D-12  0.21973021D-17  0.32543031D-18  0.26007507D-03 -0.12396013D-12
 -0.59531949D-13  0.18349208D-12  0.77500415D-18  0.10467178D-18 -0.29415669D-04
  0.45225659D-18 -0.13353161D-04  0.25204395D-13 -0.21298799D-17 -0.60123872D-04
  0.63606379D-12  0.77311016D-18  0.10018335D-03 -0.71167697D-12  0.14286395D-16
 -0.91976197D-19  0.28886478D-04 -0.49710909D-13  0.42870660D-18  0.75988234D-04
  0.11119905D-12 -0.15277800D-18 -0.16264767D-03  0.37933677D-13 -0.55554926D-17
MO    2     MO 0.0        OCC NO =    2.0000000  ORB. ENERGY =  -24.858817
  0.41974978D+00  0.78243178D+00  0.13264142D+01  0.20085821D+01  0.25117389D+01
  0.21623732D+01  0.83129521D+00 -0.36021382D-02  0.53944209D-03  0.10129767D-02
  0.17249246D-02  0.27020842D-02  0.36211108D-02  0.38949929D-02  0.23385486D-02
 -0.15379279D-02  0.45872638D-01 -0.83256756D-04 -0.20778852D-03  0.78592189D-15
  0.76861445D-15  0.50785606D-15 -0.49039612D-02 -0.47959670D-02 -0.31688982D-02
  0.34725707D-02  0.33960983D-02  0.22439457D-02 -0.19611161D-15  0.99945349D-03
 -0.74439666D-03  0.62392756D-17  0.33945958D-03 -0.29583445D-03 -0.14260803D-19
  0.14721282D-04 -0.59412065D-06 -0.84047259D-03  0.10055318D-02 -0.16505926D-03
 -0.73407472D-17  0.24814706D-17 -0.23859798D-02  0.35060073D-03 -0.39308981D-03
  0.42489078D-04  0.32481455D-18 -0.75755519D-18  0.97198433D-03  0.36956165D-04
 -0.31614562D-04 -0.53416023D-05 -0.55516818D-18  0.26903279D-18  0.14329849D-03
  0.43784790D-18 -0.13046093D-03 -0.85137669D-04 -0.80998416D-18  0.12571222D-03
  0.15815356D-03 -0.50355955D-18  0.26567056D-03  0.97259449D-04 -0.43025340D-17
 -0.25914361D-18  0.71754059D-04  0.90259843D-04  0.74455653D-18 -0.25408432D-03
  0.90386366D-04  0.32874288D-19  0.38822143D-04 -0.36116590D-03  0.24081727D-18
  0.41974978D+00  0.78243178D+00  0.13264142D+01  0.20085821D+01  0.25117389D+01
  0.21623732D+01  0.83129522D+00 -0.36021383D-02  0.53944210D-03  0.10129767D-02
  0.17249246D-02  0.27020843D-02  0.36211108D-02  0.38949929D-02  0.23385486D-02
 -0.15379280D-02  0.45872638D-01 -0.83256757D-04 -0.20778852D-03 -0.16938387D-17
 -0.16565372D-17 -0.10945442D-17  0.49039613D-02  0.47959670D-02  0.31688982D-02
  0.34725707D-02  0.33960983D-02  0.22439458D-02 -0.55032655D-18 -0.99945350D-03
 -0.74439667D-03 -0.10976737D-17 -0.33945958D-03 -0.29583445D-03  0.68921930D-19
 -0.14721282D-04 -0.59412074D-06 -0.84047259D-03  0.10055318D-02 -0.16505926D-03
  0.16709131D-17 -0.97994454D-18  0.23859798D-02  0.35060073D-03 -0.39308981D-03
  0.42489078D-04 -0.63936703D-18  0.57541253D-18 -0.97198433D-03  0.36956165D-04
 -0.31614563D-04 -0.53416025D-05 -0.86691971D-18 -0.73110064D-18 -0.14329849D-03
 -0.25637705D-17  0.13046093D-03 -0.85137669D-04  0.50409244D-17 -0.12571222D-03
  0.15815356D-03  0.26503871D-17 -0.26567056D-03  0.97259450D-04  0.83278550D-17
  0.85307541D-18 -0.71754059D-04  0.90259844D-04 -0.19029296D-17  0.25408432D-03
  0.90386367D-04 -0.65629667D-18 -0.38822145D-04 -0.36116590D-03 -0.32435694D-17
  0.28588107D-03  0.53294731D-03  0.90077484D-03  0.13541596D-02  0.16637416D-02
  0.14052957D-02  0.53002585D-03 -0.26231275D-05 -0.20450947D-03 -0.38290625D-03
 -0.65193065D-03 -0.10084376D-02 -0.13280768D-02 -0.13799569D-02 -0.87690065D-03
  0.58767843D-03 -0.43775294D-03  0.40576925D-03  0.53608160D-04 -0.45738071D-19
 -0.42882349D-19 -0.30534787D-19  0.13195710D-11  0.12371817D-11  0.88094706D-12
  0.37331418D-03  0.35000578D-03  0.24922496D-03  0.52325176D-18 -0.53174673D-11
 -0.16013735D-02 -0.14579124D-18 -0.22798875D-12 -0.30733413D-04 -0.41016554D-19
 -0.22358604D-13 -0.53467007D-05 -0.63296710D-03  0.76498858D-03 -0.13202147D-03
  0.62244209D-18  0.14414409D-17  0.54957130D-11 -0.19231112D-03  0.23848155D-03
 -0.46170423D-04 -0.61631282D-18 -0.81930236D-18  0.21069042D-11 -0.32886976D-05
 -0.10117015D-04  0.13405713D-04  0.41672501D-19  0.69504185D-19 -0.66806243D-13
 -0.21983153D-18 -0.94045655D-13  0.58530906D-04  0.11511328D-17  0.21901305D-11
  0.69291804D-03 -0.49163824D-18 -0.19079936D-11 -0.86851076D-03  0.42988874D-17
  0.31152428D-19 -0.40502958D-13  0.38453528D-04 -0.33813104D-19  0.30371691D-13
 -0.14316236D-05 -0.59644178D-19  0.91137183D-13 -0.11392896D-03  0.98898988D-18
 -0.16837911D-04 -0.31383699D-04 -0.53216355D-04 -0.80545432D-04 -0.10049718D-03
 -0.86313677D-04 -0.33137499D-04  0.14822607D-06  0.13589115D-04  0.25486722D-04
  0.43449273D-04  0.67902756D-04  0.90798923D-04  0.96952081D-04  0.59274601D-04
 -0.39105782D-04 -0.81716331D-04  0.31281594D-03  0.45103152D-04 -0.37492359D-18
 -0.36354977D-18 -0.24524853D-18  0.10222148D-12  0.99120454D-13  0.66866073D-13
  0.33554460D-03  0.32536539D-03  0.21948957D-03  0.23154586D-18 -0.76843557D-13
 -0.39629320D-03  0.23659804D-18 -0.14553397D-12 -0.36422004D-03  0.52471824D-19
  0.34610739D-13 -0.79696473D-05  0.82700057D-05  0.62685866D-04 -0.70955872D-04
  0.65054080D-17  0.15117838D-17  0.84945325D-12 -0.11784643D-03 -0.64265577D-04
  0.18211201D-03 -0.21255428D-17 -0.31103690D-18 -0.70909476D-12 -0.45685204D-04
 -0.21635425D-04  0.67320629D-04 -0.71076222D-18 -0.11171679D-18  0.81735286D-13
 -0.47459847D-18  0.35204769D-13  0.89850010D-05  0.21740347D-17  0.15475049D-12
  0.23343066D-03 -0.75023925D-18 -0.26036479D-12 -0.26038566D-03 -0.14154086D-16
  0.10604275D-18 -0.78595442D-13 -0.18038514D-04 -0.44843574D-18 -0.20391506D-12
  0.40855200D-04  0.13030750D-18  0.43970138D-12  0.13260342D-04  0.53682337D-17
MO    3     MO 0.0        OCC NO =    2.0000000  ORB. ENERGY =  -19.267018
  0.16222541D-03  0.30239520D-03  0.51263420D-03  0.77627926D-03  0.97073994D-03
  0.83571667D-03  0.32128000D-03 -0.13921588D-05 -0.10546155D-03 -0.19803812D-03
 -0.33722476D-03 -0.52826060D-03 -0.70793135D-03 -0.76147561D-03 -0.45718896D-03
  0.30066669D-03 -0.19157778D-03  0.85046274D-03 -0.39751304D-05 -0.40358618D-15
 -0.39469847D-15 -0.26079397D-15  0.43213782D-03  0.42262135D-03  0.27924379D-03
 -0.53255672D-03 -0.52082884D-03 -0.34413363D-03  0.14559076D-15 -0.58146110D-03
  0.58689174D-03 -0.36148509D-16 -0.28378679D-03  0.20093890D-03 -0.42714837D-18
 -0.15935005D-04 -0.38370510D-04 -0.38097882D-03  0.10983456D-03  0.27114426D-03
 -0.82367065D-17  0.41645651D-17  0.32673411D-03 -0.23120109D-04  0.75639312D-04
 -0.52519204D-04  0.27326201D-17 -0.12307922D-17 -0.62405886D-03  0.20667827D-04
  0.13197319D-04 -0.33865146D-04 -0.54429309D-18  0.73172865D-18 -0.77165327D-04
  0.31338923D-17 -0.34514639D-04  0.32324481D-03  0.13526276D-18  0.99586377D-03
 -0.74611267D-03 -0.95369397D-17 -0.89231985D-03 -0.22362176D-03  0.53969763D-17
 -0.72277136D-18  0.74831567D-04 -0.17605714D-03 -0.52345468D-18 -0.28844625D-03
  0.18104340D-03  0.26917688D-17  0.63951547D-04  0.34712800D-03 -0.31442533D-18
  0.16222541D-03  0.30239520D-03  0.51263420D-03  0.77627926D-03  0.97073994D-03
  0.83571667D-03  0.32128000D-03 -0.13921588D-05 -0.10546155D-03 -0.19803812D-03
 -0.33722476D-03 -0.52826060D-03 -0.70793135D-03 -0.76147561D-03 -0.45718896D-03
  0.30066669D-03 -0.19157778D-03  0.85046274D-03 -0.39751304D-05 -0.33166469D-17
 -0.32436082D-17 -0.21431891D-17 -0.43213782D-03 -0.42262135D-03 -0.27924379D-03
 -0.53255672D-03 -0.52082884D-03 -0.34413363D-03  0.10950190D-17  0.58146110D-03
  0.58689174D-03  0.15762795D-17  0.28378679D-03  0.20093890D-03 -0.19119098D-18
  0.15935005D-04 -0.38370510D-04 -0.38097882D-03  0.10983456D-03  0.27114426D-03
 -0.17254208D-16 -0.11963341D-16 -0.32673411D-03 -0.23120109D-04  0.75639312D-04
 -0.52519204D-04  0.49737692D-17  0.55383282D-17  0.62405886D-03  0.20667827D-04
  0.13197319D-04 -0.33865146D-04 -0.13937105D-19 -0.91231919D-18  0.77165327D-04
  0.14207103D-17  0.34514639D-04  0.32324481D-03 -0.85867278D-17 -0.99586377D-03
 -0.74611267D-03  0.43245968D-17  0.89231985D-03 -0.22362176D-03  0.18696680D-18
 -0.57817973D-18 -0.74831567D-04 -0.17605714D-03  0.29717174D-17  0.28844625D-03
  0.18104340D-03 -0.12371782D-17 -0.63951547D-04  0.34712800D-03  0.22766568D-17
  0.31517746D-03  0.58756244D-03  0.99308402D-03  0.14929306D-02  0.18342377D-02
  0.15493070D-02  0.58434159D-03 -0.28919391D-05 -0.25836305D-03 -0.48373715D-03
 -0.82360389D-03 -0.12739900D-02 -0.16778000D-02 -0.17433417D-02 -0.11078154D-02
  0.74243210D-03  0.14313205D-02 -0.13523431D-02 -0.43342256D-04 -0.84372925D-17
 -0.79104980D-17 -0.56327458D-17 -0.24528813D-15 -0.22997321D-15 -0.16375463D-15
  0.13153797D-02  0.12332521D-02  0.87814898D-03 -0.18714178D-17  0.15871854D-14
  0.81731166D-03 -0.14040172D-18  0.25290335D-15 -0.41285266D-03  0.17332831D-18
  0.11580868D-17  0.80257650D-05 -0.17775548D-03 -0.18713207D-03  0.36488755D-03
  0.27781592D-17  0.38740657D-17 -0.64690174D-15  0.47974778D-03  0.49456018D-04
 -0.52920379D-03 -0.66995119D-18 -0.21523424D-18 -0.36918630D-15  0.24856906D-04
  0.49295037D-04 -0.74151943D-04 -0.24488137D-18  0.55058792D-18 -0.61771265D-17
  0.52646038D-18 -0.31886736D-16 -0.87590670D-03  0.72308132D-18 -0.17065875D-15
  0.65523665D-03 -0.23024625D-17  0.26631895D-15  0.19724835D-02 -0.11684492D-16
  0.40159859D-18  0.43798640D-16 -0.14444020D-03 -0.88351540D-18 -0.83379569D-18
  0.58627828D-04 -0.32128038D-18 -0.13056213D-15  0.37469277D-03 -0.78948050D-18
  0.49706702D+00  0.92646896D+00  0.15709844D+01  0.23777580D+01  0.29667478D+01
  0.25480407D+01  0.97824237D+00 -0.43757382D-02  0.74347350D-04  0.13944030D-03
  0.23771514D-03  0.37150249D-03  0.49676961D-03  0.53043413D-03  0.32429703D-03
 -0.21395148D-03  0.54214607D-01  0.15492654D-02  0.14092190D-03  0.54494683D-17
  0.52841511D-17  0.35646571D-17 -0.56039298D-16 -0.54339269D-16 -0.36656950D-16
 -0.85976541D-02 -0.83368324D-02 -0.56239779D-02  0.19093140D-18  0.57853376D-16
 -0.27025648D-03  0.40416373D-18  0.36050177D-16  0.76480780D-03 -0.64281220D-18
 -0.10581488D-19 -0.92309031D-06 -0.17592973D-02 -0.16890318D-02  0.34483291D-02
 -0.32328555D-17  0.11707500D-17 -0.16044357D-15  0.42506549D-03  0.23762046D-03
 -0.66268595D-03  0.18466110D-17 -0.26191743D-18  0.24433437D-15  0.17003094D-03
  0.78542238D-04 -0.24857318D-03 -0.15563376D-18 -0.21561779D-18 -0.43715005D-17
  0.29913831D-18  0.29165296D-16 -0.35533188D-03  0.84117560D-18  0.69639276D-16
  0.51894061D-03 -0.17385905D-17 -0.15713516D-15  0.54705504D-03  0.12214512D-16
  0.56449371D-19  0.36428056D-16  0.23821703D-03 -0.90545394D-18  0.15887381D-16
 -0.50107210D-03  0.73610582D-18 -0.12517155D-15 -0.21357899D-03 -0.18647143D-17
MO    4     MO 0.0        OCC NO =    2.0000000  ORB. ENERGY =  -10.492671
  0.38285973D-03  0.71366713D-03  0.12098412D-02  0.18320562D-02  0.22909927D-02
  0.19723313D-02  0.75823616D-03 -0.32855614D-05 -0.31374212D-03 -0.58915214D-03
 -0.10032245D-02 -0.15715452D-02 -0.21060555D-02 -0.22653466D-02 -0.13601111D-02
  0.89446631D-03  0.33070597D-03  0.49118557D-03 -0.29090010D-03  0.69420608D-15
  0.67891839D-15  0.44859008D-15 -0.14273583D-02 -0.13959252D-02 -0.92234683D-03
  0.12547607D-02  0.12271286D-02  0.81081572D-03  0.30076848D-16 -0.12820836D-03
  0.18549914D-04 -0.87556698D-17  0.54605094D-03 -0.19943200D-03 -0.14762077D-18
  0.16748391D-04 -0.75726196D-04 -0.12924862D-02  0.81760117D-03  0.47488503D-03
  0.15306775D-17 -0.13818421D-17 -0.50382829D-02  0.74598827D-03 -0.41134541D-03
 -0.33464286D-03 -0.29232261D-17  0.13174653D-17  0.27497020D-02  0.20982010D-03
 -0.22156970D-03  0.11749595D-04  0.85809389D-18 -0.25760326D-18  0.36493306D-03
 -0.64334150D-18  0.27720488D-04 -0.22673636D-03  0.26754722D-17  0.63705201D-03
 -0.67783533D-03 -0.74544772D-18 -0.72021347D-03  0.13580444D-02  0.18877958D-17
 -0.59875812D-19 -0.11463705D-03  0.42738502D-03 -0.34803347D-18 -0.11318932D-02
  0.10550713D-02  0.52766091D-18  0.14758043D-02 -0.23372263D-02 -0.63670927D-18
  0.38285973D-03  0.71366713D-03  0.12098412D-02  0.18320562D-02  0.22909927D-02
  0.19723313D-02  0.75823616D-03 -0.32855614D-05 -0.31374212D-03 -0.58915214D-03
 -0.10032245D-02 -0.15715452D-02 -0.21060555D-02 -0.22653466D-02 -0.13601111D-02
  0.89446631D-03  0.33070597D-03  0.49118557D-03 -0.29090010D-03 -0.34004178D-19
 -0.33255343D-19 -0.21973211D-19  0.14273583D-02  0.13959252D-02  0.92234683D-03
  0.12547607D-02  0.12271286D-02  0.81081572D-03  0.29586743D-18  0.12820836D-03
  0.18549914D-04  0.73610427D-18 -0.54605094D-03 -0.19943200D-03 -0.90753614D-19
 -0.16748391D-04 -0.75726196D-04 -0.12924862D-02  0.81760117D-03  0.47488503D-03
 -0.41401475D-17  0.23429662D-17  0.50382829D-02  0.74598827D-03 -0.41134541D-03
 -0.33464286D-03  0.18348499D-17 -0.84167227D-18 -0.27497020D-02  0.20982010D-03
 -0.22156970D-03  0.11749595D-04  0.17504331D-18  0.99684218D-18 -0.36493306D-03
  0.29570380D-17 -0.27720488D-04 -0.22673636D-03 -0.54796933D-17 -0.63705201D-03
 -0.67783533D-03 -0.33914208D-17  0.72021347D-03  0.13580444D-02 -0.28034950D-17
 -0.11511273D-17  0.11463705D-03  0.42738502D-03  0.22677572D-17  0.11318932D-02
  0.10550713D-02  0.11856247D-17 -0.14758043D-02 -0.23372263D-02  0.23039990D-17
  0.32924301D+00  0.61378382D+00  0.10374028D+01  0.15595562D+01  0.19160950D+01
  0.16184485D+01  0.61041923D+00 -0.30209989D-02 -0.26598248D-02 -0.49800312D-02
 -0.84789293D-02 -0.13115614D-01 -0.17272803D-01 -0.17947548D-01 -0.11404861D-01
  0.76432728D-02  0.34518065D-01  0.11703488D-02  0.14945590D-03  0.13790459D-16
  0.12929432D-16  0.92065255D-17 -0.27918512D-14 -0.26175380D-14 -0.18638430D-14
 -0.27132588D-02 -0.25438526D-02 -0.18113746D-02 -0.36790480D-17  0.14304117D-13
  0.43931096D-02  0.37229743D-18  0.32696596D-14 -0.17476198D-04  0.69583568D-19
 -0.53504663D-17  0.17588005D-04 -0.54869747D-02  0.43496724D-03  0.50520075D-02
  0.99655570D-18 -0.46573324D-18 -0.65350950D-14  0.38313745D-03 -0.50990522D-03
  0.12676778D-03 -0.24893858D-18 -0.13396059D-18 -0.66946420D-14  0.42507330D-04
  0.42073133D-04 -0.84580463D-04  0.24257046D-18 -0.40877289D-18 -0.34130219D-15
  0.16048764D-17  0.54443433D-16  0.18193154D-02 -0.28686981D-17 -0.28073392D-14
 -0.11932123D-02 -0.19459312D-17  0.26440089D-14 -0.42647341D-02 -0.14551753D-17
  0.47955382D-19 -0.17031320D-16 -0.26108645D-03 -0.12470770D-18  0.79306015D-16
  0.21294526D-04 -0.19158451D-19 -0.28212055D-16  0.76196483D-03 -0.43582356D-18
  0.10425534D-03  0.19431855D-03  0.32949987D-03  0.49871341D-03  0.62224872D-03
  0.53442867D-03  0.20517756D-03 -0.91777180D-06 -0.18914291D-03 -0.35474222D-03
 -0.60475771D-03 -0.94511859D-03 -0.12638036D-02 -0.13494476D-02 -0.82502582D-03
  0.54430193D-03  0.10229169D-02 -0.31303042D-02 -0.68784861D-03 -0.27273209D-18
 -0.26445838D-18 -0.17840206D-18  0.10420123D-16  0.10104014D-16  0.68161082D-17
 -0.38689409D-02 -0.37515712D-02 -0.25307878D-02  0.27995370D-18 -0.31455411D-17
  0.43479582D-02  0.10035588D-17  0.91666821D-15  0.31959239D-02  0.71020713D-19
  0.19097049D-15  0.72933975D-04 -0.27206143D-03 -0.36453166D-03  0.63659309D-03
 -0.50307637D-17  0.16537185D-18 -0.16060607D-15  0.15874758D-02  0.16410239D-02
 -0.32284998D-02  0.22914153D-17 -0.14115950D-17  0.65248722D-15  0.36880357D-03
  0.23605995D-03 -0.60486352D-03  0.29429375D-18 -0.47515443D-18 -0.57388959D-15
  0.12480094D-17  0.14514361D-15  0.71422498D-03 -0.31137173D-17  0.11003652D-14
 -0.70500236D-03 -0.63031081D-18 -0.15357960D-14 -0.14376726D-02  0.93288759D-17
 -0.48919257D-18  0.10907504D-15  0.62534318D-03  0.55743614D-18 -0.16142318D-15
 -0.89949262D-03  0.91014158D-18 -0.16580193D-15 -0.97653691D-03 -0.42980176D-17
MO    5     MO 0.0        OCC NO =    2.0000000  ORB. ENERGY =   -1.380163
 -0.49651666D-02 -0.92552856D-02 -0.15689984D-01 -0.23759261D-01 -0.29711039D-01
 -0.25578437D-01 -0.98332849D-02  0.42609233D-04 -0.80568316D-01 -0.15129303D+00
 -0.25762594D+00 -0.40356950D+00 -0.54083061D+00 -0.58173624D+00 -0.34927368D+00
  0.22969707D+00  0.13426644D+00  0.55424661D-01  0.17044664D-02 -0.72227226D-15
 -0.70636649D-15 -0.46672621D-15 -0.26294592D+00 -0.25715537D+00 -0.16991342D+00
  0.15911519D+00  0.15561118D+00  0.10281888D+00  0.27638754D-15 -0.61250700D-01
  0.36290421D-01 -0.41455024D-16 -0.48715985D-02  0.19705744D-02  0.24226962D-16
  0.34708535D-04  0.10859378D-03 -0.14480622D-01  0.16405360D-01 -0.19247375D-02
  0.97677372D-15 -0.74401269D-15 -0.41958506D-01 -0.61612405D-02  0.77384519D-02
 -0.15772114D-02  0.54532698D-16  0.24542946D-16 -0.16933399D-01 -0.22301558D-03
  0.23959161D-03 -0.16576026D-04 -0.18750193D-16  0.86592952D-17 -0.48347866D-04
  0.60255670D-17 -0.19282048D-02 -0.35200652D-02 -0.40102925D-16  0.96990576D-02
 -0.40352696D-02  0.22026224D-16 -0.39144433D-02  0.14595465D-01  0.79985617D-17
 -0.40158786D-17 -0.63405580D-03 -0.59108958D-03  0.20216187D-16  0.24919260D-02
 -0.22829851D-02 -0.81685516D-17 -0.58975861D-03  0.40562538D-02 -0.76068694D-17
 -0.49651666D-02 -0.92552856D-02 -0.15689984D-01 -0.23759261D-01 -0.29711039D-01
 -0.25578437D-01 -0.98332849D-02  0.42609233D-04 -0.80568316D-01 -0.15129303D+00
 -0.25762594D+00 -0.40356950D+00 -0.54083061D+00 -0.58173624D+00 -0.34927368D+00
  0.22969707D+00  0.13426644D+00  0.55424661D-01  0.17044664D-02  0.34046739D-16
  0.33296967D-16  0.22000714D-16  0.26294592D+00  0.25715537D+00  0.16991342D+00
  0.15911519D+00  0.15561118D+00  0.10281888D+00  0.96202696D-17  0.61250700D-01
  0.36290421D-01  0.21956858D-18  0.48715985D-02  0.19705744D-02 -0.16192305D-17
 -0.34708535D-04  0.10859378D-03 -0.14480622D-01  0.16405360D-01 -0.19247375D-02
 -0.97632123D-17 -0.29043781D-16  0.41958506D-01 -0.61612405D-02  0.77384519D-02
 -0.15772114D-02 -0.88485747D-19 -0.18593764D-17  0.16933399D-01 -0.22301558D-03
  0.23959161D-03 -0.16576026D-04  0.69152550D-18 -0.18163216D-17  0.48347866D-04
 -0.17522895D-16  0.19282048D-02 -0.35200652D-02  0.46087706D-16 -0.96990576D-02
 -0.40352696D-02  0.64809787D-17  0.39144433D-02  0.14595465D-01  0.13319238D-16
  0.46640710D-17  0.63405580D-03 -0.59108958D-03 -0.12040335D-16 -0.24919260D-02
 -0.22829851D-02 -0.19518782D-17  0.58975861D-03  0.40562538D-02 -0.72207030D-17