 Molden2AIM, Version 4.0.0 (06/02/2016)           Time: Fri Jun 29 19:47:40 2018
GAUSSIAN             38 MOL ORBITALS    665 PRIMITIVES        7 NUCLEI
  C    1    (CENTRE  1)   2.36968066  0.01045208 -0.03914568  CHARGE =  6.0
  N    2    (CENTRE  2)   0.26153054  1.59198655 -0.55376156  CHARGE =  7.0
  H    3    (CENTRE  3)   0.31917474  3.08032539  0.66830164  CHARGE =  1.0
  F    4    (CENTRE  4)   4.45174310  1.43710081 -0.32361560  CHARGE =  9.0
  F    5    (CENTRE  5)   2.45699356 -0.96647019  2.31800609  CHARGE =  9.0
  F    6    (CENTRE  6)   2.46338273 -1.92212359 -1.65140520  CHARGE =  9.0
  Br   7    (CENTRE  7)  -2.85548578 -0.04223916  0.00195587  CHARGE = 35.0
CENTRE ASSIGNMENTS    1  1  1  1  1  1  1  1  1  1  1  1  1  1  1  1  1  1  1  1
CENTRE ASSIGNMENTS    1  1  1  1  1  1  1  1  1  1  1  1  1  1  1  1  1  1  1  1
CENTRE ASSIGNMENTS    1  1  1  1  1  1  1  1  1  1  1  1  1  1  1  1  1  1  1  1
CENTRE ASSIGNMENTS    1  1  1  1  1  1  1  1  1  1  1  1  1  1  1  2  2  2  2  2
CENTRE ASSIGNMENTS    2  2  2  2  2  2  2  2  2  2  2  2  2  2  2  2  2  2  2  2
CENTRE ASSIGNMENTS    2  2  2  2  2  2  2  2  2  2  2  2  2  2  2  2  2  2  2  2
CENTRE ASSIGNMENTS    2  2  2  2  2  2  2  2  2  2  2  2  2  2  2  2  2  2  2  2
CENTRE ASSIGNMENTS    2  2  2  2  2  2  2  2  2  2  3  3  3  3  3  3  3  3  3  3
CENTRE ASSIGNMENTS    3  3  3  3  3  3  3  3  3  3  3  3  3  3  3  3  3  4  4  4
CENTRE ASSIGNMENTS    4  4  4  4  4  4  4  4  4  4  4  4  4  4  4  4  4  4  4  4
CENTRE ASSIGNMENTS    4  4  4  4  4  4  4  4  4  4  4  4  4  4  4  4  4  4  4  4
CENTRE ASSIGNMENTS    4  4  4  4  4  4  4  4  4  4  4  4  4  4  4  4  4  4  4  4
CENTRE ASSIGNMENTS    4  4  4  4  4  4  4  4  4  4  4  4  5  5  5  5  5  5  5  5
CENTRE ASSIGNMENTS    5  5  5  5  5  5  5  5  5  5  5  5  5  5  5  5  5  5  5  5
CENTRE ASSIGNMENTS    5  5  5  5  5  5  5  5  5  5  5  5  5  5  5  5  5  5  5  5
CENTRE ASSIGNMENTS    5  5  5  5  5  5  5  5  5  5  5  5  5  5  5  5  5  5  5  5
CENTRE ASSIGNMENTS    5  5  5  5  5  5  5  6  6  6  6  6  6  6  6  6  6  6  6  6
CENTRE ASSIGNMENTS    6  6  6  6  6  6  6  6  6  6  6  6  6  6  6  6  6  6  6  6
CENTRE ASSIGNMENTS    6  6  6  6  6  6  6  6  6  6  6  6  6  6  6  6  6  6  6  6
CENTRE ASSIGNMENTS    6  6  6  6  6  6  6  6  6  6  6  6  6  6  6  6  6  6  6  6
CENTRE ASSIGNMENTS    6  6  7  7  7  7  7  7  7  7  7  7  7  7  7  7  7  7  7  7
CENTRE ASSIGNMENTS    7  7  7  7  7  7  7  7  7  7  7  7  7  7  7  7  7  7  7  7
CENTRE ASSIGNMENTS    7  7  7  7  7  7  7  7  7  7  7  7  7  7  7  7  7  7  7  7
CENTRE ASSIGNMENTS    7  7  7  7  7  7  7  7  7  7  7  7  7  7  7  7  7  7  7  7
CENTRE ASSIGNMENTS    7  7  7  7  7  7  7  7  7  7  7  7  7  7  7  7  7  7  7  7
CENTRE ASSIGNMENTS    7  7  7  7  7  7  7  7  7  7  7  7  7  7  7  7  7  7  7  7
CENTRE ASSIGNMENTS    7  7  7  7  7  7  7  7  7  7  7  7  7  7  7  7  7  7  7  7
CENTRE ASSIGNMENTS    7  7  7  7  7  7  7  7  7  7  7  7  7  7  7  7  7  7  7  7
CENTRE ASSIGNMENTS    7  7  7  7  7  7  7  7  7  7  7  7  7  7  7  7  7  7  7  7
CENTRE ASSIGNMENTS    7  7  7  7  7  7  7  7  7  7  7  7  7  7  7  7  7  7  7  7
CENTRE ASSIGNMENTS    7  7  7  7  7  7  7  7  7  7  7  7  7  7  7  7  7  7  7  7
CENTRE ASSIGNMENTS    7  7  7  7  7  7  7  7  7  7  7  7  7  7  7  7  7  7  7  7
CENTRE ASSIGNMENTS    7  7  7  7  7  7  7  7  7  7  7  7  7  7  7  7  7  7  7  7
CENTRE ASSIGNMENTS    7  7  7  7  7
TYPE ASSIGNMENTS      1  1  1  1  1  1  1  1  1  1  1  1  1  1  1  1  1  1  1  2
TYPE ASSIGNMENTS      2  2  3  3  3  4  4  4  2  3  4  2  3  4  2  3  4  5  6  7
TYPE ASSIGNMENTS      8  9 10  5  6  7  8  9 10  5  6  7  8  9 10 11 12 13 17 14
TYPE ASSIGNMENTS     15 18 19 16 20 11 12 13 17 14 15 18 19 16 20  1  1  1  1  1
TYPE ASSIGNMENTS      1  1  1  1  1  1  1  1  1  1  1  1  1  1  2  2  2  3  3  3
TYPE ASSIGNMENTS      4  4  4  2  3  4  2  3  4  2  3  4  5  6  7  8  9 10  5  6
TYPE ASSIGNMENTS      7  8  9 10  5  6  7  8  9 10 11 12 13 17 14 15 18 19 16 20
TYPE ASSIGNMENTS     11 12 13 17 14 15 18 19 16 20  1  1  1  1  1  1  2  3  4  2
TYPE ASSIGNMENTS      3  4  2  3  4  5  6  7  8  9 10  5  6  7  8  9 10  1  1  1
TYPE ASSIGNMENTS      1  1  1  1  1  1  1  1  1  1  1  1  1  1  1  1  2  2  2  3
TYPE ASSIGNMENTS      3  3  4  4  4  2  3  4  2  3  4  2  3  4  5  6  7  8  9 10
TYPE ASSIGNMENTS      5  6  7  8  9 10  5  6  7  8  9 10 11 12 13 17 14 15 18 19
TYPE ASSIGNMENTS     16 20 11 12 13 17 14 15 18 19 16 20  1  1  1  1  1  1  1  1
TYPE ASSIGNMENTS      1  1  1  1  1  1  1  1  1  1  1  2  2  2  3  3  3  4  4  4
TYPE ASSIGNMENTS      2  3  4  2  3  4  2  3  4  5  6  7  8  9 10  5  6  7  8  9
TYPE ASSIGNMENTS     10  5  6  7  8  9 10 11 12 13 17 14 15 18 19 16 20 11 12 13
TYPE ASSIGNMENTS     17 14 15 18 19 16 20  1  1  1  1  1  1  1  1  1  1  1  1  1
TYPE ASSIGNMENTS      1  1  1  1  1  1  2  2  2  3  3  3  4  4  4  2  3  4  2  3
TYPE ASSIGNMENTS      4  2  3  4  5  6  7  8  9 10  5  6  7  8  9 10  5  6  7  8
TYPE ASSIGNMENTS      9 10 11 12 13 17 14 15 18 19 16 20 11 12 13 17 14 15 18 19
TYPE ASSIGNMENTS     16 20  1  1  1  1  1  1  1  1  1  1  1  1  1  1  1  1  1  1
TYPE ASSIGNMENTS      1  1  1  1  1  1  1  1  1  1  1  1  1  1  1  1  1  1  1  1
TYPE ASSIGNMENTS      1  1  1  1  1  1  1  1  1  1  1  1  1  1  1  1  1  1  1  1
TYPE ASSIGNMENTS      1  1  1  1  1  1  1  1  1  1  1  1  1  1  1  1  1  2  2  2
TYPE ASSIGNMENTS      2  2  2  2  2  2  2  2  3  3  3  3  3  3  3  3  3  3  3  4
TYPE ASSIGNMENTS      4  4  4  4  4  4  4  4  4  4  2  2  2  2  2  2  2  2  2  2
TYPE ASSIGNMENTS      2  3  3  3  3  3  3  3  3  3  3  3  4  4  4  4  4  4  4  4
TYPE ASSIGNMENTS      4  4  4  2  2  2  2  2  2  2  2  2  2  2  3  3  3  3  3  3
TYPE ASSIGNMENTS      3  3  3  3  3  4  4  4  4  4  4  4  4  4  4  4  2  3  4  2
TYPE ASSIGNMENTS      3  4  2  3  4  5  5  5  5  5  5  5  6  6  6  6  6  6  6  7
TYPE ASSIGNMENTS      7  7  7  7  7  7  8  8  8  8  8  8  8  9  9  9  9  9  9  9
TYPE ASSIGNMENTS     10 10 10 10 10 10 10  5  6  7  8  9 10  5  6  7  8  9 10  5
TYPE ASSIGNMENTS      6  7  8  9 10 11 12 13 17 14 15 18 19 16 20 11 12 13 17 14
TYPE ASSIGNMENTS     15 18 19 16 20
EXPONENTS  0.8236000D+04 0.1235000D+04 0.2808000D+03 0.7927000D+02 0.2559000D+02
EXPONENTS  0.8997000D+01 0.3319000D+01 0.3643000D+00 0.8236000D+04 0.1235000D+04
EXPONENTS  0.2808000D+03 0.7927000D+02 0.2559000D+02 0.8997000D+01 0.3319000D+01
EXPONENTS  0.3643000D+00 0.9059000D+00 0.1285000D+00 0.4402000D-01 0.1871000D+02
EXPONENTS  0.4133000D+01 0.1200000D+01 0.1871000D+02 0.4133000D+01 0.1200000D+01
EXPONENTS  0.1871000D+02 0.4133000D+01 0.1200000D+01 0.3827000D+00 0.3827000D+00
EXPONENTS  0.3827000D+00 0.1209000D+00 0.1209000D+00 0.1209000D+00 0.3569000D-01
EXPONENTS  0.3569000D-01 0.3569000D-01 0.1097000D+01 0.1097000D+01 0.1097000D+01
EXPONENTS  0.1097000D+01 0.1097000D+01 0.1097000D+01 0.3180000D+00 0.3180000D+00
EXPONENTS  0.3180000D+00 0.3180000D+00 0.3180000D+00 0.3180000D+00 0.1000000D+00
EXPONENTS  0.1000000D+00 0.1000000D+00 0.1000000D+00 0.1000000D+00 0.1000000D+00
EXPONENTS  0.7610000D+00 0.7610000D+00 0.7610000D+00 0.7610000D+00 0.7610000D+00
EXPONENTS  0.7610000D+00 0.7610000D+00 0.7610000D+00 0.7610000D+00 0.7610000D+00
EXPONENTS  0.2680000D+00 0.2680000D+00 0.2680000D+00 0.2680000D+00 0.2680000D+00
EXPONENTS  0.2680000D+00 0.2680000D+00 0.2680000D+00 0.2680000D+00 0.2680000D+00
EXPONENTS  0.1142000D+05 0.1712000D+04 0.3893000D+03 0.1100000D+03 0.3557000D+02
EXPONENTS  0.1254000D+02 0.4644000D+01 0.5118000D+00 0.1142000D+05 0.1712000D+04
EXPONENTS  0.3893000D+03 0.1100000D+03 0.3557000D+02 0.1254000D+02 0.4644000D+01
EXPONENTS  0.5118000D+00 0.1293000D+01 0.1787000D+00 0.5760000D-01 0.2663000D+02
EXPONENTS  0.5948000D+01 0.1742000D+01 0.2663000D+02 0.5948000D+01 0.1742000D+01
EXPONENTS  0.2663000D+02 0.5948000D+01 0.1742000D+01 0.5550000D+00 0.5550000D+00
EXPONENTS  0.5550000D+00 0.1725000D+00 0.1725000D+00 0.1725000D+00 0.4910000D-01
EXPONENTS  0.4910000D-01 0.4910000D-01 0.1654000D+01 0.1654000D+01 0.1654000D+01
EXPONENTS  0.1654000D+01 0.1654000D+01 0.1654000D+01 0.4690000D+00 0.4690000D+00
EXPONENTS  0.4690000D+00 0.4690000D+00 0.4690000D+00 0.4690000D+00 0.1510000D+00
EXPONENTS  0.1510000D+00 0.1510000D+00 0.1510000D+00 0.1510000D+00 0.1510000D+00
EXPONENTS  0.1093000D+01 0.1093000D+01 0.1093000D+01 0.1093000D+01 0.1093000D+01
EXPONENTS  0.1093000D+01 0.1093000D+01 0.1093000D+01 0.1093000D+01 0.1093000D+01
EXPONENTS  0.3640000D+00 0.3640000D+00 0.3640000D+00 0.3640000D+00 0.3640000D+00
EXPONENTS  0.3640000D+00 0.3640000D+00 0.3640000D+00 0.3640000D+00 0.3640000D+00
EXPONENTS  0.3387000D+02 0.5095000D+01 0.1159000D+01 0.3258000D+00 0.1027000D+00
EXPONENTS  0.2526000D-01 0.1407000D+01 0.1407000D+01 0.1407000D+01 0.3880000D+00
EXPONENTS  0.3880000D+00 0.3880000D+00 0.1020000D+00 0.1020000D+00 0.1020000D+00
EXPONENTS  0.1057000D+01 0.1057000D+01 0.1057000D+01 0.1057000D+01 0.1057000D+01
EXPONENTS  0.1057000D+01 0.2470000D+00 0.2470000D+00 0.2470000D+00 0.2470000D+00
EXPONENTS  0.2470000D+00 0.2470000D+00 0.1950000D+05 0.2923000D+04 0.6645000D+03
EXPONENTS  0.1875000D+03 0.6062000D+02 0.2142000D+02 0.7950000D+01 0.8815000D+00
EXPONENTS  0.1950000D+05 0.2923000D+04 0.6645000D+03 0.1875000D+03 0.6062000D+02
EXPONENTS  0.2142000D+02 0.7950000D+01 0.8815000D+00 0.2257000D+01 0.3041000D+00
EXPONENTS  0.9158000D-01 0.4388000D+02 0.9926000D+01 0.2930000D+01 0.4388000D+02
EXPONENTS  0.9926000D+01 0.2930000D+01 0.4388000D+02 0.9926000D+01 0.2930000D+01
EXPONENTS  0.9132000D+00 0.9132000D+00 0.9132000D+00 0.2672000D+00 0.2672000D+00
EXPONENTS  0.2672000D+00 0.7361000D-01 0.7361000D-01 0.7361000D-01 0.3107000D+01
EXPONENTS  0.3107000D+01 0.3107000D+01 0.3107000D+01 0.3107000D+01 0.3107000D+01
EXPONENTS  0.8550000D+00 0.8550000D+00 0.8550000D+00 0.8550000D+00 0.8550000D+00
EXPONENTS  0.8550000D+00 0.2920000D+00 0.2920000D+00 0.2920000D+00 0.2920000D+00
EXPONENTS  0.2920000D+00 0.2920000D+00 0.1917000D+01 0.1917000D+01 0.1917000D+01
EXPONENTS  0.1917000D+01 0.1917000D+01 0.1917000D+01 0.1917000D+01 0.1917000D+01
EXPONENTS  0.1917000D+01 0.1917000D+01 0.7240000D+00 0.7240000D+00 0.7240000D+00
EXPONENTS  0.7240000D+00 0.7240000D+00 0.7240000D+00 0.7240000D+00 0.7240000D+00
EXPONENTS  0.7240000D+00 0.7240000D+00 0.1950000D+05 0.2923000D+04 0.6645000D+03
EXPONENTS  0.1875000D+03 0.6062000D+02 0.2142000D+02 0.7950000D+01 0.8815000D+00
EXPONENTS  0.1950000D+05 0.2923000D+04 0.6645000D+03 0.1875000D+03 0.6062000D+02
EXPONENTS  0.2142000D+02 0.7950000D+01 0.8815000D+00 0.2257000D+01 0.3041000D+00
EXPONENTS  0.9158000D-01 0.4388000D+02 0.9926000D+01 0.2930000D+01 0.4388000D+02
EXPONENTS  0.9926000D+01 0.2930000D+01 0.4388000D+02 0.9926000D+01 0.2930000D+01
EXPONENTS  0.9132000D+00 0.9132000D+00 0.9132000D+00 0.2672000D+00 0.2672000D+00
EXPONENTS  0.2672000D+00 0.7361000D-01 0.7361000D-01 0.7361000D-01 0.3107000D+01
EXPONENTS  0.3107000D+01 0.3107000D+01 0.3107000D+01 0.3107000D+01 0.3107000D+01
EXPONENTS  0.8550000D+00 0.8550000D+00 0.8550000D+00 0.8550000D+00 0.8550000D+00
EXPONENTS  0.8550000D+00 0.2920000D+00 0.2920000D+00 0.2920000D+00 0.2920000D+00
EXPONENTS  0.2920000D+00 0.2920000D+00 0.1917000D+01 0.1917000D+01 0.1917000D+01
EXPONENTS  0.1917000D+01 0.1917000D+01 0.1917000D+01 0.1917000D+01 0.1917000D+01
EXPONENTS  0.1917000D+01 0.1917000D+01 0.7240000D+00 0.7240000D+00 0.7240000D+00
EXPONENTS  0.7240000D+00 0.7240000D+00 0.7240000D+00 0.7240000D+00 0.7240000D+00
EXPONENTS  0.7240000D+00 0.7240000D+00 0.1950000D+05 0.2923000D+04 0.6645000D+03
EXPONENTS  0.1875000D+03 0.6062000D+02 0.2142000D+02 0.7950000D+01 0.8815000D+00
EXPONENTS  0.1950000D+05 0.2923000D+04 0.6645000D+03 0.1875000D+03 0.6062000D+02
EXPONENTS  0.2142000D+02 0.7950000D+01 0.8815000D+00 0.2257000D+01 0.3041000D+00
EXPONENTS  0.9158000D-01 0.4388000D+02 0.9926000D+01 0.2930000D+01 0.4388000D+02
EXPONENTS  0.9926000D+01 0.2930000D+01 0.4388000D+02 0.9926000D+01 0.2930000D+01
EXPONENTS  0.9132000D+00 0.9132000D+00 0.9132000D+00 0.2672000D+00 0.2672000D+00
EXPONENTS  0.2672000D+00 0.7361000D-01 0.7361000D-01 0.7361000D-01 0.3107000D+01
EXPONENTS  0.3107000D+01 0.3107000D+01 0.3107000D+01 0.3107000D+01 0.3107000D+01
EXPONENTS  0.8550000D+00 0.8550000D+00 0.8550000D+00 0.8550000D+00 0.8550000D+00
EXPONENTS  0.8550000D+00 0.2920000D+00 0.2920000D+00 0.2920000D+00 0.2920000D+00
EXPONENTS  0.2920000D+00 0.2920000D+00 0.1917000D+01 0.1917000D+01 0.1917000D+01
EXPONENTS  0.1917000D+01 0.1917000D+01 0.1917000D+01 0.1917000D+01 0.1917000D+01
EXPONENTS  0.1917000D+01 0.1917000D+01 0.7240000D+00 0.7240000D+00 0.7240000D+00
EXPONENTS  0.7240000D+00 0.7240000D+00 0.7240000D+00 0.7240000D+00 0.7240000D+00
EXPONENTS  0.7240000D+00 0.7240000D+00 0.1063900D+08 0.1593400D+07 0.3626100D+06
EXPONENTS  0.1027000D+06 0.3350100D+05 0.1209300D+05 0.4715900D+04 0.1955600D+04
EXPONENTS  0.8526100D+03 0.3876700D+03 0.1826800D+03 0.8824500D+02 0.3926300D+02
EXPONENTS  0.1923400D+02 0.9405700D+01 0.4160100D+01 0.1899500D+01 0.3011400D+00
EXPONENTS  0.1063900D+08 0.1593400D+07 0.3626100D+06 0.1027000D+06 0.3350100D+05
EXPONENTS  0.1209300D+05 0.4715900D+04 0.1955600D+04 0.8526100D+03 0.3876700D+03
EXPONENTS  0.1826800D+03 0.8824500D+02 0.3926300D+02 0.1923400D+02 0.9405700D+01
EXPONENTS  0.4160100D+01 0.1899500D+01 0.3011400D+00 0.1063900D+08 0.1593400D+07
EXPONENTS  0.3626100D+06 0.1027000D+06 0.3350100D+05 0.1209300D+05 0.4715900D+04
EXPONENTS  0.1955600D+04 0.8526100D+03 0.3876700D+03 0.1826800D+03 0.8824500D+02
EXPONENTS  0.3926300D+02 0.1923400D+02 0.9405700D+01 0.4160100D+01 0.1899500D+01
EXPONENTS  0.3011400D+00 0.1063900D+08 0.1593400D+07 0.3626100D+06 0.1027000D+06
EXPONENTS  0.3350100D+05 0.1209300D+05 0.4715900D+04 0.1955600D+04 0.8526100D+03
EXPONENTS  0.3876700D+03 0.1826800D+03 0.8824500D+02 0.3926300D+02 0.1923400D+02
EXPONENTS  0.9405700D+01 0.4160100D+01 0.1899500D+01 0.3011400D+00 0.6047200D+00
EXPONENTS  0.1251500D+00 0.4559300D-01 0.8676500D+04 0.2055900D+04 0.6662300D+03
EXPONENTS  0.2531000D+03 0.1061200D+03 0.4724200D+02 0.2182500D+02 0.9968400D+01
EXPONENTS  0.4517100D+01 0.1998200D+01 0.2814500D+00 0.8676500D+04 0.2055900D+04
EXPONENTS  0.6662300D+03 0.2531000D+03 0.1061200D+03 0.4724200D+02 0.2182500D+02
EXPONENTS  0.9968400D+01 0.4517100D+01 0.1998200D+01 0.2814500D+00 0.8676500D+04
EXPONENTS  0.2055900D+04 0.6662300D+03 0.2531000D+03 0.1061200D+03 0.4724200D+02
EXPONENTS  0.2182500D+02 0.9968400D+01 0.4517100D+01 0.1998200D+01 0.2814500D+00
EXPONENTS  0.8676500D+04 0.2055900D+04 0.6662300D+03 0.2531000D+03 0.1061200D+03
EXPONENTS  0.4724200D+02 0.2182500D+02 0.9968400D+01 0.4517100D+01 0.1998200D+01
EXPONENTS  0.2814500D+00 0.8676500D+04 0.2055900D+04 0.6662300D+03 0.2531000D+03
EXPONENTS  0.1061200D+03 0.4724200D+02 0.2182500D+02 0.9968400D+01 0.4517100D+01
EXPONENTS  0.1998200D+01 0.2814500D+00 0.8676500D+04 0.2055900D+04 0.6662300D+03
EXPONENTS  0.2531000D+03 0.1061200D+03 0.4724200D+02 0.2182500D+02 0.9968400D+01
EXPONENTS  0.4517100D+01 0.1998200D+01 0.2814500D+00 0.8676500D+04 0.2055900D+04
EXPONENTS  0.6662300D+03 0.2531000D+03 0.1061200D+03 0.4724200D+02 0.2182500D+02
EXPONENTS  0.9968400D+01 0.4517100D+01 0.1998200D+01 0.2814500D+00 0.8676500D+04
EXPONENTS  0.2055900D+04 0.6662300D+03 0.2531000D+03 0.1061200D+03 0.4724200D+02
EXPONENTS  0.2182500D+02 0.9968400D+01 0.4517100D+01 0.1998200D+01 0.2814500D+00
EXPONENTS  0.8676500D+04 0.2055900D+04 0.6662300D+03 0.2531000D+03 0.1061200D+03
EXPONENTS  0.4724200D+02 0.2182500D+02 0.9968400D+01 0.4517100D+01 0.1998200D+01
EXPONENTS  0.2814500D+00 0.7098800D+00 0.7098800D+00 0.7098800D+00 0.1020400D+00
EXPONENTS  0.1020400D+00 0.1020400D+00 0.3514200D-01 0.3514200D-01 0.3514200D-01
EXPONENTS  0.4038300D+03 0.1211700D+03 0.4634500D+02 0.1972100D+02 0.8862400D+01
EXPONENTS  0.3996200D+01 0.1763600D+01 0.4038300D+03 0.1211700D+03 0.4634500D+02
EXPONENTS  0.1972100D+02 0.8862400D+01 0.3996200D+01 0.1763600D+01 0.4038300D+03
EXPONENTS  0.1211700D+03 0.4634500D+02 0.1972100D+02 0.8862400D+01 0.3996200D+01
EXPONENTS  0.1763600D+01 0.4038300D+03 0.1211700D+03 0.4634500D+02 0.1972100D+02
EXPONENTS  0.8862400D+01 0.3996200D+01 0.1763600D+01 0.4038300D+03 0.1211700D+03
EXPONENTS  0.4634500D+02 0.1972100D+02 0.8862400D+01 0.3996200D+01 0.1763600D+01
EXPONENTS  0.4038300D+03 0.1211700D+03 0.4634500D+02 0.1972100D+02 0.8862400D+01
EXPONENTS  0.3996200D+01 0.1763600D+01 0.7061900D+00 0.7061900D+00 0.7061900D+00
EXPONENTS  0.7061900D+00 0.7061900D+00 0.7061900D+00 0.2639000D+00 0.2639000D+00
EXPONENTS  0.2639000D+00 0.2639000D+00 0.2639000D+00 0.2639000D+00 0.1047000D+00
EXPONENTS  0.1047000D+00 0.1047000D+00 0.1047000D+00 0.1047000D+00 0.1047000D+00
EXPONENTS  0.5515000D+00 0.5515000D+00 0.5515000D+00 0.5515000D+00 0.5515000D+00
EXPONENTS  0.5515000D+00 0.5515000D+00 0.5515000D+00 0.5515000D+00 0.5515000D+00
EXPONENTS  0.2580000D+00 0.2580000D+00 0.2580000D+00 0.2580000D+00 0.2580000D+00
EXPONENTS  0.2580000D+00 0.2580000D+00 0.2580000D+00 0.2580000D+00 0.2580000D+00
MO    1     MO 0.0        OCC NO =    2.0000000  ORB. ENERGY = -483.313647
  0.18661136D-05  0.34788600D-05  0.58798862D-05  0.88393950D-05  0.10860218D-04
  0.91731903D-05  0.34597899D-05 -0.17122693D-07 -0.13103957D-05 -0.24534741D-05
 -0.41772497D-05 -0.64615701D-05 -0.85096605D-05 -0.88420823D-05 -0.56187464D-05
  0.37655532D-05  0.19131324D-05 -0.27443193D-04 -0.11874903D-05 -0.17769700D-06
 -0.16660224D-06 -0.11863072D-06  0.31642455D-05  0.29666813D-05  0.21124538D-05
 -0.17231911D-05 -0.16156012D-05 -0.11504043D-05 -0.85532283D-06 -0.92107301D-05
  0.58680527D-05  0.18435751D-04 -0.15552926D-05 -0.50137100D-05  0.91737836D-07
  0.32627532D-07  0.19782142D-06  0.19495397D-05 -0.26963237D-05  0.74678403D-06
  0.39219324D-05 -0.12308209D-05  0.11619134D-05 -0.90231729D-06 -0.80149432D-06
  0.17038116D-05 -0.17486323D-06 -0.21031626D-05 -0.92812396D-06 -0.21821958D-05
  0.11199233D-05  0.10622725D-05 -0.20903094D-06  0.10116810D-05  0.12965194D-06
 -0.14709246D-05  0.34326256D-06  0.38846653D-06  0.38551022D-05 -0.13026212D-05
  0.51276983D-06  0.55767163D-06  0.27283353D-06 -0.16781694D-05 -0.35362442D-05
  0.19859794D-05 -0.82393663D-06  0.11996001D-06 -0.45281434D-05  0.33088973D-06
 -0.23554937D-07 -0.14297949D-05  0.21409202D-05 -0.33632508D-06  0.98522892D-06
 -0.59078984D-05 -0.11008499D-04 -0.18618131D-04 -0.28037874D-04 -0.34712707D-04
 -0.29538947D-04 -0.11240114D-04  0.52642250D-07  0.41256228D-05  0.77355813D-05
  0.13160525D-04  0.20436906D-04  0.27120963D-04  0.28581772D-04  0.17722522D-04
 -0.11789029D-04 -0.27048178D-05  0.36324974D-04 -0.14655653D-04  0.68584582D-06
  0.65874671D-06  0.46195867D-06  0.15314588D-05  0.14709479D-05  0.10315302D-05
 -0.35001322D-05 -0.33618352D-05 -0.23575509D-05  0.70760034D-05  0.69363640D-05
  0.45616044D-05 -0.16503847D-05 -0.14756687D-04  0.10022736D-04  0.28565216D-06
  0.61554470D-06 -0.99381661D-06 -0.14226632D-04  0.17776544D-05  0.12448977D-04
 -0.17901564D-04  0.59844445D-05  0.30460479D-05  0.61611875D-05  0.78328970D-06
 -0.69444772D-05  0.65712301D-05 -0.96519594D-06  0.17521711D-05 -0.74397671D-06
  0.11212255D-05 -0.37724876D-06  0.37108738D-05 -0.57834045D-06 -0.37034465D-05
  0.14945140D-05  0.18274297D-05  0.14087473D-05 -0.19584297D-05 -0.57462827D-05
 -0.28803066D-05 -0.25251122D-05  0.26399371D-06 -0.13459352D-05 -0.15812286D-05
 -0.18211253D-05  0.94818145D-06 -0.15466242D-05  0.21073957D-05 -0.50084900D-05
  0.38154370D-05  0.33559801D-05  0.21639456D-05  0.82443568D-06  0.44698474D-05
  0.21948814D-06  0.39585591D-06  0.58368930D-06 -0.76118024D-05 -0.15177697D-05
 -0.42249860D-06 -0.62616390D-05 -0.47375581D-05  0.21695881D-05 -0.50407767D-06
  0.90369646D-05  0.48724382D-05  0.99728581D-06  0.23333473D-05  0.12345556D-05
  0.91737166D-06  0.91007218D-07 -0.10083789D-05  0.41828622D-05 -0.42741777D-06
 -0.65343958D-05 -0.39781431D-07 -0.61676917D-06  0.65655060D-06 -0.23248373D-05
  0.21019564D-05 -0.10828438D-05 -0.22244975D-05 -0.41465597D-05 -0.70294382D-05
 -0.10644641D-04 -0.13311161D-04 -0.11459670D-04 -0.44055154D-05  0.19089819D-07
  0.14584378D-05  0.27386879D-05  0.46635131D-05  0.73053657D-05  0.97900494D-05
  0.10530518D-04  0.63225093D-05 -0.41579481D-05  0.11982128D-05  0.58300825D-05
  0.26164864D-05  0.93288281D-06  0.91233902D-06  0.60282096D-06  0.25480796D-05
  0.24919662D-05  0.16465474D-05 -0.13357729D-06 -0.13063568D-06 -0.86316514D-07
  0.29163277D-06 -0.22619031D-05  0.44560055D-08 -0.96480406D-05  0.54198756D-05
  0.13199948D-05  0.63292367D-06 -0.67404940D-06 -0.12762576D-06 -0.11763603D-05
  0.52284092D-05 -0.40520489D-05 -0.33812294D-05  0.64163623D-06 -0.60040666D-06
  0.18151949D-06 -0.16415603D-05  0.14600408D-05  0.23425949D-05 -0.63729386D-06
  0.43184318D-07  0.39874138D-05 -0.25538942D-05 -0.14335196D-05 -0.12325200D-05
 -0.14384060D-05  0.29165146D-06  0.63492561D-05 -0.11211436D-06 -0.34720451D-06
 -0.11447621D-04 -0.23065081D-05 -0.12247498D-05 -0.76001470D-05  0.26428512D-05
  0.22663633D-05 -0.10051231D-05 -0.20364355D-05  0.11140725D-06 -0.84137403D-07
  0.37521619D-05  0.42571919D-06  0.10593703D-05  0.23571445D-05 -0.75994093D-06
 -0.80695806D-06  0.65172515D-06 -0.16590001D-05 -0.30924480D-05 -0.52424597D-05
 -0.79386290D-05 -0.99272834D-05 -0.85464663D-05 -0.32855737D-05  0.14236929D-07
  0.10704711D-05  0.20101551D-05  0.34229474D-05  0.53620268D-05  0.71857468D-05
  0.77292395D-05  0.46406252D-05 -0.30518704D-05  0.12899191D-05  0.99321667D-05
  0.46061212D-06 -0.96804910D-06 -0.94673088D-06 -0.62554512D-06  0.37773993D-06
  0.36942140D-06  0.24409234D-06  0.94219847D-06  0.92144952D-06  0.60884066D-06
  0.99129130D-06 -0.15670122D-06 -0.91648781D-06 -0.10333357D-05 -0.55979739D-06
 -0.89703238D-06 -0.58497952D-06  0.33639992D-06 -0.10896472D-06 -0.81967843D-05
  0.41373106D-05  0.40594737D-05  0.74914424D-05 -0.24715999D-05 -0.10212735D-05
  0.33464051D-05 -0.17169319D-05 -0.16294732D-05 -0.31673103D-05  0.12858294D-05
  0.59150142D-06 -0.38077598D-06  0.51197633D-06 -0.13120035D-06  0.13954793D-05
 -0.22946750D-05  0.17233987D-05 -0.21074563D-06 -0.41346938D-05  0.37723662D-07
  0.63188788D-05  0.89859049D-05 -0.12037735D-05 -0.56866419D-05  0.34181765D-05
  0.10906025D-05  0.15054733D-04 -0.26145436D-06  0.12374169D-05  0.19543649D-06
 -0.11028960D-05 -0.19126570D-05 -0.58447377D-06  0.18872591D-05 -0.17995937D-05
 -0.18357112D-08 -0.37101595D-05 -0.14520586D-05 -0.27067001D-05 -0.45885220D-05
 -0.69483747D-05 -0.86889669D-05 -0.74803911D-05 -0.28757354D-05  0.12461032D-07
  0.95840143D-06  0.17997082D-05  0.30645926D-05  0.48006662D-05  0.64334575D-05
  0.69200509D-05  0.41547895D-05 -0.27323644D-05  0.73725770D-06  0.68770428D-05
 -0.43209281D-05 -0.39239346D-06 -0.38375224D-06 -0.25356133D-06 -0.12125358D-05
 -0.11858335D-05 -0.78353034D-06  0.69222285D-06  0.67697883D-06  0.44730853D-06
  0.75024997D-06  0.62780772D-06 -0.62956470D-06 -0.99981989D-06  0.36933024D-05
  0.66273402D-06  0.12677705D-06 -0.28514646D-06 -0.33756554D-06 -0.58225058D-05
  0.13951475D-05  0.44273582D-05  0.77723525D-05 -0.17121484D-05  0.53691959D-06
  0.24101912D-05 -0.48353502D-06 -0.19266562D-05 -0.31911937D-05  0.50377630D-06
 -0.41170411D-06 -0.80870295D-06  0.98336993D-06 -0.17466698D-06  0.94062094D-06
  0.12826455D-05  0.12827902D-06 -0.18215219D-05 -0.24184055D-05 -0.57717735D-06
  0.47175263D-05  0.59777049D-05  0.23393079D-05  0.74703926D-06  0.12775114D-05
 -0.60777587D-06 -0.17275759D-04  0.22888565D-06  0.78920874D-06  0.76584391D-08
 -0.12845482D-05 -0.12806569D-05 -0.20860897D-06  0.59789121D-06 -0.10869694D-05
  0.18563366D-06  0.41444831D-05  0.78329990D+00  0.14734825D+01  0.25506709D+01
  0.41810376D+01  0.65496764D+01  0.98447214D+01  0.14070580D+02  0.18679045D+02
  0.21754284D+02  0.19981100D+02  0.11683735D+02  0.30658705D+01  0.16760994D+00
 -0.59990866D-02  0.16765554D-02 -0.49782587D-03  0.84870692D-04  0.69242811D-05
  0.77006246D-04  0.14148433D-03  0.24465902D-03  0.40066334D-03  0.63082643D-03
  0.95260971D-03  0.13905193D-02  0.19148295D-02  0.24466395D-02  0.26671237D-02
  0.21954535D-02  0.60197844D-03 -0.12142295D-02 -0.11833197D-02 -0.25894369D-03
 -0.87235746D-05 -0.29552683D-06  0.75178214D-09 -0.49301803D-04 -0.96651283D-04
 -0.16928233D-03 -0.27655224D-03 -0.43618949D-03 -0.65819046D-03 -0.96503799D-03
 -0.13323946D-02 -0.17274562D-02 -0.19210329D-02 -0.16685354D-02 -0.48467968D-03
  0.12218716D-02  0.17803530D-02  0.30649414D-03 -0.74771446D-03 -0.35589323D-03
  0.17187171D-05  0.17749799D-04  0.38459527D-04  0.65471247D-04  0.10686670D-03
  0.16846488D-03  0.25426215D-03  0.37278975D-03  0.51535537D-03  0.66887956D-03
  0.74725544D-03  0.65274455D-03  0.19334357D-03 -0.50258222D-03 -0.77314133D-03
 -0.13532334D-03  0.42687000D-03  0.36234807D-03 -0.13518883D-03  0.12351150D-03
  0.42309232D-04  0.96263452D-05 -0.75780935D-04 -0.10873222D-03 -0.14396725D-03
 -0.16624138D-03 -0.15411341D-03 -0.99775829D-04 -0.35217203D-04 -0.41277599D-05
 -0.60009989D-07 -0.87877949D-08 -0.90352179D-10  0.70747759D-05  0.10151051D-04
  0.13440531D-04  0.15520005D-04  0.14387759D-04  0.93148973D-05  0.32878167D-05
  0.38536046D-06  0.56024279D-08  0.82041320D-09  0.84351218D-11 -0.14192886D-04
 -0.20364278D-04 -0.26963386D-04 -0.31135072D-04 -0.28863644D-04 -0.18686849D-04
 -0.65957716D-05 -0.77308130D-06 -0.11239171D-07 -0.16458515D-08 -0.16921910D-10
  0.13244523D-02  0.19118621D-02  0.25542020D-02  0.30344703D-02  0.29406344D-02
  0.20441160D-02  0.66513574D-03 -0.29936386D-03 -0.32341285D-03 -0.83261648D-04
  0.81214050D-07  0.48584349D-03  0.70132066D-03  0.93694764D-03  0.11131225D-02
  0.10787011D-02  0.74983484D-03  0.24398907D-03 -0.10981444D-03 -0.11863623D-03
 -0.30542535D-04  0.29791423D-07 -0.68893768D-04 -0.99448945D-04 -0.13286141D-03
 -0.15784344D-03 -0.15296239D-03 -0.10632837D-03 -0.34598232D-04  0.15571950D-04
  0.16822901D-04  0.43310045D-05 -0.42244950D-08 -0.94430167D-03 -0.13721122D-02
 -0.18242391D-02 -0.21889606D-02 -0.21178291D-02 -0.15034121D-02 -0.46726425D-03
  0.26827366D-03  0.30818688D-03  0.81841734D-04 -0.29528753D-04 -0.34563613D-03
 -0.50222463D-03 -0.66771346D-03 -0.80120993D-03 -0.77517416D-03 -0.55028339D-03
 -0.17102946D-03  0.98194328D-04  0.11280348D-03  0.29955957D-04 -0.10808203D-04
  0.49191678D-04  0.71477691D-04  0.95030419D-04  0.11402992D-03  0.11032446D-03
  0.78317518D-04  0.24341281D-04 -0.13975228D-04 -0.16054435D-04 -0.42633963D-05
  0.15382467D-05  0.16805304D-04  0.57951111D-05 -0.45423110D-06  0.16234620D-04
  0.52672798D-05 -0.72239285D-06  0.57243292D-06  0.20832708D-06  0.22660045D-07
  0.15961131D-03  0.16701603D-03  0.14230660D-03  0.93719655D-04  0.43192599D-04
  0.12934094D-04  0.22006264D-05 -0.36438816D-04 -0.38129295D-04 -0.32488200D-04
 -0.21395936D-04 -0.98607499D-05 -0.29528175D-05 -0.50239687D-06 -0.12317249D-03
 -0.12888674D-03 -0.10981840D-03 -0.72323719D-04 -0.33331849D-04 -0.99812760D-05
 -0.16982295D-05  0.21951673D-03  0.22970060D-03  0.19571721D-03  0.12889458D-03
  0.59403673D-04  0.17788526D-04  0.30265669D-05 -0.55265659D-04 -0.57829558D-04
 -0.49273879D-04 -0.32450574D-04 -0.14955503D-04 -0.44784497D-05 -0.76197025D-06
 -0.49318958D-04 -0.51606976D-04 -0.43971906D-04 -0.28958824D-04 -0.13346260D-04
 -0.39965591D-05 -0.67998065D-06 -0.73867747D-05  0.15897246D-05  0.57970501D-05
 -0.93933454D-05  0.23936537D-05  0.24612592D-05 -0.15402044D-05  0.77586336D-06
  0.76434099D-06 -0.32687134D-05  0.25705749D-06 -0.36502267D-06  0.20038132D-05
 -0.60201311D-06 -0.14018001D-05  0.18987976D-05 -0.29658448D-06 -0.17778969D-06
 -0.30074208D-05  0.14717477D-05 -0.69758374D-06 -0.54458127D-06 -0.79681383D-05
  0.17701101D-05  0.95668435D-05  0.35528951D-05  0.32264111D-06  0.46750333D-05
  0.96303022D-06 -0.11242392D-06  0.12124831D-06 -0.10261938D-06  0.10595188D-05
 -0.37581982D-06 -0.27864713D-05 -0.72224702D-06  0.12074893D-07 -0.12583147D-05
MO    2     MO 0.0        OCC NO =    2.0000000  ORB. ENERGY =  -62.711097
 -0.50575821D-04 -0.94284829D-04 -0.15935797D-03 -0.23956723D-03 -0.29433602D-03
 -0.24861382D-03 -0.93767986D-04  0.46406300D-06  0.35632194D-04  0.66714709D-04
  0.11358750D-03  0.17570259D-03  0.23139413D-03  0.24043333D-03  0.15278459D-03
 -0.10239268D-03 -0.63652407D-04  0.87516426D-03  0.48603734D-04  0.25012247D-05
  0.23450571D-05  0.16698204D-05 -0.91195245D-04 -0.85501339D-04 -0.60882047D-04
  0.51381645D-04  0.48173558D-04  0.34302443D-04  0.39920392D-04  0.26785060D-03
 -0.17496041D-03 -0.60142528D-03  0.52203476D-04  0.15573951D-03 -0.34730849D-05
 -0.56007529D-06 -0.70884201D-05 -0.56128938D-04  0.80760692D-04 -0.24631754D-04
 -0.10256669D-03  0.32489849D-04 -0.37257325D-04  0.22044290D-04  0.19870699D-04
 -0.41914988D-04 -0.59079059D-05  0.66728895D-04  0.41626026D-04  0.73532610D-04
 -0.38383075D-04 -0.35149535D-04  0.82904623D-05 -0.31959884D-04 -0.32136270D-05
  0.50295407D-04 -0.14710938D-04 -0.89011593D-05 -0.12587426D-03  0.67338424D-04
 -0.21147948D-04 -0.25011960D-04 -0.23205611D-04  0.47851426D-04  0.10417826D-03
 -0.65241083D-04  0.26895474D-04 -0.43810618D-05  0.14604470D-03 -0.15256910D-04
  0.20076538D-05  0.49678549D-04 -0.65429511D-04  0.11135532D-04 -0.29094773D-04
  0.15043643D-03  0.28031613D-03  0.47408486D-03  0.71394553D-03  0.88391088D-03
  0.75216826D-03  0.28621390D-03 -0.13404618D-05 -0.10569911D-03 -0.19818682D-03
 -0.33717475D-03 -0.52359678D-03 -0.69484338D-03 -0.73226955D-03 -0.45405383D-03
  0.30203678D-03  0.83194472D-04 -0.99546043D-03  0.53293665D-03  0.14755055D-04
  0.14172054D-04  0.99384223D-05 -0.29133643D-04 -0.27982516D-04 -0.19623271D-04
  0.96533666D-04  0.92719432D-04  0.65021266D-04 -0.22756791D-03 -0.21510173D-03
 -0.13678033D-03 -0.43906596D-04  0.42685631D-03 -0.28914235D-03 -0.16539686D-04
 -0.24835793D-04  0.34737430D-04  0.38274154D-03 -0.43847317D-04 -0.33889422D-03
  0.46708877D-03 -0.14510224D-03 -0.88746713D-04 -0.15760710D-03 -0.33941332D-04
  0.19154843D-03 -0.14982956D-03  0.45602448D-05 -0.54776655D-04  0.27981034D-04
 -0.36578075D-04  0.85970418D-05 -0.10584451D-03  0.11003489D-04  0.11620934D-03
 -0.49813264D-04 -0.42591920D-04 -0.48721749D-04  0.46621497D-04  0.12980504D-03