 Molden2AIM, Version 4.0.0 (06/02/2016)           Time: Fri Jun 29 19:37:35 2018
GAUSSIAN             23 MOL ORBITALS    450 PRIMITIVES        6 NUCLEI
  C    1    (CENTRE  1)  -5.20110644  1.09968265  0.39580692  CHARGE =  6.0
  C    2    (CENTRE  2)  -2.91058830 -0.45944533  0.80649543  CHARGE =  6.0
  N    3    (CENTRE  3)  -1.12346297 -1.67378523  1.12821374  CHARGE =  7.0
  F    4    (CENTRE  4)  -4.91790075  3.36659055  1.46568670  CHARGE =  9.0
  F    5    (CENTRE  5)  -7.21836829 -0.02512769  1.41104149  CHARGE =  9.0
  F    6    (CENTRE  6)  -5.61140567  1.41892732 -2.07294452  CHARGE =  9.0
CENTRE ASSIGNMENTS    1  1  1  1  1  1  1  1  1  1  1  1  1  1  1  1  1  1  1  1
CENTRE ASSIGNMENTS    1  1  1  1  1  1  1  1  1  1  1  1  1  1  1  1  1  1  1  1
CENTRE ASSIGNMENTS    1  1  1  1  1  1  1  1  1  1  1  1  1  1  1  1  1  1  1  1
CENTRE ASSIGNMENTS    1  1  1  1  1  1  1  1  1  1  1  1  1  1  1  2  2  2  2  2
CENTRE ASSIGNMENTS    2  2  2  2  2  2  2  2  2  2  2  2  2  2  2  2  2  2  2  2
CENTRE ASSIGNMENTS    2  2  2  2  2  2  2  2  2  2  2  2  2  2  2  2  2  2  2  2
CENTRE ASSIGNMENTS    2  2  2  2  2  2  2  2  2  2  2  2  2  2  2  2  2  2  2  2
CENTRE ASSIGNMENTS    2  2  2  2  2  2  2  2  2  2  3  3  3  3  3  3  3  3  3  3
CENTRE ASSIGNMENTS    3  3  3  3  3  3  3  3  3  3  3  3  3  3  3  3  3  3  3  3
CENTRE ASSIGNMENTS    3  3  3  3  3  3  3  3  3  3  3  3  3  3  3  3  3  3  3  3
CENTRE ASSIGNMENTS    3  3  3  3  3  3  3  3  3  3  3  3  3  3  3  3  3  3  3  3
CENTRE ASSIGNMENTS    3  3  3  3  3  4  4  4  4  4  4  4  4  4  4  4  4  4  4  4
CENTRE ASSIGNMENTS    4  4  4  4  4  4  4  4  4  4  4  4  4  4  4  4  4  4  4  4
CENTRE ASSIGNMENTS    4  4  4  4  4  4  4  4  4  4  4  4  4  4  4  4  4  4  4  4
CENTRE ASSIGNMENTS    4  4  4  4  4  4  4  4  4  4  4  4  4  4  4  4  4  4  4  4
CENTRE ASSIGNMENTS    5  5  5  5  5  5  5  5  5  5  5  5  5  5  5  5  5  5  5  5
CENTRE ASSIGNMENTS    5  5  5  5  5  5  5  5  5  5  5  5  5  5  5  5  5  5  5  5
CENTRE ASSIGNMENTS    5  5  5  5  5  5  5  5  5  5  5  5  5  5  5  5  5  5  5  5
CENTRE ASSIGNMENTS    5  5  5  5  5  5  5  5  5  5  5  5  5  5  5  6  6  6  6  6
CENTRE ASSIGNMENTS    6  6  6  6  6  6  6  6  6  6  6  6  6  6  6  6  6  6  6  6
CENTRE ASSIGNMENTS    6  6  6  6  6  6  6  6  6  6  6  6  6  6  6  6  6  6  6  6
CENTRE ASSIGNMENTS    6  6  6  6  6  6  6  6  6  6  6  6  6  6  6  6  6  6  6  6
CENTRE ASSIGNMENTS    6  6  6  6  6  6  6  6  6  6
TYPE ASSIGNMENTS      1  1  1  1  1  1  1  1  1  1  1  1  1  1  1  1  1  1  1  2
TYPE ASSIGNMENTS      2  2  3  3  3  4  4  4  2  3  4  2  3  4  2  3  4  5  6  7
TYPE ASSIGNMENTS      8  9 10  5  6  7  8  9 10  5  6  7  8  9 10 11 12 13 17 14
TYPE ASSIGNMENTS     15 18 19 16 20 11 12 13 17 14 15 18 19 16 20  1  1  1  1  1
TYPE ASSIGNMENTS      1  1  1  1  1  1  1  1  1  1  1  1  1  1  2  2  2  3  3  3
TYPE ASSIGNMENTS      4  4  4  2  3  4  2  3  4  2  3  4  5  6  7  8  9 10  5  6
TYPE ASSIGNMENTS      7  8  9 10  5  6  7  8  9 10 11 12 13 17 14 15 18 19 16 20
TYPE ASSIGNMENTS     11 12 13 17 14 15 18 19 16 20  1  1  1  1  1  1  1  1  1  1
TYPE ASSIGNMENTS      1  1  1  1  1  1  1  1  1  2  2  2  3  3  3  4  4  4  2  3
TYPE ASSIGNMENTS      4  2  3  4  2  3  4  5  6  7  8  9 10  5  6  7  8  9 10  5
TYPE ASSIGNMENTS      6  7  8  9 10 11 12 13 17 14 15 18 19 16 20 11 12 13 17 14
TYPE ASSIGNMENTS     15 18 19 16 20  1  1  1  1  1  1  1  1  1  1  1  1  1  1  1
TYPE ASSIGNMENTS      1  1  1  1  2  2  2  3  3  3  4  4  4  2  3  4  2  3  4  2
TYPE ASSIGNMENTS      3  4  5  6  7  8  9 10  5  6  7  8  9 10  5  6  7  8  9 10
TYPE ASSIGNMENTS     11 12 13 17 14 15 18 19 16 20 11 12 13 17 14 15 18 19 16 20
TYPE ASSIGNMENTS      1  1  1  1  1  1  1  1  1  1  1  1  1  1  1  1  1  1  1  2
TYPE ASSIGNMENTS      2  2  3  3  3  4  4  4  2  3  4  2  3  4  2  3  4  5  6  7
TYPE ASSIGNMENTS      8  9 10  5  6  7  8  9 10  5  6  7  8  9 10 11 12 13 17 14
TYPE ASSIGNMENTS     15 18 19 16 20 11 12 13 17 14 15 18 19 16 20  1  1  1  1  1
TYPE ASSIGNMENTS      1  1  1  1  1  1  1  1  1  1  1  1  1  1  2  2  2  3  3  3
TYPE ASSIGNMENTS      4  4  4  2  3  4  2  3  4  2  3  4  5  6  7  8  9 10  5  6
TYPE ASSIGNMENTS      7  8  9 10  5  6  7  8  9 10 11 12 13 17 14 15 18 19 16 20
TYPE ASSIGNMENTS     11 12 13 17 14 15 18 19 16 20
EXPONENTS  0.8236000D+04 0.1235000D+04 0.2808000D+03 0.7927000D+02 0.2559000D+02
EXPONENTS  0.8997000D+01 0.3319000D+01 0.3643000D+00 0.8236000D+04 0.1235000D+04
EXPONENTS  0.2808000D+03 0.7927000D+02 0.2559000D+02 0.8997000D+01 0.3319000D+01
EXPONENTS  0.3643000D+00 0.9059000D+00 0.1285000D+00 0.4402000D-01 0.1871000D+02
EXPONENTS  0.4133000D+01 0.1200000D+01 0.1871000D+02 0.4133000D+01 0.1200000D+01
EXPONENTS  0.1871000D+02 0.4133000D+01 0.1200000D+01 0.3827000D+00 0.3827000D+00
EXPONENTS  0.3827000D+00 0.1209000D+00 0.1209000D+00 0.1209000D+00 0.3569000D-01
EXPONENTS  0.3569000D-01 0.3569000D-01 0.1097000D+01 0.1097000D+01 0.1097000D+01
EXPONENTS  0.1097000D+01 0.1097000D+01 0.1097000D+01 0.3180000D+00 0.3180000D+00
EXPONENTS  0.3180000D+00 0.3180000D+00 0.3180000D+00 0.3180000D+00 0.1000000D+00
EXPONENTS  0.1000000D+00 0.1000000D+00 0.1000000D+00 0.1000000D+00 0.1000000D+00
EXPONENTS  0.7610000D+00 0.7610000D+00 0.7610000D+00 0.7610000D+00 0.7610000D+00
EXPONENTS  0.7610000D+00 0.7610000D+00 0.7610000D+00 0.7610000D+00 0.7610000D+00
EXPONENTS  0.2680000D+00 0.2680000D+00 0.2680000D+00 0.2680000D+00 0.2680000D+00
EXPONENTS  0.2680000D+00 0.2680000D+00 0.2680000D+00 0.2680000D+00 0.2680000D+00
EXPONENTS  0.8236000D+04 0.1235000D+04 0.2808000D+03 0.7927000D+02 0.2559000D+02
EXPONENTS  0.8997000D+01 0.3319000D+01 0.3643000D+00 0.8236000D+04 0.1235000D+04
EXPONENTS  0.2808000D+03 0.7927000D+02 0.2559000D+02 0.8997000D+01 0.3319000D+01
EXPONENTS  0.3643000D+00 0.9059000D+00 0.1285000D+00 0.4402000D-01 0.1871000D+02
EXPONENTS  0.4133000D+01 0.1200000D+01 0.1871000D+02 0.4133000D+01 0.1200000D+01
EXPONENTS  0.1871000D+02 0.4133000D+01 0.1200000D+01 0.3827000D+00 0.3827000D+00
EXPONENTS  0.3827000D+00 0.1209000D+00 0.1209000D+00 0.1209000D+00 0.3569000D-01
EXPONENTS  0.3569000D-01 0.3569000D-01 0.1097000D+01 0.1097000D+01 0.1097000D+01
EXPONENTS  0.1097000D+01 0.1097000D+01 0.1097000D+01 0.3180000D+00 0.3180000D+00
EXPONENTS  0.3180000D+00 0.3180000D+00 0.3180000D+00 0.3180000D+00 0.1000000D+00
EXPONENTS  0.1000000D+00 0.1000000D+00 0.1000000D+00 0.1000000D+00 0.1000000D+00
EXPONENTS  0.7610000D+00 0.7610000D+00 0.7610000D+00 0.7610000D+00 0.7610000D+00
EXPONENTS  0.7610000D+00 0.7610000D+00 0.7610000D+00 0.7610000D+00 0.7610000D+00
EXPONENTS  0.2680000D+00 0.2680000D+00 0.2680000D+00 0.2680000D+00 0.2680000D+00
EXPONENTS  0.2680000D+00 0.2680000D+00 0.2680000D+00 0.2680000D+00 0.2680000D+00
EXPONENTS  0.1142000D+05 0.1712000D+04 0.3893000D+03 0.1100000D+03 0.3557000D+02
EXPONENTS  0.1254000D+02 0.4644000D+01 0.5118000D+00 0.1142000D+05 0.1712000D+04
EXPONENTS  0.3893000D+03 0.1100000D+03 0.3557000D+02 0.1254000D+02 0.4644000D+01
EXPONENTS  0.5118000D+00 0.1293000D+01 0.1787000D+00 0.5760000D-01 0.2663000D+02
EXPONENTS  0.5948000D+01 0.1742000D+01 0.2663000D+02 0.5948000D+01 0.1742000D+01
EXPONENTS  0.2663000D+02 0.5948000D+01 0.1742000D+01 0.5550000D+00 0.5550000D+00
EXPONENTS  0.5550000D+00 0.1725000D+00 0.1725000D+00 0.1725000D+00 0.4910000D-01
EXPONENTS  0.4910000D-01 0.4910000D-01 0.1654000D+01 0.1654000D+01 0.1654000D+01
EXPONENTS  0.1654000D+01 0.1654000D+01 0.1654000D+01 0.4690000D+00 0.4690000D+00
EXPONENTS  0.4690000D+00 0.4690000D+00 0.4690000D+00 0.4690000D+00 0.1510000D+00
EXPONENTS  0.1510000D+00 0.1510000D+00 0.1510000D+00 0.1510000D+00 0.1510000D+00
EXPONENTS  0.1093000D+01 0.1093000D+01 0.1093000D+01 0.1093000D+01 0.1093000D+01
EXPONENTS  0.1093000D+01 0.1093000D+01 0.1093000D+01 0.1093000D+01 0.1093000D+01
EXPONENTS  0.3640000D+00 0.3640000D+00 0.3640000D+00 0.3640000D+00 0.3640000D+00
EXPONENTS  0.3640000D+00 0.3640000D+00 0.3640000D+00 0.3640000D+00 0.3640000D+00
EXPONENTS  0.1950000D+05 0.2923000D+04 0.6645000D+03 0.1875000D+03 0.6062000D+02
EXPONENTS  0.2142000D+02 0.7950000D+01 0.8815000D+00 0.1950000D+05 0.2923000D+04
EXPONENTS  0.6645000D+03 0.1875000D+03 0.6062000D+02 0.2142000D+02 0.7950000D+01
EXPONENTS  0.8815000D+00 0.2257000D+01 0.3041000D+00 0.9158000D-01 0.4388000D+02
EXPONENTS  0.9926000D+01 0.2930000D+01 0.4388000D+02 0.9926000D+01 0.2930000D+01
EXPONENTS  0.4388000D+02 0.9926000D+01 0.2930000D+01 0.9132000D+00 0.9132000D+00
EXPONENTS  0.9132000D+00 0.2672000D+00 0.2672000D+00 0.2672000D+00 0.7361000D-01
EXPONENTS  0.7361000D-01 0.7361000D-01 0.3107000D+01 0.3107000D+01 0.3107000D+01
EXPONENTS  0.3107000D+01 0.3107000D+01 0.3107000D+01 0.8550000D+00 0.8550000D+00
EXPONENTS  0.8550000D+00 0.8550000D+00 0.8550000D+00 0.8550000D+00 0.2920000D+00
EXPONENTS  0.2920000D+00 0.2920000D+00 0.2920000D+00 0.2920000D+00 0.2920000D+00
EXPONENTS  0.1917000D+01 0.1917000D+01 0.1917000D+01 0.1917000D+01 0.1917000D+01
EXPONENTS  0.1917000D+01 0.1917000D+01 0.1917000D+01 0.1917000D+01 0.1917000D+01
EXPONENTS  0.7240000D+00 0.7240000D+00 0.7240000D+00 0.7240000D+00 0.7240000D+00
EXPONENTS  0.7240000D+00 0.7240000D+00 0.7240000D+00 0.7240000D+00 0.7240000D+00
EXPONENTS  0.1950000D+05 0.2923000D+04 0.6645000D+03 0.1875000D+03 0.6062000D+02
EXPONENTS  0.2142000D+02 0.7950000D+01 0.8815000D+00 0.1950000D+05 0.2923000D+04
EXPONENTS  0.6645000D+03 0.1875000D+03 0.6062000D+02 0.2142000D+02 0.7950000D+01
EXPONENTS  0.8815000D+00 0.2257000D+01 0.3041000D+00 0.9158000D-01 0.4388000D+02
EXPONENTS  0.9926000D+01 0.2930000D+01 0.4388000D+02 0.9926000D+01 0.2930000D+01
EXPONENTS  0.4388000D+02 0.9926000D+01 0.2930000D+01 0.9132000D+00 0.9132000D+00
EXPONENTS  0.9132000D+00 0.2672000D+00 0.2672000D+00 0.2672000D+00 0.7361000D-01
EXPONENTS  0.7361000D-01 0.7361000D-01 0.3107000D+01 0.3107000D+01 0.3107000D+01
EXPONENTS  0.3107000D+01 0.3107000D+01 0.3107000D+01 0.8550000D+00 0.8550000D+00
EXPONENTS  0.8550000D+00 0.8550000D+00 0.8550000D+00 0.8550000D+00 0.2920000D+00
EXPONENTS  0.2920000D+00 0.2920000D+00 0.2920000D+00 0.2920000D+00 0.2920000D+00
EXPONENTS  0.1917000D+01 0.1917000D+01 0.1917000D+01 0.1917000D+01 0.1917000D+01
EXPONENTS  0.1917000D+01 0.1917000D+01 0.1917000D+01 0.1917000D+01 0.1917000D+01
EXPONENTS  0.7240000D+00 0.7240000D+00 0.7240000D+00 0.7240000D+00 0.7240000D+00
EXPONENTS  0.7240000D+00 0.7240000D+00 0.7240000D+00 0.7240000D+00 0.7240000D+00
EXPONENTS  0.1950000D+05 0.2923000D+04 0.6645000D+03 0.1875000D+03 0.6062000D+02
EXPONENTS  0.2142000D+02 0.7950000D+01 0.8815000D+00 0.1950000D+05 0.2923000D+04
EXPONENTS  0.6645000D+03 0.1875000D+03 0.6062000D+02 0.2142000D+02 0.7950000D+01
EXPONENTS  0.8815000D+00 0.2257000D+01 0.3041000D+00 0.9158000D-01 0.4388000D+02
EXPONENTS  0.9926000D+01 0.2930000D+01 0.4388000D+02 0.9926000D+01 0.2930000D+01
EXPONENTS  0.4388000D+02 0.9926000D+01 0.2930000D+01 0.9132000D+00 0.9132000D+00
EXPONENTS  0.9132000D+00 0.2672000D+00 0.2672000D+00 0.2672000D+00 0.7361000D-01
EXPONENTS  0.7361000D-01 0.7361000D-01 0.3107000D+01 0.3107000D+01 0.3107000D+01
EXPONENTS  0.3107000D+01 0.3107000D+01 0.3107000D+01 0.8550000D+00 0.8550000D+00
EXPONENTS  0.8550000D+00 0.8550000D+00 0.8550000D+00 0.8550000D+00 0.2920000D+00
EXPONENTS  0.2920000D+00 0.2920000D+00 0.2920000D+00 0.2920000D+00 0.2920000D+00
EXPONENTS  0.1917000D+01 0.1917000D+01 0.1917000D+01 0.1917000D+01 0.1917000D+01
EXPONENTS  0.1917000D+01 0.1917000D+01 0.1917000D+01 0.1917000D+01 0.1917000D+01
EXPONENTS  0.7240000D+00 0.7240000D+00 0.7240000D+00 0.7240000D+00 0.7240000D+00
EXPONENTS  0.7240000D+00 0.7240000D+00 0.7240000D+00 0.7240000D+00 0.7240000D+00
MO    1     MO 0.0        OCC NO =    2.0000000  ORB. ENERGY =  -24.856350
  0.52007641D-04  0.96954067D-04  0.16386945D-03  0.24634946D-03  0.30266878D-03
  0.25565217D-03  0.96422592D-04 -0.47720079D-06 -0.36575916D-04 -0.68481654D-04
 -0.11659588D-03 -0.18035609D-03 -0.23752263D-03 -0.24680122D-03 -0.15683110D-03
  0.10510456D-03 -0.98436884D-04  0.34948013D-03  0.15107816D-03 -0.13754300D-03
 -0.12895531D-03 -0.91823860D-04 -0.14124086D-03 -0.13242229D-03 -0.94292557D-04
  0.55301987D-03  0.51849128D-03  0.36919668D-03  0.44071742D-03  0.44280272D-03
 -0.17491536D-02  0.43008309D-04 -0.31916281D-04  0.14202941D-04  0.54990045D-05
 -0.34836414D-05  0.35987663D-06 -0.55692873D-03 -0.32876741D-03  0.88569614D-03
 -0.60986351D-03  0.86437234D-03 -0.13072811D-03 -0.33147860D-03 -0.18204403D-03
  0.51352264D-03 -0.32469904D-03  0.50820733D-03 -0.88516096D-04  0.69287413D-06
  0.97961650D-05 -0.10489039D-04  0.72940148D-05  0.15062045D-04 -0.20274290D-04
  0.10000894D-03 -0.16949377D-03 -0.18370288D-03  0.57721925D-04  0.28944319D-03
  0.16630492D-03 -0.35774874D-03  0.21903811D-03  0.38480371D-03 -0.37436234D-03
  0.41820802D-05 -0.19285579D-04 -0.27560597D-04  0.84850980D-05  0.43128731D-04
  0.31598819D-04 -0.21031339D-04  0.14728007D-04  0.51082971D-04 -0.56256727D-04
  0.84338625D-05  0.15722637D-04  0.26574027D-04  0.39949467D-04  0.49082536D-04
  0.41458048D-04  0.15636450D-04 -0.77385666D-07 -0.56987134D-05 -0.10669789D-04
 -0.18166229D-04 -0.28100395D-04 -0.37007231D-04 -0.38452884D-04 -0.24435081D-04
  0.16375823D-04 -0.32912014D-05 -0.21852120D-03 -0.15878379D-03 -0.11013334D-04
 -0.10325700D-04 -0.73525138D-05 -0.13570399D-04 -0.12723112D-04 -0.90596135D-05
  0.49930452D-04  0.46812972D-04  0.33333625D-04 -0.51364613D-05  0.48220234D-04
 -0.11120709D-03  0.64341595D-04  0.10510067D-04 -0.12223731D-03  0.68461662D-05
 -0.45250791D-05  0.87346163D-06 -0.19095722D-04 -0.12195355D-05  0.20315257D-04
 -0.95810556D-05  0.42460265D-04 -0.23522106D-04 -0.49651708D-04  0.12637608D-04
  0.37014100D-04 -0.95375265D-05  0.13325954D-03 -0.92880080D-04 -0.11350154D-04
 -0.26287439D-05  0.13978898D-04 -0.35836680D-05  0.18471635D-04 -0.76288865D-05
 -0.17046999D-04  0.35463135D-05 -0.12637523D-04  0.17634951D-04  0.40185628D-05
  0.36322137D-04  0.33506045D-04 -0.14657503D-04  0.15904328D-05 -0.92793143D-04
 -0.62031429D-05  0.88560837D-05  0.11001646D-04 -0.78370009D-05 -0.10062543D-04
 -0.12844062D-04  0.26446429D-04 -0.16505708D-04 -0.20160877D-04  0.39303929D-04
  0.13675644D-04  0.25482549D-04  0.43097379D-04  0.64902264D-04  0.80353213D-04
  0.68376958D-04  0.26018694D-04 -0.12185664D-06 -0.94576989D-05 -0.17733274D-04
 -0.30169575D-04 -0.46850165D-04 -0.62172893D-04 -0.65521695D-04 -0.40627631D-04
  0.27025516D-04  0.29503124D-05  0.59361148D-04  0.65226677D-04 -0.10247069D-04
 -0.98421874D-05 -0.69020211D-05 -0.10600003D-04 -0.10181176D-04 -0.71397435D-05
  0.41536427D-04  0.39895241D-04  0.27977297D-04  0.61507986D-05  0.20071089D-04
 -0.58773766D-04 -0.22315477D-04  0.12701154D-04  0.21917252D-05 -0.59174603D-05
  0.48337789D-05 -0.30390467D-05 -0.27037682D-04 -0.26472195D-04  0.53509877D-04
 -0.26196620D-04  0.13027904D-04  0.23352126D-04 -0.26241708D-06  0.26563938D-04
 -0.26301521D-04  0.18101265D-04  0.46569334D-04 -0.58307495D-04  0.76735472D-05
  0.59727287D-05 -0.13646276D-04  0.64518737D-05 -0.64371023D-05 -0.32282967D-05
  0.22362290D-04 -0.67921057D-05  0.11245209D-04 -0.10932442D-04 -0.75878746D-05
 -0.33313862D-04 -0.56154428D-04  0.27964192D-04 -0.42176508D-06  0.59953408D-04
 -0.82034260D-05  0.95358551D-05  0.54815567D-05 -0.22961554D-05 -0.13288111D-04
 -0.24090372D-05  0.26906433D-04 -0.15319454D-04 -0.14035633D-04  0.20035221D-04
 -0.45176759D-01 -0.84211435D-01 -0.14275909D+00 -0.21617933D+00 -0.27033301D+00
 -0.23273154D+00 -0.89470501D-01  0.38769033D-03 -0.61786360D-04 -0.11602384D-03
 -0.19756859D-03 -0.30949003D-03 -0.41475305D-03 -0.44612283D-03 -0.26785156D-03
  0.17615045D-03 -0.49485093D-02  0.86748153D-05  0.21449987D-04  0.45389143D-04
  0.44389591D-04  0.29330080D-04  0.57717190D-03  0.56446151D-03  0.37296358D-03
  0.33204138D-03  0.32472922D-03  0.21456232D-03  0.53439378D-05 -0.11490247D-03
 -0.10544615D-03 -0.26921559D-05 -0.37096293D-04 -0.13178007D-03  0.21035073D-06
 -0.58930102D-05 -0.26971496D-05  0.39486962D-05 -0.20119455D-03  0.19724586D-03
 -0.20108634D-03  0.10147620D-03 -0.16458442D-03 -0.82216472D-05  0.54803515D-04
 -0.46581868D-04  0.60020842D-04 -0.31861869D-04  0.10019403D-03 -0.21052224D-04
 -0.22760949D-05  0.23328319D-04 -0.82823444D-05  0.98587180D-05  0.70238429D-04
  0.15810780D-05  0.10174193D-03 -0.98681540D-04  0.25378261D-03  0.13290517D-03
  0.15141286D-03 -0.25852584D-03 -0.43813096D-03  0.14463175D-03 -0.17430845D-03
  0.19564358D-05 -0.30835229D-04  0.39413294D-04 -0.80343084D-04 -0.11528573D-04
 -0.27720441D-04  0.74473777D-04  0.10403426D-03 -0.90519439D-04  0.39691541D-04
 -0.30986541D+00 -0.57760254D+00 -0.97917831D+00 -0.14827645D+01 -0.18542023D+01
 -0.15962954D+01 -0.61367424D+00  0.26591510D-02 -0.40428209D-03 -0.75917016D-03
 -0.12927359D-02 -0.20250631D-02 -0.27138228D-02 -0.29190823D-02 -0.17526132D-02
  0.11525922D-02 -0.33906724D-01  0.16271206D-03  0.24275436D-03 -0.35819868D-02
 -0.35031049D-02 -0.23146495D-02 -0.19361914D-02 -0.18935529D-02 -0.12511504D-02
  0.18175915D-02  0.17775648D-02  0.11745122D-02  0.76853332D-03  0.40139891D-03
 -0.41202777D-03  0.38592725D-03  0.25888719D-03 -0.29506113D-03  0.27052472D-04
  0.15446324D-04 -0.14020984D-04 -0.64002423D-03  0.19102217D-03  0.44900206D-03
 -0.14821430D-02  0.12879722D-02  0.60768584D-03  0.23399352D-03 -0.79675690D-04
 -0.15431783D-03  0.58396858D-03 -0.53566040D-03 -0.26645361D-03  0.44973520D-04
 -0.33033643D-04 -0.11939877D-04  0.13759282D-03 -0.15443887D-03 -0.91259331D-04
 -0.62380607D-04  0.81063389D-05 -0.15223014D-03 -0.70629161D-04 -0.34192589D-03
  0.35702202D-03  0.25777098D-03  0.31760687D-03  0.99668391D-04  0.12380914D-03
  0.19961875D-04 -0.63354983D-04  0.10506297D-03  0.21822471D-04  0.29328640D-03
 -0.28286417D-03 -0.81708097D-04 -0.10322145D-03 -0.32324759D-04 -0.33217654D-03
  0.50428698D+00  0.94001277D+00  0.15935527D+01  0.24131085D+01  0.30176007D+01
  0.25978731D+01  0.99871725D+00 -0.43276053D-02  0.64926675D-03  0.12192080D-02
  0.20761009D-02  0.32521998D-02  0.43583303D-02  0.46879719D-02  0.28146522D-02
 -0.18510337D-02  0.55165624D-01 -0.31131729D-03 -0.43804545D-03  0.12176510D-02
  0.11908361D-02  0.78683574D-03 -0.96802806D-03 -0.94671030D-03 -0.62553152D-03
  0.70423959D-02  0.68873093D-02  0.45507365D-02 -0.25761607D-03  0.21992768D-03
 -0.15005844D-02 -0.98118171D-04  0.11915240D-03 -0.83859061D-03 -0.53994034D-05
  0.46011222D-05 -0.50836374D-04 -0.10218702D-02 -0.10031604D-02  0.20250306D-02
 -0.15828427D-03  0.11255779D-02 -0.75672517D-03  0.41464879D-03  0.40488564D-03
 -0.81953443D-03  0.55477016D-04 -0.41969745D-03  0.30988255D-03  0.90890215D-04
  0.91865934D-04 -0.18275615D-03  0.81766373D-05 -0.72926960D-04  0.85116875D-04
 -0.88209604D-04 -0.19927835D-04  0.17610382D-03 -0.88454378D-04  0.11112700D-03
 -0.27850638D-03  0.35308319D-03 -0.51343493D-04 -0.24980509D-03 -0.27332057D-03
  0.71959472D-04 -0.31568875D-04 -0.24047897D-03  0.71341494D-04 -0.75165735D-04
  0.36109210D-03 -0.28721991D-03  0.16987236D-03  0.36034480D-03  0.13384854D-03
MO    2     MO 0.0        OCC NO =    2.0000000  ORB. ENERGY =  -24.856345
  0.16349276D-03  0.30478768D-03  0.51514488D-03  0.77443150D-03  0.95147857D-03
  0.80367576D-03  0.30311693D-03 -0.15001426D-05 -0.11497136D-03 -0.21526267D-03
 -0.36650311D-03 -0.56692458D-03 -0.74661973D-03 -0.77578572D-03 -0.49297700D-03
  0.33038172D-03 -0.30980650D-03  0.10994683D-02  0.47533465D-03  0.39059041D-03
  0.36620334D-03  0.26075859D-03  0.34850581D-03  0.32674635D-03  0.23266286D-03
  0.15660720D-03  0.14682920D-03  0.10455114D-03 -0.12182314D-02 -0.11160046D-02
 -0.49310492D-03  0.14440808D-03 -0.91401765D-04  0.26875511D-04  0.16408980D-04
 -0.11815964D-04  0.28549012D-05  0.37094702D-03 -0.64811271D-03  0.27716569D-03
  0.59426213D-03 -0.54957279D-03 -0.10264051D-02  0.19839303D-03 -0.37879938D-03
  0.18040635D-03  0.41339530D-03 -0.32035776D-03 -0.57032132D-03  0.12508622D-04
 -0.57572449D-05 -0.67513772D-05 -0.62005730D-05  0.22092655D-04  0.14600067D-04
  0.46020586D-04  0.21866138D-04 -0.19582355D-03 -0.47466983D-04 -0.25362028D-03
  0.71894330D-03 -0.90594774D-04  0.18802187D-03 -0.13147266D-03  0.56613956D-03
  0.96686054D-05  0.19040436D-05 -0.29539572D-04 -0.36665115D-04 -0.81733076D-05
  0.85270529D-04  0.76592985D-05  0.24611769D-05  0.33481861D-05  0.96697605D-04
  0.26581724D-04  0.49554377D-04  0.83755627D-04  0.12591214D-03  0.15469761D-03
  0.13066687D-03  0.49282734D-04 -0.24390300D-06 -0.17967141D-04 -0.33640157D-04
 -0.57275246D-04 -0.88596096D-04 -0.11667794D-03 -0.12123585D-03 -0.77039943D-04
  0.51630379D-04 -0.10203101D-04 -0.68717413D-03 -0.49960816D-03  0.39174332D-04
  0.36728427D-04  0.26152828D-04  0.28536934D-04  0.26755189D-04  0.19051289D-04
  0.14851135D-04  0.13923883D-04  0.99146340D-05 -0.17309988D-03  0.42382922D-06
 -0.47721040D-04  0.11776134D-04 -0.15058461D-03 -0.18072386D-04  0.21037719D-04
 -0.14729735D-04  0.37052634D-05  0.20569052D-04 -0.26876206D-04  0.63071536D-05
  0.24569358D-04  0.56752827D-06 -0.17716305D-04  0.68801296D-04 -0.78312387D-04
  0.95110917D-05  0.65062055D-04  0.33610392D-04 -0.20557482D-04  0.46531987D-05
 -0.12695868D-04  0.80426690D-05  0.23825512D-04 -0.69450164D-05 -0.10753031D-04
  0.25158049D-04  0.13278698D-04  0.31405997D-05 -0.56375512D-04 -0.28294773D-04
  0.78730889D-05 -0.19098635D-04 -0.11541321D-04 -0.17294888D-04 -0.57510676D-04
 -0.71214227D-05 -0.68379141D-05  0.83495065D-05 -0.40049229D-05  0.43359527D-04
 -0.46688368D-04  0.25369191D-04 -0.22845784D-04  0.21639848D-04  0.17160416D-05
  0.43032998D-04  0.80185656D-04  0.13561405D-03  0.20422724D-03  0.25284657D-03
  0.21516102D-03  0.81872737D-04 -0.38344496D-06 -0.29760976D-04 -0.55802108D-04
 -0.94935988D-04 -0.14742557D-03 -0.19564230D-03 -0.20618013D-03 -0.12784483D-03
  0.85042432D-04  0.93124910D-05  0.18662200D-03  0.20523409D-03  0.29382558D-04
  0.28221595D-04  0.19790931D-04  0.25961591D-04  0.24935798D-04  0.17486703D-04
  0.11811236D-04  0.11344551D-04  0.79555823D-05 -0.65725724D-04 -0.18725517D-04
 -0.20823826D-04 -0.61219110D-04  0.48626981D-04 -0.99647468D-05 -0.21431756D-04
  0.12510090D-04 -0.41345563D-05 -0.11482503D-04 -0.18453561D-04  0.29936064D-04
  0.60262978D-04 -0.59503811D-04 -0.57104028D-04  0.37252627D-04 -0.18881452D-04
 -0.18371176D-04 -0.15889382D-04  0.60902385D-04  0.37488337D-04  0.10201151D-05
  0.63314573D-05 -0.73515724D-05 -0.15981802D-04  0.13286183D-04  0.14051934D-04
 -0.18839710D-04 -0.62267147D-05  0.33356078D-05  0.72696373D-04 -0.18768847D-04
  0.10256575D-04 -0.16177244D-04  0.37448991D-04 -0.20263398D-04  0.22488747D-05
 -0.13561577D-05  0.85737179D-07  0.16991602D-05 -0.84613506D-05  0.16751917D-04
 -0.31397435D-04  0.12529824D-04 -0.17009128D-04  0.26299954D-04 -0.29353402D-05
 -0.25857178D+00 -0.48198900D+00 -0.81708986D+00 -0.12373149D+01 -0.15472666D+01
 -0.13320524D+01 -0.51208957D+00  0.22189679D-02 -0.34505370D-03 -0.64794974D-03
 -0.11033467D-02 -0.17283860D-02 -0.23162406D-02 -0.24914290D-02 -0.14958507D-02
  0.98373437D-03 -0.28307811D-01  0.94992162D-04  0.16473459D-03  0.39722267D-03
  0.38847510D-03  0.25668192D-03  0.33932281D-02  0.33185030D-02  0.21926752D-02
  0.15710412D-02  0.15364440D-02  0.10151935D-02 -0.87144200D-04 -0.74494978D-03
 -0.33381215D-03 -0.17312088D-03 -0.40954259D-03 -0.22081398D-03 -0.16149783D-05
 -0.29717831D-04 -0.12970123D-04  0.57133097D-03 -0.80847770D-03  0.23714673D-03
 -0.28739830D-03 -0.20045812D-03 -0.13321882D-02 -0.21943334D-03  0.30954784D-03
 -0.90114503D-04  0.16098426D-03  0.91633178D-04  0.51726659D-03 -0.64455307D-04
  0.92185418D-04 -0.27730111D-04  0.88892015D-04  0.28277963D-04  0.15149337D-03
  0.33881223D-04  0.13963832D-03 -0.14749888D-03 -0.14878468D-03 -0.43657907D-03
 -0.26873446D-04  0.47141011D-04  0.17664113D-04  0.46937007D-03  0.95616612D-04
  0.14319520D-04 -0.92402693D-04  0.95500012D-04 -0.40047992D-04  0.27632123D-03
  0.66924604D-04 -0.29105689D-05  0.88684949D-06 -0.35342464D-03 -0.12275235D-03
  0.46527863D+00  0.86729952D+00  0.14702859D+01  0.22264462D+01  0.27841788D+01
  0.23969186D+01  0.92146301D+00 -0.39928500D-02  0.59170008D-03  0.11111080D-02
  0.18920252D-02  0.29638463D-02  0.39719028D-02  0.42723170D-02  0.25650935D-02
 -0.16869134D-02  0.50885208D-01 -0.32644284D-03 -0.44056930D-03  0.53339278D-02
  0.52164649D-02  0.34467389D-02  0.29184595D-02  0.28541896D-02  0.18858838D-02
 -0.26089917D-02 -0.25515369D-02 -0.16859083D-02 -0.11355370D-02 -0.62505338D-03
  0.52904654D-03 -0.63984792D-03 -0.33863913D-03  0.23938481D-03 -0.31547199D-04
 -0.23841364D-04  0.19110341D-04  0.92193504D-03 -0.50541652D-03 -0.41651852D-03
  0.20666131D-02 -0.19281623D-02 -0.11365461D-02 -0.37804312D-03  0.18995647D-03
  0.18808665D-03 -0.85869819D-03  0.76167548D-03  0.45103707D-03 -0.84215165D-04
  0.23573932D-04  0.60641233D-04 -0.17613020D-03  0.12790156D-03  0.69385112D-04
  0.78548530D-05 -0.12642121D-03  0.35943818D-04 -0.21455208D-03  0.15900707D-03
 -0.96359232D-04  0.19098752D-03  0.22025656D-03 -0.11472223D-04 -0.39882304D-03
 -0.18654733D-04  0.12324315D-03 -0.94190774D-04  0.55469007D-04 -0.33725173D-03
  0.27701034D-03  0.49519322D-06 -0.32477722D-04  0.55619839D-05  0.52825750D-03
  0.26274175D+00  0.48976200D+00  0.83026700D+00  0.12572689D+01  0.15722192D+01
  0.13535343D+01  0.52034799D+00 -0.22547530D-02  0.32961289D-03  0.61895463D-03
  0.10539730D-02  0.16510425D-02  0.22125911D-02  0.23799401D-02  0.14289129D-02
 -0.93971324D-03  0.28726684D-01 -0.20855644D-03 -0.27119883D-03  0.66476109D-03
  0.65012183D-03  0.42956298D-03 -0.44570696D-03 -0.43589167D-03 -0.28801206D-03
  0.36260794D-02  0.35462264D-02  0.23431417D-02 -0.16084594D-03  0.66636162D-04
 -0.76000760D-03 -0.16606951D-03  0.13807292D-04 -0.39172389D-03  0.84316272D-07
  0.20434205D-07 -0.22803264D-04 -0.43553112D-03 -0.59064875D-03  0.10261799D-02
  0.65523082D-05  0.41504582D-03 -0.63544453D-03  0.17852853D-03  0.24214906D-03
 -0.42067758D-03  0.55244763D-05 -0.21420893D-03  0.21187832D-03  0.28971236D-04
  0.36607888D-04 -0.65579124D-04  0.17137062D-04 -0.84776645D-04 -0.10933569D-04
  0.86307034D-04  0.97652002D-04  0.25194409D-04  0.16788957D-04  0.94698502D-04
  0.94810889D-04 -0.27571006D-03 -0.38765451D-03 -0.17039412D-03  0.21454210D-03
  0.35774700D-05 -0.45965835D-04 -0.99777324D-04  0.24218577D-04 -0.35336453D-04
  0.99980112D-04 -0.34950987D-04  0.17323396D-03  0.19935186D-03 -0.30368525D-04
MO    3     MO 0.0        OCC NO =    2.0000000  ORB. ENERGY =  -24.856333
  0.31481576D-03  0.58688816D-03  0.99194438D-03  0.14912173D-02  0.18321328D-02
  0.15475290D-02  0.58367101D-03 -0.28886204D-05 -0.22141272D-03 -0.41455448D-03
 -0.70581447D-03 -0.10917877D-02 -0.14378459D-02 -0.14940140D-02 -0.94937885D-03
  0.63625163D-03 -0.59509555D-03  0.21130931D-02  0.91461870D-03  0.12170399D-03
  0.11410522D-03  0.81249718D-04 -0.36341918D-03 -0.34072859D-03 -0.24261905D-03
 -0.11871668D-03 -0.11130443D-03 -0.79255387D-04 -0.35048807D-03  0.11281049D-02
  0.38246196D-03  0.27018227D-03 -0.18671948D-03  0.47066717D-04  0.32230199D-04
 -0.21645370D-04  0.59241461D-05 -0.35185987D-03  0.40910589D-03 -0.57246022D-04
  0.47294144D-03 -0.36325088D-04  0.67741138D-03 -0.25024269D-03  0.24097833D-03
  0.92643556D-05  0.38692821D-03 -0.62042018D-04  0.40861440D-03  0.67857437D-05
  0.47707690D-06 -0.72628206D-05 -0.34436194D-04 -0.43937301D-05 -0.10740819D-04
 -0.39487168D-04  0.19589005D-03 -0.28301185D-03  0.20414451D-03 -0.63693265D-03
  0.77903909D-04 -0.85683005D-04  0.49262489D-04  0.77113164D-03  0.46505109D-03
 -0.13077388D-04  0.12312907D-04 -0.42453637D-04  0.14781356D-04 -0.25528646D-04
  0.78902961D-05  0.24450808D-04 -0.11410076D-04  0.11947061D-03  0.13671124D-03
  0.51096582D-04  0.95255646D-04  0.16099882D-03  0.24203397D-03  0.29736669D-03
  0.25117371D-03  0.94733482D-04 -0.46884129D-06 -0.34544560D-04 -0.64678315D-04
 -0.11012037D-03 -0.17033946D-03 -0.22433108D-03 -0.23309436D-03 -0.14812100D-03
  0.99267251D-04 -0.19418784D-04 -0.13201124D-02 -0.96153653D-03  0.18891187D-04
  0.17711688D-04  0.12611777D-04 -0.37832578D-04 -0.35470446D-04 -0.25257071D-04
 -0.90894446D-05 -0.85219320D-05 -0.60681233D-05 -0.21306392D-03  0.19802279D-03
 -0.11730642D-04  0.16834117D-03 -0.49502135D-04  0.62745427D-04  0.40906441D-04
 -0.27679481D-04  0.74157354D-05 -0.12741287D-04  0.14673510D-04 -0.19322228D-05
  0.24884314D-05 -0.11166667D-04  0.15693369D-04 -0.30065128D-04  0.38697261D-04
 -0.86321332D-05 -0.25348851D-04 -0.41257523D-04  0.27090373D-04 -0.14951303D-04
  0.80639527D-05  0.68873502D-05  0.27227948D-04 -0.97750425D-05  0.13853404D-04
 -0.34831775D-05  0.37511772D-06  0.17684844D-04  0.47430310D-04 -0.34370585D-04
 -0.16629005D-04 -0.36980777D-04  0.33245232D-04 -0.36425527D-04 -0.50169212D-04
 -0.28213698D-05 -0.21432094D-04  0.95442128D-05 -0.34779979D-04  0.91646068D-04
 -0.62894247D-05  0.43244088D-04 -0.27349787D-04 -0.22343214D-04  0.39065846D-04
  0.82879514D-04  0.15443377D-03  0.26118622D-03  0.39333198D-03  0.48697051D-03
  0.41438992D-03  0.15768301D-03 -0.73849681D-06 -0.57322255D-04 -0.10747976D-03
 -0.18285506D-03 -0.28395460D-03 -0.37682426D-03 -0.39712105D-03 -0.24624038D-03
  0.16379920D-03  0.18014628D-04  0.35877730D-03  0.39507415D-03  0.96101016D-05
  0.92303877D-05  0.64729850D-05 -0.26989419D-04 -0.25923014D-04 -0.18179007D-04
 -0.84953784D-05 -0.81597094D-05 -0.57221515D-05 -0.62012554D-04  0.70435758D-04
  0.29840123D-05 -0.12486339D-03  0.81558009D-04 -0.24099543D-04 -0.39143187D-04
  0.27572224D-04 -0.65547738D-05 -0.43129827D-04  0.17759041D-04  0.25370786D-04
  0.11787269D-03 -0.98178181D-05  0.51746208D-04  0.18635452D-04  0.27250108D-05
 -0.21360463D-04 -0.97418659D-04 -0.12013615D-04 -0.28257548D-04  0.11026739D-04
 -0.51734958D-05 -0.58532430D-05 -0.27523693D-04  0.33651067D-05 -0.12987616D-04
  0.12726396D-04  0.18380651D-04 -0.24457887D-05 -0.98006354D-05 -0.60993586D-04
  0.11777155D-04 -0.28378553D-04  0.58516334D-05 -0.44397892D-05 -0.76613554D-04
 -0.21072006D-05 -0.11441132D-04 -0.44224480D-06 -0.13006059D-04  0.42973459D-04