 Molden2AIM, Version 4.0.0 (06/02/2016)           Time: Fri Jun 29 17:20:48 2018
GAUSSIAN             25 MOL ORBITALS    431 PRIMITIVES        5 NUCLEI
  C    1    (CENTRE  1)   3.07209753  0.22555960 -0.00043842  CHARGE =  6.0
  F    2    (CENTRE  2)   3.91107167  0.45949069  2.35804561  CHARGE =  9.0
  F    3    (CENTRE  3)   4.34602994 -1.62282499 -1.13201209  CHARGE =  9.0
  F    4    (CENTRE  4)   3.51307268  2.37517409 -1.22789112  CHARGE =  9.0
  Cl   5    (CENTRE  5)  -0.18507978 -0.45259130 -0.00454290  CHARGE = 17.0
CENTRE ASSIGNMENTS    1  1  1  1  1  1  1  1  1  1  1  1  1  1  1  1  1  1  1  1
CENTRE ASSIGNMENTS    1  1  1  1  1  1  1  1  1  1  1  1  1  1  1  1  1  1  1  1
CENTRE ASSIGNMENTS    1  1  1  1  1  1  1  1  1  1  1  1  1  1  1  1  1  1  1  1
CENTRE ASSIGNMENTS    1  1  1  1  1  1  1  1  1  1  1  1  1  1  1  2  2  2  2  2
CENTRE ASSIGNMENTS    2  2  2  2  2  2  2  2  2  2  2  2  2  2  2  2  2  2  2  2
CENTRE ASSIGNMENTS    2  2  2  2  2  2  2  2  2  2  2  2  2  2  2  2  2  2  2  2
CENTRE ASSIGNMENTS    2  2  2  2  2  2  2  2  2  2  2  2  2  2  2  2  2  2  2  2
CENTRE ASSIGNMENTS    2  2  2  2  2  2  2  2  2  2  3  3  3  3  3  3  3  3  3  3
CENTRE ASSIGNMENTS    3  3  3  3  3  3  3  3  3  3  3  3  3  3  3  3  3  3  3  3
CENTRE ASSIGNMENTS    3  3  3  3  3  3  3  3  3  3  3  3  3  3  3  3  3  3  3  3
CENTRE ASSIGNMENTS    3  3  3  3  3  3  3  3  3  3  3  3  3  3  3  3  3  3  3  3
CENTRE ASSIGNMENTS    3  3  3  3  3  4  4  4  4  4  4  4  4  4  4  4  4  4  4  4
CENTRE ASSIGNMENTS    4  4  4  4  4  4  4  4  4  4  4  4  4  4  4  4  4  4  4  4
CENTRE ASSIGNMENTS    4  4  4  4  4  4  4  4  4  4  4  4  4  4  4  4  4  4  4  4
CENTRE ASSIGNMENTS    4  4  4  4  4  4  4  4  4  4  4  4  4  4  4  4  4  4  4  4
CENTRE ASSIGNMENTS    5  5  5  5  5  5  5  5  5  5  5  5  5  5  5  5  5  5  5  5
CENTRE ASSIGNMENTS    5  5  5  5  5  5  5  5  5  5  5  5  5  5  5  5  5  5  5  5
CENTRE ASSIGNMENTS    5  5  5  5  5  5  5  5  5  5  5  5  5  5  5  5  5  5  5  5
CENTRE ASSIGNMENTS    5  5  5  5  5  5  5  5  5  5  5  5  5  5  5  5  5  5  5  5
CENTRE ASSIGNMENTS    5  5  5  5  5  5  5  5  5  5  5  5  5  5  5  5  5  5  5  5
CENTRE ASSIGNMENTS    5  5  5  5  5  5  5  5  5  5  5  5  5  5  5  5  5  5  5  5
CENTRE ASSIGNMENTS    5  5  5  5  5  5  5  5  5  5  5
TYPE ASSIGNMENTS      1  1  1  1  1  1  1  1  1  1  1  1  1  1  1  1  1  1  1  2
TYPE ASSIGNMENTS      2  2  3  3  3  4  4  4  2  3  4  2  3  4  2  3  4  5  6  7
TYPE ASSIGNMENTS      8  9 10  5  6  7  8  9 10  5  6  7  8  9 10 11 12 13 17 14
TYPE ASSIGNMENTS     15 18 19 16 20 11 12 13 17 14 15 18 19 16 20  1  1  1  1  1
TYPE ASSIGNMENTS      1  1  1  1  1  1  1  1  1  1  1  1  1  1  2  2  2  3  3  3
TYPE ASSIGNMENTS      4  4  4  2  3  4  2  3  4  2  3  4  5  6  7  8  9 10  5  6
TYPE ASSIGNMENTS      7  8  9 10  5  6  7  8  9 10 11 12 13 17 14 15 18 19 16 20
TYPE ASSIGNMENTS     11 12 13 17 14 15 18 19 16 20  1  1  1  1  1  1  1  1  1  1
TYPE ASSIGNMENTS      1  1  1  1  1  1  1  1  1  2  2  2  3  3  3  4  4  4  2  3
TYPE ASSIGNMENTS      4  2  3  4  2  3  4  5  6  7  8  9 10  5  6  7  8  9 10  5
TYPE ASSIGNMENTS      6  7  8  9 10 11 12 13 17 14 15 18 19 16 20 11 12 13 17 14
TYPE ASSIGNMENTS     15 18 19 16 20  1  1  1  1  1  1  1  1  1  1  1  1  1  1  1
TYPE ASSIGNMENTS      1  1  1  1  2  2  2  3  3  3  4  4  4  2  3  4  2  3  4  2
TYPE ASSIGNMENTS      3  4  5  6  7  8  9 10  5  6  7  8  9 10  5  6  7  8  9 10
TYPE ASSIGNMENTS     11 12 13 17 14 15 18 19 16 20 11 12 13 17 14 15 18 19 16 20
TYPE ASSIGNMENTS      1  1  1  1  1  1  1  1  1  1  1  1  1  1  1  1  1  1  1  1
TYPE ASSIGNMENTS      1  1  1  1  1  1  1  1  1  1  1  1  1  1  1  1  1  1  1  1
TYPE ASSIGNMENTS      1  1  2  2  2  2  2  2  2  3  3  3  3  3  3  3  4  4  4  4
TYPE ASSIGNMENTS      4  4  4  2  2  2  2  2  2  2  3  3  3  3  3  3  3  4  4  4
TYPE ASSIGNMENTS      4  4  4  4  2  3  4  2  3  4  2  3  4  5  6  7  8  9 10  5
TYPE ASSIGNMENTS      6  7  8  9 10  5  6  7  8  9 10 11 12 13 17 14 15 18 19 16
TYPE ASSIGNMENTS     20 11 12 13 17 14 15 18 19 16 20
EXPONENTS  0.8236000D+04 0.1235000D+04 0.2808000D+03 0.7927000D+02 0.2559000D+02
EXPONENTS  0.8997000D+01 0.3319000D+01 0.3643000D+00 0.8236000D+04 0.1235000D+04
EXPONENTS  0.2808000D+03 0.7927000D+02 0.2559000D+02 0.8997000D+01 0.3319000D+01
EXPONENTS  0.3643000D+00 0.9059000D+00 0.1285000D+00 0.4402000D-01 0.1871000D+02
EXPONENTS  0.4133000D+01 0.1200000D+01 0.1871000D+02 0.4133000D+01 0.1200000D+01
EXPONENTS  0.1871000D+02 0.4133000D+01 0.1200000D+01 0.3827000D+00 0.3827000D+00
EXPONENTS  0.3827000D+00 0.1209000D+00 0.1209000D+00 0.1209000D+00 0.3569000D-01
EXPONENTS  0.3569000D-01 0.3569000D-01 0.1097000D+01 0.1097000D+01 0.1097000D+01
EXPONENTS  0.1097000D+01 0.1097000D+01 0.1097000D+01 0.3180000D+00 0.3180000D+00
EXPONENTS  0.3180000D+00 0.3180000D+00 0.3180000D+00 0.3180000D+00 0.1000000D+00
EXPONENTS  0.1000000D+00 0.1000000D+00 0.1000000D+00 0.1000000D+00 0.1000000D+00
EXPONENTS  0.7610000D+00 0.7610000D+00 0.7610000D+00 0.7610000D+00 0.7610000D+00
EXPONENTS  0.7610000D+00 0.7610000D+00 0.7610000D+00 0.7610000D+00 0.7610000D+00
EXPONENTS  0.2680000D+00 0.2680000D+00 0.2680000D+00 0.2680000D+00 0.2680000D+00
EXPONENTS  0.2680000D+00 0.2680000D+00 0.2680000D+00 0.2680000D+00 0.2680000D+00
EXPONENTS  0.1950000D+05 0.2923000D+04 0.6645000D+03 0.1875000D+03 0.6062000D+02
EXPONENTS  0.2142000D+02 0.7950000D+01 0.8815000D+00 0.1950000D+05 0.2923000D+04
EXPONENTS  0.6645000D+03 0.1875000D+03 0.6062000D+02 0.2142000D+02 0.7950000D+01
EXPONENTS  0.8815000D+00 0.2257000D+01 0.3041000D+00 0.9158000D-01 0.4388000D+02
EXPONENTS  0.9926000D+01 0.2930000D+01 0.4388000D+02 0.9926000D+01 0.2930000D+01
EXPONENTS  0.4388000D+02 0.9926000D+01 0.2930000D+01 0.9132000D+00 0.9132000D+00
EXPONENTS  0.9132000D+00 0.2672000D+00 0.2672000D+00 0.2672000D+00 0.7361000D-01
EXPONENTS  0.7361000D-01 0.7361000D-01 0.3107000D+01 0.3107000D+01 0.3107000D+01
EXPONENTS  0.3107000D+01 0.3107000D+01 0.3107000D+01 0.8550000D+00 0.8550000D+00
EXPONENTS  0.8550000D+00 0.8550000D+00 0.8550000D+00 0.8550000D+00 0.2920000D+00
EXPONENTS  0.2920000D+00 0.2920000D+00 0.2920000D+00 0.2920000D+00 0.2920000D+00
EXPONENTS  0.1917000D+01 0.1917000D+01 0.1917000D+01 0.1917000D+01 0.1917000D+01
EXPONENTS  0.1917000D+01 0.1917000D+01 0.1917000D+01 0.1917000D+01 0.1917000D+01
EXPONENTS  0.7240000D+00 0.7240000D+00 0.7240000D+00 0.7240000D+00 0.7240000D+00
EXPONENTS  0.7240000D+00 0.7240000D+00 0.7240000D+00 0.7240000D+00 0.7240000D+00
EXPONENTS  0.1950000D+05 0.2923000D+04 0.6645000D+03 0.1875000D+03 0.6062000D+02
EXPONENTS  0.2142000D+02 0.7950000D+01 0.8815000D+00 0.1950000D+05 0.2923000D+04
EXPONENTS  0.6645000D+03 0.1875000D+03 0.6062000D+02 0.2142000D+02 0.7950000D+01
EXPONENTS  0.8815000D+00 0.2257000D+01 0.3041000D+00 0.9158000D-01 0.4388000D+02
EXPONENTS  0.9926000D+01 0.2930000D+01 0.4388000D+02 0.9926000D+01 0.2930000D+01
EXPONENTS  0.4388000D+02 0.9926000D+01 0.2930000D+01 0.9132000D+00 0.9132000D+00
EXPONENTS  0.9132000D+00 0.2672000D+00 0.2672000D+00 0.2672000D+00 0.7361000D-01
EXPONENTS  0.7361000D-01 0.7361000D-01 0.3107000D+01 0.3107000D+01 0.3107000D+01
EXPONENTS  0.3107000D+01 0.3107000D+01 0.3107000D+01 0.8550000D+00 0.8550000D+00
EXPONENTS  0.8550000D+00 0.8550000D+00 0.8550000D+00 0.8550000D+00 0.2920000D+00
EXPONENTS  0.2920000D+00 0.2920000D+00 0.2920000D+00 0.2920000D+00 0.2920000D+00
EXPONENTS  0.1917000D+01 0.1917000D+01 0.1917000D+01 0.1917000D+01 0.1917000D+01
EXPONENTS  0.1917000D+01 0.1917000D+01 0.1917000D+01 0.1917000D+01 0.1917000D+01
EXPONENTS  0.7240000D+00 0.7240000D+00 0.7240000D+00 0.7240000D+00 0.7240000D+00
EXPONENTS  0.7240000D+00 0.7240000D+00 0.7240000D+00 0.7240000D+00 0.7240000D+00
EXPONENTS  0.1950000D+05 0.2923000D+04 0.6645000D+03 0.1875000D+03 0.6062000D+02
EXPONENTS  0.2142000D+02 0.7950000D+01 0.8815000D+00 0.1950000D+05 0.2923000D+04
EXPONENTS  0.6645000D+03 0.1875000D+03 0.6062000D+02 0.2142000D+02 0.7950000D+01
EXPONENTS  0.8815000D+00 0.2257000D+01 0.3041000D+00 0.9158000D-01 0.4388000D+02
EXPONENTS  0.9926000D+01 0.2930000D+01 0.4388000D+02 0.9926000D+01 0.2930000D+01
EXPONENTS  0.4388000D+02 0.9926000D+01 0.2930000D+01 0.9132000D+00 0.9132000D+00
EXPONENTS  0.9132000D+00 0.2672000D+00 0.2672000D+00 0.2672000D+00 0.7361000D-01
EXPONENTS  0.7361000D-01 0.7361000D-01 0.3107000D+01 0.3107000D+01 0.3107000D+01
EXPONENTS  0.3107000D+01 0.3107000D+01 0.3107000D+01 0.8550000D+00 0.8550000D+00
EXPONENTS  0.8550000D+00 0.8550000D+00 0.8550000D+00 0.8550000D+00 0.2920000D+00
EXPONENTS  0.2920000D+00 0.2920000D+00 0.2920000D+00 0.2920000D+00 0.2920000D+00
EXPONENTS  0.1917000D+01 0.1917000D+01 0.1917000D+01 0.1917000D+01 0.1917000D+01
EXPONENTS  0.1917000D+01 0.1917000D+01 0.1917000D+01 0.1917000D+01 0.1917000D+01
EXPONENTS  0.7240000D+00 0.7240000D+00 0.7240000D+00 0.7240000D+00 0.7240000D+00
EXPONENTS  0.7240000D+00 0.7240000D+00 0.7240000D+00 0.7240000D+00 0.7240000D+00
EXPONENTS  0.4561000D+06 0.6833000D+05 0.1555000D+05 0.4405000D+04 0.1439000D+04
EXPONENTS  0.5204000D+03 0.2031000D+03 0.8396000D+02 0.3620000D+02 0.1583000D+02
EXPONENTS  0.6334000D+01 0.2694000D+01 0.4313000D+00 0.4561000D+06 0.6833000D+05
EXPONENTS  0.1555000D+05 0.4405000D+04 0.1439000D+04 0.5204000D+03 0.2031000D+03
EXPONENTS  0.8396000D+02 0.3620000D+02 0.1583000D+02 0.6334000D+01 0.2694000D+01
EXPONENTS  0.4313000D+00 0.4561000D+06 0.6833000D+05 0.1555000D+05 0.4405000D+04
EXPONENTS  0.1439000D+04 0.5204000D+03 0.2031000D+03 0.8396000D+02 0.3620000D+02
EXPONENTS  0.1583000D+02 0.6334000D+01 0.2694000D+01 0.4313000D+00 0.9768000D+00
EXPONENTS  0.1625000D+00 0.5910000D-01 0.6633000D+03 0.1568000D+03 0.4998000D+02
EXPONENTS  0.1842000D+02 0.7240000D+01 0.2922000D+01 0.3818000D+00 0.6633000D+03
EXPONENTS  0.1568000D+03 0.4998000D+02 0.1842000D+02 0.7240000D+01 0.2922000D+01
EXPONENTS  0.3818000D+00 0.6633000D+03 0.1568000D+03 0.4998000D+02 0.1842000D+02
EXPONENTS  0.7240000D+01 0.2922000D+01 0.3818000D+00 0.6633000D+03 0.1568000D+03
EXPONENTS  0.4998000D+02 0.1842000D+02 0.7240000D+01 0.2922000D+01 0.3818000D+00
EXPONENTS  0.6633000D+03 0.1568000D+03 0.4998000D+02 0.1842000D+02 0.7240000D+01
EXPONENTS  0.2922000D+01 0.3818000D+00 0.6633000D+03 0.1568000D+03 0.4998000D+02
EXPONENTS  0.1842000D+02 0.7240000D+01 0.2922000D+01 0.3818000D+00 0.1022000D+01
EXPONENTS  0.1022000D+01 0.1022000D+01 0.1301000D+00 0.1301000D+00 0.1301000D+00
EXPONENTS  0.4190000D-01 0.4190000D-01 0.4190000D-01 0.1046000D+01 0.1046000D+01
EXPONENTS  0.1046000D+01 0.1046000D+01 0.1046000D+01 0.1046000D+01 0.3440000D+00
EXPONENTS  0.3440000D+00 0.3440000D+00 0.3440000D+00 0.3440000D+00 0.3440000D+00
EXPONENTS  0.1350000D+00 0.1350000D+00 0.1350000D+00 0.1350000D+00 0.1350000D+00
EXPONENTS  0.1350000D+00 0.7060000D+00 0.7060000D+00 0.7060000D+00 0.7060000D+00
EXPONENTS  0.7060000D+00 0.7060000D+00 0.7060000D+00 0.7060000D+00 0.7060000D+00
EXPONENTS  0.7060000D+00 0.3120000D+00 0.3120000D+00 0.3120000D+00 0.3120000D+00
EXPONENTS  0.3120000D+00 0.3120000D+00 0.3120000D+00 0.3120000D+00 0.3120000D+00
EXPONENTS  0.3120000D+00
MO    1     MO 0.0        OCC NO =    2.0000000  ORB. ENERGY = -101.777424
  0.29472158D-04  0.54942803D-04  0.92863015D-04  0.13960353D-03  0.17151907D-03
  0.14487527D-03  0.54641622D-04 -0.27042444D-06 -0.21007643D-04 -0.39332936D-04
 -0.66967689D-04 -0.10358883D-03 -0.13642285D-03 -0.14175208D-03 -0.90077081D-04
  0.60367565D-04 -0.31755116D-04  0.13407724D-02  0.17113665D-03 -0.67284151D-04
 -0.63083168D-04 -0.44918974D-04 -0.14095770D-04 -0.13215681D-04 -0.94103519D-05
  0.50923979D-07  0.47744467D-07  0.33996905D-07 -0.12479229D-03 -0.25655819D-04
 -0.19541303D-06 -0.70759194D-03 -0.14757621D-03 -0.89709035D-06 -0.11685136D-04
 -0.24359165D-05 -0.94593879D-08  0.23212542D-03 -0.10846477D-03 -0.12366065D-03
  0.14854948D-03  0.52969785D-06  0.45270879D-06 -0.29162941D-03  0.13619521D-03
  0.15543419D-03 -0.18625058D-03 -0.85928826D-06 -0.59016105D-06  0.34741975D-04
 -0.16199431D-04 -0.18542544D-04  0.22113442D-04  0.14159003D-06 -0.12542642D-07
  0.41501312D-04 -0.16063612D-04  0.39574264D-04 -0.53308715D-04  0.54283415D-04
 -0.45688267D-05 -0.71195221D-04 -0.60925788D-05 -0.11415397D-03  0.47807614D-04
  0.49056850D-04 -0.19528463D-04  0.54750145D-04 -0.62396819D-04  0.64244766D-04
 -0.64885237D-05 -0.84773731D-04 -0.56593777D-05 -0.15776191D-03  0.65171937D-04
 -0.83114029D-05 -0.15492815D-04 -0.26264130D-04 -0.39771634D-04 -0.49734568D-04
 -0.42816830D-04 -0.16460353D-04  0.71325403D-07  0.49746722D-05  0.93415533D-05
  0.15907054D-04  0.24918306D-04  0.33393462D-04  0.35919171D-04  0.21565823D-04
 -0.14182592D-04  0.18898794D-04 -0.25166259D-03  0.61788661D-04 -0.33097546D-04
 -0.32368677D-04 -0.21387354D-04 -0.93988759D-05 -0.91918953D-05 -0.60734739D-05
 -0.84394070D-04 -0.82535558D-04 -0.54534733D-04  0.11939532D-04  0.53556622D-05
  0.10402807D-03  0.33754391D-03  0.71460407D-04  0.14929938D-04 -0.72045152D-05
 -0.16458811D-05 -0.66075236D-05  0.17504241D-03 -0.98342078D-05 -0.16520820D-03
  0.88233448D-04  0.27172637D-03  0.50510161D-04 -0.71232268D-04  0.11678331D-04
  0.59553936D-04 -0.40366724D-04 -0.15028845D-03 -0.29757028D-04 -0.65546293D-04
  0.43695388D-04  0.21850905D-04 -0.50818647D-04 -0.11443964D-03 -0.25505849D-04
  0.37897056D-04 -0.85842877D-05  0.11163841D-04 -0.72007002D-04  0.49110692D-04
 -0.31734181D-03 -0.41684165D-04 -0.23357829D-04  0.28385029D-03 -0.26032756D-03
 -0.12262975D-04 -0.38673916D-05 -0.22919014D-04 -0.40271033D-05 -0.85245188D-06
  0.16696840D-03  0.40816027D-04  0.12454627D-04 -0.98211363D-04  0.11835285D-03
 -0.85272567D-05 -0.15895176D-04 -0.26946231D-04 -0.40804535D-04 -0.51026215D-04
 -0.43928818D-04 -0.16887841D-04  0.73177781D-07  0.51156165D-05  0.96062218D-05
  0.16357739D-04  0.25624301D-04  0.34339578D-04  0.36936847D-04  0.22176834D-04
 -0.14584419D-04  0.19064711D-04 -0.25238577D-03  0.61527273D-04 -0.49132091D-04
 -0.48050112D-04 -0.31748741D-04  0.65472844D-04  0.64031012D-04  0.42307997D-04
  0.41050325D-04  0.40146322D-04  0.26526372D-04  0.31702309D-04 -0.86887488D-04
 -0.50434905D-04  0.34002042D-03  0.57852530D-04 -0.75029236D-05 -0.84092785D-05
  0.41507364D-05  0.31252281D-05  0.22005207D-03 -0.16724797D-03 -0.52804102D-04
 -0.94846599D-04 -0.10451018D-03 -0.14665065D-03 -0.97519343D-04  0.71418138D-04
  0.26101205D-04  0.72851957D-04  0.64560343D-04  0.50396068D-04 -0.87357931D-04
  0.44581052D-04  0.42776879D-04  0.54431091D-04  0.59591826D-04 -0.11168104D-04
 -0.20248393D-04 -0.63618916D-04 -0.11607682D-03  0.11440468D-03  0.29433426D-03
  0.15960998D-03 -0.53659506D-04 -0.10347751D-03  0.18862047D-03  0.21772509D-04
  0.20387798D-04  0.35045782D-04  0.43431285D-04 -0.56886291D-04 -0.14883940D-03
 -0.92501079D-04 -0.42771040D-05  0.43702051D-04 -0.37792777D-04  0.20819088D-04
 -0.86729126D-05 -0.16166685D-04 -0.27406505D-04 -0.41501526D-04 -0.51897804D-04
 -0.44679175D-04 -0.17176306D-04  0.74427746D-07  0.52096974D-05  0.97828891D-05
  0.16658573D-04  0.26095556D-04  0.34971115D-04  0.37616149D-04  0.22584687D-04
 -0.14852640D-04  0.19194060D-04 -0.25297770D-03  0.61571230D-04 -0.19442162D-04
 -0.19014009D-04 -0.12563360D-04 -0.78108392D-04 -0.76388302D-04 -0.50472981D-04
  0.44266876D-04  0.43292038D-04  0.28604880D-04 -0.49934486D-05  0.90312475D-04
 -0.54590631D-04  0.33430469D-03  0.83259978D-04 -0.78111647D-05 -0.60446549D-05
 -0.70014855D-05  0.34134344D-05  0.12518977D-03 -0.65863212D-04 -0.59326560D-04
  0.34010004D-03 -0.16668275D-03  0.97597038D-04 -0.44730518D-04  0.16546443D-04
  0.28184075D-04 -0.16945312D-03  0.85810299D-04 -0.21318907D-04 -0.46656560D-04
  0.49342186D-05  0.41722341D-04 -0.13135687D-03  0.54417444D-04  0.36330374D-04
  0.94281620D-04  0.50772799D-04 -0.11926924D-03 -0.20043814D-03 -0.19285739D-03
  0.18472345D-03 -0.82406719D-04  0.40538993D-04  0.17308426D-03 -0.30760343D-04
 -0.39644471D-04 -0.25344465D-04  0.45197714D-04  0.10548571D-03  0.10734559D-03
 -0.82334219D-04  0.13447707D-04 -0.31312196D-04 -0.53258924D-04 -0.59990363D-04
  0.61725916D+00  0.11548943D+01  0.19954014D+01  0.32347785D+01  0.49122691D+01
  0.68274765D+01  0.81168846D+01  0.72298964D+01  0.35891371D+01  0.57826749D+00
  0.88779463D-02  0.15864803D-02  0.59284293D-04 -0.10343270D-02 -0.19319744D-02
 -0.33530353D-02 -0.54406136D-02 -0.84214237D-02 -0.12054503D-01 -0.15734892D-01
 -0.16768153D-01 -0.12534535D-01 -0.66167582D-03  0.85022058D-02  0.50512871D-02
 -0.18938539D-04  0.45670174D-03  0.85236800D-03  0.14813406D-02  0.24008173D-02
  0.37288451D-02  0.53416782D-02  0.70531883D-02  0.76265888D-02  0.59793445D-02
  0.29753020D-03 -0.51258100D-02 -0.53061636D-02  0.24011141D-02 -0.26731470D-02
 -0.15876064D-02 -0.45638467D-03  0.68103656D-02  0.89707799D-02  0.98968718D-02
  0.82204896D-02  0.43661017D-02  0.11261450D-02 -0.11576388D-05  0.14171574D-02
  0.18667143D-02  0.20594232D-02  0.17105877D-02  0.90853467D-03  0.23433759D-03
 -0.24089108D-06  0.12170386D-04  0.16031130D-04  0.17686092D-04  0.14690332D-04
  0.78023924D-05  0.20124646D-05 -0.20687452D-08 -0.57498659D-02 -0.75491524D-02
 -0.85952654D-02 -0.72781177D-02 -0.41691861D-02 -0.94834518D-03  0.44387774D-03
 -0.11965560D-02 -0.15709904D-02 -0.17886881D-02 -0.15145876D-02 -0.86761410D-03
 -0.19735211D-03  0.92371647D-04 -0.10128114D-04 -0.13297471D-04 -0.15140149D-04
 -0.12820056D-04 -0.73438216D-05 -0.16704646D-05  0.78186939D-06 -0.18999040D-03
 -0.39522485D-04 -0.41765123D-06 -0.68198607D-03 -0.14201004D-03 -0.89147392D-06
 -0.20226650D-04 -0.42106407D-05 -0.28262072D-07  0.20676753D-03 -0.96632071D-04
 -0.11013546D-03  0.13205993D-03  0.81960946D-06  0.43304247D-06  0.13213757D-04
 -0.61041369D-05 -0.71096200D-05  0.83587048D-05  0.21270171D-06 -0.14167420D-06
 -0.79239261D-04  0.36982159D-04  0.42257103D-04 -0.50582203D-04 -0.33265164D-06
 -0.63588869D-07  0.79118584D-04 -0.25191404D-04 -0.70166865D-05 -0.10523143D-03
  0.10455757D-03  0.16598740D-05 -0.13212432D-03 -0.28983353D-04  0.19390186D-04
 -0.78145324D-05 -0.19402329D-04  0.63230272D-05 -0.28592938D-06  0.25753425D-04
 -0.25652634D-04 -0.10298484D-06  0.32453563D-04  0.66835522D-05  0.96077299D-06
 -0.58659955D-06
MO    2     MO 0.0        OCC NO =    2.0000000  ORB. ENERGY =  -24.843306
  0.20649180D-03  0.38494767D-03  0.65062938D-03  0.97810908D-03  0.12017200D-02
  0.10150447D-02  0.38283750D-03 -0.18946842D-05 -0.14626203D-03 -0.27384868D-03
 -0.46625080D-03 -0.72121909D-03 -0.94982018D-03 -0.98692400D-03 -0.62714590D-03
  0.42029860D-03 -0.22958365D-03  0.23628203D-03  0.54681891D-04 -0.81930553D-04
 -0.76815101D-04 -0.54696928D-04 -0.94779672D-04 -0.88861967D-04 -0.63275015D-04
 -0.50081743D-03 -0.46954818D-03 -0.33434627D-03  0.22672056D-03  0.30314048D-03
  0.16479471D-02 -0.91106273D-05  0.60933610D-05  0.51775280D-04 -0.10545855D-05
 -0.23847313D-06 -0.16528598D-06 -0.24848381D-03 -0.52663722D-03  0.77512103D-03
  0.28717876D-03  0.10008128D-02  0.10108001D-03 -0.11853939D-03 -0.31035786D-03
  0.42889725D-03  0.18002084D-03  0.57987015D-03  0.60102293D-04  0.94667206D-06
  0.36885199D-05 -0.46351920D-05  0.86639480D-06  0.12168486D-04  0.32035637D-05
 -0.11303475D-03 -0.60371371D-04  0.18924603D-03 -0.27776856D-03  0.13332442D-04
 -0.22683143D-03  0.61687281D-03  0.16778167D-03 -0.34090667D-03 -0.29091458D-04
 -0.52255532D-05 -0.17149708D-04  0.18011584D-04 -0.81067030D-04  0.28230155D-04
 -0.35544967D-04  0.96743689D-04  0.23218969D-04 -0.18489785D-04 -0.23605365D-04
  0.58479181D+00  0.10900773D+01  0.18479490D+01  0.27983393D+01  0.34993332D+01
  0.30125999D+01  0.11581534D+01 -0.50184682D-02  0.76410152D-03  0.14348473D-02
  0.24432975D-02  0.38274111D-02  0.51291812D-02  0.55171259D-02  0.33124752D-02
 -0.21784230D-02  0.63960375D-01 -0.26707068D-03 -0.43015896D-03 -0.27648008D-02
 -0.27039148D-02 -0.17865908D-02 -0.78089619D-03 -0.76369942D-03 -0.50460850D-03
 -0.78161800D-02 -0.76440533D-02 -0.50507492D-02  0.59961201D-03  0.17234028D-03
  0.16661650D-02  0.21181629D-03  0.81569536D-04  0.79108742D-03  0.10808424D-04
  0.40104704D-05  0.45470514D-04 -0.83765740D-03 -0.11795047D-02  0.20171621D-02
  0.22537457D-03  0.22933258D-02  0.60939712D-03  0.34088673D-03  0.47087410D-03
 -0.81176083D-03 -0.88011419D-04 -0.90065625D-03 -0.24914336D-03  0.72405027D-04
  0.85047710D-04 -0.15745274D-03 -0.10033323D-04 -0.14980457D-03 -0.54028670D-04
  0.99827705D-04 -0.91100779D-05 -0.10987292D-03  0.13706483D-05  0.50996242D-04
  0.83054470D-04 -0.30085376D-03 -0.23666009D-04  0.24656430D-03 -0.90713414D-04
 -0.12663090D-03 -0.28485600D-04  0.18942491D-03 -0.10509694D-03 -0.35728511D-04
 -0.18358253D-03  0.48498962D-03  0.12118531D-03 -0.38469221D-03  0.12297670D-03
 -0.10154125D+00 -0.18927728D+00 -0.32087153D+00 -0.48589406D+00 -0.60761223D+00
 -0.52309753D+00 -0.20109779D+00  0.87138963D-03 -0.12835191D-03 -0.24102216D-03
 -0.41041917D-03 -0.64291920D-03 -0.86158737D-03 -0.92675338D-03 -0.55642151D-03
  0.36592620D-03 -0.11127780D-01  0.26328720D-03  0.14262684D-03  0.77929173D-03
  0.76213029D-03  0.50357171D-03 -0.11373327D-02 -0.11122865D-02 -0.73493475D-03
 -0.74024850D-03 -0.72394686D-03 -0.47834230D-03 -0.19074134D-03  0.27899773D-03
  0.20891015D-03 -0.10534834D-03  0.23111060D-03  0.25878655D-03 -0.86014861D-05
  0.18068420D-04  0.15256864D-04  0.19222752D-04 -0.21653639D-03  0.19731364D-03
  0.54350125D-03  0.39006555D-03 -0.38157690D-03 -0.27285363D-04  0.78725096D-04
 -0.51439733D-04 -0.20210064D-03 -0.16242883D-03  0.19241021D-03 -0.24044488D-04
  0.11760583D-04  0.12283905D-04 -0.82087164D-04 -0.63161011D-04  0.13309311D-03
 -0.64963877D-04 -0.52246395D-04  0.15330136D-03  0.20883394D-03 -0.23980759D-03
 -0.23618887D-03 -0.13942305D-04  0.39654677D-03 -0.22371522D-03  0.31016184D-03
  0.46939999D-04  0.50472748D-05 -0.70143010D-04 -0.12681404D-03  0.82663255D-04
  0.68449985D-04 -0.14005953D-04 -0.97805079D-04  0.14197904D-03 -0.22775091D-03
 -0.76712761D-02 -0.14299591D-01 -0.24241322D-01 -0.36708506D-01 -0.45904116D-01
 -0.39519168D-01 -0.15192611D-01  0.65832070D-04 -0.64480738D-05 -0.12108341D-04
 -0.20618416D-04 -0.32298627D-04 -0.43283959D-04 -0.46557734D-04 -0.27953202D-04
  0.18383202D-04 -0.85796509D-03  0.19098096D-03  0.64534657D-04  0.34460930D-04
  0.33702037D-04  0.22268361D-04  0.15868295D-03  0.15518846D-03  0.10253958D-03
 -0.14187272D-03 -0.13874842D-03 -0.91676951D-04 -0.14014096D-04 -0.65250973D-04
  0.82335974D-04  0.16905325D-05 -0.96227962D-04  0.20303758D-03 -0.38851855D-06
 -0.10515476D-04  0.11789993D-04 -0.44737538D-05 -0.12684780D-03  0.13132155D-03
  0.10644164D-05  0.12295313D-03  0.36972188D-04 -0.84849714D-05  0.28781771D-04
 -0.20296800D-04 -0.12098393D-04 -0.41974917D-04 -0.52568829D-04 -0.29540692D-04
  0.20812452D-05  0.27459447D-04  0.21949626D-04  0.46890610D-07 -0.10507917D-03
 -0.74881438D-04  0.13560945D-03  0.14546941D-03  0.85778234D-04 -0.32134157D-04
 -0.14286154D-03  0.13886608D-03 -0.37469421D-03 -0.29354670D-03 -0.18417880D-03
  0.27790810D-04 -0.35956194D-04 -0.48983441D-04 -0.35233502D-04  0.27479217D-04
  0.25552675D-04 -0.48138927D-04  0.80389365D-04  0.12139765D-03  0.56673141D-04
  0.95481114D-05  0.17864553D-04  0.30865990D-04  0.50037370D-04  0.75985738D-04
  0.10561124D-03  0.12555653D-03  0.11183610D-03  0.55518788D-04  0.89449663D-05
  0.13732906D-06  0.24540568D-07  0.91704274D-09 -0.16477602D-04 -0.30777794D-04
 -0.53416354D-04 -0.86673035D-04 -0.13415956D-03 -0.19203723D-03 -0.25066857D-03
 -0.26712919D-03 -0.19968449D-03 -0.10540989D-04  0.13544648D-03  0.80470772D-04
 -0.30170507D-06  0.85486261D-05  0.15954779D-04  0.27728001D-04  0.44938933D-04
  0.69797199D-04  0.99986502D-04  0.13202286D-03  0.14275587D-03  0.11192246D-03
  0.55692243D-05 -0.95945842D-04 -0.99321733D-04  0.44944489D-04 -0.31585561D-04
 -0.22585640D-04 -0.32481932D-04  0.65151483D-03  0.85819125D-03  0.94678599D-03
  0.78641460D-03  0.41768390D-03  0.10773286D-03 -0.11074572D-06  0.28527106D-03
  0.37576601D-03  0.41455794D-03  0.34433802D-03  0.18288629D-03  0.47171709D-04
 -0.48490913D-07  0.97124293D-03  0.12793449D-02  0.14114171D-02  0.11723442D-02
  0.62266047D-03  0.16060230D-03 -0.16509370D-06 -0.59000446D-03 -0.77463261D-03
 -0.88197622D-03 -0.74682123D-03 -0.42780796D-03 -0.97311468D-04  0.45547123D-04
 -0.25242880D-03 -0.33142051D-03 -0.37734663D-03 -0.31952163D-03 -0.18303429D-03
 -0.41633951D-04  0.19486981D-04 -0.84114252D-03 -0.11043585D-02 -0.12573934D-02
 -0.10647091D-02 -0.60990634D-03 -0.13873253D-03  0.64934461D-04 -0.20909359D-04
 -0.15265319D-04 -0.70785872D-04 -0.18117121D-04  0.66987700D-05  0.67788906D-04
 -0.51098872D-06  0.88717826D-07  0.12705254D-05  0.10700423D-04 -0.68515994D-05
 -0.38488237D-05 -0.16860311D-05 -0.55630169D-04 -0.11782837D-04  0.81797002D-05
 -0.79647756D-05 -0.21492461D-06  0.25879814D-04  0.11221968D-03  0.22433077D-04
 -0.13421008D-05 -0.47735748D-05  0.61156756D-05  0.57939819D-05  0.25700847D-04
  0.44055213D-05 -0.65613373D-05  0.39823953D-05 -0.40826735D-05  0.21582203D-04
 -0.11009400D-04  0.19086861D-04 -0.18981915D-05 -0.93778596D-06 -0.68388401D-05
  0.13531745D-04  0.23349876D-05 -0.48773215D-05 -0.10752386D-04 -0.13513900D-04
  0.15018295D-04  0.36576401D-04  0.65089369D-05 -0.38633041D-06 -0.43192447D-05
  0.15611241D-04
MO    3     MO 0.0        OCC NO =    2.0000000  ORB. ENERGY =  -24.843284
  0.29299469D-03  0.54620872D-03  0.92318896D-03  0.13878554D-02  0.17051407D-02
  0.14402639D-02  0.54321456D-03 -0.26883992D-05 -0.20754880D-03 -0.38859684D-03
 -0.66161937D-03 -0.10234246D-02 -0.13478141D-02 -0.14004652D-02 -0.88993278D-03
  0.59641225D-03 -0.32507856D-03  0.33419889D-03  0.77396303D-04 -0.22145274D-03
 -0.20762602D-03 -0.14784210D-03  0.37143288D-03  0.34824193D-03  0.24796900D-03
  0.13565180D-03  0.12718219D-03  0.90561296D-04  0.66922588D-03 -0.12364233D-02
 -0.44700020D-03 -0.16035193D-05 -0.43444301D-04 -0.14160807D-04 -0.15251395D-05
 -0.17280085D-06  0.34032100D-07 -0.96335765D-04  0.17201175D-03 -0.75675986D-04
 -0.10102771D-02 -0.48371639D-03  0.98771519D-03 -0.19984687D-04  0.80472715D-04
 -0.60488028D-04 -0.56082862D-03 -0.27799846D-03  0.56140844D-03  0.36124248D-05
 -0.40620488D-05  0.44962402D-06 -0.78539447D-05 -0.19980383D-05 -0.69672329D-05
 -0.17455209D-03  0.26576652D-04  0.16796062D-03  0.42952430D-03 -0.89355314D-04
 -0.10926047D-03  0.94131963D-04  0.96253584D-05 -0.39462139D-03  0.92715460D-03
 -0.85052307D-05  0.12254555D-06  0.87794049D-05  0.48676270D-04  0.99358934D-05
 -0.21532243D-04 -0.23160578D-04 -0.10303530D-04 -0.48059715D-05  0.15722839D-03
  0.10136706D+00  0.18895259D+00  0.32032109D+00  0.48506054D+00  0.60656991D+00
  0.52220019D+00  0.20075282D+00 -0.86989482D-03  0.13707060D-03  0.25739432D-03
  0.43829814D-03  0.68659144D-03  0.92011330D-03  0.98970591D-03  0.59421813D-03
 -0.39078284D-03  0.11063648D-01  0.18373268D-03 -0.25953608D-05 -0.45389955D-03
 -0.44390385D-03 -0.29330604D-03 -0.86344248D-04 -0.84442789D-04 -0.55794921D-04
 -0.12350359D-02 -0.12078381D-02 -0.79806970D-03  0.88988490D-04 -0.10920616D-04
  0.19997392D-03  0.42843572D-04 -0.10429842D-03 -0.76237394D-04 -0.17580522D-07
 -0.44065717D-05 -0.94703866D-05 -0.14945327D-03 -0.15571165D-03  0.30516492D-03
 -0.68589547D-04  0.26909066D-03  0.27128671D-03  0.44232024D-04  0.65678091D-04
 -0.10991012D-03  0.26885766D-04 -0.13173038D-03 -0.56936207D-04 -0.16165606D-04
 -0.14401975D-04  0.30567581D-04  0.94085439D-06  0.35898487D-05  0.70145826D-04
 -0.88035252D-04  0.75155083D-04  0.51436817D-04 -0.30262218D-04  0.73814531D-04
  0.16927453D-03  0.29436798D-03 -0.29927978D-03 -0.32358498D-03  0.24749378D-03
  0.15664178D-04 -0.22571530D-04 -0.17791272D-05 -0.13750815D-04 -0.11075208D-04
 -0.59246542D-04 -0.33241719D-04  0.78789796D-04  0.64583924D-04 -0.69674740D-04
  0.58474596D+00  0.10899918D+01  0.18478041D+01  0.27981200D+01  0.34990588D+01
  0.30123637D+01  0.11580626D+01 -0.50180748D-02  0.76561820D-03  0.14376954D-02
  0.24481473D-02  0.38350083D-02  0.51393622D-02  0.55280770D-02  0.33190502D-02
 -0.21827470D-02  0.63947830D-01 -0.18956297D-03 -0.40588225D-03 -0.41887449D-02
 -0.40965010D-02 -0.27067314D-02  0.60996339D-02  0.59653088D-02  0.39415317D-02
  0.37272383D-02  0.36451577D-02  0.24085098D-02  0.89550384D-03 -0.12829535D-02
 -0.77963066D-03  0.34406416D-03 -0.58288086D-03 -0.32682323D-03  0.17411285D-04
 -0.32278417D-04 -0.18299928D-04 -0.31634180D-03  0.75618396D-03 -0.43984216D-03
 -0.27151078D-02 -0.16409037D-02  0.24248013D-02  0.12854540D-03 -0.30859862D-03
  0.18005322D-03  0.10807271D-02  0.64920614D-03 -0.96550012D-03  0.29961541D-04
 -0.62324186D-04  0.32362644D-04  0.17673418D-03  0.10229783D-03 -0.15597722D-03
  0.84267620D-04 -0.27228809D-04 -0.35327873D-04 -0.17753204D-03  0.14490684D-04
 -0.39136439D-04 -0.75270821D-04  0.67195744D-04  0.14512006D-03 -0.25170622D-03
 -0.12796635D-03  0.30193125D-04  0.11080031D-03  0.35679367D-03 -0.69360826D-04
 -0.27396739D-04  0.27105369D-04 -0.21218551D-04 -0.30500419D-03  0.64725602D-03
 -0.12000981D-01 -0.22370348D-01 -0.37923240D-01 -0.57426961D-01 -0.71812617D-01
 -0.61823974D-01 -0.23767393D-01  0.10298800D-03 -0.10592819D-04 -0.19891438D-04
 -0.33871688D-04 -0.53059799D-04 -0.71106374D-04 -0.76484492D-04 -0.45921189D-04
  0.30199706D-04 -0.13394822D-02  0.27179402D-03  0.92255447D-04  0.41708535D-04
  0.40790036D-04  0.26951702D-04  0.28634323D-03  0.28003743D-03  0.18503257D-03
 -0.12941741D-03 -0.12656740D-03 -0.83628431D-04 -0.11741957D-04 -0.13719710D-03
  0.48603981D-04  0.30236214D-04 -0.27247941D-03  0.64097080D-04  0.52357649D-06
 -0.20135462D-04  0.81687906D-05  0.23107281D-04 -0.24132194D-05 -0.20694062D-04
 -0.16907577D-03 -0.17387524D-04  0.23698729D-03 -0.23242729D-04  0.28910122D-04
 -0.56673926D-05  0.35824068D-04  0.19799353D-04 -0.84996136D-04 -0.39434027D-04
  0.71082967D-04 -0.31648940D-04  0.43626598D-05 -0.12662764D-04 -0.78083722D-04
 -0.12990569D-03 -0.94805418D-04  0.13026645D-03  0.37590577D-03  0.26300559D-04
  0.10070371D-04  0.13811295D-04  0.25811569D-03 -0.40086972D-03 -0.15623650D-03