 Molden2AIM, Version 4.0.0 (06/02/2016)           Time: Fri Jun 29 18:27:38 2018
GAUSSIAN             17 MOL ORBITALS    327 PRIMITIVES        5 NUCLEI
  C    1    (CENTRE  1)   2.81547083  0.17324253 -0.00183492  CHARGE =  6.0
  F    2    (CENTRE  2)   3.67180400  0.40832824  2.37087118  CHARGE =  9.0
  F    3    (CENTRE  3)   4.10969890 -1.68516327 -1.13733545  CHARGE =  9.0
  F    4    (CENTRE  4)   3.27602543  2.33808821 -1.23537066  CHARGE =  9.0
  H    5    (CENTRE  5)   0.78419099 -0.24968951 -0.00316907  CHARGE =  1.0
CENTRE ASSIGNMENTS    1  1  1  1  1  1  1  1  1  1  1  1  1  1  1  1  1  1  1  1
CENTRE ASSIGNMENTS    1  1  1  1  1  1  1  1  1  1  1  1  1  1  1  1  1  1  1  1
CENTRE ASSIGNMENTS    1  1  1  1  1  1  1  1  1  1  1  1  1  1  1  1  1  1  1  1
CENTRE ASSIGNMENTS    1  1  1  1  1  1  1  1  1  1  1  1  1  1  1  2  2  2  2  2
CENTRE ASSIGNMENTS    2  2  2  2  2  2  2  2  2  2  2  2  2  2  2  2  2  2  2  2
CENTRE ASSIGNMENTS    2  2  2  2  2  2  2  2  2  2  2  2  2  2  2  2  2  2  2  2
CENTRE ASSIGNMENTS    2  2  2  2  2  2  2  2  2  2  2  2  2  2  2  2  2  2  2  2
CENTRE ASSIGNMENTS    2  2  2  2  2  2  2  2  2  2  3  3  3  3  3  3  3  3  3  3
CENTRE ASSIGNMENTS    3  3  3  3  3  3  3  3  3  3  3  3  3  3  3  3  3  3  3  3
CENTRE ASSIGNMENTS    3  3  3  3  3  3  3  3  3  3  3  3  3  3  3  3  3  3  3  3
CENTRE ASSIGNMENTS    3  3  3  3  3  3  3  3  3  3  3  3  3  3  3  3  3  3  3  3
CENTRE ASSIGNMENTS    3  3  3  3  3  4  4  4  4  4  4  4  4  4  4  4  4  4  4  4
CENTRE ASSIGNMENTS    4  4  4  4  4  4  4  4  4  4  4  4  4  4  4  4  4  4  4  4
CENTRE ASSIGNMENTS    4  4  4  4  4  4  4  4  4  4  4  4  4  4  4  4  4  4  4  4
CENTRE ASSIGNMENTS    4  4  4  4  4  4  4  4  4  4  4  4  4  4  4  4  4  4  4  4
CENTRE ASSIGNMENTS    5  5  5  5  5  5  5  5  5  5  5  5  5  5  5  5  5  5  5  5
CENTRE ASSIGNMENTS    5  5  5  5  5  5  5
TYPE ASSIGNMENTS      1  1  1  1  1  1  1  1  1  1  1  1  1  1  1  1  1  1  1  2
TYPE ASSIGNMENTS      2  2  3  3  3  4  4  4  2  3  4  2  3  4  2  3  4  5  6  7
TYPE ASSIGNMENTS      8  9 10  5  6  7  8  9 10  5  6  7  8  9 10 11 12 13 17 14
TYPE ASSIGNMENTS     15 18 19 16 20 11 12 13 17 14 15 18 19 16 20  1  1  1  1  1
TYPE ASSIGNMENTS      1  1  1  1  1  1  1  1  1  1  1  1  1  1  2  2  2  3  3  3
TYPE ASSIGNMENTS      4  4  4  2  3  4  2  3  4  2  3  4  5  6  7  8  9 10  5  6
TYPE ASSIGNMENTS      7  8  9 10  5  6  7  8  9 10 11 12 13 17 14 15 18 19 16 20
TYPE ASSIGNMENTS     11 12 13 17 14 15 18 19 16 20  1  1  1  1  1  1  1  1  1  1
TYPE ASSIGNMENTS      1  1  1  1  1  1  1  1  1  2  2  2  3  3  3  4  4  4  2  3
TYPE ASSIGNMENTS      4  2  3  4  2  3  4  5  6  7  8  9 10  5  6  7  8  9 10  5
TYPE ASSIGNMENTS      6  7  8  9 10 11 12 13 17 14 15 18 19 16 20 11 12 13 17 14
TYPE ASSIGNMENTS     15 18 19 16 20  1  1  1  1  1  1  1  1  1  1  1  1  1  1  1
TYPE ASSIGNMENTS      1  1  1  1  2  2  2  3  3  3  4  4  4  2  3  4  2  3  4  2
TYPE ASSIGNMENTS      3  4  5  6  7  8  9 10  5  6  7  8  9 10  5  6  7  8  9 10
TYPE ASSIGNMENTS     11 12 13 17 14 15 18 19 16 20 11 12 13 17 14 15 18 19 16 20
TYPE ASSIGNMENTS      1  1  1  1  1  1  2  3  4  2  3  4  2  3  4  5  6  7  8  9
TYPE ASSIGNMENTS     10  5  6  7  8  9 10
EXPONENTS  0.8236000D+04 0.1235000D+04 0.2808000D+03 0.7927000D+02 0.2559000D+02
EXPONENTS  0.8997000D+01 0.3319000D+01 0.3643000D+00 0.8236000D+04 0.1235000D+04
EXPONENTS  0.2808000D+03 0.7927000D+02 0.2559000D+02 0.8997000D+01 0.3319000D+01
EXPONENTS  0.3643000D+00 0.9059000D+00 0.1285000D+00 0.4402000D-01 0.1871000D+02
EXPONENTS  0.4133000D+01 0.1200000D+01 0.1871000D+02 0.4133000D+01 0.1200000D+01
EXPONENTS  0.1871000D+02 0.4133000D+01 0.1200000D+01 0.3827000D+00 0.3827000D+00
EXPONENTS  0.3827000D+00 0.1209000D+00 0.1209000D+00 0.1209000D+00 0.3569000D-01
EXPONENTS  0.3569000D-01 0.3569000D-01 0.1097000D+01 0.1097000D+01 0.1097000D+01
EXPONENTS  0.1097000D+01 0.1097000D+01 0.1097000D+01 0.3180000D+00 0.3180000D+00
EXPONENTS  0.3180000D+00 0.3180000D+00 0.3180000D+00 0.3180000D+00 0.1000000D+00
EXPONENTS  0.1000000D+00 0.1000000D+00 0.1000000D+00 0.1000000D+00 0.1000000D+00
EXPONENTS  0.7610000D+00 0.7610000D+00 0.7610000D+00 0.7610000D+00 0.7610000D+00
EXPONENTS  0.7610000D+00 0.7610000D+00 0.7610000D+00 0.7610000D+00 0.7610000D+00
EXPONENTS  0.2680000D+00 0.2680000D+00 0.2680000D+00 0.2680000D+00 0.2680000D+00
EXPONENTS  0.2680000D+00 0.2680000D+00 0.2680000D+00 0.2680000D+00 0.2680000D+00
EXPONENTS  0.1950000D+05 0.2923000D+04 0.6645000D+03 0.1875000D+03 0.6062000D+02
EXPONENTS  0.2142000D+02 0.7950000D+01 0.8815000D+00 0.1950000D+05 0.2923000D+04
EXPONENTS  0.6645000D+03 0.1875000D+03 0.6062000D+02 0.2142000D+02 0.7950000D+01
EXPONENTS  0.8815000D+00 0.2257000D+01 0.3041000D+00 0.9158000D-01 0.4388000D+02
EXPONENTS  0.9926000D+01 0.2930000D+01 0.4388000D+02 0.9926000D+01 0.2930000D+01
EXPONENTS  0.4388000D+02 0.9926000D+01 0.2930000D+01 0.9132000D+00 0.9132000D+00
EXPONENTS  0.9132000D+00 0.2672000D+00 0.2672000D+00 0.2672000D+00 0.7361000D-01
EXPONENTS  0.7361000D-01 0.7361000D-01 0.3107000D+01 0.3107000D+01 0.3107000D+01
EXPONENTS  0.3107000D+01 0.3107000D+01 0.3107000D+01 0.8550000D+00 0.8550000D+00
EXPONENTS  0.8550000D+00 0.8550000D+00 0.8550000D+00 0.8550000D+00 0.2920000D+00
EXPONENTS  0.2920000D+00 0.2920000D+00 0.2920000D+00 0.2920000D+00 0.2920000D+00
EXPONENTS  0.1917000D+01 0.1917000D+01 0.1917000D+01 0.1917000D+01 0.1917000D+01
EXPONENTS  0.1917000D+01 0.1917000D+01 0.1917000D+01 0.1917000D+01 0.1917000D+01
EXPONENTS  0.7240000D+00 0.7240000D+00 0.7240000D+00 0.7240000D+00 0.7240000D+00
EXPONENTS  0.7240000D+00 0.7240000D+00 0.7240000D+00 0.7240000D+00 0.7240000D+00
EXPONENTS  0.1950000D+05 0.2923000D+04 0.6645000D+03 0.1875000D+03 0.6062000D+02
EXPONENTS  0.2142000D+02 0.7950000D+01 0.8815000D+00 0.1950000D+05 0.2923000D+04
EXPONENTS  0.6645000D+03 0.1875000D+03 0.6062000D+02 0.2142000D+02 0.7950000D+01
EXPONENTS  0.8815000D+00 0.2257000D+01 0.3041000D+00 0.9158000D-01 0.4388000D+02
EXPONENTS  0.9926000D+01 0.2930000D+01 0.4388000D+02 0.9926000D+01 0.2930000D+01
EXPONENTS  0.4388000D+02 0.9926000D+01 0.2930000D+01 0.9132000D+00 0.9132000D+00
EXPONENTS  0.9132000D+00 0.2672000D+00 0.2672000D+00 0.2672000D+00 0.7361000D-01
EXPONENTS  0.7361000D-01 0.7361000D-01 0.3107000D+01 0.3107000D+01 0.3107000D+01
EXPONENTS  0.3107000D+01 0.3107000D+01 0.3107000D+01 0.8550000D+00 0.8550000D+00
EXPONENTS  0.8550000D+00 0.8550000D+00 0.8550000D+00 0.8550000D+00 0.2920000D+00
EXPONENTS  0.2920000D+00 0.2920000D+00 0.2920000D+00 0.2920000D+00 0.2920000D+00
EXPONENTS  0.1917000D+01 0.1917000D+01 0.1917000D+01 0.1917000D+01 0.1917000D+01
EXPONENTS  0.1917000D+01 0.1917000D+01 0.1917000D+01 0.1917000D+01 0.1917000D+01
EXPONENTS  0.7240000D+00 0.7240000D+00 0.7240000D+00 0.7240000D+00 0.7240000D+00
EXPONENTS  0.7240000D+00 0.7240000D+00 0.7240000D+00 0.7240000D+00 0.7240000D+00
EXPONENTS  0.1950000D+05 0.2923000D+04 0.6645000D+03 0.1875000D+03 0.6062000D+02
EXPONENTS  0.2142000D+02 0.7950000D+01 0.8815000D+00 0.1950000D+05 0.2923000D+04
EXPONENTS  0.6645000D+03 0.1875000D+03 0.6062000D+02 0.2142000D+02 0.7950000D+01
EXPONENTS  0.8815000D+00 0.2257000D+01 0.3041000D+00 0.9158000D-01 0.4388000D+02
EXPONENTS  0.9926000D+01 0.2930000D+01 0.4388000D+02 0.9926000D+01 0.2930000D+01
EXPONENTS  0.4388000D+02 0.9926000D+01 0.2930000D+01 0.9132000D+00 0.9132000D+00
EXPONENTS  0.9132000D+00 0.2672000D+00 0.2672000D+00 0.2672000D+00 0.7361000D-01
EXPONENTS  0.7361000D-01 0.7361000D-01 0.3107000D+01 0.3107000D+01 0.3107000D+01
EXPONENTS  0.3107000D+01 0.3107000D+01 0.3107000D+01 0.8550000D+00 0.8550000D+00
EXPONENTS  0.8550000D+00 0.8550000D+00 0.8550000D+00 0.8550000D+00 0.2920000D+00
EXPONENTS  0.2920000D+00 0.2920000D+00 0.2920000D+00 0.2920000D+00 0.2920000D+00
EXPONENTS  0.1917000D+01 0.1917000D+01 0.1917000D+01 0.1917000D+01 0.1917000D+01
EXPONENTS  0.1917000D+01 0.1917000D+01 0.1917000D+01 0.1917000D+01 0.1917000D+01
EXPONENTS  0.7240000D+00 0.7240000D+00 0.7240000D+00 0.7240000D+00 0.7240000D+00
EXPONENTS  0.7240000D+00 0.7240000D+00 0.7240000D+00 0.7240000D+00 0.7240000D+00
EXPONENTS  0.3387000D+02 0.5095000D+01 0.1159000D+01 0.3258000D+00 0.1027000D+00
EXPONENTS  0.2526000D-01 0.1407000D+01 0.1407000D+01 0.1407000D+01 0.3880000D+00
EXPONENTS  0.3880000D+00 0.3880000D+00 0.1020000D+00 0.1020000D+00 0.1020000D+00
EXPONENTS  0.1057000D+01 0.1057000D+01 0.1057000D+01 0.1057000D+01 0.1057000D+01
EXPONENTS  0.1057000D+01 0.2470000D+00 0.2470000D+00 0.2470000D+00 0.2470000D+00
EXPONENTS  0.2470000D+00 0.2470000D+00
MO    1     MO 0.0        OCC NO =    2.0000000  ORB. ENERGY =  -24.819394
  0.82569294D-04  0.15392794D-03  0.26016533D-03  0.39111371D-03  0.48052839D-03
  0.40588304D-03  0.15308415D-03 -0.75762200D-06 -0.58446519D-04 -0.10943032D-03
 -0.18631449D-03 -0.28820019D-03 -0.37954951D-03 -0.39437625D-03 -0.25060840D-03
  0.16795192D-03 -0.10360708D-03  0.42409461D-04  0.39476755D-04  0.25744810D-04
  0.24137395D-04  0.17187263D-04 -0.56020758D-03 -0.52523021D-03 -0.37399520D-03
  0.12154375D-03  0.11395499D-03  0.81142742D-04 -0.44947282D-04  0.15946167D-02
 -0.34367427D-03 -0.66133448D-05  0.14571019D-03 -0.31623791D-04 -0.14880762D-05
 -0.93254482D-06  0.13233846D-06 -0.31088101D-03  0.34793634D-03 -0.37055330D-04
  0.83395513D-03  0.47806067D-04 -0.13378922D-02 -0.22131720D-03  0.23737492D-03
 -0.16057718D-04  0.56222058D-03  0.20325259D-04 -0.85255912D-03 -0.40233793D-05
  0.42733669D-05 -0.24998765D-06  0.11335832D-04 -0.30206244D-06 -0.13313034D-04
  0.21691554D-04  0.86506472D-04  0.50244768D-04 -0.43704691D-04 -0.35006791D-03
  0.26441891D-03 -0.21369969D-04  0.90548500D-04 -0.41515322D-03 -0.83610755D-03
  0.70514211D-05  0.56058185D-05  0.27772177D-05  0.16762298D-05 -0.17285818D-04
  0.50373191D-04 -0.22830493D-04  0.46836267D-06 -0.58704844D-04 -0.21032375D-03
 -0.18329164D-01 -0.34166357D-01 -0.57920374D-01 -0.87708517D-01 -0.10967981D+00
 -0.94424098D-01 -0.36300071D-01  0.15729415D-03 -0.23974762D-04 -0.45020357D-04
 -0.76661904D-04 -0.12009042D-03 -0.16093529D-03 -0.17310760D-03 -0.10393358D-03
  0.68351093D-04 -0.20102159D-02  0.95165004D-04  0.36956123D-04  0.10770999D-03
  0.10533802D-03  0.69601281D-04 -0.43531419D-04 -0.42572777D-04 -0.28129634D-04
  0.28184850D-03  0.27564168D-03  0.18212811D-03 -0.36171365D-04  0.50087131D-04
 -0.89109717D-04 -0.20127751D-04  0.14453237D-03 -0.85747137D-04 -0.17517412D-05
  0.12051730D-04 -0.78321245D-05 -0.19845140D-04  0.72995654D-04 -0.53150514D-04
  0.97715540D-04 -0.59073209D-04 -0.19143329D-03  0.52711244D-05 -0.31616892D-04
  0.26345768D-04 -0.51386513D-04  0.31006443D-04 -0.40493547D-05 -0.10575788D-04
 -0.12617670D-04  0.23193457D-04 -0.97814610D-05  0.15017049D-04 -0.79030999D-04
  0.56055526D-05 -0.12836783D-03  0.88334995D-05  0.32810489D-04 -0.14382907D-03
  0.97339791D-04 -0.49627146D-04  0.52893257D-03 -0.12384029D-03 -0.87812197D-04
  0.34048027D-05  0.28554199D-04 -0.99764610D-05 -0.75447030D-05  0.34378984D-04
 -0.25939711D-04 -0.26697051D-05 -0.12004158D-03  0.55869093D-04  0.47914387D-04
 -0.28541185D+00 -0.53202006D+00 -0.90190480D+00 -0.13657497D+01 -0.17078748D+01
 -0.14703211D+01 -0.56524510D+00  0.24492995D-02 -0.36691491D-03 -0.68900122D-03
 -0.11732502D-02 -0.18378896D-02 -0.24629882D-02 -0.26492759D-02 -0.15906218D-02
  0.10460598D-02 -0.31216801D-01  0.32690815D-03  0.30818187D-03  0.20493193D-02
  0.20041895D-02  0.13242527D-02 -0.29843822D-02 -0.29186607D-02 -0.19284825D-02
 -0.17653049D-02 -0.17264297D-02 -0.11407251D-02 -0.45938518D-03  0.70974630D-03
  0.38516857D-03 -0.18264474D-03  0.45711684D-03  0.15165406D-03 -0.15209456D-04
  0.35361458D-04  0.11183770D-04  0.91167926D-04 -0.29424351D-03  0.20307559D-03
  0.13425310D-02  0.75780782D-03 -0.12417038D-02 -0.50301911D-04  0.15092954D-03
 -0.10062763D-03 -0.54433750D-03 -0.28475985D-03  0.48175882D-03 -0.34059461D-04
  0.74791777D-04 -0.40732316D-04 -0.10892096D-03 -0.44084704D-04  0.97672611D-04
 -0.42093349D-04  0.16383819D-03  0.11808313D-03  0.38509896D-04 -0.24037643D-03
 -0.10407297D-04  0.87770152D-04 -0.25113814D-03 -0.34384210D-03  0.21988149D-03
  0.64420470D-04 -0.51534798D-04 -0.85956800D-04 -0.17174540D-03  0.10152782D-03
  0.21886760D-04 -0.21516013D-04  0.53076575D-04  0.23598364D-03 -0.32337648D-03
  0.52017198D+00  0.96962311D+00  0.16437496D+01  0.24891213D+01  0.31126549D+01
  0.26797059D+01  0.10301768D+01 -0.44639246D-02  0.66754331D-03  0.12535281D-02
  0.21345422D-02  0.33437477D-02  0.44810153D-02  0.48199361D-02  0.28938833D-02
 -0.19031394D-02  0.56876788D-01 -0.37217789D-03 -0.51001583D-03 -0.13044982D-02
 -0.12757708D-02 -0.84295569D-03 -0.61861707D-02 -0.60499398D-02 -0.39974510D-02
  0.34979894D-02  0.34209572D-02  0.22603711D-02  0.26647464D-03  0.13762224D-02
 -0.76471077D-03  0.62333507D-04  0.69801620D-03 -0.35103935D-03  0.74482298D-05
  0.51498286D-04 -0.25013461D-04 -0.97231536D-03  0.12513966D-02 -0.27908124D-03
  0.10146339D-02 -0.52250196D-03 -0.26774912D-02  0.39820075D-03 -0.52095947D-03
  0.12275872D-03 -0.38843625D-03  0.20081320D-03  0.10768502D-02  0.80406684D-04
 -0.11307025D-03  0.32663571D-04 -0.36658515D-04  0.22893291D-04  0.20203016D-03
  0.95526792D-04  0.26994102D-04 -0.10890516D-03 -0.24018816D-03  0.10530018D-03
 -0.30462960D-04 -0.46392216D-04 -0.18628248D-03  0.35717844D-03 -0.16560704D-04
 -0.80701242D-04  0.55320904D-04  0.12218623D-03  0.21344147D-03 -0.26045516D-03
  0.13213096D-03  0.28662257D-04  0.94492447D-04 -0.49868965D-03 -0.20881958D-03
 -0.81920383D-06 -0.14774678D-05 -0.21785255D-05  0.19801148D-03  0.47875642D-04
 -0.58579394D-05  0.35961868D-05 -0.53739019D-06  0.33016565D-06  0.82323051D-04
  0.23036925D-03 -0.45940090D-04  0.88018929D-05  0.46608166D-04 -0.95865507D-05
  0.14164387D-04  0.18212667D-05 -0.15985654D-04  0.10193710D-03 -0.22669529D-04
  0.11758372D-04  0.30194610D-06  0.80725149D-05 -0.83744610D-05  0.53249176D-04
 -0.35138773D-05 -0.39183423D-04
MO    2     MO 0.0        OCC NO =    2.0000000  ORB. ENERGY =  -24.819386
  0.27727577D-03  0.51690507D-03  0.87366063D-03  0.13133981D-02  0.16136613D-02
  0.13629949D-02  0.51407154D-03 -0.25441688D-05 -0.19633268D-03 -0.36759672D-03
 -0.62586488D-03 -0.96811780D-03 -0.12749771D-02 -0.13247829D-02 -0.84184003D-03
  0.56418161D-03 -0.34464822D-03  0.13578095D-03  0.13165221D-03 -0.32404437D-03
 -0.30381219D-03 -0.21633238D-03  0.10798684D-03  0.10124453D-03  0.72092135D-04
  0.37370059D-03  0.35036806D-03  0.24948293D-03  0.10150156D-02 -0.28815871D-03
 -0.10607800D-02  0.86808528D-04 -0.27675706D-04 -0.97255779D-04 -0.54280481D-05
 -0.94192709D-06  0.41500007D-06 -0.28857008D-03  0.54600848D-03 -0.25743841D-03
 -0.71015454D-03 -0.74855842D-03  0.19392221D-03 -0.22917398D-03  0.36680620D-03
 -0.13763222D-03 -0.49435647D-03 -0.50537167D-03  0.11593861D-03 -0.35619616D-05
  0.55748685D-05 -0.20129069D-05 -0.86088647D-05 -0.97603400D-05  0.13603838D-05
 -0.14758761D-03  0.81052641D-04  0.17222572D-03  0.55806334D-03 -0.24400080D-03
  0.12390077D-03 -0.11530051D-03  0.84287846D-06 -0.64057793D-03  0.62229293D-03
  0.12186896D-04  0.10744007D-04  0.94137539D-05  0.59980892D-04 -0.13557360D-04
 -0.19478513D-05 -0.96541580D-04 -0.18674661D-04 -0.26293410D-04  0.76887170D-04
 -0.75001754D-01 -0.13980652D+00 -0.23700642D+00 -0.35889757D+00 -0.44880267D+00
 -0.38637729D+00 -0.14853754D+00  0.64363746D-03 -0.97663452D-04 -0.18339467D-03
 -0.31228949D-03 -0.48919963D-03 -0.65558506D-03 -0.70517012D-03 -0.42338322D-03
  0.27843462D-03 -0.82212707D-02  0.33120507D-03  0.13730136D-03  0.37211609D-03
  0.36392141D-03  0.24045826D-03  0.12532393D-03  0.12256407D-03  0.80983263D-04
  0.11158767D-02  0.10913031D-02  0.72107007D-03 -0.91558770D-04 -0.44517852D-04
 -0.33344480D-03  0.36350487D-04 -0.43530527D-04 -0.29603948D-03  0.29033765D-05
 -0.37200992D-05 -0.26711634D-04  0.45084182D-04  0.19312766D-03 -0.23821184D-03
 -0.11457852D-03 -0.36679357D-03 -0.45907056D-04 -0.35060429D-04 -0.70881205D-04
  0.10594163D-03  0.38348146D-04  0.11073417D-03  0.35202163D-04 -0.44055269D-04
 -0.30876568D-04  0.74931837D-04 -0.26489438D-05 -0.76633028D-05  0.27916919D-04
 -0.80023168D-04  0.35408427D-04  0.77934086D-04  0.29219774D-04 -0.21172995D-04
  0.18891203D-03  0.21084973D-03 -0.85052287D-04 -0.42271429D-03  0.32701820D-03
  0.35103507D-04 -0.63848697D-05 -0.47869844D-04 -0.75324762D-05  0.17282030D-04
 -0.24599830D-04 -0.97778046D-04  0.18725794D-05  0.16820936D-03 -0.11255104D-03
  0.51736216D+00  0.96438549D+00  0.16348705D+01  0.24756757D+01  0.30958412D+01
  0.26652309D+01  0.10246121D+01 -0.44398118D-02  0.66306660D-03  0.12451216D-02
  0.21202274D-02  0.33213237D-02  0.44509645D-02  0.47876124D-02  0.28744762D-02
 -0.18903765D-02  0.56556204D-01 -0.18315903D-03 -0.46464083D-03 -0.36281720D-02
 -0.35482730D-02 -0.23444940D-02  0.51839259D-02  0.50697663D-02  0.33498089D-02
  0.32042275D-02  0.31336646D-02  0.20705447D-02  0.76172353D-03 -0.10987632D-02
 -0.70036815D-03  0.33887482D-03 -0.45805955D-03 -0.35658915D-03  0.27260341D-04
 -0.29154019D-04 -0.24813122D-04 -0.29500171D-03  0.71292268D-03 -0.41792096D-03
 -0.23609762D-02 -0.14688343D-02  0.20242204D-02  0.11716688D-03 -0.27459570D-03
  0.15742882D-03  0.94975427D-03  0.60553551D-03 -0.84349609D-03  0.13506779D-04
 -0.26420544D-04  0.12913765D-04  0.14904323D-03  0.10421658D-03 -0.15365400D-03
  0.74858865D-04  0.79418385D-04 -0.33274543D-04 -0.17569171D-03 -0.32198757D-04
  0.25645642D-04 -0.48884885D-04 -0.20605640D-03  0.74177988D-04 -0.15897730D-03
 -0.11198175D-03  0.45583596D-05  0.97963692D-04  0.31010234D-03 -0.58362348D-04
 -0.45581972D-04  0.25842901D-04  0.44687269D-04 -0.24830910D-03  0.56722843D-03
  0.28123040D+00  0.52422565D+00  0.88869135D+00  0.13457406D+01  0.16828534D+01
  0.14487800D+01  0.55696392D+00 -0.24134158D-02  0.35988421D-03  0.67579880D-03
  0.11507688D-02  0.18026725D-02  0.24157933D-02  0.25985114D-02  0.15601428D-02
 -0.10260156D-02  0.30734106D-01  0.21591871D-04 -0.22483955D-03 -0.71101270D-03
 -0.69535490D-03 -0.45945038D-03 -0.32127488D-02 -0.31419981D-02 -0.20760510D-02
  0.18881787D-02  0.18465975D-02  0.12201251D-02  0.14939881D-03  0.63473209D-03
 -0.41021527D-03  0.11783653D-03  0.19129783D-03 -0.22664568D-03  0.11487999D-04
  0.10214762D-04 -0.15260783D-04 -0.55432356D-03  0.73858834D-03 -0.18426478D-03
  0.39194694D-03 -0.37338667D-03 -0.13637314D-02  0.21925122D-03 -0.27239930D-03
  0.53148080D-04 -0.18263416D-03  0.15934869D-03  0.58486937D-03  0.21093110D-04
 -0.57427331D-05 -0.15350377D-04 -0.63221327D-04  0.31778005D-04  0.94774571D-04
 -0.29499907D-04 -0.14110999D-03  0.20559596D-04  0.21237289D-03  0.12480204D-03
 -0.15861029D-04 -0.12387317D-03  0.29852795D-03 -0.45817760D-04  0.77823126D-04
 -0.22009688D-04  0.61599273D-04  0.38669128D-04  0.21725402D-04 -0.14904613D-03
  0.80820700D-04  0.44303661D-04 -0.35751689D-04 -0.19682808D-03 -0.16740285D-03
 -0.25641154D-05 -0.46244877D-05 -0.68188044D-05  0.66502760D-03  0.16492748D-03
 -0.19560069D-04  0.12347047D-04  0.27500929D-05  0.88736682D-06  0.43033406D-03
  0.24216210D-04 -0.14081211D-03  0.62587198D-04 -0.89598449D-06 -0.29629983D-04
  0.11169356D-03 -0.60493919D-04 -0.51199641D-04  0.46216592D-04 -0.57081367D-04
 -0.16946057D-04  0.38753419D-04 -0.71087957D-05 -0.31644623D-04  0.25350766D-05
 -0.36179307D-04  0.23652729D-05
MO    3     MO 0.0        OCC NO =    2.0000000  ORB. ENERGY =  -24.819350
  0.26751228D-03  0.49870371D-03  0.84289712D-03  0.12671505D-02  0.15568408D-02
  0.13150009D-02  0.49596996D-03 -0.24545830D-05 -0.18942594D-03 -0.35466512D-03
 -0.60384771D-03 -0.93406059D-03 -0.12301249D-02 -0.12781786D-02 -0.81222513D-03
  0.54433439D-03 -0.33206238D-03  0.12985633D-03  0.12687052D-03 -0.27661155D-03
 -0.25934091D-03 -0.18466618D-03 -0.64288530D-04 -0.60274583D-04 -0.42919094D-04
 -0.42576708D-03 -0.39918370D-03 -0.28424258D-03  0.87684973D-03  0.20167570D-03
  0.12090337D-02  0.74587459D-04  0.17179851D-04  0.11092950D-03 -0.51949356D-05
 -0.10968032D-05 -0.47058435D-06 -0.38229060D-03 -0.31085331D-03  0.69314391D-03
 -0.17751142D-04  0.75935241D-03  0.21433582D-03 -0.28971255D-03 -0.17516668D-03
  0.46487923D-03 -0.40555275D-04  0.51614318D-03  0.14308466D-03 -0.46936168D-05
 -0.25932616D-05  0.72868784D-05 -0.72185435D-06  0.10196423D-04  0.26900187D-05
 -0.15240723D-03 -0.45732673D-04  0.28053075D-03 -0.14638664D-03 -0.36671764D-04
 -0.27099044D-03  0.60360833D-03  0.17386978D-03 -0.57060180D-03  0.17692224D-03
  0.60604873D-05 -0.21313963D-04  0.15586170D-04 -0.89123556D-04  0.46469545D-04
 -0.16578197D-04  0.70942094D-04  0.17472345D-04 -0.30180313D-04  0.16502496D-04
  0.58857156D+00  0.10971229D+01  0.18598930D+01  0.28164261D+01  0.35219508D+01
  0.30320716D+01  0.11656390D+01 -0.50509046D-02  0.75455727D-03  0.14169249D-02
  0.24127788D-02  0.37796037D-02  0.50651136D-02  0.54482126D-02  0.32710997D-02
 -0.21512128D-02  0.64343956D-01 -0.25413859D-03 -0.53920704D-03 -0.27413704D-02
 -0.26810004D-02 -0.17714503D-02 -0.75126841D-03 -0.73472409D-03 -0.48546327D-03
 -0.75758263D-02 -0.74089926D-02 -0.48954347D-02  0.57546897D-03  0.15843167D-03
  0.16302913D-02  0.25227515D-03  0.69453485D-04  0.74227188D-03  0.22080551D-04
  0.57444205D-05  0.50728449D-04 -0.83983302D-03 -0.11414421D-02  0.19812752D-02
  0.18972107D-03  0.22456317D-02  0.61936113D-03  0.33970782D-03  0.46643521D-03
 -0.80614303D-03 -0.78715766D-04 -0.90797100D-03 -0.25044378D-03  0.55136397D-04
  0.80385441D-04 -0.13552184D-03 -0.14859281D-04 -0.15004774D-03 -0.41246614D-04
  0.68784693D-04 -0.36892906D-05 -0.87442988D-04 -0.31650336D-04  0.65333403D-04
  0.98338616D-04 -0.17470374D-03 -0.54265531D-04  0.16399035D-03 -0.33862006D-04
 -0.11705008D-03 -0.29597153D-04  0.17544004D-03 -0.99404500D-04 -0.36103704D-04
 -0.17266400D-03  0.45055475D-03  0.12489516D-03 -0.35365612D-03  0.10721810D-03
  0.57045349D-01  0.10633500D+00  0.18026397D+00  0.27297278D+00  0.34135342D+00
  0.29387350D+00  0.11297570D+00 -0.48954221D-03  0.71988247D-04  0.13518118D-03
  0.23019023D-03  0.36059164D-03  0.48323521D-03  0.51978463D-03  0.31207801D-03
 -0.20523563D-03  0.62193482D-02  0.20722939D-03  0.93482121D-06 -0.36322342D-03
 -0.35522457D-03 -0.23471189D-03  0.50110088D-03  0.49006572D-03  0.32380714D-03
  0.25378034D-03  0.24819163D-03  0.16399070D-03  0.53827256D-04 -0.61870716D-04
  0.53583390D-05  0.64489232D-04  0.41870020D-04  0.12691086D-03  0.47978906D-05
  0.67213152D-05  0.12407495D-04 -0.89891879D-04  0.46430085D-04  0.43461794D-04
 -0.26607079D-03 -0.65087262D-04  0.28208285D-03  0.17521751D-04 -0.29405947D-04
  0.11884196D-04  0.13233286D-03  0.26343986D-04 -0.83834355D-04 -0.28940010D-04
  0.51091273D-05  0.23830883D-04  0.18890673D-04 -0.37627208D-05  0.64002358D-04
 -0.14298854D-04 -0.74117032D-04  0.12473367D-03  0.30689025D-04 -0.16550210D-03
 -0.19964881D-03  0.12207535D-04  0.38785319D-03 -0.17455221D-03  0.13488567D-03
 -0.39066723D-05  0.20278423D-04 -0.27430603D-04  0.33523631D-04  0.31819895D-04
  0.43596330D-04 -0.21803614D-04 -0.92655164D-04  0.38695479D-04  0.14732650D-04
  0.52042377D-01  0.97009246D-01  0.16445452D+00  0.24903261D+00  0.31141616D+00
  0.26810030D+00  0.10306754D+00 -0.44660854D-03  0.65600679D-04  0.12318646D-03
  0.20976529D-03  0.32859609D-03  0.44035742D-03  0.47366377D-03  0.28438711D-03
 -0.18702493D-03  0.56722921D-02  0.21129518D-03  0.59118247D-05 -0.12435691D-03
 -0.12161834D-03 -0.80358380D-04 -0.53176648D-03 -0.52005601D-03 -0.34362299D-03
  0.24660906D-03  0.24117827D-03  0.15935668D-03  0.22303530D-04  0.64792176D-04
  0.93042515D-05  0.74007713D-04 -0.13726581D-04  0.13137060D-03  0.69016736D-05
 -0.41879665D-05  0.12875927D-04 -0.15664776D-03  0.96967693D-04  0.59680070D-04
  0.77147324D-04  0.48990718D-04 -0.26376746D-03  0.54667326D-04 -0.61104461D-04
  0.64371349D-05 -0.53637747D-04 -0.73313417D-05  0.83779156D-04 -0.17658698D-04
 -0.88000046D-05  0.26458702D-04 -0.35849073D-04  0.22702276D-04 -0.59318103D-04
 -0.66335107D-04  0.77948035D-04  0.14291385D-03  0.35858595D-04  0.73003990D-04
 -0.15489617D-03  0.16314673D-03 -0.30684809D-03 -0.27384539D-03 -0.89893579D-04
  0.14105408D-04 -0.78198238D-05 -0.32525587D-04  0.12249346D-04 -0.43838261D-04
  0.50661415D-04 -0.54565571D-04  0.67297733D-04  0.46915344D-04 -0.13624982D-04
 -0.24545354D-05 -0.44268557D-05 -0.65273961D-05  0.64166116D-03  0.15961343D-03
 -0.18853870D-04  0.12066412D-04  0.23629293D-05 -0.82544434D-06  0.40157875D-03
  0.86617776D-04  0.16026954D-03  0.57589840D-04  0.12556121D-04  0.33788626D-04
  0.10278650D-03 -0.41547970D-04 -0.61238534D-04  0.64333689D-04  0.66194873D-04
  0.12853559D-04  0.32981302D-04 -0.29285302D-04 -0.36960001D-05  0.27807910D-04
  0.38703619D-04  0.96570009D-05
MO    4     MO 0.0        OCC NO =    2.0000000  ORB. ENERGY =  -10.481872
  0.32989532D+00  0.61499988D+00  0.10394581D+01  0.15626461D+01  0.19198913D+01
  0.16216551D+01  0.61162863D+00 -0.30269842D-02 -0.30266118D-02 -0.56667723D-02
 -0.96481648D-02 -0.14924244D-01 -0.19654704D-01 -0.20422497D-01 -0.12977580D-01
  0.86972722D-02  0.33517715D-01 -0.36978829D-02 -0.17129281D-03  0.40410207D-02
  0.37887138D-02  0.26977899D-02  0.83939866D-03  0.78698960D-03  0.56038348D-03
  0.29509553D-05  0.27667082D-05  0.19700611D-05 -0.18521056D-02 -0.39313982D-03
  0.47715675D-05 -0.77087666D-03 -0.15878293D-03 -0.18984495D-05  0.17258828D-04
  0.36156202D-05 -0.74277484D-08  0.37070378D-04 -0.15986995D-04 -0.21083383D-04
  0.27366908D-04 -0.11925713D-05  0.19793838D-05  0.51194699D-03 -0.24115902D-03
 -0.27078797D-03  0.32333667D-03  0.23092203D-05  0.43934207D-05  0.51578674D-04
 -0.24082666D-04 -0.27496007D-04  0.32800673D-04  0.40137311D-07 -0.19664416D-06
 -0.13561946D-02  0.37399355D-03  0.97661943D-03  0.18437404D-02 -0.17974491D-02
 -0.12957999D-03  0.22248435D-02  0.67546843D-03 -0.28002783D-02  0.11601384D-02
  0.36667632D-03 -0.10287818D-03 -0.24275885D-03 -0.49862409D-03  0.48666209D-03
  0.31499282D-04 -0.60140488D-03 -0.17802755D-03  0.69677728D-03 -0.28522568D-03
  0.68551513D-04  0.12778299D-03  0.21662358D-03  0.32803195D-03  0.41020510D-03
  0.35314838D-03  0.13576313D-03 -0.58828387D-06 -0.95818066D-04 -0.17992936D-03
 -0.30638867D-03 -0.47995603D-03 -0.64319755D-03 -0.69184569D-03 -0.41538324D-03
  0.27317350D-03  0.45838916D-03  0.20552321D-02  0.56942328D-03 -0.66431053D-03
 -0.64968119D-03 -0.42927183D-03 -0.17873401D-03 -0.17479796D-03 -0.11549640D-03
 -0.16968997D-02 -0.16595309D-02 -0.10965222D-02 -0.30099312D-04 -0.60759044D-05
  0.53095519D-05  0.18138672D-03  0.40937623D-04  0.20746188D-03 -0.47568017D-04
 -0.10598012D-04 -0.29730580D-04 -0.64791015D-03 -0.13821624D-02  0.20300725D-02
  0.39572760D-03  0.29265129D-02  0.77362584D-03  0.38389564D-03  0.74600640D-03
 -0.11299020D-02 -0.19938228D-03 -0.16054905D-02 -0.42458239D-03  0.93059215D-04
  0.32416570D-03 -0.41722491D-03 -0.11223281D-03 -0.42649618D-03 -0.12373551D-03
  0.61848042D-03 -0.88586448D-04 -0.85823510D-03 -0.64780405D-03  0.71304978D-03
 -0.11241419D-03 -0.12076372D-02 -0.44729043D-03  0.26871195D-02 -0.12426924D-02
 -0.56327406D-03 -0.95563652D-04  0.82531671D-03 -0.22448031D-03 -0.27674154D-03
 -0.36044573D-03  0.19143025D-02  0.56343250D-03 -0.21155044D-02  0.87610001D-03
  0.68698452D-04  0.12805689D-03  0.21708791D-03  0.32873508D-03  0.41108437D-03
  0.35390535D-03  0.13605414D-03 -0.58954484D-06 -0.95924520D-04 -0.18012926D-03
 -0.30672906D-03 -0.48048926D-03 -0.64391214D-03 -0.69261432D-03 -0.41584473D-03
  0.27347699D-03  0.45836867D-03  0.20563589D-02  0.56928404D-03 -0.97723137D-03
 -0.95571094D-03 -0.63147862D-03  0.13187020D-02  0.12896617D-02  0.85213404D-03
  0.81141998D-03  0.79355102D-03  0.52433271D-03 -0.29355300D-04 -0.10756032D-04
 -0.22310281D-05  0.21924623D-03 -0.14054952D-03 -0.96686047D-04 -0.53116998D-04
  0.15548484D-04  0.14202048D-04  0.89122728D-05  0.63184905D-03 -0.64076132D-03
 -0.31703509D-02 -0.20094080D-02  0.25513005D-02  0.23435300D-04 -0.36040516D-03
  0.33696986D-03  0.17577522D-02  0.11028217D-02 -0.14014938D-02 -0.11439066D-04
 -0.15354037D-03  0.16497943D-03  0.48650090D-03  0.33712427D-03 -0.57640499D-03
  0.56013815D-03 -0.20069196D-03 -0.94989128D-03 -0.84191255D-03  0.10375841D-02
  0.31179680D-03 -0.83850190D-03 -0.43550820D-03  0.25378770D-02 -0.13998678D-02
 -0.53856385D-03  0.18939241D-03  0.73008636D-03  0.13540045D-02 -0.73743576D-03
 -0.35145457D-03  0.26168711D-03  0.16925853D-03 -0.18388045D-02  0.26686982D-02
  0.69041924D-04  0.12869714D-03  0.21817329D-03  0.33037866D-03  0.41313967D-03
  0.35567477D-03  0.13673437D-03 -0.59249240D-06 -0.96083727D-04 -0.18042822D-03
 -0.30723815D-03 -0.48128674D-03 -0.64498085D-03 -0.69376386D-03 -0.41653491D-03
  0.27393088D-03  0.45697182D-03  0.20643433D-02  0.56933530D-03 -0.37967207D-03
 -0.37131099D-03 -0.24534087D-03 -0.15541177D-02 -0.15198932D-02 -0.10042577D-02
  0.87879761D-03  0.85944487D-03  0.56787156D-03 -0.32834351D-04 -0.69026646D-05
  0.36413721D-06  0.14588921D-03  0.20367990D-03 -0.10262934D-03 -0.42663300D-04
 -0.34877781D-04  0.15522356D-04 -0.10389649D-02  0.15372108D-02 -0.49824598D-03
  0.17078228D-02 -0.92066528D-03 -0.33253507D-02  0.59749643D-03 -0.85569303D-03
  0.25819660D-03 -0.91730187D-03  0.50404311D-03  0.18230445D-02  0.14119056D-03
 -0.27460811D-03  0.13341755D-03 -0.23166932D-03  0.89681131D-04  0.69965764D-03
  0.64252068D-03 -0.11362344D-03 -0.95296353D-03 -0.10525314D-02  0.66570948D-03
  0.16142429D-03 -0.87503066D-03 -0.32483916D-03  0.26974663D-02 -0.64183121D-03
 -0.45817623D-03  0.25771932D-03  0.72735894D-03  0.10462270D-02 -0.10578881D-02
  0.41583046D-03  0.32830168D-03  0.28473008D-03 -0.25979073D-02 -0.83191112D-03
  0.93854144D-05  0.16926981D-04  0.24958824D-04 -0.44997019D-03 -0.13151949D-02
  0.17392191D-04 -0.18049364D-02 -0.37613260D-03 -0.10356984D-05 -0.27483970D-02
 -0.57361472D-03 -0.12720732D-05 -0.37189092D-03 -0.77624580D-04 -0.26341862D-06
 -0.23852623D-02  0.11124597D-02  0.12728026D-02 -0.15265755D-02 -0.35025947D-05
  0.13155523D-05 -0.38467202D-03  0.17918848D-03  0.20548354D-03 -0.24553746D-03