 Molden2AIM, Version 4.0.0 (06/02/2016)           Time: Fri Jun 29 19:26:45 2018
GAUSSIAN             26 MOL ORBITALS    494 PRIMITIVES        6 NUCLEI
  C    1    (CENTRE  1)  -3.20485079  0.87638695 -0.46551513  CHARGE =  6.0
  F    2    (CENTRE  2)  -0.60303806  0.86851813 -0.72703433  CHARGE =  9.0
  H    3    (CENTRE  3)  -3.86077283 -1.08786620 -0.43477496  CHARGE =  1.0
  H    4    (CENTRE  4)  -4.02278094  1.90195076 -2.07241351  CHARGE =  1.0
  Se   5    (CENTRE  5)  -4.30994939  2.62379213  2.56856677  CHARGE = 34.0
  H    6    (CENTRE  6)  -3.74050121  0.49841527  4.27493655  CHARGE =  1.0
CENTRE ASSIGNMENTS    1  1  1  1  1  1  1  1  1  1  1  1  1  1  1  1  1  1  1  1
CENTRE ASSIGNMENTS    1  1  1  1  1  1  1  1  1  1  1  1  1  1  1  1  1  1  1  1
CENTRE ASSIGNMENTS    1  1  1  1  1  1  1  1  1  1  1  1  1  1  1  1  1  1  1  1
CENTRE ASSIGNMENTS    1  1  1  1  1  1  1  1  1  1  1  1  1  1  1  2  2  2  2  2
CENTRE ASSIGNMENTS    2  2  2  2  2  2  2  2  2  2  2  2  2  2  2  2  2  2  2  2
CENTRE ASSIGNMENTS    2  2  2  2  2  2  2  2  2  2  2  2  2  2  2  2  2  2  2  2
CENTRE ASSIGNMENTS    2  2  2  2  2  2  2  2  2  2  2  2  2  2  2  2  2  2  2  2
CENTRE ASSIGNMENTS    2  2  2  2  2  2  2  2  2  2  3  3  3  3  3  3  3  3  3  3
CENTRE ASSIGNMENTS    3  3  3  3  3  3  3  3  3  3  3  3  3  3  3  3  3  4  4  4
CENTRE ASSIGNMENTS    4  4  4  4  4  4  4  4  4  4  4  4  4  4  4  4  4  4  4  4
CENTRE ASSIGNMENTS    4  4  4  4  5  5  5  5  5  5  5  5  5  5  5  5  5  5  5  5
CENTRE ASSIGNMENTS    5  5  5  5  5  5  5  5  5  5  5  5  5  5  5  5  5  5  5  5
CENTRE ASSIGNMENTS    5  5  5  5  5  5  5  5  5  5  5  5  5  5  5  5  5  5  5  5
CENTRE ASSIGNMENTS    5  5  5  5  5  5  5  5  5  5  5  5  5  5  5  5  5  5  5  5
CENTRE ASSIGNMENTS    5  5  5  5  5  5  5  5  5  5  5  5  5  5  5  5  5  5  5  5
CENTRE ASSIGNMENTS    5  5  5  5  5  5  5  5  5  5  5  5  5  5  5  5  5  5  5  5
CENTRE ASSIGNMENTS    5  5  5  5  5  5  5  5  5  5  5  5  5  5  5  5  5  5  5  5
CENTRE ASSIGNMENTS    5  5  5  5  5  5  5  5  5  5  5  5  5  5  5  5  5  5  5  5
CENTRE ASSIGNMENTS    5  5  5  5  5  5  5  5  5  5  5  5  5  5  5  5  5  5  5  5
CENTRE ASSIGNMENTS    5  5  5  5  5  5  5  5  5  5  5  5  5  5  5  5  5  5  5  5
CENTRE ASSIGNMENTS    5  5  5  5  5  5  5  5  5  5  5  5  5  5  5  5  5  5  5  5
CENTRE ASSIGNMENTS    5  5  5  5  5  5  5  5  5  5  5  5  5  5  5  5  5  5  5  5
CENTRE ASSIGNMENTS    5  5  5  5  5  5  5  5  5  5  5  5  5  5  5  5  5  5  5  5
CENTRE ASSIGNMENTS    5  5  5  5  5  5  5  6  6  6  6  6  6  6  6  6  6  6  6  6
CENTRE ASSIGNMENTS    6  6  6  6  6  6  6  6  6  6  6  6  6  6
TYPE ASSIGNMENTS      1  1  1  1  1  1  1  1  1  1  1  1  1  1  1  1  1  1  1  2
TYPE ASSIGNMENTS      2  2  3  3  3  4  4  4  2  3  4  2  3  4  2  3  4  5  6  7
TYPE ASSIGNMENTS      8  9 10  5  6  7  8  9 10  5  6  7  8  9 10 11 12 13 17 14
TYPE ASSIGNMENTS     15 18 19 16 20 11 12 13 17 14 15 18 19 16 20  1  1  1  1  1
TYPE ASSIGNMENTS      1  1  1  1  1  1  1  1  1  1  1  1  1  1  2  2  2  3  3  3
TYPE ASSIGNMENTS      4  4  4  2  3  4  2  3  4  2  3  4  5  6  7  8  9 10  5  6
TYPE ASSIGNMENTS      7  8  9 10  5  6  7  8  9 10 11 12 13 17 14 15 18 19 16 20
TYPE ASSIGNMENTS     11 12 13 17 14 15 18 19 16 20  1  1  1  1  1  1  2  3  4  2
TYPE ASSIGNMENTS      3  4  2  3  4  5  6  7  8  9 10  5  6  7  8  9 10  1  1  1
TYPE ASSIGNMENTS      1  1  1  2  3  4  2  3  4  2  3  4  5  6  7  8  9 10  5  6
TYPE ASSIGNMENTS      7  8  9 10  1  1  1  1  1  1  1  1  1  1  1  1  1  1  1  1
TYPE ASSIGNMENTS      1  1  1  1  1  1  1  1  1  1  1  1  1  1  1  1  1  1  1  1
TYPE ASSIGNMENTS      1  1  1  1  1  1  1  1  1  1  1  1  1  1  1  1  1  1  1  1
TYPE ASSIGNMENTS      1  1  1  1  1  1  1  1  1  1  1  1  1  1  1  1  1  1  1  2
TYPE ASSIGNMENTS      2  2  2  2  2  2  2  2  2  2  3  3  3  3  3  3  3  3  3  3
TYPE ASSIGNMENTS      3  4  4  4  4  4  4  4  4  4  4  4  2  2  2  2  2  2  2  2
TYPE ASSIGNMENTS      2  2  2  3  3  3  3  3  3  3  3  3  3  3  4  4  4  4  4  4
TYPE ASSIGNMENTS      4  4  4  4  4  2  2  2  2  2  2  2  2  2  2  2  3  3  3  3
TYPE ASSIGNMENTS      3  3  3  3  3  3  3  4  4  4  4  4  4  4  4  4  4  4  2  3
TYPE ASSIGNMENTS      4  2  3  4  2  3  4  5  5  5  5  5  5  5  6  6  6  6  6  6
TYPE ASSIGNMENTS      6  7  7  7  7  7  7  7  8  8  8  8  8  8  8  9  9  9  9  9
TYPE ASSIGNMENTS      9  9 10 10 10 10 10 10 10  5  6  7  8  9 10  5  6  7  8  9
TYPE ASSIGNMENTS     10  5  6  7  8  9 10 11 12 13 17 14 15 18 19 16 20 11 12 13
TYPE ASSIGNMENTS     17 14 15 18 19 16 20  1  1  1  1  1  1  2  3  4  2  3  4  2
TYPE ASSIGNMENTS      3  4  5  6  7  8  9 10  5  6  7  8  9 10
EXPONENTS  0.8236000D+04 0.1235000D+04 0.2808000D+03 0.7927000D+02 0.2559000D+02
EXPONENTS  0.8997000D+01 0.3319000D+01 0.3643000D+00 0.8236000D+04 0.1235000D+04
EXPONENTS  0.2808000D+03 0.7927000D+02 0.2559000D+02 0.8997000D+01 0.3319000D+01
EXPONENTS  0.3643000D+00 0.9059000D+00 0.1285000D+00 0.4402000D-01 0.1871000D+02
EXPONENTS  0.4133000D+01 0.1200000D+01 0.1871000D+02 0.4133000D+01 0.1200000D+01
EXPONENTS  0.1871000D+02 0.4133000D+01 0.1200000D+01 0.3827000D+00 0.3827000D+00
EXPONENTS  0.3827000D+00 0.1209000D+00 0.1209000D+00 0.1209000D+00 0.3569000D-01
EXPONENTS  0.3569000D-01 0.3569000D-01 0.1097000D+01 0.1097000D+01 0.1097000D+01
EXPONENTS  0.1097000D+01 0.1097000D+01 0.1097000D+01 0.3180000D+00 0.3180000D+00
EXPONENTS  0.3180000D+00 0.3180000D+00 0.3180000D+00 0.3180000D+00 0.1000000D+00
EXPONENTS  0.1000000D+00 0.1000000D+00 0.1000000D+00 0.1000000D+00 0.1000000D+00
EXPONENTS  0.7610000D+00 0.7610000D+00 0.7610000D+00 0.7610000D+00 0.7610000D+00
EXPONENTS  0.7610000D+00 0.7610000D+00 0.7610000D+00 0.7610000D+00 0.7610000D+00
EXPONENTS  0.2680000D+00 0.2680000D+00 0.2680000D+00 0.2680000D+00 0.2680000D+00
EXPONENTS  0.2680000D+00 0.2680000D+00 0.2680000D+00 0.2680000D+00 0.2680000D+00
EXPONENTS  0.1950000D+05 0.2923000D+04 0.6645000D+03 0.1875000D+03 0.6062000D+02
EXPONENTS  0.2142000D+02 0.7950000D+01 0.8815000D+00 0.1950000D+05 0.2923000D+04
EXPONENTS  0.6645000D+03 0.1875000D+03 0.6062000D+02 0.2142000D+02 0.7950000D+01
EXPONENTS  0.8815000D+00 0.2257000D+01 0.3041000D+00 0.9158000D-01 0.4388000D+02
EXPONENTS  0.9926000D+01 0.2930000D+01 0.4388000D+02 0.9926000D+01 0.2930000D+01
EXPONENTS  0.4388000D+02 0.9926000D+01 0.2930000D+01 0.9132000D+00 0.9132000D+00
EXPONENTS  0.9132000D+00 0.2672000D+00 0.2672000D+00 0.2672000D+00 0.7361000D-01
EXPONENTS  0.7361000D-01 0.7361000D-01 0.3107000D+01 0.3107000D+01 0.3107000D+01
EXPONENTS  0.3107000D+01 0.3107000D+01 0.3107000D+01 0.8550000D+00 0.8550000D+00
EXPONENTS  0.8550000D+00 0.8550000D+00 0.8550000D+00 0.8550000D+00 0.2920000D+00
EXPONENTS  0.2920000D+00 0.2920000D+00 0.2920000D+00 0.2920000D+00 0.2920000D+00
EXPONENTS  0.1917000D+01 0.1917000D+01 0.1917000D+01 0.1917000D+01 0.1917000D+01
EXPONENTS  0.1917000D+01 0.1917000D+01 0.1917000D+01 0.1917000D+01 0.1917000D+01
EXPONENTS  0.7240000D+00 0.7240000D+00 0.7240000D+00 0.7240000D+00 0.7240000D+00
EXPONENTS  0.7240000D+00 0.7240000D+00 0.7240000D+00 0.7240000D+00 0.7240000D+00
EXPONENTS  0.3387000D+02 0.5095000D+01 0.1159000D+01 0.3258000D+00 0.1027000D+00
EXPONENTS  0.2526000D-01 0.1407000D+01 0.1407000D+01 0.1407000D+01 0.3880000D+00
EXPONENTS  0.3880000D+00 0.3880000D+00 0.1020000D+00 0.1020000D+00 0.1020000D+00
EXPONENTS  0.1057000D+01 0.1057000D+01 0.1057000D+01 0.1057000D+01 0.1057000D+01
EXPONENTS  0.1057000D+01 0.2470000D+00 0.2470000D+00 0.2470000D+00 0.2470000D+00
EXPONENTS  0.2470000D+00 0.2470000D+00 0.3387000D+02 0.5095000D+01 0.1159000D+01
EXPONENTS  0.3258000D+00 0.1027000D+00 0.2526000D-01 0.1407000D+01 0.1407000D+01
EXPONENTS  0.1407000D+01 0.3880000D+00 0.3880000D+00 0.3880000D+00 0.1020000D+00
EXPONENTS  0.1020000D+00 0.1020000D+00 0.1057000D+01 0.1057000D+01 0.1057000D+01
EXPONENTS  0.1057000D+01 0.1057000D+01 0.1057000D+01 0.2470000D+00 0.2470000D+00
EXPONENTS  0.2470000D+00 0.2470000D+00 0.2470000D+00 0.2470000D+00 0.9563600D+07
EXPONENTS  0.1432100D+07 0.3259100D+06 0.9231200D+05 0.3011600D+05 0.1087200D+05
EXPONENTS  0.4240100D+04 0.1758400D+04 0.7665900D+03 0.3484300D+03 0.1640300D+03
EXPONENTS  0.7914200D+02 0.3552400D+02 0.1730500D+02 0.8378400D+01 0.3740500D+01
EXPONENTS  0.1689000D+01 0.2552000D+00 0.9563600D+07 0.1432100D+07 0.3259100D+06
EXPONENTS  0.9231200D+05 0.3011600D+05 0.1087200D+05 0.4240100D+04 0.1758400D+04
EXPONENTS  0.7665900D+03 0.3484300D+03 0.1640300D+03 0.7914200D+02 0.3552400D+02
EXPONENTS  0.1730500D+02 0.8378400D+01 0.3740500D+01 0.1689000D+01 0.2552000D+00
EXPONENTS  0.9563600D+07 0.1432100D+07 0.3259100D+06 0.9231200D+05 0.3011600D+05
EXPONENTS  0.1087200D+05 0.4240100D+04 0.1758400D+04 0.7665900D+03 0.3484300D+03
EXPONENTS  0.1640300D+03 0.7914200D+02 0.3552400D+02 0.1730500D+02 0.8378400D+01
EXPONENTS  0.3740500D+01 0.1689000D+01 0.2552000D+00 0.9563600D+07 0.1432100D+07
EXPONENTS  0.3259100D+06 0.9231200D+05 0.3011600D+05 0.1087200D+05 0.4240100D+04
EXPONENTS  0.1758400D+04 0.7665900D+03 0.3484300D+03 0.1640300D+03 0.7914200D+02
EXPONENTS  0.3552400D+02 0.1730500D+02 0.8378400D+01 0.3740500D+01 0.1689000D+01
EXPONENTS  0.2552000D+00 0.5092700D+00 0.1065100D+00 0.3920100D-01 0.8004300D+04
EXPONENTS  0.1896900D+04 0.6147100D+03 0.2335000D+03 0.9785600D+02 0.4351400D+02
EXPONENTS  0.2006300D+02 0.9112700D+01 0.4106300D+01 0.1794900D+01 0.2461500D+00
EXPONENTS  0.8004300D+04 0.1896900D+04 0.6147100D+03 0.2335000D+03 0.9785600D+02
EXPONENTS  0.4351400D+02 0.2006300D+02 0.9112700D+01 0.4106300D+01 0.1794900D+01
EXPONENTS  0.2461500D+00 0.8004300D+04 0.1896900D+04 0.6147100D+03 0.2335000D+03
EXPONENTS  0.9785600D+02 0.4351400D+02 0.2006300D+02 0.9112700D+01 0.4106300D+01
EXPONENTS  0.1794900D+01 0.2461500D+00 0.8004300D+04 0.1896900D+04 0.6147100D+03
EXPONENTS  0.2335000D+03 0.9785600D+02 0.4351400D+02 0.2006300D+02 0.9112700D+01
EXPONENTS  0.4106300D+01 0.1794900D+01 0.2461500D+00 0.8004300D+04 0.1896900D+04
EXPONENTS  0.6147100D+03 0.2335000D+03 0.9785600D+02 0.4351400D+02 0.2006300D+02
EXPONENTS  0.9112700D+01 0.4106300D+01 0.1794900D+01 0.2461500D+00 0.8004300D+04
EXPONENTS  0.1896900D+04 0.6147100D+03 0.2335000D+03 0.9785600D+02 0.4351400D+02
EXPONENTS  0.2006300D+02 0.9112700D+01 0.4106300D+01 0.1794900D+01 0.2461500D+00
EXPONENTS  0.8004300D+04 0.1896900D+04 0.6147100D+03 0.2335000D+03 0.9785600D+02
EXPONENTS  0.4351400D+02 0.2006300D+02 0.9112700D+01 0.4106300D+01 0.1794900D+01
EXPONENTS  0.2461500D+00 0.8004300D+04 0.1896900D+04 0.6147100D+03 0.2335000D+03
EXPONENTS  0.9785600D+02 0.4351400D+02 0.2006300D+02 0.9112700D+01 0.4106300D+01
EXPONENTS  0.1794900D+01 0.2461500D+00 0.8004300D+04 0.1896900D+04 0.6147100D+03
EXPONENTS  0.2335000D+03 0.9785600D+02 0.4351400D+02 0.2006300D+02 0.9112700D+01
EXPONENTS  0.4106300D+01 0.1794900D+01 0.2461500D+00 0.6243200D+00 0.6243200D+00
EXPONENTS  0.6243200D+00 0.8891700D-01 0.8891700D-01 0.8891700D-01 0.3025100D-01
EXPONENTS  0.3025100D-01 0.3025100D-01 0.3618500D+03 0.1085500D+03 0.4143300D+02
EXPONENTS  0.1757900D+02 0.7862700D+01 0.3518000D+01 0.1534800D+01 0.3618500D+03
EXPONENTS  0.1085500D+03 0.4143300D+02 0.1757900D+02 0.7862700D+01 0.3518000D+01
EXPONENTS  0.1534800D+01 0.3618500D+03 0.1085500D+03 0.4143300D+02 0.1757900D+02
EXPONENTS  0.7862700D+01 0.3518000D+01 0.1534800D+01 0.3618500D+03 0.1085500D+03
EXPONENTS  0.4143300D+02 0.1757900D+02 0.7862700D+01 0.3518000D+01 0.1534800D+01
EXPONENTS  0.3618500D+03 0.1085500D+03 0.4143300D+02 0.1757900D+02 0.7862700D+01
EXPONENTS  0.3518000D+01 0.1534800D+01 0.3618500D+03 0.1085500D+03 0.4143300D+02
EXPONENTS  0.1757900D+02 0.7862700D+01 0.3518000D+01 0.1534800D+01 0.6081300D+00
EXPONENTS  0.6081300D+00 0.6081300D+00 0.6081300D+00 0.6081300D+00 0.6081300D+00
EXPONENTS  0.2220000D+00 0.2220000D+00 0.2220000D+00 0.2220000D+00 0.2220000D+00
EXPONENTS  0.2220000D+00 0.8370000D-01 0.8370000D-01 0.8370000D-01 0.8370000D-01
EXPONENTS  0.8370000D-01 0.8370000D-01 0.4620000D+00 0.4620000D+00 0.4620000D+00
EXPONENTS  0.4620000D+00 0.4620000D+00 0.4620000D+00 0.4620000D+00 0.4620000D+00
EXPONENTS  0.4620000D+00 0.4620000D+00 0.1880000D+00 0.1880000D+00 0.1880000D+00
EXPONENTS  0.1880000D+00 0.1880000D+00 0.1880000D+00 0.1880000D+00 0.1880000D+00
EXPONENTS  0.1880000D+00 0.1880000D+00 0.3387000D+02 0.5095000D+01 0.1159000D+01
EXPONENTS  0.3258000D+00 0.1027000D+00 0.2526000D-01 0.1407000D+01 0.1407000D+01
EXPONENTS  0.1407000D+01 0.3880000D+00 0.3880000D+00 0.3880000D+00 0.1020000D+00
EXPONENTS  0.1020000D+00 0.1020000D+00 0.1057000D+01 0.1057000D+01 0.1057000D+01
EXPONENTS  0.1057000D+01 0.1057000D+01 0.1057000D+01 0.2470000D+00 0.2470000D+00
EXPONENTS  0.2470000D+00 0.2470000D+00 0.2470000D+00 0.2470000D+00
MO    1     MO 0.0        OCC NO =    2.0000000  ORB. ENERGY = -454.298805
 -0.50387479D-05 -0.93933718D-05 -0.15876453D-04 -0.23867509D-04 -0.29323993D-04
 -0.24768800D-04 -0.93418800D-05  0.46233485D-07  0.36958832D-05  0.69198594D-05
  0.11781653D-04  0.18224425D-04  0.24000927D-04  0.24938501D-04  0.15847298D-04
 -0.10620490D-04 -0.10775491D-04  0.57598210D-04 -0.10379985D-07  0.20398153D-05
  0.19124565D-05  0.13617830D-05 -0.37948994D-05 -0.35579594D-05 -0.25334790D-05
 -0.51458028D-05 -0.48245173D-05 -0.34353437D-05 -0.18289015D-05 -0.18681539D-05
 -0.83375463D-05 -0.65253982D-05 -0.78854265D-05 -0.11126774D-04 -0.16412929D-06
  0.30002207D-08 -0.21887029D-06  0.35520908D-05  0.22929054D-05 -0.58449962D-05
  0.39551252D-05  0.82994438D-05 -0.10599116D-04 -0.57570154D-05  0.15238130D-05
  0.42332024D-05 -0.31173664D-05 -0.30944116D-05  0.29536754D-05 -0.15039432D-05
  0.17070874D-05 -0.20314427D-06 -0.93479410D-06 -0.11281807D-05 -0.27284932D-05
  0.18464259D-06 -0.19215721D-05 -0.41161479D-06  0.11158103D-05 -0.61297383D-06
 -0.17941058D-06 -0.16697381D-05  0.63776900D-05  0.14142550D-05 -0.56253106D-05
  0.20571050D-05 -0.15257902D-05  0.91982920D-06 -0.28932732D-05 -0.13873410D-05
 -0.99446583D-06 -0.32780417D-05  0.59647116D-05 -0.17650218D-05 -0.31893851D-06
  0.21550305D-05  0.40170701D-05  0.68099214D-05  0.10312228D-04  0.12895477D-04
  0.11101805D-04  0.42679391D-05 -0.18493679D-07 -0.13976655D-05 -0.26245683D-05
 -0.44691872D-05 -0.70009554D-05 -0.93821038D-05 -0.10091718D-04 -0.60590540D-05
  0.39846888D-05 -0.15947957D-05 -0.88631518D-05 -0.42476076D-06  0.40471272D-05
  0.39580020D-05  0.26152193D-05  0.18209635D-06  0.17808625D-06  0.11766912D-06
 -0.38925991D-05 -0.38068769D-05 -0.25153645D-05 -0.39438691D-05 -0.30497064D-06
  0.28505378D-05  0.84213521D-05  0.36428398D-05  0.29781103D-07  0.29034659D-06
 -0.28609061D-07 -0.64426410D-06  0.55852663D-05  0.65162676D-06 -0.62368931D-05
  0.64570412D-05  0.11213800D-04 -0.36166688D-06 -0.19890160D-05 -0.54906380D-06
  0.25380798D-05 -0.29561564D-05 -0.55861487D-05  0.57148047D-06 -0.35936034D-06
  0.87987930D-06 -0.52051896D-06 -0.12198750D-05  0.13775248D-05 -0.32485320D-08
  0.33392213D-05 -0.55682434D-05  0.23762721D-05 -0.66912624D-06 -0.30979578D-05
 -0.17631651D-05 -0.93485377D-05  0.19802688D-04 -0.53656513D-05 -0.54675822D-05
 -0.58955955D-06  0.14096792D-05 -0.82774740D-06 -0.25278092D-06  0.15274811D-05
  0.10810048D-05  0.20214596D-05 -0.57565188D-05  0.14022374D-05  0.80768402D-06
  0.10176651D-05  0.18354009D-05  0.27062976D-05 -0.28580361D-04 -0.39341449D-04
 -0.27200928D-06 -0.26789533D-05 -0.11661700D-05  0.89003618D-06 -0.23673907D-05
 -0.79450093D-05  0.29672652D-05 -0.24356516D-05 -0.47055554D-05 -0.39883469D-05
  0.33182765D-06 -0.19247378D-05  0.15929102D-05 -0.52477031D-05  0.31942897D-06
  0.21259440D-05  0.45481748D-07  0.10299074D-05 -0.10753891D-05  0.15905173D-05
  0.18739746D-05 -0.37627084D-06  0.10247580D-05  0.18481933D-05  0.27251600D-05
 -0.31484914D-04 -0.27499478D-04 -0.10430419D-05 -0.13462298D-05  0.33326152D-05
  0.86746208D-07 -0.71096462D-05  0.26084659D-05 -0.73458503D-05 -0.36308416D-05
 -0.25274241D-05 -0.38635232D-05  0.69216376D-07 -0.82762796D-07  0.13546420D-07
  0.41665298D-05 -0.47833494D-05  0.35059574D-05 -0.18552048D-06  0.15422048D-06
  0.31300002D-07  0.63063471D-07  0.73087820D-07 -0.23276130D-05  0.77215536D+00
  0.14427363D+01  0.25022454D+01  0.40993172D+01  0.64192051D+01  0.96399343D+01
  0.13749306D+02  0.18165619D+02  0.20949424D+02  0.18855154D+02  0.10578210D+02
  0.25573389D+01  0.12140977D+00 -0.20776862D-02  0.58436358D-03 -0.22772556D-03
  0.21540238D-04  0.21239128D-05  0.83402529D-04  0.15358706D-03  0.26658854D-03
  0.43662210D-03  0.68722309D-03  0.10372723D-02  0.15120408D-02  0.20763497D-02
  0.26369376D-02  0.28398146D-02  0.22655507D-02  0.50746528D-03 -0.13569508D-02
 -0.12067016D-02 -0.23567372D-03 -0.65286468D-05 -0.47278240D-06 -0.96555101D-08
 -0.67321162D-04 -0.12154213D-03 -0.21158170D-03 -0.34647396D-03 -0.54623592D-03
 -0.82425498D-03 -0.12063585D-02 -0.16622035D-02 -0.21413635D-02 -0.23569678D-02
 -0.19841847D-02 -0.47250538D-03  0.15915798D-02  0.21266842D-02  0.26126751D-03
 -0.91290416D-03 -0.40298780D-03  0.19999560D-05  0.24174414D-04  0.52373598D-04
  0.89159190D-04  0.14553930D-03  0.22944895D-03  0.34625135D-03  0.50676824D-03
  0.69905502D-03  0.90170790D-03  0.99685252D-03  0.84426017D-03  0.20507640D-03
 -0.71149430D-03 -0.10041926D-02 -0.11981401D-03  0.56309828D-03  0.45011561D-03
 -0.17052508D-03  0.13488839D-03  0.66863878D-04  0.10454363D-04 -0.38615646D-04
 -0.55345176D-04 -0.73085428D-04 -0.84008015D-04 -0.77282123D-04 -0.49439491D-04
 -0.17112925D-04 -0.19239020D-05 -0.24476723D-07 -0.42413932D-08 -0.43342422D-10
  0.11385845D-03  0.16318556D-03  0.21549279D-03  0.24769810D-03  0.22786677D-03
  0.14577261D-03  0.50457556D-04  0.56726358D-05  0.72169754D-07  0.12505771D-07
  0.12779537D-09 -0.99471237D-05 -0.14256535D-04 -0.18826302D-04 -0.21639885D-04
 -0.19907341D-04 -0.12735272D-04 -0.44081714D-05 -0.49558388D-06 -0.63050349D-08
 -0.10925536D-08 -0.11164709D-10  0.58898236D-03  0.84956065D-03  0.11315049D-02
  0.13390944D-02  0.12868194D-02  0.88450038D-03  0.27848031D-03 -0.13458702D-03
 -0.13811886D-03 -0.34783454D-04  0.37923776D-07 -0.16148244D-02 -0.23292569D-02
 -0.31022688D-02 -0.36714211D-02 -0.35280978D-02 -0.24250519D-02 -0.76351486D-03
  0.36899984D-03  0.37868316D-03  0.95366472D-04 -0.10397635D-06 -0.97358495D-04
 -0.14043196D-03 -0.18703720D-03 -0.22135164D-03 -0.21271062D-03 -0.14620748D-03
 -0.46032658D-04  0.22247168D-04  0.22830980D-04  0.57496879D-05 -0.62687817D-08
 -0.44060884D-03 -0.63874491D-03 -0.84777412D-03 -0.10117373D-02 -0.97203937D-03
 -0.68037574D-03 -0.20543341D-03  0.12575589D-03  0.13524822D-03  0.36372670D-04
 -0.13558545D-04  0.11991439D-02  0.17383833D-02  0.23072691D-02  0.27535050D-02
  0.26454646D-02  0.18516842D-02  0.55909959D-03 -0.34225236D-03 -0.36808630D-03
 -0.98990445D-04  0.36900409D-04  0.60361241D-04  0.87504906D-04  0.11614088D-03
  0.13860303D-03  0.13316460D-03  0.93208125D-04  0.28143365D-04 -0.17227938D-04
 -0.18528340D-04 -0.49828766D-05  0.18574539D-05  0.35005637D-05 -0.11803580D-04
 -0.23655950D-05  0.91171129D-05 -0.17821176D-04 -0.63089991D-05  0.17837463D-06
 -0.28261844D-06 -0.38152890D-06 -0.20119315D-03 -0.20825414D-03 -0.17423942D-03
 -0.11243390D-03 -0.50506845D-04 -0.14747181D-04 -0.24879399D-05  0.43804694D-04
  0.45342044D-04  0.37936203D-04  0.24479623D-04  0.10996582D-04  0.32108238D-05
  0.54168566D-06  0.15738846D-03  0.16291209D-03  0.13630321D-03  0.87954277D-04
  0.39510264D-04  0.11536358D-04  0.19462542D-05 -0.24856446D-03 -0.25728797D-03
 -0.21526442D-03 -0.13890668D-03 -0.62398778D-04 -0.18219433D-04 -0.30737301D-05
 -0.12328317D-03 -0.12760986D-03 -0.10676699D-03 -0.68895029D-04 -0.30948589D-04
 -0.90364870D-05 -0.15245107D-05 -0.10632199D-03 -0.11005342D-03 -0.92078092D-04
 -0.59416516D-04 -0.26690711D-04 -0.77932557D-05 -0.13147700D-05  0.10238348D-04
 -0.20702718D-05 -0.81680765D-05  0.12547975D-04  0.62987834D-05  0.62398091D-05
  0.19219564D-05 -0.32462457D-05  0.13242893D-05  0.25534486D-05 -0.29211194D-05
  0.46275898D-05 -0.10016043D-05  0.58801147D-06  0.41359280D-06 -0.20730387D-05
 -0.99693723D-06  0.97319542D-06  0.32994702D-05 -0.14761367D-05  0.19775595D-05
 -0.50674634D-05 -0.67639199D-05  0.24339252D-05 -0.48309470D-05  0.11192330D-04
 -0.83666036D-05  0.73545048D-07 -0.42915322D-06  0.50491438D-06 -0.19323789D-07
  0.30286158D-06  0.58603707D-06 -0.16765644D-06  0.98459807D-06 -0.21007802D-05
  0.22562781D-06  0.15712729D-05 -0.29367542D-05 -0.52965572D-05 -0.78097705D-05
  0.29846473D-04 -0.28114052D-04 -0.45982007D-06  0.46191549D-06 -0.44688639D-05
  0.43782317D-05 -0.57371218D-05  0.25181718D-04 -0.23617465D-04 -0.76547646D-06
 -0.42951644D-06  0.25810317D-05 -0.53351102D-05  0.45880858D-05  0.74702445D-06
 -0.63007134D-05  0.48109239D-05 -0.19443945D-04 -0.21881099D-05  0.13312599D-05
  0.85684992D-06 -0.13840185D-05  0.24561557D-05 -0.77305575D-05
MO    2     MO 0.0        OCC NO =    2.0000000  ORB. ENERGY =  -58.242990
  0.13664210D-03  0.25473194D-03  0.43054185D-03  0.64724542D-03  0.79521579D-03
  0.67168686D-03  0.25333557D-03 -0.12537719D-05 -0.10045170D-03 -0.18807728D-03
 -0.32021766D-03 -0.49532803D-03 -0.65232959D-03 -0.67781222D-03 -0.43071924D-03
  0.28865802D-03  0.30113300D-03 -0.15610943D-02  0.42762112D-04 -0.48413034D-04
 -0.45390296D-04 -0.32320595D-04  0.92639528D-04  0.86855446D-04  0.61846251D-04
  0.12028064D-03  0.11277074D-03  0.80299488D-04  0.27907547D-04  0.77759674D-04
  0.28855111D-03  0.18996870D-03  0.28216457D-03  0.40587914D-03  0.47012848D-05
  0.19739662D-05  0.97993348D-05 -0.11750598D-03 -0.68566811D-04  0.18607279D-03
 -0.12699194D-03 -0.26239079D-03  0.33014373D-03  0.17467304D-03 -0.44442489D-04
 -0.13023055D-03  0.96504057D-04  0.98861735D-04 -0.83772378D-04  0.45761331D-04
 -0.54843876D-04  0.90825446D-05  0.28714981D-04  0.34383283D-04  0.92815699D-04
 -0.87954174D-06  0.50727166D-04  0.14437837D-04 -0.34392278D-04  0.12608368D-04
 -0.46633633D-05  0.37030904D-04 -0.16478987D-03 -0.38650148D-04  0.15073873D-03
 -0.57314739D-04  0.45214644D-04 -0.28726853D-04  0.74195060D-04  0.50359389D-04
  0.32718235D-04  0.97749156D-04 -0.18600332D-03  0.53462323D-04  0.27765309D-04
 -0.55293148D-04 -0.10306882D-03 -0.17472699D-03 -0.26458816D-03 -0.33086843D-03
 -0.28484690D-03 -0.10950555D-03  0.47450546D-06  0.36347079D-04  0.68253377D-04
  0.11622373D-03  0.18206378D-03  0.24398689D-03  0.26244080D-03  0.15756911D-03
 -0.10362408D-03  0.36571843D-04  0.21779191D-03  0.64622954D-05 -0.12842775D-03
 -0.12559953D-03 -0.82988920D-04 -0.13498641D-04 -0.13201376D-04 -0.87227073D-05
  0.10409239D-03  0.10180009D-03  0.67263623D-04  0.13114441D-03  0.17819865D-04
 -0.75294343D-04 -0.24694739D-03 -0.13096970D-03 -0.25967775D-04 -0.93186291D-05
  0.64484419D-06  0.20814081D-04 -0.16856573D-03 -0.20623691D-04  0.18918942D-03
 -0.20114275D-03 -0.35186630D-03  0.14672051D-04  0.59640703D-04  0.18502263D-04
 -0.78142966D-04  0.93458734D-04  0.17797575D-03 -0.16243987D-04  0.14652217D-04
 -0.26240493D-04  0.11588277D-04  0.47021126D-04 -0.31738095D-04 -0.10446847D-04
 -0.71561465D-04  0.15794492D-03 -0.72095438D-04  0.13102803D-04  0.10998529D-03
  0.74550276D-04  0.20158159D-03 -0.58382003D-03  0.14173604D-03  0.43611599D-04
  0.94101485D-05 -0.40450936D-04  0.26622253D-04  0.95552276D-05 -0.54284252D-04
 -0.42637033D-04 -0.37785673D-04  0.17563706D-03 -0.37229725D-04  0.12906683D-04
 -0.30308132D-04 -0.54661964D-04 -0.80599033D-04  0.82229323D-03  0.12393611D-02
  0.10708638D-04  0.75397686D-04  0.31117164D-04 -0.17674745D-04  0.80583241D-04
  0.22915651D-03 -0.11121008D-03  0.75742903D-04  0.14913968D-03  0.13010429D-03
  0.97829534D-06  0.54778088D-04 -0.55756384D-04  0.16887297D-03 -0.43432186D-05
 -0.91519381D-04 -0.61504655D-06 -0.29284464D-04  0.29899511D-04 -0.50053697D-04
 -0.54459996D-04  0.11022577D-04 -0.30243625D-04 -0.54545623D-04 -0.80427490D-04
  0.91303697D-03  0.86389874D-03  0.34030537D-04  0.32606587D-04 -0.88574439D-04
 -0.11557287D-05  0.23262994D-03 -0.91818798D-04  0.19705594D-03  0.11419727D-03
  0.82280709D-04  0.12437370D-03  0.10011212D-04  0.10292660D-04 -0.20303871D-04
 -0.12768712D-03  0.15590691D-03 -0.11919939D-03  0.63671481D-05 -0.62227777D-05
 -0.14437033D-06  0.67996053D-07  0.49445096D-06  0.67425895D-04  0.76365035D-03
  0.14268451D-02  0.24746840D-02  0.40541647D-02  0.63484999D-02  0.95337539D-02
  0.13597863D-01  0.17965532D-01  0.20718674D-01  0.18647471D-01  0.10461695D-01
  0.25291707D-02  0.12007249D-03 -0.20548012D-05  0.57792703D-06 -0.22521724D-06
  0.21302980D-07  0.21005187D-08 -0.24648656D+00 -0.45390884D+00 -0.78787171D+00
 -0.12903863D+01 -0.20310086D+01 -0.30655386D+01 -0.44686623D+01 -0.61364122D+01
 -0.77931653D+01 -0.83927447D+01 -0.66955740D+01 -0.14997552D+01  0.40103116D+01
  0.35662675D+01  0.69650650D+00  0.19294663D-01  0.13972539D-02  0.28535747D-04
  0.19879823D-02  0.35891180D-02  0.62479709D-02  0.10231316D-01  0.16130252D-01
  0.24340107D-01  0.35623558D-01  0.49084582D-01  0.63234093D-01  0.69600852D-01
  0.58592631D-01  0.13953002D-01 -0.46999076D-01 -0.62800618D-01 -0.77151843D-02
  0.26957902D-01  0.11900160D-01 -0.59058354D-04 -0.73828256D-03 -0.15994809D-02
 -0.27229068D-02 -0.44447459D-02 -0.70073326D-02 -0.10574459D-01 -0.15476617D-01
 -0.21349024D-01 -0.27538009D-01 -0.30443710D-01 -0.25783565D-01 -0.62629992D-02
  0.21728917D-01  0.30667875D-01  0.36590998D-02 -0.17196927D-01 -0.13746455D-01
  0.52078075D-02 -0.41811787D-02 -0.22368866D-02 -0.37005146D-03  0.20719159D-01
  0.29695360D-01  0.39213862D-01  0.45074357D-01  0.41465591D-01  0.26526674D-01
  0.91819109D-02  0.10322663D-02  0.13132944D-04  0.22757122D-05  0.23255303D-07
 -0.56639495D-01 -0.81177531D-01 -0.10719804D+00 -0.12321875D+00 -0.11335355D+00
 -0.72515369D-01 -0.25100382D-01 -0.28218831D-02 -0.35901231D-04 -0.62210630D-05
 -0.63572493D-07 -0.61594017D-02 -0.88278511D-02 -0.11657516D-01 -0.13399727D-01
 -0.12326911D-01 -0.78858629D-02 -0.27296030D-02 -0.30687265D-03 -0.39041681D-05
 -0.67652486D-06 -0.69133478D-08 -0.16750158D-01 -0.24160783D-01 -0.32179037D-01
 -0.38082707D-01 -0.36596051D-01 -0.25154440D-01 -0.79197434D-02  0.38275405D-02
  0.39279831D-02  0.98921190D-03 -0.10785200D-05  0.47306836D-01  0.68236384D-01
  0.90882035D-01  0.10755555D+00  0.10335684D+00  0.71042730D-01  0.22367431D-01
 -0.10809977D-01 -0.11093654D-01 -0.27937937D-02  0.30460231D-05  0.33661620D-03
  0.48554234D-03  0.64667958D-03  0.76532150D-03  0.73544522D-03  0.50551116D-03
  0.15915754D-03 -0.76919401D-04 -0.78937925D-04 -0.19879499D-04  0.21674261D-07
  0.12770757D-01  0.18513600D-01  0.24572174D-01  0.29324539D-01  0.28173920D-01
  0.19720242D-01  0.59543520D-02 -0.36449517D-02 -0.39200805D-02 -0.10542379D-02
  0.39298549D-03 -0.35705044D-01 -0.51761139D-01 -0.68699966D-01 -0.81986837D-01
 -0.78769887D-01 -0.55134722D-01 -0.16647439D-01  0.10190716D-01  0.10959933D-01
  0.29474846D-02 -0.10987261D-02 -0.13310522D-04 -0.19296091D-04 -0.25610735D-04
 -0.30563962D-04 -0.29364712D-04 -0.20553733D-04 -0.62060170D-05  0.37990082D-05
  0.40857655D-05  0.10987960D-05 -0.40959530D-06 -0.69757738D-04  0.28805524D-03
  0.21094064D-04 -0.30492511D-03  0.58685055D-03  0.23897985D-03 -0.63430082D-05
  0.99098701D-05  0.13845573D-04  0.34377639D-02  0.35584142D-02  0.29772086D-02
  0.19211449D-02  0.86300457D-03  0.25198337D-03  0.42511138D-04 -0.12148489D-02
 -0.12574847D-02 -0.10520963D-02 -0.67890085D-03 -0.30497154D-03 -0.89046754D-04
 -0.15022733D-04 -0.22229150D-02 -0.23009294D-02 -0.19251123D-02 -0.12422441D-02
 -0.55803303D-03 -0.16293661D-03 -0.27488405D-04  0.49284645D-02  0.51014317D-02
  0.42682008D-02  0.27542015D-02  0.12372250D-02  0.36124967D-03  0.60945033D-04
  0.23650811D-02  0.24480850D-02  0.20482325D-02  0.13216916D-02  0.59372193D-03
  0.17335720D-03  0.29246421D-04  0.25148137D-02  0.26030725D-02  0.21779055D-02
  0.14053675D-02  0.63131028D-03  0.18433238D-03  0.31098003D-04 -0.31519968D-03
  0.64638248D-04  0.25056143D-03 -0.38827491D-03 -0.19542437D-03 -0.19123380D-03
 -0.47992560D-04  0.10304905D-03 -0.55056486D-04 -0.65215268D-04  0.10696220D-03
 -0.15979870D-03  0.33099988D-04 -0.18300349D-04 -0.14799639D-04  0.67631047D-04
  0.34615226D-04 -0.34727111D-04 -0.10002179D-03  0.42253830D-04 -0.59632241D-04
  0.15769748D-03  0.20531091D-03 -0.77560977D-04  0.14236790D-03 -0.33207240D-03
  0.25645770D-03 -0.13380672D-04  0.14627986D-04 -0.16294326D-04  0.17443891D-05
 -0.10767719D-04 -0.20225748D-04  0.44970395D-05 -0.33116240D-04  0.69108726D-04
 -0.97302068D-05 -0.50369265D-04  0.89691624D-04  0.16176254D-03  0.23851877D-03
 -0.88187678D-03  0.87884482D-03  0.14100750D-04 -0.21783730D-04  0.16565777D-03
 -0.16387090D-03  0.17725105D-03 -0.77974101D-03  0.73394028D-03  0.25222444D-04
  0.89056814D-05 -0.79113063D-04  0.16685281D-03 -0.14678874D-03 -0.20064067D-04
  0.19438626D-03 -0.15755993D-03  0.61801413D-03  0.72136624D-04 -0.42933796D-04
 -0.29202828D-04  0.46297807D-04 -0.77644204D-04  0.24962067D-03
MO    3     MO 0.0        OCC NO =    2.0000000  ORB. ENERGY =  -52.254191
 -0.83952782D-04 -0.15650707D-03 -0.26452452D-03 -0.39766701D-03 -0.48857987D-03
 -0.41268380D-03 -0.15564915D-03  0.77031631D-06  0.62877127D-04  0.11772582D-03
  0.20043828D-03  0.31004755D-03  0.40832171D-03  0.42427241D-03  0.26960607D-03
 -0.18068372D-03 -0.24215423D-03  0.17345011D-02  0.20237958D-03  0.74696425D-04
  0.70032646D-04  0.49867416D-04 -0.60930353D-04 -0.57126079D-04 -0.40677171D-04
 -0.14738647D-03 -0.13818418D-03 -0.98395369D-04 -0.16750884D-03  0.30783743D-04
  0.15032880D-03 -0.15580428D-03  0.29637942D-03  0.24619087D-03 -0.22674368D-05
  0.84884606D-05  0.13974782D-04 -0.25719047D-04  0.31836926D-05  0.22535355D-04
  0.10074583D-04 -0.27269891D-04 -0.57624981D-04 -0.79369004D-04  0.32892232D-04
  0.46476772D-04 -0.29015505D-04  0.20739493D-04  0.57898335D-04 -0.83393968D-05
 -0.89938075D-05  0.17333204D-04 -0.22033023D-04 -0.51795685D-05  0.37854290D-04
  0.71828811D-05 -0.54654404D-05  0.26304992D-04 -0.11224331D-05 -0.18525250D-04
 -0.47506170D-04 -0.20426210D-04  0.34921571D-04 -0.31408805D-04  0.82932026D-05
  0.39961132D-04 -0.39817276D-04 -0.23922983D-04 -0.74465563D-04  0.35616108D-04