 Molden2AIM, Version 4.0.0 (06/02/2016)           Time: Fri Jun 29 17:59:54 2018
GAUSSIAN              8 MOL ORBITALS    204 PRIMITIVES        4 NUCLEI
  H    1    (CENTRE  1)   0.00000000  1.78843302 -1.10299534  CHARGE =  1.0
  H    2    (CENTRE  2)   0.00000000 -1.78843302 -1.10299534  CHARGE =  1.0
  C    3    (CENTRE  3)   0.00000000  0.00000000  0.00843952  CHARGE =  6.0
  O    4    (CENTRE  4)   0.00000000  0.00000000  2.28249247  CHARGE =  8.0
CENTRE ASSIGNMENTS    1  1  1  1  1  1  1  1  1  1  1  1  1  1  1  1  1  1  1  1
CENTRE ASSIGNMENTS    1  1  1  1  1  1  1  2  2  2  2  2  2  2  2  2  2  2  2  2
CENTRE ASSIGNMENTS    2  2  2  2  2  2  2  2  2  2  2  2  2  2  3  3  3  3  3  3
CENTRE ASSIGNMENTS    3  3  3  3  3  3  3  3  3  3  3  3  3  3  3  3  3  3  3  3
CENTRE ASSIGNMENTS    3  3  3  3  3  3  3  3  3  3  3  3  3  3  3  3  3  3  3  3
CENTRE ASSIGNMENTS    3  3  3  3  3  3  3  3  3  3  3  3  3  3  3  3  3  3  3  3
CENTRE ASSIGNMENTS    3  3  3  3  3  3  3  3  3  4  4  4  4  4  4  4  4  4  4  4
CENTRE ASSIGNMENTS    4  4  4  4  4  4  4  4  4  4  4  4  4  4  4  4  4  4  4  4
CENTRE ASSIGNMENTS    4  4  4  4  4  4  4  4  4  4  4  4  4  4  4  4  4  4  4  4
CENTRE ASSIGNMENTS    4  4  4  4  4  4  4  4  4  4  4  4  4  4  4  4  4  4  4  4
CENTRE ASSIGNMENTS    4  4  4  4
TYPE ASSIGNMENTS      1  1  1  1  1  1  2  3  4  2  3  4  2  3  4  5  6  7  8  9
TYPE ASSIGNMENTS     10  5  6  7  8  9 10  1  1  1  1  1  1  2  3  4  2  3  4  2
TYPE ASSIGNMENTS      3  4  5  6  7  8  9 10  5  6  7  8  9 10  1  1  1  1  1  1
TYPE ASSIGNMENTS      1  1  1  1  1  1  1  1  1  1  1  1  1  2  2  2  3  3  3  4
TYPE ASSIGNMENTS      4  4  2  3  4  2  3  4  2  3  4  5  6  7  8  9 10  5  6  7
TYPE ASSIGNMENTS      8  9 10  5  6  7  8  9 10 11 12 13 17 14 15 18 19 16 20 11
TYPE ASSIGNMENTS     12 13 17 14 15 18 19 16 20  1  1  1  1  1  1  1  1  1  1  1
TYPE ASSIGNMENTS      1  1  1  1  1  1  1  1  2  2  2  3  3  3  4  4  4  2  3  4
TYPE ASSIGNMENTS      2  3  4  2  3  4  5  6  7  8  9 10  5  6  7  8  9 10  5  6
TYPE ASSIGNMENTS      7  8  9 10 11 12 13 17 14 15 18 19 16 20 11 12 13 17 14 15
TYPE ASSIGNMENTS     18 19 16 20
EXPONENTS  0.3387000D+02 0.5095000D+01 0.1159000D+01 0.3258000D+00 0.1027000D+00
EXPONENTS  0.2526000D-01 0.1407000D+01 0.1407000D+01 0.1407000D+01 0.3880000D+00
EXPONENTS  0.3880000D+00 0.3880000D+00 0.1020000D+00 0.1020000D+00 0.1020000D+00
EXPONENTS  0.1057000D+01 0.1057000D+01 0.1057000D+01 0.1057000D+01 0.1057000D+01
EXPONENTS  0.1057000D+01 0.2470000D+00 0.2470000D+00 0.2470000D+00 0.2470000D+00
EXPONENTS  0.2470000D+00 0.2470000D+00 0.3387000D+02 0.5095000D+01 0.1159000D+01
EXPONENTS  0.3258000D+00 0.1027000D+00 0.2526000D-01 0.1407000D+01 0.1407000D+01
EXPONENTS  0.1407000D+01 0.3880000D+00 0.3880000D+00 0.3880000D+00 0.1020000D+00
EXPONENTS  0.1020000D+00 0.1020000D+00 0.1057000D+01 0.1057000D+01 0.1057000D+01
EXPONENTS  0.1057000D+01 0.1057000D+01 0.1057000D+01 0.2470000D+00 0.2470000D+00
EXPONENTS  0.2470000D+00 0.2470000D+00 0.2470000D+00 0.2470000D+00 0.8236000D+04
EXPONENTS  0.1235000D+04 0.2808000D+03 0.7927000D+02 0.2559000D+02 0.8997000D+01
EXPONENTS  0.3319000D+01 0.3643000D+00 0.8236000D+04 0.1235000D+04 0.2808000D+03
EXPONENTS  0.7927000D+02 0.2559000D+02 0.8997000D+01 0.3319000D+01 0.3643000D+00
EXPONENTS  0.9059000D+00 0.1285000D+00 0.4402000D-01 0.1871000D+02 0.4133000D+01
EXPONENTS  0.1200000D+01 0.1871000D+02 0.4133000D+01 0.1200000D+01 0.1871000D+02
EXPONENTS  0.4133000D+01 0.1200000D+01 0.3827000D+00 0.3827000D+00 0.3827000D+00
EXPONENTS  0.1209000D+00 0.1209000D+00 0.1209000D+00 0.3569000D-01 0.3569000D-01
EXPONENTS  0.3569000D-01 0.1097000D+01 0.1097000D+01 0.1097000D+01 0.1097000D+01
EXPONENTS  0.1097000D+01 0.1097000D+01 0.3180000D+00 0.3180000D+00 0.3180000D+00
EXPONENTS  0.3180000D+00 0.3180000D+00 0.3180000D+00 0.1000000D+00 0.1000000D+00
EXPONENTS  0.1000000D+00 0.1000000D+00 0.1000000D+00 0.1000000D+00 0.7610000D+00
EXPONENTS  0.7610000D+00 0.7610000D+00 0.7610000D+00 0.7610000D+00 0.7610000D+00
EXPONENTS  0.7610000D+00 0.7610000D+00 0.7610000D+00 0.7610000D+00 0.2680000D+00
EXPONENTS  0.2680000D+00 0.2680000D+00 0.2680000D+00 0.2680000D+00 0.2680000D+00
EXPONENTS  0.2680000D+00 0.2680000D+00 0.2680000D+00 0.2680000D+00 0.1533000D+05
EXPONENTS  0.2299000D+04 0.5224000D+03 0.1473000D+03 0.4755000D+02 0.1676000D+02
EXPONENTS  0.6207000D+01 0.6882000D+00 0.1533000D+05 0.2299000D+04 0.5224000D+03
EXPONENTS  0.1473000D+03 0.4755000D+02 0.1676000D+02 0.6207000D+01 0.6882000D+00
EXPONENTS  0.1752000D+01 0.2384000D+00 0.7376000D-01 0.3446000D+02 0.7749000D+01
EXPONENTS  0.2280000D+01 0.3446000D+02 0.7749000D+01 0.2280000D+01 0.3446000D+02
EXPONENTS  0.7749000D+01 0.2280000D+01 0.7156000D+00 0.7156000D+00 0.7156000D+00
EXPONENTS  0.2140000D+00 0.2140000D+00 0.2140000D+00 0.5974000D-01 0.5974000D-01
EXPONENTS  0.5974000D-01 0.2314000D+01 0.2314000D+01 0.2314000D+01 0.2314000D+01
EXPONENTS  0.2314000D+01 0.2314000D+01 0.6450000D+00 0.6450000D+00 0.6450000D+00
EXPONENTS  0.6450000D+00 0.6450000D+00 0.6450000D+00 0.2140000D+00 0.2140000D+00
EXPONENTS  0.2140000D+00 0.2140000D+00 0.2140000D+00 0.2140000D+00 0.1428000D+01
EXPONENTS  0.1428000D+01 0.1428000D+01 0.1428000D+01 0.1428000D+01 0.1428000D+01
EXPONENTS  0.1428000D+01 0.1428000D+01 0.1428000D+01 0.1428000D+01 0.5000000D+00
EXPONENTS  0.5000000D+00 0.5000000D+00 0.5000000D+00 0.5000000D+00 0.5000000D+00
EXPONENTS  0.5000000D+00 0.5000000D+00 0.5000000D+00 0.5000000D+00
MO    1     MO 0.0        OCC NO =    2.0000000  ORB. ENERGY =  -19.233083
  0.64290645D-04  0.11595083D-03  0.17096943D-03  0.80859346D-03 -0.26167157D-04
 -0.43148112D-06 -0.36471273D-16 -0.34912069D-03  0.33284978D-03  0.13784028D-16
 -0.39047693D-03 -0.11750664D-03  0.22243569D-18 -0.90150796D-04 -0.10016819D-03
  0.11335092D-03  0.18939340D-03 -0.30274432D-03  0.29070282D-17  0.26466852D-17
 -0.16949469D-03  0.38355665D-05  0.40570914D-04 -0.44406480D-04 -0.43528550D-17
  0.99597751D-18  0.42492662D-04  0.64290645D-04  0.11595083D-03  0.17096943D-03
  0.80859346D-03 -0.26167157D-04 -0.43148112D-06 -0.32000865D-19  0.34912069D-03
  0.33284978D-03  0.34125276D-18  0.39047693D-03 -0.11750664D-03  0.60753934D-18
  0.90150796D-04 -0.10016819D-03  0.11335092D-03  0.18939340D-03 -0.30274432D-03
  0.27809588D-17  0.19813471D-17  0.16949469D-03  0.38355665D-05  0.40570914D-04
 -0.44406480D-04  0.47811258D-18 -0.13427027D-17 -0.42492662D-04  0.32103859D-03
  0.59848892D-03  0.10115517D-02  0.15206936D-02  0.18683477D-02  0.15781183D-02
  0.59520818D-03 -0.29457185D-05 -0.25687828D-03 -0.48095720D-03 -0.81887078D-03
 -0.12666686D-02 -0.16681580D-02 -0.17333230D-02 -0.11014489D-02  0.73816547D-03
  0.10592833D-02 -0.94472635D-03  0.10174560D-04 -0.11589827D-17 -0.10866200D-17
 -0.77373815D-18  0.27697224D-15  0.25967908D-15  0.18490697D-15  0.11440878D-02
  0.10726550D-02  0.76379429D-03 -0.77015544D-17 -0.14679490D-14  0.11047791D-02
 -0.28486504D-17 -0.47501630D-14 -0.94725253D-04 -0.62080765D-19 -0.10600693D-15
  0.13946796D-05 -0.30248553D-03 -0.43049007D-03  0.73297560D-03  0.87219739D-17
 -0.59095446D-17  0.27115959D-15  0.36867387D-03  0.12995393D-03 -0.49862779D-03
 -0.58180428D-17  0.36423701D-17  0.11485566D-15  0.14942655D-04  0.66080708D-04
 -0.81023363D-04  0.37003874D-19  0.42702473D-18  0.22925882D-15  0.11107752D-18
  0.19312718D-15 -0.61245719D-03 -0.56949647D-17 -0.11854730D-16  0.46161310D-03
  0.53617322D-17 -0.56752681D-15  0.13757585D-02 -0.22305481D-17  0.24702674D-18
  0.19431242D-15 -0.77856761D-04  0.65177730D-18  0.31321892D-15 -0.17956281D-04
 -0.13928575D-17 -0.89615619D-15  0.25152656D-03  0.37467766D-18  0.49684652D+00
  0.92605799D+00  0.15702875D+01  0.23767033D+01  0.29654318D+01  0.25469104D+01
  0.97780843D+00 -0.43737971D-02  0.23788066D-03  0.44615107D-03  0.76058978D-03
  0.11886538D-02  0.15894566D-02  0.16971691D-02  0.10376159D-02 -0.68455594D-03
  0.54155222D-01  0.11305659D-02  0.15608979D-04  0.27151263D-16  0.26327592D-16
  0.17760438D-16 -0.42922363D-15 -0.41620254D-15 -0.28076777D-15 -0.77383483D-02
 -0.75035948D-02 -0.50618807D-02 -0.40530759D-17  0.36805072D-15  0.57353339D-04
  0.11623938D-17  0.22295462D-14  0.66517811D-03  0.95217546D-19  0.32464797D-16
  0.14215159D-04 -0.13633341D-02 -0.15352306D-02  0.28985648D-02 -0.14665905D-17
  0.14617948D-17  0.12171145D-14  0.39386621D-03  0.28680381D-03 -0.68067002D-03
  0.13133465D-17  0.19599842D-18 -0.99301871D-15  0.14853575D-03  0.59254546D-04
 -0.20779030D-03 -0.24955497D-18 -0.87746132D-18 -0.87948086D-15  0.18596866D-17
  0.79935505D-16 -0.27411400D-03 -0.29372560D-19  0.30982176D-15  0.54123821D-03
 -0.55496873D-17 -0.54962828D-15  0.28110381D-03  0.21393897D-17 -0.59593704D-18
 -0.10459724D-15  0.24190854D-03 -0.15415662D-18 -0.14725043D-15 -0.51178250D-03
  0.19419677D-17  0.46104213D-15 -0.21394312D-03 -0.66966620D-18
MO    2     MO 0.0        OCC NO =    2.0000000  ORB. ENERGY =  -10.328414
  0.15945951D-03  0.28759180D-03  0.42405394D-03 -0.15383025D-02 -0.21067746D-02
 -0.48491588D-04  0.26328919D-16  0.14318571D-02 -0.10749264D-02 -0.12747099D-16
  0.19797616D-02 -0.12114131D-02 -0.62744405D-18  0.16125577D-03 -0.42866219D-03
  0.13991589D-02 -0.16221803D-02  0.22302146D-03  0.18410906D-17 -0.16562557D-17
  0.41141028D-02  0.18244111D-03 -0.10284596D-03 -0.79595154D-04  0.11797098D-17
 -0.12009189D-17  0.19001106D-03  0.15945951D-03  0.28759180D-03  0.42405394D-03
 -0.15383025D-02 -0.21067746D-02 -0.48491588D-04 -0.11664617D-17 -0.14318571D-02
 -0.10749264D-02  0.11973356D-17 -0.19797616D-02 -0.12114131D-02 -0.85443356D-19
 -0.16125577D-03 -0.42866219D-03  0.13991589D-02 -0.16221803D-02  0.22302146D-03
  0.47422106D-18 -0.41353756D-18 -0.41141028D-02  0.18244111D-03 -0.10284596D-03
 -0.79595154D-04  0.42396126D-18  0.14843563D-18 -0.19001106D-03  0.32900502D+00
  0.61334016D+00  0.10366529D+01  0.15584289D+01  0.19147100D+01  0.16172787D+01
  0.60997801D+00 -0.30188152D-02 -0.25340675D-02 -0.47445738D-02 -0.80780429D-02
 -0.12495504D-01 -0.16456139D-01 -0.17098983D-01 -0.10865636D-01  0.72818965D-02
  0.34130413D-01  0.51877146D-02  0.54396870D-03  0.14237049D-17  0.13348139D-17
  0.95046698D-18 -0.22575472D-14 -0.21165940D-14 -0.15071410D-14  0.19894339D-02
  0.18652207D-02  0.13281483D-02  0.31725710D-17  0.91099408D-14  0.16833653D-02
  0.15813896D-17  0.11252194D-13 -0.50105209D-03  0.26221193D-19  0.10151533D-15
 -0.45690999D-05 -0.49573887D-02  0.67925805D-03  0.42781307D-02 -0.44853611D-17
  0.35528708D-17 -0.16946005D-14 -0.23093883D-03  0.31954100D-03 -0.88602164D-04
  0.36883861D-17  0.43454880D-18 -0.55826388D-14 -0.59200105D-05  0.16217782D-03
 -0.15625781D-03  0.17110965D-18 -0.43257160D-19 -0.95064852D-15 -0.62507557D-18
  0.20601465D-15  0.16904435D-02 -0.33562705D-19 -0.56270116D-15 -0.44179691D-03
  0.19087894D-17 -0.55342798D-16 -0.46295335D-02  0.15819388D-17 -0.24771514D-18
 -0.16480860D-15 -0.26875412D-03  0.64270885D-18 -0.80824879D-15  0.96851541D-04
  0.10043657D-18  0.13026746D-14  0.70941082D-03 -0.82246302D-18  0.39734501D-03
  0.74059998D-03  0.12558122D-02  0.19007302D-02  0.23715564D-02  0.20368506D-02
  0.78198656D-03 -0.34978739D-05 -0.38142689D-03 -0.71537559D-03 -0.12195585D-02
 -0.19059326D-02 -0.25485951D-02 -0.27213054D-02 -0.16637527D-02  0.10976430D-02
  0.10122896D-02 -0.22414919D-02 -0.38381378D-03  0.84707923D-18  0.82138191D-18
  0.55409939D-18 -0.44276937D-15 -0.42933735D-15 -0.28962844D-15 -0.35942026D-02
 -0.34851675D-02 -0.23510734D-02 -0.76731485D-18  0.47172799D-15  0.29996005D-02
 -0.13413223D-17 -0.23561314D-14  0.27895822D-02 -0.49320777D-19  0.19387623D-15
  0.52088509D-04 -0.61353074D-03 -0.46788835D-03  0.10814191D-02 -0.12115560D-17
 -0.58100953D-17  0.82712934D-15  0.15169675D-02  0.14340753D-02 -0.29510429D-02
  0.19472188D-18  0.30213983D-17  0.17306009D-15  0.36696195D-03  0.14800915D-03
 -0.51497110D-03 -0.24769598D-19  0.56882822D-18  0.88490484D-15  0.12351546D-19
  0.12193323D-15  0.11845235D-02 -0.15585630D-17 -0.20703468D-15 -0.10257146D-02
  0.15215084D-17 -0.15876500D-15 -0.25278559D-02  0.14284632D-17  0.21365451D-18
 -0.20447339D-16  0.58802910D-03  0.53980081D-18  0.27872791D-15 -0.10085909D-02
 -0.11807643D-17 -0.21738590D-15 -0.75549639D-03 -0.47016223D-19
MO    3     MO 0.0        OCC NO =    2.0000000  ORB. ENERGY =   -1.097774
  0.36603628D-02  0.66016150D-02  0.97340775D-02 -0.64893666D-02 -0.63343492D-02
 -0.71613248D-04  0.40564198D-17  0.49134252D-03  0.18780505D-02  0.14535408D-16
  0.51306337D-02 -0.34976367D-02  0.21976393D-16  0.61726549D-03 -0.13275943D-02
  0.36187768D-03 -0.21799377D-02  0.18180600D-02  0.27300921D-15 -0.24539797D-17
  0.20798544D-02  0.33384696D-03 -0.55724939D-04 -0.27812202D-03 -0.66664467D-17
 -0.16783717D-17  0.86379299D-03  0.36603628D-02  0.66016150D-02  0.97340775D-02
 -0.64893666D-02 -0.63343492D-02 -0.71613248D-04 -0.75818140D-17 -0.49134252D-03
  0.18780505D-02 -0.79417490D-17 -0.51306337D-02 -0.34976367D-02  0.17813736D-16
 -0.61726549D-03 -0.13275943D-02  0.36187768D-03 -0.21799377D-02  0.18180600D-02
 -0.29735052D-16 -0.65764000D-17 -0.20798544D-02  0.33384696D-03 -0.55724939D-04
 -0.27812202D-03  0.14697592D-16 -0.88285213D-17 -0.86379299D-03 -0.72349023D-02
 -0.13487503D-01 -0.22796256D-01 -0.34270240D-01 -0.42104949D-01 -0.35564360D-01
 -0.13413568D-01  0.66384498D-04 -0.29382043D-01 -0.55012454D-01 -0.93663410D-01
 -0.14488305D+00 -0.19080588D+00 -0.19825954D+00 -0.12598504D+00  0.84432241D-01
  0.37170048D-01  0.19174928D-01  0.24242626D-03  0.28946085D-16  0.27138794D-16
  0.19324438D-16  0.53129208D-14  0.49812010D-14  0.35469118D-14  0.23596146D+00
  0.22122887D+00  0.15752813D+00 -0.31511960D-16 -0.25868049D-13  0.30542032D-01
 -0.29789626D-16  0.17547503D-13 -0.27116628D-02 -0.23901133D-17  0.41041072D-15
 -0.51162149D-04 -0.19340016D-01 -0.13496028D-01  0.32836044D-01 -0.43377173D-17
  0.29714410D-16  0.81289962D-14 -0.40292923D-02  0.21030275D-02  0.19262648D-02
 -0.17541993D-16 -0.64281484D-17  0.13887057D-13  0.16867418D-04  0.43414798D-03
 -0.45101540D-03  0.42000079D-17  0.36031351D-17 -0.58027227D-15  0.98050936D-17
 -0.14914189D-14  0.61130182D-02 -0.32071630D-16  0.55724143D-14 -0.34158665D-02
  0.26563489D-17 -0.10981575D-14 -0.14923188D-01  0.92435261D-16 -0.13448214D-17
 -0.13432435D-14  0.11596272D-03  0.13385731D-16 -0.74590454D-15  0.39337136D-03
 -0.93512669D-17  0.47756351D-14 -0.74125952D-03 -0.20307381D-17 -0.86934064D-02
 -0.16203391D-01 -0.27475582D-01 -0.41585574D-01 -0.51886654D-01 -0.44563716D-01
 -0.17108877D-01  0.76529057D-04 -0.87571432D-01 -0.16424239D+00 -0.27999727D+00
 -0.43758123D+00 -0.58512949D+00 -0.62478187D+00 -0.38197939D+00  0.25200680D+00
  0.13671354D+00  0.60558384D-01  0.31301294D-02  0.30071476D-15  0.29159217D-15
  0.19670635D-15  0.25267743D-14  0.24501211D-14  0.16528372D-14 -0.45187514D+00
 -0.43816688D+00 -0.29558479D+00  0.10722108D-15 -0.15136635D-14 -0.10416944D+00
  0.35257418D-16 -0.12718370D-13 -0.58626741D-02  0.23104220D-17 -0.23150306D-15
 -0.66011242D-04 -0.19900942D-01 -0.30837315D-01  0.50738257D-01  0.36659633D-17
 -0.46707542D-16 -0.45234280D-14 -0.60038086D-02 -0.90090257D-02  0.15012834D-01
  0.14561613D-16 -0.52264083D-16  0.33152907D-14  0.12102516D-03  0.93790896D-04
 -0.21481605D-03 -0.93208789D-17 -0.16281658D-16  0.50225450D-14  0.10943583D-16
 -0.73312633D-15 -0.11653586D-01 -0.70948637D-17  0.19197440D-15  0.16575582D-01
 -0.25735886D-16  0.20074046D-14  0.18385176D-01  0.78208912D-17 -0.86267052D-17
  0.32883189D-15 -0.11289921D-02 -0.68315351D-18 -0.14595856D-17  0.12568908D-02
  0.26563269D-16 -0.98503608D-15  0.21300854D-02 -0.31083766D-17
MO    4     MO 0.0        OCC NO =    2.0000000  ORB. ENERGY =   -0.657746
  0.27322170D-01  0.49276659D-01  0.72658405D-01  0.36115709D-01  0.35165864D-04
 -0.59852986D-04  0.96435213D-16 -0.20362049D-01  0.88219808D-02  0.65869027D-16
 -0.42052570D-02 -0.65396963D-04 -0.42441273D-17  0.96884430D-03  0.19810184D-03
 -0.22292717D-02  0.40061921D-02 -0.17769204D-02 -0.18504392D-15 -0.88964468D-16
 -0.51131042D-02  0.71815716D-05  0.54749145D-04 -0.61930717D-04  0.17251203D-16
 -0.37076989D-16  0.10308216D-04  0.27322170D-01  0.49276659D-01  0.72658405D-01
  0.36115709D-01  0.35165864D-04 -0.59852986D-04  0.67332474D-16  0.20362049D-01
  0.88219808D-02 -0.58408601D-16  0.42052570D-02 -0.65396963D-04 -0.32434422D-16
 -0.96884430D-03  0.19810184D-03 -0.22292717D-02  0.40061921D-02 -0.17769204D-02
 -0.41764265D-16  0.12779037D-15  0.51131042D-02  0.71815716D-05  0.54749145D-04
 -0.61930717D-04 -0.22486850D-16 -0.90302709D-17 -0.10308216D-04 -0.55341797D-02
 -0.10316969D-01 -0.17437495D-01 -0.26214267D-01 -0.32207256D-01 -0.27204177D-01
 -0.10260415D-01  0.50779364D-04 -0.46405249D-01 -0.86885267D-01 -0.14792960D+00
 -0.22882460D+00 -0.30135395D+00 -0.31312606D+00 -0.19897755D+00  0.13335013D+00
  0.62112102D-01  0.41146316D-01  0.11581219D-02  0.62962236D-15  0.59031099D-15
  0.42033659D-15 -0.11629159D-14 -0.10903076D-14 -0.77636395D-15 -0.24672699D+00
 -0.23132224D+00 -0.16471522D+00  0.15475936D-15 -0.12737835D-13 -0.54376111D-01
  0.75983209D-16 -0.31294526D-13 -0.57805798D-02  0.10326331D-17  0.39870015D-15
 -0.21547670D-05 -0.77280473D-02  0.15977529D-01 -0.82494821D-02  0.61191251D-16
  0.32866976D-15  0.14188562D-14 -0.25002669D-02  0.34037285D-02 -0.90346159D-03
  0.94451689D-16 -0.94211047D-16  0.10327208D-13 -0.13183143D-03 -0.22293212D-03
  0.35476355D-03 -0.37279010D-17 -0.12810379D-16  0.39838070D-14 -0.50079834D-16
  0.44301869D-16  0.10277878D-02 -0.97148996D-16  0.11288955D-14  0.17404778D-02
  0.24738850D-15 -0.12618011D-14 -0.48238411D-02  0.14108416D-15 -0.23732582D-17
  0.50116396D-15  0.38482740D-03  0.20167964D-16  0.16687600D-14  0.44621839D-03
 -0.13048189D-16 -0.31722519D-14 -0.16007006D-02  0.28523172D-16  0.63585741D-03
  0.11851564D-02  0.20096326D-02  0.30416725D-02  0.37951192D-02  0.32595013D-02
  0.12513859D-02 -0.55975260D-05  0.42442554D-01  0.79602061D-01  0.13570406D+00
  0.21207904D+00  0.28359008D+00  0.30280809D+00  0.18513093D+00 -0.12213814D+00
 -0.69876382D-01 -0.50114098D-01 -0.30909946D-02  0.60442092D-15  0.58608497D-15
  0.39536946D-15 -0.74908815D-14 -0.72636353D-14 -0.49000054D-14 -0.32591115D+00
 -0.31602419D+00 -0.21318805D+00  0.22090967D-16 -0.98916486D-15 -0.69790917D-01
  0.59723231D-16  0.49500574D-14 -0.74282690D-02 -0.43709125D-18 -0.15319633D-14
 -0.18840379D-04 -0.10851302D-01 -0.45393515D-02  0.15390653D-01  0.75731420D-14
  0.38112484D-15  0.78304949D-15 -0.22474945D-02 -0.54513349D-03  0.27926280D-02
 -0.65126571D-15  0.19667288D-17 -0.69204031D-15 -0.26153555D-03  0.36489212D-04
  0.22504634D-03  0.20848998D-16 -0.29675084D-16 -0.24289999D-14  0.61828547D-15
 -0.56233614D-16 -0.23460708D-02  0.73461537D-15  0.84124756D-15  0.23842457D-02
 -0.25894718D-14 -0.67254672D-15  0.46539668D-02 -0.11637458D-14 -0.31280649D-16
 -0.29624803D-16  0.95080420D-04 -0.56614261D-16 -0.70025108D-15 -0.18225686D-03
  0.15045621D-15  0.78912549D-15 -0.10298440D-03  0.17613557D-15
MO    5     MO 0.0        OCC NO =    2.0000000  ORB. ENERGY =   -0.516182
  0.29338599D-01  0.52913372D-01  0.78020735D-01  0.41334455D-01  0.19323019D-02
  0.21055111D-03  0.30633521D-15 -0.14644818D-01  0.16308211D-01  0.17823710D-16
  0.42150888D-02  0.32920229D-02  0.23141838D-16  0.78049819D-03  0.44717406D-03
 -0.20297233D-02 -0.12832690D-02  0.33129922D-02  0.49807492D-16  0.26877017D-15
 -0.94764763D-02  0.23818582D-03 -0.44137571D-03  0.20318990D-03 -0.23452931D-16
 -0.29798550D-17  0.47822684D-03 -0.29338599D-01 -0.52913372D-01 -0.78020735D-01
 -0.41334455D-01 -0.19323019D-02 -0.21055111D-03  0.16094100D-15 -0.14644818D-01
 -0.16308211D-01  0.15512459D-17  0.42150888D-02 -0.32920229D-02  0.19180294D-16
  0.78049819D-03 -0.44717406D-03  0.20297233D-02  0.12832690D-02 -0.33129922D-02
 -0.14956445D-16 -0.90104267D-17 -0.94764763D-02 -0.23818582D-03  0.44137571D-03
 -0.20318990D-03  0.58396221D-18  0.11837614D-16  0.47822684D-03 -0.37285672D-15
 -0.69508969D-15 -0.11748240D-14 -0.17661453D-14 -0.21699136D-14 -0.18328389D-14
 -0.69127941D-15  0.34211804D-17  0.15662758D-15  0.29325625D-15  0.49929385D-15
  0.77233167D-15  0.10171336D-14  0.10568670D-14  0.67159154D-15 -0.45008503D-15
 -0.75629539D-14  0.63558875D-13  0.74736731D-15 -0.40107157D-15 -0.37603009D-15
 -0.26775583D-15  0.52772826D+00  0.49477879D+00  0.35231198D+00 -0.45130023D-14
 -0.42312265D-14 -0.30128854D-14 -0.87858532D-16  0.12742669D+00 -0.80141007D-14
 -0.74840325D-16  0.10748370D-01  0.27489959D-14 -0.32084454D-17 -0.10845008D-03
  0.23072772D-15  0.38419794D-14 -0.27912166D-15 -0.35628578D-14  0.62969405D-16
 -0.12390026D-16 -0.44894653D-03 -0.97137756D-14  0.46468324D-14  0.50669432D-14
 -0.15706528D-16 -0.16214495D-16 -0.90647495D-02 -0.32076661D-15 -0.12735120D-14
  0.15942786D-14 -0.88525681D-18  0.70400726D-17 -0.14121035D-02 -0.10663762D-16
 -0.24009929D-02  0.12137568D-14  0.43824689D-16 -0.44954505D-02  0.13060996D-14
 -0.11833403D-16  0.11698429D-01 -0.49473700D-14 -0.48605682D-16  0.34844667D-17
 -0.28270805D-03  0.23372536D-14 -0.86216104D-17 -0.21999025D-03  0.23163943D-15
 -0.18317898D-17  0.10681144D-02 -0.72434002D-14  0.21399404D-16 -0.11316410D-14
 -0.21092331D-14 -0.35765605D-14 -0.54132910D-14 -0.67542066D-14 -0.58009627D-14
 -0.22271024D-14  0.99619656D-17  0.78391294D-15  0.14702482D-14  0.25064508D-14
  0.39170947D-14  0.52379020D-14  0.55928581D-14  0.34193638D-14 -0.22558886D-14
 -0.13586690D-14 -0.32769939D-13 -0.10874452D-13 -0.70901857D-15 -0.68750951D-15
 -0.46378986D-15  0.83383915D+00  0.80854348D+00  0.54543866D+00  0.57974253D-14
  0.56215524D-14  0.37922660D-14 -0.15797840D-15  0.19163051D+00  0.10493423D-13
 -0.73296567D-17  0.28726373D-01  0.45875951D-14  0.46380485D-17  0.72661756D-03
  0.71555540D-15  0.21562077D-14 -0.29644364D-15 -0.18597640D-14  0.10220086D-15
  0.91478016D-16 -0.90202732D-01 -0.18731790D-15  0.51373770D-15 -0.32641980D-15
  0.24699530D-16  0.61958925D-17 -0.26894503D-01 -0.15358576D-14  0.60992699D-15
  0.92593064D-15  0.64296506D-17 -0.83031589D-17 -0.23563055D-02  0.10670430D-16
 -0.10585021D-01  0.12251502D-14 -0.13174944D-16 -0.36403977D-02 -0.42518224D-14
 -0.18836345D-16  0.35395462D-01  0.57637168D-15 -0.10742583D-16 -0.44843752D-17
 -0.78158782D-03 -0.72377785D-15  0.14630753D-16  0.19636337D-03  0.24584587D-14
 -0.11776280D-17  0.21484001D-02 -0.28712512D-15 -0.40497420D-17
MO    6     MO 0.0        OCC NO =    2.0000000  ORB. ENERGY =   -0.474699
  0.13682258D-01  0.24676516D-01  0.36385508D-01  0.22935990D-01  0.14102882D-02
  0.34590316D-04 -0.34470338D-16 -0.12782362D-01  0.12810040D-02 -0.28727639D-16
 -0.39470838D-02 -0.58999369D-03  0.22957025D-17  0.18363940D-03 -0.44210894D-03
 -0.70396812D-03  0.42207424D-02 -0.35167743D-02 -0.92467986D-16 -0.49371277D-16
 -0.19361942D-02 -0.43504179D-03 -0.53730632D-04  0.48877243D-03  0.44440697D-16
 -0.12357390D-16  0.31336907D-03  0.13682258D-01  0.24676516D-01  0.36385508D-01
  0.22935990D-01  0.14102882D-02  0.34590316D-04 -0.20288393D-15  0.12782362D-01
  0.12810040D-02  0.18562923D-16  0.39470838D-02 -0.58999369D-03  0.25828291D-16
 -0.18363940D-03 -0.44210894D-03 -0.70396812D-03  0.42207424D-02 -0.35167743D-02
 -0.56069407D-17 -0.85079652D-17  0.19361942D-02 -0.43504179D-03 -0.53730632D-04
  0.48877243D-03  0.27007776D-16  0.14848070D-16 -0.31336907D-03  0.53221140D-03
  0.99216305D-03  0.16769303D-02  0.25209756D-02  0.30973098D-02  0.26161733D-02
  0.98672430D-03 -0.48833536D-05  0.79299838D-02  0.14847432D-01  0.25279023D-01
  0.39102805D-01  0.51497018D-01  0.53508701D-01  0.34002377D-01 -0.22787602D-01
 -0.13394906D-01  0.72446476D-02 -0.32974289D-03 -0.44583243D-15 -0.41799624D-15
 -0.29763823D-15 -0.12526948D-13 -0.11744810D-13 -0.83630042D-14 -0.45025017D+00
 -0.42213815D+00 -0.30058751D+00 -0.10283095D-15  0.29139576D-13 -0.93742634D-01
 -0.51565299D-16  0.11853206D-12 -0.73738720D-02  0.29856763D-18  0.30836237D-14
 -0.60324621D-04  0.70722538D-02  0.18522346D-01 -0.25594600D-01 -0.66507291D-16
 -0.39361958D-16 -0.21011131D-15  0.15938882D-03  0.95222445D-03 -0.11116133D-02
  0.91151286D-16 -0.12698508D-16 -0.24167621D-13 -0.89946045D-04  0.12534185D-03
 -0.35395800D-04  0.50821668D-17  0.58566268D-17 -0.96099636D-14 -0.88250207D-17
 -0.13795332D-15 -0.51539558D-02  0.19650505D-16 -0.13338375D-14  0.52557262D-02
  0.68245565D-17  0.17476975D-14  0.10206141D-01 -0.69369597D-16 -0.27409505D-17
 -0.24311368D-14  0.72490645D-03  0.12393174D-16 -0.73590416D-14 -0.39234824D-03
 -0.41703229D-17  0.14652452D-13 -0.17823711D-02 -0.25695254D-16 -0.19520804D-03
 -0.36384267D-03 -0.61695661D-03 -0.93379257D-03 -0.11651005D-02 -0.10006659D-02
 -0.38417511D-03  0.17184388D-05 -0.37550030D-01 -0.70426013D-01 -0.12006091D+00
 -0.18763184D+00 -0.25089952D+00 -0.26790219D+00 -0.16379014D+00  0.10805879D+00
  0.62906777D-01  0.61172126D-01  0.82941949D-02 -0.68687429D-15 -0.66603701D-15
 -0.44930463D-15 -0.66274595D-14 -0.64264064D-14 -0.43352158D-14  0.14582878D+01
  0.14140487D+01  0.95390887D+00 -0.14897125D-15 -0.11309011D-14  0.32434481D+00
 -0.99380231D-17 -0.34216315D-13  0.38938443D-01 -0.94217364D-18  0.48454083D-15
  0.28075680D-03  0.41235541D-01  0.36027649D-01 -0.77263189D-01 -0.33764392D-16
  0.15618810D-15 -0.35241613D-14  0.89474668D-02  0.84830967D-02 -0.17430564D-01
  0.12783572D-16  0.10106227D-15  0.46626021D-14  0.16337283D-03  0.37148555D-03
 -0.53485838D-03 -0.34005576D-17 -0.56993953D-17  0.14689651D-13  0.22977577D-16
 -0.18615721D-15  0.12321069D-01 -0.15371078D-17 -0.42879448D-14 -0.11589607D-01
 -0.67395622D-16  0.48464164D-14 -0.25373600D-01  0.17477416D-17 -0.10894743D-17
  0.47774840D-15  0.13609255D-02  0.11217666D-16  0.26749650D-14 -0.15237422D-02
 -0.79492437D-17 -0.41082102D-14 -0.25590343D-02  0.19876688D-17
MO    7     MO 0.0        OCC NO =    2.0000000  ORB. ENERGY =   -0.422520
 -0.79069579D-17 -0.14260524D-16 -0.21027135D-16 -0.10176555D-14 -0.11883170D-14
 -0.94956291D-16  0.76965597D-02 -0.24165923D-15  0.55915985D-16  0.57774869D-02
  0.48622507D-15 -0.38138827D-15 -0.91363318D-04  0.24897814D-15 -0.13855842D-15
  0.56799824D-16  0.19701984D-15 -0.25381966D-15 -0.51181002D-02  0.46616219D-02
  0.20738188D-16 -0.48643636D-17 -0.12501393D-15  0.12987830D-15  0.95234285D-04
  0.55494129D-03  0.19504689D-16 -0.40767810D-16 -0.73526424D-16 -0.10841467D-15
  0.37571941D-15  0.46393827D-15  0.51371169D-16  0.76965597D-02  0.38360201D-15
  0.16947563D-15  0.57774869D-02  0.43114036D-15  0.20036726D-15 -0.91363318D-04
  0.17806303D-15 -0.31334138D-16 -0.27065402D-16  0.31392548D-15 -0.28686008D-15
  0.51181002D-02  0.46616219D-02  0.16264257D-15 -0.73943433D-16  0.77155570D-16
 -0.32121373D-17 -0.95234285D-04  0.55494129D-03  0.50842961D-16 -0.24242816D-15
 -0.45194121D-15 -0.76386026D-15 -0.11483322D-14 -0.14108588D-14 -0.11916958D-14
 -0.44946380D-15  0.22244214D-17  0.21170401D-15  0.39637671D-15  0.67486526D-15
  0.10439139D-14  0.13747979D-14  0.14285031D-14  0.90774960D-15 -0.60835267D-15
 -0.54839536D-16  0.18373754D-14  0.13312391D-15  0.43279957D+00  0.40577711D+00
  0.28893748D+00 -0.15664881D-15 -0.14686822D-15 -0.10457892D-15  0.19110894D-15
  0.17917678D-15  0.12758454D-15  0.10660312D+00  0.11196838D-14  0.29118940D-15
  0.11812125D-01  0.29964061D-15  0.31522488D-15  0.38944227D-04  0.31482004D-17
 -0.92089202D-18  0.12092656D-15 -0.23129512D-15  0.11036856D-15  0.36796706D-15
  0.60785510D-01  0.53196229D-15 -0.21300764D-15 -0.41452581D-16  0.25446022D-15
 -0.67937672D-15  0.11104812D-01 -0.60801372D-15 -0.85056059D-17  0.77379720D-17
  0.76763386D-18 -0.85939313D-15 -0.22078971D-03 -0.55846687D-16 -0.36051439D-02
  0.45285938D-16 -0.39226061D-18 -0.29155280D-02 -0.51072219D-15 -0.11895810D-15
  0.13730960D-01  0.37486437D-15  0.12013488D-15 -0.43370147D-15 -0.49506916D-04
  0.40116399D-16  0.78656144D-16 -0.86251957D-03  0.16501449D-16 -0.12688865D-15
  0.10110403D-02 -0.13685065D-15 -0.10907978D-15 -0.26116806D-15  0.55386407D-16
  0.10323314D-15  0.17504920D-15  0.26494511D-15  0.33057414D-15  0.28391910D-15
  0.10900206D-15 -0.48757292D-18 -0.10249440D-15 -0.19223079D-15 -0.32771135D-15
 -0.51214905D-15 -0.68484086D-15 -0.73125038D-15 -0.44707214D-15  0.29495105D-15
  0.39866196D-16 -0.15068404D-14 -0.15326274D-15  0.14034527D+01  0.13608770D+01
  0.91803957D+00  0.86616223D-15  0.83988600D-15  0.56658214D-15  0.25422187D-14
  0.24650970D-14  0.16629398D-14  0.32882097D+00  0.41787106D-15  0.82946147D-15
  0.47638315D-01  0.14820566D-15  0.30402286D-15  0.10219451D-02  0.38996168D-16
 -0.64818839D-17 -0.52032826D-15 -0.10110880D-15  0.62143706D-15  0.43794576D-15
 -0.11533805D+00  0.85134702D-15  0.26341842D-15 -0.42731408D-16 -0.22068701D-15
 -0.43717555D-15 -0.35073025D-01 -0.25136121D-16 -0.32419303D-16 -0.47247774D-16
  0.79667077D-16  0.70308495D-15 -0.18159426D-02  0.31714559D-16 -0.68722706D-02
 -0.37525264D-15 -0.13393839D-15 -0.19570596D-01  0.65524850D-15  0.39091659D-15
  0.40187408D-01  0.47050943D-15  0.10898586D-16 -0.81045041D-16 -0.33963541D-03
  0.11641398D-15  0.11112901D-16 -0.12545537D-02 -0.80741025D-16 -0.31498577D-17
  0.22734600D-02 -0.26850092D-15 -0.30188844D-16 -0.72664421D-15
MO    8     MO 0.0        OCC NO =    2.0000000  ORB. ENERGY =   -0.289383
 -0.26916108D-01 -0.48544310D-01 -0.71578556D-01 -0.46524075D-01  0.20056626D-02
  0.46168109D-03 -0.41210938D-16  0.85400164D-02 -0.42882215D-02 -0.11076802D-15
  0.49676806D-04  0.29438657D-02  0.31195987D-16 -0.24674132D-02  0.16898771D-02
 -0.19075059D-03 -0.22489079D-02  0.24396585D-02 -0.17360085D-15  0.25769167D-15
  0.24807072D-03  0.10657623D-03  0.13573646D-05 -0.10793359D-03  0.42190450D-17
 -0.31650780D-16  0.77128647D-03  0.26916108D-01  0.48544310D-01  0.71578556D-01
  0.46524075D-01 -0.20056626D-02 -0.46168109D-03  0.22591232D-16  0.85400164D-02
  0.42882215D-02  0.36119082D-16  0.49676806D-04 -0.29438657D-02  0.22671996D-16
 -0.24674132D-02 -0.16898771D-02  0.19075059D-03  0.22489079D-02 -0.24396585D-02
  0.39298566D-16 -0.19498040D-16  0.24807072D-03 -0.10657623D-03 -0.13573646D-05