 Molden2AIM, Version 4.0.0 (06/02/2016)           Time: Fri Jun 29 19:36:35 2018
GAUSSIAN             20 MOL ORBITALS    391 PRIMITIVES        5 NUCLEI
  C    1    (CENTRE  1)   0.12927427  1.06723417 -0.00015118  CHARGE =  6.0
  S    2    (CENTRE  2)  -2.63139261 -0.70709394 -0.00006614  CHARGE = 16.0
  S    3    (CENTRE  3)   3.04314125  0.08067430 -0.00000378  CHARGE = 16.0
  H    4    (CENTRE  4)  -0.33108758  3.09258594  0.00013228  CHARGE =  1.0
  H    5    (CENTRE  5)  -1.48379972 -3.00333228  0.00008693  CHARGE =  1.0
CENTRE ASSIGNMENTS    1  1  1  1  1  1  1  1  1  1  1  1  1  1  1  1  1  1  1  1
CENTRE ASSIGNMENTS    1  1  1  1  1  1  1  1  1  1  1  1  1  1  1  1  1  1  1  1
CENTRE ASSIGNMENTS    1  1  1  1  1  1  1  1  1  1  1  1  1  1  1  1  1  1  1  1
CENTRE ASSIGNMENTS    1  1  1  1  1  1  1  1  1  1  1  1  1  1  1  2  2  2  2  2
CENTRE ASSIGNMENTS    2  2  2  2  2  2  2  2  2  2  2  2  2  2  2  2  2  2  2  2
CENTRE ASSIGNMENTS    2  2  2  2  2  2  2  2  2  2  2  2  2  2  2  2  2  2  2  2
CENTRE ASSIGNMENTS    2  2  2  2  2  2  2  2  2  2  2  2  2  2  2  2  2  2  2  2
CENTRE ASSIGNMENTS    2  2  2  2  2  2  2  2  2  2  2  2  2  2  2  2  2  2  2  2
CENTRE ASSIGNMENTS    2  2  2  2  2  2  2  2  2  2  2  2  2  2  2  2  2  2  2  2
CENTRE ASSIGNMENTS    2  2  2  2  2  2  2  2  2  2  2  2  2  2  2  2  2  2  2  2
CENTRE ASSIGNMENTS    2  2  2  2  2  2  3  3  3  3  3  3  3  3  3  3  3  3  3  3
CENTRE ASSIGNMENTS    3  3  3  3  3  3  3  3  3  3  3  3  3  3  3  3  3  3  3  3
CENTRE ASSIGNMENTS    3  3  3  3  3  3  3  3  3  3  3  3  3  3  3  3  3  3  3  3
CENTRE ASSIGNMENTS    3  3  3  3  3  3  3  3  3  3  3  3  3  3  3  3  3  3  3  3
CENTRE ASSIGNMENTS    3  3  3  3  3  3  3  3  3  3  3  3  3  3  3  3  3  3  3  3
CENTRE ASSIGNMENTS    3  3  3  3  3  3  3  3  3  3  3  3  3  3  3  3  3  3  3  3
CENTRE ASSIGNMENTS    3  3  3  3  3  3  3  3  3  3  3  3  3  3  3  3  3  4  4  4
CENTRE ASSIGNMENTS    4  4  4  4  4  4  4  4  4  4  4  4  4  4  4  4  4  4  4  4
CENTRE ASSIGNMENTS    4  4  4  4  5  5  5  5  5  5  5  5  5  5  5  5  5  5  5  5
CENTRE ASSIGNMENTS    5  5  5  5  5  5  5  5  5  5  5
TYPE ASSIGNMENTS      1  1  1  1  1  1  1  1  1  1  1  1  1  1  1  1  1  1  1  2
TYPE ASSIGNMENTS      2  2  3  3  3  4  4  4  2  3  4  2  3  4  2  3  4  5  6  7
TYPE ASSIGNMENTS      8  9 10  5  6  7  8  9 10  5  6  7  8  9 10 11 12 13 17 14
TYPE ASSIGNMENTS     15 18 19 16 20 11 12 13 17 14 15 18 19 16 20  1  1  1  1  1
TYPE ASSIGNMENTS      1  1  1  1  1  1  1  1  1  1  1  1  1  1  1  1  1  1  1  1
TYPE ASSIGNMENTS      1  1  1  1  1  1  1  1  1  1  1  1  1  1  1  1  1  2  2  2
TYPE ASSIGNMENTS      2  2  2  2  3  3  3  3  3  3  3  4  4  4  4  4  4  4  2  2
TYPE ASSIGNMENTS      2  2  2  2  2  3  3  3  3  3  3  3  4  4  4  4  4  4  4  2
TYPE ASSIGNMENTS      3  4  2  3  4  2  3  4  5  6  7  8  9 10  5  6  7  8  9 10
TYPE ASSIGNMENTS      5  6  7  8  9 10 11 12 13 17 14 15 18 19 16 20 11 12 13 17
TYPE ASSIGNMENTS     14 15 18 19 16 20  1  1  1  1  1  1  1  1  1  1  1  1  1  1
TYPE ASSIGNMENTS      1  1  1  1  1  1  1  1  1  1  1  1  1  1  1  1  1  1  1  1
TYPE ASSIGNMENTS      1  1  1  1  1  1  1  1  2  2  2  2  2  2  2  3  3  3  3  3
TYPE ASSIGNMENTS      3  3  4  4  4  4  4  4  4  2  2  2  2  2  2  2  3  3  3  3
TYPE ASSIGNMENTS      3  3  3  4  4  4  4  4  4  4  2  3  4  2  3  4  2  3  4  5
TYPE ASSIGNMENTS      6  7  8  9 10  5  6  7  8  9 10  5  6  7  8  9 10 11 12 13
TYPE ASSIGNMENTS     17 14 15 18 19 16 20 11 12 13 17 14 15 18 19 16 20  1  1  1
TYPE ASSIGNMENTS      1  1  1  2  3  4  2  3  4  2  3  4  5  6  7  8  9 10  5  6
TYPE ASSIGNMENTS      7  8  9 10  1  1  1  1  1  1  2  3  4  2  3  4  2  3  4  5
TYPE ASSIGNMENTS      6  7  8  9 10  5  6  7  8  9 10
EXPONENTS  0.8236000D+04 0.1235000D+04 0.2808000D+03 0.7927000D+02 0.2559000D+02
EXPONENTS  0.8997000D+01 0.3319000D+01 0.3643000D+00 0.8236000D+04 0.1235000D+04
EXPONENTS  0.2808000D+03 0.7927000D+02 0.2559000D+02 0.8997000D+01 0.3319000D+01
EXPONENTS  0.3643000D+00 0.9059000D+00 0.1285000D+00 0.4402000D-01 0.1871000D+02
EXPONENTS  0.4133000D+01 0.1200000D+01 0.1871000D+02 0.4133000D+01 0.1200000D+01
EXPONENTS  0.1871000D+02 0.4133000D+01 0.1200000D+01 0.3827000D+00 0.3827000D+00
EXPONENTS  0.3827000D+00 0.1209000D+00 0.1209000D+00 0.1209000D+00 0.3569000D-01
EXPONENTS  0.3569000D-01 0.3569000D-01 0.1097000D+01 0.1097000D+01 0.1097000D+01
EXPONENTS  0.1097000D+01 0.1097000D+01 0.1097000D+01 0.3180000D+00 0.3180000D+00
EXPONENTS  0.3180000D+00 0.3180000D+00 0.3180000D+00 0.3180000D+00 0.1000000D+00
EXPONENTS  0.1000000D+00 0.1000000D+00 0.1000000D+00 0.1000000D+00 0.1000000D+00
EXPONENTS  0.7610000D+00 0.7610000D+00 0.7610000D+00 0.7610000D+00 0.7610000D+00
EXPONENTS  0.7610000D+00 0.7610000D+00 0.7610000D+00 0.7610000D+00 0.7610000D+00
EXPONENTS  0.2680000D+00 0.2680000D+00 0.2680000D+00 0.2680000D+00 0.2680000D+00
EXPONENTS  0.2680000D+00 0.2680000D+00 0.2680000D+00 0.2680000D+00 0.2680000D+00
EXPONENTS  0.3741000D+06 0.5605000D+05 0.1276000D+05 0.3615000D+04 0.1183000D+04
EXPONENTS  0.4288000D+03 0.1678000D+03 0.6947000D+02 0.2984000D+02 0.1272000D+02
EXPONENTS  0.5244000D+01 0.2219000D+01 0.3490000D+00 0.3741000D+06 0.5605000D+05
EXPONENTS  0.1276000D+05 0.3615000D+04 0.1183000D+04 0.4288000D+03 0.1678000D+03
EXPONENTS  0.6947000D+02 0.2984000D+02 0.1272000D+02 0.5244000D+01 0.2219000D+01
EXPONENTS  0.3490000D+00 0.3741000D+06 0.5605000D+05 0.1276000D+05 0.3615000D+04
EXPONENTS  0.1183000D+04 0.4288000D+03 0.1678000D+03 0.6947000D+02 0.2984000D+02
EXPONENTS  0.1272000D+02 0.5244000D+01 0.2219000D+01 0.3490000D+00 0.7767000D+00
EXPONENTS  0.1322000D+00 0.4970000D-01 0.5744000D+03 0.1358000D+03 0.4319000D+02
EXPONENTS  0.1587000D+02 0.6208000D+01 0.2483000D+01 0.3229000D+00 0.5744000D+03
EXPONENTS  0.1358000D+03 0.4319000D+02 0.1587000D+02 0.6208000D+01 0.2483000D+01
EXPONENTS  0.3229000D+00 0.5744000D+03 0.1358000D+03 0.4319000D+02 0.1587000D+02
EXPONENTS  0.6208000D+01 0.2483000D+01 0.3229000D+00 0.5744000D+03 0.1358000D+03
EXPONENTS  0.4319000D+02 0.1587000D+02 0.6208000D+01 0.2483000D+01 0.3229000D+00
EXPONENTS  0.5744000D+03 0.1358000D+03 0.4319000D+02 0.1587000D+02 0.6208000D+01
EXPONENTS  0.2483000D+01 0.3229000D+00 0.5744000D+03 0.1358000D+03 0.4319000D+02
EXPONENTS  0.1587000D+02 0.6208000D+01 0.2483000D+01 0.3229000D+00 0.8688000D+00
EXPONENTS  0.8688000D+00 0.8688000D+00 0.1098000D+00 0.1098000D+00 0.1098000D+00
EXPONENTS  0.3510000D-01 0.3510000D-01 0.3510000D-01 0.2690000D+00 0.2690000D+00
EXPONENTS  0.2690000D+00 0.2690000D+00 0.2690000D+00 0.2690000D+00 0.8190000D+00
EXPONENTS  0.8190000D+00 0.8190000D+00 0.8190000D+00 0.8190000D+00 0.8190000D+00
EXPONENTS  0.1010000D+00 0.1010000D+00 0.1010000D+00 0.1010000D+00 0.1010000D+00
EXPONENTS  0.1010000D+00 0.5570000D+00 0.5570000D+00 0.5570000D+00 0.5570000D+00
EXPONENTS  0.5570000D+00 0.5570000D+00 0.5570000D+00 0.5570000D+00 0.5570000D+00
EXPONENTS  0.5570000D+00 0.2180000D+00 0.2180000D+00 0.2180000D+00 0.2180000D+00
EXPONENTS  0.2180000D+00 0.2180000D+00 0.2180000D+00 0.2180000D+00 0.2180000D+00
EXPONENTS  0.2180000D+00 0.3741000D+06 0.5605000D+05 0.1276000D+05 0.3615000D+04
EXPONENTS  0.1183000D+04 0.4288000D+03 0.1678000D+03 0.6947000D+02 0.2984000D+02
EXPONENTS  0.1272000D+02 0.5244000D+01 0.2219000D+01 0.3490000D+00 0.3741000D+06
EXPONENTS  0.5605000D+05 0.1276000D+05 0.3615000D+04 0.1183000D+04 0.4288000D+03
EXPONENTS  0.1678000D+03 0.6947000D+02 0.2984000D+02 0.1272000D+02 0.5244000D+01
EXPONENTS  0.2219000D+01 0.3490000D+00 0.3741000D+06 0.5605000D+05 0.1276000D+05
EXPONENTS  0.3615000D+04 0.1183000D+04 0.4288000D+03 0.1678000D+03 0.6947000D+02
EXPONENTS  0.2984000D+02 0.1272000D+02 0.5244000D+01 0.2219000D+01 0.3490000D+00
EXPONENTS  0.7767000D+00 0.1322000D+00 0.4970000D-01 0.5744000D+03 0.1358000D+03
EXPONENTS  0.4319000D+02 0.1587000D+02 0.6208000D+01 0.2483000D+01 0.3229000D+00
EXPONENTS  0.5744000D+03 0.1358000D+03 0.4319000D+02 0.1587000D+02 0.6208000D+01
EXPONENTS  0.2483000D+01 0.3229000D+00 0.5744000D+03 0.1358000D+03 0.4319000D+02
EXPONENTS  0.1587000D+02 0.6208000D+01 0.2483000D+01 0.3229000D+00 0.5744000D+03
EXPONENTS  0.1358000D+03 0.4319000D+02 0.1587000D+02 0.6208000D+01 0.2483000D+01
EXPONENTS  0.3229000D+00 0.5744000D+03 0.1358000D+03 0.4319000D+02 0.1587000D+02
EXPONENTS  0.6208000D+01 0.2483000D+01 0.3229000D+00 0.5744000D+03 0.1358000D+03
EXPONENTS  0.4319000D+02 0.1587000D+02 0.6208000D+01 0.2483000D+01 0.3229000D+00
EXPONENTS  0.8688000D+00 0.8688000D+00 0.8688000D+00 0.1098000D+00 0.1098000D+00
EXPONENTS  0.1098000D+00 0.3510000D-01 0.3510000D-01 0.3510000D-01 0.2690000D+00
EXPONENTS  0.2690000D+00 0.2690000D+00 0.2690000D+00 0.2690000D+00 0.2690000D+00
EXPONENTS  0.8190000D+00 0.8190000D+00 0.8190000D+00 0.8190000D+00 0.8190000D+00
EXPONENTS  0.8190000D+00 0.1010000D+00 0.1010000D+00 0.1010000D+00 0.1010000D+00
EXPONENTS  0.1010000D+00 0.1010000D+00 0.5570000D+00 0.5570000D+00 0.5570000D+00
EXPONENTS  0.5570000D+00 0.5570000D+00 0.5570000D+00 0.5570000D+00 0.5570000D+00
EXPONENTS  0.5570000D+00 0.5570000D+00 0.2180000D+00 0.2180000D+00 0.2180000D+00
EXPONENTS  0.2180000D+00 0.2180000D+00 0.2180000D+00 0.2180000D+00 0.2180000D+00
EXPONENTS  0.2180000D+00 0.2180000D+00 0.3387000D+02 0.5095000D+01 0.1159000D+01
EXPONENTS  0.3258000D+00 0.1027000D+00 0.2526000D-01 0.1407000D+01 0.1407000D+01
EXPONENTS  0.1407000D+01 0.3880000D+00 0.3880000D+00 0.3880000D+00 0.1020000D+00
EXPONENTS  0.1020000D+00 0.1020000D+00 0.1057000D+01 0.1057000D+01 0.1057000D+01
EXPONENTS  0.1057000D+01 0.1057000D+01 0.1057000D+01 0.2470000D+00 0.2470000D+00
EXPONENTS  0.2470000D+00 0.2470000D+00 0.2470000D+00 0.2470000D+00 0.3387000D+02
EXPONENTS  0.5095000D+01 0.1159000D+01 0.3258000D+00 0.1027000D+00 0.2526000D-01
EXPONENTS  0.1407000D+01 0.1407000D+01 0.1407000D+01 0.3880000D+00 0.3880000D+00
EXPONENTS  0.3880000D+00 0.1020000D+00 0.1020000D+00 0.1020000D+00 0.1057000D+01
EXPONENTS  0.1057000D+01 0.1057000D+01 0.1057000D+01 0.1057000D+01 0.1057000D+01
EXPONENTS  0.2470000D+00 0.2470000D+00 0.2470000D+00 0.2470000D+00 0.2470000D+00
EXPONENTS  0.2470000D+00
MO    1     MO 0.0        OCC NO =    2.0000000  ORB. ENERGY =  -89.098886
  0.96997986D-04  0.18082630D-03  0.30562830D-03  0.45945945D-03  0.56449902D-03
  0.47680967D-03  0.17983506D-03 -0.89001376D-06 -0.73245576D-04 -0.13713883D-03
 -0.23349059D-03 -0.36117444D-03 -0.47565403D-03 -0.49423500D-03 -0.31406416D-03
  0.21047850D-03  0.21989206D-03 -0.48208682D-03 -0.12062136D-04 -0.13160124D-03
 -0.12338453D-03 -0.87857136D-04 -0.98456980D-04 -0.92309677D-04 -0.65729989D-04
 -0.62649943D-09 -0.58738303D-09 -0.41825171D-09 -0.71437670D-05 -0.63930117D-05
  0.77711603D-08 -0.56116430D-04 -0.32744850D-03 -0.11833361D-07 -0.45533801D-05
 -0.10355881D-04 -0.15744331D-09  0.85681833D-04  0.46640852D-04 -0.13232269D-03
  0.59709250D-04 -0.17218945D-07  0.47930217D-07 -0.64056709D-04 -0.10008468D-03
  0.16414139D-03 -0.20105050D-03  0.13709581D-07 -0.16609477D-07 -0.89978354D-05
 -0.25396249D-05  0.11537460D-04  0.11262225D-03  0.21756116D-07 -0.15632661D-08
  0.12591565D-04 -0.20882517D-05  0.28133773D-08  0.20246597D-05  0.58085877D-04
 -0.12924752D-07 -0.39799355D-04 -0.51821122D-04  0.44846201D-08 -0.11764735D-07
  0.47963164D-05 -0.75037805D-04 -0.51104643D-09  0.27495204D-04  0.22956918D-03
  0.10761455D-07 -0.41884153D-04 -0.44557686D-05 -0.92283160D-08 -0.37190038D-07
  0.58518726D+00  0.10939736D+01  0.18907279D+01  0.30581675D+01  0.46222411D+01
  0.63655845D+01  0.74398925D+01  0.64286284D+01  0.29983352D+01  0.40710914D+00
  0.10901380D-02  0.21384001D-02  0.97626895D-04 -0.12333031D-02 -0.23032460D-02
 -0.39953366D-02 -0.64783002D-02 -0.99740807D-02 -0.14205331D-01 -0.18266212D-01
 -0.19174087D-01 -0.13557438D-01  0.30023515D-03  0.97411947D-02  0.53637662D-02
 -0.22683276D-04  0.57067089D-03  0.10649563D-02  0.18497016D-02  0.29961063D-02
  0.46281073D-02  0.65980624D-02  0.85819239D-02  0.91460175D-02  0.67834110D-02
 -0.21114240D-03 -0.61454170D-02 -0.60203876D-02  0.28118781D-02 -0.27696010D-02
 -0.11639545D-02 -0.29121001D-03  0.10929815D-01  0.14339322D-01  0.15728051D-01
  0.12941289D-01  0.68229037D-02  0.17749971D-02 -0.19642152D-05 -0.43773027D-02
 -0.57427828D-02 -0.62989575D-02 -0.51828820D-02 -0.27325179D-02 -0.71087201D-03
  0.78665235D-06  0.22639752D-06  0.29702122D-06  0.32578700D-06  0.26806271D-06
  0.14132796D-06  0.36766856D-07 -0.40686274D-10 -0.94531717D-02 -0.12412072D-01
 -0.13964418D-01 -0.11766078D-01 -0.65817790D-02 -0.16381914D-02  0.75135350D-03
  0.37519570D-02  0.49263423D-02  0.55424673D-02  0.46699477D-02  0.26123033D-02
  0.65019697D-03 -0.29821166D-03 -0.21841947D-06 -0.28678610D-06 -0.32265370D-06
 -0.27186013D-06 -0.15207475D-06 -0.37851095D-07  0.17360336D-07 -0.28056703D-03
  0.20594235D-03 -0.70094930D-08 -0.42439834D-03  0.14631554D-03  0.23033116D-07
 -0.11486240D-04 -0.65876910D-06  0.22432393D-09 -0.83411776D-05  0.25023431D-04
 -0.16682253D-04 -0.41653239D-04  0.20868861D-07 -0.78104600D-08  0.10560579D-03
  0.19156307D-03 -0.29716886D-03 -0.13143319D-04 -0.18398767D-07 -0.71649122D-07
 -0.26651343D-04 -0.39204760D-05  0.30571819D-04  0.12563335D-04  0.52222217D-08
  0.83574476D-08 -0.28560407D-04 -0.81971950D-04 -0.62727874D-08  0.23465663D-03
  0.13532278D-03 -0.42497784D-08 -0.14897541D-03  0.11059307D-03  0.23068141D-07
 -0.71075751D-07 -0.23009271D-05  0.10484925D-04 -0.50616818D-09 -0.28357169D-04
 -0.23689205D-04  0.61310319D-08  0.35259950D-04 -0.77655699D-05 -0.46125273D-08
  0.11028002D-07  0.42710608D-04  0.79844999D-04  0.13799709D-03  0.22320410D-03
  0.33735992D-03  0.46459997D-03  0.54300965D-03  0.46920131D-03  0.21883716D-03
  0.29713359D-04  0.79565054D-07  0.15607374D-06  0.71254184D-08 -0.59788918D-04
 -0.11165835D-03 -0.19368869D-03 -0.31405951D-03 -0.48353036D-03 -0.68865585D-03
 -0.88552203D-03 -0.92953462D-03 -0.65724685D-03  0.14555007D-04  0.47224035D-03
  0.26002835D-03 -0.10996555D-05  0.34742258D-04  0.64834192D-04  0.11260923D-03
  0.18240197D-03  0.28175766D-03  0.40168788D-03  0.52246472D-03  0.55680656D-03
  0.41297185D-03 -0.12854280D-04 -0.37413098D-03 -0.36651923D-03  0.17118622D-03
  0.16918905D-04  0.26413834D-03  0.44213702D-04 -0.19527569D-02 -0.25619107D-02
 -0.28100256D-02 -0.23121336D-02 -0.12190026D-02 -0.31712685D-03  0.35093319D-06
  0.12760877D-03  0.16741576D-03  0.18362957D-03  0.15109332D-03  0.79659387D-04
  0.20723607D-04 -0.22932784D-07 -0.45054350D-06 -0.59108854D-06 -0.64833403D-06
 -0.53345952D-06 -0.28125041D-06 -0.73168063D-07  0.80967921D-10  0.18813664D-02
  0.24702455D-02  0.27791928D-02  0.23416800D-02  0.13099030D-02  0.32603219D-03
 -0.14953407D-03 -0.10899566D-03 -0.14311197D-03 -0.16101062D-03 -0.13566362D-03
 -0.75888326D-04 -0.18888450D-04  0.86631532D-05  0.41247503D-06  0.54158223D-06
  0.60931653D-06  0.51339524D-06  0.28718610D-06  0.71480036D-07 -0.32784189D-07
 -0.50984448D-04  0.70230064D-06  0.10324458D-07 -0.64318413D-04 -0.63318821D-04
 -0.37093529D-07 -0.24205517D-05  0.40691895D-06 -0.47111798D-09  0.20891014D-04
 -0.41655420D-04  0.20764406D-04 -0.25310151D-05  0.30310027D-07  0.11972388D-08
  0.52605303D-04 -0.12955211D-04 -0.39650092D-04  0.31817573D-05  0.11954434D-07
 -0.53382116D-08  0.59013791D-05 -0.76883515D-05  0.17869725D-05  0.90605845D-05
  0.67304175D-08 -0.85721347D-09 -0.31941772D-05 -0.11270541D-04  0.33831525D-08
  0.27187833D-04  0.13617105D-04 -0.21353031D-07 -0.17605301D-04  0.20194517D-04
  0.11203573D-07 -0.40317816D-08 -0.14274418D-05 -0.37756126D-05 -0.53713561D-09
  0.14544719D-04  0.96747280D-05 -0.29357622D-08 -0.10262393D-04  0.16521097D-05
  0.45471690D-08 -0.80102528D-10  0.27380639D-05  0.49382110D-05  0.72813892D-05
  0.54211675D-03  0.61677032D-03  0.18852578D-04 -0.39209912D-04 -0.55602059D-04
  0.26947823D-07  0.26321765D-03  0.15240676D-04 -0.84136538D-07 -0.79273830D-04
 -0.76716437D-04 -0.24658939D-07  0.28634023D-04 -0.47515412D-04  0.18881388D-04
 -0.12556462D-03 -0.28614605D-07  0.15734923D-07 -0.31813252D-05 -0.26013899D-04
  0.29195224D-04 -0.27255460D-04 -0.10009441D-08  0.25589475D-08  0.33331044D-04
  0.60113910D-04  0.88637925D-04 -0.22618836D-03  0.47563844D-03  0.47462953D-05
  0.64618705D-04  0.28425694D-04  0.21225556D-08  0.19300580D-03 -0.50837545D-03
  0.27650374D-07  0.85881801D-05  0.36507008D-04 -0.57281048D-08  0.70593744D-04
 -0.25372224D-03  0.18312850D-03  0.45942116D-03 -0.32226192D-07  0.54855109D-07
  0.27579443D-04 -0.82676840D-04  0.55097397D-04  0.88543762D-04 -0.65571417D-08
  0.15330391D-07
MO    2     MO 0.0        OCC NO =    2.0000000  ORB. ENERGY =  -89.045956
  0.66517819D-04  0.12400434D-03  0.20958918D-03  0.31508119D-03  0.38711364D-03
  0.32697936D-03  0.12332458D-03 -0.61034024D-06 -0.53969807D-04 -0.10104851D-03
 -0.17204373D-03 -0.26612549D-03 -0.35047791D-03 -0.36416899D-03 -0.23141305D-03
  0.15508764D-03  0.31550255D-03 -0.10095091D-02 -0.92279386D-04  0.21033923D-03
  0.19720640D-03  0.14042271D-03 -0.58389793D-04 -0.54744143D-04 -0.38981091D-04
  0.29723360D-07  0.27867539D-07  0.19843348D-07 -0.13842315D-03 -0.43914972D-04
 -0.34304453D-07  0.47118623D-03 -0.30149554D-03 -0.58646841D-07 -0.37904518D-05
 -0.28223875D-05 -0.95898761D-09  0.87251873D-04  0.62645113D-04 -0.14989699D-03
  0.21824775D-04  0.36454743D-08  0.56554345D-07 -0.20046132D-03 -0.49563160D-04
  0.25002448D-03  0.19815416D-03 -0.20876527D-07 -0.46055754D-07  0.47489476D-04
 -0.64425139D-04  0.16935663D-04 -0.77209482D-05 -0.68922587D-08 -0.54798951D-08
 -0.38981906D-04 -0.25187419D-04  0.59878170D-08  0.32712438D-04  0.84219576D-04
 -0.18950751D-07  0.84233280D-04 -0.86573181D-05  0.98730023D-09 -0.16307252D-07
 -0.49317037D-04 -0.55222704D-04  0.59146597D-08  0.12526172D-03  0.17218205D-03
 -0.68185293D-08  0.22689395D-04 -0.65139437D-05 -0.10925450D-07  0.50493933D-07
  0.11323502D-04  0.21168629D-04  0.36586000D-04  0.59176213D-04  0.89441380D-04
  0.12317546D-03  0.14396355D-03  0.12439537D-03  0.58018444D-04  0.78776513D-05
  0.21094409D-07  0.41378511D-07  0.18891018D-08 -0.40946080D-04 -0.76468548D-04
 -0.13264653D-03 -0.21508176D-03 -0.33114285D-03 -0.47162180D-03 -0.60644442D-03
 -0.63658618D-03 -0.45011154D-03  0.99679085D-05  0.32341096D-03  0.17807885D-03
 -0.75309244D-06  0.22645130D-04  0.42259163D-04  0.73399109D-04  0.11889027D-03
  0.18365067D-03  0.26182163D-03  0.34054442D-03  0.36292855D-03  0.26917656D-03
 -0.83784667D-05 -0.24385994D-03 -0.23889857D-03  0.11157980D-03 -0.46083039D-04
  0.17624242D-03  0.57543669D-04  0.26592234D-02  0.34887562D-02  0.38266338D-02
  0.31486150D-02  0.16600121D-02  0.43185668D-03 -0.47789345D-06  0.19397404D-02
  0.25448338D-02  0.27912948D-02  0.22967216D-02  0.12108770D-02  0.31501298D-03
 -0.34859397D-06 -0.41558011D-06 -0.54521848D-06 -0.59802157D-06 -0.49206162D-06
 -0.25942462D-06 -0.67490024D-07  0.74684592D-10 -0.24693512D-02 -0.32422732D-02
 -0.36477759D-02 -0.30735270D-02 -0.17192879D-02 -0.42792726D-03  0.19626806D-03
 -0.17499133D-02 -0.22976468D-02 -0.25850076D-02 -0.21780643D-02 -0.12183786D-02
 -0.30325196D-03  0.13908596D-03  0.37179286D-06  0.48816629D-06  0.54921999D-06
  0.46275937D-06  0.25886110D-06  0.64430002D-07 -0.29550703D-07 -0.27216593D-04
 -0.56139740D-04  0.16849344D-07  0.19468344D-03  0.12481472D-03 -0.15018797D-07
  0.64093352D-05 -0.21215275D-05  0.23886433D-09  0.39304811D-04 -0.17824877D-04
 -0.21479934D-04  0.11136561D-03 -0.23918661D-07 -0.55968330D-08  0.37210118D-04
 -0.25160917D-04 -0.12049200D-04  0.14456319D-04 -0.77412263D-08 -0.70711141D-08
  0.24432147D-04 -0.13932082D-04 -0.10500065D-04  0.20556610D-04 -0.23676440D-08
 -0.71012385D-10 -0.23005211D-05 -0.21041820D-04  0.47813457D-08 -0.90882523D-05
  0.55886101D-04 -0.18517554D-07  0.15989816D-04  0.72393573D-05  0.41735174D-08
 -0.13388071D-07  0.45263837D-06 -0.13364718D-05 -0.34875266D-09  0.77854858D-05
  0.96190704D-05 -0.28245050D-08 -0.91434009D-05 -0.56096550D-05  0.38707629D-08
 -0.35214107D-08  0.58507673D+00  0.10937669D+01  0.18903708D+01  0.30575899D+01
  0.46213681D+01  0.63643822D+01  0.74384872D+01  0.64274141D+01  0.29977689D+01
  0.40703225D+00  0.10899321D-02  0.21379962D-02  0.97608455D-04 -0.10374144D-02
 -0.19374157D-02 -0.33607472D-02 -0.54493355D-02 -0.83898723D-02 -0.11949063D-01
 -0.15364944D-01 -0.16128619D-01 -0.11404076D-01  0.25254804D-03  0.81939762D-02
  0.45118257D-02 -0.19080434D-04  0.46666807D-03  0.87087165D-03  0.15125998D-02
  0.24500761D-02  0.37846505D-02  0.53955880D-02  0.70178975D-02  0.74791870D-02
  0.55471575D-02 -0.17266241D-03 -0.50254357D-02 -0.49231925D-02  0.22994229D-02
 -0.24673075D-02 -0.11825139D-02 -0.16482287D-03 -0.88929942D-02 -0.11667124D-01
 -0.12797057D-01 -0.10529621D-01 -0.55514245D-02 -0.14442183D-02  0.15981748D-05
  0.29970775D-02  0.39320025D-02  0.43128074D-02  0.35486463D-02  0.18709165D-02
  0.48672405D-03 -0.53860978D-06 -0.35219966D-06 -0.46206677D-06 -0.50681682D-06
 -0.41701691D-06 -0.21985956D-06 -0.57197067D-07  0.63294385D-10  0.77371500D-02
  0.10158925D-01  0.11429476D-01  0.96301974D-02  0.53869974D-02  0.13408127D-02
 -0.61496130D-03 -0.26298977D-02 -0.34530718D-02 -0.38849386D-02 -0.32733545D-02
 -0.18310686D-02 -0.45574924D-03  0.20902856D-03  0.29982072D-06  0.39366643D-06
  0.44290128D-06  0.37317781D-06  0.20875044D-06  0.51957558D-07 -0.23830240D-07
  0.14738337D-03 -0.50669266D-04 -0.59065794D-10  0.41256204D-03 -0.18741454D-03
  0.43460658D-07  0.97664351D-05 -0.15975025D-05  0.17254336D-09  0.13683837D-04
 -0.21783894D-04  0.81000568D-05 -0.35825939D-04 -0.17136078D-07 -0.55814193D-08
  0.28305665D-03 -0.10794400D-03 -0.17511265D-03 -0.28108349D-03  0.72465882D-07
 -0.18201876D-07 -0.39168580D-04  0.14648095D-04  0.24520485D-04  0.46828600D-04
 -0.10577579D-07  0.57918966D-08 -0.61104109D-04 -0.41420136D-04  0.55157623D-08
  0.67801612D-04  0.14562724D-03 -0.22213136D-07  0.11551071D-03 -0.21366837D-04
  0.56658485D-08  0.43544015D-07  0.13319627D-04  0.25766962D-05 -0.21287662D-08
 -0.41775297D-05 -0.12427871D-04  0.88361123D-08 -0.35781350D-04  0.46977821D-05
 -0.24498138D-08 -0.51863847D-08  0.24907639D-06  0.44921953D-06  0.66237394D-06
  0.74608499D-03  0.11002799D-02  0.20072581D-04  0.53254527D-04 -0.54178801D-04
  0.65970955D-08 -0.66730609D-04 -0.15362406D-03 -0.51314771D-07  0.80985175D-04
 -0.11788709D-03 -0.35729147D-07 -0.37723871D-04  0.16931874D-04  0.20791997D-04
  0.44861979D-04 -0.20854261D-07  0.44307944D-08 -0.18137690D-04 -0.15537620D-04
  0.33675310D-04 -0.71797100D-06 -0.50473946D-08 -0.66449099D-08  0.11900591D-04
  0.21463206D-04  0.31647485D-04 -0.76395225D-04  0.35628486D-03  0.11979522D-06
  0.21689004D-04 -0.15589601D-04 -0.20250049D-08 -0.25475531D-04  0.26975903D-04
 -0.26712348D-08 -0.12132022D-04  0.75714887D-04 -0.70958207D-08 -0.52272248D-04
  0.17451811D-04  0.34820438D-04 -0.25583748D-04  0.55681368D-08  0.56069704D-08
  0.11695105D-04  0.38585287D-05 -0.15553634D-04  0.45489499D-05  0.34581184D-08
  0.30715557D-10
MO    3     MO 0.0        OCC NO =    2.0000000  ORB. ENERGY =  -10.336975
  0.32808424D+00  0.61162363D+00  0.10337517D+01  0.15540674D+01  0.19093513D+01
  0.16127524D+01  0.60827088D+00 -0.30103665D-02 -0.18027540D-02 -0.33753243D-02
 -0.57467784D-02 -0.88893924D-02 -0.11707017D-01 -0.12164341D-01 -0.77298924D-02
  0.51803941D-02  0.33833571D-01 -0.19363286D-02 -0.10174332D-02 -0.96112587D-03
 -0.90111660D-03 -0.64164870D-03 -0.20359515D-02 -0.19088339D-02 -0.13592035D-02
 -0.17449210D-06 -0.16359744D-06 -0.11649112D-06 -0.48562571D-03  0.66873587D-02
  0.93311158D-06 -0.41077226D-03  0.68468670D-03 -0.48405890D-07  0.25500023D-04
  0.62237259D-05 -0.92147589D-08  0.34689145D-03  0.29910944D-02 -0.33379859D-02
 -0.17586598D-02 -0.20569483D-06  0.14553040D-05 -0.16057502D-02  0.10885455D-02
  0.51720465D-03 -0.17000205D-02 -0.13981283D-06  0.55502064D-06 -0.18759430D-03
  0.78208576D-04  0.10938573D-03  0.55463121D-04  0.54839247D-08 -0.15245380D-07
  0.51061683D-03  0.10440812D-02 -0.22390940D-06 -0.15925420D-02 -0.13784796D-02
 -0.18709188D-06  0.60691492D-04 -0.17537639D-02  0.85882007D-06 -0.58324675D-06
 -0.26718450D-03 -0.30814215D-03 -0.37618029D-08  0.74454112D-03  0.94807357D-03
 -0.78645111D-08  0.57012394D-04 -0.23647116D-04  0.19149920D-07 -0.15859177D-07
  0.25768708D-03  0.48173102D-03  0.83258160D-03  0.13466634D-02  0.20354028D-02
  0.28030837D-02  0.32761550D-02  0.28308451D-02  0.13203162D-02  0.17927042D-03
  0.48004201D-06  0.94164398D-06  0.42989981D-07 -0.47860160D-03 -0.89380886D-03
 -0.15504498D-02 -0.25140007D-02 -0.38705903D-02 -0.55125900D-02 -0.70884751D-02
 -0.74407895D-02 -0.52611655D-02  0.11651071D-03  0.37802154D-02  0.20814892D-02
 -0.88025825D-05  0.27080228D-03  0.50535712D-03  0.87774482D-03  0.14217519D-02
  0.21961905D-02  0.31309996D-02  0.40724077D-02  0.43400889D-02  0.32189537D-02
 -0.10019407D-03 -0.29162043D-02 -0.28568737D-02  0.13343295D-02 -0.57193476D-03
  0.18423387D-02  0.74654994D-03  0.33159074D-01  0.43502899D-01  0.47716050D-01
  0.39261522D-01  0.20699451D-01  0.53850188D-02 -0.59590723D-05  0.17381491D-01
  0.22803569D-01  0.25012040D-01  0.20580303D-01  0.10850343D-01  0.28227463D-02
 -0.31236566D-05 -0.18807750D-05 -0.24674743D-05 -0.27064432D-05 -0.22269044D-05
 -0.11740680D-05 -0.30543701D-06  0.33799719D-09 -0.30562619D-01 -0.40128905D-01
 -0.45147724D-01 -0.38040371D-01 -0.21279250D-01 -0.52963621D-02  0.24291668D-02
 -0.16080318D-01 -0.21113555D-01 -0.23754173D-01 -0.20014687D-01 -0.11195935D-01
 -0.27866455D-02  0.12780899D-02  0.16864514D-05  0.22143209D-05  0.24912603D-05
  0.20990752D-05  0.11741932D-05  0.29225430D-06 -0.13404190D-06 -0.69664287D-03
 -0.34303854D-03  0.74650983D-07  0.45192576D-03  0.70023846D-03  0.33177024D-07
  0.23933204D-04  0.43829515D-04  0.25588915D-08  0.53107410D-03 -0.40927726D-03
 -0.12179684D-03  0.96664973D-03 -0.39649077D-07 -0.89326024D-08  0.44706047D-03
  0.14709385D-04 -0.46176986D-03  0.73569553D-03 -0.10107102D-06 -0.77862711D-07
 -0.11181915D-04  0.48395008D-04 -0.37213093D-04  0.10856502D-03  0.12153072D-07
 -0.32978459D-08  0.81636961D-04 -0.85530460D-04  0.24507950D-07 -0.20271875D-03
  0.31670034D-03 -0.52490161D-07 -0.42192132D-04 -0.60108960D-04 -0.21033690D-07
 -0.10231894D-06  0.11820674D-04 -0.33685299D-04 -0.60618754D-08 -0.30977240D-04
  0.12291148D-03  0.88901282D-08 -0.44847822D-05 -0.21855586D-04  0.92954980D-08
  0.22510330D-08  0.31912721D-03  0.59658977D-03  0.10310934D-02  0.16677473D-02
  0.25207024D-02  0.34714208D-02  0.40572861D-02  0.35058013D-02  0.16351182D-02
  0.22201373D-03  0.59449806D-06  0.11661594D-05  0.53240049D-07 -0.62066325D-03
 -0.11591150D-02 -0.20106644D-02 -0.32602228D-02 -0.50194842D-02 -0.71488729D-02
 -0.91925226D-02 -0.96494133D-02 -0.68228190D-02  0.15109418D-03  0.49022836D-02
  0.26993304D-02 -0.11415423D-04  0.36533920D-03  0.68177699D-03  0.11841650D-02
  0.19180846D-02  0.29628794D-02  0.42240297D-02  0.54940829D-02  0.58552114D-02
  0.43426885D-02 -0.13517177D-03 -0.39342496D-02 -0.38542067D-02  0.18001431D-02
  0.12942245D-03  0.24227413D-02  0.40374797D-03 -0.21822032D-01 -0.28629318D-01
 -0.31401998D-01 -0.25838061D-01 -0.13622337D-01 -0.35438882D-02  0.39216736D-05
  0.12844793D-01  0.16851669D-01  0.18483713D-01  0.15208692D-01  0.80183230D-02
  0.20859887D-02 -0.23083591D-05 -0.26246529D-05 -0.34434016D-05 -0.37768867D-05
 -0.31076823D-05 -0.16384316D-05 -0.42624245D-06  0.47168073D-09  0.20940103D-01
  0.27494483D-01  0.30933147D-01  0.26063515D-01  0.14579565D-01  0.36288240D-02
 -0.16643536D-02 -0.11903080D-01 -0.15628817D-01 -0.17583473D-01 -0.14815405D-01
 -0.82875300D-02 -0.20627493D-02  0.94607624D-03  0.23923333D-05  0.31411482D-05
  0.35340035D-05  0.29776651D-05  0.16656641D-05  0.41458041D-06 -0.19014655D-06
 -0.65522736D-03 -0.31654428D-04  0.47200040D-07 -0.30536337D-03  0.47439349D-03
 -0.31252896D-07 -0.14711964D-04  0.20276925D-04  0.31039942D-08 -0.51528774D-04
 -0.33438521D-04  0.84967296D-04 -0.64928645D-03  0.44097157D-07 -0.68671805D-07
  0.66125643D-03 -0.22445580D-03 -0.43680062D-03 -0.41512139D-03  0.16624968D-06
 -0.19550254D-07 -0.26019531D-04  0.27969549D-04 -0.19500181D-05 -0.87836096D-04
 -0.64355016D-08  0.51578335D-08  0.10217200D-03 -0.82203271D-06  0.13309681D-07
  0.39774932D-05 -0.11195052D-03 -0.46184990D-07 -0.31049348D-03  0.11441661D-03
  0.62559468D-08  0.77318750D-07  0.47325343D-04 -0.37686276D-04 -0.75920692D-08
 -0.54174820D-04  0.11913252D-03  0.22246540D-07 -0.87801209D-04 -0.60736950D-05
  0.52966762D-09  0.10349213D-07  0.24260763D-03  0.43755285D-03  0.64517143D-03
 -0.41834312D-02 -0.22247111D-02 -0.24990402D-04 -0.43204982D-03  0.16094482D-02
  0.38897186D-06 -0.11971426D-02  0.58277331D-02  0.33100445D-06 -0.22601127D-03
  0.70436574D-03  0.83547812D-07  0.17070648D-02 -0.38770405D-02  0.21699757D-02
  0.27000920D-02  0.30635142D-06 -0.14520618D-05  0.15144002D-03 -0.58131814D-03
  0.42987813D-03  0.31075442D-03  0.46763241D-07 -0.18814951D-06  0.17661967D-04
  0.31854084D-04  0.46968828D-04  0.55282639D-03  0.95592473D-04  0.54383985D-04
  0.15973805D-03  0.15916851D-03  0.13553423D-07 -0.28836818D-03  0.12652680D-03
 -0.61114191D-07  0.39376893D-04  0.25404492D-04 -0.31681011D-07  0.48007726D-04
 -0.14150030D-03  0.93492571D-04 -0.30104492D-03  0.37682946D-07  0.21305479D-07
  0.94681140D-05 -0.32990508D-04  0.23522394D-04 -0.13688745D-03  0.11102131D-07
 -0.17503697D-07
MO    4     MO 0.0        OCC NO =    2.0000000  ORB. ENERGY =   -8.056750
 -0.80524205D-04 -0.15011543D-03 -0.25372151D-03 -0.38142654D-03 -0.46862658D-03
 -0.39583006D-03 -0.14929254D-03  0.73885709D-06  0.37305741D-04  0.69848118D-04
  0.11892240D-03  0.18395487D-03  0.24226209D-03  0.25172583D-03  0.15996046D-03
 -0.10720178D-03 -0.23403295D-03  0.48871353D-03  0.45266798D-04 -0.23807839D-04
 -0.22321362D-04 -0.15894140D-04 -0.40593740D-04 -0.38059211D-04 -0.27100426D-04
 -0.10977086D-08 -0.10291716D-08 -0.73283147D-09 -0.10689364D-03 -0.33185123D-04
  0.11773083D-08  0.20194038D-03  0.89101165D-03  0.34551650D-07  0.38087475D-06