 Molden2AIM, Version 4.0.0 (06/02/2016)           Time: Fri Jun 29 20:23:21 2018
GAUSSIAN             21 MOL ORBITALS    392 PRIMITIVES        4 NUCLEI
  H    1    (CENTRE  1)   0.00000000  1.76092806 -1.34782070  CHARGE =  1.0
  H    2    (CENTRE  2)   0.00000000 -1.76092806 -1.34782070  CHARGE =  1.0
  C    3    (CENTRE  3)   0.00000000  0.00000000 -0.26110724  CHARGE =  6.0
  Se   4    (CENTRE  4)   0.00000000  0.00000000  3.04168994  CHARGE = 34.0
CENTRE ASSIGNMENTS    1  1  1  1  1  1  1  1  1  1  1  1  1  1  1  1  1  1  1  1
CENTRE ASSIGNMENTS    1  1  1  1  1  1  1  2  2  2  2  2  2  2  2  2  2  2  2  2
CENTRE ASSIGNMENTS    2  2  2  2  2  2  2  2  2  2  2  2  2  2  3  3  3  3  3  3
CENTRE ASSIGNMENTS    3  3  3  3  3  3  3  3  3  3  3  3  3  3  3  3  3  3  3  3
CENTRE ASSIGNMENTS    3  3  3  3  3  3  3  3  3  3  3  3  3  3  3  3  3  3  3  3
CENTRE ASSIGNMENTS    3  3  3  3  3  3  3  3  3  3  3  3  3  3  3  3  3  3  3  3
CENTRE ASSIGNMENTS    3  3  3  3  3  3  3  3  3  4  4  4  4  4  4  4  4  4  4  4
CENTRE ASSIGNMENTS    4  4  4  4  4  4  4  4  4  4  4  4  4  4  4  4  4  4  4  4
CENTRE ASSIGNMENTS    4  4  4  4  4  4  4  4  4  4  4  4  4  4  4  4  4  4  4  4
CENTRE ASSIGNMENTS    4  4  4  4  4  4  4  4  4  4  4  4  4  4  4  4  4  4  4  4
CENTRE ASSIGNMENTS    4  4  4  4  4  4  4  4  4  4  4  4  4  4  4  4  4  4  4  4
CENTRE ASSIGNMENTS    4  4  4  4  4  4  4  4  4  4  4  4  4  4  4  4  4  4  4  4
CENTRE ASSIGNMENTS    4  4  4  4  4  4  4  4  4  4  4  4  4  4  4  4  4  4  4  4
CENTRE ASSIGNMENTS    4  4  4  4  4  4  4  4  4  4  4  4  4  4  4  4  4  4  4  4
CENTRE ASSIGNMENTS    4  4  4  4  4  4  4  4  4  4  4  4  4  4  4  4  4  4  4  4
CENTRE ASSIGNMENTS    4  4  4  4  4  4  4  4  4  4  4  4  4  4  4  4  4  4  4  4
CENTRE ASSIGNMENTS    4  4  4  4  4  4  4  4  4  4  4  4  4  4  4  4  4  4  4  4
CENTRE ASSIGNMENTS    4  4  4  4  4  4  4  4  4  4  4  4  4  4  4  4  4  4  4  4
CENTRE ASSIGNMENTS    4  4  4  4  4  4  4  4  4  4  4  4  4  4  4  4  4  4  4  4
CENTRE ASSIGNMENTS    4  4  4  4  4  4  4  4  4  4  4  4
TYPE ASSIGNMENTS      1  1  1  1  1  1  2  3  4  2  3  4  2  3  4  5  6  7  8  9
TYPE ASSIGNMENTS     10  5  6  7  8  9 10  1  1  1  1  1  1  2  3  4  2  3  4  2
TYPE ASSIGNMENTS      3  4  5  6  7  8  9 10  5  6  7  8  9 10  1  1  1  1  1  1
TYPE ASSIGNMENTS      1  1  1  1  1  1  1  1  1  1  1  1  1  2  2  2  3  3  3  4
TYPE ASSIGNMENTS      4  4  2  3  4  2  3  4  2  3  4  5  6  7  8  9 10  5  6  7
TYPE ASSIGNMENTS      8  9 10  5  6  7  8  9 10 11 12 13 17 14 15 18 19 16 20 11
TYPE ASSIGNMENTS     12 13 17 14 15 18 19 16 20  1  1  1  1  1  1  1  1  1  1  1
TYPE ASSIGNMENTS      1  1  1  1  1  1  1  1  1  1  1  1  1  1  1  1  1  1  1  1
TYPE ASSIGNMENTS      1  1  1  1  1  1  1  1  1  1  1  1  1  1  1  1  1  1  1  1
TYPE ASSIGNMENTS      1  1  1  1  1  1  1  1  1  1  1  1  1  1  1  1  1  1  1  1
TYPE ASSIGNMENTS      1  1  1  1  2  2  2  2  2  2  2  2  2  2  2  3  3  3  3  3
TYPE ASSIGNMENTS      3  3  3  3  3  3  4  4  4  4  4  4  4  4  4  4  4  2  2  2
TYPE ASSIGNMENTS      2  2  2  2  2  2  2  2  3  3  3  3  3  3  3  3  3  3  3  4
TYPE ASSIGNMENTS      4  4  4  4  4  4  4  4  4  4  2  2  2  2  2  2  2  2  2  2
TYPE ASSIGNMENTS      2  3  3  3  3  3  3  3  3  3  3  3  4  4  4  4  4  4  4  4
TYPE ASSIGNMENTS      4  4  4  2  3  4  2  3  4  2  3  4  5  5  5  5  5  5  5  6
TYPE ASSIGNMENTS      6  6  6  6  6  6  7  7  7  7  7  7  7  8  8  8  8  8  8  8
TYPE ASSIGNMENTS      9  9  9  9  9  9  9 10 10 10 10 10 10 10  5  6  7  8  9 10
TYPE ASSIGNMENTS      5  6  7  8  9 10  5  6  7  8  9 10 11 12 13 17 14 15 18 19
TYPE ASSIGNMENTS     16 20 11 12 13 17 14 15 18 19 16 20
EXPONENTS  0.3387000D+02 0.5095000D+01 0.1159000D+01 0.3258000D+00 0.1027000D+00
EXPONENTS  0.2526000D-01 0.1407000D+01 0.1407000D+01 0.1407000D+01 0.3880000D+00
EXPONENTS  0.3880000D+00 0.3880000D+00 0.1020000D+00 0.1020000D+00 0.1020000D+00
EXPONENTS  0.1057000D+01 0.1057000D+01 0.1057000D+01 0.1057000D+01 0.1057000D+01
EXPONENTS  0.1057000D+01 0.2470000D+00 0.2470000D+00 0.2470000D+00 0.2470000D+00
EXPONENTS  0.2470000D+00 0.2470000D+00 0.3387000D+02 0.5095000D+01 0.1159000D+01
EXPONENTS  0.3258000D+00 0.1027000D+00 0.2526000D-01 0.1407000D+01 0.1407000D+01
EXPONENTS  0.1407000D+01 0.3880000D+00 0.3880000D+00 0.3880000D+00 0.1020000D+00
EXPONENTS  0.1020000D+00 0.1020000D+00 0.1057000D+01 0.1057000D+01 0.1057000D+01
EXPONENTS  0.1057000D+01 0.1057000D+01 0.1057000D+01 0.2470000D+00 0.2470000D+00
EXPONENTS  0.2470000D+00 0.2470000D+00 0.2470000D+00 0.2470000D+00 0.8236000D+04
EXPONENTS  0.1235000D+04 0.2808000D+03 0.7927000D+02 0.2559000D+02 0.8997000D+01
EXPONENTS  0.3319000D+01 0.3643000D+00 0.8236000D+04 0.1235000D+04 0.2808000D+03
EXPONENTS  0.7927000D+02 0.2559000D+02 0.8997000D+01 0.3319000D+01 0.3643000D+00
EXPONENTS  0.9059000D+00 0.1285000D+00 0.4402000D-01 0.1871000D+02 0.4133000D+01
EXPONENTS  0.1200000D+01 0.1871000D+02 0.4133000D+01 0.1200000D+01 0.1871000D+02
EXPONENTS  0.4133000D+01 0.1200000D+01 0.3827000D+00 0.3827000D+00 0.3827000D+00
EXPONENTS  0.1209000D+00 0.1209000D+00 0.1209000D+00 0.3569000D-01 0.3569000D-01
EXPONENTS  0.3569000D-01 0.1097000D+01 0.1097000D+01 0.1097000D+01 0.1097000D+01
EXPONENTS  0.1097000D+01 0.1097000D+01 0.3180000D+00 0.3180000D+00 0.3180000D+00
EXPONENTS  0.3180000D+00 0.3180000D+00 0.3180000D+00 0.1000000D+00 0.1000000D+00
EXPONENTS  0.1000000D+00 0.1000000D+00 0.1000000D+00 0.1000000D+00 0.7610000D+00
EXPONENTS  0.7610000D+00 0.7610000D+00 0.7610000D+00 0.7610000D+00 0.7610000D+00
EXPONENTS  0.7610000D+00 0.7610000D+00 0.7610000D+00 0.7610000D+00 0.2680000D+00
EXPONENTS  0.2680000D+00 0.2680000D+00 0.2680000D+00 0.2680000D+00 0.2680000D+00
EXPONENTS  0.2680000D+00 0.2680000D+00 0.2680000D+00 0.2680000D+00 0.9563600D+07
EXPONENTS  0.1432100D+07 0.3259100D+06 0.9231200D+05 0.3011600D+05 0.1087200D+05
EXPONENTS  0.4240100D+04 0.1758400D+04 0.7665900D+03 0.3484300D+03 0.1640300D+03
EXPONENTS  0.7914200D+02 0.3552400D+02 0.1730500D+02 0.8378400D+01 0.3740500D+01
EXPONENTS  0.1689000D+01 0.2552000D+00 0.9563600D+07 0.1432100D+07 0.3259100D+06
EXPONENTS  0.9231200D+05 0.3011600D+05 0.1087200D+05 0.4240100D+04 0.1758400D+04
EXPONENTS  0.7665900D+03 0.3484300D+03 0.1640300D+03 0.7914200D+02 0.3552400D+02
EXPONENTS  0.1730500D+02 0.8378400D+01 0.3740500D+01 0.1689000D+01 0.2552000D+00
EXPONENTS  0.9563600D+07 0.1432100D+07 0.3259100D+06 0.9231200D+05 0.3011600D+05
EXPONENTS  0.1087200D+05 0.4240100D+04 0.1758400D+04 0.7665900D+03 0.3484300D+03
EXPONENTS  0.1640300D+03 0.7914200D+02 0.3552400D+02 0.1730500D+02 0.8378400D+01
EXPONENTS  0.3740500D+01 0.1689000D+01 0.2552000D+00 0.9563600D+07 0.1432100D+07
EXPONENTS  0.3259100D+06 0.9231200D+05 0.3011600D+05 0.1087200D+05 0.4240100D+04
EXPONENTS  0.1758400D+04 0.7665900D+03 0.3484300D+03 0.1640300D+03 0.7914200D+02
EXPONENTS  0.3552400D+02 0.1730500D+02 0.8378400D+01 0.3740500D+01 0.1689000D+01
EXPONENTS  0.2552000D+00 0.5092700D+00 0.1065100D+00 0.3920100D-01 0.8004300D+04
EXPONENTS  0.1896900D+04 0.6147100D+03 0.2335000D+03 0.9785600D+02 0.4351400D+02
EXPONENTS  0.2006300D+02 0.9112700D+01 0.4106300D+01 0.1794900D+01 0.2461500D+00
EXPONENTS  0.8004300D+04 0.1896900D+04 0.6147100D+03 0.2335000D+03 0.9785600D+02
EXPONENTS  0.4351400D+02 0.2006300D+02 0.9112700D+01 0.4106300D+01 0.1794900D+01
EXPONENTS  0.2461500D+00 0.8004300D+04 0.1896900D+04 0.6147100D+03 0.2335000D+03
EXPONENTS  0.9785600D+02 0.4351400D+02 0.2006300D+02 0.9112700D+01 0.4106300D+01
EXPONENTS  0.1794900D+01 0.2461500D+00 0.8004300D+04 0.1896900D+04 0.6147100D+03
EXPONENTS  0.2335000D+03 0.9785600D+02 0.4351400D+02 0.2006300D+02 0.9112700D+01
EXPONENTS  0.4106300D+01 0.1794900D+01 0.2461500D+00 0.8004300D+04 0.1896900D+04
EXPONENTS  0.6147100D+03 0.2335000D+03 0.9785600D+02 0.4351400D+02 0.2006300D+02
EXPONENTS  0.9112700D+01 0.4106300D+01 0.1794900D+01 0.2461500D+00 0.8004300D+04
EXPONENTS  0.1896900D+04 0.6147100D+03 0.2335000D+03 0.9785600D+02 0.4351400D+02
EXPONENTS  0.2006300D+02 0.9112700D+01 0.4106300D+01 0.1794900D+01 0.2461500D+00
EXPONENTS  0.8004300D+04 0.1896900D+04 0.6147100D+03 0.2335000D+03 0.9785600D+02
EXPONENTS  0.4351400D+02 0.2006300D+02 0.9112700D+01 0.4106300D+01 0.1794900D+01
EXPONENTS  0.2461500D+00 0.8004300D+04 0.1896900D+04 0.6147100D+03 0.2335000D+03
EXPONENTS  0.9785600D+02 0.4351400D+02 0.2006300D+02 0.9112700D+01 0.4106300D+01
EXPONENTS  0.1794900D+01 0.2461500D+00 0.8004300D+04 0.1896900D+04 0.6147100D+03
EXPONENTS  0.2335000D+03 0.9785600D+02 0.4351400D+02 0.2006300D+02 0.9112700D+01
EXPONENTS  0.4106300D+01 0.1794900D+01 0.2461500D+00 0.6243200D+00 0.6243200D+00
EXPONENTS  0.6243200D+00 0.8891700D-01 0.8891700D-01 0.8891700D-01 0.3025100D-01
EXPONENTS  0.3025100D-01 0.3025100D-01 0.3618500D+03 0.1085500D+03 0.4143300D+02
EXPONENTS  0.1757900D+02 0.7862700D+01 0.3518000D+01 0.1534800D+01 0.3618500D+03
EXPONENTS  0.1085500D+03 0.4143300D+02 0.1757900D+02 0.7862700D+01 0.3518000D+01
EXPONENTS  0.1534800D+01 0.3618500D+03 0.1085500D+03 0.4143300D+02 0.1757900D+02
EXPONENTS  0.7862700D+01 0.3518000D+01 0.1534800D+01 0.3618500D+03 0.1085500D+03
EXPONENTS  0.4143300D+02 0.1757900D+02 0.7862700D+01 0.3518000D+01 0.1534800D+01
EXPONENTS  0.3618500D+03 0.1085500D+03 0.4143300D+02 0.1757900D+02 0.7862700D+01
EXPONENTS  0.3518000D+01 0.1534800D+01 0.3618500D+03 0.1085500D+03 0.4143300D+02
EXPONENTS  0.1757900D+02 0.7862700D+01 0.3518000D+01 0.1534800D+01 0.6081300D+00
EXPONENTS  0.6081300D+00 0.6081300D+00 0.6081300D+00 0.6081300D+00 0.6081300D+00
EXPONENTS  0.2220000D+00 0.2220000D+00 0.2220000D+00 0.2220000D+00 0.2220000D+00
EXPONENTS  0.2220000D+00 0.8370000D-01 0.8370000D-01 0.8370000D-01 0.8370000D-01
EXPONENTS  0.8370000D-01 0.8370000D-01 0.4620000D+00 0.4620000D+00 0.4620000D+00
EXPONENTS  0.4620000D+00 0.4620000D+00 0.4620000D+00 0.4620000D+00 0.4620000D+00
EXPONENTS  0.4620000D+00 0.4620000D+00 0.1880000D+00 0.1880000D+00 0.1880000D+00
EXPONENTS  0.1880000D+00 0.1880000D+00 0.1880000D+00 0.1880000D+00 0.1880000D+00
EXPONENTS  0.1880000D+00 0.1880000D+00
MO    1     MO 0.0        OCC NO =    2.0000000  ORB. ENERGY = -454.287883
  0.33317608D-07  0.60089679D-07  0.88602196D-07 -0.96756323D-05 -0.94057267D-05
  0.31697142D-06 -0.48249633D-15 -0.22932391D-05  0.70118125D-06 -0.17653278D-17
  0.57840949D-05  0.38301507D-06 -0.14616476D-18  0.33528443D-05  0.49994986D-06
 -0.45062873D-06 -0.80378275D-06  0.12544115D-05  0.44337158D-18 -0.18294929D-18
  0.94522230D-06  0.56046066D-06  0.39286282D-07 -0.59974694D-06  0.24737501D-18
 -0.13058765D-18 -0.17754056D-05  0.33317608D-07  0.60089679D-07  0.88602196D-07
 -0.96756323D-05 -0.94057267D-05  0.31697142D-06 -0.40593241D-18  0.22932391D-05
  0.70118125D-06  0.76609457D-18 -0.57840949D-05  0.38301507D-06  0.10063419D-18
 -0.33528443D-05  0.49994986D-06 -0.45062873D-06 -0.80378275D-06  0.12544115D-05
  0.46939204D-18  0.31253713D-18 -0.94522230D-06  0.56046066D-06  0.39286282D-07
 -0.59974694D-06  0.19137775D-18  0.11407159D-19  0.17754056D-05 -0.33872165D-06
 -0.63145417D-06 -0.10672688D-05 -0.16044546D-05 -0.19712578D-05 -0.16650424D-05
 -0.62799272D-06  0.31079710D-08  0.56144347D-06  0.10511993D-05  0.17897568D-05
  0.27684816D-05  0.36459929D-05  0.37884202D-05  0.24073710D-05 -0.16133640D-05
 -0.12845190D-04  0.34939398D-04  0.44218729D-05  0.98525051D-19  0.92373498D-19
  0.65775433D-19 -0.85091864D-16 -0.79779031D-16 -0.56807423D-16 -0.18213558D-04
 -0.17076368D-04 -0.12159392D-04  0.17073349D-19  0.61307311D-15  0.16904646D-04
  0.14448933D-18  0.28137830D-15  0.54552027D-05  0.74556101D-21 -0.72823986D-17
  0.76332179D-06  0.62886363D-05 -0.15110412D-05 -0.47775951D-05 -0.74230509D-18
  0.41177580D-18 -0.15435635D-15 -0.10865620D-04 -0.42493970D-05  0.15115017D-04
  0.87119428D-18 -0.19870500D-18 -0.32404385D-15 -0.95545843D-06 -0.19628513D-05
  0.29183097D-05  0.72120203D-19  0.30601409D-20 -0.10315070D-15  0.11354433D-18
  0.89345667D-16  0.29496774D-05 -0.33949701D-18 -0.43059268D-15 -0.33921218D-05
 -0.11359753D-20  0.16255568D-15 -0.54569104D-05  0.46117215D-18 -0.16427696D-19
 -0.14041803D-17  0.16738436D-05  0.93807713D-19  0.15026878D-16 -0.15727478D-05
 -0.44524624D-19 -0.10814337D-16 -0.34487828D-05 -0.50553763D-18  0.77216026D+00
  0.14427454D+01  0.25022613D+01  0.40993432D+01  0.64192459D+01  0.96399955D+01
  0.13749394D+02  0.18165735D+02  0.20949557D+02  0.18855274D+02  0.10578277D+02
  0.25573551D+01  0.12141054D+00 -0.20776993D-02  0.58436729D-03 -0.22772700D-03
  0.21540375D-04  0.21239263D-05  0.72983793D-04  0.13440079D-03  0.23328601D-03
  0.38207878D-03  0.60137442D-03  0.90769505D-03  0.13231550D-02  0.18169698D-02
  0.23075285D-02  0.24850618D-02  0.19825356D-02  0.44407216D-03 -0.11874390D-02
 -0.10559591D-02 -0.20623309D-03 -0.57130810D-05 -0.41372190D-06 -0.84493331D-08
 -0.52358125D-04 -0.94527747D-04 -0.16455481D-03 -0.26946544D-03 -0.42482762D-03
 -0.64105319D-03 -0.93822904D-03 -0.12927563D-02 -0.16654165D-02 -0.18330999D-02
 -0.15431729D-02 -0.36748468D-03  0.12378297D-02  0.16540000D-02  0.20319728D-03
 -0.70999889D-03 -0.31341832D-03  0.15554388D-05  0.17626394D-04  0.38187387D-04
  0.65009023D-04  0.10611769D-03  0.16729910D-03  0.25246374D-03  0.36950210D-03
  0.50970499D-03  0.65746616D-03  0.72683936D-03  0.61557905D-03  0.14952824D-03
 -0.51877490D-03 -0.73219127D-03 -0.87360503D-04  0.41057427D-03  0.32819473D-03
 -0.12433569D-03  0.11755514D-03  0.93303395D-05 -0.25031347D-05 -0.42347316D-16
 -0.60693525D-16 -0.80148128D-16 -0.92126232D-16 -0.84750375D-16 -0.54217137D-16
 -0.18766654D-16 -0.21098206D-17 -0.26842061D-19 -0.46512654D-20 -0.47530870D-22
 -0.52812888D-14 -0.75693117D-14 -0.99955665D-14 -0.11489400D-13 -0.10569530D-13
 -0.67616176D-14 -0.23404581D-14 -0.26312346D-15 -0.33475717D-17 -0.58007633D-18
 -0.59277488D-20  0.19991934D-03  0.28653078D-03  0.37837489D-03  0.43492286D-03
  0.40010184D-03  0.25595611D-03  0.88596337D-04  0.99603468D-05  0.12671989D-06
  0.21958367D-07  0.22439062D-09 -0.14423475D-16 -0.20804727D-16 -0.27709204D-16
 -0.32792824D-16 -0.31512672D-16 -0.21660359D-16 -0.68196505D-17  0.32958755D-17
  0.33823661D-17  0.85180530D-18 -0.92870804D-21 -0.19387432D-14 -0.27964844D-14
 -0.37245554D-14 -0.44078743D-14 -0.42358016D-14 -0.29114949D-14 -0.91666890D-15
  0.44301781D-15  0.45464351D-15  0.11449611D-15 -0.12483305D-18 -0.16916506D-02
 -0.24400727D-02 -0.32498611D-02 -0.38460911D-02 -0.36959491D-02 -0.25404251D-02
 -0.79983953D-03  0.38655523D-03  0.39669923D-03  0.99903588D-04 -0.10892309D-06
  0.46435270D-17  0.67316607D-17  0.89345959D-17  0.10662585D-16  0.10244213D-16
  0.71704033D-17  0.21650396D-17 -0.13253272D-17 -0.14253657D-17 -0.38332747D-18
  0.14289198D-18  0.12271542D-14  0.17789895D-14  0.23611636D-14  0.28178229D-14
  0.27072588D-14  0.18949369D-14  0.57215935D-15 -0.35024688D-15 -0.37668426D-15
 -0.10130272D-15  0.37762349D-16  0.12552932D-02  0.18197823D-02  0.24153058D-02
  0.28824364D-02  0.27693371D-02  0.19383884D-02  0.58527915D-03 -0.35827815D-03
 -0.38532175D-03 -0.10362562D-03  0.38628252D-04 -0.31953082D-18 -0.41624742D-16
 -0.12882616D-04 -0.40157498D-19  0.83845702D-16 -0.60506804D-05 -0.10475949D-20
  0.15605433D-17 -0.26663014D-08 -0.13360587D-03 -0.13829484D-03 -0.11570676D-03
 -0.74663719D-04 -0.33539963D-04 -0.97931264D-05 -0.16521605D-05 -0.14024659D-03
 -0.14516862D-03 -0.12145783D-03 -0.78374790D-04 -0.35207027D-04 -0.10279882D-04
 -0.17342791D-05  0.27385246D-03  0.28346346D-03  0.23716459D-03  0.15303851D-03
  0.68746990D-04  0.20073009D-04  0.33864396D-05 -0.26122109D-17 -0.27038879D-17
 -0.22622544D-17 -0.14597965D-17 -0.65576055D-18 -0.19147147D-18 -0.32302410D-19
  0.57860282D-18  0.59890921D-18  0.50108772D-18  0.32334387D-18  0.14525049D-18
  0.42410791D-19  0.71549604D-20  0.22307223D-14  0.23090108D-14  0.19318737D-14
  0.12466071D-14  0.55999296D-15  0.16350888D-15  0.27584950D-16  0.81778804D-05
  0.66991170D-05 -0.14876997D-04  0.86605849D-20 -0.21462773D-19  0.46151514D-17
  0.13636830D-05  0.22230473D-05 -0.35867304D-05  0.26841033D-19 -0.51436786D-19
 -0.38984932D-16 -0.72959708D-06 -0.57089321D-06  0.13004903D-05 -0.47491372D-20
  0.13326966D-19 -0.17824868D-16 -0.19870553D-19 -0.65856809D-17  0.58129434D-05
 -0.14043418D-19 -0.41827156D-17 -0.96446098D-05  0.73655076D-19  0.23939758D-16
 -0.77942202D-05 -0.22586616D-19 -0.14752621D-20 -0.78561199D-18 -0.72954408D-06
 -0.12649407D-20 -0.19519797D-17  0.15437117D-05  0.56907270D-20  0.43088156D-17
  0.64492058D-06 -0.10065297D-19
MO    2     MO 0.0        OCC NO =    2.0000000  ORB. ENERGY =  -58.232637
  0.35674165D-05  0.64339825D-05  0.94869035D-05  0.39780839D-03  0.34291229D-03
 -0.85889327D-05  0.53831320D-15  0.57756370D-04 -0.10742204D-04 -0.28508199D-15
 -0.19878118D-03 -0.10188131D-04  0.72419499D-16 -0.11376299D-03 -0.11137200D-04
  0.26872712D-04  0.29711263D-04 -0.56583975D-04  0.84167616D-17 -0.15779715D-18
 -0.25776668D-04 -0.12815485D-04 -0.14608056D-05  0.14276290D-04 -0.23689831D-17
  0.15121687D-17  0.51113099D-04  0.35674165D-05  0.64339825D-05  0.94869035D-05
  0.39780839D-03  0.34291229D-03 -0.85889327D-05  0.12752867D-17 -0.57756370D-04
 -0.10742204D-04 -0.26100970D-17  0.19878118D-03 -0.10188131D-04 -0.49895327D-18
  0.11376299D-03 -0.11137200D-04  0.26872712D-04  0.29711263D-04 -0.56583975D-04
 -0.73807231D-18 -0.14572493D-17  0.25776668D-04 -0.12815485D-04 -0.14608056D-05
  0.14276290D-04 -0.85974989D-18  0.12969373D-18 -0.51113099D-04  0.35013106D-04
  0.65272391D-04  0.11032184D-03  0.16584986D-03  0.20376572D-03  0.17211272D-03
  0.64914586D-04 -0.32126591D-06 -0.34819731D-04 -0.65193522D-04 -0.11099755D-03
 -0.17169633D-03 -0.22611803D-03 -0.23495112D-03 -0.14930089D-03  0.10005798D-03
  0.41606807D-03 -0.12080202D-02 -0.12641312D-03  0.26166792D-17  0.24533031D-17
  0.17468979D-17  0.20231114D-15  0.18967955D-15  0.13506314D-15  0.53252233D-03
  0.49927354D-03  0.35551250D-03 -0.32604313D-17 -0.66676219D-15 -0.43692201D-03
 -0.21309836D-17 -0.88745656D-15 -0.13668025D-03  0.15292055D-19  0.88679218D-18
 -0.22378828D-04 -0.23951394D-03  0.30145064D-04  0.20936888D-03  0.35970914D-17
 -0.37646852D-17 -0.39844639D-15  0.36725592D-03  0.11865801D-03 -0.48591393D-03
 -0.55500804D-17  0.25893658D-17  0.58174519D-15  0.31033294D-04  0.61242824D-04
 -0.92276118D-04 -0.48372516D-18 -0.23996128D-18  0.25873050D-15 -0.11974781D-17
 -0.44737888D-17 -0.90082450D-04  0.29819570D-17  0.15243470D-15  0.98269823D-04
  0.61047734D-18 -0.13901333D-15  0.17197753D-03 -0.20347689D-17  0.32841866D-18
 -0.21720932D-16 -0.66753619D-04 -0.88876329D-18  0.27742430D-16  0.53996023D-04
 -0.96492673D-19  0.37420365D-16  0.14626483D-03  0.27663747D-17  0.61668062D-03
  0.11522390D-02  0.19984142D-02  0.32739130D-02  0.51266877D-02  0.76989178D-02
  0.10980861D-01  0.14507942D-01  0.16731224D-01  0.15058638D-01  0.84482703D-02
  0.20424145D-02  0.96963718D-04 -0.16593407D-05  0.46670102D-06 -0.18187264D-06
  0.17203076D-07  0.16962595D-08 -0.24617585D+00 -0.45333665D+00 -0.78687854D+00
 -0.12887597D+01 -0.20284484D+01 -0.30616743D+01 -0.44630292D+01 -0.61286767D+01
 -0.77833414D+01 -0.83821650D+01 -0.66871337D+01 -0.14978646D+01  0.40052563D+01
  0.35617719D+01  0.69562850D+00  0.19270341D-01  0.13954925D-02  0.28499776D-04
  0.15396379D-02  0.27796736D-02  0.48388824D-02  0.79238742D-02  0.12492439D-01
  0.18850747D-01  0.27589470D-01  0.38014665D-01  0.48973074D-01  0.53903954D-01
  0.45378389D-01  0.10806218D-01 -0.36399498D-01 -0.48637360D-01 -0.59751990D-02
  0.20878157D-01  0.92163482D-02 -0.45739079D-04 -0.54182308D-03 -0.11738537D-02
 -0.19983321D-02 -0.32619840D-02 -0.51426578D-02 -0.77605596D-02 -0.11358237D-01
 -0.15667977D-01 -0.20210052D-01 -0.22342536D-01 -0.18922471D-01 -0.45963940D-02
  0.15946779D-01  0.22507050D-01  0.26854011D-02 -0.12620767D-01 -0.10088477D-01
  0.38219924D-02 -0.36751512D-02 -0.34176076D-03  0.57912252D-04 -0.30099369D-14
 -0.43139376D-14 -0.56967201D-14 -0.65480926D-14 -0.60238358D-14 -0.38536128D-14
 -0.13338849D-14 -0.14996055D-15 -0.19078638D-17 -0.33059982D-18 -0.33783704D-20
  0.11286478D-12  0.16176141D-12  0.21361215D-12  0.24553639D-12  0.22587813D-12
  0.14450043D-12  0.50017203D-13  0.56231297D-14  0.71539916D-16  0.12396631D-16
  0.12668008D-18 -0.33839062D-01 -0.48499224D-01 -0.64045086D-01 -0.73616597D-01
 -0.67722668D-01 -0.43324046D-01 -0.14996133D-01 -0.16859239D-02 -0.21449061D-04
 -0.37167517D-05 -0.37981157D-07 -0.26997350D-16 -0.38941551D-16 -0.51865107D-16
 -0.61380447D-16 -0.58984304D-16 -0.40543093D-16 -0.12764780D-16  0.61691031D-17
  0.63309931D-17  0.15943790D-17 -0.17383228D-20  0.34025939D-14  0.49079736D-14
  0.65367858D-14  0.77360456D-14  0.74340493D-14  0.51098230D-14  0.16088010D-14
 -0.77751899D-15 -0.79792269D-15 -0.20094654D-15  0.21908841D-18  0.51019121D-01
  0.73591062D-01  0.98013773D-01  0.11599570D+00  0.11146751D+00  0.76617629D-01
  0.24122659D-01 -0.11658263D-01 -0.11964200D-01 -0.30130296D-02  0.32850521D-05
  0.11696421D-16  0.16956149D-16  0.22505047D-16  0.26857620D-16  0.25803797D-16
  0.18061282D-16  0.54534438D-17 -0.33383211D-17 -0.35903048D-17 -0.96555039D-18
  0.35992569D-18 -0.14620939D-14 -0.21195786D-14 -0.28132104D-14 -0.33572975D-14
 -0.32255659D-14 -0.22577242D-14 -0.68169976D-15  0.41730195D-15  0.44880079D-15
  0.12069721D-15 -0.44991984D-16 -0.38652880D-01 -0.56034578D-01 -0.74371888D-01
 -0.88755733D-01 -0.85273189D-01 -0.59686687D-01 -0.18021865D-01  0.11032070D-01
  0.11864794D-01  0.31908312D-02 -0.11894378D-02  0.23939693D-18 -0.80030952D-17
  0.28917442D-03  0.54440085D-18 -0.21943116D-15  0.21502871D-03 -0.13808391D-19
 -0.12125432D-17  0.11465675D-05  0.74970781D-02  0.77601922D-02  0.64926986D-02
  0.41896343D-02  0.18820410D-02  0.54952551D-03  0.92708322D-04  0.28036393D-03
  0.29020346D-03  0.24280373D-03  0.15667735D-03  0.70381609D-04  0.20550291D-04
  0.34669600D-05 -0.77774420D-02 -0.80503956D-02 -0.67355023D-02 -0.43463116D-02
 -0.19524226D-02 -0.57007580D-03 -0.96175282D-04  0.14333179D-15  0.14836210D-15
  0.12412971D-15  0.80098912D-16  0.35981526D-16  0.10506023D-16  0.17724305D-17
 -0.10828410D-15 -0.11208440D-15 -0.93777342D-16 -0.60513015D-16 -0.27183274D-16
 -0.79370759D-17 -0.13390334D-17  0.48773611D-14  0.50485348D-14  0.42239437D-14
  0.27256431D-14  0.12243962D-14  0.35750386D-15  0.60313093D-16 -0.28263962D-03
 -0.20669062D-03  0.48933024D-03 -0.30090804D-18  0.14984431D-18 -0.93939900D-18
 -0.30712619D-04 -0.66695836D-04  0.97408455D-04 -0.11701624D-18 -0.24365956D-18
  0.85569519D-16  0.23910874D-04  0.19303801D-04 -0.43214674D-04  0.27214747D-19
 -0.18081719D-18  0.48868486D-16  0.30504061D-19  0.77439475D-17 -0.17716769D-03
  0.12097857D-18  0.44379011D-17  0.28878302D-03 -0.21249075D-18 -0.27669744D-16
  0.24272005D-03  0.88291179D-19 -0.19942439D-19  0.47956084D-17  0.24743413D-04
 -0.22019585D-19  0.24932085D-17 -0.52133892D-04  0.81846903D-19 -0.16880034D-16
 -0.22096345D-04  0.10345972D-18
MO    3     MO 0.0        OCC NO =    2.0000000  ORB. ENERGY =  -52.244005
 -0.13256841D-16 -0.23909259D-16 -0.35254189D-16 -0.97422118D-15 -0.14076621D-14
 -0.42184183D-16 -0.92409129D-05 -0.10910012D-15 -0.73919629D-15 -0.11633125D-04
  0.70917618D-15  0.54129013D-15  0.85338038D-06  0.21532134D-15 -0.96296963D-16
  0.24233777D-15 -0.10283761D-14  0.78603832D-15  0.21926821D-04 -0.13502583D-04
 -0.98742378D-15  0.30556940D-16 -0.19104574D-16 -0.11452366D-16  0.24825662D-05
 -0.30418449D-05 -0.86550419D-16 -0.19047491D-15 -0.34352935D-15 -0.50653382D-15
  0.14287297D-14  0.14578742D-14  0.55425965D-16 -0.92409129D-05 -0.37096488D-15
 -0.98198501D-16 -0.11633125D-04  0.71458391D-15  0.43120420D-15  0.85338038D-06
  0.22740456D-15  0.13133177D-15  0.69309313D-15 -0.64212816D-15 -0.50964974D-16
 -0.21926821D-04 -0.13502583D-04  0.82976016D-15 -0.53111270D-16  0.51967746D-16
  0.11435241D-17 -0.24825662D-05 -0.30418449D-05  0.90170685D-16 -0.88501785D-16
 -0.16498745D-15 -0.27885785D-15 -0.41921470D-15 -0.51505369D-15 -0.43504518D-15
 -0.16408304D-15  0.81205610D-18  0.86659941D-16  0.16225475D-15  0.27625260D-15
  0.42732077D-15  0.56276642D-15  0.58475036D-15  0.37158260D-15 -0.24902602D-15
 -0.53476693D-15  0.36345894D-15  0.17552927D-15  0.40658668D-04  0.38120086D-04
  0.27143772D-04 -0.32067324D-15 -0.30065154D-15 -0.21408181D-15 -0.60211033D-15
 -0.56451670D-15 -0.40196952D-15 -0.27701348D-04  0.93727393D-15  0.51941585D-15
 -0.53109830D-04  0.84564307D-15  0.29604680D-15 -0.19753826D-05  0.26965624D-17
  0.18091203D-16 -0.35226863D-15  0.42028923D-15 -0.68020597D-16  0.42235559D-17
  0.14910068D-03  0.43678085D-15 -0.19806663D-15 -0.39134059D-15  0.58940722D-15
 -0.46913646D-17 -0.12204399D-03 -0.75763926D-15 -0.82543308D-17 -0.28770959D-16
  0.37025290D-16 -0.53465592D-18 -0.13309279D-04 -0.11040547D-15 -0.24383570D-04
 -0.19063327D-15  0.15526577D-15  0.32557946D-05  0.21597792D-15 -0.21661780D-15
  0.69894915D-04  0.35592187D-15 -0.24917951D-15  0.48927843D-18  0.94783497D-05
 -0.36297839D-16  0.19989560D-16  0.11661896D-04 -0.85170698D-16  0.43600034D-16
 -0.40096945D-04  0.19406421D-15 -0.10356871D-15  0.21316172D-18 -0.16809422D-15
 -0.31407622D-15 -0.54472586D-15 -0.89240012D-15 -0.13974277D-14 -0.20985638D-14
 -0.29931528D-14 -0.39545612D-14 -0.45605812D-14 -0.41046694D-14 -0.23028216D-14
 -0.55671943D-15 -0.26430279D-16  0.45230152D-18 -0.12721293D-18  0.49574674D-19
 -0.46891982D-20 -0.46236482D-21  0.33009446D-15  0.60787409D-15  0.10551167D-14
  0.17280835D-14  0.27199239D-14  0.41053650D-14  0.59844264D-14  0.82178746D-14
  0.10436596D-13  0.11239552D-13  0.89667033D-14  0.20084700D-14 -0.53706037D-14
 -0.47759405D-14 -0.93276054D-15 -0.25839386D-16 -0.18712005D-17 -0.38215033D-19
 -0.49451113D-15 -0.89279405D-15 -0.15541844D-14 -0.25450426D-14 -0.40124046D-14
 -0.60546082D-14 -0.88613696D-14 -0.12209803D-13 -0.15729498D-13 -0.17313231D-13
 -0.14574933D-13 -0.34708130D-14  0.11691033D-13  0.15621671D-13  0.19191542D-14
 -0.67057854D-14 -0.29601680D-14  0.14690781D-16  0.20819695D-15  0.45105637D-15
  0.76786438D-15  0.12534260D-14  0.19760798D-14  0.29820154D-14  0.43644326D-14
  0.60204613D-14  0.77657657D-14  0.85851783D-14  0.72710094D-14  0.17661765D-14
 -0.61275919D-14 -0.86483932D-14 -0.10318724D-14  0.48495630D-14  0.38765240D-14
 -0.14686107D-14  0.96300574D-15 -0.27907789D-15 -0.11757353D-15  0.48622144D+02
  0.69686808D+02  0.92024104D+02  0.10577707D+03  0.97308290D+02  0.62250779D+02
  0.21547409D+02  0.24224440D+01  0.30819393D-01  0.53404682D-02  0.54573773D-04
  0.11065291D-11  0.15859128D-11  0.20942587D-11  0.24072447D-11  0.22145147D-11
  0.14166857D-11  0.49036987D-12  0.55129299D-13  0.70137906D-15  0.12153687D-15
  0.12419746D-17  0.19122468D-11  0.27406932D-11  0.36191905D-11  0.41600770D-11
  0.38270108D-11  0.24482437D-11  0.84743209D-12  0.95271631D-13  0.12120874D-14
  0.21003379D-15  0.21463168D-17 -0.55434467D-02 -0.79959851D-02 -0.10649618D-01
 -0.12603431D-01 -0.12111424D-01 -0.83248346D-02 -0.26210305D-02  0.12667204D-02
  0.12999617D-02  0.32737861D-03 -0.35693503D-06  0.12894930D-13  0.18599920D-13
  0.24772687D-13  0.29317564D-13  0.28173078D-13  0.19364876D-13  0.60969297D-14
 -0.29465911D-14 -0.30239157D-14 -0.76153419D-15  0.83028707D-18 -0.36647288D-13
 -0.52860826D-13 -0.70403780D-13 -0.83320284D-13 -0.80067664D-13 -0.55034824D-13
 -0.17327426D-13  0.83741884D-14  0.85939443D-14  0.21642741D-14 -0.23596693D-17
  0.92269486D-02  0.13376187D-01  0.17753543D-01  0.21187156D-01  0.20355827D-01
  0.14247994D-01  0.43020551D-02 -0.26334995D-02 -0.28322817D-02 -0.76169319D-03
  0.28393438D-03 -0.89957176D-14 -0.13040975D-13 -0.17308633D-13 -0.20656197D-13
 -0.19845702D-13 -0.13890933D-13 -0.41942439D-14  0.25675030D-14  0.27613036D-14
  0.74260485D-15 -0.27681887D-15  0.26298330D-13  0.38124347D-13  0.50600536D-13
  0.60386898D-13  0.58017474D-13  0.40609139D-13  0.12261569D-13 -0.75059092D-14
 -0.80724713D-14 -0.21709516D-14  0.80925994D-15 -0.12295141D-02  0.26775440D-15
 -0.23701062D-15 -0.75185045D-05  0.95094268D-16  0.21707768D-16  0.34340232D-05
  0.31404927D-17  0.35082845D-17 -0.66347721D-14 -0.68676231D-14 -0.57459153D-14
 -0.37077470D-14 -0.16655706D-14 -0.48631967D-15 -0.82045109D-16  0.60833408D-14
  0.62968390D-14  0.52683589D-14  0.33995875D-14  0.15271412D-14  0.44590051D-15
  0.75226149D-16  0.55143135D-15  0.57078414D-15  0.47755639D-15  0.30815948D-15
  0.13842945D-15  0.40419159D-16  0.68189599D-17 -0.90414476D-15 -0.93587623D-15
 -0.78301698D-15 -0.50526830D-15 -0.22697343D-15 -0.66272568D-16 -0.11180588D-16
 -0.33609526D-02 -0.34789071D-02 -0.29106876D-02 -0.18782200D-02 -0.84372211D-03
 -0.24635320D-03 -0.41561295D-04 -0.13604394D-13 -0.14081848D-13 -0.11781821D-13
 -0.76026201D-14 -0.34152009D-14 -0.99718338D-15 -0.16823095D-15  0.19127716D-15
  0.19741232D-15 -0.38868947D-15  0.35870686D-17  0.34187420D-04  0.28241448D-16
  0.35337995D-16  0.70512583D-16 -0.10585058D-15 -0.31223350D-18 -0.77335141D-04
  0.46647862D-16 -0.10313600D-16  0.81035100D-18  0.95032494D-17  0.87545279D-19
 -0.59402078D-05 -0.26588871D-16 -0.10376183D-04  0.18157464D-16  0.12409553D-15
 -0.10831688D-04  0.53222985D-16 -0.20715120D-15  0.41960238D-04 -0.10769538D-15
 -0.16513540D-15 -0.40140123D-18 -0.32668897D-05 -0.29071605D-17 -0.12121195D-16
 -0.34064112D-05 -0.97629421D-17  0.39180917D-16  0.13207080D-04  0.18484424D-16
 -0.28173309D-17  0.34132425D-19
MO    4     MO 0.0        OCC NO =    2.0000000  ORB. ENERGY =  -52.242770
  0.15716511D-04  0.28345375D-04  0.41795239D-04  0.14467663D-03  0.35214117D-03
  0.41327007D-05  0.14326910D-15 -0.61493440D-04  0.66745216D-04 -0.58518696D-16
 -0.43384970D-05  0.12976988D-04 -0.44463118D-18 -0.45803570D-05  0.94640182D-04
  0.49911153D-04  0.59659823D-05 -0.55877135D-04 -0.41478690D-17 -0.49356449D-18
 -0.45642983D-04  0.78528767D-05 -0.11659264D-04  0.38063877D-05  0.19986533D-18
 -0.83128138D-18 -0.37323349D-04  0.15716511D-04  0.28345375D-04  0.41795239D-04
  0.14467663D-03  0.35214117D-03  0.41327007D-05 -0.33877297D-17  0.61493440D-04