 Molden2AIM, Version 4.0.0 (06/02/2016)           Time: Fri Jun 29 17:30:38 2018
GAUSSIAN             16 MOL ORBITALS    435 PRIMITIVES        9 NUCLEI
  C    1    (CENTRE  1) -10.29394291  3.63162653 -0.00862471  CHARGE =  6.0
  C    2    (CENTRE  2)  -8.20134713  5.57301210 -0.06043155  CHARGE =  6.0
  H    3    (CENTRE  3)  -9.62226622  1.68286159  0.21270946  CHARGE =  1.0
  H    4    (CENTRE  4) -11.37090350  3.78703005 -1.77339647  CHARGE =  1.0
  H    5    (CENTRE  5) -11.57848803  4.09778795  1.54941669  CHARGE =  1.0
  O    6    (CENTRE  6)  -8.62964222  7.83331730 -0.21743000  CHARGE =  8.0
  N    7    (CENTRE  7)  -5.80119275  4.64931586  0.07167353  CHARGE =  7.0
  H    8    (CENTRE  8)  -5.42650541  2.78994819  0.19575673  CHARGE =  1.0
  H    9    (CENTRE  9)  -4.35450347  5.88952800  0.03032444  CHARGE =  1.0
CENTRE ASSIGNMENTS    1  1  1  1  1  1  1  1  1  1  1  1  1  1  1  1  1  1  1  1
CENTRE ASSIGNMENTS    1  1  1  1  1  1  1  1  1  1  1  1  1  1  1  1  1  1  1  1
CENTRE ASSIGNMENTS    1  1  1  1  1  1  1  1  1  1  1  1  1  1  1  1  1  1  1  1
CENTRE ASSIGNMENTS    1  1  1  1  1  1  1  1  1  1  1  1  1  1  1  2  2  2  2  2
CENTRE ASSIGNMENTS    2  2  2  2  2  2  2  2  2  2  2  2  2  2  2  2  2  2  2  2
CENTRE ASSIGNMENTS    2  2  2  2  2  2  2  2  2  2  2  2  2  2  2  2  2  2  2  2
CENTRE ASSIGNMENTS    2  2  2  2  2  2  2  2  2  2  2  2  2  2  2  2  2  2  2  2
CENTRE ASSIGNMENTS    2  2  2  2  2  2  2  2  2  2  3  3  3  3  3  3  3  3  3  3
CENTRE ASSIGNMENTS    3  3  3  3  3  3  3  3  3  3  3  3  3  3  3  3  3  4  4  4
CENTRE ASSIGNMENTS    4  4  4  4  4  4  4  4  4  4  4  4  4  4  4  4  4  4  4  4
CENTRE ASSIGNMENTS    4  4  4  4  5  5  5  5  5  5  5  5  5  5  5  5  5  5  5  5
CENTRE ASSIGNMENTS    5  5  5  5  5  5  5  5  5  5  5  6  6  6  6  6  6  6  6  6
CENTRE ASSIGNMENTS    6  6  6  6  6  6  6  6  6  6  6  6  6  6  6  6  6  6  6  6
CENTRE ASSIGNMENTS    6  6  6  6  6  6  6  6  6  6  6  6  6  6  6  6  6  6  6  6
CENTRE ASSIGNMENTS    6  6  6  6  6  6  6  6  6  6  6  6  6  6  6  6  6  6  6  6
CENTRE ASSIGNMENTS    6  6  6  6  6  6  7  7  7  7  7  7  7  7  7  7  7  7  7  7
CENTRE ASSIGNMENTS    7  7  7  7  7  7  7  7  7  7  7  7  7  7  7  7  7  7  7  7
CENTRE ASSIGNMENTS    7  7  7  7  7  7  7  7  7  7  7  7  7  7  7  7  7  7  7  7
CENTRE ASSIGNMENTS    7  7  7  7  7  7  7  7  7  7  7  7  7  7  7  7  7  7  7  7
CENTRE ASSIGNMENTS    7  8  8  8  8  8  8  8  8  8  8  8  8  8  8  8  8  8  8  8
CENTRE ASSIGNMENTS    8  8  8  8  8  8  8  8  9  9  9  9  9  9  9  9  9  9  9  9
CENTRE ASSIGNMENTS    9  9  9  9  9  9  9  9  9  9  9  9  9  9  9
TYPE ASSIGNMENTS      1  1  1  1  1  1  1  1  1  1  1  1  1  1  1  1  1  1  1  2
TYPE ASSIGNMENTS      2  2  3  3  3  4  4  4  2  3  4  2  3  4  2  3  4  5  6  7
TYPE ASSIGNMENTS      8  9 10  5  6  7  8  9 10  5  6  7  8  9 10 11 12 13 17 14
TYPE ASSIGNMENTS     15 18 19 16 20 11 12 13 17 14 15 18 19 16 20  1  1  1  1  1
TYPE ASSIGNMENTS      1  1  1  1  1  1  1  1  1  1  1  1  1  1  2  2  2  3  3  3
TYPE ASSIGNMENTS      4  4  4  2  3  4  2  3  4  2  3  4  5  6  7  8  9 10  5  6
TYPE ASSIGNMENTS      7  8  9 10  5  6  7  8  9 10 11 12 13 17 14 15 18 19 16 20
TYPE ASSIGNMENTS     11 12 13 17 14 15 18 19 16 20  1  1  1  1  1  1  2  3  4  2
TYPE ASSIGNMENTS      3  4  2  3  4  5  6  7  8  9 10  5  6  7  8  9 10  1  1  1
TYPE ASSIGNMENTS      1  1  1  2  3  4  2  3  4  2  3  4  5  6  7  8  9 10  5  6
TYPE ASSIGNMENTS      7  8  9 10  1  1  1  1  1  1  2  3  4  2  3  4  2  3  4  5
TYPE ASSIGNMENTS      6  7  8  9 10  5  6  7  8  9 10  1  1  1  1  1  1  1  1  1
TYPE ASSIGNMENTS      1  1  1  1  1  1  1  1  1  1  2  2  2  3  3  3  4  4  4  2
TYPE ASSIGNMENTS      3  4  2  3  4  2  3  4  5  6  7  8  9 10  5  6  7  8  9 10
TYPE ASSIGNMENTS      5  6  7  8  9 10 11 12 13 17 14 15 18 19 16 20 11 12 13 17
TYPE ASSIGNMENTS     14 15 18 19 16 20  1  1  1  1  1  1  1  1  1  1  1  1  1  1
TYPE ASSIGNMENTS      1  1  1  1  1  2  2  2  3  3  3  4  4  4  2  3  4  2  3  4
TYPE ASSIGNMENTS      2  3  4  5  6  7  8  9 10  5  6  7  8  9 10  5  6  7  8  9
TYPE ASSIGNMENTS     10 11 12 13 17 14 15 18 19 16 20 11 12 13 17 14 15 18 19 16
TYPE ASSIGNMENTS     20  1  1  1  1  1  1  2  3  4  2  3  4  2  3  4  5  6  7  8
TYPE ASSIGNMENTS      9 10  5  6  7  8  9 10  1  1  1  1  1  1  2  3  4  2  3  4
TYPE ASSIGNMENTS      2  3  4  5  6  7  8  9 10  5  6  7  8  9 10
EXPONENTS  0.8236000D+04 0.1235000D+04 0.2808000D+03 0.7927000D+02 0.2559000D+02
EXPONENTS  0.8997000D+01 0.3319000D+01 0.3643000D+00 0.8236000D+04 0.1235000D+04
EXPONENTS  0.2808000D+03 0.7927000D+02 0.2559000D+02 0.8997000D+01 0.3319000D+01
EXPONENTS  0.3643000D+00 0.9059000D+00 0.1285000D+00 0.4402000D-01 0.1871000D+02
EXPONENTS  0.4133000D+01 0.1200000D+01 0.1871000D+02 0.4133000D+01 0.1200000D+01
EXPONENTS  0.1871000D+02 0.4133000D+01 0.1200000D+01 0.3827000D+00 0.3827000D+00
EXPONENTS  0.3827000D+00 0.1209000D+00 0.1209000D+00 0.1209000D+00 0.3569000D-01
EXPONENTS  0.3569000D-01 0.3569000D-01 0.1097000D+01 0.1097000D+01 0.1097000D+01
EXPONENTS  0.1097000D+01 0.1097000D+01 0.1097000D+01 0.3180000D+00 0.3180000D+00
EXPONENTS  0.3180000D+00 0.3180000D+00 0.3180000D+00 0.3180000D+00 0.1000000D+00
EXPONENTS  0.1000000D+00 0.1000000D+00 0.1000000D+00 0.1000000D+00 0.1000000D+00
EXPONENTS  0.7610000D+00 0.7610000D+00 0.7610000D+00 0.7610000D+00 0.7610000D+00
EXPONENTS  0.7610000D+00 0.7610000D+00 0.7610000D+00 0.7610000D+00 0.7610000D+00
EXPONENTS  0.2680000D+00 0.2680000D+00 0.2680000D+00 0.2680000D+00 0.2680000D+00
EXPONENTS  0.2680000D+00 0.2680000D+00 0.2680000D+00 0.2680000D+00 0.2680000D+00
EXPONENTS  0.8236000D+04 0.1235000D+04 0.2808000D+03 0.7927000D+02 0.2559000D+02
EXPONENTS  0.8997000D+01 0.3319000D+01 0.3643000D+00 0.8236000D+04 0.1235000D+04
EXPONENTS  0.2808000D+03 0.7927000D+02 0.2559000D+02 0.8997000D+01 0.3319000D+01
EXPONENTS  0.3643000D+00 0.9059000D+00 0.1285000D+00 0.4402000D-01 0.1871000D+02
EXPONENTS  0.4133000D+01 0.1200000D+01 0.1871000D+02 0.4133000D+01 0.1200000D+01
EXPONENTS  0.1871000D+02 0.4133000D+01 0.1200000D+01 0.3827000D+00 0.3827000D+00
EXPONENTS  0.3827000D+00 0.1209000D+00 0.1209000D+00 0.1209000D+00 0.3569000D-01
EXPONENTS  0.3569000D-01 0.3569000D-01 0.1097000D+01 0.1097000D+01 0.1097000D+01
EXPONENTS  0.1097000D+01 0.1097000D+01 0.1097000D+01 0.3180000D+00 0.3180000D+00
EXPONENTS  0.3180000D+00 0.3180000D+00 0.3180000D+00 0.3180000D+00 0.1000000D+00
EXPONENTS  0.1000000D+00 0.1000000D+00 0.1000000D+00 0.1000000D+00 0.1000000D+00
EXPONENTS  0.7610000D+00 0.7610000D+00 0.7610000D+00 0.7610000D+00 0.7610000D+00
EXPONENTS  0.7610000D+00 0.7610000D+00 0.7610000D+00 0.7610000D+00 0.7610000D+00
EXPONENTS  0.2680000D+00 0.2680000D+00 0.2680000D+00 0.2680000D+00 0.2680000D+00
EXPONENTS  0.2680000D+00 0.2680000D+00 0.2680000D+00 0.2680000D+00 0.2680000D+00
EXPONENTS  0.3387000D+02 0.5095000D+01 0.1159000D+01 0.3258000D+00 0.1027000D+00
EXPONENTS  0.2526000D-01 0.1407000D+01 0.1407000D+01 0.1407000D+01 0.3880000D+00
EXPONENTS  0.3880000D+00 0.3880000D+00 0.1020000D+00 0.1020000D+00 0.1020000D+00
EXPONENTS  0.1057000D+01 0.1057000D+01 0.1057000D+01 0.1057000D+01 0.1057000D+01
EXPONENTS  0.1057000D+01 0.2470000D+00 0.2470000D+00 0.2470000D+00 0.2470000D+00
EXPONENTS  0.2470000D+00 0.2470000D+00 0.3387000D+02 0.5095000D+01 0.1159000D+01
EXPONENTS  0.3258000D+00 0.1027000D+00 0.2526000D-01 0.1407000D+01 0.1407000D+01
EXPONENTS  0.1407000D+01 0.3880000D+00 0.3880000D+00 0.3880000D+00 0.1020000D+00
EXPONENTS  0.1020000D+00 0.1020000D+00 0.1057000D+01 0.1057000D+01 0.1057000D+01
EXPONENTS  0.1057000D+01 0.1057000D+01 0.1057000D+01 0.2470000D+00 0.2470000D+00
EXPONENTS  0.2470000D+00 0.2470000D+00 0.2470000D+00 0.2470000D+00 0.3387000D+02
EXPONENTS  0.5095000D+01 0.1159000D+01 0.3258000D+00 0.1027000D+00 0.2526000D-01
EXPONENTS  0.1407000D+01 0.1407000D+01 0.1407000D+01 0.3880000D+00 0.3880000D+00
EXPONENTS  0.3880000D+00 0.1020000D+00 0.1020000D+00 0.1020000D+00 0.1057000D+01
EXPONENTS  0.1057000D+01 0.1057000D+01 0.1057000D+01 0.1057000D+01 0.1057000D+01
EXPONENTS  0.2470000D+00 0.2470000D+00 0.2470000D+00 0.2470000D+00 0.2470000D+00
EXPONENTS  0.2470000D+00 0.1533000D+05 0.2299000D+04 0.5224000D+03 0.1473000D+03
EXPONENTS  0.4755000D+02 0.1676000D+02 0.6207000D+01 0.6882000D+00 0.1533000D+05
EXPONENTS  0.2299000D+04 0.5224000D+03 0.1473000D+03 0.4755000D+02 0.1676000D+02
EXPONENTS  0.6207000D+01 0.6882000D+00 0.1752000D+01 0.2384000D+00 0.7376000D-01
EXPONENTS  0.3446000D+02 0.7749000D+01 0.2280000D+01 0.3446000D+02 0.7749000D+01
EXPONENTS  0.2280000D+01 0.3446000D+02 0.7749000D+01 0.2280000D+01 0.7156000D+00
EXPONENTS  0.7156000D+00 0.7156000D+00 0.2140000D+00 0.2140000D+00 0.2140000D+00
EXPONENTS  0.5974000D-01 0.5974000D-01 0.5974000D-01 0.2314000D+01 0.2314000D+01
EXPONENTS  0.2314000D+01 0.2314000D+01 0.2314000D+01 0.2314000D+01 0.6450000D+00
EXPONENTS  0.6450000D+00 0.6450000D+00 0.6450000D+00 0.6450000D+00 0.6450000D+00
EXPONENTS  0.2140000D+00 0.2140000D+00 0.2140000D+00 0.2140000D+00 0.2140000D+00
EXPONENTS  0.2140000D+00 0.1428000D+01 0.1428000D+01 0.1428000D+01 0.1428000D+01
EXPONENTS  0.1428000D+01 0.1428000D+01 0.1428000D+01 0.1428000D+01 0.1428000D+01
EXPONENTS  0.1428000D+01 0.5000000D+00 0.5000000D+00 0.5000000D+00 0.5000000D+00
EXPONENTS  0.5000000D+00 0.5000000D+00 0.5000000D+00 0.5000000D+00 0.5000000D+00
EXPONENTS  0.5000000D+00 0.1142000D+05 0.1712000D+04 0.3893000D+03 0.1100000D+03
EXPONENTS  0.3557000D+02 0.1254000D+02 0.4644000D+01 0.5118000D+00 0.1142000D+05
EXPONENTS  0.1712000D+04 0.3893000D+03 0.1100000D+03 0.3557000D+02 0.1254000D+02
EXPONENTS  0.4644000D+01 0.5118000D+00 0.1293000D+01 0.1787000D+00 0.5760000D-01
EXPONENTS  0.2663000D+02 0.5948000D+01 0.1742000D+01 0.2663000D+02 0.5948000D+01
EXPONENTS  0.1742000D+01 0.2663000D+02 0.5948000D+01 0.1742000D+01 0.5550000D+00
EXPONENTS  0.5550000D+00 0.5550000D+00 0.1725000D+00 0.1725000D+00 0.1725000D+00
EXPONENTS  0.4910000D-01 0.4910000D-01 0.4910000D-01 0.1654000D+01 0.1654000D+01
EXPONENTS  0.1654000D+01 0.1654000D+01 0.1654000D+01 0.1654000D+01 0.4690000D+00
EXPONENTS  0.4690000D+00 0.4690000D+00 0.4690000D+00 0.4690000D+00 0.4690000D+00
EXPONENTS  0.1510000D+00 0.1510000D+00 0.1510000D+00 0.1510000D+00 0.1510000D+00
EXPONENTS  0.1510000D+00 0.1093000D+01 0.1093000D+01 0.1093000D+01 0.1093000D+01
EXPONENTS  0.1093000D+01 0.1093000D+01 0.1093000D+01 0.1093000D+01 0.1093000D+01
EXPONENTS  0.1093000D+01 0.3640000D+00 0.3640000D+00 0.3640000D+00 0.3640000D+00
EXPONENTS  0.3640000D+00 0.3640000D+00 0.3640000D+00 0.3640000D+00 0.3640000D+00
EXPONENTS  0.3640000D+00 0.3387000D+02 0.5095000D+01 0.1159000D+01 0.3258000D+00
EXPONENTS  0.1027000D+00 0.2526000D-01 0.1407000D+01 0.1407000D+01 0.1407000D+01
EXPONENTS  0.3880000D+00 0.3880000D+00 0.3880000D+00 0.1020000D+00 0.1020000D+00
EXPONENTS  0.1020000D+00 0.1057000D+01 0.1057000D+01 0.1057000D+01 0.1057000D+01
EXPONENTS  0.1057000D+01 0.1057000D+01 0.2470000D+00 0.2470000D+00 0.2470000D+00
EXPONENTS  0.2470000D+00 0.2470000D+00 0.2470000D+00 0.3387000D+02 0.5095000D+01
EXPONENTS  0.1159000D+01 0.3258000D+00 0.1027000D+00 0.2526000D-01 0.1407000D+01
EXPONENTS  0.1407000D+01 0.1407000D+01 0.3880000D+00 0.3880000D+00 0.3880000D+00
EXPONENTS  0.1020000D+00 0.1020000D+00 0.1020000D+00 0.1057000D+01 0.1057000D+01
EXPONENTS  0.1057000D+01 0.1057000D+01 0.1057000D+01 0.1057000D+01 0.2470000D+00
EXPONENTS  0.2470000D+00 0.2470000D+00 0.2470000D+00 0.2470000D+00 0.2470000D+00
MO    1     MO 0.0        OCC NO =    2.0000000  ORB. ENERGY =  -19.171145
  0.24168165D-03  0.45054955D-03  0.76150811D-03  0.11447961D-02  0.14065143D-02
  0.11880262D-02  0.44807977D-03 -0.22175718D-05 -0.17733714D-03 -0.33203107D-03
 -0.56531131D-03 -0.87445064D-03 -0.11516207D-02 -0.11966077D-02 -0.76039048D-03
  0.50959602D-03  0.47179753D-03 -0.45599440D-02  0.23009476D-03 -0.17047777D-03
 -0.15983374D-03 -0.11381115D-03 -0.25511522D-03 -0.23918673D-03 -0.17031520D-03
  0.13761768D-04  0.12902533D-04  0.91873718D-05  0.79269738D-03  0.12462369D-02
 -0.63001357D-04 -0.55455987D-03 -0.53640346D-03  0.34984640D-04  0.14027844D-04
  0.27674321D-05  0.73236597D-06 -0.13337340D-04  0.21279256D-03 -0.19945522D-03
  0.23565644D-03 -0.35419969D-05 -0.37234478D-04  0.29866295D-03 -0.14933619D-03
 -0.14932677D-03  0.12611503D-02 -0.55845158D-04  0.43617588D-04  0.68807319D-04
 -0.11789129D-03  0.49083972D-04 -0.47629278D-04 -0.92071342D-06  0.33223384D-04
 -0.60060139D-05 -0.38182626D-04  0.29884677D-04 -0.10073262D-03  0.34816952D-03
 -0.37776727D-04  0.11875066D-03 -0.23362165D-03 -0.51877305D-04  0.12102939D-03
 -0.51571598D-04 -0.46528973D-04  0.30953453D-04 -0.13064434D-03  0.29955826D-03
 -0.51357146D-04  0.28535913D-03 -0.15997134D-03 -0.41503215D-04  0.12946386D-03
  0.51627251D-03  0.96244933D-03  0.16267089D-02  0.24454764D-02  0.30045503D-02
  0.25378230D-02  0.95717347D-03 -0.47371049D-05 -0.39717233D-03 -0.74363191D-03
 -0.12660970D-02 -0.19584595D-02 -0.25792222D-02 -0.26799771D-02 -0.17030051D-02
  0.11413144D-02  0.11122723D-02  0.66831097D-03 -0.41649584D-03 -0.27260991D-03
 -0.25558912D-03 -0.18199468D-03  0.75019531D-03  0.70335579D-03  0.50083123D-03
 -0.55477484D-04 -0.52013668D-04 -0.37036830D-04 -0.19742469D-03  0.29766804D-02
 -0.19865992D-03 -0.56255692D-03 -0.83075119D-03  0.20040627D-04  0.38494275D-04
  0.22944419D-04 -0.10810893D-06 -0.68928048D-03  0.11435035D-02 -0.45422304D-03
 -0.62244195D-03  0.24067541D-04 -0.22850067D-03  0.33629256D-03 -0.66608693D-03
  0.32979437D-03  0.97697458D-03 -0.59458625D-04  0.16798778D-03  0.30931215D-03
 -0.33057687D-03  0.21264720D-04  0.35499392D-03 -0.25184801D-05  0.57178921D-04
 -0.54148976D-04 -0.35563634D-03 -0.73825153D-05  0.32024420D-03  0.10725077D-02
 -0.60316894D-04 -0.15779727D-03 -0.55987143D-05  0.82464440D-04  0.77458194D-06
 -0.11389863D-03 -0.33820741D-03 -0.12344462D-04  0.40110617D-03  0.86756557D-03
 -0.57607169D-04 -0.59410285D-04  0.14705665D-03  0.94640554D-04 -0.14526358D-04
  0.70631710D-05  0.12738720D-04  0.18783235D-04  0.17135414D-02  0.16299669D-02
 -0.13275643D-05 -0.81233274D-04  0.13955829D-03 -0.16755103D-04  0.35802140D-03
  0.97619511D-03 -0.72245692D-04 -0.13086474D-03  0.24419431D-03 -0.21988616D-04
 -0.18311385D-03  0.26807483D-03 -0.84960983D-04  0.21700393D-03 -0.45934142D-04
 -0.67315839D-04 -0.16102193D-04  0.33073791D-04 -0.16971598D-04 -0.32158498D-04
 -0.10879197D-05 -0.13475497D-04 -0.15919787D-04 -0.28711991D-04 -0.42335814D-04
  0.14591016D-02 -0.67162531D-03  0.19026085D-04 -0.16557663D-04 -0.38285472D-04
  0.16730597D-03  0.54707727D-03  0.15345690D-03  0.25241910D-03 -0.87903142D-05
  0.25279228D-04 -0.54089077D-04  0.22654119D-04  0.29176421D-04 -0.51830541D-04
  0.21612548D-03  0.30724763D-03  0.11000885D-04  0.11385416D-04  0.11925250D-04
 -0.23310666D-04  0.65284632D-04  0.64138414D-04  0.20581606D-04 -0.16328140D-04
 -0.29448473D-04 -0.43421756D-04  0.14247065D-02 -0.83430201D-03  0.17792864D-04
  0.47153123D-05 -0.50539684D-04 -0.15879817D-03  0.61374578D-03  0.12804554D-03
 -0.18236915D-03 -0.30441356D-04  0.33434567D-04  0.61834651D-04  0.78317718D-04
  0.20998201D-04 -0.99315920D-04  0.18086856D-03 -0.31615435D-03 -0.44859801D-04
  0.19005845D-04  0.87729834D-05 -0.27778828D-04  0.51608325D-04 -0.73723660D-04
 -0.30404525D-04  0.49716290D+00  0.92664767D+00  0.15712874D+01  0.23782167D+01
  0.29673201D+01  0.25485322D+01  0.97843107D+00 -0.43765822D-02  0.11988611D-04
  0.22484937D-04  0.38331889D-04  0.59905281D-04  0.80104775D-04  0.85533224D-04
  0.52293336D-04 -0.34499967D-04  0.54348873D-01  0.21031450D-02  0.12200755D-02
  0.17718051D-02  0.17180549D-02  0.11589897D-02 -0.77250364D-02 -0.74906867D-02
 -0.50531730D-02  0.54703623D-03  0.53044113D-03  0.35783245D-03 -0.12736564D-03
  0.16059841D-03 -0.17765025D-04 -0.16794257D-03  0.14246199D-02 -0.94525936D-04
 -0.17177802D-04 -0.61300816D-04  0.28892767D-05 -0.10625391D-02  0.28118182D-02
 -0.17492792D-02 -0.17733780D-02  0.16175155D-03 -0.64222276D-03  0.23782701D-03
 -0.99544097D-03  0.75761396D-03  0.64451509D-03 -0.75295129D-04  0.24944162D-03
  0.67635881D-04 -0.35603769D-03  0.28840181D-03  0.12062063D-03 -0.21281129D-04
  0.85764528D-04  0.22521419D-04  0.19869444D-04 -0.74926228D-05 -0.62752280D-04
 -0.17005648D-03  0.19302975D-04 -0.48119758D-05  0.11044815D-03  0.31748937D-05
 -0.12249672D-04  0.22254738D-04  0.22337167D-03  0.43647926D-04 -0.18562340D-03
 -0.62734363D-04 -0.31775525D-05  0.11885919D-03 -0.60738065D-03 -0.12776622D-03
  0.74904088D-04  0.15437944D-03  0.28766335D-03  0.48651085D-03  0.73265838D-03
  0.90707860D-03  0.77188295D-03  0.29371570D-03 -0.13755959D-05 -0.10629825D-03
 -0.19931020D-03 -0.33908596D-03 -0.52656469D-03 -0.69878197D-03 -0.73642028D-03
 -0.45662755D-03  0.30374882D-03  0.50976633D-04  0.32179042D-03 -0.16447078D-03
  0.41881627D-03  0.40226802D-03  0.28209810D-03 -0.18488869D-03 -0.17758338D-03
 -0.12453372D-03  0.25407293D-04  0.24403401D-04  0.17113349D-04 -0.14200361D-02
  0.80806658D-03 -0.95038216D-04  0.15254051D-03 -0.28699286D-03  0.25537060D-04
  0.31323300D-04 -0.26368363D-04  0.24610251D-05 -0.10142038D-03  0.22488258D-03
 -0.12346220D-03 -0.80053135D-03  0.54863384D-04 -0.70953241D-04  0.61396175D-03
 -0.78716903D-03  0.17320729D-03  0.30748020D-04  0.30636833D-04  0.12513998D-03
  0.15668997D-03 -0.10870573D-03 -0.47984246D-04  0.23327735D-03 -0.52373107D-05
  0.14472591D-04  0.22677110D-04  0.23136923D-03  0.23725631D-04 -0.39281588D-03
 -0.48500120D-03  0.46382265D-05  0.32478455D-03 -0.20910648D-03 -0.75815119D-04
  0.73186005D-04 -0.26545721D-03 -0.59771937D-04 -0.15407033D-04  0.10237125D-02
  0.65244710D-04 -0.91619065D-05 -0.22734085D-03  0.11407110D-03  0.55383005D-04
 -0.15281130D-03 -0.19309825D-04 -0.34826065D-04 -0.51351012D-04  0.74803999D-04
  0.13159083D-02 -0.73573909D-06 -0.24561257D-03  0.40960780D-03 -0.33350591D-04
 -0.93481036D-03  0.38569884D-03 -0.48247139D-04 -0.21269797D-03  0.20375098D-03
 -0.16370494D-04  0.45039263D-05  0.25647525D-03 -0.26097917D-03 -0.71948300D-03
  0.61686555D-04 -0.82587053D-04  0.18984971D-05  0.39124843D-04 -0.41023340D-04
 -0.20573600D-03  0.13415652D-04 -0.14338324D-04 -0.64443445D-04 -0.11622641D-03
 -0.17137577D-03 -0.47423101D-03 -0.14353698D-02 -0.24885281D-04 -0.96517234D-04
 -0.11218125D-04 -0.27810050D-05 -0.27772115D-04 -0.43898625D-03  0.16308290D-04
  0.21518773D-03  0.69144133D-04  0.43009937D-07  0.20932017D-03  0.11945692D-03
 -0.32877709D-03  0.12625134D-03  0.24374535D-04 -0.47214502D-04 -0.44466202D-04
  0.75335061D-04 -0.30868859D-04  0.12679682D-03 -0.59079624D-05 -0.89828125D-05
MO    2     MO 0.0        OCC NO =    2.0000000  ORB. ENERGY =  -14.413034
  0.44863324D-04  0.83635436D-04  0.14135862D-03  0.21250831D-03  0.26109101D-03
  0.22053310D-03  0.83176971D-04 -0.41164747D-06 -0.30633874D-04 -0.57356277D-04
 -0.97653970D-04 -0.15105584D-03 -0.19893523D-03 -0.20670645D-03 -0.13135267D-03
  0.88029503D-04 -0.12031654D-03 -0.43594205D-03  0.40441345D-03 -0.17272643D-03
 -0.16194201D-03 -0.11531236D-03 -0.16852825D-04 -0.15800595D-04 -0.11250965D-04
  0.57505692D-06  0.53915242D-06  0.38390864D-06  0.11134418D-02  0.19120737D-03
  0.12632596D-04  0.19738583D-03 -0.20582341D-03  0.22542477D-04  0.16594247D-04
  0.86930386D-05  0.84030486D-06  0.46935344D-03 -0.20403422D-03 -0.26531923D-03
  0.18545702D-03  0.41651162D-04  0.15185453D-05 -0.48780764D-03  0.84075473D-03
 -0.35294710D-03  0.65621759D-03 -0.68880741D-05 -0.18664049D-03  0.20709049D-04
  0.18439712D-04 -0.39148761D-04  0.20219080D-04 -0.43935961D-05 -0.13352614D-04
 -0.11735172D-03 -0.17193865D-04  0.17244777D-04  0.19600751D-03  0.16369859D-03
 -0.46516425D-04  0.15604765D-03 -0.11211700D-03 -0.52179054D-05  0.61697558D-04
 -0.15839605D-03 -0.95752843D-04  0.37030943D-05  0.28100818D-03  0.16797784D-03
 -0.62471369D-04  0.19417997D-03  0.11928069D-03  0.51362086D-04  0.27001768D-04
  0.49256731D-03  0.91825746D-03  0.15520169D-02  0.23331897D-02  0.28665932D-02
  0.24212962D-02  0.91322384D-03 -0.45195957D-05 -0.37629406D-03 -0.70454120D-03
 -0.11995417D-02 -0.18555086D-02 -0.24436395D-02 -0.25390980D-02 -0.16134828D-02
  0.10813186D-02  0.12034454D-02 -0.19040061D-02 -0.86024849D-03  0.71625463D-03
  0.67153424D-03  0.47817239D-03 -0.30441548D-03 -0.28540886D-03 -0.20322811D-03
  0.39831794D-04  0.37344839D-04  0.26591750D-04  0.20948915D-02 -0.62747326D-03
  0.10510454D-03 -0.67689945D-03  0.14361025D-05 -0.77596705D-06  0.21417228D-04
  0.22233532D-04 -0.71826381D-06  0.66664945D-03 -0.36816102D-03 -0.29848842D-03
 -0.43980007D-03  0.90176469D-04 -0.36365784D-05 -0.44534619D-03  0.16191255D-04
  0.42915494D-03 -0.69388256D-03 -0.69752147D-05  0.33953651D-04  0.24037720D-04
 -0.45579005D-04  0.21541285D-04  0.22439599D-03 -0.17575420D-04  0.15213370D-04
 -0.30462430D-03 -0.20211332D-03  0.23067051D-04  0.55325116D-03  0.82115275D-03
 -0.10085637D-03  0.36062175D-03 -0.21481279D-03  0.31655216D-04  0.39639148D-04
 -0.40482813D-04 -0.12858631D-03  0.49236278D-05 -0.10962691D-03  0.36859972D-03
 -0.41913806D-04  0.23107535D-03  0.17159199D-04  0.27142922D-04  0.56785558D-04
 -0.38557554D-04 -0.69540137D-04 -0.10253689D-03 -0.14137316D-02  0.10186759D-03
 -0.13898047D-04  0.11760351D-03 -0.14394595D-03  0.66169888D-05  0.61495447D-03
 -0.90658774D-04  0.81894479D-04  0.11896355D-03  0.96105759D-04 -0.31699943D-05
 -0.49349802D-04  0.13783002D-03 -0.88480219D-04  0.54341051D-03 -0.58447031D-04
  0.76224662D-05  0.11329481D-04  0.23153011D-04 -0.34482491D-04  0.69934209D-04
  0.98427234D-06 -0.28298554D-05  0.84046619D-05  0.15158154D-04  0.22350689D-04
  0.79699059D-03  0.80771550D-04  0.14272052D-04 -0.67561254D-04 -0.20793593D-04
  0.94975021D-04  0.28888486D-03 -0.19135931D-03  0.34775169D-03  0.34097645D-04
  0.14648754D-04  0.55647241D-05 -0.86959250D-04 -0.37613903D-04  0.12457315D-03
 -0.13998180D-03  0.12267728D-03 -0.54262447D-04 -0.24643307D-04  0.26738345D-04
 -0.20950383D-05  0.15277857D-04  0.97290946D-04  0.17214326D-04  0.10906510D-04
  0.19670341D-04  0.29003906D-04  0.89972832D-03  0.17734096D-04  0.12142441D-04
 -0.37188004D-04 -0.44856309D-04 -0.94618603D-04  0.35054549D-03 -0.20740370D-03
 -0.33702581D-03  0.36312861D-04  0.23444852D-04 -0.42032781D-06 -0.81825217D-04
 -0.18426933D-04  0.10025215D-03 -0.16282492D-03 -0.17167934D-03  0.51677558D-04
 -0.17523838D-04  0.22201451D-04 -0.46776125D-05 -0.82307921D-05 -0.10820766D-03
 -0.33105586D-04  0.18232157D-03  0.33982394D-03  0.57622880D-03  0.87214913D-03
  0.10881875D-02  0.93460792D-03  0.35881415D-03 -0.16049977D-05 -0.12650021D-03
 -0.23725429D-03 -0.40446655D-03 -0.63210249D-03 -0.84524146D-03 -0.90252082D-03
 -0.55178353D-03  0.36403326D-03 -0.44721845D-04  0.91558002D-03  0.52395183D-03
 -0.28463410D-03 -0.27599933D-03 -0.18618752D-03  0.13879935D-03  0.13458868D-03
  0.90792731D-04 -0.17697543D-04 -0.17160664D-04 -0.11576482D-04  0.48704033D-03
 -0.54047959D-03  0.49062910D-04  0.28321098D-03 -0.37851056D-04 -0.31954115D-05
 -0.36708596D-04 -0.33252284D-04  0.43540357D-06  0.21070680D-03  0.20400221D-03
 -0.41470900D-03 -0.67209143D-03  0.77153473D-04 -0.11337798D-03 -0.17626954D-03
  0.11159982D-03  0.64669727D-04  0.60910596D-04 -0.16926826D-04  0.46423658D-05
  0.27522135D-05 -0.41706731D-04  0.38954517D-04 -0.57887002D-04  0.36010037D-05
  0.13491378D-04 -0.10282260D-03  0.22668246D-04 -0.59418861D-05  0.17185552D-03
 -0.21725441D-03 -0.42102329D-05  0.13661226D-03  0.14924967D-03  0.22035891D-04
 -0.14730950D-04  0.42213796D-04 -0.47952164D-04  0.99176735D-05 -0.13672711D-03
  0.28056025D-03 -0.13679217D-04  0.10085718D-04 -0.13670376D-03 -0.16073803D-04
  0.39153635D-04  0.41219551D+00  0.76806564D+00  0.12989916D+01  0.19562093D+01
  0.24219140D+01  0.20609395D+01  0.78422551D+00 -0.36728626D-02 -0.15064552D-02
 -0.28246175D-02 -0.48055148D-02 -0.74624572D-02 -0.99031147D-02 -0.10436523D-01
 -0.64713103D-02  0.43047181D-02  0.43264878D-01  0.33301776D-02  0.74975470D-03
 -0.64372643D-03 -0.61829154D-03 -0.43358871D-03  0.31331101D-04  0.30093148D-04
  0.21103393D-04 -0.45004668D-04 -0.43226446D-04 -0.30313368D-04  0.27691583D-02
 -0.97653974D-03  0.12197445D-03 -0.36942918D-03 -0.25973194D-03  0.86125173D-05
 -0.10474732D-03  0.19175797D-04 -0.39545217D-05  0.16955085D-02  0.32155609D-02
 -0.49110693D-02  0.11940653D-02  0.28404874D-03 -0.99701240D-03 -0.90361095D-03
  0.71025572D-03  0.19335522D-03  0.10072619D-02 -0.12415252D-03 -0.31238159D-04
 -0.13260966D-03  0.20001523D-05  0.13060951D-03  0.14940251D-03 -0.24402904D-04
  0.20331242D-04 -0.56132100D-03 -0.18325511D-02 -0.87105994D-04  0.36687567D-02
  0.48814618D-02 -0.24946132D-03 -0.19847937D-02  0.61619158D-03  0.51077931D-03
 -0.49316525D-03  0.29868408D-03  0.44728894D-03  0.63558586D-05 -0.10858497D-02
 -0.13022458D-02  0.98463333D-04  0.18979744D-03 -0.39621053D-04 -0.11753091D-03
  0.91961847D-04  0.27878361D-03  0.50279772D-03  0.74137495D-03 -0.11821112D-02
 -0.72346319D-03  0.42092357D-05  0.32846293D-03 -0.21145771D-02  0.14237196D-03
  0.10620950D-02 -0.23333453D-02  0.17113868D-03  0.28697111D-03 -0.14374206D-03
  0.15818612D-04  0.12190451D-02 -0.32755851D-02  0.20565400D-02  0.21800608D-02
 -0.18075194D-03  0.71932192D-03 -0.13378719D-04 -0.14940237D-03  0.16278109D-03
  0.23848097D-03 -0.22884854D-04  0.45055973D-04  0.27960869D-03  0.50428579D-03
  0.74356910D-03 -0.71248862D-03 -0.10193841D-02  0.48895155D-05  0.14774825D-02
  0.13838575D-02 -0.48022528D-04  0.19371539D-02  0.13598395D-02 -0.37261325D-04
  0.34745736D-03  0.70778075D-04  0.55556717D-05 -0.14571305D-02 -0.63872910D-03
  0.20958596D-02 -0.47565760D-02  0.11866154D-03  0.22346962D-03 -0.15799262D-03
 -0.80690358D-06  0.15879953D-03 -0.28171276D-03  0.14947130D-05  0.13534987D-04
MO    3     MO 0.0        OCC NO =    2.0000000  ORB. ENERGY =  -10.330859
  0.60456424D-03  0.11270452D-02  0.19049049D-02  0.28636961D-02  0.35183815D-02
  0.29718356D-02  0.11208671D-02 -0.55472337D-05 -0.10882155D-03 -0.20374828D-03
 -0.34689888D-03 -0.53659982D-03 -0.70668309D-03 -0.73428900D-03 -0.46660769D-03
  0.31270963D-03  0.28055813D-03 -0.15672368D-02  0.82827133D-03  0.23244276D-03
  0.21792986D-03  0.15517904D-03  0.28069627D-03  0.26317060D-03  0.18739314D-03
  0.29016079D-05  0.27204419D-05  0.19371167D-05  0.20709952D-02  0.11302067D-02
 -0.21450166D-04 -0.64385052D-03 -0.11322205D-02  0.69326626D-04  0.39556844D-04
  0.46730941D-04 -0.28042909D-05  0.63670555D-03  0.12776221D-04 -0.64948178D-03
  0.11439607D-02  0.36796029D-04 -0.33037933D-04 -0.80609610D-03  0.51661901D-03
  0.28947708D-03 -0.84986980D-03  0.18376125D-04 -0.13886472D-03  0.13748657D-03
 -0.20385266D-03  0.66366082D-04 -0.17132932D-03  0.33151060D-05  0.46666723D-04
  0.19183741D-03  0.20380758D-03 -0.13432338D-04 -0.10290516D-02 -0.10608697D-02
  0.46118377D-04  0.45353936D-03  0.44944693D-03 -0.58213622D-05  0.91088230D-04
 -0.18936469D-03 -0.23580739D-03 -0.63790354D-04  0.30207441D-03 -0.10250587D-03
 -0.21993549D-04  0.26601965D-03  0.80992803D-03  0.21336461D-03 -0.11370145D-03
  0.32964091D+00  0.61452561D+00  0.10386565D+01  0.15614410D+01  0.19184107D+01
  0.16204045D+01  0.61115696D+00 -0.30246499D-02 -0.29853278D-02 -0.55894756D-02
 -0.95165605D-02 -0.14720672D-01 -0.19386607D-01 -0.20143927D-01 -0.12800561D-01
  0.85786384D-02  0.35661869D-01  0.11723197D-02 -0.58678166D-03  0.95924085D-03
  0.89934927D-03  0.64039026D-03  0.40021331D-04  0.37522542D-04  0.26718285D-04
  0.30884251D-04  0.28955949D-04  0.20618361D-04  0.12747228D-02  0.50401343D-02
 -0.30271543D-03 -0.25736587D-02 -0.16682793D-02 -0.22171754D-05  0.14347250D-03
  0.87080198D-05  0.38957423D-05  0.79875930D-03  0.37408399D-02 -0.45395992D-02
 -0.25816034D-02  0.51169931D-03 -0.11224215D-02 -0.41309280D-03 -0.43972938D-04
  0.45706574D-03 -0.11065423D-02 -0.71141215D-05  0.50365633D-05  0.45588473D-03
 -0.54411063D-03  0.88225900D-04  0.75646324D-03 -0.24917004D-04  0.10617304D-03
  0.81800212D-03  0.13726825D-02  0.11278509D-03 -0.22665733D-02 -0.23612202D-02
  0.23068730D-03 -0.18743302D-03 -0.17568274D-02 -0.56904257D-03  0.25850571D-03
 -0.24805138D-03 -0.58551376D-03 -0.20320131D-04  0.42561699D-03  0.12543282D-02
 -0.13064392D-03  0.31853716D-03  0.50221304D-03  0.19160431D-03  0.44019500D-04
  0.47753603D-05  0.86125589D-05  0.12699213D-04 -0.24044192D-02  0.14155556D-02
  0.19843415D-04  0.17897932D-03  0.23854183D-03 -0.28796811D-04 -0.33832515D-03
 -0.57214137D-03  0.45498487D-04 -0.30376607D-03  0.12917846D-03 -0.10130055D-04
  0.36022409D-04 -0.17841328D-03  0.14239088D-03 -0.87383147D-03  0.51015628D-04
 -0.24424716D-04 -0.81898964D-05 -0.74571051D-04  0.82760948D-04 -0.31735714D-03
  0.11023419D-04  0.10741857D-04 -0.36061911D-04 -0.65039141D-04 -0.95900175D-04
  0.17894266D-03 -0.21920713D-02  0.30889067D-04 -0.14482633D-03  0.11469682D-03
  0.28685783D-04 -0.31193023D-03 -0.11448308D-02  0.67305837D-03 -0.18481609D-03
 -0.54513050D-04 -0.19284517D-03 -0.49419363D-03 -0.56744911D-04  0.55093855D-03
 -0.66515601D-03 -0.63503471D-04 -0.72534067D-03 -0.12648598D-03  0.69834516D-04
  0.56651460D-04 -0.21661299D-03  0.20218437D-03  0.15795558D-04 -0.33887483D-04
 -0.61117470D-04 -0.90117674D-04  0.25700348D-03 -0.24985687D-02  0.35290097D-04
 -0.11975294D-03  0.10284666D-03 -0.97488817D-04 -0.17273068D-03 -0.12232626D-02
 -0.51141782D-03 -0.23296370D-03 -0.11317364D-04  0.21024084D-03 -0.49992801D-03
  0.82267383D-04  0.41766063D-03 -0.76831057D-03 -0.70872270D-04  0.80239253D-03
 -0.11001639D-03  0.69949771D-04  0.40066622D-04 -0.26036482D-03 -0.21087932D-03
 -0.57791010D-04  0.56675346D-03  0.10563555D-02  0.17912290D-02  0.27111085D-02
  0.33826718D-02  0.29052640D-02  0.11153873D-02 -0.49891959D-05 -0.49673600D-03
 -0.93164068D-03 -0.15882431D-02 -0.24821149D-02 -0.33190605D-02 -0.35439828D-02
 -0.21667216D-02  0.14294713D-02  0.12332501D-02  0.23839976D-03  0.20461763D-02
  0.43130983D-03  0.41822545D-03  0.28213242D-03 -0.34325638D-02 -0.33284322D-02
 -0.22453407D-02  0.22586340D-03  0.21901152D-03  0.14774388D-03 -0.22774740D-03