 Molden2AIM, Version 4.0.0 (06/02/2016)           Time: Fri Jun 29 20:24:44 2018
GAUSSIAN             12 MOL ORBITALS    462 PRIMITIVES        8 NUCLEI
  C    1    (CENTRE  1)  -3.33535527  2.04906972  0.04705229  CHARGE =  6.0
  C    2    (CENTRE  2)  -0.57659701  3.02058926 -0.09365105  CHARGE =  6.0
  H    3    (CENTRE  3)  -4.41856896  2.81690135  1.66580303  CHARGE =  1.0
  H    4    (CENTRE  4)  -3.49351401 -0.02979720  0.23778046  CHARGE =  1.0
  H    5    (CENTRE  5)  -4.48721704  2.51983262 -1.63660865  CHARGE =  1.0
  Li   6    (CENTRE  6)   1.62785544  2.28296868  2.75713309  CHARGE =  3.0
  Li   7    (CENTRE  7)  -0.07477457  6.64888799 -0.43376962  CHARGE =  3.0
  Li   8    (CENTRE  8)   1.47855762  1.78081743 -2.88695161  CHARGE =  3.0
CENTRE ASSIGNMENTS    1  1  1  1  1  1  1  1  1  1  1  1  1  1  1  1  1  1  1  1
CENTRE ASSIGNMENTS    1  1  1  1  1  1  1  1  1  1  1  1  1  1  1  1  1  1  1  1
CENTRE ASSIGNMENTS    1  1  1  1  1  1  1  1  1  1  1  1  1  1  1  1  1  1  1  1
CENTRE ASSIGNMENTS    1  1  1  1  1  1  1  1  1  1  1  1  1  1  1  2  2  2  2  2
CENTRE ASSIGNMENTS    2  2  2  2  2  2  2  2  2  2  2  2  2  2  2  2  2  2  2  2
CENTRE ASSIGNMENTS    2  2  2  2  2  2  2  2  2  2  2  2  2  2  2  2  2  2  2  2
CENTRE ASSIGNMENTS    2  2  2  2  2  2  2  2  2  2  2  2  2  2  2  2  2  2  2  2
CENTRE ASSIGNMENTS    2  2  2  2  2  2  2  2  2  2  3  3  3  3  3  3  3  3  3  3
CENTRE ASSIGNMENTS    3  3  3  3  3  3  3  3  3  3  3  3  3  3  3  3  3  4  4  4
CENTRE ASSIGNMENTS    4  4  4  4  4  4  4  4  4  4  4  4  4  4  4  4  4  4  4  4
CENTRE ASSIGNMENTS    4  4  4  4  5  5  5  5  5  5  5  5  5  5  5  5  5  5  5  5
CENTRE ASSIGNMENTS    5  5  5  5  5  5  5  5  5  5  5  6  6  6  6  6  6  6  6  6
CENTRE ASSIGNMENTS    6  6  6  6  6  6  6  6  6  6  6  6  6  6  6  6  6  6  6  6
CENTRE ASSIGNMENTS    6  6  6  6  6  6  6  6  6  6  6  6  6  6  6  6  6  6  6  6
CENTRE ASSIGNMENTS    6  6  6  6  6  6  6  6  6  6  6  6  6  6  6  6  6  6  6  6
CENTRE ASSIGNMENTS    6  6  6  6  6  6  6  6  7  7  7  7  7  7  7  7  7  7  7  7
CENTRE ASSIGNMENTS    7  7  7  7  7  7  7  7  7  7  7  7  7  7  7  7  7  7  7  7
CENTRE ASSIGNMENTS    7  7  7  7  7  7  7  7  7  7  7  7  7  7  7  7  7  7  7  7
CENTRE ASSIGNMENTS    7  7  7  7  7  7  7  7  7  7  7  7  7  7  7  7  7  7  7  7
CENTRE ASSIGNMENTS    7  7  7  7  7  8  8  8  8  8  8  8  8  8  8  8  8  8  8  8
CENTRE ASSIGNMENTS    8  8  8  8  8  8  8  8  8  8  8  8  8  8  8  8  8  8  8  8
CENTRE ASSIGNMENTS    8  8  8  8  8  8  8  8  8  8  8  8  8  8  8  8  8  8  8  8
CENTRE ASSIGNMENTS    8  8  8  8  8  8  8  8  8  8  8  8  8  8  8  8  8  8  8  8
CENTRE ASSIGNMENTS    8  8
TYPE ASSIGNMENTS      1  1  1  1  1  1  1  1  1  1  1  1  1  1  1  1  1  1  1  2
TYPE ASSIGNMENTS      2  2  3  3  3  4  4  4  2  3  4  2  3  4  2  3  4  5  6  7
TYPE ASSIGNMENTS      8  9 10  5  6  7  8  9 10  5  6  7  8  9 10 11 12 13 17 14
TYPE ASSIGNMENTS     15 18 19 16 20 11 12 13 17 14 15 18 19 16 20  1  1  1  1  1
TYPE ASSIGNMENTS      1  1  1  1  1  1  1  1  1  1  1  1  1  1  2  2  2  3  3  3
TYPE ASSIGNMENTS      4  4  4  2  3  4  2  3  4  2  3  4  5  6  7  8  9 10  5  6
TYPE ASSIGNMENTS      7  8  9 10  5  6  7  8  9 10 11 12 13 17 14 15 18 19 16 20
TYPE ASSIGNMENTS     11 12 13 17 14 15 18 19 16 20  1  1  1  1  1  1  2  3  4  2
TYPE ASSIGNMENTS      3  4  2  3  4  5  6  7  8  9 10  5  6  7  8  9 10  1  1  1
TYPE ASSIGNMENTS      1  1  1  2  3  4  2  3  4  2  3  4  5  6  7  8  9 10  5  6
TYPE ASSIGNMENTS      7  8  9 10  1  1  1  1  1  1  2  3  4  2  3  4  2  3  4  5
TYPE ASSIGNMENTS      6  7  8  9 10  5  6  7  8  9 10  1  1  1  1  1  1  1  1  1
TYPE ASSIGNMENTS      1  1  1  1  1  1  1  1  1  1  1  1  2  2  2  3  3  3  4  4
TYPE ASSIGNMENTS      4  2  3  4  2  3  4  2  3  4  5  6  7  8  9 10  5  6  7  8
TYPE ASSIGNMENTS      9 10  5  6  7  8  9 10 11 12 13 17 14 15 18 19 16 20 11 12
TYPE ASSIGNMENTS     13 17 14 15 18 19 16 20  1  1  1  1  1  1  1  1  1  1  1  1
TYPE ASSIGNMENTS      1  1  1  1  1  1  1  1  1  2  2  2  3  3  3  4  4  4  2  3
TYPE ASSIGNMENTS      4  2  3  4  2  3  4  5  6  7  8  9 10  5  6  7  8  9 10  5
TYPE ASSIGNMENTS      6  7  8  9 10 11 12 13 17 14 15 18 19 16 20 11 12 13 17 14
TYPE ASSIGNMENTS     15 18 19 16 20  1  1  1  1  1  1  1  1  1  1  1  1  1  1  1
TYPE ASSIGNMENTS      1  1  1  1  1  1  2  2  2  3  3  3  4  4  4  2  3  4  2  3
TYPE ASSIGNMENTS      4  2  3  4  5  6  7  8  9 10  5  6  7  8  9 10  5  6  7  8
TYPE ASSIGNMENTS      9 10 11 12 13 17 14 15 18 19 16 20 11 12 13 17 14 15 18 19
TYPE ASSIGNMENTS     16 20
EXPONENTS  0.8236000D+04 0.1235000D+04 0.2808000D+03 0.7927000D+02 0.2559000D+02
EXPONENTS  0.8997000D+01 0.3319000D+01 0.3643000D+00 0.8236000D+04 0.1235000D+04
EXPONENTS  0.2808000D+03 0.7927000D+02 0.2559000D+02 0.8997000D+01 0.3319000D+01
EXPONENTS  0.3643000D+00 0.9059000D+00 0.1285000D+00 0.4402000D-01 0.1871000D+02
EXPONENTS  0.4133000D+01 0.1200000D+01 0.1871000D+02 0.4133000D+01 0.1200000D+01
EXPONENTS  0.1871000D+02 0.4133000D+01 0.1200000D+01 0.3827000D+00 0.3827000D+00
EXPONENTS  0.3827000D+00 0.1209000D+00 0.1209000D+00 0.1209000D+00 0.3569000D-01
EXPONENTS  0.3569000D-01 0.3569000D-01 0.1097000D+01 0.1097000D+01 0.1097000D+01
EXPONENTS  0.1097000D+01 0.1097000D+01 0.1097000D+01 0.3180000D+00 0.3180000D+00
EXPONENTS  0.3180000D+00 0.3180000D+00 0.3180000D+00 0.3180000D+00 0.1000000D+00
EXPONENTS  0.1000000D+00 0.1000000D+00 0.1000000D+00 0.1000000D+00 0.1000000D+00
EXPONENTS  0.7610000D+00 0.7610000D+00 0.7610000D+00 0.7610000D+00 0.7610000D+00
EXPONENTS  0.7610000D+00 0.7610000D+00 0.7610000D+00 0.7610000D+00 0.7610000D+00
EXPONENTS  0.2680000D+00 0.2680000D+00 0.2680000D+00 0.2680000D+00 0.2680000D+00
EXPONENTS  0.2680000D+00 0.2680000D+00 0.2680000D+00 0.2680000D+00 0.2680000D+00
EXPONENTS  0.8236000D+04 0.1235000D+04 0.2808000D+03 0.7927000D+02 0.2559000D+02
EXPONENTS  0.8997000D+01 0.3319000D+01 0.3643000D+00 0.8236000D+04 0.1235000D+04
EXPONENTS  0.2808000D+03 0.7927000D+02 0.2559000D+02 0.8997000D+01 0.3319000D+01
EXPONENTS  0.3643000D+00 0.9059000D+00 0.1285000D+00 0.4402000D-01 0.1871000D+02
EXPONENTS  0.4133000D+01 0.1200000D+01 0.1871000D+02 0.4133000D+01 0.1200000D+01
EXPONENTS  0.1871000D+02 0.4133000D+01 0.1200000D+01 0.3827000D+00 0.3827000D+00
EXPONENTS  0.3827000D+00 0.1209000D+00 0.1209000D+00 0.1209000D+00 0.3569000D-01
EXPONENTS  0.3569000D-01 0.3569000D-01 0.1097000D+01 0.1097000D+01 0.1097000D+01
EXPONENTS  0.1097000D+01 0.1097000D+01 0.1097000D+01 0.3180000D+00 0.3180000D+00
EXPONENTS  0.3180000D+00 0.3180000D+00 0.3180000D+00 0.3180000D+00 0.1000000D+00
EXPONENTS  0.1000000D+00 0.1000000D+00 0.1000000D+00 0.1000000D+00 0.1000000D+00
EXPONENTS  0.7610000D+00 0.7610000D+00 0.7610000D+00 0.7610000D+00 0.7610000D+00
EXPONENTS  0.7610000D+00 0.7610000D+00 0.7610000D+00 0.7610000D+00 0.7610000D+00
EXPONENTS  0.2680000D+00 0.2680000D+00 0.2680000D+00 0.2680000D+00 0.2680000D+00
EXPONENTS  0.2680000D+00 0.2680000D+00 0.2680000D+00 0.2680000D+00 0.2680000D+00
EXPONENTS  0.3387000D+02 0.5095000D+01 0.1159000D+01 0.3258000D+00 0.1027000D+00
EXPONENTS  0.2526000D-01 0.1407000D+01 0.1407000D+01 0.1407000D+01 0.3880000D+00
EXPONENTS  0.3880000D+00 0.3880000D+00 0.1020000D+00 0.1020000D+00 0.1020000D+00
EXPONENTS  0.1057000D+01 0.1057000D+01 0.1057000D+01 0.1057000D+01 0.1057000D+01
EXPONENTS  0.1057000D+01 0.2470000D+00 0.2470000D+00 0.2470000D+00 0.2470000D+00
EXPONENTS  0.2470000D+00 0.2470000D+00 0.3387000D+02 0.5095000D+01 0.1159000D+01
EXPONENTS  0.3258000D+00 0.1027000D+00 0.2526000D-01 0.1407000D+01 0.1407000D+01
EXPONENTS  0.1407000D+01 0.3880000D+00 0.3880000D+00 0.3880000D+00 0.1020000D+00
EXPONENTS  0.1020000D+00 0.1020000D+00 0.1057000D+01 0.1057000D+01 0.1057000D+01
EXPONENTS  0.1057000D+01 0.1057000D+01 0.1057000D+01 0.2470000D+00 0.2470000D+00
EXPONENTS  0.2470000D+00 0.2470000D+00 0.2470000D+00 0.2470000D+00 0.3387000D+02
EXPONENTS  0.5095000D+01 0.1159000D+01 0.3258000D+00 0.1027000D+00 0.2526000D-01
EXPONENTS  0.1407000D+01 0.1407000D+01 0.1407000D+01 0.3880000D+00 0.3880000D+00
EXPONENTS  0.3880000D+00 0.1020000D+00 0.1020000D+00 0.1020000D+00 0.1057000D+01
EXPONENTS  0.1057000D+01 0.1057000D+01 0.1057000D+01 0.1057000D+01 0.1057000D+01
EXPONENTS  0.2470000D+00 0.2470000D+00 0.2470000D+00 0.2470000D+00 0.2470000D+00
EXPONENTS  0.2470000D+00 0.5988000D+04 0.8989000D+03 0.2059000D+03 0.5924000D+02
EXPONENTS  0.1987000D+02 0.7406000D+01 0.2930000D+01 0.1189000D+01 0.4798000D+00
EXPONENTS  0.5988000D+04 0.8989000D+03 0.2059000D+03 0.5924000D+02 0.1987000D+02
EXPONENTS  0.7406000D+01 0.2930000D+01 0.1189000D+01 0.4798000D+00 0.7509000D-01
EXPONENTS  0.2832000D-01 0.7600000D-02 0.3266000D+01 0.6511000D+00 0.1696000D+00
EXPONENTS  0.3266000D+01 0.6511000D+00 0.1696000D+00 0.3266000D+01 0.6511000D+00
EXPONENTS  0.1696000D+00 0.5578000D-01 0.5578000D-01 0.5578000D-01 0.2050000D-01
EXPONENTS  0.2050000D-01 0.2050000D-01 0.9100000D-02 0.9100000D-02 0.9100000D-02
EXPONENTS  0.1874000D+00 0.1874000D+00 0.1874000D+00 0.1874000D+00 0.1874000D+00
EXPONENTS  0.1874000D+00 0.8010000D-01 0.8010000D-01 0.8010000D-01 0.8010000D-01
EXPONENTS  0.8010000D-01 0.8010000D-01 0.3710000D-01 0.3710000D-01 0.3710000D-01
EXPONENTS  0.3710000D-01 0.3710000D-01 0.3710000D-01 0.1829000D+00 0.1829000D+00
EXPONENTS  0.1829000D+00 0.1829000D+00 0.1829000D+00 0.1829000D+00 0.1829000D+00
EXPONENTS  0.1829000D+00 0.1829000D+00 0.1829000D+00 0.8160000D-01 0.8160000D-01
EXPONENTS  0.8160000D-01 0.8160000D-01 0.8160000D-01 0.8160000D-01 0.8160000D-01
EXPONENTS  0.8160000D-01 0.8160000D-01 0.8160000D-01 0.5988000D+04 0.8989000D+03
EXPONENTS  0.2059000D+03 0.5924000D+02 0.1987000D+02 0.7406000D+01 0.2930000D+01
EXPONENTS  0.1189000D+01 0.4798000D+00 0.5988000D+04 0.8989000D+03 0.2059000D+03
EXPONENTS  0.5924000D+02 0.1987000D+02 0.7406000D+01 0.2930000D+01 0.1189000D+01
EXPONENTS  0.4798000D+00 0.7509000D-01 0.2832000D-01 0.7600000D-02 0.3266000D+01
EXPONENTS  0.6511000D+00 0.1696000D+00 0.3266000D+01 0.6511000D+00 0.1696000D+00
EXPONENTS  0.3266000D+01 0.6511000D+00 0.1696000D+00 0.5578000D-01 0.5578000D-01
EXPONENTS  0.5578000D-01 0.2050000D-01 0.2050000D-01 0.2050000D-01 0.9100000D-02
EXPONENTS  0.9100000D-02 0.9100000D-02 0.1874000D+00 0.1874000D+00 0.1874000D+00
EXPONENTS  0.1874000D+00 0.1874000D+00 0.1874000D+00 0.8010000D-01 0.8010000D-01
EXPONENTS  0.8010000D-01 0.8010000D-01 0.8010000D-01 0.8010000D-01 0.3710000D-01
EXPONENTS  0.3710000D-01 0.3710000D-01 0.3710000D-01 0.3710000D-01 0.3710000D-01
EXPONENTS  0.1829000D+00 0.1829000D+00 0.1829000D+00 0.1829000D+00 0.1829000D+00
EXPONENTS  0.1829000D+00 0.1829000D+00 0.1829000D+00 0.1829000D+00 0.1829000D+00
EXPONENTS  0.8160000D-01 0.8160000D-01 0.8160000D-01 0.8160000D-01 0.8160000D-01
EXPONENTS  0.8160000D-01 0.8160000D-01 0.8160000D-01 0.8160000D-01 0.8160000D-01
EXPONENTS  0.5988000D+04 0.8989000D+03 0.2059000D+03 0.5924000D+02 0.1987000D+02
EXPONENTS  0.7406000D+01 0.2930000D+01 0.1189000D+01 0.4798000D+00 0.5988000D+04
EXPONENTS  0.8989000D+03 0.2059000D+03 0.5924000D+02 0.1987000D+02 0.7406000D+01
EXPONENTS  0.2930000D+01 0.1189000D+01 0.4798000D+00 0.7509000D-01 0.2832000D-01
EXPONENTS  0.7600000D-02 0.3266000D+01 0.6511000D+00 0.1696000D+00 0.3266000D+01
EXPONENTS  0.6511000D+00 0.1696000D+00 0.3266000D+01 0.6511000D+00 0.1696000D+00
EXPONENTS  0.5578000D-01 0.5578000D-01 0.5578000D-01 0.2050000D-01 0.2050000D-01
EXPONENTS  0.2050000D-01 0.9100000D-02 0.9100000D-02 0.9100000D-02 0.1874000D+00
EXPONENTS  0.1874000D+00 0.1874000D+00 0.1874000D+00 0.1874000D+00 0.1874000D+00
EXPONENTS  0.8010000D-01 0.8010000D-01 0.8010000D-01 0.8010000D-01 0.8010000D-01
EXPONENTS  0.8010000D-01 0.3710000D-01 0.3710000D-01 0.3710000D-01 0.3710000D-01
EXPONENTS  0.3710000D-01 0.3710000D-01 0.1829000D+00 0.1829000D+00 0.1829000D+00
EXPONENTS  0.1829000D+00 0.1829000D+00 0.1829000D+00 0.1829000D+00 0.1829000D+00
EXPONENTS  0.1829000D+00 0.1829000D+00 0.8160000D-01 0.8160000D-01 0.8160000D-01
EXPONENTS  0.8160000D-01 0.8160000D-01 0.8160000D-01 0.8160000D-01 0.8160000D-01
EXPONENTS  0.8160000D-01 0.8160000D-01
MO    1     MO 0.0        OCC NO =    2.0000000  ORB. ENERGY =  -10.159851
  0.32929914D+00  0.61388847D+00  0.10375797D+01  0.15598221D+01  0.19164217D+01
  0.16187245D+01  0.61052331D+00 -0.30215139D-02 -0.26942347D-02 -0.50444575D-02
 -0.85886205D-02 -0.13285290D-01 -0.17496260D-01 -0.18179734D-01 -0.11552405D-01
  0.77421533D-02  0.33857686D-01 -0.42185433D-02  0.15013570D-03  0.13954250D-03
  0.13082996D-03  0.93158728D-04  0.48261671D-04  0.45248385D-04  0.32219545D-04
 -0.84655585D-05 -0.79369992D-05 -0.56516163D-05 -0.29898108D-02 -0.10529553D-02
  0.15236983D-03 -0.12622715D-02 -0.45408035D-03  0.49657794D-04 -0.76957807D-04
 -0.27746941D-04  0.29189086D-05 -0.65870993D-03  0.26665012D-03  0.39205982D-03
 -0.73738024D-03  0.11538616D-03  0.39494851D-04 -0.79063381D-03  0.32018193D-03
  0.47045188D-03 -0.88972669D-03  0.13624643D-03  0.39873504D-04 -0.30441239D-04
  0.12510608D-04  0.17930631D-04 -0.36026951D-04  0.44210524D-05 -0.18718396D-05
  0.70184617D-03 -0.12578670D-02 -0.17439081D-03  0.32260973D-03  0.13314939D-02
 -0.26543234D-03 -0.24281483D-02  0.24421072D-02  0.78860476D-03 -0.44414200D-03
 -0.23050035D-03  0.25792648D-03  0.10976949D-04  0.76374175D-04 -0.51883239D-03
  0.86624319D-04  0.61512687D-03 -0.25494705D-03 -0.11955517D-03  0.10629011D-03
  0.13419378D-02  0.25016771D-02  0.42282750D-02  0.63564823D-02  0.78096729D-02
  0.65965173D-02  0.24879636D-02 -0.12313071D-04 -0.23526383D-03 -0.44048812D-03
 -0.74996871D-03 -0.11600876D-02 -0.15277945D-02 -0.15874764D-02 -0.10087700D-02
  0.67605417D-03  0.34459800D-03  0.57932262D-02 -0.18535520D-02 -0.23032500D-03
 -0.21594433D-03 -0.15376523D-03 -0.82327026D-04 -0.77186820D-04 -0.54961614D-04
  0.98934857D-05  0.92757717D-05  0.66049021D-05 -0.15095462D-02 -0.53050886D-03
  0.78668348D-04 -0.18035668D-02 -0.63749294D-03  0.88513952D-04  0.18792229D-03
  0.67309854D-04 -0.78560461D-05  0.24487978D-03 -0.98904107D-04 -0.14597568D-03
  0.27444195D-03 -0.42297688D-04 -0.15256580D-04  0.18141271D-03 -0.72564905D-04
 -0.10884781D-03  0.20702276D-03 -0.26123765D-04 -0.94674996D-05  0.17213899D-03
 -0.69991344D-04 -0.10214765D-03  0.19366611D-03 -0.30611968D-04 -0.74305108D-05
  0.18536861D-03 -0.56581923D-04  0.36816161D-04 -0.23941447D-03  0.49698599D-03
 -0.70919604D-04 -0.31669135D-03 -0.32724022D-03 -0.39528880D-04 -0.43578853D-04
  0.15261416D-04 -0.28344114D-04 -0.48032550D-05  0.95312901D-05  0.28197770D-04
 -0.27157331D-05 -0.55315537D-04  0.56834571D-04  0.17125498D-04 -0.14008975D-04
  0.36683326D-04  0.66159889D-04  0.97552718D-04 -0.17608741D-03 -0.17233834D-03
 -0.66446549D-04 -0.83274615D-03  0.62151482D-03  0.12865359D-02 -0.13443369D-02
  0.68131325D-03  0.16397209D-02 -0.13144635D-03  0.15354759D-03  0.27892038D-03
  0.68511196D-04  0.84979253D-03 -0.91830373D-03  0.14343864D-02  0.32610261D-02
 -0.19974445D-02 -0.23637037D-04  0.14516168D-03 -0.12152464D-03  0.16600993D-03
  0.49804713D-03 -0.32681395D-03  0.37693819D-04  0.67982354D-04  0.10023994D-03
 -0.19741882D-03 -0.20379755D-03 -0.68495252D-04 -0.97348094D-04 -0.16479510D-02
  0.14918156D-03 -0.41714846D-03 -0.21863501D-02  0.20685591D-03  0.27947428D-04
 -0.34602385D-03  0.26967253D-04  0.12024336D-02 -0.24771603D-02  0.12747267D-02
 -0.97825918D-03  0.91856517D-04  0.70304233D-03  0.14013306D-03 -0.36768899D-03
  0.22755593D-03 -0.17004877D-03  0.18018500D-04  0.11102618D-03  0.37754351D-04
  0.68091528D-04  0.10040092D-03 -0.19898017D-03 -0.20533300D-03 -0.68634254D-04
 -0.88951896D-03  0.38422236D-03 -0.13451045D-02 -0.14196572D-02  0.38524179D-03
 -0.16838016D-02 -0.14602903D-03  0.10006664D-03 -0.30004552D-03 -0.74666358D-04
  0.11431803D-02 -0.10685140D-02  0.88718528D-03 -0.35597585D-02  0.12284492D-02
 -0.44222103D-04  0.19318777D-03 -0.14896567D-03  0.84567840D-04 -0.52917506D-03
  0.21126729D-03 -0.58471726D-04 -0.10867767D-03 -0.18507621D-03 -0.28863082D-03
 -0.40323368D-03 -0.48066196D-03 -0.45566596D-03 -0.28939395D-03 -0.71066641D-04
  0.44693058D-04  0.82635916D-04  0.13935275D-03  0.22204601D-03  0.30951542D-03
  0.39437299D-03  0.39165309D-03  0.35328033D-03  0.20221105D-03  0.71730793D-03
  0.11503313D-03  0.11717960D-05 -0.26242324D-04 -0.19256254D-04 -0.15812520D-04
  0.22369736D-04  0.16414603D-04  0.13479062D-04 -0.56589211D-04 -0.41524378D-04
 -0.34098278D-04 -0.14246170D-03 -0.55651938D-04  0.16391222D-04 -0.10481680D-04
 -0.39452719D-05  0.99689651D-06  0.10240231D-06  0.38931776D-06 -0.67452626D-06
 -0.33861069D-04  0.25742556D-04  0.81185137D-05 -0.12342677D-04 -0.55253283D-04
 -0.75688550D-06  0.10960906D-04  0.96480558D-05 -0.20608962D-04  0.95562812D-05
 -0.24055122D-04  0.29712700D-04  0.29691278D-05 -0.88347897D-06 -0.20856489D-05
  0.22373783D-05  0.65307221D-06  0.14233144D-05  0.63135169D-05 -0.11436642D-05
 -0.44027516D-05 -0.15758632D-04  0.63317408D-05  0.20243873D-04 -0.31819191D-05
 -0.29007482D-05 -0.70356180D-05  0.60958561D-05 -0.11869926D-05  0.96358064D-06
  0.41995552D-07 -0.29898747D-05 -0.21648098D-06  0.34895124D-05  0.65508525D-05
 -0.26742609D-05 -0.36154991D-05 -0.57890603D-05 -0.58459037D-04 -0.10865409D-03
 -0.18503604D-03 -0.28856818D-03 -0.40314617D-03 -0.48055765D-03 -0.45556708D-03
 -0.28933114D-03 -0.71051218D-04  0.44683114D-04  0.82617529D-04  0.13932174D-03
  0.22199660D-03  0.30944655D-03  0.39428524D-03  0.39156594D-03  0.35320172D-03
  0.20216606D-03  0.71689901D-03  0.11481465D-03  0.12609956D-05  0.82244915D-05
  0.60350178D-05  0.49557326D-05 -0.65500749D-04 -0.48063541D-04 -0.39467996D-04
  0.62534896D-05  0.45887240D-05  0.37680897D-05 -0.14739980D-03 -0.40817610D-04
  0.70446367D-05 -0.10698048D-04 -0.32094604D-05  0.51107973D-06  0.48873398D-06
 -0.61648219D-06  0.64846511D-07 -0.56343254D-05 -0.20977050D-04  0.26611375D-04
 -0.66746470D-04  0.80212617D-05  0.93955341D-05  0.12720213D-04 -0.28168002D-04
  0.15447789D-04  0.19515242D-04 -0.13442848D-05  0.75326195D-05  0.20179710D-05
 -0.11401861D-05 -0.87778490D-06  0.47444166D-05 -0.42973107D-06 -0.65641521D-07
 -0.25870918D-05 -0.41414864D-06  0.15393176D-05  0.18248198D-04  0.15853863D-04
 -0.18590700D-05 -0.10486923D-04 -0.14611417D-04 -0.27588828D-05 -0.67993144D-05
 -0.47853337D-06  0.34951879D-05  0.57721635D-06  0.27618831D-05 -0.46781716D-05
  0.40766678D-06 -0.13262830D-05 -0.58073922D-05 -0.21393158D-05 -0.86555189D-06
 -0.58212885D-04 -0.10819658D-03 -0.18425692D-03 -0.28735311D-03 -0.40144866D-03
 -0.47853417D-03 -0.45364883D-03 -0.28811287D-03 -0.70752045D-04  0.44495178D-04
  0.82270042D-04  0.13873576D-03  0.22106289D-03  0.30814503D-03  0.39262689D-03
  0.38991903D-03  0.35171616D-03  0.20131576D-03  0.71109433D-03  0.11191233D-03
  0.26303131D-05 -0.18370705D-04 -0.13480169D-04 -0.11069414D-04  0.32651418D-04
  0.23959158D-04  0.19674371D-04  0.55815523D-04  0.40956657D-04  0.33632086D-04
 -0.13284222D-03 -0.53370358D-04 -0.33559154D-05 -0.95639996D-05 -0.37669295D-05
 -0.87066665D-07  0.40599915D-07  0.51542862D-06  0.67911094D-06 -0.33110878D-04
  0.24704997D-04  0.84058808D-05 -0.15122893D-05  0.60768985D-04 -0.36761875D-05
  0.10773645D-04  0.49432223D-05 -0.15716868D-04  0.11580010D-04  0.22063589D-04
 -0.38088670D-04  0.26865943D-05 -0.96050806D-06 -0.17260862D-05  0.20533565D-05
 -0.85609028D-06 -0.17636903D-05  0.55026154D-05 -0.95909309D-07  0.53590851D-05
 -0.16036452D-04  0.21571400D-05 -0.23024256D-04 -0.47139366D-06 -0.18694120D-05
  0.69470006D-05 -0.19847894D-05 -0.13091902D-05  0.15093783D-05  0.26187197D-06
 -0.19073634D-05 -0.55605379D-06 -0.28927468D-05  0.58349340D-05 -0.39720811D-05
  0.21071309D-05  0.84468232D-05
MO    2     MO 0.0        OCC NO =    2.0000000  ORB. ENERGY =  -10.123729
 -0.78984711D-03 -0.14724546D-02 -0.24887077D-02 -0.37413428D-02 -0.45966719D-02
 -0.38826243D-02 -0.14643830D-02  0.72473133D-05 -0.19452663D-03 -0.36421523D-03
 -0.62010759D-03 -0.95921215D-03 -0.12632487D-02 -0.13125963D-02 -0.83409600D-03
  0.55899175D-03  0.15070313D-03  0.13056080D-01 -0.47938723D-02  0.31450380D-03
  0.29486731D-03  0.20996309D-03  0.10888148D-03  0.10208331D-03  0.72689397D-04
 -0.18852463D-04 -0.17675382D-04 -0.12585925D-04  0.19982739D-02  0.70678936D-03
 -0.97274454D-04  0.45151488D-02  0.16018783D-02 -0.21237455D-03 -0.12478654D-03
 -0.43510279D-04  0.70368860D-05  0.13104572D-02 -0.52724654D-03 -0.78321063D-03
  0.14772706D-02 -0.21270887D-03 -0.79257578D-04 -0.16355844D-02  0.65572070D-03
  0.97986373D-03 -0.18470565D-02  0.25571161D-03  0.10546333D-03  0.92973088D-04
 -0.37545024D-04 -0.55428065D-04  0.10750277D-03 -0.13452543D-04 -0.12843998D-05
 -0.23193794D-03  0.53610577D-04 -0.49692509D-04  0.31881927D-03 -0.63496391D-03
  0.84292222D-04  0.37699453D-03  0.47413218D-03  0.64785305D-04  0.47093799D-04
 -0.26154740D-03 -0.60496318D-04 -0.92814538D-04  0.50139627D-03 -0.77656645D-03
  0.95713355D-04  0.28324594D-03  0.95805540D-03  0.18273026D-03  0.26622000D-04
  0.32768592D+00  0.61088106D+00  0.10324966D+01  0.15521806D+01  0.19070332D+01
  0.16107944D+01  0.60753239D+00 -0.30067117D-02 -0.14445512D-02 -0.27046556D-02
 -0.46049076D-02 -0.71230919D-02 -0.93808615D-02 -0.97473160D-02 -0.61939817D-02
  0.41510625D-02  0.33421602D-01 -0.12325543D-01  0.63683382D-02 -0.15740206D-02
 -0.14757443D-02 -0.10508179D-02 -0.57045228D-03 -0.53483527D-03 -0.38083457D-03
  0.55575738D-04  0.52105787D-04  0.37102424D-04 -0.29207959D-02 -0.10247534D-02
  0.15488956D-03  0.57253520D-02  0.20159356D-02 -0.29238108D-03 -0.80784066D-03
 -0.28266704D-03  0.44064970D-04  0.15424031D-02 -0.61909906D-03 -0.92330408D-03
  0.17440011D-02 -0.24181581D-03 -0.92816942D-04 -0.26378216D-03  0.10451741D-03
  0.15926475D-03 -0.30135820D-03  0.34685362D-04  0.17945125D-04 -0.68807606D-03
  0.27814660D-03  0.40992946D-03 -0.77201179D-03  0.11854622D-03  0.40563429D-04
 -0.10450611D-03  0.11246501D-03  0.36533284D-05  0.39179312D-04 -0.24037088D-03
  0.36294987D-04  0.27433902D-03 -0.97024154D-04 -0.47254972D-04  0.43872933D-04
  0.12072018D-03 -0.10906044D-03  0.22017854D-05 -0.70338515D-04  0.28814883D-03
 -0.43402249D-04 -0.29182202D-03  0.39032503D-04  0.36796893D-04 -0.44610386D-04
 -0.29489481D-05 -0.53185493D-05 -0.78421978D-05 -0.12866067D-02  0.11340500D-02
 -0.82455627D-05  0.25399768D-03  0.15561204D-03  0.76227904D-04 -0.17503356D-02
 -0.89204511D-03 -0.28280041D-03 -0.27417261D-03 -0.20349568D-03 -0.13048302D-03
 -0.92607222D-03  0.40431382D-03  0.52175840D-03 -0.35847233D-03  0.70470268D-03
  0.75187856D-03 -0.26458943D-03  0.12642238D-03  0.13816705D-03 -0.24951505D-03
  0.13038553D-03 -0.72667804D-05 -0.25179054D-05 -0.45411461D-05 -0.66959172D-05
 -0.12369011D-02  0.11447036D-02 -0.60642831D-05  0.31160809D-03  0.14866854D-05
 -0.56524569D-05 -0.19700540D-02 -0.19613775D-03  0.59853407D-04 -0.36017189D-03
  0.60179117D-04  0.44491189D-05 -0.45436309D-03  0.25879270D-03  0.19557039D-03
 -0.17643884D-02  0.18462627D-03  0.28012454D-04 -0.22932026D-03  0.51294293D-04
  0.17802596D-03 -0.34244740D-03  0.47097174D-04  0.30919597D-04 -0.24993662D-05
 -0.45077099D-05 -0.66466156D-05 -0.12338816D-02  0.11444144D-02 -0.59214189D-05
  0.25904533D-03  0.13746010D-03 -0.10632002D-03 -0.17273249D-02 -0.81762034D-03
  0.51987890D-03 -0.26966183D-03 -0.17229118D-03  0.17600704D-03 -0.95122666D-03
  0.27695259D-03  0.67427407D-03 -0.49649716D-03 -0.49822466D-03 -0.63553107D-03
 -0.27075860D-03  0.13035466D-03  0.14040394D-03 -0.26725102D-03 -0.50013182D-04
  0.24489485D-04  0.74811860D-04  0.13904804D-03  0.23679642D-03  0.36928973D-03
  0.51591878D-03  0.61498466D-03  0.58300345D-03  0.37026612D-03  0.90926468D-04
 -0.63723083D-04 -0.11782177D-03 -0.19868828D-03 -0.31659181D-03 -0.44130515D-03
 -0.56229455D-03 -0.55841653D-03 -0.50370488D-03 -0.28831126D-03 -0.13079738D-02
 -0.12262893D-03 -0.28150194D-05 -0.24873673D-03 -0.18251957D-03 -0.14987829D-03
  0.19138349D-04  0.14043456D-04  0.11531964D-04 -0.19596824D-03 -0.14379878D-03
 -0.11808222D-03  0.43034373D-03  0.84757056D-04  0.99766148D-04  0.21586617D-04
  0.46630217D-05  0.44118623D-05 -0.62084805D-06 -0.62352009D-06  0.81698483D-06
  0.12425702D-03 -0.14295463D-03  0.18697607D-04 -0.23518976D-04  0.39291997D-03
 -0.44222327D-04 -0.30236786D-04  0.43989791D-05  0.25837807D-04  0.29920652D-04
 -0.72341765D-04 -0.66085695D-04 -0.46420182D-05  0.42611945D-05  0.38082364D-06
  0.13868943D-05 -0.13460466D-04 -0.69768691D-06 -0.21773237D-06 -0.15909506D-05
  0.13864125D-04  0.56321159D-04  0.27066617D-05 -0.88067359D-04 -0.55667962D-04
  0.20661901D-05  0.46474984D-04  0.39753834D-04 -0.16081117D-05 -0.83096537D-06
 -0.28702853D-05  0.20424741D-06 -0.84969200D-05  0.98379074D-05  0.46200878D-05
  0.10989816D-04 -0.12270516D-05  0.77988534D-06  0.74783713D-04  0.13899572D-03
  0.23670733D-03  0.36915079D-03  0.51572467D-03  0.61475328D-03  0.58278410D-03
  0.37012681D-03  0.90892258D-04 -0.63699978D-04 -0.11777905D-03 -0.19861624D-03
 -0.31647702D-03 -0.44114514D-03 -0.56209067D-03 -0.55821405D-03 -0.50352224D-03
 -0.28820672D-03 -0.13081741D-02 -0.12272267D-03 -0.28683111D-05 -0.12874794D-03
 -0.94473452D-04 -0.77578091D-04 -0.28852518D-03 -0.21171578D-03 -0.17385314D-03
  0.29604288D-04  0.21723216D-04  0.17838298D-04  0.35726608D-03  0.26977450D-03
 -0.35484008D-04  0.18306370D-04  0.12931512D-04 -0.16286981D-05 -0.10694891D-05
  0.54131327D-06 -0.31714126D-07 -0.55856633D-04  0.20232757D-03 -0.14647094D-03
  0.30320889D-03 -0.32624135D-04 -0.71279170D-04  0.25327828D-04 -0.78552232D-05
 -0.17472605D-04 -0.10741246D-03  0.82354799D-05  0.21574622D-05  0.22068889D-05
 -0.59629782D-05  0.37560893D-05 -0.12128505D-04  0.11627739D-05  0.21453503D-05
  0.16312082D-04 -0.27709110D-04 -0.68158618D-05 -0.87577780D-04  0.20404720D-04
 -0.89181267D-06  0.38641535D-04  0.62722609D-04  0.21339398D-04  0.25675946D-04
 -0.46834639D-05  0.11998174D-06 -0.45120055D-06  0.14245221D-04 -0.62249131D-05
  0.80381602D-06 -0.19482881D-06  0.58649679D-05  0.54978564D-06 -0.22826573D-05
  0.74480455D-04  0.13843208D-03  0.23574745D-03  0.36765384D-03  0.51363334D-03
  0.61226038D-03  0.58042084D-03  0.36862590D-03  0.90523679D-04 -0.63442848D-04
 -0.11730363D-03 -0.19781451D-03 -0.31519953D-03 -0.43936442D-03 -0.55982175D-03
 -0.55596078D-03 -0.50148974D-03 -0.28704335D-03 -0.13100344D-02 -0.12438856D-03
 -0.37839016D-05 -0.23847319D-03 -0.17498832D-03 -0.14369391D-03  0.55655097D-04
  0.40838939D-04  0.33535420D-04  0.20275945D-03  0.14878207D-03  0.12217431D-03
  0.41127862D-03  0.58229822D-04 -0.14012975D-03  0.20537866D-04  0.33860643D-05
 -0.63349261D-05 -0.57861492D-06 -0.74572426D-06 -0.71318756D-06  0.10062652D-03
 -0.12785810D-03  0.27231583D-04 -0.88919418D-04 -0.38909068D-03  0.10786902D-03
 -0.23642675D-04  0.15126754D-04  0.85159207D-05  0.44858300D-04  0.68946756D-04
  0.64208199D-04 -0.35984059D-05  0.40948199D-05 -0.49641399D-06  0.37674186D-05
  0.13038159D-04 -0.11608138D-05  0.44465653D-05 -0.97465355D-05 -0.12203292D-04
  0.42409982D-04  0.13844065D-04  0.78575236D-04 -0.55749678D-04  0.15395542D-04
 -0.41965360D-04 -0.77697229D-04 -0.21952588D-05 -0.24860314D-06  0.57925553D-06
  0.80137662D-06 -0.95339575D-05 -0.69382833D-05  0.57843997D-05  0.10279767D-04
  0.52005167D-05  0.29440667D-05
MO    3     MO 0.0        OCC NO =    2.0000000  ORB. ENERGY =   -1.950417
 -0.42701854D-03 -0.79605964D-03 -0.13454810D-02 -0.20226987D-02 -0.24851191D-02
 -0.20990803D-02 -0.79169588D-03  0.39181471D-05  0.31569815D-03  0.59108655D-03
  0.10063754D-02  0.15567098D-02  0.20501320D-02  0.21302185D-02  0.13536582D-02
 -0.90719026D-03 -0.25812020D-02  0.47531397D-01 -0.43037003D-02  0.10227999D-02
  0.95893996D-03  0.68282238D-03  0.35856057D-03  0.33617333D-03  0.23937543D-03
 -0.54267153D-04 -0.50878905D-04 -0.36228812D-04 -0.37740387D-02 -0.13476666D-02
  0.16620272D-03  0.81909699D-02  0.31263455D-02 -0.80641496D-04  0.31047699D-04
  0.14942563D-04  0.38149816D-05  0.48409283D-03 -0.17704316D-03 -0.30704967D-03
  0.56424086D-03 -0.15681378D-04 -0.80149504D-04 -0.23795558D-02  0.90534563D-03
  0.14742101D-02 -0.28013372D-02  0.15492631D-03  0.21613470D-03  0.21439485D-03
 -0.98924698D-04 -0.11547016D-03  0.14987777D-03 -0.13118486D-03 -0.69017854D-04
  0.35809586D-03 -0.42265300D-03 -0.52768394D-05 -0.12004010D-03  0.71106061D-03
 -0.23107177D-03 -0.95424748D-03  0.55689839D-03  0.24690229D-03 -0.21707209D-03
 -0.45700817D-05 -0.60728813D-03 -0.19359273D-03  0.75130015D-03 -0.29012141D-03
  0.85992119D-04 -0.73758991D-03  0.21119858D-02  0.49478607D-03 -0.17247082D-03
 -0.48318254D-03 -0.90076211D-03 -0.15224466D-02 -0.22887360D-02 -0.28119766D-02
 -0.23751638D-02 -0.89582439D-03  0.44334849D-05 -0.25538651D-03 -0.47816412D-03
 -0.81411533D-03 -0.12593126D-02 -0.16584704D-02 -0.17232570D-02 -0.10950525D-02
  0.73387870D-03  0.29661124D-03 -0.67971368D-02  0.12676475D-01  0.31266767D-02
  0.29314582D-02  0.20873729D-02  0.87135269D-03  0.81694853D-03  0.58171602D-03
 -0.47952856D-03 -0.44958851D-03 -0.32013380D-03 -0.35633071D-02 -0.11919777D-02
  0.27042624D-03  0.16999742D-01  0.57265338D-02 -0.12293852D-02 -0.11099853D-02
 -0.37005149D-03  0.87981051D-04  0.55040350D-03 -0.20403723D-03 -0.34636627D-03
  0.64747823D-03 -0.21860107D-04 -0.72788770D-04  0.20043824D-04 -0.25057049D-04
  0.50132248D-05  0.15614952D-04 -0.56175647D-04  0.61242077D-04 -0.17514756D-02
  0.61681239D-03  0.11346632D-02 -0.21345291D-02 -0.61688697D-04  0.27476948D-03
  0.34370023D-03 -0.49308455D-03 -0.46300440D-04  0.38622109D-04  0.67903449D-03
 -0.10036954D-03 -0.10697228D-02  0.80021916D-03  0.23927086D-03 -0.28045904D-03
 -0.41109980D-03  0.55204384D-03  0.39808905D-04  0.11631258D-04 -0.82419629D-03
  0.15176476D-03  0.12216682D-02 -0.83193522D-03 -0.27119148D-03  0.30828150D-03
  0.85039616D-04  0.15337245D-03  0.22614759D-03 -0.95723739D-02 -0.22896897D-02
  0.11227330D-03 -0.12830054D-03  0.34627888D-03  0.54607852D-03 -0.34697568D-02
  0.21439340D-03  0.21104015D-02 -0.66285896D-03 -0.47489190D-05  0.34452394D-03
 -0.50500234D-03  0.49309956D-03  0.11902777D-04  0.12261751D-03  0.13226429D-02