 Molden2AIM, Version 4.0.0 (06/02/2016)           Time: Fri Jun 29 15:58:33 2018
GAUSSIAN             33 MOL ORBITALS    671 PRIMITIVES        9 NUCLEI
  C    1    (CENTRE  1)  -2.71828599  0.33760335 -0.09065016  CHARGE =  6.0
  O    2    (CENTRE  2)  -2.53002392  2.61823066 -0.15334939  CHARGE =  8.0
  N    3    (CENTRE  3)  -0.68072092 -1.27669330 -0.24320019  CHARGE =  7.0
  C    4    (CENTRE  4)  -5.22603949 -1.02606837  0.06644088  CHARGE =  6.0
  H    5    (CENTRE  5)  -6.48727483 -0.20698170 -1.35713516  CHARGE =  1.0
  H    6    (CENTRE  6)  -5.09109603 -3.07268145 -0.22999101  CHARGE =  1.0
  H    7    (CENTRE  7)  -6.04286794 -0.65611669  1.93703731  CHARGE =  1.0
  H    8    (CENTRE  8)  -0.84912954 -3.08223969  0.36174271  CHARGE =  1.0
  Br   9    (CENTRE  9)   2.57096294 -0.01292951  0.08297032  CHARGE = 35.0
CENTRE ASSIGNMENTS    1  1  1  1  1  1  1  1  1  1  1  1  1  1  1  1  1  1  1  1
CENTRE ASSIGNMENTS    1  1  1  1  1  1  1  1  1  1  1  1  1  1  1  1  1  1  1  1
CENTRE ASSIGNMENTS    1  1  1  1  1  1  1  1  1  1  1  1  1  1  1  1  1  1  1  1
CENTRE ASSIGNMENTS    1  1  1  1  1  1  1  1  1  1  1  1  1  1  1  2  2  2  2  2
CENTRE ASSIGNMENTS    2  2  2  2  2  2  2  2  2  2  2  2  2  2  2  2  2  2  2  2
CENTRE ASSIGNMENTS    2  2  2  2  2  2  2  2  2  2  2  2  2  2  2  2  2  2  2  2
CENTRE ASSIGNMENTS    2  2  2  2  2  2  2  2  2  2  2  2  2  2  2  2  2  2  2  2
CENTRE ASSIGNMENTS    2  2  2  2  2  2  2  2  2  2  3  3  3  3  3  3  3  3  3  3
CENTRE ASSIGNMENTS    3  3  3  3  3  3  3  3  3  3  3  3  3  3  3  3  3  3  3  3
CENTRE ASSIGNMENTS    3  3  3  3  3  3  3  3  3  3  3  3  3  3  3  3  3  3  3  3
CENTRE ASSIGNMENTS    3  3  3  3  3  3  3  3  3  3  3  3  3  3  3  3  3  3  3  3
CENTRE ASSIGNMENTS    3  3  3  3  3  4  4  4  4  4  4  4  4  4  4  4  4  4  4  4
CENTRE ASSIGNMENTS    4  4  4  4  4  4  4  4  4  4  4  4  4  4  4  4  4  4  4  4
CENTRE ASSIGNMENTS    4  4  4  4  4  4  4  4  4  4  4  4  4  4  4  4  4  4  4  4
CENTRE ASSIGNMENTS    4  4  4  4  4  4  4  4  4  4  4  4  4  4  4  4  4  4  4  4
CENTRE ASSIGNMENTS    5  5  5  5  5  5  5  5  5  5  5  5  5  5  5  5  5  5  5  5
CENTRE ASSIGNMENTS    5  5  5  5  5  5  5  6  6  6  6  6  6  6  6  6  6  6  6  6
CENTRE ASSIGNMENTS    6  6  6  6  6  6  6  6  6  6  6  6  6  6  7  7  7  7  7  7
CENTRE ASSIGNMENTS    7  7  7  7  7  7  7  7  7  7  7  7  7  7  7  7  7  7  7  7
CENTRE ASSIGNMENTS    7  8  8  8  8  8  8  8  8  8  8  8  8  8  8  8  8  8  8  8
CENTRE ASSIGNMENTS    8  8  8  8  8  8  8  8  9  9  9  9  9  9  9  9  9  9  9  9
CENTRE ASSIGNMENTS    9  9  9  9  9  9  9  9  9  9  9  9  9  9  9  9  9  9  9  9
CENTRE ASSIGNMENTS    9  9  9  9  9  9  9  9  9  9  9  9  9  9  9  9  9  9  9  9
CENTRE ASSIGNMENTS    9  9  9  9  9  9  9  9  9  9  9  9  9  9  9  9  9  9  9  9
CENTRE ASSIGNMENTS    9  9  9  9  9  9  9  9  9  9  9  9  9  9  9  9  9  9  9  9
CENTRE ASSIGNMENTS    9  9  9  9  9  9  9  9  9  9  9  9  9  9  9  9  9  9  9  9
CENTRE ASSIGNMENTS    9  9  9  9  9  9  9  9  9  9  9  9  9  9  9  9  9  9  9  9
CENTRE ASSIGNMENTS    9  9  9  9  9  9  9  9  9  9  9  9  9  9  9  9  9  9  9  9
CENTRE ASSIGNMENTS    9  9  9  9  9  9  9  9  9  9  9  9  9  9  9  9  9  9  9  9
CENTRE ASSIGNMENTS    9  9  9  9  9  9  9  9  9  9  9  9  9  9  9  9  9  9  9  9
CENTRE ASSIGNMENTS    9  9  9  9  9  9  9  9  9  9  9  9  9  9  9  9  9  9  9  9
CENTRE ASSIGNMENTS    9  9  9  9  9  9  9  9  9  9  9  9  9  9  9  9  9  9  9  9
CENTRE ASSIGNMENTS    9  9  9  9  9  9  9  9  9  9  9  9  9  9  9  9  9  9  9  9
CENTRE ASSIGNMENTS    9  9  9  9  9  9  9  9  9  9  9
TYPE ASSIGNMENTS      1  1  1  1  1  1  1  1  1  1  1  1  1  1  1  1  1  1  1  2
TYPE ASSIGNMENTS      2  2  3  3  3  4  4  4  2  3  4  2  3  4  2  3  4  5  6  7
TYPE ASSIGNMENTS      8  9 10  5  6  7  8  9 10  5  6  7  8  9 10 11 12 13 17 14
TYPE ASSIGNMENTS     15 18 19 16 20 11 12 13 17 14 15 18 19 16 20  1  1  1  1  1
TYPE ASSIGNMENTS      1  1  1  1  1  1  1  1  1  1  1  1  1  1  2  2  2  3  3  3
TYPE ASSIGNMENTS      4  4  4  2  3  4  2  3  4  2  3  4  5  6  7  8  9 10  5  6
TYPE ASSIGNMENTS      7  8  9 10  5  6  7  8  9 10 11 12 13 17 14 15 18 19 16 20
TYPE ASSIGNMENTS     11 12 13 17 14 15 18 19 16 20  1  1  1  1  1  1  1  1  1  1
TYPE ASSIGNMENTS      1  1  1  1  1  1  1  1  1  2  2  2  3  3  3  4  4  4  2  3
TYPE ASSIGNMENTS      4  2  3  4  2  3  4  5  6  7  8  9 10  5  6  7  8  9 10  5
TYPE ASSIGNMENTS      6  7  8  9 10 11 12 13 17 14 15 18 19 16 20 11 12 13 17 14
TYPE ASSIGNMENTS     15 18 19 16 20  1  1  1  1  1  1  1  1  1  1  1  1  1  1  1
TYPE ASSIGNMENTS      1  1  1  1  2  2  2  3  3  3  4  4  4  2  3  4  2  3  4  2
TYPE ASSIGNMENTS      3  4  5  6  7  8  9 10  5  6  7  8  9 10  5  6  7  8  9 10
TYPE ASSIGNMENTS     11 12 13 17 14 15 18 19 16 20 11 12 13 17 14 15 18 19 16 20
TYPE ASSIGNMENTS      1  1  1  1  1  1  2  3  4  2  3  4  2  3  4  5  6  7  8  9
TYPE ASSIGNMENTS     10  5  6  7  8  9 10  1  1  1  1  1  1  2  3  4  2  3  4  2
TYPE ASSIGNMENTS      3  4  5  6  7  8  9 10  5  6  7  8  9 10  1  1  1  1  1  1
TYPE ASSIGNMENTS      2  3  4  2  3  4  2  3  4  5  6  7  8  9 10  5  6  7  8  9
TYPE ASSIGNMENTS     10  1  1  1  1  1  1  2  3  4  2  3  4  2  3  4  5  6  7  8
TYPE ASSIGNMENTS      9 10  5  6  7  8  9 10  1  1  1  1  1  1  1  1  1  1  1  1
TYPE ASSIGNMENTS      1  1  1  1  1  1  1  1  1  1  1  1  1  1  1  1  1  1  1  1
TYPE ASSIGNMENTS      1  1  1  1  1  1  1  1  1  1  1  1  1  1  1  1  1  1  1  1
TYPE ASSIGNMENTS      1  1  1  1  1  1  1  1  1  1  1  1  1  1  1  1  1  1  1  1
TYPE ASSIGNMENTS      1  1  1  2  2  2  2  2  2  2  2  2  2  2  3  3  3  3  3  3
TYPE ASSIGNMENTS      3  3  3  3  3  4  4  4  4  4  4  4  4  4  4  4  2  2  2  2
TYPE ASSIGNMENTS      2  2  2  2  2  2  2  3  3  3  3  3  3  3  3  3  3  3  4  4
TYPE ASSIGNMENTS      4  4  4  4  4  4  4  4  4  2  2  2  2  2  2  2  2  2  2  2
TYPE ASSIGNMENTS      3  3  3  3  3  3  3  3  3  3  3  4  4  4  4  4  4  4  4  4
TYPE ASSIGNMENTS      4  4  2  3  4  2  3  4  2  3  4  5  5  5  5  5  5  5  6  6
TYPE ASSIGNMENTS      6  6  6  6  6  7  7  7  7  7  7  7  8  8  8  8  8  8  8  9
TYPE ASSIGNMENTS      9  9  9  9  9  9 10 10 10 10 10 10 10  5  6  7  8  9 10  5
TYPE ASSIGNMENTS      6  7  8  9 10  5  6  7  8  9 10 11 12 13 17 14 15 18 19 16
TYPE ASSIGNMENTS     20 11 12 13 17 14 15 18 19 16 20
EXPONENTS  0.8236000D+04 0.1235000D+04 0.2808000D+03 0.7927000D+02 0.2559000D+02
EXPONENTS  0.8997000D+01 0.3319000D+01 0.3643000D+00 0.8236000D+04 0.1235000D+04
EXPONENTS  0.2808000D+03 0.7927000D+02 0.2559000D+02 0.8997000D+01 0.3319000D+01
EXPONENTS  0.3643000D+00 0.9059000D+00 0.1285000D+00 0.4402000D-01 0.1871000D+02
EXPONENTS  0.4133000D+01 0.1200000D+01 0.1871000D+02 0.4133000D+01 0.1200000D+01
EXPONENTS  0.1871000D+02 0.4133000D+01 0.1200000D+01 0.3827000D+00 0.3827000D+00
EXPONENTS  0.3827000D+00 0.1209000D+00 0.1209000D+00 0.1209000D+00 0.3569000D-01
EXPONENTS  0.3569000D-01 0.3569000D-01 0.1097000D+01 0.1097000D+01 0.1097000D+01
EXPONENTS  0.1097000D+01 0.1097000D+01 0.1097000D+01 0.3180000D+00 0.3180000D+00
EXPONENTS  0.3180000D+00 0.3180000D+00 0.3180000D+00 0.3180000D+00 0.1000000D+00
EXPONENTS  0.1000000D+00 0.1000000D+00 0.1000000D+00 0.1000000D+00 0.1000000D+00
EXPONENTS  0.7610000D+00 0.7610000D+00 0.7610000D+00 0.7610000D+00 0.7610000D+00
EXPONENTS  0.7610000D+00 0.7610000D+00 0.7610000D+00 0.7610000D+00 0.7610000D+00
EXPONENTS  0.2680000D+00 0.2680000D+00 0.2680000D+00 0.2680000D+00 0.2680000D+00
EXPONENTS  0.2680000D+00 0.2680000D+00 0.2680000D+00 0.2680000D+00 0.2680000D+00
EXPONENTS  0.1533000D+05 0.2299000D+04 0.5224000D+03 0.1473000D+03 0.4755000D+02
EXPONENTS  0.1676000D+02 0.6207000D+01 0.6882000D+00 0.1533000D+05 0.2299000D+04
EXPONENTS  0.5224000D+03 0.1473000D+03 0.4755000D+02 0.1676000D+02 0.6207000D+01
EXPONENTS  0.6882000D+00 0.1752000D+01 0.2384000D+00 0.7376000D-01 0.3446000D+02
EXPONENTS  0.7749000D+01 0.2280000D+01 0.3446000D+02 0.7749000D+01 0.2280000D+01
EXPONENTS  0.3446000D+02 0.7749000D+01 0.2280000D+01 0.7156000D+00 0.7156000D+00
EXPONENTS  0.7156000D+00 0.2140000D+00 0.2140000D+00 0.2140000D+00 0.5974000D-01
EXPONENTS  0.5974000D-01 0.5974000D-01 0.2314000D+01 0.2314000D+01 0.2314000D+01
EXPONENTS  0.2314000D+01 0.2314000D+01 0.2314000D+01 0.6450000D+00 0.6450000D+00
EXPONENTS  0.6450000D+00 0.6450000D+00 0.6450000D+00 0.6450000D+00 0.2140000D+00
EXPONENTS  0.2140000D+00 0.2140000D+00 0.2140000D+00 0.2140000D+00 0.2140000D+00
EXPONENTS  0.1428000D+01 0.1428000D+01 0.1428000D+01 0.1428000D+01 0.1428000D+01
EXPONENTS  0.1428000D+01 0.1428000D+01 0.1428000D+01 0.1428000D+01 0.1428000D+01
EXPONENTS  0.5000000D+00 0.5000000D+00 0.5000000D+00 0.5000000D+00 0.5000000D+00
EXPONENTS  0.5000000D+00 0.5000000D+00 0.5000000D+00 0.5000000D+00 0.5000000D+00
EXPONENTS  0.1142000D+05 0.1712000D+04 0.3893000D+03 0.1100000D+03 0.3557000D+02
EXPONENTS  0.1254000D+02 0.4644000D+01 0.5118000D+00 0.1142000D+05 0.1712000D+04
EXPONENTS  0.3893000D+03 0.1100000D+03 0.3557000D+02 0.1254000D+02 0.4644000D+01
EXPONENTS  0.5118000D+00 0.1293000D+01 0.1787000D+00 0.5760000D-01 0.2663000D+02
EXPONENTS  0.5948000D+01 0.1742000D+01 0.2663000D+02 0.5948000D+01 0.1742000D+01
EXPONENTS  0.2663000D+02 0.5948000D+01 0.1742000D+01 0.5550000D+00 0.5550000D+00
EXPONENTS  0.5550000D+00 0.1725000D+00 0.1725000D+00 0.1725000D+00 0.4910000D-01
EXPONENTS  0.4910000D-01 0.4910000D-01 0.1654000D+01 0.1654000D+01 0.1654000D+01
EXPONENTS  0.1654000D+01 0.1654000D+01 0.1654000D+01 0.4690000D+00 0.4690000D+00
EXPONENTS  0.4690000D+00 0.4690000D+00 0.4690000D+00 0.4690000D+00 0.1510000D+00
EXPONENTS  0.1510000D+00 0.1510000D+00 0.1510000D+00 0.1510000D+00 0.1510000D+00
EXPONENTS  0.1093000D+01 0.1093000D+01 0.1093000D+01 0.1093000D+01 0.1093000D+01
EXPONENTS  0.1093000D+01 0.1093000D+01 0.1093000D+01 0.1093000D+01 0.1093000D+01
EXPONENTS  0.3640000D+00 0.3640000D+00 0.3640000D+00 0.3640000D+00 0.3640000D+00
EXPONENTS  0.3640000D+00 0.3640000D+00 0.3640000D+00 0.3640000D+00 0.3640000D+00
EXPONENTS  0.8236000D+04 0.1235000D+04 0.2808000D+03 0.7927000D+02 0.2559000D+02
EXPONENTS  0.8997000D+01 0.3319000D+01 0.3643000D+00 0.8236000D+04 0.1235000D+04
EXPONENTS  0.2808000D+03 0.7927000D+02 0.2559000D+02 0.8997000D+01 0.3319000D+01
EXPONENTS  0.3643000D+00 0.9059000D+00 0.1285000D+00 0.4402000D-01 0.1871000D+02
EXPONENTS  0.4133000D+01 0.1200000D+01 0.1871000D+02 0.4133000D+01 0.1200000D+01
EXPONENTS  0.1871000D+02 0.4133000D+01 0.1200000D+01 0.3827000D+00 0.3827000D+00
EXPONENTS  0.3827000D+00 0.1209000D+00 0.1209000D+00 0.1209000D+00 0.3569000D-01
EXPONENTS  0.3569000D-01 0.3569000D-01 0.1097000D+01 0.1097000D+01 0.1097000D+01
EXPONENTS  0.1097000D+01 0.1097000D+01 0.1097000D+01 0.3180000D+00 0.3180000D+00
EXPONENTS  0.3180000D+00 0.3180000D+00 0.3180000D+00 0.3180000D+00 0.1000000D+00
EXPONENTS  0.1000000D+00 0.1000000D+00 0.1000000D+00 0.1000000D+00 0.1000000D+00
EXPONENTS  0.7610000D+00 0.7610000D+00 0.7610000D+00 0.7610000D+00 0.7610000D+00
EXPONENTS  0.7610000D+00 0.7610000D+00 0.7610000D+00 0.7610000D+00 0.7610000D+00
EXPONENTS  0.2680000D+00 0.2680000D+00 0.2680000D+00 0.2680000D+00 0.2680000D+00
EXPONENTS  0.2680000D+00 0.2680000D+00 0.2680000D+00 0.2680000D+00 0.2680000D+00
EXPONENTS  0.3387000D+02 0.5095000D+01 0.1159000D+01 0.3258000D+00 0.1027000D+00
EXPONENTS  0.2526000D-01 0.1407000D+01 0.1407000D+01 0.1407000D+01 0.3880000D+00
EXPONENTS  0.3880000D+00 0.3880000D+00 0.1020000D+00 0.1020000D+00 0.1020000D+00
EXPONENTS  0.1057000D+01 0.1057000D+01 0.1057000D+01 0.1057000D+01 0.1057000D+01
EXPONENTS  0.1057000D+01 0.2470000D+00 0.2470000D+00 0.2470000D+00 0.2470000D+00
EXPONENTS  0.2470000D+00 0.2470000D+00 0.3387000D+02 0.5095000D+01 0.1159000D+01
EXPONENTS  0.3258000D+00 0.1027000D+00 0.2526000D-01 0.1407000D+01 0.1407000D+01
EXPONENTS  0.1407000D+01 0.3880000D+00 0.3880000D+00 0.3880000D+00 0.1020000D+00
EXPONENTS  0.1020000D+00 0.1020000D+00 0.1057000D+01 0.1057000D+01 0.1057000D+01
EXPONENTS  0.1057000D+01 0.1057000D+01 0.1057000D+01 0.2470000D+00 0.2470000D+00
EXPONENTS  0.2470000D+00 0.2470000D+00 0.2470000D+00 0.2470000D+00 0.3387000D+02
EXPONENTS  0.5095000D+01 0.1159000D+01 0.3258000D+00 0.1027000D+00 0.2526000D-01
EXPONENTS  0.1407000D+01 0.1407000D+01 0.1407000D+01 0.3880000D+00 0.3880000D+00
EXPONENTS  0.3880000D+00 0.1020000D+00 0.1020000D+00 0.1020000D+00 0.1057000D+01
EXPONENTS  0.1057000D+01 0.1057000D+01 0.1057000D+01 0.1057000D+01 0.1057000D+01
EXPONENTS  0.2470000D+00 0.2470000D+00 0.2470000D+00 0.2470000D+00 0.2470000D+00
EXPONENTS  0.2470000D+00 0.3387000D+02 0.5095000D+01 0.1159000D+01 0.3258000D+00
EXPONENTS  0.1027000D+00 0.2526000D-01 0.1407000D+01 0.1407000D+01 0.1407000D+01
EXPONENTS  0.3880000D+00 0.3880000D+00 0.3880000D+00 0.1020000D+00 0.1020000D+00
EXPONENTS  0.1020000D+00 0.1057000D+01 0.1057000D+01 0.1057000D+01 0.1057000D+01
EXPONENTS  0.1057000D+01 0.1057000D+01 0.2470000D+00 0.2470000D+00 0.2470000D+00
EXPONENTS  0.2470000D+00 0.2470000D+00 0.2470000D+00 0.1063900D+08 0.1593400D+07
EXPONENTS  0.3626100D+06 0.1027000D+06 0.3350100D+05 0.1209300D+05 0.4715900D+04
EXPONENTS  0.1955600D+04 0.8526100D+03 0.3876700D+03 0.1826800D+03 0.8824500D+02
EXPONENTS  0.3926300D+02 0.1923400D+02 0.9405700D+01 0.4160100D+01 0.1899500D+01
EXPONENTS  0.3011400D+00 0.1063900D+08 0.1593400D+07 0.3626100D+06 0.1027000D+06
EXPONENTS  0.3350100D+05 0.1209300D+05 0.4715900D+04 0.1955600D+04 0.8526100D+03
EXPONENTS  0.3876700D+03 0.1826800D+03 0.8824500D+02 0.3926300D+02 0.1923400D+02
EXPONENTS  0.9405700D+01 0.4160100D+01 0.1899500D+01 0.3011400D+00 0.1063900D+08
EXPONENTS  0.1593400D+07 0.3626100D+06 0.1027000D+06 0.3350100D+05 0.1209300D+05
EXPONENTS  0.4715900D+04 0.1955600D+04 0.8526100D+03 0.3876700D+03 0.1826800D+03
EXPONENTS  0.8824500D+02 0.3926300D+02 0.1923400D+02 0.9405700D+01 0.4160100D+01
EXPONENTS  0.1899500D+01 0.3011400D+00 0.1063900D+08 0.1593400D+07 0.3626100D+06
EXPONENTS  0.1027000D+06 0.3350100D+05 0.1209300D+05 0.4715900D+04 0.1955600D+04
EXPONENTS  0.8526100D+03 0.3876700D+03 0.1826800D+03 0.8824500D+02 0.3926300D+02
EXPONENTS  0.1923400D+02 0.9405700D+01 0.4160100D+01 0.1899500D+01 0.3011400D+00
EXPONENTS  0.6047200D+00 0.1251500D+00 0.4559300D-01 0.8676500D+04 0.2055900D+04
EXPONENTS  0.6662300D+03 0.2531000D+03 0.1061200D+03 0.4724200D+02 0.2182500D+02
EXPONENTS  0.9968400D+01 0.4517100D+01 0.1998200D+01 0.2814500D+00 0.8676500D+04
EXPONENTS  0.2055900D+04 0.6662300D+03 0.2531000D+03 0.1061200D+03 0.4724200D+02
EXPONENTS  0.2182500D+02 0.9968400D+01 0.4517100D+01 0.1998200D+01 0.2814500D+00
EXPONENTS  0.8676500D+04 0.2055900D+04 0.6662300D+03 0.2531000D+03 0.1061200D+03
EXPONENTS  0.4724200D+02 0.2182500D+02 0.9968400D+01 0.4517100D+01 0.1998200D+01
EXPONENTS  0.2814500D+00 0.8676500D+04 0.2055900D+04 0.6662300D+03 0.2531000D+03
EXPONENTS  0.1061200D+03 0.4724200D+02 0.2182500D+02 0.9968400D+01 0.4517100D+01
EXPONENTS  0.1998200D+01 0.2814500D+00 0.8676500D+04 0.2055900D+04 0.6662300D+03
EXPONENTS  0.2531000D+03 0.1061200D+03 0.4724200D+02 0.2182500D+02 0.9968400D+01
EXPONENTS  0.4517100D+01 0.1998200D+01 0.2814500D+00 0.8676500D+04 0.2055900D+04
EXPONENTS  0.6662300D+03 0.2531000D+03 0.1061200D+03 0.4724200D+02 0.2182500D+02
EXPONENTS  0.9968400D+01 0.4517100D+01 0.1998200D+01 0.2814500D+00 0.8676500D+04
EXPONENTS  0.2055900D+04 0.6662300D+03 0.2531000D+03 0.1061200D+03 0.4724200D+02
EXPONENTS  0.2182500D+02 0.9968400D+01 0.4517100D+01 0.1998200D+01 0.2814500D+00
EXPONENTS  0.8676500D+04 0.2055900D+04 0.6662300D+03 0.2531000D+03 0.1061200D+03
EXPONENTS  0.4724200D+02 0.2182500D+02 0.9968400D+01 0.4517100D+01 0.1998200D+01
EXPONENTS  0.2814500D+00 0.8676500D+04 0.2055900D+04 0.6662300D+03 0.2531000D+03
EXPONENTS  0.1061200D+03 0.4724200D+02 0.2182500D+02 0.9968400D+01 0.4517100D+01
EXPONENTS  0.1998200D+01 0.2814500D+00 0.7098800D+00 0.7098800D+00 0.7098800D+00
EXPONENTS  0.1020400D+00 0.1020400D+00 0.1020400D+00 0.3514200D-01 0.3514200D-01
EXPONENTS  0.3514200D-01 0.4038300D+03 0.1211700D+03 0.4634500D+02 0.1972100D+02
EXPONENTS  0.8862400D+01 0.3996200D+01 0.1763600D+01 0.4038300D+03 0.1211700D+03
EXPONENTS  0.4634500D+02 0.1972100D+02 0.8862400D+01 0.3996200D+01 0.1763600D+01
EXPONENTS  0.4038300D+03 0.1211700D+03 0.4634500D+02 0.1972100D+02 0.8862400D+01
EXPONENTS  0.3996200D+01 0.1763600D+01 0.4038300D+03 0.1211700D+03 0.4634500D+02
EXPONENTS  0.1972100D+02 0.8862400D+01 0.3996200D+01 0.1763600D+01 0.4038300D+03
EXPONENTS  0.1211700D+03 0.4634500D+02 0.1972100D+02 0.8862400D+01 0.3996200D+01
EXPONENTS  0.1763600D+01 0.4038300D+03 0.1211700D+03 0.4634500D+02 0.1972100D+02
EXPONENTS  0.8862400D+01 0.3996200D+01 0.1763600D+01 0.7061900D+00 0.7061900D+00
EXPONENTS  0.7061900D+00 0.7061900D+00 0.7061900D+00 0.7061900D+00 0.2639000D+00
EXPONENTS  0.2639000D+00 0.2639000D+00 0.2639000D+00 0.2639000D+00 0.2639000D+00
EXPONENTS  0.1047000D+00 0.1047000D+00 0.1047000D+00 0.1047000D+00 0.1047000D+00
EXPONENTS  0.1047000D+00 0.5515000D+00 0.5515000D+00 0.5515000D+00 0.5515000D+00
EXPONENTS  0.5515000D+00 0.5515000D+00 0.5515000D+00 0.5515000D+00 0.5515000D+00
EXPONENTS  0.5515000D+00 0.2580000D+00 0.2580000D+00 0.2580000D+00 0.2580000D+00
EXPONENTS  0.2580000D+00 0.2580000D+00 0.2580000D+00 0.2580000D+00 0.2580000D+00
EXPONENTS  0.2580000D+00
MO    1     MO 0.0        OCC NO =    2.0000000  ORB. ENERGY = -483.301642
 -0.94135517D-06 -0.17549001D-05 -0.29660902D-05 -0.44590052D-05 -0.54784031D-05
 -0.46273872D-05 -0.17452802D-05  0.86374891D-08  0.70739698D-06  0.13244703D-05
  0.22550241D-05  0.34881794D-05  0.45938095D-05  0.47732623D-05  0.30331939D-05
 -0.20327760D-05 -0.15804303D-05  0.12295106D-04  0.12993270D-05 -0.78372122D-06
 -0.73478846D-06 -0.52321315D-06  0.32156427D-06  0.30148694D-06  0.21467666D-06
  0.16423090D-05  0.15397691D-05  0.10964073D-05  0.26815298D-06 -0.13141948D-05
 -0.11633987D-05  0.31733850D-05 -0.21481476D-04 -0.11110604D-05 -0.21547042D-06
 -0.50487337D-06  0.18388997D-06  0.19619218D-05 -0.14682305D-05 -0.49369131D-06
  0.31291459D-05 -0.20687315D-06 -0.17421305D-05  0.16597100D-05 -0.23237216D-05
  0.66401157D-06  0.21531130D-05  0.35612035D-05  0.24186878D-05 -0.78006341D-05
  0.62772797D-05  0.15233544D-05  0.74743639D-06 -0.72244775D-06  0.10059858D-06
  0.25803986D-05 -0.11379630D-05  0.72978679D-07 -0.37939891D-05  0.47964359D-05
  0.13528117D-05 -0.39472066D-05 -0.13825470D-05 -0.15717478D-05 -0.33878884D-05
 -0.27746519D-05  0.24792689D-06  0.14763110D-07  0.53273474D-05 -0.19644553D-05
 -0.49943836D-06  0.29966083D-05  0.12206746D-05  0.45514903D-06 -0.17358407D-05
 -0.69381703D-06 -0.12931857D-05 -0.21928144D-05 -0.33189268D-05 -0.41410516D-05
 -0.35566110D-05 -0.13654521D-05  0.61077512D-08  0.50105710D-06  0.93974502D-06
  0.16020592D-05  0.25037068D-05  0.33479330D-05  0.35748119D-05  0.21855699D-05
 -0.14419063D-05 -0.83889651D-06  0.78057802D-05 -0.18552843D-04 -0.57016326D-06
 -0.55286657D-06 -0.37296052D-06  0.11393320D-05  0.11047688D-05  0.74527052D-06
 -0.41554077D-06 -0.40293477D-06 -0.27181742D-06 -0.59637927D-06 -0.18760914D-05
  0.31301250D-06 -0.63697162D-05 -0.66900649D-05 -0.12093504D-05 -0.19059322D-07
  0.14816146D-05 -0.29163074D-06 -0.22308467D-05  0.56051954D-06  0.16703272D-05
 -0.13959730D-05  0.68119897D-06 -0.14533391D-05  0.71430248D-06  0.97901592D-06
 -0.16933184D-05  0.84778418D-06 -0.19479380D-06  0.11118083D-06  0.81407194D-06
  0.95387736D-07 -0.90945968D-06  0.41387505D-05  0.83302114D-06  0.63016741D-06
  0.11416421D-05 -0.18619523D-06 -0.11360270D-05  0.52632235D-05 -0.26127159D-06
 -0.38014197D-06 -0.86881498D-05  0.81985729D-06  0.37882229D-05  0.25225610D-05
  0.74665588D-07 -0.16136064D-06  0.18422941D-06 -0.19783769D-05  0.18646550D-07
  0.12999412D-08  0.17543802D-05  0.46543538D-06 -0.55398817D-06 -0.11616447D-05
 -0.45159237D-05 -0.84147588D-05 -0.14231467D-04 -0.21431800D-04 -0.26533959D-04
 -0.22579202D-04 -0.85918028D-05  0.40239078D-07  0.32477791D-05  0.60896162D-05
  0.10360249D-04  0.16088373D-04  0.21350207D-04  0.22500187D-04  0.13951551D-04
 -0.92805773D-05 -0.39378332D-05  0.11845358D-05 -0.64307751D-05 -0.77648135D-06
 -0.74580105D-06 -0.52300718D-06 -0.16589295D-05 -0.15933820D-05 -0.11173894D-05
 -0.12204075D-05 -0.11721868D-05 -0.82201828D-06 -0.11294105D-04 -0.48759498D-05
  0.57581274D-06  0.36290936D-04  0.17303945D-04  0.20077317D-05  0.11959614D-05
  0.36042880D-06 -0.25812700D-06 -0.15561709D-04  0.43769323D-05  0.11184777D-04
 -0.16951317D-04 -0.86714906D-05  0.13098659D-05  0.80087393D-05 -0.10789310D-05
 -0.69298083D-05  0.88333456D-05  0.43355802D-05 -0.22934692D-05  0.12328820D-05
  0.10413550D-05 -0.22742370D-05  0.63615488D-05  0.13429362D-05  0.10401377D-05
 -0.18776573D-05 -0.17096984D-05  0.14741720D-05 -0.17472993D-05  0.69869901D-06
 -0.28918535D-05  0.73802713D-05  0.44303963D-05 -0.15306625D-05  0.22246804D-05
  0.36355176D-05 -0.84893629D-06 -0.94345322D-06 -0.38205309D-05  0.71606349D-05
  0.22871203D-05 -0.70860218D-05 -0.46138260D-05  0.54323935D-06  0.31045134D-05
 -0.36648564D-05 -0.68321256D-05 -0.11547496D-04 -0.17359669D-04 -0.21328359D-04
 -0.18015209D-04 -0.67946739D-05  0.33627220D-07  0.26283632D-05  0.49211251D-05
  0.83786366D-05  0.12960477D-04  0.17068492D-04  0.17735257D-04  0.11269959D-04
 -0.75528647D-05 -0.64988955D-05  0.61202254D-04  0.22727034D-05  0.30272749D-05
  0.28382626D-05  0.20210121D-05 -0.27518200D-05 -0.25800062D-05 -0.18371181D-05
  0.11212327D-06  0.10512270D-06  0.74853623D-07 -0.14898047D-04  0.67804281D-05
 -0.14127682D-05 -0.65028261D-05  0.91106712D-05 -0.31338047D-05  0.45934704D-07
  0.25724327D-06 -0.27047152D-07 -0.14976243D-05  0.16923370D-05 -0.19471269D-06
  0.48256309D-05  0.21046606D-08 -0.13804073D-05  0.18614434D-05 -0.88596836D-05
  0.69982402D-05 -0.12271993D-04  0.92088454D-05 -0.40225816D-05 -0.23969006D-05
  0.30254519D-05 -0.62855124D-06  0.25478425D-05  0.15659129D-05 -0.62912506D-06
  0.64467686D-06 -0.49146158D-06  0.39299938D-06  0.13796239D-06  0.20390912D-05
 -0.75592622D-06 -0.20719930D-05 -0.56470641D-06 -0.42307193D-06  0.16746522D-05
  0.16202569D-05 -0.41686698D-06  0.72962452D-06  0.94578870D-07 -0.18248708D-05
 -0.19383392D-05 -0.49553495D-05  0.30754717D-05 -0.25053434D-06  0.66195539D-05
  0.13266365D-06  0.23926436D-06  0.35279516D-06 -0.43949055D-04  0.41967081D-05
 -0.25027208D-06 -0.17570000D-05  0.13781136D-05 -0.28463991D-05 -0.11263522D-04
  0.69239230D-05 -0.83310270D-05 -0.27194513D-06 -0.24900447D-06  0.24011216D-06
 -0.32283716D-06  0.10130043D-05 -0.69016713D-06  0.18494145D-05 -0.22931350D-05
  0.38871208D-05 -0.14777549D-06 -0.48540188D-06  0.63317737D-06  0.34686234D-06
 -0.15977757D-05 -0.31243641D-06  0.22916645D-06  0.41331114D-06  0.60942703D-06
  0.37289227D-05 -0.36136482D-04  0.45932003D-06 -0.18157654D-05  0.92868906D-06
  0.84141803D-06 -0.56795011D-05  0.31241731D-05 -0.15508537D-06  0.13676231D-05
 -0.43742051D-05 -0.17750821D-05 -0.88474809D-06  0.87309424D-06  0.11653844D-07
 -0.41205518D-05 -0.93334497D-06  0.12752797D-05 -0.10677895D-05  0.74551985D-06
  0.32226970D-06 -0.81868819D-06  0.15680517D-05 -0.20809315D-06 -0.11593155D-06
 -0.20908733D-06 -0.30829914D-06 -0.21622613D-04  0.91918797D-05 -0.37962093D-06
 -0.21804712D-06  0.12887539D-06  0.16559344D-05 -0.62419385D-05  0.29454111D-05
  0.49190150D-05 -0.26432012D-05 -0.50029507D-06 -0.15490601D-05  0.66466879D-07
  0.65069625D-06 -0.71716313D-06 -0.59784663D-06  0.22376784D-05 -0.24213214D-05
 -0.45927467D-06 -0.35933024D-06  0.81860490D-06 -0.10118168D-05  0.82986405D-06
 -0.64600779D-07 -0.46984234D-06 -0.84738001D-06 -0.12494613D-05  0.25689932D-05
 -0.93494177D-05 -0.58491533D-06  0.55086997D-05  0.75352126D-06  0.83842341D-06
 -0.75039804D-07 -0.43966413D-05 -0.14769927D-05 -0.71089853D-07 -0.25501572D-05
  0.32551164D-06  0.41986744D-05 -0.29051024D-05 -0.12935720D-05  0.54367205D-05
  0.10813763D-05  0.41751269D-06 -0.11180395D-05 -0.34857702D-06  0.14666166D-05
 -0.20600669D-05 -0.19545079D-08 -0.30937161D-06  0.78329899D+00  0.14734808D+01
  0.25506679D+01  0.41810328D+01  0.65496688D+01  0.98447100D+01  0.14070563D+02
  0.18679023D+02  0.21754259D+02  0.19981077D+02  0.11683721D+02  0.30658669D+01
  0.16760975D+00 -0.59990796D-02  0.16765534D-02 -0.49782529D-03  0.84870593D-04
  0.69242730D-05  0.78966558D-04  0.14508604D-03  0.25088719D-03  0.41086284D-03
  0.64688508D-03  0.97685986D-03  0.14259171D-02  0.19635744D-02  0.25089224D-02
  0.27350194D-02  0.22513421D-02  0.61730272D-03 -0.12451396D-02 -0.12134429D-02
 -0.26553550D-03 -0.89456466D-05 -0.30304992D-06  0.77091991D-09 -0.51791503D-04
 -0.10153209D-03 -0.17783094D-03 -0.29051789D-03 -0.45821669D-03 -0.69142852D-03
 -0.10137716D-02 -0.13996794D-02 -0.18146913D-02 -0.20180435D-02 -0.17527950D-02
 -0.50915560D-03  0.12835751D-02  0.18702593D-02  0.32197183D-03 -0.78547341D-03
 -0.37386554D-03  0.18055109D-05  0.18926443D-04  0.41009031D-04  0.69811372D-04
  0.11395096D-03  0.17963251D-03  0.27111733D-03  0.39750219D-03  0.54951856D-03
  0.71321996D-03  0.79679142D-03  0.69601535D-03  0.20616042D-03 -0.53589867D-03
 -0.82439330D-03 -0.14429400D-03  0.45516745D-03  0.38636833D-03 -0.14415057D-03
  0.12843948D-03  0.32420658D-04  0.68529499D-05  0.18703357D-03  0.26836005D-03
  0.35532298D-03  0.41029736D-03  0.38036453D-03  0.24625493D-03  0.86918947D-04
  0.10187650D-04  0.14810958D-06  0.21688999D-07  0.22299659D-09  0.14712955D-04
  0.21110486D-04  0.27951406D-04  0.32275954D-04  0.29921294D-04  0.19371591D-04
  0.68374604D-05  0.80140931D-06  0.11651008D-07  0.17061604D-08  0.17541979D-10
  0.17519667D-04  0.25137620D-04  0.33283545D-04  0.38433064D-04  0.35629219D-04
  0.23067006D-04  0.81418059D-05  0.95428985D-06  0.13873608D-07  0.20316355D-08
  0.20888368D-10 -0.18821137D-02 -0.27168527D-02 -0.36296503D-02 -0.43121359D-02
 -0.41787902D-02 -0.29047922D-02 -0.94519153D-03  0.42541120D-03  0.45958602D-03
  0.11831901D-03 -0.11540927D-06 -0.52753779D-03 -0.76150686D-03 -0.10173550D-02
 -0.12086489D-02 -0.11712734D-02 -0.81418445D-03 -0.26492781D-03  0.11923854D-03
  0.12881740D-03  0.33163646D-04 -0.32348075D-07 -0.15899795D-03 -0.22951536D-03
 -0.30662704D-03 -0.36428233D-03 -0.35301750D-03 -0.24539220D-03 -0.79848267D-04
  0.35938056D-04  0.38825091D-04  0.99954008D-05 -0.97495906D-08  0.13561159D-02
  0.19704965D-02  0.26197980D-02  0.31435762D-02  0.30414239D-02  0.21590568D-02
  0.67104029D-03 -0.38526901D-03 -0.44258856D-03 -0.11753328D-03  0.42406375D-04
  0.37889546D-03  0.55055192D-03  0.73196515D-03  0.87830752D-03  0.84976641D-03
  0.60323521D-03  0.18748702D-03 -0.10764322D-03 -0.12365816D-03 -0.32838512D-04
  0.11848237D-04  0.11367249D-03  0.16517118D-03  0.21959699D-03  0.26350119D-03
  0.25493857D-03  0.18097670D-03  0.56248013D-04 -0.32294061D-04 -0.37098707D-04
 -0.98518876D-05  0.35545918D-05 -0.21754317D-04 -0.56765819D-05 -0.21657982D-05
 -0.15485434D-04 -0.53769087D-06 -0.41384983D-07 -0.48830234D-06 -0.25123014D-07
  0.27987587D-08  0.20824486D-03  0.21790581D-03  0.18566741D-03  0.12227603D-03
  0.56353380D-04  0.16875111D-04  0.28711571D-05 -0.65969619D-04 -0.69030098D-04
 -0.58817338D-04 -0.38735664D-04 -0.17852114D-04 -0.53458445D-05 -0.90955012D-06
 -0.14227524D-03 -0.14887571D-03 -0.12685007D-03 -0.83540363D-04 -0.38501266D-04
 -0.11529266D-04 -0.19616069D-05  0.18679087D-03  0.19545652D-03  0.16653941D-03
  0.10967879D-03  0.50547691D-04  0.15136588D-04  0.25753621D-05  0.37969844D-04
  0.39731351D-04  0.33853238D-04  0.22294916D-04  0.10275063D-04  0.30768843D-05
  0.52350578D-06  0.12213092D-04  0.12779685D-04  0.10888976D-04  0.71712137D-05
  0.33049989D-05  0.98968727D-06  0.16838690D-06 -0.10137812D-04  0.30292007D-05
  0.71086117D-05 -0.81696551D-05 -0.13617687D-05 -0.36857788D-06 -0.35478828D-05
  0.17935906D-05  0.17542922D-05 -0.57050421D-05 -0.19450890D-05 -0.82724398D-06
  0.22593257D-05 -0.89618185D-06 -0.13631438D-05  0.52834440D-06  0.15549477D-06
  0.29176289D-07  0.44268767D-05 -0.15359809D-05 -0.64611517D-06 -0.25734918D-05
  0.77754113D-05  0.21140388D-05 -0.10707138D-04 -0.31674684D-05 -0.17569328D-06
  0.23573563D-05 -0.11333925D-05 -0.34088300D-07  0.15075521D-07  0.60852379D-06
 -0.36198405D-06 -0.12998275D-06  0.27916537D-05  0.46424895D-06  0.84756184D-07
 -0.19566393D-07
MO    2     MO 0.0        OCC NO =    2.0000000  ORB. ENERGY =  -62.698834
  0.25987469D-04  0.48446550D-04  0.81883205D-04  0.12309728D-03  0.15123923D-03
  0.12774571D-03  0.48180980D-04 -0.23845036D-06 -0.19850476D-04 -0.37166354D-04
 -0.63278898D-04 -0.97882833D-04 -0.12890825D-03 -0.13394393D-03 -0.85115352D-04
  0.57042330D-04  0.51989622D-04 -0.34320887D-03 -0.84987744D-04  0.28089999D-04
  0.26336160D-04  0.18752915D-04 -0.17248199D-04 -0.16171282D-04 -0.11514917D-04
 -0.51705995D-04 -0.48477657D-04 -0.34518980D-04 -0.11791375D-04  0.66768570D-04
  0.34261936D-04 -0.95578017D-04  0.68971887D-03  0.32520510D-04  0.10517465D-04
  0.18561993D-04 -0.59562060D-05 -0.55651327D-04  0.40421472D-04  0.15229855D-04
 -0.84347388D-04  0.12359236D-04  0.51646448D-04 -0.58854001D-04  0.77181069D-04
 -0.18327068D-04 -0.76543536D-04 -0.12121762D-03 -0.77982419D-04  0.25926705D-03
 -0.20797997D-03 -0.51287079D-04 -0.27673825D-04  0.22958797D-04 -0.16887179D-05
 -0.78700990D-04  0.38750117D-04 -0.15979232D-05  0.10040134D-03 -0.15611729D-03
 -0.43403034D-04  0.13570163D-03  0.39866938D-04  0.48196804D-04  0.10194723D-03
  0.93929968D-04 -0.15647705D-05 -0.10384940D-05 -0.18279951D-03  0.49082374D-04
  0.14499817D-04 -0.98990394D-04 -0.44388063D-04 -0.11384335D-04  0.56548297D-04
  0.16469144D-04  0.30696366D-04  0.52050866D-04  0.78781410D-04  0.98296198D-04
  0.84423325D-04  0.32411756D-04 -0.14497977D-06 -0.12174298D-04 -0.22833197D-04
 -0.38925595D-04 -0.60833128D-04 -0.81345484D-04 -0.86858012D-04 -0.53103285D-04
  0.35034322D-04  0.27777964D-04 -0.27301901D-03  0.62637114D-03 -0.35089730D-05
 -0.34025234D-05 -0.22953222D-05 -0.35977688D-04 -0.34886255D-04 -0.23534061D-04
  0.14787961D-04  0.14339348D-04  0.96732391D-05  0.42603927D-04  0.64698048D-04
 -0.12558549D-04  0.22218301D-03  0.22742354D-03  0.34488725D-04  0.38572466D-06