 Molden2AIM, Version 4.0.0 (06/02/2016)           Time: Fri Jun 29 15:59:49 2018
GAUSSIAN             13 MOL ORBITALS    287 PRIMITIVES        5 NUCLEI
  C    1    (CENTRE  1)   0.00000000  0.00000189 -2.13185673  CHARGE =  6.0
  Cl   2    (CENTRE  2)   0.00000000  0.00000000  1.24576415  CHARGE = 17.0
  H    3    (CENTRE  3)   0.00000000  1.96262042 -2.78380280  CHARGE =  1.0
  H    4    (CENTRE  4)   1.69967826 -0.98131210 -2.78380469  CHARGE =  1.0
  H    5    (CENTRE  5)  -1.69967826 -0.98131210 -2.78380469  CHARGE =  1.0
CENTRE ASSIGNMENTS    1  1  1  1  1  1  1  1  1  1  1  1  1  1  1  1  1  1  1  1
CENTRE ASSIGNMENTS    1  1  1  1  1  1  1  1  1  1  1  1  1  1  1  1  1  1  1  1
CENTRE ASSIGNMENTS    1  1  1  1  1  1  1  1  1  1  1  1  1  1  1  1  1  1  1  1
CENTRE ASSIGNMENTS    1  1  1  1  1  1  1  1  1  1  1  1  1  1  1  2  2  2  2  2
CENTRE ASSIGNMENTS    2  2  2  2  2  2  2  2  2  2  2  2  2  2  2  2  2  2  2  2
CENTRE ASSIGNMENTS    2  2  2  2  2  2  2  2  2  2  2  2  2  2  2  2  2  2  2  2
CENTRE ASSIGNMENTS    2  2  2  2  2  2  2  2  2  2  2  2  2  2  2  2  2  2  2  2
CENTRE ASSIGNMENTS    2  2  2  2  2  2  2  2  2  2  2  2  2  2  2  2  2  2  2  2
CENTRE ASSIGNMENTS    2  2  2  2  2  2  2  2  2  2  2  2  2  2  2  2  2  2  2  2
CENTRE ASSIGNMENTS    2  2  2  2  2  2  2  2  2  2  2  2  2  2  2  2  2  2  2  2
CENTRE ASSIGNMENTS    2  2  2  2  2  2  3  3  3  3  3  3  3  3  3  3  3  3  3  3
CENTRE ASSIGNMENTS    3  3  3  3  3  3  3  3  3  3  3  3  3  4  4  4  4  4  4  4
CENTRE ASSIGNMENTS    4  4  4  4  4  4  4  4  4  4  4  4  4  4  4  4  4  4  4  4
CENTRE ASSIGNMENTS    5  5  5  5  5  5  5  5  5  5  5  5  5  5  5  5  5  5  5  5
CENTRE ASSIGNMENTS    5  5  5  5  5  5  5
TYPE ASSIGNMENTS      1  1  1  1  1  1  1  1  1  1  1  1  1  1  1  1  1  1  1  2
TYPE ASSIGNMENTS      2  2  3  3  3  4  4  4  2  3  4  2  3  4  2  3  4  5  6  7
TYPE ASSIGNMENTS      8  9 10  5  6  7  8  9 10  5  6  7  8  9 10 11 12 13 17 14
TYPE ASSIGNMENTS     15 18 19 16 20 11 12 13 17 14 15 18 19 16 20  1  1  1  1  1
TYPE ASSIGNMENTS      1  1  1  1  1  1  1  1  1  1  1  1  1  1  1  1  1  1  1  1
TYPE ASSIGNMENTS      1  1  1  1  1  1  1  1  1  1  1  1  1  1  1  1  1  2  2  2
TYPE ASSIGNMENTS      2  2  2  2  3  3  3  3  3  3  3  4  4  4  4  4  4  4  2  2
TYPE ASSIGNMENTS      2  2  2  2  2  3  3  3  3  3  3  3  4  4  4  4  4  4  4  2
TYPE ASSIGNMENTS      3  4  2  3  4  2  3  4  5  6  7  8  9 10  5  6  7  8  9 10
TYPE ASSIGNMENTS      5  6  7  8  9 10 11 12 13 17 14 15 18 19 16 20 11 12 13 17
TYPE ASSIGNMENTS     14 15 18 19 16 20  1  1  1  1  1  1  2  3  4  2  3  4  2  3
TYPE ASSIGNMENTS      4  5  6  7  8  9 10  5  6  7  8  9 10  1  1  1  1  1  1  2
TYPE ASSIGNMENTS      3  4  2  3  4  2  3  4  5  6  7  8  9 10  5  6  7  8  9 10
TYPE ASSIGNMENTS      1  1  1  1  1  1  2  3  4  2  3  4  2  3  4  5  6  7  8  9
TYPE ASSIGNMENTS     10  5  6  7  8  9 10
EXPONENTS  0.8236000D+04 0.1235000D+04 0.2808000D+03 0.7927000D+02 0.2559000D+02
EXPONENTS  0.8997000D+01 0.3319000D+01 0.3643000D+00 0.8236000D+04 0.1235000D+04
EXPONENTS  0.2808000D+03 0.7927000D+02 0.2559000D+02 0.8997000D+01 0.3319000D+01
EXPONENTS  0.3643000D+00 0.9059000D+00 0.1285000D+00 0.4402000D-01 0.1871000D+02
EXPONENTS  0.4133000D+01 0.1200000D+01 0.1871000D+02 0.4133000D+01 0.1200000D+01
EXPONENTS  0.1871000D+02 0.4133000D+01 0.1200000D+01 0.3827000D+00 0.3827000D+00
EXPONENTS  0.3827000D+00 0.1209000D+00 0.1209000D+00 0.1209000D+00 0.3569000D-01
EXPONENTS  0.3569000D-01 0.3569000D-01 0.1097000D+01 0.1097000D+01 0.1097000D+01
EXPONENTS  0.1097000D+01 0.1097000D+01 0.1097000D+01 0.3180000D+00 0.3180000D+00
EXPONENTS  0.3180000D+00 0.3180000D+00 0.3180000D+00 0.3180000D+00 0.1000000D+00
EXPONENTS  0.1000000D+00 0.1000000D+00 0.1000000D+00 0.1000000D+00 0.1000000D+00
EXPONENTS  0.7610000D+00 0.7610000D+00 0.7610000D+00 0.7610000D+00 0.7610000D+00
EXPONENTS  0.7610000D+00 0.7610000D+00 0.7610000D+00 0.7610000D+00 0.7610000D+00
EXPONENTS  0.2680000D+00 0.2680000D+00 0.2680000D+00 0.2680000D+00 0.2680000D+00
EXPONENTS  0.2680000D+00 0.2680000D+00 0.2680000D+00 0.2680000D+00 0.2680000D+00
EXPONENTS  0.4561000D+06 0.6833000D+05 0.1555000D+05 0.4405000D+04 0.1439000D+04
EXPONENTS  0.5204000D+03 0.2031000D+03 0.8396000D+02 0.3620000D+02 0.1583000D+02
EXPONENTS  0.6334000D+01 0.2694000D+01 0.4313000D+00 0.4561000D+06 0.6833000D+05
EXPONENTS  0.1555000D+05 0.4405000D+04 0.1439000D+04 0.5204000D+03 0.2031000D+03
EXPONENTS  0.8396000D+02 0.3620000D+02 0.1583000D+02 0.6334000D+01 0.2694000D+01
EXPONENTS  0.4313000D+00 0.4561000D+06 0.6833000D+05 0.1555000D+05 0.4405000D+04
EXPONENTS  0.1439000D+04 0.5204000D+03 0.2031000D+03 0.8396000D+02 0.3620000D+02
EXPONENTS  0.1583000D+02 0.6334000D+01 0.2694000D+01 0.4313000D+00 0.9768000D+00
EXPONENTS  0.1625000D+00 0.5910000D-01 0.6633000D+03 0.1568000D+03 0.4998000D+02
EXPONENTS  0.1842000D+02 0.7240000D+01 0.2922000D+01 0.3818000D+00 0.6633000D+03
EXPONENTS  0.1568000D+03 0.4998000D+02 0.1842000D+02 0.7240000D+01 0.2922000D+01
EXPONENTS  0.3818000D+00 0.6633000D+03 0.1568000D+03 0.4998000D+02 0.1842000D+02
EXPONENTS  0.7240000D+01 0.2922000D+01 0.3818000D+00 0.6633000D+03 0.1568000D+03
EXPONENTS  0.4998000D+02 0.1842000D+02 0.7240000D+01 0.2922000D+01 0.3818000D+00
EXPONENTS  0.6633000D+03 0.1568000D+03 0.4998000D+02 0.1842000D+02 0.7240000D+01
EXPONENTS  0.2922000D+01 0.3818000D+00 0.6633000D+03 0.1568000D+03 0.4998000D+02
EXPONENTS  0.1842000D+02 0.7240000D+01 0.2922000D+01 0.3818000D+00 0.1022000D+01
EXPONENTS  0.1022000D+01 0.1022000D+01 0.1301000D+00 0.1301000D+00 0.1301000D+00
EXPONENTS  0.4190000D-01 0.4190000D-01 0.4190000D-01 0.1046000D+01 0.1046000D+01
EXPONENTS  0.1046000D+01 0.1046000D+01 0.1046000D+01 0.1046000D+01 0.3440000D+00
EXPONENTS  0.3440000D+00 0.3440000D+00 0.3440000D+00 0.3440000D+00 0.3440000D+00
EXPONENTS  0.1350000D+00 0.1350000D+00 0.1350000D+00 0.1350000D+00 0.1350000D+00
EXPONENTS  0.1350000D+00 0.7060000D+00 0.7060000D+00 0.7060000D+00 0.7060000D+00
EXPONENTS  0.7060000D+00 0.7060000D+00 0.7060000D+00 0.7060000D+00 0.7060000D+00
EXPONENTS  0.7060000D+00 0.3120000D+00 0.3120000D+00 0.3120000D+00 0.3120000D+00
EXPONENTS  0.3120000D+00 0.3120000D+00 0.3120000D+00 0.3120000D+00 0.3120000D+00
EXPONENTS  0.3120000D+00 0.3387000D+02 0.5095000D+01 0.1159000D+01 0.3258000D+00
EXPONENTS  0.1027000D+00 0.2526000D-01 0.1407000D+01 0.1407000D+01 0.1407000D+01
EXPONENTS  0.3880000D+00 0.3880000D+00 0.3880000D+00 0.1020000D+00 0.1020000D+00
EXPONENTS  0.1020000D+00 0.1057000D+01 0.1057000D+01 0.1057000D+01 0.1057000D+01
EXPONENTS  0.1057000D+01 0.1057000D+01 0.2470000D+00 0.2470000D+00 0.2470000D+00
EXPONENTS  0.2470000D+00 0.2470000D+00 0.2470000D+00 0.3387000D+02 0.5095000D+01
EXPONENTS  0.1159000D+01 0.3258000D+00 0.1027000D+00 0.2526000D-01 0.1407000D+01
EXPONENTS  0.1407000D+01 0.1407000D+01 0.3880000D+00 0.3880000D+00 0.3880000D+00
EXPONENTS  0.1020000D+00 0.1020000D+00 0.1020000D+00 0.1057000D+01 0.1057000D+01
EXPONENTS  0.1057000D+01 0.1057000D+01 0.1057000D+01 0.1057000D+01 0.2470000D+00
EXPONENTS  0.2470000D+00 0.2470000D+00 0.2470000D+00 0.2470000D+00 0.2470000D+00
EXPONENTS  0.3387000D+02 0.5095000D+01 0.1159000D+01 0.3258000D+00 0.1027000D+00
EXPONENTS  0.2526000D-01 0.1407000D+01 0.1407000D+01 0.1407000D+01 0.3880000D+00
EXPONENTS  0.3880000D+00 0.3880000D+00 0.1020000D+00 0.1020000D+00 0.1020000D+00
EXPONENTS  0.1057000D+01 0.1057000D+01 0.1057000D+01 0.1057000D+01 0.1057000D+01
EXPONENTS  0.1057000D+01 0.2470000D+00 0.2470000D+00 0.2470000D+00 0.2470000D+00
EXPONENTS  0.2470000D+00 0.2470000D+00
MO    1     MO 0.0        OCC NO =    2.0000000  ORB. ENERGY = -101.727620
 -0.15258462D-04 -0.28445242D-04 -0.48077469D-04 -0.72276185D-04 -0.88799644D-04
 -0.75005495D-04 -0.28289313D-04  0.14000539D-06  0.12092924D-04  0.22641769D-04
  0.38549548D-04  0.59630290D-04  0.78530994D-04  0.81598733D-04  0.51852332D-04
 -0.34750227D-04 -0.11594612D-03  0.14580803D-02  0.12947022D-03  0.31154505D-15
  0.29209328D-15  0.20798782D-15 -0.44803159D-10 -0.42005810D-10 -0.29910639D-10
  0.50127055D-04  0.46997300D-04  0.33464877D-04 -0.12646853D-14  0.12083717D-09
  0.16980141D-03 -0.11312618D-14 -0.91178069D-09  0.43309042D-03 -0.21584724D-16
  0.20155203D-10  0.11332802D-04 -0.72985930D-04 -0.72985519D-04  0.14597145D-03
  0.21345883D-15  0.15361596D-15  0.10090700D-09  0.86000488D-04  0.85999340D-04
 -0.17199983D-03  0.91880756D-15  0.50546431D-15  0.23232305D-09 -0.12765440D-04
 -0.12765646D-04  0.25531087D-04  0.17800156D-15  0.38241144D-18 -0.15797277D-09
 -0.26622108D-16  0.27097844D-04 -0.34300545D-04 -0.35207140D-16 -0.81293455D-04
  0.51450288D-04  0.11507346D-15 -0.75940454D-10  0.51451348D-04 -0.42795355D-15
 -0.56369358D-17  0.45599595D-04 -0.21929631D-04  0.33540053D-17 -0.13679898D-03
  0.32893879D-04  0.13556802D-16  0.19972402D-09  0.32895013D-04 -0.16625876D-15
  0.61720900D+00  0.11548004D+01  0.19952393D+01  0.32345156D+01  0.49118699D+01
  0.68269216D+01  0.81162249D+01  0.72293089D+01  0.35888454D+01  0.57822049D+00
  0.88772248D-02  0.15863513D-02  0.59279475D-04 -0.94663792D-03 -0.17681837D-02
 -0.30687686D-02 -0.49793643D-02 -0.77074645D-02 -0.11032535D-01 -0.14400905D-01
 -0.15346567D-01 -0.11471870D-01 -0.60557965D-03  0.77813980D-02  0.46230444D-02
 -0.17332951D-04  0.41050721D-03  0.76615256D-03  0.13315057D-02  0.21579791D-02
  0.33516793D-02  0.48013774D-02  0.63397715D-02  0.68551735D-02  0.53745449D-02
  0.26743558D-03 -0.46073438D-02 -0.47694550D-02  0.21582459D-02 -0.25559325D-02
 -0.13301038D-02 -0.36189891D-03  0.85725693D-16  0.11291998D-15  0.12457719D-15
  0.10347567D-15  0.54958444D-16  0.14175386D-16 -0.14571815D-19  0.67505147D-09
  0.88919428D-09  0.98098960D-09  0.81482462D-09  0.43277315D-09  0.11162482D-09
 -0.11474652D-12 -0.51353943D-02 -0.67644669D-02 -0.74627916D-02 -0.61987063D-02
 -0.32922835D-02 -0.84917595D-03  0.87292401D-06 -0.32633166D-16 -0.42844955D-16
 -0.48782133D-16 -0.41306707D-16 -0.23662072D-16 -0.53823005D-17  0.25192128D-17
 -0.38330818D-09 -0.50325554D-09 -0.57299346D-09 -0.48518732D-09 -0.27793398D-09
 -0.63220338D-10  0.29590597D-10  0.41690418D-02  0.54736463D-02  0.62321490D-02
  0.52771278D-02  0.30229420D-02  0.68761443D-03 -0.32184139D-03 -0.29544840D-16
  0.15308163D-10  0.14868983D-03  0.71243560D-16 -0.14145637D-09  0.62441531D-03
 -0.28981220D-17 -0.17046251D-10  0.15195782D-04 -0.11001834D-03 -0.11001798D-03
  0.22003632D-03 -0.26307552D-16  0.12081616D-15 -0.19448598D-09  0.22009215D-04
  0.22008970D-04 -0.44018186D-04  0.15351302D-16 -0.37287915D-16  0.53656623D-10
  0.43294276D-04  0.43294277D-04 -0.86588553D-04 -0.15040465D-16 -0.24676535D-16
  0.71576578D-10  0.21283447D-16  0.35598207D-05 -0.90994983D-04  0.18935687D-16
 -0.10679641D-04  0.13649249D-03 -0.82786029D-16  0.17854673D-09  0.13649246D-03
 -0.64623236D-17 -0.55496404D-17 -0.37106890D-05  0.39203117D-04 -0.51680031D-17
  0.11132142D-04 -0.58804777D-04  0.21816924D-16 -0.74725215D-10 -0.58804573D-04
  0.10506007D-16 -0.26186459D-05 -0.47228357D-05 -0.69638185D-05 -0.42404396D-03
  0.14940675D-04  0.42959901D-06 -0.17734919D-16  0.77563245D-04  0.32067288D-04
 -0.15789797D-15 -0.80778195D-05 -0.23864448D-03 -0.15297985D-15  0.13842356D-06
  0.55003893D-05  0.27788723D-04  0.75667063D-04 -0.10345579D-03  0.51584858D-16
 -0.71161241D-16  0.13371275D-03  0.67212263D-05  0.85179177D-05 -0.15239144D-04
  0.71539764D-16 -0.12521903D-16 -0.70014812D-05 -0.26186905D-05 -0.47229162D-05
 -0.69639372D-05 -0.42404588D-03  0.14938560D-04  0.42965844D-06  0.67172212D-04
 -0.38781526D-04  0.32067429D-04 -0.69955651D-05  0.40364386D-05 -0.23864423D-03
  0.11997536D-06 -0.69566698D-07  0.55000274D-05  0.63697952D-04  0.39757718D-04
 -0.10345567D-03 -0.41462670D-04  0.11579844D-03 -0.66856958D-04  0.80688549D-05
  0.71702200D-05 -0.15239075D-04 -0.15559397D-05 -0.60632698D-05  0.35006518D-05
 -0.26186905D-05 -0.47229162D-05 -0.69639372D-05 -0.42404588D-03  0.14938560D-04
  0.42965844D-06 -0.67172212D-04 -0.38781526D-04  0.32067429D-04  0.69955651D-05
  0.40364386D-05 -0.23864423D-03 -0.11997536D-06 -0.69566698D-07  0.55000274D-05
  0.63697952D-04  0.39757718D-04 -0.10345567D-03  0.41462670D-04 -0.11579844D-03
 -0.66856958D-04  0.80688549D-05  0.71702200D-05 -0.15239075D-04  0.15559397D-05
  0.60632698D-05  0.35006518D-05
MO    2     MO 0.0        OCC NO =    2.0000000  ORB. ENERGY =  -10.284867
  0.32922227D+00  0.61374516D+00  0.10373374D+01  0.15594580D+01  0.19159743D+01
  0.16183466D+01  0.61038078D+00 -0.30208086D-02 -0.26412306D-02 -0.49452171D-02
 -0.84196553D-02 -0.13023926D-01 -0.17152053D-01 -0.17822082D-01 -0.11325133D-01
  0.75898407D-02  0.33679770D-01  0.18129135D-02 -0.18616178D-03 -0.24735136D-13
 -0.23190763D-13 -0.16513204D-13  0.41056428D-08  0.38493011D-08  0.27409317D-08
  0.28763217D-02  0.26967344D-02  0.19202356D-02  0.10060188D-12  0.44431382D-07
 -0.39610387D-02  0.74825860D-13  0.10115941D-07 -0.12882182D-02  0.10445589D-14
  0.26530739D-09 -0.31101700D-04  0.83428977D-03  0.83435235D-03 -0.16686421D-02
 -0.16467425D-13 -0.13506565D-13 -0.17823403D-07  0.81924132D-03  0.81925545D-03
 -0.16384968D-02 -0.73398068D-13 -0.38164064D-13 -0.79182013D-08  0.57684959D-04
  0.57685433D-04 -0.11537039D-03 -0.12306419D-13 -0.26800503D-15 -0.18762417D-08
  0.23085909D-14  0.12959271D-02  0.64033474D-03  0.25037154D-14 -0.38877760D-02
 -0.96049232D-03 -0.94294882D-14 -0.52442799D-08 -0.96051191D-03  0.32244552D-13
  0.27113677D-15 -0.95857261D-04 -0.23165489D-03  0.65101910D-15  0.28756998D-03
  0.34747989D-03 -0.14644294D-14  0.18036064D-08  0.34748479D-03  0.13062468D-13
 -0.75952007D-04 -0.14210650D-03 -0.24552854D-03 -0.39803041D-03 -0.60444092D-03
 -0.84010181D-03 -0.99875985D-03 -0.88961846D-03 -0.44163324D-03 -0.71154191D-04
 -0.10924064D-05 -0.19521194D-06 -0.72947658D-08  0.14088915D-03  0.26316071D-03
  0.45672818D-03  0.74108422D-03  0.11471104D-02  0.16419843D-02  0.21433024D-02
  0.22840463D-02  0.17073710D-02  0.90129081D-04 -0.11581140D-02 -0.68805274D-03
  0.25796820D-05 -0.90788788D-04 -0.16944419D-03 -0.29447909D-03 -0.47726398D-03
 -0.74126568D-03 -0.10618845D-02 -0.14021195D-02 -0.15161071D-02 -0.11886476D-02
 -0.59146712D-04  0.10189715D-02  0.10548244D-02 -0.47732298D-03 -0.51871474D-03
  0.33663018D-02  0.98643484D-03  0.70570301D-14  0.92956924D-14  0.10255326D-13
  0.85182274D-14  0.45242375D-14  0.11669328D-14 -0.11995673D-17 -0.13848436D-07
 -0.18241498D-07 -0.20124645D-07 -0.16715831D-07 -0.88781840D-08 -0.22899426D-08
  0.23539832D-11 -0.33690247D-01 -0.44377617D-01 -0.48958908D-01 -0.40666000D-01
 -0.21598701D-01 -0.55709349D-02  0.57267317D-05 -0.81652680D-14 -0.10720398D-13
 -0.12205962D-13 -0.10335507D-13 -0.59205766D-14 -0.13467258D-14  0.63034178D-15
  0.10988930D-07  0.14427659D-07  0.16426951D-07  0.13909668D-07  0.79679932D-08
  0.18124420D-08 -0.84832261D-09  0.30354973D-01  0.39853854D-01  0.45376545D-01
  0.38422995D-01  0.22010171D-01  0.50065502D-02 -0.23433410D-02  0.85074520D-15
  0.14773156D-08  0.16488381D-02 -0.41704802D-14  0.25120735D-08 -0.13860890D-02
  0.27956798D-15  0.67855537D-10 -0.39839280D-04  0.13003817D-04  0.13006164D-04
 -0.26009981D-04  0.19814018D-14 -0.57622682D-14 -0.93695185D-09 -0.44375754D-03
 -0.44375931D-03  0.88751684D-03 -0.12222075D-14  0.11285146D-14 -0.42188861D-09
 -0.61816911D-04 -0.61817123D-04  0.12363403D-03  0.11134741D-14  0.14846789D-14
 -0.72784248D-09 -0.11066899D-14 -0.41834284D-04 -0.16857069D-03 -0.11484869D-14
  0.12550297D-03  0.25285693D-03  0.44685567D-14 -0.12156644D-09  0.25285513D-03
  0.28336600D-15  0.21211815D-15  0.20504959D-04 -0.94861927D-04  0.20758392D-15
 -0.61515234D-04  0.14229171D-03 -0.84393836D-15  0.35853086D-09  0.14229407D-03
 -0.78169714D-15  0.37482213D-04  0.67600714D-04  0.99677214D-04 -0.20939179D-02
 -0.13464879D-02 -0.19967650D-04 -0.87622063D-15  0.18306127D-02 -0.57894358D-03
  0.14136732D-13  0.26728703D-02 -0.12612671D-02  0.11084841D-13  0.32743245D-03
 -0.23320909D-03  0.13344470D-02 -0.22577998D-02  0.92335274D-03 -0.47265936D-14
  0.39452085D-14  0.26115949D-02  0.13702735D-03 -0.22184714D-03  0.84819790D-04
 -0.59899449D-14  0.12202235D-14  0.41165160D-03  0.37482227D-04  0.67600741D-04
  0.99677253D-04 -0.20938525D-02 -0.13464523D-02 -0.19966516D-04  0.15853371D-02
 -0.91530082D-03 -0.57893782D-03  0.23147257D-02 -0.13364163D-02 -0.12612501D-02
  0.28355899D-03 -0.16371396D-03 -0.23320914D-03 -0.13597158D-02  0.43637149D-03
  0.92334428D-03  0.31109633D-02  0.22616926D-02 -0.13057970D-02 -0.13212578D-03
  0.47306958D-04  0.84818818D-04  0.31079140D-03  0.35649953D-03 -0.20582286D-03
  0.37482227D-04  0.67600741D-04  0.99677253D-04 -0.20938525D-02 -0.13464523D-02
 -0.19966516D-04 -0.15853371D-02 -0.91530082D-03 -0.57893782D-03 -0.23147257D-02
 -0.13364163D-02 -0.12612501D-02 -0.28355899D-03 -0.16371396D-03 -0.23320914D-03
 -0.13597158D-02  0.43637149D-03  0.92334428D-03 -0.31109633D-02 -0.22616926D-02
 -0.13057970D-02 -0.13212578D-03  0.47306958D-04  0.84818818D-04 -0.31079140D-03
 -0.35649953D-03 -0.20582286D-03
MO    3     MO 0.0        OCC NO =    2.0000000  ORB. ENERGY =   -9.529602
 -0.60896462D-07 -0.11352485D-06 -0.19187700D-06 -0.28845398D-06 -0.35439904D-06
 -0.29934664D-06 -0.11290254D-06  0.55876097D-09 -0.22966293D-04 -0.43000146D-04
 -0.73211428D-04 -0.11324695D-03 -0.14914225D-03 -0.15496835D-03 -0.98475428D-04
  0.65995942D-04  0.59563231D-04 -0.22666439D-02 -0.14643028D-03 -0.18627635D-14
 -0.17464592D-14 -0.12435830D-14  0.62212698D-11  0.58328359D-11  0.41533266D-11
 -0.15062871D-03 -0.14122399D-03 -0.10055989D-03  0.76505889D-14 -0.78773756D-09
  0.55473327D-04  0.97355980D-14  0.21548335D-08 -0.95933243D-03  0.23622307D-15
 -0.68162526D-10 -0.17742769D-04 -0.24153951D-04 -0.24155291D-04  0.48309241D-04
 -0.86406095D-15 -0.22471187D-14  0.14096926D-09 -0.12913621D-03 -0.12913448D-03
  0.25827068D-03 -0.71731130D-14 -0.59570889D-15 -0.21035426D-09  0.29305732D-04
  0.29306506D-04 -0.58612238D-04 -0.23309793D-14  0.16466550D-14  0.56943301D-09
  0.37779642D-15 -0.29228048D-04  0.33208395D-04  0.39157195D-15  0.87684112D-04
 -0.49812528D-04 -0.15249612D-14  0.30614257D-10 -0.49812656D-04  0.14316461D-14
  0.12490604D-16 -0.59134225D-04  0.40064084D-04 -0.24065889D-16  0.17740297D-03
 -0.60095291D-04 -0.13405924D-16 -0.29772226D-09 -0.60096962D-04  0.13669849D-14
 -0.28941183D-02 -0.54149065D-02 -0.93557588D-02 -0.15166776D-01 -0.23031960D-01
 -0.32011715D-01 -0.38057312D-01 -0.33898526D-01 -0.16828243D-01 -0.27112996D-02
 -0.41625671D-04 -0.74384666D-05 -0.27796389D-06 -0.16847514D+00 -0.31468737D+00
 -0.54615519D+00 -0.88618793D+00 -0.13717137D+01 -0.19634835D+01 -0.25629593D+01
 -0.27312608D+01 -0.20416729D+01 -0.10777628D+00  0.13848718D+01  0.82277293D+00
 -0.30847816D-02 -0.11658106D-02 -0.21758176D-02 -0.37813795D-02 -0.61285037D-02
 -0.95185258D-02 -0.13635563D-01 -0.18004490D-01 -0.19468195D-01 -0.15263317D-01
 -0.75949761D-03  0.13084522D-01  0.13544906D-01 -0.61292614D-02  0.71679734D-01
  0.33509401D-02  0.61107281D-03  0.88092930D-14  0.11603816D-13  0.12801727D-13
  0.10633306D-13  0.56476072D-14  0.14566826D-14 -0.14974202D-17  0.31122753D-07
  0.40995650D-07  0.45227806D-07  0.37566892D-07  0.19952689D-07  0.51463805D-08
 -0.52903041D-11 -0.50563998D-01 -0.66604133D-01 -0.73479962D-01 -0.61033554D-01
 -0.32416403D-01 -0.83611360D-02  0.85949636D-05 -0.74237705D-14 -0.97468665D-14
 -0.11097525D-13 -0.93969280D-14 -0.53829222D-14 -0.12244280D-14  0.57309971D-15
  0.92210566D-09  0.12106571D-08  0.13784222D-08  0.11671913D-08  0.66861213D-09
  0.15208606D-09 -0.71184647D-10 -0.11993868D-01 -0.15747070D-01 -0.17929197D-01
 -0.15181708D-01 -0.86966668D-02 -0.19781900D-02  0.92590178D-03 -0.31996405D-15
  0.54260681D-09 -0.17585442D-02 -0.24978993D-14 -0.10582001D-10 -0.12813783D-02
  0.23669633D-16  0.36650477D-10 -0.26245095D-04 -0.44299363D-03 -0.44299423D-03
  0.88598785D-03 -0.30682322D-15 -0.16482565D-14 -0.18091133D-08  0.51624512D-04
  0.51624921D-04 -0.10324943D-03  0.11204980D-15  0.96506318D-15  0.26144529D-09
 -0.93458745D-04 -0.93458789D-04  0.18691753D-03  0.41121630D-16  0.74722512D-15
 -0.64381694D-10 -0.18970565D-15 -0.10488686D-04  0.15932798D-03 -0.18739849D-15
  0.31466230D-04 -0.23899198D-03  0.75651544D-15 -0.17103105D-09 -0.23899196D-03
 -0.23271711D-15  0.14503505D-15  0.71345833D-05 -0.58538905D-04  0.14603630D-15
 -0.21403767D-04  0.87808495D-04 -0.58114146D-15  0.16948460D-10  0.87808219D-04
  0.42269544D-16  0.26777758D-05  0.48294789D-05  0.71210639D-05  0.60452514D-03
 -0.20726726D-03 -0.39892312D-05 -0.38940134D-15 -0.13276936D-03 -0.69012190D-04
  0.21879542D-14 -0.30173652D-05  0.32607987D-03  0.23976917D-14  0.16300544D-04
 -0.21718175D-04 -0.21122896D-04 -0.41230362D-04  0.62353258D-04 -0.10080498D-14
  0.10717155D-14 -0.10194675D-03 -0.55395219D-05  0.11137696D-05  0.44257523D-05
 -0.80131836D-15 -0.42947399D-15  0.12547064D-04  0.26777984D-05  0.48295197D-05
  0.71211240D-05  0.60452769D-03 -0.20726039D-03 -0.39894123D-05 -0.11498208D-03
  0.66384354D-04 -0.69012357D-04 -0.26124923D-05  0.15118023D-05  0.32607977D-03
  0.14116494D-04 -0.81491951D-05 -0.21716965D-04 -0.36204445D-04 -0.26149010D-04
  0.62353454D-04  0.17412805D-04 -0.88288346D-04  0.50974075D-04 -0.54981084D-06
 -0.38759321D-05  0.44257430D-05 -0.57620240D-05  0.10865804D-04 -0.62734369D-05
  0.26777984D-05  0.48295197D-05  0.71211240D-05  0.60452770D-03 -0.20726039D-03
 -0.39894123D-05  0.11498208D-03  0.66384354D-04 -0.69012357D-04  0.26124923D-05
  0.15118023D-05  0.32607977D-03 -0.14116494D-04 -0.81491951D-05 -0.21716965D-04
 -0.36204445D-04 -0.26149010D-04  0.62353454D-04 -0.17412805D-04  0.88288346D-04
  0.50974075D-04 -0.54981084D-06 -0.38759321D-05  0.44257430D-05  0.57620240D-05
 -0.10865804D-04 -0.62734369D-05
MO    4     MO 0.0        OCC NO =    2.0000000  ORB. ENERGY =   -7.265164
  0.36359980D-04  0.67783269D-04  0.11456567D-03  0.17222972D-03  0.21160411D-03
  0.17873350D-03  0.67411701D-04 -0.33362427D-06 -0.90487076D-05 -0.16942036D-04
 -0.28845265D-04 -0.44619239D-04 -0.58761969D-04 -0.61057449D-04 -0.38799268D-04
  0.26002367D-04  0.43537360D-03 -0.35239419D-02 -0.59657851D-04 -0.66674967D-15
 -0.62512020D-15 -0.44512282D-15  0.46064938D-09  0.43188808D-09  0.30753004D-09
 -0.11326226D-03 -0.10619057D-03 -0.75614013D-04  0.12424437D-14 -0.48392239D-09
 -0.73118932D-03 -0.38740707D-15  0.65805804D-09 -0.52734575D-04 -0.17872293D-18
 -0.66813741D-10  0.30821103D-05  0.36440701D-03  0.36440762D-03 -0.72881463D-03
 -0.35043902D-15 -0.26037870D-15 -0.52534830D-09 -0.22045977D-03 -0.22045958D-03
  0.44091935D-03 -0.83528545D-15 -0.28988144D-15 -0.82280648D-09 -0.65602406D-05
 -0.65604021D-05  0.13120643D-04 -0.11927597D-16  0.96972530D-16 -0.82141572D-11
  0.17919330D-16 -0.64381949D-04  0.20516650D-03  0.52646972D-16  0.19314604D-03
 -0.30774759D-03 -0.10640496D-15 -0.19248799D-09 -0.30775192D-03  0.50677693D-15
  0.81273112D-17 -0.13190393D-03  0.12642626D-04  0.25859418D-16  0.39571191D-03
 -0.18963003D-04 -0.50241352D-16 -0.12565565D-09 -0.18964875D-04  0.18435159D-15
 -0.11007415D-03 -0.20594916D-03 -0.35583453D-03 -0.57684927D-03 -0.87599163D-03
 -0.12175254D-02 -0.14474620D-02 -0.12892878D-02 -0.64004108D-03 -0.10312087D-03
 -0.15831801D-05 -0.28291273D-06 -0.10572007D-07 -0.74150224D-03 -0.13850197D-02
 -0.24037689D-02 -0.39003400D-02 -0.60372631D-02 -0.86417937D-02 -0.11280240D-01
 -0.12020978D-01 -0.89859252D-02 -0.47435103D-03  0.60951752D-02  0.36212344D-02
 -0.13576914D-04 -0.16476660D-03 -0.30751311D-03 -0.53443072D-03 -0.86615498D-03
 -0.13452743D-02 -0.19271443D-02 -0.25446144D-02 -0.27514830D-02 -0.21571983D-02
 -0.10734148D-03  0.18492644D-02  0.19143315D-02 -0.86626207D-03  0.32094453D-03
  0.92925467D-03 -0.17405983D-03 -0.38387942D-13 -0.50565535D-13 -0.55785631D-13
 -0.46336379D-13 -0.24610377D-13 -0.63477340D-14  0.65252548D-17 -0.58833938D-05
 -0.77497500D-05 -0.85497897D-05 -0.71015832D-05 -0.37718233D-05 -0.97286326D-06
  0.10000704D-08  0.11481336D+02  0.15123496D+02  0.16684759D+02  0.13858610D+02
  0.73606444D+01  0.18985249D+01 -0.19516191D-02 -0.26270144D-14 -0.34490773D-14
 -0.39270283D-14 -0.33252463D-14 -0.19048291D-14 -0.43328253D-15  0.20280007D-15
 -0.67226659D-08 -0.88263675D-08 -0.10049469D-07 -0.85094774D-08 -0.48745563D-08
 -0.11087924D-08  0.51897588D-09  0.16639302D-01  0.21846184D-01  0.24873488D-01
  0.21061848D-01  0.12065037D-01  0.27443774D-02 -0.12845197D-02 -0.58254493D-15
 -0.49522897D-07  0.97012917D-01 -0.11851336D-15 -0.73129628D-10  0.53482966D-04
 -0.63454969D-17  0.27435664D-10  0.73680988D-05  0.93355164D-03  0.93355108D-03
 -0.18671027D-02  0.21729430D-18  0.21761172D-15  0.24885156D-08 -0.16157262D-03
 -0.16157220D-03  0.32314483D-03 -0.76742743D-17 -0.14700401D-15 -0.29192316D-09
 -0.50306381D-05 -0.50306487D-05  0.10061287D-04  0.12198371D-17  0.42039241D-16
 -0.35949288D-10  0.75263090D-17  0.68136468D-05  0.32065004D-03  0.51031745D-17
 -0.20439805D-04 -0.48097491D-03 -0.27682102D-16 -0.11350756D-08 -0.48097522D-03
  0.92115444D-18 -0.89792796D-17  0.36571897D-05 -0.74751530D-04 -0.90679319D-17
 -0.10971802D-04  0.11212742D-03  0.36005771D-16  0.23236070D-09  0.11212717D-03
  0.46227913D-17 -0.82527940D-05 -0.14884254D-04 -0.21946824D-04  0.12831610D-02
  0.62661946D-03  0.75946220D-05 -0.24895688D-15 -0.69368800D-04  0.97074103D-05
  0.42982309D-15 -0.90040939D-04  0.60226228D-03  0.10794371D-16 -0.86130409D-04
  0.10040629D-03 -0.92523939D-04 -0.22488680D-03  0.31741074D-03 -0.21749344D-15
  0.20040923D-16 -0.42650043D-03 -0.32782901D-04 -0.51634277D-04  0.84417179D-04
 -0.80201413D-16 -0.92443426D-17 -0.11703706D-04 -0.82527679D-05 -0.14884207D-04
 -0.21946754D-04  0.12831624D-02  0.62661708D-03  0.75944331D-05 -0.60076364D-04
  0.34684358D-04  0.97067202D-05 -0.77978219D-04  0.45025912D-04  0.60226075D-03
 -0.74590932D-04  0.43065322D-04  0.10040618D-03 -0.19179625D-03 -0.12561352D-03
  0.31740977D-03  0.11462687D-03 -0.36935927D-03  0.21325157D-03 -0.46921499D-04
 -0.37495449D-04  0.84416948D-04  0.16325787D-04 -0.10135820D-04  0.58520925D-05
 -0.82527679D-05 -0.14884207D-04 -0.21946754D-04  0.12831624D-02  0.62661708D-03
  0.75944331D-05  0.60076364D-04  0.34684358D-04  0.97067202D-05  0.77978219D-04
  0.45025912D-04  0.60226075D-03  0.74590932D-04  0.43065322D-04  0.10040618D-03
 -0.19179625D-03 -0.12561352D-03  0.31740977D-03 -0.11462687D-03  0.36935927D-03
  0.21325157D-03 -0.46921499D-04 -0.37495449D-04  0.84416948D-04 -0.16325787D-04
  0.10135820D-04  0.58520925D-05
MO    5     MO 0.0        OCC NO =    2.0000000  ORB. ENERGY =   -7.256196
  0.25370505D-09  0.47296390D-09  0.79939231D-09  0.12017485D-08  0.14764869D-08
  0.12471292D-08  0.47037125D-09 -0.23278936D-11 -0.19545609D-09 -0.36595547D-09
 -0.62307050D-09 -0.96379532D-09 -0.12692845D-08 -0.13188679D-08 -0.83808137D-09
  0.56166264D-09  0.59087211D-09 -0.54303938D-08 -0.10970644D-09  0.26817572D-10
  0.25143178D-10  0.17903441D-10  0.32928525D-04  0.30872585D-04  0.21983120D-04
 -0.33172921D-09 -0.31101722D-09 -0.22146279D-09 -0.10420127D-09 -0.12794680D-03
  0.90780901D-09  0.36178349D-09  0.44425135D-03  0.33500585D-09  0.12964233D-10
  0.15919267D-04  0.16119620D-10  0.18205582D-04 -0.18205101D-04 -0.48167286D-09
  0.29652559D-10 -0.16809031D-09 -0.20640194D-03  0.20568051D-04 -0.20568775D-04
  0.72326646D-09  0.33504839D-10  0.32667741D-09  0.40113345D-03 -0.18690385D-04
  0.18690459D-04 -0.73500576D-10 -0.30441513D-10 -0.79969640D-10 -0.98197556D-04
  0.24737198D-10  0.30376266D-04  0.25386678D-10  0.24737803D-10  0.30375035D-04
 -0.98941243D-05 -0.98949397D-10 -0.12150383D-03  0.98940482D-05 -0.16116528D-10
 -0.35273893D-10 -0.43313987D-04 -0.84014273D-10 -0.35273437D-10 -0.43312764D-04
 -0.66328668D-04  0.14109512D-09  0.17325472D-03  0.66328920D-04 -0.10803525D-09
  0.27521132D-11  0.51492143D-11  0.88967016D-11  0.14422591D-10  0.21901855D-10
  0.30441003D-10  0.36189961D-10  0.32235233D-10  0.16002535D-10  0.25782648D-11
  0.39583232D-13  0.70734847D-14  0.26432509D-15 -0.15286933D-10 -0.28553796D-10
 -0.49556498D-10 -0.80410057D-10 -0.12446522D-09 -0.17816065D-09 -0.23255530D-09
 -0.24782648D-09 -0.18525532D-09 -0.97792995D-11  0.12565914D-09  0.74655969D-10
 -0.27990391D-12 -0.58912362D-12 -0.10995144D-11 -0.19108592D-11 -0.30969406D-11
 -0.48100336D-11 -0.68905120D-11 -0.90982790D-11 -0.98379384D-11 -0.77130713D-11
 -0.38379988D-12  0.66120522D-11  0.68446998D-11 -0.30973235D-11 -0.67877753D-10
  0.10796828D-08  0.19295925D-09  0.93580960D-05  0.12326713D-04  0.13599252D-04
  0.11295742D-04  0.59994428D-05  0.15474313D-05 -0.15907068D-08  0.11491050D+02
  0.15136292D+02  0.16698876D+02  0.13870336D+02  0.73668722D+01  0.19001312D+01
 -0.19532703D-02  0.58786594D-05  0.77435138D-05  0.85429097D-05  0.70958685D-05
  0.37687881D-05  0.97208040D-06 -0.99926560D-09  0.11717073D-07  0.15383658D-07
  0.17515427D-07  0.14831344D-07  0.84959648D-08  0.19325372D-08 -0.90453378D-09
  0.14387712D-01  0.18890011D-01  0.21507667D-01  0.18211809D-01  0.10432425D-01
  0.23730148D-02 -0.11107015D-02  0.14416002D-07  0.18927153D-07  0.21549957D-07
  0.18247618D-07  0.10452938D-07  0.23776808D-08 -0.11128855D-08  0.77193391D-07
  0.94787778D-01  0.48788082D-07  0.26021592D-09  0.31952646D-03 -0.24117810D-09
 -0.10694117D-10 -0.13131550D-04 -0.21129775D-10 -0.21328294D-04  0.21329427D-04
 -0.11334200D-08 -0.34738130D-10 -0.20791124D-08 -0.25529969D-02  0.14386304D-04
 -0.14386622D-04  0.31830371D-09  0.23431888D-10  0.48366301D-09  0.59390296D-03
  0.23679460D-05 -0.23679703D-05  0.24358917D-10  0.38567941D-11 -0.45397869D-10
 -0.55745444D-04 -0.75690270D-10 -0.92941872D-04  0.19613060D-09 -0.75688980D-10
 -0.92940676D-04 -0.16004776D-04  0.30275979D-09  0.37176629D-03  0.16004187D-04
 -0.26068298D-10  0.30558618D-10  0.37523707D-04 -0.63684375D-10  0.30558489D-10
  0.37523538D-04 -0.10399894D-04 -0.12223434D-09 -0.15009466D-03  0.10400085D-04
 -0.16938814D-10  0.24118353D-04  0.43498443D-04  0.64138428D-04  0.17639445D-03
 -0.10868981D-02 -0.23616729D-04  0.78846467D-10 -0.11459417D-04 -0.90474361D-04