 Molden2AIM, Version 4.0.0 (06/02/2016)           Time: Fri Jun 29 19:00:10 2018
GAUSSIAN             25 MOL ORBITALS    494 PRIMITIVES        6 NUCLEI
  H    1    (CENTRE  1)  -1.71364900 -1.34793220  0.00002079  CHARGE =  1.0
  H    2    (CENTRE  2)   2.06651000 -3.51417628 -0.00001134  CHARGE =  1.0
  H    3    (CENTRE  3)   3.82829222 -0.73787380  0.00001890  CHARGE =  1.0
  C    4    (CENTRE  4)   0.02183768 -0.21560263 -0.00001890  CHARGE =  6.0
  Se   5    (CENTRE  5)  -0.11786600  3.15647758 -0.00000378  CHARGE = 34.0
  N    6    (CENTRE  6)   2.12636330 -1.60741994 -0.00000567  CHARGE =  7.0
CENTRE ASSIGNMENTS    1  1  1  1  1  1  1  1  1  1  1  1  1  1  1  1  1  1  1  1
CENTRE ASSIGNMENTS    1  1  1  1  1  1  1  2  2  2  2  2  2  2  2  2  2  2  2  2
CENTRE ASSIGNMENTS    2  2  2  2  2  2  2  2  2  2  2  2  2  2  3  3  3  3  3  3
CENTRE ASSIGNMENTS    3  3  3  3  3  3  3  3  3  3  3  3  3  3  3  3  3  3  3  3
CENTRE ASSIGNMENTS    3  4  4  4  4  4  4  4  4  4  4  4  4  4  4  4  4  4  4  4
CENTRE ASSIGNMENTS    4  4  4  4  4  4  4  4  4  4  4  4  4  4  4  4  4  4  4  4
CENTRE ASSIGNMENTS    4  4  4  4  4  4  4  4  4  4  4  4  4  4  4  4  4  4  4  4
CENTRE ASSIGNMENTS    4  4  4  4  4  4  4  4  4  4  4  4  4  4  4  4  5  5  5  5
CENTRE ASSIGNMENTS    5  5  5  5  5  5  5  5  5  5  5  5  5  5  5  5  5  5  5  5
CENTRE ASSIGNMENTS    5  5  5  5  5  5  5  5  5  5  5  5  5  5  5  5  5  5  5  5
CENTRE ASSIGNMENTS    5  5  5  5  5  5  5  5  5  5  5  5  5  5  5  5  5  5  5  5
CENTRE ASSIGNMENTS    5  5  5  5  5  5  5  5  5  5  5  5  5  5  5  5  5  5  5  5
CENTRE ASSIGNMENTS    5  5  5  5  5  5  5  5  5  5  5  5  5  5  5  5  5  5  5  5
CENTRE ASSIGNMENTS    5  5  5  5  5  5  5  5  5  5  5  5  5  5  5  5  5  5  5  5
CENTRE ASSIGNMENTS    5  5  5  5  5  5  5  5  5  5  5  5  5  5  5  5  5  5  5  5
CENTRE ASSIGNMENTS    5  5  5  5  5  5  5  5  5  5  5  5  5  5  5  5  5  5  5  5
CENTRE ASSIGNMENTS    5  5  5  5  5  5  5  5  5  5  5  5  5  5  5  5  5  5  5  5
CENTRE ASSIGNMENTS    5  5  5  5  5  5  5  5  5  5  5  5  5  5  5  5  5  5  5  5
CENTRE ASSIGNMENTS    5  5  5  5  5  5  5  5  5  5  5  5  5  5  5  5  5  5  5  5
CENTRE ASSIGNMENTS    5  5  5  5  5  5  5  5  5  5  5  5  5  5  5  5  5  5  5  5
CENTRE ASSIGNMENTS    5  5  5  5  5  5  5  5  5  5  5  5  5  5  5  5  5  5  5  6
CENTRE ASSIGNMENTS    6  6  6  6  6  6  6  6  6  6  6  6  6  6  6  6  6  6  6  6
CENTRE ASSIGNMENTS    6  6  6  6  6  6  6  6  6  6  6  6  6  6  6  6  6  6  6  6
CENTRE ASSIGNMENTS    6  6  6  6  6  6  6  6  6  6  6  6  6  6  6  6  6  6  6  6
CENTRE ASSIGNMENTS    6  6  6  6  6  6  6  6  6  6  6  6  6  6
TYPE ASSIGNMENTS      1  1  1  1  1  1  2  3  4  2  3  4  2  3  4  5  6  7  8  9
TYPE ASSIGNMENTS     10  5  6  7  8  9 10  1  1  1  1  1  1  2  3  4  2  3  4  2
TYPE ASSIGNMENTS      3  4  5  6  7  8  9 10  5  6  7  8  9 10  1  1  1  1  1  1
TYPE ASSIGNMENTS      2  3  4  2  3  4  2  3  4  5  6  7  8  9 10  5  6  7  8  9
TYPE ASSIGNMENTS     10  1  1  1  1  1  1  1  1  1  1  1  1  1  1  1  1  1  1  1
TYPE ASSIGNMENTS      2  2  2  3  3  3  4  4  4  2  3  4  2  3  4  2  3  4  5  6
TYPE ASSIGNMENTS      7  8  9 10  5  6  7  8  9 10  5  6  7  8  9 10 11 12 13 17
TYPE ASSIGNMENTS     14 15 18 19 16 20 11 12 13 17 14 15 18 19 16 20  1  1  1  1
TYPE ASSIGNMENTS      1  1  1  1  1  1  1  1  1  1  1  1  1  1  1  1  1  1  1  1
TYPE ASSIGNMENTS      1  1  1  1  1  1  1  1  1  1  1  1  1  1  1  1  1  1  1  1
TYPE ASSIGNMENTS      1  1  1  1  1  1  1  1  1  1  1  1  1  1  1  1  1  1  1  1
TYPE ASSIGNMENTS      1  1  1  1  1  1  1  1  1  1  1  2  2  2  2  2  2  2  2  2
TYPE ASSIGNMENTS      2  2  3  3  3  3  3  3  3  3  3  3  3  4  4  4  4  4  4  4
TYPE ASSIGNMENTS      4  4  4  4  2  2  2  2  2  2  2  2  2  2  2  3  3  3  3  3
TYPE ASSIGNMENTS      3  3  3  3  3  3  4  4  4  4  4  4  4  4  4  4  4  2  2  2
TYPE ASSIGNMENTS      2  2  2  2  2  2  2  2  3  3  3  3  3  3  3  3  3  3  3  4
TYPE ASSIGNMENTS      4  4  4  4  4  4  4  4  4  4  2  3  4  2  3  4  2  3  4  5
TYPE ASSIGNMENTS      5  5  5  5  5  5  6  6  6  6  6  6  6  7  7  7  7  7  7  7
TYPE ASSIGNMENTS      8  8  8  8  8  8  8  9  9  9  9  9  9  9 10 10 10 10 10 10
TYPE ASSIGNMENTS     10  5  6  7  8  9 10  5  6  7  8  9 10  5  6  7  8  9 10 11
TYPE ASSIGNMENTS     12 13 17 14 15 18 19 16 20 11 12 13 17 14 15 18 19 16 20  1
TYPE ASSIGNMENTS      1  1  1  1  1  1  1  1  1  1  1  1  1  1  1  1  1  1  2  2
TYPE ASSIGNMENTS      2  3  3  3  4  4  4  2  3  4  2  3  4  2  3  4  5  6  7  8
TYPE ASSIGNMENTS      9 10  5  6  7  8  9 10  5  6  7  8  9 10 11 12 13 17 14 15
TYPE ASSIGNMENTS     18 19 16 20 11 12 13 17 14 15 18 19 16 20
EXPONENTS  0.3387000D+02 0.5095000D+01 0.1159000D+01 0.3258000D+00 0.1027000D+00
EXPONENTS  0.2526000D-01 0.1407000D+01 0.1407000D+01 0.1407000D+01 0.3880000D+00
EXPONENTS  0.3880000D+00 0.3880000D+00 0.1020000D+00 0.1020000D+00 0.1020000D+00
EXPONENTS  0.1057000D+01 0.1057000D+01 0.1057000D+01 0.1057000D+01 0.1057000D+01
EXPONENTS  0.1057000D+01 0.2470000D+00 0.2470000D+00 0.2470000D+00 0.2470000D+00
EXPONENTS  0.2470000D+00 0.2470000D+00 0.3387000D+02 0.5095000D+01 0.1159000D+01
EXPONENTS  0.3258000D+00 0.1027000D+00 0.2526000D-01 0.1407000D+01 0.1407000D+01
EXPONENTS  0.1407000D+01 0.3880000D+00 0.3880000D+00 0.3880000D+00 0.1020000D+00
EXPONENTS  0.1020000D+00 0.1020000D+00 0.1057000D+01 0.1057000D+01 0.1057000D+01
EXPONENTS  0.1057000D+01 0.1057000D+01 0.1057000D+01 0.2470000D+00 0.2470000D+00
EXPONENTS  0.2470000D+00 0.2470000D+00 0.2470000D+00 0.2470000D+00 0.3387000D+02
EXPONENTS  0.5095000D+01 0.1159000D+01 0.3258000D+00 0.1027000D+00 0.2526000D-01
EXPONENTS  0.1407000D+01 0.1407000D+01 0.1407000D+01 0.3880000D+00 0.3880000D+00
EXPONENTS  0.3880000D+00 0.1020000D+00 0.1020000D+00 0.1020000D+00 0.1057000D+01
EXPONENTS  0.1057000D+01 0.1057000D+01 0.1057000D+01 0.1057000D+01 0.1057000D+01
EXPONENTS  0.2470000D+00 0.2470000D+00 0.2470000D+00 0.2470000D+00 0.2470000D+00
EXPONENTS  0.2470000D+00 0.8236000D+04 0.1235000D+04 0.2808000D+03 0.7927000D+02
EXPONENTS  0.2559000D+02 0.8997000D+01 0.3319000D+01 0.3643000D+00 0.8236000D+04
EXPONENTS  0.1235000D+04 0.2808000D+03 0.7927000D+02 0.2559000D+02 0.8997000D+01
EXPONENTS  0.3319000D+01 0.3643000D+00 0.9059000D+00 0.1285000D+00 0.4402000D-01
EXPONENTS  0.1871000D+02 0.4133000D+01 0.1200000D+01 0.1871000D+02 0.4133000D+01
EXPONENTS  0.1200000D+01 0.1871000D+02 0.4133000D+01 0.1200000D+01 0.3827000D+00
EXPONENTS  0.3827000D+00 0.3827000D+00 0.1209000D+00 0.1209000D+00 0.1209000D+00
EXPONENTS  0.3569000D-01 0.3569000D-01 0.3569000D-01 0.1097000D+01 0.1097000D+01
EXPONENTS  0.1097000D+01 0.1097000D+01 0.1097000D+01 0.1097000D+01 0.3180000D+00
EXPONENTS  0.3180000D+00 0.3180000D+00 0.3180000D+00 0.3180000D+00 0.3180000D+00
EXPONENTS  0.1000000D+00 0.1000000D+00 0.1000000D+00 0.1000000D+00 0.1000000D+00
EXPONENTS  0.1000000D+00 0.7610000D+00 0.7610000D+00 0.7610000D+00 0.7610000D+00
EXPONENTS  0.7610000D+00 0.7610000D+00 0.7610000D+00 0.7610000D+00 0.7610000D+00
EXPONENTS  0.7610000D+00 0.2680000D+00 0.2680000D+00 0.2680000D+00 0.2680000D+00
EXPONENTS  0.2680000D+00 0.2680000D+00 0.2680000D+00 0.2680000D+00 0.2680000D+00
EXPONENTS  0.2680000D+00 0.9563600D+07 0.1432100D+07 0.3259100D+06 0.9231200D+05
EXPONENTS  0.3011600D+05 0.1087200D+05 0.4240100D+04 0.1758400D+04 0.7665900D+03
EXPONENTS  0.3484300D+03 0.1640300D+03 0.7914200D+02 0.3552400D+02 0.1730500D+02
EXPONENTS  0.8378400D+01 0.3740500D+01 0.1689000D+01 0.2552000D+00 0.9563600D+07
EXPONENTS  0.1432100D+07 0.3259100D+06 0.9231200D+05 0.3011600D+05 0.1087200D+05
EXPONENTS  0.4240100D+04 0.1758400D+04 0.7665900D+03 0.3484300D+03 0.1640300D+03
EXPONENTS  0.7914200D+02 0.3552400D+02 0.1730500D+02 0.8378400D+01 0.3740500D+01
EXPONENTS  0.1689000D+01 0.2552000D+00 0.9563600D+07 0.1432100D+07 0.3259100D+06
EXPONENTS  0.9231200D+05 0.3011600D+05 0.1087200D+05 0.4240100D+04 0.1758400D+04
EXPONENTS  0.7665900D+03 0.3484300D+03 0.1640300D+03 0.7914200D+02 0.3552400D+02
EXPONENTS  0.1730500D+02 0.8378400D+01 0.3740500D+01 0.1689000D+01 0.2552000D+00
EXPONENTS  0.9563600D+07 0.1432100D+07 0.3259100D+06 0.9231200D+05 0.3011600D+05
EXPONENTS  0.1087200D+05 0.4240100D+04 0.1758400D+04 0.7665900D+03 0.3484300D+03
EXPONENTS  0.1640300D+03 0.7914200D+02 0.3552400D+02 0.1730500D+02 0.8378400D+01
EXPONENTS  0.3740500D+01 0.1689000D+01 0.2552000D+00 0.5092700D+00 0.1065100D+00
EXPONENTS  0.3920100D-01 0.8004300D+04 0.1896900D+04 0.6147100D+03 0.2335000D+03
EXPONENTS  0.9785600D+02 0.4351400D+02 0.2006300D+02 0.9112700D+01 0.4106300D+01
EXPONENTS  0.1794900D+01 0.2461500D+00 0.8004300D+04 0.1896900D+04 0.6147100D+03
EXPONENTS  0.2335000D+03 0.9785600D+02 0.4351400D+02 0.2006300D+02 0.9112700D+01
EXPONENTS  0.4106300D+01 0.1794900D+01 0.2461500D+00 0.8004300D+04 0.1896900D+04
EXPONENTS  0.6147100D+03 0.2335000D+03 0.9785600D+02 0.4351400D+02 0.2006300D+02
EXPONENTS  0.9112700D+01 0.4106300D+01 0.1794900D+01 0.2461500D+00 0.8004300D+04
EXPONENTS  0.1896900D+04 0.6147100D+03 0.2335000D+03 0.9785600D+02 0.4351400D+02
EXPONENTS  0.2006300D+02 0.9112700D+01 0.4106300D+01 0.1794900D+01 0.2461500D+00
EXPONENTS  0.8004300D+04 0.1896900D+04 0.6147100D+03 0.2335000D+03 0.9785600D+02
EXPONENTS  0.4351400D+02 0.2006300D+02 0.9112700D+01 0.4106300D+01 0.1794900D+01
EXPONENTS  0.2461500D+00 0.8004300D+04 0.1896900D+04 0.6147100D+03 0.2335000D+03
EXPONENTS  0.9785600D+02 0.4351400D+02 0.2006300D+02 0.9112700D+01 0.4106300D+01
EXPONENTS  0.1794900D+01 0.2461500D+00 0.8004300D+04 0.1896900D+04 0.6147100D+03
EXPONENTS  0.2335000D+03 0.9785600D+02 0.4351400D+02 0.2006300D+02 0.9112700D+01
EXPONENTS  0.4106300D+01 0.1794900D+01 0.2461500D+00 0.8004300D+04 0.1896900D+04
EXPONENTS  0.6147100D+03 0.2335000D+03 0.9785600D+02 0.4351400D+02 0.2006300D+02
EXPONENTS  0.9112700D+01 0.4106300D+01 0.1794900D+01 0.2461500D+00 0.8004300D+04
EXPONENTS  0.1896900D+04 0.6147100D+03 0.2335000D+03 0.9785600D+02 0.4351400D+02
EXPONENTS  0.2006300D+02 0.9112700D+01 0.4106300D+01 0.1794900D+01 0.2461500D+00
EXPONENTS  0.6243200D+00 0.6243200D+00 0.6243200D+00 0.8891700D-01 0.8891700D-01
EXPONENTS  0.8891700D-01 0.3025100D-01 0.3025100D-01 0.3025100D-01 0.3618500D+03
EXPONENTS  0.1085500D+03 0.4143300D+02 0.1757900D+02 0.7862700D+01 0.3518000D+01
EXPONENTS  0.1534800D+01 0.3618500D+03 0.1085500D+03 0.4143300D+02 0.1757900D+02
EXPONENTS  0.7862700D+01 0.3518000D+01 0.1534800D+01 0.3618500D+03 0.1085500D+03
EXPONENTS  0.4143300D+02 0.1757900D+02 0.7862700D+01 0.3518000D+01 0.1534800D+01
EXPONENTS  0.3618500D+03 0.1085500D+03 0.4143300D+02 0.1757900D+02 0.7862700D+01
EXPONENTS  0.3518000D+01 0.1534800D+01 0.3618500D+03 0.1085500D+03 0.4143300D+02
EXPONENTS  0.1757900D+02 0.7862700D+01 0.3518000D+01 0.1534800D+01 0.3618500D+03
EXPONENTS  0.1085500D+03 0.4143300D+02 0.1757900D+02 0.7862700D+01 0.3518000D+01
EXPONENTS  0.1534800D+01 0.6081300D+00 0.6081300D+00 0.6081300D+00 0.6081300D+00
EXPONENTS  0.6081300D+00 0.6081300D+00 0.2220000D+00 0.2220000D+00 0.2220000D+00
EXPONENTS  0.2220000D+00 0.2220000D+00 0.2220000D+00 0.8370000D-01 0.8370000D-01
EXPONENTS  0.8370000D-01 0.8370000D-01 0.8370000D-01 0.8370000D-01 0.4620000D+00
EXPONENTS  0.4620000D+00 0.4620000D+00 0.4620000D+00 0.4620000D+00 0.4620000D+00
EXPONENTS  0.4620000D+00 0.4620000D+00 0.4620000D+00 0.4620000D+00 0.1880000D+00
EXPONENTS  0.1880000D+00 0.1880000D+00 0.1880000D+00 0.1880000D+00 0.1880000D+00
EXPONENTS  0.1880000D+00 0.1880000D+00 0.1880000D+00 0.1880000D+00 0.1142000D+05
EXPONENTS  0.1712000D+04 0.3893000D+03 0.1100000D+03 0.3557000D+02 0.1254000D+02
EXPONENTS  0.4644000D+01 0.5118000D+00 0.1142000D+05 0.1712000D+04 0.3893000D+03
EXPONENTS  0.1100000D+03 0.3557000D+02 0.1254000D+02 0.4644000D+01 0.5118000D+00
EXPONENTS  0.1293000D+01 0.1787000D+00 0.5760000D-01 0.2663000D+02 0.5948000D+01
EXPONENTS  0.1742000D+01 0.2663000D+02 0.5948000D+01 0.1742000D+01 0.2663000D+02
EXPONENTS  0.5948000D+01 0.1742000D+01 0.5550000D+00 0.5550000D+00 0.5550000D+00
EXPONENTS  0.1725000D+00 0.1725000D+00 0.1725000D+00 0.4910000D-01 0.4910000D-01
EXPONENTS  0.4910000D-01 0.1654000D+01 0.1654000D+01 0.1654000D+01 0.1654000D+01
EXPONENTS  0.1654000D+01 0.1654000D+01 0.4690000D+00 0.4690000D+00 0.4690000D+00
EXPONENTS  0.4690000D+00 0.4690000D+00 0.4690000D+00 0.1510000D+00 0.1510000D+00
EXPONENTS  0.1510000D+00 0.1510000D+00 0.1510000D+00 0.1510000D+00 0.1093000D+01
EXPONENTS  0.1093000D+01 0.1093000D+01 0.1093000D+01 0.1093000D+01 0.1093000D+01
EXPONENTS  0.1093000D+01 0.1093000D+01 0.1093000D+01 0.1093000D+01 0.3640000D+00
EXPONENTS  0.3640000D+00 0.3640000D+00 0.3640000D+00 0.3640000D+00 0.3640000D+00
EXPONENTS  0.3640000D+00 0.3640000D+00 0.3640000D+00 0.3640000D+00
MO    1     MO 0.0        OCC NO =    2.0000000  ORB. ENERGY = -454.246131
  0.20538397D-06  0.37041844D-06  0.54618177D-06 -0.21860744D-04 -0.28351821D-04
  0.55020628D-06 -0.22789277D-05  0.11496536D-05  0.43357225D-10 -0.80802205D-05
 -0.34022496D-06  0.16743550D-10 -0.74504365D-05  0.44708826D-05  0.15051234D-09
 -0.21397462D-05  0.26826871D-05 -0.54294083D-06 -0.27929156D-05 -0.17837118D-09
  0.25102897D-09  0.23414314D-06 -0.61691271D-07 -0.17245187D-06  0.66070479D-06
  0.76765822D-10 -0.17292689D-09 -0.57801680D-06 -0.10424771D-05 -0.15371319D-05
  0.15519812D-04 -0.54379292D-05  0.40568931D-06  0.27407026D-05  0.35860141D-05
 -0.59580589D-10  0.41661421D-06  0.43676997D-05  0.34768734D-09  0.22946666D-05
 -0.10348242D-05  0.59036048D-10 -0.26052423D-05  0.17867404D-05  0.81850189D-06
 -0.17039338D-05 -0.11617322D-09  0.22963376D-09  0.76003149D-06 -0.77739129D-07
 -0.68229236D-06  0.47905139D-06 -0.25870128D-10  0.10167191D-09  0.57071924D-07
  0.10293157D-06  0.15177253D-06  0.12163141D-04  0.11372946D-04  0.11511599D-06
 -0.35896744D-05 -0.64785607D-06 -0.17703098D-09 -0.95611810D-06  0.60609336D-05
  0.36001589D-09  0.57244943D-06 -0.13614179D-05 -0.14372822D-10 -0.57080190D-07
 -0.98847111D-06  0.10455513D-05 -0.44914894D-05 -0.29012649D-09 -0.10546336D-09
 -0.28247275D-06 -0.61793747D-06  0.90041022D-06  0.52506942D-07 -0.55808735D-10
 -0.49242454D-10 -0.51194752D-06 -0.95438657D-06 -0.16130814D-05 -0.24249898D-05
 -0.29793801D-05 -0.25165628D-05 -0.94915490D-06  0.46974206D-08  0.69407196D-06
  0.12995217D-05  0.22125469D-05  0.34224736D-05  0.45072773D-05  0.46833499D-05
  0.29760586D-05 -0.19944853D-05 -0.12348442D-04  0.54874954D-04  0.13108480D-04
  0.15050897D-05  0.14111172D-05  0.10047995D-05 -0.13464421D-04 -0.12623750D-04
 -0.89888622D-05 -0.32226108D-09 -0.30214024D-09 -0.21514185D-09 -0.30917030D-05
  0.89126442D-06  0.31385814D-09 -0.13464747D-04  0.14215909D-04  0.31579587D-09
  0.51679350D-06  0.16516971D-05  0.18512292D-11  0.29725253D-06 -0.75789597D-05
  0.72817071D-05 -0.19780155D-06  0.22854749D-10 -0.44011412D-11 -0.64836186D-05
  0.18194198D-04 -0.11710579D-04  0.52745989D-06 -0.36154552D-09 -0.25746306D-11
 -0.45171628D-05  0.65046001D-05 -0.19874373D-05  0.47141448D-05  0.43816946D-10
 -0.18949573D-10 -0.14989191D-05  0.21740184D-05  0.37099120D-10  0.31986855D-05
 -0.58205892D-05 -0.27029397D-09  0.12980718D-05 -0.70146603D-06  0.15899661D-09
  0.26188481D-09  0.71764809D-06  0.29474927D-05 -0.56349414D-10 -0.29615378D-05
 -0.52369261D-05  0.98209455D-10  0.80859354D-06 -0.36055519D-05  0.70838786D-10
  0.14910987D-09  0.77215888D+00  0.14427429D+01  0.25022568D+01  0.40993359D+01
  0.64192344D+01  0.96399782D+01  0.13749369D+02  0.18165702D+02  0.20949520D+02
  0.18855240D+02  0.10578258D+02  0.25573506D+01  0.12141033D+00 -0.20776956D-02
  0.58436625D-03 -0.22772659D-03  0.21540336D-04  0.21239225D-05  0.75905744D-04
  0.13978161D-03  0.24262575D-03  0.39737554D-03  0.62545081D-03  0.94403518D-03
  0.13761283D-02  0.18897133D-02  0.23999118D-02  0.25845527D-02  0.20619076D-02
  0.46185086D-03 -0.12349788D-02 -0.10982351D-02 -0.21448976D-03 -0.59418077D-05
 -0.43028551D-06 -0.87876073D-08 -0.56631005D-04 -0.10224203D-03 -0.17798391D-03
 -0.29145617D-03 -0.45949725D-03 -0.69336871D-03 -0.10147967D-02 -0.13982565D-02
 -0.18013290D-02 -0.19826968D-02 -0.16691092D-02 -0.39747463D-03  0.13388474D-02
  0.17889808D-02  0.21977995D-03 -0.76794099D-03 -0.33899599D-03  0.16823761D-05
  0.19516685D-04  0.42282680D-04  0.71980724D-04  0.11749797D-03  0.18524060D-03
  0.27953847D-03  0.40912826D-03  0.56436680D-03  0.72797417D-03  0.80478710D-03
  0.68159500D-03  0.16556395D-03 -0.57440938D-03 -0.81071296D-03 -0.96729222D-04
  0.45460509D-03  0.36339100D-03 -0.13766970D-03  0.12013611D-03 -0.10716295D-04
 -0.59081307D-05  0.13407153D-04  0.19215560D-04  0.25374884D-04  0.29167150D-04
  0.26831954D-04  0.17165136D-04  0.59415194D-05  0.66796886D-06  0.84981920D-08
  0.14725898D-08  0.15048265D-10  0.27646983D-03  0.39624538D-03  0.52325723D-03
  0.60145780D-03  0.55330358D-03  0.35396346D-03  0.12252048D-03  0.13774232D-04
  0.17524180D-06  0.30366376D-07  0.31031132D-09  0.12466531D-08  0.17867431D-08
  0.23594628D-08  0.27120835D-08  0.24949473D-08  0.15960861D-08  0.55246732D-09
  0.62110537D-10  0.79019743D-12  0.13692756D-12  0.13992506D-14  0.51633491D-04
  0.74477243D-04  0.99194051D-04  0.11739251D-03  0.11280979D-03  0.77540255D-04
  0.24413143D-04 -0.11798652D-04 -0.12108272D-04 -0.30493123D-05  0.33246106D-08
 -0.21295897D-02 -0.30717653D-02 -0.40911940D-02 -0.48417776D-02 -0.46527664D-02
 -0.31980973D-02 -0.10069042D-02  0.48662769D-03  0.49939780D-03  0.12576690D-03
 -0.13712140D-06 -0.12218408D-07 -0.17624091D-07 -0.23473009D-07 -0.27779442D-07
 -0.26695001D-07 -0.18348914D-07 -0.57770592D-08  0.27920006D-08  0.28652684D-08
  0.72158092D-09 -0.78672674D-12 -0.37655695D-04 -0.54588971D-04 -0.72453206D-04
 -0.86465970D-04 -0.83073270D-04 -0.58146861D-04 -0.17556928D-04  0.10747459D-04
  0.11558700D-04  0.31085126D-05 -0.11587521D-05  0.15813722D-02  0.22924947D-02
  0.30427133D-02  0.36311873D-02  0.34887089D-02  0.24419103D-02  0.73731311D-03
 -0.45134562D-03 -0.48541416D-03 -0.13054374D-03  0.48662450D-04  0.88222067D-08
  0.12789438D-07  0.16974781D-07  0.20257777D-07  0.19462914D-07  0.13623003D-07
  0.41133446D-08 -0.25179805D-08 -0.27080431D-08 -0.72828136D-09  0.27147954D-09
 -0.66379617D-07 -0.14466193D-04 -0.13480648D-09 -0.18327298D-05 -0.39671744D-05
  0.54087264D-10 -0.38542541D-07  0.62534077D-07  0.95446691D-12 -0.13780822D-03
 -0.14264468D-03 -0.11934613D-03 -0.77012144D-04 -0.34594908D-04 -0.10101153D-04
 -0.17041264D-05  0.30224527D-03  0.31285274D-03  0.26175364D-03  0.16890543D-03
  0.75874627D-04  0.22154163D-04  0.37375431D-05 -0.16443705D-03 -0.17020806D-03
 -0.14240751D-03 -0.91893283D-04 -0.41279719D-04 -0.12053010D-04 -0.20334166D-05
 -0.52768399D-04 -0.54620335D-04 -0.45699045D-04 -0.29488861D-04 -0.13246800D-04
 -0.38678511D-05 -0.65253018D-06 -0.66250705D-09 -0.68575811D-09 -0.57375134D-09
 -0.37023254D-09 -0.16631352D-09 -0.48560856D-10 -0.81925140D-11  0.23698233D-08
  0.24529935D-08  0.20523393D-08  0.13243417D-08  0.59491238D-09  0.17370479D-09
  0.29305062D-10  0.72721033D-05 -0.16985942D-04  0.97138385D-05  0.29729085D-05
  0.52648873D-10 -0.12282373D-09  0.24202380D-05 -0.34389031D-05  0.10186651D-05
 -0.14955885D-05 -0.47550322D-10 -0.12762794D-09 -0.45107579D-06  0.13647264D-05
 -0.91365060D-06  0.74232946D-07  0.11536259D-10  0.10778159D-10  0.86861228D-08
  0.53403916D-05 -0.45357364D-10 -0.85035816D-06 -0.67289757D-05 -0.38826419D-10
  0.82429980D-06 -0.92921992D-05  0.17489851D-09  0.73476530D-10 -0.10228795D-06
 -0.80044508D-06  0.69192805D-11  0.76148884D-06  0.40607884D-06 -0.52218720D-11
 -0.45462501D-06  0.19952564D-05 -0.15535969D-10  0.18205194D-11 -0.21253637D-06
 -0.39603023D-06 -0.66978640D-06 -0.10086612D-05 -0.12487880D-05 -0.10626622D-05
 -0.40436258D-06  0.18938025D-08  0.11049646D-06  0.20718189D-06  0.35247803D-06
  0.54736117D-06  0.72638011D-06  0.76550493D-06  0.47466189D-06 -0.31574527D-06
  0.14294349D-05  0.14360729D-06 -0.53960198D-05  0.10428304D-05  0.10016261D-05
  0.70240935D-06 -0.29685752D-05 -0.28512810D-05 -0.19995150D-05 -0.17152580D-09
 -0.16474848D-09 -0.11553301D-09  0.14829152D-05  0.50174174D-05  0.16394709D-09
  0.39611578D-05 -0.30238940D-06 -0.51943101D-09 -0.12852573D-05 -0.52719517D-06
 -0.23250716D-10  0.31574669D-05 -0.31453431D-05 -0.12123760D-07  0.31202713D-05
  0.18782964D-09 -0.23496721D-09 -0.13985459D-05 -0.16439864D-06  0.15629446D-05
 -0.27055579D-05 -0.29296389D-09  0.19292660D-09 -0.25552577D-05 -0.94072347D-06
  0.34959812D-05 -0.13118007D-06 -0.92819453D-10 -0.67662017D-10 -0.14826336D-05
  0.36280609D-06 -0.19657140D-10  0.23021467D-05  0.15979708D-05 -0.33068492D-10
  0.21457540D-05 -0.26863891D-05  0.92039912D-10  0.10508503D-09  0.18369865D-05
  0.11888046D-05  0.53751221D-10 -0.46283271D-05 -0.43070373D-05 -0.79938889D-11
 -0.88263235D-06  0.74062360D-06 -0.15325977D-09 -0.35216459D-09
MO    2     MO 0.0        OCC NO =    2.0000000  ORB. ENERGY =  -58.190929
 -0.85973694D-06 -0.15505710D-05 -0.22863160D-05  0.77538137D-03  0.97291436D-03
 -0.13965943D-04  0.80788581D-04 -0.29885469D-04 -0.83769248D-09  0.22627004D-03
  0.46295107D-04 -0.27356918D-08  0.25041891D-03 -0.14604500D-03 -0.48622045D-08
  0.47120744D-04 -0.85697040D-04  0.38576295D-04  0.11300834D-03  0.63190904D-08
 -0.10303565D-07 -0.96365064D-05 -0.29619367D-05  0.12598443D-04 -0.12011093D-04
 -0.19682181D-08  0.50058247D-08  0.14281895D-04  0.25757985D-04  0.37980134D-04
 -0.49792028D-03  0.17887590D-03 -0.13339935D-04 -0.10107936D-03 -0.69876033D-04
  0.23370615D-08 -0.61555694D-04 -0.10393924D-03 -0.12414518D-07 -0.81352072D-04
  0.35633818D-04 -0.19628254D-08  0.81656716D-04 -0.24353692D-04 -0.57303024D-04
  0.13538085D-04  0.43106245D-08 -0.77298846D-08 -0.29023610D-04  0.90525156D-05
  0.19971094D-04 -0.18360285D-04  0.71874288D-09 -0.34402390D-08 -0.72433407D-05
 -0.13063663D-04 -0.19262364D-04 -0.40676022D-03 -0.38894230D-03 -0.49397654D-05
  0.79085068D-04  0.12446313D-04  0.53204071D-08 -0.93056500D-05 -0.22405417D-03
 -0.12486649D-07 -0.16353773D-04  0.46966490D-04  0.41611220D-09  0.31417306D-04
  0.34503559D-04 -0.65920866D-04  0.17866685D-03  0.11252938D-07  0.43527742D-08
  0.12790450D-04  0.18789953D-04 -0.31580404D-04  0.14637178D-04  0.22167788D-08
  0.17398597D-08  0.33986118D-04  0.63357851D-04  0.10708593D-03  0.16098523D-03
  0.19778895D-03  0.16706439D-03  0.63010541D-04 -0.31184268D-06 -0.33758955D-04
 -0.63207416D-04 -0.10761603D-03 -0.16646564D-03 -0.21922939D-03 -0.22779338D-03
 -0.14475247D-03  0.97009738D-04  0.37671401D-03 -0.17791778D-02 -0.38598095D-03
 -0.52964814D-04 -0.49657880D-04 -0.35359369D-04  0.36674638D-03  0.34384804D-03
  0.24484029D-03  0.97547771D-08  0.91457236D-08  0.65123000D-08  0.67126414D-04
  0.12103228D-03 -0.94518179D-08  0.48405625D-03 -0.46795527D-03 -0.10258566D-07
 -0.15388992D-04 -0.49879573D-04 -0.68434032D-10 -0.23708436D-04  0.28068433D-03
 -0.25697589D-03  0.16760849D-04 -0.13223286D-08 -0.37329336D-09  0.17961564D-03
 -0.55450456D-03  0.37488892D-03  0.30829230D-04  0.11780869D-07  0.87234155D-09
  0.14972735D-03 -0.21361424D-03  0.63886887D-04 -0.16339448D-03 -0.12843514D-08
  0.98620629D-09  0.59661275D-04 -0.55248029D-04 -0.12412036D-08 -0.13913695D-03
  0.17217371D-03  0.82790487D-08 -0.39846880D-04 -0.64296196D-05 -0.45554379D-08
 -0.76205503D-08 -0.20411693D-04 -0.12013405D-03  0.16574691D-08  0.95983148D-04
  0.22721441D-03 -0.27802541D-08 -0.34748069D-04  0.13318774D-03 -0.21921532D-08
 -0.46980094D-08  0.66086318D-03  0.12347920D-02  0.21415921D-02  0.35084750D-02
  0.54939932D-02  0.82505128D-02  0.11767594D-01  0.15547375D-01  0.17929945D-01
  0.16137526D-01  0.90535532D-02  0.21887449D-02  0.10391076D-03 -0.17782254D-05
  0.50013818D-06 -0.19490305D-06  0.18435604D-07  0.18177893D-08 -0.24626972D+00
 -0.45350952D+00 -0.78717859D+00 -0.12892511D+01 -0.20292219D+01 -0.30628417D+01
 -0.44647310D+01 -0.61310137D+01 -0.77863093D+01 -0.83853612D+01 -0.66896836D+01
 -0.14984358D+01  0.40067835D+01  0.35631301D+01  0.69589376D+00  0.19277689D-01
  0.13960247D-02  0.28510643D-04  0.16769561D-02  0.30275890D-02  0.52704559D-02
  0.86305940D-02  0.13606623D-01  0.20532020D-01  0.30050139D-01  0.41405142D-01
  0.53340918D-01  0.58711577D-01  0.49425627D-01  0.11770011D-01 -0.39645921D-01
 -0.52975261D-01 -0.65081191D-02  0.22740252D-01  0.10038342D-01 -0.49818487D-04
 -0.60310911D-03 -0.13066292D-02 -0.22243650D-02 -0.36309496D-02 -0.57243478D-02
 -0.86383625D-02 -0.12642976D-01 -0.17440194D-01 -0.22496027D-01 -0.24869717D-01
 -0.21062807D-01 -0.51162957D-02  0.17750532D-01  0.25052840D-01  0.29891488D-02
 -0.14048312D-01 -0.11229593D-01  0.42543009D-02 -0.37219213D-02  0.34223596D-03
  0.16281713D-03  0.48630994D-02  0.69699492D-02  0.92040854D-02  0.10579632D-01
  0.97326002D-02  0.62262110D-02  0.21551331D-02  0.24228850D-03  0.30825002D-05
  0.53414402D-06  0.54583706D-08 -0.44611658D-01 -0.63938852D-01 -0.84433707D-01
 -0.97052289D-01 -0.89282039D-01 -0.57116167D-01 -0.19770121D-01 -0.22226343D-02
 -0.28277326D-04 -0.48999719D-05 -0.50072380D-07 -0.36803607D-06 -0.52748104D-06
 -0.69655895D-06 -0.80065940D-06 -0.73655660D-06 -0.47119544D-06 -0.16309902D-06
 -0.18336229D-07 -0.23328153D-09 -0.40423658D-10 -0.41308580D-12 -0.10288276D-02
 -0.14840028D-02 -0.19764997D-02 -0.23391147D-02 -0.22478014D-02 -0.15450351D-02
 -0.48644620D-03  0.23509506D-03  0.24126444D-03  0.60759339D-04 -0.66244817D-07
  0.64837252D-01  0.93522628D-01  0.12456004D+00  0.14741222D+00  0.14165761D+00
  0.97368916D-01  0.30656093D-01 -0.14815813D-01 -0.15204610D-01 -0.38290851D-02
  0.41747829D-05  0.41057004D-06  0.59221493D-06  0.78875366D-06  0.93346094D-06
  0.89702091D-06  0.61657085D-06  0.19412410D-06 -0.93818424D-07 -0.96280413D-07
 -0.24246981D-07  0.26436049D-10  0.80637167D-03  0.11689865D-02  0.15515372D-02
  0.18516113D-02  0.17789589D-02  0.12451764D-02  0.37596994D-03 -0.23014969D-03
 -0.24752188D-03 -0.66566731D-04  0.24813906D-04 -0.48973598D-01 -0.70996388D-01
 -0.94229949D-01 -0.11245443D+00 -0.10804201D+00 -0.75623647D-01 -0.22833888D-01
  0.13977746D-01  0.15032816D-01  0.40428160D-02 -0.15070299D-02 -0.30147335D-06
 -0.43704199D-06 -0.58006394D-06 -0.69225081D-06 -0.66508869D-06 -0.46552663D-06
 -0.14056163D-06  0.86044687D-07  0.92539524D-07  0.24886905D-07 -0.92770264D-08
  0.18749186D-04  0.31036451D-03  0.40301477D-08  0.65199322D-04  0.14317473D-03
 -0.20068676D-08  0.13252551D-05 -0.66007628D-06 -0.18333935D-10  0.13259461D-02
  0.13724809D-02  0.11483098D-02  0.74098592D-03  0.33286101D-03  0.97190027D-04
  0.16396553D-04 -0.70541031D-02 -0.73016708D-02 -0.61090687D-02 -0.39420841D-02
 -0.17708381D-02 -0.51705605D-03 -0.87230525D-04  0.57281570D-02  0.59291898D-02
  0.49607589D-02  0.32010982D-02  0.14379771D-02  0.41986603D-03  0.70833972D-04
  0.11503744D-02  0.11907475D-02  0.99625941D-03  0.64287022D-03  0.28878609D-03
  0.84320865D-04  0.14225447D-04  0.54074910D-07  0.55972699D-07  0.46830524D-07
  0.30218986D-07  0.13574782D-07  0.39636166D-08  0.66868641D-09  0.26392155D-08
  0.27318402D-08  0.22856412D-08  0.14748876D-08  0.66253968D-09  0.19345086D-09
  0.32636346D-10 -0.23160501D-03  0.55360321D-03 -0.32199820D-03 -0.93820348D-04
 -0.17899811D-08  0.41726297D-08 -0.69954632D-04  0.86107678D-04 -0.16153046D-04
  0.57847048D-04  0.15209184D-08  0.43112168D-08  0.15235859D-04 -0.45211138D-04
  0.29975280D-04 -0.38287172D-05 -0.41378010D-09 -0.31483040D-09  0.13315890D-05
 -0.15900655D-03  0.14887187D-08  0.18438850D-04  0.20651529D-03  0.12213340D-08
 -0.22433617D-04  0.27050436D-03 -0.56874900D-08 -0.25579596D-08  0.36182748D-05
  0.27599611D-04 -0.24471349D-09 -0.25779369D-04 -0.15051392D-04  0.19325565D-09
  0.14924544D-04 -0.67747442D-04  0.54088481D-09  0.16162436D-10  0.10803022D-04
  0.20129841D-04  0.34044608D-04  0.51269293D-04  0.63474711D-04  0.54014115D-04
  0.20553367D-04 -0.96260186D-07 -0.59880315D-05 -0.11227615D-04 -0.19101514D-04
 -0.29662634D-04 -0.39364041D-04 -0.41484296D-04 -0.25722910D-04  0.17110890D-04
 -0.41079993D-04 -0.49420279D-04  0.15167151D-03  0.26716194D-05  0.25660585D-05
  0.17994973D-05  0.59851391D-04  0.57486546D-04  0.40313534D-04  0.64722520D-08
  0.62165207D-08  0.43594534D-08 -0.15889027D-03 -0.76079161D-04 -0.69911218D-08
 -0.80033082D-04  0.80503115D-05  0.18006249D-07  0.44233357D-04  0.13756700D-04
  0.82021130D-09 -0.10293751D-03  0.10166559D-03  0.12719282D-05 -0.11260697D-03
 -0.79658492D-08  0.71279374D-08  0.46677103D-04 -0.17874271D-04 -0.28802832D-04
  0.93823400D-05  0.99524488D-08 -0.74134892D-08  0.86774564D-04  0.28841029D-04
 -0.11561559D-03 -0.95604979D-05  0.29847402D-08  0.20467152D-08  0.20972498D-04
  0.32421218D-04  0.15213437D-08 -0.55843827D-04 -0.17089782D-03 -0.19579482D-08
 -0.70736682D-05  0.73634168D-04 -0.26060828D-08 -0.56866107D-08 -0.57244826D-04
 -0.62230304D-04 -0.21144735D-08  0.17213218D-03  0.20112430D-03  0.10815175D-08
 -0.39770569D-06 -0.14433386D-04  0.52619031D-08  0.12668944D-07
MO    3     MO 0.0        OCC NO =    2.0000000  ORB. ENERGY =  -52.201885
  0.94009393D-05  0.16954981D-04  0.25000110D-04  0.16845794D-03  0.93950433D-03
  0.98681895D-05  0.69155640D-04  0.58325906D-04  0.24851782D-09 -0.14885913D-03
  0.11682949D-03 -0.27742206D-08  0.94116060D-04  0.13700910D-03 -0.16978629D-08
 -0.56420442D-04  0.87179741D-05  0.47702468D-04  0.87458342D-04  0.33261871D-08
 -0.59789753D-08 -0.20030859D-04  0.51912555D-05  0.14839603D-04  0.36888995D-04
  0.30424888D-08 -0.29816429D-08 -0.10306784D-04 -0.18588710D-04 -0.27409041D-04
 -0.16273964D-03 -0.23684885D-03  0.12195382D-04 -0.21487109D-04  0.54451203D-04
 -0.13050046D-10 -0.12273481D-04  0.46415002D-04 -0.25885310D-08  0.33311297D-04
 -0.49213990D-04  0.51987471D-09  0.78170293D-05  0.55842787D-04 -0.63659816D-04
 -0.42005131D-04  0.26609167D-08 -0.23408321D-08 -0.27482573D-05  0.16599882D-04
 -0.13851624D-04 -0.60400450D-05  0.11155846D-09 -0.16590357D-10 -0.12262686D-04
 -0.22116259D-04 -0.32610410D-04  0.85126440D-04  0.15210311D-03 -0.80610111D-05
 -0.76167456D-04 -0.33061534D-05 -0.10301944D-08 -0.16841243D-03  0.14969382D-04
 -0.47548084D-08 -0.43090679D-04  0.19187672D-05 -0.88245402D-09  0.10099974D-03