 Molden2AIM, Version 4.0.0 (06/02/2016)           Time: Fri Jun 29 20:18:12 2018
GAUSSIAN              9 MOL ORBITALS    285 PRIMITIVES        7 NUCLEI
  N    1    (CENTRE  1)  -1.68566405 -0.09027978 -0.05835852  CHARGE =  7.0
  H    2    (CENTRE  2)   0.18934678 -0.48482436 -0.17307813  CHARGE =  1.0
  H    3    (CENTRE  3)  -2.58501117 -1.78264479  0.04931240  CHARGE =  1.0
  C    4    (CENTRE  4)  -2.22036017  1.43453079  2.17200585  CHARGE =  6.0
  H    5    (CENTRE  5)  -4.25379051  1.84476576  2.24833189  CHARGE =  1.0
  H    6    (CENTRE  6)  -1.67071065  0.57509468  3.99503598  CHARGE =  1.0
  H    7    (CENTRE  7)  -1.24027261  3.25678424  2.00538303  CHARGE =  1.0
CENTRE ASSIGNMENTS    1  1  1  1  1  1  1  1  1  1  1  1  1  1  1  1  1  1  1  1
CENTRE ASSIGNMENTS    1  1  1  1  1  1  1  1  1  1  1  1  1  1  1  1  1  1  1  1
CENTRE ASSIGNMENTS    1  1  1  1  1  1  1  1  1  1  1  1  1  1  1  1  1  1  1  1
CENTRE ASSIGNMENTS    1  1  1  1  1  1  1  1  1  1  1  1  1  1  1  2  2  2  2  2
CENTRE ASSIGNMENTS    2  2  2  2  2  2  2  2  2  2  2  2  2  2  2  2  2  2  2  2
CENTRE ASSIGNMENTS    2  2  3  3  3  3  3  3  3  3  3  3  3  3  3  3  3  3  3  3
CENTRE ASSIGNMENTS    3  3  3  3  3  3  3  3  3  4  4  4  4  4  4  4  4  4  4  4
CENTRE ASSIGNMENTS    4  4  4  4  4  4  4  4  4  4  4  4  4  4  4  4  4  4  4  4
CENTRE ASSIGNMENTS    4  4  4  4  4  4  4  4  4  4  4  4  4  4  4  4  4  4  4  4
CENTRE ASSIGNMENTS    4  4  4  4  4  4  4  4  4  4  4  4  4  4  4  4  4  4  4  4
CENTRE ASSIGNMENTS    4  4  4  4  5  5  5  5  5  5  5  5  5  5  5  5  5  5  5  5
CENTRE ASSIGNMENTS    5  5  5  5  5  5  5  5  5  5  5  6  6  6  6  6  6  6  6  6
CENTRE ASSIGNMENTS    6  6  6  6  6  6  6  6  6  6  6  6  6  6  6  6  6  6  7  7
CENTRE ASSIGNMENTS    7  7  7  7  7  7  7  7  7  7  7  7  7  7  7  7  7  7  7  7
CENTRE ASSIGNMENTS    7  7  7  7  7
TYPE ASSIGNMENTS      1  1  1  1  1  1  1  1  1  1  1  1  1  1  1  1  1  1  1  2
TYPE ASSIGNMENTS      2  2  3  3  3  4  4  4  2  3  4  2  3  4  2  3  4  5  6  7
TYPE ASSIGNMENTS      8  9 10  5  6  7  8  9 10  5  6  7  8  9 10 11 12 13 17 14
TYPE ASSIGNMENTS     15 18 19 16 20 11 12 13 17 14 15 18 19 16 20  1  1  1  1  1
TYPE ASSIGNMENTS      1  2  3  4  2  3  4  2  3  4  5  6  7  8  9 10  5  6  7  8
TYPE ASSIGNMENTS      9 10  1  1  1  1  1  1  2  3  4  2  3  4  2  3  4  5  6  7
TYPE ASSIGNMENTS      8  9 10  5  6  7  8  9 10  1  1  1  1  1  1  1  1  1  1  1
TYPE ASSIGNMENTS      1  1  1  1  1  1  1  1  2  2  2  3  3  3  4  4  4  2  3  4
TYPE ASSIGNMENTS      2  3  4  2  3  4  5  6  7  8  9 10  5  6  7  8  9 10  5  6
TYPE ASSIGNMENTS      7  8  9 10 11 12 13 17 14 15 18 19 16 20 11 12 13 17 14 15
TYPE ASSIGNMENTS     18 19 16 20  1  1  1  1  1  1  2  3  4  2  3  4  2  3  4  5
TYPE ASSIGNMENTS      6  7  8  9 10  5  6  7  8  9 10  1  1  1  1  1  1  2  3  4
TYPE ASSIGNMENTS      2  3  4  2  3  4  5  6  7  8  9 10  5  6  7  8  9 10  1  1
TYPE ASSIGNMENTS      1  1  1  1  2  3  4  2  3  4  2  3  4  5  6  7  8  9 10  5
TYPE ASSIGNMENTS      6  7  8  9 10
EXPONENTS  0.1142000D+05 0.1712000D+04 0.3893000D+03 0.1100000D+03 0.3557000D+02
EXPONENTS  0.1254000D+02 0.4644000D+01 0.5118000D+00 0.1142000D+05 0.1712000D+04
EXPONENTS  0.3893000D+03 0.1100000D+03 0.3557000D+02 0.1254000D+02 0.4644000D+01
EXPONENTS  0.5118000D+00 0.1293000D+01 0.1787000D+00 0.5760000D-01 0.2663000D+02
EXPONENTS  0.5948000D+01 0.1742000D+01 0.2663000D+02 0.5948000D+01 0.1742000D+01
EXPONENTS  0.2663000D+02 0.5948000D+01 0.1742000D+01 0.5550000D+00 0.5550000D+00
EXPONENTS  0.5550000D+00 0.1725000D+00 0.1725000D+00 0.1725000D+00 0.4910000D-01
EXPONENTS  0.4910000D-01 0.4910000D-01 0.1654000D+01 0.1654000D+01 0.1654000D+01
EXPONENTS  0.1654000D+01 0.1654000D+01 0.1654000D+01 0.4690000D+00 0.4690000D+00
EXPONENTS  0.4690000D+00 0.4690000D+00 0.4690000D+00 0.4690000D+00 0.1510000D+00
EXPONENTS  0.1510000D+00 0.1510000D+00 0.1510000D+00 0.1510000D+00 0.1510000D+00
EXPONENTS  0.1093000D+01 0.1093000D+01 0.1093000D+01 0.1093000D+01 0.1093000D+01
EXPONENTS  0.1093000D+01 0.1093000D+01 0.1093000D+01 0.1093000D+01 0.1093000D+01
EXPONENTS  0.3640000D+00 0.3640000D+00 0.3640000D+00 0.3640000D+00 0.3640000D+00
EXPONENTS  0.3640000D+00 0.3640000D+00 0.3640000D+00 0.3640000D+00 0.3640000D+00
EXPONENTS  0.3387000D+02 0.5095000D+01 0.1159000D+01 0.3258000D+00 0.1027000D+00
EXPONENTS  0.2526000D-01 0.1407000D+01 0.1407000D+01 0.1407000D+01 0.3880000D+00
EXPONENTS  0.3880000D+00 0.3880000D+00 0.1020000D+00 0.1020000D+00 0.1020000D+00
EXPONENTS  0.1057000D+01 0.1057000D+01 0.1057000D+01 0.1057000D+01 0.1057000D+01
EXPONENTS  0.1057000D+01 0.2470000D+00 0.2470000D+00 0.2470000D+00 0.2470000D+00
EXPONENTS  0.2470000D+00 0.2470000D+00 0.3387000D+02 0.5095000D+01 0.1159000D+01
EXPONENTS  0.3258000D+00 0.1027000D+00 0.2526000D-01 0.1407000D+01 0.1407000D+01
EXPONENTS  0.1407000D+01 0.3880000D+00 0.3880000D+00 0.3880000D+00 0.1020000D+00
EXPONENTS  0.1020000D+00 0.1020000D+00 0.1057000D+01 0.1057000D+01 0.1057000D+01
EXPONENTS  0.1057000D+01 0.1057000D+01 0.1057000D+01 0.2470000D+00 0.2470000D+00
EXPONENTS  0.2470000D+00 0.2470000D+00 0.2470000D+00 0.2470000D+00 0.8236000D+04
EXPONENTS  0.1235000D+04 0.2808000D+03 0.7927000D+02 0.2559000D+02 0.8997000D+01
EXPONENTS  0.3319000D+01 0.3643000D+00 0.8236000D+04 0.1235000D+04 0.2808000D+03
EXPONENTS  0.7927000D+02 0.2559000D+02 0.8997000D+01 0.3319000D+01 0.3643000D+00
EXPONENTS  0.9059000D+00 0.1285000D+00 0.4402000D-01 0.1871000D+02 0.4133000D+01
EXPONENTS  0.1200000D+01 0.1871000D+02 0.4133000D+01 0.1200000D+01 0.1871000D+02
EXPONENTS  0.4133000D+01 0.1200000D+01 0.3827000D+00 0.3827000D+00 0.3827000D+00
EXPONENTS  0.1209000D+00 0.1209000D+00 0.1209000D+00 0.3569000D-01 0.3569000D-01
EXPONENTS  0.3569000D-01 0.1097000D+01 0.1097000D+01 0.1097000D+01 0.1097000D+01
EXPONENTS  0.1097000D+01 0.1097000D+01 0.3180000D+00 0.3180000D+00 0.3180000D+00
EXPONENTS  0.3180000D+00 0.3180000D+00 0.3180000D+00 0.1000000D+00 0.1000000D+00
EXPONENTS  0.1000000D+00 0.1000000D+00 0.1000000D+00 0.1000000D+00 0.7610000D+00
EXPONENTS  0.7610000D+00 0.7610000D+00 0.7610000D+00 0.7610000D+00 0.7610000D+00
EXPONENTS  0.7610000D+00 0.7610000D+00 0.7610000D+00 0.7610000D+00 0.2680000D+00
EXPONENTS  0.2680000D+00 0.2680000D+00 0.2680000D+00 0.2680000D+00 0.2680000D+00
EXPONENTS  0.2680000D+00 0.2680000D+00 0.2680000D+00 0.2680000D+00 0.3387000D+02
EXPONENTS  0.5095000D+01 0.1159000D+01 0.3258000D+00 0.1027000D+00 0.2526000D-01
EXPONENTS  0.1407000D+01 0.1407000D+01 0.1407000D+01 0.3880000D+00 0.3880000D+00
EXPONENTS  0.3880000D+00 0.1020000D+00 0.1020000D+00 0.1020000D+00 0.1057000D+01
EXPONENTS  0.1057000D+01 0.1057000D+01 0.1057000D+01 0.1057000D+01 0.1057000D+01
EXPONENTS  0.2470000D+00 0.2470000D+00 0.2470000D+00 0.2470000D+00 0.2470000D+00
EXPONENTS  0.2470000D+00 0.3387000D+02 0.5095000D+01 0.1159000D+01 0.3258000D+00
EXPONENTS  0.1027000D+00 0.2526000D-01 0.1407000D+01 0.1407000D+01 0.1407000D+01
EXPONENTS  0.3880000D+00 0.3880000D+00 0.3880000D+00 0.1020000D+00 0.1020000D+00
EXPONENTS  0.1020000D+00 0.1057000D+01 0.1057000D+01 0.1057000D+01 0.1057000D+01
EXPONENTS  0.1057000D+01 0.1057000D+01 0.2470000D+00 0.2470000D+00 0.2470000D+00
EXPONENTS  0.2470000D+00 0.2470000D+00 0.2470000D+00 0.3387000D+02 0.5095000D+01
EXPONENTS  0.1159000D+01 0.3258000D+00 0.1027000D+00 0.2526000D-01 0.1407000D+01
EXPONENTS  0.1407000D+01 0.1407000D+01 0.3880000D+00 0.3880000D+00 0.3880000D+00
EXPONENTS  0.1020000D+00 0.1020000D+00 0.1020000D+00 0.1057000D+01 0.1057000D+01
EXPONENTS  0.1057000D+01 0.1057000D+01 0.1057000D+01 0.1057000D+01 0.2470000D+00
EXPONENTS  0.2470000D+00 0.2470000D+00 0.2470000D+00 0.2470000D+00 0.2470000D+00
MO    1     MO 0.0        OCC NO =    2.0000000  ORB. ENERGY =  -14.365595
  0.41192096D+00  0.76755405D+00  0.12981263D+01  0.19549063D+01  0.24203008D+01
  0.20595668D+01  0.78370315D+00 -0.36704162D-02 -0.12676468D-02 -0.23768495D-02
 -0.40437282D-02 -0.62794830D-02 -0.83332392D-02 -0.87820902D-02 -0.54454562D-02
  0.36223195D-02  0.42898428D-01  0.95571858D-03 -0.45934547D-04  0.12640543D-02
  0.12141090D-02  0.85141705D-03 -0.18324319D-02 -0.17600290D-02 -0.12342538D-02
  0.50752644D-02  0.48747308D-02  0.34184977D-02  0.12000307D-02 -0.26611753D-02
 -0.56208728D-03 -0.10573223D-03  0.13478982D-03 -0.52935343D-03 -0.72224432D-05
  0.11449336D-04 -0.23159587D-04  0.17425459D-02  0.68513644D-03 -0.24276823D-02
  0.15889436D-02 -0.18151422D-02  0.22985766D-02  0.62319374D-03  0.95273840D-04
 -0.71846758D-03  0.46138427D-03  0.45094384D-03 -0.14545131D-02  0.13421453D-05
  0.65130627D-05 -0.78552080D-05 -0.17486228D-04  0.42283247D-04 -0.91528677D-04
  0.16463580D-02 -0.65739155D-04  0.63750925D-06 -0.41042481D-02 -0.15817240D-02
 -0.37750497D-03 -0.83482577D-03  0.17789415D-02  0.37559244D-03  0.67355691D-03
 -0.29824764D-03  0.79563568D-04 -0.12651635D-03  0.70564155D-03  0.38201837D-03
  0.43513080D-03  0.18910137D-03 -0.62070907D-03 -0.55581762D-04  0.22576065D-03
  0.15703230D-03  0.28321423D-03  0.41759921D-03 -0.70174486D-03 -0.66610932D-03
 -0.19682572D-04  0.18808560D-02 -0.26515679D-03 -0.20312438D-03  0.17701072D-02
 -0.49095519D-03 -0.44483481D-03  0.21441924D-03 -0.12054370D-03 -0.71148038D-04
 -0.28758512D-02  0.12718857D-02  0.16039655D-02  0.19993145D-02  0.95264868D-03
 -0.15590879D-03 -0.15726633D-03  0.59497100D-04  0.97769231D-04  0.18352260D-03
  0.10165323D-03 -0.84625812D-04  0.15700380D-03  0.28316281D-03  0.41752340D-03
 -0.70207858D-03 -0.66681605D-03 -0.19702380D-04 -0.10135148D-02 -0.16189357D-02
  0.28901891D-04 -0.80274304D-03 -0.16941726D-02 -0.23857284D-03 -0.52909784D-04
 -0.24566232D-03 -0.49768450D-04  0.52116586D-03 -0.21770654D-02  0.16558996D-02
 -0.37845515D-02  0.32012078D-04  0.13188807D-03  0.62103003D-04 -0.16484628D-03
  0.10274327D-03 -0.19350574D-03  0.21792038D-04 -0.75416440D-04  0.36555800D-03
  0.68148323D-03  0.11518267D-02  0.17315728D-02  0.21274373D-02  0.17969609D-02
  0.67774753D-03 -0.33542104D-05 -0.27004233D-03 -0.50560445D-03 -0.86083484D-03
 -0.13315806D-02 -0.17536448D-02 -0.18221493D-02 -0.11578941D-02  0.77599368D-03
  0.43094125D-03 -0.21725383D-02 -0.22710387D-04  0.32443737D-04  0.30418066D-04
  0.21659475D-04 -0.97781156D-05 -0.91676049D-05 -0.65278808D-05  0.34840863D-03
  0.32665524D-03  0.23259799D-03  0.26955813D-03 -0.10391846D-02 -0.27045143D-02
  0.11392153D-03 -0.31672008D-03 -0.42713644D-03  0.56515609D-05 -0.12994356D-04
 -0.54687202D-05 -0.47630341D-03 -0.18942641D-03  0.66572982D-03 -0.16955795D-03
 -0.49783407D-03  0.14619738D-02  0.81836470D-04  0.19894341D-03 -0.28077988D-03
 -0.76167720D-04 -0.28513856D-03  0.48514868D-03 -0.26785311D-08  0.36518371D-04
 -0.36515692D-04 -0.34342043D-04 -0.39404750D-04  0.74066700D-04  0.68364557D-04
 -0.99912279D-04 -0.70335594D-04  0.82347028D-05 -0.14124039D-03 -0.39175102D-04
 -0.21332837D-03  0.44097722D-03  0.25018188D-03 -0.19605746D-03  0.42527158D-04
 -0.85911762D-04 -0.19465705D-05  0.38551569D-04 -0.80934060D-04  0.39267015D-05
 -0.16613304D-03  0.33866934D-03  0.19130100D-05  0.10933692D-03 -0.70200352D-05
 -0.12660923D-04 -0.18668523D-04  0.76899156D-03  0.44996559D-03  0.11372692D-04
  0.13560573D-03 -0.10157848D-03 -0.39282192D-04  0.26923412D-03  0.22232242D-03
  0.23585978D-03  0.62249158D-04 -0.52189894D-04 -0.43012470D-04  0.22450198D-03
 -0.94033397D-04 -0.13046858D-03  0.33514137D-03  0.61714737D-03 -0.25543929D-03
  0.31264396D-05  0.31431722D-04 -0.34558161D-04  0.52344874D-04  0.45407305D-04
 -0.40745265D-04  0.28726576D-04  0.51809564D-04  0.76393171D-04  0.21502721D-02
  0.97549102D-03  0.12185235D-04 -0.89984768D-04  0.14202328D-03 -0.29611350D-03
 -0.38235786D-03  0.69566851D-03 -0.68094083D-03 -0.49923854D-04  0.87145411D-04
 -0.10985546D-03  0.70117819D-04  0.13544937D-03 -0.20556719D-03 -0.20180020D-03
  0.43080674D-03 -0.99015258D-03  0.14269653D-04 -0.11608697D-04 -0.26609563D-05
  0.16734021D-04  0.51204478D-04 -0.11537130D-03 -0.70426953D-05 -0.12701791D-04
 -0.18728783D-04  0.76868354D-03  0.44998758D-03  0.11337000D-04 -0.13334784D-04
 -0.17104560D-03 -0.27640315D-04 -0.30728252D-03 -0.48714189D-04  0.28435107D-03
 -0.50275749D-05 -0.83715283D-04 -0.37595930D-04  0.16832273D-03 -0.11135738D-03
 -0.56965350D-04  0.27016346D-03 -0.29380654D-03 -0.68161983D-03  0.44644338D-04
 -0.14706740D-04 -0.29937598D-04 -0.27074376D-04 -0.17063455D-04 -0.60518348D-04
MO    2     MO 0.0        OCC NO =    2.0000000  ORB. ENERGY =  -10.238585
  0.25716954D-03  0.47919757D-03  0.81044322D-03  0.12204826D-02  0.15110366D-02
  0.12858240D-02  0.48927974D-03 -0.22915058D-05 -0.22296988D-03 -0.41807062D-03
 -0.71126251D-03 -0.11045156D-02 -0.14657564D-02 -0.15447061D-02 -0.95781630D-03
  0.63713977D-03  0.45381624D-03  0.48561248D-02  0.59397568D-03 -0.37077980D-03
 -0.35612957D-03 -0.24974263D-03  0.90055208D-03  0.86496951D-03  0.60657632D-03
  0.63223385D-03  0.60725305D-03  0.42584776D-03  0.44434303D-03 -0.89971218D-03
  0.28920931D-03 -0.47070884D-03  0.13990172D-02  0.22956716D-02 -0.33567516D-04
  0.81244494D-04  0.56203061D-04 -0.47679595D-03  0.13004427D-03  0.34675168D-03
 -0.56473893D-03 -0.47872379D-03  0.13434588D-02  0.90984166D-03 -0.14735428D-03
 -0.76248738D-03  0.10583518D-02  0.52248127D-03 -0.17663040D-02 -0.12994439D-04
 -0.11877155D-03  0.13176599D-03  0.12066868D-03  0.37498588D-04 -0.39276763D-04
  0.45432882D-03  0.36678396D-03 -0.30960901D-03 -0.15580622D-02 -0.10887277D-04
  0.10969153D-02  0.19507572D-03 -0.10894646D-02 -0.16808823D-03  0.15609480D-02
 -0.17721637D-03  0.12115561D-03 -0.28384500D-03  0.40257830D-03  0.32189705D-03
  0.70875938D-03  0.12907082D-03 -0.68536387D-03  0.14277561D-03  0.37995638D-03
  0.63148466D-04  0.11389086D-03  0.16793200D-03 -0.54887439D-03  0.42718848D-03
  0.40683983D-04  0.31951683D-03 -0.13839377D-03 -0.39187394D-04  0.64657854D-03
 -0.84988129D-03 -0.13771816D-02 -0.13536219D-04 -0.65362010D-04 -0.41199911D-04
 -0.31549866D-04 -0.65498981D-04  0.97048847D-04  0.11181868D-02  0.13890779D-02
 -0.62923651D-03 -0.52399819D-04  0.36799221D-04  0.15600598D-04  0.13864257D-03
  0.21374609D-03 -0.22243207D-04  0.63288447D-04  0.11414332D-03  0.16830426D-03
 -0.54736809D-03  0.42788945D-03  0.40633143D-04 -0.10074251D-03 -0.33542356D-03
 -0.55021729D-05  0.63096457D-04 -0.11252121D-02 -0.13291801D-02  0.53539623D-04
 -0.34176889D-04 -0.46399065D-04  0.43903500D-03 -0.68448959D-03  0.24545459D-03
  0.18484157D-04 -0.49312895D-03 -0.13854144D-02  0.52572136D-04 -0.94395193D-04
  0.41823057D-04 -0.92077829D-04 -0.12368856D-03 -0.15333999D-03  0.32965523D+00
  0.61455231D+00  0.10387017D+01  0.15615088D+01  0.19184940D+01  0.16204749D+01
  0.61118351D+00 -0.30247813D-02 -0.29765756D-02 -0.55730887D-02 -0.94886603D-02
 -0.14677515D-01 -0.19329771D-01 -0.20084870D-01 -0.12763033D-01  0.85534880D-02
  0.34515590D-01 -0.81573365D-02 -0.70370143D-03  0.31534957D-03  0.29566027D-03
  0.21052772D-03 -0.84406541D-03 -0.79136497D-03 -0.56349900D-03 -0.98981637D-03
 -0.92801576D-03 -0.66080251D-03 -0.55905105D-03  0.13137416D-02  0.69638983D-03
 -0.23771196D-03  0.63952814D-03  0.77074979D-03 -0.23043183D-05  0.13238868D-04
  0.48521962D-04  0.33158089D-03 -0.20577922D-03 -0.12580166D-03  0.54456357D-03
  0.29674538D-03 -0.83097686D-03 -0.16580892D-04  0.28524953D-03 -0.26866864D-03
 -0.30248092D-03 -0.24453508D-03  0.45623384D-03  0.22713052D-04 -0.27555257D-04
  0.48422046D-05  0.45236292D-04  0.52702352D-04 -0.12178339D-03 -0.13385595D-02
  0.50837672D-03  0.12346672D-03  0.25118271D-02  0.14882813D-02  0.98159147D-04
  0.15038514D-02 -0.30134114D-02 -0.46855931D-03 -0.96782174D-03  0.38129409D-03
 -0.16032609D-03 -0.12910439D-03 -0.61794113D-03 -0.35729080D-03  0.35396655D-03
 -0.52594113D-03  0.83826906D-03  0.33346621D-04  0.84108494D-03  0.19092652D-05
  0.34434384D-05  0.50773479D-05  0.15505112D-02  0.55866894D-03  0.97245336D-05
 -0.16259973D-02  0.30429463D-03  0.73223994D-04 -0.19988255D-02  0.35008739D-04
 -0.52175412D-03 -0.87916039D-04  0.37987117D-04  0.27833905D-04 -0.25598155D-02
  0.12181320D-02  0.13416835D-02  0.12674799D-02 -0.67847010D-04  0.31777351D-03
 -0.35834706D-03  0.18511783D-03  0.17322923D-03  0.24580919D-03  0.98824585D-04
  0.14588688D-03  0.44840254D-04  0.80871245D-04  0.11924460D-03  0.27574039D-02
  0.28477485D-03 -0.46766419D-04  0.34579222D-03 -0.49882351D-03  0.13911782D-02
  0.45275340D-03 -0.80312179D-03  0.94657403D-03  0.44571104D-04 -0.87340102D-04
  0.43585719D-04  0.92945786D-03  0.66727421D-03 -0.15967321D-02  0.66348123D-03
 -0.16607842D-02  0.25985872D-02  0.10061080D-03  0.11733838D-03 -0.21794917D-03
  0.30692794D-04 -0.23268469D-03  0.38126872D-03  0.18929077D-05  0.34139370D-05
  0.50338481D-05  0.15494125D-02  0.55944564D-03  0.97812072D-05  0.80314490D-03
  0.14428139D-02 -0.12272117D-03  0.11669699D-02  0.15183957D-02 -0.77672325D-03
  0.30096244D-04  0.93158002D-04  0.18409103D-04  0.30011681D-03 -0.15945456D-02
  0.12944288D-02 -0.33955957D-02  0.28604677D-03  0.10756984D-02  0.64042245D-04
 -0.25193602D-03  0.18789378D-03 -0.48906351D-03 -0.11637376D-03  0.13632578D-03
MO    3     MO 0.0        OCC NO =    2.0000000  ORB. ENERGY =   -0.901571
 -0.86875911D-02 -0.16188047D-01 -0.27378045D-01 -0.41229819D-01 -0.51045191D-01
 -0.43437154D-01 -0.16528638D-01  0.77410665D-04 -0.65757600D-01 -0.12329611D+00
 -0.20976338D+00 -0.32574037D+00 -0.43227642D+00 -0.45556001D+00 -0.28247627D+00
  0.18790332D+00  0.94063710D-01  0.45165944D-01  0.25926264D-02  0.35281481D-01
  0.33887441D-01  0.23764213D-01 -0.49432068D-01 -0.47478911D-01 -0.33295489D-01
  0.15180869D+00  0.14581044D+00  0.10225234D+00  0.85262355D-02 -0.11232882D-01
  0.40842836D-01  0.17776471D-03  0.26715197D-04  0.23704072D-02 -0.84549295D-06
  0.21117597D-05  0.24874964D-05  0.28555743D-02  0.14903939D-02 -0.43459683D-02
  0.41334057D-02 -0.10482259D-01  0.19458390D-01 -0.11844056D-02  0.80240748D-03
  0.38199811D-03 -0.13107695D-02 -0.37795847D-02  0.86664701D-02 -0.22826473D-03
  0.14351842D-03  0.84746306D-04 -0.39174005D-03 -0.14742333D-03  0.45194859D-03
  0.30586312D-02 -0.27032466D-02  0.65600146D-03 -0.39022979D-02 -0.50760845D-02
 -0.45522015D-02 -0.52735958D-02  0.13185824D-01  0.25841971D-02 -0.32603149D-02
  0.60356310D-04 -0.31522342D-03  0.29663102D-03  0.20423103D-03 -0.34802283D-03
 -0.83014730D-03 -0.38529996D-03  0.12936931D-02 -0.59745771D-04 -0.56483336D-03
  0.19673848D-01  0.35482596D-01  0.52319067D-01  0.22972980D-01 -0.76552938D-03
 -0.43262552D-04 -0.19932972D-01  0.43333468D-02  0.34362328D-02 -0.29794258D-02
  0.18473049D-02  0.31183507D-02  0.50937541D-03 -0.91867233D-05  0.24279873D-03
  0.29635942D-02 -0.15284149D-02 -0.14351794D-02 -0.41620530D-02 -0.33489292D-02
  0.13929198D-02 -0.32719816D-03  0.80971779D-04  0.24622638D-03 -0.39310554D-04
 -0.47669912D-03  0.76011492D-04  0.19674230D-01  0.35483284D-01  0.52320082D-01
  0.22974811D-01 -0.76651933D-03 -0.43336417D-04  0.97445827D-02  0.18217231D-01
  0.10574199D-02  0.88194767D-03  0.36536287D-02  0.28084939D-02 -0.28313148D-03
 -0.38023693D-03  0.30627005D-03 -0.16023340D-02  0.33452678D-02 -0.17429338D-02
  0.41205310D-02  0.85439768D-03  0.23524172D-02 -0.66461065D-04 -0.11189552D-03
  0.17835659D-03 -0.32933256D-03  0.34912175D-03  0.50490079D-03 -0.50396647D-02
 -0.93950808D-02 -0.15879342D-01 -0.23871852D-01 -0.29329328D-01 -0.24773306D-01
 -0.93435797D-02  0.46241897D-04 -0.25422554D-01 -0.47599043D-01 -0.81041443D-01
 -0.12535879D+00 -0.16509312D+00 -0.17154232D+00 -0.10900745D+00  0.73054255D-01
  0.31994709D-01  0.75632412D-02 -0.95172614D-03  0.25296816D-01  0.23717373D-01
  0.16888182D-01 -0.69858651D-01 -0.65496925D-01 -0.46637713D-01 -0.92137912D-01
 -0.86385149D-01 -0.61511373D-01  0.48316791D-02 -0.13377543D-01 -0.17795482D-01
  0.11430135D-03 -0.24663403D-03 -0.51024310D-06 -0.19293313D-04  0.47352711D-04
  0.35658371D-04 -0.59203569D-02  0.23184650D-03  0.56885104D-02 -0.50351545D-02
 -0.70918772D-02  0.19441408D-01 -0.31645675D-03  0.31609821D-03  0.35853835D-06
 -0.46503318D-03 -0.10464158D-02  0.23673735D-02  0.55577619D-04  0.35377261D-04
 -0.90954880D-04  0.32341015D-04 -0.51374036D-04  0.57216338D-04 -0.15372730D-02
  0.12067689D-02  0.34432811D-03  0.19319129D-02  0.24005569D-02  0.13107437D-02
  0.26799060D-02 -0.60208634D-02 -0.23437280D-02  0.18688458D-02 -0.55906740D-04
 -0.59136297D-04 -0.23599818D-04  0.23914964D-03 -0.50660616D-05 -0.65191857D-04
 -0.71429422D-04  0.18247495D-03  0.13599131D-03 -0.23723615D-03  0.62445804D-02
  0.11262358D-01  0.16606340D-01  0.68822535D-02 -0.27063024D-03 -0.16652862D-04
  0.52246072D-02 -0.22239216D-02 -0.17059218D-02 -0.15476968D-03 -0.27211725D-03
 -0.59835693D-03 -0.29522313D-03  0.10344850D-03 -0.33734352D-04  0.53787222D-03
 -0.27277021D-03 -0.26510201D-03 -0.19245912D-02 -0.19284435D-02  0.12189631D-02
 -0.29818083D-03  0.20530734D-03  0.92873492D-04  0.23832815D-03  0.45565446D-04
 -0.18198977D-03  0.60390968D-02  0.10891760D-01  0.16059893D-01  0.81515195D-02
  0.37286468D-03  0.63879998D-04 -0.76639402D-03  0.72522862D-03 -0.52937351D-02
 -0.43529047D-04 -0.96864630D-05 -0.58864549D-03  0.29955454D-04 -0.74635692D-06
  0.37687246D-03 -0.78546168D-03 -0.79090239D-03  0.15763641D-02  0.45901231D-04
  0.16372541D-03  0.46206823D-03  0.18920791D-03  0.96813953D-04 -0.28602186D-03
  0.13644054D-03 -0.16326807D-03  0.17217932D-03  0.62438401D-02  0.11261023D-01
  0.16604372D-01  0.68824373D-02 -0.26756274D-03 -0.16728082D-04 -0.18222425D-02
 -0.55253491D-02 -0.11377853D-02  0.22625306D-03 -0.92617798D-04 -0.62866630D-03
  0.10269013D-03  0.28968111D-03 -0.66333282D-04 -0.84061858D-03  0.12839473D-02
 -0.44332872D-03  0.75207227D-03  0.39527040D-03  0.19873033D-02  0.13233445D-03
 -0.21550027D-03  0.83165816D-04 -0.45825444D-03  0.12942740D-03 -0.54039965D-04
MO    4     MO 0.0        OCC NO =    2.0000000  ORB. ENERGY =   -0.677341
  0.28326016D-02  0.52781361D-02  0.89266513D-02  0.13443042D-01  0.16643358D-01
  0.14162747D-01  0.53891864D-02 -0.25239859D-04  0.27904915D-01  0.52321977D-01
  0.89015250D-01  0.13823129D+00  0.18344096D+00  0.19332159D+00  0.11987172D+00
 -0.79738712D-01 -0.42281079D-01 -0.23859795D-01 -0.15185680D-02 -0.11921012D+00
 -0.11449990D+00 -0.80295233D-01  0.28140207D+00  0.27028333D+00  0.18954133D+00
  0.15547362D+00  0.14933055D+00  0.10472089D+00 -0.27670643D-01  0.64952205D-01
  0.33951935D-01 -0.20733560D-02  0.48352188D-02  0.23520482D-02  0.27614623D-04
 -0.68560765D-04 -0.56268971D-04 -0.12918913D-01 -0.63075842D-02  0.19226497D-01
 -0.58635342D-02 -0.32937743D-02  0.18475385D-01 -0.27566457D-02 -0.12651686D-02
  0.40218142D-02 -0.12947000D-02 -0.91066676D-03  0.43594861D-02 -0.54110804D-04
  0.47666332D-04  0.64444717D-05 -0.10147208D-03 -0.67313740D-04  0.17134673D-03
 -0.39729810D-03 -0.12070880D-03 -0.10899635D-02  0.14724129D-02 -0.26404747D-04
 -0.22798898D-04 -0.28051859D-03  0.38853115D-03  0.32926893D-02 -0.41526713D-02
 -0.68213708D-04 -0.41188706D-04  0.36392347D-03  0.68004740D-04 -0.36222949D-04
 -0.68048635D-03  0.13663638D-03  0.15978907D-03 -0.41128405D-03 -0.31948641D-03
 -0.16661424D-01 -0.30049564D-01 -0.44308064D-01 -0.23826205D-01 -0.48616454D-03
  0.20260442D-04  0.16332660D-01  0.10732161D-03  0.11057037D-02  0.34582453D-02
  0.18954939D-02  0.21923642D-02 -0.32569849D-03  0.35142574D-03  0.27060909D-03
 -0.47403880D-02  0.22623859D-02  0.24780021D-02 -0.16481376D-03 -0.17192567D-02
  0.11801233D-02  0.86373591D-04 -0.83823520D-04 -0.25500713D-05 -0.36667122D-03
 -0.45948675D-03  0.27129354D-03 -0.16659231D-01 -0.30045609D-01 -0.44302232D-01
 -0.23822437D-01 -0.48451318D-03  0.20314357D-04 -0.10264738D-01 -0.12332070D-01
  0.32381239D-02 -0.33491595D-02 -0.12869728D-02  0.27372532D-02 -0.26985568D-04
  0.49126350D-03  0.24666424D-03 -0.58936699D-03 -0.16111112D-02  0.22004781D-02
 -0.65062948D-02  0.14007542D-02  0.34596125D-02 -0.18076187D-03  0.22781874D-03
 -0.47056872D-04  0.17461972D-03  0.12086047D-03  0.47906175D-03 -0.71464193D-02
 -0.13322550D-01 -0.22517457D-01 -0.33851114D-01 -0.41590004D-01 -0.35129407D-01
 -0.13249520D-01  0.65572614D-04 -0.46034211D-01 -0.86190568D-01 -0.14674682D+00
 -0.22699501D+00 -0.29894444D+00 -0.31062243D+00 -0.19738661D+00  0.13228391D+00
  0.58787677D-01  0.36507493D-01  0.11691997D-02 -0.28850279D-01 -0.27048970D-01
 -0.19260478D-01  0.73336574D-01  0.68757700D-01  0.48959578D-01  0.68324266D-01
  0.64058343D-01  0.45613356D-01 -0.64353339D-02  0.16259850D-01  0.14663179D-01
 -0.48233548D-03  0.14861061D-02  0.26513008D-02 -0.26873597D-05  0.20848850D-05
 -0.21353692D-04  0.31366909D-02 -0.14165191D-02 -0.17201718D-02  0.41437619D-02
  0.41636468D-02 -0.10838593D-01  0.45802295D-03 -0.79013255D-03  0.33210960D-03
  0.12887837D-02  0.72232371D-03 -0.16791028D-02  0.33431705D-05 -0.32382554D-04
  0.29039383D-04  0.23368556D-04  0.75273052D-04 -0.15283627D-03 -0.19095793D-02
  0.13774753D-02  0.56477317D-04  0.26199008D-02  0.26553965D-02  0.10278944D-02
  0.31088371D-02 -0.67878223D-02 -0.11973263D-02 -0.27644794D-03 -0.19739219D-03
  0.15139794D-03  0.11172535D-03  0.17661034D-03  0.19687360D-03 -0.31567967D-03
  0.41556624D-03 -0.65106742D-03 -0.19496376D-04 -0.63915308D-03  0.21312511D-01
  0.38437990D-01  0.56676794D-01  0.27490594D-01  0.60094534D-04 -0.53999352D-04
  0.17346885D-01 -0.24971298D-02  0.33356471D-03  0.22040281D-02  0.10014101D-03
  0.69250830D-03 -0.48850026D-03  0.13580466D-03  0.86575461D-04  0.32298345D-02
 -0.16924263D-02 -0.15374082D-02 -0.17027982D-02 -0.23910443D-03  0.18274866D-03
 -0.18253977D-03  0.10245782D-03  0.80081958D-04  0.90110862D-04 -0.68121195D-04
 -0.16812303D-03  0.19828511D-01  0.35761536D-01  0.52730365D-01  0.24274111D-01
 -0.18206171D-02 -0.25393754D-04 -0.47673894D-02  0.79556606D-02 -0.12899455D-01
 -0.54790097D-03  0.91903020D-03 -0.14516840D-02  0.19606801D-03 -0.30488135D-03
  0.65906131D-03 -0.13209298D-02 -0.48588454D-03  0.18068143D-02 -0.14158337D-02
  0.20065386D-02 -0.30636298D-02  0.10250014D-03 -0.31309667D-04 -0.71190470D-04
  0.18889873D-03 -0.13429093D-03  0.20976660D-03  0.21312294D-01  0.38437601D-01
  0.56676220D-01  0.27489591D-01  0.59883044D-04 -0.54027852D-04 -0.89975558D-02
 -0.14841624D-01  0.24569876D-02 -0.13759271D-02 -0.15779762D-02  0.98103607D-03
  0.21586638D-03  0.46603075D-03  0.29758453D-04 -0.54858987D-03  0.20379975D-02
 -0.14894076D-02  0.44869329D-02 -0.53089892D-03 -0.73799827D-03  0.54611774D-04
 -0.11186544D-03  0.57253665D-04 -0.25592922D-03  0.19638179D-03  0.14794843D-05
MO    5     MO 0.0        OCC NO =    2.0000000  ORB. ENERGY =   -0.504004
 -0.28939789D-07 -0.53925035D-07 -0.91200753D-07 -0.13734328D-06 -0.17003989D-06
 -0.14469627D-06 -0.55059601D-07  0.25786760D-09 -0.20495389D-06 -0.38429046D-06
 -0.65379241D-06 -0.10152706D-05 -0.13473231D-05 -0.14198936D-05 -0.88042462D-06
  0.58565880D-06  0.56209144D-06 -0.12592077D-05 -0.20215757D-06  0.71688000D+00
  0.68855467D+00  0.48286206D+00  0.33534405D+00  0.32209396D+00  0.22587451D+00
 -0.57464514D-01 -0.55193978D-01 -0.38705827D-01  0.15991090D+00  0.74804399D-01
 -0.12818093D-01  0.13866840D-01  0.64869816D-02 -0.11114949D-02 -0.32726971D-04
 -0.15382305D-04  0.26279328D-05  0.23147533D-01 -0.20963269D-01 -0.21842636D-02
 -0.33987799D-01  0.25397362D-01  0.16340137D-01  0.97405136D-03 -0.11149146D-03
 -0.86255990D-03  0.21640289D-03  0.10690303D-01  0.50564673D-02 -0.48911197D-03
  0.51538139D-03 -0.26269422D-04  0.87257843D-03  0.36674262D-03  0.64946032D-04
 -0.10226954D-02 -0.80516388D-03 -0.24193363D-03 -0.47437214D-03  0.21891328D-02
 -0.63518464D-02  0.35424584D-02  0.22635881D-03  0.70776473D-02  0.11611179D-01
 -0.10365774D-03 -0.76869998D-04 -0.41358573D-04 -0.17158029D-03 -0.64608143D-04
  0.42493569D-03  0.48255352D-03  0.29521814D-03 -0.30085997D-03 -0.47506750D-03
  0.31127296D-01  0.56139360D-01  0.82777454D-01  0.61870318D-01  0.10233065D-01
  0.44087220D-04 -0.24148830D-01  0.12520689D-01  0.25562269D-02 -0.83350491D-02
  0.59863510D-02  0.39839794D-04  0.43470706D-04  0.34174380D-03 -0.93144484D-04
  0.75870937D-02 -0.28697726D-02 -0.47173211D-02 -0.92491814D-02 -0.13796463D-02
  0.13942319D-02 -0.13787333D-03  0.10266833D-03  0.35204998D-04 -0.30991864D-03
  0.62115362D-03  0.62096500D-04 -0.31127020D-01 -0.56138862D-01 -0.82776720D-01
 -0.61867494D-01 -0.10232053D-01 -0.44091433D-04 -0.60425573D-02 -0.26644296D-01
 -0.13665391D-03 -0.70413075D-03 -0.10213294D-01  0.68506311D-03  0.30043668D-03
 -0.18035356D-03  0.65673882D-04  0.32109440D-02 -0.78787406D-02  0.46677966D-02
 -0.86771538D-02  0.11301056D-02  0.73605381D-03  0.20161051D-03 -0.87542818D-04
 -0.11406769D-03  0.37175149D-03  0.35927508D-03  0.39648712D-03 -0.15983899D-06
 -0.29797622D-06 -0.50363231D-06 -0.75712433D-06 -0.93021472D-06 -0.78571504D-06
 -0.29634280D-06  0.14666171D-08 -0.22040484D-05 -0.41266741D-05 -0.70260158D-05
 -0.10868178D-04 -0.14313008D-04 -0.14872132D-04 -0.94505724D-05  0.63335539D-05
  0.32244412D-05 -0.16253026D-05 -0.12653087D-07  0.24928607D+00  0.23372153D+00
  0.16642365D+00  0.11664345D+00  0.10936064D+00  0.77871294D-01 -0.19940702D-01
 -0.18695676D-01 -0.13312435D-01  0.58180624D-01  0.27221746D-01 -0.46543687D-02
  0.74861957D-02  0.35029640D-02 -0.59944084D-03  0.70382571D-04  0.32932164D-04
 -0.56540532D-05 -0.24013417D-02  0.10934796D-02  0.13078620D-02  0.11887511D-02
 -0.16046861D-01 -0.78025133D-02  0.35684905D-03 -0.74699846D-03  0.39014941D-03
 -0.14331341D-02 -0.48825318D-02 -0.21457041D-02  0.66177881D-05  0.55696721D-04
 -0.62314509D-04  0.12199039D-03  0.77681146D-03  0.35421225D-03 -0.11585447D-02
  0.46998710D-03 -0.24418054D-03  0.20619633D-03 -0.22487443D-02 -0.26278034D-02
  0.32694377D-02  0.83878304D-03  0.33603451D-02  0.62187740D-02  0.15242325D-05
 -0.43081647D-04  0.84410324D-06 -0.12350278D-04  0.17066447D-03 -0.22500958D-03
  0.77775805D-05 -0.41419525D-04  0.22247727D-03  0.34037774D-03 -0.15364383D-01
 -0.27710298D-01 -0.40858818D-01 -0.25473802D-01  0.12818993D-02  0.84244987D-04
 -0.10292061D-01  0.62916355D-02  0.13469500D-02 -0.11971586D-02  0.19275015D-02