 Molden2AIM, Version 4.0.0 (06/02/2016)           Time: Fri Jun 29 17:20:27 2018
GAUSSIAN              9 MOL ORBITALS    258 PRIMITIVES        6 NUCLEI
  C    1    (CENTRE  1)  -0.05759318  1.25116877  0.00000000  CHARGE =  6.0
  O    2    (CENTRE  2)  -0.12174372 -1.42298834  0.00000000  CHARGE =  8.0
  H    3    (CENTRE  3)  -2.02626640  1.89820155  0.00000000  CHARGE =  1.0
  H    4    (CENTRE  4)   0.88070497  2.01841647  1.69568338  CHARGE =  1.0
  H    5    (CENTRE  5)   0.88070497  2.01841647 -1.69568338  CHARGE =  1.0
  H    6    (CENTRE  6)   1.58388718 -2.04536586  0.00000000  CHARGE =  1.0
CENTRE ASSIGNMENTS    1  1  1  1  1  1  1  1  1  1  1  1  1  1  1  1  1  1  1  1
CENTRE ASSIGNMENTS    1  1  1  1  1  1  1  1  1  1  1  1  1  1  1  1  1  1  1  1
CENTRE ASSIGNMENTS    1  1  1  1  1  1  1  1  1  1  1  1  1  1  1  1  1  1  1  1
CENTRE ASSIGNMENTS    1  1  1  1  1  1  1  1  1  1  1  1  1  1  1  2  2  2  2  2
CENTRE ASSIGNMENTS    2  2  2  2  2  2  2  2  2  2  2  2  2  2  2  2  2  2  2  2
CENTRE ASSIGNMENTS    2  2  2  2  2  2  2  2  2  2  2  2  2  2  2  2  2  2  2  2
CENTRE ASSIGNMENTS    2  2  2  2  2  2  2  2  2  2  2  2  2  2  2  2  2  2  2  2
CENTRE ASSIGNMENTS    2  2  2  2  2  2  2  2  2  2  3  3  3  3  3  3  3  3  3  3
CENTRE ASSIGNMENTS    3  3  3  3  3  3  3  3  3  3  3  3  3  3  3  3  3  4  4  4
CENTRE ASSIGNMENTS    4  4  4  4  4  4  4  4  4  4  4  4  4  4  4  4  4  4  4  4
CENTRE ASSIGNMENTS    4  4  4  4  5  5  5  5  5  5  5  5  5  5  5  5  5  5  5  5
CENTRE ASSIGNMENTS    5  5  5  5  5  5  5  5  5  5  5  6  6  6  6  6  6  6  6  6
CENTRE ASSIGNMENTS    6  6  6  6  6  6  6  6  6  6  6  6  6  6  6  6  6  6
TYPE ASSIGNMENTS      1  1  1  1  1  1  1  1  1  1  1  1  1  1  1  1  1  1  1  2
TYPE ASSIGNMENTS      2  2  3  3  3  4  4  4  2  3  4  2  3  4  2  3  4  5  6  7
TYPE ASSIGNMENTS      8  9 10  5  6  7  8  9 10  5  6  7  8  9 10 11 12 13 17 14
TYPE ASSIGNMENTS     15 18 19 16 20 11 12 13 17 14 15 18 19 16 20  1  1  1  1  1
TYPE ASSIGNMENTS      1  1  1  1  1  1  1  1  1  1  1  1  1  1  2  2  2  3  3  3
TYPE ASSIGNMENTS      4  4  4  2  3  4  2  3  4  2  3  4  5  6  7  8  9 10  5  6
TYPE ASSIGNMENTS      7  8  9 10  5  6  7  8  9 10 11 12 13 17 14 15 18 19 16 20
TYPE ASSIGNMENTS     11 12 13 17 14 15 18 19 16 20  1  1  1  1  1  1  2  3  4  2
TYPE ASSIGNMENTS      3  4  2  3  4  5  6  7  8  9 10  5  6  7  8  9 10  1  1  1
TYPE ASSIGNMENTS      1  1  1  2  3  4  2  3  4  2  3  4  5  6  7  8  9 10  5  6
TYPE ASSIGNMENTS      7  8  9 10  1  1  1  1  1  1  2  3  4  2  3  4  2  3  4  5
TYPE ASSIGNMENTS      6  7  8  9 10  5  6  7  8  9 10  1  1  1  1  1  1  2  3  4
TYPE ASSIGNMENTS      2  3  4  2  3  4  5  6  7  8  9 10  5  6  7  8  9 10
EXPONENTS  0.8236000D+04 0.1235000D+04 0.2808000D+03 0.7927000D+02 0.2559000D+02
EXPONENTS  0.8997000D+01 0.3319000D+01 0.3643000D+00 0.8236000D+04 0.1235000D+04
EXPONENTS  0.2808000D+03 0.7927000D+02 0.2559000D+02 0.8997000D+01 0.3319000D+01
EXPONENTS  0.3643000D+00 0.9059000D+00 0.1285000D+00 0.4402000D-01 0.1871000D+02
EXPONENTS  0.4133000D+01 0.1200000D+01 0.1871000D+02 0.4133000D+01 0.1200000D+01
EXPONENTS  0.1871000D+02 0.4133000D+01 0.1200000D+01 0.3827000D+00 0.3827000D+00
EXPONENTS  0.3827000D+00 0.1209000D+00 0.1209000D+00 0.1209000D+00 0.3569000D-01
EXPONENTS  0.3569000D-01 0.3569000D-01 0.1097000D+01 0.1097000D+01 0.1097000D+01
EXPONENTS  0.1097000D+01 0.1097000D+01 0.1097000D+01 0.3180000D+00 0.3180000D+00
EXPONENTS  0.3180000D+00 0.3180000D+00 0.3180000D+00 0.3180000D+00 0.1000000D+00
EXPONENTS  0.1000000D+00 0.1000000D+00 0.1000000D+00 0.1000000D+00 0.1000000D+00
EXPONENTS  0.7610000D+00 0.7610000D+00 0.7610000D+00 0.7610000D+00 0.7610000D+00
EXPONENTS  0.7610000D+00 0.7610000D+00 0.7610000D+00 0.7610000D+00 0.7610000D+00
EXPONENTS  0.2680000D+00 0.2680000D+00 0.2680000D+00 0.2680000D+00 0.2680000D+00
EXPONENTS  0.2680000D+00 0.2680000D+00 0.2680000D+00 0.2680000D+00 0.2680000D+00
EXPONENTS  0.1533000D+05 0.2299000D+04 0.5224000D+03 0.1473000D+03 0.4755000D+02
EXPONENTS  0.1676000D+02 0.6207000D+01 0.6882000D+00 0.1533000D+05 0.2299000D+04
EXPONENTS  0.5224000D+03 0.1473000D+03 0.4755000D+02 0.1676000D+02 0.6207000D+01
EXPONENTS  0.6882000D+00 0.1752000D+01 0.2384000D+00 0.7376000D-01 0.3446000D+02
EXPONENTS  0.7749000D+01 0.2280000D+01 0.3446000D+02 0.7749000D+01 0.2280000D+01
EXPONENTS  0.3446000D+02 0.7749000D+01 0.2280000D+01 0.7156000D+00 0.7156000D+00
EXPONENTS  0.7156000D+00 0.2140000D+00 0.2140000D+00 0.2140000D+00 0.5974000D-01
EXPONENTS  0.5974000D-01 0.5974000D-01 0.2314000D+01 0.2314000D+01 0.2314000D+01
EXPONENTS  0.2314000D+01 0.2314000D+01 0.2314000D+01 0.6450000D+00 0.6450000D+00
EXPONENTS  0.6450000D+00 0.6450000D+00 0.6450000D+00 0.6450000D+00 0.2140000D+00
EXPONENTS  0.2140000D+00 0.2140000D+00 0.2140000D+00 0.2140000D+00 0.2140000D+00
EXPONENTS  0.1428000D+01 0.1428000D+01 0.1428000D+01 0.1428000D+01 0.1428000D+01
EXPONENTS  0.1428000D+01 0.1428000D+01 0.1428000D+01 0.1428000D+01 0.1428000D+01
EXPONENTS  0.5000000D+00 0.5000000D+00 0.5000000D+00 0.5000000D+00 0.5000000D+00
EXPONENTS  0.5000000D+00 0.5000000D+00 0.5000000D+00 0.5000000D+00 0.5000000D+00
EXPONENTS  0.3387000D+02 0.5095000D+01 0.1159000D+01 0.3258000D+00 0.1027000D+00
EXPONENTS  0.2526000D-01 0.1407000D+01 0.1407000D+01 0.1407000D+01 0.3880000D+00
EXPONENTS  0.3880000D+00 0.3880000D+00 0.1020000D+00 0.1020000D+00 0.1020000D+00
EXPONENTS  0.1057000D+01 0.1057000D+01 0.1057000D+01 0.1057000D+01 0.1057000D+01
EXPONENTS  0.1057000D+01 0.2470000D+00 0.2470000D+00 0.2470000D+00 0.2470000D+00
EXPONENTS  0.2470000D+00 0.2470000D+00 0.3387000D+02 0.5095000D+01 0.1159000D+01
EXPONENTS  0.3258000D+00 0.1027000D+00 0.2526000D-01 0.1407000D+01 0.1407000D+01
EXPONENTS  0.1407000D+01 0.3880000D+00 0.3880000D+00 0.3880000D+00 0.1020000D+00
EXPONENTS  0.1020000D+00 0.1020000D+00 0.1057000D+01 0.1057000D+01 0.1057000D+01
EXPONENTS  0.1057000D+01 0.1057000D+01 0.1057000D+01 0.2470000D+00 0.2470000D+00
EXPONENTS  0.2470000D+00 0.2470000D+00 0.2470000D+00 0.2470000D+00 0.3387000D+02
EXPONENTS  0.5095000D+01 0.1159000D+01 0.3258000D+00 0.1027000D+00 0.2526000D-01
EXPONENTS  0.1407000D+01 0.1407000D+01 0.1407000D+01 0.3880000D+00 0.3880000D+00
EXPONENTS  0.3880000D+00 0.1020000D+00 0.1020000D+00 0.1020000D+00 0.1057000D+01
EXPONENTS  0.1057000D+01 0.1057000D+01 0.1057000D+01 0.1057000D+01 0.1057000D+01
EXPONENTS  0.2470000D+00 0.2470000D+00 0.2470000D+00 0.2470000D+00 0.2470000D+00
EXPONENTS  0.2470000D+00 0.3387000D+02 0.5095000D+01 0.1159000D+01 0.3258000D+00
EXPONENTS  0.1027000D+00 0.2526000D-01 0.1407000D+01 0.1407000D+01 0.1407000D+01
EXPONENTS  0.3880000D+00 0.3880000D+00 0.3880000D+00 0.1020000D+00 0.1020000D+00
EXPONENTS  0.1020000D+00 0.1057000D+01 0.1057000D+01 0.1057000D+01 0.1057000D+01
EXPONENTS  0.1057000D+01 0.1057000D+01 0.2470000D+00 0.2470000D+00 0.2470000D+00
EXPONENTS  0.2470000D+00 0.2470000D+00 0.2470000D+00
MO    1     MO 0.0        OCC NO =    2.0000000  ORB. ENERGY =  -19.212139
  0.25695485D-03  0.47902226D-03  0.80963201D-03  0.12171421D-02  0.14953997D-02
  0.12631041D-02  0.47639640D-03 -0.23577124D-05 -0.18479248D-03 -0.34598982D-03
 -0.58907728D-03 -0.91121298D-03 -0.12000354D-02 -0.12469137D-02 -0.79235767D-03
  0.53101969D-03 -0.16139948D-03 -0.25446735D-03  0.17528076D-03  0.85345410D-04
  0.80016747D-04  0.56976691D-04  0.53752175D-03  0.50396080D-03  0.35885012D-03
 -0.12851299D-14 -0.12048910D-14 -0.85795414D-15 -0.38538738D-03 -0.21542693D-02
  0.52509530D-14  0.39324247D-04 -0.44084276D-03  0.42602484D-14 -0.23295539D-05
 -0.17177606D-04 -0.54845572D-17 -0.55111576D-03  0.11404901D-02 -0.58937430D-03
  0.33452972D-03  0.65001764D-15  0.86448856D-15 -0.21167318D-03  0.51071461D-03
 -0.29904143D-03 -0.28264952D-03  0.37880769D-14  0.26402905D-14 -0.21253213D-04
  0.27487865D-04 -0.62346514D-05 -0.56995481D-04  0.55998785D-15  0.28271115D-15
  0.89125108D-04 -0.25177656D-03  0.12282873D-15 -0.15181443D-03  0.49487868D-03
  0.81663630D-16 -0.11556089D-03  0.26045099D-03 -0.45014983D-15  0.18366322D-14
  0.64750534D-05  0.14421117D-04 -0.25022601D-16  0.67082913D-04  0.21894257D-04
 -0.38202363D-16 -0.86508073D-04 -0.65157608D-04  0.11327016D-15  0.88698148D-15
  0.49706396D+00  0.92646327D+00  0.15709747D+01  0.23777434D+01  0.29667296D+01
  0.25480250D+01  0.97823636D+00 -0.43757113D-02  0.84768646D-04  0.15898570D-03
  0.27103576D-03  0.42357614D-03  0.56640200D-03  0.60478529D-03  0.36975387D-03
 -0.24394114D-03  0.54105850D-01 -0.30440634D-03 -0.45959868D-03  0.60952620D-02
  0.59103538D-02  0.39870898D-02  0.53650880D-02  0.52023306D-02  0.35094615D-02
 -0.36593348D-15 -0.35483239D-15 -0.23936783D-15  0.80284903D-03 -0.17942701D-02
  0.31158925D-15 -0.15791353D-03 -0.88391468D-03 -0.11390074D-15  0.96129886D-05
 -0.60182718D-04  0.13662451D-15  0.12487515D-02  0.13578480D-02 -0.26065995D-02
 -0.27919985D-02 -0.32039702D-15 -0.44554997D-15  0.64093909D-03 -0.11789486D-02
  0.53800947D-03  0.71429808D-05  0.15053841D-15  0.35048339D-15  0.43148822D-04
 -0.14024813D-03  0.97099307D-04  0.26637479D-04  0.36433535D-16 -0.22213422D-15
  0.73707232D-03  0.33767289D-03 -0.39994948D-16 -0.70418283D-03 -0.17278769D-02
 -0.12165601D-15 -0.15070341D-02  0.71485826D-03  0.24164085D-15  0.97439933D-16
 -0.97336036D-04 -0.32968507D-03 -0.12243987D-17 -0.34409892D-04  0.84119943D-03
  0.27180410D-16  0.32641800D-03  0.14785579D-03 -0.23507214D-16 -0.64274716D-16
 -0.90323347D-05 -0.16290188D-04 -0.24019872D-04  0.28895908D-03  0.21738495D-03
 -0.13558729D-04  0.28847025D-04 -0.56530154D-04  0.25748666D-17  0.79635929D-04
 -0.70979494D-04  0.74854120D-15  0.16731898D-04 -0.82849375D-04  0.54622370D-15
  0.79351120D-04 -0.85969235D-04  0.66181156D-05  0.75459888D-04  0.17888934D-15
 -0.15966316D-15 -0.69984546D-05  0.41627568D-05  0.28356978D-05 -0.12387397D-04
  0.36474205D-15 -0.16065422D-15  0.85148219D-05  0.15356832D-04  0.22643640D-04
  0.74948234D-03  0.30470495D-03  0.13192587D-04 -0.44656409D-04 -0.42014528D-04
 -0.65567417D-04 -0.18435305D-03 -0.10510152D-03 -0.35145085D-03 -0.21529423D-05
 -0.24434447D-04 -0.67113722D-04  0.42929751D-04 -0.21702570D-03  0.17409595D-03
 -0.55817070D-04  0.17081442D-03 -0.60310779D-04  0.91620110D-06 -0.18894881D-04
  0.17978680D-04  0.21990367D-05  0.14033965D-04  0.51175955D-04  0.85148219D-05
  0.15356832D-04  0.22643640D-04  0.74948234D-03  0.30470495D-03  0.13192587D-04
 -0.44656409D-04 -0.42014528D-04  0.65567417D-04 -0.18435305D-03 -0.10510152D-03
  0.35145085D-03 -0.21529423D-05 -0.24434447D-04  0.67113722D-04  0.42929751D-04
 -0.21702570D-03  0.17409595D-03 -0.55817070D-04 -0.17081442D-03  0.60310779D-04
  0.91620110D-06 -0.18894881D-04  0.17978680D-04  0.21990367D-05 -0.14033965D-04
 -0.51175955D-04  0.21476756D-03  0.38734214D-03  0.57113577D-03 -0.48829185D-03
 -0.50331846D-03 -0.37508219D-04  0.58916238D-03 -0.37941869D-03  0.47408637D-16
  0.78653725D-03 -0.52058939D-03 -0.11143324D-15  0.93651415D-04 -0.95293178D-04
 -0.13926036D-15 -0.16724475D-02  0.57123277D-03  0.11012148D-02  0.24683324D-02
 -0.71272392D-16 -0.23907547D-16 -0.27536635D-04 -0.13743432D-04  0.41280067D-04
  0.80505988D-04  0.10953654D-15 -0.45918077D-17
MO    2     MO 0.0        OCC NO =    2.0000000  ORB. ENERGY =  -10.265736
  0.32958016D+00  0.61441235D+00  0.10384651D+01  0.15611532D+01  0.19180571D+01
  0.16201058D+01  0.61104432D+00 -0.30240924D-02 -0.29052373D-02 -0.54395208D-02
 -0.92612496D-02 -0.14325745D-01 -0.18866502D-01 -0.19603504D-01 -0.12457147D-01
  0.83484901D-02  0.34046015D-01 -0.26865561D-02 -0.32414342D-03  0.12334594D-03
  0.11564466D-03  0.82345888D-04 -0.23949530D-02 -0.22454207D-02 -0.15988733D-02
 -0.53385129D-14 -0.50051952D-14 -0.35639971D-14 -0.48952549D-03  0.19638769D-02
  0.21131008D-13 -0.16798543D-03  0.46614372D-03  0.28739030D-13 -0.33643957D-05
  0.11215007D-04  0.17397214D-15  0.25965780D-03 -0.33088272D-03  0.71224915D-04
  0.21389821D-03  0.72631348D-15  0.31605446D-14  0.13426367D-03 -0.45695529D-03
  0.32269162D-03 -0.32553451D-03  0.17096364D-13  0.10043634D-13  0.19265765D-04
 -0.64428041D-04  0.45162275D-04  0.10767042D-04  0.43477066D-14  0.73633884D-15
 -0.11553923D-02 -0.13144061D-02  0.69791161D-15  0.26461915D-04  0.22052714D-02
  0.22845275D-16  0.34397149D-02  0.17379470D-02 -0.21165801D-14  0.72117652D-14
  0.26738445D-03  0.27504045D-03 -0.86839387D-16  0.11099758D-04 -0.28440769D-03
 -0.11406198D-14 -0.81325310D-03 -0.54071365D-03  0.14011380D-14  0.40632214D-14
  0.12189017D-03  0.22718759D-03  0.38523487D-03  0.58307093D-03  0.72750227D-03
  0.62482743D-03  0.23988340D-03 -0.10730132D-05 -0.12354015D-03 -0.23170261D-03
 -0.39500215D-03 -0.61731148D-03 -0.82546307D-03 -0.88140211D-03 -0.53887197D-03
  0.35551500D-03  0.28725651D-03  0.37539963D-02  0.89690165D-03 -0.54212623D-03
 -0.52568008D-03 -0.35462068D-03  0.11357003D-02  0.11012473D-02  0.74289490D-03
 -0.26619370D-14 -0.25811835D-14 -0.17412511D-14  0.10863198D-02  0.19505814D-03
  0.27365153D-14  0.86024485D-03  0.10154364D-02 -0.50298736D-14  0.16657645D-04
  0.73561543D-04  0.58155328D-15 -0.13306357D-02  0.20199515D-02 -0.68931576D-03
 -0.35814903D-03 -0.36962543D-15 -0.13025341D-15  0.12926343D-02 -0.13860003D-02
  0.93366009D-04 -0.23557378D-04  0.37588636D-16  0.68729610D-15  0.25648786D-03
 -0.22572823D-03 -0.30759630D-04  0.28404496D-03 -0.24311491D-15 -0.26598242D-14
  0.66741128D-03 -0.10469732D-03 -0.64278705D-15 -0.57392973D-03 -0.90832884D-03
 -0.16144653D-14 -0.14283041D-02  0.12224208D-02  0.35428265D-14  0.50376543D-15
  0.12953094D-03 -0.58566084D-03  0.28767426D-15 -0.66361544D-03  0.14367497D-02
  0.41830543D-15  0.27502262D-03  0.32023283D-03 -0.12813282D-14 -0.21825976D-15
 -0.34088672D-05 -0.61480325D-05 -0.90652703D-05  0.98925248D-04 -0.32612504D-03
  0.14986878D-05 -0.17753130D-02  0.51199987D-03  0.56496363D-15 -0.23176673D-02
  0.31335187D-03  0.38374074D-14 -0.20400712D-03  0.14834823D-03  0.40334563D-14
 -0.24723832D-02  0.12553735D-02  0.12170097D-02  0.19840873D-02  0.93529618D-15
 -0.15682835D-14 -0.29924985D-03  0.18293075D-03  0.11631910D-03  0.38782134D-03
  0.18522798D-14 -0.96875621D-15  0.31312794D-04  0.56473913D-04  0.83270752D-04
  0.55400943D-03 -0.23337770D-03 -0.44779181D-05  0.72140605D-03  0.63368968D-03
  0.14051317D-02  0.10072434D-02  0.74657305D-03  0.16406832D-02  0.10820432D-03
  0.16005495D-03  0.12435005D-03  0.47098684D-03  0.77786195D-03 -0.12488488D-02
 -0.13919026D-02 -0.27132832D-02 -0.23639032D-02  0.48780518D-04  0.92438885D-04
 -0.14121940D-03 -0.24926791D-03 -0.32311780D-03 -0.35690154D-03  0.31312794D-04
  0.56473913D-04  0.83270752D-04  0.55400943D-03 -0.23337770D-03 -0.44779181D-05
  0.72140605D-03  0.63368968D-03 -0.14051317D-02  0.10072434D-02  0.74657305D-03
 -0.16406832D-02  0.10820432D-03  0.16005495D-03 -0.12435005D-03  0.47098684D-03
  0.77786195D-03 -0.12488488D-02 -0.13919026D-02  0.27132832D-02  0.23639032D-02
  0.48780518D-04  0.92438885D-04 -0.14121940D-03 -0.24926791D-03  0.32311780D-03
  0.35690154D-03  0.92347898D-04  0.16655324D-03  0.24558265D-03 -0.18401198D-02
  0.83846553D-04  0.26810663D-04  0.54012885D-03 -0.87609508D-03 -0.37087474D-15
  0.53063988D-03 -0.15644089D-02  0.50134165D-15 -0.44318958D-04 -0.36263782D-05
 -0.84246475D-15  0.79353201D-04 -0.45914903D-03  0.37979583D-03  0.19121468D-02
 -0.88448987D-15 -0.42318942D-16  0.24309039D-04 -0.29182896D-04  0.48738570D-05
  0.17897965D-03  0.23101246D-15  0.13263591D-15
MO    3     MO 0.0        OCC NO =    2.0000000  ORB. ENERGY =   -1.052076
 -0.40246000D-02 -0.75027695D-02 -0.12681002D-01 -0.19063700D-01 -0.23421958D-01
 -0.19783588D-01 -0.74616415D-02  0.36928080D-04 -0.18804431D-01 -0.35207828D-01
 -0.59944340D-01 -0.92724780D-01 -0.12211527D+00 -0.12688559D+00 -0.80630097D-01
  0.54036416D-01  0.24038229D-01 -0.12943629D-02 -0.66839461D-03  0.39099963D-02
  0.36658701D-02  0.26103179D-02 -0.12561064D+00 -0.11776796D+00 -0.83857803D-01
 -0.39844536D-13 -0.37356785D-13 -0.26600256D-13  0.10018779D-02 -0.24706875D-01
  0.17364882D-12 -0.15368557D-03 -0.18935108D-03  0.26171007D-12 -0.35490258D-04
  0.33707154D-04 -0.53892026D-14 -0.89451755D-02  0.18008273D-01 -0.90630975D-02
 -0.13190961D-02  0.14294149D-14  0.22827848D-13 -0.13894892D-02  0.31331258D-02
 -0.17436366D-02 -0.30707197D-03  0.16701788D-12  0.90326132D-13  0.38471673D-04
 -0.49946646D-04  0.11474973D-04 -0.82101009D-04  0.53124022D-13  0.27541452D-14
 -0.82071261D-03 -0.30745835D-02  0.54450602D-14  0.30668461D-03  0.39880962D-02
  0.10302485D-14  0.21554532D-02  0.52356542D-02 -0.17365429D-13  0.62364090D-13
  0.19425249D-03 -0.11161661D-03 -0.22324407D-14 -0.63300952D-04  0.29241475D-03
 -0.57702447D-14 -0.51945650D-03  0.42435088D-04  0.12467567D-13  0.44447550D-13
 -0.87127214D-02 -0.16239392D-01 -0.27536627D-01 -0.41677968D-01 -0.52001936D-01
 -0.44662727D-01 -0.17146890D-01  0.76699089D-04 -0.91089844D-01 -0.17084126D+00
 -0.29124690D+00 -0.45516221D+00 -0.60863860D+00 -0.64988413D+00 -0.39732641D+00
  0.26213183D+00  0.14254944D+00  0.67894765D-01  0.32788635D-02  0.23086081D+00
  0.22385732D+00  0.15101283D+00  0.16600363D+00  0.16096768D+00  0.10858785D+00
 -0.16549838D-13 -0.16047776D-13 -0.10825735D-13  0.53640120D-01  0.43574461D-01
  0.20342297D-13  0.31572440D-02  0.44531663D-02 -0.42419277D-13  0.11034732D-03
 -0.27141933D-04  0.11275302D-13  0.12290263D-01  0.14223143D-01 -0.26513405D-01
 -0.13218235D-01 -0.25475999D-14 -0.31607182D-14  0.17779343D-03  0.81965938D-02
 -0.83743872D-02 -0.20019057D-02  0.57821875D-15  0.63077398D-14 -0.27634038D-03
  0.30359164D-03 -0.27251262D-04 -0.33239942D-04 -0.62005219D-15 -0.21175817D-13
  0.21266676D-02  0.77858962D-02 -0.34584406D-14 -0.20926523D-05 -0.13622081D-01
 -0.74421531D-14 -0.63779102D-02 -0.97356076D-02  0.17817475D-13 -0.43977110D-14
 -0.40682588D-03  0.10056344D-02  0.22260603D-14  0.13544642D-02 -0.16449589D-02
  0.59369021D-15 -0.13398658D-03 -0.13719443D-02 -0.72718710D-14  0.34737320D-14
  0.34255003D-02  0.61780308D-02  0.91095028D-02  0.52867314D-02  0.89150577D-04
 -0.54971248D-04  0.27256023D-02 -0.25507991D-02 -0.14756634D-14 -0.28835808D-03
 -0.12728476D-02  0.43819572D-13 -0.11053579D-03 -0.29158421D-04  0.60002532D-13
 -0.13686981D-03  0.66546009D-03 -0.52859028D-03 -0.22835357D-02  0.12572685D-13
 -0.80092210D-14 -0.22502802D-03  0.81118583D-04  0.14390943D-03  0.30932912D-03
  0.24007593D-13 -0.89654645D-14  0.33493299D-02  0.60406544D-02  0.89069413D-02
  0.56466967D-02  0.83656469D-03  0.57682260D-04 -0.98320756D-03 -0.25959772D-02
 -0.19826447D-02  0.83491940D-04 -0.11020449D-02  0.23467082D-03  0.11311955D-04
  0.92927089D-04 -0.99390129D-05 -0.48758285D-03  0.91747577D-03 -0.42989292D-03
  0.81463357D-03 -0.17093048D-04  0.17349381D-02  0.59637515D-04  0.78598775D-04
 -0.13823629D-03 -0.21929145D-03 -0.26621771D-03 -0.34061135D-03  0.33493299D-02
  0.60406544D-02  0.89069413D-02  0.56466967D-02  0.83656469D-03  0.57682260D-04
 -0.98320756D-03 -0.25959772D-02  0.19826447D-02  0.83491940D-04 -0.11020449D-02
 -0.23467082D-03  0.11311955D-04  0.92927089D-04  0.99390130D-05 -0.48758285D-03
  0.91747577D-03 -0.42989292D-03  0.81463357D-03  0.17093048D-04 -0.17349381D-02
  0.59637515D-04  0.78598775D-04 -0.13823629D-03 -0.21929145D-03  0.26621771D-03
  0.34061135D-03  0.22587809D-01  0.40738043D-01  0.60068221D-01  0.23539512D-01
 -0.13017238D-02 -0.51683710D-04 -0.25357434D-01  0.12862785D-01 -0.29175562D-15
 -0.41476926D-02  0.42876245D-02  0.48112319D-14  0.39812643D-03  0.44070097D-04
 -0.13943887D-13  0.36062824D-02 -0.82037054D-03 -0.27859118D-02 -0.81499822D-02
 -0.88126769D-14  0.25518083D-14 -0.17449263D-03  0.25076235D-03 -0.76269714D-04
 -0.30854036D-03  0.30270359D-14 -0.12594172D-14
MO    4     MO 0.0        OCC NO =    2.0000000  ORB. ENERGY =   -0.703402
 -0.75335672D-02 -0.14044282D-01 -0.23737311D-01 -0.35684954D-01 -0.43843089D-01
 -0.37032497D-01 -0.13967295D-01  0.69124925D-04 -0.48674070D-01 -0.91133216D-01
 -0.15516210D+00 -0.24001217D+00 -0.31608759D+00 -0.32843525D+00 -0.20870586D+00
  0.13986981D+00  0.63334458D-01  0.36539817D-01  0.64669536D-03 -0.26031314D-01
 -0.24406012D-01 -0.17378534D-01  0.66593706D-01  0.62435832D-01  0.44458032D-01
 -0.65794538D-13 -0.61686561D-13 -0.43924506D-13 -0.66460910D-02  0.14514933D-01
  0.26061141D-12 -0.20509148D-03  0.32725859D-02  0.41721462D-12  0.25196473D-04
  0.44861105D-04  0.62162827D-14  0.31515535D-02 -0.57705201D-02  0.26189667D-02
  0.57616899D-02  0.51308302D-14  0.26543654D-13  0.13518333D-02 -0.12213523D-02
 -0.13048100D-03  0.16064231D-02  0.23583071D-12  0.14604606D-12  0.55256085D-04
 -0.10968852D-03  0.54432434D-04  0.16488469D-03  0.67685559D-13  0.12514542D-13
 -0.12843440D-02 -0.25479015D-02  0.85261148D-14 -0.12246055D-02  0.28188404D-02
  0.51403604D-15  0.50776376D-02  0.48248640D-02 -0.26092381D-13  0.91734997D-13
 -0.30646775D-03 -0.20096542D-03 -0.10165739D-14 -0.13378744D-03  0.16578217D-03
 -0.10338159D-13  0.10531907D-02  0.43711407D-03  0.13387881D-13  0.62239249D-13
  0.14735711D-02  0.27465469D-02  0.46572335D-02  0.70489398D-02  0.87950187D-02
  0.75537481D-02  0.29000308D-02 -0.12972016D-04  0.27452301D-01  0.51487471D-01
  0.87774851D-01  0.13717501D+00  0.18342912D+00  0.19585954D+00  0.11974468D+00
 -0.79000267D-01 -0.46052470D-01 -0.24676392D-01 -0.12725083D-02 -0.30480836D+00
 -0.29556158D+00 -0.19938410D+00  0.52847594D+00  0.51244390D+00  0.34569162D+00
 -0.20398795D-13 -0.19779970D-13 -0.13343451D-13 -0.66399968D-01  0.11674907D+00
  0.27135507D-13 -0.52457790D-02  0.10764398D-01 -0.53709650D-13 -0.15080289D-03
  0.66746170D-04  0.90193793D-14 -0.30020952D-01  0.29825691D-01  0.19526156D-03
  0.27350510D-01 -0.52448045D-14 -0.17023434D-13 -0.77769934D-02  0.84231432D-02
 -0.64614982D-03  0.36870918D-02  0.27344116D-14  0.18909974D-13 -0.30498416D-03
  0.44318746D-03 -0.13820330D-03 -0.42585074D-03 -0.22713614D-14 -0.28690077D-13
 -0.27707062D-03  0.36236904D-02 -0.37128237D-14 -0.47644718D-02  0.26900566D-03
 -0.10961250D-13  0.55956836D-02 -0.11140077D-01  0.22099721D-13 -0.57508517D-14
 -0.46624217D-03  0.62263731D-03  0.16686032D-14  0.12582907D-02 -0.15536571D-02
  0.18253313D-14  0.14043583D-03 -0.31425480D-03 -0.68311408D-14  0.35285025D-14
  0.21824155D-01  0.39360762D-01  0.58037421D-01  0.25874594D-01 -0.64944674D-03
 -0.56209265D-05  0.17623675D-01 -0.51792408D-02  0.12393019D-14  0.17909221D-02
  0.94709963D-03  0.54822861D-13 -0.52555630D-03  0.39097321D-03  0.59301548D-13
  0.30930373D-02 -0.12479852D-02 -0.18450521D-02 -0.29258756D-02  0.20468767D-13
 -0.14183673D-13 -0.13021928D-03 -0.16105913D-03  0.29127841D-03  0.20891974D-03
  0.24711220D-13 -0.11207119D-13  0.20004747D-01  0.36079385D-01  0.53199033D-01
  0.24764063D-01 -0.12384117D-02 -0.10328759D-03 -0.77360266D-02 -0.48575580D-02
 -0.13516983D-01 -0.14864634D-02 -0.14741174D-03 -0.16989009D-02  0.20362513D-03
  0.21925558D-03  0.57298303D-03 -0.64962990D-03 -0.75890592D-03  0.14085358D-02
  0.17501061D-02  0.37545265D-02  0.23661587D-02  0.17228249D-03 -0.59048522D-04
 -0.11323396D-03 -0.18612848D-04 -0.23462554D-03 -0.14372404D-03  0.20004747D-01
  0.36079385D-01  0.53199033D-01  0.24764063D-01 -0.12384117D-02 -0.10328759D-03
 -0.77360266D-02 -0.48575580D-02  0.13516983D-01 -0.14864634D-02 -0.14741174D-03
  0.16989009D-02  0.20362513D-03  0.21925558D-03 -0.57298303D-03 -0.64962990D-03
 -0.75890592D-03  0.14085358D-02  0.17501061D-02 -0.37545265D-02 -0.23661587D-02
  0.17228249D-03 -0.59048522D-04 -0.11323396D-03 -0.18612848D-04  0.23462554D-03
  0.14372404D-03 -0.20018746D-01 -0.36104634D-01 -0.53236261D-01 -0.30083754D-01
  0.10613761D-03  0.13735482D-03  0.20558797D-01 -0.17461977D-02 -0.12128253D-14
  0.69563223D-02  0.23326432D-02  0.61106162D-14 -0.16487310D-03  0.62862207D-03
 -0.14343770D-13 -0.73039641D-02  0.44217294D-02  0.28822347D-02  0.16684293D-02
 -0.76563103D-14  0.25505004D-14 -0.37579578D-03  0.47826319D-03 -0.10246741D-03
 -0.45960911D-03  0.15506796D-14 -0.58848453D-15
MO    5     MO 0.0        OCC NO =    2.0000000  ORB. ENERGY =   -0.526518
 -0.96336760D-03 -0.17959362D-02 -0.30354486D-02 -0.45632736D-02 -0.56065088D-02
 -0.47355930D-02 -0.17860914D-02  0.88394662D-05 -0.87938449D-02 -0.16464852D-01
 -0.28032820D-01 -0.43362510D-01 -0.57106900D-01 -0.59337727D-01 -0.37706462D-01
  0.25269994D-01  0.10301011D-01  0.18349569D-01  0.17876649D-02  0.22485437D+00
  0.21081527D+00  0.15011303D+00  0.29404676D+00  0.27568753D+00  0.19630594D+00
 -0.60803709D-13 -0.57007342D-13 -0.40592624D-13  0.53451211D-01  0.61630111D-01
  0.23108609D-12  0.66131926D-02  0.44512951D-02  0.32487764D-12 -0.43907067D-04
 -0.76584571D-04  0.11175003D-13  0.42154284D-02 -0.19843388D-01  0.15627960D-01
 -0.13220626D-01  0.12031050D-13  0.25462217D-13  0.20216249D-03 -0.31046856D-02
  0.29025231D-02 -0.64272411D-02  0.19884622D-12  0.12899336D-12  0.36264994D-04
  0.10097764D-03 -0.13724263D-03  0.20934816D-03  0.47407225D-13  0.12483079D-13
 -0.17785952D-02  0.13326814D-02  0.62365484D-14  0.68188660D-02 -0.14929561D-02
  0.21864747D-14 -0.14830803D-02 -0.25050881D-02 -0.20896120D-13  0.83075180D-13
 -0.36894213D-03 -0.12014470D-04 -0.90151835D-15  0.53935329D-03 -0.20965548D-06
 -0.44970906D-14  0.56747310D-03  0.36253065D-04  0.72016457D-14  0.51784608D-13
 -0.29577748D-04 -0.55129116D-04 -0.93480715D-04 -0.14148742D-03 -0.17653499D-03
 -0.15162001D-03 -0.58209870D-04  0.26037632D-06  0.19557878D-01  0.36681285D-01
  0.62533550D-01  0.97727767D-01  0.13068065D+00  0.13953646D+00  0.85309857D-01
 -0.56282262D-01 -0.29295112D-01 -0.46752507D-01 -0.63032207D-02  0.97420000D+00
  0.94464630D+00  0.63725281D+00 -0.69067696D+00 -0.66972432D+00 -0.45179207D+00
 -0.16776900D-13 -0.16267950D-13 -0.10974263D-13  0.21070278D+00 -0.15641063D+00
  0.18577191D-13  0.17524079D-01 -0.18153147D-01 -0.34409774D-13  0.35993769D-03
 -0.49405713D-03  0.33910722D-14  0.49708594D-01 -0.40051213D-01 -0.96573818D-02
 -0.13816322D-01 -0.48126718D-14 -0.19098377D-13  0.11530267D-01 -0.14030378D-01
  0.25001107D-02  0.73511596D-02  0.23054960D-14  0.19550423D-13 -0.58379608D-03
 -0.42968685D-03  0.10134829D-02  0.14805093D-02 -0.22237842D-14 -0.18206392D-13
 -0.10764118D-02 -0.65149481D-02 -0.19868156D-14  0.16043868D-01  0.18874714D-02
 -0.57136741D-14 -0.12814632D-01  0.17657373D-01  0.11674121D-13 -0.62116610D-14
  0.39241694D-03 -0.17431443D-02  0.73295943D-15 -0.78239148D-03  0.38187553D-02
 -0.42631603D-16 -0.39485934D-03  0.14106777D-02 -0.21562467D-14  0.34531559D-14
 -0.29956939D-02 -0.54028573D-02 -0.79665099D-02 -0.68333547D-02  0.23868644D-02
 -0.14195255D-03 -0.33912186D-04  0.85206449D-02  0.17195365D-16  0.12970795D-02
  0.23200981D-02  0.42123248D-13  0.56118014D-03 -0.37194196D-03  0.33584876D-13
  0.16031031D-02 -0.20904594D-02  0.48735629D-03  0.58539630D-02  0.18544704D-13
 -0.10821174D-13 -0.84163884D-04  0.22254723D-03 -0.13838335D-03 -0.50597740D-03
  0.16083599D-13 -0.65724039D-14  0.18850277D-01  0.33997250D-01  0.50128926D-01
  0.27788301D-01  0.12778687D-02  0.79092482D-04 -0.38312424D-02 -0.22427487D-02
 -0.14319661D-01  0.10624667D-02  0.19115382D-02 -0.37098072D-02  0.13859907D-03
 -0.10713028D-03  0.57054646D-03 -0.10847747D-02 -0.25242978D-02  0.36090725D-02
 -0.13165623D-02  0.26418399D-02  0.10781969D-02 -0.63183020D-04 -0.53048211D-04
  0.11623123D-03 -0.25177445D-03 -0.17056675D-03  0.92720930D-04  0.18850277D-01
  0.33997250D-01  0.50128926D-01  0.27788301D-01  0.12778687D-02  0.79092482D-04
 -0.38312424D-02 -0.22427487D-02  0.14319661D-01  0.10624667D-02  0.19115382D-02
  0.37098072D-02  0.13859907D-03 -0.10713028D-03 -0.57054646D-03 -0.10847747D-02
 -0.25242978D-02  0.36090725D-02 -0.13165623D-02 -0.26418399D-02 -0.10781969D-02
 -0.63183020D-04 -0.53048211D-04  0.11623123D-03 -0.25177445D-03  0.17056675D-03
 -0.92720930D-04  0.32250304D-01  0.58164751D-01  0.85763891D-01  0.73018291D-01
  0.85313310D-02 -0.19786959D-03 -0.24919029D-01  0.52225307D-02 -0.25700681D-15
 -0.14409099D-01  0.33779086D-02  0.51278977D-14  0.91678019D-04 -0.18506042D-03
 -0.78195052D-14  0.99107812D-02 -0.43049788D-02 -0.56058024D-02 -0.54926753D-02
 -0.47660190D-14  0.22854775D-14  0.27795964D-03 -0.37450610D-03  0.96546463D-04
  0.47400957D-03 -0.42378751D-15 -0.24914361D-15
MO    6     MO 0.0        OCC NO =    2.0000000  ORB. ENERGY =   -0.454752
 -0.47416621D-14 -0.88395362D-14 -0.14940373D-13 -0.22460275D-13 -0.27595043D-13
 -0.23308425D-13 -0.87910804D-14  0.43507547D-16  0.36628099D-14  0.68579358D-14
  0.11676223D-13  0.18061341D-13  0.23786150D-13  0.24715334D-13  0.15705485D-13
 -0.10525451D-13 -0.72857554D-13  0.66096055D-12  0.62416723D-13 -0.63340675D-13
 -0.59385909D-13 -0.42286305D-13 -0.58032298D-14 -0.54408968D-14 -0.38742427D-14
  0.49741075D+00  0.46635419D+00  0.33207197D+00  0.24051626D-12  0.67946188D-13
  0.11985004D+00  0.37257821D-12  0.44420603D-13  0.11384420D-01  0.56960694D-14
 -0.13403377D-14  0.62074820D-04 -0.21864107D-14 -0.37292500D-14  0.59156606D-14
  0.27212573D-13  0.29850462D-01  0.33146839D-02 -0.92217810D-13 -0.44614549D-13
  0.13683236D-12  0.12287995D-12  0.64826373D-02 -0.27757004D-03 -0.30962097D-13
 -0.12688632D-14  0.32230960D-13  0.31181481D-13 -0.42366550D-03  0.10945034D-02
 -0.60267250D-14 -0.74428479D-14 -0.19194463D-02 -0.25761433D-13 -0.39548854D-13
 -0.13083941D-02  0.43841608D-13  0.61877397D-13  0.70667329D-02  0.13072869D-02
 -0.15005005D-13 -0.10000245D-13 -0.11941425D-03 -0.18165825D-14 -0.95978858D-14
  0.49477641D-03  0.46831599D-13  0.39598620D-13 -0.13653366D-03 -0.14233172D-03
  0.43717110D-14  0.81483068D-14  0.13816828D-13  0.20912413D-13  0.26092586D-13
  0.22410052D-13  0.86036546D-14 -0.38484675D-16 -0.26223064D-14 -0.49182006D-14
 -0.83844539D-14 -0.13103269D-13 -0.17521568D-13 -0.18708950D-13 -0.11438285D-13
  0.75462857D-14  0.65195994D-14 -0.22508641D-12 -0.15404126D-12  0.30178970D-13
  0.29263449D-13  0.19740950D-13 -0.27651193D-13 -0.26812356D-13 -0.18087457D-13
  0.78820722D+00  0.76429586D+00  0.51558947D+00 -0.38525312D-13  0.30132702D-13