 Molden2AIM, Version 4.0.0 (06/02/2016)           Time: Fri Jun 29 20:17:42 2018
GAUSSIAN             13 MOL ORBITALS    368 PRIMITIVES        8 NUCLEI
  C    1    (CENTRE  1)   0.00000000  0.00000756 -0.60888299  CHARGE =  6.0
  Si   2    (CENTRE  2)   0.00000000  0.00001134  2.95686014  CHARGE = 14.0
  H    3    (CENTRE  3)   2.29579803  1.32548414  3.95624558  CHARGE =  1.0
  H    4    (CENTRE  4)  -2.29579803  1.32548414  3.95624558  CHARGE =  1.0
  H    5    (CENTRE  5)   0.00000000 -2.65095127  3.95622479  CHARGE =  1.0
  H    6    (CENTRE  6)   0.00000000  1.94133077 -1.34494832  CHARGE =  1.0
  H    7    (CENTRE  7)  -1.68124020 -0.97066349 -1.34492186  CHARGE =  1.0
  H    8    (CENTRE  8)   1.68124020 -0.97066349 -1.34492186  CHARGE =  1.0
CENTRE ASSIGNMENTS    1  1  1  1  1  1  1  1  1  1  1  1  1  1  1  1  1  1  1  1
CENTRE ASSIGNMENTS    1  1  1  1  1  1  1  1  1  1  1  1  1  1  1  1  1  1  1  1
CENTRE ASSIGNMENTS    1  1  1  1  1  1  1  1  1  1  1  1  1  1  1  1  1  1  1  1
CENTRE ASSIGNMENTS    1  1  1  1  1  1  1  1  1  1  1  1  1  1  1  2  2  2  2  2
CENTRE ASSIGNMENTS    2  2  2  2  2  2  2  2  2  2  2  2  2  2  2  2  2  2  2  2
CENTRE ASSIGNMENTS    2  2  2  2  2  2  2  2  2  2  2  2  2  2  2  2  2  2  2  2
CENTRE ASSIGNMENTS    2  2  2  2  2  2  2  2  2  2  2  2  2  2  2  2  2  2  2  2
CENTRE ASSIGNMENTS    2  2  2  2  2  2  2  2  2  2  2  2  2  2  2  2  2  2  2  2
CENTRE ASSIGNMENTS    2  2  2  2  2  2  2  2  2  2  2  2  2  2  2  2  2  2  2  2
CENTRE ASSIGNMENTS    2  2  2  2  2  2  2  2  2  2  2  2  2  2  2  2  2  2  2  2
CENTRE ASSIGNMENTS    2  2  2  2  2  2  3  3  3  3  3  3  3  3  3  3  3  3  3  3
CENTRE ASSIGNMENTS    3  3  3  3  3  3  3  3  3  3  3  3  3  4  4  4  4  4  4  4
CENTRE ASSIGNMENTS    4  4  4  4  4  4  4  4  4  4  4  4  4  4  4  4  4  4  4  4
CENTRE ASSIGNMENTS    5  5  5  5  5  5  5  5  5  5  5  5  5  5  5  5  5  5  5  5
CENTRE ASSIGNMENTS    5  5  5  5  5  5  5  6  6  6  6  6  6  6  6  6  6  6  6  6
CENTRE ASSIGNMENTS    6  6  6  6  6  6  6  6  6  6  6  6  6  6  7  7  7  7  7  7
CENTRE ASSIGNMENTS    7  7  7  7  7  7  7  7  7  7  7  7  7  7  7  7  7  7  7  7
CENTRE ASSIGNMENTS    7  8  8  8  8  8  8  8  8  8  8  8  8  8  8  8  8  8  8  8
CENTRE ASSIGNMENTS    8  8  8  8  8  8  8  8
TYPE ASSIGNMENTS      1  1  1  1  1  1  1  1  1  1  1  1  1  1  1  1  1  1  1  2
TYPE ASSIGNMENTS      2  2  3  3  3  4  4  4  2  3  4  2  3  4  2  3  4  5  6  7
TYPE ASSIGNMENTS      8  9 10  5  6  7  8  9 10  5  6  7  8  9 10 11 12 13 17 14
TYPE ASSIGNMENTS     15 18 19 16 20 11 12 13 17 14 15 18 19 16 20  1  1  1  1  1
TYPE ASSIGNMENTS      1  1  1  1  1  1  1  1  1  1  1  1  1  1  1  1  1  1  1  1
TYPE ASSIGNMENTS      1  1  1  1  1  1  1  1  1  1  1  1  1  1  1  1  1  2  2  2
TYPE ASSIGNMENTS      2  2  2  2  3  3  3  3  3  3  3  4  4  4  4  4  4  4  2  2
TYPE ASSIGNMENTS      2  2  2  2  2  3  3  3  3  3  3  3  4  4  4  4  4  4  4  2
TYPE ASSIGNMENTS      3  4  2  3  4  2  3  4  5  6  7  8  9 10  5  6  7  8  9 10
TYPE ASSIGNMENTS      5  6  7  8  9 10 11 12 13 17 14 15 18 19 16 20 11 12 13 17
TYPE ASSIGNMENTS     14 15 18 19 16 20  1  1  1  1  1  1  2  3  4  2  3  4  2  3
TYPE ASSIGNMENTS      4  5  6  7  8  9 10  5  6  7  8  9 10  1  1  1  1  1  1  2
TYPE ASSIGNMENTS      3  4  2  3  4  2  3  4  5  6  7  8  9 10  5  6  7  8  9 10
TYPE ASSIGNMENTS      1  1  1  1  1  1  2  3  4  2  3  4  2  3  4  5  6  7  8  9
TYPE ASSIGNMENTS     10  5  6  7  8  9 10  1  1  1  1  1  1  2  3  4  2  3  4  2
TYPE ASSIGNMENTS      3  4  5  6  7  8  9 10  5  6  7  8  9 10  1  1  1  1  1  1
TYPE ASSIGNMENTS      2  3  4  2  3  4  2  3  4  5  6  7  8  9 10  5  6  7  8  9
TYPE ASSIGNMENTS     10  1  1  1  1  1  1  2  3  4  2  3  4  2  3  4  5  6  7  8
TYPE ASSIGNMENTS      9 10  5  6  7  8  9 10
EXPONENTS  0.8236000D+04 0.1235000D+04 0.2808000D+03 0.7927000D+02 0.2559000D+02
EXPONENTS  0.8997000D+01 0.3319000D+01 0.3643000D+00 0.8236000D+04 0.1235000D+04
EXPONENTS  0.2808000D+03 0.7927000D+02 0.2559000D+02 0.8997000D+01 0.3319000D+01
EXPONENTS  0.3643000D+00 0.9059000D+00 0.1285000D+00 0.4402000D-01 0.1871000D+02
EXPONENTS  0.4133000D+01 0.1200000D+01 0.1871000D+02 0.4133000D+01 0.1200000D+01
EXPONENTS  0.1871000D+02 0.4133000D+01 0.1200000D+01 0.3827000D+00 0.3827000D+00
EXPONENTS  0.3827000D+00 0.1209000D+00 0.1209000D+00 0.1209000D+00 0.3569000D-01
EXPONENTS  0.3569000D-01 0.3569000D-01 0.1097000D+01 0.1097000D+01 0.1097000D+01
EXPONENTS  0.1097000D+01 0.1097000D+01 0.1097000D+01 0.3180000D+00 0.3180000D+00
EXPONENTS  0.3180000D+00 0.3180000D+00 0.3180000D+00 0.3180000D+00 0.1000000D+00
EXPONENTS  0.1000000D+00 0.1000000D+00 0.1000000D+00 0.1000000D+00 0.1000000D+00
EXPONENTS  0.7610000D+00 0.7610000D+00 0.7610000D+00 0.7610000D+00 0.7610000D+00
EXPONENTS  0.7610000D+00 0.7610000D+00 0.7610000D+00 0.7610000D+00 0.7610000D+00
EXPONENTS  0.2680000D+00 0.2680000D+00 0.2680000D+00 0.2680000D+00 0.2680000D+00
EXPONENTS  0.2680000D+00 0.2680000D+00 0.2680000D+00 0.2680000D+00 0.2680000D+00
EXPONENTS  0.2549000D+06 0.3819000D+05 0.8690000D+04 0.2462000D+04 0.8048000D+03
EXPONENTS  0.2913000D+03 0.1136000D+03 0.4675000D+02 0.1982000D+02 0.7708000D+01
EXPONENTS  0.3340000D+01 0.1402000D+01 0.2070000D+00 0.2549000D+06 0.3819000D+05
EXPONENTS  0.8690000D+04 0.2462000D+04 0.8048000D+03 0.2913000D+03 0.1136000D+03
EXPONENTS  0.4675000D+02 0.1982000D+02 0.7708000D+01 0.3340000D+01 0.1402000D+01
EXPONENTS  0.2070000D+00 0.2549000D+06 0.3819000D+05 0.8690000D+04 0.2462000D+04
EXPONENTS  0.8048000D+03 0.2913000D+03 0.1136000D+03 0.4675000D+02 0.1982000D+02
EXPONENTS  0.7708000D+01 0.3340000D+01 0.1402000D+01 0.2070000D+00 0.4387000D+00
EXPONENTS  0.7944000D-01 0.3300000D-01 0.4815000D+03 0.1139000D+03 0.3623000D+02
EXPONENTS  0.1334000D+02 0.5252000D+01 0.2120000D+01 0.2528000D+00 0.4815000D+03
EXPONENTS  0.1139000D+03 0.3623000D+02 0.1334000D+02 0.5252000D+01 0.2120000D+01
EXPONENTS  0.2528000D+00 0.4815000D+03 0.1139000D+03 0.3623000D+02 0.1334000D+02
EXPONENTS  0.5252000D+01 0.2120000D+01 0.2528000D+00 0.4815000D+03 0.1139000D+03
EXPONENTS  0.3623000D+02 0.1334000D+02 0.5252000D+01 0.2120000D+01 0.2528000D+00
EXPONENTS  0.4815000D+03 0.1139000D+03 0.3623000D+02 0.1334000D+02 0.5252000D+01
EXPONENTS  0.2120000D+01 0.2528000D+00 0.4815000D+03 0.1139000D+03 0.3623000D+02
EXPONENTS  0.1334000D+02 0.5252000D+01 0.2120000D+01 0.2528000D+00 0.8561000D+00
EXPONENTS  0.8561000D+00 0.8561000D+00 0.7889000D-01 0.7889000D-01 0.7889000D-01
EXPONENTS  0.2370000D-01 0.2370000D-01 0.2370000D-01 0.1590000D+00 0.1590000D+00
EXPONENTS  0.1590000D+00 0.1590000D+00 0.1590000D+00 0.1590000D+00 0.4810000D+00
EXPONENTS  0.4810000D+00 0.4810000D+00 0.4810000D+00 0.4810000D+00 0.4810000D+00
EXPONENTS  0.5560000D-01 0.5560000D-01 0.5560000D-01 0.5560000D-01 0.5560000D-01
EXPONENTS  0.5560000D-01 0.3360000D+00 0.3360000D+00 0.3360000D+00 0.3360000D+00
EXPONENTS  0.3360000D+00 0.3360000D+00 0.3360000D+00 0.3360000D+00 0.3360000D+00
EXPONENTS  0.3360000D+00 0.1250000D+00 0.1250000D+00 0.1250000D+00 0.1250000D+00
EXPONENTS  0.1250000D+00 0.1250000D+00 0.1250000D+00 0.1250000D+00 0.1250000D+00
EXPONENTS  0.1250000D+00 0.3387000D+02 0.5095000D+01 0.1159000D+01 0.3258000D+00
EXPONENTS  0.1027000D+00 0.2526000D-01 0.1407000D+01 0.1407000D+01 0.1407000D+01
EXPONENTS  0.3880000D+00 0.3880000D+00 0.3880000D+00 0.1020000D+00 0.1020000D+00
EXPONENTS  0.1020000D+00 0.1057000D+01 0.1057000D+01 0.1057000D+01 0.1057000D+01
EXPONENTS  0.1057000D+01 0.1057000D+01 0.2470000D+00 0.2470000D+00 0.2470000D+00
EXPONENTS  0.2470000D+00 0.2470000D+00 0.2470000D+00 0.3387000D+02 0.5095000D+01
EXPONENTS  0.1159000D+01 0.3258000D+00 0.1027000D+00 0.2526000D-01 0.1407000D+01
EXPONENTS  0.1407000D+01 0.1407000D+01 0.3880000D+00 0.3880000D+00 0.3880000D+00
EXPONENTS  0.1020000D+00 0.1020000D+00 0.1020000D+00 0.1057000D+01 0.1057000D+01
EXPONENTS  0.1057000D+01 0.1057000D+01 0.1057000D+01 0.1057000D+01 0.2470000D+00
EXPONENTS  0.2470000D+00 0.2470000D+00 0.2470000D+00 0.2470000D+00 0.2470000D+00
EXPONENTS  0.3387000D+02 0.5095000D+01 0.1159000D+01 0.3258000D+00 0.1027000D+00
EXPONENTS  0.2526000D-01 0.1407000D+01 0.1407000D+01 0.1407000D+01 0.3880000D+00
EXPONENTS  0.3880000D+00 0.3880000D+00 0.1020000D+00 0.1020000D+00 0.1020000D+00
EXPONENTS  0.1057000D+01 0.1057000D+01 0.1057000D+01 0.1057000D+01 0.1057000D+01
EXPONENTS  0.1057000D+01 0.2470000D+00 0.2470000D+00 0.2470000D+00 0.2470000D+00
EXPONENTS  0.2470000D+00 0.2470000D+00 0.3387000D+02 0.5095000D+01 0.1159000D+01
EXPONENTS  0.3258000D+00 0.1027000D+00 0.2526000D-01 0.1407000D+01 0.1407000D+01
EXPONENTS  0.1407000D+01 0.3880000D+00 0.3880000D+00 0.3880000D+00 0.1020000D+00
EXPONENTS  0.1020000D+00 0.1020000D+00 0.1057000D+01 0.1057000D+01 0.1057000D+01
EXPONENTS  0.1057000D+01 0.1057000D+01 0.1057000D+01 0.2470000D+00 0.2470000D+00
EXPONENTS  0.2470000D+00 0.2470000D+00 0.2470000D+00 0.2470000D+00 0.3387000D+02
EXPONENTS  0.5095000D+01 0.1159000D+01 0.3258000D+00 0.1027000D+00 0.2526000D-01
EXPONENTS  0.1407000D+01 0.1407000D+01 0.1407000D+01 0.3880000D+00 0.3880000D+00
EXPONENTS  0.3880000D+00 0.1020000D+00 0.1020000D+00 0.1020000D+00 0.1057000D+01
EXPONENTS  0.1057000D+01 0.1057000D+01 0.1057000D+01 0.1057000D+01 0.1057000D+01
EXPONENTS  0.2470000D+00 0.2470000D+00 0.2470000D+00 0.2470000D+00 0.2470000D+00
EXPONENTS  0.2470000D+00 0.3387000D+02 0.5095000D+01 0.1159000D+01 0.3258000D+00
EXPONENTS  0.1027000D+00 0.2526000D-01 0.1407000D+01 0.1407000D+01 0.1407000D+01
EXPONENTS  0.3880000D+00 0.3880000D+00 0.3880000D+00 0.1020000D+00 0.1020000D+00
EXPONENTS  0.1020000D+00 0.1057000D+01 0.1057000D+01 0.1057000D+01 0.1057000D+01
EXPONENTS  0.1057000D+01 0.1057000D+01 0.2470000D+00 0.2470000D+00 0.2470000D+00
EXPONENTS  0.2470000D+00 0.2470000D+00 0.2470000D+00
MO    1     MO 0.0        OCC NO =    2.0000000  ORB. ENERGY =  -66.253923
  0.90868902D-04  0.16940029D-03  0.28631634D-03  0.43042724D-03  0.52882960D-03
  0.44668114D-03  0.16847169D-03 -0.83377580D-06 -0.65844784D-04 -0.12328221D-03
 -0.20989851D-03 -0.32468108D-03 -0.42759356D-03 -0.44429710D-03 -0.28233086D-03
  0.18921158D-03  0.13664877D-03  0.15659906D-03 -0.10615710D-03 -0.37169922D-15
 -0.34849164D-15 -0.24814681D-15  0.12697903D-08  0.11905091D-08  0.84771339D-09
  0.19427734D-03  0.18214736D-03  0.12969977D-03  0.15131711D-14  0.55285803D-09
 -0.82811856D-04  0.14979846D-14 -0.34472953D-08  0.69957197D-03 -0.10628965D-16
 -0.19397601D-09 -0.16108900D-04 -0.71891918D-04 -0.71891244D-04  0.14378316D-03
 -0.25905556D-15 -0.34103316D-15  0.98933855D-09  0.11676070D-03  0.11676413D-03
 -0.23352483D-03 -0.11721155D-14 -0.48609502D-15 -0.21798178D-08 -0.12017705D-04
 -0.12016080D-04  0.24033785D-04 -0.30220929D-15 -0.91777775D-17  0.82381491D-08
  0.18017905D-16  0.65794143D-04 -0.36987344D-05  0.39475538D-16 -0.19738145D-03
  0.55487745D-05 -0.93529254D-16 -0.98152128D-09  0.55474288D-05  0.57752111D-15
  0.18057857D-16 -0.92738271D-05 -0.66752093D-04 -0.68620666D-18  0.27823482D-04
  0.10012952D-03 -0.53487366D-16 -0.20011263D-08  0.10012676D-03  0.17459701D-15
  0.50660330D+00  0.94763115D+00  0.16365164D+01  0.26434006D+01  0.39809069D+01
  0.54140146D+01  0.61633067D+01  0.49931236D+01  0.20268075D+01  0.18481697D+00
 -0.71025572D-02  0.23750440D-02  0.13328208D-03 -0.23068440D-02 -0.43177769D-02
 -0.74677612D-02 -0.12137496D-01 -0.18570270D-01 -0.26352496D-01 -0.33057018D-01
 -0.33704494D-01 -0.20708711D-01  0.45132941D-02  0.16531529D-01  0.75609392D-02
 -0.40133879D-04  0.12201045D-02  0.22820213D-02  0.39518426D-02  0.64163985D-02
  0.98490418D-02  0.13990125D-01  0.17748692D-01  0.18374692D-01  0.11835534D-01
 -0.29110112D-02 -0.11866178D-01 -0.10349372D-01  0.52745786D-02 -0.22481921D-02
 -0.86453266D-02  0.39298547D-03 -0.29852115D-14 -0.39376478D-14 -0.43737594D-14
 -0.37433216D-14 -0.21389039D-14 -0.69412093D-15 -0.48875058D-18 -0.34172401D-07
 -0.45075158D-07 -0.50067427D-07 -0.42850661D-07 -0.24484523D-07 -0.79457616D-08
 -0.55948401D-11  0.64905213D-03  0.85613320D-03  0.95095368D-03  0.81388231D-03
  0.46504581D-03  0.15091750D-03  0.10626537D-06  0.24718484D-14  0.33802209D-14
  0.36746406D-14  0.33731279D-14  0.18384917D-14  0.77580818D-15 -0.26756683D-15
  0.31879389D-07  0.43594655D-07  0.47391781D-07  0.43503176D-07  0.23710998D-07
  0.10005586D-07 -0.34508051D-08 -0.51599234D-03 -0.70561288D-03 -0.76707228D-03
 -0.70413224D-03 -0.38378066D-03 -0.16194807D-03  0.55853925D-04  0.13526462D-15
  0.29082677D-10 -0.92497580D-04 -0.31395197D-15  0.59108955D-08  0.17479922D-04
  0.94533476D-16 -0.26387553D-09  0.17439751D-05  0.54264252D-04  0.54264926D-04
 -0.10852918D-03  0.19509774D-15 -0.35942065D-16  0.50052903D-09 -0.31854428D-05
 -0.31851214D-05  0.63705642D-05 -0.59119444D-16 -0.15815126D-15  0.29361379D-08
  0.12654756D-05  0.12659438D-05 -0.25314194D-05  0.53092954D-16 -0.17193169D-16
 -0.37805187D-09 -0.10455896D-16 -0.12288886D-03 -0.13700515D-03  0.50369840D-16
  0.36866314D-03  0.20550981D-03 -0.19002153D-16  0.34386242D-08  0.20550562D-03
  0.26785090D-16  0.72241790D-17  0.27400953D-04  0.42797980D-04  0.18421327D-16
 -0.82202189D-04 -0.64197780D-04 -0.40093864D-16 -0.67068217D-09 -0.64196159D-04
  0.65543910D-17  0.45200543D-04  0.81521040D-04  0.12020273D-03 -0.56594868D-03
  0.27050869D-02 -0.34431377D-04 -0.13575848D-03 -0.78379763D-04 -0.49821278D-04
  0.57646819D-03  0.33282192D-03  0.28085821D-03 -0.31449610D-03 -0.18157552D-03
 -0.15586279D-03 -0.10871302D-03  0.56871813D-04  0.51841205D-04 -0.28679997D-03
 -0.23375713D-03 -0.13495747D-03 -0.54360867D-04  0.11889385D-04  0.42471482D-04
 -0.11474604D-03 -0.10986164D-03 -0.63428694D-04  0.45200543D-04  0.81521040D-04
  0.12020273D-03 -0.56594868D-03  0.27050869D-02 -0.34431377D-04  0.13575848D-03
 -0.78379763D-04 -0.49821278D-04 -0.57646819D-03  0.33282192D-03  0.28085821D-03
  0.31449610D-03 -0.18157552D-03 -0.15586279D-03 -0.10871302D-03  0.56871813D-04
  0.51841205D-04  0.28679997D-03  0.23375713D-03 -0.13495747D-03 -0.54360867D-04
  0.11889385D-04  0.42471482D-04  0.11474604D-03  0.10986164D-03 -0.63428694D-04
  0.45200950D-04  0.81521775D-04  0.12020381D-03 -0.56595577D-03  0.27051012D-02
 -0.34433252D-04 -0.54764465D-18  0.15676106D-03 -0.49817757D-04  0.31124923D-16
 -0.66565056D-03  0.28085150D-03  0.19817535D-15  0.36315346D-03 -0.15586281D-03
  0.13966422D-03 -0.19150645D-03  0.51842227D-04 -0.49123914D-16  0.15588606D-16
  0.26991280D-03  0.45012703D-04 -0.87486131D-04  0.42473427D-04  0.87892273D-16
 -0.17799932D-17  0.12685546D-03 -0.91659776D-05 -0.16531218D-04 -0.24375272D-04
  0.13008981D-03  0.73826344D-03 -0.52886839D-05 -0.43747318D-16  0.10376392D-03
 -0.41475592D-04  0.28033875D-15 -0.11383279D-03 -0.96842231D-04  0.27384387D-15
 -0.89325918D-04  0.12830487D-03  0.16345136D-04  0.60732165D-04 -0.77077301D-04
 -0.12625197D-15  0.44194015D-16  0.68661391D-04 -0.11891012D-05 -0.15042855D-04
  0.16231957D-04 -0.10376644D-15  0.57864319D-16  0.11704378D-04 -0.91663549D-05
 -0.16531899D-04 -0.24376275D-04  0.13009495D-03  0.73823017D-03 -0.52893685D-05
 -0.89860856D-04 -0.51882910D-04 -0.41475344D-04  0.98580636D-04  0.56918971D-04
 -0.96841864D-04  0.77349654D-04  0.44662044D-04  0.12831215D-03  0.49634183D-04
  0.27439387D-04 -0.77073570D-04  0.38441673D-04 -0.59463410D-04 -0.34327965D-04
 -0.11580380D-04 -0.46518043D-05  0.16232184D-04 -0.11997330D-04 -0.10135459D-04
 -0.58550568D-05 -0.91663549D-05 -0.16531899D-04 -0.24376275D-04  0.13009495D-03
  0.73823017D-03 -0.52893685D-05  0.89860856D-04 -0.51882910D-04 -0.41475344D-04
 -0.98580636D-04  0.56918971D-04 -0.96841864D-04 -0.77349654D-04  0.44662044D-04
  0.12831215D-03  0.49634183D-04  0.27439387D-04 -0.77073570D-04 -0.38441673D-04
  0.59463410D-04 -0.34327965D-04 -0.11580380D-04 -0.46518043D-05  0.16232184D-04
  0.11997330D-04  0.10135459D-04 -0.58550568D-05
MO    2     MO 0.0        OCC NO =    2.0000000  ORB. ENERGY =  -10.216679
  0.32916860D+00  0.61364511D+00  0.10371683D+01  0.15592037D+01  0.19156619D+01
  0.16180828D+01  0.61028128D+00 -0.30203161D-02 -0.26322117D-02 -0.49283308D-02
 -0.83909049D-02 -0.12979454D-01 -0.17093484D-01 -0.17761225D-01 -0.11286461D-01
  0.75639238D-02  0.33656653D-01  0.20959034D-02 -0.35837519D-03 -0.18601724D-13
 -0.17440298D-13 -0.12418531D-13  0.10807244D-08  0.10132478D-08  0.72149280D-09
  0.27383536D-03  0.25673805D-03  0.18281279D-03  0.77993044D-13 -0.60081062D-07
 -0.34764452D-02  0.98765347D-13 -0.32208072D-07 -0.36537887D-03  0.25390755D-15
 -0.55921528D-09 -0.38908072D-04  0.81210777D-03  0.81210446D-03 -0.16242122D-02
 -0.56026911D-14 -0.14527490D-13 -0.62395619D-07  0.58219830D-03  0.58217343D-03
 -0.11643717D-02 -0.64291582D-13 -0.34135966D-13  0.35103565D-08  0.18820407D-04
  0.18818222D-04 -0.37638629D-04 -0.14218168D-13 -0.72076361D-14 -0.60753396D-13
  0.12069547D-14  0.12699362D-02  0.92426741D-03  0.19322112D-14 -0.38098610D-02
 -0.13863695D-02 -0.55530752D-14  0.52432156D-07 -0.13864327D-02  0.30275755D-13
 -0.28434730D-15 -0.98033247D-04 -0.25001872D-03  0.73734600D-15  0.29410931D-03
  0.37501735D-03  0.11569591D-15 -0.95641834D-08  0.37503882D-03  0.11503224D-13
  0.19167669D-03  0.35854247D-03  0.61918673D-03  0.10001480D-02  0.15062023D-02
  0.20484280D-02  0.23319276D-02  0.18891811D-02  0.76685594D-03  0.69926714D-04
 -0.26872992D-05  0.89861349D-06  0.50428152D-07 -0.39671559D-03 -0.74254235D-03
 -0.12842556D-02 -0.20873253D-02 -0.31935906D-02 -0.45319258D-02 -0.56849245D-02
 -0.57962731D-02 -0.35613454D-02  0.77616610D-03  0.28429816D-02  0.13002797D-02
 -0.69019558D-05  0.24546860D-03  0.45911197D-03  0.79505753D-03  0.12908930D-02
  0.19814946D-02  0.28146247D-02  0.35707979D-02  0.36967407D-02  0.23811502D-02
 -0.58565627D-03 -0.23873152D-02 -0.20821543D-02  0.10611742D-02  0.30393561D-03
 -0.14679864D-02  0.38088013D-03 -0.37676830D-14 -0.49697681D-14 -0.55201915D-14
 -0.47245059D-14 -0.26995447D-14 -0.87606110D-15 -0.61685991D-18 -0.10973224D-06
 -0.14474248D-06 -0.16077334D-06 -0.13759931D-06 -0.78623142D-07 -0.25514924D-07
 -0.17965794D-10 -0.18579005D-01 -0.24506666D-01 -0.27220885D-01 -0.23297241D-01
 -0.13311856D-01 -0.43199876D-02 -0.30418280D-05  0.79204312D-15  0.10831088D-14
  0.11774483D-14  0.10808360D-14  0.58909952D-15  0.24858868D-15 -0.85735221D-16
  0.96072059D-07  0.13137730D-06  0.14282036D-06  0.13110163D-06  0.71455709D-07
  0.30152937D-07 -0.10399382D-07  0.16495080D-01  0.22556810D-01  0.24521525D-01
  0.22509477D-01  0.12268579D-01  0.51771048D-02 -0.17855206D-02  0.10492265D-14
  0.30181104D-08  0.33772634D-03  0.10452345D-13  0.45753556D-08 -0.55085290D-03
  0.10193188D-14 -0.16148913D-10 -0.23992474D-04 -0.16609439D-03 -0.16609516D-03
  0.33218955D-03  0.70839529D-14  0.63183064D-14 -0.10554631D-07 -0.34797484D-03
 -0.34796726D-03  0.69594210D-03 -0.12384716D-14 -0.19437771D-14 -0.44145681D-08
 -0.12233957D-04 -0.12233944D-04  0.24467901D-04  0.11025394D-14 -0.18595003D-15
 -0.81621861D-09  0.36471557D-15  0.82505865D-04 -0.57112441D-04  0.10594376D-15
 -0.24751728D-03  0.85662263D-04 -0.12000905D-14 -0.31521894D-09  0.85675060D-04
  0.31720536D-14  0.10310681D-15  0.19500937D-04 -0.42143423D-05  0.14674368D-15
 -0.58503249D-04  0.63209710D-05 -0.45606411D-15  0.43904408D-09  0.63220558D-05
  0.10054255D-14 -0.30749507D-04 -0.55458003D-04 -0.81772793D-04  0.56185535D-03
  0.95392295D-03  0.12320936D-04 -0.63791562D-04 -0.36833939D-04  0.40320940D-04
 -0.20044726D-03 -0.11572491D-03 -0.25460037D-03 -0.80590314D-04 -0.46528089D-04
 -0.10489499D-03  0.58691553D-04 -0.35830707D-04 -0.22860846D-04  0.16372127D-03
  0.18599670D-03  0.10738449D-03 -0.43345794D-05 -0.11251327D-04  0.15585906D-04
  0.11978239D-04 -0.12775837D-04 -0.73775061D-05 -0.30749507D-04 -0.55458003D-04
 -0.81772793D-04  0.56185535D-03  0.95392295D-03  0.12320936D-04  0.63791562D-04
 -0.36833939D-04  0.40320940D-04  0.20044726D-03 -0.11572491D-03 -0.25460037D-03
  0.80590314D-04 -0.46528089D-04 -0.10489499D-03  0.58691553D-04 -0.35830707D-04
 -0.22860846D-04 -0.16372127D-03 -0.18599670D-03  0.10738449D-03 -0.43345794D-05
 -0.11251327D-04  0.15585906D-04 -0.11978239D-04  0.12775837D-04 -0.73775061D-05
 -0.30747774D-04 -0.55454876D-04 -0.81768182D-04  0.56183895D-03  0.95391762D-03
  0.12319932D-04 -0.10996525D-14  0.73669517D-04  0.40317363D-04  0.23700450D-14
  0.23143703D-03 -0.25459719D-03  0.17835965D-14  0.93054740D-04 -0.10489558D-03
 -0.83090736D-04  0.10594721D-03 -0.22856476D-04  0.15637577D-14 -0.20824395D-15
 -0.21476333D-03 -0.14707184D-04 -0.87868555D-06  0.15585869D-04  0.11266066D-14
 -0.55181850D-15  0.14754345D-04  0.61733958D-04  0.11133974D-03  0.16417038D-03
 -0.18721151D-02 -0.96757090D-03 -0.49508838D-04  0.45256790D-14  0.18521178D-02
 -0.52518130D-03  0.71106262D-14  0.25392497D-02 -0.14703297D-02  0.10483869D-13
  0.29391525D-03 -0.21266797D-03  0.14557421D-02 -0.21746425D-02  0.71890045D-03
 -0.52037663D-14  0.24930475D-15  0.30944345D-02  0.17280541D-03 -0.22619007D-03
  0.53384661D-04 -0.42146949D-14  0.42822310D-14  0.40427303D-03  0.61732209D-04
  0.11133658D-03  0.16416572D-03 -0.18722056D-02 -0.96764246D-03 -0.49509816D-04
 -0.16039935D-02 -0.92607029D-03 -0.52516673D-03 -0.21990975D-02 -0.12696688D-02
 -0.14702929D-02 -0.25454991D-03 -0.14696813D-03 -0.21266535D-03 -0.12670716D-02
  0.54812268D-03  0.71894896D-03 -0.31440603D-02 -0.26797861D-02 -0.15471857D-02
 -0.12644553D-03  0.73051545D-04  0.53393980D-04 -0.34554942D-03 -0.35010234D-03
 -0.20213288D-03  0.61732209D-04  0.11133658D-03  0.16416572D-03 -0.18722056D-02
 -0.96764246D-03 -0.49509816D-04  0.16039935D-02 -0.92607029D-03 -0.52516673D-03
  0.21990975D-02 -0.12696688D-02 -0.14702929D-02  0.25454991D-03 -0.14696813D-03
 -0.21266535D-03 -0.12670716D-02  0.54812268D-03  0.71894896D-03  0.31440603D-02
  0.26797861D-02 -0.15471857D-02 -0.12644553D-03  0.73051545D-04  0.53393980D-04
  0.34554942D-03  0.35010234D-03 -0.20213288D-03
MO    3     MO 0.0        OCC NO =    2.0000000  ORB. ENERGY =   -5.322788
 -0.79733281D-04 -0.14864096D-03 -0.25122942D-03 -0.37768010D-03 -0.46402365D-03
 -0.39194215D-03 -0.14782616D-03  0.73159991D-06  0.30664906D-04  0.57414379D-04
  0.97752892D-04  0.15120886D-03  0.19913675D-03  0.20691584D-03  0.13148573D-03
 -0.88118676D-04 -0.20253769D-03  0.11602073D-02  0.18816546D-03  0.82757725D-14
  0.77590627D-14  0.55249149D-14 -0.11479345D-08 -0.10762615D-08 -0.76636234D-09
  0.20624921D-03  0.19337174D-03  0.13769220D-03 -0.35823253D-13  0.30429521D-08
 -0.87109924D-04 -0.60527499D-13 -0.30442385D-09 -0.98828326D-03 -0.22346931D-16
  0.42934093D-09  0.34812487D-04  0.32641738D-04  0.32643722D-04 -0.65285460D-04
  0.14458305D-14  0.70064674D-14  0.63498762D-09  0.17649979D-04  0.17646658D-04
 -0.35296637D-04  0.29443780D-13  0.15415026D-13 -0.26839135D-08  0.24878865D-04
  0.24875774D-04 -0.49754639D-04  0.73530045D-14  0.75319932D-14 -0.12448474D-07
 -0.29871511D-15 -0.23894730D-04  0.47979491D-04 -0.25782559D-16  0.71682386D-04
 -0.71969395D-04  0.92192789D-15  0.18023771D-08 -0.71969079D-04 -0.13848758D-13
  0.80535108D-17  0.63035189D-04  0.41688415D-04 -0.84552278D-15 -0.18910603D-03
 -0.62533434D-04  0.82136225D-15  0.46422336D-09 -0.62531811D-04 -0.46229844D-14
 -0.30439557D-02 -0.56938976D-02 -0.98331052D-02 -0.15883028D-01 -0.23919514D-01
 -0.32530425D-01 -0.37032591D-01 -0.30001477D-01 -0.12178192D-01 -0.11104836D-02
  0.42676133D-04 -0.14270592D-04 -0.80083325D-06 -0.12923881D+00 -0.24189948D+00
 -0.41837445D+00 -0.67999204D+00 -0.10403823D+01 -0.14763743D+01 -0.18519890D+01
 -0.18882632D+01 -0.11601865D+01  0.25285315D+00  0.92616367D+00  0.42359466D+00
 -0.22484637D-02 -0.19443479D-02 -0.36366094D-02 -0.62976220D-02 -0.10225117D-01
 -0.15695348D-01 -0.22294541D-01 -0.28284162D-01 -0.29281749D-01 -0.18861005D-01
  0.46389622D-02  0.18909838D-01  0.16492669D-01 -0.84055226D-02  0.29392889D-01
  0.11837623D-01 -0.78706419D-03  0.32313069D-13  0.42622603D-13  0.47343242D-13
  0.40519142D-13  0.23152312D-13  0.75134300D-14  0.52904229D-17  0.19395462D-06
  0.25583614D-06  0.28417110D-06  0.24321041D-06  0.13896847D-06  0.45098299D-07
  0.31755014D-10 -0.87776941D-04 -0.11578231D-03 -0.12860570D-03 -0.11006835D-03
 -0.62892173D-04 -0.20409881D-04 -0.14371186D-07 -0.36311143D-13 -0.49655021D-13
 -0.53980009D-13 -0.49550826D-13 -0.27007212D-13 -0.11396525D-13  0.39305232D-14
 -0.25826614D-07 -0.35317562D-07 -0.38393748D-07 -0.35243453D-07 -0.19209113D-07
 -0.81058767D-08  0.27956186D-08  0.47711284D-03  0.65244567D-03  0.70927416D-03
  0.65107659D-03  0.35486318D-03  0.14974545D-03 -0.51645389D-04  0.11075055D-14
  0.55907719D-08  0.33426568D-04 -0.12682862D-13 -0.12659439D-07 -0.25571829D-03
 -0.26877909D-14  0.41668052D-09 -0.56389118D-05 -0.88004212D-04 -0.88003953D-04
  0.17600816D-03 -0.89091788D-14 -0.18370030D-14 -0.36158320D-08 -0.44789450D-05
 -0.44781770D-05  0.89571221D-05  0.40825748D-14  0.32691263D-14 -0.58672023D-08
 -0.36485544D-05 -0.36492292D-05  0.72977836D-05 -0.23308346D-14 -0.36139608D-16
  0.48582089D-09 -0.31008411D-15  0.11167669D-03  0.87681222D-04  0.14693616D-15
 -0.33502737D-03 -0.13152415D-03  0.78331617D-15 -0.26852705D-08 -0.13151951D-03
 -0.18231599D-14 -0.40429734D-15 -0.28521408D-04 -0.45367782D-04  0.22880164D-16
  0.85563717D-04  0.68052361D-04  0.11900119D-14  0.50591427D-09  0.68050985D-04
 -0.12885207D-14 -0.19745132D-04 -0.35611159D-04 -0.52508634D-04  0.77204327D-03
 -0.33764145D-02  0.79336424D-04  0.15470403D-03  0.89318013D-04  0.64741382D-04
 -0.56471845D-03 -0.32603860D-03 -0.30219979D-03  0.41356646D-03  0.23877503D-03
  0.24587707D-03  0.12835247D-03 -0.85833516D-04 -0.42518949D-04  0.37098016D-03
  0.33537033D-03  0.19362451D-03  0.38960592D-04  0.10650244D-05 -0.40025616D-04
  0.65633858D-04  0.71383331D-04  0.41213267D-04 -0.19745132D-04 -0.35611159D-04
 -0.52508634D-04  0.77204327D-03 -0.33764145D-02  0.79336424D-04 -0.15470403D-03
  0.89318013D-04  0.64741382D-04  0.56471845D-03 -0.32603860D-03 -0.30219979D-03
 -0.41356646D-03  0.23877503D-03  0.24587707D-03  0.12835247D-03 -0.85833516D-04
 -0.42518949D-04 -0.37098016D-03 -0.33537033D-03  0.19362451D-03  0.38960592D-04
  0.10650244D-05 -0.40025616D-04 -0.65633858D-04 -0.71383331D-04  0.41213267D-04
 -0.19745211D-04 -0.35611301D-04 -0.52508842D-04  0.77204836D-03 -0.33764521D-02
  0.79339015D-04  0.33935580D-14 -0.17863401D-03  0.64737972D-04 -0.48024680D-14
  0.65207875D-03 -0.30219405D-03 -0.42297833D-14 -0.47755552D-03  0.24587778D-03
 -0.19292670D-03  0.23544673D-03 -0.42520027D-04 -0.58815849D-15 -0.35282962D-15
 -0.38724711D-03 -0.17880342D-04  0.57907586D-04 -0.40027244D-04 -0.23638349D-14
  0.73399005D-15 -0.82425401D-04  0.17872755D-05  0.32234249D-05  0.47529382D-05
 -0.65292069D-03 -0.13776917D-02  0.10047044D-04 -0.33386462D-14 -0.33655292D-05
  0.40387465D-04 -0.96282840D-15  0.23603936D-03 -0.16488971D-03 -0.27108810D-14
  0.16869355D-03 -0.26917784D-03 -0.51347883D-05 -0.80917826D-04  0.86052614D-04
  0.28035636D-14  0.89298569D-15  0.33274419D-04  0.32783555D-04  0.33243158D-04
 -0.66026713D-04  0.10080384D-14 -0.25739660D-14 -0.77964617D-05  0.17872689D-05
  0.32234131D-05  0.47529207D-05 -0.65292650D-03 -0.13776657D-02  0.10048300D-04
  0.29144327D-05  0.16844221D-05  0.40388373D-04 -0.20441519D-03 -0.11802581D-03
 -0.16488382D-03 -0.14608255D-03 -0.84348362D-04 -0.26919114D-03 -0.61973016D-04
 -0.24080885D-04  0.86053901D-04 -0.65631887D-04 -0.28808317D-04 -0.16638084D-04
  0.33129331D-04  0.32897010D-04 -0.66026341D-04  0.39732952D-06  0.67515238D-05
  0.39012093D-05  0.17872689D-05  0.32234131D-05  0.47529207D-05 -0.65292650D-03
 -0.13776657D-02  0.10048300D-04 -0.29144327D-05  0.16844221D-05  0.40388373D-04
  0.20441519D-03 -0.11802581D-03 -0.16488382D-03  0.14608255D-03 -0.84348362D-04
 -0.26919114D-03 -0.61973016D-04 -0.24080885D-04  0.86053901D-04  0.65631887D-04
  0.28808317D-04 -0.16638084D-04  0.33129331D-04  0.32897010D-04 -0.66026341D-04
 -0.39732952D-06 -0.67515238D-05  0.39012093D-05
MO    4     MO 0.0        OCC NO =    2.0000000  ORB. ENERGY =   -3.656718
 -0.34555927D-09 -0.64420105D-09 -0.10888133D-08 -0.16368430D-08 -0.20110507D-08
 -0.16986538D-08 -0.64066973D-09  0.31707102D-11 -0.39250612D-09 -0.73489530D-09
 -0.12512221D-08 -0.19354504D-08 -0.25489201D-08 -0.26484912D-08 -0.16829973D-08
  0.11279056D-08 -0.50159241D-08  0.65210805D-07 -0.12492388D-07 -0.46063229D-11
 -0.43187205D-11 -0.30751863D-11 -0.65569174D-04 -0.61475268D-04 -0.43774053D-04
  0.16248899D-07  0.15234376D-07  0.10847783D-07  0.13136069D-10  0.18697087D-03
 -0.23312976D-07 -0.42524640D-10 -0.60540471D-03 -0.92745312D-08 -0.17835857D-11
 -0.25386982D-04 -0.10612419D-08  0.18404040D-04 -0.18408061D-04  0.40207697D-08
  0.25868736D-11  0.30219559D-10  0.43018170D-03  0.13083482D-03 -0.13081163D-03
 -0.23193898D-07  0.18378704D-10  0.12494141D-10  0.17786443D-03  0.86059400D-05
 -0.86035941D-05 -0.23459493D-08  0.12081754D-11  0.23783531D-11  0.33851224D-04
 -0.16583211D-10 -0.23605201D-03 -0.16248110D-08 -0.16583254D-10 -0.23606844D-03
  0.72104232D-04  0.66332887D-10  0.94422446D-03 -0.72099358D-04  0.10131605D-10
  0.81921439D-11  0.11661728D-03  0.58583997D-09  0.81919676D-11  0.11660326D-03
 -0.10690194D-05 -0.32768399D-10 -0.46645511D-03  0.10672619D-05 -0.14857699D-12
 -0.45889751D-09 -0.85839467D-09 -0.14824090D-08 -0.23944770D-08 -0.36060331D-08
 -0.49041880D-08 -0.55829208D-08 -0.45229315D-08 -0.18359472D-08 -0.16741313D-09
  0.64337240D-11 -0.21513910D-11 -0.12073118D-12  0.44436878D-08  0.83173600D-08
  0.14385194D-07  0.23380533D-07  0.35772024D-07  0.50762974D-07  0.63677936D-07
  0.64925172D-07  0.39891317D-07 -0.86939861D-08 -0.31844784D-07 -0.14564683D-07
  0.77310137D-10 -0.40446175D-09 -0.75648468D-09 -0.13100265D-08 -0.21270209D-08
 -0.32649341D-08 -0.46376933D-08 -0.58836495D-08 -0.60911670D-08 -0.39234517D-08
  0.96499335D-09  0.39336099D-08  0.34307923D-08 -0.17485103D-08  0.12629018D-08
 -0.94642664D-07  0.14278203D-07  0.43706720D-06  0.57651416D-06  0.64036561D-06
  0.54806271D-06  0.31315863D-06  0.10162680D-06  0.71558364D-10  0.62215321D+01