 Molden2AIM, Version 4.0.0 (06/02/2016)           Time: Fri Jun 29 20:17:29 2018
GAUSSIAN             26 MOL ORBITALS    431 PRIMITIVES        5 NUCLEI
  Cl   1    (CENTRE  1)   0.00000000  0.00000000  0.72078690  CHARGE = 17.0
  F    2    (CENTRE  2)   2.41525518  0.00000000 -1.05693327  CHARGE =  9.0
  F    3    (CENTRE  3)  -2.41525518  0.00000000 -1.05693327  CHARGE =  9.0
  F    4    (CENTRE  4)   0.00000000 -3.09746521  0.52311021  CHARGE =  9.0
  F    5    (CENTRE  5)   0.00000000  3.09746521  0.52311021  CHARGE =  9.0
CENTRE ASSIGNMENTS    1  1  1  1  1  1  1  1  1  1  1  1  1  1  1  1  1  1  1  1
CENTRE ASSIGNMENTS    1  1  1  1  1  1  1  1  1  1  1  1  1  1  1  1  1  1  1  1
CENTRE ASSIGNMENTS    1  1  1  1  1  1  1  1  1  1  1  1  1  1  1  1  1  1  1  1
CENTRE ASSIGNMENTS    1  1  1  1  1  1  1  1  1  1  1  1  1  1  1  1  1  1  1  1
CENTRE ASSIGNMENTS    1  1  1  1  1  1  1  1  1  1  1  1  1  1  1  1  1  1  1  1
CENTRE ASSIGNMENTS    1  1  1  1  1  1  1  1  1  1  1  1  1  1  1  1  1  1  1  1
CENTRE ASSIGNMENTS    1  1  1  1  1  1  1  1  1  1  1  2  2  2  2  2  2  2  2  2
CENTRE ASSIGNMENTS    2  2  2  2  2  2  2  2  2  2  2  2  2  2  2  2  2  2  2  2
CENTRE ASSIGNMENTS    2  2  2  2  2  2  2  2  2  2  2  2  2  2  2  2  2  2  2  2
CENTRE ASSIGNMENTS    2  2  2  2  2  2  2  2  2  2  2  2  2  2  2  2  2  2  2  2
CENTRE ASSIGNMENTS    2  2  2  2  2  2  3  3  3  3  3  3  3  3  3  3  3  3  3  3
CENTRE ASSIGNMENTS    3  3  3  3  3  3  3  3  3  3  3  3  3  3  3  3  3  3  3  3
CENTRE ASSIGNMENTS    3  3  3  3  3  3  3  3  3  3  3  3  3  3  3  3  3  3  3  3
CENTRE ASSIGNMENTS    3  3  3  3  3  3  3  3  3  3  3  3  3  3  3  3  3  3  3  3
CENTRE ASSIGNMENTS    3  4  4  4  4  4  4  4  4  4  4  4  4  4  4  4  4  4  4  4
CENTRE ASSIGNMENTS    4  4  4  4  4  4  4  4  4  4  4  4  4  4  4  4  4  4  4  4
CENTRE ASSIGNMENTS    4  4  4  4  4  4  4  4  4  4  4  4  4  4  4  4  4  4  4  4
CENTRE ASSIGNMENTS    4  4  4  4  4  4  4  4  4  4  4  4  4  4  4  4  5  5  5  5
CENTRE ASSIGNMENTS    5  5  5  5  5  5  5  5  5  5  5  5  5  5  5  5  5  5  5  5
CENTRE ASSIGNMENTS    5  5  5  5  5  5  5  5  5  5  5  5  5  5  5  5  5  5  5  5
CENTRE ASSIGNMENTS    5  5  5  5  5  5  5  5  5  5  5  5  5  5  5  5  5  5  5  5
CENTRE ASSIGNMENTS    5  5  5  5  5  5  5  5  5  5  5
TYPE ASSIGNMENTS      1  1  1  1  1  1  1  1  1  1  1  1  1  1  1  1  1  1  1  1
TYPE ASSIGNMENTS      1  1  1  1  1  1  1  1  1  1  1  1  1  1  1  1  1  1  1  1
TYPE ASSIGNMENTS      1  1  2  2  2  2  2  2  2  3  3  3  3  3  3  3  4  4  4  4
TYPE ASSIGNMENTS      4  4  4  2  2  2  2  2  2  2  3  3  3  3  3  3  3  4  4  4
TYPE ASSIGNMENTS      4  4  4  4  2  3  4  2  3  4  2  3  4  5  6  7  8  9 10  5
TYPE ASSIGNMENTS      6  7  8  9 10  5  6  7  8  9 10 11 12 13 17 14 15 18 19 16
TYPE ASSIGNMENTS     20 11 12 13 17 14 15 18 19 16 20  1  1  1  1  1  1  1  1  1
TYPE ASSIGNMENTS      1  1  1  1  1  1  1  1  1  1  2  2  2  3  3  3  4  4  4  2
TYPE ASSIGNMENTS      3  4  2  3  4  2  3  4  5  6  7  8  9 10  5  6  7  8  9 10
TYPE ASSIGNMENTS      5  6  7  8  9 10 11 12 13 17 14 15 18 19 16 20 11 12 13 17
TYPE ASSIGNMENTS     14 15 18 19 16 20  1  1  1  1  1  1  1  1  1  1  1  1  1  1
TYPE ASSIGNMENTS      1  1  1  1  1  2  2  2  3  3  3  4  4  4  2  3  4  2  3  4
TYPE ASSIGNMENTS      2  3  4  5  6  7  8  9 10  5  6  7  8  9 10  5  6  7  8  9
TYPE ASSIGNMENTS     10 11 12 13 17 14 15 18 19 16 20 11 12 13 17 14 15 18 19 16
TYPE ASSIGNMENTS     20  1  1  1  1  1  1  1  1  1  1  1  1  1  1  1  1  1  1  1
TYPE ASSIGNMENTS      2  2  2  3  3  3  4  4  4  2  3  4  2  3  4  2  3  4  5  6
TYPE ASSIGNMENTS      7  8  9 10  5  6  7  8  9 10  5  6  7  8  9 10 11 12 13 17
TYPE ASSIGNMENTS     14 15 18 19 16 20 11 12 13 17 14 15 18 19 16 20  1  1  1  1
TYPE ASSIGNMENTS      1  1  1  1  1  1  1  1  1  1  1  1  1  1  1  2  2  2  3  3
TYPE ASSIGNMENTS      3  4  4  4  2  3  4  2  3  4  2  3  4  5  6  7  8  9 10  5
TYPE ASSIGNMENTS      6  7  8  9 10  5  6  7  8  9 10 11 12 13 17 14 15 18 19 16
TYPE ASSIGNMENTS     20 11 12 13 17 14 15 18 19 16 20
EXPONENTS  0.4561000D+06 0.6833000D+05 0.1555000D+05 0.4405000D+04 0.1439000D+04
EXPONENTS  0.5204000D+03 0.2031000D+03 0.8396000D+02 0.3620000D+02 0.1583000D+02
EXPONENTS  0.6334000D+01 0.2694000D+01 0.4313000D+00 0.4561000D+06 0.6833000D+05
EXPONENTS  0.1555000D+05 0.4405000D+04 0.1439000D+04 0.5204000D+03 0.2031000D+03
EXPONENTS  0.8396000D+02 0.3620000D+02 0.1583000D+02 0.6334000D+01 0.2694000D+01
EXPONENTS  0.4313000D+00 0.4561000D+06 0.6833000D+05 0.1555000D+05 0.4405000D+04
EXPONENTS  0.1439000D+04 0.5204000D+03 0.2031000D+03 0.8396000D+02 0.3620000D+02
EXPONENTS  0.1583000D+02 0.6334000D+01 0.2694000D+01 0.4313000D+00 0.9768000D+00
EXPONENTS  0.1625000D+00 0.5910000D-01 0.6633000D+03 0.1568000D+03 0.4998000D+02
EXPONENTS  0.1842000D+02 0.7240000D+01 0.2922000D+01 0.3818000D+00 0.6633000D+03
EXPONENTS  0.1568000D+03 0.4998000D+02 0.1842000D+02 0.7240000D+01 0.2922000D+01
EXPONENTS  0.3818000D+00 0.6633000D+03 0.1568000D+03 0.4998000D+02 0.1842000D+02
EXPONENTS  0.7240000D+01 0.2922000D+01 0.3818000D+00 0.6633000D+03 0.1568000D+03
EXPONENTS  0.4998000D+02 0.1842000D+02 0.7240000D+01 0.2922000D+01 0.3818000D+00
EXPONENTS  0.6633000D+03 0.1568000D+03 0.4998000D+02 0.1842000D+02 0.7240000D+01
EXPONENTS  0.2922000D+01 0.3818000D+00 0.6633000D+03 0.1568000D+03 0.4998000D+02
EXPONENTS  0.1842000D+02 0.7240000D+01 0.2922000D+01 0.3818000D+00 0.1022000D+01
EXPONENTS  0.1022000D+01 0.1022000D+01 0.1301000D+00 0.1301000D+00 0.1301000D+00
EXPONENTS  0.4190000D-01 0.4190000D-01 0.4190000D-01 0.1046000D+01 0.1046000D+01
EXPONENTS  0.1046000D+01 0.1046000D+01 0.1046000D+01 0.1046000D+01 0.3440000D+00
EXPONENTS  0.3440000D+00 0.3440000D+00 0.3440000D+00 0.3440000D+00 0.3440000D+00
EXPONENTS  0.1350000D+00 0.1350000D+00 0.1350000D+00 0.1350000D+00 0.1350000D+00
EXPONENTS  0.1350000D+00 0.7060000D+00 0.7060000D+00 0.7060000D+00 0.7060000D+00
EXPONENTS  0.7060000D+00 0.7060000D+00 0.7060000D+00 0.7060000D+00 0.7060000D+00
EXPONENTS  0.7060000D+00 0.3120000D+00 0.3120000D+00 0.3120000D+00 0.3120000D+00
EXPONENTS  0.3120000D+00 0.3120000D+00 0.3120000D+00 0.3120000D+00 0.3120000D+00
EXPONENTS  0.3120000D+00 0.1950000D+05 0.2923000D+04 0.6645000D+03 0.1875000D+03
EXPONENTS  0.6062000D+02 0.2142000D+02 0.7950000D+01 0.8815000D+00 0.1950000D+05
EXPONENTS  0.2923000D+04 0.6645000D+03 0.1875000D+03 0.6062000D+02 0.2142000D+02
EXPONENTS  0.7950000D+01 0.8815000D+00 0.2257000D+01 0.3041000D+00 0.9158000D-01
EXPONENTS  0.4388000D+02 0.9926000D+01 0.2930000D+01 0.4388000D+02 0.9926000D+01
EXPONENTS  0.2930000D+01 0.4388000D+02 0.9926000D+01 0.2930000D+01 0.9132000D+00
EXPONENTS  0.9132000D+00 0.9132000D+00 0.2672000D+00 0.2672000D+00 0.2672000D+00
EXPONENTS  0.7361000D-01 0.7361000D-01 0.7361000D-01 0.3107000D+01 0.3107000D+01
EXPONENTS  0.3107000D+01 0.3107000D+01 0.3107000D+01 0.3107000D+01 0.8550000D+00
EXPONENTS  0.8550000D+00 0.8550000D+00 0.8550000D+00 0.8550000D+00 0.8550000D+00
EXPONENTS  0.2920000D+00 0.2920000D+00 0.2920000D+00 0.2920000D+00 0.2920000D+00
EXPONENTS  0.2920000D+00 0.1917000D+01 0.1917000D+01 0.1917000D+01 0.1917000D+01
EXPONENTS  0.1917000D+01 0.1917000D+01 0.1917000D+01 0.1917000D+01 0.1917000D+01
EXPONENTS  0.1917000D+01 0.7240000D+00 0.7240000D+00 0.7240000D+00 0.7240000D+00
EXPONENTS  0.7240000D+00 0.7240000D+00 0.7240000D+00 0.7240000D+00 0.7240000D+00
EXPONENTS  0.7240000D+00 0.1950000D+05 0.2923000D+04 0.6645000D+03 0.1875000D+03
EXPONENTS  0.6062000D+02 0.2142000D+02 0.7950000D+01 0.8815000D+00 0.1950000D+05
EXPONENTS  0.2923000D+04 0.6645000D+03 0.1875000D+03 0.6062000D+02 0.2142000D+02
EXPONENTS  0.7950000D+01 0.8815000D+00 0.2257000D+01 0.3041000D+00 0.9158000D-01
EXPONENTS  0.4388000D+02 0.9926000D+01 0.2930000D+01 0.4388000D+02 0.9926000D+01
EXPONENTS  0.2930000D+01 0.4388000D+02 0.9926000D+01 0.2930000D+01 0.9132000D+00
EXPONENTS  0.9132000D+00 0.9132000D+00 0.2672000D+00 0.2672000D+00 0.2672000D+00
EXPONENTS  0.7361000D-01 0.7361000D-01 0.7361000D-01 0.3107000D+01 0.3107000D+01
EXPONENTS  0.3107000D+01 0.3107000D+01 0.3107000D+01 0.3107000D+01 0.8550000D+00
EXPONENTS  0.8550000D+00 0.8550000D+00 0.8550000D+00 0.8550000D+00 0.8550000D+00
EXPONENTS  0.2920000D+00 0.2920000D+00 0.2920000D+00 0.2920000D+00 0.2920000D+00
EXPONENTS  0.2920000D+00 0.1917000D+01 0.1917000D+01 0.1917000D+01 0.1917000D+01
EXPONENTS  0.1917000D+01 0.1917000D+01 0.1917000D+01 0.1917000D+01 0.1917000D+01
EXPONENTS  0.1917000D+01 0.7240000D+00 0.7240000D+00 0.7240000D+00 0.7240000D+00
EXPONENTS  0.7240000D+00 0.7240000D+00 0.7240000D+00 0.7240000D+00 0.7240000D+00
EXPONENTS  0.7240000D+00 0.1950000D+05 0.2923000D+04 0.6645000D+03 0.1875000D+03
EXPONENTS  0.6062000D+02 0.2142000D+02 0.7950000D+01 0.8815000D+00 0.1950000D+05
EXPONENTS  0.2923000D+04 0.6645000D+03 0.1875000D+03 0.6062000D+02 0.2142000D+02
EXPONENTS  0.7950000D+01 0.8815000D+00 0.2257000D+01 0.3041000D+00 0.9158000D-01
EXPONENTS  0.4388000D+02 0.9926000D+01 0.2930000D+01 0.4388000D+02 0.9926000D+01
EXPONENTS  0.2930000D+01 0.4388000D+02 0.9926000D+01 0.2930000D+01 0.9132000D+00
EXPONENTS  0.9132000D+00 0.9132000D+00 0.2672000D+00 0.2672000D+00 0.2672000D+00
EXPONENTS  0.7361000D-01 0.7361000D-01 0.7361000D-01 0.3107000D+01 0.3107000D+01
EXPONENTS  0.3107000D+01 0.3107000D+01 0.3107000D+01 0.3107000D+01 0.8550000D+00
EXPONENTS  0.8550000D+00 0.8550000D+00 0.8550000D+00 0.8550000D+00 0.8550000D+00
EXPONENTS  0.2920000D+00 0.2920000D+00 0.2920000D+00 0.2920000D+00 0.2920000D+00
EXPONENTS  0.2920000D+00 0.1917000D+01 0.1917000D+01 0.1917000D+01 0.1917000D+01
EXPONENTS  0.1917000D+01 0.1917000D+01 0.1917000D+01 0.1917000D+01 0.1917000D+01
EXPONENTS  0.1917000D+01 0.7240000D+00 0.7240000D+00 0.7240000D+00 0.7240000D+00
EXPONENTS  0.7240000D+00 0.7240000D+00 0.7240000D+00 0.7240000D+00 0.7240000D+00
EXPONENTS  0.7240000D+00 0.1950000D+05 0.2923000D+04 0.6645000D+03 0.1875000D+03
EXPONENTS  0.6062000D+02 0.2142000D+02 0.7950000D+01 0.8815000D+00 0.1950000D+05
EXPONENTS  0.2923000D+04 0.6645000D+03 0.1875000D+03 0.6062000D+02 0.2142000D+02
EXPONENTS  0.7950000D+01 0.8815000D+00 0.2257000D+01 0.3041000D+00 0.9158000D-01
EXPONENTS  0.4388000D+02 0.9926000D+01 0.2930000D+01 0.4388000D+02 0.9926000D+01
EXPONENTS  0.2930000D+01 0.4388000D+02 0.9926000D+01 0.2930000D+01 0.9132000D+00
EXPONENTS  0.9132000D+00 0.9132000D+00 0.2672000D+00 0.2672000D+00 0.2672000D+00
EXPONENTS  0.7361000D-01 0.7361000D-01 0.7361000D-01 0.3107000D+01 0.3107000D+01
EXPONENTS  0.3107000D+01 0.3107000D+01 0.3107000D+01 0.3107000D+01 0.8550000D+00
EXPONENTS  0.8550000D+00 0.8550000D+00 0.8550000D+00 0.8550000D+00 0.8550000D+00
EXPONENTS  0.2920000D+00 0.2920000D+00 0.2920000D+00 0.2920000D+00 0.2920000D+00
EXPONENTS  0.2920000D+00 0.1917000D+01 0.1917000D+01 0.1917000D+01 0.1917000D+01
EXPONENTS  0.1917000D+01 0.1917000D+01 0.1917000D+01 0.1917000D+01 0.1917000D+01
EXPONENTS  0.1917000D+01 0.7240000D+00 0.7240000D+00 0.7240000D+00 0.7240000D+00
EXPONENTS  0.7240000D+00 0.7240000D+00 0.7240000D+00 0.7240000D+00 0.7240000D+00
EXPONENTS  0.7240000D+00
MO    1     MO 0.0        OCC NO =    2.0000000  ORB. ENERGY = -102.442363
  0.61723974D+00  0.11548579D+01  0.19953386D+01  0.32346766D+01  0.49121145D+01
  0.68272616D+01  0.81166291D+01  0.72296689D+01  0.35890241D+01  0.57824929D+00
  0.88776669D-02  0.15864303D-02  0.59282427D-04 -0.98784834D-03 -0.18451589D-02
 -0.32023627D-02 -0.51961332D-02 -0.80429971D-02 -0.11512820D-01 -0.15027826D-01
 -0.16014656D-01 -0.11971281D-01 -0.63194263D-03  0.81201491D-02  0.48243015D-02
 -0.18087514D-04  0.43866540D-03  0.81870576D-03  0.14228385D-02  0.23060027D-02
  0.35815833D-02  0.51307214D-02  0.67746395D-02  0.73253949D-02  0.57432045D-02
  0.28577996D-03 -0.49233784D-02 -0.50966093D-02  0.23062878D-02 -0.28199212D-02
 -0.52308963D-03 -0.93075758D-04 -0.93525375D-14 -0.12319391D-13 -0.13591174D-13
 -0.11289032D-13 -0.59958793D-14 -0.15465122D-14  0.15897619D-17 -0.64611703D-14
 -0.85108113D-14 -0.93894187D-14 -0.77989915D-14 -0.41422338D-14 -0.10684029D-14
  0.10982819D-17 -0.83725880D-02 -0.11028577D-01 -0.12167104D-01 -0.10106179D-01
 -0.53676371D-02 -0.13844702D-02  0.14231883D-05  0.83377903D-14  0.10946907D-13
  0.12463859D-13  0.10553884D-13  0.60456713D-14  0.13751805D-14 -0.64366014D-15
  0.58555582D-14  0.76879186D-14  0.87532609D-14  0.74119018D-14  0.42458227D-14
  0.96577737D-15 -0.45203696D-15  0.62697553D-02  0.82317291D-02  0.93724291D-02
  0.79361881D-02  0.45461541D-02  0.10340923D-02 -0.48401212D-03  0.52284777D-15
  0.43316579D-15  0.35301839D-03 -0.16985139D-15 -0.27512637D-15  0.12707938D-03
  0.44479704D-17 -0.49046273D-17 -0.40955076D-06  0.69125983D-04  0.67517280D-04
 -0.13664326D-03 -0.13991175D-18 -0.19585696D-15  0.16586356D-16  0.36235463D-04
 -0.46372443D-04  0.10136981D-04  0.52985586D-19  0.54763647D-15  0.16984800D-16
  0.40916097D-06 -0.14986656D-04  0.14577495D-04  0.26934353D-19  0.34558404D-16
  0.80863083D-17 -0.21555838D-16 -0.48921576D-16  0.12840391D-03  0.13934014D-15
  0.80467712D-16 -0.49124333D-03 -0.74672626D-16  0.66297016D-16  0.10603161D-03
  0.15436828D-18  0.27197513D-16 -0.45286710D-16 -0.31196692D-04  0.41149746D-16
  0.67541903D-16  0.93806858D-04 -0.12274228D-15  0.68318229D-16 -0.21678255D-06
 -0.10598671D-18  0.65589016D-04  0.12226077D-03  0.20726206D-03  0.31385584D-03
  0.39247783D-03  0.33788685D-03  0.12989604D-03 -0.56286081D-06 -0.45509831D-04
 -0.85459403D-04 -0.14552262D-03 -0.22796033D-03 -0.30549366D-03 -0.32859962D-03
 -0.19729078D-03  0.12974672D-03  0.35081385D-05  0.12668507D-04  0.35935585D-04
 -0.16254939D-03 -0.15896976D-03 -0.10503804D-03  0.11281992D-16  0.11033542D-16
  0.72903274D-17  0.40625821D-04  0.39731166D-04  0.26252061D-04 -0.50254539D-05
 -0.70340446D-17  0.57584251D-04  0.89927606D-04  0.14164451D-17 -0.78793286D-04
 -0.18902589D-05 -0.62864731D-17  0.12227578D-05  0.32763344D-03 -0.37945017D-03
  0.51816731D-04  0.62480111D-17 -0.55372571D-03 -0.31598438D-17 -0.12271350D-03
  0.13790161D-03 -0.15188112D-04 -0.22990400D-17  0.18982211D-03  0.47347724D-18
 -0.39739162D-04  0.40084596D-04 -0.34543314D-06  0.14236231D-16  0.13422229D-03
 -0.95336733D-17 -0.64597912D-04 -0.43308251D-17 -0.14509536D-03  0.46255026D-03
  0.36522311D-16  0.82236887D-03 -0.26875653D-03 -0.23529835D-16 -0.38708280D-03
 -0.17090824D-15  0.34291791D-04  0.22559281D-17  0.70404009D-04 -0.25906332D-03
 -0.11821718D-16 -0.41079876D-03  0.15618794D-03  0.50539334D-17  0.19958673D-03
  0.47304373D-16  0.65589016D-04  0.12226077D-03  0.20726206D-03  0.31385584D-03
  0.39247783D-03  0.33788685D-03  0.12989604D-03 -0.56286081D-06 -0.45509831D-04
 -0.85459403D-04 -0.14552262D-03 -0.22796033D-03 -0.30549366D-03 -0.32859962D-03
 -0.19729078D-03  0.12974672D-03  0.35081385D-05  0.12668507D-04  0.35935585D-04
  0.16254939D-03  0.15896976D-03  0.10503804D-03  0.11662330D-16  0.11405504D-16
  0.75360987D-17  0.40625821D-04  0.39731166D-04  0.26252061D-04  0.50254539D-05
 -0.73446156D-17  0.57584251D-04 -0.89927606D-04  0.16639727D-17 -0.78793286D-04
  0.18902589D-05 -0.63723814D-17  0.12227578D-05  0.32763344D-03 -0.37945017D-03
  0.51816731D-04 -0.73761123D-17  0.55372571D-03 -0.40899117D-17 -0.12271350D-03
  0.13790161D-03 -0.15188112D-04  0.27191095D-17 -0.18982211D-03  0.80135716D-18
 -0.39739162D-04  0.40084596D-04 -0.34543314D-06 -0.14281791D-16 -0.13422229D-03
 -0.95683562D-17  0.64597912D-04 -0.42723854D-17 -0.14509536D-03 -0.46255026D-03
  0.36445434D-16  0.82236887D-03  0.26875653D-03 -0.23628278D-16 -0.38708280D-03
  0.17073604D-15 -0.34291791D-04  0.22358186D-17  0.70404009D-04  0.25906332D-03
 -0.11784669D-16 -0.41079876D-03 -0.15618794D-03  0.50772131D-17  0.19958673D-03
 -0.47207984D-16 -0.23087067D-04 -0.43035294D-04 -0.72955403D-04 -0.11047598D-03
 -0.13815060D-03 -0.11893480D-03 -0.45722879D-04  0.19812472D-06  0.14042892D-04
  0.26370064D-04  0.44903671D-04  0.70341336D-04  0.94265665D-04  0.10139543D-03
  0.60877685D-04 -0.40035727D-04  0.27317623D-04  0.14296477D-03  0.51376536D-04
 -0.23106523D-16 -0.22597675D-16 -0.14931239D-16  0.37498557D-04  0.36672770D-04
  0.24231250D-04  0.66651212D-05  0.65183430D-05  0.43069448D-05  0.19330777D-16
  0.43708623D-04  0.87398498D-05 -0.13997077D-16  0.16024373D-04 -0.26606382D-04
 -0.71375506D-17  0.27122870D-05  0.83325283D-06 -0.15575989D-03  0.24885224D-03
 -0.93092347D-04 -0.51126058D-16  0.10293283D-15  0.12875130D-03  0.37861131D-04
 -0.54788757D-04  0.16927626D-04  0.25322059D-16 -0.38663270D-16 -0.38100016D-04
  0.21743135D-04 -0.41743679D-04  0.20000544D-04 -0.18125116D-16  0.57142047D-17
 -0.11215211D-04 -0.40784724D-16  0.36053290D-03  0.20781550D-04  0.57996670D-16
 -0.55255741D-03 -0.10845558D-03  0.64357501D-16 -0.52904129D-03  0.46110929D-04
  0.16754033D-15  0.85838759D-17 -0.14315963D-03  0.19976269D-05 -0.10234912D-16
  0.22367135D-03  0.21935551D-04 -0.15516716D-16  0.20580754D-03 -0.27928432D-04
 -0.62322840D-16 -0.23087067D-04 -0.43035294D-04 -0.72955403D-04 -0.11047598D-03
 -0.13815060D-03 -0.11893480D-03 -0.45722879D-04  0.19812472D-06  0.14042892D-04
  0.26370064D-04  0.44903671D-04  0.70341336D-04  0.94265665D-04  0.10139543D-03
  0.60877685D-04 -0.40035727D-04  0.27317623D-04  0.14296477D-03  0.51376536D-04
 -0.22979624D-16 -0.22473570D-16 -0.14849238D-16 -0.37498557D-04 -0.36672770D-04
 -0.24231250D-04  0.66651212D-05  0.65183430D-05  0.43069448D-05  0.19222866D-16
 -0.43708623D-04  0.87398498D-05 -0.14008668D-16 -0.16024373D-04 -0.26606382D-04
 -0.72025140D-17 -0.27122870D-05  0.83325283D-06 -0.15575989D-03  0.24885224D-03
 -0.93092347D-04  0.50743445D-16  0.10293192D-15 -0.12875130D-03  0.37861131D-04
 -0.54788757D-04  0.16927626D-04 -0.25198303D-16 -0.38668586D-16  0.38100016D-04
  0.21743135D-04 -0.41743679D-04  0.20000544D-04  0.18156505D-16  0.57488845D-17
  0.11215211D-04 -0.40720690D-16 -0.36053290D-03  0.20781550D-04  0.57999727D-16
  0.55255741D-03 -0.10845558D-03  0.64162343D-16  0.52904129D-03  0.46110929D-04
 -0.16741759D-15  0.85770380D-17  0.14315963D-03  0.19976269D-05 -0.10274094D-16
 -0.22367135D-03  0.21935551D-04 -0.15457020D-16 -0.20580754D-03 -0.27928432D-04
  0.62239438D-16
MO    2     MO 0.0        OCC NO =    2.0000000  ORB. ENERGY =  -25.181030
  0.24725579D-15  0.46261653D-15  0.79929889D-15  0.12957567D-14  0.19677099D-14
  0.27348854D-14  0.32513842D-14  0.28960830D-14  0.14377023D-14  0.23163688D-15
  0.35562431D-17  0.63549715D-18  0.23747537D-19 -0.57916858D-15 -0.10818037D-14
 -0.18775229D-14 -0.30464566D-14 -0.47155530D-14 -0.67498857D-14 -0.88107093D-14
 -0.93892809D-14 -0.70186781D-14 -0.37050355D-15  0.47607867D-14  0.28284543D-14
 -0.10604583D-16  0.40133065D-15  0.74902582D-15  0.13017410D-14  0.21097391D-14
  0.32767552D-14  0.46940464D-14  0.61980509D-14  0.67019315D-14  0.52544012D-14
  0.26145727D-15 -0.45043503D-14 -0.46628376D-14  0.21100000D-14  0.41057013D-14
 -0.15136545D-13 -0.34312426D-14  0.12259380D-01  0.16148355D-01  0.17815419D-01
  0.14797753D-01  0.78594462D-02  0.20271804D-02 -0.20838726D-05 -0.40421114D-14
 -0.53243678D-14 -0.58740250D-14 -0.48790530D-14 -0.25913836D-14 -0.66839342D-15
  0.68708571D-18  0.12686055D-12  0.16710382D-12  0.18435466D-12  0.15312774D-12
  0.81329861D-13  0.20977344D-13 -0.21563996D-16 -0.10757169D-01 -0.14123375D-01
 -0.16080501D-01 -0.13616308D-01 -0.77999455D-02 -0.17742170D-02  0.83043119D-03
  0.46812025D-14  0.61460757D-14  0.69977593D-14  0.59254152D-14  0.33943059D-14
  0.77208684D-15 -0.36137913D-15 -0.11417924D-12 -0.14990897D-12 -0.17068240D-12
 -0.14452684D-12 -0.82790540D-13 -0.18831976D-13  0.88144010D-14 -0.10618704D-02
  0.20008137D-15 -0.72698470D-14  0.16974009D-03 -0.34648821D-15  0.35498667D-14
  0.23027524D-05  0.62208084D-17  0.13253555D-15  0.93919569D-15 -0.12081548D-14
  0.26895910D-15  0.35538989D-15  0.39526173D-03  0.20612598D-15 -0.29750754D-14
  0.33343826D-14 -0.35930726D-15 -0.95343790D-17 -0.78512741D-03 -0.99961119D-17
 -0.21935757D-15  0.26049698D-15 -0.41139409D-16  0.36111160D-16 -0.20821665D-04
  0.17381470D-16  0.51884334D-04 -0.42717835D-16 -0.73745401D-15 -0.48362517D-03
  0.76496319D-16  0.26559781D-14  0.32797217D-03  0.51657187D-16 -0.44361611D-15
  0.98700888D-16 -0.50807607D-04 -0.40633495D-16 -0.71204032D-16  0.14238677D-04
  0.56270346D-16  0.19544393D-14  0.13818414D-03  0.65630138D-16 -0.17408272D-14
 -0.58934248D-16  0.41978469D+00  0.78249684D+00  0.13265245D+01  0.20087491D+01
  0.25119478D+01  0.21625530D+01  0.83136434D+00 -0.36024378D-02  0.53099765D-03
  0.99711954D-03  0.16979226D-02  0.26597857D-02  0.35644258D-02  0.38340205D-02
  0.23019409D-02 -0.15138532D-02  0.45744841D-01  0.29543930D-03 -0.23441085D-03
 -0.43925190D-02 -0.42957877D-02 -0.28384085D-02  0.26208389D-15  0.25631232D-15
  0.16935638D-15  0.30993424D-02  0.30310891D-02  0.20027687D-02  0.69947628D-03
 -0.29424316D-16 -0.47660602D-03  0.26002768D-03 -0.18964895D-16 -0.84308466D-04
  0.24629964D-04 -0.79420218D-17 -0.15027225D-04  0.88412652D-03 -0.72850586D-03
 -0.15562066D-03 -0.45418523D-16 -0.21106939D-02  0.65424728D-16 -0.27467630D-03
  0.19357380D-03  0.81102508D-04  0.34148523D-16  0.63288242D-03 -0.34748972D-16
 -0.66751906D-04  0.37165447D-04  0.29586459D-04  0.10765638D-16  0.56940068D-04
 -0.60890252D-17 -0.10540867D-03 -0.19374782D-16 -0.90625446D-04  0.13077183D-03
  0.22262589D-16  0.34012610D-03  0.18545419D-03  0.35861756D-16 -0.68249764D-04
 -0.78883457D-16  0.57913066D-04  0.85336573D-17  0.71337621D-04 -0.12987244D-03
 -0.14338819D-16 -0.27862707D-03 -0.43866754D-04 -0.11262152D-16  0.64614210D-04
  0.31908984D-16 -0.41978469D+00 -0.78249684D+00 -0.13265245D+01 -0.20087491D+01
 -0.25119478D+01 -0.21625530D+01 -0.83136434D+00  0.36024378D-02 -0.53099765D-03
 -0.99711954D-03 -0.16979226D-02 -0.26597857D-02 -0.35644258D-02 -0.38340205D-02
 -0.23019409D-02  0.15138532D-02 -0.45744841D-01 -0.29543930D-03  0.23441085D-03
 -0.43925190D-02 -0.42957877D-02 -0.28384085D-02 -0.22789030D-15 -0.22287174D-15
 -0.14726078D-15 -0.30993424D-02 -0.30310891D-02 -0.20027687D-02  0.69947628D-03
  0.36832808D-17  0.47660602D-03  0.26002768D-03  0.47119505D-16  0.84308467D-04
  0.24629964D-04 -0.43876142D-16  0.15027225D-04 -0.88412652D-03  0.72850586D-03
  0.15562066D-03 -0.22487616D-15 -0.21106939D-02 -0.10121239D-15  0.27467630D-03
 -0.19357380D-03 -0.81102508D-04  0.11028881D-15  0.63288242D-03  0.48417664D-16
  0.66751906D-04 -0.37165447D-04 -0.29586459D-04 -0.37085266D-16  0.56940068D-04
 -0.12446422D-16 -0.10540867D-03  0.43202077D-16  0.90625446D-04  0.13077183D-03
  0.11240175D-16 -0.34012610D-03  0.18545419D-03 -0.14084641D-15  0.68249764D-04
  0.32091172D-15  0.57913066D-04 -0.12329062D-16 -0.71337621D-04 -0.12987244D-03
 -0.21099331D-17  0.27862707D-03 -0.43866754D-04  0.39097119D-16 -0.64614210D-04
 -0.78831663D-16  0.30419336D-13  0.56702960D-13  0.96125458D-13  0.14556227D-12
  0.18202613D-12  0.15670755D-12  0.60244101D-13 -0.26104755D-15  0.14426458D-15
  0.27090333D-15  0.46130165D-15  0.72262630D-15  0.96840425D-15  0.10416493D-14
  0.62540490D-15 -0.41129257D-15  0.36419487D-14 -0.22614050D-16  0.20504040D-15
 -0.68638459D-04 -0.67126914D-04 -0.44353590D-04  0.11591858D-14  0.11336584D-14
  0.74905601D-15  0.62624197D-15  0.61245097D-15  0.40467225D-15  0.70138361D-04
 -0.10523695D-14 -0.34564853D-15 -0.77891631D-04  0.22089025D-16  0.54544502D-15
  0.53361771D-05 -0.50746484D-16  0.18761859D-16 -0.43977978D-15  0.85849061D-15
 -0.41871083D-15  0.24618877D-03 -0.25021589D-03  0.62201532D-15  0.38343125D-15
 -0.60678126D-15  0.22335001D-15 -0.40764283D-04  0.57796498D-04 -0.20772231D-15
 -0.11873762D-17 -0.10866742D-15  0.10985480D-15 -0.75484180D-04  0.26834687D-04
  0.68897858D-15 -0.15518966D-03  0.36817499D-15  0.90590015D-15  0.58666175D-03
 -0.23975301D-15 -0.36630080D-15 -0.12109277D-03 -0.86477197D-15 -0.23513996D-14
 -0.13670685D-02  0.51526284D-04 -0.26096686D-15 -0.36495003D-15 -0.19296433D-03
  0.30887915D-15  0.52674022D-16  0.38385475D-04  0.47402143D-15  0.10421761D-14
  0.43461360D-03  0.75178724D-14  0.14013640D-13  0.23756565D-13  0.35974441D-13
  0.44986164D-13  0.38728897D-13  0.14888802D-13 -0.64515616D-16  0.21592326D-15
  0.40546563D-15  0.69043805D-15  0.10815671D-14  0.14494272D-14  0.15590544D-14
  0.93605419D-15 -0.61558862D-15  0.11792530D-14  0.46370781D-15  0.80226922D-15
 -0.68638459D-04 -0.67126914D-04 -0.44353590D-04 -0.11801899D-14 -0.11542000D-14
 -0.76262871D-15  0.54591238D-15  0.53389039D-15  0.35276395D-15  0.70138361D-04
  0.13042505D-14 -0.31785087D-15 -0.77891631D-04 -0.66718095D-15  0.57219976D-15
  0.53361771D-05 -0.42904577D-16 -0.11133619D-16 -0.25623806D-15  0.42312763D-15
 -0.16688957D-15 -0.24618877D-03 -0.25021589D-03 -0.15014354D-15  0.26941039D-15
 -0.43905483D-15  0.16964444D-15  0.40764283D-04  0.57796498D-04  0.28321197D-16
 -0.53203789D-16  0.18835324D-16  0.34368464D-16  0.75484180D-04  0.26834687D-04
 -0.65904017D-15 -0.15518966D-03 -0.10635227D-15  0.92663813D-15  0.58666175D-03
 -0.39906445D-16 -0.57490241D-15 -0.12109277D-03  0.35896325D-15 -0.22050120D-14
  0.13670685D-02  0.51526284D-04  0.13773434D-15 -0.37410290D-15 -0.19296433D-03
 -0.16711445D-15  0.19676529D-16  0.38385475D-04 -0.24608858D-15  0.11026322D-14
 -0.43461360D-03
MO    3     MO 0.0        OCC NO =    2.0000000  ORB. ENERGY =  -25.181027
  0.64790370D-04  0.12122303D-03  0.20944654D-03  0.33953727D-03  0.51561444D-03
  0.71664343D-03  0.85198566D-03  0.75888329D-03  0.37673239D-03  0.60697624D-04
  0.93187021D-06  0.16652429D-06  0.62227529D-08 -0.97663371D-04 -0.18242115D-03
 -0.31660076D-03 -0.51371437D-03 -0.79516883D-03 -0.11382119D-02 -0.14857221D-02
 -0.15832848D-02 -0.11835376D-02 -0.62476845D-04  0.80279644D-03  0.47695332D-03
 -0.17882174D-05  0.41997069D-04  0.78381479D-04  0.13622011D-03  0.22077273D-03
  0.34289461D-03  0.49120643D-03  0.64859231D-03  0.70132068D-03  0.54984451D-03
  0.27360081D-04 -0.47135576D-03 -0.48794059D-03  0.22080002D-03 -0.47838780D-03
  0.25459649D-03  0.18837483D-03 -0.58842042D-13 -0.77508175D-13 -0.85509674D-13
 -0.71025614D-13 -0.37723429D-13 -0.97299727D-14  0.10002081D-16 -0.35912116D-14
 -0.47304316D-14 -0.52187742D-14 -0.43347919D-14 -0.23023133D-14 -0.59383375D-15
  0.61044091D-18 -0.79633843D-02 -0.10489564D-01 -0.11572447D-01 -0.96122473D-02
 -0.51052980D-02 -0.13168053D-02  0.13536311D-05  0.52752218D-13  0.69259795D-13
  0.78857371D-13  0.66773183D-13  0.38250250D-13  0.87006049D-14 -0.40723619D-14
  0.49388457D-14  0.64843424D-14  0.73829008D-14  0.62515372D-14  0.35811212D-14
  0.81458083D-15 -0.38126866D-15  0.71105326D-02  0.93356081D-02  0.10629277D-01
  0.90004349D-02  0.51557956D-02  0.11727646D-02 -0.54891839D-03  0.37171195D-14
  0.39188323D-15  0.63701860D-03 -0.13053026D-14 -0.35096828D-15 -0.50517238D-04
  0.23277518D-16 -0.33475123D-16 -0.70705597D-05 -0.28408637D-03  0.25134950D-03
  0.32736872D-04  0.15827175D-16  0.46995383D-16  0.25386770D-16  0.42958534D-03
 -0.44580336D-03  0.16218017D-04 -0.93009907D-17  0.25683785D-14  0.70961498D-17
  0.15102205D-04  0.10687936D-04 -0.25790141D-04  0.61867746D-17  0.19186144D-15
  0.24993979D-16 -0.10352054D-16 -0.23937946D-16  0.13578435D-03  0.12448668D-14
  0.22748193D-16 -0.79814191D-03 -0.12138106D-14  0.49065646D-16  0.39078885D-03
  0.13572009D-16 -0.12844117D-15 -0.49213923D-16  0.45280116D-04  0.21797633D-15
  0.81946648D-16 -0.13932168D-03  0.16734718D-15  0.65695120D-16  0.34813348D-05
 -0.72575058D-17  0.41977912D+00  0.78248646D+00  0.13265069D+01  0.20087224D+01
  0.25119145D+01  0.21625244D+01  0.83135331D+00 -0.36023900D-02  0.53569700D-03
  0.10059441D-02  0.17129493D-02  0.26833249D-02  0.35959711D-02  0.38679517D-02
  0.23223131D-02 -0.15272508D-02  0.45730870D-01  0.35131065D-03 -0.23758865D-03
 -0.42878731D-02 -0.41934463D-02 -0.27707872D-02  0.27866689D-15  0.27253013D-15
  0.18007218D-15  0.30850107D-02  0.30170731D-02  0.19935078D-02  0.67341918D-03
 -0.42657680D-16 -0.41710053D-03  0.13137166D-03  0.21044237D-16 -0.26767422D-03
  0.14535522D-04  0.18205797D-16 -0.13651312D-04  0.57471028D-03 -0.79360229D-03
  0.21889201D-03 -0.88591851D-16 -0.22911482D-02  0.34925890D-16 -0.15307869D-03
  0.21898243D-03 -0.65903747D-04  0.50736221D-16  0.69327126D-03 -0.17353763D-16
  0.14342459D-04  0.32959939D-04 -0.47302399D-04 -0.16420083D-16  0.12295464D-03
 -0.19476359D-17  0.65127067D-04  0.25755700D-16  0.82690210D-04  0.31534220D-03
 -0.54353122D-16 -0.13263366D-04 -0.51072340D-03 -0.22913979D-16 -0.23480726D-03
 -0.16280087D-15 -0.39579566D-04 -0.56968333D-17  0.39988058D-05 -0.17984692D-03
  0.14941452D-16 -0.17273094D-03  0.29858562D-03  0.21490482D-17  0.16073453D-03
  0.43068344D-16  0.41977912D+00  0.78248646D+00  0.13265069D+01  0.20087224D+01
  0.25119145D+01  0.21625244D+01  0.83135331D+00 -0.36023900D-02  0.53569700D-03
  0.10059441D-02  0.17129493D-02  0.26833249D-02  0.35959711D-02  0.38679517D-02
  0.23223131D-02 -0.15272508D-02  0.45730870D-01  0.35131065D-03 -0.23758865D-03
  0.42878731D-02  0.41934463D-02  0.27707872D-02  0.31044962D-15  0.30361295D-15
  0.20060991D-15  0.30850107D-02  0.30170731D-02  0.19935078D-02 -0.67341918D-03
 -0.69495816D-16 -0.41710053D-03 -0.13137166D-03  0.44776242D-16 -0.26767422D-03
 -0.14535522D-04  0.84420098D-17 -0.13651312D-04  0.57471028D-03 -0.79360229D-03
  0.21889201D-03  0.73560000D-16  0.22911482D-02  0.28840804D-16 -0.15307869D-03
  0.21898243D-03 -0.65903747D-04 -0.41313575D-16 -0.69327126D-03 -0.14678842D-16
  0.14342459D-04  0.32959939D-04 -0.47302399D-04  0.17091443D-16 -0.12295464D-03
 -0.76661781D-18 -0.65127067D-04  0.22136564D-16  0.82690210D-04 -0.31534220D-03
 -0.50747980D-16 -0.13263366D-04  0.51072340D-03 -0.15661711D-16 -0.23480726D-03
  0.12377358D-15  0.39579566D-04 -0.41968552D-17  0.39988058D-05  0.17984692D-03
  0.13516842D-16 -0.17273094D-03 -0.29858562D-03 -0.92627672D-18  0.16073453D-03
 -0.36833807D-16 -0.46129934D-04 -0.85988195D-04 -0.14577113D-03 -0.22074045D-03
 -0.27603671D-03 -0.23764190D-03 -0.91358220D-04  0.39587012D-06  0.63398583D-06