 Molden2AIM, Version 4.0.0 (06/02/2016)           Time: Fri Jun 29 19:28:15 2018
GAUSSIAN             28 MOL ORBITALS    468 PRIMITIVES        4 NUCLEI
  C    1    (CENTRE  1)  -0.00006614  0.00000000  0.00000000  CHARGE =  6.0
  S    2    (CENTRE  2)  -1.64647302  2.85188585  0.00000000  CHARGE = 16.0
  S    3    (CENTRE  3)  -1.64647302 -2.85188585  0.00000000  CHARGE = 16.0
  S    4    (CENTRE  4)   3.29301407  0.00000000  0.00000000  CHARGE = 16.0
CENTRE ASSIGNMENTS    1  1  1  1  1  1  1  1  1  1  1  1  1  1  1  1  1  1  1  1
CENTRE ASSIGNMENTS    1  1  1  1  1  1  1  1  1  1  1  1  1  1  1  1  1  1  1  1
CENTRE ASSIGNMENTS    1  1  1  1  1  1  1  1  1  1  1  1  1  1  1  1  1  1  1  1
CENTRE ASSIGNMENTS    1  1  1  1  1  1  1  1  1  1  1  1  1  1  1  2  2  2  2  2
CENTRE ASSIGNMENTS    2  2  2  2  2  2  2  2  2  2  2  2  2  2  2  2  2  2  2  2
CENTRE ASSIGNMENTS    2  2  2  2  2  2  2  2  2  2  2  2  2  2  2  2  2  2  2  2
CENTRE ASSIGNMENTS    2  2  2  2  2  2  2  2  2  2  2  2  2  2  2  2  2  2  2  2
CENTRE ASSIGNMENTS    2  2  2  2  2  2  2  2  2  2  2  2  2  2  2  2  2  2  2  2
CENTRE ASSIGNMENTS    2  2  2  2  2  2  2  2  2  2  2  2  2  2  2  2  2  2  2  2
CENTRE ASSIGNMENTS    2  2  2  2  2  2  2  2  2  2  2  2  2  2  2  2  2  2  2  2
CENTRE ASSIGNMENTS    2  2  2  2  2  2  3  3  3  3  3  3  3  3  3  3  3  3  3  3
CENTRE ASSIGNMENTS    3  3  3  3  3  3  3  3  3  3  3  3  3  3  3  3  3  3  3  3
CENTRE ASSIGNMENTS    3  3  3  3  3  3  3  3  3  3  3  3  3  3  3  3  3  3  3  3
CENTRE ASSIGNMENTS    3  3  3  3  3  3  3  3  3  3  3  3  3  3  3  3  3  3  3  3
CENTRE ASSIGNMENTS    3  3  3  3  3  3  3  3  3  3  3  3  3  3  3  3  3  3  3  3
CENTRE ASSIGNMENTS    3  3  3  3  3  3  3  3  3  3  3  3  3  3  3  3  3  3  3  3
CENTRE ASSIGNMENTS    3  3  3  3  3  3  3  3  3  3  3  3  3  3  3  3  3  4  4  4
CENTRE ASSIGNMENTS    4  4  4  4  4  4  4  4  4  4  4  4  4  4  4  4  4  4  4  4
CENTRE ASSIGNMENTS    4  4  4  4  4  4  4  4  4  4  4  4  4  4  4  4  4  4  4  4
CENTRE ASSIGNMENTS    4  4  4  4  4  4  4  4  4  4  4  4  4  4  4  4  4  4  4  4
CENTRE ASSIGNMENTS    4  4  4  4  4  4  4  4  4  4  4  4  4  4  4  4  4  4  4  4
CENTRE ASSIGNMENTS    4  4  4  4  4  4  4  4  4  4  4  4  4  4  4  4  4  4  4  4
CENTRE ASSIGNMENTS    4  4  4  4  4  4  4  4  4  4  4  4  4  4  4  4  4  4  4  4
CENTRE ASSIGNMENTS    4  4  4  4  4  4  4  4
TYPE ASSIGNMENTS      1  1  1  1  1  1  1  1  1  1  1  1  1  1  1  1  1  1  1  2
TYPE ASSIGNMENTS      2  2  3  3  3  4  4  4  2  3  4  2  3  4  2  3  4  5  6  7
TYPE ASSIGNMENTS      8  9 10  5  6  7  8  9 10  5  6  7  8  9 10 11 12 13 17 14
TYPE ASSIGNMENTS     15 18 19 16 20 11 12 13 17 14 15 18 19 16 20  1  1  1  1  1
TYPE ASSIGNMENTS      1  1  1  1  1  1  1  1  1  1  1  1  1  1  1  1  1  1  1  1
TYPE ASSIGNMENTS      1  1  1  1  1  1  1  1  1  1  1  1  1  1  1  1  1  2  2  2
TYPE ASSIGNMENTS      2  2  2  2  3  3  3  3  3  3  3  4  4  4  4  4  4  4  2  2
TYPE ASSIGNMENTS      2  2  2  2  2  3  3  3  3  3  3  3  4  4  4  4  4  4  4  2
TYPE ASSIGNMENTS      3  4  2  3  4  2  3  4  5  6  7  8  9 10  5  6  7  8  9 10
TYPE ASSIGNMENTS      5  6  7  8  9 10 11 12 13 17 14 15 18 19 16 20 11 12 13 17
TYPE ASSIGNMENTS     14 15 18 19 16 20  1  1  1  1  1  1  1  1  1  1  1  1  1  1
TYPE ASSIGNMENTS      1  1  1  1  1  1  1  1  1  1  1  1  1  1  1  1  1  1  1  1
TYPE ASSIGNMENTS      1  1  1  1  1  1  1  1  2  2  2  2  2  2  2  3  3  3  3  3
TYPE ASSIGNMENTS      3  3  4  4  4  4  4  4  4  2  2  2  2  2  2  2  3  3  3  3
TYPE ASSIGNMENTS      3  3  3  4  4  4  4  4  4  4  2  3  4  2  3  4  2  3  4  5
TYPE ASSIGNMENTS      6  7  8  9 10  5  6  7  8  9 10  5  6  7  8  9 10 11 12 13
TYPE ASSIGNMENTS     17 14 15 18 19 16 20 11 12 13 17 14 15 18 19 16 20  1  1  1
TYPE ASSIGNMENTS      1  1  1  1  1  1  1  1  1  1  1  1  1  1  1  1  1  1  1  1
TYPE ASSIGNMENTS      1  1  1  1  1  1  1  1  1  1  1  1  1  1  1  1  1  1  1  2
TYPE ASSIGNMENTS      2  2  2  2  2  2  3  3  3  3  3  3  3  4  4  4  4  4  4  4
TYPE ASSIGNMENTS      2  2  2  2  2  2  2  3  3  3  3  3  3  3  4  4  4  4  4  4
TYPE ASSIGNMENTS      4  2  3  4  2  3  4  2  3  4  5  6  7  8  9 10  5  6  7  8
TYPE ASSIGNMENTS      9 10  5  6  7  8  9 10 11 12 13 17 14 15 18 19 16 20 11 12
TYPE ASSIGNMENTS     13 17 14 15 18 19 16 20
EXPONENTS  0.8236000D+04 0.1235000D+04 0.2808000D+03 0.7927000D+02 0.2559000D+02
EXPONENTS  0.8997000D+01 0.3319000D+01 0.3643000D+00 0.8236000D+04 0.1235000D+04
EXPONENTS  0.2808000D+03 0.7927000D+02 0.2559000D+02 0.8997000D+01 0.3319000D+01
EXPONENTS  0.3643000D+00 0.9059000D+00 0.1285000D+00 0.4402000D-01 0.1871000D+02
EXPONENTS  0.4133000D+01 0.1200000D+01 0.1871000D+02 0.4133000D+01 0.1200000D+01
EXPONENTS  0.1871000D+02 0.4133000D+01 0.1200000D+01 0.3827000D+00 0.3827000D+00
EXPONENTS  0.3827000D+00 0.1209000D+00 0.1209000D+00 0.1209000D+00 0.3569000D-01
EXPONENTS  0.3569000D-01 0.3569000D-01 0.1097000D+01 0.1097000D+01 0.1097000D+01
EXPONENTS  0.1097000D+01 0.1097000D+01 0.1097000D+01 0.3180000D+00 0.3180000D+00
EXPONENTS  0.3180000D+00 0.3180000D+00 0.3180000D+00 0.3180000D+00 0.1000000D+00
EXPONENTS  0.1000000D+00 0.1000000D+00 0.1000000D+00 0.1000000D+00 0.1000000D+00
EXPONENTS  0.7610000D+00 0.7610000D+00 0.7610000D+00 0.7610000D+00 0.7610000D+00
EXPONENTS  0.7610000D+00 0.7610000D+00 0.7610000D+00 0.7610000D+00 0.7610000D+00
EXPONENTS  0.2680000D+00 0.2680000D+00 0.2680000D+00 0.2680000D+00 0.2680000D+00
EXPONENTS  0.2680000D+00 0.2680000D+00 0.2680000D+00 0.2680000D+00 0.2680000D+00
EXPONENTS  0.3741000D+06 0.5605000D+05 0.1276000D+05 0.3615000D+04 0.1183000D+04
EXPONENTS  0.4288000D+03 0.1678000D+03 0.6947000D+02 0.2984000D+02 0.1272000D+02
EXPONENTS  0.5244000D+01 0.2219000D+01 0.3490000D+00 0.3741000D+06 0.5605000D+05
EXPONENTS  0.1276000D+05 0.3615000D+04 0.1183000D+04 0.4288000D+03 0.1678000D+03
EXPONENTS  0.6947000D+02 0.2984000D+02 0.1272000D+02 0.5244000D+01 0.2219000D+01
EXPONENTS  0.3490000D+00 0.3741000D+06 0.5605000D+05 0.1276000D+05 0.3615000D+04
EXPONENTS  0.1183000D+04 0.4288000D+03 0.1678000D+03 0.6947000D+02 0.2984000D+02
EXPONENTS  0.1272000D+02 0.5244000D+01 0.2219000D+01 0.3490000D+00 0.7767000D+00
EXPONENTS  0.1322000D+00 0.4970000D-01 0.5744000D+03 0.1358000D+03 0.4319000D+02
EXPONENTS  0.1587000D+02 0.6208000D+01 0.2483000D+01 0.3229000D+00 0.5744000D+03
EXPONENTS  0.1358000D+03 0.4319000D+02 0.1587000D+02 0.6208000D+01 0.2483000D+01
EXPONENTS  0.3229000D+00 0.5744000D+03 0.1358000D+03 0.4319000D+02 0.1587000D+02
EXPONENTS  0.6208000D+01 0.2483000D+01 0.3229000D+00 0.5744000D+03 0.1358000D+03
EXPONENTS  0.4319000D+02 0.1587000D+02 0.6208000D+01 0.2483000D+01 0.3229000D+00
EXPONENTS  0.5744000D+03 0.1358000D+03 0.4319000D+02 0.1587000D+02 0.6208000D+01
EXPONENTS  0.2483000D+01 0.3229000D+00 0.5744000D+03 0.1358000D+03 0.4319000D+02
EXPONENTS  0.1587000D+02 0.6208000D+01 0.2483000D+01 0.3229000D+00 0.8688000D+00
EXPONENTS  0.8688000D+00 0.8688000D+00 0.1098000D+00 0.1098000D+00 0.1098000D+00
EXPONENTS  0.3510000D-01 0.3510000D-01 0.3510000D-01 0.2690000D+00 0.2690000D+00
EXPONENTS  0.2690000D+00 0.2690000D+00 0.2690000D+00 0.2690000D+00 0.8190000D+00
EXPONENTS  0.8190000D+00 0.8190000D+00 0.8190000D+00 0.8190000D+00 0.8190000D+00
EXPONENTS  0.1010000D+00 0.1010000D+00 0.1010000D+00 0.1010000D+00 0.1010000D+00
EXPONENTS  0.1010000D+00 0.5570000D+00 0.5570000D+00 0.5570000D+00 0.5570000D+00
EXPONENTS  0.5570000D+00 0.5570000D+00 0.5570000D+00 0.5570000D+00 0.5570000D+00
EXPONENTS  0.5570000D+00 0.2180000D+00 0.2180000D+00 0.2180000D+00 0.2180000D+00
EXPONENTS  0.2180000D+00 0.2180000D+00 0.2180000D+00 0.2180000D+00 0.2180000D+00
EXPONENTS  0.2180000D+00 0.3741000D+06 0.5605000D+05 0.1276000D+05 0.3615000D+04
EXPONENTS  0.1183000D+04 0.4288000D+03 0.1678000D+03 0.6947000D+02 0.2984000D+02
EXPONENTS  0.1272000D+02 0.5244000D+01 0.2219000D+01 0.3490000D+00 0.3741000D+06
EXPONENTS  0.5605000D+05 0.1276000D+05 0.3615000D+04 0.1183000D+04 0.4288000D+03
EXPONENTS  0.1678000D+03 0.6947000D+02 0.2984000D+02 0.1272000D+02 0.5244000D+01
EXPONENTS  0.2219000D+01 0.3490000D+00 0.3741000D+06 0.5605000D+05 0.1276000D+05
EXPONENTS  0.3615000D+04 0.1183000D+04 0.4288000D+03 0.1678000D+03 0.6947000D+02
EXPONENTS  0.2984000D+02 0.1272000D+02 0.5244000D+01 0.2219000D+01 0.3490000D+00
EXPONENTS  0.7767000D+00 0.1322000D+00 0.4970000D-01 0.5744000D+03 0.1358000D+03
EXPONENTS  0.4319000D+02 0.1587000D+02 0.6208000D+01 0.2483000D+01 0.3229000D+00
EXPONENTS  0.5744000D+03 0.1358000D+03 0.4319000D+02 0.1587000D+02 0.6208000D+01
EXPONENTS  0.2483000D+01 0.3229000D+00 0.5744000D+03 0.1358000D+03 0.4319000D+02
EXPONENTS  0.1587000D+02 0.6208000D+01 0.2483000D+01 0.3229000D+00 0.5744000D+03
EXPONENTS  0.1358000D+03 0.4319000D+02 0.1587000D+02 0.6208000D+01 0.2483000D+01
EXPONENTS  0.3229000D+00 0.5744000D+03 0.1358000D+03 0.4319000D+02 0.1587000D+02
EXPONENTS  0.6208000D+01 0.2483000D+01 0.3229000D+00 0.5744000D+03 0.1358000D+03
EXPONENTS  0.4319000D+02 0.1587000D+02 0.6208000D+01 0.2483000D+01 0.3229000D+00
EXPONENTS  0.8688000D+00 0.8688000D+00 0.8688000D+00 0.1098000D+00 0.1098000D+00
EXPONENTS  0.1098000D+00 0.3510000D-01 0.3510000D-01 0.3510000D-01 0.2690000D+00
EXPONENTS  0.2690000D+00 0.2690000D+00 0.2690000D+00 0.2690000D+00 0.2690000D+00
EXPONENTS  0.8190000D+00 0.8190000D+00 0.8190000D+00 0.8190000D+00 0.8190000D+00
EXPONENTS  0.8190000D+00 0.1010000D+00 0.1010000D+00 0.1010000D+00 0.1010000D+00
EXPONENTS  0.1010000D+00 0.1010000D+00 0.5570000D+00 0.5570000D+00 0.5570000D+00
EXPONENTS  0.5570000D+00 0.5570000D+00 0.5570000D+00 0.5570000D+00 0.5570000D+00
EXPONENTS  0.5570000D+00 0.5570000D+00 0.2180000D+00 0.2180000D+00 0.2180000D+00
EXPONENTS  0.2180000D+00 0.2180000D+00 0.2180000D+00 0.2180000D+00 0.2180000D+00
EXPONENTS  0.2180000D+00 0.2180000D+00 0.3741000D+06 0.5605000D+05 0.1276000D+05
EXPONENTS  0.3615000D+04 0.1183000D+04 0.4288000D+03 0.1678000D+03 0.6947000D+02
EXPONENTS  0.2984000D+02 0.1272000D+02 0.5244000D+01 0.2219000D+01 0.3490000D+00
EXPONENTS  0.3741000D+06 0.5605000D+05 0.1276000D+05 0.3615000D+04 0.1183000D+04
EXPONENTS  0.4288000D+03 0.1678000D+03 0.6947000D+02 0.2984000D+02 0.1272000D+02
EXPONENTS  0.5244000D+01 0.2219000D+01 0.3490000D+00 0.3741000D+06 0.5605000D+05
EXPONENTS  0.1276000D+05 0.3615000D+04 0.1183000D+04 0.4288000D+03 0.1678000D+03
EXPONENTS  0.6947000D+02 0.2984000D+02 0.1272000D+02 0.5244000D+01 0.2219000D+01
EXPONENTS  0.3490000D+00 0.7767000D+00 0.1322000D+00 0.4970000D-01 0.5744000D+03
EXPONENTS  0.1358000D+03 0.4319000D+02 0.1587000D+02 0.6208000D+01 0.2483000D+01
EXPONENTS  0.3229000D+00 0.5744000D+03 0.1358000D+03 0.4319000D+02 0.1587000D+02
EXPONENTS  0.6208000D+01 0.2483000D+01 0.3229000D+00 0.5744000D+03 0.1358000D+03
EXPONENTS  0.4319000D+02 0.1587000D+02 0.6208000D+01 0.2483000D+01 0.3229000D+00
EXPONENTS  0.5744000D+03 0.1358000D+03 0.4319000D+02 0.1587000D+02 0.6208000D+01
EXPONENTS  0.2483000D+01 0.3229000D+00 0.5744000D+03 0.1358000D+03 0.4319000D+02
EXPONENTS  0.1587000D+02 0.6208000D+01 0.2483000D+01 0.3229000D+00 0.5744000D+03
EXPONENTS  0.1358000D+03 0.4319000D+02 0.1587000D+02 0.6208000D+01 0.2483000D+01
EXPONENTS  0.3229000D+00 0.8688000D+00 0.8688000D+00 0.8688000D+00 0.1098000D+00
EXPONENTS  0.1098000D+00 0.1098000D+00 0.3510000D-01 0.3510000D-01 0.3510000D-01
EXPONENTS  0.2690000D+00 0.2690000D+00 0.2690000D+00 0.2690000D+00 0.2690000D+00
EXPONENTS  0.2690000D+00 0.8190000D+00 0.8190000D+00 0.8190000D+00 0.8190000D+00
EXPONENTS  0.8190000D+00 0.8190000D+00 0.1010000D+00 0.1010000D+00 0.1010000D+00
EXPONENTS  0.1010000D+00 0.1010000D+00 0.1010000D+00 0.5570000D+00 0.5570000D+00
EXPONENTS  0.5570000D+00 0.5570000D+00 0.5570000D+00 0.5570000D+00 0.5570000D+00
EXPONENTS  0.5570000D+00 0.5570000D+00 0.5570000D+00 0.2180000D+00 0.2180000D+00
EXPONENTS  0.2180000D+00 0.2180000D+00 0.2180000D+00 0.2180000D+00 0.2180000D+00
EXPONENTS  0.2180000D+00 0.2180000D+00 0.2180000D+00
MO    1     MO 0.0        OCC NO =    2.0000000  ORB. ENERGY =  -88.676198
  0.66731757D-04  0.12440317D-03  0.21026327D-03  0.31609457D-03  0.38835870D-03
  0.32803100D-03  0.12372123D-03 -0.61230325D-06 -0.51527366D-04 -0.96475487D-04
 -0.16425777D-03 -0.25408180D-03 -0.33461679D-03 -0.34768827D-03 -0.22094029D-03
  0.14806904D-03  0.17763651D-03 -0.14484479D-03 -0.60563175D-04  0.14813358D-03
  0.13888465D-03  0.98894143D-04  0.10085370D-13  0.94556754D-14  0.67330042D-14
  0.22708294D-18  0.21290469D-18  0.15160083D-18 -0.25034632D-05 -0.22807898D-14
 -0.12114108D-18  0.38336853D-03  0.44171702D-14  0.41167685D-19 -0.43529533D-05
 -0.29349286D-14 -0.95714164D-20  0.95041930D-04  0.26099975D-04 -0.12114191D-03
 -0.63145877D-14  0.15515653D-18  0.92015927D-19 -0.11775771D-03 -0.13861384D-04
  0.13161909D-03  0.10253532D-13 -0.89710734D-19 -0.71169304D-19  0.24140948D-04
 -0.38125153D-04  0.13984205D-04  0.13467010D-15 -0.11333049D-20 -0.13278626D-19
 -0.30487553D-04 -0.75866401D-15 -0.40754996D-19  0.31588275D-04 -0.17643797D-14
  0.10709547D-18  0.59874383D-04  0.40403717D-14  0.15169514D-19 -0.71860784D-19
 -0.50240135D-04 -0.77292008D-15  0.47739102D-20  0.12155801D-03 -0.68512731D-16
 -0.56822019D-19  0.29162398D-04  0.23872730D-14  0.42500288D-19  0.26210176D-19
 -0.42562340D-01 -0.79567821D-01 -0.13751804D+00 -0.22242925D+00 -0.33618879D+00
 -0.46298713D+00 -0.54112462D+00 -0.46757249D+00 -0.21807748D+00 -0.29610210D-01
 -0.79288847D-04 -0.15553194D-03 -0.71006828D-05  0.75515435D-04  0.14102829D-03
  0.24463539D-03  0.39666783D-03  0.61071528D-03  0.86979574D-03  0.11184444D-02
  0.11740338D-02  0.83012511D-03 -0.18383468D-04 -0.59645562D-03 -0.32842465D-03
  0.13889023D-05 -0.32735926D-04 -0.61090081D-04 -0.10610616D-03 -0.17186843D-03
 -0.26548643D-03 -0.37849080D-03 -0.49229290D-03 -0.52465153D-03 -0.38912313D-03
  0.12111958D-04  0.35252528D-03  0.34535310D-03 -0.16130038D-03  0.19031659D-03
  0.48809860D-03  0.99230545D-04 -0.27206487D-04 -0.35693429D-04 -0.39150251D-04
 -0.32213447D-04 -0.16983567D-04 -0.44183213D-05  0.48893230D-08 -0.24071622D-02
 -0.31580657D-02 -0.34639167D-02 -0.28501656D-02 -0.15026637D-02 -0.39092206D-03
  0.43259512D-06 -0.76021609D-19 -0.99736212D-19 -0.10939542D-18 -0.90012287D-19
 -0.47456258D-19 -0.12345875D-19  0.13661970D-22 -0.59710257D-04 -0.78399931D-04
 -0.88205208D-04 -0.74319557D-04 -0.41573318D-04 -0.10347514D-04  0.47458686D-05
  0.21865716D-02  0.28709818D-02  0.32300481D-02  0.27215597D-02  0.15224024D-02
  0.37892285D-03 -0.17379228D-03  0.19643153D-18  0.25791580D-18  0.29017266D-18
  0.24449241D-18  0.13676562D-18  0.34040685D-19 -0.15612699D-19  0.52146227D-04
  0.76905965D-04  0.45748000D-20  0.13935574D-03 -0.11637312D-03  0.29606220D-19
  0.56607268D-05 -0.20392836D-05  0.21276113D-20 -0.19805555D-04  0.33508845D-04
 -0.13703290D-04 -0.61352343D-04 -0.62509365D-19 -0.23468047D-19 -0.96823745D-05
  0.16748164D-04 -0.70657896D-05 -0.51815598D-05  0.10466519D-18 -0.63317673D-19
  0.75883385D-05  0.52251281D-06 -0.81108513D-05 -0.21602404D-04  0.15731780D-19
 -0.60358319D-20 -0.19429922D-04 -0.73170570D-05  0.80681933D-19  0.50023157D-04
  0.24646416D-04 -0.99046520D-19  0.82666087D-05 -0.26952447D-05 -0.14299928D-18
  0.89623858D-19  0.68720057D-06  0.11257574D-05 -0.11053191D-19  0.39866521D-05
 -0.44110182D-05  0.60989376D-20 -0.60482538D-05  0.10337458D-05  0.27060636D-19
 -0.10457033D-19 -0.42562340D-01 -0.79567821D-01 -0.13751804D+00 -0.22242925D+00
 -0.33618879D+00 -0.46298713D+00 -0.54112462D+00 -0.46757249D+00 -0.21807748D+00
 -0.29610210D-01 -0.79288847D-04 -0.15553194D-03 -0.71006828D-05  0.75515435D-04
  0.14102829D-03  0.24463539D-03  0.39666783D-03  0.61071529D-03  0.86979575D-03
  0.11184444D-02  0.11740338D-02  0.83012511D-03 -0.18383468D-04 -0.59645562D-03
 -0.32842465D-03  0.13889023D-05 -0.32735926D-04 -0.61090081D-04 -0.10610616D-03
 -0.17186843D-03 -0.26548643D-03 -0.37849080D-03 -0.49229290D-03 -0.52465153D-03
 -0.38912313D-03  0.12111958D-04  0.35252528D-03  0.34535310D-03 -0.16130038D-03
  0.19031659D-03  0.48809860D-03  0.99230545D-04 -0.27206487D-04 -0.35693429D-04
 -0.39150252D-04 -0.32213448D-04 -0.16983567D-04 -0.44183213D-05  0.48893230D-08
  0.24071622D-02  0.31580657D-02  0.34639167D-02  0.28501656D-02  0.15026637D-02
  0.39092206D-03 -0.43259512D-06 -0.14577127D-17 -0.19124396D-17 -0.20976548D-17
 -0.17259836D-17 -0.90997269D-18 -0.23673188D-18  0.26196797D-21 -0.59710257D-04
 -0.78399930D-04 -0.88205208D-04 -0.74319557D-04 -0.41573318D-04 -0.10347514D-04
  0.47458686D-05 -0.21865716D-02 -0.28709818D-02 -0.32300481D-02 -0.27215597D-02
 -0.15224024D-02 -0.37892285D-03  0.17379228D-03  0.66182849D-18  0.86898483D-18
  0.97766653D-18  0.82375797D-18  0.46079866D-18  0.11469185D-18 -0.52603208D-19
  0.52146227D-04 -0.76905965D-04  0.11122044D-18  0.13935574D-03  0.11637312D-03
 -0.27344429D-19  0.56607268D-05  0.20392836D-05  0.39158967D-20 -0.19805555D-04
  0.33508845D-04 -0.13703290D-04  0.61352343D-04 -0.45707600D-19 -0.68506028D-19
 -0.96823745D-05  0.16748164D-04 -0.70657896D-05  0.51815597D-05  0.81191211D-19
  0.34072280D-18  0.75883385D-05  0.52251281D-06 -0.81108513D-05  0.21602404D-04
 -0.24933160D-20 -0.43948519D-20 -0.19429922D-04  0.73170570D-05  0.23121923D-19
  0.50023157D-04 -0.24646416D-04 -0.22095745D-19  0.82666087D-05  0.26952447D-05
 -0.47270023D-19  0.38409997D-19  0.68720057D-06 -0.11257574D-05  0.67100809D-20
  0.39866521D-05  0.44110182D-05 -0.12503603D-19 -0.60482538D-05 -0.10337458D-05
 -0.76266394D-20 -0.23543529D-19  0.58190532D+00  0.10878382D+01  0.18801240D+01
  0.30410163D+01  0.45963180D+01  0.63298841D+01  0.73981670D+01  0.63925744D+01
  0.29815195D+01  0.40482593D+00  0.10840241D-02  0.21264072D-02  0.97079370D-04
 -0.90930958D-03 -0.16981744D-02 -0.29457462D-02 -0.47764256D-02 -0.73538510D-02
 -0.10473536D-01 -0.13467607D-01 -0.14136980D-01 -0.99958467D-02  0.22136221D-03
  0.71821451D-02  0.39546840D-02 -0.16724292D-04  0.39651121D-03  0.73994857D-03
  0.12852021D-02  0.20817423D-02  0.32156825D-02  0.45844386D-02  0.59628571D-02
  0.63547984D-02  0.47132218D-02 -0.14670509D-03 -0.42699334D-02 -0.41830610D-02
  0.19537376D-02 -0.23725769D-02 -0.10013952D-02 -0.15763562D-03 -0.64691410D-02
 -0.84871607D-02 -0.93091217D-02 -0.76596928D-02 -0.40383415D-02 -0.10505856D-02
  0.11625801D-05 -0.59167740D-13 -0.77624853D-13 -0.85142632D-13 -0.70056707D-13
 -0.36935282D-13 -0.96088145D-14  0.10633133D-16 -0.30835635D-17 -0.40454674D-17
 -0.44372611D-17 -0.36510488D-17 -0.19249051D-17 -0.50076933D-18  0.55415232D-21
  0.54830763D-02  0.71993126D-02  0.80997121D-02  0.68246199D-02  0.38175967D-02
  0.95019204D-03 -0.43580385D-03  0.51194083D-13  0.67218143D-13  0.75624943D-13
  0.63719732D-13  0.35643925D-13  0.88717003D-14 -0.40689892D-14 -0.85280752D-18
 -0.11197415D-17 -0.12597847D-17 -0.10614638D-17 -0.59376798D-18 -0.14778764D-18
  0.67782533D-19  0.17449201D-03  0.37920853D-14  0.18174299D-18  0.42247794D-03
  0.19045306D-14  0.10430552D-20  0.96321674D-05  0.64544242D-15 -0.13416043D-20
 -0.27511334D-04  0.69030177D-05  0.20608316D-04  0.88047375D-15 -0.93444016D-19
 -0.69210550D-20  0.26047570D-03 -0.12439050D-03 -0.13608520D-03  0.21222901D-14
 -0.17534245D-18  0.57158236D-20 -0.47749054D-04  0.22942952D-04  0.24806102D-04
 -0.65412002D-15  0.95129127D-20 -0.75369275D-21 -0.68311298D-04  0.75457221D-15
 -0.11188117D-19  0.10395287D-03 -0.22663109D-14  0.33451856D-19  0.10098102D-03
  0.25942341D-17  0.11249386D-21  0.40672773D-20  0.19593049D-04 -0.69484173D-16
  0.34155050D-20 -0.20301047D-04  0.39826325D-15 -0.48099530D-20 -0.38478099D-04
 -0.18981073D-15 -0.54365619D-20  0.37390468D-20
MO    2     MO 0.0        OCC NO =    2.0000000  ORB. ENERGY =  -88.676188
  0.58721033D-11  0.10946936D-10  0.18502250D-10  0.27814942D-10  0.34173870D-10
  0.28865296D-10  0.10886928D-10 -0.53880013D-13 -0.45344189D-11 -0.84898629D-11
 -0.14454718D-10 -0.22359251D-10 -0.29446347D-10 -0.30596640D-10 -0.19442791D-10
  0.13030107D-10  0.15636837D-10 -0.12735734D-10 -0.53614685D-11 -0.41134095D-11
 -0.38565828D-11 -0.27461167D-11 -0.17000256D-03 -0.15938821D-03 -0.11349390D-03
  0.48122618D-17  0.45118013D-17  0.32126713D-17  0.65742161D-13  0.29220246D-05
 -0.27966789D-16 -0.10666123D-10 -0.43986228D-03  0.90833325D-17  0.12587870D-12
  0.50000700D-05 -0.20647799D-17  0.43754468D-11  0.62873059D-11 -0.10662753D-10
  0.79087048D-04 -0.68008826D-17  0.73120877D-15 -0.43509137D-11 -0.72331931D-11
  0.11584107D-10 -0.11926391D-03  0.52622154D-18  0.42362669D-17 -0.14847643D-11
  0.25430314D-12  0.12304612D-11  0.71404230D-04 -0.49880543D-19  0.92922110D-19
 -0.94830639D-12  0.17174728D-04  0.97902562D-19  0.45094480D-11  0.17187270D-04
 -0.26111434D-18 -0.16645288D-11 -0.68711453D-04 -0.32593344D-19  0.13864224D-18
 -0.35784429D-11  0.83731448D-05  0.60794680D-19  0.11544881D-10  0.83461793D-05
  0.79078452D-19 -0.80955187D-12 -0.33465614D-04 -0.26146249D-18 -0.97025617D-18
 -0.41366781D+00 -0.77332793D+00 -0.13365521D+01 -0.21618131D+01 -0.32674539D+01
 -0.44998201D+01 -0.52592465D+01 -0.45443857D+01 -0.21195177D+01 -0.28778471D+00
 -0.77061656D-03 -0.15116311D-02 -0.69012275D-04  0.65238536D-03  0.12183574D-02
  0.21134295D-02  0.34268529D-02  0.52760301D-02  0.75142520D-02  0.96623526D-02
  0.10142595D-01  0.71715334D-02 -0.15881661D-03 -0.51528394D-02 -0.28372932D-02
  0.11998865D-04 -0.28434973D-03 -0.53063866D-03 -0.92165584D-03 -0.14928780D-02
 -0.23060596D-02 -0.32876344D-02 -0.42761385D-02 -0.45572109D-02 -0.33799886D-02
  0.10520649D-03  0.30620936D-02  0.29997948D-02 -0.14010821D-02  0.16977531D-02
  0.98660743D-03  0.17012935D-03 -0.75328955D-03 -0.98827486D-03 -0.10839869D-02
 -0.89192159D-03 -0.47023870D-03 -0.12233389D-03  0.13537492D-06  0.29297702D-02
  0.38436990D-02  0.42159519D-02  0.34689520D-02  0.18289001D-02  0.47579337D-03
 -0.52651387D-06 -0.72475591D-17 -0.95084028D-17 -0.10429269D-16 -0.85813675D-17
 -0.45242667D-17 -0.11770003D-17  0.13024709D-20  0.58198218D-03  0.76414615D-03
  0.85971594D-03  0.72437568D-03  0.40520560D-03  0.10085485D-03 -0.46256893D-04
 -0.23872499D-02 -0.31344737D-02 -0.35264942D-02 -0.29713380D-02 -0.16621248D-02
 -0.41369948D-03  0.18974252D-03  0.64118630D-17  0.84188151D-17  0.94717347D-17
  0.79806526D-17  0.44642652D-17  0.11111465D-17 -0.50962533D-18 -0.35775204D-05
 -0.10454799D-03  0.22320572D-18  0.16053206D-03 -0.36084134D-03 -0.23090745D-18
  0.24849073D-05 -0.94486183D-05 -0.32101817D-19 -0.31097954D-05  0.25833645D-04
 -0.22723850D-04 -0.70636457D-04 -0.15967633D-18  0.65392632D-18  0.23893111D-04
 -0.10936148D-03  0.85468368D-04  0.20393429D-03  0.71132833D-19 -0.24068898D-18
 -0.81699880D-05  0.29976047D-04 -0.21806059D-04 -0.43656681D-04 -0.24171155D-19
  0.72748734D-19  0.89637245D-05  0.21185240D-04 -0.11663488D-18 -0.59151707D-04
  0.21018554D-07  0.19033683D-18  0.32260533D-04 -0.63576738D-04  0.15956781D-18
 -0.24022536D-18 -0.43199851D-05 -0.73887394D-05  0.42357589D-19  0.24294446D-04
 -0.37198928D-05  0.11284698D-19 -0.11334491D-04  0.25886111D-04 -0.13835747D-18
  0.15614445D-18  0.41366785D+00  0.77332801D+00  0.13365522D+01  0.21618133D+01
  0.32674542D+01  0.44998206D+01  0.52592470D+01  0.45443862D+01  0.21195179D+01
  0.28778474D+00  0.77061663D-03  0.15116313D-02  0.69012282D-04 -0.65238542D-03
 -0.12183576D-02 -0.21134297D-02 -0.34268532D-02 -0.52760306D-02 -0.75142527D-02
 -0.96623535D-02 -0.10142596D-01 -0.71715341D-02  0.15881663D-03  0.51528399D-02
  0.28372935D-02 -0.11998866D-04  0.28434976D-03  0.53063871D-03  0.92165593D-03
  0.14928781D-02  0.23060598D-02  0.32876347D-02  0.42761389D-02  0.45572114D-02
  0.33799889D-02 -0.10520650D-03 -0.30620939D-02 -0.29997951D-02  0.14010822D-02
 -0.16977533D-02 -0.98660746D-03 -0.17012935D-03  0.75328996D-03  0.98827540D-03
  0.10839875D-02  0.89192208D-03  0.47023896D-03  0.12233395D-03 -0.13537499D-06
  0.29297708D-02  0.38436997D-02  0.42159527D-02  0.34689527D-02  0.18289005D-02
  0.47579346D-03 -0.52651398D-06  0.23996972D-16  0.31482720D-16  0.34531746D-16
  0.28413268D-16  0.14980037D-16  0.38970975D-17 -0.43125357D-20 -0.58198254D-03
 -0.76414661D-03 -0.85971647D-03 -0.72437612D-03 -0.40520585D-03 -0.10085491D-03
  0.46256921D-04 -0.23872504D-02 -0.31344743D-02 -0.35264949D-02 -0.29713386D-02
 -0.16621252D-02 -0.41369957D-03  0.18974256D-03 -0.17408040D-16 -0.22856863D-16
 -0.25715512D-16 -0.21667263D-16 -0.12120363D-16 -0.30167337D-17  0.13836194D-17
  0.35775076D-05 -0.10454800D-03 -0.17297840D-17 -0.16053207D-03 -0.36084135D-03
  0.28431658D-18 -0.24849076D-05 -0.94486184D-05 -0.11038563D-19  0.31097943D-05
 -0.25833644D-04  0.22723850D-04 -0.70636452D-04  0.10663196D-17  0.13176349D-17
 -0.23893113D-04  0.10936149D-03 -0.85468379D-04  0.20393432D-03 -0.47038187D-18
 -0.87623369D-18  0.81699880D-05 -0.29976048D-04  0.21806060D-04 -0.43656685D-04
  0.66266397D-20  0.71616145D-19 -0.89637286D-05  0.21185241D-04 -0.25440903D-18
  0.59151723D-04  0.21021396D-07  0.91227030D-18 -0.32260537D-04 -0.63576744D-04
 -0.14904322D-18  0.94863171D-18  0.43199854D-05 -0.73887398D-05 -0.23101994D-20
 -0.24294448D-04 -0.37198936D-05 -0.17958704D-18  0.11334492D-04  0.25886113D-04
  0.18651764D-18  0.19716861D-18  0.30067297D-08  0.56209064D-08  0.97146812D-08
  0.15713061D-07  0.23749371D-07  0.32706781D-07  0.38226645D-07  0.33030705D-07
  0.15405638D-07  0.20917529D-08  0.56011988D-11  0.10987237D-10  0.50161325D-12
 -0.39968934D-11 -0.74643686D-11 -0.12948102D-10 -0.20994900D-10 -0.32324039D-10
 -0.46036692D-10 -0.59197210D-10 -0.62139455D-10 -0.43936998D-10  0.97300322D-12
  0.31569301D-10  0.17382914D-10 -0.73512048D-13  0.17572258D-11  0.32792433D-11
  0.56956531D-11  0.92256943D-11  0.14250998D-10  0.20316938D-10  0.26425700D-10
  0.28162673D-10  0.20887669D-10 -0.65015557D-12 -0.18923140D-10 -0.18538146D-10
  0.86584136D-11 -0.10957169D-10  0.26892576D-10  0.59564752D-11 -0.22989600D-09
 -0.30161103D-09 -0.33082133D-09 -0.27220503D-09 -0.14351188D-09 -0.37335007D-10
  0.41314992D-13  0.16256269D-02  0.21327340D-02  0.23392841D-02  0.19248000D-02
  0.10147927D-02  0.26400108D-03 -0.29214411D-06 -0.31412964D-17 -0.41212098D-17
 -0.45203390D-17 -0.37194066D-17 -0.19609447D-17 -0.51014513D-18  0.56452759D-21
  0.20783320D-09  0.27288625D-09  0.30701543D-09  0.25868372D-09  0.14470404D-09
  0.36016542D-10 -0.16518921D-10 -0.13797942D-02 -0.18116781D-02 -0.20382601D-02
 -0.17173882D-02 -0.96068289D-03 -0.23911202D-03  0.10966829D-03  0.18423882D-17
  0.24190670D-17  0.27216135D-17  0.22931651D-17  0.12827644D-17  0.31927745D-18
 -0.14643602D-18  0.50176784D-11 -0.11076884D-03  0.97561770D-19 -0.86026280D-11
 -0.82772837D-04  0.14152817D-18 -0.25162745D-12 -0.51449433D-05  0.17801562D-20
  0.33126081D-11 -0.24779175D-11 -0.83469066D-12 -0.20535535D-04  0.28330048D-21
 -0.94163165D-19  0.37739258D-11 -0.17545856D-11 -0.20193401D-11 -0.26879510D-04
  0.14205759D-18  0.36992471D-18  0.38347018D-12 -0.24938723D-13 -0.35853146D-12
  0.22411080D-04 -0.49519293D-19 -0.10677228D-19 -0.19553183D-11 -0.86607528D-05
  0.31006952D-19  0.52726762D-11  0.33683189D-04 -0.13732660D-18  0.59327859D-12
 -0.77009305D-05  0.44305748D-19 -0.13437720D-18  0.72509516D-13  0.26958105D-06
 -0.10105366D-19 -0.10419921D-12 -0.70632510D-05  0.45866135D-19 -0.11332934D-12
  0.62545079D-05 -0.15550037D-19  0.55665203D-19
MO    3     MO 0.0        OCC NO =    2.0000000  ORB. ENERGY =  -88.676187
  0.11863474D-03  0.22116213D-03  0.37380296D-03  0.56194829D-03  0.69041841D-03
  0.58316872D-03  0.21994978D-03 -0.10885438D-05 -0.91605152D-04 -0.17151375D-03
 -0.29201683D-03 -0.45170563D-03 -0.59488043D-03 -0.61811887D-03 -0.39278679D-03
  0.26323657D-03  0.31583239D-03 -0.25763468D-03 -0.10768526D-03 -0.83350595D-04
 -0.78146481D-04 -0.55644950D-04  0.83958633D-11  0.78716555D-11  0.56050877D-11
  0.49521234D-16  0.46429305D-16  0.33060431D-16  0.14370676D-05 -0.12488531D-12
 -0.14920286D-16 -0.21559307D-03  0.21927267D-10  0.43339438D-19  0.24559436D-05
 -0.22230831D-12  0.21098276D-20  0.88279854D-04  0.12708488D-03 -0.21536474D-03
 -0.38927402D-11  0.11994665D-18 -0.32844509D-18 -0.87741947D-04 -0.14627091D-03
  0.23401285D-03  0.58633296D-11 -0.66994343D-19  0.22038141D-18 -0.29906875D-04
  0.50444161D-05  0.24862459D-04 -0.35662450D-11  0.22532306D-19 -0.40282793D-19
 -0.19171659D-04 -0.85103419D-12  0.40247604D-19  0.91207994D-04 -0.84170808D-12
 -0.48098901D-19 -0.33693017D-04  0.33948107D-11 -0.72643910D-19  0.18552737D-18
 -0.72253918D-04 -0.41089772D-12 -0.24060387D-19  0.23316894D-03 -0.41667745D-12
  0.98401475D-20 -0.16407187D-04  0.16493706D-11  0.62341014D-19 -0.18196248D-18
  0.41146360D+00  0.76920728D+00  0.13294303D+01  0.21502939D+01  0.32500434D+01
  0.44758430D+01  0.52312228D+01  0.45201711D+01  0.21082239D+01  0.28625126D+00
  0.76651036D-03  0.15035765D-02  0.68644546D-04 -0.63400575D-03 -0.11840327D-02
 -0.20538880D-02 -0.33303084D-02 -0.51273889D-02 -0.73025535D-02 -0.93901359D-02
 -0.98568484D-02 -0.69694903D-02  0.15434228D-03  0.50076689D-02  0.27573584D-02
 -0.11660822D-04  0.27665738D-03  0.51628360D-03  0.89672282D-03  0.14524920D-02
  0.22436751D-02  0.31986959D-02  0.41604585D-02  0.44339273D-02  0.32885517D-02
 -0.10236040D-03 -0.29792565D-02 -0.29186431D-02  0.13631794D-02 -0.16609288D-02
 -0.29408734D-03 -0.23940452D-04  0.41540760D-02  0.54499215D-02  0.59777332D-02
  0.49185736D-02  0.25931693D-02  0.67462009D-03 -0.74653590D-06 -0.58158381D-02
 -0.76300628D-02 -0.83690160D-02 -0.68861590D-02 -0.36305192D-02 -0.94448950D-03
  0.10451739D-05 -0.76703249D-17 -0.10063049D-16 -0.11037630D-16 -0.90819373D-17
 -0.47881769D-17 -0.12456573D-17  0.13784468D-20 -0.36054821D-02 -0.47340199D-02
 -0.53260916D-02 -0.44876349D-02 -0.25103200D-02 -0.62481354D-03  0.28656960D-03
  0.50742412D-02  0.66625096D-02  0.74957725D-02  0.63157551D-02  0.35329448D-02
  0.87934278D-03 -0.40330897D-03  0.62205078D-17  0.81675646D-17  0.91890609D-17
  0.77424786D-17  0.43310340D-17  0.10779855D-17 -0.49441611D-18 -0.12900198D-03
  0.12941466D-03  0.75758579D-18 -0.11013067D-03  0.12056531D-03  0.83947628D-19