 Molden2AIM, Version 4.0.0 (06/02/2016)           Time: Fri Jun 29 19:06:03 2018
GAUSSIAN             16 MOL ORBITALS    300 PRIMITIVES        4 NUCLEI
  O    1    (CENTRE  1)   0.00000000  0.00000000 -0.01225865  CHARGE =  8.0
  C    2    (CENTRE  2)   0.00000000  0.00000000  2.20828293  CHARGE =  6.0
  F    3    (CENTRE  3)   2.01030010  0.00000000  3.67931188  CHARGE =  9.0
  F    4    (CENTRE  4)  -2.01030010  0.00000000  3.67931188  CHARGE =  9.0
CENTRE ASSIGNMENTS    1  1  1  1  1  1  1  1  1  1  1  1  1  1  1  1  1  1  1  1
CENTRE ASSIGNMENTS    1  1  1  1  1  1  1  1  1  1  1  1  1  1  1  1  1  1  1  1
CENTRE ASSIGNMENTS    1  1  1  1  1  1  1  1  1  1  1  1  1  1  1  1  1  1  1  1
CENTRE ASSIGNMENTS    1  1  1  1  1  1  1  1  1  1  1  1  1  1  1  2  2  2  2  2
CENTRE ASSIGNMENTS    2  2  2  2  2  2  2  2  2  2  2  2  2  2  2  2  2  2  2  2
CENTRE ASSIGNMENTS    2  2  2  2  2  2  2  2  2  2  2  2  2  2  2  2  2  2  2  2
CENTRE ASSIGNMENTS    2  2  2  2  2  2  2  2  2  2  2  2  2  2  2  2  2  2  2  2
CENTRE ASSIGNMENTS    2  2  2  2  2  2  2  2  2  2  3  3  3  3  3  3  3  3  3  3
CENTRE ASSIGNMENTS    3  3  3  3  3  3  3  3  3  3  3  3  3  3  3  3  3  3  3  3
CENTRE ASSIGNMENTS    3  3  3  3  3  3  3  3  3  3  3  3  3  3  3  3  3  3  3  3
CENTRE ASSIGNMENTS    3  3  3  3  3  3  3  3  3  3  3  3  3  3  3  3  3  3  3  3
CENTRE ASSIGNMENTS    3  3  3  3  3  4  4  4  4  4  4  4  4  4  4  4  4  4  4  4
CENTRE ASSIGNMENTS    4  4  4  4  4  4  4  4  4  4  4  4  4  4  4  4  4  4  4  4
CENTRE ASSIGNMENTS    4  4  4  4  4  4  4  4  4  4  4  4  4  4  4  4  4  4  4  4
CENTRE ASSIGNMENTS    4  4  4  4  4  4  4  4  4  4  4  4  4  4  4  4  4  4  4  4
TYPE ASSIGNMENTS      1  1  1  1  1  1  1  1  1  1  1  1  1  1  1  1  1  1  1  2
TYPE ASSIGNMENTS      2  2  3  3  3  4  4  4  2  3  4  2  3  4  2  3  4  5  6  7
TYPE ASSIGNMENTS      8  9 10  5  6  7  8  9 10  5  6  7  8  9 10 11 12 13 17 14
TYPE ASSIGNMENTS     15 18 19 16 20 11 12 13 17 14 15 18 19 16 20  1  1  1  1  1
TYPE ASSIGNMENTS      1  1  1  1  1  1  1  1  1  1  1  1  1  1  2  2  2  3  3  3
TYPE ASSIGNMENTS      4  4  4  2  3  4  2  3  4  2  3  4  5  6  7  8  9 10  5  6
TYPE ASSIGNMENTS      7  8  9 10  5  6  7  8  9 10 11 12 13 17 14 15 18 19 16 20
TYPE ASSIGNMENTS     11 12 13 17 14 15 18 19 16 20  1  1  1  1  1  1  1  1  1  1
TYPE ASSIGNMENTS      1  1  1  1  1  1  1  1  1  2  2  2  3  3  3  4  4  4  2  3
TYPE ASSIGNMENTS      4  2  3  4  2  3  4  5  6  7  8  9 10  5  6  7  8  9 10  5
TYPE ASSIGNMENTS      6  7  8  9 10 11 12 13 17 14 15 18 19 16 20 11 12 13 17 14
TYPE ASSIGNMENTS     15 18 19 16 20  1  1  1  1  1  1  1  1  1  1  1  1  1  1  1
TYPE ASSIGNMENTS      1  1  1  1  2  2  2  3  3  3  4  4  4  2  3  4  2  3  4  2
TYPE ASSIGNMENTS      3  4  5  6  7  8  9 10  5  6  7  8  9 10  5  6  7  8  9 10
TYPE ASSIGNMENTS     11 12 13 17 14 15 18 19 16 20 11 12 13 17 14 15 18 19 16 20
EXPONENTS  0.1533000D+05 0.2299000D+04 0.5224000D+03 0.1473000D+03 0.4755000D+02
EXPONENTS  0.1676000D+02 0.6207000D+01 0.6882000D+00 0.1533000D+05 0.2299000D+04
EXPONENTS  0.5224000D+03 0.1473000D+03 0.4755000D+02 0.1676000D+02 0.6207000D+01
EXPONENTS  0.6882000D+00 0.1752000D+01 0.2384000D+00 0.7376000D-01 0.3446000D+02
EXPONENTS  0.7749000D+01 0.2280000D+01 0.3446000D+02 0.7749000D+01 0.2280000D+01
EXPONENTS  0.3446000D+02 0.7749000D+01 0.2280000D+01 0.7156000D+00 0.7156000D+00
EXPONENTS  0.7156000D+00 0.2140000D+00 0.2140000D+00 0.2140000D+00 0.5974000D-01
EXPONENTS  0.5974000D-01 0.5974000D-01 0.2314000D+01 0.2314000D+01 0.2314000D+01
EXPONENTS  0.2314000D+01 0.2314000D+01 0.2314000D+01 0.6450000D+00 0.6450000D+00
EXPONENTS  0.6450000D+00 0.6450000D+00 0.6450000D+00 0.6450000D+00 0.2140000D+00
EXPONENTS  0.2140000D+00 0.2140000D+00 0.2140000D+00 0.2140000D+00 0.2140000D+00
EXPONENTS  0.1428000D+01 0.1428000D+01 0.1428000D+01 0.1428000D+01 0.1428000D+01
EXPONENTS  0.1428000D+01 0.1428000D+01 0.1428000D+01 0.1428000D+01 0.1428000D+01
EXPONENTS  0.5000000D+00 0.5000000D+00 0.5000000D+00 0.5000000D+00 0.5000000D+00
EXPONENTS  0.5000000D+00 0.5000000D+00 0.5000000D+00 0.5000000D+00 0.5000000D+00
EXPONENTS  0.8236000D+04 0.1235000D+04 0.2808000D+03 0.7927000D+02 0.2559000D+02
EXPONENTS  0.8997000D+01 0.3319000D+01 0.3643000D+00 0.8236000D+04 0.1235000D+04
EXPONENTS  0.2808000D+03 0.7927000D+02 0.2559000D+02 0.8997000D+01 0.3319000D+01
EXPONENTS  0.3643000D+00 0.9059000D+00 0.1285000D+00 0.4402000D-01 0.1871000D+02
EXPONENTS  0.4133000D+01 0.1200000D+01 0.1871000D+02 0.4133000D+01 0.1200000D+01
EXPONENTS  0.1871000D+02 0.4133000D+01 0.1200000D+01 0.3827000D+00 0.3827000D+00
EXPONENTS  0.3827000D+00 0.1209000D+00 0.1209000D+00 0.1209000D+00 0.3569000D-01
EXPONENTS  0.3569000D-01 0.3569000D-01 0.1097000D+01 0.1097000D+01 0.1097000D+01
EXPONENTS  0.1097000D+01 0.1097000D+01 0.1097000D+01 0.3180000D+00 0.3180000D+00
EXPONENTS  0.3180000D+00 0.3180000D+00 0.3180000D+00 0.3180000D+00 0.1000000D+00
EXPONENTS  0.1000000D+00 0.1000000D+00 0.1000000D+00 0.1000000D+00 0.1000000D+00
EXPONENTS  0.7610000D+00 0.7610000D+00 0.7610000D+00 0.7610000D+00 0.7610000D+00
EXPONENTS  0.7610000D+00 0.7610000D+00 0.7610000D+00 0.7610000D+00 0.7610000D+00
EXPONENTS  0.2680000D+00 0.2680000D+00 0.2680000D+00 0.2680000D+00 0.2680000D+00
EXPONENTS  0.2680000D+00 0.2680000D+00 0.2680000D+00 0.2680000D+00 0.2680000D+00
EXPONENTS  0.1950000D+05 0.2923000D+04 0.6645000D+03 0.1875000D+03 0.6062000D+02
EXPONENTS  0.2142000D+02 0.7950000D+01 0.8815000D+00 0.1950000D+05 0.2923000D+04
EXPONENTS  0.6645000D+03 0.1875000D+03 0.6062000D+02 0.2142000D+02 0.7950000D+01
EXPONENTS  0.8815000D+00 0.2257000D+01 0.3041000D+00 0.9158000D-01 0.4388000D+02
EXPONENTS  0.9926000D+01 0.2930000D+01 0.4388000D+02 0.9926000D+01 0.2930000D+01
EXPONENTS  0.4388000D+02 0.9926000D+01 0.2930000D+01 0.9132000D+00 0.9132000D+00
EXPONENTS  0.9132000D+00 0.2672000D+00 0.2672000D+00 0.2672000D+00 0.7361000D-01
EXPONENTS  0.7361000D-01 0.7361000D-01 0.3107000D+01 0.3107000D+01 0.3107000D+01
EXPONENTS  0.3107000D+01 0.3107000D+01 0.3107000D+01 0.8550000D+00 0.8550000D+00
EXPONENTS  0.8550000D+00 0.8550000D+00 0.8550000D+00 0.8550000D+00 0.2920000D+00
EXPONENTS  0.2920000D+00 0.2920000D+00 0.2920000D+00 0.2920000D+00 0.2920000D+00
EXPONENTS  0.1917000D+01 0.1917000D+01 0.1917000D+01 0.1917000D+01 0.1917000D+01
EXPONENTS  0.1917000D+01 0.1917000D+01 0.1917000D+01 0.1917000D+01 0.1917000D+01
EXPONENTS  0.7240000D+00 0.7240000D+00 0.7240000D+00 0.7240000D+00 0.7240000D+00
EXPONENTS  0.7240000D+00 0.7240000D+00 0.7240000D+00 0.7240000D+00 0.7240000D+00
EXPONENTS  0.1950000D+05 0.2923000D+04 0.6645000D+03 0.1875000D+03 0.6062000D+02
EXPONENTS  0.2142000D+02 0.7950000D+01 0.8815000D+00 0.1950000D+05 0.2923000D+04
EXPONENTS  0.6645000D+03 0.1875000D+03 0.6062000D+02 0.2142000D+02 0.7950000D+01
EXPONENTS  0.8815000D+00 0.2257000D+01 0.3041000D+00 0.9158000D-01 0.4388000D+02
EXPONENTS  0.9926000D+01 0.2930000D+01 0.4388000D+02 0.9926000D+01 0.2930000D+01
EXPONENTS  0.4388000D+02 0.9926000D+01 0.2930000D+01 0.9132000D+00 0.9132000D+00
EXPONENTS  0.9132000D+00 0.2672000D+00 0.2672000D+00 0.2672000D+00 0.7361000D-01
EXPONENTS  0.7361000D-01 0.7361000D-01 0.3107000D+01 0.3107000D+01 0.3107000D+01
EXPONENTS  0.3107000D+01 0.3107000D+01 0.3107000D+01 0.8550000D+00 0.8550000D+00
EXPONENTS  0.8550000D+00 0.8550000D+00 0.8550000D+00 0.8550000D+00 0.2920000D+00
EXPONENTS  0.2920000D+00 0.2920000D+00 0.2920000D+00 0.2920000D+00 0.2920000D+00
EXPONENTS  0.1917000D+01 0.1917000D+01 0.1917000D+01 0.1917000D+01 0.1917000D+01
EXPONENTS  0.1917000D+01 0.1917000D+01 0.1917000D+01 0.1917000D+01 0.1917000D+01
EXPONENTS  0.7240000D+00 0.7240000D+00 0.7240000D+00 0.7240000D+00 0.7240000D+00
EXPONENTS  0.7240000D+00 0.7240000D+00 0.7240000D+00 0.7240000D+00 0.7240000D+00
MO    1     MO 0.0        OCC NO =    2.0000000  ORB. ENERGY =  -24.858771
  0.23680030D-14  0.44136529D-14  0.74840929D-14  0.11327523D-13  0.14133442D-13
  0.12138741D-13  0.46602989D-14 -0.20845803D-16 -0.17725458D-14 -0.33244536D-14
 -0.56674646D-14 -0.88571439D-14 -0.11843689D-13 -0.12646299D-13 -0.77316990D-14
  0.51009054D-14  0.29140237D-14  0.69925222D-13  0.53172891D-13 -0.40704117D-04
 -0.39469301D-04 -0.26625757D-04  0.12360006D-15  0.11985048D-15  0.80850429D-16
 -0.22946130D-13 -0.22250028D-13 -0.15009737D-13  0.31767176D-04 -0.19490406D-15
  0.28263946D-13  0.53760249D-04  0.21921730D-17 -0.25689838D-13 -0.12326147D-04
  0.12070033D-17  0.63375132D-14 -0.26039857D-13  0.11933697D-13  0.14106160D-13
 -0.92650717D-16  0.31446512D-03  0.24122046D-15  0.11269524D-13 -0.57838053D-14
 -0.54857191D-14  0.25784329D-16 -0.26009481D-03 -0.14443872D-17  0.18775452D-14
  0.67159205D-14 -0.85934657D-14  0.31204552D-18  0.29429876D-04  0.56482261D-18
 -0.13422744D-04  0.28941789D-17  0.28961476D-14 -0.60254011D-04  0.38798054D-17
  0.62688815D-14  0.10052224D-03 -0.12562342D-16 -0.14957324D-13 -0.16802261D-17
  0.28898641D-04 -0.11935673D-18 -0.33060102D-14  0.76012937D-04 -0.35974254D-18
  0.33776334D-14 -0.16270886D-03  0.71781271D-18  0.65403971D-14  0.37736672D-18
  0.61643489D-14  0.11491748D-13  0.19423079D-13  0.29199249D-13  0.35874651D-13
  0.30301878D-13  0.11428754D-13 -0.56561539D-16 -0.43275301D-14 -0.81025018D-14
 -0.13795203D-13 -0.21339081D-13 -0.28102819D-13 -0.29200629D-13 -0.18555689D-13
  0.12435591D-13 -0.38210255D-14  0.82982319D-13  0.62353978D-14 -0.48056937D-03
 -0.45056433D-03 -0.32082864D-03  0.28632886D-17  0.26845151D-17  0.19115347D-17
 -0.20916331D-13 -0.19610390D-13 -0.13963766D-13  0.19463040D-02 -0.21665289D-17
  0.39950896D-14  0.86738235D-04  0.81164297D-20  0.79508058D-13  0.79568829D-05
 -0.93598975D-19 -0.51559287D-15 -0.32684204D-14 -0.15609503D-14  0.48293708D-14
 -0.28859756D-17  0.20181037D-02 -0.13863235D-17  0.15085463D-13 -0.82747470D-14
 -0.68107157D-14  0.14309905D-17  0.76760463D-03 -0.30222594D-18  0.78180152D-14
 -0.14095063D-14 -0.64085089D-14  0.60453174D-19 -0.23870873D-04 -0.14109610D-18
  0.34301024D-04  0.38564833D-18 -0.39730129D-14 -0.80153730D-03 -0.10902756D-17
  0.14209977D-13  0.69863423D-03 -0.66669340D-19 -0.22909383D-14  0.10724715D-17
  0.16144819D-04 -0.58650261D-19  0.31244676D-14 -0.11729441D-04  0.21983642D-18
  0.20438768D-14 -0.36705016D-04 -0.43885638D-19 -0.11417280D-13  0.56997723D-18
  0.41978714D+00  0.78250141D+00  0.13265323D+01  0.20087608D+01  0.25119624D+01
  0.21625657D+01  0.83136919D+00 -0.36024588D-02  0.51269743D-03  0.96275497D-03
  0.16394057D-02  0.25681193D-02  0.34415820D-02  0.37018854D-02  0.22226072D-02
 -0.14616800D-02  0.45885322D-01 -0.21065624D-03 -0.23838845D-03 -0.50130175D-02
 -0.49026217D-02 -0.32393694D-02  0.11825904D-16  0.11565475D-16  0.76417986D-17
 -0.35175722D-02 -0.34401088D-02 -0.22730253D-02  0.10832207D-02  0.24185242D-18
  0.73068066D-03  0.47961669D-03 -0.60358460D-18  0.42908526D-03  0.15819515D-04
  0.47535139D-19  0.15345803D-04  0.74443217D-03 -0.77835286D-03  0.33920693D-04
  0.72179386D-18  0.27691367D-02  0.91233815D-17 -0.34240146D-03  0.34691422D-03
 -0.45127614D-05 -0.85377949D-18 -0.11099821D-02 -0.35187984D-17 -0.45395481D-04
  0.71136462D-04 -0.25740981D-04 -0.11276369D-18 -0.22078600D-03  0.10857267D-17
  0.23350185D-03  0.17571166D-17  0.47768886D-04 -0.23646436D-03 -0.53613316D-17
 -0.24404229D-03 -0.46404119D-03  0.89981710D-19  0.10073563D-03 -0.92930048D-17
 -0.40067293D-04 -0.55029246D-18 -0.85531213D-04 -0.16603872D-03  0.20558381D-17
  0.45800245D-03  0.28624061D-03 -0.40496069D-18 -0.20140881D-03  0.26107484D-17
 -0.41978714D+00 -0.78250141D+00 -0.13265323D+01 -0.20087608D+01 -0.25119624D+01
 -0.21625657D+01 -0.83136919D+00  0.36024588D-02 -0.51269743D-03 -0.96275497D-03
 -0.16394057D-02 -0.25681193D-02 -0.34415820D-02 -0.37018854D-02 -0.22226072D-02
  0.14616800D-02 -0.45885322D-01  0.21065624D-03  0.23838845D-03 -0.50130175D-02
 -0.49026217D-02 -0.32393694D-02  0.28568694D-17  0.27939559D-17  0.18460848D-17
  0.35175722D-02  0.34401088D-02  0.22730253D-02  0.10832207D-02 -0.90387176D-18
 -0.73068066D-03  0.47961669D-03  0.13686363D-17 -0.42908526D-03  0.15819515D-04
  0.13049447D-18 -0.15345803D-04 -0.74443217D-03  0.77835286D-03 -0.33920693D-04
  0.17776759D-17  0.27691367D-02 -0.17429733D-17  0.34240146D-03 -0.34691422D-03
  0.45127614D-05 -0.62698697D-18 -0.11099821D-02  0.48121136D-18  0.45395481D-04
 -0.71136462D-04  0.25740981D-04  0.12929408D-17 -0.22078600D-03 -0.43878814D-18
  0.23350185D-03  0.78809171D-18 -0.47768886D-04 -0.23646436D-03 -0.56550263D-17
  0.24404229D-03 -0.46404119D-03  0.32907511D-17 -0.10073563D-03  0.33862579D-17
 -0.40067293D-04 -0.77157521D-18  0.85531213D-04 -0.16603872D-03  0.33563170D-17
 -0.45800245D-03  0.28624061D-03 -0.10415914D-17  0.20140881D-03 -0.79261478D-18
MO    2     MO 0.0        OCC NO =    2.0000000  ORB. ENERGY =  -24.858761
 -0.16530564D-04 -0.30810844D-04 -0.52244983D-04 -0.79075215D-04 -0.98662781D-04
 -0.84738171D-04 -0.32532631D-04  0.14552046D-06  0.13375102D-04  0.25085336D-04
  0.42764999D-04  0.66833369D-04  0.89368948D-04  0.95425201D-04  0.58341097D-04
 -0.38489912D-04 -0.81758557D-04  0.31370758D-03  0.45371485D-04  0.11014972D-13
  0.10680818D-13  0.72052165D-14 -0.31605989D-15 -0.30647178D-15 -0.20674405D-15
 -0.33573048D-03 -0.32554564D-03 -0.21961116D-03 -0.14721062D-13  0.57994775D-17
  0.39749521D-03  0.31306866D-13  0.89690416D-18  0.36429239D-03 -0.56780953D-14
  0.11832742D-18  0.79906531D-05  0.62136314D-04  0.81161674D-05 -0.70252482D-04
 -0.30746761D-17 -0.24128399D-13 -0.47134526D-17 -0.64277171D-04 -0.11806481D-03
  0.18234198D-03  0.12749804D-17  0.53925135D-14  0.92001843D-18 -0.21613269D-04
 -0.45675585D-04  0.67288855D-04  0.36492674D-18  0.18505516D-13  0.63551647D-18
 -0.16447971D-14  0.13816196D-17 -0.88289460D-05  0.34957161D-13 -0.21905781D-18
  0.26006244D-03 -0.30022770D-13 -0.39258011D-17 -0.23357560D-03 -0.51724524D-17
  0.10287896D-15 -0.25728240D-18  0.17997447D-04 -0.14088679D-13  0.38530506D-18
 -0.13110486D-04  0.13780042D-13  0.38654215D-18 -0.40881855D-04  0.16839361D-17
  0.28598134D-03  0.53313424D-03  0.90109078D-03  0.13546346D-02  0.16643251D-02
  0.14057886D-02  0.53021175D-03 -0.26240475D-05 -0.20460335D-03 -0.38308202D-03
 -0.65222991D-03 -0.10089005D-02 -0.13286865D-02 -0.13805904D-02 -0.87730319D-03
  0.58794820D-03 -0.43728529D-03  0.40528041D-03  0.53575819D-04  0.28479941D-13
  0.26701755D-13  0.19013240D-13 -0.27856367D-17 -0.26117115D-17 -0.18596942D-17
 -0.37353860D-03 -0.35021618D-03 -0.24937478D-03 -0.36716528D-13 -0.13366702D-17
  0.16035997D-02 -0.12379316D-12 -0.15996619D-17  0.31090557D-04  0.32588425D-15
  0.45684933D-19  0.53465831D-05  0.76439211D-03 -0.63316316D-03 -0.13122894D-03
 -0.21555673D-17  0.42566097D-14 -0.24553684D-17  0.23776417D-03 -0.19214577D-03
 -0.45618402D-04 -0.81897406D-18 -0.17018038D-13  0.19199289D-17 -0.10096455D-04
 -0.32826204D-05  0.13379076D-04  0.10920137D-18 -0.18927291D-13  0.88901603D-19
 -0.61453309D-15 -0.66952545D-18 -0.57625027D-04 -0.44883875D-14  0.63660351D-18
  0.86673359D-03  0.63319868D-14  0.13719728D-17 -0.69385851D-03 -0.33849036D-17
 -0.47581720D-14  0.39752441D-18 -0.38354600D-04  0.16298438D-13 -0.43878271D-18
  0.11375216D-03 -0.20239223D-14 -0.75379052D-18  0.13116374D-05  0.13255413D-17
  0.41974979D+00  0.78243180D+00  0.13264143D+01  0.20085821D+01  0.25117390D+01
  0.21623733D+01  0.83129523D+00 -0.36021383D-02  0.53939183D-03  0.10128823D-02
  0.17247639D-02  0.27018325D-02  0.36207734D-02  0.38946299D-02  0.23383307D-02
 -0.15377846D-02  0.45872962D-01 -0.83394236D-04 -0.20790869D-03 -0.49017337D-02
 -0.47937885D-02 -0.31674588D-02  0.16320755D-16  0.15961342D-16  0.10546333D-16
 -0.34770915D-02 -0.34005195D-02 -0.22468670D-02  0.99932629D-03 -0.17619575D-17
  0.74514087D-03  0.33956871D-03  0.77687111D-18  0.29579762D-03  0.14712219D-04
 -0.50257148D-19  0.62771408D-06  0.10056724D-02 -0.84132956D-03 -0.16434286D-03
 -0.57556859D-19  0.23868919D-02 -0.27025301D-17 -0.39319985D-03  0.35093774D-03
  0.42262113D-04 -0.31169628D-18 -0.97220558D-03  0.67911369D-18 -0.31663726D-04
  0.37006556D-04 -0.53428301D-05 -0.10527116D-18 -0.14322279D-03 -0.15045661D-17
 -0.13028007D-03 -0.37148426D-17  0.85151857D-04  0.12550344D-03  0.94413018D-17
 -0.97716998D-04  0.26533676D-03  0.17032261D-17 -0.15773857D-03 -0.18917219D-16
  0.71790537D-04  0.42705044D-18 -0.90114826D-04 -0.25428753D-03 -0.21414735D-17
  0.36095816D-03  0.38915924D-04  0.86032218D-18 -0.90613682D-04  0.36147281D-17
  0.41974979D+00  0.78243180D+00  0.13264143D+01  0.20085821D+01  0.25117390D+01
  0.21623733D+01  0.83129523D+00 -0.36021383D-02  0.53939183D-03  0.10128823D-02
  0.17247639D-02  0.27018325D-02  0.36207734D-02  0.38946299D-02  0.23383307D-02
 -0.15377846D-02  0.45872962D-01 -0.83394236D-04 -0.20790869D-03  0.49017337D-02
  0.47937885D-02  0.31674588D-02 -0.44793363D-17 -0.43806930D-17 -0.28945091D-17
 -0.34770915D-02 -0.34005195D-02 -0.22468670D-02 -0.99932629D-03  0.24350890D-17
  0.74514087D-03 -0.33956871D-03  0.96566562D-18  0.29579762D-03 -0.14712219D-04
  0.22153979D-18  0.62771409D-06  0.10056724D-02 -0.84132956D-03 -0.16434286D-03
  0.70241284D-17 -0.23868919D-02 -0.62660755D-17 -0.39319985D-03  0.35093774D-03
  0.42262113D-04 -0.17982354D-17  0.97220558D-03  0.22319696D-17 -0.31663726D-04
  0.37006556D-04 -0.53428301D-05  0.53134815D-18  0.14322279D-03 -0.70173171D-18
  0.13028007D-03 -0.61446501D-17  0.85151857D-04 -0.12550344D-03  0.11963484D-16
 -0.97716998D-04 -0.26533676D-03  0.64704661D-17 -0.15773857D-03 -0.11312527D-16
 -0.71790537D-04  0.22098883D-17 -0.90114826D-04  0.25428753D-03 -0.50979624D-17
  0.36095816D-03 -0.38915924D-04 -0.15317024D-17 -0.90613682D-04  0.16309690D-17
MO    3     MO 0.0        OCC NO =    2.0000000  ORB. ENERGY =  -19.267041
  0.49706788D+00  0.92647057D+00  0.15709871D+01  0.23777622D+01  0.29667529D+01
  0.25480451D+01  0.97824406D+00 -0.43757457D-02  0.73693621D-04  0.13821421D-03
  0.23562493D-03  0.36823590D-03  0.49240157D-03  0.52577007D-03  0.32144551D-03
 -0.21207023D-03  0.54214913D-01  0.15521020D-02  0.14214554D-03 -0.26188838D-15
 -0.25394363D-15 -0.17130888D-15 -0.31335629D-16 -0.30385019D-16 -0.20497554D-16
  0.85985819D-02  0.83377320D-02  0.56245848D-02  0.22676740D-15  0.44357477D-17
  0.27274745D-03  0.37684310D-15  0.44749752D-18 -0.76544166D-03 -0.50835606D-16
  0.13971399D-19  0.10221950D-05 -0.16906037D-02 -0.17600450D-02  0.34506487D-02
  0.11601809D-16 -0.17344751D-16 -0.13164249D-17  0.23766660D-03  0.42471200D-03
 -0.66237860D-03 -0.98874409D-18  0.41703763D-16  0.26305286D-17  0.78716645D-04
  0.17015533D-03 -0.24887197D-03  0.24990677D-19  0.14041723D-15  0.25135472D-18
 -0.73238931D-17 -0.37786301D-18  0.35600541D-03  0.77918584D-16  0.12422043D-18
 -0.54850548D-03 -0.55946905D-16  0.10093686D-17 -0.51951076D-03 -0.43096044D-18
  0.82712914D-17 -0.93867130D-19 -0.23829127D-03 -0.78874953D-17 -0.30852278D-18
  0.21389692D-03 -0.16926379D-16  0.59012417D-18  0.50097689D-03 -0.10550522D-18
  0.31502752D-03  0.58728292D-03  0.99261159D-03  0.14922204D-02  0.18333651D-02
  0.15485699D-02  0.58406360D-03 -0.28905634D-05 -0.25826532D-03 -0.48355417D-03
 -0.82329234D-03 -0.12735081D-02 -0.16771653D-02 -0.17426822D-02 -0.11073963D-02
  0.74215126D-03  0.14327363D-02 -0.13537753D-02 -0.43625611D-04  0.63131325D-16
  0.59189630D-16  0.42146543D-16  0.45440138D-18  0.42603018D-18  0.30335887D-18
 -0.13166951D-02 -0.12344853D-02 -0.87902711D-03  0.11276882D-15 -0.95124044D-18
 -0.81543325D-03 -0.66079734D-15 -0.87720331D-19  0.41460312D-03  0.18179905D-16
 -0.50951810D-20 -0.80401104D-05 -0.18595460D-03 -0.17695089D-03  0.36290549D-03
  0.11142041D-18  0.16545198D-15  0.10568029D-17  0.48860892D-04  0.48031822D-03
 -0.52917911D-03  0.13770607D-20 -0.20500206D-15  0.13419549D-17  0.49343734D-04
  0.24904134D-04 -0.74247869D-04 -0.10404031D-19 -0.10716116D-15  0.21371839D-21
  0.19698402D-16  0.40724552D-18  0.87712692D-03 -0.99145316D-16  0.52977238D-18
 -0.19745774D-02  0.40050109D-16 -0.17515089D-17 -0.65680338D-03 -0.33919221D-18
  0.92009244D-16  0.25974992D-19  0.14470042D-03  0.66575051D-16  0.23535323D-18
 -0.37501984D-03 -0.34260278D-15 -0.31327821D-18 -0.59081420D-04 -0.79783191D-19
  0.16232986D-03  0.30258989D-03  0.51296426D-03  0.77677907D-03  0.97136495D-03
  0.83625474D-03  0.32148685D-03 -0.13930552D-05 -0.10553918D-03 -0.19818388D-03
 -0.33747297D-03 -0.52864941D-03 -0.70845241D-03 -0.76203608D-03 -0.45752546D-03
  0.30088799D-03 -0.19150909D-03  0.85087363D-03 -0.44445033D-05  0.43075334D-03
  0.42126736D-03  0.27834915D-03 -0.12401450D-18 -0.12128347D-18 -0.80137117D-19
  0.53409810D-03  0.52233627D-03  0.34512966D-03 -0.58076626D-03  0.30122207D-19
 -0.58832360D-03 -0.28291087D-03 -0.17453197D-18 -0.20242934D-03 -0.15887730D-04
  0.13967607D-19  0.38471303D-04  0.11279083D-03 -0.38192387D-03  0.26913303D-03
  0.10491141D-18 -0.32793497D-03 -0.40203345D-19  0.73768172D-04 -0.22772967D-04
 -0.50995205D-04 -0.63091292D-19  0.62517410D-03 -0.34629553D-19  0.12760846D-04
  0.20703704D-04 -0.33464550D-04 -0.29280895D-20  0.77568682D-04  0.25392975D-18
 -0.34772725D-04  0.53732433D-19 -0.32392776D-03  0.99585811D-03 -0.90658280D-18
  0.22375225D-03 -0.89153993D-03  0.74538550D-18  0.74803102D-03  0.16608147D-17
  0.75714392D-04 -0.33039723D-19  0.17597945D-03 -0.28904919D-03  0.42118494D-18
 -0.34648052D-03  0.61906018D-04 -0.32206577D-18 -0.18145784D-03 -0.50828716D-18
  0.16232986D-03  0.30258989D-03  0.51296426D-03  0.77677907D-03  0.97136495D-03
  0.83625474D-03  0.32148685D-03 -0.13930552D-05 -0.10553918D-03 -0.19818388D-03
 -0.33747297D-03 -0.52864941D-03 -0.70845241D-03 -0.76203608D-03 -0.45752546D-03
  0.30088799D-03 -0.19150909D-03  0.85087363D-03 -0.44445033D-05 -0.43075334D-03
 -0.42126736D-03 -0.27834915D-03  0.37975503D-19  0.37139212D-19  0.24539448D-19
  0.53409810D-03  0.52233627D-03  0.34512966D-03  0.58076626D-03 -0.29104416D-20
 -0.58832360D-03  0.28291087D-03 -0.28595183D-18 -0.20242934D-03  0.15887730D-04
  0.31728230D-20  0.38471303D-04  0.11279083D-03 -0.38192387D-03  0.26913303D-03
  0.13165074D-18  0.32793497D-03 -0.15787049D-18  0.73768172D-04 -0.22772967D-04
 -0.50995205D-04 -0.72908087D-19 -0.62517410D-03  0.39318029D-19  0.12760846D-04
  0.20703704D-04 -0.33464550D-04 -0.50298787D-19 -0.77568682D-04  0.25492041D-18
  0.34772725D-04  0.17298739D-18 -0.32392776D-03 -0.99585811D-03 -0.73665007D-18
  0.22375225D-03  0.89153993D-03  0.21768792D-18  0.74803102D-03 -0.15967581D-17
 -0.75714392D-04 -0.46988213D-19  0.17597945D-03  0.28904919D-03  0.30378137D-18
 -0.34648052D-03 -0.61906018D-04 -0.16281674D-18 -0.18145784D-03  0.58381507D-18
MO    4     MO 0.0        OCC NO =    2.0000000  ORB. ENERGY =  -10.492622
  0.10393660D-03  0.19372444D-03  0.32849247D-03  0.49718865D-03  0.62034627D-03
  0.53279471D-03  0.20455025D-03 -0.91496582D-06 -0.18901588D-03 -0.35450397D-03
 -0.60435155D-03 -0.94448384D-03 -0.12629549D-02 -0.13485413D-02 -0.82447173D-03
  0.54393637D-03  0.10233692D-02 -0.31287200D-02 -0.68693303D-03 -0.63396009D-14
 -0.61472803D-14 -0.41469190D-14  0.97081200D-15  0.94136108D-15  0.63503662D-15
  0.38695533D-02  0.37521650D-02  0.25311883D-02  0.80722553D-14  0.40305915D-16
 -0.43502020D-02  0.47405650D-14 -0.58294978D-17 -0.31964813D-02  0.25099513D-16
 -0.22035576D-18 -0.72842794D-04 -0.36328107D-03 -0.27242123D-03  0.63570230D-03
 -0.18608530D-17  0.29989754D-14  0.12434570D-16  0.16415871D-02  0.15886813D-02
 -0.32302683D-02  0.10746273D-17  0.11047335D-14 -0.70587238D-17  0.23600567D-03
  0.36897179D-03 -0.60497745D-03 -0.22236719D-19  0.84033146D-15 -0.20655741D-17
  0.13104018D-15  0.10571975D-17 -0.71533733D-03 -0.36515465D-14  0.31018770D-17
  0.14402956D-02  0.32584260D-14 -0.62734696D-17  0.70571639D-03 -0.87591033D-18
  0.21347503D-16  0.12548921D-17 -0.62555444D-03  0.18663090D-14  0.32243724D-18
  0.97651959D-03 -0.19303516D-14 -0.40871137D-17  0.90014372D-03  0.58842701D-18
  0.32924472D+00  0.61378702D+00  0.10374082D+01  0.15595643D+01  0.19161050D+01
  0.16184570D+01  0.61042242D+00 -0.30210146D-02 -0.26613656D-02 -0.49829161D-02
 -0.84838409D-02 -0.13123212D-01 -0.17282808D-01 -0.17957945D-01 -0.11411468D-01
  0.76477004D-02  0.34522641D-01  0.11702080D-02  0.14924901D-03 -0.31321486D-15
 -0.29365884D-15 -0.20910259D-15  0.49401085D-17  0.46316658D-17  0.32980219D-17
  0.27112794D-02  0.25419968D-02  0.18100532D-02  0.23137999D-14  0.68254417D-17
 -0.43926040D-02  0.23233310D-14  0.19137034D-17  0.18257765D-04 -0.10938808D-16
 -0.41448679D-19 -0.17620256D-04  0.43129137D-03 -0.54903268D-02  0.50590354D-02
  0.63930797D-18 -0.15509339D-15 -0.10646568D-16 -0.50768410D-03  0.38344486D-03
  0.12423924D-03  0.61577180D-18 -0.44167589D-14 -0.17463349D-17  0.42212708D-04
  0.42554077D-04 -0.84766785D-04  0.24796549D-18  0.37662509D-15 -0.28104023D-18
  0.75911899D-15 -0.41615161D-17 -0.18207638D-02 -0.31170652D-15 -0.38941343D-17
  0.42682167D-02 -0.19656504D-14  0.16378683D-16  0.11940746D-02 -0.71023689D-18
  0.30099219D-14 -0.28465508D-19  0.26109609D-03 -0.76027023D-15  0.10776523D-17
 -0.76215336D-03 -0.82694953D-14 -0.99225576D-18 -0.21134917D-04  0.86481591D-18
  0.38291742D-03  0.71377466D-03  0.12100235D-02  0.18323322D-02  0.22913379D-02
  0.19726285D-02  0.75835040D-03 -0.32860564D-05 -0.31382075D-03 -0.58929979D-03
 -0.10034759D-02 -0.15719391D-02 -0.21065833D-02 -0.22659144D-02 -0.13604520D-02
  0.89469048D-03  0.33099470D-03  0.49012428D-03 -0.29153165D-03 -0.14268275D-02
 -0.13954062D-02 -0.92200386D-03 -0.33659963D-18 -0.32918709D-18 -0.21750783D-18
 -0.12576608D-02 -0.12299648D-02 -0.81268971D-03 -0.12786720D-03 -0.27896751D-18
 -0.17316645D-04  0.54654556D-03 -0.24926261D-17  0.20105057D-03  0.16741360D-04
 -0.12228124D-18  0.75938618D-04  0.81119671D-03 -0.12918308D-02  0.48063413D-03
 -0.22791231D-17  0.50429339D-02  0.73861418D-17 -0.40793596D-03  0.74613601D-03
 -0.33820005D-03  0.41675728D-18 -0.27537624D-02 -0.26392208D-17 -0.22127601D-03
  0.20993239D-03  0.11343623D-04  0.80984546D-18 -0.36585819D-03  0.18312194D-17
  0.28724080D-04 -0.27281986D-17  0.22643439D-03  0.63681118D-03  0.52333888D-17
 -0.13559892D-02 -0.72298341D-03  0.29512070D-17  0.67668604D-03  0.52565859D-17
 -0.11700685D-03  0.61728566D-18 -0.42661513D-03 -0.11310922D-02 -0.11978081D-17
  0.23358819D-02  0.14821128D-02 -0.65404889D-18 -0.10560365D-02 -0.80097198D-18
  0.38291742D-03  0.71377466D-03  0.12100235D-02  0.18323322D-02  0.22913379D-02
  0.19726285D-02  0.75835040D-03 -0.32860564D-05 -0.31382075D-03 -0.58929979D-03
 -0.10034759D-02 -0.15719391D-02 -0.21065833D-02 -0.22659144D-02 -0.13604520D-02
  0.89469048D-03  0.33099470D-03  0.49012428D-03 -0.29153165D-03  0.14268275D-02
  0.13954062D-02  0.92200386D-03 -0.42100534D-17 -0.41173402D-17 -0.27205008D-17
 -0.12576608D-02 -0.12299648D-02 -0.81268971D-03  0.12786720D-03  0.31766202D-18
 -0.17316645D-04 -0.54654556D-03 -0.70721143D-18  0.20105057D-03 -0.16741360D-04
  0.28200769D-18  0.75938618D-04  0.81119671D-03 -0.12918308D-02  0.48063413D-03
 -0.23544219D-18 -0.50429339D-02 -0.43957674D-17 -0.40793596D-03  0.74613601D-03
 -0.33820005D-03  0.33489036D-18  0.27537624D-02  0.12818190D-17 -0.22127601D-03
  0.20993239D-03  0.11343623D-04 -0.91181375D-19  0.36585819D-03  0.80028428D-18
 -0.28724080D-04 -0.26707632D-17  0.22643439D-03 -0.63681118D-03 -0.78287161D-19
 -0.13559892D-02  0.72298341D-03  0.80905769D-17  0.67668604D-03 -0.46297007D-17
  0.11700685D-03  0.60787564D-18 -0.42661513D-03  0.11310922D-02  0.89667005D-18
  0.23358819D-02 -0.14821128D-02 -0.27202970D-17 -0.10560365D-02  0.90772913D-18
MO    5     MO 0.0        OCC NO =    2.0000000  ORB. ENERGY =   -1.380275
 -0.23038745D-02 -0.42941257D-02 -0.72814144D-02 -0.11020760D-01 -0.13750691D-01
 -0.11810009D-01 -0.45340922D-02  0.20281273D-04 -0.11830489D-01 -0.22188376D-01
 -0.37826317D-01 -0.59115171D-01 -0.79048247D-01 -0.84405099D-01 -0.51603622D-01
  0.34044936D-01  0.18402630D-01 -0.12836564D-02 -0.24952396D-02 -0.29242106D-14
 -0.28355007D-14 -0.19128120D-14 -0.31395181D-15 -0.30442765D-15 -0.20536509D-15
  0.95369890D-01  0.92476713D-01  0.62384244D-01  0.10337213D-13 -0.18653275D-15
  0.16688069D-01  0.79138474D-13  0.32259633D-16 -0.23478421D-02 -0.24234732D-13
  0.45579309D-17 -0.35123806D-03 -0.62791105D-02 -0.48723456D-02  0.11151456D-01
  0.10730572D-14 -0.15739670D-13 -0.36625411D-15  0.51545314D-03 -0.10100097D-02
  0.49455654D-03 -0.41566367D-18  0.14821822D-13 -0.11240304D-16  0.68468452D-03
 -0.21523026D-04 -0.66316149D-03 -0.51843778D-17  0.34083199D-13  0.51454976D-17
 -0.36197734D-14  0.71349441D-17  0.25096153D-02  0.24726602D-13  0.18153611D-16
 -0.27212059D-02 -0.13867282D-13 -0.39558444D-16 -0.48076401D-02  0.33274803D-17
  0.59287689D-15 -0.43760888D-18 -0.55342738D-03 -0.11876063D-13 -0.43981039D-17
  0.16922012D-02  0.10097433D-13  0.57109305D-17 -0.31919024D-04  0.47343168D-17
 -0.67471344D-02 -0.12578193D-01 -0.21259361D-01 -0.31959784D-01 -0.39266287D-01
 -0.33166657D-01 -0.12509243D-01  0.61908940D-04 -0.24573843D-01 -0.46009988D-01
 -0.78335941D-01 -0.12117379D+00 -0.15958162D+00 -0.16581552D+00 -0.10536832D+00
  0.70615399D-01  0.33097498D-01  0.69640779D-02  0.77967857D-04  0.49664184D-13
  0.46563329D-13  0.33155864D-13  0.53488168D-16  0.50148558D-16  0.35708761D-16
  0.92564229D-01  0.86784848D-01  0.61795982D-01 -0.56354346D-13  0.10340428D-16
  0.16108151D-01 -0.25341991D-12  0.22796485D-17 -0.17166882D-02  0.11389229D-13
 -0.38360058D-17  0.11525375D-04  0.12320642D-01 -0.22649153D-01  0.10328511D-01
  0.15792819D-16  0.24809324D-13  0.52548224D-16  0.22280044D-02 -0.39927370D-02
  0.17647326D-02 -0.10408176D-16 -0.63467570D-13  0.73666361D-17 -0.15129128D-03
  0.10757128D-03  0.43720000D-04  0.13269501D-17 -0.41401348D-13 -0.78536184D-18
  0.11276650D-14 -0.84116875D-17 -0.41157927D-02 -0.87433315D-15 -0.29790138D-17
  0.15942444D-01 -0.25086617D-14  0.28214076D-16 -0.35950658D-02  0.75911851D-17
  0.77631404D-14 -0.41968214D-18 -0.58826395D-03  0.22397452D-13  0.22146768D-17
  0.23443738D-02 -0.45686874D-13 -0.95563037D-18 -0.57958197D-03 -0.27473765D-17