 Molden2AIM, Version 4.0.0 (06/02/2016)           Time: Fri Jun 29 19:26:12 2018
GAUSSIAN             11 MOL ORBITALS    225 PRIMITIVES        3 NUCLEI
  C    1    (CENTRE  1)   0.00000000  0.00000000  0.00285538  CHARGE =  6.0
  F    2    (CENTRE  2)   0.00000000  0.00000000 -2.39115739  CHARGE =  9.0
  N    3    (CENTRE  3)   0.00000000  0.00000000  2.19366023  CHARGE =  7.0
CENTRE ASSIGNMENTS    1  1  1  1  1  1  1  1  1  1  1  1  1  1  1  1  1  1  1  1
CENTRE ASSIGNMENTS    1  1  1  1  1  1  1  1  1  1  1  1  1  1  1  1  1  1  1  1
CENTRE ASSIGNMENTS    1  1  1  1  1  1  1  1  1  1  1  1  1  1  1  1  1  1  1  1
CENTRE ASSIGNMENTS    1  1  1  1  1  1  1  1  1  1  1  1  1  1  1  2  2  2  2  2
CENTRE ASSIGNMENTS    2  2  2  2  2  2  2  2  2  2  2  2  2  2  2  2  2  2  2  2
CENTRE ASSIGNMENTS    2  2  2  2  2  2  2  2  2  2  2  2  2  2  2  2  2  2  2  2
CENTRE ASSIGNMENTS    2  2  2  2  2  2  2  2  2  2  2  2  2  2  2  2  2  2  2  2
CENTRE ASSIGNMENTS    2  2  2  2  2  2  2  2  2  2  3  3  3  3  3  3  3  3  3  3
CENTRE ASSIGNMENTS    3  3  3  3  3  3  3  3  3  3  3  3  3  3  3  3  3  3  3  3
CENTRE ASSIGNMENTS    3  3  3  3  3  3  3  3  3  3  3  3  3  3  3  3  3  3  3  3
CENTRE ASSIGNMENTS    3  3  3  3  3  3  3  3  3  3  3  3  3  3  3  3  3  3  3  3
CENTRE ASSIGNMENTS    3  3  3  3  3
TYPE ASSIGNMENTS      1  1  1  1  1  1  1  1  1  1  1  1  1  1  1  1  1  1  1  2
TYPE ASSIGNMENTS      2  2  3  3  3  4  4  4  2  3  4  2  3  4  2  3  4  5  6  7
TYPE ASSIGNMENTS      8  9 10  5  6  7  8  9 10  5  6  7  8  9 10 11 12 13 17 14
TYPE ASSIGNMENTS     15 18 19 16 20 11 12 13 17 14 15 18 19 16 20  1  1  1  1  1
TYPE ASSIGNMENTS      1  1  1  1  1  1  1  1  1  1  1  1  1  1  2  2  2  3  3  3
TYPE ASSIGNMENTS      4  4  4  2  3  4  2  3  4  2  3  4  5  6  7  8  9 10  5  6
TYPE ASSIGNMENTS      7  8  9 10  5  6  7  8  9 10 11 12 13 17 14 15 18 19 16 20
TYPE ASSIGNMENTS     11 12 13 17 14 15 18 19 16 20  1  1  1  1  1  1  1  1  1  1
TYPE ASSIGNMENTS      1  1  1  1  1  1  1  1  1  2  2  2  3  3  3  4  4  4  2  3
TYPE ASSIGNMENTS      4  2  3  4  2  3  4  5  6  7  8  9 10  5  6  7  8  9 10  5
TYPE ASSIGNMENTS      6  7  8  9 10 11 12 13 17 14 15 18 19 16 20 11 12 13 17 14
TYPE ASSIGNMENTS     15 18 19 16 20
EXPONENTS  0.8236000D+04 0.1235000D+04 0.2808000D+03 0.7927000D+02 0.2559000D+02
EXPONENTS  0.8997000D+01 0.3319000D+01 0.3643000D+00 0.8236000D+04 0.1235000D+04
EXPONENTS  0.2808000D+03 0.7927000D+02 0.2559000D+02 0.8997000D+01 0.3319000D+01
EXPONENTS  0.3643000D+00 0.9059000D+00 0.1285000D+00 0.4402000D-01 0.1871000D+02
EXPONENTS  0.4133000D+01 0.1200000D+01 0.1871000D+02 0.4133000D+01 0.1200000D+01
EXPONENTS  0.1871000D+02 0.4133000D+01 0.1200000D+01 0.3827000D+00 0.3827000D+00
EXPONENTS  0.3827000D+00 0.1209000D+00 0.1209000D+00 0.1209000D+00 0.3569000D-01
EXPONENTS  0.3569000D-01 0.3569000D-01 0.1097000D+01 0.1097000D+01 0.1097000D+01
EXPONENTS  0.1097000D+01 0.1097000D+01 0.1097000D+01 0.3180000D+00 0.3180000D+00
EXPONENTS  0.3180000D+00 0.3180000D+00 0.3180000D+00 0.3180000D+00 0.1000000D+00
EXPONENTS  0.1000000D+00 0.1000000D+00 0.1000000D+00 0.1000000D+00 0.1000000D+00
EXPONENTS  0.7610000D+00 0.7610000D+00 0.7610000D+00 0.7610000D+00 0.7610000D+00
EXPONENTS  0.7610000D+00 0.7610000D+00 0.7610000D+00 0.7610000D+00 0.7610000D+00
EXPONENTS  0.2680000D+00 0.2680000D+00 0.2680000D+00 0.2680000D+00 0.2680000D+00
EXPONENTS  0.2680000D+00 0.2680000D+00 0.2680000D+00 0.2680000D+00 0.2680000D+00
EXPONENTS  0.1950000D+05 0.2923000D+04 0.6645000D+03 0.1875000D+03 0.6062000D+02
EXPONENTS  0.2142000D+02 0.7950000D+01 0.8815000D+00 0.1950000D+05 0.2923000D+04
EXPONENTS  0.6645000D+03 0.1875000D+03 0.6062000D+02 0.2142000D+02 0.7950000D+01
EXPONENTS  0.8815000D+00 0.2257000D+01 0.3041000D+00 0.9158000D-01 0.4388000D+02
EXPONENTS  0.9926000D+01 0.2930000D+01 0.4388000D+02 0.9926000D+01 0.2930000D+01
EXPONENTS  0.4388000D+02 0.9926000D+01 0.2930000D+01 0.9132000D+00 0.9132000D+00
EXPONENTS  0.9132000D+00 0.2672000D+00 0.2672000D+00 0.2672000D+00 0.7361000D-01
EXPONENTS  0.7361000D-01 0.7361000D-01 0.3107000D+01 0.3107000D+01 0.3107000D+01
EXPONENTS  0.3107000D+01 0.3107000D+01 0.3107000D+01 0.8550000D+00 0.8550000D+00
EXPONENTS  0.8550000D+00 0.8550000D+00 0.8550000D+00 0.8550000D+00 0.2920000D+00
EXPONENTS  0.2920000D+00 0.2920000D+00 0.2920000D+00 0.2920000D+00 0.2920000D+00
EXPONENTS  0.1917000D+01 0.1917000D+01 0.1917000D+01 0.1917000D+01 0.1917000D+01
EXPONENTS  0.1917000D+01 0.1917000D+01 0.1917000D+01 0.1917000D+01 0.1917000D+01
EXPONENTS  0.7240000D+00 0.7240000D+00 0.7240000D+00 0.7240000D+00 0.7240000D+00
EXPONENTS  0.7240000D+00 0.7240000D+00 0.7240000D+00 0.7240000D+00 0.7240000D+00
EXPONENTS  0.1142000D+05 0.1712000D+04 0.3893000D+03 0.1100000D+03 0.3557000D+02
EXPONENTS  0.1254000D+02 0.4644000D+01 0.5118000D+00 0.1142000D+05 0.1712000D+04
EXPONENTS  0.3893000D+03 0.1100000D+03 0.3557000D+02 0.1254000D+02 0.4644000D+01
EXPONENTS  0.5118000D+00 0.1293000D+01 0.1787000D+00 0.5760000D-01 0.2663000D+02
EXPONENTS  0.5948000D+01 0.1742000D+01 0.2663000D+02 0.5948000D+01 0.1742000D+01
EXPONENTS  0.2663000D+02 0.5948000D+01 0.1742000D+01 0.5550000D+00 0.5550000D+00
EXPONENTS  0.5550000D+00 0.1725000D+00 0.1725000D+00 0.1725000D+00 0.4910000D-01
EXPONENTS  0.4910000D-01 0.4910000D-01 0.1654000D+01 0.1654000D+01 0.1654000D+01
EXPONENTS  0.1654000D+01 0.1654000D+01 0.1654000D+01 0.4690000D+00 0.4690000D+00
EXPONENTS  0.4690000D+00 0.4690000D+00 0.4690000D+00 0.4690000D+00 0.1510000D+00
EXPONENTS  0.1510000D+00 0.1510000D+00 0.1510000D+00 0.1510000D+00 0.1510000D+00
EXPONENTS  0.1093000D+01 0.1093000D+01 0.1093000D+01 0.1093000D+01 0.1093000D+01
EXPONENTS  0.1093000D+01 0.1093000D+01 0.1093000D+01 0.1093000D+01 0.1093000D+01
EXPONENTS  0.3640000D+00 0.3640000D+00 0.3640000D+00 0.3640000D+00 0.3640000D+00
EXPONENTS  0.3640000D+00 0.3640000D+00 0.3640000D+00 0.3640000D+00 0.3640000D+00
MO    1     MO 0.0        OCC NO =    2.0000000  ORB. ENERGY =  -24.910101
  0.33299162D-03  0.62077209D-03  0.10492142D-02  0.15773126D-02  0.19379108D-02
  0.16368755D-02  0.61736920D-03 -0.30553946D-05 -0.24538118D-03 -0.45943099D-03
 -0.78222057D-03 -0.12099763D-02 -0.15934962D-02 -0.16557446D-02 -0.10521514D-02
  0.70512738D-03 -0.15343651D-03 -0.42941094D-04 -0.21734234D-04 -0.60328395D-17
 -0.56561705D-17 -0.40275303D-17  0.29666987D-16  0.27814686D-16  0.19805713D-16
  0.44114655D-03  0.41360294D-03  0.29450993D-03  0.24810440D-17  0.84908032D-18
 -0.26170856D-02 -0.13112065D-18  0.10027835D-18 -0.23562593D-03 -0.10061631D-19
  0.52728758D-20 -0.88143244D-05 -0.63673129D-03 -0.63673129D-03  0.12734626D-02
 -0.55983297D-19  0.13177867D-18  0.13953411D-18 -0.81649065D-04 -0.81649065D-04
  0.16329813D-03 -0.15295082D-19 -0.39882939D-18  0.63595687D-19  0.83902252D-05
  0.83902252D-05 -0.16780450D-04 -0.28503764D-20 -0.15281682D-19  0.44396185D-19
 -0.45398630D-18 -0.42108924D-18 -0.66502823D-03 -0.44489187D-18 -0.43511432D-18
  0.99754235D-03  0.18068508D-17  0.16983820D-17  0.99754235D-03 -0.18207323D-19
 -0.43350529D-19 -0.24991188D-19 -0.21932578D-04 -0.46016321D-19 -0.28732893D-19
  0.32898867D-04  0.17606791D-18  0.10370646D-18  0.32898867D-04  0.61332276D-20
  0.59361294D+00  0.11065202D+01  0.18758238D+01  0.28405501D+01  0.35521179D+01
  0.30580426D+01  0.11756232D+01 -0.50941679D-02  0.76625769D-03  0.14388962D-02
  0.24501921D-02  0.38382115D-02  0.51436549D-02  0.55326944D-02  0.33218224D-02
 -0.21845702D-02  0.64954153D-01 -0.45292647D-03 -0.37506463D-03  0.22241136D-16
  0.21751345D-16  0.14372033D-16  0.37886311D-16  0.37051985D-16  0.24481813D-16
  0.10261607D-01  0.10035628D-01  0.66309636D-02 -0.25289377D-17 -0.34416225D-17
 -0.24107840D-02 -0.28620973D-18  0.11867556D-18 -0.92083807D-03  0.30196852D-19
 -0.24103732D-20 -0.35502417D-04 -0.14240927D-02 -0.14240927D-02  0.28481854D-02
  0.11634999D-16  0.36864858D-17  0.55302462D-17  0.68888899D-03  0.68888899D-03
 -0.13777780D-02 -0.95541012D-18 -0.18890449D-17 -0.11636276D-17  0.10010047D-03
  0.10010047D-03 -0.20020095D-03  0.56407069D-19 -0.17772606D-18 -0.15438584D-18
 -0.44825402D-18  0.70930885D-18 -0.96816456D-04 -0.93452262D-18 -0.30009086D-17
  0.14522468D-03  0.22792847D-17  0.87298209D-18  0.14522468D-03 -0.64119887D-18
  0.29250272D-18  0.12555180D-18 -0.34106100D-03  0.35739153D-18  0.33731058D-18
  0.51159150D-03 -0.12348997D-17 -0.71396599D-18  0.51159150D-03  0.83409526D-19
  0.18528876D-03  0.34525833D-03  0.58391838D-03  0.87934873D-03  0.10886908D-02
  0.92642671D-03  0.35252246D-03 -0.16510131D-05 -0.13415542D-03 -0.25154267D-03
 -0.42794893D-03 -0.66455950D-03 -0.88190911D-03 -0.92941115D-03 -0.57629420D-03
  0.38335112D-03  0.16313057D-03  0.80188708D-03  0.12166612D-03  0.95224652D-18
  0.91462140D-18  0.64139566D-18  0.16866198D-19  0.16199782D-19  0.11360405D-19
 -0.12489552D-03 -0.11996066D-03 -0.84124692D-04 -0.98052777D-18 -0.50466889D-18
 -0.82420421D-03  0.18691044D-18 -0.24416332D-18 -0.26034517D-03  0.36185453D-19
 -0.14402916D-19 -0.36079579D-05 -0.80317326D-04 -0.80317326D-04  0.16063465D-03
  0.13260327D-19  0.24933458D-18  0.38802386D-18 -0.96722769D-04 -0.96722769D-04
  0.19344554D-03 -0.79935797D-20  0.37885461D-18  0.82448557D-18 -0.11916897D-04
 -0.11916897D-04  0.23833793D-04  0.34297607D-20 -0.12513599D-18  0.14669397D-19
  0.24060531D-18  0.27248909D-18  0.11136186D-03  0.23160880D-18  0.26144091D-18
 -0.16704280D-03 -0.95342472D-18 -0.10789082D-17 -0.16704280D-03  0.55891812D-20
  0.86981188D-20  0.92880348D-20 -0.14638552D-04  0.10167506D-19  0.12863918D-19
  0.21957827D-04 -0.36261862D-19 -0.40728023D-19  0.21957827D-04 -0.76468723D-20
MO    2     MO 0.0        OCC NO =    2.0000000  ORB. ENERGY =  -14.422106
 -0.18918619D-03 -0.35268607D-03 -0.59610158D-03 -0.89613594D-03 -0.11010065D-02
 -0.92997603D-03 -0.35075274D-03  0.17358949D-05  0.14035714D-03  0.26279285D-03
  0.44742731D-03  0.69210202D-03  0.91147401D-03  0.94707988D-03  0.60182675D-03
 -0.40333029D-03  0.12552734D-02 -0.26237000D-02 -0.27846695D-03  0.12524804D-16
  0.11742800D-16  0.83615731D-17  0.98277409D-16  0.92141318D-16  0.65610108D-16
  0.38815655D-02  0.36392144D-02  0.25913374D-02  0.26418122D-16  0.78240837D-17
 -0.91265826D-02 -0.76653737D-18 -0.45108284D-18 -0.21760565D-02 -0.23768449D-19
 -0.40680121D-19 -0.13099982D-04  0.80394947D-03  0.80394947D-03 -0.16078989D-02
  0.95645962D-20  0.47619249D-18 -0.82711867D-18  0.66987534D-03  0.66987534D-03
 -0.13397507D-02  0.32039550D-19 -0.31962895D-17  0.15768113D-17  0.64510058D-04
  0.64510058D-04 -0.12902012D-03  0.30172378D-21  0.27832290D-18 -0.14494361D-19
  0.16176738D-17 -0.56426579D-18 -0.33997993D-02  0.16331507D-17 -0.60836838D-18
  0.50996989D-02 -0.64861720D-17  0.23011658D-17  0.50996989D-02 -0.14061458D-19
  0.18498989D-18 -0.38234022D-19 -0.19309809D-03  0.19081317D-18 -0.38586983D-19
  0.28964714D-03 -0.74578285D-18  0.15328905D-18  0.28964714D-03  0.41553805D-19
 -0.41319752D-03 -0.77021808D-03 -0.13057090D-02 -0.19772282D-02 -0.24725309D-02
 -0.21286188D-02 -0.81831876D-03  0.35459091D-05  0.26739368D-03  0.50211797D-03
  0.85502031D-03  0.13393843D-02  0.17949325D-02  0.19306919D-02  0.11591849D-02
 -0.76232874D-03  0.80822321D-03 -0.24810282D-02 -0.83153551D-03  0.79395724D-18
  0.77647284D-18  0.51304843D-18  0.22888158D-17  0.22384119D-17  0.14790134D-17
  0.29733871D-02  0.29079076D-02  0.19213775D-02  0.12059090D-17 -0.66259741D-18
 -0.39949515D-02  0.75290386D-18  0.68924895D-18 -0.14673827D-02  0.33868882D-18
  0.83579913D-19 -0.14453956D-03 -0.49020356D-03 -0.49020356D-03  0.98040712D-03
 -0.11456267D-19  0.14495683D-16  0.76320302D-17  0.12227312D-02  0.12227312D-02
 -0.24454624D-02 -0.12815745D-19 -0.51345993D-18 -0.28210398D-17  0.14520590D-03
  0.14520590D-03 -0.29041180D-03  0.19380259D-19  0.48373299D-18  0.10278671D-17
  0.15388233D-17 -0.76325200D-18 -0.60984070D-03  0.16148013D-17 -0.77542593D-18
  0.91476105D-03 -0.62312712D-17  0.30651819D-17  0.91476105D-03 -0.18377783D-18
 -0.10157949D-17  0.43576396D-18 -0.52736186D-03 -0.10361977D-17  0.44943549D-18
  0.79104279D-03  0.40835824D-17 -0.17567274D-17  0.79104279D-03  0.49489944D-19
  0.41214925D+00  0.76797944D+00  0.12988458D+01  0.19559898D+01  0.24216422D+01
  0.20607082D+01  0.78413749D+00 -0.36724504D-02 -0.14275333D-02 -0.26766383D-02
 -0.45537582D-02 -0.70715057D-02 -0.93842994D-02 -0.98897634D-02 -0.61322842D-02
  0.40791978D-02  0.43656899D-01  0.64521082D-02  0.52532835D-03 -0.34485577D-17
 -0.33122984D-17 -0.23228123D-17  0.16208058D-16  0.15567646D-16  0.10917108D-16
 -0.72960631D-02 -0.70077814D-02 -0.49143400D-02  0.68349676D-17 -0.43375436D-17
 -0.66871619D-02  0.48418548D-18  0.24489340D-18 -0.52393636D-03 -0.58477308D-19
  0.89388373D-19 -0.62035035D-05 -0.32002266D-02 -0.32002266D-02  0.64004532D-02
  0.11790512D-17  0.30442039D-16  0.67729471D-19 -0.33015884D-03 -0.33015884D-03
  0.66031767D-03 -0.20408497D-18 -0.76451873D-17  0.12824806D-17  0.68896568D-04
  0.68896568D-04 -0.13779314D-03  0.13756774D-20  0.47644496D-19 -0.19313089D-18
 -0.53992937D-18  0.62871082D-18 -0.11387344D-02 -0.21935783D-18  0.12742034D-17
  0.17081016D-02  0.18391459D-17 -0.31603359D-17  0.17081016D-02 -0.17711964D-19
 -0.20245506D-18 -0.12295228D-19  0.13495750D-03 -0.20259709D-18 -0.54720392D-19
 -0.20243625D-03  0.80996227D-18  0.91606076D-19 -0.20243625D-03  0.34162133D-19
MO    3     MO 0.0        OCC NO =    2.0000000  ORB. ENERGY =  -10.375574
  0.32892983D+00  0.61319999D+00  0.10364160D+01  0.15580727D+01  0.19142724D+01
  0.16169090D+01  0.60983860D+00 -0.30181253D-02 -0.26005034D-02 -0.48689629D-02
 -0.82898260D-02 -0.12823100D-01 -0.16887572D-01 -0.17547269D-01 -0.11150502D-01
  0.74728069D-02  0.37159016D-01  0.35479431D-02  0.62867961D-03  0.80376437D-17
  0.75358019D-17  0.53659399D-17  0.33094488D-16  0.31028186D-16  0.22093917D-16
 -0.58732939D-02 -0.55065864D-02 -0.39210176D-02 -0.25907147D-17 -0.86181290D-17
  0.75391745D-02 -0.51698904D-18 -0.15687395D-17  0.17171653D-02 -0.23775850D-20
 -0.47606760D-20  0.30162837D-04 -0.47335660D-02 -0.47335660D-02  0.94671321D-02
  0.10938454D-17 -0.14228469D-17 -0.58584270D-18  0.45565637D-03  0.45565637D-03
 -0.91131275D-03  0.10805358D-18  0.13013633D-18 -0.43125830D-18  0.33984017D-04
  0.33984017D-04 -0.67968033D-04  0.32818339D-20 -0.37796152D-19 -0.17524363D-18
  0.37608432D-18  0.92847847D-18  0.13551476D-02  0.19621043D-18  0.10928202D-17
 -0.20327214D-02 -0.13244634D-17 -0.38782556D-17 -0.20327214D-02 -0.57734940D-18
  0.12192853D-18  0.36480441D-18  0.16432843D-03  0.14486734D-18  0.33286159D-18
 -0.24649264D-03 -0.51065294D-18 -0.14272748D-17 -0.24649264D-03  0.69242360D-19
  0.81017535D-03  0.15102020D-02  0.25601636D-02  0.38768422D-02  0.48480048D-02
  0.41736805D-02  0.16045152D-02 -0.69526269D-05 -0.62953491D-03 -0.11821551D-02
 -0.20130062D-02 -0.31533623D-02 -0.42258764D-02 -0.45454999D-02 -0.27291122D-02
  0.17947790D-02  0.16325091D-03  0.26398998D-02  0.62168268D-03 -0.45416769D-18
 -0.44416608D-18 -0.29347931D-18 -0.13108624D-17 -0.12819948D-17 -0.84706817D-18
  0.82621578D-03  0.80802099D-03  0.53389363D-03  0.19483217D-18  0.63327575D-18
  0.31948431D-02  0.11736098D-17  0.30306186D-17 -0.34155727D-03  0.18406354D-19
  0.12332792D-20  0.82187850D-05 -0.23721142D-02 -0.23721142D-02  0.47442284D-02
 -0.15114324D-18 -0.12028606D-17 -0.39930808D-17  0.65095433D-03  0.65095433D-03
 -0.13019087D-02 -0.15870121D-18  0.88513510D-18  0.27989865D-17  0.26839119D-03
  0.26839119D-03 -0.53678237D-03  0.11608935D-19  0.77369684D-18  0.19012362D-17
  0.34890117D-18  0.56651546D-18  0.19220334D-02  0.32939005D-18  0.43760722D-18
 -0.28830501D-02 -0.13760935D-17 -0.21371536D-17 -0.28830501D-02 -0.10914597D-18
 -0.26403070D-18 -0.63737724D-18 -0.18217262D-02 -0.26487356D-18 -0.61678294D-18
  0.27325892D-02  0.10569657D-17  0.25289147D-17  0.27325892D-02 -0.16678062D-18
 -0.75299889D-03 -0.14031026D-02 -0.23729982D-02 -0.35736038D-02 -0.44243533D-02
 -0.37649250D-02 -0.14326234D-02  0.67095866D-05  0.36133901D-03  0.67751402D-03
  0.11526529D-02  0.17899483D-02  0.23753655D-02  0.25033092D-02  0.15522114D-02
 -0.10325316D-02  0.11389282D-02 -0.68190632D-02 -0.17350022D-02 -0.64541878D-18
 -0.61991702D-18 -0.43472861D-18 -0.20409140D-17 -0.19602735D-17 -0.13746791D-17
 -0.32404151D-02 -0.31123800D-02 -0.21826157D-02  0.12535806D-17  0.36648685D-17
  0.61281880D-02  0.72321132D-18  0.25757187D-17  0.36839408D-02  0.21452084D-19
  0.73214987D-19  0.17439984D-03  0.58911310D-03  0.58911310D-03 -0.11782262D-02
  0.25408568D-18 -0.22811301D-18  0.36046149D-18  0.18320578D-02  0.18320578D-02
 -0.36641156D-02 -0.26882991D-19 -0.11407216D-17 -0.39204698D-17  0.17155469D-03
  0.17155469D-03 -0.34310937D-03 -0.15195053D-19 -0.15473201D-18 -0.58965493D-18
 -0.21010388D-18 -0.31508392D-18  0.15249509D-02 -0.75467659D-19 -0.27820498D-18
 -0.22874263D-02  0.70577929D-18  0.12234567D-17 -0.22874263D-02 -0.30056080D-18
 -0.28991976D-19 -0.15357674D-18  0.49083097D-03 -0.36342936D-19 -0.16120509D-18
 -0.73624646D-03  0.12331886D-18  0.62193532D-18 -0.73624646D-03  0.38791792D-19
MO    4     MO 0.0        OCC NO =    2.0000000  ORB. ENERGY =   -1.391196
 -0.49352656D-02 -0.92004572D-02 -0.15550393D-01 -0.23377335D-01 -0.28721757D-01
 -0.24260115D-01 -0.91500229D-02  0.45283974D-04 -0.16657959D-01 -0.31188956D-01
 -0.53101866D-01 -0.82140512D-01 -0.10817616D+00 -0.11240196D+00 -0.71426403D-01
  0.47868314D-01  0.22791354D-01  0.10475958D-01  0.87798438D-03 -0.25554839D-15
 -0.23959286D-15 -0.17060439D-15  0.59482055D-15  0.55768207D-15  0.39710286D-15
 -0.16087055D+00 -0.15082637D+00 -0.10739736D+00 -0.92801770D-16  0.13718332D-16
 -0.15275966D-01 -0.35128118D-16  0.40412766D-16  0.11657414D-02 -0.29271465D-17
 -0.31880893D-18  0.10716400D-03 -0.17323431D-01 -0.17323431D-01  0.34646863D-01
 -0.21781685D-16 -0.13122451D-16 -0.31481703D-16 -0.24578981D-02 -0.24578981D-02
  0.49157962D-02 -0.66331502D-18  0.31882382D-16 -0.35503000D-17  0.10753576D-03
  0.10753576D-03 -0.21507152D-03  0.99333548D-19  0.20336433D-17  0.57504181D-17
  0.38867922D-17 -0.77130489D-17 -0.18065656D-02  0.38047970D-17 -0.73945046D-17
  0.27098484D-02 -0.15465173D-16  0.30533651D-16  0.27098484D-02  0.80459167D-17
  0.62595947D-17 -0.23870596D-17 -0.99321451D-03  0.63525375D-17 -0.31097012D-17
  0.14898218D-02 -0.25131322D-16  0.10270880D-16  0.14898218D-02  0.12289983D-17
 -0.69478288D-02 -0.12951054D-01 -0.21955220D-01 -0.33246674D-01 -0.41575083D-01
 -0.35792273D-01 -0.13759857D-01  0.59623711D-04 -0.12208834D+00 -0.22926029D+00
 -0.39039073D+00 -0.61154477D+00 -0.81954194D+00 -0.88152785D+00 -0.52926817D+00
  0.34806901D+00  0.20396734D+00  0.87987365D-01  0.23484400D-02  0.92317471D-16
  0.90284471D-16  0.59654767D-16  0.75109152D-15  0.73455110D-15  0.48534897D-15
  0.42048809D+00  0.41122817D+00  0.27171584D+00  0.15650982D-16  0.19539561D-15
  0.10398229D+00  0.68368767D-16 -0.10408134D-16  0.10603172D-01  0.73104821D-17
  0.72427377D-17 -0.13284733D-03 -0.22155079D-01 -0.22155079D-01  0.44310158D-01
  0.13266851D-15  0.44912207D-16  0.90937186D-16 -0.10944256D-01 -0.10944256D-01
  0.21888513D-01  0.28930177D-16 -0.15553173D-16  0.60040316D-16 -0.71053211D-03
 -0.71053211D-03  0.14210642D-02  0.19451799D-18  0.53214370D-16 -0.18740530D-16
  0.18401770D-16 -0.18492464D-16  0.11506648D-01 -0.20835740D-16 -0.44753218D-16
 -0.17259972D-01 -0.34369570D-16  0.10023061D-15 -0.17259972D-01  0.21666941D-16
 -0.76885362D-17  0.13985110D-17  0.34397882D-02 -0.44105230D-17  0.11441935D-16
 -0.51596823D-02  0.27476132D-16 -0.15637468D-16 -0.51596823D-02  0.56524850D-17
  0.55031402D-04  0.10254291D-03  0.17342577D-03  0.26116961D-03  0.32334492D-03
  0.27515193D-03  0.10470039D-03 -0.49035657D-06 -0.12914343D-02 -0.24214514D-02
 -0.41196093D-02 -0.63973182D-02 -0.84896134D-02 -0.89468872D-02 -0.55476408D-02
  0.36902928D-02  0.38602044D-02 -0.11290403D-01 -0.31372077D-02 -0.22303942D-16
 -0.21422670D-16 -0.15023055D-16  0.86137993D-16  0.82734512D-16  0.58019151D-16
 -0.11423981D-01 -0.10972597D-01 -0.76947425D-02  0.17107576D-16  0.20568129D-16
  0.68368740D-02  0.22441334D-16 -0.28939811D-16  0.72047632D-02  0.18392132D-17
  0.24579844D-18  0.30169928D-03  0.12502672D-02  0.12502672D-02 -0.25005345D-02
  0.10551438D-17  0.57129505D-16 -0.93652826D-16  0.19684072D-02  0.19684072D-02
 -0.39368143D-02 -0.14795976D-17 -0.15882858D-16  0.47095354D-16  0.26393635D-03
  0.26393635D-03 -0.52787271D-03 -0.20064993D-18 -0.64897881D-17  0.38224115D-17
 -0.23650872D-17  0.10086125D-17  0.23431933D-02 -0.23877348D-17  0.12119215D-17
 -0.35147900D-02  0.94829965D-17 -0.42377591D-17 -0.35147900D-02  0.35637365D-17
  0.64574049D-19 -0.72772697D-18  0.11939225D-03  0.81265084D-19 -0.63393105D-18
 -0.17908837D-03 -0.27498723D-18  0.28171120D-17 -0.17908837D-03  0.95954922D-18
MO    5     MO 0.0        OCC NO =    2.0000000  ORB. ENERGY =   -0.970214
 -0.78055185D-02 -0.14551261D-01 -0.24594195D-01 -0.36973131D-01 -0.45425763D-01
 -0.38369319D-01 -0.14471495D-01  0.71620238D-04 -0.38159164D-01 -0.71445995D-01
 -0.12164292D+00 -0.18816310D+00 -0.24780418D+00 -0.25748442D+00 -0.16361979D+00
  0.10965418D+00  0.51952834D-01  0.18322644D-01  0.12714119D-02  0.12221212D-15
  0.11458163D-15  0.81588948D-16 -0.14267102D-15 -0.13376315D-15 -0.95247329D-16
  0.31475584D+00  0.29510361D+00  0.21013135D+00  0.96283707D-16  0.18873884D-16
  0.40625540D-01 -0.66004708D-17  0.95510780D-17 -0.14253874D-02  0.22569378D-17
 -0.62183397D-17  0.22381301D-04 -0.19255474D-01 -0.19255474D-01  0.38510948D-01
 -0.19006802D-15 -0.24306051D-16  0.14755789D-16 -0.97388573D-03 -0.97388573D-03
  0.19477715D-02  0.90016978D-18 -0.37586893D-16  0.15873293D-16  0.14561287D-03
  0.14561287D-03 -0.29122574D-03  0.49901030D-18 -0.36071028D-17 -0.42281967D-17
  0.26254590D-17 -0.57227048D-17  0.53540611D-02  0.15326442D-18 -0.47375948D-17
 -0.80310917D-02 -0.80296414D-17  0.21905709D-16 -0.80310917D-02 -0.16782685D-16
  0.19616678D-19  0.16041643D-17 -0.73812979D-03  0.16858665D-17 -0.46834729D-18
  0.11071947D-02 -0.17447165D-17 -0.43441455D-17  0.11071947D-02  0.14475207D-17
  0.12508539D-02  0.23316459D-02  0.39527131D-02  0.59855725D-02  0.74849794D-02
  0.64438701D-02  0.24772589D-02 -0.10734368D-04  0.14173457D-01  0.26615241D-01
  0.45321166D-01  0.70995339D-01  0.95142106D-01  0.10233816D+00  0.61443699D-01
 -0.40407961D-01 -0.25087393D-01 -0.24806643D-01 -0.37820930D-02  0.35271122D-15
  0.34494387D-15  0.22791900D-15  0.10171237D-16  0.99472477D-17  0.65725671D-17
  0.13663049D+00  0.13362163D+00  0.88289462D-01  0.89094888D-16 -0.10300495D-16
  0.27837562D-01 -0.27579881D-17  0.17984044D-16 -0.43671233D-02 -0.27465201D-17
 -0.64529574D-17 -0.53596955D-03 -0.44787589D-02 -0.44787589D-02  0.89575179D-02
 -0.21915898D-16  0.73735567D-16  0.77379258D-16  0.11863471D-02  0.11863471D-02
 -0.23726943D-02 -0.42906120D-17  0.25746523D-16 -0.17831216D-16  0.93002860D-03
  0.93002860D-03 -0.18600572D-02 -0.75357529D-18 -0.10823657D-16  0.17756135D-16
 -0.64597292D-17  0.69209261D-17  0.18427846D-02  0.15909356D-17  0.60337408D-17
 -0.27641769D-02  0.17788252D-16 -0.26796519D-16 -0.27641769D-02  0.91080159D-17
  0.17140685D-18  0.17208912D-17 -0.20201650D-02 -0.19068909D-17  0.21678184D-17
  0.30302475D-02  0.13926703D-17 -0.73304919D-17  0.30302475D-02 -0.45456851D-17
 -0.91037865D-02 -0.16963566D-01 -0.28689642D-01 -0.43205011D-01 -0.53490607D-01
 -0.45518092D-01 -0.17320474D-01  0.81119168D-04 -0.63688660D-01 -0.11941683D+00
 -0.20316356D+00 -0.31549156D+00 -0.41867566D+00 -0.44122667D+00 -0.27358868D+00
  0.18199130D+00  0.94954684D-01  0.28547126D-01 -0.27535934D-02  0.42476109D-16
  0.40797795D-16  0.28610230D-16  0.12497368D-15  0.12003573D-15  0.84177338D-16
 -0.41208782D+00 -0.39580543D+00 -0.27756609D+00  0.82529057D-17  0.17303271D-16
 -0.87346499D-01  0.23798668D-16  0.10770606D-16  0.13675321D-02  0.63833009D-18
  0.15140824D-17  0.43568673D-03 -0.25855013D-01 -0.25855013D-01  0.51710026D-01
  0.18250593D-16  0.49876075D-16 -0.21611597D-16 -0.31959048D-02 -0.31959048D-02
  0.63918095D-02 -0.18988135D-17 -0.20547255D-16 -0.15613670D-16  0.39324020D-03
  0.39324020D-03 -0.78648040D-03 -0.52422941D-18 -0.63002941D-17 -0.18563914D-17
  0.46349938D-17 -0.65526366D-17 -0.66514485D-02  0.13238674D-17  0.12065177D-16
  0.99771728D-02 -0.15228849D-16  0.75927323D-17  0.99771728D-02 -0.36286679D-17
 -0.36660594D-18  0.16559188D-17 -0.23808257D-03 -0.27394410D-20 -0.72504740D-18
  0.35712385D-03  0.11025573D-17 -0.42427091D-17  0.35712385D-03 -0.37746358D-18
MO    6     MO 0.0        OCC NO =    2.0000000  ORB. ENERGY =   -0.717441
 -0.30543085D-02 -0.56939254D-02 -0.96237370D-02 -0.14467629D-01 -0.17775154D-01
 -0.15013959D-01 -0.56627130D-02  0.28025083D-04 -0.24422653D-01 -0.45726912D-01
 -0.77853981D-01 -0.12042827D+00 -0.15859980D+00 -0.16479535D+00 -0.10472004D+00
  0.70180939D-01  0.34551907D-01  0.23322108D-01  0.12466912D-02 -0.50139641D-17
 -0.47009101D-17 -0.33473280D-17  0.81123189D-16  0.76058146D-16  0.54157931D-16
 -0.33600446D+00 -0.31502554D+00 -0.22431695D+00  0.63610831D-16  0.12836200D-15
 -0.69632672D-01  0.23834216D-16 -0.68495805D-16 -0.15360144D-02  0.58153869D-17
  0.69559176D-17  0.14216893D-03 -0.93570119D-02 -0.93570119D-02  0.18714024D-01
  0.42205381D-16 -0.23374975D-15  0.58808862D-16 -0.39754541D-02 -0.39754541D-02
  0.79509082D-02 -0.76314966D-17  0.40827823D-17  0.27190121D-16 -0.18881279D-03
 -0.18881279D-03  0.37762557D-03 -0.14870985D-17 -0.50623022D-17 -0.48038502D-17
  0.23589138D-17 -0.65447291D-17 -0.37840874D-02  0.12175891D-17 -0.40968108D-17
  0.56761311D-02 -0.82943306D-17  0.23730998D-16  0.56761311D-02  0.12889696D-16
 -0.19168077D-17  0.51839147D-17 -0.74396256D-03 -0.13622909D-17  0.42833851D-17
  0.11159438D-02  0.71127140D-17 -0.19835129D-16  0.11159438D-02 -0.42336440D-18
 -0.80708170D-03 -0.15044353D-02 -0.25503876D-02 -0.38620385D-02 -0.48294927D-02
 -0.41577434D-02 -0.15983883D-02  0.69260783D-05  0.46609321D-01  0.87524050D-01
  0.14903836D+00  0.23346771D+00  0.31287420D+00  0.33653839D+00  0.20205721D+00
 -0.13288132D+00 -0.85240056D-01 -0.75279502D-01 -0.69351860D-02  0.22381431D-15
  0.21888550D-15  0.14462691D-15 -0.24553350D-15 -0.24012640D-15 -0.15866167D-15
  0.21381632D+01  0.20910769D+01  0.13816629D+01  0.40350402D-16 -0.66560552D-16
  0.47134213D+00 -0.53355567D-17  0.43400150D-16  0.51199418D-01 -0.11303758D-16
 -0.26763849D-17  0.99439524D-04 -0.43548951D-01 -0.43548951D-01  0.87097903D-01
 -0.85538617D-16  0.10399843D-15  0.23632709D-15 -0.14626244D-01 -0.14626244D-01
  0.29252489D-01 -0.18403188D-16  0.30371440D-16  0.58680581D-16 -0.53482078D-03
 -0.53482078D-03  0.10696416D-02  0.12764634D-17 -0.16058088D-16  0.38310593D-16
 -0.15021531D-16 -0.15432437D-16  0.23619837D-01  0.27681497D-17 -0.18916482D-16
 -0.35429756D-01  0.42296443D-16  0.65213792D-16 -0.35429756D-01  0.16227577D-15
  0.14859796D-17 -0.10202038D-16  0.42314239D-02 -0.40427190D-17 -0.12152297D-16
 -0.63471358D-02 -0.41521994D-18  0.42758413D-16 -0.63471358D-02  0.88769076D-17
  0.15627436D-02  0.29119426D-02  0.49248250D-02  0.74165136D-02  0.91821249D-02
  0.78135739D-02  0.29732090D-02 -0.13924806D-04  0.16220867D-01  0.30414277D-01
  0.51743735D-01  0.80352557D-01  0.10663252D+00  0.11237603D+00  0.69680310D-01
 -0.46351369D-01 -0.24408824D-01 -0.20493552D-01 -0.16159787D-02  0.15967969D-15
  0.15337043D-15  0.10755393D-15  0.14924596D-15  0.14334896D-15  0.10052619D-15
  0.51720953D-01  0.49677357D-01  0.34837192D-01  0.29202878D-16  0.35636824D-16
  0.13461007D-01 -0.10052557D-16  0.52022771D-16  0.15310182D-02 -0.23837423D-17
 -0.15353380D-18 -0.13532087D-03  0.54828396D-02  0.54828396D-02 -0.10965679D-01
 -0.13917839D-16  0.38727154D-16  0.22103800D-16  0.67824243D-03  0.67824243D-03
 -0.13564849D-02  0.49447507D-18 -0.82454906D-17 -0.28690002D-16 -0.16319299D-03
 -0.16319299D-03  0.32638597D-03  0.13199024D-17  0.65092968D-17 -0.14603128D-16
 -0.10221615D-16  0.25863442D-17  0.23964334D-02 -0.94496772D-17 -0.12878386D-17
 -0.35946501D-02  0.40114521D-16 -0.64711940D-17 -0.35946501D-02  0.14371946D-16
 -0.76557625D-18 -0.31740068D-18 -0.11874448D-03 -0.92489759D-18  0.17557691D-18
  0.17811672D-03  0.32216263D-17  0.77662513D-18  0.17811672D-03  0.56656872D-18
MO    7     MO 0.0        OCC NO =    2.0000000  ORB. ENERGY =   -0.594044
 -0.19015873D-16 -0.35449911D-16 -0.59916595D-16 -0.90074269D-16 -0.11066665D-15
 -0.93475674D-16 -0.35255585D-16  0.17448186D-18  0.24022483D-16  0.44977667D-16
  0.76578327D-16  0.11845503D-15  0.15600110D-15  0.16209514D-15  0.10300418D-15
 -0.69031009D-16 -0.16288065D-15  0.63817016D-16  0.10977373D-15  0.19212311D+00
  0.18012763D+00  0.12826160D+00 -0.18737263D+00 -0.17567375D+00 -0.12509017D+00
 -0.11269866D-14 -0.10566216D-14 -0.75237751D-15  0.50872886D-01 -0.49614989D-01
  0.58196712D-15  0.38314242D-02 -0.37366873D-02  0.19804899D-15  0.37286831D-04
 -0.36364867D-04  0.72533341D-17  0.27696069D-15  0.23105656D-15 -0.50801725D-15
  0.53613513D-15 -0.33086075D-01  0.32267980D-01 -0.36006262D-16 -0.14002000D-15
  0.17602627D-15 -0.19931361D-15 -0.28921743D-02  0.28206616D-02 -0.72352766D-17
 -0.29163359D-16  0.36398635D-16  0.60485299D-17  0.40540682D-03 -0.39538263D-03
 -0.56892355D-02  0.55485619D-02  0.29165716D-15 -0.56892339D-02  0.55485603D-02
 -0.35993372D-15  0.22756940D-01 -0.22194246D-01 -0.51503776D-15 -0.32761224D-16
 -0.35221765D-03  0.34350862D-03  0.11488240D-16 -0.35221769D-03  0.34350867D-03
 -0.70602859D-16  0.14088707D-02 -0.13740345D-02  0.36138140D-16 -0.19795249D-15
  0.18816861D-15  0.35075445D-15  0.59461502D-15  0.90042238D-15  0.11259813D-14
  0.96936506D-15  0.37265932D-15 -0.16147938D-17 -0.15930686D-15 -0.29915008D-15
 -0.50940099D-15 -0.79797363D-15 -0.10693785D-14 -0.11502608D-14 -0.69061508D-15
  0.45417753D-15 -0.30408482D-15  0.13912303D-16  0.70031063D-16  0.17251999D+01
  0.16872078D+01  0.11148095D+01 -0.16825421D+01 -0.16454894D+01 -0.10872444D+01
 -0.61733593D-15 -0.60374105D-15 -0.39891724D-15  0.38671713D+00 -0.37715506D+00