 Molden2AIM, Version 4.0.0 (06/02/2016)           Time: Fri Jun 29 18:00:10 2018
GAUSSIAN             10 MOL ORBITALS    177 PRIMITIVES        3 NUCLEI
  H    1    (CENTRE  1)   0.00000000  0.00000000  0.00000000  CHARGE =  1.0
  F    2    (CENTRE  2)  -2.17030888  0.00000000  0.00000000  CHARGE =  9.0
  F    3    (CENTRE  3)   2.17030888  0.00000000  0.00000000  CHARGE =  9.0
CENTRE ASSIGNMENTS    1  1  1  1  1  1  1  1  1  1  1  1  1  1  1  1  1  1  1  1
CENTRE ASSIGNMENTS    1  1  1  1  1  1  1  2  2  2  2  2  2  2  2  2  2  2  2  2
CENTRE ASSIGNMENTS    2  2  2  2  2  2  2  2  2  2  2  2  2  2  2  2  2  2  2  2
CENTRE ASSIGNMENTS    2  2  2  2  2  2  2  2  2  2  2  2  2  2  2  2  2  2  2  2
CENTRE ASSIGNMENTS    2  2  2  2  2  2  2  2  2  2  2  2  2  2  2  2  2  2  2  2
CENTRE ASSIGNMENTS    2  2  3  3  3  3  3  3  3  3  3  3  3  3  3  3  3  3  3  3
CENTRE ASSIGNMENTS    3  3  3  3  3  3  3  3  3  3  3  3  3  3  3  3  3  3  3  3
CENTRE ASSIGNMENTS    3  3  3  3  3  3  3  3  3  3  3  3  3  3  3  3  3  3  3  3
CENTRE ASSIGNMENTS    3  3  3  3  3  3  3  3  3  3  3  3  3  3  3  3  3
TYPE ASSIGNMENTS      1  1  1  1  1  1  2  3  4  2  3  4  2  3  4  5  6  7  8  9
TYPE ASSIGNMENTS     10  5  6  7  8  9 10  1  1  1  1  1  1  1  1  1  1  1  1  1
TYPE ASSIGNMENTS      1  1  1  1  1  1  2  2  2  3  3  3  4  4  4  2  3  4  2  3
TYPE ASSIGNMENTS      4  2  3  4  5  6  7  8  9 10  5  6  7  8  9 10  5  6  7  8
TYPE ASSIGNMENTS      9 10 11 12 13 17 14 15 18 19 16 20 11 12 13 17 14 15 18 19
TYPE ASSIGNMENTS     16 20  1  1  1  1  1  1  1  1  1  1  1  1  1  1  1  1  1  1
TYPE ASSIGNMENTS      1  2  2  2  3  3  3  4  4  4  2  3  4  2  3  4  2  3  4  5
TYPE ASSIGNMENTS      6  7  8  9 10  5  6  7  8  9 10  5  6  7  8  9 10 11 12 13
TYPE ASSIGNMENTS     17 14 15 18 19 16 20 11 12 13 17 14 15 18 19 16 20
EXPONENTS  0.3387000D+02 0.5095000D+01 0.1159000D+01 0.3258000D+00 0.1027000D+00
EXPONENTS  0.2526000D-01 0.1407000D+01 0.1407000D+01 0.1407000D+01 0.3880000D+00
EXPONENTS  0.3880000D+00 0.3880000D+00 0.1020000D+00 0.1020000D+00 0.1020000D+00
EXPONENTS  0.1057000D+01 0.1057000D+01 0.1057000D+01 0.1057000D+01 0.1057000D+01
EXPONENTS  0.1057000D+01 0.2470000D+00 0.2470000D+00 0.2470000D+00 0.2470000D+00
EXPONENTS  0.2470000D+00 0.2470000D+00 0.1950000D+05 0.2923000D+04 0.6645000D+03
EXPONENTS  0.1875000D+03 0.6062000D+02 0.2142000D+02 0.7950000D+01 0.8815000D+00
EXPONENTS  0.1950000D+05 0.2923000D+04 0.6645000D+03 0.1875000D+03 0.6062000D+02
EXPONENTS  0.2142000D+02 0.7950000D+01 0.8815000D+00 0.2257000D+01 0.3041000D+00
EXPONENTS  0.9158000D-01 0.4388000D+02 0.9926000D+01 0.2930000D+01 0.4388000D+02
EXPONENTS  0.9926000D+01 0.2930000D+01 0.4388000D+02 0.9926000D+01 0.2930000D+01
EXPONENTS  0.9132000D+00 0.9132000D+00 0.9132000D+00 0.2672000D+00 0.2672000D+00
EXPONENTS  0.2672000D+00 0.7361000D-01 0.7361000D-01 0.7361000D-01 0.3107000D+01
EXPONENTS  0.3107000D+01 0.3107000D+01 0.3107000D+01 0.3107000D+01 0.3107000D+01
EXPONENTS  0.8550000D+00 0.8550000D+00 0.8550000D+00 0.8550000D+00 0.8550000D+00
EXPONENTS  0.8550000D+00 0.2920000D+00 0.2920000D+00 0.2920000D+00 0.2920000D+00
EXPONENTS  0.2920000D+00 0.2920000D+00 0.1917000D+01 0.1917000D+01 0.1917000D+01
EXPONENTS  0.1917000D+01 0.1917000D+01 0.1917000D+01 0.1917000D+01 0.1917000D+01
EXPONENTS  0.1917000D+01 0.1917000D+01 0.7240000D+00 0.7240000D+00 0.7240000D+00
EXPONENTS  0.7240000D+00 0.7240000D+00 0.7240000D+00 0.7240000D+00 0.7240000D+00
EXPONENTS  0.7240000D+00 0.7240000D+00 0.1950000D+05 0.2923000D+04 0.6645000D+03
EXPONENTS  0.1875000D+03 0.6062000D+02 0.2142000D+02 0.7950000D+01 0.8815000D+00
EXPONENTS  0.1950000D+05 0.2923000D+04 0.6645000D+03 0.1875000D+03 0.6062000D+02
EXPONENTS  0.2142000D+02 0.7950000D+01 0.8815000D+00 0.2257000D+01 0.3041000D+00
EXPONENTS  0.9158000D-01 0.4388000D+02 0.9926000D+01 0.2930000D+01 0.4388000D+02
EXPONENTS  0.9926000D+01 0.2930000D+01 0.4388000D+02 0.9926000D+01 0.2930000D+01
EXPONENTS  0.9132000D+00 0.9132000D+00 0.9132000D+00 0.2672000D+00 0.2672000D+00
EXPONENTS  0.2672000D+00 0.7361000D-01 0.7361000D-01 0.7361000D-01 0.3107000D+01
EXPONENTS  0.3107000D+01 0.3107000D+01 0.3107000D+01 0.3107000D+01 0.3107000D+01
EXPONENTS  0.8550000D+00 0.8550000D+00 0.8550000D+00 0.8550000D+00 0.8550000D+00
EXPONENTS  0.8550000D+00 0.2920000D+00 0.2920000D+00 0.2920000D+00 0.2920000D+00
EXPONENTS  0.2920000D+00 0.2920000D+00 0.1917000D+01 0.1917000D+01 0.1917000D+01
EXPONENTS  0.1917000D+01 0.1917000D+01 0.1917000D+01 0.1917000D+01 0.1917000D+01
EXPONENTS  0.1917000D+01 0.1917000D+01 0.7240000D+00 0.7240000D+00 0.7240000D+00
EXPONENTS  0.7240000D+00 0.7240000D+00 0.7240000D+00 0.7240000D+00 0.7240000D+00
EXPONENTS  0.7240000D+00 0.7240000D+00
MO    1     MO 0.0        OCC NO =    2.0000000  ORB. ENERGY =  -24.442038
 -0.11745785D-12 -0.21184008D-12 -0.31235807D-12  0.19943296D-11  0.13987154D-11
  0.19484007D-13 -0.12071957D-02  0.14358552D-15 -0.27303852D-16 -0.11916097D-02
 -0.37567362D-16  0.20936553D-16 -0.55992257D-04  0.86390326D-17 -0.13094248D-17
  0.24355823D-11 -0.12178836D-11 -0.12176987D-11  0.74720591D-16  0.30199390D-15
  0.10567519D-15  0.42908499D-12 -0.21454159D-12 -0.21454340D-12  0.90849199D-18
 -0.81195100D-17  0.54379463D-18  0.41985765D+00  0.78263286D+00  0.13267551D+01
  0.20090982D+01  0.25123844D+01  0.21629289D+01  0.83150885D+00 -0.36030640D-02
  0.47379289D-03  0.88969915D-03  0.15150042D-02  0.23732451D-02  0.31804277D-02
  0.34209788D-02  0.20539512D-02 -0.13507647D-02  0.45718366D-01  0.94639859D-04
 -0.25500309D-03  0.27462398D-02  0.26857625D-02  0.17745968D-02  0.10307793D-16
  0.10080796D-16  0.66608083D-17 -0.28884530D-17 -0.28248440D-17 -0.18664939D-17
 -0.64492579D-03 -0.11126592D-17 -0.52134368D-17 -0.45489680D-03  0.65311798D-18
 -0.82745644D-17 -0.29063266D-04  0.76083870D-19 -0.85951128D-19  0.12899795D-02
 -0.64498976D-03 -0.64498976D-03  0.18174684D-16  0.25301420D-16  0.11729173D-16
 -0.48436675D-03  0.24218337D-03  0.24218337D-03 -0.18592185D-17 -0.14529483D-16
 -0.15065228D-17 -0.11883007D-03  0.59415037D-04  0.59415037D-04  0.12160289D-17
 -0.59389020D-17  0.19368219D-18  0.12651027D-03 -0.91632772D-18 -0.14328522D-16
 -0.18976541D-03  0.33873738D-17  0.20566020D-16 -0.18976541D-03 -0.63839063D-18
  0.22419546D-16  0.12123978D-16 -0.17485299D-03 -0.46506907D-18  0.57446695D-17
  0.26227948D-03  0.16444006D-17 -0.23267141D-16  0.26227948D-03 -0.24919338D-18
  0.60331320D-17  0.14493274D-18 -0.41985765D+00 -0.78263286D+00 -0.13267551D+01
 -0.20090982D+01 -0.25123844D+01 -0.21629289D+01 -0.83150885D+00  0.36030639D-02
 -0.47379289D-03 -0.88969914D-03 -0.15150042D-02 -0.23732451D-02 -0.31804277D-02
 -0.34209788D-02 -0.20539512D-02  0.13507647D-02 -0.45718366D-01 -0.94639860D-04
  0.25500309D-03  0.27462397D-02  0.26857625D-02  0.17745968D-02 -0.57257832D-17
 -0.55996909D-17 -0.36999525D-17  0.16716531D-16  0.16348402D-16  0.10802081D-16
 -0.64492579D-03 -0.39183959D-18  0.36683048D-17 -0.45489680D-03  0.54190849D-18
  0.63353549D-17 -0.29063266D-04  0.14050506D-18 -0.56872142D-19 -0.12899795D-02
  0.64498976D-03  0.64498976D-03 -0.20571687D-16  0.42892289D-16 -0.76977839D-17
  0.48436674D-03 -0.24218337D-03 -0.24218337D-03  0.42407047D-17 -0.20794069D-16
  0.10335733D-17  0.11883007D-03 -0.59415037D-04 -0.59415037D-04 -0.59123427D-18
 -0.27113458D-17 -0.15759328D-18  0.12651028D-03  0.26875317D-18 -0.24304888D-17
 -0.18976541D-03  0.57401846D-18 -0.74055656D-16 -0.18976541D-03 -0.13802780D-17
  0.81347122D-16 -0.68857308D-17 -0.17485299D-03 -0.27282080D-20 -0.17825133D-17
  0.26227948D-03 -0.42189173D-18  0.14095612D-16  0.26227948D-03  0.43007636D-18
 -0.87480721D-17 -0.44624842D-18
MO    2     MO 0.0        OCC NO =    2.0000000  ORB. ENERGY =  -24.442030
 -0.84636757D-04 -0.15264588D-03 -0.22507626D-03  0.14505819D-02  0.99587149D-03
  0.14008068D-04  0.16533834D-11 -0.10425322D-18  0.16778380D-18  0.16742983D-11
  0.13434349D-19 -0.20728582D-18  0.12455551D-12 -0.22265500D-19 -0.47119346D-19
  0.17736078D-02 -0.88680388D-03 -0.88680388D-03 -0.47746435D-18  0.31103546D-18
  0.39341690D-19  0.30816306D-03 -0.15408153D-03 -0.15408153D-03 -0.62999780D-18
  0.63624972D-18 -0.14819077D-19  0.41977844D+00  0.78248521D+00  0.13265048D+01
  0.20087192D+01  0.25119104D+01  0.21625209D+01  0.83135198D+00 -0.36023842D-02
  0.52510266D-03  0.98604979D-03  0.16790727D-02  0.26302575D-02  0.35248545D-02
  0.37914563D-02  0.22763854D-02 -0.14970468D-02  0.45866872D-01 -0.46965824D-03
 -0.41150736D-03  0.31194672D-02  0.30507708D-02  0.20157732D-02  0.13820456D-16
  0.13516104D-16  0.89306615D-17  0.17471817D-16  0.17087055D-16  0.11290140D-16
 -0.11068612D-02 -0.61364871D-18 -0.26106302D-17 -0.48880324D-03 -0.44193429D-18
  0.74745935D-18 -0.37439721D-04  0.22937220D-20  0.12704298D-20  0.11906500D-02
 -0.59532502D-03 -0.59532502D-03  0.43768854D-17 -0.41430750D-17  0.78641642D-17
 -0.77159792D-03  0.38579896D-03  0.38579896D-03 -0.27378772D-18  0.18240671D-18
 -0.68661690D-18 -0.40497622D-04  0.20248811D-04  0.20248811D-04 -0.30307885D-18
  0.39586295D-18  0.48492028D-19 -0.37831810D-03 -0.31491817D-18  0.36660508D-18
  0.56747714D-03  0.11372621D-17 -0.15192915D-17  0.56747714D-03 -0.19250763D-18
  0.41947627D-18 -0.96962288D-18 -0.15706625D-03  0.75959085D-19 -0.96664266D-19
  0.23559938D-03 -0.34452342D-18  0.44529275D-18  0.23559938D-03  0.11664617D-18
 -0.15529995D-18  0.88145121D-19  0.41977845D+00  0.78248521D+00  0.13265048D+01
  0.20087192D+01  0.25119104D+01  0.21625209D+01  0.83135198D+00 -0.36023842D-02
  0.52510266D-03  0.98604979D-03  0.16790727D-02  0.26302575D-02  0.35248545D-02
  0.37914563D-02  0.22763854D-02 -0.14970468D-02  0.45866872D-01 -0.46965824D-03
 -0.41150736D-03 -0.31194672D-02 -0.30507708D-02 -0.20157733D-02  0.34383175D-17
  0.33625995D-17  0.22218116D-17  0.17486167D-16  0.17101090D-16  0.11299413D-16
  0.11068612D-02 -0.84791891D-18 -0.80168620D-18  0.48880324D-03  0.60289330D-18
 -0.31550992D-18  0.37439721D-04  0.52879487D-20  0.61556210D-20  0.11906500D-02
 -0.59532502D-03 -0.59532502D-03  0.12671368D-17 -0.72594771D-18  0.46816237D-17
 -0.77159792D-03  0.38579896D-03  0.38579896D-03  0.20769493D-19  0.17815016D-18
 -0.34207336D-18 -0.40497622D-04  0.20248811D-04  0.20248811D-04 -0.35414479D-18
  0.23071955D-18  0.25000308D-19  0.37831810D-03  0.40230077D-19  0.34630420D-18
 -0.56747714D-03 -0.73724396D-18  0.45431805D-18 -0.56747714D-03  0.61655373D-18
 -0.14932307D-17 -0.32006194D-18  0.15706625D-03 -0.86997599D-19  0.30393382D-19
 -0.23559938D-03  0.36138765D-18 -0.17089062D-18 -0.23559938D-03 -0.10039485D-18
  0.79710472D-19  0.31998673D-19
MO    3     MO 0.0        OCC NO =    2.0000000  ORB. ENERGY =   -0.898733
  0.16633702D-01  0.29999567D-01  0.44234344D-01  0.10553436D-01  0.78975244D-03
 -0.11933695D-03 -0.16668231D-13  0.22496648D-16 -0.24317440D-16  0.70010038D-13
 -0.54448801D-16  0.29661376D-16 -0.51869261D-14 -0.27726151D-17  0.92409513D-17
  0.55223405D-02 -0.27611702D-02 -0.27611702D-02 -0.77200158D-17 -0.39807142D-18
  0.24424734D-17  0.15205293D-02 -0.76026463D-03 -0.76026463D-03 -0.11296961D-16
  0.25798816D-16 -0.67609535D-18 -0.59409258D-02 -0.11074143D-01 -0.18773395D-01
 -0.28428453D-01 -0.35549880D-01 -0.30605135D-01 -0.11765731D-01  0.50982840D-04
 -0.87402176D-01 -0.16412581D+00 -0.27947794D+00 -0.43780054D+00 -0.58670423D+00
 -0.63107951D+00 -0.37889931D+00  0.24918013D+00  0.14745562D+00  0.71577650D-01
  0.25378647D-02  0.14806607D+00  0.14480538D+00  0.95679038D-01  0.18333732D-15
  0.17929990D-15  0.11847102D-15  0.68496829D-15  0.66988402D-15  0.44262070D-15
  0.36093813D-01  0.52001932D-16  0.17400578D-15  0.51387070D-02  0.80832796D-17
  0.50150424D-16  0.12342671D-04 -0.22160035D-17 -0.19678570D-17  0.13052362D-01
 -0.65261812D-02 -0.65261812D-02  0.48343323D-16  0.72815333D-18  0.96547735D-16
  0.67224649D-02 -0.33612325D-02 -0.33612325D-02 -0.14445845D-16  0.15139475D-16
  0.19323956D-16  0.95020855D-03 -0.47510427D-03 -0.47510427D-03  0.32996998D-17
  0.19707386D-16  0.12451862D-17  0.29118937D-02  0.12765798D-16  0.93750770D-17
 -0.43678406D-02 -0.22260324D-16 -0.43719140D-16 -0.43678406D-02 -0.16037071D-16
  0.15593909D-16 -0.21081527D-16  0.10301247D-02  0.99855864D-18 -0.33817171D-17
 -0.15451870D-02 -0.10016660D-16  0.19657526D-16 -0.15451870D-02  0.70209837D-17
 -0.95123746D-17  0.91090090D-17 -0.59409258D-02 -0.11074143D-01 -0.18773395D-01
 -0.28428453D-01 -0.35549880D-01 -0.30605135D-01 -0.11765731D-01  0.50982840D-04
 -0.87402176D-01 -0.16412581D+00 -0.27947794D+00 -0.43780054D+00 -0.58670423D+00
 -0.63107951D+00 -0.37889931D+00  0.24918013D+00  0.14745562D+00  0.71577650D-01
  0.25378647D-02 -0.14806607D+00 -0.14480538D+00 -0.95679038D-01 -0.25721940D-15
 -0.25155495D-15 -0.16621299D-15  0.41714322D-15  0.40795695D-15  0.26955441D-15
 -0.36093813D-01 -0.72290421D-16  0.94302730D-16 -0.51387070D-02  0.90253640D-17
 -0.41721690D-17 -0.12342671D-04  0.60897274D-18 -0.24877134D-17  0.13052362D-01
 -0.65261812D-02 -0.65261812D-02  0.23493957D-16 -0.30490988D-16  0.61732692D-16
  0.67224649D-02 -0.33612325D-02 -0.33612325D-02  0.12459842D-16 -0.18456555D-16
  0.97005833D-17  0.95020855D-03 -0.47510427D-03 -0.47510427D-03 -0.13408876D-16
 -0.72531811D-18  0.13333450D-17 -0.29118937D-02 -0.49276695D-17  0.51822429D-18
  0.43678406D-02  0.88590601D-17  0.64383054D-17  0.43678406D-02  0.59239483D-17
 -0.79929782D-17 -0.26634035D-16 -0.10301247D-02  0.53129051D-18  0.99913996D-18
  0.15451870D-02 -0.18484158D-17 -0.40087012D-17  0.15451870D-02  0.25454428D-18
  0.10112813D-17  0.37252038D-17
MO    4     MO 0.0        OCC NO =    2.0000000  ORB. ENERGY =   -0.855618
  0.31629342D-14  0.57044820D-14  0.84112554D-14  0.83057700D-14  0.21337405D-13
  0.21846971D-15  0.25757356D-01 -0.57310732D-15 -0.12341988D-15  0.45113108D-02
  0.22301926D-15 -0.20054727D-16 -0.27539282D-02  0.20504836D-16  0.71383489D-17
 -0.10140764D-13  0.50089827D-14  0.51317809D-14  0.74137945D-17 -0.79083533D-16
 -0.13324049D-15  0.72336431D-14 -0.36991497D-14 -0.35344934D-14  0.95180347D-16
 -0.44209589D-16  0.73085444D-16  0.54418212D-02  0.10143791D-01  0.17196219D-01
  0.26040143D-01  0.32563291D-01  0.28033960D-01  0.10777278D-01 -0.46699708D-04
  0.92524053D-01  0.17374378D+00  0.29585570D+00  0.46345620D+00  0.62108584D+00
  0.66806156D+00  0.40110328D+00 -0.26378239D+00 -0.15647175D+00 -0.79837079D-01
 -0.69920218D-02 -0.59901162D-01 -0.58582028D-01 -0.38707623D-01 -0.76684527D-17
 -0.74995792D-17 -0.49552891D-17 -0.56317843D-15 -0.55077620D-15 -0.36392113D-15
 -0.17507639D-01 -0.81326685D-16 -0.16708409D-15 -0.22660477D-02  0.84665852D-16
 -0.50236457D-16 -0.48108788D-03 -0.32620044D-17 -0.41599968D-17 -0.69071480D-02
  0.34535740D-02  0.34535740D-02  0.33455394D-16  0.19886799D-15 -0.10447782D-16
 -0.42028433D-02  0.21014216D-02  0.21014216D-02 -0.22896214D-16 -0.74209468D-16
 -0.31729782D-16 -0.79242935D-04  0.39621467D-04  0.39621467D-04  0.67470535D-16
 -0.96377551D-17  0.99897124D-17 -0.16739405D-02  0.17502000D-16  0.50421741D-17
  0.25109107D-02 -0.12328792D-15  0.30647899D-16  0.25109107D-02  0.70781920D-16
 -0.45774421D-16  0.33399727D-16 -0.49965666D-03 -0.57030394D-17  0.36501835D-17
  0.74948499D-03  0.43280725D-16 -0.28719472D-16  0.74948499D-03 -0.26171607D-16
  0.17768922D-16 -0.10714021D-17 -0.54418212D-02 -0.10143791D-01 -0.17196219D-01
 -0.26040143D-01 -0.32563291D-01 -0.28033960D-01 -0.10777278D-01  0.46699708D-04
 -0.92524053D-01 -0.17374378D+00 -0.29585570D+00 -0.46345620D+00 -0.62108584D+00
 -0.66806156D+00 -0.40110328D+00  0.26378239D+00  0.15647175D+00  0.79837079D-01
  0.69920218D-02 -0.59901162D-01 -0.58582028D-01 -0.38707623D-01  0.82453026D-15
  0.80637259D-15  0.53280446D-15  0.19654796D-15  0.19221961D-15  0.12700763D-15
 -0.17507639D-01  0.11512423D-15  0.32848797D-16 -0.22660477D-02 -0.59645471D-17
  0.53670978D-16 -0.48108788D-03 -0.47944514D-17 -0.19858520D-17  0.69071480D-02
 -0.34535740D-02 -0.34535740D-02 -0.11422924D-15 -0.13041243D-15  0.11538217D-15
  0.42028433D-02 -0.21014216D-02 -0.21014216D-02 -0.38041949D-16  0.53253631D-17
  0.17800306D-16  0.79242935D-04 -0.39621467D-04 -0.39621467D-04  0.58186722D-17
 -0.53030014D-16  0.36050167D-17 -0.16739405D-02  0.32818388D-16  0.19610569D-16
  0.25109107D-02 -0.26269290D-16  0.26544306D-16  0.25109107D-02 -0.72185874D-16
 -0.85376014D-16 -0.22564421D-16 -0.49965666D-03 -0.11585190D-16 -0.17295237D-17
  0.74948499D-03  0.15577476D-16 -0.17929942D-16  0.74948499D-03  0.19178095D-16
  0.23118513D-16 -0.20400228D-16
MO    5     MO 0.0        OCC NO =    2.0000000  ORB. ENERGY =   -0.265302
 -0.36532451D-01 -0.65887780D-01 -0.97151493D-01 -0.53536413D-01 -0.25677199D-01
  0.10406315D-03  0.94732453D-13 -0.27842682D-15 -0.25802309D-15 -0.20012981D-11
  0.45836247D-17  0.63092739D-16 -0.33678465D-11 -0.13092557D-16  0.31622803D-16
 -0.56540636D-02  0.28270318D-02  0.28270318D-02 -0.68809856D-17  0.76909238D-17
  0.58864071D-17 -0.58690565D-02  0.29345282D-02  0.29345282D-02 -0.31334081D-16
 -0.19043209D-16  0.52744136D-18 -0.80140011D-04 -0.14938445D-03 -0.25324337D-03
 -0.38348510D-03 -0.47954947D-03 -0.41284742D-03 -0.15871362D-03  0.68773210D-06
 -0.23035417D-01 -0.43256434D-01 -0.73658247D-01 -0.11538521D+00 -0.15462975D+00
 -0.16632515D+00 -0.99861401D-01  0.65673059D-01  0.42146472D-01  0.42502470D-01
  0.10233278D-01 -0.15045818D+01 -0.14714481D+01 -0.97224800D+00 -0.16148655D-14
 -0.15793032D-14 -0.10435124D-14  0.24511720D-14  0.23971926D-14  0.15839265D-14
 -0.33174358D+00 -0.35783393D-15  0.53870385D-15 -0.47090907D-01 -0.66666697D-16
  0.85598666D-16 -0.77617550D-03 -0.30249515D-17 -0.40813767D-17 -0.35742820D-01
  0.17871410D-01  0.17871410D-01 -0.22420257D-15 -0.86872732D-16  0.41277422D-16
 -0.12435772D-01  0.62178862D-02  0.62178862D-02 -0.63475111D-16 -0.54155532D-16
  0.18832199D-17 -0.15395559D-02  0.76977794D-03  0.76977794D-03 -0.20811736D-16
 -0.29175283D-17 -0.63915347D-18 -0.82324659D-02  0.17858639D-17 -0.10246749D-16
  0.12348699D-01 -0.24344863D-16  0.32333400D-16  0.12348699D-01  0.18987271D-16
 -0.15931517D-17 -0.93089544D-16 -0.15509822D-02  0.61084933D-17  0.36356018D-17
  0.23264733D-02 -0.19147671D-16 -0.59520953D-17  0.23264733D-02  0.82219078D-18
 -0.49547100D-17 -0.15403232D-16 -0.80140012D-04 -0.14938445D-03 -0.25324338D-03
 -0.38348511D-03 -0.47954947D-03 -0.41284742D-03 -0.15871362D-03  0.68773211D-06
 -0.23035417D-01 -0.43256434D-01 -0.73658247D-01 -0.11538521D+00 -0.15462975D+00
 -0.16632515D+00 -0.99861401D-01  0.65673059D-01  0.42146472D-01  0.42502470D-01
  0.10233278D-01  0.15045818D+01  0.14714481D+01  0.97224800D+00 -0.12137922D-14
 -0.11870623D-14 -0.78434223D-15  0.24511222D-14  0.23971440D-14  0.15838944D-14
  0.33174358D+00 -0.27300499D-15  0.52800138D-15  0.47090907D-01 -0.21429953D-16
  0.10818749D-15  0.77617550D-03  0.27088432D-17 -0.50001996D-17 -0.35742820D-01
  0.17871410D-01  0.17871410D-01  0.67064035D-16  0.22542524D-16  0.17627974D-16
 -0.12435772D-01  0.62178862D-02  0.62178862D-02  0.12184617D-16  0.15649475D-16
  0.35633679D-17 -0.15395559D-02  0.76977794D-03  0.76977794D-03 -0.19604749D-16
 -0.33925010D-16  0.23213709D-17  0.82324659D-02  0.23008764D-17  0.79088135D-17
 -0.12348699D-01 -0.21817162D-16 -0.12466877D-16 -0.12348699D-01  0.14914533D-16
 -0.11259564D-16  0.49113125D-16  0.15509822D-02 -0.16830244D-17  0.51834305D-18
 -0.23264733D-02  0.68051023D-17 -0.52671186D-17 -0.23264733D-02 -0.17560290D-17
  0.37120894D-17  0.29288311D-17
MO    6     MO 0.0        OCC NO =    2.0000000  ORB. ENERGY =   -0.133013
  0.42255971D-16  0.76210385D-16  0.11237217D-15  0.18386208D-16  0.30848882D-15
 -0.23833798D-16 -0.12831648D-15 -0.11249116D-01  0.18585489D-01  0.30578289D-15
 -0.34219399D-02  0.56536376D-02  0.29409253D-15  0.44954419D-05 -0.74272488D-05
  0.33509549D-15 -0.27804403D-15 -0.57051459D-16  0.43627833D-14 -0.13968175D-13
  0.19838835D-15 -0.32092352D-16  0.15854757D-15 -0.12645522D-15 -0.15504116D-13
 -0.17623019D-14 -0.32511989D-16 -0.36571482D-15 -0.68170827D-15 -0.11556631D-14
 -0.17500145D-14 -0.21883993D-14 -0.18840080D-14 -0.72428145D-15  0.31384301D-17
  0.28862300D-15  0.54198287D-15  0.92290336D-15  0.14457226D-14  0.19374384D-14
  0.20839763D-14  0.12512166D-14 -0.82285268D-15  0.93907436D-16  0.63423329D-15
  0.30261894D-15  0.11088416D-13  0.10844229D-13  0.71652407D-14 -0.91057703D+00
 -0.89052444D+00 -0.58840715D+00  0.15044310D+01  0.14713007D+01  0.97215056D+00
  0.22591739D-14 -0.20178215D+00  0.33337906D+00  0.83516011D-15 -0.34606932D-01
  0.57176648D-01  0.73933498D-16 -0.18963795D-02  0.31331475D-02  0.17778175D-15
 -0.23149655D-14  0.21371837D-14 -0.12241253D-01  0.20224672D-01  0.17229679D-15
 -0.30095444D-16 -0.31847304D-15  0.34856848D-15 -0.66066592D-02  0.10915346D-01
  0.15294000D-16  0.11132713D-15 -0.14348956D-15  0.32162433D-16 -0.10724158D-02
  0.17718167D-02  0.64712941D-16 -0.26357505D-15  0.13673798D-02 -0.22591483D-02
  0.22219207D-14 -0.54694986D-02  0.90365593D-02 -0.14311955D-14  0.13673592D-02
 -0.22591143D-02 -0.12449840D-15  0.13124662D-15  0.57056277D-03 -0.94266855D-03
 -0.50965137D-15 -0.22822519D-02  0.37706756D-02  0.11591151D-15  0.57056361D-03
 -0.94266993D-03  0.60556261D-16  0.47953881D-16  0.89388113D-16  0.15153483D-15
  0.22946839D-15  0.28695102D-15  0.24703810D-15  0.94970465D-16 -0.41152257D-18
 -0.25357460D-16 -0.47616819D-16 -0.81083230D-16 -0.12701640D-15 -0.17021692D-15
 -0.18309125D-15 -0.10992774D-15  0.72293110D-16 -0.63506402D-16 -0.71095134D-16
 -0.81108106D-15  0.59640525D-14  0.58327131D-14  0.38539201D-14 -0.91057703D+00
 -0.89052444D+00 -0.58840715D+00  0.15044310D+01  0.14713007D+01  0.97215056D+00
  0.13770576D-14 -0.20178215D+00  0.33337906D+00  0.57990050D-15 -0.34606932D-01
  0.57176648D-01  0.12508326D-15 -0.18963795D-02  0.31331475D-02  0.86901649D-15
 -0.14737439D-14  0.60472740D-15  0.12241253D-01 -0.20224672D-01  0.39915854D-16
  0.18263067D-16 -0.10454876D-16 -0.78081913D-17  0.66066592D-02 -0.10915346D-01
  0.83268160D-17 -0.10706578D-15  0.14594592D-16  0.92471189D-16  0.10724158D-02
 -0.17718167D-02  0.37597527D-18  0.73666428D-15  0.13673798D-02 -0.22591483D-02
 -0.10142163D-14 -0.54694986D-02  0.90365593D-02 -0.11957766D-14  0.13673592D-02
 -0.22591143D-02  0.86548553D-16 -0.37681885D-16  0.57056277D-03 -0.94266855D-03
 -0.97769400D-16 -0.22822519D-02  0.37706756D-02  0.21081506D-15  0.57056361D-03
 -0.94266993D-03 -0.59581207D-16
MO    7     MO 0.0        OCC NO =    2.0000000  ORB. ENERGY =   -0.133013
 -0.49479964D-17 -0.89239152D-17 -0.13158308D-16  0.29658926D-15 -0.93017841D-15
  0.30892600D-16 -0.11341258D-15  0.18585489D-01  0.11249116D-01 -0.13312254D-14
  0.56536376D-02  0.34219399D-02  0.26155689D-15 -0.74272488D-05 -0.44954419D-05
  0.43473576D-15 -0.97670753D-16 -0.33706500D-15 -0.69148685D-14 -0.84096706D-14
  0.23040678D-15 -0.91718646D-16  0.60861941D-16  0.30856706D-16  0.25559732D-13
 -0.15490725D-14  0.10141535D-15 -0.11309463D-15 -0.21081329D-15 -0.35738035D-15
 -0.54117918D-15 -0.67674647D-15 -0.58261567D-15 -0.22397873D-15  0.97053652D-18
  0.10987400D-16  0.20632391D-16  0.35133403D-16  0.55036268D-16  0.73755075D-16
  0.79333527D-16  0.47631745D-16 -0.31324640D-16  0.42883313D-15 -0.11066102D-15
  0.49838281D-15  0.15760941D-13  0.15413856D-13  0.10184587D-13  0.15044310D+01
  0.14713007D+01  0.97215056D+00  0.91057703D+00  0.89052444D+00  0.58840715D+00
  0.25376748D-14  0.33337906D+00  0.20178215D+00  0.26739090D-15  0.57176648D-01
  0.34606932D-01  0.95620117D-16  0.31331475D-02  0.18963795D-02  0.82210081D-15
  0.13455876D-15 -0.95665956D-15  0.20224672D-01  0.12241253D-01  0.48503298D-14
 -0.29499894D-15 -0.77165573D-16  0.37216451D-15  0.10915346D-01  0.66066592D-02
  0.87629490D-16 -0.11111707D-15  0.85675915D-16  0.25441153D-16  0.17718167D-02
  0.10724158D-02 -0.26986483D-15  0.28301548D-15 -0.22591483D-02 -0.13673798D-02
 -0.29720773D-14  0.90365593D-02  0.54694986D-02  0.21230309D-14 -0.22591143D-02
 -0.13673592D-02 -0.51308628D-14 -0.73440309D-16 -0.94266855D-03 -0.57056277D-03
  0.36353764D-15  0.37706756D-02  0.22822519D-02 -0.14321672D-15 -0.94266993D-03
 -0.57056361D-03  0.84611476D-16 -0.53959070D-16 -0.10058205D-15 -0.17051129D-15
 -0.25820435D-15 -0.32288545D-15 -0.27797429D-15 -0.10686347D-15  0.46305690D-18
  0.11033997D-15  0.20719892D-15  0.35282403D-15  0.55269675D-15  0.74067867D-15
  0.79669978D-15  0.47833750D-15 -0.31457486D-15 -0.95593138D-16  0.29107958D-15
  0.21154821D-15  0.15339230D-13  0.15001432D-13  0.99120803D-14  0.15044310D+01
  0.14713007D+01  0.97215056D+00  0.91057703D+00  0.89052444D+00  0.58840715D+00
  0.31113361D-14  0.33337906D+00  0.20178215D+00  0.12002661D-15  0.57176648D-01
  0.34606932D-01 -0.19808624D-16  0.31331475D-02  0.18963795D-02 -0.13618464D-14
  0.18963441D-14 -0.53449765D-15 -0.20224672D-01 -0.12241253D-01  0.51619174D-14
  0.88196957D-16 -0.34248132D-15  0.25428436D-15 -0.10915346D-01 -0.66066592D-02
 -0.15862262D-15  0.69684961D-16 -0.31227079D-16 -0.38457882D-16 -0.17718167D-02
 -0.10724158D-02  0.64408638D-16  0.54793035D-15 -0.22591483D-02 -0.13673798D-02
 -0.21841699D-14  0.90365593D-02  0.54694986D-02  0.54037881D-15 -0.22591143D-02
 -0.13673592D-02 -0.96792899D-16  0.47540756D-16 -0.94266855D-03 -0.57056277D-03
  0.47540756D-16  0.37706756D-02  0.22822519D-02 -0.19016303D-15 -0.94266993D-03
 -0.57056361D-03  0.12743758D-15
MO    8     MO 0.0        OCC NO =    2.0000000  ORB. ENERGY =   -0.109193
 -0.11924017D-16 -0.21505456D-16 -0.31709783D-16  0.56253980D-15  0.59442673D-15
  0.74418847D-16  0.50984702D-14  0.18038514D-13  0.82509104D-14  0.34681948D-14
  0.78569255D-14  0.50661548D-14 -0.14266537D-14  0.16235658D-14  0.85313147D-15
  0.33358549D-15 -0.14419955D-16 -0.31916554D-15  0.15667300D-01  0.72812273D-02
  0.43024386D-15 -0.17478302D-15  0.11112263D-15  0.63660392D-16 -0.68033456D-02
 -0.31617896D-02 -0.10620005D-15 -0.84420941D-16 -0.15736429D-15 -0.26677116D-15
 -0.40397016D-15 -0.50516610D-15 -0.43490096D-15 -0.16719181D-15  0.72446946D-18
  0.18461539D-16  0.34667500D-16  0.59032774D-16  0.92474492D-16  0.12392670D-15
  0.13329987D-15  0.80033069D-16 -0.52633113D-16  0.13725560D-15  0.57413288D-15
 -0.30192088D-14 -0.22814861D-12 -0.22312436D-12 -0.14742770D-12 -0.16670651D+01
 -0.16303533D+01 -0.10772433D+01 -0.77475251D+00 -0.75769103D+00 -0.50063850D+00
 -0.50204803D-13 -0.36779390D+00 -0.17092869D+00 -0.84541284D-14 -0.69143713D-01
 -0.32133877D-01 -0.92324128D-15 -0.39686544D-02 -0.18443941D-02 -0.12796585D-14
 -0.12410120D-14  0.25206705D-14 -0.16521016D-01 -0.76779838D-02 -0.81052674D-15
 -0.11113150D-14  0.69571035D-15  0.41560469D-15 -0.63432054D-02 -0.29479438D-02
 -0.38717750D-16  0.12034950D-15 -0.89954402D-16 -0.30395094D-16 -0.44625749D-02
 -0.20739389D-02 -0.50477929D-16 -0.10547893D-14  0.80940949D-03  0.37616529D-03
  0.32326930D-14 -0.32375991D-02 -0.15046431D-02 -0.68325059D-16  0.80937061D-03
  0.37614722D-03  0.34457082D-14 -0.26098550D-15  0.97513121D-03  0.45318287D-03
  0.79098050D-17 -0.39005268D-02 -0.18127324D-02  0.77504669D-15  0.97513321D-03
  0.45318380D-03 -0.25691589D-15  0.58974326D-16  0.10993070D-15  0.18635956D-15
  0.28220330D-15  0.35289622D-15  0.30381077D-15  0.11679595D-15 -0.50609598D-18
 -0.75249851D-16 -0.14130589D-15 -0.24061957D-15 -0.37692913D-15 -0.50512937D-15
 -0.54333475D-15 -0.32621747D-15  0.21453433D-15 -0.14130338D-15 -0.25632284D-15
  0.21945221D-14 -0.22747973D-12 -0.22247021D-12 -0.14699547D-12  0.16670651D+01
  0.16303533D+01  0.10772433D+01  0.77475251D+00  0.75769103D+00  0.50063850D+00
 -0.50337277D-13  0.36779390D+00  0.17092869D+00 -0.78870217D-14  0.69143713D-01
  0.32133877D-01 -0.82293006D-15  0.39686544D-02  0.18443941D-02  0.24477664D-14
 -0.30034061D-14  0.55563978D-15 -0.16521016D-01 -0.76779838D-02  0.98829709D-15
  0.75535542D-15 -0.61988154D-16 -0.69336727D-15 -0.63432054D-02 -0.29479438D-02
 -0.40856245D-16 -0.21651055D-15  0.75943816D-16  0.14056673D-15 -0.44625749D-02
 -0.20739389D-02 -0.22084904D-16 -0.97799127D-15 -0.80940949D-03 -0.37616529D-03
  0.32534209D-14  0.32375991D-02  0.15046431D-02 -0.31944710D-15 -0.80937061D-03
 -0.37614722D-03 -0.55856775D-14  0.19717743D-16 -0.97513121D-03 -0.45318287D-03
 -0.10045729D-15  0.39005268D-02  0.18127324D-02  0.41304059D-16 -0.97513321D-03
 -0.45318380D-03  0.32273154D-15
MO    9     MO 0.0        OCC NO =    2.0000000  ORB. ENERGY =   -0.109193
 -0.85785221D-17 -0.15471718D-16 -0.22813039D-16  0.74511449D-15 -0.60888229D-15
  0.16136104D-15 -0.51364280D-14 -0.87714969D-14  0.17644171D-13 -0.41052120D-14
 -0.29168542D-14  0.93674879D-14 -0.69397283D-16 -0.59378043D-15  0.15496385D-14
  0.11992518D-15  0.13723252D-15 -0.25715770D-15 -0.72812273D-02  0.15667300D-01
 -0.52654002D-15 -0.19620517D-15 -0.83721734D-16  0.27992690D-15  0.31617896D-02
 -0.68033456D-02  0.24613554D-15  0.16528416D-15  0.30809683D-15  0.52229987D-15
  0.79091594D-15  0.98904315D-15  0.85147403D-15  0.32733770D-15 -0.14184078D-17
 -0.22276704D-15 -0.41831706D-15 -0.71232180D-15 -0.11158479D-14 -0.14953674D-14
 -0.16084693D-14 -0.96572286D-15  0.63509998D-15  0.17775437D-15 -0.73542888D-15
 -0.34839363D-16  0.23018659D-12  0.22511746D-12  0.14874462D-12  0.77475251D+00
  0.75769103D+00  0.50063850D+00 -0.16670651D+01 -0.16303533D+01 -0.10772433D+01
  0.51623243D-13  0.17092869D+00 -0.36779390D+00  0.75269267D-14  0.32133877D-01
 -0.69143713D-01  0.58538373D-15  0.18443941D-02 -0.39686544D-02  0.16774033D-14
 -0.59857692D-15 -0.10788264D-14  0.76779838D-02 -0.16521016D-01 -0.77567748D-15
  0.72290226D-15 -0.43433665D-15 -0.28856561D-15  0.29479438D-02 -0.63432054D-02
 -0.16047685D-15 -0.34934694D-15  0.38007446D-15 -0.30727521D-16  0.20739389D-02
 -0.44625749D-02 -0.29890643D-16  0.11419931D-15 -0.37616529D-03  0.80940949D-03
  0.10237525D-14  0.15046431D-02 -0.32375991D-02 -0.13663504D-14 -0.37614722D-03
  0.80937061D-03 -0.46819065D-15  0.95774674D-16 -0.45318287D-03  0.97513121D-03
  0.23729812D-15  0.18127324D-02 -0.39005268D-02 -0.52462214D-15 -0.45318380D-03