 Molden2AIM, Version 4.0.0 (06/02/2016)           Time: Fri Jun 29 19:44:48 2018
GAUSSIAN             50 MOL ORBITALS    787 PRIMITIVES        5 NUCLEI
  Ge   1    (CENTRE  1)   0.00000000  0.00000000  0.00000000  CHARGE = 32.0
  Cl   2    (CENTRE  2)   2.32635868  2.32635868  2.32635868  CHARGE = 17.0
  Cl   3    (CENTRE  3)   2.32635868 -2.32635868 -2.32635868  CHARGE = 17.0
  Cl   4    (CENTRE  4)  -2.32635868  2.32635868 -2.32635868  CHARGE = 17.0
  Cl   5    (CENTRE  5)  -2.32635868 -2.32635868  2.32635868  CHARGE = 17.0
CENTRE ASSIGNMENTS    1  1  1  1  1  1  1  1  1  1  1  1  1  1  1  1  1  1  1  1
CENTRE ASSIGNMENTS    1  1  1  1  1  1  1  1  1  1  1  1  1  1  1  1  1  1  1  1
CENTRE ASSIGNMENTS    1  1  1  1  1  1  1  1  1  1  1  1  1  1  1  1  1  1  1  1
CENTRE ASSIGNMENTS    1  1  1  1  1  1  1  1  1  1  1  1  1  1  1  1  1  1  1  1
CENTRE ASSIGNMENTS    1  1  1  1  1  1  1  1  1  1  1  1  1  1  1  1  1  1  1  1
CENTRE ASSIGNMENTS    1  1  1  1  1  1  1  1  1  1  1  1  1  1  1  1  1  1  1  1
CENTRE ASSIGNMENTS    1  1  1  1  1  1  1  1  1  1  1  1  1  1  1  1  1  1  1  1
CENTRE ASSIGNMENTS    1  1  1  1  1  1  1  1  1  1  1  1  1  1  1  1  1  1  1  1
CENTRE ASSIGNMENTS    1  1  1  1  1  1  1  1  1  1  1  1  1  1  1  1  1  1  1  1
CENTRE ASSIGNMENTS    1  1  1  1  1  1  1  1  1  1  1  1  1  1  1  1  1  1  1  1
CENTRE ASSIGNMENTS    1  1  1  1  1  1  1  1  1  1  1  1  1  1  1  1  1  1  1  1
CENTRE ASSIGNMENTS    1  1  1  1  1  1  1  1  1  1  1  1  1  1  1  1  1  1  1  1
CENTRE ASSIGNMENTS    1  1  1  1  1  1  1  1  1  1  1  1  1  1  1  1  1  1  1  1
CENTRE ASSIGNMENTS    1  1  1  2  2  2  2  2  2  2  2  2  2  2  2  2  2  2  2  2
CENTRE ASSIGNMENTS    2  2  2  2  2  2  2  2  2  2  2  2  2  2  2  2  2  2  2  2
CENTRE ASSIGNMENTS    2  2  2  2  2  2  2  2  2  2  2  2  2  2  2  2  2  2  2  2
CENTRE ASSIGNMENTS    2  2  2  2  2  2  2  2  2  2  2  2  2  2  2  2  2  2  2  2
CENTRE ASSIGNMENTS    2  2  2  2  2  2  2  2  2  2  2  2  2  2  2  2  2  2  2  2
CENTRE ASSIGNMENTS    2  2  2  2  2  2  2  2  2  2  2  2  2  2  2  2  2  2  2  2
CENTRE ASSIGNMENTS    2  2  2  2  2  2  2  2  2  2  2  2  2  2  3  3  3  3  3  3
CENTRE ASSIGNMENTS    3  3  3  3  3  3  3  3  3  3  3  3  3  3  3  3  3  3  3  3
CENTRE ASSIGNMENTS    3  3  3  3  3  3  3  3  3  3  3  3  3  3  3  3  3  3  3  3
CENTRE ASSIGNMENTS    3  3  3  3  3  3  3  3  3  3  3  3  3  3  3  3  3  3  3  3
CENTRE ASSIGNMENTS    3  3  3  3  3  3  3  3  3  3  3  3  3  3  3  3  3  3  3  3
CENTRE ASSIGNMENTS    3  3  3  3  3  3  3  3  3  3  3  3  3  3  3  3  3  3  3  3
CENTRE ASSIGNMENTS    3  3  3  3  3  3  3  3  3  3  3  3  3  3  3  3  3  3  3  3
CENTRE ASSIGNMENTS    3  3  3  3  3  4  4  4  4  4  4  4  4  4  4  4  4  4  4  4
CENTRE ASSIGNMENTS    4  4  4  4  4  4  4  4  4  4  4  4  4  4  4  4  4  4  4  4
CENTRE ASSIGNMENTS    4  4  4  4  4  4  4  4  4  4  4  4  4  4  4  4  4  4  4  4
CENTRE ASSIGNMENTS    4  4  4  4  4  4  4  4  4  4  4  4  4  4  4  4  4  4  4  4
CENTRE ASSIGNMENTS    4  4  4  4  4  4  4  4  4  4  4  4  4  4  4  4  4  4  4  4
CENTRE ASSIGNMENTS    4  4  4  4  4  4  4  4  4  4  4  4  4  4  4  4  4  4  4  4
CENTRE ASSIGNMENTS    4  4  4  4  4  4  4  4  4  4  4  4  4  4  4  4  5  5  5  5
CENTRE ASSIGNMENTS    5  5  5  5  5  5  5  5  5  5  5  5  5  5  5  5  5  5  5  5
CENTRE ASSIGNMENTS    5  5  5  5  5  5  5  5  5  5  5  5  5  5  5  5  5  5  5  5
CENTRE ASSIGNMENTS    5  5  5  5  5  5  5  5  5  5  5  5  5  5  5  5  5  5  5  5
CENTRE ASSIGNMENTS    5  5  5  5  5  5  5  5  5  5  5  5  5  5  5  5  5  5  5  5
CENTRE ASSIGNMENTS    5  5  5  5  5  5  5  5  5  5  5  5  5  5  5  5  5  5  5  5
CENTRE ASSIGNMENTS    5  5  5  5  5  5  5  5  5  5  5  5  5  5  5  5  5  5  5  5
CENTRE ASSIGNMENTS    5  5  5  5  5  5  5
TYPE ASSIGNMENTS      1  1  1  1  1  1  1  1  1  1  1  1  1  1  1  1  1  1  1  1
TYPE ASSIGNMENTS      1  1  1  1  1  1  1  1  1  1  1  1  1  1  1  1  1  1  1  1
TYPE ASSIGNMENTS      1  1  1  1  1  1  1  1  1  1  1  1  1  1  1  1  1  1  1  1
TYPE ASSIGNMENTS      1  1  1  1  1  1  1  1  1  1  1  1  1  1  1  2  2  2  2  2
TYPE ASSIGNMENTS      2  2  2  2  2  2  3  3  3  3  3  3  3  3  3  3  3  4  4  4
TYPE ASSIGNMENTS      4  4  4  4  4  4  4  4  2  2  2  2  2  2  2  2  2  2  2  3
TYPE ASSIGNMENTS      3  3  3  3  3  3  3  3  3  3  4  4  4  4  4  4  4  4  4  4
TYPE ASSIGNMENTS      4  2  2  2  2  2  2  2  2  2  2  2  3  3  3  3  3  3  3  3
TYPE ASSIGNMENTS      3  3  3  4  4  4  4  4  4  4  4  4  4  4  2  3  4  2  3  4
TYPE ASSIGNMENTS      2  3  4  5  5  5  5  5  5  5  6  6  6  6  6  6  6  7  7  7
TYPE ASSIGNMENTS      7  7  7  7  8  8  8  8  8  8  8  9  9  9  9  9  9  9 10 10
TYPE ASSIGNMENTS     10 10 10 10 10  5  6  7  8  9 10  5  6  7  8  9 10  5  6  7
TYPE ASSIGNMENTS      8  9 10 11 12 13 17 14 15 18 19 16 20 11 12 13 17 14 15 18
TYPE ASSIGNMENTS     19 16 20  1  1  1  1  1  1  1  1  1  1  1  1  1  1  1  1  1
TYPE ASSIGNMENTS      1  1  1  1  1  1  1  1  1  1  1  1  1  1  1  1  1  1  1  1
TYPE ASSIGNMENTS      1  1  1  1  1  2  2  2  2  2  2  2  3  3  3  3  3  3  3  4
TYPE ASSIGNMENTS      4  4  4  4  4  4  2  2  2  2  2  2  2  3  3  3  3  3  3  3
TYPE ASSIGNMENTS      4  4  4  4  4  4  4  2  3  4  2  3  4  2  3  4  5  6  7  8
TYPE ASSIGNMENTS      9 10  5  6  7  8  9 10  5  6  7  8  9 10 11 12 13 17 14 15
TYPE ASSIGNMENTS     18 19 16 20 11 12 13 17 14 15 18 19 16 20  1  1  1  1  1  1
TYPE ASSIGNMENTS      1  1  1  1  1  1  1  1  1  1  1  1  1  1  1  1  1  1  1  1
TYPE ASSIGNMENTS      1  1  1  1  1  1  1  1  1  1  1  1  1  1  1  1  2  2  2  2
TYPE ASSIGNMENTS      2  2  2  3  3  3  3  3  3  3  4  4  4  4  4  4  4  2  2  2
TYPE ASSIGNMENTS      2  2  2  2  3  3  3  3  3  3  3  4  4  4  4  4  4  4  2  3
TYPE ASSIGNMENTS      4  2  3  4  2  3  4  5  6  7  8  9 10  5  6  7  8  9 10  5
TYPE ASSIGNMENTS      6  7  8  9 10 11 12 13 17 14 15 18 19 16 20 11 12 13 17 14
TYPE ASSIGNMENTS     15 18 19 16 20  1  1  1  1  1  1  1  1  1  1  1  1  1  1  1
TYPE ASSIGNMENTS      1  1  1  1  1  1  1  1  1  1  1  1  1  1  1  1  1  1  1  1
TYPE ASSIGNMENTS      1  1  1  1  1  1  1  2  2  2  2  2  2  2  3  3  3  3  3  3
TYPE ASSIGNMENTS      3  4  4  4  4  4  4  4  2  2  2  2  2  2  2  3  3  3  3  3
TYPE ASSIGNMENTS      3  3  4  4  4  4  4  4  4  2  3  4  2  3  4  2  3  4  5  6
TYPE ASSIGNMENTS      7  8  9 10  5  6  7  8  9 10  5  6  7  8  9 10 11 12 13 17
TYPE ASSIGNMENTS     14 15 18 19 16 20 11 12 13 17 14 15 18 19 16 20  1  1  1  1
TYPE ASSIGNMENTS      1  1  1  1  1  1  1  1  1  1  1  1  1  1  1  1  1  1  1  1
TYPE ASSIGNMENTS      1  1  1  1  1  1  1  1  1  1  1  1  1  1  1  1  1  1  2  2
TYPE ASSIGNMENTS      2  2  2  2  2  3  3  3  3  3  3  3  4  4  4  4  4  4  4  2
TYPE ASSIGNMENTS      2  2  2  2  2  2  3  3  3  3  3  3  3  4  4  4  4  4  4  4
TYPE ASSIGNMENTS      2  3  4  2  3  4  2  3  4  5  6  7  8  9 10  5  6  7  8  9
TYPE ASSIGNMENTS     10  5  6  7  8  9 10 11 12 13 17 14 15 18 19 16 20 11 12 13
TYPE ASSIGNMENTS     17 14 15 18 19 16 20
EXPONENTS  0.7447967D+07 0.1115318D+07 0.2538426D+06 0.7191529D+05 0.2347018D+05
EXPONENTS  0.8477492D+04 0.3308391D+04 0.1372605D+04 0.5982201D+03 0.2713860D+03
EXPONENTS  0.1269780D+03 0.6022207D+02 0.2801858D+02 0.1351752D+02 0.6309406D+01
EXPONENTS  0.2904534D+01 0.1287556D+01 0.1677320D+00 0.7447967D+07 0.1115318D+07
EXPONENTS  0.2538426D+06 0.7191529D+05 0.2347018D+05 0.8477492D+04 0.3308391D+04
EXPONENTS  0.1372605D+04 0.5982201D+03 0.2713860D+03 0.1269780D+03 0.6022207D+02
EXPONENTS  0.2801858D+02 0.1351752D+02 0.6309406D+01 0.2904534D+01 0.1287556D+01
EXPONENTS  0.1677320D+00 0.7447967D+07 0.1115318D+07 0.2538426D+06 0.7191529D+05
EXPONENTS  0.2347018D+05 0.8477492D+04 0.3308391D+04 0.1372605D+04 0.5982201D+03
EXPONENTS  0.2713860D+03 0.1269780D+03 0.6022207D+02 0.2801858D+02 0.1351752D+02
EXPONENTS  0.6309406D+01 0.2904534D+01 0.1287556D+01 0.1677320D+00 0.7447967D+07
EXPONENTS  0.1115318D+07 0.2538426D+06 0.7191529D+05 0.2347018D+05 0.8477492D+04
EXPONENTS  0.3308391D+04 0.1372605D+04 0.5982201D+03 0.2713860D+03 0.1269780D+03
EXPONENTS  0.6022207D+02 0.2801858D+02 0.1351752D+02 0.6309406D+01 0.2904534D+01
EXPONENTS  0.1287556D+01 0.1677320D+00 0.3365520D+00 0.7106900D-01 0.2737000D-01
EXPONENTS  0.6979598D+04 0.1654165D+04 0.5360286D+03 0.2035371D+03 0.8523753D+02
EXPONENTS  0.3784196D+02 0.1740651D+02 0.7881492D+01 0.3533213D+01 0.1521473D+01
EXPONENTS  0.1990930D+00 0.6979598D+04 0.1654165D+04 0.5360286D+03 0.2035371D+03
EXPONENTS  0.8523753D+02 0.3784196D+02 0.1740651D+02 0.7881492D+01 0.3533213D+01
EXPONENTS  0.1521473D+01 0.1990930D+00 0.6979598D+04 0.1654165D+04 0.5360286D+03
EXPONENTS  0.2035371D+03 0.8523753D+02 0.3784196D+02 0.1740651D+02 0.7881492D+01
EXPONENTS  0.3533213D+01 0.1521473D+01 0.1990930D+00 0.6979598D+04 0.1654165D+04
EXPONENTS  0.5360286D+03 0.2035371D+03 0.8523753D+02 0.3784196D+02 0.1740651D+02
EXPONENTS  0.7881492D+01 0.3533213D+01 0.1521473D+01 0.1990930D+00 0.6979598D+04
EXPONENTS  0.1654165D+04 0.5360286D+03 0.2035371D+03 0.8523753D+02 0.3784196D+02
EXPONENTS  0.1740651D+02 0.7881492D+01 0.3533213D+01 0.1521473D+01 0.1990930D+00
EXPONENTS  0.6979598D+04 0.1654165D+04 0.5360286D+03 0.2035371D+03 0.8523753D+02
EXPONENTS  0.3784196D+02 0.1740651D+02 0.7881492D+01 0.3533213D+01 0.1521473D+01
EXPONENTS  0.1990930D+00 0.6979598D+04 0.1654165D+04 0.5360286D+03 0.2035371D+03
EXPONENTS  0.8523753D+02 0.3784196D+02 0.1740651D+02 0.7881492D+01 0.3533213D+01
EXPONENTS  0.1521473D+01 0.1990930D+00 0.6979598D+04 0.1654165D+04 0.5360286D+03
EXPONENTS  0.2035371D+03 0.8523753D+02 0.3784196D+02 0.1740651D+02 0.7881492D+01
EXPONENTS  0.3533213D+01 0.1521473D+01 0.1990930D+00 0.6979598D+04 0.1654165D+04
EXPONENTS  0.5360286D+03 0.2035371D+03 0.8523753D+02 0.3784196D+02 0.1740651D+02
EXPONENTS  0.7881492D+01 0.3533213D+01 0.1521473D+01 0.1990930D+00 0.5627040D+00
EXPONENTS  0.5627040D+00 0.5627040D+00 0.6703100D-01 0.6703100D-01 0.6703100D-01
EXPONENTS  0.2136800D-01 0.2136800D-01 0.2136800D-01 0.2822391D+03 0.8454996D+02
EXPONENTS  0.3207366D+02 0.1349750D+02 0.5958550D+01 0.2610788D+01 0.1103987D+01
EXPONENTS  0.2822391D+03 0.8454996D+02 0.3207366D+02 0.1349750D+02 0.5958550D+01
EXPONENTS  0.2610788D+01 0.1103987D+01 0.2822391D+03 0.8454996D+02 0.3207366D+02
EXPONENTS  0.1349750D+02 0.5958550D+01 0.2610788D+01 0.1103987D+01 0.2822391D+03
EXPONENTS  0.8454996D+02 0.3207366D+02 0.1349750D+02 0.5958550D+01 0.2610788D+01
EXPONENTS  0.1103987D+01 0.2822391D+03 0.8454996D+02 0.3207366D+02 0.1349750D+02
EXPONENTS  0.5958550D+01 0.2610788D+01 0.1103987D+01 0.2822391D+03 0.8454996D+02
EXPONENTS  0.3207366D+02 0.1349750D+02 0.5958550D+01 0.2610788D+01 0.1103987D+01
EXPONENTS  0.4240490D+00 0.4240490D+00 0.4240490D+00 0.4240490D+00 0.4240490D+00
EXPONENTS  0.4240490D+00 0.1520000D+00 0.1520000D+00 0.1520000D+00 0.1520000D+00
EXPONENTS  0.1520000D+00 0.1520000D+00 0.5280000D-01 0.5280000D-01 0.5280000D-01
EXPONENTS  0.5280000D-01 0.5280000D-01 0.5280000D-01 0.3458000D+00 0.3458000D+00
EXPONENTS  0.3458000D+00 0.3458000D+00 0.3458000D+00 0.3458000D+00 0.3458000D+00
EXPONENTS  0.3458000D+00 0.3458000D+00 0.3458000D+00 0.1323000D+00 0.1323000D+00
EXPONENTS  0.1323000D+00 0.1323000D+00 0.1323000D+00 0.1323000D+00 0.1323000D+00
EXPONENTS  0.1323000D+00 0.1323000D+00 0.1323000D+00 0.4561000D+06 0.6833000D+05
EXPONENTS  0.1555000D+05 0.4405000D+04 0.1439000D+04 0.5204000D+03 0.2031000D+03
EXPONENTS  0.8396000D+02 0.3620000D+02 0.1583000D+02 0.6334000D+01 0.2694000D+01
EXPONENTS  0.4313000D+00 0.4561000D+06 0.6833000D+05 0.1555000D+05 0.4405000D+04
EXPONENTS  0.1439000D+04 0.5204000D+03 0.2031000D+03 0.8396000D+02 0.3620000D+02
EXPONENTS  0.1583000D+02 0.6334000D+01 0.2694000D+01 0.4313000D+00 0.4561000D+06
EXPONENTS  0.6833000D+05 0.1555000D+05 0.4405000D+04 0.1439000D+04 0.5204000D+03
EXPONENTS  0.2031000D+03 0.8396000D+02 0.3620000D+02 0.1583000D+02 0.6334000D+01
EXPONENTS  0.2694000D+01 0.4313000D+00 0.9768000D+00 0.1625000D+00 0.5910000D-01
EXPONENTS  0.6633000D+03 0.1568000D+03 0.4998000D+02 0.1842000D+02 0.7240000D+01
EXPONENTS  0.2922000D+01 0.3818000D+00 0.6633000D+03 0.1568000D+03 0.4998000D+02
EXPONENTS  0.1842000D+02 0.7240000D+01 0.2922000D+01 0.3818000D+00 0.6633000D+03
EXPONENTS  0.1568000D+03 0.4998000D+02 0.1842000D+02 0.7240000D+01 0.2922000D+01
EXPONENTS  0.3818000D+00 0.6633000D+03 0.1568000D+03 0.4998000D+02 0.1842000D+02
EXPONENTS  0.7240000D+01 0.2922000D+01 0.3818000D+00 0.6633000D+03 0.1568000D+03
EXPONENTS  0.4998000D+02 0.1842000D+02 0.7240000D+01 0.2922000D+01 0.3818000D+00
EXPONENTS  0.6633000D+03 0.1568000D+03 0.4998000D+02 0.1842000D+02 0.7240000D+01
EXPONENTS  0.2922000D+01 0.3818000D+00 0.1022000D+01 0.1022000D+01 0.1022000D+01
EXPONENTS  0.1301000D+00 0.1301000D+00 0.1301000D+00 0.4190000D-01 0.4190000D-01
EXPONENTS  0.4190000D-01 0.1046000D+01 0.1046000D+01 0.1046000D+01 0.1046000D+01
EXPONENTS  0.1046000D+01 0.1046000D+01 0.3440000D+00 0.3440000D+00 0.3440000D+00
EXPONENTS  0.3440000D+00 0.3440000D+00 0.3440000D+00 0.1350000D+00 0.1350000D+00
EXPONENTS  0.1350000D+00 0.1350000D+00 0.1350000D+00 0.1350000D+00 0.7060000D+00
EXPONENTS  0.7060000D+00 0.7060000D+00 0.7060000D+00 0.7060000D+00 0.7060000D+00
EXPONENTS  0.7060000D+00 0.7060000D+00 0.7060000D+00 0.7060000D+00 0.3120000D+00
EXPONENTS  0.3120000D+00 0.3120000D+00 0.3120000D+00 0.3120000D+00 0.3120000D+00
EXPONENTS  0.3120000D+00 0.3120000D+00 0.3120000D+00 0.3120000D+00 0.4561000D+06
EXPONENTS  0.6833000D+05 0.1555000D+05 0.4405000D+04 0.1439000D+04 0.5204000D+03
EXPONENTS  0.2031000D+03 0.8396000D+02 0.3620000D+02 0.1583000D+02 0.6334000D+01
EXPONENTS  0.2694000D+01 0.4313000D+00 0.4561000D+06 0.6833000D+05 0.1555000D+05
EXPONENTS  0.4405000D+04 0.1439000D+04 0.5204000D+03 0.2031000D+03 0.8396000D+02
EXPONENTS  0.3620000D+02 0.1583000D+02 0.6334000D+01 0.2694000D+01 0.4313000D+00
EXPONENTS  0.4561000D+06 0.6833000D+05 0.1555000D+05 0.4405000D+04 0.1439000D+04
EXPONENTS  0.5204000D+03 0.2031000D+03 0.8396000D+02 0.3620000D+02 0.1583000D+02
EXPONENTS  0.6334000D+01 0.2694000D+01 0.4313000D+00 0.9768000D+00 0.1625000D+00
EXPONENTS  0.5910000D-01 0.6633000D+03 0.1568000D+03 0.4998000D+02 0.1842000D+02
EXPONENTS  0.7240000D+01 0.2922000D+01 0.3818000D+00 0.6633000D+03 0.1568000D+03
EXPONENTS  0.4998000D+02 0.1842000D+02 0.7240000D+01 0.2922000D+01 0.3818000D+00
EXPONENTS  0.6633000D+03 0.1568000D+03 0.4998000D+02 0.1842000D+02 0.7240000D+01
EXPONENTS  0.2922000D+01 0.3818000D+00 0.6633000D+03 0.1568000D+03 0.4998000D+02
EXPONENTS  0.1842000D+02 0.7240000D+01 0.2922000D+01 0.3818000D+00 0.6633000D+03
EXPONENTS  0.1568000D+03 0.4998000D+02 0.1842000D+02 0.7240000D+01 0.2922000D+01
EXPONENTS  0.3818000D+00 0.6633000D+03 0.1568000D+03 0.4998000D+02 0.1842000D+02
EXPONENTS  0.7240000D+01 0.2922000D+01 0.3818000D+00 0.1022000D+01 0.1022000D+01
EXPONENTS  0.1022000D+01 0.1301000D+00 0.1301000D+00 0.1301000D+00 0.4190000D-01
EXPONENTS  0.4190000D-01 0.4190000D-01 0.1046000D+01 0.1046000D+01 0.1046000D+01
EXPONENTS  0.1046000D+01 0.1046000D+01 0.1046000D+01 0.3440000D+00 0.3440000D+00
EXPONENTS  0.3440000D+00 0.3440000D+00 0.3440000D+00 0.3440000D+00 0.1350000D+00
EXPONENTS  0.1350000D+00 0.1350000D+00 0.1350000D+00 0.1350000D+00 0.1350000D+00
EXPONENTS  0.7060000D+00 0.7060000D+00 0.7060000D+00 0.7060000D+00 0.7060000D+00
EXPONENTS  0.7060000D+00 0.7060000D+00 0.7060000D+00 0.7060000D+00 0.7060000D+00
EXPONENTS  0.3120000D+00 0.3120000D+00 0.3120000D+00 0.3120000D+00 0.3120000D+00
EXPONENTS  0.3120000D+00 0.3120000D+00 0.3120000D+00 0.3120000D+00 0.3120000D+00
EXPONENTS  0.4561000D+06 0.6833000D+05 0.1555000D+05 0.4405000D+04 0.1439000D+04
EXPONENTS  0.5204000D+03 0.2031000D+03 0.8396000D+02 0.3620000D+02 0.1583000D+02
EXPONENTS  0.6334000D+01 0.2694000D+01 0.4313000D+00 0.4561000D+06 0.6833000D+05
EXPONENTS  0.1555000D+05 0.4405000D+04 0.1439000D+04 0.5204000D+03 0.2031000D+03
EXPONENTS  0.8396000D+02 0.3620000D+02 0.1583000D+02 0.6334000D+01 0.2694000D+01
EXPONENTS  0.4313000D+00 0.4561000D+06 0.6833000D+05 0.1555000D+05 0.4405000D+04
EXPONENTS  0.1439000D+04 0.5204000D+03 0.2031000D+03 0.8396000D+02 0.3620000D+02
EXPONENTS  0.1583000D+02 0.6334000D+01 0.2694000D+01 0.4313000D+00 0.9768000D+00
EXPONENTS  0.1625000D+00 0.5910000D-01 0.6633000D+03 0.1568000D+03 0.4998000D+02
EXPONENTS  0.1842000D+02 0.7240000D+01 0.2922000D+01 0.3818000D+00 0.6633000D+03
EXPONENTS  0.1568000D+03 0.4998000D+02 0.1842000D+02 0.7240000D+01 0.2922000D+01
EXPONENTS  0.3818000D+00 0.6633000D+03 0.1568000D+03 0.4998000D+02 0.1842000D+02
EXPONENTS  0.7240000D+01 0.2922000D+01 0.3818000D+00 0.6633000D+03 0.1568000D+03
EXPONENTS  0.4998000D+02 0.1842000D+02 0.7240000D+01 0.2922000D+01 0.3818000D+00
EXPONENTS  0.6633000D+03 0.1568000D+03 0.4998000D+02 0.1842000D+02 0.7240000D+01
EXPONENTS  0.2922000D+01 0.3818000D+00 0.6633000D+03 0.1568000D+03 0.4998000D+02
EXPONENTS  0.1842000D+02 0.7240000D+01 0.2922000D+01 0.3818000D+00 0.1022000D+01
EXPONENTS  0.1022000D+01 0.1022000D+01 0.1301000D+00 0.1301000D+00 0.1301000D+00
EXPONENTS  0.4190000D-01 0.4190000D-01 0.4190000D-01 0.1046000D+01 0.1046000D+01
EXPONENTS  0.1046000D+01 0.1046000D+01 0.1046000D+01 0.1046000D+01 0.3440000D+00
EXPONENTS  0.3440000D+00 0.3440000D+00 0.3440000D+00 0.3440000D+00 0.3440000D+00
EXPONENTS  0.1350000D+00 0.1350000D+00 0.1350000D+00 0.1350000D+00 0.1350000D+00
EXPONENTS  0.1350000D+00 0.7060000D+00 0.7060000D+00 0.7060000D+00 0.7060000D+00
EXPONENTS  0.7060000D+00 0.7060000D+00 0.7060000D+00 0.7060000D+00 0.7060000D+00
EXPONENTS  0.7060000D+00 0.3120000D+00 0.3120000D+00 0.3120000D+00 0.3120000D+00
EXPONENTS  0.3120000D+00 0.3120000D+00 0.3120000D+00 0.3120000D+00 0.3120000D+00
EXPONENTS  0.3120000D+00 0.4561000D+06 0.6833000D+05 0.1555000D+05 0.4405000D+04
EXPONENTS  0.1439000D+04 0.5204000D+03 0.2031000D+03 0.8396000D+02 0.3620000D+02
EXPONENTS  0.1583000D+02 0.6334000D+01 0.2694000D+01 0.4313000D+00 0.4561000D+06
EXPONENTS  0.6833000D+05 0.1555000D+05 0.4405000D+04 0.1439000D+04 0.5204000D+03
EXPONENTS  0.2031000D+03 0.8396000D+02 0.3620000D+02 0.1583000D+02 0.6334000D+01
EXPONENTS  0.2694000D+01 0.4313000D+00 0.4561000D+06 0.6833000D+05 0.1555000D+05
EXPONENTS  0.4405000D+04 0.1439000D+04 0.5204000D+03 0.2031000D+03 0.8396000D+02
EXPONENTS  0.3620000D+02 0.1583000D+02 0.6334000D+01 0.2694000D+01 0.4313000D+00
EXPONENTS  0.9768000D+00 0.1625000D+00 0.5910000D-01 0.6633000D+03 0.1568000D+03
EXPONENTS  0.4998000D+02 0.1842000D+02 0.7240000D+01 0.2922000D+01 0.3818000D+00
EXPONENTS  0.6633000D+03 0.1568000D+03 0.4998000D+02 0.1842000D+02 0.7240000D+01
EXPONENTS  0.2922000D+01 0.3818000D+00 0.6633000D+03 0.1568000D+03 0.4998000D+02
EXPONENTS  0.1842000D+02 0.7240000D+01 0.2922000D+01 0.3818000D+00 0.6633000D+03
EXPONENTS  0.1568000D+03 0.4998000D+02 0.1842000D+02 0.7240000D+01 0.2922000D+01
EXPONENTS  0.3818000D+00 0.6633000D+03 0.1568000D+03 0.4998000D+02 0.1842000D+02
EXPONENTS  0.7240000D+01 0.2922000D+01 0.3818000D+00 0.6633000D+03 0.1568000D+03
EXPONENTS  0.4998000D+02 0.1842000D+02 0.7240000D+01 0.2922000D+01 0.3818000D+00
EXPONENTS  0.1022000D+01 0.1022000D+01 0.1022000D+01 0.1301000D+00 0.1301000D+00
EXPONENTS  0.1301000D+00 0.4190000D-01 0.4190000D-01 0.4190000D-01 0.1046000D+01
EXPONENTS  0.1046000D+01 0.1046000D+01 0.1046000D+01 0.1046000D+01 0.1046000D+01
EXPONENTS  0.3440000D+00 0.3440000D+00 0.3440000D+00 0.3440000D+00 0.3440000D+00
EXPONENTS  0.3440000D+00 0.1350000D+00 0.1350000D+00 0.1350000D+00 0.1350000D+00
EXPONENTS  0.1350000D+00 0.1350000D+00 0.7060000D+00 0.7060000D+00 0.7060000D+00
EXPONENTS  0.7060000D+00 0.7060000D+00 0.7060000D+00 0.7060000D+00 0.7060000D+00
EXPONENTS  0.7060000D+00 0.7060000D+00 0.3120000D+00 0.3120000D+00 0.3120000D+00
EXPONENTS  0.3120000D+00 0.3120000D+00 0.3120000D+00 0.3120000D+00 0.3120000D+00
EXPONENTS  0.3120000D+00 0.3120000D+00
MO    1     MO 0.0        OCC NO =    2.0000000  ORB. ENERGY = -399.233063
  0.75189221D+00  0.14039659D+01  0.24332242D+01  0.39851274D+01  0.62330476D+01
  0.93322277D+01  0.13229532D+02  0.17245541D+02  0.19354951D+02  0.16455051D+02
  0.82094926D+01  0.15263049D+01  0.35859890D-01  0.51985572D-02 -0.13777347D-02
  0.28620691D-03 -0.78562446D-04 -0.49686585D-05  0.89501656D-04  0.16767838D-03
  0.29015244D-03  0.47514316D-03  0.74658298D-03  0.11255371D-02  0.16330251D-02
  0.22268921D-02  0.27788632D-02  0.28995176D-02  0.20998144D-02  0.14834545D-03
 -0.15207754D-02 -0.10721464D-02 -0.15180280D-03 -0.13751644D-05 -0.69040910D-06
 -0.23471622D-07 -0.84187619D-04 -0.15537302D-03 -0.26860212D-03 -0.44026755D-03
 -0.69210790D-03 -0.10444425D-02 -0.15193640D-02 -0.20843795D-02 -0.26349856D-02
 -0.28279548D-02 -0.21580585D-02 -0.16842613D-03  0.21769791D-02  0.23133766D-02
 -0.28354018D-04 -0.10534393D-02 -0.38107868D-03  0.17591475D-05  0.33685064D-04
  0.72979465D-04  0.12424687D-03  0.20336727D-03  0.31943752D-03  0.48229813D-03
  0.70158037D-03  0.96371117D-03  0.12197593D-02  0.13152235D-02  0.10095148D-02
  0.82098696D-04 -0.10718125D-02 -0.11995402D-02  0.38006897D-04  0.71075397D-03
  0.48572204D-03 -0.19168043D-03  0.13298315D-03  0.86426214D-05 -0.18317810D-05
  0.29583934D-15  0.42359268D-15  0.55795968D-15  0.63882815D-15  0.58454474D-15
  0.37205583D-15  0.12848045D-15  0.14345566D-16  0.18162167D-18  0.32961566D-19
  0.25875505D-21  0.51876702D-15  0.74278801D-15  0.97840633D-15  0.11202127D-14
  0.10250244D-14  0.65241593D-15  0.22529601D-15  0.25155568D-16  0.31848142D-18
  0.57799526D-19  0.45373813D-21 -0.40381696D-15 -0.57819866D-15 -0.76160792D-15
 -0.87199236D-15 -0.79789618D-15 -0.50785151D-15 -0.17537419D-15 -0.19581516D-16
 -0.24791128D-18 -0.44992121D-19 -0.35319738D-21 -0.27802484D-14 -0.40070785D-14
 -0.53222123D-14 -0.62718996D-14 -0.59884929D-14 -0.40893034D-14 -0.12952714D-14
  0.61056102D-15  0.63295133D-15  0.16652745D-15 -0.11049702D-18 -0.32179766D-14
 -0.46379616D-14 -0.61601529D-14 -0.72593610D-14 -0.69313341D-14 -0.47331321D-14
 -0.14992017D-14  0.70668905D-15  0.73260455D-15  0.19274589D-15 -0.12789390D-18
  0.15876833D-14  0.22882746D-14  0.30392923D-14  0.35816189D-14  0.34197773D-14
  0.23352297D-14  0.73967518D-15 -0.34866580D-15 -0.36145197D-15 -0.95096846D-16
  0.63100213D-19  0.20028054D-14  0.28683900D-14  0.38361724D-14  0.45068085D-14
  0.43547812D-14  0.29687016D-14  0.94906158D-15 -0.56285332D-15 -0.54618605D-15
 -0.18457571D-15  0.69042485D-16  0.23756650D-14  0.34023944D-14  0.45503476D-14
  0.53458352D-14  0.51655052D-14  0.35213809D-14  0.11257471D-14 -0.66763899D-15
 -0.64786879D-15 -0.21893794D-15  0.81896035D-16 -0.11572502D-14 -0.16573976D-14
 -0.22165964D-14 -0.26040998D-14 -0.25162562D-14 -0.17153591D-14 -0.54838163D-15
  0.32522486D-15  0.31559427D-15  0.10665054D-15 -0.39893756D-16 -0.44339316D-16
 -0.40295694D-16  0.28083055D-16  0.53338050D-16  0.69985866D-16  0.11484236D-16
 -0.59489947D-18  0.12314391D-17 -0.10640013D-17  0.80501630D-16  0.80976172D-16
  0.64710318D-16  0.39628074D-16  0.16625684D-16  0.45327665D-17  0.74158331D-18
 -0.56354447D-17 -0.56686646D-17 -0.45299880D-17 -0.27741279D-17 -0.11638662D-17
 -0.31731227D-18 -0.51913877D-19 -0.74866185D-16 -0.75307508D-16 -0.60180330D-16
 -0.36853946D-16 -0.15461818D-16 -0.42154542D-17 -0.68966943D-18  0.11869337D-15
  0.11939305D-15  0.95410316D-16  0.58428503D-16  0.24513275D-16  0.66832106D-17
  0.10934067D-17 -0.36080650D-15 -0.36293339D-15 -0.29003019D-15 -0.17761214D-15
 -0.74515945D-16 -0.20315758D-16 -0.33237598D-17 -0.19821882D-15 -0.19938729D-15
 -0.15933594D-15 -0.97576038D-16 -0.40937352D-16 -0.11161012D-16 -0.18259974D-17
 -0.48769248D-17 -0.97916124D-18  0.58560861D-17  0.42295469D-17  0.18456158D-16
  0.23521817D-17  0.81554449D-17  0.26842465D-17 -0.10839691D-16 -0.40389593D-16
  0.32587926D-16  0.47374027D-16  0.11486773D-17  0.99424576D-18 -0.21429231D-17
  0.13453954D-18  0.49932831D-17  0.56761081D-17 -0.51157565D-17 -0.38102050D-17
  0.43461506D-17  0.74321374D-17  0.63605573D-17 -0.64222770D-17  0.79151322D-17
  0.50700578D-17 -0.66161748D-17 -0.36119312D-04 -0.10546515D-17  0.25224709D-18
  0.25721532D-17  0.12573253D-18 -0.98642073D-18 -0.26695894D-17  0.30382220D-17
  0.22967947D-18 -0.50468703D-17  0.31835942D-05 -0.40505954D-05 -0.75786795D-05
 -0.13094279D-04 -0.21227354D-04 -0.32235430D-04 -0.44803457D-04 -0.53264847D-04
 -0.47444229D-04 -0.23552736D-04 -0.37947231D-05 -0.58259108D-07 -0.10410845D-07
 -0.38903705D-09  0.73357935D-05  0.13702209D-04  0.23780848D-04  0.38586652D-04
  0.59727555D-04  0.85494568D-04  0.11159712D-03  0.11892535D-03  0.88899114D-04
  0.46928263D-05 -0.60300488D-04 -0.35825418D-04  0.13431846D-06 -0.40741669D-05
 -0.76038455D-05 -0.13214814D-04 -0.21417326D-04 -0.33264461D-04 -0.47652301D-04
 -0.62920423D-04 -0.68035641D-04 -0.53340825D-04 -0.26542218D-05  0.45726573D-04
  0.47335480D-04 -0.21419974D-04  0.19252602D-05  0.16357599D-04  0.49681924D-05
 -0.73835771D-04 -0.97258282D-04 -0.10729867D-03 -0.89123878D-04 -0.47335857D-04
 -0.12209298D-04  0.12550744D-07 -0.73835771D-04 -0.97258282D-04 -0.10729867D-03
 -0.89123878D-04 -0.47335857D-04 -0.12209298D-04  0.12550744D-07 -0.73835771D-04
 -0.97258282D-04 -0.10729867D-03 -0.89123878D-04 -0.47335857D-04 -0.12209298D-04
  0.12550744D-07  0.58044661D-04  0.76208385D-04  0.86768853D-04  0.73472301D-04
  0.42087763D-04  0.95735058D-05 -0.44809276D-05  0.58044661D-04  0.76208385D-04
  0.86768853D-04  0.73472301D-04  0.42087763D-04  0.95735058D-05 -0.44809276D-05
  0.58044661D-04  0.76208385D-04  0.86768853D-04  0.73472301D-04  0.42087763D-04
  0.95735058D-05 -0.44809276D-05  0.99358570D-05  0.99358570D-05  0.99358570D-05
 -0.84367032D-05 -0.84367032D-05 -0.84367032D-05 -0.81060988D-07 -0.81060988D-07
 -0.81060988D-07  0.16032069D-17  0.47992978D-17 -0.64025047D-17 -0.10572259D-04
 -0.10572259D-04 -0.10572259D-04 -0.10810313D-17 -0.22485673D-17  0.33295986D-17
  0.89189163D-05  0.89189163D-05  0.89189163D-05 -0.13289943D-17 -0.85647331D-18
  0.21854676D-17  0.33031538D-05  0.33031538D-05  0.33031538D-05 -0.36858678D-06
 -0.36858678D-06 -0.36858678D-06  0.55288016D-06  0.55288016D-06  0.55288016D-06
  0.55288016D-06  0.55288016D-06  0.55288016D-06  0.10876833D-04  0.10697991D-05
  0.10697991D-05  0.10697991D-05 -0.16046987D-05 -0.16046987D-05 -0.16046987D-05
 -0.16046987D-05 -0.16046987D-05 -0.16046987D-05 -0.10829841D-04 -0.40505954D-05
 -0.75786795D-05 -0.13094279D-04 -0.21227354D-04 -0.32235430D-04 -0.44803457D-04
 -0.53264847D-04 -0.47444229D-04 -0.23552736D-04 -0.37947231D-05 -0.58259108D-07
 -0.10410845D-07 -0.38903705D-09  0.73357935D-05  0.13702209D-04  0.23780848D-04
  0.38586652D-04  0.59727555D-04  0.85494568D-04  0.11159712D-03  0.11892535D-03
  0.88899114D-04  0.46928263D-05 -0.60300488D-04 -0.35825418D-04  0.13431846D-06
 -0.40741669D-05 -0.76038455D-05 -0.13214814D-04 -0.21417326D-04 -0.33264461D-04
 -0.47652301D-04 -0.62920423D-04 -0.68035641D-04 -0.53340825D-04 -0.26542218D-05
  0.45726573D-04  0.47335480D-04 -0.21419974D-04  0.19252602D-05  0.16357599D-04
  0.49681924D-05 -0.73835771D-04 -0.97258282D-04 -0.10729867D-03 -0.89123878D-04
 -0.47335857D-04 -0.12209298D-04  0.12550744D-07  0.73835771D-04  0.97258282D-04
  0.10729867D-03  0.89123878D-04  0.47335857D-04  0.12209298D-04 -0.12550744D-07
  0.73835771D-04  0.97258282D-04  0.10729867D-03  0.89123878D-04  0.47335857D-04
  0.12209298D-04 -0.12550744D-07  0.58044661D-04  0.76208385D-04  0.86768853D-04
  0.73472301D-04  0.42087763D-04  0.95735058D-05 -0.44809276D-05 -0.58044661D-04
 -0.76208385D-04 -0.86768853D-04 -0.73472301D-04 -0.42087763D-04 -0.95735058D-05
  0.44809276D-05 -0.58044661D-04 -0.76208385D-04 -0.86768853D-04 -0.73472301D-04
 -0.42087763D-04 -0.95735058D-05  0.44809276D-05  0.99358570D-05 -0.99358570D-05
 -0.99358570D-05 -0.84367032D-05  0.84367032D-05  0.84367032D-05 -0.81060988D-07
  0.81060988D-07  0.81060988D-07 -0.58948209D-17 -0.19111666D-17  0.78059875D-17
  0.10572259D-04  0.10572259D-04 -0.10572259D-04  0.23130745D-17  0.14590261D-17
 -0.37721006D-17 -0.89189163D-05 -0.89189163D-05  0.89189163D-05  0.63533294D-18
  0.23392884D-17 -0.29746213D-17 -0.33031538D-05 -0.33031538D-05  0.33031538D-05
 -0.36858678D-06  0.36858678D-06  0.36858678D-06  0.55288016D-06 -0.55288016D-06
 -0.55288016D-06  0.55288016D-06 -0.55288016D-06 -0.55288016D-06  0.10876833D-04
  0.10697991D-05 -0.10697991D-05 -0.10697991D-05 -0.16046987D-05  0.16046987D-05
  0.16046987D-05 -0.16046987D-05  0.16046987D-05  0.16046987D-05 -0.10829841D-04
 -0.40505954D-05 -0.75786795D-05 -0.13094279D-04 -0.21227354D-04 -0.32235430D-04
 -0.44803457D-04 -0.53264847D-04 -0.47444229D-04 -0.23552736D-04 -0.37947231D-05
 -0.58259108D-07 -0.10410845D-07 -0.38903705D-09  0.73357935D-05  0.13702209D-04
  0.23780848D-04  0.38586652D-04  0.59727555D-04  0.85494568D-04  0.11159712D-03
  0.11892535D-03  0.88899114D-04  0.46928263D-05 -0.60300488D-04 -0.35825418D-04
  0.13431846D-06 -0.40741669D-05 -0.76038455D-05 -0.13214814D-04 -0.21417326D-04
 -0.33264461D-04 -0.47652301D-04 -0.62920423D-04 -0.68035641D-04 -0.53340825D-04
 -0.26542218D-05  0.45726573D-04  0.47335480D-04 -0.21419974D-04  0.19252602D-05
  0.16357599D-04  0.49681924D-05  0.73835771D-04  0.97258282D-04  0.10729867D-03
  0.89123878D-04  0.47335857D-04  0.12209298D-04 -0.12550744D-07 -0.73835771D-04
 -0.97258282D-04 -0.10729867D-03 -0.89123878D-04 -0.47335857D-04 -0.12209298D-04
  0.12550744D-07  0.73835771D-04  0.97258282D-04  0.10729867D-03  0.89123878D-04
  0.47335857D-04  0.12209298D-04 -0.12550744D-07 -0.58044661D-04 -0.76208385D-04
 -0.86768853D-04 -0.73472301D-04 -0.42087763D-04 -0.95735058D-05  0.44809276D-05
  0.58044661D-04  0.76208385D-04  0.86768853D-04  0.73472301D-04  0.42087763D-04
  0.95735058D-05 -0.44809276D-05 -0.58044661D-04 -0.76208385D-04 -0.86768853D-04
 -0.73472301D-04 -0.42087763D-04 -0.95735058D-05  0.44809276D-05 -0.99358570D-05
  0.99358570D-05 -0.99358570D-05  0.84367032D-05 -0.84367032D-05  0.84367032D-05
  0.81060988D-07 -0.81060988D-07  0.81060988D-07 -0.59409916D-17 -0.19753940D-17
  0.79163856D-17  0.10572259D-04 -0.10572259D-04  0.10572259D-04  0.34017121D-17
  0.81677425D-19 -0.34833896D-17 -0.89189163D-05  0.89189163D-05 -0.89189163D-05