 Molden2AIM, Version 4.0.0 (06/02/2016)           Time: Fri Jun 29 15:58:41 2018
GAUSSIAN              5 MOL ORBITALS    129 PRIMITIVES        3 NUCLEI
  O    1    (CENTRE  1)   0.00000000  0.00000000  0.22365098  CHARGE =  8.0
  H    2    (CENTRE  2)   0.00000000  1.43843496 -0.88765160  CHARGE =  1.0
  H    3    (CENTRE  3)   0.00000000 -1.43843496 -0.88765160  CHARGE =  1.0
CENTRE ASSIGNMENTS    1  1  1  1  1  1  1  1  1  1  1  1  1  1  1  1  1  1  1  1
CENTRE ASSIGNMENTS    1  1  1  1  1  1  1  1  1  1  1  1  1  1  1  1  1  1  1  1
CENTRE ASSIGNMENTS    1  1  1  1  1  1  1  1  1  1  1  1  1  1  1  1  1  1  1  1
CENTRE ASSIGNMENTS    1  1  1  1  1  1  1  1  1  1  1  1  1  1  1  2  2  2  2  2
CENTRE ASSIGNMENTS    2  2  2  2  2  2  2  2  2  2  2  2  2  2  2  2  2  2  2  2
CENTRE ASSIGNMENTS    2  2  3  3  3  3  3  3  3  3  3  3  3  3  3  3  3  3  3  3
CENTRE ASSIGNMENTS    3  3  3  3  3  3  3  3  3
TYPE ASSIGNMENTS      1  1  1  1  1  1  1  1  1  1  1  1  1  1  1  1  1  1  1  2
TYPE ASSIGNMENTS      2  2  3  3  3  4  4  4  2  3  4  2  3  4  2  3  4  5  6  7
TYPE ASSIGNMENTS      8  9 10  5  6  7  8  9 10  5  6  7  8  9 10 11 12 13 17 14
TYPE ASSIGNMENTS     15 18 19 16 20 11 12 13 17 14 15 18 19 16 20  1  1  1  1  1
TYPE ASSIGNMENTS      1  2  3  4  2  3  4  2  3  4  5  6  7  8  9 10  5  6  7  8
TYPE ASSIGNMENTS      9 10  1  1  1  1  1  1  2  3  4  2  3  4  2  3  4  5  6  7
TYPE ASSIGNMENTS      8  9 10  5  6  7  8  9 10
EXPONENTS  0.1533000D+05 0.2299000D+04 0.5224000D+03 0.1473000D+03 0.4755000D+02
EXPONENTS  0.1676000D+02 0.6207000D+01 0.6882000D+00 0.1533000D+05 0.2299000D+04
EXPONENTS  0.5224000D+03 0.1473000D+03 0.4755000D+02 0.1676000D+02 0.6207000D+01
EXPONENTS  0.6882000D+00 0.1752000D+01 0.2384000D+00 0.7376000D-01 0.3446000D+02
EXPONENTS  0.7749000D+01 0.2280000D+01 0.3446000D+02 0.7749000D+01 0.2280000D+01
EXPONENTS  0.3446000D+02 0.7749000D+01 0.2280000D+01 0.7156000D+00 0.7156000D+00
EXPONENTS  0.7156000D+00 0.2140000D+00 0.2140000D+00 0.2140000D+00 0.5974000D-01
EXPONENTS  0.5974000D-01 0.5974000D-01 0.2314000D+01 0.2314000D+01 0.2314000D+01
EXPONENTS  0.2314000D+01 0.2314000D+01 0.2314000D+01 0.6450000D+00 0.6450000D+00
EXPONENTS  0.6450000D+00 0.6450000D+00 0.6450000D+00 0.6450000D+00 0.2140000D+00
EXPONENTS  0.2140000D+00 0.2140000D+00 0.2140000D+00 0.2140000D+00 0.2140000D+00
EXPONENTS  0.1428000D+01 0.1428000D+01 0.1428000D+01 0.1428000D+01 0.1428000D+01
EXPONENTS  0.1428000D+01 0.1428000D+01 0.1428000D+01 0.1428000D+01 0.1428000D+01
EXPONENTS  0.5000000D+00 0.5000000D+00 0.5000000D+00 0.5000000D+00 0.5000000D+00
EXPONENTS  0.5000000D+00 0.5000000D+00 0.5000000D+00 0.5000000D+00 0.5000000D+00
EXPONENTS  0.3387000D+02 0.5095000D+01 0.1159000D+01 0.3258000D+00 0.1027000D+00
EXPONENTS  0.2526000D-01 0.1407000D+01 0.1407000D+01 0.1407000D+01 0.3880000D+00
EXPONENTS  0.3880000D+00 0.3880000D+00 0.1020000D+00 0.1020000D+00 0.1020000D+00
EXPONENTS  0.1057000D+01 0.1057000D+01 0.1057000D+01 0.1057000D+01 0.1057000D+01
EXPONENTS  0.1057000D+01 0.2470000D+00 0.2470000D+00 0.2470000D+00 0.2470000D+00
EXPONENTS  0.2470000D+00 0.2470000D+00 0.3387000D+02 0.5095000D+01 0.1159000D+01
EXPONENTS  0.3258000D+00 0.1027000D+00 0.2526000D-01 0.1407000D+01 0.1407000D+01
EXPONENTS  0.1407000D+01 0.3880000D+00 0.3880000D+00 0.3880000D+00 0.1020000D+00
EXPONENTS  0.1020000D+00 0.1020000D+00 0.1057000D+01 0.1057000D+01 0.1057000D+01
EXPONENTS  0.1057000D+01 0.1057000D+01 0.1057000D+01 0.2470000D+00 0.2470000D+00
EXPONENTS  0.2470000D+00 0.2470000D+00 0.2470000D+00 0.2470000D+00
MO    1     MO 0.0        OCC NO =    2.0000000  ORB. ENERGY =  -19.214666
  0.49720837D+00  0.92673242D+00  0.15714311D+01  0.23784342D+01  0.29675915D+01
  0.25487653D+01  0.97852056D+00 -0.43769825D-02 -0.15339967D-04 -0.28770488D-04
 -0.49047375D-04 -0.76651500D-04 -0.10249766D-03 -0.10944361D-03 -0.66911674D-04
  0.44144259D-04  0.53808098D-01  0.16465002D-02  0.16541341D-03 -0.28563958D-16
 -0.27697431D-16 -0.18684523D-16  0.37222769D-14  0.36093565D-14  0.24348506D-14
 -0.73354441D-02 -0.71129133D-02 -0.47983293D-02  0.28663046D-17 -0.71874249D-14
 -0.87992977D-03  0.60197511D-19 -0.47324479D-14 -0.76727371D-04  0.67861996D-20
 -0.29995628D-15 -0.47382515D-05 -0.27960991D-02  0.25552062D-02  0.24089284D-03
  0.33655877D-17  0.91457806D-18 -0.36491455D-15  0.35160537D-04 -0.94314556D-04
  0.59154020D-04 -0.45285784D-18 -0.89711596D-18  0.67051721D-14  0.46896842D-04
 -0.47465695D-04  0.56885327D-06 -0.12296680D-20 -0.59557889D-19  0.12078388D-14
 -0.39296608D-18  0.21476384D-17  0.57275869D-03  0.65955307D-18  0.22577653D-14
  0.15073691D-02  0.51934516D-18 -0.22642082D-14 -0.32256452D-02 -0.64496895D-18
 -0.10357481D-18  0.26914589D-15 -0.13751674D-03  0.22249378D-18  0.24370035D-15
 -0.30494836D-03  0.88230640D-19 -0.10511380D-14  0.71749859D-03  0.75513545D-19
  0.19794401D-03  0.35700018D-03  0.52639656D-03 -0.55342286D-03 -0.24554186D-03
 -0.20271516D-05 -0.27808215D-18  0.48182276D-03 -0.19739619D-03 -0.32311653D-18
  0.65982650D-03 -0.45444619D-03 -0.55160707D-20  0.53980681D-04 -0.46404086D-04
  0.99506633D-03 -0.89428823D-03 -0.10077811D-03  0.10254811D-17 -0.69512001D-18
  0.28331195D-02  0.18989589D-04 -0.14502288D-04 -0.44873009D-05  0.65681330D-19
 -0.43273491D-19  0.69743888D-04  0.19794401D-03  0.35700018D-03  0.52639656D-03
 -0.55342286D-03 -0.24554186D-03 -0.20271516D-05 -0.25507681D-18 -0.48182276D-03
 -0.19739619D-03 -0.43683143D-18 -0.65982650D-03 -0.45444619D-03 -0.35829714D-20
 -0.53980681D-04 -0.46404086D-04  0.99506633D-03 -0.89428823D-03 -0.10077811D-03
 -0.97048138D-18 -0.68592325D-18 -0.28331195D-02  0.18989589D-04 -0.14502288D-04
 -0.44873009D-05 -0.77766005D-19 -0.66325952D-19 -0.69743888D-04
MO    2     MO 0.0        OCC NO =    2.0000000  ORB. ENERGY =   -1.044068
 -0.89426970D-02 -0.16668037D-01 -0.28263467D-01 -0.42778074D-01 -0.53374547D-01
 -0.45841617D-01 -0.17599488D-01  0.78723591D-04 -0.94684806D-01 -0.17758370D+00
 -0.30274128D+00 -0.47312569D+00 -0.63265919D+00 -0.67553252D+00 -0.41300734D+00
  0.27247716D+00  0.15028812D+00  0.67370966D-01  0.34023311D-02 -0.75361446D-16
 -0.73075253D-16 -0.49296134D-16 -0.80795735D-14 -0.78344685D-14 -0.52850862D-14
 -0.30590242D+00 -0.29662245D+00 -0.20009975D+00 -0.88299620D-16  0.14929152D-13
 -0.71379672D-01 -0.31064158D-17  0.22496663D-13 -0.49014932D-02 -0.28263093D-18
  0.38264705D-15 -0.12572082D-03 -0.28680564D-01  0.19902095D-01  0.87784695D-02
  0.88973767D-16  0.98184182D-16 -0.37565688D-15 -0.70196734D-02  0.37635467D-02
  0.32561266D-02  0.14366350D-16  0.18196300D-16 -0.13813183D-13  0.50492566D-04
 -0.19011223D-03  0.13961967D-03 -0.26652988D-17 -0.10527398D-17 -0.74797418D-14
  0.65377736D-17 -0.65096093D-15  0.10442511D-02 -0.15379680D-16 -0.23119890D-14
  0.84392152D-02 -0.42336411D-17  0.42648717D-14 -0.11571969D-01 -0.38366996D-16
  0.64912565D-18  0.83148118D-15 -0.20593692D-03 -0.21862221D-17 -0.30677033D-14
  0.62543035D-03  0.23884512D-18  0.57325979D-15 -0.76195792D-05  0.30425865D-17
  0.23813099D-01  0.42947904D-01  0.63326660D-01  0.24361590D-01 -0.13697775D-02
 -0.62726291D-04 -0.10533142D-16 -0.24010977D-01  0.16212193D-01 -0.12314368D-17
 -0.45759831D-02  0.30499334D-02  0.58117124D-18  0.30451925D-03 -0.25119329D-03
 -0.30111674D-02  0.27805037D-02  0.23066378D-03  0.97732940D-17 -0.11000222D-17
 -0.87848505D-02 -0.25610527D-04  0.23826771D-04  0.17837559D-05  0.28561170D-17
  0.15159099D-17 -0.24364135D-04  0.23813099D-01  0.42947904D-01  0.63326660D-01
  0.24361590D-01 -0.13697775D-02 -0.62726291D-04 -0.54421390D-17  0.24010977D-01
  0.16212193D-01 -0.94443125D-17  0.45759831D-02  0.30499334D-02 -0.14752209D-17
 -0.30451925D-03 -0.25119329D-03 -0.30111674D-02  0.27805037D-02  0.23066378D-03
 -0.15350026D-16  0.52558025D-17  0.87848505D-02 -0.25610527D-04  0.23826771D-04
  0.17837559D-05 -0.16920477D-17 -0.23199851D-17  0.24364135D-04
MO    3     MO 0.0        OCC NO =    2.0000000  ORB. ENERGY =   -0.549734
 -0.25295703D-15 -0.47147936D-15 -0.79947278D-15 -0.12100393D-14 -0.15097757D-14
 -0.12966960D-14 -0.49782681D-15  0.22268099D-17  0.11659134D-15  0.21866994D-15
  0.37278432D-15  0.58258933D-15  0.77903294D-15  0.83182555D-15  0.50856183D-15
 -0.33551821D-15 -0.60577271D-15 -0.41178327D-13 -0.42054706D-13  0.81134320D-15
  0.78672998D-15  0.53072340D-15  0.14510518D+01  0.14070321D+01  0.94917556D+00
 -0.12046868D-14 -0.11681410D-14 -0.78802100D-15  0.13289693D-15  0.30990116D+00
  0.33636261D-14 -0.16158642D-16  0.28368183D-01  0.71172734D-14 -0.83686256D-18
  0.29343571D-03  0.26046174D-14 -0.13107277D-15  0.21994866D-15 -0.88875891D-16
  0.14273005D-15  0.13495628D-14 -0.13376804D+00  0.20908346D-15  0.37191344D-15
 -0.58099690D-15  0.24671408D-16 -0.29999855D-16 -0.21349405D-01 -0.68966741D-15
  0.48562289D-15  0.20404452D-15 -0.31876263D-16  0.21709883D-17  0.10126444D-02
 -0.70255838D-16  0.74310285D-02  0.26299346D-15 -0.44080875D-15 -0.16968354D-01
  0.21208166D-15  0.65157626D-15 -0.53247315D-02 -0.10010620D-14 -0.46603837D-15
 -0.93201980D-17 -0.21974265D-04  0.43318419D-15  0.16771378D-16 -0.11695140D-02
  0.17002777D-14  0.11189216D-16  0.12354368D-02 -0.29998302D-14  0.36600807D-16
  0.37173656D-01  0.67044220D-01  0.98856663D-01  0.70695166D-01  0.75526170D-02
 -0.12616186D-03  0.18601999D-16 -0.18914659D-01  0.27129886D-01 -0.12601702D-16
 -0.81516508D-02  0.12214552D-01  0.94676966D-17  0.36527425D-03  0.22331569D-03
 -0.67684192D-02  0.28130632D-02  0.39553560D-02 -0.77338701D-16 -0.72628121D-16
 -0.19866533D-01 -0.62705499D-04 -0.20355319D-03  0.26625869D-03 -0.12138939D-16
 -0.68995835D-17 -0.80686831D-03 -0.37173656D-01 -0.67044220D-01 -0.98856663D-01
 -0.70695166D-01 -0.75526170D-02  0.12616186D-03  0.49733573D-16 -0.18914659D-01
 -0.27129886D-01 -0.25225399D-16 -0.81516508D-02 -0.12214552D-01  0.55101787D-17
  0.36527425D-03 -0.22331569D-03  0.67684192D-02 -0.28130632D-02 -0.39553560D-02
 -0.13672742D-16 -0.91987823D-17 -0.19866533D-01  0.62705499D-04  0.20355319D-03
 -0.26625869D-03  0.12646346D-16 -0.61736041D-17 -0.80686831D-03
MO    4     MO 0.0        OCC NO =    2.0000000  ORB. ENERGY =   -0.410170
  0.48515264D-03  0.90426210D-03  0.15333289D-02  0.23207647D-02  0.28956368D-02
  0.24869658D-02  0.95479453D-03 -0.42708545D-05 -0.37951231D-01 -0.71178475D-01
 -0.12134370D+00 -0.18963658D+00 -0.25358024D+00 -0.27076457D+00 -0.16554015D+00
  0.10921334D+00  0.61717917D-01  0.84219355D-01  0.10497155D-01 -0.54682100D-14
 -0.53023243D-14 -0.35769166D-14  0.88139240D-14  0.85465414D-14  0.57654464D-14
  0.15584914D+01  0.15112124D+01  0.10194550D+01 -0.12834861D-14 -0.22182173D-13
  0.34654711D+00 -0.24555833D-15 -0.66340659D-13  0.41691623D-01  0.12121171D-16
 -0.57857468D-14  0.77588254D-03  0.35074168D-01  0.72513169D-02 -0.42325485D-01
 -0.29471447D-17 -0.23887636D-15 -0.11293426D-13  0.43230674D-02  0.79924909D-02
 -0.12315558D-01  0.28688357D-16  0.66449531D-16  0.30625181D-13 -0.88540529D-03
  0.13578666D-02 -0.47246128D-03  0.93854235D-17 -0.15864263D-17  0.14616685D-13
 -0.15904807D-17  0.21385724D-14  0.22338668D-02 -0.68303895D-16 -0.27033143D-14
 -0.18486564D-01  0.73075337D-16 -0.37124029D-14  0.11784963D-01  0.11462857D-15
  0.89379239D-17 -0.25625792D-14  0.54199412D-03 -0.12510705D-16  0.71517187D-14
 -0.12125889D-03 -0.14303067D-16  0.53601891D-15 -0.15047235D-02 -0.16981112D-16
 -0.21888131D-01 -0.39476145D-01 -0.58207553D-01 -0.54815575D-01 -0.99677887D-02
 -0.13784554D-03 -0.54096625D-16  0.19501425D-01  0.60054248D-02 -0.13621880D-16
  0.13683679D-01  0.11008921D-02 -0.91811686D-17  0.45928204D-03  0.98035385D-03
  0.28993998D-02 -0.69591711D-02  0.40597713D-02  0.43217190D-17 -0.48397175D-16
  0.46351584D-02  0.16207533D-03 -0.39335232D-03  0.23127699D-03 -0.70714094D-17
 -0.23069737D-17 -0.45917707D-03 -0.21888131D-01 -0.39476145D-01 -0.58207553D-01
 -0.54815575D-01 -0.99677887D-02 -0.13784554D-03 -0.63576754D-16 -0.19501425D-01
  0.60054248D-02  0.27747284D-16 -0.13683679D-01  0.11008921D-02 -0.74082739D-17
 -0.45928204D-03  0.98035385D-03  0.28993998D-02 -0.69591711D-02  0.40597713D-02
  0.53129912D-16 -0.42365091D-16 -0.46351584D-02  0.16207533D-03 -0.39335232D-03
  0.23127699D-03  0.83167549D-17  0.10131241D-16  0.45917707D-03
MO    5     MO 0.0        OCC NO =    2.0000000  ORB. ENERGY =   -0.333518
 -0.10865809D-15 -0.20252470D-15 -0.34341478D-15 -0.51977427D-15 -0.64852653D-15
 -0.55699780D-15 -0.21384229D-15  0.95652967D-18 -0.54053227D-16 -0.10137817D-15
 -0.17282755D-15 -0.27009582D-15 -0.36116957D-15 -0.38564490D-15 -0.23577573D-15
  0.15555051D-15  0.29822853D-15 -0.16500746D-14 -0.32202832D-15  0.17676499D+01
  0.17140258D+01  0.11562717D+01 -0.10751457D-14 -0.10425296D-14 -0.70328433D-15
  0.43436274D-14  0.42118575D-14  0.28412942D-14  0.40999918D+00  0.10241382D-15
  0.16752626D-14  0.65938116D-01  0.70200986D-15  0.91469432D-15  0.19816782D-02
  0.82604466D-16 -0.19136234D-16 -0.10617199D-14  0.45457476D-15  0.60714510D-15
  0.67993921D-14 -0.73044540D-01 -0.18605801D-14  0.50817650D-15 -0.13664461D-15
 -0.37153188D-15 -0.44764445D-14 -0.19304720D-01  0.38061675D-15  0.49364385D-16
  0.39101859D-17 -0.53274571D-16 -0.21255022D-14 -0.11828841D-02 -0.10083960D-15
 -0.11251274D-01 -0.11321136D-15  0.30961597D-15  0.23475881D-01 -0.94271363D-16
 -0.11763779D-14  0.10277941D-01  0.43390546D-15  0.24752993D-15 -0.11807495D-14
 -0.34298909D-03  0.23937630D-15 -0.35723854D-17  0.43607588D-03 -0.11686486D-15
 -0.18605218D-15  0.59289139D-03 -0.60126403D-15  0.19676934D-15  0.47523313D-14
  0.21928958D-15  0.39549778D-15  0.58316124D-15  0.23411900D-15  0.16628122D-15
 -0.23029712D-16  0.25176855D-01  0.19626635D-15 -0.16676983D-14  0.14148864D-01
 -0.65066038D-15  0.74353029D-16  0.20021424D-02 -0.17760942D-15 -0.10925903D-15
 -0.84140014D-15  0.11587354D-14 -0.31733528D-15 -0.12818798D-01  0.96123553D-02
 -0.17863188D-14  0.21024162D-16  0.79309255D-16 -0.10033342D-15 -0.14942713D-02
  0.94837198D-03  0.60719006D-16 -0.11632636D-15 -0.20979939D-15 -0.30934908D-15
  0.15295269D-14  0.37304065D-15  0.37361810D-16  0.25176855D-01 -0.44341497D-15
  0.43707893D-15  0.14148864D-01  0.57805961D-15  0.75461316D-15  0.20021424D-02
 -0.70053208D-16  0.17524297D-15 -0.92066946D-15  0.73170444D-15  0.18896503D-15
  0.12818798D-01  0.96123553D-02  0.71144367D-15  0.92866177D-17 -0.44298880D-16
  0.35012262D-16  0.14942713D-02  0.94837198D-03  0.12299331D-15
END DATA
RHF
