 Molden2AIM, Version 4.0.0 (06/02/2016)           Time: Fri Jun 29 18:27:21 2018
GAUSSIAN             25 MOL ORBITALS    485 PRIMITIVES        7 NUCLEI
  S    1    (CENTRE  1)  -2.38766140  2.17948539 -0.36110021  CHARGE = 16.0
  O    2    (CENTRE  2)  -0.04760031  2.04387297 -1.80828082  CHARGE =  8.0
  O    3    (CENTRE  3)  -3.18423009  4.33973715  1.15115312  CHARGE =  8.0
  O    4    (CENTRE  4)  -2.50252651 -0.23958704  1.54001341  CHARGE =  8.0
  O    5    (CENTRE  5)  -4.62930366  1.50785216 -2.35994857  CHARGE =  8.0
  H    6    (CENTRE  6)  -1.47953650 -1.56171691  0.78883971  CHARGE =  1.0
  H    7    (CENTRE  7)  -6.19870609  2.11275727 -1.63195236  CHARGE =  1.0
CENTRE ASSIGNMENTS    1  1  1  1  1  1  1  1  1  1  1  1  1  1  1  1  1  1  1  1
CENTRE ASSIGNMENTS    1  1  1  1  1  1  1  1  1  1  1  1  1  1  1  1  1  1  1  1
CENTRE ASSIGNMENTS    1  1  1  1  1  1  1  1  1  1  1  1  1  1  1  1  1  1  1  1
CENTRE ASSIGNMENTS    1  1  1  1  1  1  1  1  1  1  1  1  1  1  1  1  1  1  1  1
CENTRE ASSIGNMENTS    1  1  1  1  1  1  1  1  1  1  1  1  1  1  1  1  1  1  1  1
CENTRE ASSIGNMENTS    1  1  1  1  1  1  1  1  1  1  1  1  1  1  1  1  1  1  1  1
CENTRE ASSIGNMENTS    1  1  1  1  1  1  1  1  1  1  1  2  2  2  2  2  2  2  2  2
CENTRE ASSIGNMENTS    2  2  2  2  2  2  2  2  2  2  2  2  2  2  2  2  2  2  2  2
CENTRE ASSIGNMENTS    2  2  2  2  2  2  2  2  2  2  2  2  2  2  2  2  2  2  2  2
CENTRE ASSIGNMENTS    2  2  2  2  2  2  2  2  2  2  2  2  2  2  2  2  2  2  2  2
CENTRE ASSIGNMENTS    2  2  2  2  2  2  3  3  3  3  3  3  3  3  3  3  3  3  3  3
CENTRE ASSIGNMENTS    3  3  3  3  3  3  3  3  3  3  3  3  3  3  3  3  3  3  3  3
CENTRE ASSIGNMENTS    3  3  3  3  3  3  3  3  3  3  3  3  3  3  3  3  3  3  3  3
CENTRE ASSIGNMENTS    3  3  3  3  3  3  3  3  3  3  3  3  3  3  3  3  3  3  3  3
CENTRE ASSIGNMENTS    3  4  4  4  4  4  4  4  4  4  4  4  4  4  4  4  4  4  4  4
CENTRE ASSIGNMENTS    4  4  4  4  4  4  4  4  4  4  4  4  4  4  4  4  4  4  4  4
CENTRE ASSIGNMENTS    4  4  4  4  4  4  4  4  4  4  4  4  4  4  4  4  4  4  4  4
CENTRE ASSIGNMENTS    4  4  4  4  4  4  4  4  4  4  4  4  4  4  4  4  5  5  5  5
CENTRE ASSIGNMENTS    5  5  5  5  5  5  5  5  5  5  5  5  5  5  5  5  5  5  5  5
CENTRE ASSIGNMENTS    5  5  5  5  5  5  5  5  5  5  5  5  5  5  5  5  5  5  5  5
CENTRE ASSIGNMENTS    5  5  5  5  5  5  5  5  5  5  5  5  5  5  5  5  5  5  5  5
CENTRE ASSIGNMENTS    5  5  5  5  5  5  5  5  5  5  5  6  6  6  6  6  6  6  6  6
CENTRE ASSIGNMENTS    6  6  6  6  6  6  6  6  6  6  6  6  6  6  6  6  6  6  7  7
CENTRE ASSIGNMENTS    7  7  7  7  7  7  7  7  7  7  7  7  7  7  7  7  7  7  7  7
CENTRE ASSIGNMENTS    7  7  7  7  7
TYPE ASSIGNMENTS      1  1  1  1  1  1  1  1  1  1  1  1  1  1  1  1  1  1  1  1
TYPE ASSIGNMENTS      1  1  1  1  1  1  1  1  1  1  1  1  1  1  1  1  1  1  1  1
TYPE ASSIGNMENTS      1  1  2  2  2  2  2  2  2  3  3  3  3  3  3  3  4  4  4  4
TYPE ASSIGNMENTS      4  4  4  2  2  2  2  2  2  2  3  3  3  3  3  3  3  4  4  4
TYPE ASSIGNMENTS      4  4  4  4  2  3  4  2  3  4  2  3  4  5  6  7  8  9 10  5
TYPE ASSIGNMENTS      6  7  8  9 10  5  6  7  8  9 10 11 12 13 17 14 15 18 19 16
TYPE ASSIGNMENTS     20 11 12 13 17 14 15 18 19 16 20  1  1  1  1  1  1  1  1  1
TYPE ASSIGNMENTS      1  1  1  1  1  1  1  1  1  1  2  2  2  3  3  3  4  4  4  2
TYPE ASSIGNMENTS      3  4  2  3  4  2  3  4  5  6  7  8  9 10  5  6  7  8  9 10
TYPE ASSIGNMENTS      5  6  7  8  9 10 11 12 13 17 14 15 18 19 16 20 11 12 13 17
TYPE ASSIGNMENTS     14 15 18 19 16 20  1  1  1  1  1  1  1  1  1  1  1  1  1  1
TYPE ASSIGNMENTS      1  1  1  1  1  2  2  2  3  3  3  4  4  4  2  3  4  2  3  4
TYPE ASSIGNMENTS      2  3  4  5  6  7  8  9 10  5  6  7  8  9 10  5  6  7  8  9
TYPE ASSIGNMENTS     10 11 12 13 17 14 15 18 19 16 20 11 12 13 17 14 15 18 19 16
TYPE ASSIGNMENTS     20  1  1  1  1  1  1  1  1  1  1  1  1  1  1  1  1  1  1  1
TYPE ASSIGNMENTS      2  2  2  3  3  3  4  4  4  2  3  4  2  3  4  2  3  4  5  6
TYPE ASSIGNMENTS      7  8  9 10  5  6  7  8  9 10  5  6  7  8  9 10 11 12 13 17
TYPE ASSIGNMENTS     14 15 18 19 16 20 11 12 13 17 14 15 18 19 16 20  1  1  1  1
TYPE ASSIGNMENTS      1  1  1  1  1  1  1  1  1  1  1  1  1  1  1  2  2  2  3  3
TYPE ASSIGNMENTS      3  4  4  4  2  3  4  2  3  4  2  3  4  5  6  7  8  9 10  5
TYPE ASSIGNMENTS      6  7  8  9 10  5  6  7  8  9 10 11 12 13 17 14 15 18 19 16
TYPE ASSIGNMENTS     20 11 12 13 17 14 15 18 19 16 20  1  1  1  1  1  1  2  3  4
TYPE ASSIGNMENTS      2  3  4  2  3  4  5  6  7  8  9 10  5  6  7  8  9 10  1  1
TYPE ASSIGNMENTS      1  1  1  1  2  3  4  2  3  4  2  3  4  5  6  7  8  9 10  5
TYPE ASSIGNMENTS      6  7  8  9 10
EXPONENTS  0.3741000D+06 0.5605000D+05 0.1276000D+05 0.3615000D+04 0.1183000D+04
EXPONENTS  0.4288000D+03 0.1678000D+03 0.6947000D+02 0.2984000D+02 0.1272000D+02
EXPONENTS  0.5244000D+01 0.2219000D+01 0.3490000D+00 0.3741000D+06 0.5605000D+05
EXPONENTS  0.1276000D+05 0.3615000D+04 0.1183000D+04 0.4288000D+03 0.1678000D+03
EXPONENTS  0.6947000D+02 0.2984000D+02 0.1272000D+02 0.5244000D+01 0.2219000D+01
EXPONENTS  0.3490000D+00 0.3741000D+06 0.5605000D+05 0.1276000D+05 0.3615000D+04
EXPONENTS  0.1183000D+04 0.4288000D+03 0.1678000D+03 0.6947000D+02 0.2984000D+02
EXPONENTS  0.1272000D+02 0.5244000D+01 0.2219000D+01 0.3490000D+00 0.7767000D+00
EXPONENTS  0.1322000D+00 0.4970000D-01 0.5744000D+03 0.1358000D+03 0.4319000D+02
EXPONENTS  0.1587000D+02 0.6208000D+01 0.2483000D+01 0.3229000D+00 0.5744000D+03
EXPONENTS  0.1358000D+03 0.4319000D+02 0.1587000D+02 0.6208000D+01 0.2483000D+01
EXPONENTS  0.3229000D+00 0.5744000D+03 0.1358000D+03 0.4319000D+02 0.1587000D+02
EXPONENTS  0.6208000D+01 0.2483000D+01 0.3229000D+00 0.5744000D+03 0.1358000D+03
EXPONENTS  0.4319000D+02 0.1587000D+02 0.6208000D+01 0.2483000D+01 0.3229000D+00
EXPONENTS  0.5744000D+03 0.1358000D+03 0.4319000D+02 0.1587000D+02 0.6208000D+01
EXPONENTS  0.2483000D+01 0.3229000D+00 0.5744000D+03 0.1358000D+03 0.4319000D+02
EXPONENTS  0.1587000D+02 0.6208000D+01 0.2483000D+01 0.3229000D+00 0.8688000D+00
EXPONENTS  0.8688000D+00 0.8688000D+00 0.1098000D+00 0.1098000D+00 0.1098000D+00
EXPONENTS  0.3510000D-01 0.3510000D-01 0.3510000D-01 0.2690000D+00 0.2690000D+00
EXPONENTS  0.2690000D+00 0.2690000D+00 0.2690000D+00 0.2690000D+00 0.8190000D+00
EXPONENTS  0.8190000D+00 0.8190000D+00 0.8190000D+00 0.8190000D+00 0.8190000D+00
EXPONENTS  0.1010000D+00 0.1010000D+00 0.1010000D+00 0.1010000D+00 0.1010000D+00
EXPONENTS  0.1010000D+00 0.5570000D+00 0.5570000D+00 0.5570000D+00 0.5570000D+00
EXPONENTS  0.5570000D+00 0.5570000D+00 0.5570000D+00 0.5570000D+00 0.5570000D+00
EXPONENTS  0.5570000D+00 0.2180000D+00 0.2180000D+00 0.2180000D+00 0.2180000D+00
EXPONENTS  0.2180000D+00 0.2180000D+00 0.2180000D+00 0.2180000D+00 0.2180000D+00
EXPONENTS  0.2180000D+00 0.1533000D+05 0.2299000D+04 0.5224000D+03 0.1473000D+03
EXPONENTS  0.4755000D+02 0.1676000D+02 0.6207000D+01 0.6882000D+00 0.1533000D+05
EXPONENTS  0.2299000D+04 0.5224000D+03 0.1473000D+03 0.4755000D+02 0.1676000D+02
EXPONENTS  0.6207000D+01 0.6882000D+00 0.1752000D+01 0.2384000D+00 0.7376000D-01
EXPONENTS  0.3446000D+02 0.7749000D+01 0.2280000D+01 0.3446000D+02 0.7749000D+01
EXPONENTS  0.2280000D+01 0.3446000D+02 0.7749000D+01 0.2280000D+01 0.7156000D+00
EXPONENTS  0.7156000D+00 0.7156000D+00 0.2140000D+00 0.2140000D+00 0.2140000D+00
EXPONENTS  0.5974000D-01 0.5974000D-01 0.5974000D-01 0.2314000D+01 0.2314000D+01
EXPONENTS  0.2314000D+01 0.2314000D+01 0.2314000D+01 0.2314000D+01 0.6450000D+00
EXPONENTS  0.6450000D+00 0.6450000D+00 0.6450000D+00 0.6450000D+00 0.6450000D+00
EXPONENTS  0.2140000D+00 0.2140000D+00 0.2140000D+00 0.2140000D+00 0.2140000D+00
EXPONENTS  0.2140000D+00 0.1428000D+01 0.1428000D+01 0.1428000D+01 0.1428000D+01
EXPONENTS  0.1428000D+01 0.1428000D+01 0.1428000D+01 0.1428000D+01 0.1428000D+01
EXPONENTS  0.1428000D+01 0.5000000D+00 0.5000000D+00 0.5000000D+00 0.5000000D+00
EXPONENTS  0.5000000D+00 0.5000000D+00 0.5000000D+00 0.5000000D+00 0.5000000D+00
EXPONENTS  0.5000000D+00 0.1533000D+05 0.2299000D+04 0.5224000D+03 0.1473000D+03
EXPONENTS  0.4755000D+02 0.1676000D+02 0.6207000D+01 0.6882000D+00 0.1533000D+05
EXPONENTS  0.2299000D+04 0.5224000D+03 0.1473000D+03 0.4755000D+02 0.1676000D+02
EXPONENTS  0.6207000D+01 0.6882000D+00 0.1752000D+01 0.2384000D+00 0.7376000D-01
EXPONENTS  0.3446000D+02 0.7749000D+01 0.2280000D+01 0.3446000D+02 0.7749000D+01
EXPONENTS  0.2280000D+01 0.3446000D+02 0.7749000D+01 0.2280000D+01 0.7156000D+00
EXPONENTS  0.7156000D+00 0.7156000D+00 0.2140000D+00 0.2140000D+00 0.2140000D+00
EXPONENTS  0.5974000D-01 0.5974000D-01 0.5974000D-01 0.2314000D+01 0.2314000D+01
EXPONENTS  0.2314000D+01 0.2314000D+01 0.2314000D+01 0.2314000D+01 0.6450000D+00
EXPONENTS  0.6450000D+00 0.6450000D+00 0.6450000D+00 0.6450000D+00 0.6450000D+00
EXPONENTS  0.2140000D+00 0.2140000D+00 0.2140000D+00 0.2140000D+00 0.2140000D+00
EXPONENTS  0.2140000D+00 0.1428000D+01 0.1428000D+01 0.1428000D+01 0.1428000D+01
EXPONENTS  0.1428000D+01 0.1428000D+01 0.1428000D+01 0.1428000D+01 0.1428000D+01
EXPONENTS  0.1428000D+01 0.5000000D+00 0.5000000D+00 0.5000000D+00 0.5000000D+00
EXPONENTS  0.5000000D+00 0.5000000D+00 0.5000000D+00 0.5000000D+00 0.5000000D+00
EXPONENTS  0.5000000D+00 0.1533000D+05 0.2299000D+04 0.5224000D+03 0.1473000D+03
EXPONENTS  0.4755000D+02 0.1676000D+02 0.6207000D+01 0.6882000D+00 0.1533000D+05
EXPONENTS  0.2299000D+04 0.5224000D+03 0.1473000D+03 0.4755000D+02 0.1676000D+02
EXPONENTS  0.6207000D+01 0.6882000D+00 0.1752000D+01 0.2384000D+00 0.7376000D-01
EXPONENTS  0.3446000D+02 0.7749000D+01 0.2280000D+01 0.3446000D+02 0.7749000D+01
EXPONENTS  0.2280000D+01 0.3446000D+02 0.7749000D+01 0.2280000D+01 0.7156000D+00
EXPONENTS  0.7156000D+00 0.7156000D+00 0.2140000D+00 0.2140000D+00 0.2140000D+00
EXPONENTS  0.5974000D-01 0.5974000D-01 0.5974000D-01 0.2314000D+01 0.2314000D+01
EXPONENTS  0.2314000D+01 0.2314000D+01 0.2314000D+01 0.2314000D+01 0.6450000D+00
EXPONENTS  0.6450000D+00 0.6450000D+00 0.6450000D+00 0.6450000D+00 0.6450000D+00
EXPONENTS  0.2140000D+00 0.2140000D+00 0.2140000D+00 0.2140000D+00 0.2140000D+00
EXPONENTS  0.2140000D+00 0.1428000D+01 0.1428000D+01 0.1428000D+01 0.1428000D+01
EXPONENTS  0.1428000D+01 0.1428000D+01 0.1428000D+01 0.1428000D+01 0.1428000D+01
EXPONENTS  0.1428000D+01 0.5000000D+00 0.5000000D+00 0.5000000D+00 0.5000000D+00
EXPONENTS  0.5000000D+00 0.5000000D+00 0.5000000D+00 0.5000000D+00 0.5000000D+00
EXPONENTS  0.5000000D+00 0.1533000D+05 0.2299000D+04 0.5224000D+03 0.1473000D+03
EXPONENTS  0.4755000D+02 0.1676000D+02 0.6207000D+01 0.6882000D+00 0.1533000D+05
EXPONENTS  0.2299000D+04 0.5224000D+03 0.1473000D+03 0.4755000D+02 0.1676000D+02
EXPONENTS  0.6207000D+01 0.6882000D+00 0.1752000D+01 0.2384000D+00 0.7376000D-01
EXPONENTS  0.3446000D+02 0.7749000D+01 0.2280000D+01 0.3446000D+02 0.7749000D+01
EXPONENTS  0.2280000D+01 0.3446000D+02 0.7749000D+01 0.2280000D+01 0.7156000D+00
EXPONENTS  0.7156000D+00 0.7156000D+00 0.2140000D+00 0.2140000D+00 0.2140000D+00
EXPONENTS  0.5974000D-01 0.5974000D-01 0.5974000D-01 0.2314000D+01 0.2314000D+01
EXPONENTS  0.2314000D+01 0.2314000D+01 0.2314000D+01 0.2314000D+01 0.6450000D+00
EXPONENTS  0.6450000D+00 0.6450000D+00 0.6450000D+00 0.6450000D+00 0.6450000D+00
EXPONENTS  0.2140000D+00 0.2140000D+00 0.2140000D+00 0.2140000D+00 0.2140000D+00
EXPONENTS  0.2140000D+00 0.1428000D+01 0.1428000D+01 0.1428000D+01 0.1428000D+01
EXPONENTS  0.1428000D+01 0.1428000D+01 0.1428000D+01 0.1428000D+01 0.1428000D+01
EXPONENTS  0.1428000D+01 0.5000000D+00 0.5000000D+00 0.5000000D+00 0.5000000D+00
EXPONENTS  0.5000000D+00 0.5000000D+00 0.5000000D+00 0.5000000D+00 0.5000000D+00
EXPONENTS  0.5000000D+00 0.3387000D+02 0.5095000D+01 0.1159000D+01 0.3258000D+00
EXPONENTS  0.1027000D+00 0.2526000D-01 0.1407000D+01 0.1407000D+01 0.1407000D+01
EXPONENTS  0.3880000D+00 0.3880000D+00 0.3880000D+00 0.1020000D+00 0.1020000D+00
EXPONENTS  0.1020000D+00 0.1057000D+01 0.1057000D+01 0.1057000D+01 0.1057000D+01
EXPONENTS  0.1057000D+01 0.1057000D+01 0.2470000D+00 0.2470000D+00 0.2470000D+00
EXPONENTS  0.2470000D+00 0.2470000D+00 0.2470000D+00 0.3387000D+02 0.5095000D+01
EXPONENTS  0.1159000D+01 0.3258000D+00 0.1027000D+00 0.2526000D-01 0.1407000D+01
EXPONENTS  0.1407000D+01 0.1407000D+01 0.3880000D+00 0.3880000D+00 0.3880000D+00
EXPONENTS  0.1020000D+00 0.1020000D+00 0.1020000D+00 0.1057000D+01 0.1057000D+01
EXPONENTS  0.1057000D+01 0.1057000D+01 0.1057000D+01 0.1057000D+01 0.2470000D+00
EXPONENTS  0.2470000D+00 0.2470000D+00 0.2470000D+00 0.2470000D+00 0.2470000D+00
MO    1     MO 0.0        OCC NO =    2.0000000  ORB. ENERGY =  -89.336263
  0.58560540D+00  0.10947553D+01  0.18920789D+01  0.30603527D+01  0.46255440D+01
  0.63701331D+01  0.74452087D+01  0.64332220D+01  0.30004777D+01  0.40740004D+00
  0.10909169D-02  0.21399281D-02  0.97696655D-04 -0.20050537D-02 -0.37445232D-02
 -0.64954549D-02 -0.10532155D-01 -0.16215452D-01 -0.23094446D-01 -0.29696460D-01
 -0.31172446D-01 -0.22041129D-01  0.48811002D-03  0.15836836D-01  0.87201916D-02
 -0.36877542D-04  0.10156746D-02  0.18953990D-02  0.32920812D-02  0.53324411D-02
  0.82370609D-02  0.11743168D-01  0.15274026D-01  0.16277994D-01  0.12073050D-01
 -0.37578920D-03 -0.10937554D-01 -0.10715028D-01  0.50045535D-02 -0.30484481D-02
 -0.24561004D-02 -0.13824549D-03 -0.95177997D-03 -0.12486835D-02 -0.13696155D-02
 -0.11269413D-02 -0.59414575D-03 -0.15456864D-03  0.17104596D-06 -0.12272178D-02
 -0.16100429D-02 -0.17659717D-02 -0.14530695D-02 -0.76608696D-03 -0.19929962D-03
  0.22054535D-06 -0.48245860D-04 -0.63295942D-04 -0.69426000D-04 -0.57124813D-04
 -0.30117331D-04 -0.78351061D-05  0.86703437D-08  0.61044139D-03  0.80151327D-03
  0.90175647D-03  0.75979800D-03  0.42502035D-03  0.10578670D-03 -0.48518878D-04
  0.78070830D-03  0.10250748D-02  0.11532782D-02  0.97172409D-03  0.54356883D-03
  0.13529318D-03 -0.62051969D-04  0.33086894D-04  0.43443294D-04  0.48876635D-04
  0.41182260D-04  0.23036779D-04  0.57338074D-05 -0.26298003D-05  0.12480209D-03
  0.16367605D-03  0.52862324D-05  0.33373832D-04  0.43781257D-04  0.14758290D-05
  0.15217130D-05  0.19861109D-05  0.65866319D-07 -0.97693678D-06  0.11215808D-04
 -0.10238872D-04  0.41789682D-04  0.31229546D-04 -0.20608236D-04  0.49139380D-04
 -0.24491804D-04 -0.24647576D-04 -0.21492711D-03 -0.41894369D-03  0.31514247D-03
 -0.70868152D-05  0.31570258D-06  0.67711126D-05  0.25806080D-04  0.97252504D-05
 -0.72154461D-05  0.91621766D-04  0.34228932D-04 -0.22926883D-05 -0.19288279D-03
 -0.47131323D-04 -0.58733749D-03 -0.81982512D-04 -0.55555473D-04  0.59421555D-03
 -0.33023971D-03 -0.29579244D-04 -0.77497954D-05  0.42534408D-06  0.68315205D-04
  0.17674024D-04  0.24415720D-03  0.20422526D-04  0.55753619D-05 -0.24543323D-03
  0.13720980D-03  0.19888442D-04  0.37069498D-04  0.62857586D-04  0.95137884D-04
  0.11870430D-03  0.10195116D-03  0.39141034D-04 -0.17508025D-06 -0.18447727D-04
 -0.34599169D-04 -0.58983998D-04 -0.92180508D-04 -0.12326290D-03 -0.13161604D-03
 -0.80467468D-04  0.53087548D-04  0.14238918D-03  0.74161115D-03  0.73414721D-04
 -0.26633305D-03 -0.25825347D-03 -0.17421626D-03  0.63752958D-04  0.61818924D-04
  0.41702681D-04  0.17567228D-03  0.17034302D-03  0.11491239D-03  0.16577421D-03
 -0.38669272D-04 -0.10147634D-03  0.67127606D-04  0.71743158D-04 -0.50234537D-04
  0.90091250D-06 -0.30579192D-05  0.67723024D-06  0.25544009D-03 -0.23426209D-03
 -0.21178003D-04 -0.76673712D-04 -0.71921737D-03  0.20076666D-03 -0.23142969D-03
  0.21053631D-03  0.20893387D-04  0.86869683D-04  0.59958438D-03 -0.11386613D-03
 -0.53024575D-04  0.36480855D-04  0.16543720D-04 -0.38387341D-04  0.14968142D-03
  0.58562396D-05  0.11013668D-04 -0.15038047D-04 -0.82402057D-05 -0.15943624D-03
 -0.13458325D-03  0.21923758D-03  0.12639524D-03  0.17969739D-03 -0.19451697D-03
  0.20120701D-03  0.23966632D-04  0.22627817D-04  0.57234177D-04 -0.11615947D-03
 -0.77856683D-05 -0.33964308D-03  0.44259575D-04 -0.60097784D-04  0.16794055D-03
  0.26916136D-04  0.19870774D-04  0.37036565D-04  0.62801743D-04  0.95053364D-04
  0.11859885D-03  0.10186059D-03  0.39106262D-04 -0.17492471D-06 -0.18436365D-04
 -0.34577859D-04 -0.58947670D-04 -0.92123734D-04 -0.12318699D-03 -0.13153498D-03
 -0.80417908D-04  0.53054852D-04  0.14242409D-03  0.74105649D-03  0.73351349D-04
  0.13776120D-03  0.13358203D-03  0.90113645D-04 -0.23279893D-03 -0.22573666D-03
 -0.15228062D-03 -0.18118136D-03 -0.17568497D-03 -0.11851605D-03 -0.84568120D-04
  0.14559188D-03  0.10506246D-03  0.49680965D-04  0.82229168D-04  0.54874325D-04
 -0.31744733D-05  0.11158137D-06 -0.78288322D-06 -0.16796569D-03  0.17552523D-03
 -0.75595409D-05 -0.32034349D-03 -0.40715702D-03  0.64679329D-03  0.14865284D-03
 -0.15595477D-03  0.73019307D-05  0.30649104D-03  0.28974082D-03 -0.55330442D-03
  0.38961559D-04 -0.50680127D-04  0.11718568D-04  0.15947598D-04  0.36234738D-04
 -0.15093367D-03  0.99129053D-05 -0.24167850D-04  0.19363779D-04 -0.18225912D-03
 -0.75318602D-04  0.20606936D-03  0.15252040D-03  0.14782215D-03 -0.26416070D-03
 -0.27677180D-05  0.51746518D-04  0.19338454D-06 -0.58109476D-04 -0.71677594D-04
 -0.49397625D-04 -0.11827263D-03 -0.83561959D-04  0.48817472D-04  0.29260106D-03
 -0.28816411D-03 -0.43396748D-05 -0.80885954D-05 -0.13715578D-04 -0.20759166D-04
 -0.25901378D-04 -0.22245829D-04 -0.85406064D-05  0.38202657D-07 -0.15435674D-05
 -0.28949988D-05 -0.49353384D-05 -0.77129732D-05 -0.10313715D-04 -0.11012643D-04
 -0.67329139D-05  0.44419677D-05  0.89887657D-04  0.77715177D-03 -0.14206938D-04
 -0.18209873D-04 -0.17657452D-04 -0.11911612D-04  0.21172512D-03  0.20530214D-03
  0.13849561D-03 -0.69985674D-04 -0.67862562D-04 -0.45779683D-04  0.42298905D-04
 -0.78262266D-04 -0.56020489D-04  0.82441585D-04  0.12475784D-03 -0.13115927D-03
 -0.45833263D-05  0.82169194D-06  0.60252906D-05 -0.25562062D-03  0.22969126D-03
  0.25929354D-04  0.88938957D-05 -0.95804094D-04 -0.72179804D-03  0.14370568D-03
 -0.12518357D-03 -0.18522106D-04 -0.70430644D-04 -0.50771990D-05  0.43412835D-03
  0.42896702D-04 -0.53261894D-04  0.10365192D-04  0.36611303D-04 -0.21634729D-04
  0.10172163D-03 -0.52660721D-04 -0.23245772D-04  0.35780020D-04 -0.11557692D-04
 -0.66225110D-04  0.25447885D-03  0.16953985D-03  0.13596243D-03 -0.36181891D-03
  0.30030265D-03  0.21050004D-04  0.28283096D-04 -0.39170294D-04 -0.22567289D-04
  0.10148167D-03 -0.20629917D-03 -0.40582723D-04 -0.18633096D-03  0.32381005D-03
  0.84661009D-05 -0.41240629D-05 -0.76867225D-05 -0.13034135D-04 -0.19727770D-04
 -0.24614497D-04 -0.21140570D-04 -0.81162759D-05  0.36304600D-07 -0.17003728D-05
 -0.31890912D-05 -0.54367014D-05 -0.84965061D-05 -0.11361448D-04 -0.12131377D-04
 -0.74168861D-05  0.48932110D-05  0.90182717D-04  0.77678728D-03 -0.14169790D-04
  0.20748475D-03  0.20119041D-03  0.13572186D-03  0.35778085D-04  0.34692707D-04
  0.23403495D-04  0.78470243D-04  0.76089740D-04  0.51329689D-04 -0.89280541D-04
  0.17558458D-04  0.53599076D-04  0.92542938D-04  0.10713015D-03  0.13751150D-03
  0.21428247D-05 -0.39346019D-05 -0.61434450D-05  0.17319878D-03 -0.23121399D-03
  0.58015212D-04  0.21958731D-03  0.68993554D-03  0.26890070D-03 -0.75656155D-04
  0.11173400D-03 -0.36077842D-04 -0.17790436D-03 -0.43258580D-03 -0.10490048D-03
 -0.52623370D-04  0.45897560D-04  0.67258107D-05 -0.13473118D-04 -0.10906350D-03
 -0.35925058D-05 -0.33496876D-04 -0.52594105D-04 -0.24749657D-04 -0.14060014D-04
 -0.22479800D-04  0.38596928D-03  0.11455064D-03  0.18026211D-03 -0.31172031D-03
  0.34050355D-04  0.45943048D-04  0.35804967D-04  0.29920373D-04  0.62403433D-04
 -0.20649116D-04 -0.27088911D-03 -0.20023258D-03 -0.86765785D-04  0.18112799D-03
 -0.25486386D-03  0.21653200D-05  0.39052438D-05  0.57582798D-05 -0.12555296D-03
  0.18354377D-03  0.25980295D-05 -0.33103292D-04 -0.18210169D-03  0.36320335D-04
  0.35735123D-05 -0.81143562D-04  0.21561443D-04 -0.78060142D-05  0.28584056D-04
 -0.33053830D-05  0.50847934D-04 -0.68987474D-04  0.18139540D-04  0.90853780D-04
 -0.46468117D-04 -0.13095455D-04 -0.71539849D-05 -0.14922148D-05  0.86461997D-05
  0.25103072D-04 -0.21014364D-04 -0.41194333D-04  0.22850956D-05  0.41212641D-05
  0.60768015D-05 -0.12664511D-03  0.18291541D-03  0.25822219D-05 -0.16573818D-03
 -0.78561007D-04 -0.44785326D-04 -0.78772274D-04 -0.17249893D-04 -0.24511539D-04
  0.29426049D-04 -0.89328112D-07  0.42173456D-05 -0.84185635D-04  0.63964151D-04
  0.20221484D-04  0.15056059D-04 -0.55179002D-05  0.52197374D-04 -0.93236473D-05
 -0.16457349D-05  0.10969382D-04  0.22017665D-04  0.33905811D-04  0.31002131D-04
MO    2     MO 0.0        OCC NO =    2.0000000  ORB. ENERGY =  -19.300127
  0.77183761D-04  0.14429056D-03  0.24937913D-03  0.40335955D-03  0.60965435D-03
  0.83959407D-03  0.98129082D-03  0.84790930D-03  0.39546792D-03  0.53695999D-04
  0.14378466D-06  0.28204606D-06  0.12876581D-07 -0.12565288D-03 -0.23466211D-03
 -0.40705774D-03 -0.66003005D-03 -0.10161914D-02 -0.14472848D-02 -0.18610204D-02
 -0.19535176D-02 -0.13812754D-02  0.30588922D-04  0.99246422D-03  0.54647774D-03
 -0.23110451D-05  0.62081082D-04  0.11585248D-03  0.20122190D-03  0.32593483D-03
  0.50347392D-03  0.71777772D-03  0.93359435D-03  0.99495992D-03  0.73794108D-03
 -0.22969366D-04 -0.66853618D-03 -0.65493471D-03  0.30589335D-03 -0.66332234D-03
  0.13366930D-02  0.54656954D-03 -0.14425443D-01 -0.18925396D-01 -0.20758274D-01
 -0.17080237D-01 -0.90050388D-02 -0.23426855D-02  0.25924203D-05 -0.37785670D-02
 -0.49572741D-02 -0.54373742D-02 -0.44739576D-02 -0.23587589D-02 -0.61363759D-03
  0.67905256D-06 -0.15215032D-01 -0.19961294D-01 -0.21894497D-01 -0.18015139D-01
 -0.94979374D-02 -0.24709144D-02  0.27343187D-05  0.13100911D-01  0.17201576D-01
  0.19352933D-01  0.16306309D-01  0.91215206D-02  0.22703279D-02 -0.10412818D-02
  0.34840762D-02  0.45746133D-02  0.51467484D-02  0.43365246D-02  0.24257911D-02
  0.60377446D-03 -0.27692006D-03  0.13886424D-01  0.18232960D-01  0.20513309D-01
  0.17284014D-01  0.96684350D-02  0.24064538D-02 -0.11037157D-02  0.73990568D-03
  0.14898211D-03  0.67962189D-03 -0.25098408D-03 -0.31029146D-04 -0.10059901D-03
 -0.15016439D-04 -0.65089010D-05 -0.89099344D-06  0.27662386D-03 -0.30918281D-03
  0.32558946D-04  0.32334299D-03  0.88745315D-03  0.38309704D-03 -0.15312102D-04
 -0.11295206D-03  0.12826416D-03  0.14239313D-03  0.38566025D-03  0.12448056D-03
  0.19789890D-04 -0.10433072D-04 -0.93568182D-05 -0.86915385D-05  0.15713821D-04
  0.28231793D-04  0.72209590D-04  0.85906811D-04  0.99461286D-04  0.23848828D-03
 -0.19669109D-03 -0.45823244D-03 -0.45511705D-03 -0.61029343D-04  0.15984858D-03
 -0.57861190D-03 -0.14763535D-06 -0.17198781D-04  0.28796639D-04  0.76901129D-04
 -0.47287212D-04 -0.95268114D-04 -0.76458223D-04  0.98883555D-04  0.88781957D-05
 -0.97716738D-04  0.20340143D-04  0.37911409D-04  0.64285189D-04  0.97298627D-04
  0.12140028D-03  0.10426665D-03  0.40029994D-04 -0.17905662D-06 -0.32432512D-04
 -0.60827981D-04 -0.10369837D-03 -0.16206037D-03 -0.21670559D-03 -0.23139105D-03
 -0.14146795D-03  0.93331962D-04 -0.24507051D-04 -0.91163112D-04 -0.13952910D-03
  0.11652919D-03  0.11299412D-03  0.76225166D-04  0.37923336D-04  0.36772879D-04
  0.24806767D-04  0.73544126D-04  0.71313063D-04  0.48107371D-04 -0.11047005D-03
 -0.28274501D-04 -0.47119739D-04 -0.63576723D-04 -0.48019722D-04 -0.22046314D-03
  0.26773833D-05  0.34221636D-05 -0.14613669D-04 -0.80437730D-04 -0.32416209D-04
  0.11285394D-03 -0.93878706D-04 -0.13373678D-03 -0.46039604D-04  0.91660810D-04
  0.88154701D-05 -0.10047628D-03  0.67189162D-04  0.13997876D-03  0.75425216D-05
  0.37120242D-04 -0.58921331D-05 -0.31228109D-04  0.39524392D-04  0.54278953D-04
  0.18618772D-05 -0.86105974D-04  0.17272167D-04  0.26474430D-04  0.11225689D-03
 -0.16311946D-04 -0.18114237D-03  0.14606103D-03 -0.35504556D-04  0.10171908D-03
  0.10774623D-04 -0.41117336D-05  0.22281937D-05 -0.58429534D-05 -0.33351585D-04
 -0.28147957D-04  0.29415634D-04  0.45686786D-04  0.21463376D-04 -0.11886774D-04
  0.15715385D-04 -0.10933256D-04 -0.20378182D-04 -0.34554644D-04 -0.52300063D-04
 -0.65255209D-04 -0.56045522D-04 -0.21516966D-04  0.96246708D-07 -0.16732790D-04
 -0.31382763D-04 -0.53500731D-04 -0.83611229D-04 -0.11180414D-03 -0.11938076D-03
 -0.72987056D-04  0.48152427D-04 -0.11706321D-04 -0.16946491D-03 -0.18619552D-03
  0.42613756D-04  0.41321009D-04  0.27874908D-04  0.50738082D-05  0.49198872D-05
  0.33189269D-05  0.71940094D-04  0.69757692D-04  0.47058127D-04 -0.38277093D-04
  0.20516685D-05 -0.42058630D-04 -0.12809412D-03  0.14524295D-03 -0.24953717D-03
 -0.22848536D-05  0.11485472D-04 -0.34067594D-05  0.45545816D-04  0.60456485D-04
 -0.10600230D-03 -0.12631684D-03  0.16132321D-03 -0.44056187D-04 -0.24393014D-04
 -0.58781200D-04  0.83174214D-04  0.11895482D-03 -0.36611749D-04  0.20615836D-04
 -0.24177828D-04 -0.37247365D-04  0.61425193D-04  0.51295493D-04  0.19631222D-05
  0.88187154D-04  0.67541464D-04  0.40204236D-04 -0.21206263D-04 -0.43561831D-04
 -0.56245682D-04 -0.28275843D-04 -0.15906256D-03 -0.64367026D-04  0.91894630D-04
 -0.33770306D-03 -0.74152193D-05  0.47659870D-05 -0.92445912D-05 -0.33737979D-04
  0.10984496D-04  0.33009474D-04  0.55983637D-04 -0.25282457D-04 -0.52757000D-05
  0.62360354D-04 -0.17092862D-01 -0.31858896D-01 -0.54022131D-01 -0.81765011D-01
 -0.10201886D+00 -0.87620596D-01 -0.33639251D-01  0.15047043D-03 -0.41198737D-04
 -0.77269253D-04 -0.13172714D-03 -0.20586387D-03 -0.27527922D-03 -0.29393403D-03
 -0.17970550D-03  0.11855878D-03 -0.19035970D-02 -0.11074255D-03 -0.59682168D-04
 -0.30154152D-04 -0.29239384D-04 -0.19724716D-04 -0.19809444D-03 -0.19208497D-03
 -0.12957939D-03  0.32438995D-03  0.31454913D-03  0.21219299D-03 -0.11306983D-03
  0.28338697D-03 -0.10627678D-03 -0.17849674D-03  0.20695885D-03  0.21763549D-04
 -0.11086852D-05  0.15952950D-05 -0.12798008D-04  0.49676670D-04 -0.94310158D-04
  0.44633488D-04  0.14902852D-03  0.14073987D-03 -0.37355305D-04 -0.41610601D-04
  0.14678713D-04  0.26931888D-04  0.45910913D-04  0.37162987D-04 -0.12283948D-03
 -0.24256219D-04  0.30833583D-04 -0.65773637D-05 -0.13090461D-04  0.43369577D-04
 -0.67004896D-04  0.54147346D-04 -0.43634084D-04 -0.50622905D-04  0.51152732D-04
  0.68795944D-04 -0.10507584D-03 -0.21359477D-03  0.62106308D-04  0.25694456D-03
 -0.73035147D-04 -0.29919525D-05  0.73543400D-05  0.12673002D-04 -0.71941691D-04
  0.37264329D-05  0.55089829D-04  0.80917549D-04 -0.25789453D-04 -0.93108834D-04
  0.39941719D-04  0.49672689D+00  0.92583501D+00  0.15699094D+01  0.23761310D+01
  0.29647178D+01  0.25462972D+01  0.97757299D+00 -0.43727440D-02  0.11366780D-03
  0.21318678D-03  0.36343673D-03  0.56798086D-03  0.75949864D-03  0.81096748D-03
  0.49580961D-03 -0.32710507D-03  0.54079683D-01 -0.96792265D-03 -0.67219809D-03
 -0.30667575D-03 -0.29737232D-03 -0.20060561D-03  0.33170208D-02  0.32163944D-02
  0.21697607D-02  0.69358590D-02  0.67254501D-02  0.45369489D-02 -0.13879609D-02
 -0.73296716D-04 -0.62832275D-03 -0.59485429D-03 -0.33726372D-03 -0.88254752D-03
 -0.53731818D-04 -0.57583035D-05 -0.50147570D-04  0.23314596D-02 -0.18334145D-02
 -0.49804515D-03 -0.13666669D-02  0.24386220D-03  0.17509747D-02 -0.40985221D-03
  0.45613322D-03 -0.46281011D-04 -0.33779774D-03 -0.12760807D-02 -0.31998570D-03
 -0.86113255D-04  0.10269360D-03 -0.16580348D-04 -0.20978160D-04 -0.18904984D-03
 -0.12031010D-03 -0.24038912D-03 -0.38094362D-03 -0.42415295D-03  0.50146114D-03
  0.12172940D-02  0.15495033D-02  0.21970624D-03 -0.74463121D-04 -0.27704445D-03
 -0.15128162D-02  0.12393614D-03  0.14049895D-03  0.15131443D-03 -0.15469639D-04
 -0.40994540D-03 -0.66144344D-03 -0.35633879D-03 -0.11551455D-04  0.20750016D-03
  0.47883717D-04 -0.15888570D-04 -0.28655691D-04 -0.42252800D-04  0.33532164D-03
  0.28340205D-04  0.47952193D-06 -0.92635989D-05  0.52873700D-04  0.61236775D-04
 -0.72254238D-04  0.12706411D-03  0.11171678D-03 -0.12765833D-04  0.16251872D-04
  0.17800054D-04 -0.46022094D-04  0.33636152D-04  0.12385943D-04 -0.17230646D-03
 -0.11032471D-03  0.12845467D-03  0.17281134D-05  0.53387156D-05 -0.70668289D-05
 -0.10341563D-04  0.84890496D-05  0.36173847D-04  0.20383723D-03  0.36762883D-03
  0.54206850D-03  0.20830479D-04 -0.25949240D-03 -0.32143481D-04 -0.38440438D-03
  0.73533286D-04  0.68226065D-04 -0.53239939D-03  0.15457637D-03  0.13658781D-03
 -0.89315762D-04  0.85476846D-05 -0.65144672D-05 -0.12562269D-02  0.66125034D-03
  0.59497651D-03  0.15698849D-02  0.18163153D-02 -0.61807983D-03 -0.40735428D-04
  0.26707794D-04  0.14027634D-04  0.26427390D-04  0.13587020D-05 -0.18583657D-04
MO    3     MO 0.0        OCC NO =    2.0000000  ORB. ENERGY =  -19.300035
  0.82131530D-04  0.15354012D-03  0.26536527D-03  0.42921642D-03  0.64873548D-03
  0.89341521D-03  0.10441952D-02  0.90226347D-03  0.42081890D-03  0.57138115D-04
  0.15300179D-06  0.30012627D-06  0.13702018D-07 -0.13354971D-03 -0.24940978D-03
 -0.43263985D-03 -0.70151056D-03 -0.10800554D-02 -0.15382414D-02 -0.19779788D-02
 -0.20762892D-02 -0.14680836D-02  0.32511325D-04  0.10548370D-02  0.58082189D-03
 -0.24562859D-05  0.65874263D-04  0.12293112D-03  0.21351664D-03  0.34584959D-03
  0.53423639D-03  0.76163425D-03  0.99063737D-03  0.10557524D-02  0.78302960D-03
 -0.24372804D-04 -0.70938403D-03 -0.69495150D-03  0.32458357D-03 -0.71013016D-03
  0.14312123D-02  0.58520373D-03 -0.12749918D-02 -0.16727199D-02 -0.18347187D-02
 -0.15096356D-02 -0.79590977D-03 -0.20705810D-03  0.22913090D-06 -0.15781174D-01
 -0.20704042D-01 -0.22709178D-01 -0.18685471D-01 -0.98513501D-02 -0.25628557D-02
  0.28360611D-05  0.13562724D-01  0.17793555D-01  0.19516818D-01  0.16058747D-01
  0.84664890D-02  0.22025803D-02 -0.24373796D-05  0.12106810D-02  0.15896315D-02
  0.17884426D-02  0.15068981D-02  0.84293766D-03  0.20980547D-03 -0.96226897D-04
  0.14349395D-01  0.18840843D-01  0.21197219D-01  0.17860259D-01  0.99907786D-02
  0.24866845D-02 -0.11405133D-02 -0.12376712D-01 -0.16250698D-01 -0.18283131D-01
 -0.15404920D-01 -0.86172962D-02 -0.21448275D-02  0.98372123D-03  0.19167267D-04
  0.79290522D-03 -0.60538186D-03  0.16378587D-04 -0.25677311D-03  0.84452296D-04
 -0.33682662D-05 -0.16690532D-04  0.11915297D-06 -0.32794138D-03  0.33535346D-03