 Molden2AIM, Version 4.0.0 (06/02/2016)           Time: Fri Jun 29 18:12:52 2018
GAUSSIAN             25 MOL ORBITALS    512 PRIMITIVES        8 NUCLEI
  P    1    (CENTRE  1)  -2.31202700  1.30191548 -0.16594630  CHARGE = 15.0
  O    2    (CENTRE  2)   0.66468282  1.98295576  0.09448631  CHARGE =  8.0
  O    3    (CENTRE  3)  -3.23637520  3.40013697 -2.19947302  CHARGE =  8.0
  O    4    (CENTRE  4)  -3.42955434  2.45622066  2.44396201  CHARGE =  8.0
  H    5    (CENTRE  5)   1.64401449  0.92649492 -1.02461328  CHARGE =  1.0
  H    6    (CENTRE  6)  -4.81605774  2.88451575 -2.95197141  CHARGE =  1.0
  H    7    (CENTRE  7)  -3.51618316  1.15061644  3.71497857  CHARGE =  1.0
  O    8    (CENTRE  8)  -2.95069207 -1.38766180 -0.73789648  CHARGE =  8.0
CENTRE ASSIGNMENTS    1  1  1  1  1  1  1  1  1  1  1  1  1  1  1  1  1  1  1  1
CENTRE ASSIGNMENTS    1  1  1  1  1  1  1  1  1  1  1  1  1  1  1  1  1  1  1  1
CENTRE ASSIGNMENTS    1  1  1  1  1  1  1  1  1  1  1  1  1  1  1  1  1  1  1  1
CENTRE ASSIGNMENTS    1  1  1  1  1  1  1  1  1  1  1  1  1  1  1  1  1  1  1  1
CENTRE ASSIGNMENTS    1  1  1  1  1  1  1  1  1  1  1  1  1  1  1  1  1  1  1  1
CENTRE ASSIGNMENTS    1  1  1  1  1  1  1  1  1  1  1  1  1  1  1  1  1  1  1  1
CENTRE ASSIGNMENTS    1  1  1  1  1  1  1  1  1  1  1  2  2  2  2  2  2  2  2  2
CENTRE ASSIGNMENTS    2  2  2  2  2  2  2  2  2  2  2  2  2  2  2  2  2  2  2  2
CENTRE ASSIGNMENTS    2  2  2  2  2  2  2  2  2  2  2  2  2  2  2  2  2  2  2  2
CENTRE ASSIGNMENTS    2  2  2  2  2  2  2  2  2  2  2  2  2  2  2  2  2  2  2  2
CENTRE ASSIGNMENTS    2  2  2  2  2  2  3  3  3  3  3  3  3  3  3  3  3  3  3  3
CENTRE ASSIGNMENTS    3  3  3  3  3  3  3  3  3  3  3  3  3  3  3  3  3  3  3  3
CENTRE ASSIGNMENTS    3  3  3  3  3  3  3  3  3  3  3  3  3  3  3  3  3  3  3  3
CENTRE ASSIGNMENTS    3  3  3  3  3  3  3  3  3  3  3  3  3  3  3  3  3  3  3  3
CENTRE ASSIGNMENTS    3  4  4  4  4  4  4  4  4  4  4  4  4  4  4  4  4  4  4  4
CENTRE ASSIGNMENTS    4  4  4  4  4  4  4  4  4  4  4  4  4  4  4  4  4  4  4  4
CENTRE ASSIGNMENTS    4  4  4  4  4  4  4  4  4  4  4  4  4  4  4  4  4  4  4  4
CENTRE ASSIGNMENTS    4  4  4  4  4  4  4  4  4  4  4  4  4  4  4  4  5  5  5  5
CENTRE ASSIGNMENTS    5  5  5  5  5  5  5  5  5  5  5  5  5  5  5  5  5  5  5  5
CENTRE ASSIGNMENTS    5  5  5  6  6  6  6  6  6  6  6  6  6  6  6  6  6  6  6  6
CENTRE ASSIGNMENTS    6  6  6  6  6  6  6  6  6  6  7  7  7  7  7  7  7  7  7  7
CENTRE ASSIGNMENTS    7  7  7  7  7  7  7  7  7  7  7  7  7  7  7  7  7  8  8  8
CENTRE ASSIGNMENTS    8  8  8  8  8  8  8  8  8  8  8  8  8  8  8  8  8  8  8  8
CENTRE ASSIGNMENTS    8  8  8  8  8  8  8  8  8  8  8  8  8  8  8  8  8  8  8  8
CENTRE ASSIGNMENTS    8  8  8  8  8  8  8  8  8  8  8  8  8  8  8  8  8  8  8  8
CENTRE ASSIGNMENTS    8  8  8  8  8  8  8  8  8  8  8  8
TYPE ASSIGNMENTS      1  1  1  1  1  1  1  1  1  1  1  1  1  1  1  1  1  1  1  1
TYPE ASSIGNMENTS      1  1  1  1  1  1  1  1  1  1  1  1  1  1  1  1  1  1  1  1
TYPE ASSIGNMENTS      1  1  2  2  2  2  2  2  2  3  3  3  3  3  3  3  4  4  4  4
TYPE ASSIGNMENTS      4  4  4  2  2  2  2  2  2  2  3  3  3  3  3  3  3  4  4  4
TYPE ASSIGNMENTS      4  4  4  4  2  3  4  2  3  4  2  3  4  5  6  7  8  9 10  5
TYPE ASSIGNMENTS      6  7  8  9 10  5  6  7  8  9 10 11 12 13 17 14 15 18 19 16
TYPE ASSIGNMENTS     20 11 12 13 17 14 15 18 19 16 20  1  1  1  1  1  1  1  1  1
TYPE ASSIGNMENTS      1  1  1  1  1  1  1  1  1  1  2  2  2  3  3  3  4  4  4  2
TYPE ASSIGNMENTS      3  4  2  3  4  2  3  4  5  6  7  8  9 10  5  6  7  8  9 10
TYPE ASSIGNMENTS      5  6  7  8  9 10 11 12 13 17 14 15 18 19 16 20 11 12 13 17
TYPE ASSIGNMENTS     14 15 18 19 16 20  1  1  1  1  1  1  1  1  1  1  1  1  1  1
TYPE ASSIGNMENTS      1  1  1  1  1  2  2  2  3  3  3  4  4  4  2  3  4  2  3  4
TYPE ASSIGNMENTS      2  3  4  5  6  7  8  9 10  5  6  7  8  9 10  5  6  7  8  9
TYPE ASSIGNMENTS     10 11 12 13 17 14 15 18 19 16 20 11 12 13 17 14 15 18 19 16
TYPE ASSIGNMENTS     20  1  1  1  1  1  1  1  1  1  1  1  1  1  1  1  1  1  1  1
TYPE ASSIGNMENTS      2  2  2  3  3  3  4  4  4  2  3  4  2  3  4  2  3  4  5  6
TYPE ASSIGNMENTS      7  8  9 10  5  6  7  8  9 10  5  6  7  8  9 10 11 12 13 17
TYPE ASSIGNMENTS     14 15 18 19 16 20 11 12 13 17 14 15 18 19 16 20  1  1  1  1
TYPE ASSIGNMENTS      1  1  2  3  4  2  3  4  2  3  4  5  6  7  8  9 10  5  6  7
TYPE ASSIGNMENTS      8  9 10  1  1  1  1  1  1  2  3  4  2  3  4  2  3  4  5  6
TYPE ASSIGNMENTS      7  8  9 10  5  6  7  8  9 10  1  1  1  1  1  1  2  3  4  2
TYPE ASSIGNMENTS      3  4  2  3  4  5  6  7  8  9 10  5  6  7  8  9 10  1  1  1
TYPE ASSIGNMENTS      1  1  1  1  1  1  1  1  1  1  1  1  1  1  1  1  2  2  2  3
TYPE ASSIGNMENTS      3  3  4  4  4  2  3  4  2  3  4  2  3  4  5  6  7  8  9 10
TYPE ASSIGNMENTS      5  6  7  8  9 10  5  6  7  8  9 10 11 12 13 17 14 15 18 19
TYPE ASSIGNMENTS     16 20 11 12 13 17 14 15 18 19 16 20
EXPONENTS  0.3124000D+06 0.4680000D+05 0.1065000D+05 0.3018000D+04 0.9868000D+03
EXPONENTS  0.3574000D+03 0.1396000D+03 0.5763000D+02 0.2460000D+02 0.1012000D+02
EXPONENTS  0.4283000D+01 0.1805000D+01 0.2782000D+00 0.3124000D+06 0.4680000D+05
EXPONENTS  0.1065000D+05 0.3018000D+04 0.9868000D+03 0.3574000D+03 0.1396000D+03
EXPONENTS  0.5763000D+02 0.2460000D+02 0.1012000D+02 0.4283000D+01 0.1805000D+01
EXPONENTS  0.2782000D+00 0.3124000D+06 0.4680000D+05 0.1065000D+05 0.3018000D+04
EXPONENTS  0.9868000D+03 0.3574000D+03 0.1396000D+03 0.5763000D+02 0.2460000D+02
EXPONENTS  0.1012000D+02 0.4283000D+01 0.1805000D+01 0.2782000D+00 0.6158000D+00
EXPONENTS  0.1055000D+00 0.4090000D-01 0.5049000D+03 0.1194000D+03 0.3796000D+02
EXPONENTS  0.1395000D+02 0.5457000D+01 0.2177000D+01 0.2877000D+00 0.5049000D+03
EXPONENTS  0.1194000D+03 0.3796000D+02 0.1395000D+02 0.5457000D+01 0.2177000D+01
EXPONENTS  0.2877000D+00 0.5049000D+03 0.1194000D+03 0.3796000D+02 0.1395000D+02
EXPONENTS  0.5457000D+01 0.2177000D+01 0.2877000D+00 0.5049000D+03 0.1194000D+03
EXPONENTS  0.3796000D+02 0.1395000D+02 0.5457000D+01 0.2177000D+01 0.2877000D+00
EXPONENTS  0.5049000D+03 0.1194000D+03 0.3796000D+02 0.1395000D+02 0.5457000D+01
EXPONENTS  0.2177000D+01 0.2877000D+00 0.5049000D+03 0.1194000D+03 0.3796000D+02
EXPONENTS  0.1395000D+02 0.5457000D+01 0.2177000D+01 0.2877000D+00 0.8010000D+00
EXPONENTS  0.8010000D+00 0.8010000D+00 0.9714000D-01 0.9714000D-01 0.9714000D-01
EXPONENTS  0.3070000D-01 0.3070000D-01 0.3070000D-01 0.2160000D+00 0.2160000D+00
EXPONENTS  0.2160000D+00 0.2160000D+00 0.2160000D+00 0.2160000D+00 0.6520000D+00
EXPONENTS  0.6520000D+00 0.6520000D+00 0.6520000D+00 0.6520000D+00 0.6520000D+00
EXPONENTS  0.7750000D-01 0.7750000D-01 0.7750000D-01 0.7750000D-01 0.7750000D-01
EXPONENTS  0.7750000D-01 0.4520000D+00 0.4520000D+00 0.4520000D+00 0.4520000D+00
EXPONENTS  0.4520000D+00 0.4520000D+00 0.4520000D+00 0.4520000D+00 0.4520000D+00
EXPONENTS  0.4520000D+00 0.1650000D+00 0.1650000D+00 0.1650000D+00 0.1650000D+00
EXPONENTS  0.1650000D+00 0.1650000D+00 0.1650000D+00 0.1650000D+00 0.1650000D+00
EXPONENTS  0.1650000D+00 0.1533000D+05 0.2299000D+04 0.5224000D+03 0.1473000D+03
EXPONENTS  0.4755000D+02 0.1676000D+02 0.6207000D+01 0.6882000D+00 0.1533000D+05
EXPONENTS  0.2299000D+04 0.5224000D+03 0.1473000D+03 0.4755000D+02 0.1676000D+02
EXPONENTS  0.6207000D+01 0.6882000D+00 0.1752000D+01 0.2384000D+00 0.7376000D-01
EXPONENTS  0.3446000D+02 0.7749000D+01 0.2280000D+01 0.3446000D+02 0.7749000D+01
EXPONENTS  0.2280000D+01 0.3446000D+02 0.7749000D+01 0.2280000D+01 0.7156000D+00
EXPONENTS  0.7156000D+00 0.7156000D+00 0.2140000D+00 0.2140000D+00 0.2140000D+00
EXPONENTS  0.5974000D-01 0.5974000D-01 0.5974000D-01 0.2314000D+01 0.2314000D+01
EXPONENTS  0.2314000D+01 0.2314000D+01 0.2314000D+01 0.2314000D+01 0.6450000D+00
EXPONENTS  0.6450000D+00 0.6450000D+00 0.6450000D+00 0.6450000D+00 0.6450000D+00
EXPONENTS  0.2140000D+00 0.2140000D+00 0.2140000D+00 0.2140000D+00 0.2140000D+00
EXPONENTS  0.2140000D+00 0.1428000D+01 0.1428000D+01 0.1428000D+01 0.1428000D+01
EXPONENTS  0.1428000D+01 0.1428000D+01 0.1428000D+01 0.1428000D+01 0.1428000D+01
EXPONENTS  0.1428000D+01 0.5000000D+00 0.5000000D+00 0.5000000D+00 0.5000000D+00
EXPONENTS  0.5000000D+00 0.5000000D+00 0.5000000D+00 0.5000000D+00 0.5000000D+00
EXPONENTS  0.5000000D+00 0.1533000D+05 0.2299000D+04 0.5224000D+03 0.1473000D+03
EXPONENTS  0.4755000D+02 0.1676000D+02 0.6207000D+01 0.6882000D+00 0.1533000D+05
EXPONENTS  0.2299000D+04 0.5224000D+03 0.1473000D+03 0.4755000D+02 0.1676000D+02
EXPONENTS  0.6207000D+01 0.6882000D+00 0.1752000D+01 0.2384000D+00 0.7376000D-01
EXPONENTS  0.3446000D+02 0.7749000D+01 0.2280000D+01 0.3446000D+02 0.7749000D+01
EXPONENTS  0.2280000D+01 0.3446000D+02 0.7749000D+01 0.2280000D+01 0.7156000D+00
EXPONENTS  0.7156000D+00 0.7156000D+00 0.2140000D+00 0.2140000D+00 0.2140000D+00
EXPONENTS  0.5974000D-01 0.5974000D-01 0.5974000D-01 0.2314000D+01 0.2314000D+01
EXPONENTS  0.2314000D+01 0.2314000D+01 0.2314000D+01 0.2314000D+01 0.6450000D+00
EXPONENTS  0.6450000D+00 0.6450000D+00 0.6450000D+00 0.6450000D+00 0.6450000D+00
EXPONENTS  0.2140000D+00 0.2140000D+00 0.2140000D+00 0.2140000D+00 0.2140000D+00
EXPONENTS  0.2140000D+00 0.1428000D+01 0.1428000D+01 0.1428000D+01 0.1428000D+01
EXPONENTS  0.1428000D+01 0.1428000D+01 0.1428000D+01 0.1428000D+01 0.1428000D+01
EXPONENTS  0.1428000D+01 0.5000000D+00 0.5000000D+00 0.5000000D+00 0.5000000D+00
EXPONENTS  0.5000000D+00 0.5000000D+00 0.5000000D+00 0.5000000D+00 0.5000000D+00
EXPONENTS  0.5000000D+00 0.1533000D+05 0.2299000D+04 0.5224000D+03 0.1473000D+03
EXPONENTS  0.4755000D+02 0.1676000D+02 0.6207000D+01 0.6882000D+00 0.1533000D+05
EXPONENTS  0.2299000D+04 0.5224000D+03 0.1473000D+03 0.4755000D+02 0.1676000D+02
EXPONENTS  0.6207000D+01 0.6882000D+00 0.1752000D+01 0.2384000D+00 0.7376000D-01
EXPONENTS  0.3446000D+02 0.7749000D+01 0.2280000D+01 0.3446000D+02 0.7749000D+01
EXPONENTS  0.2280000D+01 0.3446000D+02 0.7749000D+01 0.2280000D+01 0.7156000D+00
EXPONENTS  0.7156000D+00 0.7156000D+00 0.2140000D+00 0.2140000D+00 0.2140000D+00
EXPONENTS  0.5974000D-01 0.5974000D-01 0.5974000D-01 0.2314000D+01 0.2314000D+01
EXPONENTS  0.2314000D+01 0.2314000D+01 0.2314000D+01 0.2314000D+01 0.6450000D+00
EXPONENTS  0.6450000D+00 0.6450000D+00 0.6450000D+00 0.6450000D+00 0.6450000D+00
EXPONENTS  0.2140000D+00 0.2140000D+00 0.2140000D+00 0.2140000D+00 0.2140000D+00
EXPONENTS  0.2140000D+00 0.1428000D+01 0.1428000D+01 0.1428000D+01 0.1428000D+01
EXPONENTS  0.1428000D+01 0.1428000D+01 0.1428000D+01 0.1428000D+01 0.1428000D+01
EXPONENTS  0.1428000D+01 0.5000000D+00 0.5000000D+00 0.5000000D+00 0.5000000D+00
EXPONENTS  0.5000000D+00 0.5000000D+00 0.5000000D+00 0.5000000D+00 0.5000000D+00
EXPONENTS  0.5000000D+00 0.3387000D+02 0.5095000D+01 0.1159000D+01 0.3258000D+00
EXPONENTS  0.1027000D+00 0.2526000D-01 0.1407000D+01 0.1407000D+01 0.1407000D+01
EXPONENTS  0.3880000D+00 0.3880000D+00 0.3880000D+00 0.1020000D+00 0.1020000D+00
EXPONENTS  0.1020000D+00 0.1057000D+01 0.1057000D+01 0.1057000D+01 0.1057000D+01
EXPONENTS  0.1057000D+01 0.1057000D+01 0.2470000D+00 0.2470000D+00 0.2470000D+00
EXPONENTS  0.2470000D+00 0.2470000D+00 0.2470000D+00 0.3387000D+02 0.5095000D+01
EXPONENTS  0.1159000D+01 0.3258000D+00 0.1027000D+00 0.2526000D-01 0.1407000D+01
EXPONENTS  0.1407000D+01 0.1407000D+01 0.3880000D+00 0.3880000D+00 0.3880000D+00
EXPONENTS  0.1020000D+00 0.1020000D+00 0.1020000D+00 0.1057000D+01 0.1057000D+01
EXPONENTS  0.1057000D+01 0.1057000D+01 0.1057000D+01 0.1057000D+01 0.2470000D+00
EXPONENTS  0.2470000D+00 0.2470000D+00 0.2470000D+00 0.2470000D+00 0.2470000D+00
EXPONENTS  0.3387000D+02 0.5095000D+01 0.1159000D+01 0.3258000D+00 0.1027000D+00
EXPONENTS  0.2526000D-01 0.1407000D+01 0.1407000D+01 0.1407000D+01 0.3880000D+00
EXPONENTS  0.3880000D+00 0.3880000D+00 0.1020000D+00 0.1020000D+00 0.1020000D+00
EXPONENTS  0.1057000D+01 0.1057000D+01 0.1057000D+01 0.1057000D+01 0.1057000D+01
EXPONENTS  0.1057000D+01 0.2470000D+00 0.2470000D+00 0.2470000D+00 0.2470000D+00
EXPONENTS  0.2470000D+00 0.2470000D+00 0.1533000D+05 0.2299000D+04 0.5224000D+03
EXPONENTS  0.1473000D+03 0.4755000D+02 0.1676000D+02 0.6207000D+01 0.6882000D+00
EXPONENTS  0.1533000D+05 0.2299000D+04 0.5224000D+03 0.1473000D+03 0.4755000D+02
EXPONENTS  0.1676000D+02 0.6207000D+01 0.6882000D+00 0.1752000D+01 0.2384000D+00
EXPONENTS  0.7376000D-01 0.3446000D+02 0.7749000D+01 0.2280000D+01 0.3446000D+02
EXPONENTS  0.7749000D+01 0.2280000D+01 0.3446000D+02 0.7749000D+01 0.2280000D+01
EXPONENTS  0.7156000D+00 0.7156000D+00 0.7156000D+00 0.2140000D+00 0.2140000D+00
EXPONENTS  0.2140000D+00 0.5974000D-01 0.5974000D-01 0.5974000D-01 0.2314000D+01
EXPONENTS  0.2314000D+01 0.2314000D+01 0.2314000D+01 0.2314000D+01 0.2314000D+01
EXPONENTS  0.6450000D+00 0.6450000D+00 0.6450000D+00 0.6450000D+00 0.6450000D+00
EXPONENTS  0.6450000D+00 0.2140000D+00 0.2140000D+00 0.2140000D+00 0.2140000D+00
EXPONENTS  0.2140000D+00 0.2140000D+00 0.1428000D+01 0.1428000D+01 0.1428000D+01
EXPONENTS  0.1428000D+01 0.1428000D+01 0.1428000D+01 0.1428000D+01 0.1428000D+01
EXPONENTS  0.1428000D+01 0.1428000D+01 0.5000000D+00 0.5000000D+00 0.5000000D+00
EXPONENTS  0.5000000D+00 0.5000000D+00 0.5000000D+00 0.5000000D+00 0.5000000D+00
EXPONENTS  0.5000000D+00 0.5000000D+00
MO    1     MO 0.0        OCC NO =    2.0000000  ORB. ENERGY =  -77.392009
  0.54452057D+00  0.10187898D+01  0.17591491D+01  0.28449934D+01  0.42939394D+01
  0.58828298D+01  0.67983749D+01  0.57131849D+01  0.25094811D+01  0.28682955D+00
 -0.38657865D-02  0.24044112D-02  0.11827294D-03 -0.21264136D-02 -0.39772339D-02
 -0.68863655D-02 -0.11181848D-01 -0.17172705D-01 -0.24423529D-01 -0.31075018D-01
 -0.32204659D-01 -0.21490941D-01  0.21165837D-02  0.16167251D-01  0.83012216D-02
 -0.36412985D-04  0.10977919D-02  0.20514669D-02  0.35573163D-02  0.57685690D-02
  0.88916325D-02  0.12652307D-01  0.16292344D-01  0.17127359D-01  0.12006803D-01
 -0.13940973D-02 -0.11286104D-01 -0.10621757D-01  0.51797979D-02 -0.27811536D-02
 -0.13351629D-02  0.79287186D-04  0.14172900D-03  0.18540858D-03  0.20284348D-03
  0.16708679D-03  0.89337492D-04  0.24684816D-04 -0.20233035D-07  0.56984108D-03
  0.74546089D-03  0.81556034D-03  0.67179558D-03  0.35919377D-03  0.99248724D-04
 -0.81349721D-07  0.11479450D-03  0.15017312D-03  0.16429465D-03  0.13533324D-03
  0.72359594D-04  0.19993658D-04 -0.16387903D-07 -0.22896845D-04 -0.30324724D-04
 -0.33500674D-04 -0.28693430D-04 -0.15653352D-04 -0.48114299D-05  0.20947281D-05
 -0.73462922D-04 -0.97294751D-04 -0.10748456D-03 -0.92060856D-04 -0.50222681D-04
 -0.15437135D-04  0.67207882D-05 -0.10010499D-04 -0.13257967D-04 -0.14646492D-04
 -0.12544765D-04 -0.68436439D-05 -0.21035567D-05  0.91581493D-06 -0.30818009D-04
 -0.12756712D-03 -0.27026206D-04  0.89923640D-05  0.42709795D-04  0.82766548D-05
 -0.59501110D-07 -0.16762045D-06  0.79684949D-08 -0.47642772D-04  0.97519136D-04
 -0.49876364D-04  0.73421811D-04  0.14673813D-04  0.65472197D-04 -0.66611119D-04
  0.13599262D-03 -0.69381506D-04  0.10121780D-03  0.21382251D-04  0.90684619D-04
 -0.19481844D-05  0.38492477D-05 -0.19010633D-05  0.30170217D-05  0.75109230D-06
  0.26224688D-05  0.12867984D-03 -0.12128412D-03  0.43315416D-04 -0.19521886D-03
  0.11540302D-03  0.72515123D-04 -0.19082067D-03  0.24844934D-03 -0.20246137D-03
 -0.26179679D-04 -0.44826255D-04  0.38500406D-04 -0.36681889D-04  0.68505423D-04
 -0.49164823D-04  0.43074455D-04  0.65973342D-04 -0.66336396D-04  0.66971211D-04
 -0.25848424D-04  0.48129022D-04  0.89706305D-04  0.15211217D-03  0.23022885D-03
  0.28725839D-03  0.24671665D-03  0.94719318D-04 -0.42368532D-06 -0.35530260D-04
 -0.66637884D-04 -0.11360298D-03 -0.17753935D-03 -0.23740394D-03 -0.25349206D-03
 -0.15498007D-03  0.10224644D-03  0.54491320D-04  0.48451824D-03 -0.14910716D-03
 -0.24447133D-03 -0.23705495D-03 -0.15991587D-03 -0.27650246D-04 -0.26811438D-04
 -0.18086837D-04 -0.24433625D-04 -0.23692397D-04 -0.15982751D-04  0.15882163D-03
 -0.32136815D-04 -0.21520034D-04  0.31493910D-03 -0.45381090D-04 -0.20266300D-03
  0.21032480D-04  0.66529734D-05  0.58384164D-06  0.33982173D-03 -0.14733174D-03
 -0.19248999D-03  0.37845173D-03  0.13942360D-03  0.92901218D-04 -0.22342477D-03
  0.92449390D-04  0.13097538D-03 -0.28070592D-03 -0.15899170D-03  0.25171734D-04
 -0.16606573D-03  0.44334873D-04  0.12173086D-03 -0.57611784D-04  0.48243508D-05
  0.41932147D-04 -0.18012575D-03  0.71954294D-04  0.33182935D-04  0.11049232D-03
 -0.15599790D-03 -0.14993261D-03  0.42988494D-03 -0.59864984D-04  0.50383806D-04
  0.40373056D-04  0.11024432D-03 -0.39297279D-04 -0.14579654D-04 -0.10728695D-03
  0.15711771D-03  0.81770662D-04 -0.22344600D-03 -0.39225873D-04 -0.38031699D-04
  0.53704966D-04  0.47765827D-04  0.89029355D-04  0.15096429D-03  0.22849148D-03
  0.28509065D-03  0.24485485D-03  0.94004539D-04 -0.42048807D-06 -0.35272570D-04
 -0.66154579D-04 -0.11277905D-03 -0.17625171D-03 -0.23568212D-03 -0.25165355D-03
 -0.15385605D-03  0.10150488D-03  0.53709185D-04  0.49632636D-03 -0.14685124D-03
  0.79803220D-04  0.77382279D-04  0.52201628D-04 -0.14700381D-03 -0.14254424D-03
 -0.96159505D-04  0.18194754D-03  0.17642791D-03  0.11901723D-03 -0.95100364D-04
  0.48270817D-04 -0.12660273D-03 -0.33167332D-03  0.97104824D-04 -0.17591676D-03
 -0.74523129D-05  0.16144913D-04 -0.13026569D-04 -0.16094783D-03  0.15104329D-03
  0.99045445D-05 -0.19396935D-03  0.19040644D-03 -0.59156661D-03  0.15038473D-03
 -0.11372342D-03 -0.36661316D-04  0.17758897D-03 -0.52331167D-04  0.38870026D-03
  0.77228880D-04 -0.29162140D-04 -0.48066740D-04  0.15565047D-03 -0.16253401D-03
  0.16067459D-03 -0.14673837D-03  0.34854202D-04 -0.84227447D-05  0.16223421D-03
  0.89960179D-04 -0.20887133D-03  0.27798090D-03 -0.19452279D-03  0.23413956D-03
 -0.32838407D-03  0.66353105D-04 -0.17152349D-04  0.32885094D-04 -0.94887799D-04
 -0.10544924D-03  0.77626160D-04 -0.10417152D-03  0.15690629D-03 -0.17628144D-03
  0.23932523D-03  0.48013113D-04  0.89490266D-04  0.15174584D-03  0.22967440D-03
  0.28656659D-03  0.24612248D-03  0.94491206D-04 -0.42266496D-06 -0.35440696D-04
 -0.66469904D-04 -0.11331662D-03 -0.17709181D-03 -0.23680550D-03 -0.25285306D-03
 -0.15458940D-03  0.10198870D-03  0.53879529D-04  0.49129589D-03 -0.14878696D-03
  0.10781296D-03  0.10454231D-03  0.70523622D-04 -0.71172088D-04 -0.69012984D-04
 -0.46555751D-04 -0.21159365D-03 -0.20517466D-03 -0.13840962D-03 -0.66477141D-04
 -0.16132040D-04  0.15065335D-03 -0.27569454D-05 -0.98446757D-04  0.37181697D-03
 -0.61107543D-05  0.90747825D-05  0.19165965D-04 -0.15487657D-03 -0.50482924D-04
  0.20535949D-03 -0.22024627D-03 -0.33979715D-03  0.46685291D-03  0.55223620D-04
  0.58309226D-04 -0.11353285D-03  0.13284999D-03  0.22136902D-03 -0.39070581D-03
  0.48468964D-04  0.69299489D-04 -0.11776845D-03 -0.33250499D-04  0.17315049D-03
 -0.14623008D-03 -0.12174086D-03  0.80480267D-04 -0.19003410D-04 -0.23324476D-05
  0.12311603D-03 -0.46250442D-04  0.36755502D-03 -0.36455683D-03  0.10326067D-03
  0.13440475D-03  0.66043393D-04 -0.60387422D-04  0.21280050D-04  0.19267458D-04
 -0.30962778D-04 -0.46348961D-04 -0.21739764D-03  0.21212505D-03 -0.17491189D-04
 -0.18679301D-03  0.99340934D-05  0.17916547D-04  0.26417937D-04 -0.33926445D-03
  0.23187914D-03 -0.42246460D-05  0.15297268D-03  0.53159014D-04 -0.10159274D-03
  0.62952608D-04 -0.11965331D-03  0.25820653D-05 -0.50969003D-04  0.12566209D-05
  0.15327955D-04 -0.32538762D-04  0.66343452D-06  0.31875327D-04  0.68561664D-04
  0.20326331D-05 -0.13438940D-03  0.27376820D-04 -0.73249839D-05 -0.20051836D-04
  0.56143369D-04  0.29967100D-04  0.20087499D-04  0.10448312D-04  0.18843962D-04
  0.27785411D-04 -0.35966978D-03  0.22689845D-03 -0.42740844D-05 -0.15061198D-03
  0.11227159D-03 -0.46655902D-04 -0.49034457D-04 -0.72326184D-04 -0.10905825D-03
  0.35026664D-04 -0.22862508D-04  0.32084569D-04 -0.65694476D-05  0.13407681D-04
 -0.68382337D-05 -0.10578129D-03 -0.12006878D-03  0.39488932D-04 -0.23209346D-04
  0.27639871D-04 -0.44305252D-05 -0.52389024D-05  0.69685106D-05 -0.63051854D-04
  0.10208574D-04  0.18411583D-04  0.27147869D-04 -0.35170736D-03  0.23041516D-03
 -0.43123434D-05  0.38431269D-04  0.17363877D-04  0.18751359D-03 -0.87860057D-04
 -0.95350138D-04  0.48461607D-04  0.10522179D-04  0.95710502D-06 -0.52091304D-04
  0.50461286D-04 -0.39760118D-04 -0.10701168D-04  0.17112622D-04  0.11087941D-03
  0.80474820D-04 -0.17889011D-04  0.78752732D-05  0.10013738D-04 -0.29184374D-04
 -0.32541820D-04  0.62602059D-04  0.93041013D-05  0.17341648D-04  0.29405689D-04
  0.44506879D-04  0.55531591D-04  0.47694230D-04  0.18310742D-04 -0.81905074D-07
 -0.10992821D-04 -0.20617308D-04 -0.35147990D-04 -0.54929467D-04 -0.73451164D-04
 -0.78428719D-04 -0.47949781D-04  0.31634353D-04  0.12984137D-03  0.12924280D-03
 -0.10522843D-03  0.74645902D-04  0.72381416D-04  0.48828075D-04  0.31280892D-03
  0.30331943D-03  0.20461750D-03  0.65760029D-04  0.63765107D-04  0.43015565D-04
 -0.65618835D-04 -0.27455442D-03 -0.57739983D-04 -0.12839249D-03 -0.55071477D-03
 -0.11869703D-03 -0.35819390D-05 -0.15468061D-04 -0.32874446D-05 -0.21833223D-03
  0.44374476D-03 -0.22541253D-03  0.33133832D-03  0.71006288D-04  0.29755441D-03
  0.16992434D-03 -0.34566455D-03  0.17574021D-03 -0.25857601D-03 -0.55149540D-04
 -0.23191421D-03  0.71311451D-04 -0.14496052D-03  0.73649073D-04 -0.10834013D-03
 -0.23361615D-04 -0.97924177D-04 -0.12399193D-03  0.11224070D-03 -0.82535947D-04
  0.19439085D-03 -0.13163353D-03  0.57192809D-04  0.17758493D-03 -0.20508856D-03
  0.19041503D-03 -0.34463623D-04  0.61876374D-04 -0.97526232D-04  0.50654041D-04
 -0.16327426D-03  0.13471330D-03 -0.19261642D-05 -0.22354861D-04  0.15786539D-03
 -0.15003596D-03 -0.47748359D-04
MO    2     MO 0.0        OCC NO =    2.0000000  ORB. ENERGY =  -19.263331
  0.74465198D-04  0.13932326D-03  0.24057013D-03  0.38906335D-03  0.58721207D-03
  0.80449870D-03  0.92970286D-03  0.78129912D-03  0.34318081D-03  0.39225000D-04
 -0.52866057D-06  0.32881210D-06  0.16174261D-07 -0.13489439D-03 -0.25230583D-03
 -0.43685392D-03 -0.70934864D-03 -0.10893938D-02 -0.15493680D-02 -0.19713219D-02
 -0.20429835D-02 -0.13633319D-02  0.13427081D-03  0.10256102D-02  0.52660887D-03
 -0.23099493D-05  0.75593409D-04  0.14126299D-03  0.24495504D-03  0.39722080D-03
  0.61227340D-03  0.87123160D-03  0.11218828D-02  0.11793814D-02  0.82678253D-03
 -0.95996850D-04 -0.77715551D-03 -0.73140893D-03  0.35667832D-03 -0.41963692D-03
  0.78841496D-03  0.14828194D-03 -0.62191282D-02 -0.81358066D-02 -0.89008575D-02
 -0.73318387D-02 -0.39201668D-02 -0.10831801D-02  0.88783410D-06  0.10832224D-01
  0.14170617D-01  0.15503151D-01  0.12770298D-01  0.68279870D-02  0.18866391D-02
 -0.15463933D-05 -0.12439296D-01 -0.16272974D-01 -0.17803203D-01 -0.14664903D-01
 -0.78409892D-02 -0.21665414D-02  0.17758167D-05  0.56169193D-02  0.74390829D-02
  0.82181882D-02  0.70389033D-02  0.38399881D-02  0.11803117D-02 -0.51386637D-03
 -0.99289498D-02 -0.13149963D-01 -0.14527176D-01 -0.12442571D-01 -0.67878933D-02
 -0.20864204D-02  0.90835440D-03  0.11414942D-01  0.15118020D-01  0.16701351D-01
  0.14304758D-01  0.78037869D-02  0.23986795D-02 -0.10443011D-02  0.30912860D-03
 -0.32799531D-03  0.38381101D-03 -0.27460778D-03  0.10725548D-03 -0.13498454D-03
 -0.35828929D-05  0.27430178D-05 -0.26514067D-05 -0.21154769D-03  0.10750773D-03
  0.10403996D-03 -0.41023331D-03  0.35430160D-03 -0.72495318D-03 -0.22984972D-03
  0.17648189D-03  0.53367831D-04 -0.26899571D-03  0.21165880D-03 -0.76293084D-03
 -0.13628542D-04  0.40948067D-05  0.95337352D-05 -0.22150187D-04  0.19331764D-04
 -0.12178041D-04  0.51345266D-04 -0.25949840D-04  0.47872275D-04 -0.17573431D-03
 -0.23562802D-03  0.85462992D-04  0.21698515D-04  0.31347754D-03 -0.22907982D-03
  0.54219541D-03  0.12761583D-05 -0.15719785D-04 -0.90219670D-06 -0.97127984D-05
 -0.14094465D-04 -0.10634705D-04  0.58843236D-05  0.61253819D-04  0.13341296D-04
  0.13775008D-03 -0.84265516D-01 -0.15706008D+00 -0.26632186D+00 -0.40309053D+00
 -0.50293930D+00 -0.43195778D+00 -0.16583699D+00  0.74179904D-03 -0.38984173D-04
 -0.73115782D-04 -0.12464638D-03 -0.19479803D-03 -0.26048208D-03 -0.27813413D-03
 -0.17004576D-03  0.11218586D-03 -0.92068735D-02  0.17085700D-03  0.20407836D-03
  0.65709076D-03  0.63715701D-03  0.42982235D-03  0.74500356D-03  0.72240285D-03
  0.48732869D-03  0.75309288D-03  0.73024677D-03  0.49262016D-03 -0.39665888D-03
  0.77539630D-04  0.59295038D-04 -0.23285175D-03  0.12418282D-03 -0.13204300D-03
 -0.28704744D-04  0.49374210D-05 -0.13708850D-04 -0.29900355D-03  0.18995379D-03
  0.10904976D-03  0.41858398D-03  0.32263997D-03 -0.60661921D-03  0.16725671D-03
 -0.11009759D-03 -0.57159125D-04 -0.22614869D-04  0.12299170D-03  0.18687974D-04
  0.24053598D-04 -0.19550388D-04 -0.45032100D-05 -0.21082184D-04  0.36867371D-04
 -0.35183429D-04  0.72303497D-04 -0.12066338D-03  0.19649841D-04 -0.77987370D-05
  0.11720142D-03 -0.13711415D-03 -0.20911175D-03  0.24478873D-03  0.78164626D-04
 -0.21870006D-03 -0.44519434D-04  0.26586323D-04 -0.24638694D-05  0.25589278D-04
 -0.24284230D-05 -0.15145548D-04  0.10796902D-03 -0.77330545D-04  0.22537156D-04
  0.27973345D-04  0.48814478D+00  0.90983907D+00  0.15427856D+01  0.23350779D+01
  0.29134954D+01  0.25023040D+01  0.96068316D+00 -0.42971947D-02  0.98764341D-04
  0.18523497D-03  0.31578502D-03  0.49351051D-03  0.65991759D-03  0.70463813D-03
  0.43080194D-03 -0.28421695D-03  0.53139460D-01 -0.10785448D-02 -0.57958370D-03
 -0.32415155D-02 -0.31431796D-02 -0.21203704D-02 -0.59403703D-02 -0.57601610D-02
 -0.38857706D-02  0.18178977D-02  0.17627493D-02  0.11891403D-02 -0.91114069D-03
  0.58600534D-03 -0.10321264D-02 -0.73541192D-04  0.87770076D-03 -0.66891178D-03
 -0.25813307D-04  0.43127833D-04 -0.54424561D-04  0.10815639D-02 -0.77415583D-03
 -0.30740806D-03  0.79631120D-03  0.41754539D-02 -0.15721775D-02  0.21020451D-03
 -0.57280361D-04 -0.15292415D-03  0.52589531D-03 -0.68121524D-03  0.10791473D-02
  0.32578141D-04 -0.31478010D-04 -0.11001306D-05  0.57887672D-04 -0.12146109D-03
  0.22990484D-03 -0.35362816D-03  0.35836878D-03  0.36243535D-03  0.76526902D-03
 -0.10301413D-02 -0.15427416D-02  0.29561547D-03 -0.44965011D-04  0.45543558D-03
 -0.14576336D-02  0.15106777D-03 -0.10766580D-03 -0.54480463D-04 -0.34650381D-03
  0.10392800D-03  0.50638896D-03 -0.10669950D-03  0.21906941D-03 -0.34294757D-03
  0.59795286D-03 -0.40627068D-01 -0.75723627D-01 -0.12840218D+00 -0.19434268D+00
 -0.24248293D+00 -0.20826049D+00 -0.79955254D-01  0.35764476D-03 -0.11317285D-04
 -0.21225848D-04 -0.36185418D-04 -0.56550765D-04 -0.75619149D-04 -0.80743621D-04
 -0.49365067D-04  0.32568073D-04 -0.44177621D-02 -0.10915204D-03 -0.39546755D-04
 -0.17502865D-03 -0.16971891D-03 -0.11449138D-03  0.48719847D-03  0.47241863D-03
  0.31869082D-03  0.18258775D-03  0.17704870D-03  0.11943600D-03  0.54040296D-04
  0.12293423D-03 -0.24466913D-03 -0.89310625D-04  0.66694319D-04 -0.25338996D-03
 -0.10688513D-04  0.78546767D-05 -0.24080409D-04  0.17542872D-03 -0.45810569D-04
 -0.12961815D-03 -0.40675599D-04  0.45498513D-04  0.47744016D-04 -0.75401708D-05
 -0.43549489D-04  0.51089660D-04  0.10602715D-04  0.39372825D-04  0.20925046D-03
 -0.31410731D-04 -0.43123204D-04  0.74533936D-04  0.99965828D-05 -0.26223006D-04
  0.72132437D-04  0.30230625D-04 -0.97564316D-04 -0.70993517D-04  0.58549950D-04
 -0.17904838D-03  0.33624511D-03 -0.14924183D-03  0.47174133D-03 -0.12326456D-03
 -0.67422027D-05 -0.16866441D-04  0.47990999D-04  0.24758694D-04 -0.91942026D-05
  0.44378434D-04 -0.48927400D-04  0.59793526D-04 -0.18835143D-03 -0.25348682D-04
 -0.23053595D-04 -0.39125447D-04 -0.70564356D-04 -0.10404710D-03  0.20657928D-03
  0.87190389D-04  0.60514455D-05 -0.32959412D-04  0.30460493D-04  0.97811737D-04
 -0.12154328D-03  0.56308000D-04  0.14684410D-03 -0.18194623D-04  0.13556947D-04
  0.19919170D-04  0.61869289D-05 -0.30435914D-04  0.24248985D-04 -0.29019324D-03
 -0.38879806D-03  0.39373877D-03  0.51376277D-05 -0.13854355D-04  0.87167268D-05
 -0.18230963D-04 -0.11525329D-04  0.29495002D-05  0.20682484D-03  0.37301712D-03
  0.55001353D-03 -0.14925896D-03 -0.36640096D-03 -0.31526749D-04 -0.40096738D-03
 -0.17743017D-04 -0.23185764D-03 -0.53975878D-03 -0.65634906D-04 -0.29150245D-03
 -0.88726426D-04  0.44664484D-05 -0.60547295D-04 -0.12157055D-02  0.78609685D-03
  0.42960862D-03 -0.12067399D-02 -0.21987487D-02 -0.60366920D-03 -0.24106992D-04
  0.27247847D-04 -0.31408543D-05 -0.11893606D-04 -0.54257430D-04  0.16862040D-04
 -0.24743458D-04 -0.44625845D-04 -0.65800783D-04  0.34755846D-03  0.23581053D-04
  0.48848682D-05 -0.34398526D-04  0.34676491D-04 -0.15994226D-03  0.27651992D-04
  0.90921111D-04 -0.20475625D-03  0.28642498D-05  0.13052518D-04  0.16799730D-04
 -0.12818083D-03  0.20260941D-04  0.10791988D-03 -0.31660724D-04 -0.45715452D-04
 -0.39305945D-03  0.14036945D-04 -0.84411376D-05 -0.55958075D-05  0.11100968D-04
  0.92127827D-05 -0.49664581D-04 -0.18211842D-04 -0.33944531D-04 -0.57558677D-04
 -0.87117739D-04 -0.10869750D-03 -0.93356658D-04 -0.35841436D-04  0.16032094D-06
  0.21633251D-05  0.40573698D-05  0.69169260D-05  0.10809809D-04  0.14454774D-04
  0.15434329D-04  0.94362461D-05 -0.62254621D-05 -0.15059477D-04  0.26793338D-04
 -0.37407677D-04 -0.32523476D-04 -0.31536831D-04 -0.21274560D-04 -0.32352030D-04
 -0.31370587D-04 -0.21162413D-04 -0.18322955D-04 -0.17767103D-04 -0.11985583D-04
  0.25170196D-04 -0.23188051D-04  0.41711350D-04 -0.91370323D-04  0.19258485D-03
 -0.34412039D-03 -0.89000009D-05  0.56553377D-05 -0.68140057D-05  0.10986372D-04
 -0.90745094D-04  0.79758722D-04 -0.59845547D-04  0.47266635D-04  0.19018781D-03
  0.83098542D-06  0.29622268D-04 -0.30453254D-04  0.26776089D-04 -0.19262038D-04
 -0.12698422D-03 -0.33160245D-04  0.65592299D-04 -0.32432054D-04 -0.16651543D-04
 -0.10557943D-04 -0.11176197D-03  0.30334888D-04 -0.33439861D-05  0.53610376D-04
 -0.67845351D-04 -0.28302147D-04  0.39680322D-04 -0.23159314D-04  0.38334105D-04
 -0.20051145D-03  0.26377586D-04 -0.18911333D-04  0.13982151D-04  0.26327533D-05
  0.35962638D-04 -0.11665462D-04  0.13860916D-04  0.20771360D-04 -0.30280992D-04
 -0.21759176D-04  0.10810991D-04