 Molden2AIM, Version 4.0.0 (06/02/2016)           Time: Fri Jun 29 17:33:32 2018
GAUSSIAN             11 MOL ORBITALS    252 PRIMITIVES        4 NUCLEI
  C    1    (CENTRE  1)   0.00000000  0.00000000 -2.43893156  CHARGE =  6.0
  C    2    (CENTRE  2)   0.00000000  0.00000000 -0.16487482  CHARGE =  6.0
  H    3    (CENTRE  3)   0.00000000  0.00000000 -4.45953067  CHARGE =  1.0
  F    4    (CENTRE  4)   0.00000000  0.00000000  2.25075641  CHARGE =  9.0
CENTRE ASSIGNMENTS    1  1  1  1  1  1  1  1  1  1  1  1  1  1  1  1  1  1  1  1
CENTRE ASSIGNMENTS    1  1  1  1  1  1  1  1  1  1  1  1  1  1  1  1  1  1  1  1
CENTRE ASSIGNMENTS    1  1  1  1  1  1  1  1  1  1  1  1  1  1  1  1  1  1  1  1
CENTRE ASSIGNMENTS    1  1  1  1  1  1  1  1  1  1  1  1  1  1  1  2  2  2  2  2
CENTRE ASSIGNMENTS    2  2  2  2  2  2  2  2  2  2  2  2  2  2  2  2  2  2  2  2
CENTRE ASSIGNMENTS    2  2  2  2  2  2  2  2  2  2  2  2  2  2  2  2  2  2  2  2
CENTRE ASSIGNMENTS    2  2  2  2  2  2  2  2  2  2  2  2  2  2  2  2  2  2  2  2
CENTRE ASSIGNMENTS    2  2  2  2  2  2  2  2  2  2  3  3  3  3  3  3  3  3  3  3
CENTRE ASSIGNMENTS    3  3  3  3  3  3  3  3  3  3  3  3  3  3  3  3  3  4  4  4
CENTRE ASSIGNMENTS    4  4  4  4  4  4  4  4  4  4  4  4  4  4  4  4  4  4  4  4
CENTRE ASSIGNMENTS    4  4  4  4  4  4  4  4  4  4  4  4  4  4  4  4  4  4  4  4
CENTRE ASSIGNMENTS    4  4  4  4  4  4  4  4  4  4  4  4  4  4  4  4  4  4  4  4
CENTRE ASSIGNMENTS    4  4  4  4  4  4  4  4  4  4  4  4
TYPE ASSIGNMENTS      1  1  1  1  1  1  1  1  1  1  1  1  1  1  1  1  1  1  1  2
TYPE ASSIGNMENTS      2  2  3  3  3  4  4  4  2  3  4  2  3  4  2  3  4  5  6  7
TYPE ASSIGNMENTS      8  9 10  5  6  7  8  9 10  5  6  7  8  9 10 11 12 13 17 14
TYPE ASSIGNMENTS     15 18 19 16 20 11 12 13 17 14 15 18 19 16 20  1  1  1  1  1
TYPE ASSIGNMENTS      1  1  1  1  1  1  1  1  1  1  1  1  1  1  2  2  2  3  3  3
TYPE ASSIGNMENTS      4  4  4  2  3  4  2  3  4  2  3  4  5  6  7  8  9 10  5  6
TYPE ASSIGNMENTS      7  8  9 10  5  6  7  8  9 10 11 12 13 17 14 15 18 19 16 20
TYPE ASSIGNMENTS     11 12 13 17 14 15 18 19 16 20  1  1  1  1  1  1  2  3  4  2
TYPE ASSIGNMENTS      3  4  2  3  4  5  6  7  8  9 10  5  6  7  8  9 10  1  1  1
TYPE ASSIGNMENTS      1  1  1  1  1  1  1  1  1  1  1  1  1  1  1  1  2  2  2  3
TYPE ASSIGNMENTS      3  3  4  4  4  2  3  4  2  3  4  2  3  4  5  6  7  8  9 10
TYPE ASSIGNMENTS      5  6  7  8  9 10  5  6  7  8  9 10 11 12 13 17 14 15 18 19
TYPE ASSIGNMENTS     16 20 11 12 13 17 14 15 18 19 16 20
EXPONENTS  0.8236000D+04 0.1235000D+04 0.2808000D+03 0.7927000D+02 0.2559000D+02
EXPONENTS  0.8997000D+01 0.3319000D+01 0.3643000D+00 0.8236000D+04 0.1235000D+04
EXPONENTS  0.2808000D+03 0.7927000D+02 0.2559000D+02 0.8997000D+01 0.3319000D+01
EXPONENTS  0.3643000D+00 0.9059000D+00 0.1285000D+00 0.4402000D-01 0.1871000D+02
EXPONENTS  0.4133000D+01 0.1200000D+01 0.1871000D+02 0.4133000D+01 0.1200000D+01
EXPONENTS  0.1871000D+02 0.4133000D+01 0.1200000D+01 0.3827000D+00 0.3827000D+00
EXPONENTS  0.3827000D+00 0.1209000D+00 0.1209000D+00 0.1209000D+00 0.3569000D-01
EXPONENTS  0.3569000D-01 0.3569000D-01 0.1097000D+01 0.1097000D+01 0.1097000D+01
EXPONENTS  0.1097000D+01 0.1097000D+01 0.1097000D+01 0.3180000D+00 0.3180000D+00
EXPONENTS  0.3180000D+00 0.3180000D+00 0.3180000D+00 0.3180000D+00 0.1000000D+00
EXPONENTS  0.1000000D+00 0.1000000D+00 0.1000000D+00 0.1000000D+00 0.1000000D+00
EXPONENTS  0.7610000D+00 0.7610000D+00 0.7610000D+00 0.7610000D+00 0.7610000D+00
EXPONENTS  0.7610000D+00 0.7610000D+00 0.7610000D+00 0.7610000D+00 0.7610000D+00
EXPONENTS  0.2680000D+00 0.2680000D+00 0.2680000D+00 0.2680000D+00 0.2680000D+00
EXPONENTS  0.2680000D+00 0.2680000D+00 0.2680000D+00 0.2680000D+00 0.2680000D+00
EXPONENTS  0.8236000D+04 0.1235000D+04 0.2808000D+03 0.7927000D+02 0.2559000D+02
EXPONENTS  0.8997000D+01 0.3319000D+01 0.3643000D+00 0.8236000D+04 0.1235000D+04
EXPONENTS  0.2808000D+03 0.7927000D+02 0.2559000D+02 0.8997000D+01 0.3319000D+01
EXPONENTS  0.3643000D+00 0.9059000D+00 0.1285000D+00 0.4402000D-01 0.1871000D+02
EXPONENTS  0.4133000D+01 0.1200000D+01 0.1871000D+02 0.4133000D+01 0.1200000D+01
EXPONENTS  0.1871000D+02 0.4133000D+01 0.1200000D+01 0.3827000D+00 0.3827000D+00
EXPONENTS  0.3827000D+00 0.1209000D+00 0.1209000D+00 0.1209000D+00 0.3569000D-01
EXPONENTS  0.3569000D-01 0.3569000D-01 0.1097000D+01 0.1097000D+01 0.1097000D+01
EXPONENTS  0.1097000D+01 0.1097000D+01 0.1097000D+01 0.3180000D+00 0.3180000D+00
EXPONENTS  0.3180000D+00 0.3180000D+00 0.3180000D+00 0.3180000D+00 0.1000000D+00
EXPONENTS  0.1000000D+00 0.1000000D+00 0.1000000D+00 0.1000000D+00 0.1000000D+00
EXPONENTS  0.7610000D+00 0.7610000D+00 0.7610000D+00 0.7610000D+00 0.7610000D+00
EXPONENTS  0.7610000D+00 0.7610000D+00 0.7610000D+00 0.7610000D+00 0.7610000D+00
EXPONENTS  0.2680000D+00 0.2680000D+00 0.2680000D+00 0.2680000D+00 0.2680000D+00
EXPONENTS  0.2680000D+00 0.2680000D+00 0.2680000D+00 0.2680000D+00 0.2680000D+00
EXPONENTS  0.3387000D+02 0.5095000D+01 0.1159000D+01 0.3258000D+00 0.1027000D+00
EXPONENTS  0.2526000D-01 0.1407000D+01 0.1407000D+01 0.1407000D+01 0.3880000D+00
EXPONENTS  0.3880000D+00 0.3880000D+00 0.1020000D+00 0.1020000D+00 0.1020000D+00
EXPONENTS  0.1057000D+01 0.1057000D+01 0.1057000D+01 0.1057000D+01 0.1057000D+01
EXPONENTS  0.1057000D+01 0.2470000D+00 0.2470000D+00 0.2470000D+00 0.2470000D+00
EXPONENTS  0.2470000D+00 0.2470000D+00 0.1950000D+05 0.2923000D+04 0.6645000D+03
EXPONENTS  0.1875000D+03 0.6062000D+02 0.2142000D+02 0.7950000D+01 0.8815000D+00
EXPONENTS  0.1950000D+05 0.2923000D+04 0.6645000D+03 0.1875000D+03 0.6062000D+02
EXPONENTS  0.2142000D+02 0.7950000D+01 0.8815000D+00 0.2257000D+01 0.3041000D+00
EXPONENTS  0.9158000D-01 0.4388000D+02 0.9926000D+01 0.2930000D+01 0.4388000D+02
EXPONENTS  0.9926000D+01 0.2930000D+01 0.4388000D+02 0.9926000D+01 0.2930000D+01
EXPONENTS  0.9132000D+00 0.9132000D+00 0.9132000D+00 0.2672000D+00 0.2672000D+00
EXPONENTS  0.2672000D+00 0.7361000D-01 0.7361000D-01 0.7361000D-01 0.3107000D+01
EXPONENTS  0.3107000D+01 0.3107000D+01 0.3107000D+01 0.3107000D+01 0.3107000D+01
EXPONENTS  0.8550000D+00 0.8550000D+00 0.8550000D+00 0.8550000D+00 0.8550000D+00
EXPONENTS  0.8550000D+00 0.2920000D+00 0.2920000D+00 0.2920000D+00 0.2920000D+00
EXPONENTS  0.2920000D+00 0.2920000D+00 0.1917000D+01 0.1917000D+01 0.1917000D+01
EXPONENTS  0.1917000D+01 0.1917000D+01 0.1917000D+01 0.1917000D+01 0.1917000D+01
EXPONENTS  0.1917000D+01 0.1917000D+01 0.7240000D+00 0.7240000D+00 0.7240000D+00
EXPONENTS  0.7240000D+00 0.7240000D+00 0.7240000D+00 0.7240000D+00 0.7240000D+00
EXPONENTS  0.7240000D+00 0.7240000D+00
MO    1     MO 0.0        OCC NO =    2.0000000  ORB. ENERGY =  -24.862609
  0.14440367D-03  0.26920128D-03  0.45499759D-03  0.68401041D-03  0.84038582D-03
  0.70984017D-03  0.26772560D-03 -0.13249889D-05 -0.10610372D-03 -0.19865964D-03
 -0.33823504D-03 -0.52319817D-03 -0.68903359D-03 -0.71595004D-03 -0.45495411D-03
  0.30489966D-03  0.14548707D-03 -0.28507540D-03 -0.51664767D-03  0.81319896D-16
  0.76242572D-16  0.54289253D-16  0.64534112D-15  0.60504832D-15  0.43083045D-15
  0.21802129D-03  0.20440882D-03  0.14555126D-03 -0.61664888D-16 -0.62136214D-17
  0.18418146D-02 -0.62977226D-18  0.24731064D-17 -0.11950013D-03  0.25963441D-19
  0.61556443D-19 -0.64153522D-04 -0.17229075D-03 -0.17229075D-03  0.34458150D-03
 -0.11289814D-20 -0.87094488D-17 -0.15696088D-17 -0.10518738D-03 -0.10518738D-03
  0.21037475D-03  0.13012348D-19  0.50693398D-17  0.16627130D-17 -0.13640192D-04
 -0.13640192D-04  0.27280384D-04  0.16040408D-20  0.54324509D-18  0.12191476D-18
  0.14173285D-18 -0.93327840D-18  0.13639906D-03  0.14110322D-18 -0.93324970D-18
 -0.20459858D-03 -0.56630178D-18  0.37330849D-17 -0.20459858D-03  0.17845390D-19
 -0.15078632D-18 -0.46656105D-18  0.15110026D-04 -0.14971953D-18 -0.46614884D-18
 -0.22665039D-04  0.60207850D-18  0.18658320D-17 -0.22665039D-04  0.91750090D-20
  0.22290833D-03  0.41555182D-03  0.70235578D-03  0.10558708D-02  0.12972593D-02
  0.10957428D-02  0.41327388D-03 -0.20453155D-05 -0.16520075D-03 -0.30930792D-03
 -0.52662320D-03 -0.81460602D-03 -0.10728075D-02 -0.11147157D-02 -0.70835177D-03
  0.47472088D-03 -0.27185986D-03  0.97102047D-03  0.81897974D-03  0.36269329D-17
  0.34004802D-17  0.24213445D-17  0.29315042D-17  0.27484716D-17  0.19570755D-17
 -0.65190965D-03 -0.61120674D-03 -0.43521561D-03 -0.23620405D-17 -0.49468235D-17
  0.37382626D-02  0.12259930D-18 -0.16445532D-17  0.66706514D-05 -0.29730827D-19
 -0.41340168D-19 -0.23183007D-04 -0.55755321D-03 -0.55755321D-03  0.11151064D-02
  0.22487767D-19 -0.37674640D-18  0.10680701D-17 -0.11726233D-03 -0.11726233D-03
  0.23452465D-03  0.18258735D-21  0.56868758D-17  0.52704943D-17 -0.52598741D-05
 -0.52598741D-05  0.10519748D-04 -0.23504100D-20 -0.82133295D-19  0.24617669D-18
 -0.81198413D-18 -0.61463502D-18  0.80103661D-03 -0.81530158D-18 -0.61559242D-18
 -0.12015549D-02  0.32512540D-17  0.24594975D-17 -0.12015549D-02  0.68080143D-19
 -0.42224844D-18  0.13177067D-18  0.16379423D-04 -0.42455602D-18  0.13162276D-18
 -0.24569134D-04  0.16913013D-17 -0.52693477D-18 -0.24569134D-04  0.14223972D-19
  0.62161306D-05  0.11211048D-04  0.16530683D-04  0.38079602D-03 -0.23189931D-05
 -0.60420478D-04 -0.69198660D-17  0.21926245D-17  0.13252136D-04  0.33476622D-17
 -0.56922615D-17  0.57678177D-03  0.12125324D-17 -0.62802644D-18  0.97196961D-04
 -0.86313302D-04 -0.86313302D-04  0.17262660D-03  0.12631052D-19 -0.20096648D-17
 -0.34978856D-17 -0.41494304D-04 -0.41494304D-04  0.82988608D-04  0.51034573D-21
  0.12433819D-17 -0.12926118D-17  0.59370195D+00  0.11066862D+01  0.18761051D+01
  0.28409761D+01  0.35526506D+01  0.30585012D+01  0.11757995D+01 -0.50949318D-02
  0.70373817D-03  0.13214956D-02  0.22502792D-02  0.35250490D-02  0.47239804D-02
  0.50812778D-02  0.30507925D-02 -0.20063295D-02  0.64978851D-01 -0.89712989D-03
 -0.83438732D-03 -0.15304250D-17 -0.14967222D-17 -0.98894765D-18 -0.11638263D-17
 -0.11381967D-17 -0.75205466D-18 -0.10167301D-01 -0.99433982D-02 -0.65700236D-02
 -0.72835902D-18  0.95322837D-19  0.25227410D-02 -0.28517679D-17 -0.84098457D-18
  0.14209801D-02 -0.39723655D-20 -0.19512923D-20  0.78645157D-04 -0.14971074D-02
 -0.14971074D-02  0.29942148D-02  0.36787383D-17 -0.14893677D-16 -0.99738847D-17
  0.77276934D-03  0.77276934D-03 -0.15455387D-02 -0.40247959D-18  0.53305457D-17
  0.31301835D-17  0.16153651D-03  0.16153651D-03 -0.32307302D-03  0.79610305D-20
  0.20108359D-17  0.62159979D-18 -0.50679723D-17 -0.21855337D-17 -0.22888485D-05
 -0.49433487D-17 -0.18465308D-17  0.34332727D-05  0.20147265D-16  0.84031318D-17
  0.34332727D-05 -0.27379034D-17  0.16404103D-17  0.78800225D-18  0.41553899D-03
  0.16216595D-17  0.74587269D-18 -0.62330849D-03 -0.65428904D-17 -0.31098795D-17
 -0.62330849D-03  0.18215384D-18
MO    2     MO 0.0        OCC NO =    2.0000000  ORB. ENERGY =  -10.326312
  0.38841505D-02  0.72409396D-02  0.12238464D-01  0.18398420D-01  0.22604584D-01
  0.19093185D-01  0.72012469D-02 -0.35639373D-04  0.69457921D-03  0.13004714D-02
  0.22141639D-02  0.34249748D-02  0.45105714D-02  0.46867726D-02  0.29782336D-02
 -0.19959429D-02  0.82405416D-03 -0.52824079D-02  0.29043377D-02  0.50732708D-15
  0.47565139D-15  0.33869212D-15  0.11745961D-16  0.11012585D-16  0.78416165D-17
  0.30560762D-02  0.28652657D-02  0.20402398D-02 -0.76169870D-16 -0.14489106D-16
 -0.11460740D-01  0.19165104D-17 -0.49561477D-17 -0.96433296D-02  0.24504915D-18
 -0.16922446D-18  0.17153324D-03  0.10031145D-02  0.10031145D-02 -0.20062290D-02
 -0.11553430D-18 -0.56660182D-17  0.87492680D-17  0.91638774D-03  0.91638774D-03
 -0.18327755D-02  0.32446022D-19  0.71305494D-17 -0.11343393D-16  0.87060304D-04
  0.87060304D-04 -0.17412061D-03  0.20211551D-20  0.11138568D-17  0.10801267D-17
 -0.18676847D-17  0.19387842D-17 -0.23518527D-02 -0.19011730D-17  0.18450601D-17
  0.35277790D-02  0.75042272D-17 -0.76614127D-17  0.35277790D-02 -0.17295123D-18
 -0.77276374D-18  0.11893211D-17 -0.63549977D-03 -0.77061388D-18  0.11881535D-17
  0.95324966D-03  0.30889051D-17 -0.47561169D-17  0.95324966D-03  0.15036069D-19
  0.32965928D+00  0.61455985D+00  0.10387144D+01  0.15615280D+01  0.19185176D+01
  0.16204948D+01  0.61119101D+00 -0.30248184D-02 -0.31200891D-02 -0.58417912D-02
 -0.99461493D-02 -0.15385181D-01 -0.20261742D-01 -0.21053247D-01 -0.13378394D-01
  0.89658883D-02  0.37842096D-01  0.12029398D-01 -0.37227356D-02  0.68394803D-17
  0.64124475D-17  0.45660447D-17  0.15059203D-16  0.14118960D-16  0.10053541D-16
  0.60305286D-02  0.56540039D-02  0.40259876D-02 -0.92080352D-17  0.10819592D-16
 -0.10020633D-01 -0.22010522D-17 -0.65446763D-18 -0.58899400D-02 -0.14655261D-18
  0.12194369D-18  0.18327802D-03 -0.44346827D-02 -0.44346827D-02  0.88693653D-02
 -0.10913570D-18  0.63291975D-17  0.82516051D-17  0.48234381D-03  0.48234381D-03
 -0.96468761D-03 -0.13574481D-18  0.13585489D-16 -0.21277365D-16  0.11888275D-03
  0.11888275D-03 -0.23776550D-03  0.16414610D-20  0.74912927D-18 -0.54112279D-19
 -0.40831154D-18  0.55943925D-18 -0.13456725D-02 -0.30572217D-18  0.17356479D-18
  0.20185087D-02  0.15306568D-17 -0.18518826D-17  0.20185087D-02 -0.37021652D-18
 -0.35085222D-18  0.22178037D-18 -0.40228154D-03 -0.34539698D-18  0.23304067D-18
  0.60342231D-03  0.13979536D-17 -0.89838178D-18  0.60342231D-03  0.41749029D-19
 -0.19856510D-03 -0.35812034D-03 -0.52804823D-03 -0.67323150D-02 -0.96650485D-02
  0.12898764D-03 -0.45810286D-17 -0.54181431D-17 -0.27404687D-02 -0.51214574D-17
  0.77974934D-17 -0.25905715D-02  0.12314994D-17  0.29704045D-17 -0.17403765D-02
  0.71470061D-03  0.71470061D-03 -0.14294012D-02 -0.53407114D-20 -0.89503629D-17
  0.42263793D-17  0.11626973D-03  0.11626973D-03 -0.23253947D-03 -0.59009047D-20
 -0.15630708D-18  0.90120949D-18  0.58133925D-03  0.10836416D-02  0.18370388D-02
  0.27818182D-02  0.34786734D-02  0.29948138D-02  0.11513158D-02 -0.49888396D-05
 -0.46176446D-03 -0.86711187D-03 -0.14765420D-02 -0.23129943D-02 -0.30996844D-02
 -0.33341285D-02 -0.20018064D-02  0.13164721D-02  0.10395167D-04  0.57094352D-02
  0.48085273D-02  0.11462317D-17  0.11209896D-17  0.74068520D-18  0.97441178D-18
  0.95295344D-18  0.62965663D-18  0.14879726D-03  0.14552047D-03  0.96151526D-04
  0.12381006D-18 -0.68028255D-19 -0.40137974D-02 -0.58730540D-17  0.97993302D-17
 -0.84980132D-03 -0.24986575D-18 -0.22062357D-18 -0.42878584D-03 -0.17968323D-02
 -0.17968323D-02  0.35936645D-02  0.21988814D-18 -0.14704669D-16  0.86607611D-17
  0.21840034D-03  0.21840034D-03 -0.43680068D-03 -0.30113023D-21  0.64160690D-17
 -0.39479971D-17  0.24275824D-03  0.24275824D-03 -0.48551648D-03  0.33917925D-20
  0.44340144D-17 -0.61872570D-17 -0.70033916D-17  0.18484923D-17 -0.18059788D-02
 -0.68333173D-17  0.20390409D-17  0.27089682D-02  0.27843492D-16 -0.75845177D-17
  0.27089682D-02 -0.35703735D-18  0.23862078D-17 -0.11621306D-17  0.15966047D-02
  0.23665436D-17 -0.11484442D-17 -0.23949070D-02 -0.95251670D-17  0.46348360D-17
 -0.23949070D-02 -0.68495425D-19
MO    3     MO 0.0        OCC NO =    2.0000000  ORB. ENERGY =  -10.243337
  0.32940136D+00  0.61407904D+00  0.10379017D+01  0.15603063D+01  0.19170166D+01
  0.16192270D+01  0.61071283D+00 -0.30224519D-02 -0.29445209D-02 -0.55130722D-02
 -0.93864771D-02 -0.14519453D-01 -0.19121609D-01 -0.19868576D-01 -0.12625588D-01
  0.84613756D-02  0.37635504D-01  0.79270495D-02 -0.12136938D-02 -0.28754076D-16
 -0.26958774D-16 -0.19196253D-16  0.26519898D-16  0.24864090D-16  0.17704713D-16
  0.11206271D-02  0.10506591D-02  0.74813187D-03  0.52477810D-17 -0.60369082D-17
  0.70328218D-02  0.10654863D-17 -0.15495718D-17  0.62841351D-02  0.45239657D-20
 -0.25146391D-19  0.38717461D-04 -0.41631017D-02 -0.41631017D-02  0.83262035D-02
  0.27857262D-18 -0.39208227D-19  0.10023532D-17  0.52857501D-03  0.52857501D-03
 -0.10571500D-02  0.16830668D-18  0.22311612D-17 -0.21905990D-17  0.77649466D-04
  0.77649466D-04 -0.15529893D-03 -0.13890473D-20  0.27143102D-18 -0.32234125D-18
 -0.25966359D-18  0.77218692D-18  0.34028160D-03 -0.50053451D-18  0.50869744D-18
 -0.51042240D-03  0.12795253D-17 -0.28252582D-17 -0.51042240D-03 -0.13391410D-18
 -0.16702126D-18  0.27163681D-18  0.38121486D-03 -0.15350058D-18  0.26165490D-18
 -0.57182230D-03  0.65456435D-18 -0.10765653D-17 -0.57182230D-03  0.43145902D-19
 -0.60200663D-02 -0.11222772D-01 -0.18968462D-01 -0.28515812D-01 -0.35034970D-01
 -0.29592633D-01 -0.11161252D-01  0.55237661D-04  0.66830742D-03  0.12512824D-02
  0.21304153D-02  0.32954285D-02  0.43399634D-02  0.45095000D-02  0.28655848D-02
 -0.19204483D-02  0.32908211D-03 -0.11867254D-01  0.47069095D-03  0.99024193D-18
  0.92841476D-18  0.66108662D-18 -0.16384632D-17 -0.15361634D-17 -0.10938399D-17
 -0.34579272D-02 -0.32420266D-02 -0.23085161D-02 -0.23565131D-17  0.35751430D-17
  0.77970295D-02 -0.10665246D-17  0.14503576D-17  0.68510563D-02 -0.55257916D-20
  0.20614250D-19 -0.68355078D-04  0.60580002D-03  0.60580002D-03 -0.12116000D-02
  0.14710914D-18  0.18834625D-18 -0.12906191D-17  0.11703841D-02  0.11703841D-02
 -0.23407682D-02 -0.65848022D-19  0.30024627D-17 -0.36853178D-17  0.71240754D-04
  0.71240754D-04 -0.14248151D-03 -0.10993879D-21  0.21423512D-18 -0.27098463D-18
  0.16459266D-18 -0.22487470D-18  0.23507425D-02  0.14529902D-18 -0.25161883D-18
 -0.35261138D-02 -0.63907700D-18  0.92624293D-18 -0.35261138D-02 -0.21462122D-18
  0.29327366D-19 -0.54522444D-19  0.60934636D-03  0.32110928D-19 -0.51180315D-19
 -0.91401954D-03 -0.12009303D-18  0.21474765D-18 -0.91401954D-03  0.77008681D-19
  0.27259996D-03  0.49164525D-03  0.72493064D-03  0.51070837D-02  0.64501128D-02
  0.12012059D-03 -0.16495853D-19 -0.25783476D-18 -0.51814663D-03 -0.72914605D-18
  0.23015762D-17 -0.28185239D-03  0.19171798D-18 -0.78053982D-19  0.56355321D-03
  0.15719480D-02  0.15719480D-02 -0.31438960D-02 -0.19833717D-19 -0.69759557D-18
  0.22796995D-17  0.15332877D-03  0.15332877D-03 -0.30665755D-03  0.33157300D-20
  0.62248911D-19  0.33584245D-18 -0.39386546D-03 -0.73418228D-03 -0.12446195D-02
 -0.18847207D-02 -0.23568498D-02 -0.20290282D-02 -0.78003250D-03  0.33800085D-05
  0.26329403D-03  0.49441955D-03  0.84191123D-03  0.13188490D-02  0.17674128D-02
  0.19010907D-02  0.11414124D-02 -0.75064080D-03  0.54292235D-03 -0.32965365D-02
 -0.27166102D-02 -0.14439342D-18 -0.14121362D-18 -0.93305806D-19  0.11537559D-18
  0.11283481D-18  0.74554729D-19 -0.21473111D-02 -0.21000233D-02 -0.13875742D-02
  0.14814602D-18 -0.15009646D-18  0.29565399D-02 -0.76379840D-18  0.69812932D-18
  0.47169058D-03 -0.63688771D-19  0.64493776D-19  0.40147323D-03 -0.53918789D-03
 -0.53918789D-03  0.10783758D-02 -0.21244593D-18 -0.49327797D-18  0.71689390D-18
  0.92887295D-03  0.92887295D-03 -0.18577459D-02  0.54452450D-19  0.20494391D-18
 -0.26380744D-18 -0.27661052D-04 -0.27661052D-04  0.55322103D-04 -0.35650014D-19
  0.58768716D-18 -0.58670803D-18 -0.42622002D-18  0.62220847D-18 -0.16647289D-03
 -0.57226041D-18  0.47088553D-18  0.24970934D-03  0.18509205D-17 -0.23375109D-17
  0.24970934D-03  0.46055810D-19  0.16521210D-18 -0.19187294D-18  0.56590284D-03
  0.17715680D-18 -0.19009672D-18 -0.84885425D-03 -0.67279310D-18  0.76571553D-18
 -0.84885425D-03  0.33485852D-19
MO    4     MO 0.0        OCC NO =    2.0000000  ORB. ENERGY =   -1.340724
 -0.44523736D-03 -0.83002367D-03 -0.14028862D-02 -0.21089975D-02 -0.25911471D-02
 -0.21886380D-02 -0.82547372D-03  0.40853155D-05 -0.44086784D-03 -0.82544369D-03
 -0.14053885D-02 -0.21739223D-02 -0.28629792D-02 -0.29748188D-02 -0.18903638D-02
  0.12668779D-02  0.38448906D-02 -0.26760979D-01  0.37245085D-02 -0.76952682D-16
 -0.72148031D-16 -0.51373696D-16 -0.40435824D-15 -0.37911155D-15 -0.26995001D-15
  0.78475490D-02  0.73575760D-02  0.52390324D-02  0.28686759D-16 -0.62419094D-17
 -0.18632035D-01  0.28322061D-17 -0.36377517D-16 -0.12963185D-01  0.20973930D-17
  0.59614672D-17  0.33019537D-03  0.12034653D-02  0.12034653D-02 -0.24069306D-02
 -0.68859128D-17  0.77924859D-16 -0.22575090D-15  0.19967056D-02  0.19967056D-02
 -0.39934111D-02 -0.15098753D-17 -0.32712490D-16 -0.36050164D-16  0.26912319D-03
  0.26912319D-03 -0.53824638D-03 -0.96857061D-18 -0.39720718D-17 -0.44553579D-17
 -0.33787141D-18  0.14979824D-16 -0.32592364D-02 -0.85295357D-18  0.14192674D-16
  0.48888546D-02  0.18665678D-17 -0.59132146D-16  0.48888546D-02  0.39337365D-17
 -0.91412943D-18  0.37402461D-17  0.14337247D-03 -0.69231113D-18  0.38476589D-17
 -0.21505870D-03  0.34346994D-17 -0.15068397D-16 -0.21505870D-03 -0.61345069D-17
 -0.44925748D-02 -0.83751808D-02 -0.14155531D-01 -0.21280400D-01 -0.26145430D-01
 -0.22083995D-01 -0.83292705D-02  0.41222024D-04 -0.16164411D-01 -0.30264878D-01
 -0.51528544D-01 -0.79706822D-01 -0.10497108D+00 -0.10907168D+00 -0.69310154D-01
  0.46450053D-01  0.22143603D-01  0.32092012D-01 -0.61637963D-02  0.18364103D-16
  0.17217514D-16  0.12259896D-16 -0.34611186D-16 -0.32450187D-16 -0.23106466D-16
  0.15610089D+00  0.14635451D+00  0.10421313D+00  0.19670717D-16  0.86357214D-16
  0.84822091D-02  0.15905415D-16  0.15350961D-16 -0.95546130D-02 -0.33047681D-18
 -0.27650726D-18  0.29651091D-03 -0.16861703D-01 -0.16861703D-01  0.33723406D-01
  0.31916571D-18 -0.23337974D-17  0.57272953D-17 -0.30282785D-02 -0.30282785D-02
  0.60565571D-02  0.45170235D-17 -0.25453282D-16 -0.37899982D-16  0.11405113D-03
  0.11405113D-03 -0.22810226D-03  0.48315566D-19 -0.32301950D-17 -0.10034579D-17
  0.12392929D-17 -0.16700472D-16  0.13287079D-02  0.18606819D-17 -0.16637912D-16
 -0.19930618D-02 -0.55785605D-17  0.66739329D-16 -0.19930618D-02  0.14110587D-16
 -0.15297262D-17 -0.16256216D-17  0.10176184D-02 -0.18719155D-17 -0.17379931D-17
 -0.15264276D-02  0.64610941D-17  0.66148580D-17 -0.15264276D-02 -0.79723996D-17
  0.93197851D-05  0.16808616D-04  0.24784295D-04 -0.15889823D-02 -0.77186717D-02
  0.39910344D-03  0.67574928D-17 -0.64161765D-17 -0.26318138D-02 -0.22991311D-16
  0.30031936D-16 -0.40513577D-02 -0.70660466D-17 -0.93559759D-17 -0.18580333D-02
  0.12914064D-02  0.12914064D-02 -0.25828128D-02 -0.42749955D-17 -0.19336825D-16
  0.45176517D-16  0.30635092D-03  0.30635092D-03 -0.61270184D-03 -0.23979178D-17
 -0.52615701D-17 -0.37692900D-17 -0.73199920D-02 -0.13644782D-01 -0.23131260D-01
 -0.35027545D-01 -0.43802069D-01 -0.37709501D-01 -0.14496909D-01  0.62817479D-04
 -0.12223414D+00 -0.22953406D+00 -0.39085693D+00 -0.61227506D+00 -0.82052061D+00
 -0.88258055D+00 -0.52990020D+00  0.34848467D+00  0.20434666D+00  0.90586781D-01
  0.90504850D-02  0.63160123D-17  0.61769221D-17  0.40813536D-17  0.14971979D-15
  0.14642268D-15  0.96747656D-16 -0.40139313D+00 -0.39255371D+00 -0.25937683D+00
  0.32320978D-17  0.19328593D-16 -0.99707023D-01 -0.62582798D-17 -0.34139327D-17
 -0.11162812D-01  0.13530935D-17  0.21694090D-18 -0.75546494D-03 -0.20505074D-01
 -0.20505074D-01  0.41010147D-01  0.76255678D-16  0.22269977D-15 -0.99098256D-15
 -0.11073282D-01 -0.11073282D-01  0.22146564D-01  0.89594682D-18 -0.19362178D-16
  0.79267479D-16 -0.68470448D-03 -0.68470448D-03  0.13694090D-02  0.10632047D-16
  0.24470277D-17 -0.19048461D-17 -0.31705601D-17  0.13731634D-16 -0.11115179D-01
 -0.37052911D-16 -0.17654057D-16  0.16672768D-01  0.46564591D-16 -0.23540846D-16
  0.16672768D-01  0.50209270D-16  0.24091707D-18  0.42053285D-17 -0.35741700D-02
  0.45075791D-18  0.48956155D-17  0.53612550D-02 -0.11735091D-17 -0.17511601D-16
  0.53612550D-02 -0.12945902D-16
MO    5     MO 0.0        OCC NO =    2.0000000  ORB. ENERGY =   -0.795995
 -0.90775132D-02 -0.16922549D-01 -0.28602088D-01 -0.42998308D-01 -0.52828389D-01
 -0.44622020D-01 -0.16829784D-01  0.83291541D-04 -0.44012611D-01 -0.82405494D-01
 -0.14030240D+00 -0.21702649D+00 -0.28581625D+00 -0.29698139D+00 -0.18871834D+00
  0.12647464D+00  0.55344269D-01  0.36238773D-01  0.27667962D-02 -0.70987944D-15
 -0.66555709D-15 -0.47391630D-15  0.18867357D-14  0.17689347D-14  0.12595869D-14
  0.22421806D+00  0.21021868D+00  0.14968822D+00 -0.33696371D-16  0.44511210D-15
  0.14407737D-01 -0.47905903D-17  0.72638909D-16  0.69710389D-03 -0.53346244D-17
  0.97390191D-18  0.31529097D-03 -0.19140104D-01 -0.19140104D-01  0.38280209D-01
  0.59722033D-17 -0.57789659D-16  0.35765507D-15 -0.37811197D-02 -0.37811197D-02
  0.75622394D-02 -0.14081391D-17 -0.70770738D-16  0.48982039D-16 -0.59675036D-04
 -0.59675036D-04  0.11935007D-03  0.30910010D-18 -0.10482620D-16  0.10046213D-16
  0.19835089D-16 -0.23620102D-16  0.75909850D-03  0.12265752D-16 -0.26974525D-16
 -0.11386477D-02 -0.71771021D-16  0.97834831D-16 -0.11386477D-02  0.21887113D-17
  0.84114895D-17 -0.43283424D-17 -0.36020189D-03  0.90117556D-17 -0.56825531D-17
  0.54030284D-03 -0.34246224D-16  0.18667580D-16  0.54030284D-03 -0.48384159D-18
 -0.83626751D-02 -0.15589928D-01 -0.26349724D-01 -0.39612267D-01 -0.48668247D-01
 -0.41108115D-01 -0.15504468D-01  0.76732479D-04 -0.44662326D-01 -0.83621966D-01
 -0.14237355D+00 -0.22023024D+00 -0.29003547D+00 -0.30136544D+00 -0.19150421D+00
  0.12834167D+00  0.60019059D-01  0.12631902D-01 -0.36525611D-02  0.94281675D-16
  0.88395063D-16  0.62942551D-16  0.58609077D-15  0.54949735D-15  0.39127485D-15
 -0.24540105D+00 -0.23007908D+00 -0.16383001D+00  0.12397120D-15  0.50300968D-16
 -0.28896053D-01  0.41706558D-16 -0.40815005D-16  0.68896143D-04  0.27589022D-17
 -0.23860139D-17  0.10571557D-03 -0.15803980D-01 -0.15803980D-01  0.31607960D-01
  0.19762616D-16  0.63977613D-17 -0.13345125D-15 -0.23254377D-02 -0.23254377D-02
  0.46508753D-02  0.19847094D-17 -0.11617133D-15  0.49615974D-16  0.15032050D-03
  0.15032050D-03 -0.30064099D-03  0.30422060D-18 -0.26574082D-17  0.51074833D-17
 -0.46346880D-17 -0.19382204D-18 -0.19457395D-02 -0.55480874D-17  0.35246742D-18
  0.29186092D-02  0.19452151D-16  0.22899871D-18  0.29186092D-02 -0.16395842D-16
 -0.14320402D-17  0.22762173D-17 -0.18018375D-03 -0.55541302D-18  0.28000477D-17
  0.27027563D-03  0.48515336D-17 -0.96286997D-17  0.27027563D-03  0.33403516D-17
  0.10292050D-01  0.18562136D-01  0.27369859D-01 -0.10494212D-01 -0.62392971D-02
  0.28147361D-03 -0.78072558D-17  0.34540755D-16  0.49240545D-02  0.80852554D-16
 -0.26771926D-16 -0.14827528D-01 -0.30644234D-17  0.18245822D-17 -0.19581428D-02
  0.27445232D-02  0.27445232D-02 -0.54890464D-02 -0.11247932D-17  0.40306545D-16
 -0.28829170D-16  0.76785429D-03  0.76785429D-03 -0.15357086D-02 -0.13781662D-18
  0.17202949D-16 -0.90518964D-17  0.85172007D-03  0.15876431D-02  0.26914454D-02
  0.40756415D-02  0.50966041D-02  0.43877014D-02  0.16867926D-02 -0.73091484D-05
  0.23992878D-01  0.45054376D-01  0.76719832D-01  0.12018116D+00  0.16105690D+00
  0.17323841D+00  0.10401211D+00 -0.68402741D-01 -0.42911137D-01 -0.36017161D-01
 -0.18433539D-02  0.11812752D-15  0.11552613D-15  0.76333001D-16  0.36398794D-15
  0.35597225D-15  0.23520592D-15 -0.51231721D+00 -0.50103504D+00 -0.33105504D+00
  0.25095750D-16  0.86589573D-16 -0.10944921D+00  0.26682836D-16  0.13992834D-16
 -0.52493357D-02 -0.44082653D-17  0.19537159D-17  0.26419508D-03 -0.12184000D-01
 -0.12184000D-01  0.24368001D-01 -0.14780590D-16 -0.11468612D-15  0.33820560D-15
 -0.15658875D-02 -0.15658875D-02  0.31317751D-02  0.41809592D-17  0.21866354D-17
 -0.50492880D-16  0.81215792D-03  0.81215792D-03 -0.16243158D-02 -0.52094899D-17
 -0.18107329D-16 -0.30007227D-17  0.47385360D-17 -0.12968883D-16 -0.54067977D-02
  0.22858168D-16  0.42055149D-17  0.81101966D-02 -0.37073776D-16  0.34701135D-16
  0.81101966D-02 -0.41429751D-16 -0.28457653D-17 -0.30736392D-17  0.86022193D-03
 -0.47835716D-17 -0.45550396D-17 -0.12903329D-02  0.13320867D-16  0.13775957D-16
 -0.12903329D-02 -0.94270708D-18
MO    6     MO 0.0        OCC NO =    2.0000000  ORB. ENERGY =   -0.661499
  0.36929565D-02  0.68845105D-02  0.11636036D-01  0.17492773D-01  0.21491893D-01
  0.18153339D-01  0.68467716D-02 -0.33885055D-04  0.23351178D-01  0.43720772D-01
  0.74438356D-01  0.11514482D+00  0.15164167D+00  0.15756541D+00  0.10012575D+00
 -0.67101947D-01 -0.28238134D-01 -0.66859627D-01 -0.25145970D-02  0.54719754D-15
  0.51303247D-15  0.36530968D-15 -0.96611244D-15 -0.90579183D-15 -0.64497774D-15
 -0.20814635D-01 -0.19515043D-01 -0.13895873D-01  0.50892812D-17 -0.23934890D-15
 -0.63413058D-02 -0.21177988D-16 -0.24019398D-16 -0.14761713D-01 -0.15979181D-16
  0.40650088D-17 -0.83710012D-04  0.94418302D-02  0.94418302D-02 -0.18883660D-01
  0.94539713D-16  0.32533781D-16 -0.15896039D-15  0.30700178D-02  0.30700178D-02
 -0.61400357D-02  0.15057863D-16 -0.25946164D-16 -0.30316968D-16  0.39821315D-03
  0.39821315D-03 -0.79642630D-03 -0.12387236D-17 -0.27689953D-16 -0.10137833D-16
  0.17704451D-17 -0.62817134D-17 -0.22061021D-02  0.51162180D-17 -0.57137153D-17
  0.33091531D-02 -0.10427553D-16  0.24558855D-16  0.33091531D-02  0.10570765D-16
 -0.54350067D-17 -0.31876588D-17  0.76597511D-03 -0.57470220D-17 -0.25872281D-17
 -0.11489627D-02  0.22052042D-16  0.12150204D-16 -0.11489627D-02 -0.39673886D-17
 -0.17585111D-02 -0.32782645D-02 -0.55408446D-02 -0.83297044D-02 -0.10234004D-01
 -0.86442526D-02 -0.32602940D-02  0.16135377D-04 -0.16171790D-01 -0.30278694D-01
 -0.51552068D-01 -0.79743210D-01 -0.10501900D+00 -0.10912147D+00 -0.69341796D-01
  0.46471259D-01  0.22724443D-01  0.68492879D-01  0.26034603D-02 -0.16256017D-16
 -0.15241049D-16 -0.10852535D-16 -0.46768942D-15 -0.43848856D-15 -0.31222997D-15
  0.37044971D+00  0.34732015D+00  0.24731264D+00 -0.20823127D-16 -0.16273006D-15
  0.66041142D-01  0.10468623D-15  0.11294822D-16 -0.10851402D-01  0.22237319D-17
 -0.69588983D-17 -0.34842983D-04 -0.89847505D-02 -0.89847505D-02  0.17969501D-01
 -0.17529491D-17 -0.57587004D-16  0.11199771D-15 -0.49232373D-02 -0.49232373D-02
  0.98464746D-02  0.81759740D-17  0.41161685D-16 -0.11516609D-16 -0.41172009D-03
 -0.41172009D-03  0.82344017D-03  0.23555126D-17 -0.17430155D-16 -0.11883563D-16
 -0.81278679D-17  0.25543684D-16  0.24937532D-02 -0.69063300D-17  0.25151058D-16
 -0.37406297D-02  0.31289934D-16 -0.10178211D-15 -0.37406297D-02  0.24545458D-16
 -0.97357954D-17 -0.19547498D-17  0.13645076D-02 -0.97240524D-17 -0.19131135D-17
 -0.20467613D-02  0.38931438D-16  0.77773628D-17 -0.20467613D-02 -0.20188553D-17
 -0.11520888D-01 -0.20778396D-01 -0.30637732D-01 -0.45942506D-02 -0.55610526D-02