 Molden2AIM, Version 4.0.0 (06/02/2016)           Time: Fri Jun 29 17:30:41 2018
GAUSSIAN             13 MOL ORBITALS    233 PRIMITIVES        3 NUCLEI
  O    1    (CENTRE  1)  -0.00484904  0.00000000  0.00117919  CHARGE =  8.0
  H    2    (CENTRE  2)  -0.01131946  0.00000000  1.83057203  CHARGE =  1.0
  Cl   3    (CENTRE  3)   3.13997082  0.00000000 -0.71154425  CHARGE = 17.0
CENTRE ASSIGNMENTS    1  1  1  1  1  1  1  1  1  1  1  1  1  1  1  1  1  1  1  1
CENTRE ASSIGNMENTS    1  1  1  1  1  1  1  1  1  1  1  1  1  1  1  1  1  1  1  1
CENTRE ASSIGNMENTS    1  1  1  1  1  1  1  1  1  1  1  1  1  1  1  1  1  1  1  1
CENTRE ASSIGNMENTS    1  1  1  1  1  1  1  1  1  1  1  1  1  1  1  2  2  2  2  2
CENTRE ASSIGNMENTS    2  2  2  2  2  2  2  2  2  2  2  2  2  2  2  2  2  2  2  2
CENTRE ASSIGNMENTS    2  2  3  3  3  3  3  3  3  3  3  3  3  3  3  3  3  3  3  3
CENTRE ASSIGNMENTS    3  3  3  3  3  3  3  3  3  3  3  3  3  3  3  3  3  3  3  3
CENTRE ASSIGNMENTS    3  3  3  3  3  3  3  3  3  3  3  3  3  3  3  3  3  3  3  3
CENTRE ASSIGNMENTS    3  3  3  3  3  3  3  3  3  3  3  3  3  3  3  3  3  3  3  3
CENTRE ASSIGNMENTS    3  3  3  3  3  3  3  3  3  3  3  3  3  3  3  3  3  3  3  3
CENTRE ASSIGNMENTS    3  3  3  3  3  3  3  3  3  3  3  3  3  3  3  3  3  3  3  3
CENTRE ASSIGNMENTS    3  3  3  3  3  3  3  3  3  3  3  3  3
TYPE ASSIGNMENTS      1  1  1  1  1  1  1  1  1  1  1  1  1  1  1  1  1  1  1  2
TYPE ASSIGNMENTS      2  2  3  3  3  4  4  4  2  3  4  2  3  4  2  3  4  5  6  7
TYPE ASSIGNMENTS      8  9 10  5  6  7  8  9 10  5  6  7  8  9 10 11 12 13 17 14
TYPE ASSIGNMENTS     15 18 19 16 20 11 12 13 17 14 15 18 19 16 20  1  1  1  1  1
TYPE ASSIGNMENTS      1  2  3  4  2  3  4  2  3  4  5  6  7  8  9 10  5  6  7  8
TYPE ASSIGNMENTS      9 10  1  1  1  1  1  1  1  1  1  1  1  1  1  1  1  1  1  1
TYPE ASSIGNMENTS      1  1  1  1  1  1  1  1  1  1  1  1  1  1  1  1  1  1  1  1
TYPE ASSIGNMENTS      1  1  1  1  2  2  2  2  2  2  2  3  3  3  3  3  3  3  4  4
TYPE ASSIGNMENTS      4  4  4  4  4  2  2  2  2  2  2  2  3  3  3  3  3  3  3  4
TYPE ASSIGNMENTS      4  4  4  4  4  4  2  3  4  2  3  4  2  3  4  5  6  7  8  9
TYPE ASSIGNMENTS     10  5  6  7  8  9 10  5  6  7  8  9 10 11 12 13 17 14 15 18
TYPE ASSIGNMENTS     19 16 20 11 12 13 17 14 15 18 19 16 20
EXPONENTS  0.1533000D+05 0.2299000D+04 0.5224000D+03 0.1473000D+03 0.4755000D+02
EXPONENTS  0.1676000D+02 0.6207000D+01 0.6882000D+00 0.1533000D+05 0.2299000D+04
EXPONENTS  0.5224000D+03 0.1473000D+03 0.4755000D+02 0.1676000D+02 0.6207000D+01
EXPONENTS  0.6882000D+00 0.1752000D+01 0.2384000D+00 0.7376000D-01 0.3446000D+02
EXPONENTS  0.7749000D+01 0.2280000D+01 0.3446000D+02 0.7749000D+01 0.2280000D+01
EXPONENTS  0.3446000D+02 0.7749000D+01 0.2280000D+01 0.7156000D+00 0.7156000D+00
EXPONENTS  0.7156000D+00 0.2140000D+00 0.2140000D+00 0.2140000D+00 0.5974000D-01
EXPONENTS  0.5974000D-01 0.5974000D-01 0.2314000D+01 0.2314000D+01 0.2314000D+01
EXPONENTS  0.2314000D+01 0.2314000D+01 0.2314000D+01 0.6450000D+00 0.6450000D+00
EXPONENTS  0.6450000D+00 0.6450000D+00 0.6450000D+00 0.6450000D+00 0.2140000D+00
EXPONENTS  0.2140000D+00 0.2140000D+00 0.2140000D+00 0.2140000D+00 0.2140000D+00
EXPONENTS  0.1428000D+01 0.1428000D+01 0.1428000D+01 0.1428000D+01 0.1428000D+01
EXPONENTS  0.1428000D+01 0.1428000D+01 0.1428000D+01 0.1428000D+01 0.1428000D+01
EXPONENTS  0.5000000D+00 0.5000000D+00 0.5000000D+00 0.5000000D+00 0.5000000D+00
EXPONENTS  0.5000000D+00 0.5000000D+00 0.5000000D+00 0.5000000D+00 0.5000000D+00
EXPONENTS  0.3387000D+02 0.5095000D+01 0.1159000D+01 0.3258000D+00 0.1027000D+00
EXPONENTS  0.2526000D-01 0.1407000D+01 0.1407000D+01 0.1407000D+01 0.3880000D+00
EXPONENTS  0.3880000D+00 0.3880000D+00 0.1020000D+00 0.1020000D+00 0.1020000D+00
EXPONENTS  0.1057000D+01 0.1057000D+01 0.1057000D+01 0.1057000D+01 0.1057000D+01
EXPONENTS  0.1057000D+01 0.2470000D+00 0.2470000D+00 0.2470000D+00 0.2470000D+00
EXPONENTS  0.2470000D+00 0.2470000D+00 0.4561000D+06 0.6833000D+05 0.1555000D+05
EXPONENTS  0.4405000D+04 0.1439000D+04 0.5204000D+03 0.2031000D+03 0.8396000D+02
EXPONENTS  0.3620000D+02 0.1583000D+02 0.6334000D+01 0.2694000D+01 0.4313000D+00
EXPONENTS  0.4561000D+06 0.6833000D+05 0.1555000D+05 0.4405000D+04 0.1439000D+04
EXPONENTS  0.5204000D+03 0.2031000D+03 0.8396000D+02 0.3620000D+02 0.1583000D+02
EXPONENTS  0.6334000D+01 0.2694000D+01 0.4313000D+00 0.4561000D+06 0.6833000D+05
EXPONENTS  0.1555000D+05 0.4405000D+04 0.1439000D+04 0.5204000D+03 0.2031000D+03
EXPONENTS  0.8396000D+02 0.3620000D+02 0.1583000D+02 0.6334000D+01 0.2694000D+01
EXPONENTS  0.4313000D+00 0.9768000D+00 0.1625000D+00 0.5910000D-01 0.6633000D+03
EXPONENTS  0.1568000D+03 0.4998000D+02 0.1842000D+02 0.7240000D+01 0.2922000D+01
EXPONENTS  0.3818000D+00 0.6633000D+03 0.1568000D+03 0.4998000D+02 0.1842000D+02
EXPONENTS  0.7240000D+01 0.2922000D+01 0.3818000D+00 0.6633000D+03 0.1568000D+03
EXPONENTS  0.4998000D+02 0.1842000D+02 0.7240000D+01 0.2922000D+01 0.3818000D+00
EXPONENTS  0.6633000D+03 0.1568000D+03 0.4998000D+02 0.1842000D+02 0.7240000D+01
EXPONENTS  0.2922000D+01 0.3818000D+00 0.6633000D+03 0.1568000D+03 0.4998000D+02
EXPONENTS  0.1842000D+02 0.7240000D+01 0.2922000D+01 0.3818000D+00 0.6633000D+03
EXPONENTS  0.1568000D+03 0.4998000D+02 0.1842000D+02 0.7240000D+01 0.2922000D+01
EXPONENTS  0.3818000D+00 0.1022000D+01 0.1022000D+01 0.1022000D+01 0.1301000D+00
EXPONENTS  0.1301000D+00 0.1301000D+00 0.4190000D-01 0.4190000D-01 0.4190000D-01
EXPONENTS  0.1046000D+01 0.1046000D+01 0.1046000D+01 0.1046000D+01 0.1046000D+01
EXPONENTS  0.1046000D+01 0.3440000D+00 0.3440000D+00 0.3440000D+00 0.3440000D+00
EXPONENTS  0.3440000D+00 0.3440000D+00 0.1350000D+00 0.1350000D+00 0.1350000D+00
EXPONENTS  0.1350000D+00 0.1350000D+00 0.1350000D+00 0.7060000D+00 0.7060000D+00
EXPONENTS  0.7060000D+00 0.7060000D+00 0.7060000D+00 0.7060000D+00 0.7060000D+00
EXPONENTS  0.7060000D+00 0.7060000D+00 0.7060000D+00 0.3120000D+00 0.3120000D+00
EXPONENTS  0.3120000D+00 0.3120000D+00 0.3120000D+00 0.3120000D+00 0.3120000D+00
EXPONENTS  0.3120000D+00 0.3120000D+00 0.3120000D+00
MO    1     MO 0.0        OCC NO =    2.0000000  ORB. ENERGY = -101.784569
  0.30845008D-04  0.57491126D-04  0.97485901D-04  0.14754945D-03  0.18409864D-03
  0.15811618D-03  0.60703874D-04 -0.27153215D-06 -0.22035845D-04 -0.41328774D-04
 -0.70456499D-04 -0.11010979D-03 -0.14723777D-03 -0.15721562D-03 -0.96118544D-04
  0.63413178D-04  0.43771430D-05  0.17508400D-03  0.19998163D-04  0.79600083D-04
  0.77185305D-04  0.52068751D-04 -0.16958954D-16 -0.16444480D-16 -0.11093349D-16
 -0.20187831D-04 -0.19575405D-04 -0.13205453D-04  0.75262938D-04 -0.23982700D-19
 -0.34036366D-04 -0.76722918D-06  0.84869025D-20  0.45862384D-04 -0.19778814D-05
  0.27264329D-21  0.47084724D-05  0.29439449D-03 -0.17180419D-03 -0.12259030D-03
 -0.28415644D-19 -0.23167176D-03  0.34185374D-19 -0.87775329D-04  0.51396092D-04
  0.36379237D-04  0.12332189D-19  0.86490448D-04 -0.15976666D-19 -0.57250180D-04
  0.24765339D-04  0.32484841D-04  0.10465550D-19  0.51447826D-04 -0.38185629D-20
  0.14041563D-03  0.19635393D-19  0.31407898D-04 -0.25781775D-03 -0.66049799D-19
 -0.66051226D-04 -0.16342912D-03  0.71436210D-20 -0.28172467D-04  0.16944252D-19
 -0.91355425D-04 -0.54856502D-20 -0.19196267D-04  0.13826371D-03  0.27298271D-19
  0.77286995D-04  0.13580256D-03 -0.10841320D-19 -0.19698194D-04 -0.82742885D-20
 -0.22752064D-05 -0.41034285D-05 -0.60505029D-05 -0.87611497D-04  0.12061764D-03
 -0.34695355D-06 -0.15475299D-03  0.10161804D-19  0.48698997D-04  0.17988878D-04
  0.88341734D-20 -0.37451312D-04  0.34252706D-04  0.40109790D-21 -0.30697028D-04
 -0.13294930D-04 -0.10532969D-05  0.14348227D-04  0.18561766D-20  0.47294494D-04
 -0.15803257D-19  0.31293749D-04 -0.24662263D-04 -0.66314867D-05 -0.32537792D-20
 -0.13421115D-04 -0.30430946D-20  0.61708265D+00  0.11545640D+01  0.19948308D+01
  0.32338534D+01  0.49108644D+01  0.68255240D+01  0.81145634D+01  0.72278289D+01
  0.35881107D+01  0.57810212D+00  0.88754075D-02  0.15860266D-02  0.59267339D-04
 -0.72389901D-03 -0.13521394D-02 -0.23467035D-02 -0.38077461D-02 -0.58939388D-02
 -0.84366379D-02 -0.11012448D-01 -0.11735601D-01 -0.87725998D-02 -0.46308996D-03
  0.59504761D-02  0.35352665D-02 -0.13254599D-04  0.29297937D-03  0.54680378D-03
  0.95029684D-03  0.15401516D-02  0.23920966D-02  0.34267474D-02  0.45247006D-02
  0.48925436D-02  0.38358176D-02  0.19086901D-03 -0.32882655D-02 -0.34039644D-02
  0.15403420D-02 -0.23391464D-02 -0.41943028D-03 -0.42584639D-04 -0.59517964D-02
 -0.78398516D-02 -0.86491929D-02 -0.71841489D-02 -0.38156760D-02 -0.98417415D-03
  0.10116976D-05 -0.56480454D-17 -0.74397433D-17 -0.82077798D-17 -0.68175046D-17
 -0.36209423D-17 -0.93394664D-18  0.96006539D-21  0.19977873D-02  0.26315342D-02
  0.29031987D-02  0.24114402D-02  0.12807745D-02  0.33034910D-03 -0.33958764D-06
  0.47325442D-02  0.62134836D-02  0.70745082D-02  0.59904030D-02  0.34315335D-02
  0.78055482D-03 -0.36534261D-03  0.13575918D-17  0.17824185D-17  0.20294146D-17
  0.17184250D-17  0.98437998D-18  0.22391229D-18 -0.10480328D-18 -0.16033404D-02
 -0.21050684D-02 -0.23967753D-02 -0.20294909D-02 -0.11625705D-02 -0.26444446D-03
  0.12377456D-03  0.26764095D-03  0.35199244D-18 -0.96787657D-04  0.16873381D-03
  0.64417296D-20 -0.88525503D-04  0.20007532D-05 -0.77384932D-21 -0.22844135D-05
  0.15201521D-03 -0.95066795D-04 -0.56948416D-04  0.30819002D-19 -0.14480516D-03
  0.23817571D-19  0.21696850D-04 -0.81868491D-05 -0.13510001D-04  0.14411957D-19
 -0.10488779D-04 -0.66214886D-20 -0.29756435D-04  0.22578290D-04  0.71781447D-05
  0.15601721D-20  0.46484864D-04  0.92310962D-22 -0.91560351D-04  0.17151245D-20
 -0.40161525D-04  0.20640295D-03 -0.78693368D-21  0.20101567D-03  0.68278106D-04
 -0.43584398D-20 -0.80531092D-04  0.28464110D-20  0.24098201D-04  0.13183665D-20
  0.10967682D-04 -0.63897290D-04 -0.60004164D-20 -0.61227146D-04 -0.83973135D-05
  0.20453168D-20  0.28324100D-04  0.30417443D-20
MO    2     MO 0.0        OCC NO =    2.0000000  ORB. ENERGY =  -19.289443
  0.49702368D+00  0.92638818D+00  0.15708474D+01  0.23775507D+01  0.29664891D+01
  0.25478185D+01  0.97815708D+00 -0.43753566D-02  0.14120726D-03  0.26483771D-03
  0.45149023D-03  0.70559135D-03  0.94351008D-03  0.10074488D-02  0.61593444D-03
 -0.40635613D-03  0.53870512D-01  0.22245693D-04 -0.27257743D-03  0.66440106D-02
  0.64424554D-02  0.43460423D-02  0.18712913D-16  0.18145231D-16  0.12240666D-16
  0.50095830D-02  0.48576104D-02  0.32769153D-02 -0.89340501D-03 -0.22280637D-17
  0.67194760D-03 -0.66790364D-03  0.32260156D-18  0.10728808D-03 -0.38108027D-04
  0.38186986D-21  0.10631137D-04  0.40709276D-03 -0.23008753D-02  0.18937826D-02
 -0.32840982D-17 -0.13467955D-02  0.39193844D-17 -0.62130716D-03  0.40242126D-03
  0.21888591D-03  0.10648151D-18  0.53162010D-03 -0.72800012D-18 -0.69364047D-04
  0.84133544D-04 -0.14769497D-04  0.13391538D-18  0.62629093D-04 -0.37832620D-19
 -0.24012248D-04  0.32909304D-18  0.80867054D-03 -0.21291544D-04 -0.87793008D-18
 -0.13454601D-02  0.93328287D-04 -0.10934902D-18 -0.10805515D-02  0.66434657D-19
 -0.12605722D-03 -0.81959147D-20 -0.23002868D-03  0.21910408D-03  0.25344455D-18
  0.49134038D-03  0.15906759D-03 -0.22885680D-18  0.19874565D-03 -0.93874714D-19
  0.19137918D-03  0.34516023D-03  0.50893856D-03 -0.25261385D-03 -0.32930748D-03
 -0.10503282D-04 -0.71922829D-05  0.39708581D-18  0.36269658D-03 -0.48254669D-04
  0.22606276D-18  0.64877311D-03 -0.34564091D-04 -0.13142197D-19  0.97063254D-04
  0.96691769D-03  0.89555319D-03 -0.18624709D-02 -0.15492216D-19  0.75708900D-04
 -0.11096328D-17 -0.83763661D-05  0.37132663D-04 -0.28756297D-04 -0.17267959D-19
  0.19362794D-04 -0.37121063D-19  0.11028993D-04  0.20635288D-04  0.35653206D-04
  0.57798005D-04  0.87770881D-04  0.12199120D-03  0.14502994D-03  0.12918152D-03
  0.64129573D-04  0.10332302D-04  0.15862835D-06  0.28346731D-07  0.10592731D-08
 -0.67345957D-06 -0.12579258D-05 -0.21831912D-05 -0.35424321D-05 -0.54832642D-05
 -0.78487945D-05 -0.10245129D-04 -0.10917894D-04 -0.81613474D-05 -0.43082303D-06
  0.55358621D-05  0.32889381D-05 -0.12331052D-07 -0.12591021D-04 -0.23499326D-04
 -0.40839760D-04 -0.66189237D-04 -0.10280225D-03 -0.14726719D-03 -0.19445260D-03
 -0.21026094D-03 -0.16484730D-03 -0.82027472D-05  0.14131582D-03  0.14628807D-03
 -0.66197420D-04 -0.48635863D-03  0.84110242D-03  0.23822542D-03 -0.15067561D-01
 -0.19847359D-01 -0.21896287D-01 -0.18187383D-01 -0.96597609D-02 -0.24915341D-02
  0.25612124D-05 -0.73373836D-18 -0.96649809D-18 -0.10662738D-17 -0.88566296D-18
 -0.47039711D-18 -0.12132914D-18  0.12472223D-21  0.24268942D-02  0.31967643D-02
  0.35267799D-02  0.29293961D-02  0.15558734D-02  0.40130515D-03 -0.41252805D-06
  0.13225314D-01  0.17363867D-01  0.19770041D-01  0.16740458D-01  0.95895791D-02
  0.21812965D-02 -0.10209668D-02  0.87041486D-18  0.11427909D-17  0.13011515D-17
  0.11017617D-17  0.63113150D-18  0.14356052D-18 -0.67194224D-19 -0.20939942D-02
 -0.27492608D-02 -0.31302357D-02 -0.26505550D-02 -0.15183400D-02 -0.34536967D-03
  0.16165201D-03  0.11910073D-02  0.56966048D-19 -0.22686855D-03 -0.34103411D-03
 -0.86063535D-19  0.13116985D-03 -0.11912928D-04  0.21466888D-20  0.41399700D-05
 -0.11937308D-03  0.93592960D-04  0.25780120D-04 -0.48018703D-19  0.18022239D-03
  0.29734754D-19  0.43896005D-03 -0.24252705D-03 -0.19643300D-03  0.13069865D-18
 -0.28896728D-03 -0.38071749D-19  0.25342669D-04 -0.20760107D-04 -0.45825627D-05
  0.48641708D-19 -0.43835396D-04 -0.80473614D-20 -0.29007394D-03 -0.16408111D-19
 -0.75356353D-04  0.42627244D-03  0.97025007D-19  0.28690255D-03  0.44394938D-03
 -0.47800674D-19 -0.60833489D-04 -0.40886551D-19 -0.38558361D-04  0.21722394D-19
 -0.15978424D-04  0.90462752D-04 -0.91096437D-19  0.83877406D-04  0.25212333D-04
  0.25929255D-19 -0.35942134D-04  0.47560851D-19
MO    3     MO 0.0        OCC NO =    2.0000000  ORB. ENERGY =   -9.582567
 -0.54922721D-04 -0.10236889D-03 -0.17358371D-03 -0.26272703D-03 -0.32780663D-03
 -0.28154217D-03 -0.10808952D-03  0.48349103D-06  0.33484639D-04  0.62801269D-04
  0.10706240D-03  0.16731769D-03  0.22373563D-03  0.23889749D-03  0.14605724D-03
 -0.96359696D-04 -0.13394378D-03 -0.28896838D-04  0.10493253D-03 -0.23646249D-03
 -0.22928907D-03 -0.15467706D-03  0.47488101D-15  0.46047484D-15  0.31063360D-15
 -0.57493543D-05 -0.55749397D-05 -0.37608214D-05  0.26840556D-03  0.17748715D-17
  0.32920924D-04  0.31767424D-03  0.41585227D-17 -0.14157822D-03  0.30445108D-04
  0.20531241D-18 -0.22342436D-04 -0.46248243D-04  0.71454028D-04 -0.25205785D-04
  0.48259828D-17 -0.14708409D-03 -0.64983214D-17  0.26883060D-03 -0.18484687D-03
 -0.83983730D-04 -0.12974972D-17 -0.55120698D-04  0.10472221D-16  0.16554488D-03
 -0.73387179D-04 -0.92157698D-04  0.41315982D-18 -0.80605396D-04  0.10679985D-17
 -0.10401671D-03 -0.19463391D-17  0.61964545D-04  0.23497203D-03 -0.15377540D-17
 -0.24476081D-03  0.77078095D-04  0.73767714D-17  0.58867177D-04  0.23199023D-17
  0.11921376D-03 -0.77560017D-18  0.21568818D-04 -0.26251672D-03 -0.12048655D-17
 -0.79728249D-04 -0.95124550D-04  0.35316660D-17  0.15021795D-04 -0.89319198D-19
 -0.36785652D-05 -0.66344439D-05 -0.97824836D-05  0.17455650D-03 -0.24574230D-03
  0.14649378D-04  0.14761225D-03  0.26854880D-17  0.69803890D-05 -0.23068378D-03
 -0.70232714D-17  0.91101390D-04 -0.93684034D-04 -0.51148264D-18  0.66091927D-04
  0.22619140D-04  0.57584648D-05 -0.28377605D-04 -0.75881795D-19  0.18565776D-03
  0.20599327D-16 -0.73942619D-04  0.57554876D-04  0.16387743D-04  0.11410694D-18
  0.57197102D-04  0.18088587D-17 -0.25952154D-02 -0.48556580D-02 -0.83895014D-02
 -0.13600360D-01 -0.20653232D-01 -0.28705564D-01 -0.34126774D-01 -0.30397505D-01
 -0.15090232D-01 -0.24312781D-02 -0.37326596D-04 -0.66702260D-05 -0.24925594D-06
 -0.16899090D+00 -0.31565073D+00 -0.54782716D+00 -0.88890084D+00 -0.13759129D+01
 -0.19694944D+01 -0.25708053D+01 -0.27396221D+01 -0.20479231D+01 -0.10810622D+00
  0.13891113D+01  0.82529171D+00 -0.30942252D-02 -0.90581727D-03 -0.16905774D-02
 -0.29380748D-02 -0.47617549D-02 -0.73957508D-02 -0.10594627D-01 -0.13989217D-01
 -0.15126493D-01 -0.11859367D-01 -0.59011817D-03  0.10166476D-01  0.10524187D-01
 -0.47623436D-02  0.71112315D-01  0.11992152D-02 -0.94790392D-04 -0.62636086D-01
 -0.82505783D-01 -0.91023207D-01 -0.75605236D-01 -0.40155777D-01 -0.10357346D-01
  0.10647000D-04 -0.64734903D-16 -0.85270395D-16 -0.94073221D-16 -0.78138624D-16
 -0.41501321D-16 -0.10704401D-16  0.11003761D-19  0.16664994D-01  0.21951537D-01
  0.24217688D-01  0.20115573D-01  0.10683870D-01  0.27556817D-02 -0.28327471D-05
 -0.14534255D-01 -0.19082411D-01 -0.21726728D-01 -0.18397301D-01 -0.10538682D-01
 -0.23971846D-02  0.11220143D-02 -0.29441110D-16 -0.38654019D-16 -0.44010445D-16
 -0.37266237D-16 -0.21347535D-16 -0.48558237D-17  0.22727927D-17  0.49377322D-02
  0.64828805D-02  0.73812363D-02  0.62501278D-02  0.35803138D-02  0.81439718D-03
 -0.38118270D-03 -0.23741670D-02 -0.86682948D-17  0.72169745D-03 -0.21718247D-03
 -0.43391190D-18  0.16508713D-03  0.25316073D-05 -0.13777438D-18  0.36107967D-05
  0.15630093D-02 -0.87152851D-03 -0.69148077D-03  0.16582108D-16 -0.11434347D-02
  0.32981504D-17 -0.32146710D-03  0.17605301D-03  0.14541409D-03 -0.32752534D-17
  0.24370217D-03 -0.34285660D-18  0.56042274D-04 -0.46354998D-04 -0.96872759D-05
  0.81910229D-18 -0.98154009D-04  0.59264218D-19  0.15399017D-03 -0.60440030D-18
  0.64291958D-04 -0.38286243D-03  0.46663271D-18 -0.36103987D-03 -0.79108075D-04
  0.13465682D-17  0.16816400D-03  0.41288614D-18 -0.17995158D-04  0.15829564D-18
 -0.99311168D-05  0.80465919D-04 -0.96166500D-19  0.81935866D-04 -0.26480444D-04
 -0.37872043D-18 -0.52142515D-04 -0.30870342D-18
MO    4     MO 0.0        OCC NO =    2.0000000  ORB. ENERGY =   -7.322079
  0.20388541D-04  0.38001617D-04  0.64438152D-04  0.97530144D-04  0.12168914D-03
  0.10451475D-03  0.40125243D-04 -0.17948267D-06  0.86022347D-05  0.16133704D-04
  0.27504429D-04  0.42984069D-04  0.57477890D-04  0.61372986D-04  0.37522240D-04
 -0.24754895D-04  0.91247136D-04 -0.71000002D-03  0.64821668D-04 -0.14804125D-03
 -0.14355021D-03 -0.96838126D-04 -0.59553142D-15 -0.57746516D-15 -0.38955458D-15
  0.16251565D-03  0.15758551D-03  0.10630625D-03 -0.73698062D-03  0.12203359D-15
  0.10865034D-03 -0.76527090D-03  0.35243754D-17  0.30146813D-03 -0.50283504D-06
 -0.44104357D-19  0.13335844D-04 -0.12582571D-02  0.64443531D-03  0.61382182D-03
  0.15526735D-16  0.12969930D-02 -0.24051943D-16 -0.42516199D-04  0.33463070D-04
  0.90531290D-05 -0.91157134D-18 -0.34515172D-03 -0.18558692D-17 -0.11231568D-03
  0.23193223D-04  0.89122455D-04  0.36662067D-17 -0.92101041D-04 -0.15852146D-17
  0.14607802D-05  0.20989580D-17 -0.13420632D-03 -0.88990719D-04 -0.57635932D-17
  0.27111562D-03  0.84608378D-04 -0.53328077D-18  0.13150334D-03  0.34483260D-17
  0.17541209D-03 -0.24415301D-18  0.66096869D-04 -0.88333046D-04  0.32930470D-17
 -0.21885244D-03 -0.43790323D-03 -0.25605880D-17  0.20561832D-04 -0.12164633D-17
  0.23620743D-04  0.42600983D-04  0.62815124D-04 -0.31511758D-03 -0.25256983D-03
  0.52290580D-06  0.34165520D-03  0.64076470D-17 -0.14167429D-03  0.42984725D-03
  0.30012690D-17  0.97876040D-04  0.24119027D-04  0.59031617D-20  0.37510309D-04
 -0.16290172D-04  0.69022904D-04 -0.52732731D-04 -0.95404379D-19 -0.59928844D-03
 -0.49192629D-17 -0.74957215D-05 -0.62253157D-05  0.13721037D-04 -0.30105803D-18
 -0.50712055D-04 -0.79191108D-18 -0.72876404D-04 -0.13635203D-03 -0.23558611D-03
 -0.38191255D-03 -0.57996468D-03 -0.80608270D-03 -0.95831605D-03 -0.85359422D-03
 -0.42374973D-03 -0.68272871D-04 -0.10481704D-05 -0.18730703D-06 -0.69993713D-08
 -0.10745557D-02 -0.20071157D-02 -0.34834467D-02 -0.56522184D-02 -0.87489627D-02
 -0.12523345D-01 -0.16346877D-01 -0.17420326D-01 -0.13022047D-01 -0.68741073D-03
  0.88328867D-02  0.52477495D-02 -0.19675126D-04 -0.14415515D-03 -0.26904481D-03
 -0.46757620D-03 -0.75780346D-03 -0.11769874D-02 -0.16860685D-02 -0.22262963D-02
 -0.24072867D-02 -0.18873440D-02 -0.93913611D-04  0.16179310D-02  0.16748585D-02
 -0.75789716D-03  0.25943012D-03  0.94785915D-03 -0.44941745D-05  0.11143509D+02
  0.14678503D+02  0.16193827D+02  0.13450835D+02  0.71440651D+01  0.18426628D+01
 -0.18941947D-02  0.27299393D-13  0.35959427D-13  0.39671672D-13  0.32951884D-13
  0.17501546D-13  0.45141593D-14 -0.46404023D-17 -0.27523078D+01 -0.36254070D+01
 -0.39996733D+01 -0.33221884D+01 -0.17644950D+01 -0.45511472D+00  0.46784246D-03
  0.17851043D-01  0.23437110D-01  0.26684875D-01  0.22595656D-01  0.12943662D-01
  0.29442339D-02 -0.13780635D-02  0.63051278D-17  0.82781706D-17  0.94253062D-17
  0.79809622D-17  0.45718024D-17  0.10399264D-17 -0.48674280D-18 -0.46131472D-02
 -0.60567241D-02 -0.68960260D-02 -0.58392715D-02 -0.33449596D-02 -0.76086225D-03
  0.35612541D-03  0.94500536D-01  0.22144431D-15 -0.23365322D-01 -0.97195153D-04
 -0.17946383D-17  0.50675782D-04 -0.62671032D-05 -0.20272795D-18 -0.12123637D-05
 -0.20754956D-02  0.11640998D-02  0.91139582D-03 -0.81646036D-17  0.16774825D-02
  0.34836387D-17  0.39649691D-03 -0.22886726D-03 -0.16762964D-03  0.23469347D-19
 -0.32663072D-03 -0.79204405D-18  0.36405832D-04 -0.19416838D-04 -0.16988993D-04
  0.21496735D-17 -0.40343388D-04 -0.11971525D-18  0.40138570D-03 -0.19848575D-17
  0.17121982D-03 -0.68437552D-03  0.60411100D-17 -0.67300731D-03 -0.51978157D-03
 -0.86537509D-19  0.15934784D-03 -0.32478663D-17 -0.10387072D-03  0.64675730D-18
 -0.43792746D-04  0.18457648D-03 -0.19734072D-17  0.17365883D-03  0.12703569D-03
  0.33135258D-19 -0.42280590D-04  0.85597225D-18
MO    5     MO 0.0        OCC NO =    2.0000000  ORB. ENERGY =   -7.307555
 -0.54056079D-04 -0.10075358D-03 -0.17084468D-03 -0.25858138D-03 -0.32263407D-03
 -0.27709963D-03 -0.10638394D-03  0.47586188D-06  0.39349498D-04  0.73800959D-04
  0.12581446D-03  0.19662351D-03  0.26292309D-03  0.28074056D-03  0.17163928D-03
 -0.11323717D-03 -0.35850978D-04  0.46482348D-03  0.15298130D-03 -0.20060745D-04
 -0.19452175D-04 -0.13122322D-04 -0.95007373D-17 -0.92125193D-17 -0.62147111D-17
 -0.65674185D-04 -0.63681868D-04 -0.42959412D-04  0.19123946D-04  0.41432387D-16
  0.77604385D-04 -0.10591832D-03  0.42389018D-16  0.78216481D-03  0.20154824D-04
  0.20358515D-17  0.10806570D-04  0.99514399D-04  0.14390597D-03 -0.24342037D-03
 -0.39163410D-14  0.13478829D-03  0.34681667D-16 -0.55971888D-04 -0.11109811D-03
  0.16707000D-03 -0.68005766D-16  0.56535602D-04  0.12072869D-16 -0.77095139D-04
 -0.20318128D-04  0.97413267D-04  0.27607925D-16  0.24816495D-03  0.31412071D-17
  0.91879394D-04  0.31244811D-17 -0.14143048D-04  0.43663231D-04 -0.27527260D-17
 -0.61203947D-04 -0.31930141D-03 -0.66207174D-17  0.10363309D-03 -0.42574414D-16
  0.10865738D-04 -0.56253966D-17  0.29667517D-04 -0.96799900D-05  0.61114308D-17
  0.72006431D-04 -0.22917224D-04  0.10764759D-16 -0.16100898D-03  0.20343553D-17
 -0.94973833D-05 -0.17128922D-04 -0.25256585D-04 -0.10474041D-02 -0.24661761D-03
  0.22972889D-05 -0.83213597D-04  0.19464519D-16  0.21094173D-03 -0.50610655D-04
 -0.31721158D-16  0.22652449D-03 -0.43929655D-04 -0.52564667D-17  0.29076459D-04
 -0.34716734D-04  0.39855504D-04 -0.51387701D-05  0.13134304D-16 -0.21563447D-03
  0.20528922D-16  0.29128624D-04 -0.49914005D-04  0.20785381D-04 -0.49083755D-17
 -0.27688171D-04  0.12000962D-16  0.27859016D-05  0.52124326D-05  0.90059288D-05
  0.14599661D-04  0.22170750D-04  0.30814735D-04  0.36634275D-04  0.32630994D-04
  0.16199003D-04  0.26099189D-05  0.40069207D-07  0.71603278D-08  0.26757028D-09
  0.34131764D-04  0.63753234D-04  0.11064683D-03  0.17953484D-03  0.27789861D-03
  0.39778661D-03  0.51923578D-03  0.55333237D-03  0.41362718D-03  0.21834644D-04
 -0.28056434D-03 -0.16668745D-03  0.62495297D-06  0.45092993D-05  0.84159574D-05
  0.14626193D-04  0.23704756D-04  0.36817198D-04  0.52741699D-04  0.69640499D-04
  0.75302037D-04  0.59037773D-04  0.29377001D-05 -0.50610298D-04 -0.52391041D-04
  0.23707687D-04 -0.30215435D-04  0.19658985D-03 -0.22694380D-04  0.27552917D+01
  0.36293376D+01  0.40040096D+01  0.33257902D+01  0.17664080D+01  0.45560814D+00
 -0.46834968D-03  0.11381241D-11  0.14991649D-11  0.16539301D-11  0.13737790D-11
  0.72964742D-12  0.18819735D-12 -0.19346048D-15  0.11163160D+02  0.14704387D+02
  0.16222383D+02  0.13474554D+02  0.71566629D+01  0.18459121D+01 -0.18975349D-02
  0.43360080D-02  0.56928606D-02  0.64817406D-02  0.54884717D-02  0.31440079D-02
  0.71515272D-03 -0.33473083D-03  0.67907895D-15  0.89158088D-15  0.10151304D-14
  0.85957075D-15  0.49239522D-15  0.11200283D-15 -0.52423488D-16  0.94936393D-02
  0.12464452D-01  0.14191696D-01  0.12016945D-01  0.68837690D-02  0.15658186D-02
 -0.73288929D-03  0.22581174D-01  0.92513429D-14  0.91093317D-01 -0.39139726D-04
  0.78232192D-17  0.16106337D-03 -0.44476970D-06 -0.21640803D-17 -0.11777120D-04
 -0.73063880D-03 -0.59791414D-04  0.79043021D-03 -0.22550556D-15 -0.26646010D-02
  0.68195407D-16  0.14608963D-03  0.62408773D-05 -0.15233050D-03  0.13574608D-16
  0.43015077D-03 -0.87429256D-17  0.14752789D-04 -0.83001893D-05 -0.64526001D-05
  0.95668437D-17  0.56424944D-05 -0.91029029D-18  0.17073658D-03 -0.21517521D-16
 -0.12435478D-03 -0.47115612D-04  0.82833037D-16  0.55137902D-03 -0.46509413D-03
 -0.18280476D-16 -0.17831466D-03 -0.38460860D-16 -0.49849578D-04  0.41467452D-17
  0.33757759D-04  0.87532984D-05 -0.16666134D-16 -0.14890677D-03  0.14079543D-03
  0.42258987D-17  0.47633493D-04  0.81905232D-17
MO    6     MO 0.0        OCC NO =    2.0000000  ORB. ENERGY =   -7.307230
 -0.20420170D-16 -0.38060570D-16 -0.64538116D-16 -0.97681444D-16 -0.12187792D-15
 -0.10467688D-15 -0.40187490D-16  0.17976111D-18  0.15763658D-16  0.29565131D-16
  0.50402068D-16  0.78768621D-16  0.10532865D-15  0.11246645D-15  0.68759780D-16
 -0.45363527D-16 -0.28993357D-16  0.60623845D-16  0.60900280D-16  0.25491372D-15
  0.24718056D-15  0.16674655D-15  0.69110906D-05  0.67014331D-05  0.45207472D-05
  0.44027060D-15  0.42691438D-15  0.28799392D-15 -0.17248271D-15  0.36897346D-04
 -0.13407811D-15 -0.14936081D-16  0.19672934D-03  0.18879925D-16  0.13530053D-16
  0.53965093D-05 -0.83442048D-17  0.95293200D-16  0.12448491D-16 -0.10774169D-15
  0.95411772D-05 -0.83923432D-16 -0.83290538D-04 -0.44102363D-17  0.14147278D-16
 -0.97370412D-17  0.18798543D-03 -0.21294148D-15  0.28072469D-04  0.14457135D-16
 -0.16987847D-16  0.25307123D-17  0.14775606D-03 -0.35562168D-16 -0.20342167D-05
  0.32617893D-15  0.63455081D-04 -0.81362295D-16 -0.56039544D-15 -0.15120610D-03
 -0.39606782D-15 -0.41814135D-15 -0.39159140D-04  0.64015470D-15 -0.14872063D-03
  0.30137575D-16 -0.65153776D-04  0.71142477D-17  0.10709319D-15  0.17179137D-03
  0.19308445D-15 -0.19750591D-15  0.23669960D-04 -0.21442720D-15 -0.26149437D-04
  0.12242265D-16  0.22079429D-16  0.32556105D-16 -0.58743387D-16  0.18846127D-16
  0.61540878D-17 -0.77263774D-17  0.16911132D-04  0.22268353D-15  0.14645752D-15
 -0.10516875D-03 -0.54977839D-16  0.12373773D-16 -0.10668336D-04 -0.90928537D-17
 -0.57271972D-15  0.42179253D-15  0.15092719D-15  0.55907419D-05 -0.88988897D-16
  0.93314409D-04 -0.71889422D-17  0.16035263D-16 -0.88463207D-17 -0.41676865D-04
 -0.55669145D-16  0.18941646D-04 -0.91601580D-17 -0.17138691D-16 -0.29611861D-16
 -0.48004280D-16 -0.72898329D-16 -0.10132011D-15 -0.12045499D-15 -0.10729204D-15
 -0.53262981D-16 -0.85815196D-17 -0.13174918D-18 -0.23543450D-19 -0.87978198D-21
  0.79797866D-17  0.14905095D-16  0.25868516D-16  0.41974089D-16  0.64970905D-16
  0.92999947D-16  0.12139398D-15  0.12936554D-15  0.96703370D-16  0.51047991D-17
 -0.65594135D-16 -0.38970452D-16  0.14610998D-18  0.22792833D-17  0.42539539D-17
  0.73929975D-17  0.11981874D-16  0.18609726D-16  0.26658970D-16  0.35200686D-16
  0.38062383D-16  0.29841402D-16  0.14848983D-17 -0.25581626D-16 -0.26481725D-16
  0.11983355D-16  0.98896431D-16 -0.51551930D-16 -0.73127186D-16 -0.30043248D-12
 -0.39573700D-12 -0.43659062D-12 -0.36263869D-12 -0.19260622D-12 -0.49678762D-13
  0.51068078D-16  0.11499942D+02  0.15148004D+02  0.16711798D+02  0.13881069D+02
  0.73725729D+01  0.19016016D+01 -0.19547818D-02 -0.11001797D-11 -0.14491836D-11
 -0.15987890D-11 -0.13279780D-11 -0.70532140D-12 -0.18192296D-12  0.18701062D-15
  0.53037144D-15  0.69633882D-15  0.79283297D-15  0.67133840D-15  0.38456848D-15
  0.87475987D-16 -0.40943576D-16  0.89863016D-02  0.11798355D-01  0.13433295D-01
  0.11374763D-01  0.65159021D-02  0.14821417D-02 -0.69372387D-03  0.77059261D-15
  0.10117316D-14  0.11519309D-14  0.97540775D-15  0.55875111D-15  0.12709649D-15
 -0.59488154D-16 -0.23030585D-14  0.93652089D-01 -0.87450615D-14  0.48157062D-16
  0.16132567D-03 -0.17459963D-16  0.22057501D-17 -0.14248723D-04  0.15047663D-17
  0.17452850D-15 -0.35188073D-16 -0.13934043D-15 -0.27243106D-02  0.20394452D-15
  0.75711942D-03 -0.34989372D-16  0.29636462D-17  0.32025726D-16  0.36991706D-03
  0.61175201D-16 -0.10197906D-03 -0.16658791D-17  0.20248988D-17 -0.35901964D-18
  0.16613552D-04 -0.61469599D-17  0.53243533D-06 -0.98595176D-16 -0.16933751D-03
  0.70675660D-16 -0.76734744D-17  0.63635060D-03 -0.46772015D-15  0.30345900D-15
 -0.12833807D-03  0.25569317D-15 -0.36898158D-03  0.89576275D-17  0.40287139D-04
 -0.45335021D-17  0.27899610D-16 -0.15893473D-03  0.34330208D-16 -0.54772492D-16
  0.38073318D-04 -0.20729702D-16  0.88509046D-04
MO    7     MO 0.0        OCC NO =    2.0000000  ORB. ENERGY =   -1.102978
 -0.77606276D-02 -0.14464811D-01 -0.24527527D-01 -0.37123555D-01 -0.46319358D-01
 -0.39782151D-01 -0.15273141D-01  0.68317698D-04 -0.89286363D-01 -0.16745879D+00
 -0.28548052D+00 -0.44615048D+00 -0.59658820D+00 -0.63701711D+00 -0.38945977D+00
  0.25694190D+00  0.14103035D+00  0.68446122D-01  0.46199045D-02  0.20903567D+00
  0.20269428D+00  0.13673636D+00 -0.16437417D-14 -0.15938765D-14 -0.10752197D-14
  0.19061665D+00  0.18483403D+00  0.12468795D+00  0.55887567D-01 -0.83017009D-16
  0.41591968D-01  0.62292987D-02  0.24569285D-17  0.25552487D-02  0.18938094D-03
 -0.51815612D-17  0.59662782D-04  0.89871728D-02 -0.25069650D-01  0.16082477D-01
 -0.31383236D-15 -0.32422679D-02 -0.16421891D-14  0.81288000D-02 -0.89889685D-02