 Molden2AIM, Version 4.0.0 (06/02/2016)           Time: Fri Jun 29 20:18:03 2018
GAUSSIAN             11 MOL ORBITALS    252 PRIMITIVES        4 NUCLEI
  H    1    (CENTRE  1)   1.65684195 -2.62112761  0.00000000  CHARGE =  1.0
  O    2    (CENTRE  2)  -0.08382447 -2.04867288  0.00000000  CHARGE =  8.0
  N    3    (CENTRE  3)   0.02457778  0.44175561  0.00000000  CHARGE =  7.0
  C    4    (CENTRE  4)  -0.18662368  2.66047738  0.00000000  CHARGE =  6.0
CENTRE ASSIGNMENTS    1  1  1  1  1  1  1  1  1  1  1  1  1  1  1  1  1  1  1  1
CENTRE ASSIGNMENTS    1  1  1  1  1  1  1  2  2  2  2  2  2  2  2  2  2  2  2  2
CENTRE ASSIGNMENTS    2  2  2  2  2  2  2  2  2  2  2  2  2  2  2  2  2  2  2  2
CENTRE ASSIGNMENTS    2  2  2  2  2  2  2  2  2  2  2  2  2  2  2  2  2  2  2  2
CENTRE ASSIGNMENTS    2  2  2  2  2  2  2  2  2  2  2  2  2  2  2  2  2  2  2  2
CENTRE ASSIGNMENTS    2  2  3  3  3  3  3  3  3  3  3  3  3  3  3  3  3  3  3  3
CENTRE ASSIGNMENTS    3  3  3  3  3  3  3  3  3  3  3  3  3  3  3  3  3  3  3  3
CENTRE ASSIGNMENTS    3  3  3  3  3  3  3  3  3  3  3  3  3  3  3  3  3  3  3  3
CENTRE ASSIGNMENTS    3  3  3  3  3  3  3  3  3  3  3  3  3  3  3  3  3  4  4  4
CENTRE ASSIGNMENTS    4  4  4  4  4  4  4  4  4  4  4  4  4  4  4  4  4  4  4  4
CENTRE ASSIGNMENTS    4  4  4  4  4  4  4  4  4  4  4  4  4  4  4  4  4  4  4  4
CENTRE ASSIGNMENTS    4  4  4  4  4  4  4  4  4  4  4  4  4  4  4  4  4  4  4  4
CENTRE ASSIGNMENTS    4  4  4  4  4  4  4  4  4  4  4  4
TYPE ASSIGNMENTS      1  1  1  1  1  1  2  3  4  2  3  4  2  3  4  5  6  7  8  9
TYPE ASSIGNMENTS     10  5  6  7  8  9 10  1  1  1  1  1  1  1  1  1  1  1  1  1
TYPE ASSIGNMENTS      1  1  1  1  1  1  2  2  2  3  3  3  4  4  4  2  3  4  2  3
TYPE ASSIGNMENTS      4  2  3  4  5  6  7  8  9 10  5  6  7  8  9 10  5  6  7  8
TYPE ASSIGNMENTS      9 10 11 12 13 17 14 15 18 19 16 20 11 12 13 17 14 15 18 19
TYPE ASSIGNMENTS     16 20  1  1  1  1  1  1  1  1  1  1  1  1  1  1  1  1  1  1
TYPE ASSIGNMENTS      1  2  2  2  3  3  3  4  4  4  2  3  4  2  3  4  2  3  4  5
TYPE ASSIGNMENTS      6  7  8  9 10  5  6  7  8  9 10  5  6  7  8  9 10 11 12 13
TYPE ASSIGNMENTS     17 14 15 18 19 16 20 11 12 13 17 14 15 18 19 16 20  1  1  1
TYPE ASSIGNMENTS      1  1  1  1  1  1  1  1  1  1  1  1  1  1  1  1  2  2  2  3
TYPE ASSIGNMENTS      3  3  4  4  4  2  3  4  2  3  4  2  3  4  5  6  7  8  9 10
TYPE ASSIGNMENTS      5  6  7  8  9 10  5  6  7  8  9 10 11 12 13 17 14 15 18 19
TYPE ASSIGNMENTS     16 20 11 12 13 17 14 15 18 19 16 20
EXPONENTS  0.3387000D+02 0.5095000D+01 0.1159000D+01 0.3258000D+00 0.1027000D+00
EXPONENTS  0.2526000D-01 0.1407000D+01 0.1407000D+01 0.1407000D+01 0.3880000D+00
EXPONENTS  0.3880000D+00 0.3880000D+00 0.1020000D+00 0.1020000D+00 0.1020000D+00
EXPONENTS  0.1057000D+01 0.1057000D+01 0.1057000D+01 0.1057000D+01 0.1057000D+01
EXPONENTS  0.1057000D+01 0.2470000D+00 0.2470000D+00 0.2470000D+00 0.2470000D+00
EXPONENTS  0.2470000D+00 0.2470000D+00 0.1533000D+05 0.2299000D+04 0.5224000D+03
EXPONENTS  0.1473000D+03 0.4755000D+02 0.1676000D+02 0.6207000D+01 0.6882000D+00
EXPONENTS  0.1533000D+05 0.2299000D+04 0.5224000D+03 0.1473000D+03 0.4755000D+02
EXPONENTS  0.1676000D+02 0.6207000D+01 0.6882000D+00 0.1752000D+01 0.2384000D+00
EXPONENTS  0.7376000D-01 0.3446000D+02 0.7749000D+01 0.2280000D+01 0.3446000D+02
EXPONENTS  0.7749000D+01 0.2280000D+01 0.3446000D+02 0.7749000D+01 0.2280000D+01
EXPONENTS  0.7156000D+00 0.7156000D+00 0.7156000D+00 0.2140000D+00 0.2140000D+00
EXPONENTS  0.2140000D+00 0.5974000D-01 0.5974000D-01 0.5974000D-01 0.2314000D+01
EXPONENTS  0.2314000D+01 0.2314000D+01 0.2314000D+01 0.2314000D+01 0.2314000D+01
EXPONENTS  0.6450000D+00 0.6450000D+00 0.6450000D+00 0.6450000D+00 0.6450000D+00
EXPONENTS  0.6450000D+00 0.2140000D+00 0.2140000D+00 0.2140000D+00 0.2140000D+00
EXPONENTS  0.2140000D+00 0.2140000D+00 0.1428000D+01 0.1428000D+01 0.1428000D+01
EXPONENTS  0.1428000D+01 0.1428000D+01 0.1428000D+01 0.1428000D+01 0.1428000D+01
EXPONENTS  0.1428000D+01 0.1428000D+01 0.5000000D+00 0.5000000D+00 0.5000000D+00
EXPONENTS  0.5000000D+00 0.5000000D+00 0.5000000D+00 0.5000000D+00 0.5000000D+00
EXPONENTS  0.5000000D+00 0.5000000D+00 0.1142000D+05 0.1712000D+04 0.3893000D+03
EXPONENTS  0.1100000D+03 0.3557000D+02 0.1254000D+02 0.4644000D+01 0.5118000D+00
EXPONENTS  0.1142000D+05 0.1712000D+04 0.3893000D+03 0.1100000D+03 0.3557000D+02
EXPONENTS  0.1254000D+02 0.4644000D+01 0.5118000D+00 0.1293000D+01 0.1787000D+00
EXPONENTS  0.5760000D-01 0.2663000D+02 0.5948000D+01 0.1742000D+01 0.2663000D+02
EXPONENTS  0.5948000D+01 0.1742000D+01 0.2663000D+02 0.5948000D+01 0.1742000D+01
EXPONENTS  0.5550000D+00 0.5550000D+00 0.5550000D+00 0.1725000D+00 0.1725000D+00
EXPONENTS  0.1725000D+00 0.4910000D-01 0.4910000D-01 0.4910000D-01 0.1654000D+01
EXPONENTS  0.1654000D+01 0.1654000D+01 0.1654000D+01 0.1654000D+01 0.1654000D+01
EXPONENTS  0.4690000D+00 0.4690000D+00 0.4690000D+00 0.4690000D+00 0.4690000D+00
EXPONENTS  0.4690000D+00 0.1510000D+00 0.1510000D+00 0.1510000D+00 0.1510000D+00
EXPONENTS  0.1510000D+00 0.1510000D+00 0.1093000D+01 0.1093000D+01 0.1093000D+01
EXPONENTS  0.1093000D+01 0.1093000D+01 0.1093000D+01 0.1093000D+01 0.1093000D+01
EXPONENTS  0.1093000D+01 0.1093000D+01 0.3640000D+00 0.3640000D+00 0.3640000D+00
EXPONENTS  0.3640000D+00 0.3640000D+00 0.3640000D+00 0.3640000D+00 0.3640000D+00
EXPONENTS  0.3640000D+00 0.3640000D+00 0.8236000D+04 0.1235000D+04 0.2808000D+03
EXPONENTS  0.7927000D+02 0.2559000D+02 0.8997000D+01 0.3319000D+01 0.3643000D+00
EXPONENTS  0.8236000D+04 0.1235000D+04 0.2808000D+03 0.7927000D+02 0.2559000D+02
EXPONENTS  0.8997000D+01 0.3319000D+01 0.3643000D+00 0.9059000D+00 0.1285000D+00
EXPONENTS  0.4402000D-01 0.1871000D+02 0.4133000D+01 0.1200000D+01 0.1871000D+02
EXPONENTS  0.4133000D+01 0.1200000D+01 0.1871000D+02 0.4133000D+01 0.1200000D+01
EXPONENTS  0.3827000D+00 0.3827000D+00 0.3827000D+00 0.1209000D+00 0.1209000D+00
EXPONENTS  0.1209000D+00 0.3569000D-01 0.3569000D-01 0.3569000D-01 0.1097000D+01
EXPONENTS  0.1097000D+01 0.1097000D+01 0.1097000D+01 0.1097000D+01 0.1097000D+01
EXPONENTS  0.3180000D+00 0.3180000D+00 0.3180000D+00 0.3180000D+00 0.3180000D+00
EXPONENTS  0.3180000D+00 0.1000000D+00 0.1000000D+00 0.1000000D+00 0.1000000D+00
EXPONENTS  0.1000000D+00 0.1000000D+00 0.7610000D+00 0.7610000D+00 0.7610000D+00
EXPONENTS  0.7610000D+00 0.7610000D+00 0.7610000D+00 0.7610000D+00 0.7610000D+00
EXPONENTS  0.7610000D+00 0.7610000D+00 0.2680000D+00 0.2680000D+00 0.2680000D+00
EXPONENTS  0.2680000D+00 0.2680000D+00 0.2680000D+00 0.2680000D+00 0.2680000D+00
EXPONENTS  0.2680000D+00 0.2680000D+00
MO    1     MO 0.0        OCC NO =    2.0000000  ORB. ENERGY =  -19.342859
  0.18724811D-03  0.33770968D-03  0.49795273D-03 -0.19539729D-03 -0.75521036D-04
 -0.24723338D-04  0.38939467D-03 -0.42774016D-03  0.16996946D-17  0.40905217D-03
 -0.30158152D-03 -0.62638586D-18  0.19323774D-04 -0.48267277D-04 -0.43278107D-19
 -0.14549864D-02  0.56151325D-03  0.89347316D-03  0.19993751D-02  0.13621016D-17
 -0.40214589D-18  0.11410060D-05 -0.60647084D-05  0.49237024D-05  0.78798187D-04
  0.16685354D-18 -0.30669654D-19  0.49725187D+00  0.92681351D+00  0.15715686D+01
  0.23786423D+01  0.29678511D+01  0.25489883D+01  0.97860617D+00 -0.43773654D-02
 -0.41026358D-04 -0.76945951D-04 -0.13117598D-03 -0.20500252D-03 -0.27412743D-03
 -0.29270419D-03 -0.17895360D-03  0.11806272D-03  0.54347504D-01 -0.60428448D-03
 -0.92981005D-03  0.65598897D-02  0.63608864D-02  0.42910164D-02  0.82219850D-02
  0.79725597D-02  0.53782417D-02 -0.28161901D-16 -0.27307571D-16 -0.18421526D-16
  0.34019207D-03 -0.19438456D-02  0.40262224D-17 -0.11900899D-03 -0.13055288D-02
 -0.19843451D-18 -0.15391133D-05 -0.76819136D-04  0.54343669D-20  0.60984932D-03
  0.23172173D-02 -0.29270666D-02 -0.23364041D-02 -0.32599487D-17 -0.98525806D-18
  0.92868029D-03 -0.18958969D-02  0.96721660D-03  0.10416264D-03  0.86000313D-18
  0.72940849D-18  0.12910055D-03 -0.31723747D-03  0.18813693D-03  0.52991176D-04
  0.11035868D-18 -0.18534062D-18  0.70986062D-03 -0.14045637D-03 -0.40418912D-18
 -0.95979846D-03 -0.65999006D-03 -0.74335540D-19 -0.11697834D-02  0.10813592D-02
  0.12869029D-17 -0.48148564D-18 -0.78781271D-04 -0.49944594D-03 -0.11653109D-18
 -0.40338747D-04  0.10224309D-02  0.26700558D-18  0.27668256D-03  0.47590696D-03
  0.82587685D-19 -0.28867031D-18  0.12559873D-03  0.23403474D-03  0.39581141D-03
  0.59607006D-03  0.73797340D-03  0.62798205D-03  0.23895876D-03 -0.11191458D-05
 -0.82076103D-04 -0.15389346D-03 -0.26181857D-03 -0.40657659D-03 -0.53955078D-03
 -0.56861246D-03 -0.35257600D-03  0.23453369D-03 -0.53987148D-03  0.25495811D-02
  0.74570752D-03 -0.10277338D-03 -0.98712602D-04 -0.69224090D-04  0.13021268D-02
  0.12506772D-02  0.87706119D-03  0.36489046D-18  0.35047293D-18  0.24577581D-18
  0.66169528D-04 -0.45057650D-02  0.17704045D-19  0.71158259D-04  0.72377762D-03
  0.11890773D-18  0.31989413D-05 -0.62138122D-04  0.21123565D-21 -0.39377772D-03
  0.75368767D-03 -0.35990994D-03  0.48687431D-03  0.12448608D-18 -0.98859103D-18
 -0.46830284D-03  0.92153020D-03 -0.45322736D-03  0.34860119D-03 -0.51818632D-19
  0.65012176D-18 -0.22641101D-04  0.54773893D-04 -0.32132792D-04 -0.66091209D-06
 -0.30179221D-19 -0.18695078D-18  0.53580791D-04 -0.11119218D-02  0.18209511D-18
 -0.16581403D-03  0.15992538D-02  0.15808254D-18  0.50716625D-05  0.17365115D-02
 -0.70436788D-18  0.30278566D-19 -0.15612459D-04  0.26765650D-03  0.89804062D-19
  0.80231396D-04 -0.34886669D-03  0.82262894D-19 -0.33394019D-04 -0.45410281D-03
 -0.35167508D-18 -0.11538324D-18 -0.23863356D-03 -0.44486721D-03 -0.75190396D-03
 -0.11303579D-02 -0.13887753D-02 -0.11730428D-02 -0.44242858D-03  0.21896037D-05
  0.17470680D-03  0.32710626D-03  0.55692640D-03  0.86148046D-03  0.11345395D-02
  0.11788592D-02  0.74911208D-03 -0.50203749D-03 -0.91836054D-03 -0.80437537D-03
 -0.54263539D-04  0.19614770D-04  0.18390094D-04  0.13094842D-04  0.52149297D-03
  0.48893280D-03  0.34814928D-03  0.47187655D-19  0.44241426D-19  0.31502531D-19
 -0.28685357D-03 -0.55788077D-03  0.25312318D-18 -0.75680666D-04  0.11809559D-03
  0.39615415D-19 -0.15624283D-06  0.99122282D-05 -0.15813158D-20 -0.36895785D-03
  0.74967127D-03 -0.38071342D-03 -0.33641077D-04  0.32156991D-20 -0.54661831D-18
 -0.24205084D-03  0.40867545D-03 -0.16662461D-03  0.91775666D-04  0.92493862D-19
  0.13938723D-18 -0.25418041D-05  0.38157540D-05 -0.12739499D-05  0.11996011D-04
  0.77014409D-20  0.11259405D-19 -0.32185196D-04 -0.28525785D-03 -0.20720853D-19
  0.11932743D-03  0.47156443D-03 -0.20308876D-19 -0.22771844D-04  0.38420911D-03
  0.82471434D-19 -0.10746019D-18 -0.21429798D-05 -0.44673301D-04  0.25140970D-19
  0.38261455D-06  0.79749480D-04  0.35461094D-19  0.60463248D-05  0.54270423D-04
 -0.11088400D-18 -0.35706123D-19
MO    2     MO 0.0        OCC NO =    2.0000000  ORB. ENERGY =  -14.489777
  0.15832972D-04  0.28555417D-04  0.42104946D-04  0.23577896D-03  0.54314605D-03
 -0.10795816D-04 -0.47136005D-04 -0.35444480D-03 -0.72914727D-16 -0.17089097D-03
 -0.68315404D-03  0.42524726D-16 -0.13888565D-03 -0.91952600D-04 -0.35709791D-17
  0.34295170D-03 -0.45330403D-03  0.11035233D-03  0.65325288D-03 -0.85320033D-17
  0.62364644D-17  0.49433521D-04 -0.75833192D-04  0.26399671D-04  0.81781405D-04
  0.67682682D-17 -0.32906777D-17  0.11638762D-03  0.21693155D-03  0.36784404D-03
  0.55674909D-03  0.69466030D-03  0.59662056D-03  0.22905423D-03 -0.10245736D-05
 -0.92350565D-04 -0.17320577D-03 -0.29527787D-03 -0.46146184D-03 -0.61706241D-03
 -0.65887879D-03 -0.40282557D-03  0.26575985D-03 -0.53900542D-03  0.12936690D-02
 -0.68303221D-03  0.18884500D-04  0.18311613D-04  0.12352906D-04 -0.11454390D-02
 -0.11106905D-02 -0.74926526D-03  0.42151340D-17  0.40872621D-17  0.27572429D-17
 -0.84852828D-04  0.22479800D-02 -0.10868476D-17 -0.13500992D-04  0.85000654D-03
  0.10253596D-16 -0.64340939D-04  0.55459785D-04  0.10180319D-17 -0.10751152D-02
  0.17615015D-02 -0.68638635D-03 -0.92256023D-04  0.10983458D-16  0.12470151D-16
 -0.21808156D-03  0.67943002D-03 -0.46134846D-03  0.31313544D-03 -0.52422781D-17
 -0.53089996D-17 -0.24681192D-04  0.34397016D-04 -0.97158237D-05  0.27639582D-03
  0.72704382D-17 -0.16398870D-17  0.46183349D-04  0.59104925D-03  0.30853839D-17
 -0.61665555D-04 -0.11494384D-02  0.17045104D-17 -0.76884491D-04 -0.62370935D-03
 -0.10960662D-16 -0.14415086D-16  0.68883054D-04 -0.15725516D-03  0.38333493D-18
 -0.15498613D-03  0.50672257D-03 -0.87939363D-18 -0.51663037D-04 -0.34957074D-04
 -0.27061114D-18  0.36211323D-17  0.41164273D+00  0.76703561D+00  0.12972495D+01
  0.19535859D+01  0.24186661D+01  0.20581757D+01  0.78317380D+00 -0.36679370D-02
 -0.11164007D-02 -0.20932618D-02 -0.35612612D-02 -0.55302626D-02 -0.73389801D-02
 -0.77342776D-02 -0.47957455D-02  0.31901318D-02  0.43807357D-01  0.26832171D-02
 -0.25084906D-03 -0.36874578D-03 -0.35417591D-03 -0.24837260D-03 -0.68345525D-02
 -0.65645060D-02 -0.46034847D-02 -0.18980033D-18 -0.18230095D-18 -0.12784201D-18
 -0.47227915D-03  0.75954875D-02  0.38532416D-17  0.32178125D-03 -0.20630554D-03
  0.32384445D-17  0.72389763D-04 -0.19488407D-03  0.10764355D-18 -0.28571957D-02
  0.58717629D-02 -0.30145672D-02 -0.13456549D-02  0.44125485D-17 -0.26447436D-17
  0.21941804D-03 -0.52787368D-03  0.30845564D-03  0.69513054D-04 -0.11546582D-17
  0.12450987D-17  0.16915292D-03 -0.30778373D-03  0.13863082D-03  0.17398212D-03
  0.84862692D-18  0.27065378D-18  0.18951573D-03  0.19979925D-02  0.23464025D-17
 -0.89355071D-03 -0.27000901D-02 -0.18064456D-18  0.32500353D-03 -0.32938875D-02
 -0.68585630D-17 -0.68241822D-17 -0.89065023D-04 -0.15668616D-03 -0.12527029D-17
  0.40279230D-03  0.21207089D-03 -0.37269547D-18 -0.13559723D-03  0.25798759D-03
  0.41308041D-17  0.34597426D-17 -0.18925206D-03 -0.35280887D-03 -0.59630915D-03
 -0.89644797D-03 -0.11013899D-02 -0.93029985D-03 -0.35087488D-03  0.17364993D-05
  0.14849121D-03  0.27802240D-03  0.47335692D-03  0.73221118D-03  0.96429636D-03
  0.10019657D-02  0.63670421D-03 -0.42670436D-03  0.16493749D-02 -0.15913317D-02
  0.16319163D-03  0.23296702D-03  0.21842139D-03  0.15552904D-03 -0.18894796D-02
 -0.17715072D-02 -0.12614187D-02  0.33528710D-17  0.31435297D-17  0.22383804D-17
 -0.72804896D-03  0.37769356D-02 -0.50072817D-17 -0.28659000D-03  0.12747964D-02
 -0.79716506D-18 -0.11963487D-04  0.10551384D-04 -0.60957003D-19  0.13619051D-02
 -0.27449056D-02  0.13830005D-02  0.10146567D-02  0.23373234D-17  0.36952841D-17
  0.77213490D-03 -0.16233508D-02  0.85121585D-03  0.69045631D-03 -0.22720915D-17
  0.19952421D-17  0.47886544D-04 -0.10645212D-03  0.58565571D-04  0.57333001D-04
 -0.22820329D-18  0.23200326D-18  0.24469237D-03  0.14976838D-02 -0.30532067D-18
 -0.99081432D-03 -0.21863952D-02  0.12890655D-17  0.25673722D-03 -0.23066563D-02
 -0.37310344D-18 -0.42244153D-17  0.22414506D-04  0.14923787D-03  0.63332338D-19
 -0.98651165D-04 -0.20443025D-03 -0.11837837D-18  0.31407646D-04 -0.24328334D-03
 -0.71618641D-19  0.24936901D-17
MO    3     MO 0.0        OCC NO =    2.0000000  ORB. ENERGY =  -10.281836
 -0.15466105D-04 -0.27893757D-04 -0.41129328D-04 -0.52550348D-03 -0.81559272D-03
 -0.67752176D-04  0.34478939D-03  0.14106195D-04 -0.54617018D-16  0.51573379D-03
 -0.96846327D-03  0.13032873D-16  0.11729213D-03 -0.17681426D-03 -0.25874996D-17
 -0.14768425D-03  0.12146868D-05  0.14646956D-03  0.69613550D-03 -0.10906655D-17
 -0.84355354D-16  0.14042272D-04 -0.12415096D-03  0.11010869D-03 -0.80818846D-05
  0.27857036D-17 -0.87188925D-18 -0.47983042D-03 -0.89434216D-03 -0.15165080D-02
 -0.22953055D-02 -0.28638710D-02 -0.24596833D-02 -0.94432024D-03  0.42240024D-05
  0.34787673D-03  0.65245143D-03  0.11122867D-02  0.17382875D-02  0.23244217D-02
  0.24819404D-02  0.15174097D-02 -0.10010948D-02 -0.43852236D-03 -0.26754737D-02
  0.44107759D-03  0.12411686D-04  0.12035160D-04  0.81188478D-05 -0.14483422D-03
 -0.14044047D-03 -0.94740312D-04 -0.43016752D-17 -0.41711780D-17 -0.28138520D-17
  0.10980187D-03 -0.73014578D-03  0.12766080D-17 -0.39821076D-03  0.33193066D-03
  0.24741040D-17  0.15803522D-05  0.91577609D-04  0.10983805D-17  0.21077430D-03
 -0.72380339D-03  0.51302910D-03  0.71924590D-03  0.10740328D-17  0.47604014D-17
  0.38780148D-04  0.48451003D-03 -0.52329018D-03 -0.96605072D-03  0.63608576D-18
 -0.19538417D-17 -0.23573688D-03  0.47063689D-03 -0.23490000D-03 -0.89942152D-04
  0.21294797D-17 -0.18271232D-17  0.23758294D-03 -0.17791718D-03 -0.92741787D-17
 -0.72238721D-03 -0.40448672D-03  0.26233790D-16  0.96383992D-05  0.93823826D-03
  0.15887457D-17  0.61151280D-17  0.10402912D-03  0.17926549D-03  0.55427153D-19
 -0.23726803D-03 -0.10189876D-03  0.13944226D-17 -0.74819325D-04 -0.43589770D-03
 -0.15607040D-17 -0.62887602D-17 -0.19706726D-03 -0.36720581D-03 -0.62103709D-03
 -0.93524744D-03 -0.11578970D-02 -0.98531809D-03 -0.37493171D-03  0.17559652D-05
 -0.41140103D-04 -0.77138077D-04 -0.13123482D-03 -0.20379382D-03 -0.27044625D-03
 -0.28501322D-03 -0.17672638D-03  0.11755846D-03  0.18185429D-02 -0.12323414D-01
 -0.29557603D-02 -0.59013634D-03 -0.56681890D-03 -0.39749254D-03  0.31451825D-02
  0.30209102D-02  0.21184707D-02 -0.44362936D-17 -0.42610070D-17 -0.29881122D-17
  0.50224019D-03 -0.22036744D-02  0.10659451D-17  0.14007742D-02 -0.89112634D-02
 -0.88986387D-18  0.66646992D-04 -0.29109827D-03 -0.23525489D-18 -0.17213389D-03
  0.43752248D-03 -0.26538859D-03  0.12924235D-03 -0.63912094D-17 -0.99516904D-18
  0.19448098D-02 -0.40563157D-02  0.21115060D-02  0.79265642D-03  0.32965292D-17
 -0.31277926D-17  0.41895594D-04 -0.20793972D-04 -0.21101622D-04 -0.19063152D-04
  0.10020822D-18 -0.84692183D-18 -0.18935273D-03 -0.57287627D-03  0.12654292D-17
  0.50327571D-03  0.11650502D-02 -0.17244518D-17  0.64782481D-04  0.55357865D-03
 -0.20718358D-17  0.14348567D-17 -0.22219758D-03 -0.11180749D-02  0.16873442D-19
  0.97894637D-03  0.15823572D-02 -0.49784431D-18 -0.31235362D-03  0.17718674D-02
  0.44722398D-18 -0.62581224D-18  0.32879673D+00  0.61295186D+00  0.10359966D+01
  0.15574423D+01  0.19134978D+01  0.16162548D+01  0.60959183D+00 -0.30169040D-02
 -0.23616036D-02 -0.44216671D-02 -0.75282666D-02 -0.11645084D-01 -0.15336166D-01
 -0.15935258D-01 -0.10126141D-01  0.67863044D-02  0.36633656D-01  0.10520721D-01
  0.14952634D-02  0.94450131D-03  0.88553002D-03  0.63055013D-03 -0.88804729D-02
 -0.83260078D-02 -0.59286135D-02 -0.14291622D-16 -0.13399304D-16 -0.95411027D-17
  0.26467497D-03 -0.61676701D-02  0.30880391D-17  0.14375637D-03 -0.26617202D-02
  0.10192314D-17  0.13799131D-05 -0.79561642D-04  0.62968584D-19 -0.23087109D-02
  0.47672891D-02 -0.24585782D-02 -0.12623253D-02 -0.22453660D-17 -0.18723213D-17
 -0.86041144D-04  0.12840809D-03 -0.42366950D-04  0.15030498D-03  0.92246834D-19
 -0.20746503D-17 -0.47212955D-04  0.84993591D-04 -0.37780636D-04 -0.62190712D-05
  0.23578646D-19 -0.90254537D-19 -0.89624884D-04 -0.72491578D-03 -0.73631221D-18
  0.35974148D-03  0.10088016D-02 -0.39108200D-18 -0.90866827D-04  0.11659457D-02
  0.26000186D-17  0.12441217D-18  0.17011321D-04  0.13783333D-03 -0.83014499D-19
 -0.82239676D-04 -0.18566180D-03 -0.12736044D-18  0.31205714D-04 -0.22783819D-03
  0.37640393D-18  0.26835201D-18
MO    4     MO 0.0        OCC NO =    2.0000000  ORB. ENERGY =   -1.211512
  0.18152357D-01  0.32738524D-01  0.48272934D-01  0.19996884D-01  0.11972904D-03
 -0.12876265D-03 -0.21890699D-01  0.11641348D-01 -0.11093692D-15 -0.44642117D-02
  0.50139211D-02  0.64311527D-16  0.64656443D-04  0.13575791D-03 -0.96757187D-17
  0.25064490D-02 -0.21197203D-03 -0.22944769D-02 -0.84078048D-02  0.18600377D-16
  0.16666207D-15 -0.16658518D-03  0.25863875D-03 -0.92053562D-04 -0.65628319D-03
 -0.22993595D-16  0.11892159D-16 -0.77723367D-02 -0.14486636D-01 -0.24564534D-01
 -0.37179566D-01 -0.46389243D-01 -0.39842173D-01 -0.15296185D-01  0.68420774D-04
 -0.84683181D-01 -0.15882540D+00 -0.27076250D+00 -0.42314908D+00 -0.56583094D+00
 -0.60417553D+00 -0.36938107D+00  0.24369520D+00  0.13261657D+00  0.63534749D-01
  0.18648287D-02  0.19705747D+00  0.19107946D+00  0.12890108D+00  0.28463719D+00
  0.27600233D+00  0.18618954D+00 -0.58623591D-15 -0.56845164D-15 -0.38347412D-15
  0.46787587D-01  0.71734180D-01 -0.13284883D-15  0.19887593D-02  0.77599521D-02
 -0.50934487D-16  0.37991591D-05  0.12414128D-03 -0.18927749D-18  0.87609521D-03
  0.32494022D-01 -0.33370117D-01 -0.66302127D-03 -0.89728234D-16  0.20950704D-18
 -0.28368816D-02  0.12453416D-01 -0.96165345D-02  0.15949269D-02 -0.14831463D-16
  0.30648662D-17 -0.54720851D-03  0.56554946D-03 -0.18340949D-04  0.22651439D-03
 -0.20914812D-16  0.61927923D-17  0.11711658D-02  0.13132003D-01 -0.22989041D-16
  0.27677750D-02 -0.19823473D-01  0.43830290D-16 -0.62812725D-02 -0.19572535D-01
  0.25136834D-16 -0.11953018D-16 -0.60158567D-03  0.89674837D-03  0.18402729D-17
  0.20301927D-02 -0.15759320D-02 -0.77388242D-17 -0.22543573D-03 -0.11143131D-02
  0.22180054D-17  0.86962572D-17 -0.61656379D-02 -0.11488758D-01 -0.19430371D-01
 -0.29261062D-01 -0.36227092D-01 -0.30827621D-01 -0.11730478D-01  0.54938835D-04
 -0.37471672D-01 -0.70259734D-01 -0.11953271D+00 -0.18562168D+00 -0.24633077D+00
 -0.25959882D+00 -0.16096783D+00  0.10707586D+00  0.54792498D-01  0.80746805D-02
 -0.53241651D-02 -0.26880242D-02 -0.25818151D-02 -0.18105470D-02 -0.21219563D+00
 -0.20381137D+00 -0.14292660D+00 -0.10637590D-15 -0.10217278D-15 -0.71650609D-16
 -0.77234764D-03 -0.52827681D-01 -0.24802859D-16 -0.46439767D-03  0.11585146D-02
 -0.58772229D-17  0.69325428D-04 -0.54334541D-03 -0.12069171D-17 -0.22126885D-01
  0.44821207D-01 -0.22694322D-01 -0.17964310D-02 -0.19252395D-16  0.34917833D-16
 -0.29925539D-02  0.65866134D-02 -0.35940596D-02 -0.65586033D-03  0.33241942D-17
  0.67028905D-17  0.62071559D-03 -0.11593712D-02  0.53865563D-03 -0.13628874D-04
 -0.39612207D-17  0.52454978D-19  0.34460570D-03 -0.73069304D-02 -0.20129662D-17
 -0.11537260D-02  0.10177586D-01  0.11123270D-16  0.11990889D-03  0.11743205D-01
 -0.50843715D-17 -0.12468792D-16  0.16949530D-03 -0.19686161D-03  0.23216600D-17
 -0.73752417D-03  0.30768278D-03 -0.23252922D-17  0.22903827D-03  0.28290204D-03
 -0.46396877D-17  0.62254974D-18 -0.14341877D-02 -0.26736520D-02 -0.45189430D-02
 -0.67934515D-02 -0.83465401D-02 -0.70499874D-02 -0.26589959D-02  0.13159519D-04
 -0.55223188D-02 -0.10339523D-01 -0.17603923D-01 -0.27230592D-01 -0.35861732D-01
 -0.37262636D-01 -0.23678733D-01  0.15868936D-01  0.72378757D-02  0.30443840D-02
  0.23460084D-02  0.35647242D-02  0.33421555D-02  0.23798138D-02 -0.50730406D-01
 -0.47562981D-01 -0.33867676D-01 -0.15683711D-16 -0.14704476D-16 -0.10470463D-16
  0.19034190D-02 -0.99487296D-02 -0.59877815D-18  0.20424572D-03  0.73701810D-03
  0.16646326D-17  0.95900751D-05 -0.11524847D-03  0.45246722D-18 -0.46597364D-02
  0.97255412D-02 -0.50658048D-02 -0.36987020D-02  0.20833658D-17  0.51445443D-17
 -0.30495023D-03  0.64971394D-03 -0.34476371D-03 -0.68822566D-03  0.91320297D-18
 -0.10756696D-17  0.78767207D-04 -0.16646849D-03  0.87701283D-04  0.14462161D-04
  0.49232057D-18 -0.10253327D-17 -0.33125143D-03 -0.92097553D-03  0.15708156D-17
  0.13889926D-02  0.10807058D-02 -0.32362641D-17 -0.39523828D-03  0.16822208D-02
 -0.14761827D-17  0.41410213D-17  0.98968879D-05  0.54286614D-04 -0.11988391D-18
 -0.40949212D-04 -0.53626852D-04  0.63798737D-18  0.11258548D-04 -0.10923299D-03
 -0.27833564D-18 -0.29292473D-17
MO    5     MO 0.0        OCC NO =    2.0000000  ORB. ENERGY =   -0.948616
 -0.14001539D-01 -0.25252352D-01 -0.37234578D-01 -0.16399783D-01  0.67110805D-03
 -0.23857667D-03  0.15870941D-01 -0.37436243D-02 -0.24658381D-16  0.37532508D-02
 -0.97927195D-03 -0.85727372D-17 -0.29887222D-03 -0.16311135D-03 -0.10943371D-16
 -0.38724166D-02  0.19198468D-02  0.19525697D-02  0.34992999D-02 -0.15515719D-15
 -0.13475900D-15  0.73299137D-04 -0.23343479D-03  0.16013565D-03 -0.19701445D-03
 -0.11381503D-17  0.31388805D-16  0.24935446D-02  0.46476463D-02  0.78808681D-02
  0.11928061D-01  0.14882737D-01  0.12782287D-01  0.49073684D-02 -0.21950960D-04
  0.37689420D-01  0.70687441D-01  0.12050659D+00  0.18832834D+00  0.25183088D+00
  0.26889667D+00  0.16439815D+00 -0.10845991D+00 -0.61933416D-01 -0.36322766D-01
 -0.26793542D-02 -0.18327425D+00 -0.17771438D+00 -0.11988507D+00  0.19665697D+00
  0.19069111D+00  0.12863910D+00  0.10998725D-15  0.10665063D-15  0.71945885D-16
 -0.41454482D-01  0.43223053D-01  0.16645732D-16 -0.31333325D-02 -0.30771009D-04
  0.17309766D-16 -0.17741980D-03  0.27313275D-03 -0.84713901D-18 -0.20403707D-01
  0.17154282D-01  0.32494248D-02  0.11697521D-01  0.62745219D-16 -0.40739000D-16
 -0.41290232D-02  0.28287042D-02  0.13003190D-02  0.28517960D-02 -0.25464154D-16
  0.18479122D-17  0.58678628D-05 -0.54388234D-04  0.48520371D-04  0.10944172D-03
  0.84920211D-17  0.43459986D-17 -0.44966342D-03  0.30646623D-03 -0.13988381D-16
 -0.25976982D-02  0.18694269D-02  0.43235584D-16  0.39466884D-02 -0.27888256D-02
 -0.12704422D-17 -0.89192967D-16 -0.11749759D-03 -0.17018529D-03  0.74535855D-17
  0.17640483D-03  0.52572416D-03 -0.20794670D-16  0.17608796D-03 -0.15168279D-04
 -0.15660868D-17  0.15869299D-16 -0.71896724D-02 -0.13396896D-01 -0.22657510D-01
 -0.34120954D-01 -0.42243954D-01 -0.35947699D-01 -0.13678762D-01  0.64063480D-04
 -0.58865486D-01 -0.11037334D+00 -0.18777789D+00 -0.29159923D+00 -0.38696914D+00
 -0.40781235D+00 -0.25286967D+00  0.16820900D+00  0.87873058D-01  0.22569369D-01
 -0.96681573D-02 -0.49107618D-01 -0.47167280D-01 -0.33076952D-01  0.43644574D+00
  0.41920092D+00  0.29397262D+00 -0.12351172D-15 -0.11863153D-15 -0.83192618D-16
 -0.10646505D-01  0.81726799D-01 -0.27304754D-16  0.12779384D-02 -0.85347075D-02
 -0.15147958D-16  0.30933138D-03 -0.15200949D-02 -0.12123105D-17 -0.14819028D-01
  0.30324696D-01 -0.15505668D-01 -0.76107778D-02 -0.34517374D-16  0.23873642D-16
 -0.62894441D-03  0.16792716D-02 -0.10503272D-02  0.50276572D-03 -0.66425164D-17
  0.13039740D-16  0.66043968D-03 -0.12235097D-02  0.56307007D-03  0.45721555D-03
 -0.11469690D-16  0.13273714D-16  0.14168280D-02  0.72276119D-02 -0.42070006D-18
 -0.60284313D-02 -0.10452125D-01 -0.84733941D-17  0.17779473D-02 -0.11230711D-01
  0.97354943D-17  0.13540031D-17  0.15794631D-04  0.13614327D-03  0.15740080D-17
  0.72408766D-04 -0.43244302D-03  0.22938109D-17 -0.11979266D-03  0.24013219D-04
 -0.70158350D-17 -0.86446586D-17 -0.78127776D-02 -0.14564794D-01 -0.24617067D-01
 -0.37007516D-01 -0.45468009D-01 -0.38405002D-01 -0.14484954D-01  0.71686845D-04
 -0.33791577D-01 -0.63268494D-01 -0.10772002D+00 -0.16662650D+00 -0.21944124D+00
 -0.22801350D+00 -0.14489234D+00  0.97103479D-01  0.45743233D-01  0.23374613D-01
  0.54173133D-02  0.25225890D-01  0.23650875D-01  0.16840832D-01 -0.27603293D+00
 -0.25879842D+00 -0.18427989D+00 -0.45569415D-16 -0.42724223D-16 -0.30422192D-16
  0.47241626D-02 -0.55922491D-01 -0.17263706D-16 -0.57542406D-04 -0.28582512D-02
 -0.67316813D-17 -0.72480522D-05 -0.20270100D-03  0.11067590D-17 -0.21523223D-01
  0.44028187D-01 -0.22504964D-01 -0.12862776D-01 -0.92900241D-17  0.11357003D-16
 -0.14705617D-02  0.30398731D-02 -0.15693114D-02 -0.44136974D-03  0.12481519D-16
  0.16710480D-16  0.10313641D-03 -0.23644550D-03  0.13330909D-03  0.11632921D-03
  0.71618396D-18 -0.37546528D-17 -0.96661059D-03 -0.64772791D-02  0.13489314D-17
  0.39259066D-02  0.91841676D-02  0.45099557D-17 -0.10260749D-02  0.10247670D-01
 -0.85567500D-17  0.32317005D-17  0.74769470D-04  0.42845775D-03 -0.33003494D-18
 -0.31345107D-03 -0.61243389D-03  0.43378577D-18  0.89142659D-04 -0.67293935D-03
  0.55631905D-18 -0.95746989D-17
MO    6     MO 0.0        OCC NO =    2.0000000  ORB. ENERGY =   -0.703990
 -0.32928479D-01 -0.59387868D-01 -0.87567376D-01 -0.54874212D-01 -0.23980419D-02
  0.30381371D-03  0.31591084D-01  0.75958977D-03  0.37615596D-16  0.13635057D-01
  0.34907751D-02 -0.72484480D-16 -0.12773784D-04  0.75606951D-03 -0.20857055D-16
 -0.12970149D-01  0.73362668D-02  0.56338826D-02  0.52257092D-03  0.69818073D-16
  0.81161614D-16 -0.82059524D-03  0.74972035D-03  0.70874885D-04 -0.10513816D-02
 -0.31716086D-16  0.17494218D-16  0.94546773D-03  0.17622302D-02  0.29881585D-02
  0.45227171D-02  0.56430305D-02  0.48466106D-02  0.18607080D-02 -0.83230613D-05
  0.16238022D-01  0.30454813D-01  0.51918781D-01  0.81138948D-01  0.10849823D+00
  0.11585082D+00  0.70828919D-01 -0.46728619D-01 -0.28937530D-01 -0.38049049D-02
  0.24757474D-02 -0.66143851D+00 -0.64137286D+00 -0.43266634D+00  0.10870404D+01
  0.10540635D+01  0.71106504D+00 -0.52154185D-15 -0.50572016D-15 -0.34115583D-15
 -0.14294212D+00  0.24447541D+00 -0.71400149D-16 -0.13716355D-01  0.29238777D-01
 -0.19901828D-17 -0.19865366D-03  0.10777440D-03  0.20585868D-17 -0.61830960D-01
  0.70018994D-01 -0.81880350D-02  0.41510317D-01 -0.88186562D-15 -0.34295226D-15
 -0.15967212D-01  0.19420746D-01 -0.34535339D-02  0.47131178D-02  0.14742370D-15
 -0.28076207D-16 -0.10948792D-02  0.18142289D-02 -0.71934972D-03 -0.92072162D-03
  0.60926012D-18  0.99272376D-17  0.58156216D-03  0.15309421D-01  0.53201202D-16
 -0.10933553D-01 -0.13646150D-01 -0.12198724D-15  0.91888667D-02 -0.32282112D-01
 -0.37616368D-16 -0.31316596D-15 -0.11886441D-02  0.12534584D-02 -0.14999357D-16
  0.24747715D-02 -0.26937353D-02  0.39243982D-16  0.10911608D-02 -0.10666398D-02
  0.57540874D-17  0.41695463D-16 -0.74757333D-03 -0.13929928D-02 -0.23559001D-02
 -0.35478550D-02 -0.43924746D-02 -0.37377976D-02 -0.14223010D-02  0.66612422D-05
 -0.15055978D-01 -0.28230099D-01 -0.48027797D-01 -0.74582098D-01 -0.98974782D-01
 -0.10430583D+00 -0.64676271D-01  0.43022681D-01  0.23745441D-01  0.50534040D-02
  0.33225317D-02 -0.99520148D-01 -0.95587913D-01 -0.67032842D-01 -0.64452320D+00
 -0.61905683D+00 -0.43412538D+00 -0.12655142D-15 -0.12155113D-15 -0.85240043D-16
 -0.26461988D-01 -0.15177066D+00 -0.43651854D-16 -0.26330178D-02 -0.31336926D-03
 -0.12120346D-16 -0.11535110D-03  0.11754525D-02 -0.99946460D-18 -0.46454026D-02
  0.94608877D-02 -0.48154851D-02  0.27867867D-01  0.10809698D-16  0.15561631D-16
 -0.99862763D-03  0.25494243D-02 -0.15507966D-02  0.65800286D-02 -0.15229792D-17
  0.28314433D-16 -0.45243680D-03  0.73521402D-03 -0.28277722D-03 -0.82285868D-03