 Molden2AIM, Version 4.0.0 (06/02/2016)           Time: Fri Jun 29 19:26:25 2018
GAUSSIAN             42 MOL ORBITALS    676 PRIMITIVES        4 NUCLEI
  Br   1    (CENTRE  1)  -0.98879919  0.00000000 -1.07702295  CHARGE = 35.0
  N    2    (CENTRE  2)  -0.17791205  0.00000000  2.56502920  CHARGE =  7.0
  N    3    (CENTRE  3)   1.89754959  0.00000000  3.39516132  CHARGE =  7.0
  Br   4    (CENTRE  4)   4.99672122  0.00000000  1.31685943  CHARGE = 35.0
CENTRE ASSIGNMENTS    1  1  1  1  1  1  1  1  1  1  1  1  1  1  1  1  1  1  1  1
CENTRE ASSIGNMENTS    1  1  1  1  1  1  1  1  1  1  1  1  1  1  1  1  1  1  1  1
CENTRE ASSIGNMENTS    1  1  1  1  1  1  1  1  1  1  1  1  1  1  1  1  1  1  1  1
CENTRE ASSIGNMENTS    1  1  1  1  1  1  1  1  1  1  1  1  1  1  1  1  1  1  1  1
CENTRE ASSIGNMENTS    1  1  1  1  1  1  1  1  1  1  1  1  1  1  1  1  1  1  1  1
CENTRE ASSIGNMENTS    1  1  1  1  1  1  1  1  1  1  1  1  1  1  1  1  1  1  1  1
CENTRE ASSIGNMENTS    1  1  1  1  1  1  1  1  1  1  1  1  1  1  1  1  1  1  1  1
CENTRE ASSIGNMENTS    1  1  1  1  1  1  1  1  1  1  1  1  1  1  1  1  1  1  1  1
CENTRE ASSIGNMENTS    1  1  1  1  1  1  1  1  1  1  1  1  1  1  1  1  1  1  1  1
CENTRE ASSIGNMENTS    1  1  1  1  1  1  1  1  1  1  1  1  1  1  1  1  1  1  1  1
CENTRE ASSIGNMENTS    1  1  1  1  1  1  1  1  1  1  1  1  1  1  1  1  1  1  1  1
CENTRE ASSIGNMENTS    1  1  1  1  1  1  1  1  1  1  1  1  1  1  1  1  1  1  1  1
CENTRE ASSIGNMENTS    1  1  1  1  1  1  1  1  1  1  1  1  1  1  1  1  1  1  1  1
CENTRE ASSIGNMENTS    1  1  1  2  2  2  2  2  2  2  2  2  2  2  2  2  2  2  2  2
CENTRE ASSIGNMENTS    2  2  2  2  2  2  2  2  2  2  2  2  2  2  2  2  2  2  2  2
CENTRE ASSIGNMENTS    2  2  2  2  2  2  2  2  2  2  2  2  2  2  2  2  2  2  2  2
CENTRE ASSIGNMENTS    2  2  2  2  2  2  2  2  2  2  2  2  2  2  2  2  2  2  3  3
CENTRE ASSIGNMENTS    3  3  3  3  3  3  3  3  3  3  3  3  3  3  3  3  3  3  3  3
CENTRE ASSIGNMENTS    3  3  3  3  3  3  3  3  3  3  3  3  3  3  3  3  3  3  3  3
CENTRE ASSIGNMENTS    3  3  3  3  3  3  3  3  3  3  3  3  3  3  3  3  3  3  3  3
CENTRE ASSIGNMENTS    3  3  3  3  3  3  3  3  3  3  3  3  3  4  4  4  4  4  4  4
CENTRE ASSIGNMENTS    4  4  4  4  4  4  4  4  4  4  4  4  4  4  4  4  4  4  4  4
CENTRE ASSIGNMENTS    4  4  4  4  4  4  4  4  4  4  4  4  4  4  4  4  4  4  4  4
CENTRE ASSIGNMENTS    4  4  4  4  4  4  4  4  4  4  4  4  4  4  4  4  4  4  4  4
CENTRE ASSIGNMENTS    4  4  4  4  4  4  4  4  4  4  4  4  4  4  4  4  4  4  4  4
CENTRE ASSIGNMENTS    4  4  4  4  4  4  4  4  4  4  4  4  4  4  4  4  4  4  4  4
CENTRE ASSIGNMENTS    4  4  4  4  4  4  4  4  4  4  4  4  4  4  4  4  4  4  4  4
CENTRE ASSIGNMENTS    4  4  4  4  4  4  4  4  4  4  4  4  4  4  4  4  4  4  4  4
CENTRE ASSIGNMENTS    4  4  4  4  4  4  4  4  4  4  4  4  4  4  4  4  4  4  4  4
CENTRE ASSIGNMENTS    4  4  4  4  4  4  4  4  4  4  4  4  4  4  4  4  4  4  4  4
CENTRE ASSIGNMENTS    4  4  4  4  4  4  4  4  4  4  4  4  4  4  4  4  4  4  4  4
CENTRE ASSIGNMENTS    4  4  4  4  4  4  4  4  4  4  4  4  4  4  4  4  4  4  4  4
CENTRE ASSIGNMENTS    4  4  4  4  4  4  4  4  4  4  4  4  4  4  4  4  4  4  4  4
CENTRE ASSIGNMENTS    4  4  4  4  4  4  4  4  4  4  4  4  4  4  4  4
TYPE ASSIGNMENTS      1  1  1  1  1  1  1  1  1  1  1  1  1  1  1  1  1  1  1  1
TYPE ASSIGNMENTS      1  1  1  1  1  1  1  1  1  1  1  1  1  1  1  1  1  1  1  1
TYPE ASSIGNMENTS      1  1  1  1  1  1  1  1  1  1  1  1  1  1  1  1  1  1  1  1
TYPE ASSIGNMENTS      1  1  1  1  1  1  1  1  1  1  1  1  1  1  1  2  2  2  2  2
TYPE ASSIGNMENTS      2  2  2  2  2  2  3  3  3  3  3  3  3  3  3  3  3  4  4  4
TYPE ASSIGNMENTS      4  4  4  4  4  4  4  4  2  2  2  2  2  2  2  2  2  2  2  3
TYPE ASSIGNMENTS      3  3  3  3  3  3  3  3  3  3  4  4  4  4  4  4  4  4  4  4
TYPE ASSIGNMENTS      4  2  2  2  2  2  2  2  2  2  2  2  3  3  3  3  3  3  3  3
TYPE ASSIGNMENTS      3  3  3  4  4  4  4  4  4  4  4  4  4  4  2  3  4  2  3  4
TYPE ASSIGNMENTS      2  3  4  5  5  5  5  5  5  5  6  6  6  6  6  6  6  7  7  7
TYPE ASSIGNMENTS      7  7  7  7  8  8  8  8  8  8  8  9  9  9  9  9  9  9 10 10
TYPE ASSIGNMENTS     10 10 10 10 10  5  6  7  8  9 10  5  6  7  8  9 10  5  6  7
TYPE ASSIGNMENTS      8  9 10 11 12 13 17 14 15 18 19 16 20 11 12 13 17 14 15 18
TYPE ASSIGNMENTS     19 16 20  1  1  1  1  1  1  1  1  1  1  1  1  1  1  1  1  1
TYPE ASSIGNMENTS      1  1  2  2  2  3  3  3  4  4  4  2  3  4  2  3  4  2  3  4
TYPE ASSIGNMENTS      5  6  7  8  9 10  5  6  7  8  9 10  5  6  7  8  9 10 11 12
TYPE ASSIGNMENTS     13 17 14 15 18 19 16 20 11 12 13 17 14 15 18 19 16 20  1  1
TYPE ASSIGNMENTS      1  1  1  1  1  1  1  1  1  1  1  1  1  1  1  1  1  2  2  2
TYPE ASSIGNMENTS      3  3  3  4  4  4  2  3  4  2  3  4  2  3  4  5  6  7  8  9
TYPE ASSIGNMENTS     10  5  6  7  8  9 10  5  6  7  8  9 10 11 12 13 17 14 15 18
TYPE ASSIGNMENTS     19 16 20 11 12 13 17 14 15 18 19 16 20  1  1  1  1  1  1  1
TYPE ASSIGNMENTS      1  1  1  1  1  1  1  1  1  1  1  1  1  1  1  1  1  1  1  1
TYPE ASSIGNMENTS      1  1  1  1  1  1  1  1  1  1  1  1  1  1  1  1  1  1  1  1
TYPE ASSIGNMENTS      1  1  1  1  1  1  1  1  1  1  1  1  1  1  1  1  1  1  1  1
TYPE ASSIGNMENTS      1  1  1  1  1  1  1  1  2  2  2  2  2  2  2  2  2  2  2  3
TYPE ASSIGNMENTS      3  3  3  3  3  3  3  3  3  3  4  4  4  4  4  4  4  4  4  4
TYPE ASSIGNMENTS      4  2  2  2  2  2  2  2  2  2  2  2  3  3  3  3  3  3  3  3
TYPE ASSIGNMENTS      3  3  3  4  4  4  4  4  4  4  4  4  4  4  2  2  2  2  2  2
TYPE ASSIGNMENTS      2  2  2  2  2  3  3  3  3  3  3  3  3  3  3  3  4  4  4  4
TYPE ASSIGNMENTS      4  4  4  4  4  4  4  2  3  4  2  3  4  2  3  4  5  5  5  5
TYPE ASSIGNMENTS      5  5  5  6  6  6  6  6  6  6  7  7  7  7  7  7  7  8  8  8
TYPE ASSIGNMENTS      8  8  8  8  9  9  9  9  9  9  9 10 10 10 10 10 10 10  5  6
TYPE ASSIGNMENTS      7  8  9 10  5  6  7  8  9 10  5  6  7  8  9 10 11 12 13 17
TYPE ASSIGNMENTS     14 15 18 19 16 20 11 12 13 17 14 15 18 19 16 20
EXPONENTS  0.1063900D+08 0.1593400D+07 0.3626100D+06 0.1027000D+06 0.3350100D+05
EXPONENTS  0.1209300D+05 0.4715900D+04 0.1955600D+04 0.8526100D+03 0.3876700D+03
EXPONENTS  0.1826800D+03 0.8824500D+02 0.3926300D+02 0.1923400D+02 0.9405700D+01
EXPONENTS  0.4160100D+01 0.1899500D+01 0.3011400D+00 0.1063900D+08 0.1593400D+07
EXPONENTS  0.3626100D+06 0.1027000D+06 0.3350100D+05 0.1209300D+05 0.4715900D+04
EXPONENTS  0.1955600D+04 0.8526100D+03 0.3876700D+03 0.1826800D+03 0.8824500D+02
EXPONENTS  0.3926300D+02 0.1923400D+02 0.9405700D+01 0.4160100D+01 0.1899500D+01
EXPONENTS  0.3011400D+00 0.1063900D+08 0.1593400D+07 0.3626100D+06 0.1027000D+06
EXPONENTS  0.3350100D+05 0.1209300D+05 0.4715900D+04 0.1955600D+04 0.8526100D+03
EXPONENTS  0.3876700D+03 0.1826800D+03 0.8824500D+02 0.3926300D+02 0.1923400D+02
EXPONENTS  0.9405700D+01 0.4160100D+01 0.1899500D+01 0.3011400D+00 0.1063900D+08
EXPONENTS  0.1593400D+07 0.3626100D+06 0.1027000D+06 0.3350100D+05 0.1209300D+05
EXPONENTS  0.4715900D+04 0.1955600D+04 0.8526100D+03 0.3876700D+03 0.1826800D+03
EXPONENTS  0.8824500D+02 0.3926300D+02 0.1923400D+02 0.9405700D+01 0.4160100D+01
EXPONENTS  0.1899500D+01 0.3011400D+00 0.6047200D+00 0.1251500D+00 0.4559300D-01
EXPONENTS  0.8676500D+04 0.2055900D+04 0.6662300D+03 0.2531000D+03 0.1061200D+03
EXPONENTS  0.4724200D+02 0.2182500D+02 0.9968400D+01 0.4517100D+01 0.1998200D+01
EXPONENTS  0.2814500D+00 0.8676500D+04 0.2055900D+04 0.6662300D+03 0.2531000D+03
EXPONENTS  0.1061200D+03 0.4724200D+02 0.2182500D+02 0.9968400D+01 0.4517100D+01
EXPONENTS  0.1998200D+01 0.2814500D+00 0.8676500D+04 0.2055900D+04 0.6662300D+03
EXPONENTS  0.2531000D+03 0.1061200D+03 0.4724200D+02 0.2182500D+02 0.9968400D+01
EXPONENTS  0.4517100D+01 0.1998200D+01 0.2814500D+00 0.8676500D+04 0.2055900D+04
EXPONENTS  0.6662300D+03 0.2531000D+03 0.1061200D+03 0.4724200D+02 0.2182500D+02
EXPONENTS  0.9968400D+01 0.4517100D+01 0.1998200D+01 0.2814500D+00 0.8676500D+04
EXPONENTS  0.2055900D+04 0.6662300D+03 0.2531000D+03 0.1061200D+03 0.4724200D+02
EXPONENTS  0.2182500D+02 0.9968400D+01 0.4517100D+01 0.1998200D+01 0.2814500D+00
EXPONENTS  0.8676500D+04 0.2055900D+04 0.6662300D+03 0.2531000D+03 0.1061200D+03
EXPONENTS  0.4724200D+02 0.2182500D+02 0.9968400D+01 0.4517100D+01 0.1998200D+01
EXPONENTS  0.2814500D+00 0.8676500D+04 0.2055900D+04 0.6662300D+03 0.2531000D+03
EXPONENTS  0.1061200D+03 0.4724200D+02 0.2182500D+02 0.9968400D+01 0.4517100D+01
EXPONENTS  0.1998200D+01 0.2814500D+00 0.8676500D+04 0.2055900D+04 0.6662300D+03
EXPONENTS  0.2531000D+03 0.1061200D+03 0.4724200D+02 0.2182500D+02 0.9968400D+01
EXPONENTS  0.4517100D+01 0.1998200D+01 0.2814500D+00 0.8676500D+04 0.2055900D+04
EXPONENTS  0.6662300D+03 0.2531000D+03 0.1061200D+03 0.4724200D+02 0.2182500D+02
EXPONENTS  0.9968400D+01 0.4517100D+01 0.1998200D+01 0.2814500D+00 0.7098800D+00
EXPONENTS  0.7098800D+00 0.7098800D+00 0.1020400D+00 0.1020400D+00 0.1020400D+00
EXPONENTS  0.3514200D-01 0.3514200D-01 0.3514200D-01 0.4038300D+03 0.1211700D+03
EXPONENTS  0.4634500D+02 0.1972100D+02 0.8862400D+01 0.3996200D+01 0.1763600D+01
EXPONENTS  0.4038300D+03 0.1211700D+03 0.4634500D+02 0.1972100D+02 0.8862400D+01
EXPONENTS  0.3996200D+01 0.1763600D+01 0.4038300D+03 0.1211700D+03 0.4634500D+02
EXPONENTS  0.1972100D+02 0.8862400D+01 0.3996200D+01 0.1763600D+01 0.4038300D+03
EXPONENTS  0.1211700D+03 0.4634500D+02 0.1972100D+02 0.8862400D+01 0.3996200D+01
EXPONENTS  0.1763600D+01 0.4038300D+03 0.1211700D+03 0.4634500D+02 0.1972100D+02
EXPONENTS  0.8862400D+01 0.3996200D+01 0.1763600D+01 0.4038300D+03 0.1211700D+03
EXPONENTS  0.4634500D+02 0.1972100D+02 0.8862400D+01 0.3996200D+01 0.1763600D+01
EXPONENTS  0.7061900D+00 0.7061900D+00 0.7061900D+00 0.7061900D+00 0.7061900D+00
EXPONENTS  0.7061900D+00 0.2639000D+00 0.2639000D+00 0.2639000D+00 0.2639000D+00
EXPONENTS  0.2639000D+00 0.2639000D+00 0.1047000D+00 0.1047000D+00 0.1047000D+00
EXPONENTS  0.1047000D+00 0.1047000D+00 0.1047000D+00 0.5515000D+00 0.5515000D+00
EXPONENTS  0.5515000D+00 0.5515000D+00 0.5515000D+00 0.5515000D+00 0.5515000D+00
EXPONENTS  0.5515000D+00 0.5515000D+00 0.5515000D+00 0.2580000D+00 0.2580000D+00
EXPONENTS  0.2580000D+00 0.2580000D+00 0.2580000D+00 0.2580000D+00 0.2580000D+00
EXPONENTS  0.2580000D+00 0.2580000D+00 0.2580000D+00 0.1142000D+05 0.1712000D+04
EXPONENTS  0.3893000D+03 0.1100000D+03 0.3557000D+02 0.1254000D+02 0.4644000D+01
EXPONENTS  0.5118000D+00 0.1142000D+05 0.1712000D+04 0.3893000D+03 0.1100000D+03
EXPONENTS  0.3557000D+02 0.1254000D+02 0.4644000D+01 0.5118000D+00 0.1293000D+01
EXPONENTS  0.1787000D+00 0.5760000D-01 0.2663000D+02 0.5948000D+01 0.1742000D+01
EXPONENTS  0.2663000D+02 0.5948000D+01 0.1742000D+01 0.2663000D+02 0.5948000D+01
EXPONENTS  0.1742000D+01 0.5550000D+00 0.5550000D+00 0.5550000D+00 0.1725000D+00
EXPONENTS  0.1725000D+00 0.1725000D+00 0.4910000D-01 0.4910000D-01 0.4910000D-01
EXPONENTS  0.1654000D+01 0.1654000D+01 0.1654000D+01 0.1654000D+01 0.1654000D+01
EXPONENTS  0.1654000D+01 0.4690000D+00 0.4690000D+00 0.4690000D+00 0.4690000D+00
EXPONENTS  0.4690000D+00 0.4690000D+00 0.1510000D+00 0.1510000D+00 0.1510000D+00
EXPONENTS  0.1510000D+00 0.1510000D+00 0.1510000D+00 0.1093000D+01 0.1093000D+01
EXPONENTS  0.1093000D+01 0.1093000D+01 0.1093000D+01 0.1093000D+01 0.1093000D+01
EXPONENTS  0.1093000D+01 0.1093000D+01 0.1093000D+01 0.3640000D+00 0.3640000D+00
EXPONENTS  0.3640000D+00 0.3640000D+00 0.3640000D+00 0.3640000D+00 0.3640000D+00
EXPONENTS  0.3640000D+00 0.3640000D+00 0.3640000D+00 0.1142000D+05 0.1712000D+04
EXPONENTS  0.3893000D+03 0.1100000D+03 0.3557000D+02 0.1254000D+02 0.4644000D+01
EXPONENTS  0.5118000D+00 0.1142000D+05 0.1712000D+04 0.3893000D+03 0.1100000D+03
EXPONENTS  0.3557000D+02 0.1254000D+02 0.4644000D+01 0.5118000D+00 0.1293000D+01
EXPONENTS  0.1787000D+00 0.5760000D-01 0.2663000D+02 0.5948000D+01 0.1742000D+01
EXPONENTS  0.2663000D+02 0.5948000D+01 0.1742000D+01 0.2663000D+02 0.5948000D+01
EXPONENTS  0.1742000D+01 0.5550000D+00 0.5550000D+00 0.5550000D+00 0.1725000D+00
EXPONENTS  0.1725000D+00 0.1725000D+00 0.4910000D-01 0.4910000D-01 0.4910000D-01
EXPONENTS  0.1654000D+01 0.1654000D+01 0.1654000D+01 0.1654000D+01 0.1654000D+01
EXPONENTS  0.1654000D+01 0.4690000D+00 0.4690000D+00 0.4690000D+00 0.4690000D+00
EXPONENTS  0.4690000D+00 0.4690000D+00 0.1510000D+00 0.1510000D+00 0.1510000D+00
EXPONENTS  0.1510000D+00 0.1510000D+00 0.1510000D+00 0.1093000D+01 0.1093000D+01
EXPONENTS  0.1093000D+01 0.1093000D+01 0.1093000D+01 0.1093000D+01 0.1093000D+01
EXPONENTS  0.1093000D+01 0.1093000D+01 0.1093000D+01 0.3640000D+00 0.3640000D+00
EXPONENTS  0.3640000D+00 0.3640000D+00 0.3640000D+00 0.3640000D+00 0.3640000D+00
EXPONENTS  0.3640000D+00 0.3640000D+00 0.3640000D+00 0.1063900D+08 0.1593400D+07
EXPONENTS  0.3626100D+06 0.1027000D+06 0.3350100D+05 0.1209300D+05 0.4715900D+04
EXPONENTS  0.1955600D+04 0.8526100D+03 0.3876700D+03 0.1826800D+03 0.8824500D+02
EXPONENTS  0.3926300D+02 0.1923400D+02 0.9405700D+01 0.4160100D+01 0.1899500D+01
EXPONENTS  0.3011400D+00 0.1063900D+08 0.1593400D+07 0.3626100D+06 0.1027000D+06
EXPONENTS  0.3350100D+05 0.1209300D+05 0.4715900D+04 0.1955600D+04 0.8526100D+03
EXPONENTS  0.3876700D+03 0.1826800D+03 0.8824500D+02 0.3926300D+02 0.1923400D+02
EXPONENTS  0.9405700D+01 0.4160100D+01 0.1899500D+01 0.3011400D+00 0.1063900D+08
EXPONENTS  0.1593400D+07 0.3626100D+06 0.1027000D+06 0.3350100D+05 0.1209300D+05
EXPONENTS  0.4715900D+04 0.1955600D+04 0.8526100D+03 0.3876700D+03 0.1826800D+03
EXPONENTS  0.8824500D+02 0.3926300D+02 0.1923400D+02 0.9405700D+01 0.4160100D+01
EXPONENTS  0.1899500D+01 0.3011400D+00 0.1063900D+08 0.1593400D+07 0.3626100D+06
EXPONENTS  0.1027000D+06 0.3350100D+05 0.1209300D+05 0.4715900D+04 0.1955600D+04
EXPONENTS  0.8526100D+03 0.3876700D+03 0.1826800D+03 0.8824500D+02 0.3926300D+02
EXPONENTS  0.1923400D+02 0.9405700D+01 0.4160100D+01 0.1899500D+01 0.3011400D+00
EXPONENTS  0.6047200D+00 0.1251500D+00 0.4559300D-01 0.8676500D+04 0.2055900D+04
EXPONENTS  0.6662300D+03 0.2531000D+03 0.1061200D+03 0.4724200D+02 0.2182500D+02
EXPONENTS  0.9968400D+01 0.4517100D+01 0.1998200D+01 0.2814500D+00 0.8676500D+04
EXPONENTS  0.2055900D+04 0.6662300D+03 0.2531000D+03 0.1061200D+03 0.4724200D+02
EXPONENTS  0.2182500D+02 0.9968400D+01 0.4517100D+01 0.1998200D+01 0.2814500D+00
EXPONENTS  0.8676500D+04 0.2055900D+04 0.6662300D+03 0.2531000D+03 0.1061200D+03
EXPONENTS  0.4724200D+02 0.2182500D+02 0.9968400D+01 0.4517100D+01 0.1998200D+01
EXPONENTS  0.2814500D+00 0.8676500D+04 0.2055900D+04 0.6662300D+03 0.2531000D+03
EXPONENTS  0.1061200D+03 0.4724200D+02 0.2182500D+02 0.9968400D+01 0.4517100D+01
EXPONENTS  0.1998200D+01 0.2814500D+00 0.8676500D+04 0.2055900D+04 0.6662300D+03
EXPONENTS  0.2531000D+03 0.1061200D+03 0.4724200D+02 0.2182500D+02 0.9968400D+01
EXPONENTS  0.4517100D+01 0.1998200D+01 0.2814500D+00 0.8676500D+04 0.2055900D+04
EXPONENTS  0.6662300D+03 0.2531000D+03 0.1061200D+03 0.4724200D+02 0.2182500D+02
EXPONENTS  0.9968400D+01 0.4517100D+01 0.1998200D+01 0.2814500D+00 0.8676500D+04
EXPONENTS  0.2055900D+04 0.6662300D+03 0.2531000D+03 0.1061200D+03 0.4724200D+02
EXPONENTS  0.2182500D+02 0.9968400D+01 0.4517100D+01 0.1998200D+01 0.2814500D+00
EXPONENTS  0.8676500D+04 0.2055900D+04 0.6662300D+03 0.2531000D+03 0.1061200D+03
EXPONENTS  0.4724200D+02 0.2182500D+02 0.9968400D+01 0.4517100D+01 0.1998200D+01
EXPONENTS  0.2814500D+00 0.8676500D+04 0.2055900D+04 0.6662300D+03 0.2531000D+03
EXPONENTS  0.1061200D+03 0.4724200D+02 0.2182500D+02 0.9968400D+01 0.4517100D+01
EXPONENTS  0.1998200D+01 0.2814500D+00 0.7098800D+00 0.7098800D+00 0.7098800D+00
EXPONENTS  0.1020400D+00 0.1020400D+00 0.1020400D+00 0.3514200D-01 0.3514200D-01
EXPONENTS  0.3514200D-01 0.4038300D+03 0.1211700D+03 0.4634500D+02 0.1972100D+02
EXPONENTS  0.8862400D+01 0.3996200D+01 0.1763600D+01 0.4038300D+03 0.1211700D+03
EXPONENTS  0.4634500D+02 0.1972100D+02 0.8862400D+01 0.3996200D+01 0.1763600D+01
EXPONENTS  0.4038300D+03 0.1211700D+03 0.4634500D+02 0.1972100D+02 0.8862400D+01
EXPONENTS  0.3996200D+01 0.1763600D+01 0.4038300D+03 0.1211700D+03 0.4634500D+02
EXPONENTS  0.1972100D+02 0.8862400D+01 0.3996200D+01 0.1763600D+01 0.4038300D+03
EXPONENTS  0.1211700D+03 0.4634500D+02 0.1972100D+02 0.8862400D+01 0.3996200D+01
EXPONENTS  0.1763600D+01 0.4038300D+03 0.1211700D+03 0.4634500D+02 0.1972100D+02
EXPONENTS  0.8862400D+01 0.3996200D+01 0.1763600D+01 0.7061900D+00 0.7061900D+00
EXPONENTS  0.7061900D+00 0.7061900D+00 0.7061900D+00 0.7061900D+00 0.2639000D+00
EXPONENTS  0.2639000D+00 0.2639000D+00 0.2639000D+00 0.2639000D+00 0.2639000D+00
EXPONENTS  0.1047000D+00 0.1047000D+00 0.1047000D+00 0.1047000D+00 0.1047000D+00
EXPONENTS  0.1047000D+00 0.5515000D+00 0.5515000D+00 0.5515000D+00 0.5515000D+00
EXPONENTS  0.5515000D+00 0.5515000D+00 0.5515000D+00 0.5515000D+00 0.5515000D+00
EXPONENTS  0.5515000D+00 0.2580000D+00 0.2580000D+00 0.2580000D+00 0.2580000D+00
EXPONENTS  0.2580000D+00 0.2580000D+00 0.2580000D+00 0.2580000D+00 0.2580000D+00
EXPONENTS  0.2580000D+00
MO    1     MO 0.0        OCC NO =    2.0000000  ORB. ENERGY = -483.307669
  0.78330095D+00  0.14734845D+01  0.25506743D+01  0.41810432D+01  0.65496852D+01
  0.98447346D+01  0.14070599D+02  0.18679070D+02  0.21754314D+02  0.19981127D+02
  0.11683751D+02  0.30658746D+01  0.16761017D+00 -0.59990947D-02  0.16765576D-02
 -0.49782654D-03  0.84870806D-04  0.69242904D-05  0.72076053D-04  0.13242604D-03
  0.22899515D-03  0.37501156D-03  0.59043885D-03  0.89162051D-03  0.13014937D-02
  0.17922358D-02  0.22899976D-02  0.24963657D-02  0.20548933D-02  0.56343780D-03
 -0.11364906D-02 -0.11075597D-02 -0.24236527D-03 -0.81650627D-05 -0.27660623D-06
  0.70365058D-09 -0.43021893D-04 -0.84340143D-04 -0.14771967D-03 -0.24132587D-03
 -0.38062903D-03 -0.57435221D-03 -0.84211446D-03 -0.11626783D-02 -0.15074182D-02
 -0.16763377D-02 -0.14560025D-02 -0.42294269D-03  0.10662334D-02  0.15535772D-02
  0.26745387D-03 -0.65247292D-03 -0.31056066D-03  0.14997923D-05  0.14795889D-04
  0.32059118D-04  0.54575565D-04  0.89082019D-04  0.14042906D-03  0.21194801D-03
  0.31075033D-03  0.42959027D-03  0.55756507D-03  0.62289769D-03  0.54411523D-03
  0.16116746D-03 -0.41894282D-03 -0.64447566D-03 -0.11280292D-03  0.35583058D-03
  0.30204635D-03 -0.11269079D-03  0.11658209D-03  0.22011240D-04  0.16268424D-05
 -0.56778547D-04 -0.81467163D-04 -0.10786685D-03 -0.12455566D-03 -0.11546882D-03
 -0.74756621D-04 -0.26386342D-04 -0.30927068D-05 -0.44962232D-07 -0.65842184D-08
 -0.67695991D-10 -0.17244301D-16 -0.24742518D-16 -0.32760409D-16 -0.37828991D-16
 -0.35069215D-16 -0.22704449D-16 -0.80138367D-17 -0.93929076D-18 -0.13655549D-19
 -0.19997032D-20 -0.20560054D-22 -0.12064414D-03 -0.17310298D-03 -0.22919754D-03
 -0.26465823D-03 -0.24535035D-03 -0.15884429D-03 -0.56066201D-04 -0.65714422D-05
 -0.95536606D-07 -0.13990273D-07 -0.14384173D-09  0.42696830D-03  0.61633364D-03
  0.82340701D-03  0.97823279D-03  0.94798256D-03  0.65896880D-03  0.21442213D-03
 -0.96506974D-04 -0.10425973D-03 -0.26841348D-04  0.26181257D-07 -0.17125824D-17
 -0.24721324D-17 -0.33027098D-17 -0.39237206D-17 -0.38023860D-17 -0.26431433D-17
 -0.86005347D-18  0.38709232D-18  0.41818885D-18  0.10766144D-18 -0.10501379D-21
  0.12027306D-02  0.17361554D-02  0.23194621D-02  0.27555921D-02  0.26703800D-02
  0.18562547D-02  0.60400748D-03 -0.27185130D-03 -0.29369010D-03 -0.75609617D-04
  0.73750200D-07 -0.30405315D-03 -0.44180271D-03 -0.58738182D-03 -0.70481753D-03
 -0.68191408D-03 -0.48407959D-03 -0.15045315D-03  0.86380710D-04  0.99232260D-04
  0.26351999D-04 -0.95078834D-05 -0.65776226D-18 -0.95575774D-18 -0.12706910D-17
 -0.15247412D-17 -0.14751939D-17 -0.10472159D-17 -0.32547733D-18  0.18686855D-18
  0.21467048D-18  0.57007633D-19 -0.20568532D-19 -0.86003760D-03 -0.12496728D-02
 -0.16614545D-02 -0.19936303D-02 -0.19288462D-02 -0.13692562D-02 -0.42556827D-03
  0.24433445D-03  0.28068605D-03  0.74538647D-04 -0.26893776D-04  0.64031052D-05
 -0.14968814D-19  0.16858351D-04  0.31181585D-05  0.29470924D-20  0.66860325D-05
  0.14467688D-06 -0.39426254D-21  0.10726857D-06 -0.51334156D-04 -0.53715663D-04
 -0.45768620D-04 -0.30142097D-04 -0.13891595D-04 -0.41598606D-05 -0.70776501D-06
 -0.10626554D-03 -0.11119544D-03 -0.94744467D-04 -0.62396394D-04 -0.28756640D-04
 -0.86112225D-05 -0.14651265D-05  0.15759970D-03  0.16491110D-03  0.14051309D-03
  0.92538491D-04  0.42648235D-04  0.12771083D-04  0.21728915D-05  0.11656442D-17
  0.12197211D-17  0.10392676D-17  0.68443630D-18  0.31543631D-18  0.94457914D-19
  0.16071213D-19  0.13025444D-03  0.13629723D-03  0.11613254D-03  0.76482056D-04
  0.35248303D-04  0.10555161D-04  0.17958712D-05  0.25875790D-17  0.27076226D-17
  0.23070394D-17  0.15193598D-17  0.70022771D-18  0.20968432D-18  0.35676010D-19
  0.16973993D-05  0.47382303D-05 -0.64356296D-05 -0.76385492D-20 -0.55330843D-05
 -0.10638323D-19  0.17070409D-05  0.14180781D-05 -0.31251189D-05 -0.11197058D-20
 -0.25965596D-05 -0.71441783D-20 -0.24384860D-06 -0.82176565D-06  0.10656143D-05
  0.49858645D-22  0.12983136D-05 -0.23132523D-21  0.81660162D-06  0.16206460D-20
 -0.44529197D-05  0.41380904D-05 -0.10477894D-20  0.34832399D-05 -0.65878952D-05
 -0.38141487D-20  0.98755191D-05 -0.35614827D-20 -0.21497953D-07  0.44228398D-21
  0.78107478D-06 -0.13107654D-05  0.10160153D-20 -0.35905073D-07  0.13752593D-05
 -0.23428673D-20 -0.23073193D-05 -0.42754971D-21  0.25809043D-06  0.48091351D-06
  0.81334531D-06  0.12248530D-05  0.15164474D-05  0.12904283D-05  0.49103179D-06
 -0.22997113D-08 -0.77605598D-07 -0.14551122D-06 -0.24755788D-06 -0.38443125D-06
 -0.51016263D-06 -0.53764138D-06 -0.33337196D-06  0.22175915D-06 -0.12508985D-05
 -0.21806662D-04 -0.14398080D-04 -0.20968813D-05 -0.20140295D-05 -0.14123765D-05
  0.13883301D-20  0.13334745D-20  0.93512437D-21  0.38425946D-06  0.36907662D-06
  0.25882200D-06  0.83426258D-05 -0.18986494D-20  0.10401503D-04 -0.97523663D-05
  0.48805933D-20 -0.16136476D-04 -0.11073939D-05 -0.24293086D-21 -0.48566587D-06
  0.66354016D-05  0.83492180D-05 -0.14984620D-04  0.32202270D-20 -0.12908832D-04
  0.41725581D-20 -0.97574902D-06 -0.34819251D-05  0.44576741D-05 -0.77509946D-21
  0.96156899D-05  0.40059526D-20 -0.16452947D-05 -0.11362835D-05  0.27815782D-05
 -0.75988638D-21 -0.15940401D-05 -0.30746271D-20 -0.34813208D-05  0.11344916D-19
  0.40406638D-05  0.14500767D-05  0.48872131D-20  0.29118870D-05  0.89938858D-05
 -0.38921962D-19 -0.15033878D-04 -0.18359355D-19  0.16549348D-05 -0.34868036D-20
 -0.44391821D-05  0.76970318D-06 -0.33127649D-20  0.54993648D-05 -0.57345076D-05
  0.13773176D-19  0.78181815D-05  0.97989429D-20 -0.16732287D-05 -0.31178153D-05
 -0.52730072D-05 -0.79408567D-05 -0.98312957D-05 -0.83659890D-05 -0.31834131D-05
  0.14909282D-07  0.12166626D-05  0.22812538D-05  0.38810914D-05  0.60269252D-05
  0.79980803D-05  0.84288788D-05  0.52264425D-05 -0.34766316D-05 -0.19102407D-05
  0.22382831D-04  0.89194895D-05 -0.29920307D-05 -0.28738097D-05 -0.20153137D-05
  0.53468902D-22  0.51356241D-22  0.36014541D-22  0.45604467D-05  0.43802545D-05
  0.30717368D-05  0.92245747D-05 -0.42649681D-21 -0.30719645D-05 -0.13254837D-04
 -0.22750230D-20  0.43391422D-05 -0.13916565D-05  0.31854949D-21  0.15987790D-06
 -0.71310150D-07  0.12867752D-05 -0.12154651D-05 -0.76778917D-20  0.39428813D-05
  0.12180889D-19 -0.29928348D-05 -0.10462611D-05  0.40390958D-05  0.59534254D-20
 -0.40665157D-05 -0.92015255D-20  0.78729118D-06  0.10117530D-05 -0.17990442D-05
 -0.10605482D-20  0.13444263D-05  0.13322366D-20  0.35080952D-05 -0.58369349D-20
 -0.13807709D-05 -0.32163955D-05  0.93270508D-20 -0.42883919D-05 -0.73078900D-05
  0.81837539D-20  0.84307046D-05 -0.86256631D-20 -0.22191619D-06  0.20614696D-20
 -0.53656852D-06  0.20675105D-05 -0.53827494D-20  0.47291357D-05 -0.14017619D-05
 -0.80165931D-21 -0.31194301D-05  0.88593150D-20 -0.13931474D-02 -0.26206799D-02
 -0.45365261D-02 -0.74362343D-02 -0.11649005D-01 -0.17509447D-01 -0.25025398D-01
 -0.33221837D-01 -0.38691342D-01 -0.35537623D-01 -0.20780246D-01 -0.54528405D-02
 -0.29810466D-03  0.10669747D-04 -0.29818576D-05  0.88541414D-06 -0.15094778D-06
 -0.12315263D-07 -0.32778323D-05 -0.60223935D-05 -0.10414106D-04 -0.17054555D-04
 -0.26851630D-04 -0.40548592D-04 -0.59188561D-04 -0.81506244D-04 -0.10414316D-03
 -0.11352825D-03 -0.93451228D-04 -0.25623692D-04  0.51684649D-04  0.50368947D-04
  0.11022145D-04  0.37132591D-06  0.12579335D-07 -0.32000206D-10  0.40957569D-05
  0.80293241D-05  0.14063162D-04  0.22974631D-04  0.36236527D-04  0.54679300D-04
  0.80170719D-04  0.11068894D-03  0.14350876D-03  0.15959018D-03  0.13861390D-03
  0.40264859D-04 -0.10150722D-03 -0.14790317D-03 -0.25462060D-04  0.62116524D-04
  0.29565899D-04 -0.14278276D-06 -0.18941153D-05 -0.41040905D-05 -0.69865632D-05
 -0.11403953D-04 -0.17977212D-04 -0.27132806D-04 -0.39781115D-04 -0.54994567D-04
 -0.71377431D-04 -0.79741072D-04 -0.69655632D-04 -0.20632066D-04  0.53631520D-04
  0.82503405D-04  0.14440615D-04 -0.45552122D-04 -0.38666863D-04  0.14426261D-04
 -0.80263772D-05 -0.19266624D-06  0.60275729D-06 -0.10012857D-03 -0.14366676D-03
 -0.19022243D-03 -0.21965301D-03 -0.20362845D-03 -0.13183277D-03 -0.46532126D-04
 -0.54539664D-05 -0.79290578D-07 -0.11611222D-07 -0.11938140D-09  0.54500279D-19
  0.78198251D-19  0.10353864D-18  0.11955780D-18  0.11083558D-18  0.71756973D-19
  0.25327576D-19  0.29686103D-20  0.43158100D-22  0.63200233D-23  0.64979654D-25
  0.25773205D-04  0.36979986D-04  0.48963468D-04  0.56538932D-04  0.52414191D-04
  0.33933903D-04  0.11977422D-04  0.14038571D-05  0.20409484D-07  0.29887417D-08
  0.30728906D-10  0.41373310D-03  0.59722848D-03  0.79788297D-03  0.94790945D-03
  0.91859692D-03  0.63854203D-03  0.20777545D-03 -0.93515442D-04 -0.10102788D-03
 -0.26009318D-04  0.25369688D-07 -0.19492337D-18 -0.28137412D-18 -0.37590910D-18
 -0.44659155D-18 -0.43278144D-18 -0.30083831D-18 -0.97889900D-19  0.44058223D-19
  0.47597580D-19  0.12253851D-19 -0.11952500D-22 -0.10936119D-03 -0.15786414D-03
 -0.21090272D-03 -0.25055890D-03 -0.24281078D-03 -0.16878446D-03 -0.54920845D-04
  0.24718739D-04  0.26704485D-04  0.68749878D-05 -0.67059158D-08 -0.30752789D-03
 -0.44685167D-03 -0.59409447D-03 -0.71287224D-03 -0.68970705D-03 -0.48961170D-03
 -0.15217255D-03  0.87367876D-04  0.10036629D-03  0.26653152D-04 -0.96165402D-05
  0.13499418D-18  0.19615254D-18  0.26078707D-18  0.31292644D-18  0.30275771D-18
  0.21492272D-18  0.66798523D-19 -0.38351498D-19 -0.44057357D-19 -0.11699818D-19
  0.42213310D-20  0.84133819D-04  0.12225017D-03  0.16253302D-03  0.19502837D-03
  0.18869081D-03  0.13394851D-03  0.41631533D-04 -0.23902200D-04 -0.27458321D-04
 -0.72917986D-05  0.26309037D-05  0.41926104D-05 -0.48471158D-20 -0.47643501D-06
  0.18307587D-05  0.16566068D-21  0.43579432D-06 -0.27238356D-07  0.34660411D-23
  0.10497451D-06 -0.34610166D-04 -0.36215809D-04 -0.30857808D-04 -0.20322199D-04
 -0.93658966D-05 -0.28046329D-05 -0.47718451D-06  0.35116795D-04  0.36745942D-04
  0.31309510D-04  0.20619679D-04  0.95029962D-05  0.28456876D-05  0.48416962D-06
 -0.50662944D-06 -0.53013312D-06 -0.45170179D-06 -0.29747978D-06 -0.13709957D-06
 -0.41054689D-07 -0.69851073D-08 -0.19332549D-19 -0.20229429D-19 -0.17236557D-19
 -0.11351576D-19 -0.52316032D-20 -0.15666121D-20 -0.26654576D-21  0.18390223D-04
  0.19243387D-04  0.16396396D-04  0.10798266D-04  0.49765994D-05  0.14902508D-05
  0.25355353D-06  0.18361981D-19  0.19213835D-19  0.16371216D-19  0.10781683D-19
  0.49689568D-20  0.14879622D-20  0.25316415D-21  0.20818241D-05 -0.21158446D-05
  0.34020505D-07  0.23865073D-20 -0.13219260D-05 -0.18821999D-20  0.83683306D-06
 -0.37520535D-06 -0.46162771D-06 -0.34538227D-20 -0.19054497D-05  0.22353613D-20
 -0.44100801D-06  0.27009127D-06  0.17091675D-06  0.14108439D-21 -0.17306921D-06
  0.66952555D-22 -0.10316780D-05 -0.10684335D-20  0.31232484D-06  0.31007970D-05
  0.27353215D-20 -0.10184955D-05 -0.57629492D-08  0.46997909D-21  0.81521026D-07
 -0.37084640D-22  0.42230706D-06 -0.38479502D-22 -0.23100806D-06 -0.10582300D-05
 -0.16966877D-22  0.95787998D-06 -0.20869114D-06  0.13240538D-21 -0.26485580D-06
 -0.18634668D-20
MO    2     MO 0.0        OCC NO =    2.0000000  ORB. ENERGY = -483.307637
  0.13961106D-02  0.26262540D-02  0.45461752D-02  0.74520510D-02  0.11673782D-01
  0.17546689D-01  0.25078626D-01  0.33292499D-01  0.38773637D-01  0.35613211D-01
  0.20824445D-01  0.54644386D-02  0.29873872D-03 -0.10692441D-04  0.29881999D-05
 -0.88729739D-06  0.15126884D-06  0.12341457D-07 -0.30216746D-05 -0.55517525D-05
 -0.96002596D-05 -0.15721767D-04 -0.24753215D-04 -0.37379781D-04 -0.54563064D-04
 -0.75136654D-04 -0.96004528D-04 -0.10465619D-03 -0.86148155D-04 -0.23621239D-04
  0.47645571D-04  0.46432690D-04  0.10160781D-04  0.34230735D-06  0.11596279D-07
 -0.29499438D-10  0.39432471D-05  0.77303438D-05  0.13539506D-04  0.22119146D-04
  0.34887221D-04  0.52643259D-04  0.77185478D-04  0.10656732D-03  0.13816506D-03
  0.15364768D-03  0.13345247D-03  0.38765554D-04 -0.97727492D-04 -0.14239584D-03
 -0.24513953D-04  0.59803550D-04  0.28464982D-04 -0.13746609D-06 -0.18417864D-05
 -0.39907063D-05 -0.67935446D-05 -0.11088894D-04 -0.17480554D-04 -0.26383204D-04
 -0.38682077D-04 -0.53475225D-04 -0.69405477D-04 -0.77538055D-04 -0.67731247D-04
 -0.20062061D-04  0.52149835D-04  0.80224073D-04  0.14041663D-04 -0.44293648D-04
 -0.37598609D-04  0.14027705D-04 -0.76096502D-05 -0.11905315D-06  0.60750455D-06
  0.54522698D-04  0.78230418D-04  0.10358123D-03  0.11960698D-03  0.11088117D-03
  0.71786490D-04  0.25337995D-04  0.29698315D-05  0.43175853D-07  0.63226231D-08
  0.65006384D-10  0.40026438D-18  0.57430851D-18  0.76041501D-18  0.87806389D-18
  0.81400561D-18  0.52700207D-18  0.18601238D-18  0.21802255D-19  0.31696443D-21
  0.46415913D-22  0.47722767D-24  0.87246830D-04  0.12518375D-03  0.16574995D-03
  0.19139423D-03  0.17743125D-03  0.11487223D-03  0.40545678D-04  0.47523030D-05
  0.69089691D-07  0.10117416D-07  0.10402275D-09 -0.22263024D-03 -0.32136930D-03
 -0.42934171D-03 -0.51007112D-03 -0.49429801D-03 -0.34360017D-03 -0.11180420D-03
  0.50320763D-04  0.54363212D-04  0.13995643D-04 -0.13651457D-07 -0.24545826D-18