 Molden2AIM, Version 4.0.0 (06/02/2016)           Time: Fri Jun 29 19:39:09 2018
GAUSSIAN             24 MOL ORBITALS    412 PRIMITIVES        4 NUCLEI
  Cl   1    (CENTRE  1)  -0.74345605  0.00000000 -0.85565287  CHARGE = 17.0
  N    2    (CENTRE  2)  -0.15111195  0.00000000  2.45244688  CHARGE =  7.0
  N    3    (CENTRE  3)   1.95592701  0.00000000  3.29518158  CHARGE =  7.0
  Cl   4    (CENTRE  4)   4.66620056  0.00000000  1.30805520  CHARGE = 17.0
CENTRE ASSIGNMENTS    1  1  1  1  1  1  1  1  1  1  1  1  1  1  1  1  1  1  1  1
CENTRE ASSIGNMENTS    1  1  1  1  1  1  1  1  1  1  1  1  1  1  1  1  1  1  1  1
CENTRE ASSIGNMENTS    1  1  1  1  1  1  1  1  1  1  1  1  1  1  1  1  1  1  1  1
CENTRE ASSIGNMENTS    1  1  1  1  1  1  1  1  1  1  1  1  1  1  1  1  1  1  1  1
CENTRE ASSIGNMENTS    1  1  1  1  1  1  1  1  1  1  1  1  1  1  1  1  1  1  1  1
CENTRE ASSIGNMENTS    1  1  1  1  1  1  1  1  1  1  1  1  1  1  1  1  1  1  1  1
CENTRE ASSIGNMENTS    1  1  1  1  1  1  1  1  1  1  1  2  2  2  2  2  2  2  2  2
CENTRE ASSIGNMENTS    2  2  2  2  2  2  2  2  2  2  2  2  2  2  2  2  2  2  2  2
CENTRE ASSIGNMENTS    2  2  2  2  2  2  2  2  2  2  2  2  2  2  2  2  2  2  2  2
CENTRE ASSIGNMENTS    2  2  2  2  2  2  2  2  2  2  2  2  2  2  2  2  2  2  2  2
CENTRE ASSIGNMENTS    2  2  2  2  2  2  3  3  3  3  3  3  3  3  3  3  3  3  3  3
CENTRE ASSIGNMENTS    3  3  3  3  3  3  3  3  3  3  3  3  3  3  3  3  3  3  3  3
CENTRE ASSIGNMENTS    3  3  3  3  3  3  3  3  3  3  3  3  3  3  3  3  3  3  3  3
CENTRE ASSIGNMENTS    3  3  3  3  3  3  3  3  3  3  3  3  3  3  3  3  3  3  3  3
CENTRE ASSIGNMENTS    3  4  4  4  4  4  4  4  4  4  4  4  4  4  4  4  4  4  4  4
CENTRE ASSIGNMENTS    4  4  4  4  4  4  4  4  4  4  4  4  4  4  4  4  4  4  4  4
CENTRE ASSIGNMENTS    4  4  4  4  4  4  4  4  4  4  4  4  4  4  4  4  4  4  4  4
CENTRE ASSIGNMENTS    4  4  4  4  4  4  4  4  4  4  4  4  4  4  4  4  4  4  4  4
CENTRE ASSIGNMENTS    4  4  4  4  4  4  4  4  4  4  4  4  4  4  4  4  4  4  4  4
CENTRE ASSIGNMENTS    4  4  4  4  4  4  4  4  4  4  4  4  4  4  4  4  4  4  4  4
CENTRE ASSIGNMENTS    4  4  4  4  4  4  4  4  4  4  4  4
TYPE ASSIGNMENTS      1  1  1  1  1  1  1  1  1  1  1  1  1  1  1  1  1  1  1  1
TYPE ASSIGNMENTS      1  1  1  1  1  1  1  1  1  1  1  1  1  1  1  1  1  1  1  1
TYPE ASSIGNMENTS      1  1  2  2  2  2  2  2  2  3  3  3  3  3  3  3  4  4  4  4
TYPE ASSIGNMENTS      4  4  4  2  2  2  2  2  2  2  3  3  3  3  3  3  3  4  4  4
TYPE ASSIGNMENTS      4  4  4  4  2  3  4  2  3  4  2  3  4  5  6  7  8  9 10  5
TYPE ASSIGNMENTS      6  7  8  9 10  5  6  7  8  9 10 11 12 13 17 14 15 18 19 16
TYPE ASSIGNMENTS     20 11 12 13 17 14 15 18 19 16 20  1  1  1  1  1  1  1  1  1
TYPE ASSIGNMENTS      1  1  1  1  1  1  1  1  1  1  2  2  2  3  3  3  4  4  4  2
TYPE ASSIGNMENTS      3  4  2  3  4  2  3  4  5  6  7  8  9 10  5  6  7  8  9 10
TYPE ASSIGNMENTS      5  6  7  8  9 10 11 12 13 17 14 15 18 19 16 20 11 12 13 17
TYPE ASSIGNMENTS     14 15 18 19 16 20  1  1  1  1  1  1  1  1  1  1  1  1  1  1
TYPE ASSIGNMENTS      1  1  1  1  1  2  2  2  3  3  3  4  4  4  2  3  4  2  3  4
TYPE ASSIGNMENTS      2  3  4  5  6  7  8  9 10  5  6  7  8  9 10  5  6  7  8  9
TYPE ASSIGNMENTS     10 11 12 13 17 14 15 18 19 16 20 11 12 13 17 14 15 18 19 16
TYPE ASSIGNMENTS     20  1  1  1  1  1  1  1  1  1  1  1  1  1  1  1  1  1  1  1
TYPE ASSIGNMENTS      1  1  1  1  1  1  1  1  1  1  1  1  1  1  1  1  1  1  1  1
TYPE ASSIGNMENTS      1  1  1  2  2  2  2  2  2  2  3  3  3  3  3  3  3  4  4  4
TYPE ASSIGNMENTS      4  4  4  4  2  2  2  2  2  2  2  3  3  3  3  3  3  3  4  4
TYPE ASSIGNMENTS      4  4  4  4  4  2  3  4  2  3  4  2  3  4  5  6  7  8  9 10
TYPE ASSIGNMENTS      5  6  7  8  9 10  5  6  7  8  9 10 11 12 13 17 14 15 18 19
TYPE ASSIGNMENTS     16 20 11 12 13 17 14 15 18 19 16 20
EXPONENTS  0.4561000D+06 0.6833000D+05 0.1555000D+05 0.4405000D+04 0.1439000D+04
EXPONENTS  0.5204000D+03 0.2031000D+03 0.8396000D+02 0.3620000D+02 0.1583000D+02
EXPONENTS  0.6334000D+01 0.2694000D+01 0.4313000D+00 0.4561000D+06 0.6833000D+05
EXPONENTS  0.1555000D+05 0.4405000D+04 0.1439000D+04 0.5204000D+03 0.2031000D+03
EXPONENTS  0.8396000D+02 0.3620000D+02 0.1583000D+02 0.6334000D+01 0.2694000D+01
EXPONENTS  0.4313000D+00 0.4561000D+06 0.6833000D+05 0.1555000D+05 0.4405000D+04
EXPONENTS  0.1439000D+04 0.5204000D+03 0.2031000D+03 0.8396000D+02 0.3620000D+02
EXPONENTS  0.1583000D+02 0.6334000D+01 0.2694000D+01 0.4313000D+00 0.9768000D+00
EXPONENTS  0.1625000D+00 0.5910000D-01 0.6633000D+03 0.1568000D+03 0.4998000D+02
EXPONENTS  0.1842000D+02 0.7240000D+01 0.2922000D+01 0.3818000D+00 0.6633000D+03
EXPONENTS  0.1568000D+03 0.4998000D+02 0.1842000D+02 0.7240000D+01 0.2922000D+01
EXPONENTS  0.3818000D+00 0.6633000D+03 0.1568000D+03 0.4998000D+02 0.1842000D+02
EXPONENTS  0.7240000D+01 0.2922000D+01 0.3818000D+00 0.6633000D+03 0.1568000D+03
EXPONENTS  0.4998000D+02 0.1842000D+02 0.7240000D+01 0.2922000D+01 0.3818000D+00
EXPONENTS  0.6633000D+03 0.1568000D+03 0.4998000D+02 0.1842000D+02 0.7240000D+01
EXPONENTS  0.2922000D+01 0.3818000D+00 0.6633000D+03 0.1568000D+03 0.4998000D+02
EXPONENTS  0.1842000D+02 0.7240000D+01 0.2922000D+01 0.3818000D+00 0.1022000D+01
EXPONENTS  0.1022000D+01 0.1022000D+01 0.1301000D+00 0.1301000D+00 0.1301000D+00
EXPONENTS  0.4190000D-01 0.4190000D-01 0.4190000D-01 0.1046000D+01 0.1046000D+01
EXPONENTS  0.1046000D+01 0.1046000D+01 0.1046000D+01 0.1046000D+01 0.3440000D+00
EXPONENTS  0.3440000D+00 0.3440000D+00 0.3440000D+00 0.3440000D+00 0.3440000D+00
EXPONENTS  0.1350000D+00 0.1350000D+00 0.1350000D+00 0.1350000D+00 0.1350000D+00
EXPONENTS  0.1350000D+00 0.7060000D+00 0.7060000D+00 0.7060000D+00 0.7060000D+00
EXPONENTS  0.7060000D+00 0.7060000D+00 0.7060000D+00 0.7060000D+00 0.7060000D+00
EXPONENTS  0.7060000D+00 0.3120000D+00 0.3120000D+00 0.3120000D+00 0.3120000D+00
EXPONENTS  0.3120000D+00 0.3120000D+00 0.3120000D+00 0.3120000D+00 0.3120000D+00
EXPONENTS  0.3120000D+00 0.1142000D+05 0.1712000D+04 0.3893000D+03 0.1100000D+03
EXPONENTS  0.3557000D+02 0.1254000D+02 0.4644000D+01 0.5118000D+00 0.1142000D+05
EXPONENTS  0.1712000D+04 0.3893000D+03 0.1100000D+03 0.3557000D+02 0.1254000D+02
EXPONENTS  0.4644000D+01 0.5118000D+00 0.1293000D+01 0.1787000D+00 0.5760000D-01
EXPONENTS  0.2663000D+02 0.5948000D+01 0.1742000D+01 0.2663000D+02 0.5948000D+01
EXPONENTS  0.1742000D+01 0.2663000D+02 0.5948000D+01 0.1742000D+01 0.5550000D+00
EXPONENTS  0.5550000D+00 0.5550000D+00 0.1725000D+00 0.1725000D+00 0.1725000D+00
EXPONENTS  0.4910000D-01 0.4910000D-01 0.4910000D-01 0.1654000D+01 0.1654000D+01
EXPONENTS  0.1654000D+01 0.1654000D+01 0.1654000D+01 0.1654000D+01 0.4690000D+00
EXPONENTS  0.4690000D+00 0.4690000D+00 0.4690000D+00 0.4690000D+00 0.4690000D+00
EXPONENTS  0.1510000D+00 0.1510000D+00 0.1510000D+00 0.1510000D+00 0.1510000D+00
EXPONENTS  0.1510000D+00 0.1093000D+01 0.1093000D+01 0.1093000D+01 0.1093000D+01
EXPONENTS  0.1093000D+01 0.1093000D+01 0.1093000D+01 0.1093000D+01 0.1093000D+01
EXPONENTS  0.1093000D+01 0.3640000D+00 0.3640000D+00 0.3640000D+00 0.3640000D+00
EXPONENTS  0.3640000D+00 0.3640000D+00 0.3640000D+00 0.3640000D+00 0.3640000D+00
EXPONENTS  0.3640000D+00 0.1142000D+05 0.1712000D+04 0.3893000D+03 0.1100000D+03
EXPONENTS  0.3557000D+02 0.1254000D+02 0.4644000D+01 0.5118000D+00 0.1142000D+05
EXPONENTS  0.1712000D+04 0.3893000D+03 0.1100000D+03 0.3557000D+02 0.1254000D+02
EXPONENTS  0.4644000D+01 0.5118000D+00 0.1293000D+01 0.1787000D+00 0.5760000D-01
EXPONENTS  0.2663000D+02 0.5948000D+01 0.1742000D+01 0.2663000D+02 0.5948000D+01
EXPONENTS  0.1742000D+01 0.2663000D+02 0.5948000D+01 0.1742000D+01 0.5550000D+00
EXPONENTS  0.5550000D+00 0.5550000D+00 0.1725000D+00 0.1725000D+00 0.1725000D+00
EXPONENTS  0.4910000D-01 0.4910000D-01 0.4910000D-01 0.1654000D+01 0.1654000D+01
EXPONENTS  0.1654000D+01 0.1654000D+01 0.1654000D+01 0.1654000D+01 0.4690000D+00
EXPONENTS  0.4690000D+00 0.4690000D+00 0.4690000D+00 0.4690000D+00 0.4690000D+00
EXPONENTS  0.1510000D+00 0.1510000D+00 0.1510000D+00 0.1510000D+00 0.1510000D+00
EXPONENTS  0.1510000D+00 0.1093000D+01 0.1093000D+01 0.1093000D+01 0.1093000D+01
EXPONENTS  0.1093000D+01 0.1093000D+01 0.1093000D+01 0.1093000D+01 0.1093000D+01
EXPONENTS  0.1093000D+01 0.3640000D+00 0.3640000D+00 0.3640000D+00 0.3640000D+00
EXPONENTS  0.3640000D+00 0.3640000D+00 0.3640000D+00 0.3640000D+00 0.3640000D+00
EXPONENTS  0.3640000D+00 0.4561000D+06 0.6833000D+05 0.1555000D+05 0.4405000D+04
EXPONENTS  0.1439000D+04 0.5204000D+03 0.2031000D+03 0.8396000D+02 0.3620000D+02
EXPONENTS  0.1583000D+02 0.6334000D+01 0.2694000D+01 0.4313000D+00 0.4561000D+06
EXPONENTS  0.6833000D+05 0.1555000D+05 0.4405000D+04 0.1439000D+04 0.5204000D+03
EXPONENTS  0.2031000D+03 0.8396000D+02 0.3620000D+02 0.1583000D+02 0.6334000D+01
EXPONENTS  0.2694000D+01 0.4313000D+00 0.4561000D+06 0.6833000D+05 0.1555000D+05
EXPONENTS  0.4405000D+04 0.1439000D+04 0.5204000D+03 0.2031000D+03 0.8396000D+02
EXPONENTS  0.3620000D+02 0.1583000D+02 0.6334000D+01 0.2694000D+01 0.4313000D+00
EXPONENTS  0.9768000D+00 0.1625000D+00 0.5910000D-01 0.6633000D+03 0.1568000D+03
EXPONENTS  0.4998000D+02 0.1842000D+02 0.7240000D+01 0.2922000D+01 0.3818000D+00
EXPONENTS  0.6633000D+03 0.1568000D+03 0.4998000D+02 0.1842000D+02 0.7240000D+01
EXPONENTS  0.2922000D+01 0.3818000D+00 0.6633000D+03 0.1568000D+03 0.4998000D+02
EXPONENTS  0.1842000D+02 0.7240000D+01 0.2922000D+01 0.3818000D+00 0.6633000D+03
EXPONENTS  0.1568000D+03 0.4998000D+02 0.1842000D+02 0.7240000D+01 0.2922000D+01
EXPONENTS  0.3818000D+00 0.6633000D+03 0.1568000D+03 0.4998000D+02 0.1842000D+02
EXPONENTS  0.7240000D+01 0.2922000D+01 0.3818000D+00 0.6633000D+03 0.1568000D+03
EXPONENTS  0.4998000D+02 0.1842000D+02 0.7240000D+01 0.2922000D+01 0.3818000D+00
EXPONENTS  0.1022000D+01 0.1022000D+01 0.1022000D+01 0.1301000D+00 0.1301000D+00
EXPONENTS  0.1301000D+00 0.4190000D-01 0.4190000D-01 0.4190000D-01 0.1046000D+01
EXPONENTS  0.1046000D+01 0.1046000D+01 0.1046000D+01 0.1046000D+01 0.1046000D+01
EXPONENTS  0.3440000D+00 0.3440000D+00 0.3440000D+00 0.3440000D+00 0.3440000D+00
EXPONENTS  0.3440000D+00 0.1350000D+00 0.1350000D+00 0.1350000D+00 0.1350000D+00
EXPONENTS  0.1350000D+00 0.1350000D+00 0.7060000D+00 0.7060000D+00 0.7060000D+00
EXPONENTS  0.7060000D+00 0.7060000D+00 0.7060000D+00 0.7060000D+00 0.7060000D+00
EXPONENTS  0.7060000D+00 0.7060000D+00 0.3120000D+00 0.3120000D+00 0.3120000D+00
EXPONENTS  0.3120000D+00 0.3120000D+00 0.3120000D+00 0.3120000D+00 0.3120000D+00
EXPONENTS  0.3120000D+00 0.3120000D+00
MO    1     MO 0.0        OCC NO =    2.0000000  ORB. ENERGY = -101.786731
 -0.33345447D+00 -0.62389458D+00 -0.10779516D+01 -0.17474853D+01 -0.26536959D+01
 -0.36883252D+01 -0.43848866D+01 -0.39057197D+01 -0.19389162D+01 -0.31239046D+00
 -0.47960257D-02 -0.85704509D-03 -0.32026438D-04  0.47228331D-03  0.88215741D-03
  0.15310270D-02  0.24842346D-02  0.38453001D-02  0.55041977D-02  0.71846973D-02
  0.76564939D-02  0.57233846D-02  0.30212731D-03 -0.38821859D-02 -0.23064645D-02
  0.86475125D-05 -0.20036890D-03 -0.37395967D-03 -0.64990900D-03 -0.10533113D-02
 -0.16359574D-02 -0.23435561D-02 -0.30944475D-02 -0.33460156D-02 -0.26233196D-02
 -0.13053552D-03  0.22488482D-02  0.23279748D-02 -0.10534415D-02  0.13753719D-02
  0.42140811D-03  0.10009417D-03 -0.19048111D-02 -0.25090637D-02 -0.27680851D-02
 -0.22992128D-02 -0.12211678D-02 -0.31497479D-03  0.32378338D-06  0.75101596D-17
  0.98925657D-17  0.10913817D-16  0.90651799D-17  0.48147373D-17  0.12418612D-17
 -0.12765911D-20 -0.34379754D-02 -0.45285851D-02 -0.49960903D-02 -0.41498273D-02
 -0.22040741D-02 -0.56849500D-03  0.58439353D-06  0.16187045D-02  0.21252404D-02
  0.24197425D-02  0.20489386D-02  0.11737109D-02  0.26697851D-03 -0.12496064D-03
 -0.50015404D-17 -0.65666559D-17 -0.74766208D-17 -0.63308954D-17 -0.36265806D-17
 -0.82492128D-18  0.38610856D-18  0.28672829D-02  0.37645322D-02  0.42861969D-02
  0.36293755D-02  0.20790460D-02  0.47291084D-03 -0.22134830D-03  0.10165024D-03
 -0.10061571D-17  0.12850241D-03  0.77561943D-04 -0.43166433D-19  0.20892633D-03
  0.43533003D-05  0.37835702D-20  0.40989195D-05  0.35257769D-04  0.80179808D-04
 -0.11543758D-03 -0.39451899D-20 -0.64963720D-04 -0.17263030D-18 -0.27966999D-05
 -0.42561830D-05  0.70528829D-05  0.16104181D-19 -0.22099480D-04  0.11659636D-18
 -0.69461397D-05 -0.22696940D-04  0.29643080D-04 -0.17140946D-20  0.36509822D-04
 -0.21437156D-20 -0.65477720D-05 -0.21418350D-19 -0.44012148D-04  0.76489304D-04
  0.12396664D-20  0.65451374D-05 -0.56845988D-04  0.63015383D-19  0.12549131D-03
  0.39672366D-19  0.23338857D-05 -0.44149900D-20  0.14621575D-04 -0.29266937D-04
 -0.12165375D-19  0.16054096D-05  0.22265280D-04  0.25410345D-19 -0.45470136D-04
  0.73098528D-21  0.36654619D-04  0.68300485D-04  0.11551324D-03  0.17395654D-03
  0.21536949D-03  0.18326971D-03  0.69737507D-04 -0.32661049D-06 -0.24873512D-04
 -0.46638067D-04 -0.79345228D-04 -0.12321476D-03 -0.16351315D-03 -0.17232042D-03
 -0.10684965D-03  0.71076431D-04 -0.12417951D-05  0.26794081D-03 -0.21181291D-03
  0.11250507D-04  0.10805978D-04  0.75778975D-05  0.85264225D-20  0.81895268D-20
  0.57430615D-20 -0.89079157D-04 -0.85559465D-04 -0.60000203D-04  0.13348336D-03
  0.58071419D-20  0.24563800D-03  0.24423132D-03 -0.67198233D-19  0.15876211D-03
 -0.13011502D-04  0.10569548D-20 -0.30842877D-05  0.49193235D-04  0.50488547D-04
 -0.99681781D-04 -0.57737739D-19 -0.15473754D-03 -0.16071042D-18  0.17650642D-04
 -0.36737286D-04  0.19086644D-04  0.35787972D-19  0.26746239D-03  0.35668243D-19
  0.20694639D-04 -0.11821757D-04 -0.88728825D-05 -0.83058572D-20 -0.11722356D-04
  0.30652404D-20 -0.40816783D-04 -0.79674634D-19 -0.43513108D-05  0.35193585D-04
  0.13634328D-19  0.17185518D-03  0.87256763D-04  0.22538957D-18 -0.15880125D-03
  0.16528360D-18  0.96521134D-05  0.30649616D-19 -0.47167970D-04 -0.11553892D-04
  0.28615106D-19  0.73037415D-04 -0.17402448D-04 -0.12056396D-18  0.68466494D-04
 -0.90051433D-19 -0.34914978D-04 -0.65058920D-04 -0.11003094D-03 -0.16570050D-03
 -0.20514797D-03 -0.17457167D-03 -0.66427739D-04  0.31110944D-06  0.22511925D-04
  0.42210069D-04  0.71811887D-04  0.11151628D-03  0.14798859D-03  0.15595966D-03
  0.96704936D-04 -0.64328161D-04  0.23121138D-04 -0.14815937D-03  0.22735624D-03
 -0.43355655D-04 -0.41642588D-04 -0.29202657D-04  0.29482977D-19  0.28318047D-19
  0.19858570D-19  0.42542430D-04  0.40861496D-04  0.28654901D-04  0.26899174D-03
 -0.11007498D-19 -0.81779122D-04  0.33315533D-03  0.53776364D-19  0.30639319D-04
 -0.11392834D-04 -0.14385914D-20 -0.87493477D-05  0.13632580D-03 -0.83477060D-04
 -0.52848736D-04  0.24166604D-19 -0.22133678D-03 -0.53207769D-19 -0.16143614D-03
  0.50331983D-04  0.11110416D-03 -0.14672463D-19  0.22599032D-04  0.62820430D-19
 -0.44699547D-05  0.12576315D-04 -0.81063606D-05 -0.96907796D-20 -0.30568495D-04
 -0.60169285D-20  0.69057782D-04  0.56952875D-19 -0.32315290D-04 -0.93764384D-04
 -0.13240528D-18 -0.47520159D-04 -0.11340896D-03 -0.38453342D-19  0.14446603D-03
  0.96835744D-19  0.12569859D-04 -0.19108540D-19 -0.15816576D-04  0.46167459D-04
  0.55671439D-19  0.11186386D-03 -0.83877035D-04  0.16541815D-20 -0.64414129D-04
 -0.93515769D-19  0.51930057D+00  0.97161336D+00  0.16787326D+01  0.27214214D+01
  0.41326955D+01  0.57439608D+01  0.68287408D+01  0.60825170D+01  0.30195436D+01
  0.48649685D+00  0.74690225D-02  0.13347070D-02  0.49875918D-04 -0.68127461D-03
 -0.12725232D-02 -0.22085257D-02 -0.35835396D-02 -0.55468937D-02 -0.79398744D-02
 -0.10364016D-01 -0.11044589D-01 -0.82560543D-02 -0.43582244D-03  0.56001020D-02
  0.33271040D-02 -0.12474146D-04  0.28399762D-03  0.53004063D-03  0.92116397D-03
  0.14929358D-02  0.23187631D-02  0.33216950D-02  0.43859887D-02  0.47425548D-02
  0.37182245D-02  0.18501762D-03 -0.31874585D-02 -0.32996104D-02  0.14931204D-02
 -0.20547842D-02 -0.58616552D-03 -0.11780431D-03 -0.46069228D-02 -0.60683513D-02
 -0.66948131D-02 -0.55608118D-02 -0.29534822D-02 -0.76178922D-03  0.78309342D-06
  0.53386866D-17  0.70322483D-17  0.77582173D-17  0.64440913D-17  0.34226134D-17
  0.88279184D-18 -0.90748000D-21  0.16750514D-02  0.22064186D-02  0.24341966D-02
  0.20218801D-02  0.10738696D-02  0.27698230D-03 -0.28472839D-06  0.37990622D-02
  0.49878902D-02  0.56790799D-02  0.48088116D-02  0.27546724D-02  0.62659241D-03
 -0.29327973D-03  0.23586604D-18  0.30967482D-18  0.35258756D-18  0.29855666D-18
  0.17102475D-18  0.38902198D-19 -0.18208369D-19 -0.13390324D-02 -0.17580514D-02
 -0.20016708D-02 -0.16949326D-02 -0.97092267D-03 -0.22085122D-03  0.10337053D-03
  0.19727399D-03 -0.17911036D-18 -0.38130865D-04  0.25521146D-03  0.37330967D-20
 -0.13477160D-03  0.66991919D-05 -0.28013193D-21  0.58915625D-07  0.90869832D-04
 -0.10530520D-03  0.14435365D-04 -0.14029410D-19 -0.22167486D-03  0.56814753D-19
  0.74191125D-05  0.88645202D-05 -0.16283633D-04  0.41958060D-19  0.19961338D-04
 -0.33963432D-19 -0.35102879D-04  0.28861590D-04  0.62412887D-05 -0.35464760D-20
  0.56399852D-04  0.59680226D-21 -0.38607252D-04  0.18555845D-19 -0.22255967D-04
  0.18159833D-03 -0.37386107D-19  0.13118932D-03 -0.65776575D-04 -0.18281427D-19
 -0.64421423D-04  0.24480938D-19  0.15171549D-04 -0.50076262D-21  0.71138659D-05
 -0.67331780D-04  0.30551374D-20 -0.44850130D-04  0.21817134D-04 -0.15528495D-20
  0.23508532D-04  0.19380300D-19
MO    2     MO 0.0        OCC NO =    2.0000000  ORB. ENERGY = -101.786725
  0.51925640D+00  0.97153071D+00  0.16785898D+01  0.27211899D+01  0.41323440D+01
  0.57434722D+01  0.68281599D+01  0.60819996D+01  0.30192867D+01  0.48645546D+00
  0.74683872D-02  0.13345934D-02  0.49871675D-04 -0.60512719D-03 -0.11302907D-02
 -0.19616743D-02 -0.31830002D-02 -0.49269063D-02 -0.70524188D-02 -0.92056095D-02
 -0.98101130D-02 -0.73332586D-02 -0.38710969D-03  0.49741674D-02  0.29552269D-02
 -0.11079885D-04  0.24462459D-03  0.45655654D-03  0.79345509D-03  0.12859573D-02
  0.19972930D-02  0.28611798D-02  0.37779214D-02  0.40850537D-02  0.32027350D-02
  0.15936704D-03 -0.27455537D-02 -0.28421570D-02  0.12861163D-02 -0.19323496D-02
 -0.48777468D-03 -0.64378614D-04  0.10788285D-02  0.14210592D-02  0.15677612D-02
  0.13022059D-02  0.69163319D-03  0.17839238D-03 -0.18338130D-06 -0.11605144D-16
 -0.15286579D-16 -0.16864677D-16 -0.14008053D-16 -0.74400173D-17 -0.19189975D-17
  0.19726642D-20  0.30366839D-02  0.39999942D-02  0.44129306D-02  0.36654461D-02
  0.19468075D-02  0.50213844D-03 -0.51618125D-06 -0.85502590D-03 -0.11225863D-02
 -0.12781471D-02 -0.10822825D-02 -0.61997308D-03 -0.14102237D-03  0.66006228D-04
  0.78818349D-17  0.10348271D-16  0.11782268D-16  0.99767409D-17  0.57150613D-17
  0.12999782D-17 -0.60846133D-18 -0.23602574D-02 -0.30988449D-02 -0.35282629D-02
 -0.29875881D-02 -0.17114055D-02 -0.38928538D-03  0.18220698D-03 -0.57986172D-04
  0.15356612D-17 -0.11246785D-03 -0.51301930D-04  0.64076383D-19 -0.20094348D-03
 -0.22432670D-05 -0.59917291D-20 -0.20428882D-05 -0.57968147D-04 -0.77849127D-04
  0.13581727D-03  0.50785378D-22  0.67523377D-04  0.25521290D-18  0.85867714D-05
  0.12005978D-04 -0.20592749D-04 -0.25041271D-19  0.62514075D-05 -0.16995917D-18
  0.15401877D-04  0.19760541D-04 -0.35162418D-04  0.16099999D-20 -0.26076309D-04
  0.21645946D-20 -0.21106665D-04  0.29449455D-19  0.79675308D-04 -0.42124716D-04
  0.21025565D-20 -0.10019577D-03  0.10544471D-03 -0.90450921D-19 -0.13883016D-03
 -0.54492995D-19  0.65690271D-05  0.72450912D-20 -0.29593142D-04  0.14263475D-04
  0.15829790D-19  0.35644745D-04 -0.33970556D-04 -0.37565064D-19  0.53134681D-04
 -0.38430212D-20 -0.38215615D-05 -0.71209171D-05 -0.12043256D-04 -0.18136476D-04
 -0.22454134D-04 -0.19107455D-04 -0.72707390D-05  0.34051973D-07 -0.24428030D-06
 -0.45802784D-06 -0.77924163D-06 -0.12100800D-05 -0.16058465D-05 -0.16923418D-05
 -0.10493599D-05  0.69803459D-06  0.52834389D-04  0.22941741D-03  0.83531442D-04
  0.29529645D-04  0.28362871D-04  0.19890003D-04 -0.29850635D-19 -0.28671178D-19
 -0.20106209D-19 -0.48747148D-04 -0.46821053D-04 -0.32834154D-04 -0.40923191D-04
 -0.98894357D-20 -0.51335648D-04 -0.96885779D-04  0.96652969D-19 -0.15188124D-03
  0.58944332D-05 -0.97607320D-21 -0.30866904D-05 -0.46726310D-04 -0.90254841D-04
  0.13698115D-03  0.72335343D-19  0.14189972D-03  0.27925488D-18 -0.10796988D-04
  0.40661750D-04 -0.29864762D-04 -0.41365047D-19 -0.72351703D-04 -0.73962845D-19
 -0.63657766D-05  0.43876248D-05  0.19781518D-05  0.12006027D-19 -0.13292538D-04
 -0.66729023D-20  0.84088133D-05  0.10888637D-18 -0.34193343D-04  0.66523292D-06
 -0.73364990D-20  0.42783747D-04 -0.25891673D-04 -0.31932262D-18  0.59796283D-04
 -0.23348297D-18 -0.57147769D-05 -0.43177068D-19  0.38061136D-04  0.11573790D-05
 -0.38255967D-19 -0.75194273D-04  0.15986952D-04  0.16778717D-18 -0.38989136D-04
  0.12262173D-18  0.11777957D-04  0.21946489D-04  0.37117014D-04  0.55896167D-04
  0.69203080D-04  0.58888698D-04  0.22408236D-04 -0.10494733D-06 -0.10572581D-04
 -0.19823687D-04 -0.33725991D-04 -0.52372903D-04 -0.69501888D-04 -0.73245449D-04
 -0.45416851D-04  0.30211307D-04  0.47524630D-04  0.32015488D-03 -0.12214507D-04
  0.33299004D-04  0.31983296D-04  0.22428895D-04 -0.10208431D-19 -0.98050762D-20
 -0.68759962D-20 -0.80697237D-04 -0.77508732D-04 -0.54354473D-04 -0.51580511D-04
  0.23326857D-19  0.27584802D-04  0.39839069D-04 -0.77390242D-19 -0.61518337D-04
  0.28606553D-05  0.15107124D-20 -0.29227517D-05  0.60241517D-04 -0.61051105D-04
  0.80958733D-06 -0.47606753D-19 -0.10812949D-03  0.79564253D-19  0.12296841D-04
  0.21681535D-04 -0.33978376D-04  0.28117860D-19  0.14500945D-04 -0.83470310D-19
 -0.78953381D-05 -0.92859109D-06  0.88239292D-05  0.13064026D-19  0.55512260D-05
  0.11038116D-19 -0.29994310D-04 -0.62324758D-19  0.23978323D-04 -0.29632565D-05
  0.13713604D-18 -0.52937838D-04  0.92946186D-04  0.49838229D-19 -0.18997131D-04
 -0.51756784D-19  0.67577184D-05  0.23063723D-19 -0.96444319D-05  0.75237151D-05
 -0.63243758D-19  0.31384067D-04 -0.27796870D-04 -0.59474107D-20 -0.24507712D-05
  0.10332920D-18  0.33338567D+00  0.62376586D+00  0.10777292D+01  0.17471248D+01
  0.26531484D+01  0.36875642D+01  0.43839819D+01  0.39049139D+01  0.19385162D+01
  0.31232601D+00  0.47950362D-02  0.85686826D-03  0.32019830D-04 -0.35369370D-03
 -0.66064904D-03 -0.11465885D-02 -0.18604471D-02 -0.28797511D-02 -0.41221021D-02
 -0.53806309D-02 -0.57339600D-02 -0.42862515D-02 -0.22626360D-03  0.29073750D-02
  0.17273148D-02 -0.64761354D-05  0.13905051D-03  0.25951774D-03  0.45101899D-03
  0.73096911D-03  0.11353095D-02  0.16263636D-02  0.21474616D-02  0.23220430D-02
  0.18205118D-02  0.90588064D-04 -0.15606389D-02 -0.16155506D-02  0.73105948D-03
 -0.11847012D-02 -0.26813387D-03 -0.16877847D-04 -0.10540415D-02 -0.13884093D-02
 -0.15317407D-02 -0.12722867D-02 -0.67574237D-03 -0.17429367D-03  0.17916797D-06
  0.48305549D-17  0.63629249D-17  0.70197968D-17  0.58307481D-17  0.30968520D-17
  0.79876846D-18 -0.82110682D-21  0.83382641D-03  0.10983365D-02  0.12117225D-02
  0.10064748D-02  0.53456321D-03  0.13787945D-03 -0.14173538D-06  0.73249274D-03
  0.96170927D-03  0.10949768D-02  0.92718134D-03  0.53112517D-03  0.12081255D-03
 -0.56546922D-04 -0.10431958D-17 -0.13696396D-17 -0.15594354D-17 -0.13204658D-17
 -0.75641368D-18 -0.17205787D-18  0.80532552D-19 -0.61861013D-03 -0.81218976D-03
 -0.92473779D-03 -0.78302998D-03 -0.44854972D-03 -0.10202950D-03  0.47755421D-04
  0.41200542D-04 -0.22658204D-18 -0.28150882D-04  0.76447472D-04  0.24968065D-20
 -0.59437131D-04  0.26965642D-06  0.29664452D-22  0.47521956D-07  0.33102780D-04
 -0.37420881D-04  0.43181013D-05  0.53566868D-19 -0.11503938D-03 -0.16134755D-19
 -0.57794076D-05  0.91440466D-05 -0.33646390D-05 -0.51887291D-19  0.22572797D-04
  0.35748911D-19 -0.77641185D-05  0.85226105D-05 -0.75849208D-06  0.27903119D-20
  0.31129064D-04  0.70755227D-21 -0.23396880D-05 -0.16626831D-19 -0.28813651D-04
  0.55730060D-04  0.39855300D-19  0.13557766D-03 -0.48710996D-04  0.10025193D-19
 -0.49136704D-04  0.91369904D-20 -0.32349906D-06 -0.46415719D-22  0.90269070D-05
 -0.20842117D-04 -0.22753656D-20 -0.47820939D-04  0.21812614D-04  0.24146128D-20
  0.20740218D-04 -0.30429339D-19
MO    3     MO 0.0        OCC NO =    2.0000000  ORB. ENERGY =  -14.544078
  0.47112560D-04  0.88147781D-04  0.15229984D-03  0.24689580D-03  0.37493097D-03
  0.52110996D-03  0.61952457D-03  0.55182483D-03  0.27394237D-03  0.44136505D-04
  0.67761292D-06  0.12108876D-06  0.45248981D-08 -0.66170330D-04 -0.12359667D-03
 -0.21450802D-03 -0.34805935D-03 -0.53875453D-03 -0.77117817D-03 -0.10066284D-02
 -0.10727305D-02 -0.80188785D-03 -0.42330235D-04  0.54392251D-03  0.32315246D-03
 -0.12115795D-05  0.24023053D-04  0.44835566D-04  0.77920268D-04  0.12628583D-03
  0.19614167D-03  0.28097860D-03  0.37100606D-03  0.40116761D-03  0.31452060D-03
  0.15650441D-04 -0.26962368D-03 -0.27911049D-03  0.12630145D-03 -0.56187742D-03
  0.79373340D-03  0.37199667D-03  0.21535886D-02  0.28367595D-02  0.31296103D-02
  0.25995011D-02  0.13806582D-02  0.35611202D-03 -0.36607105D-06  0.23646247D-14
  0.31147414D-14  0.34362894D-14  0.28542334D-14  0.15159527D-14  0.39100842D-15
 -0.40194336D-18  0.16273690D-01  0.21436102D-01  0.23649042D-01  0.19643248D-01
  0.10433006D-01  0.26909766D-02 -0.27662325D-05 -0.19495267D-02 -0.25595857D-02
 -0.29142766D-02 -0.24676897D-02 -0.14135877D-02 -0.32154216D-03  0.15049943D-03
 -0.10737506D-14 -0.14097558D-14 -0.16051107D-14 -0.13591418D-14 -0.77856876D-15
 -0.17709738D-15  0.82891322D-16 -0.14469181D-01 -0.18996974D-01 -0.21629453D-01
 -0.18314932D-01 -0.10491498D-01 -0.23864519D-02  0.11169908D-02 -0.12113913D-03
 -0.14660962D-15 -0.10968465D-02  0.78704428D-04 -0.18596997D-16  0.37549163D-03
  0.98693863D-05 -0.14206321D-18  0.21019631D-04  0.77883783D-04 -0.78916628D-06
 -0.77094616D-04 -0.19349379D-18 -0.59638302D-04 -0.11748007D-17 -0.26279690D-03
 -0.22328301D-03  0.48607991D-03 -0.42723757D-19  0.26918828D-03  0.32440434D-18
 -0.73656905D-05 -0.23203664D-04  0.30569355D-04 -0.50422164D-21  0.40102775D-04
  0.27421191D-18 -0.32771278D-04  0.35806963D-18  0.27762692D-03  0.50169771D-04
  0.15499970D-18 -0.51093341D-03  0.48144064D-04 -0.12292086D-17 -0.32194737D-03
 -0.58709408D-18 -0.26725909D-04 -0.13640263D-18  0.48005685D-04 -0.46902580D-04
 -0.87612787D-19 -0.69808298D-04  0.12708031D-03  0.49682067D-18 -0.74208756D-04
 -0.48437485D-19  0.29168731D+00  0.54351636D+00  0.91922242D+00  0.13842980D+01
  0.17138508D+01  0.14584097D+01  0.55495178D+00 -0.25990759D-02 -0.71877780D-03
 -0.13477151D-02 -0.22928644D-02 -0.35605763D-02 -0.47250918D-02 -0.49795981D-02
 -0.30876685D-02  0.20539183D-02  0.31350605D-01 -0.63442528D-03 -0.48336187D-03
  0.61859503D-02  0.59415313D-02  0.41666119D-02  0.63820561D-16  0.61298886D-16
  0.42987010D-16 -0.25359232D-02 -0.24357239D-02 -0.17080977D-02  0.70186567D-03
 -0.13878364D-16  0.12230000D-02 -0.90023691D-03 -0.20664938D-17  0.23214564D-03
 -0.29129514D-04 -0.10962619D-18  0.31306406D-04  0.18897082D-02 -0.21226818D-02
  0.23297359D-03  0.65400143D-17  0.40625092D-02  0.57944099D-17 -0.70339249D-03
  0.98937541D-03 -0.28598292D-03 -0.93509415D-17 -0.16534749D-02 -0.61366412D-17
 -0.12825207D-03  0.13132600D-03 -0.30739266D-05 -0.41860817D-18 -0.22309463D-03
  0.42867818D-18 -0.39075813D-03  0.12463312D-17  0.38217428D-03  0.85453911D-03
 -0.48197933D-17 -0.12722091D-02  0.31773528D-03  0.10807997D-17  0.12568628D-03
 -0.49292925D-17 -0.21433952D-03  0.60834669D-18  0.22093395D-03  0.38739657D-03
 -0.19701268D-17 -0.70059439D-03  0.25562200D-03  0.14508677D-18  0.37792545D-04
 -0.25771449D-17  0.29033742D+00  0.54100102D+00  0.91496836D+00  0.13778916D+01
  0.17059192D+01  0.14516603D+01  0.55238352D+00 -0.25870477D-02 -0.71686181D-03
 -0.13441226D-02 -0.22867525D-02 -0.35510851D-02 -0.47124965D-02 -0.49663245D-02
 -0.30794380D-02  0.20484433D-02  0.31213135D-01 -0.64733552D-03 -0.48184269D-03
 -0.27350760D-02 -0.26270078D-02 -0.18422392D-02 -0.44124682D-16 -0.42381230D-16
 -0.29720644D-16 -0.60822839D-02 -0.58419610D-02 -0.40967863D-02 -0.13341413D-02
  0.98680605D-17  0.40582487D-03  0.50002761D-03  0.28045980D-17  0.78882492D-03
 -0.26174613D-06  0.15997622D-19  0.42493736D-04  0.31196965D-02 -0.21142331D-02
 -0.10054634D-02  0.20327607D-17  0.14486862D-02 -0.95735068D-18 -0.13351527D-02
  0.99143354D-03  0.34371912D-03 -0.95086413D-17 -0.34651564D-03 -0.33175500D-17
 -0.18042476D-03  0.13134341D-03  0.49081345D-04 -0.14153960D-18 -0.11494983D-03
 -0.47965185D-18  0.37933549D-03 -0.18613136D-17 -0.28321362D-03 -0.71793295D-03
  0.50473737D-17  0.13521758D-02 -0.42007351D-03  0.53656718D-18 -0.50253488D-03
  0.87786222D-17  0.17442564D-03 -0.63557833D-18 -0.17982392D-03 -0.30767079D-03
  0.24911433D-17  0.77908791D-03 -0.21560613D-03 -0.58440828D-18 -0.23961614D-03
  0.30659276D-18  0.47435761D-04  0.88752491D-04  0.15334464D-03  0.24858955D-03
  0.37750307D-03  0.52468487D-03  0.62377462D-03  0.55561045D-03  0.27582167D-03
  0.44439289D-04  0.68226147D-06  0.12191945D-06  0.45559398D-08 -0.66800195D-04
 -0.12477317D-03 -0.21654989D-03 -0.35137247D-03 -0.54388285D-03 -0.77851889D-03
 -0.10162103D-02 -0.10829417D-02 -0.80952089D-03 -0.42733170D-04  0.54910002D-03
  0.32622850D-03 -0.12231123D-05  0.24403533D-04  0.45545678D-04  0.79154379D-04
  0.12828596D-03  0.19924819D-03  0.28542878D-03  0.37688210D-03  0.40752135D-03
  0.31950202D-03  0.15898315D-04 -0.27389401D-03 -0.28353108D-03  0.12830182D-03
 -0.56087697D-03  0.78905053D-03  0.36982776D-03 -0.12743687D-01 -0.16786296D-01
 -0.18519217D-01 -0.15382339D-01 -0.81699337D-02 -0.21072642D-02  0.21661960D-05
 -0.63441019D-17 -0.83566060D-17 -0.92192940D-17 -0.76576834D-17 -0.40671817D-17
 -0.10490448D-17  0.10783824D-20  0.10271816D-01  0.13530287D-01  0.14927076D-01
  0.12398653D-01  0.65852257D-02  0.16985218D-02 -0.17460227D-05  0.11356621D-01
  0.14910411D-01  0.16976600D-01  0.14375088D-01  0.82346037D-02  0.18730867D-02
 -0.87670764D-03  0.49845000D-17  0.65442831D-17  0.74511477D-17  0.63093259D-17
  0.36142248D-17  0.82211075D-18 -0.38479307D-18 -0.91090819D-02 -0.11959557D-01
 -0.13616835D-01 -0.11530177D-01 -0.66049292D-02 -0.15023922D-02  0.70320225D-03