 Molden2AIM, Version 4.0.0 (06/02/2016)           Time: Fri Jun 29 19:45:45 2018
GAUSSIAN             16 MOL ORBITALS    300 PRIMITIVES        4 NUCLEI
  F    1    (CENTRE  1)  -0.20474238  0.00000000 -0.37321902  CHARGE =  9.0
  N    2    (CENTRE  2)  -0.07225179  0.00000000  2.21709283  CHARGE =  7.0
  N    3    (CENTRE  3)   2.06100901  0.00000000  3.07032874  CHARGE =  7.0
  F    4    (CENTRE  4)   3.94354473  0.00000000  1.28582446  CHARGE =  9.0
CENTRE ASSIGNMENTS    1  1  1  1  1  1  1  1  1  1  1  1  1  1  1  1  1  1  1  1
CENTRE ASSIGNMENTS    1  1  1  1  1  1  1  1  1  1  1  1  1  1  1  1  1  1  1  1
CENTRE ASSIGNMENTS    1  1  1  1  1  1  1  1  1  1  1  1  1  1  1  1  1  1  1  1
CENTRE ASSIGNMENTS    1  1  1  1  1  1  1  1  1  1  1  1  1  1  1  2  2  2  2  2
CENTRE ASSIGNMENTS    2  2  2  2  2  2  2  2  2  2  2  2  2  2  2  2  2  2  2  2
CENTRE ASSIGNMENTS    2  2  2  2  2  2  2  2  2  2  2  2  2  2  2  2  2  2  2  2
CENTRE ASSIGNMENTS    2  2  2  2  2  2  2  2  2  2  2  2  2  2  2  2  2  2  2  2
CENTRE ASSIGNMENTS    2  2  2  2  2  2  2  2  2  2  3  3  3  3  3  3  3  3  3  3
CENTRE ASSIGNMENTS    3  3  3  3  3  3  3  3  3  3  3  3  3  3  3  3  3  3  3  3
CENTRE ASSIGNMENTS    3  3  3  3  3  3  3  3  3  3  3  3  3  3  3  3  3  3  3  3
CENTRE ASSIGNMENTS    3  3  3  3  3  3  3  3  3  3  3  3  3  3  3  3  3  3  3  3
CENTRE ASSIGNMENTS    3  3  3  3  3  4  4  4  4  4  4  4  4  4  4  4  4  4  4  4
CENTRE ASSIGNMENTS    4  4  4  4  4  4  4  4  4  4  4  4  4  4  4  4  4  4  4  4
CENTRE ASSIGNMENTS    4  4  4  4  4  4  4  4  4  4  4  4  4  4  4  4  4  4  4  4
CENTRE ASSIGNMENTS    4  4  4  4  4  4  4  4  4  4  4  4  4  4  4  4  4  4  4  4
TYPE ASSIGNMENTS      1  1  1  1  1  1  1  1  1  1  1  1  1  1  1  1  1  1  1  2
TYPE ASSIGNMENTS      2  2  3  3  3  4  4  4  2  3  4  2  3  4  2  3  4  5  6  7
TYPE ASSIGNMENTS      8  9 10  5  6  7  8  9 10  5  6  7  8  9 10 11 12 13 17 14
TYPE ASSIGNMENTS     15 18 19 16 20 11 12 13 17 14 15 18 19 16 20  1  1  1  1  1
TYPE ASSIGNMENTS      1  1  1  1  1  1  1  1  1  1  1  1  1  1  2  2  2  3  3  3
TYPE ASSIGNMENTS      4  4  4  2  3  4  2  3  4  2  3  4  5  6  7  8  9 10  5  6
TYPE ASSIGNMENTS      7  8  9 10  5  6  7  8  9 10 11 12 13 17 14 15 18 19 16 20
TYPE ASSIGNMENTS     11 12 13 17 14 15 18 19 16 20  1  1  1  1  1  1  1  1  1  1
TYPE ASSIGNMENTS      1  1  1  1  1  1  1  1  1  2  2  2  3  3  3  4  4  4  2  3
TYPE ASSIGNMENTS      4  2  3  4  2  3  4  5  6  7  8  9 10  5  6  7  8  9 10  5
TYPE ASSIGNMENTS      6  7  8  9 10 11 12 13 17 14 15 18 19 16 20 11 12 13 17 14
TYPE ASSIGNMENTS     15 18 19 16 20  1  1  1  1  1  1  1  1  1  1  1  1  1  1  1
TYPE ASSIGNMENTS      1  1  1  1  2  2  2  3  3  3  4  4  4  2  3  4  2  3  4  2
TYPE ASSIGNMENTS      3  4  5  6  7  8  9 10  5  6  7  8  9 10  5  6  7  8  9 10
TYPE ASSIGNMENTS     11 12 13 17 14 15 18 19 16 20 11 12 13 17 14 15 18 19 16 20
EXPONENTS  0.1950000D+05 0.2923000D+04 0.6645000D+03 0.1875000D+03 0.6062000D+02
EXPONENTS  0.2142000D+02 0.7950000D+01 0.8815000D+00 0.1950000D+05 0.2923000D+04
EXPONENTS  0.6645000D+03 0.1875000D+03 0.6062000D+02 0.2142000D+02 0.7950000D+01
EXPONENTS  0.8815000D+00 0.2257000D+01 0.3041000D+00 0.9158000D-01 0.4388000D+02
EXPONENTS  0.9926000D+01 0.2930000D+01 0.4388000D+02 0.9926000D+01 0.2930000D+01
EXPONENTS  0.4388000D+02 0.9926000D+01 0.2930000D+01 0.9132000D+00 0.9132000D+00
EXPONENTS  0.9132000D+00 0.2672000D+00 0.2672000D+00 0.2672000D+00 0.7361000D-01
EXPONENTS  0.7361000D-01 0.7361000D-01 0.3107000D+01 0.3107000D+01 0.3107000D+01
EXPONENTS  0.3107000D+01 0.3107000D+01 0.3107000D+01 0.8550000D+00 0.8550000D+00
EXPONENTS  0.8550000D+00 0.8550000D+00 0.8550000D+00 0.8550000D+00 0.2920000D+00
EXPONENTS  0.2920000D+00 0.2920000D+00 0.2920000D+00 0.2920000D+00 0.2920000D+00
EXPONENTS  0.1917000D+01 0.1917000D+01 0.1917000D+01 0.1917000D+01 0.1917000D+01
EXPONENTS  0.1917000D+01 0.1917000D+01 0.1917000D+01 0.1917000D+01 0.1917000D+01
EXPONENTS  0.7240000D+00 0.7240000D+00 0.7240000D+00 0.7240000D+00 0.7240000D+00
EXPONENTS  0.7240000D+00 0.7240000D+00 0.7240000D+00 0.7240000D+00 0.7240000D+00
EXPONENTS  0.1142000D+05 0.1712000D+04 0.3893000D+03 0.1100000D+03 0.3557000D+02
EXPONENTS  0.1254000D+02 0.4644000D+01 0.5118000D+00 0.1142000D+05 0.1712000D+04
EXPONENTS  0.3893000D+03 0.1100000D+03 0.3557000D+02 0.1254000D+02 0.4644000D+01
EXPONENTS  0.5118000D+00 0.1293000D+01 0.1787000D+00 0.5760000D-01 0.2663000D+02
EXPONENTS  0.5948000D+01 0.1742000D+01 0.2663000D+02 0.5948000D+01 0.1742000D+01
EXPONENTS  0.2663000D+02 0.5948000D+01 0.1742000D+01 0.5550000D+00 0.5550000D+00
EXPONENTS  0.5550000D+00 0.1725000D+00 0.1725000D+00 0.1725000D+00 0.4910000D-01
EXPONENTS  0.4910000D-01 0.4910000D-01 0.1654000D+01 0.1654000D+01 0.1654000D+01
EXPONENTS  0.1654000D+01 0.1654000D+01 0.1654000D+01 0.4690000D+00 0.4690000D+00
EXPONENTS  0.4690000D+00 0.4690000D+00 0.4690000D+00 0.4690000D+00 0.1510000D+00
EXPONENTS  0.1510000D+00 0.1510000D+00 0.1510000D+00 0.1510000D+00 0.1510000D+00
EXPONENTS  0.1093000D+01 0.1093000D+01 0.1093000D+01 0.1093000D+01 0.1093000D+01
EXPONENTS  0.1093000D+01 0.1093000D+01 0.1093000D+01 0.1093000D+01 0.1093000D+01
EXPONENTS  0.3640000D+00 0.3640000D+00 0.3640000D+00 0.3640000D+00 0.3640000D+00
EXPONENTS  0.3640000D+00 0.3640000D+00 0.3640000D+00 0.3640000D+00 0.3640000D+00
EXPONENTS  0.1142000D+05 0.1712000D+04 0.3893000D+03 0.1100000D+03 0.3557000D+02
EXPONENTS  0.1254000D+02 0.4644000D+01 0.5118000D+00 0.1142000D+05 0.1712000D+04
EXPONENTS  0.3893000D+03 0.1100000D+03 0.3557000D+02 0.1254000D+02 0.4644000D+01
EXPONENTS  0.5118000D+00 0.1293000D+01 0.1787000D+00 0.5760000D-01 0.2663000D+02
EXPONENTS  0.5948000D+01 0.1742000D+01 0.2663000D+02 0.5948000D+01 0.1742000D+01
EXPONENTS  0.2663000D+02 0.5948000D+01 0.1742000D+01 0.5550000D+00 0.5550000D+00
EXPONENTS  0.5550000D+00 0.1725000D+00 0.1725000D+00 0.1725000D+00 0.4910000D-01
EXPONENTS  0.4910000D-01 0.4910000D-01 0.1654000D+01 0.1654000D+01 0.1654000D+01
EXPONENTS  0.1654000D+01 0.1654000D+01 0.1654000D+01 0.4690000D+00 0.4690000D+00
EXPONENTS  0.4690000D+00 0.4690000D+00 0.4690000D+00 0.4690000D+00 0.1510000D+00
EXPONENTS  0.1510000D+00 0.1510000D+00 0.1510000D+00 0.1510000D+00 0.1510000D+00
EXPONENTS  0.1093000D+01 0.1093000D+01 0.1093000D+01 0.1093000D+01 0.1093000D+01
EXPONENTS  0.1093000D+01 0.1093000D+01 0.1093000D+01 0.1093000D+01 0.1093000D+01
EXPONENTS  0.3640000D+00 0.3640000D+00 0.3640000D+00 0.3640000D+00 0.3640000D+00
EXPONENTS  0.3640000D+00 0.3640000D+00 0.3640000D+00 0.3640000D+00 0.3640000D+00
EXPONENTS  0.1950000D+05 0.2923000D+04 0.6645000D+03 0.1875000D+03 0.6062000D+02
EXPONENTS  0.2142000D+02 0.7950000D+01 0.8815000D+00 0.1950000D+05 0.2923000D+04
EXPONENTS  0.6645000D+03 0.1875000D+03 0.6062000D+02 0.2142000D+02 0.7950000D+01
EXPONENTS  0.8815000D+00 0.2257000D+01 0.3041000D+00 0.9158000D-01 0.4388000D+02
EXPONENTS  0.9926000D+01 0.2930000D+01 0.4388000D+02 0.9926000D+01 0.2930000D+01
EXPONENTS  0.4388000D+02 0.9926000D+01 0.2930000D+01 0.9132000D+00 0.9132000D+00
EXPONENTS  0.9132000D+00 0.2672000D+00 0.2672000D+00 0.2672000D+00 0.7361000D-01
EXPONENTS  0.7361000D-01 0.7361000D-01 0.3107000D+01 0.3107000D+01 0.3107000D+01
EXPONENTS  0.3107000D+01 0.3107000D+01 0.3107000D+01 0.8550000D+00 0.8550000D+00
EXPONENTS  0.8550000D+00 0.8550000D+00 0.8550000D+00 0.8550000D+00 0.2920000D+00
EXPONENTS  0.2920000D+00 0.2920000D+00 0.2920000D+00 0.2920000D+00 0.2920000D+00
EXPONENTS  0.1917000D+01 0.1917000D+01 0.1917000D+01 0.1917000D+01 0.1917000D+01
EXPONENTS  0.1917000D+01 0.1917000D+01 0.1917000D+01 0.1917000D+01 0.1917000D+01
EXPONENTS  0.7240000D+00 0.7240000D+00 0.7240000D+00 0.7240000D+00 0.7240000D+00
EXPONENTS  0.7240000D+00 0.7240000D+00 0.7240000D+00 0.7240000D+00 0.7240000D+00
MO    1     MO 0.0        OCC NO =    2.0000000  ORB. ENERGY =  -24.853609
  0.59282920D+00  0.11050593D+01  0.18733472D+01  0.28367998D+01  0.35474281D+01
  0.30540051D+01  0.11740711D+01 -0.50874422D-02  0.73175232D-03  0.13741013D-02
  0.23398575D-02  0.36653729D-02  0.49120308D-02  0.52835515D-02  0.31722374D-02
 -0.20861967D-02  0.64740100D-01  0.12081104D-03 -0.47990793D-03  0.93104837D-03
  0.91054497D-03  0.60163556D-03 -0.70203038D-16 -0.68657038D-16 -0.45364608D-16
  0.80202063D-02  0.78435866D-02  0.51825893D-02 -0.18944606D-03  0.10385143D-16
 -0.15463497D-02 -0.15662009D-03  0.20631729D-18 -0.65348255D-03 -0.37250407D-05
 -0.33220755D-19 -0.37682379D-04 -0.14520682D-02 -0.13031206D-02  0.27551888D-02
 -0.18654960D-17  0.73770863D-03 -0.11721041D-16  0.54754309D-03  0.53438740D-03
 -0.10819305D-02 -0.47845653D-19 -0.30974169D-03  0.11394617D-17  0.76201535D-04
  0.63573383D-04 -0.13977492D-03  0.18295157D-19 -0.10203773D-03 -0.65476240D-19
 -0.10327804D-03 -0.53216705D-18  0.79786329D-04  0.11215269D-03  0.82908889D-18
 -0.38331572D-03  0.19768142D-03  0.76741225D-18  0.14395673D-03 -0.75192682D-18
  0.59726625D-04  0.63570575D-19 -0.31384743D-03  0.32347595D-05 -0.89007090D-19
  0.55041303D-03 -0.18241464D-03 -0.10170464D-18  0.39112926D-03  0.70929980D-19
  0.79967472D-04  0.14900761D-03  0.25200922D-03  0.37951193D-03  0.46986039D-03
  0.39982998D-03  0.15214268D-03 -0.71254910D-06 -0.43245200D-04 -0.81085154D-04
 -0.13794997D-03 -0.21422174D-03 -0.28428471D-03 -0.29959706D-03 -0.18576929D-03
  0.12357380D-03 -0.51014707D-03  0.17755181D-02  0.43900878D-03  0.11431327D-03
  0.10979653D-03  0.76996902D-04 -0.12940387D-18 -0.12429087D-18 -0.87161335D-19
  0.10441451D-02  0.10028889D-02  0.70329490D-03 -0.23384739D-03  0.51201584D-19
 -0.10793600D-02  0.50633092D-03 -0.13907749D-18 -0.46123194D-04  0.26576427D-04
  0.10531095D-20 -0.20915867D-04 -0.16977810D-03 -0.80625169D-04  0.25040327D-03
  0.97192825D-19 -0.49696641D-04 -0.34278199D-19 -0.42996510D-03 -0.40055743D-03
  0.83052253D-03 -0.72496263D-19  0.32696378D-03 -0.38802270D-19  0.23787436D-04
 -0.28273576D-04  0.44861405D-05 -0.37394678D-19  0.27929666D-04 -0.22767816D-19
  0.26626311D-04 -0.32249006D-19 -0.81998939D-03  0.81889198D-04 -0.38174892D-19
  0.13063791D-02 -0.16176813D-03  0.13492191D-18  0.11535891D-02  0.17274534D-18
 -0.47903600D-04  0.65103167D-20 -0.38373864D-04 -0.51278057D-04 -0.22462429D-19
  0.10538552D-03  0.19498886D-03  0.29314784D-20  0.97360738D-05 -0.46225548D-19
  0.14346535D-04  0.26732655D-04  0.45211621D-04  0.68086197D-04  0.84295128D-04
  0.71731350D-04  0.27295102D-04 -0.12783461D-06 -0.10469422D-04 -0.19630264D-04
 -0.33396919D-04 -0.51861890D-04 -0.68823744D-04 -0.72530779D-04 -0.44973710D-04
  0.29916529D-04  0.54724969D-04 -0.12702454D-02 -0.32267389D-03  0.94204168D-04
  0.90481977D-04  0.63452208D-04  0.84943458D-19  0.81587176D-19  0.57214559D-19
  0.35542869D-04  0.34138501D-04  0.23940273D-04 -0.57848073D-04 -0.60792552D-20
 -0.14129719D-03  0.41753691D-03  0.12229564D-18  0.17770417D-03  0.10788851D-04
 -0.42511620D-21  0.22629745D-04 -0.10215002D-03 -0.65309830D-04  0.16745985D-03
  0.14424219D-19 -0.20115058D-03 -0.14649345D-18 -0.13397134D-03  0.11430897D-03
  0.19662371D-04 -0.42299734D-19  0.57711272D-03 -0.62246495D-19 -0.15258457D-04
  0.11957273D-04  0.33011842D-05 -0.65035739D-19 -0.20737401D-04  0.11794881D-19
  0.75894271D-04 -0.20106568D-19 -0.23834764D-04  0.85303158D-04 -0.17541828D-19
  0.24382403D-03 -0.31298597D-03  0.77861531D-19 -0.17231974D-03 -0.80660353D-19
  0.40499247D-04 -0.12247654D-20  0.47557788D-04 -0.31498582D-04  0.14367035D-19
 -0.14658033D-03 -0.89999158D-04 -0.10692738D-19  0.39069710D-05  0.56213613D-19
 -0.31671549D-01 -0.59037139D-01 -0.10008246D+00 -0.15155435D+00 -0.18951924D+00
 -0.16315841D+00 -0.62724051D-01  0.27179358D-03 -0.32364992D-04 -0.60775722D-04
 -0.10349057D-03 -0.16211737D-03 -0.21725635D-03 -0.23368850D-03 -0.14030627D-03
  0.92271304D-04 -0.35095538D-02  0.90460440D-04  0.12537505D-03  0.52723053D-03
  0.51561994D-03  0.34069190D-03 -0.61532401D-18 -0.60177345D-18 -0.39761716D-18
 -0.28173106D-03 -0.27552682D-03 -0.18205222D-03 -0.20084596D-03 -0.46122884D-20
  0.48318901D-04 -0.19255870D-03  0.62429709D-19  0.67378017D-04 -0.77186718D-05
  0.68035621D-20  0.60299635D-05 -0.20221255D-03  0.12390198D-03  0.78310573D-04
 -0.16204427D-18  0.41505085D-03 -0.73741003D-19  0.12757563D-03 -0.84549280D-04
 -0.43026352D-04 -0.15163490D-20 -0.21234379D-03  0.59634784D-19  0.32614108D-04
 -0.20524288D-04 -0.12089820D-04  0.14129929D-19 -0.98635997D-04 -0.48655980D-21
 -0.84621211D-04  0.47208792D-19  0.12075644D-03  0.23429996D-03 -0.12694684D-18
 -0.51748258D-03  0.19563674D-04 -0.14679537D-19  0.15521327D-03 -0.10247025D-18
  0.17072138D-04 -0.69524878D-20 -0.54297193D-04  0.35711268D-05  0.14602597D-19
  0.24792203D-03 -0.54787542D-04  0.62548663D-20 -0.85030448D-04  0.88122215D-20
MO    2     MO 0.0        OCC NO =    2.0000000  ORB. ENERGY =  -24.853565
  0.31658548D-01  0.59012906D-01  0.10004138D+00  0.15149214D+00  0.18944145D+00
  0.16309144D+00  0.62698305D-01 -0.27168202D-03  0.45829030D-04  0.86058802D-04
  0.14654330D-03  0.22955921D-03  0.30763635D-03  0.33090437D-03  0.19867455D-03
 -0.13065674D-03  0.34060997D-02  0.10417955D-03  0.74742314D-04 -0.88821855D-04
 -0.86865834D-04 -0.57395929D-04  0.15211274D-14  0.14876294D-14  0.98293961D-15
  0.28811431D-03  0.28176950D-03  0.18617702D-03  0.92499079D-04 -0.31941010D-15
  0.90657226D-05  0.76717800D-04 -0.10700260D-16  0.11273769D-03  0.10387859D-05
  0.64038851D-18  0.57113207D-05 -0.16249611D-04 -0.15017860D-04  0.31267471D-04
 -0.12798633D-17 -0.22292595D-03 -0.13105997D-16 -0.13428756D-05 -0.27813691D-04
  0.29156567D-04  0.79607833D-18  0.14853784D-03  0.67058078D-17 -0.29973097D-04
 -0.13828823D-04  0.43801920D-04 -0.32992942D-18  0.38795430D-04 -0.17736732D-17
  0.16283145D-03  0.72995122D-18 -0.10371332D-03 -0.26635646D-03  0.22186060D-17
  0.34538771D-03 -0.22213788D-03 -0.44084596D-17 -0.34247763D-04  0.79246449D-18
 -0.53384544D-04 -0.52977191D-18  0.45808118D-04  0.56757220D-04 -0.92222966D-18
 -0.11497637D-03  0.10339641D-03  0.25115454D-17 -0.22447984D-04 -0.26542340D-18
  0.22945038D-04  0.42754699D-04  0.72308915D-04  0.10889322D-03  0.13481687D-03
  0.11472307D-03  0.43654245D-04 -0.20445145D-06 -0.15126310D-04 -0.28361973D-04
 -0.48252154D-04 -0.74930500D-04 -0.99437132D-04 -0.10479309D-03 -0.64978399D-04
  0.43223656D-04  0.38305683D-06 -0.10875132D-02 -0.27754029D-03 -0.81072109D-04
 -0.77868791D-04 -0.54606972D-04  0.37508575D-17  0.36026538D-17  0.25264295D-17
  0.72481945D-04  0.69618042D-04  0.48820977D-04  0.11499009D-03 -0.15774318D-17
 -0.17853013D-03 -0.37310226D-03  0.37153635D-17 -0.16507702D-03 -0.20709668D-04
 -0.36171491D-19  0.67595795D-05 -0.93042220D-04 -0.74313013D-04  0.16735523D-03
 -0.26167479D-17 -0.26616880D-03 -0.14897467D-17  0.18261333D-03  0.72086939D-04
 -0.25470027D-03  0.25294874D-17 -0.14793655D-03  0.31292824D-17 -0.14328508D-04
  0.90061945D-05  0.53223138D-05  0.60481593D-18 -0.14647093D-04 -0.73008998D-18
  0.15560219D-05  0.29629408D-17  0.76381576D-04  0.66050842D-04  0.40182480D-17
 -0.16814431D-03 -0.70718908D-04 -0.12907070D-16 -0.61000416D-04 -0.21042397D-17
  0.48200688D-04 -0.99296476D-19 -0.17307721D-04  0.14741182D-04  0.82843566D-18
  0.26218012D-04 -0.15934325D-03 -0.53054624D-18  0.25705152D-04  0.57625677D-18
  0.81789906D-04  0.15240345D-03  0.25775244D-03  0.38816089D-03  0.48056836D-03
  0.40894198D-03  0.15560997D-03 -0.72878787D-06 -0.44490395D-04 -0.83419906D-04
 -0.14192208D-03 -0.22039001D-03 -0.29247036D-03 -0.30822361D-03 -0.19111830D-03
  0.12713197D-03 -0.50710342D-03  0.16494619D-02  0.40696934D-03 -0.79726275D-03
 -0.76576134D-03 -0.53700471D-03 -0.53488520D-18 -0.51375084D-18 -0.36027755D-18
  0.68483207D-03  0.65777302D-03  0.46127585D-03  0.91208829D-03 -0.12414644D-17
 -0.63846485D-03 -0.29207635D-03 -0.19257614D-17 -0.36561966D-03 -0.36926321D-05
  0.14701891D-19 -0.31240725D-04 -0.60026455D-05 -0.87628532D-04  0.93631178D-04
 -0.71862966D-18 -0.43964057D-03  0.40084512D-17  0.32051847D-03 -0.39056935D-03
  0.70050881D-04  0.19521515D-17 -0.12203728D-02  0.13650403D-17  0.27100507D-04
 -0.27157974D-04  0.57466409D-07  0.86078833D-18  0.15765340D-04  0.72849702D-19
 -0.15068386D-03  0.10115488D-17  0.18684545D-03 -0.85045003D-03 -0.90655918D-18
 -0.13252517D-02  0.13025016D-02 -0.21280873D-17  0.76471532D-03  0.12973782D-18
 -0.70594592D-04 -0.16224946D-18 -0.28160030D-04  0.27193166D-04  0.11278839D-19
  0.41401366D-04  0.18459061D-03  0.47546954D-18  0.43078725D-04 -0.15679816D-17
  0.59282850D+00  0.11050580D+01  0.18733450D+01  0.28367964D+01  0.35474239D+01
  0.30540015D+01  0.11740697D+01 -0.50874361D-02  0.73248132D-03  0.13754702D-02
  0.23421885D-02  0.36690245D-02  0.49169244D-02  0.52888152D-02  0.31753977D-02
 -0.20882751D-02  0.64734469D-01  0.13156321D-03 -0.46916273D-03 -0.61832077D-02
 -0.60470421D-02 -0.39955364D-02  0.13679407D-16  0.13378161D-16  0.88395167D-17
  0.51634699D-02  0.50497608D-02  0.33365905D-02  0.11886114D-02 -0.81974710D-18
 -0.98919250D-03  0.54647210D-03 -0.92331824D-18 -0.35994771D-03  0.28018891D-04
 -0.77701462D-19 -0.24214169D-04  0.90080655D-03 -0.12969392D-02  0.39613266D-03
  0.24584073D-18 -0.42171172D-02  0.29424657D-17 -0.37056883D-03  0.52819681D-03
 -0.15762798D-03  0.12369986D-17  0.16287278D-02 -0.18891235D-17 -0.74404010D-04
  0.61712156D-04  0.12691854D-04 -0.40356525D-18  0.21132051D-03  0.57536880D-19
  0.75035705D-04 -0.28896315D-18 -0.12724429D-03 -0.15639750D-03  0.51490531D-18
  0.33810368D-03 -0.68709617D-04  0.35198412D-18  0.43629185D-04 -0.14775118D-17
 -0.54439233D-04  0.54913212D-19  0.11161538D-03 -0.27314603D-03  0.98557493D-19
 -0.60823109D-03  0.43646373D-03 -0.26329713D-18  0.27338494D-03  0.93811055D-18
MO    3     MO 0.0        OCC NO =    2.0000000  ORB. ENERGY =  -14.575235
  0.21960703D-04  0.40935701D-04  0.69396078D-04  0.10508611D-03  0.13141055D-03
  0.11313225D-03  0.43492166D-04 -0.18845867D-06 -0.19076653D-04 -0.35822575D-04
 -0.60999668D-04 -0.95555618D-04 -0.12805577D-03 -0.13774125D-03 -0.82699663D-04
  0.54386778D-04 -0.18927534D-03  0.13013939D-02  0.29870824D-03  0.26888215D-03
  0.26296087D-03  0.17374936D-03 -0.12630623D-14 -0.12352474D-14 -0.81618015D-15
 -0.68797467D-03 -0.67282420D-03 -0.44456339D-03 -0.13863382D-03 -0.29163694D-15
  0.12346819D-02 -0.13052787D-03  0.86841506D-16  0.73031930D-03  0.44091686D-05
 -0.20691852D-16  0.75566074D-05 -0.70338624D-04 -0.44616565D-03  0.51650427D-03
 -0.29082653D-15  0.16521985D-02 -0.11525712D-16 -0.35033310D-03 -0.16203710D-03
  0.51237019D-03  0.21470865D-17 -0.75095296D-03  0.46662326D-17 -0.46010935D-04
 -0.29828684D-04  0.75839619D-04 -0.86411143D-18 -0.68987258D-04 -0.12348382D-17
 -0.36430539D-03  0.30355262D-17  0.81917654D-03  0.30549367D-03  0.47833399D-17
 -0.77287407D-03  0.78742251D-03 -0.13889919D-16 -0.16846555D-02 -0.43512831D-18
  0.20974667D-03 -0.60677806D-18 -0.19247261D-03 -0.43738938D-05 -0.97345777D-18
  0.66119363D-04 -0.62486610D-03  0.27937919D-17  0.51129847D-03  0.28075653D-20
  0.29156379D+00  0.54328620D+00  0.91883316D+00  0.13837118D+01  0.17131250D+01
  0.14577921D+01  0.55471677D+00 -0.25979753D-02 -0.67988387D-03 -0.12747886D-02
 -0.21687947D-02 -0.33679092D-02 -0.44694114D-02 -0.47101461D-02 -0.29205911D-02
  0.19427783D-02  0.31265528D-01 -0.67171138D-03 -0.20352630D-03  0.64253031D-02
  0.61714268D-02  0.43278305D-02  0.11543262D-16  0.11087165D-16  0.77750856D-17
 -0.38216353D-02 -0.36706350D-02 -0.25741026D-02  0.70178226D-03 -0.34742246D-17
  0.13824640D-02 -0.77973734D-03 -0.16251685D-17  0.18918647D-03 -0.32213142D-04
 -0.84855660D-20 -0.82110394D-06  0.17560411D-02 -0.22706383D-02  0.51459715D-03
  0.49647638D-17  0.41995664D-02 -0.11373511D-16 -0.64558042D-03  0.98763844D-03
 -0.34205802D-03 -0.36810263D-17 -0.17560462D-02  0.24230361D-17 -0.10806930D-03
  0.11631630D-03 -0.82469953D-05 -0.63522055D-18 -0.21258378D-03 -0.14370997D-17
 -0.45411826D-03  0.14157536D-17  0.33628099D-03  0.79906582D-03  0.32181077D-17
 -0.12097522D-02  0.56328895D-03 -0.74653685D-17  0.20090920D-03 -0.13842198D-17
 -0.22265273D-03  0.15218294D-18  0.22930565D-03  0.36454636D-03 -0.88812551D-18
 -0.71039868D-03  0.30341182D-03  0.43157670D-18  0.22481736D-04 -0.42150711D-18
  0.29036635D+00  0.54105494D+00  0.91505954D+00  0.13780290D+01  0.17060893D+01
  0.14518050D+01  0.55243857D+00 -0.25873055D-02 -0.67775098D-03 -0.12707894D-02
 -0.21619909D-02 -0.33573436D-02 -0.44553902D-02 -0.46953697D-02 -0.29114288D-02
  0.19366835D-02  0.31143497D-01 -0.67909720D-03 -0.20241325D-03 -0.20234368D-02
 -0.19434869D-02 -0.13629072D-02  0.43975955D-17  0.42238379D-17  0.29620467D-17
 -0.71749009D-02 -0.68914066D-02 -0.48327300D-02 -0.14472941D-02 -0.11935121D-18
  0.52064815D-03  0.43711986D-03  0.24188232D-17  0.67312075D-03  0.23864810D-04
 -0.88950564D-20  0.21481046D-04  0.32556459D-02 -0.22619110D-02 -0.99373496D-03
  0.29409262D-17  0.10330137D-02 -0.11757857D-17 -0.13840685D-02  0.98891621D-03
  0.39515225D-03 -0.32428261D-17 -0.22715677D-03 -0.14795196D-18 -0.16720711D-03
  0.11628142D-03  0.50925691D-04 -0.11655882D-17 -0.89493621D-04 -0.12330268D-18
  0.31013069D-03  0.64417794D-18 -0.34748764D-03 -0.72702040D-03 -0.63274272D-18
  0.14506713D-02 -0.20337168D-03 -0.12997911D-17 -0.40820841D-03 -0.21413436D-17
  0.16154496D-03 -0.23219952D-18 -0.19509992D-03 -0.27996501D-03  0.63055347D-18
  0.81996555D-03 -0.20466988D-03  0.66045089D-19 -0.23466579D-03  0.23734885D-17
  0.21906021D-04  0.40833772D-04  0.69223282D-04  0.10482445D-03  0.13108334D-03
  0.11285055D-03  0.43383871D-04 -0.18798941D-06 -0.18998764D-04 -0.35676313D-04
 -0.60750609D-04 -0.95165469D-04 -0.12753292D-03 -0.13717886D-03 -0.82362005D-04
  0.54164720D-04 -0.18881336D-03  0.12984439D-02  0.29793746D-03  0.27894099D-03
  0.27279820D-03  0.18024930D-03 -0.20135586D-17 -0.19692163D-17 -0.13011445D-17
 -0.68298911D-03 -0.66794843D-03 -0.44134177D-03 -0.74846783D-03 -0.27673687D-17
  0.98652875D-03 -0.40609213D-03  0.18576207D-17  0.62045114D-03 -0.83326628D-05
 -0.17328773D-19  0.25286782D-05  0.10366574D-02 -0.44410461D-03 -0.59255276D-03
 -0.27997898D-17 -0.66056420D-03 -0.22952497D-17 -0.31725243D-03 -0.16160064D-03
  0.47885308D-03  0.97789196D-18 -0.82329067D-03  0.88776609D-18 -0.23682440D-04
 -0.29714125D-04  0.53396565D-04 -0.71358339D-18 -0.11906292D-03  0.35020814D-18
 -0.12510740D-03 -0.16963425D-17 -0.12069108D-03  0.93898727D-03  0.60161964D-17
  0.17884976D-02 -0.56366508D-03 -0.92716882D-18 -0.14264244D-02  0.17448873D-17
  0.17652603D-03  0.29659513D-18  0.10733014D-03 -0.34889373D-03 -0.12495690D-17
 -0.69309744D-03 -0.18068435D-03  0.35978367D-18  0.37110702D-03 -0.63430480D-18
MO    4     MO 0.0        OCC NO =    2.0000000  ORB. ENERGY =  -14.574517
  0.42790568D-04  0.79763473D-04  0.13521870D-03  0.20476096D-03  0.25605430D-03
  0.22043890D-03  0.84744760D-04 -0.36721292D-06 -0.22610704D-04 -0.42458897D-04
 -0.72300179D-04 -0.11325780D-03 -0.15177878D-03 -0.16325854D-03 -0.98020214D-04
  0.64462217D-04  0.13571035D-03 -0.75229766D-03 -0.24350809D-03  0.10829240D-03
  0.10590760D-03  0.69977629D-04  0.30527305D-14  0.29855038D-14  0.19726486D-14
  0.40310680D-03  0.39422965D-03  0.26048420D-03  0.56722271D-05 -0.12910008D-15
 -0.95350930D-03 -0.82762060D-03  0.97305393D-16 -0.34877437D-03 -0.30148823D-04
 -0.24589560D-16 -0.26858906D-05  0.35106344D-03  0.32992728D-03 -0.68099071D-03
 -0.29121313D-15  0.19106870D-02 -0.19016700D-16  0.20210539D-03  0.17138398D-03
 -0.37348937D-03  0.21657145D-17 -0.10998780D-02  0.66450027D-17 -0.94054449D-04
  0.48137578D-04  0.45916872D-04 -0.11403104D-17 -0.55093570D-03 -0.39924778D-17
 -0.30215991D-03 -0.43758676D-17 -0.98673714D-03 -0.32680688D-03 -0.32975935D-17
  0.18830957D-02  0.12332866D-02  0.16425196D-16  0.10771157D-02  0.69101082D-17
  0.23372088D-03  0.86556957D-18  0.38701665D-03  0.25136718D-03  0.38106802D-18
 -0.79212470D-03 -0.95252981D-03 -0.29777767D-17 -0.36892524D-03 -0.16329688D-17
 -0.29020358D+00 -0.54075164D+00 -0.91454658D+00 -0.13772565D+01 -0.17051329D+01
 -0.14509911D+01 -0.55212888D+00  0.25858551D-02  0.49499474D-03  0.92811977D-03
  0.15790079D-02  0.24520325D-02  0.32539897D-02  0.34292585D-02  0.21263590D-02
 -0.14144549D-02 -0.29574033D-01 -0.15752529D-02  0.34488707D-03 -0.30231713D-02
 -0.29037199D-02 -0.20362888D-02 -0.42857038D-17 -0.41163673D-17 -0.28866809D-17
  0.49695825D-02  0.47732246D-02  0.33473146D-02 -0.30347468D-02  0.25161349D-17
 -0.18615759D-02 -0.18857754D-03  0.66552104D-17 -0.75025058D-03  0.33063289D-04
 -0.96314512D-19 -0.20367870D-04 -0.13436329D-02  0.20610254D-02 -0.71739242D-03
 -0.50974729D-17 -0.14086471D-02 -0.24743780D-17 -0.14073363D-02  0.28540089D-03
  0.11219354D-02  0.49918110D-17 -0.23944646D-02 -0.46154310D-18 -0.19521288D-04
 -0.94895584D-05  0.29010846D-04  0.11571849D-17 -0.21271857D-03 -0.14755344D-17
 -0.10490520D-02 -0.11534760D-18  0.73089906D-03  0.21468453D-02  0.32472329D-17
 -0.34308631D-02  0.10003108D-02 -0.29011901D-17  0.12381659D-02  0.24284229D-17
 -0.18976459D-03 -0.63653488D-18  0.13152043D-04  0.60748955D-05  0.11673875D-17
 -0.18682225D-03  0.56321889D-03  0.74221710D-18  0.14736612D-03  0.27044281D-18
  0.29140149D+00  0.54298376D+00  0.91832167D+00  0.13829416D+01  0.17121714D+01
  0.14569805D+01  0.55440798D+00 -0.25965291D-02 -0.49770757D-03 -0.93320634D-03
 -0.15876616D-02 -0.24654709D-02 -0.32718233D-02 -0.34480526D-02 -0.21380126D-02
  0.14222068D-02  0.29702549D-01  0.15723090D-02 -0.34575458D-03  0.12287293D-02
  0.11801798D-02  0.82762351D-03  0.93840429D-17  0.90132610D-17  0.63207208D-17
 -0.57129723D-02 -0.54872416D-02 -0.38480326D-02 -0.34880107D-02 -0.41260479D-17
 -0.74231896D-03 -0.65217852D-03 -0.41195419D-17  0.41601151D-03  0.99943472D-05
 -0.16175870D-18  0.37641025D-04  0.17629173D-02 -0.20701554D-02  0.30723816D-03
 -0.29554288D-17  0.56192817D-03 -0.45006439D-18  0.13943456D-02 -0.28126400D-03
 -0.11130816D-02  0.39729539D-17  0.24083747D-02  0.26015672D-17  0.10196204D-03
  0.99668189D-05 -0.11192886D-03  0.54800757D-18  0.37700114D-04  0.14864682D-17
 -0.10537599D-02 -0.13850695D-18  0.92020192D-03  0.24056663D-02 -0.10690698D-17
 -0.33425760D-02  0.75561344D-03  0.14845907D-17  0.58197021D-03 -0.31986810D-17
  0.59325577D-04  0.65311872D-18  0.19995747D-03  0.10482877D-03 -0.13764004D-17
 -0.49641825D-03 -0.28280551D-03 -0.58295574D-18 -0.10345416D-03 -0.80906866D-18
 -0.42979505D-04 -0.80115659D-04 -0.13581574D-03 -0.20566506D-03 -0.25718487D-03
 -0.22141222D-03 -0.85118941D-04  0.36883430D-06  0.22733043D-04  0.42688628D-04
  0.72691371D-04  0.11387060D-03  0.15260000D-03  0.16414188D-03  0.98550569D-04
 -0.64811000D-04 -0.13649038D-03  0.75778037D-03  0.24486891D-03  0.35758420D-03
  0.34970954D-03  0.23106788D-03 -0.23526965D-17 -0.23008858D-17 -0.15202926D-17
 -0.22046080D-03 -0.21560584D-03 -0.14245990D-03 -0.65601386D-03 -0.33279012D-17
  0.69830869D-03 -0.84172239D-03  0.25687742D-17 -0.31520978D-03 -0.23731616D-04
  0.46891445D-19 -0.18820034D-04 -0.81018293D-03 -0.33113133D-03  0.11413143D-02
 -0.61889482D-17 -0.93841324D-03 -0.66577837D-18  0.61949737D-03 -0.17224371D-03
 -0.44725365D-03  0.33054424D-17 -0.63260237D-03  0.68051350D-18  0.30257237D-03
 -0.48356524D-04 -0.25421585D-03 -0.15964046D-17  0.11220260D-03  0.32249047D-18
  0.66735800D-03  0.65413487D-18  0.72597652D-04  0.50941091D-03 -0.17375828D-18
  0.79353228D-03 -0.25114849D-02 -0.17886463D-17 -0.10113252D-02 -0.72605363D-18
 -0.39815375D-03 -0.34066331D-18 -0.14157234D-03 -0.73295196D-04  0.58966499D-18
 -0.16957320D-04  0.12677565D-02  0.43232493D-18  0.44167434D-03 -0.58414058D-19
MO    5     MO 0.0        OCC NO =    2.0000000  ORB. ENERGY =   -1.360364
 -0.47153258D-02 -0.87895715D-02 -0.14900485D-01 -0.22563725D-01 -0.28216017D-01
 -0.24291363D-01 -0.93384866D-02  0.40465191D-04 -0.74693673D-01 -0.14026149D+00
 -0.23884113D+00 -0.37414321D+00 -0.50139592D+00 -0.53931891D+00 -0.32380637D+00
  0.21294869D+00  0.12534479D+00  0.59174811D-01  0.17586848D-02  0.49357098D-01
  0.48270164D-01  0.31894138D-01  0.19274589D-14  0.18850127D-14  0.12455076D-14
  0.26182142D+00  0.25605563D+00  0.16918678D+00  0.11660663D-01  0.29012227D-16
  0.62457158D-01  0.18265353D-02 -0.10854234D-16  0.80420199D-02  0.15310175D-04
 -0.50239344D-17 -0.25427432D-04 -0.14148323D-01 -0.13767882D-01  0.27916206D-01
 -0.35693106D-14  0.10693090D-01  0.72195022D-15 -0.52042294D-02 -0.59491514D-02
  0.11153381D-01  0.39756087D-16  0.54089189D-02 -0.48614807D-16 -0.29451350D-03
 -0.45518909D-03  0.74970259D-03 -0.89922136D-17  0.65486166D-03 -0.27360779D-18
 -0.94700481D-03 -0.17541715D-16  0.68287422D-02 -0.15201724D-02 -0.16358941D-16
 -0.10420994D-01  0.43611868D-02  0.68984087D-16 -0.10065233D-01 -0.17465107D-16
 -0.38153240D-03  0.79388548D-17  0.14574780D-02 -0.50540562D-03  0.39621773D-17
 -0.15698000D-02  0.16500028D-02 -0.27778742D-16 -0.28026339D-02  0.94310767D-17
 -0.45953654D-02 -0.85627868D-02 -0.14481819D-01 -0.21808817D-01 -0.27000731D-01
 -0.22976403D-01 -0.87429453D-02  0.40946943D-04 -0.28098337D-01 -0.52684644D-01
 -0.89632255D-01 -0.13918943D+00 -0.18471247D+00 -0.19466158D+00 -0.12070260D+00
  0.80291416D-01  0.40434973D-01  0.59225565D-02 -0.46440865D-03  0.11980289D+00
  0.11506924D+00  0.80694495D-01  0.41095407D-17  0.39471647D-17  0.27680244D-17
 -0.10723477D+00 -0.10299771D+00 -0.72229104D-01  0.28109378D-01  0.12077737D-17
 -0.29078623D-01  0.80430651D-03 -0.13042909D-17  0.94000339D-03 -0.39947554D-04
 -0.14935671D-17  0.58220834D-04  0.69131569D-02 -0.21361950D-01  0.14448793D-01
  0.37412197D-16  0.89614628D-02 -0.22812174D-16  0.50958072D-03 -0.36787143D-02
  0.31691336D-02 -0.12643051D-16  0.42329466D-03 -0.17617912D-16  0.64609685D-04
  0.13978001D-03 -0.20438970D-03  0.32840382D-17  0.15690123D-03  0.12943226D-17
  0.38249776D-02 -0.78791819D-17 -0.56776322D-02 -0.66228006D-02 -0.11243770D-16
  0.11126563D-01 -0.48521321D-02  0.34881316D-16  0.59063333D-02 -0.39373513D-16
 -0.15223903D-03 -0.24751797D-17 -0.36053507D-03  0.14800493D-03  0.38628177D-18
  0.85662885D-03  0.30871216D-03  0.70392573D-17  0.22497636D-03  0.10706979D-16