 Molden2AIM, Version 4.0.0 (06/02/2016)           Time: Fri Jun 29 19:00:48 2018
GAUSSIAN              9 MOL ORBITALS    258 PRIMITIVES        6 NUCLEI
  N    1    (CENTRE  1)  -0.01926387  1.34152413 -0.13271169  CHARGE =  7.0
  N    2    (CENTRE  2)   0.01926387 -1.34152413 -0.13271169  CHARGE =  7.0
  H    3    (CENTRE  3)   0.41695484  2.08608190  1.58787828  CHARGE =  1.0
  H    4    (CENTRE  4)  -1.79897014  1.90531259 -0.57432178  CHARGE =  1.0
  H    5    (CENTRE  5)  -0.41695484 -2.08608190  1.58787828  CHARGE =  1.0
  H    6    (CENTRE  6)   1.79897014 -1.90531259 -0.57432178  CHARGE =  1.0
CENTRE ASSIGNMENTS    1  1  1  1  1  1  1  1  1  1  1  1  1  1  1  1  1  1  1  1
CENTRE ASSIGNMENTS    1  1  1  1  1  1  1  1  1  1  1  1  1  1  1  1  1  1  1  1
CENTRE ASSIGNMENTS    1  1  1  1  1  1  1  1  1  1  1  1  1  1  1  1  1  1  1  1
CENTRE ASSIGNMENTS    1  1  1  1  1  1  1  1  1  1  1  1  1  1  1  2  2  2  2  2
CENTRE ASSIGNMENTS    2  2  2  2  2  2  2  2  2  2  2  2  2  2  2  2  2  2  2  2
CENTRE ASSIGNMENTS    2  2  2  2  2  2  2  2  2  2  2  2  2  2  2  2  2  2  2  2
CENTRE ASSIGNMENTS    2  2  2  2  2  2  2  2  2  2  2  2  2  2  2  2  2  2  2  2
CENTRE ASSIGNMENTS    2  2  2  2  2  2  2  2  2  2  3  3  3  3  3  3  3  3  3  3
CENTRE ASSIGNMENTS    3  3  3  3  3  3  3  3  3  3  3  3  3  3  3  3  3  4  4  4
CENTRE ASSIGNMENTS    4  4  4  4  4  4  4  4  4  4  4  4  4  4  4  4  4  4  4  4
CENTRE ASSIGNMENTS    4  4  4  4  5  5  5  5  5  5  5  5  5  5  5  5  5  5  5  5
CENTRE ASSIGNMENTS    5  5  5  5  5  5  5  5  5  5  5  6  6  6  6  6  6  6  6  6
CENTRE ASSIGNMENTS    6  6  6  6  6  6  6  6  6  6  6  6  6  6  6  6  6  6
TYPE ASSIGNMENTS      1  1  1  1  1  1  1  1  1  1  1  1  1  1  1  1  1  1  1  2
TYPE ASSIGNMENTS      2  2  3  3  3  4  4  4  2  3  4  2  3  4  2  3  4  5  6  7
TYPE ASSIGNMENTS      8  9 10  5  6  7  8  9 10  5  6  7  8  9 10 11 12 13 17 14
TYPE ASSIGNMENTS     15 18 19 16 20 11 12 13 17 14 15 18 19 16 20  1  1  1  1  1
TYPE ASSIGNMENTS      1  1  1  1  1  1  1  1  1  1  1  1  1  1  2  2  2  3  3  3
TYPE ASSIGNMENTS      4  4  4  2  3  4  2  3  4  2  3  4  5  6  7  8  9 10  5  6
TYPE ASSIGNMENTS      7  8  9 10  5  6  7  8  9 10 11 12 13 17 14 15 18 19 16 20
TYPE ASSIGNMENTS     11 12 13 17 14 15 18 19 16 20  1  1  1  1  1  1  2  3  4  2
TYPE ASSIGNMENTS      3  4  2  3  4  5  6  7  8  9 10  5  6  7  8  9 10  1  1  1
TYPE ASSIGNMENTS      1  1  1  2  3  4  2  3  4  2  3  4  5  6  7  8  9 10  5  6
TYPE ASSIGNMENTS      7  8  9 10  1  1  1  1  1  1  2  3  4  2  3  4  2  3  4  5
TYPE ASSIGNMENTS      6  7  8  9 10  5  6  7  8  9 10  1  1  1  1  1  1  2  3  4
TYPE ASSIGNMENTS      2  3  4  2  3  4  5  6  7  8  9 10  5  6  7  8  9 10
EXPONENTS  0.1142000D+05 0.1712000D+04 0.3893000D+03 0.1100000D+03 0.3557000D+02
EXPONENTS  0.1254000D+02 0.4644000D+01 0.5118000D+00 0.1142000D+05 0.1712000D+04
EXPONENTS  0.3893000D+03 0.1100000D+03 0.3557000D+02 0.1254000D+02 0.4644000D+01
EXPONENTS  0.5118000D+00 0.1293000D+01 0.1787000D+00 0.5760000D-01 0.2663000D+02
EXPONENTS  0.5948000D+01 0.1742000D+01 0.2663000D+02 0.5948000D+01 0.1742000D+01
EXPONENTS  0.2663000D+02 0.5948000D+01 0.1742000D+01 0.5550000D+00 0.5550000D+00
EXPONENTS  0.5550000D+00 0.1725000D+00 0.1725000D+00 0.1725000D+00 0.4910000D-01
EXPONENTS  0.4910000D-01 0.4910000D-01 0.1654000D+01 0.1654000D+01 0.1654000D+01
EXPONENTS  0.1654000D+01 0.1654000D+01 0.1654000D+01 0.4690000D+00 0.4690000D+00
EXPONENTS  0.4690000D+00 0.4690000D+00 0.4690000D+00 0.4690000D+00 0.1510000D+00
EXPONENTS  0.1510000D+00 0.1510000D+00 0.1510000D+00 0.1510000D+00 0.1510000D+00
EXPONENTS  0.1093000D+01 0.1093000D+01 0.1093000D+01 0.1093000D+01 0.1093000D+01
EXPONENTS  0.1093000D+01 0.1093000D+01 0.1093000D+01 0.1093000D+01 0.1093000D+01
EXPONENTS  0.3640000D+00 0.3640000D+00 0.3640000D+00 0.3640000D+00 0.3640000D+00
EXPONENTS  0.3640000D+00 0.3640000D+00 0.3640000D+00 0.3640000D+00 0.3640000D+00
EXPONENTS  0.1142000D+05 0.1712000D+04 0.3893000D+03 0.1100000D+03 0.3557000D+02
EXPONENTS  0.1254000D+02 0.4644000D+01 0.5118000D+00 0.1142000D+05 0.1712000D+04
EXPONENTS  0.3893000D+03 0.1100000D+03 0.3557000D+02 0.1254000D+02 0.4644000D+01
EXPONENTS  0.5118000D+00 0.1293000D+01 0.1787000D+00 0.5760000D-01 0.2663000D+02
EXPONENTS  0.5948000D+01 0.1742000D+01 0.2663000D+02 0.5948000D+01 0.1742000D+01
EXPONENTS  0.2663000D+02 0.5948000D+01 0.1742000D+01 0.5550000D+00 0.5550000D+00
EXPONENTS  0.5550000D+00 0.1725000D+00 0.1725000D+00 0.1725000D+00 0.4910000D-01
EXPONENTS  0.4910000D-01 0.4910000D-01 0.1654000D+01 0.1654000D+01 0.1654000D+01
EXPONENTS  0.1654000D+01 0.1654000D+01 0.1654000D+01 0.4690000D+00 0.4690000D+00
EXPONENTS  0.4690000D+00 0.4690000D+00 0.4690000D+00 0.4690000D+00 0.1510000D+00
EXPONENTS  0.1510000D+00 0.1510000D+00 0.1510000D+00 0.1510000D+00 0.1510000D+00
EXPONENTS  0.1093000D+01 0.1093000D+01 0.1093000D+01 0.1093000D+01 0.1093000D+01
EXPONENTS  0.1093000D+01 0.1093000D+01 0.1093000D+01 0.1093000D+01 0.1093000D+01
EXPONENTS  0.3640000D+00 0.3640000D+00 0.3640000D+00 0.3640000D+00 0.3640000D+00
EXPONENTS  0.3640000D+00 0.3640000D+00 0.3640000D+00 0.3640000D+00 0.3640000D+00
EXPONENTS  0.3387000D+02 0.5095000D+01 0.1159000D+01 0.3258000D+00 0.1027000D+00
EXPONENTS  0.2526000D-01 0.1407000D+01 0.1407000D+01 0.1407000D+01 0.3880000D+00
EXPONENTS  0.3880000D+00 0.3880000D+00 0.1020000D+00 0.1020000D+00 0.1020000D+00
EXPONENTS  0.1057000D+01 0.1057000D+01 0.1057000D+01 0.1057000D+01 0.1057000D+01
EXPONENTS  0.1057000D+01 0.2470000D+00 0.2470000D+00 0.2470000D+00 0.2470000D+00
EXPONENTS  0.2470000D+00 0.2470000D+00 0.3387000D+02 0.5095000D+01 0.1159000D+01
EXPONENTS  0.3258000D+00 0.1027000D+00 0.2526000D-01 0.1407000D+01 0.1407000D+01
EXPONENTS  0.1407000D+01 0.3880000D+00 0.3880000D+00 0.3880000D+00 0.1020000D+00
EXPONENTS  0.1020000D+00 0.1020000D+00 0.1057000D+01 0.1057000D+01 0.1057000D+01
EXPONENTS  0.1057000D+01 0.1057000D+01 0.1057000D+01 0.2470000D+00 0.2470000D+00
EXPONENTS  0.2470000D+00 0.2470000D+00 0.2470000D+00 0.2470000D+00 0.3387000D+02
EXPONENTS  0.5095000D+01 0.1159000D+01 0.3258000D+00 0.1027000D+00 0.2526000D-01
EXPONENTS  0.1407000D+01 0.1407000D+01 0.1407000D+01 0.3880000D+00 0.3880000D+00
EXPONENTS  0.3880000D+00 0.1020000D+00 0.1020000D+00 0.1020000D+00 0.1057000D+01
EXPONENTS  0.1057000D+01 0.1057000D+01 0.1057000D+01 0.1057000D+01 0.1057000D+01
EXPONENTS  0.2470000D+00 0.2470000D+00 0.2470000D+00 0.2470000D+00 0.2470000D+00
EXPONENTS  0.2470000D+00 0.3387000D+02 0.5095000D+01 0.1159000D+01 0.3258000D+00
EXPONENTS  0.1027000D+00 0.2526000D-01 0.1407000D+01 0.1407000D+01 0.1407000D+01
EXPONENTS  0.3880000D+00 0.3880000D+00 0.3880000D+00 0.1020000D+00 0.1020000D+00
EXPONENTS  0.1020000D+00 0.1057000D+01 0.1057000D+01 0.1057000D+01 0.1057000D+01
EXPONENTS  0.1057000D+01 0.1057000D+01 0.2470000D+00 0.2470000D+00 0.2470000D+00
EXPONENTS  0.2470000D+00 0.2470000D+00 0.2470000D+00
MO    1     MO 0.0        OCC NO =    2.0000000  ORB. ENERGY =  -14.392871
  0.29144234D+00  0.54305989D+00  0.91845041D+00  0.13831354D+01  0.17124114D+01
  0.14571848D+01  0.55448570D+00 -0.25968931D-02 -0.10128876D-02 -0.18991737D-02
 -0.32310595D-02 -0.50174942D-02 -0.66585067D-02 -0.70171520D-02 -0.43510819D-02
  0.28943414D-02  0.30222292D-01  0.88115042D-03  0.12240442D-03 -0.21791872D-02
 -0.20930833D-02 -0.14678145D-02 -0.23822641D-02 -0.22881362D-02 -0.16045990D-02
  0.25591714D-02  0.24580536D-02  0.17237568D-02 -0.97394296D-03 -0.11863797D-03
  0.84065771D-03  0.57282297D-03 -0.13782289D-03 -0.77178619D-04  0.13361325D-04
 -0.98532565D-05 -0.50327797D-06 -0.18808400D-03  0.87881357D-03 -0.69072956D-03
 -0.15914947D-02  0.25431332D-02  0.19402613D-02  0.20855003D-03 -0.74781782D-03
  0.53926779D-03  0.36488085D-03  0.46939633D-03  0.41006724D-04 -0.94734856D-05
 -0.27046841D-04  0.36520326D-04 -0.14567276D-03 -0.41374331D-04 -0.83795912D-04
 -0.80572665D-03 -0.48015645D-03  0.76375745D-03  0.58372123D-03  0.52725033D-03
 -0.16935511D-02  0.18334587D-02  0.91321901D-03 -0.59772130D-03  0.17549349D-02
  0.91001817D-04  0.32870377D-03 -0.17440500D-04  0.88086256D-04 -0.58205155D-03
  0.20881832D-04 -0.36109171D-03 -0.40405977D-03  0.31439668D-04 -0.75969803D-03
  0.29144234D+00  0.54305989D+00  0.91845041D+00  0.13831354D+01  0.17124114D+01
  0.14571848D+01  0.55448570D+00 -0.25968931D-02 -0.10128876D-02 -0.18991737D-02
 -0.32310595D-02 -0.50174943D-02 -0.66585067D-02 -0.70171521D-02 -0.43510819D-02
  0.28943414D-02  0.30222292D-01  0.88115042D-03  0.12240442D-03  0.21791872D-02
  0.20930833D-02  0.14678145D-02  0.23822641D-02  0.22881362D-02  0.16045990D-02
  0.25591714D-02  0.24580536D-02  0.17237568D-02  0.97394296D-03  0.11863796D-03
  0.84065771D-03 -0.57282297D-03  0.13782289D-03 -0.77178619D-04 -0.13361325D-04
  0.98532564D-05 -0.50327797D-06 -0.18808400D-03  0.87881356D-03 -0.69072956D-03
 -0.15914947D-02 -0.25431332D-02 -0.19402613D-02  0.20855004D-03 -0.74781782D-03
  0.53926779D-03  0.36488085D-03 -0.46939633D-03 -0.41006724D-04 -0.94734856D-05
 -0.27046840D-04  0.36520326D-04 -0.14567276D-03  0.41374331D-04  0.83795912D-04
  0.80572665D-03  0.48015645D-03  0.76375745D-03 -0.58372123D-03 -0.52725033D-03
 -0.16935511D-02 -0.18334587D-02 -0.91321901D-03 -0.59772130D-03  0.17549349D-02
 -0.91001817D-04 -0.32870377D-03 -0.17440500D-04 -0.88086256D-04  0.58205155D-03
  0.20881833D-04  0.36109171D-03  0.40405977D-03  0.31439668D-04 -0.75969804D-03
  0.10983754D-03  0.19809653D-03  0.29209321D-03 -0.64352659D-03 -0.24145668D-03
 -0.62315685D-05  0.39869307D-03  0.67962963D-03  0.10861445D-02  0.50965705D-03
  0.86635406D-03  0.88467422D-03  0.18501157D-04  0.75311816D-04  0.66565996D-04
  0.10193362D-02  0.55752311D-04 -0.10750885D-02 -0.77366320D-03 -0.12575054D-02
 -0.25837764D-02  0.67427464D-04 -0.73645097D-05 -0.60062954D-04  0.54001579D-04
 -0.11973733D-03 -0.11565202D-03  0.97392541D-04  0.17565146D-03  0.25899797D-03
  0.53740632D-04 -0.45431889D-03 -0.74984160D-05 -0.11147447D-02  0.56277070D-03
 -0.25540034D-03 -0.79559799D-03  0.98169728D-03  0.57601966D-04 -0.12942148D-03
  0.10092398D-03  0.14761297D-05 -0.13737716D-02  0.47496757D-03  0.89880407D-03
  0.25707859D-02 -0.93178215D-03  0.24822362D-03 -0.38597074D-04 -0.61648602D-04
  0.10024568D-03  0.23501853D-03 -0.14577086D-04  0.34842130D-04  0.10983754D-03
  0.19809653D-03  0.29209321D-03 -0.64352659D-03 -0.24145668D-03 -0.62315686D-05
 -0.39869307D-03 -0.67962963D-03  0.10861445D-02 -0.50965705D-03 -0.86635406D-03
  0.88467423D-03 -0.18501157D-04 -0.75311816D-04  0.66565996D-04  0.10193362D-02
  0.55752312D-04 -0.10750885D-02 -0.77366320D-03  0.12575054D-02  0.25837764D-02
  0.67427464D-04 -0.73645097D-05 -0.60062954D-04  0.54001579D-04  0.11973733D-03
  0.11565202D-03  0.97392541D-04  0.17565146D-03  0.25899797D-03  0.53740632D-04
 -0.45431889D-03 -0.74984160D-05  0.11147447D-02 -0.56277070D-03 -0.25540034D-03
  0.79559799D-03 -0.98169728D-03  0.57601966D-04  0.12942148D-03 -0.10092398D-03
  0.14761297D-05 -0.13737716D-02  0.47496757D-03  0.89880407D-03  0.25707859D-02
  0.93178215D-03 -0.24822362D-03 -0.38597074D-04 -0.61648602D-04  0.10024568D-03
  0.23501853D-03  0.14577086D-04 -0.34842130D-04
MO    2     MO 0.0        OCC NO =    2.0000000  ORB. ENERGY =  -14.392702
  0.29113925D+00  0.54249513D+00  0.91749527D+00  0.13816970D+01  0.17106306D+01
  0.14556694D+01  0.55390906D+00 -0.25941924D-02 -0.78681745D-03 -0.14752901D-02
 -0.25099074D-02 -0.38976211D-02 -0.51723699D-02 -0.54509679D-02 -0.33799478D-02
  0.22483426D-02  0.30416325D-01 -0.26120579D-02 -0.79244592D-03 -0.22912234D-02
 -0.22006927D-02 -0.15432776D-02 -0.32351200D-02 -0.31072940D-02 -0.21790491D-02
  0.26566093D-02  0.25516415D-02  0.17893872D-02 -0.10164668D-02  0.30332298D-02
  0.79779510D-03  0.71176775D-04  0.20000149D-02 -0.62532234D-03  0.21885943D-05
  0.11601199D-03  0.15195643D-04  0.56256026D-03 -0.97023228D-03  0.40767202D-03
 -0.14929205D-02  0.33552432D-02  0.18763506D-02  0.58225570D-03 -0.93997849D-03
  0.35772279D-03 -0.25484721D-03 -0.19400023D-03  0.17787544D-03  0.71379075D-04
 -0.84163956D-04  0.12784881D-04 -0.23292600D-05 -0.79707308D-04  0.18129393D-03
 -0.73603792D-03 -0.62498789D-03  0.56614430D-03  0.60034320D-03  0.83723463D-03
 -0.18023042D-02  0.16077706D-02  0.10377290D-02  0.10387133D-03  0.18202656D-02
  0.12522440D-03  0.14658942D-03 -0.13859394D-03 -0.21127635D-03 -0.69934374D-04
  0.50298570D-03 -0.16439685D-03 -0.36983388D-03 -0.87203874D-04 -0.28214600D-03
 -0.29113925D+00 -0.54249513D+00 -0.91749527D+00 -0.13816970D+01 -0.17106306D+01
 -0.14556694D+01 -0.55390906D+00  0.25941924D-02  0.78681745D-03  0.14752901D-02
  0.25099074D-02  0.38976211D-02  0.51723699D-02  0.54509679D-02  0.33799478D-02
 -0.22483426D-02 -0.30416325D-01  0.26120579D-02  0.79244592D-03 -0.22912234D-02
 -0.22006927D-02 -0.15432776D-02 -0.32351200D-02 -0.31072940D-02 -0.21790491D-02
 -0.26566093D-02 -0.25516415D-02 -0.17893872D-02 -0.10164668D-02  0.30332298D-02
 -0.79779510D-03  0.71176775D-04  0.20000149D-02  0.62532234D-03  0.21885943D-05
  0.11601199D-03 -0.15195643D-04 -0.56256026D-03  0.97023229D-03 -0.40767202D-03
  0.14929205D-02  0.33552432D-02  0.18763506D-02 -0.58225570D-03  0.93997849D-03
 -0.35772279D-03  0.25484721D-03 -0.19400024D-03  0.17787544D-03 -0.71379075D-04
  0.84163956D-04 -0.12784881D-04  0.23292599D-05 -0.79707308D-04  0.18129393D-03
 -0.73603792D-03 -0.62498789D-03 -0.56614430D-03  0.60034320D-03  0.83723463D-03
  0.18023042D-02  0.16077706D-02  0.10377290D-02 -0.10387133D-03 -0.18202656D-02
  0.12522440D-03  0.14658942D-03  0.13859394D-03 -0.21127635D-03 -0.69934373D-04
 -0.50298570D-03 -0.16439685D-03 -0.36983388D-03  0.87203874D-04  0.28214600D-03
  0.11377844D-03  0.20520410D-03  0.30257333D-03  0.91489863D-04 -0.49926441D-03
 -0.54342050D-04  0.42106241D-03  0.49133037D-03  0.10690265D-02  0.65680996D-04
  0.21193832D-03  0.10427495D-02 -0.85890559D-05  0.44234221D-04  0.16005630D-03
  0.67670970D-03  0.95926931D-03 -0.16359790D-02 -0.46727064D-03 -0.13421902D-02
 -0.22254481D-02  0.89290315D-04 -0.16500327D-04 -0.72789987D-04  0.23973379D-04
 -0.17576358D-04 -0.17138460D-03  0.11066638D-03  0.19959137D-03  0.29429735D-03
 -0.60514160D-03 -0.40535341D-03 -0.22761329D-04 -0.12377005D-02  0.32829606D-03
 -0.54157598D-03 -0.12872199D-02 -0.28959921D-04 -0.58633735D-03 -0.13615401D-03
  0.30562344D-04 -0.84059053D-04 -0.18581859D-02  0.10893012D-02  0.76888465D-03
  0.14670693D-02 -0.17672222D-02  0.41130283D-03 -0.10273774D-03  0.36520438D-04
  0.66217299D-04  0.10668179D-03 -0.14025941D-03 -0.19271610D-04 -0.11377844D-03
 -0.20520410D-03 -0.30257333D-03 -0.91489864D-04  0.49926441D-03  0.54342050D-04
  0.42106241D-03  0.49133037D-03 -0.10690265D-02  0.65680995D-04  0.21193832D-03
 -0.10427495D-02 -0.85890559D-05  0.44234221D-04 -0.16005630D-03 -0.67670970D-03
 -0.95926931D-03  0.16359790D-02  0.46727063D-03 -0.13421902D-02 -0.22254481D-02
 -0.89290315D-04  0.16500327D-04  0.72789987D-04 -0.23973379D-04 -0.17576358D-04
 -0.17138460D-03 -0.11066638D-03 -0.19959137D-03 -0.29429735D-03  0.60514160D-03
  0.40535341D-03  0.22761329D-04 -0.12377005D-02  0.32829606D-03  0.54157597D-03
 -0.12872199D-02 -0.28959922D-04  0.58633735D-03 -0.13615401D-03  0.30562344D-04
  0.84059053D-04  0.18581859D-02 -0.10893012D-02 -0.76888465D-03 -0.14670693D-02
 -0.17672222D-02  0.41130283D-03  0.10273774D-03 -0.36520438D-04 -0.66217299D-04
 -0.10668179D-03 -0.14025941D-03 -0.19271610D-04
MO    3     MO 0.0        OCC NO =    2.0000000  ORB. ENERGY =   -0.979173
 -0.70891137D-02 -0.13209520D-01 -0.22340609D-01 -0.33643720D-01 -0.41653107D-01
 -0.35444914D-01 -0.13487444D-01  0.63167453D-04 -0.52390582D-01 -0.98232831D-01
 -0.16712327D+00 -0.25952480D+00 -0.34440450D+00 -0.36295507D+00 -0.22505530D+00
  0.14970687D+00  0.75268393D-01  0.28840443D-01  0.78359820D-03 -0.53439749D-01
 -0.51328241D-01 -0.35994905D-01 -0.16631899D+00 -0.15974740D+00 -0.11202590D+00
  0.70566273D-01  0.67778062D-01  0.47530655D-01 -0.14283965D-01 -0.41591997D-01
  0.18365684D-01  0.51854318D-03 -0.17997470D-02  0.65350472D-03 -0.14894199D-04
  0.62760845D-04 -0.28250776D-04 -0.88009069D-02  0.18336302D-01 -0.95353947D-02
 -0.53744055D-02  0.12106045D-01  0.25006396D-02 -0.27660752D-02  0.55464780D-02
 -0.27804028D-02 -0.17207711D-02  0.12984921D-02  0.64504794D-03 -0.18949527D-03
  0.31680987D-03 -0.12731460D-03 -0.41021953D-03 -0.32630931D-03 -0.26804797D-04
 -0.13274252D-02 -0.69432533D-02  0.66298669D-03  0.11088669D-02  0.10029347D-01
 -0.32501147D-02  0.28734087D-02  0.10800413D-01  0.12611546D-02  0.39668785D-03
  0.15112564D-03 -0.24039493D-03 -0.16450329D-03 -0.29554408D-03  0.33673209D-03
 -0.25688792D-04 -0.15783285D-03  0.38445269D-03  0.51919866D-03  0.57117158D-04
 -0.70891137D-02 -0.13209520D-01 -0.22340609D-01 -0.33643720D-01 -0.41653107D-01
 -0.35444914D-01 -0.13487444D-01  0.63167453D-04 -0.52390582D-01 -0.98232831D-01
 -0.16712327D+00 -0.25952480D+00 -0.34440450D+00 -0.36295507D+00 -0.22505530D+00
  0.14970687D+00  0.75268393D-01  0.28840443D-01  0.78359820D-03  0.53439749D-01
  0.51328241D-01  0.35994905D-01  0.16631899D+00  0.15974740D+00  0.11202590D+00
  0.70566273D-01  0.67778062D-01  0.47530655D-01  0.14283965D-01  0.41591997D-01
  0.18365684D-01 -0.51854318D-03  0.17997470D-02  0.65350472D-03  0.14894199D-04
 -0.62760845D-04 -0.28250776D-04 -0.88009069D-02  0.18336302D-01 -0.95353947D-02
 -0.53744055D-02 -0.12106045D-01 -0.25006396D-02 -0.27660752D-02  0.55464780D-02
 -0.27804028D-02 -0.17207711D-02 -0.12984921D-02 -0.64504794D-03 -0.18949527D-03
  0.31680987D-03 -0.12731460D-03 -0.41021953D-03  0.32630931D-03  0.26804796D-04
  0.13274252D-02  0.69432533D-02  0.66298669D-03 -0.11088669D-02 -0.10029347D-01
 -0.32501147D-02 -0.28734087D-02 -0.10800413D-01  0.12611546D-02  0.39668785D-03
 -0.15112564D-03  0.24039493D-03 -0.16450329D-03  0.29554408D-03 -0.33673209D-03
 -0.25688792D-04  0.15783285D-03 -0.38445269D-03  0.51919866D-03  0.57117158D-04
  0.13279913D-01  0.23950870D-01  0.35315544D-01  0.15422710D-01 -0.21900630D-03
 -0.59745943D-05 -0.34252727D-02 -0.75319489D-02 -0.11343748D-01 -0.54276297D-03
 -0.35953912D-02 -0.13945534D-02  0.13395619D-03 -0.64443786D-04  0.33067545D-03
 -0.16946857D-02  0.11619705D-02  0.53271521D-03  0.11644127D-02  0.64526072D-03
  0.46687497D-02  0.93485928D-04  0.20218671D-03 -0.29567264D-03  0.20613912D-03
 -0.23866120D-03  0.24146491D-03  0.13209270D-01  0.23823463D-01  0.35127682D-01
  0.15686548D-01 -0.90279413D-03 -0.73574988D-04  0.12298226D-01 -0.64980402D-02
  0.37383796D-02  0.15065065D-02 -0.29494586D-02  0.10622259D-02 -0.47063935D-03
 -0.12855172D-04  0.35088577D-05  0.85614232D-03  0.59973182D-03 -0.14558741D-02
 -0.45250729D-02  0.10503880D-02 -0.14204572D-02 -0.25797379D-03  0.46418623D-04
  0.21155517D-03 -0.17650530D-03 -0.11436373D-03 -0.26290885D-03  0.13279913D-01
  0.23950870D-01  0.35315544D-01  0.15422710D-01 -0.21900631D-03 -0.59745943D-05
  0.34252727D-02  0.75319489D-02 -0.11343748D-01  0.54276297D-03  0.35953912D-02
 -0.13945534D-02 -0.13395619D-03  0.64443785D-04  0.33067545D-03 -0.16946857D-02
  0.11619705D-02  0.53271521D-03  0.11644127D-02 -0.64526072D-03 -0.46687497D-02
  0.93485928D-04  0.20218671D-03 -0.29567264D-03  0.20613912D-03  0.23866120D-03
 -0.24146491D-03  0.13209270D-01  0.23823463D-01  0.35127682D-01  0.15686548D-01
 -0.90279413D-03 -0.73574988D-04 -0.12298226D-01  0.64980402D-02  0.37383796D-02
 -0.15065065D-02  0.29494586D-02  0.10622259D-02  0.47063935D-03  0.12855172D-04
  0.35088577D-05  0.85614232D-03  0.59973182D-03 -0.14558741D-02 -0.45250729D-02
 -0.10503880D-02  0.14204572D-02 -0.25797379D-03  0.46418623D-04  0.21155517D-03
 -0.17650530D-03  0.11436373D-03  0.26290885D-03
MO    4     MO 0.0        OCC NO =    2.0000000  ORB. ENERGY =   -0.770706
  0.54274034D-02  0.10113167D-01  0.17103901D-01  0.25757527D-01  0.31889489D-01
  0.27136516D-01  0.10325945D-01 -0.48360806D-04  0.48874417D-01  0.91639989D-01
  0.15590689D+00  0.24210694D+00  0.32128998D+00  0.33859554D+00  0.20995084D+00
 -0.13965938D+00 -0.72769428D-01 -0.43344233D-01 -0.28844683D-02  0.14518386D+00
  0.13944736D+00  0.97790117D-01 -0.21335558D+00 -0.20492549D+00 -0.14370790D+00
 -0.10491053D+00 -0.10076531D+00 -0.70663593D-01  0.34662528D-01 -0.44822196D-01
 -0.25765113D-01  0.23999435D-02 -0.11645192D-02 -0.20008822D-02 -0.76600548D-05
  0.11532701D-03 -0.24869593D-04 -0.10493116D-01  0.18682024D-01 -0.81889073D-02
  0.66717216D-02 -0.13939557D-01 -0.17214543D-01 -0.88451207D-03  0.15279093D-02
 -0.64339722D-03  0.12541712D-02 -0.20414561D-02 -0.48562153D-02  0.13951942D-03
 -0.29346822D-03  0.15394880D-03  0.32175975D-04  0.11957788D-03 -0.51701958D-05
 -0.98072203D-04  0.14653741D-02 -0.34880608D-03  0.31268961D-02 -0.21091636D-02
  0.23390884D-02 -0.28326795D-02 -0.22869588D-02 -0.12926701D-02 -0.96100857D-03
  0.95467622D-04  0.32042659D-03 -0.17145134D-03 -0.61597303D-04 -0.31329684D-03
  0.28471829D-03 -0.22480556D-03 -0.64798294D-03  0.22963574D-03 -0.49017268D-03
 -0.54274034D-02 -0.10113167D-01 -0.17103901D-01 -0.25757527D-01 -0.31889489D-01
 -0.27136516D-01 -0.10325945D-01  0.48360806D-04 -0.48874417D-01 -0.91639989D-01
 -0.15590689D+00 -0.24210694D+00 -0.32128998D+00 -0.33859554D+00 -0.20995084D+00
  0.13965938D+00  0.72769428D-01  0.43344233D-01  0.28844683D-02  0.14518386D+00
  0.13944736D+00  0.97790117D-01 -0.21335558D+00 -0.20492549D+00 -0.14370790D+00
  0.10491053D+00  0.10076531D+00  0.70663593D-01  0.34662528D-01 -0.44822196D-01
  0.25765113D-01  0.23999435D-02 -0.11645192D-02  0.20008822D-02 -0.76600548D-05
  0.11532701D-03  0.24869593D-04  0.10493116D-01 -0.18682024D-01  0.81889073D-02
 -0.66717216D-02 -0.13939557D-01 -0.17214543D-01  0.88451207D-03 -0.15279093D-02
  0.64339722D-03 -0.12541712D-02 -0.20414561D-02 -0.48562153D-02 -0.13951942D-03
  0.29346822D-03 -0.15394880D-03 -0.32175975D-04  0.11957788D-03 -0.51701958D-05
 -0.98072203D-04  0.14653741D-02  0.34880608D-03  0.31268961D-02 -0.21091636D-02
 -0.23390884D-02 -0.28326795D-02 -0.22869588D-02  0.12926701D-02  0.96100857D-03
  0.95467622D-04  0.32042659D-03  0.17145134D-03 -0.61597303D-04 -0.31329684D-03
 -0.28471829D-03 -0.22480556D-03 -0.64798294D-03 -0.22963574D-03  0.49017268D-03
 -0.20412499D-01 -0.36814783D-01 -0.54283376D-01 -0.25667935D-01 -0.64662552D-03
  0.63136802D-04  0.66397493D-02  0.62004778D-02  0.18625745D-01  0.19156253D-02
  0.60431258D-03  0.30065802D-02  0.81143654D-04 -0.54046836D-04 -0.35070244D-03
  0.18596439D-02  0.16562762D-02 -0.35159201D-02 -0.12625736D-02 -0.38553913D-02
 -0.46223333D-02 -0.14934005D-03 -0.21905326D-04  0.17124538D-03 -0.66214552D-04
  0.43700817D-04  0.19673508D-03 -0.21488843D-01 -0.38756014D-01 -0.57145720D-01
 -0.27866919D-01  0.28029702D-04  0.40340393D-04 -0.20549825D-01  0.47393940D-02
 -0.68664979D-02 -0.38295803D-02  0.42165144D-03 -0.20154880D-02  0.45930032D-03
 -0.12169971D-03  0.14794390D-03 -0.42624219D-02  0.21895612D-02  0.20728607D-02
  0.39180937D-02 -0.41081094D-02  0.10340042D-02  0.14763683D-03 -0.13400881D-04
 -0.13423595D-03 -0.93936865D-04  0.99613514D-04 -0.13153103D-03  0.20412499D-01
  0.36814783D-01  0.54283376D-01  0.25667935D-01  0.64662552D-03 -0.63136802D-04
  0.66397493D-02  0.62004778D-02 -0.18625745D-01  0.19156253D-02  0.60431258D-03
 -0.30065802D-02  0.81143654D-04 -0.54046836D-04  0.35070245D-03 -0.18596439D-02
 -0.16562762D-02  0.35159201D-02  0.12625736D-02 -0.38553913D-02 -0.46223333D-02
  0.14934005D-03  0.21905326D-04 -0.17124538D-03  0.66214552D-04  0.43700817D-04
  0.19673508D-03  0.21488843D-01  0.38756014D-01  0.57145720D-01  0.27866919D-01
 -0.28029702D-04 -0.40340393D-04 -0.20549825D-01  0.47393940D-02  0.68664979D-02
 -0.38295803D-02  0.42165144D-03  0.20154880D-02  0.45930032D-03 -0.12169971D-03
 -0.14794390D-03  0.42624219D-02 -0.21895612D-02 -0.20728607D-02 -0.39180937D-02
 -0.41081094D-02  0.10340042D-02 -0.14763683D-03  0.13400881D-04  0.13423595D-03
  0.93936865D-04  0.99613514D-04 -0.13153103D-03
MO    5     MO 0.0        OCC NO =    2.0000000  ORB. ENERGY =   -0.520120
 -0.19414648D-03 -0.36176338D-03 -0.61183257D-03 -0.92138595D-03 -0.11407356D-02
 -0.97071449D-03 -0.36937477D-03  0.17299396D-05  0.41243203D-02  0.77331392D-02
  0.13156371D-01  0.20430455D-01  0.27112401D-01  0.28572749D-01  0.17716927D-01
 -0.11785307D-01 -0.50296121D-02 -0.68465080D-02 -0.60208180D-03  0.12779398D+00
  0.12274459D+00  0.86076976D-01  0.42292255D+00  0.40621205D+00  0.28486393D+00
  0.53867718D+00  0.51739299D+00  0.36283168D+00  0.25934247D-01  0.98597658D-01
  0.12302976D+00  0.15810115D-02  0.88889202D-02  0.12879200D-01  0.44848351D-04
  0.26732171D-04  0.14307454D-03 -0.70221574D-02 -0.24976621D-01  0.31998778D-01
  0.31613861D-02 -0.10585295D-02  0.31511655D-02  0.47416451D-03 -0.67914081D-02
  0.63172436D-02 -0.70333820D-03 -0.72138998D-03 -0.70979743D-02  0.12655692D-03
 -0.47812591D-03  0.35156899D-03  0.73057195D-03 -0.12455215D-03 -0.30829997D-03
 -0.50936494D-03  0.50566002D-02 -0.35599427D-02 -0.30185107D-02 -0.66929594D-02
 -0.11680383D-02  0.45466055D-02 -0.84768413D-02  0.11847866D-01  0.45213446D-03
 -0.64854027D-05  0.53107313D-03  0.15984313D-03  0.39359768D-03 -0.82158510D-03
 -0.32041829D-03 -0.37414147D-03 -0.77163429D-03 -0.15911109D-03 -0.90329351D-03
 -0.19414648D-03 -0.36176338D-03 -0.61183257D-03 -0.92138595D-03 -0.11407356D-02
 -0.97071449D-03 -0.36937477D-03  0.17299396D-05  0.41243203D-02  0.77331392D-02
  0.13156371D-01  0.20430455D-01  0.27112401D-01  0.28572749D-01  0.17716927D-01
 -0.11785307D-01 -0.50296121D-02 -0.68465080D-02 -0.60208180D-03 -0.12779398D+00
 -0.12274459D+00 -0.86076976D-01 -0.42292255D+00 -0.40621205D+00 -0.28486393D+00
  0.53867718D+00  0.51739299D+00  0.36283168D+00 -0.25934247D-01 -0.98597658D-01
  0.12302976D+00 -0.15810115D-02 -0.88889202D-02  0.12879200D-01 -0.44848351D-04
 -0.26732171D-04  0.14307454D-03 -0.70221574D-02 -0.24976621D-01  0.31998778D-01
  0.31613861D-02  0.10585295D-02 -0.31511655D-02  0.47416451D-03 -0.67914081D-02
  0.63172436D-02 -0.70333820D-03  0.72138998D-03  0.70979743D-02  0.12655692D-03
 -0.47812591D-03  0.35156899D-03  0.73057195D-03  0.12455215D-03  0.30829997D-03
  0.50936494D-03 -0.50566002D-02 -0.35599427D-02  0.30185107D-02  0.66929594D-02
 -0.11680383D-02 -0.45466055D-02  0.84768413D-02  0.11847866D-01  0.45213446D-03
  0.64854027D-05 -0.53107313D-03  0.15984313D-03 -0.39359768D-03  0.82158510D-03
 -0.32041829D-03  0.37414147D-03  0.77163429D-03 -0.15911109D-03 -0.90329351D-03
  0.30719210D-01  0.55403361D-01  0.81692223D-01  0.58560367D-01  0.54142796D-02
 -0.10431888D-03 -0.67501941D-02 -0.83433597D-02 -0.23139191D-01 -0.24509919D-02
 -0.14578142D-02 -0.82157928D-02  0.15030120D-03  0.45757056D-03  0.54661997D-03
 -0.33314304D-02 -0.35060959D-02  0.68375262D-02  0.19895088D-02  0.68133415D-02
  0.69265093D-02  0.52124246D-06 -0.54519521D-04  0.53998279D-04 -0.36851423D-03
 -0.11217650D-03 -0.85649982D-03 -0.70125867D-02 -0.12647489D-01 -0.18648715D-01
 -0.12533716D-01  0.96847032D-03  0.14700473D-03 -0.56592573D-02  0.91123182D-02
  0.61126293D-02 -0.23514621D-02  0.57704686D-02  0.42442316D-02  0.40078387D-03
  0.19914451D-03  0.51615668D-03 -0.13098316D-02 -0.14455281D-02  0.27553597D-02
  0.78474734D-02  0.37001927D-02  0.40878316D-05 -0.34395788D-03  0.13475948D-03
  0.20919841D-03  0.79059918D-03  0.36552845D-03  0.16058864D-04  0.30719210D-01
  0.55403361D-01  0.81692223D-01  0.58560367D-01  0.54142796D-02 -0.10431888D-03
  0.67501941D-02  0.83433597D-02 -0.23139191D-01  0.24509919D-02  0.14578142D-02
 -0.82157928D-02 -0.15030120D-03 -0.45757056D-03  0.54661997D-03 -0.33314304D-02
 -0.35060959D-02  0.68375262D-02  0.19895088D-02 -0.68133415D-02 -0.69265093D-02
  0.52124249D-06 -0.54519521D-04  0.53998279D-04 -0.36851423D-03  0.11217650D-03
  0.85649982D-03 -0.70125867D-02 -0.12647489D-01 -0.18648715D-01 -0.12533716D-01
  0.96847032D-03  0.14700473D-03  0.56592573D-02 -0.91123182D-02  0.61126293D-02
  0.23514621D-02 -0.57704686D-02  0.42442316D-02 -0.40078387D-03 -0.19914451D-03
  0.51615668D-03 -0.13098316D-02 -0.14455281D-02  0.27553597D-02  0.78474734D-02
 -0.37001927D-02 -0.40878315D-05 -0.34395788D-03  0.13475948D-03  0.20919841D-03
  0.79059918D-03 -0.36552845D-03 -0.16058864D-04
MO    6     MO 0.0        OCC NO =    2.0000000  ORB. ENERGY =   -0.505886
 -0.47327027D-03 -0.88186945D-03 -0.14914623D-02 -0.22460596D-02 -0.27807675D-02
 -0.23663077D-02 -0.90042372D-03  0.42170684D-05 -0.73533339D-02 -0.13787570D-01
 -0.23456758D-01 -0.36425869D-01 -0.48339247D-01 -0.50942931D-01 -0.31587867D-01
  0.21012261D-01  0.10630147D-01  0.22032493D-01  0.31274447D-02  0.59049304D+00
  0.56716151D+00  0.39773280D+00  0.57193604D-01  0.54933773D-01  0.38523353D-01
  0.28701984D+00  0.27567913D+00  0.19332523D+00  0.13374626D+00  0.13582758D-01
  0.61795561D-01  0.13035406D-01 -0.17888830D-02  0.55473796D-02  0.13985845D-03
 -0.23482044D-03 -0.10227450D-03 -0.24480831D-01  0.16718130D-02  0.22809018D-01
 -0.14858806D-01  0.71651991D-02  0.24167133D-01 -0.28905725D-02 -0.22148029D-03
  0.31120528D-02 -0.11424719D-01  0.35032359D-02  0.31793511D-02  0.11954399D-03
  0.23844165D-03 -0.35798563D-03 -0.64184485D-03  0.44378921D-03 -0.84358461D-04
 -0.38455656D-02  0.20847899D-03 -0.91797560D-03  0.11759346D-01 -0.76827482D-03
  0.44295313D-02 -0.22264897D-03  0.14283784D-03 -0.16756045D-02  0.27907250D-02
 -0.12171275D-03 -0.15522519D-03  0.38090316D-03  0.40637395D-03  0.28863822D-03
 -0.72048714D-03 -0.41235695D-04  0.17703736D-03 -0.42222235D-03 -0.37837055D-03
  0.47327027D-03  0.88186945D-03  0.14914623D-02  0.22460596D-02  0.27807675D-02
  0.23663077D-02  0.90042372D-03 -0.42170684D-05  0.73533339D-02  0.13787570D-01
  0.23456758D-01  0.36425869D-01  0.48339247D-01  0.50942931D-01  0.31587867D-01
 -0.21012261D-01 -0.10630147D-01 -0.22032493D-01 -0.31274447D-02  0.59049304D+00
  0.56716151D+00  0.39773280D+00  0.57193604D-01  0.54933773D-01  0.38523353D-01
 -0.28701984D+00 -0.27567913D+00 -0.19332523D+00  0.13374626D+00  0.13582758D-01