 Molden2AIM, Version 4.0.0 (06/02/2016)           Time: Fri Jun 29 20:17:13 2018
GAUSSIAN             39 MOL ORBITALS    674 PRIMITIVES        6 NUCLEI
  N    1    (CENTRE  1)  -0.48709203  2.04675481  0.29298314  CHARGE =  7.0
  N    2    (CENTRE  2)   0.48709203 -2.04675481  0.29371068  CHARGE =  7.0
  S    3    (CENTRE  3)   2.06751345  3.55793477  0.29390721  CHARGE = 16.0
  S    4    (CENTRE  4)  -3.44856876  2.24531967  0.29392422  CHARGE = 16.0
  S    5    (CENTRE  5)  -2.06751345 -3.55793477  0.29360486  CHARGE = 16.0
  S    6    (CENTRE  6)   3.44856876 -2.24531778  0.29355762  CHARGE = 16.0
CENTRE ASSIGNMENTS    1  1  1  1  1  1  1  1  1  1  1  1  1  1  1  1  1  1  1  1
CENTRE ASSIGNMENTS    1  1  1  1  1  1  1  1  1  1  1  1  1  1  1  1  1  1  1  1
CENTRE ASSIGNMENTS    1  1  1  1  1  1  1  1  1  1  1  1  1  1  1  1  1  1  1  1
CENTRE ASSIGNMENTS    1  1  1  1  1  1  1  1  1  1  1  1  1  1  1  2  2  2  2  2
CENTRE ASSIGNMENTS    2  2  2  2  2  2  2  2  2  2  2  2  2  2  2  2  2  2  2  2
CENTRE ASSIGNMENTS    2  2  2  2  2  2  2  2  2  2  2  2  2  2  2  2  2  2  2  2
CENTRE ASSIGNMENTS    2  2  2  2  2  2  2  2  2  2  2  2  2  2  2  2  2  2  2  2
CENTRE ASSIGNMENTS    2  2  2  2  2  2  2  2  2  2  3  3  3  3  3  3  3  3  3  3
CENTRE ASSIGNMENTS    3  3  3  3  3  3  3  3  3  3  3  3  3  3  3  3  3  3  3  3
CENTRE ASSIGNMENTS    3  3  3  3  3  3  3  3  3  3  3  3  3  3  3  3  3  3  3  3
CENTRE ASSIGNMENTS    3  3  3  3  3  3  3  3  3  3  3  3  3  3  3  3  3  3  3  3
CENTRE ASSIGNMENTS    3  3  3  3  3  3  3  3  3  3  3  3  3  3  3  3  3  3  3  3
CENTRE ASSIGNMENTS    3  3  3  3  3  3  3  3  3  3  3  3  3  3  3  3  3  3  3  3
CENTRE ASSIGNMENTS    3  3  3  3  3  3  3  3  3  3  3  3  3  3  3  3  3  3  3  3
CENTRE ASSIGNMENTS    3  4  4  4  4  4  4  4  4  4  4  4  4  4  4  4  4  4  4  4
CENTRE ASSIGNMENTS    4  4  4  4  4  4  4  4  4  4  4  4  4  4  4  4  4  4  4  4
CENTRE ASSIGNMENTS    4  4  4  4  4  4  4  4  4  4  4  4  4  4  4  4  4  4  4  4
CENTRE ASSIGNMENTS    4  4  4  4  4  4  4  4  4  4  4  4  4  4  4  4  4  4  4  4
CENTRE ASSIGNMENTS    4  4  4  4  4  4  4  4  4  4  4  4  4  4  4  4  4  4  4  4
CENTRE ASSIGNMENTS    4  4  4  4  4  4  4  4  4  4  4  4  4  4  4  4  4  4  4  4
CENTRE ASSIGNMENTS    4  4  4  4  4  4  4  4  4  4  4  4  5  5  5  5  5  5  5  5
CENTRE ASSIGNMENTS    5  5  5  5  5  5  5  5  5  5  5  5  5  5  5  5  5  5  5  5
CENTRE ASSIGNMENTS    5  5  5  5  5  5  5  5  5  5  5  5  5  5  5  5  5  5  5  5
CENTRE ASSIGNMENTS    5  5  5  5  5  5  5  5  5  5  5  5  5  5  5  5  5  5  5  5
CENTRE ASSIGNMENTS    5  5  5  5  5  5  5  5  5  5  5  5  5  5  5  5  5  5  5  5
CENTRE ASSIGNMENTS    5  5  5  5  5  5  5  5  5  5  5  5  5  5  5  5  5  5  5  5
CENTRE ASSIGNMENTS    5  5  5  5  5  5  5  5  5  5  5  5  5  5  5  5  5  5  5  5
CENTRE ASSIGNMENTS    5  5  5  6  6  6  6  6  6  6  6  6  6  6  6  6  6  6  6  6
CENTRE ASSIGNMENTS    6  6  6  6  6  6  6  6  6  6  6  6  6  6  6  6  6  6  6  6
CENTRE ASSIGNMENTS    6  6  6  6  6  6  6  6  6  6  6  6  6  6  6  6  6  6  6  6
CENTRE ASSIGNMENTS    6  6  6  6  6  6  6  6  6  6  6  6  6  6  6  6  6  6  6  6
CENTRE ASSIGNMENTS    6  6  6  6  6  6  6  6  6  6  6  6  6  6  6  6  6  6  6  6
CENTRE ASSIGNMENTS    6  6  6  6  6  6  6  6  6  6  6  6  6  6  6  6  6  6  6  6
CENTRE ASSIGNMENTS    6  6  6  6  6  6  6  6  6  6  6  6  6  6
TYPE ASSIGNMENTS      1  1  1  1  1  1  1  1  1  1  1  1  1  1  1  1  1  1  1  2
TYPE ASSIGNMENTS      2  2  3  3  3  4  4  4  2  3  4  2  3  4  2  3  4  5  6  7
TYPE ASSIGNMENTS      8  9 10  5  6  7  8  9 10  5  6  7  8  9 10 11 12 13 17 14
TYPE ASSIGNMENTS     15 18 19 16 20 11 12 13 17 14 15 18 19 16 20  1  1  1  1  1
TYPE ASSIGNMENTS      1  1  1  1  1  1  1  1  1  1  1  1  1  1  2  2  2  3  3  3
TYPE ASSIGNMENTS      4  4  4  2  3  4  2  3  4  2  3  4  5  6  7  8  9 10  5  6
TYPE ASSIGNMENTS      7  8  9 10  5  6  7  8  9 10 11 12 13 17 14 15 18 19 16 20
TYPE ASSIGNMENTS     11 12 13 17 14 15 18 19 16 20  1  1  1  1  1  1  1  1  1  1
TYPE ASSIGNMENTS      1  1  1  1  1  1  1  1  1  1  1  1  1  1  1  1  1  1  1  1
TYPE ASSIGNMENTS      1  1  1  1  1  1  1  1  1  1  1  1  2  2  2  2  2  2  2  3
TYPE ASSIGNMENTS      3  3  3  3  3  3  4  4  4  4  4  4  4  2  2  2  2  2  2  2
TYPE ASSIGNMENTS      3  3  3  3  3  3  3  4  4  4  4  4  4  4  2  3  4  2  3  4
TYPE ASSIGNMENTS      2  3  4  5  6  7  8  9 10  5  6  7  8  9 10  5  6  7  8  9
TYPE ASSIGNMENTS     10 11 12 13 17 14 15 18 19 16 20 11 12 13 17 14 15 18 19 16
TYPE ASSIGNMENTS     20  1  1  1  1  1  1  1  1  1  1  1  1  1  1  1  1  1  1  1
TYPE ASSIGNMENTS      1  1  1  1  1  1  1  1  1  1  1  1  1  1  1  1  1  1  1  1
TYPE ASSIGNMENTS      1  1  1  2  2  2  2  2  2  2  3  3  3  3  3  3  3  4  4  4
TYPE ASSIGNMENTS      4  4  4  4  2  2  2  2  2  2  2  3  3  3  3  3  3  3  4  4
TYPE ASSIGNMENTS      4  4  4  4  4  2  3  4  2  3  4  2  3  4  5  6  7  8  9 10
TYPE ASSIGNMENTS      5  6  7  8  9 10  5  6  7  8  9 10 11 12 13 17 14 15 18 19
TYPE ASSIGNMENTS     16 20 11 12 13 17 14 15 18 19 16 20  1  1  1  1  1  1  1  1
TYPE ASSIGNMENTS      1  1  1  1  1  1  1  1  1  1  1  1  1  1  1  1  1  1  1  1
TYPE ASSIGNMENTS      1  1  1  1  1  1  1  1  1  1  1  1  1  1  2  2  2  2  2  2
TYPE ASSIGNMENTS      2  3  3  3  3  3  3  3  4  4  4  4  4  4  4  2  2  2  2  2
TYPE ASSIGNMENTS      2  2  3  3  3  3  3  3  3  4  4  4  4  4  4  4  2  3  4  2
TYPE ASSIGNMENTS      3  4  2  3  4  5  6  7  8  9 10  5  6  7  8  9 10  5  6  7
TYPE ASSIGNMENTS      8  9 10 11 12 13 17 14 15 18 19 16 20 11 12 13 17 14 15 18
TYPE ASSIGNMENTS     19 16 20  1  1  1  1  1  1  1  1  1  1  1  1  1  1  1  1  1
TYPE ASSIGNMENTS      1  1  1  1  1  1  1  1  1  1  1  1  1  1  1  1  1  1  1  1
TYPE ASSIGNMENTS      1  1  1  1  1  2  2  2  2  2  2  2  3  3  3  3  3  3  3  4
TYPE ASSIGNMENTS      4  4  4  4  4  4  2  2  2  2  2  2  2  3  3  3  3  3  3  3
TYPE ASSIGNMENTS      4  4  4  4  4  4  4  2  3  4  2  3  4  2  3  4  5  6  7  8
TYPE ASSIGNMENTS      9 10  5  6  7  8  9 10  5  6  7  8  9 10 11 12 13 17 14 15
TYPE ASSIGNMENTS     18 19 16 20 11 12 13 17 14 15 18 19 16 20
EXPONENTS  0.1142000D+05 0.1712000D+04 0.3893000D+03 0.1100000D+03 0.3557000D+02
EXPONENTS  0.1254000D+02 0.4644000D+01 0.5118000D+00 0.1142000D+05 0.1712000D+04
EXPONENTS  0.3893000D+03 0.1100000D+03 0.3557000D+02 0.1254000D+02 0.4644000D+01
EXPONENTS  0.5118000D+00 0.1293000D+01 0.1787000D+00 0.5760000D-01 0.2663000D+02
EXPONENTS  0.5948000D+01 0.1742000D+01 0.2663000D+02 0.5948000D+01 0.1742000D+01
EXPONENTS  0.2663000D+02 0.5948000D+01 0.1742000D+01 0.5550000D+00 0.5550000D+00
EXPONENTS  0.5550000D+00 0.1725000D+00 0.1725000D+00 0.1725000D+00 0.4910000D-01
EXPONENTS  0.4910000D-01 0.4910000D-01 0.1654000D+01 0.1654000D+01 0.1654000D+01
EXPONENTS  0.1654000D+01 0.1654000D+01 0.1654000D+01 0.4690000D+00 0.4690000D+00
EXPONENTS  0.4690000D+00 0.4690000D+00 0.4690000D+00 0.4690000D+00 0.1510000D+00
EXPONENTS  0.1510000D+00 0.1510000D+00 0.1510000D+00 0.1510000D+00 0.1510000D+00
EXPONENTS  0.1093000D+01 0.1093000D+01 0.1093000D+01 0.1093000D+01 0.1093000D+01
EXPONENTS  0.1093000D+01 0.1093000D+01 0.1093000D+01 0.1093000D+01 0.1093000D+01
EXPONENTS  0.3640000D+00 0.3640000D+00 0.3640000D+00 0.3640000D+00 0.3640000D+00
EXPONENTS  0.3640000D+00 0.3640000D+00 0.3640000D+00 0.3640000D+00 0.3640000D+00
EXPONENTS  0.1142000D+05 0.1712000D+04 0.3893000D+03 0.1100000D+03 0.3557000D+02
EXPONENTS  0.1254000D+02 0.4644000D+01 0.5118000D+00 0.1142000D+05 0.1712000D+04
EXPONENTS  0.3893000D+03 0.1100000D+03 0.3557000D+02 0.1254000D+02 0.4644000D+01
EXPONENTS  0.5118000D+00 0.1293000D+01 0.1787000D+00 0.5760000D-01 0.2663000D+02
EXPONENTS  0.5948000D+01 0.1742000D+01 0.2663000D+02 0.5948000D+01 0.1742000D+01
EXPONENTS  0.2663000D+02 0.5948000D+01 0.1742000D+01 0.5550000D+00 0.5550000D+00
EXPONENTS  0.5550000D+00 0.1725000D+00 0.1725000D+00 0.1725000D+00 0.4910000D-01
EXPONENTS  0.4910000D-01 0.4910000D-01 0.1654000D+01 0.1654000D+01 0.1654000D+01
EXPONENTS  0.1654000D+01 0.1654000D+01 0.1654000D+01 0.4690000D+00 0.4690000D+00
EXPONENTS  0.4690000D+00 0.4690000D+00 0.4690000D+00 0.4690000D+00 0.1510000D+00
EXPONENTS  0.1510000D+00 0.1510000D+00 0.1510000D+00 0.1510000D+00 0.1510000D+00
EXPONENTS  0.1093000D+01 0.1093000D+01 0.1093000D+01 0.1093000D+01 0.1093000D+01
EXPONENTS  0.1093000D+01 0.1093000D+01 0.1093000D+01 0.1093000D+01 0.1093000D+01
EXPONENTS  0.3640000D+00 0.3640000D+00 0.3640000D+00 0.3640000D+00 0.3640000D+00
EXPONENTS  0.3640000D+00 0.3640000D+00 0.3640000D+00 0.3640000D+00 0.3640000D+00
EXPONENTS  0.3741000D+06 0.5605000D+05 0.1276000D+05 0.3615000D+04 0.1183000D+04
EXPONENTS  0.4288000D+03 0.1678000D+03 0.6947000D+02 0.2984000D+02 0.1272000D+02
EXPONENTS  0.5244000D+01 0.2219000D+01 0.3490000D+00 0.3741000D+06 0.5605000D+05
EXPONENTS  0.1276000D+05 0.3615000D+04 0.1183000D+04 0.4288000D+03 0.1678000D+03
EXPONENTS  0.6947000D+02 0.2984000D+02 0.1272000D+02 0.5244000D+01 0.2219000D+01
EXPONENTS  0.3490000D+00 0.3741000D+06 0.5605000D+05 0.1276000D+05 0.3615000D+04
EXPONENTS  0.1183000D+04 0.4288000D+03 0.1678000D+03 0.6947000D+02 0.2984000D+02
EXPONENTS  0.1272000D+02 0.5244000D+01 0.2219000D+01 0.3490000D+00 0.7767000D+00
EXPONENTS  0.1322000D+00 0.4970000D-01 0.5744000D+03 0.1358000D+03 0.4319000D+02
EXPONENTS  0.1587000D+02 0.6208000D+01 0.2483000D+01 0.3229000D+00 0.5744000D+03
EXPONENTS  0.1358000D+03 0.4319000D+02 0.1587000D+02 0.6208000D+01 0.2483000D+01
EXPONENTS  0.3229000D+00 0.5744000D+03 0.1358000D+03 0.4319000D+02 0.1587000D+02
EXPONENTS  0.6208000D+01 0.2483000D+01 0.3229000D+00 0.5744000D+03 0.1358000D+03
EXPONENTS  0.4319000D+02 0.1587000D+02 0.6208000D+01 0.2483000D+01 0.3229000D+00
EXPONENTS  0.5744000D+03 0.1358000D+03 0.4319000D+02 0.1587000D+02 0.6208000D+01
EXPONENTS  0.2483000D+01 0.3229000D+00 0.5744000D+03 0.1358000D+03 0.4319000D+02
EXPONENTS  0.1587000D+02 0.6208000D+01 0.2483000D+01 0.3229000D+00 0.8688000D+00
EXPONENTS  0.8688000D+00 0.8688000D+00 0.1098000D+00 0.1098000D+00 0.1098000D+00
EXPONENTS  0.3510000D-01 0.3510000D-01 0.3510000D-01 0.2690000D+00 0.2690000D+00
EXPONENTS  0.2690000D+00 0.2690000D+00 0.2690000D+00 0.2690000D+00 0.8190000D+00
EXPONENTS  0.8190000D+00 0.8190000D+00 0.8190000D+00 0.8190000D+00 0.8190000D+00
EXPONENTS  0.1010000D+00 0.1010000D+00 0.1010000D+00 0.1010000D+00 0.1010000D+00
EXPONENTS  0.1010000D+00 0.5570000D+00 0.5570000D+00 0.5570000D+00 0.5570000D+00
EXPONENTS  0.5570000D+00 0.5570000D+00 0.5570000D+00 0.5570000D+00 0.5570000D+00
EXPONENTS  0.5570000D+00 0.2180000D+00 0.2180000D+00 0.2180000D+00 0.2180000D+00
EXPONENTS  0.2180000D+00 0.2180000D+00 0.2180000D+00 0.2180000D+00 0.2180000D+00
EXPONENTS  0.2180000D+00 0.3741000D+06 0.5605000D+05 0.1276000D+05 0.3615000D+04
EXPONENTS  0.1183000D+04 0.4288000D+03 0.1678000D+03 0.6947000D+02 0.2984000D+02
EXPONENTS  0.1272000D+02 0.5244000D+01 0.2219000D+01 0.3490000D+00 0.3741000D+06
EXPONENTS  0.5605000D+05 0.1276000D+05 0.3615000D+04 0.1183000D+04 0.4288000D+03
EXPONENTS  0.1678000D+03 0.6947000D+02 0.2984000D+02 0.1272000D+02 0.5244000D+01
EXPONENTS  0.2219000D+01 0.3490000D+00 0.3741000D+06 0.5605000D+05 0.1276000D+05
EXPONENTS  0.3615000D+04 0.1183000D+04 0.4288000D+03 0.1678000D+03 0.6947000D+02
EXPONENTS  0.2984000D+02 0.1272000D+02 0.5244000D+01 0.2219000D+01 0.3490000D+00
EXPONENTS  0.7767000D+00 0.1322000D+00 0.4970000D-01 0.5744000D+03 0.1358000D+03
EXPONENTS  0.4319000D+02 0.1587000D+02 0.6208000D+01 0.2483000D+01 0.3229000D+00
EXPONENTS  0.5744000D+03 0.1358000D+03 0.4319000D+02 0.1587000D+02 0.6208000D+01
EXPONENTS  0.2483000D+01 0.3229000D+00 0.5744000D+03 0.1358000D+03 0.4319000D+02
EXPONENTS  0.1587000D+02 0.6208000D+01 0.2483000D+01 0.3229000D+00 0.5744000D+03
EXPONENTS  0.1358000D+03 0.4319000D+02 0.1587000D+02 0.6208000D+01 0.2483000D+01
EXPONENTS  0.3229000D+00 0.5744000D+03 0.1358000D+03 0.4319000D+02 0.1587000D+02
EXPONENTS  0.6208000D+01 0.2483000D+01 0.3229000D+00 0.5744000D+03 0.1358000D+03
EXPONENTS  0.4319000D+02 0.1587000D+02 0.6208000D+01 0.2483000D+01 0.3229000D+00
EXPONENTS  0.8688000D+00 0.8688000D+00 0.8688000D+00 0.1098000D+00 0.1098000D+00
EXPONENTS  0.1098000D+00 0.3510000D-01 0.3510000D-01 0.3510000D-01 0.2690000D+00
EXPONENTS  0.2690000D+00 0.2690000D+00 0.2690000D+00 0.2690000D+00 0.2690000D+00
EXPONENTS  0.8190000D+00 0.8190000D+00 0.8190000D+00 0.8190000D+00 0.8190000D+00
EXPONENTS  0.8190000D+00 0.1010000D+00 0.1010000D+00 0.1010000D+00 0.1010000D+00
EXPONENTS  0.1010000D+00 0.1010000D+00 0.5570000D+00 0.5570000D+00 0.5570000D+00
EXPONENTS  0.5570000D+00 0.5570000D+00 0.5570000D+00 0.5570000D+00 0.5570000D+00
EXPONENTS  0.5570000D+00 0.5570000D+00 0.2180000D+00 0.2180000D+00 0.2180000D+00
EXPONENTS  0.2180000D+00 0.2180000D+00 0.2180000D+00 0.2180000D+00 0.2180000D+00
EXPONENTS  0.2180000D+00 0.2180000D+00 0.3741000D+06 0.5605000D+05 0.1276000D+05
EXPONENTS  0.3615000D+04 0.1183000D+04 0.4288000D+03 0.1678000D+03 0.6947000D+02
EXPONENTS  0.2984000D+02 0.1272000D+02 0.5244000D+01 0.2219000D+01 0.3490000D+00
EXPONENTS  0.3741000D+06 0.5605000D+05 0.1276000D+05 0.3615000D+04 0.1183000D+04
EXPONENTS  0.4288000D+03 0.1678000D+03 0.6947000D+02 0.2984000D+02 0.1272000D+02
EXPONENTS  0.5244000D+01 0.2219000D+01 0.3490000D+00 0.3741000D+06 0.5605000D+05
EXPONENTS  0.1276000D+05 0.3615000D+04 0.1183000D+04 0.4288000D+03 0.1678000D+03
EXPONENTS  0.6947000D+02 0.2984000D+02 0.1272000D+02 0.5244000D+01 0.2219000D+01
EXPONENTS  0.3490000D+00 0.7767000D+00 0.1322000D+00 0.4970000D-01 0.5744000D+03
EXPONENTS  0.1358000D+03 0.4319000D+02 0.1587000D+02 0.6208000D+01 0.2483000D+01
EXPONENTS  0.3229000D+00 0.5744000D+03 0.1358000D+03 0.4319000D+02 0.1587000D+02
EXPONENTS  0.6208000D+01 0.2483000D+01 0.3229000D+00 0.5744000D+03 0.1358000D+03
EXPONENTS  0.4319000D+02 0.1587000D+02 0.6208000D+01 0.2483000D+01 0.3229000D+00
EXPONENTS  0.5744000D+03 0.1358000D+03 0.4319000D+02 0.1587000D+02 0.6208000D+01
EXPONENTS  0.2483000D+01 0.3229000D+00 0.5744000D+03 0.1358000D+03 0.4319000D+02
EXPONENTS  0.1587000D+02 0.6208000D+01 0.2483000D+01 0.3229000D+00 0.5744000D+03
EXPONENTS  0.1358000D+03 0.4319000D+02 0.1587000D+02 0.6208000D+01 0.2483000D+01
EXPONENTS  0.3229000D+00 0.8688000D+00 0.8688000D+00 0.8688000D+00 0.1098000D+00
EXPONENTS  0.1098000D+00 0.1098000D+00 0.3510000D-01 0.3510000D-01 0.3510000D-01
EXPONENTS  0.2690000D+00 0.2690000D+00 0.2690000D+00 0.2690000D+00 0.2690000D+00
EXPONENTS  0.2690000D+00 0.8190000D+00 0.8190000D+00 0.8190000D+00 0.8190000D+00
EXPONENTS  0.8190000D+00 0.8190000D+00 0.1010000D+00 0.1010000D+00 0.1010000D+00
EXPONENTS  0.1010000D+00 0.1010000D+00 0.1010000D+00 0.5570000D+00 0.5570000D+00
EXPONENTS  0.5570000D+00 0.5570000D+00 0.5570000D+00 0.5570000D+00 0.5570000D+00
EXPONENTS  0.5570000D+00 0.5570000D+00 0.5570000D+00 0.2180000D+00 0.2180000D+00
EXPONENTS  0.2180000D+00 0.2180000D+00 0.2180000D+00 0.2180000D+00 0.2180000D+00
EXPONENTS  0.2180000D+00 0.2180000D+00 0.2180000D+00 0.3741000D+06 0.5605000D+05
EXPONENTS  0.1276000D+05 0.3615000D+04 0.1183000D+04 0.4288000D+03 0.1678000D+03
EXPONENTS  0.6947000D+02 0.2984000D+02 0.1272000D+02 0.5244000D+01 0.2219000D+01
EXPONENTS  0.3490000D+00 0.3741000D+06 0.5605000D+05 0.1276000D+05 0.3615000D+04
EXPONENTS  0.1183000D+04 0.4288000D+03 0.1678000D+03 0.6947000D+02 0.2984000D+02
EXPONENTS  0.1272000D+02 0.5244000D+01 0.2219000D+01 0.3490000D+00 0.3741000D+06
EXPONENTS  0.5605000D+05 0.1276000D+05 0.3615000D+04 0.1183000D+04 0.4288000D+03
EXPONENTS  0.1678000D+03 0.6947000D+02 0.2984000D+02 0.1272000D+02 0.5244000D+01
EXPONENTS  0.2219000D+01 0.3490000D+00 0.7767000D+00 0.1322000D+00 0.4970000D-01
EXPONENTS  0.5744000D+03 0.1358000D+03 0.4319000D+02 0.1587000D+02 0.6208000D+01
EXPONENTS  0.2483000D+01 0.3229000D+00 0.5744000D+03 0.1358000D+03 0.4319000D+02
EXPONENTS  0.1587000D+02 0.6208000D+01 0.2483000D+01 0.3229000D+00 0.5744000D+03
EXPONENTS  0.1358000D+03 0.4319000D+02 0.1587000D+02 0.6208000D+01 0.2483000D+01
EXPONENTS  0.3229000D+00 0.5744000D+03 0.1358000D+03 0.4319000D+02 0.1587000D+02
EXPONENTS  0.6208000D+01 0.2483000D+01 0.3229000D+00 0.5744000D+03 0.1358000D+03
EXPONENTS  0.4319000D+02 0.1587000D+02 0.6208000D+01 0.2483000D+01 0.3229000D+00
EXPONENTS  0.5744000D+03 0.1358000D+03 0.4319000D+02 0.1587000D+02 0.6208000D+01
EXPONENTS  0.2483000D+01 0.3229000D+00 0.8688000D+00 0.8688000D+00 0.8688000D+00
EXPONENTS  0.1098000D+00 0.1098000D+00 0.1098000D+00 0.3510000D-01 0.3510000D-01
EXPONENTS  0.3510000D-01 0.2690000D+00 0.2690000D+00 0.2690000D+00 0.2690000D+00
EXPONENTS  0.2690000D+00 0.2690000D+00 0.8190000D+00 0.8190000D+00 0.8190000D+00
EXPONENTS  0.8190000D+00 0.8190000D+00 0.8190000D+00 0.1010000D+00 0.1010000D+00
EXPONENTS  0.1010000D+00 0.1010000D+00 0.1010000D+00 0.1010000D+00 0.5570000D+00
EXPONENTS  0.5570000D+00 0.5570000D+00 0.5570000D+00 0.5570000D+00 0.5570000D+00
EXPONENTS  0.5570000D+00 0.5570000D+00 0.5570000D+00 0.5570000D+00 0.2180000D+00
EXPONENTS  0.2180000D+00 0.2180000D+00 0.2180000D+00 0.2180000D+00 0.2180000D+00
EXPONENTS  0.2180000D+00 0.2180000D+00 0.2180000D+00 0.2180000D+00
MO    1     MO 0.0        OCC NO =    2.0000000  ORB. ENERGY =  -89.103665
 -0.10924280D-03 -0.20355787D-03 -0.34426739D-03 -0.51844761D-03 -0.64187177D-03
 -0.54620391D-03 -0.20784066D-03  0.97340649D-06  0.78206094D-04  0.14663716D-03
  0.24947343D-03  0.38740590D-03  0.51411016D-03  0.54180154D-03  0.33595152D-03
 -0.22347508D-03 -0.11049188D-03  0.20717432D-03  0.31258710D-03 -0.29720430D-04
 -0.28546118D-04 -0.20018508D-04  0.11005524D-04  0.10570675D-04  0.74128866D-05
 -0.13814279D-06 -0.13268449D-06 -0.93047526D-07 -0.73585940D-06 -0.11359441D-03
  0.91171690D-07  0.95377925D-04  0.62756115D-03 -0.18129030D-07  0.78937383D-04
 -0.20339144D-04  0.16995448D-08 -0.18010274D-03  0.13332826D-04  0.16676992D-03
 -0.23039082D-03  0.54895110D-07 -0.18840075D-06  0.18386658D-03 -0.34626298D-04
 -0.14924028D-03  0.20658456D-03 -0.18076522D-07  0.12725166D-06  0.19048535D-03
 -0.13847682D-03 -0.52008530D-04  0.17252199D-03 -0.34132891D-07  0.53675470D-07
 -0.10106859D-06  0.28859201D-04 -0.48135219D-07 -0.48684824D-04 -0.12641830D-03
  0.26973273D-07  0.48988029D-04  0.39840697D-04  0.11743239D-06  0.26372444D-07
 -0.25939730D-04 -0.56854779D-04 -0.11589144D-07  0.11634011D-03  0.25152321D-03
  0.65431484D-07 -0.38520918D-04 -0.80958871D-04 -0.30664053D-07  0.30635453D-07
  0.15319831D-03  0.28546250D-03  0.48278865D-03  0.72705296D-03  0.90013873D-03
  0.76597743D-03  0.29146854D-03 -0.13650715D-05 -0.10982251D-03 -0.20591823D-03
 -0.35032818D-03 -0.54402268D-03 -0.72194973D-03 -0.76083592D-03 -0.47176681D-03
  0.31381946D-03  0.16599176D-03 -0.41634739D-03 -0.32477563D-03  0.17093870D-03
  0.16418457D-03  0.11513756D-03  0.11526544D-04  0.11071108D-04  0.77638252D-05
 -0.65189164D-07 -0.62613413D-07 -0.43908847D-07  0.73418635D-05 -0.83317164D-04
  0.58598893D-07 -0.85119661D-03  0.42843137D-03 -0.57753721D-07 -0.81325986D-04
 -0.64568637D-04  0.15547171D-07  0.35348106D-03 -0.10449860D-03 -0.24898247D-03
  0.53576512D-05  0.53596710D-09 -0.83722758D-07 -0.36465408D-03  0.13536062D-03
  0.22929346D-03 -0.64033868D-05  0.22537221D-07  0.36094231D-07 -0.25078169D-03
  0.18495133D-03  0.65830354D-04 -0.11184237D-03  0.24244440D-07 -0.64481797D-07
  0.72537677D-04 -0.91626941D-05 -0.49270800D-07 -0.10587325D-03 -0.85475214D-05
  0.69898449D-07 -0.11173979D-03  0.36035604D-04  0.77913950D-07  0.92515107D-08
 -0.14871115D-03 -0.25613488D-04  0.13130273D-07  0.27012156D-03  0.13292053D-03
 -0.23524374D-07  0.17601190D-03 -0.56080069D-04 -0.15866445D-07 -0.23911377D-07
 -0.24043493D+00 -0.44947914D+00 -0.77684028D+00 -0.12565043D+01 -0.18991327D+01
 -0.26154173D+01 -0.30568165D+01 -0.26413201D+01 -0.12319211D+01 -0.16726827D+00
 -0.44790321D-03 -0.87860094D-03 -0.40111803D-04  0.57194533D-03  0.10681323D-02
  0.18528407D-02  0.30043171D-02  0.46254882D-02  0.65877342D-02  0.84709710D-02
  0.88919989D-02  0.62872733D-02 -0.13923430D-03 -0.45174871D-02 -0.24874510D-02
  0.10519388D-04 -0.27253816D-03 -0.50859652D-03 -0.88337128D-03 -0.14308655D-02
 -0.22102684D-02 -0.31510697D-02 -0.40985124D-02 -0.43679094D-02 -0.32395876D-02
  0.10083633D-03  0.29348976D-02  0.28751867D-02 -0.13428827D-02  0.11301699D-02
 -0.37279961D-03 -0.89188160D-04  0.79751246D-02  0.10462929D-01  0.11476239D-01
  0.94428310D-02  0.49784472D-02  0.12951567D-02 -0.14332229D-05  0.54591418D-02
  0.71620968D-02  0.78557286D-02  0.64638180D-02  0.34078527D-02  0.88656219D-03
 -0.98107145D-06  0.57386655D-05  0.75288166D-05  0.82579643D-05  0.67947839D-05
  0.35823445D-05  0.93195671D-06 -0.10313051D-08 -0.71328103D-02 -0.93654233D-02
 -0.10536733D-01 -0.88779939D-02 -0.49662253D-02 -0.12360834D-02  0.56692740D-03
 -0.48489867D-02 -0.63667490D-02 -0.71630220D-02 -0.60353876D-02 -0.33761112D-02
 -0.84030720D-03  0.38540537D-03 -0.49989949D-05 -0.65637107D-05 -0.73846171D-05
 -0.62220983D-05 -0.34805545D-05 -0.86630294D-06  0.39732827D-06 -0.11014551D-03
 -0.11042286D-03 -0.22115733D-06  0.45496445D-05  0.52264279D-05  0.10158909D-06
  0.16647415D-06  0.70661375D-06  0.46092300D-08 -0.34744030D-04  0.43612425D-04
 -0.88683948D-05 -0.57539169D-04 -0.16026161D-06 -0.89866563D-07 -0.16070069D-03
 -0.78583912D-05  0.16855908D-03 -0.25259608D-03 -0.18667500D-06 -0.51384791D-07
  0.85158276D-05  0.57758325D-05 -0.14291660D-04  0.15789080D-05  0.10767120D-08
 -0.19001667D-07  0.31652883D-04 -0.12335140D-04 -0.40852648D-07 -0.50547577D-04
  0.73671654D-04  0.17599917D-06 -0.44411071D-04 -0.36666233D-04 -0.53441221D-07
  0.68267866D-07 -0.49595914D-05 -0.10367696D-04  0.62000728D-08 -0.31044998D-05
  0.28509249D-05 -0.17256059D-07  0.17983274D-04  0.28252163D-04 -0.13441596D-08
  0.23767358D-07 -0.17029213D+00 -0.31835124D+00 -0.55021034D+00 -0.88994053D+00
 -0.13450930D+01 -0.18524138D+01 -0.21650422D+01 -0.18707598D+01 -0.87252905D+00
 -0.11847059D+00 -0.31723506D-03 -0.62228405D-03 -0.28409866D-04  0.39382940D-03
  0.73549318D-03  0.12758267D-02  0.20687089D-02  0.31850129D-02  0.45361738D-02
  0.58329306D-02  0.61228414D-02  0.43292828D-02 -0.95873780D-04 -0.31106456D-02
 -0.17128059D-02  0.72434271D-05 -0.18658650D-03 -0.34819801D-03 -0.60477826D-03
 -0.97960660D-03 -0.15132055D-02 -0.21573018D-02 -0.28059450D-02 -0.29903810D-02
 -0.22179034D-02  0.69035096D-04  0.20093049D-02  0.19684253D-02 -0.91937137D-03
  0.79020723D-03 -0.16288090D-03  0.13657232D-03 -0.55540280D-02 -0.72865822D-02
 -0.79922701D-02 -0.65761665D-02 -0.34670850D-02 -0.90197166D-03  0.99812359D-06
 -0.64976095D-03 -0.85245098D-03 -0.93500880D-03 -0.76934006D-03 -0.40561129D-03
 -0.10552089D-03  0.11676962D-06  0.37005016D-05  0.48548565D-05  0.53250376D-05
  0.43815254D-05  0.23100268D-05  0.60095980D-06 -0.66502328D-09  0.49131301D-02
  0.64509697D-02  0.72577759D-02  0.61152249D-02  0.34207711D-02  0.85142296D-03
 -0.39050359D-03  0.59955943D-03  0.78722519D-03  0.88568141D-03  0.74625356D-03
  0.41744378D-03  0.10390091D-03 -0.47653962D-04 -0.31464333D-05 -0.41312861D-05
 -0.46479755D-05 -0.39162707D-05 -0.21907069D-05 -0.54526250D-06  0.25008365D-06
  0.10476539D-03  0.25577952D-04 -0.18821820D-06  0.35463526D-04  0.19981841D-04
  0.37033671D-08  0.51898953D-05  0.16578726D-05 -0.57644854D-08 -0.17235067D-04
  0.41920721D-04 -0.24685654D-04 -0.77901856D-04  0.58743124D-07  0.21391158D-07
 -0.15087666D-03  0.40151830D-04  0.11072483D-03 -0.56389688D-04  0.96890458D-07
  0.67612232D-07  0.63385257D-05  0.48780464D-06 -0.68263304D-05  0.53470775D-05
 -0.10994063D-07 -0.13618360D-07 -0.26098883D-04  0.17562591D-04 -0.15504913D-07
  0.67872310D-04 -0.69473942D-04  0.78035938D-07  0.10424341D-04  0.16786169D-04
 -0.31521198D-07  0.20006364D-06  0.20646978D-06 -0.56395193D-06  0.85641956D-08
  0.15150782D-04 -0.64407726D-05 -0.17026016D-07 -0.15770191D-04  0.81326284D-05
 -0.86665707D-08 -0.15139415D-07  0.11025074D+00  0.20610736D+00  0.35621786D+00
  0.57616641D+00  0.87084178D+00  0.11992920D+01  0.14016943D+01  0.12111697D+01
  0.56489384D+00  0.76700380D-01  0.20538472D-03  0.40287992D-03  0.18393151D-04
 -0.29078714D-03 -0.54305738D-03 -0.94201705D-03 -0.15274481D-02 -0.23516802D-02
 -0.33493208D-02 -0.43067918D-02 -0.45208498D-02 -0.31965612D-02  0.70789186D-04
  0.22967705D-02  0.12646642D-02 -0.53482434D-05  0.14016316D-03  0.26156519D-03
  0.45430743D-03  0.73587724D-03  0.11367150D-02  0.16205580D-02  0.21078166D-02
  0.22463643D-02  0.16660817D-02 -0.51858937D-04 -0.15093832D-02 -0.14786746D-02
  0.69062874D-03 -0.55259810D-03  0.26099269D-04 -0.19760160D-03  0.30958978D-02
  0.40616493D-02  0.44550102D-02  0.36656530D-02  0.19326048D-02  0.50277241D-03
 -0.55636893D-06  0.88916272D-03  0.11665331D-02  0.12795090D-02  0.10528003D-02
  0.55505712D-03  0.14439963D-03 -0.15979291D-06  0.11543379D-05  0.15144285D-05
  0.16610972D-05  0.13667771D-05  0.72059192D-06  0.18746396D-06 -0.20744798D-09
 -0.28055994D-02 -0.36837690D-02 -0.41444886D-02 -0.34920450D-02 -0.19534010D-02
 -0.48619753D-03  0.22299361D-03 -0.73659815D-03 -0.96715786D-03 -0.10881178D-02
 -0.91682152D-03 -0.51285710D-03 -0.12764909D-03  0.58546023D-04 -0.98589379D-06
 -0.12944846D-05 -0.14563824D-05 -0.12271123D-05 -0.68642941D-06 -0.17085088D-06
  0.78360447D-07 -0.27965581D-04 -0.31629540D-04 -0.70126394D-07 -0.96029313D-04
  0.58036414D-05 -0.19709978D-07 -0.72152303D-05 -0.18895353D-05 -0.29656972D-08
  0.29962962D-04 -0.61199379D-04  0.31236418D-04 -0.13713914D-04  0.15242778D-07
  0.27100448D-07  0.14636448D-03 -0.57181799D-04 -0.89182682D-04  0.54945851D-04
  0.47279722D-07 -0.22125592D-07 -0.11186518D-04  0.42236113D-05  0.69629063D-05
 -0.34863964D-06 -0.97357054D-08  0.16927503D-08  0.29801169D-04 -0.29770484D-04
 -0.11794958D-07 -0.94868416D-04  0.59103793D-04  0.56369015D-07  0.54649081D-05
  0.30207658D-04 -0.20984141D-07  0.68118078D-08  0.24230411D-05 -0.83805550D-05
  0.24209703D-08 -0.10587567D-04  0.12631202D-04 -0.12765144D-07  0.33184432D-05
  0.12510463D-04  0.55022329D-08  0.86151499D-08  0.49344899D+00  0.92247421D+00
  0.15943234D+01  0.25787466D+01  0.38976245D+01  0.53676685D+01  0.62735600D+01
  0.54208292D+01  0.25282940D+01  0.34328771D+00  0.91923991D-03  0.18031687D-02
  0.82322183D-04 -0.10103821D-02 -0.18869315D-02 -0.32731747D-02 -0.53073396D-02
 -0.81712536D-02 -0.11637701D-01 -0.14964572D-01 -0.15708348D-01 -0.11106915D-01
  0.24596728D-03  0.79804620D-02  0.43942590D-02 -0.18583247D-04  0.46944747D-03
  0.87605843D-03  0.15216086D-02  0.24646684D-02  0.38071913D-02  0.54277233D-02
  0.70596950D-02  0.75237319D-02  0.55801955D-02 -0.17369076D-03 -0.50553664D-02
 -0.49525142D-02  0.23131179D-02 -0.22084612D-02  0.57504798D-03  0.14278225D-03
 -0.17223664D-01 -0.22596509D-01 -0.24784926D-01 -0.20393430D-01 -0.10751820D-01
 -0.27971153D-02  0.30952932D-05  0.17906057D-02  0.23491771D-02  0.25766893D-02
  0.21201408D-02  0.11177801D-02  0.29079356D-03 -0.32179272D-06  0.20122724D-05
  0.26399918D-05  0.28956686D-05  0.23826020D-05  0.12561549D-05  0.32679213D-06
 -0.36162881D-09  0.15216594D-01  0.19979480D-01  0.22478263D-01  0.18939636D-01
  0.10594567D-01  0.26369661D-02 -0.12094397D-02 -0.15691951D-02 -0.20603627D-02
 -0.23180469D-02 -0.19531298D-02 -0.10925534D-02 -0.27193432D-03  0.12472218D-03
 -0.17496062D-05 -0.22972436D-05 -0.25845539D-05 -0.21776821D-05 -0.12181648D-05
 -0.30319874D-06  0.13906155D-06  0.35490289D-03 -0.51161379D-04 -0.81268602D-07
 -0.35544213D-04  0.63198162D-05  0.69009804D-08 -0.17554284D-05  0.20967687D-05
 -0.56176852D-09  0.85492271D-04 -0.76925884D-04 -0.85663876D-05  0.41863521D-06
 -0.61305541D-07  0.20594748D-07  0.41267735D-03 -0.14252705D-03 -0.27015029D-03
 -0.76285138D-04 -0.90728841D-07 -0.15351265D-07 -0.14372684D-04 -0.38305863D-05
  0.18203271D-04 -0.78228382D-06  0.24758268D-08  0.68057231D-08 -0.84957407D-04
  0.95606415D-05 -0.22634817D-07  0.11019967D-03 -0.11174350D-04  0.72408186D-07
  0.14467255D-03 -0.17507574D-04 -0.45037343D-08  0.26926786D-07  0.12440882D-04
 -0.52817488D-05  0.24647695D-08  0.85196825D-05  0.70956579D-06 -0.28945411D-08
 -0.45842329D-04  0.15135681D-04 -0.44997674D-08 -0.22411288D-07
MO    2     MO 0.0        OCC NO =    2.0000000  ORB. ENERGY =  -89.103659
  0.12914570D-03  0.24064399D-03  0.40698932D-03  0.61290336D-03  0.75881412D-03
  0.64571657D-03  0.24570707D-03 -0.11507510D-05 -0.92709165D-04 -0.17383055D-03
 -0.29573749D-03 -0.45924909D-03 -0.60945026D-03 -0.64227691D-03 -0.39825266D-03
  0.26491782D-03  0.14950165D-03 -0.46004193D-03 -0.17532812D-03 -0.20762853D-03
 -0.19942472D-03 -0.13985038D-03  0.22407969D-04  0.21522587D-04  0.15093123D-04
  0.18723306D-06  0.17983512D-06  0.12611280D-06 -0.14848464D-04  0.40398794D-05
 -0.11725328D-06  0.10190051D-02 -0.10111485D-03 -0.15724355D-06  0.15330107D-03
  0.66232768D-04 -0.73994212D-08  0.34702649D-03 -0.12403793D-03 -0.22298856D-03
 -0.11856739D-03 -0.16617633D-06  0.16522572D-06 -0.36064039D-03  0.15000683D-03
  0.21063356D-03  0.84208557D-04  0.23058955D-06 -0.98214324D-07 -0.18182037D-03
  0.13248408D-03  0.49336297D-04 -0.42629710D-04  0.94370580D-07 -0.38273390D-07
 -0.82357213D-04  0.37694017D-04  0.27558972D-07  0.78591536D-04 -0.80355313D-04
 -0.12819345D-08  0.16848010D-03 -0.32726740D-04 -0.81394980D-07  0.15226709D-06
  0.15910733D-03 -0.43675873D-05  0.39311106D-07 -0.25060395D-03 -0.13177424D-04
 -0.17251661D-06 -0.22671803D-03  0.26280185D-04  0.54583291D-07 -0.65412920D-07
 -0.55872412D-06 -0.10411001D-05 -0.17607613D-05 -0.26516090D-05 -0.32828639D-05
 -0.27935690D-05 -0.10630046D-05  0.49785038D-08  0.21888146D-06  0.41040479D-06
  0.69822065D-06  0.10842630D-05  0.14388800D-05  0.15163820D-05  0.94025358D-06
 -0.62545705D-06  0.12856601D-04 -0.15187956D-03  0.13967396D-03  0.19820209D-03
  0.19037074D-03  0.13350110D-03 -0.19176267D-04 -0.18418575D-04 -0.12916376D-04
  0.12915817D-07  0.12405488D-07  0.86995844D-08 -0.50062010D-05  0.89326719D-04
 -0.22097715D-07 -0.85320152D-03 -0.47020907D-03  0.95921808D-07 -0.16142372D-03
 -0.26482951D-04 -0.31200003D-08  0.91441017D-04 -0.73926458D-04 -0.17514559D-04