 Molden2AIM, Version 4.0.0 (06/02/2016)           Time: Fri Jun 29 15:55:29 2018
GAUSSIAN             24 MOL ORBITALS    413 PRIMITIVES        3 NUCLEI
  N    1    (CENTRE  1)   0.00000000  0.00000000 -2.62636782  CHARGE =  7.0
  N    2    (CENTRE  2)   0.00000000  0.00000000 -0.50142938  CHARGE =  7.0
  Se   3    (CENTRE  3)   0.00000000  0.00000000  2.82872915  CHARGE = 34.0
CENTRE ASSIGNMENTS    1  1  1  1  1  1  1  1  1  1  1  1  1  1  1  1  1  1  1  1
CENTRE ASSIGNMENTS    1  1  1  1  1  1  1  1  1  1  1  1  1  1  1  1  1  1  1  1
CENTRE ASSIGNMENTS    1  1  1  1  1  1  1  1  1  1  1  1  1  1  1  1  1  1  1  1
CENTRE ASSIGNMENTS    1  1  1  1  1  1  1  1  1  1  1  1  1  1  1  2  2  2  2  2
CENTRE ASSIGNMENTS    2  2  2  2  2  2  2  2  2  2  2  2  2  2  2  2  2  2  2  2
CENTRE ASSIGNMENTS    2  2  2  2  2  2  2  2  2  2  2  2  2  2  2  2  2  2  2  2
CENTRE ASSIGNMENTS    2  2  2  2  2  2  2  2  2  2  2  2  2  2  2  2  2  2  2  2
CENTRE ASSIGNMENTS    2  2  2  2  2  2  2  2  2  2  3  3  3  3  3  3  3  3  3  3
CENTRE ASSIGNMENTS    3  3  3  3  3  3  3  3  3  3  3  3  3  3  3  3  3  3  3  3
CENTRE ASSIGNMENTS    3  3  3  3  3  3  3  3  3  3  3  3  3  3  3  3  3  3  3  3
CENTRE ASSIGNMENTS    3  3  3  3  3  3  3  3  3  3  3  3  3  3  3  3  3  3  3  3
CENTRE ASSIGNMENTS    3  3  3  3  3  3  3  3  3  3  3  3  3  3  3  3  3  3  3  3
CENTRE ASSIGNMENTS    3  3  3  3  3  3  3  3  3  3  3  3  3  3  3  3  3  3  3  3
CENTRE ASSIGNMENTS    3  3  3  3  3  3  3  3  3  3  3  3  3  3  3  3  3  3  3  3
CENTRE ASSIGNMENTS    3  3  3  3  3  3  3  3  3  3  3  3  3  3  3  3  3  3  3  3
CENTRE ASSIGNMENTS    3  3  3  3  3  3  3  3  3  3  3  3  3  3  3  3  3  3  3  3
CENTRE ASSIGNMENTS    3  3  3  3  3  3  3  3  3  3  3  3  3  3  3  3  3  3  3  3
CENTRE ASSIGNMENTS    3  3  3  3  3  3  3  3  3  3  3  3  3  3  3  3  3  3  3  3
CENTRE ASSIGNMENTS    3  3  3  3  3  3  3  3  3  3  3  3  3  3  3  3  3  3  3  3
CENTRE ASSIGNMENTS    3  3  3  3  3  3  3  3  3  3  3  3  3  3  3  3  3  3  3  3
CENTRE ASSIGNMENTS    3  3  3  3  3  3  3  3  3  3  3  3  3
TYPE ASSIGNMENTS      1  1  1  1  1  1  1  1  1  1  1  1  1  1  1  1  1  1  1  2
TYPE ASSIGNMENTS      2  2  3  3  3  4  4  4  2  3  4  2  3  4  2  3  4  5  6  7
TYPE ASSIGNMENTS      8  9 10  5  6  7  8  9 10  5  6  7  8  9 10 11 12 13 17 14
TYPE ASSIGNMENTS     15 18 19 16 20 11 12 13 17 14 15 18 19 16 20  1  1  1  1  1
TYPE ASSIGNMENTS      1  1  1  1  1  1  1  1  1  1  1  1  1  1  2  2  2  3  3  3
TYPE ASSIGNMENTS      4  4  4  2  3  4  2  3  4  2  3  4  5  6  7  8  9 10  5  6
TYPE ASSIGNMENTS      7  8  9 10  5  6  7  8  9 10 11 12 13 17 14 15 18 19 16 20
TYPE ASSIGNMENTS     11 12 13 17 14 15 18 19 16 20  1  1  1  1  1  1  1  1  1  1
TYPE ASSIGNMENTS      1  1  1  1  1  1  1  1  1  1  1  1  1  1  1  1  1  1  1  1
TYPE ASSIGNMENTS      1  1  1  1  1  1  1  1  1  1  1  1  1  1  1  1  1  1  1  1
TYPE ASSIGNMENTS      1  1  1  1  1  1  1  1  1  1  1  1  1  1  1  1  1  1  1  1
TYPE ASSIGNMENTS      1  1  1  1  1  2  2  2  2  2  2  2  2  2  2  2  3  3  3  3
TYPE ASSIGNMENTS      3  3  3  3  3  3  3  4  4  4  4  4  4  4  4  4  4  4  2  2
TYPE ASSIGNMENTS      2  2  2  2  2  2  2  2  2  3  3  3  3  3  3  3  3  3  3  3
TYPE ASSIGNMENTS      4  4  4  4  4  4  4  4  4  4  4  2  2  2  2  2  2  2  2  2
TYPE ASSIGNMENTS      2  2  3  3  3  3  3  3  3  3  3  3  3  4  4  4  4  4  4  4
TYPE ASSIGNMENTS      4  4  4  4  2  3  4  2  3  4  2  3  4  5  5  5  5  5  5  5
TYPE ASSIGNMENTS      6  6  6  6  6  6  6  7  7  7  7  7  7  7  8  8  8  8  8  8
TYPE ASSIGNMENTS      8  9  9  9  9  9  9  9 10 10 10 10 10 10 10  5  6  7  8  9
TYPE ASSIGNMENTS     10  5  6  7  8  9 10  5  6  7  8  9 10 11 12 13 17 14 15 18
TYPE ASSIGNMENTS     19 16 20 11 12 13 17 14 15 18 19 16 20
EXPONENTS  0.1142000D+05 0.1712000D+04 0.3893000D+03 0.1100000D+03 0.3557000D+02
EXPONENTS  0.1254000D+02 0.4644000D+01 0.5118000D+00 0.1142000D+05 0.1712000D+04
EXPONENTS  0.3893000D+03 0.1100000D+03 0.3557000D+02 0.1254000D+02 0.4644000D+01
EXPONENTS  0.5118000D+00 0.1293000D+01 0.1787000D+00 0.5760000D-01 0.2663000D+02
EXPONENTS  0.5948000D+01 0.1742000D+01 0.2663000D+02 0.5948000D+01 0.1742000D+01
EXPONENTS  0.2663000D+02 0.5948000D+01 0.1742000D+01 0.5550000D+00 0.5550000D+00
EXPONENTS  0.5550000D+00 0.1725000D+00 0.1725000D+00 0.1725000D+00 0.4910000D-01
EXPONENTS  0.4910000D-01 0.4910000D-01 0.1654000D+01 0.1654000D+01 0.1654000D+01
EXPONENTS  0.1654000D+01 0.1654000D+01 0.1654000D+01 0.4690000D+00 0.4690000D+00
EXPONENTS  0.4690000D+00 0.4690000D+00 0.4690000D+00 0.4690000D+00 0.1510000D+00
EXPONENTS  0.1510000D+00 0.1510000D+00 0.1510000D+00 0.1510000D+00 0.1510000D+00
EXPONENTS  0.1093000D+01 0.1093000D+01 0.1093000D+01 0.1093000D+01 0.1093000D+01
EXPONENTS  0.1093000D+01 0.1093000D+01 0.1093000D+01 0.1093000D+01 0.1093000D+01
EXPONENTS  0.3640000D+00 0.3640000D+00 0.3640000D+00 0.3640000D+00 0.3640000D+00
EXPONENTS  0.3640000D+00 0.3640000D+00 0.3640000D+00 0.3640000D+00 0.3640000D+00
EXPONENTS  0.1142000D+05 0.1712000D+04 0.3893000D+03 0.1100000D+03 0.3557000D+02
EXPONENTS  0.1254000D+02 0.4644000D+01 0.5118000D+00 0.1142000D+05 0.1712000D+04
EXPONENTS  0.3893000D+03 0.1100000D+03 0.3557000D+02 0.1254000D+02 0.4644000D+01
EXPONENTS  0.5118000D+00 0.1293000D+01 0.1787000D+00 0.5760000D-01 0.2663000D+02
EXPONENTS  0.5948000D+01 0.1742000D+01 0.2663000D+02 0.5948000D+01 0.1742000D+01
EXPONENTS  0.2663000D+02 0.5948000D+01 0.1742000D+01 0.5550000D+00 0.5550000D+00
EXPONENTS  0.5550000D+00 0.1725000D+00 0.1725000D+00 0.1725000D+00 0.4910000D-01
EXPONENTS  0.4910000D-01 0.4910000D-01 0.1654000D+01 0.1654000D+01 0.1654000D+01
EXPONENTS  0.1654000D+01 0.1654000D+01 0.1654000D+01 0.4690000D+00 0.4690000D+00
EXPONENTS  0.4690000D+00 0.4690000D+00 0.4690000D+00 0.4690000D+00 0.1510000D+00
EXPONENTS  0.1510000D+00 0.1510000D+00 0.1510000D+00 0.1510000D+00 0.1510000D+00
EXPONENTS  0.1093000D+01 0.1093000D+01 0.1093000D+01 0.1093000D+01 0.1093000D+01
EXPONENTS  0.1093000D+01 0.1093000D+01 0.1093000D+01 0.1093000D+01 0.1093000D+01
EXPONENTS  0.3640000D+00 0.3640000D+00 0.3640000D+00 0.3640000D+00 0.3640000D+00
EXPONENTS  0.3640000D+00 0.3640000D+00 0.3640000D+00 0.3640000D+00 0.3640000D+00
EXPONENTS  0.9563600D+07 0.1432100D+07 0.3259100D+06 0.9231200D+05 0.3011600D+05
EXPONENTS  0.1087200D+05 0.4240100D+04 0.1758400D+04 0.7665900D+03 0.3484300D+03
EXPONENTS  0.1640300D+03 0.7914200D+02 0.3552400D+02 0.1730500D+02 0.8378400D+01
EXPONENTS  0.3740500D+01 0.1689000D+01 0.2552000D+00 0.9563600D+07 0.1432100D+07
EXPONENTS  0.3259100D+06 0.9231200D+05 0.3011600D+05 0.1087200D+05 0.4240100D+04
EXPONENTS  0.1758400D+04 0.7665900D+03 0.3484300D+03 0.1640300D+03 0.7914200D+02
EXPONENTS  0.3552400D+02 0.1730500D+02 0.8378400D+01 0.3740500D+01 0.1689000D+01
EXPONENTS  0.2552000D+00 0.9563600D+07 0.1432100D+07 0.3259100D+06 0.9231200D+05
EXPONENTS  0.3011600D+05 0.1087200D+05 0.4240100D+04 0.1758400D+04 0.7665900D+03
EXPONENTS  0.3484300D+03 0.1640300D+03 0.7914200D+02 0.3552400D+02 0.1730500D+02
EXPONENTS  0.8378400D+01 0.3740500D+01 0.1689000D+01 0.2552000D+00 0.9563600D+07
EXPONENTS  0.1432100D+07 0.3259100D+06 0.9231200D+05 0.3011600D+05 0.1087200D+05
EXPONENTS  0.4240100D+04 0.1758400D+04 0.7665900D+03 0.3484300D+03 0.1640300D+03
EXPONENTS  0.7914200D+02 0.3552400D+02 0.1730500D+02 0.8378400D+01 0.3740500D+01
EXPONENTS  0.1689000D+01 0.2552000D+00 0.5092700D+00 0.1065100D+00 0.3920100D-01
EXPONENTS  0.8004300D+04 0.1896900D+04 0.6147100D+03 0.2335000D+03 0.9785600D+02
EXPONENTS  0.4351400D+02 0.2006300D+02 0.9112700D+01 0.4106300D+01 0.1794900D+01
EXPONENTS  0.2461500D+00 0.8004300D+04 0.1896900D+04 0.6147100D+03 0.2335000D+03
EXPONENTS  0.9785600D+02 0.4351400D+02 0.2006300D+02 0.9112700D+01 0.4106300D+01
EXPONENTS  0.1794900D+01 0.2461500D+00 0.8004300D+04 0.1896900D+04 0.6147100D+03
EXPONENTS  0.2335000D+03 0.9785600D+02 0.4351400D+02 0.2006300D+02 0.9112700D+01
EXPONENTS  0.4106300D+01 0.1794900D+01 0.2461500D+00 0.8004300D+04 0.1896900D+04
EXPONENTS  0.6147100D+03 0.2335000D+03 0.9785600D+02 0.4351400D+02 0.2006300D+02
EXPONENTS  0.9112700D+01 0.4106300D+01 0.1794900D+01 0.2461500D+00 0.8004300D+04
EXPONENTS  0.1896900D+04 0.6147100D+03 0.2335000D+03 0.9785600D+02 0.4351400D+02
EXPONENTS  0.2006300D+02 0.9112700D+01 0.4106300D+01 0.1794900D+01 0.2461500D+00
EXPONENTS  0.8004300D+04 0.1896900D+04 0.6147100D+03 0.2335000D+03 0.9785600D+02
EXPONENTS  0.4351400D+02 0.2006300D+02 0.9112700D+01 0.4106300D+01 0.1794900D+01
EXPONENTS  0.2461500D+00 0.8004300D+04 0.1896900D+04 0.6147100D+03 0.2335000D+03
EXPONENTS  0.9785600D+02 0.4351400D+02 0.2006300D+02 0.9112700D+01 0.4106300D+01
EXPONENTS  0.1794900D+01 0.2461500D+00 0.8004300D+04 0.1896900D+04 0.6147100D+03
EXPONENTS  0.2335000D+03 0.9785600D+02 0.4351400D+02 0.2006300D+02 0.9112700D+01
EXPONENTS  0.4106300D+01 0.1794900D+01 0.2461500D+00 0.8004300D+04 0.1896900D+04
EXPONENTS  0.6147100D+03 0.2335000D+03 0.9785600D+02 0.4351400D+02 0.2006300D+02
EXPONENTS  0.9112700D+01 0.4106300D+01 0.1794900D+01 0.2461500D+00 0.6243200D+00
EXPONENTS  0.6243200D+00 0.6243200D+00 0.8891700D-01 0.8891700D-01 0.8891700D-01
EXPONENTS  0.3025100D-01 0.3025100D-01 0.3025100D-01 0.3618500D+03 0.1085500D+03
EXPONENTS  0.4143300D+02 0.1757900D+02 0.7862700D+01 0.3518000D+01 0.1534800D+01
EXPONENTS  0.3618500D+03 0.1085500D+03 0.4143300D+02 0.1757900D+02 0.7862700D+01
EXPONENTS  0.3518000D+01 0.1534800D+01 0.3618500D+03 0.1085500D+03 0.4143300D+02
EXPONENTS  0.1757900D+02 0.7862700D+01 0.3518000D+01 0.1534800D+01 0.3618500D+03
EXPONENTS  0.1085500D+03 0.4143300D+02 0.1757900D+02 0.7862700D+01 0.3518000D+01
EXPONENTS  0.1534800D+01 0.3618500D+03 0.1085500D+03 0.4143300D+02 0.1757900D+02
EXPONENTS  0.7862700D+01 0.3518000D+01 0.1534800D+01 0.3618500D+03 0.1085500D+03
EXPONENTS  0.4143300D+02 0.1757900D+02 0.7862700D+01 0.3518000D+01 0.1534800D+01
EXPONENTS  0.6081300D+00 0.6081300D+00 0.6081300D+00 0.6081300D+00 0.6081300D+00
EXPONENTS  0.6081300D+00 0.2220000D+00 0.2220000D+00 0.2220000D+00 0.2220000D+00
EXPONENTS  0.2220000D+00 0.2220000D+00 0.8370000D-01 0.8370000D-01 0.8370000D-01
EXPONENTS  0.8370000D-01 0.8370000D-01 0.8370000D-01 0.4620000D+00 0.4620000D+00
EXPONENTS  0.4620000D+00 0.4620000D+00 0.4620000D+00 0.4620000D+00 0.4620000D+00
EXPONENTS  0.4620000D+00 0.4620000D+00 0.4620000D+00 0.1880000D+00 0.1880000D+00
EXPONENTS  0.1880000D+00 0.1880000D+00 0.1880000D+00 0.1880000D+00 0.1880000D+00
EXPONENTS  0.1880000D+00 0.1880000D+00 0.1880000D+00
MO    1     MO 0.0        OCC NO =    2.0000000  ORB. ENERGY = -454.319764
 -0.92742679D-05 -0.17281233D-04 -0.29226897D-04 -0.44014087D-04 -0.54492295D-04
 -0.46370483D-04 -0.17644824D-04  0.82638240D-07  0.62072212D-05  0.11638598D-04
  0.19800718D-04  0.30748424D-04  0.40804947D-04  0.43002813D-04  0.26664487D-04
 -0.17737227D-04  0.37886497D-05 -0.83829514D-05  0.11327075D-04 -0.75945965D-15
 -0.72945192D-15 -0.51154203D-15 -0.79715176D-19 -0.76565473D-19 -0.53692995D-19
  0.14663499D-05  0.14084116D-05  0.98767543D-06 -0.16134524D-17  0.71837970D-19
 -0.21869381D-04 -0.24642817D-18 -0.66354905D-19  0.48290990D-05 -0.10636234D-19
 -0.12141893D-20  0.64227861D-06  0.59689376D-05  0.59689376D-05 -0.11937875D-04
  0.13242579D-21  0.26490727D-18 -0.30412520D-20  0.35330915D-06  0.35330915D-06
 -0.70661831D-06 -0.15752289D-21 -0.93878665D-18  0.28302831D-20  0.25371902D-06
  0.25371902D-06 -0.50743805D-06 -0.31456943D-22 -0.68213714D-19 -0.13658121D-19
  0.19412801D-18  0.65171988D-20  0.79136625D-05  0.19411827D-18  0.64868730D-20
 -0.11870494D-04 -0.77650229D-18 -0.26038469D-19 -0.11870494D-04  0.14907752D-21
  0.31348154D-19  0.15340822D-21 -0.88563666D-06  0.31359026D-19  0.16731390D-21
  0.13284550D-05 -0.12540349D-18 -0.62753856D-21  0.13284550D-05 -0.14751714D-21
 -0.70949124D-05 -0.13220325D-04 -0.22358883D-04 -0.33671239D-04 -0.41687178D-04
 -0.35473907D-04 -0.13498476D-04  0.63219122D-07  0.51102823D-05  0.95818272D-05
  0.16301539D-04  0.25314569D-04  0.33593905D-04  0.35403365D-04  0.21952345D-04
 -0.14602708D-04 -0.90485463D-05  0.36515906D-04 -0.57886138D-05 -0.51138052D-18
 -0.49117487D-18 -0.34444572D-18  0.16927676D-19  0.16258830D-19  0.11401814D-19
 -0.50871055D-05 -0.48861040D-05 -0.34264734D-05  0.56962492D-18 -0.14153927D-19
 -0.58762803D-05  0.43595400D-18  0.14905943D-19  0.31472002D-04  0.11087338D-19
 -0.12283037D-21  0.20500939D-05  0.13569534D-04  0.13569534D-04 -0.27139068D-04
  0.18746180D-21  0.39398468D-18 -0.64415683D-20 -0.14043252D-04 -0.14043252D-04
  0.28086504D-04  0.65700429D-22 -0.90382399D-18  0.11027262D-19 -0.40196844D-05
 -0.40196844D-05  0.80393688D-05  0.64449844D-22 -0.36662191D-19 -0.45183326D-19
 -0.45757782D-19 -0.24674427D-19 -0.52575714D-05 -0.45679011D-19 -0.24491473D-19
  0.78863571D-05  0.18295236D-18  0.98514754D-19  0.78863571D-05 -0.65369486D-23
 -0.88151565D-19  0.78861357D-20  0.35414130D-05 -0.88178589D-19  0.78559850D-20
 -0.53121196D-05  0.35263329D-18 -0.31514392D-19 -0.53121196D-05 -0.16054435D-21
  0.77215877D+00  0.14427427D+01  0.25022564D+01  0.40993353D+01  0.64192335D+01
  0.96399769D+01  0.13749367D+02  0.18165700D+02  0.20949517D+02  0.18855237D+02
  0.10578257D+02  0.25573502D+01  0.12141031D+00 -0.20776953D-02  0.58436617D-03
 -0.22772656D-03  0.21540333D-04  0.21239222D-05  0.76280074D-04  0.14047094D-03
  0.24382227D-03  0.39933520D-03  0.62853523D-03  0.94869071D-03  0.13829147D-02
  0.18990324D-02  0.24117470D-02  0.25972985D-02  0.20720759D-02  0.46412848D-03
 -0.12410691D-02 -0.11036510D-02 -0.21554752D-03 -0.59711098D-05 -0.43240747D-06
 -0.88309435D-08 -0.56872032D-04 -0.10267719D-03 -0.17874143D-03 -0.29269664D-03
 -0.46145292D-03 -0.69631976D-03 -0.10191158D-02 -0.14042076D-02 -0.18089957D-02
 -0.19911354D-02 -0.16762131D-02 -0.39916632D-03  0.13445457D-02  0.17965949D-02
  0.22071535D-03 -0.77120942D-03 -0.34043879D-03  0.16895365D-05  0.19607662D-04
  0.42479782D-04  0.72316264D-04  0.11804569D-03  0.18610410D-03  0.28084154D-03
  0.41103543D-03  0.56699761D-03  0.73136764D-03  0.80853864D-03  0.68477228D-03
  0.16633574D-03 -0.57708700D-03 -0.81449212D-03 -0.97180128D-04  0.45672425D-03
  0.36508496D-03 -0.13831145D-03  0.12543969D-03  0.29423141D-05 -0.50700014D-06
  0.40349921D-16  0.57830794D-16  0.76367783D-16  0.87780917D-16  0.80752956D-16
  0.51659878D-16  0.17881488D-16  0.20103068D-17  0.25576002D-19  0.44318792D-20
  0.45288983D-22 -0.22650477D-16 -0.32463386D-16 -0.42869147D-16 -0.49275923D-16
 -0.45330769D-16 -0.28999335D-16 -0.10037795D-16 -0.11284881D-17 -0.14357120D-19
 -0.24878407D-20 -0.25423025D-22  0.29688354D-03  0.42550296D-03  0.56189298D-03
  0.64586766D-03  0.59415787D-03  0.38009907D-03  0.13156703D-03  0.14791280D-04
  0.18818114D-06  0.32608539D-07  0.33322378D-09  0.98725357D-17  0.14240355D-16
  0.18966310D-16  0.22445931D-16  0.21569696D-16  0.14826015D-16  0.46678932D-17
 -0.22559507D-17 -0.23151515D-17 -0.58304105D-18  0.63567920D-21 -0.71984073D-17
 -0.10383135D-16 -0.13828993D-16 -0.16366104D-16 -0.15727212D-16 -0.10810161D-16
 -0.34035224D-17  0.16448917D-17  0.16880570D-17  0.42511540D-18 -0.46349570D-21
 -0.25662198D-02 -0.37015699D-02 -0.49300121D-02 -0.58344880D-02 -0.56067239D-02
 -0.38538037D-02 -0.12133499D-02  0.58640105D-03  0.60178942D-03  0.15155291D-03
 -0.16523542D-06 -0.32044607D-17 -0.46454650D-17 -0.61656929D-17 -0.73581646D-17
 -0.70694494D-17 -0.49482377D-17 -0.14940764D-17  0.91459766D-18  0.98363345D-18
  0.26453121D-18 -0.98608606D-19  0.27093827D-17  0.39277569D-17  0.52131150D-17
  0.62213540D-17  0.59772442D-17  0.41837523D-17  0.12632468D-17 -0.77329552D-18
 -0.83166553D-18 -0.22366206D-18  0.83373922D-19  0.18864336D-02  0.27347382D-02
  0.36296810D-02  0.43316770D-02  0.41617133D-02  0.29129774D-02  0.87954766D-03
 -0.53841438D-03 -0.57905505D-03 -0.15572684D-03  0.58049888D-04  0.17187623D-18
 -0.15275432D-18 -0.24531623D-04 -0.27240272D-19  0.76845788D-20 -0.41737880D-05
 -0.92604831D-21  0.22918159D-21 -0.84022082D-07 -0.16183774D-03 -0.16751752D-03
 -0.14015643D-03 -0.90440694D-04 -0.40627196D-04 -0.11862484D-04 -0.20012737D-05
 -0.16183774D-03 -0.16751752D-03 -0.14015643D-03 -0.90440694D-04 -0.40627196D-04
 -0.11862484D-04 -0.20012737D-05  0.32367548D-03  0.33503505D-03  0.28031285D-03
  0.18088139D-03  0.81254392D-04  0.23724967D-04  0.40025474D-05 -0.51382875D-18
 -0.53186186D-18 -0.44499140D-18 -0.28714581D-18 -0.12898982D-18 -0.37662941D-19
 -0.63539690D-20 -0.17571344D-16 -0.18188020D-16 -0.15217321D-16 -0.98194932D-17
 -0.44110506D-17 -0.12879554D-17 -0.21728597D-18  0.58380361D-17  0.60429253D-17
  0.50559176D-17  0.32625026D-17  0.14655608D-17  0.42792002D-18  0.72192730D-19
  0.81898767D-05  0.81898767D-05 -0.16379753D-04  0.37511775D-21  0.20869879D-18
 -0.18234718D-19  0.34948648D-05  0.34948648D-05 -0.69897297D-05 -0.16111570D-21
  0.69677057D-19 -0.39313459D-19 -0.55831746D-06 -0.55831746D-06  0.11166349D-05
  0.91275976D-23  0.11558555D-19 -0.18065458D-20  0.11718312D-19 -0.35059507D-20
  0.66602487D-05  0.11586311D-19 -0.36108601D-20 -0.99903730D-05 -0.46741247D-19
  0.14128712D-19 -0.99903730D-05 -0.75841252D-21  0.49058236D-20 -0.90689106D-21
 -0.67738719D-06  0.49119110D-20 -0.90197602D-21  0.10160808D-05 -0.19629382D-19
  0.36226492D-20  0.10160808D-05  0.68093858D-22
MO    2     MO 0.0        OCC NO =    2.0000000  ORB. ENERGY =  -58.262939
  0.21817545D-03  0.40653783D-03  0.68755739D-03  0.10354233D-02  0.12819213D-02
  0.10908571D-02  0.41509126D-03 -0.19440495D-05 -0.14555290D-03 -0.27291304D-03
 -0.46430629D-03 -0.72101864D-03 -0.95683367D-03 -0.10083713D-02 -0.62525456D-03
  0.41591958D-03 -0.15562528D-03  0.20493240D-03 -0.36080648D-03 -0.41875277D-15
 -0.40220703D-15 -0.28205533D-15 -0.41762434D-15 -0.40112319D-15 -0.28129527D-15
 -0.10203949D-03 -0.98007707D-04 -0.68729769D-04  0.92859319D-16  0.12581879D-16
  0.69487856D-03 -0.24731441D-17  0.37735960D-17 -0.12910127D-03  0.21119046D-20
  0.49465993D-19 -0.20194474D-04 -0.19780642D-03 -0.19780642D-03  0.39561284D-03
  0.70961176D-20 -0.20514454D-17 -0.16955929D-17 -0.32576904D-04 -0.32576904D-04
  0.65153808D-04 -0.18008845D-20 -0.23800620D-17  0.23712235D-17 -0.10831806D-04
 -0.10831806D-04  0.21663612D-04  0.55391685D-21 -0.64818366D-18  0.75333223D-18
  0.13406052D-17 -0.41974747D-18 -0.20325418D-03  0.13411642D-17 -0.41608463D-18
  0.30488128D-03 -0.53629797D-17  0.16753270D-17  0.30488128D-03 -0.10154451D-19
  0.10752411D-18 -0.51022240D-19  0.28812714D-04  0.10699490D-18 -0.51828994D-19
 -0.43219071D-04 -0.42956724D-18  0.20489571D-18 -0.43219071D-04  0.37138348D-21
  0.19086272D-03  0.35564457D-03  0.60148413D-03  0.90580177D-03  0.11214414D-02
  0.95429598D-03  0.36312723D-03 -0.17006797D-05 -0.13757049D-03 -0.25794595D-03
 -0.43884281D-03 -0.68147655D-03 -0.90435902D-03 -0.95307027D-03 -0.59096437D-03
  0.39310972D-03  0.25294122D-03 -0.10487018D-02  0.20795514D-03 -0.63064812D-18
 -0.60572998D-18 -0.42477968D-18  0.73241548D-18  0.70347631D-18  0.49332615D-18
  0.12383626D-03  0.11894325D-03  0.83411215D-04  0.20406519D-17 -0.95015096D-18
  0.33132404D-03  0.16364425D-18 -0.16631796D-17 -0.10786497D-02 -0.14834957D-18
  0.87699197D-20 -0.64541083D-04 -0.37679919D-03 -0.37679919D-03  0.75359838D-03
  0.14628497D-19 -0.36426969D-17 -0.52273065D-18  0.41119177D-03  0.41119177D-03
 -0.82238354D-03  0.22327674D-20 -0.33325401D-17  0.22139438D-17  0.12222481D-03
  0.12222481D-03 -0.24444963D-03 -0.14903440D-20 -0.22633974D-17  0.21128627D-17
 -0.17738224D-17  0.15948113D-18  0.24863938D-03 -0.17748166D-17  0.14986598D-18
 -0.37295907D-03  0.70962837D-17 -0.62830938D-18 -0.37295907D-03  0.88055682D-20
  0.25826652D-18  0.16186291D-18 -0.14811638D-03  0.25957062D-18  0.16388837D-18
  0.22217456D-03 -0.10343702D-17 -0.64947711D-18  0.22217456D-03 -0.21928843D-20
  0.65988977D-03  0.12329733D-02  0.21384377D-02  0.35033072D-02  0.54859009D-02
  0.82383602D-02  0.11750261D-01  0.15524475D-01  0.17903535D-01  0.16113756D-01
  0.90402178D-02  0.21855210D-02  0.10375770D-03 -0.17756062D-05  0.49940151D-06
 -0.19461597D-06  0.18408449D-07  0.18151118D-08 -0.24626623D+00 -0.45350309D+00
 -0.78716743D+00 -0.12892328D+01 -0.20291931D+01 -0.30627983D+01 -0.44646678D+01
 -0.61309268D+01 -0.77861990D+01 -0.83852424D+01 -0.66895888D+01 -0.14984145D+01
  0.40067268D+01  0.35630796D+01  0.69588390D+00  0.19277416D-01  0.13960049D-02
  0.28510239D-04  0.16696169D-02  0.30143386D-02  0.52473896D-02  0.85928218D-02
  0.13547073D-01  0.20442160D-01  0.29918623D-01  0.41223931D-01  0.53107469D-01
  0.58454623D-01  0.49209314D-01  0.11718499D-01 -0.39472409D-01 -0.52743413D-01
 -0.64796361D-02  0.22640729D-01  0.99944089D-02 -0.49600454D-04 -0.59911646D-03
 -0.12979791D-02 -0.22096394D-02 -0.36069123D-02 -0.56864520D-02 -0.85811755D-02
 -0.12559278D-01 -0.17324737D-01 -0.22347100D-01 -0.24705077D-01 -0.20923368D-01
 -0.50824252D-02  0.17633021D-01  0.24886987D-01  0.29693603D-02 -0.13955310D-01
 -0.11155252D-01  0.42261370D-02 -0.39007472D-02 -0.11472317D-03  0.84325604D-05
  0.18567075D-13  0.26610925D-13  0.35140747D-13  0.40392517D-13  0.37158591D-13
  0.23771368D-13  0.82281926D-14  0.92504560D-15  0.11768835D-16  0.20393357D-17
  0.20839792D-19 -0.14887604D-13 -0.21337389D-13 -0.28176841D-13 -0.32387858D-13
 -0.29794805D-13 -0.19060553D-13 -0.65975966D-14 -0.74172762D-15 -0.94365833D-17
 -0.16351968D-17 -0.16709932D-19 -0.71149751D-01 -0.10197409D+00 -0.13466070D+00
 -0.15478569D+00 -0.14239316D+00 -0.91092804D-01 -0.31530753D-01 -0.35448106D-02
 -0.45098631D-04 -0.78148134D-05 -0.79858888D-07 -0.54097627D-15 -0.78031565D-15
 -0.10392795D-14 -0.12299490D-14 -0.11819348D-14 -0.81240756D-15 -0.25578226D-15
  0.12361726D-15  0.12686123D-15  0.31948365D-16 -0.34832730D-19  0.46964855D-15
  0.67743103D-15  0.90225048D-15  0.10677803D-14  0.10260967D-14  0.70529161D-15
  0.22205737D-15 -0.10731832D-15 -0.11013457D-15 -0.27735973D-16  0.30240034D-19
  0.77913433D-01  0.11238399D+00  0.14968093D+00  0.17714188D+00  0.17022669D+00
  0.11700599D+00  0.36838721D-01 -0.17803821D-01 -0.18271030D-01 -0.46013235D-02
  0.50167405D-05  0.15035198D-15  0.21796331D-15  0.28929178D-15  0.34524206D-15
  0.33169567D-15  0.23216928D-15  0.70101453D-16 -0.42912547D-16 -0.46151678D-16
 -0.12411696D-16  0.46266753D-17 -0.10825298D-15 -0.15693294D-15 -0.20828923D-15
 -0.24857327D-15 -0.23881990D-15 -0.16716120D-15 -0.50472839D-16  0.30896907D-16
  0.33229072D-16  0.89363843D-17 -0.33311926D-17 -0.58065656D-01 -0.84177026D-01
 -0.11172395D+00 -0.13333185D+00 -0.12810025D+00 -0.89663347D-01 -0.27073051D-01
  0.16572746D-01  0.17823692D-01  0.47933739D-02 -0.17868134D-02 -0.12196456D-16
  0.97164202D-17  0.62524206D-03  0.57737082D-18 -0.31928923D-18  0.14227779D-03
  0.31715351D-19 -0.11731090D-19  0.31467165D-05  0.18519473D-02  0.19169424D-02
  0.16038429D-02  0.10349341D-02  0.46490655D-03  0.13574519D-03  0.22901045D-04
  0.18519473D-02  0.19169424D-02  0.16038429D-02  0.10349341D-02  0.46490655D-03
  0.13574519D-03  0.22901045D-04 -0.37038946D-02 -0.38338848D-02 -0.32076858D-02
 -0.20698682D-02 -0.92981311D-03 -0.27149038D-03 -0.45802091D-04  0.33109512D-16
  0.34271509D-16  0.28673849D-16  0.18502775D-16  0.83116994D-17  0.24268817D-17
  0.40942982D-18 -0.87280200D-15 -0.90343347D-15 -0.75587319D-15 -0.48775285D-15
 -0.21910525D-15 -0.63975186D-16 -0.10793006D-16  0.69906187D-15  0.72359583D-15
  0.60540893D-15  0.39066067D-15  0.17549012D-15  0.51240273D-16  0.86445482D-17
 -0.25933445D-03 -0.25933445D-03  0.51866890D-03 -0.32122479D-19  0.46278507D-17
 -0.40380749D-17 -0.10163707D-03 -0.10163707D-03  0.20327414D-03  0.10089829D-19
 -0.25480110D-17  0.15578664D-17  0.18165080D-04  0.18165080D-04 -0.36330160D-04
 -0.68411393D-21 -0.19235810D-18  0.12726505D-18 -0.66068246D-19 -0.92863267D-19
 -0.19974873D-03 -0.62192707D-19 -0.82883717D-19  0.29962310D-03  0.26039745D-18
  0.36147352D-18  0.29962310D-03  0.31277177D-19 -0.11363885D-18  0.75286616D-19
  0.23566654D-04 -0.11380876D-18  0.74763777D-19 -0.35349981D-04  0.45472531D-18
 -0.30062363D-18 -0.35349981D-04 -0.19264883D-20
MO    3     MO 0.0        OCC NO =    2.0000000  ORB. ENERGY =  -52.275979
 -0.13438487D-03 -0.25040641D-03 -0.42350001D-03 -0.63776755D-03 -0.78959761D-03
 -0.67191193D-03 -0.25567488D-03  0.11974346D-05  0.91723911D-04  0.17198319D-03
  0.29259458D-03  0.45436849D-03  0.60297341D-03  0.63545120D-03  0.39402028D-03
 -0.26210244D-03  0.43453455D-06  0.14087508D-02  0.85636731D-04  0.11824889D-16
  0.11357665D-16  0.79647784D-17 -0.20824237D-15 -0.20001430D-15 -0.14026384D-15
 -0.12952958D-03 -0.12441162D-03 -0.87246013D-04 -0.29162830D-16  0.10250683D-16
 -0.36860960D-04  0.49020531D-16 -0.16284561D-16  0.48133708D-03  0.61824668D-18
 -0.26502864D-18 -0.90233173D-05  0.96608057D-05  0.96608057D-05 -0.19321611D-04
 -0.87969473D-19 -0.16203878D-16  0.75038203D-17  0.16963501D-04  0.16963501D-04
 -0.33927002D-04  0.61860405D-19  0.20170966D-16 -0.98366600D-17 -0.71022249D-05
 -0.71022249D-05  0.14204450D-04  0.45344466D-20  0.68590703D-17 -0.33084616D-17
 -0.51403028D-17  0.21091461D-17  0.50915208D-04 -0.51365592D-17  0.21058566D-17
 -0.76372811D-04  0.20557468D-16 -0.84332950D-17 -0.76372811D-04  0.27543242D-19
 -0.51285406D-18  0.27699775D-18 -0.28415322D-04 -0.51321069D-18  0.27789584D-18
  0.42622984D-04  0.20517729D-17 -0.11088891D-17  0.42622984D-04  0.39877869D-19
  0.23259285D-04  0.43340253D-04  0.73299233D-04  0.11038458D-03  0.13666328D-03
  0.11629428D-03  0.44252119D-04 -0.20725155D-06 -0.15145149D-04 -0.28397296D-04
 -0.48312250D-04 -0.75023823D-04 -0.99560977D-04 -0.10492360D-03 -0.65059327D-04
  0.43277490D-04 -0.58269527D-04  0.47865989D-04  0.37159685D-03  0.69230961D-17
  0.66495511D-17  0.46631242D-17 -0.14471133D-18 -0.13899350D-18 -0.97471836D-19
 -0.18577087D-04 -0.17843070D-04 -0.12512792D-04 -0.83072400D-17  0.41101153D-17
  0.54002919D-04 -0.12494455D-16  0.60326101D-17  0.14062197D-02  0.17561844D-19
 -0.47876095D-19  0.65389433D-04  0.29079613D-04  0.29079613D-04 -0.58159226D-04
 -0.78288256D-19  0.25075337D-18  0.27737912D-17 -0.10318612D-03 -0.10318612D-03
  0.20637225D-03 -0.28237442D-19  0.18346231D-16 -0.91164004D-17 -0.14632006D-04
 -0.14632006D-04  0.29264012D-04 -0.34374923D-20  0.21082336D-16 -0.10021308D-16
  0.46928458D-17 -0.18120844D-17 -0.56362760D-04  0.46698215D-17 -0.18039435D-17
  0.84544139D-04 -0.18748359D-16  0.72401968D-17  0.84544139D-04 -0.13948107D-18
  0.65412256D-20 -0.14948889D-18 -0.35225827D-05  0.74476295D-20 -0.15174595D-18
  0.52838740D-05 -0.27071306D-19  0.60021263D-18  0.52838740D-05  0.74766470D-19
 -0.12379425D-04 -0.23130379D-04 -0.40116746D-04 -0.65721478D-04 -0.10291461D-03
 -0.15455031D-03 -0.22043299D-03 -0.29123664D-03 -0.33586743D-03 -0.30229146D-03
 -0.16959303D-03 -0.41000021D-04 -0.19464778D-05  0.33310085D-07 -0.93686916D-08
  0.36509642D-08 -0.34533953D-09 -0.34051205D-10 -0.23235774D-03 -0.42789040D-03
 -0.74271023D-03 -0.12164202D-02 -0.19145895D-02 -0.28898193D-02 -0.42125148D-02
 -0.57846678D-02 -0.73464544D-02 -0.79116653D-02 -0.63117779D-02 -0.14137879D-02
  0.37804371D-02  0.33618460D-02  0.65658215D-03  0.18188677D-04  0.13171621D-05
  0.26900054D-07 -0.48659598D-04 -0.87850399D-04 -0.15293082D-03 -0.25043066D-03
 -0.39481820D-03 -0.59576981D-03 -0.87195345D-03 -0.12014373D-02 -0.15477731D-02
 -0.17036115D-02 -0.14341646D-02 -0.34152592D-03  0.11503906D-02  0.15371630D-02
  0.18884362D-03 -0.65984526D-03 -0.29127876D-03  0.14455641D-05  0.17377879D-04
  0.37648981D-04  0.64092457D-04  0.10462153D-03  0.16494034D-03  0.24890424D-03
  0.36429247D-03  0.50251863D-03  0.64819650D-03  0.71659161D-03  0.60689996D-03
  0.14742003D-03 -0.51146066D-03 -0.72186807D-03 -0.86128803D-04  0.40478556D-03
  0.32356749D-03 -0.12258267D-03  0.34937306D-03 -0.11377816D-02 -0.15180785D-03
 -0.43157797D-11 -0.61855132D-11 -0.81682075D-11 -0.93889428D-11 -0.86372404D-11
 -0.55254793D-11 -0.19125827D-11 -0.21502003D-12 -0.27355789D-14 -0.47402855D-15
 -0.48440559D-17  0.19163752D-11  0.27466101D-11  0.36270041D-11  0.41690583D-11
  0.38352730D-11  0.24535292D-11  0.84926163D-12  0.95477315D-13  0.12147042D-14
  0.21048724D-15  0.21509505D-17  0.48631547D+02  0.69700285D+02  0.92041901D+02
  0.10579753D+03  0.97327110D+02  0.62262818D+02  0.21551576D+02  0.24229125D+01
  0.30825353D-01  0.53415010D-02  0.54584327D-04  0.84565195D-15  0.12197863D-14
  0.16245975D-14  0.19226514D-14  0.18475958D-14  0.12699522D-14  0.39983781D-15
 -0.19323800D-15 -0.19830897D-15 -0.49941557D-16  0.54450384D-19 -0.44469005D-15
 -0.64143036D-15 -0.85430225D-15 -0.10110353D-14 -0.97156695D-15 -0.66781036D-15
 -0.21025659D-15  0.10161511D-15  0.10428170D-15  0.26262002D-16 -0.28632990D-19
 -0.45031440D-01 -0.64954304D-01 -0.86510729D-01 -0.10238227D+00 -0.98385512D-01
 -0.67625668D-01 -0.21291587D-01  0.10290032D-01  0.10560063D-01  0.26594159D-02
 -0.28995134D-05 -0.10932904D-14 -0.15849288D-14 -0.21035966D-14 -0.25104413D-14
 -0.24119381D-14 -0.16882281D-14 -0.50974548D-15  0.31204028D-15  0.33559375D-15
  0.90252136D-16 -0.33643052D-16  0.49944912D-15  0.72404489D-15  0.96098851D-15
  0.11468478D-14  0.11018485D-14  0.77123523D-15  0.23286763D-15 -0.14254973D-15
 -0.15330969D-15 -0.41229989D-16  0.15369195D-16  0.37353954D-01  0.54151541D-01
  0.71872628D-01  0.85773105D-01  0.82407592D-01  0.57680921D-01  0.17416242D-01
 -0.10661338D-01 -0.11466079D-01 -0.30836036D-02  0.11494668D-02  0.11940093D-15
 -0.54113807D-16 -0.19177050D-02 -0.29321977D-17  0.15723471D-17  0.27277238D-03
 -0.11560337D-18  0.43705383D-19  0.70513140D-05  0.32945437D-02  0.34101676D-02
  0.28531755D-02  0.18411084D-02  0.82705106D-03  0.24148553D-03  0.40740088D-04
  0.32945437D-02  0.34101676D-02  0.28531755D-02  0.18411084D-02  0.82705106D-03
  0.24148553D-03  0.40740088D-04 -0.65890875D-02 -0.68203352D-02 -0.57063510D-02
 -0.36822168D-02 -0.16541021D-02 -0.48297105D-03 -0.81480176D-04 -0.62954148D-16
 -0.65163558D-16 -0.54520215D-16 -0.35181020D-16 -0.15803795D-16 -0.46144524D-17
 -0.77848641D-18  0.42746618D-14  0.44246834D-14  0.37019877D-14  0.23888333D-14