 Molden2AIM, Version 4.0.0 (06/02/2016)           Time: Fri Jun 29 19:25:27 2018
GAUSSIAN             17 MOL ORBITALS    375 PRIMITIVES        5 NUCLEI
  N    1    (CENTRE  1)   0.00002457  0.00000000  1.81562429  CHARGE =  7.0
  N    2    (CENTRE  2)   2.03134031  0.00000000  0.44620213  CHARGE =  7.0
  N    3    (CENTRE  3)  -2.03131385  0.00000000  0.44621347  CHARGE =  7.0
  N    4    (CENTRE  4)   3.99507756  0.00000000 -0.31456192  CHARGE =  7.0
  N    5    (CENTRE  5)  -3.99513047  0.00000000 -0.31458838  CHARGE =  7.0
CENTRE ASSIGNMENTS    1  1  1  1  1  1  1  1  1  1  1  1  1  1  1  1  1  1  1  1
CENTRE ASSIGNMENTS    1  1  1  1  1  1  1  1  1  1  1  1  1  1  1  1  1  1  1  1
CENTRE ASSIGNMENTS    1  1  1  1  1  1  1  1  1  1  1  1  1  1  1  1  1  1  1  1
CENTRE ASSIGNMENTS    1  1  1  1  1  1  1  1  1  1  1  1  1  1  1  2  2  2  2  2
CENTRE ASSIGNMENTS    2  2  2  2  2  2  2  2  2  2  2  2  2  2  2  2  2  2  2  2
CENTRE ASSIGNMENTS    2  2  2  2  2  2  2  2  2  2  2  2  2  2  2  2  2  2  2  2
CENTRE ASSIGNMENTS    2  2  2  2  2  2  2  2  2  2  2  2  2  2  2  2  2  2  2  2
CENTRE ASSIGNMENTS    2  2  2  2  2  2  2  2  2  2  3  3  3  3  3  3  3  3  3  3
CENTRE ASSIGNMENTS    3  3  3  3  3  3  3  3  3  3  3  3  3  3  3  3  3  3  3  3
CENTRE ASSIGNMENTS    3  3  3  3  3  3  3  3  3  3  3  3  3  3  3  3  3  3  3  3
CENTRE ASSIGNMENTS    3  3  3  3  3  3  3  3  3  3  3  3  3  3  3  3  3  3  3  3
CENTRE ASSIGNMENTS    3  3  3  3  3  4  4  4  4  4  4  4  4  4  4  4  4  4  4  4
CENTRE ASSIGNMENTS    4  4  4  4  4  4  4  4  4  4  4  4  4  4  4  4  4  4  4  4
CENTRE ASSIGNMENTS    4  4  4  4  4  4  4  4  4  4  4  4  4  4  4  4  4  4  4  4
CENTRE ASSIGNMENTS    4  4  4  4  4  4  4  4  4  4  4  4  4  4  4  4  4  4  4  4
CENTRE ASSIGNMENTS    5  5  5  5  5  5  5  5  5  5  5  5  5  5  5  5  5  5  5  5
CENTRE ASSIGNMENTS    5  5  5  5  5  5  5  5  5  5  5  5  5  5  5  5  5  5  5  5
CENTRE ASSIGNMENTS    5  5  5  5  5  5  5  5  5  5  5  5  5  5  5  5  5  5  5  5
CENTRE ASSIGNMENTS    5  5  5  5  5  5  5  5  5  5  5  5  5  5  5
TYPE ASSIGNMENTS      1  1  1  1  1  1  1  1  1  1  1  1  1  1  1  1  1  1  1  2
TYPE ASSIGNMENTS      2  2  3  3  3  4  4  4  2  3  4  2  3  4  2  3  4  5  6  7
TYPE ASSIGNMENTS      8  9 10  5  6  7  8  9 10  5  6  7  8  9 10 11 12 13 17 14
TYPE ASSIGNMENTS     15 18 19 16 20 11 12 13 17 14 15 18 19 16 20  1  1  1  1  1
TYPE ASSIGNMENTS      1  1  1  1  1  1  1  1  1  1  1  1  1  1  2  2  2  3  3  3
TYPE ASSIGNMENTS      4  4  4  2  3  4  2  3  4  2  3  4  5  6  7  8  9 10  5  6
TYPE ASSIGNMENTS      7  8  9 10  5  6  7  8  9 10 11 12 13 17 14 15 18 19 16 20
TYPE ASSIGNMENTS     11 12 13 17 14 15 18 19 16 20  1  1  1  1  1  1  1  1  1  1
TYPE ASSIGNMENTS      1  1  1  1  1  1  1  1  1  2  2  2  3  3  3  4  4  4  2  3
TYPE ASSIGNMENTS      4  2  3  4  2  3  4  5  6  7  8  9 10  5  6  7  8  9 10  5
TYPE ASSIGNMENTS      6  7  8  9 10 11 12 13 17 14 15 18 19 16 20 11 12 13 17 14
TYPE ASSIGNMENTS     15 18 19 16 20  1  1  1  1  1  1  1  1  1  1  1  1  1  1  1
TYPE ASSIGNMENTS      1  1  1  1  2  2  2  3  3  3  4  4  4  2  3  4  2  3  4  2
TYPE ASSIGNMENTS      3  4  5  6  7  8  9 10  5  6  7  8  9 10  5  6  7  8  9 10
TYPE ASSIGNMENTS     11 12 13 17 14 15 18 19 16 20 11 12 13 17 14 15 18 19 16 20
TYPE ASSIGNMENTS      1  1  1  1  1  1  1  1  1  1  1  1  1  1  1  1  1  1  1  2
TYPE ASSIGNMENTS      2  2  3  3  3  4  4  4  2  3  4  2  3  4  2  3  4  5  6  7
TYPE ASSIGNMENTS      8  9 10  5  6  7  8  9 10  5  6  7  8  9 10 11 12 13 17 14
TYPE ASSIGNMENTS     15 18 19 16 20 11 12 13 17 14 15 18 19 16 20
EXPONENTS  0.1142000D+05 0.1712000D+04 0.3893000D+03 0.1100000D+03 0.3557000D+02
EXPONENTS  0.1254000D+02 0.4644000D+01 0.5118000D+00 0.1142000D+05 0.1712000D+04
EXPONENTS  0.3893000D+03 0.1100000D+03 0.3557000D+02 0.1254000D+02 0.4644000D+01
EXPONENTS  0.5118000D+00 0.1293000D+01 0.1787000D+00 0.5760000D-01 0.2663000D+02
EXPONENTS  0.5948000D+01 0.1742000D+01 0.2663000D+02 0.5948000D+01 0.1742000D+01
EXPONENTS  0.2663000D+02 0.5948000D+01 0.1742000D+01 0.5550000D+00 0.5550000D+00
EXPONENTS  0.5550000D+00 0.1725000D+00 0.1725000D+00 0.1725000D+00 0.4910000D-01
EXPONENTS  0.4910000D-01 0.4910000D-01 0.1654000D+01 0.1654000D+01 0.1654000D+01
EXPONENTS  0.1654000D+01 0.1654000D+01 0.1654000D+01 0.4690000D+00 0.4690000D+00
EXPONENTS  0.4690000D+00 0.4690000D+00 0.4690000D+00 0.4690000D+00 0.1510000D+00
EXPONENTS  0.1510000D+00 0.1510000D+00 0.1510000D+00 0.1510000D+00 0.1510000D+00
EXPONENTS  0.1093000D+01 0.1093000D+01 0.1093000D+01 0.1093000D+01 0.1093000D+01
EXPONENTS  0.1093000D+01 0.1093000D+01 0.1093000D+01 0.1093000D+01 0.1093000D+01
EXPONENTS  0.3640000D+00 0.3640000D+00 0.3640000D+00 0.3640000D+00 0.3640000D+00
EXPONENTS  0.3640000D+00 0.3640000D+00 0.3640000D+00 0.3640000D+00 0.3640000D+00
EXPONENTS  0.1142000D+05 0.1712000D+04 0.3893000D+03 0.1100000D+03 0.3557000D+02
EXPONENTS  0.1254000D+02 0.4644000D+01 0.5118000D+00 0.1142000D+05 0.1712000D+04
EXPONENTS  0.3893000D+03 0.1100000D+03 0.3557000D+02 0.1254000D+02 0.4644000D+01
EXPONENTS  0.5118000D+00 0.1293000D+01 0.1787000D+00 0.5760000D-01 0.2663000D+02
EXPONENTS  0.5948000D+01 0.1742000D+01 0.2663000D+02 0.5948000D+01 0.1742000D+01
EXPONENTS  0.2663000D+02 0.5948000D+01 0.1742000D+01 0.5550000D+00 0.5550000D+00
EXPONENTS  0.5550000D+00 0.1725000D+00 0.1725000D+00 0.1725000D+00 0.4910000D-01
EXPONENTS  0.4910000D-01 0.4910000D-01 0.1654000D+01 0.1654000D+01 0.1654000D+01
EXPONENTS  0.1654000D+01 0.1654000D+01 0.1654000D+01 0.4690000D+00 0.4690000D+00
EXPONENTS  0.4690000D+00 0.4690000D+00 0.4690000D+00 0.4690000D+00 0.1510000D+00
EXPONENTS  0.1510000D+00 0.1510000D+00 0.1510000D+00 0.1510000D+00 0.1510000D+00
EXPONENTS  0.1093000D+01 0.1093000D+01 0.1093000D+01 0.1093000D+01 0.1093000D+01
EXPONENTS  0.1093000D+01 0.1093000D+01 0.1093000D+01 0.1093000D+01 0.1093000D+01
EXPONENTS  0.3640000D+00 0.3640000D+00 0.3640000D+00 0.3640000D+00 0.3640000D+00
EXPONENTS  0.3640000D+00 0.3640000D+00 0.3640000D+00 0.3640000D+00 0.3640000D+00
EXPONENTS  0.1142000D+05 0.1712000D+04 0.3893000D+03 0.1100000D+03 0.3557000D+02
EXPONENTS  0.1254000D+02 0.4644000D+01 0.5118000D+00 0.1142000D+05 0.1712000D+04
EXPONENTS  0.3893000D+03 0.1100000D+03 0.3557000D+02 0.1254000D+02 0.4644000D+01
EXPONENTS  0.5118000D+00 0.1293000D+01 0.1787000D+00 0.5760000D-01 0.2663000D+02
EXPONENTS  0.5948000D+01 0.1742000D+01 0.2663000D+02 0.5948000D+01 0.1742000D+01
EXPONENTS  0.2663000D+02 0.5948000D+01 0.1742000D+01 0.5550000D+00 0.5550000D+00
EXPONENTS  0.5550000D+00 0.1725000D+00 0.1725000D+00 0.1725000D+00 0.4910000D-01
EXPONENTS  0.4910000D-01 0.4910000D-01 0.1654000D+01 0.1654000D+01 0.1654000D+01
EXPONENTS  0.1654000D+01 0.1654000D+01 0.1654000D+01 0.4690000D+00 0.4690000D+00
EXPONENTS  0.4690000D+00 0.4690000D+00 0.4690000D+00 0.4690000D+00 0.1510000D+00
EXPONENTS  0.1510000D+00 0.1510000D+00 0.1510000D+00 0.1510000D+00 0.1510000D+00
EXPONENTS  0.1093000D+01 0.1093000D+01 0.1093000D+01 0.1093000D+01 0.1093000D+01
EXPONENTS  0.1093000D+01 0.1093000D+01 0.1093000D+01 0.1093000D+01 0.1093000D+01
EXPONENTS  0.3640000D+00 0.3640000D+00 0.3640000D+00 0.3640000D+00 0.3640000D+00
EXPONENTS  0.3640000D+00 0.3640000D+00 0.3640000D+00 0.3640000D+00 0.3640000D+00
EXPONENTS  0.1142000D+05 0.1712000D+04 0.3893000D+03 0.1100000D+03 0.3557000D+02
EXPONENTS  0.1254000D+02 0.4644000D+01 0.5118000D+00 0.1142000D+05 0.1712000D+04
EXPONENTS  0.3893000D+03 0.1100000D+03 0.3557000D+02 0.1254000D+02 0.4644000D+01
EXPONENTS  0.5118000D+00 0.1293000D+01 0.1787000D+00 0.5760000D-01 0.2663000D+02
EXPONENTS  0.5948000D+01 0.1742000D+01 0.2663000D+02 0.5948000D+01 0.1742000D+01
EXPONENTS  0.2663000D+02 0.5948000D+01 0.1742000D+01 0.5550000D+00 0.5550000D+00
EXPONENTS  0.5550000D+00 0.1725000D+00 0.1725000D+00 0.1725000D+00 0.4910000D-01
EXPONENTS  0.4910000D-01 0.4910000D-01 0.1654000D+01 0.1654000D+01 0.1654000D+01
EXPONENTS  0.1654000D+01 0.1654000D+01 0.1654000D+01 0.4690000D+00 0.4690000D+00
EXPONENTS  0.4690000D+00 0.4690000D+00 0.4690000D+00 0.4690000D+00 0.1510000D+00
EXPONENTS  0.1510000D+00 0.1510000D+00 0.1510000D+00 0.1510000D+00 0.1510000D+00
EXPONENTS  0.1093000D+01 0.1093000D+01 0.1093000D+01 0.1093000D+01 0.1093000D+01
EXPONENTS  0.1093000D+01 0.1093000D+01 0.1093000D+01 0.1093000D+01 0.1093000D+01
EXPONENTS  0.3640000D+00 0.3640000D+00 0.3640000D+00 0.3640000D+00 0.3640000D+00
EXPONENTS  0.3640000D+00 0.3640000D+00 0.3640000D+00 0.3640000D+00 0.3640000D+00
EXPONENTS  0.1142000D+05 0.1712000D+04 0.3893000D+03 0.1100000D+03 0.3557000D+02
EXPONENTS  0.1254000D+02 0.4644000D+01 0.5118000D+00 0.1142000D+05 0.1712000D+04
EXPONENTS  0.3893000D+03 0.1100000D+03 0.3557000D+02 0.1254000D+02 0.4644000D+01
EXPONENTS  0.5118000D+00 0.1293000D+01 0.1787000D+00 0.5760000D-01 0.2663000D+02
EXPONENTS  0.5948000D+01 0.1742000D+01 0.2663000D+02 0.5948000D+01 0.1742000D+01
EXPONENTS  0.2663000D+02 0.5948000D+01 0.1742000D+01 0.5550000D+00 0.5550000D+00
EXPONENTS  0.5550000D+00 0.1725000D+00 0.1725000D+00 0.1725000D+00 0.4910000D-01
EXPONENTS  0.4910000D-01 0.4910000D-01 0.1654000D+01 0.1654000D+01 0.1654000D+01
EXPONENTS  0.1654000D+01 0.1654000D+01 0.1654000D+01 0.4690000D+00 0.4690000D+00
EXPONENTS  0.4690000D+00 0.4690000D+00 0.4690000D+00 0.4690000D+00 0.1510000D+00
EXPONENTS  0.1510000D+00 0.1510000D+00 0.1510000D+00 0.1510000D+00 0.1510000D+00
EXPONENTS  0.1093000D+01 0.1093000D+01 0.1093000D+01 0.1093000D+01 0.1093000D+01
EXPONENTS  0.1093000D+01 0.1093000D+01 0.1093000D+01 0.1093000D+01 0.1093000D+01
EXPONENTS  0.3640000D+00 0.3640000D+00 0.3640000D+00 0.3640000D+00 0.3640000D+00
EXPONENTS  0.3640000D+00 0.3640000D+00 0.3640000D+00 0.3640000D+00 0.3640000D+00
MO    1     MO 0.0        OCC NO =    2.0000000  ORB. ENERGY =  -14.859517
  0.93691970D-03  0.17458119D-02  0.29526056D-02  0.44464604D-02  0.55050065D-02
  0.46845121D-02  0.17825433D-02 -0.83484105D-05 -0.14531575D-03 -0.27246839D-03
 -0.46354980D-03 -0.71984389D-03 -0.95527471D-03 -0.10067284D-02 -0.62423584D-03
  0.41524192D-03 -0.13412936D-03  0.61137854D-03  0.23130759D-03  0.48413512D-03
  0.46500599D-03  0.32609430D-03  0.44804215D-15  0.43033913D-15  0.30178351D-15
  0.58699867D-05  0.56380521D-05  0.39537913D-05 -0.28732146D-02  0.76395258D-16
 -0.55187522D-03 -0.15279372D-02 -0.68604041D-17 -0.19982287D-03 -0.26682397D-03
  0.11564288D-17 -0.36790104D-05  0.74398032D-03 -0.51146739D-03 -0.23251293D-03
 -0.17854414D-17  0.39381398D-02 -0.14046543D-15  0.44200984D-04 -0.15866438D-03
  0.11446340D-03  0.14563362D-16  0.88223231D-03 -0.33304658D-16  0.26081572D-04
 -0.29902422D-04  0.38208497D-05  0.14239824D-17  0.11413011D-03  0.64739628D-18
  0.88306851D-04 -0.21974760D-17  0.12318315D-07 -0.56592409D-05  0.59123536D-17
 -0.77378980D-04 -0.25926131D-03  0.68007447D-18  0.77342025D-04  0.85654937D-17
 -0.16840400D-03  0.98462003D-19 -0.49804882D-04  0.17034258D-03 -0.12092382D-17
  0.12178994D-03  0.33486943D-03  0.91385219D-18  0.27624705D-04 -0.21909127D-17
 -0.15230390D+00 -0.28379590D+00 -0.47997001D+00 -0.72280825D+00 -0.89488350D+00
 -0.76150547D+00 -0.28976688D+00  0.13571019D-02  0.56538111D-03  0.10600949D-02
  0.18035368D-02  0.28007022D-02  0.37166947D-02  0.39168861D-02  0.24287192D-02
 -0.16155850D-02 -0.16433779D-01  0.12493114D-02  0.11653009D-02  0.61839046D-03
  0.59395664D-03  0.41652340D-03 -0.61639033D-17 -0.59203554D-17 -0.41517619D-17
 -0.11013356D-02 -0.10578197D-02 -0.74181616D-03 -0.32792552D-02  0.48015928D-17
  0.17639817D-02  0.16938462D-02 -0.16122846D-17 -0.23189192D-03  0.22331761D-04
  0.22744567D-18  0.11151408D-03 -0.20028208D-02  0.14389881D-02  0.56383269D-03
 -0.26159292D-17  0.33746382D-02  0.56038437D-17 -0.28357140D-03 -0.11567242D-03
  0.39924382D-03  0.65043535D-17 -0.10941319D-02 -0.23269078D-17 -0.33279605D-04
 -0.51161114D-04  0.84440718D-04 -0.13700748D-18 -0.68391320D-03  0.33112858D-18
 -0.17986385D-03 -0.13889816D-17 -0.34285216D-03  0.95718503D-03  0.55500717D-17
  0.17288421D-02 -0.41759349D-03 -0.13831270D-17 -0.70028558D-03 -0.73774947D-17
  0.11905535D-03  0.19270482D-18  0.49017277D-04 -0.10130244D-03 -0.89185210D-18
 -0.15247259D-03 -0.25586362D-03  0.31373763D-18  0.54207608D-05  0.67413665D-18
  0.38288988D+00  0.71345891D+00  0.12066379D+01  0.18171298D+01  0.22497245D+01
  0.19144141D+01  0.72846986D+00 -0.34117351D-02 -0.13575864D-02 -0.25454873D-02
 -0.43306312D-02 -0.67250130D-02 -0.89244834D-02 -0.94051805D-02 -0.58318119D-02
  0.38793235D-02  0.41345201D-01  0.27113697D-03 -0.10939902D-02  0.19852769D-02
  0.19068347D-02  0.13372041D-02  0.85151191D-17  0.81786701D-17  0.57354480D-17
  0.22505043D-02  0.21615825D-02  0.15158508D-02 -0.77372256D-02 -0.56333989D-18
 -0.35274813D-02  0.14801788D-02 -0.17174714D-17 -0.21390594D-03 -0.62945925D-05
  0.12767826D-18 -0.14404020D-03  0.56223790D-02 -0.38575644D-02 -0.17648146D-02
  0.39446979D-17  0.80138944D-02 -0.16697961D-18 -0.13865362D-03  0.39081106D-03
 -0.25215744D-03  0.52356930D-18 -0.11489938D-02  0.22605261D-17 -0.23958568D-04
  0.90265346D-04 -0.66306778D-04  0.38582478D-17 -0.67811754D-03  0.20230859D-17
 -0.11905754D-02  0.74931386D-18  0.91006220D-03  0.32239903D-02  0.31272570D-20
 -0.40434684D-02  0.34773588D-03 -0.22510688D-17  0.13132818D-02 -0.25346010D-17
  0.24544565D-03  0.49961126D-18 -0.10915961D-03 -0.28258523D-03 -0.20988959D-17
  0.26655326D-03 -0.45375173D-03  0.60006208D-18  0.60925575D-04 -0.20335838D-17
 -0.17223304D-02 -0.32093091D-02 -0.54277462D-02 -0.81738850D-02 -0.10119800D-01
 -0.86114930D-02 -0.32768319D-02  0.15346802D-04 -0.39196853D-04 -0.73494465D-04
 -0.12503595D-03 -0.19416763D-03 -0.25767174D-03 -0.27155064D-03 -0.16837872D-03
  0.11200559D-03 -0.92116880D-03 -0.18015335D-02 -0.10072729D-03  0.11613071D-02
  0.11154216D-02  0.78221061D-03  0.38475876D-17  0.36955619D-17  0.25915831D-17
 -0.44260303D-03 -0.42511492D-03 -0.29811992D-03 -0.15223652D-02 -0.23880484D-17
  0.53862284D-03 -0.14663666D-04  0.41782043D-18  0.66756095D-03 -0.10066819D-04
 -0.60816835D-19 -0.17162200D-04  0.62878219D-03 -0.20053321D-03 -0.42824898D-03
  0.37489639D-18 -0.23515099D-03  0.17880301D-17  0.94061874D-03 -0.70464515D-03
 -0.23597358D-03  0.35858395D-17 -0.15191902D-02 -0.17708255D-17  0.55909105D-04
 -0.79223530D-04  0.23314425D-04 -0.26377770D-18 -0.15735812D-03 -0.84833234D-19
 -0.56841078D-03  0.11430608D-17 -0.44948561D-03  0.11889351D-02 -0.43772804D-17
  0.17449599D-02  0.51629726D-03  0.94809799D-18 -0.39650304D-03  0.91221396D-19
 -0.11333448D-03  0.30966310D-18 -0.54800708D-04  0.32947414D-03 -0.87008887D-18
  0.32332856D-03  0.10529303D-04 -0.58900434D-19 -0.15892644D-03  0.16080810D-17
  0.42771580D-02  0.79698542D-02  0.13479021D-01  0.20298659D-01  0.25131057D-01
  0.21385395D-01  0.81375375D-02 -0.38111560D-04  0.13380707D-03  0.25088951D-03
  0.42683770D-03  0.66283388D-03  0.87961910D-03  0.92699779D-03  0.57479777D-03
 -0.38235570D-03  0.21983005D-02 -0.37838856D-03 -0.28550900D-03  0.31696069D-02
  0.30443695D-02  0.21349220D-02 -0.70376569D-18 -0.67595853D-18 -0.47402878D-18
  0.10315376D-02  0.99077950D-03  0.69480297D-03 -0.43508492D-02  0.26568364D-17
 -0.13006885D-02 -0.13883410D-02  0.66342362D-17 -0.93905273D-03 -0.44403764D-04
  0.92991470D-19  0.14835598D-04 -0.16747207D-02  0.91983562D-03  0.75488510D-03
 -0.22425687D-17 -0.17146241D-02  0.57714838D-18 -0.24292164D-02  0.15518019D-02
  0.87741453D-03  0.30210308D-17 -0.30188474D-02  0.30848861D-18 -0.19157434D-03
  0.14645313D-03  0.45121213D-04  0.14368903D-17 -0.26144475D-03  0.41528660D-18
 -0.14900290D-02 -0.78817662D-18  0.10238445D-02  0.32360898D-02  0.12064383D-17
 -0.42928725D-02  0.12339971D-02  0.11580915D-17  0.12213389D-02 -0.14060209D-17
 -0.25576250D-03  0.15490467D-18  0.15212850D-03  0.61673407D-03 -0.18746768D-18
 -0.68653726D-03  0.15055344D-03 -0.27724632D-18  0.23015177D-03 -0.51814273D-18
MO    2     MO 0.0        OCC NO =    2.0000000  ORB. ENERGY =  -14.859513
  0.21743504D-02  0.40515817D-02  0.68522404D-02  0.10319094D-01  0.12775708D-01
  0.10871551D-01  0.41368258D-02 -0.19374520D-04 -0.33724956D-03 -0.63234608D-03
 -0.10758088D-02 -0.16706175D-02 -0.22170066D-02 -0.23364206D-02 -0.14487298D-02
  0.96369565D-03 -0.31154423D-03  0.14197894D-02  0.53709145D-03 -0.20884651D-03
 -0.20059457D-03 -0.14067076D-03  0.78488890D-15  0.75387641D-15  0.52867017D-15
  0.13918267D-04  0.13368329D-04  0.93747949D-05  0.12386687D-02 -0.16936268D-16
 -0.12811885D-02  0.65855125D-03 -0.17674222D-17 -0.46414431D-03  0.11500289D-03
 -0.12455764D-17 -0.85559818D-05  0.17263385D-02 -0.11869133D-02 -0.53942512D-03
 -0.81218901D-16 -0.16973223D-02 -0.54318925D-16  0.10300086D-03 -0.36853455D-03
  0.26553370D-03  0.10458035D-16 -0.38066597D-03  0.10106853D-16  0.60566613D-04
 -0.69431694D-04  0.88650815D-05  0.79746166D-18 -0.49220549D-04  0.26177817D-17
 -0.38074401D-04 -0.29833907D-17  0.12901796D-06  0.22809349D-05  0.69135020D-17
 -0.18010471D-03  0.11194227D-03  0.20366701D-17  0.17971765D-03 -0.81913949D-18
  0.72559374D-04  0.28575958D-18 -0.11552111D-03 -0.73435601D-04 -0.94812317D-18
  0.28238072D-03 -0.14424252D-03  0.90844439D-19  0.64182621D-04  0.95978735D-19
  0.38285163D+00  0.71338764D+00  0.12065173D+01  0.18169483D+01  0.22494998D+01
  0.19142228D+01  0.72839710D+00 -0.34113944D-02 -0.13339298D-02 -0.25011309D-02
 -0.42551679D-02 -0.66078264D-02 -0.87689700D-02 -0.92412907D-02 -0.57301898D-02
  0.38117244D-02  0.41353818D-01  0.15537669D-02 -0.40413400D-03 -0.21464242D-02
 -0.20616148D-02 -0.14457466D-02  0.19176623D-16  0.18418917D-16  0.12916616D-16
  0.20554244D-02  0.19742106D-02  0.13844527D-02  0.75490495D-02 -0.16100104D-17
 -0.31875949D-02 -0.43601903D-03 -0.32158573D-17 -0.51346339D-03  0.29745141D-04
  0.29230058D-18 -0.92821040D-04  0.58440709D-02 -0.39482621D-02 -0.18958088D-02
  0.10272382D-18 -0.78383391D-02 -0.62249650D-17 -0.45867733D-03  0.42843449D-03
  0.30242835D-04 -0.14957462D-17  0.54735689D-03  0.35243855D-17 -0.64426075D-04
  0.75846379D-04 -0.11420304D-04 -0.47277073D-17  0.28675165D-03  0.23834172D-17
  0.14682496D-02  0.10799078D-17  0.92833129D-03 -0.35319391D-02 -0.46937591D-17
 -0.39305670D-02 -0.87280952D-03  0.14540357D-17  0.11455731D-02  0.14471787D-16
 -0.22521890D-03  0.87886358D-18 -0.10386024D-03  0.29310741D-03 -0.20208945D-17
  0.22265034D-03  0.38254930D-03 -0.61569626D-18  0.88930383D-04  0.20188142D-17
  0.15220668D+00  0.28361474D+00  0.47966362D+00  0.72234684D+00  0.89431224D+00
  0.76101936D+00  0.28958190D+00 -0.13562356D-02 -0.50494794D-03 -0.94678210D-03
 -0.16107581D-02 -0.25013372D-02 -0.33194199D-02 -0.34982130D-02 -0.21691152D-02
  0.14428963D-02  0.16452946D-01  0.19747532D-02  0.56941374D-03  0.10246052D-02
  0.98412102D-03  0.69013359D-03  0.64879290D-17  0.62315782D-17  0.43700128D-17
  0.61100530D-03  0.58686329D-03  0.41154905D-03 -0.27994640D-02 -0.26195279D-17
 -0.90640502D-03 -0.93205481D-03 -0.32004188D-17 -0.52117981D-03 -0.36681281D-04
 -0.86797604D-19  0.17320938D-04  0.25570348D-02 -0.16651474D-02 -0.89188739D-03
  0.24722263D-17  0.29292961D-02  0.18005396D-17 -0.52103685D-03  0.21012022D-03
  0.31091663D-03  0.67613725D-18  0.41942669D-03  0.64897202D-18 -0.68436642D-04
  0.14902685D-04  0.53533957D-04  0.61722862D-17  0.30023315D-03  0.33903448D-17
 -0.87743897D-03  0.15191009D-17  0.38818967D-03  0.17294150D-02 -0.29983602D-17
 -0.14421051D-02  0.90290193D-03 -0.15589423D-17  0.27753613D-03 -0.26008341D-17
  0.68102524D-04  0.63133251D-18 -0.35717805D-04 -0.12759788D-03 -0.19863338D-17
  0.42146212D-04 -0.76709689D-04  0.92336288D-19  0.65007203D-04 -0.28198378D-17
  0.42582593D-02  0.79346392D-02  0.13419464D-01  0.20208969D-01  0.25020015D-01
  0.21290904D-01  0.81015816D-02 -0.37943163D-04  0.14732327D-03  0.27623250D-03
  0.46995367D-03  0.72978843D-03  0.96847170D-03  0.10206362D-02  0.63285957D-03
 -0.42097843D-03  0.21543789D-02 -0.22236574D-02 -0.48807984D-03 -0.32634908D-02
 -0.31345439D-02 -0.21981585D-02  0.12953056D-17  0.12441256D-17  0.87246672D-18
  0.10010523D-02  0.96149878D-03  0.67426931D-03  0.45495602D-02  0.27720133D-17
 -0.12813660D-02  0.18968500D-02  0.83250619D-17 -0.66141329D-03  0.51598557D-04
  0.58644754D-19  0.41968521D-05 -0.17112354D-02  0.10767783D-02  0.63445715D-03
  0.29039829D-17  0.21380515D-02  0.35550813D-17 -0.24539779D-02  0.14695659D-02
  0.98441205D-03 -0.49510986D-17  0.27187421D-02 -0.81587469D-18 -0.21080069D-03
  0.12667294D-03  0.84127756D-04 -0.17284088D-17  0.21107106D-03  0.52629158D-18
  0.15131501D-02 -0.66426990D-18  0.98400593D-03 -0.33292584D-02  0.17298008D-17
 -0.42577939D-02 -0.12101919D-02  0.26300887D-18  0.13057761D-02 -0.83457666D-17
  0.24481984D-03  0.38916700D-19  0.15754407D-03 -0.53726933D-03  0.30289949D-18
 -0.63914941D-03 -0.19719018D-03 -0.41964960D-18  0.16651721D-03  0.23896839D-17
  0.16719689D-02  0.31154678D-02  0.52690371D-02  0.79348779D-02  0.98238936D-02
  0.83596901D-02  0.31810163D-02 -0.14898056D-04  0.72573060D-04  0.13607517D-03
  0.23150435D-03  0.35950180D-03  0.47707980D-03  0.50277663D-03  0.31175358D-03
 -0.20737860D-03  0.80977266D-03 -0.28363585D-02 -0.40834924D-03  0.13969585D-02
  0.13417620D-02  0.94093610D-03  0.38808757D-17  0.37275348D-17  0.26140047D-17
  0.36579137D-03  0.35133824D-03  0.24638262D-03 -0.20170042D-02 -0.31308734D-18
 -0.48831151D-03 -0.12918137D-02  0.11204017D-16  0.31043834D-04 -0.28107408D-04
  0.30623083D-18 -0.95923546D-05 -0.71768462D-03  0.59340497D-03  0.12427965D-03
 -0.15056847D-17 -0.12969116D-02 -0.87251365D-19 -0.10012416D-02  0.49689158D-03
  0.50434997D-03  0.48357070D-17 -0.76251581D-03  0.96058107D-18 -0.10410496D-03
  0.29392025D-04  0.74712931D-04  0.24288881D-17 -0.30551364D-04  0.61221400D-18
 -0.62586328D-03 -0.84923440D-18  0.34896315D-03  0.14219463D-02  0.25751179D-17
 -0.16553557D-02  0.45564358D-03 -0.27414700D-19  0.60846627D-03  0.14319219D-17
 -0.85723603D-04 -0.32946730D-19  0.68337980D-04  0.12943222D-03  0.23700271D-18
 -0.20383602D-03  0.12773858D-03 -0.13816252D-18 -0.11779191D-05 -0.63724996D-18
MO    3     MO 0.0        OCC NO =    2.0000000  ORB. ENERGY =  -14.802633
  0.41184300D+00  0.76740880D+00  0.12978807D+01  0.19545364D+01  0.24198428D+01
  0.20591770D+01  0.78355484D+00 -0.36697216D-02 -0.11934843D-02 -0.22377942D-02
 -0.38071538D-02 -0.59121078D-02 -0.78457110D-02 -0.82683024D-02 -0.51268750D-02
  0.34103992D-02  0.44115742D-01 -0.66958229D-03 -0.66843404D-03 -0.29300700D-08
 -0.28142972D-08 -0.19735794D-08 -0.54792199D-16 -0.52627253D-16 -0.36905862D-16
 -0.10929800D-01 -0.10497943D-01 -0.73618820D-02  0.21184889D-06  0.13053439D-16
 -0.12764188D-03 -0.56191600D-07 -0.13172969D-17  0.20019227D-02 -0.47323352D-08
 -0.59572717D-19  0.60961984D-04  0.33175056D-02 -0.30046171D-02 -0.31288849D-03
  0.17326322D-17 -0.19341437D-06  0.46542011D-17 -0.13801247D-02  0.11798685D-02
  0.20025618D-03 -0.31350890D-18 -0.73708786D-07 -0.44628023D-17  0.31674282D-04
  0.15201920D-03 -0.18369348D-03 -0.44309141D-19  0.32594824D-08  0.17041778D-18
  0.12130216D-07 -0.14051923D-17 -0.12000329D-03 -0.54893475D-07  0.31181921D-17
  0.40713032D-03  0.18502827D-07  0.10973847D-17 -0.47120461D-04  0.89601586D-18
 -0.74389705D-08 -0.17989740D-18 -0.21366002D-03  0.34905379D-08  0.33175457D-18
  0.10076705D-02  0.18826374D-07  0.20793762D-18 -0.36669046D-03  0.12521808D-18
 -0.99106007D-03 -0.18466945D-02 -0.31232234D-02 -0.47034013D-02 -0.58231160D-02
 -0.49552089D-02 -0.18855484D-02  0.88308275D-05 -0.25703905D-03 -0.48195063D-03
 -0.81994142D-03 -0.12732824D-02 -0.16897199D-02 -0.17807328D-02 -0.11041679D-02
  0.73449293D-03  0.14498900D-03  0.14298266D-02  0.53571019D-03 -0.29861904D-03
 -0.28682002D-03 -0.20113799D-03  0.19781165D-17  0.18999573D-17  0.13323812D-17
  0.59306585D-03  0.56963265D-03  0.39946574D-03 -0.30727327D-02 -0.13288952D-17
  0.14636545D-02  0.12106100D-02 -0.18977134D-17 -0.16361574D-02  0.22752317D-04
  0.45702368D-19 -0.79039110D-05  0.26383070D-03 -0.49813579D-03  0.23430509D-03
 -0.12208724D-17 -0.15787901D-02  0.73665489D-18 -0.51277315D-03  0.17868180D-03
  0.33409135D-03  0.12252259D-17 -0.37001386D-04 -0.65010446D-18  0.15201367D-03
 -0.23180337D-04 -0.12883333D-03 -0.64892145D-18  0.91344501D-05  0.39382609D-18
 -0.29806280D-03  0.34366285D-18  0.21374277D-03  0.40041405D-03 -0.97773108D-18
 -0.82119245D-03  0.49377436D-03 -0.53257468D-19  0.17996413D-03  0.15061208D-17
  0.10607951D-03  0.58590795D-18  0.19048492D-03 -0.85315505D-03 -0.15852962D-17
 -0.11344334D-02  0.53491652D-03 -0.17242761D-18  0.56297867D-03  0.26365688D-17
 -0.99093074D-03 -0.18464535D-02 -0.31228158D-02 -0.47027876D-02 -0.58223561D-02
 -0.49545623D-02 -0.18853023D-02  0.88296752D-05 -0.25703879D-03 -0.48195014D-03
 -0.81994058D-03 -0.12732811D-02 -0.16897181D-02 -0.17807310D-02 -0.11041668D-02
  0.73449218D-03  0.14490857D-03  0.14305216D-02  0.53585253D-03  0.29852522D-03
  0.28672990D-03  0.20107480D-03  0.21821790D-17  0.20959568D-17  0.14698296D-17
  0.59296270D-03  0.56953359D-03  0.39939626D-03  0.30727218D-02 -0.18100178D-17
  0.14637005D-02 -0.12108813D-02 -0.32106040D-17 -0.16361623D-02 -0.22747042D-04
  0.59550425D-20 -0.79142465D-05  0.26380621D-03 -0.49812215D-03  0.23431594D-03
  0.15546490D-17  0.15786243D-02  0.63929924D-18 -0.51254388D-03  0.17858679D-03
  0.33395709D-03 -0.10748806D-17  0.37183782D-04 -0.61453720D-18  0.15205764D-03
 -0.23198726D-04 -0.12885891D-03  0.12270459D-17 -0.91300853D-05  0.52441820D-18
  0.29802615D-03  0.34484205D-18  0.21370189D-03 -0.40051378D-03 -0.93429329D-18
 -0.82096906D-03 -0.49356469D-03 -0.10023286D-18  0.17986338D-03 -0.14255125D-17
 -0.10610211D-03  0.68889742D-18  0.19047178D-03  0.85313963D-03 -0.18991260D-17
 -0.11343550D-02 -0.53483328D-03 -0.16756625D-18  0.56293966D-03 -0.30861132D-17
 -0.11504784D-02 -0.21437470D-02 -0.36256136D-02 -0.54599732D-02 -0.67598010D-02
 -0.57522856D-02 -0.21888508D-02  0.10251322D-04  0.25648347D-03  0.48090889D-03
  0.81816912D-03  0.12705303D-02  0.16860675D-02  0.17768837D-02  0.11017813D-02
 -0.73290533D-03 -0.88295661D-03 -0.14299496D-02 -0.18456656D-03  0.69933324D-03
  0.67170122D-03  0.47104326D-03 -0.97022744D-18 -0.93189186D-18 -0.65350689D-18
 -0.10090363D-02 -0.96916731D-03 -0.67964702D-03 -0.42809923D-03  0.22929844D-17
  0.15259230D-02  0.11380836D-04  0.17983164D-17  0.26183746D-03 -0.50132240D-06
 -0.86126587D-21 -0.36588430D-05 -0.90318027D-04 -0.22913518D-03  0.31945321D-03
 -0.64037698D-18 -0.29295536D-03  0.11520803D-17  0.19331428D-03 -0.14746062D-03
 -0.45853668D-04 -0.14952486D-17 -0.13495241D-02 -0.15717113D-18  0.24605208D-04
 -0.38322292D-04  0.13717084D-04 -0.33493639D-18 -0.11573894D-03  0.48862650D-19
  0.18295614D-03 -0.36213984D-18 -0.14979631D-03 -0.11047676D-04  0.12482263D-17
  0.62567468D-03 -0.53782074D-03 -0.16180676D-18 -0.17628576D-03 -0.10773839D-17
 -0.11013655D-05  0.55230465D-19 -0.27330476D-04 -0.31101518D-04 -0.40072048D-19
  0.88052658D-04  0.34405614D-04 -0.12561935D-18 -0.60612291D-05  0.53029725D-18
 -0.11512728D-02 -0.21452273D-02 -0.36281171D-02 -0.54637433D-02 -0.67644686D-02
 -0.57562575D-02 -0.21903622D-02  0.10258401D-04  0.25654158D-03  0.48101786D-03
  0.81835451D-03  0.12708181D-02  0.16864496D-02  0.17772864D-02  0.11020309D-02
 -0.73307140D-03 -0.88302410D-03 -0.14306446D-02 -0.18466804D-03 -0.69930698D-03
 -0.67167600D-03 -0.47102557D-03 -0.92346794D-18 -0.88697992D-18 -0.62201154D-18
 -0.10089813D-02 -0.96911447D-03 -0.67960996D-03  0.42772666D-03  0.25439495D-17
  0.15255058D-02 -0.11590145D-04  0.32453259D-17  0.26163692D-03  0.49108784D-06
  0.40058032D-19 -0.36598895D-05 -0.90344303D-04 -0.22903646D-03  0.31938076D-03
 -0.39788974D-19  0.29255154D-03  0.97416697D-18  0.19332655D-03 -0.14747537D-03
 -0.45851188D-04  0.22770921D-17  0.13494511D-02  0.61516390D-19  0.24601963D-04
 -0.38316464D-04  0.13714501D-04  0.66186506D-18  0.11571247D-03  0.21227449D-18
 -0.18288151D-03 -0.37330411D-18 -0.14980281D-03  0.10941747D-04  0.13943733D-17
  0.62570148D-03  0.53770279D-03 -0.27446101D-18 -0.17629305D-03  0.10012104D-17
  0.11064454D-05  0.13683065D-19 -0.27340844D-04  0.31068117D-04  0.88051513D-19
  0.88102520D-04 -0.34387453D-04 -0.12910071D-18 -0.60799875D-05 -0.37257284D-18
MO    4     MO 0.0        OCC NO =    2.0000000  ORB. ENERGY =  -14.792193
  0.39702741D-03  0.73980213D-03  0.12511909D-02  0.18842241D-02  0.23327917D-02
  0.19851004D-02  0.75536734D-03 -0.35377075D-05  0.28857997D-03  0.54109014D-03
  0.92055532D-03  0.14295252D-02  0.18970631D-02  0.19992441D-02  0.12396589D-02
 -0.82462157D-03 -0.48547174D-03  0.67794182D-03  0.92604790D-03  0.36671340D-03
  0.35222383D-03  0.24700367D-03  0.17292145D-15  0.16608899D-15  0.11647306D-15
 -0.24247363D-03 -0.23289303D-03 -0.16332067D-03  0.10577025D-03 -0.15147220D-15
  0.66224787D-03 -0.77215445D-03  0.37581923D-16 -0.14608370D-03 -0.18007499D-03
  0.37198355D-18 -0.36967417D-04 -0.59781255D-03  0.42250861D-03  0.17530395D-03
 -0.16141773D-15 -0.67380016D-03 -0.49422706D-16  0.11396252D-02 -0.38473084D-03
 -0.75489433D-03  0.35069462D-16 -0.50503069D-03  0.94034288D-17  0.17768793D-03
 -0.11045744D-03 -0.67230485D-04  0.77505044D-18  0.18876509D-03  0.24814782D-17
 -0.24599495D-03 -0.12379793D-17  0.18755719D-03 -0.78914940D-03  0.18895894D-17
  0.32891193D-04  0.15271342D-02  0.18243487D-17 -0.59556275D-03 -0.51864449D-17
 -0.13878124D-03  0.99684520D-19  0.41933630D-04  0.15856784D-03 -0.26877874D-18
 -0.16769865D-03  0.25777588D-03 -0.30274822D-19  0.41897762D-04 -0.89030289D-18
 -0.76886201D-04 -0.14326611D-03 -0.24229892D-03 -0.36488874D-03 -0.45175593D-03
 -0.38442391D-03 -0.14628039D-03  0.68509347D-06  0.78057337D-04  0.14635824D-03
  0.24899891D-03  0.38666901D-03  0.51313227D-03  0.54077098D-03  0.33531250D-03
 -0.22305001D-03  0.14371908D-03  0.97143649D-03 -0.58316429D-04 -0.41978996D-03
 -0.40320324D-03 -0.28275394D-03  0.79386663D-18  0.76249941D-18  0.53471722D-18
  0.25239645D-03  0.24242377D-03  0.17000428D-03  0.80582331D-03  0.32487186D-17
 -0.41515789D-03  0.18382236D-02  0.53546218D-18 -0.10664614D-02  0.11142976D-03