 Molden2AIM, Version 4.0.0 (06/02/2016)           Time: Fri Jun 29 19:36:55 2018
GAUSSIAN             17 MOL ORBITALS    300 PRIMITIVES        4 NUCLEI
  N    1    (CENTRE  1)   0.00000000 -0.00006803  0.31581859  CHARGE =  7.0
  F    2    (CENTRE  2)   0.00000000 -2.31740894 -0.82637345  CHARGE =  9.0
  F    3    (CENTRE  3)   2.00619750  1.15883297 -0.82640180  CHARGE =  9.0
  F    4    (CENTRE  4)  -2.00619750  1.15883297 -0.82640180  CHARGE =  9.0
CENTRE ASSIGNMENTS    1  1  1  1  1  1  1  1  1  1  1  1  1  1  1  1  1  1  1  1
CENTRE ASSIGNMENTS    1  1  1  1  1  1  1  1  1  1  1  1  1  1  1  1  1  1  1  1
CENTRE ASSIGNMENTS    1  1  1  1  1  1  1  1  1  1  1  1  1  1  1  1  1  1  1  1
CENTRE ASSIGNMENTS    1  1  1  1  1  1  1  1  1  1  1  1  1  1  1  2  2  2  2  2
CENTRE ASSIGNMENTS    2  2  2  2  2  2  2  2  2  2  2  2  2  2  2  2  2  2  2  2
CENTRE ASSIGNMENTS    2  2  2  2  2  2  2  2  2  2  2  2  2  2  2  2  2  2  2  2
CENTRE ASSIGNMENTS    2  2  2  2  2  2  2  2  2  2  2  2  2  2  2  2  2  2  2  2
CENTRE ASSIGNMENTS    2  2  2  2  2  2  2  2  2  2  3  3  3  3  3  3  3  3  3  3
CENTRE ASSIGNMENTS    3  3  3  3  3  3  3  3  3  3  3  3  3  3  3  3  3  3  3  3
CENTRE ASSIGNMENTS    3  3  3  3  3  3  3  3  3  3  3  3  3  3  3  3  3  3  3  3
CENTRE ASSIGNMENTS    3  3  3  3  3  3  3  3  3  3  3  3  3  3  3  3  3  3  3  3
CENTRE ASSIGNMENTS    3  3  3  3  3  4  4  4  4  4  4  4  4  4  4  4  4  4  4  4
CENTRE ASSIGNMENTS    4  4  4  4  4  4  4  4  4  4  4  4  4  4  4  4  4  4  4  4
CENTRE ASSIGNMENTS    4  4  4  4  4  4  4  4  4  4  4  4  4  4  4  4  4  4  4  4
CENTRE ASSIGNMENTS    4  4  4  4  4  4  4  4  4  4  4  4  4  4  4  4  4  4  4  4
TYPE ASSIGNMENTS      1  1  1  1  1  1  1  1  1  1  1  1  1  1  1  1  1  1  1  2
TYPE ASSIGNMENTS      2  2  3  3  3  4  4  4  2  3  4  2  3  4  2  3  4  5  6  7
TYPE ASSIGNMENTS      8  9 10  5  6  7  8  9 10  5  6  7  8  9 10 11 12 13 17 14
TYPE ASSIGNMENTS     15 18 19 16 20 11 12 13 17 14 15 18 19 16 20  1  1  1  1  1
TYPE ASSIGNMENTS      1  1  1  1  1  1  1  1  1  1  1  1  1  1  2  2  2  3  3  3
TYPE ASSIGNMENTS      4  4  4  2  3  4  2  3  4  2  3  4  5  6  7  8  9 10  5  6
TYPE ASSIGNMENTS      7  8  9 10  5  6  7  8  9 10 11 12 13 17 14 15 18 19 16 20
TYPE ASSIGNMENTS     11 12 13 17 14 15 18 19 16 20  1  1  1  1  1  1  1  1  1  1
TYPE ASSIGNMENTS      1  1  1  1  1  1  1  1  1  2  2  2  3  3  3  4  4  4  2  3
TYPE ASSIGNMENTS      4  2  3  4  2  3  4  5  6  7  8  9 10  5  6  7  8  9 10  5
TYPE ASSIGNMENTS      6  7  8  9 10 11 12 13 17 14 15 18 19 16 20 11 12 13 17 14
TYPE ASSIGNMENTS     15 18 19 16 20  1  1  1  1  1  1  1  1  1  1  1  1  1  1  1
TYPE ASSIGNMENTS      1  1  1  1  2  2  2  3  3  3  4  4  4  2  3  4  2  3  4  2
TYPE ASSIGNMENTS      3  4  5  6  7  8  9 10  5  6  7  8  9 10  5  6  7  8  9 10
TYPE ASSIGNMENTS     11 12 13 17 14 15 18 19 16 20 11 12 13 17 14 15 18 19 16 20
EXPONENTS  0.1142000D+05 0.1712000D+04 0.3893000D+03 0.1100000D+03 0.3557000D+02
EXPONENTS  0.1254000D+02 0.4644000D+01 0.5118000D+00 0.1142000D+05 0.1712000D+04
EXPONENTS  0.3893000D+03 0.1100000D+03 0.3557000D+02 0.1254000D+02 0.4644000D+01
EXPONENTS  0.5118000D+00 0.1293000D+01 0.1787000D+00 0.5760000D-01 0.2663000D+02
EXPONENTS  0.5948000D+01 0.1742000D+01 0.2663000D+02 0.5948000D+01 0.1742000D+01
EXPONENTS  0.2663000D+02 0.5948000D+01 0.1742000D+01 0.5550000D+00 0.5550000D+00
EXPONENTS  0.5550000D+00 0.1725000D+00 0.1725000D+00 0.1725000D+00 0.4910000D-01
EXPONENTS  0.4910000D-01 0.4910000D-01 0.1654000D+01 0.1654000D+01 0.1654000D+01
EXPONENTS  0.1654000D+01 0.1654000D+01 0.1654000D+01 0.4690000D+00 0.4690000D+00
EXPONENTS  0.4690000D+00 0.4690000D+00 0.4690000D+00 0.4690000D+00 0.1510000D+00
EXPONENTS  0.1510000D+00 0.1510000D+00 0.1510000D+00 0.1510000D+00 0.1510000D+00
EXPONENTS  0.1093000D+01 0.1093000D+01 0.1093000D+01 0.1093000D+01 0.1093000D+01
EXPONENTS  0.1093000D+01 0.1093000D+01 0.1093000D+01 0.1093000D+01 0.1093000D+01
EXPONENTS  0.3640000D+00 0.3640000D+00 0.3640000D+00 0.3640000D+00 0.3640000D+00
EXPONENTS  0.3640000D+00 0.3640000D+00 0.3640000D+00 0.3640000D+00 0.3640000D+00
EXPONENTS  0.1950000D+05 0.2923000D+04 0.6645000D+03 0.1875000D+03 0.6062000D+02
EXPONENTS  0.2142000D+02 0.7950000D+01 0.8815000D+00 0.1950000D+05 0.2923000D+04
EXPONENTS  0.6645000D+03 0.1875000D+03 0.6062000D+02 0.2142000D+02 0.7950000D+01
EXPONENTS  0.8815000D+00 0.2257000D+01 0.3041000D+00 0.9158000D-01 0.4388000D+02
EXPONENTS  0.9926000D+01 0.2930000D+01 0.4388000D+02 0.9926000D+01 0.2930000D+01
EXPONENTS  0.4388000D+02 0.9926000D+01 0.2930000D+01 0.9132000D+00 0.9132000D+00
EXPONENTS  0.9132000D+00 0.2672000D+00 0.2672000D+00 0.2672000D+00 0.7361000D-01
EXPONENTS  0.7361000D-01 0.7361000D-01 0.3107000D+01 0.3107000D+01 0.3107000D+01
EXPONENTS  0.3107000D+01 0.3107000D+01 0.3107000D+01 0.8550000D+00 0.8550000D+00
EXPONENTS  0.8550000D+00 0.8550000D+00 0.8550000D+00 0.8550000D+00 0.2920000D+00
EXPONENTS  0.2920000D+00 0.2920000D+00 0.2920000D+00 0.2920000D+00 0.2920000D+00
EXPONENTS  0.1917000D+01 0.1917000D+01 0.1917000D+01 0.1917000D+01 0.1917000D+01
EXPONENTS  0.1917000D+01 0.1917000D+01 0.1917000D+01 0.1917000D+01 0.1917000D+01
EXPONENTS  0.7240000D+00 0.7240000D+00 0.7240000D+00 0.7240000D+00 0.7240000D+00
EXPONENTS  0.7240000D+00 0.7240000D+00 0.7240000D+00 0.7240000D+00 0.7240000D+00
EXPONENTS  0.1950000D+05 0.2923000D+04 0.6645000D+03 0.1875000D+03 0.6062000D+02
EXPONENTS  0.2142000D+02 0.7950000D+01 0.8815000D+00 0.1950000D+05 0.2923000D+04
EXPONENTS  0.6645000D+03 0.1875000D+03 0.6062000D+02 0.2142000D+02 0.7950000D+01
EXPONENTS  0.8815000D+00 0.2257000D+01 0.3041000D+00 0.9158000D-01 0.4388000D+02
EXPONENTS  0.9926000D+01 0.2930000D+01 0.4388000D+02 0.9926000D+01 0.2930000D+01
EXPONENTS  0.4388000D+02 0.9926000D+01 0.2930000D+01 0.9132000D+00 0.9132000D+00
EXPONENTS  0.9132000D+00 0.2672000D+00 0.2672000D+00 0.2672000D+00 0.7361000D-01
EXPONENTS  0.7361000D-01 0.7361000D-01 0.3107000D+01 0.3107000D+01 0.3107000D+01
EXPONENTS  0.3107000D+01 0.3107000D+01 0.3107000D+01 0.8550000D+00 0.8550000D+00
EXPONENTS  0.8550000D+00 0.8550000D+00 0.8550000D+00 0.8550000D+00 0.2920000D+00
EXPONENTS  0.2920000D+00 0.2920000D+00 0.2920000D+00 0.2920000D+00 0.2920000D+00
EXPONENTS  0.1917000D+01 0.1917000D+01 0.1917000D+01 0.1917000D+01 0.1917000D+01
EXPONENTS  0.1917000D+01 0.1917000D+01 0.1917000D+01 0.1917000D+01 0.1917000D+01
EXPONENTS  0.7240000D+00 0.7240000D+00 0.7240000D+00 0.7240000D+00 0.7240000D+00
EXPONENTS  0.7240000D+00 0.7240000D+00 0.7240000D+00 0.7240000D+00 0.7240000D+00
EXPONENTS  0.1950000D+05 0.2923000D+04 0.6645000D+03 0.1875000D+03 0.6062000D+02
EXPONENTS  0.2142000D+02 0.7950000D+01 0.8815000D+00 0.1950000D+05 0.2923000D+04
EXPONENTS  0.6645000D+03 0.1875000D+03 0.6062000D+02 0.2142000D+02 0.7950000D+01
EXPONENTS  0.8815000D+00 0.2257000D+01 0.3041000D+00 0.9158000D-01 0.4388000D+02
EXPONENTS  0.9926000D+01 0.2930000D+01 0.4388000D+02 0.9926000D+01 0.2930000D+01
EXPONENTS  0.4388000D+02 0.9926000D+01 0.2930000D+01 0.9132000D+00 0.9132000D+00
EXPONENTS  0.9132000D+00 0.2672000D+00 0.2672000D+00 0.2672000D+00 0.7361000D-01
EXPONENTS  0.7361000D-01 0.7361000D-01 0.3107000D+01 0.3107000D+01 0.3107000D+01
EXPONENTS  0.3107000D+01 0.3107000D+01 0.3107000D+01 0.8550000D+00 0.8550000D+00
EXPONENTS  0.8550000D+00 0.8550000D+00 0.8550000D+00 0.8550000D+00 0.2920000D+00
EXPONENTS  0.2920000D+00 0.2920000D+00 0.2920000D+00 0.2920000D+00 0.2920000D+00
EXPONENTS  0.1917000D+01 0.1917000D+01 0.1917000D+01 0.1917000D+01 0.1917000D+01
EXPONENTS  0.1917000D+01 0.1917000D+01 0.1917000D+01 0.1917000D+01 0.1917000D+01
EXPONENTS  0.7240000D+00 0.7240000D+00 0.7240000D+00 0.7240000D+00 0.7240000D+00
EXPONENTS  0.7240000D+00 0.7240000D+00 0.7240000D+00 0.7240000D+00 0.7240000D+00
MO    1     MO 0.0        OCC NO =    2.0000000  ORB. ENERGY =  -24.857946
  0.21091017D-12  0.39300005D-12  0.66466160D-12  0.10009435D-11  0.12392330D-11
  0.10545314D-11  0.40126865D-12 -0.18793123D-14 -0.13344264D-12 -0.25020620D-12
 -0.42567519D-12 -0.66102862D-12 -0.87722342D-12 -0.92447307D-12 -0.57323228D-12
  0.38131433D-12 -0.49632259D-12  0.42115119D-12  0.13105598D-12  0.12228667D-02
  0.11745488D-02  0.82367471D-03 -0.78923199D-12 -0.75804789D-12 -0.53159551D-12
  0.45978757D-12  0.44162046D-12  0.30969475D-12 -0.12493300D-02  0.79254615D-12
 -0.46591576D-12 -0.29232630D-03  0.13433970D-12 -0.10879221D-12 -0.13037015D-04
  0.65390163D-14 -0.11463705D-13  0.24197877D-12 -0.11702943D-12 -0.12494934D-12
 -0.55419288D-03  0.50796887D-03 -0.37345871D-12  0.35485262D-12 -0.24684636D-12
 -0.10800626D-12 -0.91851069D-03  0.92311891D-03 -0.57183190D-12  0.10241433D-13
 -0.83765312D-14 -0.18649019D-14 -0.31902618D-04  0.27497799D-04 -0.82463925D-14
 -0.15800876D-04 -0.34969180D-12  0.35039904D-12 -0.17083124D-04  0.10960452D-11
 -0.13192368D-11  0.64485752D-04 -0.46969820D-13  0.26803971D-12  0.24092321D-02
  0.18027953D-04 -0.22558313D-13  0.23305020D-13  0.18063481D-04  0.21156740D-13
 -0.10052993D-12 -0.72147341D-04  0.46518199D-13  0.30614867D-13  0.19280005D-03
 -0.84203327D-10 -0.15695865D-09 -0.26608350D-09 -0.40292884D-09 -0.50386393D-09
 -0.43377991D-09 -0.16676083D-09  0.72260198D-12 -0.14385459D-12 -0.27013344D-12
 -0.45999066D-12 -0.72057265D-12 -0.96565213D-12 -0.10386891D-11 -0.62362755D-12
  0.41012371D-12 -0.92498242D-11 -0.13602953D-13  0.42173533D-13  0.61356545D-04
  0.60005361D-04  0.39648079D-04 -0.11458070D-11 -0.11205742D-11 -0.74041075D-12
 -0.44012844D-12 -0.43043600D-12 -0.28440726D-12 -0.58690474D-04  0.37896323D-12
  0.99860578D-13 -0.15031991D-04  0.66246796D-13  0.31879044D-13 -0.28067635D-05
  0.90962571D-14  0.56496784D-14  0.23051085D-12 -0.25369748D-12  0.23186638D-13
 -0.19524562D-03  0.29956067D-03 -0.34130667D-12 -0.11127045D-12  0.16070537D-12
 -0.49434919D-13 -0.92147485D-05 -0.13065862D-03  0.15174669D-12 -0.20515060D-13
  0.19580339D-13  0.93472132D-15  0.44488180D-05 -0.23018020D-04  0.31342829D-13
  0.73588920D-04 -0.64797842D-13  0.37000664D-13 -0.49203729D-03  0.43728222D-12
  0.13332842D-12  0.27127053D-03 -0.24288869D-12 -0.24433042D-12  0.57720471D-03
 -0.13110407D-04  0.52637589D-13 -0.24100459D-13  0.15630220D-03 -0.21023237D-12
 -0.55331774D-13 -0.11697098D-03  0.52319603D-13  0.12763315D-12 -0.29556611D-03
 -0.41972134D+00 -0.78237876D+00 -0.13263243D+01 -0.20084459D+01 -0.25115687D+01
 -0.21622267D+01 -0.83123888D+00  0.36018942D-02 -0.56236497D-03 -0.10560218D-02
 -0.17982230D-02 -0.28169057D-02 -0.37749851D-02 -0.40605054D-02 -0.24379221D-02
  0.16032802D-02 -0.45884292D-01 -0.13874255D-03  0.27902857D-03  0.44641966D-02
  0.43658868D-02  0.28847260D-02  0.25441767D-02  0.24881493D-02  0.16440254D-02
 -0.22721564D-02 -0.22221193D-02 -0.14682482D-02 -0.96839222D-03 -0.52560611D-03
  0.43530201D-03 -0.26801001D-03 -0.14627917D-03  0.13783647D-03 -0.22827336D-04
 -0.11555811D-04  0.10580830D-04 -0.76334250D-03  0.32264422D-03  0.44069828D-03
 -0.20805396D-02  0.19263857D-02  0.93996580D-03  0.33384113D-03 -0.14234220D-03
 -0.19149893D-03  0.81722353D-03 -0.73202535D-03 -0.34745448D-03  0.25414764D-04
 -0.14587145D-04 -0.10827619D-04  0.73974283D-04 -0.67388035D-04 -0.25655055D-04
 -0.12553968D-03 -0.75514981D-04  0.31057052D-04  0.15717756D-03  0.25628981D-03
 -0.20581401D-03  0.21944149D-03 -0.29744871D-04  0.11264285D-03  0.24804498D-04
  0.32832199D-04  0.10452438D-03 -0.88367256D-04 -0.52360312D-04 -0.35452840D-03
  0.32412203D-03 -0.46136286D-04  0.40955249D-04 -0.59020261D-04  0.36872346D-03
  0.41972134D+00  0.78237876D+00  0.13263243D+01  0.20084460D+01  0.25115687D+01
  0.21622267D+01  0.83123889D+00 -0.36018942D-02  0.56236497D-03  0.10560218D-02
  0.17982230D-02  0.28169057D-02  0.37749851D-02  0.40605054D-02  0.24379221D-02
 -0.16032802D-02  0.45884292D-01  0.13874255D-03 -0.27902857D-03  0.44641966D-02
  0.43658868D-02  0.28847260D-02 -0.25441767D-02 -0.24881493D-02 -0.16440254D-02
  0.22721564D-02  0.22221193D-02  0.14682482D-02 -0.96839222D-03  0.52560611D-03
 -0.43530201D-03 -0.26801001D-03  0.14627917D-03 -0.13783647D-03 -0.22827336D-04
  0.11555811D-04 -0.10580830D-04  0.76334250D-03 -0.32264422D-03 -0.44069828D-03
 -0.20805396D-02  0.19263857D-02 -0.93996580D-03 -0.33384113D-03  0.14234221D-03
  0.19149893D-03  0.81722353D-03 -0.73202535D-03  0.34745448D-03 -0.25414764D-04
  0.14587145D-04  0.10827619D-04  0.73974284D-04 -0.67388035D-04  0.25655055D-04
 -0.12553968D-03  0.75514981D-04 -0.31057052D-04  0.15717756D-03 -0.25628981D-03
  0.20581401D-03  0.21944149D-03  0.29744871D-04 -0.11264285D-03  0.24804498D-04
  0.32832199D-04 -0.10452438D-03  0.88367256D-04 -0.52360311D-04  0.35452840D-03
 -0.32412203D-03 -0.46136286D-04 -0.40955249D-04  0.59020260D-04  0.36872346D-03
MO    2     MO 0.0        OCC NO =    2.0000000  ORB. ENERGY =  -24.857940
  0.21685712D-03  0.40408132D-03  0.68340281D-03  0.10291668D-02  0.12741752D-02
  0.10842656D-02  0.41258306D-03 -0.19323025D-05 -0.13646048D-03 -0.25586467D-03
 -0.43530194D-03 -0.67597795D-03 -0.89706206D-03 -0.94538027D-03 -0.58619608D-03
  0.38993786D-03 -0.54656548D-03  0.68518375D-03  0.19470634D-03 -0.11268571D-11
 -0.10823328D-11 -0.75900646D-12 -0.82101671D-03 -0.78857673D-03 -0.55300444D-03
  0.53122001D-03  0.51023047D-03  0.35780883D-03  0.11129494D-11  0.83845756D-03
 -0.54802603D-03  0.22027727D-12  0.19621791D-03 -0.19177758D-03  0.10635453D-13
  0.87609568D-05 -0.17330939D-04  0.24747616D-03 -0.12409729D-03 -0.12337887D-03
  0.56463292D-12 -0.50384622D-12 -0.34032316D-03  0.37155996D-03 -0.24413513D-03
 -0.12742483D-03  0.81121178D-12 -0.83102561D-12 -0.61996667D-03  0.11154493D-04
 -0.10220687D-04 -0.93380537D-06  0.21420326D-13 -0.20447351D-13 -0.18498663D-04
  0.18379430D-13 -0.37586415D-03  0.37351957D-03  0.17079432D-13  0.11709251D-02
 -0.13680194D-02 -0.72217723D-13 -0.43332662D-04  0.24746071D-03 -0.22647796D-11
 -0.13815172D-13 -0.27707230D-04  0.28349789D-04 -0.26320645D-13  0.34551354D-04
 -0.10715566D-03  0.67766161D-13  0.48570337D-04  0.22106294D-04 -0.16703235D-12
 -0.71253239D-01 -0.13281913D+00 -0.22516107D+00 -0.34096022D+00 -0.42637195D+00
 -0.36706653D+00 -0.14111378D+00  0.61146909D-03 -0.12808986D-03 -0.24053006D-03
 -0.40958122D-03 -0.64160655D-03 -0.85982826D-03 -0.92486123D-03 -0.55528547D-03
  0.36517908D-03 -0.78363124D-02 -0.23380320D-04  0.27008719D-04 -0.58902973D-13
 -0.57605821D-13 -0.38062602D-13 -0.10018978D-02 -0.97983417D-03 -0.64741786D-03
 -0.35928263D-03 -0.35137056D-03 -0.23216539D-03  0.58067652D-13  0.35910233D-03
  0.78296890D-04  0.11310605D-13  0.37421758D-04  0.28410589D-04  0.12236044D-14
  0.10388692D-04  0.72221591D-05  0.20628858D-03 -0.22710229D-03  0.20813708D-04
  0.21534236D-12 -0.28240153D-12 -0.24660961D-03 -0.10440888D-03  0.15511694D-03
 -0.50708058D-04 -0.21004784D-14  0.12248575D-12  0.11457507D-03 -0.17258498D-04
  0.14536435D-04  0.27220634D-05 -0.68954435D-14  0.23813969D-13  0.32302884D-04
 -0.77258177D-13 -0.69132621D-04  0.39461497D-04  0.50625126D-12  0.43971865D-03
  0.13806721D-03 -0.27447673D-12 -0.23232079D-03 -0.25645170D-03 -0.56311449D-12
  0.15677332D-13  0.53824925D-04 -0.23027101D-04 -0.16483474D-12 -0.20576880D-03
 -0.52215819D-04  0.11780275D-12  0.44294022D-04  0.12129712D-03  0.28307952D-12
  0.41673160D+00  0.77680575D+00  0.13168767D+01  0.19941395D+01  0.24936784D+01
  0.21468248D+01  0.82531783D+00 -0.35762373D-02  0.52572925D-03  0.98722642D-03
  0.16810763D-02  0.26333961D-02  0.35290606D-02  0.37959805D-02  0.22791017D-02
 -0.14988332D-02  0.45510633D-01  0.13816306D-03 -0.29718356D-03 -0.42873716D-02
 -0.41929558D-02 -0.27704631D-02 -0.25182209D-02 -0.24627650D-02 -0.16272530D-02
  0.22818131D-02  0.22315634D-02  0.14744883D-02  0.78090421D-03  0.49042369D-03
 -0.42752853D-03  0.27038050D-03  0.16618086D-03 -0.13151252D-03  0.15873250D-04
  0.11052224D-04 -0.50743036D-05  0.86853569D-03 -0.37616709D-03 -0.49236860D-03
  0.19292530D-02 -0.18509478D-02 -0.12704816D-02 -0.29391187D-03  0.12161972D-03
  0.17229215D-03 -0.73030425D-03  0.67532446D-03  0.47786087D-03 -0.25233753D-04
  0.99036682D-05  0.15330085D-04 -0.55691332D-04  0.36831623D-04  0.36728547D-04
 -0.10785274D-03 -0.25596096D-06  0.33165987D-05  0.22032659D-03  0.12308605D-03
 -0.20898160D-03  0.10323162D-03 -0.12231816D-03  0.19903181D-03 -0.36281840D-04
  0.37853614D-04 -0.80450316D-04  0.79677251D-04 -0.60530950D-04  0.19337668D-03
 -0.14997293D-03 -0.53029891D-04  0.47974265D-04 -0.89058823D-04 -0.44945018D-03
  0.41673159D+00  0.77680575D+00  0.13168767D+01  0.19941395D+01  0.24936784D+01
  0.21468248D+01  0.82531783D+00 -0.35762373D-02  0.52572925D-03  0.98722641D-03
  0.16810763D-02  0.26333961D-02  0.35290606D-02  0.37959805D-02  0.22791017D-02
 -0.14988332D-02  0.45510633D-01  0.13816306D-03 -0.29718356D-03  0.42873716D-02
  0.41929557D-02  0.27704631D-02 -0.25182209D-02 -0.24627650D-02 -0.16272530D-02
  0.22818131D-02  0.22315634D-02  0.14744883D-02 -0.78090421D-03  0.49042369D-03
 -0.42752853D-03 -0.27038050D-03  0.16618086D-03 -0.13151252D-03 -0.15873250D-04
  0.11052224D-04 -0.50743036D-05  0.86853569D-03 -0.37616709D-03 -0.49236860D-03
 -0.19292530D-02  0.18509478D-02 -0.12704816D-02 -0.29391187D-03  0.12161972D-03
  0.17229215D-03  0.73030424D-03 -0.67532446D-03  0.47786087D-03 -0.25233753D-04
  0.99036682D-05  0.15330085D-04  0.55691332D-04 -0.36831622D-04  0.36728547D-04
  0.10785274D-03 -0.25596109D-06  0.33165988D-05 -0.22032659D-03  0.12308605D-03
 -0.20898160D-03 -0.10323162D-03 -0.12231816D-03  0.19903181D-03  0.36281840D-04
 -0.37853614D-04 -0.80450316D-04  0.79677251D-04  0.60530950D-04  0.19337668D-03
 -0.14997293D-03  0.53029891D-04  0.47974265D-04 -0.89058823D-04  0.44945018D-03
MO    3     MO 0.0        OCC NO =    2.0000000  ORB. ENERGY =  -24.857898
  0.19602050D-03  0.36525534D-03  0.61773835D-03  0.93027972D-03  0.11517466D-02
  0.98008441D-03  0.37294020D-03 -0.17466381D-05 -0.12331593D-03 -0.23121852D-03
 -0.39337150D-03 -0.61086441D-03 -0.81065260D-03 -0.85431656D-03 -0.52973077D-03
  0.35237711D-03 -0.49476722D-03  0.62030366D-03  0.17633587D-03  0.38664023D-13
  0.37136332D-13  0.26042559D-13  0.90647181D-03  0.87065534D-03  0.61056362D-03
  0.48089265D-03  0.46189164D-03  0.32391030D-03 -0.43686440D-13 -0.92505594D-03
 -0.49562977D-03 -0.14793203D-13 -0.21640792D-03 -0.17358287D-03 -0.54800359D-15
 -0.96695485D-05 -0.15696754D-04 -0.14847108D-03  0.25965336D-03 -0.11118228D-03
 -0.10908932D-13  0.11716533D-13  0.37432599D-03 -0.28266051D-03  0.39822694D-03
 -0.11556643D-03 -0.32981450D-13  0.31197596D-13  0.68406807D-03 -0.11406996D-04
  0.12269029D-04 -0.86203296D-06 -0.19325232D-14  0.14055285D-14  0.20369086D-04
 -0.43739732D-16 -0.36221085D-03  0.33816518D-03 -0.38995156D-15  0.10385208D-02
  0.38526454D-03  0.52117075D-15  0.48111784D-04 -0.13997601D-02  0.70331514D-13
  0.90239814D-15 -0.70568515D-06  0.25694606D-04 -0.59484189D-15  0.55706575D-04
  0.33043698D-04 -0.21123525D-14 -0.53589520D-04 -0.11012752D-03  0.73057667D-14
  0.58932235D+00  0.10985224D+01  0.18622655D+01  0.28200189D+01  0.35264435D+01
  0.30359393D+01  0.11671259D+01 -0.50573477D-02  0.76005391D-03  0.14272466D-02
  0.24303549D-02  0.38071365D-02  0.51020108D-02  0.54879005D-02  0.32949283D-02
 -0.21668835D-02  0.64382440D-01  0.19577314D-03 -0.40991565D-03  0.16646288D-14
  0.16279706D-14  0.10756690D-14  0.70944617D-02  0.69382286D-02  0.45843810D-02
  0.32109999D-02  0.31402878D-02  0.20749209D-02 -0.13683769D-14 -0.13898974D-02
 -0.60646263D-03 -0.80594795D-15 -0.44121401D-03 -0.18852818D-03 -0.24779224D-15
 -0.30344533D-04 -0.99354089D-05 -0.12956595D-02  0.19640266D-02 -0.66836716D-03
 -0.19009932D-14  0.86093031D-14  0.31051466D-02  0.49262656D-03 -0.74526963D-03
  0.25264307D-03 -0.15648905D-14 -0.38332559D-14 -0.11530957D-02  0.41321104D-04
 -0.60693871D-04  0.19372768D-04 -0.20256436D-15 -0.42514618D-15 -0.81378718D-04
  0.11638903D-14 -0.16625889D-05 -0.12674956D-04 -0.91072697D-14 -0.57419747D-04
  0.90404901D-04  0.56155988D-14  0.62407513D-04 -0.52380033D-04  0.14451026D-13
  0.23772886D-16 -0.12243223D-03  0.11670053D-03  0.24090729D-14  0.35708677D-03
  0.14383678D-03 -0.24803915D-14  0.10209916D-04 -0.49393837D-03 -0.80191302D-14
  0.50463529D-01  0.94066204D-01  0.15946534D+00  0.24147752D+00  0.30196849D+00
  0.25996674D+00  0.99940707D-01 -0.43305944D-03  0.38033436D-04  0.71420057D-04
  0.12161604D-03  0.19051081D-03  0.25530689D-03  0.27461699D-03  0.16487968D-03
 -0.10843181D-03  0.54742279D-02  0.16920260D-04 -0.51937584D-04 -0.45277925D-03
 -0.44280821D-03 -0.29258211D-03 -0.21599828D-03 -0.21124160D-03 -0.13957626D-03
  0.29675971D-03  0.29022452D-03  0.19176361D-03 -0.15701644D-05 -0.44495744D-04
 -0.48203651D-04  0.47864746D-04  0.16350162D-04 -0.11978895D-04 -0.11970018D-05
 -0.27685162D-05  0.36437837D-05  0.59326486D-04  0.42772513D-04 -0.10209900D-03
  0.27868136D-03 -0.40984521D-03 -0.14422615D-04 -0.11958345D-04  0.53456893D-05
  0.66126556D-05 -0.17660588D-04  0.14357722D-03 -0.14064583D-04 -0.36576055D-07
 -0.53860796D-05  0.54226556D-05  0.36638546D-05 -0.10582243D-05 -0.17738633D-04
  0.77374097D-04 -0.15068813D-03  0.27233044D-04 -0.28562159D-03  0.21996220D-03
  0.39893874D-04  0.53499294D-04  0.23210221D-03 -0.12159301D-03 -0.46225816D-03
 -0.28994701D-04  0.48040535D-04  0.33409373D-05  0.79581332D-04 -0.61658514D-04
 -0.82973841D-04  0.74027717D-05 -0.82463092D-04  0.72951029D-04  0.10996635D-03
  0.50463529D-01  0.94066204D-01  0.15946534D+00  0.24147752D+00  0.30196849D+00
  0.25996674D+00  0.99940707D-01 -0.43305944D-03  0.38033436D-04  0.71420057D-04
  0.12161604D-03  0.19051081D-03  0.25530689D-03  0.27461699D-03  0.16487968D-03
 -0.10843181D-03  0.54742279D-02  0.16920260D-04 -0.51937584D-04  0.45277925D-03
  0.44280821D-03  0.29258211D-03 -0.21599828D-03 -0.21124160D-03 -0.13957626D-03
  0.29675971D-03  0.29022452D-03  0.19176361D-03  0.15701643D-05 -0.44495744D-04
 -0.48203651D-04 -0.47864746D-04  0.16350162D-04 -0.11978895D-04  0.11970018D-05
 -0.27685162D-05  0.36437837D-05  0.59326486D-04  0.42772513D-04 -0.10209900D-03
 -0.27868136D-03  0.40984521D-03 -0.14422615D-04 -0.11958345D-04  0.53456893D-05
  0.66126556D-05  0.17660588D-04 -0.14357722D-03 -0.14064583D-04 -0.36576061D-07
 -0.53860796D-05  0.54226556D-05 -0.36638545D-05  0.10582242D-05 -0.17738633D-04
 -0.77374097D-04 -0.15068813D-03  0.27233044D-04  0.28562159D-03  0.21996220D-03
  0.39893874D-04 -0.53499294D-04  0.23210221D-03 -0.12159301D-03  0.46225816D-03
  0.28994701D-04  0.48040535D-04  0.33409373D-05 -0.79581332D-04 -0.61658514D-04
 -0.82973841D-04 -0.74027717D-05 -0.82463092D-04  0.72951029D-04 -0.10996635D-03
MO    4     MO 0.0        OCC NO =    2.0000000  ORB. ENERGY =  -14.691604
  0.41122693D+00  0.76626084D+00  0.12959392D+01  0.19516126D+01  0.24162230D+01
  0.20560967D+01  0.78238273D+00 -0.36642321D-02 -0.61534418D-03 -0.11537761D-02
 -0.19629164D-02 -0.30482019D-02 -0.40451412D-02 -0.42630236D-02 -0.26433466D-02
  0.17583552D-02  0.42361484D-01 -0.38456925D-02 -0.50232708D-03 -0.12254668D-14
 -0.11770463D-14 -0.82542608D-15  0.23026061D-05  0.22116257D-05  0.15509446D-05
 -0.12354554D-01 -0.11866402D-01 -0.83215400D-02  0.12546206D-14  0.17079689D-05
  0.11921002D-02  0.27487674D-14 -0.94146354D-07  0.13775197D-02  0.73918180D-16
 -0.10150386D-07  0.32613895D-04  0.79213622D-03  0.79305048D-03 -0.15851867D-02
 -0.12184316D-14  0.60604687D-15 -0.33250497D-05 -0.26389116D-03 -0.26549736D-03
  0.52938852D-03  0.17424376D-14 -0.10747766D-14  0.12988030D-07 -0.17197588D-04
 -0.17287600D-04  0.34485188D-04  0.42120168D-15 -0.40917485D-15  0.12721143D-06
  0.15027642D-15 -0.23462555D-03  0.25812093D-03 -0.20138004D-15  0.70386794D-03
 -0.38803083D-03 -0.24944923D-15  0.86971034D-08 -0.38633197D-03 -0.84187117D-15
  0.11708103D-15  0.24474504D-03 -0.25350508D-03 -0.37729829D-16 -0.73410437D-03
  0.38002934D-03 -0.31351325D-15 -0.13076338D-06  0.38048589D-03 -0.35026334D-15
 -0.38941473D-04 -0.72588594D-04 -0.12305551D-03 -0.18634231D-03 -0.23302171D-03
 -0.20060999D-03 -0.77121804D-04  0.33418140D-06  0.14591644D-04  0.27400523D-04
  0.46658364D-04  0.73090052D-04  0.97949268D-04  0.10535764D-03  0.63256591D-04
 -0.41600196D-04 -0.11515411D-03  0.20341808D-02  0.43255139D-03 -0.40598189D-15
 -0.39704142D-15 -0.26234206D-15 -0.28023560D-03 -0.27406429D-03 -0.18108587D-03
 -0.33450577D-03 -0.32713934D-03 -0.21615479D-03  0.34911062D-15  0.11346183D-02
  0.81148788D-03 -0.26672713D-15  0.83352634D-03  0.24831266D-03  0.18423120D-16
  0.97682775D-05 -0.41460189D-05 -0.87967705D-03  0.11612645D-02 -0.28158746D-03
 -0.93299640D-15  0.57483715D-17  0.16904251D-02 -0.38858693D-04  0.39667824D-04
 -0.80913079D-06  0.55129396D-15  0.31809941D-16  0.34839582D-03  0.97979709D-05
 -0.32816219D-07 -0.97651547D-05 -0.19085509D-15  0.34197095D-16 -0.94977364D-04
 -0.11026652D-16  0.67547458D-03 -0.67904122D-03  0.76917526D-16 -0.19808710D-02
 -0.93916449D-03 -0.43837569D-16 -0.45552754D-04  0.29762882D-02 -0.10774764D-15
 -0.43871198D-16 -0.30060866D-03  0.29695876D-03  0.10999273D-15  0.90523653D-03
  0.38020746D-03  0.21620863D-16 -0.34105524D-05 -0.12710838D-02  0.19879107D-15
 -0.38320534D-04 -0.71431136D-04 -0.12109334D-03 -0.18337100D-03 -0.22930608D-03
 -0.19741117D-03 -0.75892062D-04  0.32885273D-06  0.14134637D-04  0.26542345D-04
  0.45197036D-04  0.70800890D-04  0.94881522D-04  0.10205787D-03  0.61275411D-04
 -0.40297288D-04 -0.11490191D-03  0.20334441D-02  0.43193328D-03  0.24146636D-03
  0.23614882D-03  0.15603351D-03  0.13899747D-03  0.13593649D-03  0.89818984D-04
 -0.33328079D-03 -0.32594133D-03 -0.21536322D-03 -0.98254813D-03 -0.56730695D-03
  0.81134850D-03 -0.72031815D-03 -0.41606906D-03  0.24760923D-03 -0.83728713D-05
 -0.48261332D-05 -0.41677891D-05  0.65102668D-03 -0.36948291D-03 -0.28154377D-03
  0.17725681D-02 -0.14686942D-02 -0.84836941D-03  0.19768333D-04 -0.19030836D-04
 -0.73749695D-06  0.65756810D-04 -0.29939622D-03 -0.17299808D-03  0.20949323D-05
  0.74746370D-05 -0.95695694D-05 -0.91705741D-05  0.82806349D-04  0.47785160D-04
 -0.94632529D-05  0.65811952D-03 -0.67878839D-03 -0.10806768D-04 -0.19974343D-02
  0.19961770D-02  0.39196527D-04  0.23075699D-04  0.40188115D-04  0.33922513D-02
 -0.11116784D-05 -0.30230430D-03  0.29735256D-03 -0.74985525D-07  0.90521680D-03
 -0.85921519D-03  0.34100207D-05  0.16961072D-05 -0.32842491D-04 -0.14332006D-02
 -0.38320534D-04 -0.71431136D-04 -0.12109334D-03 -0.18337100D-03 -0.22930608D-03
 -0.19741117D-03 -0.75892062D-04  0.32885273D-06  0.14134637D-04  0.26542345D-04
  0.45197036D-04  0.70800890D-04  0.94881522D-04  0.10205787D-03  0.61275411D-04
 -0.40297288D-04 -0.11490191D-03  0.20334441D-02  0.43193328D-03 -0.24146636D-03
 -0.23614882D-03 -0.15603351D-03  0.13899747D-03  0.13593649D-03  0.89818984D-04
 -0.33328079D-03 -0.32594133D-03 -0.21536322D-03  0.98254813D-03 -0.56730695D-03
  0.81134850D-03  0.72031815D-03 -0.41606906D-03  0.24760923D-03  0.83728713D-05
 -0.48261332D-05 -0.41677891D-05  0.65102668D-03 -0.36948291D-03 -0.28154377D-03
 -0.17725681D-02  0.14686942D-02 -0.84836941D-03  0.19768333D-04 -0.19030836D-04
 -0.73749695D-06 -0.65756810D-04  0.29939622D-03 -0.17299808D-03  0.20949323D-05
  0.74746370D-05 -0.95695694D-05  0.91705741D-05 -0.82806349D-04  0.47785160D-04
  0.94632529D-05  0.65811952D-03 -0.67878839D-03  0.10806768D-04 -0.19974343D-02
  0.19961770D-02 -0.39196527D-04  0.23075699D-04  0.40188115D-04 -0.33922513D-02
  0.11116784D-05 -0.30230430D-03  0.29735256D-03  0.74985525D-07  0.90521680D-03
 -0.85921519D-03 -0.34100207D-05  0.16961072D-05 -0.32842491D-04  0.14332006D-02
MO    5     MO 0.0        OCC NO =    2.0000000  ORB. ENERGY =   -1.423731
 -0.46819596D-02 -0.87241423D-02 -0.14754712D-01 -0.22219778D-01 -0.27509527D-01
 -0.23409366D-01 -0.89076955D-02  0.41718538D-04 -0.39200603D-01 -0.73501498D-01
 -0.12504792D+00 -0.19418621D+00 -0.25769640D+00 -0.27157663D+00 -0.16839483D+00
  0.11201631D+00  0.57753506D-01  0.30140500D-02 -0.11865105D-02 -0.23710255D-13
 -0.22773416D-13 -0.15970291D-13  0.26232333D-03  0.25195843D-03  0.17669064D-03
 -0.17817603D+00 -0.17113595D+00 -0.12001234D+00  0.52660684D-13  0.56330079D-04
 -0.46009904D-01  0.54292804D-13 -0.14577974D-05  0.25591226D-02  0.70611911D-14
 -0.72872186D-07  0.15467394D-03  0.33170182D-02  0.32915546D-02 -0.66085728D-02
 -0.37453692D-13  0.17335115D-13 -0.68351009D-04  0.75356982D-03  0.75277901D-03
 -0.15063488D-02  0.67588683D-13 -0.50169410D-13 -0.15323274D-04  0.12928363D-03
  0.12981122D-03 -0.25909485D-03  0.11401533D-13 -0.12987283D-13  0.23192281D-06
  0.17404847D-14 -0.48686970D-02  0.61124857D-02  0.54860765D-15  0.14603322D-01
 -0.91710489D-02 -0.57700618D-14  0.27690056D-05 -0.91664082D-02 -0.40296073D-13
 -0.49158163D-14 -0.30440718D-03  0.49309385D-03  0.63991889D-14  0.91151666D-03
 -0.73960467D-03  0.83482601D-14  0.17048803D-05 -0.73967687D-03 -0.29821967D-13
 -0.41155184D-02 -0.76715045D-02 -0.13005086D-01 -0.19693533D-01 -0.24626833D-01
 -0.21201409D-01 -0.81505956D-02  0.35317865D-04 -0.60231808D-01 -0.11310467D+00
 -0.19259774D+00 -0.30170322D+00 -0.40431781D+00 -0.43489832D+00 -0.26111238D+00
  0.17171849D+00  0.10030743D+00  0.46837102D-01  0.14467311D-02 -0.15568786D-14
 -0.15225932D-14 -0.10060417D-14  0.25681573D+00  0.25116018D+00  0.16595215D+00
  0.92454324D-01  0.90418309D-01  0.59743200D-01  0.34949714D-14  0.60748864D-01
  0.22116070D-01  0.10070826D-14  0.79789971D-02  0.19396146D-02 -0.20925245D-14
 -0.26831434D-04 -0.95949651D-04 -0.14539836D-01  0.23718988D-01 -0.91791525D-02
 -0.21235905D-13 -0.10436903D-14  0.31626166D-01 -0.54100551D-02  0.93150224D-02
 -0.39049673D-02  0.15703904D-13  0.63067299D-15  0.11649025D-01 -0.55263229D-03
  0.87473275D-03 -0.32210046D-03 -0.16270953D-14  0.32054701D-14  0.50481769D-03
  0.79051552D-15  0.39905937D-02 -0.30055686D-02 -0.62272436D-14 -0.77166225D-02
 -0.42079689D-02  0.38556970D-14 -0.42551585D-02  0.13224675D-01 -0.22575349D-13
 -0.15844775D-14  0.10907355D-02 -0.76195707D-03  0.67880343D-14 -0.27720535D-02
 -0.63008282D-03 -0.20346018D-14 -0.50015303D-03  0.29159540D-02  0.14867200D-13