 Molden2AIM, Version 4.0.0 (06/02/2016)           Time: Fri Jun 29 20:15:09 2018
GAUSSIAN              4 MOL ORBITALS    129 PRIMITIVES        3 NUCLEI
  N    1    (CENTRE  1)   0.00000000  0.00000000 -0.14174269  CHARGE =  7.0
  H    2    (CENTRE  2)  -1.60671885  0.00000000  1.05159290  CHARGE =  1.0
  H    3    (CENTRE  3)   1.60671885  0.00000000  1.05159290  CHARGE =  1.0
CENTRE ASSIGNMENTS    1  1  1  1  1  1  1  1  1  1  1  1  1  1  1  1  1  1  1  1
CENTRE ASSIGNMENTS    1  1  1  1  1  1  1  1  1  1  1  1  1  1  1  1  1  1  1  1
CENTRE ASSIGNMENTS    1  1  1  1  1  1  1  1  1  1  1  1  1  1  1  1  1  1  1  1
CENTRE ASSIGNMENTS    1  1  1  1  1  1  1  1  1  1  1  1  1  1  1  2  2  2  2  2
CENTRE ASSIGNMENTS    2  2  2  2  2  2  2  2  2  2  2  2  2  2  2  2  2  2  2  2
CENTRE ASSIGNMENTS    2  2  3  3  3  3  3  3  3  3  3  3  3  3  3  3  3  3  3  3
CENTRE ASSIGNMENTS    3  3  3  3  3  3  3  3  3
TYPE ASSIGNMENTS      1  1  1  1  1  1  1  1  1  1  1  1  1  1  1  1  1  1  1  2
TYPE ASSIGNMENTS      2  2  3  3  3  4  4  4  2  3  4  2  3  4  2  3  4  5  6  7
TYPE ASSIGNMENTS      8  9 10  5  6  7  8  9 10  5  6  7  8  9 10 11 12 13 17 14
TYPE ASSIGNMENTS     15 18 19 16 20 11 12 13 17 14 15 18 19 16 20  1  1  1  1  1
TYPE ASSIGNMENTS      1  2  3  4  2  3  4  2  3  4  5  6  7  8  9 10  5  6  7  8
TYPE ASSIGNMENTS      9 10  1  1  1  1  1  1  2  3  4  2  3  4  2  3  4  5  6  7
TYPE ASSIGNMENTS      8  9 10  5  6  7  8  9 10
EXPONENTS  0.1142000D+05 0.1712000D+04 0.3893000D+03 0.1100000D+03 0.3557000D+02
EXPONENTS  0.1254000D+02 0.4644000D+01 0.5118000D+00 0.1142000D+05 0.1712000D+04
EXPONENTS  0.3893000D+03 0.1100000D+03 0.3557000D+02 0.1254000D+02 0.4644000D+01
EXPONENTS  0.5118000D+00 0.1293000D+01 0.1787000D+00 0.5760000D-01 0.2663000D+02
EXPONENTS  0.5948000D+01 0.1742000D+01 0.2663000D+02 0.5948000D+01 0.1742000D+01
EXPONENTS  0.2663000D+02 0.5948000D+01 0.1742000D+01 0.5550000D+00 0.5550000D+00
EXPONENTS  0.5550000D+00 0.1725000D+00 0.1725000D+00 0.1725000D+00 0.4910000D-01
EXPONENTS  0.4910000D-01 0.4910000D-01 0.1654000D+01 0.1654000D+01 0.1654000D+01
EXPONENTS  0.1654000D+01 0.1654000D+01 0.1654000D+01 0.4690000D+00 0.4690000D+00
EXPONENTS  0.4690000D+00 0.4690000D+00 0.4690000D+00 0.4690000D+00 0.1510000D+00
EXPONENTS  0.1510000D+00 0.1510000D+00 0.1510000D+00 0.1510000D+00 0.1510000D+00
EXPONENTS  0.1093000D+01 0.1093000D+01 0.1093000D+01 0.1093000D+01 0.1093000D+01
EXPONENTS  0.1093000D+01 0.1093000D+01 0.1093000D+01 0.1093000D+01 0.1093000D+01
EXPONENTS  0.3640000D+00 0.3640000D+00 0.3640000D+00 0.3640000D+00 0.3640000D+00
EXPONENTS  0.3640000D+00 0.3640000D+00 0.3640000D+00 0.3640000D+00 0.3640000D+00
EXPONENTS  0.3387000D+02 0.5095000D+01 0.1159000D+01 0.3258000D+00 0.1027000D+00
EXPONENTS  0.2526000D-01 0.1407000D+01 0.1407000D+01 0.1407000D+01 0.3880000D+00
EXPONENTS  0.3880000D+00 0.3880000D+00 0.1020000D+00 0.1020000D+00 0.1020000D+00
EXPONENTS  0.1057000D+01 0.1057000D+01 0.1057000D+01 0.1057000D+01 0.1057000D+01
EXPONENTS  0.1057000D+01 0.2470000D+00 0.2470000D+00 0.2470000D+00 0.2470000D+00
EXPONENTS  0.2470000D+00 0.2470000D+00 0.3387000D+02 0.5095000D+01 0.1159000D+01
EXPONENTS  0.3258000D+00 0.1027000D+00 0.2526000D-01 0.1407000D+01 0.1407000D+01
EXPONENTS  0.1407000D+01 0.3880000D+00 0.3880000D+00 0.3880000D+00 0.1020000D+00
EXPONENTS  0.1020000D+00 0.1020000D+00 0.1057000D+01 0.1057000D+01 0.1057000D+01
EXPONENTS  0.1057000D+01 0.1057000D+01 0.1057000D+01 0.2470000D+00 0.2470000D+00
EXPONENTS  0.2470000D+00 0.2470000D+00 0.2470000D+00 0.2470000D+00
MO    1     MO 0.0        OCC NO =    2.0000000  ORB. ENERGY =  -14.935201
  0.41071199D+00  0.76530132D+00  0.12943164D+01  0.19491688D+01  0.24131974D+01
  0.20535221D+01  0.78140303D+00 -0.36596437D-02 -0.32027927D-03 -0.60052663D-03
 -0.10216745D-02 -0.15865526D-02 -0.21054476D-02 -0.22188527D-02 -0.13758302D-02
  0.91520280D-03  0.42216478D-01  0.19674832D-02  0.13315863D-03  0.26628135D-14
  0.25576005D-14  0.17935660D-14 -0.29583579D-18 -0.28414674D-18 -0.19926331D-18
  0.67121075D-02  0.64468990D-02  0.45210106D-02 -0.49747477D-14  0.41514783D-18
  0.12244217D-02 -0.42528034D-14 -0.39727023D-19  0.52162288D-04 -0.21813521D-15
 -0.28797645D-20  0.42056225D-06  0.20481270D-02 -0.20406447D-02 -0.74822479D-05
  0.17041398D-18  0.65433005D-15  0.60187450D-19  0.14304359D-03 -0.17903381D-03
  0.35990227D-04  0.21778544D-18 -0.49718694D-14  0.10277000D-18 -0.25024189D-04
  0.33417174D-04 -0.83929844D-05  0.98803250D-20 -0.70820244D-15 -0.89594435D-20
  0.12876135D-16  0.23128725D-19 -0.52849630D-03  0.14043912D-14 -0.92541987D-19
  0.29207554D-02 -0.14430196D-14  0.23155814D-19 -0.13352665D-02  0.22523403D-18
  0.15046662D-16 -0.13089213D-19  0.78265485D-04  0.41676767D-15  0.35030443D-19
 -0.38956286D-03 -0.46190766D-15  0.42371969D-20  0.15476641D-03  0.52852106D-19
  0.17209892D-03  0.31038750D-03  0.45766618D-03 -0.73647843D-03 -0.42896779D-03
 -0.67650238D-05 -0.64856763D-03  0.13414052D-19  0.33978758D-03 -0.95788586D-03
 -0.15165175D-19  0.73503148D-03 -0.10761274D-03  0.24726187D-19  0.99653870D-04
 -0.10656283D-02  0.11580815D-02 -0.92453139D-04 -0.26840080D-18  0.32761023D-02
  0.13190912D-18 -0.37315586D-04  0.63302604D-04 -0.25987018D-04  0.15063986D-19
  0.17320529D-03 -0.87983351D-20  0.17209892D-03  0.31038750D-03  0.45766618D-03
 -0.73647843D-03 -0.42896779D-03 -0.67650238D-05  0.64856763D-03  0.62720031D-20
  0.33978758D-03  0.95788586D-03 -0.16872133D-18  0.73503148D-03  0.10761274D-03
  0.34887436D-20  0.99653870D-04 -0.10656283D-02  0.11580815D-02 -0.92453139D-04
  0.27408812D-18 -0.32761023D-02  0.22758267D-18 -0.37315586D-04  0.63302604D-04
 -0.25987018D-04  0.27170130D-19 -0.17320529D-03  0.34177320D-19
MO    2     MO 0.0        OCC NO =    2.0000000  ORB. ENERGY =   -1.284404
 -0.57396007D-02 -0.10694901D-01 -0.18087758D-01 -0.27239162D-01 -0.33723850D-01
 -0.28697474D-01 -0.10919918D-01  0.51142636D-04 -0.79832869D-01 -0.14968738D+00
 -0.25466276D+00 -0.39546438D+00 -0.52480424D+00 -0.55307163D+00 -0.34293969D+00
  0.22812362D+00  0.12461560D+00  0.52593270D-01  0.23974414D-02 -0.79985722D-14
 -0.76825330D-14 -0.53875224D-14  0.32588594D-16  0.31300955D-16  0.21950390D-16
  0.25285144D+00  0.24286078D+00  0.17031074D+00  0.18351551D-13  0.17320420D-16
  0.64507413D-01  0.16750171D-13  0.10095201D-18  0.62329655D-02  0.17066822D-14
  0.27569943D-18  0.14004260D-03  0.86327531D-02 -0.94187686D-02  0.78601556D-03
  0.35481832D-18 -0.22694714D-15  0.12659126D-16  0.28742539D-02 -0.35303650D-02
  0.65611115D-03  0.93488695D-17  0.16858839D-13  0.71500689D-18  0.29066759D-03
 -0.29567233D-03  0.50047340D-05  0.79996768D-18  0.30787486D-14  0.95486554D-18
 -0.35798833D-16  0.15384586D-17 -0.19279497D-02 -0.48590814D-14  0.29169060D-18
  0.83112239D-02  0.49664779D-14 -0.49070664D-17 -0.25273749D-02  0.39596452D-17
 -0.13148386D-16 -0.14159309D-19 -0.32594877D-03 -0.14826483D-14 -0.24822883D-17
  0.19489168D-02  0.15220935D-14  0.25247663D-17 -0.97107049D-03  0.45091037D-17
  0.23561820D-01  0.42494713D-01  0.62658429D-01  0.25034170D-01 -0.33882454D-02
 -0.91788102D-04  0.22348804D-01  0.26218915D-17 -0.13592364D-01  0.63727198D-02
  0.84194003D-17 -0.30222894D-02 -0.40347475D-03  0.92018931D-19  0.41607386D-03
  0.34516932D-02 -0.25166696D-02 -0.93502361D-03  0.44499120D-17 -0.96774686D-02
 -0.79643488D-17  0.14994798D-03 -0.11829961D-03 -0.31648371D-04  0.10319409D-18
 -0.32339491D-03 -0.37818834D-17  0.23561820D-01  0.42494713D-01  0.62658429D-01
  0.25034170D-01 -0.33882454D-02 -0.91788102D-04 -0.22348804D-01  0.63382717D-18
 -0.13592364D-01 -0.63727198D-02 -0.49744016D-17 -0.30222894D-02  0.40347475D-03
 -0.55990279D-18  0.41607386D-03  0.34516932D-02 -0.25166696D-02 -0.93502361D-03
  0.30893458D-17  0.96774686D-02  0.72975871D-17  0.14994798D-03 -0.11829961D-03
 -0.31648371D-04  0.78917698D-18  0.32339491D-03  0.30226548D-19
MO    3     MO 0.0        OCC NO =    2.0000000  ORB. ENERGY =   -0.902396
 -0.43551734D-15 -0.81152244D-15 -0.13724879D-14 -0.20668907D-14 -0.25589448D-14
 -0.21775465D-14 -0.82859663D-15  0.38806715D-17  0.22355020D-15  0.41915871D-15
  0.71311368D-15  0.11073902D-14  0.14695713D-14  0.15487264D-14  0.96030916D-15
 -0.63879802D-15 -0.14131028D-14  0.49094436D-13  0.14996219D-13  0.10394160D+01
  0.99834662D+00  0.70010956D+00 -0.15262442D-15 -0.14659393D-15 -0.10280178D-15
 -0.54918458D-14 -0.52748522D-14 -0.36990905D-14  0.24141329D+00 -0.20643801D-16
  0.10937017D-13  0.25076774D-01 -0.87729470D-16  0.13537988D-13  0.22996253D-03
  0.19622576D-16  0.86599250D-15 -0.15169661D-14  0.18911323D-14 -0.37416620D-15
 -0.69182417D-16  0.10239866D+00 -0.41260157D-15  0.54843943D-14 -0.55737093D-14
  0.89314902D-16 -0.17595097D-15  0.22924865D-01  0.48708168D-16  0.65806102D-15
 -0.90630546D-15  0.24824444D-15  0.15267828D-16  0.10156486D-02  0.17750850D-16
 -0.28035446D-03  0.30743229D-15 -0.70757178D-15  0.87757237D-02 -0.96127866D-15
  0.27156471D-14 -0.79346603D-02  0.38981790D-16 -0.59293175D-15  0.19809276D-14
 -0.56179874D-03 -0.21649885D-16 -0.43013382D-15 -0.42272039D-03  0.62428611D-16
  0.27144033D-14  0.21081166D-02  0.25210437D-17 -0.14240018D-14 -0.10102814D-15
 -0.35722401D-01 -0.64426822D-01 -0.94997311D-01 -0.60050032D-01  0.18926298D-02
  0.20749829D-03 -0.20388259D-01  0.17076233D-15  0.24205436D-01 -0.59256707D-02
  0.55526688D-16  0.11069881D-01  0.11369059D-02 -0.13764855D-16 -0.36127110D-03
 -0.20902851D-02  0.49311415D-02 -0.28408564D-02  0.42416090D-15  0.18290828D-01
 -0.39596756D-15  0.47981752D-03 -0.71927862D-04 -0.40788966D-03 -0.11794286D-16
  0.56936774D-03  0.61125115D-17  0.35722401D-01  0.64426822D-01  0.94997311D-01
  0.60050032D-01 -0.18926298D-02 -0.20749829D-03 -0.20388259D-01 -0.17523592D-15
 -0.24205436D-01 -0.59256707D-02  0.62755923D-16 -0.11069881D-01  0.11369059D-02
  0.91554904D-17  0.36127110D-03  0.20902851D-02 -0.49311415D-02  0.28408564D-02
  0.24964684D-15  0.18290828D-01  0.14842534D-15 -0.47981752D-03  0.71927862D-04
  0.40788966D-03 -0.20018708D-16  0.56936774D-03 -0.43973019D-16
MO    4     MO 0.0        OCC NO =    2.0000000  ORB. ENERGY =   -0.755488
 -0.16511724D-02 -0.30767166D-02 -0.52034991D-02 -0.78361814D-02 -0.97017009D-02
 -0.82557096D-02 -0.31414498D-02  0.14712750D-04  0.35816568D-01  0.67156399D-01
  0.11425302D+00  0.17742287D+00  0.23545047D+00  0.24813247D+00  0.15385796D+00
 -0.10234638D+00 -0.58121807D-01 -0.58539022D-01 -0.24991293D-02  0.25152392D-14
  0.24158572D-14  0.16941658D-14 -0.58617893D-15 -0.56301786D-15 -0.39482698D-15
  0.11441279D+01  0.10989211D+01  0.77063935D+00 -0.44139808D-14 -0.28644837D-15
  0.27765707D+00 -0.14936517D-13 -0.45372580D-16  0.28841132D-01 -0.14511783D-14
 -0.66051784D-18  0.73983300D-04 -0.32806980D-02 -0.36819234D-01  0.40099932D-01
 -0.26652910D-16  0.28833082D-14 -0.13127298D-16 -0.47397534D-02 -0.51463689D-02
  0.98861223D-02  0.30208215D-16 -0.50314860D-14 -0.10415074D-16 -0.95394986D-03
  0.27594719D-03  0.67800266D-03 -0.33136375D-18 -0.12127680D-14 -0.38599448D-17
 -0.21847254D-15 -0.77501528D-17 -0.53148202D-02 -0.49220102D-15  0.17958756D-16
  0.40191503D-02  0.11476186D-14  0.52917025D-17  0.11925310D-01  0.85351603D-17
 -0.72590497D-15  0.23161635D-17  0.14687008D-03  0.12106166D-14 -0.12434789D-16
 -0.19409480D-02  0.96709828D-15  0.54862989D-17  0.15003378D-02  0.68922219D-17
  0.19299819D-01  0.34808019D-01  0.51324403D-01  0.46847039D-01  0.62079723D-02
  0.32709977D-04  0.18727446D-01 -0.11620499D-16  0.37706824D-02  0.10420082D-01
  0.29474557D-16  0.34685342D-02  0.21381148D-03  0.73312081D-17 -0.65790159D-05
  0.67645832D-02 -0.15418788D-02 -0.52227044D-02 -0.45855693D-17 -0.21062290D-02
 -0.11587044D-16  0.10926468D-03  0.38818067D-03 -0.49744535D-03  0.11214692D-16
  0.15346796D-02 -0.17996663D-16  0.19299819D-01  0.34808019D-01  0.51324403D-01
  0.46847039D-01  0.62079723D-02  0.32709977D-04 -0.18727446D-01 -0.15007797D-16
  0.37706824D-02 -0.10420082D-01 -0.16404815D-17  0.34685342D-02 -0.21381148D-03
  0.99731207D-17 -0.65790159D-05  0.67645832D-02 -0.15418788D-02 -0.52227044D-02
  0.23413822D-16  0.21062290D-02  0.10835979D-16  0.10926468D-03  0.38818067D-03
 -0.49744535D-03  0.86840821D-18 -0.15346796D-02 -0.67660403D-17
END DATA
RHF
