 Molden2AIM, Version 4.0.0 (06/02/2016)           Time: Fri Jun 29 19:59:37 2018
GAUSSIAN             21 MOL ORBITALS    375 PRIMITIVES        5 NUCLEI
  O    1    (CENTRE  1)   0.00009071  0.00000000 -2.57284511  CHARGE =  8.0
  N    2    (CENTRE  2)  -0.00003024  0.00000000 -0.38384495  CHARGE =  7.0
  F    3    (CENTRE  3)  -1.19096587  2.06192553  0.84746280  CHARGE =  9.0
  F    4    (CENTRE  4)  -1.19096587 -2.06192553  0.84746280  CHARGE =  9.0
  F    5    (CENTRE  5)   2.38187128  0.00000000  0.84734753  CHARGE =  9.0
CENTRE ASSIGNMENTS    1  1  1  1  1  1  1  1  1  1  1  1  1  1  1  1  1  1  1  1
CENTRE ASSIGNMENTS    1  1  1  1  1  1  1  1  1  1  1  1  1  1  1  1  1  1  1  1
CENTRE ASSIGNMENTS    1  1  1  1  1  1  1  1  1  1  1  1  1  1  1  1  1  1  1  1
CENTRE ASSIGNMENTS    1  1  1  1  1  1  1  1  1  1  1  1  1  1  1  2  2  2  2  2
CENTRE ASSIGNMENTS    2  2  2  2  2  2  2  2  2  2  2  2  2  2  2  2  2  2  2  2
CENTRE ASSIGNMENTS    2  2  2  2  2  2  2  2  2  2  2  2  2  2  2  2  2  2  2  2
CENTRE ASSIGNMENTS    2  2  2  2  2  2  2  2  2  2  2  2  2  2  2  2  2  2  2  2
CENTRE ASSIGNMENTS    2  2  2  2  2  2  2  2  2  2  3  3  3  3  3  3  3  3  3  3
CENTRE ASSIGNMENTS    3  3  3  3  3  3  3  3  3  3  3  3  3  3  3  3  3  3  3  3
CENTRE ASSIGNMENTS    3  3  3  3  3  3  3  3  3  3  3  3  3  3  3  3  3  3  3  3
CENTRE ASSIGNMENTS    3  3  3  3  3  3  3  3  3  3  3  3  3  3  3  3  3  3  3  3
CENTRE ASSIGNMENTS    3  3  3  3  3  4  4  4  4  4  4  4  4  4  4  4  4  4  4  4
CENTRE ASSIGNMENTS    4  4  4  4  4  4  4  4  4  4  4  4  4  4  4  4  4  4  4  4
CENTRE ASSIGNMENTS    4  4  4  4  4  4  4  4  4  4  4  4  4  4  4  4  4  4  4  4
CENTRE ASSIGNMENTS    4  4  4  4  4  4  4  4  4  4  4  4  4  4  4  4  4  4  4  4
CENTRE ASSIGNMENTS    5  5  5  5  5  5  5  5  5  5  5  5  5  5  5  5  5  5  5  5
CENTRE ASSIGNMENTS    5  5  5  5  5  5  5  5  5  5  5  5  5  5  5  5  5  5  5  5
CENTRE ASSIGNMENTS    5  5  5  5  5  5  5  5  5  5  5  5  5  5  5  5  5  5  5  5
CENTRE ASSIGNMENTS    5  5  5  5  5  5  5  5  5  5  5  5  5  5  5
TYPE ASSIGNMENTS      1  1  1  1  1  1  1  1  1  1  1  1  1  1  1  1  1  1  1  2
TYPE ASSIGNMENTS      2  2  3  3  3  4  4  4  2  3  4  2  3  4  2  3  4  5  6  7
TYPE ASSIGNMENTS      8  9 10  5  6  7  8  9 10  5  6  7  8  9 10 11 12 13 17 14
TYPE ASSIGNMENTS     15 18 19 16 20 11 12 13 17 14 15 18 19 16 20  1  1  1  1  1
TYPE ASSIGNMENTS      1  1  1  1  1  1  1  1  1  1  1  1  1  1  2  2  2  3  3  3
TYPE ASSIGNMENTS      4  4  4  2  3  4  2  3  4  2  3  4  5  6  7  8  9 10  5  6
TYPE ASSIGNMENTS      7  8  9 10  5  6  7  8  9 10 11 12 13 17 14 15 18 19 16 20
TYPE ASSIGNMENTS     11 12 13 17 14 15 18 19 16 20  1  1  1  1  1  1  1  1  1  1
TYPE ASSIGNMENTS      1  1  1  1  1  1  1  1  1  2  2  2  3  3  3  4  4  4  2  3
TYPE ASSIGNMENTS      4  2  3  4  2  3  4  5  6  7  8  9 10  5  6  7  8  9 10  5
TYPE ASSIGNMENTS      6  7  8  9 10 11 12 13 17 14 15 18 19 16 20 11 12 13 17 14
TYPE ASSIGNMENTS     15 18 19 16 20  1  1  1  1  1  1  1  1  1  1  1  1  1  1  1
TYPE ASSIGNMENTS      1  1  1  1  2  2  2  3  3  3  4  4  4  2  3  4  2  3  4  2
TYPE ASSIGNMENTS      3  4  5  6  7  8  9 10  5  6  7  8  9 10  5  6  7  8  9 10
TYPE ASSIGNMENTS     11 12 13 17 14 15 18 19 16 20 11 12 13 17 14 15 18 19 16 20
TYPE ASSIGNMENTS      1  1  1  1  1  1  1  1  1  1  1  1  1  1  1  1  1  1  1  2
TYPE ASSIGNMENTS      2  2  3  3  3  4  4  4  2  3  4  2  3  4  2  3  4  5  6  7
TYPE ASSIGNMENTS      8  9 10  5  6  7  8  9 10  5  6  7  8  9 10 11 12 13 17 14
TYPE ASSIGNMENTS     15 18 19 16 20 11 12 13 17 14 15 18 19 16 20
EXPONENTS  0.1533000D+05 0.2299000D+04 0.5224000D+03 0.1473000D+03 0.4755000D+02
EXPONENTS  0.1676000D+02 0.6207000D+01 0.6882000D+00 0.1533000D+05 0.2299000D+04
EXPONENTS  0.5224000D+03 0.1473000D+03 0.4755000D+02 0.1676000D+02 0.6207000D+01
EXPONENTS  0.6882000D+00 0.1752000D+01 0.2384000D+00 0.7376000D-01 0.3446000D+02
EXPONENTS  0.7749000D+01 0.2280000D+01 0.3446000D+02 0.7749000D+01 0.2280000D+01
EXPONENTS  0.3446000D+02 0.7749000D+01 0.2280000D+01 0.7156000D+00 0.7156000D+00
EXPONENTS  0.7156000D+00 0.2140000D+00 0.2140000D+00 0.2140000D+00 0.5974000D-01
EXPONENTS  0.5974000D-01 0.5974000D-01 0.2314000D+01 0.2314000D+01 0.2314000D+01
EXPONENTS  0.2314000D+01 0.2314000D+01 0.2314000D+01 0.6450000D+00 0.6450000D+00
EXPONENTS  0.6450000D+00 0.6450000D+00 0.6450000D+00 0.6450000D+00 0.2140000D+00
EXPONENTS  0.2140000D+00 0.2140000D+00 0.2140000D+00 0.2140000D+00 0.2140000D+00
EXPONENTS  0.1428000D+01 0.1428000D+01 0.1428000D+01 0.1428000D+01 0.1428000D+01
EXPONENTS  0.1428000D+01 0.1428000D+01 0.1428000D+01 0.1428000D+01 0.1428000D+01
EXPONENTS  0.5000000D+00 0.5000000D+00 0.5000000D+00 0.5000000D+00 0.5000000D+00
EXPONENTS  0.5000000D+00 0.5000000D+00 0.5000000D+00 0.5000000D+00 0.5000000D+00
EXPONENTS  0.1142000D+05 0.1712000D+04 0.3893000D+03 0.1100000D+03 0.3557000D+02
EXPONENTS  0.1254000D+02 0.4644000D+01 0.5118000D+00 0.1142000D+05 0.1712000D+04
EXPONENTS  0.3893000D+03 0.1100000D+03 0.3557000D+02 0.1254000D+02 0.4644000D+01
EXPONENTS  0.5118000D+00 0.1293000D+01 0.1787000D+00 0.5760000D-01 0.2663000D+02
EXPONENTS  0.5948000D+01 0.1742000D+01 0.2663000D+02 0.5948000D+01 0.1742000D+01
EXPONENTS  0.2663000D+02 0.5948000D+01 0.1742000D+01 0.5550000D+00 0.5550000D+00
EXPONENTS  0.5550000D+00 0.1725000D+00 0.1725000D+00 0.1725000D+00 0.4910000D-01
EXPONENTS  0.4910000D-01 0.4910000D-01 0.1654000D+01 0.1654000D+01 0.1654000D+01
EXPONENTS  0.1654000D+01 0.1654000D+01 0.1654000D+01 0.4690000D+00 0.4690000D+00
EXPONENTS  0.4690000D+00 0.4690000D+00 0.4690000D+00 0.4690000D+00 0.1510000D+00
EXPONENTS  0.1510000D+00 0.1510000D+00 0.1510000D+00 0.1510000D+00 0.1510000D+00
EXPONENTS  0.1093000D+01 0.1093000D+01 0.1093000D+01 0.1093000D+01 0.1093000D+01
EXPONENTS  0.1093000D+01 0.1093000D+01 0.1093000D+01 0.1093000D+01 0.1093000D+01
EXPONENTS  0.3640000D+00 0.3640000D+00 0.3640000D+00 0.3640000D+00 0.3640000D+00
EXPONENTS  0.3640000D+00 0.3640000D+00 0.3640000D+00 0.3640000D+00 0.3640000D+00
EXPONENTS  0.1950000D+05 0.2923000D+04 0.6645000D+03 0.1875000D+03 0.6062000D+02
EXPONENTS  0.2142000D+02 0.7950000D+01 0.8815000D+00 0.1950000D+05 0.2923000D+04
EXPONENTS  0.6645000D+03 0.1875000D+03 0.6062000D+02 0.2142000D+02 0.7950000D+01
EXPONENTS  0.8815000D+00 0.2257000D+01 0.3041000D+00 0.9158000D-01 0.4388000D+02
EXPONENTS  0.9926000D+01 0.2930000D+01 0.4388000D+02 0.9926000D+01 0.2930000D+01
EXPONENTS  0.4388000D+02 0.9926000D+01 0.2930000D+01 0.9132000D+00 0.9132000D+00
EXPONENTS  0.9132000D+00 0.2672000D+00 0.2672000D+00 0.2672000D+00 0.7361000D-01
EXPONENTS  0.7361000D-01 0.7361000D-01 0.3107000D+01 0.3107000D+01 0.3107000D+01
EXPONENTS  0.3107000D+01 0.3107000D+01 0.3107000D+01 0.8550000D+00 0.8550000D+00
EXPONENTS  0.8550000D+00 0.8550000D+00 0.8550000D+00 0.8550000D+00 0.2920000D+00
EXPONENTS  0.2920000D+00 0.2920000D+00 0.2920000D+00 0.2920000D+00 0.2920000D+00
EXPONENTS  0.1917000D+01 0.1917000D+01 0.1917000D+01 0.1917000D+01 0.1917000D+01
EXPONENTS  0.1917000D+01 0.1917000D+01 0.1917000D+01 0.1917000D+01 0.1917000D+01
EXPONENTS  0.7240000D+00 0.7240000D+00 0.7240000D+00 0.7240000D+00 0.7240000D+00
EXPONENTS  0.7240000D+00 0.7240000D+00 0.7240000D+00 0.7240000D+00 0.7240000D+00
EXPONENTS  0.1950000D+05 0.2923000D+04 0.6645000D+03 0.1875000D+03 0.6062000D+02
EXPONENTS  0.2142000D+02 0.7950000D+01 0.8815000D+00 0.1950000D+05 0.2923000D+04
EXPONENTS  0.6645000D+03 0.1875000D+03 0.6062000D+02 0.2142000D+02 0.7950000D+01
EXPONENTS  0.8815000D+00 0.2257000D+01 0.3041000D+00 0.9158000D-01 0.4388000D+02
EXPONENTS  0.9926000D+01 0.2930000D+01 0.4388000D+02 0.9926000D+01 0.2930000D+01
EXPONENTS  0.4388000D+02 0.9926000D+01 0.2930000D+01 0.9132000D+00 0.9132000D+00
EXPONENTS  0.9132000D+00 0.2672000D+00 0.2672000D+00 0.2672000D+00 0.7361000D-01
EXPONENTS  0.7361000D-01 0.7361000D-01 0.3107000D+01 0.3107000D+01 0.3107000D+01
EXPONENTS  0.3107000D+01 0.3107000D+01 0.3107000D+01 0.8550000D+00 0.8550000D+00
EXPONENTS  0.8550000D+00 0.8550000D+00 0.8550000D+00 0.8550000D+00 0.2920000D+00
EXPONENTS  0.2920000D+00 0.2920000D+00 0.2920000D+00 0.2920000D+00 0.2920000D+00
EXPONENTS  0.1917000D+01 0.1917000D+01 0.1917000D+01 0.1917000D+01 0.1917000D+01
EXPONENTS  0.1917000D+01 0.1917000D+01 0.1917000D+01 0.1917000D+01 0.1917000D+01
EXPONENTS  0.7240000D+00 0.7240000D+00 0.7240000D+00 0.7240000D+00 0.7240000D+00
EXPONENTS  0.7240000D+00 0.7240000D+00 0.7240000D+00 0.7240000D+00 0.7240000D+00
EXPONENTS  0.1950000D+05 0.2923000D+04 0.6645000D+03 0.1875000D+03 0.6062000D+02
EXPONENTS  0.2142000D+02 0.7950000D+01 0.8815000D+00 0.1950000D+05 0.2923000D+04
EXPONENTS  0.6645000D+03 0.1875000D+03 0.6062000D+02 0.2142000D+02 0.7950000D+01
EXPONENTS  0.8815000D+00 0.2257000D+01 0.3041000D+00 0.9158000D-01 0.4388000D+02
EXPONENTS  0.9926000D+01 0.2930000D+01 0.4388000D+02 0.9926000D+01 0.2930000D+01
EXPONENTS  0.4388000D+02 0.9926000D+01 0.2930000D+01 0.9132000D+00 0.9132000D+00
EXPONENTS  0.9132000D+00 0.2672000D+00 0.2672000D+00 0.2672000D+00 0.7361000D-01
EXPONENTS  0.7361000D-01 0.7361000D-01 0.3107000D+01 0.3107000D+01 0.3107000D+01
EXPONENTS  0.3107000D+01 0.3107000D+01 0.3107000D+01 0.8550000D+00 0.8550000D+00
EXPONENTS  0.8550000D+00 0.8550000D+00 0.8550000D+00 0.8550000D+00 0.2920000D+00
EXPONENTS  0.2920000D+00 0.2920000D+00 0.2920000D+00 0.2920000D+00 0.2920000D+00
EXPONENTS  0.1917000D+01 0.1917000D+01 0.1917000D+01 0.1917000D+01 0.1917000D+01
EXPONENTS  0.1917000D+01 0.1917000D+01 0.1917000D+01 0.1917000D+01 0.1917000D+01
EXPONENTS  0.7240000D+00 0.7240000D+00 0.7240000D+00 0.7240000D+00 0.7240000D+00
EXPONENTS  0.7240000D+00 0.7240000D+00 0.7240000D+00 0.7240000D+00 0.7240000D+00
MO    1     MO 0.0        OCC NO =    2.0000000  ORB. ENERGY =  -24.858216
 -0.19645394D-13 -0.36616487D-13 -0.62089429D-13 -0.93975243D-13 -0.11725367D-12
 -0.10070526D-12 -0.38662708D-13  0.17294066D-15  0.39598857D-13  0.74268638D-13
  0.12661175D-12  0.19786951D-12  0.26458924D-12  0.28251962D-12  0.17272696D-12
 -0.11395476D-12 -0.51839945D-12 -0.32874391D-11 -0.89067016D-12  0.18213594D-11
  0.17661060D-11  0.11914046D-11 -0.25694112D-03 -0.24914646D-03 -0.16807273D-03
 -0.11026569D-11 -0.10692063D-11 -0.72128026D-12 -0.21763084D-11  0.30694702D-03
 -0.68918320D-13 -0.12612326D-11  0.17797923D-03 -0.26206540D-12  0.58059148D-14
 -0.80859886D-06 -0.20078249D-13  0.91378580D-12  0.19234863D-11 -0.28372721D-11
 -0.14129327D-03  0.17489663D-11 -0.24581016D-03 -0.36985239D-12 -0.50231678D-12
  0.87216917D-12  0.18088996D-04 -0.32968687D-11  0.46379092D-03 -0.12149174D-12
 -0.14245281D-12  0.26394455D-12  0.27948819D-05 -0.45973590D-12  0.65134489D-04
  0.33807432D-12 -0.40731103D-04 -0.15767774D-11  0.14929070D-12 -0.40695812D-04
  0.67535094D-12 -0.11635137D-11  0.16288912D-03  0.40549813D-11 -0.47496879D-03
  0.22696869D-13 -0.23618797D-04  0.55815504D-12  0.60423353D-12 -0.23641621D-04
 -0.47354776D-12 -0.67232413D-12  0.94498011D-04 -0.12009174D-11  0.10181919D-03
  0.64601101D-12  0.12037464D-11  0.20358369D-11  0.30658576D-11  0.37957306D-11
  0.32299955D-11  0.12290729D-11 -0.57562725D-14 -0.26755671D-12 -0.50167133D-12
 -0.85349220D-12 -0.13253833D-11 -0.17588607D-11 -0.18535977D-11 -0.11493488D-11
  0.76454729D-12 -0.62514297D-11  0.10537219D-10  0.29817006D-11  0.79395092D-11
  0.76258037D-11  0.53477399D-11 -0.11163191D-02 -0.10722112D-02 -0.75190848D-03
 -0.63577036D-11 -0.61064984D-11 -0.42822982D-11 -0.60356430D-11  0.84817972D-03
  0.69824261D-11 -0.11786942D-11  0.16075155D-03 -0.28233155D-12 -0.11070103D-12
  0.15445645D-04  0.12191464D-12  0.10990425D-11 -0.19838204D-13 -0.10792043D-11
  0.15939527D-03  0.19385754D-11 -0.26984233D-03 -0.27872647D-11  0.39527426D-11
 -0.11654779D-11 -0.94983569D-03 -0.88343415D-11  0.12404030D-02 -0.20879513D-12
  0.27645149D-13  0.18114999D-12 -0.33063998D-04 -0.43208296D-12  0.59740781D-04
  0.36694238D-11  0.54068323D-04 -0.42620787D-11 -0.12560154D-10  0.54960011D-04
 -0.20640231D-11  0.15518823D-11 -0.21716498D-03  0.14850259D-10 -0.23824062D-02
  0.20564213D-12  0.23053677D-04 -0.46146829D-12 -0.12651952D-11  0.23077019D-04
 -0.20669095D-13  0.64826877D-12 -0.92238049D-04  0.14050740D-11 -0.20184452D-03
  0.41971423D+00  0.78236552D+00  0.13263019D+01  0.20084119D+01  0.25115262D+01
  0.21621901D+01  0.83122481D+00 -0.36018332D-02  0.56801914D-03  0.10666393D-02
  0.18163028D-02  0.28452277D-02  0.38129398D-02  0.41013308D-02  0.24624337D-02
 -0.16194000D-02  0.45879459D-01  0.22192102D-03 -0.25771143D-03  0.22338054D-02
  0.21846129D-02  0.14434661D-02 -0.39487570D-02 -0.38617981D-02 -0.25516533D-02
 -0.22592370D-02 -0.22094845D-02 -0.14598998D-02 -0.46202853D-03  0.86241166D-03
  0.47539434D-03 -0.11839539D-03  0.22330827D-03  0.14781998D-03 -0.10665718D-04
  0.19734006D-04  0.87255705D-05 -0.34548376D-03  0.71622352D-03 -0.37073977D-03
 -0.18614405D-02 -0.10009578D-02  0.19568871D-02  0.14814690D-03 -0.29511692D-03
  0.14697002D-03  0.70038875D-03  0.37826897D-03 -0.74176229D-03  0.12495053D-04
 -0.14409092D-04  0.19140389D-05  0.51723574D-04  0.32896371D-04 -0.76999665D-04
 -0.29901176D-04  0.12070434D-03  0.89528688D-04  0.14584326D-03 -0.14088290D-03
 -0.38108941D-05 -0.56139732D-04 -0.22123011D-03 -0.26477517D-03 -0.18703347D-04
  0.79890615D-04 -0.31614135D-04 -0.10226592D-03 -0.26820276D-03  0.27254207D-04
 -0.16354093D-04  0.28530915D-04  0.67588199D-04  0.32315186D-03 -0.35246809D-03
 -0.41971422D+00 -0.78236550D+00 -0.13263019D+01 -0.20084119D+01 -0.25115261D+01
 -0.21621901D+01 -0.83122479D+00  0.36018331D-02 -0.56801913D-03 -0.10666393D-02
 -0.18163028D-02 -0.28452276D-02 -0.38129397D-02 -0.41013308D-02 -0.24624336D-02
  0.16193999D-02 -0.45879458D-01 -0.22192102D-03  0.25771142D-03 -0.22338053D-02
 -0.21846128D-02 -0.14434661D-02 -0.39487569D-02 -0.38617980D-02 -0.25516532D-02
  0.22592370D-02  0.22094844D-02  0.14598998D-02  0.46202852D-03  0.86241165D-03
 -0.47539433D-03  0.11839539D-03  0.22330826D-03 -0.14781998D-03  0.10665717D-04
  0.19734006D-04 -0.87255703D-05  0.34548375D-03 -0.71622351D-03  0.37073976D-03
 -0.18614404D-02  0.10009578D-02  0.19568871D-02 -0.14814690D-03  0.29511691D-03
 -0.14697001D-03  0.70038873D-03 -0.37826896D-03 -0.74176228D-03 -0.12495052D-04
  0.14409091D-04 -0.19140389D-05  0.51723573D-04 -0.32896369D-04 -0.76999663D-04
  0.29901176D-04  0.12070434D-03 -0.89528687D-04 -0.14584326D-03 -0.14088291D-03
  0.38108910D-05  0.56139735D-04 -0.22123011D-03  0.26477517D-03 -0.18703351D-04
 -0.79890614D-04 -0.31614136D-04  0.10226592D-03  0.26820276D-03  0.27254208D-04
  0.16354094D-04 -0.28530916D-04  0.67588199D-04 -0.32315186D-03 -0.35246808D-03
 -0.43957601D-09 -0.81938872D-09 -0.13890653D-08 -0.21034543D-08 -0.26303770D-08
 -0.22645096D-08 -0.87056015D-09  0.37722796D-11 -0.99722154D-12 -0.18726054D-11
 -0.31887241D-11 -0.49951174D-11 -0.66940450D-11 -0.72003480D-11 -0.43230795D-11
  0.28430389D-11 -0.48840773D-10 -0.15332690D-12 -0.18096685D-12  0.69608576D-11
  0.68075667D-11  0.44980472D-11 -0.82151349D-04 -0.80342225D-04 -0.53085505D-04
  0.28912172D-11  0.28275472D-11  0.18682800D-11 -0.33216874D-11  0.62471151D-04
 -0.12514960D-11  0.13314181D-12  0.18510301D-04  0.21262576D-12 -0.70592302D-13
  0.12572015D-05 -0.34060021D-13 -0.14198247D-11  0.11815168D-11  0.23830790D-12
 -0.19082952D-04 -0.15520197D-11  0.22413873D-03  0.13249698D-11 -0.85864387D-12
 -0.46632590D-12 -0.68511139D-04  0.13490805D-11 -0.86883365D-04  0.21182187D-13
  0.15933356D-13 -0.37115543D-13  0.49302862D-05  0.72845292D-13 -0.20044601D-04
  0.29460621D-12 -0.51072195D-04 -0.79561180D-12 -0.28771779D-11  0.47140812D-03
  0.15485792D-11  0.19933593D-11 -0.31819154D-03  0.83825616D-12 -0.47131438D-03
 -0.36815986D-12  0.16181760D-07  0.39522001D-12  0.13906088D-11 -0.11680154D-03
 -0.98147776D-12 -0.28612918D-12  0.11675299D-03 -0.20418226D-12  0.23600866D-03
MO    2     MO 0.0        OCC NO =    2.0000000  ORB. ENERGY =  -24.858207
 -0.12368023D-05 -0.23052404D-05 -0.39089239D-05 -0.59163384D-05 -0.73818629D-05
 -0.63400358D-05 -0.24340630D-05  0.10887713D-07  0.31482932D-05  0.59047019D-05
  0.10066222D-04  0.15731546D-04  0.21036074D-04  0.22461623D-04  0.13732596D-04
 -0.90599328D-05 -0.45765343D-04 -0.28526296D-03 -0.77135712D-04  0.16293057D-03
  0.15798785D-03  0.10657767D-03  0.28990374D-11  0.28110911D-11  0.18963454D-11
 -0.98571004D-04 -0.95580716D-04 -0.64478187D-04 -0.19460914D-03 -0.34607982D-11
 -0.33587396D-05 -0.11283744D-03 -0.20098389D-11 -0.20395230D-04  0.51828349D-06
  0.11121112D-13 -0.16640208D-05  0.80352534D-04  0.16995574D-03 -0.25030827D-03
  0.15685411D-11  0.15590443D-03  0.27874625D-11 -0.33139433D-04 -0.44633306D-04
  0.77772739D-04 -0.19044569D-12 -0.29419768D-03 -0.52395029D-11 -0.10925250D-04
 -0.12719029D-04  0.23644279D-04 -0.29671181D-13 -0.41275958D-04 -0.73427629D-12
  0.30062671D-04  0.46187287D-12 -0.13913240D-03  0.13344069D-04  0.45790018D-12
  0.58036044D-04 -0.10353208D-03 -0.18435188D-11  0.35936115D-03  0.53410377D-11
  0.22012838D-05  0.26635257D-12  0.49339339D-04  0.53341896D-04  0.26879086D-12
 -0.41696222D-04 -0.59945748D-04 -0.10678486D-11 -0.10632180D-03 -0.11354119D-11
  0.57898451D-04  0.10788524D-03  0.18246098D-03  0.27477613D-03  0.34019067D-03
  0.28948691D-03  0.11015511D-03 -0.51590337D-06 -0.24276727D-04 -0.45519090D-04
 -0.77441516D-04 -0.12025850D-03 -0.15959002D-03 -0.16818598D-03 -0.10428603D-03
  0.69371110D-04 -0.54953448D-03  0.90951643D-03  0.26006315D-03  0.70821310D-03
  0.68023022D-03  0.47702438D-03  0.12592638D-10  0.12095079D-10  0.84819041D-11
 -0.56063220D-03 -0.53848053D-03 -0.37761972D-03 -0.53783590D-03 -0.95703037D-11
  0.61645015D-03 -0.10207629D-03 -0.18140747D-11 -0.28160507D-04 -0.98118498D-05
 -0.17839726D-12  0.10628520D-04  0.97871685D-04 -0.31406480D-05 -0.94731037D-04
 -0.18156720D-11  0.17177583D-03  0.30636802D-11 -0.24892561D-03  0.35287468D-03
 -0.10394907D-03  0.10720848D-10 -0.78704944D-03 -0.14006607D-10 -0.18418600D-04
  0.25321818D-05  0.15886418D-04  0.37291940D-12 -0.37943147D-04 -0.67536901D-12
  0.32366048D-03 -0.61210636D-12 -0.37564293D-03 -0.11089398D-02 -0.61999139D-12
 -0.19154192D-03  0.13795837D-03  0.24563105D-11  0.13184707D-02  0.26858930D-10
  0.17541126D-04 -0.25686279D-12 -0.40094118D-04 -0.11093529D-03 -0.26417197D-12
 -0.38172003D-05  0.58311914D-04  0.10347603D-11  0.12409955D-03  0.22981295D-11
  0.41868682D+00  0.78045038D+00  0.13230553D+01  0.20034956D+01  0.25053783D+01
  0.21568973D+01  0.82919007D+00 -0.35930163D-02  0.53128880D-03  0.99766627D-03
  0.16988536D-02  0.26612441D-02  0.35663802D-02  0.38361227D-02  0.23032031D-02
 -0.15146832D-02  0.45697441D-01  0.23113793D-03 -0.29574650D-03  0.22052587D-02
  0.21566949D-02  0.14250195D-02 -0.37272907D-02 -0.36452089D-02 -0.24085436D-02
 -0.22061241D-02 -0.21575412D-02 -0.14255787D-02 -0.41609230D-03  0.65174459D-03
  0.40675950D-03 -0.15105763D-03  0.24138611D-03  0.17895188D-03 -0.96733423D-05
  0.15372098D-04  0.65199937D-05 -0.33948850D-03  0.72340773D-03 -0.38391923D-03
 -0.18196439D-02 -0.12337520D-02  0.18894476D-02  0.10162077D-03 -0.22104280D-03
  0.11942203D-03  0.63389213D-03  0.43444932D-03 -0.65662107D-03  0.17415274D-04
 -0.16085398D-04 -0.13298758D-05  0.52541044D-04  0.51424872D-04 -0.66987061D-04
 -0.15860376D-04 -0.93275983D-04  0.27212057D-04 -0.10485839D-03  0.19384684D-03
 -0.13754278D-03  0.15243952D-03  0.85981108D-04  0.55906603D-04  0.18259990D-03
  0.72720978D-04  0.19252197D-04 -0.76487790D-04 -0.15122273D-03 -0.45079959D-04
  0.58795635D-04 -0.66940201D-04 -0.12676631D-04  0.17066773D-03 -0.45342549D-03
  0.41868683D+00  0.78045039D+00  0.13230553D+01  0.20034956D+01  0.25053783D+01
  0.21568974D+01  0.82919009D+00 -0.35930164D-02  0.53128881D-03  0.99766629D-03
  0.16988536D-02  0.26612442D-02  0.35663803D-02  0.38361228D-02  0.23032031D-02
 -0.15146833D-02  0.45697442D-01  0.23113794D-03 -0.29574650D-03  0.22052588D-02
  0.21566949D-02  0.14250195D-02  0.37272908D-02  0.36452090D-02  0.24085437D-02
 -0.22061242D-02 -0.21575413D-02 -0.14255787D-02 -0.41609231D-03 -0.65174461D-03
  0.40675951D-03 -0.15105763D-03 -0.24138612D-03  0.17895188D-03 -0.96733426D-05
 -0.15372098D-04  0.65199939D-05 -0.33948851D-03  0.72340775D-03 -0.38391924D-03
  0.18196440D-02 -0.12337521D-02 -0.18894476D-02  0.10162077D-03 -0.22104281D-03
  0.11942203D-03 -0.63389214D-03  0.43444933D-03  0.65662109D-03  0.17415274D-04
 -0.16085398D-04 -0.13298758D-05 -0.52541045D-04  0.51424873D-04  0.66987062D-04
 -0.15860377D-04  0.93275981D-04  0.27212059D-04 -0.10485839D-03 -0.19384684D-03
 -0.13754278D-03  0.15243952D-03 -0.85981103D-04  0.55906597D-04 -0.18259990D-03
  0.72720980D-04 -0.19252196D-04 -0.76487792D-04 -0.15122274D-03  0.45079959D-04
  0.58795634D-04 -0.66940200D-04  0.12676629D-04  0.17066774D-03  0.45342550D-03
 -0.42543287D-01 -0.79302531D-01 -0.13443729D+00 -0.20357767D+00 -0.25457459D+00
 -0.21916501D+00 -0.84255031D-01  0.36509084D-03 -0.92870609D-04 -0.17439456D-03
 -0.29696385D-03 -0.46519212D-03 -0.62341217D-03 -0.67056384D-03 -0.40260565D-03
  0.26477041D-03 -0.47201238D-02 -0.12840807D-04 -0.12701756D-04  0.65482159D-03
  0.64040121D-03  0.42314016D-03  0.92784388D-12  0.90741105D-12  0.59956484D-12
  0.27599389D-03  0.26991599D-03  0.17834491D-03 -0.30201727D-03 -0.70533655D-12
 -0.11535566D-03  0.71614725D-05 -0.21155166D-12  0.16833314D-04 -0.64553346D-05
 -0.12373960D-13 -0.30635438D-05 -0.13621933D-03  0.11184953D-03  0.24369801D-04
  0.19569748D-12 -0.15795342D-03 -0.25290811D-11  0.12116401D-03 -0.78728378D-04
 -0.42435635D-04  0.78147404D-12  0.12720540D-03  0.98106696D-12  0.25443219D-05
  0.91637866D-06 -0.34607006D-05 -0.54832063D-13  0.73994263D-05  0.22531232D-12
  0.25963069D-04  0.57779692D-12 -0.71099087D-04 -0.25558772D-03 -0.53060592D-11
  0.13811076D-03  0.17769851D-03  0.35726685D-11  0.75186503D-04  0.53124452D-11
 -0.33138659D-04 -0.43152470D-15  0.35828991D-04  0.12511673D-03  0.13120125D-11
 -0.90050561D-04 -0.25700752D-04 -0.13107180D-11 -0.17436411D-04 -0.26614771D-11
MO    3     MO 0.0        OCC NO =    2.0000000  ORB. ENERGY =  -24.858121
 -0.92018759D-06 -0.17151113D-05 -0.29082604D-05 -0.44017876D-05 -0.54921457D-05
 -0.47170207D-05 -0.18109560D-05  0.81005172D-08  0.25169372D-05  0.47205780D-05
  0.80475507D-05  0.12576755D-04  0.16817518D-04  0.17957188D-04  0.10978673D-04
 -0.72430616D-05 -0.37524103D-04 -0.23431173D-03 -0.63403886D-04 -0.19873383D-03
 -0.19270496D-03 -0.12999763D-03  0.16999839D-13  0.16484126D-13  0.11120094D-13
 -0.80718209D-04 -0.78269511D-04 -0.52800150D-04  0.23730868D-03 -0.20515786D-13
 -0.27369107D-05  0.13762557D-03 -0.12296215D-13 -0.16914730D-04 -0.63060664D-06
  0.19385119D-15 -0.13782027D-05  0.15687786D-03  0.48312382D-04 -0.20519024D-03
  0.76766615D-14 -0.19014488D-03  0.17724116D-13 -0.38688849D-04 -0.25034184D-04
  0.63723032D-04 -0.24282881D-15  0.35876988D-03 -0.32073151D-13 -0.10756985D-04
 -0.86224259D-05  0.19379411D-04 -0.62965947D-16  0.50347765D-04 -0.44032416D-14
 -0.28189696D-04  0.29471490D-14 -0.11422187D-03 -0.42059847D-04  0.26878613D-14
  0.35462727D-03  0.12662894D-03 -0.11529308D-13 -0.11961656D-04  0.31255887D-13
 -0.28786828D-04  0.15971296D-14  0.40472062D-04  0.13251216D-04  0.17607670D-14
 -0.99918454D-04  0.73109267D-04 -0.65521556D-14 -0.21497732D-04 -0.60122125D-14
  0.47116738D-04  0.87795103D-04  0.14848353D-03  0.22360797D-03  0.27684117D-03
  0.23557934D-03  0.89642286D-04 -0.41983307D-06 -0.19645269D-04 -0.36835063D-04
 -0.62667402D-04 -0.97315858D-04 -0.12914380D-03 -0.13609984D-03 -0.84390584D-04
  0.56136649D-04 -0.45053424D-03  0.74622117D-03  0.21348487D-03 -0.86228985D-03
 -0.82821909D-03 -0.58080439D-03  0.75883666D-13  0.72885355D-13  0.51112242D-13
 -0.45966964D-03 -0.44150719D-03 -0.30961532D-03  0.65396637D-03 -0.57771902D-13
  0.50480825D-03  0.12388090D-03 -0.10775892D-13 -0.23295330D-04  0.11951684D-04
 -0.13170107D-14  0.87258962D-05 -0.24590683D-04  0.10155863D-03 -0.76967944D-04
 -0.12067767D-13 -0.21144023D-03  0.19742096D-13  0.40966854D-03 -0.32418220D-03
 -0.85486336D-04  0.64995589D-13  0.95853013D-03 -0.85324856D-13  0.62732558D-05
 -0.19288235D-04  0.13014979D-04  0.22338695D-14  0.46170235D-04 -0.41373778D-14
  0.33601357D-03 -0.38332347D-14 -0.30807757D-03 -0.83919528D-03 -0.37381125D-14
  0.13818125D-02 -0.16884544D-03  0.15237817D-13 -0.45757983D-03  0.16100456D-12
  0.44180997D-04 -0.13267889D-14 -0.32918013D-04 -0.61388275D-04 -0.18587799D-14
  0.12768775D-03 -0.71154716D-04  0.58391466D-14 -0.28933707D-04  0.15255494D-13
  0.30166429D-01  0.56231531D-01  0.95326269D-01  0.14435206D+00  0.18051276D+00
  0.15540468D+00  0.59743231D-01 -0.25887720D-03  0.11798815D-04  0.22156086D-04
  0.37727993D-04  0.59100678D-04  0.79201861D-04  0.85192281D-04  0.51149334D-04
 -0.33637954D-04  0.32402568D-02  0.23909116D-04 -0.50363335D-04  0.35155280D-04
  0.34381096D-04  0.22717044D-04 -0.17110805D-03 -0.16733993D-03 -0.11056857D-03
 -0.12344983D-03 -0.12073124D-03 -0.79772234D-04  0.84564335D-04 -0.62568282D-04
 -0.21173123D-04 -0.11594704D-04  0.45165615D-04  0.36743406D-04  0.16381495D-05
 -0.11673820D-05 -0.11660332D-05 -0.80201421D-05  0.45572249D-04 -0.37552107D-04
 -0.11749652D-03  0.24824349D-04  0.25738763D-03  0.17063668D-04 -0.50272950D-05
 -0.12036373D-04 -0.54056894D-04 -0.38319049D-04 -0.50190491D-04  0.17886925D-05
  0.78122672D-06 -0.25699193D-05  0.81904543D-05 -0.82660016D-05 -0.12610228D-04
  0.11232450D-03  0.87947764D-04 -0.44559244D-04 -0.92340129D-04 -0.26175165D-03
  0.19503054D-03 -0.24463336D-03 -0.20916410D-05 -0.61352806D-04 -0.18707020D-03
 -0.37759375D-04 -0.26190573D-04  0.13601074D-04  0.38500141D-04  0.51840118D-04
 -0.92398831D-04  0.74777983D-04  0.26731601D-04  0.51595610D-04  0.66952885D-04
  0.30166429D-01  0.56231531D-01  0.95326269D-01  0.14435207D+00  0.18051276D+00
  0.15540468D+00  0.59743231D-01 -0.25887720D-03  0.11798816D-04  0.22156086D-04
  0.37727993D-04  0.59100678D-04  0.79201862D-04  0.85192281D-04  0.51149334D-04
 -0.33637954D-04  0.32402568D-02  0.23909116D-04 -0.50363335D-04  0.35155280D-04
  0.34381096D-04  0.22717044D-04  0.17110805D-03  0.16733993D-03  0.11056857D-03
 -0.12344983D-03 -0.12073124D-03 -0.79772234D-04  0.84564335D-04  0.62568282D-04
 -0.21173123D-04 -0.11594704D-04 -0.45165615D-04  0.36743406D-04  0.16381495D-05
  0.11673820D-05 -0.11660332D-05 -0.80201422D-05  0.45572249D-04 -0.37552107D-04
  0.11749652D-03  0.24824349D-04 -0.25738763D-03  0.17063668D-04 -0.50272951D-05
 -0.12036373D-04  0.54056894D-04 -0.38319049D-04  0.50190491D-04  0.17886925D-05
  0.78122672D-06 -0.25699193D-05 -0.81904544D-05 -0.82660016D-05  0.12610228D-04
  0.11232450D-03 -0.87947764D-04 -0.44559244D-04 -0.92340129D-04  0.26175165D-03
  0.19503054D-03 -0.24463336D-03  0.20916410D-05 -0.61352807D-04  0.18707020D-03
 -0.37759375D-04  0.26190573D-04  0.13601074D-04  0.38500141D-04 -0.51840118D-04
 -0.92398831D-04  0.74777983D-04 -0.26731601D-04  0.51595610D-04 -0.66952885D-04
  0.59208000D+00  0.11036628D+01  0.18709797D+01  0.28332147D+01  0.35429450D+01
  0.30501456D+01  0.11725873D+01 -0.50810128D-02  0.77235128D-03  0.14503389D-02
  0.24696770D-02  0.38687345D-02  0.51845593D-02  0.55766926D-02  0.33482389D-02
 -0.22019428D-02  0.64663341D-01  0.32205809D-03 -0.39508367D-03 -0.62358186D-02
 -0.60984944D-02 -0.40295331D-02  0.56314558D-14  0.55074408D-14  0.36389990D-14
 -0.31439109D-02 -0.30746762D-02 -0.20315685D-02  0.12118635D-02 -0.42686146D-14
  0.61443039D-03  0.38271727D-03 -0.14932545D-14  0.23396605D-03  0.28152388D-04
  0.32738082D-16  0.10504321D-04  0.17658078D-02 -0.12310058D-02 -0.53480200D-03
  0.35865055D-16  0.31459382D-02 -0.15227085D-13 -0.62872739D-03  0.44368875D-03
  0.18503863D-03  0.52282436D-14 -0.11358528D-02  0.59405841D-14 -0.42815052D-04
  0.42714727D-04  0.10032522D-06 -0.25461721D-15 -0.11773812D-03  0.13175348D-14
  0.16596636D-04  0.36440314D-14  0.75410250D-04  0.47836533D-04 -0.31318851D-13
 -0.17261039D-03 -0.97626442D-04  0.20386757D-13 -0.53620361D-04  0.31861191D-13
  0.86326602D-04 -0.29307523D-16 -0.12321352D-03 -0.30324077D-03  0.75642991D-14
  0.50919165D-03  0.44260967D-04 -0.74763765D-14 -0.13955109D-03 -0.16015366D-13
MO    4     MO 0.0        OCC NO =    2.0000000  ORB. ENERGY =  -19.324531
  0.49728180D+00  0.92686929D+00  0.15716632D+01  0.23787855D+01  0.29680297D+01
  0.25491417D+01  0.97866507D+00 -0.43776289D-02 -0.78031207D-04 -0.14634946D-03
 -0.24949375D-03 -0.38991017D-03 -0.52138419D-03 -0.55671676D-03 -0.34036571D-03
  0.22455262D-03  0.54235184D-01  0.12641817D-02 -0.36362855D-03 -0.94889852D-06
 -0.92011238D-06 -0.62070237D-06  0.15097941D-15  0.14639924D-15  0.98760060D-16
  0.98679871D-02  0.95686281D-02  0.64549400D-02  0.20160377D-06 -0.11723077D-16
  0.73814734D-03  0.22592033D-06  0.30290584D-15 -0.35642464D-03  0.23819109D-07
 -0.18409204D-16 -0.23286730D-04 -0.19128511D-02 -0.19133449D-02  0.38261961D-02
  0.14258976D-15 -0.12191635D-05 -0.36462462D-15  0.22989827D-03  0.23016177D-03
 -0.46006004D-03 -0.77708624D-16  0.55311241D-06  0.32624049D-15  0.58945848D-04
  0.58970366D-04 -0.11791621D-03  0.32149159D-16  0.11215555D-06  0.42187086D-16
 -0.75454497D-04 -0.54423856D-16  0.28141149D-03  0.22662231D-03 -0.18280678D-16
 -0.42202180D-03 -0.25882332D-06  0.18155225D-15 -0.42221266D-03 -0.23078249D-15
  0.83987877D-05 -0.70087674D-17 -0.17250413D-03 -0.25428408D-04 -0.27528949D-16
  0.25866436D-03  0.23204469D-06  0.48555251D-16  0.25884803D-03  0.61216579D-16
  0.53568946D-03  0.99817843D-03  0.16881700D-02  0.25422904D-02  0.31475205D-02
  0.26783979D-02  0.10191798D-02 -0.47732538D-05 -0.39783071D-03 -0.74593629D-03
 -0.12690596D-02 -0.19707155D-02 -0.26152541D-02 -0.27561189D-02 -0.17089695D-02
  0.11368072D-02  0.85263351D-03 -0.15609729D-02  0.10036167D-03 -0.21069431D-06
 -0.20236936D-06 -0.14191537D-06 -0.13588900D-15 -0.13051976D-15 -0.91529467D-16
 -0.15531087D-02 -0.14917423D-02 -0.10461127D-02  0.10372761D-06  0.11574736D-15
 -0.23030934D-03  0.18073126D-06  0.75790427D-16 -0.12946772D-03 -0.33810823D-07