 Molden2AIM, Version 4.0.0 (06/02/2016)           Time: Fri Jun 29 18:43:49 2018
GAUSSIAN             37 MOL ORBITALS    601 PRIMITIVES        3 NUCLEI
  N    1    (CENTRE  1)   0.00000000  0.00000000 -0.02562280  CHARGE =  7.0
  Se   2    (CENTRE  2)   0.00000000  3.11443306 -0.02517115  CHARGE = 34.0
  Se   3    (CENTRE  3)   0.00000000 -3.11443306 -0.02517115  CHARGE = 34.0
CENTRE ASSIGNMENTS    1  1  1  1  1  1  1  1  1  1  1  1  1  1  1  1  1  1  1  1
CENTRE ASSIGNMENTS    1  1  1  1  1  1  1  1  1  1  1  1  1  1  1  1  1  1  1  1
CENTRE ASSIGNMENTS    1  1  1  1  1  1  1  1  1  1  1  1  1  1  1  1  1  1  1  1
CENTRE ASSIGNMENTS    1  1  1  1  1  1  1  1  1  1  1  1  1  1  1  2  2  2  2  2
CENTRE ASSIGNMENTS    2  2  2  2  2  2  2  2  2  2  2  2  2  2  2  2  2  2  2  2
CENTRE ASSIGNMENTS    2  2  2  2  2  2  2  2  2  2  2  2  2  2  2  2  2  2  2  2
CENTRE ASSIGNMENTS    2  2  2  2  2  2  2  2  2  2  2  2  2  2  2  2  2  2  2  2
CENTRE ASSIGNMENTS    2  2  2  2  2  2  2  2  2  2  2  2  2  2  2  2  2  2  2  2
CENTRE ASSIGNMENTS    2  2  2  2  2  2  2  2  2  2  2  2  2  2  2  2  2  2  2  2
CENTRE ASSIGNMENTS    2  2  2  2  2  2  2  2  2  2  2  2  2  2  2  2  2  2  2  2
CENTRE ASSIGNMENTS    2  2  2  2  2  2  2  2  2  2  2  2  2  2  2  2  2  2  2  2
CENTRE ASSIGNMENTS    2  2  2  2  2  2  2  2  2  2  2  2  2  2  2  2  2  2  2  2
CENTRE ASSIGNMENTS    2  2  2  2  2  2  2  2  2  2  2  2  2  2  2  2  2  2  2  2
CENTRE ASSIGNMENTS    2  2  2  2  2  2  2  2  2  2  2  2  2  2  2  2  2  2  2  2
CENTRE ASSIGNMENTS    2  2  2  2  2  2  2  2  2  2  2  2  2  2  2  2  2  2  2  2
CENTRE ASSIGNMENTS    2  2  2  2  2  2  2  2  2  2  2  2  2  2  2  2  2  2  2  2
CENTRE ASSIGNMENTS    2  2  2  2  2  2  2  2  2  2  2  2  2  2  2  2  2  2  3  3
CENTRE ASSIGNMENTS    3  3  3  3  3  3  3  3  3  3  3  3  3  3  3  3  3  3  3  3
CENTRE ASSIGNMENTS    3  3  3  3  3  3  3  3  3  3  3  3  3  3  3  3  3  3  3  3
CENTRE ASSIGNMENTS    3  3  3  3  3  3  3  3  3  3  3  3  3  3  3  3  3  3  3  3
CENTRE ASSIGNMENTS    3  3  3  3  3  3  3  3  3  3  3  3  3  3  3  3  3  3  3  3
CENTRE ASSIGNMENTS    3  3  3  3  3  3  3  3  3  3  3  3  3  3  3  3  3  3  3  3
CENTRE ASSIGNMENTS    3  3  3  3  3  3  3  3  3  3  3  3  3  3  3  3  3  3  3  3
CENTRE ASSIGNMENTS    3  3  3  3  3  3  3  3  3  3  3  3  3  3  3  3  3  3  3  3
CENTRE ASSIGNMENTS    3  3  3  3  3  3  3  3  3  3  3  3  3  3  3  3  3  3  3  3
CENTRE ASSIGNMENTS    3  3  3  3  3  3  3  3  3  3  3  3  3  3  3  3  3  3  3  3
CENTRE ASSIGNMENTS    3  3  3  3  3  3  3  3  3  3  3  3  3  3  3  3  3  3  3  3
CENTRE ASSIGNMENTS    3  3  3  3  3  3  3  3  3  3  3  3  3  3  3  3  3  3  3  3
CENTRE ASSIGNMENTS    3  3  3  3  3  3  3  3  3  3  3  3  3  3  3  3  3  3  3  3
CENTRE ASSIGNMENTS    3  3  3  3  3  3  3  3  3  3  3  3  3  3  3  3  3  3  3  3
CENTRE ASSIGNMENTS    3
TYPE ASSIGNMENTS      1  1  1  1  1  1  1  1  1  1  1  1  1  1  1  1  1  1  1  2
TYPE ASSIGNMENTS      2  2  3  3  3  4  4  4  2  3  4  2  3  4  2  3  4  5  6  7
TYPE ASSIGNMENTS      8  9 10  5  6  7  8  9 10  5  6  7  8  9 10 11 12 13 17 14
TYPE ASSIGNMENTS     15 18 19 16 20 11 12 13 17 14 15 18 19 16 20  1  1  1  1  1
TYPE ASSIGNMENTS      1  1  1  1  1  1  1  1  1  1  1  1  1  1  1  1  1  1  1  1
TYPE ASSIGNMENTS      1  1  1  1  1  1  1  1  1  1  1  1  1  1  1  1  1  1  1  1
TYPE ASSIGNMENTS      1  1  1  1  1  1  1  1  1  1  1  1  1  1  1  1  1  1  1  1
TYPE ASSIGNMENTS      1  1  1  1  1  1  1  1  1  1  2  2  2  2  2  2  2  2  2  2
TYPE ASSIGNMENTS      2  3  3  3  3  3  3  3  3  3  3  3  4  4  4  4  4  4  4  4
TYPE ASSIGNMENTS      4  4  4  2  2  2  2  2  2  2  2  2  2  2  3  3  3  3  3  3
TYPE ASSIGNMENTS      3  3  3  3  3  4  4  4  4  4  4  4  4  4  4  4  2  2  2  2
TYPE ASSIGNMENTS      2  2  2  2  2  2  2  3  3  3  3  3  3  3  3  3  3  3  4  4
TYPE ASSIGNMENTS      4  4  4  4  4  4  4  4  4  2  3  4  2  3  4  2  3  4  5  5
TYPE ASSIGNMENTS      5  5  5  5  5  6  6  6  6  6  6  6  7  7  7  7  7  7  7  8
TYPE ASSIGNMENTS      8  8  8  8  8  8  9  9  9  9  9  9  9 10 10 10 10 10 10 10
TYPE ASSIGNMENTS      5  6  7  8  9 10  5  6  7  8  9 10  5  6  7  8  9 10 11 12
TYPE ASSIGNMENTS     13 17 14 15 18 19 16 20 11 12 13 17 14 15 18 19 16 20  1  1
TYPE ASSIGNMENTS      1  1  1  1  1  1  1  1  1  1  1  1  1  1  1  1  1  1  1  1
TYPE ASSIGNMENTS      1  1  1  1  1  1  1  1  1  1  1  1  1  1  1  1  1  1  1  1
TYPE ASSIGNMENTS      1  1  1  1  1  1  1  1  1  1  1  1  1  1  1  1  1  1  1  1
TYPE ASSIGNMENTS      1  1  1  1  1  1  1  1  1  1  1  1  1  2  2  2  2  2  2  2
TYPE ASSIGNMENTS      2  2  2  2  3  3  3  3  3  3  3  3  3  3  3  4  4  4  4  4
TYPE ASSIGNMENTS      4  4  4  4  4  4  2  2  2  2  2  2  2  2  2  2  2  3  3  3
TYPE ASSIGNMENTS      3  3  3  3  3  3  3  3  4  4  4  4  4  4  4  4  4  4  4  2
TYPE ASSIGNMENTS      2  2  2  2  2  2  2  2  2  2  3  3  3  3  3  3  3  3  3  3
TYPE ASSIGNMENTS      3  4  4  4  4  4  4  4  4  4  4  4  2  3  4  2  3  4  2  3
TYPE ASSIGNMENTS      4  5  5  5  5  5  5  5  6  6  6  6  6  6  6  7  7  7  7  7
TYPE ASSIGNMENTS      7  7  8  8  8  8  8  8  8  9  9  9  9  9  9  9 10 10 10 10
TYPE ASSIGNMENTS     10 10 10  5  6  7  8  9 10  5  6  7  8  9 10  5  6  7  8  9
TYPE ASSIGNMENTS     10 11 12 13 17 14 15 18 19 16 20 11 12 13 17 14 15 18 19 16
TYPE ASSIGNMENTS     20
EXPONENTS  0.1142000D+05 0.1712000D+04 0.3893000D+03 0.1100000D+03 0.3557000D+02
EXPONENTS  0.1254000D+02 0.4644000D+01 0.5118000D+00 0.1142000D+05 0.1712000D+04
EXPONENTS  0.3893000D+03 0.1100000D+03 0.3557000D+02 0.1254000D+02 0.4644000D+01
EXPONENTS  0.5118000D+00 0.1293000D+01 0.1787000D+00 0.5760000D-01 0.2663000D+02
EXPONENTS  0.5948000D+01 0.1742000D+01 0.2663000D+02 0.5948000D+01 0.1742000D+01
EXPONENTS  0.2663000D+02 0.5948000D+01 0.1742000D+01 0.5550000D+00 0.5550000D+00
EXPONENTS  0.5550000D+00 0.1725000D+00 0.1725000D+00 0.1725000D+00 0.4910000D-01
EXPONENTS  0.4910000D-01 0.4910000D-01 0.1654000D+01 0.1654000D+01 0.1654000D+01
EXPONENTS  0.1654000D+01 0.1654000D+01 0.1654000D+01 0.4690000D+00 0.4690000D+00
EXPONENTS  0.4690000D+00 0.4690000D+00 0.4690000D+00 0.4690000D+00 0.1510000D+00
EXPONENTS  0.1510000D+00 0.1510000D+00 0.1510000D+00 0.1510000D+00 0.1510000D+00
EXPONENTS  0.1093000D+01 0.1093000D+01 0.1093000D+01 0.1093000D+01 0.1093000D+01
EXPONENTS  0.1093000D+01 0.1093000D+01 0.1093000D+01 0.1093000D+01 0.1093000D+01
EXPONENTS  0.3640000D+00 0.3640000D+00 0.3640000D+00 0.3640000D+00 0.3640000D+00
EXPONENTS  0.3640000D+00 0.3640000D+00 0.3640000D+00 0.3640000D+00 0.3640000D+00
EXPONENTS  0.9563600D+07 0.1432100D+07 0.3259100D+06 0.9231200D+05 0.3011600D+05
EXPONENTS  0.1087200D+05 0.4240100D+04 0.1758400D+04 0.7665900D+03 0.3484300D+03
EXPONENTS  0.1640300D+03 0.7914200D+02 0.3552400D+02 0.1730500D+02 0.8378400D+01
EXPONENTS  0.3740500D+01 0.1689000D+01 0.2552000D+00 0.9563600D+07 0.1432100D+07
EXPONENTS  0.3259100D+06 0.9231200D+05 0.3011600D+05 0.1087200D+05 0.4240100D+04
EXPONENTS  0.1758400D+04 0.7665900D+03 0.3484300D+03 0.1640300D+03 0.7914200D+02
EXPONENTS  0.3552400D+02 0.1730500D+02 0.8378400D+01 0.3740500D+01 0.1689000D+01
EXPONENTS  0.2552000D+00 0.9563600D+07 0.1432100D+07 0.3259100D+06 0.9231200D+05
EXPONENTS  0.3011600D+05 0.1087200D+05 0.4240100D+04 0.1758400D+04 0.7665900D+03
EXPONENTS  0.3484300D+03 0.1640300D+03 0.7914200D+02 0.3552400D+02 0.1730500D+02
EXPONENTS  0.8378400D+01 0.3740500D+01 0.1689000D+01 0.2552000D+00 0.9563600D+07
EXPONENTS  0.1432100D+07 0.3259100D+06 0.9231200D+05 0.3011600D+05 0.1087200D+05
EXPONENTS  0.4240100D+04 0.1758400D+04 0.7665900D+03 0.3484300D+03 0.1640300D+03
EXPONENTS  0.7914200D+02 0.3552400D+02 0.1730500D+02 0.8378400D+01 0.3740500D+01
EXPONENTS  0.1689000D+01 0.2552000D+00 0.5092700D+00 0.1065100D+00 0.3920100D-01
EXPONENTS  0.8004300D+04 0.1896900D+04 0.6147100D+03 0.2335000D+03 0.9785600D+02
EXPONENTS  0.4351400D+02 0.2006300D+02 0.9112700D+01 0.4106300D+01 0.1794900D+01
EXPONENTS  0.2461500D+00 0.8004300D+04 0.1896900D+04 0.6147100D+03 0.2335000D+03
EXPONENTS  0.9785600D+02 0.4351400D+02 0.2006300D+02 0.9112700D+01 0.4106300D+01
EXPONENTS  0.1794900D+01 0.2461500D+00 0.8004300D+04 0.1896900D+04 0.6147100D+03
EXPONENTS  0.2335000D+03 0.9785600D+02 0.4351400D+02 0.2006300D+02 0.9112700D+01
EXPONENTS  0.4106300D+01 0.1794900D+01 0.2461500D+00 0.8004300D+04 0.1896900D+04
EXPONENTS  0.6147100D+03 0.2335000D+03 0.9785600D+02 0.4351400D+02 0.2006300D+02
EXPONENTS  0.9112700D+01 0.4106300D+01 0.1794900D+01 0.2461500D+00 0.8004300D+04
EXPONENTS  0.1896900D+04 0.6147100D+03 0.2335000D+03 0.9785600D+02 0.4351400D+02
EXPONENTS  0.2006300D+02 0.9112700D+01 0.4106300D+01 0.1794900D+01 0.2461500D+00
EXPONENTS  0.8004300D+04 0.1896900D+04 0.6147100D+03 0.2335000D+03 0.9785600D+02
EXPONENTS  0.4351400D+02 0.2006300D+02 0.9112700D+01 0.4106300D+01 0.1794900D+01
EXPONENTS  0.2461500D+00 0.8004300D+04 0.1896900D+04 0.6147100D+03 0.2335000D+03
EXPONENTS  0.9785600D+02 0.4351400D+02 0.2006300D+02 0.9112700D+01 0.4106300D+01
EXPONENTS  0.1794900D+01 0.2461500D+00 0.8004300D+04 0.1896900D+04 0.6147100D+03
EXPONENTS  0.2335000D+03 0.9785600D+02 0.4351400D+02 0.2006300D+02 0.9112700D+01
EXPONENTS  0.4106300D+01 0.1794900D+01 0.2461500D+00 0.8004300D+04 0.1896900D+04
EXPONENTS  0.6147100D+03 0.2335000D+03 0.9785600D+02 0.4351400D+02 0.2006300D+02
EXPONENTS  0.9112700D+01 0.4106300D+01 0.1794900D+01 0.2461500D+00 0.6243200D+00
EXPONENTS  0.6243200D+00 0.6243200D+00 0.8891700D-01 0.8891700D-01 0.8891700D-01
EXPONENTS  0.3025100D-01 0.3025100D-01 0.3025100D-01 0.3618500D+03 0.1085500D+03
EXPONENTS  0.4143300D+02 0.1757900D+02 0.7862700D+01 0.3518000D+01 0.1534800D+01
EXPONENTS  0.3618500D+03 0.1085500D+03 0.4143300D+02 0.1757900D+02 0.7862700D+01
EXPONENTS  0.3518000D+01 0.1534800D+01 0.3618500D+03 0.1085500D+03 0.4143300D+02
EXPONENTS  0.1757900D+02 0.7862700D+01 0.3518000D+01 0.1534800D+01 0.3618500D+03
EXPONENTS  0.1085500D+03 0.4143300D+02 0.1757900D+02 0.7862700D+01 0.3518000D+01
EXPONENTS  0.1534800D+01 0.3618500D+03 0.1085500D+03 0.4143300D+02 0.1757900D+02
EXPONENTS  0.7862700D+01 0.3518000D+01 0.1534800D+01 0.3618500D+03 0.1085500D+03
EXPONENTS  0.4143300D+02 0.1757900D+02 0.7862700D+01 0.3518000D+01 0.1534800D+01
EXPONENTS  0.6081300D+00 0.6081300D+00 0.6081300D+00 0.6081300D+00 0.6081300D+00
EXPONENTS  0.6081300D+00 0.2220000D+00 0.2220000D+00 0.2220000D+00 0.2220000D+00
EXPONENTS  0.2220000D+00 0.2220000D+00 0.8370000D-01 0.8370000D-01 0.8370000D-01
EXPONENTS  0.8370000D-01 0.8370000D-01 0.8370000D-01 0.4620000D+00 0.4620000D+00
EXPONENTS  0.4620000D+00 0.4620000D+00 0.4620000D+00 0.4620000D+00 0.4620000D+00
EXPONENTS  0.4620000D+00 0.4620000D+00 0.4620000D+00 0.1880000D+00 0.1880000D+00
EXPONENTS  0.1880000D+00 0.1880000D+00 0.1880000D+00 0.1880000D+00 0.1880000D+00
EXPONENTS  0.1880000D+00 0.1880000D+00 0.1880000D+00 0.9563600D+07 0.1432100D+07
EXPONENTS  0.3259100D+06 0.9231200D+05 0.3011600D+05 0.1087200D+05 0.4240100D+04
EXPONENTS  0.1758400D+04 0.7665900D+03 0.3484300D+03 0.1640300D+03 0.7914200D+02
EXPONENTS  0.3552400D+02 0.1730500D+02 0.8378400D+01 0.3740500D+01 0.1689000D+01
EXPONENTS  0.2552000D+00 0.9563600D+07 0.1432100D+07 0.3259100D+06 0.9231200D+05
EXPONENTS  0.3011600D+05 0.1087200D+05 0.4240100D+04 0.1758400D+04 0.7665900D+03
EXPONENTS  0.3484300D+03 0.1640300D+03 0.7914200D+02 0.3552400D+02 0.1730500D+02
EXPONENTS  0.8378400D+01 0.3740500D+01 0.1689000D+01 0.2552000D+00 0.9563600D+07
EXPONENTS  0.1432100D+07 0.3259100D+06 0.9231200D+05 0.3011600D+05 0.1087200D+05
EXPONENTS  0.4240100D+04 0.1758400D+04 0.7665900D+03 0.3484300D+03 0.1640300D+03
EXPONENTS  0.7914200D+02 0.3552400D+02 0.1730500D+02 0.8378400D+01 0.3740500D+01
EXPONENTS  0.1689000D+01 0.2552000D+00 0.9563600D+07 0.1432100D+07 0.3259100D+06
EXPONENTS  0.9231200D+05 0.3011600D+05 0.1087200D+05 0.4240100D+04 0.1758400D+04
EXPONENTS  0.7665900D+03 0.3484300D+03 0.1640300D+03 0.7914200D+02 0.3552400D+02
EXPONENTS  0.1730500D+02 0.8378400D+01 0.3740500D+01 0.1689000D+01 0.2552000D+00
EXPONENTS  0.5092700D+00 0.1065100D+00 0.3920100D-01 0.8004300D+04 0.1896900D+04
EXPONENTS  0.6147100D+03 0.2335000D+03 0.9785600D+02 0.4351400D+02 0.2006300D+02
EXPONENTS  0.9112700D+01 0.4106300D+01 0.1794900D+01 0.2461500D+00 0.8004300D+04
EXPONENTS  0.1896900D+04 0.6147100D+03 0.2335000D+03 0.9785600D+02 0.4351400D+02
EXPONENTS  0.2006300D+02 0.9112700D+01 0.4106300D+01 0.1794900D+01 0.2461500D+00
EXPONENTS  0.8004300D+04 0.1896900D+04 0.6147100D+03 0.2335000D+03 0.9785600D+02
EXPONENTS  0.4351400D+02 0.2006300D+02 0.9112700D+01 0.4106300D+01 0.1794900D+01
EXPONENTS  0.2461500D+00 0.8004300D+04 0.1896900D+04 0.6147100D+03 0.2335000D+03
EXPONENTS  0.9785600D+02 0.4351400D+02 0.2006300D+02 0.9112700D+01 0.4106300D+01
EXPONENTS  0.1794900D+01 0.2461500D+00 0.8004300D+04 0.1896900D+04 0.6147100D+03
EXPONENTS  0.2335000D+03 0.9785600D+02 0.4351400D+02 0.2006300D+02 0.9112700D+01
EXPONENTS  0.4106300D+01 0.1794900D+01 0.2461500D+00 0.8004300D+04 0.1896900D+04
EXPONENTS  0.6147100D+03 0.2335000D+03 0.9785600D+02 0.4351400D+02 0.2006300D+02
EXPONENTS  0.9112700D+01 0.4106300D+01 0.1794900D+01 0.2461500D+00 0.8004300D+04
EXPONENTS  0.1896900D+04 0.6147100D+03 0.2335000D+03 0.9785600D+02 0.4351400D+02
EXPONENTS  0.2006300D+02 0.9112700D+01 0.4106300D+01 0.1794900D+01 0.2461500D+00
EXPONENTS  0.8004300D+04 0.1896900D+04 0.6147100D+03 0.2335000D+03 0.9785600D+02
EXPONENTS  0.4351400D+02 0.2006300D+02 0.9112700D+01 0.4106300D+01 0.1794900D+01
EXPONENTS  0.2461500D+00 0.8004300D+04 0.1896900D+04 0.6147100D+03 0.2335000D+03
EXPONENTS  0.9785600D+02 0.4351400D+02 0.2006300D+02 0.9112700D+01 0.4106300D+01
EXPONENTS  0.1794900D+01 0.2461500D+00 0.6243200D+00 0.6243200D+00 0.6243200D+00
EXPONENTS  0.8891700D-01 0.8891700D-01 0.8891700D-01 0.3025100D-01 0.3025100D-01
EXPONENTS  0.3025100D-01 0.3618500D+03 0.1085500D+03 0.4143300D+02 0.1757900D+02
EXPONENTS  0.7862700D+01 0.3518000D+01 0.1534800D+01 0.3618500D+03 0.1085500D+03
EXPONENTS  0.4143300D+02 0.1757900D+02 0.7862700D+01 0.3518000D+01 0.1534800D+01
EXPONENTS  0.3618500D+03 0.1085500D+03 0.4143300D+02 0.1757900D+02 0.7862700D+01
EXPONENTS  0.3518000D+01 0.1534800D+01 0.3618500D+03 0.1085500D+03 0.4143300D+02
EXPONENTS  0.1757900D+02 0.7862700D+01 0.3518000D+01 0.1534800D+01 0.3618500D+03
EXPONENTS  0.1085500D+03 0.4143300D+02 0.1757900D+02 0.7862700D+01 0.3518000D+01
EXPONENTS  0.1534800D+01 0.3618500D+03 0.1085500D+03 0.4143300D+02 0.1757900D+02
EXPONENTS  0.7862700D+01 0.3518000D+01 0.1534800D+01 0.6081300D+00 0.6081300D+00
EXPONENTS  0.6081300D+00 0.6081300D+00 0.6081300D+00 0.6081300D+00 0.2220000D+00
EXPONENTS  0.2220000D+00 0.2220000D+00 0.2220000D+00 0.2220000D+00 0.2220000D+00
EXPONENTS  0.8370000D-01 0.8370000D-01 0.8370000D-01 0.8370000D-01 0.8370000D-01
EXPONENTS  0.8370000D-01 0.4620000D+00 0.4620000D+00 0.4620000D+00 0.4620000D+00
EXPONENTS  0.4620000D+00 0.4620000D+00 0.4620000D+00 0.4620000D+00 0.4620000D+00
EXPONENTS  0.4620000D+00 0.1880000D+00 0.1880000D+00 0.1880000D+00 0.1880000D+00
EXPONENTS  0.1880000D+00 0.1880000D+00 0.1880000D+00 0.1880000D+00 0.1880000D+00
EXPONENTS  0.1880000D+00
MO    1     MO 0.0        OCC NO =    2.0000000  ORB. ENERGY = -454.585785
 -0.13014722D-04 -0.24251018D-04 -0.41014552D-04 -0.61765642D-04 -0.76469872D-04
 -0.65072410D-04 -0.24761252D-04  0.11596751D-06  0.90915510D-05  0.17046743D-04
  0.29001582D-04  0.45036395D-04  0.59765915D-04  0.62985071D-04  0.39054762D-04
 -0.25979243D-04 -0.98767330D-05  0.58104952D-04  0.25817479D-05 -0.97894542D-17
 -0.94026537D-17 -0.65937898D-17  0.63234247D-06  0.60735739D-06  0.42592092D-06
 -0.87872597D-08 -0.84400579D-08 -0.59187512D-08  0.15682917D-17 -0.44112004D-06
  0.82710646D-08 -0.38127210D-19 -0.19468431D-05 -0.89807534D-09  0.44060974D-21
  0.84806798D-07 -0.33753807D-09  0.14262709D-04 -0.28525419D-04  0.14262710D-04
  0.16542492D-19 -0.80075590D-21  0.36861256D-09 -0.16510612D-04  0.33021225D-04
 -0.16510613D-04 -0.68188687D-20  0.66011445D-22 -0.37586385D-09 -0.68871388D-05
  0.13774278D-04 -0.68871387D-05 -0.73071657D-20 -0.14546142D-21 -0.31115489D-09
  0.55533508D-20  0.13603115D-06 -0.27564145D-08 -0.22423956D-19 -0.20404679D-06
 -0.27564142D-08  0.57639042D-20 -0.20404667D-06  0.11025658D-07  0.53383144D-21
 -0.30352410D-20 -0.17889427D-06  0.19150070D-09  0.12126243D-19  0.26834144D-06
  0.19150066D-09 -0.30205195D-20  0.26834137D-06 -0.76600276D-09  0.14954421D-21
  0.53277096D+00  0.99545770D+00  0.17264967D+01  0.28284426D+01  0.44291165D+01
  0.66513519D+01  0.94867323D+01  0.12533895D+02  0.14454662D+02  0.13009660D+02
  0.72987425D+01  0.17645101D+01  0.83770191D-01 -0.14335598D-02  0.40319858D-03
 -0.15712585D-03  0.14862311D-04  0.14654552D-05  0.59741845D-04  0.11001554D-03
  0.19095933D-03  0.31275562D-03  0.49226295D-03  0.74300574D-03  0.10830859D-02
  0.14873045D-02  0.18888578D-02  0.20341800D-02  0.16228306D-02  0.36350111D-03
 -0.97199380D-03 -0.86436922D-03 -0.16881481D-03 -0.46765177D-05 -0.33865751D-06
 -0.69163128D-08 -0.49480437D-04 -0.89332347D-04 -0.15551061D-03 -0.25465518D-03
 -0.40147839D-03 -0.60581985D-03 -0.88666243D-03 -0.12217043D-02 -0.15738825D-02
 -0.17323497D-02 -0.14583576D-02 -0.34728712D-03  0.11697965D-02  0.15630934D-02
  0.19202922D-03 -0.67097619D-03 -0.29619234D-03  0.14699493D-05  0.18098101D-04
  0.39209334D-04  0.66748754D-04  0.10895755D-03  0.17177625D-03  0.25922001D-03
  0.37939049D-03  0.52334540D-03  0.67506085D-03  0.74629058D-03  0.63205278D-03
  0.15352982D-03 -0.53265802D-03 -0.75178571D-03 -0.89698390D-04  0.42156180D-03
  0.33697767D-03 -0.12766308D-03  0.92716232D-04  0.48152339D-05  0.12401922D-05
 -0.42398594D-17 -0.60767019D-17 -0.80245180D-17 -0.92237788D-17 -0.84852999D-17
 -0.54282788D-17 -0.18789378D-17 -0.21123754D-18 -0.26874564D-20 -0.46568976D-21
 -0.47588425D-23  0.31219928D-03  0.44745396D-03  0.59088013D-03  0.67918692D-03
  0.62480951D-03  0.39970776D-03  0.13835436D-03  0.15554338D-04  0.19788910D-06
  0.34290761D-07  0.35041426D-09  0.12615066D-06  0.18080315D-06  0.23875749D-06
  0.27443970D-06  0.25246737D-06  0.16151029D-06  0.55904977D-07  0.62850562D-08
  0.79961235D-10  0.13855900D-10  0.14159222D-12 -0.27287454D-18 -0.39360003D-18
 -0.52422431D-18 -0.62040019D-18 -0.59618128D-18 -0.40978755D-18 -0.12901946D-18
  0.62353941D-19  0.63990236D-19  0.16115116D-19 -0.17570022D-22 -0.21316667D-02
 -0.30747612D-02 -0.40951841D-02 -0.48464997D-02 -0.46573042D-02 -0.32012164D-02
 -0.10078862D-02  0.48710230D-03  0.49988486D-03  0.12588956D-03 -0.13725513D-06
 -0.67545791D-06 -0.97429482D-06 -0.12976346D-05 -0.15357029D-05 -0.14757528D-05
 -0.10143645D-05 -0.31936734D-06  0.15434735D-06  0.15839774D-06  0.39890430D-07
 -0.43491820D-10  0.90523924D-19  0.13123136D-18  0.17417680D-18  0.20786335D-18
  0.19970734D-18  0.13978449D-18  0.42206684D-19 -0.25836787D-19 -0.27787003D-19
 -0.74728341D-20  0.27856288D-20  0.15993946D-02  0.23186216D-02  0.30773903D-02
  0.36725709D-02  0.35284688D-02  0.24697401D-02  0.74571607D-03 -0.45648948D-03
 -0.49094628D-03 -0.13203151D-03  0.49217042D-04  0.49186357D-06  0.71304822D-06
  0.94639317D-06  0.11294297D-05  0.10851138D-05  0.75952183D-06  0.22933087D-06
 -0.14038470D-06 -0.15098124D-06 -0.40603795D-07  0.15135770D-07  0.22013301D-20
 -0.13680147D-04 -0.87558462D-08  0.11477353D-20 -0.56213707D-05  0.57658033D-09
 -0.10416080D-21 -0.61825448D-07  0.30821444D-12 -0.13657685D-03 -0.14137009D-03
 -0.11827973D-03 -0.76324010D-04 -0.34285789D-04 -0.10010895D-04 -0.16888994D-05
  0.27315371D-03  0.28274019D-03  0.23655945D-03  0.15264802D-03  0.68571578D-04
  0.20021791D-04  0.33777988D-05 -0.13657685D-03 -0.14137009D-03 -0.11827973D-03
 -0.76324011D-04 -0.34285789D-04 -0.10010896D-04 -0.16888994D-05  0.59133800D-18
  0.61209133D-18  0.51211677D-18  0.33046074D-18  0.14844748D-18  0.43344262D-19
  0.73124426D-20  0.25256061D-17  0.26142436D-17  0.21872520D-17  0.14113987D-17
  0.63401957D-18  0.18512345D-18  0.31231461D-19  0.11348246D-06  0.11746519D-06
  0.98279273D-07  0.63418039D-07  0.28488250D-07  0.83181080D-08  0.14033158D-08
  0.83832813D-05 -0.16766563D-04  0.83832816D-05  0.13161689D-19 -0.14007025D-19
 -0.55402636D-08  0.21793144D-05 -0.43586276D-05  0.21793132D-05 -0.65325179D-21
  0.12611863D-20 -0.72406846D-08 -0.50237683D-06  0.10047537D-05 -0.50237687D-06
 -0.25074598D-21 -0.74968892D-22  0.28540346D-09  0.89075764D-21  0.46812073D-05
 -0.18501030D-08 -0.36376987D-20 -0.70218118D-05 -0.18501030D-08  0.96542573D-21
 -0.70218102D-05  0.74004122D-08  0.83946849D-21 -0.38424995D-22 -0.34591442D-06
 -0.21029812D-11  0.15471797D-21  0.51887145D-06 -0.21030401D-11 -0.39442985D-22
  0.51887180D-06  0.84119836D-11 -0.10131470D-21  0.55890699D+00  0.10442916D+01
  0.18111931D+01  0.29671969D+01  0.46463947D+01  0.69776458D+01  0.99521208D+01
  0.13148768D+02  0.15163761D+02  0.13647872D+02  0.76567953D+01  0.18510712D+01
  0.87879686D-01 -0.15038856D-02  0.42297821D-03 -0.16483393D-03  0.15591408D-04
  0.15373457D-05  0.62371406D-04  0.11485791D-03  0.19936448D-03  0.32652168D-03
  0.51393010D-03  0.77570943D-03  0.11307584D-02  0.15527688D-02  0.19719966D-02
  0.21237153D-02  0.16942601D-02  0.37950076D-03 -0.10147765D-02 -0.90241477D-03
 -0.17624527D-03 -0.48823565D-05 -0.35356365D-06 -0.72207371D-08 -0.51474493D-04
 -0.92932430D-04 -0.16177766D-03 -0.26491775D-03 -0.41765792D-03 -0.63023432D-03
 -0.92239482D-03 -0.12709389D-02 -0.16373098D-02 -0.18021632D-02 -0.15171292D-02
 -0.36128275D-03  0.12169392D-02  0.16260859D-02  0.19976798D-03 -0.69801645D-03
 -0.30812885D-03  0.15291881D-05  0.18796602D-04  0.40722628D-04  0.69324940D-04
  0.11316280D-03  0.17840600D-03  0.26922468D-03  0.39403317D-03  0.54354406D-03
  0.70111501D-03  0.77509386D-03  0.65644703D-03  0.15945535D-03 -0.55321611D-03
 -0.78080109D-03 -0.93160324D-04  0.43783209D-03  0.34998341D-03 -0.13259027D-03
  0.96689366D-04  0.43364432D-05  0.14489414D-05 -0.61950635D-17 -0.88789628D-17
 -0.11725011D-16 -0.13477309D-16 -0.12398282D-16 -0.79315206D-17 -0.27454069D-17
 -0.30864938D-18 -0.39267725D-20 -0.68044181D-21 -0.69533749D-23 -0.32906190D-03
 -0.47162202D-03 -0.62279498D-03 -0.71587143D-03 -0.65855696D-03 -0.42129693D-03
 -0.14582721D-03 -0.16394465D-04 -0.20857756D-06 -0.36142887D-07 -0.36934097D-09
  0.12400148D-06  0.17772287D-06  0.23468987D-06  0.26976418D-06  0.24816618D-06
  0.15875870D-06  0.54952545D-07  0.61779801D-08  0.78598966D-10  0.13619843D-10
  0.13917997D-12 -0.38555603D-18 -0.55613420D-18 -0.74069880D-18 -0.87658978D-18
 -0.84236986D-18 -0.57900623D-18 -0.18229708D-18  0.88102531D-19  0.90414523D-19
  0.22769732D-19 -0.24825431D-22  0.22421441D-02  0.32341162D-02  0.43074244D-02
  0.50976783D-02  0.48986774D-02  0.33671252D-02  0.10601217D-02 -0.51234725D-03
 -0.52579230D-03 -0.13241401D-03  0.14436862D-06 -0.67423371D-06 -0.97252900D-06
 -0.12952828D-05 -0.15329195D-05 -0.14730781D-05 -0.10125260D-05 -0.31878851D-06
  0.15406761D-06  0.15811066D-06  0.39818132D-07 -0.43412995D-10 -0.28255537D-18
 -0.40961685D-18 -0.54366392D-18 -0.64881087D-18 -0.62335322D-18 -0.43631403D-18
 -0.13174114D-18  0.80645234D-19  0.86732508D-19  0.23325209D-19 -0.86948769D-20
 -0.16812613D-02 -0.24373026D-02 -0.32349097D-02 -0.38605552D-02 -0.37090771D-02
 -0.25961562D-02 -0.78388630D-03  0.47985536D-03  0.51607587D-03  0.13878968D-03
 -0.51736266D-04  0.49177224D-06  0.71291583D-06  0.94621746D-06  0.11292200D-05
  0.10849124D-05  0.75938082D-06  0.22928829D-06 -0.14035864D-06 -0.15095321D-06
 -0.40596256D-07  0.15132960D-07 -0.11993133D-19  0.14294820D-04 -0.84455080D-08
 -0.35947389D-20  0.54389943D-05  0.43262159D-09  0.27174304D-22  0.76025754D-07
 -0.13250378D-11 -0.14123667D-03 -0.14619345D-03 -0.12231527D-03 -0.78928081D-04
 -0.35455573D-04 -0.10352453D-04 -0.17465223D-05  0.28247333D-03  0.29238689D-03
  0.24463053D-03  0.15785616D-03  0.70911145D-04  0.20704907D-04  0.34930447D-05
 -0.14123667D-03 -0.14619344D-03 -0.12231527D-03 -0.78928080D-04 -0.35455573D-04
 -0.10352453D-04 -0.17465223D-05  0.46877513D-18  0.48522706D-18  0.40597358D-18
  0.26196824D-18  0.11767972D-18  0.34360573D-19  0.57968392D-20 -0.34495965D-18
 -0.35706620D-18 -0.29874559D-18 -0.19277574D-18 -0.86597498D-19 -0.25285068D-19
 -0.42657459D-20 -0.12224086D-06 -0.12653097D-06 -0.10586432D-06 -0.68312545D-07
 -0.30686929D-07 -0.89600867D-08 -0.15116215D-08  0.86910327D-05 -0.17382066D-04
  0.86910328D-05 -0.60316222D-20  0.12466711D-20  0.61745299D-08  0.23380051D-05
 -0.46760089D-05  0.23380039D-05 -0.10597750D-19 -0.13270258D-21  0.71187371D-08
 -0.49734572D-06  0.99469146D-06 -0.49734574D-06 -0.85626633D-21  0.32441613D-22
 -0.31886961D-09  0.13341839D-20 -0.48729889D-05 -0.18903380D-08 -0.56971305D-20
  0.73094842D-05 -0.18903380D-08  0.16945789D-20  0.73094824D-05  0.75613520D-08
  0.26329564D-21  0.40232474D-21  0.36277303D-06  0.82812047D-11 -0.15922552D-20
 -0.54415939D-06  0.82811508D-11  0.38528093D-21 -0.54415971D-06 -0.33124765D-10
  0.86796177D-22
MO    2     MO 0.0        OCC NO =    2.0000000  ORB. ENERGY = -454.585785
 -0.31158576D-06 -0.58059418D-06 -0.98193031D-06 -0.14787326D-05 -0.18307669D-05
 -0.15579000D-05 -0.59280970D-06  0.27763807D-08  0.21766103D-06  0.40811646D-06
  0.69432753D-06  0.10782173D-05  0.14308571D-05  0.15079270D-05  0.93501094D-06
 -0.62196964D-06 -0.23645910D-06  0.13910918D-05  0.61809563D-07  0.38554052D-15
  0.37030706D-15  0.25968487D-15 -0.26412510D-04 -0.25368901D-04 -0.17790424D-04
 -0.21037677D-09 -0.20206438D-09 -0.14170149D-09 -0.52538290D-16  0.18425279D-04
  0.19801800D-09 -0.15808034D-17  0.81318317D-04 -0.21500867D-10 -0.54055341D-20
 -0.35423143D-05 -0.80810093D-11  0.34146382D-06 -0.68292769D-06  0.34146387D-06
  0.13470864D-18  0.12789824D-21 -0.15396695D-07 -0.39528094D-06  0.79056189D-06
 -0.39528095D-06 -0.67424461D-19  0.10966292D-21  0.15699575D-07 -0.16488515D-06
  0.32977031D-06 -0.16488515D-06  0.14208197D-19 -0.18139048D-21  0.12996724D-07
 -0.11838080D-19 -0.56819287D-05 -0.65991383D-10  0.50898035D-19  0.85228955D-05
 -0.65991378D-10 -0.15383796D-19  0.85228906D-05  0.26396553D-09  0.56647243D-21
 -0.31901165D-21  0.74722918D-05  0.45847243D-11  0.23646695D-20 -0.11208439D-04
  0.45847235D-11 -0.14076346D-20 -0.11208436D-04 -0.18338897D-10  0.19077872D-22
  0.55890982D+00  0.10442969D+01  0.18112022D+01  0.29672120D+01  0.46464183D+01
  0.69776812D+01  0.99521713D+01  0.13148834D+02  0.15163838D+02  0.13647941D+02
  0.76568342D+01  0.18510806D+01  0.87880132D-01 -0.15038932D-02  0.42298035D-03
 -0.16483477D-03  0.15591487D-04  0.15373535D-05  0.56379235D-04  0.10382324D-03
  0.18021106D-03  0.29515196D-03  0.46455560D-03  0.70118516D-03  0.10221237D-02
  0.14035906D-02  0.17825422D-02  0.19196849D-02  0.15314885D-02  0.34304121D-03
 -0.91728448D-03 -0.81571762D-03 -0.15931296D-03 -0.44132967D-05 -0.31959594D-06
 -0.65270236D-08 -0.42853644D-04 -0.77368286D-04 -0.13468345D-03 -0.22054984D-03
 -0.34770938D-03 -0.52468389D-03 -0.76791392D-03 -0.10580845D-02 -0.13630963D-02
 -0.15003404D-02 -0.12630433D-02 -0.30077581D-03  0.10131286D-02  0.13537522D-02
  0.16631122D-03 -0.58111400D-03 -0.25652403D-03  0.12730826D-05  0.15029602D-04
  0.32561467D-04  0.55431631D-04  0.90484006D-04  0.14265192D-03  0.21526976D-03
  0.31506556D-03  0.43461319D-03  0.56060558D-03  0.61975845D-03  0.52488945D-03
  0.12749913D-03 -0.44234688D-03 -0.62432189D-03 -0.74490201D-04  0.35008681D-03
  0.27984375D-03 -0.10601805D-03  0.85244803D-04 -0.98898505D-05  0.43918313D-05
 -0.44743230D-17 -0.64127425D-17 -0.84682726D-17 -0.97338524D-17 -0.89545357D-17
 -0.57284618D-17 -0.19828428D-17 -0.22291895D-18 -0.28360724D-20 -0.49144233D-21
 -0.50220058D-23  0.35984648D-03  0.51574346D-03  0.68105902D-03  0.78284301D-03
  0.72016664D-03  0.46071033D-03  0.15946971D-03  0.17928209D-04  0.22809052D-06
  0.39524145D-07  0.40389375D-09 -0.41890430D-07 -0.60038701D-07 -0.79283408D-07
 -0.91132280D-07 -0.83836001D-07 -0.53632187D-07 -0.18564180D-07 -0.20870577D-08
 -0.26552462D-10 -0.46010827D-11 -0.47018059D-13 -0.44296501D-18 -0.63894213D-18
 -0.85098825D-18 -0.10071133D-17 -0.96779805D-18 -0.66521979D-18 -0.20944096D-18
  0.10122093D-18  0.10387717D-18  0.26160127D-19 -0.28521917D-22 -0.23596410D-02
 -0.34035962D-02 -0.45331497D-02 -0.53648160D-02 -0.51553867D-02 -0.35435753D-02
 -0.11156761D-02  0.53919619D-03  0.55334581D-03  0.13935301D-03 -0.15193409D-06
  0.94104960D-08  0.13573899D-07  0.18078677D-07  0.21395449D-07  0.20560223D-07
  0.14132150D-07  0.44494334D-08 -0.21503710D-08 -0.22068012D-08 -0.55575443D-09
  0.60592909D-12  0.31859329D-18  0.46186054D-18  0.61300436D-18  0.73156205D-18
  0.70285747D-18  0.49196276D-18  0.14854378D-18 -0.90930956D-19 -0.97794619D-19
 -0.26300172D-19  0.98038462D-20  0.17490282D-02  0.25355434D-02  0.33652997D-02
  0.40161633D-02  0.38585795D-02  0.27007999D-02  0.81548254D-03 -0.49919697D-03
 -0.53687743D-03 -0.14438390D-03  0.53821609D-04  0.98674800D-08  0.14304757D-07
  0.18985988D-07  0.22657960D-07  0.21768921D-07  0.15237084D-07  0.46007021D-08
 -0.28163161D-08 -0.30288976D-08 -0.81456965D-09  0.30364499D-09 -0.83026104D-20
 -0.13172093D-04  0.62753956D-08 -0.52545569D-20  0.36764745D-05 -0.29944461D-08
  0.19776996D-20 -0.29821789D-06 -0.34121926D-10 -0.10064419D-03 -0.10417636D-03
 -0.87160947D-04 -0.56243561D-04 -0.25265377D-04 -0.73770811D-05 -0.12445588D-05
  0.20128834D-03  0.20835266D-03  0.17432185D-03  0.11248709D-03  0.50530740D-04
  0.14754158D-04  0.24891169D-05 -0.10064414D-03 -0.10417631D-03 -0.87160902D-04
 -0.56243533D-04 -0.25265364D-04 -0.73770773D-05 -0.12445582D-05  0.12444547D-18
  0.12881296D-18  0.10777358D-18  0.69544564D-19  0.31240369D-19  0.91216821D-20
  0.15388837D-20  0.26391774D-17  0.27318008D-17  0.22856083D-17  0.14748664D-17
  0.66253014D-18  0.19344808D-18  0.32635876D-19  0.18573790D-06  0.19225648D-06
  0.16085470D-06  0.10379696D-06  0.46627012D-07  0.13614333D-07  0.22968214D-08
  0.66316701D-05 -0.13263337D-04  0.66316671D-05  0.35680169D-19 -0.14645999D-19
 -0.13386663D-07  0.33682745D-05 -0.67365500D-05  0.33682755D-05 -0.12107151D-19