 Molden2AIM, Version 4.0.0 (06/02/2016)           Time: Fri Jun 29 19:20:50 2018
GAUSSIAN             23 MOL ORBITALS    393 PRIMITIVES        3 NUCLEI
  P    1    (CENTRE  1)   0.00000000  0.00000000 -3.71243311  CHARGE = 15.0
  P    2    (CENTRE  2)   0.00000000  0.00000000 -0.10673929  CHARGE = 15.0
  S    3    (CENTRE  3)   0.00000000  0.00000000  3.52010246  CHARGE = 16.0
CENTRE ASSIGNMENTS    1  1  1  1  1  1  1  1  1  1  1  1  1  1  1  1  1  1  1  1
CENTRE ASSIGNMENTS    1  1  1  1  1  1  1  1  1  1  1  1  1  1  1  1  1  1  1  1
CENTRE ASSIGNMENTS    1  1  1  1  1  1  1  1  1  1  1  1  1  1  1  1  1  1  1  1
CENTRE ASSIGNMENTS    1  1  1  1  1  1  1  1  1  1  1  1  1  1  1  1  1  1  1  1
CENTRE ASSIGNMENTS    1  1  1  1  1  1  1  1  1  1  1  1  1  1  1  1  1  1  1  1
CENTRE ASSIGNMENTS    1  1  1  1  1  1  1  1  1  1  1  1  1  1  1  1  1  1  1  1
CENTRE ASSIGNMENTS    1  1  1  1  1  1  1  1  1  1  1  2  2  2  2  2  2  2  2  2
CENTRE ASSIGNMENTS    2  2  2  2  2  2  2  2  2  2  2  2  2  2  2  2  2  2  2  2
CENTRE ASSIGNMENTS    2  2  2  2  2  2  2  2  2  2  2  2  2  2  2  2  2  2  2  2
CENTRE ASSIGNMENTS    2  2  2  2  2  2  2  2  2  2  2  2  2  2  2  2  2  2  2  2
CENTRE ASSIGNMENTS    2  2  2  2  2  2  2  2  2  2  2  2  2  2  2  2  2  2  2  2
CENTRE ASSIGNMENTS    2  2  2  2  2  2  2  2  2  2  2  2  2  2  2  2  2  2  2  2
CENTRE ASSIGNMENTS    2  2  2  2  2  2  2  2  2  2  2  2  2  2  2  2  2  2  2  2
CENTRE ASSIGNMENTS    2  2  3  3  3  3  3  3  3  3  3  3  3  3  3  3  3  3  3  3
CENTRE ASSIGNMENTS    3  3  3  3  3  3  3  3  3  3  3  3  3  3  3  3  3  3  3  3
CENTRE ASSIGNMENTS    3  3  3  3  3  3  3  3  3  3  3  3  3  3  3  3  3  3  3  3
CENTRE ASSIGNMENTS    3  3  3  3  3  3  3  3  3  3  3  3  3  3  3  3  3  3  3  3
CENTRE ASSIGNMENTS    3  3  3  3  3  3  3  3  3  3  3  3  3  3  3  3  3  3  3  3
CENTRE ASSIGNMENTS    3  3  3  3  3  3  3  3  3  3  3  3  3  3  3  3  3  3  3  3
CENTRE ASSIGNMENTS    3  3  3  3  3  3  3  3  3  3  3  3  3
TYPE ASSIGNMENTS      1  1  1  1  1  1  1  1  1  1  1  1  1  1  1  1  1  1  1  1
TYPE ASSIGNMENTS      1  1  1  1  1  1  1  1  1  1  1  1  1  1  1  1  1  1  1  1
TYPE ASSIGNMENTS      1  1  2  2  2  2  2  2  2  3  3  3  3  3  3  3  4  4  4  4
TYPE ASSIGNMENTS      4  4  4  2  2  2  2  2  2  2  3  3  3  3  3  3  3  4  4  4
TYPE ASSIGNMENTS      4  4  4  4  2  3  4  2  3  4  2  3  4  5  6  7  8  9 10  5
TYPE ASSIGNMENTS      6  7  8  9 10  5  6  7  8  9 10 11 12 13 17 14 15 18 19 16
TYPE ASSIGNMENTS     20 11 12 13 17 14 15 18 19 16 20  1  1  1  1  1  1  1  1  1
TYPE ASSIGNMENTS      1  1  1  1  1  1  1  1  1  1  1  1  1  1  1  1  1  1  1  1
TYPE ASSIGNMENTS      1  1  1  1  1  1  1  1  1  1  1  1  1  2  2  2  2  2  2  2
TYPE ASSIGNMENTS      3  3  3  3  3  3  3  4  4  4  4  4  4  4  2  2  2  2  2  2
TYPE ASSIGNMENTS      2  3  3  3  3  3  3  3  4  4  4  4  4  4  4  2  3  4  2  3
TYPE ASSIGNMENTS      4  2  3  4  5  6  7  8  9 10  5  6  7  8  9 10  5  6  7  8
TYPE ASSIGNMENTS      9 10 11 12 13 17 14 15 18 19 16 20 11 12 13 17 14 15 18 19
TYPE ASSIGNMENTS     16 20  1  1  1  1  1  1  1  1  1  1  1  1  1  1  1  1  1  1
TYPE ASSIGNMENTS      1  1  1  1  1  1  1  1  1  1  1  1  1  1  1  1  1  1  1  1
TYPE ASSIGNMENTS      1  1  1  1  2  2  2  2  2  2  2  3  3  3  3  3  3  3  4  4
TYPE ASSIGNMENTS      4  4  4  4  4  2  2  2  2  2  2  2  3  3  3  3  3  3  3  4
TYPE ASSIGNMENTS      4  4  4  4  4  4  2  3  4  2  3  4  2  3  4  5  6  7  8  9
TYPE ASSIGNMENTS     10  5  6  7  8  9 10  5  6  7  8  9 10 11 12 13 17 14 15 18
TYPE ASSIGNMENTS     19 16 20 11 12 13 17 14 15 18 19 16 20
EXPONENTS  0.3124000D+06 0.4680000D+05 0.1065000D+05 0.3018000D+04 0.9868000D+03
EXPONENTS  0.3574000D+03 0.1396000D+03 0.5763000D+02 0.2460000D+02 0.1012000D+02
EXPONENTS  0.4283000D+01 0.1805000D+01 0.2782000D+00 0.3124000D+06 0.4680000D+05
EXPONENTS  0.1065000D+05 0.3018000D+04 0.9868000D+03 0.3574000D+03 0.1396000D+03
EXPONENTS  0.5763000D+02 0.2460000D+02 0.1012000D+02 0.4283000D+01 0.1805000D+01
EXPONENTS  0.2782000D+00 0.3124000D+06 0.4680000D+05 0.1065000D+05 0.3018000D+04
EXPONENTS  0.9868000D+03 0.3574000D+03 0.1396000D+03 0.5763000D+02 0.2460000D+02
EXPONENTS  0.1012000D+02 0.4283000D+01 0.1805000D+01 0.2782000D+00 0.6158000D+00
EXPONENTS  0.1055000D+00 0.4090000D-01 0.5049000D+03 0.1194000D+03 0.3796000D+02
EXPONENTS  0.1395000D+02 0.5457000D+01 0.2177000D+01 0.2877000D+00 0.5049000D+03
EXPONENTS  0.1194000D+03 0.3796000D+02 0.1395000D+02 0.5457000D+01 0.2177000D+01
EXPONENTS  0.2877000D+00 0.5049000D+03 0.1194000D+03 0.3796000D+02 0.1395000D+02
EXPONENTS  0.5457000D+01 0.2177000D+01 0.2877000D+00 0.5049000D+03 0.1194000D+03
EXPONENTS  0.3796000D+02 0.1395000D+02 0.5457000D+01 0.2177000D+01 0.2877000D+00
EXPONENTS  0.5049000D+03 0.1194000D+03 0.3796000D+02 0.1395000D+02 0.5457000D+01
EXPONENTS  0.2177000D+01 0.2877000D+00 0.5049000D+03 0.1194000D+03 0.3796000D+02
EXPONENTS  0.1395000D+02 0.5457000D+01 0.2177000D+01 0.2877000D+00 0.8010000D+00
EXPONENTS  0.8010000D+00 0.8010000D+00 0.9714000D-01 0.9714000D-01 0.9714000D-01
EXPONENTS  0.3070000D-01 0.3070000D-01 0.3070000D-01 0.2160000D+00 0.2160000D+00
EXPONENTS  0.2160000D+00 0.2160000D+00 0.2160000D+00 0.2160000D+00 0.6520000D+00
EXPONENTS  0.6520000D+00 0.6520000D+00 0.6520000D+00 0.6520000D+00 0.6520000D+00
EXPONENTS  0.7750000D-01 0.7750000D-01 0.7750000D-01 0.7750000D-01 0.7750000D-01
EXPONENTS  0.7750000D-01 0.4520000D+00 0.4520000D+00 0.4520000D+00 0.4520000D+00
EXPONENTS  0.4520000D+00 0.4520000D+00 0.4520000D+00 0.4520000D+00 0.4520000D+00
EXPONENTS  0.4520000D+00 0.1650000D+00 0.1650000D+00 0.1650000D+00 0.1650000D+00
EXPONENTS  0.1650000D+00 0.1650000D+00 0.1650000D+00 0.1650000D+00 0.1650000D+00
EXPONENTS  0.1650000D+00 0.3124000D+06 0.4680000D+05 0.1065000D+05 0.3018000D+04
EXPONENTS  0.9868000D+03 0.3574000D+03 0.1396000D+03 0.5763000D+02 0.2460000D+02
EXPONENTS  0.1012000D+02 0.4283000D+01 0.1805000D+01 0.2782000D+00 0.3124000D+06
EXPONENTS  0.4680000D+05 0.1065000D+05 0.3018000D+04 0.9868000D+03 0.3574000D+03
EXPONENTS  0.1396000D+03 0.5763000D+02 0.2460000D+02 0.1012000D+02 0.4283000D+01
EXPONENTS  0.1805000D+01 0.2782000D+00 0.3124000D+06 0.4680000D+05 0.1065000D+05
EXPONENTS  0.3018000D+04 0.9868000D+03 0.3574000D+03 0.1396000D+03 0.5763000D+02
EXPONENTS  0.2460000D+02 0.1012000D+02 0.4283000D+01 0.1805000D+01 0.2782000D+00
EXPONENTS  0.6158000D+00 0.1055000D+00 0.4090000D-01 0.5049000D+03 0.1194000D+03
EXPONENTS  0.3796000D+02 0.1395000D+02 0.5457000D+01 0.2177000D+01 0.2877000D+00
EXPONENTS  0.5049000D+03 0.1194000D+03 0.3796000D+02 0.1395000D+02 0.5457000D+01
EXPONENTS  0.2177000D+01 0.2877000D+00 0.5049000D+03 0.1194000D+03 0.3796000D+02
EXPONENTS  0.1395000D+02 0.5457000D+01 0.2177000D+01 0.2877000D+00 0.5049000D+03
EXPONENTS  0.1194000D+03 0.3796000D+02 0.1395000D+02 0.5457000D+01 0.2177000D+01
EXPONENTS  0.2877000D+00 0.5049000D+03 0.1194000D+03 0.3796000D+02 0.1395000D+02
EXPONENTS  0.5457000D+01 0.2177000D+01 0.2877000D+00 0.5049000D+03 0.1194000D+03
EXPONENTS  0.3796000D+02 0.1395000D+02 0.5457000D+01 0.2177000D+01 0.2877000D+00
EXPONENTS  0.8010000D+00 0.8010000D+00 0.8010000D+00 0.9714000D-01 0.9714000D-01
EXPONENTS  0.9714000D-01 0.3070000D-01 0.3070000D-01 0.3070000D-01 0.2160000D+00
EXPONENTS  0.2160000D+00 0.2160000D+00 0.2160000D+00 0.2160000D+00 0.2160000D+00
EXPONENTS  0.6520000D+00 0.6520000D+00 0.6520000D+00 0.6520000D+00 0.6520000D+00
EXPONENTS  0.6520000D+00 0.7750000D-01 0.7750000D-01 0.7750000D-01 0.7750000D-01
EXPONENTS  0.7750000D-01 0.7750000D-01 0.4520000D+00 0.4520000D+00 0.4520000D+00
EXPONENTS  0.4520000D+00 0.4520000D+00 0.4520000D+00 0.4520000D+00 0.4520000D+00
EXPONENTS  0.4520000D+00 0.4520000D+00 0.1650000D+00 0.1650000D+00 0.1650000D+00
EXPONENTS  0.1650000D+00 0.1650000D+00 0.1650000D+00 0.1650000D+00 0.1650000D+00
EXPONENTS  0.1650000D+00 0.1650000D+00 0.3741000D+06 0.5605000D+05 0.1276000D+05
EXPONENTS  0.3615000D+04 0.1183000D+04 0.4288000D+03 0.1678000D+03 0.6947000D+02
EXPONENTS  0.2984000D+02 0.1272000D+02 0.5244000D+01 0.2219000D+01 0.3490000D+00
EXPONENTS  0.3741000D+06 0.5605000D+05 0.1276000D+05 0.3615000D+04 0.1183000D+04
EXPONENTS  0.4288000D+03 0.1678000D+03 0.6947000D+02 0.2984000D+02 0.1272000D+02
EXPONENTS  0.5244000D+01 0.2219000D+01 0.3490000D+00 0.3741000D+06 0.5605000D+05
EXPONENTS  0.1276000D+05 0.3615000D+04 0.1183000D+04 0.4288000D+03 0.1678000D+03
EXPONENTS  0.6947000D+02 0.2984000D+02 0.1272000D+02 0.5244000D+01 0.2219000D+01
EXPONENTS  0.3490000D+00 0.7767000D+00 0.1322000D+00 0.4970000D-01 0.5744000D+03
EXPONENTS  0.1358000D+03 0.4319000D+02 0.1587000D+02 0.6208000D+01 0.2483000D+01
EXPONENTS  0.3229000D+00 0.5744000D+03 0.1358000D+03 0.4319000D+02 0.1587000D+02
EXPONENTS  0.6208000D+01 0.2483000D+01 0.3229000D+00 0.5744000D+03 0.1358000D+03
EXPONENTS  0.4319000D+02 0.1587000D+02 0.6208000D+01 0.2483000D+01 0.3229000D+00
EXPONENTS  0.5744000D+03 0.1358000D+03 0.4319000D+02 0.1587000D+02 0.6208000D+01
EXPONENTS  0.2483000D+01 0.3229000D+00 0.5744000D+03 0.1358000D+03 0.4319000D+02
EXPONENTS  0.1587000D+02 0.6208000D+01 0.2483000D+01 0.3229000D+00 0.5744000D+03
EXPONENTS  0.1358000D+03 0.4319000D+02 0.1587000D+02 0.6208000D+01 0.2483000D+01
EXPONENTS  0.3229000D+00 0.8688000D+00 0.8688000D+00 0.8688000D+00 0.1098000D+00
EXPONENTS  0.1098000D+00 0.1098000D+00 0.3510000D-01 0.3510000D-01 0.3510000D-01
EXPONENTS  0.2690000D+00 0.2690000D+00 0.2690000D+00 0.2690000D+00 0.2690000D+00
EXPONENTS  0.2690000D+00 0.8190000D+00 0.8190000D+00 0.8190000D+00 0.8190000D+00
EXPONENTS  0.8190000D+00 0.8190000D+00 0.1010000D+00 0.1010000D+00 0.1010000D+00
EXPONENTS  0.1010000D+00 0.1010000D+00 0.1010000D+00 0.5570000D+00 0.5570000D+00
EXPONENTS  0.5570000D+00 0.5570000D+00 0.5570000D+00 0.5570000D+00 0.5570000D+00
EXPONENTS  0.5570000D+00 0.5570000D+00 0.5570000D+00 0.2180000D+00 0.2180000D+00
EXPONENTS  0.2180000D+00 0.2180000D+00 0.2180000D+00 0.2180000D+00 0.2180000D+00
EXPONENTS  0.2180000D+00 0.2180000D+00 0.2180000D+00
MO    1     MO 0.0        OCC NO =    2.0000000  ORB. ENERGY =  -89.085070
 -0.73229222D-04 -0.13701077D-03 -0.23657714D-03 -0.38260566D-03 -0.57746550D-03
 -0.79114560D-03 -0.91427162D-03 -0.76833109D-03 -0.33748468D-03 -0.38573942D-04
  0.51988585D-06 -0.32335447D-06 -0.15905800D-07  0.13635123D-03  0.25503071D-03
  0.44157188D-03  0.71700952D-03  0.11011591D-02  0.15661010D-02  0.19926120D-02
  0.20650475D-02  0.13780557D-02 -0.13572092D-03 -0.10366867D-02 -0.53229618D-03
  0.23348965D-05 -0.75807981D-04 -0.14166397D-03 -0.24565035D-03 -0.39834831D-03
 -0.61401134D-03 -0.87370460D-03 -0.11250672D-02 -0.11827291D-02 -0.82912936D-03
  0.96269338D-04  0.77936147D-03  0.73348504D-03 -0.35769075D-03  0.83267102D-04
 -0.32090858D-04 -0.50036707D-04  0.50447913D-19  0.65995498D-19  0.72201387D-19
  0.59473923D-19  0.31799350D-19  0.87864689D-20 -0.72018739D-23  0.34499731D-15
  0.45132232D-15  0.49376244D-15  0.40672334D-15  0.21746569D-15  0.60087880D-16
 -0.49251336D-19 -0.22080922D-02 -0.28886061D-02 -0.31602362D-02 -0.26031584D-02
 -0.13918494D-02 -0.38458150D-03  0.31522418D-06 -0.13962676D-18 -0.18492256D-18
 -0.20428975D-18 -0.17497479D-18 -0.95455370D-19 -0.29340478D-19  0.12773817D-19
 -0.21754446D-18 -0.28811723D-18 -0.31829214D-18 -0.27261819D-18 -0.14872354D-18
 -0.45713716D-19  0.19902151D-19  0.20205545D-02  0.26760349D-02  0.29562997D-02
  0.25320797D-02  0.13813453D-02  0.42458933D-03 -0.18485133D-03  0.80183396D-20
  0.24278528D-18  0.18914648D-04  0.81118365D-20  0.95035337D-19  0.42928066D-04
  0.46135670D-21  0.30534892D-20 -0.14123846D-05 -0.24054855D-06 -0.24054855D-06
  0.48109710D-06  0.99715036D-21  0.14478861D-20  0.73607968D-19  0.29956706D-04
  0.29956706D-04 -0.59913413D-04 -0.13822896D-20  0.87111281D-22 -0.47861183D-19
 -0.26852885D-05 -0.26852885D-05  0.53705769D-05  0.16028250D-21  0.12788273D-20
  0.15391693D-19 -0.64008871D-21 -0.59634545D-20  0.40386049D-05 -0.61827332D-21
 -0.59467090D-20 -0.60579073D-05  0.25385394D-20  0.23837072D-19 -0.60579073D-05
 -0.51319807D-21  0.30844628D-22 -0.19391566D-20 -0.60548013D-06  0.21699718D-22
 -0.19298030D-20  0.90822019D-06 -0.11423360D-21  0.77472726D-20  0.90822019D-06
  0.64022468D-21 -0.97775523D-05 -0.18293653D-04 -0.31587736D-04 -0.51085437D-04
 -0.77103087D-04 -0.10563362D-03 -0.12207338D-03 -0.10258743D-03 -0.45060893D-04
 -0.51503857D-05  0.69415063D-07 -0.43174229D-07 -0.21237395D-08  0.17632973D-04
  0.32980629D-04  0.57104177D-04  0.92723835D-04  0.14240214D-03  0.20252854D-03
  0.25768503D-03  0.26705241D-03  0.17821048D-03 -0.17551460D-04 -0.13406456D-03
 -0.68836664D-04  0.30194935D-06 -0.94244049D-05 -0.17611584D-04 -0.30539111D-04
 -0.49522435D-04 -0.76333540D-04 -0.10861846D-03 -0.13986772D-03 -0.14703621D-03
 -0.10307689D-03  0.11968149D-04  0.96889773D-04  0.91186441D-04 -0.44467910D-04
 -0.62449231D-05  0.90596694D-03  0.27749387D-03 -0.29836867D-19 -0.39032316D-19
 -0.42702722D-19 -0.35175202D-19 -0.18807378D-19 -0.51966611D-20  0.42594697D-23
 -0.22762003D-18 -0.29777044D-18 -0.32577129D-18 -0.26834522D-18 -0.14347806D-18
 -0.39644381D-19  0.32494719D-22  0.26862298D-02  0.35141012D-02  0.38445499D-02
  0.31668431D-02  0.16932388D-02  0.46785830D-03 -0.38348243D-06  0.42141548D-19
  0.55812528D-19  0.61657851D-19  0.52810137D-19  0.28809928D-19  0.88554165D-20
 -0.38553383D-20  0.14323880D-18  0.18970636D-18  0.20957457D-18  0.17950126D-18
  0.97924730D-19  0.30099494D-19 -0.13104266D-19 -0.25003796D-02 -0.33115183D-02
 -0.36583382D-02 -0.31333778D-02 -0.17093762D-02 -0.52541741D-03  0.22874834D-03
  0.25305993D-20  0.49452470D-19  0.65546458D-04  0.16370587D-20 -0.72202257D-19
  0.26251700D-03 -0.36448684D-21 -0.22742768D-20 -0.58074899D-06 -0.35771310D-04
 -0.35771310D-04  0.71542620D-04  0.72431616D-21 -0.16854810D-20  0.22085501D-19
  0.11197117D-04  0.11197117D-04 -0.22394235D-04 -0.13025615D-20  0.21973173D-21
 -0.46829508D-20 -0.12649722D-04 -0.12649722D-04  0.25299444D-04 -0.18834542D-21
  0.48240920D-20  0.30292649D-19  0.18409712D-20  0.48647524D-20 -0.25759664D-04
  0.13580321D-20  0.49386336D-20  0.38639495D-04 -0.68809457D-20 -0.19532891D-19
  0.38639495D-04 -0.12573322D-20  0.10126549D-21  0.76048269D-20 -0.19487287D-04
  0.15326742D-21  0.75690857D-20  0.29230931D-04 -0.45706390D-21 -0.30383567D-19
  0.29230931D-04  0.14295468D-20  0.58501678D+00  0.10936549D+01  0.18901771D+01
  0.30572766D+01  0.46208946D+01  0.63637301D+01  0.74377251D+01  0.64267556D+01
  0.29974617D+01  0.40699054D+00  0.10898204D-02  0.21377771D-02  0.97598454D-04
 -0.92714621D-03 -0.17314850D-02 -0.30035287D-02 -0.48701179D-02 -0.74981010D-02
 -0.10678980D-01 -0.13731782D-01 -0.14414285D-01 -0.10191921D-01  0.22570436D-03
  0.73230269D-02  0.40322574D-02 -0.17052348D-04  0.40553283D-03  0.75678426D-03
  0.13144437D-02  0.21291071D-02  0.32888474D-02  0.46887461D-02  0.60985271D-02
  0.64993860D-02  0.48204594D-02 -0.15004300D-03 -0.43670851D-02 -0.42782361D-02
  0.19981900D-02 -0.23614828D-02 -0.12297888D-02 -0.34683466D-03  0.43998634D-17
  0.57723812D-17  0.63314224D-17  0.52095947D-17  0.27466013D-17  0.71453585D-18
 -0.79070677D-21 -0.14658374D-17 -0.19230989D-17 -0.21093464D-17 -0.17356036D-17
 -0.91504456D-18 -0.23805135D-18  0.26342808D-21 -0.39917653D-02 -0.52369787D-02
 -0.57441674D-02 -0.47263920D-02 -0.24918473D-02 -0.64826089D-03  0.71736677D-06
 -0.80057074D-18 -0.10511543D-17 -0.11826194D-17 -0.99644627D-18 -0.55739807D-18
 -0.13873525D-18  0.63630668D-19 -0.23877403D-17 -0.31351175D-17 -0.35272186D-17
 -0.29719483D-17 -0.16624662D-17 -0.41378446D-18  0.18978149D-18  0.30544974D-02
  0.40105737D-02  0.45121658D-02  0.38018408D-02  0.21266965D-02  0.52933042D-03
 -0.24277644D-03 -0.28804161D-18 -0.76852692D-19  0.14540229D-03 -0.16422053D-19
 -0.41662953D-19  0.52619882D-03 -0.60080201D-22 -0.10440918D-20  0.18778205D-04
  0.52447850D-04  0.52447850D-04 -0.10489570D-03 -0.94734592D-20 -0.50341419D-20
 -0.64484272D-19 -0.10440181D-03 -0.10440181D-03  0.20880362D-03  0.92352157D-19
 -0.38334561D-20  0.45697525D-19  0.25407387D-04  0.25407387D-04 -0.50814774D-04
  0.48255067D-21  0.34653855D-20  0.97211926D-20 -0.22758881D-20 -0.86562568D-20
 -0.26738077D-04 -0.70287187D-21 -0.93573870D-20  0.40107115D-04  0.75305360D-20
  0.35326158D-19  0.40107115D-04 -0.12516673D-19  0.31525541D-21  0.14680094D-21
  0.22355003D-04  0.18483701D-21  0.25056875D-21 -0.33532504D-04 -0.11306032D-20
 -0.69097158D-21 -0.33532504D-04  0.20346247D-20
MO    2     MO 0.0        OCC NO =    2.0000000  ORB. ENERGY =  -77.321648
 -0.14753447D-04 -0.27603477D-04 -0.47663054D-04 -0.77083333D-04 -0.11634163D-03
 -0.15939163D-03 -0.18419775D-03 -0.15479520D-03 -0.67992836D-04 -0.77714690D-05
  0.10474109D-06 -0.65146031D-07 -0.32045320D-08  0.10494098D-04  0.19628111D-04
  0.33985013D-04  0.55183718D-04  0.84749295D-04  0.12053295D-03  0.15335882D-03
  0.15893373D-03  0.10606029D-03 -0.10445586D-04 -0.79787258D-04 -0.40967492D-04
  0.17970231D-06 -0.30482775D-05 -0.56963804D-05 -0.98777255D-05 -0.16017789D-04
 -0.24689709D-04 -0.35132107D-04 -0.45239526D-04 -0.47558139D-04 -0.33339714D-04
  0.38710391D-05  0.31338522D-04  0.29493807D-04 -0.14382927D-04  0.11747634D-03
  0.73874404D-03  0.21962236D-03  0.34200016D-18  0.44740148D-18  0.48947290D-18
  0.40318995D-18  0.21557647D-18  0.59565870D-19 -0.48823468D-22 -0.73467975D-14
 -0.96110132D-14 -0.10514785D-13 -0.86612676D-14 -0.46309821D-14 -0.12795853D-14
  0.10488186D-17 -0.43960480D-03 -0.57508698D-03 -0.62916531D-03 -0.51825776D-03
 -0.27710060D-03 -0.76565585D-04  0.62757370D-07  0.18714771D-17  0.24785959D-17
  0.27381827D-17  0.23452618D-17  0.12794291D-17  0.39326295D-18 -0.17121292D-18
 -0.62846971D-17 -0.83234919D-17 -0.91952226D-17 -0.78757362D-17 -0.42965121D-17
 -0.13206352D-17  0.57495831D-18  0.29105697D-03  0.38547766D-03  0.42584926D-03
  0.36474119D-03  0.19898012D-03  0.61161273D-04 -0.26627477D-04 -0.39964125D-18
 -0.61421478D-17  0.13655245D-03 -0.16385329D-19 -0.34246156D-19  0.11693458D-03
 -0.64793150D-21 -0.18678720D-20  0.83042944D-05  0.37747801D-04  0.37747801D-04
 -0.75495603D-04 -0.10061759D-20  0.64261995D-20  0.98789032D-19 -0.15478590D-04
 -0.15478590D-04  0.30957180D-04  0.25188654D-20 -0.54409430D-20 -0.84422740D-19
  0.29329833D-05  0.29329833D-05 -0.58659666D-05 -0.25040935D-22 -0.31156358D-20
 -0.58389592D-20 -0.12766904D-20 -0.12932949D-19 -0.26371252D-04 -0.12389434D-20
 -0.12956833D-19  0.39556877D-04  0.50690148D-20  0.51755681D-19  0.39556877D-04
 -0.41844138D-21 -0.24239325D-21 -0.17612694D-20 -0.13023854D-04 -0.25744754D-21
 -0.17718414D-20  0.19535782D-04  0.98462729D-21  0.70556494D-20  0.19535782D-04
 -0.25117516D-21  0.54390867D+00  0.10176449D+01  0.17571722D+01  0.28417963D+01
  0.42891141D+01  0.58762190D+01  0.67907352D+01  0.57067647D+01  0.25066611D+01
  0.28650723D+00 -0.38614423D-02  0.24017092D-02  0.11814003D-03 -0.96363075D-03
 -0.18023704D-02 -0.31207069D-02 -0.50672986D-02 -0.77821865D-02 -0.11068056D-01
 -0.14082323D-01 -0.14594245D-01 -0.97390893D-02  0.95917612D-03  0.73265427D-02
  0.37618799D-02 -0.16501340D-04  0.42904821D-03  0.80177143D-03  0.13903001D-02
  0.22545203D-02  0.34751020D-02  0.49448804D-02  0.63675101D-02  0.66938573D-02
  0.46925992D-02 -0.54485276D-03 -0.44109293D-02 -0.41512838D-02  0.20244119D-02
 -0.23808258D-02 -0.23402449D-03 -0.39980247D-03  0.65288112D-17  0.85409311D-17
  0.93440779D-17  0.76969293D-17  0.41153725D-17  0.11371173D-17 -0.93204401D-21
 -0.31816096D-17 -0.41621526D-17 -0.45535408D-17 -0.37508551D-17 -0.20054966D-17
 -0.55413817D-18  0.45420217D-21  0.29838898D-03  0.39034974D-03  0.42705629D-03
  0.35177597D-03  0.18808659D-03  0.51970149D-04 -0.42597597D-07 -0.10683677D-18
 -0.14149529D-18 -0.15631428D-18 -0.13388366D-18 -0.73038603D-19 -0.22450152D-19
  0.97740099D-20  0.20425485D-17  0.27051640D-17  0.29884795D-17  0.25596418D-17
  0.13963815D-17  0.42921105D-18 -0.18686346D-18  0.11392099D-05  0.15087767D-05
  0.16667929D-05  0.14276132D-05  0.77881704D-06  0.23938794D-06 -0.10422113D-06
 -0.37382781D-18  0.37451596D-18 -0.57974728D-04 -0.28811433D-20 -0.77535501D-19
  0.42882527D-03  0.42500089D-21  0.19985478D-20  0.15903191D-04 -0.29166032D-04
 -0.29166032D-04  0.58332063D-04 -0.25977923D-21  0.25170319D-20 -0.63436355D-20
 -0.10179172D-03 -0.10179172D-03  0.20358344D-03 -0.67326607D-20 -0.22608661D-20
  0.21531356D-19  0.29154802D-04  0.29154802D-04 -0.58309604D-04 -0.40146974D-23
 -0.78075699D-20 -0.25413633D-19  0.83635282D-21  0.12533364D-19  0.63757478D-05
  0.53716911D-21  0.11878329D-19 -0.95636217D-05 -0.30462276D-20 -0.49478420D-19
 -0.95636217D-05  0.60657487D-20  0.33560601D-21  0.10974834D-19  0.12709297D-04
  0.34287462D-21  0.10987331D-19 -0.19063946D-04 -0.13496927D-20 -0.43911834D-19
 -0.19063946D-04 -0.11281003D-20  0.14000562D-05  0.26173238D-05  0.45235527D-05
  0.73166435D-05  0.11058678D-04  0.15229614D-04  0.17799888D-04  0.15380446D-04
  0.71734950D-05  0.97400565D-06  0.26081472D-08  0.51161065D-08  0.23357163D-09
 -0.64327637D-05 -0.12013460D-04 -0.20839206D-04 -0.33790052D-04 -0.52023631D-04
 -0.74093336D-04 -0.95274412D-04 -0.10000978D-03 -0.70714003D-04  0.15659912D-05
  0.50808925D-04  0.27976773D-04 -0.11831330D-06  0.63775410D-05  0.11901435D-04
  0.20671368D-04  0.33483030D-04  0.51721482D-04  0.73736743D-04  0.95907417D-04
  0.10221145D-03  0.75808110D-04 -0.23596250D-05 -0.68678198D-04 -0.67280930D-04
  0.31424185D-04  0.10258749D-03 -0.20293135D-03 -0.34229165D-05 -0.24256151D-18
 -0.31822749D-18 -0.34904706D-18 -0.28720145D-18 -0.15141828D-18 -0.39391881D-19
  0.43591132D-22  0.88443708D-18  0.11603333D-17  0.12727088D-17  0.10472049D-17
  0.55210715D-18  0.14363219D-18 -0.15894366D-21  0.29652349D-02  0.38902267D-02
  0.42669857D-02  0.35109434D-02  0.18510388D-02  0.48155281D-03 -0.53288728D-06
  0.12324833D-18  0.16182580D-18  0.18206494D-18  0.15340348D-18  0.85811754D-19
  0.21358371D-19 -0.97959780D-20 -0.65861222D-18 -0.86476185D-18 -0.97291539D-18
 -0.81975478D-18 -0.45855933D-18 -0.11413448D-18  0.52347574D-19 -0.25246469D-02
 -0.33148767D-02 -0.37294598D-02 -0.31423519D-02 -0.17577876D-02 -0.43750975D-03
  0.20066305D-03  0.32792562D-19 -0.80239837D-19 -0.24482329D-03  0.17508969D-19
  0.11388464D-18  0.22206377D-03  0.10756894D-20  0.10203108D-20 -0.64209056D-07
  0.62787151D-04  0.62787151D-04 -0.12557430D-03  0.37985562D-21  0.28383898D-20
 -0.11208313D-18 -0.43819179D-04 -0.43819179D-04  0.87638358D-04  0.67963079D-21
  0.31391008D-20  0.83573307D-19  0.14695193D-04  0.14695193D-04 -0.29390385D-04
  0.23433627D-21 -0.63898766D-20 -0.27841200D-19  0.20708316D-20  0.23285129D-20
  0.19461883D-04  0.15030234D-20  0.34211159D-20 -0.29192824D-04 -0.77155181D-20
 -0.10406655D-19 -0.29192824D-04  0.31771036D-20 -0.16756646D-20 -0.74024595D-20
  0.21953475D-04 -0.16370444D-20 -0.75062500D-20 -0.32930212D-04  0.66640383D-20
  0.29713628D-19 -0.32930212D-04 -0.91937825D-21
MO    3     MO 0.0        OCC NO =    2.0000000  ORB. ENERGY =  -77.277348
  0.54391574D+00  0.10176581D+01  0.17571951D+01  0.28418333D+01  0.42891699D+01
  0.58762955D+01  0.67908235D+01  0.57068389D+01  0.25066937D+01  0.28651096D+00
 -0.38614926D-02  0.24017405D-02  0.11814157D-03 -0.98367722D-03 -0.18398652D-02
 -0.31856272D-02 -0.51727139D-02 -0.79440799D-02 -0.11298305D-01 -0.14375279D-01
 -0.14897850D-01 -0.99416922D-02  0.97912993D-03  0.74789572D-02  0.38401385D-02
 -0.16844618D-04  0.44611396D-03  0.83366255D-03  0.14456004D-02  0.23441957D-02
  0.36133271D-02  0.51415670D-02  0.66207830D-02  0.69601109D-02  0.48792512D-02
 -0.56652472D-03 -0.45863776D-02 -0.43164045D-02  0.21049345D-02 -0.21782627D-02
 -0.13418339D-03  0.22001643D-04  0.35796127D-17  0.46828165D-17  0.51231654D-17
  0.42200678D-17  0.22563739D-17  0.62345801D-18 -0.51102053D-21  0.20993591D-17
  0.27463623D-17  0.30046166D-17  0.24749710D-17  0.13233105D-17  0.36564354D-18
 -0.29970158D-21  0.89467868D-02  0.11704105D-01  0.12804701D-01  0.10547523D-01
  0.56395198D-02  0.15582540D-02 -0.12772308D-05  0.10109266D-17  0.13388775D-17
  0.14791000D-17  0.12668536D-17  0.69111659D-18  0.21243112D-18 -0.92485072D-19
 -0.79824859D-18 -0.10572054D-17 -0.11679280D-17 -0.10003339D-17 -0.54571998D-18
 -0.16774001D-18  0.73028128D-19 -0.74289119D-02 -0.98388971D-02 -0.10869338D-01
 -0.93096214D-02 -0.50787508D-02 -0.15610748D-02  0.67963732D-03 -0.16794896D-18
 -0.20969537D-18 -0.31926416D-03 -0.75853613D-20 -0.67356660D-20 -0.15570685D-03
  0.91903700D-21 -0.70090947D-21 -0.49146013D-05  0.26649874D-04  0.26649874D-04
 -0.53299748D-04 -0.53492443D-21 -0.52729772D-19  0.19008314D-19 -0.12720927D-03
 -0.12720927D-03  0.25441854D-03 -0.10967662D-20  0.13132260D-19  0.27328088D-19
  0.12441518D-04  0.12441518D-04 -0.24883035D-04 -0.18425853D-22 -0.42220195D-21
 -0.18647266D-20  0.30884328D-20 -0.67913821D-20  0.26308966D-04  0.34942696D-20
 -0.54031830D-20 -0.39463449D-04 -0.12759568D-19  0.25777329D-19 -0.39463449D-04
  0.32303191D-20  0.82188996D-21  0.13723987D-21 -0.15620353D-04  0.84141150D-21
  0.64938907D-22  0.23430529D-04 -0.33070814D-20 -0.47665851D-21  0.23430529D-04
 -0.20966653D-21  0.13334955D-05  0.24949500D-05  0.43080418D-05  0.69672041D-05
  0.10515579D-04  0.14406668D-04  0.16648779D-04  0.13991219D-04  0.61455564D-05
  0.70242696D-06 -0.94670601D-08  0.58882468D-08  0.28964275D-09  0.56554884D-05
  0.10577999D-04  0.18315233D-04  0.29739658D-04  0.45673165D-04  0.64957725D-04
  0.82648272D-04  0.85652706D-04  0.57158104D-04 -0.56293445D-05 -0.42999019D-04
 -0.22078237D-04  0.96845327D-07  0.33451294D-06  0.62511137D-06  0.10839653D-05
  0.17577657D-05  0.27094079D-05  0.38553394D-05  0.49645109D-05  0.52189516D-05
  0.36586451D-05 -0.42480144D-06 -0.34390376D-05 -0.32366016D-05  0.15783587D-05
  0.15972301D-03  0.38670094D-03  0.21149330D-04  0.33267435D-18  0.43520154D-18
  0.47612574D-18  0.39219559D-18  0.20969803D-18  0.57941601D-19 -0.47492128D-22
 -0.24157575D-18 -0.31602718D-18 -0.34574481D-18 -0.28479786D-18 -0.15227492D-18
 -0.42075037D-19  0.34487018D-22 -0.26016003D-02 -0.34033897D-02 -0.37234276D-02
 -0.30670720D-02 -0.16398934D-02 -0.45311846D-03  0.37140085D-06 -0.23380247D-18
 -0.30964945D-18 -0.34207946D-18 -0.29299210D-18 -0.15983828D-18 -0.49130096D-19
  0.21389524D-19  0.17908671D-18  0.23718356D-18  0.26202411D-18  0.22442445D-18
  0.12243203D-18  0.37632396D-19 -0.16383828D-19  0.25514125D-02  0.33791066D-02
  0.37330051D-02  0.31973302D-02  0.17442646D-02  0.53614121D-03 -0.23341711D-03
 -0.50730489D-19  0.31580242D-19 -0.19428271D-03  0.73503739D-19 -0.18591077D-19
  0.54792184D-03 -0.90875693D-21  0.76828627D-21  0.16014652D-04  0.39809469D-04
  0.39809469D-04 -0.79618937D-04  0.14843049D-21 -0.21958280D-20  0.36256056D-20
  0.43789395D-05  0.43789395D-05 -0.87578790D-05 -0.48067295D-21  0.21464409D-19
 -0.46468383D-20  0.10012542D-05  0.10012542D-05 -0.20025084D-05  0.12836374D-22
  0.11675249D-19 -0.64957206D-20 -0.11881585D-20  0.43353918D-20  0.12992558D-04
 -0.12795993D-20  0.39934604D-20 -0.19488837D-04  0.48440749D-20 -0.16999636D-19
 -0.19488837D-04  0.38668752D-21 -0.79797727D-20  0.26891105D-20  0.60739431D-04
 -0.79862891D-20  0.27044721D-20 -0.91109146D-04  0.31925607D-19 -0.10771803D-19
 -0.91109146D-04 -0.13314279D-21 -0.87320371D-04 -0.16324036D-03 -0.28213031D-03
 -0.45633312D-03 -0.68972078D-03 -0.94985869D-03 -0.11101646D-02 -0.95926597D-03
 -0.44740506D-03 -0.60747942D-04 -0.16266802D-06 -0.31908741D-06 -0.14567673D-07
  0.15809506D-03  0.29524926D-03  0.51215552D-03  0.83044246D-03  0.12785607D-02
  0.18209576D-02  0.23415151D-02  0.24578941D-02  0.17379053D-02 -0.38486641D-04
 -0.12487074D-02 -0.68757221D-03  0.29077312D-05 -0.85844404D-04 -0.16019836D-03
 -0.27824537D-03 -0.45069577D-03 -0.69619306D-03 -0.99252781D-03 -0.12909545D-02
 -0.13758095D-02 -0.10204093D-02  0.31761552D-04  0.92443765D-03  0.90562983D-03
 -0.42298284D-03  0.13060226D-03 -0.52461942D-03 -0.11816696D-03 -0.50226164D-18
 -0.65893992D-18 -0.72275665D-18 -0.59469563D-18 -0.31353530D-18 -0.81567065D-19
  0.90262274D-22  0.16734037D-18  0.21954146D-18  0.24080352D-18  0.19813695D-18
  0.10446172D-18  0.27176002D-19 -0.30073016D-22  0.36655110D-02  0.48089509D-02
  0.52746861D-02  0.43400953D-02  0.22881841D-02  0.59527735D-03 -0.65873508D-06
  0.42136579D-18  0.55325585D-18  0.62245013D-18  0.52446130D-18  0.29337630D-18
  0.73020763D-19 -0.33490840D-19 -0.13917754D-18 -0.18274096D-18 -0.20559590D-18
 -0.17323009D-18 -0.96902483D-19 -0.24118831D-19  0.11062058D-19 -0.33775901D-02
 -0.44347964D-02 -0.49894450D-02 -0.42039846D-02 -0.23516501D-02 -0.58532091D-03
  0.26845637D-03  0.37115578D-19 -0.12992457D-19 -0.58670922D-04 -0.68964958D-19
  0.25767821D-19  0.92537290D-04 -0.92496723D-21  0.29906637D-21  0.11897820D-05
 -0.90716651D-05 -0.90716651D-05  0.18143330D-04  0.56221805D-22  0.59481290D-19
 -0.22217389D-19  0.38147731D-04  0.38147731D-04 -0.76295461D-04 -0.21875586D-21
 -0.63501905D-19  0.21917272D-19 -0.29945127D-05 -0.29945127D-05  0.59890254D-05
  0.12100528D-22  0.17623152D-19 -0.60213991D-20  0.10217420D-20 -0.21819865D-20
 -0.22062343D-05  0.98726496D-21 -0.21544059D-20  0.33093514D-05 -0.40524908D-20
  0.87003654D-20  0.33093514D-05  0.24139010D-21  0.28479315D-20 -0.90229318D-21
 -0.64198126D-05  0.28581609D-20 -0.88899505D-21  0.96297189D-05 -0.11401955D-19
  0.35958746D-20  0.96297189D-05 -0.73331130D-22
MO    4     MO 0.0        OCC NO =    2.0000000  ORB. ENERGY =   -8.041153
  0.10168666D-03  0.19025421D-03  0.32851284D-03  0.53128918D-03  0.80187306D-03
  0.10985909D-02  0.12695646D-02  0.10669105D-02  0.46863384D-03  0.53564075D-04
 -0.72191751D-06  0.44901252D-06  0.22086917D-07 -0.19148984D-03 -0.35816169D-03
 -0.62013762D-03 -0.10069585D-02 -0.15464530D-02 -0.21994112D-02 -0.27983975D-02
 -0.29001249D-02 -0.19353229D-02  0.19060463D-03  0.14559088D-02  0.74754960D-03
 -0.32790972D-05  0.10837730D-03  0.20252695D-03  0.35118891D-03  0.56949038D-03
  0.87780854D-03  0.12490736D-02  0.16084290D-02  0.16908640D-02  0.11853475D-02
 -0.13762946D-03 -0.11141979D-02 -0.10486116D-02  0.51136514D-03 -0.46225765D-04