 Molden2AIM, Version 4.0.0 (06/02/2016)           Time: Fri Jun 29 17:46:54 2018
GAUSSIAN             20 MOL ORBITALS    356 PRIMITIVES        4 NUCLEI
  P    1    (CENTRE  1)  -0.00005858  0.00000000  0.00000000  CHARGE = 15.0
  O    2    (CENTRE  2)  -1.43561360  2.48669817  0.00000000  CHARGE =  8.0
  O    3    (CENTRE  3)  -1.43561360 -2.48669817  0.00000000  CHARGE =  8.0
  O    4    (CENTRE  4)   2.87128767  0.00000000  0.00000000  CHARGE =  8.0
CENTRE ASSIGNMENTS    1  1  1  1  1  1  1  1  1  1  1  1  1  1  1  1  1  1  1  1
CENTRE ASSIGNMENTS    1  1  1  1  1  1  1  1  1  1  1  1  1  1  1  1  1  1  1  1
CENTRE ASSIGNMENTS    1  1  1  1  1  1  1  1  1  1  1  1  1  1  1  1  1  1  1  1
CENTRE ASSIGNMENTS    1  1  1  1  1  1  1  1  1  1  1  1  1  1  1  1  1  1  1  1
CENTRE ASSIGNMENTS    1  1  1  1  1  1  1  1  1  1  1  1  1  1  1  1  1  1  1  1
CENTRE ASSIGNMENTS    1  1  1  1  1  1  1  1  1  1  1  1  1  1  1  1  1  1  1  1
CENTRE ASSIGNMENTS    1  1  1  1  1  1  1  1  1  1  1  2  2  2  2  2  2  2  2  2
CENTRE ASSIGNMENTS    2  2  2  2  2  2  2  2  2  2  2  2  2  2  2  2  2  2  2  2
CENTRE ASSIGNMENTS    2  2  2  2  2  2  2  2  2  2  2  2  2  2  2  2  2  2  2  2
CENTRE ASSIGNMENTS    2  2  2  2  2  2  2  2  2  2  2  2  2  2  2  2  2  2  2  2
CENTRE ASSIGNMENTS    2  2  2  2  2  2  3  3  3  3  3  3  3  3  3  3  3  3  3  3
CENTRE ASSIGNMENTS    3  3  3  3  3  3  3  3  3  3  3  3  3  3  3  3  3  3  3  3
CENTRE ASSIGNMENTS    3  3  3  3  3  3  3  3  3  3  3  3  3  3  3  3  3  3  3  3
CENTRE ASSIGNMENTS    3  3  3  3  3  3  3  3  3  3  3  3  3  3  3  3  3  3  3  3
CENTRE ASSIGNMENTS    3  4  4  4  4  4  4  4  4  4  4  4  4  4  4  4  4  4  4  4
CENTRE ASSIGNMENTS    4  4  4  4  4  4  4  4  4  4  4  4  4  4  4  4  4  4  4  4
CENTRE ASSIGNMENTS    4  4  4  4  4  4  4  4  4  4  4  4  4  4  4  4  4  4  4  4
CENTRE ASSIGNMENTS    4  4  4  4  4  4  4  4  4  4  4  4  4  4  4  4
TYPE ASSIGNMENTS      1  1  1  1  1  1  1  1  1  1  1  1  1  1  1  1  1  1  1  1
TYPE ASSIGNMENTS      1  1  1  1  1  1  1  1  1  1  1  1  1  1  1  1  1  1  1  1
TYPE ASSIGNMENTS      1  1  2  2  2  2  2  2  2  3  3  3  3  3  3  3  4  4  4  4
TYPE ASSIGNMENTS      4  4  4  2  2  2  2  2  2  2  3  3  3  3  3  3  3  4  4  4
TYPE ASSIGNMENTS      4  4  4  4  2  3  4  2  3  4  2  3  4  5  6  7  8  9 10  5
TYPE ASSIGNMENTS      6  7  8  9 10  5  6  7  8  9 10 11 12 13 17 14 15 18 19 16
TYPE ASSIGNMENTS     20 11 12 13 17 14 15 18 19 16 20  1  1  1  1  1  1  1  1  1
TYPE ASSIGNMENTS      1  1  1  1  1  1  1  1  1  1  2  2  2  3  3  3  4  4  4  2
TYPE ASSIGNMENTS      3  4  2  3  4  2  3  4  5  6  7  8  9 10  5  6  7  8  9 10
TYPE ASSIGNMENTS      5  6  7  8  9 10 11 12 13 17 14 15 18 19 16 20 11 12 13 17
TYPE ASSIGNMENTS     14 15 18 19 16 20  1  1  1  1  1  1  1  1  1  1  1  1  1  1
TYPE ASSIGNMENTS      1  1  1  1  1  2  2  2  3  3  3  4  4  4  2  3  4  2  3  4
TYPE ASSIGNMENTS      2  3  4  5  6  7  8  9 10  5  6  7  8  9 10  5  6  7  8  9
TYPE ASSIGNMENTS     10 11 12 13 17 14 15 18 19 16 20 11 12 13 17 14 15 18 19 16
TYPE ASSIGNMENTS     20  1  1  1  1  1  1  1  1  1  1  1  1  1  1  1  1  1  1  1
TYPE ASSIGNMENTS      2  2  2  3  3  3  4  4  4  2  3  4  2  3  4  2  3  4  5  6
TYPE ASSIGNMENTS      7  8  9 10  5  6  7  8  9 10  5  6  7  8  9 10 11 12 13 17
TYPE ASSIGNMENTS     14 15 18 19 16 20 11 12 13 17 14 15 18 19 16 20
EXPONENTS  0.3124000D+06 0.4680000D+05 0.1065000D+05 0.3018000D+04 0.9868000D+03
EXPONENTS  0.3574000D+03 0.1396000D+03 0.5763000D+02 0.2460000D+02 0.1012000D+02
EXPONENTS  0.4283000D+01 0.1805000D+01 0.2782000D+00 0.3124000D+06 0.4680000D+05
EXPONENTS  0.1065000D+05 0.3018000D+04 0.9868000D+03 0.3574000D+03 0.1396000D+03
EXPONENTS  0.5763000D+02 0.2460000D+02 0.1012000D+02 0.4283000D+01 0.1805000D+01
EXPONENTS  0.2782000D+00 0.3124000D+06 0.4680000D+05 0.1065000D+05 0.3018000D+04
EXPONENTS  0.9868000D+03 0.3574000D+03 0.1396000D+03 0.5763000D+02 0.2460000D+02
EXPONENTS  0.1012000D+02 0.4283000D+01 0.1805000D+01 0.2782000D+00 0.6158000D+00
EXPONENTS  0.1055000D+00 0.4090000D-01 0.5049000D+03 0.1194000D+03 0.3796000D+02
EXPONENTS  0.1395000D+02 0.5457000D+01 0.2177000D+01 0.2877000D+00 0.5049000D+03
EXPONENTS  0.1194000D+03 0.3796000D+02 0.1395000D+02 0.5457000D+01 0.2177000D+01
EXPONENTS  0.2877000D+00 0.5049000D+03 0.1194000D+03 0.3796000D+02 0.1395000D+02
EXPONENTS  0.5457000D+01 0.2177000D+01 0.2877000D+00 0.5049000D+03 0.1194000D+03
EXPONENTS  0.3796000D+02 0.1395000D+02 0.5457000D+01 0.2177000D+01 0.2877000D+00
EXPONENTS  0.5049000D+03 0.1194000D+03 0.3796000D+02 0.1395000D+02 0.5457000D+01
EXPONENTS  0.2177000D+01 0.2877000D+00 0.5049000D+03 0.1194000D+03 0.3796000D+02
EXPONENTS  0.1395000D+02 0.5457000D+01 0.2177000D+01 0.2877000D+00 0.8010000D+00
EXPONENTS  0.8010000D+00 0.8010000D+00 0.9714000D-01 0.9714000D-01 0.9714000D-01
EXPONENTS  0.3070000D-01 0.3070000D-01 0.3070000D-01 0.2160000D+00 0.2160000D+00
EXPONENTS  0.2160000D+00 0.2160000D+00 0.2160000D+00 0.2160000D+00 0.6520000D+00
EXPONENTS  0.6520000D+00 0.6520000D+00 0.6520000D+00 0.6520000D+00 0.6520000D+00
EXPONENTS  0.7750000D-01 0.7750000D-01 0.7750000D-01 0.7750000D-01 0.7750000D-01
EXPONENTS  0.7750000D-01 0.4520000D+00 0.4520000D+00 0.4520000D+00 0.4520000D+00
EXPONENTS  0.4520000D+00 0.4520000D+00 0.4520000D+00 0.4520000D+00 0.4520000D+00
EXPONENTS  0.4520000D+00 0.1650000D+00 0.1650000D+00 0.1650000D+00 0.1650000D+00
EXPONENTS  0.1650000D+00 0.1650000D+00 0.1650000D+00 0.1650000D+00 0.1650000D+00
EXPONENTS  0.1650000D+00 0.1533000D+05 0.2299000D+04 0.5224000D+03 0.1473000D+03
EXPONENTS  0.4755000D+02 0.1676000D+02 0.6207000D+01 0.6882000D+00 0.1533000D+05
EXPONENTS  0.2299000D+04 0.5224000D+03 0.1473000D+03 0.4755000D+02 0.1676000D+02
EXPONENTS  0.6207000D+01 0.6882000D+00 0.1752000D+01 0.2384000D+00 0.7376000D-01
EXPONENTS  0.3446000D+02 0.7749000D+01 0.2280000D+01 0.3446000D+02 0.7749000D+01
EXPONENTS  0.2280000D+01 0.3446000D+02 0.7749000D+01 0.2280000D+01 0.7156000D+00
EXPONENTS  0.7156000D+00 0.7156000D+00 0.2140000D+00 0.2140000D+00 0.2140000D+00
EXPONENTS  0.5974000D-01 0.5974000D-01 0.5974000D-01 0.2314000D+01 0.2314000D+01
EXPONENTS  0.2314000D+01 0.2314000D+01 0.2314000D+01 0.2314000D+01 0.6450000D+00
EXPONENTS  0.6450000D+00 0.6450000D+00 0.6450000D+00 0.6450000D+00 0.6450000D+00
EXPONENTS  0.2140000D+00 0.2140000D+00 0.2140000D+00 0.2140000D+00 0.2140000D+00
EXPONENTS  0.2140000D+00 0.1428000D+01 0.1428000D+01 0.1428000D+01 0.1428000D+01
EXPONENTS  0.1428000D+01 0.1428000D+01 0.1428000D+01 0.1428000D+01 0.1428000D+01
EXPONENTS  0.1428000D+01 0.5000000D+00 0.5000000D+00 0.5000000D+00 0.5000000D+00
EXPONENTS  0.5000000D+00 0.5000000D+00 0.5000000D+00 0.5000000D+00 0.5000000D+00
EXPONENTS  0.5000000D+00 0.1533000D+05 0.2299000D+04 0.5224000D+03 0.1473000D+03
EXPONENTS  0.4755000D+02 0.1676000D+02 0.6207000D+01 0.6882000D+00 0.1533000D+05
EXPONENTS  0.2299000D+04 0.5224000D+03 0.1473000D+03 0.4755000D+02 0.1676000D+02
EXPONENTS  0.6207000D+01 0.6882000D+00 0.1752000D+01 0.2384000D+00 0.7376000D-01
EXPONENTS  0.3446000D+02 0.7749000D+01 0.2280000D+01 0.3446000D+02 0.7749000D+01
EXPONENTS  0.2280000D+01 0.3446000D+02 0.7749000D+01 0.2280000D+01 0.7156000D+00
EXPONENTS  0.7156000D+00 0.7156000D+00 0.2140000D+00 0.2140000D+00 0.2140000D+00
EXPONENTS  0.5974000D-01 0.5974000D-01 0.5974000D-01 0.2314000D+01 0.2314000D+01
EXPONENTS  0.2314000D+01 0.2314000D+01 0.2314000D+01 0.2314000D+01 0.6450000D+00
EXPONENTS  0.6450000D+00 0.6450000D+00 0.6450000D+00 0.6450000D+00 0.6450000D+00
EXPONENTS  0.2140000D+00 0.2140000D+00 0.2140000D+00 0.2140000D+00 0.2140000D+00
EXPONENTS  0.2140000D+00 0.1428000D+01 0.1428000D+01 0.1428000D+01 0.1428000D+01
EXPONENTS  0.1428000D+01 0.1428000D+01 0.1428000D+01 0.1428000D+01 0.1428000D+01
EXPONENTS  0.1428000D+01 0.5000000D+00 0.5000000D+00 0.5000000D+00 0.5000000D+00
EXPONENTS  0.5000000D+00 0.5000000D+00 0.5000000D+00 0.5000000D+00 0.5000000D+00
EXPONENTS  0.5000000D+00 0.1533000D+05 0.2299000D+04 0.5224000D+03 0.1473000D+03
EXPONENTS  0.4755000D+02 0.1676000D+02 0.6207000D+01 0.6882000D+00 0.1533000D+05
EXPONENTS  0.2299000D+04 0.5224000D+03 0.1473000D+03 0.4755000D+02 0.1676000D+02
EXPONENTS  0.6207000D+01 0.6882000D+00 0.1752000D+01 0.2384000D+00 0.7376000D-01
EXPONENTS  0.3446000D+02 0.7749000D+01 0.2280000D+01 0.3446000D+02 0.7749000D+01
EXPONENTS  0.2280000D+01 0.3446000D+02 0.7749000D+01 0.2280000D+01 0.7156000D+00
EXPONENTS  0.7156000D+00 0.7156000D+00 0.2140000D+00 0.2140000D+00 0.2140000D+00
EXPONENTS  0.5974000D-01 0.5974000D-01 0.5974000D-01 0.2314000D+01 0.2314000D+01
EXPONENTS  0.2314000D+01 0.2314000D+01 0.2314000D+01 0.2314000D+01 0.6450000D+00
EXPONENTS  0.6450000D+00 0.6450000D+00 0.6450000D+00 0.6450000D+00 0.6450000D+00
EXPONENTS  0.2140000D+00 0.2140000D+00 0.2140000D+00 0.2140000D+00 0.2140000D+00
EXPONENTS  0.2140000D+00 0.1428000D+01 0.1428000D+01 0.1428000D+01 0.1428000D+01
EXPONENTS  0.1428000D+01 0.1428000D+01 0.1428000D+01 0.1428000D+01 0.1428000D+01
EXPONENTS  0.1428000D+01 0.5000000D+00 0.5000000D+00 0.5000000D+00 0.5000000D+00
EXPONENTS  0.5000000D+00 0.5000000D+00 0.5000000D+00 0.5000000D+00 0.5000000D+00
EXPONENTS  0.5000000D+00
MO    1     MO 0.0        OCC NO =    2.0000000  ORB. ENERGY =  -77.138260
  0.54422416D+00  0.10182352D+01  0.17581915D+01  0.28434447D+01  0.42916020D+01
  0.58796275D+01  0.67946741D+01  0.57100749D+01  0.25081151D+01  0.28667342D+00
 -0.38636821D-02  0.24031023D-02  0.11820856D-03 -0.15634547D-02 -0.29242783D-02
 -0.50632298D-02 -0.82215017D-02 -0.12626305D-01 -0.17957505D-01 -0.22848041D-01
 -0.23678614D-01 -0.15801307D-01  0.15562272D-02  0.11887040D-01  0.61035088D-02
 -0.26772804D-04  0.77576603D-03  0.14496903D-02  0.25138144D-02  0.40764189D-02
  0.62833640D-02  0.89408837D-02  0.11513154D-01  0.12103225D-01  0.84847318D-02
 -0.98515329D-03 -0.79754419D-02 -0.75059745D-02  0.36603578D-02 -0.27414580D-02
  0.43729187D-03  0.42885360D-04 -0.21026543D-06 -0.27506731D-06 -0.30093328D-06
 -0.24788558D-06 -0.13253877D-06 -0.36621747D-07  0.30017201D-10  0.17512675D-14
  0.22909921D-14  0.25064257D-14  0.20645998D-14  0.11038944D-14  0.30501674D-15
 -0.25000852D-18 -0.10773607D-16 -0.14093934D-16 -0.15419258D-16 -0.12701193D-16
 -0.67910381D-17 -0.18764297D-17  0.15380252D-20  0.15205199D-06  0.20137860D-06
  0.22246926D-06  0.19054560D-06  0.10394983D-06  0.31951454D-07 -0.13910544D-07
 -0.18065823D-14 -0.23926488D-14 -0.26432342D-14 -0.22639381D-14 -0.12350639D-14
 -0.37962627D-15  0.16527599D-15  0.41141104D-17  0.54487534D-17  0.60194088D-17
  0.51556420D-17  0.28125978D-17  0.86451883D-18 -0.37638123D-18  0.36628220D-08
  0.30496849D-15  0.75899098D-18  0.15179931D-07 -0.80403229D-15 -0.49924768D-19
 -0.95338981D-09  0.14026054D-17 -0.15747960D-20  0.62100409D-04  0.62126184D-04
 -0.12422659D-03  0.23618863D-15  0.17523415D-19  0.22201629D-20  0.27518343D-03
  0.27525558D-03 -0.55043901D-03 -0.33065106D-15  0.13991620D-19 -0.23801440D-19
 -0.45941456D-05 -0.46022184D-05  0.91963640D-05  0.11534605D-15  0.92586669D-21
  0.11958356D-21  0.17576712D-03 -0.18316528D-16  0.40285991D-19 -0.52730304D-03
  0.16311962D-16 -0.52669740D-19  0.16738299D-08  0.38637621D-16 -0.68188233D-19
  0.84070003D-20 -0.12978657D-04 -0.29911511D-16  0.64136400D-20  0.38936496D-04
  0.29441484D-16 -0.73699073D-20 -0.52322052D-09  0.60293049D-16 -0.11871013D-19
 -0.11697187D-20  0.17454630D-03  0.32533184D-03  0.55165501D-03  0.83495555D-03
  0.10417807D-02  0.89475072D-03  0.34351220D-03 -0.15365511D-05 -0.11815013D-03
 -0.22159350D-03 -0.37776834D-03 -0.59037839D-03 -0.78944839D-03 -0.84294683D-03
 -0.51536116D-03  0.34000400D-03  0.12071393D-04 -0.70376347D-03 -0.14224590D-03
  0.20456281D-03  0.19835712D-03  0.13381054D-03 -0.35436727D-03 -0.34361705D-03
 -0.23180203D-03  0.57820950D-19  0.56066872D-19  0.37822380D-19 -0.17386300D-03
  0.30118102D-03 -0.55809581D-19 -0.31057607D-03  0.53798404D-03  0.11618896D-18
 -0.88450530D-05  0.15330889D-04  0.54747403D-20 -0.83970522D-04  0.24205877D-03
 -0.15808825D-03 -0.56447170D-03 -0.51447957D-19  0.10609145D-18  0.60647992D-04
 -0.22320187D-03  0.16255388D-03  0.49147170D-03  0.30256022D-19 -0.53824807D-19
  0.10058703D-04 -0.81781898D-04  0.71723195D-04  0.15903975D-03  0.36007237D-19
 -0.59348344D-19 -0.19723451D-04 -0.21665100D-04  0.83082296D-19  0.10920062D-03
 -0.21662317D-04 -0.76920843D-19 -0.50030271D-04  0.86657615D-04 -0.17232605D-18
  0.18638391D-18  0.51776040D-04  0.25327241D-04 -0.32884010D-19 -0.21377771D-03
  0.25274192D-04  0.24012452D-19  0.58449593D-04 -0.10125591D-03  0.74639578D-19
 -0.94039477D-19  0.17454630D-03  0.32533184D-03  0.55165501D-03  0.83495555D-03
  0.10417807D-02  0.89475072D-03  0.34351220D-03 -0.15365511D-05 -0.11815013D-03
 -0.22159350D-03 -0.37776834D-03 -0.59037839D-03 -0.78944839D-03 -0.84294683D-03
 -0.51536116D-03  0.34000400D-03  0.12071393D-04 -0.70376347D-03 -0.14224590D-03
  0.20456281D-03  0.19835712D-03  0.13381054D-03  0.35436727D-03  0.34361705D-03
  0.23180203D-03  0.67745443D-19  0.65690291D-19  0.44314282D-19 -0.17386300D-03
 -0.30118102D-03 -0.60236009D-19 -0.31057607D-03 -0.53798404D-03  0.12062992D-18
 -0.88450530D-05 -0.15330889D-04  0.57815445D-20 -0.83970522D-04  0.24205877D-03
 -0.15808825D-03  0.56447170D-03 -0.29312350D-19 -0.70973530D-19  0.60647992D-04
 -0.22320187D-03  0.16255388D-03 -0.49147170D-03  0.24870111D-19  0.40572660D-19
  0.10058703D-04 -0.81781898D-04  0.71723195D-04 -0.15903975D-03  0.37041453D-19
  0.61030467D-19 -0.19723451D-04  0.21665100D-04  0.78489626D-19  0.10920062D-03
  0.21662317D-04 -0.61926957D-19 -0.50030271D-04 -0.86657615D-04 -0.17354192D-18
 -0.17804067D-18  0.51776040D-04 -0.25327241D-04 -0.30858233D-19 -0.21377771D-03
 -0.25274192D-04  0.22141816D-19  0.58449593D-04  0.10125591D-03  0.70432881D-19
  0.88787459D-19  0.17454703D-03  0.32533320D-03  0.55165731D-03  0.83495903D-03
  0.10417851D-02  0.89475445D-03  0.34351363D-03 -0.15365576D-05 -0.11815044D-03
 -0.22159408D-03 -0.37776933D-03 -0.59037993D-03 -0.78945045D-03 -0.84294903D-03
 -0.51536251D-03  0.34000488D-03  0.12065243D-04 -0.70372705D-03 -0.14228115D-03
 -0.40915832D-03 -0.39674594D-03 -0.26764247D-03  0.20350498D-15  0.19733137D-15
  0.13311858D-15  0.42558062D-19  0.41267005D-19  0.27838478D-19  0.34774118D-03
 -0.16029970D-15 -0.40659319D-19  0.62115050D-03  0.57567701D-17  0.86049615D-19
  0.17703021D-04 -0.53048830D-16  0.41669046D-20  0.40496451D-03 -0.24687049D-03
 -0.15809402D-03 -0.17285481D-15  0.71866497D-19  0.65958497D-20 -0.36503726D-03
  0.20248588D-03  0.16255138D-03  0.11636588D-15 -0.45004216D-19 -0.16588950D-20
 -0.12768004D-03  0.55963007D-04  0.71717037D-04 -0.27694793D-16 -0.53744588D-19
  0.70553794D-21 -0.57246693D-04 -0.10652526D-15  0.75877059D-19  0.71683946D-04
 -0.63119220D-16 -0.18516214D-18  0.10005613D-03  0.38269500D-15 -0.42469035D-19
  0.52822600D-21  0.95614439D-04  0.28221931D-16 -0.28670439D-19 -0.16993314D-03
  0.16642776D-16  0.81154705D-19 -0.11691018D-03 -0.10130857D-15  0.48566111D-20
  0.32388259D-21
MO    2     MO 0.0        OCC NO =    2.0000000  ORB. ENERGY =  -19.000887
  0.42605177D-13  0.79713642D-13  0.13764192D-12  0.22260214D-12  0.33597270D-12
  0.46029300D-12  0.53192841D-12  0.44701939D-12  0.19635050D-12  0.22442539D-13
 -0.30247254D-15  0.18812946D-15  0.92540846D-17 -0.82973513D-13 -0.15519327D-12
 -0.26870876D-12 -0.43632021D-12 -0.67008588D-12 -0.95301595D-12 -0.12125597D-11
 -0.12566388D-11 -0.83858518D-12  0.82589948D-13  0.63085263D-12  0.32391701D-12
 -0.14208494D-14  0.50298841D-13  0.93994504D-13  0.16298980D-12  0.26430540D-12
  0.40739852D-12  0.57970583D-12  0.74648576D-12  0.78474459D-12  0.55013002D-12
 -0.63875018D-13 -0.51710886D-12 -0.48666970D-12  0.23732897D-12 -0.76193383D-13
 -0.12399578D-15 -0.20406233D-14 -0.21506150D-11 -0.28134149D-11 -0.30779745D-11
 -0.25353976D-11 -0.13556192D-11 -0.37457074D-12  0.30701881D-15  0.21964598D-01
  0.28733886D-01  0.31435878D-01  0.25894448D-01  0.13845170D-01  0.38255549D-02
 -0.31356355D-05 -0.31031282D-15 -0.40594840D-15 -0.44412177D-15 -0.36583320D-15
 -0.19560266D-15 -0.54046914D-16  0.44299827D-19  0.20701525D-11  0.27417228D-11
  0.30288672D-11  0.25942340D-11  0.14152528D-11  0.43501161D-12 -0.18938882D-12
 -0.20722482D-01 -0.27444984D-01 -0.30319334D-01 -0.25968602D-01 -0.14166855D-01
 -0.43545199D-02  0.18958055D-02  0.23300607D-15  0.30859469D-15  0.34091424D-15
  0.29199409D-15  0.15929382D-15  0.48962745D-16 -0.21316665D-16 -0.31153569D-14
 -0.18352321D-03  0.18103672D-16  0.63823645D-13  0.72870278D-04 -0.21653266D-17
 -0.66661267D-15  0.76106262D-05  0.94961297D-18 -0.17131931D-13  0.27258147D-13
 -0.10126216D-13 -0.51027431D-03  0.15877092D-16  0.40334476D-16 -0.35195816D-13
  0.14238020D-12 -0.10718439D-12 -0.13993760D-02 -0.25111999D-16 -0.55833462D-15
  0.51813048D-14 -0.58494580D-14  0.66815320D-15  0.30730150D-04  0.61010084D-19
  0.16549010D-18  0.17151720D-13  0.86656491D-04 -0.53517000D-18 -0.87388422D-13
  0.86574785D-04  0.40899184D-18  0.35933264D-13 -0.34654426D-03  0.11965182D-17
  0.39744408D-18  0.30507764D-14 -0.27540460D-05 -0.14080839D-18 -0.36511203D-14
 -0.27433569D-05  0.15642167D-18 -0.55012088D-14  0.11005495D-04  0.26600350D-18
  0.54099039D-18  0.35112934D+00  0.65445991D+00  0.11097472D+01  0.16796540D+01
  0.20957178D+01  0.17999421D+01  0.69103277D+00 -0.30910320D-02  0.31732829D-03
  0.59515707D-03  0.10146123D-02  0.15856416D-02  0.21203049D-02  0.22639913D-02
  0.13841599D-02 -0.91318463D-03  0.38249519D-01 -0.49479274D-03 -0.24606068D-03
  0.25097363D-02  0.24336000D-02  0.16416922D-02 -0.43464490D-02 -0.42145934D-02
 -0.28431398D-02  0.17782898D-16  0.17243429D-16  0.11632315D-16 -0.47001898D-03
  0.79239720D-03 -0.19409004D-17 -0.33427836D-03  0.68025180D-03 -0.11953452D-18
 -0.20671238D-04  0.17912625D-04 -0.38026483D-18 -0.22324187D-03  0.88591783D-03
 -0.66267596D-03 -0.19750748D-02 -0.10768531D-17  0.15760310D-17  0.73745738D-04
 -0.36908288D-03  0.29533714D-03  0.80110860D-03 -0.14840574D-17  0.24288362D-17
  0.30884962D-04 -0.94737934D-04  0.63852972D-04  0.16945715D-03 -0.40398851D-18
  0.11764479D-18 -0.60555319D-04  0.56052600D-04 -0.13003065D-17  0.20562481D-03
 -0.92541101D-04  0.21656249D-17 -0.23958857D-04 -0.75616700D-04  0.17352945D-17
 -0.13868679D-16  0.63068104D-04  0.30707908D-04  0.73335631D-18 -0.29684447D-03
  0.61565939D-04 -0.10685225D-17  0.10764016D-03 -0.15368966D-03 -0.11315464D-17
  0.36676449D-17 -0.35112934D+00 -0.65445991D+00 -0.11097472D+01 -0.16796540D+01
 -0.20957178D+01 -0.17999421D+01 -0.69103277D+00  0.30910320D-02 -0.31732829D-03
 -0.59515707D-03 -0.10146123D-02 -0.15856416D-02 -0.21203049D-02 -0.22639913D-02
 -0.13841599D-02  0.91318463D-03 -0.38249519D-01  0.49479274D-03  0.24606068D-03
 -0.25097363D-02 -0.24336000D-02 -0.16416922D-02 -0.43464490D-02 -0.42145934D-02
 -0.28431398D-02  0.11298268D-17  0.10955519D-17  0.73905285D-18  0.47001898D-03
  0.79239720D-03  0.16671549D-17  0.33427836D-03  0.68025180D-03 -0.32521878D-17
  0.20671238D-04  0.17912625D-04 -0.81178015D-19  0.22324187D-03 -0.88591783D-03
  0.66267596D-03 -0.19750748D-02 -0.46432379D-17  0.25072742D-16 -0.73745738D-04
  0.36908288D-03 -0.29533714D-03  0.80110860D-03  0.42898583D-18 -0.23880588D-17
 -0.30884962D-04  0.94737934D-04 -0.63852972D-04  0.16945715D-03 -0.81202256D-18
 -0.78207572D-18  0.60555319D-04  0.56052600D-04 -0.26975926D-17 -0.20562481D-03
 -0.92541101D-04  0.13921138D-17  0.23958857D-04 -0.75616700D-04  0.67006639D-17
  0.54405530D-17 -0.63068104D-04  0.30707908D-04  0.80214368D-18  0.29684447D-03
  0.61565939D-04 -0.19546555D-18 -0.10764016D-03 -0.15368966D-03 -0.22109655D-17
 -0.16650655D-17  0.40489001D-11  0.75466288D-11  0.12796582D-10  0.19368223D-10
  0.24165887D-10  0.20755274D-10  0.79683533D-11 -0.35642933D-13  0.79291899D-14
  0.14871392D-13  0.25352464D-13  0.39620966D-13  0.52980781D-13  0.56571122D-13
  0.34586475D-13 -0.22818055D-13  0.43356740D-12 -0.12042081D-13 -0.64248844D-13
 -0.35431675D-13 -0.34356806D-13 -0.23176898D-13  0.11850764D-05  0.11491255D-05
  0.77519326D-06  0.10214107D-16  0.99042483D-17  0.66813474D-17  0.12315552D-13
 -0.21745752D-04  0.97927694D-18 -0.40775838D-13  0.10112212D-03 -0.20803712D-17
  0.62519034D-14 -0.17891031D-04 -0.25875936D-18 -0.13602861D-13  0.87331731D-14
  0.48696878D-14 -0.54378560D-04  0.46577235D-17 -0.57414855D-17  0.68910179D-14
 -0.25363472D-14 -0.43546707D-14  0.34232724D-04 -0.85734569D-18  0.86917106D-18
  0.12600490D-13 -0.52601003D-14 -0.73403896D-14 -0.48059657D-04  0.14698722D-17
 -0.54863031D-18  0.72735522D-14 -0.45072104D-04  0.72830661D-19 -0.35794074D-13
  0.25232892D-03  0.11939726D-17  0.13973418D-13 -0.11711261D-03 -0.14124645D-17
  0.28765510D-18 -0.45856948D-14  0.72667706D-05  0.15479918D-18  0.59298744D-14
 -0.54566692D-04 -0.53479259D-18  0.78272100D-14  0.32766380D-04  0.70395050D-19
  0.14062207D-17
MO    3     MO 0.0        OCC NO =    2.0000000  ORB. ENERGY =  -19.000882
  0.99212276D-04  0.18562467D-03  0.32051899D-03  0.51836107D-03  0.78236071D-03
  0.10718584D-02  0.12386717D-02  0.10409489D-02  0.45723035D-03  0.52260675D-04
 -0.70435075D-06  0.43808648D-06  0.21549466D-07 -0.19071897D-03 -0.35671986D-03
 -0.61764116D-03 -0.10029049D-02 -0.15402275D-02 -0.21905571D-02 -0.27871321D-02
 -0.28884500D-02 -0.19275320D-02  0.18983732D-03  0.14500478D-02  0.74454022D-03
 -0.32658967D-05  0.11375054D-03  0.21256803D-03  0.36860050D-03  0.59772514D-03
  0.92132942D-03  0.13110014D-02  0.16881733D-02  0.17746954D-02  0.12441159D-02
 -0.14445299D-03 -0.11694387D-02 -0.11006007D-02  0.53671811D-03 -0.26101541D-03
  0.57190236D-03  0.70827910D-04 -0.20059394D-01 -0.26241516D-01 -0.28709138D-01
 -0.23648369D-01 -0.12644243D-01 -0.34937272D-02  0.28636512D-05 -0.34790918D-11
 -0.45513160D-11 -0.49792992D-11 -0.41015620D-11 -0.21930116D-11 -0.60595038D-12
  0.49667031D-15 -0.37036889D-15 -0.48451319D-15 -0.53007441D-15 -0.43663434D-15
 -0.23345842D-15 -0.64506826D-16  0.52873347D-19  0.18925033D-01  0.25064431D-01
  0.27689463D-01  0.23716110D-01  0.12938035D-01  0.39768128D-02 -0.17313650D-02
  0.33367291D-11  0.44191848D-11  0.48820121D-11  0.41814582D-11  0.22811437D-11
  0.70116376D-12 -0.30526215D-12  0.27262384D-15  0.36106471D-15  0.39887951D-15
  0.34164152D-15  0.18637838D-15  0.57287826D-16 -0.24941113D-16  0.16763175D-03
 -0.37798734D-14 -0.94250336D-18 -0.66599253D-04  0.10779852D-12  0.10300602D-19
 -0.69506437D-05 -0.23139901D-14  0.51929442D-20 -0.19059521D-03  0.27553646D-03
 -0.84941251D-04  0.35496541D-13  0.39311391D-18 -0.17918436D-18 -0.52742848D-03
  0.75083354D-03 -0.22340506D-03  0.28071663D-12 -0.78942694D-19 -0.10618268D-19
  0.15871755D-04 -0.12191442D-04 -0.36803131D-05 -0.23548942D-13  0.30710585D-19
  0.28083865D-20 -0.27190820D-05 -0.16447111D-13 -0.71127319D-19 -0.30833141D-03
 -0.74320470D-14  0.76108112D-19  0.31648866D-03  0.56773379D-13  0.13727385D-18
  0.24032567D-19  0.13991207D-04 -0.80911260D-16 -0.13147716D-19 -0.31926709D-04
  0.83591253D-14  0.10852676D-18 -0.10046913D-04 -0.81163916D-14 -0.69083615D-19
  0.50729001D-19  0.30186841D+00  0.56264387D+00  0.95405758D+00  0.14440106D+01
  0.18017036D+01  0.15474231D+01  0.59408582D+00 -0.26573823D-02  0.28715612D-03
  0.53856842D-03  0.91814109D-03  0.14348758D-02  0.19187024D-02  0.20487268D-02
  0.12525514D-02 -0.82635733D-03  0.32878020D-01 -0.49797989D-03 -0.25547596D-03
  0.21398950D-02  0.20749784D-02  0.13997681D-02 -0.37088990D-02 -0.35963844D-02
 -0.24260997D-02  0.13315418D-16  0.12911476D-16  0.87100057D-17 -0.39325424D-03
  0.71566209D-03 -0.18738123D-17 -0.35706751D-03  0.45850146D-03  0.41374149D-18
  0.13938456D-05  0.25889967D-04  0.50139096D-20 -0.21197820D-03  0.74517337D-03
 -0.53319517D-03 -0.15716053D-02 -0.17752924D-17 -0.26615605D-17  0.80755589D-04
 -0.31839570D-03  0.23764011D-03  0.63705887D-03 -0.12986488D-18  0.21422602D-18
  0.41801975D-05 -0.39786505D-04  0.35606308D-04  0.15217555D-03  0.14635693D-18
 -0.74490968D-19 -0.67292261D-04 -0.61621819D-04  0.35083326D-19  0.10146799D-03
  0.17354693D-03 -0.38654065D-18  0.10040880D-03  0.11318526D-04  0.28129067D-18
  0.79595098D-18  0.64152980D-04  0.44132654D-04 -0.43871460D-19 -0.23620108D-03
 -0.47930669D-05  0.28299064D-19  0.43742137D-04 -0.12760489D-03  0.10331532D-18
 -0.32188060D-18  0.30186841D+00  0.56264387D+00  0.95405758D+00  0.14440106D+01
  0.18017036D+01  0.15474231D+01  0.59408582D+00 -0.26573823D-02  0.28715612D-03
  0.53856842D-03  0.91814109D-03  0.14348758D-02  0.19187024D-02  0.20487268D-02
  0.12525514D-02 -0.82635733D-03  0.32878020D-01 -0.49797989D-03 -0.25547596D-03
  0.21398950D-02  0.20749784D-02  0.13997681D-02  0.37088990D-02  0.35963844D-02
  0.24260997D-02 -0.10973488D-16 -0.10640592D-16 -0.71780807D-17 -0.39325424D-03
 -0.71566209D-03  0.18716917D-18 -0.35706751D-03 -0.45850146D-03 -0.15144982D-18
  0.13938456D-05 -0.25889967D-04  0.37742829D-19 -0.21197820D-03  0.74517338D-03
 -0.53319517D-03  0.15716053D-02  0.55031201D-17  0.44623606D-17  0.80755589D-04
 -0.31839570D-03  0.23764011D-03 -0.63705887D-03 -0.59326892D-18 -0.15654945D-18
  0.41801975D-05 -0.39786505D-04  0.35606308D-04 -0.15217555D-03  0.16121977D-18
 -0.82468021D-19 -0.67292261D-04  0.61621819D-04  0.36885454D-18  0.10146799D-03
 -0.17354693D-03 -0.65711653D-18  0.10040880D-03 -0.11318526D-04 -0.44944707D-18
 -0.56928564D-19  0.64152980D-04 -0.44132654D-04  0.85197872D-20 -0.23620108D-03
  0.47930669D-05  0.22451999D-19  0.43742137D-04  0.12760489D-03 -0.48011361D-19
 -0.87749942D-19 -0.25361530D+00 -0.47270628D+00 -0.80155323D+00 -0.12131881D+01
 -0.15137046D+01 -0.13000704D+01 -0.49912229D+00  0.22326046D-02 -0.21486088D-03
 -0.40297691D-03 -0.68698729D-03 -0.10736274D-02 -0.14356444D-02 -0.15329335D-02
 -0.93720551D-03  0.61831127D-03 -0.27632384D-01  0.28482808D-03  0.13384264D-03
  0.36580351D-02  0.35470635D-02  0.23928281D-02 -0.21241040D-13 -0.20596664D-13
 -0.13894388D-13 -0.97214771D-17 -0.94265627D-17 -0.63591035D-17 -0.64098508D-03
  0.22698118D-13  0.49981043D-18 -0.62074019D-03 -0.38375533D-13 -0.70445364D-18
 -0.19172574D-04  0.12883339D-13 -0.41702033D-19 -0.11294057D-02  0.61427706D-03
  0.51512866D-03  0.10918818D-13 -0.57290162D-17  0.21812573D-17  0.46303721D-03
 -0.23348412D-03 -0.22955309D-03 -0.85839605D-14  0.92863436D-19 -0.57142315D-19
  0.12156628D-03 -0.56169099D-04 -0.65397185D-04  0.13587223D-13  0.38570629D-18
 -0.20955981D-20  0.51994081D-04  0.18278985D-13 -0.40737928D-18 -0.20030882D-03
 -0.55369896D-13  0.42923256D-18  0.44326582D-04  0.53293976D-15  0.79290529D-18
 -0.14688004D-18 -0.10807818D-03 -0.33073657D-14  0.12321690D-18  0.16095448D-03
  0.93136799D-14 -0.25455447D-18  0.16328005D-03  0.60841737D-15 -0.11509623D-18
 -0.18486459D-19
MO    4     MO 0.0        OCC NO =    2.0000000  ORB. ENERGY =  -19.000868
  0.22255031D-03  0.41638826D-03  0.71897957D-03  0.11627736D-02  0.17549705D-02
  0.24043639D-02  0.27785551D-02  0.23350285D-02  0.10256468D-02  0.11722974D-03
 -0.15799807D-05  0.98270382D-06  0.48339182D-07 -0.42781125D-03 -0.80017614D-03
 -0.13854617D-02 -0.22496660D-02 -0.34549613D-02 -0.49137481D-02 -0.62519552D-02
 -0.64792266D-02 -0.43237433D-02  0.42583358D-03  0.32526747D-02  0.16701154D-02
 -0.73258961D-05  0.25515728D-03  0.47681778D-03  0.82681894D-03  0.13407754D-02
  0.20666619D-02  0.29407470D-02  0.37867925D-02  0.39808729D-02  0.27907140D-02
 -0.32402687D-03 -0.26232034D-02 -0.24687908D-02  0.12039286D-02 -0.58562592D-03
  0.12830726D-02  0.15891299D-03  0.89427110D-02  0.11698773D-01  0.12798867D-01
  0.10542718D-01  0.56369506D-02  0.15575442D-02 -0.12766490D-05 -0.22793056D-11
 -0.29817667D-11 -0.32621572D-11 -0.26871131D-11 -0.14367380D-11 -0.39698466D-12
  0.32539050D-15  0.18555486D-15  0.24274117D-15  0.26556735D-15  0.21875386D-15
  0.11696270D-15  0.32317928D-16 -0.26489554D-19 -0.84369638D-02 -0.11173967D-01
 -0.12344232D-01 -0.10572873D-01 -0.57679021D-02 -0.17729019D-02  0.77185940D-03
  0.21823352D-11  0.28902984D-11  0.31930033D-11  0.27348170D-11  0.14919462D-11
  0.45858514D-12 -0.19965191D-12 -0.68720709D-16 -0.91014134D-16 -0.10054617D-15
 -0.86118101D-16 -0.46980683D-16 -0.14440630D-16  0.62869447D-17 -0.74763880D-04
  0.42977951D-17 -0.12240853D-16  0.29681081D-04  0.63243394D-13 -0.69429927D-19
  0.30986279D-05 -0.14460562D-14 -0.30446329D-20  0.19916107D-03 -0.85915490D-05
 -0.19056952D-03  0.25923002D-13 -0.27858346D-18 -0.21965389D-18  0.53541744D-03
 -0.34270590D-04 -0.50114685D-03  0.18011891D-12 -0.98285289D-19  0.83894209D-19
 -0.21260011D-05  0.10385208D-04 -0.82592064D-05 -0.14273065D-13 -0.14310774D-19
 -0.25754606D-19  0.20667885D-03 -0.10668758D-13 -0.14687061D-19 -0.47893615D-03
 -0.50563663D-14 -0.10049402D-18 -0.14110039D-03  0.37062640D-13  0.14455520D-18
 -0.37029653D-19  0.24639768D-04 -0.56701163D-16  0.14209499D-19 -0.78399966D-04
  0.50935221D-14 -0.63101880D-19  0.44806603D-05 -0.49234186D-14  0.20473383D-19
  0.54361180D-19  0.17927483D+00  0.33414522D+00  0.56659957D+00  0.85757484D+00
  0.10700030D+01  0.91898989D+00  0.35281809D+00 -0.15781770D-02  0.19419128D-03
  0.36421056D-03  0.62089916D-03  0.97034454D-03  0.12975355D-02  0.13854654D-02
  0.84704640D-03 -0.55882977D-03  0.19516874D-01 -0.41553290D-03 -0.22417164D-03
  0.12445476D-02  0.12067925D-02  0.81409508D-03 -0.21551478D-02 -0.20897684D-02
 -0.14097454D-02  0.84145880D-17  0.81593198D-17  0.55042290D-17 -0.26917420D-03
  0.45096267D-03 -0.83701530D-18 -0.78544185D-04  0.20741985D-03  0.26104692D-18
 -0.11500452D-04  0.73049060D-05  0.17207962D-19 -0.92221780D-04  0.34872277D-03
 -0.25650099D-03 -0.80194629D-03 -0.38163552D-18 -0.10003063D-17  0.34531151D-04
 -0.14886502D-03  0.11433387D-03  0.34169516D-03 -0.22037451D-19  0.12548583D-18
  0.24624706D-04 -0.13958654D-04 -0.10666052D-04  0.32925216D-04  0.89615960D-20
 -0.10899942D-18  0.68003715D-05  0.34570773D-04 -0.50045412D-19  0.80681200D-05
 -0.70356430D-04 -0.37967843D-19 -0.28469235D-04 -0.33355888D-04  0.18810408D-18
 -0.11644445D-18  0.34359797D-04  0.24395583D-07 -0.22089150D-20 -0.12906692D-03