 Molden2AIM, Version 4.0.0 (06/02/2016)           Time: Fri Jun 29 16:32:31 2018
GAUSSIAN             26 MOL ORBITALS    431 PRIMITIVES        5 NUCLEI
  S    1    (CENTRE  1)   0.00000000  0.00000000  0.78486373  CHARGE = 16.0
  F    2    (CENTRE  2)   2.34123272  0.00000000 -1.12729722  CHARGE =  9.0
  F    3    (CENTRE  3)  -2.34123272  0.00000000 -1.12729722  CHARGE =  9.0
  F    4    (CENTRE  4)   0.00000000 -3.18646753  0.56143574  CHARGE =  9.0
  F    5    (CENTRE  5)   0.00000000  3.18646753  0.56143574  CHARGE =  9.0
CENTRE ASSIGNMENTS    1  1  1  1  1  1  1  1  1  1  1  1  1  1  1  1  1  1  1  1
CENTRE ASSIGNMENTS    1  1  1  1  1  1  1  1  1  1  1  1  1  1  1  1  1  1  1  1
CENTRE ASSIGNMENTS    1  1  1  1  1  1  1  1  1  1  1  1  1  1  1  1  1  1  1  1
CENTRE ASSIGNMENTS    1  1  1  1  1  1  1  1  1  1  1  1  1  1  1  1  1  1  1  1
CENTRE ASSIGNMENTS    1  1  1  1  1  1  1  1  1  1  1  1  1  1  1  1  1  1  1  1
CENTRE ASSIGNMENTS    1  1  1  1  1  1  1  1  1  1  1  1  1  1  1  1  1  1  1  1
CENTRE ASSIGNMENTS    1  1  1  1  1  1  1  1  1  1  1  2  2  2  2  2  2  2  2  2
CENTRE ASSIGNMENTS    2  2  2  2  2  2  2  2  2  2  2  2  2  2  2  2  2  2  2  2
CENTRE ASSIGNMENTS    2  2  2  2  2  2  2  2  2  2  2  2  2  2  2  2  2  2  2  2
CENTRE ASSIGNMENTS    2  2  2  2  2  2  2  2  2  2  2  2  2  2  2  2  2  2  2  2
CENTRE ASSIGNMENTS    2  2  2  2  2  2  3  3  3  3  3  3  3  3  3  3  3  3  3  3
CENTRE ASSIGNMENTS    3  3  3  3  3  3  3  3  3  3  3  3  3  3  3  3  3  3  3  3
CENTRE ASSIGNMENTS    3  3  3  3  3  3  3  3  3  3  3  3  3  3  3  3  3  3  3  3
CENTRE ASSIGNMENTS    3  3  3  3  3  3  3  3  3  3  3  3  3  3  3  3  3  3  3  3
CENTRE ASSIGNMENTS    3  4  4  4  4  4  4  4  4  4  4  4  4  4  4  4  4  4  4  4
CENTRE ASSIGNMENTS    4  4  4  4  4  4  4  4  4  4  4  4  4  4  4  4  4  4  4  4
CENTRE ASSIGNMENTS    4  4  4  4  4  4  4  4  4  4  4  4  4  4  4  4  4  4  4  4
CENTRE ASSIGNMENTS    4  4  4  4  4  4  4  4  4  4  4  4  4  4  4  4  5  5  5  5
CENTRE ASSIGNMENTS    5  5  5  5  5  5  5  5  5  5  5  5  5  5  5  5  5  5  5  5
CENTRE ASSIGNMENTS    5  5  5  5  5  5  5  5  5  5  5  5  5  5  5  5  5  5  5  5
CENTRE ASSIGNMENTS    5  5  5  5  5  5  5  5  5  5  5  5  5  5  5  5  5  5  5  5
CENTRE ASSIGNMENTS    5  5  5  5  5  5  5  5  5  5  5
TYPE ASSIGNMENTS      1  1  1  1  1  1  1  1  1  1  1  1  1  1  1  1  1  1  1  1
TYPE ASSIGNMENTS      1  1  1  1  1  1  1  1  1  1  1  1  1  1  1  1  1  1  1  1
TYPE ASSIGNMENTS      1  1  2  2  2  2  2  2  2  3  3  3  3  3  3  3  4  4  4  4
TYPE ASSIGNMENTS      4  4  4  2  2  2  2  2  2  2  3  3  3  3  3  3  3  4  4  4
TYPE ASSIGNMENTS      4  4  4  4  2  3  4  2  3  4  2  3  4  5  6  7  8  9 10  5
TYPE ASSIGNMENTS      6  7  8  9 10  5  6  7  8  9 10 11 12 13 17 14 15 18 19 16
TYPE ASSIGNMENTS     20 11 12 13 17 14 15 18 19 16 20  1  1  1  1  1  1  1  1  1
TYPE ASSIGNMENTS      1  1  1  1  1  1  1  1  1  1  2  2  2  3  3  3  4  4  4  2
TYPE ASSIGNMENTS      3  4  2  3  4  2  3  4  5  6  7  8  9 10  5  6  7  8  9 10
TYPE ASSIGNMENTS      5  6  7  8  9 10 11 12 13 17 14 15 18 19 16 20 11 12 13 17
TYPE ASSIGNMENTS     14 15 18 19 16 20  1  1  1  1  1  1  1  1  1  1  1  1  1  1
TYPE ASSIGNMENTS      1  1  1  1  1  2  2  2  3  3  3  4  4  4  2  3  4  2  3  4
TYPE ASSIGNMENTS      2  3  4  5  6  7  8  9 10  5  6  7  8  9 10  5  6  7  8  9
TYPE ASSIGNMENTS     10 11 12 13 17 14 15 18 19 16 20 11 12 13 17 14 15 18 19 16
TYPE ASSIGNMENTS     20  1  1  1  1  1  1  1  1  1  1  1  1  1  1  1  1  1  1  1
TYPE ASSIGNMENTS      2  2  2  3  3  3  4  4  4  2  3  4  2  3  4  2  3  4  5  6
TYPE ASSIGNMENTS      7  8  9 10  5  6  7  8  9 10  5  6  7  8  9 10 11 12 13 17
TYPE ASSIGNMENTS     14 15 18 19 16 20 11 12 13 17 14 15 18 19 16 20  1  1  1  1
TYPE ASSIGNMENTS      1  1  1  1  1  1  1  1  1  1  1  1  1  1  1  2  2  2  3  3
TYPE ASSIGNMENTS      3  4  4  4  2  3  4  2  3  4  2  3  4  5  6  7  8  9 10  5
TYPE ASSIGNMENTS      6  7  8  9 10  5  6  7  8  9 10 11 12 13 17 14 15 18 19 16
TYPE ASSIGNMENTS     20 11 12 13 17 14 15 18 19 16 20
EXPONENTS  0.3741000D+06 0.5605000D+05 0.1276000D+05 0.3615000D+04 0.1183000D+04
EXPONENTS  0.4288000D+03 0.1678000D+03 0.6947000D+02 0.2984000D+02 0.1272000D+02
EXPONENTS  0.5244000D+01 0.2219000D+01 0.3490000D+00 0.3741000D+06 0.5605000D+05
EXPONENTS  0.1276000D+05 0.3615000D+04 0.1183000D+04 0.4288000D+03 0.1678000D+03
EXPONENTS  0.6947000D+02 0.2984000D+02 0.1272000D+02 0.5244000D+01 0.2219000D+01
EXPONENTS  0.3490000D+00 0.3741000D+06 0.5605000D+05 0.1276000D+05 0.3615000D+04
EXPONENTS  0.1183000D+04 0.4288000D+03 0.1678000D+03 0.6947000D+02 0.2984000D+02
EXPONENTS  0.1272000D+02 0.5244000D+01 0.2219000D+01 0.3490000D+00 0.7767000D+00
EXPONENTS  0.1322000D+00 0.4970000D-01 0.5744000D+03 0.1358000D+03 0.4319000D+02
EXPONENTS  0.1587000D+02 0.6208000D+01 0.2483000D+01 0.3229000D+00 0.5744000D+03
EXPONENTS  0.1358000D+03 0.4319000D+02 0.1587000D+02 0.6208000D+01 0.2483000D+01
EXPONENTS  0.3229000D+00 0.5744000D+03 0.1358000D+03 0.4319000D+02 0.1587000D+02
EXPONENTS  0.6208000D+01 0.2483000D+01 0.3229000D+00 0.5744000D+03 0.1358000D+03
EXPONENTS  0.4319000D+02 0.1587000D+02 0.6208000D+01 0.2483000D+01 0.3229000D+00
EXPONENTS  0.5744000D+03 0.1358000D+03 0.4319000D+02 0.1587000D+02 0.6208000D+01
EXPONENTS  0.2483000D+01 0.3229000D+00 0.5744000D+03 0.1358000D+03 0.4319000D+02
EXPONENTS  0.1587000D+02 0.6208000D+01 0.2483000D+01 0.3229000D+00 0.8688000D+00
EXPONENTS  0.8688000D+00 0.8688000D+00 0.1098000D+00 0.1098000D+00 0.1098000D+00
EXPONENTS  0.3510000D-01 0.3510000D-01 0.3510000D-01 0.2690000D+00 0.2690000D+00
EXPONENTS  0.2690000D+00 0.2690000D+00 0.2690000D+00 0.2690000D+00 0.8190000D+00
EXPONENTS  0.8190000D+00 0.8190000D+00 0.8190000D+00 0.8190000D+00 0.8190000D+00
EXPONENTS  0.1010000D+00 0.1010000D+00 0.1010000D+00 0.1010000D+00 0.1010000D+00
EXPONENTS  0.1010000D+00 0.5570000D+00 0.5570000D+00 0.5570000D+00 0.5570000D+00
EXPONENTS  0.5570000D+00 0.5570000D+00 0.5570000D+00 0.5570000D+00 0.5570000D+00
EXPONENTS  0.5570000D+00 0.2180000D+00 0.2180000D+00 0.2180000D+00 0.2180000D+00
EXPONENTS  0.2180000D+00 0.2180000D+00 0.2180000D+00 0.2180000D+00 0.2180000D+00
EXPONENTS  0.2180000D+00 0.1950000D+05 0.2923000D+04 0.6645000D+03 0.1875000D+03
EXPONENTS  0.6062000D+02 0.2142000D+02 0.7950000D+01 0.8815000D+00 0.1950000D+05
EXPONENTS  0.2923000D+04 0.6645000D+03 0.1875000D+03 0.6062000D+02 0.2142000D+02
EXPONENTS  0.7950000D+01 0.8815000D+00 0.2257000D+01 0.3041000D+00 0.9158000D-01
EXPONENTS  0.4388000D+02 0.9926000D+01 0.2930000D+01 0.4388000D+02 0.9926000D+01
EXPONENTS  0.2930000D+01 0.4388000D+02 0.9926000D+01 0.2930000D+01 0.9132000D+00
EXPONENTS  0.9132000D+00 0.9132000D+00 0.2672000D+00 0.2672000D+00 0.2672000D+00
EXPONENTS  0.7361000D-01 0.7361000D-01 0.7361000D-01 0.3107000D+01 0.3107000D+01
EXPONENTS  0.3107000D+01 0.3107000D+01 0.3107000D+01 0.3107000D+01 0.8550000D+00
EXPONENTS  0.8550000D+00 0.8550000D+00 0.8550000D+00 0.8550000D+00 0.8550000D+00
EXPONENTS  0.2920000D+00 0.2920000D+00 0.2920000D+00 0.2920000D+00 0.2920000D+00
EXPONENTS  0.2920000D+00 0.1917000D+01 0.1917000D+01 0.1917000D+01 0.1917000D+01
EXPONENTS  0.1917000D+01 0.1917000D+01 0.1917000D+01 0.1917000D+01 0.1917000D+01
EXPONENTS  0.1917000D+01 0.7240000D+00 0.7240000D+00 0.7240000D+00 0.7240000D+00
EXPONENTS  0.7240000D+00 0.7240000D+00 0.7240000D+00 0.7240000D+00 0.7240000D+00
EXPONENTS  0.7240000D+00 0.1950000D+05 0.2923000D+04 0.6645000D+03 0.1875000D+03
EXPONENTS  0.6062000D+02 0.2142000D+02 0.7950000D+01 0.8815000D+00 0.1950000D+05
EXPONENTS  0.2923000D+04 0.6645000D+03 0.1875000D+03 0.6062000D+02 0.2142000D+02
EXPONENTS  0.7950000D+01 0.8815000D+00 0.2257000D+01 0.3041000D+00 0.9158000D-01
EXPONENTS  0.4388000D+02 0.9926000D+01 0.2930000D+01 0.4388000D+02 0.9926000D+01
EXPONENTS  0.2930000D+01 0.4388000D+02 0.9926000D+01 0.2930000D+01 0.9132000D+00
EXPONENTS  0.9132000D+00 0.9132000D+00 0.2672000D+00 0.2672000D+00 0.2672000D+00
EXPONENTS  0.7361000D-01 0.7361000D-01 0.7361000D-01 0.3107000D+01 0.3107000D+01
EXPONENTS  0.3107000D+01 0.3107000D+01 0.3107000D+01 0.3107000D+01 0.8550000D+00
EXPONENTS  0.8550000D+00 0.8550000D+00 0.8550000D+00 0.8550000D+00 0.8550000D+00
EXPONENTS  0.2920000D+00 0.2920000D+00 0.2920000D+00 0.2920000D+00 0.2920000D+00
EXPONENTS  0.2920000D+00 0.1917000D+01 0.1917000D+01 0.1917000D+01 0.1917000D+01
EXPONENTS  0.1917000D+01 0.1917000D+01 0.1917000D+01 0.1917000D+01 0.1917000D+01
EXPONENTS  0.1917000D+01 0.7240000D+00 0.7240000D+00 0.7240000D+00 0.7240000D+00
EXPONENTS  0.7240000D+00 0.7240000D+00 0.7240000D+00 0.7240000D+00 0.7240000D+00
EXPONENTS  0.7240000D+00 0.1950000D+05 0.2923000D+04 0.6645000D+03 0.1875000D+03
EXPONENTS  0.6062000D+02 0.2142000D+02 0.7950000D+01 0.8815000D+00 0.1950000D+05
EXPONENTS  0.2923000D+04 0.6645000D+03 0.1875000D+03 0.6062000D+02 0.2142000D+02
EXPONENTS  0.7950000D+01 0.8815000D+00 0.2257000D+01 0.3041000D+00 0.9158000D-01
EXPONENTS  0.4388000D+02 0.9926000D+01 0.2930000D+01 0.4388000D+02 0.9926000D+01
EXPONENTS  0.2930000D+01 0.4388000D+02 0.9926000D+01 0.2930000D+01 0.9132000D+00
EXPONENTS  0.9132000D+00 0.9132000D+00 0.2672000D+00 0.2672000D+00 0.2672000D+00
EXPONENTS  0.7361000D-01 0.7361000D-01 0.7361000D-01 0.3107000D+01 0.3107000D+01
EXPONENTS  0.3107000D+01 0.3107000D+01 0.3107000D+01 0.3107000D+01 0.8550000D+00
EXPONENTS  0.8550000D+00 0.8550000D+00 0.8550000D+00 0.8550000D+00 0.8550000D+00
EXPONENTS  0.2920000D+00 0.2920000D+00 0.2920000D+00 0.2920000D+00 0.2920000D+00
EXPONENTS  0.2920000D+00 0.1917000D+01 0.1917000D+01 0.1917000D+01 0.1917000D+01
EXPONENTS  0.1917000D+01 0.1917000D+01 0.1917000D+01 0.1917000D+01 0.1917000D+01
EXPONENTS  0.1917000D+01 0.7240000D+00 0.7240000D+00 0.7240000D+00 0.7240000D+00
EXPONENTS  0.7240000D+00 0.7240000D+00 0.7240000D+00 0.7240000D+00 0.7240000D+00
EXPONENTS  0.7240000D+00 0.1950000D+05 0.2923000D+04 0.6645000D+03 0.1875000D+03
EXPONENTS  0.6062000D+02 0.2142000D+02 0.7950000D+01 0.8815000D+00 0.1950000D+05
EXPONENTS  0.2923000D+04 0.6645000D+03 0.1875000D+03 0.6062000D+02 0.2142000D+02
EXPONENTS  0.7950000D+01 0.8815000D+00 0.2257000D+01 0.3041000D+00 0.9158000D-01
EXPONENTS  0.4388000D+02 0.9926000D+01 0.2930000D+01 0.4388000D+02 0.9926000D+01
EXPONENTS  0.2930000D+01 0.4388000D+02 0.9926000D+01 0.2930000D+01 0.9132000D+00
EXPONENTS  0.9132000D+00 0.9132000D+00 0.2672000D+00 0.2672000D+00 0.2672000D+00
EXPONENTS  0.7361000D-01 0.7361000D-01 0.7361000D-01 0.3107000D+01 0.3107000D+01
EXPONENTS  0.3107000D+01 0.3107000D+01 0.3107000D+01 0.3107000D+01 0.8550000D+00
EXPONENTS  0.8550000D+00 0.8550000D+00 0.8550000D+00 0.8550000D+00 0.8550000D+00
EXPONENTS  0.2920000D+00 0.2920000D+00 0.2920000D+00 0.2920000D+00 0.2920000D+00
EXPONENTS  0.2920000D+00 0.1917000D+01 0.1917000D+01 0.1917000D+01 0.1917000D+01
EXPONENTS  0.1917000D+01 0.1917000D+01 0.1917000D+01 0.1917000D+01 0.1917000D+01
EXPONENTS  0.1917000D+01 0.7240000D+00 0.7240000D+00 0.7240000D+00 0.7240000D+00
EXPONENTS  0.7240000D+00 0.7240000D+00 0.7240000D+00 0.7240000D+00 0.7240000D+00
EXPONENTS  0.7240000D+00
MO    1     MO 0.0        OCC NO =    2.0000000  ORB. ENERGY =  -89.366449
  0.58517267D+00  0.10939463D+01  0.18906808D+01  0.30580913D+01  0.46221259D+01
  0.63654258D+01  0.74397070D+01  0.64284681D+01  0.29982604D+01  0.40709899D+00
  0.10901108D-02  0.21383467D-02  0.97624461D-04 -0.11950458D-02 -0.22317989D-02
 -0.38714005D-02 -0.62773421D-02 -0.96646828D-02 -0.13764679D-01 -0.17699591D-01
 -0.18579303D-01 -0.13136884D-01  0.29092180D-03  0.94390210D-02  0.51973811D-02
 -0.21979637D-04  0.55427362D-03  0.10343566D-02  0.17965535D-02  0.29100181D-02
  0.44951264D-02  0.64084781D-02  0.83353366D-02  0.88832220D-02  0.65885010D-02
 -0.20507557D-03 -0.59688387D-02 -0.58474018D-02  0.27310834D-02 -0.30090801D-02
 -0.25804967D-03 -0.18839032D-04 -0.14424089D-14 -0.18923619D-14 -0.20756326D-14
 -0.17078634D-14 -0.90041935D-15 -0.23424656D-15  0.25921770D-18 -0.35957006D-14
 -0.47173633D-14 -0.51742285D-14 -0.42574372D-14 -0.22446051D-14 -0.58394016D-15
  0.64618932D-18 -0.13353743D-01 -0.17519384D-01 -0.19216094D-01 -0.15811307D-01
 -0.83360337D-02 -0.21686420D-02  0.23998234D-05  0.13056778D-14  0.17143629D-14
  0.19287738D-14  0.16251378D-14  0.90907929D-15  0.22626798D-15 -0.10377740D-15
  0.31122855D-14  0.40864498D-14  0.45975316D-14  0.38737680D-14  0.21669315D-14
  0.53934484D-15 -0.24736953D-15  0.10827673D-01  0.14216800D-01  0.15994859D-01
  0.13476878D-01  0.75387766D-02  0.18763862D-02 -0.86060110D-03  0.69081059D-16
  0.25310876D-15  0.48502986D-03 -0.20346856D-15 -0.37900796D-15  0.10688050D-03
 -0.40667273D-17 -0.98475933D-18 -0.13374120D-05  0.65317710D-04 -0.91492449D-04
  0.26174739D-04  0.16758560D-18  0.11331588D-15 -0.86524434D-17  0.72518168D-04
  0.46265898D-04 -0.11878407D-03 -0.13639150D-18 -0.25426307D-16  0.31164612D-16
 -0.32591094D-05  0.46334546D-06  0.27957640D-05  0.17930330D-19  0.31849242D-16
  0.49303486D-17 -0.65119406D-17 -0.29716496D-16  0.92688568D-04  0.18195705D-16
  0.47728772D-16 -0.42590763D-03  0.13401173D-17  0.41420715D-16  0.14784192D-03
 -0.12959036D-18  0.30520482D-17 -0.37544901D-16 -0.17537817D-04 -0.86013926D-17
  0.54166165D-16  0.35003201D-04 -0.55475193D-18  0.58468537D-16  0.17610251D-04
 -0.77370101D-19  0.15739315D-03  0.29338765D-03  0.49736420D-03  0.75315597D-03
  0.94182419D-03  0.81082290D-03  0.31170992D-03 -0.13506901D-05 -0.10660169D-03
 -0.20017909D-03 -0.34087046D-03 -0.53397156D-03 -0.71558471D-03 -0.76970784D-03
 -0.46213158D-03  0.30391717D-03 -0.25241799D-04 -0.26672317D-03 -0.17199154D-04
 -0.20106423D-03 -0.19663642D-03 -0.12992600D-03  0.53103731D-16  0.51934289D-16
  0.34315181D-16  0.91707066D-04  0.89687508D-04  0.59260329D-04  0.28883523D-04
 -0.37974026D-16  0.27577027D-04  0.32030380D-03  0.16984283D-17 -0.26521561D-03
  0.23589085D-05 -0.10592515D-16 -0.23083845D-05  0.27445103D-03 -0.39289231D-03
  0.11844127D-03  0.51706553D-16 -0.64849821D-03 -0.32125046D-16 -0.11974645D-03
  0.16499076D-03 -0.45244317D-04 -0.19080942D-16  0.29651704D-03  0.10276125D-16
 -0.73542841D-04  0.87465267D-04 -0.13922426D-04  0.19562385D-16  0.26369081D-03
 -0.10378072D-16 -0.41189556D-04 -0.23481640D-16 -0.14691562D-03  0.56917253D-03
  0.56601768D-16  0.92387324D-03 -0.44560386D-03  0.13843152D-16 -0.48312638D-03
 -0.15248225D-16  0.12954112D-04  0.73137412D-17  0.70162633D-04 -0.29350032D-03
 -0.17378168D-16 -0.45507676D-03  0.25463799D-03 -0.45630560D-17  0.24458886D-03
 -0.54376167D-18  0.15739315D-03  0.29338765D-03  0.49736420D-03  0.75315597D-03
  0.94182419D-03  0.81082290D-03  0.31170992D-03 -0.13506901D-05 -0.10660169D-03
 -0.20017909D-03 -0.34087046D-03 -0.53397156D-03 -0.71558471D-03 -0.76970784D-03
 -0.46213158D-03  0.30391717D-03 -0.25241799D-04 -0.26672317D-03 -0.17199154D-04
  0.20106423D-03  0.19663642D-03  0.12992600D-03  0.53826592D-16  0.52641232D-16
  0.34782288D-16  0.91707066D-04  0.89687508D-04  0.59260329D-04 -0.28883523D-04
 -0.38493019D-16  0.27577027D-04 -0.32030380D-03  0.21262588D-17 -0.26521561D-03
 -0.23589085D-05 -0.10595035D-16 -0.23083845D-05  0.27445103D-03 -0.39289231D-03
  0.11844127D-03 -0.51735580D-16  0.64849821D-03 -0.32058358D-16 -0.11974645D-03
  0.16499076D-03 -0.45244317D-04  0.19047774D-16 -0.29651704D-03  0.10178102D-16
 -0.73542841D-04  0.87465267D-04 -0.13922426D-04 -0.19375838D-16 -0.26369081D-03
 -0.10181332D-16  0.41189556D-04 -0.23203192D-16 -0.14691562D-03 -0.56917253D-03
  0.56048734D-16  0.92387324D-03  0.44560386D-03  0.13560840D-16 -0.48312638D-03
  0.13140395D-16 -0.12954112D-04  0.72250311D-17  0.70162633D-04  0.29350032D-03
 -0.17206882D-16 -0.45507676D-03 -0.25463799D-03 -0.44682116D-17  0.24458886D-03
  0.11991837D-17  0.22975651D-04  0.42827609D-04  0.72603326D-04  0.10994283D-03
  0.13748390D-03  0.11836083D-03  0.45502224D-04 -0.19716859D-06 -0.16138158D-04
 -0.30304602D-04 -0.51603511D-04 -0.80836595D-04 -0.10833055D-03 -0.11652411D-03
 -0.69960922D-04  0.46009246D-04  0.77303842D-06  0.61793475D-04  0.15787281D-05
  0.61184128D-16  0.59836741D-16  0.39536664D-16 -0.76975675D-05 -0.75280529D-05
 -0.49741028D-05 -0.50573022D-04 -0.49459311D-04 -0.32679858D-04 -0.49008092D-16
  0.91573065D-04  0.54360056D-04  0.57936777D-16 -0.72931231D-04 -0.68294511D-04
 -0.62023881D-18 -0.27792013D-05 -0.25068566D-05 -0.13505985D-03  0.24354039D-03
 -0.10848054D-03  0.17233132D-16  0.48137340D-16  0.84617298D-04  0.31775133D-04
 -0.57038928D-04  0.25263795D-04 -0.13559009D-16 -0.18140107D-16 -0.14966876D-04
  0.39284110D-04 -0.72110629D-04  0.32826519D-04  0.32876464D-16  0.37599210D-17
 -0.38084965D-04  0.27522042D-16  0.41424807D-03 -0.58941378D-05 -0.83713069D-16
 -0.64570941D-03 -0.88008792D-04  0.11469425D-17 -0.59703481D-03  0.10569121D-03
  0.51123035D-17 -0.89247969D-17 -0.16158248D-03  0.10551693D-04  0.29693030D-16
  0.25312525D-03  0.18781445D-04 -0.29186393D-17  0.23162219D-03 -0.50436524D-04
 -0.55702312D-17  0.22975651D-04  0.42827609D-04  0.72603326D-04  0.10994283D-03
  0.13748390D-03  0.11836083D-03  0.45502224D-04 -0.19716859D-06 -0.16138158D-04
 -0.30304602D-04 -0.51603511D-04 -0.80836595D-04 -0.10833055D-03 -0.11652411D-03
 -0.69960922D-04  0.46009246D-04  0.77303842D-06  0.61793475D-04  0.15787281D-05
  0.61343456D-16  0.59992560D-16  0.39639621D-16  0.76975675D-05  0.75280529D-05
  0.49741028D-05 -0.50573022D-04 -0.49459311D-04 -0.32679858D-04 -0.49105106D-16
 -0.91573065D-04  0.54360056D-04  0.57897547D-16  0.72931231D-04 -0.68294511D-04
 -0.62150715D-18  0.27792013D-05 -0.25068566D-05 -0.13505985D-03  0.24354039D-03
 -0.10848054D-03 -0.19271262D-16  0.47218243D-16 -0.84617298D-04  0.31775133D-04
 -0.57038928D-04  0.25263795D-04  0.14258383D-16 -0.17870979D-16  0.14966876D-04
  0.39284110D-04 -0.72110629D-04  0.32826519D-04 -0.33006434D-16  0.37075300D-17
  0.38084965D-04  0.27774001D-16 -0.41424807D-03 -0.58941378D-05 -0.84156484D-16
  0.64570941D-03 -0.88008792D-04  0.83448140D-18  0.59703481D-03  0.10569121D-03
 -0.67913991D-17 -0.89738943D-17  0.16158248D-03  0.10551693D-04  0.29744761D-16
 -0.25312525D-03  0.18781445D-04 -0.28230778D-17 -0.23162219D-03 -0.50436524D-04
  0.59236590D-17
MO    2     MO 0.0        OCC NO =    2.0000000  ORB. ENERGY =  -24.864453
  0.62187171D-15  0.11625530D-14  0.20092546D-14  0.32498792D-14  0.49120021D-14
  0.67646329D-14  0.79062875D-14  0.68316289D-14  0.31862960D-14  0.43263017D-15
  0.11584770D-17  0.22724530D-17  0.10374697D-18 -0.12826275D-14 -0.23953614D-14
 -0.41551250D-14 -0.67373916D-14 -0.10372981D-13 -0.14773455D-13 -0.18996746D-13
 -0.19940930D-13 -0.14099651D-13  0.31224267D-15  0.10130781D-13  0.55782831D-14
 -0.23590465D-16  0.80765983D-15  0.15072127D-14  0.26178481D-14  0.42403331D-14
  0.65500737D-14  0.93381142D-14  0.12145836D-13  0.12944187D-13  0.96004346D-14
 -0.29882588D-15 -0.86974936D-14 -0.85205418D-14  0.39795984D-14  0.42034473D-14
 -0.13692557D-13 -0.72050360D-14 -0.78980631D-02 -0.10361829D-01 -0.11365347D-01
 -0.93515874D-02 -0.49303418D-02 -0.12826419D-02  0.14193740D-05  0.61514078D-14
  0.80703120D-14  0.88519022D-14  0.72834854D-14  0.38399976D-14  0.99898587D-15
 -0.11054797D-17  0.72630077D-13  0.95286707D-13  0.10451499D-12  0.85996593D-13
  0.45339105D-13  0.11795092D-13 -0.13052472D-16  0.69878225D-02  0.91750535D-02
  0.10322554D-01  0.86975320D-02  0.48652775D-02  0.12109577D-02 -0.55540353D-03
 -0.58801531D-14 -0.77206768D-14 -0.86862820D-14 -0.73188493D-14 -0.40940617D-14
 -0.10190036D-14  0.46736416D-15 -0.64464628D-13 -0.84642449D-13 -0.95228463D-13
 -0.80237180D-13 -0.44883553D-13 -0.11171425D-13  0.51237538D-14  0.70970180D-03
 -0.35638723D-15 -0.38266504D-14 -0.22576478D-03  0.64532476D-15  0.18290787D-14
 -0.18698159D-05 -0.94232974D-17  0.24138907D-15 -0.63555959D-14  0.34335706D-14
  0.29220252D-14 -0.86490934D-16  0.52204335D-03  0.11237163D-16  0.30648964D-14
 -0.80653425D-15 -0.22583621D-14  0.41403189D-15  0.20073617D-05  0.44155470D-16
 -0.73494587D-15 -0.32031175D-15  0.10552576D-14 -0.15040641D-16  0.30390230D-04
  0.47535983D-17  0.27501213D-04  0.67255876D-16 -0.23796726D-15  0.25925741D-03
 -0.10701961D-15  0.26385168D-14 -0.34176105D-03 -0.94748022D-16 -0.19246150D-14
  0.96733377D-17  0.22947594D-04  0.70420157D-16 -0.10929955D-14 -0.96021451D-05
 -0.10437272D-15  0.31566857D-14 -0.59240636D-04 -0.10688775D-15  0.12230097D-15
  0.24573001D-16 -0.41976904D+00 -0.78246768D+00 -0.13264751D+01 -0.20086742D+01
 -0.25118542D+01 -0.21624725D+01 -0.83133336D+00  0.36023035D-02 -0.53306488D-03
 -0.10010014D-02 -0.17045328D-02 -0.26701405D-02 -0.35783024D-02 -0.38489467D-02
 -0.23109026D-02  0.15197468D-02 -0.45770318D-01 -0.21643496D-03  0.30797257D-03
  0.38307258D-02  0.37463662D-02  0.24753825D-02 -0.36663051D-16 -0.35855663D-16
 -0.23691353D-16 -0.30169296D-02 -0.29504913D-02 -0.19495144D-02 -0.64852818D-03
  0.31216868D-16  0.48481600D-03 -0.20996282D-03  0.65502015D-16  0.81510529D-04
 -0.28320646D-04  0.15413456D-16  0.19052277D-04 -0.57629554D-03  0.55924684D-03
  0.17048702D-04 -0.50092480D-16  0.17115214D-02 -0.16822299D-16  0.18323814D-03
 -0.15133401D-03 -0.31904124D-04  0.16504221D-16 -0.51460686D-03  0.13982122D-16
  0.27783770D-04 -0.87087544D-05 -0.19075016D-04 -0.49754903D-16 -0.25540023D-04
  0.30220228D-16 -0.34593847D-04  0.98155267D-16  0.46730550D-04  0.11327994D-03
 -0.15737674D-15 -0.15790640D-03 -0.94983970D-05 -0.13708906D-15  0.17714751D-04
 -0.26796640D-16 -0.32619434D-05 -0.31754902D-16 -0.40422367D-04  0.13763336D-04
  0.49253713D-16  0.14583574D-03 -0.39775059D-05  0.46010992D-16 -0.24568642D-04
  0.36255555D-17  0.41976904D+00  0.78246768D+00  0.13264751D+01  0.20086742D+01
  0.25118542D+01  0.21624725D+01  0.83133336D+00 -0.36023035D-02  0.53306488D-03
  0.10010014D-02  0.17045328D-02  0.26701405D-02  0.35783024D-02  0.38489467D-02
  0.23109026D-02 -0.15197468D-02  0.45770318D-01  0.21643496D-03 -0.30797257D-03
  0.38307258D-02  0.37463662D-02  0.24753825D-02  0.13918401D-16  0.13611892D-16
  0.89939524D-17  0.30169296D-02  0.29504913D-02  0.19495144D-02 -0.64852818D-03
  0.23965893D-16 -0.48481600D-03 -0.20996282D-03 -0.81881307D-17 -0.81510529D-04
 -0.28320646D-04  0.23484811D-16 -0.19052277D-04  0.57629554D-03 -0.55924684D-03
 -0.17048702D-04  0.25090575D-15  0.17115214D-02  0.93732834D-16 -0.18323814D-03
  0.15133401D-03  0.31904124D-04 -0.10129195D-15 -0.51460686D-03 -0.33061186D-16
 -0.27783770D-04  0.87087544D-05  0.19075016D-04  0.43561119D-16 -0.25540023D-04
  0.82597594D-17 -0.34593847D-04  0.23087910D-16 -0.46730550D-04  0.11327994D-03
 -0.13793854D-15  0.15790640D-03 -0.94983971D-05  0.68674813D-16 -0.17714751D-04
 -0.37006191D-17 -0.32619434D-05 -0.51790666D-17  0.40422367D-04  0.13763336D-04
  0.35273377D-16 -0.14583574D-03 -0.39775059D-05 -0.19736177D-16  0.24568642D-04
 -0.32197822D-16 -0.10094823D-12 -0.18817188D-12 -0.31899760D-12 -0.48305637D-12
 -0.60406369D-12 -0.52004257D-12 -0.19992335D-12  0.86630060D-15 -0.23818194D-16
 -0.44726350D-16 -0.76161260D-16 -0.11930616D-15 -0.15988429D-15 -0.17197712D-15
 -0.10325483D-15  0.67904723D-16 -0.10899575D-13  0.64810408D-15  0.55899133D-14
  0.12306269D-03  0.12035262D-03  0.79522067D-04  0.10998972D-14  0.10756754D-14
  0.71074421D-15  0.17743655D-14  0.17352907D-14  0.11465799D-14 -0.11102567D-03
 -0.15560104D-14 -0.10778206D-14  0.10917355D-03  0.10533597D-14  0.34039694D-15
 -0.25294993D-05  0.29101481D-15 -0.87437373D-16  0.56474829D-15 -0.18976428D-14
  0.13328945D-14 -0.13850755D-03  0.21764653D-03  0.14340222D-14 -0.43204088D-15
  0.65632003D-15 -0.22427915D-15 -0.87245341D-05 -0.45248237D-04 -0.81726669D-15
  0.70497426D-15 -0.47570641D-15 -0.22926786D-15  0.86496594D-04 -0.35950637D-04
  0.29265306D-15  0.16472200D-03  0.80289373D-15  0.12458777D-14 -0.57054263D-03
 -0.75373583D-14 -0.21017789D-14  0.76376632D-04  0.51286771D-14 -0.16358544D-14
  0.14224627D-02 -0.49493038D-04 -0.20578357D-15 -0.29602865D-15  0.17048588D-03
  0.22911487D-14  0.27336652D-15 -0.22006765D-04 -0.16737980D-14  0.61471942D-15
 -0.44064739D-03 -0.10411333D-12 -0.19407176D-12 -0.32899934D-12 -0.49820197D-12
 -0.62300331D-12 -0.53634782D-12 -0.20619168D-12  0.89346231D-15 -0.35241280D-15
 -0.66176882D-15 -0.11268782D-14 -0.17652480D-14 -0.23656400D-14 -0.25445647D-14
 -0.15277533D-14  0.10047149D-14 -0.11606875D-13 -0.94649539D-15  0.45277912D-14
  0.12306269D-03  0.12035262D-03  0.79522067D-04 -0.95223964D-15 -0.93126957D-15
 -0.61532918D-15  0.15270467D-14  0.14934183D-14  0.98676464D-15 -0.11102567D-03
  0.13685319D-14 -0.97135220D-15  0.10917355D-03  0.23375250D-16  0.13395791D-15
 -0.25294993D-05 -0.12557726D-15 -0.89324772D-16  0.33348307D-15 -0.10322574D-14
  0.69877437D-15  0.13850755D-03  0.21764653D-03 -0.16581781D-14 -0.31772416D-15
  0.35884057D-15 -0.41116411D-16  0.87245341D-05 -0.45248237D-04  0.92761226D-15
  0.78784124D-15 -0.62795375D-15 -0.15988750D-15 -0.86496594D-04 -0.35950637D-04
 -0.19174010D-15  0.16472200D-03 -0.10721521D-14  0.11222601D-14 -0.57054263D-03
  0.81493498D-14 -0.22638226D-14  0.76376632D-04 -0.49328934D-14 -0.11029578D-14
 -0.14224627D-02 -0.49493038D-04  0.36029517D-15 -0.26128066D-15  0.17048588D-03
 -0.25795865D-14  0.32085425D-15 -0.22006765D-04  0.14987010D-14  0.46298772D-15
  0.44064739D-03
MO    3     MO 0.0        OCC NO =    2.0000000  ORB. ENERGY =  -24.864448
  0.97079126D-04  0.18148379D-03  0.31366064D-03  0.50733202D-03  0.76680264D-03
  0.10560131D-02  0.12342344D-02  0.10664717D-02  0.49740618D-03  0.67537014D-04
  0.18084748D-06  0.35474800D-06  0.16195728D-07 -0.16322136D-03 -0.30482283D-03
 -0.52876237D-03 -0.85736990D-03 -0.13200186D-02 -0.18800029D-02 -0.24174397D-02
 -0.25375924D-02 -0.17942576D-02  0.39734586D-04  0.12891973D-02  0.70986702D-03
 -0.30020156D-05  0.82945141D-04  0.15478790D-03  0.26884806D-03  0.43547421D-03
  0.67268021D-03  0.95900671D-03  0.12473545D-02  0.13293436D-02  0.98594652D-03
 -0.30688854D-04 -0.89321618D-03 -0.87504357D-03  0.40869724D-03 -0.43319060D-03
  0.56542680D-04  0.89923076D-04  0.17030856D-12  0.22343556D-12  0.24507475D-12
  0.20165139D-12  0.10631460D-12  0.27658034D-13 -0.30606435D-16  0.18645826D-14
  0.24462309D-14  0.26831424D-14  0.22077321D-14  0.11639600D-14  0.30280739D-15
 -0.33508724D-18 -0.54233607D-02 -0.71151540D-02 -0.78042394D-02 -0.64214519D-02
 -0.33855164D-02 -0.88075136D-03  0.97464117D-06 -0.16113410D-12 -0.21157005D-12
 -0.23803057D-12 -0.20055875D-12 -0.11218976D-12 -0.27923802D-13  0.12807201D-13
 -0.18869070D-14 -0.24775204D-14 -0.27873775D-14 -0.23485763D-14 -0.13137606D-14
 -0.32699235D-15  0.14997445D-15  0.49934376D-02  0.65564139D-02  0.73764077D-02
  0.62151812D-02  0.34766852D-02  0.86533988D-03 -0.39688656D-03 -0.15286394D-15
  0.79962475D-16  0.38988271D-03 -0.11281931D-13 -0.92696714D-15 -0.22930625D-04
 -0.14415326D-14  0.31978441D-16 -0.33738946D-05  0.20771215D-03 -0.23350791D-03
  0.25795764D-04  0.26470500D-16  0.24612760D-14 -0.33237390D-16 -0.18739406D-04
  0.77950486D-05  0.10944357D-04 -0.20905730D-16 -0.16474229D-13 -0.86995792D-17
  0.43688256D-05  0.34465025D-05 -0.78153281D-05  0.10402996D-16  0.38853291D-14
 -0.23526870D-16 -0.85897872D-15  0.57516047D-16  0.10301513D-03 -0.14394047D-14
 -0.83931752D-16 -0.53801911D-03  0.40163408D-14 -0.88616388D-16  0.22897371D-03
  0.59279780D-17  0.58238986D-15 -0.92585398D-16  0.10682565D-04  0.10219792D-15
  0.12672978D-15 -0.25791726D-04 -0.18493675D-14  0.15102642D-15 -0.62559676D-05
 -0.15382557D-16  0.41975467D+00  0.78244088D+00  0.13264297D+01  0.20086054D+01
  0.25117681D+01  0.21623984D+01  0.83130489D+00 -0.36021801D-02  0.54436575D-03
  0.10222225D-02  0.17406686D-02  0.27267470D-02  0.36541618D-02  0.39305437D-02
  0.23598933D-02 -0.15519651D-02  0.45745970D-01  0.45727306D-03 -0.17491547D-03
 -0.36402471D-02 -0.35600822D-02 -0.23522968D-02  0.12779928D-15  0.12498491D-15
  0.82582812D-16  0.29412732D-02  0.28765010D-02  0.19006258D-02  0.53806191D-03
 -0.10273748D-15 -0.38804182D-03  0.61824991D-04 -0.30512250D-16 -0.17723043D-03
  0.73282193D-05 -0.64391106D-16 -0.11269807D-04  0.36473609D-03 -0.60661950D-03
  0.24188341D-03  0.12959984D-15 -0.17139397D-02  0.91326150D-16 -0.85270198D-04
  0.15340169D-03 -0.68131494D-04 -0.55960523D-16  0.49905554D-03 -0.44108492D-16
  0.90954871D-05  0.30948582D-04 -0.40044070D-04  0.69033333D-16  0.59396412D-04
 -0.72885143D-17 -0.87189378D-04 -0.11131217D-15  0.14307285D-03  0.47014268D-03
  0.19097114D-15 -0.18219235D-03 -0.20857454D-03  0.14296537D-15 -0.24702621D-03
  0.42590677D-15  0.38668481D-05  0.35298686D-16 -0.30861774D-04 -0.18371379D-03
 -0.68606102D-16 -0.40629488D-04  0.17211324D-03 -0.37289956D-16  0.13321481D-03
 -0.10509752D-15  0.41975467D+00  0.78244088D+00  0.13264297D+01  0.20086054D+01
  0.25117681D+01  0.21623984D+01  0.83130489D+00 -0.36021801D-02  0.54436575D-03
  0.10222225D-02  0.17406686D-02  0.27267470D-02  0.36541618D-02  0.39305437D-02
  0.23598933D-02 -0.15519651D-02  0.45745970D-01  0.45727306D-03 -0.17491547D-03
  0.36402471D-02  0.35600822D-02  0.23522968D-02  0.21464596D-15  0.20991906D-15
  0.13870240D-15  0.29412732D-02  0.28765010D-02  0.19006258D-02 -0.53806191D-03
 -0.13195567D-15 -0.38804182D-03 -0.61824991D-04  0.17109615D-16 -0.17723043D-03
 -0.73282192D-05 -0.72701137D-16 -0.11269807D-04  0.36473609D-03 -0.60661950D-03
  0.24188341D-03 -0.22604195D-15  0.17139397D-02  0.44917007D-16 -0.85270198D-04
  0.15340169D-03 -0.68131494D-04  0.10342855D-15 -0.49905554D-03 -0.21329990D-16
  0.90954871D-05  0.30948582D-04 -0.40044070D-04 -0.70733696D-16 -0.59396412D-04
  0.19120887D-17  0.87189378D-04 -0.87614888D-16  0.14307285D-03 -0.47014268D-03
  0.19540596D-15 -0.18219235D-03  0.20857454D-03  0.67438701D-16 -0.24702621D-03
 -0.40144091D-15 -0.38668481D-05  0.27286269D-16 -0.30861774D-04  0.18371379D-03
 -0.67496008D-16 -0.40629488D-04 -0.17211324D-03 -0.14362800D-16  0.13321481D-03
  0.10573046D-15 -0.35127689D-04 -0.65479534D-04 -0.11100391D-03 -0.16809263D-03
 -0.21020043D-03 -0.18096299D-03 -0.69568778D-04  0.30145290D-06 -0.17859098D-05