 Molden2AIM, Version 4.0.0 (06/02/2016)           Time: Fri Jun 29 16:02:40 2018
GAUSSIAN             41 MOL ORBITALS    655 PRIMITIVES        5 NUCLEI
  Si   1    (CENTRE  1)   0.00000000  0.00000000  0.00000000  CHARGE = 14.0
  Cl   2    (CENTRE  2)   2.23759069  2.23759069  2.23759069  CHARGE = 17.0
  Cl   3    (CENTRE  3)  -2.23759069 -2.23759069  2.23759069  CHARGE = 17.0
  Cl   4    (CENTRE  4)  -2.23759069  2.23759069 -2.23759069  CHARGE = 17.0
  Cl   5    (CENTRE  5)   2.23759069 -2.23759069 -2.23759069  CHARGE = 17.0
CENTRE ASSIGNMENTS    1  1  1  1  1  1  1  1  1  1  1  1  1  1  1  1  1  1  1  1
CENTRE ASSIGNMENTS    1  1  1  1  1  1  1  1  1  1  1  1  1  1  1  1  1  1  1  1
CENTRE ASSIGNMENTS    1  1  1  1  1  1  1  1  1  1  1  1  1  1  1  1  1  1  1  1
CENTRE ASSIGNMENTS    1  1  1  1  1  1  1  1  1  1  1  1  1  1  1  1  1  1  1  1
CENTRE ASSIGNMENTS    1  1  1  1  1  1  1  1  1  1  1  1  1  1  1  1  1  1  1  1
CENTRE ASSIGNMENTS    1  1  1  1  1  1  1  1  1  1  1  1  1  1  1  1  1  1  1  1
CENTRE ASSIGNMENTS    1  1  1  1  1  1  1  1  1  1  1  2  2  2  2  2  2  2  2  2
CENTRE ASSIGNMENTS    2  2  2  2  2  2  2  2  2  2  2  2  2  2  2  2  2  2  2  2
CENTRE ASSIGNMENTS    2  2  2  2  2  2  2  2  2  2  2  2  2  2  2  2  2  2  2  2
CENTRE ASSIGNMENTS    2  2  2  2  2  2  2  2  2  2  2  2  2  2  2  2  2  2  2  2
CENTRE ASSIGNMENTS    2  2  2  2  2  2  2  2  2  2  2  2  2  2  2  2  2  2  2  2
CENTRE ASSIGNMENTS    2  2  2  2  2  2  2  2  2  2  2  2  2  2  2  2  2  2  2  2
CENTRE ASSIGNMENTS    2  2  2  2  2  2  2  2  2  2  2  2  2  2  2  2  2  2  2  2
CENTRE ASSIGNMENTS    2  2  3  3  3  3  3  3  3  3  3  3  3  3  3  3  3  3  3  3
CENTRE ASSIGNMENTS    3  3  3  3  3  3  3  3  3  3  3  3  3  3  3  3  3  3  3  3
CENTRE ASSIGNMENTS    3  3  3  3  3  3  3  3  3  3  3  3  3  3  3  3  3  3  3  3
CENTRE ASSIGNMENTS    3  3  3  3  3  3  3  3  3  3  3  3  3  3  3  3  3  3  3  3
CENTRE ASSIGNMENTS    3  3  3  3  3  3  3  3  3  3  3  3  3  3  3  3  3  3  3  3
CENTRE ASSIGNMENTS    3  3  3  3  3  3  3  3  3  3  3  3  3  3  3  3  3  3  3  3
CENTRE ASSIGNMENTS    3  3  3  3  3  3  3  3  3  3  3  3  3  4  4  4  4  4  4  4
CENTRE ASSIGNMENTS    4  4  4  4  4  4  4  4  4  4  4  4  4  4  4  4  4  4  4  4
CENTRE ASSIGNMENTS    4  4  4  4  4  4  4  4  4  4  4  4  4  4  4  4  4  4  4  4
CENTRE ASSIGNMENTS    4  4  4  4  4  4  4  4  4  4  4  4  4  4  4  4  4  4  4  4
CENTRE ASSIGNMENTS    4  4  4  4  4  4  4  4  4  4  4  4  4  4  4  4  4  4  4  4
CENTRE ASSIGNMENTS    4  4  4  4  4  4  4  4  4  4  4  4  4  4  4  4  4  4  4  4
CENTRE ASSIGNMENTS    4  4  4  4  4  4  4  4  4  4  4  4  4  4  4  4  4  4  4  4
CENTRE ASSIGNMENTS    4  4  4  4  5  5  5  5  5  5  5  5  5  5  5  5  5  5  5  5
CENTRE ASSIGNMENTS    5  5  5  5  5  5  5  5  5  5  5  5  5  5  5  5  5  5  5  5
CENTRE ASSIGNMENTS    5  5  5  5  5  5  5  5  5  5  5  5  5  5  5  5  5  5  5  5
CENTRE ASSIGNMENTS    5  5  5  5  5  5  5  5  5  5  5  5  5  5  5  5  5  5  5  5
CENTRE ASSIGNMENTS    5  5  5  5  5  5  5  5  5  5  5  5  5  5  5  5  5  5  5  5
CENTRE ASSIGNMENTS    5  5  5  5  5  5  5  5  5  5  5  5  5  5  5  5  5  5  5  5
CENTRE ASSIGNMENTS    5  5  5  5  5  5  5  5  5  5  5  5  5  5  5
TYPE ASSIGNMENTS      1  1  1  1  1  1  1  1  1  1  1  1  1  1  1  1  1  1  1  1
TYPE ASSIGNMENTS      1  1  1  1  1  1  1  1  1  1  1  1  1  1  1  1  1  1  1  1
TYPE ASSIGNMENTS      1  1  2  2  2  2  2  2  2  3  3  3  3  3  3  3  4  4  4  4
TYPE ASSIGNMENTS      4  4  4  2  2  2  2  2  2  2  3  3  3  3  3  3  3  4  4  4
TYPE ASSIGNMENTS      4  4  4  4  2  3  4  2  3  4  2  3  4  5  6  7  8  9 10  5
TYPE ASSIGNMENTS      6  7  8  9 10  5  6  7  8  9 10 11 12 13 17 14 15 18 19 16
TYPE ASSIGNMENTS     20 11 12 13 17 14 15 18 19 16 20  1  1  1  1  1  1  1  1  1
TYPE ASSIGNMENTS      1  1  1  1  1  1  1  1  1  1  1  1  1  1  1  1  1  1  1  1
TYPE ASSIGNMENTS      1  1  1  1  1  1  1  1  1  1  1  1  1  2  2  2  2  2  2  2
TYPE ASSIGNMENTS      3  3  3  3  3  3  3  4  4  4  4  4  4  4  2  2  2  2  2  2
TYPE ASSIGNMENTS      2  3  3  3  3  3  3  3  4  4  4  4  4  4  4  2  3  4  2  3
TYPE ASSIGNMENTS      4  2  3  4  5  6  7  8  9 10  5  6  7  8  9 10  5  6  7  8
TYPE ASSIGNMENTS      9 10 11 12 13 17 14 15 18 19 16 20 11 12 13 17 14 15 18 19
TYPE ASSIGNMENTS     16 20  1  1  1  1  1  1  1  1  1  1  1  1  1  1  1  1  1  1
TYPE ASSIGNMENTS      1  1  1  1  1  1  1  1  1  1  1  1  1  1  1  1  1  1  1  1
TYPE ASSIGNMENTS      1  1  1  1  2  2  2  2  2  2  2  3  3  3  3  3  3  3  4  4
TYPE ASSIGNMENTS      4  4  4  4  4  2  2  2  2  2  2  2  3  3  3  3  3  3  3  4
TYPE ASSIGNMENTS      4  4  4  4  4  4  2  3  4  2  3  4  2  3  4  5  6  7  8  9
TYPE ASSIGNMENTS     10  5  6  7  8  9 10  5  6  7  8  9 10 11 12 13 17 14 15 18
TYPE ASSIGNMENTS     19 16 20 11 12 13 17 14 15 18 19 16 20  1  1  1  1  1  1  1
TYPE ASSIGNMENTS      1  1  1  1  1  1  1  1  1  1  1  1  1  1  1  1  1  1  1  1
TYPE ASSIGNMENTS      1  1  1  1  1  1  1  1  1  1  1  1  1  1  1  2  2  2  2  2
TYPE ASSIGNMENTS      2  2  3  3  3  3  3  3  3  4  4  4  4  4  4  4  2  2  2  2
TYPE ASSIGNMENTS      2  2  2  3  3  3  3  3  3  3  4  4  4  4  4  4  4  2  3  4
TYPE ASSIGNMENTS      2  3  4  2  3  4  5  6  7  8  9 10  5  6  7  8  9 10  5  6
TYPE ASSIGNMENTS      7  8  9 10 11 12 13 17 14 15 18 19 16 20 11 12 13 17 14 15
TYPE ASSIGNMENTS     18 19 16 20  1  1  1  1  1  1  1  1  1  1  1  1  1  1  1  1
TYPE ASSIGNMENTS      1  1  1  1  1  1  1  1  1  1  1  1  1  1  1  1  1  1  1  1
TYPE ASSIGNMENTS      1  1  1  1  1  1  2  2  2  2  2  2  2  3  3  3  3  3  3  3
TYPE ASSIGNMENTS      4  4  4  4  4  4  4  2  2  2  2  2  2  2  3  3  3  3  3  3
TYPE ASSIGNMENTS      3  4  4  4  4  4  4  4  2  3  4  2  3  4  2  3  4  5  6  7
TYPE ASSIGNMENTS      8  9 10  5  6  7  8  9 10  5  6  7  8  9 10 11 12 13 17 14
TYPE ASSIGNMENTS     15 18 19 16 20 11 12 13 17 14 15 18 19 16 20
EXPONENTS  0.2549000D+06 0.3819000D+05 0.8690000D+04 0.2462000D+04 0.8048000D+03
EXPONENTS  0.2913000D+03 0.1136000D+03 0.4675000D+02 0.1982000D+02 0.7708000D+01
EXPONENTS  0.3340000D+01 0.1402000D+01 0.2070000D+00 0.2549000D+06 0.3819000D+05
EXPONENTS  0.8690000D+04 0.2462000D+04 0.8048000D+03 0.2913000D+03 0.1136000D+03
EXPONENTS  0.4675000D+02 0.1982000D+02 0.7708000D+01 0.3340000D+01 0.1402000D+01
EXPONENTS  0.2070000D+00 0.2549000D+06 0.3819000D+05 0.8690000D+04 0.2462000D+04
EXPONENTS  0.8048000D+03 0.2913000D+03 0.1136000D+03 0.4675000D+02 0.1982000D+02
EXPONENTS  0.7708000D+01 0.3340000D+01 0.1402000D+01 0.2070000D+00 0.4387000D+00
EXPONENTS  0.7944000D-01 0.3300000D-01 0.4815000D+03 0.1139000D+03 0.3623000D+02
EXPONENTS  0.1334000D+02 0.5252000D+01 0.2120000D+01 0.2528000D+00 0.4815000D+03
EXPONENTS  0.1139000D+03 0.3623000D+02 0.1334000D+02 0.5252000D+01 0.2120000D+01
EXPONENTS  0.2528000D+00 0.4815000D+03 0.1139000D+03 0.3623000D+02 0.1334000D+02
EXPONENTS  0.5252000D+01 0.2120000D+01 0.2528000D+00 0.4815000D+03 0.1139000D+03
EXPONENTS  0.3623000D+02 0.1334000D+02 0.5252000D+01 0.2120000D+01 0.2528000D+00
EXPONENTS  0.4815000D+03 0.1139000D+03 0.3623000D+02 0.1334000D+02 0.5252000D+01
EXPONENTS  0.2120000D+01 0.2528000D+00 0.4815000D+03 0.1139000D+03 0.3623000D+02
EXPONENTS  0.1334000D+02 0.5252000D+01 0.2120000D+01 0.2528000D+00 0.8561000D+00
EXPONENTS  0.8561000D+00 0.8561000D+00 0.7889000D-01 0.7889000D-01 0.7889000D-01
EXPONENTS  0.2370000D-01 0.2370000D-01 0.2370000D-01 0.1590000D+00 0.1590000D+00
EXPONENTS  0.1590000D+00 0.1590000D+00 0.1590000D+00 0.1590000D+00 0.4810000D+00
EXPONENTS  0.4810000D+00 0.4810000D+00 0.4810000D+00 0.4810000D+00 0.4810000D+00
EXPONENTS  0.5560000D-01 0.5560000D-01 0.5560000D-01 0.5560000D-01 0.5560000D-01
EXPONENTS  0.5560000D-01 0.3360000D+00 0.3360000D+00 0.3360000D+00 0.3360000D+00
EXPONENTS  0.3360000D+00 0.3360000D+00 0.3360000D+00 0.3360000D+00 0.3360000D+00
EXPONENTS  0.3360000D+00 0.1250000D+00 0.1250000D+00 0.1250000D+00 0.1250000D+00
EXPONENTS  0.1250000D+00 0.1250000D+00 0.1250000D+00 0.1250000D+00 0.1250000D+00
EXPONENTS  0.1250000D+00 0.4561000D+06 0.6833000D+05 0.1555000D+05 0.4405000D+04
EXPONENTS  0.1439000D+04 0.5204000D+03 0.2031000D+03 0.8396000D+02 0.3620000D+02
EXPONENTS  0.1583000D+02 0.6334000D+01 0.2694000D+01 0.4313000D+00 0.4561000D+06
EXPONENTS  0.6833000D+05 0.1555000D+05 0.4405000D+04 0.1439000D+04 0.5204000D+03
EXPONENTS  0.2031000D+03 0.8396000D+02 0.3620000D+02 0.1583000D+02 0.6334000D+01
EXPONENTS  0.2694000D+01 0.4313000D+00 0.4561000D+06 0.6833000D+05 0.1555000D+05
EXPONENTS  0.4405000D+04 0.1439000D+04 0.5204000D+03 0.2031000D+03 0.8396000D+02
EXPONENTS  0.3620000D+02 0.1583000D+02 0.6334000D+01 0.2694000D+01 0.4313000D+00
EXPONENTS  0.9768000D+00 0.1625000D+00 0.5910000D-01 0.6633000D+03 0.1568000D+03
EXPONENTS  0.4998000D+02 0.1842000D+02 0.7240000D+01 0.2922000D+01 0.3818000D+00
EXPONENTS  0.6633000D+03 0.1568000D+03 0.4998000D+02 0.1842000D+02 0.7240000D+01
EXPONENTS  0.2922000D+01 0.3818000D+00 0.6633000D+03 0.1568000D+03 0.4998000D+02
EXPONENTS  0.1842000D+02 0.7240000D+01 0.2922000D+01 0.3818000D+00 0.6633000D+03
EXPONENTS  0.1568000D+03 0.4998000D+02 0.1842000D+02 0.7240000D+01 0.2922000D+01
EXPONENTS  0.3818000D+00 0.6633000D+03 0.1568000D+03 0.4998000D+02 0.1842000D+02
EXPONENTS  0.7240000D+01 0.2922000D+01 0.3818000D+00 0.6633000D+03 0.1568000D+03
EXPONENTS  0.4998000D+02 0.1842000D+02 0.7240000D+01 0.2922000D+01 0.3818000D+00
EXPONENTS  0.1022000D+01 0.1022000D+01 0.1022000D+01 0.1301000D+00 0.1301000D+00
EXPONENTS  0.1301000D+00 0.4190000D-01 0.4190000D-01 0.4190000D-01 0.1046000D+01
EXPONENTS  0.1046000D+01 0.1046000D+01 0.1046000D+01 0.1046000D+01 0.1046000D+01
EXPONENTS  0.3440000D+00 0.3440000D+00 0.3440000D+00 0.3440000D+00 0.3440000D+00
EXPONENTS  0.3440000D+00 0.1350000D+00 0.1350000D+00 0.1350000D+00 0.1350000D+00
EXPONENTS  0.1350000D+00 0.1350000D+00 0.7060000D+00 0.7060000D+00 0.7060000D+00
EXPONENTS  0.7060000D+00 0.7060000D+00 0.7060000D+00 0.7060000D+00 0.7060000D+00
EXPONENTS  0.7060000D+00 0.7060000D+00 0.3120000D+00 0.3120000D+00 0.3120000D+00
EXPONENTS  0.3120000D+00 0.3120000D+00 0.3120000D+00 0.3120000D+00 0.3120000D+00
EXPONENTS  0.3120000D+00 0.3120000D+00 0.4561000D+06 0.6833000D+05 0.1555000D+05
EXPONENTS  0.4405000D+04 0.1439000D+04 0.5204000D+03 0.2031000D+03 0.8396000D+02
EXPONENTS  0.3620000D+02 0.1583000D+02 0.6334000D+01 0.2694000D+01 0.4313000D+00
EXPONENTS  0.4561000D+06 0.6833000D+05 0.1555000D+05 0.4405000D+04 0.1439000D+04
EXPONENTS  0.5204000D+03 0.2031000D+03 0.8396000D+02 0.3620000D+02 0.1583000D+02
EXPONENTS  0.6334000D+01 0.2694000D+01 0.4313000D+00 0.4561000D+06 0.6833000D+05
EXPONENTS  0.1555000D+05 0.4405000D+04 0.1439000D+04 0.5204000D+03 0.2031000D+03
EXPONENTS  0.8396000D+02 0.3620000D+02 0.1583000D+02 0.6334000D+01 0.2694000D+01
EXPONENTS  0.4313000D+00 0.9768000D+00 0.1625000D+00 0.5910000D-01 0.6633000D+03
EXPONENTS  0.1568000D+03 0.4998000D+02 0.1842000D+02 0.7240000D+01 0.2922000D+01
EXPONENTS  0.3818000D+00 0.6633000D+03 0.1568000D+03 0.4998000D+02 0.1842000D+02
EXPONENTS  0.7240000D+01 0.2922000D+01 0.3818000D+00 0.6633000D+03 0.1568000D+03
EXPONENTS  0.4998000D+02 0.1842000D+02 0.7240000D+01 0.2922000D+01 0.3818000D+00
EXPONENTS  0.6633000D+03 0.1568000D+03 0.4998000D+02 0.1842000D+02 0.7240000D+01
EXPONENTS  0.2922000D+01 0.3818000D+00 0.6633000D+03 0.1568000D+03 0.4998000D+02
EXPONENTS  0.1842000D+02 0.7240000D+01 0.2922000D+01 0.3818000D+00 0.6633000D+03
EXPONENTS  0.1568000D+03 0.4998000D+02 0.1842000D+02 0.7240000D+01 0.2922000D+01
EXPONENTS  0.3818000D+00 0.1022000D+01 0.1022000D+01 0.1022000D+01 0.1301000D+00
EXPONENTS  0.1301000D+00 0.1301000D+00 0.4190000D-01 0.4190000D-01 0.4190000D-01
EXPONENTS  0.1046000D+01 0.1046000D+01 0.1046000D+01 0.1046000D+01 0.1046000D+01
EXPONENTS  0.1046000D+01 0.3440000D+00 0.3440000D+00 0.3440000D+00 0.3440000D+00
EXPONENTS  0.3440000D+00 0.3440000D+00 0.1350000D+00 0.1350000D+00 0.1350000D+00
EXPONENTS  0.1350000D+00 0.1350000D+00 0.1350000D+00 0.7060000D+00 0.7060000D+00
EXPONENTS  0.7060000D+00 0.7060000D+00 0.7060000D+00 0.7060000D+00 0.7060000D+00
EXPONENTS  0.7060000D+00 0.7060000D+00 0.7060000D+00 0.3120000D+00 0.3120000D+00
EXPONENTS  0.3120000D+00 0.3120000D+00 0.3120000D+00 0.3120000D+00 0.3120000D+00
EXPONENTS  0.3120000D+00 0.3120000D+00 0.3120000D+00 0.4561000D+06 0.6833000D+05
EXPONENTS  0.1555000D+05 0.4405000D+04 0.1439000D+04 0.5204000D+03 0.2031000D+03
EXPONENTS  0.8396000D+02 0.3620000D+02 0.1583000D+02 0.6334000D+01 0.2694000D+01
EXPONENTS  0.4313000D+00 0.4561000D+06 0.6833000D+05 0.1555000D+05 0.4405000D+04
EXPONENTS  0.1439000D+04 0.5204000D+03 0.2031000D+03 0.8396000D+02 0.3620000D+02
EXPONENTS  0.1583000D+02 0.6334000D+01 0.2694000D+01 0.4313000D+00 0.4561000D+06
EXPONENTS  0.6833000D+05 0.1555000D+05 0.4405000D+04 0.1439000D+04 0.5204000D+03
EXPONENTS  0.2031000D+03 0.8396000D+02 0.3620000D+02 0.1583000D+02 0.6334000D+01
EXPONENTS  0.2694000D+01 0.4313000D+00 0.9768000D+00 0.1625000D+00 0.5910000D-01
EXPONENTS  0.6633000D+03 0.1568000D+03 0.4998000D+02 0.1842000D+02 0.7240000D+01
EXPONENTS  0.2922000D+01 0.3818000D+00 0.6633000D+03 0.1568000D+03 0.4998000D+02
EXPONENTS  0.1842000D+02 0.7240000D+01 0.2922000D+01 0.3818000D+00 0.6633000D+03
EXPONENTS  0.1568000D+03 0.4998000D+02 0.1842000D+02 0.7240000D+01 0.2922000D+01
EXPONENTS  0.3818000D+00 0.6633000D+03 0.1568000D+03 0.4998000D+02 0.1842000D+02
EXPONENTS  0.7240000D+01 0.2922000D+01 0.3818000D+00 0.6633000D+03 0.1568000D+03
EXPONENTS  0.4998000D+02 0.1842000D+02 0.7240000D+01 0.2922000D+01 0.3818000D+00
EXPONENTS  0.6633000D+03 0.1568000D+03 0.4998000D+02 0.1842000D+02 0.7240000D+01
EXPONENTS  0.2922000D+01 0.3818000D+00 0.1022000D+01 0.1022000D+01 0.1022000D+01
EXPONENTS  0.1301000D+00 0.1301000D+00 0.1301000D+00 0.4190000D-01 0.4190000D-01
EXPONENTS  0.4190000D-01 0.1046000D+01 0.1046000D+01 0.1046000D+01 0.1046000D+01
EXPONENTS  0.1046000D+01 0.1046000D+01 0.3440000D+00 0.3440000D+00 0.3440000D+00
EXPONENTS  0.3440000D+00 0.3440000D+00 0.3440000D+00 0.1350000D+00 0.1350000D+00
EXPONENTS  0.1350000D+00 0.1350000D+00 0.1350000D+00 0.1350000D+00 0.7060000D+00
EXPONENTS  0.7060000D+00 0.7060000D+00 0.7060000D+00 0.7060000D+00 0.7060000D+00
EXPONENTS  0.7060000D+00 0.7060000D+00 0.7060000D+00 0.7060000D+00 0.3120000D+00
EXPONENTS  0.3120000D+00 0.3120000D+00 0.3120000D+00 0.3120000D+00 0.3120000D+00
EXPONENTS  0.3120000D+00 0.3120000D+00 0.3120000D+00 0.3120000D+00 0.4561000D+06
EXPONENTS  0.6833000D+05 0.1555000D+05 0.4405000D+04 0.1439000D+04 0.5204000D+03
EXPONENTS  0.2031000D+03 0.8396000D+02 0.3620000D+02 0.1583000D+02 0.6334000D+01
EXPONENTS  0.2694000D+01 0.4313000D+00 0.4561000D+06 0.6833000D+05 0.1555000D+05
EXPONENTS  0.4405000D+04 0.1439000D+04 0.5204000D+03 0.2031000D+03 0.8396000D+02
EXPONENTS  0.3620000D+02 0.1583000D+02 0.6334000D+01 0.2694000D+01 0.4313000D+00
EXPONENTS  0.4561000D+06 0.6833000D+05 0.1555000D+05 0.4405000D+04 0.1439000D+04
EXPONENTS  0.5204000D+03 0.2031000D+03 0.8396000D+02 0.3620000D+02 0.1583000D+02
EXPONENTS  0.6334000D+01 0.2694000D+01 0.4313000D+00 0.9768000D+00 0.1625000D+00
EXPONENTS  0.5910000D-01 0.6633000D+03 0.1568000D+03 0.4998000D+02 0.1842000D+02
EXPONENTS  0.7240000D+01 0.2922000D+01 0.3818000D+00 0.6633000D+03 0.1568000D+03
EXPONENTS  0.4998000D+02 0.1842000D+02 0.7240000D+01 0.2922000D+01 0.3818000D+00
EXPONENTS  0.6633000D+03 0.1568000D+03 0.4998000D+02 0.1842000D+02 0.7240000D+01
EXPONENTS  0.2922000D+01 0.3818000D+00 0.6633000D+03 0.1568000D+03 0.4998000D+02
EXPONENTS  0.1842000D+02 0.7240000D+01 0.2922000D+01 0.3818000D+00 0.6633000D+03
EXPONENTS  0.1568000D+03 0.4998000D+02 0.1842000D+02 0.7240000D+01 0.2922000D+01
EXPONENTS  0.3818000D+00 0.6633000D+03 0.1568000D+03 0.4998000D+02 0.1842000D+02
EXPONENTS  0.7240000D+01 0.2922000D+01 0.3818000D+00 0.1022000D+01 0.1022000D+01
EXPONENTS  0.1022000D+01 0.1301000D+00 0.1301000D+00 0.1301000D+00 0.4190000D-01
EXPONENTS  0.4190000D-01 0.4190000D-01 0.1046000D+01 0.1046000D+01 0.1046000D+01
EXPONENTS  0.1046000D+01 0.1046000D+01 0.1046000D+01 0.3440000D+00 0.3440000D+00
EXPONENTS  0.3440000D+00 0.3440000D+00 0.3440000D+00 0.3440000D+00 0.1350000D+00
EXPONENTS  0.1350000D+00 0.1350000D+00 0.1350000D+00 0.1350000D+00 0.1350000D+00
EXPONENTS  0.7060000D+00 0.7060000D+00 0.7060000D+00 0.7060000D+00 0.7060000D+00
EXPONENTS  0.7060000D+00 0.7060000D+00 0.7060000D+00 0.7060000D+00 0.7060000D+00
EXPONENTS  0.3120000D+00 0.3120000D+00 0.3120000D+00 0.3120000D+00 0.3120000D+00
EXPONENTS  0.3120000D+00 0.3120000D+00 0.3120000D+00 0.3120000D+00 0.3120000D+00
MO    1     MO 0.0        OCC NO =    2.0000000  ORB. ENERGY = -101.763878
 -0.34426485D-04 -0.64396757D-04 -0.11121031D-03 -0.17963363D-03 -0.27052455D-03
 -0.36791212D-03 -0.41883064D-03 -0.33931026D-03 -0.13773274D-03 -0.12559331D-04
  0.48265789D-06 -0.16139732D-06 -0.90572519D-08  0.72936503D-04  0.13651705D-03
  0.23611149D-03  0.38375655D-03  0.58714439D-03  0.83319847D-03  0.10451783D-02
  0.10656498D-02  0.65475643D-03 -0.14269881D-03 -0.52268461D-03 -0.23905754D-03
  0.12689305D-05 -0.45822429D-04 -0.85703939D-04 -0.14841600D-03 -0.24097523D-03
 -0.36989211D-03 -0.52541524D-03 -0.66657257D-03 -0.69008272D-03 -0.44449712D-03
  0.10932638D-03  0.44564797D-03  0.38868257D-03 -0.19809287D-03 -0.38073613D-03
  0.24746370D-02  0.16710615D-03 -0.35081289D-14 -0.46274028D-14 -0.51399078D-14
 -0.43990366D-14 -0.25135742D-14 -0.81570961D-15 -0.57436468D-18 -0.14876109D-12
 -0.19622354D-12 -0.21795615D-12 -0.18653974D-12 -0.10658731D-12 -0.34589905D-13
 -0.24355751D-16 -0.76964050D-13 -0.10151955D-12 -0.11276328D-12 -0.96509473D-13
 -0.55144738D-13 -0.17895669D-13 -0.12600857D-16  0.28863340D-14  0.39470247D-14
  0.42908134D-14  0.39387423D-14  0.21467745D-14  0.90589761D-15 -0.31243310D-15
  0.11891918D-12  0.16262045D-12  0.17678481D-12  0.16227921D-12  0.88448758D-13
  0.37323677D-13 -0.12872484D-13  0.61337161D-13  0.83877778D-13  0.91183594D-13
  0.83701771D-13  0.45620864D-13  0.19251128D-13 -0.66394807D-14  0.24768721D-15
  0.13688205D-13  0.67168588D-14 -0.43017902D-15 -0.41606051D-13 -0.12377466D-13
 -0.39345516D-17 -0.43145444D-15  0.99164580D-15 -0.58068435D-14 -0.57536981D-14
  0.11560542D-13 -0.15709760D-13 -0.14524579D-13 -0.10663153D-15  0.28181298D-14
  0.27936387D-14 -0.56117685D-14  0.48334336D-14  0.18736067D-14 -0.13967840D-15
 -0.11208260D-14 -0.11118286D-14  0.22326546D-14 -0.19682316D-14 -0.29261453D-14
 -0.20567500D-16  0.10096368D-16  0.12872178D-14  0.16298437D-14 -0.14362220D-16
 -0.25050029D-14 -0.24465389D-14 -0.15926882D-16 -0.13566506D-14 -0.24429922D-14
  0.80226435D-04 -0.70760668D-17 -0.22636560D-15  0.32121869D-15  0.17440890D-16
 -0.42472007D-15 -0.48679436D-15  0.37873109D-17  0.11038169D-14 -0.47686170D-15
  0.88987233D-04  0.30861295D+00  0.57741601D+00  0.99764695D+00  0.16173021D+01
  0.24560022D+01  0.34135542D+01  0.40582235D+01  0.36147534D+01  0.17944718D+01
  0.28911816D+00  0.44387339D-02  0.79319738D-03  0.29640549D-04 -0.48900974D-03
 -0.91339998D-03 -0.15852500D-02 -0.25722165D-02 -0.39814856D-02 -0.56991349D-02
 -0.74391513D-02 -0.79276570D-02 -0.59260845D-02 -0.31282748D-03  0.40196778D-02
  0.23881504D-02 -0.89537737D-05  0.21396602D-03  0.39933675D-03  0.69401212D-03
  0.11247895D-02  0.17469742D-02  0.25025909D-02  0.33044381D-02  0.35730778D-02
  0.28013393D-02  0.13939372D-03 -0.24014561D-02 -0.24859522D-02  0.11249285D-02
 -0.12635960D-02 -0.10178784D-02 -0.29961026D-03 -0.13417890D-03 -0.17674372D-03
 -0.19498973D-03 -0.16196139D-03 -0.86021626D-04 -0.22187487D-04  0.22807982D-07
 -0.13417890D-03 -0.17674372D-03 -0.19498973D-03 -0.16196139D-03 -0.86021626D-04
 -0.22187487D-04  0.22807982D-07 -0.13417890D-03 -0.17674372D-03 -0.19498973D-03
 -0.16196139D-03 -0.86021626D-04 -0.22187487D-04  0.22807982D-07  0.29144975D-04
  0.38265216D-04  0.43567763D-04  0.36891393D-04  0.21132810D-04  0.48069811D-05
 -0.22499317D-05  0.29144975D-04  0.38265216D-04  0.43567764D-04  0.36891393D-04
  0.21132810D-04  0.48069811D-05 -0.22499317D-05  0.29144975D-04  0.38265216D-04
  0.43567763D-04  0.36891392D-04  0.21132810D-04  0.48069811D-05 -0.22499317D-05
 -0.21514854D-04 -0.21514854D-04 -0.21514854D-04  0.22952531D-03  0.22952531D-03
  0.22952531D-03  0.75042861D-05  0.75042861D-05  0.75042861D-05  0.75945437D-15
  0.64636822D-15 -0.14058226D-14  0.10097949D-03  0.10097949D-03  0.10097949D-03
 -0.63333037D-15 -0.10728067D-15  0.74061104D-15 -0.65535769D-04 -0.65535769D-04
 -0.65535769D-04 -0.20718326D-14 -0.20023721D-14  0.40742047D-14 -0.35129269D-04
 -0.35129269D-04 -0.35129269D-04  0.60108835D-05  0.60108835D-05  0.60108835D-05
 -0.90163253D-05 -0.90163253D-05 -0.90163253D-05 -0.90163253D-05 -0.90163253D-05
 -0.90163253D-05  0.16225367D-04 -0.64152117D-05 -0.64152117D-05 -0.64152117D-05
  0.96228176D-05  0.96228176D-05  0.96228176D-05  0.96228176D-05  0.96228176D-05
  0.96228176D-05  0.18686891D-04  0.30861295D+00  0.57741601D+00  0.99764695D+00
  0.16173021D+01  0.24560022D+01  0.34135542D+01  0.40582235D+01  0.36147534D+01
  0.17944718D+01  0.28911816D+00  0.44387339D-02  0.79319738D-03  0.29640549D-04
 -0.48900974D-03 -0.91339998D-03 -0.15852500D-02 -0.25722165D-02 -0.39814856D-02
 -0.56991349D-02 -0.74391513D-02 -0.79276570D-02 -0.59260845D-02 -0.31282748D-03
  0.40196778D-02  0.23881504D-02 -0.89537737D-05  0.21396602D-03  0.39933675D-03
  0.69401212D-03  0.11247895D-02  0.17469742D-02  0.25025909D-02  0.33044381D-02
  0.35730778D-02  0.28013393D-02  0.13939372D-03 -0.24014561D-02 -0.24859522D-02
  0.11249285D-02 -0.12635960D-02 -0.10178784D-02 -0.29961026D-03  0.13417890D-03
  0.17674372D-03  0.19498973D-03  0.16196139D-03  0.86021626D-04  0.22187487D-04
 -0.22807982D-07  0.13417890D-03  0.17674372D-03  0.19498973D-03  0.16196139D-03
  0.86021626D-04  0.22187487D-04 -0.22807982D-07 -0.13417890D-03 -0.17674372D-03
 -0.19498973D-03 -0.16196139D-03 -0.86021626D-04 -0.22187487D-04  0.22807982D-07
 -0.29144975D-04 -0.38265216D-04 -0.43567764D-04 -0.36891393D-04 -0.21132810D-04
 -0.48069811D-05  0.22499317D-05 -0.29144975D-04 -0.38265216D-04 -0.43567763D-04
 -0.36891393D-04 -0.21132810D-04 -0.48069811D-05  0.22499317D-05  0.29144975D-04
  0.38265216D-04  0.43567763D-04  0.36891393D-04  0.21132810D-04  0.48069811D-05
 -0.22499317D-05  0.21514854D-04  0.21514854D-04 -0.21514854D-04 -0.22952531D-03
 -0.22952531D-03  0.22952531D-03 -0.75042861D-05 -0.75042861D-05  0.75042861D-05
  0.54592284D-15  0.62660161D-15 -0.11725245D-14  0.10097949D-03 -0.10097949D-03
 -0.10097949D-03 -0.35206011D-15 -0.86109524D-15  0.12131553D-14 -0.65535769D-04
  0.65535769D-04  0.65535769D-04 -0.11965675D-14 -0.12367500D-14  0.24333175D-14
 -0.35129269D-04  0.35129269D-04  0.35129269D-04 -0.60108835D-05 -0.60108835D-05
  0.60108835D-05  0.90163253D-05  0.90163253D-05 -0.90163253D-05  0.90163253D-05
  0.90163253D-05 -0.90163253D-05  0.16225367D-04  0.64152117D-05  0.64152117D-05
 -0.64152117D-05 -0.96228176D-05 -0.96228176D-05  0.96228176D-05 -0.96228176D-05
 -0.96228176D-05  0.96228176D-05  0.18686891D-04  0.30861295D+00  0.57741601D+00
  0.99764695D+00  0.16173021D+01  0.24560022D+01  0.34135542D+01  0.40582235D+01
  0.36147534D+01  0.17944718D+01  0.28911816D+00  0.44387339D-02  0.79319738D-03
  0.29640549D-04 -0.48900974D-03 -0.91339998D-03 -0.15852500D-02 -0.25722165D-02
 -0.39814856D-02 -0.56991349D-02 -0.74391513D-02 -0.79276570D-02 -0.59260845D-02
 -0.31282748D-03  0.40196778D-02  0.23881504D-02 -0.89537737D-05  0.21396602D-03
  0.39933675D-03  0.69401212D-03  0.11247895D-02  0.17469742D-02  0.25025909D-02
  0.33044381D-02  0.35730778D-02  0.28013393D-02  0.13939372D-03 -0.24014561D-02
 -0.24859522D-02  0.11249285D-02 -0.12635960D-02 -0.10178784D-02 -0.29961026D-03
  0.13417890D-03  0.17674372D-03  0.19498973D-03  0.16196139D-03  0.86021626D-04
  0.22187487D-04 -0.22807982D-07 -0.13417890D-03 -0.17674372D-03 -0.19498973D-03
 -0.16196139D-03 -0.86021626D-04 -0.22187487D-04  0.22807982D-07  0.13417890D-03
  0.17674372D-03  0.19498973D-03  0.16196139D-03  0.86021626D-04  0.22187487D-04
 -0.22807982D-07 -0.29144975D-04 -0.38265216D-04 -0.43567763D-04 -0.36891393D-04
 -0.21132810D-04 -0.48069811D-05  0.22499317D-05  0.29144975D-04  0.38265216D-04
  0.43567764D-04  0.36891393D-04  0.21132810D-04  0.48069811D-05 -0.22499317D-05
 -0.29144975D-04 -0.38265216D-04 -0.43567763D-04 -0.36891392D-04 -0.21132810D-04
 -0.48069811D-05  0.22499317D-05  0.21514854D-04 -0.21514854D-04  0.21514854D-04
 -0.22952531D-03  0.22952531D-03 -0.22952531D-03 -0.75042861D-05  0.75042861D-05
 -0.75042861D-05  0.21166987D-14  0.20174195D-14 -0.41341181D-14 -0.10097949D-03
  0.10097949D-03 -0.10097949D-03 -0.11321862D-14 -0.60116350D-15  0.17333497D-14
  0.65535769D-04 -0.65535769D-04  0.65535769D-04 -0.66967416D-15 -0.65591380D-15
  0.13255880D-14  0.35129269D-04 -0.35129269D-04  0.35129269D-04 -0.60108835D-05
  0.60108835D-05 -0.60108835D-05  0.90163253D-05 -0.90163253D-05  0.90163253D-05
  0.90163253D-05 -0.90163253D-05  0.90163253D-05  0.16225367D-04  0.64152117D-05
 -0.64152117D-05  0.64152117D-05 -0.96228176D-05  0.96228176D-05 -0.96228176D-05
 -0.96228176D-05  0.96228176D-05 -0.96228176D-05  0.18686891D-04  0.30861295D+00
  0.57741601D+00  0.99764695D+00  0.16173021D+01  0.24560022D+01  0.34135542D+01
  0.40582235D+01  0.36147534D+01  0.17944718D+01  0.28911816D+00  0.44387339D-02
  0.79319738D-03  0.29640549D-04 -0.48900974D-03 -0.91339998D-03 -0.15852500D-02
 -0.25722165D-02 -0.39814856D-02 -0.56991349D-02 -0.74391513D-02 -0.79276570D-02
 -0.59260845D-02 -0.31282748D-03  0.40196778D-02  0.23881504D-02 -0.89537737D-05
  0.21396602D-03  0.39933675D-03  0.69401212D-03  0.11247895D-02  0.17469742D-02
  0.25025909D-02  0.33044381D-02  0.35730778D-02  0.28013393D-02  0.13939372D-03
 -0.24014561D-02 -0.24859522D-02  0.11249285D-02 -0.12635960D-02 -0.10178784D-02
 -0.29961026D-03 -0.13417890D-03 -0.17674372D-03 -0.19498973D-03 -0.16196139D-03
 -0.86021626D-04 -0.22187487D-04  0.22807982D-07  0.13417890D-03  0.17674372D-03
  0.19498973D-03  0.16196139D-03  0.86021626D-04  0.22187487D-04 -0.22807982D-07
  0.13417890D-03  0.17674372D-03  0.19498973D-03  0.16196139D-03  0.86021626D-04
  0.22187487D-04 -0.22807982D-07  0.29144975D-04  0.38265216D-04  0.43567763D-04
  0.36891393D-04  0.21132810D-04  0.48069811D-05 -0.22499317D-05 -0.29144975D-04
 -0.38265216D-04 -0.43567763D-04 -0.36891393D-04 -0.21132810D-04 -0.48069811D-05
  0.22499317D-05 -0.29144975D-04 -0.38265216D-04 -0.43567763D-04 -0.36891393D-04
 -0.21132810D-04 -0.48069811D-05  0.22499317D-05 -0.21514854D-04  0.21514854D-04
  0.21514854D-04  0.22952531D-03 -0.22952531D-03 -0.22952531D-03  0.75042861D-05
 -0.75042861D-05 -0.75042861D-05  0.19210204D-14  0.19927403D-14 -0.39137607D-14
 -0.10097949D-03 -0.10097949D-03  0.10097949D-03 -0.84647302D-15 -0.13623135D-14
  0.22087865D-14  0.65535769D-04  0.65535769D-04 -0.65535769D-04  0.16184420D-15
  0.15204906D-15 -0.31389326D-15  0.35129269D-04  0.35129269D-04 -0.35129269D-04
  0.60108835D-05 -0.60108835D-05 -0.60108835D-05 -0.90163253D-05  0.90163253D-05
  0.90163253D-05 -0.90163253D-05  0.90163253D-05  0.90163253D-05  0.16225367D-04
 -0.64152117D-05  0.64152117D-05  0.64152117D-05  0.96228176D-05 -0.96228176D-05
 -0.96228176D-05  0.96228176D-05 -0.96228176D-05 -0.96228176D-05  0.18686891D-04
MO    2     MO 0.0        OCC NO =    2.0000000  ORB. ENERGY = -101.763873
  0.22506044D-14  0.42098874D-14  0.72702863D-14  0.11743408D-13  0.17685330D-13
  0.24051966D-13  0.27380724D-13  0.22182141D-13  0.90041695D-14  0.82105641D-15
 -0.31553380D-16  0.10551223D-16  0.59211073D-18 -0.46235069D-14 -0.86539319D-14
 -0.14967308D-13 -0.24326654D-13 -0.37219582D-13 -0.52817159D-13 -0.66254740D-13
 -0.67552447D-13 -0.41505567D-13  0.90457986D-14  0.33133422D-13  0.15154061D-13
 -0.80438585D-16  0.28014431D-14  0.52396766D-14  0.90737001D-14  0.14732489D-13
  0.22614072D-13  0.32122280D-13  0.40752208D-13  0.42189546D-13  0.27175194D-13
 -0.66838804D-14 -0.27245554D-13 -0.23762863D-13  0.12110792D-13  0.12369336D-13
 -0.86202692D-13 -0.12470441D-13  0.25463183D-02  0.33587250D-02  0.37307184D-02
  0.31929691D-02  0.18244369D-02  0.59206954D-03  0.41689326D-06 -0.87864949D-03
 -0.11589840D-02 -0.12873465D-02 -0.11017871D-02 -0.62955231D-03 -0.20430345D-03
 -0.14385596D-06 -0.44755781D-03 -0.59035181D-03 -0.65573585D-03 -0.56121746D-03
 -0.32067515D-03 -0.10406608D-03 -0.73275927D-07 -0.21719210D-02 -0.29700740D-02
 -0.32287696D-02 -0.29638417D-02 -0.16154141D-02 -0.68167371D-03  0.23510100D-03
  0.74945748D-03  0.10248735D-02  0.11141407D-02  0.10227229D-02  0.55742551D-03
  0.23522286D-03 -0.81125511D-04  0.38175126D-03  0.52203994D-03  0.56750999D-03
  0.52094450D-03  0.28393591D-03  0.11981550D-03 -0.41322912D-04 -0.96211381D-04
  0.33199338D-04  0.16910751D-04  0.27599405D-03 -0.95236339D-04 -0.48510547D-04
  0.93426034D-06 -0.32238208D-06 -0.16421180D-06 -0.13258195D-14 -0.12895315D-14
  0.26153510D-14 -0.24497057D-05 -0.48092843D-05  0.13937262D-04  0.69136939D-15
  0.67284600D-15 -0.13642154D-14 -0.22380984D-04 -0.43938547D-04  0.12733351D-03
 -0.16696666D-15 -0.16106844D-15  0.32803510D-15 -0.20899254D-05 -0.41029602D-05
  0.11890342D-04  0.86421595D-05 -0.29821210D-05 -0.15190034D-05 -0.12963239D-04
  0.44731815D-05  0.22785050D-05 -0.12963239D-04  0.44731815D-05  0.22785050D-05
 -0.48943942D-14  0.87302646D-05 -0.30125231D-05 -0.15344893D-05 -0.13095397D-04
  0.45187846D-05  0.23017339D-05 -0.13095397D-04  0.45187846D-05  0.23017339D-05
 -0.29666624D-14  0.13787477D+00  0.25796422D+00  0.44570502D+00  0.72253982D+00
  0.10972344D+01  0.15250267D+01  0.18130368D+01  0.16149137D+01  0.80169152D+00
  0.12916535D+00  0.19830322D-02  0.35436590D-03  0.13242101D-04 -0.17706571D-03
 -0.33073332D-03 -0.57400372D-03 -0.93137477D-03 -0.14416575D-02 -0.20636018D-02
 -0.26936449D-02 -0.28705281D-02 -0.21457781D-02 -0.11327181D-03  0.14554866D-02
  0.86472623D-03 -0.32420751D-05  0.73318602D-04  0.13683861D-03  0.23781345D-03
  0.38542565D-03  0.59862637D-03  0.85754956D-03  0.11323143D-02  0.12243676D-02
  0.95992009D-03  0.47765306D-04 -0.82289421D-03 -0.85184806D-03  0.38547330D-03