 Molden2AIM, Version 4.0.0 (06/02/2016)           Time: Fri Jun 29 20:24:05 2018
GAUSSIAN             33 MOL ORBITALS    551 PRIMITIVES        5 NUCLEI
  Si   1    (CENTRE  1)   0.00000000  0.00002079  0.95516585  CHARGE = 14.0
  H    2    (CENTRE  2)   0.00000000  0.00012094  3.74965505  CHARGE =  1.0
  Cl   3    (CENTRE  3)   0.00000000  3.67042072 -0.34577264  CHARGE = 17.0
  Cl   4    (CENTRE  4)   3.17854580 -1.83528123 -0.34591248  CHARGE = 17.0
  Cl   5    (CENTRE  5)  -3.17854580 -1.83528123 -0.34591248  CHARGE = 17.0
CENTRE ASSIGNMENTS    1  1  1  1  1  1  1  1  1  1  1  1  1  1  1  1  1  1  1  1
CENTRE ASSIGNMENTS    1  1  1  1  1  1  1  1  1  1  1  1  1  1  1  1  1  1  1  1
CENTRE ASSIGNMENTS    1  1  1  1  1  1  1  1  1  1  1  1  1  1  1  1  1  1  1  1
CENTRE ASSIGNMENTS    1  1  1  1  1  1  1  1  1  1  1  1  1  1  1  1  1  1  1  1
CENTRE ASSIGNMENTS    1  1  1  1  1  1  1  1  1  1  1  1  1  1  1  1  1  1  1  1
CENTRE ASSIGNMENTS    1  1  1  1  1  1  1  1  1  1  1  1  1  1  1  1  1  1  1  1
CENTRE ASSIGNMENTS    1  1  1  1  1  1  1  1  1  1  1  2  2  2  2  2  2  2  2  2
CENTRE ASSIGNMENTS    2  2  2  2  2  2  2  2  2  2  2  2  2  2  2  2  2  2  3  3
CENTRE ASSIGNMENTS    3  3  3  3  3  3  3  3  3  3  3  3  3  3  3  3  3  3  3  3
CENTRE ASSIGNMENTS    3  3  3  3  3  3  3  3  3  3  3  3  3  3  3  3  3  3  3  3
CENTRE ASSIGNMENTS    3  3  3  3  3  3  3  3  3  3  3  3  3  3  3  3  3  3  3  3
CENTRE ASSIGNMENTS    3  3  3  3  3  3  3  3  3  3  3  3  3  3  3  3  3  3  3  3
CENTRE ASSIGNMENTS    3  3  3  3  3  3  3  3  3  3  3  3  3  3  3  3  3  3  3  3
CENTRE ASSIGNMENTS    3  3  3  3  3  3  3  3  3  3  3  3  3  3  3  3  3  3  3  3
CENTRE ASSIGNMENTS    3  3  3  3  3  3  3  3  3  4  4  4  4  4  4  4  4  4  4  4
CENTRE ASSIGNMENTS    4  4  4  4  4  4  4  4  4  4  4  4  4  4  4  4  4  4  4  4
CENTRE ASSIGNMENTS    4  4  4  4  4  4  4  4  4  4  4  4  4  4  4  4  4  4  4  4
CENTRE ASSIGNMENTS    4  4  4  4  4  4  4  4  4  4  4  4  4  4  4  4  4  4  4  4
CENTRE ASSIGNMENTS    4  4  4  4  4  4  4  4  4  4  4  4  4  4  4  4  4  4  4  4
CENTRE ASSIGNMENTS    4  4  4  4  4  4  4  4  4  4  4  4  4  4  4  4  4  4  4  4
CENTRE ASSIGNMENTS    4  4  4  4  4  4  4  4  4  4  4  4  4  4  4  4  4  4  4  4
CENTRE ASSIGNMENTS    5  5  5  5  5  5  5  5  5  5  5  5  5  5  5  5  5  5  5  5
CENTRE ASSIGNMENTS    5  5  5  5  5  5  5  5  5  5  5  5  5  5  5  5  5  5  5  5
CENTRE ASSIGNMENTS    5  5  5  5  5  5  5  5  5  5  5  5  5  5  5  5  5  5  5  5
CENTRE ASSIGNMENTS    5  5  5  5  5  5  5  5  5  5  5  5  5  5  5  5  5  5  5  5
CENTRE ASSIGNMENTS    5  5  5  5  5  5  5  5  5  5  5  5  5  5  5  5  5  5  5  5
CENTRE ASSIGNMENTS    5  5  5  5  5  5  5  5  5  5  5  5  5  5  5  5  5  5  5  5
CENTRE ASSIGNMENTS    5  5  5  5  5  5  5  5  5  5  5
TYPE ASSIGNMENTS      1  1  1  1  1  1  1  1  1  1  1  1  1  1  1  1  1  1  1  1
TYPE ASSIGNMENTS      1  1  1  1  1  1  1  1  1  1  1  1  1  1  1  1  1  1  1  1
TYPE ASSIGNMENTS      1  1  2  2  2  2  2  2  2  3  3  3  3  3  3  3  4  4  4  4
TYPE ASSIGNMENTS      4  4  4  2  2  2  2  2  2  2  3  3  3  3  3  3  3  4  4  4
TYPE ASSIGNMENTS      4  4  4  4  2  3  4  2  3  4  2  3  4  5  6  7  8  9 10  5
TYPE ASSIGNMENTS      6  7  8  9 10  5  6  7  8  9 10 11 12 13 17 14 15 18 19 16
TYPE ASSIGNMENTS     20 11 12 13 17 14 15 18 19 16 20  1  1  1  1  1  1  2  3  4
TYPE ASSIGNMENTS      2  3  4  2  3  4  5  6  7  8  9 10  5  6  7  8  9 10  1  1
TYPE ASSIGNMENTS      1  1  1  1  1  1  1  1  1  1  1  1  1  1  1  1  1  1  1  1
TYPE ASSIGNMENTS      1  1  1  1  1  1  1  1  1  1  1  1  1  1  1  1  1  1  1  1
TYPE ASSIGNMENTS      2  2  2  2  2  2  2  3  3  3  3  3  3  3  4  4  4  4  4  4
TYPE ASSIGNMENTS      4  2  2  2  2  2  2  2  3  3  3  3  3  3  3  4  4  4  4  4
TYPE ASSIGNMENTS      4  4  2  3  4  2  3  4  2  3  4  5  6  7  8  9 10  5  6  7
TYPE ASSIGNMENTS      8  9 10  5  6  7  8  9 10 11 12 13 17 14 15 18 19 16 20 11
TYPE ASSIGNMENTS     12 13 17 14 15 18 19 16 20  1  1  1  1  1  1  1  1  1  1  1
TYPE ASSIGNMENTS      1  1  1  1  1  1  1  1  1  1  1  1  1  1  1  1  1  1  1  1
TYPE ASSIGNMENTS      1  1  1  1  1  1  1  1  1  1  1  2  2  2  2  2  2  2  3  3
TYPE ASSIGNMENTS      3  3  3  3  3  4  4  4  4  4  4  4  2  2  2  2  2  2  2  3
TYPE ASSIGNMENTS      3  3  3  3  3  3  4  4  4  4  4  4  4  2  3  4  2  3  4  2
TYPE ASSIGNMENTS      3  4  5  6  7  8  9 10  5  6  7  8  9 10  5  6  7  8  9 10
TYPE ASSIGNMENTS     11 12 13 17 14 15 18 19 16 20 11 12 13 17 14 15 18 19 16 20
TYPE ASSIGNMENTS      1  1  1  1  1  1  1  1  1  1  1  1  1  1  1  1  1  1  1  1
TYPE ASSIGNMENTS      1  1  1  1  1  1  1  1  1  1  1  1  1  1  1  1  1  1  1  1
TYPE ASSIGNMENTS      1  1  2  2  2  2  2  2  2  3  3  3  3  3  3  3  4  4  4  4
TYPE ASSIGNMENTS      4  4  4  2  2  2  2  2  2  2  3  3  3  3  3  3  3  4  4  4
TYPE ASSIGNMENTS      4  4  4  4  2  3  4  2  3  4  2  3  4  5  6  7  8  9 10  5
TYPE ASSIGNMENTS      6  7  8  9 10  5  6  7  8  9 10 11 12 13 17 14 15 18 19 16
TYPE ASSIGNMENTS     20 11 12 13 17 14 15 18 19 16 20
EXPONENTS  0.2549000D+06 0.3819000D+05 0.8690000D+04 0.2462000D+04 0.8048000D+03
EXPONENTS  0.2913000D+03 0.1136000D+03 0.4675000D+02 0.1982000D+02 0.7708000D+01
EXPONENTS  0.3340000D+01 0.1402000D+01 0.2070000D+00 0.2549000D+06 0.3819000D+05
EXPONENTS  0.8690000D+04 0.2462000D+04 0.8048000D+03 0.2913000D+03 0.1136000D+03
EXPONENTS  0.4675000D+02 0.1982000D+02 0.7708000D+01 0.3340000D+01 0.1402000D+01
EXPONENTS  0.2070000D+00 0.2549000D+06 0.3819000D+05 0.8690000D+04 0.2462000D+04
EXPONENTS  0.8048000D+03 0.2913000D+03 0.1136000D+03 0.4675000D+02 0.1982000D+02
EXPONENTS  0.7708000D+01 0.3340000D+01 0.1402000D+01 0.2070000D+00 0.4387000D+00
EXPONENTS  0.7944000D-01 0.3300000D-01 0.4815000D+03 0.1139000D+03 0.3623000D+02
EXPONENTS  0.1334000D+02 0.5252000D+01 0.2120000D+01 0.2528000D+00 0.4815000D+03
EXPONENTS  0.1139000D+03 0.3623000D+02 0.1334000D+02 0.5252000D+01 0.2120000D+01
EXPONENTS  0.2528000D+00 0.4815000D+03 0.1139000D+03 0.3623000D+02 0.1334000D+02
EXPONENTS  0.5252000D+01 0.2120000D+01 0.2528000D+00 0.4815000D+03 0.1139000D+03
EXPONENTS  0.3623000D+02 0.1334000D+02 0.5252000D+01 0.2120000D+01 0.2528000D+00
EXPONENTS  0.4815000D+03 0.1139000D+03 0.3623000D+02 0.1334000D+02 0.5252000D+01
EXPONENTS  0.2120000D+01 0.2528000D+00 0.4815000D+03 0.1139000D+03 0.3623000D+02
EXPONENTS  0.1334000D+02 0.5252000D+01 0.2120000D+01 0.2528000D+00 0.8561000D+00
EXPONENTS  0.8561000D+00 0.8561000D+00 0.7889000D-01 0.7889000D-01 0.7889000D-01
EXPONENTS  0.2370000D-01 0.2370000D-01 0.2370000D-01 0.1590000D+00 0.1590000D+00
EXPONENTS  0.1590000D+00 0.1590000D+00 0.1590000D+00 0.1590000D+00 0.4810000D+00
EXPONENTS  0.4810000D+00 0.4810000D+00 0.4810000D+00 0.4810000D+00 0.4810000D+00
EXPONENTS  0.5560000D-01 0.5560000D-01 0.5560000D-01 0.5560000D-01 0.5560000D-01
EXPONENTS  0.5560000D-01 0.3360000D+00 0.3360000D+00 0.3360000D+00 0.3360000D+00
EXPONENTS  0.3360000D+00 0.3360000D+00 0.3360000D+00 0.3360000D+00 0.3360000D+00
EXPONENTS  0.3360000D+00 0.1250000D+00 0.1250000D+00 0.1250000D+00 0.1250000D+00
EXPONENTS  0.1250000D+00 0.1250000D+00 0.1250000D+00 0.1250000D+00 0.1250000D+00
EXPONENTS  0.1250000D+00 0.3387000D+02 0.5095000D+01 0.1159000D+01 0.3258000D+00
EXPONENTS  0.1027000D+00 0.2526000D-01 0.1407000D+01 0.1407000D+01 0.1407000D+01
EXPONENTS  0.3880000D+00 0.3880000D+00 0.3880000D+00 0.1020000D+00 0.1020000D+00
EXPONENTS  0.1020000D+00 0.1057000D+01 0.1057000D+01 0.1057000D+01 0.1057000D+01
EXPONENTS  0.1057000D+01 0.1057000D+01 0.2470000D+00 0.2470000D+00 0.2470000D+00
EXPONENTS  0.2470000D+00 0.2470000D+00 0.2470000D+00 0.4561000D+06 0.6833000D+05
EXPONENTS  0.1555000D+05 0.4405000D+04 0.1439000D+04 0.5204000D+03 0.2031000D+03
EXPONENTS  0.8396000D+02 0.3620000D+02 0.1583000D+02 0.6334000D+01 0.2694000D+01
EXPONENTS  0.4313000D+00 0.4561000D+06 0.6833000D+05 0.1555000D+05 0.4405000D+04
EXPONENTS  0.1439000D+04 0.5204000D+03 0.2031000D+03 0.8396000D+02 0.3620000D+02
EXPONENTS  0.1583000D+02 0.6334000D+01 0.2694000D+01 0.4313000D+00 0.4561000D+06
EXPONENTS  0.6833000D+05 0.1555000D+05 0.4405000D+04 0.1439000D+04 0.5204000D+03
EXPONENTS  0.2031000D+03 0.8396000D+02 0.3620000D+02 0.1583000D+02 0.6334000D+01
EXPONENTS  0.2694000D+01 0.4313000D+00 0.9768000D+00 0.1625000D+00 0.5910000D-01
EXPONENTS  0.6633000D+03 0.1568000D+03 0.4998000D+02 0.1842000D+02 0.7240000D+01
EXPONENTS  0.2922000D+01 0.3818000D+00 0.6633000D+03 0.1568000D+03 0.4998000D+02
EXPONENTS  0.1842000D+02 0.7240000D+01 0.2922000D+01 0.3818000D+00 0.6633000D+03
EXPONENTS  0.1568000D+03 0.4998000D+02 0.1842000D+02 0.7240000D+01 0.2922000D+01
EXPONENTS  0.3818000D+00 0.6633000D+03 0.1568000D+03 0.4998000D+02 0.1842000D+02
EXPONENTS  0.7240000D+01 0.2922000D+01 0.3818000D+00 0.6633000D+03 0.1568000D+03
EXPONENTS  0.4998000D+02 0.1842000D+02 0.7240000D+01 0.2922000D+01 0.3818000D+00
EXPONENTS  0.6633000D+03 0.1568000D+03 0.4998000D+02 0.1842000D+02 0.7240000D+01
EXPONENTS  0.2922000D+01 0.3818000D+00 0.1022000D+01 0.1022000D+01 0.1022000D+01
EXPONENTS  0.1301000D+00 0.1301000D+00 0.1301000D+00 0.4190000D-01 0.4190000D-01
EXPONENTS  0.4190000D-01 0.1046000D+01 0.1046000D+01 0.1046000D+01 0.1046000D+01
EXPONENTS  0.1046000D+01 0.1046000D+01 0.3440000D+00 0.3440000D+00 0.3440000D+00
EXPONENTS  0.3440000D+00 0.3440000D+00 0.3440000D+00 0.1350000D+00 0.1350000D+00
EXPONENTS  0.1350000D+00 0.1350000D+00 0.1350000D+00 0.1350000D+00 0.7060000D+00
EXPONENTS  0.7060000D+00 0.7060000D+00 0.7060000D+00 0.7060000D+00 0.7060000D+00
EXPONENTS  0.7060000D+00 0.7060000D+00 0.7060000D+00 0.7060000D+00 0.3120000D+00
EXPONENTS  0.3120000D+00 0.3120000D+00 0.3120000D+00 0.3120000D+00 0.3120000D+00
EXPONENTS  0.3120000D+00 0.3120000D+00 0.3120000D+00 0.3120000D+00 0.4561000D+06
EXPONENTS  0.6833000D+05 0.1555000D+05 0.4405000D+04 0.1439000D+04 0.5204000D+03
EXPONENTS  0.2031000D+03 0.8396000D+02 0.3620000D+02 0.1583000D+02 0.6334000D+01
EXPONENTS  0.2694000D+01 0.4313000D+00 0.4561000D+06 0.6833000D+05 0.1555000D+05
EXPONENTS  0.4405000D+04 0.1439000D+04 0.5204000D+03 0.2031000D+03 0.8396000D+02
EXPONENTS  0.3620000D+02 0.1583000D+02 0.6334000D+01 0.2694000D+01 0.4313000D+00
EXPONENTS  0.4561000D+06 0.6833000D+05 0.1555000D+05 0.4405000D+04 0.1439000D+04
EXPONENTS  0.5204000D+03 0.2031000D+03 0.8396000D+02 0.3620000D+02 0.1583000D+02
EXPONENTS  0.6334000D+01 0.2694000D+01 0.4313000D+00 0.9768000D+00 0.1625000D+00
EXPONENTS  0.5910000D-01 0.6633000D+03 0.1568000D+03 0.4998000D+02 0.1842000D+02
EXPONENTS  0.7240000D+01 0.2922000D+01 0.3818000D+00 0.6633000D+03 0.1568000D+03
EXPONENTS  0.4998000D+02 0.1842000D+02 0.7240000D+01 0.2922000D+01 0.3818000D+00
EXPONENTS  0.6633000D+03 0.1568000D+03 0.4998000D+02 0.1842000D+02 0.7240000D+01
EXPONENTS  0.2922000D+01 0.3818000D+00 0.6633000D+03 0.1568000D+03 0.4998000D+02
EXPONENTS  0.1842000D+02 0.7240000D+01 0.2922000D+01 0.3818000D+00 0.6633000D+03
EXPONENTS  0.1568000D+03 0.4998000D+02 0.1842000D+02 0.7240000D+01 0.2922000D+01
EXPONENTS  0.3818000D+00 0.6633000D+03 0.1568000D+03 0.4998000D+02 0.1842000D+02
EXPONENTS  0.7240000D+01 0.2922000D+01 0.3818000D+00 0.1022000D+01 0.1022000D+01
EXPONENTS  0.1022000D+01 0.1301000D+00 0.1301000D+00 0.1301000D+00 0.4190000D-01
EXPONENTS  0.4190000D-01 0.4190000D-01 0.1046000D+01 0.1046000D+01 0.1046000D+01
EXPONENTS  0.1046000D+01 0.1046000D+01 0.1046000D+01 0.3440000D+00 0.3440000D+00
EXPONENTS  0.3440000D+00 0.3440000D+00 0.3440000D+00 0.3440000D+00 0.1350000D+00
EXPONENTS  0.1350000D+00 0.1350000D+00 0.1350000D+00 0.1350000D+00 0.1350000D+00
EXPONENTS  0.7060000D+00 0.7060000D+00 0.7060000D+00 0.7060000D+00 0.7060000D+00
EXPONENTS  0.7060000D+00 0.7060000D+00 0.7060000D+00 0.7060000D+00 0.7060000D+00
EXPONENTS  0.3120000D+00 0.3120000D+00 0.3120000D+00 0.3120000D+00 0.3120000D+00
EXPONENTS  0.3120000D+00 0.3120000D+00 0.3120000D+00 0.3120000D+00 0.3120000D+00
EXPONENTS  0.4561000D+06 0.6833000D+05 0.1555000D+05 0.4405000D+04 0.1439000D+04
EXPONENTS  0.5204000D+03 0.2031000D+03 0.8396000D+02 0.3620000D+02 0.1583000D+02
EXPONENTS  0.6334000D+01 0.2694000D+01 0.4313000D+00 0.4561000D+06 0.6833000D+05
EXPONENTS  0.1555000D+05 0.4405000D+04 0.1439000D+04 0.5204000D+03 0.2031000D+03
EXPONENTS  0.8396000D+02 0.3620000D+02 0.1583000D+02 0.6334000D+01 0.2694000D+01
EXPONENTS  0.4313000D+00 0.4561000D+06 0.6833000D+05 0.1555000D+05 0.4405000D+04
EXPONENTS  0.1439000D+04 0.5204000D+03 0.2031000D+03 0.8396000D+02 0.3620000D+02
EXPONENTS  0.1583000D+02 0.6334000D+01 0.2694000D+01 0.4313000D+00 0.9768000D+00
EXPONENTS  0.1625000D+00 0.5910000D-01 0.6633000D+03 0.1568000D+03 0.4998000D+02
EXPONENTS  0.1842000D+02 0.7240000D+01 0.2922000D+01 0.3818000D+00 0.6633000D+03
EXPONENTS  0.1568000D+03 0.4998000D+02 0.1842000D+02 0.7240000D+01 0.2922000D+01
EXPONENTS  0.3818000D+00 0.6633000D+03 0.1568000D+03 0.4998000D+02 0.1842000D+02
EXPONENTS  0.7240000D+01 0.2922000D+01 0.3818000D+00 0.6633000D+03 0.1568000D+03
EXPONENTS  0.4998000D+02 0.1842000D+02 0.7240000D+01 0.2922000D+01 0.3818000D+00
EXPONENTS  0.6633000D+03 0.1568000D+03 0.4998000D+02 0.1842000D+02 0.7240000D+01
EXPONENTS  0.2922000D+01 0.3818000D+00 0.6633000D+03 0.1568000D+03 0.4998000D+02
EXPONENTS  0.1842000D+02 0.7240000D+01 0.2922000D+01 0.3818000D+00 0.1022000D+01
EXPONENTS  0.1022000D+01 0.1022000D+01 0.1301000D+00 0.1301000D+00 0.1301000D+00
EXPONENTS  0.4190000D-01 0.4190000D-01 0.4190000D-01 0.1046000D+01 0.1046000D+01
EXPONENTS  0.1046000D+01 0.1046000D+01 0.1046000D+01 0.1046000D+01 0.3440000D+00
EXPONENTS  0.3440000D+00 0.3440000D+00 0.3440000D+00 0.3440000D+00 0.3440000D+00
EXPONENTS  0.1350000D+00 0.1350000D+00 0.1350000D+00 0.1350000D+00 0.1350000D+00
EXPONENTS  0.1350000D+00 0.7060000D+00 0.7060000D+00 0.7060000D+00 0.7060000D+00
EXPONENTS  0.7060000D+00 0.7060000D+00 0.7060000D+00 0.7060000D+00 0.7060000D+00
EXPONENTS  0.7060000D+00 0.3120000D+00 0.3120000D+00 0.3120000D+00 0.3120000D+00
EXPONENTS  0.3120000D+00 0.3120000D+00 0.3120000D+00 0.3120000D+00 0.3120000D+00
EXPONENTS  0.3120000D+00
MO    1     MO 0.0        OCC NO =    2.0000000  ORB. ENERGY = -101.755870
 -0.31281466D-04 -0.58513815D-04 -0.10105073D-03 -0.16322327D-03 -0.24581089D-03
 -0.33430164D-03 -0.38056853D-03 -0.30831270D-03 -0.12515022D-03 -0.11411978D-04
  0.43856486D-06 -0.14665293D-06 -0.82298300D-08  0.65448390D-04  0.12250137D-03
  0.21187082D-03  0.34435773D-03  0.52686451D-03  0.74765716D-03  0.93787381D-03
  0.95624360D-03  0.58753508D-03 -0.12804846D-03 -0.46902258D-03 -0.21451441D-03
  0.11386543D-05 -0.40578565D-04 -0.75896084D-04 -0.13143145D-03 -0.21339832D-03
 -0.32756210D-03 -0.46528736D-03 -0.59029081D-03 -0.61111048D-03 -0.39362941D-03
  0.96815201D-04  0.39464856D-03  0.34420221D-03 -0.17542336D-03 -0.31723482D-03
  0.23912429D-02  0.14090454D-03 -0.15705928D-09 -0.20716928D-09 -0.23011418D-09
 -0.19694530D-09 -0.11253296D-09 -0.36519399D-10 -0.25714363D-13  0.47459850D-03
  0.62601988D-03  0.69535431D-03  0.59512528D-03  0.34004980D-03  0.11035357D-03
  0.77703136D-07 -0.14179468D-02 -0.18703449D-02 -0.20774938D-02 -0.17780418D-02
 -0.10159588D-02 -0.32970079D-03 -0.23215184D-06  0.13348424D-09  0.18253798D-09
  0.19843717D-09  0.18215495D-09  0.99281844D-10  0.41895031D-10 -0.14449088D-10
 -0.40338610D-03 -0.55162531D-03 -0.59967227D-03 -0.55046779D-03 -0.30002730D-03
 -0.12660576D-03  0.43664790D-04  0.11856239D-02  0.16213254D-02  0.17625441D-02
  0.16179233D-02  0.88183389D-03  0.37211696D-03 -0.12833863D-03  0.63528395D-11
 -0.19177988D-04  0.73806371D-04 -0.13115438D-10  0.39657667D-04 -0.58509241D-04
 -0.12288761D-12  0.37755694D-06  0.38033890D-06  0.11973014D-04  0.15575579D-04
 -0.27548593D-04  0.12038936D-11  0.19934953D-11 -0.59937777D-05  0.46139753D-05
  0.22922636D-04 -0.27536611D-04  0.60486420D-11  0.25899320D-11 -0.78319756D-05
  0.70056078D-06  0.15951079D-05 -0.22956687D-05  0.29699674D-12  0.27465901D-12
 -0.83300397D-06  0.12179917D-12  0.71172829D-05  0.12840504D-04  0.12118821D-12
 -0.22833500D-04 -0.21853807D-04 -0.48658573D-12  0.14816514D-05 -0.16667706D-04
  0.17050813D-11  0.88685493D-14  0.96079823D-05  0.15219107D-04  0.73502907D-14
 -0.28929706D-04 -0.24619815D-04 -0.33955938D-13  0.10575900D-06 -0.21037506D-04
  0.11811310D-11  0.12198964D-04  0.22001335D-04  0.32440955D-04 -0.14463470D-03
 -0.76863461D-03 -0.15873016D-04 -0.16765886D-11  0.50951541D-05 -0.34536394D-04
  0.22846637D-11 -0.69416939D-05  0.52916217D-04  0.17034962D-11 -0.51565051D-05
  0.11576746D-03 -0.44467237D-05 -0.92260525D-06  0.53693289D-05  0.11651358D-11
 -0.46767744D-11  0.14162392D-04 -0.39715593D-05 -0.89089284D-05  0.12880488D-04
 -0.16303239D-11 -0.26768590D-12  0.82181550D-06  0.43190981D+00  0.80810491D+00
  0.13962263D+01  0.22634456D+01  0.34372228D+01  0.47773354D+01  0.56795626D+01
  0.50589175D+01  0.25113982D+01  0.40462648D+00  0.62120943D-02  0.11100951D-02
  0.41482524D-04 -0.63063101D-03 -0.11779282D-02 -0.20443515D-02 -0.33171516D-02
 -0.51345567D-02 -0.73496515D-02 -0.95935910D-02 -0.10223572D-01 -0.76423276D-02
 -0.40342490D-03  0.51838097D-02  0.30797785D-02 -0.11546861D-04  0.27057094D-03
  0.50498167D-03  0.87761369D-03  0.14223536D-02  0.22091379D-02  0.31646537D-02
  0.41786304D-02  0.45183389D-02  0.35424363D-02  0.17627046D-03 -0.30367636D-02
 -0.31436132D-02  0.14225295D-02 -0.17249116D-02 -0.10960228D-02 -0.33131626D-03
 -0.18888258D-10 -0.24880075D-10 -0.27448552D-10 -0.22799177D-10 -0.12109197D-10
 -0.31233151D-11  0.32106617D-14 -0.11008266D-02 -0.14500357D-02 -0.15997291D-02
 -0.13287589D-02 -0.70573612D-03 -0.18202993D-03  0.18712058D-06  0.43706719D-03
  0.57571558D-03  0.63514915D-03  0.52756438D-03  0.28020226D-03  0.72272336D-04
 -0.74293504D-07  0.17166498D-10  0.22538353D-10  0.25661573D-10  0.21729166D-10
  0.12447303D-10  0.28313296D-11 -0.13252181D-11  0.75058123D-03  0.98545813D-03
  0.11220166D-02  0.95007755D-03  0.54424100D-03  0.12379595D-03 -0.57943316D-04
 -0.29423119D-03 -0.38630398D-03 -0.43983550D-03 -0.37243464D-03 -0.21334490D-03
 -0.48528563D-04  0.22714038D-04  0.57438666D-12  0.11177883D-04 -0.14426684D-04
  0.40966634D-11  0.41461659D-03 -0.13569649D-03  0.82940454D-13  0.14626940D-04
 -0.73560288D-05 -0.57129348D-04  0.11621882D-03 -0.59089468D-04  0.33197183D-11
  0.56216591D-14 -0.10317830D-03  0.33098019D-04 -0.64684571D-04  0.31586552D-04
 -0.16885927D-11  0.43552123D-13  0.58885244D-04  0.18447893D-04 -0.34689613D-04
  0.16241720D-04 -0.15287613D-11 -0.80270139D-14  0.38824763D-04 -0.15114198D-12
 -0.69097995D-05 -0.46272548D-05 -0.63900275D-12  0.21175616D-05 -0.28190793D-04
  0.10924287D-11  0.18611837D-04  0.42072557D-04 -0.85670547D-12 -0.15556342D-12
  0.11710452D-04  0.63559327D-05  0.11719025D-11 -0.14924082D-04  0.16775568D-04
 -0.70521220D-12 -0.20207275D-04 -0.35843366D-04  0.18945040D-12  0.31175880D+00
  0.58330190D+00  0.10078165D+01  0.16337880D+01  0.24810375D+01  0.34483503D+01
  0.40995911D+01  0.36516004D+01  0.18127638D+01  0.29206529D+00  0.44839802D-02
  0.80128285D-03  0.29942690D-04 -0.48210153D-03 -0.90049642D-03 -0.15628552D-02
 -0.25358789D-02 -0.39252393D-02 -0.56186235D-02 -0.73340587D-02 -0.78156634D-02
 -0.58423670D-02 -0.30840818D-03  0.39628920D-02  0.23544131D-02 -0.88272842D-05
  0.20966647D-03  0.39131226D-03  0.68006627D-03  0.11021874D-02  0.17118695D-02
  0.24523025D-02  0.32380369D-02  0.35012784D-02  0.27450477D-02  0.13659266D-03
 -0.23531999D-02 -0.24359981D-02  0.11023236D-02 -0.12694240D-02 -0.94843584D-03
 -0.28255205D-03 -0.37245902D-03 -0.49061212D-03 -0.54126010D-03 -0.44957873D-03
 -0.23878219D-03 -0.61588891D-04  0.63311286D-07  0.27248872D-03  0.35892879D-03
  0.39598254D-03  0.32890902D-03  0.17469157D-03  0.45058052D-04 -0.46318145D-07
  0.13920881D-03  0.18336924D-03  0.20229923D-03  0.16803276D-03  0.89246282D-04
  0.23019219D-04 -0.23662975D-07  0.20118431D-03  0.26414025D-03  0.30074311D-03
  0.25465691D-03  0.14587728D-03  0.33182021D-04 -0.15531012D-04 -0.16834323D-03
 -0.22102231D-03 -0.25165017D-03 -0.21308702D-03 -0.12206445D-03 -0.27765428D-04
  0.12995748D-04 -0.60215758D-04 -0.79058876D-04 -0.90014347D-04 -0.76220452D-04
 -0.43662009D-04 -0.99315923D-05  0.46485318D-05 -0.17106572D-04  0.81245573D-05
  0.11284981D-05  0.30487467D-03 -0.18846229D-03 -0.10811494D-03  0.10829621D-04
 -0.65126757D-05 -0.64587194D-05  0.52739541D-04 -0.52844587D-05 -0.47455082D-04
 -0.11792247D-03 -0.63937759D-04  0.36911241D-04 -0.31758000D-04  0.48817643D-05
  0.26876236D-04  0.72320461D-04  0.41008052D-04 -0.23816502D-04 -0.16973072D-04
  0.18481303D-05  0.15124942D-04  0.40651697D-04  0.26024580D-04 -0.15001037D-04
 -0.21360626D-05  0.41281720D-05 -0.22821955D-05 -0.34536693D-05 -0.33737919D-05
  0.15912322D-04  0.98618572D-05 -0.90107240D-05 -0.90657355D-05 -0.38765475D-04
  0.26130737D-05  0.11420560D-05  0.43324883D-05  0.61129296D-05 -0.13621264D-04
 -0.15865038D-04 -0.13952151D-04  0.10195096D-04  0.28675731D-05  0.31458171D-04
  0.31175884D+00  0.58330199D+00  0.10078166D+01  0.16337883D+01  0.24810378D+01
  0.34483508D+01  0.40995917D+01  0.36516009D+01  0.18127641D+01  0.29206533D+00
  0.44839808D-02  0.80128297D-03  0.29942694D-04 -0.48210158D-03 -0.90049653D-03
 -0.15628554D-02 -0.25358792D-02 -0.39252398D-02 -0.56186242D-02 -0.73340596D-02
 -0.78156643D-02 -0.58423677D-02 -0.30840821D-03  0.39628925D-02  0.23544134D-02
 -0.88272852D-05  0.20966650D-03  0.39131230D-03  0.68006634D-03  0.11021875D-02
  0.17118697D-02  0.24523028D-02  0.32380373D-02  0.35012788D-02  0.27450480D-02
  0.13659268D-03 -0.23532002D-02 -0.24359984D-02  0.11023237D-02 -0.12694242D-02
 -0.94843590D-03 -0.28255206D-03  0.37245922D-03  0.49061239D-03  0.54126040D-03
  0.44957898D-03  0.23878231D-03  0.61588924D-04 -0.63311320D-07  0.27248886D-03
  0.35892898D-03  0.39598275D-03  0.32890919D-03  0.17469166D-03  0.45058075D-04
 -0.46318169D-07  0.13920892D-03  0.18336939D-03  0.20229939D-03  0.16803290D-03
  0.89246355D-04  0.23019238D-04 -0.23662994D-07 -0.20118447D-03 -0.26414045D-03
 -0.30074334D-03 -0.25465711D-03 -0.14587740D-03 -0.33182047D-04  0.15531024D-04
 -0.16834333D-03 -0.22102246D-03 -0.25165033D-03 -0.21308716D-03 -0.12206453D-03
 -0.27765446D-04  0.12995757D-04 -0.60215848D-04 -0.79058994D-04 -0.90014480D-04
 -0.76220565D-04 -0.43662074D-04 -0.99316071D-05  0.46485387D-05  0.17106562D-04
  0.81245511D-05  0.11284921D-05 -0.30487468D-03 -0.18846230D-03 -0.10811495D-03
 -0.10829622D-04 -0.65126762D-05 -0.64587197D-05  0.52739545D-04 -0.52844591D-05
 -0.47455086D-04  0.11792249D-03  0.63937769D-04  0.36911246D-04 -0.31758002D-04
  0.48817642D-05  0.26876237D-04 -0.72320467D-04 -0.41008055D-04 -0.23816504D-04
 -0.16973073D-04  0.18481303D-05  0.15124943D-04 -0.40651700D-04 -0.26024583D-04
 -0.15001039D-04  0.21360628D-05  0.41281709D-05 -0.22821964D-05  0.34536700D-05
 -0.33737867D-05  0.15912326D-04 -0.98618585D-05 -0.90107260D-05 -0.90657368D-05
  0.38765483D-04 -0.26130736D-05  0.11420568D-05  0.43324890D-05 -0.61129307D-05
 -0.13621267D-04 -0.15865041D-04  0.13952151D-04  0.10195097D-04  0.28675735D-05
 -0.31458176D-04
MO    2     MO 0.0        OCC NO =    2.0000000  ORB. ENERGY = -101.755866
  0.50390242D-05  0.94257901D-05  0.16277916D-04  0.26293077D-04  0.39596833D-04
  0.53851507D-04  0.61304480D-04  0.49665036D-04  0.20160019D-04  0.18383165D-05
 -0.70646911D-07  0.23623818D-07  0.13257151D-08 -0.10542528D-04 -0.19732709D-04
 -0.34128479D-04 -0.55469674D-04 -0.84868148D-04 -0.12043377D-03 -0.15107416D-03
 -0.15403319D-03 -0.94641057D-04  0.20626244D-04  0.75550879D-04  0.34554312D-04
 -0.18341618D-06  0.65362496D-05  0.12225069D-04  0.21170506D-04  0.34373435D-04
  0.52762527D-04  0.74946817D-04  0.95081924D-04  0.98435482D-04  0.63404412D-04
 -0.15594645D-04 -0.63568572D-04 -0.55442856D-04  0.28256566D-04  0.51075836D-04
 -0.38500576D-03 -0.22696427D-04  0.95833749D-09  0.12640965D-08  0.14041007D-08
  0.12017123D-08  0.68664876D-09  0.22283249D-09  0.15690279D-12  0.29473454D-02
  0.38877004D-02  0.43182802D-02  0.36958392D-02  0.21117728D-02  0.68531631D-03
  0.48255099D-06  0.22840903D-03  0.30128328D-03  0.33465172D-03  0.28641470D-03
  0.16365506D-03  0.53109634D-04  0.37396026D-07 -0.81453067D-09 -0.11138602D-08
 -0.12108782D-08 -0.11115229D-08 -0.60582512D-09 -0.25564657D-09  0.88169400D-10
 -0.25050878D-02 -0.34256754D-02 -0.37240542D-02 -0.34184870D-02 -0.18632143D-02
 -0.78624063D-03  0.27116486D-03 -0.19098310D-03 -0.26116693D-03 -0.28391476D-03
 -0.26061891D-03 -0.14204789D-03 -0.59941480D-04  0.20673090D-04 -0.38732434D-10
 -0.11911176D-03 -0.11893256D-04  0.80062934D-10  0.24629729D-03  0.94444205D-05
  0.76061467D-12  0.23458832D-05 -0.61736836D-07 -0.13347171D-04  0.89099072D-05
  0.44372639D-05 -0.72546391D-11 -0.12145903D-10 -0.37349010D-04 -0.59074104D-04
  0.54639386D-04  0.44347180D-05 -0.36966413D-10 -0.15803062D-10 -0.48595267D-04
 -0.29565651D-05  0.25865179D-05  0.37004722D-06 -0.18037235D-11 -0.16837019D-11
 -0.51833824D-05 -0.74678414D-12 -0.35041591D-05 -0.20666275D-05 -0.74619345D-12
  0.13199978D-05 -0.13002918D-04  0.29865459D-11  0.91924795D-05  0.19202801D-04
 -0.10461730D-10 -0.52952933D-13 -0.17122109D-05 -0.24512506D-05 -0.51135652D-13
  0.44899681D-05 -0.74531791D-05  0.20999445D-12  0.64666454D-06  0.14806931D-04
 -0.72322119D-11 -0.19644078D-05 -0.35428904D-05 -0.52239899D-05  0.23279555D-04
  0.12372194D-03  0.25584710D-05  0.10271887D-10  0.31614179D-04  0.55636250D-05
 -0.13990976D-10 -0.43062809D-04 -0.85082239D-05 -0.10413001D-10 -0.32043334D-04
 -0.18637570D-04 -0.10530333D-04  0.11407591D-04 -0.87725803D-06 -0.71276377D-11
  0.28571075D-10  0.87902877D-04  0.16370530D-04 -0.14298178D-04 -0.20723518D-05
  0.99685440D-11  0.16507695D-11  0.50849852D-05  0.44080703D+00  0.82475164D+00
  0.14249881D+01  0.23100719D+01  0.35080285D+01  0.48757472D+01  0.57965600D+01
  0.51631298D+01  0.25631322D+01  0.41296167D+00  0.63400616D-02  0.11329628D-02
  0.42337051D-04 -0.52933240D-03 -0.98871691D-03 -0.17159661D-02 -0.27843157D-02
 -0.43097900D-02 -0.61690729D-02 -0.80525671D-02 -0.85813539D-02 -0.64147363D-02
 -0.33862253D-03  0.43511315D-02  0.25850720D-02 -0.96920819D-05  0.21512191D-03
  0.40149404D-03  0.69776131D-03  0.11308658D-02  0.17564117D-02  0.25161104D-02
  0.33222893D-02  0.35923803D-02  0.28164727D-02  0.14014675D-03 -0.24144292D-02
 -0.24993818D-02  0.11310056D-02 -0.16569507D-02 -0.45039461D-03 -0.15372914D-03
  0.11550818D-09  0.15215020D-09  0.16785731D-09  0.13942479D-09  0.74051893D-10
  0.19100143D-10 -0.19634298D-13 -0.25490042D-02 -0.33576107D-02 -0.37042311D-02
 -0.30767897D-02 -0.16341578D-02 -0.42149696D-03  0.43328454D-06  0.11954618D-02
  0.15746915D-02  0.17372536D-02  0.14429888D-02  0.76640641D-03  0.19767857D-03
 -0.20320685D-06 -0.10498920D-09 -0.13784312D-09 -0.15694453D-09 -0.13289418D-09
 -0.76126904D-10 -0.17316230D-10  0.81049484D-11  0.19690586D-02  0.25852296D-02
  0.29434741D-02  0.24924129D-02  0.14277501D-02  0.32476361D-03 -0.15200724D-03
 -0.94710666D-03 -0.12434816D-02 -0.14157953D-02 -0.11988373D-02 -0.68674017D-03
 -0.15620956D-03  0.73114672D-04 -0.35059329D-11  0.12581030D-03 -0.63796085D-04
 -0.25069065D-10  0.17254836D-03 -0.95409118D-04 -0.52238630D-12  0.61016489D-05
 -0.26250200D-05 -0.55712164D-04  0.95632499D-04 -0.39920334D-04 -0.20301751D-10
 -0.18388944D-13 -0.10806618D-03  0.20400123D-04 -0.35332618D-04  0.14932495D-04
  0.10327714D-10 -0.27656237D-12  0.39215063D-04  0.12751023D-04 -0.14865047D-04
  0.21140238D-05  0.93656463D-11  0.52679303D-13  0.31099385D-04  0.91480339D-12
 -0.22334930D-04 -0.92247902D-05  0.39462605D-11  0.46392959D-04 -0.31900108D-04
 -0.66906706D-11  0.20611830D-04  0.59574478D-04  0.52430955D-11  0.95592536D-12
  0.13925870D-04  0.75777043D-05 -0.71855500D-11 -0.32186730D-04  0.18397625D-04
  0.43177739D-11 -0.95908781D-05 -0.41130738D-04 -0.11565363D-11 -0.30537622D+00
 -0.57136008D+00 -0.98718364D+00 -0.16003398D+01 -0.24302437D+01 -0.33777529D+01
 -0.40156610D+01 -0.35768419D+01 -0.17756514D+01 -0.28608589D+00 -0.43921805D-02
 -0.78487834D-03 -0.29329679D-04  0.39306399D-03  0.73418709D-03  0.12742173D-02
  0.20675369D-02  0.32003015D-02  0.45809409D-02  0.59795588D-02  0.63722176D-02
  0.47633620D-02  0.25144942D-03 -0.32310002D-02 -0.19195854D-02  0.71970059D-05
 -0.16310401D-03 -0.30441014D-03 -0.52903803D-03 -0.85741501D-03 -0.13316998D-02
 -0.19076983D-02 -0.25189379D-02 -0.27237190D-02 -0.21354310D-02 -0.10625834D-03
  0.18306043D-02  0.18950148D-02 -0.85752102D-03  0.11717444D-02  0.46615996D-03
  0.14903813D-03  0.13981381D-02  0.18416616D-02  0.20317842D-02  0.16876303D-02
  0.89634147D-03  0.23119261D-03 -0.23765815D-06 -0.45200305D-03 -0.59538945D-03
 -0.65685405D-03 -0.54559279D-03 -0.28977758D-03 -0.74742092D-04  0.76832329D-07
 -0.65537681D-03 -0.86327834D-03 -0.95239824D-03 -0.79107622D-03 -0.42015980D-03
 -0.10837147D-03  0.11140218D-06 -0.10806816D-02 -0.14188557D-02 -0.16154716D-02
 -0.13679150D-02 -0.78359440D-03 -0.17824054D-03  0.83426382D-04  0.30103580D-03
  0.39523794D-03  0.45000747D-03  0.38104784D-03  0.21827887D-03  0.49650871D-04
 -0.23239340D-04  0.50695966D-03  0.66560086D-03  0.75783555D-03  0.64170402D-03
  0.36759277D-03  0.83614602D-04 -0.39136235D-04 -0.57277397D-04  0.22298596D-04
  0.32880576D-04 -0.18698442D-03  0.30816425D-04  0.76033130D-04 -0.61233133D-05
  0.19196622D-05  0.29454035D-05 -0.67288741D-04  0.34928670D-04  0.32360071D-04
  0.68860703D-04  0.64263302D-04 -0.37153253D-04  0.31280892D-04 -0.16941834D-04
 -0.14339057D-04 -0.28480888D-04 -0.28070308D-04  0.15350856D-04  0.19526120D-04
 -0.14725835D-04 -0.48002845D-05 -0.94027342D-05 -0.20290746D-04  0.11878114D-04
  0.72588010D-05  0.10591533D-04  0.53564801D-05 -0.82674897D-06 -0.23285018D-04
 -0.16685268D-04 -0.20949654D-04 -0.84895811D-05  0.61582755D-06  0.57916784D-04
 -0.88519621D-05 -0.82369074D-05 -0.49998284D-05  0.12847049D-04  0.19339659D-04
  0.16139414D-04  0.13708837D-04  0.53710630D-05 -0.11399289D-05 -0.36090627D-04
 -0.30537650D+00 -0.57136060D+00 -0.98718454D+00 -0.16003413D+01 -0.24302459D+01
 -0.33777560D+01 -0.40156646D+01 -0.35768452D+01 -0.17756531D+01 -0.28608616D+00