 Molden2AIM, Version 4.0.0 (06/02/2016)           Time: Sun Jun 24 19:27:13 2018
GAUSSIAN              5 MOL ORBITALS    198 PRIMITIVES        2 NUCLEI
  B    1    (CENTRE  1)   0.00000000  0.00000000  1.84256990  CHARGE =  5.0
  B    2    (CENTRE  2)   0.00000000  0.00000000 -1.84256990  CHARGE =  5.0
CENTRE ASSIGNMENTS    1  1  1  1  1  1  1  1  1  1  1  1  1  1  1  1  1  1  1  1
CENTRE ASSIGNMENTS    1  1  1  1  1  1  1  1  1  1  1  1  1  1  1  1  1  1  1  1
CENTRE ASSIGNMENTS    1  1  1  1  1  1  1  1  1  1  1  1  1  1  1  1  1  1  1  1
CENTRE ASSIGNMENTS    1  1  1  1  1  1  1  1  1  1  1  1  1  1  1  1  1  1  1  1
CENTRE ASSIGNMENTS    1  1  1  1  1  1  1  1  1  1  1  1  1  1  1  1  1  1  1  2
CENTRE ASSIGNMENTS    2  2  2  2  2  2  2  2  2  2  2  2  2  2  2  2  2  2  2  2
CENTRE ASSIGNMENTS    2  2  2  2  2  2  2  2  2  2  2  2  2  2  2  2  2  2  2  2
CENTRE ASSIGNMENTS    2  2  2  2  2  2  2  2  2  2  2  2  2  2  2  2  2  2  2  2
CENTRE ASSIGNMENTS    2  2  2  2  2  2  2  2  2  2  2  2  2  2  2  2  2  2  2  2
CENTRE ASSIGNMENTS    2  2  2  2  2  2  2  2  2  2  2  2  2  2  2  2  2  2
TYPE ASSIGNMENTS      1  1  1  1  1  1  1  1  1  1  1  1  1  1  1  1  2  2  2  2
TYPE ASSIGNMENTS      2  3  3  3  3  3  4  4  4  4  4  2  3  4  2  3  4  2  3  4
TYPE ASSIGNMENTS      5  6  7  8  9 10  5  6  7  8  9 10  5  6  7  8  9 10  5  6
TYPE ASSIGNMENTS      7  8  9 10 11 12 13 17 14 15 18 19 16 20 11 12 13 17 14 15
TYPE ASSIGNMENTS     18 19 16 20 21 22 23 24 25 26 27 28 29 30 31 32 33 34 35  1
TYPE ASSIGNMENTS      1  1  1  1  1  1  1  1  1  1  1  1  1  1  1  2  2  2  2  2
TYPE ASSIGNMENTS      3  3  3  3  3  4  4  4  4  4  2  3  4  2  3  4  2  3  4  5
TYPE ASSIGNMENTS      6  7  8  9 10  5  6  7  8  9 10  5  6  7  8  9 10  5  6  7
TYPE ASSIGNMENTS      8  9 10 11 12 13 17 14 15 18 19 16 20 11 12 13 17 14 15 18
TYPE ASSIGNMENTS     19 16 20 21 22 23 24 25 26 27 28 29 30 31 32 33 34 35
EXPONENTS  0.4644767D+05 0.6957689D+04 0.1583443D+04 0.4484660D+03 0.1462864D+03
EXPONENTS  0.5278439D+02 0.2051940D+02 0.8418566D+01 0.3651002D+02 0.1054185D+02
EXPONENTS  0.3600409D+01 0.1561702D+01 0.4499737D+00 0.1807523D+00 0.7159670D-01
EXPONENTS  0.2994140D-01 0.7224046D+02 0.1680771D+02 0.5225941D+01 0.1850835D+01
EXPONENTS  0.7220678D+00 0.7224046D+02 0.1680771D+02 0.5225941D+01 0.1850835D+01
EXPONENTS  0.7220678D+00 0.7224046D+02 0.1680771D+02 0.5225941D+01 0.1850835D+01
EXPONENTS  0.7220678D+00 0.2949102D+00 0.2949102D+00 0.2949102D+00 0.1220114D+00
EXPONENTS  0.1220114D+00 0.1220114D+00 0.4986539D-01 0.4986539D-01 0.4986539D-01
EXPONENTS  0.1110000D+01 0.1110000D+01 0.1110000D+01 0.1110000D+01 0.1110000D+01
EXPONENTS  0.1110000D+01 0.4020000D+00 0.4020000D+00 0.4020000D+00 0.4020000D+00
EXPONENTS  0.4020000D+00 0.4020000D+00 0.1450000D+00 0.1450000D+00 0.1450000D+00
EXPONENTS  0.1450000D+00 0.1450000D+00 0.1450000D+00 0.5089659D-01 0.5089659D-01
EXPONENTS  0.5089659D-01 0.5089659D-01 0.5089659D-01 0.5089659D-01 0.8820000D+00
EXPONENTS  0.8820000D+00 0.8820000D+00 0.8820000D+00 0.8820000D+00 0.8820000D+00
EXPONENTS  0.8820000D+00 0.8820000D+00 0.8820000D+00 0.8820000D+00 0.3110000D+00
EXPONENTS  0.3110000D+00 0.3110000D+00 0.3110000D+00 0.3110000D+00 0.3110000D+00
EXPONENTS  0.3110000D+00 0.3110000D+00 0.3110000D+00 0.3110000D+00 0.6730000D+00
EXPONENTS  0.6730000D+00 0.6730000D+00 0.6730000D+00 0.6730000D+00 0.6730000D+00
EXPONENTS  0.6730000D+00 0.6730000D+00 0.6730000D+00 0.6730000D+00 0.6730000D+00
EXPONENTS  0.6730000D+00 0.6730000D+00 0.6730000D+00 0.6730000D+00 0.4644767D+05
EXPONENTS  0.6957689D+04 0.1583443D+04 0.4484660D+03 0.1462864D+03 0.5278439D+02
EXPONENTS  0.2051940D+02 0.8418566D+01 0.3651002D+02 0.1054185D+02 0.3600409D+01
EXPONENTS  0.1561702D+01 0.4499737D+00 0.1807523D+00 0.7159670D-01 0.2994140D-01
EXPONENTS  0.7224046D+02 0.1680771D+02 0.5225941D+01 0.1850835D+01 0.7220678D+00
EXPONENTS  0.7224046D+02 0.1680771D+02 0.5225941D+01 0.1850835D+01 0.7220678D+00
EXPONENTS  0.7224046D+02 0.1680771D+02 0.5225941D+01 0.1850835D+01 0.7220678D+00
EXPONENTS  0.2949102D+00 0.2949102D+00 0.2949102D+00 0.1220114D+00 0.1220114D+00
EXPONENTS  0.1220114D+00 0.4986539D-01 0.4986539D-01 0.4986539D-01 0.1110000D+01
EXPONENTS  0.1110000D+01 0.1110000D+01 0.1110000D+01 0.1110000D+01 0.1110000D+01
EXPONENTS  0.4020000D+00 0.4020000D+00 0.4020000D+00 0.4020000D+00 0.4020000D+00
EXPONENTS  0.4020000D+00 0.1450000D+00 0.1450000D+00 0.1450000D+00 0.1450000D+00
EXPONENTS  0.1450000D+00 0.1450000D+00 0.5089659D-01 0.5089659D-01 0.5089659D-01
EXPONENTS  0.5089659D-01 0.5089659D-01 0.5089659D-01 0.8820000D+00 0.8820000D+00
EXPONENTS  0.8820000D+00 0.8820000D+00 0.8820000D+00 0.8820000D+00 0.8820000D+00
EXPONENTS  0.8820000D+00 0.8820000D+00 0.8820000D+00 0.3110000D+00 0.3110000D+00
EXPONENTS  0.3110000D+00 0.3110000D+00 0.3110000D+00 0.3110000D+00 0.3110000D+00
EXPONENTS  0.3110000D+00 0.3110000D+00 0.3110000D+00 0.6730000D+00 0.6730000D+00
EXPONENTS  0.6730000D+00 0.6730000D+00 0.6730000D+00 0.6730000D+00 0.6730000D+00
EXPONENTS  0.6730000D+00 0.6730000D+00 0.6730000D+00 0.6730000D+00 0.6730000D+00
EXPONENTS  0.6730000D+00 0.6730000D+00 0.6730000D+00
MO    1     MO 0.0        OCC NO =    2.0000000  ORB. ENERGY =   -6.891327
  0.62886664D-01  0.11768822D+00  0.20334013D+00  0.33038235D+00  0.50394151D+00
  0.70586128D+00  0.85457546D+00  0.81664117D+00 -0.43460671D-02 -0.17104951D-01
  0.48892740D+00  0.13673765D+00  0.48848997D-02 -0.84274919D-03  0.17368945D-03
 -0.30646789D-04 -0.11325700D-03 -0.14541566D-03 -0.15209582D-03 -0.13994868D-03
 -0.10821952D-03 -0.15778026D-03 -0.20258104D-03 -0.21188728D-03 -0.19496489D-03
 -0.15076245D-03 -0.11493359D-02 -0.14756831D-02 -0.15434735D-02 -0.14202039D-02
 -0.10982153D-02  0.36164874D-04  0.50381899D-04  0.22227200D-03 -0.76902401D-05
 -0.10713401D-04 -0.21647562D-04  0.85854661D-06  0.11960530D-05  0.17881713D-04
  0.40873873D-04  0.35357965D-04 -0.76231838D-04 -0.16332149D-04 -0.89069534D-04
 -0.12408492D-03 -0.34621948D-04 -0.33602099D-04  0.68224047D-04  0.30200787D-05
  0.19078431D-04  0.26578538D-04  0.89703137D-05  0.89434117D-05 -0.17913725D-04
 -0.79638875D-07 -0.59687959D-06 -0.83152221D-06  0.48353488D-06  0.48618304D-06
 -0.96971791D-06  0.78409908D-08 -0.48235323D-08 -0.67188241D-08  0.26364306D-05
  0.35905302D-05 -0.13527928D-03  0.23329352D-05  0.34958476D-05  0.20348506D-03
 -0.10242227D-04 -0.14267438D-04  0.20235279D-03 -0.33606458D-05  0.24019225D-06
  0.33569892D-06  0.29517240D-04  0.24417379D-06  0.33698461D-06 -0.44248398D-04
 -0.96475053D-06 -0.13440814D-05 -0.44303323D-04 -0.16238340D-06 -0.11212401D-04
 -0.11092375D-04 -0.29745744D-04  0.36170565D-06  0.18607204D-05  0.34928327D-06
  0.25022363D-05 -0.23706389D-05 -0.33025220D-05 -0.22322905D-04  0.89597308D-04
  0.88877155D-04  0.24008574D-05  0.15297555D-05 -0.21329668D-05  0.60744200D-01
  0.11367874D+00  0.19641260D+00  0.31912667D+00  0.48677290D+00  0.68181354D+00
  0.82546123D+00  0.78881930D+00 -0.41966878D-02 -0.16517034D-01  0.47226105D+00
  0.13209201D+00  0.46846094D-02 -0.75696653D-03  0.20053751D-03 -0.30550929D-04
 -0.10940662D-03 -0.14047199D-03 -0.14692504D-03 -0.13519086D-03 -0.10454039D-03
 -0.15241644D-03 -0.19569420D-03 -0.20468407D-03 -0.18833696D-03 -0.14563721D-03
  0.11040896D-02  0.14175894D-02  0.14827111D-02  0.13642943D-02  0.10549815D-02
  0.34649765D-04  0.48271258D-04 -0.18935583D-03 -0.73993519D-05 -0.10308173D-04
  0.52569531D-04  0.73344046D-06  0.10217719D-05 -0.16914822D-04  0.44471255D-04
  0.39147989D-04 -0.83619244D-04 -0.15761779D-04  0.86557981D-04  0.12058594D-03
 -0.40477504D-04 -0.39489644D-04  0.79967148D-04  0.29253561D-05 -0.18910257D-04
 -0.26344213D-04  0.56391844D-05  0.56145231D-05 -0.11253707D-04 -0.73002326D-07
  0.54456353D-06  0.75864274D-06  0.48735653D-06  0.48981693D-06 -0.97717346D-06
  0.72849943D-08 -0.10442317D-07 -0.14547429D-07  0.25442013D-05  0.34651211D-05
  0.13320376D-03  0.22520346D-05  0.33739676D-05 -0.20035172D-03 -0.98846386D-05
 -0.13769331D-04 -0.19925956D-03  0.32415783D-05  0.28518446D-06  0.39828454D-06
 -0.26220753D-04  0.28883459D-06  0.39946607D-06  0.39302788D-04 -0.11443880D-05
 -0.15943197D-05  0.39359471D-04  0.16761089D-06 -0.10615494D-04 -0.10500392D-04
 -0.28160359D-04  0.34691657D-06 -0.15223347D-05  0.33489981D-06 -0.20340595D-05
  0.19234056D-05  0.26794959D-05 -0.21133420D-04  0.84826381D-04  0.84135775D-04
 -0.19363092D-05 -0.12032129D-05 -0.20454491D-05
MO    2     MO 0.0        OCC NO =    2.0000000  ORB. ENERGY =   -6.891194
 -0.60750845D-01 -0.11369118D+00 -0.19643409D+00 -0.31916158D+00 -0.48682614D+00
 -0.68188812D+00 -0.82555152D+00 -0.78890559D+00  0.42364217D-02  0.16673416D-01
 -0.47258945D+00 -0.13172229D+00 -0.56960677D-02  0.24607233D-02  0.77762320D-03
  0.22142772D-05  0.10938555D-03  0.14044494D-03  0.14689674D-03  0.13516483D-03
  0.10452026D-03  0.15238686D-03  0.19565623D-03  0.20464435D-03  0.18830042D-03
  0.14560895D-03  0.12855078D-02  0.16505203D-02  0.17263425D-02  0.15884680D-02
  0.12283306D-02 -0.43185422D-04 -0.60162325D-04 -0.94584567D-03  0.82808142D-05
  0.11536205D-04 -0.89267629D-03 -0.36028934D-05 -0.50192685D-05 -0.27577960D-04
  0.10442364D-03  0.10988140D-03 -0.21430505D-03  0.16160054D-04  0.70890898D-04
  0.98759920D-04 -0.16952929D-03 -0.17043370D-03  0.33996299D-03 -0.26781806D-05
 -0.44876861D-05 -0.62519687D-05 -0.95968290D-04 -0.95904122D-04  0.19187241D-03
  0.19004713D-06  0.15010117D-05  0.20910380D-05  0.11889521D-06  0.11353020D-06
 -0.23242541D-06 -0.15887513D-07  0.44151763D-06  0.61508895D-06 -0.26181652D-05
 -0.35603154D-05  0.57582828D-04 -0.22971322D-05 -0.34602958D-05 -0.86943686D-04
  0.10151628D-04  0.14141242D-04 -0.85804799D-04  0.33802804D-05  0.13065240D-05
  0.18176471D-05 -0.94600149D-04  0.12973747D-05  0.18147708D-05  0.14192614D-03
 -0.52169468D-05 -0.72677120D-05  0.14187430D-03 -0.15398665D-06  0.17024870D-04
  0.16885067D-04  0.45218963D-04 -0.41995828D-06 -0.97507864D-05 -0.40825797D-06
 -0.13492717D-04  0.12889051D-04  0.17955972D-04  0.33927078D-04 -0.13607630D-03
 -0.13523748D-03 -0.13389763D-04 -0.94147927D-05  0.24846487D-05  0.62893086D-01
  0.11770024D+00  0.20336089D+00  0.33041609D+00  0.50399296D+00  0.70593335D+00
  0.85466273D+00  0.81672456D+00 -0.43844487D-02 -0.17256011D-01  0.48924466D+00
  0.13638046D+00  0.58618788D-02 -0.24884351D-02 -0.77113943D-03 -0.32744151D-05
 -0.11325067D-03 -0.14540754D-03 -0.15208733D-03 -0.13994086D-03 -0.10821347D-03
 -0.15777165D-03 -0.20256999D-03 -0.21187572D-03 -0.19495425D-03 -0.15075423D-03
  0.13245433D-02  0.17006397D-02  0.17787643D-02  0.16367032D-02  0.12656299D-02
  0.44414867D-04  0.61875157D-04 -0.95297226D-03 -0.85427951D-05 -0.11901189D-04
 -0.89139086D-03  0.36305283D-05  0.50577685D-05 -0.28180559D-04 -0.10294406D-03
 -0.10858938D-03  0.21153344D-03 -0.16715422D-04  0.73933901D-04  0.10299917D-03
  0.16822805D-03  0.16916721D-03 -0.33739526D-03  0.27810828D-05 -0.51456961D-05
 -0.71686477D-05  0.96221404D-04  0.96156344D-04 -0.19237775D-03 -0.19268593D-06
  0.15207632D-05  0.21185534D-05 -0.10208817D-06 -0.96634718D-07  0.19872288D-06
  0.16149397D-07  0.44142616D-06  0.61496167D-06  0.27078897D-05  0.36825176D-05
  0.62233994D-04  0.23765497D-05  0.35792822D-05 -0.93939722D-04 -0.10500219D-04
 -0.14626835D-04 -0.92762261D-04  0.34947574D-05 -0.12974030D-05 -0.18049052D-05
 -0.95565748D-04 -0.12881258D-05 -0.18019875D-05  0.14337357D-03  0.51803348D-05
  0.72167032D-05  0.14332367D-03 -0.14827693D-06 -0.17402967D-04 -0.17259095D-04
 -0.46222004D-04  0.43222326D-06 -0.98092566D-05  0.42009419D-06 -0.13571108D-04
  0.12963255D-04  0.18059341D-04 -0.34679828D-04  0.13909763D-03  0.13823440D-03
 -0.13464702D-04 -0.94619963D-05 -0.25569523D-05
MO    3     MO 0.0        OCC NO =    2.0000000  ORB. ENERGY =   -0.513252
  0.12253642D-01  0.22931879D-01  0.39621392D-01  0.64375924D-01  0.98194411D-01
  0.13753904D+00  0.16651642D+00  0.15912481D+00  0.10223044D-01  0.40235150D-01
  0.15982471D+00  0.70189116D-01 -0.73301285D-01 -0.67763246D-01 -0.89261119D-02
  0.14548072D-03  0.10002219D-02  0.12842291D-02  0.13432245D-02  0.12359478D-02
  0.95573374D-03  0.13934273D-02  0.17890828D-02  0.18712704D-02  0.17218212D-02
  0.13314500D-02  0.57372132D-01  0.73662615D-01  0.77046554D-01  0.70893227D-01
  0.54820316D-01  0.46121784D-03  0.64252947D-03  0.29034346D-01  0.15583847D-03
  0.21710145D-03  0.50180506D-02  0.30453961D-08  0.41842114D-08 -0.18140977D-03
  0.38947435D-02  0.38798206D-02 -0.77745641D-02 -0.44224052D-04 -0.43076954D-03
 -0.60010828D-03  0.20979565D-02  0.21229390D-02 -0.42208956D-02  0.73990435D-04
  0.34093308D-03  0.47496087D-03  0.29307448D-03  0.28903125D-03 -0.58210573D-03
 -0.11974981D-04 -0.67916679D-04 -0.94616041D-04 -0.17485937D-04 -0.17448591D-04
  0.34934528D-04  0.11064069D-06  0.32142040D-05  0.44777729D-05  0.13995851D-03
  0.19556554D-03  0.94166312D-03  0.14212299D-03  0.19623780D-03 -0.13827658D-02
 -0.56199853D-03 -0.78293442D-03 -0.14422236D-02 -0.17607149D-03 -0.78902592D-05
 -0.11344353D-04  0.37040871D-03 -0.91866593D-05 -0.11741375D-04 -0.55765211D-03
  0.32857437D-04  0.45774433D-04 -0.55357403D-03  0.12077242D-04  0.14514354D-04
  0.59115081D-05  0.27625166D-04 -0.25919341D-04 -0.17045647D-03 -0.25037570D-04
 -0.23126771D-03  0.21967326D-03  0.30603097D-03  0.21597912D-04 -0.10868403D-03
 -0.57066960D-04 -0.22428978D-03 -0.14765038D-03  0.15287073D-03  0.12253575D-01
  0.22931754D-01  0.39621176D-01  0.64375574D-01  0.98193876D-01  0.13753829D+00
  0.16651551D+00  0.15912395D+00  0.10222993D-01  0.40234949D-01  0.15982384D+00
  0.70188696D-01 -0.73301045D-01 -0.67762718D-01 -0.89258273D-02  0.14550279D-03
  0.10002383D-02  0.12842501D-02  0.13432465D-02  0.12359680D-02  0.95574937D-03
  0.13934505D-02  0.17891126D-02  0.18713015D-02  0.17218499D-02  0.13314721D-02
 -0.57372809D-01 -0.73663484D-01 -0.77047463D-01 -0.70894063D-01 -0.54820963D-01
  0.46121785D-03  0.64252978D-03 -0.29034593D-01  0.15583428D-03  0.21709554D-03
 -0.50180895D-02  0.82898933D-08  0.11572145D-07  0.18141489D-03  0.38947549D-02
  0.38798311D-02 -0.77745860D-02 -0.44226359D-04  0.43078663D-03  0.60013233D-03
  0.20979632D-02  0.21229461D-02 -0.42209092D-02  0.73991910D-04 -0.34093754D-03
 -0.47496720D-03  0.29307297D-03  0.28903012D-03 -0.58210309D-03 -0.11973829D-04
  0.67914371D-04  0.94612772D-04 -0.17486047D-04 -0.17448714D-04  0.34934761D-04
  0.11059939D-06 -0.32134343D-05 -0.44766870D-05  0.13995815D-03  0.19556404D-03
 -0.94166625D-03  0.14211932D-03  0.19623535D-03  0.13827705D-02 -0.56199378D-03
 -0.78292747D-03  0.14422283D-02  0.17607206D-03 -0.78889782D-05 -0.11342729D-04
 -0.37040680D-03 -0.91859689D-05 -0.11739942D-04  0.55764836D-03  0.32852904D-04
  0.45768128D-04  0.55357203D-03 -0.12071983D-04  0.14514731D-04  0.59121077D-05
  0.27626646D-04 -0.25918908D-04  0.17045214D-03 -0.25036733D-04  0.23126118D-03
 -0.21966697D-03 -0.30602210D-03  0.21599421D-04 -0.10868781D-03 -0.57072067D-04
  0.22428277D-03  0.14764451D-03  0.15286692D-03
MO    4     MO 0.0        OCC NO =    2.0000000  ORB. ENERGY =   -0.317785
 -0.12889193D-01 -0.24121271D-01 -0.41676407D-01 -0.67714866D-01 -0.10328739D+00
 -0.14467268D+00 -0.17515301D+00 -0.16737803D+00 -0.10837054D-01 -0.42651728D-01
 -0.17283335D+00 -0.73318227D-01  0.78983519D-01  0.87633581D-01  0.26060527D-01
  0.14339052D-02 -0.17658109D-03 -0.22672027D-03 -0.23713542D-03 -0.21819659D-03
 -0.16872706D-03 -0.24599967D-03 -0.31584985D-03 -0.33035947D-03 -0.30397529D-03
 -0.23505802D-03  0.46739908D-01  0.60011433D-01  0.62768259D-01  0.57755268D-01
  0.44660995D-01 -0.41941006D-03 -0.58428712D-03  0.17906286D-01 -0.18958382D-04
 -0.26410870D-04  0.38347546D-02  0.32728672D-04  0.45595106D-04  0.28563464D-05
  0.26542640D-02  0.26450743D-02 -0.52993383D-02 -0.27209868D-04 -0.24067975D-03
 -0.33529435D-03  0.17766001D-02  0.17463997D-02 -0.35229998D-02 -0.89442400D-04
 -0.59283436D-03 -0.82588800D-03  0.10321100D-03  0.10116084D-03 -0.20437184D-03
 -0.60721164D-05 -0.87801317D-04 -0.12231772D-03  0.43045782D-05  0.37249745D-05
 -0.80295526D-05 -0.17165535D-05 -0.98135352D-05 -0.13671443D-04  0.43539545D-04
  0.60417836D-04  0.17417369D-03  0.42656111D-04  0.60136097D-04 -0.26112602D-03
 -0.17327475D-03 -0.24138961D-03 -0.26139506D-03 -0.81763574D-06  0.28829248D-04
  0.39393971D-04 -0.35222593D-03  0.26001718D-04  0.38529178D-04  0.53752870D-03
 -0.11248946D-03 -0.15671109D-03  0.51914908D-03 -0.54432172D-04  0.17507807D-04
  0.19030606D-04  0.48452072D-04  0.48092956D-05  0.39317042D-04  0.42101370D-05
  0.52333026D-04 -0.49430308D-04 -0.68862687D-04  0.35740976D-04 -0.14078782D-03
 -0.14992461D-03  0.49588984D-04  0.30339799D-04 -0.27058298D-04  0.12889253D-01
  0.24121382D-01  0.41676599D-01  0.67715178D-01  0.10328787D+00  0.14467335D+00
  0.17515382D+00  0.16737880D+00  0.10837111D-01  0.42651955D-01  0.17283413D+00
  0.73318547D-01 -0.78984102D-01 -0.87633787D-01 -0.26060304D-01 -0.14338475D-02
  0.17695778D-03  0.22720392D-03  0.23764129D-03  0.21866205D-03  0.16908700D-03
  0.24652416D-03  0.31652326D-03  0.33106381D-03  0.30462338D-03  0.23555918D-03
  0.46737703D-01  0.60008602D-01  0.62765298D-01  0.57752544D-01  0.44658888D-01
  0.41959670D-03  0.58454713D-03  0.17905276D-01  0.19014965D-04  0.26489488D-04
  0.38344442D-02 -0.32720139D-04 -0.45583227D-04  0.28224529D-05 -0.26541615D-02
 -0.26449725D-02  0.52991340D-02  0.27208022D-04 -0.24066105D-03 -0.33526888D-03
 -0.17765329D-02 -0.17463328D-02  0.35228657D-02  0.89441220D-04 -0.59280932D-03
 -0.82585371D-03 -0.10319953D-03 -0.10114934D-03  0.20434886D-03  0.60721799D-05
 -0.87797208D-04 -0.12231218D-03 -0.43048981D-05 -0.37253190D-05  0.80302171D-05
  0.17164803D-05 -0.98132538D-05 -0.13671053D-04 -0.43536899D-04 -0.60415565D-04
  0.17417834D-03 -0.42658518D-04 -0.60135274D-04 -0.26113369D-03  0.17326922D-03
  0.24138197D-03 -0.26140132D-03 -0.81339908D-06 -0.28828004D-04 -0.39392705D-04
 -0.35223009D-03 -0.26002225D-04 -0.38528431D-04  0.53753414D-03  0.11248624D-03
  0.15670655D-03  0.51915613D-03 -0.54427294D-04 -0.17508885D-04 -0.19031432D-04
 -0.48454628D-04 -0.48085047D-05  0.39314068D-04 -0.42093930D-05  0.52327976D-04
 -0.49425275D-04 -0.68855623D-04 -0.35742930D-04  0.14079624D-03  0.14993152D-03
  0.49582941D-04  0.30333620D-04  0.27053693D-04
MO    5     MO 0.0        OCC NO =    2.0000000  ORB. ENERGY =   -0.203860
 -0.38436205D-02 -0.71930810D-02 -0.12428109D-01 -0.20192904D-01 -0.30800806D-01
 -0.43142103D-01 -0.52231484D-01 -0.49912948D-01 -0.30843432D-02 -0.12139145D-01
 -0.53416444D-01 -0.20381759D-01  0.22481739D-01  0.30502112D-01  0.15920732D-01
  0.22755297D-02  0.16172199D-01  0.20764201D-01  0.21718074D-01  0.19983559D-01
  0.15452887D-01  0.22529788D-01  0.28926990D-01  0.30255848D-01  0.27839463D-01
  0.21527700D-01  0.15050490D+00  0.19323989D+00  0.20211701D+00  0.18597492D+00
  0.14381069D+00  0.78430987D-02  0.10926367D-01  0.70550421D-01  0.26368664D-02
  0.36734676D-02  0.21063685D-01  0.35337327D-03  0.49229109D-03  0.24538402D-02
  0.47291115D-02  0.46661672D-02 -0.93952788D-02 -0.18645307D-03 -0.20356574D-02
 -0.28359004D-02  0.35481756D-02  0.35141862D-02 -0.70623618D-02 -0.10066331D-03
 -0.20708276D-02 -0.28849076D-02  0.66313075D-03  0.64897693D-03 -0.13121077D-02
 -0.41918879D-04 -0.47266693D-03 -0.65848072D-03  0.20460894D-04  0.19779139D-04
 -0.40240033D-04 -0.20191481D-05 -0.23074284D-04 -0.32145245D-04  0.17553449D-03
  0.23677625D-03 -0.10598605D-03  0.14695891D-03  0.22802365D-03  0.23551568D-03
 -0.67356237D-03 -0.93835241D-03  0.82442471D-04 -0.45334537D-03  0.13546904D-04
  0.16732340D-04 -0.47715280D-04  0.56726020D-05  0.14323106D-04  0.88486098D-04
 -0.46313313D-04 -0.64520127D-04  0.54659742D-04 -0.10018102D-03 -0.69097836D-04
 -0.73256971D-04 -0.18985756D-03 -0.12259209D-04  0.23430592D-04 -0.12377898D-04
  0.33976992D-04 -0.32880077D-04 -0.45806010D-04 -0.14250827D-03  0.55709528D-03
  0.58205009D-03  0.35487054D-04  0.28348456D-04  0.73911321D-04 -0.38437736D-02
 -0.71933674D-02 -0.12428603D-01 -0.20193708D-01 -0.30802032D-01 -0.43143820D-01
 -0.52233564D-01 -0.49914935D-01 -0.30844736D-02 -0.12139659D-01 -0.53418491D-01
 -0.20382617D-01  0.22482693D-01  0.30503123D-01  0.15920913D-01  0.22755290D-02
  0.16172283D-01  0.20764308D-01  0.21718186D-01  0.19983662D-01  0.15452967D-01
  0.22529902D-01  0.28927136D-01  0.30256001D-01  0.27839603D-01  0.21527809D-01
 -0.15050647D+00 -0.19324191D+00 -0.20211913D+00 -0.18597687D+00 -0.14381220D+00
  0.78431207D-02  0.10926395D-01 -0.70551070D-01  0.26368660D-02  0.36734665D-02
 -0.21063838D-01  0.35336190D-03  0.49227505D-03 -0.24538497D-02  0.47290927D-02
  0.46661429D-02 -0.93952356D-02 -0.18646824D-03  0.20356824D-02  0.28359363D-02
  0.35481599D-02  0.35141716D-02 -0.70623316D-02 -0.10065945D-03  0.20708260D-02
  0.28849057D-02  0.66312439D-03  0.64897007D-03 -0.13120945D-02 -0.41920206D-04
  0.47266471D-03  0.65847771D-03  0.20460597D-04  0.19778721D-04 -0.40239318D-04
 -0.20194850D-05  0.23073205D-04  0.32143728D-04  0.17553665D-03  0.23677727D-03
  0.10596988D-03  0.14695410D-03  0.22802257D-03 -0.23549568D-03 -0.67356404D-03
 -0.93835439D-03 -0.82413973D-04  0.45337032D-03  0.13547889D-04  0.16732665D-04
  0.47720880D-04  0.56697572D-05  0.14322243D-04 -0.88495344D-04 -0.46313423D-04
 -0.64520237D-04 -0.54667295D-04  0.10018579D-03 -0.69096592D-04 -0.73256005D-04
 -0.18985438D-03 -0.12260351D-04 -0.23430705D-04 -0.12378482D-04 -0.33978850D-04
  0.32882301D-04  0.45809106D-04 -0.14250535D-03  0.55708491D-03  0.58204138D-03
 -0.35490767D-04 -0.28354788D-04  0.73916501D-04
END DATA
RHF
