 Molden2AIM, Version 4.0.0 (06/02/2016)           Time: Wed Jun 27 19:46:51 2018
GAUSSIAN              5 MOL ORBITALS    150 PRIMITIVES        2 NUCLEI
  B    1    (CENTRE  1)   0.00000000  0.00000000  1.84256990  CHARGE =  5.0
  B    2    (CENTRE  2)   0.00000000  0.00000000 -1.84256990  CHARGE =  5.0
CENTRE ASSIGNMENTS    1  1  1  1  1  1  1  1  1  1  1  1  1  1  1  1  1  1  1  1
CENTRE ASSIGNMENTS    1  1  1  1  1  1  1  1  1  1  1  1  1  1  1  1  1  1  1  1
CENTRE ASSIGNMENTS    1  1  1  1  1  1  1  1  1  1  1  1  1  1  1  1  1  1  1  1
CENTRE ASSIGNMENTS    1  1  1  1  1  1  1  1  1  1  1  1  1  1  1  2  2  2  2  2
CENTRE ASSIGNMENTS    2  2  2  2  2  2  2  2  2  2  2  2  2  2  2  2  2  2  2  2
CENTRE ASSIGNMENTS    2  2  2  2  2  2  2  2  2  2  2  2  2  2  2  2  2  2  2  2
CENTRE ASSIGNMENTS    2  2  2  2  2  2  2  2  2  2  2  2  2  2  2  2  2  2  2  2
CENTRE ASSIGNMENTS    2  2  2  2  2  2  2  2  2  2
TYPE ASSIGNMENTS      1  1  1  1  1  1  1  1  1  1  1  1  1  1  1  1  1  1  1  2
TYPE ASSIGNMENTS      2  2  3  3  3  4  4  4  2  3  4  2  3  4  2  3  4  5  6  7
TYPE ASSIGNMENTS      8  9 10  5  6  7  8  9 10  5  6  7  8  9 10 11 12 13 17 14
TYPE ASSIGNMENTS     15 18 19 16 20 11 12 13 17 14 15 18 19 16 20  1  1  1  1  1
TYPE ASSIGNMENTS      1  1  1  1  1  1  1  1  1  1  1  1  1  1  2  2  2  3  3  3
TYPE ASSIGNMENTS      4  4  4  2  3  4  2  3  4  2  3  4  5  6  7  8  9 10  5  6
TYPE ASSIGNMENTS      7  8  9 10  5  6  7  8  9 10 11 12 13 17 14 15 18 19 16 20
TYPE ASSIGNMENTS     11 12 13 17 14 15 18 19 16 20
EXPONENTS  0.5473000D+04 0.8209000D+03 0.1868000D+03 0.5283000D+02 0.1708000D+02
EXPONENTS  0.5999000D+01 0.2208000D+01 0.2415000D+00 0.5473000D+04 0.8209000D+03
EXPONENTS  0.1868000D+03 0.5283000D+02 0.1708000D+02 0.5999000D+01 0.2208000D+01
EXPONENTS  0.2415000D+00 0.5879000D+00 0.8610000D-01 0.2914000D-01 0.1205000D+02
EXPONENTS  0.2613000D+01 0.7475000D+00 0.1205000D+02 0.2613000D+01 0.7475000D+00
EXPONENTS  0.1205000D+02 0.2613000D+01 0.7475000D+00 0.2385000D+00 0.2385000D+00
EXPONENTS  0.2385000D+00 0.7698000D-01 0.7698000D-01 0.7698000D-01 0.2096000D-01
EXPONENTS  0.2096000D-01 0.2096000D-01 0.6610000D+00 0.6610000D+00 0.6610000D+00
EXPONENTS  0.6610000D+00 0.6610000D+00 0.6610000D+00 0.1990000D+00 0.1990000D+00
EXPONENTS  0.1990000D+00 0.1990000D+00 0.1990000D+00 0.1990000D+00 0.6040000D-01
EXPONENTS  0.6040000D-01 0.6040000D-01 0.6040000D-01 0.6040000D-01 0.6040000D-01
EXPONENTS  0.4900000D+00 0.4900000D+00 0.4900000D+00 0.4900000D+00 0.4900000D+00
EXPONENTS  0.4900000D+00 0.4900000D+00 0.4900000D+00 0.4900000D+00 0.4900000D+00
EXPONENTS  0.1630000D+00 0.1630000D+00 0.1630000D+00 0.1630000D+00 0.1630000D+00
EXPONENTS  0.1630000D+00 0.1630000D+00 0.1630000D+00 0.1630000D+00 0.1630000D+00
EXPONENTS  0.5473000D+04 0.8209000D+03 0.1868000D+03 0.5283000D+02 0.1708000D+02
EXPONENTS  0.5999000D+01 0.2208000D+01 0.2415000D+00 0.5473000D+04 0.8209000D+03
EXPONENTS  0.1868000D+03 0.5283000D+02 0.1708000D+02 0.5999000D+01 0.2208000D+01
EXPONENTS  0.2415000D+00 0.5879000D+00 0.8610000D-01 0.2914000D-01 0.1205000D+02
EXPONENTS  0.2613000D+01 0.7475000D+00 0.1205000D+02 0.2613000D+01 0.7475000D+00
EXPONENTS  0.1205000D+02 0.2613000D+01 0.7475000D+00 0.2385000D+00 0.2385000D+00
EXPONENTS  0.2385000D+00 0.7698000D-01 0.7698000D-01 0.7698000D-01 0.2096000D-01
EXPONENTS  0.2096000D-01 0.2096000D-01 0.6610000D+00 0.6610000D+00 0.6610000D+00
EXPONENTS  0.6610000D+00 0.6610000D+00 0.6610000D+00 0.1990000D+00 0.1990000D+00
EXPONENTS  0.1990000D+00 0.1990000D+00 0.1990000D+00 0.1990000D+00 0.6040000D-01
EXPONENTS  0.6040000D-01 0.6040000D-01 0.6040000D-01 0.6040000D-01 0.6040000D-01
EXPONENTS  0.4900000D+00 0.4900000D+00 0.4900000D+00 0.4900000D+00 0.4900000D+00
EXPONENTS  0.4900000D+00 0.4900000D+00 0.4900000D+00 0.4900000D+00 0.4900000D+00
EXPONENTS  0.1630000D+00 0.1630000D+00 0.1630000D+00 0.1630000D+00 0.1630000D+00
EXPONENTS  0.1630000D+00 0.1630000D+00 0.1630000D+00 0.1630000D+00 0.1630000D+00
MO    1     MO 0.0        OCC NO =    2.0000000  ORB. ENERGY =   -6.891978
  0.17924832D+00  0.33401751D+00  0.56291190D+00  0.83985993D+00  0.10173048D+01
  0.84647340D+00  0.31438462D+00 -0.16690019D-02 -0.20621452D-03 -0.38518516D-03
 -0.65558709D-03 -0.10026481D-02 -0.13040033D-02 -0.13199470D-02 -0.86911815D-03
  0.59409021D-03  0.16772000D-01  0.28467728D-03 -0.79568657D-04 -0.29719620D-03
 -0.26784967D-03 -0.19447623D-03 -0.16545952D-04 -0.14912128D-04 -0.10827172D-04
 -0.22569291D-02 -0.20340695D-02 -0.14768664D-02  0.31923067D-04  0.17772547D-05
 -0.26542975D-03 -0.34328535D-05 -0.19113178D-06  0.27719055D-03  0.17267279D-06
  0.96134688D-08  0.11540824D-04 -0.33287244D-03 -0.33096966D-03  0.66384210D-03
 -0.21243825D-06 -0.10633073D-04 -0.59221962D-06  0.11494591D-03  0.11441881D-03
 -0.22936471D-03  0.58867444D-07  0.55408338D-05  0.30858923D-06  0.14457829D-04
  0.14467457D-04 -0.28925286D-04 -0.10755748D-08 -0.73317472D-07 -0.40842647D-08
  0.11347317D-05  0.66348774D-07  0.72655336D-04  0.11904591D-05  0.56884578D-07
 -0.10949400D-03 -0.45946542D-05 -0.25593090D-06 -0.10847200D-03 -0.11425500D-06
  0.27008600D-06  0.15000277D-07  0.42835481D-04  0.26939082D-06  0.15119641D-07
 -0.64254058D-04 -0.10796488D-05 -0.60120474D-07 -0.64252384D-04 -0.18383366D-09
  0.17524435D+00  0.32655637D+00  0.55033780D+00  0.82109949D+00  0.99458068D+00
  0.82756523D+00  0.30736203D+00 -0.16317204D-02 -0.20832431D-03 -0.38912600D-03
 -0.66229441D-03 -0.10129062D-02 -0.13173446D-02 -0.13334514D-02 -0.87801012D-03
  0.60016837D-03  0.16401207D-01  0.30100972D-03 -0.72617624D-04 -0.29035088D-03
 -0.26168029D-03 -0.18999686D-03 -0.16165895D-04 -0.14569599D-04 -0.10578474D-04
  0.22226609D-02  0.20031850D-02  0.14544422D-02  0.30744299D-04  0.17118454D-05
  0.27131141D-03 -0.33810196D-05 -0.18824301D-06 -0.27050056D-03  0.17087165D-06
  0.95138712D-08 -0.11272337D-04 -0.33132730D-03 -0.32948335D-03  0.66081065D-03
 -0.20587438D-06  0.10535475D-04  0.58673130D-06  0.11440570D-03  0.11389102D-03
 -0.22829672D-03  0.57479989D-07 -0.58919205D-05 -0.32805696D-06  0.14313266D-04
  0.14322556D-04 -0.28635822D-04 -0.10376705D-08  0.78867191D-07  0.43931646D-08
  0.11918231D-05  0.69434981D-07 -0.74873749D-04  0.12461373D-05  0.60205868D-07
  0.11281359D-03 -0.48216065D-05 -0.26851081D-06  0.11180765D-03  0.11247260D-06
  0.28706720D-06  0.15943170D-07 -0.42914270D-04  0.28639197D-06  0.16059029D-07
  0.64371417D-04 -0.11475936D-05 -0.63888539D-07  0.64371393D-04 -0.34772230D-13
MO    2     MO 0.0        OCC NO =    2.0000000  ORB. ENERGY =   -6.891830
  0.17483934D+00  0.32580166D+00  0.54906591D+00  0.81920184D+00  0.99228210D+00
  0.82565264D+00  0.30665168D+00 -0.16279493D-02  0.95540425D-04  0.17845860D-03
  0.30373743D-03  0.46453289D-03  0.60415258D-03  0.61153936D-03  0.40266766D-03
 -0.27524556D-03  0.16189239D-01 -0.72470822D-03 -0.30616905D-03 -0.29828506D-03
 -0.26883101D-03 -0.19518874D-03 -0.16606450D-04 -0.14966652D-04 -0.10866760D-04
 -0.14880451D-02 -0.13411086D-02 -0.97373184D-03  0.51567367D-04  0.28709734D-05
  0.26292854D-03 -0.22530624D-05 -0.12549183D-06  0.29239828D-03  0.78056689D-07
  0.43448494D-08  0.11730087D-04 -0.64490770D-04 -0.61908344D-04  0.12639911D-03
 -0.28834702D-06 -0.42116000D-05 -0.23478500D-06  0.22582855D-04  0.22036796D-04
 -0.44619650D-04  0.60985642D-07 -0.15495396D-04 -0.86259759D-06  0.62225085D-05
  0.62374312D-05 -0.12459940D-04 -0.16673840D-08  0.24687494D-06  0.13752444D-07
 -0.25147616D-05 -0.13668302D-06 -0.98798784D-04 -0.24559005D-05 -0.14667942D-06
  0.14784352D-03  0.10000185D-04  0.55672848D-06  0.14855283D-03 -0.79352309D-07
 -0.74952944D-06 -0.41801966D-07 -0.39624185D-05 -0.75084113D-06 -0.41577609D-07
  0.59071629D-05  0.29994295D-05  0.16698351D-06  0.59800927D-05 -0.81387665D-08
 -0.17885238D+00 -0.33327970D+00 -0.56166848D+00 -0.83800476D+00 -0.10150577D+01
 -0.84460362D+00 -0.31369018D+00  0.16653152D-02 -0.90847416D-04 -0.16969259D-03
 -0.28881765D-03 -0.44171472D-03 -0.57447620D-03 -0.58150014D-03 -0.38288836D-03
  0.26172532D-03 -0.16564776D-01  0.71807757D-03  0.30789185D-03  0.30492190D-03
  0.27481250D-03  0.19953170D-03  0.16976938D-04  0.15300556D-04  0.11109196D-04
 -0.15387576D-02 -0.13868135D-02 -0.10069166D-02 -0.52275036D-04 -0.29105052D-05
  0.25685135D-03  0.23300439D-05  0.12979128D-06  0.29859791D-03 -0.81936037D-07
 -0.45615438D-08  0.11988322D-04  0.72010071D-04  0.69385364D-04 -0.14139544D-03
  0.29306015D-06 -0.44504042D-05 -0.24814998D-06 -0.25179189D-04 -0.24621311D-04
  0.49800500D-04 -0.62306105D-07 -0.15365885D-04 -0.85537028D-06 -0.65481868D-05
 -0.65633234D-05  0.13111510D-04  0.16912672D-08  0.24515116D-06  0.13656302D-07
  0.24883240D-05  0.13514040D-06 -0.97128624D-04  0.24282213D-05  0.14535144D-06
  0.14532685D-03 -0.98931933D-05 -0.55077263D-06  0.14605902D-03 -0.81916792D-07
  0.74323232D-06  0.41451190D-07 -0.29917410D-05  0.74456148D-06  0.41223823D-07
  0.44511359D-05 -0.29742584D-05 -0.16557739D-06  0.45240871D-05 -0.81409989D-08
MO    3     MO 0.0        OCC NO =    2.0000000  ORB. ENERGY =   -0.513690
  0.46483248D-02  0.86618488D-02  0.14597611D-01  0.21779516D-01  0.26381073D-01
  0.21951018D-01  0.81527224D-02 -0.43281089D-04  0.30838505D-01  0.57602805D-01
  0.98040264D-01  0.14994176D+00  0.19500816D+00  0.19739246D+00  0.12997293D+00
 -0.88843668D-01 -0.35067419D-01 -0.17611483D-01 -0.10525882D-03  0.32791687D-02
  0.29553684D-02  0.21457891D-02  0.18257700D-03  0.16454850D-03  0.11947288D-03
  0.10952879D+00  0.98713409D-01  0.71672336D-01  0.82351011D-03  0.45846546D-04
  0.26011079D-01  0.78102123D-04  0.43486869D-05  0.21512259D-02 -0.17152465D-05
 -0.95502501D-07  0.25793458D-04  0.36232432D-02  0.35226087D-02 -0.71458519D-02
  0.11240572D-04  0.71520298D-03  0.39836400D-04  0.97374240D-03  0.97371490D-03
 -0.19474573D-02  0.32871453D-08 -0.54125487D-04 -0.30120519D-05  0.62545864D-04
  0.63598899D-04 -0.12614476D-03 -0.11759557D-06 -0.13555296D-04 -0.75479508D-06
  0.99821169D-04  0.56615823D-05  0.87915026D-03  0.10164529D-03  0.53553790D-05
 -0.13600571D-02 -0.40110880D-03 -0.22340126D-04 -0.12773937D-02 -0.92334691D-05
 -0.12548962D-04 -0.69535619D-06  0.15484111D-03 -0.12486847D-04 -0.70573953D-06
 -0.22754414D-03  0.50133734D-04  0.27918081D-05 -0.23697920D-03  0.10539389D-05
  0.46483280D-02  0.86618549D-02  0.14597621D-01  0.21779531D-01  0.26381092D-01
  0.21951034D-01  0.81527281D-02 -0.43281119D-04  0.30838319D-01  0.57602456D-01
  0.98039670D-01  0.14994086D+00  0.19500698D+00  0.19739127D+00  0.12997214D+00
 -0.88843129D-01 -0.35067271D-01 -0.17611031D-01 -0.10521154D-03  0.32793868D-02
  0.29555649D-02  0.21459318D-02  0.18259715D-03  0.16456667D-03  0.11948607D-03
 -0.10952951D+00 -0.98714062D-01 -0.71672810D-01  0.82366868D-03  0.45860021D-04
 -0.26011139D-01  0.78127753D-04  0.43507087D-05 -0.21511918D-02 -0.17158658D-05
 -0.95554082D-07 -0.25792152D-04  0.36232731D-02  0.35226167D-02 -0.71458899D-02
  0.11243162D-04 -0.71517698D-03 -0.39834249D-04  0.97372639D-03  0.97370975D-03
 -0.19474361D-02  0.18623431D-08  0.54192956D-04  0.30173073D-05  0.62543787D-04
  0.63597588D-04 -0.12614137D-03 -0.11771556D-06  0.13559844D-04  0.75515994D-06
  0.99818556D-04  0.56610443D-05 -0.87914545D-03  0.10163707D-03  0.53560434D-05
  0.13600472D-02 -0.40109274D-03 -0.22339176D-04  0.12773892D-02  0.92324888D-05
 -0.12551015D-04 -0.69551368D-06 -0.15483919D-03 -0.12488917D-04 -0.70590195D-06
  0.22753922D-03  0.50141963D-04  0.27924430D-05  0.23697836D-03 -0.10544764D-05
MO    4     MO 0.0        OCC NO =    2.0000000  ORB. ENERGY =   -0.318024
 -0.18891942D-02 -0.35203897D-02 -0.59328303D-02 -0.88517341D-02 -0.10721921D-01
 -0.89214370D-02 -0.33134681D-02  0.17590505D-04 -0.35005023D-01 -0.65385383D-01
 -0.11128625D+00 -0.17020004D+00 -0.22135525D+00 -0.22406169D+00 -0.14753326D+00
  0.10084713D+00  0.42576985D-01  0.53593130D-01  0.38545366D-02 -0.73970539D-03
 -0.66666345D-03 -0.48404090D-03 -0.41139150D-04 -0.37076880D-04 -0.26920219D-04
  0.87732877D-01  0.79069727D-01  0.57409749D-01 -0.66933626D-03 -0.37254764D-04
  0.18165345D-01  0.11784386D-04  0.65819267D-06 -0.22036811D-02  0.33578935D-05
  0.18694895D-06 -0.85165959D-04  0.32794750D-02  0.34290863D-02 -0.67085613D-02
 -0.16712590D-04 -0.14885322D-02 -0.82887196D-04  0.40866999D-03  0.42844449D-03
 -0.83711448D-03 -0.22092162D-05 -0.33789352D-03 -0.18815900D-04 -0.81209149D-04
 -0.80324141D-04  0.16153329D-03 -0.98879154D-07 -0.14376688D-04 -0.80070558D-06
  0.10645849D-03  0.61264780D-05 -0.61664465D-03  0.10999090D-03  0.55303876D-05
  0.88871120D-03 -0.42936638D-03 -0.23909822D-04  0.96122275D-03 -0.81009039D-05
  0.82742194D-05  0.50839456D-06 -0.54844124D-05  0.91245966D-05  0.36512376D-06
  0.13551619D-05 -0.33947255D-04 -0.18903074D-05  0.15098075D-04 -0.15351795D-05
  0.18891900D-02  0.35203818D-02  0.59328170D-02  0.88517142D-02  0.10721897D-01
  0.89214170D-02  0.33134607D-02 -0.17590466D-04  0.35005141D-01  0.65385604D-01
  0.11128663D+00  0.17020062D+00  0.22135600D+00  0.22406245D+00  0.14753376D+00
 -0.10084747D+00 -0.42577187D-01 -0.53592954D-01 -0.38544889D-02  0.74175299D-03
  0.66850886D-03  0.48538078D-03  0.41271520D-04  0.37196179D-04  0.27006838D-04
  0.87729448D-01  0.79066636D-01  0.57407505D-01  0.66994621D-03  0.37295551D-04
  0.18164522D-01 -0.11696531D-04 -0.65275482D-06 -0.22038146D-02 -0.33572301D-05
 -0.18692418D-06 -0.85168238D-04 -0.32793612D-02 -0.34289882D-02  0.67083494D-02
  0.16715079D-04 -0.14883941D-02 -0.82881002D-04 -0.40866233D-03 -0.42842916D-03
  0.83709148D-03  0.22082725D-05 -0.33780977D-03 -0.18810934D-04  0.81208490D-04
  0.80324200D-04 -0.16153269D-03  0.98774927D-07 -0.14369648D-04 -0.80022923D-06
 -0.10646747D-03 -0.61272371D-05 -0.61663497D-03 -0.11000041D-03 -0.55308082D-05
  0.88869270D-03  0.42940283D-03  0.23912519D-04  0.96121220D-03 -0.81025003D-05
 -0.82766848D-05 -0.50858469D-06 -0.54824173D-05 -0.91272988D-05 -0.36526774D-06
  0.13504893D-05  0.33957353D-04  0.18910218D-05  0.15096763D-04 -0.15355871D-05
MO    5     MO 0.0        OCC NO =    2.0000000  ORB. ENERGY =   -0.203908
 -0.78145777D-03 -0.14561954D-02 -0.24540920D-02 -0.36614851D-02 -0.44350805D-02
 -0.36903174D-02 -0.13706031D-02  0.72762436D-05 -0.10289346D-01 -0.19219323D-01
 -0.32711385D-01 -0.50028454D-01 -0.65064972D-01 -0.65860501D-01 -0.43365800D-01
  0.29642917D-01  0.13174392D-01  0.24810295D-01  0.24923538D-02  0.53186310D-01
  0.47934447D-01  0.34803517D-01  0.29618475D-02  0.26693810D-02  0.19381437D-02
  0.28419070D+00  0.25612839D+00  0.18596582D+00  0.14344815D-01  0.79883828D-03
  0.71914830D-01  0.23897445D-02  0.13308030D-03  0.10324402D-01  0.33515445D-04
  0.18662626D-05  0.18263394D-03  0.64144281D-02  0.66041066D-02 -0.13018535D-01
 -0.21187413D-04 -0.52389085D-02 -0.29172721D-03  0.11735892D-02  0.12521670D-02
 -0.24257562D-02 -0.87778633D-05 -0.17645676D-02 -0.98261237D-04  0.80012392D-04
  0.85611073D-04 -0.16562347D-03 -0.62551057D-06 -0.86425388D-04 -0.48126842D-05
  0.10077014D-03  0.68368408D-05  0.17816814D-03  0.12263119D-03  0.31549437D-05
 -0.43530333D-03 -0.42494159D-03 -0.23665466D-04 -0.99201097D-04 -0.37546317D-04
  0.42142261D-05  0.30610603D-06 -0.81566380D-04  0.54887910D-05  0.91319445D-07
  0.11705886D-03 -0.18131469D-04 -0.10096375D-05  0.12764027D-03 -0.11818587D-05
 -0.78147292D-03 -0.14562236D-02 -0.24541396D-02 -0.36615561D-02 -0.44351665D-02
 -0.36903890D-02 -0.13706297D-02  0.72763846D-05 -0.10289762D-01 -0.19220099D-01
 -0.32712705D-01 -0.50030473D-01 -0.65067598D-01 -0.65863159D-01 -0.43367550D-01
  0.29644114D-01  0.13174927D-01  0.24810688D-01  0.24923038D-02  0.53189545D-01
  0.47937362D-01  0.34805634D-01  0.29620600D-02  0.26695725D-02  0.19382827D-02
 -0.28419206D+00 -0.25612962D+00 -0.18596672D+00  0.14345662D-01  0.79889302D-03
 -0.71915198D-01  0.23899616D-02  0.13309493D-03 -0.10324429D-01  0.33527123D-04
  0.18671608D-05 -0.18263589D-03  0.64144152D-02  0.66041098D-02 -0.13018525D-01
 -0.21191624D-04  0.52389461D-02  0.29173556D-03  0.11735971D-02  0.12521728D-02
 -0.24257699D-02 -0.87785357D-05  0.17645829D-02  0.98263235D-04  0.80014357D-04
  0.85611725D-04 -0.16562608D-03 -0.62530510D-06  0.86427086D-04  0.48128257D-05
  0.10079147D-03  0.68381399D-05 -0.17820099D-03  0.12264349D-03  0.31579390D-05
  0.43537143D-03 -0.42501790D-03 -0.23672359D-04  0.99231526D-04  0.37550579D-04
  0.42189716D-05  0.30628588D-06  0.81561821D-04  0.54909104D-05  0.91974829D-07
 -0.11704899D-03 -0.18147825D-04 -0.10108325D-05 -0.12763647D-03  0.11825132D-05
END DATA
RHF
