 Molden2AIM, Version 4.0.0 (06/02/2016)           Time: Wed Jun 27 19:44:48 2018
GAUSSIAN             10 MOL ORBITALS    208 PRIMITIVES        2 NUCLEI
  Be   1    (CENTRE  1)   0.00000000  0.00000000 -0.22844332  CHARGE =  4.0
  S    2    (CENTRE  2)   0.00000000  0.00000000  3.06303251  CHARGE = 16.0
CENTRE ASSIGNMENTS    1  1  1  1  1  1  1  1  1  1  1  1  1  1  1  1  1  1  1  1
CENTRE ASSIGNMENTS    1  1  1  1  1  1  1  1  1  1  1  1  1  1  1  1  1  1  1  1
CENTRE ASSIGNMENTS    1  1  1  1  1  1  1  1  1  1  1  1  1  1  1  1  1  1  1  1
CENTRE ASSIGNMENTS    1  1  1  1  1  1  1  1  1  1  1  1  1  1  1  1  1  2  2  2
CENTRE ASSIGNMENTS    2  2  2  2  2  2  2  2  2  2  2  2  2  2  2  2  2  2  2  2
CENTRE ASSIGNMENTS    2  2  2  2  2  2  2  2  2  2  2  2  2  2  2  2  2  2  2  2
CENTRE ASSIGNMENTS    2  2  2  2  2  2  2  2  2  2  2  2  2  2  2  2  2  2  2  2
CENTRE ASSIGNMENTS    2  2  2  2  2  2  2  2  2  2  2  2  2  2  2  2  2  2  2  2
CENTRE ASSIGNMENTS    2  2  2  2  2  2  2  2  2  2  2  2  2  2  2  2  2  2  2  2
CENTRE ASSIGNMENTS    2  2  2  2  2  2  2  2  2  2  2  2  2  2  2  2  2  2  2  2
CENTRE ASSIGNMENTS    2  2  2  2  2  2  2  2
TYPE ASSIGNMENTS      1  1  1  1  1  1  1  1  1  1  1  1  1  1  1  1  1  1  1  1
TYPE ASSIGNMENTS      1  2  2  2  3  3  3  4  4  4  2  3  4  2  3  4  2  3  4  5
TYPE ASSIGNMENTS      6  7  8  9 10  5  6  7  8  9 10  5  6  7  8  9 10 11 12 13
TYPE ASSIGNMENTS     17 14 15 18 19 16 20 11 12 13 17 14 15 18 19 16 20  1  1  1
TYPE ASSIGNMENTS      1  1  1  1  1  1  1  1  1  1  1  1  1  1  1  1  1  1  1  1
TYPE ASSIGNMENTS      1  1  1  1  1  1  1  1  1  1  1  1  1  1  1  1  1  1  1  2
TYPE ASSIGNMENTS      2  2  2  2  2  2  3  3  3  3  3  3  3  4  4  4  4  4  4  4
TYPE ASSIGNMENTS      2  2  2  2  2  2  2  3  3  3  3  3  3  3  4  4  4  4  4  4
TYPE ASSIGNMENTS      4  2  3  4  2  3  4  2  3  4  5  6  7  8  9 10  5  6  7  8
TYPE ASSIGNMENTS      9 10  5  6  7  8  9 10 11 12 13 17 14 15 18 19 16 20 11 12
TYPE ASSIGNMENTS     13 17 14 15 18 19 16 20
EXPONENTS  0.6863000D+04 0.1030000D+04 0.2347000D+03 0.6656000D+02 0.2169000D+02
EXPONENTS  0.7734000D+01 0.2916000D+01 0.1130000D+01 0.1101000D+00 0.6863000D+04
EXPONENTS  0.1030000D+04 0.2347000D+03 0.6656000D+02 0.2169000D+02 0.7734000D+01
EXPONENTS  0.2916000D+01 0.1130000D+01 0.1101000D+00 0.2577000D+00 0.4409000D-01
EXPONENTS  0.1503000D-01 0.7436000D+01 0.1577000D+01 0.4352000D+00 0.7436000D+01
EXPONENTS  0.1577000D+01 0.4352000D+00 0.7436000D+01 0.1577000D+01 0.4352000D+00
EXPONENTS  0.1438000D+00 0.1438000D+00 0.1438000D+00 0.4994000D-01 0.4994000D-01
EXPONENTS  0.4994000D-01 0.7060000D-02 0.7060000D-02 0.7060000D-02 0.3480000D+00
EXPONENTS  0.3480000D+00 0.3480000D+00 0.3480000D+00 0.3480000D+00 0.3480000D+00
EXPONENTS  0.1803000D+00 0.1803000D+00 0.1803000D+00 0.1803000D+00 0.1803000D+00
EXPONENTS  0.1803000D+00 0.6540000D-01 0.6540000D-01 0.6540000D-01 0.6540000D-01
EXPONENTS  0.6540000D-01 0.6540000D-01 0.3250000D+00 0.3250000D+00 0.3250000D+00
EXPONENTS  0.3250000D+00 0.3250000D+00 0.3250000D+00 0.3250000D+00 0.3250000D+00
EXPONENTS  0.3250000D+00 0.3250000D+00 0.1533000D+00 0.1533000D+00 0.1533000D+00
EXPONENTS  0.1533000D+00 0.1533000D+00 0.1533000D+00 0.1533000D+00 0.1533000D+00
EXPONENTS  0.1533000D+00 0.1533000D+00 0.3741000D+06 0.5605000D+05 0.1276000D+05
EXPONENTS  0.3615000D+04 0.1183000D+04 0.4288000D+03 0.1678000D+03 0.6947000D+02
EXPONENTS  0.2984000D+02 0.1272000D+02 0.5244000D+01 0.2219000D+01 0.3490000D+00
EXPONENTS  0.3741000D+06 0.5605000D+05 0.1276000D+05 0.3615000D+04 0.1183000D+04
EXPONENTS  0.4288000D+03 0.1678000D+03 0.6947000D+02 0.2984000D+02 0.1272000D+02
EXPONENTS  0.5244000D+01 0.2219000D+01 0.3490000D+00 0.3741000D+06 0.5605000D+05
EXPONENTS  0.1276000D+05 0.3615000D+04 0.1183000D+04 0.4288000D+03 0.1678000D+03
EXPONENTS  0.6947000D+02 0.2984000D+02 0.1272000D+02 0.5244000D+01 0.2219000D+01
EXPONENTS  0.3490000D+00 0.7767000D+00 0.1322000D+00 0.4970000D-01 0.5744000D+03
EXPONENTS  0.1358000D+03 0.4319000D+02 0.1587000D+02 0.6208000D+01 0.2483000D+01
EXPONENTS  0.3229000D+00 0.5744000D+03 0.1358000D+03 0.4319000D+02 0.1587000D+02
EXPONENTS  0.6208000D+01 0.2483000D+01 0.3229000D+00 0.5744000D+03 0.1358000D+03
EXPONENTS  0.4319000D+02 0.1587000D+02 0.6208000D+01 0.2483000D+01 0.3229000D+00
EXPONENTS  0.5744000D+03 0.1358000D+03 0.4319000D+02 0.1587000D+02 0.6208000D+01
EXPONENTS  0.2483000D+01 0.3229000D+00 0.5744000D+03 0.1358000D+03 0.4319000D+02
EXPONENTS  0.1587000D+02 0.6208000D+01 0.2483000D+01 0.3229000D+00 0.5744000D+03
EXPONENTS  0.1358000D+03 0.4319000D+02 0.1587000D+02 0.6208000D+01 0.2483000D+01
EXPONENTS  0.3229000D+00 0.8688000D+00 0.8688000D+00 0.8688000D+00 0.1098000D+00
EXPONENTS  0.1098000D+00 0.1098000D+00 0.3510000D-01 0.3510000D-01 0.3510000D-01
EXPONENTS  0.2690000D+00 0.2690000D+00 0.2690000D+00 0.2690000D+00 0.2690000D+00
EXPONENTS  0.2690000D+00 0.8190000D+00 0.8190000D+00 0.8190000D+00 0.8190000D+00
EXPONENTS  0.8190000D+00 0.8190000D+00 0.1010000D+00 0.1010000D+00 0.1010000D+00
EXPONENTS  0.1010000D+00 0.1010000D+00 0.1010000D+00 0.5570000D+00 0.5570000D+00
EXPONENTS  0.5570000D+00 0.5570000D+00 0.5570000D+00 0.5570000D+00 0.5570000D+00
EXPONENTS  0.5570000D+00 0.5570000D+00 0.5570000D+00 0.2180000D+00 0.2180000D+00
EXPONENTS  0.2180000D+00 0.2180000D+00 0.2180000D+00 0.2180000D+00 0.2180000D+00
EXPONENTS  0.2180000D+00 0.2180000D+00 0.2180000D+00
MO    1     MO 0.0        OCC NO =    2.0000000  ORB. ENERGY =  -89.002855
 -0.18915712D-04 -0.35290181D-04 -0.60246765D-04 -0.94021476D-04 -0.12816647D-03
 -0.13909991D-03 -0.10138050D-03 -0.31021966D-04  0.14780825D-06  0.15565704D-04
  0.29066113D-04  0.49974602D-04  0.78445259D-04  0.11158607D-03  0.12944284D-03
  0.12272224D-03  0.71510311D-04 -0.52986217D-04  0.34533129D-03 -0.23595750D-04
 -0.21452704D-05  0.15731562D-13  0.13254937D-13  0.10468465D-13  0.18134614D-13
  0.15279675D-13  0.12067560D-13  0.13133698D-03  0.11066056D-03  0.87397337D-04
 -0.16351179D-12 -0.18894048D-12 -0.20055511D-03 -0.21172591D-13 -0.24458993D-13
 -0.19589015D-04  0.13457421D-15  0.15586486D-15 -0.49185959D-07  0.16922399D-04
  0.16922399D-04 -0.33844797D-04  0.79007401D-16  0.37426267D-13  0.43005761D-13
  0.61074304D-04  0.61074304D-04 -0.12214861D-03 -0.26007260D-16 -0.11973093D-12
 -0.13828464D-12  0.26226133D-05  0.26226133D-05 -0.52452267D-05  0.15247415D-17
 -0.13802427D-13 -0.15949041D-13  0.65614614D-15  0.75767892D-15 -0.44591468D-04
  0.65656422D-15  0.75581923D-15  0.66887202D-04 -0.26250026D-14 -0.30288560D-14
  0.66887202D-04 -0.31747630D-16  0.56937454D-14  0.65792165D-14 -0.11497645D-04
  0.56938378D-14  0.65796095D-14  0.17246467D-04 -0.22775074D-13 -0.26317259D-13
  0.17246467D-04  0.63896583D-18  0.58498347D+00  0.10935926D+01  0.18900695D+01
  0.30571025D+01  0.46206315D+01  0.63633677D+01  0.74373016D+01  0.64263897D+01
  0.29972910D+01  0.40696737D+00  0.10897583D-02  0.21376554D-02  0.97592897D-04
 -0.86713748D-03 -0.16194162D-02 -0.28091279D-02 -0.45549038D-02 -0.70127930D-02
 -0.99877924D-02 -0.12843004D-01 -0.13481333D-01 -0.95322577D-02  0.21109584D-03
  0.68490504D-02  0.37712730D-02 -0.15948650D-04  0.37264165D-03  0.69540445D-03
  0.12078343D-02  0.19564236D-02  0.30221018D-02  0.43084603D-02  0.56038994D-02
  0.59722462D-02  0.44294908D-02 -0.13787360D-03 -0.40128879D-02 -0.39312451D-02
  0.18361246D-02 -0.23555390D-02 -0.15299914D-03 -0.11156095D-04 -0.45011365D-10
 -0.59052460D-10 -0.64771548D-10 -0.53295056D-10 -0.28098207D-10 -0.73098255D-11
  0.80890672D-14 -0.52024982D-10 -0.68253943D-10 -0.74864172D-10 -0.61599427D-10
 -0.32476436D-10 -0.84488338D-11  0.93494959D-14 -0.93191417D-02 -0.12226206D-01
 -0.13410285D-01 -0.11034195D-01 -0.58174458D-02 -0.15134244D-02  0.16747584D-05
  0.64120507D-11  0.84190616D-11  0.94720119D-11  0.79808862D-11  0.44643958D-11
  0.11111790D-11 -0.50964025D-12  0.74122483D-11  0.97323271D-11  0.10949524D-10
  0.92258020D-11  0.51607843D-11  0.12845087D-11 -0.58913759D-12  0.79779410D-02
  0.10475085D-01  0.11785177D-01  0.99299027D-02  0.55546484D-02  0.13825407D-02
 -0.63409977D-03  0.24715841D-11  0.28565858D-11  0.36088365D-03  0.22576933D-12
  0.26089851D-12  0.16663128D-03 -0.87308885D-15 -0.10162134D-14  0.43869686D-05
  0.21569948D-05  0.21569948D-05 -0.43139896D-05  0.50705378D-16 -0.28993592D-12
 -0.33507533D-12 -0.10623176D-03 -0.10623176D-03  0.21246351D-03 -0.33278332D-15
  0.63569175D-11  0.73472605D-11  0.16111138D-04  0.16111138D-04 -0.32222276D-04
 -0.35076938D-17 -0.30343028D-13 -0.35052512D-13  0.94656436D-13  0.10940857D-12
 -0.56195773D-04  0.94659998D-13  0.10941220D-12  0.84293659D-04 -0.37862931D-12
 -0.43763791D-12  0.84293659D-04  0.37053625D-16 -0.17077248D-13 -0.19737700D-13
  0.22723731D-04 -0.17077289D-13 -0.19737804D-13 -0.34085596D-04  0.68309033D-13
  0.78950903D-13 -0.34085596D-04 -0.52671021D-18
MO    2     MO 0.0        OCC NO =    2.0000000  ORB. ENERGY =   -7.960728
  0.38682269D-07  0.72167744D-07  0.12320348D-06  0.19227212D-06  0.26209797D-06
  0.28445665D-06  0.20732117D-06  0.63439326D-07 -0.30226504D-09  0.55630420D-05
  0.10387966D-04  0.17860472D-04  0.28035627D-04  0.39879855D-04  0.46261701D-04
  0.43859822D-04  0.25557139D-04 -0.18936796D-04  0.64328694D-03 -0.25210628D-03
 -0.68884498D-05 -0.29029775D-10 -0.24459607D-10 -0.19317674D-10 -0.33552183D-10
 -0.28270051D-10 -0.22327081D-10  0.14790739D-03  0.12462228D-03  0.98424004D-04
  0.16003277D-09  0.18496329D-09 -0.39259112D-03  0.10340077D-10  0.11950892D-10
 -0.85905410D-04 -0.30636540D-13 -0.35409007D-13 -0.85479978D-07  0.14106241D-04
  0.14106241D-04 -0.28212483D-04 -0.45675465D-15 -0.33679996D-10 -0.38926668D-10
  0.13496741D-03  0.13496741D-03 -0.26993483D-03 -0.28633690D-15  0.13515338D-09
  0.15620807D-09  0.75450333D-05  0.75450333D-05 -0.15090067D-04  0.25215137D-18
  0.67835993D-11  0.78403765D-11 -0.36597501D-11 -0.42298872D-11 -0.58453603D-04
 -0.36596989D-11 -0.42298264D-11  0.87680404D-04  0.14638949D-10  0.16919488D-10
  0.87680404D-04  0.16804709D-14 -0.49948325D-11 -0.57729469D-11 -0.31306311D-04
 -0.49948525D-11 -0.57729701D-11  0.46959466D-04  0.19979350D-10  0.23091811D-10
  0.46959466D-04 -0.11275286D-15  0.26913381D-02  0.50313001D-02  0.86956575D-02
  0.14064836D-01  0.21258176D-01  0.29275996D-01  0.34216852D-01  0.29565942D-01
  0.13789661D-01  0.18723380D-02  0.50136598D-05  0.98347280D-05  0.44899641D-06
  0.15725945D+00  0.29368871D+00  0.50944851D+00  0.82605315D+00  0.12718029D+01
  0.18113330D+01  0.23291390D+01  0.24449029D+01  0.17287196D+01 -0.38283220D-01
 -0.12421074D+01 -0.68393804D+00  0.28923624D-02  0.11267872D-02  0.21027516D-02
  0.36522278D-02  0.59157987D-02  0.91381777D-02  0.13027845D-01  0.16944971D-01
  0.18058772D-01  0.13393815D-01 -0.41689974D-03 -0.12134099D-01 -0.11887229D-01
  0.55520409D-02 -0.54938155D-01 -0.95121327D-03  0.26003492D-03  0.16874359D-08
  0.22138240D-08  0.24282275D-08  0.19979841D-08  0.10533767D-08  0.27403884D-09
 -0.30325191D-12  0.19502017D-08  0.25585584D-08  0.28063486D-08  0.23091081D-08
  0.12174075D-08  0.31671188D-09 -0.35047399D-12  0.10370690D-01  0.13605780D-01
  0.14923467D-01  0.12279265D-01  0.64738714D-02  0.16841954D-02 -0.18637339D-05
  0.14567243D-08  0.19126879D-08  0.21519028D-08  0.18131408D-08  0.10142456D-08
  0.25244365D-09 -0.11578282D-09  0.16836636D-08  0.22106606D-08  0.24871422D-08
  0.20956053D-08  0.11722522D-08  0.29177120D-09 -0.13382033D-09  0.16045331D-01
  0.21067617D-01  0.23702489D-01  0.19971139D-01  0.11171575D-01  0.27805824D-02
 -0.12753090D-02  0.27186284D-09  0.31421519D-09  0.12068107D-02 -0.12229180D-09
 -0.14134287D-09  0.33721306D-03 -0.10727630D-11 -0.12398901D-11 -0.49362732D-05
 -0.12038340D-04 -0.12038340D-04  0.24076681D-04  0.36019430D-14  0.30058328D-09
  0.34740934D-09  0.68096667D-05  0.68096667D-05 -0.13619333D-04 -0.44070792D-13
 -0.18417230D-08 -0.21286334D-08  0.34699830D-04  0.34699830D-04 -0.69399660D-04
 -0.18733498D-15  0.21803201D-10  0.25199799D-10 -0.13141698D-10 -0.15188953D-10
 -0.55392749D-04 -0.13144031D-10 -0.15191649D-10  0.83089123D-04  0.52569124D-10
  0.60758508D-10  0.83089123D-04 -0.15666445D-15  0.11666291D-10  0.13483713D-10
  0.38542535D-04  0.11666467D-10  0.13483916D-10 -0.57813803D-04 -0.46665341D-10
 -0.53935054D-10 -0.57813803D-04 -0.50009577D-15
MO    3     MO 0.0        OCC NO =    2.0000000  ORB. ENERGY =   -5.895533
 -0.87293710D-04 -0.16285989D-03 -0.27803148D-03 -0.43389766D-03 -0.59147265D-03
 -0.64192915D-03 -0.46785866D-03 -0.14316260D-03  0.68211710D-06  0.85285660D-04
  0.15925542D-03  0.27381460D-03  0.42980746D-03  0.61138847D-03  0.70922702D-03
  0.67240439D-03  0.39181036D-03 -0.29031546D-03  0.38695743D-03 -0.43857202D-03
  0.60006652D-06 -0.18716975D-10 -0.15770355D-10 -0.12455089D-10 -0.21632626D-10
 -0.18226994D-10 -0.14395290D-10  0.36719429D-03  0.30938676D-03  0.24434704D-03
 -0.46116708D-09 -0.53300966D-09 -0.23956102D-03 -0.34137521D-11 -0.39455895D-11
 -0.11124250D-03 -0.37160305D-12 -0.42949295D-12  0.83953806D-07  0.95148050D-04
  0.95148050D-04 -0.19029610D-03 -0.84013289D-17  0.58458410D-10  0.67565290D-10
  0.16989102D-04  0.16989102D-04 -0.33978205D-04  0.57528367D-15 -0.47363533D-09
 -0.54742015D-09  0.62147590D-05  0.62147590D-05 -0.12429518D-04  0.43640748D-16
  0.20548725D-11  0.23749662D-11  0.17907675D-10  0.20697409D-10 -0.11102631D-03
  0.17907516D-10  0.20697225D-10  0.16653946D-03 -0.71630540D-10 -0.82789453D-10
  0.16653946D-03 -0.20618162D-14  0.16908732D-10  0.19542841D-10  0.52979826D-05
  0.16908866D-10  0.19542996D-10 -0.79469739D-05 -0.67635062D-10 -0.78171520D-10
 -0.79469739D-05  0.18304641D-15  0.12864441D-03  0.24049325D-03  0.41564742D-03
  0.67229105D-03  0.10161286D-02  0.13993758D-02  0.16355458D-02  0.14132350D-02
  0.65913784D-03  0.89496678D-04  0.23965005D-06  0.47009434D-06  0.21461770D-07
  0.22986048D-03  0.42927424D-03  0.74464258D-03  0.12074122D-02  0.18589485D-02
  0.26475603D-02  0.34044188D-02  0.35736267D-02  0.25268073D-02 -0.55957206D-04
 -0.18155437D-02 -0.99968765D-03  0.42276621D-05  0.15733568D-03  0.29361165D-03
  0.50996829D-03  0.82603548D-03  0.12759831D-02  0.18191056D-02  0.23660622D-02
  0.25215845D-02  0.18702068D-02 -0.58212592D-04 -0.16943099D-02 -0.16598389D-02
  0.77524321D-03 -0.40551162D-03  0.90046305D-04  0.52190098D-03 -0.18506295D-04
 -0.24279251D-04 -0.26630638D-04 -0.21912111D-04 -0.11552498D-04 -0.30054141D-05
  0.33257971D-08 -0.21389271D-04 -0.28061559D-04 -0.30779253D-04 -0.25325657D-04
 -0.13352187D-04 -0.34736081D-05  0.38439015D-08 -0.96821618D+01 -0.12702469D+02
 -0.13932672D+02 -0.11464024D+02 -0.60440600D+01 -0.15723787D+01  0.17399974D-02
 -0.12245715D-07 -0.16078698D-07 -0.18089619D-07 -0.15241872D-07 -0.85260894D-08
 -0.21221263D-08  0.97330937D-09 -0.14153397D-07 -0.18583496D-07 -0.20907686D-07
 -0.17616307D-07 -0.98543149D-08 -0.24527189D-08  0.11249351D-08  0.28553927D-02
  0.37491480D-02  0.42180442D-02  0.35540212D-02  0.19880696D-02  0.49482648D-03
 -0.22695127D-03 -0.15676393D-06 -0.18118517D-06 -0.81744079D-01 -0.43370981D-10
 -0.50127196D-10 -0.20629303D-03  0.15473839D-10  0.17884418D-10 -0.19536078D-04
  0.26512138D-04  0.26512138D-04 -0.53024277D-04 -0.72509341D-15 -0.68934340D-09
 -0.79673219D-09 -0.54609473D-03 -0.54609473D-03  0.10921895D-02 -0.41502809D-14
  0.20571318D-08  0.23776022D-08  0.62575219D-05  0.62575219D-05 -0.12515044D-04
 -0.11466219D-15 -0.61117389D-10 -0.70638548D-10  0.16312327D-09  0.18853521D-09
 -0.22181051D-03  0.16314320D-09  0.18855824D-09  0.33271577D-03 -0.65251300D-09
 -0.75416386D-09  0.33271577D-03 -0.15221035D-13 -0.42103523D-10 -0.48662587D-10
  0.36277704D-04 -0.42104887D-10 -0.48664163D-10 -0.54416556D-04  0.16841546D-09
  0.19465192D-09 -0.54416556D-04  0.16633544D-14
MO    4     MO 0.0        OCC NO =    2.0000000  ORB. ENERGY =   -5.893547
  0.10793340D-10  0.20136642D-10  0.34376914D-10  0.53648826D-10  0.73132021D-10
  0.79370662D-10  0.57847897D-10  0.17701190D-10 -0.84339659D-13 -0.99571232D-11
 -0.18593112D-10 -0.31967926D-10 -0.50180134D-10 -0.71379764D-10 -0.82802441D-10
 -0.78503389D-10 -0.45743962D-10  0.33894406D-10 -0.37353229D-10  0.45347770D-10
 -0.12529538D-12  0.26654637D-04  0.22458388D-04  0.17737154D-04 -0.24674479D-04
 -0.20789967D-04 -0.16419471D-04 -0.32943453D-10 -0.27757153D-10 -0.21922005D-10
  0.13304441D-03 -0.12316062D-03  0.30505853D-10 -0.21607631D-05  0.20002412D-05
  0.11782136D-10  0.13216494D-06 -0.12234648D-06 -0.83718560D-14  0.25371780D-11
 -0.23915580D-10  0.21378402D-10  0.29401867D-11  0.34630505D-05 -0.32057825D-05
 -0.13857468D-10  0.86658141D-11  0.51916538D-11 -0.25033665D-11  0.14215881D-03
 -0.13159792D-03 -0.12207678D-11 -0.24689406D-12  0.14676619D-11 -0.10824521D-12
 -0.23048765D-05  0.21336485D-05 -0.69074431D-05  0.63942931D-05  0.11301527D-10
 -0.69073973D-05  0.63942507D-05 -0.13945919D-11  0.27629727D-04 -0.25577130D-04
 -0.32509989D-10  0.34583515D-11 -0.51510029D-05  0.47683379D-05 -0.34751500D-12
 -0.51510479D-05  0.47683795D-05 -0.62236629D-11  0.20604057D-04 -0.19073393D-04
  0.72662079D-11 -0.14993717D-11 -0.14620552D-10 -0.27332273D-10 -0.47238702D-10
 -0.76406480D-10 -0.11548392D-09 -0.15904031D-09 -0.18588125D-09 -0.16061542D-09
 -0.74911605D-10 -0.10171378D-10 -0.27236443D-13 -0.53426642D-13 -0.24391494D-14
 -0.16199658D-10 -0.30253551D-10 -0.52479465D-10 -0.85093637D-10 -0.13101134D-09
 -0.18658958D-09 -0.23992998D-09 -0.25185508D-09 -0.17807939D-09  0.39436426D-11
  0.12795234D-09  0.70454032D-10 -0.29794891D-12 -0.16706757D-10 -0.31177281D-10
 -0.54151205D-10 -0.87712937D-10 -0.13549082D-09 -0.19316252D-09 -0.25124134D-09
 -0.26775554D-09 -0.19858872D-09  0.61813294D-11  0.17991103D-09  0.17625072D-09
 -0.82319538D-10  0.48542206D-10 -0.23674902D-10 -0.51720114D-10  0.71012524D+01
  0.93164564D+01  0.10218733D+02  0.84081352D+01  0.44329352D+01  0.11532402D+01
 -0.12761779D-02 -0.65737044D+01 -0.86243422D+01 -0.94595889D+01 -0.77834997D+01
 -0.41036150D+01 -0.10675667D+01  0.11813713D-02  0.95107183D-06  0.12477544D-05
  0.13685964D-05  0.11261028D-05  0.59370369D-06  0.15445364D-06 -0.17091870D-09
  0.35406565D-02  0.46489036D-02  0.52303300D-02  0.44069484D-02  0.24651852D-02
  0.61357957D-03 -0.28141716D-03 -0.32776232D-02 -0.43035392D-02 -0.48417718D-02
 -0.40795588D-02 -0.22820480D-02 -0.56799710D-03  0.26051084D-03 -0.60104187D-09
 -0.78917163D-09 -0.88787130D-09 -0.74809870D-09 -0.41847592D-09 -0.10415781D-09
  0.47771788D-10  0.59611304D-01 -0.55182814D-01  0.79450051D-08  0.44170982D-04
 -0.40889545D-04  0.20249704D-10 -0.45778326D-05  0.42377480D-05  0.18104217D-11
  0.11930700D-10 -0.13799808D-10  0.18691082D-11  0.28593708D-11  0.21809911D-03
 -0.20189666D-03 -0.10376176D-09  0.21047244D-09 -0.10671068D-09 -0.34922411D-10
 -0.60849603D-03  0.56329121D-03  0.21694601D-11 -0.38862906D-11  0.17168305D-11
  0.67312394D-12  0.13727060D-04 -0.12707285D-04 -0.27268397D-04  0.25242644D-04
  0.27430231D-10 -0.27275267D-04  0.25249003D-04  0.27280542D-09  0.10908046D-03
 -0.10097693D-03 -0.35509612D-09  0.69790425D-10  0.11108257D-04 -0.10283031D-04
 -0.39498232D-11  0.11108722D-04 -0.10283461D-04 -0.21608114D-10 -0.44433493D-04
  0.41132555D-04  0.33457583D-10 -0.61204291D-11
MO    5     MO 0.0        OCC NO =    2.0000000  ORB. ENERGY =   -5.893547
 -0.32130909D-09 -0.59945170D-09 -0.10233732D-08 -0.15970826D-08 -0.21770817D-08
 -0.23628011D-08 -0.17220856D-08 -0.52695026D-09  0.25107241D-11  0.29641525D-09
  0.55350141D-09  0.95165848D-09  0.14938207D-08  0.21249160D-08  0.24649595D-08
  0.23369804D-08  0.13617596D-08 -0.10090082D-08  0.11119747D-08 -0.13499702D-08
  0.37300675D-11  0.24674479D-04  0.20789967D-04  0.16419471D-04  0.26654637D-04
  0.22458388D-04  0.17737154D-04  0.98069868D-09  0.82630694D-09  0.65259952D-09
  0.12316062D-03  0.13304441D-03 -0.90813415D-09 -0.20002412D-05 -0.21607631D-05
 -0.35074631D-09  0.12234648D-06  0.13216494D-06  0.24921436D-12  0.31673934D-09
  0.31967963D-09 -0.63641897D-09  0.26451888D-10  0.32057825D-05  0.34630505D-05
  0.78526925D-10  0.76023419D-10 -0.15455034D-09 -0.22522220D-10  0.13159792D-03
  0.14215881D-03  0.21899824D-10  0.21791578D-10 -0.43691403D-10 -0.97391773D-12
 -0.21336485D-05 -0.23048765D-05 -0.63942931D-05 -0.69074431D-05 -0.33643697D-09
 -0.63942507D-05 -0.69073973D-05  0.50292620D-09  0.25577130D-04  0.27629727D-04
  0.50638471D-09  0.31115495D-10 -0.47683379D-05 -0.51510029D-05  0.10345095D-10
 -0.47683795D-05 -0.51510479D-05 -0.14767937D-10  0.19073393D-04  0.20604057D-04
 -0.16267348D-10 -0.13489413D-10  0.43523735D-09  0.81365093D-09  0.14062428D-08
  0.22745347D-08  0.34378260D-08  0.47344505D-08  0.55334750D-08  0.47813399D-08
  0.22300339D-08  0.30279043D-09  0.81079818D-12  0.15904508D-11  0.72610725D-13
  0.48222736D-09  0.90058014D-09  0.15621956D-08  0.25330461D-08  0.38999129D-08
  0.55543520D-08  0.71421756D-08  0.74971591D-08  0.53010227D-08 -0.11739337D-09
 -0.38088534D-08 -0.20972580D-08  0.88692687D-11  0.49734300D-09  0.92811561D-09
  0.16120257D-08  0.26111240D-08  0.40334224D-08  0.57502497D-08  0.74791965D-08
  0.79708074D-08  0.59117821D-08 -0.18401182D-09 -0.53557666D-08 -0.52468027D-08
  0.24505681D-08 -0.14450321D-08  0.70478996D-09  0.15396686D-08  0.65737044D+01
  0.86243422D+01  0.94595889D+01  0.77834997D+01  0.41036150D+01  0.10675667D+01
 -0.11813713D-02  0.71012524D+01  0.93164564D+01  0.10218733D+02  0.84081352D+01
  0.44329352D+01  0.11532402D+01 -0.12761779D-02 -0.28312656D-04 -0.37144663D-04
 -0.40742034D-04 -0.33523191D-04 -0.17674089D-04 -0.45979627D-05  0.50881145D-08
  0.32776232D-02  0.43035392D-02  0.48417718D-02  0.40795588D-02  0.22820480D-02
  0.56799710D-03 -0.26051084D-03  0.35406565D-02  0.46489036D-02  0.52303300D-02
  0.44069484D-02  0.24651852D-02  0.61357957D-03 -0.28141716D-03  0.17892513D-07
  0.23492978D-07  0.26431184D-07  0.22270271D-07  0.12457677D-07  0.31006905D-08
 -0.14221261D-08  0.55182814D-01  0.59611304D-01 -0.23651652D-06  0.40889545D-04
  0.44170982D-04 -0.60281844D-09 -0.42377480D-05 -0.45778326D-05 -0.53894578D-10
  0.26390086D-10  0.29250186D-10 -0.55640272D-10  0.25724279D-10  0.20189666D-03
  0.21809911D-03 -0.15708718D-08 -0.16058010D-08  0.31766728D-08 -0.31417357D-09
 -0.56329121D-03 -0.60849603D-03  0.25217881D-10  0.25890976D-10 -0.51108857D-10
  0.60560224D-11  0.12707285D-04  0.13727060D-04 -0.25242644D-04 -0.27268397D-04
 -0.81657520D-09 -0.25249003D-04 -0.27275267D-04  0.11899670D-08  0.10097693D-03
  0.10908046D-03  0.12597586D-08  0.62789075D-09  0.10283031D-04  0.11108257D-04
  0.11758281D-09  0.10283461D-04  0.11108722D-04 -0.17331392D-09 -0.41132555D-04
 -0.44433493D-04 -0.17943451D-09 -0.55064196D-10
MO    6     MO 0.0        OCC NO =    2.0000000  ORB. ENERGY =   -4.136624
 -0.12752552D+00 -0.23791854D+00 -0.40617027D+00 -0.63387185D+00 -0.86406979D+00
 -0.93778061D+00 -0.68348474D+00 -0.20914319D+00  0.99649032D-03  0.10882657D-02
  0.20321376D-02  0.34939405D-02  0.54844472D-02  0.78014648D-02  0.90499084D-02
  0.85800427D-02  0.49995950D-02 -0.37044955D-02 -0.94912255D-02 -0.42024549D-02
  0.11100497D-03 -0.29698767D-08 -0.25023280D-08 -0.19762850D-08 -0.34325343D-08
 -0.28921492D-08 -0.22841575D-08  0.56012803D-02  0.47194688D-02  0.37273354D-02
  0.80357064D-09  0.92875366D-09 -0.48148406D-02  0.42738462D-10  0.49396404D-10
 -0.78770324D-03  0.30598107D-12  0.35364787D-12  0.16182333D-05  0.11240304D-03
  0.11240304D-03 -0.22480609D-03 -0.16167281D-13 -0.54986291D-09 -0.63552241D-09
  0.53934983D-03  0.53934983D-03 -0.10786997D-02  0.23460427D-14  0.38892561D-09
  0.44951377D-09  0.49556886D-04  0.49556886D-04 -0.99113773D-04 -0.20685226D-15
  0.41150648D-10  0.47561237D-10 -0.19060452D-10 -0.22029770D-10 -0.36344847D-03
 -0.19059579D-10 -0.22028762D-10  0.54517270D-03  0.76240935D-10  0.88118071D-10
  0.54517270D-03  0.15688264D-13 -0.16131958D-10 -0.18645049D-10 -0.49913372D-04
 -0.16132041D-10 -0.18645145D-10  0.74870058D-04  0.64527915D-10  0.74580291D-10
  0.74870058D-04 -0.61418905D-15  0.28900434D-03  0.54027682D-03  0.93376703D-03
  0.15103263D-02  0.22827697D-02  0.31437485D-02  0.36743131D-02  0.31748837D-02
  0.14807771D-02  0.20105754D-03  0.53838255D-06  0.10560840D-05  0.48214646D-07
 -0.60761749D-03 -0.11347515D-02 -0.19684021D-02 -0.31916960D-02 -0.49139793D-02
 -0.69986104D-02 -0.89993044D-02 -0.94465917D-02 -0.66794097D-02  0.14791833D-03
  0.47992422D-02  0.26425930D-02 -0.11175481D-04  0.25507033D-03  0.47599896D-03
  0.82675322D-03  0.13391568D-02  0.20686053D-02  0.29491077D-02  0.38358258D-02
  0.40879563D-02  0.30319522D-02 -0.94373413D-04 -0.27467907D-02 -0.26909069D-02
  0.12568131D-02 -0.34788430D-03  0.65441086D-02  0.40799103D-02 -0.64765260D-09
 -0.84968494D-09 -0.93197487D-09 -0.76684369D-09 -0.40429516D-09 -0.10517849D-09
  0.11639072D-12 -0.74854540D-09 -0.98205080D-09 -0.10771600D-08 -0.88630435D-09
 -0.46727718D-09 -0.12156344D-09  0.13452234D-12 -0.57226040D-01 -0.75077448D-01
 -0.82348517D-01 -0.67757665D-01 -0.35723181D-01 -0.92934832D-02  0.10284187D-04
  0.99277173D-09  0.13035153D-08  0.14665426D-08  0.12356730D-08  0.69121818D-09
  0.17204280D-09 -0.78907116D-10  0.11474307D-08  0.15065834D-08  0.16950080D-08
  0.14281724D-08  0.79889960D-09  0.19884448D-09 -0.91199661D-10  0.39733143D-01
  0.52169859D-01  0.58694609D-01  0.49454646D-01  0.27664235D-01  0.68855719D-02
 -0.31580550D-02 -0.10147331D-09 -0.11728128D-09  0.88511024D-03 -0.44889757D-09
 -0.51882838D-09 -0.22437649D-02 -0.16191192D-10 -0.18713511D-10 -0.22257934D-03
 -0.14626151D-03 -0.14626151D-03  0.29252303D-03  0.11525263D-14  0.20119937D-09
  0.23254298D-09 -0.12248692D-03 -0.12248692D-03  0.24497384D-03  0.14231424D-13
  0.45557860D-10  0.52655213D-10 -0.51347747D-04 -0.51347747D-04  0.10269549D-03
  0.47146318D-16  0.14065366D-09  0.16256518D-09 -0.60110150D-10 -0.69474309D-10
  0.39730869D-03 -0.60110102D-10 -0.69474255D-10 -0.59596304D-03  0.24044055D-09
  0.27789718D-09 -0.59596304D-03 -0.65706845D-14  0.15131253D-10  0.17488454D-10
  0.57515824D-04  0.15131260D-10  0.17488462D-10 -0.86273735D-04 -0.60525020D-10
 -0.69953825D-10 -0.86273735D-04 -0.68165726D-15
MO    7     MO 0.0        OCC NO =    2.0000000  ORB. ENERGY =   -0.661157
  0.27797990D-02  0.51861442D-02  0.88536924D-02  0.13817127D-01  0.18834978D-01
  0.20441725D-01  0.14898588D-01  0.45588995D-02 -0.21721479D-04  0.67980561D-02
  0.12694130D-01  0.21825557D-01  0.34259631D-01  0.48733317D-01  0.56531955D-01
  0.53596850D-01  0.31230910D-01 -0.23140828D-01 -0.21250524D-01 -0.17645519D-02
 -0.14686734D-03 -0.26688915D-08 -0.22487270D-08 -0.17759964D-08 -0.30846706D-08
 -0.25990498D-08 -0.20526738D-08 -0.53932757D-01 -0.45442104D-01 -0.35889200D-01
 -0.88974371D-09 -0.10283538D-08 -0.12147093D-01 -0.37934691D-10 -0.43844561D-10
 -0.36769692D-03 -0.13897462D-12 -0.16062394D-12 -0.10396562D-05  0.27016193D-02
  0.27016193D-02 -0.54032387D-02 -0.71601122D-13 -0.14886618D-08 -0.17205717D-08
  0.56834899D-03  0.56834899D-03 -0.11366980D-02 -0.15937232D-13 -0.11227247D-08
 -0.12976272D-08  0.11672568D-04  0.11672568D-04 -0.23345135D-04 -0.56719778D-14
 -0.63238122D-10 -0.73089622D-10 -0.41918174D-10 -0.48448291D-10 -0.91306967D-03
 -0.41912858D-10 -0.48442148D-10  0.13696045D-02  0.16766738D-09  0.19378702D-09
  0.13696045D-02  0.79122716D-13  0.32397615D-10  0.37444644D-10  0.14197702D-04
  0.32397329D-10  0.37444313D-10 -0.21296554D-04 -0.12959017D-09 -0.14977825D-09
 -0.21296554D-04 -0.64630541D-14  0.11144955D-02  0.20834846D-02  0.36009119D-02
  0.58243134D-02  0.88031087D-02  0.12123325D-01  0.14169356D-01  0.12243393D-01
  0.57103621D-02  0.77534381D-03  0.20761797D-05  0.40726063D-05  0.18593149D-06
 -0.36777470D-02 -0.68683491D-02 -0.11914214D-01 -0.19318487D-01 -0.29743009D-01
 -0.42360726D-01 -0.54470395D-01 -0.57177706D-01 -0.40428690D-01  0.89531026D-03
  0.29048536D-01  0.15994912D-01 -0.67642213D-04 -0.42750390D-01 -0.79778553D-01
 -0.13856580D+00 -0.22444585D+00 -0.34670315D+00 -0.49427743D+00 -0.64289348D+00
 -0.68515115D+00 -0.50816236D+00  0.15817207D-01  0.46036863D+00  0.45100236D+00
 -0.21064485D+00 -0.48131646D-01 -0.40186802D-01  0.37318941D-02  0.19461067D-07
  0.25531860D-07  0.28004559D-07  0.23042595D-07  0.12148512D-07  0.31604686D-08
 -0.34973807D-11  0.22492833D-07  0.29509372D-07  0.32367283D-07  0.26632313D-07
  0.14041082D-07  0.36528260D-08 -0.40422243D-11 -0.20328565D+00 -0.26669970D+00
 -0.29252892D+00 -0.24069743D+00 -0.12690044D+00 -0.33013498D-01  0.36532801D-04
 -0.24847094D-08 -0.32624386D-08 -0.36704634D-08 -0.30926430D-08 -0.17299811D-08
 -0.43058878D-09  0.19748876D-09 -0.28717089D-08 -0.37705713D-08 -0.42421469D-08
 -0.35743295D-08 -0.19994298D-08 -0.49765401D-09  0.22824811D-09 -0.13203407D+00
 -0.17336154D+00 -0.19504342D+00 -0.16433883D+00 -0.91928837D-01 -0.22880900D-01
  0.10494283D-01 -0.21603350D-08 -0.24968927D-08  0.33540022D-01  0.88863644D-10
  0.10270470D-09 -0.44763577D-02  0.83516867D-11  0.96526474D-11 -0.25184137D-03
 -0.14229913D-05 -0.14229913D-05  0.28459826D-05 -0.15648233D-12 -0.24856559D-08
 -0.28728808D-08  0.69749430D-02  0.69749430D-02 -0.13949886D-01 -0.10172046D-11
 -0.11445696D-07 -0.13228747D-07 -0.24465540D-03 -0.24465540D-03  0.48931080D-03
  0.63451209D-14 -0.18553145D-10 -0.21443389D-10 -0.39883736D-09 -0.46096972D-09
  0.12912103D-02 -0.39879714D-09 -0.46092324D-09 -0.19368154D-02  0.15953092D-08
  0.18438324D-08 -0.19368154D-02  0.19394432D-12 -0.33476763D-10 -0.38691920D-10
 -0.13551330D-03 -0.33478875D-10 -0.38694362D-10  0.20326995D-03  0.13390916D-09
  0.15477012D-09  0.20326995D-03 -0.18745888D-13
MO    8     MO 0.0        OCC NO =    2.0000000  ORB. ENERGY =   -0.316892
  0.32358789D-02  0.60370316D-02  0.10306312D-01  0.16084095D-01  0.21925221D-01
  0.23795586D-01  0.17342990D-01  0.53068752D-02 -0.25285308D-04  0.15089660D-01
  0.28177187D-01  0.48446234D-01  0.76046176D-01  0.10817345D+00  0.12548410D+00
  0.11896904D+00  0.69323318D-01 -0.51365745D-01 -0.48217789D-01 -0.19772372D-02
 -0.92917724D-04 -0.56336487D-08 -0.47467414D-08 -0.37488747D-08 -0.65112709D-08