 Molden2AIM, Version 4.0.0 (06/02/2016)           Time: Wed Jun 27 19:52:24 2018
GAUSSIAN             19 MOL ORBITALS    340 PRIMITIVES        2 NUCLEI
  Be   1    (CENTRE  1)   0.00000000  0.00000000 -0.34733544  CHARGE =  4.0
  Se   2    (CENTRE  2)   0.00000000  0.00000000  3.18192463  CHARGE = 34.0
CENTRE ASSIGNMENTS    1  1  1  1  1  1  1  1  1  1  1  1  1  1  1  1  1  1  1  1
CENTRE ASSIGNMENTS    1  1  1  1  1  1  1  1  1  1  1  1  1  1  1  1  1  1  1  1
CENTRE ASSIGNMENTS    1  1  1  1  1  1  1  1  1  1  1  1  1  1  1  1  1  1  1  1
CENTRE ASSIGNMENTS    1  1  1  1  1  1  1  1  1  1  1  1  1  1  1  1  1  2  2  2
CENTRE ASSIGNMENTS    2  2  2  2  2  2  2  2  2  2  2  2  2  2  2  2  2  2  2  2
CENTRE ASSIGNMENTS    2  2  2  2  2  2  2  2  2  2  2  2  2  2  2  2  2  2  2  2
CENTRE ASSIGNMENTS    2  2  2  2  2  2  2  2  2  2  2  2  2  2  2  2  2  2  2  2
CENTRE ASSIGNMENTS    2  2  2  2  2  2  2  2  2  2  2  2  2  2  2  2  2  2  2  2
CENTRE ASSIGNMENTS    2  2  2  2  2  2  2  2  2  2  2  2  2  2  2  2  2  2  2  2
CENTRE ASSIGNMENTS    2  2  2  2  2  2  2  2  2  2  2  2  2  2  2  2  2  2  2  2
CENTRE ASSIGNMENTS    2  2  2  2  2  2  2  2  2  2  2  2  2  2  2  2  2  2  2  2
CENTRE ASSIGNMENTS    2  2  2  2  2  2  2  2  2  2  2  2  2  2  2  2  2  2  2  2
CENTRE ASSIGNMENTS    2  2  2  2  2  2  2  2  2  2  2  2  2  2  2  2  2  2  2  2
CENTRE ASSIGNMENTS    2  2  2  2  2  2  2  2  2  2  2  2  2  2  2  2  2  2  2  2
CENTRE ASSIGNMENTS    2  2  2  2  2  2  2  2  2  2  2  2  2  2  2  2  2  2  2  2
CENTRE ASSIGNMENTS    2  2  2  2  2  2  2  2  2  2  2  2  2  2  2  2  2  2  2  2
CENTRE ASSIGNMENTS    2  2  2  2  2  2  2  2  2  2  2  2  2  2  2  2  2  2  2  2
TYPE ASSIGNMENTS      1  1  1  1  1  1  1  1  1  1  1  1  1  1  1  1  1  1  1  1
TYPE ASSIGNMENTS      1  2  2  2  3  3  3  4  4  4  2  3  4  2  3  4  2  3  4  5
TYPE ASSIGNMENTS      6  7  8  9 10  5  6  7  8  9 10  5  6  7  8  9 10 11 12 13
TYPE ASSIGNMENTS     17 14 15 18 19 16 20 11 12 13 17 14 15 18 19 16 20  1  1  1
TYPE ASSIGNMENTS      1  1  1  1  1  1  1  1  1  1  1  1  1  1  1  1  1  1  1  1
TYPE ASSIGNMENTS      1  1  1  1  1  1  1  1  1  1  1  1  1  1  1  1  1  1  1  1
TYPE ASSIGNMENTS      1  1  1  1  1  1  1  1  1  1  1  1  1  1  1  1  1  1  1  1
TYPE ASSIGNMENTS      1  1  1  1  1  1  1  1  1  1  1  1  2  2  2  2  2  2  2  2
TYPE ASSIGNMENTS      2  2  2  3  3  3  3  3  3  3  3  3  3  3  4  4  4  4  4  4
TYPE ASSIGNMENTS      4  4  4  4  4  2  2  2  2  2  2  2  2  2  2  2  3  3  3  3
TYPE ASSIGNMENTS      3  3  3  3  3  3  3  4  4  4  4  4  4  4  4  4  4  4  2  2
TYPE ASSIGNMENTS      2  2  2  2  2  2  2  2  2  3  3  3  3  3  3  3  3  3  3  3
TYPE ASSIGNMENTS      4  4  4  4  4  4  4  4  4  4  4  2  3  4  2  3  4  2  3  4
TYPE ASSIGNMENTS      5  5  5  5  5  5  5  6  6  6  6  6  6  6  7  7  7  7  7  7
TYPE ASSIGNMENTS      7  8  8  8  8  8  8  8  9  9  9  9  9  9  9 10 10 10 10 10
TYPE ASSIGNMENTS     10 10  5  6  7  8  9 10  5  6  7  8  9 10  5  6  7  8  9 10
TYPE ASSIGNMENTS     11 12 13 17 14 15 18 19 16 20 11 12 13 17 14 15 18 19 16 20
EXPONENTS  0.6863000D+04 0.1030000D+04 0.2347000D+03 0.6656000D+02 0.2169000D+02
EXPONENTS  0.7734000D+01 0.2916000D+01 0.1130000D+01 0.1101000D+00 0.6863000D+04
EXPONENTS  0.1030000D+04 0.2347000D+03 0.6656000D+02 0.2169000D+02 0.7734000D+01
EXPONENTS  0.2916000D+01 0.1130000D+01 0.1101000D+00 0.2577000D+00 0.4409000D-01
EXPONENTS  0.1503000D-01 0.7436000D+01 0.1577000D+01 0.4352000D+00 0.7436000D+01
EXPONENTS  0.1577000D+01 0.4352000D+00 0.7436000D+01 0.1577000D+01 0.4352000D+00
EXPONENTS  0.1438000D+00 0.1438000D+00 0.1438000D+00 0.4994000D-01 0.4994000D-01
EXPONENTS  0.4994000D-01 0.7060000D-02 0.7060000D-02 0.7060000D-02 0.3480000D+00
EXPONENTS  0.3480000D+00 0.3480000D+00 0.3480000D+00 0.3480000D+00 0.3480000D+00
EXPONENTS  0.1803000D+00 0.1803000D+00 0.1803000D+00 0.1803000D+00 0.1803000D+00
EXPONENTS  0.1803000D+00 0.6540000D-01 0.6540000D-01 0.6540000D-01 0.6540000D-01
EXPONENTS  0.6540000D-01 0.6540000D-01 0.3250000D+00 0.3250000D+00 0.3250000D+00
EXPONENTS  0.3250000D+00 0.3250000D+00 0.3250000D+00 0.3250000D+00 0.3250000D+00
EXPONENTS  0.3250000D+00 0.3250000D+00 0.1533000D+00 0.1533000D+00 0.1533000D+00
EXPONENTS  0.1533000D+00 0.1533000D+00 0.1533000D+00 0.1533000D+00 0.1533000D+00
EXPONENTS  0.1533000D+00 0.1533000D+00 0.9563600D+07 0.1432100D+07 0.3259100D+06
EXPONENTS  0.9231200D+05 0.3011600D+05 0.1087200D+05 0.4240100D+04 0.1758400D+04
EXPONENTS  0.7665900D+03 0.3484300D+03 0.1640300D+03 0.7914200D+02 0.3552400D+02
EXPONENTS  0.1730500D+02 0.8378400D+01 0.3740500D+01 0.1689000D+01 0.2552000D+00
EXPONENTS  0.9563600D+07 0.1432100D+07 0.3259100D+06 0.9231200D+05 0.3011600D+05
EXPONENTS  0.1087200D+05 0.4240100D+04 0.1758400D+04 0.7665900D+03 0.3484300D+03
EXPONENTS  0.1640300D+03 0.7914200D+02 0.3552400D+02 0.1730500D+02 0.8378400D+01
EXPONENTS  0.3740500D+01 0.1689000D+01 0.2552000D+00 0.9563600D+07 0.1432100D+07
EXPONENTS  0.3259100D+06 0.9231200D+05 0.3011600D+05 0.1087200D+05 0.4240100D+04
EXPONENTS  0.1758400D+04 0.7665900D+03 0.3484300D+03 0.1640300D+03 0.7914200D+02
EXPONENTS  0.3552400D+02 0.1730500D+02 0.8378400D+01 0.3740500D+01 0.1689000D+01
EXPONENTS  0.2552000D+00 0.9563600D+07 0.1432100D+07 0.3259100D+06 0.9231200D+05
EXPONENTS  0.3011600D+05 0.1087200D+05 0.4240100D+04 0.1758400D+04 0.7665900D+03
EXPONENTS  0.3484300D+03 0.1640300D+03 0.7914200D+02 0.3552400D+02 0.1730500D+02
EXPONENTS  0.8378400D+01 0.3740500D+01 0.1689000D+01 0.2552000D+00 0.5092700D+00
EXPONENTS  0.1065100D+00 0.3920100D-01 0.8004300D+04 0.1896900D+04 0.6147100D+03
EXPONENTS  0.2335000D+03 0.9785600D+02 0.4351400D+02 0.2006300D+02 0.9112700D+01
EXPONENTS  0.4106300D+01 0.1794900D+01 0.2461500D+00 0.8004300D+04 0.1896900D+04
EXPONENTS  0.6147100D+03 0.2335000D+03 0.9785600D+02 0.4351400D+02 0.2006300D+02
EXPONENTS  0.9112700D+01 0.4106300D+01 0.1794900D+01 0.2461500D+00 0.8004300D+04
EXPONENTS  0.1896900D+04 0.6147100D+03 0.2335000D+03 0.9785600D+02 0.4351400D+02
EXPONENTS  0.2006300D+02 0.9112700D+01 0.4106300D+01 0.1794900D+01 0.2461500D+00
EXPONENTS  0.8004300D+04 0.1896900D+04 0.6147100D+03 0.2335000D+03 0.9785600D+02
EXPONENTS  0.4351400D+02 0.2006300D+02 0.9112700D+01 0.4106300D+01 0.1794900D+01
EXPONENTS  0.2461500D+00 0.8004300D+04 0.1896900D+04 0.6147100D+03 0.2335000D+03
EXPONENTS  0.9785600D+02 0.4351400D+02 0.2006300D+02 0.9112700D+01 0.4106300D+01
EXPONENTS  0.1794900D+01 0.2461500D+00 0.8004300D+04 0.1896900D+04 0.6147100D+03
EXPONENTS  0.2335000D+03 0.9785600D+02 0.4351400D+02 0.2006300D+02 0.9112700D+01
EXPONENTS  0.4106300D+01 0.1794900D+01 0.2461500D+00 0.8004300D+04 0.1896900D+04
EXPONENTS  0.6147100D+03 0.2335000D+03 0.9785600D+02 0.4351400D+02 0.2006300D+02
EXPONENTS  0.9112700D+01 0.4106300D+01 0.1794900D+01 0.2461500D+00 0.8004300D+04
EXPONENTS  0.1896900D+04 0.6147100D+03 0.2335000D+03 0.9785600D+02 0.4351400D+02
EXPONENTS  0.2006300D+02 0.9112700D+01 0.4106300D+01 0.1794900D+01 0.2461500D+00
EXPONENTS  0.8004300D+04 0.1896900D+04 0.6147100D+03 0.2335000D+03 0.9785600D+02
EXPONENTS  0.4351400D+02 0.2006300D+02 0.9112700D+01 0.4106300D+01 0.1794900D+01
EXPONENTS  0.2461500D+00 0.6243200D+00 0.6243200D+00 0.6243200D+00 0.8891700D-01
EXPONENTS  0.8891700D-01 0.8891700D-01 0.3025100D-01 0.3025100D-01 0.3025100D-01
EXPONENTS  0.3618500D+03 0.1085500D+03 0.4143300D+02 0.1757900D+02 0.7862700D+01
EXPONENTS  0.3518000D+01 0.1534800D+01 0.3618500D+03 0.1085500D+03 0.4143300D+02
EXPONENTS  0.1757900D+02 0.7862700D+01 0.3518000D+01 0.1534800D+01 0.3618500D+03
EXPONENTS  0.1085500D+03 0.4143300D+02 0.1757900D+02 0.7862700D+01 0.3518000D+01
EXPONENTS  0.1534800D+01 0.3618500D+03 0.1085500D+03 0.4143300D+02 0.1757900D+02
EXPONENTS  0.7862700D+01 0.3518000D+01 0.1534800D+01 0.3618500D+03 0.1085500D+03
EXPONENTS  0.4143300D+02 0.1757900D+02 0.7862700D+01 0.3518000D+01 0.1534800D+01
EXPONENTS  0.3618500D+03 0.1085500D+03 0.4143300D+02 0.1757900D+02 0.7862700D+01
EXPONENTS  0.3518000D+01 0.1534800D+01 0.6081300D+00 0.6081300D+00 0.6081300D+00
EXPONENTS  0.6081300D+00 0.6081300D+00 0.6081300D+00 0.2220000D+00 0.2220000D+00
EXPONENTS  0.2220000D+00 0.2220000D+00 0.2220000D+00 0.2220000D+00 0.8370000D-01
EXPONENTS  0.8370000D-01 0.8370000D-01 0.8370000D-01 0.8370000D-01 0.8370000D-01
EXPONENTS  0.4620000D+00 0.4620000D+00 0.4620000D+00 0.4620000D+00 0.4620000D+00
EXPONENTS  0.4620000D+00 0.4620000D+00 0.4620000D+00 0.4620000D+00 0.4620000D+00
EXPONENTS  0.1880000D+00 0.1880000D+00 0.1880000D+00 0.1880000D+00 0.1880000D+00
EXPONENTS  0.1880000D+00 0.1880000D+00 0.1880000D+00 0.1880000D+00 0.1880000D+00
MO    1     MO 0.0        OCC NO =    2.0000000  ORB. ENERGY = -454.246732
  0.39454516D-05  0.73608491D-05  0.12566309D-04  0.19611061D-04  0.26733046D-04
  0.29013550D-04  0.21146011D-04  0.64705819D-05 -0.30829942D-07 -0.28353042D-05
 -0.52944135D-05 -0.91029099D-05 -0.14288861D-04 -0.20325484D-04 -0.23578106D-04
 -0.22353945D-04 -0.13025655D-04  0.96514777D-05 -0.16555155D-04 -0.16762063D-04
 -0.96135828D-07  0.77347316D-16  0.65170500D-16  0.51470265D-16  0.51840165D-16
  0.43678949D-16  0.34496699D-16 -0.49778736D-05 -0.41942052D-05 -0.33124934D-05
 -0.54725162D-16 -0.96500373D-16  0.18077470D-04 -0.12280484D-16 -0.97023831D-18
 -0.29500674D-05 -0.22063230D-18  0.32085082D-19  0.76489585D-08 -0.17795450D-06
 -0.17795450D-06  0.35590900D-06 -0.71343898D-16 -0.44830706D-16 -0.10382218D-16
 -0.50858891D-05 -0.50858891D-05  0.10171778D-04  0.34745855D-16  0.21782338D-16
 -0.53025079D-16  0.15886434D-07  0.15886434D-07 -0.31772868D-07 -0.28489048D-17
 -0.62489184D-17 -0.18405206D-17 -0.17530802D-17  0.96305558D-17  0.22405921D-05
 -0.32332115D-17 -0.66432796D-17 -0.33608882D-05  0.84924522D-17 -0.22248388D-16
 -0.33608882D-05  0.26106354D-16  0.78690251D-18  0.97032626D-18  0.92947065D-06
  0.12804623D-17  0.26780349D-17 -0.13942060D-05 -0.36411699D-17 -0.55890136D-17
 -0.13942060D-05 -0.54371444D-17  0.77215818D+00  0.14427416D+01  0.25022545D+01
  0.40993321D+01  0.64192285D+01  0.96399695D+01  0.13749357D+02  0.18165686D+02
  0.20949501D+02  0.18855223D+02  0.10578249D+02  0.25573482D+01  0.12141022D+00
 -0.20776937D-02  0.58436572D-03 -0.22772639D-03  0.21540316D-04  0.21239206D-05
  0.77393017D-04  0.14252044D-03  0.24737969D-03  0.40516159D-03  0.63770570D-03
  0.96253231D-03  0.14030917D-02  0.19267397D-02  0.24469349D-02  0.26351937D-02
  0.21023080D-02  0.47090022D-03 -0.12591766D-02 -0.11197535D-02 -0.21869241D-03
 -0.60582296D-05 -0.43871639D-06 -0.89597889D-08 -0.58728179D-04 -0.10602829D-03
 -0.18457506D-03 -0.30224945D-03 -0.47651348D-03 -0.71904573D-03 -0.10523769D-02
 -0.14500371D-02 -0.18680363D-02 -0.20561206D-02 -0.17309201D-02 -0.41219402D-03
  0.13884279D-02  0.18552308D-02  0.22791889D-03 -0.79637958D-03 -0.35154978D-03
  0.17446783D-05  0.20384116D-04  0.44161960D-04  0.75179952D-04  0.12272024D-03
  0.19347373D-03  0.29196273D-03  0.42731223D-03  0.58945043D-03  0.76032944D-03
  0.84055637D-03  0.71188892D-03  0.17292255D-03 -0.59993936D-03 -0.84674561D-03
 -0.10102841D-03  0.47481030D-03  0.37954214D-03 -0.14378852D-03  0.12007578D-03
  0.26340065D-04  0.13379496D-04 -0.32477780D-13 -0.46548191D-13 -0.61468672D-13
 -0.70655140D-13 -0.64998312D-13 -0.41581201D-13 -0.14392866D-13 -0.16181023D-14
 -0.20586206D-16 -0.35672337D-17 -0.36453247D-19  0.10855176D-12  0.15557985D-12
  0.20544915D-12  0.23615345D-12  0.21724641D-12  0.13897848D-12  0.48105842D-13
  0.54082469D-14  0.68806084D-16  0.11922905D-16  0.12183912D-18  0.33497683D-03
  0.48009948D-03  0.63398978D-03  0.72873930D-03  0.67039460D-03  0.42886979D-03
  0.14844847D-03  0.16689158D-04  0.21232676D-06  0.36792559D-07  0.37597991D-09
  0.45250494D-15  0.65270273D-15  0.86931558D-15  0.10288030D-14  0.98864106D-15
  0.67954632D-15  0.21395160D-15 -0.10340087D-15 -0.10611433D-15 -0.26723525D-16
  0.29136181D-19 -0.12775290D-14 -0.18427350D-14 -0.24542846D-14 -0.29045555D-14
 -0.27911688D-14 -0.19185208D-14 -0.60403622D-15  0.29192525D-15  0.29958597D-15
  0.75446865D-16 -0.82258364D-19 -0.19806748D-02 -0.28569673D-02 -0.38051108D-02
 -0.45032087D-02 -0.43274144D-02 -0.29744653D-02 -0.93649480D-03  0.45259948D-03
  0.46447663D-03  0.11697245D-03 -0.12753297D-06 -0.16132201D-14 -0.23386642D-14
 -0.31039918D-14 -0.37043173D-14 -0.35589695D-14 -0.24910890D-14 -0.75216218D-15
  0.46043546D-15  0.49519012D-15  0.13317282D-15 -0.49642483D-16  0.68831070D-14
  0.99783507D-14  0.13243765D-13  0.15805166D-13  0.15185013D-13  0.10628700D-13
  0.32092414D-14 -0.19645345D-14 -0.21128218D-14 -0.56820688D-15  0.21180899D-15
  0.14547535D-02  0.21089372D-02  0.27990867D-02  0.33404422D-02  0.32093720D-02
  0.22463893D-02  0.67827729D-03 -0.41520689D-03 -0.44654759D-03 -0.12009125D-03
  0.44766102D-04  0.16809222D-15 -0.50406344D-15 -0.18172257D-04  0.28733260D-16
  0.20700987D-16 -0.12207919D-04  0.34536291D-17  0.16868622D-17 -0.10109021D-05
 -0.10477331D-03 -0.10845038D-03 -0.90736884D-04 -0.58551056D-04 -0.26301935D-04
 -0.76797393D-05 -0.12956191D-05 -0.10477331D-03 -0.10845038D-03 -0.90736884D-04
 -0.58551056D-04 -0.26301935D-04 -0.76797393D-05 -0.12956191D-05  0.20954661D-03
  0.21690077D-03  0.18147377D-03  0.11710211D-03  0.52603870D-04  0.15359479D-04
  0.25912382D-05  0.24517514D-14  0.25377970D-14  0.21232916D-14  0.13701260D-14
  0.61547934D-15  0.17971000D-15  0.30318179D-16 -0.87810744D-15 -0.90892511D-15
 -0.76046787D-15 -0.49071772D-15 -0.22043711D-15 -0.64364068D-16 -0.10858613D-16
 -0.49555750D-14 -0.51294937D-14 -0.42916793D-14 -0.27693519D-14 -0.12440307D-14
 -0.36323683D-15 -0.61280280D-16  0.57231704D-05  0.57231704D-05 -0.11446341D-04
 -0.81583323D-17 -0.26151817D-16  0.12303056D-15  0.87320327D-06  0.87320327D-06
 -0.17464065D-05 -0.19663821D-16  0.18900555D-16 -0.69480945D-16 -0.75646944D-06
 -0.75646944D-06  0.15129389D-05  0.35576837D-17 -0.67486575D-17 -0.81063492D-17
  0.11895806D-17 -0.17328070D-17  0.31709884D-05  0.27524976D-17  0.50795222D-17
 -0.47564827D-05 -0.63212394D-17  0.11889873D-18 -0.47564827D-05 -0.12093712D-16
  0.44534588D-18 -0.44626039D-17 -0.92783603D-06  0.86948429D-18 -0.73276807D-17
  0.13917541D-05 -0.22055219D-17  0.20715492D-16  0.13917541D-05  0.38272158D-17
MO    2     MO 0.0        OCC NO =    2.0000000  ORB. ENERGY =  -58.191360
  0.10625418D-03  0.19823358D-03  0.33842081D-03  0.52814162D-03  0.71994239D-03
  0.78135820D-03  0.56947904D-03  0.17425797D-03 -0.83027510D-06 -0.76685336D-04
 -0.14319588D-03 -0.24620275D-03 -0.38646508D-03 -0.54973521D-03 -0.63770758D-03
 -0.60459820D-03 -0.35229966D-03  0.26103965D-03 -0.54143281D-03 -0.54599170D-03
 -0.34666784D-05 -0.30410298D-15 -0.25622794D-15 -0.20236334D-15  0.96038145D-15
  0.80918826D-15  0.63907955D-15 -0.17799350D-03 -0.14997192D-03 -0.11844461D-03
  0.41169515D-15 -0.13888039D-14  0.53849014D-03 -0.28539609D-17 -0.96189922D-17
 -0.96955005D-04  0.84845114D-18 -0.11007104D-17  0.23313713D-06 -0.19702792D-05
 -0.19702792D-05  0.39405584D-05  0.13716372D-15 -0.14299435D-15  0.23706992D-15
 -0.15772265D-03 -0.15772265D-03  0.31544530D-03 -0.43593578D-16  0.50239632D-15
 -0.16750593D-14  0.75757837D-06  0.75757837D-06 -0.15151567D-05  0.13603293D-17
 -0.42361536D-17  0.21520174D-17 -0.52411775D-16  0.17572484D-15  0.71759831D-04
 -0.50797136D-16  0.14838675D-15 -0.10763975D-03  0.20803246D-15 -0.67556128D-15
 -0.10763975D-03  0.43700473D-16 -0.15783106D-16  0.57145188D-16  0.28885137D-04
 -0.16093383D-16  0.57263734D-16 -0.43327705D-04  0.63442702D-16 -0.22869930D-15
 -0.43327705D-04 -0.88517787D-17 -0.67536074D-03 -0.12618801D-02 -0.21885729D-02
 -0.35854415D-02 -0.56145167D-02 -0.84315069D-02 -0.12025743D-01 -0.15888443D-01
 -0.18323280D-01 -0.16491540D-01 -0.92521638D-02 -0.22367601D-02 -0.10619028D-03
  0.18172349D-05 -0.51110987D-06  0.19917870D-06 -0.18840031D-07 -0.18576667D-08
  0.24630008D+00  0.45356543D+00  0.78727564D+00  0.12894100D+01  0.20294721D+01
  0.30632194D+01  0.44652815D+01  0.61317696D+01  0.77872693D+01  0.83863951D+01
  0.66905084D+01  0.14986205D+01 -0.40072776D+01 -0.35635694D+01 -0.69597956D+00
 -0.19280066D-01 -0.13961968D-02 -0.28514158D-04 -0.17176826D-02 -0.31011168D-02
 -0.53984539D-02 -0.88401960D-02 -0.13937072D-01 -0.21030659D-01 -0.30779934D-01
 -0.42410705D-01 -0.54636351D-01 -0.60137442D-01 -0.50625974D-01 -0.12055856D-01
  0.40608759D-01  0.54261815D-01  0.66661749D-02 -0.23292521D-01 -0.10282133D-01
  0.51028375D-04  0.61863578D-03  0.13402675D-02  0.22816299D-02  0.37244261D-02
  0.58717176D-02  0.88607517D-02  0.12968462D-01  0.17889181D-01  0.23075173D-01
  0.25509973D-01  0.21605055D-01  0.52480115D-02 -0.18207508D-01 -0.25697810D-01
 -0.30661026D-02  0.14409977D-01  0.11518692D-01 -0.43638253D-02  0.37670179D-02
  0.86773224D-03  0.43744470D-03  0.10649420D-10  0.15263089D-10  0.20155494D-10
  0.23167725D-10  0.21312858D-10  0.13634419D-10  0.47194014D-11  0.53057357D-12
  0.67501890D-14  0.11696911D-14  0.11952970D-16 -0.35732816D-10 -0.51213412D-10
 -0.67629275D-10 -0.77736443D-10 -0.71512668D-10 -0.45748613D-10 -0.15835369D-10
 -0.17802742D-11 -0.22649427D-13 -0.39247542D-14 -0.40106717D-16  0.26416925D-01
  0.37861580D-01  0.49997668D-01  0.57469799D-01  0.52868623D-01  0.33821506D-01
  0.11706935D-01  0.13161394D-02  0.16744502D-04  0.29015328D-05  0.29650508D-07
 -0.28294152D-13 -0.40812085D-13 -0.54356417D-13 -0.64328820D-13 -0.61817580D-13
 -0.42490556D-13 -0.13377929D-13  0.64654323D-14  0.66350985D-14  0.16709640D-14
 -0.18218221D-17  0.95537856D-13  0.13780583D-12  0.18353954D-12  0.21721229D-12
  0.20873285D-12  0.14347335D-12  0.45171831D-13 -0.21831138D-13 -0.22404032D-13
 -0.56421667D-14  0.61515532D-17 -0.59621396D-01 -0.85999166D-01 -0.11453976D+00
 -0.13555360D+00 -0.13026191D+00 -0.89536039D-01 -0.28189952D-01  0.13623949D-01
  0.13981470D-01  0.35210530D-02 -0.38389410D-05 -0.80787392D-13 -0.11711643D-12
 -0.15544277D-12 -0.18550608D-12 -0.17822730D-12 -0.12474961D-12 -0.37667036D-13
  0.23057845D-13  0.24798301D-13  0.66690743D-14 -0.24860134D-14  0.27064923D-12
  0.39235668D-12  0.52075536D-12  0.62147170D-12  0.59708677D-12  0.41792891D-12
  0.12618992D-12 -0.77247057D-13 -0.83077830D-13 -0.22342346D-13  0.83284978D-14
  0.44283183D-01  0.64196755D-01  0.85205136D-01  0.10168418D+00  0.97694356D-01
  0.68380841D-01  0.20646987D-01 -0.12639037D-01 -0.13593058D-01 -0.36556179D-02
  0.13626951D-02  0.62683732D-14 -0.20975338D-13 -0.51089298D-03  0.78034782D-17
  0.22081067D-16 -0.39912407D-03 -0.12254347D-16  0.42847608D-16 -0.32640277D-04
 -0.27804310D-02 -0.28780118D-02 -0.24079382D-02 -0.15538039D-02 -0.69798995D-03
 -0.20380177D-03 -0.34382608D-04 -0.27804310D-02 -0.28780118D-02 -0.24079382D-02
 -0.15538039D-02 -0.69798995D-03 -0.20380177D-03 -0.34382608D-04  0.55608620D-02
  0.57560236D-02  0.48158764D-02  0.31076078D-02  0.13959799D-02  0.40760354D-03
  0.68765215D-04  0.11389672D-14  0.11789399D-14  0.98638039D-15  0.63649545D-15
  0.28592246D-15  0.83484729D-16  0.14084386D-16 -0.11155488D-12 -0.11546996D-12
 -0.96609934D-13 -0.62340841D-13 -0.28004358D-13 -0.81768193D-14 -0.13794795D-14
  0.37104023D-12  0.38406210D-12  0.32133217D-12  0.20735050D-12  0.93144679D-13
  0.27196739D-13  0.45882565D-14  0.18070673D-03  0.18070673D-03 -0.36141347D-03
  0.31303246D-17  0.81949900D-15 -0.27517623D-14  0.21857717D-04  0.21857717D-04
 -0.43715434D-04 -0.10225481D-16  0.48005167D-15 -0.16448583D-14 -0.24310434D-04
 -0.24310434D-04  0.48620868D-04  0.49621162D-17  0.26381174D-16 -0.96721252D-16
  0.41535102D-16 -0.13907012D-15  0.96122296D-04  0.43135409D-16 -0.14054137D-15
 -0.14418344D-03 -0.16774071D-15  0.55775174D-15 -0.14418344D-03 -0.36872826D-16
  0.24612292D-16 -0.84630199D-16 -0.30022462D-04  0.24181560D-16 -0.83501216D-16
  0.45033693D-04 -0.98018437D-16  0.33739181D-15  0.45033693D-04  0.40162210D-17
MO    3     MO 0.0        OCC NO =    2.0000000  ORB. ENERGY =  -52.201623
  0.12896807D-03  0.24060985D-03  0.41076482D-03  0.64104214D-03  0.87384406D-03
  0.94838869D-03  0.69121625D-03  0.21150899D-03 -0.10077625D-05 -0.90302452D-04
 -0.16862336D-03 -0.28992130D-03 -0.45509020D-03 -0.64735242D-03 -0.75094616D-03
 -0.71195750D-03 -0.41485798D-03  0.30739280D-03  0.94810234D-04  0.13710591D-03
 -0.12609517D-05  0.66261721D-15  0.55830115D-15  0.44093429D-15 -0.15691504D-14
 -0.13221185D-14 -0.10441809D-14  0.96026152D-04  0.80908721D-04  0.63899975D-04
 -0.29575591D-14  0.74557264D-14  0.32975426D-03 -0.24017492D-16  0.53661159D-16
  0.46527679D-04 -0.22786193D-17  0.65394442D-17 -0.55781882D-07 -0.99352227D-05
 -0.99352227D-05  0.19870445D-04 -0.30496966D-17  0.61093770D-15 -0.14455315D-14
 -0.44131257D-04 -0.44131257D-04  0.88262514D-04  0.47451767D-17 -0.32405258D-14
  0.83189422D-14 -0.51275253D-05 -0.51275253D-05  0.10255051D-04 -0.63629311D-18
  0.54455196D-17 -0.44731015D-16  0.30557236D-15 -0.84476825D-15 -0.64020277D-05
  0.30652636D-15 -0.84345606D-15  0.96030416D-05 -0.12232434D-14  0.33777608D-14
  0.96030416D-05  0.29551264D-17  0.10794672D-15 -0.27183608D-15  0.93623599D-05
  0.10794790D-15 -0.27339512D-15 -0.14043540D-04 -0.43178808D-15  0.10889033D-14
 -0.14043540D-04 -0.60050456D-18 -0.23564847D-04 -0.44029819D-04 -0.76364205D-04
 -0.12510408D-03 -0.19590305D-03 -0.29419414D-03 -0.41960507D-03 -0.55438331D-03
 -0.63934023D-03 -0.57542672D-03 -0.32282870D-03 -0.78045564D-04 -0.37052165D-05
  0.63407391D-07 -0.17833767D-07  0.69497905D-08 -0.65737084D-09 -0.64818149D-10
 -0.90236312D-05 -0.16617157D-04 -0.28843210D-04 -0.47239776D-04 -0.74353233D-04
 -0.11222636D-03 -0.16359334D-03 -0.22464803D-03 -0.28530013D-03 -0.30725014D-03
 -0.24511839D-03 -0.54904565D-04  0.14681357D-03  0.13055755D-03  0.25498419D-04
  0.70635868D-06  0.51152094D-07  0.10446657D-08 -0.76344432D-04 -0.13783280D-03
 -0.23994066D-03 -0.39291296D-03 -0.61944966D-03 -0.93473249D-03 -0.13680506D-02
 -0.18849939D-02 -0.24283772D-02 -0.26728797D-02 -0.22501313D-02 -0.53583678D-03
  0.18049043D-02  0.24117305D-02  0.29628602D-03 -0.10352636D-02 -0.45700154D-03
  0.22680164D-05  0.31723762D-04  0.68729179D-04  0.11700242D-03  0.19098929D-03
  0.30110281D-03  0.45438106D-03  0.66502524D-03  0.91736064D-03  0.11832993D-02
  0.13081563D-02  0.11079114D-02  0.26911905D-03 -0.93368454D-03 -0.13177886D-02
 -0.15723034D-03  0.73894641D-03  0.59068074D-03 -0.22377780D-03  0.17954873D-03
 -0.57779382D-03 -0.41848773D-04  0.15946957D-08  0.22855687D-08  0.30181812D-08
  0.34692472D-08  0.31914905D-08  0.20416839D-08  0.70670599D-09  0.79450652D-10
  0.10108060D-11  0.17515520D-12  0.17898956D-14 -0.43166975D-08 -0.61868286D-08
 -0.81699445D-08 -0.93909393D-08 -0.86390771D-08 -0.55266543D-08 -0.19129894D-08
 -0.21506575D-09 -0.27361606D-11 -0.47412935D-12 -0.48450860D-14  0.48626952D+02
  0.69693700D+02  0.92033204D+02  0.10578753D+03  0.97317913D+02  0.62256935D+02
  0.21549540D+02  0.24226836D+01  0.30822441D-01  0.53409963D-02  0.54579170D-04
 -0.26433762D-12 -0.38128619D-12 -0.50782387D-12 -0.60099087D-12 -0.57752966D-12
 -0.39696728D-12 -0.12498307D-12  0.60403188D-13  0.61988292D-13  0.15610952D-13
 -0.17020341D-16  0.70941338D-12  0.10232729D-11  0.13628671D-11  0.16129031D-11
  0.15499393D-11  0.10653569D-11  0.33542202D-12 -0.16210644D-12 -0.16636044D-12
 -0.41895733D-13  0.45678167D-16 -0.25245699D-01 -0.36414931D-01 -0.48499977D-01
 -0.57397938D-01 -0.55157263D-01 -0.37912562D-01 -0.11936571D-01  0.57688371D-02
  0.59202233D-02  0.14909319D-02 -0.16255363D-05  0.36406476D-12  0.52777996D-12
  0.70049589D-12  0.83597483D-12  0.80317335D-12  0.56217853D-12  0.16974481D-12
 -0.10390915D-12 -0.11175243D-12 -0.30053885D-13  0.11203108D-13 -0.97669433D-12
 -0.14159011D-11 -0.18792545D-11 -0.22427105D-11 -0.21547124D-11 -0.15081838D-11
 -0.45538270D-12  0.27876215D-12  0.29980371D-12  0.80627025D-13 -0.30055125D-13
  0.23515925D-01  0.34090731D-01  0.45246920D-01  0.53997870D-01  0.51879134D-01
  0.36312628D-01  0.10964275D-01 -0.67117723D-02 -0.72183912D-02 -0.19412615D-02
  0.72363897D-03 -0.42877645D-13  0.11613499D-12 -0.15732654D-02 -0.26099738D-15
  0.10053248D-14  0.30364345D-04  0.68141671D-16 -0.19458379D-15  0.13485966D-05
  0.94017470D-03  0.97317066D-03  0.81422001D-03  0.52540312D-03  0.23601826D-03
  0.68913513D-04  0.11626132D-04  0.94017470D-03  0.97317066D-03  0.81422001D-03
  0.52540312D-03  0.23601826D-03  0.68913513D-04  0.11626132D-04 -0.18803494D-02
 -0.19463413D-02 -0.16284400D-02 -0.10508062D-02 -0.47203652D-03 -0.13782703D-03
 -0.23252264D-04  0.53587453D-15  0.55468135D-15  0.46408371D-15  0.29946578D-15
  0.13452412D-15  0.39278866D-16  0.66265855D-17 -0.14528754D-11 -0.15038648D-11
 -0.12582344D-11 -0.81191850D-12 -0.36472489D-12 -0.10649377D-12 -0.17966151D-13
  0.47857770D-11  0.49537366D-11  0.41446291D-11  0.26744627D-11  0.12014052D-11
  0.35079088D-12  0.59180571D-13 -0.37210111D-04 -0.37210111D-04  0.74420222D-04
 -0.40384376D-17 -0.58123832D-14  0.22785831D-13  0.57333113D-04  0.57333113D-04
 -0.11466623D-03 -0.47260235D-17 -0.32356968D-14  0.77514625D-14 -0.30491150D-05
 -0.30491150D-05  0.60982300D-05  0.11549601D-17 -0.18391161D-15  0.46644169D-15
 -0.26194735D-15  0.75064219D-15  0.32056243D-04 -0.26704222D-15  0.74899066D-15
 -0.48084364D-04  0.10528843D-14 -0.30009172D-14 -0.48084364D-04 -0.35287114D-19
 -0.15638394D-15  0.39074161D-15  0.24963075D-05 -0.15575216D-15  0.38975844D-15
 -0.37444613D-05  0.62490398D-15 -0.15619833D-14 -0.37444613D-05  0.16175646D-17
MO    4     MO 0.0        OCC NO =    2.0000000  ORB. ENERGY =  -52.200825
  0.10541559D-13  0.19666905D-13  0.33574988D-13  0.52397335D-13  0.71426037D-13
  0.77519147D-13  0.56498453D-13  0.17288267D-13 -0.82372229D-16 -0.73901911D-14
 -0.13799834D-13 -0.23726641D-13 -0.37243768D-13 -0.52978164D-13 -0.61456090D-13
 -0.58265328D-13 -0.33951234D-13  0.25156477D-13  0.28439482D-14  0.70003608D-14
 -0.13311038D-15  0.74260285D-05  0.62569462D-05  0.49416021D-05  0.27049031D-04
  0.22790692D-04  0.17999601D-04  0.59518406D-14  0.50148402D-14  0.39606134D-14
 -0.29963374D-04 -0.10914047D-03  0.28196707D-13 -0.66270083D-06 -0.24138630D-05
  0.28621647D-14 -0.14834434D-07 -0.54033870D-07 -0.34096481D-17 -0.87691081D-15
 -0.14203474D-14  0.22972582D-14  0.69960825D-16  0.83436409D-05  0.30391400D-04
 -0.44162426D-14 -0.39726012D-14  0.83888438D-14 -0.21816273D-16 -0.32344633D-04
 -0.11781411D-03 -0.35760421D-15 -0.38968490D-15  0.74728911D-15  0.31413867D-17
 -0.24505390D-06 -0.89259968D-06  0.22436697D-05  0.81724830D-05  0.31061521D-15
  0.22436697D-05  0.81724828D-05 -0.38445503D-15 -0.89746788D-05 -0.32689932D-04
 -0.54739059D-15 -0.86878478D-17  0.11207644D-05  0.40823426D-05  0.81923548D-15
  0.11207645D-05  0.40823426D-05 -0.13207631D-14 -0.44830578D-05 -0.16329370D-04
 -0.11369433D-14 -0.32218502D-17 -0.62664535D-14 -0.11708576D-13 -0.20307059D-13
 -0.33268150D-13 -0.52095281D-13 -0.78233220D-13 -0.11158297D-12 -0.14742371D-12
 -0.17001578D-12 -0.15301965D-12 -0.85847830D-13 -0.20754172D-13 -0.98530521D-15
  0.16861534D-16 -0.47424228D-17  0.18481146D-17 -0.17481054D-18 -0.17236688D-19
  0.16548861D-12  0.30474985D-12  0.52896918D-12  0.86635244D-12  0.13635989D-11
  0.20581719D-11  0.30002151D-11  0.41199257D-11  0.52322531D-11  0.56348047D-11
  0.44953413D-11  0.10069206D-11 -0.26924830D-11 -0.23943563D-11 -0.46762749D-12
 -0.12954244D-13 -0.93810228D-15 -0.19158615D-16 -0.12810973D-13 -0.23129025D-13
 -0.40263229D-13 -0.65932737D-13 -0.10394671D-12 -0.15685273D-12 -0.22956565D-12
 -0.31631129D-12 -0.40749370D-12 -0.44852242D-12 -0.37758315D-12 -0.89916059D-13
  0.30287186D-12  0.40470030D-12  0.49718259D-13 -0.17372235D-12 -0.76687116D-13
  0.38058437D-15  0.58670904D-14  0.12710986D-13  0.21638789D-13  0.35322149D-13
  0.55686883D-13  0.84034635D-13  0.12299182D-12  0.16965951D-12  0.21884303D-12
  0.24193447D-12  0.20490056D-12  0.49771706D-13 -0.17267850D-12 -0.24371590D-12
 -0.29078663D-13  0.13666303D-12  0.10924232D-12 -0.41386157D-13  0.31740293D-13
 -0.38880985D-13 -0.52848154D-15  0.12872617D+02  0.18449446D+02  0.24363201D+02
  0.28004272D+02  0.25762179D+02  0.16480772D+02  0.57046344D+01  0.64133731D+00
  0.81593739D-02  0.14138785D-02  0.14448300D-04  0.46888027D+02  0.67201417D+02
  0.88742049D+02  0.10200451D+03  0.93837774D+02  0.60030595D+02  0.20778917D+02
  0.23360472D+01  0.29720214D-01  0.51499995D-02  0.52627390D-04  0.37408677D-08
  0.53615310D-08  0.70801074D-08  0.81382265D-08  0.74866596D-08  0.47894213D-08
  0.16578045D-08  0.18637686D-09  0.23711680D-11  0.41088244D-12  0.41987714D-14
 -0.22228952D-02 -0.32063512D-02 -0.42704450D-02 -0.50539145D-02 -0.48566221D-02
 -0.33382183D-02 -0.10510205D-02  0.50794873D-03  0.52127835D-03  0.13127723D-03
 -0.14312921D-06 -0.80968127D-02 -0.11679014D-01 -0.15554936D-01 -0.18408695D-01
 -0.17690064D-01 -0.12159335D-01 -0.38283029D-02  0.18501842D-02  0.18987369D-02
  0.47817241D-03 -0.52134280D-06 -0.21909507D-11 -0.31602738D-11 -0.42090758D-11
 -0.49812864D-11 -0.47868292D-11 -0.32902458D-11 -0.10359167D-11  0.50064917D-12
  0.51378723D-12  0.12939069D-12 -0.14107235D-15  0.30542781D-02  0.44277472D-02
  0.58767270D-02  0.70133115D-02  0.67381274D-02  0.47163300D-02  0.14240539D-02
 -0.87173345D-03 -0.93753376D-03 -0.25213350D-03  0.93987143D-04  0.11125094D-01
  0.16127904D-01  0.21405758D-01  0.25545725D-01  0.24543377D-01  0.17179056D-01
  0.51870632D-02 -0.31752565D-02 -0.34149317D-02 -0.91838682D-03  0.34234465D-03
  0.20195259D-11  0.29276804D-11  0.38857635D-11  0.46372870D-11  0.44553319D-11
  0.31184949D-11  0.94160181D-12 -0.57640078D-12 -0.61990875D-12 -0.16671374D-12
  0.62145444D-13 -0.34575961D-03 -0.12594164D-02 -0.12045088D-12  0.15218023D-05
  0.55431078D-05 -0.19929553D-15  0.49520390D-06  0.18037617D-05 -0.63070256D-16
 -0.16375667D-11 -0.16950380D-11 -0.14181828D-11 -0.91513062D-12 -0.41108918D-12
 -0.12003139D-12 -0.20250031D-13  0.30259814D-11  0.31321799D-11  0.26205924D-11
  0.16910262D-11  0.75963210D-12  0.22180028D-12  0.37419066D-13 -0.13884147D-11
 -0.14371419D-11 -0.12024096D-11 -0.77589561D-12 -0.34854291D-12 -0.10176889D-12