 Molden2AIM, Version 4.0.0 (06/02/2016)           Time: Wed Jun 27 19:47:25 2018
GAUSSIAN              7 MOL ORBITALS    150 PRIMITIVES        2 NUCLEI
  F    1    (CENTRE  1)   0.00000000  0.00000000  0.00362260  CHARGE =  9.0
  B    2    (CENTRE  2)   0.00000000  0.00000000  2.39160526  CHARGE =  5.0
CENTRE ASSIGNMENTS    1  1  1  1  1  1  1  1  1  1  1  1  1  1  1  1  1  1  1  1
CENTRE ASSIGNMENTS    1  1  1  1  1  1  1  1  1  1  1  1  1  1  1  1  1  1  1  1
CENTRE ASSIGNMENTS    1  1  1  1  1  1  1  1  1  1  1  1  1  1  1  1  1  1  1  1
CENTRE ASSIGNMENTS    1  1  1  1  1  1  1  1  1  1  1  1  1  1  1  2  2  2  2  2
CENTRE ASSIGNMENTS    2  2  2  2  2  2  2  2  2  2  2  2  2  2  2  2  2  2  2  2
CENTRE ASSIGNMENTS    2  2  2  2  2  2  2  2  2  2  2  2  2  2  2  2  2  2  2  2
CENTRE ASSIGNMENTS    2  2  2  2  2  2  2  2  2  2  2  2  2  2  2  2  2  2  2  2
CENTRE ASSIGNMENTS    2  2  2  2  2  2  2  2  2  2
TYPE ASSIGNMENTS      1  1  1  1  1  1  1  1  1  1  1  1  1  1  1  1  1  1  1  2
TYPE ASSIGNMENTS      2  2  3  3  3  4  4  4  2  3  4  2  3  4  2  3  4  5  6  7
TYPE ASSIGNMENTS      8  9 10  5  6  7  8  9 10  5  6  7  8  9 10 11 12 13 17 14
TYPE ASSIGNMENTS     15 18 19 16 20 11 12 13 17 14 15 18 19 16 20  1  1  1  1  1
TYPE ASSIGNMENTS      1  1  1  1  1  1  1  1  1  1  1  1  1  1  2  2  2  3  3  3
TYPE ASSIGNMENTS      4  4  4  2  3  4  2  3  4  2  3  4  5  6  7  8  9 10  5  6
TYPE ASSIGNMENTS      7  8  9 10  5  6  7  8  9 10 11 12 13 17 14 15 18 19 16 20
TYPE ASSIGNMENTS     11 12 13 17 14 15 18 19 16 20
EXPONENTS  0.1950000D+05 0.2923000D+04 0.6645000D+03 0.1875000D+03 0.6062000D+02
EXPONENTS  0.2142000D+02 0.7950000D+01 0.8815000D+00 0.1950000D+05 0.2923000D+04
EXPONENTS  0.6645000D+03 0.1875000D+03 0.6062000D+02 0.2142000D+02 0.7950000D+01
EXPONENTS  0.8815000D+00 0.2257000D+01 0.3041000D+00 0.9158000D-01 0.4388000D+02
EXPONENTS  0.9926000D+01 0.2930000D+01 0.4388000D+02 0.9926000D+01 0.2930000D+01
EXPONENTS  0.4388000D+02 0.9926000D+01 0.2930000D+01 0.9132000D+00 0.9132000D+00
EXPONENTS  0.9132000D+00 0.2672000D+00 0.2672000D+00 0.2672000D+00 0.7361000D-01
EXPONENTS  0.7361000D-01 0.7361000D-01 0.3107000D+01 0.3107000D+01 0.3107000D+01
EXPONENTS  0.3107000D+01 0.3107000D+01 0.3107000D+01 0.8550000D+00 0.8550000D+00
EXPONENTS  0.8550000D+00 0.8550000D+00 0.8550000D+00 0.8550000D+00 0.2920000D+00
EXPONENTS  0.2920000D+00 0.2920000D+00 0.2920000D+00 0.2920000D+00 0.2920000D+00
EXPONENTS  0.1917000D+01 0.1917000D+01 0.1917000D+01 0.1917000D+01 0.1917000D+01
EXPONENTS  0.1917000D+01 0.1917000D+01 0.1917000D+01 0.1917000D+01 0.1917000D+01
EXPONENTS  0.7240000D+00 0.7240000D+00 0.7240000D+00 0.7240000D+00 0.7240000D+00
EXPONENTS  0.7240000D+00 0.7240000D+00 0.7240000D+00 0.7240000D+00 0.7240000D+00
EXPONENTS  0.5473000D+04 0.8209000D+03 0.1868000D+03 0.5283000D+02 0.1708000D+02
EXPONENTS  0.5999000D+01 0.2208000D+01 0.2415000D+00 0.5473000D+04 0.8209000D+03
EXPONENTS  0.1868000D+03 0.5283000D+02 0.1708000D+02 0.5999000D+01 0.2208000D+01
EXPONENTS  0.2415000D+00 0.5879000D+00 0.8610000D-01 0.2914000D-01 0.1205000D+02
EXPONENTS  0.2613000D+01 0.7475000D+00 0.1205000D+02 0.2613000D+01 0.7475000D+00
EXPONENTS  0.1205000D+02 0.2613000D+01 0.7475000D+00 0.2385000D+00 0.2385000D+00
EXPONENTS  0.2385000D+00 0.7698000D-01 0.7698000D-01 0.7698000D-01 0.2096000D-01
EXPONENTS  0.2096000D-01 0.2096000D-01 0.6610000D+00 0.6610000D+00 0.6610000D+00
EXPONENTS  0.6610000D+00 0.6610000D+00 0.6610000D+00 0.1990000D+00 0.1990000D+00
EXPONENTS  0.1990000D+00 0.1990000D+00 0.1990000D+00 0.1990000D+00 0.6040000D-01
EXPONENTS  0.6040000D-01 0.6040000D-01 0.6040000D-01 0.6040000D-01 0.6040000D-01
EXPONENTS  0.4900000D+00 0.4900000D+00 0.4900000D+00 0.4900000D+00 0.4900000D+00
EXPONENTS  0.4900000D+00 0.4900000D+00 0.4900000D+00 0.4900000D+00 0.4900000D+00
EXPONENTS  0.1630000D+00 0.1630000D+00 0.1630000D+00 0.1630000D+00 0.1630000D+00
EXPONENTS  0.1630000D+00 0.1630000D+00 0.1630000D+00 0.1630000D+00 0.1630000D+00
MO    1     MO 0.0        OCC NO =    2.0000000  ORB. ENERGY =  -24.864013
  0.59356947D+00  0.11064392D+01  0.18756865D+01  0.28403421D+01  0.35518578D+01
  0.30578187D+01  0.11755371D+01 -0.50937949D-02  0.79028854D-03  0.14840219D-02
  0.25270334D-02  0.39585828D-02  0.53049667D-02  0.57062069D-02  0.34259992D-02
 -0.22530812D-02  0.64818330D-01  0.13597121D-03 -0.72139394D-03 -0.47943016D-17
 -0.46887222D-17 -0.30980370D-17  0.13544586D-17  0.13246310D-17  0.87523968D-18
  0.61547142D-02  0.60191760D-02  0.39771241D-02 -0.95290433D-18 -0.12341950D-18
 -0.11639910D-02  0.50565521D-18 -0.74838384D-19 -0.35867830D-03 -0.91434776D-20
  0.15989885D-19 -0.51822938D-04 -0.83491232D-03 -0.83491232D-03  0.16698246D-02
 -0.42838298D-18 -0.47026221D-17 -0.86729418D-18  0.30042905D-03  0.30042905D-03
 -0.60085811D-03 -0.34820929D-18  0.51028955D-18 -0.55488065D-18  0.42342889D-05
  0.42342889D-05 -0.84685778D-05  0.39780398D-19  0.43503776D-19  0.19287961D-19
  0.30123242D-18 -0.10924661D-18 -0.36270818D-04 -0.44836676D-18  0.36734049D-17
  0.54406227D-04 -0.45533051D-18 -0.33456651D-17  0.54406227D-04 -0.12578426D-17
  0.19054885D-19 -0.55423598D-19 -0.95868410D-04 -0.16739704D-19 -0.54240499D-19
  0.14380262D-03 -0.40424952D-19  0.22051129D-18  0.14380262D-03  0.70521256D-19
  0.15821765D-03  0.29482822D-03  0.49686710D-03  0.74132164D-03  0.89794744D-03
  0.74715917D-03  0.27749880D-03 -0.14731828D-05 -0.12854755D-03 -0.24011213D-03
 -0.40867206D-03 -0.62501882D-03 -0.81287405D-03 -0.82281281D-03 -0.54178051D-03
  0.37033687D-03  0.37596749D-04  0.60120927D-03  0.13675642D-04  0.30565866D-18
  0.27547650D-18  0.20001381D-18 -0.17025165D-19 -0.15344022D-19 -0.11140755D-19
 -0.45107652D-03 -0.40653514D-03 -0.29517087D-03 -0.15639281D-18  0.17217908D-20
 -0.54384183D-03  0.25792765D-20 -0.16594212D-20 -0.13063779D-03 -0.12542746D-21
  0.22897124D-21  0.62925834D-06 -0.28175034D-03 -0.28175034D-03  0.56350068D-03
  0.78143375D-20 -0.22237927D-18  0.62930204D-19 -0.52802683D-04 -0.52802683D-04
  0.10560537D-03  0.32721335D-19  0.12530346D-18 -0.84355882D-20 -0.19346270D-05
 -0.19346270D-05  0.38692540D-05 -0.14888360D-20 -0.48575940D-20  0.29711938D-21
  0.34170516D-19  0.20659631D-20 -0.10117716D-03  0.40860143D-19 -0.17870030D-20
  0.15176573D-03 -0.14337169D-18 -0.44108862D-20  0.15176573D-03  0.35629661D-19
  0.35970857D-20  0.99457152D-21 -0.61147331D-05  0.33324909D-20  0.13887489D-20
  0.91720997D-05 -0.14123748D-19 -0.43724634D-20  0.91720997D-05 -0.13076533D-19
MO    2     MO 0.0        OCC NO =    2.0000000  ORB. ENERGY =   -6.894634
  0.12359912D-02  0.23039411D-02  0.39057465D-02  0.59144514D-02  0.73960422D-02
  0.63673034D-02  0.24478239D-02 -0.10606822D-04 -0.11131154D-02 -0.20902336D-02
 -0.35593074D-02 -0.55756339D-02 -0.74720054D-02 -0.80371493D-02 -0.48254939D-02
  0.31734478D-02  0.61891314D-03 -0.89359303D-02 -0.57719102D-02  0.31568108D-15
  0.30872921D-15  0.20399044D-15  0.13975774D-16  0.13668001D-16  0.90310264D-17
  0.53396558D-02  0.52220667D-02  0.34504403D-02 -0.11157013D-15  0.14528995D-15
 -0.13770145D-02  0.48524921D-16 -0.61962178D-16 -0.66916990D-02 -0.21679139D-17
  0.82462840D-17 -0.57991201D-03 -0.21273036D-02 -0.21273036D-02  0.42546072D-02
 -0.83847150D-15  0.89713831D-16  0.33878927D-15  0.11941243D-02  0.11941243D-02
 -0.23882485D-02 -0.15128850D-15 -0.39597657D-16 -0.71831083D-16  0.66314721D-03
  0.66314721D-03 -0.13262944D-02  0.11240153D-16  0.14932638D-16 -0.34676885D-16
  0.23868886D-16  0.82251602D-16  0.23623587D-02 -0.11960065D-15 -0.47295565D-15
 -0.35435381D-02  0.47993989D-16  0.22620084D-15 -0.35435381D-02  0.30644329D-16
 -0.30178471D-17  0.14927213D-16 -0.10095126D-02  0.86736919D-17 -0.18469350D-16
  0.15142689D-02  0.37984944D-18 -0.26312288D-16  0.15142689D-02  0.64916315D-18
  0.25261922D+00  0.47073938D+00  0.79332605D+00  0.11836360D+01  0.14337135D+01
  0.11929565D+01  0.44307024D+00 -0.23521667D-02 -0.17899183D-02 -0.33433630D-02
 -0.56904206D-02 -0.87028704D-02 -0.11318599D-01 -0.11456988D-01 -0.75438458D-02
  0.51566348D-02  0.25641926D-01  0.54832470D-02 -0.69801505D-05  0.35936772D-16
  0.32388209D-16  0.23515940D-16 -0.65498370D-16 -0.59030757D-16 -0.42860158D-16
 -0.73180559D-02 -0.65954371D-02 -0.47887151D-02 -0.59809494D-17  0.26639676D-16
 -0.58217942D-02 -0.19792869D-17 -0.26451175D-17 -0.89997519D-03  0.34458626D-18
 -0.64852628D-18  0.98489321D-05 -0.18777620D-02 -0.18777620D-02  0.37555240D-02
 -0.28943970D-16  0.16911273D-16 -0.30755054D-16 -0.37640530D-03 -0.37640530D-03
  0.75281060D-03  0.44494324D-17  0.19005924D-16 -0.18291504D-16 -0.75342425D-05
 -0.75342425D-05  0.15068485D-04 -0.44517355D-18 -0.52447351D-18  0.23559602D-17
  0.45406392D-17 -0.16354765D-16 -0.61076127D-03  0.36656695D-17 -0.96412757D-17
  0.91614191D-03 -0.17287587D-16  0.58705570D-16  0.91614191D-03 -0.31575217D-17
  0.14154016D-17 -0.11407852D-17 -0.54774395D-05  0.14338646D-17 -0.12717711D-17
  0.82161593D-05 -0.56800695D-17  0.46941266D-17  0.82161593D-05 -0.19589900D-17
MO    3     MO 0.0        OCC NO =    2.0000000  ORB. ENERGY =   -1.334662
  0.55900951D-02  0.10420179D-01  0.17664766D-01  0.26749662D-01  0.33450546D-01
  0.28797804D-01  0.11070927D-01 -0.47972140D-04  0.12676006D+00  0.23803294D+00
  0.40532904D+00  0.63494555D+00  0.85090173D+00  0.91525954D+00  0.54952063D+00
 -0.36138788D+00 -0.21127221D+00 -0.79992389D-01  0.47774455D-02 -0.26179597D-15
 -0.25603074D-15 -0.16917034D-15  0.90874274D-16  0.88873055D-16  0.58722185D-16
 -0.35342937D+00 -0.34564620D+00 -0.22838306D+00 -0.24608945D-16  0.19406407D-16
 -0.79902707D-01 -0.11183717D-16  0.22826596D-17 -0.14145987D-02  0.24591980D-18
 -0.59708527D-18  0.72611964D-03  0.14158267D-01  0.14158267D-01 -0.28316535D-01
 -0.13654116D-15  0.48014335D-16 -0.76987801D-16  0.54421000D-02  0.54421000D-02
 -0.10884200D-01 -0.10299625D-16  0.93961117D-17 -0.68230643D-17  0.20685131D-03
  0.20685131D-03 -0.41370263D-03  0.42492741D-19 -0.38864413D-17 -0.60141259D-17
  0.92637786D-17 -0.12397414D-16 -0.72190215D-02 -0.49693274D-16  0.56086178D-17
  0.10828532D-01  0.21901939D-16  0.31583624D-16  0.10828532D-01  0.19420304D-16
 -0.12552112D-17  0.17055963D-17 -0.21937237D-02  0.34101608D-17  0.13558423D-17
  0.32905855D-02  0.35547272D-18 -0.64726313D-17  0.32905855D-02  0.56707359D-17
  0.75800294D-02  0.14124888D-01  0.23804344D-01  0.35515885D-01  0.43019651D-01
  0.35795555D-01  0.13294655D-01 -0.70578529D-04  0.89752673D-02  0.16764774D-01
  0.28533729D-01  0.43639190D-01  0.56755356D-01  0.57449286D-01  0.37827442D-01
 -0.25857144D-01 -0.10583437D-01 -0.48701586D-02 -0.15886253D-03 -0.14918778D-16
 -0.13445629D-16 -0.97623987D-17  0.20135265D-16  0.18147016D-16  0.13175910D-16
  0.96734236D-01  0.87182249D-01  0.63299967D-01  0.84136945D-17  0.40096285D-17
  0.16919366D-01 -0.15451753D-17  0.21278342D-17  0.86065274D-03 -0.32375251D-19
  0.62057907D-20 -0.11933700D-04  0.10649553D-01  0.10649553D-01 -0.21299107D-01
  0.14884605D-17  0.71193269D-17 -0.15128770D-16  0.11508535D-02  0.11508535D-02
 -0.23017069D-02  0.13069163D-17 -0.19461014D-17 -0.51151474D-18 -0.95123855D-05
 -0.95123855D-05  0.19024771D-04  0.24176933D-19  0.38836682D-18 -0.18105845D-18
 -0.10812781D-17 -0.16146976D-17  0.32469392D-02 -0.17854582D-17 -0.23680826D-17
 -0.48704088D-02  0.50292926D-17  0.72121753D-17 -0.48704088D-02 -0.38101441D-17
 -0.86221573D-19 -0.23084565D-18  0.70269121D-04 -0.77932396D-19 -0.25587190D-18
 -0.10540368D-03  0.33659711D-18  0.94840885D-18 -0.10540368D-03 -0.39863908D-18
MO    4     MO 0.0        OCC NO =    2.0000000  ORB. ENERGY =   -0.642535
 -0.10576068D-02 -0.19714249D-02 -0.33420498D-02 -0.50608484D-02 -0.63286086D-02
 -0.54483425D-02 -0.20945418D-02  0.90759924D-05 -0.34768279D-01 -0.65288671D-01
 -0.11117535D+00 -0.17415552D+00 -0.23338889D+00 -0.25104122D+00 -0.15072482D+00
  0.99122981D-01  0.64636242D-01  0.78864258D-01  0.13541183D-01 -0.37971084D-13
 -0.37134891D-13 -0.24536592D-13 -0.14846962D-13 -0.14520005D-13 -0.95939809D-14
 -0.23436135D+01 -0.22920028D+01 -0.15144232D+01 -0.84433122D-14 -0.33286654D-14
 -0.51396116D+00 -0.13192012D-14 -0.54748882D-15 -0.55344259D-01 -0.31708412D-16
 -0.13124158D-16 -0.90338692D-04  0.34496649D-01  0.34496649D-01 -0.68993298D-01
 -0.18272186D-15 -0.12773880D-14 -0.42272555D-15  0.97156272D-02  0.97156272D-02
 -0.19431254D-01 -0.37888058D-16 -0.57069286D-15 -0.23740180D-15  0.55071993D-03
  0.55071993D-03 -0.11014399D-02  0.19081218D-17 -0.94316681D-16 -0.28922945D-16
  0.10236446D-15  0.32601076D-16 -0.13527226D-01  0.92287759D-16  0.11911835D-15
  0.20290839D-01 -0.39938114D-15 -0.21692158D-15  0.20290839D-01  0.30183174D-16
  0.34291535D-16  0.13008829D-16 -0.26277725D-02  0.33601890D-16  0.22312784D-16
  0.39416588D-02 -0.13647650D-15 -0.61339271D-16  0.39416588D-02  0.38964659D-18
  0.66461429D-02  0.12384652D-01  0.20871564D-01  0.31140202D-01  0.37719477D-01
  0.31385416D-01  0.11656707D-01 -0.61883004D-04  0.20939611D-01  0.39112802D-01
  0.66570186D-01  0.10181175D+00  0.13241222D+00  0.13403119D+00  0.88252740D-01
 -0.60325617D-01 -0.27086955D-01 -0.13410885D-01 -0.95641356D-04 -0.18241639D-14
 -0.16440375D-14 -0.11936778D-14 -0.73966014D-15 -0.66662267D-15 -0.48401129D-15
  0.16207759D+00  0.14607330D+00  0.10605869D+00 -0.27130277D-15 -0.11879808D-15
  0.32297462D-01 -0.36636609D-17  0.55572447D-17  0.22000883D-02  0.34475899D-18
  0.12966553D-18 -0.11435527D-04  0.11777299D-01  0.11777299D-01 -0.23554599D-01
 -0.74885755D-17  0.58131285D-15  0.21816848D-15  0.20267316D-02  0.20267316D-02
 -0.40534631D-02  0.50342889D-17  0.98114954D-17 -0.53303072D-17  0.16668705D-04
  0.16668705D-04 -0.33337410D-04 -0.53388308D-18 -0.22379834D-17 -0.14962968D-17
  0.28589841D-16  0.96713822D-17  0.30136075D-02  0.28984225D-16  0.91005897D-17
 -0.45204112D-02 -0.11475375D-15 -0.38114736D-16 -0.45204112D-02  0.37923716D-17
 -0.18866042D-17 -0.20122786D-17  0.28216794D-03 -0.19246312D-17 -0.19762739D-17
 -0.42325191D-03  0.75844439D-17  0.80131097D-17 -0.42325191D-03  0.22993921D-18
MO    5     MO 0.0        OCC NO =    2.0000000  ORB. ENERGY =   -0.549839
  0.27968427D-16  0.52134359D-16  0.88380556D-16  0.13383421D-15  0.16736015D-15
  0.14408150D-15  0.55390188D-16 -0.24001475D-18  0.55074274D-15  0.10341973D-14
  0.17610597D-14  0.27586896D-14  0.36969686D-14  0.39765882D-14  0.23875383D-14
 -0.15701456D-14 -0.10391258D-14 -0.13974163D-14 -0.33142731D-15 -0.20902252D+01
 -0.20441946D+01 -0.13506858D+01 -0.13975726D+01 -0.13667955D+01 -0.90309957D+00
  0.36137436D-13  0.35341623D-13  0.23351704D-13 -0.46776573D+00 -0.31275892D+00
  0.77774978D-14 -0.75499536D-01 -0.50480726D-01  0.87677840D-15 -0.18544135D-02
 -0.12399035D-02 -0.21918111D-16 -0.62407671D-15 -0.47699535D-15  0.11010721D-14
  0.46303178D-16 -0.70012196D-01 -0.46811764D-01 -0.11245416D-15 -0.15207879D-15
  0.26453295D-15  0.12480535D-15 -0.31295949D-01 -0.20925191D-01 -0.20862986D-16
 -0.16795507D-16  0.37658494D-16  0.53536063D-17 -0.64970496D-02 -0.43440768D-02
  0.55578796D-02  0.37161261D-02  0.24367107D-15  0.55578130D-02  0.37160816D-02
 -0.38953681D-15 -0.22231452D-01 -0.14864460D-01 -0.34147640D-15  0.14547042D-15
  0.21668742D-02  0.14488219D-02  0.51508620D-16  0.21668812D-02  0.14488266D-02
  0.29951660D-16 -0.86675039D-02 -0.57952924D-02 -0.18447752D-15 -0.12274476D-15
 -0.11256593D-15 -0.20975924D-15 -0.35350233D-15 -0.52742258D-15 -0.63885597D-15
 -0.53157576D-15 -0.19743000D-15  0.10481144D-17 -0.35318286D-15 -0.65970524D-15
 -0.11228216D-14 -0.17172318D-14 -0.22333618D-14 -0.22606684D-14 -0.14885355D-14
  0.10174962D-14  0.42679320D-15  0.40202223D-15 -0.10936631D-17 -0.10106985D+00
 -0.91089747D-01 -0.66137063D-01 -0.67577627D-01 -0.60904699D-01 -0.44220761D-01
 -0.23184539D-14 -0.20895191D-14 -0.15171263D-14 -0.14221965D-01 -0.95091326D-02
 -0.50739258D-15  0.18977026D-03  0.12688476D-03 -0.72923165D-16  0.99202012D-05
  0.66328746D-05  0.14945126D-17 -0.18164263D-15 -0.18225241D-15  0.36389504D-15
  0.55153005D-17  0.31705528D-01  0.21199045D-01 -0.45440450D-16 -0.45409045D-16
  0.90849495D-16 -0.69601666D-17 -0.10396624D-02 -0.69514217D-03  0.22500857D-17
 -0.20368165D-17 -0.21326923D-18  0.34517743D-17 -0.95243542D-04 -0.63682022D-04
  0.13788036D-02  0.92189980D-03 -0.73308436D-16  0.13788090D-02  0.92190337D-03
  0.13290935D-15 -0.55152198D-02 -0.36876028D-02  0.87015962D-16 -0.96591734D-17
 -0.16469899D-03 -0.11012153D-03 -0.45069766D-17 -0.16469920D-03 -0.11012167D-03
  0.73320417D-17  0.65879615D-03  0.44048626D-03  0.61888881D-17 -0.61055318D-17
MO    6     MO 0.0        OCC NO =    2.0000000  ORB. ENERGY =   -0.549839
  0.45363010D-17  0.84558616D-17  0.14334764D-16  0.21707058D-16  0.27144752D-16
  0.23369103D-16  0.89839364D-17 -0.38928867D-19 -0.10935305D-15 -0.20534566D-15
 -0.34966825D-15 -0.54775324D-15 -0.73405378D-15 -0.78957381D-15 -0.47405908D-15
  0.31176120D-15  0.19591424D-15  0.23947708D-15  0.11060424D-15  0.13975726D+01
  0.13667955D+01  0.90309957D+00 -0.20902252D+01 -0.20441946D+01 -0.13506858D+01
 -0.71092219D-14 -0.69526637D-14 -0.45939189D-14  0.31275892D+00 -0.46776573D+00
 -0.15169196D-14  0.50480726D-01 -0.75499536D-01 -0.14045693D-15  0.12399035D-02
 -0.18544135D-02 -0.27323555D-17  0.57120865D-16  0.56440855D-16 -0.11356172D-15
 -0.17952753D-15  0.46811764D-01 -0.70012196D-01  0.53347284D-16 -0.81068802D-17
 -0.45240404D-16 -0.34894534D-16  0.20925191D-01 -0.31295949D-01 -0.38698839D-17
  0.12019302D-16 -0.81494186D-17  0.14643400D-18  0.43440768D-02 -0.64970496D-02
 -0.37161261D-02  0.55578796D-02 -0.16155351D-16 -0.37160816D-02  0.55578130D-02
  0.19994887D-15  0.14864460D-01 -0.22231452D-01 -0.15148282D-15  0.15689505D-15
 -0.14488219D-02  0.21668742D-02 -0.80365307D-17 -0.14488266D-02  0.21668812D-02
 -0.49835077D-16  0.57952924D-02 -0.86675039D-02  0.73944669D-16  0.12332402D-15
  0.17698428D-16  0.32979862D-16  0.55580189D-16  0.82925186D-16  0.10044555D-15
  0.83578180D-16  0.31041371D-16 -0.16479211D-18  0.80060608D-16  0.14954407D-15
  0.25452476D-15  0.38926753D-15  0.50626552D-15  0.51245547D-15  0.33742594D-15
 -0.23064925D-15 -0.10069829D-15 -0.97321444D-16  0.42723000D-17  0.67577627D-01
  0.60904699D-01  0.44220761D-01 -0.10106985D+00 -0.91089747D-01 -0.66137063D-01
  0.48024607D-15  0.43282435D-15  0.31425854D-15  0.95091326D-02 -0.14221965D-01
  0.11948173D-15 -0.12688476D-03  0.18977026D-03  0.10424551D-16 -0.66328746D-05
  0.99202012D-05  0.12751790D-17  0.70718215D-16  0.15703256D-17 -0.72288541D-16
  0.12144702D-16 -0.21199045D-01  0.31705528D-01  0.10770636D-16  0.12966402D-16
 -0.23737038D-16  0.17489533D-16  0.69514217D-03 -0.10396624D-02 -0.43225473D-18
  0.13513320D-17 -0.91907728D-18 -0.10061806D-19  0.63682022D-04 -0.95243542D-04
 -0.92189980D-03  0.13788036D-02  0.18332636D-17 -0.92190337D-03  0.13788090D-02
 -0.63823135D-17  0.36876028D-02 -0.55152198D-02  0.88252275D-18  0.45857977D-17
  0.11012153D-03 -0.16469899D-03  0.10536643D-17  0.11012167D-03 -0.16469920D-03
  0.60484177D-18 -0.44048626D-03  0.65879615D-03 -0.37658348D-17 -0.62405295D-17
MO    7     MO 0.0        OCC NO =    2.0000000  ORB. ENERGY =   -0.295619
  0.41119933D-02  0.76649337D-02  0.12993947D-01  0.19676665D-01  0.24605739D-01
  0.21183249D-01  0.81436144D-02 -0.35287614D-04 -0.17414999D-01 -0.32702283D-01
 -0.55686348D-01 -0.87232335D-01 -0.11690159D+00 -0.12574342D+00 -0.75496186D-01
  0.49649468D-01  0.31109407D-01  0.43468235D-02 -0.44076223D-02 -0.18914451D-14
 -0.18497920D-14 -0.12222358D-14 -0.80927771D-15 -0.79145592D-15 -0.52294839D-15
  0.65724106D+00  0.64276740D+00  0.42470360D+00 -0.45743123D-15 -0.14715207D-15
  0.14685523D+00 -0.87926996D-16 -0.21764891D-16  0.11524560D-01 -0.27939949D-17
 -0.10249099D-16  0.57459848D-03 -0.74052851D-02 -0.74052851D-02  0.14810570D-01
  0.11943611D-15 -0.13117412D-16 -0.18597282D-15 -0.25098065D-03 -0.25098065D-03
  0.50196130D-03  0.76787670D-17 -0.53230935D-16 -0.34438485D-16  0.76596560D-03
  0.76596560D-03 -0.15319312D-02 -0.62126004D-17 -0.85055564D-17 -0.10816783D-16
  0.18049466D-17 -0.19016329D-17  0.59824341D-02  0.31583561D-16  0.42877355D-16
 -0.89736511D-02 -0.36998401D-16 -0.37172456D-16 -0.89736511D-02 -0.26293537D-16
  0.21711974D-17  0.29053874D-18 -0.53125715D-03 -0.45013301D-18  0.20978358D-17
  0.79688572D-03 -0.60634591D-17 -0.29694520D-17  0.79688572D-03  0.38673867D-18
  0.28149200D-02  0.52454192D-02  0.88399821D-02  0.13189181D-01  0.15975779D-01
  0.13293039D-01  0.49371037D-02 -0.26210046D-04  0.38395878D-01  0.71719114D-01
  0.12206629D+00  0.18668693D+00  0.24279742D+00  0.24576603D+00  0.16182447D+00
 -0.11061595D+00 -0.42672892D-01 -0.47160267D-01 -0.17814492D-02 -0.76706502D-16
 -0.69132146D-16 -0.50194421D-16 -0.59515349D-16 -0.53638528D-16 -0.38945049D-16
 -0.23562175D+00 -0.21235537D+00 -0.15418377D+00 -0.95543227D-17 -0.53833424D-17
 -0.57201644D-01  0.82289234D-17  0.23282117D-17 -0.51645435D-02 -0.52772457D-18
  0.92250938D-18 -0.13289728D-04 -0.12034386D-01 -0.12034386D-01  0.24068773D-01
 -0.17138085D-18  0.29886053D-16  0.12192658D-16 -0.19026060D-02 -0.19026060D-02
  0.38052120D-02 -0.62842988D-17 -0.81378371D-17  0.45809375D-17 -0.26369563D-04
 -0.26369563D-04  0.52739126D-04  0.11108527D-17 -0.36829604D-18 -0.72689513D-18
  0.12136776D-17  0.18896719D-18 -0.17878204D-02  0.12838325D-17 -0.15568655D-18
  0.26817306D-02 -0.49248653D-17 -0.41121502D-18  0.26817306D-02  0.41100240D-17
 -0.10543125D-17  0.20597828D-18  0.94580227D-05 -0.10579822D-17  0.83529105D-19
 -0.14187034D-04  0.42209197D-17 -0.70146395D-18 -0.14187034D-04  0.39533695D-18
END DATA
RHF
