 Molden2AIM, Version 4.0.0 (06/02/2016)           Time: Wed Jun 27 19:54:42 2018
GAUSSIAN              3 MOL ORBITALS    102 PRIMITIVES        2 NUCLEI
  B    1    (CENTRE  1)   0.00000000  0.00000000  2.65025774  CHARGE =  5.0
  H    2    (CENTRE  2)   0.00000000  0.00000000  0.30508494  CHARGE =  1.0
CENTRE ASSIGNMENTS    1  1  1  1  1  1  1  1  1  1  1  1  1  1  1  1  1  1  1  1
CENTRE ASSIGNMENTS    1  1  1  1  1  1  1  1  1  1  1  1  1  1  1  1  1  1  1  1
CENTRE ASSIGNMENTS    1  1  1  1  1  1  1  1  1  1  1  1  1  1  1  1  1  1  1  1
CENTRE ASSIGNMENTS    1  1  1  1  1  1  1  1  1  1  1  1  1  1  1  2  2  2  2  2
CENTRE ASSIGNMENTS    2  2  2  2  2  2  2  2  2  2  2  2  2  2  2  2  2  2  2  2
CENTRE ASSIGNMENTS    2  2
TYPE ASSIGNMENTS      1  1  1  1  1  1  1  1  1  1  1  1  1  1  1  1  1  1  1  2
TYPE ASSIGNMENTS      2  2  3  3  3  4  4  4  2  3  4  2  3  4  2  3  4  5  6  7
TYPE ASSIGNMENTS      8  9 10  5  6  7  8  9 10  5  6  7  8  9 10 11 12 13 17 14
TYPE ASSIGNMENTS     15 18 19 16 20 11 12 13 17 14 15 18 19 16 20  1  1  1  1  1
TYPE ASSIGNMENTS      1  2  3  4  2  3  4  2  3  4  5  6  7  8  9 10  5  6  7  8
TYPE ASSIGNMENTS      9 10
EXPONENTS  0.5473000D+04 0.8209000D+03 0.1868000D+03 0.5283000D+02 0.1708000D+02
EXPONENTS  0.5999000D+01 0.2208000D+01 0.2415000D+00 0.5473000D+04 0.8209000D+03
EXPONENTS  0.1868000D+03 0.5283000D+02 0.1708000D+02 0.5999000D+01 0.2208000D+01
EXPONENTS  0.2415000D+00 0.5879000D+00 0.8610000D-01 0.2914000D-01 0.1205000D+02
EXPONENTS  0.2613000D+01 0.7475000D+00 0.1205000D+02 0.2613000D+01 0.7475000D+00
EXPONENTS  0.1205000D+02 0.2613000D+01 0.7475000D+00 0.2385000D+00 0.2385000D+00
EXPONENTS  0.2385000D+00 0.7698000D-01 0.7698000D-01 0.7698000D-01 0.2096000D-01
EXPONENTS  0.2096000D-01 0.2096000D-01 0.6610000D+00 0.6610000D+00 0.6610000D+00
EXPONENTS  0.6610000D+00 0.6610000D+00 0.6610000D+00 0.1990000D+00 0.1990000D+00
EXPONENTS  0.1990000D+00 0.1990000D+00 0.1990000D+00 0.1990000D+00 0.6040000D-01
EXPONENTS  0.6040000D-01 0.6040000D-01 0.6040000D-01 0.6040000D-01 0.6040000D-01
EXPONENTS  0.4900000D+00 0.4900000D+00 0.4900000D+00 0.4900000D+00 0.4900000D+00
EXPONENTS  0.4900000D+00 0.4900000D+00 0.4900000D+00 0.4900000D+00 0.4900000D+00
EXPONENTS  0.1630000D+00 0.1630000D+00 0.1630000D+00 0.1630000D+00 0.1630000D+00
EXPONENTS  0.1630000D+00 0.1630000D+00 0.1630000D+00 0.1630000D+00 0.1630000D+00
EXPONENTS  0.3387000D+02 0.5095000D+01 0.1159000D+01 0.3258000D+00 0.1027000D+00
EXPONENTS  0.2526000D-01 0.1407000D+01 0.1407000D+01 0.1407000D+01 0.3880000D+00
EXPONENTS  0.3880000D+00 0.3880000D+00 0.1020000D+00 0.1020000D+00 0.1020000D+00
EXPONENTS  0.1057000D+01 0.1057000D+01 0.1057000D+01 0.1057000D+01 0.1057000D+01
EXPONENTS  0.1057000D+01 0.2470000D+00 0.2470000D+00 0.2470000D+00 0.2470000D+00
EXPONENTS  0.2470000D+00 0.2470000D+00
MO    1     MO 0.0        OCC NO =    2.0000000  ORB. ENERGY =   -6.882442
  0.25188645D+00  0.46937391D+00  0.79102486D+00  0.11802026D+01  0.14295548D+01
  0.11894961D+01  0.44178503D+00 -0.23453438D-02 -0.11725971D-02 -0.21902775D-02
 -0.37278633D-02 -0.57013556D-02 -0.74149512D-02 -0.75056115D-02 -0.49420645D-02
  0.33781738D-02  0.23869404D-01  0.34709312D-02 -0.20469745D-03 -0.13989805D-17
 -0.12608387D-17 -0.91545066D-18  0.29906009D-17  0.26952951D-17  0.19569590D-17
 -0.42349559D-02 -0.38167768D-02 -0.27712274D-02  0.13502154D-18 -0.27345383D-19
 -0.36838022D-02  0.78090451D-19 -0.55200978D-19 -0.47742480D-03  0.94306233D-20
 -0.51406258D-20  0.14999039D-04 -0.13555937D-02 -0.13555937D-02  0.27111874D-02
 -0.16819820D-17 -0.13416547D-17 -0.94551852D-18 -0.24167447D-03 -0.24167447D-03
  0.48334894D-03  0.26998560D-19 -0.29275530D-18  0.79546355D-20 -0.95737839D-06
 -0.95737839D-06  0.19147568D-05  0.44456066D-20  0.10232411D-20  0.20568822D-19
 -0.11162857D-18  0.12935046D-18 -0.52678267D-03 -0.22194332D-18 -0.25261795D-18
  0.79017400D-03  0.55682903D-18 -0.13543344D-18  0.79017400D-03  0.58659495D-19
  0.12689156D-21  0.17880588D-20 -0.45890241D-05  0.66113258D-20  0.47632092D-20
  0.68835362D-05 -0.69920005D-20 -0.10127386D-19  0.68835362D-05 -0.38324615D-20
  0.31934458D-03  0.57595110D-03  0.84923957D-03 -0.48138441D-02 -0.39197296D-02
  0.80343807D-04  0.31258365D-18 -0.29509879D-19  0.33631055D-03 -0.44862609D-18
  0.16348561D-18 -0.51500332D-02 -0.88916869D-19  0.76639762D-19 -0.88984044D-03
  0.13777016D-02  0.13777016D-02 -0.27554032D-02  0.87695482D-18 -0.23113025D-18
 -0.20352640D-18  0.27840971D-03  0.27840971D-03 -0.55681942D-03 -0.64462048D-19
 -0.18736871D-18  0.21971769D-19
MO    2     MO 0.0        OCC NO =    2.0000000  ORB. ENERGY =   -0.497573
  0.59386312D-02  0.11066250D-01  0.18649693D-01  0.27825188D-01  0.33704070D-01
  0.28044298D-01  0.10415798D-01 -0.55295281D-04  0.36468878D-01  0.68119697D-01
  0.11594007D+00  0.17731754D+00  0.23061198D+00  0.23343160D+00  0.15370287D+00
 -0.10506439D+00 -0.43100752D-01 -0.17798554D-01  0.10314944D-02  0.48988537D-16
  0.44151182D-16  0.32056621D-16 -0.62581595D-16 -0.56401998D-16 -0.40951508D-16
  0.14749328D+00  0.13292911D+00  0.96515151D-01  0.73089866D-17 -0.23992570D-16
  0.31692095D-01  0.79496888D-18 -0.15159463D-17  0.80635493D-03 -0.55069330D-18
 -0.35154851D-18 -0.61658510D-04  0.67573683D-02  0.67573683D-02 -0.13514737D-01
 -0.16982310D-16 -0.33337842D-17  0.14414168D-16  0.99198652D-03  0.99198652D-03
 -0.19839730D-02  0.79904818D-17  0.84582616D-17  0.27881637D-17  0.31820801D-05
  0.31820801D-05 -0.63641603D-05 -0.11192948D-17  0.63704923D-18  0.64818378D-18
  0.19260499D-17 -0.51639564D-18  0.17446697D-02  0.35093276D-17 -0.12534956D-17
 -0.26170046D-02 -0.92874772D-17  0.28026825D-17 -0.26170046D-02 -0.29129713D-17
  0.22200237D-18  0.17269808D-18  0.11347260D-03  0.12542647D-18  0.32997894D-18
 -0.17020889D-03 -0.79143359D-18 -0.84807317D-18 -0.17020889D-03  0.48087474D-18
 -0.40381918D-01 -0.72830452D-01 -0.10738846D+00 -0.66133924D-01 -0.16590923D-01
 -0.82802371D-03 -0.92164169D-17  0.17753421D-17 -0.19515481D-01  0.12750739D-16
  0.58844191D-17 -0.75383925D-02  0.53156717D-17  0.53641475D-17 -0.14902245D-02
  0.14936276D-02  0.14936276D-02 -0.29872551D-02 -0.13276100D-16 -0.94137336D-18
 -0.49450999D-17  0.39459917D-03  0.39459917D-03 -0.78919835D-03  0.16651666D-17
  0.37195236D-17  0.54820405D-17
MO    3     MO 0.0        OCC NO =    2.0000000  ORB. ENERGY =   -0.245866
 -0.18043679D-02 -0.33623214D-02 -0.56664415D-02 -0.84542842D-02 -0.10240498D-01
 -0.85208574D-02 -0.31646907D-02  0.16800678D-04 -0.28999420D-01 -0.54167603D-01
 -0.92193534D-01 -0.14099984D+00 -0.18337865D+00 -0.18562077D+00 -0.12222186D+00
  0.83545386D-01  0.35818199D-01  0.42336275D-01  0.20824355D-02  0.20786560D-16
  0.18733999D-16  0.13602098D-16 -0.27358430D-15 -0.24656932D-15 -0.17902532D-15
  0.29379902D+00  0.26478795D+00  0.19225322D+00  0.23902215D-16 -0.45468459D-16
  0.74495568D-01  0.15596975D-17 -0.32386285D-17  0.89180000D-02  0.56290496D-18
  0.60535243D-18  0.11427540D-03  0.10731366D-01  0.10731366D-01 -0.21462733D-01
 -0.51301338D-17 -0.13341634D-16  0.11169208D-16  0.20123403D-02  0.20123403D-02
 -0.40246806D-02  0.99961936D-17  0.11584025D-17  0.40066770D-17  0.44845187D-04
  0.44845187D-04 -0.89690374D-04 -0.77153950D-18 -0.21226739D-18  0.23855403D-18
  0.16626820D-17  0.73982581D-18  0.68222264D-03 -0.46984022D-18 -0.62640899D-17
 -0.10233340D-02 -0.45182057D-17  0.40446125D-17 -0.10233340D-02 -0.31778807D-17
  0.17393855D-18 -0.22264527D-18 -0.59373179D-04  0.33648967D-18 -0.10171327D-18
  0.89059769D-04 -0.85830533D-18  0.76964909D-18  0.89059769D-04  0.35356598D-18
 -0.28984205D-01 -0.52274208D-01 -0.77078289D-01 -0.51173031D-01 -0.19775239D-01
 -0.38113536D-03 -0.56488681D-17 -0.16835092D-17 -0.67732363D-02  0.10232879D-16
 -0.97288158D-17  0.68208202D-02 -0.15738456D-20  0.20775015D-19  0.15519456D-02
 -0.20187669D-02 -0.20187669D-02  0.40375338D-02 -0.14464618D-16 -0.43476777D-19
 -0.11605244D-16 -0.25918381D-03 -0.25918381D-03  0.51836762D-03  0.14135775D-17
  0.24948788D-17 -0.68257494D-18
END DATA
RHF
