 Molden2AIM, Version 4.0.0 (06/02/2016)           Time: Wed Jun 27 19:54:09 2018
GAUSSIAN             35 MOL ORBITALS    526 PRIMITIVES        2 NUCLEI
  Br   1    (CENTRE  1)   0.00000000  0.00000000  2.15296497  CHARGE = 35.0
  Br   2    (CENTRE  2)   0.00000000  0.00000000 -2.15296497  CHARGE = 35.0
CENTRE ASSIGNMENTS    1  1  1  1  1  1  1  1  1  1  1  1  1  1  1  1  1  1  1  1
CENTRE ASSIGNMENTS    1  1  1  1  1  1  1  1  1  1  1  1  1  1  1  1  1  1  1  1
CENTRE ASSIGNMENTS    1  1  1  1  1  1  1  1  1  1  1  1  1  1  1  1  1  1  1  1
CENTRE ASSIGNMENTS    1  1  1  1  1  1  1  1  1  1  1  1  1  1  1  1  1  1  1  1
CENTRE ASSIGNMENTS    1  1  1  1  1  1  1  1  1  1  1  1  1  1  1  1  1  1  1  1
CENTRE ASSIGNMENTS    1  1  1  1  1  1  1  1  1  1  1  1  1  1  1  1  1  1  1  1
CENTRE ASSIGNMENTS    1  1  1  1  1  1  1  1  1  1  1  1  1  1  1  1  1  1  1  1
CENTRE ASSIGNMENTS    1  1  1  1  1  1  1  1  1  1  1  1  1  1  1  1  1  1  1  1
CENTRE ASSIGNMENTS    1  1  1  1  1  1  1  1  1  1  1  1  1  1  1  1  1  1  1  1
CENTRE ASSIGNMENTS    1  1  1  1  1  1  1  1  1  1  1  1  1  1  1  1  1  1  1  1
CENTRE ASSIGNMENTS    1  1  1  1  1  1  1  1  1  1  1  1  1  1  1  1  1  1  1  1
CENTRE ASSIGNMENTS    1  1  1  1  1  1  1  1  1  1  1  1  1  1  1  1  1  1  1  1
CENTRE ASSIGNMENTS    1  1  1  1  1  1  1  1  1  1  1  1  1  1  1  1  1  1  1  1
CENTRE ASSIGNMENTS    1  1  1  2  2  2  2  2  2  2  2  2  2  2  2  2  2  2  2  2
CENTRE ASSIGNMENTS    2  2  2  2  2  2  2  2  2  2  2  2  2  2  2  2  2  2  2  2
CENTRE ASSIGNMENTS    2  2  2  2  2  2  2  2  2  2  2  2  2  2  2  2  2  2  2  2
CENTRE ASSIGNMENTS    2  2  2  2  2  2  2  2  2  2  2  2  2  2  2  2  2  2  2  2
CENTRE ASSIGNMENTS    2  2  2  2  2  2  2  2  2  2  2  2  2  2  2  2  2  2  2  2
CENTRE ASSIGNMENTS    2  2  2  2  2  2  2  2  2  2  2  2  2  2  2  2  2  2  2  2
CENTRE ASSIGNMENTS    2  2  2  2  2  2  2  2  2  2  2  2  2  2  2  2  2  2  2  2
CENTRE ASSIGNMENTS    2  2  2  2  2  2  2  2  2  2  2  2  2  2  2  2  2  2  2  2
CENTRE ASSIGNMENTS    2  2  2  2  2  2  2  2  2  2  2  2  2  2  2  2  2  2  2  2
CENTRE ASSIGNMENTS    2  2  2  2  2  2  2  2  2  2  2  2  2  2  2  2  2  2  2  2
CENTRE ASSIGNMENTS    2  2  2  2  2  2  2  2  2  2  2  2  2  2  2  2  2  2  2  2
CENTRE ASSIGNMENTS    2  2  2  2  2  2  2  2  2  2  2  2  2  2  2  2  2  2  2  2
CENTRE ASSIGNMENTS    2  2  2  2  2  2  2  2  2  2  2  2  2  2  2  2  2  2  2  2
CENTRE ASSIGNMENTS    2  2  2  2  2  2
TYPE ASSIGNMENTS      1  1  1  1  1  1  1  1  1  1  1  1  1  1  1  1  1  1  1  1
TYPE ASSIGNMENTS      1  1  1  1  1  1  1  1  1  1  1  1  1  1  1  1  1  1  1  1
TYPE ASSIGNMENTS      1  1  1  1  1  1  1  1  1  1  1  1  1  1  1  1  1  1  1  1
TYPE ASSIGNMENTS      1  1  1  1  1  1  1  1  1  1  1  1  1  1  1  2  2  2  2  2
TYPE ASSIGNMENTS      2  2  2  2  2  2  3  3  3  3  3  3  3  3  3  3  3  4  4  4
TYPE ASSIGNMENTS      4  4  4  4  4  4  4  4  2  2  2  2  2  2  2  2  2  2  2  3
TYPE ASSIGNMENTS      3  3  3  3  3  3  3  3  3  3  4  4  4  4  4  4  4  4  4  4
TYPE ASSIGNMENTS      4  2  2  2  2  2  2  2  2  2  2  2  3  3  3  3  3  3  3  3
TYPE ASSIGNMENTS      3  3  3  4  4  4  4  4  4  4  4  4  4  4  2  3  4  2  3  4
TYPE ASSIGNMENTS      2  3  4  5  5  5  5  5  5  5  6  6  6  6  6  6  6  7  7  7
TYPE ASSIGNMENTS      7  7  7  7  8  8  8  8  8  8  8  9  9  9  9  9  9  9 10 10
TYPE ASSIGNMENTS     10 10 10 10 10  5  6  7  8  9 10  5  6  7  8  9 10  5  6  7
TYPE ASSIGNMENTS      8  9 10 11 12 13 17 14 15 18 19 16 20 11 12 13 17 14 15 18
TYPE ASSIGNMENTS     19 16 20  1  1  1  1  1  1  1  1  1  1  1  1  1  1  1  1  1
TYPE ASSIGNMENTS      1  1  1  1  1  1  1  1  1  1  1  1  1  1  1  1  1  1  1  1
TYPE ASSIGNMENTS      1  1  1  1  1  1  1  1  1  1  1  1  1  1  1  1  1  1  1  1
TYPE ASSIGNMENTS      1  1  1  1  1  1  1  1  1  1  1  1  1  1  1  1  1  1  2  2
TYPE ASSIGNMENTS      2  2  2  2  2  2  2  2  2  3  3  3  3  3  3  3  3  3  3  3
TYPE ASSIGNMENTS      4  4  4  4  4  4  4  4  4  4  4  2  2  2  2  2  2  2  2  2
TYPE ASSIGNMENTS      2  2  3  3  3  3  3  3  3  3  3  3  3  4  4  4  4  4  4  4
TYPE ASSIGNMENTS      4  4  4  4  2  2  2  2  2  2  2  2  2  2  2  3  3  3  3  3
TYPE ASSIGNMENTS      3  3  3  3  3  3  4  4  4  4  4  4  4  4  4  4  4  2  3  4
TYPE ASSIGNMENTS      2  3  4  2  3  4  5  5  5  5  5  5  5  6  6  6  6  6  6  6
TYPE ASSIGNMENTS      7  7  7  7  7  7  7  8  8  8  8  8  8  8  9  9  9  9  9  9
TYPE ASSIGNMENTS      9 10 10 10 10 10 10 10  5  6  7  8  9 10  5  6  7  8  9 10
TYPE ASSIGNMENTS      5  6  7  8  9 10 11 12 13 17 14 15 18 19 16 20 11 12 13 17
TYPE ASSIGNMENTS     14 15 18 19 16 20
EXPONENTS  0.1063900D+08 0.1593400D+07 0.3626100D+06 0.1027000D+06 0.3350100D+05
EXPONENTS  0.1209300D+05 0.4715900D+04 0.1955600D+04 0.8526100D+03 0.3876700D+03
EXPONENTS  0.1826800D+03 0.8824500D+02 0.3926300D+02 0.1923400D+02 0.9405700D+01
EXPONENTS  0.4160100D+01 0.1899500D+01 0.3011400D+00 0.1063900D+08 0.1593400D+07
EXPONENTS  0.3626100D+06 0.1027000D+06 0.3350100D+05 0.1209300D+05 0.4715900D+04
EXPONENTS  0.1955600D+04 0.8526100D+03 0.3876700D+03 0.1826800D+03 0.8824500D+02
EXPONENTS  0.3926300D+02 0.1923400D+02 0.9405700D+01 0.4160100D+01 0.1899500D+01
EXPONENTS  0.3011400D+00 0.1063900D+08 0.1593400D+07 0.3626100D+06 0.1027000D+06
EXPONENTS  0.3350100D+05 0.1209300D+05 0.4715900D+04 0.1955600D+04 0.8526100D+03
EXPONENTS  0.3876700D+03 0.1826800D+03 0.8824500D+02 0.3926300D+02 0.1923400D+02
EXPONENTS  0.9405700D+01 0.4160100D+01 0.1899500D+01 0.3011400D+00 0.1063900D+08
EXPONENTS  0.1593400D+07 0.3626100D+06 0.1027000D+06 0.3350100D+05 0.1209300D+05
EXPONENTS  0.4715900D+04 0.1955600D+04 0.8526100D+03 0.3876700D+03 0.1826800D+03
EXPONENTS  0.8824500D+02 0.3926300D+02 0.1923400D+02 0.9405700D+01 0.4160100D+01
EXPONENTS  0.1899500D+01 0.3011400D+00 0.6047200D+00 0.1251500D+00 0.4559300D-01
EXPONENTS  0.8676500D+04 0.2055900D+04 0.6662300D+03 0.2531000D+03 0.1061200D+03
EXPONENTS  0.4724200D+02 0.2182500D+02 0.9968400D+01 0.4517100D+01 0.1998200D+01
EXPONENTS  0.2814500D+00 0.8676500D+04 0.2055900D+04 0.6662300D+03 0.2531000D+03
EXPONENTS  0.1061200D+03 0.4724200D+02 0.2182500D+02 0.9968400D+01 0.4517100D+01
EXPONENTS  0.1998200D+01 0.2814500D+00 0.8676500D+04 0.2055900D+04 0.6662300D+03
EXPONENTS  0.2531000D+03 0.1061200D+03 0.4724200D+02 0.2182500D+02 0.9968400D+01
EXPONENTS  0.4517100D+01 0.1998200D+01 0.2814500D+00 0.8676500D+04 0.2055900D+04
EXPONENTS  0.6662300D+03 0.2531000D+03 0.1061200D+03 0.4724200D+02 0.2182500D+02
EXPONENTS  0.9968400D+01 0.4517100D+01 0.1998200D+01 0.2814500D+00 0.8676500D+04
EXPONENTS  0.2055900D+04 0.6662300D+03 0.2531000D+03 0.1061200D+03 0.4724200D+02
EXPONENTS  0.2182500D+02 0.9968400D+01 0.4517100D+01 0.1998200D+01 0.2814500D+00
EXPONENTS  0.8676500D+04 0.2055900D+04 0.6662300D+03 0.2531000D+03 0.1061200D+03
EXPONENTS  0.4724200D+02 0.2182500D+02 0.9968400D+01 0.4517100D+01 0.1998200D+01
EXPONENTS  0.2814500D+00 0.8676500D+04 0.2055900D+04 0.6662300D+03 0.2531000D+03
EXPONENTS  0.1061200D+03 0.4724200D+02 0.2182500D+02 0.9968400D+01 0.4517100D+01
EXPONENTS  0.1998200D+01 0.2814500D+00 0.8676500D+04 0.2055900D+04 0.6662300D+03
EXPONENTS  0.2531000D+03 0.1061200D+03 0.4724200D+02 0.2182500D+02 0.9968400D+01
EXPONENTS  0.4517100D+01 0.1998200D+01 0.2814500D+00 0.8676500D+04 0.2055900D+04
EXPONENTS  0.6662300D+03 0.2531000D+03 0.1061200D+03 0.4724200D+02 0.2182500D+02
EXPONENTS  0.9968400D+01 0.4517100D+01 0.1998200D+01 0.2814500D+00 0.7098800D+00
EXPONENTS  0.7098800D+00 0.7098800D+00 0.1020400D+00 0.1020400D+00 0.1020400D+00
EXPONENTS  0.3514200D-01 0.3514200D-01 0.3514200D-01 0.4038300D+03 0.1211700D+03
EXPONENTS  0.4634500D+02 0.1972100D+02 0.8862400D+01 0.3996200D+01 0.1763600D+01
EXPONENTS  0.4038300D+03 0.1211700D+03 0.4634500D+02 0.1972100D+02 0.8862400D+01
EXPONENTS  0.3996200D+01 0.1763600D+01 0.4038300D+03 0.1211700D+03 0.4634500D+02
EXPONENTS  0.1972100D+02 0.8862400D+01 0.3996200D+01 0.1763600D+01 0.4038300D+03
EXPONENTS  0.1211700D+03 0.4634500D+02 0.1972100D+02 0.8862400D+01 0.3996200D+01
EXPONENTS  0.1763600D+01 0.4038300D+03 0.1211700D+03 0.4634500D+02 0.1972100D+02
EXPONENTS  0.8862400D+01 0.3996200D+01 0.1763600D+01 0.4038300D+03 0.1211700D+03
EXPONENTS  0.4634500D+02 0.1972100D+02 0.8862400D+01 0.3996200D+01 0.1763600D+01
EXPONENTS  0.7061900D+00 0.7061900D+00 0.7061900D+00 0.7061900D+00 0.7061900D+00
EXPONENTS  0.7061900D+00 0.2639000D+00 0.2639000D+00 0.2639000D+00 0.2639000D+00
EXPONENTS  0.2639000D+00 0.2639000D+00 0.1047000D+00 0.1047000D+00 0.1047000D+00
EXPONENTS  0.1047000D+00 0.1047000D+00 0.1047000D+00 0.5515000D+00 0.5515000D+00
EXPONENTS  0.5515000D+00 0.5515000D+00 0.5515000D+00 0.5515000D+00 0.5515000D+00
EXPONENTS  0.5515000D+00 0.5515000D+00 0.5515000D+00 0.2580000D+00 0.2580000D+00
EXPONENTS  0.2580000D+00 0.2580000D+00 0.2580000D+00 0.2580000D+00 0.2580000D+00
EXPONENTS  0.2580000D+00 0.2580000D+00 0.2580000D+00 0.1063900D+08 0.1593400D+07
EXPONENTS  0.3626100D+06 0.1027000D+06 0.3350100D+05 0.1209300D+05 0.4715900D+04
EXPONENTS  0.1955600D+04 0.8526100D+03 0.3876700D+03 0.1826800D+03 0.8824500D+02
EXPONENTS  0.3926300D+02 0.1923400D+02 0.9405700D+01 0.4160100D+01 0.1899500D+01
EXPONENTS  0.3011400D+00 0.1063900D+08 0.1593400D+07 0.3626100D+06 0.1027000D+06
EXPONENTS  0.3350100D+05 0.1209300D+05 0.4715900D+04 0.1955600D+04 0.8526100D+03
EXPONENTS  0.3876700D+03 0.1826800D+03 0.8824500D+02 0.3926300D+02 0.1923400D+02
EXPONENTS  0.9405700D+01 0.4160100D+01 0.1899500D+01 0.3011400D+00 0.1063900D+08
EXPONENTS  0.1593400D+07 0.3626100D+06 0.1027000D+06 0.3350100D+05 0.1209300D+05
EXPONENTS  0.4715900D+04 0.1955600D+04 0.8526100D+03 0.3876700D+03 0.1826800D+03
EXPONENTS  0.8824500D+02 0.3926300D+02 0.1923400D+02 0.9405700D+01 0.4160100D+01
EXPONENTS  0.1899500D+01 0.3011400D+00 0.1063900D+08 0.1593400D+07 0.3626100D+06
EXPONENTS  0.1027000D+06 0.3350100D+05 0.1209300D+05 0.4715900D+04 0.1955600D+04
EXPONENTS  0.8526100D+03 0.3876700D+03 0.1826800D+03 0.8824500D+02 0.3926300D+02
EXPONENTS  0.1923400D+02 0.9405700D+01 0.4160100D+01 0.1899500D+01 0.3011400D+00
EXPONENTS  0.6047200D+00 0.1251500D+00 0.4559300D-01 0.8676500D+04 0.2055900D+04
EXPONENTS  0.6662300D+03 0.2531000D+03 0.1061200D+03 0.4724200D+02 0.2182500D+02
EXPONENTS  0.9968400D+01 0.4517100D+01 0.1998200D+01 0.2814500D+00 0.8676500D+04
EXPONENTS  0.2055900D+04 0.6662300D+03 0.2531000D+03 0.1061200D+03 0.4724200D+02
EXPONENTS  0.2182500D+02 0.9968400D+01 0.4517100D+01 0.1998200D+01 0.2814500D+00
EXPONENTS  0.8676500D+04 0.2055900D+04 0.6662300D+03 0.2531000D+03 0.1061200D+03
EXPONENTS  0.4724200D+02 0.2182500D+02 0.9968400D+01 0.4517100D+01 0.1998200D+01
EXPONENTS  0.2814500D+00 0.8676500D+04 0.2055900D+04 0.6662300D+03 0.2531000D+03
EXPONENTS  0.1061200D+03 0.4724200D+02 0.2182500D+02 0.9968400D+01 0.4517100D+01
EXPONENTS  0.1998200D+01 0.2814500D+00 0.8676500D+04 0.2055900D+04 0.6662300D+03
EXPONENTS  0.2531000D+03 0.1061200D+03 0.4724200D+02 0.2182500D+02 0.9968400D+01
EXPONENTS  0.4517100D+01 0.1998200D+01 0.2814500D+00 0.8676500D+04 0.2055900D+04
EXPONENTS  0.6662300D+03 0.2531000D+03 0.1061200D+03 0.4724200D+02 0.2182500D+02
EXPONENTS  0.9968400D+01 0.4517100D+01 0.1998200D+01 0.2814500D+00 0.8676500D+04
EXPONENTS  0.2055900D+04 0.6662300D+03 0.2531000D+03 0.1061200D+03 0.4724200D+02
EXPONENTS  0.2182500D+02 0.9968400D+01 0.4517100D+01 0.1998200D+01 0.2814500D+00
EXPONENTS  0.8676500D+04 0.2055900D+04 0.6662300D+03 0.2531000D+03 0.1061200D+03
EXPONENTS  0.4724200D+02 0.2182500D+02 0.9968400D+01 0.4517100D+01 0.1998200D+01
EXPONENTS  0.2814500D+00 0.8676500D+04 0.2055900D+04 0.6662300D+03 0.2531000D+03
EXPONENTS  0.1061200D+03 0.4724200D+02 0.2182500D+02 0.9968400D+01 0.4517100D+01
EXPONENTS  0.1998200D+01 0.2814500D+00 0.7098800D+00 0.7098800D+00 0.7098800D+00
EXPONENTS  0.1020400D+00 0.1020400D+00 0.1020400D+00 0.3514200D-01 0.3514200D-01
EXPONENTS  0.3514200D-01 0.4038300D+03 0.1211700D+03 0.4634500D+02 0.1972100D+02
EXPONENTS  0.8862400D+01 0.3996200D+01 0.1763600D+01 0.4038300D+03 0.1211700D+03
EXPONENTS  0.4634500D+02 0.1972100D+02 0.8862400D+01 0.3996200D+01 0.1763600D+01
EXPONENTS  0.4038300D+03 0.1211700D+03 0.4634500D+02 0.1972100D+02 0.8862400D+01
EXPONENTS  0.3996200D+01 0.1763600D+01 0.4038300D+03 0.1211700D+03 0.4634500D+02
EXPONENTS  0.1972100D+02 0.8862400D+01 0.3996200D+01 0.1763600D+01 0.4038300D+03
EXPONENTS  0.1211700D+03 0.4634500D+02 0.1972100D+02 0.8862400D+01 0.3996200D+01
EXPONENTS  0.1763600D+01 0.4038300D+03 0.1211700D+03 0.4634500D+02 0.1972100D+02
EXPONENTS  0.8862400D+01 0.3996200D+01 0.1763600D+01 0.7061900D+00 0.7061900D+00
EXPONENTS  0.7061900D+00 0.7061900D+00 0.7061900D+00 0.7061900D+00 0.2639000D+00
EXPONENTS  0.2639000D+00 0.2639000D+00 0.2639000D+00 0.2639000D+00 0.2639000D+00
EXPONENTS  0.1047000D+00 0.1047000D+00 0.1047000D+00 0.1047000D+00 0.1047000D+00
EXPONENTS  0.1047000D+00 0.5515000D+00 0.5515000D+00 0.5515000D+00 0.5515000D+00
EXPONENTS  0.5515000D+00 0.5515000D+00 0.5515000D+00 0.5515000D+00 0.5515000D+00
EXPONENTS  0.5515000D+00 0.2580000D+00 0.2580000D+00 0.2580000D+00 0.2580000D+00
EXPONENTS  0.2580000D+00 0.2580000D+00 0.2580000D+00 0.2580000D+00 0.2580000D+00
EXPONENTS  0.2580000D+00
MO    1     MO 0.0        OCC NO =    2.0000000  ORB. ENERGY = -483.313186
 -0.55397458D+00 -0.10420937D+01 -0.18039155D+01 -0.29569626D+01 -0.46321392D+01
 -0.69624998D+01 -0.99511611D+01 -0.13210414D+02 -0.15385321D+02 -0.14131269D+02
 -0.82631085D+01 -0.21682810D+01 -0.11853908D+00  0.42427447D-02 -0.11857132D-02
  0.35207827D-03 -0.60023250D-04 -0.48970716D-05 -0.53885133D-04 -0.99003686D-04
 -0.17120019D-03 -0.28036424D-03 -0.44142090D-03 -0.66658880D-03 -0.97301609D-03
 -0.13399023D-02 -0.17120364D-02 -0.18663202D-02 -0.15362689D-02 -0.42123451D-03
  0.84965732D-03  0.82802817D-03  0.18119589D-03  0.61043227D-05  0.20679495D-06
 -0.52605968D-09  0.34244240D-04  0.67132428D-04  0.11758078D-03  0.19208874D-03
  0.30297021D-03  0.45716852D-03  0.67029989D-03  0.92545987D-03  0.11998633D-02
  0.13343186D-02  0.11589379D-02  0.33665072D-03 -0.84869238D-03 -0.12366046D-02
 -0.21288590D-03  0.51935045D-03  0.24719772D-03 -0.11937933D-05 -0.12306042D-04
 -0.26664221D-04 -0.45391607D-04 -0.74091326D-04 -0.11679771D-03 -0.17628147D-03
 -0.25845737D-03 -0.35729896D-03 -0.46373820D-03 -0.51807667D-03 -0.45255170D-03
 -0.13404625D-03  0.34844326D-03  0.53602351D-03  0.93820482D-04 -0.29595153D-03
 -0.25121809D-03  0.93727223D-04 -0.78087587D-04 -0.63809770D-04 -0.14783559D-04
  0.21274147D-13  0.30524634D-13  0.40416239D-13  0.46669305D-13  0.43264592D-13
  0.28010286D-13  0.98866022D-14  0.11587950D-14  0.16846735D-16  0.24670168D-17
  0.25364764D-19 -0.74595348D-14 -0.10703112D-13 -0.14171489D-13 -0.16364055D-13
 -0.15170231D-13 -0.98214843D-14 -0.34666233D-14 -0.40631814D-15 -0.59071137D-17
 -0.86503105D-18 -0.88938626D-20  0.17355058D-03  0.24901435D-03  0.32970824D-03
  0.38071960D-03  0.35294458D-03  0.22850276D-03  0.80653082D-04  0.94532367D-05
  0.13743256D-06  0.20125469D-07  0.20692108D-09  0.17773245D-14  0.25655884D-14
  0.34275648D-14  0.40720521D-14  0.39461306D-14  0.27430641D-14  0.89256676D-15
 -0.40172588D-15 -0.43399797D-15 -0.11173145D-15  0.10898371D-18 -0.16773295D-16
 -0.24212443D-16 -0.32347245D-16 -0.38429520D-16 -0.37241151D-16 -0.25887350D-16
 -0.84234955D-17  0.37912414D-17  0.40958056D-17  0.10544526D-17 -0.10285212D-20
  0.16767593D-04  0.24204212D-04  0.32336249D-04  0.38416456D-04  0.37228491D-04
  0.25878550D-04  0.84206319D-05 -0.37899526D-05 -0.40944133D-05 -0.10540942D-05
  0.10281715D-08 -0.85625372D-15 -0.12441746D-14 -0.16541446D-14 -0.19848590D-14
 -0.19203599D-14 -0.13632319D-14 -0.42369591D-15  0.24325946D-15  0.27945112D-15
  0.74210701D-16 -0.26775452D-16  0.33025364D-15  0.47987318D-15  0.63799696D-15
  0.76555219D-15  0.74067513D-15  0.52579310D-15  0.16341782D-15 -0.93824202D-16
 -0.10778318D-15 -0.28622771D-16  0.10327185D-16  0.95166318D-05  0.13828088D-04
  0.18384604D-04  0.22060252D-04  0.21343391D-04  0.15151322D-04  0.47090691D-05
 -0.27036504D-05 -0.31058941D-05 -0.82479749D-06  0.29758951D-06  0.97846655D-16
  0.14536021D-16 -0.30472574D-06  0.44523775D-17 -0.52897914D-17  0.25433246D-04
 -0.48374021D-18  0.85853199D-18  0.86468013D-06  0.45727302D-04  0.47848695D-04
  0.40769649D-04  0.26849896D-04  0.12374318D-04  0.37055094D-05  0.63046102D-06
  0.45727302D-04  0.47848695D-04  0.40769649D-04  0.26849896D-04  0.12374318D-04
  0.37055094D-05  0.63046102D-06 -0.91454604D-04 -0.95697389D-04 -0.81539298D-04
 -0.53699792D-04 -0.24748635D-04 -0.74110189D-05 -0.12609220D-05  0.13429221D-14
  0.14052232D-14  0.11973254D-14  0.78852930D-15  0.36340968D-15  0.10882362D-15
  0.18515416D-16 -0.27098590D-14 -0.28355755D-14 -0.24160621D-14 -0.15911595D-14
 -0.73331805D-15 -0.21959328D-15 -0.37361935D-16  0.41071109D-15  0.42976490D-15
  0.36618270D-15  0.24115899D-15  0.11114300D-15  0.33281951D-16  0.56626418D-17
 -0.21976589D-05 -0.21976589D-05  0.43953178D-05 -0.20604497D-16  0.23652488D-16
  0.79817987D-16  0.21858514D-05  0.21858514D-05 -0.43717028D-05  0.18632109D-17
 -0.52988820D-18  0.25106074D-18  0.16046543D-05  0.16046543D-05 -0.32093086D-05
 -0.22846794D-18 -0.14035082D-17  0.11385375D-18  0.39399594D-18 -0.32487319D-17
 -0.26025266D-05  0.39385012D-18 -0.32484733D-17  0.39037898D-05 -0.15758379D-17
  0.12994669D-16  0.39037898D-05  0.11063442D-17 -0.27740022D-18  0.42967690D-18
  0.15787130D-05 -0.27738536D-18  0.42965295D-18 -0.23680696D-05  0.11095860D-17
 -0.17186837D-17 -0.23680696D-05 -0.14715347D-18  0.55377928D+00  0.10417263D+01
  0.18032795D+01  0.29559202D+01  0.46305063D+01  0.69600452D+01  0.99476530D+01
  0.13205757D+02  0.15379897D+02  0.14126287D+02  0.82601955D+01  0.21675166D+01
  0.11849729D+00 -0.42412489D-02  0.11852952D-02 -0.35195415D-03  0.60002089D-04
  0.48953452D-05  0.53868710D-04  0.98973512D-04  0.17114801D-03  0.28027879D-03
  0.44128636D-03  0.66638564D-03  0.97271953D-03  0.13394939D-02  0.17115146D-02
  0.18657514D-02  0.15358007D-02  0.42110613D-03 -0.84939837D-03 -0.82777581D-03
 -0.18114067D-03 -0.61024623D-05 -0.20673192D-06  0.52589935D-09 -0.34235475D-04
 -0.67115245D-04 -0.11755069D-03 -0.19203957D-03 -0.30289266D-03 -0.45705150D-03
 -0.67012831D-03 -0.92522298D-03 -0.11995562D-02 -0.13339771D-02 -0.11586412D-02
 -0.33656455D-03  0.84847514D-03  0.12362881D-02  0.21283141D-03 -0.51921751D-03
 -0.24713445D-03  0.11934877D-05  0.12303248D-04  0.26658168D-04  0.45381304D-04
  0.74074509D-04  0.11677120D-03  0.17624146D-03  0.25839870D-03  0.35721786D-03
  0.46363295D-03  0.51795908D-03  0.45244898D-03  0.13401583D-03 -0.34836417D-03
 -0.53590185D-03 -0.93799188D-04  0.29588435D-03  0.25116107D-03 -0.93705950D-04
  0.78062890D-04  0.63805456D-04  0.14783917D-04 -0.14707719D-13 -0.21102973D-13
 -0.27941458D-13 -0.32264467D-13 -0.29910646D-13 -0.19364697D-13 -0.68350270D-14
 -0.80112410D-15 -0.11646862D-16 -0.17055532D-17 -0.17535736D-19  0.43934812D-15
  0.63038677D-15  0.83466559D-15  0.96380228D-15  0.89348905D-15  0.57846110D-15
  0.20417552D-15  0.23931132D-16  0.34791437D-18  0.50948186D-19  0.52382648D-21
  0.17351126D-03  0.24895793D-03  0.32963354D-03  0.38063334D-03  0.35286462D-03
  0.22845099D-03  0.80634809D-04  0.94510949D-05  0.13740143D-06  0.20120909D-07
  0.20687420D-09 -0.23388847D-15 -0.33762069D-15 -0.45105317D-15 -0.53586501D-15
 -0.51929427D-15 -0.36097576D-15 -0.11745805D-15  0.52865443D-16  0.57112316D-16
  0.14703391D-16 -0.14341800D-19 -0.86984219D-15 -0.12556272D-14 -0.16774879D-14
 -0.19929071D-14 -0.19312798D-14 -0.13424858D-14 -0.43683200D-15  0.19660906D-15
  0.21240339D-15  0.54682601D-16 -0.53337828D-19  0.16670414D-04  0.24063934D-04
  0.32148840D-04  0.38193808D-04  0.37012728D-04  0.25728567D-04  0.83718290D-05
 -0.37679874D-05 -0.40706835D-05 -0.10479850D-05  0.10222126D-08  0.20136436D-15
  0.29259134D-15  0.38900358D-15  0.46677737D-15  0.45160917D-15  0.32058993D-15
  0.99640155D-16 -0.57207092D-16 -0.65718249D-16 -0.17452059D-16  0.62967571D-17
  0.62956496D-15  0.91478582D-15  0.12162184D-14  0.14593778D-14  0.14119545D-14
  0.10023233D-14  0.31152460D-15 -0.17885777D-15 -0.20546788D-15 -0.54563801D-16
  0.19686789D-16  0.95823179D-05  0.13923533D-04  0.18511499D-04  0.22212517D-04
  0.21490708D-04  0.15255901D-04  0.47415722D-05 -0.27223117D-05 -0.31273318D-05
 -0.83049044D-06  0.29964354D-06 -0.29755837D-17 -0.45879716D-16 -0.30548220D-06
 -0.35479059D-17 -0.18915008D-17  0.25432686D-04  0.19373914D-18  0.12025608D-18
  0.86469358D-06 -0.45711773D-04 -0.47832445D-04 -0.40755803D-04 -0.26840778D-04
 -0.12370115D-04 -0.37042510D-05 -0.63024691D-06 -0.45711773D-04 -0.47832445D-04
 -0.40755803D-04 -0.26840778D-04 -0.12370115D-04 -0.37042510D-05 -0.63024691D-06
  0.91423546D-04  0.95664890D-04  0.81511607D-04  0.53681555D-04  0.24740231D-04
  0.74085021D-05  0.12604938D-05 -0.19163368D-13 -0.20052399D-13 -0.17085718D-13
 -0.11252237D-13 -0.51858209D-14 -0.15529025D-14 -0.26421319D-15 -0.78804463D-15
 -0.82460380D-15 -0.70260657D-15 -0.46271954D-15 -0.21325366D-15 -0.63859154D-16
 -0.10865094D-16 -0.32397390D-14 -0.33900378D-14 -0.28884936D-14 -0.19022914D-14
 -0.87670948D-15 -0.26253207D-15 -0.44667606D-16  0.21968810D-05  0.21968810D-05
 -0.43937621D-05 -0.11212291D-16  0.35243603D-16  0.21585819D-16 -0.21857308D-05
 -0.21857308D-05  0.43714615D-05 -0.90401572D-18 -0.23199865D-17 -0.97014812D-17
 -0.16045843D-05 -0.16045843D-05  0.32091687D-05  0.48163846D-18 -0.86185373D-18
  0.17014664D-17 -0.64058407D-18 -0.18336959D-17 -0.26017743D-05 -0.64055460D-18
 -0.18336575D-17  0.39026614D-05  0.25623068D-17  0.73347452D-17  0.39026614D-05
  0.12218365D-17  0.24820120D-19  0.49724502D-18  0.15783293D-05  0.24815390D-19
  0.49722217D-18 -0.23674939D-05 -0.99275749D-19 -0.19889572D-17 -0.23674939D-05
 -0.39643096D-18
MO    2     MO 0.0        OCC NO =    2.0000000  ORB. ENERGY = -483.313186
  0.55378271D+00  0.10417327D+01  0.18032907D+01  0.29559385D+01  0.46305349D+01
  0.69600883D+01  0.99477145D+01  0.13205838D+02  0.15379992D+02  0.14126374D+02
  0.82602466D+01  0.21675300D+01  0.11849802D+00 -0.42412752D-02  0.11853026D-02
 -0.35195633D-03  0.60002461D-04  0.48953755D-05  0.46567845D-04  0.85559561D-04
  0.14795220D-03  0.24229241D-03  0.38147850D-03  0.57606992D-03  0.84088616D-03
  0.11579513D-02  0.14795518D-02  0.16128848D-02  0.13276525D-02  0.36403331D-03
 -0.73427880D-03 -0.71558676D-03 -0.15659054D-03 -0.52753912D-05 -0.17871340D-06
  0.45462383D-09 -0.24853672D-04 -0.48723152D-04 -0.85337393D-04 -0.13941353D-03
 -0.21988872D-03 -0.33180226D-03 -0.48648804D-03 -0.67167721D-03 -0.87083283D-03
 -0.96841736D-03 -0.84113009D-03 -0.24433325D-03  0.61596115D-03  0.89749880D-03
  0.15450763D-03 -0.37693245D-03 -0.17941035D-03  0.86642735D-06  0.79194860D-05
  0.17159614D-04  0.29211521D-04  0.47681069D-04  0.75164527D-04  0.11344498D-03
  0.16632883D-03  0.22993780D-03  0.29843619D-03  0.33340542D-03  0.29123718D-03
  0.86264736D-04 -0.22423876D-03 -0.34495501D-03 -0.60377660D-04  0.19045799D-03
  0.16167003D-03 -0.60317644D-04  0.70030367D-04  0.12224560D-04 -0.10183097D-05
  0.65331935D-14  0.93739760D-14  0.12411643D-13  0.14331931D-13  0.13286359D-13
  0.86018310D-14  0.30361305D-14  0.35586067D-15  0.51735555D-17  0.75760962D-18
  0.77894034D-20 -0.66367011D-14 -0.95224910D-14 -0.12608284D-13 -0.14558996D-13
 -0.13496859D-13 -0.87381127D-14 -0.30842329D-14 -0.36149869D-15 -0.52555219D-17
 -0.76961268D-18 -0.79128135D-20 -0.11148735D-03 -0.15996460D-03 -0.21180164D-03
 -0.24457088D-03 -0.22672846D-03 -0.14678814D-03 -0.51810822D-04 -0.60726751D-05
 -0.88285457D-07 -0.12928422D-07 -0.13292426D-09  0.17784498D-14  0.25672127D-14
  0.34297348D-14  0.40746302D-14  0.39486289D-14  0.27448008D-14  0.89313186D-15
 -0.40198021D-15 -0.43427274D-15 -0.11180219D-15  0.10905271D-18 -0.21198722D-16
 -0.30600599D-16 -0.40881669D-16 -0.48568677D-16 -0.47066770D-16 -0.32717409D-16
 -0.10645931D-16  0.47915139D-17  0.51764336D-17  0.13326570D-17 -0.12998838D-20
 -0.27560737D-03 -0.39784241D-03 -0.53150795D-03 -0.63144775D-03 -0.61192127D-03
 -0.42536334D-03 -0.13840915D-03  0.62295102D-04  0.67299494D-04  0.17326049D-04
 -0.16899961D-07 -0.85803622D-15 -0.12467647D-14 -0.16575881D-14 -0.19889910D-14
 -0.19243576D-14 -0.13660698D-14 -0.42457793D-15  0.24376586D-15  0.28003286D-15
  0.74365188D-16 -0.26831192D-16  0.33289492D-15  0.48371108D-15  0.64309949D-15
  0.77167487D-15  0.74659886D-15  0.52999826D-15  0.16472479D-15 -0.94574583D-16
 -0.10864520D-15 -0.28851688D-16  0.10409779D-16  0.18629503D-03  0.27069495D-03
  0.35989207D-03  0.43184557D-03  0.41781250D-03  0.29659823D-03  0.92183474D-04
 -0.52925936D-04 -0.60800151D-04 -0.16146015D-04  0.58255324D-05  0.98226321D-16
  0.14340213D-16 -0.21454384D-05  0.44621517D-17 -0.53108564D-17 -0.15825609D-05
 -0.48477212D-18  0.86037259D-18  0.38309968D-07 -0.44034660D-04 -0.46077527D-04
 -0.39260520D-04 -0.25856020D-04 -0.11916270D-04 -0.35683463D-05 -0.60712387D-06
 -0.44034660D-04 -0.46077527D-04 -0.39260520D-04 -0.25856020D-04 -0.11916270D-04
 -0.35683463D-05 -0.60712387D-06  0.88069321D-04  0.92155055D-04  0.78521039D-04
  0.51712041D-04  0.23832540D-04  0.71366926D-05  0.12142477D-05  0.13469982D-14
  0.14094885D-14  0.12009596D-14  0.79092270D-15  0.36451272D-15  0.10915393D-15
  0.18571615D-16 -0.27108838D-14 -0.28366478D-14 -0.24169757D-14 -0.15917612D-14
 -0.73359537D-15 -0.21967632D-15 -0.37376063D-16  0.41146915D-15  0.43055813D-15
  0.36685857D-15  0.24160411D-15  0.11134814D-15  0.33343381D-16  0.56730935D-17
  0.22056856D-05  0.22056856D-05 -0.44113713D-05 -0.20658467D-16  0.23638022D-16
  0.79858747D-16 -0.34172365D-06 -0.34172365D-06  0.68344730D-06  0.18687913D-17
 -0.52059519D-18  0.24499587D-18 -0.19818886D-06 -0.19818886D-06  0.39637771D-06
 -0.22894728D-18 -0.14050074D-17  0.11602296D-18  0.39316892D-18 -0.32515984D-17
  0.21331189D-05  0.39331468D-18 -0.32515628D-17 -0.31996784D-05 -0.15728214D-17
  0.13006358D-16 -0.31996784D-05  0.11069023D-17 -0.27638021D-18  0.43011425D-18
 -0.10881730D-05 -0.27639737D-18  0.43011241D-18  0.16322595D-05  0.11055380D-17
 -0.17204552D-17  0.16322595D-05 -0.14725124D-18  0.55397800D+00  0.10421001D+01
  0.18039266D+01  0.29569809D+01  0.46321679D+01  0.69625428D+01  0.99512227D+01
  0.13210495D+02  0.15385416D+02  0.14131356D+02  0.82631596D+01  0.21682944D+01
  0.11853981D+00 -0.42427709D-02  0.11857206D-02 -0.35208045D-03  0.60023621D-04
  0.48971019D-05  0.46586842D-04  0.85594464D-04  0.14801255D-03  0.24239125D-03
  0.38163412D-03  0.57630492D-03  0.84122919D-03  0.11584237D-02  0.14801553D-02
  0.16135428D-02  0.13281941D-02  0.36418181D-03 -0.73457834D-03 -0.71587867D-03
 -0.15665442D-03 -0.52775432D-05 -0.17878630D-06  0.45480929D-09 -0.24865744D-04
 -0.48746819D-04 -0.85378846D-04 -0.13948125D-03 -0.21999553D-03 -0.33196343D-03
 -0.48672435D-03 -0.67200348D-03 -0.87125584D-03 -0.96888777D-03 -0.84153867D-03
 -0.24445193D-03  0.61626036D-03  0.89793476D-03  0.15458268D-03 -0.37711555D-03
 -0.17949749D-03  0.86684822D-06  0.79238246D-05  0.17169014D-04  0.29227524D-04
  0.47707190D-04  0.75205705D-04  0.11350713D-03  0.16641995D-03  0.23006377D-03
  0.29859969D-03  0.33358807D-03  0.29139673D-03  0.86311995D-04 -0.22436161D-03
 -0.34514399D-03 -0.60410737D-04  0.19056233D-03  0.16175860D-03 -0.60350688D-04
  0.70057896D-04  0.12247057D-04 -0.10130974D-05  0.63403835D-16  0.90973278D-16
  0.12045346D-15  0.13908961D-15  0.12894247D-15  0.83479707D-16  0.29465271D-16
  0.34535838D-17  0.50208716D-19  0.73525076D-20  0.75595197D-22 -0.39493596D-15
 -0.56666317D-15 -0.75029217D-15 -0.86637487D-15 -0.80316936D-15 -0.51998649D-15
 -0.18353613D-15 -0.21512018D-16 -0.31274492D-18 -0.45798012D-19 -0.47087469D-21
  0.11154853D-03  0.16005239D-03  0.21191788D-03  0.24470511D-03  0.22685289D-03
  0.14686870D-03  0.51839257D-04  0.60760079D-05  0.88333909D-07  0.12935518D-07
  0.13299721D-09 -0.23578890D-15 -0.34036399D-15 -0.45471815D-15 -0.54021912D-15
 -0.52351373D-15 -0.36390882D-15 -0.11841244D-15  0.53294995D-16  0.57576376D-16
  0.14822862D-16 -0.14458333D-19 -0.86983921D-15 -0.12556229D-14 -0.16774822D-14
 -0.19929003D-14 -0.19312731D-14 -0.13424812D-14 -0.43683050D-15  0.19660839D-15
  0.21240266D-15  0.54682414D-16 -0.53337645D-19  0.27561327D-03  0.39785092D-03
  0.53151932D-03  0.63146126D-03  0.61193436D-03  0.42537244D-03  0.13841211D-03
 -0.62296435D-04 -0.67300934D-04 -0.17326419D-04  0.16900322D-07  0.20364818D-15
  0.29590984D-15  0.39341556D-15  0.47207143D-15  0.45673120D-15  0.32422597D-15
  0.10077025D-15 -0.57855919D-16 -0.66463608D-16 -0.17649995D-16  0.63681733D-17
  0.62954117D-15  0.91475125D-15  0.12161724D-14  0.14593227D-14  0.14119012D-14
  0.10022854D-14  0.31151283D-15 -0.17885101D-15 -0.20546011D-15 -0.54561739D-16
  0.19686045D-16 -0.18629167D-03 -0.27069006D-03 -0.35988557D-03 -0.43183777D-03
 -0.41780495D-03 -0.29659287D-03 -0.92181809D-04  0.52924980D-04  0.60799053D-04
  0.16145723D-04 -0.58254271D-05 -0.33614803D-17 -0.45866484D-16  0.21453309D-05
 -0.35617243D-17 -0.18871681D-17  0.15915282D-05  0.19487039D-18  0.11994879D-18
 -0.38005107D-07 -0.44050781D-04 -0.46094396D-04 -0.39274892D-04 -0.25865486D-04
 -0.11920632D-04 -0.35696526D-05 -0.60734613D-06 -0.44050781D-04 -0.46094396D-04
 -0.39274892D-04 -0.25865486D-04 -0.11920632D-04 -0.35696526D-05 -0.60734613D-06
  0.88101561D-04  0.92188791D-04  0.78549784D-04  0.51730971D-04  0.23841265D-04
  0.71393053D-05  0.12146923D-05 -0.19170024D-13 -0.20059365D-13 -0.17091652D-13
 -0.11256145D-13 -0.51876222D-14 -0.15534419D-14 -0.26430496D-15 -0.78726218D-15
 -0.82378504D-15 -0.70190895D-15 -0.46226011D-15 -0.21304192D-15 -0.63795748D-16
 -0.10854306D-16 -0.32411895D-14 -0.33915556D-14 -0.28897869D-14 -0.19031431D-14
 -0.87710201D-15 -0.26264961D-15 -0.44687605D-16  0.22064604D-05  0.22064604D-05
 -0.44129207D-05 -0.11215672D-16  0.35230503D-16  0.21609125D-16 -0.34249432D-06
 -0.34249432D-06  0.68498864D-06 -0.90457386D-18 -0.23107729D-17 -0.97115426D-17
 -0.19875462D-06 -0.19875462D-06  0.39750924D-06  0.48186437D-18 -0.86309290D-18