 Molden2AIM, Version 4.0.0 (06/02/2016)           Time: Wed Jun 27 19:45:25 2018
GAUSSIAN             20 MOL ORBITALS    338 PRIMITIVES        2 NUCLEI
  C    1    (CENTRE  1)   0.00000000  0.00000000 -0.18384956  CHARGE =  6.0
  Br   2    (CENTRE  2)   0.00000000  0.00000000  3.01843875  CHARGE = 35.0
CENTRE ASSIGNMENTS    1  1  1  1  1  1  1  1  1  1  1  1  1  1  1  1  1  1  1  1
CENTRE ASSIGNMENTS    1  1  1  1  1  1  1  1  1  1  1  1  1  1  1  1  1  1  1  1
CENTRE ASSIGNMENTS    1  1  1  1  1  1  1  1  1  1  1  1  1  1  1  1  1  1  1  1
CENTRE ASSIGNMENTS    1  1  1  1  1  1  1  1  1  1  1  1  1  1  1  2  2  2  2  2
CENTRE ASSIGNMENTS    2  2  2  2  2  2  2  2  2  2  2  2  2  2  2  2  2  2  2  2
CENTRE ASSIGNMENTS    2  2  2  2  2  2  2  2  2  2  2  2  2  2  2  2  2  2  2  2
CENTRE ASSIGNMENTS    2  2  2  2  2  2  2  2  2  2  2  2  2  2  2  2  2  2  2  2
CENTRE ASSIGNMENTS    2  2  2  2  2  2  2  2  2  2  2  2  2  2  2  2  2  2  2  2
CENTRE ASSIGNMENTS    2  2  2  2  2  2  2  2  2  2  2  2  2  2  2  2  2  2  2  2
CENTRE ASSIGNMENTS    2  2  2  2  2  2  2  2  2  2  2  2  2  2  2  2  2  2  2  2
CENTRE ASSIGNMENTS    2  2  2  2  2  2  2  2  2  2  2  2  2  2  2  2  2  2  2  2
CENTRE ASSIGNMENTS    2  2  2  2  2  2  2  2  2  2  2  2  2  2  2  2  2  2  2  2
CENTRE ASSIGNMENTS    2  2  2  2  2  2  2  2  2  2  2  2  2  2  2  2  2  2  2  2
CENTRE ASSIGNMENTS    2  2  2  2  2  2  2  2  2  2  2  2  2  2  2  2  2  2  2  2
CENTRE ASSIGNMENTS    2  2  2  2  2  2  2  2  2  2  2  2  2  2  2  2  2  2  2  2
CENTRE ASSIGNMENTS    2  2  2  2  2  2  2  2  2  2  2  2  2  2  2  2  2  2  2  2
CENTRE ASSIGNMENTS    2  2  2  2  2  2  2  2  2  2  2  2  2  2  2  2  2  2
TYPE ASSIGNMENTS      1  1  1  1  1  1  1  1  1  1  1  1  1  1  1  1  1  1  1  2
TYPE ASSIGNMENTS      2  2  3  3  3  4  4  4  2  3  4  2  3  4  2  3  4  5  6  7
TYPE ASSIGNMENTS      8  9 10  5  6  7  8  9 10  5  6  7  8  9 10 11 12 13 17 14
TYPE ASSIGNMENTS     15 18 19 16 20 11 12 13 17 14 15 18 19 16 20  1  1  1  1  1
TYPE ASSIGNMENTS      1  1  1  1  1  1  1  1  1  1  1  1  1  1  1  1  1  1  1  1
TYPE ASSIGNMENTS      1  1  1  1  1  1  1  1  1  1  1  1  1  1  1  1  1  1  1  1
TYPE ASSIGNMENTS      1  1  1  1  1  1  1  1  1  1  1  1  1  1  1  1  1  1  1  1
TYPE ASSIGNMENTS      1  1  1  1  1  1  1  1  1  1  2  2  2  2  2  2  2  2  2  2
TYPE ASSIGNMENTS      2  3  3  3  3  3  3  3  3  3  3  3  4  4  4  4  4  4  4  4
TYPE ASSIGNMENTS      4  4  4  2  2  2  2  2  2  2  2  2  2  2  3  3  3  3  3  3
TYPE ASSIGNMENTS      3  3  3  3  3  4  4  4  4  4  4  4  4  4  4  4  2  2  2  2
TYPE ASSIGNMENTS      2  2  2  2  2  2  2  3  3  3  3  3  3  3  3  3  3  3  4  4
TYPE ASSIGNMENTS      4  4  4  4  4  4  4  4  4  2  3  4  2  3  4  2  3  4  5  5
TYPE ASSIGNMENTS      5  5  5  5  5  6  6  6  6  6  6  6  7  7  7  7  7  7  7  8
TYPE ASSIGNMENTS      8  8  8  8  8  8  9  9  9  9  9  9  9 10 10 10 10 10 10 10
TYPE ASSIGNMENTS      5  6  7  8  9 10  5  6  7  8  9 10  5  6  7  8  9 10 11 12
TYPE ASSIGNMENTS     13 17 14 15 18 19 16 20 11 12 13 17 14 15 18 19 16 20
EXPONENTS  0.8236000D+04 0.1235000D+04 0.2808000D+03 0.7927000D+02 0.2559000D+02
EXPONENTS  0.8997000D+01 0.3319000D+01 0.3643000D+00 0.8236000D+04 0.1235000D+04
EXPONENTS  0.2808000D+03 0.7927000D+02 0.2559000D+02 0.8997000D+01 0.3319000D+01
EXPONENTS  0.3643000D+00 0.9059000D+00 0.1285000D+00 0.4402000D-01 0.1871000D+02
EXPONENTS  0.4133000D+01 0.1200000D+01 0.1871000D+02 0.4133000D+01 0.1200000D+01
EXPONENTS  0.1871000D+02 0.4133000D+01 0.1200000D+01 0.3827000D+00 0.3827000D+00
EXPONENTS  0.3827000D+00 0.1209000D+00 0.1209000D+00 0.1209000D+00 0.3569000D-01
EXPONENTS  0.3569000D-01 0.3569000D-01 0.1097000D+01 0.1097000D+01 0.1097000D+01
EXPONENTS  0.1097000D+01 0.1097000D+01 0.1097000D+01 0.3180000D+00 0.3180000D+00
EXPONENTS  0.3180000D+00 0.3180000D+00 0.3180000D+00 0.3180000D+00 0.1000000D+00
EXPONENTS  0.1000000D+00 0.1000000D+00 0.1000000D+00 0.1000000D+00 0.1000000D+00
EXPONENTS  0.7610000D+00 0.7610000D+00 0.7610000D+00 0.7610000D+00 0.7610000D+00
EXPONENTS  0.7610000D+00 0.7610000D+00 0.7610000D+00 0.7610000D+00 0.7610000D+00
EXPONENTS  0.2680000D+00 0.2680000D+00 0.2680000D+00 0.2680000D+00 0.2680000D+00
EXPONENTS  0.2680000D+00 0.2680000D+00 0.2680000D+00 0.2680000D+00 0.2680000D+00
EXPONENTS  0.1063900D+08 0.1593400D+07 0.3626100D+06 0.1027000D+06 0.3350100D+05
EXPONENTS  0.1209300D+05 0.4715900D+04 0.1955600D+04 0.8526100D+03 0.3876700D+03
EXPONENTS  0.1826800D+03 0.8824500D+02 0.3926300D+02 0.1923400D+02 0.9405700D+01
EXPONENTS  0.4160100D+01 0.1899500D+01 0.3011400D+00 0.1063900D+08 0.1593400D+07
EXPONENTS  0.3626100D+06 0.1027000D+06 0.3350100D+05 0.1209300D+05 0.4715900D+04
EXPONENTS  0.1955600D+04 0.8526100D+03 0.3876700D+03 0.1826800D+03 0.8824500D+02
EXPONENTS  0.3926300D+02 0.1923400D+02 0.9405700D+01 0.4160100D+01 0.1899500D+01
EXPONENTS  0.3011400D+00 0.1063900D+08 0.1593400D+07 0.3626100D+06 0.1027000D+06
EXPONENTS  0.3350100D+05 0.1209300D+05 0.4715900D+04 0.1955600D+04 0.8526100D+03
EXPONENTS  0.3876700D+03 0.1826800D+03 0.8824500D+02 0.3926300D+02 0.1923400D+02
EXPONENTS  0.9405700D+01 0.4160100D+01 0.1899500D+01 0.3011400D+00 0.1063900D+08
EXPONENTS  0.1593400D+07 0.3626100D+06 0.1027000D+06 0.3350100D+05 0.1209300D+05
EXPONENTS  0.4715900D+04 0.1955600D+04 0.8526100D+03 0.3876700D+03 0.1826800D+03
EXPONENTS  0.8824500D+02 0.3926300D+02 0.1923400D+02 0.9405700D+01 0.4160100D+01
EXPONENTS  0.1899500D+01 0.3011400D+00 0.6047200D+00 0.1251500D+00 0.4559300D-01
EXPONENTS  0.8676500D+04 0.2055900D+04 0.6662300D+03 0.2531000D+03 0.1061200D+03
EXPONENTS  0.4724200D+02 0.2182500D+02 0.9968400D+01 0.4517100D+01 0.1998200D+01
EXPONENTS  0.2814500D+00 0.8676500D+04 0.2055900D+04 0.6662300D+03 0.2531000D+03
EXPONENTS  0.1061200D+03 0.4724200D+02 0.2182500D+02 0.9968400D+01 0.4517100D+01
EXPONENTS  0.1998200D+01 0.2814500D+00 0.8676500D+04 0.2055900D+04 0.6662300D+03
EXPONENTS  0.2531000D+03 0.1061200D+03 0.4724200D+02 0.2182500D+02 0.9968400D+01
EXPONENTS  0.4517100D+01 0.1998200D+01 0.2814500D+00 0.8676500D+04 0.2055900D+04
EXPONENTS  0.6662300D+03 0.2531000D+03 0.1061200D+03 0.4724200D+02 0.2182500D+02
EXPONENTS  0.9968400D+01 0.4517100D+01 0.1998200D+01 0.2814500D+00 0.8676500D+04
EXPONENTS  0.2055900D+04 0.6662300D+03 0.2531000D+03 0.1061200D+03 0.4724200D+02
EXPONENTS  0.2182500D+02 0.9968400D+01 0.4517100D+01 0.1998200D+01 0.2814500D+00
EXPONENTS  0.8676500D+04 0.2055900D+04 0.6662300D+03 0.2531000D+03 0.1061200D+03
EXPONENTS  0.4724200D+02 0.2182500D+02 0.9968400D+01 0.4517100D+01 0.1998200D+01
EXPONENTS  0.2814500D+00 0.8676500D+04 0.2055900D+04 0.6662300D+03 0.2531000D+03
EXPONENTS  0.1061200D+03 0.4724200D+02 0.2182500D+02 0.9968400D+01 0.4517100D+01
EXPONENTS  0.1998200D+01 0.2814500D+00 0.8676500D+04 0.2055900D+04 0.6662300D+03
EXPONENTS  0.2531000D+03 0.1061200D+03 0.4724200D+02 0.2182500D+02 0.9968400D+01
EXPONENTS  0.4517100D+01 0.1998200D+01 0.2814500D+00 0.8676500D+04 0.2055900D+04
EXPONENTS  0.6662300D+03 0.2531000D+03 0.1061200D+03 0.4724200D+02 0.2182500D+02
EXPONENTS  0.9968400D+01 0.4517100D+01 0.1998200D+01 0.2814500D+00 0.7098800D+00
EXPONENTS  0.7098800D+00 0.7098800D+00 0.1020400D+00 0.1020400D+00 0.1020400D+00
EXPONENTS  0.3514200D-01 0.3514200D-01 0.3514200D-01 0.4038300D+03 0.1211700D+03
EXPONENTS  0.4634500D+02 0.1972100D+02 0.8862400D+01 0.3996200D+01 0.1763600D+01
EXPONENTS  0.4038300D+03 0.1211700D+03 0.4634500D+02 0.1972100D+02 0.8862400D+01
EXPONENTS  0.3996200D+01 0.1763600D+01 0.4038300D+03 0.1211700D+03 0.4634500D+02
EXPONENTS  0.1972100D+02 0.8862400D+01 0.3996200D+01 0.1763600D+01 0.4038300D+03
EXPONENTS  0.1211700D+03 0.4634500D+02 0.1972100D+02 0.8862400D+01 0.3996200D+01
EXPONENTS  0.1763600D+01 0.4038300D+03 0.1211700D+03 0.4634500D+02 0.1972100D+02
EXPONENTS  0.8862400D+01 0.3996200D+01 0.1763600D+01 0.4038300D+03 0.1211700D+03
EXPONENTS  0.4634500D+02 0.1972100D+02 0.8862400D+01 0.3996200D+01 0.1763600D+01
EXPONENTS  0.7061900D+00 0.7061900D+00 0.7061900D+00 0.7061900D+00 0.7061900D+00
EXPONENTS  0.7061900D+00 0.2639000D+00 0.2639000D+00 0.2639000D+00 0.2639000D+00
EXPONENTS  0.2639000D+00 0.2639000D+00 0.1047000D+00 0.1047000D+00 0.1047000D+00
EXPONENTS  0.1047000D+00 0.1047000D+00 0.1047000D+00 0.5515000D+00 0.5515000D+00
EXPONENTS  0.5515000D+00 0.5515000D+00 0.5515000D+00 0.5515000D+00 0.5515000D+00
EXPONENTS  0.5515000D+00 0.5515000D+00 0.5515000D+00 0.2580000D+00 0.2580000D+00
EXPONENTS  0.2580000D+00 0.2580000D+00 0.2580000D+00 0.2580000D+00 0.2580000D+00
EXPONENTS  0.2580000D+00 0.2580000D+00 0.2580000D+00
MO    1     MO 0.0        OCC NO =    2.0000000  ORB. ENERGY = -483.657559
  0.56499899D-05  0.10532866D-04  0.17802399D-04  0.26762837D-04  0.32881237D-04
  0.27773461D-04  0.10475128D-04 -0.51841991D-07 -0.34400086D-05 -0.64407814D-05
 -0.10965982D-04 -0.16962706D-04 -0.22339287D-04 -0.23211950D-04 -0.14750152D-04
  0.98852091D-05 -0.12413633D-04 -0.19713355D-04 -0.55355904D-06  0.13467567D-15
  0.12626700D-15  0.89909629D-16  0.12856206D-15  0.12053510D-15  0.85828172D-16
 -0.16450643D-04 -0.15423523D-04 -0.10982467D-04 -0.48782668D-16 -0.11081986D-15
  0.15840494D-04  0.35291667D-16 -0.27412479D-16 -0.58286392D-06 -0.68771886D-18
  0.57894085D-18  0.10545460D-06 -0.52834528D-06 -0.52834528D-06  0.10566906D-05
  0.44843588D-15 -0.39112676D-15  0.13596433D-14 -0.45312386D-05 -0.45312386D-05
  0.90624773D-05 -0.55289172D-16  0.74030419D-16 -0.25931835D-15 -0.35576271D-06
 -0.35576271D-06  0.71152542D-06  0.39983418D-17  0.30769682D-17 -0.24957979D-17
  0.11596730D-16  0.26074804D-16  0.11920522D-05 -0.10468272D-16  0.15859902D-15
 -0.17880783D-05 -0.24321919D-16 -0.23682343D-15 -0.17880783D-05 -0.29981293D-16
 -0.25682657D-17  0.91972174D-17  0.17432407D-05 -0.32530424D-17  0.60645788D-17
 -0.26148610D-05  0.10957839D-16 -0.33656231D-16 -0.26148610D-05 -0.77791608D-17
  0.78330149D+00  0.14734855D+01  0.25506760D+01  0.41810461D+01  0.65496897D+01
  0.98447413D+01  0.14070608D+02  0.18679082D+02  0.21754328D+02  0.19981140D+02
  0.11683759D+02  0.30658767D+01  0.16761028D+00 -0.59990987D-02  0.16765588D-02
 -0.49782688D-03  0.84870863D-04  0.69242951D-05  0.73596476D-04  0.13521953D-03
  0.23382573D-03  0.38292232D-03  0.60289398D-03  0.91042898D-03  0.13289483D-02
  0.18300425D-02  0.23383044D-02  0.25490258D-02  0.20982407D-02  0.57532335D-03
 -0.11604645D-02 -0.11309233D-02 -0.24747789D-03 -0.83373022D-05 -0.28244116D-06
  0.71849388D-09 -0.45087517D-04 -0.88389594D-04 -0.15481218D-03 -0.25291273D-03
 -0.39890429D-03 -0.60192877D-03 -0.88254717D-03 -0.12185024D-02 -0.15797943D-02
 -0.17568243D-02 -0.15259100D-02 -0.44324958D-03  0.11174268D-02  0.16281696D-02
  0.28029522D-03 -0.68380031D-03 -0.32547171D-03  0.15718023D-05  0.15851577D-04
  0.34346540D-04  0.58469538D-04  0.95438031D-04  0.15044869D-03  0.22707053D-03
  0.33292240D-03  0.46024158D-03  0.59734740D-03  0.66734151D-03  0.58293791D-03
  0.17266678D-03 -0.44883444D-03 -0.69045907D-03 -0.12085142D-03  0.38121913D-03
  0.32359739D-03 -0.12073129D-03  0.11359891D-03  0.32404977D-04  0.15331980D-05
  0.19267173D-14  0.27644983D-14  0.36603427D-14  0.42266587D-14  0.39183071D-14
  0.25367834D-14  0.89539139D-15  0.10494759D-15  0.15257437D-17  0.22342819D-18
  0.22971887D-20 -0.34774763D-14 -0.49895628D-14 -0.66064464D-14 -0.76285738D-14
 -0.70720389D-14 -0.45785669D-14 -0.16160660D-14 -0.18941687D-15 -0.27537706D-17
 -0.40325906D-18 -0.41461294D-20  0.12572766D-03  0.18039693D-03  0.23885513D-03
  0.27581000D-03  0.25568856D-03  0.16553744D-03  0.58428636D-04  0.68483399D-05
  0.99562187D-07  0.14579774D-07  0.14990272D-09  0.15891718D-14  0.22939878D-14
  0.30647128D-14  0.36409729D-14  0.35283818D-14  0.24526754D-14  0.79807706D-15
 -0.35919801D-15 -0.38805369D-15 -0.99903235D-16  0.97446381D-19 -0.33553576D-14
 -0.48434972D-14 -0.64707965D-14 -0.76875047D-14 -0.74497813D-14 -0.51785483D-14
 -0.16850500D-14  0.75840620D-15  0.81933173D-15  0.21093444D-15 -0.20574707D-18
 -0.10734320D-02 -0.15495114D-02 -0.20701102D-02 -0.24593545D-02 -0.23833030D-02
 -0.16566996D-02 -0.53907416D-03  0.24262615D-03  0.26211719D-03  0.67481268D-04
 -0.65821746D-07 -0.12754585D-14 -0.18532978D-14 -0.24639809D-14 -0.29566066D-14
 -0.28605299D-14 -0.20306432D-14 -0.63112901D-15  0.36235446D-15  0.41626484D-15
  0.11054279D-15 -0.39884182D-16  0.30903682D-14  0.44904420D-14  0.59700947D-14
  0.71637004D-14  0.69309119D-14  0.49201404D-14  0.15291920D-14 -0.87796558D-15
 -0.10085876D-14 -0.26783929D-15  0.96637251D-16  0.79180381D-03  0.11505261D-02
  0.15296377D-02  0.18354594D-02  0.17758151D-02  0.12606219D-02  0.39180447D-03
 -0.22494941D-03 -0.25841694D-03 -0.68624889D-04  0.24760074D-04  0.47625336D-16
  0.89655718D-17 -0.74185412D-05 -0.21440629D-16  0.19921851D-16 -0.11650562D-04
  0.32143417D-17 -0.11578571D-17 -0.64625753D-07 -0.95089185D-04 -0.99500586D-04
 -0.84779825D-04 -0.55833924D-04 -0.25732193D-04 -0.77055469D-05 -0.13110335D-05
 -0.95089185D-04 -0.99500586D-04 -0.84779825D-04 -0.55833924D-04 -0.25732193D-04
 -0.77055469D-05 -0.13110335D-05  0.19017837D-03  0.19900117D-03  0.16955965D-03
  0.11166785D-03  0.51464387D-04  0.15411094D-04  0.26220670D-05 -0.24422427D-15
 -0.25555439D-15 -0.21774602D-15 -0.14340221D-15 -0.66089811D-16 -0.19790701D-16
 -0.33672200D-17 -0.65147019D-17 -0.68169336D-17 -0.58083923D-17 -0.38252655D-17
 -0.17629510D-17 -0.52791852D-18 -0.89820860D-19  0.24274458D-14  0.25400605D-14
  0.21642675D-14  0.14253338D-14  0.65689389D-15  0.19670794D-15  0.33468188D-16
  0.52146523D-05  0.52146523D-05 -0.10429305D-04 -0.12708298D-16 -0.21035628D-17
 -0.33338771D-16  0.13785492D-05  0.13785492D-05 -0.27570984D-05  0.14676666D-16
  0.20036432D-16 -0.12372239D-15 -0.10369899D-05 -0.10369899D-05  0.20739798D-05
 -0.12518013D-17  0.10233269D-16 -0.15301649D-17 -0.14109421D-16 -0.29186482D-16
  0.67659596D-05 -0.13669430D-16 -0.29164457D-16 -0.10148939D-04  0.55997693D-16
  0.11672390D-15 -0.10148939D-04  0.10547201D-16  0.35692548D-17 -0.34731594D-17
 -0.12368204D-05  0.32509579D-17 -0.39612560D-17  0.18552307D-05 -0.13958722D-16
  0.14380734D-16  0.18552307D-05 -0.85761781D-17
MO    2     MO 0.0        OCC NO =    2.0000000  ORB. ENERGY =  -63.055881
  0.15184365D-03  0.28307109D-03  0.47844001D-03  0.71925205D-03  0.88368425D-03
  0.74641262D-03  0.28151938D-03 -0.13932551D-05 -0.91597539D-04 -0.17149949D-03
 -0.29199256D-03 -0.45166810D-03 -0.59483100D-03 -0.61806751D-03 -0.39275415D-03
  0.26321470D-03 -0.36494741D-03 -0.76319887D-03 -0.43078056D-04 -0.47495841D-15
 -0.44530370D-15 -0.31708276D-15  0.25380501D-16  0.23795833D-16  0.16944051D-16
 -0.48139924D-03 -0.45134238D-03 -0.32138266D-03  0.15502631D-16 -0.28429754D-17
  0.41663439D-03 -0.17236632D-16  0.10948900D-16 -0.58920464D-04 -0.79526627D-18
  0.24885490D-17  0.16254014D-05  0.67536381D-05  0.67536381D-05 -0.13507276D-04
 -0.13681778D-15 -0.38469381D-15  0.25192558D-15 -0.13809567D-03 -0.13809567D-03
  0.27619135D-03  0.27402935D-16 -0.22601159D-16 -0.67434274D-16 -0.10990673D-04
 -0.10990673D-04  0.21981345D-04  0.36973294D-18 -0.57926732D-17  0.10110238D-16
 -0.17311228D-16 -0.75215063D-16  0.30933798D-04  0.94202074D-17  0.19573120D-15
 -0.46400696D-04  0.42513476D-16  0.29913992D-16 -0.46400696D-04  0.12683915D-16
  0.55583982D-17  0.48740643D-17  0.58286775D-04  0.64458348D-18 -0.15158690D-17
 -0.87430162D-04 -0.17319778D-16 -0.13106324D-16 -0.87430162D-04 -0.66834253D-18
 -0.60544064D-03 -0.11389076D-02 -0.19715052D-02 -0.32316742D-02 -0.50624802D-02
 -0.76093389D-02 -0.10875657D-01 -0.14437705D-01 -0.16814668D-01 -0.15444110D-01
 -0.90307784D-02 -0.23697214D-02 -0.12955175D-03  0.46369096D-05 -0.12958699D-05
  0.38478750D-06 -0.65599607D-07 -0.53520256D-08  0.25326930D+00  0.46533418D+00
  0.80467004D+00  0.13177597D+01  0.20747534D+01  0.31330809D+01  0.45733413D+01
  0.62977687D+01  0.80468624D+01  0.87720229D+01  0.72207256D+01  0.19798739D+01
 -0.39935341D+01 -0.38918734D+01 -0.85165154D+00 -0.28691356D-01 -0.97197147D-03
  0.24725701D-05 -0.13257566D-02 -0.25990139D-02 -0.45521085D-02 -0.74366640D-02
 -0.11729410D-01 -0.17699156D-01 -0.25950480D-01 -0.35828930D-01 -0.46452386D-01
 -0.51657787D-01 -0.44867968D-01 -0.13033342D-01  0.32856897D-01  0.47874815D-01
  0.82418206D-02 -0.20106513D-01 -0.95701934D-02  0.46217386D-04  0.48959192D-03
  0.10608275D-02  0.18058905D-02  0.29476997D-02  0.46467593D-02  0.70133019D-02
  0.10282644D-01  0.14215025D-01  0.18449676D-01  0.20611514D-01  0.18004624D-01
  0.53329873D-02 -0.13862703D-01 -0.21325524D-01 -0.37326178D-02  0.11774337D-01
  0.99946311D-02 -0.37289075D-02  0.38876987D-02  0.11707166D-02  0.79910017D-04
  0.67686548D-14  0.97118212D-14  0.12858968D-13  0.14848464D-13  0.13765209D-13
  0.89118475D-14  0.31455549D-14  0.36868616D-15  0.53600143D-17  0.78491443D-18
  0.80701394D-20  0.79249925D-14  0.11370961D-13  0.15055757D-13  0.17385134D-13
  0.16116819D-13  0.10434322D-13  0.36829325D-14  0.43167145D-15  0.62757039D-17
  0.91900698D-18  0.94488190D-20  0.41810192D-02  0.59990223D-02  0.79430244D-02
  0.91719427D-02  0.85028128D-02  0.55048760D-02  0.19430191D-02  0.22773859D-03
  0.33108976D-05  0.48484410D-06  0.49849503D-08 -0.39106179D-14 -0.56450219D-14
 -0.75416143D-14 -0.89596692D-14 -0.86826062D-14 -0.60355189D-14 -0.19639000D-14
  0.88391083D-15  0.95491860D-15  0.24584087D-15 -0.23979507D-18 -0.41833882D-14
 -0.60387689D-14 -0.80676509D-14 -0.95846168D-14 -0.92882283D-14 -0.64565035D-14
 -0.21008843D-14  0.94556466D-15  0.10215253D-14  0.26298856D-15 -0.25652106D-18
 -0.29669933D-01 -0.42828889D-01 -0.57218372D-01 -0.67977181D-01 -0.65875099D-01
 -0.45791597D-01 -0.14900146D-01  0.67062483D-02  0.72449856D-02  0.18651994D-02
 -0.18193298D-05  0.19573112D-14  0.28440600D-14  0.37812108D-14  0.45371912D-14
  0.43897525D-14  0.31162132D-14  0.96852688D-15 -0.55606704D-15 -0.63879758D-15
 -0.16963831D-15  0.61206032D-16  0.22231167D-14  0.32302872D-14  0.42947043D-14
  0.51533479D-14  0.49858869D-14  0.35393991D-14  0.11000541D-14 -0.63158170D-15
 -0.72554716D-15 -0.19267543D-15  0.69517894D-16  0.22788690D-01  0.33112977D-01
  0.44024087D-01  0.52825857D-01  0.51109250D-01  0.36281617D-01  0.11276418D-01
 -0.64742076D-02 -0.74374274D-02 -0.19750742D-02  0.71261293D-03 -0.95061743D-16
 -0.11187298D-15 -0.12022025D-03 -0.53096739D-18 -0.24447312D-16 -0.42150732D-03
  0.20128316D-17 -0.31029097D-17 -0.33802256D-05 -0.26525273D-02 -0.27755840D-02
 -0.23649462D-02 -0.15574958D-02 -0.71780346D-03 -0.21494741D-03 -0.36571479D-04
 -0.26525273D-02 -0.27755840D-02 -0.23649462D-02 -0.15574958D-02 -0.71780346D-03
 -0.21494741D-03 -0.36571479D-04  0.53050547D-02  0.55511681D-02  0.47298923D-02
  0.31149917D-02  0.14356069D-02  0.42989482D-03  0.73142959D-04 -0.67086242D-15
 -0.70198524D-15 -0.59812900D-15 -0.39391316D-15 -0.18154285D-15 -0.54363300D-16
 -0.92494546D-17 -0.77483686D-15 -0.81078329D-15 -0.69083076D-15 -0.45496428D-15
 -0.20967949D-15 -0.62788863D-16 -0.10682993D-16 -0.14713122D-14 -0.15395697D-14
 -0.13117958D-14 -0.86391672D-15 -0.39815349D-15 -0.11922771D-15 -0.20285584D-16
  0.17266029D-03  0.17266029D-03 -0.34532059D-03  0.16135407D-16  0.24079299D-16
  0.56634715D-16  0.28612173D-04  0.28612173D-04 -0.57224347D-04 -0.36150033D-18
 -0.23202264D-16 -0.43580992D-16 -0.35911793D-04 -0.35911793D-04  0.71823587D-04
  0.94683639D-19 -0.48931615D-17  0.11109821D-16 -0.17827638D-16 -0.33261017D-16
  0.20869719D-03 -0.17000977D-16 -0.31542857D-16 -0.31304578D-03  0.70483890D-16
  0.13132591D-15 -0.31304578D-03 -0.90093627D-17 -0.14234972D-17  0.49205526D-17
 -0.45118188D-04 -0.17362154D-17  0.10284701D-17  0.67677282D-04  0.60067069D-17
 -0.15790128D-16  0.67677282D-04  0.40054226D-17
MO    3     MO 0.0        OCC NO =    2.0000000  ORB. ENERGY =  -56.827583
 -0.63321989D-04 -0.11804658D-03 -0.19951952D-03 -0.29994320D-03 -0.36851487D-03
 -0.31126972D-03 -0.11739949D-03  0.58101661D-06  0.43296348D-04  0.81064424D-04
  0.13801912D-03  0.21349459D-03  0.28116486D-03  0.29214830D-03  0.18564713D-03
 -0.12441639D-03  0.74517956D-04 -0.90854657D-03 -0.16089540D-03 -0.11561752D-14
 -0.10839878D-14 -0.77186386D-15 -0.91446622D-15 -0.85737020D-15 -0.61049866D-15
  0.21927533D-03  0.20558456D-03  0.14638846D-03  0.98626490D-15  0.77511511D-15
 -0.52269339D-03  0.42653725D-15  0.38152907D-15 -0.35639760D-03  0.14224352D-16
  0.99578330D-17 -0.12402986D-04  0.16985133D-04  0.16985133D-04 -0.33970266D-04
 -0.58745244D-17 -0.22880004D-14 -0.11251200D-14  0.74500052D-04  0.74500052D-04
 -0.14900010D-03 -0.10190807D-16  0.17680941D-14  0.13648011D-14  0.10466841D-04
  0.10466841D-04 -0.20933683D-04  0.42179859D-18  0.98658893D-16  0.94630858D-16
  0.12491473D-15  0.13188782D-15  0.36834226D-04  0.13373017D-15  0.34149046D-16
 -0.55251339D-04 -0.50847437D-15 -0.42981249D-15 -0.55251339D-04 -0.29430496D-17
 -0.13800408D-15 -0.11138685D-15 -0.44940234D-05 -0.13805348D-15 -0.11274699D-15
  0.67410351D-05  0.55206571D-15  0.44690754D-15  0.67410351D-05  0.18762020D-17
 -0.12223744D-04 -0.22994351D-04 -0.39804355D-04 -0.65246953D-04 -0.10221062D-03
 -0.15363126D-03 -0.21957766D-03 -0.29149480D-03 -0.33948529D-03 -0.31181396D-03
 -0.18232988D-03 -0.47844274D-04 -0.26156278D-05  0.93618417D-07 -0.26163393D-07
  0.77687943D-08 -0.13244449D-08 -0.10805649D-09  0.83270913D-05  0.15299447D-04
  0.26456270D-04  0.43325839D-04  0.68214587D-04  0.10301071D-03  0.15036418D-03
  0.20706061D-03  0.26456802D-03  0.28841014D-03  0.23740596D-03  0.65095101D-04
 -0.13130104D-03 -0.12795860D-03 -0.28000946D-04 -0.94332610D-06 -0.31956874D-07
  0.81294166D-10 -0.32247860D-04 -0.63218723D-04 -0.11072603D-03 -0.18089030D-03
 -0.28530757D-03 -0.43051638D-03 -0.63122255D-03 -0.87150715D-03 -0.11299133D-02
 -0.12565301D-02 -0.10913738D-02 -0.31702456D-03  0.79921507D-03  0.11645127D-02
  0.20047502D-03 -0.48907321D-03 -0.23278652D-03  0.11241972D-05  0.17522636D-04
  0.37967321D-04  0.64633343D-04  0.10549902D-03  0.16630885D-03  0.25100809D-03
  0.36801878D-03  0.50875983D-03  0.66031922D-03  0.73769204D-03  0.64439069D-03
  0.19086915D-03 -0.49615015D-03 -0.76324664D-03 -0.13359147D-03  0.42140690D-03
  0.35771073D-03 -0.13345868D-03 -0.18414310D-03  0.97056622D-03  0.16237858D-03
 -0.75573926D-09 -0.10843520D-08 -0.14357397D-08 -0.16578726D-08 -0.15369242D-08
 -0.99503274D-09 -0.35121002D-09 -0.41164842D-10 -0.59846061D-12 -0.87637895D-13
 -0.90105367D-15 -0.56720676D-09 -0.81384127D-09 -0.10775691D-08 -0.12442870D-08
 -0.11535113D-08 -0.74680425D-09 -0.26359447D-09 -0.30895545D-10 -0.44916404D-12
 -0.65775074D-13 -0.67626991D-15 -0.52018124D+02 -0.74636798D+02 -0.98823089D+02
 -0.11411267D+03 -0.10578769D+03 -0.68488881D+02 -0.24174060D+02 -0.28334083D+01
 -0.41192512D-01 -0.60321848D-02 -0.62020228D-04  0.72534920D-13  0.10470499D-12
  0.13988336D-12  0.16618573D-12  0.16104671D-12  0.11194801D-12  0.36426807D-13
 -0.16394954D-13 -0.17712020D-13 -0.45599054D-14  0.44477667D-17  0.58320797D-13
  0.84186740D-13  0.11247147D-12  0.13361956D-12  0.12948760D-12  0.90010397D-13
  0.29288520D-13 -0.13182158D-13 -0.14241129D-13 -0.36663350D-14  0.35761713D-17
  0.28285087D-01  0.40829848D-01  0.54547701D-01  0.64804342D-01  0.62800375D-01
  0.43654272D-01  0.14204681D-01 -0.63932338D-02 -0.69068255D-02 -0.17781411D-02
  0.17344124D-05 -0.14963450D-12 -0.21742556D-12 -0.28906980D-12 -0.34686375D-12
 -0.33559222D-12 -0.23823140D-12 -0.74042918D-13  0.42510772D-13  0.48835441D-13
  0.12968680D-13 -0.46791403D-14 -0.11478802D-12 -0.16679208D-12 -0.22175200D-12
 -0.26608705D-12 -0.25744040D-12 -0.18275271D-12 -0.56800001D-13  0.32610978D-13
  0.37462774D-13  0.99485689D-14 -0.35894747D-14 -0.26659915D-01 -0.38738039D-01
 -0.51502672D-01 -0.61799641D-01 -0.59791426D-01 -0.42444951D-01 -0.13191997D-01
  0.75740127D-02  0.87008593D-02  0.23105897D-02 -0.83366795D-03  0.20613458D-13
  0.15589140D-13  0.18924674D-02  0.32201385D-15  0.19418909D-15 -0.24470347D-03
 -0.58231515D-16 -0.41128357D-16 -0.65721559D-05  0.45461942D-04  0.47571024D-04
  0.40533059D-04  0.26694083D-04  0.12302508D-04  0.36840060D-05  0.62680239D-06
  0.45461942D-04  0.47571024D-04  0.40533059D-04  0.26694083D-04  0.12302508D-04
  0.36840060D-05  0.62680239D-06 -0.90923885D-04 -0.95142048D-04 -0.81066117D-04
 -0.53388167D-04 -0.24605017D-04 -0.73680121D-05 -0.12536048D-05  0.14074137D-15
  0.14727068D-15  0.12548250D-15  0.82639713D-16  0.38086183D-16  0.11404969D-16
  0.19404588D-17 -0.11799765D-13 -0.12347183D-13 -0.10520461D-13 -0.69285188D-14
 -0.31931481D-14 -0.95619335D-15 -0.16268819D-15 -0.10829957D-13 -0.11332383D-13
 -0.96557965D-14 -0.63590720D-14 -0.29307069D-14 -0.87760494D-15 -0.14931704D-15
  0.59935348D-04  0.59935348D-04 -0.11987070D-03 -0.31168934D-17 -0.67682280D-15
 -0.58070584D-15 -0.10537740D-03 -0.10537740D-03  0.21075480D-03  0.40985511D-18
  0.13112796D-14  0.10799379D-14 -0.10714131D-04 -0.10714131D-04  0.21428263D-04
 -0.34726483D-19  0.53397189D-16  0.54057878D-16  0.11026973D-15  0.79939060D-16
 -0.40966100D-04  0.11083914D-15  0.77146097D-16  0.61449149D-04 -0.44164835D-15
 -0.31696328D-15  0.61449149D-04  0.41154023D-17  0.91752023D-16  0.73939012D-16
 -0.28058113D-04  0.91154955D-16  0.75808345D-16  0.42087169D-04 -0.36641103D-15
 -0.29762538D-15  0.42087169D-04 -0.17049222D-17
MO    4     MO 0.0        OCC NO =    2.0000000  ORB. ENERGY =  -56.827073
 -0.73996244D-15 -0.13794582D-14 -0.23315274D-14 -0.35050494D-14 -0.43063582D-14
 -0.36374079D-14 -0.13718964D-14  0.67895921D-17  0.44279897D-15  0.82905939D-15
  0.14115445D-14  0.21834448D-14  0.28755200D-14  0.29878494D-14  0.18986442D-14
 -0.12724272D-14  0.77226930D-15 -0.97637480D-14 -0.17551112D-14  0.79292434D-04
  0.74341697D-04  0.52935717D-04 -0.24403661D-04 -0.22879983D-04 -0.16291911D-04
  0.24487538D-14  0.22958623D-14  0.16347907D-14 -0.65773563D-04  0.20242987D-04
 -0.55014336D-14 -0.29395843D-04  0.90470949D-05 -0.38269119D-14 -0.83650782D-06
  0.25745020D-06 -0.13512386D-15  0.13028045D-15  0.24973867D-15 -0.38001912D-15
 -0.14533059D-16  0.13477799D-03 -0.41480330D-04  0.75912722D-15  0.75507417D-15
 -0.15142014D-14  0.20001833D-16 -0.11650883D-03  0.35857669D-04  0.11206905D-15
  0.11145128D-15 -0.22352033D-15 -0.35927360D-17 -0.69523504D-05  0.21397099D-05
 -0.83936533D-05  0.25832965D-05  0.43892823D-15 -0.83936536D-05  0.25832966D-05
 -0.65815635D-15  0.33574613D-04 -0.10333186D-04 -0.65862832D-15  0.12404012D-16
  0.92795086D-05 -0.28559343D-05 -0.32587299D-16  0.92795088D-05 -0.28559343D-05
  0.50783954D-16 -0.37118035D-04  0.11423737D-04  0.46977943D-16 -0.25309421D-17
 -0.15144735D-15 -0.28489091D-15 -0.49316022D-15 -0.80838395D-15 -0.12663491D-14
 -0.19034306D-14 -0.27204804D-14 -0.36115054D-14 -0.42060885D-14 -0.38632516D-14
 -0.22589952D-14 -0.59277163D-15 -0.32406594D-16  0.11598952D-17 -0.32415410D-18
  0.96252289D-19 -0.16409349D-19 -0.13387772D-20  0.14517447D-15  0.26673048D-15
  0.46123848D-15  0.75534247D-15  0.11892528D-14  0.17958882D-14  0.26214483D-14
  0.36098936D-14  0.46124776D-14  0.50281410D-14  0.41389343D-14  0.11348677D-14
 -0.22891017D-14 -0.22308296D-14 -0.48816836D-15 -0.16445943D-16 -0.55713599D-18
  0.14172821D-20 -0.39488973D-15 -0.77414204D-15 -0.13558906D-14 -0.22150840D-14
 -0.34937210D-14 -0.52718691D-14 -0.77296075D-14 -0.10672002D-13 -0.13836303D-13
 -0.15386783D-13 -0.13364369D-13 -0.38821101D-14  0.97867523D-14  0.14259988D-13
  0.24549079D-14 -0.59889241D-14 -0.28505769D-14  0.13766306D-16  0.20886089D-15
  0.45255112D-15  0.77039652D-15  0.12574946D-14  0.19823168D-14  0.29918886D-14
  0.43865963D-14  0.60641580D-14  0.78706686D-14  0.87929132D-14  0.76808088D-14
  0.22750630D-14 -0.59138570D-14 -0.90975111D-14 -0.15923422D-14  0.50229556D-14
  0.42637296D-14 -0.15907594D-14 -0.19929971D-14  0.10466045D-13  0.17640828D-14
  0.49711236D+02  0.71326822D+02  0.94440504D+02  0.10905202D+03  0.10109624D+03
  0.65451551D+02  0.23101994D+02  0.27077529D+01  0.39365715D-01  0.57646708D-02
  0.59269768D-04 -0.15299519D+02 -0.21952102D+02 -0.29065750D+02 -0.33562706D+02
 -0.31114172D+02 -0.20143882D+02 -0.71100507D+01 -0.83335925D+00 -0.12115501D-01
 -0.17741803D-02 -0.18241328D-04 -0.55550685D-09 -0.79705398D-09 -0.10553418D-08
 -0.12186208D-08 -0.11297176D-08 -0.73139974D-09 -0.25815725D-09 -0.30258256D-10
 -0.43989903D-12 -0.64418317D-13 -0.66232034D-15 -0.48228524D-02 -0.69618429D-02
 -0.93008557D-02 -0.11049702D-01 -0.10708008D-01 -0.74434316D-02 -0.24220212D-02
  0.10901018D-02  0.11776736D-02  0.30318846D-03 -0.29573235D-06  0.14843189D-02
  0.21426313D-02  0.28625042D-02  0.34007429D-02  0.32955805D-02  0.22908488D-02
  0.74542024D-03 -0.33549826D-03 -0.36245006D-03 -0.93311657D-04  0.91016905D-07
  0.29484462D-12  0.42561160D-12  0.56860692D-12  0.67552247D-12  0.65463305D-12
  0.45505348D-12  0.14807004D-12 -0.66643267D-13 -0.71996963D-13 -0.18535398D-13
  0.18079569D-16  0.99143487D-02  0.14405988D-01  0.19152929D-01  0.22982189D-01
  0.22235369D-01  0.15784523D-01  0.49058695D-02 -0.28166408D-02 -0.32356950D-02
 -0.85926724D-03  0.31002630D-03 -0.30513177D-02 -0.44336999D-02 -0.58946555D-02
 -0.70731785D-02 -0.68433315D-02 -0.48579685D-02 -0.15098688D-02  0.86687144D-03
  0.99584284D-03  0.26445482D-03 -0.95416124D-04 -0.28146840D-12 -0.40898607D-12
 -0.54375173D-12 -0.65246443D-12 -0.63126222D-12 -0.44812268D-12 -0.13927765D-12
  0.79964443D-13  0.91861394D-13  0.24394600D-13 -0.88016479D-14 -0.13559706D-02
  0.41732414D-03  0.20052288D-13 -0.20102870D-04  0.61870167D-05 -0.26813462D-14
  0.36974274D-05 -0.11379492D-05 -0.67880741D-16  0.34280871D-15  0.35871238D-15
  0.30564215D-15  0.20128846D-15  0.92767859D-16  0.27779486D-16  0.47264440D-17
  0.13941797D-13  0.14588588D-13  0.12430258D-13  0.81862645D-14  0.37728056D-14
  0.11297727D-14  0.19222125D-15 -0.14284605D-13 -0.14947300D-13 -0.12735900D-13
 -0.83875530D-14 -0.38655734D-14 -0.11575522D-14 -0.19694770D-15 -0.98099055D-14
 -0.10265009D-13 -0.87463372D-14 -0.57601243D-14 -0.26546698D-14 -0.79494516D-15
 -0.13525318D-15  0.82413351D-03  0.86236692D-03  0.73478277D-03  0.48391001D-03