 Molden2AIM, Version 4.0.0 (06/02/2016)           Time: Sun Jun 24 19:24:00 2018
GAUSSIAN             26 MOL ORBITALS    320 PRIMITIVES        2 NUCLEI
  Cl   1    (CENTRE  1)   0.00000000  0.00000000 -2.49530209  CHARGE = 17.0
  Br   2    (CENTRE  2)   0.00000000  0.00000000  1.53061202  CHARGE = 35.0
CENTRE ASSIGNMENTS    1  1  1  1  1  1  1  1  1  1  1  1  1  1  1  1  1  1  1  1
CENTRE ASSIGNMENTS    1  1  1  1  1  1  1  1  1  1  1  1  1  1  1  1  1  1  1  1
CENTRE ASSIGNMENTS    1  1  1  1  1  1  1  1  1  1  1  1  1  1  1  1  1  1  1  1
CENTRE ASSIGNMENTS    1  1  1  1  1  1  1  1  1  1  1  1  1  1  1  1  1  1  1  1
CENTRE ASSIGNMENTS    1  1  1  1  1  1  1  1  1  1  1  1  1  1  1  1  1  1  1  1
CENTRE ASSIGNMENTS    1  1  1  1  1  1  1  1  1  1  1  1  1  1  1  1  1  1  1  1
CENTRE ASSIGNMENTS    1  1  1  1  1  1  1  1  1  1  1  2  2  2  2  2  2  2  2  2
CENTRE ASSIGNMENTS    2  2  2  2  2  2  2  2  2  2  2  2  2  2  2  2  2  2  2  2
CENTRE ASSIGNMENTS    2  2  2  2  2  2  2  2  2  2  2  2  2  2  2  2  2  2  2  2
CENTRE ASSIGNMENTS    2  2  2  2  2  2  2  2  2  2  2  2  2  2  2  2  2  2  2  2
CENTRE ASSIGNMENTS    2  2  2  2  2  2  2  2  2  2  2  2  2  2  2  2  2  2  2  2
CENTRE ASSIGNMENTS    2  2  2  2  2  2  2  2  2  2  2  2  2  2  2  2  2  2  2  2
CENTRE ASSIGNMENTS    2  2  2  2  2  2  2  2  2  2  2  2  2  2  2  2  2  2  2  2
CENTRE ASSIGNMENTS    2  2  2  2  2  2  2  2  2  2  2  2  2  2  2  2  2  2  2  2
CENTRE ASSIGNMENTS    2  2  2  2  2  2  2  2  2  2  2  2  2  2  2  2  2  2  2  2
CENTRE ASSIGNMENTS    2  2  2  2  2  2  2  2  2  2  2  2  2  2  2  2  2  2  2  2
TYPE ASSIGNMENTS      1  1  1  1  1  1  1  1  1  1  1  1  1  1  1  1  1  1  1  1
TYPE ASSIGNMENTS      1  2  2  2  2  2  2  2  2  3  3  3  3  3  3  3  3  4  4  4
TYPE ASSIGNMENTS      4  4  4  4  4  2  2  3  3  4  4  2  3  4  2  3  4  2  3  4
TYPE ASSIGNMENTS      2  3  4  2  3  4  5  6  7  8  9 10  5  6  7  8  9 10  5  6
TYPE ASSIGNMENTS      7  8  9 10  5  6  7  8  9 10  5  6  7  8  9 10 11 12 13 17
TYPE ASSIGNMENTS     14 15 18 19 16 20 11 12 13 17 14 15 18 19 16 20 21 22 23 24
TYPE ASSIGNMENTS     25 26 27 28 29 30 31 32 33 34 35  1  1  1  1  1  1  1  1  1
TYPE ASSIGNMENTS      1  1  1  1  1  1  1  1  1  1  1  1  1  1  1  1  2  2  2  2
TYPE ASSIGNMENTS      2  2  2  2  2  2  3  3  3  3  3  3  3  3  3  3  4  4  4  4
TYPE ASSIGNMENTS      4  4  4  4  4  4  2  2  2  2  2  3  3  3  3  3  4  4  4  4
TYPE ASSIGNMENTS      4  2  3  4  2  3  4  2  3  4  2  3  4  2  3  4  2  3  4  5
TYPE ASSIGNMENTS      5  5  5  5  5  5  6  6  6  6  6  6  6  7  7  7  7  7  7  7
TYPE ASSIGNMENTS      8  8  8  8  8  8  8  9  9  9  9  9  9  9 10 10 10 10 10 10
TYPE ASSIGNMENTS     10  5  6  7  8  9 10  5  6  7  8  9 10  5  6  7  8  9 10  5
TYPE ASSIGNMENTS      6  7  8  9 10 11 12 13 17 14 15 18 19 16 20 11 12 13 17 14
TYPE ASSIGNMENTS     15 18 19 16 20 21 22 23 24 25 26 27 28 29 30 31 32 33 34 35
EXPONENTS  0.1467459D+07 0.2197562D+06 0.5001077D+05 0.1416482D+05 0.4620747D+04
EXPONENTS  0.1667899D+04 0.6502920D+03 0.2693804D+03 0.1170675D+03 0.5281177D+02
EXPONENTS  0.4614277D+03 0.1421267D+03 0.5443784D+02 0.2416077D+02 0.9708354D+01
EXPONENTS  0.4564070D+01 0.2119474D+01 0.7572237D+00 0.3374722D+00 0.1386078D+00
EXPONENTS  0.5423457D-01 0.2501946D+04 0.5928806D+03 0.1921809D+03 0.7287571D+02
EXPONENTS  0.3043636D+02 0.1349018D+02 0.6147807D+01 0.2845094D+01 0.2501946D+04
EXPONENTS  0.5928806D+03 0.1921809D+03 0.7287571D+02 0.3043636D+02 0.1349018D+02
EXPONENTS  0.6147807D+01 0.2845094D+01 0.2501946D+04 0.5928806D+03 0.1921809D+03
EXPONENTS  0.7287571D+02 0.3043636D+02 0.1349018D+02 0.6147807D+01 0.2845094D+01
EXPONENTS  0.1053940D+03 0.6736974D+01 0.1053940D+03 0.6736974D+01 0.1053940D+03
EXPONENTS  0.6736974D+01 0.1242110D+01 0.1242110D+01 0.1242110D+01 0.5566971D+00
EXPONENTS  0.5566971D+00 0.5566971D+00 0.2338780D+00 0.2338780D+00 0.2338780D+00
EXPONENTS  0.9316449D-01 0.9316449D-01 0.9316449D-01 0.2725615D-01 0.2725615D-01
EXPONENTS  0.2725615D-01 0.5191000D+01 0.5191000D+01 0.5191000D+01 0.5191000D+01
EXPONENTS  0.5191000D+01 0.5191000D+01 0.1276000D+01 0.1276000D+01 0.1276000D+01
EXPONENTS  0.1276000D+01 0.1276000D+01 0.1276000D+01 0.5830000D+00 0.5830000D+00
EXPONENTS  0.5830000D+00 0.5830000D+00 0.5830000D+00 0.5830000D+00 0.2430000D+00
EXPONENTS  0.2430000D+00 0.2430000D+00 0.2430000D+00 0.2430000D+00 0.2430000D+00
EXPONENTS  0.8345654D-01 0.8345654D-01 0.8345654D-01 0.8345654D-01 0.8345654D-01
EXPONENTS  0.8345654D-01 0.4230000D+00 0.4230000D+00 0.4230000D+00 0.4230000D+00
EXPONENTS  0.4230000D+00 0.4230000D+00 0.4230000D+00 0.4230000D+00 0.4230000D+00
EXPONENTS  0.4230000D+00 0.1089000D+01 0.1089000D+01 0.1089000D+01 0.1089000D+01
EXPONENTS  0.1089000D+01 0.1089000D+01 0.1089000D+01 0.1089000D+01 0.1089000D+01
EXPONENTS  0.1089000D+01 0.8270000D+00 0.8270000D+00 0.8270000D+00 0.8270000D+00
EXPONENTS  0.8270000D+00 0.8270000D+00 0.8270000D+00 0.8270000D+00 0.8270000D+00
EXPONENTS  0.8270000D+00 0.8270000D+00 0.8270000D+00 0.8270000D+00 0.8270000D+00
EXPONENTS  0.8270000D+00 0.1062904D+08 0.1591918D+07 0.3623340D+06 0.1026431D+06
EXPONENTS  0.3348985D+05 0.1209125D+05 0.4716191D+04 0.1956160D+04 0.8530860D+03
EXPONENTS  0.3879663D+03 0.1828516D+03 0.3240409D+04 0.1000463D+04 0.3833730D+03
EXPONENTS  0.1660393D+03 0.8791991D+02 0.3567584D+02 0.1754366D+02 0.8447366D+01
EXPONENTS  0.3966618D+01 0.1835682D+01 0.5908478D+00 0.2886322D+00 0.1215338D+00
EXPONENTS  0.4797394D-01 0.2656648D+05 0.6290509D+04 0.2043318D+04 0.7816722D+03
EXPONENTS  0.3315108D+03 0.1510920D+03 0.7239528D+02 0.3586951D+02 0.1813991D+02
EXPONENTS  0.9046669D+01 0.2656648D+05 0.6290509D+04 0.2043318D+04 0.7816722D+03
EXPONENTS  0.3315108D+03 0.1510920D+03 0.7239528D+02 0.3586951D+02 0.1813991D+02
EXPONENTS  0.9046669D+01 0.2656648D+05 0.6290509D+04 0.2043318D+04 0.7816722D+03
EXPONENTS  0.3315108D+03 0.1510920D+03 0.7239528D+02 0.3586951D+02 0.1813991D+02
EXPONENTS  0.9046669D+01 0.2537182D+03 0.9725082D+02 0.4203490D+02 0.9968567D+01
EXPONENTS  0.4939585D+01 0.2537182D+03 0.9725082D+02 0.4203490D+02 0.9968567D+01
EXPONENTS  0.4939585D+01 0.2537182D+03 0.9725082D+02 0.4203490D+02 0.9968567D+01
EXPONENTS  0.4939585D+01 0.2438285D+01 0.2438285D+01 0.2438285D+01 0.1180000D+01
EXPONENTS  0.1180000D+01 0.1180000D+01 0.5104756D+00 0.5104756D+00 0.5104756D+00
EXPONENTS  0.2121585D+00 0.2121585D+00 0.2121585D+00 0.8394360D-01 0.8394360D-01
EXPONENTS  0.8394360D-01 0.2444463D-01 0.2444463D-01 0.2444463D-01 0.6014443D+03
EXPONENTS  0.1808572D+03 0.6998681D+02 0.3032471D+02 0.1402791D+02 0.6651170D+01
EXPONENTS  0.3135417D+01 0.6014443D+03 0.1808572D+03 0.6998681D+02 0.3032471D+02
EXPONENTS  0.1402791D+02 0.6651170D+01 0.3135417D+01 0.6014443D+03 0.1808572D+03
EXPONENTS  0.6998681D+02 0.3032471D+02 0.1402791D+02 0.6651170D+01 0.3135417D+01
EXPONENTS  0.6014443D+03 0.1808572D+03 0.6998681D+02 0.3032471D+02 0.1402791D+02
EXPONENTS  0.6651170D+01 0.3135417D+01 0.6014443D+03 0.1808572D+03 0.6998681D+02
EXPONENTS  0.3032471D+02 0.1402791D+02 0.6651170D+01 0.3135417D+01 0.6014443D+03
EXPONENTS  0.1808572D+03 0.6998681D+02 0.3032471D+02 0.1402791D+02 0.6651170D+01
EXPONENTS  0.3135417D+01 0.1439359D+01 0.1439359D+01 0.1439359D+01 0.1439359D+01
EXPONENTS  0.1439359D+01 0.1439359D+01 0.5935044D+00 0.5935044D+00 0.5935044D+00
EXPONENTS  0.5935044D+00 0.5935044D+00 0.5935044D+00 0.2300000D+00 0.2300000D+00
EXPONENTS  0.2300000D+00 0.2300000D+00 0.2300000D+00 0.2300000D+00 0.7666551D-01
EXPONENTS  0.7666551D-01 0.7666551D-01 0.7666551D-01 0.7666551D-01 0.7666551D-01
EXPONENTS  0.3407000D+00 0.3407000D+00 0.3407000D+00 0.3407000D+00 0.3407000D+00
EXPONENTS  0.3407000D+00 0.3407000D+00 0.3407000D+00 0.3407000D+00 0.3407000D+00
EXPONENTS  0.8257000D+00 0.8257000D+00 0.8257000D+00 0.8257000D+00 0.8257000D+00
EXPONENTS  0.8257000D+00 0.8257000D+00 0.8257000D+00 0.8257000D+00 0.8257000D+00
EXPONENTS  0.6491000D+00 0.6491000D+00 0.6491000D+00 0.6491000D+00 0.6491000D+00
EXPONENTS  0.6491000D+00 0.6491000D+00 0.6491000D+00 0.6491000D+00 0.6491000D+00
EXPONENTS  0.6491000D+00 0.6491000D+00 0.6491000D+00 0.6491000D+00 0.6491000D+00
MO    1     MO 0.0        OCC NO =    2.0000000  ORB. ENERGY = -483.313689
 -0.71434906D-07 -0.13368961D-06 -0.23157048D-06 -0.37875565D-06 -0.59083147D-06
 -0.87655715D-06 -0.12157613D-05 -0.15047234D-05 -0.15227896D-05 -0.10510889D-05
  0.66847832D-06  0.25291843D-05  0.47713053D-05 -0.73643191D-05  0.10052348D-04
 -0.10977962D-04  0.83598168D-05 -0.64647671D-05  0.20424390D-05  0.30198521D-05
 -0.10768897D-05  0.12233336D-14  0.17587207D-14  0.23329442D-14  0.27298635D-14
  0.26906039D-14  0.20270870D-14  0.10586499D-14  0.30423902D-15  0.16422194D-15
  0.23609303D-15  0.31317755D-15  0.36646053D-15  0.36119027D-15  0.27211887D-15
  0.14211459D-15  0.40841453D-16 -0.14205891D-06 -0.20423043D-06 -0.27091180D-06
 -0.31700383D-06 -0.31244483D-06 -0.23539431D-06 -0.12293512D-06 -0.35329581D-07
  0.29460433D-14 -0.17678684D-14 -0.79480960D-15  0.47695117D-15  0.14212245D-05
 -0.85285166D-06 -0.36340399D-17 -0.20600590D-15  0.16798363D-05 -0.46700529D-16
  0.15055846D-15 -0.44631485D-05 -0.84113197D-17 -0.80732507D-16  0.60672195D-05
  0.20295995D-17  0.88281341D-17 -0.53905389D-06  0.67598705D-19 -0.76538603D-18
 -0.22752838D-07 -0.23980743D-05 -0.23980743D-05  0.47961486D-05 -0.47813902D-15
  0.48712332D-15  0.13472711D-15  0.13028884D-05  0.13028884D-05 -0.26057768D-05
 -0.73178252D-16 -0.42589496D-16  0.64656486D-16 -0.52912897D-06 -0.52912897D-06
  0.10582579D-05  0.35781038D-16  0.71949394D-17 -0.27915381D-16 -0.79629607D-06
 -0.79629607D-06  0.15925921D-05 -0.53726143D-17  0.22088214D-17 -0.18317984D-17
  0.30587602D-07  0.30587602D-07 -0.61175203D-07  0.25895132D-18  0.98705525D-18
  0.19783823D-18 -0.12180859D-17 -0.17232942D-17  0.91612203D-06 -0.12216207D-17
 -0.17149303D-17 -0.13741830D-05  0.48758783D-17  0.68848129D-17 -0.13741830D-05
  0.12206798D-17  0.38710423D-18  0.10143668D-16 -0.95205892D-06  0.37829927D-18
  0.10145631D-16  0.14280884D-05 -0.15396120D-17 -0.40576636D-16  0.14280884D-05
 -0.19866149D-17  0.13367510D-06  0.13367510D-06  0.35646692D-06 -0.27099097D-18
 -0.33090448D-17 -0.26728882D-18  0.49500930D-17  0.44115832D-17 -0.65974989D-17
  0.26735019D-06 -0.10694008D-05 -0.10694008D-05  0.49422178D-17 -0.33076151D-17
  0.16148394D-17  0.78783941D+00  0.14745883D+01  0.25544508D+01  0.41858521D+01
  0.65564166D+01  0.98535345D+01  0.14081757D+02  0.18690764D+02  0.21768562D+02
  0.20001404D+02  0.11705671D+02 -0.40644561D-02 -0.17482008D-01 -0.42915215D-01
 -0.54673007D-01  0.31636670D+01  0.12200505D+00 -0.50149800D-02 -0.33765709D-03
  0.35133845D-03 -0.13251970D-03  0.37053382D-04 -0.15942929D-04  0.85004127D-06
  0.49283088D-06  0.35927575D-15  0.52706142D-15  0.74269367D-15  0.97450722D-15
  0.11591354D-14  0.11898091D-14  0.96793853D-15  0.55167194D-15  0.17318258D-15
  0.20405929D-16  0.24149393D-15  0.35427422D-15  0.49921548D-15  0.65503331D-15
  0.77913457D-15  0.79975253D-15  0.65061803D-15  0.37081664D-15  0.11640792D-15
  0.13716228D-16 -0.20511303D-03 -0.30090304D-03 -0.42400900D-03 -0.55635297D-03
 -0.66175846D-03 -0.67927033D-03 -0.55260285D-03 -0.31495336D-03 -0.98871144D-04
 -0.11649887D-04  0.88903729D-17  0.20299136D-16  0.22042526D-16 -0.27440166D-16
 -0.25221596D-16 -0.56578687D-16 -0.12918451D-15 -0.14027951D-15  0.17463031D-15
  0.16051124D-15 -0.15757332D-04 -0.35978267D-04 -0.39068259D-04  0.48635058D-04
  0.44702855D-04  0.23770232D-16  0.18491813D-15 -0.31115387D-04 -0.34165265D-16
 -0.14296883D-15  0.12340613D-04  0.24661958D-16  0.12995822D-16 -0.68661572D-05
 -0.56608139D-17 -0.85632042D-17  0.57123329D-05  0.37545524D-18  0.21176921D-17
 -0.49056898D-06 -0.59626720D-18  0.93524579D-18 -0.67406861D-08 -0.22483384D-04
 -0.25014703D-04 -0.24078900D-04 -0.18529146D-04 -0.10999689D-04 -0.45454604D-05
 -0.12630388D-05 -0.22483384D-04 -0.25014703D-04 -0.24078900D-04 -0.18529146D-04
 -0.10999689D-04 -0.45454604D-05 -0.12630388D-05  0.44966768D-04  0.50029407D-04
  0.48157800D-04  0.37058292D-04  0.21999379D-04  0.90909207D-05  0.25260776D-05
  0.94002496D-16  0.10458588D-15  0.10067331D-15  0.77469922D-16  0.45989441D-16
  0.19004462D-16  0.52807353D-17 -0.60272756D-15 -0.67058638D-15 -0.64549965D-15
 -0.49672359D-15 -0.29487625D-15 -0.12185329D-15 -0.33859151D-16 -0.50440325D-15
 -0.56119211D-15 -0.54019784D-15 -0.41569195D-15 -0.24677242D-15 -0.10197509D-15
 -0.28335631D-16 -0.66670812D-07 -0.66670812D-07  0.13334162D-06 -0.29672767D-17
  0.29362370D-17  0.72228551D-17 -0.16390375D-06 -0.16390375D-06  0.32780751D-06
  0.97051157D-18 -0.30799891D-17 -0.47314348D-17  0.86704405D-06  0.86704405D-06
 -0.17340881D-05 -0.73915140D-18  0.40155582D-17  0.20505640D-17 -0.20502043D-07
 -0.20502043D-07  0.41004086D-07 -0.12624759D-19  0.68980313D-18 -0.60759925D-18
  0.18347519D-17 -0.21286448D-17  0.81492596D-06  0.18355699D-17 -0.21292583D-17
 -0.12223889D-05 -0.73398257D-17  0.85151927D-17 -0.12223889D-05 -0.46910857D-18
 -0.90165686D-18 -0.50463733D-18 -0.85961227D-06 -0.90190654D-18 -0.50477448D-18
  0.12894184D-05  0.36068771D-17  0.20186865D-17  0.12894184D-05  0.22034580D-18
 -0.19395933D-06 -0.19395933D-06 -0.51722488D-06 -0.13045874D-19  0.96536418D-18
 -0.13045792D-19 -0.24281134D-17 -0.12873840D-17  0.32378444D-17 -0.38791863D-06
  0.15516746D-05  0.15516746D-05 -0.24291928D-17  0.96605959D-18  0.78274998D-19
MO    2     MO 0.0        OCC NO =    2.0000000  ORB. ENERGY = -101.757596
 -0.34490656D+00 -0.64548870D+00 -0.11180833D+01 -0.18287322D+01 -0.28526901D+01
 -0.42322491D+01 -0.58700163D+01 -0.72652012D+01 -0.73524300D+01 -0.50749342D+01
  0.54449570D-02  0.20600967D-01  0.38863717D-01 -0.17392555D+01 -0.12218824D+00
  0.91150064D-02 -0.21258559D-02  0.44314540D-03 -0.14916272D-03  0.15754876D-04
  0.93536234D-06  0.10964741D-16  0.15763416D-16  0.20910182D-16  0.24467770D-16
  0.24115886D-16  0.18168783D-16  0.94886810D-17  0.27268947D-17  0.57347672D-17
  0.82445652D-17  0.10936421D-16  0.12797107D-16  0.12613065D-16  0.95026178D-17
  0.49627599D-17  0.14262176D-17 -0.12084475D-02 -0.17373197D-02 -0.23045558D-02
 -0.26966452D-02 -0.26578633D-02 -0.20024204D-02 -0.10457678D-02 -0.30053689D-03
  0.50674665D-16 -0.30408969D-16  0.30553294D-16 -0.18334491D-16 -0.35167084D-02
  0.21103144D-02  0.12149415D-17  0.17642302D-17  0.95915469D-04 -0.21550417D-18
 -0.11201763D-17 -0.10174094D-05 -0.16111141D-18  0.86697185D-19 -0.32869199D-04
  0.58404386D-19 -0.18370078D-19  0.28949811D-05 -0.11133949D-19 -0.84337450D-20
 -0.37595630D-07  0.84814005D-04  0.84814005D-04 -0.16962801D-03 -0.11036678D-16
 -0.20740470D-17  0.84078852D-18 -0.15188082D-04 -0.15188082D-04  0.30376164D-04
  0.97786197D-18  0.26579704D-18 -0.13057461D-18  0.70013597D-05  0.70013597D-05
 -0.14002719D-04 -0.41772516D-18 -0.16429674D-19  0.55964014D-19  0.43184947D-05
  0.43184947D-05 -0.86369894D-05  0.55488879D-19 -0.77685214D-20 -0.54917106D-20
 -0.11239893D-06 -0.11239893D-06  0.22479787D-06 -0.38983448D-20  0.72279069D-20
 -0.86648195D-20 -0.34524773D-20  0.68280247D-20 -0.64826855D-05 -0.39412087D-20
  0.84968909D-20  0.97240282D-05  0.14298640D-19 -0.28980965D-19  0.97240282D-05
 -0.22352875D-19  0.35896597D-20 -0.50919666D-19  0.91600906D-05  0.54667736D-19
 -0.66675185D-19 -0.13740136D-04 -0.65436715D-19  0.21943418D-18 -0.13740136D-04
  0.92451320D-19 -0.16562103D-05 -0.16562103D-05 -0.44165575D-05  0.77995662D-21
 -0.38316050D-19  0.96884853D-20  0.18392415D-19  0.52363670D-19 -0.31419079D-19
 -0.33124104D-05  0.13249673D-04  0.13249673D-04  0.39079991D-19 -0.42142862D-19
 -0.31405326D-19 -0.14970516D-06 -0.28020109D-06 -0.48539645D-06 -0.79539514D-06
 -0.12458496D-05 -0.18723675D-05 -0.26758138D-05 -0.35516169D-05 -0.41364597D-05
 -0.38006646D-05 -0.22243102D-05  0.95827950D-06  0.41217446D-05  0.10118149D-04
  0.12890291D-04 -0.38884083D-04  0.74462500D-04 -0.10653596D-03  0.11004336D-03
 -0.94162034D-04  0.64927460D-04 -0.55355015D-04  0.27951155D-04  0.85699268D-05
 -0.33683644D-05 -0.30574532D-14 -0.44853169D-14 -0.63203574D-14 -0.82931013D-14
 -0.98642953D-14 -0.10125331D-13 -0.82372014D-14 -0.46947536D-14 -0.14737918D-14
 -0.17365540D-15  0.23520014D-14  0.34504115D-14  0.48620497D-14  0.63796188D-14
  0.75882883D-14  0.77890944D-14  0.63366168D-14  0.36115245D-14  0.11337411D-14
  0.13358757D-15 -0.53562684D-05 -0.78577038D-05 -0.11072461D-04 -0.14528457D-04
 -0.17280988D-04 -0.17738289D-04 -0.14430527D-04 -0.82246101D-05 -0.25818954D-05
 -0.30422213D-06  0.16174373D-17  0.36930487D-17  0.40102259D-17 -0.49922259D-17
 -0.45885983D-17 -0.12639998D-17 -0.28860548D-17 -0.31339234D-17  0.39013397D-17
  0.35859117D-17 -0.30860864D-05 -0.70463733D-05 -0.76515506D-05  0.95252162D-05
  0.87550909D-05 -0.45479761D-18  0.27811203D-18 -0.12895993D-04 -0.13643147D-18
  0.33295279D-18  0.37861894D-06  0.53635820D-21 -0.93520873D-19  0.26518734D-04
 -0.59600842D-19 -0.15332511D-18 -0.33380508D-04  0.40393807D-19  0.91428855D-19
  0.33429478D-05 -0.36481343D-20 -0.16365446D-20  0.25759555D-07 -0.64856549D-04
 -0.72158504D-04 -0.69459044D-04 -0.53449983D-04 -0.31730183D-04 -0.13112033D-04
 -0.36434167D-05 -0.64856549D-04 -0.72158504D-04 -0.69459044D-04 -0.53449983D-04
 -0.31730183D-04 -0.13112033D-04 -0.36434167D-05  0.12971310D-03  0.14431701D-03
  0.13891809D-03  0.10689997D-03  0.63460367D-04  0.26224066D-04  0.72868335D-05
  0.11105206D-17  0.12355500D-17  0.11893279D-17  0.91520918D-18  0.54330710D-18
  0.22451369D-18  0.62385210D-19  0.92548225D-18  0.10296788D-17  0.99115838D-18
  0.76271419D-18  0.45277958D-18  0.18710453D-18  0.51990393D-19 -0.14707327D-17
 -0.16363170D-17 -0.15751021D-17 -0.12120694D-17 -0.71953595D-18 -0.29733768D-18
 -0.82620679D-19  0.10944117D-04  0.10944117D-04 -0.21888235D-04 -0.55363841D-20
 -0.12080310D-19  0.52515758D-19 -0.13867792D-05 -0.13867792D-05  0.27735583D-05
 -0.76614307D-20 -0.99170910D-20 -0.11834685D-19 -0.56033195D-05 -0.56033195D-05
  0.11206639D-04 -0.89615518D-20  0.16137203D-20  0.16363486D-19  0.21298196D-06
  0.21298196D-06 -0.42596392D-06  0.20783999D-20  0.17582418D-20 -0.12985887D-19
 -0.73647144D-21  0.19848522D-20 -0.58092140D-05 -0.66113062D-21  0.18096871D-20
  0.87138210D-05  0.28705449D-20 -0.77642437D-20  0.87138210D-05  0.22799098D-20
  0.40251473D-20  0.26771711D-20  0.32844277D-05  0.39583101D-20  0.28447314D-20
 -0.49266416D-05 -0.16033752D-19 -0.10876245D-19 -0.49266416D-05 -0.12842709D-19
  0.15953772D-05  0.15953772D-05  0.42543391D-05 -0.11066868D-20 -0.14427653D-20
 -0.10863530D-20  0.21004340D-20  0.19362563D-20 -0.27721400D-20  0.31907543D-05
 -0.12763017D-04 -0.12763017D-04  0.20151181D-20 -0.14804730D-20  0.65791193D-20
MO    3     MO 0.0        OCC NO =    2.0000000  ORB. ENERGY =  -62.699639
 -0.57152641D-06 -0.10696051D-05 -0.18527167D-05 -0.30302953D-05 -0.47270418D-05
 -0.70130359D-05 -0.97268933D-05 -0.12038780D-04 -0.12183322D-04 -0.84094049D-05
  0.65399860D-05  0.24744004D-04  0.46679553D-04 -0.97420865D-04  0.16039954D-03
 -0.19651344D-03  0.16193807D-03 -0.13018216D-03  0.39650184D-04  0.60735042D-04
 -0.23067224D-04  0.17624317D-14  0.25337529D-14  0.33610249D-14  0.39328584D-14
  0.38762979D-14  0.29203827D-14  0.15251753D-14  0.43831092D-15  0.26333912D-15
  0.37858844D-15  0.50219781D-15  0.58764006D-15  0.57918890D-15  0.43635791D-15
  0.22788873D-15  0.65491566D-16 -0.40862452D-05 -0.58745742D-05 -0.77926265D-05
 -0.91184378D-05 -0.89873009D-05 -0.67709857D-05 -0.35361599D-05 -0.10162356D-05
  0.85891898D-14 -0.51542207D-14  0.36359797D-14 -0.21818871D-14  0.21390856D-04
 -0.12836274D-04 -0.99828321D-16  0.59497847D-16  0.34108043D-04  0.96703451D-16
  0.50220223D-16 -0.94459196D-04 -0.28672775D-16 -0.38116190D-16  0.12384091D-03
 -0.75896947D-18  0.74137900D-17 -0.12098095D-04 -0.61979046D-18 -0.55887984D-18
 -0.51598538D-06 -0.53950499D-04 -0.53950499D-04  0.10790100D-03  0.60971083D-14
 -0.25155959D-14  0.17449748D-14  0.29699853D-04  0.29699853D-04 -0.59399705D-04
 -0.13190634D-15  0.24444825D-15  0.16010756D-15 -0.11182945D-04 -0.11182945D-04
  0.22365891D-04 -0.12634856D-16 -0.74393268D-16 -0.59532645D-16 -0.16422115D-04
 -0.16422115D-04  0.32844230D-04  0.12102593D-16  0.10986535D-16 -0.20410232D-17
  0.69001978D-06  0.69001978D-06 -0.13800396D-05 -0.74229493D-18 -0.30892454D-17
 -0.17851003D-18 -0.10783397D-17  0.24939655D-17  0.20231370D-04 -0.11031952D-17
  0.25550970D-17 -0.30347056D-04  0.43382143D-17 -0.10036994D-16 -0.30347056D-04
 -0.10248725D-16  0.33490510D-17  0.15256120D-16 -0.22778318D-04  0.32851847D-17
  0.15265168D-16  0.34167477D-04 -0.13332338D-16 -0.61033528D-16  0.34167477D-04
 -0.17954126D-16  0.37121684D-05  0.37121684D-05  0.98991156D-05  0.31653948D-17
  0.16571087D-16  0.31915391D-17  0.44002472D-17 -0.22097933D-16 -0.58496578D-17
  0.74243363D-05 -0.29697347D-04 -0.29697347D-04  0.43482318D-17  0.16580537D-16
 -0.19070802D-16  0.24900350D+00  0.46605645D+00  0.80735639D+00  0.13229750D+01
  0.20722125D+01  0.31142953D+01  0.44506617D+01  0.59073786D+01  0.68801434D+01
  0.63216179D+01  0.36996790D+01  0.26702768D+00  0.11485375D+01  0.28194548D+01
  0.35919213D+01  0.12668682D+01 -0.43024619D+01 -0.34553759D+01 -0.64981514D+00
  0.21689751D-03 -0.34189953D-02  0.78724954D-03 -0.33658950D-03  0.23411527D-04
  0.10359300D-04  0.16271630D-14  0.23870658D-14  0.33636662D-14  0.44135518D-14
  0.52497342D-14  0.53886560D-14  0.43838021D-14  0.24985271D-14  0.78434544D-15
  0.92418632D-16  0.36410352D-14  0.53414380D-14  0.75267362D-14  0.98760215D-14
  0.11747112D-13  0.12057972D-13  0.98094519D-14  0.55908503D-14  0.17550972D-14
  0.20680134D-15  0.32252835D-01  0.47315259D-01  0.66672958D-01  0.87483280D-01
  0.10405768D+00  0.10681132D+00  0.86893596D-01  0.49524590D-01  0.15546914D-01
  0.18318773D-02 -0.43920898D-16 -0.10028334D-15 -0.10889616D-15  0.13556200D-15
  0.12460165D-15 -0.12040439D-16 -0.27491592D-16 -0.29852706D-16  0.37162857D-16
  0.34158195D-16 -0.23840421D-03 -0.54434156D-03 -0.59109229D-03  0.73583542D-03
  0.67634223D-03  0.85029505D-16  0.19139609D-15 -0.33570728D-03 -0.55606345D-16
 -0.19612985D-15  0.14110622D-03 -0.12660246D-16  0.56893036D-16 -0.11140087D-03
  0.39917627D-17 -0.16743170D-17  0.11119449D-03  0.62685941D-18  0.59187828D-18
 -0.10538915D-04  0.78811892D-18  0.49108790D-18 -0.10625432D-06  0.41034323D-02
  0.45654223D-02  0.43946292D-02  0.33817462D-02  0.20075484D-02  0.82958994D-03
  0.23051664D-03  0.41034323D-02  0.45654223D-02  0.43946292D-02  0.33817462D-02
  0.20075484D-02  0.82958994D-03  0.23051664D-03 -0.82068647D-02 -0.91308446D-02
 -0.87892585D-02 -0.67634924D-02 -0.40150968D-02 -0.16591799D-02 -0.46103329D-03
  0.30731065D-15  0.34190959D-15  0.32911871D-15  0.25326276D-15  0.15034755D-15
  0.62128920D-16  0.17263650D-16  0.16892412D-15  0.18794264D-15  0.18091169D-15
  0.13921479D-15  0.82643823D-16  0.34151348D-16  0.94895729D-17  0.43375627D-15
  0.48259125D-15  0.46453745D-15  0.35746991D-15  0.21220935D-15  0.87692401D-16
  0.24366928D-16 -0.10596155D-03 -0.10596155D-03  0.21192310D-03 -0.27325535D-17
  0.27955193D-17 -0.49709352D-16  0.14048640D-04  0.14048640D-04 -0.28097281D-04
 -0.83821472D-17 -0.81256656D-17  0.25797790D-16  0.15815665D-04  0.15815665D-04
 -0.31631330D-04 -0.68315621D-18  0.33095867D-17 -0.11564592D-16 -0.36520971D-06
 -0.36520971D-06  0.73041942D-06  0.67711470D-18 -0.21147433D-17  0.68449303D-18
 -0.22709103D-18 -0.11045824D-17  0.16129304D-04 -0.22187389D-18 -0.11105990D-17
 -0.24193957D-04  0.90314699D-18  0.44243461D-17 -0.24193957D-04 -0.72281222D-17
 -0.18062984D-18  0.11608333D-16 -0.15041928D-04 -0.18735965D-18  0.11638663D-16
  0.22562892D-04  0.72924916D-18 -0.46463662D-16  0.22562892D-04  0.12738605D-16
 -0.39516017D-05 -0.39516017D-05 -0.10537599D-04 -0.38888619D-18  0.22527205D-17
 -0.38843692D-18  0.11535286D-16 -0.30053277D-17 -0.15380341D-16 -0.79031852D-05
  0.31612796D-04  0.31612796D-04  0.11535164D-16  0.22578216D-17  0.23319693D-17
MO    4     MO 0.0        OCC NO =    2.0000000  ORB. ENERGY =  -56.476050
  0.28398673D-07  0.53147793D-07  0.92059956D-07  0.15057286D-06  0.23488279D-06
  0.34847194D-06  0.48332127D-06  0.59819702D-06  0.60537920D-06  0.41785636D-06
 -0.41269400D-06 -0.15614257D-05 -0.29456289D-05  0.60185349D-05 -0.10132476D-04
  0.12750861D-04 -0.10652538D-04  0.95721480D-05 -0.12984058D-05 -0.81283008D-05
  0.43176356D-05 -0.34941278D-14 -0.50233190D-14 -0.66634359D-14 -0.77971305D-14
 -0.76849959D-14 -0.57898360D-14 -0.30237526D-14 -0.86897801D-15 -0.81114823D-15
 -0.11661440D-14 -0.15468908D-14 -0.18100736D-14 -0.17840420D-14 -0.13440880D-14
 -0.70195245D-15 -0.20172988D-15  0.16120650D-05  0.23175789D-05  0.30742699D-05
  0.35973158D-05  0.35455810D-05  0.26712223D-05  0.13950508D-05  0.40091523D-06
 -0.66579241D-14  0.39953023D-14 -0.14101432D-14  0.84620198D-15 -0.40393312D-05
  0.24239311D-05  0.11339767D-14  0.15257044D-15 -0.47514524D-05 -0.72151425D-16
  0.20603846D-16  0.97227910D-05 -0.50589843D-19  0.20256251D-16 -0.13875400D-04
  0.12765498D-16 -0.52560407D-18  0.11661823D-05  0.57608653D-18  0.86199736D-18
  0.13360297D-06  0.27193692D-05  0.27193692D-05 -0.54387384D-05  0.26976974D-14
 -0.48639180D-15 -0.59998734D-15 -0.18093623D-05 -0.18093623D-05  0.36187247D-05
  0.71578086D-17 -0.81760348D-16  0.72063669D-16  0.94068126D-06  0.94068126D-06
 -0.18813625D-05  0.20852590D-16 -0.25109530D-16 -0.39201833D-17  0.17673543D-05
  0.17673543D-05 -0.35347087D-05 -0.36138391D-17  0.69924513D-17  0.17334804D-17
 -0.13543649D-07 -0.13543649D-07  0.27087298D-07  0.14147931D-18  0.25037008D-17
  0.15520889D-18 -0.64806375D-18  0.88583679D-17 -0.16106873D-05 -0.63400618D-18
  0.88593934D-17  0.24160309D-05  0.25781974D-17 -0.35434497D-16  0.24160309D-05
  0.11559129D-17 -0.44004530D-16 -0.10942388D-16  0.15813634D-05 -0.44205251D-16
 -0.10847031D-16 -0.23720450D-05  0.17621884D-15  0.43674196D-16 -0.23720450D-05
  0.55696535D-17  0.96990020D-08  0.96990020D-08  0.25864000D-07 -0.31574274D-18
 -0.17610698D-16 -0.25831128D-18 -0.28766835D-16  0.23477102D-16  0.38397960D-16
  0.19397989D-07 -0.77592001D-07 -0.77592001D-07 -0.28893377D-16 -0.17599215D-16
  0.17221621D-17  0.27370704D-03  0.51229372D-03  0.88745391D-03  0.14542268D-02
  0.22777959D-02  0.34232633D-02  0.48922101D-02  0.64934474D-02  0.75627198D-02
  0.69487831D-02  0.40667228D-02  0.29920360D-03  0.12869323D-02  0.31591895D-02
  0.40247355D-02  0.14191319D-02 -0.49487781D-02 -0.38464064D-02 -0.64792379D-03
  0.29816449D-05  0.85804371D-05 -0.10162066D-04  0.11599747D-05  0.85501468D-05
 -0.42188058D-05  0.66095661D-10  0.96963051D-10  0.13663274D-09  0.17927928D-09
  0.21324517D-09  0.21888820D-09  0.17807084D-09  0.10149063D-09  0.31860256D-10
  0.37540618D-11 -0.49448208D-10 -0.72541056D-10 -0.10221918D-09 -0.13412438D-09
 -0.15953530D-09 -0.16375703D-09 -0.13322031D-09 -0.75928277D-10 -0.23835643D-10
 -0.28085297D-11 -0.29998862D+02 -0.44008656D+02 -0.62013552D+02 -0.81369555D+02
 -0.96785664D+02 -0.99346868D+02 -0.80821081D+02 -0.46063589D+02 -0.14460426D+02
 -0.17038574D+01 -0.28026986D-13 -0.63993221D-13 -0.69489274D-13  0.86505389D-13
  0.79511323D-13  0.21145354D-13  0.48280584D-13  0.52427159D-13 -0.65265206D-13
 -0.59988435D-13  0.13119494D-01  0.29955367D-01  0.32528082D-01 -0.40493362D-01
 -0.37219425D-01  0.49349340D-14 -0.48011307D-14 -0.21529427D-02  0.10971352D-14
  0.22756183D-15 -0.26873641D-03 -0.39785057D-15 -0.25630482D-16  0.81929097D-04
  0.12497117D-15  0.43949891D-17 -0.26358611D-04 -0.24852158D-16 -0.36070848D-17
  0.33741777D-05  0.10180960D-17 -0.25740912D-18  0.94059254D-08 -0.37893407D-02
 -0.42159683D-02 -0.40582484D-02 -0.31228951D-02 -0.18538833D-02 -0.76609011D-03
 -0.21287206D-03 -0.37893407D-02 -0.42159683D-02 -0.40582484D-02 -0.31228951D-02
 -0.18538833D-02 -0.76609011D-03 -0.21287206D-03  0.75786815D-02  0.84319366D-02
  0.81164968D-02  0.62457901D-02  0.37077667D-02  0.15321802D-02  0.42574413D-03
 -0.10757244D-15 -0.11968361D-15 -0.11520623D-15 -0.88653266D-16 -0.52628350D-16
 -0.21747894D-16 -0.60430477D-17 -0.26235783D-13 -0.29189571D-13 -0.28097585D-13
 -0.21621597D-13 -0.12835499D-13 -0.53040820D-14 -0.14738356D-14  0.18883886D-13
  0.21009952D-13  0.20223967D-13  0.15562706D-13  0.92386842D-14  0.38177508D-14
  0.10608315D-14  0.82515138D-04  0.82515138D-04 -0.16503028D-03  0.40024106D-17
  0.62903510D-15 -0.44696491D-15 -0.99609016D-05 -0.99609016D-05  0.19921803D-04
 -0.11802262D-17 -0.11343369D-15  0.10456572D-15 -0.11883372D-05 -0.11883372D-05
  0.23766745D-05  0.13073555D-17  0.45210862D-17 -0.13391746D-16  0.63688174D-07
  0.63688174D-07 -0.12737635D-06 -0.22484046D-18  0.29170359D-17  0.71698090D-18
 -0.36164822D-17  0.66405603D-17 -0.16029501D-05 -0.36146910D-17  0.66376927D-17
  0.24044252D-05  0.14464138D-16 -0.26559374D-16  0.24044252D-05  0.59407194D-18
  0.10567546D-17  0.56427068D-17 -0.14975361D-06  0.10261704D-17  0.56561953D-17
  0.22463041D-06 -0.41964342D-17 -0.22584316D-16  0.22463041D-06  0.59761016D-18
  0.35440548D-06  0.35440548D-06  0.94508024D-06  0.24462659D-18  0.11885928D-16
  0.24395982D-18 -0.10456828D-17 -0.15850358D-16  0.13955926D-17  0.70880784D-06
 -0.28352407D-05 -0.28352407D-05 -0.10497293D-17  0.11893291D-16 -0.14657592D-17
MO    5     MO 0.0        OCC NO =    2.0000000  ORB. ENERGY =  -56.470322
  0.95293826D-17  0.17834131D-16  0.30891392D-16  0.50525825D-16  0.78816638D-16
  0.11693231D-15  0.16218199D-15  0.20072938D-15  0.20313942D-15  0.14021476D-15
  0.10419571D-16  0.39422394D-16  0.74370332D-16 -0.17452013D-15  0.50029925D-15
 -0.70002308D-15  0.66374966D-15 -0.53424967D-15  0.42604326D-15 -0.21681247D-15
 -0.24617543D-15 -0.56304995D-06 -0.80946652D-06 -0.10737579D-05 -0.12564434D-05
 -0.12383739D-05 -0.93298443D-06 -0.48725286D-06 -0.14002866D-06 -0.16897311D-06
 -0.24292351D-06 -0.32223820D-06 -0.37706272D-06 -0.37163999D-06 -0.27999164D-06
 -0.14622615D-06 -0.42023051D-07 -0.71242589D-15 -0.10242162D-14 -0.13586235D-14
 -0.15897752D-14 -0.15669118D-14 -0.11805032D-14 -0.61651999D-15 -0.17717796D-15