 Molden2AIM, Version 4.0.0 (06/02/2016)           Time: Sun Jun 24 19:26:34 2018
GAUSSIAN             13 MOL ORBITALS    233 PRIMITIVES        2 NUCLEI
  Cl   1    (CENTRE  1)  -0.39513228  2.73230587  0.75452040  CHARGE = 17.0
  O    2    (CENTRE  2)   2.42815634  4.09130619  0.83453140  CHARGE =  8.0
CENTRE ASSIGNMENTS    1  1  1  1  1  1  1  1  1  1  1  1  1  1  1  1  1  1  1  1
CENTRE ASSIGNMENTS    1  1  1  1  1  1  1  1  1  1  1  1  1  1  1  1  1  1  1  1
CENTRE ASSIGNMENTS    1  1  1  1  1  1  1  1  1  1  1  1  1  1  1  1  1  1  1  1
CENTRE ASSIGNMENTS    1  1  1  1  1  1  1  1  1  1  1  1  1  1  1  1  1  1  1  1
CENTRE ASSIGNMENTS    1  1  1  1  1  1  1  1  1  1  1  1  1  1  1  1  1  1  1  1
CENTRE ASSIGNMENTS    1  1  1  1  1  1  1  1  1  1  1  1  1  1  1  1  1  1  1  1
CENTRE ASSIGNMENTS    1  1  1  1  1  1  1  1  1  1  1  2  2  2  2  2  2  2  2  2
CENTRE ASSIGNMENTS    2  2  2  2  2  2  2  2  2  2  2  2  2  2  2  2  2  2  2  2
CENTRE ASSIGNMENTS    2  2  2  2  2  2  2  2  2  2  2  2  2  2  2  2  2  2  2  2
CENTRE ASSIGNMENTS    2  2  2  2  2  2  2  2  2  2  2  2  2  2  2  2  2  2  2  2
CENTRE ASSIGNMENTS    2  2  2  2  2  2  2  2  2  2  2  2  2  2  2  2  2  2  2  2
CENTRE ASSIGNMENTS    2  2  2  2  2  2  2  2  2  2  2  2  2
TYPE ASSIGNMENTS      1  1  1  1  1  1  1  1  1  1  1  1  1  1  1  1  1  1  1  1
TYPE ASSIGNMENTS      1  2  2  2  2  2  2  2  2  3  3  3  3  3  3  3  3  4  4  4
TYPE ASSIGNMENTS      4  4  4  4  4  2  2  3  3  4  4  2  3  4  2  3  4  2  3  4
TYPE ASSIGNMENTS      2  3  4  2  3  4  5  6  7  8  9 10  5  6  7  8  9 10  5  6
TYPE ASSIGNMENTS      7  8  9 10  5  6  7  8  9 10  5  6  7  8  9 10 11 12 13 17
TYPE ASSIGNMENTS     14 15 18 19 16 20 11 12 13 17 14 15 18 19 16 20 21 22 23 24
TYPE ASSIGNMENTS     25 26 27 28 29 30 31 32 33 34 35  1  1  1  1  1  1  1  1  1
TYPE ASSIGNMENTS      1  1  1  1  1  1  1  2  2  2  2  2  3  3  3  3  3  4  4  4
TYPE ASSIGNMENTS      4  4  2  3  4  2  3  4  2  3  4  2  3  4  5  6  7  8  9 10
TYPE ASSIGNMENTS      5  6  7  8  9 10  5  6  7  8  9 10  5  6  7  8  9 10 11 12
TYPE ASSIGNMENTS     13 17 14 15 18 19 16 20 11 12 13 17 14 15 18 19 16 20 21 22
TYPE ASSIGNMENTS     23 24 25 26 27 28 29 30 31 32 33 34 35
EXPONENTS  0.1467459D+07 0.2197562D+06 0.5001077D+05 0.1416482D+05 0.4620747D+04
EXPONENTS  0.1667899D+04 0.6502920D+03 0.2693804D+03 0.1170675D+03 0.5281177D+02
EXPONENTS  0.4614277D+03 0.1421267D+03 0.5443784D+02 0.2416077D+02 0.9708354D+01
EXPONENTS  0.4564070D+01 0.2119474D+01 0.7572237D+00 0.3374722D+00 0.1386078D+00
EXPONENTS  0.5423457D-01 0.2501946D+04 0.5928806D+03 0.1921809D+03 0.7287571D+02
EXPONENTS  0.3043636D+02 0.1349018D+02 0.6147807D+01 0.2845094D+01 0.2501946D+04
EXPONENTS  0.5928806D+03 0.1921809D+03 0.7287571D+02 0.3043636D+02 0.1349018D+02
EXPONENTS  0.6147807D+01 0.2845094D+01 0.2501946D+04 0.5928806D+03 0.1921809D+03
EXPONENTS  0.7287571D+02 0.3043636D+02 0.1349018D+02 0.6147807D+01 0.2845094D+01
EXPONENTS  0.1053940D+03 0.6736974D+01 0.1053940D+03 0.6736974D+01 0.1053940D+03
EXPONENTS  0.6736974D+01 0.1242110D+01 0.1242110D+01 0.1242110D+01 0.5566971D+00
EXPONENTS  0.5566971D+00 0.5566971D+00 0.2338780D+00 0.2338780D+00 0.2338780D+00
EXPONENTS  0.9316449D-01 0.9316449D-01 0.9316449D-01 0.2725615D-01 0.2725615D-01
EXPONENTS  0.2725615D-01 0.5191000D+01 0.5191000D+01 0.5191000D+01 0.5191000D+01
EXPONENTS  0.5191000D+01 0.5191000D+01 0.1276000D+01 0.1276000D+01 0.1276000D+01
EXPONENTS  0.1276000D+01 0.1276000D+01 0.1276000D+01 0.5830000D+00 0.5830000D+00
EXPONENTS  0.5830000D+00 0.5830000D+00 0.5830000D+00 0.5830000D+00 0.2430000D+00
EXPONENTS  0.2430000D+00 0.2430000D+00 0.2430000D+00 0.2430000D+00 0.2430000D+00
EXPONENTS  0.8345654D-01 0.8345654D-01 0.8345654D-01 0.8345654D-01 0.8345654D-01
EXPONENTS  0.8345654D-01 0.4230000D+00 0.4230000D+00 0.4230000D+00 0.4230000D+00
EXPONENTS  0.4230000D+00 0.4230000D+00 0.4230000D+00 0.4230000D+00 0.4230000D+00
EXPONENTS  0.4230000D+00 0.1089000D+01 0.1089000D+01 0.1089000D+01 0.1089000D+01
EXPONENTS  0.1089000D+01 0.1089000D+01 0.1089000D+01 0.1089000D+01 0.1089000D+01
EXPONENTS  0.1089000D+01 0.8270000D+00 0.8270000D+00 0.8270000D+00 0.8270000D+00
EXPONENTS  0.8270000D+00 0.8270000D+00 0.8270000D+00 0.8270000D+00 0.8270000D+00
EXPONENTS  0.8270000D+00 0.8270000D+00 0.8270000D+00 0.8270000D+00 0.8270000D+00
EXPONENTS  0.8270000D+00 0.1165065D+06 0.1750435D+05 0.3993451D+04 0.1133006D+04
EXPONENTS  0.3699957D+03 0.1336207D+03 0.5203564D+02 0.2146194D+02 0.8983505D+02
EXPONENTS  0.2642801D+02 0.9282282D+01 0.4094773D+01 0.1325535D+01 0.5187723D+00
EXPONENTS  0.1977268D+00 0.6963854D-01 0.1911526D+03 0.4523336D+02 0.1435347D+02
EXPONENTS  0.5242237D+01 0.2079242D+01 0.1911526D+03 0.4523336D+02 0.1435347D+02
EXPONENTS  0.5242237D+01 0.2079242D+01 0.1911526D+03 0.4523336D+02 0.1435347D+02
EXPONENTS  0.5242237D+01 0.2079242D+01 0.8428237D+00 0.8428237D+00 0.8428237D+00
EXPONENTS  0.3361769D+00 0.3361769D+00 0.3361769D+00 0.1286400D+00 0.1286400D+00
EXPONENTS  0.1286400D+00 0.4359816D-01 0.4359816D-01 0.4359816D-01 0.3775000D+01
EXPONENTS  0.3775000D+01 0.3775000D+01 0.3775000D+01 0.3775000D+01 0.3775000D+01
EXPONENTS  0.1300000D+01 0.1300000D+01 0.1300000D+01 0.1300000D+01 0.1300000D+01
EXPONENTS  0.1300000D+01 0.4440000D+00 0.4440000D+00 0.4440000D+00 0.4440000D+00
EXPONENTS  0.4440000D+00 0.4440000D+00 0.1254638D+00 0.1254638D+00 0.1254638D+00
EXPONENTS  0.1254638D+00 0.1254638D+00 0.1254638D+00 0.2666000D+01 0.2666000D+01
EXPONENTS  0.2666000D+01 0.2666000D+01 0.2666000D+01 0.2666000D+01 0.2666000D+01
EXPONENTS  0.2666000D+01 0.2666000D+01 0.2666000D+01 0.8590000D+00 0.8590000D+00
EXPONENTS  0.8590000D+00 0.8590000D+00 0.8590000D+00 0.8590000D+00 0.8590000D+00
EXPONENTS  0.8590000D+00 0.8590000D+00 0.8590000D+00 0.1846000D+01 0.1846000D+01
EXPONENTS  0.1846000D+01 0.1846000D+01 0.1846000D+01 0.1846000D+01 0.1846000D+01
EXPONENTS  0.1846000D+01 0.1846000D+01 0.1846000D+01 0.1846000D+01 0.1846000D+01
EXPONENTS  0.1846000D+01 0.1846000D+01 0.1846000D+01
MO    1     MO 0.0        OCC NO =    2.0000000  ORB. ENERGY = -101.492735
  0.34490813D+00  0.64549164D+00  0.11180884D+01  0.18287405D+01  0.28527031D+01
  0.42322684D+01  0.58700430D+01  0.72652343D+01  0.73524635D+01  0.50749573D+01
 -0.54448789D-02 -0.20600672D-01 -0.38863159D-01  0.17392375D+01  0.12217654D+00
 -0.91175250D-02  0.21339929D-02 -0.46397064D-03  0.16316653D-03 -0.12639002D-05
 -0.37777281D-05  0.95939141D-03  0.13792652D-02  0.18295962D-02  0.21408776D-02
  0.21100885D-02  0.15897297D-02  0.83023931D-03  0.23859746D-03  0.46180863D-03
  0.66391734D-03  0.88068679D-03  0.10305239D-02  0.10157034D-02  0.76522564D-03
  0.39964052D-03  0.11485028D-03  0.27189887D-04  0.39089432D-04  0.51852158D-04
  0.60674110D-04  0.59801524D-04  0.45054157D-04  0.23529617D-04  0.67620347D-05
  0.27350373D-02 -0.16412475D-02  0.13165249D-02 -0.79002328D-03  0.77512170D-04
 -0.46513681D-04 -0.95468533D-04 -0.45954401D-04 -0.27056980D-05  0.83729001D-05
  0.40304076D-05  0.23733201D-06  0.47182260D-04  0.22711339D-04  0.13371203D-05
 -0.33435223D-05 -0.16094160D-05 -0.94753813D-07 -0.95058418D-07 -0.45756728D-07
 -0.26939260D-08  0.12452777D-03 -0.37860167D-04 -0.86667606D-04  0.20348716D-03
  0.11980760D-04  0.57742637D-05 -0.38009303D-04  0.11556454D-04  0.26452849D-04
 -0.62108374D-04 -0.36566570D-05 -0.17606235D-05  0.22796849D-04 -0.69312669D-05
 -0.15865582D-04  0.37250595D-04  0.21931357D-05  0.10557768D-05  0.99357664D-05
 -0.30209359D-05 -0.69148305D-05  0.16235225D-04  0.95584601D-06  0.46008962D-06
 -0.30551091D-06  0.92889545D-07  0.21262136D-06 -0.49921051D-06 -0.29391000D-07
 -0.14147027D-07  0.55554144D-05 -0.52128038D-05 -0.44645285D-06 -0.94685377D-06
  0.23204997D-04  0.13661933D-05 -0.15719390D-04 -0.75665858D-05 -0.26834774D-07
  0.17455115D-05 -0.42280257D-05  0.39672704D-05  0.33977356D-06  0.72064555D-06
 -0.17660443D-04 -0.10397632D-05  0.11963431D-04  0.57586323D-05  0.20442502D-07
 -0.13283881D-05  0.18697121D-05 -0.15430871D-05  0.32784534D-05  0.23022004D-04
  0.13554203D-05 -0.14469266D-04 -0.41005519D-06 -0.15152433D-05 -0.72936899D-06
  0.88554853D-05 -0.20073758D-04  0.40303760D-06  0.34182725D-05  0.47946891D-06
 -0.25658215D-04  0.62846406D-06  0.11737917D-05  0.20258749D-05  0.32907765D-05
  0.50224350D-05  0.70539170D-05  0.85747879D-05  0.81350323D-05 -0.85633716D-05
 -0.33372817D-04  0.44328007D-04 -0.50033073D-04  0.51523047D-04 -0.26810101D-04
 -0.44075244D-04  0.87842756D-05 -0.14550316D-05 -0.19160499D-05 -0.21316501D-05
 -0.19795956D-05 -0.13800037D-05 -0.70038368D-06 -0.92229619D-06 -0.10260760D-05
 -0.95288410D-06 -0.66426878D-06 -0.41234346D-07 -0.54299209D-07 -0.60409133D-07
 -0.56100040D-07 -0.39108120D-07 -0.13997871D-04 -0.67379241D-05 -0.39669326D-06
  0.65570486D-04  0.31562591D-04  0.18582430D-05 -0.14272659D-08 -0.68532144D-09
 -0.39437224D-10 -0.29146788D-06 -0.14029926D-06 -0.82601793D-08  0.47386802D-05
 -0.14407864D-05 -0.32978937D-05  0.77430768D-05  0.45586023D-06  0.21943552D-06
  0.15820551D-06 -0.48102161D-07 -0.11010334D-06  0.25850664D-06  0.15219294D-07
  0.73223060D-08 -0.21767491D-04  0.66183262D-05  0.15149165D-04 -0.35568496D-04
 -0.20940888D-05 -0.10079961D-05 -0.28903578D-06  0.87880025D-07  0.20115576D-06
 -0.47229121D-06 -0.27806581D-07 -0.13384805D-07 -0.59090020D-05  0.55445505D-05
  0.47484695D-06  0.10072045D-05 -0.24681762D-04 -0.14530898D-05  0.16719801D-04
  0.80481108D-05  0.28548961D-07 -0.18565304D-05  0.68446644D-05 -0.64225343D-05
 -0.55005624D-06 -0.11666131D-05  0.28590155D-04  0.16832297D-05 -0.19367380D-04
 -0.93225521D-05 -0.33060960D-07  0.21505761D-05  0.82012958D-06 -0.67688464D-06
  0.14380900D-05  0.10098578D-04  0.59458786D-06 -0.63469189D-05 -0.17987973D-06
 -0.66469083D-06 -0.31994591D-06  0.38845353D-05 -0.88053128D-05  0.17677256D-06
  0.14994769D-05  0.21030891D-06 -0.11254977D-04
MO    2     MO 0.0        OCC NO =    2.0000000  ORB. ENERGY =  -18.928643
 -0.38714879D-06 -0.72454454D-06 -0.12550199D-05 -0.20527051D-05 -0.32020717D-05
 -0.47505913D-05 -0.65889431D-05 -0.81550024D-05 -0.82529144D-05 -0.56964838D-05
  0.89526821D-05  0.33872427D-04  0.63900321D-04 -0.13710364D-03  0.26598570D-03
 -0.39564220D-03  0.40018130D-03 -0.46665240D-03  0.26921744D-03  0.55857110D-04
  0.46797036D-05  0.13735961D-04  0.19747449D-04  0.26195004D-04  0.30651734D-04
  0.30210916D-04  0.22760747D-04  0.11886843D-04  0.34160879D-05  0.66117489D-05
  0.95053545D-05  0.12608859D-04  0.14754088D-04  0.14541902D-04  0.10955793D-04
  0.57216834D-05  0.16443200D-05  0.38919866D-06  0.55952990D-06  0.74221678D-06
  0.86849505D-06  0.85600477D-06  0.64490954D-06  0.33680521D-06  0.96792416D-07
 -0.28245738D-03  0.16949767D-03 -0.13596168D-03  0.81588200D-04 -0.80046149D-05
  0.48034277D-05 -0.30505913D-03 -0.14684108D-03 -0.86450991D-05  0.91777260D-04
  0.44177096D-04  0.26007541D-05  0.18038761D-03  0.86830400D-04  0.51122665D-05
 -0.97557895D-05 -0.46961433D-05 -0.27657447D-06  0.56080525D-06  0.26994889D-06
  0.15896061D-07  0.44007632D-03 -0.13380385D-03 -0.30627247D-03  0.71909166D-03
  0.42335723D-04  0.20378619D-04 -0.32720719D-03  0.99486250D-04  0.22772094D-03
 -0.53466219D-03 -0.31477903D-04 -0.15152058D-04  0.19452607D-03 -0.59144952D-04
 -0.13538112D-03  0.31785917D-03  0.18713859D-04  0.90079870D-05  0.39493826D-04
 -0.12007930D-04 -0.27485895D-04  0.64533842D-04  0.37995211D-05  0.18289319D-05
 -0.16238699D-05  0.49372189D-06  0.11301480D-05 -0.26534930D-05 -0.15624511D-06
 -0.75222404D-07  0.38032990D-04 -0.35687491D-04 -0.30564999D-05 -0.64821932D-05
  0.15886425D-03  0.93532099D-05 -0.10761678D-03 -0.51801778D-04 -0.18371027D-06
  0.11950187D-04  0.88893650D-05 -0.83410793D-05 -0.71435768D-06 -0.15151474D-05
  0.37130603D-04  0.21859529D-05 -0.25152948D-04 -0.12107365D-04 -0.42879815D-07
  0.27927649D-05  0.21192548D-04 -0.17490206D-04  0.37159953D-04  0.26094538D-03
  0.15362921D-04 -0.16400358D-03 -0.46477978D-05 -0.17174480D-04 -0.82670547D-05
  0.10037283D-03 -0.22752812D-03  0.45684031D-05  0.38744557D-04  0.54346777D-05
 -0.29082541D-03  0.18229165D+00  0.34046883D+00  0.58762321D+00  0.95451928D+00
  0.14568024D+01  0.20460520D+01  0.24871943D+01  0.23596392D+01 -0.77320367D-02
 -0.30132973D-01  0.13664886D+01  0.34999225D+00  0.11186517D-01 -0.14528125D-02
  0.15315314D-03 -0.32586794D-04 -0.32083449D-02 -0.42248904D-02 -0.47002888D-02
 -0.43650087D-02 -0.30429084D-02 -0.15443712D-02 -0.20336962D-02 -0.22625344D-02
 -0.21011437D-02 -0.14647365D-02 -0.90938635D-04 -0.11975202D-03 -0.13322690D-03
 -0.12372359D-03 -0.86249435D-04  0.10139582D-02  0.48808244D-03  0.28742339D-04
  0.73052616D-04  0.35161472D-04  0.20683115D-05  0.16521161D-04  0.79530656D-05
  0.46857990D-06  0.95148082D-06  0.45798543D-06  0.26951559D-07  0.24406782D-02
 -0.74203187D-03 -0.16986463D-02  0.39882165D-02  0.23487176D-03  0.11292854D-03
 -0.33815855D-03  0.10281152D-03  0.23534703D-03 -0.55256078D-03 -0.32538772D-04
 -0.15647077D-04 -0.88703171D-04  0.26970312D-04  0.61732859D-04 -0.14494216D-03
 -0.85325014D-05 -0.41087070D-05 -0.28564349D-06  0.86818641D-07  0.19882484D-06
 -0.46683276D-06 -0.27546271D-07 -0.13192500D-07 -0.14628804D-03  0.13728607D-03
  0.11764542D-04  0.24910053D-04 -0.61105179D-03 -0.36051828D-04  0.41395405D-03
  0.19919359D-03  0.75820314D-06 -0.45742405D-04  0.63578885D-04 -0.59658595D-04
 -0.51099327D-05 -0.10835524D-04  0.26556979D-03  0.15637375D-04 -0.17990113D-03
 -0.86594006D-04 -0.30757652D-06  0.19970114D-04 -0.32910806D-04  0.27163896D-04
 -0.57716182D-04 -0.40528844D-03 -0.23837891D-04  0.25471281D-03  0.72225898D-05
  0.26678479D-04  0.12861641D-04 -0.15590782D-03  0.35337265D-03 -0.70755598D-05
 -0.60252693D-04 -0.85217642D-05  0.45172690D-03
MO    3     MO 0.0        OCC NO =    2.0000000  ORB. ENERGY =   -9.309094
  0.97674371D-01  0.18279647D+00  0.31663093D+00  0.51788016D+00  0.80785565D+00
  0.11985341D+01  0.16623347D+01  0.20574383D+01  0.20821406D+01  0.14371748D+01
  0.14416526D+00  0.54544855D+00  0.10289885D+01  0.11159230D+01 -0.72229153D+00
 -0.12406577D+01 -0.48095822D+00 -0.28527535D-01  0.43815472D-02 -0.37669079D-03
 -0.90648530D-04 -0.27329233D-01 -0.39289763D-01 -0.52117897D-01 -0.60985060D-01
 -0.60108003D-01 -0.45285057D-01 -0.23650205D-01 -0.67966897D-02 -0.13154978D-01
 -0.18912202D-01 -0.25087049D-01 -0.29355275D-01 -0.28933101D-01 -0.21798048D-01
 -0.11384071D-01 -0.32715995D-02 -0.77448974D-03 -0.11134421D-02 -0.14769817D-02
 -0.17282704D-02 -0.17034152D-02 -0.12833442D-02 -0.67022888D-03 -0.19261303D-03
  0.62081313D-02 -0.37253897D-02  0.29882740D-02 -0.17932103D-02  0.17590236D-03
 -0.10555589D-03 -0.21018517D-02 -0.10117277D-02 -0.59560758D-04  0.79841017D-04
  0.38430369D-04  0.22617618D-05  0.78395668D-03  0.37736066D-03  0.22217191D-04
 -0.96595889D-04 -0.46496812D-04 -0.27374884D-05 -0.18329873D-05 -0.88231589D-06
 -0.51946574D-07 -0.11076923D-01  0.33678827D-02  0.77090406D-02 -0.18099859D-01
 -0.10656736D-02 -0.51295629D-03 -0.13876714D-02  0.42191841D-03  0.96575298D-03
 -0.22674671D-02 -0.13347479D-03 -0.64286578D-04  0.44516807D-03 -0.13535194D-03
 -0.30981612D-03  0.72741031D-03  0.42821344D-04  0.20621623D-04  0.15295480D-03
 -0.46505313D-04 -0.10644949D-03  0.24993144D-03  0.14715212D-04  0.70822170D-05
 -0.68560287D-05  0.20845485D-05  0.47714802D-05 -0.11202901D-04 -0.65959099D-06
 -0.31744571D-06  0.84019014D-04 -0.78837282D-04 -0.67520740D-05 -0.14320276D-04
  0.35094765D-03  0.20661669D-04 -0.23773677D-03 -0.11443581D-03 -0.40544659D-06
  0.26399467D-04 -0.47646977D-04  0.44705799D-04  0.38286840D-05  0.81262119D-05
 -0.19901735D-03 -0.11712006D-04  0.13481472D-03  0.64899955D-04  0.22595433D-06
 -0.14978321D-04  0.23815296D-04 -0.19655251D-04  0.41759189D-04  0.29324037D-03
  0.17265452D-04 -0.18430129D-03 -0.52232788D-05 -0.19300942D-04 -0.92894066D-05
  0.11279743D-03 -0.25568921D-03  0.51340727D-05  0.43538056D-04  0.61064698D-05
 -0.32681726D-03  0.83313351D-05  0.15560559D-04  0.26856337D-04  0.43624708D-04
  0.66580718D-04  0.93511387D-04  0.11367306D-03  0.10784337D-03 -0.63064871D-04
 -0.24577380D-03  0.50598004D-03 -0.59997264D-03  0.74074472D-03 -0.42682301D-03
 -0.67802007D-03  0.23978122D-03  0.95256820D-04  0.12543839D-03  0.13955313D-03
  0.12959855D-03  0.90344955D-04  0.45852292D-04  0.60380326D-04  0.67174516D-04
  0.62382837D-04  0.43487945D-04  0.26995988D-05  0.35549510D-05  0.39549657D-05
  0.36728508D-05  0.25603955D-05 -0.24699861D-03 -0.11889375D-03 -0.69999232D-05
  0.11224624D-02  0.54030137D-03  0.31810200D-04 -0.44527785D-04 -0.21433620D-04
 -0.12619340D-05 -0.88028703D-05 -0.42372883D-05 -0.24946881D-06 -0.86749238D-04
  0.26375406D-04  0.60373832D-04 -0.14175036D-03 -0.83461327D-05 -0.40166144D-05
  0.38329974D-04 -0.11654033D-04 -0.26675941D-04  0.62631933D-04  0.36876211D-05
  0.17747441D-05 -0.37069627D-03  0.11270881D-03  0.25798746D-03 -0.60572490D-03
 -0.35662025D-04 -0.17166005D-04 -0.30191738D-05  0.91796998D-06  0.21012038D-05
 -0.49333787D-05 -0.29043138D-06 -0.13981789D-06 -0.14294239D-03  0.13412646D-03
  0.11487119D-04  0.24363673D-04 -0.59706981D-03 -0.35151867D-04  0.40446350D-03
  0.19469042D-03  0.69051063D-06 -0.44913690D-04  0.11099095D-03 -0.10414592D-03
 -0.89196386D-05 -0.18917101D-04  0.46360968D-03  0.27294869D-04 -0.31405576D-03
 -0.15117192D-03 -0.53595326D-06  0.34873860D-04  0.38154138D-05 -0.31489893D-05
  0.66902293D-05  0.46980660D-04  0.27662637D-05 -0.29527356D-04 -0.83670716D-06
 -0.30919706D-05 -0.14881072D-05  0.18071415D-04 -0.40963897D-04  0.82252123D-06
  0.69744431D-05  0.97712062D-06 -0.52359912D-04
MO    4     MO 0.0        OCC NO =    2.0000000  ORB. ENERGY =   -7.044717
 -0.55790009D-03 -0.10441037D-02 -0.18085443D-02 -0.29580471D-02 -0.46143398D-02
 -0.68458314D-02 -0.94949850D-02 -0.11751752D-01 -0.11892848D-01 -0.82089081D-02
 -0.84043400D-03 -0.31797778D-02 -0.59986495D-02 -0.66953932D-02  0.46347504D-02
  0.78524386D-02  0.20397748D-02  0.59441348D-03 -0.54091427D-03  0.60239479D-04
  0.30035707D-04 -0.55338625D+01 -0.79557355D+01 -0.10553288D+02 -0.12348789D+02
 -0.12171195D+02 -0.91697150D+01 -0.47889007D+01 -0.13762533D+01 -0.26637598D+01
 -0.38295437D+01 -0.50798922D+01 -0.59441680D+01 -0.58586818D+01 -0.44139004D+01
 -0.23051677D+01 -0.66246823D+00 -0.15684236D+00 -0.22548380D+00 -0.29910441D+00
 -0.34999303D+00 -0.34495959D+00 -0.25989076D+00 -0.13572844D+00 -0.39006176D-01
 -0.16277632D+00  0.97679189D-01 -0.78353658D-01  0.47018643D-01 -0.46136203D-02
  0.27685518D-02 -0.12328904D+00 -0.59345942D-01 -0.34942810D-02 -0.11595290D-02
 -0.55814928D-03 -0.32864315D-04 -0.16285688D-03 -0.78391053D-04 -0.46150107D-05
  0.15195273D-04  0.73142243D-05  0.43061509D-06  0.40107827D-06  0.19306323D-06
  0.11369186D-07 -0.13533461D-01  0.41147444D-02  0.94187170D-02 -0.22114131D-01
 -0.13021320D-02 -0.62683026D-03 -0.38607687D-03  0.11738643D-03  0.26869044D-03
 -0.63084083D-03 -0.37127842D-04 -0.17901483D-04 -0.30652663D-03  0.93198229D-04
  0.21332840D-03 -0.50087393D-03 -0.29491683D-04 -0.14189103D-04 -0.13655610D-04
  0.41519608D-05  0.95036489D-05 -0.22313061D-04 -0.13133217D-05 -0.63287952D-06
 -0.21762226D-06  0.66167924D-07  0.15145434D-06 -0.35561439D-06 -0.20944048D-07
 -0.10042686D-07 -0.25604699D-05  0.24026177D-05  0.20564355D-06  0.43644889D-06
 -0.10694990D-04 -0.62988267D-06  0.72449608D-05  0.34871369D-05  0.12952031D-07
 -0.80322378D-06 -0.44666332D-03  0.41911541D-03  0.35896690D-04  0.76129997D-04
 -0.18657155D-02 -0.10983953D-03  0.12638600D-02  0.60836926D-03  0.21494660D-05
 -0.14035984D-03 -0.16053199D-04  0.13248439D-04 -0.28148454D-04 -0.19766602D-03
 -0.11636194D-04  0.12423185D-03  0.35205792D-05  0.13009274D-04  0.62634769D-05
 -0.76031084D-04  0.17235027D-03 -0.34595529D-05 -0.29352168D-04 -0.41192401D-05
  0.22030251D-03  0.76896220D-05  0.14362022D-04  0.24787753D-04  0.40264557D-04
  0.61452402D-04  0.86308762D-04  0.10491750D-03  0.99536835D-04  0.64661941D-04
  0.25199784D-03 -0.27977632D-03  0.56167154D-03 -0.45029417D-03  0.96079333D-05
  0.25624995D-03 -0.81853993D-04  0.14096071D-03  0.18562330D-03  0.20651024D-03
  0.19177949D-03  0.13369215D-03  0.67851834D-04  0.89350294D-04  0.99404280D-04
  0.92313593D-04  0.64353092D-04  0.39946467D-05  0.52603273D-05  0.58522365D-05
  0.54347859D-05  0.37886649D-05  0.48744257D-03  0.23463222D-03  0.13813905D-04
 -0.46217337D-03 -0.22246894D-03 -0.13097922D-04  0.40824243D-04  0.19650861D-04
  0.11568929D-05  0.34563606D-05  0.16637367D-05  0.97949328D-07 -0.51894366D-04
  0.15778517D-04  0.36115849D-04 -0.84796646D-04 -0.49920864D-05 -0.24036816D-05
 -0.32405445D-03  0.98527576D-04  0.22552687D-03 -0.52951087D-03 -0.31174742D-04
 -0.15005825D-04  0.21812539D-03 -0.66320193D-04 -0.15180520D-03  0.35642123D-03
  0.20984387D-04  0.10100879D-04 -0.50162305D-05  0.15251718D-05  0.34910587D-05
 -0.81965820D-05 -0.48254198D-06 -0.23229369D-06  0.67612168D-03 -0.63442384D-03
 -0.54334955D-04 -0.11523825D-03  0.28241625D-02  0.16627185D-03 -0.19131268D-02
 -0.92089095D-03 -0.32669852D-05  0.21243554D-03 -0.17720383D-03  0.16627541D-03
  0.14240705D-04  0.30202407D-04 -0.74018131D-03 -0.43578210D-04  0.50140910D-03
  0.24135510D-03  0.85609413D-06 -0.55677250D-04  0.10648307D-03 -0.87880833D-04
  0.18671259D-03  0.13111360D-02  0.77192641D-04 -0.82404560D-03 -0.23353198D-04
 -0.86294750D-04 -0.41538076D-04  0.50433106D-03 -0.11432295D-02  0.22953936D-04
  0.19467382D-03  0.27306327D-04 -0.14612711D-02
MO    5     MO 0.0        OCC NO =    2.0000000  ORB. ENERGY =   -7.035632
  0.15779267D-08  0.29530719D-08  0.51151638D-08  0.83663395D-08  0.13050885D-07
  0.19362284D-07  0.26854971D-07  0.33237858D-07  0.33636924D-07  0.23217518D-07
  0.18926848D-07  0.71609632D-07  0.13509154D-06 -0.14947380D-06  0.17823657D-06
 -0.18918017D-06  0.54313697D-07 -0.22930582D-07  0.97089286D-08  0.16384860D-08
 -0.25997502D-09  0.21280382D+01  0.30593656D+01  0.40582505D+01  0.47487076D+01
  0.46804139D+01  0.35261995D+01  0.18415643D+01  0.52923604D+00 -0.41871845D+01
 -0.60196892D+01 -0.79851216D+01 -0.93436834D+01 -0.92093070D+01 -0.69382441D+01
 -0.36235109D+01 -0.10413389D+01 -0.39697060D+01 -0.57070321D+01 -0.75703818D+01
 -0.88583811D+01 -0.87309842D+01 -0.65778781D+01 -0.34353091D+01 -0.98725273D+00
  0.65322846D-01 -0.39199083D-01 -0.12853158D+00  0.77129523D-01 -0.12185564D+00
  0.73123411D-01  0.46638427D-01 -0.91766959D-01 -0.87000675D-01  0.42970063D-03
 -0.84550018D-03 -0.80158504D-03 -0.30922352D-04  0.60857122D-04  0.57694140D-04
  0.48296939D-05 -0.95035191D-05 -0.90098591D-05 -0.34585089D-06  0.68050056D-06
  0.64515771D-06  0.11267412D-01 -0.10671677D-01 -0.59573512D-03 -0.16746643D-01
 -0.20699251D-01 -0.10745896D-01  0.63890257D-03 -0.60513586D-03 -0.33766708D-04
 -0.94960543D-03 -0.11737533D-02 -0.60930439D-03 -0.55314874D-04  0.52393666D-04
  0.29212079D-05  0.82222733D-04  0.10162696D-03  0.52752932D-04 -0.48653634D-05
  0.46085959D-05  0.25676752D-06  0.72341336D-05  0.89396939D-05  0.46413811D-05
 -0.35362843D-06  0.33493206D-06  0.18696375D-07  0.52555650D-06  0.64963969D-06
  0.33722311D-06 -0.27598994D-04 -0.10671231D-05 -0.16788233D-04  0.69926416D-04
  0.19045701D-04  0.49409844D-04  0.12870567D-04 -0.15844332D-04  0.95485662D-06
  0.68865618D-04  0.37522963D-03  0.14501023D-04  0.22824455D-03 -0.95068837D-03
 -0.25890660D-03 -0.67175384D-03 -0.17500052D-03  0.21540353D-03 -0.12979810D-04
 -0.93625896D-03 -0.74377066D-05 -0.44277564D-05 -0.43981709D-06 -0.41212074D-05
  0.12769075D-04  0.74262084D-05 -0.40510758D-05 -0.15227544D-04 -0.79071995D-05
  0.34276938D-04  0.10349302D-04 -0.77103993D-05  0.35874826D-04  0.73754061D-05
 -0.99150031D-05 -0.15698337D-10 -0.29320018D-10 -0.50604113D-10 -0.82199956D-10
 -0.12545487D-09 -0.17619904D-09 -0.21418871D-09 -0.20320411D-09 -0.35786188D-09
 -0.13946445D-08  0.20463598D-08 -0.34714372D-08  0.37463339D-08 -0.96032104D-09
 -0.51882528D-08  0.44298914D-09  0.12681690D-04  0.16699810D-04  0.18578927D-04
  0.17253658D-04  0.12027766D-04 -0.24954152D-04 -0.32860730D-04 -0.36558327D-04
 -0.33950555D-04 -0.23667405D-04 -0.23657834D-04 -0.31153682D-04 -0.34659196D-04
 -0.32186893D-04 -0.22437931D-04  0.66346523D-05 -0.13061287D-04 -0.12381711D-04
  0.15220549D-04 -0.29932975D-04 -0.28380982D-04  0.15649475D-05 -0.30785365D-05
 -0.29187644D-05  0.95967639D-07 -0.18888111D-06 -0.17905993D-06  0.27956544D-04
 -0.26478556D-04 -0.14779882D-05 -0.41551730D-04 -0.51358959D-04 -0.26662504D-04
 -0.34400276D-04  0.32582499D-04  0.18177765D-05  0.51133072D-04  0.63199454D-04
  0.32809062D-04 -0.21438404D-04  0.20303611D-04  0.11347936D-05  0.31856777D-04
  0.39380316D-04  0.20443551D-04 -0.10990537D-05  0.10409196D-05  0.58134042D-07
  0.16333799D-05  0.20189906D-05  0.10481374D-05  0.81434276D-04  0.31494393D-05
  0.49536277D-04 -0.20632751D-03 -0.56200909D-04 -0.14579049D-03 -0.37975316D-04
  0.46752591D-04 -0.28183451D-05 -0.20320103D-03  0.16268299D-04  0.62786000D-06
  0.98949769D-05 -0.41215325D-04 -0.11220757D-04 -0.29122024D-04 -0.75895727D-05
  0.93371766D-05 -0.56290659D-06 -0.40589715D-04  0.11983223D-05  0.71367310D-06
  0.70401519D-07  0.66121500D-06 -0.20580783D-05 -0.11948836D-05  0.65285484D-06
  0.24543007D-05  0.12744977D-05 -0.55247817D-05 -0.16651522D-05  0.12427431D-05
 -0.57820576D-05 -0.11886671D-05  0.16010059D-05
MO    6     MO 0.0        OCC NO =    2.0000000  ORB. ENERGY =   -7.035632
 -0.82462457D-10 -0.15432755D-09 -0.26731848D-09 -0.43722493D-09 -0.68203932D-09
 -0.10118731D-08 -0.14034409D-08 -0.17370106D-08 -0.17578658D-08 -0.12133476D-08
  0.17848471D-08  0.67529600D-08  0.12739456D-07 -0.19710732D-07  0.19913390D-07
 -0.15170401D-07  0.70003069D-08 -0.26352646D-08  0.69760239D-09 -0.11250201D-09
 -0.59427256D-10  0.16142996D+01  0.23207915D+01  0.30785314D+01  0.36023024D+01
  0.35504958D+01  0.26749251D+01  0.13969846D+01  0.40147097D+00 -0.36300483D+01
 -0.52187245D+01 -0.69226415D+01 -0.81004365D+01 -0.79839399D+01 -0.60150588D+01
 -0.31413757D+01 -0.90278098D+00  0.46942955D+01  0.67487353D+01  0.89522018D+01
  0.10475299D+02  0.10324649D+02  0.77785366D+01  0.40623552D+01  0.11674557D+01
  0.49552959D-01 -0.29735853D-01 -0.11142894D+00  0.66866535D-01  0.14409733D+00
 -0.86470255D-01  0.35379232D-01 -0.79556675D-01  0.10288087D+00  0.32596953D-03
 -0.73300599D-03  0.94790695D-03 -0.23461860D-04  0.52758838D-04 -0.68226672D-04
  0.36638672D-05 -0.82391029D-05  0.10654600D-04 -0.26235754D-06  0.58995495D-06
 -0.76291824D-06  0.85473544D-02 -0.92516618D-02  0.70430736D-03 -0.15106014D-01
  0.25097338D-01  0.11419499D-01  0.48465969D-03 -0.52459664D-03  0.39936945D-04
 -0.85654471D-03  0.14230967D-02  0.64750020D-03 -0.41961376D-04  0.45417981D-04
 -0.34566050D-05  0.74157349D-04 -0.12320873D-03 -0.56057745D-04 -0.36918027D-05
  0.39961767D-05 -0.30437406D-06  0.65247375D-05 -0.10840296D-04 -0.49326691D-05
 -0.26824446D-06  0.29033780D-06 -0.22093341D-07  0.47404486D-06 -0.78761408D-06
 -0.35835319D-06 -0.20936782D-04 -0.92462049D-06  0.19852333D-04  0.60562639D-04
  0.20330200D-04 -0.62457770D-04  0.22477060D-05 -0.17556339D-04  0.29007706D-05
 -0.75003214D-04  0.28464572D-03  0.12570914D-04 -0.26990279D-03 -0.82338132D-03
 -0.27639909D-03  0.84914644D-03 -0.30555829D-04  0.23868635D-03 -0.39438076D-04
  0.10197059D-02 -0.56427070D-05 -0.38383108D-05  0.51980413D-06 -0.15411593D-05
 -0.17245814D-04  0.61957824D-05  0.50918782D-05  0.18466186D-04  0.84001883D-05
  0.30002466D-04  0.38537761D-05 -0.69726009D-05 -0.40476200D-04 -0.36611164D-05
 -0.13963869D-04  0.23226598D-11  0.43380663D-11  0.74871714D-11  0.12161959D-10
  0.18561774D-10  0.26069668D-10  0.31690460D-10  0.30065223D-10  0.37902513D-10
  0.14771210D-09 -0.19536668D-09  0.34191578D-09 -0.31325491D-09  0.33067820D-11
  0.23356277D-09  0.58325138D-10  0.96206561D-05  0.12668905D-04  0.14094452D-04
  0.13089069D-04  0.91245723D-05 -0.21633519D-04 -0.28487974D-04 -0.31693534D-04
 -0.29432777D-04 -0.20517999D-04  0.27976052D-04  0.36840102D-04  0.40985470D-04
  0.38061902D-04  0.26533482D-04  0.50353680D-05 -0.11322267D-04  0.14641857D-04
  0.11541020D-04 -0.25952912D-04  0.33561528D-04  0.11870067D-05 -0.26690804D-05
  0.34516259D-05  0.72806938D-07 -0.16371884D-06  0.21171570D-06  0.21207725D-04
 -0.22955481D-04  0.17477558D-05 -0.37481179D-04  0.62271885D-04  0.28334138D-04
 -0.26097130D-04  0.28247663D-04 -0.21505326D-05  0.46121646D-04 -0.76628074D-04
 -0.34866182D-04 -0.16261060D-04  0.17601284D-04 -0.13402237D-05  0.28739199D-04
 -0.47747561D-04 -0.21725347D-04 -0.83373737D-06  0.90243754D-06 -0.68700166D-07
  0.14734381D-05 -0.24480519D-05 -0.11138824D-05  0.61778946D-04  0.27284644D-05
 -0.58579176D-04 -0.17870455D-03 -0.59987333D-04  0.18429597D-03 -0.66322927D-05
  0.51801940D-04 -0.85584391D-05  0.22131511D-03  0.12339776D-04  0.54506676D-06
 -0.11700769D-04 -0.35695245D-04 -0.11982995D-04  0.36811835D-04 -0.13240830D-05
  0.10347794D-04 -0.17095298D-05  0.44206271D-04  0.90987877D-06  0.61894850D-06
 -0.83661580D-07  0.24940060D-06  0.27810045D-05 -0.99923429D-06 -0.82091312D-06
 -0.29777587D-05 -0.13546831D-05 -0.48374666D-05 -0.62180606D-06  0.11237755D-05
  0.65267886D-05  0.59026252D-06  0.22495011D-05
MO    7     MO 0.0        OCC NO =    2.0000000  ORB. ENERGY =   -0.744245
 -0.17391283D-01 -0.32547587D-01 -0.56377307D-01 -0.92210475D-01 -0.14384168D+00
 -0.21340342D+00 -0.29598484D+00 -0.36633448D+00 -0.37073283D+00 -0.25589428D+00
 -0.28540920D-01 -0.10798443D+00 -0.20371258D+00 -0.22602541D+00  0.17357837D+00
  0.34270581D+00  0.22610263D+00 -0.99960609D-01 -0.11469553D+00 -0.15398885D-01
  0.29817211D-04  0.33663144D+00  0.48395686D+00  0.64196909D+00  0.75119155D+00
  0.74038827D+00  0.55780468D+00  0.29131453D+00  0.83719124D-01  0.16203879D+00
  0.23295442D+00  0.30901419D+00  0.36158883D+00  0.35638863D+00  0.26850134D+00
  0.14022533D+00  0.40298510D-01  0.95400102D-02  0.13715158D-01  0.18193166D-01
  0.21288490D-01  0.20982329D-01  0.15807978D-01  0.82557457D-02  0.23725689D-02
 -0.23373058D-01  0.14025758D-01 -0.11250615D-01  0.67512949D-02 -0.66229622D-03