 Molden2AIM, Version 4.0.0 (06/02/2016)           Time: Wed Jun 27 19:43:14 2018
GAUSSIAN              9 MOL ORBITALS    150 PRIMITIVES        2 NUCLEI
  F    1    (CENTRE  1)   0.00000000  0.00000000  0.03432121  CHARGE =  9.0
  F    2    (CENTRE  2)   0.00000000  0.00000000  2.63378311  CHARGE =  9.0
CENTRE ASSIGNMENTS    1  1  1  1  1  1  1  1  1  1  1  1  1  1  1  1  1  1  1  1
CENTRE ASSIGNMENTS    1  1  1  1  1  1  1  1  1  1  1  1  1  1  1  1  1  1  1  1
CENTRE ASSIGNMENTS    1  1  1  1  1  1  1  1  1  1  1  1  1  1  1  1  1  1  1  1
CENTRE ASSIGNMENTS    1  1  1  1  1  1  1  1  1  1  1  1  1  1  1  2  2  2  2  2
CENTRE ASSIGNMENTS    2  2  2  2  2  2  2  2  2  2  2  2  2  2  2  2  2  2  2  2
CENTRE ASSIGNMENTS    2  2  2  2  2  2  2  2  2  2  2  2  2  2  2  2  2  2  2  2
CENTRE ASSIGNMENTS    2  2  2  2  2  2  2  2  2  2  2  2  2  2  2  2  2  2  2  2
CENTRE ASSIGNMENTS    2  2  2  2  2  2  2  2  2  2
TYPE ASSIGNMENTS      1  1  1  1  1  1  1  1  1  1  1  1  1  1  1  1  1  1  1  2
TYPE ASSIGNMENTS      2  2  3  3  3  4  4  4  2  3  4  2  3  4  2  3  4  5  6  7
TYPE ASSIGNMENTS      8  9 10  5  6  7  8  9 10  5  6  7  8  9 10 11 12 13 17 14
TYPE ASSIGNMENTS     15 18 19 16 20 11 12 13 17 14 15 18 19 16 20  1  1  1  1  1
TYPE ASSIGNMENTS      1  1  1  1  1  1  1  1  1  1  1  1  1  1  2  2  2  3  3  3
TYPE ASSIGNMENTS      4  4  4  2  3  4  2  3  4  2  3  4  5  6  7  8  9 10  5  6
TYPE ASSIGNMENTS      7  8  9 10  5  6  7  8  9 10 11 12 13 17 14 15 18 19 16 20
TYPE ASSIGNMENTS     11 12 13 17 14 15 18 19 16 20
EXPONENTS  0.1950000D+05 0.2923000D+04 0.6645000D+03 0.1875000D+03 0.6062000D+02
EXPONENTS  0.2142000D+02 0.7950000D+01 0.8815000D+00 0.1950000D+05 0.2923000D+04
EXPONENTS  0.6645000D+03 0.1875000D+03 0.6062000D+02 0.2142000D+02 0.7950000D+01
EXPONENTS  0.8815000D+00 0.2257000D+01 0.3041000D+00 0.9158000D-01 0.4388000D+02
EXPONENTS  0.9926000D+01 0.2930000D+01 0.4388000D+02 0.9926000D+01 0.2930000D+01
EXPONENTS  0.4388000D+02 0.9926000D+01 0.2930000D+01 0.9132000D+00 0.9132000D+00
EXPONENTS  0.9132000D+00 0.2672000D+00 0.2672000D+00 0.2672000D+00 0.7361000D-01
EXPONENTS  0.7361000D-01 0.7361000D-01 0.3107000D+01 0.3107000D+01 0.3107000D+01
EXPONENTS  0.3107000D+01 0.3107000D+01 0.3107000D+01 0.8550000D+00 0.8550000D+00
EXPONENTS  0.8550000D+00 0.8550000D+00 0.8550000D+00 0.8550000D+00 0.2920000D+00
EXPONENTS  0.2920000D+00 0.2920000D+00 0.2920000D+00 0.2920000D+00 0.2920000D+00
EXPONENTS  0.1917000D+01 0.1917000D+01 0.1917000D+01 0.1917000D+01 0.1917000D+01
EXPONENTS  0.1917000D+01 0.1917000D+01 0.1917000D+01 0.1917000D+01 0.1917000D+01
EXPONENTS  0.7240000D+00 0.7240000D+00 0.7240000D+00 0.7240000D+00 0.7240000D+00
EXPONENTS  0.7240000D+00 0.7240000D+00 0.7240000D+00 0.7240000D+00 0.7240000D+00
EXPONENTS  0.1950000D+05 0.2923000D+04 0.6645000D+03 0.1875000D+03 0.6062000D+02
EXPONENTS  0.2142000D+02 0.7950000D+01 0.8815000D+00 0.1950000D+05 0.2923000D+04
EXPONENTS  0.6645000D+03 0.1875000D+03 0.6062000D+02 0.2142000D+02 0.7950000D+01
EXPONENTS  0.8815000D+00 0.2257000D+01 0.3041000D+00 0.9158000D-01 0.4388000D+02
EXPONENTS  0.9926000D+01 0.2930000D+01 0.4388000D+02 0.9926000D+01 0.2930000D+01
EXPONENTS  0.4388000D+02 0.9926000D+01 0.2930000D+01 0.9132000D+00 0.9132000D+00
EXPONENTS  0.9132000D+00 0.2672000D+00 0.2672000D+00 0.2672000D+00 0.7361000D-01
EXPONENTS  0.7361000D-01 0.7361000D-01 0.3107000D+01 0.3107000D+01 0.3107000D+01
EXPONENTS  0.3107000D+01 0.3107000D+01 0.3107000D+01 0.8550000D+00 0.8550000D+00
EXPONENTS  0.8550000D+00 0.8550000D+00 0.8550000D+00 0.8550000D+00 0.2920000D+00
EXPONENTS  0.2920000D+00 0.2920000D+00 0.2920000D+00 0.2920000D+00 0.2920000D+00
EXPONENTS  0.1917000D+01 0.1917000D+01 0.1917000D+01 0.1917000D+01 0.1917000D+01
EXPONENTS  0.1917000D+01 0.1917000D+01 0.1917000D+01 0.1917000D+01 0.1917000D+01
EXPONENTS  0.7240000D+00 0.7240000D+00 0.7240000D+00 0.7240000D+00 0.7240000D+00
EXPONENTS  0.7240000D+00 0.7240000D+00 0.7240000D+00 0.7240000D+00 0.7240000D+00
MO    1     MO 0.0        OCC NO =    2.0000000  ORB. ENERGY =  -24.887792
  0.41974970D+00  0.78243162D+00  0.13264140D+01  0.20085816D+01  0.25117384D+01
  0.21623728D+01  0.83129505D+00 -0.36021375D-02  0.56988779D-03  0.10701483D-02
  0.18222781D-02  0.28545878D-02  0.38254835D-02  0.41148233D-02  0.24705345D-02
 -0.16247274D-02  0.45526166D-01  0.62121010D-03 -0.37053061D-04  0.99776407D-17
  0.97579147D-17  0.64474668D-17 -0.17450193D-14 -0.17065907D-14 -0.11276166D-14
  0.45448427D-02  0.44447569D-02  0.29368388D-02 -0.31120972D-16 -0.11730575D-15
 -0.51562554D-03  0.14701859D-16  0.21114334D-16  0.83228058D-04 -0.94330080D-18
  0.15869227D-17 -0.24762335D-05 -0.40204195D-03 -0.40204195D-03  0.80408390D-03
  0.20888525D-15 -0.68246628D-15  0.28564651D-16 -0.28620139D-06 -0.28620139D-06
  0.57240278D-06 -0.18968815D-16  0.37797061D-16 -0.48878853D-16 -0.24516361D-04
 -0.24516361D-04  0.49032721D-04 -0.89597653D-17 -0.39692512D-17  0.46110657D-16
 -0.24959870D-16 -0.25831375D-16  0.29202219D-03  0.74350878D-17  0.16371137D-15
 -0.43803329D-03  0.67444522D-16 -0.86217243D-16 -0.43803329D-03 -0.38920913D-16
 -0.22316120D-17 -0.30504725D-16  0.84844362D-04 -0.57054368D-17 -0.30195297D-16
 -0.12726654D-03  0.12400273D-16  0.12170947D-15 -0.12726654D-03  0.39637562D-16
  0.41974970D+00  0.78243163D+00  0.13264140D+01  0.20085817D+01  0.25117384D+01
  0.21623728D+01  0.83129506D+00 -0.36021376D-02  0.56988780D-03  0.10701484D-02
  0.18222781D-02  0.28545878D-02  0.38254835D-02  0.41148233D-02  0.24705345D-02
 -0.16247274D-02  0.45526167D-01  0.62121009D-03 -0.37053070D-04  0.12843753D-15
  0.12560910D-15  0.82995241D-16  0.65554786D-15  0.64111149D-15  0.42360947D-15
 -0.45448428D-02 -0.44447570D-02 -0.29368389D-02  0.15494142D-16  0.84311769D-16
  0.51562556D-03  0.17033329D-16 -0.31894830D-16 -0.83228044D-04 -0.76317191D-19
  0.17665145D-18  0.24762345D-05 -0.40204198D-03 -0.40204198D-03  0.80408395D-03
 -0.50569894D-15 -0.49400819D-15  0.33546509D-15 -0.28619069D-06 -0.28619069D-06
  0.57238138D-06  0.46032429D-16  0.60109673D-16  0.33037742D-16 -0.24516359D-04
 -0.24516359D-04  0.49032718D-04 -0.81167598D-17 -0.35753082D-18  0.17191980D-16
 -0.14723838D-16 -0.22364718D-18 -0.29202218D-03 -0.27322561D-16 -0.16878789D-16
  0.43803328D-03  0.71494075D-16  0.17549731D-16  0.43803328D-03 -0.27600464D-16
 -0.55322973D-17  0.46991214D-17 -0.84844355D-04 -0.63535019D-17  0.93084418D-17
  0.12726653D-03  0.22950394D-16 -0.23405806D-16  0.12726653D-03 -0.35318394D-16
MO    2     MO 0.0        OCC NO =    2.0000000  ORB. ENERGY =  -24.887733
  0.41994114D+00  0.78278849D+00  0.13270189D+01  0.20094978D+01  0.25128840D+01
  0.21633590D+01  0.83167420D+00 -0.36037804D-02  0.42239422D-03  0.79318153D-03
  0.13506514D-02  0.21157874D-02  0.28354040D-02  0.30498593D-02  0.18311315D-02
 -0.12042291D-02  0.45896868D-01 -0.43839143D-03 -0.55156114D-03  0.32552936D-17
  0.31836060D-17  0.21035431D-17  0.17427611D-14  0.17043823D-14  0.11261574D-14
  0.64099656D-02  0.62688063D-02  0.41420654D-02  0.25178363D-16  0.11736801D-15
 -0.14196966D-02 -0.14838794D-16 -0.21078159D-16 -0.89775450D-03  0.91324974D-18
 -0.15977495D-17 -0.61347608D-04 -0.15912769D-02 -0.15912769D-02  0.31825539D-02
 -0.20187763D-15  0.69682517D-15 -0.18817957D-16  0.69392514D-03  0.69392514D-03
 -0.13878503D-02  0.18864552D-16 -0.37297020D-16  0.47352920D-16  0.98272491D-04
  0.98272491D-04 -0.19654498D-03  0.90142497D-17  0.37955079D-17 -0.46111934D-16
  0.25110532D-16  0.26804981D-16 -0.46497457D-03 -0.88913418D-17 -0.16530152D-15
  0.69746186D-03 -0.66440254D-16  0.84886575D-16  0.69746186D-03  0.37741021D-16
  0.21763065D-17  0.30540958D-16 -0.41257194D-03  0.57398214D-17  0.30281126D-16
  0.61885791D-03 -0.12268741D-16 -0.12190400D-15  0.61885791D-03 -0.39317232D-16
 -0.41994114D+00 -0.78278847D+00 -0.13270189D+01 -0.20094977D+01 -0.25128840D+01
 -0.21633590D+01 -0.83167418D+00  0.36037804D-02 -0.42239421D-03 -0.79318152D-03
 -0.13506513D-02 -0.21157873D-02 -0.28354039D-02 -0.30498592D-02 -0.18311315D-02
  0.12042291D-02 -0.45896867D-01  0.43839143D-03  0.55156114D-03 -0.12445864D-15
 -0.12171783D-15 -0.80424115D-16 -0.65580815D-15 -0.64136604D-15 -0.42377766D-15
  0.64099655D-02  0.62688063D-02  0.41420653D-02 -0.14734609D-16 -0.84107686D-16
 -0.14196966D-02 -0.17162719D-16  0.31755082D-16 -0.89775450D-03  0.12466882D-18
 -0.13734772D-18 -0.61347608D-04  0.15912769D-02  0.15912769D-02 -0.31825539D-02
  0.50229685D-15  0.48929377D-15 -0.32923417D-15 -0.69392514D-03 -0.69392514D-03
  0.13878503D-02 -0.45769247D-16 -0.60088325D-16 -0.33163217D-16 -0.98272491D-04
 -0.98272491D-04  0.19654498D-03  0.81689437D-17  0.14800261D-18 -0.17262133D-16
  0.14408192D-16  0.89716707D-18 -0.46497458D-03  0.27450299D-16  0.17420385D-16
  0.69746187D-03 -0.70674874D-16 -0.20111886D-16  0.69746187D-03  0.28806060D-16
  0.54521905D-17 -0.47931143D-17 -0.41257194D-03  0.62580023D-17 -0.94055693D-17
  0.61885791D-03 -0.22614574D-16  0.23784912D-16  0.61885791D-03  0.34974476D-16
MO    3     MO 0.0        OCC NO =    2.0000000  ORB. ENERGY =   -1.406651
  0.40322266D-02  0.75162451D-02  0.12741883D-01  0.19294966D-01  0.24128423D-01
  0.20772325D-01  0.79856400D-02 -0.34603085D-04  0.88410430D-01  0.16601913D+00
  0.28270195D+00  0.44285093D+00  0.59347234D+00  0.63835952D+00  0.38327022D+00
 -0.25205462D+00 -0.14734868D+00 -0.61871832D-01 -0.34682656D-03  0.12013669D-15
  0.11749106D-15  0.77631308D-16  0.34512760D-15  0.33752725D-15  0.22301853D-15
 -0.36317038D+00 -0.35517270D+00 -0.23467762D+00 -0.86685391D-16 -0.73456150D-16
 -0.88620023D-01  0.11616555D-16 -0.18077969D-16 -0.66423902D-02  0.11911836D-17
  0.99128909D-18  0.13061825D-03  0.24651276D-01  0.24651276D-01 -0.49302552D-01
 -0.84526697D-16  0.49381231D-16 -0.85073101D-16  0.93006504D-02  0.93006504D-02
 -0.18601301D-01 -0.27942293D-16 -0.91828853D-16  0.21464629D-16  0.47776093D-03
  0.47776093D-03 -0.95552185D-03 -0.19144389D-17  0.14986374D-16  0.66801126D-17
  0.72225039D-18  0.14491587D-16 -0.85069061D-02  0.22279187D-16 -0.72332213D-16
  0.12760359D-01 -0.24445938D-16  0.28857452D-16  0.12760359D-01  0.20426850D-16
 -0.23348315D-17 -0.79012310D-18 -0.31961698D-02 -0.38569251D-17  0.57262562D-17
  0.47942547D-02  0.10861420D-16 -0.33558869D-17  0.47942547D-02 -0.21422503D-16
  0.40322266D-02  0.75162451D-02  0.12741883D-01  0.19294966D-01  0.24128423D-01
  0.20772325D-01  0.79856400D-02 -0.34603085D-04  0.88410430D-01  0.16601913D+00
  0.28270195D+00  0.44285093D+00  0.59347234D+00  0.63835952D+00  0.38327022D+00
 -0.25205462D+00 -0.14734868D+00 -0.61871832D-01 -0.34682656D-03  0.31662951D-17
  0.30965674D-17  0.20460330D-17  0.28746982D-15  0.28113921D-15  0.18576056D-15
  0.36317038D+00  0.35517270D+00  0.23467762D+00  0.13199061D-16  0.51096526D-16
  0.88620023D-01 -0.25964412D-16 -0.35363016D-17  0.66423902D-02  0.29796921D-17
  0.16691474D-17 -0.13061825D-03  0.24651276D-01  0.24651276D-01 -0.49302552D-01
  0.56822207D-16 -0.16255441D-15  0.13805346D-15  0.93006504D-02  0.93006504D-02
 -0.18601301D-01 -0.12111339D-16  0.19524248D-17 -0.27868426D-16  0.47776093D-03
  0.47776093D-03 -0.95552185D-03 -0.87198377D-18  0.12890191D-16 -0.30253445D-17
 -0.15854198D-16  0.88878637D-18  0.85069061D-02  0.15564820D-16  0.56350710D-17
 -0.12760359D-01  0.31997774D-16 -0.83014301D-17 -0.12760359D-01  0.98484654D-17
  0.48291198D-17 -0.44524452D-17  0.31961698D-02  0.75012305D-18 -0.53070447D-17
 -0.47942547D-02 -0.15237483D-16  0.18664380D-16 -0.47942547D-02  0.16234064D-16
MO    4     MO 0.0        OCC NO =    2.0000000  ORB. ENERGY =   -1.137391
 -0.35526239D-02 -0.66222449D-02 -0.11226333D-01 -0.16999977D-01 -0.21258531D-01
 -0.18301615D-01 -0.70358089D-02  0.30487312D-04 -0.98303195D-01 -0.18459599D+00
 -0.31433514D+00 -0.49240413D+00 -0.65987946D+00 -0.70978933D+00 -0.42615658D+00
  0.28025850D+00  0.17120868D+00  0.94289173D-01  0.45400821D-02  0.36925603D-15
  0.36112433D-15  0.23861012D-15  0.52458611D-15  0.51303376D-15  0.33898310D-15
 -0.23047447D+00 -0.22539900D+00 -0.14893065D+00 -0.36982732D-16  0.45927545D-17
 -0.46742538D-01  0.26697157D-16  0.88432692D-17  0.51048401D-02  0.29044209D-17
 -0.40911741D-17  0.29030011D-03  0.45282576D-02  0.45282576D-02 -0.90565151D-02
  0.59182038D-16  0.15517264D-15 -0.63259969D-16  0.88200218D-04  0.88200218D-04
 -0.17640044D-03 -0.59347665D-17 -0.36141413D-16  0.25970608D-17 -0.10327626D-02
 -0.10327626D-02  0.20655253D-02 -0.49393534D-17  0.13187117D-16 -0.44004846D-17
 -0.59266974D-18  0.32680685D-16 -0.78863426D-02  0.11820771D-17 -0.88343691D-16
  0.11829514D-01  0.59593213D-18 -0.96983627D-17  0.11829514D-01 -0.84640724D-17
 -0.34820923D-17 -0.21992888D-17  0.95257390D-03 -0.45987161D-17  0.58056159D-17
 -0.14288608D-02  0.15044993D-16  0.79225058D-18 -0.14288608D-02 -0.15634974D-16
  0.35526239D-02  0.66222449D-02  0.11226333D-01  0.16999977D-01  0.21258531D-01
  0.18301615D-01  0.70358089D-02 -0.30487312D-04  0.98303195D-01  0.18459599D+00
  0.31433514D+00  0.49240413D+00  0.65987946D+00  0.70978933D+00  0.42615658D+00
 -0.28025850D+00 -0.17120868D+00 -0.94289173D-01 -0.45400821D-02 -0.19029079D-15
 -0.18610024D-15 -0.12296430D-15  0.18290731D-15  0.17887935D-15  0.11819315D-15
 -0.23047447D+00 -0.22539900D+00 -0.14893065D+00 -0.31500860D-16  0.37280481D-16
 -0.46742538D-01 -0.29160972D-16 -0.60170638D-17  0.51048401D-02  0.38970940D-17
  0.32636471D-17  0.29030011D-03 -0.45282576D-02 -0.45282576D-02  0.90565151D-02
  0.32352603D-16 -0.22942089D-15  0.13456628D-15 -0.88200218D-04 -0.88200218D-04
  0.17640044D-03 -0.16490955D-16  0.18687734D-16 -0.35037326D-16  0.10327626D-02
  0.10327626D-02 -0.20655253D-02 -0.48981426D-18  0.11009107D-16 -0.99247338D-17
 -0.23929261D-16  0.10849933D-16 -0.78863426D-02  0.11442007D-16  0.16427983D-17
  0.11829514D-01  0.60345777D-16 -0.34192596D-16  0.11829514D-01 -0.75563656D-17
  0.52725490D-17 -0.32013930D-17  0.95257390D-03  0.24971741D-17 -0.56340011D-17
 -0.14288608D-02 -0.18314821D-16  0.15238180D-16 -0.14288608D-02  0.16505075D-16
MO    5     MO 0.0        OCC NO =    2.0000000  ORB. ENERGY =   -0.631591
  0.22416447D-03  0.41785229D-03  0.70836235D-03  0.10726694D-02  0.13413768D-02
  0.11548005D-02  0.44394747D-03 -0.19236970D-05  0.25624131D-01  0.48117580D-01
  0.81935941D-01  0.12835217D+00  0.17200700D+00  0.18501672D+00  0.11108380D+00
 -0.73053379D-01 -0.48402732D-01 -0.35670348D-01 -0.27893454D-02 -0.12172700D-14
 -0.11904634D-14 -0.78658953D-15 -0.32911223D-15 -0.32186457D-15 -0.21266953D-15
  0.17935613D+01  0.17540638D+01  0.11589841D+01 -0.29086934D-15 -0.12082614D-15
  0.41015790D+00 -0.31592785D-16  0.51481879D-16  0.50801145D-01 -0.56007954D-17
 -0.18458515D-16  0.40002921D-03 -0.29236690D-01 -0.29236690D-01  0.58473381D-01
  0.11312106D-16 -0.93806937D-17  0.11438883D-15 -0.10532189D-01 -0.10532189D-01
  0.21064379D-01  0.41967194D-16  0.96543848D-17  0.79621840D-17 -0.10595683D-02
 -0.10595683D-02  0.21191365D-02  0.18110402D-17 -0.42423683D-17 -0.12111556D-16
 -0.44591091D-17 -0.33247015D-18  0.19543243D-01  0.27479718D-17  0.13125737D-16
 -0.29314864D-01  0.10629356D-16 -0.12128327D-16 -0.29314864D-01  0.64582968D-16
  0.94625205D-18  0.46438116D-18  0.34631983D-02  0.38415944D-17 -0.21781090D-17
 -0.51947974D-02 -0.66803506D-17  0.78496547D-18 -0.51947974D-02  0.93158345D-17
  0.22416447D-03  0.41785229D-03  0.70836235D-03  0.10726694D-02  0.13413768D-02
  0.11548005D-02  0.44394747D-03 -0.19236970D-05  0.25624131D-01  0.48117580D-01
  0.81935941D-01  0.12835217D+00  0.17200700D+00  0.18501672D+00  0.11108380D+00
 -0.73053379D-01 -0.48402732D-01 -0.35670348D-01 -0.27893454D-02 -0.63432038D-15
 -0.62035148D-15 -0.40989245D-15 -0.53396389D-17 -0.52220502D-17 -0.34504294D-17
 -0.17935613D+01 -0.17540638D+01 -0.11589841D+01 -0.15604585D-15 -0.32078822D-17
 -0.41015790D+00 -0.18215749D-16 -0.10386195D-16 -0.50801145D-01  0.22041798D-17
 -0.13823007D-17 -0.40002921D-03 -0.29236690D-01 -0.29236690D-01  0.58473381D-01
 -0.54082523D-16  0.12704605D-16 -0.42919913D-16 -0.10532189D-01 -0.10532189D-01
  0.21064379D-01 -0.93971182D-17  0.31279372D-16 -0.39234683D-17 -0.10595683D-02
 -0.10595683D-02  0.21191365D-02  0.23255094D-19 -0.44038483D-17  0.76103329D-17
  0.60717598D-17  0.63355978D-17 -0.19543243D-01  0.62730283D-17 -0.48214538D-17
  0.29314864D-01 -0.24488308D-16 -0.14185340D-16  0.29314864D-01 -0.42728839D-16
  0.69632690D-19  0.25910008D-17 -0.34631983D-02  0.30438921D-17  0.23472085D-18
  0.51947974D-02 -0.32527902D-17 -0.80077233D-17  0.51947974D-02 -0.12349690D-16
MO    6     MO 0.0        OCC NO =    2.0000000  ORB. ENERGY =   -0.572437
 -0.10043634D-16 -0.18721768D-16 -0.31738000D-16 -0.48060685D-16 -0.60100056D-16
 -0.51740550D-16 -0.19890956D-16  0.86190770D-19  0.25321564D-16  0.47549412D-16
  0.80968449D-16  0.12683660D-15  0.16997596D-15  0.18283206D-15  0.10977213D-15
 -0.72190771D-16 -0.37094519D-16  0.34740934D-16 -0.10576038D-17  0.17661464D+01
  0.17272527D+01  0.11412689D+01 -0.47511370D+00 -0.46465083D+00 -0.30701445D+00
  0.32633634D-15  0.31914981D-15  0.21087577D-15  0.39558800D+00 -0.10641772D+00
  0.57364859D-16  0.55169351D-01 -0.14841190D-01  0.75086320D-16  0.77962021D-03
 -0.20972680D-03 -0.43335626D-17 -0.17217638D-16  0.57439858D-17  0.11473652D-16
  0.80038089D-16  0.70056815D-01 -0.18846089D-01 -0.64735356D-17  0.12862149D-16
 -0.63886130D-17 -0.65491837D-16  0.32582155D-01 -0.87649743D-02 -0.18926029D-16
  0.11224786D-16  0.77012425D-17 -0.17427243D-17  0.16589264D-02 -0.44627027D-03
 -0.11073651D-01  0.29789395D-02 -0.37110661D-16 -0.11073590D-01  0.29789229D-02
  0.23805191D-15  0.44294543D-01 -0.11915741D-01 -0.12671993D-15  0.86697324D-15
 -0.23502138D-02  0.63223453D-03  0.14699538D-16 -0.23502189D-02  0.63223591D-03
 -0.10787643D-15  0.94008602D-02 -0.25289395D-02  0.63777816D-16 -0.19146699D-15
  0.95263011D-17  0.17757438D-16  0.30103223D-16  0.45585151D-16  0.57004392D-16
  0.49075471D-16  0.18866403D-16 -0.81751212D-19 -0.57136414D-18 -0.10729207D-17
 -0.18269988D-17 -0.28619829D-17 -0.38353938D-17 -0.41254831D-17 -0.24769346D-17
  0.16289364D-17  0.38836636D-17 -0.82742343D-16  0.69465680D-17  0.17661464D+01
  0.17272527D+01  0.11412689D+01 -0.47511370D+00 -0.46465083D+00 -0.30701445D+00
 -0.10995515D-14 -0.10753373D-14 -0.71052083D-15  0.39558800D+00 -0.10641772D+00
 -0.29832386D-15  0.55169351D-01 -0.14841190D-01  0.19845073D-16  0.77962021D-03
 -0.20972680D-03 -0.11339321D-17 -0.26102438D-15  0.22268518D-15  0.38339200D-16
 -0.26812782D-15 -0.70056815D-01  0.18846089D-01 -0.11200799D-16  0.11153573D-16
  0.47226488D-19 -0.75528374D-17 -0.32582155D-01  0.87649743D-02  0.63763243D-17
  0.81638829D-17 -0.14540207D-16  0.13361840D-16 -0.16589264D-02  0.44627027D-03
 -0.11073651D-01  0.29789395D-02 -0.79188143D-17 -0.11073590D-01  0.29789229D-02
  0.13176767D-15  0.44294543D-01 -0.11915741D-01 -0.10801122D-15  0.45906421D-15
 -0.23502138D-02  0.63223453D-03  0.12728465D-16 -0.23502189D-02  0.63223591D-03
 -0.16759858D-15  0.94008602D-02 -0.25289395D-02  0.12941319D-15 -0.14112740D-15
MO    7     MO 0.0        OCC NO =    2.0000000  ORB. ENERGY =   -0.572437
 -0.24203023D-17 -0.45115484D-17 -0.76481837D-17 -0.11581604D-16 -0.14482837D-16
 -0.12468373D-16 -0.47932979D-17  0.20770144D-19 -0.91575337D-17 -0.17196226D-16
 -0.29282208D-16 -0.45870406D-16 -0.61471740D-16 -0.66121144D-16 -0.39699048D-16
  0.26107764D-16  0.19310061D-16 -0.20781651D-16 -0.55069599D-16 -0.47511370D+00
 -0.46465083D+00 -0.30701445D+00 -0.17661464D+01 -0.17272527D+01 -0.11412689D+01
 -0.31772784D-16 -0.31073088D-16 -0.20531303D-16 -0.10641772D+00 -0.39558800D+00
  0.51496163D-17 -0.14841190D-01 -0.55169351D-01 -0.73515091D-16 -0.20972680D-03
 -0.77962021D-03 -0.82454295D-17  0.46689754D-16  0.93512771D-16 -0.14020253D-15
 -0.79303088D-16 -0.18846089D-01 -0.70056815D-01  0.72262497D-16 -0.69633343D-16
 -0.26291544D-17 -0.21701957D-16 -0.87649743D-02 -0.32582155D-01 -0.94629354D-17
  0.25611003D-16 -0.16148067D-16  0.24804785D-16 -0.44627027D-03 -0.16589264D-02
  0.29789395D-02  0.11073651D-01 -0.11252501D-15  0.29789229D-02  0.11073590D-01
  0.17490251D-15 -0.11915741D-01 -0.44294543D-01  0.16267252D-15 -0.87130478D-16
  0.63223453D-03  0.23502138D-02  0.13600240D-16  0.63223591D-03  0.23502189D-02
 -0.70203697D-16 -0.25289395D-02 -0.94008602D-02  0.29402977D-16 -0.26154944D-16
 -0.18215282D-16 -0.33954076D-16 -0.57560506D-16 -0.87163570D-16 -0.10899835D-15
 -0.93837426D-16 -0.36074532D-16  0.15631685D-18  0.18664491D-16  0.35048609D-16
  0.59681737D-16  0.93491087D-16  0.12528906D-15  0.13476527D-15  0.80912892D-16
 -0.53211722D-16 -0.12027656D-16  0.51063333D-16  0.61753679D-16 -0.47511370D+00
 -0.46465083D+00 -0.30701445D+00 -0.17661464D+01 -0.17272527D+01 -0.11412689D+01
  0.69714265D-15  0.68179029D-15  0.45048767D-15 -0.10641772D+00 -0.39558800D+00
  0.22818358D-15 -0.14841190D-01 -0.55169351D-01 -0.46760495D-16 -0.20972680D-03
 -0.77962021D-03 -0.10545781D-16 -0.18560886D-16  0.80582719D-16 -0.62021833D-16
  0.67082099D-15  0.18846089D-01  0.70056815D-01  0.29498775D-17  0.25928319D-16
 -0.28878197D-16 -0.61501163D-16  0.87649743D-02  0.32582155D-01 -0.13438975D-17
 -0.14818714D-16  0.16162612D-16  0.28317606D-16  0.44627027D-03  0.16589264D-02
  0.29789395D-02  0.11073651D-01  0.91836418D-16  0.29789229D-02  0.11073590D-01
 -0.29770873D-16 -0.11915741D-01 -0.44294543D-01 -0.24573838D-15 -0.12487076D-15
  0.63223453D-03  0.23502138D-02  0.23828022D-16  0.63223591D-03  0.23502189D-02
 -0.10098585D-15 -0.25289395D-02 -0.94008602D-02  0.29501785D-16  0.30275931D-16
MO    8     MO 0.0        OCC NO =    2.0000000  ORB. ENERGY =   -0.428502
 -0.93099801D-17 -0.17354206D-16 -0.29419646D-16 -0.44550015D-16 -0.55709950D-16
 -0.47961077D-16 -0.18437989D-16  0.79894825D-19  0.21488840D-16  0.40352236D-16
  0.68712898D-16  0.10763835D-15  0.14424805D-15  0.15515823D-15  0.93156796D-16
 -0.61263828D-16 -0.34257997D-16  0.84002356D-17  0.93283770D-17  0.20324930D+01
  0.19877338D+01  0.13133798D+01 -0.11710147D+00 -0.11452268D+00 -0.75669974D-01
 -0.13516745D-15 -0.13219082D-15 -0.87344061D-16  0.45121055D+00 -0.25996358D-01
 -0.57720096D-16  0.70831052D-01 -0.40809094D-02  0.11801176D-16  0.21303880D-02
 -0.12274165D-03  0.37101648D-17 -0.13179245D-15  0.11666139D-15  0.15131062D-16
 -0.10658114D-15  0.69808214D-02 -0.40219789D-03  0.41366519D-17  0.46699563D-17
 -0.88066082D-17 -0.15285076D-16 -0.75782076D-02  0.43661611D-03  0.46204710D-17
 -0.11216944D-16  0.65964725D-17  0.16243989D-17 -0.22502923D-03  0.12964990D-04
 -0.47351110D-02  0.27281197D-03 -0.15212858D-16 -0.47350354D-02  0.27280762D-03
 -0.63641764D-16  0.18940368D-01 -0.10912435D-02  0.10928034D-15  0.13148661D-15
  0.51837867D-03 -0.29866229D-04  0.14316358D-16  0.51837119D-03 -0.29865798D-04
  0.41000464D-16 -0.20735072D-02  0.11946448D-03 -0.83949537D-16 -0.16781936D-16
  0.13070403D-17  0.24363797D-17  0.41302625D-17  0.62544347D-17  0.78211925D-17
  0.67333182D-17  0.25885333D-17 -0.11216539D-19 -0.10656200D-16 -0.20010456D-16
 -0.34074356D-16 -0.53377276D-16 -0.71531830D-16 -0.76942128D-16 -0.46195953D-16
  0.30380402D-16  0.29432058D-16 -0.14024116D-16 -0.13897734D-16 -0.20324930D+01
 -0.19877338D+01 -0.13133798D+01  0.11710147D+00  0.11452268D+00  0.75669974D-01
 -0.50220166D-15 -0.49114226D-15 -0.32451846D-15 -0.45121055D+00  0.25996358D-01
 -0.13696807D-15 -0.70831052D-01  0.40809094D-02  0.16406639D-17 -0.21303880D-02
  0.12274165D-03  0.10222085D-17 -0.93879463D-16  0.27411552D-16  0.66467911D-16
  0.17973361D-15  0.69808214D-02 -0.40219789D-03  0.41975672D-16 -0.17640879D-17
 -0.40211584D-16 -0.83937283D-16 -0.75782076D-02  0.43661611D-03 -0.80255433D-17
  0.56306482D-17  0.23948951D-17  0.14704972D-17 -0.22502923D-03  0.12964990D-04
  0.47351110D-02 -0.27281197D-03  0.19883504D-16  0.47350354D-02 -0.27280762D-03
 -0.20570643D-16 -0.18940368D-01  0.10912435D-02 -0.39079868D-16  0.22848622D-15
 -0.51837867D-03  0.29866229D-04 -0.10848827D-16 -0.51837119D-03  0.29865798D-04
 -0.19882003D-18  0.20735072D-02 -0.11946448D-03  0.32745300D-16 -0.59247572D-16
MO    9     MO 0.0        OCC NO =    2.0000000  ORB. ENERGY =   -0.428502
  0.57308957D-17  0.10682638D-16  0.18109697D-16  0.27423419D-16  0.34293082D-16
  0.29523149D-16  0.11349776D-16 -0.49180439D-19  0.22428471D-18  0.42116696D-18
  0.71717469D-18  0.11234499D-17  0.15055550D-17  0.16194274D-17  0.97230211D-18
 -0.63942678D-18 -0.74909210D-17  0.70313129D-17 -0.13064295D-16  0.11710147D+00
  0.11452268D+00  0.75669974D-01  0.20324930D+01  0.19877338D+01  0.13133798D+01
  0.18319161D-15  0.17915739D-15  0.11837686D-15  0.25996358D-01  0.45121055D+00
  0.17757706D-16  0.40809094D-02  0.70831052D-01  0.78190440D-17  0.12274165D-03
  0.21303880D-02 -0.61777617D-17  0.10052184D-15 -0.12615087D-15  0.25629025D-16
  0.16788908D-16  0.40219789D-03  0.69808214D-02 -0.32278765D-16  0.35780827D-16
 -0.35020616D-17  0.33626607D-16 -0.43661611D-03 -0.75782076D-02  0.18941323D-16
 -0.87278018D-17 -0.10213522D-16 -0.12139807D-16 -0.12964990D-04 -0.22502923D-03
 -0.27281197D-03 -0.47351110D-02  0.73882691D-16 -0.27280762D-03 -0.47350354D-02
 -0.28940170D-15  0.10912435D-02  0.18940368D-01  0.67753626D-16 -0.28069700D-15
  0.29866229D-04  0.51837867D-03 -0.10046480D-16  0.29865798D-04  0.51837119D-03
  0.16153101D-17 -0.11946448D-03 -0.20735072D-02  0.28524130D-16 -0.11760464D-16
  0.11268548D-16  0.21005062D-16  0.35608744D-16  0.53922133D-16  0.67429816D-16
  0.58050791D-16  0.22316843D-16 -0.96702535D-19 -0.51373215D-17 -0.96469799D-17
 -0.16427143D-16 -0.25733022D-16 -0.34485277D-16 -0.37093566D-16 -0.22270928D-16
  0.14646299D-16  0.71060480D-17  0.52083499D-17  0.75608533D-17 -0.11710147D+00
 -0.11452268D+00 -0.75669974D-01 -0.20324930D+01 -0.19877338D+01 -0.13133798D+01
  0.86821384D-16  0.84909417D-16  0.56103242D-16 -0.25996358D-01 -0.45121055D+00
 -0.23425547D-16 -0.40809094D-02 -0.70831052D-01  0.27324559D-17 -0.12274165D-03
 -0.21303880D-02  0.44719756D-17 -0.18152737D-16  0.76093450D-17  0.10543392D-16
 -0.93119628D-17  0.40219789D-03  0.69808214D-02  0.24931225D-16 -0.55850406D-16
  0.30919181D-16  0.72556240D-16 -0.43661611D-03 -0.75782076D-02 -0.40691969D-17
  0.82642068D-17 -0.41950099D-17 -0.25402809D-16 -0.12964990D-04 -0.22502923D-03
  0.27281197D-03  0.47351110D-02 -0.19407196D-16  0.27280762D-03  0.47350354D-02
 -0.21921719D-15 -0.10912435D-02 -0.18940368D-01  0.27743877D-15  0.26042071D-15
 -0.29866229D-04 -0.51837867D-03 -0.11351225D-16 -0.29865798D-04 -0.51837119D-03
  0.44270278D-16  0.11946448D-03  0.20735072D-02 -0.10216602D-16 -0.28184300D-16
END DATA
RHF
