 Molden2AIM, Version 4.0.0 (06/02/2016)           Time: Sun Jun 24 19:21:58 2018
GAUSSIAN              9 MOL ORBITALS    204 PRIMITIVES        2 NUCLEI
  F    1    (CENTRE  1)   0.00000000  0.00000000  0.03432121  CHARGE =  9.0
  F    2    (CENTRE  2)   0.00000000  0.00000000  2.63378311  CHARGE =  9.0
CENTRE ASSIGNMENTS    1  1  1  1  1  1  1  1  1  1  1  1  1  1  1  1  1  1  1  1
CENTRE ASSIGNMENTS    1  1  1  1  1  1  1  1  1  1  1  1  1  1  1  1  1  1  1  1
CENTRE ASSIGNMENTS    1  1  1  1  1  1  1  1  1  1  1  1  1  1  1  1  1  1  1  1
CENTRE ASSIGNMENTS    1  1  1  1  1  1  1  1  1  1  1  1  1  1  1  1  1  1  1  1
CENTRE ASSIGNMENTS    1  1  1  1  1  1  1  1  1  1  1  1  1  1  1  1  1  1  1  1
CENTRE ASSIGNMENTS    1  1  2  2  2  2  2  2  2  2  2  2  2  2  2  2  2  2  2  2
CENTRE ASSIGNMENTS    2  2  2  2  2  2  2  2  2  2  2  2  2  2  2  2  2  2  2  2
CENTRE ASSIGNMENTS    2  2  2  2  2  2  2  2  2  2  2  2  2  2  2  2  2  2  2  2
CENTRE ASSIGNMENTS    2  2  2  2  2  2  2  2  2  2  2  2  2  2  2  2  2  2  2  2
CENTRE ASSIGNMENTS    2  2  2  2  2  2  2  2  2  2  2  2  2  2  2  2  2  2  2  2
CENTRE ASSIGNMENTS    2  2  2  2
TYPE ASSIGNMENTS      1  1  1  1  1  1  1  1  1  1  1  1  1  1  1  1  2  2  2  2
TYPE ASSIGNMENTS      2  3  3  3  3  3  4  4  4  4  4  2  3  4  2  3  4  2  3  4
TYPE ASSIGNMENTS      2  3  4  5  6  7  8  9 10  5  6  7  8  9 10  5  6  7  8  9
TYPE ASSIGNMENTS     10  5  6  7  8  9 10 11 12 13 17 14 15 18 19 16 20 11 12 13
TYPE ASSIGNMENTS     17 14 15 18 19 16 20 21 22 23 24 25 26 27 28 29 30 31 32 33
TYPE ASSIGNMENTS     34 35  1  1  1  1  1  1  1  1  1  1  1  1  1  1  1  1  2  2
TYPE ASSIGNMENTS      2  2  2  3  3  3  3  3  4  4  4  4  4  2  3  4  2  3  4  2
TYPE ASSIGNMENTS      3  4  2  3  4  5  6  7  8  9 10  5  6  7  8  9 10  5  6  7
TYPE ASSIGNMENTS      8  9 10  5  6  7  8  9 10 11 12 13 17 14 15 18 19 16 20 11
TYPE ASSIGNMENTS     12 13 17 14 15 18 19 16 20 21 22 23 24 25 26 27 28 29 30 31
TYPE ASSIGNMENTS     32 33 34 35
EXPONENTS  0.1325360D+06 0.1975811D+05 0.4485200D+04 0.1273815D+04 0.4189383D+03
EXPONENTS  0.1525572D+03 0.5982152D+02 0.2481908D+02 0.1007445D+03 0.3010373D+02
EXPONENTS  0.1081428D+02 0.4817289D+01 0.1655933D+01 0.6489352D+00 0.2477810D+00
EXPONENTS  0.8762624D-01 0.2409665D+03 0.5702070D+02 0.1812695D+02 0.6645740D+01
EXPONENTS  0.2637572D+01 0.2409665D+03 0.5702070D+02 0.1812695D+02 0.6645740D+01
EXPONENTS  0.2637572D+01 0.2409665D+03 0.5702070D+02 0.1812695D+02 0.6645740D+01
EXPONENTS  0.2637572D+01 0.1063822D+01 0.1063822D+01 0.1063822D+01 0.4193256D+00
EXPONENTS  0.4193256D+00 0.4193256D+00 0.1574759D+00 0.1574759D+00 0.1574759D+00
EXPONENTS  0.4677240D-01 0.4677240D-01 0.4677240D-01 0.5014000D+01 0.5014000D+01
EXPONENTS  0.5014000D+01 0.5014000D+01 0.5014000D+01 0.5014000D+01 0.1725000D+01
EXPONENTS  0.1725000D+01 0.1725000D+01 0.1725000D+01 0.1725000D+01 0.1725000D+01
EXPONENTS  0.5860000D+00 0.5860000D+00 0.5860000D+00 0.5860000D+00 0.5860000D+00
EXPONENTS  0.5860000D+00 0.1596799D+00 0.1596799D+00 0.1596799D+00 0.1596799D+00
EXPONENTS  0.1596799D+00 0.1596799D+00 0.3562000D+01 0.3562000D+01 0.3562000D+01
EXPONENTS  0.3562000D+01 0.3562000D+01 0.3562000D+01 0.3562000D+01 0.3562000D+01
EXPONENTS  0.3562000D+01 0.3562000D+01 0.1148000D+01 0.1148000D+01 0.1148000D+01
EXPONENTS  0.1148000D+01 0.1148000D+01 0.1148000D+01 0.1148000D+01 0.1148000D+01
EXPONENTS  0.1148000D+01 0.1148000D+01 0.2376000D+01 0.2376000D+01 0.2376000D+01
EXPONENTS  0.2376000D+01 0.2376000D+01 0.2376000D+01 0.2376000D+01 0.2376000D+01
EXPONENTS  0.2376000D+01 0.2376000D+01 0.2376000D+01 0.2376000D+01 0.2376000D+01
EXPONENTS  0.2376000D+01 0.2376000D+01 0.1325360D+06 0.1975811D+05 0.4485200D+04
EXPONENTS  0.1273815D+04 0.4189383D+03 0.1525572D+03 0.5982152D+02 0.2481908D+02
EXPONENTS  0.1007445D+03 0.3010373D+02 0.1081428D+02 0.4817289D+01 0.1655933D+01
EXPONENTS  0.6489352D+00 0.2477810D+00 0.8762624D-01 0.2409665D+03 0.5702070D+02
EXPONENTS  0.1812695D+02 0.6645740D+01 0.2637572D+01 0.2409665D+03 0.5702070D+02
EXPONENTS  0.1812695D+02 0.6645740D+01 0.2637572D+01 0.2409665D+03 0.5702070D+02
EXPONENTS  0.1812695D+02 0.6645740D+01 0.2637572D+01 0.1063822D+01 0.1063822D+01
EXPONENTS  0.1063822D+01 0.4193256D+00 0.4193256D+00 0.4193256D+00 0.1574759D+00
EXPONENTS  0.1574759D+00 0.1574759D+00 0.4677240D-01 0.4677240D-01 0.4677240D-01
EXPONENTS  0.5014000D+01 0.5014000D+01 0.5014000D+01 0.5014000D+01 0.5014000D+01
EXPONENTS  0.5014000D+01 0.1725000D+01 0.1725000D+01 0.1725000D+01 0.1725000D+01
EXPONENTS  0.1725000D+01 0.1725000D+01 0.5860000D+00 0.5860000D+00 0.5860000D+00
EXPONENTS  0.5860000D+00 0.5860000D+00 0.5860000D+00 0.1596799D+00 0.1596799D+00
EXPONENTS  0.1596799D+00 0.1596799D+00 0.1596799D+00 0.1596799D+00 0.3562000D+01
EXPONENTS  0.3562000D+01 0.3562000D+01 0.3562000D+01 0.3562000D+01 0.3562000D+01
EXPONENTS  0.3562000D+01 0.3562000D+01 0.3562000D+01 0.3562000D+01 0.1148000D+01
EXPONENTS  0.1148000D+01 0.1148000D+01 0.1148000D+01 0.1148000D+01 0.1148000D+01
EXPONENTS  0.1148000D+01 0.1148000D+01 0.1148000D+01 0.1148000D+01 0.2376000D+01
EXPONENTS  0.2376000D+01 0.2376000D+01 0.2376000D+01 0.2376000D+01 0.2376000D+01
EXPONENTS  0.2376000D+01 0.2376000D+01 0.2376000D+01 0.2376000D+01 0.2376000D+01
EXPONENTS  0.2376000D+01 0.2376000D+01 0.2376000D+01 0.2376000D+01
MO    1     MO 0.0        OCC NO =    2.0000000  ORB. ENERGY =  -24.882976
  0.16344962D+00  0.30676306D+00  0.52935062D+00  0.85308217D+00  0.12871528D+01
  0.17833412D+01  0.21206294D+01  0.19248391D+01  0.10075159D-03  0.36462499D-03
  0.10441873D+01  0.23310021D+00  0.56508959D-02 -0.41620953D-03  0.15209332D-03
 -0.20405048D-04 -0.91272984D-15 -0.12073807D-14 -0.13539718D-14 -0.12511397D-14
 -0.84845526D-15  0.14087063D-15  0.18634700D-15  0.20897187D-15  0.19310077D-15
  0.13095049D-15  0.27829619D-02  0.36813679D-02  0.41283322D-02  0.38147916D-02
  0.25869852D-02  0.46000416D-15 -0.21615670D-16 -0.97011207D-03  0.43588504D-16
 -0.97720819D-17  0.22981777D-03 -0.13723092D-16 -0.11299394D-16 -0.45481710D-04
 -0.12363518D-18 -0.17524617D-17  0.29475732D-06 -0.20302684D-02 -0.20302684D-02
  0.40605369D-02  0.25687960D-14  0.61146904D-15  0.14678952D-14  0.30442992D-03
  0.30442992D-03 -0.60885985D-03 -0.26466822D-15 -0.88781388D-16 -0.24894416D-15
 -0.36137634D-04 -0.36137634D-04  0.72275269D-04 -0.24648327D-16  0.23168757D-16
  0.70077350D-16  0.49138859D-05  0.49138859D-05 -0.98277718D-05  0.88111070D-18
  0.40749212D-17 -0.84295959D-17  0.17483811D-15  0.54032322D-16 -0.50502138D-03
  0.17798709D-15  0.52612599D-16  0.75753207D-03 -0.70250141D-15 -0.21470957D-15
  0.75753207D-03 -0.42941029D-16 -0.20039611D-16 -0.10195640D-16  0.13160727D-03
 -0.20182902D-16 -0.10352382D-16 -0.19741091D-03  0.80301733D-16  0.40939303D-16
 -0.19741091D-03  0.53192167D-16  0.68658580D-04  0.68658580D-04  0.18309493D-03
 -0.10649861D-16 -0.82218192D-16 -0.94737373D-17 -0.13257898D-16  0.10931907D-15
  0.17755261D-16  0.13733332D-03 -0.54928479D-03 -0.54928479D-03 -0.13492089D-16
 -0.81302639D-16  0.60370795D-16  0.16344962D+00  0.30676305D+00  0.52935061D+00
  0.85308215D+00  0.12871528D+01  0.17833411D+01  0.21206294D+01  0.19248391D+01
  0.10075159D-03  0.36462498D-03  0.10441873D+01  0.23310020D+00  0.56508957D-02
 -0.41620952D-03  0.15209332D-03 -0.20405048D-04 -0.15811190D-15 -0.20915417D-15
 -0.23454812D-15 -0.21673454D-15 -0.14697764D-15 -0.46573024D-16 -0.61607900D-16
 -0.69087874D-16 -0.63840753D-16 -0.43293344D-16 -0.27829618D-02 -0.36813678D-02
 -0.41283321D-02 -0.38147915D-02 -0.25869852D-02  0.26181264D-15  0.35788404D-16
  0.97011205D-03 -0.87417523D-17 -0.68642803D-17 -0.22981776D-03 -0.14446583D-17
 -0.22795481D-17  0.45481711D-04 -0.53318771D-19  0.29668331D-17 -0.29475732D-06
 -0.20302684D-02 -0.20302684D-02  0.40605368D-02 -0.12262095D-14  0.66817852D-15
 -0.28748204D-15  0.30442992D-03  0.30442992D-03 -0.60885984D-03  0.38400327D-15
 -0.13899952D-15  0.25912081D-16 -0.36137635D-04 -0.36137635D-04  0.72275270D-04
 -0.21282986D-16  0.45261104D-16  0.25662768D-16  0.49138860D-05  0.49138860D-05
 -0.98277719D-05  0.57287648D-18 -0.13740164D-17 -0.84376880D-17 -0.10763821D-16
  0.34430912D-16  0.50502139D-03 -0.12850152D-16  0.38582886D-16 -0.75753209D-03
  0.45141616D-16 -0.14187562D-15 -0.75753209D-03  0.50784516D-17  0.16542542D-16
  0.29490298D-17 -0.13160727D-03  0.16659372D-16  0.28264479D-17  0.19741091D-03
 -0.66286998D-16 -0.11673537D-16  0.19741091D-03  0.28458513D-16  0.68658582D-04
  0.68658582D-04  0.18309494D-03  0.81191157D-17 -0.17703441D-16  0.82227437D-17
  0.11296205D-16  0.23783007D-16 -0.15057064D-16  0.13733332D-03 -0.54928481D-03
 -0.54928481D-03  0.11282577D-16 -0.18238698D-16 -0.49025578D-16
MO    2     MO 0.0        OCC NO =    2.0000000  ORB. ENERGY =  -24.882903
  0.16345298D+00  0.30676936D+00  0.52936149D+00  0.85309969D+00  0.12871793D+01
  0.17833778D+01  0.21206730D+01  0.19248787D+01  0.64540459D-04  0.23357511D-03
  0.10444294D+01  0.23281662D+00  0.58872623D-02 -0.50557159D-03  0.13427603D-03
 -0.10045044D-04  0.37811509D-15  0.50017961D-15  0.56090770D-15  0.51830760D-15
  0.35148817D-15 -0.21840787D-15 -0.28891510D-15 -0.32399303D-15 -0.29938624D-15
 -0.20302755D-15  0.27418652D-02  0.36270042D-02  0.40673681D-02  0.37584576D-02
  0.25487826D-02 -0.97414894D-16  0.73041497D-16 -0.87408092D-03 -0.21338629D-16
  0.12755383D-16  0.90899944D-04  0.10353746D-16  0.10972870D-16  0.37093869D-05
  0.30644068D-18  0.17025550D-17 -0.22714844D-06 -0.20069281D-02 -0.20069281D-02
  0.40138561D-02 -0.25415486D-14 -0.65527504D-15 -0.14231140D-14  0.24777172D-03
  0.24777172D-03 -0.49554345D-03  0.25346424D-15  0.86060505D-16  0.24416432D-15
  0.38392962D-04  0.38392962D-04 -0.76785923D-04  0.24230954D-16 -0.21968711D-16
 -0.68362517D-16 -0.19693115D-05 -0.19693115D-05  0.39386229D-05 -0.83783795D-18
 -0.44887808D-17  0.83541311D-17 -0.17334835D-15 -0.54852538D-16  0.55548571D-03
 -0.16960024D-15 -0.53666644D-16 -0.83322857D-03  0.68964528D-15  0.21822426D-15
 -0.83322857D-03  0.37745015D-16  0.19770385D-16  0.10675684D-16 -0.20183687D-03
  0.19616000D-16  0.10569244D-16  0.30275531D-03 -0.78927154D-16 -0.42596296D-16
  0.30275531D-03 -0.51585415D-16 -0.12272826D-03 -0.12272826D-03 -0.32726995D-03
  0.93673899D-17  0.79480717D-16  0.10198325D-16  0.12866994D-16 -0.10624926D-15
 -0.17304245D-16 -0.24544031D-03  0.98180986D-03  0.98180986D-03  0.13311753D-16
  0.80305621D-16 -0.58697144D-16 -0.16345299D+00 -0.30676936D+00 -0.52936150D+00
 -0.85309971D+00 -0.12871793D+01 -0.17833778D+01 -0.21206730D+01 -0.19248787D+01
 -0.64540461D-04 -0.23357511D-03 -0.10444295D+01 -0.23281663D+00 -0.58872624D-02
  0.50557160D-03 -0.13427603D-03  0.10045044D-04  0.15804867D-15  0.20907053D-15
  0.23445432D-15  0.21664787D-15  0.14691886D-15  0.43459180D-16  0.57488833D-16
  0.64468700D-16  0.59572399D-16  0.40398778D-16  0.27418652D-02  0.36270043D-02
  0.40673682D-02  0.37584577D-02  0.25487826D-02 -0.25818993D-15 -0.38513195D-16
 -0.87408094D-03  0.78099957D-17  0.80857483D-17  0.90899949D-04  0.28332975D-17
  0.18145716D-17  0.37093860D-05 -0.27642608D-19 -0.28743121D-17 -0.22714844D-06
  0.20069281D-02  0.20069281D-02 -0.40138562D-02  0.11982292D-14 -0.65004783D-15
  0.27869169D-15 -0.24777173D-03 -0.24777173D-03  0.49554346D-03 -0.37327996D-15
  0.12721770D-15 -0.26673628D-16 -0.38392961D-04 -0.38392961D-04  0.76785922D-04
  0.20787135D-16 -0.42427754D-16 -0.23345231D-16  0.19693114D-05  0.19693114D-05
 -0.39386227D-05 -0.56655664D-18  0.89827481D-18  0.82461959D-17  0.10584018D-16
 -0.32682533D-16  0.55548570D-03  0.11826917D-16 -0.36289642D-16 -0.83322855D-03
 -0.43578971D-16  0.13433724D-15 -0.83322855D-03 -0.32335492D-17 -0.16659722D-16
 -0.29947425D-17 -0.20183687D-03 -0.16752341D-16 -0.28399521D-17  0.30275531D-03
  0.66731507D-16  0.11824180D-16  0.30275531D-03 -0.27438741D-16  0.12272826D-03
  0.12272826D-03  0.32726995D-03 -0.85847004D-17  0.28158560D-16 -0.82800445D-17
 -0.81132137D-17 -0.37412289D-16  0.10720142D-16  0.24544031D-03 -0.98180985D-03
 -0.98180985D-03 -0.78207845D-17  0.27761187D-16  0.50594235D-16
MO    3     MO 0.0        OCC NO =    2.0000000  ORB. ENERGY =   -1.404586
  0.36364863D-01  0.68249752D-01  0.11777184D+00  0.18979680D+00  0.28637041D+00
  0.39676418D+00  0.47180529D+00  0.42824516D+00  0.38706840D-01  0.14008196D+00
  0.45878367D+00  0.84037203D-01 -0.23576561D+00 -0.18625093D+00 -0.33576223D-01
  0.20990081D-03 -0.15674268D-15 -0.20734293D-15 -0.23251697D-15 -0.21485765D-15
 -0.14570483D-15  0.16600891D-15  0.21960052D-15  0.24626278D-15  0.22755949D-15
  0.15431854D-15 -0.18346417D+00 -0.24269075D+00 -0.27215646D+00 -0.25148659D+00
 -0.17054460D+00 -0.19579010D-15  0.50346565D-16 -0.84620620D-01  0.33359337D-17
 -0.69739044D-16 -0.18125142D-01 -0.20743696D-17  0.73513085D-17  0.50969416D-03
  0.10728710D-17 -0.26425469D-17  0.22532723D-04  0.94485708D-02  0.94485708D-02
 -0.18897142D-01  0.13989899D-15  0.76165915D-16  0.26140014D-15  0.19373771D-01
  0.19373771D-01 -0.38747542D-01  0.53578776D-16 -0.60964943D-16 -0.95806207D-16
  0.36931660D-02  0.36931660D-02 -0.73863320D-02  0.17770934D-16 -0.13884615D-16
  0.49280415D-17 -0.12333325D-03 -0.12333325D-03  0.24666649D-03 -0.10410392D-17
  0.28936614D-17 -0.77093492D-17  0.29334136D-16 -0.74245461D-17 -0.76682928D-02
 -0.11354454D-17  0.10949220D-16  0.11502439D-01 -0.86866964D-16  0.11324419D-16
  0.11502439D-01  0.68114254D-16 -0.19929113D-17  0.50590678D-18 -0.85066783D-02
 -0.25355467D-19  0.34687617D-17  0.12760017D-01  0.60040894D-17 -0.49864820D-17
  0.12760017D-01  0.11865231D-16 -0.35424011D-02 -0.35424011D-02 -0.94463987D-02
 -0.13181406D-17  0.77145499D-18 -0.34347669D-17 -0.12295842D-16 -0.19155994D-17
  0.11328302D-16 -0.70847898D-02  0.28339196D-01  0.28339196D-01  0.29026208D-17
  0.34324332D-17  0.14258722D-16  0.36364863D-01  0.68249752D-01  0.11777184D+00
  0.18979680D+00  0.28637041D+00  0.39676418D+00  0.47180529D+00  0.42824516D+00
  0.38706840D-01  0.14008196D+00  0.45878367D+00  0.84037203D-01 -0.23576561D+00
 -0.18625093D+00 -0.33576223D-01  0.20990081D-03 -0.15753381D-15 -0.20838946D-15
 -0.23369056D-15 -0.21594211D-15 -0.14644026D-15  0.84054734D-16  0.11118959D-15
  0.12468941D-15  0.11521943D-15  0.78135586D-16  0.18346417D+00  0.24269075D+00
  0.27215646D+00  0.25148659D+00  0.17054460D+00 -0.10863776D-15  0.24722067D-16
  0.84620620D-01  0.12203115D-16  0.63864173D-17  0.18125142D-01 -0.22620457D-16
  0.12118241D-16 -0.50969416D-03  0.15303011D-17  0.15058375D-17 -0.22532723D-04
  0.94485708D-02  0.94485708D-02 -0.18897142D-01  0.18760088D-15 -0.10785102D-15
 -0.82856648D-16  0.19373771D-01  0.19373771D-01 -0.38747542D-01  0.78297307D-17
  0.27137774D-16 -0.42875475D-16  0.36931660D-02  0.36931660D-02 -0.73863320D-02
  0.35371878D-17  0.32276721D-16 -0.47998472D-16 -0.12333325D-03 -0.12333325D-03
  0.24666649D-03  0.11244713D-17 -0.25042187D-17 -0.33582340D-18  0.14244027D-16
 -0.39095213D-17  0.76682928D-02  0.33475761D-16 -0.72549732D-17 -0.11502439D-01
 -0.76207842D-16  0.18983537D-16 -0.11502439D-01 -0.69722524D-17  0.13626425D-17
 -0.38885272D-17  0.85066783D-02  0.25159717D-17 -0.69777709D-19 -0.12760017D-01
 -0.66038991D-17  0.11735359D-16 -0.12760017D-01 -0.31831722D-16 -0.35424011D-02
 -0.35424011D-02 -0.94463987D-02 -0.75278225D-17 -0.97486310D-17 -0.36473014D-17
 -0.28947312D-17  0.17484104D-16  0.70611282D-17 -0.70847898D-02  0.28339196D-01
  0.28339196D-01 -0.12499191D-16 -0.23206418D-16  0.33525372D-16
MO    4     MO 0.0        OCC NO =    2.0000000  ORB. ENERGY =   -1.135323
 -0.39966444D-01 -0.75009218D-01 -0.12943598D+00 -0.20859431D+00 -0.31473258D+00
 -0.43605977D+00 -0.51853296D+00 -0.47065863D+00 -0.43153991D-01 -0.15617642D+00
 -0.50779163D+00 -0.94562529D-01  0.27237000D+00  0.21008624D+00  0.49300678D-01
  0.28424145D-02 -0.12390499D-15 -0.16390446D-15 -0.18380452D-15 -0.16984484D-15
 -0.11517958D-15  0.20828149D-15  0.27551969D-15  0.30897124D-15  0.28550534D-15
  0.19361427D-15 -0.11772774D+00 -0.15573304D+00 -0.17464099D+00 -0.16137727D+00
 -0.10943733D+00 -0.13664432D-15  0.63961114D-16 -0.43150532D-01  0.38692266D-16
  0.14694652D-16 -0.11662312D-01 -0.15318849D-16  0.65356875D-17  0.13023686D-02
  0.23788344D-17 -0.29978833D-19  0.41508139D-04  0.67586766D-02  0.67586766D-02
 -0.13517353D-01 -0.30384069D-16 -0.17067270D-16  0.21633503D-15  0.27079076D-03
  0.27079076D-03 -0.54158152D-03 -0.32175317D-16  0.83331439D-16 -0.10091322D-15
  0.10269291D-02  0.10269291D-02 -0.20538582D-02  0.85348317D-17 -0.10387229D-16
 -0.47271569D-17 -0.69670644D-04 -0.69670644D-04  0.13934129D-03 -0.94750355D-18
  0.28114080D-17  0.39056700D-19  0.49400608D-17  0.24082846D-17 -0.10801378D-01
  0.31568111D-16 -0.54282264D-17  0.16202067D-01 -0.46388293D-16 -0.17966275D-17
  0.16202067D-01  0.22210375D-16  0.62101584D-19  0.17925396D-17 -0.20261902D-02
 -0.47235182D-18  0.37186273D-18  0.30392853D-02  0.28604707D-18 -0.57494815D-17
  0.30392853D-02  0.79735871D-17 -0.79041711D-03 -0.79041711D-03 -0.21077821D-02
 -0.13330968D-17  0.10256154D-16  0.10007638D-17 -0.68386694D-17 -0.10808308D-16
  0.14555977D-16 -0.15808435D-02  0.63233462D-02  0.63233462D-02 -0.23151924D-16
  0.16564631D-17  0.99699907D-18  0.39966444D-01  0.75009218D-01  0.12943598D+00
  0.20859431D+00  0.31473258D+00  0.43605977D+00  0.51853296D+00  0.47065863D+00
  0.43153991D-01  0.15617642D+00  0.50779163D+00  0.94562529D-01 -0.27237000D+00
 -0.21008624D+00 -0.49300678D-01 -0.28424145D-02 -0.95853625D-16 -0.12679745D-15
 -0.14219225D-15 -0.13139296D-15 -0.89103597D-16  0.22783847D-16  0.30139012D-16
  0.33798267D-16  0.31231339D-16  0.21179405D-16 -0.11772774D+00 -0.15573304D+00
 -0.17464099D+00 -0.16137727D+00 -0.10943733D+00 -0.36473032D-16  0.53352718D-17
 -0.43150532D-01  0.75288377D-17  0.11337893D-17 -0.11662312D-01 -0.10395070D-16
 -0.79066199D-17  0.13023686D-02 -0.85258722D-18  0.21087899D-17  0.41508139D-04
 -0.67586766D-02 -0.67586766D-02  0.13517353D-01  0.70940031D-16 -0.50193365D-16
 -0.13379403D-15 -0.27079076D-03 -0.27079076D-03  0.54158152D-03  0.10540943D-15
  0.41853680D-16 -0.74070013D-16 -0.10269291D-02 -0.10269291D-02  0.20538582D-02
  0.21284300D-17  0.40331292D-16 -0.26149732D-16  0.69670644D-04  0.69670644D-04
 -0.13934129D-03  0.98535128D-19 -0.20669354D-17  0.11532750D-17  0.59186477D-17
  0.14241223D-16 -0.10801378D-01  0.24333504D-16  0.11058150D-16  0.16202067D-01
 -0.42089447D-16 -0.53781817D-16  0.16202067D-01  0.38042600D-16  0.10638866D-17
 -0.20216729D-17 -0.20261902D-02  0.31892999D-17  0.23153667D-17  0.30392853D-02
 -0.63809595D-17  0.37496518D-17  0.30392853D-02  0.13895971D-17  0.79041711D-03
  0.79041711D-03  0.21077821D-02 -0.31379122D-17  0.86055681D-17 -0.86055188D-18
  0.13129836D-17 -0.10520548D-16  0.92051382D-18  0.15808435D-02 -0.63233462D-02
 -0.63233462D-02 -0.67004924D-17  0.57449403D-17  0.11995392D-16
MO    5     MO 0.0        OCC NO =    2.0000000  ORB. ENERGY =   -0.630762
  0.10124327D-01  0.19001386D-01  0.32788810D-01  0.52841251D-01  0.79728271D-01
  0.11046296D+00  0.13135512D+00  0.11922756D+00  0.11196480D-01  0.40520613D-01
  0.13070732D+00  0.24846827D-01 -0.76669804D-01 -0.53183076D-01 -0.22346072D-01
 -0.26006080D-02 -0.68987465D-16 -0.91258254D-16 -0.10233815D-15 -0.94565723D-16
 -0.64129357D-16 -0.11532345D-14 -0.15255259D-14 -0.17107440D-14 -0.15808155D-14
 -0.10720236D-14  0.91276844D+00  0.12074317D+01  0.13540291D+01  0.12511926D+01
  0.84849114D+00 -0.68557394D-16 -0.52661729D-15  0.37640147D+00  0.17937269D-16
 -0.95984752D-16  0.10072325D+00  0.70459359D-17 -0.28927305D-16  0.81375776D-02
 -0.48095135D-17 -0.22768175D-17  0.17156988D-04 -0.19495077D-01 -0.19495077D-01
  0.38990155D-01  0.30720116D-15  0.11402024D-15  0.34763512D-16 -0.19812249D-01
 -0.19812249D-01  0.39624498D-01  0.10791016D-15 -0.16984482D-16  0.10589278D-15
 -0.48231466D-02 -0.48231466D-02  0.96462933D-02  0.73513995D-17 -0.93275059D-17
 -0.13491285D-16  0.72581159D-04  0.72581159D-04 -0.14516232D-03 -0.58714142D-18
  0.94514483D-18 -0.20142583D-17  0.25258060D-16  0.19681202D-16  0.28531209D-01
  0.19886136D-16  0.21744737D-16 -0.42796813D-01 -0.95660316D-16 -0.80788343D-16
 -0.42796813D-01 -0.18092889D-15 -0.45820673D-17  0.12165210D-16  0.13303859D-01
 -0.48386138D-17  0.11340193D-16 -0.19955789D-01  0.18584816D-16 -0.47835822D-16
 -0.19955789D-01 -0.34924131D-16  0.39307961D-02  0.39307961D-02  0.10482122D-01
  0.38270294D-17 -0.15406489D-16  0.33686639D-17  0.47917707D-16  0.16808579D-16
 -0.61923556D-16  0.78615905D-02 -0.31446367D-01 -0.31446367D-01  0.42017547D-16
 -0.42062707D-17 -0.21587080D-16  0.10124327D-01  0.19001386D-01  0.32788810D-01
  0.52841251D-01  0.79728271D-01  0.11046296D+00  0.13135512D+00  0.11922756D+00
  0.11196480D-01  0.40520613D-01  0.13070732D+00  0.24846827D-01 -0.76669804D-01
 -0.53183076D-01 -0.22346072D-01 -0.26006080D-02 -0.57153191D-15 -0.75603595D-15
 -0.84782822D-15 -0.78343693D-15 -0.53128454D-15 -0.82685839D-15 -0.10937879D-14
 -0.12265875D-14 -0.11334300D-14 -0.76863089D-15 -0.91276844D+00 -0.12074317D+01
 -0.13540291D+01 -0.12511926D+01 -0.84849114D+00 -0.19346273D-15 -0.31668459D-15
 -0.37640147D+00 -0.54476382D-16 -0.10476451D-15 -0.10072325D+00 -0.60838992D-17
 -0.10831612D-16 -0.81375776D-02 -0.29662835D-18  0.40009741D-18 -0.17156988D-04
 -0.19495077D-01 -0.19495077D-01  0.38990155D-01  0.16278296D-16 -0.14327513D-16
 -0.27254048D-16 -0.19812249D-01 -0.19812249D-01  0.39624498D-01  0.12400730D-15
  0.54744455D-16  0.51701691D-16 -0.48231466D-02 -0.48231466D-02  0.96462933D-02
 -0.11985759D-16  0.32829877D-18  0.13909434D-16  0.72581159D-04  0.72581159D-04
 -0.14516232D-03  0.85858678D-18  0.40012506D-17 -0.46954630D-17 -0.98678089D-17
  0.39991805D-16 -0.28531209D-01 -0.33455862D-17  0.32645219D-16  0.42796813D-01
  0.32949013D-16 -0.15262064D-15  0.42796813D-01  0.17484761D-15  0.94000082D-18
  0.15916449D-16 -0.13303859D-01  0.23621294D-17  0.17425964D-16  0.19955789D-01
 -0.51821318D-17 -0.65175309D-16  0.19955789D-01  0.42736190D-16  0.39307961D-02
  0.39307961D-02  0.10482122D-01  0.59987159D-17 -0.60192554D-17  0.27321659D-17
 -0.47085067D-16 -0.20664749D-18  0.59534886D-16  0.78615905D-02 -0.31446367D-01
 -0.31446367D-01 -0.37349456D-16  0.18677709D-16 -0.26192645D-16
MO    6     MO 0.0        OCC NO =    2.0000000  ORB. ENERGY =   -0.571913
  0.95961935D-17  0.18010183D-16  0.31078389D-16  0.50084798D-16  0.75569262D-16
  0.10470068D-15  0.12450301D-15  0.11300808D-15  0.14319298D-16  0.51822246D-16
  0.11095114D-15  0.47005094D-16 -0.12148255D-15 -0.15301774D-16 -0.28742068D-17
 -0.12418401D-16  0.68401352D+00  0.90482930D+00  0.10146870D+01  0.93762300D+00
  0.63584518D+00  0.63464842D+00  0.83952796D+00  0.94145721D+00  0.86995495D+00
  0.58995637D+00  0.87877559D-15  0.11624652D-14  0.13036031D-14  0.12045964D-14
  0.81689208D-15  0.27416537D+00  0.25437891D+00  0.33988249D-15  0.78291513D-01
  0.72641231D-01  0.12366066D-15  0.83200039D-02  0.77195510D-02  0.17567042D-16
  0.79052452D-04  0.73347254D-04  0.21847587D-17 -0.18424776D-16 -0.28818062D-16
  0.47242837D-16 -0.55563121D-16  0.42160546D-01  0.39117828D-01 -0.60537540D-16
  0.62292292D-16 -0.17547519D-17 -0.44428714D-15  0.36392883D-01  0.33766417D-01
  0.94499829D-17 -0.50899307D-16  0.41449324D-16  0.79843135D-17  0.12392298D-01
  0.11497949D-01 -0.16279928D-17  0.13892825D-17  0.23871026D-18 -0.12016095D-16
  0.11612659D-03  0.10774576D-03 -0.92298156D-02 -0.85637018D-02  0.59337034D-16
 -0.92297679D-02 -0.85636576D-02 -0.63218602D-16  0.36919215D-01  0.34254763D-01
 -0.11479250D-15  0.13806256D-15 -0.54732868D-02 -0.50782809D-02  0.23706515D-16
 -0.54732957D-02 -0.50782891D-02 -0.59004759D-16  0.21893156D-01  0.20313132D-01
 -0.12114786D-16 -0.16888094D-15  0.46156335D-16  0.33475859D-16  0.72435991D-16
  0.59528413D-15 -0.16589862D-01 -0.77634494D-15 -0.15392575D-01  0.22119819D-01
  0.20523437D-01 -0.21588607D-16 -0.25534940D-15 -0.17926654D-15 -0.15392585D-01
 -0.16589873D-01  0.54318242D-15  0.10983531D-16  0.20613944D-16  0.35571442D-16
  0.57325639D-16  0.86494433D-16  0.11983743D-15  0.14250261D-15  0.12934584D-15
  0.16411981D-16  0.59395770D-16  0.12453135D-15  0.68151950D-16 -0.10309671D-15
 -0.49152915D-16 -0.69198842D-16  0.73106274D-17  0.68401352D+00  0.90482930D+00
  0.10146870D+01  0.93762300D+00  0.63584518D+00  0.63464842D+00  0.83952796D+00
  0.94145721D+00  0.86995495D+00  0.58995637D+00 -0.70856233D-15 -0.93730304D-15
 -0.10511034D-14 -0.97127368D-15 -0.65866526D-15  0.27416537D+00  0.25437891D+00
 -0.32689033D-15  0.78291513D-01  0.72641231D-01 -0.23479254D-16  0.83200039D-02
  0.77195510D-02 -0.98710985D-17  0.79052452D-04  0.73347254D-04 -0.41312068D-17
 -0.25311435D-16 -0.14359221D-15  0.16890364D-15  0.28652953D-15 -0.42160546D-01
 -0.39117828D-01 -0.15807039D-15  0.82409461D-16  0.75660928D-16  0.10145636D-15
 -0.36392883D-01 -0.33766417D-01 -0.39437550D-16  0.42889192D-16 -0.34516428D-17
 -0.40300778D-16 -0.12392298D-01 -0.11497949D-01 -0.68287876D-18  0.44223715D-17
 -0.37394927D-17 -0.68266749D-17 -0.11612659D-03 -0.10774576D-03 -0.92298156D-02
 -0.85637018D-02  0.49123828D-17 -0.92297679D-02 -0.85636576D-02 -0.22861330D-16
  0.36919215D-01  0.34254763D-01  0.81241819D-17 -0.18997877D-15 -0.54732868D-02
 -0.50782809D-02 -0.63694867D-17 -0.54732957D-02 -0.50782891D-02 -0.66511200D-16
  0.21893156D-01  0.20313132D-01  0.85619660D-16 -0.15242910D-15 -0.22576739D-16
 -0.38278572D-16  0.22065931D-16  0.15442728D-15  0.16589862D-01 -0.10317324D-15
  0.15392575D-01 -0.22119819D-01 -0.20523437D-01  0.24876373D-15 -0.11330329D-15
 -0.19092295D-16  0.15392585D-01  0.16589873D-01 -0.15376212D-15
MO    7     MO 0.0        OCC NO =    2.0000000  ORB. ENERGY =   -0.571913
  0.49499031D-17  0.92900023D-17  0.16030837D-16  0.25834712D-16  0.38980094D-16
  0.54006646D-16  0.64221072D-16  0.58291765D-16  0.62914488D-17  0.22769063D-16
  0.54684788D-16  0.17513713D-16 -0.42698519D-16 -0.65001807D-16  0.10923953D-15
  0.19658507D-15 -0.63464842D+00 -0.83952796D+00 -0.94145721D+00 -0.86995495D+00
 -0.58995637D+00  0.68401352D+00  0.90482930D+00  0.10146870D+01  0.93762300D+00
  0.63584518D+00  0.46407360D-15  0.61388756D-15  0.68842122D-15  0.63613666D-15
  0.43139346D-15 -0.25437891D+00  0.27416537D+00  0.22244105D-15 -0.72641231D-01
  0.78291513D-01  0.77474206D-16 -0.77195510D-02  0.83200039D-02  0.11729911D-15
 -0.73347254D-04  0.79052452D-04  0.10620542D-16 -0.19072148D-15  0.13806871D-15
  0.52652768D-16 -0.18817762D-15 -0.39117828D-01  0.42160546D-01  0.13045390D-16
  0.18070386D-17 -0.14852429D-16  0.19470708D-15 -0.33766417D-01  0.36392883D-01
 -0.15652974D-16 -0.13382136D-17  0.16991187D-16 -0.40928041D-16 -0.11497949D-01
  0.12392298D-01 -0.87502873D-17 -0.99670652D-17  0.18717353D-16 -0.49539664D-18
 -0.10774576D-03  0.11612659D-03  0.85637018D-02 -0.92298156D-02  0.96534147D-16
  0.85636576D-02 -0.92297679D-02  0.21214321D-16 -0.34254763D-01  0.36919215D-01
 -0.31081676D-15  0.31360163D-15  0.50782809D-02 -0.54732868D-02  0.14535221D-16
  0.50782891D-02 -0.54732957D-02 -0.34686756D-16 -0.20313132D-01  0.21893156D-01
 -0.89189077D-17  0.26678218D-16  0.58620008D-16  0.39213027D-16  0.28723878D-16
 -0.37615709D-15  0.15392575D-01  0.47535614D-15 -0.16589862D-01 -0.20523437D-01
  0.22119819D-01 -0.20732747D-15 -0.14439258D-15 -0.27950691D-16 -0.16589873D-01
  0.15392585D-01 -0.29759715D-15 -0.36278332D-18 -0.68087351D-18 -0.11749160D-17
 -0.18934518D-17 -0.28568899D-17 -0.39582008D-17 -0.47068262D-17 -0.42722614D-17
  0.12705355D-17  0.45981308D-17 -0.30689463D-16  0.13289694D-16 -0.10461420D-16
  0.56220948D-16 -0.14514070D-15 -0.20021020D-15 -0.63464842D+00 -0.83952796D+00
 -0.94145721D+00 -0.86995495D+00 -0.58995637D+00  0.68401352D+00  0.90482930D+00
  0.10146870D+01  0.93762300D+00  0.63584518D+00 -0.53731848D-15 -0.71077762D-15
 -0.79707496D-15 -0.73653831D-15 -0.49948043D-15 -0.25437891D+00  0.27416537D+00
 -0.25356733D-15 -0.72641231D-01  0.78291513D-01 -0.15223213D-16 -0.77195510D-02
  0.83200039D-02  0.98431161D-16 -0.73347254D-04  0.79052452D-04  0.80077485D-17
  0.12869645D-15 -0.13515267D-15  0.64562179D-17 -0.28385504D-15  0.39117828D-01
 -0.42160546D-01  0.28832732D-16 -0.48252075D-16  0.19419343D-16 -0.59379482D-16
  0.33766417D-01 -0.36392883D-01  0.29083205D-16  0.36047916D-17 -0.32687996D-16
 -0.10958151D-16  0.11497949D-01 -0.12392298D-01  0.50888971D-17  0.44411369D-17
 -0.95300340D-17 -0.86747332D-18  0.10774576D-03 -0.11612659D-03  0.85637018D-02
 -0.92298156D-02  0.35916775D-16  0.85636576D-02 -0.92297679D-02 -0.23720286D-16
 -0.34254763D-01  0.36919215D-01 -0.84030037D-16 -0.42911070D-15  0.50782809D-02
 -0.54732868D-02  0.33135755D-17  0.50782891D-02 -0.54732957D-02 -0.19595001D-16
 -0.20313132D-01  0.21893156D-01  0.96542747D-17  0.77371150D-16  0.35527349D-16
  0.33431949D-16  0.10285667D-16 -0.62837106D-16 -0.15392575D-01  0.85860825D-16
  0.16589862D-01  0.20523437D-01 -0.22119819D-01 -0.17602089D-15 -0.37143198D-16
 -0.24570802D-16  0.16589873D-01 -0.15392585D-01 -0.69071158D-16
MO    8     MO 0.0        OCC NO =    2.0000000  ORB. ENERGY =   -0.428073
 -0.12726261D-17 -0.23884709D-17 -0.41215477D-17 -0.66421360D-17 -0.10021830D-16
 -0.13885174D-16 -0.16511316D-16 -0.14986884D-16  0.17017703D-17  0.61587908D-17
 -0.30567985D-16  0.15499858D-16 -0.19143868D-16 -0.19716089D-16  0.21860462D-15
  0.20409886D-15  0.42884552D+00  0.56728701D+00  0.63616279D+00  0.58784717D+00
  0.39864615D+00  0.94435701D+00  0.12492178D+01  0.14008886D+01  0.12944932D+01
  0.87785523D+00  0.14185542D-15  0.18764971D-15  0.21043275D-15  0.19445070D-15
  0.13186594D-15  0.17175710D+00  0.37822484D+00  0.30071875D-16  0.49667190D-01
  0.10937169D+00  0.67736218D-16  0.70441819D-02  0.15511932D-01  0.10794367D-15
  0.14307547D-03  0.31506526D-03  0.63218256D-17  0.54330853D-16 -0.57484141D-16
  0.31532888D-17 -0.15747821D-15  0.31550006D-02  0.69475996D-02 -0.62426619D-16
  0.86224679D-16 -0.23798061D-16  0.45564172D-17 -0.84805268D-03 -0.18674895D-02