 Molden2AIM, Version 4.0.0 (06/02/2016)           Time: Sun Jun 24 19:31:42 2018
GAUSSIAN             22 MOL ORBITALS    291 PRIMITIVES        2 NUCLEI
  F    1    (CENTRE  1)   0.00000000  0.00000000 -2.64110391  CHARGE =  9.0
  Br   2    (CENTRE  2)   0.00000000  0.00000000  0.67138946  CHARGE = 35.0
CENTRE ASSIGNMENTS    1  1  1  1  1  1  1  1  1  1  1  1  1  1  1  1  1  1  1  1
CENTRE ASSIGNMENTS    1  1  1  1  1  1  1  1  1  1  1  1  1  1  1  1  1  1  1  1
CENTRE ASSIGNMENTS    1  1  1  1  1  1  1  1  1  1  1  1  1  1  1  1  1  1  1  1
CENTRE ASSIGNMENTS    1  1  1  1  1  1  1  1  1  1  1  1  1  1  1  1  1  1  1  1
CENTRE ASSIGNMENTS    1  1  1  1  1  1  1  1  1  1  1  1  1  1  1  1  1  1  1  1
CENTRE ASSIGNMENTS    1  1  2  2  2  2  2  2  2  2  2  2  2  2  2  2  2  2  2  2
CENTRE ASSIGNMENTS    2  2  2  2  2  2  2  2  2  2  2  2  2  2  2  2  2  2  2  2
CENTRE ASSIGNMENTS    2  2  2  2  2  2  2  2  2  2  2  2  2  2  2  2  2  2  2  2
CENTRE ASSIGNMENTS    2  2  2  2  2  2  2  2  2  2  2  2  2  2  2  2  2  2  2  2
CENTRE ASSIGNMENTS    2  2  2  2  2  2  2  2  2  2  2  2  2  2  2  2  2  2  2  2
CENTRE ASSIGNMENTS    2  2  2  2  2  2  2  2  2  2  2  2  2  2  2  2  2  2  2  2
CENTRE ASSIGNMENTS    2  2  2  2  2  2  2  2  2  2  2  2  2  2  2  2  2  2  2  2
CENTRE ASSIGNMENTS    2  2  2  2  2  2  2  2  2  2  2  2  2  2  2  2  2  2  2  2
CENTRE ASSIGNMENTS    2  2  2  2  2  2  2  2  2  2  2  2  2  2  2  2  2  2  2  2
CENTRE ASSIGNMENTS    2  2  2  2  2  2  2  2  2  2  2
TYPE ASSIGNMENTS      1  1  1  1  1  1  1  1  1  1  1  1  1  1  1  1  2  2  2  2
TYPE ASSIGNMENTS      2  3  3  3  3  3  4  4  4  4  4  2  3  4  2  3  4  2  3  4
TYPE ASSIGNMENTS      2  3  4  5  6  7  8  9 10  5  6  7  8  9 10  5  6  7  8  9
TYPE ASSIGNMENTS     10  5  6  7  8  9 10 11 12 13 17 14 15 18 19 16 20 11 12 13
TYPE ASSIGNMENTS     17 14 15 18 19 16 20 21 22 23 24 25 26 27 28 29 30 31 32 33
TYPE ASSIGNMENTS     34 35  1  1  1  1  1  1  1  1  1  1  1  1  1  1  1  1  1  1
TYPE ASSIGNMENTS      1  1  1  1  1  1  1  2  2  2  2  2  2  2  2  2  2  3  3  3
TYPE ASSIGNMENTS      3  3  3  3  3  3  3  4  4  4  4  4  4  4  4  4  4  2  2  2
TYPE ASSIGNMENTS      2  2  3  3  3  3  3  4  4  4  4  4  2  3  4  2  3  4  2  3
TYPE ASSIGNMENTS      4  2  3  4  2  3  4  2  3  4  5  5  5  5  5  5  5  6  6  6
TYPE ASSIGNMENTS      6  6  6  6  7  7  7  7  7  7  7  8  8  8  8  8  8  8  9  9
TYPE ASSIGNMENTS      9  9  9  9  9 10 10 10 10 10 10 10  5  6  7  8  9 10  5  6
TYPE ASSIGNMENTS      7  8  9 10  5  6  7  8  9 10  5  6  7  8  9 10 11 12 13 17
TYPE ASSIGNMENTS     14 15 18 19 16 20 11 12 13 17 14 15 18 19 16 20 21 22 23 24
TYPE ASSIGNMENTS     25 26 27 28 29 30 31 32 33 34 35
EXPONENTS  0.1325360D+06 0.1975811D+05 0.4485200D+04 0.1273815D+04 0.4189383D+03
EXPONENTS  0.1525572D+03 0.5982152D+02 0.2481908D+02 0.1007445D+03 0.3010373D+02
EXPONENTS  0.1081428D+02 0.4817289D+01 0.1655933D+01 0.6489352D+00 0.2477810D+00
EXPONENTS  0.8762624D-01 0.2409665D+03 0.5702070D+02 0.1812695D+02 0.6645740D+01
EXPONENTS  0.2637572D+01 0.2409665D+03 0.5702070D+02 0.1812695D+02 0.6645740D+01
EXPONENTS  0.2637572D+01 0.2409665D+03 0.5702070D+02 0.1812695D+02 0.6645740D+01
EXPONENTS  0.2637572D+01 0.1063822D+01 0.1063822D+01 0.1063822D+01 0.4193256D+00
EXPONENTS  0.4193256D+00 0.4193256D+00 0.1574759D+00 0.1574759D+00 0.1574759D+00
EXPONENTS  0.4677240D-01 0.4677240D-01 0.4677240D-01 0.5014000D+01 0.5014000D+01
EXPONENTS  0.5014000D+01 0.5014000D+01 0.5014000D+01 0.5014000D+01 0.1725000D+01
EXPONENTS  0.1725000D+01 0.1725000D+01 0.1725000D+01 0.1725000D+01 0.1725000D+01
EXPONENTS  0.5860000D+00 0.5860000D+00 0.5860000D+00 0.5860000D+00 0.5860000D+00
EXPONENTS  0.5860000D+00 0.1596799D+00 0.1596799D+00 0.1596799D+00 0.1596799D+00
EXPONENTS  0.1596799D+00 0.1596799D+00 0.3562000D+01 0.3562000D+01 0.3562000D+01
EXPONENTS  0.3562000D+01 0.3562000D+01 0.3562000D+01 0.3562000D+01 0.3562000D+01
EXPONENTS  0.3562000D+01 0.3562000D+01 0.1148000D+01 0.1148000D+01 0.1148000D+01
EXPONENTS  0.1148000D+01 0.1148000D+01 0.1148000D+01 0.1148000D+01 0.1148000D+01
EXPONENTS  0.1148000D+01 0.1148000D+01 0.2376000D+01 0.2376000D+01 0.2376000D+01
EXPONENTS  0.2376000D+01 0.2376000D+01 0.2376000D+01 0.2376000D+01 0.2376000D+01
EXPONENTS  0.2376000D+01 0.2376000D+01 0.2376000D+01 0.2376000D+01 0.2376000D+01
EXPONENTS  0.2376000D+01 0.2376000D+01 0.1062904D+08 0.1591918D+07 0.3623340D+06
EXPONENTS  0.1026431D+06 0.3348985D+05 0.1209125D+05 0.4716191D+04 0.1956160D+04
EXPONENTS  0.8530860D+03 0.3879663D+03 0.1828516D+03 0.3240409D+04 0.1000463D+04
EXPONENTS  0.3833730D+03 0.1660393D+03 0.8791991D+02 0.3567584D+02 0.1754366D+02
EXPONENTS  0.8447366D+01 0.3966618D+01 0.1835682D+01 0.5908478D+00 0.2886322D+00
EXPONENTS  0.1215338D+00 0.4797394D-01 0.2656648D+05 0.6290509D+04 0.2043318D+04
EXPONENTS  0.7816722D+03 0.3315108D+03 0.1510920D+03 0.7239528D+02 0.3586951D+02
EXPONENTS  0.1813991D+02 0.9046669D+01 0.2656648D+05 0.6290509D+04 0.2043318D+04
EXPONENTS  0.7816722D+03 0.3315108D+03 0.1510920D+03 0.7239528D+02 0.3586951D+02
EXPONENTS  0.1813991D+02 0.9046669D+01 0.2656648D+05 0.6290509D+04 0.2043318D+04
EXPONENTS  0.7816722D+03 0.3315108D+03 0.1510920D+03 0.7239528D+02 0.3586951D+02
EXPONENTS  0.1813991D+02 0.9046669D+01 0.2537182D+03 0.9725082D+02 0.4203490D+02
EXPONENTS  0.9968567D+01 0.4939585D+01 0.2537182D+03 0.9725082D+02 0.4203490D+02
EXPONENTS  0.9968567D+01 0.4939585D+01 0.2537182D+03 0.9725082D+02 0.4203490D+02
EXPONENTS  0.9968567D+01 0.4939585D+01 0.2438285D+01 0.2438285D+01 0.2438285D+01
EXPONENTS  0.1180000D+01 0.1180000D+01 0.1180000D+01 0.5104756D+00 0.5104756D+00
EXPONENTS  0.5104756D+00 0.2121585D+00 0.2121585D+00 0.2121585D+00 0.8394360D-01
EXPONENTS  0.8394360D-01 0.8394360D-01 0.2444463D-01 0.2444463D-01 0.2444463D-01
EXPONENTS  0.6014443D+03 0.1808572D+03 0.6998681D+02 0.3032471D+02 0.1402791D+02
EXPONENTS  0.6651170D+01 0.3135417D+01 0.6014443D+03 0.1808572D+03 0.6998681D+02
EXPONENTS  0.3032471D+02 0.1402791D+02 0.6651170D+01 0.3135417D+01 0.6014443D+03
EXPONENTS  0.1808572D+03 0.6998681D+02 0.3032471D+02 0.1402791D+02 0.6651170D+01
EXPONENTS  0.3135417D+01 0.6014443D+03 0.1808572D+03 0.6998681D+02 0.3032471D+02
EXPONENTS  0.1402791D+02 0.6651170D+01 0.3135417D+01 0.6014443D+03 0.1808572D+03
EXPONENTS  0.6998681D+02 0.3032471D+02 0.1402791D+02 0.6651170D+01 0.3135417D+01
EXPONENTS  0.6014443D+03 0.1808572D+03 0.6998681D+02 0.3032471D+02 0.1402791D+02
EXPONENTS  0.6651170D+01 0.3135417D+01 0.1439359D+01 0.1439359D+01 0.1439359D+01
EXPONENTS  0.1439359D+01 0.1439359D+01 0.1439359D+01 0.5935044D+00 0.5935044D+00
EXPONENTS  0.5935044D+00 0.5935044D+00 0.5935044D+00 0.5935044D+00 0.2300000D+00
EXPONENTS  0.2300000D+00 0.2300000D+00 0.2300000D+00 0.2300000D+00 0.2300000D+00
EXPONENTS  0.7666551D-01 0.7666551D-01 0.7666551D-01 0.7666551D-01 0.7666551D-01
EXPONENTS  0.7666551D-01 0.3407000D+00 0.3407000D+00 0.3407000D+00 0.3407000D+00
EXPONENTS  0.3407000D+00 0.3407000D+00 0.3407000D+00 0.3407000D+00 0.3407000D+00
EXPONENTS  0.3407000D+00 0.8257000D+00 0.8257000D+00 0.8257000D+00 0.8257000D+00
EXPONENTS  0.8257000D+00 0.8257000D+00 0.8257000D+00 0.8257000D+00 0.8257000D+00
EXPONENTS  0.8257000D+00 0.6491000D+00 0.6491000D+00 0.6491000D+00 0.6491000D+00
EXPONENTS  0.6491000D+00 0.6491000D+00 0.6491000D+00 0.6491000D+00 0.6491000D+00
EXPONENTS  0.6491000D+00 0.6491000D+00 0.6491000D+00 0.6491000D+00 0.6491000D+00
EXPONENTS  0.6491000D+00
MO    1     MO 0.0        OCC NO =    2.0000000  ORB. ENERGY = -483.334903
  0.30882057D-07  0.57959596D-07  0.10001513D-06  0.16118074D-06  0.24319375D-06
  0.33694322D-06  0.40067023D-06  0.36367775D-06 -0.36955299D-06 -0.13374305D-05
  0.13648288D-05 -0.12876271D-05  0.88738408D-06 -0.26855792D-05  0.63994762D-05
  0.11809269D-05  0.41241868D-15  0.54555721D-15  0.61179471D-15  0.56532982D-15
  0.38337609D-15  0.20060533D-15  0.26536549D-15  0.29758419D-15  0.27498312D-15
  0.18647867D-15  0.69755921D-06  0.92274785D-06  0.10347810D-05  0.95619097D-06
  0.64843698D-06  0.61501214D-15 -0.10269616D-15 -0.24589647D-05 -0.25547702D-15
  0.13446396D-16  0.54934118D-05  0.53874989D-16 -0.19343521D-17  0.23083175D-05
  0.86181413D-18  0.27285213D-17  0.25359684D-07 -0.17030775D-05 -0.17030775D-05
  0.34061551D-05 -0.54132014D-15 -0.12580461D-15  0.67735543D-15  0.99525305D-06
  0.99525305D-06 -0.19905061D-05  0.64783043D-16  0.90047923D-16  0.13167271D-15
 -0.12559325D-05 -0.12559325D-05  0.25118651D-05 -0.32955937D-17  0.69880848D-16
 -0.72672271D-16 -0.20694917D-06 -0.20694917D-06  0.41389833D-06  0.15216920D-18
  0.94043201D-17  0.77153790D-17  0.19636932D-16  0.36246691D-16  0.21991586D-05
  0.19354453D-16  0.35205539D-16 -0.32987378D-05 -0.78265249D-16 -0.14394561D-15
 -0.32987378D-05 -0.78360875D-17  0.10277689D-16 -0.92598729D-17  0.14599260D-06
  0.10306101D-16 -0.93988492D-17 -0.21898889D-06 -0.41139168D-16  0.37178468D-16
 -0.21898889D-06  0.12593107D-17 -0.81545089D-06 -0.81545089D-06 -0.21745358D-05
  0.70984515D-18 -0.10788185D-15  0.11360615D-17 -0.16158858D-16  0.14378958D-15
  0.21400771D-16 -0.16309020D-05  0.65236073D-05  0.65236073D-05 -0.15725740D-16
 -0.10772321D-15 -0.55377200D-17  0.78783966D+00  0.14745887D+01  0.25544516D+01
  0.41858534D+01  0.65564187D+01  0.98535376D+01  0.14081761D+02  0.18690770D+02
  0.21768569D+02  0.20001411D+02  0.11705674D+02 -0.40636461D-02 -0.17478524D-01
 -0.42906662D-01 -0.54662111D-01  0.31636477D+01  0.12200708D+00 -0.50185566D-02
 -0.33466638D-03  0.34935551D-03 -0.13140650D-03  0.36620917D-04 -0.15962992D-04
 -0.14754148D-05 -0.14638169D-06 -0.15463343D-15 -0.22684892D-15 -0.31965773D-15
 -0.41943103D-15 -0.49889557D-15 -0.51209766D-15 -0.41660384D-15 -0.23744137D-15
 -0.74538338D-16 -0.87827772D-17  0.28953031D-15  0.42474410D-15  0.59851613D-15
  0.78532820D-15  0.93411487D-15  0.95883401D-15  0.78003467D-15  0.44457703D-15
  0.13956302D-15  0.16444569D-16 -0.23924628D-03 -0.35097689D-03 -0.49456914D-03
 -0.64893673D-03 -0.77188295D-03 -0.79230900D-03 -0.64456255D-03 -0.36736534D-03
 -0.11532448D-03 -0.13588567D-04  0.17868585D-16  0.40798831D-16  0.44302836D-16
 -0.55151448D-16 -0.50692386D-16 -0.92319768D-18 -0.21079110D-17 -0.22889488D-17
  0.28494528D-17  0.26190711D-17 -0.18462853D-04 -0.42155708D-04 -0.45776248D-04
  0.56985660D-04  0.52378300D-04  0.10766357D-16  0.46972718D-17 -0.37324504D-04
 -0.36885327D-16 -0.46552751D-17  0.14704177D-04  0.38574906D-16  0.87321301D-17
 -0.74821151D-05 -0.15660637D-16 -0.83842475D-17  0.66617389D-05 -0.63025644D-17
 -0.17952262D-17 -0.27688444D-07 -0.42865018D-18 -0.78434040D-18  0.17375641D-08
 -0.30730738D-04 -0.34190596D-04 -0.32911521D-04 -0.25326007D-04 -0.15034595D-04
 -0.62128260D-05 -0.17263466D-05 -0.30730738D-04 -0.34190596D-04 -0.32911521D-04
 -0.25326007D-04 -0.15034595D-04 -0.62128260D-05 -0.17263466D-05  0.61461476D-04
  0.68381192D-04  0.65823043D-04  0.50652014D-04  0.30069190D-04  0.12425652D-04
  0.34526933D-05  0.21080063D-16  0.23453387D-16  0.22575993D-16  0.17372632D-16
  0.10313134D-16  0.42617512D-17  0.11842050D-17  0.15465121D-14  0.17206280D-14
  0.16562591D-14  0.12745211D-14  0.75660996D-15  0.31265798D-15  0.86877702D-16
 -0.50018598D-15 -0.55650004D-15 -0.53568130D-15 -0.41221638D-15 -0.24470918D-15
 -0.10112248D-15 -0.28098719D-16  0.25970053D-06  0.25970053D-06 -0.51940106D-06
 -0.34304448D-17  0.23100474D-15 -0.51159538D-16 -0.17363376D-06 -0.17363376D-06
  0.34726752D-06  0.80021298D-18 -0.18478754D-15  0.39484275D-16  0.90620163D-06
  0.90620163D-06 -0.18124033D-05  0.11862473D-18  0.44987582D-16 -0.55008391D-17
 -0.13797697D-07 -0.13797697D-07  0.27595393D-07 -0.30756561D-19 -0.11200544D-17
  0.15561825D-17  0.49491855D-17  0.45761600D-18  0.77576200D-06  0.49490573D-17
  0.45791511D-18 -0.11636430D-05 -0.19796614D-16 -0.18307631D-17 -0.11636430D-05
 -0.11933856D-18 -0.30282772D-16 -0.55092708D-17 -0.58684444D-06 -0.30281116D-16
 -0.55111852D-17  0.88026665D-06  0.12112943D-15  0.22038998D-16  0.88026665D-06
  0.58595442D-18 -0.20976667D-06 -0.20976667D-06 -0.55937779D-06 -0.11627186D-18
  0.43547494D-16 -0.11633496D-18  0.26687257D-19 -0.58063987D-16 -0.35045529D-19
 -0.41953335D-06  0.16781334D-05  0.16781334D-05  0.25074817D-19  0.43549478D-16
  0.69782046D-18
MO    2     MO 0.0        OCC NO =    2.0000000  ORB. ENERGY =  -62.719778
 -0.65556472D-07 -0.12303671D-06 -0.21231226D-06 -0.34215470D-06 -0.51625201D-06
 -0.71526353D-06 -0.85054330D-06 -0.77201561D-06  0.86456544D-06  0.31289050D-05
 -0.58984016D-05  0.81119003D-05 -0.60617940D-05 -0.50528047D-04  0.14386878D-03
  0.18064322D-04 -0.52228886D-15 -0.69089608D-15 -0.77477955D-15 -0.71593620D-15
 -0.48550919D-15  0.13508756D-14  0.17869703D-14  0.20039309D-14  0.18517354D-14
  0.12557467D-14  0.19020713D-04  0.25161049D-04  0.28215917D-04  0.26072960D-04
  0.17681271D-04  0.70000297D-15 -0.70591581D-15 -0.74109592D-04 -0.16052691D-15
 -0.92071031D-16  0.14335657D-03  0.26972824D-16  0.83169792D-17  0.42737804D-04
  0.85050478D-18 -0.13929085D-17  0.27401807D-06 -0.47124798D-04 -0.47124798D-04
  0.94249596D-04 -0.21740210D-14 -0.10044339D-14 -0.91764261D-15  0.32725219D-04
  0.32725219D-04 -0.65450438D-04  0.86379751D-15  0.14435160D-15  0.34163867D-15
 -0.35882313D-04 -0.35882313D-04  0.71764627D-04 -0.77394978D-16 -0.73625144D-17
 -0.52804362D-16 -0.39217362D-05 -0.39217362D-05  0.78434724D-05  0.20494154D-17
  0.60144726D-17 -0.25088489D-17 -0.65154993D-16  0.25289728D-16 -0.44464232D-04
 -0.67033129D-16  0.20158219D-16  0.66696347D-04  0.26249811D-15 -0.96027402D-16
  0.66696347D-04  0.10994891D-15  0.25310242D-16  0.93668328D-16  0.27251390D-04
  0.25532371D-16  0.92600387D-16 -0.40877085D-04 -0.10146310D-15 -0.37360537D-15
 -0.40877085D-04 -0.44419894D-16 -0.59655514D-05 -0.59655514D-05 -0.15908124D-04
 -0.18797526D-17 -0.24830398D-16  0.66636019D-18 -0.90075597D-16  0.32717150D-16
  0.11924882D-15 -0.11931064D-04  0.47724372D-04  0.47724372D-04 -0.87519679D-16
 -0.23660256D-16  0.36401773D-17  0.24900411D+00  0.46605758D+00  0.80735837D+00
  0.13229782D+01  0.20722176D+01  0.31143029D+01  0.44506725D+01  0.59073930D+01
  0.68801602D+01  0.63216333D+01  0.36996881D+01  0.26703032D+00  0.11485488D+01
  0.28194827D+01  0.35919568D+01  0.12668163D+01 -0.43024848D+01 -0.34553915D+01
 -0.64977959D+00  0.19881615D-03 -0.34118599D-02  0.79843513D-03 -0.34848426D-03
 -0.24467380D-04 -0.20279048D-05 -0.43465758D-14 -0.63764737D-14 -0.89852274D-14
 -0.11789745D-13 -0.14023406D-13 -0.14394502D-13 -0.11710276D-13 -0.66742158D-14
 -0.20951907D-14 -0.24687421D-15  0.26185183D-14  0.38413948D-14  0.54129927D-14
  0.71025251D-14  0.84481549D-14  0.86717153D-14  0.70546503D-14  0.40207642D-14
  0.12622109D-14  0.14872504D-15  0.39827931D-01  0.58428006D-01  0.82332170D-01
  0.10803013D+00  0.12849730D+00  0.13189767D+00  0.10730195D+00  0.61156233D-01
  0.19198356D-01  0.22621230D-02  0.12762739D-16  0.29140799D-16  0.31643554D-16
 -0.39392238D-16 -0.36207327D-16  0.89008823D-17  0.20323131D-16  0.22068582D-16
 -0.27472604D-16 -0.25251410D-16 -0.30198172D-03 -0.68950627D-03 -0.74872447D-03
  0.93206762D-03  0.85670881D-03  0.21175420D-16  0.17643652D-16 -0.41925604D-03
 -0.37088205D-16 -0.48102207D-16  0.15384342D-03  0.32540414D-16  0.95913900D-18
 -0.11713871D-03 -0.86363144D-17  0.19567487D-16  0.13821010D-03 -0.40024022D-17
 -0.21969347D-17 -0.17299442D-05  0.32766994D-18  0.83169277D-18  0.51063105D-07
  0.51246421D-02  0.57016062D-02  0.54883083D-02  0.42233519D-02  0.25071613D-02
  0.10360477D-02  0.28788468D-03  0.51246421D-02  0.57016062D-02  0.54883083D-02
  0.42233519D-02  0.25071613D-02  0.10360477D-02  0.28788468D-03 -0.10249284D-01
 -0.11403212D-01 -0.10976617D-01 -0.84467038D-02 -0.50143227D-02 -0.20720953D-02
 -0.57576935D-03 -0.15125939D-15 -0.16828911D-15 -0.16199340D-15 -0.12465683D-15
 -0.74001596D-16 -0.30580075D-16 -0.84972297D-17  0.38338287D-14  0.42654650D-14
  0.41058934D-14  0.31595587D-14  0.18756485D-14  0.77508423D-15  0.21537124D-15
 -0.34487001D-15 -0.38369762D-15 -0.36934345D-15 -0.28421642D-15 -0.16872296D-15
 -0.69722288D-16 -0.19373605D-16 -0.13613174D-03 -0.13613174D-03  0.27226349D-03
 -0.31604648D-16  0.24368513D-16 -0.33819432D-16  0.22242104D-04  0.22242104D-04
 -0.44484208D-04  0.36586994D-17 -0.75249317D-16  0.61403235D-16  0.18105697D-04
  0.18105697D-04 -0.36211395D-04  0.87955647D-18 -0.23218134D-17 -0.20957739D-16
 -0.25700140D-06 -0.25700140D-06  0.51400280D-06 -0.16749194D-18  0.21737046D-17
 -0.21636440D-18 -0.80116774D-18 -0.48532648D-17  0.18008760D-04 -0.80156636D-18
 -0.48514337D-17 -0.27013140D-04  0.32050696D-17  0.19411228D-16 -0.27013140D-04
 -0.71866953D-18 -0.12171568D-16  0.15041395D-16 -0.74011477D-05 -0.12154347D-16
  0.15046940D-16  0.11101721D-04  0.48669050D-16 -0.60171126D-16  0.11101721D-04
 -0.12114397D-16 -0.54070364D-05 -0.54070364D-05 -0.14418764D-04 -0.32884455D-17
  0.10416577D-16 -0.32818402D-17  0.34387301D-16 -0.13894086D-16 -0.45842952D-16
 -0.10814074D-04  0.43256292D-04  0.43256292D-04  0.34366951D-16  0.10432527D-16
  0.19710857D-16
MO    3     MO 0.0        OCC NO =    2.0000000  ORB. ENERGY =  -56.497202
  0.48526227D-07  0.91074260D-07  0.15715783D-06  0.25326983D-06  0.38214019D-06
  0.52945254D-06  0.62958936D-06  0.57146158D-06 -0.91351065D-06 -0.33060401D-05
  0.46714400D-05 -0.57741970D-05  0.57458860D-05 -0.11622025D-04  0.21261881D-04
  0.59165068D-05  0.33698295D-15  0.44576903D-15  0.49989100D-15  0.46192502D-15
  0.31325256D-15  0.75927882D-15  0.10043920D-14  0.11263378D-14  0.10407942D-14
  0.70581029D-15  0.29257871D-05  0.38703005D-05  0.43402036D-05  0.40105717D-05
  0.27197527D-05 -0.29038636D-15 -0.41903737D-15 -0.68616330D-05  0.13327161D-15
  0.19679701D-15  0.15017246D-04  0.64891088D-18 -0.43044028D-16  0.97137934D-05
  0.69217328D-17  0.91842897D-17  0.95335396D-07 -0.91731801D-05 -0.91731801D-05
  0.18346360D-04  0.25638845D-16 -0.41013318D-15  0.11733033D-14  0.49881597D-05
  0.49881597D-05 -0.99763194D-05 -0.62750492D-16  0.12665425D-15 -0.97517507D-16
 -0.40916166D-05 -0.40916166D-05  0.81832331D-05 -0.12254058D-16 -0.68177259D-16
  0.31979647D-16 -0.79432265D-06 -0.79432265D-06  0.15886453D-05  0.62596236D-18
  0.17435284D-16  0.72132241D-17  0.84561349D-17 -0.44580892D-16 -0.98957384D-05
  0.11114165D-16 -0.47440536D-16  0.14843608D-04 -0.36482569D-16  0.18118321D-15
  0.14843608D-04 -0.16949907D-16  0.21288168D-16 -0.62819158D-19  0.33495281D-05
  0.20886839D-16 -0.15405199D-17 -0.50242921D-05 -0.84751343D-16  0.17289774D-17
 -0.50242921D-05 -0.49142665D-17 -0.22044716D-06 -0.22044716D-06 -0.58786037D-06
  0.27278253D-17  0.36555923D-16 -0.29902892D-18  0.32982573D-16 -0.47817382D-16
 -0.42403461D-16 -0.44089815D-06  0.17635811D-05  0.17635811D-05  0.28262666D-16
  0.33784376D-16 -0.72863891D-17 -0.33879424D-03 -0.63411655D-03 -0.10984894D-02
 -0.18000402D-02 -0.28194530D-02 -0.42373112D-02 -0.60555717D-02 -0.80375812D-02
 -0.93611253D-02 -0.86011953D-02 -0.50337845D-02 -0.37076043D-03 -0.15947120D-02
 -0.39147338D-02 -0.49872818D-02 -0.17372842D-02  0.61390794D-02  0.47378228D-02
  0.79307724D-03  0.54408840D-05 -0.15469152D-04  0.19230549D-04 -0.90831205D-05
 -0.16202865D-04  0.41360943D-06  0.79324947D-10  0.11637056D-09  0.16398027D-09
  0.21516268D-09  0.25592696D-09  0.26269946D-09  0.21371237D-09  0.12180434D-09
  0.38237201D-10  0.45054509D-11  0.14678899D-09  0.21534104D-09  0.30344173D-09
  0.39815359D-09  0.47358696D-09  0.48611932D-09  0.39546983D-09  0.22539614D-09
  0.70757062D-10  0.83372333D-11  0.29998695D+02  0.44008411D+02  0.62013206D+02
  0.81369101D+02  0.96785124D+02  0.99346314D+02  0.80820630D+02  0.46063332D+02
  0.14460346D+02  0.17038479D+01 -0.33661775D-13 -0.76858974D-13 -0.83460002D-13
  0.10389718D-12  0.95496970D-13 -0.62291632D-13 -0.14222871D-12 -0.15444401D-12
  0.19226333D-12  0.17671861D-12 -0.13159425D-01 -0.30046540D-01 -0.32627085D-01
  0.40616610D-01  0.37332707D-01  0.71643312D-14  0.13249176D-13  0.21099268D-02
  0.20263259D-15  0.39346051D-15  0.27669633D-03 -0.79832950D-16 -0.12731463D-15
 -0.83511292D-04  0.17827760D-16  0.25328753D-16  0.32977395D-04 -0.11564687D-16
 -0.24756844D-17 -0.95078652D-06 -0.77013747D-18 -0.17216144D-17  0.75939191D-07
  0.46895300D-02  0.52175065D-02  0.50223189D-02  0.38647646D-02  0.22942887D-02
  0.94808116D-03  0.26344158D-03  0.46895300D-02  0.52175065D-02  0.50223189D-02
  0.38647646D-02  0.22942887D-02  0.94808116D-03  0.26344158D-03 -0.93790600D-02
 -0.10435013D-01 -0.10044638D-01 -0.77295293D-02 -0.45885774D-02 -0.18961623D-02
 -0.52688317D-03 -0.24224479D-15 -0.26951821D-15 -0.25943550D-15 -0.19964028D-15
 -0.11851496D-15 -0.48974571D-16 -0.13608475D-16 -0.45739244D-13 -0.50888853D-13
 -0.48985095D-13 -0.37694911D-13 -0.22377302D-13 -0.92470921D-14 -0.25694726D-14
 -0.75555082D-13 -0.84061544D-13 -0.80916790D-13 -0.62266924D-13 -0.36964295D-13
 -0.15274953D-13 -0.42444233D-14 -0.10478190D-03 -0.10478190D-03  0.20956381D-03
  0.43031705D-17  0.10623174D-14  0.16649987D-14  0.13662631D-04  0.13662631D-04
 -0.27325262D-04  0.32826797D-17 -0.12878578D-15 -0.24938506D-15  0.16664264D-05
  0.16664264D-05 -0.33328528D-05 -0.35253837D-18  0.34576640D-16  0.18913923D-16
  0.23958548D-07  0.23958548D-07 -0.47917096D-07 -0.11134946D-19  0.10122631D-17
 -0.19051126D-18 -0.20778586D-17  0.36484133D-17  0.19825790D-05 -0.20776978D-17
  0.36502847D-17 -0.29738686D-05  0.83112736D-17 -0.14595525D-16 -0.29738686D-05
 -0.35856110D-18 -0.66591074D-17 -0.14125420D-16  0.17697495D-05 -0.66646854D-17
 -0.14128209D-16 -0.26546242D-05  0.26642007D-16  0.56504468D-16 -0.26546242D-05
  0.34486589D-17 -0.53042191D-06 -0.53042191D-06 -0.14144586D-05  0.35690966D-18
  0.76932238D-17  0.35686831D-18 -0.45144327D-17 -0.10261956D-16  0.60248430D-17
 -0.10608442D-05  0.42433757D-05  0.42433757D-05 -0.45312309D-17  0.77061959D-17
 -0.21413339D-17
MO    4     MO 0.0        OCC NO =    2.0000000  ORB. ENERGY =  -56.490091
 -0.38354643D-16 -0.71984181D-16 -0.12421597D-15 -0.20018193D-15 -0.30203977D-15
 -0.41847397D-15 -0.49762111D-15 -0.45167749D-15 -0.37580453D-16 -0.13600551D-15
 -0.79962877D-16 -0.27385610D-15  0.84643562D-16  0.15123708D-15 -0.28573943D-15
 -0.15497653D-15  0.45291221D-07  0.59912301D-07  0.67186407D-07  0.62083700D-07
  0.42101806D-07 -0.15578281D-05 -0.20607319D-05 -0.23109307D-05 -0.21354190D-05
 -0.14481256D-05  0.69667410D-15  0.92157700D-15  0.10334680D-14  0.95497768D-15
  0.64761419D-15 -0.47559328D-07  0.16358415D-05 -0.89509537D-16  0.29442756D-07
 -0.10127074D-05 -0.26295913D-15 -0.27669470D-07  0.95171377D-06 -0.14624293D-15
  0.17277677D-08 -0.59427964D-07 -0.26553530D-17  0.55437474D-15 -0.18804277D-14
  0.13260530D-14  0.22347330D-14  0.34555887D-06 -0.11885776D-04 -0.67105986D-15
  0.29792140D-15  0.37313846D-15 -0.52176082D-15 -0.18026174D-06  0.62002479D-05
  0.19041769D-15  0.73472836D-16 -0.26389053D-15 -0.15589011D-16  0.56588413D-07
 -0.19464041D-05  0.62269532D-17  0.16512614D-16 -0.22739567D-16 -0.13656653D-17
 -0.14836880D-07  0.51032646D-06  0.23947091D-06 -0.82367952D-05  0.62455002D-15
  0.23947082D-06 -0.82367921D-05  0.18384089D-14 -0.95788354D-06  0.32947178D-04
 -0.37120590D-14 -0.20010458D-14 -0.54336326D-07  0.18689418D-05 -0.23624091D-15
 -0.54336314D-07  0.18689414D-05  0.27142118D-15  0.21734529D-06 -0.74757668D-05
  0.43730156D-15  0.23121330D-15 -0.25661792D-15  0.84483372D-15  0.18280835D-15
  0.13055034D-15 -0.38510232D-06 -0.20433635D-15  0.13245905D-04  0.51346977D-06
 -0.17661207D-04 -0.12162223D-14  0.27559299D-14 -0.38527800D-14  0.13245907D-04
 -0.38510236D-06  0.22135803D-15  0.15697129D-14  0.29380102D-14  0.50895580D-14
  0.83400068D-14  0.13063185D-13  0.19632453D-13  0.28056879D-13  0.37239992D-13
  0.43372281D-13  0.39851348D-13  0.23322700D-13  0.17390687D-14  0.74800691D-14
  0.18362237D-13  0.23393072D-13  0.68416472D-14 -0.27181407D-13 -0.21437099D-13
 -0.34610415D-14 -0.12259648D-14  0.56728282D-16 -0.20725726D-15  0.10789382D-15
  0.35005105D-15 -0.29642770D-17 -0.87183934D+00 -0.12789977D+01 -0.18022635D+01
 -0.23647956D+01 -0.28128250D+01 -0.28872597D+01 -0.23488557D+01 -0.13387191D+01
 -0.42025488D+00 -0.49518209D-01  0.29987618D+02  0.43992160D+02  0.61990307D+02
  0.81339055D+02  0.96749385D+02  0.99309629D+02  0.80790787D+02  0.46046323D+02
  0.14455006D+02  0.17032188D+01 -0.14439414D-09 -0.21182777D-09 -0.29849110D-09
 -0.39165775D-09 -0.46586042D-09 -0.47818831D-09 -0.38901777D-09 -0.22171882D-09
 -0.69602666D-10 -0.82012119D-11  0.37012311D-03  0.84509156D-03  0.91767219D-03
 -0.11423862D-02 -0.10500229D-02 -0.12730683D-01 -0.29067606D-01 -0.31564076D-01
  0.39293297D-01  0.36116386D-01  0.63537537D-13  0.14507345D-12  0.15753307D-12
 -0.19610882D-12 -0.18025319D-12 -0.78841193D-04  0.27118065D-02 -0.10026382D-13
 -0.23394311D-05  0.80466621D-04 -0.12867438D-14  0.88081723D-06 -0.30296420D-04
  0.32011565D-15 -0.16041019D-06  0.55174378D-05 -0.27421516D-15  0.28184820D-07
 -0.96943964D-06 -0.29133496D-16 -0.18064517D-08  0.62134365D-07  0.68681402D-18
 -0.18296398D-13 -0.20356321D-13 -0.19594788D-13 -0.15078541D-13 -0.89512636D-14
 -0.36989784D-14 -0.10278284D-14 -0.21168977D-13 -0.23552313D-13 -0.22671218D-13
 -0.17445909D-13 -0.10356634D-13 -0.42797271D-14 -0.11892000D-14  0.39465375D-13
  0.43908633D-13  0.42266005D-13  0.32524451D-13  0.19307897D-13  0.79787056D-14
  0.22170284D-14 -0.25512483D-14 -0.28384837D-14 -0.27322957D-14 -0.21025506D-14
 -0.12481635D-14 -0.51578526D-15 -0.14332031D-15  0.45770798D-03  0.50923960D-03
  0.49018888D-03  0.37720915D-03  0.22392740D-03  0.92534714D-04  0.25712452D-04
 -0.15743236D-01 -0.17515707D-01 -0.16860442D-01 -0.12974413D-01 -0.77021636D-02
 -0.31828062D-02 -0.88440055D-03  0.29697910D-15  0.20452361D-15 -0.50150271D-15
 -0.29062616D-16 -0.10133953D-04  0.34856548D-03 -0.78718720D-16  0.25942174D-16
  0.52776547D-16  0.26813635D-16  0.14849438D-05 -0.51075841D-04 -0.45071706D-16
 -0.56029700D-16  0.10110141D-15 -0.31206141D-17 -0.14432211D-06  0.49640755D-05
 -0.29289491D-18  0.11039674D-18  0.18249817D-18 -0.42043856D-20  0.44732735D-08
 -0.15386185D-06 -0.57287991D-08  0.19704667D-06 -0.25476022D-16 -0.57287981D-08
  0.19704664D-06  0.42577818D-16  0.22915196D-07 -0.78818665D-06  0.33850249D-16
 -0.22839912D-17  0.57702211D-07 -0.19847141D-05 -0.65967033D-16  0.57702183D-07
 -0.19847132D-05  0.86439743D-16 -0.23080882D-06  0.79388556D-05  0.11146135D-15
 -0.50621982D-18  0.11395455D-16  0.50765691D-17  0.11828439D-16  0.40472960D-17
 -0.10254799D-07  0.40992197D-17  0.35272210D-06  0.13673056D-07 -0.47029582D-06
 -0.13930754D-16 -0.54441974D-16 -0.16528661D-16  0.35272115D-06 -0.10254772D-07
 -0.24439547D-16
MO    5     MO 0.0        OCC NO =    2.0000000  ORB. ENERGY =  -56.490091
  0.33969059D-17  0.63753296D-17  0.11001275D-16  0.17729254D-16  0.26750364D-16
  0.37062442D-16  0.44072164D-16  0.40003135D-16  0.31725721D-16  0.11481695D-15
 -0.25365312D-15  0.28554691D-15 -0.15073711D-15  0.19120375D-15 -0.98592367D-16
 -0.75388274D-16 -0.15578281D-05 -0.20607319D-05 -0.23109307D-05 -0.21354190D-05
 -0.14481256D-05 -0.45291221D-07 -0.59912301D-07 -0.67186407D-07 -0.62083700D-07
 -0.42101806D-07 -0.38188587D-15 -0.50516767D-15 -0.56650138D-15 -0.52347645D-15
 -0.35499340D-15  0.16358415D-05  0.47559328D-07  0.28532169D-15 -0.10127074D-05
 -0.29442756D-07  0.56068537D-16  0.95171377D-06  0.27669470D-07 -0.47858512D-16
 -0.59427964D-07 -0.17277677D-08  0.36874067D-17  0.43104920D-14 -0.28700507D-14
 -0.14404413D-14  0.34774304D-14 -0.11885776D-04 -0.34555886D-06 -0.63702735D-15
  0.66665659D-15 -0.29629238D-16  0.85860374D-16  0.62002479D-05  0.18026173D-06
  0.11547392D-16 -0.93914141D-16  0.82366749D-16  0.21917934D-16 -0.19464041D-05
 -0.56588413D-07 -0.56513327D-17  0.37621453D-17  0.18891875D-17 -0.53248888D-17
  0.51032646D-06  0.14836880D-07 -0.82367952D-05 -0.23947091D-06 -0.11651469D-15
 -0.82367921D-05 -0.23947082D-06  0.33573837D-14  0.32947178D-04  0.95788354D-06
 -0.30078396D-14 -0.23293028D-14  0.18689418D-05  0.54336326D-07  0.11083678D-15
  0.18689414D-05  0.54336314D-07 -0.28310402D-15 -0.74757668D-05 -0.21734529D-06
 -0.49406308D-16  0.22122030D-15 -0.99478075D-15  0.34358875D-15  0.25347551D-17
  0.14937328D-15  0.13245905D-04 -0.25649949D-15  0.38510232D-06 -0.17661207D-04
 -0.51346977D-06  0.19611803D-14  0.40075042D-14 -0.40227128D-14  0.38510236D-06
  0.13245907D-04  0.32137864D-15  0.99910701D-15  0.18700149D-14  0.32394542D-14
  0.53083333D-14  0.83145902D-14  0.12495866D-13  0.17857931D-13  0.23702893D-13
  0.27606036D-13  0.25364996D-13  0.14844672D-13  0.10514146D-14  0.45223366D-14
  0.11101530D-13  0.14143097D-13  0.63669813D-14 -0.19132251D-13 -0.13393241D-13
 -0.27468072D-14  0.57561647D-15 -0.51198004D-15  0.41466801D-15 -0.19632789D-15
  0.94427839D-16  0.26279477D-16  0.29987618D+02  0.43992160D+02  0.61990307D+02
  0.81339055D+02  0.96749385D+02  0.99309629D+02  0.80790787D+02  0.46046323D+02
  0.14455006D+02  0.17032188D+01  0.87183934D+00  0.12789977D+01  0.18022635D+01
  0.23647956D+01  0.28128250D+01  0.28872597D+01  0.23488557D+01  0.13387191D+01
  0.42025488D+00  0.49518209D-01 -0.83546626D-10 -0.12256381D-09 -0.17270732D-09
 -0.22661365D-09 -0.26954741D-09 -0.27668035D-09 -0.22508616D-09 -0.12828678D-09
 -0.40272188D-10 -0.47452313D-11 -0.12730683D-01 -0.29067606D-01 -0.31564076D-01
  0.39293297D-01  0.36116386D-01 -0.37012311D-03 -0.84509156D-03 -0.91767219D-03
  0.11423862D-02  0.10500229D-02  0.36339852D-13  0.82973750D-13  0.90099945D-13
 -0.11216308D-12 -0.10309456D-12  0.27118065D-02  0.78841193D-04 -0.56114745D-14
  0.80466621D-04  0.23394311D-05 -0.77083653D-15 -0.30296420D-04 -0.88081723D-06
  0.22128607D-15  0.55174378D-05  0.16041019D-06 -0.61467610D-16 -0.96943964D-06
 -0.28184820D-07 -0.34308663D-16  0.62134365D-07  0.18064517D-08 -0.19209180D-17
 -0.12729688D-13 -0.14162876D-13 -0.13633041D-13 -0.10490870D-13 -0.62278266D-14
 -0.25735581D-14 -0.71510989D-15 -0.24620926D-13 -0.27392903D-13 -0.26368131D-13
 -0.20290750D-13 -0.12045453D-13 -0.49776067D-14 -0.13831185D-14  0.37350614D-13