 Molden2AIM, Version 4.0.0 (06/02/2016)           Time: Sun Jun 24 19:27:37 2018
GAUSSIAN             32 MOL ORBITALS    366 PRIMITIVES        2 NUCLEI
  Ge   1    (CENTRE  1)   0.00000000  0.00000000  2.03873859  CHARGE = 32.0
  Ge   2    (CENTRE  2)   0.00000000  0.00000000 -2.03873859  CHARGE = 32.0
CENTRE ASSIGNMENTS    1  1  1  1  1  1  1  1  1  1  1  1  1  1  1  1  1  1  1  1
CENTRE ASSIGNMENTS    1  1  1  1  1  1  1  1  1  1  1  1  1  1  1  1  1  1  1  1
CENTRE ASSIGNMENTS    1  1  1  1  1  1  1  1  1  1  1  1  1  1  1  1  1  1  1  1
CENTRE ASSIGNMENTS    1  1  1  1  1  1  1  1  1  1  1  1  1  1  1  1  1  1  1  1
CENTRE ASSIGNMENTS    1  1  1  1  1  1  1  1  1  1  1  1  1  1  1  1  1  1  1  1
CENTRE ASSIGNMENTS    1  1  1  1  1  1  1  1  1  1  1  1  1  1  1  1  1  1  1  1
CENTRE ASSIGNMENTS    1  1  1  1  1  1  1  1  1  1  1  1  1  1  1  1  1  1  1  1
CENTRE ASSIGNMENTS    1  1  1  1  1  1  1  1  1  1  1  1  1  1  1  1  1  1  1  1
CENTRE ASSIGNMENTS    1  1  1  1  1  1  1  1  1  1  1  1  1  1  1  1  1  1  1  1
CENTRE ASSIGNMENTS    1  1  1  2  2  2  2  2  2  2  2  2  2  2  2  2  2  2  2  2
CENTRE ASSIGNMENTS    2  2  2  2  2  2  2  2  2  2  2  2  2  2  2  2  2  2  2  2
CENTRE ASSIGNMENTS    2  2  2  2  2  2  2  2  2  2  2  2  2  2  2  2  2  2  2  2
CENTRE ASSIGNMENTS    2  2  2  2  2  2  2  2  2  2  2  2  2  2  2  2  2  2  2  2
CENTRE ASSIGNMENTS    2  2  2  2  2  2  2  2  2  2  2  2  2  2  2  2  2  2  2  2
CENTRE ASSIGNMENTS    2  2  2  2  2  2  2  2  2  2  2  2  2  2  2  2  2  2  2  2
CENTRE ASSIGNMENTS    2  2  2  2  2  2  2  2  2  2  2  2  2  2  2  2  2  2  2  2
CENTRE ASSIGNMENTS    2  2  2  2  2  2  2  2  2  2  2  2  2  2  2  2  2  2  2  2
CENTRE ASSIGNMENTS    2  2  2  2  2  2  2  2  2  2  2  2  2  2  2  2  2  2  2  2
CENTRE ASSIGNMENTS    2  2  2  2  2  2
TYPE ASSIGNMENTS      1  1  1  1  1  1  1  1  1  1  1  1  1  1  1  1  1  1  1  1
TYPE ASSIGNMENTS      1  1  1  1  1  2  2  2  2  2  2  2  2  2  3  3  3  3  3  3
TYPE ASSIGNMENTS      3  3  3  4  4  4  4  4  4  4  4  4  2  2  3  3  4  4  2  2
TYPE ASSIGNMENTS      2  2  3  3  3  3  4  4  4  4  2  3  4  2  3  4  2  3  4  2
TYPE ASSIGNMENTS      3  4  5  5  5  5  5  5  5  6  6  6  6  6  6  6  7  7  7  7
TYPE ASSIGNMENTS      7  7  7  8  8  8  8  8  8  8  9  9  9  9  9  9  9 10 10 10
TYPE ASSIGNMENTS     10 10 10 10  5  6  7  8  9 10  5  6  7  8  9 10  5  6  7  8
TYPE ASSIGNMENTS      9 10  5  6  7  8  9 10 11 12 13 17 14 15 18 19 16 20 11 12
TYPE ASSIGNMENTS     13 17 14 15 18 19 16 20 21 22 23 24 25 26 27 28 29 30 31 32
TYPE ASSIGNMENTS     33 34 35  1  1  1  1  1  1  1  1  1  1  1  1  1  1  1  1  1
TYPE ASSIGNMENTS      1  1  1  1  1  1  1  1  2  2  2  2  2  2  2  2  2  3  3  3
TYPE ASSIGNMENTS      3  3  3  3  3  3  4  4  4  4  4  4  4  4  4  2  2  3  3  4
TYPE ASSIGNMENTS      4  2  2  2  2  3  3  3  3  4  4  4  4  2  3  4  2  3  4  2
TYPE ASSIGNMENTS      3  4  2  3  4  5  5  5  5  5  5  5  6  6  6  6  6  6  6  7
TYPE ASSIGNMENTS      7  7  7  7  7  7  8  8  8  8  8  8  8  9  9  9  9  9  9  9
TYPE ASSIGNMENTS     10 10 10 10 10 10 10  5  6  7  8  9 10  5  6  7  8  9 10  5
TYPE ASSIGNMENTS      6  7  8  9 10  5  6  7  8  9 10 11 12 13 17 14 15 18 19 16
TYPE ASSIGNMENTS     20 11 12 13 17 14 15 18 19 16 20 21 22 23 24 25 26 27 28 29
TYPE ASSIGNMENTS     30 31 32 33 34 35
EXPONENTS  0.7233056D+07 0.1082886D+07 0.2464815D+06 0.6986243D+05 0.2281581D+05
EXPONENTS  0.8246537D+04 0.3219937D+04 0.1336574D+04 0.5828774D+03 0.2645951D+03
EXPONENTS  0.1237782D+03 0.2311106D+04 0.7162709D+03 0.2754533D+03 0.1189329D+03
EXPONENTS  0.5843570D+02 0.2626158D+02 0.1266488D+02 0.5726955D+01 0.2755502D+01
EXPONENTS  0.1243289D+01 0.3310718D+00 0.1596408D+00 0.6846318D-01 0.3140788D-01
EXPONENTS  0.1655571D+05 0.3914990D+04 0.1269477D+04 0.4843544D+03 0.2046499D+03
EXPONENTS  0.9279103D+02 0.4405506D+02 0.2160132D+02 0.1073217D+02 0.1655571D+05
EXPONENTS  0.3914990D+04 0.1269477D+04 0.4843544D+03 0.2046499D+03 0.9279103D+02
EXPONENTS  0.4405506D+02 0.2160132D+02 0.1073217D+02 0.1655571D+05 0.3914990D+04
EXPONENTS  0.1269477D+04 0.4843544D+03 0.2046499D+03 0.9279103D+02 0.4405506D+02
EXPONENTS  0.2160132D+02 0.1073217D+02 0.1008893D+03 0.3664025D+02 0.1008893D+03
EXPONENTS  0.3664025D+02 0.1008893D+03 0.3664025D+02 0.8034322D+01 0.4561344D+01
EXPONENTS  0.3179488D+01 0.9261204D+00 0.8034322D+01 0.4561344D+01 0.3179488D+01
EXPONENTS  0.9261204D+00 0.8034322D+01 0.4561344D+01 0.3179488D+01 0.9261204D+00
EXPONENTS  0.1797704D+01 0.1797704D+01 0.1797704D+01 0.4138687D+00 0.4138687D+00
EXPONENTS  0.4138687D+00 0.1583080D+00 0.1583080D+00 0.1583080D+00 0.5787704D-01
EXPONENTS  0.5787704D-01 0.5787704D-01 0.4209957D+03 0.1263621D+03 0.4866147D+02
EXPONENTS  0.2088033D+02 0.9541823D+01 0.4435365D+01 0.2028542D+01 0.4209957D+03
EXPONENTS  0.1263621D+03 0.4866147D+02 0.2088033D+02 0.9541823D+01 0.4435365D+01
EXPONENTS  0.2028542D+01 0.4209957D+03 0.1263621D+03 0.4866147D+02 0.2088033D+02
EXPONENTS  0.9541823D+01 0.4435365D+01 0.2028542D+01 0.4209957D+03 0.1263621D+03
EXPONENTS  0.4866147D+02 0.2088033D+02 0.9541823D+01 0.4435365D+01 0.2028542D+01
EXPONENTS  0.4209957D+03 0.1263621D+03 0.4866147D+02 0.2088033D+02 0.9541823D+01
EXPONENTS  0.4435365D+01 0.2028542D+01 0.4209957D+03 0.1263621D+03 0.4866147D+02
EXPONENTS  0.2088033D+02 0.9541823D+01 0.4435365D+01 0.2028542D+01 0.8948494D+00
EXPONENTS  0.8948494D+00 0.8948494D+00 0.8948494D+00 0.8948494D+00 0.8948494D+00
EXPONENTS  0.3578607D+00 0.3578607D+00 0.3578607D+00 0.3578607D+00 0.3578607D+00
EXPONENTS  0.3578607D+00 0.1400000D+00 0.1400000D+00 0.1400000D+00 0.1400000D+00
EXPONENTS  0.1400000D+00 0.1400000D+00 0.4864481D-01 0.4864481D-01 0.4864481D-01
EXPONENTS  0.4864481D-01 0.4864481D-01 0.4864481D-01 0.5492000D+00 0.5492000D+00
EXPONENTS  0.5492000D+00 0.5492000D+00 0.5492000D+00 0.5492000D+00 0.5492000D+00
EXPONENTS  0.5492000D+00 0.5492000D+00 0.5492000D+00 0.2190000D+00 0.2190000D+00
EXPONENTS  0.2190000D+00 0.2190000D+00 0.2190000D+00 0.2190000D+00 0.2190000D+00
EXPONENTS  0.2190000D+00 0.2190000D+00 0.2190000D+00 0.4681000D+00 0.4681000D+00
EXPONENTS  0.4681000D+00 0.4681000D+00 0.4681000D+00 0.4681000D+00 0.4681000D+00
EXPONENTS  0.4681000D+00 0.4681000D+00 0.4681000D+00 0.4681000D+00 0.4681000D+00
EXPONENTS  0.4681000D+00 0.4681000D+00 0.4681000D+00 0.7233056D+07 0.1082886D+07
EXPONENTS  0.2464815D+06 0.6986243D+05 0.2281581D+05 0.8246537D+04 0.3219937D+04
EXPONENTS  0.1336574D+04 0.5828774D+03 0.2645951D+03 0.1237782D+03 0.2311106D+04
EXPONENTS  0.7162709D+03 0.2754533D+03 0.1189329D+03 0.5843570D+02 0.2626158D+02
EXPONENTS  0.1266488D+02 0.5726955D+01 0.2755502D+01 0.1243289D+01 0.3310718D+00
EXPONENTS  0.1596408D+00 0.6846318D-01 0.3140788D-01 0.1655571D+05 0.3914990D+04
EXPONENTS  0.1269477D+04 0.4843544D+03 0.2046499D+03 0.9279103D+02 0.4405506D+02
EXPONENTS  0.2160132D+02 0.1073217D+02 0.1655571D+05 0.3914990D+04 0.1269477D+04
EXPONENTS  0.4843544D+03 0.2046499D+03 0.9279103D+02 0.4405506D+02 0.2160132D+02
EXPONENTS  0.1073217D+02 0.1655571D+05 0.3914990D+04 0.1269477D+04 0.4843544D+03
EXPONENTS  0.2046499D+03 0.9279103D+02 0.4405506D+02 0.2160132D+02 0.1073217D+02
EXPONENTS  0.1008893D+03 0.3664025D+02 0.1008893D+03 0.3664025D+02 0.1008893D+03
EXPONENTS  0.3664025D+02 0.8034322D+01 0.4561344D+01 0.3179488D+01 0.9261204D+00
EXPONENTS  0.8034322D+01 0.4561344D+01 0.3179488D+01 0.9261204D+00 0.8034322D+01
EXPONENTS  0.4561344D+01 0.3179488D+01 0.9261204D+00 0.1797704D+01 0.1797704D+01
EXPONENTS  0.1797704D+01 0.4138687D+00 0.4138687D+00 0.4138687D+00 0.1583080D+00
EXPONENTS  0.1583080D+00 0.1583080D+00 0.5787704D-01 0.5787704D-01 0.5787704D-01
EXPONENTS  0.4209957D+03 0.1263621D+03 0.4866147D+02 0.2088033D+02 0.9541823D+01
EXPONENTS  0.4435365D+01 0.2028542D+01 0.4209957D+03 0.1263621D+03 0.4866147D+02
EXPONENTS  0.2088033D+02 0.9541823D+01 0.4435365D+01 0.2028542D+01 0.4209957D+03
EXPONENTS  0.1263621D+03 0.4866147D+02 0.2088033D+02 0.9541823D+01 0.4435365D+01
EXPONENTS  0.2028542D+01 0.4209957D+03 0.1263621D+03 0.4866147D+02 0.2088033D+02
EXPONENTS  0.9541823D+01 0.4435365D+01 0.2028542D+01 0.4209957D+03 0.1263621D+03
EXPONENTS  0.4866147D+02 0.2088033D+02 0.9541823D+01 0.4435365D+01 0.2028542D+01
EXPONENTS  0.4209957D+03 0.1263621D+03 0.4866147D+02 0.2088033D+02 0.9541823D+01
EXPONENTS  0.4435365D+01 0.2028542D+01 0.8948494D+00 0.8948494D+00 0.8948494D+00
EXPONENTS  0.8948494D+00 0.8948494D+00 0.8948494D+00 0.3578607D+00 0.3578607D+00
EXPONENTS  0.3578607D+00 0.3578607D+00 0.3578607D+00 0.3578607D+00 0.1400000D+00
EXPONENTS  0.1400000D+00 0.1400000D+00 0.1400000D+00 0.1400000D+00 0.1400000D+00
EXPONENTS  0.4864481D-01 0.4864481D-01 0.4864481D-01 0.4864481D-01 0.4864481D-01
EXPONENTS  0.4864481D-01 0.5492000D+00 0.5492000D+00 0.5492000D+00 0.5492000D+00
EXPONENTS  0.5492000D+00 0.5492000D+00 0.5492000D+00 0.5492000D+00 0.5492000D+00
EXPONENTS  0.5492000D+00 0.2190000D+00 0.2190000D+00 0.2190000D+00 0.2190000D+00
EXPONENTS  0.2190000D+00 0.2190000D+00 0.2190000D+00 0.2190000D+00 0.2190000D+00
EXPONENTS  0.2190000D+00 0.4681000D+00 0.4681000D+00 0.4681000D+00 0.4681000D+00
EXPONENTS  0.4681000D+00 0.4681000D+00 0.4681000D+00 0.4681000D+00 0.4681000D+00
EXPONENTS  0.4681000D+00 0.4681000D+00 0.4681000D+00 0.4681000D+00 0.4681000D+00
EXPONENTS  0.4681000D+00
MO    1     MO 0.0        OCC NO =    2.0000000  ORB. ENERGY = -399.122808
 -0.53470848D+00 -0.10008912D+01 -0.17331039D+01 -0.28362088D+01 -0.44330346D+01
 -0.66316027D+01 -0.93871966D+01 -0.12195271D+02 -0.13596750D+02 -0.11413897D+02
 -0.55632517D+01  0.27391476D-02  0.11339186D-01  0.25986802D-01  0.28421334D-01
 -0.10247379D+01  0.60538848D-02 -0.11608945D-01  0.42563804D-02 -0.14632803D-02
  0.34565047D-03 -0.81237483D-04  0.56650708D-04 -0.19264248D-04 -0.72343339D-06
 -0.39130426D-14 -0.57258304D-14 -0.79815550D-14 -0.10217323D-13 -0.11612417D-13
 -0.10948659D-13 -0.77285724D-14 -0.34468504D-14 -0.70499425D-15  0.21970187D-13
  0.32148274D-13  0.44813276D-13  0.57366229D-13  0.65199132D-13  0.61472390D-13
  0.43392878D-13  0.19352702D-13  0.39582640D-14 -0.13852647D-03 -0.20270136D-03
 -0.28255675D-03 -0.36170566D-03 -0.41109369D-03 -0.38759583D-03 -0.27360086D-03
 -0.12202269D-03 -0.24957654D-04 -0.64396551D-15 -0.85227864D-15 -0.52751777D-13
 -0.69816182D-13  0.21663390D-03  0.28671170D-03  0.19483430D-15  0.11813505D-15
  0.97183656D-16  0.94169343D-17 -0.21178019D-14 -0.12840995D-14 -0.10563629D-14
 -0.10235981D-15  0.22813278D-04  0.13832512D-04  0.11379299D-04  0.11026351D-05
 -0.23562604D-15  0.89016951D-15 -0.20351991D-04 -0.12924378D-16 -0.91484139D-17
  0.69348808D-05  0.84069062D-17  0.47050590D-18 -0.12570256D-04 -0.21513046D-17
 -0.30908626D-17  0.30650985D-05 -0.34427733D-05 -0.37268158D-05 -0.34002377D-05
 -0.24590841D-05 -0.13497734D-05 -0.50921762D-06 -0.13080263D-06 -0.34427733D-05
 -0.37268158D-05 -0.34002377D-05 -0.24590841D-05 -0.13497734D-05 -0.50921762D-06
 -0.13080263D-06  0.68855466D-05  0.74536316D-05  0.68004754D-05  0.49181682D-05
  0.26995468D-05  0.10184352D-05  0.26160527D-06  0.10421416D-17  0.11281224D-17
  0.10292659D-17  0.74437481D-18  0.40858194D-18  0.15414225D-18  0.39594492D-19
 -0.41801725D-15 -0.45250534D-15 -0.41285263D-15 -0.29857893D-15 -0.16388781D-15
 -0.61828569D-16 -0.15881893D-16  0.15267854D-15  0.16527513D-15  0.15079219D-15
  0.10905434D-15  0.59859138D-16  0.22582551D-16  0.58007757D-17  0.39105479D-06
  0.39105479D-06 -0.78210959D-06 -0.35079834D-19  0.11843024D-18 -0.26809128D-19
 -0.47021634D-06 -0.47021634D-06  0.94043268D-06  0.69551924D-20  0.58008214D-17
 -0.10805733D-17 -0.87156809D-06 -0.87156809D-06  0.17431362D-05 -0.10827970D-20
 -0.98754291D-18 -0.26353022D-18  0.85427341D-07  0.85427341D-07 -0.17085468D-06
  0.12664975D-22 -0.74171947D-19  0.26260474D-18  0.43704419D-18  0.88398079D-18
  0.16601742D-05  0.43318674D-18  0.88960727D-18 -0.24902613D-05 -0.17443193D-17
 -0.35415496D-17 -0.24902613D-05 -0.19874066D-20 -0.33800564D-18  0.23683494D-18
 -0.43937801D-06 -0.33794756D-18  0.23668385D-18  0.65906701D-06  0.13519645D-17
 -0.94718867D-18  0.65906701D-06  0.15588220D-22 -0.18702550D-06 -0.18702550D-06
 -0.49873465D-06 -0.38130833D-22  0.15649112D-18  0.17340508D-21 -0.11191676D-17
 -0.20878681D-18  0.14922070D-17 -0.37405096D-06  0.14962039D-05  0.14962039D-05
 -0.11191183D-17  0.15688706D-18 -0.40582275D-21  0.54357545D+00  0.10174888D+01
  0.17618436D+01  0.28832412D+01  0.45065468D+01  0.67415734D+01  0.95428628D+01
  0.12397503D+02  0.13822223D+02  0.11603172D+02  0.56555062D+01 -0.27845553D-02
 -0.11527159D-01 -0.26417593D-01 -0.28892484D-01  0.10417305D+01 -0.61535225D-02
  0.11800635D-01 -0.43262455D-02  0.14870338D-02 -0.35115673D-03  0.82338501D-04
 -0.57070142D-04  0.19357122D-04  0.70532058D-06  0.38801083D-14  0.56776387D-14
  0.79143779D-14  0.10131328D-13  0.11514681D-13  0.10856509D-13  0.76635245D-14
  0.34178398D-14  0.69906063D-15 -0.60222268D-14 -0.88121323D-14 -0.12283724D-13
 -0.15724602D-13 -0.17871671D-13 -0.16850137D-13 -0.11894380D-13 -0.53047505D-14
 -0.10849959D-14 -0.14084226D-03 -0.20608998D-03 -0.28728034D-03 -0.36775240D-03
 -0.41796608D-03 -0.39407539D-03 -0.27817473D-03 -0.12406259D-03 -0.25374879D-04
 -0.44489326D-14 -0.58880952D-14  0.12698028D-13  0.16805649D-13  0.22026809D-03
  0.29152150D-03 -0.93133264D-16 -0.56470049D-16 -0.46455019D-16 -0.45014139D-17
  0.75399266D-15  0.45717288D-15  0.37609273D-15  0.36442758D-16  0.23202123D-04
  0.14068282D-04  0.11573256D-04  0.11214292D-05  0.82419551D-16 -0.31752850D-15
 -0.20735959D-04 -0.13163136D-16  0.29685058D-16  0.71417040D-05  0.50654933D-17
 -0.12084737D-16 -0.12604015D-04 -0.24158308D-18  0.45915924D-17  0.30556273D-05
  0.37633719D-05  0.40738651D-05  0.37168752D-05  0.26880794D-05  0.14754673D-05
  0.55663707D-06  0.14298326D-06  0.37633719D-05  0.40738651D-05  0.37168752D-05
  0.26880794D-05  0.14754673D-05  0.55663707D-06  0.14298326D-06 -0.75267437D-05
 -0.81477301D-05 -0.74337505D-05 -0.53761587D-05 -0.29509346D-05 -0.11132741D-05
 -0.28596652D-06  0.17368474D-18  0.18801442D-18  0.17153886D-18  0.12405852D-18
  0.68094825D-19  0.25689559D-19  0.65988723D-20 -0.49735506D-15 -0.53838884D-15
 -0.49121022D-15 -0.35524788D-15 -0.19499299D-15 -0.73563357D-16 -0.18896206D-16
  0.87054524D-16  0.94236870D-16  0.85978962D-16  0.62180799D-16  0.34130590D-16
  0.12876159D-16  0.33074967D-17 -0.43278439D-06 -0.43278439D-06  0.86556879D-06
 -0.23706075D-19 -0.14163901D-17 -0.35398289D-17  0.46192338D-06  0.46192338D-06
 -0.92384677D-06  0.12335621D-20  0.68375598D-17  0.29833060D-17  0.88145907D-06
  0.88145907D-06 -0.17629181D-05  0.48685859D-21 -0.20871406D-17 -0.95348763D-18
 -0.85255808D-07 -0.85255808D-07  0.17051162D-06 -0.13184947D-22 -0.61740285D-18
  0.10252175D-17  0.92487382D-18 -0.58949823D-18  0.16778219D-05  0.92421097D-18
 -0.58960796D-18 -0.25167328D-05 -0.36988324D-17  0.23581026D-17 -0.25167328D-05
 -0.20017115D-20  0.90282648D-19 -0.34338865D-18 -0.45344529D-06  0.90212985D-19
 -0.34350797D-18  0.68016794D-06 -0.36106093D-18  0.13736739D-17  0.68016794D-06
  0.31291980D-21  0.18139853D-06  0.18139853D-06  0.48372941D-06 -0.28918980D-22
  0.17850712D-17  0.78773942D-23  0.10186908D-17 -0.23802030D-17 -0.13582579D-17
  0.36279703D-06 -0.14511882D-05 -0.14511882D-05  0.10187015D-17  0.17853955D-17
  0.63124756D-22
MO    2     MO 0.0        OCC NO =    2.0000000  ORB. ENERGY = -399.122808
  0.54357530D+00  0.10174886D+01  0.17618431D+01  0.28832404D+01  0.45065455D+01
  0.67415715D+01  0.95428602D+01  0.12397500D+02  0.13822219D+02  0.11603169D+02
  0.56555046D+01 -0.27836518D-02 -0.11523419D-01 -0.26409022D-01 -0.28883109D-01
  0.10417017D+01 -0.61084995D-02  0.11751611D-01 -0.42833203D-02  0.14564213D-02
 -0.33766418D-03  0.67618099D-04 -0.25970596D-04  0.58058560D-05 -0.10954474D-05
 -0.28257115D-14 -0.41347734D-14 -0.57636918D-14 -0.73781989D-14 -0.83856334D-14
 -0.79063157D-14 -0.55810063D-14 -0.24890617D-14 -0.50909498D-15  0.20879894D-13
  0.30552883D-13  0.42589371D-13  0.54519371D-13  0.61963559D-13  0.58421760D-13
  0.41239462D-13  0.18392304D-13  0.37618311D-14  0.14195641D-03  0.20772028D-03
  0.28955290D-03  0.37066155D-03  0.42127244D-03  0.39719277D-03  0.28037526D-03
  0.12504400D-03  0.25575609D-04 -0.76204260D-15 -0.10085519D-14 -0.51510541D-13
 -0.68173424D-13 -0.22276690D-03 -0.29482864D-03  0.18518516D-15  0.11228442D-15
  0.92370648D-16  0.89505619D-17 -0.20671288D-14 -0.12533746D-14 -0.10310871D-14
 -0.99910621D-16 -0.23832248D-04 -0.14450350D-04 -0.11887563D-04 -0.11518850D-05
 -0.22909930D-15  0.86823787D-15  0.23515458D-04 -0.12772145D-16 -0.87693750D-17
 -0.12633410D-04  0.82815958D-17  0.38582740D-18  0.21561562D-05 -0.21200951D-17
 -0.30289229D-17  0.55071794D-06  0.19523094D-04  0.21133828D-04  0.19281886D-04
  0.13944842D-04  0.76542228D-05  0.28876440D-05  0.74174857D-06  0.19523094D-04
  0.21133828D-04  0.19281886D-04  0.13944842D-04  0.76542228D-05  0.28876440D-05
  0.74174857D-06 -0.39046189D-04 -0.42267655D-04 -0.38563771D-04 -0.27889685D-04
 -0.15308446D-04 -0.57752880D-05 -0.14834971D-05 -0.62122197D-18 -0.67247527D-18
 -0.61354675D-18 -0.44372282D-18 -0.24355624D-18 -0.91884405D-19 -0.23602330D-19
 -0.38166522D-15 -0.41315413D-15 -0.37694973D-15 -0.27261362D-15 -0.14963564D-15
 -0.56451773D-16 -0.14500756D-16  0.91869784D-16  0.99449408D-16  0.90734729D-16
  0.65620215D-16  0.36018460D-16  0.13588380D-16  0.34904447D-17 -0.25406864D-05
 -0.25406864D-05  0.50813728D-05  0.35469819D-19 -0.36167685D-18  0.92389879D-18
 -0.50040680D-06 -0.50040680D-06  0.10008136D-05 -0.60412782D-20  0.57532900D-17
 -0.11745769D-17  0.60861286D-06  0.60861286D-06 -0.12172257D-05 -0.34816165D-21
 -0.97755037D-18 -0.22821401D-18  0.97281388D-08  0.97281388D-08 -0.19456278D-07
 -0.36910718D-23 -0.72132876D-19  0.25632442D-18  0.43268927D-18  0.86211362D-18
 -0.10867609D-05  0.42940075D-18  0.86535064D-18  0.16301414D-05 -0.17274686D-17
 -0.34516915D-17  0.16301414D-05 -0.35414311D-20 -0.33250641D-18  0.23589947D-18
  0.85900906D-06 -0.33253495D-18  0.23581563D-18 -0.12885136D-05  0.13300542D-17
 -0.94351403D-18 -0.12885136D-05  0.14418635D-21 -0.34062342D-06 -0.34062342D-06
 -0.90832913D-06 -0.27561274D-22  0.15116926D-18  0.12455160D-21 -0.11000320D-17
 -0.20162896D-18  0.14667370D-17 -0.68124687D-06  0.27249874D-05  0.27249874D-05
 -0.11001152D-17  0.15137913D-18 -0.29097097D-21  0.53470832D+00  0.10008909D+01
  0.17331034D+01  0.28362080D+01  0.44330333D+01  0.66316008D+01  0.93871939D+01
  0.12195268D+02  0.13596746D+02  0.11413894D+02  0.55632501D+01 -0.27382291D-02
 -0.11335383D-01 -0.25978088D-01 -0.28411804D-01  0.10247087D+01 -0.60081151D-02
  0.11559109D-01 -0.42127434D-02  0.14321602D-02 -0.33193417D-03  0.66272974D-04
 -0.25035440D-04  0.54882637D-05 -0.11071965D-05  0.37370978D-14  0.54683759D-14
  0.76226748D-14  0.97579144D-14  0.11090280D-13  0.10456367D-13  0.73810672D-14
  0.32918673D-14  0.67329510D-15 -0.53940931D-14 -0.78930042D-14 -0.11002500D-13
 -0.14084485D-13 -0.16007610D-13 -0.15092625D-13 -0.10653765D-13 -0.47514514D-14
 -0.97182805D-15 -0.13965909D-03 -0.20435869D-03 -0.28486700D-03 -0.36466304D-03
 -0.41445489D-03 -0.39076490D-03 -0.27583788D-03 -0.12302038D-03 -0.25161713D-04
 -0.43688242D-14 -0.57820730D-14  0.12481872D-13  0.16519570D-13  0.21917415D-03
  0.29007369D-03 -0.91643761D-16 -0.55566911D-16 -0.45712053D-16 -0.44294217D-17
  0.74497148D-15  0.45170302D-15  0.37159295D-15  0.36006737D-16  0.23453852D-04
  0.14220915D-04  0.11698819D-04  0.11335960D-05  0.80854386D-16 -0.31266007D-15
 -0.23177582D-04 -0.12918631D-16  0.29113407D-16  0.12517655D-04  0.49734396D-17
 -0.11842788D-16 -0.19491407D-05 -0.23339143D-18  0.45081189D-17 -0.60105013D-06
  0.19463834D-04  0.21069678D-04  0.19223357D-04  0.13902514D-04  0.76309892D-05
  0.28788788D-05  0.73949707D-06  0.19463834D-04  0.21069678D-04  0.19223357D-04
  0.13902514D-04  0.76309892D-05  0.28788788D-05  0.73949707D-06 -0.38927668D-04
 -0.42139356D-04 -0.38446715D-04 -0.27805028D-04 -0.15261978D-04 -0.57577577D-05
 -0.14789941D-05  0.16973746D-18  0.18374148D-18  0.16764035D-18  0.12123909D-18
  0.66547256D-19  0.25105721D-19  0.64489018D-20 -0.48882431D-15 -0.52915426D-15
 -0.48278486D-15 -0.34915458D-15 -0.19164842D-15 -0.72301580D-16 -0.18572093D-16
  0.85370682D-16  0.92414104D-16  0.84315924D-16  0.60978074D-16  0.33470423D-16
  0.12627104D-16  0.32435218D-17 -0.25339114D-05 -0.25339114D-05  0.50678228D-05
 -0.23194252D-19 -0.14205266D-17 -0.34165063D-17 -0.50807227D-06 -0.50807227D-06
  0.10161445D-05  0.12838034D-20  0.67322815D-17  0.29105052D-17  0.59419721D-06
  0.59419721D-06 -0.11883944D-05  0.42673892D-21 -0.20529602D-17 -0.91920900D-18
  0.11131708D-07  0.11131708D-07 -0.22263417D-07 -0.51049536D-23 -0.60688045D-18
  0.10068843D-17  0.90640619D-18 -0.57221138D-18  0.10593119D-05  0.90577741D-18
 -0.57239458D-18 -0.15889679D-05 -0.36249960D-17  0.22890287D-17 -0.15889679D-05
 -0.18157595D-20  0.88282611D-19 -0.33938809D-18 -0.85166709D-06  0.88230211D-19
 -0.33949244D-18  0.12775006D-05 -0.35307804D-18  0.13576567D-17  0.12775006D-05
  0.24924560D-21 -0.34365304D-06 -0.34365304D-06 -0.91640812D-06 -0.66401071D-22
  0.17483585D-17 -0.27415292D-22  0.10167767D-17 -0.23312660D-17 -0.13556940D-17
 -0.68730612D-06  0.27492244D-05  0.27492244D-05  0.10167519D-17  0.17487227D-17
  0.28144909D-21
MO    3     MO 0.0        OCC NO =    2.0000000  ORB. ENERGY =  -49.935051
  0.16889337D+00  0.31614215D+00  0.54741931D+00  0.89584676D+00  0.14002212D+01
  0.20946623D+01  0.29650460D+01  0.38520063D+01  0.42946784D+01  0.36052011D+01
  0.17572123D+01  0.20165609D+00  0.83479101D+00  0.19131487D+01  0.20923790D+01
 -0.80335270D-01 -0.28639874D+01 -0.17932675D+01 -0.22967598D+00  0.92527830D-02
 -0.23164868D-02  0.40477618D-03 -0.15204920D-03  0.33323426D-04 -0.65089911D-05
 -0.64938871D-15 -0.95022977D-15 -0.13245784D-14 -0.16956151D-14 -0.19271379D-14
 -0.18169839D-14 -0.12825947D-14 -0.57202180D-15 -0.11699727D-15  0.13975894D-13
  0.20450479D-13  0.28507066D-13  0.36492375D-13  0.41475120D-13  0.39104427D-13
  0.27603509D-13  0.12310833D-13  0.25179702D-14 -0.15629904D-01 -0.22870740D-01
 -0.31880803D-01 -0.40811153D-01 -0.46383592D-01 -0.43732334D-01 -0.30870312D-01
 -0.13767788D-01 -0.28159654D-02 -0.14903603D-13 -0.19724693D-13  0.11568790D-13
  0.15311119D-13  0.35578078D-03  0.47087049D-03 -0.11931530D-15 -0.72345161D-16
 -0.59514660D-16 -0.57668714D-17 -0.45389205D-15 -0.27521108D-15 -0.22640207D-15
 -0.21937983D-16 -0.46823531D-03 -0.28390792D-03 -0.23355651D-03 -0.22631237D-04
 -0.40204027D-15  0.46627129D-15  0.25016851D-03  0.19185243D-16 -0.42121854D-16
 -0.78725360D-04 -0.99670202D-17  0.13954757D-16  0.13094026D-04 -0.13717569D-17
 -0.14966966D-17  0.33776984D-05  0.10373264D-02  0.11229099D-02  0.10245102D-02
  0.74093544D-03  0.40669409D-03  0.15343004D-03  0.39411547D-04  0.10373264D-02
  0.11229099D-02  0.10245102D-02  0.74093544D-03  0.40669409D-03  0.15343004D-03
  0.39411547D-04 -0.20746527D-02 -0.22458199D-02 -0.20490203D-02 -0.14818709D-02
 -0.81338819D-03 -0.30686009D-03 -0.78823094D-04  0.90980641D-16  0.98486906D-16
  0.89856571D-16  0.64985123D-16  0.35669863D-16  0.13456868D-16  0.34566631D-17
 -0.23692928D-14 -0.25647689D-14 -0.23400201D-14 -0.16923247D-14 -0.92890474D-15
 -0.35044004D-15 -0.90017468D-16  0.47490641D-14  0.51408808D-14  0.46903892D-14
  0.33921339D-14  0.18619177D-14  0.70242996D-15  0.18043305D-15 -0.28031418D-04
 -0.28031418D-04  0.56062837D-04 -0.19731923D-17  0.25354779D-16 -0.57048183D-16
 -0.14757794D-05 -0.14757794D-05  0.29515587D-05  0.23204286D-18 -0.25327322D-17
  0.96964637D-17  0.35401459D-05  0.35401459D-05 -0.70802917D-05 -0.30833623D-19
  0.46609417D-17 -0.37692726D-17  0.63965415D-07  0.63965415D-07 -0.12793083D-06
  0.17088010D-20  0.33249273D-19  0.93214391D-19 -0.52626449D-18  0.10430665D-17
 -0.66054611D-05 -0.55017396D-18  0.10357207D-17  0.99081916D-05  0.21289674D-17
 -0.41649203D-17  0.99081916D-05 -0.34675783D-19  0.93852026D-18 -0.40421175D-18
  0.52466622D-05  0.93919432D-18 -0.40331073D-18 -0.78699932D-05 -0.37547551D-17
  0.16159460D-17 -0.78699932D-05  0.19332385D-20 -0.21244208D-05 -0.21244208D-05
 -0.56651232D-05 -0.89914818D-21 -0.63966797D-18 -0.16416079D-21  0.14379354D-17
  0.85100276D-18 -0.19194997D-17 -0.42488449D-05  0.16995369D-04  0.16995369D-04
  0.14446929D-17 -0.63400437D-18  0.31899269D-20  0.16923308D+00  0.31677805D+00
  0.54852040D+00  0.89764869D+00  0.14030376D+01  0.20988756D+01  0.29710100D+01
  0.38597543D+01  0.43033168D+01  0.36124527D+01  0.17607468D+01  0.20206170D+00
  0.83647011D+00  0.19169968D+01  0.20965876D+01 -0.80496708D-01 -0.28697484D+01
 -0.17968742D+01 -0.23013832D+00  0.92716815D-02 -0.23212824D-02  0.40579737D-03
 -0.15278370D-03  0.33517805D-04 -0.65032888D-05 -0.91524909D-15 -0.13392548D-14
 -0.18668621D-14 -0.23898016D-14 -0.27161101D-14 -0.25608589D-14 -0.18076902D-14
 -0.80620810D-15 -0.16489607D-15 -0.58904521D-14 -0.86193105D-14 -0.12014939D-13
 -0.15380525D-13 -0.17480614D-13 -0.16481433D-13 -0.11634114D-13 -0.51886751D-14
 -0.10612547D-14  0.15661402D-01  0.22916830D-01  0.31945050D-01  0.40893396D-01
  0.46477065D-01  0.43820465D-01  0.30932522D-01  0.13795533D-01  0.28216402D-02
 -0.53383874D-14 -0.70652753D-14  0.55654063D-14  0.73657314D-14 -0.35661040D-03
 -0.47196848D-03  0.19181483D-15  0.11630423D-15  0.95677540D-16  0.92709942D-17
 -0.61577017D-15 -0.37336361D-15 -0.30714713D-15 -0.29762045D-16  0.46914975D-03
  0.28446237D-03  0.23401263D-03  0.22675434D-04  0.12977092D-15 -0.15589422D-15
 -0.25061545D-03 -0.36224097D-17  0.77627978D-17  0.78822140D-04  0.74048602D-17
 -0.71599439D-17 -0.13294090D-04  0.12036123D-17  0.37204668D-18 -0.33475826D-05
  0.10392770D-02  0.11250215D-02  0.10264367D-02  0.74232872D-03  0.40745885D-03
  0.15371856D-03  0.39485658D-04  0.10392770D-02  0.11250215D-02  0.10264367D-02
  0.74232872D-03  0.40745885D-03  0.15371856D-03  0.39485658D-04 -0.20785540D-02
 -0.22500430D-02 -0.20528734D-02 -0.14846574D-02 -0.81491771D-03 -0.30743712D-03
 -0.78971315D-04 -0.26266644D-16 -0.28433747D-16 -0.25942119D-16 -0.18761586D-16
 -0.10298099D-16 -0.38850766D-17 -0.99795891D-18  0.22349417D-14  0.24193333D-14
  0.22073289D-14  0.15963612D-14  0.87623106D-15  0.33056829D-15  0.84913015D-16
 -0.45992408D-14 -0.49786965D-14 -0.45424170D-14 -0.32851190D-14 -0.18031780D-14
 -0.68026972D-15 -0.17474076D-15 -0.28071446D-04 -0.28071446D-04  0.56142891D-04
  0.10316117D-17 -0.24926247D-16  0.54758650D-16 -0.14586943D-05 -0.14586943D-05
  0.29173885D-05 -0.12890622D-18  0.33055228D-17 -0.10149350D-16  0.35539484D-05
  0.35539484D-05 -0.71078967D-05  0.19704782D-19  0.46344371D-17 -0.14057102D-17
  0.63020867D-07  0.63020867D-07 -0.12604173D-06 -0.12402651D-20  0.43199575D-19
 -0.43132774D-20  0.34313037D-18  0.54611394D-18  0.66221050D-05  0.33974899D-18
  0.54878562D-18 -0.99331575D-05 -0.13691401D-17 -0.21871274D-17 -0.99331575D-05
 -0.75643776D-20 -0.62807142D-18  0.16517603D-18 -0.52541898D-05 -0.62882826D-18
  0.16406464D-18  0.78812847D-05  0.25130425D-17 -0.65959274D-18  0.78812847D-05
  0.12228082D-20 -0.21227076D-05 -0.21227076D-05 -0.56605548D-05  0.20946839D-20
 -0.18704792D-18  0.26814746D-20 -0.10160452D-17  0.24836959D-18  0.13549677D-17
 -0.42454186D-05  0.16981664D-04  0.16981664D-04 -0.10167674D-17 -0.18396500D-18
 -0.14328476D-19
MO    4     MO 0.0        OCC NO =    2.0000000  ORB. ENERGY =  -49.935051
  0.16923338D+00  0.31677861D+00  0.54852137D+00  0.89765028D+00  0.14030401D+01
  0.20988793D+01  0.29710152D+01  0.38597612D+01  0.43033245D+01  0.36124591D+01
  0.17607499D+01  0.20205992D+00  0.83646274D+00  0.19169799D+01  0.20965692D+01
 -0.80421969D-01 -0.28698896D+01 -0.17966969D+01 -0.23031848D+00  0.94143591D-02
 -0.23889313D-02  0.50861388D-03 -0.36568912D-03  0.96768376D-04  0.28314331D-05
 -0.93324960D-14 -0.13655944D-13 -0.19035783D-13 -0.24368026D-13 -0.27695287D-13
 -0.26112241D-13 -0.18432426D-13 -0.82206406D-14 -0.16813913D-14  0.30612100D-13
  0.44793709D-13  0.62440455D-13  0.79931078D-13  0.90845033D-13  0.85652386D-13
  0.60461348D-13  0.26965034D-13  0.55152363D-14 -0.15690994D-01 -0.22960130D-01
 -0.32005409D-01 -0.40970663D-01 -0.46564882D-01 -0.43903261D-01 -0.30990968D-01
 -0.13821599D-01 -0.28269716D-02  0.12476368D-13  0.16512285D-13 -0.46554713D-14
 -0.61614461D-14  0.41322871D-03  0.54690197D-03 -0.17867659D-15 -0.10833805D-15
 -0.89124164D-16 -0.86359830D-17  0.12058214D-14  0.73113291D-15  0.60146562D-15
  0.58281016D-16 -0.45554996D-03 -0.27621634D-03 -0.22722904D-03 -0.22018115D-04
  0.38945666D-15 -0.37384291D-15  0.22267917D-03 -0.23823857D-16  0.42727086D-16
 -0.48243170D-04  0.13123494D-16 -0.15925062D-16  0.99579195D-04  0.19692688D-17
  0.13703725D-17 -0.14984229D-04  0.97179644D-03  0.10519735D-02  0.95978985D-03
  0.69412911D-03  0.38100244D-03  0.14373757D-03  0.36921843D-04  0.97179644D-03
  0.10519735D-02  0.95978985D-03  0.69412911D-03  0.38100244D-03  0.14373757D-03
  0.36921843D-04 -0.19435929D-02 -0.21039470D-02 -0.19195797D-02 -0.13882582D-02
 -0.76200487D-03 -0.28747514D-03 -0.73843686D-04  0.88727133D-16  0.96047475D-16
  0.87630905D-16  0.63375500D-16  0.34786353D-16  0.13123553D-16  0.33710447D-17
 -0.22696219D-14 -0.24568748D-14 -0.22415806D-14 -0.16211323D-14 -0.88982778D-15
 -0.33569781D-15 -0.86230634D-16  0.46013219D-14  0.49809493D-14  0.45444723D-14
  0.32866054D-14  0.18039939D-14  0.68057754D-15  0.17481982D-15 -0.19948646D-04
 -0.19948646D-04  0.39897291D-04 -0.19675192D-17  0.31717973D-16 -0.65397656D-16
  0.85013878D-05  0.85013878D-05 -0.17002776D-04  0.21819567D-18 -0.57820287D-17
  0.12786743D-16  0.68726390D-05  0.68726390D-05 -0.13745278D-04 -0.17619839D-19
 -0.58230851D-17  0.32877520D-17 -0.47000492D-06 -0.47000492D-06  0.94000985D-06
  0.11823697D-20 -0.14240286D-18  0.18247480D-19  0.38869843D-18 -0.60912619D-18
 -0.82896061D-05  0.41683545D-18 -0.67871597D-18  0.12434409D-04 -0.15829308D-17
  0.25060945D-17  0.12434409D-04  0.88552187D-20 -0.12746006D-17  0.70797776D-18
  0.37515500D-05 -0.12739976D-17  0.71054141D-18 -0.56273250D-05  0.50977995D-17