 Molden2AIM, Version 4.0.0 (06/02/2016)           Time: Sun Jun 24 19:33:24 2018
GAUSSIAN              9 MOL ORBITALS    172 PRIMITIVES        2 NUCLEI
  H    1    (CENTRE  1)   0.00000000  0.00000000  2.41309900  CHARGE =  1.0
  Cl   2    (CENTRE  2)   0.00000000  0.00000000 -0.00445408  CHARGE = 17.0
CENTRE ASSIGNMENTS    1  1  1  1  1  1  1  1  1  1  1  1  1  1  1  1  1  1  1  1
CENTRE ASSIGNMENTS    1  1  1  1  1  1  1  1  1  1  1  1  1  1  1  1  1  1  1  1
CENTRE ASSIGNMENTS    1  2  2  2  2  2  2  2  2  2  2  2  2  2  2  2  2  2  2  2
CENTRE ASSIGNMENTS    2  2  2  2  2  2  2  2  2  2  2  2  2  2  2  2  2  2  2  2
CENTRE ASSIGNMENTS    2  2  2  2  2  2  2  2  2  2  2  2  2  2  2  2  2  2  2  2
CENTRE ASSIGNMENTS    2  2  2  2  2  2  2  2  2  2  2  2  2  2  2  2  2  2  2  2
CENTRE ASSIGNMENTS    2  2  2  2  2  2  2  2  2  2  2  2  2  2  2  2  2  2  2  2
CENTRE ASSIGNMENTS    2  2  2  2  2  2  2  2  2  2  2  2  2  2  2  2  2  2  2  2
CENTRE ASSIGNMENTS    2  2  2  2  2  2  2  2  2  2  2  2
TYPE ASSIGNMENTS      1  1  1  1  1  1  1  2  3  4  2  3  4  2  3  4  2  3  4  5
TYPE ASSIGNMENTS      6  7  8  9 10  5  6  7  8  9 10 11 12 13 17 14 15 18 19 16
TYPE ASSIGNMENTS     20  1  1  1  1  1  1  1  1  1  1  1  1  1  1  1  1  1  1  1
TYPE ASSIGNMENTS      1  1  2  2  2  2  2  2  2  2  3  3  3  3  3  3  3  3  4  4
TYPE ASSIGNMENTS      4  4  4  4  4  4  2  2  3  3  4  4  2  3  4  2  3  4  2  3
TYPE ASSIGNMENTS      4  2  3  4  2  3  4  5  6  7  8  9 10  5  6  7  8  9 10  5
TYPE ASSIGNMENTS      6  7  8  9 10  5  6  7  8  9 10  5  6  7  8  9 10 11 12 13
TYPE ASSIGNMENTS     17 14 15 18 19 16 20 11 12 13 17 14 15 18 19 16 20 21 22 23
TYPE ASSIGNMENTS     24 25 26 27 28 29 30 31 32 33 34 35
EXPONENTS  0.1906917D+03 0.2860553D+02 0.6509594D+01 0.1841246D+01 0.5985373D+00
EXPONENTS  0.2139762D+00 0.8031629D-01 0.2292000D+01 0.2292000D+01 0.2292000D+01
EXPONENTS  0.8380000D+00 0.8380000D+00 0.8380000D+00 0.2920000D+00 0.2920000D+00
EXPONENTS  0.2920000D+00 0.8406320D-01 0.8406320D-01 0.8406320D-01 0.2062000D+01
EXPONENTS  0.2062000D+01 0.2062000D+01 0.2062000D+01 0.2062000D+01 0.2062000D+01
EXPONENTS  0.6620000D+00 0.6620000D+00 0.6620000D+00 0.6620000D+00 0.6620000D+00
EXPONENTS  0.6620000D+00 0.1397000D+01 0.1397000D+01 0.1397000D+01 0.1397000D+01
EXPONENTS  0.1397000D+01 0.1397000D+01 0.1397000D+01 0.1397000D+01 0.1397000D+01
EXPONENTS  0.1397000D+01 0.1467459D+07 0.2197562D+06 0.5001077D+05 0.1416482D+05
EXPONENTS  0.4620747D+04 0.1667899D+04 0.6502920D+03 0.2693804D+03 0.1170675D+03
EXPONENTS  0.5281177D+02 0.4614277D+03 0.1421267D+03 0.5443784D+02 0.2416077D+02
EXPONENTS  0.9708354D+01 0.4564070D+01 0.2119474D+01 0.7572237D+00 0.3374722D+00
EXPONENTS  0.1386078D+00 0.5423457D-01 0.2501946D+04 0.5928806D+03 0.1921809D+03
EXPONENTS  0.7287571D+02 0.3043636D+02 0.1349018D+02 0.6147807D+01 0.2845094D+01
EXPONENTS  0.2501946D+04 0.5928806D+03 0.1921809D+03 0.7287571D+02 0.3043636D+02
EXPONENTS  0.1349018D+02 0.6147807D+01 0.2845094D+01 0.2501946D+04 0.5928806D+03
EXPONENTS  0.1921809D+03 0.7287571D+02 0.3043636D+02 0.1349018D+02 0.6147807D+01
EXPONENTS  0.2845094D+01 0.1053940D+03 0.6736974D+01 0.1053940D+03 0.6736974D+01
EXPONENTS  0.1053940D+03 0.6736974D+01 0.1242110D+01 0.1242110D+01 0.1242110D+01
EXPONENTS  0.5566971D+00 0.5566971D+00 0.5566971D+00 0.2338780D+00 0.2338780D+00
EXPONENTS  0.2338780D+00 0.9316449D-01 0.9316449D-01 0.9316449D-01 0.2725615D-01
EXPONENTS  0.2725615D-01 0.2725615D-01 0.5191000D+01 0.5191000D+01 0.5191000D+01
EXPONENTS  0.5191000D+01 0.5191000D+01 0.5191000D+01 0.1276000D+01 0.1276000D+01
EXPONENTS  0.1276000D+01 0.1276000D+01 0.1276000D+01 0.1276000D+01 0.5830000D+00
EXPONENTS  0.5830000D+00 0.5830000D+00 0.5830000D+00 0.5830000D+00 0.5830000D+00
EXPONENTS  0.2430000D+00 0.2430000D+00 0.2430000D+00 0.2430000D+00 0.2430000D+00
EXPONENTS  0.2430000D+00 0.8345654D-01 0.8345654D-01 0.8345654D-01 0.8345654D-01
EXPONENTS  0.8345654D-01 0.8345654D-01 0.4230000D+00 0.4230000D+00 0.4230000D+00
EXPONENTS  0.4230000D+00 0.4230000D+00 0.4230000D+00 0.4230000D+00 0.4230000D+00
EXPONENTS  0.4230000D+00 0.4230000D+00 0.1089000D+01 0.1089000D+01 0.1089000D+01
EXPONENTS  0.1089000D+01 0.1089000D+01 0.1089000D+01 0.1089000D+01 0.1089000D+01
EXPONENTS  0.1089000D+01 0.1089000D+01 0.8270000D+00 0.8270000D+00 0.8270000D+00
EXPONENTS  0.8270000D+00 0.8270000D+00 0.8270000D+00 0.8270000D+00 0.8270000D+00
EXPONENTS  0.8270000D+00 0.8270000D+00 0.8270000D+00 0.8270000D+00 0.8270000D+00
EXPONENTS  0.8270000D+00 0.8270000D+00
MO    1     MO 0.0        OCC NO =    2.0000000  ORB. ENERGY = -101.721362
 -0.97133418D-06 -0.18077995D-05 -0.30464829D-05 -0.45480238D-05 -0.16085129D-04
 -0.25987135D-04  0.34903347D-04 -0.86927621D-15 -0.12534959D-14  0.31474481D-04
  0.65629946D-15  0.37851880D-15 -0.10622314D-04 -0.10254081D-16 -0.19679451D-16
  0.17350391D-04 -0.50175502D-18 -0.50117012D-17 -0.56711236D-05 -0.13065427D-04
 -0.13065427D-04  0.26130855D-04 -0.32229063D-15 -0.41249960D-15 -0.70563330D-15
 -0.60122700D-05 -0.60122700D-05  0.12024540D-04  0.98938762D-17 -0.21688796D-15
 -0.32561252D-16 -0.94913119D-16 -0.11447810D-15 -0.47808241D-04 -0.39919598D-16
 -0.17410927D-14  0.71712361D-04  0.32465896D-15  0.20845270D-14  0.71712361D-04
 -0.69489567D-15  0.34490637D+00  0.64548834D+00  0.11180827D+01  0.18287312D+01
  0.28526885D+01  0.42322467D+01  0.58700130D+01  0.72651972D+01  0.73524259D+01
  0.50749314D+01 -0.54519570D-02 -0.20627452D-01 -0.38913679D-01  0.17392486D+01
  0.12226191D+00 -0.91809671D-02  0.21763804D-02 -0.47163730D-03  0.17477913D-03
 -0.41965123D-04 -0.11687584D-04 -0.27850819D-15 -0.40039620D-15 -0.53112582D-15
 -0.62148978D-15 -0.61255181D-15 -0.46149335D-15 -0.24101576D-15 -0.69264065D-16
 -0.43059277D-15 -0.61903999D-15 -0.82115695D-15 -0.96086583D-15 -0.94704712D-15
 -0.71350038D-15 -0.37262690D-15 -0.10708700D-15  0.12585952D-02  0.18094144D-02
  0.24001893D-02  0.28085495D-02  0.27681583D-02  0.20855161D-02  0.10891646D-02
  0.31300845D-03 -0.11037766D-14  0.66235677D-15 -0.13224287D-14  0.79356606D-15
  0.37052471D-02 -0.22234532D-02  0.84501862D-16  0.25504055D-15 -0.84456511D-04
 -0.55985848D-16 -0.14730546D-15 -0.16992951D-04 -0.14870130D-16  0.25046767D-16
  0.34186136D-04  0.23243120D-17  0.17479681D-17 -0.10875762D-04 -0.34561563D-18
  0.81611159D-18 -0.13595090D-06 -0.81830287D-04 -0.81830287D-04  0.16366057D-03
  0.29044376D-16 -0.92334007D-16 -0.76606945D-15  0.17151620D-04  0.17151620D-04
 -0.34303240D-04  0.33457265D-16  0.69838338D-17 -0.15949318D-15 -0.12412268D-05
 -0.12412268D-05  0.24824535D-05 -0.13610201D-16 -0.11155459D-15 -0.99328232D-16
 -0.39269769D-05 -0.39269769D-05  0.78539538D-05  0.15945046D-17 -0.34565616D-16
 -0.14166326D-16  0.31454558D-06  0.31454558D-06 -0.62909116D-06 -0.67720199D-19
  0.19163731D-17  0.66062810D-17  0.26006187D-16  0.56081864D-17  0.56840744D-05
  0.25500516D-16  0.71311691D-17 -0.85261116D-05 -0.10351908D-15 -0.23955728D-16
 -0.85261116D-05 -0.54457757D-17 -0.14683876D-16  0.73367038D-16 -0.23601165D-04
 -0.14444787D-16  0.58776910D-16  0.35401748D-04  0.58496414D-16 -0.27887803D-15
  0.35401748D-04  0.25206260D-16  0.67225329D-06  0.67225329D-06  0.17926754D-05
  0.96304695D-17  0.11541133D-15  0.96305409D-17  0.91187083D-16 -0.14986266D-15
 -0.13602998D-15  0.13445066D-05 -0.53780263D-05 -0.53780263D-05  0.13452869D-15
  0.10335399D-15 -0.57783031D-16
MO    2     MO 0.0        OCC NO =    2.0000000  ORB. ENERGY =   -9.543955
 -0.86693423D-05 -0.16134955D-04 -0.27190440D-04 -0.40591978D-04 -0.40513686D-03
 -0.53707283D-03  0.84413985D-03 -0.53456036D-15 -0.38140259D-16  0.17451780D-03
  0.10747156D-15 -0.12525517D-16  0.13625996D-03 -0.29658349D-16 -0.83785605D-16
  0.39084930D-03 -0.29238906D-17  0.10751739D-16 -0.14070673D-03 -0.82555547D-04
 -0.82555547D-04  0.16511109D-03  0.73830597D-16 -0.40015191D-16 -0.76053384D-15
 -0.32418543D-04 -0.32418543D-04  0.64837085D-04  0.27410807D-16  0.20657956D-15
 -0.55129563D-16  0.91343974D-16 -0.78986349D-16 -0.37558231D-03  0.30273222D-15
  0.30797519D-15  0.56337347D-03 -0.57676414D-15 -0.71016149D-16  0.56337347D-03
 -0.53385795D-16  0.97656046D-01  0.18276218D+00  0.31657152D+00  0.51778300D+00
  0.80770408D+00  0.11983092D+01  0.16620228D+01  0.20570523D+01  0.20817500D+01
  0.14369051D+01  0.14412973D+00  0.54531410D+00  0.10287348D+01  0.11155512D+01
 -0.72137979D+00 -0.12408644D+01 -0.48058563D+00 -0.28893590D-01  0.48563525D-02
 -0.11513879D-02 -0.27654195D-03 -0.51362501D-15 -0.73841096D-15 -0.97950262D-15
 -0.11461519D-14 -0.11296685D-14 -0.85108637D-15 -0.44448145D-15 -0.12773684D-15
 -0.84039209D-15 -0.12081863D-14 -0.16026600D-14 -0.18753312D-14 -0.18483610D-14
 -0.13925456D-14 -0.72725953D-15 -0.20900273D-15 -0.26322687D-01 -0.37842707D-01
 -0.50198375D-01 -0.58738958D-01 -0.57894203D-01 -0.43617191D-01 -0.22779159D-01
 -0.65463651D-02 -0.47436982D-15  0.28466093D-15 -0.40183562D-15  0.24113444D-15
  0.62955005D-02 -0.37778184D-02  0.37184974D-16  0.49847078D-16 -0.12509470D-02
  0.54584153D-16 -0.14171548D-16 -0.39043356D-03  0.28376794D-16 -0.76425835D-18
  0.70737493D-03  0.26032478D-17 -0.39842313D-17 -0.26529531D-03  0.23028220D-19
  0.83741021D-18 -0.29876766D-05  0.64488202D-02  0.64488202D-02 -0.12897640D-01
 -0.27847513D-15  0.50924458D-16  0.90544843D-16  0.78697330D-03  0.78697330D-03
 -0.15739466D-02 -0.84634787D-17 -0.30887989D-16  0.52351875D-16 -0.11749469D-03
 -0.11749469D-03  0.23498938D-03  0.21536878D-17  0.16639292D-16 -0.11247060D-16
 -0.66270443D-04 -0.66270443D-04  0.13254089D-03 -0.28938066D-17  0.20939962D-16
  0.13105325D-16  0.69656324D-05  0.69656324D-05 -0.13931265D-04 -0.48628067D-19
  0.32356959D-18  0.20142271D-18 -0.16727292D-16  0.69081097D-17  0.95024450D-04
 -0.18421204D-16  0.23214320D-17 -0.14253667D-03  0.68603079D-16 -0.23045761D-16
 -0.14253667D-03 -0.21420692D-16 -0.29065653D-16 -0.30229084D-16 -0.30175701D-03
 -0.21020708D-16 -0.14975684D-16  0.45263551D-03  0.10821767D-15  0.10566293D-15
  0.45263551D-03  0.11139702D-16  0.10123012D-04  0.10123012D-04  0.26994942D-04
  0.21883401D-18 -0.42991406D-16  0.17088775D-18  0.12441888D-16  0.69826433D-16
  0.81497805D-17  0.20246755D-04 -0.80984825D-04 -0.80984825D-04 -0.61775007D-16
 -0.80505082D-16 -0.11691653D-17
MO    3     MO 0.0        OCC NO =    2.0000000  ORB. ENERGY =   -7.278377
  0.10921385D-03  0.20326347D-03  0.34253725D-03  0.51136593D-03 -0.10340694D-02
 -0.66889270D-03  0.65460934D-04 -0.34451524D-15 -0.78958651D-15 -0.12232669D-02
  0.91844855D-17  0.31260717D-15  0.20075588D-02 -0.40621483D-16 -0.76692024D-16
  0.48107344D-03  0.32332891D-17  0.16979526D-16 -0.14324944D-04  0.56797623D-03
  0.56797623D-03 -0.11359525D-02  0.15052943D-15  0.24863121D-15 -0.29590407D-15
  0.33426796D-03  0.33426796D-03 -0.66853592D-03 -0.47337804D-16 -0.48380462D-17
  0.24272027D-15  0.69164248D-16  0.38416955D-15  0.39869520D-03  0.10067396D-15
 -0.72321690D-16 -0.59804280D-03 -0.30816671D-15 -0.10801869D-14 -0.59804280D-03
 -0.76941993D-16  0.46995307D-03  0.87951181D-03  0.15234465D-02  0.24917424D-02
  0.38869382D-02  0.57666588D-02  0.79982015D-02  0.98992133D-02  0.10018067D-01
  0.69148610D-02  0.70379547D-03  0.26628066D-02  0.50233836D-02  0.56968251D-02
 -0.38916262D-02 -0.62281274D-02 -0.22303066D-02 -0.10008556D-02  0.13194003D-02
  0.12291882D-03 -0.17663814D-04 -0.12921373D-11 -0.18576361D-11 -0.24641554D-11
 -0.28833986D-11 -0.28419309D-11 -0.21410960D-11 -0.11181914D-11 -0.32135027D-12
  0.13457927D-11  0.19347736D-11  0.25664784D-11  0.30031304D-11  0.29599408D-11
  0.22300040D-11  0.11646238D-11  0.33469419D-12  0.61422240D+01  0.88303439D+01
  0.11713457D+02  0.13706345D+02  0.13509227D+02  0.10177781D+02  0.53153653D+01
  0.15275507D+01 -0.39378172D-13  0.23630144D-13  0.40546763D-13 -0.24331394D-13
  0.17888245D+00 -0.10734419D+00 -0.28472530D-13  0.29583545D-13  0.13652270D+00
 -0.28173027D-15  0.30071857D-15  0.22474222D-02  0.39617886D-16  0.35552979D-17
  0.52995565D-03 -0.89938784D-17 -0.68264827D-17  0.10516801D-05  0.62103350D-18
 -0.41031747D-18 -0.37176433D-06 -0.81629421D-02 -0.81629421D-02  0.16325884D-01
  0.14642578D-16 -0.63043632D-14  0.64179524D-14  0.45812054D-04  0.45812054D-04
 -0.91624107D-04  0.19782492D-16 -0.22546469D-15  0.99055776D-16 -0.59961148D-03
 -0.59961148D-03  0.11992230D-02 -0.30508144D-17 -0.85581385D-16  0.80965445D-16
 -0.41853343D-04 -0.41853343D-04  0.83706687D-04  0.13648699D-17  0.33667223D-16
  0.56512641D-16 -0.11231191D-05 -0.11231191D-05  0.22462381D-05  0.10093562D-19
  0.15226466D-17 -0.10449238D-16 -0.56051662D-17 -0.68065812D-17  0.12113037D-03
 -0.58167521D-17 -0.59998111D-17 -0.18169555D-03  0.22632251D-16  0.26419555D-16
 -0.18169555D-03 -0.27848545D-18  0.55053188D-16 -0.12719295D-15  0.14095065D-02
  0.58553551D-16 -0.13596719D-15 -0.21142598D-02 -0.22371311D-15  0.51754603D-15
 -0.21142598D-02  0.51051118D-17  0.11418073D-03  0.11418073D-03  0.30448163D-03
  0.21369845D-17  0.21072900D-16  0.20681544D-17 -0.16365417D-15 -0.26297319D-16
  0.20376017D-15  0.22836052D-03 -0.91344489D-03 -0.91344489D-03 -0.12031800D-15
  0.15673256D-16 -0.12615417D-16
MO    4     MO 0.0        OCC NO =    2.0000000  ORB. ENERGY =   -7.270333
  0.18233492D-16  0.33935282D-16  0.57187346D-16  0.85373664D-16 -0.65804839D-16
  0.91367029D-15  0.85026572D-16 -0.24959021D-04 -0.24641917D-03 -0.20137591D-15
  0.15010191D-04  0.14819487D-03  0.24248506D-15  0.12853162D-05  0.12689863D-04
 -0.55553829D-15  0.53003352D-06  0.52329946D-05 -0.31934394D-17  0.34191021D-17
  0.23872176D-15 -0.24214086D-15 -0.13285109D-15  0.10235186D-04  0.10105149D-03
 -0.40998494D-16  0.11788614D-15 -0.76887645D-16 -0.20985850D-16 -0.28237753D-04
 -0.27878993D-03 -0.24450223D-04 -0.24139584D-03  0.10005029D-15 -0.24450214D-04
 -0.24139575D-03 -0.26319030D-15  0.97800884D-04  0.96558327D-03 -0.36960562D-16
 -0.25572493D-15  0.88070724D-16  0.16482336D-15  0.28549879D-15  0.46696057D-15
  0.72842478D-15  0.10806905D-14  0.14988888D-14  0.18551446D-14  0.18774181D-14
  0.12958673D-14  0.12875171D-15  0.48713145D-15  0.91897329D-15  0.10965620D-14
 -0.74111772D-15 -0.11121830D-14 -0.49783457D-15  0.51775433D-16 -0.24205170D-16
 -0.51634264D-15 -0.34807816D-16 -0.61951376D+00 -0.89064150D+00 -0.11814365D+01
 -0.13824422D+01 -0.13625606D+01 -0.10265460D+01 -0.53611558D+00 -0.15407102D+00
 -0.61164286D+01 -0.87932593D+01 -0.11664264D+02 -0.13648783D+02 -0.13452493D+02
 -0.10135038D+02 -0.52930425D+01 -0.15211355D+01  0.12058739D-11  0.17336198D-11
  0.22996478D-11  0.26909022D-11  0.26522029D-11  0.19981559D-11  0.10435406D-11
  0.29989684D-12 -0.18717128D-01  0.11231817D-01 -0.18479327D+00  0.11089117D+00
  0.35080618D-13 -0.21051258D-13 -0.13659205D-01 -0.13485665D+00  0.26520053D-13
 -0.11730636D-03 -0.11581598D-02  0.89809106D-15  0.33232836D-05  0.32810614D-04
 -0.77368612D-15 -0.17418617D-05 -0.17197315D-04 -0.26019552D-16  0.60105288D-07
  0.59341652D-06 -0.29747048D-17 -0.45561915D-15 -0.24933380D-14  0.29489572D-14
 -0.16475408D-14 -0.29615039D-02 -0.29238781D-01  0.21012838D-16  0.36948428D-16
 -0.57961266D-16  0.12452371D-15 -0.10022103D-03 -0.98947729D-03 -0.99949582D-16
 -0.99835082D-16  0.19978466D-15 -0.49586619D-16 -0.15914594D-04 -0.15712400D-03
  0.91673087D-16  0.90829324D-16 -0.18250241D-15  0.88506530D-17 -0.25306173D-06
 -0.24984659D-05  0.24602432D-17  0.27153222D-17 -0.51755654D-17 -0.60939601D-18
 -0.14382125D-06 -0.14199401D-05 -0.13791744D-07 -0.13616521D-06 -0.11958526D-16
 -0.13842112D-07 -0.13666249D-06  0.21054813D-16  0.55217345D-07  0.54515811D-06
  0.14820764D-16 -0.18169426D-16  0.38723878D-04  0.38231892D-03  0.27393424D-15
  0.38724654D-04  0.38232658D-03 -0.43996727D-15 -0.15489629D-03 -0.15292834D-02
 -0.38183546D-15  0.15881243D-15  0.88309960D-16  0.67088802D-16  0.23517895D-16
 -0.30751819D-16  0.18783062D-04 -0.30321049D-16  0.18544424D-03 -0.25044146D-04
 -0.24725961D-03 -0.39564260D-15 -0.13421716D-15 -0.68902107D-17  0.18544610D-03
  0.18783251D-04  0.18321861D-15
MO    5     MO 0.0        OCC NO =    2.0000000  ORB. ENERGY =   -7.270333
 -0.23882678D-16 -0.44449270D-16 -0.74905397D-16 -0.11182453D-15  0.37067506D-15
  0.43172551D-15 -0.59887199D-16 -0.24641917D-03  0.24959021D-04  0.29508532D-15
  0.14819487D-03 -0.15010191D-04 -0.58700896D-15  0.12689863D-04 -0.12853162D-05
 -0.27698921D-15  0.52329946D-05 -0.53003352D-06  0.14451285D-16  0.11714765D-15
 -0.38043260D-15  0.26328495D-15  0.94670249D-16  0.10105149D-03 -0.10235186D-04
 -0.18676744D-15  0.33215179D-16  0.15355226D-15  0.22014633D-17 -0.27878993D-03
  0.28237753D-04 -0.24139584D-03  0.24450223D-04 -0.64031176D-16 -0.24139575D-03
  0.24450214D-04  0.46734359D-15  0.96558327D-03 -0.97800884D-04 -0.27525006D-15
 -0.18728545D-15 -0.10708291D-15 -0.20040445D-15 -0.34713058D-15 -0.56776526D-15
 -0.88567281D-15 -0.13139836D-14 -0.18224601D-14 -0.22556222D-14 -0.22827040D-14
 -0.15756115D-14 -0.16752721D-15 -0.63383834D-15 -0.11957358D-14 -0.12185391D-14
  0.75151234D-15  0.16484270D-14  0.38070348D-15  0.29926413D-15 -0.37480076D-15
 -0.15804270D-15  0.25270105D-16 -0.61164286D+01 -0.87932593D+01 -0.11664264D+02
 -0.13648783D+02 -0.13452493D+02 -0.10135038D+02 -0.52930425D+01 -0.15211355D+01
  0.61951376D+00  0.89064150D+00  0.11814365D+01  0.13824422D+01  0.13625606D+01
  0.10265460D+01  0.53611558D+00  0.15407102D+00 -0.14187921D-11 -0.20397208D-11
 -0.27056910D-11 -0.31660282D-11 -0.31204959D-11 -0.23509654D-11 -0.12277961D-11
 -0.35284890D-12 -0.18479327D+00  0.11089117D+00  0.18717128D-01 -0.11231817D-01
 -0.41318836D-13  0.24794702D-13 -0.13485665D+00  0.13659205D-01 -0.31697377D-13
 -0.11581598D-02  0.11730636D-03 -0.24259752D-15  0.32810614D-04 -0.33232836D-05
 -0.41704156D-15 -0.17197315D-04  0.17418617D-05  0.18990170D-16  0.59341652D-06
 -0.60105288D-07  0.56721260D-18  0.24408762D-14  0.13772260D-14 -0.38181022D-14
 -0.23429842D-14 -0.29238781D-01  0.29615039D-02 -0.11251152D-15  0.14363373D-15
 -0.31122210D-16  0.62705502D-16 -0.98947729D-03  0.10022103D-03  0.17060244D-15
  0.93223355D-16 -0.26382580D-15  0.24388003D-16 -0.15712400D-03  0.15914594D-04
  0.44312398D-16  0.46475827D-16 -0.90788224D-16 -0.89134372D-17 -0.24984659D-05
  0.25306173D-06  0.46299595D-19  0.30485194D-18 -0.35115153D-18  0.66854931D-18
 -0.14199401D-05  0.14382125D-06 -0.13616521D-06  0.13791744D-07 -0.39558070D-16
 -0.13666249D-06  0.13842112D-07  0.69679588D-16  0.54515811D-06 -0.55217345D-07
  0.48994623D-16  0.11087177D-16  0.38231892D-03 -0.38723878D-04 -0.34188510D-15
  0.38232658D-03 -0.38724654D-04  0.57603227D-15 -0.15292834D-02  0.15489629D-03
  0.44962303D-15 -0.75925500D-16 -0.96403295D-16 -0.73312498D-16 -0.93210217D-16
  0.92437343D-17  0.18544424D-03  0.88654643D-17 -0.18783062D-04 -0.24725961D-03
  0.25044146D-04  0.22951673D-15  0.34890304D-15  0.21035826D-15 -0.18783251D-04
  0.18544610D-03 -0.54327596D-16
MO    6     MO 0.0        OCC NO =    2.0000000  ORB. ENERGY =   -0.869655
  0.10002160D-01  0.18615530D-01  0.31370677D-01  0.46832557D-01  0.44009506D-01
  0.11590863D-01  0.13131802D-03  0.31184052D-16 -0.90339921D-17 -0.15696537D-01
 -0.21831644D-16 -0.65556492D-16 -0.13438232D-01 -0.28451673D-16 -0.60996125D-17
 -0.20886956D-02 -0.30386379D-17  0.75536846D-17  0.13845007D-03 -0.37087916D-02
 -0.37087916D-02  0.74175832D-02 -0.16852997D-15  0.43716725D-16 -0.10553780D-15
 -0.60540506D-03 -0.60540506D-03  0.12108101D-02 -0.17346588D-16  0.24999458D-16
 -0.63755982D-16 -0.12486052D-16 -0.81044066D-16 -0.42713437D-03 -0.85481555D-17
  0.97882762D-17  0.64070156D-03  0.46006312D-16  0.23334392D-15  0.64070156D-03
 -0.11856985D-16  0.28927427D-01  0.54137350D-01  0.93774017D-01  0.15337637D+00
  0.23925606D+00  0.35496013D+00  0.49232021D+00  0.60933483D+00  0.61665073D+00
  0.42563641D+00  0.47653730D-01  0.18029764D+00  0.34013144D+00  0.37474464D+00
 -0.28587216D+00 -0.57891786D+00 -0.37639230D+00  0.16854160D+00  0.19504730D+00
  0.34896198D-01  0.29769741D-03  0.26640886D-15  0.38300163D-15  0.50805191D-15
  0.59449016D-15  0.58594049D-15  0.44144452D-15  0.23054522D-15  0.66254999D-16
  0.63034285D-15  0.90620988D-15  0.12020880D-14  0.14066072D-14  0.13863781D-14
  0.10444900D-14  0.54548687D-15  0.15676418D-15 -0.24691760D+00 -0.35498010D+00
 -0.47088134D+00 -0.55099551D+00 -0.54307136D+00 -0.40914714D+00 -0.21367786D+00
 -0.61407589D-01 -0.15039678D-16  0.90250444D-17 -0.21524438D-16  0.12916434D-16
  0.19371898D-01 -0.11624733D-01  0.25325931D-16  0.84107358D-17  0.32423351D-01
  0.44533751D-16  0.16285949D-16  0.35899240D-01  0.62202535D-17 -0.33949589D-17
  0.85895754D-02  0.45525613D-17  0.10438270D-18  0.20020914D-03 -0.37521422D-18
 -0.15409068D-17 -0.36051505D-05 -0.41889440D-01 -0.41889440D-01  0.83778880D-01
 -0.13390085D-15 -0.17710921D-15  0.17631776D-16 -0.12489221D-01 -0.12489221D-01
  0.24978442D-01  0.21563129D-16 -0.68808613D-17  0.60259891D-16 -0.52085415D-02
 -0.52085415D-02  0.10417083D-01 -0.77070512D-17 -0.35575072D-16 -0.39093747D-16
 -0.65581950D-03 -0.65581950D-03  0.13116390D-02 -0.87182289D-18  0.44954274D-17
  0.16048528D-16  0.11655254D-04  0.11655254D-04 -0.23310508D-04 -0.84324835D-19
 -0.25374463D-17 -0.24252472D-17 -0.34244207D-17  0.69391421D-18  0.72643243D-03
 -0.43634052D-17  0.13303329D-17 -0.10896486D-02  0.14636667D-16 -0.34120755D-17
 -0.10896486D-02 -0.14144112D-17  0.99907580D-17  0.50715885D-17  0.48465932D-02
  0.70026089D-17  0.14945087D-17 -0.72698897D-02 -0.36974883D-16 -0.16709274D-16
 -0.72698897D-02 -0.15246669D-16  0.29474248D-03  0.29474248D-03  0.78598484D-03
  0.56007889D-18  0.10350273D-16  0.72723377D-18  0.16518259D-16 -0.96744020D-17
 -0.16846318D-16  0.58949966D-03 -0.23579545D-02 -0.23579545D-02  0.98417926D-18
 -0.20276123D-17 -0.38619380D-17
MO    7     MO 0.0        OCC NO =    2.0000000  ORB. ENERGY =   -0.488896
  0.17501762D-01  0.32573420D-01  0.54892352D-01  0.81947521D-01  0.89951372D-01
  0.43492775D-01  0.54673623D-02 -0.72798639D-17  0.47673310D-17 -0.11718364D-01
  0.45803880D-17  0.35370625D-17 -0.19744840D-01  0.23435071D-16 -0.13762284D-16
 -0.45298749D-02 -0.74554458D-17 -0.67686220D-17  0.54497399D-04 -0.40186396D-02
 -0.40186396D-02  0.80372792D-02  0.47935042D-16 -0.16638841D-16  0.68289048D-16
 -0.14068735D-02 -0.14068735D-02  0.28137471D-02  0.32702335D-16 -0.42831576D-16
  0.37599286D-16 -0.10844708D-16  0.11419968D-16 -0.11725278D-03 -0.23598464D-16
  0.43001978D-16  0.17587917D-03  0.56132587D-16 -0.77261880D-16  0.17587917D-03
 -0.43976647D-16 -0.91268078D-02 -0.17080717D-01 -0.29586365D-01 -0.48391330D-01
 -0.75486980D-01 -0.11199243D+00 -0.15533051D+00 -0.19224945D+00 -0.19455766D+00
 -0.13429130D+00 -0.15201154D-01 -0.57513487D-01 -0.10849917D+00 -0.11753603D+00
  0.88292604D-01  0.19164095D+00  0.11928925D+00 -0.52890557D-01 -0.74329785D-01
 -0.26596936D-01 -0.18830797D-02  0.12866341D-14  0.18497244D-14  0.24536606D-14
  0.28711182D-14  0.28298271D-14  0.21319770D-14  0.11134290D-14  0.31998163D-15
 -0.99861315D-17 -0.14356522D-16 -0.19043936D-16 -0.22284007D-16 -0.21963529D-16
 -0.16547209D-16 -0.86418107D-17 -0.24835178D-17 -0.14569000D+01 -0.20945065D+01
 -0.27783642D+01 -0.32510658D+01 -0.32043105D+01 -0.24141109D+01 -0.12607739D+01
 -0.36232620D+00  0.59895992D-16 -0.35942524D-16 -0.61542460D-17  0.36930540D-17
  0.11496348D+00 -0.68987546D-01  0.41910489D-17  0.19064480D-16  0.22374203D+00
 -0.35821795D-16  0.56579167D-17  0.22279373D+00 -0.12071173D-16  0.15149951D-16
  0.65286953D-01  0.31466340D-18  0.27675802D-17  0.49942085D-02  0.18819835D-18
  0.19195685D-17 -0.18043195D-05 -0.95366169D-01 -0.95366169D-01  0.19073234D+00
  0.46924944D-16  0.38035841D-17 -0.67070086D-16 -0.30342709D-01 -0.30342709D-01
  0.60685418D-01  0.11984801D-17  0.78332431D-17 -0.45593428D-16 -0.74278269D-02
 -0.74278269D-02  0.14855654D-01  0.53469557D-17 -0.81991622D-17  0.18604921D-16
 -0.13377996D-02 -0.13377996D-02  0.26755992D-02  0.38431492D-18 -0.83826490D-17
 -0.48978455D-17 -0.29349827D-05 -0.29349827D-05  0.58699654D-05  0.37337175D-18
  0.17811654D-17  0.30922364D-17  0.25669507D-17 -0.22810566D-17  0.97595511D-03
  0.30939431D-17 -0.30651033D-17 -0.14639327D-02 -0.10794795D-16  0.99082731D-17
 -0.14639327D-02 -0.16802152D-16 -0.68114821D-18  0.63500904D-18  0.11228633D-01
 -0.28267655D-17  0.44549631D-17 -0.16842950D-01  0.48702102D-17 -0.63599902D-17
 -0.16842950D-01  0.31693859D-16  0.19181047D-03  0.19181047D-03  0.51149488D-03
 -0.11489081D-17  0.11450420D-16 -0.13956480D-17 -0.63315500D-17 -0.15316636D-16
  0.11487346D-16  0.38362180D-03 -0.15344846D-02 -0.15344846D-02 -0.15467387D-16
  0.11598646D-16  0.76336685D-17
MO    8     MO 0.0        OCC NO =    2.0000000  ORB. ENERGY =   -0.349202
 -0.55512388D-19 -0.10331693D-18 -0.17410851D-18 -0.25992256D-18  0.76532014D-16
  0.24399526D-15 -0.36521857D-16  0.32646052D-03 -0.92294293D-02  0.47174563D-16
  0.43265121D-03 -0.12231567D-01 -0.10154137D-15  0.23076868D-03 -0.65241065D-02
 -0.11962839D-15  0.25798827D-04 -0.72936369D-03 -0.49373467D-17 -0.65447460D-17
  0.16411827D-16 -0.98670814D-17  0.10580804D-15 -0.31738426D-03  0.89728326D-02
  0.33373670D-16 -0.67475346D-16  0.34101676D-16 -0.95010326D-16 -0.24152375D-03
  0.68281654D-02 -0.53994408D-04  0.15264865D-02 -0.69052898D-17 -0.53994470D-04
  0.15264882D-02  0.49523666D-16  0.21597770D-03 -0.61059478D-02 -0.28807797D-16
 -0.12516056D-17  0.94003035D-18  0.17592561D-17  0.30472956D-17  0.49841433D-17
  0.77749037D-17  0.11534842D-16  0.15998517D-16  0.19801043D-16  0.20038782D-16
  0.13831549D-16  0.19125718D-17  0.72362057D-17  0.13651099D-16  0.47277862D-17
  0.16691959D-17 -0.53526970D-16  0.23923931D-16  0.19011696D-16  0.19172104D-16
 -0.18088428D-15  0.32069978D-16 -0.62470663D-01 -0.89810699D-01 -0.11913395D+00
 -0.13940300D+00 -0.13739817D+00 -0.10351507D+00 -0.54060939D-01 -0.15536247D-01
  0.17661203D+01  0.25390559D+01  0.33680593D+01  0.39410896D+01  0.38844107D+01
  0.29264948D+01  0.15283674D+01  0.43922828D+00 -0.54102022D-16 -0.77779556D-16
 -0.10317463D-15 -0.12072842D-15 -0.11899216D-15 -0.89648074D-16 -0.46818874D-16
 -0.13454993D-16  0.50439572D-02 -0.30267894D-02 -0.14259870D+00  0.85570957D-01
  0.38045299D-16 -0.22830310D-16  0.10080161D-01 -0.28497821D+00  0.36670165D-16
  0.97054035D-02 -0.27438336D+00  0.33261878D-17  0.35185506D-02 -0.99473633D-01
 -0.14438908D-15  0.44455761D-03 -0.12568175D-01 -0.10685579D-16  0.43266759D-05
 -0.12232030D-03  0.25869842D-17 -0.38976801D-15  0.27790612D-15  0.11186189D-15
  0.45140983D-15  0.26415613D-02 -0.74680097D-01 -0.13155771D-15  0.88831384D-16
  0.42726326D-16  0.53286178D-16  0.85319121D-03 -0.24120736D-01 -0.11721813D-16
  0.34212919D-16 -0.22491106D-16 -0.99221670D-17  0.24889969D-03 -0.70366918D-02
  0.97821553D-17  0.32175582D-16 -0.41957737D-16  0.18718607D-16  0.92003520D-04
 -0.26010495D-02 -0.18074320D-17  0.77836841D-18  0.10290636D-17 -0.30413479D-17
  0.13179254D-05 -0.37259327D-04 -0.23175671D-04  0.65520393D-03 -0.28396874D-16
 -0.23175677D-04  0.65520411D-03  0.37986655D-16  0.92702689D-04 -0.26208159D-02
  0.47203967D-16  0.10184819D-17 -0.89275059D-04  0.25239127D-02  0.25371957D-16
 -0.89273971D-04  0.25238819D-02 -0.97521439D-16  0.35709915D-03 -0.10095620D-01
  0.21405567D-16 -0.41339059D-16 -0.71387780D-17 -0.17641816D-17 -0.11532358D-16
  0.18831738D-16 -0.93033201D-05 -0.21766804D-16  0.26301599D-03  0.12404219D-04
 -0.35068209D-03 -0.78881967D-17  0.50720865D-16  0.18473286D-16  0.26299833D-03
 -0.93026955D-05  0.88051977D-17
MO    9     MO 0.0        OCC NO =    2.0000000  ORB. ENERGY =   -0.349202
  0.72168123D-18  0.13431577D-17  0.22634739D-17  0.33790878D-17 -0.18087751D-16
  0.44633158D-16  0.68013863D-16  0.92294293D-02  0.32646052D-03 -0.16774261D-16
  0.12231567D-01  0.43265121D-03  0.39079853D-16  0.65241065D-02  0.23076868D-03
 -0.41040893D-16  0.72936369D-03  0.25798827D-04 -0.58793023D-17  0.27784302D-16
 -0.22446885D-16 -0.53374173D-17  0.49247829D-16 -0.89728326D-02 -0.31738426D-03
  0.40598375D-17 -0.17920456D-16  0.13860618D-16 -0.12576417D-16 -0.68281654D-02
 -0.24152375D-03 -0.15264865D-02 -0.53994408D-04 -0.53813829D-17 -0.15264882D-02
 -0.53994470D-04  0.78955243D-16  0.61059478D-02  0.21597770D-03 -0.62811095D-16
  0.34790102D-16 -0.18683167D-17 -0.34965333D-17 -0.60565206D-17 -0.99060185D-17
 -0.15452674D-16 -0.22925576D-16 -0.31797160D-16 -0.39354706D-16 -0.39827214D-16
 -0.27490298D-16 -0.56957229D-17 -0.21549739D-16 -0.40653574D-16  0.27584762D-16
 -0.73223528D-16  0.12705812D-15 -0.40990523D-16  0.51806205D-16 -0.53930606D-16
 -0.35320961D-16 -0.39286998D-16 -0.17661203D+01 -0.25390559D+01 -0.33680593D+01
 -0.39410896D+01 -0.38844107D+01 -0.29264948D+01 -0.15283674D+01 -0.43922828D+00
 -0.62470663D-01 -0.89810699D-01 -0.11913395D+00 -0.13940300D+00 -0.13739817D+00
 -0.10351507D+00 -0.54060939D-01 -0.15536247D-01 -0.11478762D-15 -0.16502396D-15
 -0.21890439D-15 -0.25614805D-15 -0.25246425D-15 -0.19020526D-15 -0.99335049D-16
 -0.28547300D-16  0.14259870D+00 -0.85570957D-01  0.50439572D-02 -0.30267894D-02
  0.11196847D-15 -0.67190296D-16  0.28497821D+00  0.10080161D-01  0.48498694D-16
  0.27438336D+00  0.97054035D-02 -0.42112381D-16  0.99473633D-01  0.35185506D-02
  0.43815565D-16  0.12568175D-01  0.44455761D-03 -0.39247185D-16  0.12232030D-03
  0.43266759D-05  0.14345744D-18 -0.16213054D-15  0.10768935D-15  0.54441183D-16
  0.40781748D-15  0.74680097D-01  0.26415613D-02 -0.75031238D-16  0.60616009D-16
  0.14415229D-16  0.11926984D-15  0.24120736D-01  0.85319121D-03  0.12363416D-16
  0.44287046D-17 -0.16792120D-16 -0.18960817D-16  0.70366918D-02  0.24889969D-03
 -0.82465058D-17  0.21214653D-17  0.61250405D-17  0.20692957D-16  0.26010495D-02
  0.92003520D-04  0.18564643D-18  0.19836545D-17 -0.21693010D-17 -0.39391705D-18
  0.37259327D-04  0.13179254D-05 -0.65520393D-03 -0.23175671D-04  0.63558239D-18
 -0.65520411D-03 -0.23175677D-04  0.16006540D-18  0.26208159D-02  0.92702689D-04
 -0.20668126D-17  0.10083403D-16 -0.25239127D-02 -0.89275059D-04  0.59978571D-17
 -0.25238819D-02 -0.89273971D-04 -0.67171824D-16  0.10095620D-01  0.35709915D-03