 Molden2AIM, Version 4.0.0 (06/02/2016)           Time: Sun Jun 24 19:36:10 2018
GAUSSIAN              5 MOL ORBITALS    143 PRIMITIVES        2 NUCLEI
  H    1    (CENTRE  1)   0.00000000  0.00000000  1.73657327  CHARGE =  1.0
  F    2    (CENTRE  2)   0.00000000  0.00000000 -0.00407236  CHARGE =  9.0
CENTRE ASSIGNMENTS    1  1  1  1  1  1  1  1  1  1  1  1  1  1  1  1  1  1  1  1
CENTRE ASSIGNMENTS    1  1  1  1  1  1  1  1  1  1  1  1  1  1  1  1  1  1  1  1
CENTRE ASSIGNMENTS    1  2  2  2  2  2  2  2  2  2  2  2  2  2  2  2  2  2  2  2
CENTRE ASSIGNMENTS    2  2  2  2  2  2  2  2  2  2  2  2  2  2  2  2  2  2  2  2
CENTRE ASSIGNMENTS    2  2  2  2  2  2  2  2  2  2  2  2  2  2  2  2  2  2  2  2
CENTRE ASSIGNMENTS    2  2  2  2  2  2  2  2  2  2  2  2  2  2  2  2  2  2  2  2
CENTRE ASSIGNMENTS    2  2  2  2  2  2  2  2  2  2  2  2  2  2  2  2  2  2  2  2
CENTRE ASSIGNMENTS    2  2  2
TYPE ASSIGNMENTS      1  1  1  1  1  1  1  2  3  4  2  3  4  2  3  4  2  3  4  5
TYPE ASSIGNMENTS      6  7  8  9 10  5  6  7  8  9 10 11 12 13 17 14 15 18 19 16
TYPE ASSIGNMENTS     20  1  1  1  1  1  1  1  1  1  1  1  1  1  1  1  1  2  2  2
TYPE ASSIGNMENTS      2  2  3  3  3  3  3  4  4  4  4  4  2  3  4  2  3  4  2  3
TYPE ASSIGNMENTS      4  2  3  4  5  6  7  8  9 10  5  6  7  8  9 10  5  6  7  8
TYPE ASSIGNMENTS      9 10  5  6  7  8  9 10 11 12 13 17 14 15 18 19 16 20 11 12
TYPE ASSIGNMENTS     13 17 14 15 18 19 16 20 21 22 23 24 25 26 27 28 29 30 31 32
TYPE ASSIGNMENTS     33 34 35
EXPONENTS  0.1906917D+03 0.2860553D+02 0.6509594D+01 0.1841246D+01 0.5985373D+00
EXPONENTS  0.2139762D+00 0.8031629D-01 0.2292000D+01 0.2292000D+01 0.2292000D+01
EXPONENTS  0.8380000D+00 0.8380000D+00 0.8380000D+00 0.2920000D+00 0.2920000D+00
EXPONENTS  0.2920000D+00 0.8406320D-01 0.8406320D-01 0.8406320D-01 0.2062000D+01
EXPONENTS  0.2062000D+01 0.2062000D+01 0.2062000D+01 0.2062000D+01 0.2062000D+01
EXPONENTS  0.6620000D+00 0.6620000D+00 0.6620000D+00 0.6620000D+00 0.6620000D+00
EXPONENTS  0.6620000D+00 0.1397000D+01 0.1397000D+01 0.1397000D+01 0.1397000D+01
EXPONENTS  0.1397000D+01 0.1397000D+01 0.1397000D+01 0.1397000D+01 0.1397000D+01
EXPONENTS  0.1397000D+01 0.1325360D+06 0.1975811D+05 0.4485200D+04 0.1273815D+04
EXPONENTS  0.4189383D+03 0.1525572D+03 0.5982152D+02 0.2481908D+02 0.1007445D+03
EXPONENTS  0.3010373D+02 0.1081428D+02 0.4817289D+01 0.1655933D+01 0.6489352D+00
EXPONENTS  0.2477810D+00 0.8762624D-01 0.2409665D+03 0.5702070D+02 0.1812695D+02
EXPONENTS  0.6645740D+01 0.2637572D+01 0.2409665D+03 0.5702070D+02 0.1812695D+02
EXPONENTS  0.6645740D+01 0.2637572D+01 0.2409665D+03 0.5702070D+02 0.1812695D+02
EXPONENTS  0.6645740D+01 0.2637572D+01 0.1063822D+01 0.1063822D+01 0.1063822D+01
EXPONENTS  0.4193256D+00 0.4193256D+00 0.4193256D+00 0.1574759D+00 0.1574759D+00
EXPONENTS  0.1574759D+00 0.4677240D-01 0.4677240D-01 0.4677240D-01 0.5014000D+01
EXPONENTS  0.5014000D+01 0.5014000D+01 0.5014000D+01 0.5014000D+01 0.5014000D+01
EXPONENTS  0.1725000D+01 0.1725000D+01 0.1725000D+01 0.1725000D+01 0.1725000D+01
EXPONENTS  0.1725000D+01 0.5860000D+00 0.5860000D+00 0.5860000D+00 0.5860000D+00
EXPONENTS  0.5860000D+00 0.5860000D+00 0.1596799D+00 0.1596799D+00 0.1596799D+00
EXPONENTS  0.1596799D+00 0.1596799D+00 0.1596799D+00 0.3562000D+01 0.3562000D+01
EXPONENTS  0.3562000D+01 0.3562000D+01 0.3562000D+01 0.3562000D+01 0.3562000D+01
EXPONENTS  0.3562000D+01 0.3562000D+01 0.3562000D+01 0.1148000D+01 0.1148000D+01
EXPONENTS  0.1148000D+01 0.1148000D+01 0.1148000D+01 0.1148000D+01 0.1148000D+01
EXPONENTS  0.1148000D+01 0.1148000D+01 0.1148000D+01 0.2376000D+01 0.2376000D+01
EXPONENTS  0.2376000D+01 0.2376000D+01 0.2376000D+01 0.2376000D+01 0.2376000D+01
EXPONENTS  0.2376000D+01 0.2376000D+01 0.2376000D+01 0.2376000D+01 0.2376000D+01
EXPONENTS  0.2376000D+01 0.2376000D+01 0.2376000D+01
MO    1     MO 0.0        OCC NO =    2.0000000  ORB. ENERGY =  -24.766764
 -0.40239679D-04 -0.74892117D-04 -0.12620733D-03 -0.18841200D-03  0.14279335D-02
  0.42589840D-03  0.76379860D-04  0.47951450D-15 -0.78146830D-15  0.99776209D-04
 -0.26073423D-15 -0.27229534D-16 -0.21210906D-02  0.36304681D-15  0.94009001D-16
 -0.33232035D-03  0.45050727D-17  0.14080839D-17 -0.10759306D-04 -0.78521149D-03
 -0.78521149D-03  0.15704230D-02 -0.14067276D-14  0.49262846D-15 -0.13045177D-14
 -0.26665717D-03 -0.26665717D-03  0.53331435D-03  0.22493945D-15 -0.74304839D-15
 -0.18105702D-15 -0.24540361D-15 -0.58898336D-16 -0.44563577D-03 -0.31519558D-15
  0.12954918D-15  0.66845365D-03  0.10514064D-14  0.47145834D-16  0.66845365D-03
  0.34397177D-15  0.23115516D+00  0.43383313D+00  0.74862286D+00  0.12064533D+01
  0.18203285D+01  0.25220523D+01  0.29990551D+01  0.27221628D+01  0.92336308D-04
  0.33416965D-03  0.14763794D+01  0.32958056D+00  0.88641567D-02 -0.17908988D-02
 -0.42864875D-03 -0.11546760D-03  0.12831754D-15  0.16974148D-15  0.19035023D-15
  0.17589342D-15  0.11928140D-15 -0.46310100D-16 -0.61260098D-16 -0.68697844D-16
 -0.63480346D-16 -0.43048936D-16  0.44916148D-02  0.59416145D-02  0.66630012D-02
  0.61569563D-02  0.41753146D-02 -0.20493770D-15 -0.79283321D-17 -0.26954098D-02
 -0.18085576D-15 -0.69781692D-16 -0.71355022D-03 -0.72437077D-16 -0.18525663D-16
 -0.92407389D-04 -0.39548873D-18 -0.11231112D-17 -0.21520222D-05 -0.27537447D-02
 -0.27537447D-02  0.55074893D-02  0.18639758D-16  0.36174976D-15 -0.19430367D-15
  0.88782746D-03  0.88782746D-03 -0.17756549D-02  0.31852019D-16 -0.51249391D-15
 -0.40497219D-15  0.29625917D-03  0.29625917D-03 -0.59251834D-03 -0.71319033D-18
 -0.41169245D-15 -0.10323766D-15  0.26286769D-05  0.26286769D-05 -0.52573538D-05
 -0.11909383D-17 -0.47039623D-16 -0.16840744D-16 -0.12952701D-15 -0.15403948D-15
  0.62254533D-03 -0.14939038D-15 -0.15976759D-15 -0.93381800D-03  0.53797140D-15
  0.62188603D-15 -0.93381800D-03 -0.38847755D-16  0.85576636D-16  0.54647052D-16
 -0.69036406D-03  0.10961917D-15  0.47337115D-16  0.10355461D-02 -0.36634908D-15
 -0.21127827D-15  0.10355461D-02  0.16542865D-16 -0.28850308D-03 -0.28850308D-03
 -0.76934551D-03  0.37033189D-16  0.92588507D-16  0.36457985D-16 -0.92738542D-15
 -0.12922304D-15  0.12219254D-14 -0.57701805D-03  0.23080365D-02  0.23080365D-02
 -0.88361985D-15  0.10990359D-15 -0.22047352D-15
MO    2     MO 0.0        OCC NO =    2.0000000  ORB. ENERGY =   -1.235138
 -0.10801548D-01 -0.20103311D-01 -0.33877868D-01 -0.50575484D-01 -0.39400915D-01
 -0.97512190D-03  0.41092643D-03  0.64327866D-16  0.68748019D-16  0.30356224D-01
  0.19461287D-16 -0.10252972D-15  0.16089625D-01 -0.12174524D-16  0.61593950D-16
  0.29236010D-03  0.90317651D-17  0.11065716D-16 -0.12259751D-03  0.77164412D-02
  0.77164412D-02 -0.15432882D-01 -0.18390837D-15  0.58047883D-16 -0.23013682D-18
  0.64601342D-03  0.64601342D-03 -0.12920268D-02  0.49813404D-16 -0.30754653D-16
 -0.94102571D-16 -0.29343754D-16 -0.28908990D-16  0.17401845D-02 -0.17327363D-16
  0.80123651D-17 -0.26102767D-02  0.10535862D-15  0.78714606D-16 -0.26102767D-02
  0.34750079D-16  0.51826817D-01  0.97268823D-01  0.16784717D+00  0.27049639D+00
  0.40813207D+00  0.56546411D+00  0.67241190D+00  0.61033046D+00  0.55371913D-01
  0.20039368D+00  0.65362077D+00  0.12250263D+00 -0.34172286D+00 -0.25923256D+00
 -0.56072106D-01 -0.17052361D-02  0.72214575D-16  0.95527150D-16  0.10712535D-15
  0.98989338D-16  0.67129213D-16 -0.14227374D-15 -0.18820307D-15 -0.21105329D-15
 -0.19502411D-15 -0.13225480D-15 -0.17744610D+00 -0.23472991D+00 -0.26322907D+00
 -0.24323722D+00 -0.16495032D+00  0.76834428D-17 -0.98066842D-16 -0.76948279D-01
  0.16334504D-16 -0.30263800D-16 -0.15897688D-01 -0.12019685D-16 -0.24280368D-16
 -0.18390181D-02 -0.14927499D-17 -0.18551842D-17  0.63796539D-05  0.12927123D-01
  0.12927123D-01 -0.25854246D-01  0.88286904D-17 -0.70412602D-16 -0.89149220D-16
  0.13744446D-01  0.13744446D-01 -0.27488893D-01  0.28961520D-16  0.35300811D-17
 -0.16207055D-16  0.19528943D-02  0.19528943D-02 -0.39057885D-02 -0.70232533D-17
 -0.41963586D-16 -0.10082420D-15  0.93975477D-04  0.93975477D-04 -0.18795095D-03
  0.47138670D-18 -0.58727140D-17 -0.12654965D-16 -0.69289456D-17 -0.10207905D-16
 -0.12800261D-01  0.15928249D-17 -0.13874576D-17  0.19200392D-01  0.19194012D-16
  0.32011172D-16  0.19200392D-01 -0.60533089D-16  0.57204697D-17  0.20347507D-16
 -0.27830131D-02  0.11392621D-17  0.79108143D-17  0.41745197D-02 -0.18300671D-16
 -0.68953337D-16  0.41745197D-02  0.44842230D-16 -0.51145916D-03 -0.51145916D-03
 -0.13639158D-02  0.20010159D-16  0.21954508D-16  0.33433304D-16  0.31146404D-16
 -0.31844535D-16 -0.38084597D-16 -0.10229925D-02  0.40917474D-02  0.40917474D-02
  0.20814578D-16  0.29670082D-16 -0.16033039D-15
MO    3     MO 0.0        OCC NO =    2.0000000  ORB. ENERGY =   -0.570707
  0.18060519D-01  0.33613353D-01  0.56644834D-01  0.84563761D-01  0.94248774D-01
  0.39206686D-01  0.45838935D-02  0.45960047D-16  0.81975451D-16 -0.24349976D-01
 -0.61118259D-16 -0.59700216D-16 -0.30602195D-01  0.28677952D-16  0.42175895D-16
 -0.67083550D-02 -0.94557021D-18  0.17202753D-16 -0.20351390D-03 -0.10258167D-01
 -0.10258167D-01  0.20516333D-01  0.67433847D-16 -0.62823121D-16  0.32796828D-16
 -0.33624977D-02 -0.33624977D-02  0.67249954D-02 -0.42774841D-17 -0.31041988D-17
 -0.30828576D-16 -0.61322587D-17  0.86500506D-18 -0.57548453D-02 -0.26320702D-17
 -0.81528169D-17  0.86322680D-02  0.21028846D-16  0.55578017D-17  0.86322680D-02
 -0.86370628D-16  0.14504746D-01  0.27222577D-01  0.46975305D-01  0.75703690D-01
  0.11422372D+00  0.15825616D+00  0.18818759D+00  0.17081288D+00  0.15702107D-01
  0.56826699D-01  0.18887226D+00  0.30903184D-01 -0.95910056D-01 -0.94601974D-01
 -0.46943132D-01 -0.67563190D-02  0.24852821D-15  0.32875901D-15  0.36867449D-15
  0.34067421D-15  0.23102682D-15  0.53826775D-15  0.71203333D-15  0.79848313D-15
  0.73783953D-15  0.50036285D-15  0.11369819D+01  0.15040265D+01  0.16866343D+01
  0.15585369D+01  0.10569154D+01  0.95371534D-16  0.20500764D-15  0.44457201D+00
  0.24237594D-16  0.67333818D-16  0.10848697D+00  0.27872871D-17 -0.47160846D-17
  0.10101851D-01  0.58987222D-18 -0.52340479D-17  0.23899883D-04 -0.37770350D-01
 -0.37770350D-01  0.75540700D-01 -0.50438481D-17 -0.29980612D-16 -0.16675521D-16
 -0.18806328D-01 -0.18806328D-01  0.37612657D-01 -0.97144327D-18  0.39096251D-16
  0.39334794D-16 -0.18479951D-02 -0.18479951D-02  0.36959903D-02 -0.43057965D-17
 -0.22999678D-17 -0.37413746D-16 -0.13387749D-04 -0.13387749D-04  0.26775498D-04
 -0.14268490D-17 -0.21107269D-17 -0.47978677D-17 -0.79139448D-17  0.29145383D-17
  0.33032314D-01  0.78964955D-17  0.14276717D-17 -0.49548470D-01  0.15845339D-16
 -0.10171287D-16 -0.49548470D-01 -0.14640347D-16  0.55596295D-17  0.41898787D-17
  0.33273301D-02 -0.44254942D-17 -0.28222917D-17 -0.49909952D-02 -0.12253394D-16
 -0.97473443D-17 -0.49909952D-02 -0.46395002D-16  0.56079023D-03  0.56079023D-03
  0.14954468D-02 -0.62791206D-17 -0.10917718D-16 -0.25055886D-17  0.11698437D-16
  0.21543056D-16 -0.12768469D-16  0.11215990D-02 -0.44863404D-02 -0.44863404D-02
  0.32100962D-17 -0.31876014D-16  0.26354128D-16
MO    4     MO 0.0        OCC NO =    2.0000000  ORB. ENERGY =   -0.434898
 -0.45946618D-17 -0.85513592D-17 -0.14410652D-16 -0.21513328D-16 -0.10143689D-15
 -0.51637259D-15 -0.24331477D-15 -0.25433318D-02  0.17255748D-01 -0.26585488D-16
 -0.27909480D-02  0.18935750D-01  0.83537479D-16 -0.10784762D-02  0.73171394D-02
  0.14854369D-15 -0.55926257D-04  0.37944298D-03  0.39869270D-16 -0.13120562D-16
  0.25939832D-16 -0.12819270D-16  0.12441237D-15  0.35050965D-02 -0.23781035D-01
  0.14244916D-16  0.10361075D-16 -0.24605992D-16 -0.77164141D-16  0.13805162D-02
 -0.93663907D-02  0.44810328D-03 -0.30402471D-02  0.90004273D-17  0.44810337D-03
 -0.30402478D-02 -0.11941023D-15 -0.17924132D-02  0.12160989D-01  0.92408947D-16
  0.86928568D-16 -0.27046769D-18 -0.50761509D-18 -0.87594108D-18 -0.14116347D-17
 -0.21299116D-17 -0.29509775D-17 -0.35091041D-17 -0.31851208D-17 -0.88564072D-17
 -0.32051774D-16  0.25400067D-16 -0.65154704D-16  0.69880920D-16 -0.73384982D-16
  0.35653711D-15  0.35661761D-15 -0.19426939D+00 -0.25698416D+00 -0.28818526D+00
 -0.26629803D+00 -0.18058891D+00  0.13180599D+01  0.17435609D+01  0.19552511D+01
  0.18067527D+01  0.12252419D+01 -0.33675354D-15 -0.44546556D-15 -0.49955068D-15
 -0.46161055D-15 -0.31303930D-15 -0.77733623D-01  0.52739945D+00 -0.14277718D-15
 -0.22433346D-01  0.15220356D+00  0.13258898D-15 -0.32708841D-02  0.22191973D-01
  0.17749195D-15 -0.59435314D-04  0.40325088D-03  0.87514326D-17  0.31554243D-16
  0.61794011D-17 -0.37733644D-16 -0.59788512D-16 -0.96259814D-02  0.65309414D-01
  0.35098683D-16 -0.49003252D-16  0.13904569D-16  0.25458134D-15 -0.63975861D-02
  0.43405715D-01 -0.27257289D-16 -0.10562035D-16  0.37819324D-16 -0.75255845D-17
 -0.16545704D-02  0.11225767D-01 -0.17008030D-16 -0.16833693D-16  0.33841722D-16
  0.58556778D-17 -0.99195139D-04  0.67300945D-03  0.18207888D-02 -0.12353509D-01
  0.97430173D-17  0.18207720D-02 -0.12353395D-01  0.25484917D-15 -0.72831384D-02
  0.49413922D-01 -0.28407822D-15 -0.49064129D-15  0.41027388D-03 -0.27835860D-02
  0.10484180D-16  0.41027355D-03 -0.27835837D-02 -0.63985134D-16 -0.16410952D-02
  0.11134342D-01  0.32532593D-16  0.30377084D-15 -0.12104479D-16 -0.12693837D-17
 -0.28273233D-16  0.83600990D-16  0.87182746D-03 -0.28136592D-16 -0.59150894D-02
 -0.11624320D-02  0.78867546D-02 -0.44698111D-16  0.11732498D-15  0.52314413D-16
 -0.59149956D-02  0.87181364D-03 -0.16639319D-15
MO    5     MO 0.0        OCC NO =    2.0000000  ORB. ENERGY =   -0.434898
 -0.56921678D-17 -0.10593984D-16 -0.17852859D-16 -0.26652120D-16  0.95245651D-16
  0.32008408D-15 -0.43945002D-16  0.17255748D-01  0.25433318D-02  0.99325150D-17
  0.18935750D-01  0.27909480D-02 -0.17880313D-15  0.73171394D-02  0.10784762D-02
 -0.14905786D-15  0.37944298D-03  0.55926257D-04  0.10857839D-16  0.31711397D-16
 -0.72815712D-16  0.41104315D-16  0.28015963D-16 -0.23781035D-01 -0.35050965D-02
 -0.23126126D-16 -0.44513948D-16  0.67640074D-16 -0.29040697D-16 -0.93663907D-02
 -0.13805162D-02 -0.30402471D-02 -0.44810328D-03 -0.30479147D-16 -0.30402478D-02
 -0.44810337D-03 -0.41243986D-17  0.12160989D-01  0.17924132D-02  0.95561838D-16
 -0.81662827D-16 -0.36139615D-17 -0.67827006D-17 -0.11704235D-16 -0.18862118D-16
 -0.28459660D-16 -0.39430659D-16 -0.46888288D-16 -0.42559257D-16 -0.27939111D-17
 -0.10111302D-16 -0.35135447D-16 -0.16744843D-16  0.60845611D-16 -0.54720227D-16
 -0.26815872D-15  0.13219710D-16  0.13180599D+01  0.17435609D+01  0.19552511D+01
  0.18067527D+01  0.12252419D+01  0.19426939D+00  0.25698416D+00  0.28818526D+00
  0.26629803D+00  0.18058891D+00 -0.15082809D-15 -0.19951897D-15 -0.22374308D-15
 -0.20675013D-15 -0.14020675D-15  0.52739945D+00  0.77733623D-01 -0.15524481D-15
  0.15220356D+00  0.22433346D-01 -0.21750699D-15  0.22191973D-01  0.32708841D-02
 -0.79076192D-16  0.40325088D-03  0.59435314D-04  0.17818229D-17  0.57695640D-16
 -0.11296744D-15  0.55271805D-16  0.18676966D-15  0.65309414D-01  0.96259814D-02
 -0.35300109D-16  0.69778859D-16 -0.34478750D-16  0.45744198D-16  0.43405715D-01
  0.63975861D-02  0.49143261D-16  0.43477156D-16 -0.92620417D-16 -0.52893298D-17
  0.11225767D-01  0.16545704D-02  0.48512491D-17  0.54674063D-17 -0.10318655D-16
 -0.60967531D-18  0.67300945D-03  0.99195139D-04 -0.12353509D-01 -0.18207888D-02
  0.15329072D-16 -0.12353395D-01 -0.18207720D-02  0.23688308D-15  0.49413922D-01
  0.72831384D-02 -0.28287030D-15 -0.11059761D-15 -0.27835860D-02 -0.41027388D-03
 -0.34698062D-16 -0.27835837D-02 -0.41027355D-03 -0.22911838D-16  0.11134342D-01
  0.16410952D-02  0.12700602D-15  0.26200621D-16 -0.16093132D-16 -0.46232766D-17
 -0.27635412D-16  0.25261496D-17 -0.59150894D-02 -0.14899371D-16 -0.87182746D-03
  0.78867546D-02  0.11624320D-02 -0.20757012D-16  0.11731580D-15  0.48496672D-16
 -0.87181364D-03 -0.59149956D-02  0.37119664D-16
END DATA
RHF
