 Molden2AIM, Version 4.0.0 (06/02/2016)           Time: Wed Jun 27 19:45:43 2018
GAUSSIAN              3 MOL ORBITALS    154 PRIMITIVES        2 NUCLEI
  Li   1    (CENTRE  1)   0.00000000  0.00000000  2.59176694  CHARGE =  3.0
  Li   2    (CENTRE  2)   0.00000000  0.00000000 -2.59176694  CHARGE =  3.0
CENTRE ASSIGNMENTS    1  1  1  1  1  1  1  1  1  1  1  1  1  1  1  1  1  1  1  1
CENTRE ASSIGNMENTS    1  1  1  1  1  1  1  1  1  1  1  1  1  1  1  1  1  1  1  1
CENTRE ASSIGNMENTS    1  1  1  1  1  1  1  1  1  1  1  1  1  1  1  1  1  1  1  1
CENTRE ASSIGNMENTS    1  1  1  1  1  1  1  1  1  1  1  1  1  1  1  1  1  2  2  2
CENTRE ASSIGNMENTS    2  2  2  2  2  2  2  2  2  2  2  2  2  2  2  2  2  2  2  2
CENTRE ASSIGNMENTS    2  2  2  2  2  2  2  2  2  2  2  2  2  2  2  2  2  2  2  2
CENTRE ASSIGNMENTS    2  2  2  2  2  2  2  2  2  2  2  2  2  2  2  2  2  2  2  2
CENTRE ASSIGNMENTS    2  2  2  2  2  2  2  2  2  2  2  2  2  2
TYPE ASSIGNMENTS      1  1  1  1  1  1  1  1  1  1  1  1  1  1  1  1  1  1  1  1
TYPE ASSIGNMENTS      1  2  2  2  3  3  3  4  4  4  2  3  4  2  3  4  2  3  4  5
TYPE ASSIGNMENTS      6  7  8  9 10  5  6  7  8  9 10  5  6  7  8  9 10 11 12 13
TYPE ASSIGNMENTS     17 14 15 18 19 16 20 11 12 13 17 14 15 18 19 16 20  1  1  1
TYPE ASSIGNMENTS      1  1  1  1  1  1  1  1  1  1  1  1  1  1  1  1  1  1  2  2
TYPE ASSIGNMENTS      2  3  3  3  4  4  4  2  3  4  2  3  4  2  3  4  5  6  7  8
TYPE ASSIGNMENTS      9 10  5  6  7  8  9 10  5  6  7  8  9 10 11 12 13 17 14 15
TYPE ASSIGNMENTS     18 19 16 20 11 12 13 17 14 15 18 19 16 20
EXPONENTS  0.5988000D+04 0.8989000D+03 0.2059000D+03 0.5924000D+02 0.1987000D+02
EXPONENTS  0.7406000D+01 0.2930000D+01 0.1189000D+01 0.4798000D+00 0.5988000D+04
EXPONENTS  0.8989000D+03 0.2059000D+03 0.5924000D+02 0.1987000D+02 0.7406000D+01
EXPONENTS  0.2930000D+01 0.1189000D+01 0.4798000D+00 0.7509000D-01 0.2832000D-01
EXPONENTS  0.7600000D-02 0.3266000D+01 0.6511000D+00 0.1696000D+00 0.3266000D+01
EXPONENTS  0.6511000D+00 0.1696000D+00 0.3266000D+01 0.6511000D+00 0.1696000D+00
EXPONENTS  0.5578000D-01 0.5578000D-01 0.5578000D-01 0.2050000D-01 0.2050000D-01
EXPONENTS  0.2050000D-01 0.9100000D-02 0.9100000D-02 0.9100000D-02 0.1874000D+00
EXPONENTS  0.1874000D+00 0.1874000D+00 0.1874000D+00 0.1874000D+00 0.1874000D+00
EXPONENTS  0.8010000D-01 0.8010000D-01 0.8010000D-01 0.8010000D-01 0.8010000D-01
EXPONENTS  0.8010000D-01 0.3710000D-01 0.3710000D-01 0.3710000D-01 0.3710000D-01
EXPONENTS  0.3710000D-01 0.3710000D-01 0.1829000D+00 0.1829000D+00 0.1829000D+00
EXPONENTS  0.1829000D+00 0.1829000D+00 0.1829000D+00 0.1829000D+00 0.1829000D+00
EXPONENTS  0.1829000D+00 0.1829000D+00 0.8160000D-01 0.8160000D-01 0.8160000D-01
EXPONENTS  0.8160000D-01 0.8160000D-01 0.8160000D-01 0.8160000D-01 0.8160000D-01
EXPONENTS  0.8160000D-01 0.8160000D-01 0.5988000D+04 0.8989000D+03 0.2059000D+03
EXPONENTS  0.5924000D+02 0.1987000D+02 0.7406000D+01 0.2930000D+01 0.1189000D+01
EXPONENTS  0.4798000D+00 0.5988000D+04 0.8989000D+03 0.2059000D+03 0.5924000D+02
EXPONENTS  0.1987000D+02 0.7406000D+01 0.2930000D+01 0.1189000D+01 0.4798000D+00
EXPONENTS  0.7509000D-01 0.2832000D-01 0.7600000D-02 0.3266000D+01 0.6511000D+00
EXPONENTS  0.1696000D+00 0.3266000D+01 0.6511000D+00 0.1696000D+00 0.3266000D+01
EXPONENTS  0.6511000D+00 0.1696000D+00 0.5578000D-01 0.5578000D-01 0.5578000D-01
EXPONENTS  0.2050000D-01 0.2050000D-01 0.2050000D-01 0.9100000D-02 0.9100000D-02
EXPONENTS  0.9100000D-02 0.1874000D+00 0.1874000D+00 0.1874000D+00 0.1874000D+00
EXPONENTS  0.1874000D+00 0.1874000D+00 0.8010000D-01 0.8010000D-01 0.8010000D-01
EXPONENTS  0.8010000D-01 0.8010000D-01 0.8010000D-01 0.3710000D-01 0.3710000D-01
EXPONENTS  0.3710000D-01 0.3710000D-01 0.3710000D-01 0.3710000D-01 0.1829000D+00
EXPONENTS  0.1829000D+00 0.1829000D+00 0.1829000D+00 0.1829000D+00 0.1829000D+00
EXPONENTS  0.1829000D+00 0.1829000D+00 0.1829000D+00 0.1829000D+00 0.8160000D-01
EXPONENTS  0.8160000D-01 0.8160000D-01 0.8160000D-01 0.8160000D-01 0.8160000D-01
EXPONENTS  0.8160000D-01 0.8160000D-01 0.8160000D-01 0.8160000D-01
MO    1     MO 0.0        OCC NO =    2.0000000  ORB. ENERGY =   -2.021005
  0.45420766D-01  0.84420685D-01  0.14376697D+00  0.22420807D+00  0.31323143D+00
  0.37337762D+00  0.35396077D+00  0.22480087D+00  0.55204480D-01 -0.25934631D-04
 -0.47952234D-04 -0.80864061D-04 -0.12884957D-03 -0.17960660D-03 -0.22884802D-03
 -0.22726971D-03 -0.20500264D-03 -0.11733968D-03  0.67964915D-04  0.17882087D-03
 -0.92380860D-05 -0.23635623D-17 -0.17343493D-17 -0.14241832D-17  0.30547175D-16
  0.22415094D-16  0.18406443D-16  0.19412981D-02  0.14244976D-02  0.11697446D-02
  0.96517226D-17 -0.90861149D-17 -0.42115368D-03 -0.42935458D-17  0.14903459D-17
  0.26074573D-04  0.52617179D-18 -0.49808715D-18 -0.17375303D-05  0.10378026D-03
  0.10378026D-03 -0.20756051D-03  0.13057875D-17  0.63795211D-17  0.63684739D-18
 -0.10414239D-03 -0.10414239D-03  0.20828478D-03  0.20669273D-17 -0.55202561D-17
 -0.16963703D-17  0.32602473D-05  0.32602473D-05 -0.65204946D-05 -0.48301173D-18
  0.14391654D-17  0.64534860D-19 -0.63950984D-19 -0.23591626D-18 -0.48612213D-04
 -0.84825037D-19 -0.38660935D-18  0.72918320D-04  0.27667799D-18  0.10943581D-17
  0.72918320D-04  0.43720899D-18 -0.10031204D-18  0.34462307D-19 -0.21108878D-04
 -0.10153323D-18  0.54072882D-19  0.31663317D-04  0.40246934D-18 -0.15745980D-18
  0.31663317D-04  0.18003494D-18  0.45420766D-01  0.84420685D-01  0.14376697D+00
  0.22420807D+00  0.31323143D+00  0.37337762D+00  0.35396077D+00  0.22480087D+00
  0.55204480D-01 -0.25934631D-04 -0.47952234D-04 -0.80864061D-04 -0.12884957D-03
 -0.17960660D-03 -0.22884802D-03 -0.22726971D-03 -0.20500264D-03 -0.11733968D-03
  0.67964917D-04  0.17882087D-03 -0.92380865D-05  0.18200671D-16  0.13355400D-16
  0.10966959D-16 -0.85155184D-17 -0.62485694D-17 -0.51310931D-17 -0.19412981D-02
 -0.14244976D-02 -0.11697446D-02 -0.68551874D-17 -0.15218644D-17  0.42115368D-03
  0.34361924D-17  0.14781640D-17 -0.26074572D-04 -0.87642232D-19  0.11972639D-19
  0.17375302D-05  0.10378026D-03  0.10378026D-03 -0.20756051D-03  0.23002019D-17
  0.35869748D-17  0.25319216D-17 -0.10414239D-03 -0.10414239D-03  0.20828478D-03
 -0.15243881D-17 -0.43581176D-17 -0.73886594D-18  0.32602473D-05  0.32602473D-05
 -0.65204946D-05  0.21175113D-18  0.67800592D-18  0.23824736D-18 -0.59218898D-19
  0.45203527D-18  0.48612213D-04 -0.93884482D-19 -0.60422117D-20 -0.72918320D-04
  0.27154118D-18 -0.13500636D-17 -0.72918320D-04 -0.45432671D-18  0.26682974D-18
 -0.11165840D-18  0.21108878D-04  0.26860211D-18 -0.32004822D-19 -0.31663317D-04
 -0.10690913D-17  0.36698001D-18 -0.31663317D-04  0.27092417D-18
MO    2     MO 0.0        OCC NO =    2.0000000  ORB. ENERGY =   -2.020732
 -0.45713810D-01 -0.84965346D-01 -0.14469452D+00 -0.22565460D+00 -0.31525233D+00
 -0.37578657D+00 -0.35624444D+00 -0.22625123D+00 -0.55560646D-01  0.24558802D-03
  0.45408374D-03  0.76574233D-03  0.12201412D-02  0.17007849D-02  0.21670767D-02
  0.21521308D-02  0.19412728D-02  0.11111482D-02 -0.62560700D-02 -0.10033388D-01
  0.17381675D-02 -0.13692061D-16 -0.10047045D-16 -0.82502600D-17  0.52728895D-16
  0.38691732D-16  0.31772214D-16 -0.65409426D-03 -0.47996531D-03 -0.39412969D-03
  0.91481670D-17 -0.82617274D-17  0.37122260D-02 -0.42829225D-17  0.14428333D-17
  0.67297743D-03  0.52732995D-18 -0.48468595D-18 -0.13650006D-03 -0.24256213D-04
 -0.24256213D-04  0.48512427D-04  0.10938072D-17  0.59449304D-17  0.89452257D-18
  0.18943253D-03  0.18943253D-03 -0.37886506D-03  0.20913214D-17 -0.52915278D-17
 -0.17819113D-17  0.49202169D-04  0.49202169D-04 -0.98404337D-04 -0.49816161D-18
  0.14353030D-17  0.14966031D-19 -0.76989395D-19 -0.20519474D-18 -0.15408319D-04
 -0.10152124D-18 -0.37756152D-18  0.23112478D-04  0.33248942D-18  0.99314574D-18
  0.23112478D-04  0.47892772D-18 -0.94681989D-19  0.25174688D-19  0.25330360D-04
 -0.96153040D-19  0.46453306D-19 -0.37995540D-04  0.38019901D-18 -0.12197737D-18
 -0.37995540D-04  0.18592381D-18  0.45713810D-01  0.84965346D-01  0.14469452D+00
  0.22565460D+00  0.31525233D+00  0.37578656D+00  0.35624443D+00  0.22625123D+00
  0.55560646D-01 -0.24558802D-03 -0.45408374D-03 -0.76574233D-03 -0.12201412D-02
 -0.17007849D-02 -0.21670767D-02 -0.21521308D-02 -0.19412728D-02 -0.11111482D-02
  0.62560700D-02  0.10033388D-01 -0.17381675D-02  0.18223487D-16  0.13372142D-16
  0.10980707D-16 -0.81931682D-17 -0.60120333D-17 -0.49368585D-17 -0.65409426D-03
 -0.47996531D-03 -0.39412969D-03 -0.65978724D-17 -0.18598451D-17  0.37122260D-02
  0.34101098D-17  0.14598719D-17  0.67297743D-03 -0.84962201D-19  0.33808355D-20
 -0.13650006D-03  0.24256213D-04  0.24256213D-04 -0.48512427D-04  0.21248849D-17
  0.35290238D-17  0.27385534D-17 -0.18943253D-03 -0.18943253D-03  0.37886506D-03
 -0.15483159D-17 -0.42812330D-17 -0.79047094D-18 -0.49202169D-04 -0.49202169D-04
  0.98404337D-04  0.22651754D-18  0.71527018D-18  0.20581233D-18 -0.27414052D-19
  0.43303212D-18 -0.15408319D-04 -0.77968505D-19 -0.32407420D-19  0.23112478D-04
  0.16021066D-18 -0.12666889D-17  0.23112478D-04 -0.49914103D-18  0.25808884D-18
 -0.10921851D-18  0.25330360D-04  0.26228989D-18 -0.30701060D-19 -0.37995540D-04
 -0.10365564D-17  0.35835658D-18 -0.37995540D-04  0.27895144D-18
MO    3     MO 0.0        OCC NO =    2.0000000  ORB. ENERGY =   -0.138739
  0.24118130D-02  0.44826833D-02  0.76339325D-02  0.11905302D-01  0.16632385D-01
  0.19826108D-01  0.18795086D-01  0.11936779D-01  0.29313219D-02  0.61960053D-02
  0.11456199D-01  0.19319116D-01  0.30783265D-01  0.42909554D-01  0.54673752D-01
  0.54296679D-01  0.48976885D-01  0.28033454D-01 -0.36888732D-01 -0.11545346D-01
 -0.13199359D-03  0.52503713D-17  0.38526497D-17  0.31636529D-17  0.51901863D-18
  0.38084868D-18  0.31273879D-18  0.14284206D-01  0.10481552D-01  0.86070615D-02
  0.38005689D-17  0.41777592D-18  0.15576682D-02  0.35712749D-18 -0.15456756D-17
  0.62212217D-05 -0.19581419D-18  0.26808051D-18  0.17326726D-04  0.26727983D-03
  0.26727983D-03 -0.53455965D-03 -0.36990359D-18  0.23342054D-17  0.63049152D-17
 -0.10494208D-03 -0.10494208D-03  0.20988417D-03 -0.23064477D-18 -0.24816113D-17
 -0.82537672D-18 -0.96381655D-05 -0.96381655D-05  0.19276331D-04 -0.83284860D-19
  0.45582459D-19  0.21255987D-18  0.56609400D-19 -0.32360692D-19  0.91240596D-05
 -0.21338495D-18 -0.58663072D-19 -0.13686089D-04  0.43556754D-19  0.15574515D-18
 -0.13686089D-04  0.62210376D-18 -0.40921688D-19 -0.59340159D-19 -0.42028042D-04
 -0.72788326D-19 -0.44874610D-19  0.63042063D-04  0.19555339D-18  0.22289509D-18
  0.63042063D-04 -0.48629132D-18  0.24118130D-02  0.44826833D-02  0.76339325D-02
  0.11905302D-01  0.16632385D-01  0.19826108D-01  0.18795086D-01  0.11936779D-01
  0.29313219D-02  0.61960053D-02  0.11456199D-01  0.19319116D-01  0.30783265D-01
  0.42909554D-01  0.54673752D-01  0.54296679D-01  0.48976885D-01  0.28033454D-01
 -0.36888732D-01 -0.11545346D-01 -0.13199359D-03  0.18513110D-17  0.13584664D-17
  0.11155221D-17 -0.38174737D-17 -0.28012093D-17 -0.23002490D-17 -0.14284206D-01
 -0.10481552D-01 -0.86070615D-02 -0.11254841D-17  0.12981069D-17 -0.15576682D-02
  0.15878846D-17 -0.68824538D-18 -0.62212215D-05 -0.11124019D-18  0.24983717D-18
 -0.17326726D-04  0.26727983D-03  0.26727983D-03 -0.53455965D-03 -0.31854622D-18
 -0.13699715D-18 -0.12821436D-17 -0.10494208D-03 -0.10494208D-03  0.20988417D-03
  0.66598012D-18 -0.29716353D-17 -0.23274020D-18 -0.96381655D-05 -0.96381655D-05
  0.19276331D-04 -0.44443698D-18  0.24755775D-19  0.27709191D-18  0.57077702D-19
  0.20008708D-18 -0.91240596D-05 -0.24304753D-19  0.18564898D-18  0.13686089D-04
 -0.14692835D-18 -0.78591021D-18  0.13686089D-04 -0.19806126D-18  0.11533666D-18
 -0.81401919D-19  0.42028042D-04  0.14292682D-18 -0.66364910D-19 -0.63042063D-04
 -0.48893678D-18  0.31057067D-18 -0.63042063D-04 -0.89882464D-19
END DATA
RHF
