 Molden2AIM, Version 4.0.0 (06/02/2016)           Time: Wed Jun 27 19:45:36 2018
GAUSSIAN             10 MOL ORBITALS    208 PRIMITIVES        2 NUCLEI
  Li   1    (CENTRE  1)   0.00000000  0.00000000  3.38620969  CHARGE =  3.0
  Cl   2    (CENTRE  2)   0.00000000  0.00000000 -0.43086701  CHARGE = 17.0
CENTRE ASSIGNMENTS    1  1  1  1  1  1  1  1  1  1  1  1  1  1  1  1  1  1  1  1
CENTRE ASSIGNMENTS    1  1  1  1  1  1  1  1  1  1  1  1  1  1  1  1  1  1  1  1
CENTRE ASSIGNMENTS    1  1  1  1  1  1  1  1  1  1  1  1  1  1  1  1  1  1  1  1
CENTRE ASSIGNMENTS    1  1  1  1  1  1  1  1  1  1  1  1  1  1  1  1  1  2  2  2
CENTRE ASSIGNMENTS    2  2  2  2  2  2  2  2  2  2  2  2  2  2  2  2  2  2  2  2
CENTRE ASSIGNMENTS    2  2  2  2  2  2  2  2  2  2  2  2  2  2  2  2  2  2  2  2
CENTRE ASSIGNMENTS    2  2  2  2  2  2  2  2  2  2  2  2  2  2  2  2  2  2  2  2
CENTRE ASSIGNMENTS    2  2  2  2  2  2  2  2  2  2  2  2  2  2  2  2  2  2  2  2
CENTRE ASSIGNMENTS    2  2  2  2  2  2  2  2  2  2  2  2  2  2  2  2  2  2  2  2
CENTRE ASSIGNMENTS    2  2  2  2  2  2  2  2  2  2  2  2  2  2  2  2  2  2  2  2
CENTRE ASSIGNMENTS    2  2  2  2  2  2  2  2
TYPE ASSIGNMENTS      1  1  1  1  1  1  1  1  1  1  1  1  1  1  1  1  1  1  1  1
TYPE ASSIGNMENTS      1  2  2  2  3  3  3  4  4  4  2  3  4  2  3  4  2  3  4  5
TYPE ASSIGNMENTS      6  7  8  9 10  5  6  7  8  9 10  5  6  7  8  9 10 11 12 13
TYPE ASSIGNMENTS     17 14 15 18 19 16 20 11 12 13 17 14 15 18 19 16 20  1  1  1
TYPE ASSIGNMENTS      1  1  1  1  1  1  1  1  1  1  1  1  1  1  1  1  1  1  1  1
TYPE ASSIGNMENTS      1  1  1  1  1  1  1  1  1  1  1  1  1  1  1  1  1  1  1  2
TYPE ASSIGNMENTS      2  2  2  2  2  2  3  3  3  3  3  3  3  4  4  4  4  4  4  4
TYPE ASSIGNMENTS      2  2  2  2  2  2  2  3  3  3  3  3  3  3  4  4  4  4  4  4
TYPE ASSIGNMENTS      4  2  3  4  2  3  4  2  3  4  5  6  7  8  9 10  5  6  7  8
TYPE ASSIGNMENTS      9 10  5  6  7  8  9 10 11 12 13 17 14 15 18 19 16 20 11 12
TYPE ASSIGNMENTS     13 17 14 15 18 19 16 20
EXPONENTS  0.5988000D+04 0.8989000D+03 0.2059000D+03 0.5924000D+02 0.1987000D+02
EXPONENTS  0.7406000D+01 0.2930000D+01 0.1189000D+01 0.4798000D+00 0.5988000D+04
EXPONENTS  0.8989000D+03 0.2059000D+03 0.5924000D+02 0.1987000D+02 0.7406000D+01
EXPONENTS  0.2930000D+01 0.1189000D+01 0.4798000D+00 0.7509000D-01 0.2832000D-01
EXPONENTS  0.7600000D-02 0.3266000D+01 0.6511000D+00 0.1696000D+00 0.3266000D+01
EXPONENTS  0.6511000D+00 0.1696000D+00 0.3266000D+01 0.6511000D+00 0.1696000D+00
EXPONENTS  0.5578000D-01 0.5578000D-01 0.5578000D-01 0.2050000D-01 0.2050000D-01
EXPONENTS  0.2050000D-01 0.9100000D-02 0.9100000D-02 0.9100000D-02 0.1874000D+00
EXPONENTS  0.1874000D+00 0.1874000D+00 0.1874000D+00 0.1874000D+00 0.1874000D+00
EXPONENTS  0.8010000D-01 0.8010000D-01 0.8010000D-01 0.8010000D-01 0.8010000D-01
EXPONENTS  0.8010000D-01 0.3710000D-01 0.3710000D-01 0.3710000D-01 0.3710000D-01
EXPONENTS  0.3710000D-01 0.3710000D-01 0.1829000D+00 0.1829000D+00 0.1829000D+00
EXPONENTS  0.1829000D+00 0.1829000D+00 0.1829000D+00 0.1829000D+00 0.1829000D+00
EXPONENTS  0.1829000D+00 0.1829000D+00 0.8160000D-01 0.8160000D-01 0.8160000D-01
EXPONENTS  0.8160000D-01 0.8160000D-01 0.8160000D-01 0.8160000D-01 0.8160000D-01
EXPONENTS  0.8160000D-01 0.8160000D-01 0.4561000D+06 0.6833000D+05 0.1555000D+05
EXPONENTS  0.4405000D+04 0.1439000D+04 0.5204000D+03 0.2031000D+03 0.8396000D+02
EXPONENTS  0.3620000D+02 0.1583000D+02 0.6334000D+01 0.2694000D+01 0.4313000D+00
EXPONENTS  0.4561000D+06 0.6833000D+05 0.1555000D+05 0.4405000D+04 0.1439000D+04
EXPONENTS  0.5204000D+03 0.2031000D+03 0.8396000D+02 0.3620000D+02 0.1583000D+02
EXPONENTS  0.6334000D+01 0.2694000D+01 0.4313000D+00 0.4561000D+06 0.6833000D+05
EXPONENTS  0.1555000D+05 0.4405000D+04 0.1439000D+04 0.5204000D+03 0.2031000D+03
EXPONENTS  0.8396000D+02 0.3620000D+02 0.1583000D+02 0.6334000D+01 0.2694000D+01
EXPONENTS  0.4313000D+00 0.9768000D+00 0.1625000D+00 0.5910000D-01 0.6633000D+03
EXPONENTS  0.1568000D+03 0.4998000D+02 0.1842000D+02 0.7240000D+01 0.2922000D+01
EXPONENTS  0.3818000D+00 0.6633000D+03 0.1568000D+03 0.4998000D+02 0.1842000D+02
EXPONENTS  0.7240000D+01 0.2922000D+01 0.3818000D+00 0.6633000D+03 0.1568000D+03
EXPONENTS  0.4998000D+02 0.1842000D+02 0.7240000D+01 0.2922000D+01 0.3818000D+00
EXPONENTS  0.6633000D+03 0.1568000D+03 0.4998000D+02 0.1842000D+02 0.7240000D+01
EXPONENTS  0.2922000D+01 0.3818000D+00 0.6633000D+03 0.1568000D+03 0.4998000D+02
EXPONENTS  0.1842000D+02 0.7240000D+01 0.2922000D+01 0.3818000D+00 0.6633000D+03
EXPONENTS  0.1568000D+03 0.4998000D+02 0.1842000D+02 0.7240000D+01 0.2922000D+01
EXPONENTS  0.3818000D+00 0.1022000D+01 0.1022000D+01 0.1022000D+01 0.1301000D+00
EXPONENTS  0.1301000D+00 0.1301000D+00 0.4190000D-01 0.4190000D-01 0.4190000D-01
EXPONENTS  0.1046000D+01 0.1046000D+01 0.1046000D+01 0.1046000D+01 0.1046000D+01
EXPONENTS  0.1046000D+01 0.3440000D+00 0.3440000D+00 0.3440000D+00 0.3440000D+00
EXPONENTS  0.3440000D+00 0.3440000D+00 0.1350000D+00 0.1350000D+00 0.1350000D+00
EXPONENTS  0.1350000D+00 0.1350000D+00 0.1350000D+00 0.7060000D+00 0.7060000D+00
EXPONENTS  0.7060000D+00 0.7060000D+00 0.7060000D+00 0.7060000D+00 0.7060000D+00
EXPONENTS  0.7060000D+00 0.7060000D+00 0.7060000D+00 0.3120000D+00 0.3120000D+00
EXPONENTS  0.3120000D+00 0.3120000D+00 0.3120000D+00 0.3120000D+00 0.3120000D+00
EXPONENTS  0.3120000D+00 0.3120000D+00 0.3120000D+00
MO    1     MO 0.0        OCC NO =    2.0000000  ORB. ENERGY = -101.633735
 -0.12091956D-04 -0.22474548D-04 -0.38273769D-04 -0.59688867D-04 -0.83388745D-04
 -0.99400916D-04 -0.94231743D-04 -0.59846682D-04 -0.14696585D-04  0.87025883D-05
  0.16090784D-04  0.27134630D-04  0.43236580D-04  0.60268538D-04  0.76791921D-04
  0.76262304D-04  0.68790397D-04  0.39374337D-04  0.16007182D-03  0.12888982D-04
 -0.54294519D-06  0.64705318D-17  0.47479866D-17  0.38988703D-17  0.34039313D-17
  0.24977576D-17  0.20510658D-17 -0.11060702D-03 -0.81161900D-04 -0.66647139D-04
 -0.13094806D-17 -0.66719735D-17 -0.51088836D-04 -0.25710475D-17  0.47519188D-18
  0.31796267D-05  0.69788180D-18 -0.43982638D-18 -0.43475012D-06  0.76722740D-06
  0.76722740D-06 -0.15344548D-05  0.51781381D-17  0.80792868D-17  0.51276424D-17
 -0.65573896D-05 -0.65573896D-05  0.13114779D-04  0.20645477D-17  0.24839590D-17
  0.28973862D-17 -0.98735749D-07 -0.98735749D-07  0.19747150D-06 -0.24794278D-18
  0.26226664D-17 -0.38257320D-18  0.74666486D-18 -0.94399911D-18  0.63196438D-05
  0.27105616D-18  0.48010595D-17 -0.94794657D-05 -0.25110507D-17 -0.19690622D-17
 -0.94794657D-05 -0.20862200D-17 -0.11620142D-18  0.11680415D-18 -0.17246870D-05
  0.15129234D-18 -0.54330255D-18  0.25870305D-05  0.19731191D-18  0.19289011D-18
  0.25870305D-05  0.22281685D-17  0.61705659D+00  0.11545153D+01  0.19947466D+01
  0.32337169D+01  0.49106571D+01  0.68252359D+01  0.81142208D+01  0.72275238D+01
  0.35879592D+01  0.57807772D+00  0.88750328D-02  0.15859596D-02  0.59264837D-04
 -0.67967523D-03 -0.12695357D-02 -0.22033408D-02 -0.35751267D-02 -0.55338716D-02
 -0.79212344D-02 -0.10339685D-01 -0.11018660D-01 -0.82366720D-02 -0.43479928D-03
  0.55869550D-02  0.33192931D-02 -0.12444861D-04  0.26833018D-03  0.50079961D-03
  0.87034565D-03  0.14105743D-02  0.21908427D-02  0.31384453D-02  0.41440246D-02
  0.44809199D-02  0.35130993D-02  0.17481066D-03 -0.30116143D-02 -0.31175791D-02
  0.14107486D-02 -0.22523821D-02 -0.60286044D-03 -0.58690273D-04  0.10181035D-16
  0.13410709D-16  0.14795153D-16  0.12289075D-16  0.65270265D-17  0.16835105D-17
 -0.17305916D-20 -0.84477682D-16 -0.11127607D-15 -0.12276357D-15 -0.10196926D-15
 -0.54158349D-16 -0.13969018D-16  0.14359676D-19  0.22058820D-02  0.29056417D-02
  0.32056035D-02  0.26626222D-02  0.14141833D-02  0.36475913D-03 -0.37495999D-06
 -0.21820973D-15 -0.28649337D-15 -0.32619378D-15 -0.27620750D-15 -0.15822229D-15
 -0.35990081D-16  0.16845339D-16 -0.53345638D-16 -0.70038913D-16 -0.79744455D-16
 -0.67524329D-16 -0.38680535D-16 -0.87984798D-17  0.41181728D-17 -0.17286742D-02
 -0.22696225D-02 -0.25841322D-02 -0.21881370D-02 -0.12534491D-02 -0.28511619D-03
  0.13345007D-03  0.48601188D-16 -0.67527642D-17 -0.12891147D-03  0.20758678D-16
 -0.10662733D-17 -0.12111106D-03 -0.26593008D-17  0.54098248D-17 -0.39408312D-06
 -0.28680779D-04 -0.28680779D-04  0.57361559D-04 -0.15936150D-16 -0.65745970D-16
  0.10996298D-15  0.54488151D-05  0.54488151D-05 -0.10897630D-04 -0.37580376D-17
 -0.14673541D-16  0.20801870D-16  0.65902983D-05  0.65902983D-05 -0.13180597D-04
  0.19539463D-18  0.27324084D-17  0.93772223D-17 -0.91339386D-17  0.19595572D-18
  0.42389703D-04 -0.12730159D-16  0.51801345D-17 -0.63584555D-04  0.40131975D-16
 -0.57680016D-17 -0.63584555D-04  0.30717816D-17  0.10559103D-17 -0.22550261D-17
 -0.15760810D-04  0.12316400D-17 -0.57529517D-18  0.23641215D-04 -0.43993708D-17
  0.73403734D-17  0.23641215D-04  0.23782455D-17
MO    2     MO 0.0        OCC NO =    2.0000000  ORB. ENERGY =   -9.437406
 -0.30127698D-04 -0.55996434D-04 -0.95360964D-04 -0.14871773D-03 -0.20776713D-03
 -0.24766223D-03 -0.23478299D-03 -0.14911093D-03 -0.36617258D-04  0.23828417D-04
  0.44057917D-04  0.74296895D-04  0.11838538D-03  0.16502031D-03  0.21026272D-03
  0.20881259D-03  0.18835388D-03  0.10781024D-03  0.38618185D-03  0.92121987D-05
 -0.76915547D-06  0.16120903D-17  0.11829295D-17  0.97137779D-18  0.16141588D-16
  0.11844474D-16  0.97262421D-17 -0.25471707D-03 -0.18690785D-03 -0.15348179D-03
  0.39878983D-17  0.10156707D-17 -0.12641369D-03  0.12547642D-17 -0.45276562D-18
  0.10986608D-04 -0.32496326D-18  0.31037988D-18 -0.14583891D-05  0.12268561D-04
  0.12268561D-04 -0.24537121D-04  0.23568530D-16 -0.34013892D-17  0.17072650D-16
 -0.18618733D-04 -0.18618733D-04  0.37237466D-04  0.51115501D-18 -0.36871051D-17
 -0.12858205D-17  0.76299059D-07  0.76299059D-07 -0.15259812D-06 -0.24070993D-18
  0.55461370D-18 -0.14956405D-17  0.72408205D-18 -0.21454311D-17  0.20741567D-04
  0.11519281D-17 -0.18557196D-17 -0.31112350D-04 -0.33241743D-17  0.82920129D-17
 -0.31112350D-04 -0.22233710D-17 -0.30220513D-18  0.13143883D-18 -0.48771322D-05
 -0.53676718D-18  0.44415648D-18  0.73156983D-05  0.14433826D-17 -0.83847297D-18
  0.73156983D-05  0.29882113D-17  0.26957388D-02  0.50437377D-02  0.87144614D-02
  0.14127158D-01  0.21453217D-01  0.29817449D-01  0.35448645D-01  0.31574926D-01
  0.15674739D-01  0.25254516D-02  0.38772409D-04  0.69285913D-05  0.25891065D-06
  0.16883332D+00  0.31535640D+00  0.54731633D+00  0.88807197D+00  0.13746299D+01
  0.19676579D+01  0.25684082D+01  0.27370675D+01  0.20460135D+01  0.10800542D+00
 -0.13878160D+01 -0.82452216D+00  0.30913399D-02  0.96689630D-03  0.18045726D-02
  0.31361884D-02  0.50828388D-02  0.78944444D-02  0.11309019D-01  0.14932506D-01
  0.16146469D-01  0.12659041D-01  0.62990969D-03 -0.10851999D-01 -0.11233830D-01
  0.50834672D-02 -0.71383059D-01 -0.21736924D-02 -0.20975131D-04 -0.12561735D-14
 -0.16546625D-14 -0.18254803D-14 -0.15162712D-14 -0.80532849D-15 -0.20771771D-15
  0.21352674D-18  0.12289815D-14  0.16188444D-14  0.17859646D-14  0.14834489D-14
  0.78789575D-15  0.20322130D-15 -0.20890459D-18 -0.13894306D-01 -0.18301919D-01
 -0.20191305D-01 -0.16771199D-01 -0.89075914D-02 -0.22975277D-02  0.23617803D-05
 -0.26853268D-15 -0.35256373D-15 -0.40141974D-15 -0.33990575D-15 -0.19471110D-15
 -0.44290020D-16  0.20730167D-16  0.14655968D-15  0.19242212D-15  0.21908674D-15
  0.18551365D-15  0.10626936D-15  0.24172593D-16 -0.11314104D-16 -0.54083067D-02
 -0.71007103D-02 -0.80846810D-02 -0.68457759D-02 -0.39215240D-02 -0.89201065D-03
  0.41751008D-03  0.28369548D-17  0.12484069D-16 -0.68936418D-03 -0.22325861D-16
  0.49382170D-17 -0.30988713D-03 -0.19471508D-17 -0.37114335D-17  0.38295079D-05
  0.11680559D-04  0.11680559D-04 -0.23361118D-04  0.89701539D-18 -0.26336203D-16
  0.41895784D-16 -0.72754063D-06 -0.72754063D-06  0.14550813D-05 -0.16018064D-16
 -0.52370930D-17  0.13137875D-16  0.17980117D-04  0.17980117D-04 -0.35960234D-04
  0.23784448D-17 -0.15039357D-17 -0.99164636D-17 -0.22350550D-16 -0.74993966D-18
  0.89061443D-04 -0.34330259D-16  0.20040341D-16 -0.13359216D-03  0.10138191D-15
 -0.17790522D-16 -0.13359216D-03  0.46659339D-16  0.29654359D-17  0.16429659D-17
 -0.37285225D-04  0.41390746D-17 -0.22065081D-17  0.55927838D-04 -0.13035382D-16
 -0.27223897D-17  0.55927838D-04 -0.58864811D-17
MO    3     MO 0.0        OCC NO =    2.0000000  ORB. ENERGY =   -7.167377
  0.33660912D-04  0.62563392D-04  0.10654438D-03  0.16615853D-03  0.23213293D-03
  0.27670672D-03  0.26231707D-03  0.16659785D-03  0.40911532D-04 -0.30813165D-04
 -0.56972475D-04 -0.96075308D-04 -0.15308732D-03 -0.21339219D-03 -0.27189637D-03
 -0.27002116D-03 -0.24356545D-03 -0.13941231D-03 -0.25516265D-03 -0.10115496D-03
  0.34150733D-05 -0.66108672D-16 -0.48509627D-16 -0.39834305D-16  0.43924167D-16
  0.32230945D-16  0.26466855D-16 -0.86243965D-04 -0.63284626D-04 -0.51966985D-04
 -0.40371725D-16  0.10781616D-15  0.73694165D-04  0.63151285D-17 -0.12283579D-16
  0.53400816D-05 -0.15667871D-17  0.11127948D-17 -0.55015870D-06 -0.47528234D-04
 -0.47528234D-04  0.95056468D-04 -0.11675857D-16 -0.20120142D-16  0.76471927D-16
  0.23287355D-05  0.23287355D-05 -0.46574711D-05 -0.97392974D-18  0.27878012D-16
 -0.97211861D-16  0.92918657D-06  0.92918657D-06 -0.18583731D-05  0.34819861D-18
  0.10166886D-17  0.37839731D-17 -0.33696933D-17  0.14358407D-16 -0.20793576D-04
 -0.36484657D-17  0.15002988D-16  0.31190365D-04  0.13757546D-16 -0.58078209D-16
  0.31190365D-04 -0.55072444D-18  0.14719989D-17 -0.54704923D-17 -0.22912200D-06
  0.16281903D-17 -0.57123525D-17  0.34368300D-06 -0.60441869D-17  0.22123830D-16
  0.34368300D-06 -0.17412923D-17  0.24624652D-05  0.46072819D-05  0.79603625D-05
  0.12904676D-04  0.19596780D-04  0.27237220D-04  0.32381125D-04  0.28842615D-04
  0.14318338D-04  0.23069137D-05  0.35417269D-07  0.63290313D-08  0.23650602D-09
  0.28749299D-03  0.53699562D-03  0.93198194D-03  0.15122279D-02  0.23407492D-02
  0.33505699D-02  0.43735403D-02  0.46607370D-02  0.34839955D-02  0.18391393D-03
 -0.23632028D-02 -0.14040139D-02  0.52639997D-05  0.21330711D-04  0.39810698D-04
  0.69187490D-04  0.11213257D-03  0.17415943D-03  0.24948841D-03  0.32942620D-03
  0.35620744D-03  0.27927125D-03  0.13896445D-04 -0.23940607D-03 -0.24782967D-03
  0.11214643D-03 -0.38407253D-04 -0.49818701D-03  0.53951591D-03  0.53564931D-11
  0.70557035D-11  0.77840939D-11  0.64655847D-11  0.34340291D-11  0.88573628D-12
 -0.91050678D-15 -0.22203090D-10 -0.29246452D-10 -0.32265689D-10 -0.26800363D-10
 -0.14234324D-10 -0.36714474D-11  0.37741231D-14  0.11482598D+02  0.15125158D+02
  0.16686593D+02  0.13860133D+02  0.73614535D+01  0.18987336D+01 -0.19518336D-02
  0.63956692D-14  0.83970448D-14  0.95606532D-14  0.80955685D-14  0.46374533D-14
  0.10548597D-14 -0.49373241D-15 -0.27893007D-13 -0.36621473D-13 -0.41696241D-13
 -0.35306664D-13 -0.20225017D-13 -0.46004896D-14  0.21532823D-14  0.19120599D-01
  0.25103945D-01  0.28582688D-01  0.24202646D-01  0.13864208D-01  0.31536262D-02
 -0.14760706D-02  0.44456514D-13 -0.18416824D-12  0.95904584D-01  0.22435382D-15
 -0.89722301D-15  0.44429330D-03  0.67767531D-18  0.24433613D-16  0.16581266D-04
 -0.34662865D-03 -0.34662865D-03  0.69325729D-03  0.14622604D-16  0.40733046D-15
 -0.15848203D-14  0.99954294D-04  0.99954294D-04 -0.19990859D-03  0.13995411D-16
 -0.10596509D-15  0.42893093D-15 -0.26978541D-04 -0.26978541D-04  0.53957081D-04
 -0.34187350D-17  0.44717482D-16 -0.13256778D-15  0.41827768D-17  0.32645573D-16
 -0.12168942D-05  0.79363096D-17  0.25271070D-16  0.18253413D-05 -0.20484640D-16
 -0.12320779D-15  0.18253413D-05 -0.66889669D-17  0.11534601D-17 -0.91846427D-17
  0.50208320D-05  0.76574745D-18 -0.72345917D-17 -0.75312480D-05 -0.42261277D-17
  0.34788520D-16 -0.75312480D-05  0.48353829D-18
MO    4     MO 0.0        OCC NO =    2.0000000  ORB. ENERGY =   -7.166804
 -0.28499105D-16 -0.52969471D-16 -0.90206097D-16 -0.14067859D-15 -0.19653599D-15
 -0.23427452D-15 -0.22209148D-15 -0.14105054D-15 -0.34637863D-16  0.34952506D-16
  0.64625973D-16  0.10898175D-15  0.17365257D-15  0.24205861D-15  0.30842205D-15
  0.30629493D-15  0.27628525D-15  0.15814051D-15  0.29365470D-15  0.13556136D-15
 -0.29311793D-17 -0.21033071D-04 -0.15433776D-04 -0.12673644D-04  0.21315893D-04
  0.15641307D-04  0.12844060D-04  0.25818925D-15  0.18945570D-15  0.15557398D-15
 -0.42202436D-04  0.42769912D-04 -0.80144805D-16  0.44880256D-05 -0.45483739D-05
 -0.11392308D-16 -0.50726469D-06  0.51408563D-06  0.16449081D-17  0.84500033D-16
  0.93732922D-16 -0.17823295D-15  0.19019663D-16 -0.31265154D-04  0.31685561D-04
 -0.25041556D-17  0.67906281D-18  0.18250928D-17 -0.94615395D-17  0.40133750D-04
 -0.40673409D-04 -0.82500218D-18 -0.97873455D-18  0.18037367D-17  0.27361220D-18
 -0.11266160D-05  0.11417650D-05 -0.48704133D-05  0.49359034D-05  0.33596736D-16
 -0.48704241D-05  0.49359143D-05 -0.51213474D-16  0.19481664D-04 -0.19743624D-04
 -0.49576733D-16 -0.84157607D-17  0.20553666D-05 -0.20830041D-05  0.16647850D-17
  0.20553617D-05 -0.20829992D-05 -0.18331192D-17 -0.82214616D-05  0.83320116D-05
 -0.31612358D-17 -0.17387454D-17 -0.41170216D-16 -0.77029632D-16 -0.13309014D-15
 -0.21575464D-15 -0.32764063D-15 -0.45538195D-15 -0.54138344D-15 -0.48222273D-15
 -0.23938980D-15 -0.38569532D-16 -0.59214506D-18 -0.10581574D-18 -0.39541691D-20
 -0.40262147D-15 -0.75203910D-15 -0.13052003D-14 -0.21178097D-14 -0.32781179D-14
 -0.46923280D-14 -0.61249537D-14 -0.65271602D-14 -0.48791848D-14 -0.25756350D-15
  0.33095631D-14  0.19662607D-14 -0.73720035D-17 -0.89228887D-16 -0.16653286D-15
 -0.28941945D-15 -0.46906379D-15 -0.72852951D-15 -0.10436395D-14 -0.13780288D-14
 -0.14900579D-14 -0.11682247D-14 -0.58130474D-16  0.10014639D-14  0.10367008D-14
 -0.46912178D-15  0.46767746D-16  0.10899138D-14 -0.78810393D-15  0.80696163D+01
  0.10629496D+02  0.11726824D+02  0.97404752D+01  0.51734030D+01  0.13343715D+01
 -0.13716886D-02 -0.81781245D+01 -0.10772425D+02 -0.11884509D+02 -0.98714506D+01
 -0.52429672D+01 -0.13523142D+01  0.13901330D-02 -0.19549043D-10 -0.25750477D-10
 -0.28408809D-10 -0.23596781D-10 -0.12532824D-10 -0.32325808D-11  0.33229832D-14
  0.99895055D-02  0.13115488D-01  0.14932948D-01  0.12644607D-01  0.72433180D-02
  0.16476035D-02 -0.77116913D-03 -0.10123830D-01 -0.13291846D-01 -0.15133745D-01
 -0.12814633D-01 -0.73407153D-02 -0.16697581D-02  0.78153867D-03 -0.35136059D-13
 -0.46131069D-13 -0.52523616D-13 -0.44474841D-13 -0.25476901D-13 -0.57951111D-14
  0.27124309D-14  0.66944498D-01 -0.67844669D-01 -0.16382480D-12  0.32851117D-03
 -0.33292850D-03 -0.66992222D-15 -0.50461074D-05  0.51139600D-05 -0.22822927D-16
  0.72374219D-15  0.29883553D-15 -0.10225777D-14 -0.27255023D-16  0.59331675D-03
 -0.60129479D-03 -0.23412548D-15 -0.13513335D-15  0.36925882D-15  0.15912807D-17
 -0.15455580D-03  0.15663404D-03  0.48861736D-16  0.36687787D-16 -0.85549523D-16
  0.24602476D-17  0.54704519D-04 -0.55440105D-04 -0.11870105D-04  0.12029717D-04
  0.10022386D-15 -0.11878384D-04  0.12038106D-04 -0.23763003D-15  0.47488699D-04
 -0.48127257D-04 -0.63041551D-16 -0.13162998D-15  0.30126592D-05 -0.30531689D-05
  0.29524388D-17  0.30137193D-05 -0.30542433D-05  0.40064733D-17 -0.12051697D-04
  0.12213750D-04 -0.12863790D-16  0.94343553D-18
MO    5     MO 0.0        OCC NO =    2.0000000  ORB. ENERGY =   -7.166804
  0.14780430D-16  0.27471443D-16  0.46783395D-16  0.72959834D-16  0.10192904D-15
  0.12150129D-15  0.11518283D-15  0.73152737D-16  0.17964161D-16 -0.21057310D-16
 -0.38934237D-16 -0.65656597D-16 -0.10461785D-15 -0.14582941D-15 -0.18581039D-15
 -0.18452889D-15 -0.16644942D-15 -0.95272534D-16 -0.26881107D-15 -0.12498201D-15
  0.50941191D-17 -0.21315893D-04 -0.15641307D-04 -0.12844060D-04 -0.21033071D-04
 -0.15433776D-04 -0.12673644D-04 -0.12281860D-15 -0.90122584D-16 -0.74005320D-16
 -0.42769912D-04 -0.42202436D-04  0.80350111D-16  0.45483739D-05  0.44880256D-05
  0.39271661D-17 -0.51408563D-06 -0.50726469D-06 -0.49413319D-18 -0.37636310D-16
 -0.53802581D-16  0.91438891D-16  0.28677527D-16 -0.31685561D-04 -0.31265154D-04
  0.54224655D-18  0.14408185D-17 -0.19830651D-17 -0.18807524D-17  0.40673409D-04
  0.40133750D-04  0.11564395D-17  0.12689947D-17 -0.24254342D-17  0.61583762D-18
 -0.11417650D-05 -0.11266160D-05 -0.49359034D-05 -0.48704133D-05 -0.19736543D-16
 -0.49359143D-05 -0.48704241D-05  0.26199366D-16  0.19743624D-04  0.19481664D-04
  0.33010263D-16 -0.31425828D-16  0.20830041D-05  0.20553666D-05 -0.12726647D-17
  0.20829992D-05  0.20553617D-05  0.31401283D-17 -0.83320116D-05 -0.82214616D-05
  0.67786594D-18 -0.70799925D-18  0.24743006D-16  0.46294259D-16  0.79986224D-16
  0.12966700D-15  0.19690968D-15  0.27368130D-15  0.32536758D-15  0.28981242D-15
  0.14387156D-15  0.23180014D-16  0.35587495D-18  0.63594505D-19  0.23764274D-20
  0.25648700D-15  0.47908088D-15  0.83146811D-15  0.13491348D-14  0.20883005D-14
  0.29892124D-14  0.39018560D-14  0.41580786D-14  0.31082482D-14  0.16407890D-15
 -0.21083324D-14 -0.12525917D-14  0.46962797D-17  0.52937633D-16  0.98800464D-16
  0.17170651D-15  0.27828574D-15  0.43222132D-15  0.61916952D-15  0.81755566D-15
  0.88402018D-15  0.69308328D-15  0.34487595D-16 -0.59414761D-15 -0.61505292D-15
  0.27832015D-15 -0.66224964D-16 -0.62834309D-15  0.61501158D-15  0.81781245D+01
  0.10772425D+02  0.11884509D+02  0.98714506D+01  0.52429672D+01  0.13523142D+01
 -0.13901330D-02  0.80696163D+01  0.10629496D+02  0.11726824D+02  0.97404752D+01
  0.51734030D+01  0.13343715D+01 -0.13716886D-02  0.11772124D-10  0.15506530D-10
  0.17107335D-10  0.14209608D-10  0.75470681D-11  0.19466090D-11 -0.20010479D-14
  0.10123830D-01  0.13291846D-01  0.15133745D-01  0.12814633D-01  0.73407153D-02
  0.16697581D-02 -0.78153867D-03  0.99895055D-02  0.13115488D-01  0.14932948D-01
  0.12644607D-01  0.72433180D-02  0.16476035D-02 -0.77116913D-03  0.21187543D-13
  0.27817691D-13  0.31672488D-13  0.26818962D-13  0.15362934D-13  0.34945345D-14
 -0.16356345D-14  0.67844669D-01  0.66944498D-01  0.98716475D-13  0.33292850D-03
  0.32851117D-03  0.46066704D-15 -0.51139600D-05 -0.50461074D-05  0.27175514D-16
  0.43866802D-16 -0.63429859D-15  0.59043179D-15  0.20609866D-16  0.60129479D-03
  0.59331675D-03  0.39324098D-16  0.16873401D-15 -0.20805811D-15  0.56538150D-16
 -0.15663404D-03 -0.15455580D-03 -0.19270915D-16 -0.36864340D-16  0.56135255D-16
 -0.11717952D-16  0.55440105D-04  0.54704519D-04 -0.12029717D-04 -0.11870105D-04
 -0.38801709D-16 -0.12038106D-04 -0.11878384D-04 -0.54340880D-16  0.48127257D-04
  0.47488699D-04  0.17074601D-15 -0.14574250D-15  0.30531689D-05  0.30126592D-05
 -0.36381429D-18  0.30542433D-05  0.30137193D-05  0.12021520D-16 -0.12213750D-04
 -0.12051697D-04 -0.10930077D-16 -0.12922832D-16
MO    6     MO 0.0        OCC NO =    2.0000000  ORB. ENERGY =   -2.048960
 -0.64661328D-01 -0.12018189D+00 -0.20466769D+00 -0.31918421D+00 -0.44591851D+00
 -0.53154306D+00 -0.50390108D+00 -0.32002812D+00 -0.78589494D-01  0.39058456D-03
  0.72217733D-03  0.12178409D-02  0.19405193D-02  0.27049379D-02  0.34465308D-02
  0.34227609D-02  0.30874111D-02  0.17671764D-02  0.27542992D-02 -0.65829502D-04
  0.55472123D-05 -0.46933083D-18 -0.34438846D-18 -0.28279902D-18  0.97754214D-19
  0.71730687D-19  0.58902577D-19 -0.64689167D-02 -0.47468014D-02 -0.38978971D-02
 -0.31725723D-19 -0.58359767D-19  0.12586181D-03 -0.63683640D-19  0.23425591D-19
 -0.23694000D-04  0.24265716D-19 -0.44426381D-20  0.48454830D-05 -0.34093371D-03
 -0.34093371D-03  0.68186743D-03  0.29228165D-18  0.20865326D-18 -0.32546738D-18
  0.68095734D-04  0.68095734D-04 -0.13619147D-03 -0.23662695D-19 -0.74941000D-19
  0.65513921D-19  0.34831941D-06  0.34831941D-06 -0.69663882D-06  0.19326038D-19
  0.84335262D-21 -0.15068422D-20  0.57603664D-21  0.19621959D-19 -0.69793108D-05
 -0.10803176D-19  0.22000541D-19  0.10468966D-04  0.90750658D-20 -0.80866418D-19
  0.10468966D-04 -0.48515269D-19  0.22920543D-20 -0.27087481D-20  0.19817119D-04
  0.53182793D-20 -0.19353698D-22 -0.29725679D-04 -0.12194442D-19  0.81455980D-20
 -0.29725679D-04  0.95909807D-20  0.49360929D-03  0.92354488D-03  0.15956810D-02
  0.25867849D-02  0.39282393D-02  0.54597907D-02  0.64909035D-02  0.57815975D-02
  0.28701581D-02  0.46242846D-03  0.70995087D-05  0.12686752D-05  0.47408414D-07
 -0.97624356D-03 -0.18234828D-02 -0.31647428D-02 -0.51350915D-02 -0.79485117D-02
 -0.11377572D-01 -0.14851286D-01 -0.15826523D-01 -0.11830647D-01 -0.62451886D-03
  0.80247574D-02  0.47676279D-02 -0.17875030D-04  0.24664991D-03  0.46033652D-03
  0.80002435D-03  0.12966041D-02  0.20138292D-02  0.28848685D-02  0.38092000D-02
  0.41188751D-02  0.32292515D-02  0.16068649D-03 -0.27682850D-02 -0.28656881D-02
  0.12967644D-02 -0.34608748D-03 -0.19023383D-02 -0.22014692D-02  0.12050662D-15
  0.15873426D-15  0.17512107D-15  0.14545818D-15  0.77256373D-16  0.19926672D-16
 -0.20483942D-19  0.10885032D-15  0.14338031D-15  0.15818207D-15  0.13138839D-15
  0.69783565D-16  0.17999217D-16 -0.18502583D-19  0.22137716D-01  0.29160340D-01
  0.32170686D-01  0.26721453D-01  0.14192413D-01  0.36606372D-02 -0.37630106D-05
 -0.72052915D-17 -0.94600195D-17 -0.10770928D-16 -0.91203796D-17 -0.52245046D-17
 -0.11883935D-17  0.55623358D-18  0.25677808D-17  0.33713080D-17  0.38384821D-17
  0.32502690D-17  0.18618792D-17  0.42351293D-18 -0.19822736D-18  0.15856303D-02
  0.20818163D-02  0.23703010D-02  0.20070735D-02  0.11497290D-02  0.26152346D-03
 -0.12240737D-03  0.10738018D-17  0.64098134D-18 -0.17236556D-02 -0.77409694D-19
  0.10624220D-18 -0.36214621D-02  0.11234875D-18 -0.40157375D-19 -0.19689616D-03
 -0.43949600D-04 -0.43949600D-04  0.87899199D-04  0.40896963D-18  0.14447282D-18
 -0.43701363D-18  0.50994612D-03  0.50994612D-03 -0.10198922D-02  0.18446239D-18
  0.85361341D-19  0.33563185D-18  0.40391971D-03  0.40391971D-03 -0.80783942D-03
 -0.13440339D-19  0.31968286D-19 -0.25794511D-19  0.13897224D-19  0.11554898D-18
  0.82429653D-03  0.59402395D-19 -0.74965402D-19 -0.12364448D-02 -0.10109407D-18
 -0.27168154D-18 -0.12364448D-02 -0.52978912D-18 -0.39226468D-20 -0.55389922D-19
 -0.73953510D-03  0.18911299D-20 -0.50274969D-19  0.11093027D-02  0.98768104D-20
  0.21644473D-18  0.11093027D-02  0.90136255D-19
MO    7     MO 0.0        OCC NO =    2.0000000  ORB. ENERGY =   -0.734090
  0.18334062D-02  0.34076354D-02  0.58031444D-02  0.90501438D-02  0.12643566D-01
  0.15071363D-01  0.14287603D-01  0.90740721D-02  0.22283252D-02  0.11658130D-02
  0.21555479D-02  0.36349997D-02  0.57920434D-02  0.80736725D-02  0.10287172D-01
  0.10216224D-01  0.92152748D-02  0.52746510D-02 -0.78885699D-02 -0.88844040D-03
  0.36708206D-04  0.38240874D-16  0.28060624D-16  0.23042342D-16 -0.60794973D-18
 -0.44610508D-18 -0.36632493D-18  0.10783352D-01  0.79126740D-02  0.64975941D-02
 -0.61639035D-17 -0.63814834D-17  0.15455760D-02  0.19786023D-17  0.37901277D-19
 -0.85816540D-05 -0.58901217D-18  0.17153377D-18 -0.26859073D-05  0.87294733D-03
  0.87294733D-03 -0.17458947D-02  0.29642173D-17  0.43071909D-17 -0.80745238D-17
  0.97816005D-04  0.97816005D-04 -0.19563201D-03 -0.16208243D-17 -0.60842376D-17
  0.68774702D-17  0.78849574D-05  0.78849574D-05 -0.15769915D-04 -0.24948823D-18
  0.58069253D-18 -0.37792683D-18 -0.45658411D-18  0.36323027D-18  0.28365852D-03
 -0.51393790D-18  0.15120142D-17 -0.42548778D-03  0.18836902D-17 -0.26017050D-17
 -0.42548778D-03  0.37779855D-18  0.89561821D-19 -0.50031456D-19  0.11749525D-05
  0.13336722D-18  0.38558182D-19 -0.17624287D-05 -0.40205268D-18  0.11153619D-18
 -0.17624287D-05 -0.69082065D-18  0.12309621D-02  0.23031348D-02  0.39793067D-02
  0.64509202D-02  0.97962370D-02  0.13615617D-01  0.16187005D-01  0.14418139D-01
  0.71575959D-02  0.11532034D-02  0.17704744D-04  0.31638203D-05  0.11822703D-06
 -0.36388142D-02 -0.67967825D-02 -0.11796146D-01 -0.19140351D-01 -0.29626989D-01
 -0.42408344D-01 -0.55356136D-01 -0.58991199D-01 -0.44097119D-01 -0.23278086D-02
  0.29911185D-01  0.17770680D-01 -0.66626728D-04 -0.49856740D-01 -0.93050421D-01
 -0.16171344D+00 -0.26208992D+00 -0.40706667D+00 -0.58313476D+00 -0.76997511D+00
 -0.83257149D+00 -0.65274684D+00 -0.32480467D-01  0.55956908D+00  0.57925773D+00
 -0.26212232D+00 -0.53504039D-01 -0.66823344D-01  0.38842395D-02  0.27690749D-15
  0.36474931D-15  0.40240393D-15  0.33424272D-15  0.17752443D-15  0.45788729D-16
 -0.47069256D-19  0.55671546D-15  0.73331920D-15  0.80902287D-15  0.67198649D-15
  0.35690835D-15  0.92057074D-16 -0.94631543D-19  0.44011261D-01  0.57972708D-01
  0.63957477D-01  0.53124037D-01  0.28215466D-01  0.72775918D-02 -0.74811170D-05
 -0.32030165D-16 -0.42053259D-16 -0.47880729D-16 -0.40543435D-16 -0.23224841D-16
 -0.52828455D-17  0.24726624D-17 -0.24162568D-15 -0.31723681D-15 -0.36119745D-15
 -0.30584716D-15 -0.17520103D-15 -0.39852156D-16  0.18653002D-16  0.86940765D-01
  0.11414685D+00  0.12996459D+00  0.11004867D+00  0.63040118D-01  0.14339440D-01
 -0.67116469D-02  0.37075416D-16  0.93011195D-17 -0.13013211D-01 -0.54840816D-17
  0.19734527D-17  0.87140724D-03  0.42384097D-17  0.33363420D-17  0.37270510D-03
  0.22652250D-02  0.22652250D-02 -0.45304500D-02  0.19775940D-16 -0.13780870D-16
 -0.77834911D-18  0.52819611D-03  0.52819611D-03 -0.10563922D-02  0.53171680D-17
 -0.42723396D-17 -0.31052543D-17  0.15325466D-05  0.15325466D-05 -0.30650931D-05
  0.11044117D-17 -0.17284858D-17  0.27498492D-17  0.18761880D-17  0.21702052D-17
 -0.37938401D-03 -0.31464675D-17 -0.60992423D-18  0.56907602D-03 -0.24820964D-17
 -0.59006913D-17  0.56907602D-03  0.70362798D-17 -0.56662730D-18 -0.15974109D-17
 -0.30106892D-03 -0.10825944D-18 -0.69132952D-18  0.45160337D-03  0.18081413D-17
  0.54835621D-17  0.45160337D-03 -0.59623752D-18
MO    8     MO 0.0        OCC NO =    2.0000000  ORB. ENERGY =   -0.287449
 -0.24894928D-02 -0.46270616D-02 -0.78798064D-02 -0.12288748D-01 -0.17168081D-01
 -0.20464668D-01 -0.19400438D-01 -0.12321239D-01 -0.30257340D-02 -0.40258214D-02
 -0.74436043D-02 -0.12552493D-01 -0.20001262D-01 -0.27880254D-01 -0.35523979D-01
 -0.35278977D-01 -0.31822470D-01 -0.18214587D-01  0.28026259D-01  0.24570024D-02
 -0.94822102D-04  0.16611739D-16  0.12189464D-16  0.10009535D-16  0.11256218D-16