 Molden2AIM, Version 4.0.0 (06/02/2016)           Time: Wed Jun 27 19:51:58 2018
GAUSSIAN              6 MOL ORBITALS    152 PRIMITIVES        2 NUCLEI
  Li   1    (CENTRE  1)   0.00000000  0.00000000  2.95919773  CHARGE =  3.0
  F    2    (CENTRE  2)   0.00000000  0.00000000 -0.00385504  CHARGE =  9.0
CENTRE ASSIGNMENTS    1  1  1  1  1  1  1  1  1  1  1  1  1  1  1  1  1  1  1  1
CENTRE ASSIGNMENTS    1  1  1  1  1  1  1  1  1  1  1  1  1  1  1  1  1  1  1  1
CENTRE ASSIGNMENTS    1  1  1  1  1  1  1  1  1  1  1  1  1  1  1  1  1  1  1  1
CENTRE ASSIGNMENTS    1  1  1  1  1  1  1  1  1  1  1  1  1  1  1  1  1  2  2  2
CENTRE ASSIGNMENTS    2  2  2  2  2  2  2  2  2  2  2  2  2  2  2  2  2  2  2  2
CENTRE ASSIGNMENTS    2  2  2  2  2  2  2  2  2  2  2  2  2  2  2  2  2  2  2  2
CENTRE ASSIGNMENTS    2  2  2  2  2  2  2  2  2  2  2  2  2  2  2  2  2  2  2  2
CENTRE ASSIGNMENTS    2  2  2  2  2  2  2  2  2  2  2  2
TYPE ASSIGNMENTS      1  1  1  1  1  1  1  1  1  1  1  1  1  1  1  1  1  1  1  1
TYPE ASSIGNMENTS      1  2  2  2  3  3  3  4  4  4  2  3  4  2  3  4  2  3  4  5
TYPE ASSIGNMENTS      6  7  8  9 10  5  6  7  8  9 10  5  6  7  8  9 10 11 12 13
TYPE ASSIGNMENTS     17 14 15 18 19 16 20 11 12 13 17 14 15 18 19 16 20  1  1  1
TYPE ASSIGNMENTS      1  1  1  1  1  1  1  1  1  1  1  1  1  1  1  1  2  2  2  3
TYPE ASSIGNMENTS      3  3  4  4  4  2  3  4  2  3  4  2  3  4  5  6  7  8  9 10
TYPE ASSIGNMENTS      5  6  7  8  9 10  5  6  7  8  9 10 11 12 13 17 14 15 18 19
TYPE ASSIGNMENTS     16 20 11 12 13 17 14 15 18 19 16 20
EXPONENTS  0.5988000D+04 0.8989000D+03 0.2059000D+03 0.5924000D+02 0.1987000D+02
EXPONENTS  0.7406000D+01 0.2930000D+01 0.1189000D+01 0.4798000D+00 0.5988000D+04
EXPONENTS  0.8989000D+03 0.2059000D+03 0.5924000D+02 0.1987000D+02 0.7406000D+01
EXPONENTS  0.2930000D+01 0.1189000D+01 0.4798000D+00 0.7509000D-01 0.2832000D-01
EXPONENTS  0.7600000D-02 0.3266000D+01 0.6511000D+00 0.1696000D+00 0.3266000D+01
EXPONENTS  0.6511000D+00 0.1696000D+00 0.3266000D+01 0.6511000D+00 0.1696000D+00
EXPONENTS  0.5578000D-01 0.5578000D-01 0.5578000D-01 0.2050000D-01 0.2050000D-01
EXPONENTS  0.2050000D-01 0.9100000D-02 0.9100000D-02 0.9100000D-02 0.1874000D+00
EXPONENTS  0.1874000D+00 0.1874000D+00 0.1874000D+00 0.1874000D+00 0.1874000D+00
EXPONENTS  0.8010000D-01 0.8010000D-01 0.8010000D-01 0.8010000D-01 0.8010000D-01
EXPONENTS  0.8010000D-01 0.3710000D-01 0.3710000D-01 0.3710000D-01 0.3710000D-01
EXPONENTS  0.3710000D-01 0.3710000D-01 0.1829000D+00 0.1829000D+00 0.1829000D+00
EXPONENTS  0.1829000D+00 0.1829000D+00 0.1829000D+00 0.1829000D+00 0.1829000D+00
EXPONENTS  0.1829000D+00 0.1829000D+00 0.8160000D-01 0.8160000D-01 0.8160000D-01
EXPONENTS  0.8160000D-01 0.8160000D-01 0.8160000D-01 0.8160000D-01 0.8160000D-01
EXPONENTS  0.8160000D-01 0.8160000D-01 0.1950000D+05 0.2923000D+04 0.6645000D+03
EXPONENTS  0.1875000D+03 0.6062000D+02 0.2142000D+02 0.7950000D+01 0.8815000D+00
EXPONENTS  0.1950000D+05 0.2923000D+04 0.6645000D+03 0.1875000D+03 0.6062000D+02
EXPONENTS  0.2142000D+02 0.7950000D+01 0.8815000D+00 0.2257000D+01 0.3041000D+00
EXPONENTS  0.9158000D-01 0.4388000D+02 0.9926000D+01 0.2930000D+01 0.4388000D+02
EXPONENTS  0.9926000D+01 0.2930000D+01 0.4388000D+02 0.9926000D+01 0.2930000D+01
EXPONENTS  0.9132000D+00 0.9132000D+00 0.9132000D+00 0.2672000D+00 0.2672000D+00
EXPONENTS  0.2672000D+00 0.7361000D-01 0.7361000D-01 0.7361000D-01 0.3107000D+01
EXPONENTS  0.3107000D+01 0.3107000D+01 0.3107000D+01 0.3107000D+01 0.3107000D+01
EXPONENTS  0.8550000D+00 0.8550000D+00 0.8550000D+00 0.8550000D+00 0.8550000D+00
EXPONENTS  0.8550000D+00 0.2920000D+00 0.2920000D+00 0.2920000D+00 0.2920000D+00
EXPONENTS  0.2920000D+00 0.2920000D+00 0.1917000D+01 0.1917000D+01 0.1917000D+01
EXPONENTS  0.1917000D+01 0.1917000D+01 0.1917000D+01 0.1917000D+01 0.1917000D+01
EXPONENTS  0.1917000D+01 0.1917000D+01 0.7240000D+00 0.7240000D+00 0.7240000D+00
EXPONENTS  0.7240000D+00 0.7240000D+00 0.7240000D+00 0.7240000D+00 0.7240000D+00
EXPONENTS  0.7240000D+00 0.7240000D+00
MO    1     MO 0.0        OCC NO =    2.0000000  ORB. ENERGY =  -24.604498
  0.24525829D-04  0.45584596D-04  0.77629783D-04  0.12106552D-03  0.16913543D-03
  0.20161253D-03  0.19112802D-03  0.12138562D-03  0.29808737D-04 -0.19874493D-04
 -0.36747249D-04 -0.61968578D-04 -0.98741326D-04 -0.13763798D-03 -0.17537317D-03
 -0.17416366D-03 -0.15709973D-03 -0.89920949D-04  0.10396219D-04  0.59539172D-05
 -0.85068867D-06 -0.10228869D-16 -0.75058023D-17 -0.61634862D-17 -0.19442078D-16
 -0.14266327D-16 -0.11714978D-16  0.81965721D-04  0.60145310D-04  0.49389095D-04
 -0.39871638D-18 -0.19739310D-17  0.72945374D-06 -0.64469259D-18  0.11637131D-18
  0.42868124D-06 -0.23278735D-18  0.70944829D-20 -0.21432720D-07  0.12651501D-05
  0.12651501D-05 -0.25303001D-05 -0.45967215D-17 -0.13159992D-16 -0.31284951D-16
  0.32087076D-05  0.32087076D-05 -0.64174152D-05  0.39174206D-17  0.35584507D-17
  0.45038314D-17 -0.59817960D-07 -0.59817960D-07  0.11963592D-06 -0.10035590D-17
 -0.37628927D-18  0.48338672D-18  0.18038752D-18  0.42786265D-18 -0.43393649D-05
 -0.92372502D-20  0.20793665D-18  0.65090473D-05 -0.53192531D-18 -0.14915246D-17
  0.65090473D-05  0.21589503D-17  0.27704586D-19  0.79556856D-19  0.13728664D-05
  0.74405108D-19  0.50637702D-19 -0.20592996D-05 -0.15751886D-18 -0.28930827D-18
 -0.20592996D-05 -0.46757122D-18  0.59351107D+00  0.11063303D+01  0.18755019D+01
  0.28400626D+01  0.35515083D+01  0.30575178D+01  0.11754215D+01 -0.50932937D-02
  0.85170534D-03  0.15993518D-02  0.27234203D-02  0.42662217D-02  0.57172390D-02
  0.61496614D-02  0.36922486D-02 -0.24281780D-02  0.64621349D-01  0.12097107D-02
 -0.10932491D-03 -0.18474129D-15 -0.18067294D-15 -0.11937825D-15 -0.12305951D-15
 -0.12034952D-15 -0.79520013D-16  0.22335466D-02  0.21843597D-02  0.14432988D-02
  0.79893325D-17  0.14666622D-16 -0.30506105D-03 -0.12412105D-16 -0.41306586D-17
  0.11611036D-03  0.33662179D-17  0.89231775D-17 -0.25255170D-04 -0.66700640D-04
 -0.66700640D-04  0.13340128D-03  0.39117259D-17  0.30997883D-15  0.41099355D-15
  0.64628395D-05  0.64628395D-05 -0.12925679D-04  0.23260841D-17 -0.13363005D-16
 -0.23703587D-16 -0.10818465D-04 -0.10818465D-04  0.21636929D-04  0.12705636D-17
 -0.16625967D-17  0.13617572D-16  0.82401734D-16 -0.10404950D-16 -0.10279360D-03
 -0.46535308D-15 -0.15515532D-17  0.15419040D-03  0.21814787D-15  0.32766403D-16
  0.15419040D-03 -0.79737398D-16 -0.19399957D-17  0.23125685D-17  0.33952320D-04
  0.29413850D-16  0.19718649D-17 -0.50928479D-04 -0.23593862D-16 -0.89095705D-17
 -0.50928479D-04  0.74106228D-17
MO    2     MO 0.0        OCC NO =    2.0000000  ORB. ENERGY =   -2.007355
  0.64653456D-01  0.12016726D+00  0.20464278D+00  0.31914535D+00  0.44586423D+00
  0.53147835D+00  0.50383974D+00  0.31998916D+00  0.78579926D-01 -0.47583966D-03
 -0.87981104D-03 -0.14836659D-02 -0.23640874D-02 -0.32953599D-02 -0.41988245D-02
 -0.41698662D-02 -0.37613176D-02 -0.21529079D-02 -0.60363071D-02  0.25523041D-03
 -0.28594361D-05 -0.32074408D-18 -0.23535756D-18 -0.19326689D-18 -0.11277836D-19
 -0.82755200D-20 -0.67955497D-20  0.10034085D-01  0.73628726D-02  0.60461176D-02
  0.49774024D-18  0.13408884D-19  0.52023336D-03 -0.23218447D-19  0.62597163D-20
 -0.58755769D-04  0.65276342D-20 -0.10869767D-20  0.56344007D-05  0.75884775D-03
  0.75884775D-03 -0.15176955D-02  0.12263974D-18  0.40948429D-18  0.15755634D-18
 -0.81911711D-05 -0.81911711D-05  0.16382342D-04 -0.66150024D-19 -0.24269271D-18
 -0.15610650D-18 -0.22176789D-05 -0.22176789D-05  0.44353578D-05  0.46893790D-20
 -0.24357047D-19  0.39360748D-19  0.15109955D-19 -0.34686197D-19  0.18189630D-03
  0.20926046D-19 -0.25898468D-19 -0.27284445D-03 -0.66255909D-19  0.12995706D-18
 -0.27284445D-03  0.32860625D-19 -0.10163899D-19  0.41291328D-20 -0.17984172D-04
 -0.93963845D-20  0.14819007D-20  0.26976258D-04  0.39888082D-19 -0.13869299D-19
  0.26976258D-04 -0.11808825D-19 -0.22813868D-02 -0.42526038D-02 -0.72092089D-02
 -0.10916867D-01 -0.13651580D-01 -0.11752739D-01 -0.45181820D-02  0.19578022D-04
 -0.14248342D-02 -0.26755864D-02 -0.45560621D-02 -0.71370444D-02 -0.95644791D-02
 -0.10287887D-01 -0.61768338D-02  0.40621458D-02  0.38272924D-02  0.93770228D-02
  0.69276192D-02 -0.56865103D-17 -0.55612828D-17 -0.36745747D-17  0.12243865D-18
  0.11974232D-18  0.79118814D-19  0.35280364D-01  0.34503425D-01  0.22797872D-01
 -0.45966803D-18  0.50803742D-19  0.41594117D-02 -0.14140063D-18 -0.31648456D-19
  0.83750804D-02 -0.56263098D-18 -0.72327595D-20  0.11639277D-02 -0.18098018D-02
 -0.18098018D-02  0.36196036D-02  0.14164907D-17  0.59183145D-17  0.63683844D-17
 -0.10038151D-02 -0.10038151D-02  0.20076303D-02 -0.54745476D-18 -0.47650239D-18
 -0.61538527D-18 -0.93905585D-03 -0.93905585D-03  0.18781117D-02  0.12935886D-18
  0.13575609D-18 -0.93514292D-19  0.83265482D-18  0.16491703D-18 -0.92515333D-03
 -0.48872805D-17 -0.38224650D-18  0.13877300D-02  0.23893161D-17 -0.11250460D-18
  0.13877300D-02 -0.23204441D-17 -0.12629020D-18 -0.30738531D-19  0.18240232D-02
  0.25649378D-18  0.40830211D-19 -0.27360347D-02  0.12237681D-18  0.51385381D-19
 -0.27360347D-02 -0.23873167D-19
MO    3     MO 0.0        OCC NO =    2.0000000  ORB. ENERGY =   -1.026885
 -0.33058935D-02 -0.61444536D-02 -0.10463899D-01 -0.16318703D-01 -0.22798157D-01
 -0.27175822D-01 -0.25762590D-01 -0.16361849D-01 -0.40179888D-02 -0.12034788D-02
 -0.22251906D-02 -0.37524414D-02 -0.59791761D-02 -0.83345214D-02 -0.10619536D-01
 -0.10546295D-01 -0.95130072D-02 -0.54450675D-02  0.75417159D-02 -0.48126999D-03
  0.24795910D-04 -0.72089838D-16 -0.52898524D-16 -0.43438304D-16 -0.27013708D-16
 -0.19822284D-16 -0.16277324D-16 -0.98814239D-02 -0.72508519D-02 -0.59541304D-02
  0.45315365D-17 -0.17256246D-18 -0.10175911D-02  0.15341497D-17  0.49249338D-18
  0.11849056D-03 -0.21505123D-18  0.28853339D-18 -0.14038479D-04 -0.81101144D-03
 -0.81101144D-03  0.16220229D-02 -0.19196816D-16 -0.70099252D-17  0.11208583D-16
 -0.70070890D-04 -0.70070890D-04  0.14014178D-03  0.64213439D-17  0.79596751D-18
 -0.77225218D-17  0.41120932D-05  0.41120932D-05 -0.82241865D-05 -0.59865765D-18
 -0.31323884D-18  0.11096470D-17  0.13918969D-18 -0.53977041D-18 -0.29664707D-03
 -0.29341937D-19 -0.54393091D-18  0.44497060D-03 -0.38822713D-18  0.21632421D-17
  0.44497060D-03  0.20027641D-17  0.61004464D-20 -0.68718932D-21  0.85317141D-05
  0.13224712D-18 -0.83836007D-19 -0.12797571D-04 -0.15054846D-18  0.85897574D-19
 -0.12797571D-04 -0.10145953D-17 -0.81482200D-02 -0.15188635D-01 -0.25748471D-01
 -0.38990773D-01 -0.48758098D-01 -0.41976181D-01 -0.16137176D-01  0.69925027D-04
 -0.12877103D+00 -0.24180919D+00 -0.41175935D+00 -0.64501859D+00 -0.86440079D+00
 -0.92977959D+00 -0.55823845D+00  0.36712109D+00  0.21793801D+00  0.10590238D+00
 -0.31995174D-02 -0.43754851D-15 -0.42791288D-15 -0.28274013D-15 -0.13234741D-15
 -0.12943288D-15 -0.85521774D-16  0.99486808D-01  0.97295925D-01  0.64287532D-01
 -0.59738702D-16 -0.13092632D-17  0.26419788D-01 -0.23060129D-16 -0.11468605D-16
  0.34282405D-02 -0.95684722D-18 -0.29049531D-17 -0.87158078D-03 -0.61570434D-03
 -0.61570434D-03  0.12314087D-02 -0.61465611D-16  0.10854079D-16  0.27398494D-16
 -0.20645465D-02 -0.20645465D-02  0.41290930D-02 -0.11586888D-16 -0.62377425D-17
 -0.37542739D-17 -0.63046327D-03 -0.63046327D-03  0.12609265D-02 -0.25733651D-18
 -0.23268487D-17 -0.55638192D-17  0.31639301D-16  0.46855637D-17 -0.25879721D-02
 -0.69615172D-16  0.11305027D-16  0.38819581D-02 -0.25302732D-16 -0.25361719D-16
  0.38819581D-02 -0.13563439D-16 -0.10476482D-17 -0.56285910D-18  0.22938986D-02
  0.53480838D-17 -0.86849960D-18 -0.34408478D-02 -0.22051391D-17  0.25570769D-17
 -0.34408478D-02  0.16977744D-17
MO    4     MO 0.0        OCC NO =    2.0000000  ORB. ENERGY =   -0.306749
  0.26509149D-02  0.49270866D-02  0.83907438D-02  0.13085568D-01  0.18281283D-01
  0.21791625D-01  0.20658389D-01  0.13120165D-01  0.32219267D-02  0.41628746D-02
  0.76970110D-02  0.12979824D-01  0.20682176D-01  0.28829396D-01  0.36733341D-01
  0.36479999D-01  0.32905820D-01  0.18834676D-01 -0.26950399D-01  0.14867026D-02
 -0.12033516D-03 -0.24359139D-16 -0.17874398D-16 -0.14677792D-16 -0.18361409D-16
 -0.13473347D-16 -0.11063813D-16  0.37090405D-01  0.27216425D-01  0.22349118D-01
 -0.41674752D-17 -0.12641355D-16  0.39177363D-02  0.79112713D-18  0.10679021D-17
 -0.37386112D-03  0.32531951D-18 -0.44417962D-18  0.46914413D-04  0.20990348D-02
  0.20990348D-02 -0.41980695D-02 -0.42495958D-17  0.46921795D-17  0.49073969D-17
  0.24090804D-03  0.24090804D-03 -0.48181609D-03 -0.88507243D-18  0.73565794D-18
  0.50814947D-18 -0.40658235D-05 -0.40658235D-05  0.81316471D-05  0.16095340D-19
  0.34024829D-18 -0.78664046D-19 -0.11225037D-18  0.52540575D-18  0.80216627D-03
 -0.51703796D-19  0.51270187D-18 -0.12032494D-02  0.38845490D-18 -0.20889191D-17
 -0.12032494D-02  0.61916781D-18  0.39186125D-19  0.11536752D-19 -0.13267352D-04
  0.46440278D-19  0.14379285D-19  0.19901029D-04 -0.16399865D-18 -0.48989542D-19
  0.19901029D-04  0.35267052D-18 -0.96820516D-04 -0.18047764D-03 -0.30595396D-03
 -0.46330447D-03 -0.57936386D-03 -0.49877832D-03 -0.19174860D-03  0.83087805D-06
 -0.99498272D-02 -0.18684013D-01 -0.31815652D-01 -0.49839031D-01 -0.66790165D-01
 -0.71841828D-01 -0.43133739D-01  0.28366562D-01  0.19220847D-01  0.28241436D-01
  0.25431639D-01 -0.27947893D-14 -0.27332429D-14 -0.18059692D-14 -0.36165513D-14
 -0.35369082D-14 -0.23369848D-14 -0.25089312D+01 -0.24536799D+01 -0.16212501D+01
 -0.61116212D-15 -0.79972591D-15 -0.55702560D+00 -0.10760109D-15 -0.13420415D-15
 -0.86534961D-01 -0.11367188D-17 -0.21131929D-17 -0.12433961D-02  0.97455906D-02
  0.97455906D-02 -0.19491181D-01 -0.32023982D-17 -0.15028765D-15 -0.83301709D-16
  0.47125098D-02  0.47125098D-02 -0.94250197D-02 -0.48375154D-17 -0.36155320D-16
 -0.32479995D-16  0.17941749D-02  0.17941749D-02 -0.35883499D-02 -0.19582686D-17
 -0.75971207D-17 -0.22357084D-17 -0.36619726D-17 -0.22931930D-18  0.51103744D-02
  0.26231312D-16  0.17688728D-17 -0.76655617D-02 -0.15245394D-16 -0.10809149D-17
 -0.76655617D-02  0.41186489D-16  0.30716202D-17  0.29653833D-17 -0.46918117D-02
  0.22758979D-17  0.25489746D-17  0.70377176D-02 -0.11490759D-16 -0.11445124D-16
  0.70377176D-02  0.79813069D-17
MO    5     MO 0.0        OCC NO =    2.0000000  ORB. ENERGY =   -0.291860
  0.71096492D-17  0.13214252D-16  0.22503644D-16  0.35094976D-16  0.49029679D-16
  0.58444279D-16  0.55404985D-16  0.35187766D-16  0.86410803D-17  0.29061135D-17
  0.53733032D-17  0.90612487D-17  0.14438280D-16  0.20125876D-16  0.25643640D-16
  0.25466781D-16  0.22971638D-16  0.13148536D-16 -0.11693250D-16  0.52806091D-17
  0.10218111D-18  0.73691384D-03  0.54073716D-03  0.44403328D-03  0.15729247D-01
  0.11541903D-01  0.94777823D-02  0.57057576D-16  0.41868059D-16  0.34380495D-16
  0.10980043D-04  0.23436634D-03 -0.85847096D-17  0.15469838D-05  0.33019993D-04
 -0.17808308D-17 -0.21822577D-06 -0.46579760D-05  0.87588304D-18  0.63791460D-17
 -0.36970798D-17 -0.26820662D-17  0.62461467D-17 -0.11503611D-03 -0.24554179D-02
 -0.26925712D-17  0.18027453D-17  0.88982597D-18 -0.74359673D-18 -0.58359097D-05
 -0.12456607D-03  0.51439428D-18 -0.10643963D-17  0.55000203D-18  0.29181890D-18
  0.10100958D-05  0.21560249D-04 -0.32373736D-05 -0.69100952D-04  0.87490932D-18
 -0.32382965D-05 -0.69120651D-04 -0.43421902D-17  0.12950417D-04  0.27642351D-03
  0.17174622D-17 -0.26148744D-17  0.24239802D-06  0.51739267D-05 -0.10452523D-18
  0.24246160D-06  0.51752839D-05  0.97421303D-18 -0.96965565D-06 -0.20697064D-04
 -0.66063735D-18  0.35506864D-18  0.13234674D-17  0.24670005D-17  0.41821724D-17
  0.63330416D-17  0.79194907D-17  0.68179438D-17  0.26210665D-17 -0.11357510D-19
 -0.16786924D-16 -0.31522871D-16 -0.53678013D-16 -0.84086289D-16 -0.11268552D-15
 -0.12120847D-15 -0.72773406D-16  0.47858854D-16  0.36038564D-16  0.18707098D-16
 -0.91986260D-17  0.11656799D+00  0.11400095D+00  0.75325248D-01  0.24881154D+01
  0.24333226D+01  0.16077991D+01 -0.37127446D-14 -0.36309832D-14 -0.23991441D-14
  0.25798362D-01  0.55065975D+00 -0.83170040D-15  0.44576247D-02  0.95146914D-01
 -0.13698313D-15  0.22127748D-03  0.47231140D-02  0.19165190D-17 -0.30713926D-16
 -0.15509829D-17  0.32264909D-16  0.46940833D-15  0.12054050D-02  0.25729077D-01
  0.12762987D-16  0.14839316D-16 -0.27602303D-16 -0.34705955D-16  0.73754702D-03
  0.15742762D-01 -0.20638240D-17  0.60711925D-17 -0.40073686D-17  0.59899960D-17
  0.22602029D-03  0.48243481D-02  0.10021440D-03  0.21390519D-02  0.20338610D-16
  0.10021493D-03  0.21390632D-02 -0.93571357D-17 -0.40085812D-03 -0.85562191D-02
 -0.51658694D-16  0.65416844D-17 -0.10916010D-03 -0.23299957D-02 -0.59552287D-17
 -0.10916931D-03 -0.23301923D-02  0.95914786D-17  0.43664960D-03  0.93201795D-02
  0.82742076D-17 -0.27786256D-17
MO    6     MO 0.0        OCC NO =    2.0000000  ORB. ENERGY =   -0.291860
  0.22319829D-18  0.41484445D-18  0.70647296D-18  0.11017616D-17  0.15392237D-17
  0.18347830D-17  0.17393683D-17  0.11046747D-17  0.27127560D-18 -0.44519445D-17
 -0.82314912D-17 -0.13881143D-16 -0.22118346D-16 -0.30831309D-16 -0.39284103D-16
 -0.39013169D-16 -0.35190799D-16 -0.20142555D-16 -0.14810616D-17 -0.66875423D-17
  0.93214622D-18 -0.15729247D-01 -0.11541903D-01 -0.94777823D-02  0.73691384D-03
  0.54073716D-03  0.44403328D-03 -0.37695149D-16 -0.27660178D-16 -0.22713511D-16
 -0.23436634D-03  0.10980043D-04  0.18291680D-18 -0.33019993D-04  0.15469838D-05
 -0.18982990D-17  0.46579760D-05 -0.21822577D-06  0.35297983D-18 -0.65966048D-17
  0.30992067D-18  0.62866841D-17  0.74641373D-17  0.24554179D-02 -0.11503611D-03
  0.31251295D-17 -0.27828196D-17 -0.34230989D-18 -0.15061646D-17  0.12456607D-03
 -0.58359097D-05 -0.83183118D-18  0.61370312D-19  0.77046087D-18  0.68401196D-18
 -0.21560249D-04  0.10100958D-05  0.69100952D-04 -0.32373736D-05 -0.16886838D-17
  0.69120651D-04 -0.32382965D-05  0.42052696D-17 -0.27642351D-03  0.12950417D-04
  0.86078188D-18 -0.94216937D-17 -0.51739267D-05  0.24239802D-06  0.90167647D-19
 -0.51752839D-05  0.24246160D-06 -0.21857261D-18  0.20697064D-04 -0.96965565D-06
 -0.51930332D-19  0.17031651D-17  0.50607817D-17  0.94335162D-17  0.15992129D-16
  0.24216797D-16  0.30283189D-16  0.26071005D-16  0.10022646D-16 -0.43429767D-19
  0.86820804D-17  0.16303409D-16  0.27761894D-16  0.43488843D-16  0.58280166D-16
  0.62688177D-16  0.37637899D-16 -0.24752266D-16 -0.26642797D-16 -0.39751938D-16
 -0.87179899D-17 -0.24881154D+01 -0.24333226D+01 -0.16077991D+01  0.11656799D+00
  0.11400095D+00  0.75325248D-01  0.25844261D-14  0.25275123D-14  0.16700342D-14
 -0.55065975D+00  0.25798362D-01  0.58088369D-15 -0.95146914D-01  0.44576247D-02
  0.80388701D-16 -0.47231140D-02  0.22127748D-03  0.11793865D-16 -0.75107716D-16
 -0.18801747D-17  0.76987890D-16  0.47991898D-16 -0.25729077D-01  0.12054050D-02
 -0.22898505D-16  0.36980483D-17  0.19200457D-16 -0.49568240D-16 -0.15742762D-01
  0.73754702D-03 -0.39466161D-17  0.53935778D-18  0.34072583D-17  0.12357997D-16
 -0.48243481D-02  0.22602029D-03 -0.21390519D-02  0.10021440D-03 -0.78188179D-17
 -0.21390632D-02  0.10021493D-03  0.24104139D-16  0.85562191D-02 -0.40085812D-03
 -0.64768500D-18  0.74128030D-16  0.23299957D-02 -0.10916010D-03  0.11699606D-16
  0.23301923D-02 -0.10916931D-03 -0.95851619D-17 -0.93201795D-02  0.43664960D-03
 -0.25513657D-16 -0.83892040D-17
END DATA
RHF
