 Molden2AIM, Version 4.0.0 (06/02/2016)           Time: Wed Jun 27 19:48:56 2018
GAUSSIAN             12 MOL ORBITALS    274 PRIMITIVES        2 NUCLEI
  Mg   1    (CENTRE  1)   0.00000000  0.00000000  3.58422464  CHARGE = 12.0
  Mg   2    (CENTRE  2)   0.00000000  0.00000000 -3.58422464  CHARGE = 12.0
CENTRE ASSIGNMENTS    1  1  1  1  1  1  1  1  1  1  1  1  1  1  1  1  1  1  1  1
CENTRE ASSIGNMENTS    1  1  1  1  1  1  1  1  1  1  1  1  1  1  1  1  1  1  1  1
CENTRE ASSIGNMENTS    1  1  1  1  1  1  1  1  1  1  1  1  1  1  1  1  1  1  1  1
CENTRE ASSIGNMENTS    1  1  1  1  1  1  1  1  1  1  1  1  1  1  1  1  1  1  1  1
CENTRE ASSIGNMENTS    1  1  1  1  1  1  1  1  1  1  1  1  1  1  1  1  1  1  1  1
CENTRE ASSIGNMENTS    1  1  1  1  1  1  1  1  1  1  1  1  1  1  1  1  1  1  1  1
CENTRE ASSIGNMENTS    1  1  1  1  1  1  1  1  1  1  1  1  1  1  1  1  1  2  2  2
CENTRE ASSIGNMENTS    2  2  2  2  2  2  2  2  2  2  2  2  2  2  2  2  2  2  2  2
CENTRE ASSIGNMENTS    2  2  2  2  2  2  2  2  2  2  2  2  2  2  2  2  2  2  2  2
CENTRE ASSIGNMENTS    2  2  2  2  2  2  2  2  2  2  2  2  2  2  2  2  2  2  2  2
CENTRE ASSIGNMENTS    2  2  2  2  2  2  2  2  2  2  2  2  2  2  2  2  2  2  2  2
CENTRE ASSIGNMENTS    2  2  2  2  2  2  2  2  2  2  2  2  2  2  2  2  2  2  2  2
CENTRE ASSIGNMENTS    2  2  2  2  2  2  2  2  2  2  2  2  2  2  2  2  2  2  2  2
CENTRE ASSIGNMENTS    2  2  2  2  2  2  2  2  2  2  2  2  2  2
TYPE ASSIGNMENTS      1  1  1  1  1  1  1  1  1  1  1  1  1  1  1  1  1  1  1  1
TYPE ASSIGNMENTS      1  1  1  1  1  1  1  1  1  1  1  1  1  1  1  1  1  1  1  1
TYPE ASSIGNMENTS      1  1  2  2  2  2  2  2  2  2  3  3  3  3  3  3  3  3  4  4
TYPE ASSIGNMENTS      4  4  4  4  4  4  2  2  2  2  2  2  2  2  3  3  3  3  3  3
TYPE ASSIGNMENTS      3  3  4  4  4  4  4  4  4  4  2  3  4  2  3  4  2  3  4  5
TYPE ASSIGNMENTS      6  7  8  9 10  5  6  7  8  9 10  5  6  7  8  9 10 11 12 13
TYPE ASSIGNMENTS     17 14 15 18 19 16 20 11 12 13 17 14 15 18 19 16 20  1  1  1
TYPE ASSIGNMENTS      1  1  1  1  1  1  1  1  1  1  1  1  1  1  1  1  1  1  1  1
TYPE ASSIGNMENTS      1  1  1  1  1  1  1  1  1  1  1  1  1  1  1  1  1  1  1  2
TYPE ASSIGNMENTS      2  2  2  2  2  2  2  3  3  3  3  3  3  3  3  4  4  4  4  4
TYPE ASSIGNMENTS      4  4  4  2  2  2  2  2  2  2  2  3  3  3  3  3  3  3  3  4
TYPE ASSIGNMENTS      4  4  4  4  4  4  4  2  3  4  2  3  4  2  3  4  5  6  7  8
TYPE ASSIGNMENTS      9 10  5  6  7  8  9 10  5  6  7  8  9 10 11 12 13 17 14 15
TYPE ASSIGNMENTS     18 19 16 20 11 12 13 17 14 15 18 19 16 20
EXPONENTS  0.1649000D+06 0.2471000D+05 0.5628000D+04 0.1596000D+04 0.5210000D+03
EXPONENTS  0.1880000D+03 0.7301000D+02 0.2990000D+02 0.1254000D+02 0.4306000D+01
EXPONENTS  0.1826000D+01 0.7417000D+00 0.7612000D-01 0.1649000D+06 0.2471000D+05
EXPONENTS  0.5628000D+04 0.1596000D+04 0.5210000D+03 0.1880000D+03 0.7301000D+02
EXPONENTS  0.2990000D+02 0.1254000D+02 0.4306000D+01 0.1826000D+01 0.7417000D+00
EXPONENTS  0.7612000D-01 0.1649000D+06 0.2471000D+05 0.5628000D+04 0.1596000D+04
EXPONENTS  0.5210000D+03 0.1880000D+03 0.7301000D+02 0.2990000D+02 0.1254000D+02
EXPONENTS  0.4306000D+01 0.1826000D+01 0.7417000D+00 0.7612000D-01 0.1457000D+00
EXPONENTS  0.3310000D-01 0.1290000D-01 0.3169000D+03 0.7486000D+02 0.2372000D+02
EXPONENTS  0.8669000D+01 0.3363000D+01 0.1310000D+01 0.4911000D+00 0.2364000D+00
EXPONENTS  0.3169000D+03 0.7486000D+02 0.2372000D+02 0.8669000D+01 0.3363000D+01
EXPONENTS  0.1310000D+01 0.4911000D+00 0.2364000D+00 0.3169000D+03 0.7486000D+02
EXPONENTS  0.2372000D+02 0.8669000D+01 0.3363000D+01 0.1310000D+01 0.4911000D+00
EXPONENTS  0.2364000D+00 0.3169000D+03 0.7486000D+02 0.2372000D+02 0.8669000D+01
EXPONENTS  0.3363000D+01 0.1310000D+01 0.4911000D+00 0.2364000D+00 0.3169000D+03
EXPONENTS  0.7486000D+02 0.2372000D+02 0.8669000D+01 0.3363000D+01 0.1310000D+01
EXPONENTS  0.4911000D+00 0.2364000D+00 0.3169000D+03 0.7486000D+02 0.2372000D+02
EXPONENTS  0.8669000D+01 0.3363000D+01 0.1310000D+01 0.4911000D+00 0.2364000D+00
EXPONENTS  0.8733000D-01 0.8733000D-01 0.8733000D-01 0.3237000D-01 0.3237000D-01
EXPONENTS  0.3237000D-01 0.7450000D-02 0.7450000D-02 0.7450000D-02 0.1260000D+00
EXPONENTS  0.1260000D+00 0.1260000D+00 0.1260000D+00 0.1260000D+00 0.1260000D+00
EXPONENTS  0.2940000D+00 0.2940000D+00 0.2940000D+00 0.2940000D+00 0.2940000D+00
EXPONENTS  0.2940000D+00 0.4680000D-01 0.4680000D-01 0.4680000D-01 0.4680000D-01
EXPONENTS  0.4680000D-01 0.4680000D-01 0.2520000D+00 0.2520000D+00 0.2520000D+00
EXPONENTS  0.2520000D+00 0.2520000D+00 0.2520000D+00 0.2520000D+00 0.2520000D+00
EXPONENTS  0.2520000D+00 0.2520000D+00 0.9400000D-01 0.9400000D-01 0.9400000D-01
EXPONENTS  0.9400000D-01 0.9400000D-01 0.9400000D-01 0.9400000D-01 0.9400000D-01
EXPONENTS  0.9400000D-01 0.9400000D-01 0.1649000D+06 0.2471000D+05 0.5628000D+04
EXPONENTS  0.1596000D+04 0.5210000D+03 0.1880000D+03 0.7301000D+02 0.2990000D+02
EXPONENTS  0.1254000D+02 0.4306000D+01 0.1826000D+01 0.7417000D+00 0.7612000D-01
EXPONENTS  0.1649000D+06 0.2471000D+05 0.5628000D+04 0.1596000D+04 0.5210000D+03
EXPONENTS  0.1880000D+03 0.7301000D+02 0.2990000D+02 0.1254000D+02 0.4306000D+01
EXPONENTS  0.1826000D+01 0.7417000D+00 0.7612000D-01 0.1649000D+06 0.2471000D+05
EXPONENTS  0.5628000D+04 0.1596000D+04 0.5210000D+03 0.1880000D+03 0.7301000D+02
EXPONENTS  0.2990000D+02 0.1254000D+02 0.4306000D+01 0.1826000D+01 0.7417000D+00
EXPONENTS  0.7612000D-01 0.1457000D+00 0.3310000D-01 0.1290000D-01 0.3169000D+03
EXPONENTS  0.7486000D+02 0.2372000D+02 0.8669000D+01 0.3363000D+01 0.1310000D+01
EXPONENTS  0.4911000D+00 0.2364000D+00 0.3169000D+03 0.7486000D+02 0.2372000D+02
EXPONENTS  0.8669000D+01 0.3363000D+01 0.1310000D+01 0.4911000D+00 0.2364000D+00
EXPONENTS  0.3169000D+03 0.7486000D+02 0.2372000D+02 0.8669000D+01 0.3363000D+01
EXPONENTS  0.1310000D+01 0.4911000D+00 0.2364000D+00 0.3169000D+03 0.7486000D+02
EXPONENTS  0.2372000D+02 0.8669000D+01 0.3363000D+01 0.1310000D+01 0.4911000D+00
EXPONENTS  0.2364000D+00 0.3169000D+03 0.7486000D+02 0.2372000D+02 0.8669000D+01
EXPONENTS  0.3363000D+01 0.1310000D+01 0.4911000D+00 0.2364000D+00 0.3169000D+03
EXPONENTS  0.7486000D+02 0.2372000D+02 0.8669000D+01 0.3363000D+01 0.1310000D+01
EXPONENTS  0.4911000D+00 0.2364000D+00 0.8733000D-01 0.8733000D-01 0.8733000D-01
EXPONENTS  0.3237000D-01 0.3237000D-01 0.3237000D-01 0.7450000D-02 0.7450000D-02
EXPONENTS  0.7450000D-02 0.1260000D+00 0.1260000D+00 0.1260000D+00 0.1260000D+00
EXPONENTS  0.1260000D+00 0.1260000D+00 0.2940000D+00 0.2940000D+00 0.2940000D+00
EXPONENTS  0.2940000D+00 0.2940000D+00 0.2940000D+00 0.4680000D-01 0.4680000D-01
EXPONENTS  0.4680000D-01 0.4680000D-01 0.4680000D-01 0.4680000D-01 0.2520000D+00
EXPONENTS  0.2520000D+00 0.2520000D+00 0.2520000D+00 0.2520000D+00 0.2520000D+00
EXPONENTS  0.2520000D+00 0.2520000D+00 0.2520000D+00 0.2520000D+00 0.9400000D-01
EXPONENTS  0.9400000D-01 0.9400000D-01 0.9400000D-01 0.9400000D-01 0.9400000D-01
EXPONENTS  0.9400000D-01 0.9400000D-01 0.9400000D-01 0.9400000D-01
MO    1     MO 0.0        OCC NO =    2.0000000  ORB. ENERGY =  -46.944971
  0.30124169D+00  0.56323540D+00  0.97089159D+00  0.15659019D+01  0.23501985D+01
  0.31498390D+01  0.34619678D+01  0.25912048D+01  0.88959254D+00  0.50143240D-01
 -0.34963340D-02  0.83043947D-03  0.51760195D-04 -0.48681558D-03 -0.91317214D-03
 -0.15708163D-02 -0.25633804D-02 -0.38901118D-02 -0.55090767D-02 -0.66609260D-02
 -0.65773889D-02 -0.32895973D-02  0.18420084D-02  0.29415268D-02  0.96005076D-03
 -0.55843273D-05  0.22890300D-03  0.42905839D-03  0.73898764D-03  0.12046369D-02
  0.18338908D-02  0.25988429D-02  0.31758240D-02  0.31798830D-02  0.16604137D-02
 -0.10338342D-02 -0.18692281D-02 -0.13701186D-02  0.62459466D-03 -0.56935614D-03
 -0.49659444D-03  0.30818256D-04  0.20153201D-15  0.26046950D-15  0.28084446D-15
  0.23151733D-15  0.12640177D-15  0.40529621D-16  0.45647140D-17 -0.52382144D-19
 -0.17140869D-15 -0.22153669D-15 -0.23886617D-15 -0.19691206D-15 -0.10750829D-15
 -0.34471592D-16 -0.38824187D-17  0.44552499D-19  0.96466401D-03  0.12467774D-02
  0.13443053D-02  0.11081934D-02  0.60504155D-03  0.19400128D-03  0.21849707D-04
 -0.25073520D-06  0.33407844D-16  0.43175810D-16  0.47251890D-16  0.39477716D-16
  0.22085538D-16  0.74812092D-17  0.11708518D-17 -0.22114608D-17  0.39721603D-15
  0.51335619D-15  0.56182039D-15  0.46938621D-15  0.26259491D-15  0.88950853D-16
  0.13921315D-16 -0.26294054D-16 -0.96716064D-03 -0.12499443D-02 -0.13679472D-02
 -0.11428841D-02 -0.63937867D-03 -0.21658180D-03 -0.33896285D-04  0.64022024D-04
 -0.73476344D-18  0.12199651D-16 -0.46532465D-04  0.24591731D-17 -0.21002928D-17
  0.81962108D-04  0.36319475D-19  0.17231167D-18 -0.93099019D-06 -0.18819391D-04
 -0.18819391D-04  0.37638782D-04 -0.33376903D-17 -0.14929370D-16  0.17123035D-17
  0.29474136D-04  0.29474136D-04 -0.58948273D-04  0.14136891D-16  0.79405492D-16
 -0.39387751D-17  0.57384821D-05  0.57384821D-05 -0.11476964D-04  0.76164425D-18
 -0.48653504D-18 -0.10052007D-17  0.19002631D-18 -0.18575953D-18 -0.54966250D-05
  0.19036120D-18 -0.18519374D-18  0.82449375D-05 -0.76044014D-18  0.74247233D-18
  0.82449375D-05 -0.10717647D-18 -0.19492433D-18 -0.11943435D-18 -0.87107348D-06
 -0.19492842D-18 -0.11946078D-18  0.13066102D-05  0.77970142D-18  0.47776383D-18
  0.13066102D-05  0.19978276D-21 -0.30124187D+00 -0.56323576D+00 -0.97089220D+00
 -0.15659029D+01 -0.23501999D+01 -0.31498410D+01 -0.34619699D+01 -0.25912064D+01
 -0.88959309D+00 -0.50143271D-01  0.34963362D-02 -0.83043999D-03 -0.51760227D-04
  0.48681582D-03  0.91317260D-03  0.15708171D-02  0.25633817D-02  0.38901137D-02
  0.55090794D-02  0.66609293D-02  0.65773923D-02  0.32895990D-02 -0.18420093D-02
 -0.29415283D-02 -0.96005124D-03  0.55843301D-05 -0.22890311D-03 -0.42905860D-03
 -0.73898800D-03 -0.12046375D-02 -0.18338917D-02 -0.25988442D-02 -0.31758256D-02
 -0.31798845D-02 -0.16604146D-02  0.10338347D-02  0.18692290D-02  0.13701193D-02
 -0.62459497D-03  0.56935644D-03  0.49659454D-03 -0.30818265D-04  0.41057552D-15
  0.53064722D-15  0.57215655D-15  0.47166378D-15  0.25751479D-15  0.82569863D-16
  0.92995642D-17 -0.10671668D-18  0.25900531D-15  0.33475071D-15  0.36093624D-15
  0.29754191D-15  0.16244928D-15  0.52087939D-16  0.58664883D-17 -0.67320588D-19
  0.96466404D-03  0.12467774D-02  0.13443053D-02  0.11081934D-02  0.60504157D-03
  0.19400128D-03  0.21849708D-04 -0.25073521D-06 -0.41044090D-17 -0.53044782D-17
 -0.58052558D-17 -0.48501391D-17 -0.27133771D-17 -0.91912373D-18 -0.14384809D-18
  0.27169486D-18 -0.40322838D-16 -0.52112647D-16 -0.57032423D-16 -0.47649095D-16
 -0.26656960D-16 -0.90297233D-17 -0.14132031D-17  0.26692047D-17 -0.96716066D-03
 -0.12499443D-02 -0.13679473D-02 -0.11428841D-02 -0.63937869D-03 -0.21658181D-03
 -0.33896285D-04  0.64022026D-04 -0.11314708D-17  0.10159015D-17 -0.46532490D-04
 -0.15561993D-17 -0.21830298D-17  0.81962117D-04 -0.14059422D-18  0.78182876D-19
 -0.93099033D-06  0.18819394D-04  0.18819394D-04 -0.37638788D-04 -0.13604095D-17
 -0.16689119D-17  0.26594063D-17 -0.29474138D-04 -0.29474138D-04  0.58948276D-04
  0.13129910D-16  0.11753394D-16  0.24438177D-17 -0.57384840D-05 -0.57384840D-05
  0.11476968D-04  0.86543756D-19 -0.92143863D-18 -0.11492484D-17 -0.31854399D-18
 -0.45213141D-19 -0.54966313D-05 -0.31830388D-18 -0.44868421D-19  0.82449469D-05
  0.12739359D-17  0.18050784D-18  0.82449469D-05 -0.14839045D-18  0.33457836D-18
  0.10313762D-18 -0.87107139D-06  0.33456831D-18  0.10313737D-18  0.13066071D-05
 -0.13383034D-17 -0.41255024D-18  0.13066071D-05  0.56060285D-19
MO    2     MO 0.0        OCC NO =    2.0000000  ORB. ENERGY =  -46.944962
 -0.30119562D+00 -0.56314928D+00 -0.97074313D+00 -0.15656624D+01 -0.23498391D+01
 -0.31493574D+01 -0.34614384D+01 -0.25908086D+01 -0.88945651D+00 -0.50135573D-01
  0.34957994D-02 -0.83031249D-03 -0.51752280D-04  0.39165737D-03  0.73467370D-03
  0.12637676D-02  0.20623145D-02  0.31297087D-02  0.44322134D-02  0.53589098D-02
  0.52917018D-02  0.26465773D-02 -0.14819496D-02 -0.23665444D-02 -0.77238892D-03
  0.44927547D-05 -0.17787758D-03 -0.33341576D-03 -0.57425779D-03 -0.93610785D-03
 -0.14250930D-02 -0.20195274D-02 -0.24678920D-02 -0.24710462D-02 -0.12902862D-02
  0.80337927D-03  0.14525531D-02  0.10647016D-02 -0.48536448D-03  0.48940001D-03
  0.15031293D-03 -0.14194626D-04  0.19814995D-15  0.25609836D-15  0.27613139D-15
  0.22763207D-15  0.12428053D-15  0.39849463D-16  0.44881101D-17 -0.51503079D-19
 -0.17257520D-15 -0.22304434D-15 -0.24049176D-15 -0.19825212D-15 -0.10823993D-15
 -0.34706186D-16 -0.39088402D-17  0.44855697D-19 -0.50273336D-04 -0.64975636D-04
 -0.70058288D-04 -0.57753350D-04 -0.31531659D-04 -0.10110351D-04 -0.11386946D-05
  0.13067031D-07  0.31047191D-16  0.40124936D-16  0.43912993D-16  0.36688156D-16
  0.20524938D-16  0.69525747D-17  0.10881175D-17 -0.20551953D-17  0.39919329D-15
  0.51591158D-15  0.56461702D-15  0.47172273D-15  0.26390205D-15  0.89393633D-16
  0.13990612D-16 -0.26424941D-16  0.36402471D-04  0.47046022D-04  0.51487475D-04
  0.43016437D-04  0.24065251D-04  0.81518131D-05  0.12758051D-05 -0.24096927D-05
 -0.76162541D-18  0.12249723D-16  0.40552360D-04  0.24650131D-17 -0.21052736D-17
 -0.14045456D-04  0.35979419D-19  0.17304816D-18  0.22038320D-06  0.49476636D-05
  0.49476636D-05 -0.98953273D-05 -0.33365702D-17 -0.14921962D-16  0.17032645D-17
 -0.26071399D-05 -0.26071399D-05  0.52142798D-05  0.14103408D-16  0.79394586D-16
 -0.38726917D-17 -0.29780227D-05 -0.29780227D-05  0.59560454D-05  0.76157110D-18
 -0.48737331D-18 -0.10096726D-17  0.18995231D-18 -0.18504545D-18  0.99238185D-05
  0.18980668D-18 -0.18559469D-18 -0.14885728D-04 -0.75966362D-18  0.74073103D-18
 -0.14885728D-04 -0.10713558D-18 -0.19496886D-18 -0.12032138D-18 -0.33357837D-05
 -0.19496948D-18 -0.12028395D-18  0.50036756D-05  0.77987604D-18  0.48124811D-18
  0.50036756D-05  0.14318901D-21 -0.30119543D+00 -0.56314893D+00 -0.97074252D+00
 -0.15656614D+01 -0.23498376D+01 -0.31493554D+01 -0.34614362D+01 -0.25908069D+01
 -0.88945595D+00 -0.50135541D-01  0.34957972D-02 -0.83031197D-03 -0.51752248D-04
  0.39165707D-03  0.73467313D-03  0.12637667D-02  0.20623129D-02  0.31297063D-02
  0.44322099D-02  0.53589056D-02  0.52916977D-02  0.26465752D-02 -0.14819485D-02
 -0.23665425D-02 -0.77238832D-03  0.44927512D-05 -0.17787743D-03 -0.33341549D-03
 -0.57425732D-03 -0.93610710D-03 -0.14250918D-02 -0.20195257D-02 -0.24678900D-02
 -0.24710442D-02 -0.12902851D-02  0.80337862D-03  0.14525520D-02  0.10647007D-02
 -0.48536409D-03  0.48939965D-03  0.15031262D-03 -0.14194606D-04  0.41044411D-15
  0.53047737D-15  0.57197341D-15  0.47151281D-15  0.25743236D-15  0.82543434D-16
  0.92965875D-17 -0.10668252D-18  0.25961619D-15  0.33554024D-15  0.36178754D-15
  0.29824368D-15  0.16283243D-15  0.52210793D-16  0.58803249D-17 -0.67479369D-19
  0.50272728D-04  0.64974851D-04  0.70057442D-04  0.57752652D-04  0.31531278D-04
  0.10110228D-04  0.11386808D-05 -0.13066874D-07 -0.40773311D-17 -0.52694832D-17
 -0.57669570D-17 -0.48181415D-17 -0.26954763D-17 -0.91306003D-18 -0.14289909D-18
  0.26990241D-18 -0.40806534D-16 -0.52737768D-16 -0.57716560D-16 -0.48220674D-16
 -0.26976726D-16 -0.91380401D-17 -0.14301553D-17  0.27012234D-17 -0.36401862D-04
 -0.47045235D-04 -0.51486614D-04 -0.43015717D-04 -0.24064848D-04 -0.81516767D-05
 -0.12757838D-05  0.24096523D-05 -0.11262022D-17  0.10043515D-17 -0.40552331D-04
 -0.15601244D-17 -0.21876674D-17  0.14045405D-04 -0.14033856D-18  0.78176807D-19
 -0.22038261D-06  0.49476518D-05  0.49476518D-05 -0.98953036D-05 -0.13697178D-17
 -0.16694862D-17  0.26653582D-17 -0.26071214D-05 -0.26071214D-05  0.52142428D-05
  0.13161977D-16  0.11760985D-16  0.24266182D-17 -0.29780191D-05 -0.29780191D-05
  0.59560382D-05  0.87048174D-19 -0.92199463D-18 -0.11533641D-17 -0.31829774D-18
 -0.46661036D-19 -0.99238151D-05 -0.31807821D-18 -0.46352921D-19  0.14885723D-04
  0.12729714D-17  0.18633603D-18  0.14885723D-04 -0.14773219D-18  0.33460785D-18
  0.10399699D-18  0.33357843D-05  0.33459586D-18  0.10399774D-18 -0.50036764D-05
 -0.13384194D-17 -0.41598871D-18 -0.50036764D-05  0.56137711D-19
MO    3     MO 0.0        OCC NO =    2.0000000  ORB. ENERGY =   -3.151101
  0.12685344D-02  0.23717949D-02  0.40884428D-02  0.65940424D-02  0.98967302D-02
  0.13264032D-01  0.14578412D-01  0.10911612D-01  0.37460910D-02  0.21115413D-03
 -0.14723129D-04  0.34969963D-05  0.21796316D-06  0.73622668D-01  0.13810193D+00
  0.23755954D+00  0.38766818D+00  0.58831398D+00  0.83315519D+00  0.10073530D+01
  0.99471945D+00  0.49749627D+00 -0.27857278D+00 -0.44485645D+00 -0.14519153D+00
  0.84453558D-03  0.99502752D-03  0.18650909D-02  0.32123346D-02  0.52364839D-02
  0.79718126D-02  0.11297013D-01  0.13805115D-01  0.13822759D-01  0.72177183D-02
 -0.44940149D-02 -0.81254218D-02 -0.59558230D-02  0.27150753D-02 -0.60096836D-02
 -0.14187488D-02  0.21173682D-03  0.11972572D-14  0.15473918D-14  0.16684349D-14
  0.13753933D-14  0.75092500D-15  0.24077753D-15  0.27117958D-16 -0.31119075D-18
 -0.10307777D-14 -0.13322259D-14 -0.14364379D-14 -0.11841439D-14 -0.64650836D-15
 -0.20729725D-15 -0.23347187D-16  0.26791946D-18  0.29009397D-02  0.37493116D-02
  0.40425976D-02  0.33325615D-02  0.18194822D-02  0.58340105D-03  0.65706485D-04
 -0.75401143D-06 -0.28640807D-15 -0.37014961D-15 -0.40509416D-15 -0.33844556D-15
 -0.18934105D-15 -0.64136995D-16 -0.10037805D-16  0.18959027D-16  0.10089557D-14
  0.13039596D-14  0.14270620D-14  0.11922729D-14  0.66700891D-15  0.22594121D-15
  0.35361085D-16 -0.66788685D-16 -0.28038557D-02 -0.36236621D-02 -0.39657596D-02
 -0.33132882D-02 -0.18535964D-02 -0.62788340D-03 -0.98267326D-04  0.18560362D-03
 -0.53189547D-17  0.23529340D-16 -0.16357389D-03 -0.13596173D-17  0.12021266D-17
  0.14108608D-03 -0.13428300D-18  0.10766065D-18 -0.44910318D-05 -0.45493271D-04
 -0.45493271D-04  0.90986541D-04 -0.11045021D-17  0.23785779D-17  0.10098386D-17
  0.55706592D-04  0.55706592D-04 -0.11141318D-03 -0.76819793D-17 -0.25005346D-17
 -0.33815433D-17  0.86917098D-05  0.86917098D-05 -0.17383420D-04 -0.34280556D-18
  0.19266453D-19 -0.88130691D-18 -0.67220397D-19  0.24446522D-18 -0.86388121D-05
 -0.68223784D-19  0.17010207D-18  0.12958218D-04  0.26988497D-18 -0.90349772D-18
  0.12958218D-04 -0.15258205D-18  0.23328186D-18 -0.30762291D-18 -0.40172815D-05
  0.23177759D-18 -0.30304191D-18  0.60259222D-05 -0.93162316D-18  0.12259106D-17
  0.60259222D-05  0.35716481D-19 -0.12685349D-02 -0.23717958D-02 -0.40884444D-02
 -0.65940449D-02 -0.98967339D-02 -0.13264037D-01 -0.14578417D-01 -0.10911617D-01
 -0.37460924D-02 -0.21115421D-03  0.14723134D-04 -0.34969977D-05 -0.21796324D-06
 -0.73622699D-01 -0.13810199D+00 -0.23755964D+00 -0.38766834D+00 -0.58831423D+00
 -0.83315554D+00 -0.10073534D+01 -0.99471988D+00 -0.49749648D+00  0.27857290D+00
  0.44485664D+00  0.14519159D+00 -0.84453594D-03 -0.99502788D-03 -0.18650916D-02
 -0.32123358D-02 -0.52364858D-02 -0.79718154D-02 -0.11297017D-01 -0.13805120D-01
 -0.13822764D-01 -0.72177209D-02  0.44940165D-02  0.81254247D-02  0.59558252D-02
 -0.27150763D-02  0.60096860D-02  0.14187491D-02 -0.21173685D-03 -0.35801055D-15
 -0.46270976D-15 -0.49890476D-15 -0.41127783D-15 -0.22454581D-15 -0.71998647D-16
 -0.81089638D-17  0.93054002D-19  0.21205055D-15  0.27406416D-15  0.29550255D-15
  0.24360090D-15  0.13299905D-15  0.42644980D-16  0.48029598D-17 -0.55116120D-19
  0.29009400D-02  0.37493120D-02  0.40425980D-02  0.33325618D-02  0.18194824D-02
  0.58340111D-03  0.65706492D-04 -0.75401150D-06  0.30920301D-15  0.39960945D-15
  0.43733521D-15  0.36538211D-15  0.20441052D-15  0.69241595D-16  0.10836704D-16
 -0.20467957D-16 -0.27794599D-15 -0.35921334D-15 -0.39312544D-15 -0.32844601D-15
 -0.18374687D-15 -0.62242033D-16 -0.97412324D-17  0.18398872D-16 -0.28038559D-02
 -0.36236625D-02 -0.39657600D-02 -0.33132886D-02 -0.18535966D-02 -0.62788347D-03
 -0.98267336D-04  0.18560364D-03  0.32656451D-17 -0.76728824D-17 -0.16357392D-03
  0.36249802D-17  0.96054567D-18  0.14108609D-03 -0.99656595D-19 -0.56430842D-19
 -0.44910321D-05  0.45493275D-04  0.45493275D-04 -0.90986550D-04  0.14203117D-17
 -0.11370109D-17 -0.85406070D-18 -0.55706598D-04 -0.55706598D-04  0.11141320D-03
 -0.44656546D-17  0.11864481D-16  0.97263886D-17 -0.86917125D-05 -0.86917125D-05
  0.17383425D-04 -0.21051730D-18 -0.10780191D-18 -0.86070091D-18  0.18510778D-18
  0.40342286D-19 -0.86388180D-05  0.16014555D-18  0.78649182D-20  0.12958227D-04
 -0.71546890D-18 -0.12889177D-18  0.12958227D-04 -0.17145072D-18 -0.16109623D-18
  0.21152683D-18 -0.40172792D-05 -0.15966435D-18  0.21131186D-18  0.60259188D-05
  0.64295304D-18 -0.84589234D-18  0.60259188D-05 -0.66768282D-21
MO    4     MO 0.0        OCC NO =    2.0000000  ORB. ENERGY =   -3.151094
 -0.11405020D-02 -0.21324110D-02 -0.36757987D-02 -0.59285095D-02 -0.88978589D-02
 -0.11925301D-01 -0.13107021D-01 -0.98103097D-02 -0.33680002D-02 -0.18984247D-03
  0.13237132D-04 -0.31440465D-05 -0.19596426D-06 -0.73889127D-01 -0.13860175D+00
 -0.23841933D+00 -0.38907124D+00 -0.59044323D+00 -0.83617059D+00 -0.10109989D+01
 -0.99831959D+00 -0.49929684D+00  0.27958101D+00  0.44646650D+00  0.14571701D+00
 -0.84759217D-03 -0.84644065D-03 -0.15865780D-02 -0.27326386D-02 -0.44545229D-02
 -0.67813866D-02 -0.96100369D-02 -0.11743606D-01 -0.11758615D-01 -0.61399007D-02
  0.38229263D-02  0.69120574D-02  0.50664435D-02 -0.23096347D-02  0.57921251D-02
  0.71209111D-03 -0.72070158D-04 -0.12325198D-14 -0.15929668D-14 -0.17175750D-14
 -0.14159026D-14 -0.77304187D-15 -0.24786911D-15 -0.27916658D-16  0.32035619D-18
 -0.69184250D-15 -0.89416996D-15 -0.96411548D-15 -0.79477960D-15 -0.43392669D-15
 -0.13913479D-15 -0.15670281D-16  0.17982351D-18 -0.71577404D-03 -0.92510021D-03
 -0.99746522D-03 -0.82227184D-03 -0.44893665D-03 -0.14394761D-03 -0.16212332D-04
  0.18604379D-06  0.42512874D-15  0.54943017D-15  0.60129998D-15  0.50237038D-15
  0.28104767D-15  0.95201505D-16  0.14899577D-16 -0.28141760D-16  0.49859761D-15
  0.64438027D-15  0.70521400D-15  0.58918782D-15  0.32961709D-15  0.11165381D-15
  0.17474457D-16 -0.33005095D-16  0.67911224D-03  0.87767474D-03  0.96053300D-03
  0.80250016D-03  0.44895322D-03  0.15207748D-03  0.23800991D-04 -0.44954415D-04
 -0.87119023D-18  0.14314224D-16  0.76278730D-04 -0.18570907D-17  0.12395694D-18
 -0.25641779D-04 -0.26238650D-18  0.94509099D-19  0.64538446D-06  0.10023587D-04
  0.10023587D-04 -0.20047173D-04 -0.11758279D-17  0.35363677D-18  0.25613594D-17
 -0.14358425D-04 -0.14358425D-04  0.28716850D-04  0.90904170D-17  0.33655425D-17
 -0.38615895D-17 -0.61965350D-05 -0.61965350D-05  0.12393070D-04  0.13267193D-17
  0.80606268D-18  0.28237269D-18 -0.17670463D-18 -0.39598298D-18  0.13907581D-04
 -0.17360176D-18 -0.31557928D-18 -0.20861371D-04  0.70371564D-18  0.15035282D-17
 -0.20861371D-04  0.91400911D-19  0.17010309D-18  0.10319825D-18 -0.52818928D-05
  0.17063006D-18  0.96987730D-19  0.79228392D-05 -0.68093933D-18 -0.40658248D-18
  0.79228392D-05  0.32727362D-19 -0.11405015D-02 -0.21324100D-02 -0.36757970D-02
 -0.59285067D-02 -0.88978548D-02 -0.11925295D-01 -0.13107015D-01 -0.98103051D-02
 -0.33679986D-02 -0.18984238D-03  0.13237125D-04 -0.31440450D-05 -0.19596417D-06
 -0.73889096D-01 -0.13860169D+00 -0.23841923D+00 -0.38907108D+00 -0.59044299D+00
 -0.83617024D+00 -0.10109985D+01 -0.99831917D+00 -0.49929663D+00  0.27958089D+00
  0.44646631D+00  0.14571695D+00 -0.84759181D-03 -0.84644023D-03 -0.15865772D-02
 -0.27326373D-02 -0.44545207D-02 -0.67813832D-02 -0.96100321D-02 -0.11743600D-01
 -0.11758609D-01 -0.61398977D-02  0.38229244D-02  0.69120540D-02  0.50664410D-02
 -0.23096336D-02  0.57921226D-02  0.71209051D-03 -0.72070069D-04  0.28494233D-16
  0.36827294D-16  0.39708071D-16  0.32733801D-16  0.17871709D-16  0.57304071D-17
  0.64539636D-18 -0.74062131D-20 -0.61094011D-16 -0.78960789D-16 -0.85137415D-16
 -0.70184000D-16 -0.38318435D-16 -0.12286471D-16 -0.13837836D-17  0.15879538D-19
  0.71577281D-03  0.92509862D-03  0.99746351D-03  0.82227042D-03  0.44893588D-03
  0.14394736D-03  0.16212304D-04 -0.18604347D-06  0.25014157D-15  0.32327931D-15
  0.35379900D-15  0.29558980D-15  0.16536569D-15  0.56015630D-16  0.87667648D-17
 -0.16558335D-16 -0.46700799D-16 -0.60355431D-16 -0.66053379D-16 -0.55185868D-16
 -0.30873356D-16 -0.10457977D-16 -0.16367328D-17  0.30913993D-17 -0.67911105D-03
 -0.87767320D-03 -0.96053131D-03 -0.80249875D-03 -0.44895243D-03 -0.15207721D-03
 -0.23800949D-04  0.44954336D-04  0.16217985D-16 -0.25714484D-17 -0.76278661D-04
  0.19973078D-19  0.11805672D-17  0.25641720D-04  0.29064629D-18 -0.23307999D-19
 -0.64538256D-06  0.10023567D-04  0.10023567D-04 -0.20047135D-04  0.32679570D-18
  0.23766045D-17  0.60570680D-17 -0.14358401D-04 -0.14358401D-04  0.28716803D-04
 -0.58408028D-17 -0.39220814D-17 -0.18943728D-16 -0.61965314D-05 -0.61965314D-05
  0.12393063D-04 -0.16438893D-18  0.14101167D-17  0.45260764D-18  0.47705914D-19
 -0.55535872D-21 -0.13907577D-04  0.21987578D-19 -0.35539690D-19  0.20861366D-04
 -0.16510532D-18  0.37205766D-19  0.20861366D-04  0.25681426D-18 -0.13092029D-18
 -0.80950127D-19  0.52818945D-05 -0.12922897D-18 -0.80670189D-19 -0.79228418D-05
  0.52198984D-18  0.32352057D-18 -0.79228418D-05 -0.62077410D-19
MO    5     MO 0.0        OCC NO =    2.0000000  ORB. ENERGY =   -1.872927
 -0.17558888D-17 -0.32830077D-17 -0.56591693D-17 -0.91273876D-17 -0.13698925D-16
 -0.18359900D-16 -0.20179248D-16 -0.15103712D-16 -0.51852904D-17 -0.29227680D-18
  0.20379563D-19 -0.48404968D-20 -0.30170177D-21  0.19264393D-16  0.36136285D-16
  0.62160750D-16  0.10143876D-15  0.15394051D-15  0.21800661D-15  0.26358789D-15
  0.26028215D-15  0.13017680D-15 -0.72892434D-16 -0.11640286D-15 -0.37991378D-16
  0.22098445D-18 -0.54679417D-17 -0.10249172D-16 -0.17652636D-16 -0.28775876D-16
 -0.43807237D-16 -0.62080101D-16 -0.75862792D-16 -0.75959751D-16 -0.39663288D-16
  0.24695811D-16  0.44651361D-16  0.32728837D-16 -0.14920063D-16 -0.12389000D-16
 -0.79414429D-16 -0.11301919D-16 -0.27421263D+01 -0.35440537D+01 -0.38212837D+01
 -0.31501188D+01 -0.17198738D+01 -0.55146248D+00 -0.62109352D-01  0.71273271D-03
  0.64112111D+00  0.82861523D+00  0.89343281D+00  0.73651153D+00  0.40211400D+00
  0.12893434D+00  0.14521438D-01 -0.16664002D-03 -0.38739294D-11 -0.50068495D-11
 -0.53985052D-11 -0.44503193D-11 -0.24297457D-11 -0.77907669D-12 -0.87744770D-13
  0.10069106D-14  0.25628956D-01  0.33122489D-01  0.36249469D-01  0.30285482D-01
  0.16943006D-01  0.57392385D-02  0.89822349D-03 -0.16965307D-02 -0.59921619D-02
 -0.77441825D-02 -0.84752842D-02 -0.70808779D-02 -0.39613487D-02 -0.13418590D-02
 -0.21000857D-03  0.39665627D-03  0.35220017D-13  0.45517835D-13  0.49815017D-13
  0.41619142D-13  0.23283544D-13  0.78870194D-14  0.12343634D-14 -0.23314191D-14
 -0.15562901D-03  0.36386742D-04 -0.18370081D-15  0.11646817D-04 -0.27230767D-05
  0.28675866D-16 -0.33064728D-06  0.77306777D-07 -0.32020541D-18  0.10504544D-16
 -0.10637593D-16  0.13304873D-18  0.87643930D-17 -0.18903874D-06  0.44198089D-07
  0.60225896D-18  0.30251629D-16 -0.30853888D-16 -0.72439634D-16 -0.59615477D-05
  0.13938359D-05 -0.79718216D-18  0.15305479D-17 -0.73336574D-18  0.30098675D-17
 -0.86426449D-07  0.20206882D-07 -0.14024914D-05  0.32790862D-06  0.70251563D-17
 -0.14027448D-05  0.32796786D-06 -0.23466557D-17  0.56102191D-05 -0.13116937D-05
 -0.18728813D-16  0.15457813D-16  0.57376233D-07 -0.13414813D-07 -0.21147806D-17
  0.57394492D-07 -0.13419082D-07  0.38523494D-17 -0.22952319D-06  0.53663522D-07
  0.24919923D-17 -0.86055909D-18  0.22412939D-16  0.41905756D-16  0.72236131D-16
  0.11650600D-15  0.17485912D-15  0.23435385D-15  0.25757681D-15  0.19279043D-15
  0.66187331D-16  0.37307499D-17 -0.26013372D-18  0.61786234D-19  0.38510543D-20
 -0.47094396D-16 -0.88340005D-16 -0.15196031D-15 -0.24798067D-15 -0.37632828D-15
 -0.53294647D-15 -0.64437603D-15 -0.63629468D-15 -0.31823469D-15  0.17819535D-15
  0.28456244D-15  0.92875030D-16 -0.54022619D-18  0.12058490D-16  0.22602572D-16
  0.38929482D-16  0.63459643D-16  0.96608409D-16  0.13690569D-15  0.16730075D-15
  0.16751457D-15  0.87469728D-16 -0.54461846D-16 -0.98469960D-16 -0.72177134D-16
  0.32903320D-16 -0.16909832D-15  0.72957585D-16  0.14187386D-16 -0.27421295D+01
 -0.35440578D+01 -0.38212881D+01 -0.31501225D+01 -0.17198758D+01 -0.55146312D+00
 -0.62109424D-01  0.71273354D-03  0.64112185D+00  0.82861620D+00  0.89343385D+00
  0.73651239D+00  0.40211447D+00  0.12893448D+00  0.14521455D-01 -0.16664021D-03
  0.34666966D-11  0.44805226D-11  0.48310069D-11  0.39824957D-11  0.21743275D-11
  0.69717908D-12  0.78520920D-13 -0.90106282D-15  0.25628986D-01  0.33122527D-01
  0.36249511D-01  0.30285517D-01  0.16943025D-01  0.57392451D-02  0.89822452D-03
 -0.16965326D-02 -0.59921688D-02 -0.77441914D-02 -0.84752939D-02 -0.70808860D-02
 -0.39613532D-02 -0.13418606D-02 -0.21000881D-03  0.39665673D-03 -0.30857450D-13
 -0.39879718D-13 -0.43644625D-13 -0.36463941D-13 -0.20399502D-13 -0.69100850D-14
 -0.10814676D-14  0.20426353D-14 -0.15562920D-03  0.36386787D-04  0.20285338D-15
  0.11646832D-04 -0.27230801D-05  0.11993760D-16 -0.33064811D-06  0.77306972D-07
  0.91553686D-18 -0.13872443D-17 -0.99996255D-17  0.11386870D-16  0.76544892D-17
  0.18902990D-06 -0.44196009D-07  0.61225185D-17  0.49120413D-16 -0.55242932D-16
 -0.20765142D-16  0.59615651D-05 -0.13938400D-05 -0.25742954D-17 -0.26897829D-17
  0.52640783D-17  0.10664960D-17  0.86424800D-07 -0.20206494D-07 -0.14024934D-05
  0.32790907D-06 -0.49944454D-17 -0.14027467D-05  0.32796831D-06  0.11696292D-17
  0.56102268D-05 -0.13116955D-05  0.13813707D-16  0.26526876D-17  0.57377037D-07
 -0.13415002D-07  0.42744906D-17  0.57395297D-07 -0.13419271D-07 -0.30019073D-17
 -0.22952641D-06  0.53664279D-07 -0.98215644D-17 -0.20657603D-17
MO    6     MO 0.0        OCC NO =    2.0000000  ORB. ENERGY =   -1.872927
  0.12414192D-16  0.23210973D-16  0.40010515D-16  0.64530933D-16  0.96851853D-16
  0.12980510D-15  0.14266795D-15  0.10678374D-15  0.36660175D-16  0.20664067D-17
 -0.14408418D-18  0.34222472D-19  0.21330415D-20 -0.38572360D-16 -0.72354309D-16
 -0.12446210D-15 -0.20310696D-15 -0.30822923D-15 -0.43650635D-15 -0.52777201D-15