 Molden2AIM, Version 4.0.0 (06/02/2016)           Time: Wed Jun 27 19:48:17 2018
GAUSSIAN             14 MOL ORBITALS    268 PRIMITIVES        2 NUCLEI
  Mg   1    (CENTRE  1)   0.00000000  0.00000000  2.01924417  CHARGE = 12.0
  S    2    (CENTRE  2)   0.00000000  0.00000000 -2.01924417  CHARGE = 16.0
CENTRE ASSIGNMENTS    1  1  1  1  1  1  1  1  1  1  1  1  1  1  1  1  1  1  1  1
CENTRE ASSIGNMENTS    1  1  1  1  1  1  1  1  1  1  1  1  1  1  1  1  1  1  1  1
CENTRE ASSIGNMENTS    1  1  1  1  1  1  1  1  1  1  1  1  1  1  1  1  1  1  1  1
CENTRE ASSIGNMENTS    1  1  1  1  1  1  1  1  1  1  1  1  1  1  1  1  1  1  1  1
CENTRE ASSIGNMENTS    1  1  1  1  1  1  1  1  1  1  1  1  1  1  1  1  1  1  1  1
CENTRE ASSIGNMENTS    1  1  1  1  1  1  1  1  1  1  1  1  1  1  1  1  1  1  1  1
CENTRE ASSIGNMENTS    1  1  1  1  1  1  1  1  1  1  1  1  1  1  1  1  1  2  2  2
CENTRE ASSIGNMENTS    2  2  2  2  2  2  2  2  2  2  2  2  2  2  2  2  2  2  2  2
CENTRE ASSIGNMENTS    2  2  2  2  2  2  2  2  2  2  2  2  2  2  2  2  2  2  2  2
CENTRE ASSIGNMENTS    2  2  2  2  2  2  2  2  2  2  2  2  2  2  2  2  2  2  2  2
CENTRE ASSIGNMENTS    2  2  2  2  2  2  2  2  2  2  2  2  2  2  2  2  2  2  2  2
CENTRE ASSIGNMENTS    2  2  2  2  2  2  2  2  2  2  2  2  2  2  2  2  2  2  2  2
CENTRE ASSIGNMENTS    2  2  2  2  2  2  2  2  2  2  2  2  2  2  2  2  2  2  2  2
CENTRE ASSIGNMENTS    2  2  2  2  2  2  2  2
TYPE ASSIGNMENTS      1  1  1  1  1  1  1  1  1  1  1  1  1  1  1  1  1  1  1  1
TYPE ASSIGNMENTS      1  1  1  1  1  1  1  1  1  1  1  1  1  1  1  1  1  1  1  1
TYPE ASSIGNMENTS      1  1  2  2  2  2  2  2  2  2  3  3  3  3  3  3  3  3  4  4
TYPE ASSIGNMENTS      4  4  4  4  4  4  2  2  2  2  2  2  2  2  3  3  3  3  3  3
TYPE ASSIGNMENTS      3  3  4  4  4  4  4  4  4  4  2  3  4  2  3  4  2  3  4  5
TYPE ASSIGNMENTS      6  7  8  9 10  5  6  7  8  9 10  5  6  7  8  9 10 11 12 13
TYPE ASSIGNMENTS     17 14 15 18 19 16 20 11 12 13 17 14 15 18 19 16 20  1  1  1
TYPE ASSIGNMENTS      1  1  1  1  1  1  1  1  1  1  1  1  1  1  1  1  1  1  1  1
TYPE ASSIGNMENTS      1  1  1  1  1  1  1  1  1  1  1  1  1  1  1  1  1  1  1  2
TYPE ASSIGNMENTS      2  2  2  2  2  2  3  3  3  3  3  3  3  4  4  4  4  4  4  4
TYPE ASSIGNMENTS      2  2  2  2  2  2  2  3  3  3  3  3  3  3  4  4  4  4  4  4
TYPE ASSIGNMENTS      4  2  3  4  2  3  4  2  3  4  5  6  7  8  9 10  5  6  7  8
TYPE ASSIGNMENTS      9 10  5  6  7  8  9 10 11 12 13 17 14 15 18 19 16 20 11 12
TYPE ASSIGNMENTS     13 17 14 15 18 19 16 20
EXPONENTS  0.1649000D+06 0.2471000D+05 0.5628000D+04 0.1596000D+04 0.5210000D+03
EXPONENTS  0.1880000D+03 0.7301000D+02 0.2990000D+02 0.1254000D+02 0.4306000D+01
EXPONENTS  0.1826000D+01 0.7417000D+00 0.7612000D-01 0.1649000D+06 0.2471000D+05
EXPONENTS  0.5628000D+04 0.1596000D+04 0.5210000D+03 0.1880000D+03 0.7301000D+02
EXPONENTS  0.2990000D+02 0.1254000D+02 0.4306000D+01 0.1826000D+01 0.7417000D+00
EXPONENTS  0.7612000D-01 0.1649000D+06 0.2471000D+05 0.5628000D+04 0.1596000D+04
EXPONENTS  0.5210000D+03 0.1880000D+03 0.7301000D+02 0.2990000D+02 0.1254000D+02
EXPONENTS  0.4306000D+01 0.1826000D+01 0.7417000D+00 0.7612000D-01 0.1457000D+00
EXPONENTS  0.3310000D-01 0.1290000D-01 0.3169000D+03 0.7486000D+02 0.2372000D+02
EXPONENTS  0.8669000D+01 0.3363000D+01 0.1310000D+01 0.4911000D+00 0.2364000D+00
EXPONENTS  0.3169000D+03 0.7486000D+02 0.2372000D+02 0.8669000D+01 0.3363000D+01
EXPONENTS  0.1310000D+01 0.4911000D+00 0.2364000D+00 0.3169000D+03 0.7486000D+02
EXPONENTS  0.2372000D+02 0.8669000D+01 0.3363000D+01 0.1310000D+01 0.4911000D+00
EXPONENTS  0.2364000D+00 0.3169000D+03 0.7486000D+02 0.2372000D+02 0.8669000D+01
EXPONENTS  0.3363000D+01 0.1310000D+01 0.4911000D+00 0.2364000D+00 0.3169000D+03
EXPONENTS  0.7486000D+02 0.2372000D+02 0.8669000D+01 0.3363000D+01 0.1310000D+01
EXPONENTS  0.4911000D+00 0.2364000D+00 0.3169000D+03 0.7486000D+02 0.2372000D+02
EXPONENTS  0.8669000D+01 0.3363000D+01 0.1310000D+01 0.4911000D+00 0.2364000D+00
EXPONENTS  0.8733000D-01 0.8733000D-01 0.8733000D-01 0.3237000D-01 0.3237000D-01
EXPONENTS  0.3237000D-01 0.7450000D-02 0.7450000D-02 0.7450000D-02 0.1260000D+00
EXPONENTS  0.1260000D+00 0.1260000D+00 0.1260000D+00 0.1260000D+00 0.1260000D+00
EXPONENTS  0.2940000D+00 0.2940000D+00 0.2940000D+00 0.2940000D+00 0.2940000D+00
EXPONENTS  0.2940000D+00 0.4680000D-01 0.4680000D-01 0.4680000D-01 0.4680000D-01
EXPONENTS  0.4680000D-01 0.4680000D-01 0.2520000D+00 0.2520000D+00 0.2520000D+00
EXPONENTS  0.2520000D+00 0.2520000D+00 0.2520000D+00 0.2520000D+00 0.2520000D+00
EXPONENTS  0.2520000D+00 0.2520000D+00 0.9400000D-01 0.9400000D-01 0.9400000D-01
EXPONENTS  0.9400000D-01 0.9400000D-01 0.9400000D-01 0.9400000D-01 0.9400000D-01
EXPONENTS  0.9400000D-01 0.9400000D-01 0.3741000D+06 0.5605000D+05 0.1276000D+05
EXPONENTS  0.3615000D+04 0.1183000D+04 0.4288000D+03 0.1678000D+03 0.6947000D+02
EXPONENTS  0.2984000D+02 0.1272000D+02 0.5244000D+01 0.2219000D+01 0.3490000D+00
EXPONENTS  0.3741000D+06 0.5605000D+05 0.1276000D+05 0.3615000D+04 0.1183000D+04
EXPONENTS  0.4288000D+03 0.1678000D+03 0.6947000D+02 0.2984000D+02 0.1272000D+02
EXPONENTS  0.5244000D+01 0.2219000D+01 0.3490000D+00 0.3741000D+06 0.5605000D+05
EXPONENTS  0.1276000D+05 0.3615000D+04 0.1183000D+04 0.4288000D+03 0.1678000D+03
EXPONENTS  0.6947000D+02 0.2984000D+02 0.1272000D+02 0.5244000D+01 0.2219000D+01
EXPONENTS  0.3490000D+00 0.7767000D+00 0.1322000D+00 0.4970000D-01 0.5744000D+03
EXPONENTS  0.1358000D+03 0.4319000D+02 0.1587000D+02 0.6208000D+01 0.2483000D+01
EXPONENTS  0.3229000D+00 0.5744000D+03 0.1358000D+03 0.4319000D+02 0.1587000D+02
EXPONENTS  0.6208000D+01 0.2483000D+01 0.3229000D+00 0.5744000D+03 0.1358000D+03
EXPONENTS  0.4319000D+02 0.1587000D+02 0.6208000D+01 0.2483000D+01 0.3229000D+00
EXPONENTS  0.5744000D+03 0.1358000D+03 0.4319000D+02 0.1587000D+02 0.6208000D+01
EXPONENTS  0.2483000D+01 0.3229000D+00 0.5744000D+03 0.1358000D+03 0.4319000D+02
EXPONENTS  0.1587000D+02 0.6208000D+01 0.2483000D+01 0.3229000D+00 0.5744000D+03
EXPONENTS  0.1358000D+03 0.4319000D+02 0.1587000D+02 0.6208000D+01 0.2483000D+01
EXPONENTS  0.3229000D+00 0.8688000D+00 0.8688000D+00 0.8688000D+00 0.1098000D+00
EXPONENTS  0.1098000D+00 0.1098000D+00 0.3510000D-01 0.3510000D-01 0.3510000D-01
EXPONENTS  0.2690000D+00 0.2690000D+00 0.2690000D+00 0.2690000D+00 0.2690000D+00
EXPONENTS  0.2690000D+00 0.8190000D+00 0.8190000D+00 0.8190000D+00 0.8190000D+00
EXPONENTS  0.8190000D+00 0.8190000D+00 0.1010000D+00 0.1010000D+00 0.1010000D+00
EXPONENTS  0.1010000D+00 0.1010000D+00 0.1010000D+00 0.5570000D+00 0.5570000D+00
EXPONENTS  0.5570000D+00 0.5570000D+00 0.5570000D+00 0.5570000D+00 0.5570000D+00
EXPONENTS  0.5570000D+00 0.5570000D+00 0.5570000D+00 0.2180000D+00 0.2180000D+00
EXPONENTS  0.2180000D+00 0.2180000D+00 0.2180000D+00 0.2180000D+00 0.2180000D+00
EXPONENTS  0.2180000D+00 0.2180000D+00 0.2180000D+00
MO    1     MO 0.0        OCC NO =    2.0000000  ORB. ENERGY =  -88.981596
  0.74274373D-04  0.13887174D-03  0.23938375D-03  0.38608992D-03  0.57946667D-03
  0.77662663D-03  0.85358533D-03  0.63888937D-03  0.21933859D-03  0.12363354D-04
 -0.86205869D-06  0.20475377D-06  0.12762032D-07 -0.16300837D-03 -0.30577227D-03
 -0.52598195D-03 -0.85833835D-03 -0.13025894D-02 -0.18446937D-02 -0.22303861D-02
 -0.22024141D-02 -0.11015094D-02  0.61678961D-03  0.98495924D-03  0.32146941D-03
 -0.18698911D-05  0.97748052D-04  0.18322006D-03  0.31556861D-03  0.51441402D-03
  0.78312322D-03  0.11097794D-02  0.13561666D-02  0.13578999D-02  0.70904361D-03
 -0.44147643D-03 -0.79821325D-03 -0.58507940D-03  0.26671958D-03  0.26807064D-03
  0.60142993D-05 -0.18433489D-05  0.38716170D-16  0.50038608D-16  0.53952827D-16
  0.44476629D-16  0.24282953D-16  0.77861164D-17  0.87692393D-18 -0.10063096D-19
 -0.15186035D-15 -0.19627150D-15 -0.21162463D-15 -0.17445518D-15 -0.95247485D-16
 -0.30540272D-16 -0.34396475D-17  0.39471500D-19 -0.31988940D-02 -0.41344018D-02
 -0.44578111D-02 -0.36748475D-02 -0.20063605D-02 -0.64332193D-03 -0.72455171D-04
  0.83145563D-06  0.18507029D-15  0.23918214D-15  0.26176251D-15  0.21869572D-15
  0.12234782D-15  0.41443847D-16  0.64861979D-17 -0.12250886D-16 -0.51353862D-16
 -0.66368981D-16 -0.72634649D-16 -0.60684346D-16 -0.33949442D-16 -0.11499963D-16
 -0.17998097D-17  0.33994128D-17  0.30645437D-02  0.39605715D-02  0.43344754D-02
  0.36213407D-02  0.20259342D-02  0.68626076D-03  0.10740371D-03 -0.20286009D-03
 -0.53114011D-16  0.62710807D-16 -0.15930106D-03 -0.60560270D-17  0.49587443D-17
  0.44997200D-05 -0.18493089D-18 -0.44068578D-18 -0.12313152D-06 -0.16326564D-04
 -0.16326564D-04  0.32653128D-04 -0.40148558D-16  0.40516948D-16 -0.38509336D-16
 -0.14394044D-04 -0.14394044D-04  0.28788088D-04  0.11856610D-15 -0.39418425D-16
  0.23846327D-16 -0.42066418D-06 -0.42066418D-06  0.84132836D-06  0.36761835D-17
  0.68019975D-17 -0.56517468D-17 -0.10385223D-17  0.47042232D-17  0.22725260D-05
 -0.10384941D-17  0.47042620D-17 -0.34087890D-05  0.41540611D-17 -0.18816932D-16
 -0.34087890D-05  0.16658787D-18  0.16755352D-17 -0.16491594D-17 -0.81819765D-06
  0.16754945D-17 -0.16491836D-17  0.12272965D-05 -0.67021000D-17  0.65966619D-17
  0.12272965D-05  0.56658331D-18  0.58490985D+00  0.10934550D+01  0.18898316D+01
  0.30567178D+01  0.46200500D+01  0.63625670D+01  0.74363657D+01  0.64255810D+01
  0.29969139D+01  0.40691616D+00  0.10896212D-02  0.21373864D-02  0.97580616D-04
 -0.73616123D-03 -0.13748124D-02 -0.23848249D-02 -0.38669111D-02 -0.59535499D-02
 -0.84791924D-02 -0.10903141D-01 -0.11445053D-01 -0.80924637D-02  0.17921100D-03
  0.58145397D-02  0.32016434D-02 -0.13539696D-04  0.30364739D-03  0.56665094D-03
  0.98420486D-03  0.15941935D-02  0.24625624D-02  0.35107527D-02  0.45663425D-02
  0.48664902D-02  0.36093746D-02 -0.11234643D-03 -0.32699054D-02 -0.32033786D-02
  0.14961678D-02 -0.21645092D-02 -0.84773747D-03 -0.52401993D-04  0.34821571D-14
  0.45684006D-14  0.50108391D-14  0.41229978D-14  0.21737260D-14  0.56550076D-15
 -0.62578425D-18 -0.10044710D-13 -0.13178113D-13 -0.14454381D-13 -0.11893294D-13
 -0.62703798D-14 -0.16312565D-14  0.18051516D-17  0.11650502D-02  0.15284824D-02
  0.16765122D-02  0.13794608D-02  0.72727903D-03  0.18920363D-03 -0.20937310D-06
  0.47211650D-14  0.61989184D-14  0.69742011D-14  0.58762918D-14  0.32871152D-14
  0.81815629D-15 -0.37524589D-15 -0.10330615D-13 -0.13564161D-13 -0.15260595D-13
 -0.12858205D-13 -0.71926999D-14 -0.17902484D-14  0.82109416D-15 -0.79218987D-03
 -0.10401501D-02 -0.11702390D-02 -0.98601485D-03 -0.55156288D-03 -0.13728288D-03
  0.62964543D-04  0.11777583D-14 -0.28429320D-14 -0.12443988D-04  0.10893820D-15
 -0.13723187D-15 -0.27358482D-03  0.65161258D-17  0.74247310D-18 -0.16384854D-05
  0.38340515D-04  0.38340515D-04 -0.76681031D-04 -0.21744939D-17 -0.22213801D-17
  0.14690386D-16 -0.69253389D-04 -0.69253389D-04  0.13850678D-03 -0.12081746D-16
  0.38466453D-16 -0.40963007D-16  0.13760248D-04  0.13760248D-04 -0.27520495D-04
  0.10040194D-17  0.29727499D-16 -0.32393468D-16  0.11665433D-16 -0.14869912D-16
  0.18825020D-04  0.11641784D-16 -0.14894221D-16 -0.28237529D-04 -0.46638082D-16
  0.59503957D-16 -0.28237529D-04  0.34682881D-17 -0.23899195D-17  0.39291328D-17
 -0.18398956D-04 -0.23880472D-17  0.39309113D-17  0.27598435D-04  0.95578056D-17
 -0.15718310D-16  0.27598435D-04 -0.55264133D-17
MO    2     MO 0.0        OCC NO =    2.0000000  ORB. ENERGY =  -47.001505
 -0.42638269D+00 -0.79721312D+00 -0.13742167D+01 -0.22164046D+01 -0.33265115D+01
 -0.44583366D+01 -0.49001290D+01 -0.36676360D+01 -0.12591447D+01 -0.70973608D-01
  0.49487715D-02 -0.11754184D-02 -0.73262274D-04  0.14759905D-02  0.27686735D-02
  0.47626041D-02  0.77719886D-02  0.11794544D-01  0.16703132D-01  0.20195458D-01
  0.19942179D-01  0.99738271D-02 -0.55848394D-02 -0.89185017D-02 -0.29108062D-02
  0.16931286D-04 -0.79479130D-03 -0.14897659D-02 -0.25658945D-02 -0.41827103D-02
 -0.63675900D-02 -0.90236376D-02 -0.11027017D-01 -0.11041110D-01 -0.57652472D-02
  0.35896534D-02  0.64902873D-02  0.47572919D-02 -0.21687020D-02  0.37005779D-03
 -0.46908922D-03  0.34146201D-05 -0.31188754D-14 -0.40309820D-14 -0.43463014D-14
 -0.35829232D-14 -0.19561725D-14 -0.62722958D-15 -0.70642744D-16  0.81065722D-18
  0.77300877D-14  0.99907309D-14  0.10772246D-13  0.88802235D-14  0.48483453D-14
  0.15545795D-14  0.17508702D-15 -0.20092022D-17  0.19858653D-02  0.25666262D-02
  0.27673979D-02  0.22813360D-02  0.12455435D-02  0.39937262D-03  0.44979986D-04
 -0.51616555D-06  0.12021588D-14  0.15536525D-14  0.17003275D-14  0.14205791D-14
  0.79473323D-15  0.26920628D-15  0.42132315D-16 -0.79577929D-16 -0.29783761D-14
 -0.38492098D-14 -0.42126005D-14 -0.35195174D-14 -0.19689699D-14 -0.66696477D-15
 -0.10438378D-15  0.19715615D-15 -0.27531967D-02 -0.35581912D-02 -0.38941079D-02
 -0.32534251D-02 -0.18201064D-02 -0.61653906D-03 -0.96491872D-04  0.18225021D-03
  0.11256015D-16 -0.28089067D-16  0.10852612D-02 -0.12293136D-17  0.30564369D-17
  0.84367381D-04  0.48041794D-19 -0.11999435D-18 -0.90155977D-06  0.13157554D-03
  0.13157554D-03 -0.26315108D-03 -0.15423594D-19  0.40798304D-17 -0.10079478D-16
 -0.55500355D-05 -0.55500355D-05  0.11100071D-04  0.59174810D-19  0.83091392D-17
 -0.20531971D-16  0.99878195D-05  0.99878195D-05 -0.19975639D-04 -0.50116104D-21
 -0.18338657D-18  0.45265485D-18  0.18527678D-17 -0.45908935D-17  0.46695708D-04
  0.18534169D-17 -0.45914067D-17 -0.70043562D-04 -0.74117204D-17  0.18364087D-16
 -0.70043562D-04  0.45594716D-21 -0.25822250D-19  0.63714618D-19  0.10576206D-04
 -0.25845574D-19  0.63730324D-19 -0.15864309D-04  0.10331233D-18 -0.25487418D-18
 -0.15864309D-04  0.72428259D-21 -0.21523961D-03 -0.40237794D-03 -0.69543471D-03
 -0.11248344D-02 -0.17001214D-02 -0.23413461D-02 -0.27364908D-02 -0.23645345D-02
 -0.11028273D-02 -0.14974012D-03 -0.40096716D-06 -0.78653181D-06 -0.35908462D-07
  0.39112374D-03  0.73044025D-03  0.12670616D-02  0.20544966D-02  0.31631314D-02
  0.45050097D-02  0.57928577D-02  0.60807767D-02  0.42995401D-02 -0.95215115D-04
 -0.30892751D-02 -0.17010387D-02  0.71936639D-05 -0.21372776D-03 -0.39884762D-03
 -0.69275058D-03 -0.11221022D-02 -0.17333196D-02 -0.24711075D-02 -0.32141036D-02
 -0.34253681D-02 -0.25405243D-02  0.79077086D-04  0.23015826D-02  0.22547566D-02
 -0.10531051D-02  0.21916050D-03  0.23829034D-02  0.14125252D-02  0.55803439D-15
  0.73211073D-15  0.80301389D-15  0.66073255D-15  0.34835127D-15  0.90624536D-16
 -0.10028529D-18 -0.57198374D-15 -0.75041153D-15 -0.82308707D-15 -0.67724908D-15
 -0.35705911D-15 -0.92889904D-16  0.10279215D-18  0.30181114D-02  0.39595977D-02
  0.43430752D-02  0.35735511D-02  0.18840468D-02  0.49013993D-03 -0.54238981D-06
 -0.76965573D-16 -0.10105627D-15 -0.11369511D-15 -0.95796729D-16 -0.53587347D-16
 -0.13337782D-16  0.61173493D-17  0.21955082D-15  0.28827156D-15  0.32432495D-15
  0.27326829D-15  0.15286245D-15  0.38047152D-16 -0.17450257D-16 -0.25817078D-02
 -0.33897980D-02 -0.38137514D-02 -0.32133739D-02 -0.17975163D-02 -0.44739814D-03
  0.20519835D-03 -0.13709633D-17  0.70296798D-17 -0.22762570D-03  0.73577807D-17
 -0.18617749D-16  0.11418636D-02  0.14795784D-18 -0.38369160D-18  0.63578337D-04
 -0.10439999D-03 -0.10439999D-03  0.20879997D-03 -0.46589022D-20  0.23736530D-16
 -0.58954348D-16  0.90174590D-04  0.90174590D-04 -0.18034918D-03  0.25168581D-20
 -0.63461472D-17  0.15545268D-16 -0.36283052D-04 -0.36283052D-04  0.72566105D-04
  0.18999362D-20  0.24859038D-17 -0.61646383D-17  0.90514827D-19 -0.18923191D-18
  0.56840233D-04  0.89896005D-19 -0.18835089D-18 -0.85260349D-04 -0.36144049D-18
  0.75604661D-18 -0.85260349D-04 -0.19869692D-20 -0.19023834D-17  0.47146729D-17
  0.57453870D-05 -0.19022364D-17  0.47145732D-17 -0.86180805D-05  0.76093865D-17
 -0.18858592D-16 -0.86180805D-05 -0.38037175D-20
MO    3     MO 0.0        OCC NO =    2.0000000  ORB. ENERGY =   -7.937442
 -0.11754013D-03 -0.21976626D-03 -0.37882778D-03 -0.61099214D-03 -0.91701327D-03
 -0.12290214D-02 -0.13508095D-02 -0.10110504D-02 -0.34710607D-03 -0.19565163D-04
  0.13642187D-05 -0.32402541D-06 -0.20196075D-07  0.25045270D-03  0.46980096D-03
  0.80814007D-03  0.13187860D-02  0.20013513D-02  0.28342625D-02  0.34268560D-02
  0.33838786D-02  0.16924038D-02 -0.94766066D-03 -0.15133315D-02 -0.49391867D-03
  0.28729768D-05 -0.14335604D-03 -0.26870819D-03 -0.46280887D-03 -0.75443298D-03
 -0.11485184D-02 -0.16275882D-02 -0.19889366D-02 -0.19914786D-02 -0.10398742D-02
  0.64746366D-03  0.11706493D-02  0.85806992D-03 -0.39116750D-03 -0.39348223D-03
  0.18030186D-03 -0.20288493D-06 -0.27834812D-14 -0.35975027D-14 -0.38789137D-14
 -0.31976268D-14 -0.17458118D-14 -0.55977926D-15 -0.63046043D-16  0.72348166D-18
  0.68933310D-14  0.89092670D-14  0.96061852D-14  0.79189684D-14  0.43235278D-14
  0.13863013D-14  0.15613443D-15 -0.17917127D-17  0.35990707D-02  0.46516092D-02
  0.50154765D-02  0.41345653D-02  0.22573531D-02  0.72380052D-03  0.81519202D-04
 -0.93546945D-06 -0.26406259D-14 -0.34127063D-14 -0.37348882D-14 -0.31204013D-14
 -0.17456871D-14 -0.59133043D-15 -0.92546578D-16  0.17479849D-15  0.56795002D-14
  0.73401031D-14  0.80330571D-14  0.67114087D-14  0.37546517D-14  0.12718429D-14
  0.19905065D-15 -0.37595937D-15 -0.33043443D-02 -0.42704863D-02 -0.46736482D-02
 -0.39047107D-02 -0.21844637D-02 -0.73996068D-03 -0.11580806D-03  0.21873389D-03
  0.95279679D-15 -0.24047342D-14  0.22185129D-03  0.80335993D-16 -0.19751168D-15
 -0.42426153D-04 -0.12665207D-17  0.17325993D-17  0.67272361D-06  0.24163683D-04
  0.24163683D-04 -0.48327367D-04  0.41909296D-16 -0.60207462D-15  0.15295560D-14
 -0.16380787D-04 -0.16380787D-04  0.32761574D-04 -0.13570832D-15  0.21115591D-15
 -0.55061153D-15 -0.13566218D-05 -0.13566218D-05  0.27132436D-05 -0.40044408D-17
 -0.81585455D-16  0.20449991D-15  0.29740451D-16 -0.73544197D-16 -0.19925931D-04
  0.29739614D-16 -0.73541816D-16  0.29888897D-04 -0.11896097D-15  0.29417441D-15
  0.29888897D-04  0.51612729D-20 -0.22108843D-16  0.56032555D-16  0.90664351D-06
 -0.22109775D-16  0.56033485D-16 -0.13599653D-05  0.88436305D-16 -0.22413115D-15
 -0.13599653D-05  0.12710012D-17 -0.25340036D-02 -0.47371724D-02 -0.81873129D-02
 -0.13242611D-01 -0.20015432D-01 -0.27564534D-01 -0.32216549D-01 -0.27837529D-01
 -0.12983523D-01 -0.17628819D-02 -0.47205633D-05 -0.92597939D-05 -0.42274827D-06
 -0.15753670D+00 -0.29420650D+00 -0.51034671D+00 -0.82750954D+00 -0.12740451D+01
 -0.18145265D+01 -0.23332455D+01 -0.24492134D+01 -0.17317675D+01  0.38350715D-01
  0.12442973D+01  0.68514386D+00 -0.28974618D-02 -0.98774667D-03 -0.18432814D-02
 -0.32015592D-02 -0.51858155D-02 -0.80105673D-02 -0.11420267D-01 -0.14854037D-01
 -0.15830400D-01 -0.11741078D-01  0.36545617D-03  0.10636805D-01  0.10420398D-01
 -0.48669438D-02  0.54582725D-01  0.22381929D-02 -0.34726634D-03  0.31773158D-11
  0.41684653D-11  0.45721711D-11  0.37620548D-11  0.19834297D-11  0.51599466D-12
 -0.57100070D-15 -0.78693340D-11 -0.10324138D-10 -0.11324005D-10 -0.93175711D-11
 -0.49124078D-11 -0.12779763D-11  0.14142111D-14  0.26161290D-01  0.34322188D-01
  0.37646209D-01  0.30975897D-01  0.16331106D-01  0.42485818D-02 -0.47014889D-05
 -0.15068499D-12 -0.19785031D-12 -0.22259494D-12 -0.18755306D-12 -0.10491455D-12
 -0.26113019D-13  0.11976689D-13  0.37396158D-12  0.49101383D-12  0.55242366D-12
  0.46545870D-12  0.26037107D-12  0.64805830D-13 -0.29723076D-13  0.36958901D-02
  0.48527262D-02  0.54596442D-02  0.46001630D-02  0.25732667D-02  0.64048084D-03
 -0.29375537D-03 -0.16191752D-13  0.40032224D-13  0.71548424D-03 -0.15091994D-14
  0.38125512D-14  0.40822746D-03 -0.33580319D-16  0.89823696D-16 -0.17378827D-04
 -0.54663437D-05 -0.54663437D-05  0.10932687D-04 -0.63140653D-17  0.37141493D-15
 -0.89234733D-15 -0.23917297D-03 -0.23917297D-03  0.47834595D-03  0.73347722D-17
  0.47656457D-15 -0.11223807D-14 -0.25027159D-04 -0.25027159D-04  0.50054317D-04
  0.52738583D-19 -0.45455132D-15  0.11459191D-14 -0.26070280D-15  0.64176309D-15
 -0.38527944D-04 -0.26111450D-15  0.64195602D-15  0.57791916D-04  0.10432229D-14
 -0.25672453D-14  0.57791916D-04 -0.91245754D-17  0.59816654D-16 -0.15101663D-15
  0.25672663D-04  0.59861889D-16 -0.15102600D-15 -0.38508994D-04 -0.23931185D-15
  0.60407589D-15 -0.38508994D-04  0.65054157D-17
MO    4     MO 0.0        OCC NO =    2.0000000  ORB. ENERGY =   -5.875425
 -0.10636422D-04 -0.19887054D-04 -0.34280823D-04 -0.55289804D-04 -0.82982218D-04
 -0.11121641D-03 -0.12223724D-03 -0.91491815D-04 -0.31410267D-04 -0.17704876D-05
  0.12345066D-06 -0.29321656D-07 -0.18275800D-08  0.47973342D-04  0.89988739D-04
  0.15479642D-03  0.25260886D-03  0.38335188D-03  0.54289311D-03  0.65640234D-03
  0.64817017D-03  0.32417406D-03 -0.18152110D-03 -0.28987337D-03 -0.94608402D-04
  0.55030870D-06 -0.41592091D-04 -0.77960690D-04 -0.13427540D-03 -0.21888472D-03
 -0.33322129D-03 -0.47221447D-03 -0.57705300D-03 -0.57779051D-03 -0.30170019D-03
  0.18784955D-03  0.33964214D-03  0.24895305D-03 -0.11348998D-03 -0.26711152D-03
  0.45395764D-04 -0.17033304D-05  0.96621554D-14  0.12487826D-13  0.13464674D-13
  0.11099758D-13  0.60601467D-14  0.19431330D-14  0.21884849D-15 -0.25113847D-17
 -0.27394956D-13 -0.35406536D-13 -0.38176176D-13 -0.31470966D-13 -0.17182238D-13
 -0.55093341D-14 -0.62049765D-15  0.71204893D-17  0.65897268D-02  0.85168745D-02
  0.91830983D-02  0.75701918D-02  0.41331059D-02  0.13252442D-02  0.14925777D-03
 -0.17128000D-05 -0.11243993D-13 -0.14531573D-13 -0.15903449D-13 -0.13286915D-13
 -0.74332735D-14 -0.25179316D-14 -0.39407063D-15  0.74430574D-15  0.31612627D-13
  0.40855698D-13  0.44712744D-13  0.37356326D-13  0.20898741D-13  0.70791961D-14
  0.11079345D-14 -0.20926249D-14 -0.63357570D-02 -0.81882398D-02 -0.89612634D-02
 -0.74869008D-02 -0.41884954D-02 -0.14188022D-02 -0.22205062D-03  0.41940084D-03
  0.67552702D-15 -0.16575741D-14  0.88718457D-04 -0.10527580D-15  0.26401866D-15
 -0.74828691D-05  0.80092369D-18 -0.16543397D-17  0.71973210D-07  0.22219583D-04
  0.22219583D-04 -0.44439166D-04 -0.14699802D-16 -0.91585141D-15  0.22893738D-14
  0.70934794D-04  0.70934794D-04 -0.14186959D-03  0.14109673D-16 -0.10028995D-14
  0.24093072D-14  0.32718618D-06  0.32718618D-06 -0.65437236D-06  0.47329014D-18
  0.39399418D-16 -0.99315172D-16 -0.23845844D-15  0.58801866D-15  0.13577885D-04
 -0.23845796D-15  0.58801929D-15 -0.20366828D-04  0.95383327D-15 -0.23520753D-14
 -0.20366828D-04  0.65927119D-18 -0.13623544D-16  0.33907741D-16  0.32527975D-05
 -0.13623473D-16  0.33907641D-16 -0.48791962D-05  0.54494105D-16 -0.13563086D-15
 -0.48791962D-05 -0.71920840D-18 -0.57895999D-04 -0.10823321D-03 -0.18706077D-03
 -0.30256240D-03 -0.45730535D-03 -0.62978451D-03 -0.73607208D-03 -0.63602181D-03
 -0.29664284D-03 -0.40277689D-04 -0.10785373D-06 -0.21156443D-06 -0.96587998D-08
 -0.38559338D-03 -0.72011206D-03 -0.12491458D-02 -0.20254467D-02 -0.31184058D-02
 -0.44413103D-02 -0.57109486D-02 -0.59947966D-02 -0.42387460D-02  0.93868805D-04
  0.30455938D-02  0.16769866D-02 -0.70919478D-05 -0.91994600D-04 -0.17167553D-03
 -0.29817985D-03 -0.48298520D-03 -0.74607078D-03 -0.10636360D-02 -0.13834430D-02
 -0.14743773D-02 -0.10935150D-02  0.34037061D-04  0.99066762D-03  0.97051234D-03
 -0.45328682D-03  0.89950859D-04  0.75255553D-03 -0.11749435D-03  0.15511119D-10
  0.20349743D-10  0.22320567D-10  0.18365716D-10  0.96827688D-11  0.25189988D-11
 -0.27875290D-14 -0.37769741D-10 -0.49551843D-10 -0.54350819D-10 -0.44720716D-10
 -0.23577646D-10 -0.61337890D-11  0.67876629D-14 -0.96695835D+01 -0.12685967D+02
 -0.13914572D+02 -0.11449130D+02 -0.60362080D+01 -0.15703360D+01  0.17377369D-02
  0.51467722D-14  0.67577432D-14  0.76029168D-14  0.64060322D-14  0.35834446D-14
  0.89191207D-15 -0.40907385D-15 -0.12635618D-13 -0.16590644D-13 -0.18665593D-13
 -0.15727173D-13 -0.87975603D-14 -0.21896949D-14  0.10042996D-14 -0.77674640D-02
 -0.10198728D-01 -0.11474256D-01 -0.96679283D-02 -0.54081035D-02 -0.13460660D-02
  0.61737071D-03  0.12856702D-12 -0.31302548D-12 -0.82464363D-01 -0.11871025D-14
  0.29568580D-14 -0.24807327D-04  0.11592412D-15 -0.29377679D-15 -0.33927045D-05
 -0.11111114D-03 -0.11111114D-03  0.22222227D-03 -0.33901363D-17 -0.75662898D-14
  0.18745590D-13  0.42915170D-03  0.42915170D-03 -0.85830340D-03 -0.13978235D-16
  0.87415928D-13 -0.21636778D-12 -0.33983414D-06 -0.33983414D-06  0.67966828D-06
 -0.13342962D-17  0.11865813D-15 -0.28806886D-15 -0.31686789D-15  0.78343914D-15
 -0.10451136D-03 -0.31680585D-15  0.78349726D-15  0.15676704D-03  0.12674095D-14
 -0.31338147D-14  0.15676704D-03 -0.19784584D-17  0.19917351D-15 -0.49361166D-15
  0.28677416D-04  0.19916965D-15 -0.49361774D-15 -0.43016124D-04 -0.79669019D-15
  0.19744527D-14 -0.43016124D-04 -0.66988592D-18
MO    5     MO 0.0        OCC NO =    2.0000000  ORB. ENERGY =   -5.868805
 -0.20557307D-14 -0.38436257D-14 -0.66255492D-14 -0.10686013D-13 -0.16038202D-13
 -0.21495102D-13 -0.23625128D-13 -0.17682875D-13 -0.60707490D-14 -0.34218703D-15
  0.23859649D-16 -0.56670772D-17 -0.35322143D-18  0.47869549D-14  0.89794041D-14
  0.15446150D-13  0.25206232D-13  0.38252247D-13  0.54171852D-13  0.65498216D-13
  0.64676780D-13  0.32347268D-13 -0.18112836D-13 -0.28924621D-13 -0.94403710D-14
  0.54911807D-16 -0.32347795D-14 -0.60633075D-14 -0.10443122D-13 -0.17023520D-13
 -0.25915922D-13 -0.36725965D-13 -0.44879667D-13 -0.44937026D-13 -0.23464403D-13
  0.14609794D-13  0.26415297D-13  0.19362051D-13 -0.88265596D-14 -0.16638434D-13
 -0.30626998D-14  0.10006816D-15 -0.46519155D-03 -0.60123556D-03 -0.64826659D-03
 -0.53440596D-03 -0.29177021D-03 -0.93553562D-04 -0.10536621D-04  0.12091246D-06
  0.65309771D-03  0.84409436D-03  0.91012277D-03  0.75027009D-03  0.40962578D-03
  0.13134292D-03  0.14792709D-04 -0.16975297D-06  0.23898312D-12  0.30887309D-12
  0.33303437D-12  0.27454068D-12  0.14989128D-12  0.48061325D-13  0.54129844D-14
 -0.62116427D-16  0.49222328D-03  0.63614217D-03  0.69619817D-03  0.58165533D-03
  0.32540309D-03  0.11022637D-03  0.17251054D-04 -0.32583140D-04 -0.69104844D-03
 -0.89310090D-03 -0.97741549D-03 -0.81660504D-03 -0.45684410D-03 -0.15475042D-03
 -0.24219322D-04  0.45744541D-04 -0.24527389D-12 -0.31698839D-12 -0.34691418D-12
 -0.28983771D-12 -0.16214772D-12 -0.54925582D-13 -0.85961662D-14  0.16236115D-13
  0.32089992D-04 -0.45052195D-04  0.66881135D-14  0.39551215D-05 -0.55527250D-05
  0.43225392D-15 -0.10928175D-06  0.15342425D-06 -0.25694408D-18  0.61925686D-15
  0.64945960D-15 -0.12687165D-14 -0.38563302D-16 -0.16559862D-04  0.23248934D-04
  0.22348088D-14  0.22149775D-14 -0.44497863D-14  0.10550092D-16  0.46873909D-04
 -0.65807821D-04  0.91255559D-16  0.31930350D-16 -0.12318591D-15  0.84638374D-16
 -0.46386482D-05  0.65123507D-05  0.56197461D-05 -0.78897462D-05  0.17679547D-15
  0.56197399D-05 -0.78897376D-05 -0.18535199D-16 -0.22478978D-04  0.31558976D-04
 -0.51185122D-15  0.76857512D-15 -0.98979146D-06  0.13896008D-05  0.37775955D-16
 -0.98978826D-06  0.13895963D-05 -0.95987229D-16  0.39591626D-05 -0.55583986D-05
 -0.17340636D-16 -0.12663225D-15 -0.18089055D-13 -0.33816437D-13 -0.58445361D-13
 -0.94532749D-13 -0.14288071D-12 -0.19677019D-12 -0.22997873D-12 -0.19871897D-12
 -0.92683237D-13 -0.12584381D-13 -0.33697873D-16 -0.66101296D-16 -0.30178003D-17
 -0.96394025D-13 -0.18001995D-12 -0.31227245D-12 -0.50633899D-12 -0.77956651D-12
 -0.11102778D-11 -0.14276732D-11 -0.14986320D-11 -0.10596390D-11  0.23466149D-13
  0.76136432D-12  0.41922786D-12 -0.17729075D-14 -0.13395669D-13 -0.24998300D-13
 -0.43419055D-13 -0.70329236D-13 -0.10863809D-12 -0.15487992D-12 -0.20144818D-12
 -0.21468946D-12 -0.15923071D-12  0.49562606D-14  0.14425472D-12  0.14131984D-12
 -0.66004747D-13  0.12673172D-12  0.25065572D-13  0.75217743D-14 -0.56166644D+01
 -0.73687578D+01 -0.80824042D+01 -0.66503303D+01 -0.35061856D+01 -0.91214378D+00
  0.10093801D-02  0.78854198D+01  0.10345241D+02  0.11347153D+02  0.93366172D+01
  0.49224493D+01  0.12805886D+01 -0.14171019D-02 -0.39663971D-10 -0.52036970D-10
 -0.57076624D-10 -0.46963551D-10 -0.24760113D-10 -0.64414111D-11  0.71280781D-14
 -0.14627087D-02 -0.19205454D-02 -0.21607431D-02 -0.18205894D-02 -0.10184122D-02
 -0.25348072D-03  0.11625847D-03  0.20535448D-02  0.26963168D-02  0.30335382D-02
  0.25559853D-02  0.14297824D-02  0.35586992D-03 -0.16321909D-03 -0.63988268D-13
 -0.84016986D-13 -0.94524774D-13 -0.79644269D-13 -0.44551887D-13 -0.11088874D-13
  0.50858919D-14 -0.46766506D-01  0.65657035D-01 -0.34075736D-12 -0.14088649D-03
  0.19779518D-03  0.12752642D-13 -0.17074811D-06  0.23971888D-06  0.18935194D-15
 -0.13879137D-14 -0.97821736D-14  0.11170087D-13  0.13111845D-13  0.62362208D-04
 -0.87552354D-04 -0.17008396D-13  0.10117862D-12 -0.84170220D-13 -0.18508545D-12
 -0.42260077D-03  0.59330311D-03 -0.76460544D-15 -0.39201277D-16  0.80380672D-15
 -0.11463500D-14 -0.19714744D-04  0.27678177D-04  0.25211973D-04 -0.35395917D-04
 -0.10789749D-14  0.25212973D-04 -0.35397322D-04  0.16338072D-14 -0.10084889D-03
  0.14158507D-03  0.16031174D-14  0.62781473D-16 -0.20394520D-05  0.28632537D-05
  0.12217570D-14 -0.20395724D-05  0.28634228D-05 -0.18570257D-14  0.81579285D-05
 -0.11453184D-04 -0.18082453D-14 -0.73550655D-16
MO    6     MO 0.0        OCC NO =    2.0000000  ORB. ENERGY =   -5.868805
 -0.49009236D-15 -0.91633191D-15 -0.15795508D-14 -0.25475775D-14 -0.38235555D-14
 -0.51244968D-14 -0.56323014D-14 -0.42156506D-14 -0.14472848D-14 -0.81578414D-16
  0.56882120D-17 -0.13510482D-17 -0.84209050D-19  0.11556370D-14  0.21677521D-14
  0.37289138D-14  0.60851322D-14  0.92346202D-14  0.13077833D-13  0.15812173D-13
  0.15613867D-13  0.78090769D-14 -0.43726887D-14 -0.69828026D-14 -0.22790358D-14
  0.13256468D-16 -0.77788967D-15 -0.14580853D-14 -0.25113295D-14 -0.40937629D-14
 -0.62321801D-14 -0.88317455D-14 -0.10792522D-13 -0.10806316D-13 -0.56426465D-14
  0.35133177D-14  0.63522682D-14  0.46561257D-14 -0.21225835D-14 -0.40074540D-14
 -0.84140534D-15  0.28597361D-16  0.65309771D-03  0.84409436D-03  0.91012277D-03
  0.75027009D-03  0.40962578D-03  0.13134292D-03  0.14792709D-04 -0.16975297D-06
  0.46519155D-03  0.60123556D-03  0.64826659D-03  0.53440596D-03  0.29177021D-03
  0.93553562D-04  0.10536621D-04 -0.12091246D-06  0.57250794D-13  0.73993633D-13