 Molden2AIM, Version 4.0.0 (06/02/2016)           Time: Sun Jun 24 19:33:35 2018
GAUSSIAN              7 MOL ORBITALS    198 PRIMITIVES        2 NUCLEI
  N    1    (CENTRE  1)   0.00000000  0.00000000  1.02933004  CHARGE =  7.0
  N    2    (CENTRE  2)   0.00000000  0.00000000 -1.02933004  CHARGE =  7.0
CENTRE ASSIGNMENTS    1  1  1  1  1  1  1  1  1  1  1  1  1  1  1  1  1  1  1  1
CENTRE ASSIGNMENTS    1  1  1  1  1  1  1  1  1  1  1  1  1  1  1  1  1  1  1  1
CENTRE ASSIGNMENTS    1  1  1  1  1  1  1  1  1  1  1  1  1  1  1  1  1  1  1  1
CENTRE ASSIGNMENTS    1  1  1  1  1  1  1  1  1  1  1  1  1  1  1  1  1  1  1  1
CENTRE ASSIGNMENTS    1  1  1  1  1  1  1  1  1  1  1  1  1  1  1  1  1  1  1  2
CENTRE ASSIGNMENTS    2  2  2  2  2  2  2  2  2  2  2  2  2  2  2  2  2  2  2  2
CENTRE ASSIGNMENTS    2  2  2  2  2  2  2  2  2  2  2  2  2  2  2  2  2  2  2  2
CENTRE ASSIGNMENTS    2  2  2  2  2  2  2  2  2  2  2  2  2  2  2  2  2  2  2  2
CENTRE ASSIGNMENTS    2  2  2  2  2  2  2  2  2  2  2  2  2  2  2  2  2  2  2  2
CENTRE ASSIGNMENTS    2  2  2  2  2  2  2  2  2  2  2  2  2  2  2  2  2  2
TYPE ASSIGNMENTS      1  1  1  1  1  1  1  1  1  1  1  1  1  1  1  1  2  2  2  2
TYPE ASSIGNMENTS      2  3  3  3  3  3  4  4  4  4  4  2  3  4  2  3  4  2  3  4
TYPE ASSIGNMENTS      5  6  7  8  9 10  5  6  7  8  9 10  5  6  7  8  9 10  5  6
TYPE ASSIGNMENTS      7  8  9 10 11 12 13 17 14 15 18 19 16 20 11 12 13 17 14 15
TYPE ASSIGNMENTS     18 19 16 20 21 22 23 24 25 26 27 28 29 30 31 32 33 34 35  1
TYPE ASSIGNMENTS      1  1  1  1  1  1  1  1  1  1  1  1  1  1  1  2  2  2  2  2
TYPE ASSIGNMENTS      3  3  3  3  3  4  4  4  4  4  2  3  4  2  3  4  2  3  4  5
TYPE ASSIGNMENTS      6  7  8  9 10  5  6  7  8  9 10  5  6  7  8  9 10  5  6  7
TYPE ASSIGNMENTS      8  9 10 11 12 13 17 14 15 18 19 16 20 11 12 13 17 14 15 18
TYPE ASSIGNMENTS     19 16 20 21 22 23 24 25 26 27 28 29 30 31 32 33 34 35
EXPONENTS  0.9072689D+05 0.1359053D+05 0.3092988D+04 0.8759988D+03 0.2857447D+03
EXPONENTS  0.1031191D+03 0.4012856D+02 0.1652810D+02 0.6939096D+02 0.2042820D+02
EXPONENTS  0.7129259D+01 0.3132430D+01 0.9875578D+00 0.3876572D+00 0.1490988D+00
EXPONENTS  0.6215163D-01 0.1500574D+03 0.3549160D+02 0.1124786D+02 0.4090031D+01
EXPONENTS  0.1622057D+01 0.1500574D+03 0.3549160D+02 0.1124786D+02 0.4090031D+01
EXPONENTS  0.1622057D+01 0.1500574D+03 0.3549160D+02 0.1124786D+02 0.4090031D+01
EXPONENTS  0.1622057D+01 0.6644226D+00 0.6644226D+00 0.6644226D+00 0.2709977D+00
EXPONENTS  0.2709977D+00 0.2709977D+00 0.1068875D+00 0.1068875D+00 0.1068875D+00
EXPONENTS  0.2837000D+01 0.2837000D+01 0.2837000D+01 0.2837000D+01 0.2837000D+01
EXPONENTS  0.2837000D+01 0.9680000D+00 0.9680000D+00 0.9680000D+00 0.9680000D+00
EXPONENTS  0.9680000D+00 0.9680000D+00 0.3350000D+00 0.3350000D+00 0.3350000D+00
EXPONENTS  0.3350000D+00 0.3350000D+00 0.3350000D+00 0.1082528D+00 0.1082528D+00
EXPONENTS  0.1082528D+00 0.1082528D+00 0.1082528D+00 0.1082528D+00 0.2027000D+01
EXPONENTS  0.2027000D+01 0.2027000D+01 0.2027000D+01 0.2027000D+01 0.2027000D+01
EXPONENTS  0.2027000D+01 0.2027000D+01 0.2027000D+01 0.2027000D+01 0.6850000D+00
EXPONENTS  0.6850000D+00 0.6850000D+00 0.6850000D+00 0.6850000D+00 0.6850000D+00
EXPONENTS  0.6850000D+00 0.6850000D+00 0.6850000D+00 0.6850000D+00 0.1427000D+01
EXPONENTS  0.1427000D+01 0.1427000D+01 0.1427000D+01 0.1427000D+01 0.1427000D+01
EXPONENTS  0.1427000D+01 0.1427000D+01 0.1427000D+01 0.1427000D+01 0.1427000D+01
EXPONENTS  0.1427000D+01 0.1427000D+01 0.1427000D+01 0.1427000D+01 0.9072689D+05
EXPONENTS  0.1359053D+05 0.3092988D+04 0.8759988D+03 0.2857447D+03 0.1031191D+03
EXPONENTS  0.4012856D+02 0.1652810D+02 0.6939096D+02 0.2042820D+02 0.7129259D+01
EXPONENTS  0.3132430D+01 0.9875578D+00 0.3876572D+00 0.1490988D+00 0.6215163D-01
EXPONENTS  0.1500574D+03 0.3549160D+02 0.1124786D+02 0.4090031D+01 0.1622057D+01
EXPONENTS  0.1500574D+03 0.3549160D+02 0.1124786D+02 0.4090031D+01 0.1622057D+01
EXPONENTS  0.1500574D+03 0.3549160D+02 0.1124786D+02 0.4090031D+01 0.1622057D+01
EXPONENTS  0.6644226D+00 0.6644226D+00 0.6644226D+00 0.2709977D+00 0.2709977D+00
EXPONENTS  0.2709977D+00 0.1068875D+00 0.1068875D+00 0.1068875D+00 0.2837000D+01
EXPONENTS  0.2837000D+01 0.2837000D+01 0.2837000D+01 0.2837000D+01 0.2837000D+01
EXPONENTS  0.9680000D+00 0.9680000D+00 0.9680000D+00 0.9680000D+00 0.9680000D+00
EXPONENTS  0.9680000D+00 0.3350000D+00 0.3350000D+00 0.3350000D+00 0.3350000D+00
EXPONENTS  0.3350000D+00 0.3350000D+00 0.1082528D+00 0.1082528D+00 0.1082528D+00
EXPONENTS  0.1082528D+00 0.1082528D+00 0.1082528D+00 0.2027000D+01 0.2027000D+01
EXPONENTS  0.2027000D+01 0.2027000D+01 0.2027000D+01 0.2027000D+01 0.2027000D+01
EXPONENTS  0.2027000D+01 0.2027000D+01 0.2027000D+01 0.6850000D+00 0.6850000D+00
EXPONENTS  0.6850000D+00 0.6850000D+00 0.6850000D+00 0.6850000D+00 0.6850000D+00
EXPONENTS  0.6850000D+00 0.6850000D+00 0.6850000D+00 0.1427000D+01 0.1427000D+01
EXPONENTS  0.1427000D+01 0.1427000D+01 0.1427000D+01 0.1427000D+01 0.1427000D+01
EXPONENTS  0.1427000D+01 0.1427000D+01 0.1427000D+01 0.1427000D+01 0.1427000D+01
EXPONENTS  0.1427000D+01 0.1427000D+01 0.1427000D+01
MO    1     MO 0.0        OCC NO =    2.0000000  ORB. ENERGY =  -14.486117
  0.10416826D+00  0.19494997D+00  0.33684135D+00  0.54745483D+00  0.83571198D+00
  0.11736700D+01  0.14269781D+01  0.13596391D+01 -0.55152824D-02 -0.21551379D-01
  0.79544078D+00  0.20983674D+00  0.77642608D-02 -0.72659172D-03  0.25344071D-04
  0.14210582D-05 -0.22524540D-16 -0.29549119D-16 -0.32580008D-16 -0.30488558D-16
 -0.22327670D-16  0.17576667D-15  0.23058185D-15  0.25423290D-15  0.23791261D-15
  0.17423042D-15 -0.28647311D-02 -0.37581358D-02 -0.41436122D-02 -0.38776161D-02
 -0.28396926D-02  0.24380135D-16 -0.21452425D-15  0.97982638D-04 -0.44208508D-17
  0.72926855D-16  0.19307825D-03  0.11131114D-16 -0.29582892D-16 -0.35584533D-04
 -0.13465081D-02 -0.13465081D-02  0.26930162D-02  0.91719388D-15  0.51252693D-15
 -0.18995727D-16 -0.20536732D-04 -0.20536732D-04  0.41073465D-04 -0.65830776D-16
 -0.26694668D-16  0.98188545D-17  0.90819235D-04  0.90819235D-04 -0.18163847D-03
  0.71750098D-17  0.22655783D-16  0.12136838D-16 -0.42097786D-05 -0.42097786D-05
  0.84195571D-05  0.28415034D-17 -0.15423501D-17  0.57104847D-17 -0.53924887D-16
 -0.11738553D-15 -0.15061003D-02 -0.53287989D-16 -0.11731714D-15  0.22591504D-02
  0.21506265D-15  0.46947373D-15  0.22591504D-02  0.13017907D-16  0.12877170D-16
  0.17146842D-16  0.27064870D-03  0.12834996D-16  0.17149285D-16 -0.40597305D-03
 -0.51466506D-16 -0.68589811D-16 -0.40597305D-03  0.14131779D-15 -0.29763690D-04
 -0.29763690D-04 -0.79372100D-04  0.34258911D-16 -0.54196032D-17  0.34222703D-16
 -0.10423941D-15  0.72374743D-17  0.13897779D-15 -0.59534161D-04  0.23811630D-03
  0.23811630D-03 -0.10421512D-15 -0.54536133D-17 -0.20544484D-15  0.10416826D+00
  0.19494997D+00  0.33684135D+00  0.54745483D+00  0.83571198D+00  0.11736700D+01
  0.14269781D+01  0.13596391D+01 -0.55152824D-02 -0.21551379D-01  0.79544078D+00
  0.20983674D+00  0.77642608D-02 -0.72659172D-03  0.25344071D-04  0.14210582D-05
 -0.12761832D-15 -0.16741779D-15 -0.18459004D-15 -0.17274041D-15 -0.12650290D-15
 -0.53434553D-16 -0.70098833D-16 -0.77288954D-16 -0.72327446D-16 -0.52967521D-16
  0.28647311D-02  0.37581358D-02  0.41436123D-02  0.38776161D-02  0.28396926D-02
  0.41580109D-16  0.18416325D-16 -0.97982639D-04  0.15098900D-16  0.18497823D-17
 -0.19307825D-03 -0.11210516D-16  0.21824491D-16  0.35584533D-04 -0.13465081D-02
 -0.13465081D-02  0.26930162D-02 -0.27645015D-15  0.42849872D-16 -0.85287109D-15
 -0.20536732D-04 -0.20536732D-04  0.41073464D-04  0.10099243D-15  0.18784002D-15
  0.19681778D-15  0.90819235D-04  0.90819235D-04 -0.18163847D-03  0.11405085D-16
  0.61057335D-18 -0.88610711D-17 -0.42097786D-05 -0.42097786D-05  0.84195571D-05
 -0.85080456D-18 -0.17699885D-17  0.68291834D-17 -0.45487208D-16  0.50136701D-17
  0.15061003D-02 -0.45953218D-16  0.44965171D-17 -0.22591504D-02  0.18241484D-15
 -0.19537527D-16 -0.22591504D-02  0.13015408D-15 -0.10669190D-16 -0.12638036D-16
 -0.27064870D-03 -0.10627270D-16 -0.12597784D-16  0.40597305D-03  0.42634841D-16
  0.50511891D-16  0.40597305D-03  0.78669459D-16 -0.29763690D-04 -0.29763690D-04
 -0.79372100D-04 -0.44996935D-16  0.36745300D-16 -0.44984002D-16 -0.97744787D-16
 -0.48989360D-16  0.13036702D-15 -0.59534161D-04  0.23811630D-03  0.23811630D-03
 -0.97866713D-16  0.36732178D-16  0.26994281D-15
MO    2     MO 0.0        OCC NO =    2.0000000  ORB. ENERGY =  -14.484061
  0.10420902D+00  0.19502625D+00  0.33697315D+00  0.54766904D+00  0.83603898D+00
  0.11741293D+01  0.14275364D+01  0.13601711D+01 -0.55475499D-02 -0.21677466D-01
  0.79608579D+00  0.20972020D+00  0.83339359D-02 -0.44627745D-02 -0.22102897D-02
 -0.13067146D-03 -0.19719996D-17 -0.25869940D-17 -0.28523451D-17 -0.26692409D-17
 -0.19547638D-17 -0.15658001D-15 -0.20541158D-15 -0.22648089D-15 -0.21194212D-15
 -0.15521146D-15 -0.26713693D-02 -0.35044715D-02 -0.38639294D-02 -0.36158873D-02
 -0.26480208D-02  0.99258248D-18  0.19823369D-15  0.22948333D-02  0.15864836D-17
 -0.77796339D-16  0.23887873D-02 -0.61649039D-17  0.30329104D-16  0.21811626D-03
 -0.98642014D-03 -0.98642014D-03  0.19728403D-02 -0.86285266D-15 -0.50873602D-15
  0.37161877D-16  0.39571112D-03  0.39571112D-03 -0.79142223D-03  0.66926148D-16
  0.38091035D-16 -0.85606497D-18  0.31767825D-03  0.31767825D-03 -0.63535650D-03
 -0.77957641D-17 -0.17875275D-16 -0.71098328D-17  0.61163980D-05  0.61163980D-05
 -0.12232796D-04 -0.28944884D-17  0.50686513D-18 -0.60544878D-17  0.49006825D-16
  0.11121638D-15 -0.57616271D-03  0.49630766D-16  0.11129298D-15  0.86424407D-03
 -0.19665124D-15 -0.44494210D-15  0.86424407D-03 -0.24511764D-17 -0.98832409D-17
 -0.14254858D-16  0.23991315D-03 -0.99164741D-17 -0.14260837D-16 -0.35986973D-03
  0.39566197D-16  0.57025411D-16 -0.35986973D-03 -0.14284050D-15  0.22428197D-04
  0.22428197D-04  0.59806264D-04 -0.33488475D-16 -0.33914260D-17 -0.33806397D-16
  0.98735152D-16  0.45091257D-17 -0.13173233D-15  0.44849606D-04 -0.17941879D-03
 -0.17941879D-03  0.98991533D-16 -0.33530991D-17  0.20188461D-15 -0.10420902D+00
 -0.19502625D+00 -0.33697315D+00 -0.54766904D+00 -0.83603898D+00 -0.11741293D+01
 -0.14275364D+01 -0.13601711D+01  0.55475499D-02  0.21677466D-01 -0.79608579D+00
 -0.20972020D+00 -0.83339359D-02  0.44627745D-02  0.22102897D-02  0.13067146D-03
  0.12767507D-15  0.16749225D-15  0.18467213D-15  0.17281724D-15  0.12655916D-15
  0.46746861D-16  0.61325494D-16  0.67615723D-16  0.63275182D-16  0.46338281D-16
 -0.26713693D-02 -0.35044715D-02 -0.38639294D-02 -0.36158873D-02 -0.26480208D-02
 -0.40849865D-16 -0.20089334D-17  0.22948333D-02 -0.83685616D-17 -0.26289802D-18
  0.23887873D-02  0.66015087D-17 -0.22308409D-16  0.21811626D-03  0.98642014D-03
  0.98642014D-03 -0.19728403D-02  0.24571169D-15 -0.51833847D-16  0.79336985D-15
 -0.39571112D-03 -0.39571112D-03  0.79142223D-03 -0.95234520D-16 -0.17233739D-15
 -0.16754062D-15 -0.31767825D-03 -0.31767825D-03  0.63535650D-03 -0.11987101D-16
  0.20477391D-17  0.13334412D-16 -0.61163980D-05 -0.61163980D-05  0.12232796D-04
  0.91692954D-18  0.68742936D-18 -0.69383073D-17  0.46578796D-16 -0.43257038D-17
 -0.57616271D-03  0.47087791D-16 -0.38695434D-17  0.86424407D-03 -0.18682418D-15
  0.16846655D-16  0.86424407D-03 -0.11726460D-15  0.86179344D-17  0.10957461D-16
  0.23991315D-03  0.85914227D-17  0.10938898D-16 -0.35986973D-03 -0.34445226D-16
 -0.43811282D-16 -0.35986973D-03 -0.81113622D-16 -0.22428197D-04 -0.22428197D-04
 -0.59806264D-04  0.44682361D-16 -0.38563684D-16  0.44606755D-16  0.11156966D-15
  0.51382212D-16 -0.14884570D-15 -0.44849606D-04  0.17941879D-03  0.17941879D-03
  0.11182810D-15 -0.38455584D-16 -0.26786735D-15
MO    3     MO 0.0        OCC NO =    2.0000000  ORB. ENERGY =   -1.160920
 -0.23443799D-01 -0.43874859D-01 -0.75808511D-01 -0.12320855D+00 -0.18808285D+00
 -0.26414268D+00 -0.32115144D+00 -0.30599633D+00 -0.20204916D-01 -0.78952220D-01
 -0.31921687D+00 -0.10433072D+00  0.15415986D+00  0.99919683D-01  0.10063317D-01
 -0.17325270D-03  0.21064759D-15  0.27634085D-15  0.30468546D-15  0.28512640D-15
  0.20880647D-15  0.13999058D-15  0.18364851D-15  0.20248556D-15  0.18948715D-15
  0.13876702D-15 -0.23613866D+00 -0.30978166D+00 -0.34155634D+00 -0.31963038D+00
 -0.23407475D+00  0.90437572D-16  0.97908025D-16 -0.94552437D-01 -0.25301809D-16
  0.69816229D-17 -0.12338311D-01  0.15257550D-16 -0.17782720D-16  0.14129152D-03
 -0.33332162D-01 -0.33332162D-01  0.66664325D-01  0.47964510D-16  0.51390618D-18
  0.58008203D-16 -0.14514954D-01 -0.14514954D-01  0.29029907D-01 -0.59719078D-16
 -0.35251893D-17  0.47095908D-17 -0.11372455D-02 -0.11372455D-02  0.22744911D-02
 -0.17941421D-17 -0.16390510D-16 -0.10112273D-16  0.25274436D-04  0.25274436D-04
 -0.50548873D-04 -0.17795015D-17 -0.42083951D-18  0.69298431D-17 -0.47243648D-17
 -0.14050950D-17 -0.20522818D-01 -0.31288080D-17 -0.83836524D-17  0.30784227D-01
  0.17301902D-16  0.12598937D-16  0.30784227D-01 -0.54684395D-16 -0.46763695D-17
  0.70364517D-17 -0.23899046D-02 -0.48495564D-17  0.57078981D-17  0.35848570D-02
  0.18878665D-16 -0.26817253D-16  0.35848570D-02 -0.91978283D-17  0.97499641D-03
  0.97499641D-03  0.25999756D-02  0.19802836D-17  0.12117690D-16  0.22997434D-17
  0.10506073D-17 -0.15049836D-16 -0.42990903D-17  0.19499483D-02 -0.77999267D-02
 -0.77999267D-02  0.97454491D-17  0.87964380D-17 -0.12840081D-16 -0.23443799D-01
 -0.43874859D-01 -0.75808511D-01 -0.12320855D+00 -0.18808285D+00 -0.26414268D+00
 -0.32115144D+00 -0.30599633D+00 -0.20204916D-01 -0.78952220D-01 -0.31921687D+00
 -0.10433072D+00  0.15415986D+00  0.99919683D-01  0.10063317D-01 -0.17325270D-03
  0.48027577D-16  0.63005618D-16  0.69468180D-16  0.65008721D-16  0.47607803D-16
  0.71265724D-17  0.93490893D-17  0.10308037D-16  0.96463197D-17  0.70642843D-17
  0.23613866D+00  0.30978166D+00  0.34155634D+00  0.31963038D+00  0.23407475D+00
  0.11491314D-16  0.50355150D-16  0.94552437D-01  0.51988442D-18 -0.67038477D-17
  0.12338311D-01 -0.93028202D-17  0.25506898D-16 -0.14129152D-03 -0.33332162D-01
 -0.33332162D-01  0.66664325D-01 -0.17132588D-16  0.73387215D-16 -0.15259191D-16
 -0.14514954D-01 -0.14514954D-01  0.29029907D-01 -0.39431096D-16  0.12766853D-16
  0.89618085D-16 -0.11372455D-02 -0.11372455D-02  0.22744911D-02  0.88979211D-17
 -0.11159682D-16  0.68358347D-18  0.25274436D-04  0.25274436D-04 -0.50548873D-04
 -0.20945439D-17 -0.27040420D-17  0.61485047D-17  0.37643612D-17  0.32384659D-17
  0.20522818D-01  0.52008077D-17 -0.77294174D-17 -0.30784227D-01 -0.16493891D-16
 -0.19859804D-17 -0.30784227D-01 -0.72146660D-16  0.71272500D-17 -0.50006933D-17
  0.23899046D-02  0.62418446D-17 -0.48630656D-17 -0.35848570D-02 -0.27623595D-16
  0.19865145D-16 -0.35848570D-02  0.21500879D-17  0.97499641D-03  0.97499641D-03
  0.25999756D-02 -0.31700299D-18  0.55444941D-17 -0.11421101D-17  0.49720665D-16
 -0.58220839D-17 -0.63937199D-16  0.19499483D-02 -0.77999267D-02 -0.77999267D-02
  0.42649602D-16  0.83276942D-18  0.43773392D-17
MO    4     MO 0.0        OCC NO =    2.0000000  ORB. ENERGY =   -0.573032
  0.21713781D-01  0.40637146D-01  0.70214278D-01  0.11411647D+00  0.17420342D+00
  0.24465047D+00  0.29745231D+00  0.28341556D+00  0.19620489D-01  0.76668528D-01
  0.30457648D+00  0.98103598D-01 -0.14432418D+00 -0.15707770D+00 -0.60183832D-01
 -0.46465671D-02 -0.93854497D-15 -0.12312428D-14 -0.13575328D-14 -0.12703870D-14
 -0.93034184D-15 -0.71951913D-16 -0.94391078D-16 -0.10407288D-15 -0.97392001D-16
 -0.71323034D-16 -0.20535477D+00 -0.26939740D+00 -0.29702982D+00 -0.27796221D+00
 -0.20355992D+00 -0.39022782D-15  0.41118975D-16 -0.72970773D-01 -0.11626373D-15
 -0.23827106D-16 -0.94136081D-02 -0.42144687D-16 -0.12391851D-16  0.12679116D-02
 -0.12373243D-01 -0.12373243D-01  0.24746485D-01 -0.12975144D-15  0.19243779D-15
  0.18662488D-17 -0.10968671D-02 -0.10968671D-02  0.21937343D-02  0.24278581D-16
  0.15047897D-15  0.25474243D-16  0.10493493D-02  0.10493493D-02 -0.20986986D-02
 -0.12897206D-16 -0.71851415D-17  0.74153689D-17  0.61027599D-04  0.61027599D-04
 -0.12205520D-03 -0.12027144D-17  0.68183818D-17  0.26342677D-17  0.30129481D-16
  0.16516090D-16  0.42472997D-02  0.31775123D-16  0.23954710D-16 -0.63709496D-02
 -0.12216356D-15 -0.73502979D-16 -0.63709496D-02  0.49373868D-17 -0.42142574D-17
  0.52074257D-17  0.21497643D-02 -0.44540725D-17  0.59530264D-17 -0.32246465D-02
  0.17096845D-16 -0.21575303D-16 -0.32246465D-02 -0.26056389D-17 -0.54484637D-03
 -0.54484637D-03 -0.14529207D-02 -0.13825906D-17  0.57590517D-17 -0.24618507D-17
 -0.19704041D-16 -0.72773059D-17  0.27374984D-16 -0.10896838D-02  0.43587620D-02
  0.43587620D-02 -0.23012830D-16  0.45547626D-17  0.11533324D-16 -0.21713781D-01
 -0.40637146D-01 -0.70214278D-01 -0.11411647D+00 -0.17420342D+00 -0.24465047D+00
 -0.29745231D+00 -0.28341556D+00 -0.19620489D-01 -0.76668528D-01 -0.30457648D+00
 -0.98103598D-01  0.14432418D+00  0.15707770D+00  0.60183832D-01  0.46465671D-02
 -0.83890050D-15 -0.11005228D-14 -0.12134048D-14 -0.11355111D-14 -0.83156829D-15
 -0.13777262D-15 -0.18073885D-15 -0.19927745D-15 -0.18648498D-15 -0.13656845D-15
 -0.20535477D+00 -0.26939740D+00 -0.29702982D+00 -0.27796221D+00 -0.20355992D+00
 -0.39850523D-15 -0.40037367D-16 -0.72970773D-01 -0.12024737D-15 -0.31131027D-16
 -0.94136081D-02  0.12434982D-16  0.15622789D-16  0.12679116D-02  0.12373243D-01
  0.12373243D-01 -0.24746485D-01 -0.43464721D-16 -0.18544079D-15  0.22149886D-16
  0.10968671D-02  0.10968671D-02 -0.21937343D-02  0.67559432D-18 -0.17224450D-15
 -0.90722658D-17 -0.10493493D-02 -0.10493493D-02  0.20986986D-02  0.43332955D-17
 -0.43491302D-16 -0.67951276D-17 -0.61027599D-04 -0.61027599D-04  0.12205520D-03
  0.15754540D-19  0.58799655D-17  0.39920941D-17  0.24739547D-16  0.33660596D-17
  0.42472997D-02  0.27377090D-16 -0.37592773D-17 -0.63709496D-02 -0.10159573D-15
 -0.63389014D-17 -0.63709496D-02  0.61351209D-18  0.14162943D-16 -0.37854832D-17
  0.21497643D-02  0.12687393D-16 -0.42540867D-17 -0.32246465D-02 -0.55176221D-16
  0.15610536D-16 -0.32246465D-02 -0.43153287D-17  0.54484637D-03  0.54484637D-03
  0.14529207D-02  0.30052832D-17  0.39001140D-16  0.30575923D-17 -0.12420531D-16
 -0.51344917D-16  0.15974444D-16  0.10896838D-02 -0.43587620D-02 -0.43587620D-02
 -0.10661737D-16  0.37031331D-16 -0.18188626D-16
MO    5     MO 0.0        OCC NO =    2.0000000  ORB. ENERGY =   -0.487013
  0.17043398D-16  0.31896565D-16  0.55111997D-16  0.89571335D-16  0.13673427D-15
  0.19202898D-15  0.23347375D-15  0.22245615D-15  0.11939832D-16  0.46655788D-16
  0.27346207D-15  0.24411052D-16 -0.51441309D-16 -0.23387841D-15 -0.40313995D-15
 -0.10932239D-15  0.93266782D-01  0.12235327D+00  0.13490320D+00  0.12624318D+00
  0.92451606D-01  0.42240512D+00  0.55413780D+00  0.61097638D+00  0.57175520D+00
  0.41871319D+00 -0.24518413D-15 -0.32164808D-15 -0.35463991D-15 -0.33187406D-15
 -0.24304116D-15  0.43167060D-01  0.19550355D+00 -0.17506978D-15  0.11581867D-01
  0.52454259D-01  0.17507962D-15  0.10855251D-02  0.49163418D-02  0.13493677D-15
 -0.25850469D-16 -0.23172100D-16  0.49022569D-16  0.28566152D-16 -0.21248249D-01
 -0.96233287D-01  0.20464830D-16 -0.11471757D-16 -0.89930730D-17 -0.10911235D-15
 -0.14430226D-01 -0.65354471D-01  0.26744085D-16  0.35462127D-16 -0.62206211D-16
 -0.29056321D-16 -0.20152272D-02 -0.91269608D-02  0.59030927D-17  0.74726714D-17
 -0.13375764D-16  0.65807266D-19 -0.24553356D-04 -0.11120211D-03 -0.29343061D-02
 -0.13289468D-01  0.26034888D-16 -0.29343432D-02 -0.13289636D-01 -0.19213956D-15
  0.11737262D-01  0.53158041D-01  0.11403490D-15  0.57705524D-15 -0.48757338D-03
 -0.22082191D-02  0.11566546D-16 -0.48757211D-03 -0.22082134D-02  0.45524127D-16
  0.19502922D-02  0.88328707D-02 -0.80223764D-16 -0.11655305D-15  0.71791703D-17
 -0.20818559D-16 -0.16992042D-17 -0.17825561D-15  0.26125055D-02  0.65981566D-16
  0.11832034D-01 -0.34833461D-02 -0.15776070D-01  0.35820552D-16 -0.78895574D-16
  0.89090799D-16  0.11832108D-01  0.26125219D-02  0.33682212D-15 -0.97257781D-17
 -0.18201706D-16 -0.31449542D-16 -0.51113689D-16 -0.78027117D-16 -0.10958092D-15
 -0.13323129D-15 -0.12694412D-15 -0.99370256D-17 -0.38829671D-16 -0.12464552D-15
 -0.40265580D-16  0.67641939D-16  0.16298099D-15  0.58778195D-15  0.32970539D-16
  0.93266782D-01  0.12235327D+00  0.13490320D+00  0.12624318D+00  0.92451606D-01
  0.42240512D+00  0.55413780D+00  0.61097638D+00  0.57175520D+00  0.41871319D+00
  0.37575073D-16  0.49293361D-16  0.54349440D-16  0.50860518D-16  0.37246656D-16
  0.43167060D-01  0.19550355D+00  0.35731462D-16  0.11581867D-01  0.52454259D-01
  0.22994831D-15  0.10855251D-02  0.49163418D-02  0.22371317D-16  0.36534536D-16
 -0.30034592D-16 -0.64999439D-17  0.22292292D-15  0.21248249D-01  0.96233287D-01
  0.73794239D-17 -0.66799476D-16  0.59420052D-16  0.23333432D-16  0.14430226D-01
  0.65354471D-01 -0.10439098D-16 -0.23378115D-16  0.33817213D-16  0.15400129D-16
  0.20152272D-02  0.91269608D-02  0.33082487D-17  0.19313470D-17 -0.52395957D-17
  0.28433822D-17  0.24553356D-04  0.11120211D-03 -0.29343061D-02 -0.13289468D-01
  0.79109847D-16 -0.29343432D-02 -0.13289636D-01 -0.23716423D-15  0.11737262D-01
  0.53158041D-01 -0.16531524D-18 -0.30395357D-15 -0.48757338D-03 -0.22082191D-02
  0.30984642D-17 -0.48757211D-03 -0.22082134D-02  0.13972206D-16  0.19502922D-02
  0.88328707D-02 -0.23267598D-16  0.14620652D-16  0.21718014D-17  0.12417350D-16
  0.22050821D-16 -0.24903746D-15 -0.26125055D-02  0.18614416D-15 -0.11832034D-01
  0.34833461D-02  0.15776070D-01  0.22385009D-16 -0.35415817D-16 -0.96889112D-16
 -0.11832108D-01 -0.26125219D-02  0.18867991D-15
MO    6     MO 0.0        OCC NO =    2.0000000  ORB. ENERGY =   -0.487013
  0.26719374D-16  0.50005067D-16  0.86400499D-16  0.14042329D-15  0.21436184D-15
  0.30104878D-15  0.36602281D-15  0.34875023D-15  0.25898393D-16  0.10119991D-15
  0.36283079D-15  0.14669784D-15 -0.22505855D-15 -0.26974309D-15 -0.79824381D-15
 -0.14504398D-15  0.42240512D+00  0.55413780D+00  0.61097638D+00  0.57175520D+00
  0.41871319D+00 -0.93266782D-01 -0.12235327D+00 -0.13490320D+00 -0.12624318D+00
 -0.92451606D-01  0.43977094D-15  0.57691939D-15  0.63609470D-15  0.59526107D-15
  0.43592723D-15  0.19550355D+00 -0.43167060D-01  0.30691514D-15  0.52454259D-01
 -0.11581867D-01  0.36358495D-15  0.49163418D-02 -0.10855251D-02  0.12046328D-15
  0.48519253D-16 -0.81921254D-16  0.33402002D-16  0.19282867D-15 -0.96233287D-01
  0.21248249D-01  0.15793193D-16  0.15806755D-16 -0.31599948D-16  0.79049925D-16
 -0.65354471D-01  0.14430226D-01  0.22843856D-16  0.36738802D-16 -0.59582658D-16
 -0.69614409D-17 -0.91269608D-02  0.20152272D-02  0.23367859D-17  0.28569598D-17
 -0.51937457D-17 -0.87275152D-18 -0.11120211D-03  0.24553356D-04 -0.13289468D-01
  0.29343061D-02 -0.82817476D-16 -0.13289636D-01  0.29343432D-02  0.13052570D-15
  0.53158041D-01 -0.11737262D-01  0.11792673D-15  0.33117790D-15 -0.22082191D-02
  0.48757338D-03  0.29357927D-16 -0.22082134D-02  0.48757211D-03 -0.68780209D-16
  0.88328707D-02 -0.19502922D-02 -0.19293572D-16 -0.14663993D-15  0.88936844D-17
 -0.14017902D-16 -0.77597382D-17  0.38639550D-16  0.11832034D-01  0.31073739D-16
 -0.26125055D-02 -0.15776070D-01  0.34833461D-02 -0.79065629D-17 -0.45455544D-16
  0.92013973D-16 -0.26125219D-02  0.11832108D-01 -0.20913987D-15 -0.56952661D-16
 -0.10658639D-15 -0.18416368D-15 -0.29931390D-15 -0.45691480D-15 -0.64168902D-15
 -0.78018195D-15 -0.74336524D-15 -0.44070278D-16 -0.17220791D-15 -0.86838173D-15
 -0.12540659D-15  0.25740607D-15  0.64208927D-15  0.79752437D-15  0.16262891D-15
  0.42240512D+00  0.55413780D+00  0.61097638D+00  0.57175520D+00  0.41871319D+00
 -0.93266782D-01 -0.12235327D+00 -0.13490320D+00 -0.12624318D+00 -0.92451606D-01
 -0.10839802D-14 -0.14220340D-14 -0.15678937D-14 -0.14672439D-14 -0.10745060D-14
  0.19550355D+00 -0.43167060D-01 -0.37747845D-15  0.52454259D-01 -0.11581867D-01
  0.19285905D-15  0.49163418D-02 -0.10855251D-02  0.13560722D-15  0.38760058D-16
  0.10885349D-15 -0.14761354D-15  0.73173252D-16  0.96233287D-01 -0.21248249D-01
  0.21832706D-16 -0.85711763D-19 -0.21746994D-16  0.14393210D-16  0.65354471D-01
 -0.14430226D-01 -0.40244176D-16 -0.31005997D-16  0.71250173D-16  0.29063340D-16
  0.91269608D-02 -0.20152272D-02 -0.59459713D-17 -0.47797488D-17  0.10725720D-16
  0.78479913D-18  0.11120211D-03 -0.24553356D-04 -0.13289468D-01  0.29343061D-02
 -0.13188351D-16 -0.13289636D-01  0.29343432D-02 -0.15364986D-15  0.53158041D-01
 -0.11737262D-01  0.19321492D-15  0.13068807D-15 -0.22082191D-02  0.48757338D-03
  0.12418862D-16 -0.22082134D-02  0.48757211D-03 -0.26844328D-16  0.88328707D-02
 -0.19502922D-02 -0.10412258D-16  0.27034942D-16  0.29546236D-16 -0.32016849D-16
  0.15674251D-16  0.54652325D-16 -0.11832034D-01 -0.22757435D-16  0.26125055D-02
  0.15776070D-01 -0.34833461D-02  0.54434592D-16 -0.23171201D-15  0.13766650D-15
  0.26125219D-02 -0.11832108D-01 -0.95684670D-16
MO    7     MO 0.0        OCC NO =    2.0000000  ORB. ENERGY =   -0.448769
  0.76351263D-02  0.14289070D-01  0.24689153D-01  0.40126298D-01  0.61254419D-01
  0.86025423D-01  0.10459191D+00  0.99656231D-01  0.67924218D-02  0.26541896D-01
  0.10950029D+00  0.30760003D-01 -0.42552076D-01 -0.66948660D-01 -0.29810705D-01
 -0.30834286D-02  0.54125615D-15  0.71005411D-15  0.78288521D-15  0.73262847D-15
  0.53652543D-15 -0.21479900D-15 -0.28178694D-15 -0.31069017D-15 -0.29074564D-15
 -0.21292160D-15 -0.45747079D+00 -0.60013917D+00 -0.66169616D+00 -0.61921906D+00
 -0.45347237D+00  0.27306676D-15 -0.12199042D-15 -0.19741431D+00  0.63994489D-16
 -0.19467451D-16 -0.46722007D-01 -0.25104288D-16  0.88100893D-17 -0.46877187D-02
 -0.32020698D-01 -0.32020698D-01  0.64041397D-01 -0.50133366D-16 -0.13508049D-15
  0.12562581D-15 -0.13826595D-01 -0.13826595D-01  0.27653189D-01  0.28391477D-16
 -0.74268302D-16  0.59759951D-16 -0.11024416D-02 -0.11024416D-02  0.22048833D-02
 -0.76229923D-17 -0.67874561D-17  0.11063437D-16 -0.16525463D-04 -0.16525463D-04
  0.33050925D-04 -0.11377617D-17  0.10750487D-16 -0.19110338D-17 -0.14992526D-16
  0.12098270D-16 -0.19365752D-01 -0.11250726D-16  0.10257861D-16  0.29048628D-01
  0.56228306D-16 -0.46552670D-16  0.29048628D-01 -0.75994336D-17 -0.18172788D-17
  0.72948721D-18 -0.10662093D-02 -0.24796977D-17  0.12681412D-17  0.15993140D-02
  0.79315342D-17 -0.34566028D-17  0.15993140D-02 -0.83578508D-17  0.14184214D-02
  0.14184214D-02  0.37824474D-02  0.37475789D-17  0.68648466D-18  0.23024068D-17
  0.22472279D-17 -0.77136801D-18 -0.45876014D-17  0.28368136D-02 -0.11347342D-01
 -0.11347342D-01  0.70211207D-17  0.25465004D-18 -0.18149957D-16  0.76351263D-02
  0.14289070D-01  0.24689153D-01  0.40126298D-01  0.61254419D-01  0.86025423D-01
  0.10459191D+00  0.99656231D-01  0.67924218D-02  0.26541896D-01  0.10950029D+00
  0.30760003D-01 -0.42552076D-01 -0.66948660D-01 -0.29810705D-01 -0.30834286D-02
  0.58926307D-15  0.77303263D-15  0.85232351D-15  0.79760923D-15  0.58411275D-15
 -0.39749570D-15 -0.52146005D-15 -0.57494683D-15 -0.53803854D-15 -0.39402148D-15
  0.45747079D+00  0.60013917D+00  0.66169616D+00  0.61921906D+00  0.45347237D+00
  0.30214959D-15 -0.16997169D-15  0.19741431D+00  0.50558514D-16 -0.68384237D-16
  0.46722007D-01  0.57837252D-16 -0.13458505D-16  0.46877187D-02 -0.32020698D-01
 -0.32020698D-01  0.64041397D-01  0.57598000D-16  0.17732560D-15 -0.82421661D-16
 -0.13826595D-01 -0.13826595D-01  0.27653189D-01 -0.33646036D-16  0.87451718D-16
 -0.27747267D-16 -0.11024416D-02 -0.11024416D-02  0.22048833D-02 -0.54248679D-18
  0.25154044D-16 -0.60996537D-17 -0.16525462D-04 -0.16525462D-04  0.33050925D-04
 -0.61530264D-18  0.82793508D-17 -0.31083145D-17 -0.16330260D-16  0.89609531D-17
  0.19365752D-01 -0.18280259D-16  0.11660283D-16 -0.29048628D-01  0.67271039D-16
 -0.38543143D-16 -0.29048628D-01 -0.32408015D-16 -0.58947651D-17  0.63905748D-18
  0.10662093D-02 -0.49051207D-17  0.39513307D-18 -0.15993140D-02  0.22589416D-16
 -0.23123055D-17 -0.15993140D-02 -0.21203652D-17  0.14184214D-02  0.14184214D-02
  0.37824474D-02 -0.18412274D-17 -0.30429910D-16 -0.26845160D-17  0.13148511D-16
  0.40160132D-16 -0.15068951D-16  0.28368136D-02 -0.11347342D-01 -0.11347342D-01
  0.57613220D-17 -0.29190666D-16  0.13577230D-16
END DATA
RHF
