 Molden2AIM, Version 4.0.0 (06/02/2016)           Time: Wed Jun 27 19:43:53 2018
GAUSSIAN             11 MOL ORBITALS    280 PRIMITIVES        2 NUCLEI
  Na   1    (CENTRE  1)   0.00000000  0.00000000  2.94866628  CHARGE = 11.0
  Na   2    (CENTRE  2)   0.00000000  0.00000000 -2.94866628  CHARGE = 11.0
CENTRE ASSIGNMENTS    1  1  1  1  1  1  1  1  1  1  1  1  1  1  1  1  1  1  1  1
CENTRE ASSIGNMENTS    1  1  1  1  1  1  1  1  1  1  1  1  1  1  1  1  1  1  1  1
CENTRE ASSIGNMENTS    1  1  1  1  1  1  1  1  1  1  1  1  1  1  1  1  1  1  1  1
CENTRE ASSIGNMENTS    1  1  1  1  1  1  1  1  1  1  1  1  1  1  1  1  1  1  1  1
CENTRE ASSIGNMENTS    1  1  1  1  1  1  1  1  1  1  1  1  1  1  1  1  1  1  1  1
CENTRE ASSIGNMENTS    1  1  1  1  1  1  1  1  1  1  1  1  1  1  1  1  1  1  1  1
CENTRE ASSIGNMENTS    1  1  1  1  1  1  1  1  1  1  1  1  1  1  1  1  1  1  1  1
CENTRE ASSIGNMENTS    2  2  2  2  2  2  2  2  2  2  2  2  2  2  2  2  2  2  2  2
CENTRE ASSIGNMENTS    2  2  2  2  2  2  2  2  2  2  2  2  2  2  2  2  2  2  2  2
CENTRE ASSIGNMENTS    2  2  2  2  2  2  2  2  2  2  2  2  2  2  2  2  2  2  2  2
CENTRE ASSIGNMENTS    2  2  2  2  2  2  2  2  2  2  2  2  2  2  2  2  2  2  2  2
CENTRE ASSIGNMENTS    2  2  2  2  2  2  2  2  2  2  2  2  2  2  2  2  2  2  2  2
CENTRE ASSIGNMENTS    2  2  2  2  2  2  2  2  2  2  2  2  2  2  2  2  2  2  2  2
CENTRE ASSIGNMENTS    2  2  2  2  2  2  2  2  2  2  2  2  2  2  2  2  2  2  2  2
TYPE ASSIGNMENTS      1  1  1  1  1  1  1  1  1  1  1  1  1  1  1  1  1  1  1  1
TYPE ASSIGNMENTS      1  1  1  1  1  1  1  1  1  1  1  1  1  1  1  1  1  1  1  1
TYPE ASSIGNMENTS      1  1  1  1  1  2  2  2  2  2  2  2  2  3  3  3  3  3  3  3
TYPE ASSIGNMENTS      3  4  4  4  4  4  4  4  4  2  2  2  2  2  2  2  2  3  3  3
TYPE ASSIGNMENTS      3  3  3  3  3  4  4  4  4  4  4  4  4  2  3  4  2  3  4  2
TYPE ASSIGNMENTS      3  4  5  6  7  8  9 10  5  6  7  8  9 10  5  6  7  8  9 10
TYPE ASSIGNMENTS     11 12 13 17 14 15 18 19 16 20 11 12 13 17 14 15 18 19 16 20
TYPE ASSIGNMENTS      1  1  1  1  1  1  1  1  1  1  1  1  1  1  1  1  1  1  1  1
TYPE ASSIGNMENTS      1  1  1  1  1  1  1  1  1  1  1  1  1  1  1  1  1  1  1  1
TYPE ASSIGNMENTS      1  1  1  1  1  2  2  2  2  2  2  2  2  3  3  3  3  3  3  3
TYPE ASSIGNMENTS      3  4  4  4  4  4  4  4  4  2  2  2  2  2  2  2  2  3  3  3
TYPE ASSIGNMENTS      3  3  3  3  3  4  4  4  4  4  4  4  4  2  3  4  2  3  4  2
TYPE ASSIGNMENTS      3  4  5  6  7  8  9 10  5  6  7  8  9 10  5  6  7  8  9 10
TYPE ASSIGNMENTS     11 12 13 17 14 15 18 19 16 20 11 12 13 17 14 15 18 19 16 20
EXPONENTS  0.4230000D+06 0.6334000D+05 0.1441000D+05 0.4077000D+04 0.1328000D+04
EXPONENTS  0.4786000D+03 0.1862000D+03 0.7692000D+02 0.3332000D+02 0.1500000D+02
EXPONENTS  0.6869000D+01 0.2683000D+01 0.1109000D+01 0.6015000D-01 0.4230000D+06
EXPONENTS  0.6334000D+05 0.1441000D+05 0.4077000D+04 0.1328000D+04 0.4786000D+03
EXPONENTS  0.1862000D+03 0.7692000D+02 0.3332000D+02 0.1500000D+02 0.6869000D+01
EXPONENTS  0.2683000D+01 0.1109000D+01 0.6015000D-01 0.4230000D+06 0.6334000D+05
EXPONENTS  0.1441000D+05 0.4077000D+04 0.1328000D+04 0.4786000D+03 0.1862000D+03
EXPONENTS  0.7692000D+02 0.3332000D+02 0.1500000D+02 0.6869000D+01 0.2683000D+01
EXPONENTS  0.1109000D+01 0.6015000D-01 0.4540000D+00 0.2382000D-01 0.6650000D-02
EXPONENTS  0.2433000D+03 0.5739000D+02 0.1810000D+02 0.6575000D+01 0.2521000D+01
EXPONENTS  0.9607000D+00 0.3512000D+00 0.9827000D-01 0.2433000D+03 0.5739000D+02
EXPONENTS  0.1810000D+02 0.6575000D+01 0.2521000D+01 0.9607000D+00 0.3512000D+00
EXPONENTS  0.9827000D-01 0.2433000D+03 0.5739000D+02 0.1810000D+02 0.6575000D+01
EXPONENTS  0.2521000D+01 0.9607000D+00 0.3512000D+00 0.9827000D-01 0.2433000D+03
EXPONENTS  0.5739000D+02 0.1810000D+02 0.6575000D+01 0.2521000D+01 0.9607000D+00
EXPONENTS  0.3512000D+00 0.9827000D-01 0.2433000D+03 0.5739000D+02 0.1810000D+02
EXPONENTS  0.6575000D+01 0.2521000D+01 0.9607000D+00 0.3512000D+00 0.9827000D-01
EXPONENTS  0.2433000D+03 0.5739000D+02 0.1810000D+02 0.6575000D+01 0.2521000D+01
EXPONENTS  0.9607000D+00 0.3512000D+00 0.9827000D-01 0.3734000D-01 0.3734000D-01
EXPONENTS  0.3734000D-01 0.1500000D-01 0.1500000D-01 0.1500000D-01 0.7000000D-02
EXPONENTS  0.7000000D-02 0.7000000D-02 0.1367000D+00 0.1367000D+00 0.1367000D+00
EXPONENTS  0.1367000D+00 0.1367000D+00 0.1367000D+00 0.6360000D-01 0.6360000D-01
EXPONENTS  0.6360000D-01 0.6360000D-01 0.6360000D-01 0.6360000D-01 0.2230000D-01
EXPONENTS  0.2230000D-01 0.2230000D-01 0.2230000D-01 0.2230000D-01 0.2230000D-01
EXPONENTS  0.1397000D+00 0.1397000D+00 0.1397000D+00 0.1397000D+00 0.1397000D+00
EXPONENTS  0.1397000D+00 0.1397000D+00 0.1397000D+00 0.1397000D+00 0.1397000D+00
EXPONENTS  0.7140000D-01 0.7140000D-01 0.7140000D-01 0.7140000D-01 0.7140000D-01
EXPONENTS  0.7140000D-01 0.7140000D-01 0.7140000D-01 0.7140000D-01 0.7140000D-01
EXPONENTS  0.4230000D+06 0.6334000D+05 0.1441000D+05 0.4077000D+04 0.1328000D+04
EXPONENTS  0.4786000D+03 0.1862000D+03 0.7692000D+02 0.3332000D+02 0.1500000D+02
EXPONENTS  0.6869000D+01 0.2683000D+01 0.1109000D+01 0.6015000D-01 0.4230000D+06
EXPONENTS  0.6334000D+05 0.1441000D+05 0.4077000D+04 0.1328000D+04 0.4786000D+03
EXPONENTS  0.1862000D+03 0.7692000D+02 0.3332000D+02 0.1500000D+02 0.6869000D+01
EXPONENTS  0.2683000D+01 0.1109000D+01 0.6015000D-01 0.4230000D+06 0.6334000D+05
EXPONENTS  0.1441000D+05 0.4077000D+04 0.1328000D+04 0.4786000D+03 0.1862000D+03
EXPONENTS  0.7692000D+02 0.3332000D+02 0.1500000D+02 0.6869000D+01 0.2683000D+01
EXPONENTS  0.1109000D+01 0.6015000D-01 0.4540000D+00 0.2382000D-01 0.6650000D-02
EXPONENTS  0.2433000D+03 0.5739000D+02 0.1810000D+02 0.6575000D+01 0.2521000D+01
EXPONENTS  0.9607000D+00 0.3512000D+00 0.9827000D-01 0.2433000D+03 0.5739000D+02
EXPONENTS  0.1810000D+02 0.6575000D+01 0.2521000D+01 0.9607000D+00 0.3512000D+00
EXPONENTS  0.9827000D-01 0.2433000D+03 0.5739000D+02 0.1810000D+02 0.6575000D+01
EXPONENTS  0.2521000D+01 0.9607000D+00 0.3512000D+00 0.9827000D-01 0.2433000D+03
EXPONENTS  0.5739000D+02 0.1810000D+02 0.6575000D+01 0.2521000D+01 0.9607000D+00
EXPONENTS  0.3512000D+00 0.9827000D-01 0.2433000D+03 0.5739000D+02 0.1810000D+02
EXPONENTS  0.6575000D+01 0.2521000D+01 0.9607000D+00 0.3512000D+00 0.9827000D-01
EXPONENTS  0.2433000D+03 0.5739000D+02 0.1810000D+02 0.6575000D+01 0.2521000D+01
EXPONENTS  0.9607000D+00 0.3512000D+00 0.9827000D-01 0.3734000D-01 0.3734000D-01
EXPONENTS  0.3734000D-01 0.1500000D-01 0.1500000D-01 0.1500000D-01 0.7000000D-02
EXPONENTS  0.7000000D-02 0.7000000D-02 0.1367000D+00 0.1367000D+00 0.1367000D+00
EXPONENTS  0.1367000D+00 0.1367000D+00 0.1367000D+00 0.6360000D-01 0.6360000D-01
EXPONENTS  0.6360000D-01 0.6360000D-01 0.6360000D-01 0.6360000D-01 0.2230000D-01
EXPONENTS  0.2230000D-01 0.2230000D-01 0.2230000D-01 0.2230000D-01 0.2230000D-01
EXPONENTS  0.1397000D+00 0.1397000D+00 0.1397000D+00 0.1397000D+00 0.1397000D+00
EXPONENTS  0.1397000D+00 0.1397000D+00 0.1397000D+00 0.1397000D+00 0.1397000D+00
EXPONENTS  0.7140000D-01 0.7140000D-01 0.7140000D-01 0.7140000D-01 0.7140000D-01
EXPONENTS  0.7140000D-01 0.7140000D-01 0.7140000D-01 0.7140000D-01 0.7140000D-01
MO    1     MO 0.0        OCC NO =    2.0000000  ORB. ENERGY =  -38.577771
 -0.15108933D+00 -0.28277170D+00 -0.48981211D+00 -0.80073258D+00 -0.12435065D+01
 -0.18207909D+01 -0.24402083D+01 -0.27997716D+01 -0.24388396D+01 -0.12476391D+01
 -0.24102011D+00 -0.74727027D-02 -0.32593020D-03  0.32518642D-06  0.20337788D-03
  0.38156183D-03  0.65916960D-03  0.10845355D-02  0.16849012D-02  0.25227418D-02
  0.34776135D-02  0.43797590D-02  0.44937099D-02  0.34451261D-02  0.51817747D-03
 -0.19711844D-02 -0.16880363D-02 -0.13747074D-05 -0.57227091D-04 -0.10716037D-03
 -0.18564709D-03 -0.30436393D-03 -0.47521544D-03 -0.70807578D-03 -0.98520131D-03
 -0.12354010D-02 -0.12980199D-02 -0.99744081D-03 -0.16858235D-03  0.67045666D-03
  0.65077559D-03 -0.39591600D-03  0.89291858D-03 -0.48123116D-03 -0.77300914D-04
  0.53583077D-16  0.68301412D-16  0.71821084D-16  0.57326929D-16  0.29881323D-16
  0.93339767D-17  0.10778420D-17  0.31900982D-20 -0.25821564D-16 -0.32914297D-16
 -0.34610419D-16 -0.27625718D-16 -0.14399742D-16 -0.44980224D-17 -0.51940965D-18
 -0.15373011D-20  0.26773321D-02  0.34127484D-02  0.35886123D-02  0.28643974D-02
  0.14930502D-02  0.46638149D-03  0.53855456D-04  0.15939645D-06  0.29980493D-17
  0.38619777D-17  0.40614376D-17  0.33261162D-17  0.17127530D-17  0.60067899D-18
  0.72873099D-19 -0.14102042D-18 -0.25051609D-15 -0.32270568D-15 -0.33937249D-15
 -0.27792926D-15 -0.14311712D-15 -0.50192554D-16 -0.60892541D-17  0.11783624D-16
 -0.28412180D-02 -0.36599533D-02 -0.38489793D-02 -0.31521233D-02 -0.16231570D-02
 -0.56925681D-03 -0.69061027D-04  0.13364349D-03  0.15102728D-17 -0.53570281D-17
  0.15664219D-03  0.34187215D-17  0.31693924D-17  0.10353619D-04 -0.81013307D-18
 -0.76149138D-18  0.30474128D-05  0.12389661D-04  0.12389661D-04 -0.24779321D-04
 -0.70754795D-17 -0.10066486D-16  0.48822471D-18  0.11880825D-04  0.11880825D-04
 -0.23761649D-04  0.82405336D-18  0.30846165D-17 -0.14223792D-17  0.95391041D-06
  0.95391041D-06 -0.19078208D-05  0.93558523D-19 -0.51685979D-18  0.42386835D-19
 -0.27462788D-19  0.95651929D-19  0.69375636D-05 -0.27505223D-19  0.95644171D-19
 -0.10406345D-04  0.10989359D-18 -0.38259996D-18 -0.10406345D-04 -0.94248706D-19
  0.60959802D-19 -0.16715312D-18  0.69922579D-06  0.60974784D-19 -0.16716867D-18
 -0.10488387D-05 -0.24385419D-18  0.66862804D-18 -0.10488387D-05 -0.11093755D-18
  0.15108932D+00  0.28277168D+00  0.48981209D+00  0.80073253D+00  0.12435064D+01
  0.18207907D+01  0.24402081D+01  0.27997714D+01  0.24388395D+01  0.12476390D+01
  0.24102010D+00  0.74727022D-02  0.32593018D-03 -0.32518641D-06 -0.20337788D-03
 -0.38156182D-03 -0.65916958D-03 -0.10845354D-02 -0.16849012D-02 -0.25227417D-02
 -0.34776134D-02 -0.43797588D-02 -0.44937098D-02 -0.34451259D-02 -0.51817745D-03
  0.19711844D-02  0.16880362D-02  0.13747074D-05  0.57227091D-04  0.10716037D-03
  0.18564709D-03  0.30436393D-03  0.47521544D-03  0.70807578D-03  0.98520131D-03
  0.12354010D-02  0.12980199D-02  0.99744081D-03  0.16858235D-03 -0.67045666D-03
 -0.65077559D-03  0.39591600D-03 -0.89291854D-03  0.48123116D-03  0.77300914D-04
 -0.58786026D-16 -0.74933520D-16 -0.78794954D-16 -0.62893409D-16 -0.32782818D-16
 -0.10240311D-16 -0.11825011D-17 -0.34998586D-20 -0.24624733D-16 -0.31388717D-16
 -0.33006223D-16 -0.26345264D-16 -0.13732313D-16 -0.42895387D-17 -0.49533497D-18
 -0.14660471D-20  0.26773321D-02  0.34127485D-02  0.35886124D-02  0.28643975D-02
  0.14930503D-02  0.46638150D-03  0.53855457D-04  0.15939645D-06 -0.70728788D-17
 -0.91110243D-17 -0.95815821D-17 -0.78468411D-17 -0.40406589D-17 -0.14170980D-17
 -0.17191932D-18  0.33268978D-18 -0.84267052D-16 -0.10854974D-15 -0.11415602D-15
 -0.93488123D-16 -0.48140852D-16 -0.16883461D-16 -0.20482656D-17  0.39637024D-17
 -0.28412181D-02 -0.36599534D-02 -0.38489793D-02 -0.31521234D-02 -0.16231570D-02
 -0.56925681D-03 -0.69061027D-04  0.13364349D-03  0.19405589D-17 -0.36354436D-17
  0.15664219D-03 -0.31601762D-17  0.14458119D-17  0.10353620D-04  0.38409340D-18
 -0.55013496D-18  0.30474128D-05 -0.12389661D-04 -0.12389661D-04  0.24779322D-04
  0.14043786D-17  0.20281328D-17  0.38910059D-18 -0.11880824D-04 -0.11880824D-04
  0.23761649D-04 -0.13341834D-17 -0.29760934D-18 -0.15953872D-17 -0.95391043D-06
 -0.95391043D-06  0.19078209D-05  0.66152944D-19 -0.58187837D-18  0.12615955D-18
 -0.39603741D-18  0.59121669D-19  0.69375635D-05 -0.39604301D-18  0.59083391D-19
 -0.10406345D-04  0.15841553D-17 -0.23644840D-18 -0.10406345D-04  0.18308987D-18
  0.33573368D-18 -0.12860808D-19  0.69922575D-06  0.33573632D-18 -0.12845105D-19
 -0.10488386D-05 -0.13429374D-17  0.51427530D-19 -0.10488386D-05 -0.18900678D-18
MO    2     MO 0.0        OCC NO =    2.0000000  ORB. ENERGY =  -38.577764
 -0.15105578D+00 -0.28270891D+00 -0.48970335D+00 -0.80055478D+00 -0.12432304D+01
 -0.18203865D+01 -0.24396664D+01 -0.27991499D+01 -0.24382981D+01 -0.12473620D+01
 -0.24096660D+00 -0.74710433D-02 -0.32585783D-03  0.32511422D-06  0.11941042D-03
  0.22402858D-03  0.38702201D-03  0.63676949D-03  0.98926566D-03  0.14811918D-02
  0.20418311D-02  0.25715129D-02  0.26384175D-02  0.20227565D-02  0.30424049D-03
 -0.11573528D-02 -0.99110638D-03 -0.80713980D-06 -0.22291859D-05 -0.41742534D-05
 -0.72315728D-05 -0.11855989D-04 -0.18511225D-04 -0.27581911D-04 -0.38376873D-04
 -0.48122985D-04 -0.50562198D-04 -0.38853643D-04 -0.65668443D-05  0.26116521D-04
  0.25349878D-04 -0.15422247D-04  0.67170599D-03 -0.60278473D-05  0.10652710D-05
 -0.53660539D-16 -0.68400152D-16 -0.71924911D-16 -0.57409804D-16 -0.29924521D-16
 -0.93474703D-17 -0.10794002D-17 -0.31947099D-20  0.25952684D-16  0.33081433D-16
  0.34786168D-16  0.27766000D-16  0.14472863D-16  0.45208630D-17  0.52204717D-18
  0.15451074D-20 -0.65453062D-03 -0.83431875D-03 -0.87731241D-03 -0.70026271D-03
 -0.36500780D-03 -0.11401685D-03 -0.13166109D-04 -0.38967844D-07 -0.22999277D-17
 -0.29626828D-17 -0.31156968D-17 -0.25516013D-17 -0.13139237D-17 -0.46080570D-18
 -0.55903969D-19  0.10818260D-18  0.25135379D-15  0.32378477D-15  0.34050731D-15
  0.27885862D-15  0.14359569D-15  0.50360392D-16  0.61096158D-17 -0.11823027D-16
  0.50029127D-03  0.64445695D-03  0.67774127D-03  0.55503653D-03  0.28581097D-03
  0.10023666D-03  0.12160499D-04 -0.23532397D-04 -0.15199393D-17  0.53447185D-17
  0.12364228D-04 -0.34239295D-17 -0.31697792D-17 -0.37683201D-05  0.81081259D-18
  0.76148828D-18  0.35436569D-06 -0.36226386D-05 -0.36226386D-05  0.72452772D-05
  0.70699457D-17  0.10064569D-16 -0.49454750D-18  0.29672768D-05  0.29672768D-05
 -0.59345536D-05 -0.82283577D-18 -0.30728140D-17  0.14405253D-17 -0.22552459D-06
 -0.22552459D-06  0.45104917D-06 -0.93419443D-19  0.51797606D-18 -0.41918534D-19
  0.27333809D-19 -0.95168091D-19  0.80484551D-06  0.27262606D-19 -0.95170899D-19
 -0.12072683D-05 -0.10926403D-18  0.38067517D-18 -0.12072683D-05  0.93766668D-19
 -0.60504265D-19  0.16773201D-18  0.61103969D-06 -0.60491471D-19  0.16773274D-18
 -0.91655954D-06  0.24200427D-18 -0.67092875D-18 -0.91655954D-06  0.11106353D-18
 -0.15105579D+00 -0.28270892D+00 -0.48970338D+00 -0.80055482D+00 -0.12432304D+01
 -0.18203866D+01 -0.24396665D+01 -0.27991501D+01 -0.24382982D+01 -0.12473621D+01
 -0.24096661D+00 -0.74710438D-02 -0.32585785D-03  0.32511423D-06  0.11941043D-03
  0.22402860D-03  0.38702205D-03  0.63676956D-03  0.98926576D-03  0.14811919D-02
  0.20418313D-02  0.25715131D-02  0.26384178D-02  0.20227567D-02  0.30424052D-03
 -0.11573529D-02 -0.99110648D-03 -0.80713988D-06 -0.22291892D-05 -0.41742597D-05
 -0.72315836D-05 -0.11856007D-04 -0.18511252D-04 -0.27581952D-04 -0.38376931D-04
 -0.48123057D-04 -0.50562274D-04 -0.38853701D-04 -0.65668542D-05  0.26116560D-04
  0.25349916D-04 -0.15422270D-04  0.67170604D-03 -0.60278738D-05  0.10652664D-05
  0.58891649D-16  0.75068156D-16  0.78936528D-16  0.63006411D-16  0.32841720D-16
  0.10258711D-16  0.11846258D-17  0.35061470D-20  0.24749921D-16  0.31548292D-16
  0.33174021D-16  0.26479199D-16  0.13802126D-16  0.43113460D-17  0.49785317D-18
  0.14735003D-20  0.65453046D-03  0.83431855D-03  0.87731220D-03  0.70026254D-03
  0.36500771D-03  0.11401682D-03  0.13166106D-04  0.38967834D-07  0.70189886D-17
  0.90416049D-17  0.95085774D-17  0.77870539D-17  0.40098720D-17  0.14063008D-17
  0.17060942D-18 -0.33015492D-18  0.84114636D-16  0.10835340D-15  0.11394954D-15
  0.93319029D-16  0.48053779D-16  0.16852923D-16  0.20445608D-17 -0.39565332D-17
 -0.50029110D-03 -0.64445673D-03 -0.67774104D-03 -0.55503634D-03 -0.28581088D-03
 -0.10023663D-03 -0.12160495D-04  0.23532389D-04 -0.19225938D-17  0.36567711D-17
 -0.12364237D-04  0.31641826D-17 -0.14453856D-17  0.37683195D-05 -0.38466842D-18
  0.54985549D-18 -0.35436587D-06 -0.36226378D-05 -0.36226378D-05  0.72452756D-05
 -0.14058856D-17 -0.20362277D-17 -0.39920981D-18  0.29672775D-05  0.29672775D-05
 -0.59345549D-05  0.13349799D-17  0.31132568D-18  0.16156320D-17 -0.22552453D-06
 -0.22552453D-06  0.45104907D-06 -0.66162411D-19  0.58328230D-18 -0.12602888D-18
  0.39670852D-18 -0.59009867D-19 -0.80484593D-06  0.39672781D-18 -0.59031891D-19
  0.12072689D-05 -0.15868534D-17  0.23606149D-18  0.12072689D-05 -0.18304985D-18
 -0.33662999D-18  0.11803819D-19 -0.61103973D-06 -0.33663339D-18  0.11805339D-19
  0.91655960D-06  0.13465233D-17 -0.47216797D-19  0.91655960D-06  0.18902239D-18
MO    3     MO 0.0        OCC NO =    2.0000000  ORB. ENERGY =   -2.253213
  0.37355571D-03  0.69912932D-03  0.12110194D-02  0.19797442D-02  0.30744655D-02
  0.45017527D-02  0.60332103D-02  0.69222005D-02  0.60298265D-02  0.30846830D-02
  0.59590203D-03  0.18475631D-04  0.80583510D-06 -0.80399617D-09  0.36374378D-01
  0.68242792D-01  0.11789327D+00  0.19397047D+00  0.30134660D+00  0.45119540D+00
  0.62197535D+00  0.78332515D+00  0.80370541D+00  0.61616493D+00  0.92676663D-01
 -0.35254870D+00 -0.30190732D+00 -0.24586807D-03  0.38769858D-04  0.72598349D-04
  0.12577105D-03  0.20619861D-03  0.32194604D-03  0.47970283D-03  0.66744814D-03
  0.83695189D-03  0.87937453D-03  0.67574008D-03  0.11421014D-03 -0.45421686D-03
 -0.44088346D-03  0.26822274D-03 -0.70417161D-01 -0.85587373D-04  0.36736934D-05
 -0.98009489D-15 -0.12493098D-14 -0.13136886D-14 -0.10485742D-14 -0.54656309D-15
 -0.17072896D-15 -0.19714946D-16 -0.58350493D-19 -0.13142768D-15 -0.16752856D-15
 -0.17616156D-15 -0.14061054D-15 -0.73292411D-16 -0.22894222D-16 -0.26437130D-17
 -0.78246197D-20 -0.25318752D-01 -0.32273370D-01 -0.33936464D-01 -0.27087774D-01
 -0.14119342D-01 -0.44104343D-02 -0.50929540D-03 -0.15073659D-05  0.82384111D-16
  0.10612420D-15  0.11160521D-15  0.91399138D-16  0.47065148D-16  0.16506201D-16
  0.20024972D-17 -0.38751338D-17 -0.30952212D-17 -0.39871509D-17 -0.41930757D-17
 -0.34339212D-17 -0.17682663D-17 -0.62014802D-18 -0.75235040D-19  0.14559113D-18
  0.63637380D-02  0.81975349D-02  0.86209137D-02  0.70601013D-02  0.36355344D-02
  0.12750170D-02  0.15468235D-03 -0.29933364D-03  0.26066740D-17 -0.43588447D-17
  0.16051176D-03  0.28659333D-17 -0.71940271D-18 -0.19399865D-04 -0.43422238D-18
 -0.14711352D-18  0.33515138D-05 -0.28528656D-04 -0.28528656D-04  0.57057312D-04
 -0.10180907D-17 -0.31132137D-17 -0.36450677D-17  0.32427079D-04  0.32427079D-04
 -0.64854157D-04  0.46788788D-18  0.14018656D-17  0.49412939D-17 -0.33683685D-07
 -0.33683685D-07  0.67367369D-07 -0.38705075D-19 -0.84229400D-18  0.37290448D-18
  0.81474150D-19 -0.29819334D-18  0.39098712D-05  0.69650657D-19 -0.29622619D-18
 -0.58648068D-05 -0.31407311D-18  0.11908062D-17 -0.58648068D-05 -0.14962951D-18
 -0.21729658D-19  0.21247785D-18  0.87172364D-05 -0.18997223D-19  0.21138273D-18
 -0.13075855D-04  0.84186198D-19 -0.84881627D-18 -0.13075855D-04  0.35483463D-19
  0.37355571D-03  0.69912932D-03  0.12110194D-02  0.19797442D-02  0.30744655D-02
  0.45017527D-02  0.60332103D-02  0.69222005D-02  0.60298265D-02  0.30846830D-02
  0.59590203D-03  0.18475631D-04  0.80583510D-06 -0.80399617D-09  0.36374378D-01
  0.68242792D-01  0.11789327D+00  0.19397047D+00  0.30134660D+00  0.45119540D+00
  0.62197536D+00  0.78332515D+00  0.80370541D+00  0.61616493D+00  0.92676663D-01
 -0.35254870D+00 -0.30190732D+00 -0.24586807D-03  0.38769858D-04  0.72598348D-04
  0.12577105D-03  0.20619861D-03  0.32194604D-03  0.47970283D-03  0.66744813D-03
  0.83695188D-03  0.87937452D-03  0.67574007D-03  0.11421014D-03 -0.45421686D-03
 -0.44088345D-03  0.26822274D-03 -0.70417161D-01 -0.85587383D-04  0.36736931D-05
 -0.53292046D-15 -0.67930440D-15 -0.71430995D-15 -0.57015564D-15 -0.29719026D-15
 -0.92832802D-16 -0.10719878D-16 -0.31727715D-19 -0.11635482D-15 -0.14831546D-15
 -0.15595838D-15 -0.12448454D-15 -0.64886832D-16 -0.20268586D-16 -0.23405173D-17
 -0.69272490D-20  0.25318752D-01  0.32273370D-01  0.33936464D-01  0.27087774D-01
  0.14119342D-01  0.44104343D-02  0.50929540D-03  0.15073659D-05 -0.85475797D-16
 -0.11010680D-15 -0.11579350D-15 -0.94829137D-16 -0.48831395D-16 -0.17125641D-16
 -0.20776463D-17  0.40205586D-17 -0.15125008D-16 -0.19483483D-16 -0.20489748D-16
 -0.16780089D-16 -0.86407528D-17 -0.30303953D-17 -0.36764111D-18  0.71144093D-18
 -0.63637380D-02 -0.81975349D-02 -0.86209137D-02 -0.70601013D-02 -0.36355344D-02
 -0.12750170D-02 -0.15468235D-03  0.29933364D-03 -0.52173722D-17  0.59082921D-17
 -0.16051176D-03 -0.26518590D-17  0.87913078D-18  0.19399864D-04  0.54130238D-18
  0.32621421D-18 -0.33515138D-05 -0.28528656D-04 -0.28528656D-04  0.57057313D-04
 -0.80473288D-18  0.30837177D-18 -0.27822450D-17  0.32427079D-04  0.32427079D-04
 -0.64854158D-04  0.62832981D-19  0.37880062D-18  0.44353367D-17 -0.33683665D-07
 -0.33683665D-07  0.67367330D-07 -0.67499407D-19 -0.95637608D-18  0.27758159D-18
 -0.10174812D-18  0.24898504D-18 -0.39098712D-05 -0.99106586D-19  0.24742432D-18
  0.58648068D-05  0.40435094D-18 -0.99437945D-18  0.58648068D-05  0.14952762D-19
  0.62123059D-19 -0.17100824D-18 -0.87172364D-05  0.61506429D-19 -0.17071626D-18
  0.13075855D-04 -0.24787561D-18  0.68374098D-18  0.13075855D-04 -0.40352816D-20
MO    4     MO 0.0        OCC NO =    2.0000000  ORB. ENERGY =   -2.253103
 -0.26828437D-03 -0.50210842D-03 -0.86974330D-03 -0.14218346D-02 -0.22080536D-02
 -0.32331186D-02 -0.43329977D-02 -0.49714625D-02 -0.43305675D-02 -0.22153918D-02
 -0.42797151D-03 -0.13269033D-04 -0.57874356D-06  0.57742286D-09 -0.36712393D-01
 -0.68876949D-01 -0.11898882D+00 -0.19577297D+00 -0.30414691D+00 -0.45538820D+00
 -0.62775516D+00 -0.79060432D+00 -0.81117397D+00 -0.62189074D+00 -0.93537875D-01
  0.35582481D+00  0.30471284D+00  0.24815284D-03  0.21134843D-03  0.39575970D-03
  0.68562322D-03  0.11240627D-02  0.17550436D-02  0.26150326D-02  0.36384997D-02
  0.45625256D-02  0.47937867D-02  0.36837021D-02  0.62260052D-03 -0.24760994D-02
 -0.24034142D-02  0.14621786D-02  0.70188952D-01  0.17899725D-02  0.41125966D-03
  0.29187102D-17  0.37204290D-17  0.39121481D-17  0.31226407D-17  0.16276580D-17
  0.50842869D-18  0.58710861D-19  0.17376703D-21 -0.68438362D-16 -0.87237185D-16
 -0.91732644D-16 -0.73220154D-16 -0.38165573D-16 -0.11921713D-16 -0.13766612D-17
 -0.40745158D-20  0.13732279D-01  0.17504296D-01  0.18406318D-01  0.14691754D-01
  0.76579898D-02  0.23921129D-02  0.27622951D-03  0.81755883D-06  0.14081060D-15
  0.18138707D-15  0.19075519D-15  0.15621905D-15  0.80443566D-16  0.28212334D-16
  0.34226604D-17 -0.66233634D-17  0.17495688D-15  0.22537307D-15  0.23701293D-15
  0.19410185D-15  0.99950969D-16  0.35053768D-16  0.42526486D-17 -0.82295157D-17
  0.47858205D-02  0.61649192D-02  0.64833193D-02  0.53095173D-02  0.27340873D-02
  0.95887075D-03  0.11632816D-03 -0.22511252D-03  0.25593482D-17 -0.24929463D-17
 -0.63922332D-03  0.40489468D-17 -0.16135621D-17 -0.32393238D-04 -0.78930424D-18
 -0.17300143D-19 -0.17523025D-04  0.33537206D-05  0.33537206D-05 -0.67074412D-05
 -0.78784572D-18 -0.21043936D-17 -0.42259176D-17 -0.45536997D-04 -0.45536997D-04
  0.91073995D-04  0.69293167D-18  0.31047343D-19  0.27801790D-17 -0.39448889D-05
 -0.39448889D-05  0.78897777D-05 -0.56826579D-19 -0.90116878D-18  0.41543233D-18
  0.99309566D-19 -0.25323070D-18 -0.32688167D-05  0.11332030D-18 -0.25164545D-18
  0.49032251D-05 -0.41124900D-18  0.10113375D-17  0.49032251D-05  0.30319995D-20
 -0.11072609D-18  0.17157460D-18 -0.40221365D-05 -0.11353713D-18  0.17269719D-18
  0.60332048D-05  0.44571539D-18 -0.68742101D-18  0.60332048D-05  0.51182075D-19
  0.26828437D-03  0.50210842D-03  0.86974330D-03  0.14218346D-02  0.22080536D-02
  0.32331186D-02  0.43329977D-02  0.49714625D-02  0.43305675D-02  0.22153918D-02
  0.42797151D-03  0.13269033D-04  0.57874356D-06 -0.57742286D-09  0.36712393D-01
  0.68876949D-01  0.11898882D+00  0.19577297D+00  0.30414691D+00  0.45538820D+00
  0.62775516D+00  0.79060432D+00  0.81117397D+00  0.62189074D+00  0.93537875D-01
 -0.35582481D+00 -0.30471284D+00 -0.24815284D-03 -0.21134843D-03 -0.39575970D-03
 -0.68562322D-03 -0.11240627D-02 -0.17550436D-02 -0.26150326D-02 -0.36384997D-02
 -0.45625256D-02 -0.47937867D-02 -0.36837021D-02 -0.62260052D-03  0.24760994D-02
  0.24034142D-02 -0.14621786D-02 -0.70188952D-01 -0.17899725D-02 -0.41125966D-03
  0.80354874D-16  0.10242695D-15  0.10770517D-15  0.85969274D-16  0.44810976D-16
  0.13997526D-16  0.16163660D-17  0.47839720D-20 -0.23719059D-15 -0.30234270D-15
 -0.31792286D-15 -0.25376311D-15 -0.13227252D-15 -0.41317737D-16 -0.47711704D-17
 -0.14121273D-19  0.13732279D-01  0.17504296D-01  0.18406318D-01  0.14691754D-01
  0.76579898D-02  0.23921129D-02  0.27622951D-03  0.81755883D-06 -0.31579167D-16
 -0.40679129D-16 -0.42780088D-16 -0.35034773D-16 -0.18040835D-16 -0.63270947D-17
 -0.76758968D-18  0.14854017D-17  0.20739575D-16  0.26715963D-16  0.28095765D-16
  0.23009040D-16  0.11848294D-16  0.41553109D-17  0.50411349D-18 -0.97553554D-18
  0.47858205D-02  0.61649192D-02  0.64833193D-02  0.53095173D-02  0.27340873D-02
  0.95887075D-03  0.11632816D-03 -0.22511252D-03 -0.52129182D-17  0.49751938D-17
 -0.63922332D-03 -0.33716049D-17  0.10910283D-17 -0.32393238D-04  0.67169460D-18
  0.27107745D-18 -0.17523025D-04 -0.33537206D-05 -0.33537206D-05  0.67074412D-05
 -0.92294431D-18  0.22553419D-18 -0.11475290D-17  0.45536997D-04  0.45536997D-04
 -0.91073995D-04  0.47767109D-18 -0.12506609D-17  0.29648543D-17  0.39448889D-05
  0.39448889D-05 -0.78897777D-05 -0.93580812D-19 -0.92153219D-18  0.40295961D-18
 -0.86099452D-19  0.17007801D-18 -0.32688167D-05 -0.86150411D-19  0.17298155D-18
  0.49032251D-05  0.34444877D-18 -0.68321557D-18  0.49032251D-05  0.21385993D-19
  0.10778605D-18 -0.10220780D-18 -0.40221365D-05  0.10777411D-18 -0.10325466D-18
  0.60332048D-05 -0.43113227D-18  0.40987807D-18  0.60332048D-05  0.70752759D-19
MO    5     MO 0.0        OCC NO =    2.0000000  ORB. ENERGY =   -1.165649
 -0.12649693D-03 -0.23674572D-03 -0.41008673D-03 -0.67039951D-03 -0.10411043D-02
 -0.15244257D-02 -0.20430222D-02 -0.23440604D-02 -0.20418763D-02 -0.10445642D-02
 -0.20178992D-03 -0.62563911D-05 -0.27287943D-06  0.27225671D-09  0.54763279D-03
  0.10274262D-02  0.17749368D-02  0.29203135D-02  0.45369100D-02  0.67929516D-02
  0.93641215D-02  0.11793316D-01  0.12100150D-01  0.92766429D-02  0.13952893D-02
 -0.53077808D-02 -0.45453518D-02 -0.37016555D-05 -0.12803571D-03 -0.23975278D-03
 -0.41535325D-03 -0.68096164D-03 -0.10632123D-02 -0.15841970D-02 -0.22042174D-02
 -0.27639960D-02 -0.29040948D-02 -0.22316012D-02 -0.37717384D-03  0.15000308D-02
  0.14559978D-02 -0.88579354D-03  0.17807954D-03  0.17697121D-03  0.28349530D-05
  0.20830859D-11  0.26552732D-11  0.27921033D-11  0.22286313D-11  0.11616609D-11
  0.36286598D-12  0.41901990D-13  0.12401768D-15  0.22092959D-11  0.28161508D-11
  0.29612712D-11  0.23636595D-11  0.12320435D-11  0.38485129D-12  0.44440747D-13
  0.13153165D-15  0.21902765D+01  0.27919073D+01  0.29357783D+01  0.23433113D+01
  0.12214372D+01  0.38153819D+00  0.44058167D-01  0.13039933D-03 -0.18417302D-13
 -0.23724496D-13 -0.24949797D-13 -0.20432648D-13 -0.10521605D-13 -0.36900281D-14
 -0.44766638D-15  0.86630186D-15 -0.19324284D-13 -0.24892837D-13 -0.26178479D-13
 -0.21438878D-13 -0.11039754D-13 -0.38717480D-14 -0.46971224D-15  0.90896393D-15
 -0.25459362D-01 -0.32795821D-01 -0.34489629D-01 -0.28245298D-01 -0.14544657D-01
 -0.51009515D-02 -0.61883659D-03  0.11975420D-02 -0.13329525D-15 -0.13062267D-15
 -0.29731650D-03  0.29369513D-16  0.25348772D-16  0.13263056D-04 -0.43870755D-17
 -0.35640832D-17 -0.79945378D-05  0.25282648D-05  0.25282648D-05 -0.50565296D-05
 -0.97815303D-18  0.10860428D-15  0.11887642D-15 -0.23502888D-04 -0.23502888D-04
  0.47005776D-04 -0.18692656D-18 -0.19426693D-16 -0.21405962D-16 -0.36288365D-05
 -0.36288365D-05  0.72576730D-05  0.23470022D-18  0.98053523D-18  0.12899642D-17
 -0.62516104D-17 -0.65212141D-17  0.24495280D-04 -0.62503029D-17 -0.65201771D-17
 -0.36742921D-04  0.25005134D-16  0.26083819D-16 -0.36742921D-04  0.34303996D-18
  0.20689099D-17  0.20822629D-17 -0.11916724D-04  0.20685140D-17  0.20823157D-17
  0.17875086D-04 -0.82752437D-17 -0.83291044D-17  0.17875086D-04 -0.15378323D-18
 -0.12649693D-03 -0.23674572D-03 -0.41008673D-03 -0.67039952D-03 -0.10411043D-02
 -0.15244257D-02 -0.20430222D-02 -0.23440604D-02 -0.20418763D-02 -0.10445643D-02
 -0.20178993D-03 -0.62563912D-05 -0.27287943D-06  0.27225671D-09  0.54763279D-03
  0.10274262D-02  0.17749368D-02  0.29203135D-02  0.45369100D-02  0.67929516D-02
  0.93641215D-02  0.11793316D-01  0.12100150D-01  0.92766430D-02  0.13952893D-02
 -0.53077808D-02 -0.45453518D-02 -0.37016555D-05 -0.12803571D-03 -0.23975278D-03
 -0.41535325D-03 -0.68096164D-03 -0.10632123D-02 -0.15841970D-02 -0.22042175D-02
 -0.27639960D-02 -0.29040949D-02 -0.22316012D-02 -0.37717385D-03  0.15000308D-02
  0.14559978D-02 -0.88579355D-03  0.17807954D-03  0.17697118D-03  0.28349029D-05
  0.20515610D-11  0.26150890D-11  0.27498484D-11  0.21949037D-11  0.11440806D-11
  0.35737445D-12  0.41267856D-13  0.12214082D-15  0.21712784D-11  0.27676906D-11
  0.29103137D-11  0.23229857D-11  0.12108426D-11  0.37822878D-12  0.43676012D-13
  0.12926826D-15 -0.21902765D+01 -0.27919073D+01 -0.29357783D+01 -0.23433113D+01
 -0.12214372D+01 -0.38153819D+00 -0.44058167D-01 -0.13039933D-03 -0.18305570D-13
 -0.23580567D-13 -0.24798435D-13 -0.20308690D-13 -0.10457774D-13 -0.36676420D-14
 -0.44495053D-15  0.86104629D-15 -0.19178018D-13 -0.24704423D-13 -0.25980334D-13
 -0.21276607D-13 -0.10956194D-13 -0.38424427D-14 -0.46615698D-15  0.90208397D-15
  0.25459362D-01  0.32795821D-01  0.34489629D-01  0.28245298D-01  0.14544657D-01
  0.51009515D-02  0.61883659D-03 -0.11975420D-02 -0.12430447D-15 -0.13241707D-15
  0.29731649D-03  0.21035967D-16  0.21824816D-16 -0.13263057D-04 -0.29663108D-17
 -0.26040542D-17  0.79945356D-05  0.25282645D-05  0.25282645D-05 -0.50565290D-05
 -0.20510392D-17 -0.11521712D-15 -0.11446656D-15 -0.23502888D-04 -0.23502888D-04
  0.47005775D-04  0.10448855D-18  0.25492480D-16  0.21460413D-16 -0.36288364D-05
 -0.36288364D-05  0.72576729D-05 -0.16896270D-19 -0.16132961D-17 -0.16684495D-17
 -0.63373659D-17 -0.69605170D-17 -0.24495280D-04 -0.63528801D-17 -0.69790249D-17