 Molden2AIM, Version 4.0.0 (06/02/2016)           Time: Sun Jun 24 19:22:43 2018
GAUSSIAN             11 MOL ORBITALS    168 PRIMITIVES        2 NUCLEI
  Na   1    (CENTRE  1)   0.00000000  0.00000000  2.94866628  CHARGE = 11.0
  Na   2    (CENTRE  2)   0.00000000  0.00000000 -2.94866628  CHARGE = 11.0
CENTRE ASSIGNMENTS    1  1  1  1  1  1  1  1  1  1  1  1  1  1  1  1  1  1  1  1
CENTRE ASSIGNMENTS    1  1  1  1  1  1  1  1  1  1  1  1  1  1  1  1  1  1  1  1
CENTRE ASSIGNMENTS    1  1  1  1  1  1  1  1  1  1  1  1  1  1  1  1  1  1  1  1
CENTRE ASSIGNMENTS    1  1  1  1  1  1  1  1  1  1  1  1  1  1  1  1  1  1  1  1
CENTRE ASSIGNMENTS    1  1  1  1  2  2  2  2  2  2  2  2  2  2  2  2  2  2  2  2
CENTRE ASSIGNMENTS    2  2  2  2  2  2  2  2  2  2  2  2  2  2  2  2  2  2  2  2
CENTRE ASSIGNMENTS    2  2  2  2  2  2  2  2  2  2  2  2  2  2  2  2  2  2  2  2
CENTRE ASSIGNMENTS    2  2  2  2  2  2  2  2  2  2  2  2  2  2  2  2  2  2  2  2
CENTRE ASSIGNMENTS    2  2  2  2  2  2  2  2
TYPE ASSIGNMENTS      1  1  1  1  1  1  1  1  1  1  1  1  1  1  1  1  1  1  1  1
TYPE ASSIGNMENTS      2  2  2  2  2  2  2  2  3  3  3  3  3  3  3  3  4  4  4  4
TYPE ASSIGNMENTS      4  4  4  4  2  3  4  2  3  4  2  3  4  2  3  4  5  6  7  8
TYPE ASSIGNMENTS      9 10  5  6  7  8  9 10  5  6  7  8  9 10 11 12 13 17 14 15
TYPE ASSIGNMENTS     18 19 16 20  1  1  1  1  1  1  1  1  1  1  1  1  1  1  1  1
TYPE ASSIGNMENTS      1  1  1  1  2  2  2  2  2  2  2  2  3  3  3  3  3  3  3  3
TYPE ASSIGNMENTS      4  4  4  4  4  4  4  4  2  3  4  2  3  4  2  3  4  2  3  4
TYPE ASSIGNMENTS      5  6  7  8  9 10  5  6  7  8  9 10  5  6  7  8  9 10 11 12
TYPE ASSIGNMENTS     13 17 14 15 18 19 16 20
EXPONENTS  0.3798522D+06 0.5688601D+05 0.1294270D+05 0.3664302D+04 0.1194742D+04
EXPONENTS  0.4309819D+03 0.1678317D+03 0.6930667D+02 0.2995117D+02 0.1338079D+02
EXPONENTS  0.1217401D+03 0.3704414D+02 0.1399542D+02 0.5982780D+01 0.2483046D+01
EXPONENTS  0.1045251D+01 0.4387564D+00 0.6559563D-01 0.3056193D-01 0.1550906D-01
EXPONENTS  0.6907763D+03 0.1638281D+03 0.5287646D+02 0.1981227D+02 0.8132038D+01
EXPONENTS  0.3496907D+01 0.1511724D+01 0.6447929D+00 0.6907763D+03 0.1638281D+03
EXPONENTS  0.5287646D+02 0.1981227D+02 0.8132038D+01 0.3496907D+01 0.1511724D+01
EXPONENTS  0.6447929D+00 0.6907763D+03 0.1638281D+03 0.5287646D+02 0.1981227D+02
EXPONENTS  0.8132038D+01 0.3496907D+01 0.1511724D+01 0.6447929D+00 0.2614582D+00
EXPONENTS  0.2614582D+00 0.2614582D+00 0.1170473D+00 0.1170473D+00 0.1170473D+00
EXPONENTS  0.4049475D-01 0.4049475D-01 0.4049475D-01 0.1566671D-01 0.1566671D-01
EXPONENTS  0.1566671D-01 0.2900000D+01 0.2900000D+01 0.2900000D+01 0.2900000D+01
EXPONENTS  0.2900000D+01 0.2900000D+01 0.2300000D+00 0.2300000D+00 0.2300000D+00
EXPONENTS  0.2300000D+00 0.2300000D+00 0.2300000D+00 0.7570000D-01 0.7570000D-01
EXPONENTS  0.7570000D-01 0.7570000D-01 0.7570000D-01 0.7570000D-01 0.1350000D+00
EXPONENTS  0.1350000D+00 0.1350000D+00 0.1350000D+00 0.1350000D+00 0.1350000D+00
EXPONENTS  0.1350000D+00 0.1350000D+00 0.1350000D+00 0.1350000D+00 0.3798522D+06
EXPONENTS  0.5688601D+05 0.1294270D+05 0.3664302D+04 0.1194742D+04 0.4309819D+03
EXPONENTS  0.1678317D+03 0.6930667D+02 0.2995117D+02 0.1338079D+02 0.1217401D+03
EXPONENTS  0.3704414D+02 0.1399542D+02 0.5982780D+01 0.2483046D+01 0.1045251D+01
EXPONENTS  0.4387564D+00 0.6559563D-01 0.3056193D-01 0.1550906D-01 0.6907763D+03
EXPONENTS  0.1638281D+03 0.5287646D+02 0.1981227D+02 0.8132038D+01 0.3496907D+01
EXPONENTS  0.1511724D+01 0.6447929D+00 0.6907763D+03 0.1638281D+03 0.5287646D+02
EXPONENTS  0.1981227D+02 0.8132038D+01 0.3496907D+01 0.1511724D+01 0.6447929D+00
EXPONENTS  0.6907763D+03 0.1638281D+03 0.5287646D+02 0.1981227D+02 0.8132038D+01
EXPONENTS  0.3496907D+01 0.1511724D+01 0.6447929D+00 0.2614582D+00 0.2614582D+00
EXPONENTS  0.2614582D+00 0.1170473D+00 0.1170473D+00 0.1170473D+00 0.4049475D-01
EXPONENTS  0.4049475D-01 0.4049475D-01 0.1566671D-01 0.1566671D-01 0.1566671D-01
EXPONENTS  0.2900000D+01 0.2900000D+01 0.2900000D+01 0.2900000D+01 0.2900000D+01
EXPONENTS  0.2900000D+01 0.2300000D+00 0.2300000D+00 0.2300000D+00 0.2300000D+00
EXPONENTS  0.2300000D+00 0.2300000D+00 0.7570000D-01 0.7570000D-01 0.7570000D-01
EXPONENTS  0.7570000D-01 0.7570000D-01 0.7570000D-01 0.1350000D+00 0.1350000D+00
EXPONENTS  0.1350000D+00 0.1350000D+00 0.1350000D+00 0.1350000D+00 0.1350000D+00
EXPONENTS  0.1350000D+00 0.1350000D+00 0.1350000D+00
MO    1     MO 0.0        OCC NO =    2.0000000  ORB. ENERGY =  -38.578904
 -0.15962054D+00 -0.29873823D+00 -0.51724102D+00 -0.84423374D+00 -0.13080109D+01
 -0.19044783D+01 -0.25226951D+01 -0.28293154D+01 -0.23475820D+01 -0.10784660D+01
  0.39610504D-02  0.12940943D-01  0.17166635D-01 -0.17961075D+00  0.29758338D-02
 -0.18873448D-02  0.40336229D-03 -0.84506568D-04 -0.37162389D-04  0.13245477D-04
  0.16918536D-15  0.23740265D-15  0.29687115D-15  0.31838306D-15  0.27796492D-15
  0.17707217D-15  0.77708831D-16  0.20766792D-16 -0.57878655D-15 -0.81215927D-15
 -0.10156022D-14 -0.10891949D-14 -0.95092362D-15 -0.60576747D-15 -0.26584348D-15
 -0.71043616D-16 -0.36755717D-04 -0.51576002D-04 -0.64495604D-04 -0.69169092D-04
 -0.60388203D-04 -0.38469135D-04 -0.16882334D-04 -0.45116098D-05 -0.70621068D-17
 -0.11818319D-16 -0.39416029D-04  0.14088709D-17  0.59410906D-17  0.50982423D-04
 -0.76611207D-19  0.41481584D-18  0.20209465D-04  0.34769155D-18 -0.76728725D-19
 -0.15239544D-05 -0.15017188D-04 -0.15017188D-04  0.30034377D-04  0.15362033D-15
 -0.10175907D-15  0.25561509D-15  0.27735601D-05  0.27735601D-05 -0.55471202D-05
 -0.88635379D-19  0.20177121D-17 -0.81984915D-18  0.36467576D-05  0.36467576D-05
 -0.72935152D-05  0.15298837D-18 -0.63571483D-18  0.66156167D-18 -0.59951831D-19
  0.12656465D-18  0.18035857D-05 -0.59890178D-19  0.12663998D-18 -0.27053785D-05
  0.23974567D-18 -0.50633392D-18 -0.27053785D-05 -0.76770592D-19  0.15962138D+00
  0.29873979D+00  0.51724373D+00  0.84423816D+00  0.13080177D+01  0.19044883D+01
  0.25227083D+01  0.28293302D+01  0.23475943D+01  0.10784716D+01 -0.39610711D-02
 -0.12941010D-01 -0.17166725D-01  0.17961169D+00 -0.29758487D-02  0.18873541D-02
 -0.40336398D-03  0.84506697D-04  0.37162319D-04 -0.13245461D-04  0.82695254D-16
  0.11603884D-15  0.14510614D-15  0.15562084D-15  0.13586506D-15  0.86550206D-16
  0.37982905D-16  0.10150495D-16 -0.94702673D-16 -0.13288777D-15 -0.16617568D-15
 -0.17821712D-15 -0.15559278D-15 -0.99117367D-16 -0.43498054D-16 -0.11624355D-16
 -0.36756008D-04 -0.51576411D-04 -0.64496115D-04 -0.69169641D-04 -0.60388682D-04
 -0.38469440D-04 -0.16882468D-04 -0.45116456D-05  0.27241900D-17 -0.19289764D-16
 -0.39416020D-04 -0.28514184D-17  0.89933144D-17  0.50982404D-04  0.78733692D-18
 -0.84839414D-18  0.20209470D-04 -0.18938034D-18  0.16517143D-18 -0.15239544D-05
  0.15017168D-04  0.15017168D-04 -0.30034336D-04  0.35242592D-16  0.11222264D-16
  0.27068420D-16 -0.27735536D-05 -0.27735536D-05  0.55471073D-05 -0.80958601D-19
  0.14835609D-18 -0.57906816D-18 -0.36467593D-05 -0.36467593D-05  0.72935185D-05
 -0.22666743D-19 -0.53956906D-18  0.65920436D-18  0.13819761D-18 -0.78292354D-19
  0.18035879D-05  0.13811425D-18 -0.78435542D-19 -0.27053819D-05 -0.55270708D-18
  0.31331260D-18 -0.27053819D-05 -0.67958165D-19
MO    2     MO 0.0        OCC NO =    2.0000000  ORB. ENERGY =  -38.578903
  0.15962050D+00  0.29873815D+00  0.51724087D+00  0.84423350D+00  0.13080105D+01
  0.19044778D+01  0.25226944D+01  0.28293146D+01  0.23475813D+01  0.10784657D+01
 -0.39514394D-02 -0.12909543D-01 -0.17124982D-01  0.17951894D+00 -0.28543177D-02
  0.17708018D-02 -0.32428783D-03  0.24721072D-04 -0.13233213D-04  0.30753628D-05
  0.39638087D-15  0.55620573D-15  0.69553326D-15  0.74593307D-15  0.65123824D-15
  0.41485870D-15  0.18206241D-15  0.48654086D-16 -0.46588622D-15 -0.65373636D-15
 -0.81749496D-15 -0.87673238D-15 -0.76543281D-15 -0.48760414D-15 -0.21398703D-15
 -0.57185576D-16  0.55669192D-04  0.78115585D-04  0.97683257D-04  0.10476159D-03
  0.91462300D-04  0.58264287D-04  0.25569516D-04  0.68331593D-05 -0.69491380D-17
 -0.11790536D-16 -0.17359383D-05  0.13987428D-17  0.59438768D-17  0.35482879D-05
 -0.75500665D-19  0.41563099D-18 -0.10278397D-05  0.34773690D-18 -0.77022861D-19
  0.31014391D-08 -0.38842876D-05 -0.38842876D-05  0.77685752D-05  0.15463961D-15
 -0.10290457D-15  0.25402004D-15  0.12352733D-05  0.12352733D-05 -0.24705465D-05
 -0.95861244D-19  0.20195707D-17 -0.82103692D-18 -0.31068409D-06 -0.31068409D-06
  0.62136817D-06  0.15351266D-18 -0.63504925D-18  0.66094876D-18 -0.59955651D-19
  0.12661957D-18 -0.42617930D-06 -0.59974893D-19  0.12668418D-18  0.63926896D-06
  0.23984185D-18 -0.50654288D-18  0.63926896D-06 -0.76686882D-19  0.15961966D+00
  0.29873658D+00  0.51723817D+00  0.84422909D+00  0.13080036D+01  0.19044678D+01
  0.25226812D+01  0.28292998D+01  0.23475690D+01  0.10784600D+01 -0.39514186D-02
 -0.12909475D-01 -0.17124892D-01  0.17951800D+00 -0.28543021D-02  0.17707919D-02
 -0.32428571D-03  0.24720629D-04 -0.13233407D-04  0.30754317D-05  0.82652535D-16
  0.11597889D-15  0.14503118D-15  0.15554045D-15  0.13579488D-15  0.86505495D-16
  0.37963284D-16  0.10145251D-16 -0.94694400D-16 -0.13287616D-15 -0.16616116D-15
 -0.17820155D-15 -0.15557919D-15 -0.99108708D-16 -0.43494254D-16 -0.11623340D-16
 -0.55668999D-04 -0.78115315D-04 -0.97682919D-04 -0.10476123D-03 -0.91461984D-04
 -0.58264085D-04 -0.25569428D-04 -0.68331357D-05  0.27483079D-17 -0.19279224D-16
  0.17361445D-05 -0.28579534D-17  0.89849560D-17 -0.35485547D-05  0.78661132D-18
 -0.84730321D-18  0.10277340D-05 -0.18862820D-18  0.16485395D-18 -0.30934966D-08
 -0.38843662D-05 -0.38843662D-05  0.77687324D-05  0.35840884D-16  0.11297497D-16
  0.27297027D-16  0.12352878D-05  0.12352878D-05 -0.24705756D-05 -0.83767295D-19
  0.14365727D-18 -0.57701427D-18 -0.31066501D-06 -0.31066501D-06  0.62133002D-06
 -0.22386742D-19 -0.53890981D-18  0.65888412D-18  0.13817953D-18 -0.78268616D-19
  0.42616987D-06  0.13811229D-18 -0.78367891D-19 -0.63925480D-06 -0.55265088D-18
  0.31317374D-18 -0.63925480D-06 -0.67903610D-19
MO    3     MO 0.0        OCC NO =    2.0000000  ORB. ENERGY =   -2.252767
 -0.40036744D-01 -0.74930869D-01 -0.12973672D+00 -0.21175451D+00 -0.32808118D+00
 -0.47768984D+00 -0.63275375D+00 -0.70966164D+00 -0.58883109D+00 -0.27050570D+00
 -0.76022709D-01 -0.24836986D+00 -0.32947172D+00 -0.22591679D-01  0.36846143D+00
  0.27401247D+00  0.64025824D-01  0.61234215D-03 -0.23963113D-03  0.48950198D-04
  0.16241629D-15  0.22790422D-15  0.28499340D-15  0.30564463D-15  0.26684360D-15
  0.16998755D-15  0.74599717D-16  0.19935917D-16  0.34223199D-15  0.48022347D-15
  0.60051771D-15  0.64403250D-15  0.56227375D-15  0.35818560D-15  0.15719119D-15
  0.42007539D-16  0.85395706D-02  0.11982814D-01  0.14984465D-01  0.16070271D-01
  0.14030180D-01  0.89376543D-02  0.39223255D-02  0.10481964D-02 -0.41126669D-16
 -0.40687520D-16  0.51765022D-03  0.28328759D-16  0.13229580D-16 -0.66026926D-04
 -0.54226950D-17  0.29245112D-17 -0.40126785D-05 -0.28829235D-18 -0.33950870D-18
 -0.16245773D-05  0.54217564D-04  0.54217564D-04 -0.10843513D-03  0.12233394D-15
  0.68661214D-16 -0.12828484D-15  0.99784967D-05  0.99784967D-05 -0.19956993D-04
  0.15899392D-17 -0.85644169D-17 -0.20302537D-17 -0.53944282D-05 -0.53944282D-05
  0.10788856D-04  0.59120220D-18 -0.39612059D-18 -0.10450569D-17 -0.42232602D-19
 -0.54846241D-18 -0.90294683D-05 -0.47939617D-19 -0.54797018D-18  0.13544202D-04
  0.17463742D-18  0.21933574D-17  0.13544202D-04 -0.86114991D-19 -0.40036744D-01
 -0.74930869D-01 -0.12973672D+00 -0.21175451D+00 -0.32808118D+00 -0.47768984D+00
 -0.63275375D+00 -0.70966164D+00 -0.58883109D+00 -0.27050570D+00 -0.76022710D-01
 -0.24836986D+00 -0.32947172D+00 -0.22591679D-01  0.36846143D+00  0.27401247D+00
  0.64025824D-01  0.61234215D-03 -0.23963113D-03  0.48950199D-04  0.14642080D-15
  0.20545918D-15  0.25692596D-15  0.27554336D-15  0.24056363D-15  0.15324640D-15
  0.67252798D-16  0.17972538D-16  0.12945201D-15  0.18164840D-15  0.22715067D-15
  0.24361048D-15  0.21268458D-15  0.13548659D-15  0.59458834D-16  0.15889690D-16
 -0.85395707D-02 -0.11982814D-01 -0.14984465D-01 -0.16070271D-01 -0.14030180D-01
 -0.89376543D-02 -0.39223255D-02 -0.10481964D-02 -0.85313333D-17 -0.15448010D-16
 -0.51765022D-03 -0.11649620D-18  0.15706633D-16  0.66026927D-04  0.19695323D-17
 -0.56914718D-17  0.40126786D-05 -0.60528391D-18  0.78467681D-18  0.16245774D-05
  0.54217564D-04  0.54217564D-04 -0.10843513D-03 -0.17440002D-15  0.43763562D-17
 -0.85617980D-16  0.99784966D-05  0.99784966D-05 -0.19956993D-04 -0.38676294D-17
 -0.43956776D-17 -0.14157744D-17 -0.53944283D-05 -0.53944283D-05  0.10788857D-04
  0.86323008D-18  0.17773272D-19 -0.10922393D-17  0.24948257D-18  0.44447093D-18
  0.90294683D-05  0.24686586D-18  0.43263729D-18 -0.13544202D-04 -0.99531357D-18
 -0.17660501D-17 -0.13544202D-04 -0.42949027D-19
MO    4     MO 0.0        OCC NO =    2.0000000  ORB. ENERGY =   -2.252656
  0.40040628D-01  0.74938138D-01  0.12974931D+00  0.21177506D+00  0.32811301D+00
  0.47773618D+00  0.63281513D+00  0.70973049D+00  0.58888822D+00  0.27053194D+00
  0.76049832D-01  0.24845847D+00  0.32958927D+00  0.22378731D-01 -0.36815331D+00
 -0.27450110D+00 -0.63623247D-01 -0.11386593D-02 -0.52982028D-04 -0.23829722D-04
 -0.71353477D-16 -0.10012394D-15 -0.12520462D-15 -0.13427721D-15 -0.11723097D-15
 -0.74679716D-16 -0.32773493D-16 -0.87583394D-17  0.18163533D-15  0.25487258D-15
  0.31871723D-15  0.34181216D-15  0.29841973D-15  0.19010251D-15  0.83427249D-16
  0.22294974D-16 -0.85685125D-02 -0.12023425D-01 -0.15035250D-01 -0.16124736D-01
 -0.14077730D-01 -0.89679454D-02 -0.39356188D-02 -0.10517489D-02 -0.51080179D-16
 -0.52887110D-16 -0.74473932D-03  0.30376568D-16  0.96751287D-17  0.48475763D-03
 -0.71306938D-17  0.41078962D-17  0.14229617D-03 -0.13433478D-18 -0.43463660D-18
 -0.42049319D-05 -0.88262425D-04 -0.88262425D-04  0.17652485D-03  0.36135643D-16
  0.94030113D-16  0.67424116D-16  0.15863511D-04  0.15863511D-04 -0.31727023D-04
 -0.71881439D-18 -0.59890734D-17 -0.63686082D-19  0.28944824D-04  0.28944824D-04
 -0.57889647D-04  0.10894170D-17  0.12337927D-18 -0.80200776D-19  0.15053686D-18
 -0.22740549D-18  0.11667624D-04  0.15272517D-18 -0.22970638D-18 -0.17501436D-04
 -0.60433576D-18  0.91192284D-18 -0.17501436D-04 -0.16856355D-18 -0.40040628D-01
 -0.74938138D-01 -0.12974931D+00 -0.21177505D+00 -0.32811301D+00 -0.47773618D+00
 -0.63281513D+00 -0.70973049D+00 -0.58888822D+00 -0.27053194D+00 -0.76049832D-01
 -0.24845847D+00 -0.32958927D+00 -0.22378731D-01  0.36815331D+00  0.27450110D+00
  0.63623247D-01  0.11386593D-02  0.52982029D-04  0.23829722D-04 -0.51486841D-16
 -0.72246867D-16 -0.90344446D-16 -0.96890996D-16 -0.84590862D-16 -0.53886970D-16
 -0.23648513D-16 -0.63197933D-17 -0.58583650D-17 -0.82205183D-17 -0.10279728D-16
 -0.11024619D-16 -0.96250642D-17 -0.61314607D-17 -0.26908161D-17 -0.71908969D-18
 -0.85685125D-02 -0.12023425D-01 -0.15035250D-01 -0.16124736D-01 -0.14077730D-01
 -0.89679454D-02 -0.39356188D-02 -0.10517489D-02 -0.34008214D-16 -0.44859374D-16
 -0.74473931D-03  0.82063064D-17  0.27331530D-16  0.48475763D-03  0.12952992D-17
 -0.47363428D-17  0.14229617D-03 -0.38614872D-18  0.88867430D-18 -0.42049320D-05
  0.88262425D-04  0.88262425D-04 -0.17652485D-03 -0.19626492D-15 -0.39832039D-17
 -0.11162659D-15 -0.15863511D-04 -0.15863511D-04  0.31727023D-04 -0.26244269D-17
 -0.35999355D-17  0.67122851D-18 -0.28944824D-04 -0.28944824D-04  0.57889647D-04
  0.47702058D-18  0.75694943D-18  0.53717174D-19 -0.11277013D-20  0.15122267D-18
  0.11667624D-04 -0.33785929D-20  0.13600025D-18 -0.17501435D-04  0.67616967D-20
 -0.58966826D-18 -0.17501435D-04 -0.67911455D-19
MO    5     MO 0.0        OCC NO =    2.0000000  ORB. ENERGY =   -1.165253
 -0.29332654D-03 -0.54897603D-03 -0.95050749D-03 -0.15514054D-02 -0.24036650D-02
 -0.34997628D-02 -0.46358283D-02 -0.51992889D-02 -0.43140319D-02 -0.19818420D-02
 -0.64449387D-03 -0.21055926D-02 -0.27931457D-02  0.52483069D-03  0.19443413D-02
  0.39343718D-02 -0.97956942D-03 -0.32305966D-03  0.20658072D-03 -0.41125622D-04
  0.26091904D-12  0.36612429D-12  0.45783710D-12  0.49101295D-12  0.42867975D-12
  0.27308213D-12  0.11984319D-12  0.32026715D-13 -0.32330786D-12 -0.45366893D-12
 -0.56731136D-12 -0.60841994D-12 -0.53118215D-12 -0.33837930D-12 -0.14849911D-12
 -0.39684681D-13 -0.13315614D+01 -0.18684607D+01 -0.23365034D+01 -0.25058113D+01
 -0.21877032D+01 -0.13936339D+01 -0.61160184D+00 -0.16344356D+00  0.28827914D-14
 -0.35254996D-14 -0.14419993D-01  0.16029937D-15 -0.21944396D-15 -0.90817193D-03
 -0.60465366D-17  0.26599714D-16  0.29063277D-04  0.24417490D-17 -0.42593085D-17
 -0.89521536D-05  0.34137810D-02  0.34137810D-02 -0.68275621D-02  0.64914198D-16
  0.20570162D-14 -0.26036940D-14  0.13129795D-03  0.13129795D-03 -0.26259589D-03
  0.82153523D-17  0.70460064D-16 -0.83668633D-16 -0.23257836D-04 -0.23257836D-04
  0.46515671D-04  0.34769610D-18 -0.73951226D-17  0.31964493D-17 -0.10769204D-17
  0.28301888D-18 -0.24944645D-04 -0.10823988D-17  0.28352247D-18  0.37416968D-04
  0.43131601D-17 -0.11325791D-17  0.37416968D-04  0.23403887D-19 -0.29332654D-03
 -0.54897603D-03 -0.95050749D-03 -0.15514054D-02 -0.24036650D-02 -0.34997628D-02
 -0.46358283D-02 -0.51992889D-02 -0.43140319D-02 -0.19818420D-02 -0.64449387D-03
 -0.21055926D-02 -0.27931457D-02  0.52483069D-03  0.19443413D-02  0.39343718D-02
 -0.97956941D-03 -0.32305967D-03  0.20658069D-03 -0.41125600D-04  0.24928142D-12
  0.34979426D-12  0.43741646D-12  0.46911259D-12  0.40955960D-12  0.26090201D-12
  0.11449789D-12  0.30598247D-13 -0.40807336D-12 -0.57261276D-12 -0.71605018D-12
 -0.76793670D-12 -0.67044854D-12 -0.42709625D-12 -0.18743290D-12 -0.50089290D-13
  0.13315614D+01  0.18684607D+01  0.23365034D+01  0.25058113D+01  0.21877032D+01
  0.13936339D+01  0.61160184D+00  0.16344356D+00  0.27797122D-14 -0.44972299D-14
  0.14419993D-01  0.15649760D-15 -0.26072117D-15  0.90817192D-03 -0.11145406D-16
  0.18897998D-16 -0.29063285D-04  0.63369764D-18 -0.25480819D-17  0.89521553D-05
  0.34137810D-02  0.34137810D-02 -0.68275621D-02 -0.35650641D-16 -0.20874544D-14
  0.34799614D-14  0.13129795D-03  0.13129795D-03 -0.26259589D-03  0.37148700D-17
 -0.67800129D-16  0.11379245D-15 -0.23257835D-04 -0.23257835D-04  0.46515669D-04
 -0.11368789D-17  0.12691598D-17 -0.86410088D-17  0.20658025D-18  0.93358034D-18
  0.24944645D-04  0.21264888D-18  0.93535912D-18 -0.37416967D-04 -0.83238962D-18
 -0.37361001D-17 -0.37416967D-04 -0.63321826D-19
MO    6     MO 0.0        OCC NO =    2.0000000  ORB. ENERGY =   -1.164537
 -0.35892091D-16 -0.67173933D-16 -0.11630622D-15 -0.18983342D-15 -0.29411781D-15
 -0.42823879D-15 -0.56725030D-15 -0.63619659D-15 -0.52787457D-15 -0.24250261D-15
 -0.76483838D-16 -0.24987639D-15 -0.33147019D-15  0.64974311D-16  0.21984144D-15
  0.47372469D-15 -0.85608219D-16 -0.11507066D-15 -0.15651182D-16  0.28117891D-16
  0.64236964D+00  0.90137972D+00  0.11271721D+01  0.12088494D+01  0.10553882D+01
  0.67231458D+00  0.29504795D+00  0.78848174D-01  0.11682986D+01  0.16393687D+01
  0.20500246D+01  0.21985737D+01  0.19194688D+01  0.12227604D+01  0.53661332D+00
  0.14340374D+00 -0.17961306D-12 -0.25203491D-12 -0.31516874D-12 -0.33800654D-12
 -0.29509723D-12 -0.18798597D-12 -0.82498398D-13 -0.22046749D-13  0.70623286D-02
  0.12844487D-01 -0.19532055D-14  0.42900580D-03  0.78024684D-03 -0.94433283D-16
 -0.31673053D-04 -0.57604814D-04  0.18622430D-16  0.35697161D-05  0.64923591D-05
 -0.44424184D-17  0.14333701D-15  0.89510026D-15 -0.10384373D-14 -0.25757182D-16
  0.51785564D-02  0.94184093D-02  0.17492828D-16  0.20675410D-16 -0.38168238D-16
 -0.27924946D-16  0.17320146D-03  0.31500714D-03  0.43760177D-18 -0.33987078D-17
  0.29611060D-17  0.32065733D-17 -0.10567173D-04 -0.19218862D-04 -0.10817226D-05
 -0.19673641D-05 -0.38496855D-17 -0.10821562D-05 -0.19681528D-05  0.17289927D-17
  0.43273239D-05  0.78702451D-05  0.98200637D-17 -0.12394763D-17 -0.46225792D-16
 -0.86513998D-16 -0.14979197D-15 -0.24448842D-15 -0.37879735D-15 -0.55153314D-15
 -0.73056749D-15 -0.81936413D-15 -0.67985508D-15 -0.31232161D-15 -0.10949595D-15
 -0.35772856D-15 -0.47454005D-15  0.43492915D-16  0.47180682D-15  0.52391951D-15
 -0.13924940D-15 -0.58691009D-16  0.11018975D-15 -0.46460555D-16  0.64236964D+00
  0.90137972D+00  0.11271721D+01  0.12088494D+01  0.10553882D+01  0.67231458D+00
  0.29504795D+00  0.78848174D-01  0.11682986D+01  0.16393687D+01  0.20500246D+01
  0.21985737D+01  0.19194688D+01  0.12227604D+01  0.53661332D+00  0.14340374D+00
  0.21454997D-12  0.30105873D-12  0.37647285D-12  0.40375287D-12  0.35249719D-12
  0.22455150D-12  0.98545329D-13  0.26335107D-13  0.70623286D-02  0.12844487D-01
  0.22829459D-14  0.42900580D-03  0.78024684D-03  0.16947292D-15 -0.31673053D-04
 -0.57604814D-04  0.20287826D-16  0.35697161D-05  0.64923591D-05 -0.20164871D-17
  0.47429902D-15 -0.65659765D-16 -0.40863926D-15  0.31080491D-15 -0.51785564D-02
 -0.94184094D-02  0.27495455D-16  0.22648864D-16 -0.50144320D-16 -0.62337730D-17
 -0.17320146D-03 -0.31500714D-03 -0.85667300D-17 -0.65917236D-17  0.15158454D-16
  0.20969344D-17  0.10567173D-04  0.19218862D-04 -0.10817226D-05 -0.19673641D-05
  0.53168720D-17 -0.10821562D-05 -0.19681528D-05 -0.10803591D-16  0.43273240D-05
  0.78702451D-05 -0.51470247D-17 -0.47347625D-17
MO    7     MO 0.0        OCC NO =    2.0000000  ORB. ENERGY =   -1.164537
  0.84856398D-16  0.15881321D-15  0.27497219D-15  0.44880586D-15  0.69535592D-15
  0.10124459D-14  0.13410982D-14  0.15041016D-14  0.12480057D-14  0.57332682D-15
  0.18898996D-15  0.61743932D-15  0.81905590D-15 -0.15263163D-15 -0.59051083D-15
 -0.10997234D-14  0.24225637D-15  0.13385260D-15 -0.15830039D-16 -0.27563005D-16
  0.11682986D+01  0.16393687D+01  0.20500246D+01  0.21985737D+01  0.19194688D+01
  0.12227604D+01  0.53661332D+00  0.14340374D+00 -0.64236964D+00 -0.90137972D+00
 -0.11271721D+01 -0.12088494D+01 -0.10553882D+01 -0.67231458D+00 -0.29504795D+00
 -0.78848174D-01  0.38147063D-12  0.53528353D-12  0.66937012D-12  0.71787410D-12
  0.62674130D-12  0.39925340D-12  0.17521396D-12  0.46823917D-13  0.12844487D-01
 -0.70623286D-02  0.41359715D-14  0.78024684D-03 -0.42900580D-03  0.24250527D-15
 -0.57604814D-04  0.31673053D-04 -0.21534989D-16  0.64923591D-05 -0.35697161D-05
  0.66112426D-17 -0.90658583D-15 -0.10516434D-14  0.19582292D-14  0.14914940D-15
  0.94184093D-02 -0.51785564D-02 -0.38856790D-16 -0.38178335D-16  0.77035125D-16
 -0.68718825D-18  0.31500714D-03 -0.17320146D-03  0.57686353D-17  0.46083606D-17
 -0.10376996D-16  0.12860479D-17 -0.19218862D-04  0.10567173D-04 -0.19673641D-05
  0.10817226D-05  0.68835474D-17 -0.19681528D-05  0.10821562D-05 -0.23222030D-16
  0.78702451D-05 -0.43273239D-05  0.25713881D-17 -0.66960133D-17  0.88734866D-16
  0.16607196D-15  0.28754014D-15  0.46931909D-15  0.72713804D-15  0.10587211D-14
  0.14023948D-14  0.15728485D-14  0.13050474D-14  0.59953144D-15  0.19685767D-15
  0.64314351D-15  0.85315345D-15 -0.12449032D-15 -0.68886858D-15 -0.11786908D-14
  0.32124781D-15  0.86862600D-16 -0.10751136D-15  0.48292871D-16  0.11682986D+01
  0.16393687D+01  0.20500246D+01  0.21985737D+01  0.19194688D+01  0.12227604D+01
  0.53661332D+00  0.14340374D+00 -0.64236964D+00 -0.90137972D+00 -0.11271721D+01
 -0.12088494D+01 -0.10553882D+01 -0.67231458D+00 -0.29504795D+00 -0.78848174D-01
 -0.41682197D-12 -0.58488889D-12 -0.73140145D-12 -0.78440035D-12 -0.68482216D-12
 -0.43625269D-12 -0.19145124D-12 -0.51163145D-13  0.12844487D-01 -0.70623286D-02
 -0.45052913D-14  0.78024684D-03 -0.42900580D-03 -0.29713520D-15 -0.57604814D-04
  0.31673053D-04 -0.84122835D-17  0.64923591D-05 -0.35697161D-05  0.89232306D-18
 -0.10224643D-14 -0.97457749D-15  0.19970418D-14  0.47882548D-16 -0.94184094D-02
  0.51785564D-02 -0.29197395D-16 -0.53352425D-16  0.82549820D-16 -0.27032533D-16
 -0.31500714D-03  0.17320146D-03  0.64738923D-17  0.12364799D-16 -0.18838692D-16
  0.26201893D-17  0.19218862D-04 -0.10567173D-04 -0.19673641D-05  0.10817226D-05
 -0.81475831D-17 -0.19681528D-05  0.10821562D-05  0.88212850D-17  0.78702451D-05
 -0.43273240D-05  0.15621464D-16 -0.36253419D-17
MO    8     MO 0.0        OCC NO =    2.0000000  ORB. ENERGY =   -1.164323
 -0.15139987D-16 -0.28335281D-16 -0.49060241D-16 -0.80075457D-16 -0.12406465D-15
 -0.18063951D-15 -0.23927729D-15 -0.26836018D-15 -0.22266783D-15 -0.10229235D-15
 -0.35402214D-16 -0.11566074D-15 -0.15342821D-15  0.19632630D-16  0.13904538D-15
  0.17732408D-15 -0.45912820D-16  0.21688946D-17  0.30857053D-16 -0.41011782D-16
 -0.62527623D+00 -0.87739406D+00 -0.10971781D+01 -0.11766820D+01 -0.10273043D+01
 -0.65442433D+00 -0.28719674D+00 -0.76750029D-01 -0.11781510D+01 -0.16531937D+01
 -0.20673127D+01 -0.22171146D+01 -0.19356559D+01 -0.12330721D+01 -0.54113865D+00
 -0.14461308D+00 -0.62797063D-13 -0.88117488D-13 -0.11019060D-12 -0.11817524D-12
 -0.10317311D-12 -0.65724433D-13 -0.28843431D-13 -0.77080756D-14 -0.68261031D-02
 -0.12861804D-01 -0.68134273D-15 -0.45780257D-03 -0.86259567D-03 -0.38605759D-16
  0.20197601D-04  0.38056498D-04 -0.60571993D-17 -0.56015752D-05 -0.10554538D-04
  0.33688786D-17 -0.73798331D-16  0.35405326D-15 -0.28025493D-15  0.37583394D-15
 -0.51093390D-02 -0.96270618D-02  0.83757710D-17  0.53337775D-17 -0.13709548D-16
  0.28539368D-16 -0.17662279D-03 -0.33279422D-03 -0.13038468D-17 -0.23478641D-17
  0.36517109D-17 -0.12897340D-17  0.37462730D-04  0.70587608D-04  0.48532223D-05
  0.91444844D-05 -0.51589061D-18  0.48536473D-05  0.91452852D-05 -0.14496497D-17
 -0.19413314D-04 -0.36578738D-04  0.29973215D-17 -0.31018894D-17 -0.36093461D-17
 -0.67550808D-17 -0.11695875D-16 -0.19089847D-16 -0.29576794D-16 -0.43064140D-16
 -0.57043282D-16 -0.63976593D-16 -0.53083618D-16 -0.24386316D-16 -0.45765070D-17
 -0.14951669D-16 -0.19833937D-16  0.10943227D-15 -0.19164991D-15  0.19635456D-15
 -0.80252005D-16  0.27687271D-16 -0.50227763D-16  0.45390632D-16  0.62527623D+00
  0.87739406D+00  0.10971781D+01  0.11766820D+01  0.10273043D+01  0.65442433D+00
  0.28719674D+00  0.76750029D-01  0.11781510D+01  0.16531937D+01  0.20673127D+01
  0.22171146D+01  0.19356559D+01  0.12330721D+01  0.54113864D+00  0.14461308D+00
  0.17498098D-13  0.24553512D-13  0.30704077D-13  0.32928960D-13  0.28748689D-13
  0.18313795D-13  0.80370825D-14  0.21478180D-14  0.68261031D-02  0.12861804D-01
  0.17622171D-15  0.45780257D-03  0.86259567D-03  0.45878362D-17 -0.20197601D-04
 -0.38056498D-04 -0.77704483D-17  0.56015752D-05  0.10554538D-04  0.40050529D-17
  0.13154910D-15  0.29721937D-15 -0.42876847D-15  0.27477046D-15 -0.51093390D-02
 -0.96270618D-02  0.49212709D-17 -0.58141647D-17  0.89289375D-18 -0.20432946D-17
 -0.17662279D-03 -0.33279422D-03 -0.21415003D-17  0.24769293D-17 -0.33542897D-18
 -0.16372039D-17  0.37462730D-04  0.70587608D-04 -0.48532223D-05 -0.91444844D-05
  0.10448145D-17 -0.48536473D-05 -0.91452852D-05 -0.58905279D-17  0.19413314D-04
  0.36578738D-04  0.27560844D-17 -0.13831308D-17
MO    9     MO 0.0        OCC NO =    2.0000000  ORB. ENERGY =   -1.164323
  0.29727747D-17  0.55637041D-17  0.96331025D-17  0.15723019D-16  0.24360409D-16
  0.35469025D-16  0.46982701D-16  0.52693202D-16  0.43721393D-16  0.20085362D-16
  0.33198262D-17  0.10846032D-16  0.14387659D-16  0.65769122D-18  0.30286413D-17
 -0.66566065D-16  0.33054876D-16 -0.51842113D-17  0.37287834D-16 -0.34550114D-16
 -0.11781510D+01 -0.16531937D+01 -0.20673127D+01 -0.22171146D+01 -0.19356559D+01
 -0.12330721D+01 -0.54113865D+00 -0.14461308D+00  0.62527623D+00  0.87739406D+00
  0.10971781D+01  0.11766820D+01  0.10273043D+01  0.65442433D+00  0.28719674D+00
  0.76750029D-01  0.13276959D-13  0.18630366D-13  0.23297206D-13  0.24985370D-13
  0.21813523D-13  0.13895883D-13  0.60982638D-14  0.16296909D-14 -0.12861804D-01
  0.68261031D-02  0.15303526D-15 -0.86259567D-03  0.45780257D-03 -0.10574453D-18
  0.38056498D-04 -0.20197601D-04 -0.67950996D-17 -0.10554538D-04  0.56015752D-05
  0.36185021D-17  0.19328247D-16 -0.79831448D-16  0.60503200D-16  0.21239058D-15
 -0.96270618D-02  0.51093390D-02  0.59666405D-17 -0.99593675D-17  0.39927270D-17
  0.26690197D-16 -0.33279422D-03  0.17662279D-03  0.13860552D-17 -0.45243907D-18
 -0.93361610D-18 -0.49038538D-17  0.70587608D-04 -0.37462730D-04  0.91444844D-05
 -0.48532223D-05  0.68455745D-18  0.91452852D-05 -0.48536473D-05 -0.10985939D-16
 -0.36578738D-04  0.19413314D-04  0.89322671D-17  0.12889896D-18  0.53211413D-17
  0.99587955D-17  0.17242847D-16  0.28143540D-16  0.43604103D-16  0.63488058D-16
  0.84097052D-16  0.94318607D-16  0.78259448D-16  0.35951951D-16  0.82508894D-17
  0.26956054D-16  0.35758193D-16 -0.52492850D-16  0.60932124D-16 -0.13196327D-15
  0.47509274D-16  0.40336783D-17 -0.20121615D-16  0.26359093D-16  0.11781510D+01
  0.16531937D+01  0.20673127D+01  0.22171146D+01  0.19356559D+01  0.12330721D+01
  0.54113864D+00  0.14461308D+00 -0.62527623D+00 -0.87739406D+00 -0.10971781D+01
 -0.11766820D+01 -0.10273043D+01 -0.65442433D+00 -0.28719674D+00 -0.76750029D-01
 -0.16286444D-13 -0.22853306D-13 -0.28577977D-13 -0.30648798D-13 -0.26757989D-13
 -0.17045659D-13 -0.74805557D-14 -0.19990925D-14  0.12861804D-01 -0.68261031D-02
 -0.17069164D-15  0.86259567D-03 -0.45780257D-03  0.87606206D-18 -0.38056498D-04
  0.20197601D-04 -0.12672470D-16  0.10554538D-04 -0.56015752D-05  0.30988886D-17
 -0.54210947D-16 -0.18051988D-15  0.23473083D-15 -0.32978236D-15 -0.96270618D-02
  0.51093390D-02  0.21149334D-16 -0.26869816D-16  0.57204823D-17 -0.29257948D-16
 -0.33279422D-03  0.17662279D-03 -0.11131356D-17  0.38307528D-17 -0.27176172D-17
  0.21277112D-17  0.70587608D-04 -0.37462730D-04 -0.91444844D-05  0.48532223D-05
 -0.50780750D-18 -0.91452852D-05  0.48536473D-05 -0.62940774D-17  0.36578738D-04
 -0.19413314D-04  0.78174999D-17 -0.29558312D-17
MO   10     MO 0.0        OCC NO =    2.0000000  ORB. ENERGY =   -1.163522
  0.36946591D-03  0.69147487D-03  0.11972327D-02  0.19541068D-02  0.30275892D-02
  0.44082034D-02  0.58391597D-02  0.65488789D-02  0.54338340D-02  0.24962728D-02
  0.82770978D-03  0.27041678D-02  0.35871777D-02 -0.84657145D-03 -0.20844029D-02
 -0.55578534D-02  0.17493071D-02 -0.73364993D-03 -0.17523914D-02  0.81681890D-03