 Molden2AIM, Version 4.0.0 (06/02/2016)           Time: Sun Jun 24 19:40:44 2018
GAUSSIAN             14 MOL ORBITALS    215 PRIMITIVES        2 NUCLEI
  Na   1    (CENTRE  1)   0.00000000  0.00000000 -2.71727499  CHARGE = 11.0
  Cl   2    (CENTRE  2)   0.00000000  0.00000000  1.74907381  CHARGE = 17.0
CENTRE ASSIGNMENTS    1  1  1  1  1  1  1  1  1  1  1  1  1  1  1  1  1  1  1  1
CENTRE ASSIGNMENTS    1  1  1  1  1  1  1  1  1  1  1  1  1  1  1  1  1  1  1  1
CENTRE ASSIGNMENTS    1  1  1  1  1  1  1  1  1  1  1  1  1  1  1  1  1  1  1  1
CENTRE ASSIGNMENTS    1  1  1  1  1  1  1  1  1  1  1  1  1  1  1  1  1  1  1  1
CENTRE ASSIGNMENTS    1  1  1  1  2  2  2  2  2  2  2  2  2  2  2  2  2  2  2  2
CENTRE ASSIGNMENTS    2  2  2  2  2  2  2  2  2  2  2  2  2  2  2  2  2  2  2  2
CENTRE ASSIGNMENTS    2  2  2  2  2  2  2  2  2  2  2  2  2  2  2  2  2  2  2  2
CENTRE ASSIGNMENTS    2  2  2  2  2  2  2  2  2  2  2  2  2  2  2  2  2  2  2  2
CENTRE ASSIGNMENTS    2  2  2  2  2  2  2  2  2  2  2  2  2  2  2  2  2  2  2  2
CENTRE ASSIGNMENTS    2  2  2  2  2  2  2  2  2  2  2  2  2  2  2  2  2  2  2  2
CENTRE ASSIGNMENTS    2  2  2  2  2  2  2  2  2  2  2  2  2  2  2
TYPE ASSIGNMENTS      1  1  1  1  1  1  1  1  1  1  1  1  1  1  1  1  1  1  1  1
TYPE ASSIGNMENTS      2  2  2  2  2  2  2  2  3  3  3  3  3  3  3  3  4  4  4  4
TYPE ASSIGNMENTS      4  4  4  4  2  3  4  2  3  4  2  3  4  2  3  4  5  6  7  8
TYPE ASSIGNMENTS      9 10  5  6  7  8  9 10  5  6  7  8  9 10 11 12 13 17 14 15
TYPE ASSIGNMENTS     18 19 16 20  1  1  1  1  1  1  1  1  1  1  1  1  1  1  1  1
TYPE ASSIGNMENTS      1  1  1  1  1  2  2  2  2  2  2  2  2  3  3  3  3  3  3  3
TYPE ASSIGNMENTS      3  4  4  4  4  4  4  4  4  2  2  3  3  4  4  2  3  4  2  3
TYPE ASSIGNMENTS      4  2  3  4  2  3  4  2  3  4  5  6  7  8  9 10  5  6  7  8
TYPE ASSIGNMENTS      9 10  5  6  7  8  9 10  5  6  7  8  9 10  5  6  7  8  9 10
TYPE ASSIGNMENTS     11 12 13 17 14 15 18 19 16 20 11 12 13 17 14 15 18 19 16 20
TYPE ASSIGNMENTS     21 22 23 24 25 26 27 28 29 30 31 32 33 34 35
EXPONENTS  0.3798522D+06 0.5688601D+05 0.1294270D+05 0.3664302D+04 0.1194742D+04
EXPONENTS  0.4309819D+03 0.1678317D+03 0.6930667D+02 0.2995117D+02 0.1338079D+02
EXPONENTS  0.1217401D+03 0.3704414D+02 0.1399542D+02 0.5982780D+01 0.2483046D+01
EXPONENTS  0.1045251D+01 0.4387564D+00 0.6559563D-01 0.3056193D-01 0.1550906D-01
EXPONENTS  0.6907763D+03 0.1638281D+03 0.5287646D+02 0.1981227D+02 0.8132038D+01
EXPONENTS  0.3496907D+01 0.1511724D+01 0.6447929D+00 0.6907763D+03 0.1638281D+03
EXPONENTS  0.5287646D+02 0.1981227D+02 0.8132038D+01 0.3496907D+01 0.1511724D+01
EXPONENTS  0.6447929D+00 0.6907763D+03 0.1638281D+03 0.5287646D+02 0.1981227D+02
EXPONENTS  0.8132038D+01 0.3496907D+01 0.1511724D+01 0.6447929D+00 0.2614582D+00
EXPONENTS  0.2614582D+00 0.2614582D+00 0.1170473D+00 0.1170473D+00 0.1170473D+00
EXPONENTS  0.4049475D-01 0.4049475D-01 0.4049475D-01 0.1566671D-01 0.1566671D-01
EXPONENTS  0.1566671D-01 0.2900000D+01 0.2900000D+01 0.2900000D+01 0.2900000D+01
EXPONENTS  0.2900000D+01 0.2900000D+01 0.2300000D+00 0.2300000D+00 0.2300000D+00
EXPONENTS  0.2300000D+00 0.2300000D+00 0.2300000D+00 0.7570000D-01 0.7570000D-01
EXPONENTS  0.7570000D-01 0.7570000D-01 0.7570000D-01 0.7570000D-01 0.1350000D+00
EXPONENTS  0.1350000D+00 0.1350000D+00 0.1350000D+00 0.1350000D+00 0.1350000D+00
EXPONENTS  0.1350000D+00 0.1350000D+00 0.1350000D+00 0.1350000D+00 0.1467459D+07
EXPONENTS  0.2197562D+06 0.5001077D+05 0.1416482D+05 0.4620747D+04 0.1667899D+04
EXPONENTS  0.6502920D+03 0.2693804D+03 0.1170675D+03 0.5281177D+02 0.4614277D+03
EXPONENTS  0.1421267D+03 0.5443784D+02 0.2416077D+02 0.9708354D+01 0.4564070D+01
EXPONENTS  0.2119474D+01 0.7572237D+00 0.3374722D+00 0.1386078D+00 0.5423457D-01
EXPONENTS  0.2501946D+04 0.5928806D+03 0.1921809D+03 0.7287571D+02 0.3043636D+02
EXPONENTS  0.1349018D+02 0.6147807D+01 0.2845094D+01 0.2501946D+04 0.5928806D+03
EXPONENTS  0.1921809D+03 0.7287571D+02 0.3043636D+02 0.1349018D+02 0.6147807D+01
EXPONENTS  0.2845094D+01 0.2501946D+04 0.5928806D+03 0.1921809D+03 0.7287571D+02
EXPONENTS  0.3043636D+02 0.1349018D+02 0.6147807D+01 0.2845094D+01 0.1053940D+03
EXPONENTS  0.6736974D+01 0.1053940D+03 0.6736974D+01 0.1053940D+03 0.6736974D+01
EXPONENTS  0.1242110D+01 0.1242110D+01 0.1242110D+01 0.5566971D+00 0.5566971D+00
EXPONENTS  0.5566971D+00 0.2338780D+00 0.2338780D+00 0.2338780D+00 0.9316449D-01
EXPONENTS  0.9316449D-01 0.9316449D-01 0.2725615D-01 0.2725615D-01 0.2725615D-01
EXPONENTS  0.5191000D+01 0.5191000D+01 0.5191000D+01 0.5191000D+01 0.5191000D+01
EXPONENTS  0.5191000D+01 0.1276000D+01 0.1276000D+01 0.1276000D+01 0.1276000D+01
EXPONENTS  0.1276000D+01 0.1276000D+01 0.5830000D+00 0.5830000D+00 0.5830000D+00
EXPONENTS  0.5830000D+00 0.5830000D+00 0.5830000D+00 0.2430000D+00 0.2430000D+00
EXPONENTS  0.2430000D+00 0.2430000D+00 0.2430000D+00 0.2430000D+00 0.8345654D-01
EXPONENTS  0.8345654D-01 0.8345654D-01 0.8345654D-01 0.8345654D-01 0.8345654D-01
EXPONENTS  0.4230000D+00 0.4230000D+00 0.4230000D+00 0.4230000D+00 0.4230000D+00
EXPONENTS  0.4230000D+00 0.4230000D+00 0.4230000D+00 0.4230000D+00 0.4230000D+00
EXPONENTS  0.1089000D+01 0.1089000D+01 0.1089000D+01 0.1089000D+01 0.1089000D+01
EXPONENTS  0.1089000D+01 0.1089000D+01 0.1089000D+01 0.1089000D+01 0.1089000D+01
EXPONENTS  0.8270000D+00 0.8270000D+00 0.8270000D+00 0.8270000D+00 0.8270000D+00
EXPONENTS  0.8270000D+00 0.8270000D+00 0.8270000D+00 0.8270000D+00 0.8270000D+00
EXPONENTS  0.8270000D+00 0.8270000D+00 0.8270000D+00 0.8270000D+00 0.8270000D+00
MO    1     MO 0.0        OCC NO =    2.0000000  ORB. ENERGY = -101.587731
  0.28357794D-07  0.53073101D-07  0.91891771D-07  0.14998450D-06  0.23237800D-06
  0.33834495D-06  0.44817582D-06  0.50264923D-06  0.41706566D-06  0.19159762D-06
 -0.32439346D-06 -0.10598091D-05 -0.14058756D-05  0.23774385D-05 -0.23440948D-05
  0.14356860D-05 -0.17970626D-05  0.76767180D-05 -0.28920307D-05  0.29947217D-06
 -0.13235824D-14 -0.18572645D-14 -0.23225026D-14 -0.24907961D-14 -0.21745941D-14
 -0.13852830D-14 -0.60793701D-15 -0.16246418D-15  0.46524240D-15  0.65283295D-15
  0.81636524D-15  0.87552080D-15  0.76437504D-15  0.48693031D-15  0.21369132D-15
  0.57106550D-16  0.20471001D-05  0.28725119D-05  0.35920658D-05  0.38523545D-05
  0.33633052D-05  0.21425284D-05  0.94025718D-06  0.25127293D-06  0.16921787D-16
 -0.17162393D-16 -0.13745669D-05 -0.10714293D-16  0.10571076D-16  0.55967037D-05
  0.15994238D-17 -0.89184146D-18 -0.26134646D-07  0.31864827D-19  0.86797804D-19
 -0.21185674D-07 -0.25611628D-06 -0.25611628D-06  0.51223256D-06  0.80037683D-15
  0.23601818D-15 -0.12203136D-15 -0.68377680D-06 -0.68377680D-06  0.13675536D-05
 -0.36913991D-17 -0.44577852D-17 -0.42849456D-17 -0.16569880D-06 -0.16569880D-06
  0.33139760D-06  0.39057815D-18  0.62557846D-18  0.79169634D-18  0.20688369D-18
 -0.54566306D-19  0.58104063D-07  0.20624568D-18 -0.54398406D-19 -0.87156095D-07
 -0.82689673D-18  0.21809733D-18 -0.87156095D-07  0.27143879D-19  0.34490698D+00
  0.64548949D+00  0.11180847D+01  0.18287344D+01  0.28526936D+01  0.42322543D+01
  0.58700235D+01  0.72652101D+01  0.73524389D+01  0.50749404D+01 -0.54578313D-02
 -0.20649677D-01 -0.38955607D-01  0.17393167D+01  0.12215889D+00 -0.90586234D-02
  0.20807739D-02 -0.41002153D-03  0.14679757D-03 -0.45066082D-04  0.50465723D-05
  0.55364259D-16  0.79594207D-16  0.10558177D-15  0.12354510D-15  0.12176833D-15
  0.91739626D-16  0.47911191D-16  0.13768908D-16 -0.48268080D-16 -0.69392413D-16
 -0.92049081D-16 -0.10771000D-15 -0.10616097D-15 -0.79981122D-16 -0.41770290D-16
 -0.12004111D-16 -0.41289444D-03 -0.59359605D-03 -0.78740555D-03 -0.92137208D-03
 -0.90812135D-03 -0.68417390D-03 -0.35731110D-03 -0.10268548D-03  0.25729508D-15
 -0.15439822D-15 -0.23077104D-15  0.13848162D-15 -0.12064119D-02  0.72394640D-03
  0.56644197D-17  0.95877547D-18  0.40733122D-04 -0.68103551D-17 -0.48093453D-17
 -0.15439563D-04  0.75235599D-17  0.22152199D-17  0.50278510D-05 -0.27559879D-17
 -0.16559616D-17  0.31014940D-05 -0.22698786D-18  0.19842811D-18 -0.24302133D-06
 -0.13707541D-04 -0.13707541D-04  0.27415081D-04  0.10630096D-16 -0.27714919D-16
 -0.10840226D-16  0.47093669D-05  0.47093669D-05 -0.94187339D-05  0.24599586D-17
 -0.12620401D-16 -0.55369038D-17 -0.30849303D-05 -0.30849303D-05  0.61698606D-05
  0.62765017D-18  0.16813301D-17  0.77732871D-18  0.13362295D-05  0.13362295D-05
 -0.26724590D-05 -0.11677646D-18 -0.46439093D-17 -0.18977109D-17  0.67976801D-07
  0.67976801D-07 -0.13595360D-06  0.12976057D-18  0.76933459D-18  0.85699595D-18
 -0.40416473D-18 -0.11421507D-18  0.99288760D-06 -0.40332228D-18 -0.11486842D-18
 -0.14893314D-05  0.16158165D-17  0.45751364D-18 -0.14893314D-05 -0.54397388D-18
  0.25332342D-18 -0.71476770D-18 -0.31819216D-05  0.24406002D-18 -0.68410738D-18
  0.47728824D-05 -0.10040303D-17  0.28284105D-17  0.47728824D-05  0.56965206D-17
 -0.77333927D-07 -0.77333927D-07 -0.20622704D-06 -0.34548098D-18  0.30519116D-18
 -0.34511351D-18 -0.44963640D-18 -0.40541875D-18  0.60060388D-18 -0.15467755D-06
  0.61868111D-06  0.61868111D-06 -0.45290245D-18  0.30068277D-18  0.20717835D-17
MO    2     MO 0.0        OCC NO =    2.0000000  ORB. ENERGY =  -38.619458
 -0.22573899D+00 -0.42248238D+00 -0.73149398D+00 -0.11939345D+01 -0.18498186D+01
 -0.26933564D+01 -0.35676526D+01 -0.40012820D+01 -0.33200037D+01 -0.15251910D+01
  0.56112530D-02  0.18332234D-01  0.24318381D-01 -0.25398683D+00  0.41219965D-02
 -0.25809101D-02  0.49889169D-03 -0.51792045D-04  0.82330668D-05 -0.33224442D-05
 -0.19750780D-17 -0.27714499D-17 -0.34656880D-17 -0.37168191D-17 -0.32449758D-17
 -0.20671489D-17 -0.90717661D-18 -0.24243252D-18  0.77843918D-18  0.10923139D-17
  0.13659346D-17  0.14649131D-17  0.12789451D-17  0.81472718D-18  0.35754629D-18
  0.95550138D-19  0.17229086D-03  0.24176032D-03  0.30232041D-03  0.32422718D-03
  0.28306714D-03  0.18032244D-03  0.79135225D-04  0.21147979D-04  0.62365173D-19
  0.14972430D-19  0.79001738D-05 -0.37611687D-19  0.49560242D-20 -0.90758362D-05
  0.64231902D-20 -0.24959121D-20 -0.65602159D-05 -0.53819029D-21  0.34719932D-21
  0.34856132D-06 -0.66488992D-05 -0.66488992D-05  0.13297798D-04  0.87588127D-18
 -0.11006475D-17 -0.11287960D-17 -0.18249095D-05 -0.18249095D-05  0.36498190D-05
 -0.21300095D-19  0.65898641D-20  0.76133505D-21  0.15070343D-05  0.15070343D-05
 -0.30140686D-05  0.11625590D-20 -0.71753955D-21 -0.56777172D-21  0.94360810D-21
 -0.24651636D-21 -0.90927281D-06  0.64501578D-21 -0.21191272D-21  0.13639092D-05
 -0.34758401D-20  0.95146181D-21  0.13639092D-05  0.36763156D-21  0.45842245D-07
  0.85793238D-07  0.14860677D-06  0.24306058D-06  0.37915695D-06  0.56251698D-06
  0.78019601D-06  0.96563292D-06  0.97722667D-06  0.67452000D-06 -0.30239949D-06
 -0.11441269D-05 -0.21583950D-05  0.51723752D-05 -0.77933067D-05  0.70560235D-05
 -0.19330872D-05 -0.10070201D-04  0.13501808D-04  0.16998922D-04  0.24199871D-04
 -0.21656366D-15 -0.31134188D-15 -0.41299521D-15 -0.48326083D-15 -0.47631080D-15
 -0.35885008D-15 -0.18741013D-15 -0.53858664D-16 -0.18685673D-15 -0.26863383D-15
 -0.35634295D-15 -0.41696994D-15 -0.41097328D-15 -0.30962513D-15 -0.16170230D-15
 -0.46470648D-16 -0.46111015D-05 -0.66291318D-05 -0.87935476D-05 -0.10289652D-04
 -0.10141671D-04 -0.76406825D-05 -0.39903607D-05 -0.11467657D-05 -0.57666129D-17
  0.34604423D-17 -0.58929798D-17  0.35362728D-17  0.38913402D-04 -0.23351244D-04
 -0.47017093D-17 -0.42113407D-17  0.39657287D-04  0.63125699D-19 -0.86143096D-19
 -0.37985319D-04  0.36488653D-19 -0.20414217D-19  0.45397228D-05  0.11966045D-19
 -0.82471007D-20 -0.81508541D-05 -0.10336417D-20  0.68960893D-21 -0.46776517D-06
 -0.15803390D-04 -0.15803390D-04  0.31606781D-04 -0.15251765D-18  0.26905879D-18
  0.27282953D-18  0.12967648D-04  0.12967648D-04 -0.25935295D-04  0.25254238D-19
  0.19326949D-19  0.24725702D-19 -0.12197080D-04 -0.12197080D-04  0.24394161D-04
 -0.79801819D-20 -0.32896427D-20 -0.88124106D-20  0.37400639D-05  0.37400639D-05
 -0.74801278D-05  0.20693772D-20 -0.28059298D-20  0.80707272D-20  0.14967683D-06
  0.14967683D-06 -0.29935367D-06 -0.29771440D-21 -0.48088248D-21 -0.97442595D-21
  0.27834763D-21  0.29326002D-21  0.11637010D-04 -0.14053134D-21  0.32176797D-21
 -0.17455514D-04 -0.69451155D-21 -0.12015480D-20 -0.17455514D-04 -0.24491837D-20
 -0.46092236D-21  0.12622095D-20 -0.43727968D-04  0.12483542D-20 -0.23180630D-20
  0.65591952D-04  0.13441290D-21 -0.14685655D-20  0.65591952D-04  0.13936819D-19
 -0.33512231D-05 -0.33512231D-05 -0.89365939D-05 -0.13539735D-20 -0.78747670D-20
 -0.13171505D-20 -0.45841689D-21  0.10104211D-19  0.21672278D-21 -0.67024428D-05
  0.26809782D-04  0.26809782D-04  0.72508233D-21 -0.66883319D-20  0.80133719D-20
MO    3     MO 0.0        OCC NO =    2.0000000  ORB. ENERGY =   -9.410082
  0.92257448D-07  0.17266466D-06  0.29895486D-06  0.48795004D-06  0.75600384D-06
  0.11007500D-05  0.14580668D-05  0.16352871D-05  0.13568549D-05  0.62333154D-06
  0.44702769D-05  0.14604610D-04  0.19373551D-04 -0.41491520D-04  0.53179133D-04
 -0.49261902D-04  0.38127167D-04 -0.16180513D-03  0.70205137D-04 -0.68326200D-05
  0.13872802D-15  0.19466460D-15  0.24342737D-15  0.26106664D-15  0.22792471D-15
  0.14519502D-15  0.63719416D-16  0.17028282D-16 -0.90931062D-16 -0.12759541D-15
 -0.15955759D-15 -0.17111948D-15 -0.14939617D-15 -0.95169937D-16 -0.41765709D-16
 -0.11161406D-16 -0.62563151D-04 -0.87789260D-04 -0.10978015D-03 -0.11773506D-03
 -0.10278881D-03 -0.65479617D-04 -0.28735993D-04 -0.76793639D-05 -0.12601658D-16
 -0.84017624D-16  0.33911266D-04  0.69491522D-17  0.43671292D-16 -0.11495610D-03
  0.18388548D-17 -0.44460278D-17  0.28168727D-05  0.13642003D-17 -0.58484463D-18
  0.45826196D-06  0.81278518D-05  0.81278518D-05 -0.16255704D-04  0.28021325D-15
 -0.64900303D-15  0.15548888D-16  0.11456692D-04  0.11456692D-04 -0.22913384D-04
 -0.38069024D-17  0.12170574D-16 -0.39456595D-17  0.31501947D-05  0.31501947D-05
 -0.63003895D-05  0.22451157D-18  0.85235541D-18  0.94321008D-18  0.12827052D-18
 -0.41142026D-18 -0.57263912D-06  0.13132561D-18 -0.41263551D-18  0.85895868D-06
 -0.51613717D-18  0.16468963D-17  0.85895868D-06 -0.29597130D-18 -0.97660905D-01
 -0.18277127D+00 -0.31658728D+00 -0.51780876D+00 -0.80774427D+00 -0.11983688D+01
 -0.16621055D+01 -0.20571546D+01 -0.20818536D+01 -0.14369766D+01 -0.14410961D+00
 -0.54523798D+00 -0.10285912D+01 -0.11159986D+01  0.72219083D+00  0.12397736D+01
  0.48172183D+00  0.27874533D-01 -0.41981924D-02  0.10981326D-02 -0.13342629D-03
  0.29297663D-15  0.42119668D-15  0.55871767D-15  0.65377602D-15  0.64437373D-15
  0.48546782D-15  0.25353647D-15  0.72862316D-16 -0.18714582D-15 -0.26904944D-15
 -0.35689426D-15 -0.41761505D-15 -0.41160911D-15 -0.31010416D-15 -0.16195248D-15
 -0.46542544D-16 -0.83985083D-02 -0.12074082D-01 -0.16016278D-01 -0.18741233D-01
 -0.18471706D-01 -0.13916487D-01 -0.72679114D-02 -0.20886812D-02  0.67061461D-15
 -0.40242395D-15 -0.55013552D-15  0.33012658D-15  0.19308334D-02 -0.11586590D-02
  0.16441034D-16 -0.12786935D-16 -0.55340597D-03 -0.18801495D-16  0.15010505D-16
  0.14227858D-03  0.14087817D-16 -0.97154316D-17 -0.59339464D-04 -0.83566160D-17
 -0.18415231D-17 -0.70585498D-04 -0.81731640D-18  0.73290056D-18  0.60314406D-05
 -0.67228808D-03 -0.67228808D-03  0.13445762D-02 -0.34690742D-15 -0.10959362D-15
  0.29904946D-16 -0.15797153D-03 -0.15797153D-03  0.31594306D-03  0.26647565D-18
 -0.19022028D-16 -0.63370503D-17  0.56880976D-04  0.56880976D-04 -0.11376195D-03
 -0.31558000D-17 -0.14225273D-16  0.13993455D-17 -0.24552500D-04 -0.24552500D-04
  0.49105001D-04  0.18261992D-19  0.56337872D-18  0.76692650D-18 -0.17824320D-05
 -0.17824320D-05  0.35648640D-05  0.42006326D-19  0.59475285D-18  0.29785326D-17
 -0.46915267D-18  0.19511347D-17 -0.17053294D-04 -0.47861337D-18  0.19507219D-17
  0.25579941D-04  0.18860714D-17 -0.78041259D-17  0.25579941D-04 -0.11024808D-17
  0.95198223D-18 -0.33905085D-17  0.28952705D-04  0.10364275D-17 -0.21261886D-17
 -0.43429058D-04 -0.38923742D-17  0.12297714D-16 -0.43429058D-04  0.38206320D-17
  0.16585659D-05  0.16585659D-05  0.44171906D-05 -0.15382054D-18  0.11946567D-17
 -0.11775997D-18 -0.54338900D-18 -0.15601038D-17  0.79028093D-18  0.33001768D-05
 -0.13251572D-04 -0.13251572D-04 -0.74067580D-18  0.10963416D-17  0.81474155D-18
MO    4     MO 0.0        OCC NO =    2.0000000  ORB. ENERGY =   -7.139930
 -0.19855794D-06 -0.37161162D-06 -0.64341539D-06 -0.10501738D-05 -0.16270835D-05
 -0.23690516D-05 -0.31380744D-05 -0.35194909D-05 -0.29202447D-05 -0.13415440D-05
  0.51065907D-05  0.16683478D-04  0.22131245D-04 -0.53494273D-04  0.69559307D-04
 -0.48426081D-04 -0.20401087D-04  0.33902331D-04 -0.58005881D-05  0.12636775D-05
 -0.15642382D-15 -0.21949552D-15 -0.27447835D-15 -0.29436764D-15 -0.25699821D-15
 -0.16371573D-15 -0.71847304D-16 -0.19200366D-16 -0.49982984D-17 -0.70136640D-17
 -0.87705615D-17 -0.94060949D-17 -0.82120084D-17 -0.52313009D-17 -0.22957774D-17
 -0.61352012D-18 -0.49158833D-04 -0.68980182D-04 -0.86259468D-04 -0.92510012D-04
 -0.80766036D-04 -0.51450438D-04 -0.22579231D-04 -0.60340401D-05  0.14039122D-15
  0.27091951D-16  0.42396453D-05 -0.98458701D-16 -0.13818740D-16  0.40054011D-04
  0.23068093D-16  0.41094083D-17  0.23835777D-05  0.54409247D-18 -0.58559232D-18
 -0.42032800D-07  0.29036282D-04  0.29036282D-04 -0.58072565D-04  0.89432484D-16
  0.16625112D-15  0.46842431D-16 -0.13545861D-04 -0.13545861D-04  0.27091723D-04
 -0.71678060D-17  0.80636367D-17 -0.10436566D-17 -0.20188481D-05 -0.20188481D-05
  0.40376961D-05  0.56157581D-18  0.14050179D-17 -0.22383471D-19  0.45420204D-19
  0.28827826D-18  0.28139648D-05  0.46754341D-19  0.28743536D-18 -0.42209472D-05
 -0.18301495D-18 -0.11522702D-17 -0.42209472D-05  0.10715435D-18  0.14929733D-03
  0.27940826D-03  0.48397705D-03  0.79159073D-03  0.12348244D-02  0.18319846D-02
  0.25409136D-02  0.31448377D-02  0.31825958D-02  0.21967519D-02  0.22670195D-03
  0.85772568D-03  0.16180992D-02  0.17651153D-02 -0.11449504D-02 -0.20859352D-02
 -0.68039653D-03 -0.83258582D-04  0.15398938D-03 -0.16322479D-03  0.14949085D-04
  0.26920397D-11  0.38702001D-11  0.51338230D-11  0.60072744D-11  0.59208807D-11
  0.44607607D-11  0.23296406D-11  0.66950134D-12  0.48818933D-11  0.70184345D-11
  0.93099580D-11  0.10893923D-10  0.10737252D-10  0.80893897D-11  0.42246989D-11
  0.12141107D-11 -0.61455698D+01 -0.88351540D+01 -0.11719838D+02 -0.13713811D+02
 -0.13516586D+02 -0.10183326D+02 -0.53182607D+01 -0.15283828D+01  0.81751718D-13
 -0.49057759D-13  0.14488974D-12 -0.86945769D-13 -0.18317709D+00  0.10992133D+00
  0.59679424D-13  0.10828990D-12 -0.13642376D+00  0.40872733D-15  0.77371139D-15
 -0.11385032D-02  0.10833141D-16  0.18634493D-16  0.12436608D-03 -0.74906136D-17
 -0.75770142D-17 -0.92631495D-05  0.28474606D-18  0.31346681D-18 -0.61770560D-06
 -0.29046588D-02 -0.29046588D-02  0.58093177D-02  0.16349445D-16 -0.39092295D-14
 -0.69634448D-14 -0.10492129D-03 -0.10492129D-03  0.20984258D-03 -0.40682372D-17
 -0.17686591D-15 -0.27665520D-15 -0.32120405D-04 -0.32120405D-04  0.64240810D-04
 -0.14142331D-18 -0.69466088D-17 -0.99608205D-17  0.16878691D-04  0.16878691D-04
 -0.33757382D-04 -0.61239985D-18 -0.65891190D-17 -0.86955432D-18 -0.11848301D-05
 -0.11848301D-05  0.23696601D-05 -0.25239177D-18 -0.61508573D-18 -0.14622130D-17
  0.15630563D-18  0.42374274D-19  0.13654249D-04  0.14203732D-18  0.16980440D-19
 -0.20481374D-04 -0.61095420D-18 -0.14410326D-18 -0.20481374D-04 -0.16762857D-17
 -0.23309648D-16 -0.41860971D-16 -0.15036511D-03 -0.23181218D-16 -0.41528553D-16
  0.22554766D-03  0.93110162D-16  0.16711147D-15  0.22554766D-03  0.12554575D-16
  0.12002105D-05  0.12002105D-05  0.31997933D-05 -0.35281922D-19  0.55598401D-17
 -0.67486670D-19  0.10502653D-16 -0.74256627D-17 -0.13938162D-16  0.23981169D-05
 -0.95993800D-05 -0.95993800D-05  0.10306529D-16  0.55974680D-17  0.30830578D-18
MO    5     MO 0.0        OCC NO =    2.0000000  ORB. ENERGY =   -7.138908
 -0.17306411D-16 -0.32389857D-16 -0.56080410D-16 -0.91533681D-16 -0.14181742D-15
 -0.20648773D-15 -0.27351615D-15 -0.30676061D-15 -0.25453001D-15 -0.11692966D-15
 -0.71047840D-17 -0.23211672D-16 -0.30791134D-16  0.21066306D-16 -0.28919754D-16
  0.47400580D-16  0.37176557D-16 -0.44898652D-16  0.80099294D-16 -0.26911125D-16
 -0.26965537D-06 -0.37838320D-06 -0.47316682D-06 -0.50745349D-06 -0.44303320D-06
 -0.28222572D-06 -0.12385589D-06 -0.33099063D-07 -0.25439343D-05 -0.35696749D-05
 -0.44638656D-05 -0.47873268D-05 -0.41795844D-05 -0.26625233D-05 -0.11684590D-05
 -0.31225725D-06 -0.50755974D-16 -0.71221308D-16 -0.89061988D-16 -0.95515609D-16
 -0.83390077D-16 -0.53122033D-16 -0.23312817D-16 -0.62300826D-17 -0.26877432D-08
 -0.25356225D-07  0.30188725D-16 -0.29719368D-07 -0.28037313D-06 -0.16448859D-16
 -0.12295017D-06 -0.11599144D-05  0.22528738D-17  0.24854464D-07  0.23447752D-06
 -0.16052528D-17 -0.11361389D-15  0.47211256D-16  0.66402632D-16  0.27677481D-16
 -0.21699647D-05 -0.20471492D-04  0.20949530D-16 -0.68408505D-17 -0.14108680D-16
 -0.30423977D-17  0.42461650D-06  0.40058409D-05 -0.13937232D-17  0.24382261D-17
 -0.10445030D-17 -0.16134921D-17 -0.11347226D-06 -0.10704996D-05 -0.13887627D-07
 -0.13101616D-06 -0.38446001D-17 -0.13886772D-07 -0.13100809D-06  0.60670816D-17
  0.55549652D-07  0.52405657D-06  0.54667188D-17 -0.30497987D-17 -0.12774651D-15
 -0.23907613D-15 -0.41411574D-15 -0.67732589D-15 -0.10565795D-14 -0.15675406D-14
 -0.21741369D-14 -0.26908855D-14 -0.27231933D-14 -0.18796543D-14 -0.16730970D-15
 -0.63301542D-15 -0.11941833D-14 -0.18579105D-14  0.15287387D-14  0.11720840D-14
  0.94825995D-15 -0.13233541D-15  0.11944573D-16  0.84200620D-16 -0.49012834D-16
  0.64787066D+00  0.93140868D+00  0.12355142D+01  0.14457205D+01  0.14249288D+01
  0.10735340D+01  0.56065511D+00  0.16112329D+00  0.61120253D+01  0.87869288D+01
  0.11655867D+02  0.13638957D+02  0.13442808D+02  0.10127742D+02  0.52892319D+01
  0.15200404D+01  0.51369335D-11  0.73850920D-11  0.97963293D-11  0.11463044D-10
  0.11298188D-10  0.85119960D-11  0.44454058D-11  0.12775383D-11  0.19381827D-01
 -0.11630691D-01  0.18284856D+00 -0.10972418D+00  0.15321679D-12 -0.91942686D-13
  0.14364339D-01  0.13551348D+00  0.11421536D-12  0.10349813D-03  0.97640347D-03
  0.11630307D-14 -0.21245730D-05 -0.20043266D-04 -0.82221363D-16  0.14645681D-05
  0.13816765D-04  0.28311466D-16 -0.74122740D-07 -0.69927546D-06  0.59557181D-17
  0.89528036D-15  0.36359689D-14 -0.45312492D-14 -0.25763845D-16 -0.91960652D-03
 -0.86755869D-02  0.27636978D-15 -0.14928354D-15 -0.12708624D-15 -0.29360050D-16
 -0.35395006D-04 -0.33391722D-03 -0.49350529D-16  0.46630157D-16  0.27203724D-17
 -0.17582902D-17 -0.75121937D-06 -0.70870191D-05 -0.96184891D-17 -0.10651268D-16
  0.20269757D-16 -0.62106594D-17  0.36969135D-06  0.34876759D-05  0.20032594D-17
  0.17259253D-17 -0.37291847D-17  0.16008763D-17 -0.11976249D-06 -0.11298418D-05
  0.15540613D-06  0.14661046D-05 -0.17182995D-16  0.15520673D-06  0.14642235D-05
  0.36711674D-16 -0.62142511D-06 -0.58625373D-05  0.14837312D-16 -0.12210512D-17
 -0.55917395D-05 -0.52752586D-04  0.12480863D-15 -0.55927249D-05 -0.52761882D-04
 -0.36599305D-15  0.22367943D-04  0.21101964D-03 -0.84328437D-17 -0.17800506D-16
 -0.10049870D-15 -0.10034838D-15 -0.22812759D-17  0.14224729D-18  0.11882709D-05
 -0.89504232D-18  0.11210172D-04 -0.15845214D-05 -0.14948408D-04  0.59569742D-15
  0.72947821D-17  0.63928735D-17  0.11214708D-04  0.11887517D-05  0.22583851D-17
MO    6     MO 0.0        OCC NO =    2.0000000  ORB. ENERGY =   -7.138908
  0.34342865D-16  0.64274475D-16  0.11128604D-15  0.18163956D-15  0.28142267D-15
  0.40975454D-15  0.54276583D-15  0.60873616D-15  0.50508969D-15  0.23203537D-15
 -0.21984079D-17 -0.71823048D-17 -0.95275906D-17  0.15320014D-16  0.51744231D-16
 -0.14800641D-16  0.14780876D-16 -0.22995880D-17 -0.94460772D-16  0.20374450D-16
  0.25439343D-05  0.35696749D-05  0.44638656D-05  0.47873268D-05  0.41795844D-05
  0.26625233D-05  0.11684590D-05  0.31225725D-06 -0.26965537D-06 -0.37838320D-06
 -0.47316682D-06 -0.50745349D-06 -0.44303320D-06 -0.28222572D-06 -0.12385589D-06
 -0.33099063D-07 -0.42238110D-16 -0.59268953D-16 -0.74115611D-16 -0.79486185D-16
 -0.69395560D-16 -0.44207097D-16 -0.19400462D-16 -0.51845505D-17  0.25356225D-07
 -0.26877431D-08 -0.34172451D-16  0.28037313D-06 -0.29719368D-07  0.68152885D-17
  0.11599144D-05 -0.12295017D-06 -0.24442639D-16 -0.23447752D-06  0.24854464D-07
 -0.13458575D-17 -0.14854031D-15  0.19990018D-15 -0.51359871D-16  0.93772207D-16
  0.20471492D-04 -0.21699647D-05  0.23605573D-16 -0.20510202D-16 -0.30953710D-17
 -0.23661408D-16 -0.40058409D-05  0.42461650D-06 -0.73194732D-18  0.66523470D-17
 -0.59203997D-17  0.17000436D-17  0.10704996D-05 -0.11347226D-06  0.13101616D-06
 -0.13887627D-07  0.98483116D-18  0.13100809D-06 -0.13886772D-07 -0.15419514D-17
 -0.52405657D-06  0.55549652D-07 -0.14125420D-17  0.64814266D-17  0.49201446D-16
  0.92079945D-16  0.15949629D-15  0.26087143D-15  0.40694059D-15  0.60373678D-15
  0.83736676D-15  0.10363920D-14  0.10488353D-14  0.72394709D-15  0.66055912D-16
  0.24992221D-15  0.47147815D-15  0.66188564D-15 -0.49565817D-15 -0.52727597D-15
 -0.30598656D-15  0.40034169D-16 -0.63560003D-16  0.75842371D-17  0.13087125D-15
 -0.61120253D+01 -0.87869288D+01 -0.11655867D+02 -0.13638957D+02 -0.13442808D+02
 -0.10127742D+02 -0.52892319D+01 -0.15200404D+01  0.64787066D+00  0.93140868D+00
  0.12355142D+01  0.14457205D+01  0.14249288D+01  0.10735340D+01  0.56065511D+00
  0.16112329D+00 -0.21628847D-11 -0.31094626D-11 -0.41247041D-11 -0.48264674D-11
 -0.47570555D-11 -0.35839409D-11 -0.18717198D-11 -0.53790225D-12 -0.18284856D+00
  0.10972418D+00  0.19381827D-01 -0.11630691D-01 -0.64443852D-13  0.38671614D-13
 -0.13551348D+00  0.14364339D-01 -0.47995811D-13 -0.97640347D-03  0.10349813D-03
 -0.35473552D-15  0.20043266D-04 -0.21245730D-05  0.43408058D-16 -0.13816765D-04
  0.14645681D-05 -0.31393781D-16  0.69927546D-06 -0.74122740D-07 -0.16857081D-17
 -0.93275351D-15 -0.11514358D-14  0.20841894D-14 -0.30112546D-16  0.86755869D-02
 -0.91960652D-03 -0.24126202D-15  0.14580282D-15  0.95459201D-16 -0.10003207D-16
  0.33391722D-03 -0.35395006D-04  0.60210831D-16 -0.87631284D-16  0.27420453D-16
  0.40833591D-17  0.70870191D-05 -0.75121937D-06 -0.71310660D-17  0.20221568D-16
 -0.13090502D-16 -0.42922858D-17 -0.34876759D-05  0.36969135D-06  0.15765200D-18
 -0.14385413D-17  0.12808893D-17 -0.16881441D-17  0.11298418D-05 -0.11976249D-06
 -0.14661046D-05  0.15540613D-06  0.72177734D-17 -0.14642235D-05  0.15520673D-06
  0.75087277D-17  0.58625373D-05 -0.62142511D-06 -0.29162048D-16  0.10151295D-17
  0.52752586D-04 -0.55917395D-05 -0.50068306D-16  0.52761882D-04 -0.55927249D-05
 -0.22539032D-15 -0.21101964D-03  0.22367943D-04  0.37559524D-15 -0.18048793D-16
  0.18723062D-16  0.13250112D-16  0.83274711D-18  0.98879923D-18 -0.11210172D-04
 -0.75810155D-19  0.11882709D-05  0.14948408D-04 -0.15845214D-05 -0.93421282D-16
 -0.18917091D-16  0.13920608D-16  0.11887517D-05 -0.11214708D-04 -0.27389672D-17
MO    7     MO 0.0        OCC NO =    2.0000000  ORB. ENERGY =   -2.295353
 -0.56595775D-01 -0.10592197D+00 -0.18339529D+00 -0.29933530D+00 -0.46377419D+00
 -0.67526037D+00 -0.89445807D+00 -0.10031747D+01 -0.83236919D+00 -0.38238573D+00
 -0.10746010D+00 -0.35107733D+00 -0.46571695D+00 -0.31737664D-01  0.51994954D+00
  0.38798719D+00  0.90584857D-01  0.97106952D-03 -0.14980727D-03  0.46783462D-04
  0.48691564D-16  0.68324506D-16  0.85439548D-16  0.91630678D-16  0.79998332D-16
  0.50961387D-16  0.22364609D-16  0.59766848D-17  0.69503912D-17  0.97528607D-17
  0.12195917D-16  0.13079659D-16  0.11419220D-16  0.72743931D-17  0.31923966D-17
  0.85313131D-18 -0.29164077D-01 -0.40923335D-01 -0.51174482D-01 -0.54882693D-01
 -0.47915436D-01 -0.30523600D-01 -0.13395404D-01 -0.35797679D-02  0.17036501D-16
  0.31278036D-18 -0.17753233D-02 -0.93588637D-18  0.94135957D-18  0.29652010D-03
  0.62412860D-18 -0.54103107D-19  0.51121351D-04 -0.22151872D-18  0.16948872D-18
 -0.13384494D-05  0.12859804D-02  0.12859804D-02 -0.25719608D-02 -0.65842903D-15
 -0.83699497D-16  0.19235204D-16  0.11189788D-03  0.11189788D-03 -0.22379576D-03
 -0.32925972D-17  0.62581679D-18 -0.29032529D-17 -0.14009943D-04 -0.14009943D-04
  0.28019887D-04  0.61621610D-18  0.56878766D-19  0.84826997D-18  0.11977585D-18
  0.90034690D-19 -0.17830603D-05  0.10368163D-18  0.92121598D-19  0.26745904D-05
 -0.46300918D-18 -0.36222567D-18  0.26745904D-05  0.18598162D-18  0.47949892D-04
  0.89737676D-04  0.15543913D-03  0.25423555D-03  0.39658910D-03  0.58837931D-03
  0.81606637D-03  0.10100290D-02  0.10221557D-02  0.70553180D-03  0.86696908D-04
  0.32801731D-03  0.61880453D-03  0.47637798D-03 -0.18223334D-03 -0.12967867D-02
 -0.15701073D-03 -0.97122278D-04 -0.27427708D-04  0.46400264D-03 -0.46428426D-03
  0.82516098D-16  0.11862894D-15  0.15736137D-15  0.18413430D-15  0.18148617D-15
  0.13673074D-15  0.71407882D-16  0.20521480D-16  0.99187298D-17  0.14259622D-16
  0.18915399D-16  0.22133601D-16  0.21815286D-16  0.16435523D-16  0.85834826D-17
  0.24667552D-17  0.34838875D-02  0.50085970D-02  0.66439072D-02  0.77742792D-02
  0.76624733D-02  0.57728675D-02  0.30148908D-02  0.86643127D-03 -0.37055603D-16
  0.22236411D-16  0.34588927D-16 -0.20756203D-16 -0.49900621D-03  0.29944479D-03
  0.73970800D-17 -0.90392790D-17 -0.99479591D-03 -0.39429930D-17 -0.17607194D-17
  0.78614378D-03  0.65312653D-17 -0.59405477D-17 -0.97522853D-03 -0.38627931D-17
  0.27514087D-17  0.21448965D-03  0.47638301D-18 -0.55117717D-18  0.10401271D-04
 -0.59024949D-03 -0.59024949D-03  0.11804990D-02  0.11860073D-16  0.32889784D-17
  0.92891089D-17 -0.13778710D-03 -0.13778710D-03  0.27557419D-03  0.58524605D-17
  0.59896760D-18 -0.29448092D-17  0.89228399D-05  0.89228399D-05 -0.17845680D-04
  0.95970113D-18  0.25290830D-18  0.54305764D-17 -0.15546259D-03 -0.15546259D-03
  0.31092519D-03  0.98735323D-18 -0.86424929D-18 -0.28877077D-17  0.78141177D-05
  0.78141177D-05 -0.15628235D-04 -0.11569955D-18  0.10190867D-18  0.94638777D-18
  0.11917446D-18 -0.21183996D-18 -0.23185478D-03  0.15298966D-18 -0.19595382D-18