 Molden2AIM, Version 4.0.0 (06/02/2016)           Time: Wed Jun 27 19:55:49 2018
GAUSSIAN             14 MOL ORBITALS    271 PRIMITIVES        2 NUCLEI
  Na   1    (CENTRE  1)   0.00000000  0.00000000 -2.71727499  CHARGE = 11.0
  Cl   2    (CENTRE  2)   0.00000000  0.00000000  1.74907381  CHARGE = 17.0
CENTRE ASSIGNMENTS    1  1  1  1  1  1  1  1  1  1  1  1  1  1  1  1  1  1  1  1
CENTRE ASSIGNMENTS    1  1  1  1  1  1  1  1  1  1  1  1  1  1  1  1  1  1  1  1
CENTRE ASSIGNMENTS    1  1  1  1  1  1  1  1  1  1  1  1  1  1  1  1  1  1  1  1
CENTRE ASSIGNMENTS    1  1  1  1  1  1  1  1  1  1  1  1  1  1  1  1  1  1  1  1
CENTRE ASSIGNMENTS    1  1  1  1  1  1  1  1  1  1  1  1  1  1  1  1  1  1  1  1
CENTRE ASSIGNMENTS    1  1  1  1  1  1  1  1  1  1  1  1  1  1  1  1  1  1  1  1
CENTRE ASSIGNMENTS    1  1  1  1  1  1  1  1  1  1  1  1  1  1  1  1  1  1  1  1
CENTRE ASSIGNMENTS    2  2  2  2  2  2  2  2  2  2  2  2  2  2  2  2  2  2  2  2
CENTRE ASSIGNMENTS    2  2  2  2  2  2  2  2  2  2  2  2  2  2  2  2  2  2  2  2
CENTRE ASSIGNMENTS    2  2  2  2  2  2  2  2  2  2  2  2  2  2  2  2  2  2  2  2
CENTRE ASSIGNMENTS    2  2  2  2  2  2  2  2  2  2  2  2  2  2  2  2  2  2  2  2
CENTRE ASSIGNMENTS    2  2  2  2  2  2  2  2  2  2  2  2  2  2  2  2  2  2  2  2
CENTRE ASSIGNMENTS    2  2  2  2  2  2  2  2  2  2  2  2  2  2  2  2  2  2  2  2
CENTRE ASSIGNMENTS    2  2  2  2  2  2  2  2  2  2  2
TYPE ASSIGNMENTS      1  1  1  1  1  1  1  1  1  1  1  1  1  1  1  1  1  1  1  1
TYPE ASSIGNMENTS      1  1  1  1  1  1  1  1  1  1  1  1  1  1  1  1  1  1  1  1
TYPE ASSIGNMENTS      1  1  1  1  1  2  2  2  2  2  2  2  2  3  3  3  3  3  3  3
TYPE ASSIGNMENTS      3  4  4  4  4  4  4  4  4  2  2  2  2  2  2  2  2  3  3  3
TYPE ASSIGNMENTS      3  3  3  3  3  4  4  4  4  4  4  4  4  2  3  4  2  3  4  2
TYPE ASSIGNMENTS      3  4  5  6  7  8  9 10  5  6  7  8  9 10  5  6  7  8  9 10
TYPE ASSIGNMENTS     11 12 13 17 14 15 18 19 16 20 11 12 13 17 14 15 18 19 16 20
TYPE ASSIGNMENTS      1  1  1  1  1  1  1  1  1  1  1  1  1  1  1  1  1  1  1  1
TYPE ASSIGNMENTS      1  1  1  1  1  1  1  1  1  1  1  1  1  1  1  1  1  1  1  1
TYPE ASSIGNMENTS      1  1  2  2  2  2  2  2  2  3  3  3  3  3  3  3  4  4  4  4
TYPE ASSIGNMENTS      4  4  4  2  2  2  2  2  2  2  3  3  3  3  3  3  3  4  4  4
TYPE ASSIGNMENTS      4  4  4  4  2  3  4  2  3  4  2  3  4  5  6  7  8  9 10  5
TYPE ASSIGNMENTS      6  7  8  9 10  5  6  7  8  9 10 11 12 13 17 14 15 18 19 16
TYPE ASSIGNMENTS     20 11 12 13 17 14 15 18 19 16 20
EXPONENTS  0.4230000D+06 0.6334000D+05 0.1441000D+05 0.4077000D+04 0.1328000D+04
EXPONENTS  0.4786000D+03 0.1862000D+03 0.7692000D+02 0.3332000D+02 0.1500000D+02
EXPONENTS  0.6869000D+01 0.2683000D+01 0.1109000D+01 0.6015000D-01 0.4230000D+06
EXPONENTS  0.6334000D+05 0.1441000D+05 0.4077000D+04 0.1328000D+04 0.4786000D+03
EXPONENTS  0.1862000D+03 0.7692000D+02 0.3332000D+02 0.1500000D+02 0.6869000D+01
EXPONENTS  0.2683000D+01 0.1109000D+01 0.6015000D-01 0.4230000D+06 0.6334000D+05
EXPONENTS  0.1441000D+05 0.4077000D+04 0.1328000D+04 0.4786000D+03 0.1862000D+03
EXPONENTS  0.7692000D+02 0.3332000D+02 0.1500000D+02 0.6869000D+01 0.2683000D+01
EXPONENTS  0.1109000D+01 0.6015000D-01 0.4540000D+00 0.2382000D-01 0.6650000D-02
EXPONENTS  0.2433000D+03 0.5739000D+02 0.1810000D+02 0.6575000D+01 0.2521000D+01
EXPONENTS  0.9607000D+00 0.3512000D+00 0.9827000D-01 0.2433000D+03 0.5739000D+02
EXPONENTS  0.1810000D+02 0.6575000D+01 0.2521000D+01 0.9607000D+00 0.3512000D+00
EXPONENTS  0.9827000D-01 0.2433000D+03 0.5739000D+02 0.1810000D+02 0.6575000D+01
EXPONENTS  0.2521000D+01 0.9607000D+00 0.3512000D+00 0.9827000D-01 0.2433000D+03
EXPONENTS  0.5739000D+02 0.1810000D+02 0.6575000D+01 0.2521000D+01 0.9607000D+00
EXPONENTS  0.3512000D+00 0.9827000D-01 0.2433000D+03 0.5739000D+02 0.1810000D+02
EXPONENTS  0.6575000D+01 0.2521000D+01 0.9607000D+00 0.3512000D+00 0.9827000D-01
EXPONENTS  0.2433000D+03 0.5739000D+02 0.1810000D+02 0.6575000D+01 0.2521000D+01
EXPONENTS  0.9607000D+00 0.3512000D+00 0.9827000D-01 0.3734000D-01 0.3734000D-01
EXPONENTS  0.3734000D-01 0.1500000D-01 0.1500000D-01 0.1500000D-01 0.7000000D-02
EXPONENTS  0.7000000D-02 0.7000000D-02 0.1367000D+00 0.1367000D+00 0.1367000D+00
EXPONENTS  0.1367000D+00 0.1367000D+00 0.1367000D+00 0.6360000D-01 0.6360000D-01
EXPONENTS  0.6360000D-01 0.6360000D-01 0.6360000D-01 0.6360000D-01 0.2230000D-01
EXPONENTS  0.2230000D-01 0.2230000D-01 0.2230000D-01 0.2230000D-01 0.2230000D-01
EXPONENTS  0.1397000D+00 0.1397000D+00 0.1397000D+00 0.1397000D+00 0.1397000D+00
EXPONENTS  0.1397000D+00 0.1397000D+00 0.1397000D+00 0.1397000D+00 0.1397000D+00
EXPONENTS  0.7140000D-01 0.7140000D-01 0.7140000D-01 0.7140000D-01 0.7140000D-01
EXPONENTS  0.7140000D-01 0.7140000D-01 0.7140000D-01 0.7140000D-01 0.7140000D-01
EXPONENTS  0.4561000D+06 0.6833000D+05 0.1555000D+05 0.4405000D+04 0.1439000D+04
EXPONENTS  0.5204000D+03 0.2031000D+03 0.8396000D+02 0.3620000D+02 0.1583000D+02
EXPONENTS  0.6334000D+01 0.2694000D+01 0.4313000D+00 0.4561000D+06 0.6833000D+05
EXPONENTS  0.1555000D+05 0.4405000D+04 0.1439000D+04 0.5204000D+03 0.2031000D+03
EXPONENTS  0.8396000D+02 0.3620000D+02 0.1583000D+02 0.6334000D+01 0.2694000D+01
EXPONENTS  0.4313000D+00 0.4561000D+06 0.6833000D+05 0.1555000D+05 0.4405000D+04
EXPONENTS  0.1439000D+04 0.5204000D+03 0.2031000D+03 0.8396000D+02 0.3620000D+02
EXPONENTS  0.1583000D+02 0.6334000D+01 0.2694000D+01 0.4313000D+00 0.9768000D+00
EXPONENTS  0.1625000D+00 0.5910000D-01 0.6633000D+03 0.1568000D+03 0.4998000D+02
EXPONENTS  0.1842000D+02 0.7240000D+01 0.2922000D+01 0.3818000D+00 0.6633000D+03
EXPONENTS  0.1568000D+03 0.4998000D+02 0.1842000D+02 0.7240000D+01 0.2922000D+01
EXPONENTS  0.3818000D+00 0.6633000D+03 0.1568000D+03 0.4998000D+02 0.1842000D+02
EXPONENTS  0.7240000D+01 0.2922000D+01 0.3818000D+00 0.6633000D+03 0.1568000D+03
EXPONENTS  0.4998000D+02 0.1842000D+02 0.7240000D+01 0.2922000D+01 0.3818000D+00
EXPONENTS  0.6633000D+03 0.1568000D+03 0.4998000D+02 0.1842000D+02 0.7240000D+01
EXPONENTS  0.2922000D+01 0.3818000D+00 0.6633000D+03 0.1568000D+03 0.4998000D+02
EXPONENTS  0.1842000D+02 0.7240000D+01 0.2922000D+01 0.3818000D+00 0.1022000D+01
EXPONENTS  0.1022000D+01 0.1022000D+01 0.1301000D+00 0.1301000D+00 0.1301000D+00
EXPONENTS  0.4190000D-01 0.4190000D-01 0.4190000D-01 0.1046000D+01 0.1046000D+01
EXPONENTS  0.1046000D+01 0.1046000D+01 0.1046000D+01 0.1046000D+01 0.3440000D+00
EXPONENTS  0.3440000D+00 0.3440000D+00 0.3440000D+00 0.3440000D+00 0.3440000D+00
EXPONENTS  0.1350000D+00 0.1350000D+00 0.1350000D+00 0.1350000D+00 0.1350000D+00
EXPONENTS  0.1350000D+00 0.7060000D+00 0.7060000D+00 0.7060000D+00 0.7060000D+00
EXPONENTS  0.7060000D+00 0.7060000D+00 0.7060000D+00 0.7060000D+00 0.7060000D+00
EXPONENTS  0.7060000D+00 0.3120000D+00 0.3120000D+00 0.3120000D+00 0.3120000D+00
EXPONENTS  0.3120000D+00 0.3120000D+00 0.3120000D+00 0.3120000D+00 0.3120000D+00
EXPONENTS  0.3120000D+00
MO    1     MO 0.0        OCC NO =    2.0000000  ORB. ENERGY = -101.611142
  0.31577373D-04  0.59098728D-04  0.10236977D-03  0.16735153D-03  0.25989041D-03
  0.38054170D-03  0.50999872D-03  0.58514675D-03  0.50971268D-03  0.26075411D-03
  0.50372729D-04  0.15617801D-05  0.68118770D-07 -0.67963322D-10 -0.98471301D-04
 -0.18474423D-03 -0.31915608D-03 -0.52510930D-03 -0.81579379D-03 -0.12214586D-02
 -0.16837875D-02 -0.21205873D-02 -0.21757600D-02 -0.16680577D-02 -0.25089065D-03
  0.95440611D-03  0.81731173D-03  0.66560446D-06  0.73312142D-04  0.13728037D-03
  0.23782767D-03  0.38991274D-03  0.60878617D-03  0.90709751D-03  0.12621158D-02
  0.15826402D-02  0.16628596D-02  0.12777955D-02  0.21596648D-03 -0.85890463D-03
 -0.83369173D-03  0.50719772D-03 -0.14013317D-03  0.51132974D-05 -0.25874052D-06
 -0.51701680D-17 -0.65903228D-17 -0.69299318D-17 -0.55314079D-17 -0.28832137D-17
 -0.90062442D-18 -0.10399971D-18 -0.30780882D-21 -0.71675626D-16 -0.91363668D-16
 -0.96071771D-16 -0.76683606D-16 -0.39970876D-16 -0.12485633D-16 -0.14417799D-17
 -0.42672481D-20  0.72658049D-02  0.92615947D-02  0.97388582D-02  0.77734671D-02
  0.40518738D-02  0.12656767D-02  0.14615417D-03  0.43257373D-06 -0.78551698D-17
 -0.10118743D-16 -0.10641347D-16 -0.87147357D-17 -0.44875733D-17 -0.15738352D-17
 -0.19093434D-18  0.36948671D-18  0.79955331D-16  0.10299554D-15  0.10831496D-15
  0.88704584D-16  0.45677612D-16  0.16019579D-16  0.19434613D-17 -0.37608903D-17
 -0.68651812D-02 -0.88434758D-02 -0.93002155D-02 -0.76164158D-02 -0.39220035D-02
 -0.13754844D-02 -0.16687085D-03  0.32292022D-03 -0.35668209D-17  0.70967758D-17
  0.36131727D-04 -0.11563691D-17 -0.48466051D-17 -0.29737065D-05  0.89796573D-18
  0.20814267D-17  0.26660835D-06 -0.39775393D-04 -0.39775393D-04  0.79550785D-04
 -0.22984436D-16  0.16588767D-17 -0.75475054D-17 -0.75676489D-05 -0.75676489D-05
  0.15135298D-04  0.77089646D-17 -0.32714006D-17  0.36326788D-17  0.80264131D-07
  0.80264131D-07 -0.16052826D-06 -0.29154779D-18  0.10751601D-18  0.17510864D-18
  0.14230254D-18  0.71271140D-19  0.10260202D-04  0.14206290D-18  0.77420127D-19
 -0.15390303D-04 -0.56897052D-18 -0.29123355D-18 -0.15390303D-04  0.14618235D-17
 -0.63131615D-19 -0.73812270D-19  0.88585704D-06 -0.63212877D-19 -0.71804689D-19
 -0.13287856D-05  0.25260772D-18  0.29324150D-18 -0.13287856D-05 -0.80260324D-18
  0.61710710D+00  0.11546097D+01  0.19949099D+01  0.32339815D+01  0.49110590D+01
  0.68257944D+01  0.81148849D+01  0.72281153D+01  0.35882529D+01  0.57812503D+00
  0.88757591D-02  0.15860894D-02  0.59269688D-04 -0.76852777D-03 -0.14354995D-02
 -0.24913791D-02 -0.40424957D-02 -0.62573033D-02 -0.89567611D-02 -0.11691371D-01
 -0.12459107D-01 -0.93134352D-02 -0.49163970D-03  0.63173261D-02  0.37532175D-02
 -0.14071752D-04  0.31585059D-03  0.58948962D-03  0.10244811D-02  0.16603824D-02
  0.25788339D-02  0.36942540D-02  0.48779181D-02  0.52744764D-02  0.41352579D-02
  0.20576907D-03 -0.35449615D-02 -0.36696924D-02  0.16605877D-02 -0.23360524D-02
 -0.92696525D-03 -0.35568860D-03  0.38713159D-15  0.50993918D-15  0.56258238D-15
  0.46728933D-15  0.24818872D-15  0.64015109D-16 -0.65805356D-19 -0.91130132D-16
 -0.12003884D-15 -0.13243096D-15 -0.10999913D-15 -0.58423211D-16 -0.15069050D-16
  0.15490472D-19 -0.26124504D-02 -0.34411834D-02 -0.37964315D-02 -0.31533727D-02
 -0.16748329D-02 -0.43198825D-03  0.44406924D-06 -0.25165962D-16 -0.33041063D-16
 -0.37619681D-16 -0.31854801D-16 -0.18247656D-16 -0.41507087D-17  0.19427601D-17
 -0.56244771D-16 -0.73845261D-16 -0.84078262D-16 -0.71194019D-16 -0.40782675D-16
 -0.92766438D-17  0.43419798D-17  0.21114379D-02  0.27721632D-02  0.31563117D-02
  0.26726351D-02  0.15309883D-02  0.34824672D-03 -0.16299863D-03  0.11113553D-16
  0.11350450D-16  0.14030574D-03  0.15548989D-17 -0.12776103D-17  0.41532697D-03
  0.27307179D-17 -0.30798948D-17  0.23721619D-04 -0.53550335D-04 -0.53550335D-04
  0.10710067D-03  0.11185040D-16  0.17276167D-16  0.50301680D-17  0.24508374D-04
  0.24508374D-04 -0.49016747D-04  0.20030221D-17  0.84129013D-17  0.32515379D-17
  0.25553377D-04  0.25553377D-04 -0.51106753D-04  0.11081420D-17 -0.27278630D-17
 -0.68988249D-18  0.38098795D-17  0.77048938D-17 -0.41357499D-04  0.32801619D-17
  0.21301581D-16  0.62036249D-04 -0.14709800D-16 -0.44416262D-16  0.62036249D-04
 -0.66410722D-18 -0.50359807D-18 -0.11426389D-17  0.23660835D-04 -0.45081384D-18
 -0.24954951D-17 -0.35491252D-04  0.19616081D-17  0.59234116D-17 -0.35491252D-04
  0.16479464D-18
MO    2     MO 0.0        OCC NO =    2.0000000  ORB. ENERGY =  -38.617231
  0.21367751D+00  0.39990879D+00  0.69271490D+00  0.11324330D+01  0.17586243D+01
  0.25750465D+01  0.34510552D+01  0.39595662D+01  0.34491196D+01  0.17644688D+01
  0.34086177D+00  0.10568241D-01  0.46094554D-03 -0.45989365D-06 -0.31519853D-03
 -0.59135108D-03 -0.10215924D-02 -0.16808317D-02 -0.26112888D-02 -0.39097885D-02
 -0.53896651D-02 -0.67878256D-02 -0.69644287D-02 -0.53393155D-02 -0.80308034D-03
  0.30549755D-02  0.26161476D-02  0.21305451D-05  0.10522989D-03  0.19704782D-03
  0.34137018D-03  0.55966818D-03  0.87383205D-03  0.13020185D-02  0.18116004D-02
  0.22716707D-02  0.23868150D-02  0.18341065D-02  0.30999132D-03 -0.12328440D-02
 -0.11966542D-02  0.72801525D-03 -0.12311041D-02  0.55931837D-04 -0.31894937D-05
 -0.43458103D-18 -0.55395285D-18 -0.58249885D-18 -0.46494523D-18 -0.24234995D-18
 -0.75702432D-19 -0.87417470D-20 -0.25873023D-22 -0.89182335D-19 -0.11367917D-18
 -0.11953722D-18 -0.95413510D-19 -0.49733728D-19 -0.15535238D-19 -0.17939334D-20
 -0.53095198D-23  0.72461961D-02  0.92365996D-02  0.97125751D-02  0.77524882D-02
  0.40409387D-02  0.12622610D-02  0.14575973D-03  0.43140630D-06  0.32252626D-18
  0.41546655D-18  0.43692418D-18  0.35781926D-18  0.18425575D-18  0.64620266D-19
  0.78395934D-20 -0.15170794D-19 -0.13215198D-18 -0.17023335D-18 -0.17902541D-18
 -0.14661294D-18 -0.75496991D-19 -0.26477522D-19 -0.32121967D-20  0.62160845D-20
 -0.74049826D-02 -0.95388282D-02 -0.10031481D-01 -0.82152859D-02 -0.42303861D-02
 -0.14836372D-02 -0.17999171D-03  0.34831107D-03 -0.55082148D-20 -0.37176706D-20
  0.94257084D-04  0.11604242D-20  0.24766594D-20 -0.83473516D-05 -0.14703438D-21
 -0.86852740D-21  0.82021855D-06 -0.39156981D-04 -0.39156981D-04  0.78313963D-04
 -0.25552674D-19 -0.17450881D-19  0.94786902D-20 -0.14021479D-04 -0.14021479D-04
  0.28042957D-04  0.44839580D-20 -0.42923148D-20 -0.27752485D-20  0.58351504D-07
  0.58351504D-07 -0.11670301D-06  0.29339903D-21  0.29289708D-21 -0.17011799D-21
  0.13453351D-20 -0.10518111D-20  0.13754960D-04  0.13880187D-20 -0.10680442D-20
 -0.20632440D-04 -0.54240240D-20  0.42234775D-20 -0.20632440D-04 -0.29913674D-21
  0.10303210D-21  0.24341355D-21  0.12929957D-05  0.95103668D-22  0.25609057D-21
 -0.19394936D-05 -0.40419997D-21 -0.98633121D-21 -0.19394936D-05 -0.46067862D-21
  0.85965734D-04  0.16084222D-03  0.27789972D-03  0.45050786D-03  0.68413213D-03
  0.95086321D-03  0.11304392D-02  0.10069083D-02  0.49985942D-03  0.80535361D-04
  0.12364323D-05  0.22094924D-06  0.82565283D-08 -0.15185723D-03 -0.28364750D-03
 -0.49228399D-03 -0.79877686D-03 -0.12364117D-02 -0.17698110D-02 -0.23101562D-02
 -0.24618570D-02 -0.18402881D-02 -0.97145537D-04  0.12482719D-02  0.74161694D-03
 -0.27805075D-05  0.81477451D-04  0.15206592D-03  0.26427719D-03  0.42831558D-03
  0.66524115D-03  0.95297715D-03  0.12583175D-02  0.13606145D-02  0.10667394D-02
  0.53080600D-04 -0.91446538D-03 -0.94664120D-03  0.42836853D-03 -0.13746043D-03
 -0.55488022D-03 -0.72621800D-03  0.61196247D-15  0.80609191D-15  0.88930822D-15
  0.73867270D-15  0.39232701D-15  0.10119258D-15 -0.10402253D-18  0.14790157D-14
  0.19481957D-14  0.21493162D-14  0.17852542D-14  0.94819186D-15  0.24456634D-15
 -0.25140588D-18 -0.12944133D-02 -0.17050328D-02 -0.18810506D-02 -0.15624287D-02
 -0.82984384D-03 -0.21404093D-03  0.22002680D-06  0.14261829D-18  0.18724736D-18
  0.21319489D-18  0.18052468D-18  0.10341149D-18  0.23522526D-19 -0.11009837D-19
 -0.21102987D-17 -0.27706675D-17 -0.31546087D-17 -0.26711931D-17 -0.15301623D-17
 -0.34805883D-18  0.16291069D-18  0.11432997D-02  0.15010687D-02  0.17090772D-02
  0.14471763D-02  0.82899833D-03  0.18856836D-03 -0.88260369D-04  0.52080607D-17
  0.12669826D-16  0.49270556D-04  0.58457497D-19  0.78509513D-19  0.44611376D-03
  0.31862372D-20  0.25274465D-20  0.50992900D-04 -0.43855533D-04 -0.43855533D-04
  0.87711067D-04 -0.63180466D-20 -0.91240112D-19 -0.13141826D-18  0.33979944D-04
  0.33979944D-04 -0.67959887D-04 -0.33360856D-20  0.22651997D-19  0.13185544D-19
  0.21072722D-04  0.21072722D-04 -0.42145445D-04  0.16475794D-21 -0.29896656D-19
 -0.76828992D-20  0.16052912D-19 -0.79970249D-20  0.50486119D-04  0.16262969D-19
 -0.35265486D-19 -0.75729178D-04 -0.64421704D-19  0.59256560D-19 -0.75729178D-04
 -0.72967238D-21 -0.68510231D-20  0.19480044D-20 -0.43278607D-05 -0.65564671D-20
  0.47592250D-20  0.64917911D-05  0.27109536D-19 -0.10603238D-19  0.64917911D-05
  0.28552646D-20
MO    3     MO 0.0        OCC NO =    2.0000000  ORB. ENERGY =   -9.414207
 -0.75885199D-04 -0.14202317D-03 -0.24601002D-03 -0.40217102D-03 -0.62455592D-03
 -0.91449921D-03 -0.12256040D-02 -0.14061961D-02 -0.12249166D-02 -0.62663153D-03
 -0.12105328D-03 -0.37531937D-05 -0.16369970D-06  0.16332613D-09  0.24090866D-03
  0.45197417D-03  0.78081089D-03  0.12846726D-02  0.19958281D-02  0.29882814D-02
  0.41193625D-02  0.51879873D-02  0.53229664D-02  0.40808799D-02  0.61380047D-03
 -0.23349412D-02 -0.19995417D-02 -0.16283920D-05 -0.18035196D-03 -0.33771736D-03
 -0.58506935D-03 -0.95920709D-03 -0.14976479D-02 -0.22315105D-02 -0.31048754D-02
 -0.38933831D-02 -0.40907273D-02 -0.31434483D-02 -0.53128959D-03  0.21129533D-02
  0.20509282D-02 -0.12477347D-02  0.31583177D-03  0.35834538D-05 -0.13200150D-06
 -0.50817682D-16 -0.64776411D-16 -0.68114434D-16 -0.54368316D-16 -0.28339164D-16
 -0.88522550D-17 -0.10222152D-17 -0.30254589D-20 -0.99463241D-15 -0.12678406D-14
 -0.13331742D-14 -0.10641274D-14 -0.55467014D-15 -0.17326134D-15 -0.20007373D-16
 -0.59215992D-19 -0.18212806D-01 -0.23215546D-01 -0.24411877D-01 -0.19485336D-01
 -0.10156616D-01 -0.31726044D-02 -0.36635686D-03 -0.10843095D-05  0.47272217D-16
  0.60894344D-16  0.64039359D-16  0.52445063D-16  0.27006104D-16  0.94713010D-17
  0.11490381D-17 -0.22235618D-17  0.44591108D-16  0.57440637D-16  0.60407279D-16
  0.49470569D-16  0.25474416D-16  0.89341231D-17  0.10838688D-17 -0.20974494D-17
  0.17111136D-01  0.22041940D-01  0.23180342D-01  0.18983552D-01  0.97754061D-02
  0.34283291D-02  0.41591761D-03 -0.80486321D-03  0.36967377D-17  0.22180027D-18
 -0.83862878D-04 -0.85962654D-19 -0.31771665D-17  0.77741925D-05  0.35346854D-18
  0.69424291D-18 -0.74667863D-06  0.97158298D-04  0.97158298D-04 -0.19431660D-03
  0.22028238D-18 -0.13177292D-17 -0.67002236D-17  0.19254074D-04  0.19254074D-04
 -0.38508148D-04  0.47044694D-18  0.14442419D-17 -0.75512577D-18 -0.27017932D-06
 -0.27017932D-06  0.54035863D-06 -0.15876791D-18  0.16549549D-18 -0.34709543D-18
 -0.13039010D-19  0.12189122D-18 -0.23300730D-04 -0.13294735D-19  0.12807828D-18
  0.34951095D-04  0.52411765D-19 -0.49375195D-18  0.34951095D-04  0.11630818D-18
 -0.24037846D-19  0.15084261D-18 -0.26529601D-05 -0.24109109D-19  0.15308479D-18
  0.39794401D-05  0.96222647D-19 -0.60561262D-18  0.39794401D-05  0.59679755D-19
 -0.27902085D-02 -0.52204907D-02 -0.90198515D-02 -0.14622231D-01 -0.22205025D-01
 -0.30862373D-01 -0.36690909D-01 -0.32681440D-01 -0.16224045D-01 -0.26139537D-02
 -0.40131151D-04 -0.71713973D-05 -0.26798393D-06 -0.16866221D+00 -0.31503679D+00
 -0.54676163D+00 -0.88717193D+00 -0.13732368D+01 -0.19656637D+01 -0.25658051D+01
 -0.27342935D+01 -0.20439399D+01 -0.10789596D+00  0.13864095D+01  0.82368652D+00
 -0.30882069D-02 -0.10645084D-02 -0.19867516D-02 -0.34527995D-02 -0.55959722D-02
 -0.86914209D-02 -0.12450711D-01 -0.16440004D-01 -0.17776521D-01 -0.13937023D-01
 -0.69350165D-03  0.11947552D-01  0.12367932D-01 -0.55966640D-02  0.71458157D-01
  0.29470438D-02  0.76901231D-03  0.18516494D-14  0.24390378D-14  0.26908301D-14
  0.22350437D-14  0.11870860D-14  0.30618410D-15 -0.31474685D-18 -0.21072036D-15
 -0.27756600D-15 -0.30622032D-15 -0.25435118D-15 -0.13509209D-15 -0.34844191D-16
  0.35818643D-19 -0.13114165D-01 -0.17274298D-01 -0.19057598D-01 -0.15829526D-01
 -0.84074456D-02 -0.21685255D-02  0.22291705D-05  0.76360813D-16  0.10025615D-15
  0.11414900D-15  0.96656686D-16  0.55368671D-16  0.12594452D-16 -0.58948966D-17
 -0.55522416D-16 -0.72896862D-16 -0.82998441D-16 -0.70279671D-16 -0.40258901D-16
 -0.91575033D-17  0.42862155D-17 -0.57975625D-02 -0.76117746D-02 -0.86665654D-02
 -0.73384916D-02 -0.42037705D-02 -0.95621195D-03  0.44755982D-03  0.44664664D-17
 -0.18413359D-17 -0.67469656D-03 -0.21215016D-17  0.20935554D-17 -0.10407338D-02
 -0.47280852D-17  0.76231884D-17 -0.53427318D-04  0.35820414D-04  0.35820414D-04
 -0.71640829D-04  0.14182892D-17 -0.18625883D-16 -0.30757238D-16 -0.49844029D-04
 -0.49844029D-04  0.99688058D-04  0.35766722D-18 -0.33092944D-17 -0.19492856D-17
 -0.65101506D-04 -0.65101506D-04  0.13020301D-03  0.25426942D-18 -0.68757854D-18
 -0.79596201D-17  0.25956118D-17  0.40989462D-17  0.95796616D-04  0.21091836D-17
  0.18137278D-16 -0.14369492D-03 -0.98960189D-17 -0.30434117D-16 -0.14369492D-03
  0.10122762D-17 -0.35970950D-18 -0.69165399D-18 -0.59416492D-04 -0.30844643D-18
 -0.20764679D-17  0.89124737D-04  0.13875749D-17  0.41514298D-17  0.89124737D-04
 -0.64412198D-18
MO    4     MO 0.0        OCC NO =    2.0000000  ORB. ENERGY =   -7.144569
 -0.21687087D-04 -0.40588533D-04 -0.70306737D-04 -0.11493569D-03 -0.17849065D-03
 -0.26135299D-03 -0.35026304D-03 -0.40187410D-03 -0.35006659D-03 -0.17908383D-03
 -0.34595587D-04 -0.10726181D-05 -0.46783426D-07  0.46676666D-10  0.78836814D-04
  0.14790752D-03  0.25551860D-03  0.42040619D-03  0.65313023D-03  0.97790832D-03
  0.13480520D-02  0.16977571D-02  0.17419287D-02  0.13354587D-02  0.20086481D-03
 -0.76410423D-03 -0.65434550D-03 -0.53288760D-06 -0.61143750D-04 -0.11449449D-03
 -0.19835290D-03 -0.32519480D-03 -0.50773949D-03 -0.75653694D-03 -0.10526291D-02
 -0.13199527D-02 -0.13868572D-02 -0.10657063D-02 -0.18012024D-03  0.71634315D-03
  0.69531510D-03 -0.42301275D-03 -0.48873466D-04 -0.75833235D-04  0.31134574D-05
  0.61666530D-16  0.78605249D-16  0.82655892D-16  0.65975174D-16  0.34389170D-16
  0.10742085D-16  0.12404435D-17  0.36713511D-20 -0.36010848D-15 -0.45902400D-15
 -0.48267817D-15 -0.38526929D-15 -0.20081934D-15 -0.62729586D-16 -0.72437061D-17
 -0.21439258D-19 -0.47861587D-02 -0.61008329D-02 -0.64152178D-02 -0.51205679D-02
 -0.26690658D-02 -0.83373141D-03 -0.96275230D-04 -0.28494661D-06 -0.61154433D-16
 -0.78776908D-16 -0.82845505D-16 -0.67846365D-16 -0.34936864D-16 -0.12252695D-16
 -0.14864709D-17  0.28765451D-17  0.37263266D-15  0.48001179D-15  0.50480300D-15
  0.41340865D-15  0.21288099D-15  0.74659416D-16  0.90575218D-17 -0.17527669D-16
  0.41911237D-02  0.53988525D-02  0.56776876D-02  0.46497448D-02  0.23943435D-02
  0.83971933D-03  0.10187297D-03 -0.19713953D-03  0.86321687D-17  0.40482852D-17
 -0.68546188D-04 -0.28811944D-17 -0.28142852D-17  0.24745619D-05  0.45618638D-18
  0.10061211D-18 -0.23114204D-06  0.61941566D-06  0.61941566D-06 -0.12388313D-05
 -0.21687327D-17 -0.20713234D-18 -0.47161708D-17  0.10103064D-04  0.10103064D-04
 -0.20206128D-04  0.13223598D-17 -0.11805980D-17 -0.98201471D-18  0.25494943D-06
  0.25494943D-06 -0.50989887D-06 -0.15437292D-18  0.12623980D-18  0.22753095D-18
  0.22188475D-19 -0.20913906D-18  0.77581195D-05  0.21657326D-19 -0.20272877D-18
 -0.11637179D-04 -0.88222751D-19  0.83014595D-18 -0.11637179D-04 -0.72730231D-20
  0.79314753D-19  0.21372122D-18 -0.19061745D-05  0.79351793D-19  0.21601017D-18
  0.28592618D-05 -0.31729605D-18 -0.85717382D-18  0.28592618D-05  0.96795523D-19
 -0.23131260D-04 -0.43278677D-04 -0.74775966D-04 -0.12122056D-03 -0.18408309D-03
 -0.25585385D-03 -0.30417332D-03 -0.27093420D-03 -0.13449985D-03 -0.21670081D-04
 -0.33269346D-06 -0.59451994D-07 -0.22216283D-08  0.32902354D-03  0.61456873D-03
  0.10666138D-02  0.17306808D-02  0.26788883D-02  0.38345852D-02  0.50053315D-02
  0.53340159D-02  0.39872852D-02  0.21048170D-03 -0.27045854D-02 -0.16068345D-02
  0.60244246D-05 -0.55441964D-05 -0.10347444D-04 -0.17982946D-04 -0.29145066D-04
 -0.45266850D-04 -0.64846070D-04 -0.85623192D-04 -0.92584070D-04 -0.72587111D-04
 -0.36119106D-05  0.62225506D-04  0.64414935D-04 -0.29148669D-04 -0.21024668D-04
 -0.10686903D-03  0.67522957D-03  0.11728131D-11  0.15448580D-11  0.17043403D-11
  0.14156505D-11  0.75188639D-12  0.19393343D-12 -0.19935698D-15  0.19522062D-11
  0.25714937D-11  0.28369600D-11  0.23564214D-11  0.12515526D-11  0.32281193D-12
 -0.33183969D-15 -0.11485687D+02 -0.15129227D+02 -0.16691082D+02 -0.13863862D+02
 -0.73634338D+01 -0.18992444D+01  0.19523587D-02  0.12953233D-14  0.17006645D-14
  0.19363317D-14  0.16396061D-14  0.93922951D-15  0.21364213D-15 -0.99996274D-16
  0.22158344D-14  0.29092282D-14  0.33123703D-14  0.28047791D-14  0.16066855D-14
  0.36546520D-15 -0.17105783D-15 -0.16587951D-01 -0.21778764D-01 -0.24796725D-01
 -0.20996848D-01 -0.12027803D-01 -0.27359079D-02  0.12805555D-02  0.97136737D-14
  0.16140208D-13 -0.95670533D-01  0.38182430D-16  0.66598668D-16 -0.58111834D-03
 -0.22656339D-17 -0.55502769D-17 -0.22501737D-04 -0.28415218D-03 -0.28415218D-03
  0.56830437D-03  0.38458520D-18 -0.54799915D-16 -0.74742982D-16  0.59832304D-04
  0.59832304D-04 -0.11966461D-03  0.41661550D-18  0.15388488D-16  0.26524273D-16
 -0.31764456D-04 -0.31764456D-04  0.63528913D-04  0.33809442D-19 -0.36958231D-17
 -0.47151341D-17  0.57381908D-18 -0.44068324D-17  0.16438600D-04  0.19531869D-19
  0.10542714D-16 -0.24657900D-04 -0.17409891D-17  0.26777829D-17 -0.24657900D-04
  0.17524760D-17 -0.86809046D-18 -0.40826900D-18 -0.18562509D-04 -0.81099945D-18
 -0.18960039D-17  0.27843764D-04  0.34152708D-17  0.31208109D-17  0.27843764D-04
 -0.14392874D-18
MO    5     MO 0.0        OCC NO =    2.0000000  ORB. ENERGY =   -7.143471
 -0.15170735D-16 -0.28392836D-16 -0.49181566D-16 -0.80400793D-16 -0.12485930D-15
 -0.18282387D-15 -0.24501898D-15 -0.28112239D-15 -0.24488156D-15 -0.12527425D-15
 -0.24200599D-16 -0.75032692D-18 -0.32726340D-19  0.32651658D-22  0.51643926D-16
  0.96890335D-16  0.16738352D-15  0.27539705D-15  0.42784846D-15  0.64060206D-15
  0.88307349D-15  0.11121561D-14  0.11410917D-14  0.87482392D-15  0.13158127D-15
 -0.50054461D-15 -0.42864456D-15 -0.34908067D-18 -0.41587595D-16 -0.77874692D-16
 -0.13491191D-15 -0.22118483D-15 -0.34534461D-15 -0.51456694D-15 -0.71595730D-15
 -0.89778034D-15 -0.94328620D-15 -0.72485189D-15 -0.12251077D-15  0.48722868D-15
  0.47292623D-15 -0.28771678D-15  0.19136226D-16  0.13153127D-16  0.99918685D-17
 -0.83935513D-03 -0.10699113D-02 -0.11250454D-02 -0.89800092D-03 -0.46807767D-03
 -0.14621260D-03 -0.16883917D-04 -0.49971473D-07  0.25098253D-03  0.31992305D-03
  0.33640915D-03  0.26851870D-03  0.13996378D-03  0.43720242D-04  0.50486000D-05
  0.14942384D-07 -0.31329974D-14 -0.39935770D-14 -0.41993719D-14 -0.33519001D-14
 -0.17471581D-14 -0.54575672D-15 -0.63021320D-16 -0.18652474D-18  0.80573410D-03
  0.10379173D-02  0.10915227D-02  0.89390298D-03  0.46030715D-03  0.16143415D-03
  0.19584848D-04 -0.37899631D-04 -0.24092923D-03 -0.31035624D-03 -0.32638523D-03
 -0.26729334D-03 -0.13764025D-03 -0.48271763D-04 -0.58562278D-05  0.11332683D-04
  0.33438548D-14  0.43074317D-14  0.45298980D-14  0.37097621D-14  0.19103080D-14
  0.66996341D-15  0.81278538D-16 -0.15728621D-15 -0.11580573D-04  0.34628030D-05
 -0.11331216D-16  0.29664707D-05 -0.88702897D-06  0.13789659D-16 -0.38167309D-06
  0.11412723D-06 -0.18962261D-17  0.28335597D-16  0.36817985D-16 -0.65153582D-16
 -0.80755723D-17 -0.14754624D-04  0.44119025D-05 -0.71650501D-18 -0.51671020D-17
  0.58836070D-17  0.25890912D-17 -0.20287888D-04  0.60664495D-05 -0.99818997D-18
 -0.29717142D-18  0.12953614D-17  0.21972406D-19  0.79062496D-06 -0.23641132D-06
 -0.23709727D-06  0.70896419D-07 -0.17897658D-16 -0.23709678D-06  0.70896273D-07
  0.28466823D-16  0.94838859D-06 -0.28358553D-06  0.25226152D-16 -0.15464252D-18
  0.13779303D-05 -0.41202636D-06  0.24807413D-17  0.13779320D-05 -0.41202685D-06
 -0.49240947D-17 -0.55117229D-05  0.16481059D-05 -0.25181291D-17  0.91346257D-19
 -0.15292275D-16 -0.28611905D-16 -0.49435033D-16 -0.80139954D-16 -0.12169891D-15
 -0.16914718D-15 -0.20109159D-15 -0.17911693D-15 -0.88919005D-16 -0.14326276D-16
 -0.21994650D-18 -0.39304224D-19 -0.14687375D-20  0.14312259D-16  0.26733244D-16
  0.46396842D-16  0.75283219D-16  0.11652948D-15  0.16680137D-15  0.21772789D-15
  0.23202539D-15  0.17344369D-15  0.91557844D-17 -0.11764729D-15 -0.69896004D-16
  0.26205761D-18 -0.89086452D-17 -0.16626703D-16 -0.28895746D-16 -0.46831503D-16
 -0.72736657D-16 -0.10419736D-15 -0.13758291D-15 -0.14876793D-15 -0.11663599D-15
 -0.58037682D-17  0.99986531D-16  0.10350459D-15 -0.46837293D-16  0.18865344D-16
  0.23913009D-15  0.58623768D-16  0.11009706D+02  0.14502253D+02  0.15999382D+02
  0.13289326D+02  0.70582840D+01  0.18205373D+01 -0.18714505D-02 -0.32921033D+01
 -0.43364389D+01 -0.47841079D+01 -0.39737516D+01 -0.21105560D+01 -0.54437395D+00
  0.55959792D-03  0.56238144D-12  0.74078257D-12  0.81725672D-12  0.67882564D-12
  0.36054079D-12  0.92993987D-13 -0.95594657D-16  0.12054254D-01  0.15826352D-01
  0.18019466D-01  0.15258144D-01  0.87404521D-02  0.19881496D-02 -0.93056344D-03
 -0.36044424D-02 -0.47323686D-02 -0.53881498D-02 -0.45624639D-02 -0.26135550D-02
 -0.59449309D-03  0.27825548D-03  0.36283745D-14  0.47637897D-14  0.54239251D-14
  0.45927570D-14  0.26309080D-14  0.59844030D-15 -0.28010300D-15  0.91099293D-01
 -0.27240355D-01  0.45903594D-14  0.37537860D-03 -0.11224507D-03 -0.68942619D-16
 -0.11798735D-04  0.35280376D-05 -0.54786353D-16  0.59301632D-16  0.69156631D-16
 -0.12845826D-15  0.17404873D-17 -0.68594730D-03  0.20511079D-03  0.31136228D-16
  0.33461951D-16 -0.64598178D-16 -0.22009833D-18  0.13335605D-03 -0.39875897D-04
 -0.28937787D-16 -0.26213337D-16  0.55151124D-16  0.45514053D-18 -0.64139485D-04
  0.19178879D-04  0.30735760D-05 -0.91905544D-06  0.20096538D-16  0.30651811D-05
 -0.91654521D-06 -0.28060742D-16 -0.12285909D-04  0.36737115D-05 -0.32228873D-16
 -0.68205382D-18 -0.65731558D-05  0.19654938D-05 -0.10720542D-16 -0.65734005D-05
  0.19655670D-05  0.15873828D-16  0.26292868D-04 -0.78620483D-05  0.16287797D-16
  0.74494990D-18
MO    6     MO 0.0        OCC NO =    2.0000000  ORB. ENERGY =   -7.143471
 -0.24969644D-16 -0.46732013D-16 -0.80948364D-16 -0.13233236D-15 -0.20550699D-15
 -0.30091138D-15 -0.40327885D-15 -0.46270176D-15 -0.40305266D-15 -0.20618996D-15
 -0.39831975D-16 -0.12349696D-17 -0.53864565D-19  0.53741645D-22 -0.22046131D-16
 -0.41361245D-16 -0.71453884D-16 -0.11756348D-15 -0.18264303D-15 -0.27346482D-15
 -0.37697278D-15 -0.47476521D-15 -0.48711747D-15 -0.37345114D-15 -0.56170359D-16
  0.21367609D-15  0.18298288D-15  0.14901807D-18  0.16205444D-16  0.30345441D-16
  0.52571142D-16  0.86189120D-16  0.13457048D-15  0.20051137D-15  0.27898717D-15
  0.34983818D-15  0.36757046D-15  0.28245313D-15  0.47738786D-16 -0.18985847D-15