 Molden2AIM, Version 4.0.0 (06/02/2016)           Time: Wed Jun 27 19:43:25 2018
GAUSSIAN              7 MOL ORBITALS    150 PRIMITIVES        2 NUCLEI
  N    1    (CENTRE  1)   0.00000000  0.00000000  2.00260325  CHARGE =  7.0
  O    2    (CENTRE  2)   0.00000000  0.00000000  0.01127789  CHARGE =  8.0
CENTRE ASSIGNMENTS    1  1  1  1  1  1  1  1  1  1  1  1  1  1  1  1  1  1  1  1
CENTRE ASSIGNMENTS    1  1  1  1  1  1  1  1  1  1  1  1  1  1  1  1  1  1  1  1
CENTRE ASSIGNMENTS    1  1  1  1  1  1  1  1  1  1  1  1  1  1  1  1  1  1  1  1
CENTRE ASSIGNMENTS    1  1  1  1  1  1  1  1  1  1  1  1  1  1  1  2  2  2  2  2
CENTRE ASSIGNMENTS    2  2  2  2  2  2  2  2  2  2  2  2  2  2  2  2  2  2  2  2
CENTRE ASSIGNMENTS    2  2  2  2  2  2  2  2  2  2  2  2  2  2  2  2  2  2  2  2
CENTRE ASSIGNMENTS    2  2  2  2  2  2  2  2  2  2  2  2  2  2  2  2  2  2  2  2
CENTRE ASSIGNMENTS    2  2  2  2  2  2  2  2  2  2
TYPE ASSIGNMENTS      1  1  1  1  1  1  1  1  1  1  1  1  1  1  1  1  1  1  1  2
TYPE ASSIGNMENTS      2  2  3  3  3  4  4  4  2  3  4  2  3  4  2  3  4  5  6  7
TYPE ASSIGNMENTS      8  9 10  5  6  7  8  9 10  5  6  7  8  9 10 11 12 13 17 14
TYPE ASSIGNMENTS     15 18 19 16 20 11 12 13 17 14 15 18 19 16 20  1  1  1  1  1
TYPE ASSIGNMENTS      1  1  1  1  1  1  1  1  1  1  1  1  1  1  2  2  2  3  3  3
TYPE ASSIGNMENTS      4  4  4  2  3  4  2  3  4  2  3  4  5  6  7  8  9 10  5  6
TYPE ASSIGNMENTS      7  8  9 10  5  6  7  8  9 10 11 12 13 17 14 15 18 19 16 20
TYPE ASSIGNMENTS     11 12 13 17 14 15 18 19 16 20
EXPONENTS  0.1142000D+05 0.1712000D+04 0.3893000D+03 0.1100000D+03 0.3557000D+02
EXPONENTS  0.1254000D+02 0.4644000D+01 0.5118000D+00 0.1142000D+05 0.1712000D+04
EXPONENTS  0.3893000D+03 0.1100000D+03 0.3557000D+02 0.1254000D+02 0.4644000D+01
EXPONENTS  0.5118000D+00 0.1293000D+01 0.1787000D+00 0.5760000D-01 0.2663000D+02
EXPONENTS  0.5948000D+01 0.1742000D+01 0.2663000D+02 0.5948000D+01 0.1742000D+01
EXPONENTS  0.2663000D+02 0.5948000D+01 0.1742000D+01 0.5550000D+00 0.5550000D+00
EXPONENTS  0.5550000D+00 0.1725000D+00 0.1725000D+00 0.1725000D+00 0.4910000D-01
EXPONENTS  0.4910000D-01 0.4910000D-01 0.1654000D+01 0.1654000D+01 0.1654000D+01
EXPONENTS  0.1654000D+01 0.1654000D+01 0.1654000D+01 0.4690000D+00 0.4690000D+00
EXPONENTS  0.4690000D+00 0.4690000D+00 0.4690000D+00 0.4690000D+00 0.1510000D+00
EXPONENTS  0.1510000D+00 0.1510000D+00 0.1510000D+00 0.1510000D+00 0.1510000D+00
EXPONENTS  0.1093000D+01 0.1093000D+01 0.1093000D+01 0.1093000D+01 0.1093000D+01
EXPONENTS  0.1093000D+01 0.1093000D+01 0.1093000D+01 0.1093000D+01 0.1093000D+01
EXPONENTS  0.3640000D+00 0.3640000D+00 0.3640000D+00 0.3640000D+00 0.3640000D+00
EXPONENTS  0.3640000D+00 0.3640000D+00 0.3640000D+00 0.3640000D+00 0.3640000D+00
EXPONENTS  0.1533000D+05 0.2299000D+04 0.5224000D+03 0.1473000D+03 0.4755000D+02
EXPONENTS  0.1676000D+02 0.6207000D+01 0.6882000D+00 0.1533000D+05 0.2299000D+04
EXPONENTS  0.5224000D+03 0.1473000D+03 0.4755000D+02 0.1676000D+02 0.6207000D+01
EXPONENTS  0.6882000D+00 0.1752000D+01 0.2384000D+00 0.7376000D-01 0.3446000D+02
EXPONENTS  0.7749000D+01 0.2280000D+01 0.3446000D+02 0.7749000D+01 0.2280000D+01
EXPONENTS  0.3446000D+02 0.7749000D+01 0.2280000D+01 0.7156000D+00 0.7156000D+00
EXPONENTS  0.7156000D+00 0.2140000D+00 0.2140000D+00 0.2140000D+00 0.5974000D-01
EXPONENTS  0.5974000D-01 0.5974000D-01 0.2314000D+01 0.2314000D+01 0.2314000D+01
EXPONENTS  0.2314000D+01 0.2314000D+01 0.2314000D+01 0.6450000D+00 0.6450000D+00
EXPONENTS  0.6450000D+00 0.6450000D+00 0.6450000D+00 0.6450000D+00 0.2140000D+00
EXPONENTS  0.2140000D+00 0.2140000D+00 0.2140000D+00 0.2140000D+00 0.2140000D+00
EXPONENTS  0.1428000D+01 0.1428000D+01 0.1428000D+01 0.1428000D+01 0.1428000D+01
EXPONENTS  0.1428000D+01 0.1428000D+01 0.1428000D+01 0.1428000D+01 0.1428000D+01
EXPONENTS  0.5000000D+00 0.5000000D+00 0.5000000D+00 0.5000000D+00 0.5000000D+00
EXPONENTS  0.5000000D+00 0.5000000D+00 0.5000000D+00 0.5000000D+00 0.5000000D+00
MO    1     MO 0.0        OCC NO =    2.0000000  ORB. ENERGY =  -19.843018
  0.81832448D-04  0.15248272D-03  0.25788650D-03  0.38836278D-03  0.48081832D-03
  0.40915469D-03  0.15569091D-03 -0.72916693D-06 -0.53647728D-04 -0.10058999D-03
 -0.17113350D-03 -0.26575226D-03 -0.35266871D-03 -0.37166441D-03 -0.23045564D-03
  0.15329918D-03  0.11992782D-02 -0.15211518D-02  0.23114451D-04  0.90433585D-15
  0.86860378D-15  0.60912493D-15 -0.46324536D-15 -0.44494163D-15 -0.31202378D-15
 -0.28951354D-02 -0.27807429D-02 -0.19500489D-02  0.68181444D-16  0.29691835D-16
  0.22343479D-02  0.32042364D-16  0.64478862D-16  0.11000033D-02 -0.69655803D-18
 -0.15678145D-17 -0.16284417D-05  0.61525441D-03  0.61525441D-03 -0.12305088D-02
  0.11721482D-16  0.12425924D-15  0.37425430D-15  0.74445172D-03  0.74445172D-03
 -0.14889034D-02  0.13056175D-16 -0.69762989D-16 -0.19756706D-16  0.60917511D-04
  0.60917511D-04 -0.12183502D-03 -0.24129161D-17 -0.54003560D-17 -0.19927116D-16
 -0.18927416D-16  0.11307521D-16  0.21438846D-02 -0.21845415D-16 -0.64159327D-16
 -0.32158270D-02  0.78627663D-16  0.30236765D-16 -0.32158270D-02 -0.20747031D-16
 -0.73809911D-18 -0.62655634D-17  0.15122936D-03 -0.88037877D-19 -0.75972554D-17
 -0.22684404D-03  0.23023352D-17  0.26393946D-16 -0.22684404D-03  0.10029291D-17
  0.49749706D+00  0.92727051D+00  0.15723436D+01  0.23798152D+01  0.29693145D+01
  0.25502452D+01  0.97908871D+00 -0.43795239D-02 -0.22947965D-03 -0.43039477D-03
 -0.73372873D-03 -0.11466752D-02 -0.15333232D-02 -0.16372317D-02 -0.10009714D-02
  0.66038011D-03  0.54199908D-01  0.29450339D-02 -0.16187596D-03  0.17627458D-15
  0.17092705D-15  0.11530638D-15 -0.39630608D-15 -0.38428359D-15 -0.25923544D-15
  0.97789147D-02  0.94822578D-02  0.63966751D-02 -0.44681708D-16  0.83974603D-17
  0.25003631D-02 -0.24384307D-16 -0.85971457D-16 -0.12595273D-03 -0.41040031D-17
 -0.72219697D-18 -0.31878893D-04 -0.27848899D-02 -0.27848899D-02  0.55697798D-02
 -0.98711647D-17  0.82872728D-16  0.33145353D-16 -0.19612031D-04 -0.19612031D-04
  0.39224061D-04 -0.86914728D-17 -0.13690085D-15  0.15664280D-16  0.95365302D-04
  0.95365302D-04 -0.19073060D-03 -0.13618017D-17 -0.35852123D-16  0.11188783D-19
 -0.41222425D-16  0.43570862D-16  0.11749449D-02 -0.37171712D-16  0.92300751D-16
 -0.17624173D-02  0.16083899D-15 -0.22301334D-15 -0.17624173D-02  0.34301897D-16
  0.16874106D-16 -0.16995962D-16 -0.24707187D-03  0.16496800D-16 -0.20132332D-16
  0.37060780D-03 -0.67119117D-16  0.71120217D-16  0.37060780D-03 -0.29312438D-17
MO    2     MO 0.0        OCC NO =    2.0000000  ORB. ENERGY =  -15.019037
  0.41194378D+00  0.76759658D+00  0.12981983D+01  0.19550146D+01  0.24204349D+01
  0.20596809D+01  0.78374658D+00 -0.36706196D-02 -0.12783333D-02 -0.23968869D-02
 -0.40778177D-02 -0.63324204D-02 -0.84034902D-02 -0.88561251D-02 -0.54913625D-02
  0.36528565D-02  0.43741608D-01  0.52347238D-02  0.70386320D-03  0.16077532D-17
  0.15442277D-17  0.10829191D-17  0.49598123D-17  0.47638404D-17  0.33407337D-17
 -0.11088857D-01 -0.10650715D-01 -0.74690166D-02 -0.72989737D-18  0.22832286D-17
 -0.52037756D-02  0.60332044D-19  0.32686555D-18 -0.12840656D-02 -0.14299838D-19
 -0.42775844D-19 -0.58301981D-04 -0.38127721D-02 -0.38127721D-02  0.76255441D-02
  0.42323659D-17  0.36040329D-17  0.78183140D-17 -0.31846409D-03 -0.31846409D-03
  0.63692817D-03 -0.26079300D-18 -0.56580572D-18 -0.34061969D-18 -0.11244843D-04
 -0.11244843D-04  0.22489685D-04  0.15468183D-19 -0.27107113D-20  0.29941744D-19
 -0.11899081D-19 -0.31617234D-18 -0.15341007D-02 -0.12284352D-19 -0.14333012D-18
  0.23011511D-02  0.47981595D-19  0.10918472D-17  0.23011511D-02 -0.16755868D-17
 -0.40042415D-19 -0.36458382D-19  0.66118302D-04 -0.42342684D-19 -0.91378319D-19
 -0.99177453D-04  0.16246993D-18  0.20075347D-18 -0.99177453D-04 -0.14834181D-19
 -0.17317688D-03 -0.32277943D-03 -0.54732696D-03 -0.82840485D-03 -0.10336074D-02
 -0.88773090D-03 -0.34081715D-03  0.15244960D-05 -0.32237453D-04 -0.60462143D-04
 -0.10307470D-03 -0.16108569D-03 -0.21540226D-03 -0.22999940D-03 -0.14061712D-03
  0.92770636D-04  0.13910773D-02 -0.60184642D-02 -0.15431764D-02 -0.51420082D-17
 -0.49860183D-17 -0.33635385D-17  0.23343679D-16  0.22635517D-16  0.15269786D-16
  0.53025104D-02  0.51416514D-02  0.34685276D-02 -0.18959514D-17  0.43827359D-17
 -0.55633573D-02 -0.16367924D-18  0.79869262D-18 -0.33148073D-02 -0.10883022D-19
  0.17050709D-20 -0.11785140D-03 -0.52168743D-05 -0.52168743D-05  0.10433749D-04
  0.32579363D-18 -0.15067101D-17  0.24738637D-17  0.20003892D-02  0.20003892D-02
 -0.40007785D-02 -0.31051645D-18 -0.56911345D-18  0.11193030D-17  0.21232129D-03
  0.21232129D-03 -0.42464257D-03  0.35379896D-19  0.18510894D-19  0.18355298D-18
  0.19749233D-18  0.88529499D-19 -0.28798047D-02  0.21156859D-18  0.45447599D-18
  0.43197070D-02 -0.80404559D-18 -0.72006449D-18  0.43197070D-02  0.31170739D-18
  0.18404263D-19 -0.21197584D-18 -0.65933361D-03  0.20482184D-19 -0.22070650D-18
  0.98900041D-03 -0.75694973D-19  0.85663403D-18  0.98900041D-03 -0.10525935D-18
MO    3     MO 0.0        OCC NO =    2.0000000  ORB. ENERGY =   -1.815828
  0.10328633D-01  0.19245887D-01  0.32549619D-01  0.49017923D-01  0.60687369D-01
  0.51642212D-01  0.19650814D-01 -0.92033147D-04  0.46711070D-01  0.87583692D-01
  0.14900592D+00  0.23139046D+00  0.30706860D+00  0.32360815D+00  0.20065770D+00
 -0.13347758D+00 -0.72047269D-01 -0.13334438D-01 -0.19993352D-02  0.12895433D-15
  0.12385909D-15  0.86858546D-16 -0.27442044D-15 -0.26357755D-15 -0.18483877D-15
  0.48077485D+00  0.46177849D+00  0.32383095D+00  0.48721203D-16 -0.48958913D-16
  0.93909435D-01  0.41157511D-16 -0.24426639D-16  0.12416880D-02  0.20788424D-17
  0.95733949D-18  0.27759064D-04  0.43500337D-01  0.43500337D-01 -0.87000674D-01
 -0.67051916D-16 -0.57613359D-16 -0.52658569D-15  0.43901452D-02  0.43901452D-02
 -0.87802903D-02 -0.12125948D-17 -0.27613102D-16  0.47177780D-16 -0.25539228D-03
 -0.25539228D-03  0.51078455D-03  0.21070422D-17 -0.10254473D-16  0.60799088D-17
  0.77739822D-17  0.22853934D-16  0.16691638D-01  0.84495609D-17  0.30797390D-16
 -0.25037458D-01 -0.31771508D-16 -0.99359193D-16 -0.25037458D-01  0.50885491D-16
  0.95186011D-18  0.16105619D-17 -0.43093469D-03  0.77971339D-18  0.56958704D-17
  0.64640203D-03 -0.36352937D-17 -0.10527556D-16  0.64640203D-03 -0.19622968D-17
  0.88447278D-02  0.16485435D-01  0.27953835D-01  0.42309431D-01  0.52789817D-01
  0.45339412D-01  0.17406682D-01 -0.77861157D-04  0.80212401D-01  0.15044035D+00
  0.25646781D+00  0.40080926D+00  0.53595836D+00  0.57227857D+00  0.34987990D+00
 -0.23082951D+00 -0.12796424D+00 -0.31355339D-01  0.44686968D-02 -0.51263420D-17
 -0.49708273D-17 -0.33532907D-17 -0.31052544D-15 -0.30110522D-15 -0.20312380D-15
 -0.65752184D+00 -0.63757501D+00 -0.43010433D+00  0.32280209D-16  0.12203738D-16
 -0.12937134D+00 -0.49077797D-16  0.14791170D-16  0.80503391D-03 -0.31523567D-17
 -0.83755870D-18  0.60392053D-03  0.47436929D-01  0.47436929D-01 -0.94873858D-01
 -0.13310227D-16  0.31411704D-16  0.10594160D-16  0.79441062D-02  0.79441062D-02
 -0.15888212D-01  0.24518699D-17  0.26372546D-17  0.30141424D-17 -0.65212970D-03
 -0.65212970D-03  0.13042594D-02  0.11424547D-17 -0.33865249D-16 -0.10139324D-17
 -0.25293106D-16 -0.44289446D-16 -0.18910634D-01 -0.18152365D-16 -0.57447330D-16
  0.28365951D-01  0.94031683D-16  0.19031567D-15  0.28365951D-01  0.11732762D-16
  0.64663728D-17  0.68057629D-17 -0.57995009D-03  0.46288054D-17  0.78657398D-17
  0.86992513D-03 -0.24027924D-16 -0.28283028D-16  0.86992513D-03 -0.38977979D-17
MO    4     MO 0.0        OCC NO =    2.0000000  ORB. ENERGY =   -1.113208
  0.83960314D-03  0.15644768D-02  0.26459225D-02  0.39846127D-02  0.49332090D-02
  0.41979382D-02  0.15973929D-02 -0.74812726D-05  0.57360958D-01  0.10755233D+00
  0.18297852D+00  0.28414632D+00  0.37707869D+00  0.39738918D+00  0.24640664D+00
 -0.16390979D+00 -0.93697890D-01 -0.44924056D-01 -0.42788458D-03 -0.46908018D-15
 -0.45054590D-15 -0.31595389D-15  0.24850774D-15  0.23868871D-15  0.16738500D-15
  0.33233766D-02  0.31920635D-02  0.22384953D-02 -0.19508313D-15  0.31884318D-16
 -0.93073616D-02 -0.38366809D-16  0.23886808D-16  0.41449430D-02 -0.36128398D-17
 -0.59905677D-18  0.26700843D-05  0.41310762D-02  0.41310762D-02 -0.82621523D-02
 -0.66215947D-16  0.12707356D-15  0.92495464D-16 -0.23334135D-02 -0.23334135D-02
  0.46668269D-02  0.16452799D-16  0.48763414D-16 -0.24616721D-16  0.33523400D-03
  0.33523400D-03 -0.67046800D-03 -0.22787815D-17 -0.99537870D-18 -0.28568731D-17
  0.10247725D-16  0.34125520D-17  0.43736216D-02  0.77186171D-17 -0.32108293D-16
 -0.65604325D-02 -0.38461794D-16  0.21870637D-16 -0.65604325D-02 -0.13288274D-15
 -0.12505219D-17  0.28916616D-17 -0.75162536D-03 -0.51497772D-18  0.33247732D-17
  0.11274380D-02  0.42665435D-17 -0.11999758D-16  0.11274380D-02  0.62380644D-17
  0.13149613D-02  0.24509186D-02  0.41559459D-02  0.62902178D-02  0.78483552D-02
  0.67406904D-02  0.25878821D-02 -0.11575756D-04 -0.74925685D-01 -0.14052498D+00
 -0.23956428D+00 -0.37439234D+00 -0.50063390D+00 -0.53456029D+00 -0.32681968D+00
  0.21561577D+00  0.12740679D+00  0.93103725D-01  0.19117701D-02 -0.69022822D-15
 -0.66928919D-15 -0.45149854D-15  0.49922395D-15  0.48407930D-15  0.32655704D-15
 -0.11159449D+01 -0.10820911D+01 -0.72997230D+00 -0.15475624D-15  0.12008355D-15
 -0.24450937D+00 -0.20910590D-17  0.69922449D-17 -0.14614072D-01  0.17796973D-17
 -0.10031644D-17  0.13120922D-03  0.39811367D-01  0.39811367D-01 -0.79622733D-01
 -0.29727686D-17 -0.95032178D-16  0.77147134D-16  0.83589003D-02  0.83589003D-02
 -0.16717801D-01 -0.25154559D-17 -0.23982144D-16  0.47968387D-16  0.23786840D-03
  0.23786840D-03 -0.47573679D-03 -0.31435223D-17  0.15086581D-16 -0.10359120D-16
  0.11115554D-16 -0.15829455D-16 -0.95053612D-02  0.49561408D-17 -0.17376953D-16
  0.14258042D-01 -0.38302803D-16  0.64865319D-16  0.14258042D-01  0.16735301D-16
 -0.10904890D-17  0.16723373D-17 -0.10653258D-02  0.29683701D-18  0.15951667D-17
  0.15979887D-02  0.29746300D-17 -0.66121785D-17  0.15979887D-02 -0.41888341D-17
MO    5     MO 0.0        OCC NO =    2.0000000  ORB. ENERGY =   -1.003550
 -0.78767289D-17 -0.14677125D-16 -0.24822697D-16 -0.37381606D-16 -0.46280854D-16
 -0.39382918D-16 -0.14985927D-16  0.70185488D-19 -0.41507193D-16 -0.77826375D-16
 -0.13240582D-15 -0.20561226D-15 -0.27285943D-15 -0.28755638D-15 -0.17830330D-15
  0.11860742D-15  0.33247573D-16 -0.17890393D-15 -0.31370891D-16 -0.69990370D+00
 -0.67224913D+00 -0.47142749D+00  0.33835733D+00  0.32498817D+00  0.22790414D+00
  0.54429445D-15  0.52278831D-15  0.36661525D-15 -0.16815402D+00  0.81291391D-01
  0.19002012D-15 -0.77290680D-02  0.37364952D-02  0.19562385D-16  0.97340549D-04
 -0.47057743D-04 -0.29051889D-18  0.82350236D-16 -0.17218833D-15  0.89838090D-16
 -0.17073299D-15  0.14124973D+00 -0.68284938D-01 -0.36479593D-16  0.28030705D-16
  0.84488885D-17  0.65441953D-16  0.22334724D-01 -0.10797367D-01 -0.15893680D-16
  0.16199157D-16 -0.30547719D-18 -0.29930937D-16 -0.14333715D-02  0.69294067D-03
  0.83598219D-02 -0.40414231D-02  0.15266301D-17  0.83598265D-02 -0.40414254D-02
  0.21870604D-15 -0.33439292D-01  0.16165695D-01 -0.22328593D-15 -0.11017890D-15
 -0.87999027D-04  0.42541732D-04 -0.60590769D-17 -0.87999180D-04  0.42541806D-04
  0.16676303D-16  0.35199626D-03 -0.17016700D-03  0.15009279D-17  0.95141609D-17
 -0.43566998D-17 -0.81203279D-17 -0.13769386D-16 -0.20840607D-16 -0.26002992D-16
 -0.22333102D-16 -0.85741122D-17  0.38352530D-19  0.62131162D-16  0.11652853D-15
  0.19865561D-15  0.31046004D-15  0.41514423D-15  0.44327725D-15  0.27101102D-15
 -0.17879661D-15 -0.17789116D-15  0.11625882D-15  0.67793351D-16 -0.13572038D+01
 -0.13160311D+01 -0.88778681D+00  0.65611861D+00  0.63621434D+00  0.42918644D+00
  0.69505447D-15  0.67396904D-15  0.45465553D-15 -0.31589063D+00  0.15271231D+00
  0.19109099D-16 -0.37696915D-01  0.18223975D-01  0.13440706D-15 -0.14902213D-04
  0.72042383D-05  0.13812088D-16  0.20121401D-15 -0.22700414D-15  0.25790124D-16
 -0.78733987D-16 -0.16865899D+00  0.81535511D-01 -0.21321346D-16  0.16798440D-16
  0.45229057D-17 -0.18143970D-15 -0.44145269D-01  0.21341329D-01  0.29787506D-16
 -0.64868737D-16  0.35081230D-16  0.33638404D-16 -0.42521147D-02  0.20556173D-02
  0.14056698D-01 -0.67954874D-02 -0.37398003D-16  0.14056719D-01 -0.67954973D-02
 -0.17770789D-15 -0.56226812D-01  0.27181960D-01  0.28990190D-15 -0.39486503D-15
  0.77837005D-03 -0.37629064D-03  0.11626814D-16  0.77836930D-03 -0.37629028D-03
  0.36522252D-16 -0.31134794D-02  0.15051622D-02 -0.71402694D-16  0.42776996D-16
MO    6     MO 0.0        OCC NO =    2.0000000  ORB. ENERGY =   -1.003550
 -0.47019877D-17 -0.87614618D-17 -0.14817828D-16 -0.22314828D-16 -0.27627205D-16
 -0.23509505D-16 -0.89458002D-17  0.41896999D-19  0.29059210D-16  0.54486290D-16
  0.92697392D-16  0.14394926D-15  0.19102904D-15  0.20131839D-15  0.12483024D-15
 -0.83037126D-16 -0.10126289D-15  0.60233229D-16  0.45868028D-16  0.33835733D+00
  0.32498817D+00  0.22790414D+00  0.69990370D+00  0.67224913D+00  0.47142749D+00
 -0.67687537D-15 -0.65013070D-15 -0.45591652D-15  0.81291391D-01  0.16815402D+00
  0.68963517D-16  0.37364952D-02  0.77290680D-02 -0.14365155D-15 -0.47057743D-04
 -0.97340549D-04  0.11124350D-16 -0.83082152D-17  0.43837757D-16 -0.35529542D-16
 -0.25092450D-15 -0.68284938D-01 -0.14124973D+00 -0.52593620D-17 -0.42232322D-16
  0.47491684D-16 -0.46679299D-16 -0.10797367D-01 -0.22334724D-01  0.71661096D-17
 -0.21834472D-16  0.14668362D-16  0.11688202D-17  0.69294067D-03  0.14333715D-02
 -0.40414231D-02 -0.83598219D-02  0.10593159D-15 -0.40414254D-02 -0.83598265D-02
 -0.31022239D-15  0.16165695D-01  0.33439292D-01 -0.75723674D-17 -0.14135317D-15
  0.42541732D-04  0.87999027D-04 -0.27180541D-16  0.42541806D-04  0.87999180D-04
  0.30341173D-16 -0.17016700D-03 -0.35199626D-03  0.51200449D-16  0.65052820D-16
 -0.34196051D-16 -0.63737039D-16 -0.10807690D-15 -0.16357942D-15 -0.20409936D-15
 -0.17529413D-15 -0.67298825D-16  0.30103177D-18  0.42516010D-16  0.79739830D-16
  0.13593893D-15  0.21244609D-15  0.28408090D-15  0.30333217D-15  0.18545134D-15
 -0.12234953D-15 -0.83208317D-16 -0.13307822D-15 -0.50710556D-16  0.65611861D+00
  0.63621434D+00  0.42918644D+00  0.13572038D+01  0.13160311D+01  0.88778681D+00
  0.78386499D-15  0.76008537D-15  0.51274910D-15  0.15271231D+00  0.31589063D+00
  0.99794821D-16  0.18223975D-01  0.37696915D-01 -0.10249565D-16  0.72042383D-05
  0.14902213D-04 -0.13417247D-16 -0.12197241D-15  0.19790739D-16  0.10218167D-15
  0.51347301D-16  0.81535511D-01  0.16865899D+00 -0.18022792D-16 -0.44856468D-16
  0.62879261D-16  0.14321103D-15  0.21341329D-01  0.44145269D-01 -0.40794568D-16
  0.32928175D-16  0.78663931D-17 -0.18754226D-16  0.20556173D-02  0.42521147D-02
 -0.67954874D-02 -0.14056698D-01  0.15926462D-15 -0.67954973D-02 -0.14056719D-01
 -0.27866105D-15  0.27181960D-01  0.56226812D-01 -0.19913281D-15  0.92009497D-16
 -0.37629064D-03 -0.77837005D-03  0.11768374D-16 -0.37629028D-03 -0.77836930D-03
 -0.77630089D-16  0.15051622D-02  0.31134794D-02  0.42324968D-16 -0.12283539D-16
MO    7     MO 0.0        OCC NO =    2.0000000  ORB. ENERGY =   -0.930695
 -0.16963021D-02 -0.31608091D-02 -0.53457206D-02 -0.80503591D-02 -0.99668668D-02
 -0.84813538D-02 -0.32273116D-02  0.15114877D-04  0.50172081D-01  0.94073121D-01
  0.16004637D+00  0.24853511D+00  0.32982055D+00  0.34758559D+00  0.21552524D+00
 -0.14336747D+00 -0.78180628D-01 -0.56294809D-01  0.10383062D-02 -0.36978898D-15
 -0.35517789D-15 -0.24907525D-15 -0.55551102D-15 -0.53356170D-15 -0.37417029D-15
 -0.97441243D+00 -0.93591149D+00 -0.65632574D+00 -0.54830352D-16  0.20185629D-16
 -0.22119540D+00 -0.13496594D-16 -0.47072411D-16 -0.12558493D-01  0.51076161D-17
  0.67443518D-17  0.16504076D-03 -0.47555777D-01 -0.47555777D-01  0.95111554D-01
  0.17390865D-15  0.42882199D-16  0.19920226D-15 -0.42860119D-02 -0.42860119D-02
  0.85720238D-02 -0.15946659D-16  0.17653383D-16 -0.39316543D-16  0.35802690D-03
  0.35802690D-03 -0.71605379D-03 -0.33684968D-17  0.59506945D-17  0.42026946D-17
 -0.63453804D-17 -0.16493083D-16 -0.13144903D-01 -0.85672932D-17 -0.14318490D-17
  0.19717355D-01  0.27603434D-16  0.50911097D-16  0.19717355D-01  0.54262934D-18
  0.13355264D-17  0.19802786D-17  0.10526998D-02  0.24697393D-17 -0.13925163D-17
 -0.15790497D-02 -0.64763185D-17 -0.45483194D-17 -0.15790497D-02  0.22646007D-17
  0.28561926D-03  0.53235756D-03  0.90270203D-03  0.13662816D-02  0.17047205D-02
  0.14641275D-02  0.56210703D-03 -0.25143392D-05  0.59340657D-02  0.11129487D-01
  0.18973336D-01  0.29651631D-01  0.39649880D-01  0.42336828D-01  0.25883907D-01
 -0.17076630D-01 -0.74112089D-02 -0.23451052D-01 -0.43142244D-02 -0.98400243D-15
 -0.95415135D-15 -0.64366487D-15 -0.28729408D-15 -0.27857862D-15 -0.18792749D-15
  0.10873569D+01  0.10543705D+01  0.71127208D+00 -0.26206531D-15 -0.77380244D-16
  0.22699858D+00  0.65086607D-17 -0.14832189D-17  0.11575785D-01  0.12583237D-17
  0.30626921D-17 -0.59634978D-03 -0.41428154D-01 -0.41428154D-01  0.82856308D-01
  0.12377899D-16 -0.14693708D-15 -0.10080431D-15 -0.33104976D-02 -0.33104976D-02
  0.66209952D-02 -0.12609476D-17 -0.56073867D-17 -0.37894975D-16  0.10347243D-02
  0.10347243D-02 -0.20694485D-02  0.25538411D-19  0.42877484D-17  0.66480111D-17
  0.28052428D-16  0.47561689D-16  0.11539184D-01  0.29745055D-16  0.45795178D-16
 -0.17308776D-01 -0.11390234D-15 -0.18848025D-15 -0.17308776D-01  0.85547848D-17
 -0.50049554D-17 -0.17696581D-17 -0.63233866D-03 -0.58479512D-17 -0.10888859D-17
  0.94850800D-03  0.20862817D-16  0.63978604D-17  0.94850800D-03  0.35797868D-18
END DATA
RHF
