 Molden2AIM, Version 4.0.0 (06/02/2016)           Time: Wed Jun 27 19:49:10 2018
GAUSSIAN             11 MOL ORBITALS    206 PRIMITIVES        2 NUCLEI
  P    1    (CENTRE  1)   0.00000000  0.00000000  2.87507090  CHARGE = 15.0
  N    2    (CENTRE  2)   0.00000000  0.00000000  0.08027179  CHARGE =  7.0
CENTRE ASSIGNMENTS    1  1  1  1  1  1  1  1  1  1  1  1  1  1  1  1  1  1  1  1
CENTRE ASSIGNMENTS    1  1  1  1  1  1  1  1  1  1  1  1  1  1  1  1  1  1  1  1
CENTRE ASSIGNMENTS    1  1  1  1  1  1  1  1  1  1  1  1  1  1  1  1  1  1  1  1
CENTRE ASSIGNMENTS    1  1  1  1  1  1  1  1  1  1  1  1  1  1  1  1  1  1  1  1
CENTRE ASSIGNMENTS    1  1  1  1  1  1  1  1  1  1  1  1  1  1  1  1  1  1  1  1
CENTRE ASSIGNMENTS    1  1  1  1  1  1  1  1  1  1  1  1  1  1  1  1  1  1  1  1
CENTRE ASSIGNMENTS    1  1  1  1  1  1  1  1  1  1  1  2  2  2  2  2  2  2  2  2
CENTRE ASSIGNMENTS    2  2  2  2  2  2  2  2  2  2  2  2  2  2  2  2  2  2  2  2
CENTRE ASSIGNMENTS    2  2  2  2  2  2  2  2  2  2  2  2  2  2  2  2  2  2  2  2
CENTRE ASSIGNMENTS    2  2  2  2  2  2  2  2  2  2  2  2  2  2  2  2  2  2  2  2
CENTRE ASSIGNMENTS    2  2  2  2  2  2
TYPE ASSIGNMENTS      1  1  1  1  1  1  1  1  1  1  1  1  1  1  1  1  1  1  1  1
TYPE ASSIGNMENTS      1  1  1  1  1  1  1  1  1  1  1  1  1  1  1  1  1  1  1  1
TYPE ASSIGNMENTS      1  1  2  2  2  2  2  2  2  3  3  3  3  3  3  3  4  4  4  4
TYPE ASSIGNMENTS      4  4  4  2  2  2  2  2  2  2  3  3  3  3  3  3  3  4  4  4
TYPE ASSIGNMENTS      4  4  4  4  2  3  4  2  3  4  2  3  4  5  6  7  8  9 10  5
TYPE ASSIGNMENTS      6  7  8  9 10  5  6  7  8  9 10 11 12 13 17 14 15 18 19 16
TYPE ASSIGNMENTS     20 11 12 13 17 14 15 18 19 16 20  1  1  1  1  1  1  1  1  1
TYPE ASSIGNMENTS      1  1  1  1  1  1  1  1  1  1  2  2  2  3  3  3  4  4  4  2
TYPE ASSIGNMENTS      3  4  2  3  4  2  3  4  5  6  7  8  9 10  5  6  7  8  9 10
TYPE ASSIGNMENTS      5  6  7  8  9 10 11 12 13 17 14 15 18 19 16 20 11 12 13 17
TYPE ASSIGNMENTS     14 15 18 19 16 20
EXPONENTS  0.3124000D+06 0.4680000D+05 0.1065000D+05 0.3018000D+04 0.9868000D+03
EXPONENTS  0.3574000D+03 0.1396000D+03 0.5763000D+02 0.2460000D+02 0.1012000D+02
EXPONENTS  0.4283000D+01 0.1805000D+01 0.2782000D+00 0.3124000D+06 0.4680000D+05
EXPONENTS  0.1065000D+05 0.3018000D+04 0.9868000D+03 0.3574000D+03 0.1396000D+03
EXPONENTS  0.5763000D+02 0.2460000D+02 0.1012000D+02 0.4283000D+01 0.1805000D+01
EXPONENTS  0.2782000D+00 0.3124000D+06 0.4680000D+05 0.1065000D+05 0.3018000D+04
EXPONENTS  0.9868000D+03 0.3574000D+03 0.1396000D+03 0.5763000D+02 0.2460000D+02
EXPONENTS  0.1012000D+02 0.4283000D+01 0.1805000D+01 0.2782000D+00 0.6158000D+00
EXPONENTS  0.1055000D+00 0.4090000D-01 0.5049000D+03 0.1194000D+03 0.3796000D+02
EXPONENTS  0.1395000D+02 0.5457000D+01 0.2177000D+01 0.2877000D+00 0.5049000D+03
EXPONENTS  0.1194000D+03 0.3796000D+02 0.1395000D+02 0.5457000D+01 0.2177000D+01
EXPONENTS  0.2877000D+00 0.5049000D+03 0.1194000D+03 0.3796000D+02 0.1395000D+02
EXPONENTS  0.5457000D+01 0.2177000D+01 0.2877000D+00 0.5049000D+03 0.1194000D+03
EXPONENTS  0.3796000D+02 0.1395000D+02 0.5457000D+01 0.2177000D+01 0.2877000D+00
EXPONENTS  0.5049000D+03 0.1194000D+03 0.3796000D+02 0.1395000D+02 0.5457000D+01
EXPONENTS  0.2177000D+01 0.2877000D+00 0.5049000D+03 0.1194000D+03 0.3796000D+02
EXPONENTS  0.1395000D+02 0.5457000D+01 0.2177000D+01 0.2877000D+00 0.8010000D+00
EXPONENTS  0.8010000D+00 0.8010000D+00 0.9714000D-01 0.9714000D-01 0.9714000D-01
EXPONENTS  0.3070000D-01 0.3070000D-01 0.3070000D-01 0.2160000D+00 0.2160000D+00
EXPONENTS  0.2160000D+00 0.2160000D+00 0.2160000D+00 0.2160000D+00 0.6520000D+00
EXPONENTS  0.6520000D+00 0.6520000D+00 0.6520000D+00 0.6520000D+00 0.6520000D+00
EXPONENTS  0.7750000D-01 0.7750000D-01 0.7750000D-01 0.7750000D-01 0.7750000D-01
EXPONENTS  0.7750000D-01 0.4520000D+00 0.4520000D+00 0.4520000D+00 0.4520000D+00
EXPONENTS  0.4520000D+00 0.4520000D+00 0.4520000D+00 0.4520000D+00 0.4520000D+00
EXPONENTS  0.4520000D+00 0.1650000D+00 0.1650000D+00 0.1650000D+00 0.1650000D+00
EXPONENTS  0.1650000D+00 0.1650000D+00 0.1650000D+00 0.1650000D+00 0.1650000D+00
EXPONENTS  0.1650000D+00 0.1142000D+05 0.1712000D+04 0.3893000D+03 0.1100000D+03
EXPONENTS  0.3557000D+02 0.1254000D+02 0.4644000D+01 0.5118000D+00 0.1142000D+05
EXPONENTS  0.1712000D+04 0.3893000D+03 0.1100000D+03 0.3557000D+02 0.1254000D+02
EXPONENTS  0.4644000D+01 0.5118000D+00 0.1293000D+01 0.1787000D+00 0.5760000D-01
EXPONENTS  0.2663000D+02 0.5948000D+01 0.1742000D+01 0.2663000D+02 0.5948000D+01
EXPONENTS  0.1742000D+01 0.2663000D+02 0.5948000D+01 0.1742000D+01 0.5550000D+00
EXPONENTS  0.5550000D+00 0.5550000D+00 0.1725000D+00 0.1725000D+00 0.1725000D+00
EXPONENTS  0.4910000D-01 0.4910000D-01 0.4910000D-01 0.1654000D+01 0.1654000D+01
EXPONENTS  0.1654000D+01 0.1654000D+01 0.1654000D+01 0.1654000D+01 0.4690000D+00
EXPONENTS  0.4690000D+00 0.4690000D+00 0.4690000D+00 0.4690000D+00 0.4690000D+00
EXPONENTS  0.1510000D+00 0.1510000D+00 0.1510000D+00 0.1510000D+00 0.1510000D+00
EXPONENTS  0.1510000D+00 0.1093000D+01 0.1093000D+01 0.1093000D+01 0.1093000D+01
EXPONENTS  0.1093000D+01 0.1093000D+01 0.1093000D+01 0.1093000D+01 0.1093000D+01
EXPONENTS  0.1093000D+01 0.3640000D+00 0.3640000D+00 0.3640000D+00 0.3640000D+00
EXPONENTS  0.3640000D+00 0.3640000D+00 0.3640000D+00 0.3640000D+00 0.3640000D+00
EXPONENTS  0.3640000D+00
MO    1     MO 0.0        OCC NO =    2.0000000  ORB. ENERGY =  -77.279645
  0.54398110D+00  0.10177804D+01  0.17574062D+01  0.28421748D+01  0.42896853D+01
  0.58770016D+01  0.67916395D+01  0.57075247D+01  0.25069949D+01  0.28654539D+00
 -0.38619566D-02  0.24020291D-02  0.11815576D-03 -0.11156693D-02 -0.20867427D-02
 -0.36130822D-02 -0.58668009D-02 -0.90100352D-02 -0.12814338D-01 -0.16304187D-01
 -0.16896878D-01 -0.11275692D-01  0.11105119D-02  0.84825013D-02  0.43554173D-02
 -0.19104869D-04  0.52538908D-03  0.98180563D-03  0.17024858D-02  0.27607628D-02
  0.42554207D-02  0.60552312D-02  0.77973061D-02  0.81969331D-02  0.57463014D-02
 -0.66719701D-03 -0.54013838D-02 -0.50834361D-02  0.24789845D-02 -0.21715566D-02
  0.23071293D-03  0.31300284D-04 -0.18102362D-17 -0.23681344D-17 -0.25908220D-17
 -0.21341190D-17 -0.11410647D-17 -0.31528726D-18  0.25842680D-21  0.14601802D-17
  0.19101944D-17  0.20898196D-17  0.17214319D-17  0.92041037D-18  0.25431832D-18
 -0.20845330D-21 -0.15345322D-01 -0.20074610D-01 -0.21962326D-01 -0.18090867D-01
 -0.96727740D-02 -0.26726813D-02  0.21906768D-05  0.60180961D-17  0.79704039D-17
  0.88051552D-17  0.75416423D-17  0.41142513D-17  0.12646130D-17 -0.55056820D-18
  0.29493459D-17  0.39061321D-17  0.43152266D-17  0.36960048D-17  0.20163105D-17
  0.61976097D-18 -0.26982223D-18  0.13734223D-01  0.18189690D-01  0.20094721D-01
  0.17211190D-01  0.93893554D-02  0.28860417D-02 -0.12564815D-02  0.35676147D-18
 -0.23362450D-19  0.21697430D-03 -0.79507843D-19 -0.53660691D-19  0.16557176D-04
 -0.32492868D-20 -0.21269889D-20  0.40408342D-05 -0.33125109D-04 -0.33125109D-04
  0.66250217D-04  0.38863310D-20  0.25918285D-18  0.15923581D-18 -0.26777731D-03
 -0.26777731D-03  0.53555462D-03 -0.44146431D-19  0.19758597D-18 -0.20925778D-18
  0.80864712D-05  0.80864712D-05 -0.16172942D-04 -0.39055974D-21  0.13553304D-19
  0.81369149D-20  0.50817086D-19  0.22078539D-19 -0.98060621D-04  0.45317895D-19
  0.19023210D-19  0.14709093D-03 -0.19776915D-18 -0.85258826D-19  0.14709093D-03
 -0.31589987D-20  0.58066283D-20  0.36583801D-20  0.12080561D-04  0.60401522D-20
  0.39498629D-20 -0.18120842D-04 -0.23460037D-19 -0.14925003D-19 -0.18120842D-04
 -0.17538281D-20  0.96671651D-04  0.18013339D-03  0.30465072D-03  0.45878710D-03
  0.56800819D-03  0.48334934D-03  0.18392334D-03 -0.86139146D-06 -0.68708934D-04
 -0.12882989D-03 -0.21917798D-03 -0.34036026D-03 -0.45167786D-03 -0.47600647D-03
 -0.29515438D-03  0.19633680D-03  0.14843545D-03 -0.90217680D-03 -0.16752328D-03
 -0.10815238D-18 -0.10387907D-18 -0.72847173D-19  0.19281099D-19  0.18519265D-19
  0.12986987D-19  0.52918818D-03  0.50827892D-03  0.35644026D-03  0.16312235D-19
  0.42440631D-19 -0.59264646D-03  0.35500435D-18  0.19357375D-18 -0.82836142D-03
  0.15308429D-19  0.10248622D-19 -0.33096310D-04 -0.21273107D-03 -0.21273107D-03
  0.42546214D-03  0.32435751D-19 -0.90481268D-18 -0.43272699D-18  0.25719500D-03
  0.25719500D-03 -0.51438999D-03 -0.27416201D-20  0.44050833D-18  0.23728207D-18
  0.60305207D-04  0.60305207D-04 -0.12061041D-03  0.45340873D-21  0.12964804D-18
  0.67923421D-19  0.81419010D-19  0.33451602D-19  0.25792426D-04  0.84686716D-19
  0.42020092D-19 -0.38688639D-04 -0.32894375D-18 -0.14237490D-18 -0.38688639D-04
 -0.16100555D-19 -0.58491878D-19 -0.29288506D-19 -0.89855456D-04 -0.58724713D-19
 -0.29819589D-19  0.13478318D-03  0.23420035D-18  0.11768511D-18  0.13478318D-03
 -0.26710239D-20
MO    2     MO 0.0        OCC NO =    2.0000000  ORB. ENERGY =  -14.424910
  0.22149232D-03  0.41440878D-03  0.71556159D-03  0.11572459D-02  0.17466275D-02
  0.23929337D-02  0.27653460D-02  0.23239279D-02  0.10207710D-02  0.11667244D-03
 -0.15724695D-05  0.97803211D-06  0.48109380D-07 -0.44978204D-03 -0.84127020D-03
 -0.14566139D-02 -0.23652005D-02 -0.36323952D-02 -0.51660999D-02 -0.65730323D-02
 -0.68119755D-02 -0.45457946D-02  0.44770281D-03  0.34197200D-02  0.17558863D-02
 -0.77021268D-05  0.27687633D-03  0.51740462D-03  0.89719795D-03  0.14549025D-02
  0.22425766D-02  0.31910640D-02  0.41091252D-02  0.43197258D-02  0.30282602D-02
 -0.35160811D-03 -0.28464911D-02 -0.26789349D-02  0.13064073D-02  0.20041220D-03
  0.63979483D-03  0.15505671D-03 -0.20507259D-16 -0.26827409D-16 -0.29350125D-16
 -0.24176365D-16 -0.12926551D-16 -0.35717314D-17  0.29275878D-20 -0.41498639D-14
 -0.54288139D-14 -0.59393127D-14 -0.48923468D-14 -0.26158262D-14 -0.72277817D-15
  0.59242880D-18 -0.10546304D-01 -0.13796579D-01 -0.15093941D-01 -0.12433222D-01
 -0.66477601D-02 -0.18368406D-02  0.15055757D-05  0.10054919D-14  0.13316797D-14
  0.14711484D-14  0.12600431D-14  0.68740118D-15  0.21128910D-15 -0.91987875D-16
  0.11979890D-14  0.15866241D-14  0.17527934D-14  0.15012729D-14  0.81900117D-15
  0.25173949D-15 -0.10959856D-15  0.10593223D-01  0.14029731D-01  0.15499084D-01
  0.13275012D-01  0.72420217D-02  0.22260076D-02 -0.96912575D-03  0.22801201D-15
  0.94203951D-16 -0.82999832D-03 -0.13193004D-16 -0.13636283D-16 -0.11349497D-03
 -0.39007374D-17 -0.16702019D-17 -0.85610095D-05 -0.17435720D-04 -0.17435720D-04
  0.34871441D-04 -0.50502047D-16  0.62829580D-16  0.59104036D-16 -0.31816165D-03
 -0.31816165D-03  0.63632329D-03  0.99437198D-16 -0.19718196D-15 -0.97943652D-16
  0.50177541D-06  0.50177541D-06 -0.10035508D-05  0.87167409D-17  0.38240031D-17
  0.44742647D-17 -0.10055057D-16  0.17377300D-17  0.53587946D-04 -0.10092798D-16
  0.16149306D-17 -0.80381919D-04  0.40257971D-16 -0.68281205D-17 -0.80381919D-04
  0.45598093D-17  0.27172035D-17  0.17319234D-17  0.89671433D-06  0.27451509D-17
  0.18171522D-17 -0.13450715D-05 -0.10896761D-16 -0.70129225D-17 -0.13450715D-05
 -0.65063268D-18  0.40978000D+00  0.76356470D+00  0.12913793D+01  0.19447457D+01
  0.24077213D+01  0.20488622D+01  0.77962986D+00 -0.36513393D-02  0.29531906D-03
  0.55372601D-03  0.94205269D-03  0.14629084D-02  0.19413645D-02  0.20459317D-02
  0.12686082D-02 -0.84387864D-03  0.42850791D-01 -0.52140962D-03 -0.48048125D-03
 -0.79161560D-16 -0.76033732D-16 -0.53320101D-16 -0.18823508D-16 -0.18079754D-16
 -0.12678772D-16  0.58981945D-02  0.56651453D-02  0.39727909D-02  0.93686848D-17
 -0.16850007D-16 -0.71710073D-03  0.67860809D-16  0.86859574D-16 -0.84200660D-03
  0.35015604D-17  0.25842547D-17 -0.48197260D-04 -0.87854396D-03 -0.87854396D-03
  0.17570879D-02  0.55575602D-17 -0.78943402D-16 -0.91919711D-16  0.34298891D-03
  0.34298891D-03 -0.68597781D-03 -0.91178718D-19  0.12703941D-16  0.34352103D-16
  0.55530701D-04  0.55530701D-04 -0.11106140D-03  0.23567762D-17  0.23112105D-16
  0.29245517D-16  0.24220766D-17 -0.14692478D-16  0.45652270D-05  0.24342655D-16
  0.52442617D-16 -0.68478404D-05 -0.31608885D-16 -0.83651831D-17 -0.68478404D-05
 -0.27048549D-16  0.47695696D-17 -0.36104114D-17 -0.14453201D-03  0.38894900D-17
 -0.63125569D-17  0.21679801D-03 -0.18198199D-16  0.17143791D-16  0.21679801D-03
  0.53404900D-17
MO    3     MO 0.0        OCC NO =    2.0000000  ORB. ENERGY =   -6.662119
  0.27079774D-02  0.50665848D-02  0.87484957D-02  0.14148552D-01  0.21354365D-01
  0.29256140D-01  0.33809274D-01  0.28412472D-01  0.12480003D-01  0.14264437D-02
 -0.19225100D-04  0.11957475D-04  0.58818796D-06  0.14313337D+00  0.26771598D+00
  0.46353575D+00  0.75267369D+00  0.11559309D+01  0.16439991D+01  0.20917248D+01
  0.21677633D+01  0.14466004D+01 -0.14247170D+00 -0.10882516D+01 -0.55877268D+00
  0.24510346D-02  0.13334783D-02  0.24918990D-02  0.43210412D-02  0.70070306D-02
  0.10800589D-01  0.15368648D-01  0.19790169D-01  0.20804454D-01  0.14584560D-01
 -0.16933979D-02 -0.13709132D-01 -0.12902156D-01  0.62918555D-02 -0.42489920D-01
 -0.74838484D-03 -0.14980481D-04  0.16852405D-14  0.22046161D-14  0.24119273D-14
  0.19867593D-14  0.10622749D-14  0.29351686D-15 -0.24058258D-18  0.50224085D-15
  0.65702688D-15  0.71881043D-15  0.59210049D-15  0.31658262D-15  0.87474850D-16
 -0.71699206D-19 -0.37746652D-01 -0.49379825D-01 -0.54023259D-01 -0.44500186D-01
 -0.23793234D-01 -0.65743014D-02  0.53886596D-05 -0.15625155D-18 -0.20694053D-18
 -0.22861370D-18 -0.19580833D-18 -0.10682085D-18 -0.32833929D-19  0.14294743D-19
  0.15770036D-15  0.20885933D-15  0.23073346D-15  0.19762391D-15  0.10781132D-15
  0.33138373D-16 -0.14427287D-16  0.20503625D-01  0.27155129D-01  0.29999123D-01
  0.25694340D-01  0.14017235D-01  0.43085305D-02 -0.18757833D-02 -0.12564168D-16
  0.63985191D-17 -0.51718075D-03  0.51438109D-17 -0.20640926D-17  0.25707488D-03
 -0.12060445D-17 -0.94359309D-18  0.13544868D-04  0.64779394D-05  0.64779394D-05
 -0.12955879D-04 -0.42036091D-17  0.79370403D-18  0.90712544D-17 -0.53233308D-03
 -0.53233308D-03  0.10646662D-02  0.12647676D-16 -0.52428714D-16 -0.69693042D-16
  0.20073138D-04  0.20073138D-04 -0.40146276D-04  0.10750200D-17 -0.16477736D-18
  0.59688447D-18 -0.21533424D-17 -0.87678107D-18 -0.88749062D-04 -0.17766029D-17
 -0.66393904D-18  0.13312359D-03  0.82366303D-17  0.32942822D-17  0.13312359D-03
  0.42990995D-18  0.13659082D-18  0.19056988D-18  0.28159326D-04  0.12710416D-18
  0.19062472D-18 -0.42238988D-04 -0.53687661D-18 -0.76233436D-18 -0.42238988D-04
  0.76567669D-19  0.18981519D-03  0.35369267D-03  0.59818297D-03  0.90083040D-03
  0.11152865D-02  0.94905846D-03  0.36113425D-03 -0.16913458D-05 -0.18151648D-04
 -0.34034509D-04 -0.57902827D-04 -0.89916976D-04 -0.11932506D-03 -0.12575223D-03
 -0.77974405D-04  0.51868604D-04  0.31182099D-03 -0.85409309D-03  0.46272131D-05
  0.83905744D-17  0.80590464D-17  0.56515596D-17 -0.33636606D-17 -0.32307558D-17
 -0.22656290D-17  0.16352685D-03  0.15706559D-03  0.11014523D-03  0.45744562D-17
  0.16350429D-17 -0.12078126D-02 -0.11388050D-17  0.72933275D-17 -0.12785228D-02
  0.68607692D-18  0.12430782D-17 -0.29478112D-04 -0.94708103D-04 -0.94708103D-04
  0.18941621D-03  0.14264754D-16  0.23637982D-16  0.20828582D-16  0.47482055D-03
  0.47482055D-03 -0.94964109D-03 -0.10816460D-17 -0.74737245D-17  0.66252214D-18
  0.10882036D-03  0.10882036D-03 -0.21764073D-03 -0.54949292D-18 -0.63403966D-18
  0.18124545D-17  0.37596141D-17 -0.45064942D-17 -0.64467072D-03  0.10571990D-16
  0.15992545D-16  0.96700608D-03 -0.21850832D-16 -0.24730621D-17  0.96700608D-03
 -0.13755552D-16  0.93632644D-18  0.16394055D-18 -0.14374950D-03  0.66405374D-18
 -0.65685639D-18  0.21562424D-03 -0.34730331D-17  0.16503475D-18  0.21562424D-03
  0.98500145D-18
MO    4     MO 0.0        OCC NO =    2.0000000  ORB. ENERGY =   -4.797943
  0.46750320D-16  0.87469143D-16  0.15103338D-15  0.24425955D-15  0.36866016D-15
  0.50507583D-15  0.58368080D-15  0.49051081D-15  0.21545384D-15  0.24626018D-16
 -0.33190070D-18  0.20643296D-18  0.10154433D-19 -0.13414605D-15 -0.25090614D-15
 -0.43443042D-15 -0.70541346D-15 -0.10833502D-14 -0.15407727D-14 -0.19603858D-14
 -0.20316499D-14 -0.13557687D-14  0.13352593D-15  0.10199205D-14  0.52368745D-15
 -0.22971346D-17  0.37437848D-16  0.69960896D-16  0.12131467D-15  0.19672472D-15
  0.30323013D-15  0.43147990D-15  0.55561559D-15  0.58409196D-15  0.40946638D-15
 -0.47542710D-16 -0.38488845D-15 -0.36223233D-15  0.17664594D-15 -0.11557026D-15
  0.21138878D-15  0.34738544D-16  0.16659671D+01  0.21794029D+01  0.23843431D+01
  0.19640376D+01  0.10501261D+01  0.29016003D+00 -0.23783114D-03 -0.77811127D+01
 -0.10179180D+02 -0.11136380D+02 -0.91732894D+01 -0.49047485D+01 -0.13552296D+01
  0.11108208D-02 -0.14117708D-11 -0.18468657D-11 -0.20205357D-11 -0.16643612D-11
 -0.88989596D-12 -0.24588689D-12  0.20154244D-15 -0.22470823D-02 -0.29760498D-02
 -0.32877356D-02 -0.28159556D-02 -0.15362103D-02 -0.47219078D-03  0.20557533D-03
  0.10495286D-01  0.13900022D-01  0.15355790D-01  0.13152281D-01  0.71750672D-02
  0.22054275D-02 -0.96016592D-03  0.34467857D-14  0.45649444D-14  0.50430373D-14
  0.43193768D-14  0.23563835D-14  0.72429051D-15 -0.31533073D-15  0.18674771D-01
 -0.87222912D-01 -0.15267684D-13  0.37585083D-04 -0.17554595D-03 -0.97513440D-16
 -0.74147945D-07  0.34631748D-06 -0.84677867D-18 -0.28639591D-16 -0.10940449D-16
  0.39580041D-16 -0.23159065D-16 -0.64869166D-04  0.30297975D-03  0.94162801D-16
  0.16040037D-15 -0.25456317D-15  0.38524134D-15  0.11942600D-03 -0.55779445D-03
 -0.17603165D-17 -0.26233155D-18  0.20226480D-17  0.30994407D-17 -0.32534868D-05
  0.15195827D-04 -0.11259451D-04  0.52588707D-04 -0.68116752D-17 -0.11260482D-04
  0.52593523D-04 -0.65295683D-16  0.45038834D-04 -0.21035964D-03  0.85730708D-16
 -0.10076571D-15 -0.12928750D-05  0.60385385D-05 -0.13464929D-18 -0.12928243D-05
  0.60383018D-05  0.28964618D-17  0.51714495D-05 -0.24153917D-04 -0.24925139D-17
  0.26860598D-18  0.10112882D-15  0.18843867D-15  0.31869704D-15  0.47994008D-15
  0.59419695D-15  0.50563479D-15  0.19240337D-15 -0.90110704D-18 -0.11590889D-15
 -0.21733026D-15 -0.36974343D-15 -0.57417251D-15 -0.76196032D-15 -0.80300158D-15
 -0.49791221D-15  0.33121139D-15 -0.17720265D-15 -0.35171646D-15 -0.12664499D-15
  0.76362385D-04  0.73345158D-04  0.51434688D-04 -0.35666031D-03 -0.34256796D-03
 -0.24023230D-03 -0.90508740D-15 -0.86932562D-15 -0.60963113D-15  0.38951781D-04
 -0.18192928D-03  0.41415128D-15 -0.81717712D-04  0.38167305D-03 -0.26186289D-15
 -0.42507471D-05  0.19853659D-04  0.44090245D-19  0.87424550D-15 -0.51928877D-15
 -0.35495673D-15  0.81746062D-15  0.22533765D-03 -0.10524684D-02 -0.15751748D-15
 -0.38131927D-16  0.19564941D-15 -0.89677939D-16 -0.55783831D-04  0.26054553D-03
  0.19817515D-16  0.93053630D-17 -0.29122878D-16  0.70808672D-17 -0.30358089D-04
  0.14179135D-03 -0.43287201D-04  0.20217842D-03  0.47990986D-15 -0.43286987D-04
  0.20217742D-03 -0.11937793D-14  0.17314859D-03 -0.80871267D-03 -0.24595025D-15
 -0.17588215D-15  0.12164587D-04 -0.56816261D-04  0.46101050D-17  0.12164553D-04
 -0.56816104D-04  0.11933856D-16 -0.48658313D-04  0.22726489D-03 -0.25764172D-16
  0.21022981D-17
MO    5     MO 0.0        OCC NO =    2.0000000  ORB. ENERGY =   -4.797943
  0.43395819D-16  0.81192921D-16  0.14019620D-15  0.22673306D-15  0.34220749D-15
  0.46883485D-15  0.54179963D-15  0.45531491D-15  0.19999426D-15  0.22859014D-16
 -0.30808564D-18  0.19162066D-18  0.94258165D-20 -0.92428487D-16 -0.17287781D-15
 -0.29932858D-15 -0.48603964D-15 -0.74644331D-15 -0.10616137D-14 -0.13507330D-14
 -0.13998349D-14 -0.93414339D-15  0.92001213D-16  0.70273936D-15  0.36082791D-15
 -0.15827576D-17  0.10108897D-16  0.18890709D-16  0.32757158D-16  0.53119236D-16
  0.81877625D-16  0.11650739D-15  0.15002627D-15  0.15771541D-15  0.11056334D-15
 -0.12837393D-16 -0.10392685D-15 -0.97809289D-16  0.47697603D-16 -0.21141004D-15
  0.43284349D-16 -0.38512587D-17  0.77811127D+01  0.10179180D+02  0.11136380D+02
  0.91732894D+01  0.49047485D+01  0.13552296D+01 -0.11108208D-02  0.16659671D+01
  0.21794029D+01  0.23843431D+01  0.19640376D+01  0.10501261D+01  0.29016003D+00
 -0.23783114D-03 -0.45647619D-13 -0.59715797D-13 -0.65331174D-13 -0.53814773D-13
 -0.28773531D-13 -0.79504059D-14  0.65165906D-17 -0.10495286D-01 -0.13900022D-01
 -0.15355790D-01 -0.13152281D-01 -0.71750672D-02 -0.22054275D-02  0.96016592D-03
 -0.22470823D-02 -0.29760498D-02 -0.32877356D-02 -0.28159556D-02 -0.15362103D-02
 -0.47219078D-03  0.20557533D-03 -0.58293652D-15 -0.77204475D-15 -0.85290206D-15
 -0.73051322D-15 -0.39852260D-15 -0.12249540D-15  0.53330208D-16  0.87222912D-01
  0.18674771D-01 -0.62085134D-15  0.17554595D-03  0.37585083D-04  0.32705325D-16
 -0.34631748D-06 -0.74147945D-07 -0.24822067D-18  0.50455172D-17  0.39029394D-17
 -0.89484566D-17  0.11199186D-15 -0.30297975D-03 -0.64869166D-04  0.14628105D-16
  0.12497735D-16 -0.27125840D-16 -0.72947338D-15  0.55779445D-03  0.11942600D-03
  0.94415796D-18  0.18487217D-17 -0.27928797D-17 -0.58310378D-18 -0.15195827D-04
 -0.32534868D-05 -0.52588707D-04 -0.11259451D-04  0.19746641D-16 -0.52593523D-04
 -0.11260482D-04 -0.97086152D-16  0.21035964D-03  0.45038834D-04  0.37846228D-16
 -0.84006715D-16 -0.60385385D-05 -0.12928750D-05  0.94266238D-18 -0.60383018D-05
 -0.12928243D-05  0.10946328D-17  0.24153917D-04  0.51714495D-05 -0.39226200D-17
  0.38804661D-18  0.13177961D-15  0.24555191D-15  0.41528983D-15  0.62540348D-15
  0.77429007D-15  0.65888591D-15  0.25071824D-15 -0.11742205D-17 -0.63074080D-16
 -0.11826449D-15 -0.20120309D-15 -0.31244715D-15 -0.41463554D-15 -0.43696894D-15
 -0.27094862D-15  0.18023513D-15 -0.23616958D-15  0.66172842D-16 -0.50964171D-16
  0.35666031D-03  0.34256796D-03  0.24023230D-03  0.76362385D-04  0.73345158D-04
  0.51434688D-04  0.28422581D-15  0.27299550D-15  0.19144329D-15  0.18192928D-03
  0.38951781D-04 -0.11688686D-15 -0.38167305D-03 -0.81717712D-04  0.12182772D-16
 -0.19853659D-04 -0.42507471D-05 -0.21744291D-16  0.57310579D-15 -0.76025731D-15
  0.18715152D-15  0.70132038D-15  0.10524684D-02  0.22533765D-03 -0.84654945D-16
  0.36317538D-16  0.48337408D-16 -0.54204485D-16 -0.26054553D-03 -0.55783831D-04
  0.17284686D-16  0.50343879D-17 -0.22319074D-16 -0.17293227D-16 -0.14179135D-03
 -0.30358089D-04 -0.20217842D-03 -0.43287201D-04  0.69783442D-16 -0.20217742D-03
 -0.43286987D-04 -0.51210156D-15  0.80871267D-03  0.17314859D-03  0.30275124D-15
 -0.13494462D-15  0.56816261D-04  0.12164587D-04 -0.52647011D-17  0.56816104D-04
  0.12164553D-04  0.25711289D-16 -0.22726489D-03 -0.48658313D-04 -0.99171853D-17
 -0.66757910D-16
MO    6     MO 0.0        OCC NO =    2.0000000  ORB. ENERGY =   -4.793327
  0.33697278D-03  0.63047098D-03  0.10886372D-02  0.17606044D-02  0.26572746D-02
  0.36405485D-02  0.42071272D-02  0.35355649D-02  0.15529750D-02  0.17750248D-03
 -0.23923152D-05  0.14879532D-05  0.73192388D-07 -0.88462886D-03 -0.16546056D-02
 -0.28648603D-02 -0.46518634D-02 -0.71441751D-02 -0.10160657D-01 -0.12927804D-01
 -0.13397756D-01 -0.89406441D-02  0.88053945D-03  0.67258866D-02  0.34534676D-02
 -0.15148501D-04  0.32094620D-03  0.59975891D-03  0.10400032D-02  0.16864765D-02
  0.25995232D-02  0.36989795D-02  0.47631667D-02  0.50072881D-02  0.35102625D-02
 -0.40757289D-03 -0.32995615D-02 -0.31053357D-02  0.15143456D-02 -0.12200198D-02
  0.24147708D-02  0.41239459D-03 -0.33960106D-12 -0.44426299D-12 -0.48603928D-12
 -0.40036160D-12 -0.21406421D-12 -0.59148020D-13  0.48480975D-16  0.13677555D-11
  0.17892852D-11  0.19575407D-11  0.16124708D-11  0.86215135D-12  0.23822078D-12
 -0.19525887D-15 -0.79833311D+01 -0.10443721D+02 -0.11425796D+02 -0.94116881D+01
 -0.50322149D+01 -0.13904498D+01  0.11396892D-02  0.11809151D-14  0.15640113D-14
  0.17278123D-14  0.14798765D-14  0.80732865D-15  0.24815166D-15 -0.10803654D-15
 -0.23410557D-14 -0.31005088D-14 -0.34252293D-14 -0.29337193D-14 -0.16004549D-14
 -0.49193788D-15  0.21417253D-15  0.33815914D-01  0.44786006D-01  0.49476506D-01
  0.42376778D-01  0.23118136D-01  0.71059089D-02 -0.30936639D-02 -0.38161357D-14
  0.15352907D-13 -0.87205658D-01 -0.27122865D-16  0.33188957D-16 -0.80449903D-03
  0.11415568D-17 -0.91781930D-19 -0.13844007D-04 -0.26216632D-03 -0.26216632D-03
  0.52433263D-03 -0.11817811D-16  0.37224402D-16 -0.62549598D-16 -0.18507314D-03
 -0.18507314D-03  0.37014629D-03  0.61798692D-16  0.15047581D-17  0.93531784D-16
 -0.10606658D-04 -0.10606658D-04  0.21213316D-04  0.12131287D-17  0.21855428D-17
 -0.38100119D-17  0.41569271D-17 -0.12253690D-16 -0.33524627D-03  0.41225865D-17
 -0.12251568D-16  0.50286941D-03 -0.16593368D-16  0.49012638D-16  0.50286941D-03
 -0.57079442D-18  0.13168110D-17 -0.10626882D-17 -0.12517727D-04  0.13269809D-17
 -0.10371467D-17  0.18776590D-04 -0.52774139D-17  0.42252113D-17  0.18776590D-04
  0.37058959D-18 -0.21985781D-03 -0.40967265D-03 -0.69285916D-03 -0.10434075D-02
 -0.12918062D-02 -0.10992688D-02 -0.41829204D-03  0.19590401D-05 -0.23374318D-03
 -0.43827064D-03 -0.74562877D-03 -0.11578827D-02 -0.15365778D-02 -0.16193420D-02
 -0.10040954D-02  0.66792462D-03  0.36383154D-03 -0.33741908D-02 -0.11092835D-02
 -0.70923597D-17 -0.68121267D-17 -0.47771334D-17  0.94640699D-16  0.90901260D-16
  0.63746238D-16  0.35921375D-02  0.34502052D-02  0.24195220D-02 -0.56584344D-17
  0.45145280D-16 -0.44905155D-03  0.59358440D-16 -0.78760594D-16 -0.14946836D-02
  0.14392443D-17 -0.30318775D-17 -0.10657670D-03 -0.57994194D-03 -0.57994194D-03
  0.11598839D-02  0.13708534D-16 -0.13523207D-15  0.15847956D-15  0.10886211D-03
  0.10886211D-03 -0.21772422D-03 -0.33274716D-17  0.41523334D-16 -0.51545956D-16
  0.54654004D-04  0.54654004D-04 -0.10930801D-03  0.54429428D-18  0.17103444D-16
 -0.31525799D-16  0.14352604D-16 -0.41812551D-16  0.14870622D-02  0.21271052D-16
 -0.20731460D-16 -0.22305933D-02 -0.64328865D-16  0.14616911D-15 -0.22305933D-02
 -0.15063016D-16 -0.51408270D-17  0.14112856D-16 -0.16003811D-04 -0.54201931D-17
  0.13259888D-16  0.24005716D-04  0.20842674D-16 -0.55598455D-16  0.24005716D-04
  0.24531656D-17
MO    7     MO 0.0        OCC NO =    2.0000000  ORB. ENERGY =   -0.882563
  0.11328610D-02  0.21195657D-02  0.36598641D-02  0.59189351D-02  0.89334298D-02
  0.12239075D-01  0.14143843D-01  0.11886133D-01  0.52209105D-02  0.59674146D-03
 -0.80426687D-05  0.50023152D-05  0.24606378D-06 -0.44394074D-02 -0.83034466D-02
 -0.14376969D-01 -0.23344837D-01 -0.35852215D-01 -0.50990079D-01 -0.64876686D-01
 -0.67235087D-01 -0.44867586D-01  0.44188851D-02  0.33753082D-01  0.17330826D-01
 -0.76020996D-04 -0.19500412D-01 -0.36440831D-01 -0.63189693D-01 -0.10246885D+00
 -0.15794477D+00 -0.22474678D+00 -0.28940587D+00 -0.30423848D+00 -0.21328050D+00
  0.24763775D-01  0.20047850D+00  0.18867750D+00 -0.92010327D-01 -0.20470061D-01
 -0.11584622D-01  0.17254755D-03 -0.12020533D-14 -0.15725151D-14 -0.17203866D-14
 -0.14171216D-14 -0.75770257D-15 -0.20936057D-15  0.17160346D-18 -0.19890124D-15
 -0.26020078D-15 -0.28466878D-15 -0.23448814D-15 -0.12537546D-15 -0.34642456D-16
  0.28394865D-19 -0.39251862D+00 -0.51348927D+00 -0.56177525D+00 -0.46274704D+00
 -0.24742029D+00 -0.68364626D-01  0.56035413D-04 -0.29905345D-16 -0.39606825D-16
 -0.43754902D-16 -0.37476207D-16 -0.20444689D-16 -0.62841614D-17  0.27359038D-17
  0.31968314D-17  0.42339034D-17  0.46773259D-17  0.40061439D-17  0.21855031D-17
  0.67176635D-18 -0.29246355D-18 -0.42590758D+00 -0.56407465D+00 -0.62315096D+00
 -0.53373070D+00 -0.29117029D+00 -0.89498113D-01  0.38964345D-01 -0.11898763D-16
  0.53112205D-17  0.59840463D-01  0.31438092D-17  0.21636965D-16  0.37307673D-03
 -0.40996156D-19 -0.66500782D-18 -0.39258671D-04  0.11406816D-02  0.11406816D-02
 -0.22813632D-02 -0.62352708D-17 -0.22205467D-17 -0.11673440D-16  0.17492290D-01
  0.17492290D-01 -0.34984579D-01  0.74129594D-17  0.49889567D-16 -0.76312335D-16
 -0.61911773D-04 -0.61911773D-04  0.12382355D-03 -0.73509729D-18 -0.10176562D-17
 -0.85895034D-19  0.15262069D-17 -0.37555576D-17  0.32663886D-02  0.10887006D-17
 -0.38956259D-17 -0.48995829D-02 -0.56673213D-17  0.15162299D-16 -0.48995829D-02
  0.37014398D-17 -0.11074634D-18 -0.41732102D-19 -0.86612701D-04 -0.26582662D-18
 -0.15017586D-18  0.12991905D-03  0.59806564D-18  0.27537217D-18  0.12991905D-03
 -0.25317299D-17  0.82440423D-02  0.15361559D-01  0.25980247D-01  0.39124813D-01
  0.48439056D-01  0.41219451D-01  0.15684761D-01 -0.73458429D-04  0.66981132D-01
  0.12559025D+00  0.21366638D+00  0.33180133D+00  0.44031966D+00  0.46403648D+00
  0.28773222D+00 -0.19139958D+00 -0.99464223D-01 -0.39080448D-01  0.37290097D-03
 -0.16250912D-16 -0.15608807D-16 -0.10945973D-16 -0.75811955D-16 -0.72816476D-16
 -0.51063939D-16 -0.31850038D+00 -0.30591581D+00 -0.21452928D+00 -0.21252162D-17
 -0.53649001D-17 -0.73495592D-01 -0.52378529D-17 -0.20756580D-16 -0.29848486D-02
 -0.10518965D-17 -0.22858446D-17  0.27476739D-03  0.14806271D-01  0.14806271D-01
 -0.29612542D-01 -0.43512758D-16 -0.37536294D-16 -0.15710052D-16  0.31688113D-02
  0.31688113D-02 -0.63376226D-02 -0.10590814D-16  0.42264306D-17 -0.16014885D-16
 -0.11525154D-03 -0.11525154D-03  0.23050308D-03 -0.14869853D-17 -0.40365424D-17
 -0.11811124D-16 -0.15381995D-17 -0.36915205D-17 -0.65521085D-02 -0.11439605D-17
 -0.64722596D-17  0.98281627D-02  0.57585590D-17  0.17546821D-16  0.98281627D-02
 -0.23036746D-16 -0.29572743D-18  0.37977767D-17 -0.44377211D-03 -0.65985331D-18
  0.40830873D-17  0.66565817D-03  0.15470356D-17 -0.15476418D-16  0.66565817D-03
  0.84827064D-18
MO    8     MO 0.0        OCC NO =    2.0000000  ORB. ENERGY =   -0.511298
  0.39964096D-03  0.74772220D-03  0.12910954D-02  0.20880311D-02  0.31514587D-02
  0.43175959D-02  0.49895435D-02  0.41930881D-02  0.18417880D-02  0.21051333D-03
 -0.28372236D-05  0.17646738D-05  0.86804270D-07 -0.11061126D-02 -0.20688677D-02
 -0.35821327D-02 -0.58165461D-02 -0.89328557D-02 -0.12704571D-01 -0.16164527D-01
 -0.16752140D-01 -0.11179105D-01  0.11009993D-02  0.84098406D-02  0.43181090D-02
 -0.18941217D-04 -0.33359116D-01 -0.62338882D-01 -0.10809783D+00 -0.17529220D+00
 -0.27019418D+00 -0.38447156D+00 -0.49508307D+00 -0.52045703D+00 -0.36485634D+00
  0.42363086D-01  0.34295610D+00  0.32276829D+00 -0.15740094D+00 -0.33632066D-01