 Molden2AIM, Version 4.0.0 (06/02/2016)           Time: Wed Jun 27 19:50:25 2018
GAUSSIAN             10 MOL ORBITALS    206 PRIMITIVES        2 NUCLEI
  Si   1    (CENTRE  1)   0.00000000  0.00000000  1.54557865  CHARGE = 14.0
  C    2    (CENTRE  2)   0.00000000  0.00000000 -1.54557865  CHARGE =  6.0
CENTRE ASSIGNMENTS    1  1  1  1  1  1  1  1  1  1  1  1  1  1  1  1  1  1  1  1
CENTRE ASSIGNMENTS    1  1  1  1  1  1  1  1  1  1  1  1  1  1  1  1  1  1  1  1
CENTRE ASSIGNMENTS    1  1  1  1  1  1  1  1  1  1  1  1  1  1  1  1  1  1  1  1
CENTRE ASSIGNMENTS    1  1  1  1  1  1  1  1  1  1  1  1  1  1  1  1  1  1  1  1
CENTRE ASSIGNMENTS    1  1  1  1  1  1  1  1  1  1  1  1  1  1  1  1  1  1  1  1
CENTRE ASSIGNMENTS    1  1  1  1  1  1  1  1  1  1  1  1  1  1  1  1  1  1  1  1
CENTRE ASSIGNMENTS    1  1  1  1  1  1  1  1  1  1  1  2  2  2  2  2  2  2  2  2
CENTRE ASSIGNMENTS    2  2  2  2  2  2  2  2  2  2  2  2  2  2  2  2  2  2  2  2
CENTRE ASSIGNMENTS    2  2  2  2  2  2  2  2  2  2  2  2  2  2  2  2  2  2  2  2
CENTRE ASSIGNMENTS    2  2  2  2  2  2  2  2  2  2  2  2  2  2  2  2  2  2  2  2
CENTRE ASSIGNMENTS    2  2  2  2  2  2
TYPE ASSIGNMENTS      1  1  1  1  1  1  1  1  1  1  1  1  1  1  1  1  1  1  1  1
TYPE ASSIGNMENTS      1  1  1  1  1  1  1  1  1  1  1  1  1  1  1  1  1  1  1  1
TYPE ASSIGNMENTS      1  1  2  2  2  2  2  2  2  3  3  3  3  3  3  3  4  4  4  4
TYPE ASSIGNMENTS      4  4  4  2  2  2  2  2  2  2  3  3  3  3  3  3  3  4  4  4
TYPE ASSIGNMENTS      4  4  4  4  2  3  4  2  3  4  2  3  4  5  6  7  8  9 10  5
TYPE ASSIGNMENTS      6  7  8  9 10  5  6  7  8  9 10 11 12 13 17 14 15 18 19 16
TYPE ASSIGNMENTS     20 11 12 13 17 14 15 18 19 16 20  1  1  1  1  1  1  1  1  1
TYPE ASSIGNMENTS      1  1  1  1  1  1  1  1  1  1  2  2  2  3  3  3  4  4  4  2
TYPE ASSIGNMENTS      3  4  2  3  4  2  3  4  5  6  7  8  9 10  5  6  7  8  9 10
TYPE ASSIGNMENTS      5  6  7  8  9 10 11 12 13 17 14 15 18 19 16 20 11 12 13 17
TYPE ASSIGNMENTS     14 15 18 19 16 20
EXPONENTS  0.2549000D+06 0.3819000D+05 0.8690000D+04 0.2462000D+04 0.8048000D+03
EXPONENTS  0.2913000D+03 0.1136000D+03 0.4675000D+02 0.1982000D+02 0.7708000D+01
EXPONENTS  0.3340000D+01 0.1402000D+01 0.2070000D+00 0.2549000D+06 0.3819000D+05
EXPONENTS  0.8690000D+04 0.2462000D+04 0.8048000D+03 0.2913000D+03 0.1136000D+03
EXPONENTS  0.4675000D+02 0.1982000D+02 0.7708000D+01 0.3340000D+01 0.1402000D+01
EXPONENTS  0.2070000D+00 0.2549000D+06 0.3819000D+05 0.8690000D+04 0.2462000D+04
EXPONENTS  0.8048000D+03 0.2913000D+03 0.1136000D+03 0.4675000D+02 0.1982000D+02
EXPONENTS  0.7708000D+01 0.3340000D+01 0.1402000D+01 0.2070000D+00 0.4387000D+00
EXPONENTS  0.7944000D-01 0.3300000D-01 0.4815000D+03 0.1139000D+03 0.3623000D+02
EXPONENTS  0.1334000D+02 0.5252000D+01 0.2120000D+01 0.2528000D+00 0.4815000D+03
EXPONENTS  0.1139000D+03 0.3623000D+02 0.1334000D+02 0.5252000D+01 0.2120000D+01
EXPONENTS  0.2528000D+00 0.4815000D+03 0.1139000D+03 0.3623000D+02 0.1334000D+02
EXPONENTS  0.5252000D+01 0.2120000D+01 0.2528000D+00 0.4815000D+03 0.1139000D+03
EXPONENTS  0.3623000D+02 0.1334000D+02 0.5252000D+01 0.2120000D+01 0.2528000D+00
EXPONENTS  0.4815000D+03 0.1139000D+03 0.3623000D+02 0.1334000D+02 0.5252000D+01
EXPONENTS  0.2120000D+01 0.2528000D+00 0.4815000D+03 0.1139000D+03 0.3623000D+02
EXPONENTS  0.1334000D+02 0.5252000D+01 0.2120000D+01 0.2528000D+00 0.8561000D+00
EXPONENTS  0.8561000D+00 0.8561000D+00 0.7889000D-01 0.7889000D-01 0.7889000D-01
EXPONENTS  0.2370000D-01 0.2370000D-01 0.2370000D-01 0.1590000D+00 0.1590000D+00
EXPONENTS  0.1590000D+00 0.1590000D+00 0.1590000D+00 0.1590000D+00 0.4810000D+00
EXPONENTS  0.4810000D+00 0.4810000D+00 0.4810000D+00 0.4810000D+00 0.4810000D+00
EXPONENTS  0.5560000D-01 0.5560000D-01 0.5560000D-01 0.5560000D-01 0.5560000D-01
EXPONENTS  0.5560000D-01 0.3360000D+00 0.3360000D+00 0.3360000D+00 0.3360000D+00
EXPONENTS  0.3360000D+00 0.3360000D+00 0.3360000D+00 0.3360000D+00 0.3360000D+00
EXPONENTS  0.3360000D+00 0.1250000D+00 0.1250000D+00 0.1250000D+00 0.1250000D+00
EXPONENTS  0.1250000D+00 0.1250000D+00 0.1250000D+00 0.1250000D+00 0.1250000D+00
EXPONENTS  0.1250000D+00 0.8236000D+04 0.1235000D+04 0.2808000D+03 0.7927000D+02
EXPONENTS  0.2559000D+02 0.8997000D+01 0.3319000D+01 0.3643000D+00 0.8236000D+04
EXPONENTS  0.1235000D+04 0.2808000D+03 0.7927000D+02 0.2559000D+02 0.8997000D+01
EXPONENTS  0.3319000D+01 0.3643000D+00 0.9059000D+00 0.1285000D+00 0.4402000D-01
EXPONENTS  0.1871000D+02 0.4133000D+01 0.1200000D+01 0.1871000D+02 0.4133000D+01
EXPONENTS  0.1200000D+01 0.1871000D+02 0.4133000D+01 0.1200000D+01 0.3827000D+00
EXPONENTS  0.3827000D+00 0.3827000D+00 0.1209000D+00 0.1209000D+00 0.1209000D+00
EXPONENTS  0.3569000D-01 0.3569000D-01 0.3569000D-01 0.1097000D+01 0.1097000D+01
EXPONENTS  0.1097000D+01 0.1097000D+01 0.1097000D+01 0.1097000D+01 0.3180000D+00
EXPONENTS  0.3180000D+00 0.3180000D+00 0.3180000D+00 0.3180000D+00 0.3180000D+00
EXPONENTS  0.1000000D+00 0.1000000D+00 0.1000000D+00 0.1000000D+00 0.1000000D+00
EXPONENTS  0.1000000D+00 0.7610000D+00 0.7610000D+00 0.7610000D+00 0.7610000D+00
EXPONENTS  0.7610000D+00 0.7610000D+00 0.7610000D+00 0.7610000D+00 0.7610000D+00
EXPONENTS  0.7610000D+00 0.2680000D+00 0.2680000D+00 0.2680000D+00 0.2680000D+00
EXPONENTS  0.2680000D+00 0.2680000D+00 0.2680000D+00 0.2680000D+00 0.2680000D+00
EXPONENTS  0.2680000D+00
MO    1     MO 0.0        OCC NO =    2.0000000  ORB. ENERGY =  -66.315876
  0.50596571D+00  0.94643851D+00  0.16344568D+01  0.26400738D+01  0.39758967D+01
  0.54072008D+01  0.61555499D+01  0.49868396D+01  0.20242567D+01  0.18458437D+00
 -0.70936183D-02  0.23720549D-02  0.13311434D-03 -0.10697223D-02 -0.20022255D-02
 -0.34629261D-02 -0.56283604D-02 -0.86113454D-02 -0.12220094D-01 -0.15329093D-01
 -0.15629339D-01 -0.96029765D-02  0.20928902D-02  0.76659470D-02  0.35061343D-02
 -0.18610753D-04  0.51813722D-03  0.96909749D-03  0.16782143D-02  0.27248280D-02
  0.41825559D-02  0.59411341D-02  0.75372709D-02  0.78031119D-02  0.50261522D-02
 -0.12362083D-02 -0.50391655D-02 -0.43950291D-02  0.22399356D-02 -0.16407463D-02
  0.28589662D-03  0.93322192D-04  0.44990486D-12  0.59344770D-12  0.65917461D-12
  0.56416056D-12  0.32235681D-12  0.10461181D-12  0.73660196D-16 -0.53520273D-11
 -0.70595998D-11 -0.78414812D-11 -0.67112027D-11 -0.38347273D-11 -0.12444526D-11
 -0.87625499D-15 -0.11086823D-01 -0.14624090D-01 -0.16243772D-01 -0.13902379D-01
 -0.79437078D-02 -0.25779063D-02 -0.18151783D-05 -0.83863324D-13 -0.11468202D-12
 -0.12467090D-12 -0.11444137D-12 -0.62375194D-13 -0.26321134D-13  0.90778398D-14
  0.99764421D-12  0.13642656D-11  0.14830942D-11  0.13614029D-11  0.74201985D-12
  0.31311813D-12 -0.10799064D-12  0.97734192D-02  0.13365025D-01  0.14529128D-01
  0.13336980D-01  0.72691957D-02  0.30674610D-02 -0.10579301D-02 -0.42477093D-13
  0.50530368D-12  0.16875035D-03  0.18851279D-14 -0.22425788D-13 -0.47832076D-04
  0.62659743D-16 -0.74541693D-15  0.16668882D-05 -0.75748799D-05 -0.75748799D-05
  0.15149760D-04  0.55265400D-20 -0.33702461D-14  0.40092939D-13 -0.21889524D-03
 -0.21889524D-03  0.43779048D-03 -0.28773933D-19  0.87194995D-14 -0.10372523D-12
  0.35317483D-05  0.35317483D-05 -0.70634965D-05 -0.56008997D-21 -0.17199165D-15
  0.20460158D-14 -0.22146330D-15  0.26346648D-14 -0.49601222D-04 -0.22146220D-15
  0.26346488D-14  0.74401833D-04  0.88585212D-15 -0.10538643D-13  0.74401833D-04
 -0.62223844D-21 -0.80595834D-16  0.95876868D-15  0.73377637D-05 -0.80595882D-16
  0.95876943D-15 -0.11006646D-04  0.32238338D-15 -0.38350755D-14 -0.11006646D-04
  0.60154545D-21  0.42680181D-04  0.79565562D-04  0.13447982D-03  0.20216721D-03
  0.24838578D-03  0.20980150D-03  0.79129407D-04 -0.39161585D-06 -0.32759938D-04
 -0.61336940D-04 -0.10443139D-03 -0.16153948D-03 -0.21274181D-03 -0.22105237D-03
 -0.14046886D-03  0.94138961D-04  0.18941872D-03 -0.86155303D-03 -0.26377495D-03
 -0.31659544D-14 -0.29682834D-14 -0.21135946D-14  0.37661343D-13  0.35309903D-13
  0.25142754D-13  0.49357850D-03  0.46276122D-03  0.32951356D-03 -0.15910153D-14
  0.18927087D-13 -0.63203497D-03 -0.49681951D-14  0.59102246D-13 -0.61761617D-03
 -0.22158981D-15  0.26360630D-14 -0.29448109D-04 -0.11095218D-03 -0.11095218D-03
  0.22190436D-03  0.46938161D-20  0.26602882D-14 -0.31648168D-13  0.19883292D-03
  0.19883292D-03 -0.39766584D-03  0.18967022D-20 -0.48637990D-14  0.57860905D-13
  0.29021567D-04  0.29021567D-04 -0.58043133D-04  0.83431627D-21 -0.11346835D-14
  0.13498388D-13 -0.28793738D-15  0.34253876D-14 -0.29590377D-04 -0.28793661D-15
  0.34253763D-14  0.44385565D-04  0.11517487D-14 -0.13701539D-13  0.44385565D-04
 -0.15754977D-20  0.36652626D-15 -0.43603192D-14 -0.53587156D-04  0.36652618D-15
 -0.43603190D-14  0.80380734D-04 -0.14661050D-14  0.17441277D-13  0.80380734D-04
  0.56899264D-20
MO    2     MO 0.0        OCC NO =    2.0000000  ORB. ENERGY =  -10.318581
  0.23312678D-04  0.43607730D-04  0.75308591D-04  0.12164300D-03  0.18319186D-03
  0.24914007D-03  0.28362071D-03  0.22977167D-03  0.93268860D-04  0.85048371D-05
 -0.32684278D-06  0.10929387D-06  0.61333244D-08 -0.65231408D-04 -0.12209523D-03
 -0.21116840D-03 -0.34321607D-03 -0.52511779D-03 -0.74517843D-03 -0.93476446D-03
 -0.95307335D-03 -0.58558722D-03  0.12762394D-03  0.46746762D-03  0.21380323D-03
 -0.11348793D-05  0.46703277D-04  0.87351433D-04  0.15126901D-03  0.24560752D-03
  0.37700258D-03  0.53551535D-03  0.67938616D-03  0.70334824D-03  0.45304173D-03
 -0.11142797D-03 -0.45421470D-03 -0.39615425D-03  0.20190083D-03  0.66560681D-03
 -0.12486218D-03  0.48159200D-04  0.60609226D-12  0.79946693D-12  0.88801137D-12
  0.76001257D-12  0.43426507D-12  0.14092848D-12  0.99231813D-16 -0.71894653D-11
 -0.94832753D-11 -0.10533589D-10 -0.90152677D-11 -0.51512515D-11 -0.16716934D-11
 -0.11770876D-14  0.43111159D-02  0.56865841D-02  0.63163980D-02  0.54059464D-02
  0.30889143D-02  0.10024200D-02  0.70583288D-06 -0.91670246D-12 -0.12535788D-11
 -0.13627665D-11 -0.12509483D-11 -0.68181765D-12 -0.28771395D-12  0.99229052D-13
  0.10906379D-10  0.14914333D-10  0.16213382D-10  0.14883037D-10  0.81118596D-11
  0.34230490D-11 -0.11805681D-11 -0.32974208D-02 -0.45091805D-02 -0.49019334D-02
 -0.44997186D-02 -0.24525293D-02 -0.10349203D-02  0.35693145D-03 -0.41189478D-13
  0.48988565D-12 -0.97218129D-03 -0.11021190D-12  0.13107296D-11  0.20762786D-03
 -0.29440601D-14  0.35021072D-13 -0.13116695D-05  0.86075150D-04  0.86075150D-04
 -0.17215030D-03  0.56637291D-17  0.32911135D-13 -0.39115190D-12  0.12349701D-03
  0.12349701D-03 -0.24699402D-03 -0.33205144D-16 -0.34565061D-12  0.41111947D-11
  0.49500152D-05  0.49500152D-05 -0.99000305D-05  0.23874347D-18  0.17584545D-13
 -0.20914460D-12 -0.45643318D-13  0.54297821D-12  0.16704225D-03 -0.45643323D-13
  0.54297825D-12 -0.25056338D-03  0.18257328D-12 -0.21719129D-11 -0.25056338D-03
 -0.34335436D-17  0.36213003D-14 -0.43067100D-13  0.68218746D-05  0.36213095D-14
 -0.43067207D-13 -0.10232812D-04 -0.14485210D-13  0.17226851D-12 -0.10232812D-04
  0.40451164D-18  0.32568404D+00  0.60714910D+00  0.10261889D+01  0.15426981D+01
  0.18953829D+01  0.16009538D+01  0.60382089D+00 -0.29883433D-02 -0.15552550D-04
 -0.29119282D-04 -0.49578068D-04 -0.76689733D-04 -0.10099768D-03 -0.10494306D-03
 -0.66686603D-04  0.44691811D-04  0.32392790D-01  0.10254092D-02 -0.24297770D-03
  0.95963351D-11  0.89971741D-11  0.64065240D-11 -0.11415684D-09 -0.10702929D-09
 -0.76211230D-10 -0.14072828D-02 -0.13194170D-02 -0.93950353D-03 -0.12605483D-11
  0.14995084D-10  0.12934677D-02  0.27797220D-12 -0.33062011D-11 -0.31660248D-03
  0.11410255D-13 -0.13566355D-12 -0.30309078D-04 -0.65916791D-03 -0.65916791D-03
  0.13183358D-02 -0.48631067D-17 -0.10684984D-11  0.12710265D-10  0.47606159D-04
  0.47606159D-04 -0.95212318D-04  0.13079116D-17  0.75180548D-13 -0.89415977D-12
  0.29859579D-04  0.29859579D-04 -0.59719159D-04 -0.21082830D-17  0.36790392D-13
 -0.43746903D-12  0.11297261D-12 -0.13438115D-11  0.25622880D-03  0.11297742D-12
 -0.13438671D-11 -0.38434321D-03 -0.45189525D-12  0.53753015D-11 -0.38434321D-03
  0.57739723D-18 -0.12875052D-14  0.15285407D-13 -0.65128787D-04 -0.12877581D-14
  0.15288347D-13  0.97693180D-04  0.51502738D-14 -0.61144568D-13  0.97693180D-04
  0.11149394D-17
MO    3     MO 0.0        OCC NO =    2.0000000  ORB. ENERGY =   -5.379570
  0.23311198D-02  0.43604962D-02  0.75303810D-02  0.12163528D-01  0.18318023D-01
  0.24912425D-01  0.28360270D-01  0.22975708D-01  0.93262939D-02  0.85042972D-03
 -0.32682203D-04  0.10928693D-04  0.61329350D-06  0.13057823D+00  0.24440649D+00
  0.42271042D+00  0.68703938D+00  0.10511646D+01  0.14916753D+01  0.18711827D+01
  0.19078329D+01  0.11722105D+01 -0.25547368D+00 -0.93576230D+00 -0.42798473D+00
  0.22717664D-02  0.12361893D-02  0.23121056D-02  0.40039404D-02  0.65009870D-02
  0.99788835D-02  0.14174559D-01  0.17982676D-01  0.18616929D-01  0.11991564D-01
 -0.29493876D-02 -0.12022612D-01 -0.10485809D-01  0.53441143D-02 -0.28132430D-01
 -0.63860312D-03  0.16524977D-03 -0.16625455D-10 -0.21929832D-10 -0.24358656D-10
 -0.20847576D-10 -0.11912137D-10 -0.38657483D-11 -0.27219849D-14  0.19776599D-09
  0.26086354D-09  0.28975531D-09  0.24798970D-09  0.14169932D-09  0.45984519D-10
  0.32379027D-13 -0.34126120D-01 -0.45014111D-01 -0.49999620D-01 -0.42792627D-01
 -0.24451363D-01 -0.79350004D-02 -0.55872628D-05 -0.68180923D-11 -0.93236536D-11
 -0.10135751D-10 -0.93040890D-11 -0.50711063D-11 -0.21399095D-11  0.73802882D-12
  0.81105271D-10  0.11091041D-09  0.12057079D-09  0.11067768D-09  0.60323831D-10
  0.25455498D-10 -0.87792926D-11  0.93343458D-02  0.12764598D-01  0.13876404D-01
  0.12737813D-01  0.69426253D-02  0.29296545D-02 -0.10104023D-02 -0.15520341D-11
  0.18462385D-10 -0.14000767D-02 -0.93996237D-13  0.11180559D-11  0.58105898D-04
 -0.86145849D-15  0.10245102D-13  0.51086171D-05  0.13403750D-04  0.13403750D-04
 -0.26807501D-04 -0.18264677D-17  0.18071056D-12 -0.21496372D-11 -0.47822948D-04
 -0.47822948D-04  0.95645896D-04 -0.30570042D-17 -0.42041784D-11  0.50011889D-10
  0.72844437D-05  0.72844437D-05 -0.14568887D-04  0.58583402D-18  0.50469638D-14
 -0.60038834D-13 -0.13794981D-12  0.16410244D-11  0.21315598D-04 -0.13795293D-12
  0.16410615D-11 -0.31973397D-04  0.55180237D-12 -0.65641346D-11 -0.31973397D-04
 -0.20528025D-17  0.10118921D-13 -0.12037251D-12  0.10292898D-04  0.10119097D-13
 -0.12037460D-12 -0.15439347D-04 -0.40475861D-13  0.48149213D-12 -0.15439347D-04
  0.11780728D-18  0.24295515D-03  0.45292364D-03  0.76552075D-03  0.11508284D-02
  0.14139257D-02  0.11942863D-02  0.45044085D-03 -0.22292569D-05 -0.65559746D-04
 -0.12274853D-03 -0.20898987D-03 -0.32327556D-03 -0.42574254D-03 -0.44237377D-03
 -0.28110867D-03  0.18839249D-03  0.18050734D-03 -0.67853897D-03 -0.24687346D-03
  0.28108027D-12  0.26353062D-12  0.18764950D-12 -0.33434400D-11 -0.31346875D-11
 -0.22320842D-11  0.16697025D-03  0.15654522D-03  0.11146952D-03 -0.70114658D-12
  0.83407117D-11 -0.49516757D-03  0.84222834D-13 -0.10018510D-11 -0.79795388D-03
  0.95628056D-14 -0.11374492D-12 -0.30244059D-04 -0.73553918D-04 -0.73553918D-04
  0.14710784D-03 -0.42150719D-19  0.23686747D-12 -0.28178193D-11  0.22155477D-03
  0.22155477D-03 -0.44310954D-03 -0.59380363D-18 -0.98134876D-12  0.11673972D-10
  0.46629702D-04  0.46629702D-04 -0.93259404D-04  0.16093336D-18  0.13732068D-13
 -0.16330520D-12  0.19329904D-12 -0.22994372D-11 -0.31621775D-03  0.19329833D-12
 -0.22994285D-11  0.47432663D-03 -0.77319544D-12  0.91977400D-11  0.47432663D-03
 -0.10929539D-17  0.76675396D-13 -0.91212448D-12 -0.56802350D-04  0.76675430D-13
 -0.91212487D-12  0.85203525D-04 -0.30670162D-12  0.36484983D-11  0.85203525D-04
  0.10481107D-17
MO    4     MO 0.0        OCC NO =    2.0000000  ORB. ENERGY =   -3.715382
  0.48006106D-03  0.89798235D-03  0.15507752D-02  0.25049061D-02  0.37723371D-02
  0.51303606D-02  0.58403954D-02  0.47315212D-02  0.19206179D-02  0.17513394D-03
 -0.67304362D-05  0.22506094D-05  0.12629910D-06 -0.14124106D-02 -0.26436438D-02
 -0.45722836D-02 -0.74314206D-02 -0.11370013D-01 -0.16134834D-01 -0.20239809D-01
 -0.20636239D-01 -0.12679316D-01  0.27633531D-02  0.10121753D-01  0.46293337D-02
 -0.24572757D-04  0.46194687D-03  0.86400192D-03  0.14962172D-02  0.24293290D-02
  0.37289709D-02  0.52968368D-02  0.67198776D-02  0.69568890D-02  0.44810819D-02
 -0.11021454D-02 -0.44926839D-02 -0.39184020D-02  0.19970217D-02 -0.16548096D-02
  0.44108413D-02  0.63248943D-03 -0.30804416D-07 -0.40632612D-07 -0.45132851D-07
 -0.38627359D-07 -0.22071362D-07 -0.71626382D-08 -0.50434203D-11  0.36644095D-06
  0.48335450D-06  0.53688811D-06  0.45950055D-06  0.26255492D-06  0.85204795D-07
  0.59995155D-10 -0.62013382D+01 -0.81798847D+01 -0.90858425D+01 -0.77762005D+01
 -0.44432585D+01 -0.14419342D+01 -0.10153075D-02  0.11717175D-09  0.16023086D-09
  0.17418708D-09  0.15989463D-09  0.87149068D-10  0.36775233D-10 -0.12683332D-10
 -0.13938345D-08 -0.19060508D-08 -0.20720692D-08 -0.19020512D-08 -0.10366951D-08
 -0.43746543D-09  0.15087652D-09  0.41988377D-01  0.57418566D-01  0.62419764D-01
  0.57298080D-01  0.31229780D-01  0.13178367D-01 -0.45450591D-02 -0.78691075D-09
  0.93608773D-08 -0.15610013D+00 -0.18202063D-11  0.21652616D-10 -0.14029476D-02
 -0.70825668D-13  0.84251917D-12 -0.24594023D-04 -0.33436664D-03 -0.33436664D-03
  0.66873328D-03  0.27265283D-17  0.37194778D-11 -0.44246001D-10 -0.14973896D-03
 -0.14973896D-03  0.29947792D-03 -0.29323041D-16 -0.16595722D-11  0.19741521D-10
 -0.14407661D-04 -0.14407661D-04  0.28815323D-04  0.12080033D-17  0.16261116D-12
 -0.19343650D-11  0.78850405D-12 -0.93798749D-11 -0.32604945D-03  0.78852142D-12
 -0.93800816D-11  0.48907417D-03 -0.31540336D-11  0.37519706D-10  0.48907417D-03
  0.11781809D-17  0.54758071D-13 -0.65138489D-12 -0.16660996D-04  0.54757105D-13
 -0.65137340D-12  0.24991494D-04 -0.21903132D-12  0.26055281D-11  0.24991494D-04
 -0.11731667D-17 -0.48692413D-03 -0.90773729D-03 -0.15342359D-02 -0.23064591D-02
 -0.28337516D-02 -0.23935562D-02 -0.90276133D-03  0.44678162D-05 -0.46499809D-04
 -0.87062314D-04 -0.14823104D-03 -0.22929088D-03 -0.30196802D-03 -0.31376412D-03
 -0.19938301D-03  0.13362186D-03  0.20151352D-03 -0.61537461D-02 -0.16609814D-02
 -0.23998386D-11 -0.22500013D-11 -0.16021349D-11  0.28548792D-10  0.26766308D-10
  0.19059206D-10  0.32936485D-02  0.30880049D-02  0.21988434D-02  0.13488147D-11
 -0.16045437D-10 -0.15236930D-02  0.53295747D-11 -0.63399145D-10 -0.18911432D-02
  0.22754550D-12 -0.27068054D-11 -0.10606182D-03 -0.58443730D-03 -0.58443730D-03
  0.11688746D-02  0.26903330D-17 -0.91043294D-11  0.10830253D-09  0.15554769D-03
  0.15554769D-03 -0.31109537D-03 -0.72166685D-18  0.55952408D-11 -0.66559701D-10
  0.30853150D-04  0.30853150D-04 -0.61706300D-04 -0.15196132D-17  0.13351349D-11
 -0.15882412D-10  0.13751771D-11 -0.16358773D-10  0.73110422D-03  0.13751778D-11
 -0.16358782D-10 -0.10966563D-02 -0.55007090D-11  0.65435101D-10 -0.10966563D-02
  0.10877311D-16 -0.50282093D-12  0.59814403D-11  0.22929981D-04 -0.50282058D-12
  0.59814362D-11 -0.34394971D-04  0.20112834D-11 -0.23925757D-10 -0.34394971D-04
 -0.12732171D-16
MO    5     MO 0.0        OCC NO =    2.0000000  ORB. ENERGY =   -3.710877
 -0.45483220D-16 -0.85079028D-16 -0.14692766D-15 -0.23732647D-15 -0.35740878D-15
 -0.48607425D-15 -0.55334625D-15 -0.44828635D-15 -0.18196829D-15 -0.16593005D-16
  0.63767286D-18 -0.21323321D-18 -0.11966165D-19  0.93115241D-16  0.17428609D-15
  0.30143450D-15  0.48992729D-15  0.74958476D-15  0.10637126D-14  0.13343391D-14
  0.13604743D-14  0.83590246D-15 -0.18217810D-15 -0.66729143D-15 -0.30519561D-15
  0.16199950D-17 -0.45146048D-16 -0.84438872D-16 -0.14622525D-15 -0.23741822D-15
 -0.36443217D-15 -0.51765964D-15 -0.65673336D-15 -0.67989647D-15 -0.43793594D-15
  0.10771262D-15  0.43906981D-15  0.38294527D-15 -0.19516884D-15  0.18102838D-15
  0.18801696D-15  0.88090115D-16  0.61656408D+01  0.81327979D+01  0.90335407D+01
  0.77314376D+01  0.44176813D+01  0.14336339D+01  0.10094630D-02  0.51830913D+00
  0.68367645D+00  0.75939659D+00  0.64993645D+00  0.37136846D+00  0.12051716D+00
  0.84859612D-04  0.11854167D-12  0.15636257D-12  0.17368040D-12  0.14864594D-12
  0.84935098D-13  0.27563291D-13  0.19408109D-16 -0.23882018D-01 -0.32658352D-01
 -0.35502918D-01 -0.32589823D-01 -0.17762777D-01 -0.74955506D-02  0.25851245D-02
 -0.20076207D-02 -0.27453954D-02 -0.29845214D-02 -0.27396346D-02 -0.14932121D-02
 -0.63010682D-03  0.21731620D-03 -0.55735553D-15 -0.76217652D-15 -0.82856265D-15
 -0.76057719D-15 -0.41454545D-15 -0.17493022D-15  0.60331311D-16  0.15599283D+00
  0.13113399D-01  0.28325567D-14  0.39074649D-03  0.32847757D-04 -0.82662066D-16
  0.15885885D-04  0.13354328D-05 -0.38842737D-17 -0.60946367D-13  0.60950009D-13
 -0.36418472D-17  0.72005823D-12 -0.77388601D-03 -0.65056042D-04  0.57793315D-12
 -0.57793434D-12  0.11921105D-17 -0.68281917D-11  0.39978894D-03  0.33607903D-04
  0.58306676D-14 -0.58350967D-14  0.44291028D-17 -0.68902585D-13 -0.37106988D-04
 -0.31193661D-05 -0.12817181D-03 -0.10774650D-04  0.16494853D-16 -0.12817462D-03
 -0.10774886D-04  0.69690453D-12  0.51269006D-03  0.43098836D-04 -0.69695401D-12
 -0.82314660D-11 -0.13732278D-04 -0.11543918D-05 -0.11314785D-17 -0.13732123D-04
 -0.11543788D-05 -0.35423715D-13  0.54928957D-04  0.46175541D-05  0.35427110D-13
  0.41845467D-12  0.21092297D-16  0.39320837D-16  0.66459142D-16  0.99909860D-16
  0.12275081D-15  0.10368268D-15  0.39105292D-16 -0.19353427D-18 -0.35030160D-16
 -0.65587512D-16 -0.11166835D-15 -0.17273396D-15 -0.22748455D-15 -0.23637102D-15
 -0.15020317D-15  0.10066267D-15  0.91022606D-17 -0.22626609D-15 -0.15411970D-15
  0.60350313D-03  0.56582255D-03  0.40289936D-03  0.50732956D-04  0.47565371D-04
  0.33869378D-04 -0.95895399D-16 -0.89908032D-16 -0.64019875D-16 -0.21606446D-03
 -0.18163268D-04  0.68014064D-16 -0.11326047D-02 -0.95211409D-04 -0.81319821D-16
 -0.50283392D-04 -0.42270288D-05 -0.78118245D-17 -0.30062080D-13  0.30057646D-13
  0.44338176D-17  0.35666977D-12  0.19258982D-02  0.16189892D-03  0.10255025D-12
 -0.10252264D-12 -0.27606159D-16 -0.12112544D-11 -0.11335323D-02 -0.95289386D-04
 -0.14814584D-13  0.14814704D-13 -0.12024297D-18  0.17501361D-12 -0.27831468D-03
 -0.23396277D-04 -0.24109173D-03 -0.20267163D-04 -0.86323143D-16 -0.24109162D-03
 -0.20267154D-04 -0.67171206D-13  0.96436682D-03  0.81068642D-04  0.67430175D-13
  0.79338331D-12  0.10137474D-03  0.85219774D-05  0.44965675D-17  0.10137467D-03
  0.85219719D-05  0.71066860D-13 -0.40549888D-03 -0.34087904D-04 -0.71080350D-13
 -0.83912986D-12
MO    6     MO 0.0        OCC NO =    2.0000000  ORB. ENERGY =   -3.710877
  0.26191477D-10  0.48992692D-10  0.84608177D-10  0.13666426D-09  0.20581356D-09
  0.27990548D-09  0.31864401D-09  0.25814534D-09  0.10478629D-09  0.95550687D-11
 -0.36720342D-12  0.12279018D-12  0.68907065D-14 -0.72822421D-10 -0.13630352D-09
 -0.23574218D-09 -0.38315630D-09 -0.58622602D-09 -0.83189524D-09 -0.10435435D-08
 -0.10639830D-08 -0.65373230D-09  0.14247561D-09  0.52186706D-09  0.23868362D-09
 -0.12669458D-11  0.25128231D-10  0.46998564D-10  0.81388779D-10  0.13214667D-09
  0.20284246D-09  0.28812867D-09  0.36553692D-09  0.37842948D-09  0.24375457D-09
 -0.59952704D-10 -0.24438567D-09 -0.21314683D-09  0.10863072D-09 -0.10030725D-09
  0.26963565D-09  0.38848836D-10  0.51830913D+00  0.68367645D+00  0.75939659D+00
  0.64993645D+00  0.37136846D+00  0.12051716D+00  0.84859612D-04 -0.61656408D+01
 -0.81327979D+01 -0.90335407D+01 -0.77314376D+01 -0.44176813D+01 -0.14336339D+01
 -0.10094630D-02 -0.36916049D-06 -0.48694171D-06 -0.54087262D-06 -0.46291073D-06
 -0.26450347D-06 -0.85837142D-07 -0.60440409D-10 -0.20076207D-02 -0.27453954D-02
 -0.29845214D-02 -0.27396346D-02 -0.14932121D-02 -0.63010682D-03  0.21731620D-03
  0.23882018D-01  0.32658352D-01  0.35502918D-01  0.32589823D-01  0.17762777D-01
  0.74955506D-02 -0.25851245D-02  0.24797965D-08  0.33910898D-08  0.36864562D-08
  0.33839740D-08  0.18444033D-08  0.77830276D-09 -0.26842718D-09  0.13113399D-01
 -0.15599283D+00 -0.91967238D-08  0.32847757D-04 -0.39074649D-03 -0.86927403D-10
  0.13354328D-05 -0.15885885D-04 -0.15065626D-11 -0.20650283D-10 -0.21370274D-10
  0.42020557D-10  0.12192186D-12 -0.65056042D-04  0.77388601D-03 -0.61780890D-11
  0.64917080D-12  0.55289182D-11 -0.11560521D-11  0.33607903D-04 -0.39978894D-03
 -0.93501648D-12 -0.86611578D-12  0.18011323D-11 -0.11669110D-13 -0.31193661D-05
  0.37106988D-04 -0.10774650D-04  0.12817181D-03 -0.20596160D-10 -0.10774886D-04
  0.12817462D-03  0.26778372D-10  0.43098836D-04 -0.51269006D-03  0.35010107D-10
 -0.13938403D-11 -0.11543918D-05  0.13732278D-04 -0.10741406D-11 -0.11543788D-05
  0.13732123D-04  0.18204431D-11  0.46175541D-05 -0.54928957D-04  0.14019786D-11
  0.70847577D-13 -0.29151670D-10 -0.54345340D-10 -0.91853199D-10 -0.13808544D-09
 -0.16965392D-09 -0.14329986D-09 -0.54047435D-10  0.26748377D-12 -0.24705598D-11
 -0.46256675D-11 -0.78755948D-11 -0.12182348D-10 -0.16043723D-10 -0.16670456D-10
 -0.10593326D-10  0.70994011D-11  0.72127263D-11 -0.37303453D-09 -0.10115590D-09
  0.50732956D-04  0.47565371D-04  0.33869378D-04 -0.60350313D-03 -0.56582255D-03
 -0.40289936D-03  0.18976700D-09  0.17791863D-09  0.12668866D-09 -0.18163268D-04
  0.21606446D-03 -0.85422969D-10 -0.95211409D-04  0.11326047D-02 -0.11182551D-09
 -0.42270288D-05  0.50283392D-04 -0.64095797D-11 -0.34560321D-10 -0.34916890D-10
  0.69477211D-10  0.60416283D-13  0.16189892D-03 -0.19258982D-02  0.66569298D-11
  0.78681875D-11 -0.14525117D-10 -0.20509633D-12 -0.95289386D-04  0.11335323D-02
  0.17856376D-11  0.16106172D-11 -0.33962548D-11  0.29631095D-13 -0.23396277D-04
  0.27831468D-03 -0.20267163D-04  0.24109173D-03  0.48765572D-10 -0.20267154D-04
  0.24109162D-03 -0.72751650D-10  0.81068642D-04 -0.96436682D-03 -0.73545067D-10
  0.13427062D-12  0.85219774D-05 -0.10137474D-03  0.17645503D-11  0.85219719D-05
 -0.10137467D-03 -0.30664197D-11 -0.34087904D-04  0.40549888D-03 -0.22272312D-11
 -0.14211695D-12
MO    7     MO 0.0        OCC NO =    2.0000000  ORB. ENERGY =   -0.659470
 -0.14171317D-02 -0.26508279D-02 -0.45778607D-02 -0.73944383D-02 -0.11135872D-01
 -0.15144733D-01 -0.17240743D-01 -0.13967366D-01 -0.56696300D-02 -0.51699227D-03
  0.19868128D-04 -0.66437589D-05 -0.37283269D-06  0.47803917D-02  0.89475770D-02
  0.15475179D-01  0.25152106D-01  0.38482516D-01  0.54609350D-01  0.68502894D-01
  0.69844635D-01  0.42913933D-01 -0.93527405D-02 -0.34257705D-01 -0.15668268D-01
  0.83168025D-04  0.17691687D-01  0.33089632D-01  0.57302277D-01  0.93038685D-01
  0.14281250D+00  0.20285879D+00  0.25735855D+00  0.26643563D+00  0.17161692D+00
 -0.42210075D-01 -0.17206126D+00 -0.15006735D+00  0.76482135D-01  0.21719992D-01
  0.11776450D-01  0.53765676D-03  0.26671665D-10  0.35181300D-10  0.39077782D-10
  0.33445073D-10  0.19110246D-10  0.62016915D-11  0.43667900D-14 -0.31726757D-09
 -0.41849228D-09 -0.46484212D-09 -0.39783934D-09 -0.22732220D-09 -0.73771009D-10
 -0.51944297D-13  0.26709219D+00  0.35230836D+00  0.39132805D+00  0.33492165D+00
  0.19137154D+00  0.62104236D-01  0.43729385D-04 -0.54362560D-10 -0.74340102D-10
 -0.80815179D-10 -0.74184108D-10 -0.40433351D-10 -0.17062098D-10  0.58845106D-11
  0.64668430D-09  0.88433246D-09  0.96135846D-09  0.88247680D-09  0.48098569D-09
  0.20296672D-09 -0.70000761D-10  0.30900100D+00  0.42255489D+00  0.45935973D+00
  0.42166821D+00  0.22982630D+00  0.96982283D-01 -0.33448013D-01  0.28601285D-11
 -0.34023322D-10 -0.26085923D-01  0.16888801D-11 -0.20090645D-10 -0.14093812D-02
  0.10187773D-13 -0.12119084D-12  0.19331317D-04 -0.70247554D-03 -0.70247554D-03
  0.14049511D-02 -0.91180636D-17 -0.17688632D-11  0.21042068D-10 -0.10128284D-01
 -0.10128284D-01  0.20256568D-01  0.18157412D-16  0.95781086D-11 -0.11393980D-09
  0.21585680D-04  0.21585680D-04 -0.43171359D-04 -0.45709361D-19 -0.16262259D-12
  0.19345329D-11  0.33112644D-12 -0.39390352D-11 -0.19592062D-02  0.33109623D-12
 -0.39386807D-11  0.29388092D-02 -0.13244755D-11  0.15755786D-10  0.29388092D-02
 -0.40413018D-17 -0.77439492D-13  0.92120849D-12  0.52894775D-04 -0.77438312D-13
  0.92119454D-12 -0.79342162D-04  0.30975679D-12 -0.36848200D-11 -0.79342162D-04
 -0.92128558D-18 -0.78444761D-02 -0.14623887D-01 -0.24716945D-01 -0.37157665D-01
 -0.45652485D-01 -0.38560822D-01 -0.14543723D-01  0.71977698D-04 -0.52000595D-01
 -0.97361521D-01 -0.16576632D+00 -0.25641529D+00 -0.33768992D+00 -0.35088146D+00
 -0.22296941D+00  0.14942892D+00  0.71894587D-01  0.27584057D-01 -0.16651631D-02
  0.74449666D-10  0.69801294D-10  0.49702680D-10 -0.88563929D-09 -0.83034313D-09
 -0.59125377D-09  0.16845431D+00  0.15793663D+00  0.11246029D+00  0.18725690D-10
 -0.22275743D-09  0.31283954D-01 -0.11981681D-11  0.14253245D-10  0.10012647D-03
 -0.12563946D-12  0.14945908D-11 -0.27093133D-03 -0.94374374D-02 -0.94374374D-02
  0.18874875D-01  0.24978540D-16 -0.34858709D-10  0.41467311D-09 -0.16725433D-02
 -0.16725433D-02  0.33450866D-02  0.16679280D-17 -0.11795275D-10  0.14031441D-09
  0.64396841D-04  0.64396841D-04 -0.12879368D-03  0.73068464D-18 -0.15324678D-12
  0.18230096D-11  0.50626854D-11 -0.60224808D-10  0.51183204D-02  0.50626382D-11
 -0.60224239D-10 -0.76774806D-02 -0.20250694D-10  0.24089866D-09 -0.76774806D-02
  0.47953801D-17  0.35503185D-12 -0.42233880D-11  0.30654713D-03  0.35503255D-12
 -0.42233948D-11 -0.45982070D-03 -0.14201281D-11  0.16893559D-10 -0.45982070D-03
  0.22522518D-17
MO    8     MO 0.0        OCC NO =    2.0000000  ORB. ENERGY =   -0.384450
  0.48256730D-03  0.90267040D-03  0.15588712D-02  0.25179834D-02  0.37920311D-02
  0.51571445D-02  0.58708861D-02  0.47562228D-02  0.19306448D-02  0.17604825D-03
 -0.67655735D-05  0.22623590D-05  0.12695846D-06 -0.12293571D-02 -0.23010180D-02
 -0.39796991D-02 -0.64682815D-02 -0.98964178D-02 -0.14043701D-01 -0.17616656D-01
 -0.17961707D-01 -0.11036030D-01  0.24052125D-02  0.88099374D-02  0.40293552D-02
 -0.21388038D-04 -0.27457892D-01 -0.51355843D-01 -0.88934405D-01 -0.14439811D+00
 -0.22164817D+00 -0.31484134D+00 -0.39942618D+00 -0.41351402D+00 -0.26635327D+00
  0.65510973D-01  0.26704289D+00  0.23290786D+00 -0.11870197D+00 -0.34093119D-01