 Molden2AIM, Version 4.0.0 (06/02/2016)           Time: Sun Jun 24 19:23:33 2018
GAUSSIAN             11 MOL ORBITALS    230 PRIMITIVES        2 NUCLEI
  Si   1    (CENTRE  1)   0.00000000  0.00000000  1.02835683  CHARGE = 14.0
  O    2    (CENTRE  2)   0.00000000  0.00000000 -1.82323989  CHARGE =  8.0
CENTRE ASSIGNMENTS    1  1  1  1  1  1  1  1  1  1  1  1  1  1  1  1  1  1  1  1
CENTRE ASSIGNMENTS    1  1  1  1  1  1  1  1  1  1  1  1  1  1  1  1  1  1  1  1
CENTRE ASSIGNMENTS    1  1  1  1  1  1  1  1  1  1  1  1  1  1  1  1  1  1  1  1
CENTRE ASSIGNMENTS    1  1  1  1  1  1  1  1  1  1  1  1  1  1  1  1  1  1  1  1
CENTRE ASSIGNMENTS    1  1  1  1  1  1  1  1  1  1  1  1  1  1  1  1  1  1  1  1
CENTRE ASSIGNMENTS    1  1  1  1  1  1  1  1  1  1  1  1  1  1  1  1  1  1  1  1
CENTRE ASSIGNMENTS    1  1  1  1  1  1  1  1  2  2  2  2  2  2  2  2  2  2  2  2
CENTRE ASSIGNMENTS    2  2  2  2  2  2  2  2  2  2  2  2  2  2  2  2  2  2  2  2
CENTRE ASSIGNMENTS    2  2  2  2  2  2  2  2  2  2  2  2  2  2  2  2  2  2  2  2
CENTRE ASSIGNMENTS    2  2  2  2  2  2  2  2  2  2  2  2  2  2  2  2  2  2  2  2
CENTRE ASSIGNMENTS    2  2  2  2  2  2  2  2  2  2  2  2  2  2  2  2  2  2  2  2
CENTRE ASSIGNMENTS    2  2  2  2  2  2  2  2  2  2
TYPE ASSIGNMENTS      1  1  1  1  1  1  1  1  1  1  1  1  1  1  1  1  1  1  1  1
TYPE ASSIGNMENTS      1  2  2  2  2  2  2  2  2  3  3  3  3  3  3  3  3  4  4  4
TYPE ASSIGNMENTS      4  4  4  4  4  2  2  3  3  4  4  2  3  4  2  3  4  2  3  4
TYPE ASSIGNMENTS      2  3  4  5  6  7  8  9 10  5  6  7  8  9 10  5  6  7  8  9
TYPE ASSIGNMENTS     10  5  6  7  8  9 10  5  6  7  8  9 10 11 12 13 17 14 15 18
TYPE ASSIGNMENTS     19 16 20 11 12 13 17 14 15 18 19 16 20 21 22 23 24 25 26 27
TYPE ASSIGNMENTS     28 29 30 31 32 33 34 35  1  1  1  1  1  1  1  1  1  1  1  1
TYPE ASSIGNMENTS      1  1  1  1  2  2  2  2  2  3  3  3  3  3  4  4  4  4  4  2
TYPE ASSIGNMENTS      3  4  2  3  4  2  3  4  2  3  4  5  6  7  8  9 10  5  6  7
TYPE ASSIGNMENTS      8  9 10  5  6  7  8  9 10  5  6  7  8  9 10 11 12 13 17 14
TYPE ASSIGNMENTS     15 18 19 16 20 11 12 13 17 14 15 18 19 16 20 21 22 23 24 25
TYPE ASSIGNMENTS     26 27 28 29 30 31 32 33 34 35
EXPONENTS  0.9180707D+06 0.1374853D+06 0.3128777D+05 0.8861611D+04 0.2890694D+04
EXPONENTS  0.1043406D+04 0.4068016D+03 0.1684836D+03 0.7318563D+02 0.3299849D+02
EXPONENTS  0.2787875D+03 0.8591023D+02 0.3299260D+02 0.1503369D+02 0.5725751D+01
EXPONENTS  0.2614652D+01 0.1175783D+01 0.3543233D+00 0.1624834D+00 0.6833246D-01
EXPONENTS  0.3052108D-01 0.1775885D+04 0.4208379D+03 0.1364229D+03 0.5170099D+02
EXPONENTS  0.2155946D+02 0.9555920D+01 0.4352982D+01 0.2009696D+01 0.1775885D+04
EXPONENTS  0.4208379D+03 0.1364229D+03 0.5170099D+02 0.2155946D+02 0.9555920D+01
EXPONENTS  0.4352982D+01 0.2009696D+01 0.1775885D+04 0.4208379D+03 0.1364229D+03
EXPONENTS  0.5170099D+02 0.2155946D+02 0.9555920D+01 0.4352982D+01 0.2009696D+01
EXPONENTS  0.4641815D+02 0.1907642D+01 0.4641815D+02 0.1907642D+01 0.4641815D+02
EXPONENTS  0.1907642D+01 0.9233722D+00 0.9233722D+00 0.9233722D+00 0.3451572D+00
EXPONENTS  0.3451572D+00 0.3451572D+00 0.1365683D+00 0.1365683D+00 0.1365683D+00
EXPONENTS  0.5298706D-01 0.5298706D-01 0.5298706D-01 0.2645000D+01 0.2645000D+01
EXPONENTS  0.2645000D+01 0.2645000D+01 0.2645000D+01 0.2645000D+01 0.6080000D+00
EXPONENTS  0.6080000D+00 0.6080000D+00 0.6080000D+00 0.6080000D+00 0.6080000D+00
EXPONENTS  0.2720000D+00 0.2720000D+00 0.2720000D+00 0.2720000D+00 0.2720000D+00
EXPONENTS  0.2720000D+00 0.1130000D+00 0.1130000D+00 0.1130000D+00 0.1130000D+00
EXPONENTS  0.1130000D+00 0.1130000D+00 0.4401890D-01 0.4401890D-01 0.4401890D-01
EXPONENTS  0.4401890D-01 0.4401890D-01 0.4401890D-01 0.2120000D+00 0.2120000D+00
EXPONENTS  0.2120000D+00 0.2120000D+00 0.2120000D+00 0.2120000D+00 0.2120000D+00
EXPONENTS  0.2120000D+00 0.2120000D+00 0.2120000D+00 0.5410000D+00 0.5410000D+00
EXPONENTS  0.5410000D+00 0.5410000D+00 0.5410000D+00 0.5410000D+00 0.5410000D+00
EXPONENTS  0.5410000D+00 0.5410000D+00 0.5410000D+00 0.4610000D+00 0.4610000D+00
EXPONENTS  0.4610000D+00 0.4610000D+00 0.4610000D+00 0.4610000D+00 0.4610000D+00
EXPONENTS  0.4610000D+00 0.4610000D+00 0.4610000D+00 0.4610000D+00 0.4610000D+00
EXPONENTS  0.4610000D+00 0.4610000D+00 0.4610000D+00 0.1165065D+06 0.1750435D+05
EXPONENTS  0.3993451D+04 0.1133006D+04 0.3699957D+03 0.1336207D+03 0.5203564D+02
EXPONENTS  0.2146194D+02 0.8983505D+02 0.2642801D+02 0.9282282D+01 0.4094773D+01
EXPONENTS  0.1325535D+01 0.5187723D+00 0.1977268D+00 0.6963854D-01 0.1911526D+03
EXPONENTS  0.4523336D+02 0.1435347D+02 0.5242237D+01 0.2079242D+01 0.1911526D+03
EXPONENTS  0.4523336D+02 0.1435347D+02 0.5242237D+01 0.2079242D+01 0.1911526D+03
EXPONENTS  0.4523336D+02 0.1435347D+02 0.5242237D+01 0.2079242D+01 0.8428237D+00
EXPONENTS  0.8428237D+00 0.8428237D+00 0.3361769D+00 0.3361769D+00 0.3361769D+00
EXPONENTS  0.1286400D+00 0.1286400D+00 0.1286400D+00 0.4359816D-01 0.4359816D-01
EXPONENTS  0.4359816D-01 0.3775000D+01 0.3775000D+01 0.3775000D+01 0.3775000D+01
EXPONENTS  0.3775000D+01 0.3775000D+01 0.1300000D+01 0.1300000D+01 0.1300000D+01
EXPONENTS  0.1300000D+01 0.1300000D+01 0.1300000D+01 0.4440000D+00 0.4440000D+00
EXPONENTS  0.4440000D+00 0.4440000D+00 0.4440000D+00 0.4440000D+00 0.1254638D+00
EXPONENTS  0.1254638D+00 0.1254638D+00 0.1254638D+00 0.1254638D+00 0.1254638D+00
EXPONENTS  0.2666000D+01 0.2666000D+01 0.2666000D+01 0.2666000D+01 0.2666000D+01
EXPONENTS  0.2666000D+01 0.2666000D+01 0.2666000D+01 0.2666000D+01 0.2666000D+01
EXPONENTS  0.8590000D+00 0.8590000D+00 0.8590000D+00 0.8590000D+00 0.8590000D+00
EXPONENTS  0.8590000D+00 0.8590000D+00 0.8590000D+00 0.8590000D+00 0.8590000D+00
EXPONENTS  0.1846000D+01 0.1846000D+01 0.1846000D+01 0.1846000D+01 0.1846000D+01
EXPONENTS  0.1846000D+01 0.1846000D+01 0.1846000D+01 0.1846000D+01 0.1846000D+01
EXPONENTS  0.1846000D+01 0.1846000D+01 0.1846000D+01 0.1846000D+01 0.1846000D+01
MO    1     MO 0.0        OCC NO =    2.0000000  ORB. ENERGY =  -66.282558
  0.26728326D+00  0.50020354D+00  0.86637869D+00  0.14165223D+01  0.22075511D+01
  0.32657762D+01  0.44985997D+01  0.54843233D+01  0.53948346D+01  0.35292559D+01
 -0.43467127D-02 -0.15782455D-01 -0.27628282D-01  0.11108872D+01  0.59602269D-01
 -0.47422314D-02  0.10293745D-02 -0.16100794D-03 -0.58408505D-05 -0.15912982D-04
  0.22764416D-05  0.55177272D-16  0.79286714D-16  0.10505915D-15  0.12268813D-15
  0.12210093D-15  0.94632843D-16  0.52617100D-16  0.18657082D-16  0.19226308D-15
  0.27627150D-15  0.36607457D-15  0.42750205D-15  0.42545598D-15  0.32974449D-15
  0.18334226D-15  0.65009884D-16 -0.25067488D-03 -0.36020605D-03 -0.47729235D-03
 -0.55738223D-03 -0.55471455D-03 -0.42992477D-03 -0.23904381D-03 -0.84760657D-04
  0.36180294D-15 -0.15501337D-15  0.12475441D-14 -0.53450648D-15 -0.88185248D-03
  0.37782702D-03  0.32359311D-16  0.11048258D-15 -0.19477915D-03 -0.62990325D-17
 -0.21751301D-16  0.11874668D-03  0.16655885D-17  0.57822145D-17  0.20943156D-04
 -0.14987393D-18 -0.47868534D-18  0.44191100D-07 -0.20011781D-04 -0.20011781D-04
  0.40023562D-04 -0.41154949D-17  0.65786454D-18  0.11765346D-17  0.10496183D-04
  0.10496183D-04 -0.20992367D-04  0.38860903D-18 -0.35107145D-18 -0.83770011D-18
  0.16040248D-04  0.16040248D-04 -0.32080496D-04 -0.98109142D-19  0.72642869D-18
  0.24446439D-17  0.55919679D-06  0.55919679D-06 -0.11183936D-05  0.11727812D-19
 -0.28527840D-18 -0.95633763D-18  0.10014160D-07  0.10014160D-07 -0.20028320D-07
 -0.69849157D-21  0.23942905D-19  0.72450327D-19 -0.11419188D-19 -0.33028973D-19
  0.21603386D-05 -0.11709147D-19 -0.32845277D-19 -0.32405079D-05  0.45966713D-19
  0.13193220D-18 -0.32405079D-05  0.20799105D-20  0.26487382D-18  0.90230136D-18
  0.19923452D-04  0.26912975D-18  0.90153626D-18 -0.29885178D-04 -0.10637512D-17
 -0.36084403D-17 -0.29885178D-04 -0.90123890D-20 -0.11969517D-05 -0.11969517D-05
 -0.31918710D-05  0.29844966D-20 -0.23051104D-18 -0.21345356D-20 -0.83702292D-18
  0.30707519D-18  0.11159093D-17 -0.23939029D-05  0.95756129D-05  0.95756129D-05
 -0.83665923D-18 -0.22969244D-18 -0.25498829D-20 -0.64814410D-06 -0.12105484D-05
 -0.20893142D-05 -0.33938255D-05 -0.51797100D-05 -0.72748069D-05 -0.88433031D-05
 -0.83897768D-05  0.98948973D-05  0.38561983D-04 -0.53601708D-04  0.63833574D-04
 -0.78097449D-04  0.72279423D-04  0.88626369D-04 -0.15118223D-05  0.21490599D-17
  0.28299771D-17  0.31484154D-17  0.29238332D-17  0.20382449D-17  0.71337705D-17
  0.93940644D-17  0.10451115D-16  0.97056181D-17  0.67659216D-17 -0.12444692D-04
 -0.16387721D-04 -0.18231721D-04 -0.16931219D-04 -0.11802989D-04  0.17135775D-18
  0.43996860D-18  0.14368698D-04  0.14151414D-17  0.49596086D-17  0.10719106D-03
 -0.68592709D-18 -0.23581543D-17 -0.17740275D-06  0.79038223D-19  0.23920701D-18
  0.31613959D-07  0.38161443D-05  0.38161443D-05 -0.76322887D-05  0.14214396D-19
  0.96454426D-18  0.35212847D-17 -0.77937435D-05 -0.77937435D-05  0.15587487D-04
  0.33126595D-20 -0.82709207D-18 -0.21619622D-17 -0.19364545D-04 -0.19364545D-04
  0.38729089D-04  0.10541047D-19  0.13678647D-17  0.47182496D-17  0.25861832D-06
  0.25861832D-06 -0.51723664D-06 -0.31932707D-21 -0.20779455D-18 -0.71268761D-18
  0.60935179D-18  0.25108928D-17  0.52974080D-05  0.59687201D-18  0.24971156D-17
 -0.79461120D-05 -0.24249274D-17 -0.10029794D-16 -0.79461120D-05 -0.21253932D-19
 -0.35702134D-18 -0.12815934D-17  0.11417691D-04 -0.35529000D-18 -0.12813595D-17
 -0.17126537D-04  0.14263540D-17  0.51261397D-17 -0.17126537D-04  0.23798035D-19
 -0.11551730D-04 -0.11551730D-04 -0.30804615D-04 -0.31457083D-19  0.14188167D-17
 -0.29019814D-19  0.51540039D-17 -0.19014371D-17 -0.68770430D-17 -0.23103464D-04
  0.92413845D-04  0.92413845D-04  0.51691174D-17  0.14478613D-17  0.18143069D-18
MO    2     MO 0.0        OCC NO =    2.0000000  ORB. ENERGY =  -19.193851
  0.24371327D-05  0.45609382D-05  0.78997835D-05  0.12916084D-04  0.20128814D-04
  0.29777885D-04  0.41018972D-04  0.50006963D-04  0.49190990D-04  0.32180336D-04
 -0.19102167D-04 -0.69357952D-04 -0.12141591D-03  0.29027736D-03 -0.50078784D-03
  0.67851431D-03 -0.67567811D-03  0.20189083D-03  0.29575071D-03  0.36384837D-04
  0.94923529D-05 -0.66282416D-15 -0.95244198D-15 -0.12620367D-14 -0.14738071D-14
 -0.14667533D-14 -0.11367893D-14 -0.63206977D-15 -0.22412063D-15  0.99512767D-15
  0.14299439D-14  0.18947524D-14  0.22126928D-14  0.22021026D-14  0.17067129D-14
  0.94895472D-15  0.33648236D-15  0.49716780D-04  0.71440287D-04  0.94662215D-04
  0.11054658D-03  0.11001749D-03  0.85267721D-04  0.47409970D-04  0.16810727D-04
 -0.17032429D-14  0.72974926D-15  0.20914269D-14 -0.89606551D-15  0.38903870D-03
 -0.16668245D-03 -0.29146879D-15  0.25681454D-15  0.52371887D-03  0.14282869D-16
 -0.71566708D-16 -0.70349479D-03 -0.14530050D-17  0.82804792D-17 -0.11456539D-03
 -0.54647031D-17  0.25125080D-18 -0.10558278D-04  0.23401764D-03  0.23401764D-03
 -0.46803527D-03 -0.48756019D-15  0.19118769D-16 -0.36351622D-16 -0.12668786D-03
 -0.12668786D-03  0.25337572D-03  0.53305473D-17 -0.45705703D-17  0.17401277D-17
 -0.97573751D-04 -0.97573751D-04  0.19514750D-03  0.49888154D-17  0.78584374D-17
  0.11409924D-17 -0.35143193D-05 -0.35143193D-05  0.70286386D-05 -0.10811874D-17
 -0.16821241D-17 -0.93053223D-17 -0.29469187D-06 -0.29469187D-06  0.58938375D-06
  0.59564767D-19  0.86468876D-18  0.30934124D-18  0.78896149D-18 -0.20315747D-17
 -0.15458437D-04  0.78916842D-18 -0.20324489D-17  0.23187656D-04 -0.31560529D-17
  0.81271730D-17  0.23187656D-04  0.83366796D-19  0.38837476D-17  0.47578764D-17
 -0.15526749D-03  0.38797079D-17  0.47588034D-17  0.23290123D-03 -0.15530951D-16
 -0.19032433D-16  0.23290123D-03  0.68785901D-19  0.90507507D-05  0.90507507D-05
  0.24135332D-04  0.27428333D-18 -0.12215992D-17  0.27496783D-18  0.99305731D-17
  0.16292656D-17 -0.13240363D-16  0.18101492D-04 -0.72405996D-04 -0.72405996D-04
  0.99293700D-17 -0.12229994D-17 -0.16477535D-17  0.18228339D+00  0.34045340D+00
  0.58759659D+00  0.95447604D+00  0.14567364D+01  0.20459593D+01  0.24870816D+01
  0.23595323D+01 -0.77411896D-02 -0.30168643D-01  0.13663431D+01  0.34992811D+00
  0.11540233D-01 -0.17930967D-02 -0.21615819D-03 -0.58762864D-04  0.29314113D-15
  0.38602120D-15  0.42945756D-15  0.39882358D-15  0.27802547D-15  0.88639403D-15
  0.11672428D-14  0.12985848D-14  0.12059544D-14  0.84068762D-15  0.28524017D-02
  0.37561687D-02  0.41788250D-02  0.38807418D-02  0.27053192D-02 -0.11754723D-15
 -0.41193945D-15 -0.86501503D-03  0.25893019D-16  0.48051915D-16 -0.54201256D-03
 -0.11772755D-16 -0.41276668D-16  0.40298422D-05  0.39285928D-17  0.12003058D-17
  0.10499210D-05 -0.44640027D-03 -0.44640027D-03  0.89280054D-03 -0.17921759D-16
 -0.11250392D-15  0.13306450D-15  0.23467821D-04  0.23467821D-04 -0.46935643D-04
  0.15982742D-17 -0.67901628D-17 -0.61566051D-16  0.13826451D-03  0.13826451D-03
 -0.27652901D-03  0.14325838D-17  0.50355049D-17  0.64938621D-17 -0.40603529D-05
 -0.40603529D-05  0.81207058D-05  0.24914709D-18 -0.22372439D-17 -0.89210466D-17
 -0.16866814D-16 -0.31049287D-16  0.73921173D-03 -0.16695693D-16 -0.29324007D-16
 -0.11088176D-02  0.67296136D-16  0.12247187D-15 -0.11088176D-02 -0.57283939D-18
  0.10862747D-16  0.85886396D-18 -0.21623932D-03  0.10830508D-16  0.81013173D-18
  0.32435897D-03 -0.43418751D-16 -0.33867236D-17  0.32435897D-03 -0.14092301D-17
 -0.51340683D-04 -0.51340683D-04 -0.13689568D-03 -0.40479675D-17  0.36263607D-16
 -0.44012942D-17  0.74591488D-16 -0.48402989D-16 -0.99386379D-16 -0.10264294D-03
  0.41068704D-03  0.41068704D-03  0.74384672D-16  0.36418144D-16  0.25347785D-16
MO    3     MO 0.0        OCC NO =    2.0000000  ORB. ENERGY =   -5.364789
  0.72044594D-01  0.13482686D+00  0.23352716D+00  0.38181508D+00  0.59503211D+00
  0.88027033D+00  0.12125705D+01  0.14782664D+01  0.14541452D+01  0.95128969D+00
  0.11420396D+00  0.41466251D+00  0.72589548D+00  0.63726733D+00 -0.59913258D+00
 -0.80515098D+00 -0.28582251D+00 -0.12912392D-01  0.33041491D-02 -0.25095871D-03
  0.84969939D-04  0.10241677D-13  0.14716728D-13  0.19500454D-13  0.22772639D-13
  0.22663647D-13  0.17565185D-13  0.97664728D-14  0.34630165D-14  0.35145609D-13
  0.50502313D-13  0.66918276D-13  0.78147193D-13  0.77773173D-13  0.60277153D-13
  0.33514887D-13  0.11883779D-13 -0.34430546D-02 -0.49474806D-02 -0.65556774D-02
 -0.76557231D-02 -0.76190821D-02 -0.59050771D-02 -0.32833002D-02 -0.11641995D-02
  0.25688583D-14 -0.11006195D-14  0.91424580D-14 -0.39170584D-14  0.18904710D-02
 -0.80996657D-03  0.55705304D-15  0.17608922D-14 -0.17077321D-02 -0.15145002D-16
  0.55853999D-16  0.67782538D-03  0.19183878D-16  0.14689767D-16 -0.33709318D-03
  0.46554074D-20 -0.37536976D-17 -0.14235705D-04 -0.48653561D-02 -0.48653561D-02
  0.97307123D-02  0.11029550D-14 -0.18487211D-15 -0.73415419D-15 -0.12471255D-04
 -0.12471255D-04  0.24942510D-04 -0.38645961D-16 -0.37714711D-17 -0.30100253D-17
  0.87019809D-04  0.87019809D-04 -0.17403962D-03  0.81993442D-17  0.63612328D-17
  0.52696671D-17 -0.15852668D-04 -0.15852668D-04  0.31705336D-04 -0.94032326D-18
 -0.85723890D-18 -0.24173322D-18  0.72298982D-06  0.72298982D-06 -0.14459796D-05
  0.88007910D-19 -0.50500638D-18  0.69048587D-18 -0.11669870D-18  0.37834761D-18
  0.23058970D-05 -0.90878861D-19  0.39082001D-18 -0.34588456D-05  0.44097496D-18
 -0.15258628D-17 -0.34588456D-05  0.41328089D-19  0.15440030D-17  0.74169424D-17
  0.26237171D-03  0.11720539D-17  0.72634975D-17 -0.39355757D-03 -0.58040630D-17
 -0.29514325D-16 -0.39355757D-03 -0.23671767D-18 -0.18022778D-04 -0.18022778D-04
 -0.48061355D-04 -0.23702334D-18 -0.58444552D-17  0.15771681D-18 -0.38892853D-17
  0.78146359D-17  0.51807493D-17 -0.36047398D-04  0.14418407D-03  0.14418407D-03
 -0.38743920D-17 -0.59105421D-17  0.23791959D-18  0.83945775D-04  0.15678677D-03
  0.27060201D-03  0.43955860D-03  0.67086126D-03  0.94221223D-03  0.11453594D-02
  0.10866200D-02  0.12327567D-03  0.48042481D-03  0.60353104D-03  0.89318379D-03
 -0.10279472D-02  0.79846195D-03 -0.62845777D-03 -0.38218610D-03  0.43080829D-17
  0.56730740D-17  0.63114267D-17  0.58612212D-17  0.40859390D-17  0.63991504D-16
  0.84266841D-16  0.93748820D-16  0.87061547D-16  0.60691818D-16 -0.11937743D-02
 -0.15720147D-02 -0.17489029D-02 -0.16241505D-02 -0.11322180D-02 -0.53510514D-17
  0.22808982D-16 -0.36242954D-03  0.12966420D-16  0.25443247D-16  0.32266281D-03
 -0.41945855D-17 -0.63496185D-18 -0.39848422D-03 -0.14245111D-17  0.39724564D-17
 -0.68480481D-05  0.95707138D-04  0.95707138D-04 -0.19141428D-03 -0.11702772D-18
 -0.27212223D-18  0.27358855D-16  0.42528405D-03  0.42528405D-03 -0.85056810D-03
 -0.21936672D-17  0.12582295D-16  0.48032247D-16 -0.23931338D-04 -0.23931338D-04
  0.47862675D-04 -0.17677751D-17  0.22212100D-16  0.38491504D-16  0.18253142D-04
  0.18253142D-04 -0.36506284D-04  0.10905547D-18 -0.15138082D-17  0.24980413D-17
  0.27466124D-17 -0.55160048D-18 -0.44523056D-03  0.24197005D-17 -0.16372327D-17
  0.66784585D-03 -0.10659538D-16  0.32920341D-17  0.66784585D-03  0.13149604D-16
 -0.17444534D-17 -0.10593381D-16 -0.36965759D-03 -0.17863155D-17 -0.10535229D-16
  0.55448639D-03  0.70196755D-17  0.42315371D-16  0.55448639D-03 -0.61003760D-17
 -0.32892638D-03 -0.32892638D-03 -0.87713657D-03  0.65593055D-17 -0.23935091D-17
  0.64800962D-17  0.24379565D-16  0.37088253D-17 -0.32264996D-16 -0.65785144D-03
  0.26314097D-02  0.26314097D-02  0.23656293D-16 -0.39459486D-17 -0.39118205D-16
MO    4     MO 0.0        OCC NO =    2.0000000  ORB. ENERGY =   -3.699711
  0.65917542D-15  0.12336047D-14  0.21366678D-14  0.34934351D-14  0.54442744D-14
  0.80540751D-14  0.11094471D-13  0.13525468D-13  0.13304771D-13  0.87038700D-14
  0.10292243D-14  0.37370046D-14  0.65418857D-14  0.60927844D-14 -0.55494275D-14
 -0.64216793D-14 -0.37046782D-14 -0.29496682D-15 -0.20563415D-15 -0.40040355D-15
 -0.41308642D-16 -0.22290707D+00 -0.32030524D+00 -0.42442164D+00 -0.49563979D+00
 -0.49326761D+00 -0.38230107D+00 -0.21256440D+00 -0.75371534D-01 -0.33159079D+01
 -0.47647779D+01 -0.63135864D+01 -0.73730091D+01 -0.73377212D+01 -0.56870117D+01
 -0.31620530D+01 -0.11212074D+01 -0.22345840D-13 -0.32109746D-13 -0.42547138D-13
 -0.49686567D-13 -0.49448762D-13 -0.38324663D-13 -0.21309015D-13 -0.75557953D-14
 -0.67587896D-02  0.28957829D-02 -0.10054200D+00  0.43076916D-01  0.71567863D-15
 -0.30663033D-15 -0.12787211D-01 -0.19021923D+00 -0.85793800D-15 -0.27506490D-03
 -0.40917942D-02 -0.20729124D-15  0.12202786D-05  0.18152548D-04  0.31163000D-15
 -0.68180984D-06 -0.10142427D-04  0.54222505D-16  0.87412376D-14 -0.16877272D-13
  0.81360344D-14 -0.95897237D-14 -0.40194367D-03 -0.59792100D-02  0.33689453D-15
 -0.80485484D-15  0.46796031D-15 -0.47329071D-15 -0.54218284D-04 -0.80653716D-03
 -0.25252062D-16  0.68940358D-16 -0.43688296D-16  0.49478146D-16 -0.12492132D-04
 -0.18582972D-03  0.10175972D-16  0.20613505D-17 -0.12237323D-16 -0.41433862D-17
  0.15338549D-05  0.22817229D-04  0.40059421D-19  0.85061626D-18 -0.89067568D-18
  0.83396748D-18  0.15650081D-08  0.23280655D-07 -0.66557095D-07 -0.99008612D-06
  0.13842246D-17 -0.66522954D-07 -0.98957824D-06 -0.45958550D-17  0.26619424D-06
  0.39598366D-05  0.44318114D-18  0.52344725D-17 -0.10201509D-04 -0.15175500D-03
 -0.38109331D-16 -0.10202130D-04 -0.15176424D-03  0.33940802D-16  0.40806655D-04
  0.60702924D-03  0.80387192D-16 -0.85335804D-16  0.56897244D-17  0.15444414D-16
  0.12392993D-16 -0.15213848D-18  0.41069481D-05  0.24824634D-19  0.61093897D-04
 -0.54760166D-05 -0.81459806D-04 -0.26223436D-16 -0.79149097D-17 -0.66443046D-16
  0.61097726D-04  0.41072056D-05  0.38194153D-18  0.33762826D-17  0.63059333D-17
  0.10883560D-16  0.17678960D-16  0.26981908D-16  0.37895591D-16  0.46066129D-16
  0.43703641D-16 -0.43310323D-16 -0.16878720D-15 -0.12849305D-15 -0.13959998D-16
  0.29154253D-15 -0.38552605D-15  0.37170155D-15  0.59061446D-15 -0.40908271D-04
 -0.53869819D-04 -0.59931426D-04 -0.55656409D-04 -0.38798858D-04 -0.60854084D-03
 -0.80135348D-03 -0.89152438D-03 -0.82793033D-03 -0.57716177D-03  0.19335917D-15
  0.25462391D-15  0.28327502D-15  0.26306850D-15  0.18338872D-15 -0.21077931D-04
 -0.31354985D-03 -0.48477004D-16 -0.26610584D-04 -0.39585215D-03 -0.56068085D-16
  0.46042359D-05  0.68491420D-04  0.31449358D-15  0.21635662D-06  0.32184651D-05
  0.15529382D-16 -0.70904064D-16 -0.40349126D-15  0.47439532D-15 -0.21327246D-15
 -0.68334979D-05 -0.10165335D-03  0.14907546D-15  0.49741466D-17 -0.15404960D-15
  0.27956957D-16 -0.79136362D-04 -0.11772120D-02 -0.18626150D-16  0.11616338D-16
  0.70098118D-17 -0.92538296D-17 -0.45117940D-04 -0.67116279D-03 -0.17074353D-16
 -0.15578007D-16  0.32652360D-16 -0.54937842D-18  0.18562934D-05  0.27613739D-04
 -0.96961153D-05 -0.14423690D-03 -0.13890858D-15 -0.96964221D-05 -0.14424146D-03
  0.61263523D-16  0.38784768D-04  0.57695216D-03  0.35546223D-15  0.89432935D-15
  0.25512695D-04  0.37952024D-03  0.31934319D-16  0.25512796D-04  0.37952175D-03
 -0.20331851D-15 -0.10205088D-03 -0.15180825D-02  0.10751555D-15 -0.62666327D-16
  0.47448859D-16  0.36584815D-16  0.60380494D-16  0.10371340D-15  0.13330750D-03
 -0.17228293D-15  0.19830478D-02 -0.17774367D-03 -0.26440688D-02 -0.70959540D-16
 -0.21373361D-15 -0.14854935D-15  0.19830629D-02  0.13330851D-03  0.20570858D-15
MO    5     MO 0.0        OCC NO =    2.0000000  ORB. ENERGY =   -3.699711
 -0.15454600D-15 -0.28922297D-15 -0.50094931D-15 -0.81904818D-15 -0.12764293D-14
 -0.18883063D-14 -0.26011378D-14 -0.31710937D-14 -0.31193503D-14 -0.20406530D-14
 -0.22538901D-15 -0.81836371D-15 -0.14326024D-14 -0.16109124D-14  0.16074528D-14
  0.12094387D-14  0.11457713D-14 -0.10768701D-15 -0.26394564D-15  0.19636980D-15
 -0.13518714D-16  0.33159079D+01  0.47647779D+01  0.63135864D+01  0.73730091D+01
  0.73377212D+01  0.56870117D+01  0.31620530D+01  0.11212074D+01 -0.22290707D+00
 -0.32030524D+00 -0.42442164D+00 -0.49563979D+00 -0.49326761D+00 -0.38230107D+00
 -0.21256440D+00 -0.75371534D-01 -0.27081112D-12 -0.38914074D-12 -0.51563237D-12
 -0.60215571D-12 -0.59927374D-12 -0.46445984D-12 -0.25824575D-12 -0.91569324D-13
  0.10054200D+00 -0.43076916D-01 -0.67587896D-02  0.28957829D-02 -0.88672370D-14
  0.37991408D-14  0.19021923D+00 -0.12787211D-01 -0.15896032D-13  0.40917942D-02
 -0.27506490D-03  0.50271641D-15 -0.18152548D-04  0.12202786D-05 -0.38082551D-16
  0.10142427D-04 -0.68180984D-06  0.15738498D-16  0.54356752D-14 -0.41092337D-14
 -0.13264415D-14  0.23855187D-13  0.59792100D-02 -0.40194367D-03  0.34580450D-15
  0.15965116D-16 -0.36176962D-15  0.11940709D-14  0.80653716D-03 -0.54218284D-04
  0.77182102D-16  0.12292035D-15 -0.20010245D-15 -0.10699269D-15  0.18582972D-03
 -0.12492132D-04  0.83523143D-17 -0.17426133D-17 -0.66097010D-17  0.10421424D-16
 -0.22817229D-04  0.15338549D-05  0.34217442D-18  0.12284199D-17 -0.15705943D-17
 -0.61056557D-18 -0.23280655D-07  0.15650081D-08  0.99008612D-06 -0.66557095D-07
  0.13615384D-16  0.98957824D-06 -0.66522954D-07 -0.21439332D-16 -0.39598366D-05
  0.26619424D-06 -0.19406821D-16  0.47270849D-17  0.15175500D-03 -0.10201509D-04
  0.17032690D-15  0.15176424D-03 -0.10202130D-04 -0.29776162D-15 -0.60702924D-03
  0.40806655D-04 -0.21321909D-15 -0.65913674D-16 -0.12451467D-16  0.38861222D-17
 -0.21507027D-16 -0.14698949D-17 -0.61093897D-04 -0.11635487D-17  0.41069481D-05
  0.81459806D-04 -0.54760166D-05 -0.38825046D-16  0.11353385D-15  0.15508313D-16
  0.41072056D-05 -0.61097726D-04  0.79003308D-17 -0.15763993D-16 -0.29442644D-16
 -0.50815758D-16 -0.82543744D-16 -0.12597956D-15 -0.17693597D-15 -0.21508453D-15
 -0.20405398D-15  0.24358070D-16  0.94927259D-16 -0.75235442D-16 -0.12998858D-15
 -0.43544943D-15  0.66287697D-15  0.48151253D-15 -0.18526420D-15  0.60854084D-03
  0.80135348D-03  0.89152438D-03  0.82793033D-03  0.57716177D-03 -0.40908271D-04
 -0.53869819D-04 -0.59931426D-04 -0.55656409D-04 -0.38798858D-04  0.36433670D-15
  0.47977467D-15  0.53376048D-15  0.49568638D-15  0.34554988D-15  0.31354985D-03
 -0.21077931D-04  0.66436620D-15  0.39585215D-03 -0.26610584D-04  0.82522109D-15
 -0.68491420D-04  0.46042358D-05 -0.12538605D-15 -0.32184651D-05  0.21635662D-06
 -0.18844108D-16 -0.95216836D-16  0.65082592D-16  0.30134244D-16 -0.36172565D-15
  0.10165335D-03 -0.68334979D-05 -0.93173794D-16 -0.45124302D-15  0.54441682D-15
  0.52822135D-16  0.11772120D-02 -0.79136362D-04 -0.20675204D-15 -0.11732628D-15
  0.32407832D-15  0.23905794D-17  0.67116279D-03 -0.45117940D-04  0.88652570D-17
  0.92277908D-17 -0.18093048D-16 -0.53279472D-17 -0.27613739D-04  0.18562934D-05
  0.14423690D-03 -0.96961153D-05 -0.29971088D-15  0.14424146D-03 -0.96964221D-05
  0.11075304D-14 -0.57695216D-03  0.38784768D-04 -0.20839771D-15  0.88260717D-15
 -0.37952024D-03  0.25512695D-04  0.30928047D-15 -0.37952175D-03  0.25512796D-04
 -0.86405866D-15  0.15180825D-02 -0.10205088D-03 -0.63782753D-16 -0.97682369D-16
  0.25465016D-15  0.14148904D-15  0.46124386D-15  0.18759248D-15 -0.19830478D-02
 -0.26500250D-15  0.13330750D-03  0.26440688D-02 -0.17774367D-03  0.19531399D-15
 -0.17232150D-14 -0.10442482D-14  0.13330851D-03 -0.19830629D-02  0.23223006D-15
MO    6     MO 0.0        OCC NO =    2.0000000  ORB. ENERGY =   -3.692808
  0.12722312D-03  0.23808995D-03  0.41238424D-03  0.67424499D-03  0.10507637D-02
  0.15544642D-02  0.21412711D-02  0.26104618D-02  0.25678665D-02  0.16798768D-02
  0.13554750D-03  0.49215868D-03  0.86155790D-03  0.20503019D-02 -0.29329939D-02
 -0.42438200D-03 -0.42563830D-03 -0.96089598D-03  0.34946356D-02  0.84132420D-03
  0.14355355D-04  0.26817012D-12  0.38534576D-12  0.51060382D-12  0.59628337D-12
  0.59342950D-12  0.45993033D-12  0.25572729D-12  0.90676321D-13 -0.41385750D-13
 -0.59469053D-13 -0.78799687D-13 -0.92022311D-13 -0.91581884D-13 -0.70979427D-13
 -0.39465491D-13 -0.13993757D-13  0.33267660D+01  0.47803804D+01  0.63342606D+01
  0.73971525D+01  0.73617490D+01  0.57056342D+01  0.31724073D+01  0.11248789D+01
  0.88050755D-14 -0.37725079D-14 -0.14089106D-14  0.60364346D-15  0.11390975D+00
 -0.48804287D-01  0.15254479D-13 -0.23800832D-14  0.19191206D+00  0.41800277D-15
  0.74943170D-16  0.19979422D-02 -0.37657728D-16  0.16484453D-16 -0.16258388D-02
  0.13401307D-16  0.29396696D-17 -0.47041323D-04 -0.23492871D-02 -0.23492871D-02
  0.46985743D-02  0.61378487D-15  0.77326338D-14  0.24830092D-13 -0.72238897D-04
 -0.72238897D-04  0.14447779D-03  0.31789375D-16  0.42034255D-15  0.12654197D-14
 -0.50523727D-03 -0.50523727D-03  0.10104745D-02 -0.16430749D-16 -0.13677041D-16
 -0.15490471D-15 -0.50092627D-04 -0.50092627D-04  0.10018525D-03  0.26430138D-17
  0.73886756D-17  0.10172549D-16  0.17087968D-06  0.17087968D-06 -0.34175936D-06
 -0.14525519D-18 -0.20230470D-17 -0.12084520D-17  0.24239495D-17 -0.74956742D-18
 -0.78219445D-04  0.24297787D-17 -0.73585938D-18  0.11732917D-03 -0.97016271D-17
  0.29845616D-17  0.11732917D-03  0.61529054D-18  0.99848326D-17  0.33470691D-17
 -0.39317031D-03  0.10037006D-16  0.32987938D-17  0.58975547D-03 -0.39991504D-16
 -0.13340001D-16  0.58975547D-03 -0.22490539D-17  0.13587551D-04  0.13587551D-04
  0.36232843D-04 -0.33842943D-18 -0.14602794D-16 -0.34089572D-18 -0.76701325D-17
  0.19462349D-16  0.10218662D-16  0.27173221D-04 -0.10869853D-03 -0.10869853D-03
 -0.76455876D-17 -0.14578665D-16  0.20379754D-17  0.34241370D-03  0.63953117D-03
  0.11037820D-02  0.17929537D-02  0.27364342D-02  0.38432711D-02  0.46719057D-02
  0.44323083D-02  0.24817657D-03  0.96718346D-03  0.44594396D-02  0.92133019D-03
 -0.63411088D-03 -0.19254734D-02 -0.43155360D-02 -0.87970036D-03  0.16587357D-15
  0.21842965D-15  0.24300807D-15  0.22567386D-15  0.15732040D-15  0.34953375D-15
  0.46028149D-15  0.51207386D-15  0.47554670D-15  0.33151023D-15 -0.49422373D-02
 -0.65081566D-02 -0.72404755D-02 -0.67239993D-02 -0.46873936D-02  0.53799325D-16
  0.14265532D-15 -0.30158704D-02  0.66012845D-16  0.28463104D-16 -0.32667094D-02
  0.18616581D-16  0.13336705D-17 -0.70564627D-03 -0.79580292D-17 -0.57690928D-18
 -0.27305997D-04  0.49156260D-03  0.49156260D-03 -0.98312519D-03 -0.10177819D-18
  0.10937667D-15 -0.16593640D-15  0.16246772D-02  0.16246772D-02 -0.32493544D-02
  0.55369770D-18  0.11290041D-15  0.29557336D-16  0.63878592D-03  0.63878592D-03
 -0.12775718D-02 -0.32693731D-18  0.77819158D-16  0.98922578D-17  0.18648373D-04
  0.18648373D-04 -0.37296747D-04 -0.20980426D-19  0.45761566D-17 -0.37346967D-17
  0.29613377D-16  0.23014388D-16 -0.16340937D-02  0.28077685D-16  0.20442212D-16
  0.24511405D-02 -0.11691782D-15 -0.89485377D-16  0.24511405D-02  0.84106635D-17
 -0.42052729D-16 -0.74173259D-19 -0.95858442D-03 -0.41952814D-16  0.80461606D-19
  0.14378766D-02  0.16811100D-15  0.14205817D-18  0.14378766D-02 -0.52706603D-18
 -0.46530283D-03 -0.46530283D-03 -0.12408064D-02  0.53146379D-17 -0.22653676D-15
  0.54123701D-17 -0.23507591D-16  0.30265812D-15  0.31777804D-16 -0.93060224D-03
  0.37224192D-02  0.37224192D-02 -0.24810639D-16 -0.22836407D-15 -0.32181024D-16
MO    7     MO 0.0        OCC NO =    2.0000000  ORB. ENERGY =   -0.969863
 -0.66246323D-02 -0.12397576D-01 -0.21473250D-01 -0.35108595D-01 -0.54714292D-01
 -0.80942469D-01 -0.11149808D+00 -0.13592930D+00 -0.13371132D+00 -0.87472829D-01
 -0.11297989D-01 -0.41021805D-01 -0.71811515D-01 -0.66572505D-01  0.72422361D-01
  0.10305834D+00  0.67890111D-01 -0.32778081D-01 -0.21497376D-01 -0.57052329D-03
 -0.15056598D-03 -0.31815197D-14 -0.45716693D-14 -0.60577072D-14 -0.70741933D-14
 -0.70403355D-14 -0.54565266D-14 -0.30339002D-14 -0.10757667D-14 -0.10081462D-13
 -0.14486508D-13 -0.19195401D-13 -0.22416398D-13 -0.22309111D-13 -0.17290405D-13
 -0.96136919D-14 -0.34088432D-14 -0.32012734D+00 -0.46000543D+00 -0.60953189D+00
 -0.71181163D+00 -0.70840483D+00 -0.54904056D+00 -0.30527374D+00 -0.10824461D+00
 -0.14329226D-15  0.61393135D-16 -0.84109054D-15  0.36036269D-15  0.17623776D-01
 -0.75508534D-02  0.21949915D-16  0.14870648D-15  0.41832456D-02  0.30632475D-15
  0.10506540D-14  0.36441473D-01  0.13941112D-15  0.52421811D-15  0.44374065D-02
  0.19295553D-16  0.36820504D-16  0.36676383D-04  0.36221398D-01  0.36221398D-01
 -0.72442796D-01  0.19228103D-16 -0.15194142D-14 -0.53813340D-14  0.11448896D-01