 Molden2AIM, Version 4.0.0 (06/02/2016)           Time: Mon Jul  2 03:09:49 2018
GAUSSIAN             18 MOL ORBITALS    510 PRIMITIVES       10 NUCLEI
  C    1    (CENTRE  1)   0.70296867 -2.16351342  0.00000000  CHARGE =  6.0
  C    2    (CENTRE  2)   2.27485231  0.00000000  0.00000000  CHARGE =  6.0
  C    3    (CENTRE  3)   0.70296867  2.16351342  0.00000000  CHARGE =  6.0
  C    4    (CENTRE  4)  -1.84039482  1.33712485  0.00000000  CHARGE =  6.0
  C    5    (CENTRE  5)  -1.84039482 -1.33712485  0.00000000  CHARGE =  6.0
  H    6    (CENTRE  6)   4.33912110  0.00000000  0.00000000  CHARGE =  1.0
  H    7    (CENTRE  7)   1.34086273  4.12674990  0.00000000  CHARGE =  1.0
  H    8    (CENTRE  8)  -3.51042328  2.55047075  0.00000000  CHARGE =  1.0
  H    9    (CENTRE  9)  -3.51042328 -2.55047075  0.00000000  CHARGE =  1.0
  H   10    (CENTRE 10)   1.34086273 -4.12674990  0.00000000  CHARGE =  1.0
CENTRE ASSIGNMENTS    1  1  1  1  1  1  1  1  1  1  1  1  1  1  1  1  1  1  1  1
CENTRE ASSIGNMENTS    1  1  1  1  1  1  1  1  1  1  1  1  1  1  1  1  1  1  1  1
CENTRE ASSIGNMENTS    1  1  1  1  1  1  1  1  1  1  1  1  1  1  1  1  1  1  1  1
CENTRE ASSIGNMENTS    1  1  1  1  1  1  1  1  1  1  1  1  1  1  1  2  2  2  2  2
CENTRE ASSIGNMENTS    2  2  2  2  2  2  2  2  2  2  2  2  2  2  2  2  2  2  2  2
CENTRE ASSIGNMENTS    2  2  2  2  2  2  2  2  2  2  2  2  2  2  2  2  2  2  2  2
CENTRE ASSIGNMENTS    2  2  2  2  2  2  2  2  2  2  2  2  2  2  2  2  2  2  2  2
CENTRE ASSIGNMENTS    2  2  2  2  2  2  2  2  2  2  3  3  3  3  3  3  3  3  3  3
CENTRE ASSIGNMENTS    3  3  3  3  3  3  3  3  3  3  3  3  3  3  3  3  3  3  3  3
CENTRE ASSIGNMENTS    3  3  3  3  3  3  3  3  3  3  3  3  3  3  3  3  3  3  3  3
CENTRE ASSIGNMENTS    3  3  3  3  3  3  3  3  3  3  3  3  3  3  3  3  3  3  3  3
CENTRE ASSIGNMENTS    3  3  3  3  3  4  4  4  4  4  4  4  4  4  4  4  4  4  4  4
CENTRE ASSIGNMENTS    4  4  4  4  4  4  4  4  4  4  4  4  4  4  4  4  4  4  4  4
CENTRE ASSIGNMENTS    4  4  4  4  4  4  4  4  4  4  4  4  4  4  4  4  4  4  4  4
CENTRE ASSIGNMENTS    4  4  4  4  4  4  4  4  4  4  4  4  4  4  4  4  4  4  4  4
CENTRE ASSIGNMENTS    5  5  5  5  5  5  5  5  5  5  5  5  5  5  5  5  5  5  5  5
CENTRE ASSIGNMENTS    5  5  5  5  5  5  5  5  5  5  5  5  5  5  5  5  5  5  5  5
CENTRE ASSIGNMENTS    5  5  5  5  5  5  5  5  5  5  5  5  5  5  5  5  5  5  5  5
CENTRE ASSIGNMENTS    5  5  5  5  5  5  5  5  5  5  5  5  5  5  5  6  6  6  6  6
CENTRE ASSIGNMENTS    6  6  6  6  6  6  6  6  6  6  6  6  6  6  6  6  6  6  6  6
CENTRE ASSIGNMENTS    6  6  7  7  7  7  7  7  7  7  7  7  7  7  7  7  7  7  7  7
CENTRE ASSIGNMENTS    7  7  7  7  7  7  7  7  7  8  8  8  8  8  8  8  8  8  8  8
CENTRE ASSIGNMENTS    8  8  8  8  8  8  8  8  8  8  8  8  8  8  8  8  9  9  9  9
CENTRE ASSIGNMENTS    9  9  9  9  9  9  9  9  9  9  9  9  9  9  9  9  9  9  9  9
CENTRE ASSIGNMENTS    9  9  9 10 10 10 10 10 10 10 10 10 10 10 10 10 10 10 10 10
CENTRE ASSIGNMENTS   10 10 10 10 10 10 10 10 10 10
TYPE ASSIGNMENTS      1  1  1  1  1  1  1  1  1  1  1  1  1  1  1  1  1  1  1  2
TYPE ASSIGNMENTS      2  2  3  3  3  4  4  4  2  3  4  2  3  4  2  3  4  5  6  7
TYPE ASSIGNMENTS      8  9 10  5  6  7  8  9 10  5  6  7  8  9 10 11 12 13 17 14
TYPE ASSIGNMENTS     15 18 19 16 20 11 12 13 17 14 15 18 19 16 20  1  1  1  1  1
TYPE ASSIGNMENTS      1  1  1  1  1  1  1  1  1  1  1  1  1  1  2  2  2  3  3  3
TYPE ASSIGNMENTS      4  4  4  2  3  4  2  3  4  2  3  4  5  6  7  8  9 10  5  6
TYPE ASSIGNMENTS      7  8  9 10  5  6  7  8  9 10 11 12 13 17 14 15 18 19 16 20
TYPE ASSIGNMENTS     11 12 13 17 14 15 18 19 16 20  1  1  1  1  1  1  1  1  1  1
TYPE ASSIGNMENTS      1  1  1  1  1  1  1  1  1  2  2  2  3  3  3  4  4  4  2  3
TYPE ASSIGNMENTS      4  2  3  4  2  3  4  5  6  7  8  9 10  5  6  7  8  9 10  5
TYPE ASSIGNMENTS      6  7  8  9 10 11 12 13 17 14 15 18 19 16 20 11 12 13 17 14
TYPE ASSIGNMENTS     15 18 19 16 20  1  1  1  1  1  1  1  1  1  1  1  1  1  1  1
TYPE ASSIGNMENTS      1  1  1  1  2  2  2  3  3  3  4  4  4  2  3  4  2  3  4  2
TYPE ASSIGNMENTS      3  4  5  6  7  8  9 10  5  6  7  8  9 10  5  6  7  8  9 10
TYPE ASSIGNMENTS     11 12 13 17 14 15 18 19 16 20 11 12 13 17 14 15 18 19 16 20
TYPE ASSIGNMENTS      1  1  1  1  1  1  1  1  1  1  1  1  1  1  1  1  1  1  1  2
TYPE ASSIGNMENTS      2  2  3  3  3  4  4  4  2  3  4  2  3  4  2  3  4  5  6  7
TYPE ASSIGNMENTS      8  9 10  5  6  7  8  9 10  5  6  7  8  9 10 11 12 13 17 14
TYPE ASSIGNMENTS     15 18 19 16 20 11 12 13 17 14 15 18 19 16 20  1  1  1  1  1
TYPE ASSIGNMENTS      1  2  3  4  2  3  4  2  3  4  5  6  7  8  9 10  5  6  7  8
TYPE ASSIGNMENTS      9 10  1  1  1  1  1  1  2  3  4  2  3  4  2  3  4  5  6  7
TYPE ASSIGNMENTS      8  9 10  5  6  7  8  9 10  1  1  1  1  1  1  2  3  4  2  3
TYPE ASSIGNMENTS      4  2  3  4  5  6  7  8  9 10  5  6  7  8  9 10  1  1  1  1
TYPE ASSIGNMENTS      1  1  2  3  4  2  3  4  2  3  4  5  6  7  8  9 10  5  6  7
TYPE ASSIGNMENTS      8  9 10  1  1  1  1  1  1  2  3  4  2  3  4  2  3  4  5  6
TYPE ASSIGNMENTS      7  8  9 10  5  6  7  8  9 10
EXPONENTS  0.8236000D+04 0.1235000D+04 0.2808000D+03 0.7927000D+02 0.2559000D+02
EXPONENTS  0.8997000D+01 0.3319000D+01 0.3643000D+00 0.8236000D+04 0.1235000D+04
EXPONENTS  0.2808000D+03 0.7927000D+02 0.2559000D+02 0.8997000D+01 0.3319000D+01
EXPONENTS  0.3643000D+00 0.9059000D+00 0.1285000D+00 0.4402000D-01 0.1871000D+02
EXPONENTS  0.4133000D+01 0.1200000D+01 0.1871000D+02 0.4133000D+01 0.1200000D+01
EXPONENTS  0.1871000D+02 0.4133000D+01 0.1200000D+01 0.3827000D+00 0.3827000D+00
EXPONENTS  0.3827000D+00 0.1209000D+00 0.1209000D+00 0.1209000D+00 0.3569000D-01
EXPONENTS  0.3569000D-01 0.3569000D-01 0.1097000D+01 0.1097000D+01 0.1097000D+01
EXPONENTS  0.1097000D+01 0.1097000D+01 0.1097000D+01 0.3180000D+00 0.3180000D+00
EXPONENTS  0.3180000D+00 0.3180000D+00 0.3180000D+00 0.3180000D+00 0.1000000D+00
EXPONENTS  0.1000000D+00 0.1000000D+00 0.1000000D+00 0.1000000D+00 0.1000000D+00
EXPONENTS  0.7610000D+00 0.7610000D+00 0.7610000D+00 0.7610000D+00 0.7610000D+00
EXPONENTS  0.7610000D+00 0.7610000D+00 0.7610000D+00 0.7610000D+00 0.7610000D+00
EXPONENTS  0.2680000D+00 0.2680000D+00 0.2680000D+00 0.2680000D+00 0.2680000D+00
EXPONENTS  0.2680000D+00 0.2680000D+00 0.2680000D+00 0.2680000D+00 0.2680000D+00
EXPONENTS  0.8236000D+04 0.1235000D+04 0.2808000D+03 0.7927000D+02 0.2559000D+02
EXPONENTS  0.8997000D+01 0.3319000D+01 0.3643000D+00 0.8236000D+04 0.1235000D+04
EXPONENTS  0.2808000D+03 0.7927000D+02 0.2559000D+02 0.8997000D+01 0.3319000D+01
EXPONENTS  0.3643000D+00 0.9059000D+00 0.1285000D+00 0.4402000D-01 0.1871000D+02
EXPONENTS  0.4133000D+01 0.1200000D+01 0.1871000D+02 0.4133000D+01 0.1200000D+01
EXPONENTS  0.1871000D+02 0.4133000D+01 0.1200000D+01 0.3827000D+00 0.3827000D+00
EXPONENTS  0.3827000D+00 0.1209000D+00 0.1209000D+00 0.1209000D+00 0.3569000D-01
EXPONENTS  0.3569000D-01 0.3569000D-01 0.1097000D+01 0.1097000D+01 0.1097000D+01
EXPONENTS  0.1097000D+01 0.1097000D+01 0.1097000D+01 0.3180000D+00 0.3180000D+00
EXPONENTS  0.3180000D+00 0.3180000D+00 0.3180000D+00 0.3180000D+00 0.1000000D+00
EXPONENTS  0.1000000D+00 0.1000000D+00 0.1000000D+00 0.1000000D+00 0.1000000D+00
EXPONENTS  0.7610000D+00 0.7610000D+00 0.7610000D+00 0.7610000D+00 0.7610000D+00
EXPONENTS  0.7610000D+00 0.7610000D+00 0.7610000D+00 0.7610000D+00 0.7610000D+00
EXPONENTS  0.2680000D+00 0.2680000D+00 0.2680000D+00 0.2680000D+00 0.2680000D+00
EXPONENTS  0.2680000D+00 0.2680000D+00 0.2680000D+00 0.2680000D+00 0.2680000D+00
EXPONENTS  0.8236000D+04 0.1235000D+04 0.2808000D+03 0.7927000D+02 0.2559000D+02
EXPONENTS  0.8997000D+01 0.3319000D+01 0.3643000D+00 0.8236000D+04 0.1235000D+04
EXPONENTS  0.2808000D+03 0.7927000D+02 0.2559000D+02 0.8997000D+01 0.3319000D+01
EXPONENTS  0.3643000D+00 0.9059000D+00 0.1285000D+00 0.4402000D-01 0.1871000D+02
EXPONENTS  0.4133000D+01 0.1200000D+01 0.1871000D+02 0.4133000D+01 0.1200000D+01
EXPONENTS  0.1871000D+02 0.4133000D+01 0.1200000D+01 0.3827000D+00 0.3827000D+00
EXPONENTS  0.3827000D+00 0.1209000D+00 0.1209000D+00 0.1209000D+00 0.3569000D-01
EXPONENTS  0.3569000D-01 0.3569000D-01 0.1097000D+01 0.1097000D+01 0.1097000D+01
EXPONENTS  0.1097000D+01 0.1097000D+01 0.1097000D+01 0.3180000D+00 0.3180000D+00
EXPONENTS  0.3180000D+00 0.3180000D+00 0.3180000D+00 0.3180000D+00 0.1000000D+00
EXPONENTS  0.1000000D+00 0.1000000D+00 0.1000000D+00 0.1000000D+00 0.1000000D+00
EXPONENTS  0.7610000D+00 0.7610000D+00 0.7610000D+00 0.7610000D+00 0.7610000D+00
EXPONENTS  0.7610000D+00 0.7610000D+00 0.7610000D+00 0.7610000D+00 0.7610000D+00
EXPONENTS  0.2680000D+00 0.2680000D+00 0.2680000D+00 0.2680000D+00 0.2680000D+00
EXPONENTS  0.2680000D+00 0.2680000D+00 0.2680000D+00 0.2680000D+00 0.2680000D+00
EXPONENTS  0.8236000D+04 0.1235000D+04 0.2808000D+03 0.7927000D+02 0.2559000D+02
EXPONENTS  0.8997000D+01 0.3319000D+01 0.3643000D+00 0.8236000D+04 0.1235000D+04
EXPONENTS  0.2808000D+03 0.7927000D+02 0.2559000D+02 0.8997000D+01 0.3319000D+01
EXPONENTS  0.3643000D+00 0.9059000D+00 0.1285000D+00 0.4402000D-01 0.1871000D+02
EXPONENTS  0.4133000D+01 0.1200000D+01 0.1871000D+02 0.4133000D+01 0.1200000D+01
EXPONENTS  0.1871000D+02 0.4133000D+01 0.1200000D+01 0.3827000D+00 0.3827000D+00
EXPONENTS  0.3827000D+00 0.1209000D+00 0.1209000D+00 0.1209000D+00 0.3569000D-01
EXPONENTS  0.3569000D-01 0.3569000D-01 0.1097000D+01 0.1097000D+01 0.1097000D+01
EXPONENTS  0.1097000D+01 0.1097000D+01 0.1097000D+01 0.3180000D+00 0.3180000D+00
EXPONENTS  0.3180000D+00 0.3180000D+00 0.3180000D+00 0.3180000D+00 0.1000000D+00
EXPONENTS  0.1000000D+00 0.1000000D+00 0.1000000D+00 0.1000000D+00 0.1000000D+00
EXPONENTS  0.7610000D+00 0.7610000D+00 0.7610000D+00 0.7610000D+00 0.7610000D+00
EXPONENTS  0.7610000D+00 0.7610000D+00 0.7610000D+00 0.7610000D+00 0.7610000D+00
EXPONENTS  0.2680000D+00 0.2680000D+00 0.2680000D+00 0.2680000D+00 0.2680000D+00
EXPONENTS  0.2680000D+00 0.2680000D+00 0.2680000D+00 0.2680000D+00 0.2680000D+00
EXPONENTS  0.8236000D+04 0.1235000D+04 0.2808000D+03 0.7927000D+02 0.2559000D+02
EXPONENTS  0.8997000D+01 0.3319000D+01 0.3643000D+00 0.8236000D+04 0.1235000D+04
EXPONENTS  0.2808000D+03 0.7927000D+02 0.2559000D+02 0.8997000D+01 0.3319000D+01
EXPONENTS  0.3643000D+00 0.9059000D+00 0.1285000D+00 0.4402000D-01 0.1871000D+02
EXPONENTS  0.4133000D+01 0.1200000D+01 0.1871000D+02 0.4133000D+01 0.1200000D+01
EXPONENTS  0.1871000D+02 0.4133000D+01 0.1200000D+01 0.3827000D+00 0.3827000D+00
EXPONENTS  0.3827000D+00 0.1209000D+00 0.1209000D+00 0.1209000D+00 0.3569000D-01
EXPONENTS  0.3569000D-01 0.3569000D-01 0.1097000D+01 0.1097000D+01 0.1097000D+01
EXPONENTS  0.1097000D+01 0.1097000D+01 0.1097000D+01 0.3180000D+00 0.3180000D+00
EXPONENTS  0.3180000D+00 0.3180000D+00 0.3180000D+00 0.3180000D+00 0.1000000D+00
EXPONENTS  0.1000000D+00 0.1000000D+00 0.1000000D+00 0.1000000D+00 0.1000000D+00
EXPONENTS  0.7610000D+00 0.7610000D+00 0.7610000D+00 0.7610000D+00 0.7610000D+00
EXPONENTS  0.7610000D+00 0.7610000D+00 0.7610000D+00 0.7610000D+00 0.7610000D+00
EXPONENTS  0.2680000D+00 0.2680000D+00 0.2680000D+00 0.2680000D+00 0.2680000D+00
EXPONENTS  0.2680000D+00 0.2680000D+00 0.2680000D+00 0.2680000D+00 0.2680000D+00
EXPONENTS  0.3387000D+02 0.5095000D+01 0.1159000D+01 0.3258000D+00 0.1027000D+00
EXPONENTS  0.2526000D-01 0.1407000D+01 0.1407000D+01 0.1407000D+01 0.3880000D+00
EXPONENTS  0.3880000D+00 0.3880000D+00 0.1020000D+00 0.1020000D+00 0.1020000D+00
EXPONENTS  0.1057000D+01 0.1057000D+01 0.1057000D+01 0.1057000D+01 0.1057000D+01
EXPONENTS  0.1057000D+01 0.2470000D+00 0.2470000D+00 0.2470000D+00 0.2470000D+00
EXPONENTS  0.2470000D+00 0.2470000D+00 0.3387000D+02 0.5095000D+01 0.1159000D+01
EXPONENTS  0.3258000D+00 0.1027000D+00 0.2526000D-01 0.1407000D+01 0.1407000D+01
EXPONENTS  0.1407000D+01 0.3880000D+00 0.3880000D+00 0.3880000D+00 0.1020000D+00
EXPONENTS  0.1020000D+00 0.1020000D+00 0.1057000D+01 0.1057000D+01 0.1057000D+01
EXPONENTS  0.1057000D+01 0.1057000D+01 0.1057000D+01 0.2470000D+00 0.2470000D+00
EXPONENTS  0.2470000D+00 0.2470000D+00 0.2470000D+00 0.2470000D+00 0.3387000D+02
EXPONENTS  0.5095000D+01 0.1159000D+01 0.3258000D+00 0.1027000D+00 0.2526000D-01
EXPONENTS  0.1407000D+01 0.1407000D+01 0.1407000D+01 0.3880000D+00 0.3880000D+00
EXPONENTS  0.3880000D+00 0.1020000D+00 0.1020000D+00 0.1020000D+00 0.1057000D+01
EXPONENTS  0.1057000D+01 0.1057000D+01 0.1057000D+01 0.1057000D+01 0.1057000D+01
EXPONENTS  0.2470000D+00 0.2470000D+00 0.2470000D+00 0.2470000D+00 0.2470000D+00
EXPONENTS  0.2470000D+00 0.3387000D+02 0.5095000D+01 0.1159000D+01 0.3258000D+00
EXPONENTS  0.1027000D+00 0.2526000D-01 0.1407000D+01 0.1407000D+01 0.1407000D+01
EXPONENTS  0.3880000D+00 0.3880000D+00 0.3880000D+00 0.1020000D+00 0.1020000D+00
EXPONENTS  0.1020000D+00 0.1057000D+01 0.1057000D+01 0.1057000D+01 0.1057000D+01
EXPONENTS  0.1057000D+01 0.1057000D+01 0.2470000D+00 0.2470000D+00 0.2470000D+00
EXPONENTS  0.2470000D+00 0.2470000D+00 0.2470000D+00 0.3387000D+02 0.5095000D+01
EXPONENTS  0.1159000D+01 0.3258000D+00 0.1027000D+00 0.2526000D-01 0.1407000D+01
EXPONENTS  0.1407000D+01 0.1407000D+01 0.3880000D+00 0.3880000D+00 0.3880000D+00
EXPONENTS  0.1020000D+00 0.1020000D+00 0.1020000D+00 0.1057000D+01 0.1057000D+01
EXPONENTS  0.1057000D+01 0.1057000D+01 0.1057000D+01 0.1057000D+01 0.2470000D+00
EXPONENTS  0.2470000D+00 0.2470000D+00 0.2470000D+00 0.2470000D+00 0.2470000D+00
MO    1     MO 0.0        OCC NO =    2.0000000  ORB. ENERGY =   -9.823923
  0.14768200D+00  0.27531282D+00  0.46532717D+00  0.69953916D+00  0.85946468D+00
  0.72595532D+00  0.27380364D+00 -0.13550695D-02 -0.13236436D-02 -0.24782784D-02
 -0.42194810D-02 -0.65268955D-02 -0.85956917D-02 -0.89314743D-02 -0.56755510D-02
  0.38036223D-02  0.15752647D-01 -0.39960005D-02 -0.36407747D-03 -0.30069262D-04
 -0.28191844D-04 -0.20074273D-04  0.89921713D-04  0.84307322D-04  0.60031835D-04
  0.46469648D-15  0.43568248D-15  0.31023188D-15 -0.16759054D-04  0.54372666D-04
  0.14108469D-16 -0.44388449D-03  0.13685573D-02  0.13527744D-17 -0.67703307D-05
  0.20726694D-04  0.93307618D-18  0.40094999D-03  0.99034537D-03 -0.13912954D-02
 -0.42760739D-03  0.36947653D-18  0.90132376D-17 -0.15520490D-03 -0.83660837D-03
  0.99181327D-03  0.49671927D-03 -0.38553811D-17 -0.45827306D-18  0.72329475D-04
 -0.12894390D-03  0.56614424D-04  0.14661029D-03  0.36453974D-18  0.15048571D-17
 -0.46263801D-04 -0.21590701D-03 -0.20101326D-18  0.33118112D-03  0.57700151D-04
  0.15427119D-17 -0.19238972D-03  0.59002088D-03 -0.93967208D-18 -0.40984292D-17
  0.21950895D-03  0.19883566D-03 -0.65244284D-18 -0.69962475D-03 -0.46964577D-03
  0.10813636D-17  0.41097895D-04 -0.12686122D-03  0.87596494D-18  0.10600069D-18
  0.14722242D+00  0.27445606D+00  0.46387909D+00  0.69736222D+00  0.85679006D+00
  0.72369617D+00  0.27295157D+00 -0.13508526D-02 -0.13203312D-02 -0.24720765D-02
 -0.42089218D-02 -0.65105620D-02 -0.85741811D-02 -0.89091234D-02 -0.56613480D-02
  0.37941038D-02  0.15710390D-01 -0.40153531D-02 -0.36665616D-03 -0.96968519D-04
 -0.90914151D-04 -0.64736291D-04  0.19873563D-11  0.18632728D-11  0.13267612D-11
  0.23765352D-16  0.22281528D-16  0.15865776D-16 -0.52932414D-04 -0.99751806D-11
 -0.62220243D-17 -0.14340167D-02  0.82693726D-10 -0.31869646D-17 -0.21561995D-04
 -0.28831202D-13 -0.17969972D-18  0.10563289D-02  0.33074503D-03 -0.13870739D-02
 -0.89592769D-12 -0.96304016D-18  0.37570543D-17 -0.91484899D-03 -0.78302861D-04
  0.99315185D-03  0.18143597D-10  0.15841474D-17 -0.25684902D-17 -0.15308599D-03
  0.96394063D-04  0.56691931D-04 -0.12988532D-10  0.14577713D-17  0.14422424D-17
  0.26918046D-03  0.25555600D-13  0.11087770D-17 -0.18690768D-03 -0.21732063D-11
 -0.22728188D-17 -0.62063371D-03  0.20965395D-11 -0.10535122D-17 -0.24471956D-17
 -0.31768877D-03  0.39050249D-11  0.64266175D-19  0.82002127D-03 -0.10592913D-10
 -0.28794713D-18  0.13304504D-03 -0.11221618D-11  0.95148607D-19  0.46320109D-17
  0.14768200D+00  0.27531282D+00  0.46532717D+00  0.69953916D+00  0.85946469D+00
  0.72595532D+00  0.27380364D+00 -0.13550695D-02 -0.13236436D-02 -0.24782784D-02
 -0.42194810D-02 -0.65268955D-02 -0.85956917D-02 -0.89314743D-02 -0.56755510D-02
  0.38036223D-02  0.15752647D-01 -0.39960004D-02 -0.36407747D-03 -0.30069264D-04
 -0.28191847D-04 -0.20074274D-04 -0.89921712D-04 -0.84307321D-04 -0.60031835D-04
  0.76786779D-17  0.71992486D-17  0.51262939D-17 -0.16759039D-04 -0.54372673D-04
  0.90440283D-18 -0.44388464D-03 -0.13685573D-02 -0.13166405D-17 -0.67703309D-05
 -0.20726694D-04 -0.14099700D-18  0.40094999D-03  0.99034537D-03 -0.13912954D-02
  0.42760740D-03 -0.39768557D-17  0.32494149D-17 -0.15520492D-03 -0.83660835D-03
  0.99181327D-03 -0.49671930D-03  0.39627401D-17 -0.56533888D-17  0.72329482D-04
 -0.12894391D-03  0.56614425D-04 -0.14661027D-03 -0.78806105D-18 -0.56671985D-19
 -0.46263801D-04  0.21590701D-03  0.41824103D-18  0.33118112D-03 -0.57700150D-04
 -0.78977917D-18 -0.19238972D-03 -0.59002088D-03 -0.46494392D-18 -0.83510299D-17
  0.21950895D-03 -0.19883567D-03  0.27396033D-18 -0.69962474D-03  0.46964579D-03
 -0.11404058D-17  0.41097897D-04  0.12686122D-03  0.31852485D-18 -0.10661224D-17
  0.14755490D+00  0.27507588D+00  0.46492669D+00  0.69893711D+00  0.85872500D+00
  0.72533054D+00  0.27356799D+00 -0.13539033D-02 -0.13229567D-02 -0.24769923D-02
 -0.42172914D-02 -0.65235085D-02 -0.85912312D-02 -0.89268395D-02 -0.56726058D-02
  0.38016485D-02  0.15742464D-01 -0.40077644D-02 -0.36629519D-03  0.77823042D-04
  0.72964049D-04  0.51954749D-04 -0.55807894D-04 -0.52323448D-04 -0.37257412D-04
 -0.12420257D-16 -0.11644781D-16 -0.82917775D-17  0.43488138D-04 -0.34929643D-04
  0.70520529D-17  0.11621313D-02 -0.84477487D-03  0.48823513D-17  0.17520766D-04
 -0.12761109D-04  0.27013966D-18  0.80678640D-03  0.58327581D-03 -0.13900622D-02
 -0.69169709D-03  0.11219019D-17  0.33247705D-17 -0.62595428D-03 -0.36705206D-03
  0.99300635D-03  0.79617974D-03  0.31054080D-17 -0.53483874D-17 -0.66987709D-04
  0.10278622D-04  0.56709086D-04  0.23712945D-03  0.43401146D-18 -0.13340050D-17
 -0.89832575D-04 -0.18308984D-04 -0.18911391D-18 -0.23304542D-03  0.41960425D-03
 -0.39523575D-18  0.50254315D-03 -0.36467730D-03  0.96257748D-18  0.11629699D-17
 -0.60853645D-04  0.25110171D-03 -0.71675535D-18  0.29026439D-03 -0.83147232D-03
  0.25797744D-18 -0.10770346D-03  0.78167198D-04  0.18922886D-17  0.35323817D-18
  0.14755490D+00  0.27507588D+00  0.46492669D+00  0.69893711D+00  0.85872500D+00
  0.72533054D+00  0.27356799D+00 -0.13539033D-02 -0.13229567D-02 -0.24769923D-02
 -0.42172914D-02 -0.65235085D-02 -0.85912312D-02 -0.89268395D-02 -0.56726058D-02
  0.38016485D-02  0.15742464D-01 -0.40077644D-02 -0.36629518D-03  0.77823043D-04
  0.72964050D-04  0.51954750D-04  0.55807893D-04  0.52323447D-04  0.37257411D-04
  0.21964492D-16  0.20593107D-16  0.14663519D-16  0.43488129D-04  0.34929654D-04
 -0.95159855D-17  0.11621313D-02  0.84477473D-03 -0.68639858D-17  0.17520766D-04
  0.12761109D-04 -0.45930955D-18  0.80678640D-03  0.58327580D-03 -0.13900622D-02
  0.69169709D-03  0.26152221D-17  0.48868989D-18 -0.62595430D-03 -0.36705205D-03
  0.99300635D-03 -0.79617973D-03 -0.43074242D-17 -0.43210602D-17 -0.66987694D-04
  0.10278608D-04  0.56709086D-04 -0.23712946D-03 -0.75956836D-18 -0.14211671D-17
 -0.89832576D-04  0.18308984D-04  0.86295185D-20 -0.23304542D-03 -0.41960425D-03
  0.11653643D-17  0.50254315D-03  0.36467729D-03 -0.11912529D-17  0.14527474D-17
 -0.60853651D-04 -0.25110171D-03  0.81451946D-18  0.29026441D-03  0.83147232D-03
 -0.74941138D-18 -0.10770346D-03 -0.78167196D-04 -0.16941470D-17  0.99612583D-19
  0.60866078D-04  0.10977448D-03  0.16186240D-03  0.31240864D-02  0.26268668D-02
  0.54017413D-04  0.14896086D-03 -0.93091348D-12 -0.10594633D-17  0.21995409D-03
  0.66472578D-11  0.22881036D-17 -0.16399465D-03  0.60949925D-11 -0.14913519D-17
 -0.95586546D-03  0.44478170D-03  0.51108376D-03 -0.92498472D-12 -0.14281344D-17
  0.18790436D-17 -0.15372351D-03 -0.33085631D-04  0.18680914D-03 -0.13464277D-11
 -0.19437380D-18 -0.27702365D-17  0.60779016D-04  0.10961746D-03  0.16163088D-03
  0.31247969D-02  0.26255013D-02  0.54224865D-04  0.46924364D-04  0.14434483D-03
 -0.86443715D-18  0.67823296D-04  0.20978882D-03  0.32970630D-17 -0.50365835D-04
 -0.15580236D-03  0.69423829D-18  0.31230975D-03 -0.82445447D-03  0.51214472D-03
 -0.82570289D-03 -0.46127747D-18 -0.38106410D-17 -0.44512320D-04 -0.14231616D-03
  0.18682849D-03 -0.71181115D-04  0.16855008D-18 -0.75869425D-18  0.60868983D-04
  0.10977972D-03  0.16187013D-03  0.31243051D-02  0.26277825D-02  0.54109502D-04
 -0.12163447D-03  0.88590800D-04 -0.53659390D-18 -0.17934412D-03  0.12948415D-03
  0.12513798D-18  0.13252564D-03 -0.96530882D-04  0.70435160D-18 -0.47297818D-03
 -0.38987946D-04  0.51196612D-03  0.13348257D-02 -0.33002309D-18 -0.21331147D-18
 -0.11219050D-03 -0.74787901D-04  0.18697840D-03  0.11490882D-03  0.15347155D-18
 -0.72811518D-18  0.60868983D-04  0.10977972D-03  0.16187013D-03  0.31243051D-02
  0.26277825D-02  0.54109502D-04 -0.12163447D-03 -0.88590799D-04  0.59359597D-19
 -0.17934412D-03 -0.12948415D-03 -0.77160362D-19  0.13252565D-03  0.96530870D-04
 -0.48079076D-18 -0.47297818D-03 -0.38987946D-04  0.51196612D-03 -0.13348257D-02
  0.98494771D-18 -0.82603537D-18 -0.11219050D-03 -0.74787902D-04  0.18697840D-03
 -0.11490882D-03 -0.65734185D-19 -0.86322748D-18  0.60779016D-04  0.10961746D-03
  0.16163088D-03  0.31247969D-02  0.26255013D-02  0.54224865D-04  0.46924362D-04
 -0.14434482D-03  0.74623911D-18  0.67823306D-04 -0.20978881D-03 -0.19807252D-17
 -0.50365823D-04  0.15580236D-03  0.21387702D-18  0.31230975D-03 -0.82445447D-03
  0.51214472D-03  0.82570289D-03 -0.38777926D-18 -0.10844574D-17 -0.44512321D-04
 -0.14231616D-03  0.18682849D-03  0.71181117D-04  0.36567338D-18  0.34727992D-19
MO    2     MO 0.0        OCC NO =    2.0000000  ORB. ENERGY =   -9.823674
 -0.19855826D+00 -0.37015775D+00 -0.62563180D+00 -0.94052953D+00 -0.11555492D+01
 -0.97604603D+00 -0.36812865D+00  0.18218892D-02  0.17481848D-02  0.32731534D-02
  0.55728238D-02  0.86203110D-02  0.11352646D-01  0.11796127D-01  0.74959090D-02
 -0.50235839D-02 -0.20072539D-01 -0.13395225D-03  0.80086911D-03  0.35978482D-04
  0.33732114D-04  0.24019274D-04  0.57841226D-03  0.54229826D-03  0.38614867D-03
 -0.16152683D-15 -0.15144167D-15 -0.10783549D-15  0.87269082D-03 -0.15109497D-02
  0.28028352D-16  0.14199696D-03 -0.11711445D-02 -0.13319495D-16  0.30835413D-04
 -0.15929450D-04  0.14452768D-18 -0.78551318D-03 -0.97863282D-03  0.17641460D-02
  0.27647682D-03  0.20449352D-15 -0.79197618D-17  0.13920825D-02 -0.93201233D-03
 -0.46007017D-03  0.92823490D-03 -0.41879311D-16 -0.10253396D-17  0.66670169D-05
  0.51823774D-04 -0.58490791D-04 -0.13705687D-03  0.16261769D-17 -0.74350005D-18
  0.19447445D-03  0.13535544D-03  0.39871753D-18 -0.93567903D-03 -0.71703115D-04
 -0.25534969D-17  0.35225570D-03 -0.33436319D-03  0.13573443D-17  0.29294304D-16
 -0.16426581D-03 -0.22371568D-03  0.93076460D-19  0.39113134D-03  0.75103617D-03
 -0.10021356D-17  0.10166609D-03 -0.79889144D-04  0.72290620D-18 -0.76424496D-19
  0.42711463D-08  0.79623878D-08  0.13457838D-07  0.20231539D-07  0.24856783D-07
  0.20995527D-07  0.79187402D-08 -0.39190287D-10 -0.37665818D-10 -0.70522295D-10
 -0.12007024D-09 -0.18573041D-09 -0.24460041D-09 -0.25415550D-09 -0.16150441D-09
  0.10823650D-09  0.43211126D-09 -0.55824922D-11 -0.19480520D-10  0.11545654D-10
  0.10824784D-10  0.77078914D-11  0.69190303D-03  0.64870307D-03  0.46191523D-03
 -0.69043666D-19 -0.64732825D-19 -0.46093628D-19 -0.37430517D-10  0.11667512D-02
  0.85891948D-18 -0.19775107D-10 -0.73628924D-03 -0.17334710D-17 -0.33384435D-12
  0.78966722D-04 -0.11090188D-18  0.22235509D-10  0.15774376D-10 -0.38009885D-10
 -0.35277505D-03  0.64545952D-18  0.36071726D-17  0.22237425D-10 -0.32516711D-10
  0.10279286D-10  0.19932424D-02  0.11168195D-17  0.11347938D-17 -0.22793716D-11
  0.93480901D-12  0.13445626D-11  0.27393822D-03 -0.88913097D-18  0.55363902D-19
  0.75334791D-11  0.21352766D-03  0.10781316D-17 -0.13486570D-10 -0.13923837D-02
 -0.29838747D-17 -0.91138670D-11  0.75180068D-03 -0.25051998D-18 -0.49112354D-17
 -0.48903410D-11  0.31545083D-03 -0.15634691D-18  0.17308201D-10 -0.11793667D-02
  0.12442830D-17 -0.26371777D-11  0.23301423D-03 -0.77524227D-18 -0.80411798D-18
  0.19855827D+00  0.37015775D+00  0.62563181D+00  0.94052954D+00  0.11555492D+01
  0.97604604D+00  0.36812866D+00 -0.18218893D-02 -0.17481848D-02 -0.32731535D-02
 -0.55728239D-02 -0.86203112D-02 -0.11352647D-01 -0.11796127D-01 -0.74959091D-02
  0.50235840D-02  0.20072539D-01  0.13395227D-03 -0.80086912D-03 -0.35978453D-04
 -0.33732087D-04 -0.24019255D-04  0.57841226D-03  0.54229826D-03  0.38614867D-03
  0.16351517D-16  0.15330586D-16  0.10916291D-16 -0.87269078D-03 -0.15109498D-02
 -0.73280421D-17 -0.14199700D-03 -0.11711445D-02  0.26914922D-17 -0.30835410D-04
 -0.15929451D-04 -0.21611328D-19  0.78551319D-03  0.97863284D-03 -0.17641460D-02
  0.27647681D-03  0.18589255D-17  0.13158007D-17 -0.13920825D-02  0.93201232D-03
  0.46007017D-03  0.92823499D-03 -0.12140362D-17  0.98812318D-18 -0.66670140D-05
 -0.51823778D-04  0.58490792D-04 -0.13705686D-03  0.17730199D-18 -0.71070331D-18
 -0.19447445D-03  0.13535546D-03  0.72426819D-18  0.93567901D-03 -0.71703157D-04
 -0.13579729D-17 -0.35225567D-03 -0.33436321D-03 -0.81483165D-18 -0.28292675D-17
  0.16426582D-03 -0.22371567D-03 -0.39993900D-19 -0.39113137D-03  0.75103614D-03
  0.86750199D-18 -0.10166608D-03 -0.79889148D-04 -0.74752029D-18 -0.41982484D-18
  0.12245035D+00  0.22827529D+00  0.38582546D+00  0.58002204D+00  0.71262410D+00
  0.60192497D+00  0.22702395D+00 -0.11235542D-02 -0.10785759D-02 -0.20194345D-02
 -0.34382599D-02 -0.53184653D-02 -0.70042317D-02 -0.72778454D-02 -0.46247441D-02
  0.30993959D-02  0.12381599D-01  0.69700799D-04 -0.49685389D-03  0.60091392D-04
  0.56339500D-04  0.40117080D-04  0.64714685D-03  0.60674131D-03  0.43203596D-03
 -0.57479973D-17 -0.53891129D-17 -0.38373694D-17  0.14078523D-02  0.14709445D-03
  0.17092010D-18  0.22675121D-03 -0.90016855D-03 -0.20046964D-17  0.49768710D-04
  0.42816257D-04  0.26647095D-19  0.71039735D-03  0.37741469D-03 -0.10878120D-02
 -0.97273609D-04  0.93148124D-18  0.17218398D-18 -0.67664440D-03  0.39128328D-03
  0.28536111D-03 -0.19287371D-02 -0.52264541D-18  0.44164230D-17 -0.13457480D-03
  0.98360126D-04  0.36214674D-04  0.74166860D-06 -0.21430893D-17  0.13520837D-17
 -0.40271697D-03 -0.33515932D-03  0.31123006D-18  0.63750573D-03  0.66899849D-03
  0.14334685D-17  0.57064520D-03  0.33647949D-03 -0.23671587D-17  0.46448355D-17
 -0.37764086D-03  0.28692414D-04 -0.98831424D-19  0.96823846D-03 -0.19942589D-03
  0.16010170D-17  0.16468412D-03  0.11334865D-03 -0.13045227D-17 -0.27058484D-17
 -0.12245036D+00 -0.22827531D+00 -0.38582548D+00 -0.58002208D+00 -0.71262414D+00
 -0.60192501D+00 -0.22702397D+00  0.11235543D-02  0.10785760D-02  0.20194346D-02
  0.34382601D-02  0.53184656D-02  0.70042321D-02  0.72778459D-02  0.46247443D-02
 -0.30993961D-02 -0.12381600D-01 -0.69700805D-04  0.49685392D-03 -0.60091366D-04
 -0.56339475D-04 -0.40117063D-04  0.64714685D-03  0.60674131D-03  0.43203596D-03
 -0.11201863D-16 -0.10502458D-16 -0.74783760D-17 -0.14078524D-02  0.14709439D-03
  0.58239360D-17 -0.22675126D-03 -0.90016856D-03  0.93248677D-17 -0.49768710D-04
  0.42816255D-04  0.24376711D-18 -0.71039738D-03 -0.37741473D-03  0.10878121D-02
 -0.97273623D-04 -0.47303557D-17 -0.33607780D-17  0.67664437D-03 -0.39128324D-03
 -0.28536113D-03 -0.19287372D-02  0.29285107D-17  0.31753205D-17  0.13457480D-03
 -0.98360122D-04 -0.36214676D-04  0.74167499D-06  0.15369548D-17 -0.20513707D-18
  0.40271696D-03 -0.33515932D-03 -0.14267855D-17 -0.63750569D-03  0.66899851D-03
  0.88519431D-18 -0.57064520D-03  0.33647946D-03  0.33951622D-17 -0.43281074D-17
  0.37764085D-03  0.28692428D-04 -0.22845719D-18 -0.96823844D-03 -0.19942592D-03
 -0.61061345D-18 -0.16468412D-03  0.11334864D-03  0.12959850D-17 -0.24233031D-17
  0.60270428D-12  0.10870020D-11  0.16027838D-11 -0.32249050D-11  0.38323196D-10
  0.57600813D-13  0.12114679D-10 -0.16775847D-03 -0.18755716D-18  0.27752783D-10
  0.11307678D-02 -0.25145378D-17 -0.13720511D-11 -0.19540356D-03  0.10252716D-17
 -0.22703891D-10  0.10403681D-10  0.12300210D-10 -0.49986796D-03  0.32229358D-17
  0.82643209D-18 -0.31305976D-11 -0.12022268D-11  0.43328244D-11  0.98785193D-04
  0.66620014D-18  0.46474202D-18  0.27028624D-04  0.48747237D-04  0.71877773D-04
 -0.73559260D-04  0.18213004D-02  0.14014083D-04  0.22221238D-03  0.51581977D-03
  0.76636918D-19  0.66083282D-04  0.13354041D-02  0.14494328D-17  0.32591027D-04
 -0.94191281D-04  0.91279659D-18  0.38755224D-03 -0.96236064D-03  0.57480840D-03
 -0.78963565D-03  0.12007761D-17 -0.91863683D-18 -0.69323017D-04 -0.13209764D-03
  0.20142065D-03 -0.83211691D-04 -0.95619177D-18 -0.11117428D-17  0.16783618D-04
  0.30269946D-04  0.44633017D-04 -0.45935667D-04  0.11268180D-02  0.85267092D-05
 -0.35796798D-03  0.92232803D-04  0.30823079D-17 -0.10726191D-03  0.12091277D-02
 -0.53047291D-17 -0.52859425D-04 -0.15665411D-03 -0.32143370D-17 -0.13318483D-03
 -0.22149162D-03  0.35467645D-03  0.10373027D-02 -0.15016250D-17  0.90430434D-18
 -0.10970392D-03 -0.14814745D-04  0.12451866D-03  0.33743993D-04 -0.72391865D-18
  0.23232094D-17 -0.16783619D-04 -0.30269947D-04 -0.44633020D-04  0.45935666D-04
 -0.11268180D-02 -0.85267099D-05  0.35796799D-03  0.92232818D-04 -0.18155408D-18
  0.10726197D-03  0.12091277D-02  0.91978216D-18  0.52859420D-04 -0.15665410D-03
 -0.32227814D-18  0.13318485D-03  0.22149161D-03 -0.35467647D-03  0.10373027D-02
 -0.26239496D-17 -0.91294173D-18  0.10970392D-03  0.14814749D-04 -0.12451867D-03
  0.33743998D-04 -0.38709302D-18  0.38880952D-18 -0.27028624D-04 -0.48747237D-04
 -0.71877772D-04  0.73559256D-04 -0.18213003D-02 -0.14014083D-04 -0.22221238D-03
  0.51581976D-03 -0.10279836D-17 -0.66083234D-04  0.13354041D-02 -0.21639302D-17
 -0.32591034D-04 -0.94191282D-04 -0.15063500D-17 -0.38755224D-03  0.96236063D-03
 -0.57480839D-03 -0.78963562D-03  0.12257427D-17  0.60271185D-19  0.69323018D-04
  0.13209763D-03 -0.20142065D-03 -0.83211693D-04 -0.20797964D-18 -0.12487169D-17