 Molden2AIM, Version 4.0.0 (06/02/2016)           Time: Mon Jul  2 03:39:21 2018
GAUSSIAN             18 MOL ORBITALS    483 PRIMITIVES        9 NUCLEI
  H    1    (CENTRE  1)   0.00000000  4.00801840  1.34448534  CHARGE =  1.0
  H    2    (CENTRE  2)   0.00000000  2.27538899 -3.60087124  CHARGE =  1.0
  H    3    (CENTRE  3)   0.00000000 -3.97701556  1.25378793  CHARGE =  1.0
  H    4    (CENTRE  4)   0.00000000 -0.02663947  3.98897185  CHARGE =  1.0
  C    5    (CENTRE  5)   0.00000000  2.10992646  0.57551609  CHARGE =  6.0
  C    6    (CENTRE  6)   0.00000000  1.19873265 -1.85468115  CHARGE =  6.0
  C    7    (CENTRE  7)   0.00000000 -2.05581415  0.53571090  CHARGE =  6.0
  N    8    (CENTRE  8)   0.00000000 -1.39582730 -1.85844927  CHARGE =  7.0
  N    9    (CENTRE  9)   0.00000000 -0.00257192  2.08433012  CHARGE =  7.0
CENTRE ASSIGNMENTS    1  1  1  1  1  1  1  1  1  1  1  1  1  1  1  1  1  1  1  1
CENTRE ASSIGNMENTS    1  1  1  1  1  1  1  2  2  2  2  2  2  2  2  2  2  2  2  2
CENTRE ASSIGNMENTS    2  2  2  2  2  2  2  2  2  2  2  2  2  2  3  3  3  3  3  3
CENTRE ASSIGNMENTS    3  3  3  3  3  3  3  3  3  3  3  3  3  3  3  3  3  3  3  3
CENTRE ASSIGNMENTS    3  4  4  4  4  4  4  4  4  4  4  4  4  4  4  4  4  4  4  4
CENTRE ASSIGNMENTS    4  4  4  4  4  4  4  4  5  5  5  5  5  5  5  5  5  5  5  5
CENTRE ASSIGNMENTS    5  5  5  5  5  5  5  5  5  5  5  5  5  5  5  5  5  5  5  5
CENTRE ASSIGNMENTS    5  5  5  5  5  5  5  5  5  5  5  5  5  5  5  5  5  5  5  5
CENTRE ASSIGNMENTS    5  5  5  5  5  5  5  5  5  5  5  5  5  5  5  5  5  5  5  5
CENTRE ASSIGNMENTS    5  5  5  6  6  6  6  6  6  6  6  6  6  6  6  6  6  6  6  6
CENTRE ASSIGNMENTS    6  6  6  6  6  6  6  6  6  6  6  6  6  6  6  6  6  6  6  6
CENTRE ASSIGNMENTS    6  6  6  6  6  6  6  6  6  6  6  6  6  6  6  6  6  6  6  6
CENTRE ASSIGNMENTS    6  6  6  6  6  6  6  6  6  6  6  6  6  6  6  6  6  6  7  7
CENTRE ASSIGNMENTS    7  7  7  7  7  7  7  7  7  7  7  7  7  7  7  7  7  7  7  7
CENTRE ASSIGNMENTS    7  7  7  7  7  7  7  7  7  7  7  7  7  7  7  7  7  7  7  7
CENTRE ASSIGNMENTS    7  7  7  7  7  7  7  7  7  7  7  7  7  7  7  7  7  7  7  7
CENTRE ASSIGNMENTS    7  7  7  7  7  7  7  7  7  7  7  7  7  8  8  8  8  8  8  8
CENTRE ASSIGNMENTS    8  8  8  8  8  8  8  8  8  8  8  8  8  8  8  8  8  8  8  8
CENTRE ASSIGNMENTS    8  8  8  8  8  8  8  8  8  8  8  8  8  8  8  8  8  8  8  8
CENTRE ASSIGNMENTS    8  8  8  8  8  8  8  8  8  8  8  8  8  8  8  8  8  8  8  8
CENTRE ASSIGNMENTS    8  8  8  8  8  8  8  8  9  9  9  9  9  9  9  9  9  9  9  9
CENTRE ASSIGNMENTS    9  9  9  9  9  9  9  9  9  9  9  9  9  9  9  9  9  9  9  9
CENTRE ASSIGNMENTS    9  9  9  9  9  9  9  9  9  9  9  9  9  9  9  9  9  9  9  9
CENTRE ASSIGNMENTS    9  9  9  9  9  9  9  9  9  9  9  9  9  9  9  9  9  9  9  9
CENTRE ASSIGNMENTS    9  9  9
TYPE ASSIGNMENTS      1  1  1  1  1  1  2  3  4  2  3  4  2  3  4  5  6  7  8  9
TYPE ASSIGNMENTS     10  5  6  7  8  9 10  1  1  1  1  1  1  2  3  4  2  3  4  2
TYPE ASSIGNMENTS      3  4  5  6  7  8  9 10  5  6  7  8  9 10  1  1  1  1  1  1
TYPE ASSIGNMENTS      2  3  4  2  3  4  2  3  4  5  6  7  8  9 10  5  6  7  8  9
TYPE ASSIGNMENTS     10  1  1  1  1  1  1  2  3  4  2  3  4  2  3  4  5  6  7  8
TYPE ASSIGNMENTS      9 10  5  6  7  8  9 10  1  1  1  1  1  1  1  1  1  1  1  1
TYPE ASSIGNMENTS      1  1  1  1  1  1  1  2  2  2  3  3  3  4  4  4  2  3  4  2
TYPE ASSIGNMENTS      3  4  2  3  4  5  6  7  8  9 10  5  6  7  8  9 10  5  6  7
TYPE ASSIGNMENTS      8  9 10 11 12 13 17 14 15 18 19 16 20 11 12 13 17 14 15 18
TYPE ASSIGNMENTS     19 16 20  1  1  1  1  1  1  1  1  1  1  1  1  1  1  1  1  1
TYPE ASSIGNMENTS      1  1  2  2  2  3  3  3  4  4  4  2  3  4  2  3  4  2  3  4
TYPE ASSIGNMENTS      5  6  7  8  9 10  5  6  7  8  9 10  5  6  7  8  9 10 11 12
TYPE ASSIGNMENTS     13 17 14 15 18 19 16 20 11 12 13 17 14 15 18 19 16 20  1  1
TYPE ASSIGNMENTS      1  1  1  1  1  1  1  1  1  1  1  1  1  1  1  1  1  2  2  2
TYPE ASSIGNMENTS      3  3  3  4  4  4  2  3  4  2  3  4  2  3  4  5  6  7  8  9
TYPE ASSIGNMENTS     10  5  6  7  8  9 10  5  6  7  8  9 10 11 12 13 17 14 15 18
TYPE ASSIGNMENTS     19 16 20 11 12 13 17 14 15 18 19 16 20  1  1  1  1  1  1  1
TYPE ASSIGNMENTS      1  1  1  1  1  1  1  1  1  1  1  1  2  2  2  3  3  3  4  4
TYPE ASSIGNMENTS      4  2  3  4  2  3  4  2  3  4  5  6  7  8  9 10  5  6  7  8
TYPE ASSIGNMENTS      9 10  5  6  7  8  9 10 11 12 13 17 14 15 18 19 16 20 11 12
TYPE ASSIGNMENTS     13 17 14 15 18 19 16 20  1  1  1  1  1  1  1  1  1  1  1  1
TYPE ASSIGNMENTS      1  1  1  1  1  1  1  2  2  2  3  3  3  4  4  4  2  3  4  2
TYPE ASSIGNMENTS      3  4  2  3  4  5  6  7  8  9 10  5  6  7  8  9 10  5  6  7
TYPE ASSIGNMENTS      8  9 10 11 12 13 17 14 15 18 19 16 20 11 12 13 17 14 15 18
TYPE ASSIGNMENTS     19 16 20
EXPONENTS  0.3387000D+02 0.5095000D+01 0.1159000D+01 0.3258000D+00 0.1027000D+00
EXPONENTS  0.2526000D-01 0.1407000D+01 0.1407000D+01 0.1407000D+01 0.3880000D+00
EXPONENTS  0.3880000D+00 0.3880000D+00 0.1020000D+00 0.1020000D+00 0.1020000D+00
EXPONENTS  0.1057000D+01 0.1057000D+01 0.1057000D+01 0.1057000D+01 0.1057000D+01
EXPONENTS  0.1057000D+01 0.2470000D+00 0.2470000D+00 0.2470000D+00 0.2470000D+00
EXPONENTS  0.2470000D+00 0.2470000D+00 0.3387000D+02 0.5095000D+01 0.1159000D+01
EXPONENTS  0.3258000D+00 0.1027000D+00 0.2526000D-01 0.1407000D+01 0.1407000D+01
EXPONENTS  0.1407000D+01 0.3880000D+00 0.3880000D+00 0.3880000D+00 0.1020000D+00
EXPONENTS  0.1020000D+00 0.1020000D+00 0.1057000D+01 0.1057000D+01 0.1057000D+01
EXPONENTS  0.1057000D+01 0.1057000D+01 0.1057000D+01 0.2470000D+00 0.2470000D+00
EXPONENTS  0.2470000D+00 0.2470000D+00 0.2470000D+00 0.2470000D+00 0.3387000D+02
EXPONENTS  0.5095000D+01 0.1159000D+01 0.3258000D+00 0.1027000D+00 0.2526000D-01
EXPONENTS  0.1407000D+01 0.1407000D+01 0.1407000D+01 0.3880000D+00 0.3880000D+00
EXPONENTS  0.3880000D+00 0.1020000D+00 0.1020000D+00 0.1020000D+00 0.1057000D+01
EXPONENTS  0.1057000D+01 0.1057000D+01 0.1057000D+01 0.1057000D+01 0.1057000D+01
EXPONENTS  0.2470000D+00 0.2470000D+00 0.2470000D+00 0.2470000D+00 0.2470000D+00
EXPONENTS  0.2470000D+00 0.3387000D+02 0.5095000D+01 0.1159000D+01 0.3258000D+00
EXPONENTS  0.1027000D+00 0.2526000D-01 0.1407000D+01 0.1407000D+01 0.1407000D+01
EXPONENTS  0.3880000D+00 0.3880000D+00 0.3880000D+00 0.1020000D+00 0.1020000D+00
EXPONENTS  0.1020000D+00 0.1057000D+01 0.1057000D+01 0.1057000D+01 0.1057000D+01
EXPONENTS  0.1057000D+01 0.1057000D+01 0.2470000D+00 0.2470000D+00 0.2470000D+00
EXPONENTS  0.2470000D+00 0.2470000D+00 0.2470000D+00 0.8236000D+04 0.1235000D+04
EXPONENTS  0.2808000D+03 0.7927000D+02 0.2559000D+02 0.8997000D+01 0.3319000D+01
EXPONENTS  0.3643000D+00 0.8236000D+04 0.1235000D+04 0.2808000D+03 0.7927000D+02
EXPONENTS  0.2559000D+02 0.8997000D+01 0.3319000D+01 0.3643000D+00 0.9059000D+00
EXPONENTS  0.1285000D+00 0.4402000D-01 0.1871000D+02 0.4133000D+01 0.1200000D+01
EXPONENTS  0.1871000D+02 0.4133000D+01 0.1200000D+01 0.1871000D+02 0.4133000D+01
EXPONENTS  0.1200000D+01 0.3827000D+00 0.3827000D+00 0.3827000D+00 0.1209000D+00
EXPONENTS  0.1209000D+00 0.1209000D+00 0.3569000D-01 0.3569000D-01 0.3569000D-01
EXPONENTS  0.1097000D+01 0.1097000D+01 0.1097000D+01 0.1097000D+01 0.1097000D+01
EXPONENTS  0.1097000D+01 0.3180000D+00 0.3180000D+00 0.3180000D+00 0.3180000D+00
EXPONENTS  0.3180000D+00 0.3180000D+00 0.1000000D+00 0.1000000D+00 0.1000000D+00
EXPONENTS  0.1000000D+00 0.1000000D+00 0.1000000D+00 0.7610000D+00 0.7610000D+00
EXPONENTS  0.7610000D+00 0.7610000D+00 0.7610000D+00 0.7610000D+00 0.7610000D+00
EXPONENTS  0.7610000D+00 0.7610000D+00 0.7610000D+00 0.2680000D+00 0.2680000D+00
EXPONENTS  0.2680000D+00 0.2680000D+00 0.2680000D+00 0.2680000D+00 0.2680000D+00
EXPONENTS  0.2680000D+00 0.2680000D+00 0.2680000D+00 0.8236000D+04 0.1235000D+04
EXPONENTS  0.2808000D+03 0.7927000D+02 0.2559000D+02 0.8997000D+01 0.3319000D+01
EXPONENTS  0.3643000D+00 0.8236000D+04 0.1235000D+04 0.2808000D+03 0.7927000D+02
EXPONENTS  0.2559000D+02 0.8997000D+01 0.3319000D+01 0.3643000D+00 0.9059000D+00
EXPONENTS  0.1285000D+00 0.4402000D-01 0.1871000D+02 0.4133000D+01 0.1200000D+01
EXPONENTS  0.1871000D+02 0.4133000D+01 0.1200000D+01 0.1871000D+02 0.4133000D+01
EXPONENTS  0.1200000D+01 0.3827000D+00 0.3827000D+00 0.3827000D+00 0.1209000D+00
EXPONENTS  0.1209000D+00 0.1209000D+00 0.3569000D-01 0.3569000D-01 0.3569000D-01
EXPONENTS  0.1097000D+01 0.1097000D+01 0.1097000D+01 0.1097000D+01 0.1097000D+01
EXPONENTS  0.1097000D+01 0.3180000D+00 0.3180000D+00 0.3180000D+00 0.3180000D+00
EXPONENTS  0.3180000D+00 0.3180000D+00 0.1000000D+00 0.1000000D+00 0.1000000D+00
EXPONENTS  0.1000000D+00 0.1000000D+00 0.1000000D+00 0.7610000D+00 0.7610000D+00
EXPONENTS  0.7610000D+00 0.7610000D+00 0.7610000D+00 0.7610000D+00 0.7610000D+00
EXPONENTS  0.7610000D+00 0.7610000D+00 0.7610000D+00 0.2680000D+00 0.2680000D+00
EXPONENTS  0.2680000D+00 0.2680000D+00 0.2680000D+00 0.2680000D+00 0.2680000D+00
EXPONENTS  0.2680000D+00 0.2680000D+00 0.2680000D+00 0.8236000D+04 0.1235000D+04
EXPONENTS  0.2808000D+03 0.7927000D+02 0.2559000D+02 0.8997000D+01 0.3319000D+01
EXPONENTS  0.3643000D+00 0.8236000D+04 0.1235000D+04 0.2808000D+03 0.7927000D+02
EXPONENTS  0.2559000D+02 0.8997000D+01 0.3319000D+01 0.3643000D+00 0.9059000D+00
EXPONENTS  0.1285000D+00 0.4402000D-01 0.1871000D+02 0.4133000D+01 0.1200000D+01
EXPONENTS  0.1871000D+02 0.4133000D+01 0.1200000D+01 0.1871000D+02 0.4133000D+01
EXPONENTS  0.1200000D+01 0.3827000D+00 0.3827000D+00 0.3827000D+00 0.1209000D+00
EXPONENTS  0.1209000D+00 0.1209000D+00 0.3569000D-01 0.3569000D-01 0.3569000D-01
EXPONENTS  0.1097000D+01 0.1097000D+01 0.1097000D+01 0.1097000D+01 0.1097000D+01
EXPONENTS  0.1097000D+01 0.3180000D+00 0.3180000D+00 0.3180000D+00 0.3180000D+00
EXPONENTS  0.3180000D+00 0.3180000D+00 0.1000000D+00 0.1000000D+00 0.1000000D+00
EXPONENTS  0.1000000D+00 0.1000000D+00 0.1000000D+00 0.7610000D+00 0.7610000D+00
EXPONENTS  0.7610000D+00 0.7610000D+00 0.7610000D+00 0.7610000D+00 0.7610000D+00
EXPONENTS  0.7610000D+00 0.7610000D+00 0.7610000D+00 0.2680000D+00 0.2680000D+00
EXPONENTS  0.2680000D+00 0.2680000D+00 0.2680000D+00 0.2680000D+00 0.2680000D+00
EXPONENTS  0.2680000D+00 0.2680000D+00 0.2680000D+00 0.1142000D+05 0.1712000D+04
EXPONENTS  0.3893000D+03 0.1100000D+03 0.3557000D+02 0.1254000D+02 0.4644000D+01
EXPONENTS  0.5118000D+00 0.1142000D+05 0.1712000D+04 0.3893000D+03 0.1100000D+03
EXPONENTS  0.3557000D+02 0.1254000D+02 0.4644000D+01 0.5118000D+00 0.1293000D+01
EXPONENTS  0.1787000D+00 0.5760000D-01 0.2663000D+02 0.5948000D+01 0.1742000D+01
EXPONENTS  0.2663000D+02 0.5948000D+01 0.1742000D+01 0.2663000D+02 0.5948000D+01
EXPONENTS  0.1742000D+01 0.5550000D+00 0.5550000D+00 0.5550000D+00 0.1725000D+00
EXPONENTS  0.1725000D+00 0.1725000D+00 0.4910000D-01 0.4910000D-01 0.4910000D-01
EXPONENTS  0.1654000D+01 0.1654000D+01 0.1654000D+01 0.1654000D+01 0.1654000D+01
EXPONENTS  0.1654000D+01 0.4690000D+00 0.4690000D+00 0.4690000D+00 0.4690000D+00
EXPONENTS  0.4690000D+00 0.4690000D+00 0.1510000D+00 0.1510000D+00 0.1510000D+00
EXPONENTS  0.1510000D+00 0.1510000D+00 0.1510000D+00 0.1093000D+01 0.1093000D+01
EXPONENTS  0.1093000D+01 0.1093000D+01 0.1093000D+01 0.1093000D+01 0.1093000D+01
EXPONENTS  0.1093000D+01 0.1093000D+01 0.1093000D+01 0.3640000D+00 0.3640000D+00
EXPONENTS  0.3640000D+00 0.3640000D+00 0.3640000D+00 0.3640000D+00 0.3640000D+00
EXPONENTS  0.3640000D+00 0.3640000D+00 0.3640000D+00 0.1142000D+05 0.1712000D+04
EXPONENTS  0.3893000D+03 0.1100000D+03 0.3557000D+02 0.1254000D+02 0.4644000D+01
EXPONENTS  0.5118000D+00 0.1142000D+05 0.1712000D+04 0.3893000D+03 0.1100000D+03
EXPONENTS  0.3557000D+02 0.1254000D+02 0.4644000D+01 0.5118000D+00 0.1293000D+01
EXPONENTS  0.1787000D+00 0.5760000D-01 0.2663000D+02 0.5948000D+01 0.1742000D+01
EXPONENTS  0.2663000D+02 0.5948000D+01 0.1742000D+01 0.2663000D+02 0.5948000D+01
EXPONENTS  0.1742000D+01 0.5550000D+00 0.5550000D+00 0.5550000D+00 0.1725000D+00
EXPONENTS  0.1725000D+00 0.1725000D+00 0.4910000D-01 0.4910000D-01 0.4910000D-01
EXPONENTS  0.1654000D+01 0.1654000D+01 0.1654000D+01 0.1654000D+01 0.1654000D+01
EXPONENTS  0.1654000D+01 0.4690000D+00 0.4690000D+00 0.4690000D+00 0.4690000D+00
EXPONENTS  0.4690000D+00 0.4690000D+00 0.1510000D+00 0.1510000D+00 0.1510000D+00
EXPONENTS  0.1510000D+00 0.1510000D+00 0.1510000D+00 0.1093000D+01 0.1093000D+01
EXPONENTS  0.1093000D+01 0.1093000D+01 0.1093000D+01 0.1093000D+01 0.1093000D+01
EXPONENTS  0.1093000D+01 0.1093000D+01 0.1093000D+01 0.3640000D+00 0.3640000D+00
EXPONENTS  0.3640000D+00 0.3640000D+00 0.3640000D+00 0.3640000D+00 0.3640000D+00
EXPONENTS  0.3640000D+00 0.3640000D+00 0.3640000D+00
MO    1     MO 0.0        OCC NO =    2.0000000  ORB. ENERGY =  -14.237384
  0.50775799D-04  0.91576244D-04  0.13502912D-03  0.68363210D-03  0.14527617D-02
  0.10801106D-05  0.28417872D-15 -0.40465054D-03 -0.16914729D-03 -0.38149360D-16
 -0.66900703D-04  0.38256369D-03  0.10230010D-16 -0.70303780D-04 -0.30359069D-03
  0.10001145D-03  0.90608353D-04 -0.19061980D-03 -0.47059397D-17 -0.32512619D-15
 -0.11238191D-04  0.74880463D-04 -0.44116370D-04 -0.30764093D-04 -0.70781077D-18
 -0.37049174D-18  0.23915930D-04 -0.14071233D-04 -0.25378048D-04 -0.37419917D-04
  0.11714196D-02  0.27811421D-03  0.88814061D-05  0.24567765D-17  0.52140511D-04
 -0.67731139D-04 -0.52689185D-18 -0.34073757D-04  0.53410863D-03 -0.10350065D-17
  0.22175184D-04  0.10821597D-03  0.10259133D-04 -0.91181587D-04  0.80922454D-04
 -0.13927858D-17  0.23137873D-17  0.21934997D-03 -0.17685753D-04  0.90842012D-05
  0.86015515D-05  0.16943873D-18 -0.11638017D-17  0.16808846D-04  0.57045885D-04
  0.10288460D-03  0.15170329D-03  0.12993258D-02  0.11846776D-02  0.32473207D-04
  0.50748095D-18  0.39352735D-03 -0.13984921D-03 -0.37664946D-17  0.24332293D-03
  0.18837739D-03 -0.24125543D-19  0.76964438D-04 -0.24967729D-03  0.15518707D-03
  0.44618160D-04 -0.19980523D-03 -0.28278839D-17  0.30949807D-17 -0.26408493D-04
  0.64869948D-04 -0.50617784D-04 -0.14252164D-04 -0.39087833D-18  0.28761586D-19
 -0.13203325D-04  0.16287694D-03  0.29375528D-03  0.43314198D-03 -0.99107820D-03
 -0.10214743D-02 -0.14068645D-04  0.77836362D-19  0.12997672D-04  0.19277289D-02
  0.14198289D-17  0.93838266D-04  0.22933612D-02  0.20905327D-19  0.26656758D-05
  0.39268964D-03  0.15875342D-02  0.11964900D-02 -0.27840242D-02 -0.52739021D-18
  0.64834579D-18 -0.47298484D-05  0.14429776D-03  0.86654083D-04 -0.23095184D-03
  0.15341771D-18  0.23803944D-18  0.29449551D-04  0.29754950D-03  0.55469991D-03
  0.93754057D-03  0.14094306D-02  0.17316483D-02  0.14626538D-02  0.55165921D-03
 -0.27301922D-05 -0.22989498D-03 -0.43043594D-03 -0.73285401D-03 -0.11336137D-02
 -0.14929294D-02 -0.15512493D-02 -0.98574927D-03  0.66062624D-03  0.10044059D-02
 -0.32681154D-02 -0.32878279D-03  0.27212632D-17  0.25513572D-17  0.18167183D-17
 -0.53273875D-03 -0.49947645D-03 -0.35565698D-03  0.43250264D-03  0.40549872D-03
  0.28873924D-03  0.54423476D-17 -0.65018230D-03  0.91146562D-03 -0.21726028D-17
  0.34284211D-06 -0.25983898D-03 -0.83732532D-19  0.36176222D-05  0.37655371D-04
 -0.82430906D-04 -0.56221482D-04  0.13865239D-03  0.13207909D-16 -0.56812439D-17
 -0.63948233D-03  0.45162446D-03  0.57673180D-04 -0.50929764D-03  0.10331322D-16
  0.75811184D-17  0.89418067D-03 -0.24620339D-05 -0.17274338D-03  0.17520541D-03
  0.24795860D-18  0.20583176D-17  0.86089798D-04  0.11500908D-17  0.10543384D-03
  0.34821070D-03 -0.71849105D-18 -0.48501537D-03  0.47731303D-03 -0.27317814D-17
  0.16871385D-03 -0.15219451D-02  0.61146660D-17 -0.94740927D-18  0.54880493D-04
  0.15532829D-03  0.48528266D-17 -0.71343787D-04  0.38225734D-04 -0.20105988D-17
 -0.93297693D-04 -0.50421061D-03  0.10010094D-17 -0.23040307D-04 -0.42952371D-04
 -0.72597073D-04 -0.10913718D-03 -0.13408764D-03 -0.11325844D-03 -0.42716918D-04
  0.21140841D-06  0.15299421D-04  0.28645343D-04  0.48771148D-04  0.75441550D-04
  0.99353868D-04  0.10323503D-03  0.65601229D-04 -0.43964418D-04 -0.52544257D-05
 -0.11338641D-02  0.42804252D-03  0.30576384D-17  0.28667304D-17  0.20412828D-17
 -0.17302001D-03 -0.16221725D-03 -0.11550835D-03  0.12093674D-04  0.11338588D-04
  0.80737499D-05  0.95024823D-18  0.10286158D-02  0.48623467D-03  0.77773216D-17
  0.17329352D-04  0.63296612D-03  0.22686597D-18  0.24365254D-05  0.59705544D-05
  0.12471072D-05 -0.26577585D-03  0.26452874D-03 -0.29263775D-17 -0.20211763D-17
 -0.11147698D-03  0.37415965D-04  0.43970148D-03 -0.47711745D-03  0.40071923D-17
  0.41479369D-17  0.13965817D-02 -0.18864759D-04 -0.56179193D-04  0.75043952D-04
  0.96458594D-18  0.10623563D-17  0.21933261D-04  0.87663527D-19 -0.15934920D-03
 -0.25294175D-03  0.14607271D-17 -0.88981941D-04  0.10552772D-03 -0.17237177D-17
  0.56702953D-03  0.65329751D-03  0.26271410D-18  0.41269321D-19 -0.65597610D-04
 -0.49822762D-04 -0.69838062D-18  0.55214943D-04 -0.88728674D-04  0.57457266D-18
  0.14157789D-03  0.23819696D-03  0.15095871D-17  0.27867390D-03  0.51951151D-03
  0.87806598D-03  0.13200208D-02  0.16217980D-02  0.13698677D-02  0.51666370D-03
 -0.25569975D-05 -0.21636069D-03 -0.40509548D-03 -0.68970972D-03 -0.10668761D-02
 -0.14050382D-02 -0.14599247D-02 -0.92771662D-03  0.62173411D-03  0.10911577D-02
 -0.94340073D-03 -0.26893656D-03 -0.10160995D-17 -0.95265783D-18 -0.67834913D-18
  0.64047933D-03  0.60049008D-03  0.42758471D-03  0.46596874D-03  0.43687531D-03
  0.31108125D-03  0.24948299D-17  0.23467612D-03  0.83660148D-03  0.23610513D-18
  0.64267136D-03 -0.30403849D-03  0.15231289D-18  0.21828907D-04  0.24595177D-04
  0.17870172D-04 -0.60791674D-04  0.42921502D-04  0.22403451D-17  0.16766193D-17
  0.24306033D-03  0.47551942D-03 -0.42007417D-03 -0.55445253D-04 -0.55968286D-18
 -0.44872425D-18 -0.15631600D-03  0.12588355D-05 -0.99248761D-04  0.97989925D-04
  0.25254583D-18  0.46727875D-18 -0.14884357D-03 -0.29432520D-18 -0.78386112D-04
  0.33920003D-03  0.12684021D-17  0.56916560D-03  0.44019538D-03 -0.38542653D-18
 -0.33400727D-03 -0.14577955D-02 -0.27371992D-17 -0.25526937D-18 -0.21605224D-04
  0.11018967D-03  0.16274286D-17  0.51916151D-04  0.97196452D-04 -0.86162046D-18
  0.12899520D-04 -0.42776546D-03 -0.10627809D-17  0.12443145D-05  0.23185969D-05
  0.39213286D-05  0.59053035D-05  0.73111488D-05  0.62214577D-05  0.23673794D-05
 -0.11087448D-07  0.20636094D-05  0.38692869D-05  0.65828083D-05  0.10222406D-04
  0.13565728D-04  0.14296415D-04  0.88646892D-05 -0.58967947D-05 -0.79354945D-04
 -0.25321465D-04 -0.14741433D-03 -0.15881646D-17 -0.15254131D-17 -0.10697250D-17
  0.36527725D-03  0.35084443D-03  0.24603633D-03 -0.12699344D-05 -0.12197568D-05
 -0.85537769D-06  0.17139955D-17 -0.90437056D-03  0.43808393D-03  0.37410691D-18
 -0.42039583D-04 -0.15133102D-03  0.55715265D-19 -0.79294715D-04  0.89339464D-05
  0.12536493D-04 -0.41655201D-03  0.40401552D-03  0.29537538D-18  0.30541415D-17
  0.99307085D-04 -0.83362347D-04  0.14982232D-03 -0.66459969D-04  0.73378487D-18
 -0.18062852D-17 -0.57765583D-03 -0.24987276D-04  0.28280390D-04 -0.32931138D-05
 -0.67518800D-18 -0.25769359D-18 -0.14781747D-03 -0.11441566D-17  0.12128546D-03
 -0.75928602D-04  0.86358460D-18  0.13804539D-03  0.94585820D-04  0.25688853D-17
 -0.50190176D-03  0.13319999D-03  0.61369547D-17  0.38958442D-18  0.83787150D-04
  0.11042436D-05 -0.74027183D-19 -0.12456509D-03  0.37156803D-04 -0.10947261D-17
 -0.12679636D-03 -0.40469534D-04 -0.27153438D-17  0.41339096D+00  0.77029318D+00
  0.13027589D+01  0.19618827D+01  0.24289380D+01  0.20669166D+01  0.78649991D+00
 -0.36835146D-02 -0.19157360D-02 -0.35920229D-02 -0.61110997D-02 -0.94898926D-02
 -0.12593639D-01 -0.13271967D-01 -0.82294664D-02  0.54742442D-02  0.39583336D-01
  0.24068791D-02  0.25436074D-03 -0.30504559D-17 -0.29299264D-17 -0.20546667D-17
  0.18837700D-03  0.18093386D-03  0.12688331D-03 -0.20534303D-04 -0.19722953D-04
 -0.13831096D-04  0.11753710D-17 -0.93404451D-04  0.14964307D-02 -0.28521752D-17
  0.48836293D-03 -0.14826014D-03 -0.65284257D-18 -0.24875223D-04 -0.11420376D-03
 -0.34309935D-02  0.66993630D-03  0.27610572D-02 -0.83113973D-17 -0.60969441D-17
  0.15083091D-04  0.23606854D-03 -0.72968247D-03  0.49361393D-03  0.10079280D-17
  0.36721049D-17  0.20040854D-04  0.18567395D-03 -0.14737062D-03 -0.38303329D-04
 -0.36817664D-18 -0.12544580D-18 -0.19845142D-03  0.67701175D-19  0.48553922D-04
  0.17322389D-02 -0.33397070D-17  0.97264973D-04 -0.14297419D-02  0.31366035D-17
 -0.24292674D-03 -0.37669746D-02 -0.21925042D-17  0.18796278D-18  0.37302505D-04
 -0.42086163D-03  0.17845022D-17 -0.41895174D-05  0.12144058D-03 -0.23483905D-17
 -0.10771800D-03  0.11411443D-02 -0.39495041D-18
MO    2     MO 0.0        OCC NO =    2.0000000  ORB. ENERGY =  -14.155901
 -0.28489264D-04 -0.51381561D-04 -0.75762081D-04  0.15318734D-02 -0.21850838D-03
 -0.23728688D-04  0.11885797D-15  0.21348034D-03  0.37916132D-04 -0.76276295D-16
 -0.10361614D-02 -0.45821746D-03  0.24425262D-16  0.27595703D-04 -0.99808963D-04
 -0.58637061D-04 -0.32522589D-04  0.91159650D-04  0.26589363D-16 -0.65722588D-15
  0.14816060D-03 -0.45499311D-04  0.96226938D-05  0.35876618D-04 -0.77309951D-17
 -0.55865062D-17  0.30375341D-04  0.62877050D-04  0.11340135D-03  0.16721022D-03
  0.34236576D-03  0.18229374D-02  0.33742419D-04  0.41176569D-17 -0.23004308D-03
  0.49962573D-03 -0.47458946D-17  0.36849283D-03 -0.71722765D-03 -0.36325810D-17
  0.18741539D-04  0.28046294D-03  0.14587020D-03 -0.16428067D-03  0.18410467D-04
 -0.13087155D-17  0.43004844D-17  0.33569555D-04  0.94961256D-04 -0.66370139D-04
 -0.28591118D-04  0.24268491D-17 -0.21614962D-17  0.83367627D-04  0.75331558D-04
  0.13586357D-03  0.20033075D-03  0.14045950D-02  0.16774318D-02  0.26378342D-04
 -0.28292222D-18  0.68640126D-03 -0.14860373D-03 -0.13098558D-17 -0.25678530D-03
 -0.54743699D-03  0.49067495D-18  0.32755689D-03  0.15749555D-03  0.12304486D-03
  0.55019703D-05 -0.12854683D-03 -0.18152031D-17  0.43696198D-17 -0.47254698D-03
  0.76409564D-04 -0.99361039D-05 -0.66473460D-04  0.76002734D-18 -0.22943699D-18
  0.39941016D-04  0.55256956D-05  0.99658196D-05  0.14694595D-04  0.75802474D-03
  0.82092376D-03 -0.71910388D-06 -0.68671540D-18  0.67076912D-05 -0.11754034D-03
  0.17559577D-17 -0.11882521D-02 -0.15844303D-03  0.80535780D-18 -0.14454879D-03
 -0.93824755D-04 -0.29682610D-04  0.13440696D-03 -0.10472435D-03 -0.60176584D-18
  0.63681151D-17  0.60003744D-03 -0.26970398D-05 -0.13746439D-04  0.16443479D-04
  0.41835497D-18 -0.42276954D-18  0.21395604D-03 -0.36035987D-04 -0.67179272D-04
 -0.11354480D-03 -0.17069503D-03 -0.20971857D-03 -0.17714086D-03 -0.66811015D-04
  0.33065144D-06  0.24100433D-04  0.45123614D-04  0.76826814D-04  0.11883940D-03
  0.15650731D-03  0.16262112D-03  0.10333842D-03 -0.69255006D-04  0.11439974D-03
 -0.10216436D-02  0.24330013D-04  0.73186747D-17  0.68617227D-17  0.48859553D-17
 -0.27592693D-03 -0.25869904D-03 -0.18420913D-03  0.14680773D-04  0.13764158D-04
  0.98009002D-05 -0.40197580D-19  0.84965645D-03 -0.16358638D-02 -0.27558391D-17
  0.23426699D-03 -0.30267594D-03  0.30746622D-18  0.30010261D-06  0.12143467D-04
  0.22074836D-04 -0.37869287D-04  0.15794451D-04  0.22932233D-16  0.65328911D-18
  0.83504992D-03  0.27154853D-03 -0.16385289D-02  0.13669803D-02  0.14591977D-17
 -0.70433496D-18 -0.14766589D-02 -0.19459227D-04 -0.19032238D-04  0.38491465D-04
 -0.97007519D-18  0.17416810D-17  0.10745367D-03  0.16711618D-17  0.36483422D-04
 -0.17154734D-03  0.49419952D-18 -0.24746051D-03 -0.14499836D-04 -0.55076850D-17
  0.13801024D-03  0.52914185D-03 -0.24411778D-17 -0.42234472D-18  0.13011615D-03
 -0.11812934D-03  0.27214302D-17 -0.67916935D-05 -0.36249091D-04 -0.14543961D-17
 -0.38355676D-03  0.39063710D-03  0.60751886D-18  0.21584962D-03  0.40239276D-03
  0.68011465D-03  0.10224351D-02  0.12561797D-02  0.10610445D-02  0.40018696D-03
 -0.19805476D-05 -0.16708717D-03 -0.31283990D-03 -0.53263669D-03 -0.82390797D-03
 -0.10850578D-02 -0.11274446D-02 -0.71644041D-03  0.48014170D-03  0.53244353D-03
 -0.31382839D-02 -0.14265574D-03  0.29588460D-17  0.27741062D-17  0.19753289D-17
 -0.23502429D-03 -0.22035021D-03 -0.15690248D-03 -0.99702675D-04 -0.93477595D-04
 -0.66561616D-04  0.12750378D-17 -0.14549010D-02 -0.69545310D-03  0.78221201D-17
 -0.27733668D-04  0.98550834D-03  0.17047542D-19  0.81710148D-05  0.25898329D-04
 -0.27782179D-03  0.63732544D-03 -0.35950365D-03 -0.31489264D-17  0.30461267D-17
  0.22470775D-03  0.23927826D-03 -0.72786096D-03  0.48858270D-03  0.38135822D-17
 -0.16159514D-17 -0.23385281D-02  0.22143182D-04 -0.90017305D-04  0.67874123D-04
  0.14862354D-17 -0.36504769D-18  0.14260623D-03  0.13952919D-18  0.44475241D-03
  0.35401951D-04  0.17575631D-17 -0.26994408D-03 -0.96144657D-04 -0.21761507D-17
 -0.10643132D-02 -0.10061195D-04  0.32090442D-17  0.21029379D-18  0.27973783D-03
  0.34143388D-04 -0.19890589D-17 -0.38332758D-04 -0.13680083D-03  0.13581776D-17
 -0.80088074D-03  0.34370666D-04  0.14461018D-18  0.33469303D-03  0.62394391D-03
  0.10545751D-02  0.15853718D-02  0.19478125D-02  0.16452390D-02  0.62052363D-03
 -0.30710061D-05 -0.25580007D-03 -0.47893843D-03 -0.81543366D-03 -0.12613519D-02
 -0.16611561D-02 -0.17260476D-02 -0.10968257D-02  0.73506710D-03  0.12384619D-02
 -0.25431553D-02  0.11847748D-03  0.17651481D-18  0.16549385D-18  0.11784148D-18
 -0.59059144D-04 -0.55371701D-04 -0.39427950D-04 -0.81683802D-03 -0.76583757D-03
 -0.54532197D-03  0.10450232D-17  0.93816283D-03  0.18458130D-03  0.18825549D-19
  0.94322779D-03 -0.36984331D-03  0.18456071D-18  0.20138002D-04 -0.67173026D-05
  0.14346759D-04 -0.80844905D-04  0.66498145D-04  0.23863744D-17  0.16058540D-17
  0.16518418D-03  0.49814285D-03  0.98942957D-03 -0.14875724D-02  0.24742532D-17
  0.11907975D-17  0.46205984D-03  0.32445637D-04  0.93899865D-04 -0.12634550D-03
  0.43736409D-18  0.74927545D-18  0.20189078D-03 -0.10424188D-17  0.54237396D-03
  0.56416574D-03  0.39894166D-17 -0.47478988D-04 -0.76401008D-03 -0.86216021D-18
 -0.15796429D-02 -0.92848715D-03  0.14358554D-17 -0.40772855D-19  0.35664131D-03
  0.12397548D-03  0.15468679D-17 -0.10252753D-03 -0.11089930D-03 -0.14245494D-17
 -0.96739639D-03 -0.26102714D-03  0.27152676D-18  0.41310214D+00  0.76975500D+00
  0.13018487D+01  0.19605120D+01  0.24272410D+01  0.20654726D+01  0.78595041D+00
 -0.36809411D-02 -0.16952530D-02 -0.31786151D-02 -0.54077701D-02 -0.83976960D-02
 -0.11144231D-01 -0.11744490D-01 -0.72823329D-02  0.48442106D-02  0.39890028D-01
  0.24144944D-02 -0.36505232D-03 -0.14379695D-16 -0.13811526D-16 -0.96855950D-17
  0.41600895D-02  0.39957163D-02  0.28020720D-02  0.53280452D-02  0.51175237D-02
  0.35887609D-02  0.75161422D-17 -0.23201587D-03  0.12877251D-02  0.21171838D-17
  0.37620802D-03 -0.69855206D-03  0.34109033D-18 -0.51885266D-05 -0.65990090D-04
 -0.26572213D-02  0.99168408D-03  0.16655372D-02 -0.18040592D-17  0.13813584D-17
  0.11176360D-03  0.66345409D-03 -0.55422224D-03 -0.10923185D-03  0.22019416D-17
  0.11491914D-17 -0.13609813D-02  0.14478879D-03 -0.30026015D-04 -0.11476278D-03
 -0.68111200D-18  0.60653077D-18  0.63395386D-04  0.16269034D-18  0.23360782D-03
  0.29251620D-03  0.12936870D-17  0.74536852D-04 -0.41176972D-03 -0.17817580D-17
 -0.77536031D-03 -0.46577888D-03 -0.20355720D-17  0.18445402D-18 -0.71999632D-04
 -0.20893378D-04 -0.44405846D-18  0.19160547D-03  0.33320542D-03 -0.10930360D-18
  0.24393429D-04 -0.27052529D-03 -0.82043268D-18  0.10793968D-04  0.20112971D-04
  0.34016076D-04  0.51226326D-04  0.63421514D-04  0.53968846D-04  0.20536142D-04
 -0.96179513D-07 -0.11531691D-04 -0.21622029D-04 -0.36785504D-04 -0.57124004D-04
 -0.75806875D-04 -0.79890040D-04 -0.49536922D-04  0.32951979D-04  0.95635553D-05
 -0.54480901D-03 -0.33965670D-03 -0.49485106D-17 -0.47529852D-17 -0.33331213D-17
  0.12546074D-03  0.12050355D-03  0.84505404D-04 -0.13571399D-03 -0.13035167D-03
 -0.91411586D-04  0.32174978D-17 -0.82792488D-03  0.18402138D-03 -0.60490297D-17
 -0.36661410D-03  0.85289204D-04 -0.13138394D-17  0.15710183D-04 -0.11013352D-04
 -0.17403721D-03 -0.26889042D-03  0.44292763D-03 -0.98544676D-17 -0.18725198D-16
  0.14392721D-02  0.75891763D-04  0.47531064D-03 -0.55120241D-03  0.31893767D-17
  0.92870434D-17 -0.10322734D-02  0.82243384D-05  0.23052214D-03 -0.23874648D-03
  0.15798759D-18  0.90298690D-19  0.13586192D-03 -0.10341256D-17 -0.21045761D-03
  0.23702607D-03 -0.36211552D-17  0.97673716D-04 -0.26858986D-03  0.67235320D-17
  0.53369911D-03 -0.44248835D-03 -0.70197323D-17  0.55753059D-18 -0.31461411D-03
  0.17641894D-04  0.25569225D-17 -0.30564109D-03  0.12502070D-03 -0.42295143D-17
  0.12494834D-02 -0.17794639D-03 -0.20748650D-17
MO    3     MO 0.0        OCC NO =    2.0000000  ORB. ENERGY =  -10.100576
  0.54356174D-05  0.98033599D-05  0.14455048D-04  0.56961749D-03  0.10118584D-02
 -0.22502984D-04 -0.60216005D-17  0.13230047D-03  0.15005438D-03  0.22592074D-17
  0.77175665D-04  0.43493062D-04  0.54704163D-18  0.95896505D-04 -0.33232326D-03
  0.12467348D-03 -0.15887864D-03  0.34205167D-04  0.31318544D-16  0.10609405D-15
 -0.48881081D-03  0.22115944D-04 -0.75528189D-04  0.53412245D-04 -0.67374672D-17
 -0.58709014D-18 -0.35990553D-04 -0.52561432D-05 -0.94796707D-05 -0.13977769D-04
 -0.15904318D-03 -0.23256939D-04 -0.32110952D-04 -0.19174529D-17 -0.77833143D-04
  0.64670095D-04 -0.16709034D-18  0.21115059D-04 -0.23378293D-03 -0.10632941D-18
  0.46212996D-03  0.28745074D-03  0.12379605D-04  0.63448054D-04 -0.75827658D-04
  0.94599445D-18 -0.14753688D-18  0.71200586D-04 -0.80908415D-05  0.36104725D-05
  0.44803690D-05 -0.34605884D-18 -0.39325604D-18  0.11065628D-03 -0.25564868D-04
 -0.46107292D-04 -0.67985175D-04  0.41470154D-04  0.68754831D-03  0.74968424D-04
 -0.23679978D-18 -0.18358732D-02  0.77881587D-03 -0.10545714D-17 -0.18431960D-02
  0.60850641D-03 -0.23964539D-18 -0.22665088D-04  0.13287805D-04  0.10080578D-02
 -0.16663080D-02  0.65825017D-03 -0.17585090D-17  0.86079665D-18  0.22734568D-02
  0.20436439D-03 -0.18683534D-03 -0.17529049D-04 -0.16891780D-18  0.22929670D-18
  0.18756338D-03  0.12279392D-03  0.22146390D-03  0.32654839D-03  0.20729347D-02
  0.37485305D-03 -0.88093737D-05  0.87263634D-18 -0.74193077D-05 -0.33458641D-03