 Molden2AIM, Version 4.0.0 (06/02/2016)           Time: Mon Jul  2 03:45:43 2018
GAUSSIAN             18 MOL ORBITALS    483 PRIMITIVES        9 NUCLEI
  N    1    (CENTRE  1)   0.60368246  1.93465247  0.00000000  CHARGE =  7.0
  C    2    (CENTRE  2)  -1.85025353  1.21472162  0.00000000  CHARGE =  6.0
  C    3    (CENTRE  3)  -1.83630735 -1.39597281  0.00000000  CHARGE =  6.0
  C    4    (CENTRE  4)   0.75311822 -2.04334007  0.00000000  CHARGE =  6.0
  N    5    (CENTRE  5)   2.22382403 -0.00488305  0.00000000  CHARGE =  7.0
  H    6    (CENTRE  6)   1.29249330  3.71037331  0.00000000  CHARGE =  1.0
  H    7    (CENTRE  7)  -3.38098838  2.57871082  0.00000000  CHARGE =  1.0
  H    8    (CENTRE  8)  -3.46010554 -2.64602664  0.00000000  CHARGE =  1.0
  H    9    (CENTRE  9)   1.60853866 -3.90942761  0.00000000  CHARGE =  1.0
CENTRE ASSIGNMENTS    1  1  1  1  1  1  1  1  1  1  1  1  1  1  1  1  1  1  1  1
CENTRE ASSIGNMENTS    1  1  1  1  1  1  1  1  1  1  1  1  1  1  1  1  1  1  1  1
CENTRE ASSIGNMENTS    1  1  1  1  1  1  1  1  1  1  1  1  1  1  1  1  1  1  1  1
CENTRE ASSIGNMENTS    1  1  1  1  1  1  1  1  1  1  1  1  1  1  1  2  2  2  2  2
CENTRE ASSIGNMENTS    2  2  2  2  2  2  2  2  2  2  2  2  2  2  2  2  2  2  2  2
CENTRE ASSIGNMENTS    2  2  2  2  2  2  2  2  2  2  2  2  2  2  2  2  2  2  2  2
CENTRE ASSIGNMENTS    2  2  2  2  2  2  2  2  2  2  2  2  2  2  2  2  2  2  2  2
CENTRE ASSIGNMENTS    2  2  2  2  2  2  2  2  2  2  3  3  3  3  3  3  3  3  3  3
CENTRE ASSIGNMENTS    3  3  3  3  3  3  3  3  3  3  3  3  3  3  3  3  3  3  3  3
CENTRE ASSIGNMENTS    3  3  3  3  3  3  3  3  3  3  3  3  3  3  3  3  3  3  3  3
CENTRE ASSIGNMENTS    3  3  3  3  3  3  3  3  3  3  3  3  3  3  3  3  3  3  3  3
CENTRE ASSIGNMENTS    3  3  3  3  3  4  4  4  4  4  4  4  4  4  4  4  4  4  4  4
CENTRE ASSIGNMENTS    4  4  4  4  4  4  4  4  4  4  4  4  4  4  4  4  4  4  4  4
CENTRE ASSIGNMENTS    4  4  4  4  4  4  4  4  4  4  4  4  4  4  4  4  4  4  4  4
CENTRE ASSIGNMENTS    4  4  4  4  4  4  4  4  4  4  4  4  4  4  4  4  4  4  4  4
CENTRE ASSIGNMENTS    5  5  5  5  5  5  5  5  5  5  5  5  5  5  5  5  5  5  5  5
CENTRE ASSIGNMENTS    5  5  5  5  5  5  5  5  5  5  5  5  5  5  5  5  5  5  5  5
CENTRE ASSIGNMENTS    5  5  5  5  5  5  5  5  5  5  5  5  5  5  5  5  5  5  5  5
CENTRE ASSIGNMENTS    5  5  5  5  5  5  5  5  5  5  5  5  5  5  5  6  6  6  6  6
CENTRE ASSIGNMENTS    6  6  6  6  6  6  6  6  6  6  6  6  6  6  6  6  6  6  6  6
CENTRE ASSIGNMENTS    6  6  7  7  7  7  7  7  7  7  7  7  7  7  7  7  7  7  7  7
CENTRE ASSIGNMENTS    7  7  7  7  7  7  7  7  7  8  8  8  8  8  8  8  8  8  8  8
CENTRE ASSIGNMENTS    8  8  8  8  8  8  8  8  8  8  8  8  8  8  8  8  9  9  9  9
CENTRE ASSIGNMENTS    9  9  9  9  9  9  9  9  9  9  9  9  9  9  9  9  9  9  9  9
CENTRE ASSIGNMENTS    9  9  9
TYPE ASSIGNMENTS      1  1  1  1  1  1  1  1  1  1  1  1  1  1  1  1  1  1  1  2
TYPE ASSIGNMENTS      2  2  3  3  3  4  4  4  2  3  4  2  3  4  2  3  4  5  6  7
TYPE ASSIGNMENTS      8  9 10  5  6  7  8  9 10  5  6  7  8  9 10 11 12 13 17 14
TYPE ASSIGNMENTS     15 18 19 16 20 11 12 13 17 14 15 18 19 16 20  1  1  1  1  1
TYPE ASSIGNMENTS      1  1  1  1  1  1  1  1  1  1  1  1  1  1  2  2  2  3  3  3
TYPE ASSIGNMENTS      4  4  4  2  3  4  2  3  4  2  3  4  5  6  7  8  9 10  5  6
TYPE ASSIGNMENTS      7  8  9 10  5  6  7  8  9 10 11 12 13 17 14 15 18 19 16 20
TYPE ASSIGNMENTS     11 12 13 17 14 15 18 19 16 20  1  1  1  1  1  1  1  1  1  1
TYPE ASSIGNMENTS      1  1  1  1  1  1  1  1  1  2  2  2  3  3  3  4  4  4  2  3
TYPE ASSIGNMENTS      4  2  3  4  2  3  4  5  6  7  8  9 10  5  6  7  8  9 10  5
TYPE ASSIGNMENTS      6  7  8  9 10 11 12 13 17 14 15 18 19 16 20 11 12 13 17 14
TYPE ASSIGNMENTS     15 18 19 16 20  1  1  1  1  1  1  1  1  1  1  1  1  1  1  1
TYPE ASSIGNMENTS      1  1  1  1  2  2  2  3  3  3  4  4  4  2  3  4  2  3  4  2
TYPE ASSIGNMENTS      3  4  5  6  7  8  9 10  5  6  7  8  9 10  5  6  7  8  9 10
TYPE ASSIGNMENTS     11 12 13 17 14 15 18 19 16 20 11 12 13 17 14 15 18 19 16 20
TYPE ASSIGNMENTS      1  1  1  1  1  1  1  1  1  1  1  1  1  1  1  1  1  1  1  2
TYPE ASSIGNMENTS      2  2  3  3  3  4  4  4  2  3  4  2  3  4  2  3  4  5  6  7
TYPE ASSIGNMENTS      8  9 10  5  6  7  8  9 10  5  6  7  8  9 10 11 12 13 17 14
TYPE ASSIGNMENTS     15 18 19 16 20 11 12 13 17 14 15 18 19 16 20  1  1  1  1  1
TYPE ASSIGNMENTS      1  2  3  4  2  3  4  2  3  4  5  6  7  8  9 10  5  6  7  8
TYPE ASSIGNMENTS      9 10  1  1  1  1  1  1  2  3  4  2  3  4  2  3  4  5  6  7
TYPE ASSIGNMENTS      8  9 10  5  6  7  8  9 10  1  1  1  1  1  1  2  3  4  2  3
TYPE ASSIGNMENTS      4  2  3  4  5  6  7  8  9 10  5  6  7  8  9 10  1  1  1  1
TYPE ASSIGNMENTS      1  1  2  3  4  2  3  4  2  3  4  5  6  7  8  9 10  5  6  7
TYPE ASSIGNMENTS      8  9 10
EXPONENTS  0.1142000D+05 0.1712000D+04 0.3893000D+03 0.1100000D+03 0.3557000D+02
EXPONENTS  0.1254000D+02 0.4644000D+01 0.5118000D+00 0.1142000D+05 0.1712000D+04
EXPONENTS  0.3893000D+03 0.1100000D+03 0.3557000D+02 0.1254000D+02 0.4644000D+01
EXPONENTS  0.5118000D+00 0.1293000D+01 0.1787000D+00 0.5760000D-01 0.2663000D+02
EXPONENTS  0.5948000D+01 0.1742000D+01 0.2663000D+02 0.5948000D+01 0.1742000D+01
EXPONENTS  0.2663000D+02 0.5948000D+01 0.1742000D+01 0.5550000D+00 0.5550000D+00
EXPONENTS  0.5550000D+00 0.1725000D+00 0.1725000D+00 0.1725000D+00 0.4910000D-01
EXPONENTS  0.4910000D-01 0.4910000D-01 0.1654000D+01 0.1654000D+01 0.1654000D+01
EXPONENTS  0.1654000D+01 0.1654000D+01 0.1654000D+01 0.4690000D+00 0.4690000D+00
EXPONENTS  0.4690000D+00 0.4690000D+00 0.4690000D+00 0.4690000D+00 0.1510000D+00
EXPONENTS  0.1510000D+00 0.1510000D+00 0.1510000D+00 0.1510000D+00 0.1510000D+00
EXPONENTS  0.1093000D+01 0.1093000D+01 0.1093000D+01 0.1093000D+01 0.1093000D+01
EXPONENTS  0.1093000D+01 0.1093000D+01 0.1093000D+01 0.1093000D+01 0.1093000D+01
EXPONENTS  0.3640000D+00 0.3640000D+00 0.3640000D+00 0.3640000D+00 0.3640000D+00
EXPONENTS  0.3640000D+00 0.3640000D+00 0.3640000D+00 0.3640000D+00 0.3640000D+00
EXPONENTS  0.8236000D+04 0.1235000D+04 0.2808000D+03 0.7927000D+02 0.2559000D+02
EXPONENTS  0.8997000D+01 0.3319000D+01 0.3643000D+00 0.8236000D+04 0.1235000D+04
EXPONENTS  0.2808000D+03 0.7927000D+02 0.2559000D+02 0.8997000D+01 0.3319000D+01
EXPONENTS  0.3643000D+00 0.9059000D+00 0.1285000D+00 0.4402000D-01 0.1871000D+02
EXPONENTS  0.4133000D+01 0.1200000D+01 0.1871000D+02 0.4133000D+01 0.1200000D+01
EXPONENTS  0.1871000D+02 0.4133000D+01 0.1200000D+01 0.3827000D+00 0.3827000D+00
EXPONENTS  0.3827000D+00 0.1209000D+00 0.1209000D+00 0.1209000D+00 0.3569000D-01
EXPONENTS  0.3569000D-01 0.3569000D-01 0.1097000D+01 0.1097000D+01 0.1097000D+01
EXPONENTS  0.1097000D+01 0.1097000D+01 0.1097000D+01 0.3180000D+00 0.3180000D+00
EXPONENTS  0.3180000D+00 0.3180000D+00 0.3180000D+00 0.3180000D+00 0.1000000D+00
EXPONENTS  0.1000000D+00 0.1000000D+00 0.1000000D+00 0.1000000D+00 0.1000000D+00
EXPONENTS  0.7610000D+00 0.7610000D+00 0.7610000D+00 0.7610000D+00 0.7610000D+00
EXPONENTS  0.7610000D+00 0.7610000D+00 0.7610000D+00 0.7610000D+00 0.7610000D+00
EXPONENTS  0.2680000D+00 0.2680000D+00 0.2680000D+00 0.2680000D+00 0.2680000D+00
EXPONENTS  0.2680000D+00 0.2680000D+00 0.2680000D+00 0.2680000D+00 0.2680000D+00
EXPONENTS  0.8236000D+04 0.1235000D+04 0.2808000D+03 0.7927000D+02 0.2559000D+02
EXPONENTS  0.8997000D+01 0.3319000D+01 0.3643000D+00 0.8236000D+04 0.1235000D+04
EXPONENTS  0.2808000D+03 0.7927000D+02 0.2559000D+02 0.8997000D+01 0.3319000D+01
EXPONENTS  0.3643000D+00 0.9059000D+00 0.1285000D+00 0.4402000D-01 0.1871000D+02
EXPONENTS  0.4133000D+01 0.1200000D+01 0.1871000D+02 0.4133000D+01 0.1200000D+01
EXPONENTS  0.1871000D+02 0.4133000D+01 0.1200000D+01 0.3827000D+00 0.3827000D+00
EXPONENTS  0.3827000D+00 0.1209000D+00 0.1209000D+00 0.1209000D+00 0.3569000D-01
EXPONENTS  0.3569000D-01 0.3569000D-01 0.1097000D+01 0.1097000D+01 0.1097000D+01
EXPONENTS  0.1097000D+01 0.1097000D+01 0.1097000D+01 0.3180000D+00 0.3180000D+00
EXPONENTS  0.3180000D+00 0.3180000D+00 0.3180000D+00 0.3180000D+00 0.1000000D+00
EXPONENTS  0.1000000D+00 0.1000000D+00 0.1000000D+00 0.1000000D+00 0.1000000D+00
EXPONENTS  0.7610000D+00 0.7610000D+00 0.7610000D+00 0.7610000D+00 0.7610000D+00
EXPONENTS  0.7610000D+00 0.7610000D+00 0.7610000D+00 0.7610000D+00 0.7610000D+00
EXPONENTS  0.2680000D+00 0.2680000D+00 0.2680000D+00 0.2680000D+00 0.2680000D+00
EXPONENTS  0.2680000D+00 0.2680000D+00 0.2680000D+00 0.2680000D+00 0.2680000D+00
EXPONENTS  0.8236000D+04 0.1235000D+04 0.2808000D+03 0.7927000D+02 0.2559000D+02
EXPONENTS  0.8997000D+01 0.3319000D+01 0.3643000D+00 0.8236000D+04 0.1235000D+04
EXPONENTS  0.2808000D+03 0.7927000D+02 0.2559000D+02 0.8997000D+01 0.3319000D+01
EXPONENTS  0.3643000D+00 0.9059000D+00 0.1285000D+00 0.4402000D-01 0.1871000D+02
EXPONENTS  0.4133000D+01 0.1200000D+01 0.1871000D+02 0.4133000D+01 0.1200000D+01
EXPONENTS  0.1871000D+02 0.4133000D+01 0.1200000D+01 0.3827000D+00 0.3827000D+00
EXPONENTS  0.3827000D+00 0.1209000D+00 0.1209000D+00 0.1209000D+00 0.3569000D-01
EXPONENTS  0.3569000D-01 0.3569000D-01 0.1097000D+01 0.1097000D+01 0.1097000D+01
EXPONENTS  0.1097000D+01 0.1097000D+01 0.1097000D+01 0.3180000D+00 0.3180000D+00
EXPONENTS  0.3180000D+00 0.3180000D+00 0.3180000D+00 0.3180000D+00 0.1000000D+00
EXPONENTS  0.1000000D+00 0.1000000D+00 0.1000000D+00 0.1000000D+00 0.1000000D+00
EXPONENTS  0.7610000D+00 0.7610000D+00 0.7610000D+00 0.7610000D+00 0.7610000D+00
EXPONENTS  0.7610000D+00 0.7610000D+00 0.7610000D+00 0.7610000D+00 0.7610000D+00
EXPONENTS  0.2680000D+00 0.2680000D+00 0.2680000D+00 0.2680000D+00 0.2680000D+00
EXPONENTS  0.2680000D+00 0.2680000D+00 0.2680000D+00 0.2680000D+00 0.2680000D+00
EXPONENTS  0.1142000D+05 0.1712000D+04 0.3893000D+03 0.1100000D+03 0.3557000D+02
EXPONENTS  0.1254000D+02 0.4644000D+01 0.5118000D+00 0.1142000D+05 0.1712000D+04
EXPONENTS  0.3893000D+03 0.1100000D+03 0.3557000D+02 0.1254000D+02 0.4644000D+01
EXPONENTS  0.5118000D+00 0.1293000D+01 0.1787000D+00 0.5760000D-01 0.2663000D+02
EXPONENTS  0.5948000D+01 0.1742000D+01 0.2663000D+02 0.5948000D+01 0.1742000D+01
EXPONENTS  0.2663000D+02 0.5948000D+01 0.1742000D+01 0.5550000D+00 0.5550000D+00
EXPONENTS  0.5550000D+00 0.1725000D+00 0.1725000D+00 0.1725000D+00 0.4910000D-01
EXPONENTS  0.4910000D-01 0.4910000D-01 0.1654000D+01 0.1654000D+01 0.1654000D+01
EXPONENTS  0.1654000D+01 0.1654000D+01 0.1654000D+01 0.4690000D+00 0.4690000D+00
EXPONENTS  0.4690000D+00 0.4690000D+00 0.4690000D+00 0.4690000D+00 0.1510000D+00
EXPONENTS  0.1510000D+00 0.1510000D+00 0.1510000D+00 0.1510000D+00 0.1510000D+00
EXPONENTS  0.1093000D+01 0.1093000D+01 0.1093000D+01 0.1093000D+01 0.1093000D+01
EXPONENTS  0.1093000D+01 0.1093000D+01 0.1093000D+01 0.1093000D+01 0.1093000D+01
EXPONENTS  0.3640000D+00 0.3640000D+00 0.3640000D+00 0.3640000D+00 0.3640000D+00
EXPONENTS  0.3640000D+00 0.3640000D+00 0.3640000D+00 0.3640000D+00 0.3640000D+00
EXPONENTS  0.3387000D+02 0.5095000D+01 0.1159000D+01 0.3258000D+00 0.1027000D+00
EXPONENTS  0.2526000D-01 0.1407000D+01 0.1407000D+01 0.1407000D+01 0.3880000D+00
EXPONENTS  0.3880000D+00 0.3880000D+00 0.1020000D+00 0.1020000D+00 0.1020000D+00
EXPONENTS  0.1057000D+01 0.1057000D+01 0.1057000D+01 0.1057000D+01 0.1057000D+01
EXPONENTS  0.1057000D+01 0.2470000D+00 0.2470000D+00 0.2470000D+00 0.2470000D+00
EXPONENTS  0.2470000D+00 0.2470000D+00 0.3387000D+02 0.5095000D+01 0.1159000D+01
EXPONENTS  0.3258000D+00 0.1027000D+00 0.2526000D-01 0.1407000D+01 0.1407000D+01
EXPONENTS  0.1407000D+01 0.3880000D+00 0.3880000D+00 0.3880000D+00 0.1020000D+00
EXPONENTS  0.1020000D+00 0.1020000D+00 0.1057000D+01 0.1057000D+01 0.1057000D+01
EXPONENTS  0.1057000D+01 0.1057000D+01 0.1057000D+01 0.2470000D+00 0.2470000D+00
EXPONENTS  0.2470000D+00 0.2470000D+00 0.2470000D+00 0.2470000D+00 0.3387000D+02
EXPONENTS  0.5095000D+01 0.1159000D+01 0.3258000D+00 0.1027000D+00 0.2526000D-01
EXPONENTS  0.1407000D+01 0.1407000D+01 0.1407000D+01 0.3880000D+00 0.3880000D+00
EXPONENTS  0.3880000D+00 0.1020000D+00 0.1020000D+00 0.1020000D+00 0.1057000D+01
EXPONENTS  0.1057000D+01 0.1057000D+01 0.1057000D+01 0.1057000D+01 0.1057000D+01
EXPONENTS  0.2470000D+00 0.2470000D+00 0.2470000D+00 0.2470000D+00 0.2470000D+00
EXPONENTS  0.2470000D+00 0.3387000D+02 0.5095000D+01 0.1159000D+01 0.3258000D+00
EXPONENTS  0.1027000D+00 0.2526000D-01 0.1407000D+01 0.1407000D+01 0.1407000D+01
EXPONENTS  0.3880000D+00 0.3880000D+00 0.3880000D+00 0.1020000D+00 0.1020000D+00
EXPONENTS  0.1020000D+00 0.1057000D+01 0.1057000D+01 0.1057000D+01 0.1057000D+01
EXPONENTS  0.1057000D+01 0.1057000D+01 0.2470000D+00 0.2470000D+00 0.2470000D+00
EXPONENTS  0.2470000D+00 0.2470000D+00 0.2470000D+00
MO    1     MO 0.0        OCC NO =    2.0000000  ORB. ENERGY =  -14.252322
  0.41342782D+00  0.77036187D+00  0.13028750D+01  0.19620576D+01  0.24291546D+01
  0.20671010D+01  0.78657005D+00 -0.36838431D-02 -0.19414460D-02 -0.36402293D-02
 -0.61931132D-02 -0.96172509D-02 -0.12762651D-01 -0.13450083D-01 -0.83399092D-02
  0.55477108D-02  0.39508671D-01  0.41471624D-02  0.47007251D-03  0.70091520D-03
  0.67322067D-03  0.47210880D-03 -0.68422270D-03 -0.65718772D-03 -0.46086539D-03
  0.38930919D-16  0.37392682D-16  0.26222330D-16 -0.74247492D-04  0.15630777D-02
 -0.50509403D-17  0.37298664D-03 -0.10881871D-02  0.26051268D-17  0.32374252D-04
 -0.14989127D-03  0.13238560D-18  0.10152778D-02  0.23686877D-02 -0.33839655D-02
  0.15273315D-02 -0.21638421D-18 -0.18250115D-16 -0.13015131D-03  0.80233664D-04
  0.49917648D-04  0.90732392D-03  0.11104180D-17  0.58300650D-18 -0.97646597D-04
 -0.52519228D-04  0.15016582D-03  0.99202396D-05  0.66410750D-20 -0.59537401D-18
 -0.11817825D-02  0.11729659D-02  0.46771400D-18  0.40090221D-02 -0.21199075D-02
  0.65446356D-18 -0.46367470D-03 -0.13989902D-02 -0.20576056D-17  0.16818167D-17
  0.35488107D-03 -0.23571070D-03 -0.14686822D-18 -0.10061273D-02  0.50391039D-03
  0.28594590D-18 -0.58515951D-04  0.20322172D-03  0.15465877D-18 -0.80204112D-18
  0.31661184D-03  0.59023645D-03  0.99760357D-03  0.14997249D-02  0.18425854D-02
  0.15563579D-02  0.58700094D-03 -0.29051004D-05 -0.24551270D-03 -0.45967724D-03
 -0.78263983D-03 -0.12106248D-02 -0.15943503D-02 -0.16566321D-02 -0.10527153D-02
  0.70550532D-03  0.13068321D-02 -0.26138632D-02 -0.73969487D-03  0.83571652D-03
  0.78353736D-03  0.55792528D-03  0.28660621D-03  0.26871154D-03  0.19133863D-03
  0.84112973D-19  0.78861259D-19  0.56153914D-19  0.27521976D-03  0.62437628D-03
 -0.19657200D-18  0.29317552D-03 -0.53183734D-03 -0.13650165D-17  0.17003421D-04
  0.82179294D-04 -0.52248883D-19 -0.23982189D-04 -0.20691294D-04  0.44673483D-04
  0.48347621D-03  0.35948752D-18  0.16268149D-18 -0.66151289D-03  0.67197611D-04
  0.59431528D-03 -0.14120762D-02  0.50782255D-18 -0.16060343D-18 -0.20266426D-03
  0.18723320D-03  0.15431063D-04  0.63669348D-05 -0.30672752D-18  0.25867525D-18
 -0.64116256D-03  0.26323275D-03 -0.15017077D-18  0.10731779D-02 -0.11095617D-02
  0.46942658D-18  0.85030980D-03  0.31986350D-03 -0.18914288D-19  0.30320703D-18
 -0.25701585D-03  0.58873125D-04  0.59710803D-19  0.70648275D-03 -0.21113478D-03
  0.18299631D-18  0.64564812D-04  0.34515406D-04 -0.36212872D-18 -0.22567436D-19
 -0.15845130D-04 -0.29538925D-04 -0.49925988D-04 -0.75055113D-04 -0.92213878D-04
 -0.77889362D-04 -0.29377002D-04  0.14538842D-06  0.89240051D-05  0.16708553D-04
  0.28447742D-04  0.44004331D-04  0.57952155D-04  0.60216002D-04  0.38264566D-04
 -0.25644022D-04  0.92924161D-05 -0.29734884D-02  0.54113610D-03  0.20202745D-03
  0.18941358D-03  0.13487375D-03  0.74041866D-04  0.69418956D-04  0.49430432D-04
 -0.18175260D-18 -0.17040462D-18 -0.12133824D-18 -0.85930862D-03  0.40150208D-03
  0.51642256D-18 -0.51567953D-04  0.11637359D-03  0.63644354D-18 -0.26173406D-04
  0.52625122D-04  0.14463303D-19 -0.17451386D-03  0.24019529D-03 -0.65681430D-04
  0.47497167D-03  0.20770657D-18 -0.23085309D-18 -0.20794942D-03  0.14961147D-03
  0.58337951D-04 -0.24949359D-02  0.76344755D-19  0.47718122D-18  0.10032110D-04
  0.28228101D-04 -0.38260212D-04 -0.16676251D-03  0.12242074D-18  0.22196758D-18
  0.19067303D-03  0.10596282D-03 -0.27905439D-19 -0.72863137D-03 -0.40619630D-03
 -0.74094911D-19  0.15661228D-03  0.88307841D-04  0.15781123D-18  0.24233876D-19
  0.13470079D-03 -0.13916729D-04  0.64733648D-20 -0.26256633D-03  0.94786428D-04
  0.47479069D-19 -0.14153602D-03 -0.53036241D-04 -0.66899163D-19 -0.22212016D-18
 -0.10574612D-03 -0.19713482D-03 -0.33319257D-03 -0.50089758D-03 -0.61541055D-03
 -0.51981259D-03 -0.19605418D-03  0.97028309D-06  0.76412672D-04  0.14306863D-03
  0.24358659D-03  0.37679141D-03  0.49622103D-03  0.51560544D-03  0.32764411D-03
 -0.21957946D-03 -0.19360726D-03  0.41713985D-03  0.14757828D-03 -0.11908848D-03
 -0.11165302D-03 -0.79503605D-04  0.87290453D-04  0.81840348D-04  0.58275203D-04
 -0.23802335D-18 -0.22316202D-18 -0.15890466D-18  0.96220078D-03 -0.57163823D-03
  0.47868938D-18 -0.32230048D-03  0.30000510D-03  0.22756188D-18 -0.18108842D-04
 -0.62798123D-06  0.28640312D-19 -0.84784983D-04  0.74592986D-04  0.10191997D-04
  0.21093230D-03 -0.57222274D-18 -0.17596482D-18  0.67627705D-04  0.60941669D-04
 -0.12856937D-03 -0.56068139D-04  0.78569247D-18  0.64964947D-18  0.84292473D-04
 -0.63142567D-04 -0.21149906D-04 -0.14301756D-03 -0.60161906D-19  0.10013647D-18
  0.17562593D-04 -0.22508933D-03 -0.10426772D-18  0.73716094D-04  0.68423629D-03
  0.14464972D-18 -0.12640387D-03 -0.89682951D-05  0.16815345D-18  0.30039014D-18
  0.14016992D-04 -0.91230008D-04 -0.39703048D-20 -0.59252266D-04  0.29754367D-03
  0.58332795D-20  0.17201289D-04 -0.23853647D-04  0.60776350D-20  0.31191675D-18
  0.72982591D-03  0.13599231D-02  0.22999709D-02  0.34636288D-02  0.42881971D-02
  0.36490622D-02  0.13885355D-02 -0.65031041D-05 -0.26264157D-03 -0.49245541D-03
 -0.83781317D-03 -0.13010354D-02 -0.17265496D-02 -0.18195463D-02 -0.11282348D-02
  0.75050222D-03  0.65515422D-03 -0.11925997D-02 -0.43030291D-03 -0.56682879D-03
 -0.54443227D-03 -0.38179349D-03  0.48407490D-03  0.46494816D-03  0.32605374D-03
  0.10523023D-18  0.10107238D-18  0.70878927D-19 -0.28231510D-03  0.75254300D-03
 -0.24302530D-18  0.58709071D-03 -0.63768903D-03 -0.19175054D-17  0.15762586D-04
  0.18726008D-05 -0.98810467D-19 -0.90557938D-04  0.55666044D-03 -0.46610250D-03
 -0.98205949D-03 -0.62023218D-18 -0.56847592D-18  0.10699318D-03 -0.62964591D-03
  0.52265272D-03  0.66654891D-03  0.53089318D-18  0.40746405D-18 -0.18225924D-04
 -0.48642223D-04  0.66868147D-04  0.26536470D-03  0.52640373D-18 -0.20704914D-18
 -0.29524230D-03  0.91385859D-04 -0.31451961D-18  0.16799928D-02 -0.11333157D-02
  0.74070990D-18 -0.79426587D-03  0.85915817D-03  0.20284894D-18 -0.47593972D-18
  0.33845544D-06 -0.45259722D-05  0.15352343D-18  0.16233117D-03 -0.19729330D-03
 -0.72287852D-19 -0.16334653D-03  0.21087122D-03 -0.38828244D-18 -0.19237703D-18
  0.16246765D-03  0.29301709D-03  0.43205353D-03 -0.82415492D-03 -0.41663705D-03
 -0.51187544D-05  0.70832030D-03  0.18110383D-02  0.49220016D-18  0.62361474D-03
  0.22649946D-02  0.15878263D-18  0.95708221D-04  0.26047186D-03 -0.29006198D-19
  0.69918628D-03 -0.23200313D-02  0.16208450D-02 -0.26127220D-02 -0.81056224D-18
 -0.18770352D-17  0.68612653D-04 -0.22236280D-03  0.15375015D-03 -0.19998193D-03
  0.48059812D-19  0.84926988D-19  0.60516481D-04  0.10914397D-03  0.16093271D-03
  0.84799553D-03  0.14126401D-02 -0.26903173D-04  0.32181380D-03 -0.36110075D-03
 -0.52876600D-18  0.10453444D-03  0.46527685D-03  0.73801168D-18 -0.63617139D-04
 -0.34846715D-03 -0.19417652D-18 -0.16760614D-04 -0.12613862D-03  0.14289923D-03
 -0.14319677D-03  0.24427094D-18 -0.21871184D-19 -0.61226859D-04 -0.24397468D-04
  0.85624327D-04  0.15705177D-04  0.36479265D-18  0.25115761D-19 -0.26204590D-05
 -0.47261057D-05 -0.69686401D-05  0.18301717D-02  0.54343928D-03  0.21388350D-04
 -0.78622165D-04 -0.12240918D-03 -0.47546490D-19  0.29416517D-03  0.70044253D-03
  0.23587033D-18  0.66115478D-04  0.30920593D-04  0.18670067D-18 -0.16654474D-03
  0.10580642D-03  0.60738319D-04 -0.99796523D-04  0.74385627D-19  0.95864396D-19
 -0.95710286D-05  0.91108518D-05  0.46017677D-06  0.66264179D-05  0.97488137D-19
 -0.10482928D-18  0.11061770D-04  0.19950357D-04  0.29416790D-04 -0.56606881D-03
  0.48193136D-04  0.25028446D-04  0.31222855D-04 -0.68252665D-06 -0.10181896D-18
  0.57713766D-03 -0.33916971D-03  0.24996962D-18 -0.10885723D-03 -0.48635465D-04
  0.94220961D-19 -0.39892495D-04 -0.52784502D-04  0.92676997D-04  0.41795051D-03
 -0.61498121D-19  0.42079490D-19  0.79624393D-05 -0.26578419D-04  0.18615980D-04
  0.67362235D-04 -0.14461645D-19  0.33841875D-21
MO    2     MO 0.0        OCC NO =    2.0000000  ORB. ENERGY =  -14.190383
 -0.35342645D-04 -0.65855815D-04 -0.11137869D-03 -0.16773014D-03 -0.20766080D-03
 -0.17670996D-03 -0.67241401D-04  0.31492017D-06 -0.26822314D-03 -0.50292089D-03
 -0.85561807D-03 -0.13286845D-02 -0.17632416D-02 -0.18582146D-02 -0.11522116D-02
  0.76645161D-03  0.44856626D-03 -0.64010258D-03 -0.70254848D-03 -0.54475759D-04
 -0.52323316D-04 -0.36692720D-04 -0.28476908D-03 -0.27351730D-03 -0.19180921D-03
 -0.14490786D-15 -0.13918227D-15 -0.97604215D-16  0.12709117D-02 -0.82871602D-04
  0.47031034D-16  0.29120107D-03 -0.12409240D-02  0.14894843D-17 -0.46404306D-04
  0.51063364D-07 -0.13070954D-19  0.57448778D-03  0.17585687D-03 -0.75034465D-03
 -0.15411207D-02 -0.23649286D-18  0.13141642D-16 -0.84485755D-03  0.41359801D-03
  0.43125953D-03  0.94319477D-03 -0.67280941D-20 -0.12229046D-16 -0.81148925D-04
  0.15474224D-04  0.65674701D-04 -0.28247693D-03 -0.30040737D-17  0.60194848D-18
  0.85928737D-04  0.35421177D-05 -0.66346432D-18 -0.32220203D-03  0.64899123D-03
 -0.11770492D-17  0.64415823D-04 -0.65961759D-03  0.31674421D-17  0.29462284D-17
  0.23745443D-03 -0.33576250D-03  0.17641935D-18 -0.98390699D-03  0.90986836D-03
  0.24350759D-17  0.27154370D-03  0.97419126D-04 -0.29643340D-17 -0.95153601D-17
 -0.42513637D-05 -0.79255086D-05 -0.13395506D-04 -0.20137833D-04 -0.24741655D-04
 -0.20898283D-04 -0.78820633D-05  0.39008771D-07  0.11135223D-05  0.20848651D-05
  0.35496613D-05  0.54907862D-05  0.72311723D-05  0.75136512D-05  0.47745880D-05
 -0.31998179D-05 -0.67629529D-04  0.24496893D-03  0.33549533D-03  0.97755324D-04
  0.91651830D-04  0.65261563D-04 -0.18855865D-03 -0.17678572D-03 -0.12588197D-03
 -0.20419807D-17 -0.19144867D-17 -0.13632286D-17  0.14128698D-02  0.16281101D-02
  0.48457803D-17 -0.24040783D-03  0.55497399D-03 -0.51574992D-18  0.30377756D-04
 -0.19121787D-04  0.18698847D-19  0.27972012D-03 -0.18089766D-03 -0.98822459D-04
  0.23566119D-03  0.17726654D-17  0.41095759D-17  0.39251117D-03 -0.34621650D-03
 -0.46294678D-04  0.10744213D-03 -0.23691718D-17 -0.54828800D-17  0.10295036D-04
  0.11385647D-04 -0.21680683D-04 -0.53337965D-04 -0.81756162D-18 -0.10372570D-17
 -0.18633175D-03 -0.26569915D-03 -0.40056198D-18  0.44667063D-03  0.88960532D-03
 -0.45144702D-18  0.11232463D-03 -0.92507875D-04  0.16531330D-17 -0.89039387D-18
  0.96805811D-05 -0.13159883D-03 -0.15535860D-18 -0.16380887D-03  0.33662614D-03
  0.21570003D-18  0.13476713D-03  0.58170347D-04  0.25037576D-18 -0.44899574D-17
  0.49929278D-04  0.93079526D-04  0.15732080D-03  0.23650469D-03  0.29057334D-03
  0.24543563D-03  0.92569291D-04 -0.45813059D-06 -0.37365434D-04 -0.69959881D-04
 -0.11911268D-03 -0.18424921D-03 -0.24264973D-03 -0.25212861D-03 -0.16021641D-03
  0.10737331D-03  0.77314483D-04 -0.24787712D-02  0.34170832D-03  0.25018131D-04
  0.23456088D-04  0.16702132D-04  0.14027241D-03  0.13151430D-03  0.93646016D-04
 -0.27452346D-18 -0.25738319D-18 -0.18327216D-18  0.15980886D-02 -0.54331068D-03
 -0.31828424D-17 -0.11878900D-02  0.51887235D-03 -0.14143573D-18  0.91399347D-05
 -0.18917268D-04  0.34973553D-20  0.38432308D-03 -0.33585322D-03 -0.48469862D-04
  0.36026909D-03  0.21675519D-18  0.41831463D-18 -0.64798768D-03  0.52420693D-03
  0.12378075D-03 -0.27757951D-02 -0.24263449D-17 -0.28282283D-17 -0.11495249D-03
  0.14994211D-03 -0.34989614D-04  0.14707171D-04  0.75792725D-18 -0.12984748D-18
 -0.16439516D-03  0.19904520D-03  0.95099375D-18  0.37913003D-03 -0.68167809D-03
 -0.40244638D-17  0.11405544D-03  0.84542481D-04  0.11714826D-17  0.18765581D-17
  0.15558278D-04  0.20236328D-03 -0.39163738D-19 -0.88708091D-04 -0.48816257D-03
  0.18223355D-17  0.42033257D-04 -0.11892727D-03 -0.17048443D-17 -0.93754871D-18
  0.29201405D-03  0.54438058D-03  0.92009909D-03  0.13832103D-02  0.16994337D-02
  0.14354434D-02  0.54139645D-03 -0.26794012D-05 -0.22490728D-03 -0.42109739D-03
 -0.71695434D-03 -0.11090193D-02 -0.14605395D-02 -0.15175941D-02 -0.96436290D-03
  0.64629359D-03  0.10089846D-02 -0.78428496D-03 -0.63621502D-03  0.51913829D-03
  0.48672515D-03  0.34657730D-03  0.53152494D-03  0.49833842D-03  0.35484664D-03
 -0.14031697D-17 -0.13155608D-17 -0.93675766D-18  0.65423036D-03 -0.12386655D-03
  0.17765470D-17 -0.20941430D-02  0.11594042D-02 -0.14256328D-17  0.32086142D-04
 -0.62919821D-05 -0.15927444D-18  0.35184325D-04  0.49280506D-04 -0.84464831D-04
  0.60042645D-03  0.23356004D-17  0.11503025D-17 -0.83187055D-03  0.46439443D-03
  0.36747612D-03 -0.31253263D-02  0.66245367D-18  0.96360503D-18  0.12905121D-03
 -0.16486394D-03  0.35812730D-04 -0.26918738D-03  0.73407104D-18 -0.59400065D-18
  0.40764888D-03  0.87176741D-04 -0.78696380D-18 -0.16290396D-02 -0.75934895D-03
 -0.89486795D-18  0.40609295D-03  0.49781873D-03  0.32557594D-17  0.24875803D-18
  0.32355102D-03  0.46781396D-04 -0.29355850D-18 -0.11032517D-02 -0.15395954D-03
  0.67942332D-18  0.13259865D-03  0.13615355D-04  0.20125219D-18  0.11433374D-17
  0.41308972D+00  0.76973187D+00  0.13018096D+01  0.19604531D+01  0.24271681D+01
  0.20654105D+01  0.78592679D+00 -0.36808305D-02 -0.16893620D-02 -0.31675695D-02
 -0.53889781D-02 -0.83685141D-02 -0.11105505D-01 -0.11703678D-01 -0.72570268D-02
  0.48273770D-02  0.39989724D-01  0.60599108D-03  0.37355180D-03 -0.79691879D-02
 -0.76543097D-02 -0.53677303D-02  0.14777703D-02  0.14193807D-02  0.99536773D-03
  0.43760639D-16  0.42031571D-16  0.29475439D-16 -0.49210562D-03 -0.11780292D-02
 -0.13401252D-16  0.11736863D-02 -0.64885889D-03  0.10074742D-17 -0.39724845D-05
  0.48759722D-04  0.25878329D-18  0.15771683D-02  0.11007492D-02 -0.26779175D-02
  0.63109851D-03 -0.25331200D-16  0.19327003D-17 -0.12082735D-02  0.51957146D-03
  0.68870208D-03  0.29511897D-03  0.78635661D-17 -0.45182295D-17 -0.16643817D-03
  0.48422013D-04  0.11801616D-03  0.86286317D-04 -0.39401849D-18  0.45510343D-18
  0.32760864D-03 -0.54579930D-05 -0.20188456D-17 -0.11171860D-02 -0.26424180D-03
  0.65729662D-17  0.13436006D-03  0.28061578D-03 -0.51642935D-18  0.30493804D-20
  0.12869352D-03  0.43532336D-04  0.10778945D-17  0.14140444D-04  0.40537341D-05
 -0.91352535D-18 -0.40022100D-03 -0.13465074D-03 -0.23201582D-17  0.17426816D-17
  0.10578401D-03  0.19078582D-03  0.28131358D-03  0.13745520D-02  0.69742939D-03
 -0.47214798D-05 -0.17472918D-03  0.37215449D-04  0.14415461D-17 -0.18637396D-03
  0.53329982D-03  0.98101997D-17  0.12579601D-04 -0.42313686D-04  0.68733807D-18
  0.58049113D-04 -0.45218198D-03  0.39413287D-03  0.25104264D-03 -0.37382353D-17
 -0.61820953D-17  0.41094363D-04 -0.14272030D-03  0.10162594D-03  0.28557120D-04
  0.94799434D-18 -0.30597584D-17 -0.32641269D-04 -0.58869873D-04 -0.86803593D-04
 -0.83373707D-03 -0.12464877D-02  0.30303764D-04 -0.10120670D-03  0.16128434D-03
  0.32884969D-17  0.24482174D-03  0.42137681D-03 -0.49991726D-17 -0.14564707D-03
  0.11493843D-03 -0.69046179D-19  0.31150398D-03 -0.25617669D-03 -0.55327284D-04
  0.32772612D-03 -0.18126239D-18  0.90542226D-18  0.27786302D-04 -0.18453688D-05
 -0.25940933D-04  0.30676656D-04 -0.12054063D-17  0.17258398D-17 -0.29493505D-04
 -0.53192750D-04 -0.78432679D-04  0.17429626D-02 -0.32573329D-03 -0.11433200D-04
 -0.15586919D-03 -0.68813814D-04 -0.57809932D-18  0.11975678D-02  0.70351472D-03
 -0.13248006D-17 -0.85615069D-04  0.12043700D-03  0.62205660D-18  0.17788729D-03
 -0.62694029D-04 -0.11519326D-03  0.86987149D-04  0.11829332D-18  0.63024043D-18
  0.17226496D-04  0.45094919D-04 -0.62321415D-04  0.63252291D-04  0.45053869D-18
 -0.10358828D-17  0.78529148D-04  0.14163055D-03  0.20883417D-03  0.19954678D-03
  0.25519172D-02  0.50777405D-05 -0.34115861D-03  0.48375628D-03  0.29572308D-18
  0.35882598D-03 -0.11128705D-02 -0.12347902D-18 -0.38699227D-03  0.19507367D-03
 -0.78544030D-18  0.42618033D-04 -0.29283235D-03  0.25021432D-03 -0.29438472D-03
  0.22205303D-17  0.26495911D-18 -0.80138732D-05 -0.13077520D-03  0.13878907D-03
 -0.64894789D-04  0.44830780D-18  0.16354447D-19
MO    3     MO 0.0        OCC NO =    2.0000000  ORB. ENERGY =  -10.087049
  0.32916298D-03  0.61334674D-03  0.10373231D-02  0.15621511D-02  0.19340444D-02
  0.16457845D-02  0.62625137D-03 -0.29330023D-05 -0.27771689D-03 -0.52072177D-03
 -0.88590266D-03 -0.13757133D-02 -0.18256516D-02 -0.19239861D-02 -0.11929941D-02
  0.79358016D-03  0.10768747D-02 -0.45232532D-03 -0.13285586D-02 -0.91795941D-03
 -0.88168904D-03 -0.61830122D-03 -0.21548996D-03 -0.20697553D-03 -0.14514553D-03
 -0.23545334D-15 -0.22615011D-15 -0.15859207D-15 -0.39652826D-04  0.21497326D-03
 -0.44465307D-16  0.38260074D-02 -0.26022877D-02 -0.17387254D-17  0.14852058D-05
  0.60972224D-04 -0.76660635D-18  0.48566881D-03 -0.64095499D-04 -0.42157332D-03
  0.91509844D-04  0.62070985D-18 -0.14362704D-17 -0.12729477D-02  0.25997708D-03
  0.10129706D-02 -0.38650183D-03  0.18255082D-17 -0.72236345D-18 -0.31253616D-03
  0.25054630D-03  0.61989868D-04 -0.64763566D-03  0.24636417D-17 -0.64279942D-18
  0.64679001D-03 -0.28797861D-03 -0.17365242D-17 -0.12962014D-02  0.13266431D-02
  0.53246371D-17 -0.64416862D-03 -0.46270731D-03 -0.11506449D-18 -0.62672531D-17
  0.30389559D-03 -0.49818322D-03  0.23405330D-18 -0.29417912D-03  0.13679730D-02
 -0.26557242D-17 -0.61750765D-03  0.12657668D-03  0.19535643D-17  0.14765763D-17
  0.32984129D+00  0.61489916D+00  0.10392879D+01  0.15623902D+01  0.19195768D+01
  0.16213895D+01  0.61152846D+00 -0.30264885D-02 -0.28797291D-02 -0.53917614D-02
 -0.91799351D-02 -0.14199964D-01 -0.18700853D-01 -0.19431384D-01 -0.12347772D-01