 Molden2AIM, Version 4.0.0 (06/02/2016)           Time: Mon Jul  2 02:59:55 2018
GAUSSIAN             21 MOL ORBITALS    558 PRIMITIVES       10 NUCLEI
  H    1    (CENTRE  1)   0.00000000  3.90895707  2.37394388  CHARGE =  1.0
  H    2    (CENTRE  2)   0.00000000 -3.90895707  2.37394388  CHARGE =  1.0
  H    3    (CENTRE  3)   0.00000000  3.90895707 -2.37394388  CHARGE =  1.0
  H    4    (CENTRE  4)   0.00000000 -3.90895707 -2.37394388  CHARGE =  1.0
  C    5    (CENTRE  5)   0.00000000  2.13441542  1.31889466  CHARGE =  6.0
  C    6    (CENTRE  6)   0.00000000 -2.13441542  1.31889466  CHARGE =  6.0
  C    7    (CENTRE  7)   0.00000000  2.13441542 -1.31889466  CHARGE =  6.0
  C    8    (CENTRE  8)   0.00000000 -2.13441542 -1.31889466  CHARGE =  6.0
  N    9    (CENTRE  9)   0.00000000  0.00000000  2.65777885  CHARGE =  7.0
  N   10    (CENTRE 10)   0.00000000  0.00000000 -2.65777885  CHARGE =  7.0
CENTRE ASSIGNMENTS    1  1  1  1  1  1  1  1  1  1  1  1  1  1  1  1  1  1  1  1
CENTRE ASSIGNMENTS    1  1  1  1  1  1  1  2  2  2  2  2  2  2  2  2  2  2  2  2
CENTRE ASSIGNMENTS    2  2  2  2  2  2  2  2  2  2  2  2  2  2  3  3  3  3  3  3
CENTRE ASSIGNMENTS    3  3  3  3  3  3  3  3  3  3  3  3  3  3  3  3  3  3  3  3
CENTRE ASSIGNMENTS    3  4  4  4  4  4  4  4  4  4  4  4  4  4  4  4  4  4  4  4
CENTRE ASSIGNMENTS    4  4  4  4  4  4  4  4  5  5  5  5  5  5  5  5  5  5  5  5
CENTRE ASSIGNMENTS    5  5  5  5  5  5  5  5  5  5  5  5  5  5  5  5  5  5  5  5
CENTRE ASSIGNMENTS    5  5  5  5  5  5  5  5  5  5  5  5  5  5  5  5  5  5  5  5
CENTRE ASSIGNMENTS    5  5  5  5  5  5  5  5  5  5  5  5  5  5  5  5  5  5  5  5
CENTRE ASSIGNMENTS    5  5  5  6  6  6  6  6  6  6  6  6  6  6  6  6  6  6  6  6
CENTRE ASSIGNMENTS    6  6  6  6  6  6  6  6  6  6  6  6  6  6  6  6  6  6  6  6
CENTRE ASSIGNMENTS    6  6  6  6  6  6  6  6  6  6  6  6  6  6  6  6  6  6  6  6
CENTRE ASSIGNMENTS    6  6  6  6  6  6  6  6  6  6  6  6  6  6  6  6  6  6  7  7
CENTRE ASSIGNMENTS    7  7  7  7  7  7  7  7  7  7  7  7  7  7  7  7  7  7  7  7
CENTRE ASSIGNMENTS    7  7  7  7  7  7  7  7  7  7  7  7  7  7  7  7  7  7  7  7
CENTRE ASSIGNMENTS    7  7  7  7  7  7  7  7  7  7  7  7  7  7  7  7  7  7  7  7
CENTRE ASSIGNMENTS    7  7  7  7  7  7  7  7  7  7  7  7  7  8  8  8  8  8  8  8
CENTRE ASSIGNMENTS    8  8  8  8  8  8  8  8  8  8  8  8  8  8  8  8  8  8  8  8
CENTRE ASSIGNMENTS    8  8  8  8  8  8  8  8  8  8  8  8  8  8  8  8  8  8  8  8
CENTRE ASSIGNMENTS    8  8  8  8  8  8  8  8  8  8  8  8  8  8  8  8  8  8  8  8
CENTRE ASSIGNMENTS    8  8  8  8  8  8  8  8  9  9  9  9  9  9  9  9  9  9  9  9
CENTRE ASSIGNMENTS    9  9  9  9  9  9  9  9  9  9  9  9  9  9  9  9  9  9  9  9
CENTRE ASSIGNMENTS    9  9  9  9  9  9  9  9  9  9  9  9  9  9  9  9  9  9  9  9
CENTRE ASSIGNMENTS    9  9  9  9  9  9  9  9  9  9  9  9  9  9  9  9  9  9  9  9
CENTRE ASSIGNMENTS    9  9  9 10 10 10 10 10 10 10 10 10 10 10 10 10 10 10 10 10
CENTRE ASSIGNMENTS   10 10 10 10 10 10 10 10 10 10 10 10 10 10 10 10 10 10 10 10
CENTRE ASSIGNMENTS   10 10 10 10 10 10 10 10 10 10 10 10 10 10 10 10 10 10 10 10
CENTRE ASSIGNMENTS   10 10 10 10 10 10 10 10 10 10 10 10 10 10 10 10 10 10
TYPE ASSIGNMENTS      1  1  1  1  1  1  2  3  4  2  3  4  2  3  4  5  6  7  8  9
TYPE ASSIGNMENTS     10  5  6  7  8  9 10  1  1  1  1  1  1  2  3  4  2  3  4  2
TYPE ASSIGNMENTS      3  4  5  6  7  8  9 10  5  6  7  8  9 10  1  1  1  1  1  1
TYPE ASSIGNMENTS      2  3  4  2  3  4  2  3  4  5  6  7  8  9 10  5  6  7  8  9
TYPE ASSIGNMENTS     10  1  1  1  1  1  1  2  3  4  2  3  4  2  3  4  5  6  7  8
TYPE ASSIGNMENTS      9 10  5  6  7  8  9 10  1  1  1  1  1  1  1  1  1  1  1  1
TYPE ASSIGNMENTS      1  1  1  1  1  1  1  2  2  2  3  3  3  4  4  4  2  3  4  2
TYPE ASSIGNMENTS      3  4  2  3  4  5  6  7  8  9 10  5  6  7  8  9 10  5  6  7
TYPE ASSIGNMENTS      8  9 10 11 12 13 17 14 15 18 19 16 20 11 12 13 17 14 15 18
TYPE ASSIGNMENTS     19 16 20  1  1  1  1  1  1  1  1  1  1  1  1  1  1  1  1  1
TYPE ASSIGNMENTS      1  1  2  2  2  3  3  3  4  4  4  2  3  4  2  3  4  2  3  4
TYPE ASSIGNMENTS      5  6  7  8  9 10  5  6  7  8  9 10  5  6  7  8  9 10 11 12
TYPE ASSIGNMENTS     13 17 14 15 18 19 16 20 11 12 13 17 14 15 18 19 16 20  1  1
TYPE ASSIGNMENTS      1  1  1  1  1  1  1  1  1  1  1  1  1  1  1  1  1  2  2  2
TYPE ASSIGNMENTS      3  3  3  4  4  4  2  3  4  2  3  4  2  3  4  5  6  7  8  9
TYPE ASSIGNMENTS     10  5  6  7  8  9 10  5  6  7  8  9 10 11 12 13 17 14 15 18
TYPE ASSIGNMENTS     19 16 20 11 12 13 17 14 15 18 19 16 20  1  1  1  1  1  1  1
TYPE ASSIGNMENTS      1  1  1  1  1  1  1  1  1  1  1  1  2  2  2  3  3  3  4  4
TYPE ASSIGNMENTS      4  2  3  4  2  3  4  2  3  4  5  6  7  8  9 10  5  6  7  8
TYPE ASSIGNMENTS      9 10  5  6  7  8  9 10 11 12 13 17 14 15 18 19 16 20 11 12
TYPE ASSIGNMENTS     13 17 14 15 18 19 16 20  1  1  1  1  1  1  1  1  1  1  1  1
TYPE ASSIGNMENTS      1  1  1  1  1  1  1  2  2  2  3  3  3  4  4  4  2  3  4  2
TYPE ASSIGNMENTS      3  4  2  3  4  5  6  7  8  9 10  5  6  7  8  9 10  5  6  7
TYPE ASSIGNMENTS      8  9 10 11 12 13 17 14 15 18 19 16 20 11 12 13 17 14 15 18
TYPE ASSIGNMENTS     19 16 20  1  1  1  1  1  1  1  1  1  1  1  1  1  1  1  1  1
TYPE ASSIGNMENTS      1  1  2  2  2  3  3  3  4  4  4  2  3  4  2  3  4  2  3  4
TYPE ASSIGNMENTS      5  6  7  8  9 10  5  6  7  8  9 10  5  6  7  8  9 10 11 12
TYPE ASSIGNMENTS     13 17 14 15 18 19 16 20 11 12 13 17 14 15 18 19 16 20
EXPONENTS  0.3387000D+02 0.5095000D+01 0.1159000D+01 0.3258000D+00 0.1027000D+00
EXPONENTS  0.2526000D-01 0.1407000D+01 0.1407000D+01 0.1407000D+01 0.3880000D+00
EXPONENTS  0.3880000D+00 0.3880000D+00 0.1020000D+00 0.1020000D+00 0.1020000D+00
EXPONENTS  0.1057000D+01 0.1057000D+01 0.1057000D+01 0.1057000D+01 0.1057000D+01
EXPONENTS  0.1057000D+01 0.2470000D+00 0.2470000D+00 0.2470000D+00 0.2470000D+00
EXPONENTS  0.2470000D+00 0.2470000D+00 0.3387000D+02 0.5095000D+01 0.1159000D+01
EXPONENTS  0.3258000D+00 0.1027000D+00 0.2526000D-01 0.1407000D+01 0.1407000D+01
EXPONENTS  0.1407000D+01 0.3880000D+00 0.3880000D+00 0.3880000D+00 0.1020000D+00
EXPONENTS  0.1020000D+00 0.1020000D+00 0.1057000D+01 0.1057000D+01 0.1057000D+01
EXPONENTS  0.1057000D+01 0.1057000D+01 0.1057000D+01 0.2470000D+00 0.2470000D+00
EXPONENTS  0.2470000D+00 0.2470000D+00 0.2470000D+00 0.2470000D+00 0.3387000D+02
EXPONENTS  0.5095000D+01 0.1159000D+01 0.3258000D+00 0.1027000D+00 0.2526000D-01
EXPONENTS  0.1407000D+01 0.1407000D+01 0.1407000D+01 0.3880000D+00 0.3880000D+00
EXPONENTS  0.3880000D+00 0.1020000D+00 0.1020000D+00 0.1020000D+00 0.1057000D+01
EXPONENTS  0.1057000D+01 0.1057000D+01 0.1057000D+01 0.1057000D+01 0.1057000D+01
EXPONENTS  0.2470000D+00 0.2470000D+00 0.2470000D+00 0.2470000D+00 0.2470000D+00
EXPONENTS  0.2470000D+00 0.3387000D+02 0.5095000D+01 0.1159000D+01 0.3258000D+00
EXPONENTS  0.1027000D+00 0.2526000D-01 0.1407000D+01 0.1407000D+01 0.1407000D+01
EXPONENTS  0.3880000D+00 0.3880000D+00 0.3880000D+00 0.1020000D+00 0.1020000D+00
EXPONENTS  0.1020000D+00 0.1057000D+01 0.1057000D+01 0.1057000D+01 0.1057000D+01
EXPONENTS  0.1057000D+01 0.1057000D+01 0.2470000D+00 0.2470000D+00 0.2470000D+00
EXPONENTS  0.2470000D+00 0.2470000D+00 0.2470000D+00 0.8236000D+04 0.1235000D+04
EXPONENTS  0.2808000D+03 0.7927000D+02 0.2559000D+02 0.8997000D+01 0.3319000D+01
EXPONENTS  0.3643000D+00 0.8236000D+04 0.1235000D+04 0.2808000D+03 0.7927000D+02
EXPONENTS  0.2559000D+02 0.8997000D+01 0.3319000D+01 0.3643000D+00 0.9059000D+00
EXPONENTS  0.1285000D+00 0.4402000D-01 0.1871000D+02 0.4133000D+01 0.1200000D+01
EXPONENTS  0.1871000D+02 0.4133000D+01 0.1200000D+01 0.1871000D+02 0.4133000D+01
EXPONENTS  0.1200000D+01 0.3827000D+00 0.3827000D+00 0.3827000D+00 0.1209000D+00
EXPONENTS  0.1209000D+00 0.1209000D+00 0.3569000D-01 0.3569000D-01 0.3569000D-01
EXPONENTS  0.1097000D+01 0.1097000D+01 0.1097000D+01 0.1097000D+01 0.1097000D+01
EXPONENTS  0.1097000D+01 0.3180000D+00 0.3180000D+00 0.3180000D+00 0.3180000D+00
EXPONENTS  0.3180000D+00 0.3180000D+00 0.1000000D+00 0.1000000D+00 0.1000000D+00
EXPONENTS  0.1000000D+00 0.1000000D+00 0.1000000D+00 0.7610000D+00 0.7610000D+00
EXPONENTS  0.7610000D+00 0.7610000D+00 0.7610000D+00 0.7610000D+00 0.7610000D+00
EXPONENTS  0.7610000D+00 0.7610000D+00 0.7610000D+00 0.2680000D+00 0.2680000D+00
EXPONENTS  0.2680000D+00 0.2680000D+00 0.2680000D+00 0.2680000D+00 0.2680000D+00
EXPONENTS  0.2680000D+00 0.2680000D+00 0.2680000D+00 0.8236000D+04 0.1235000D+04
EXPONENTS  0.2808000D+03 0.7927000D+02 0.2559000D+02 0.8997000D+01 0.3319000D+01
EXPONENTS  0.3643000D+00 0.8236000D+04 0.1235000D+04 0.2808000D+03 0.7927000D+02
EXPONENTS  0.2559000D+02 0.8997000D+01 0.3319000D+01 0.3643000D+00 0.9059000D+00
EXPONENTS  0.1285000D+00 0.4402000D-01 0.1871000D+02 0.4133000D+01 0.1200000D+01
EXPONENTS  0.1871000D+02 0.4133000D+01 0.1200000D+01 0.1871000D+02 0.4133000D+01
EXPONENTS  0.1200000D+01 0.3827000D+00 0.3827000D+00 0.3827000D+00 0.1209000D+00
EXPONENTS  0.1209000D+00 0.1209000D+00 0.3569000D-01 0.3569000D-01 0.3569000D-01
EXPONENTS  0.1097000D+01 0.1097000D+01 0.1097000D+01 0.1097000D+01 0.1097000D+01
EXPONENTS  0.1097000D+01 0.3180000D+00 0.3180000D+00 0.3180000D+00 0.3180000D+00
EXPONENTS  0.3180000D+00 0.3180000D+00 0.1000000D+00 0.1000000D+00 0.1000000D+00
EXPONENTS  0.1000000D+00 0.1000000D+00 0.1000000D+00 0.7610000D+00 0.7610000D+00
EXPONENTS  0.7610000D+00 0.7610000D+00 0.7610000D+00 0.7610000D+00 0.7610000D+00
EXPONENTS  0.7610000D+00 0.7610000D+00 0.7610000D+00 0.2680000D+00 0.2680000D+00
EXPONENTS  0.2680000D+00 0.2680000D+00 0.2680000D+00 0.2680000D+00 0.2680000D+00
EXPONENTS  0.2680000D+00 0.2680000D+00 0.2680000D+00 0.8236000D+04 0.1235000D+04
EXPONENTS  0.2808000D+03 0.7927000D+02 0.2559000D+02 0.8997000D+01 0.3319000D+01
EXPONENTS  0.3643000D+00 0.8236000D+04 0.1235000D+04 0.2808000D+03 0.7927000D+02
EXPONENTS  0.2559000D+02 0.8997000D+01 0.3319000D+01 0.3643000D+00 0.9059000D+00
EXPONENTS  0.1285000D+00 0.4402000D-01 0.1871000D+02 0.4133000D+01 0.1200000D+01
EXPONENTS  0.1871000D+02 0.4133000D+01 0.1200000D+01 0.1871000D+02 0.4133000D+01
EXPONENTS  0.1200000D+01 0.3827000D+00 0.3827000D+00 0.3827000D+00 0.1209000D+00
EXPONENTS  0.1209000D+00 0.1209000D+00 0.3569000D-01 0.3569000D-01 0.3569000D-01
EXPONENTS  0.1097000D+01 0.1097000D+01 0.1097000D+01 0.1097000D+01 0.1097000D+01
EXPONENTS  0.1097000D+01 0.3180000D+00 0.3180000D+00 0.3180000D+00 0.3180000D+00
EXPONENTS  0.3180000D+00 0.3180000D+00 0.1000000D+00 0.1000000D+00 0.1000000D+00
EXPONENTS  0.1000000D+00 0.1000000D+00 0.1000000D+00 0.7610000D+00 0.7610000D+00
EXPONENTS  0.7610000D+00 0.7610000D+00 0.7610000D+00 0.7610000D+00 0.7610000D+00
EXPONENTS  0.7610000D+00 0.7610000D+00 0.7610000D+00 0.2680000D+00 0.2680000D+00
EXPONENTS  0.2680000D+00 0.2680000D+00 0.2680000D+00 0.2680000D+00 0.2680000D+00
EXPONENTS  0.2680000D+00 0.2680000D+00 0.2680000D+00 0.8236000D+04 0.1235000D+04
EXPONENTS  0.2808000D+03 0.7927000D+02 0.2559000D+02 0.8997000D+01 0.3319000D+01
EXPONENTS  0.3643000D+00 0.8236000D+04 0.1235000D+04 0.2808000D+03 0.7927000D+02
EXPONENTS  0.2559000D+02 0.8997000D+01 0.3319000D+01 0.3643000D+00 0.9059000D+00
EXPONENTS  0.1285000D+00 0.4402000D-01 0.1871000D+02 0.4133000D+01 0.1200000D+01
EXPONENTS  0.1871000D+02 0.4133000D+01 0.1200000D+01 0.1871000D+02 0.4133000D+01
EXPONENTS  0.1200000D+01 0.3827000D+00 0.3827000D+00 0.3827000D+00 0.1209000D+00
EXPONENTS  0.1209000D+00 0.1209000D+00 0.3569000D-01 0.3569000D-01 0.3569000D-01
EXPONENTS  0.1097000D+01 0.1097000D+01 0.1097000D+01 0.1097000D+01 0.1097000D+01
EXPONENTS  0.1097000D+01 0.3180000D+00 0.3180000D+00 0.3180000D+00 0.3180000D+00
EXPONENTS  0.3180000D+00 0.3180000D+00 0.1000000D+00 0.1000000D+00 0.1000000D+00
EXPONENTS  0.1000000D+00 0.1000000D+00 0.1000000D+00 0.7610000D+00 0.7610000D+00
EXPONENTS  0.7610000D+00 0.7610000D+00 0.7610000D+00 0.7610000D+00 0.7610000D+00
EXPONENTS  0.7610000D+00 0.7610000D+00 0.7610000D+00 0.2680000D+00 0.2680000D+00
EXPONENTS  0.2680000D+00 0.2680000D+00 0.2680000D+00 0.2680000D+00 0.2680000D+00
EXPONENTS  0.2680000D+00 0.2680000D+00 0.2680000D+00 0.1142000D+05 0.1712000D+04
EXPONENTS  0.3893000D+03 0.1100000D+03 0.3557000D+02 0.1254000D+02 0.4644000D+01
EXPONENTS  0.5118000D+00 0.1142000D+05 0.1712000D+04 0.3893000D+03 0.1100000D+03
EXPONENTS  0.3557000D+02 0.1254000D+02 0.4644000D+01 0.5118000D+00 0.1293000D+01
EXPONENTS  0.1787000D+00 0.5760000D-01 0.2663000D+02 0.5948000D+01 0.1742000D+01
EXPONENTS  0.2663000D+02 0.5948000D+01 0.1742000D+01 0.2663000D+02 0.5948000D+01
EXPONENTS  0.1742000D+01 0.5550000D+00 0.5550000D+00 0.5550000D+00 0.1725000D+00
EXPONENTS  0.1725000D+00 0.1725000D+00 0.4910000D-01 0.4910000D-01 0.4910000D-01
EXPONENTS  0.1654000D+01 0.1654000D+01 0.1654000D+01 0.1654000D+01 0.1654000D+01
EXPONENTS  0.1654000D+01 0.4690000D+00 0.4690000D+00 0.4690000D+00 0.4690000D+00
EXPONENTS  0.4690000D+00 0.4690000D+00 0.1510000D+00 0.1510000D+00 0.1510000D+00
EXPONENTS  0.1510000D+00 0.1510000D+00 0.1510000D+00 0.1093000D+01 0.1093000D+01
EXPONENTS  0.1093000D+01 0.1093000D+01 0.1093000D+01 0.1093000D+01 0.1093000D+01
EXPONENTS  0.1093000D+01 0.1093000D+01 0.1093000D+01 0.3640000D+00 0.3640000D+00
EXPONENTS  0.3640000D+00 0.3640000D+00 0.3640000D+00 0.3640000D+00 0.3640000D+00
EXPONENTS  0.3640000D+00 0.3640000D+00 0.3640000D+00 0.1142000D+05 0.1712000D+04
EXPONENTS  0.3893000D+03 0.1100000D+03 0.3557000D+02 0.1254000D+02 0.4644000D+01
EXPONENTS  0.5118000D+00 0.1142000D+05 0.1712000D+04 0.3893000D+03 0.1100000D+03
EXPONENTS  0.3557000D+02 0.1254000D+02 0.4644000D+01 0.5118000D+00 0.1293000D+01
EXPONENTS  0.1787000D+00 0.5760000D-01 0.2663000D+02 0.5948000D+01 0.1742000D+01
EXPONENTS  0.2663000D+02 0.5948000D+01 0.1742000D+01 0.2663000D+02 0.5948000D+01
EXPONENTS  0.1742000D+01 0.5550000D+00 0.5550000D+00 0.5550000D+00 0.1725000D+00
EXPONENTS  0.1725000D+00 0.1725000D+00 0.4910000D-01 0.4910000D-01 0.4910000D-01
EXPONENTS  0.1654000D+01 0.1654000D+01 0.1654000D+01 0.1654000D+01 0.1654000D+01
EXPONENTS  0.1654000D+01 0.4690000D+00 0.4690000D+00 0.4690000D+00 0.4690000D+00
EXPONENTS  0.4690000D+00 0.4690000D+00 0.1510000D+00 0.1510000D+00 0.1510000D+00
EXPONENTS  0.1510000D+00 0.1510000D+00 0.1510000D+00 0.1093000D+01 0.1093000D+01
EXPONENTS  0.1093000D+01 0.1093000D+01 0.1093000D+01 0.1093000D+01 0.1093000D+01
EXPONENTS  0.1093000D+01 0.1093000D+01 0.1093000D+01 0.3640000D+00 0.3640000D+00
EXPONENTS  0.3640000D+00 0.3640000D+00 0.3640000D+00 0.3640000D+00 0.3640000D+00
EXPONENTS  0.3640000D+00 0.3640000D+00 0.3640000D+00
MO    1     MO 0.0        OCC NO =    2.0000000  ORB. ENERGY =  -14.197996
 -0.67110587D-04 -0.12103671D-03 -0.17846855D-03  0.99614458D-03  0.68442047D-03
  0.51822862D-04 -0.61723364D-16  0.12990963D-03  0.34020420D-03  0.85004950D-16
 -0.10233132D-02 -0.13715033D-02 -0.10002522D-16 -0.13350673D-03  0.15808201D-03
 -0.29912195D-03  0.18363989D-03  0.11548205D-03 -0.90077995D-16  0.31676434D-16
  0.16325702D-03 -0.99020801D-04  0.83484535D-04  0.15536266D-04 -0.70055975D-17
 -0.91118531D-17  0.14169185D-03 -0.67110587D-04 -0.12103671D-03 -0.17846855D-03
  0.99614458D-03  0.68442047D-03  0.51822862D-04  0.15198681D-17 -0.12990963D-03
  0.34020420D-03 -0.31641047D-17  0.10233132D-02 -0.13715033D-02  0.23209564D-17
  0.13350673D-03  0.15808201D-03 -0.29912195D-03  0.18363989D-03  0.11548205D-03
 -0.18686778D-17  0.17117091D-17 -0.16325702D-03 -0.99020801D-04  0.83484535D-04
  0.15536266D-04  0.16891859D-18 -0.53805795D-19 -0.14169185D-03  0.67110589D-04
  0.12103671D-03  0.17846856D-03 -0.99614451D-03 -0.68442039D-03 -0.51822861D-04
  0.10850077D-17 -0.12990965D-03  0.34020421D-03 -0.18391886D-17  0.10233133D-02
 -0.13715033D-02  0.21701189D-17  0.13350672D-03  0.15808203D-03  0.29912195D-03
 -0.18363991D-03 -0.11548204D-03  0.85580919D-18 -0.12123362D-17  0.16325699D-03
  0.99020804D-04 -0.83484541D-04 -0.15536263D-04 -0.45258952D-18  0.19906205D-18
  0.14169185D-03  0.67110589D-04  0.12103671D-03  0.17846856D-03 -0.99614451D-03
 -0.68442039D-03 -0.51822861D-04  0.87218004D-19  0.12990965D-03  0.34020421D-03
  0.35723470D-19 -0.10233133D-02 -0.13715033D-02 -0.23564514D-17 -0.13350672D-03
  0.15808203D-03  0.29912195D-03 -0.18363991D-03 -0.11548204D-03  0.52149435D-18
 -0.54576576D-18 -0.16325699D-03  0.99020804D-04 -0.83484541D-04 -0.15536263D-04
 -0.57836125D-18  0.35360453D-18 -0.14169185D-03 -0.89367980D-04 -0.16660223D-03
 -0.28158713D-03 -0.42331769D-03 -0.52009469D-03 -0.43930311D-03 -0.16568897D-03
  0.82000395D-06  0.71504937D-04  0.13387980D-03  0.22794182D-03  0.35259133D-03
  0.46435038D-03  0.48248979D-03  0.30660060D-03 -0.20547659D-03 -0.39796715D-03
 -0.97375953D-03  0.22171441D-02  0.30258529D-17  0.28369294D-17  0.20200628D-17
  0.23750264D-03  0.22267382D-03  0.15855702D-03 -0.88023803D-04 -0.82527911D-04
 -0.58764789D-04 -0.76244640D-17  0.36882811D-03 -0.24615896D-02 -0.96469055D-17
  0.12274805D-02  0.72922217D-03  0.21791255D-18 -0.46750316D-04 -0.10312697D-03
  0.28179048D-04 -0.26808232D-03  0.23990327D-03  0.90810046D-17  0.29443222D-17
  0.84977018D-03 -0.40890477D-04 -0.80429706D-03  0.84518754D-03 -0.14857436D-16
 -0.54502212D-17 -0.29850937D-02 -0.56426882D-05  0.48725419D-04 -0.43082731D-04
  0.70242429D-18  0.84787538D-18 -0.63390942D-03 -0.32400369D-17 -0.90778709D-04
 -0.22671778D-03  0.87503313D-17  0.27889626D-03 -0.10820973D-03  0.96977931D-18
 -0.65601329D-05  0.78836306D-03 -0.49059959D-17  0.14010005D-17 -0.16740355D-03
 -0.23744967D-03 -0.47983673D-17  0.68019399D-04 -0.23059006D-03  0.59536574D-18
  0.43419126D-03  0.94293908D-03 -0.53872882D-17 -0.89367980D-04 -0.16660223D-03
 -0.28158713D-03 -0.42331769D-03 -0.52009469D-03 -0.43930311D-03 -0.16568897D-03
  0.82000395D-06  0.71504937D-04  0.13387980D-03  0.22794182D-03  0.35259133D-03
  0.46435038D-03  0.48248979D-03  0.30660060D-03 -0.20547659D-03 -0.39796715D-03
 -0.97375953D-03  0.22171441D-02  0.72274338D-18  0.67761786D-18  0.48250428D-18
 -0.23750264D-03 -0.22267382D-03 -0.15855702D-03 -0.88023803D-04 -0.82527911D-04
 -0.58764789D-04 -0.26391089D-18 -0.36882811D-03 -0.24615896D-02  0.38391756D-17
 -0.12274805D-02  0.72922217D-03  0.18009650D-18  0.46750316D-04 -0.10312697D-03
  0.28179048D-04 -0.26808232D-03  0.23990327D-03 -0.14528128D-17  0.12071150D-17
 -0.84977018D-03 -0.40890477D-04 -0.80429706D-03  0.84518754D-03  0.43859537D-18
  0.73133183D-18  0.29850937D-02 -0.56426882D-05  0.48725419D-04 -0.43082731D-04
  0.20400180D-17 -0.14269233D-17  0.63390942D-03  0.39057082D-18  0.90778709D-04
 -0.22671778D-03  0.62959647D-18 -0.27889626D-03 -0.10820973D-03 -0.18013089D-17
  0.65601328D-05  0.78836306D-03  0.14082363D-17 -0.57846332D-18  0.16740355D-03
 -0.23744967D-03  0.14576951D-17 -0.68019399D-04 -0.23059006D-03  0.27769487D-18
 -0.43419126D-03  0.94293908D-03 -0.11489752D-17  0.89368003D-04  0.16660228D-03
  0.28158720D-03  0.42331779D-03  0.52009482D-03  0.43930322D-03  0.16568901D-03
 -0.82000416D-06 -0.71504954D-04 -0.13387983D-03 -0.22794187D-03 -0.35259142D-03
 -0.46435050D-03 -0.48248991D-03 -0.30660068D-03  0.20547664D-03  0.39796722D-03
  0.97375935D-03 -0.22171441D-02  0.14753159D-17  0.13832025D-17  0.98492257D-18
 -0.23750267D-03 -0.22267385D-03 -0.15855704D-03 -0.88023821D-04 -0.82527927D-04
 -0.58764800D-04  0.72261379D-18 -0.36882815D-03 -0.24615896D-02  0.56702504D-17
 -0.12274806D-02  0.72922223D-03 -0.11788307D-18  0.46750316D-04 -0.10312697D-03
 -0.28179057D-04  0.26808232D-03 -0.23990326D-03  0.17953192D-17  0.66966871D-18
  0.84977018D-03  0.40890508D-04  0.80429703D-03 -0.84518754D-03 -0.34868658D-17
 -0.19576205D-17 -0.29850938D-02  0.56426883D-05 -0.48725424D-04  0.43082735D-04
 -0.19683201D-17  0.11116079D-17 -0.63390942D-03 -0.50284382D-18  0.90778709D-04
 -0.22671779D-03  0.81054572D-18 -0.27889629D-03 -0.10820974D-03  0.69798574D-18
  0.65601619D-05  0.78836312D-03  0.27848468D-17 -0.21536701D-18  0.16740354D-03
 -0.23744968D-03  0.14338169D-17 -0.68019401D-04 -0.23059007D-03 -0.78771583D-18
 -0.43419123D-03  0.94293911D-03 -0.17715744D-17  0.89368003D-04  0.16660228D-03
  0.28158720D-03  0.42331779D-03  0.52009482D-03  0.43930322D-03  0.16568901D-03
 -0.82000416D-06 -0.71504954D-04 -0.13387983D-03 -0.22794187D-03 -0.35259142D-03
 -0.46435050D-03 -0.48248991D-03 -0.30660068D-03  0.20547664D-03  0.39796722D-03
  0.97375935D-03 -0.22171441D-02 -0.94168115D-18 -0.88288594D-18 -0.62866738D-18
  0.23750267D-03  0.22267385D-03  0.15855704D-03 -0.88023821D-04 -0.82527927D-04
 -0.58764800D-04  0.70933311D-18  0.36882815D-03 -0.24615896D-02 -0.55070872D-17
  0.12274806D-02  0.72922223D-03 -0.27648466D-18 -0.46750316D-04 -0.10312697D-03
 -0.28179057D-04  0.26808232D-03 -0.23990326D-03 -0.65088294D-19 -0.62013729D-18
 -0.84977018D-03  0.40890508D-04  0.80429703D-03 -0.84518754D-03 -0.15960642D-17
  0.11497497D-17  0.29850938D-02  0.56426883D-05 -0.48725424D-04  0.43082735D-04
 -0.22885580D-17 -0.10565888D-17  0.63390942D-03 -0.15898075D-18 -0.90778709D-04
 -0.22671779D-03 -0.18762431D-18  0.27889629D-03 -0.10820974D-03  0.66456657D-18
 -0.65601619D-05  0.78836312D-03 -0.10086101D-17  0.23724419D-18 -0.16740354D-03
 -0.23744968D-03 -0.75500102D-18  0.68019401D-04 -0.23059007D-03  0.43268436D-19
  0.43419123D-03  0.94293911D-03  0.89669568D-18 -0.29246291D+00 -0.54496157D+00
 -0.92166663D+00 -0.13879789D+01 -0.17184079D+01 -0.14622876D+01 -0.55642739D+00
  0.26059869D-02  0.14717512D-02  0.27595473D-02  0.46948111D-02  0.72905459D-02
  0.96749785D-02  0.10196099D-01  0.63222320D-02 -0.42055511D-02 -0.28770485D-01
 -0.14887254D-02 -0.27131800D-02  0.25143347D-16  0.24149884D-16  0.16935566D-16
 -0.14110049D-13 -0.13552534D-13 -0.95039721D-14  0.50316790D-02  0.48328675D-02
  0.33891403D-02 -0.63163720D-17  0.11547532D-13  0.43078422D-03 -0.12936627D-17
  0.38859438D-12 -0.11625401D-02 -0.13869110D-18 -0.56976185D-13  0.17518149D-03
  0.20473121D-02 -0.11175291D-02 -0.92978307D-03  0.14642444D-17  0.67903338D-18
  0.16226168D-13 -0.80443310D-03 -0.27499061D-04  0.83193216D-03 -0.28015350D-17
  0.16163986D-17  0.87158587D-14 -0.17973312D-03  0.13112955D-03  0.48603576D-04
 -0.80061516D-18 -0.13844493D-18 -0.59287392D-13 -0.10976765D-18  0.12833937D-15
 -0.13262606D-03  0.67783091D-18  0.77444338D-14  0.11546161D-03 -0.34852795D-18
 -0.81294519D-14  0.28241657D-03  0.39007376D-18  0.19475027D-18  0.58740067D-14
 -0.45219134D-04 -0.97163890D-18 -0.89588686D-14  0.31823539D-03  0.38738809D-18
 -0.86631516D-14 -0.18257799D-03  0.49512397D-19  0.29246293D+00  0.54496161D+00
  0.92166670D+00  0.13879790D+01  0.17184080D+01  0.14622877D+01  0.55642743D+00
 -0.26059870D-02 -0.14717513D-02 -0.27595475D-02 -0.46948113D-02 -0.72905463D-02
 -0.96749790D-02 -0.10196100D-01 -0.63222323D-02  0.42055514D-02  0.28770487D-01
  0.14887256D-02  0.27131800D-02 -0.11309509D-16 -0.10862648D-16 -0.76176389D-17
  0.15178220D-13  0.14578499D-13  0.10223450D-13  0.50316793D-02  0.48328678D-02
  0.33891405D-02  0.22315625D-17 -0.18854125D-13  0.43078423D-03 -0.45057876D-18
 -0.23616622D-12 -0.11625401D-02  0.26467974D-18  0.14719299D-13  0.17518149D-03
 -0.20473123D-02  0.11175292D-02  0.92978311D-03  0.16285173D-17  0.50786012D-17
  0.38537545D-14  0.80443311D-03  0.27499082D-04 -0.83193220D-03 -0.28916589D-17
 -0.22451588D-17  0.25621127D-13  0.17973313D-03 -0.13112955D-03 -0.48603586D-04
 -0.17546506D-17 -0.56527379D-18 -0.18099432D-13 -0.33442121D-18 -0.30377802D-14
 -0.13262607D-03  0.31801624D-18 -0.19969492D-14  0.11546157D-03  0.68524738D-18
  0.11110290D-13  0.28241663D-03  0.33141739D-17  0.27007992D-18 -0.27874036D-14
 -0.45219133D-04  0.11792750D-18 -0.73129103D-15  0.31823541D-03 -0.92816725D-18
  0.90935019D-14 -0.18257801D-03 -0.24524152D-17
MO    2     MO 0.0        OCC NO =    2.0000000  ORB. ENERGY =  -14.197983
  0.29526713D-04  0.53252642D-04  0.78520990D-04  0.10684871D-02  0.11491645D-02
  0.12789440D-04  0.93460229D-16 -0.25621557D-03 -0.11290188D-03 -0.60627724D-16
  0.29035933D-03 -0.83942534D-03  0.23170950D-16 -0.10538014D-03 -0.19668071D-03
  0.48852136D-04 -0.30760617D-03  0.25875403D-03 -0.25438505D-15 -0.23528262D-15
  0.49221313D-03  0.39265676D-04 -0.77399241D-04  0.38133566D-04 -0.44304654D-17
  0.16658163D-16  0.77653860D-04  0.29526713D-04  0.53252642D-04  0.78520990D-04
  0.10684871D-02  0.11491645D-02  0.12789440D-04  0.15486684D-17  0.25621557D-03
 -0.11290188D-03  0.25099670D-18 -0.29035933D-03 -0.83942534D-03  0.45968386D-18
  0.10538014D-03 -0.19668071D-03  0.48852136D-04 -0.30760617D-03  0.25875403D-03
 -0.73111389D-18 -0.61624481D-19 -0.49221313D-03  0.39265676D-04 -0.77399241D-04
  0.38133566D-04  0.22691445D-18 -0.13262179D-18 -0.77653860D-04  0.29526708D-04
  0.53252634D-04  0.78520978D-04  0.10684871D-02  0.11491645D-02  0.12789444D-04
  0.29688812D-17 -0.25621556D-03  0.11290185D-03 -0.35800588D-17  0.29035926D-03
  0.83942543D-03 -0.17130573D-18 -0.10538015D-03  0.19668070D-03  0.48852114D-04
 -0.30760616D-03  0.25875404D-03  0.24123617D-18  0.12445638D-17 -0.49221314D-03
  0.39265669D-04 -0.77399236D-04  0.38133567D-04  0.33483673D-18 -0.35080507D-18
 -0.77653870D-04  0.29526708D-04  0.53252634D-04  0.78520978D-04  0.10684871D-02
  0.11491645D-02  0.12789444D-04  0.14480044D-19  0.25621556D-03  0.11290185D-03
 -0.15749364D-18 -0.29035926D-03  0.83942543D-03 -0.76204125D-18  0.10538015D-03
  0.19668070D-03  0.48852115D-04 -0.30760616D-03  0.25875404D-03 -0.13504233D-18
 -0.42238957D-18  0.49221314D-03  0.39265669D-04 -0.77399236D-04  0.38133567D-04
 -0.40491429D-20  0.15651004D-19  0.77653870D-04  0.32325288D-03  0.60261686D-03
  0.10185287D-02  0.15311822D-02  0.18812342D-02  0.15890031D-02  0.59931349D-03
 -0.29660359D-05 -0.24549957D-03 -0.45965266D-03 -0.78259799D-03 -0.12105601D-02
 -0.15942651D-02 -0.16565435D-02 -0.10526590D-02  0.70546761D-03  0.91291374D-03
 -0.26642705D-02 -0.70029064D-04 -0.44288968D-18 -0.41523722D-18 -0.29567364D-18
 -0.40919633D-03 -0.38364757D-03 -0.27317992D-03  0.24788595D-03  0.23240884D-03
  0.16548894D-03  0.32202737D-18 -0.55889786D-03 -0.24546051D-03 -0.43583900D-17
 -0.15240531D-03 -0.87656017D-03  0.31242182D-19 -0.49741530D-05 -0.67164183D-05
 -0.12792263D-03 -0.51437328D-04  0.17935996D-03  0.60191651D-17  0.67779237D-17
 -0.10566473D-05  0.43926164D-03 -0.46995258D-03  0.30690937D-04 -0.16288699D-17
 -0.20253764D-17  0.79300386D-03  0.97700262D-06 -0.64471562D-04  0.63494560D-04
 -0.16208808D-17 -0.51056249D-18  0.80395975D-04 -0.34384917D-17 -0.12405281D-06
  0.23554829D-03  0.90004973D-17 -0.41273828D-03  0.13246305D-03  0.13149777D-17
  0.41311044D-03 -0.83910792D-03  0.10558998D-16  0.32448949D-18 -0.13554593D-03
  0.78104884D-04 -0.14401192D-17 -0.25330571D-04  0.91049962D-04  0.46665073D-18
  0.43196837D-03 -0.32536462D-03 -0.27381066D-17  0.32325288D-03  0.60261686D-03
  0.10185287D-02  0.15311822D-02  0.18812342D-02  0.15890031D-02  0.59931349D-03
 -0.29660359D-05 -0.24549957D-03 -0.45965266D-03 -0.78259799D-03 -0.12105601D-02
 -0.15942651D-02 -0.16565435D-02 -0.10526590D-02  0.70546761D-03  0.91291374D-03
 -0.26642705D-02 -0.70029064D-04  0.16608342D-19  0.15571376D-19  0.11087748D-19
  0.40919633D-03  0.38364757D-03  0.27317992D-03  0.24788595D-03  0.23240884D-03
  0.16548894D-03  0.27565873D-18  0.55889786D-03 -0.24546051D-03 -0.63481720D-18
  0.15240531D-03 -0.87656017D-03 -0.11093169D-19  0.49741530D-05 -0.67164183D-05
 -0.12792263D-03 -0.51437328D-04  0.17935996D-03 -0.26796809D-19 -0.13803499D-18
  0.10566473D-05  0.43926164D-03 -0.46995258D-03  0.30690937D-04  0.75275339D-20
 -0.20526325D-19 -0.79300386D-03  0.97700261D-06 -0.64471562D-04  0.63494560D-04
  0.73758951D-19 -0.28166335D-18 -0.80395975D-04 -0.54204335D-19  0.12405281D-06
  0.23554829D-03  0.24612463D-18  0.41273828D-03  0.13246305D-03 -0.83511628D-19
 -0.41311044D-03 -0.83910792D-03 -0.34928505D-18  0.55174221D-19  0.13554593D-03
  0.78104884D-04 -0.20775210D-18  0.25330571D-04  0.91049962D-04  0.42229441D-19
 -0.43196837D-03 -0.32536462D-03 -0.24485855D-18  0.32325287D-03  0.60261685D-03
  0.10185286D-02  0.15311822D-02  0.18812342D-02  0.15890030D-02  0.59931348D-03
 -0.29660358D-05 -0.24549957D-03 -0.45965265D-03 -0.78259797D-03 -0.12105601D-02
 -0.15942650D-02 -0.16565435D-02 -0.10526590D-02  0.70546759D-03  0.91291371D-03
 -0.26642705D-02 -0.70028904D-04  0.19916781D-17  0.18673248D-17  0.13296465D-17
 -0.40919631D-03 -0.38364755D-03 -0.27317991D-03 -0.24788595D-03 -0.23240883D-03
 -0.16548893D-03 -0.10191315D-17 -0.55889784D-03  0.24546069D-03  0.25140170D-18
 -0.15240522D-03  0.87656012D-03  0.29649069D-19 -0.49741564D-05  0.67164258D-05
 -0.12792263D-03 -0.51437347D-04  0.17935998D-03  0.75004321D-18  0.53373599D-18
  0.10565875D-05  0.43926164D-03 -0.46995263D-03  0.30690997D-04  0.28365385D-18
 -0.11421782D-17 -0.79300365D-03  0.97700223D-06 -0.64471559D-04  0.63494557D-04
  0.32724310D-18  0.35256714D-18 -0.80395930D-04  0.25601891D-18 -0.12405920D-06
 -0.23554827D-03 -0.51750437D-18 -0.41273826D-03 -0.13246304D-03 -0.25055236D-18
  0.41311044D-03  0.83910786D-03  0.27919888D-17  0.11857980D-19 -0.13554595D-03
 -0.78104868D-04  0.68307849D-18 -0.25330566D-04 -0.91049946D-04 -0.71865243D-18
  0.43196840D-03  0.32536455D-03 -0.29891396D-17  0.32325287D-03  0.60261685D-03
  0.10185286D-02  0.15311822D-02  0.18812342D-02  0.15890030D-02  0.59931348D-03
 -0.29660358D-05 -0.24549957D-03 -0.45965265D-03 -0.78259797D-03 -0.12105601D-02
 -0.15942650D-02 -0.16565435D-02 -0.10526590D-02  0.70546759D-03  0.91291371D-03
 -0.26642705D-02 -0.70028904D-04  0.12512350D-18  0.11731123D-18  0.83532584D-19
  0.40919631D-03  0.38364755D-03  0.27317991D-03 -0.24788595D-03 -0.23240883D-03
 -0.16548893D-03 -0.32585240D-18  0.55889784D-03  0.24546069D-03 -0.56599845D-18
  0.15240522D-03  0.87656012D-03 -0.48878547D-19  0.49741564D-05  0.67164258D-05
 -0.12792263D-03 -0.51437347D-04  0.17935998D-03  0.72421045D-19 -0.52730530D-18
 -0.10565875D-05  0.43926164D-03 -0.46995263D-03  0.30690996D-04 -0.67280066D-18
  0.71000775D-18  0.79300365D-03  0.97700223D-06 -0.64471559D-04  0.63494557D-04
 -0.57111567D-18 -0.34326042D-18  0.80395930D-04 -0.49721650D-19  0.12405920D-06