 Molden2AIM, Version 4.0.0 (06/02/2016)           Time: Fri Jun 29 23:12:21 2018
GAUSSIAN              4 MOL ORBITALS    102 PRIMITIVES        2 NUCLEI
  N    1    (CENTRE  1)   0.00000000  0.00000000  2.83677371  CHARGE =  7.0
  H    2    (CENTRE  2)   0.00000000  0.00000000  0.87445943  CHARGE =  1.0
CENTRE ASSIGNMENTS    1  1  1  1  1  1  1  1  1  1  1  1  1  1  1  1  1  1  1  1
CENTRE ASSIGNMENTS    1  1  1  1  1  1  1  1  1  1  1  1  1  1  1  1  1  1  1  1
CENTRE ASSIGNMENTS    1  1  1  1  1  1  1  1  1  1  1  1  1  1  1  1  1  1  1  1
CENTRE ASSIGNMENTS    1  1  1  1  1  1  1  1  1  1  1  1  1  1  1  2  2  2  2  2
CENTRE ASSIGNMENTS    2  2  2  2  2  2  2  2  2  2  2  2  2  2  2  2  2  2  2  2
CENTRE ASSIGNMENTS    2  2
TYPE ASSIGNMENTS      1  1  1  1  1  1  1  1  1  1  1  1  1  1  1  1  1  1  1  2
TYPE ASSIGNMENTS      2  2  3  3  3  4  4  4  2  3  4  2  3  4  2  3  4  5  6  7
TYPE ASSIGNMENTS      8  9 10  5  6  7  8  9 10  5  6  7  8  9 10 11 12 13 17 14
TYPE ASSIGNMENTS     15 18 19 16 20 11 12 13 17 14 15 18 19 16 20  1  1  1  1  1
TYPE ASSIGNMENTS      1  2  3  4  2  3  4  2  3  4  5  6  7  8  9 10  5  6  7  8
TYPE ASSIGNMENTS      9 10
EXPONENTS  0.1142000D+05 0.1712000D+04 0.3893000D+03 0.1100000D+03 0.3557000D+02
EXPONENTS  0.1254000D+02 0.4644000D+01 0.5118000D+00 0.1142000D+05 0.1712000D+04
EXPONENTS  0.3893000D+03 0.1100000D+03 0.3557000D+02 0.1254000D+02 0.4644000D+01
EXPONENTS  0.5118000D+00 0.1293000D+01 0.1787000D+00 0.5760000D-01 0.2663000D+02
EXPONENTS  0.5948000D+01 0.1742000D+01 0.2663000D+02 0.5948000D+01 0.1742000D+01
EXPONENTS  0.2663000D+02 0.5948000D+01 0.1742000D+01 0.5550000D+00 0.5550000D+00
EXPONENTS  0.5550000D+00 0.1725000D+00 0.1725000D+00 0.1725000D+00 0.4910000D-01
EXPONENTS  0.4910000D-01 0.4910000D-01 0.1654000D+01 0.1654000D+01 0.1654000D+01
EXPONENTS  0.1654000D+01 0.1654000D+01 0.1654000D+01 0.4690000D+00 0.4690000D+00
EXPONENTS  0.4690000D+00 0.4690000D+00 0.4690000D+00 0.4690000D+00 0.1510000D+00
EXPONENTS  0.1510000D+00 0.1510000D+00 0.1510000D+00 0.1510000D+00 0.1510000D+00
EXPONENTS  0.1093000D+01 0.1093000D+01 0.1093000D+01 0.1093000D+01 0.1093000D+01
EXPONENTS  0.1093000D+01 0.1093000D+01 0.1093000D+01 0.1093000D+01 0.1093000D+01
EXPONENTS  0.3640000D+00 0.3640000D+00 0.3640000D+00 0.3640000D+00 0.3640000D+00
EXPONENTS  0.3640000D+00 0.3640000D+00 0.3640000D+00 0.3640000D+00 0.3640000D+00
EXPONENTS  0.3387000D+02 0.5095000D+01 0.1159000D+01 0.3258000D+00 0.1027000D+00
EXPONENTS  0.2526000D-01 0.1407000D+01 0.1407000D+01 0.1407000D+01 0.3880000D+00
EXPONENTS  0.3880000D+00 0.3880000D+00 0.1020000D+00 0.1020000D+00 0.1020000D+00
EXPONENTS  0.1057000D+01 0.1057000D+01 0.1057000D+01 0.1057000D+01 0.1057000D+01
EXPONENTS  0.1057000D+01 0.2470000D+00 0.2470000D+00 0.2470000D+00 0.2470000D+00
EXPONENTS  0.2470000D+00 0.2470000D+00
MO    1     MO 0.0        OCC NO =    2.0000000  ORB. ENERGY =  -14.250814
  0.41154388D+00  0.76685141D+00  0.12969380D+01  0.19531167D+01  0.24180852D+01
  0.20576814D+01  0.78298573D+00 -0.36670562D-02 -0.84197039D-03 -0.15787024D-02
 -0.26858424D-02 -0.41708297D-02 -0.55349336D-02 -0.58330602D-02 -0.36168695D-02
  0.24059430D-02  0.40985535D-01  0.18301620D-02  0.11181494D-03 -0.71666033D-16
 -0.68834368D-16 -0.48271410D-16  0.17080518D-15  0.16405633D-15  0.11504762D-15
 -0.40538572D-02 -0.38936814D-02 -0.27305182D-02  0.95890040D-17 -0.23299574D-16
 -0.30137737D-02  0.15858610D-18 -0.65777633D-18 -0.21130301D-03  0.48130467D-19
 -0.12620454D-18  0.13286706D-05 -0.63781604D-03 -0.29775082D-02  0.36153242D-02
  0.31356954D-02  0.12187403D-16 -0.38538549D-16 -0.29853933D-03 -0.20308177D-03
  0.50162110D-03 -0.12899163D-03 -0.38014325D-17  0.10010758D-16  0.29581477D-04
  0.26007724D-04 -0.55589201D-04  0.49641367D-05 -0.19508677D-18  0.53758950D-18
 -0.15694459D-17  0.43902232D-18 -0.12210685D-02  0.33611023D-17  0.19992787D-17
  0.16974708D-02  0.13472356D-17 -0.33163456D-17  0.19657346D-02 -0.30959963D-03
 -0.19892320D-18  0.57061652D-18  0.11898682D-03 -0.27841023D-18  0.55046815D-18
 -0.17313826D-03  0.87517984D-18 -0.22623177D-17 -0.18382220D-03  0.12223582D-04
  0.16354095D-03  0.29495284D-03  0.43490780D-03 -0.20588795D-02 -0.73083069D-03
 -0.13425512D-04  0.26548623D-18 -0.92061356D-18 -0.15410026D-02 -0.34341965D-17
  0.88995096D-17 -0.27295233D-02 -0.18681196D-18  0.55541271D-18 -0.26217753D-03
  0.16897614D-02  0.17025542D-02 -0.33923155D-02 -0.14992823D-04 -0.51709261D-17
  0.12437064D-16  0.14112977D-03  0.13648237D-03 -0.27761214D-03  0.57491693D-05
 -0.10250514D-17  0.27356585D-17
MO    2     MO 0.0        OCC NO =    2.0000000  ORB. ENERGY =   -0.769229
 -0.67811738D-02 -0.12635719D-01 -0.21370168D-01 -0.32182289D-01 -0.39843762D-01
 -0.33905243D-01 -0.12901570D-01  0.60423559D-04 -0.77499459D-01 -0.14531221D+00
 -0.24721931D+00 -0.38390548D+00 -0.50946490D+00 -0.53690607D+00 -0.33291601D+00
  0.22145586D+00  0.11946088D+00  0.59206698D-01  0.19327952D-02 -0.11763481D-14
 -0.11298683D-14 -0.79234165D-15  0.12227470D-14  0.11744339D-14  0.82359412D-15
 -0.26539014D+00 -0.25490406D+00 -0.17875632D+00 -0.36925784D-15  0.47080966D-15
 -0.66091324D-01 -0.42275476D-16  0.36403378D-16 -0.56359197D-02 -0.91314806D-18
  0.21409777D-18 -0.84945611D-04 -0.13577021D-01 -0.13239414D-01  0.26816435D-01
 -0.56791154D-03  0.93762679D-16 -0.21796237D-15 -0.41129697D-02 -0.11932105D-02
  0.53061801D-02 -0.38474611D-02  0.18497714D-16 -0.32830984D-16  0.22685890D-03
 -0.24021961D-03  0.13360707D-04  0.61571818D-03  0.57048236D-17 -0.28792374D-17
 -0.11738899D-16 -0.23019452D-16 -0.33393881D-02  0.92967116D-16  0.34313370D-17
  0.51839808D-02 -0.57750420D-16  0.65627020D-16  0.48341834D-02  0.40774163D-03
 -0.42269851D-18 -0.28284611D-17 -0.32236715D-03  0.66583077D-17  0.15932166D-17
  0.23491255D-03 -0.53902122D-17  0.68921666D-17  0.73218891D-03 -0.65671827D-03
  0.31233415D-01  0.56330751D-01  0.83059659D-01  0.39464648D-01 -0.15283222D-02
 -0.14917535D-03 -0.29057142D-16  0.95925108D-17  0.32585135D-01  0.98741055D-17
  0.18480699D-16  0.46092055D-02  0.47888564D-17  0.69939478D-18 -0.91294176D-03
 -0.47030135D-02 -0.22950966D-02  0.69981101D-02 -0.31728167D-02  0.31691159D-17
  0.14353836D-16  0.31935233D-05  0.60229561D-04 -0.63423084D-04 -0.79446246D-04
  0.26273592D-17 -0.14926974D-17
MO    3     MO 0.0        OCC NO =    2.0000000  ORB. ENERGY =   -0.363604
  0.97975575D-03  0.18256306D-02  0.30875990D-02  0.46497530D-02  0.57566958D-02
  0.48986884D-02  0.18640413D-02 -0.87301006D-05 -0.37568915D-01 -0.70442066D-01
 -0.11984291D+00 -0.18610339D+00 -0.24697002D+00 -0.26027250D+00 -0.16138556D+00
  0.10735373D+00  0.58108781D-01  0.57932251D-01  0.43476057D-02  0.30976492D-14
  0.29752550D-14  0.20864542D-14  0.42255052D-14  0.40585472D-14  0.28461335D-14
  0.97236102D+00  0.93394114D+00  0.65494399D+00  0.73170844D-15  0.11469985D-14
  0.22939932D+00  0.18818433D-15  0.10811845D-15  0.28046989D-01  0.55033492D-17
 -0.75868368D-17  0.31796930D-03  0.20752329D-01  0.24001889D-01 -0.44754218D-01
 -0.41187303D-02 -0.42348343D-15  0.52515573D-15  0.13132231D-02  0.42709422D-02
 -0.55841652D-02 -0.39021679D-02 -0.15110241D-15  0.21452702D-15  0.11169424D-03
 -0.17052017D-03  0.58825935D-04  0.37220104D-03 -0.29572013D-17  0.30585522D-16
 -0.23511479D-16 -0.29654642D-16 -0.49164651D-03  0.13173386D-15 -0.10033306D-15
 -0.56860862D-02 -0.61199420D-16  0.18929699D-15  0.71610258D-02 -0.16875301D-01
 -0.56625741D-17  0.56872938D-17 -0.23450245D-03  0.82139736D-17  0.15357032D-17
 -0.63657045D-04  0.87737487D-17 -0.18597585D-16  0.76716441D-03 -0.11154758D-02
 -0.38736461D-01 -0.69862802D-01 -0.10301266D+00 -0.83800373D-01 -0.13418797D-01
 -0.14281263D-03  0.92915338D-16  0.21060590D-16 -0.25003719D-01  0.17191774D-16
  0.95634357D-16 -0.64551309D-02  0.15917504D-17  0.27357726D-16  0.94059807D-03
  0.62261464D-02  0.38306870D-02 -0.10056833D-01  0.31107321D-02  0.36122570D-16
  0.19137584D-16 -0.53134245D-03 -0.42139136D-03  0.95273382D-03 -0.14388062D-03
 -0.11547108D-17  0.51185031D-16
MO    4     MO 0.0        OCC NO =    2.0000000  ORB. ENERGY =   -0.235192
  0.54594709D-16  0.10172920D-15  0.17204958D-15  0.25909714D-15  0.32077907D-15
  0.27296851D-15  0.10386955D-15 -0.48646543D-18  0.56749716D-16  0.10640625D-15
  0.18102869D-15  0.28111844D-15  0.37306051D-15  0.39315457D-15  0.24378092D-15
 -0.16216316D-15  0.99379289D-18 -0.14368438D-14 -0.21266540D-15  0.10927260D+01
  0.10495503D+01  0.73601712D+00  0.54121107D+00  0.51982676D+00  0.36453841D+00
 -0.37351058D-14 -0.35875245D-14 -0.25158198D-14  0.26998557D+00  0.13366334D+00
 -0.15263970D-15  0.48886116D-01  0.24217644D-01  0.59709462D-15  0.16342712D-02
  0.80924296D-03  0.13687681D-16 -0.12596510D-14 -0.13537703D-14  0.26134213D-14
  0.99718494D-15 -0.42731432D-01 -0.20996120D-01  0.12489845D-15  0.42028115D-15
 -0.54517960D-15  0.24144446D-16 -0.94131471D-02 -0.46884996D-02  0.10656909D-16
  0.79430028D-16 -0.90086937D-16 -0.18642996D-16 -0.55792992D-03 -0.27795828D-03
 -0.34541204D-02  0.65013929D-02  0.28222486D-15  0.24450464D-02 -0.23399235D-01
 -0.10085828D-14  0.79173149D-02  0.38950559D-02  0.16190822D-15 -0.48225123D-15
  0.46421400D-04  0.56669208D-03  0.39248248D-16  0.43489813D-03 -0.14145606D-02
  0.29913630D-16 -0.57416233D-03 -0.28551558D-03 -0.14765837D-15 -0.42236604D-16
  0.19863315D-15  0.35824307D-15  0.52822920D-15  0.20766544D-14  0.70461268D-15
 -0.17981102D-16  0.24750729D-01  0.12257794D-01  0.47030671D-15  0.13697077D-01
  0.67629917D-02  0.86385705D-15  0.17475887D-02  0.86273379D-03 -0.30564464D-17
 -0.11014577D-15 -0.28970817D-15  0.39985394D-15  0.43202256D-16  0.13116893D-01
  0.64676046D-02  0.66060902D-16  0.12334085D-16 -0.78394987D-16  0.48986215D-16
  0.23684442D-02  0.11691474D-02
END DATA
RHF
