 Molden2AIM, Version 4.0.0 (06/02/2016)           Time: Fri Jun 29 23:14:21 2018
GAUSSIAN              8 MOL ORBITALS    158 PRIMITIVES        2 NUCLEI
  P    1    (CENTRE  1)   0.00000000  0.00000000  2.82600605  CHARGE = 15.0
  H    2    (CENTRE  2)   0.00000000  0.00000000  0.12933664  CHARGE =  1.0
CENTRE ASSIGNMENTS    1  1  1  1  1  1  1  1  1  1  1  1  1  1  1  1  1  1  1  1
CENTRE ASSIGNMENTS    1  1  1  1  1  1  1  1  1  1  1  1  1  1  1  1  1  1  1  1
CENTRE ASSIGNMENTS    1  1  1  1  1  1  1  1  1  1  1  1  1  1  1  1  1  1  1  1
CENTRE ASSIGNMENTS    1  1  1  1  1  1  1  1  1  1  1  1  1  1  1  1  1  1  1  1
CENTRE ASSIGNMENTS    1  1  1  1  1  1  1  1  1  1  1  1  1  1  1  1  1  1  1  1
CENTRE ASSIGNMENTS    1  1  1  1  1  1  1  1  1  1  1  1  1  1  1  1  1  1  1  1
CENTRE ASSIGNMENTS    1  1  1  1  1  1  1  1  1  1  1  2  2  2  2  2  2  2  2  2
CENTRE ASSIGNMENTS    2  2  2  2  2  2  2  2  2  2  2  2  2  2  2  2  2  2
TYPE ASSIGNMENTS      1  1  1  1  1  1  1  1  1  1  1  1  1  1  1  1  1  1  1  1
TYPE ASSIGNMENTS      1  1  1  1  1  1  1  1  1  1  1  1  1  1  1  1  1  1  1  1
TYPE ASSIGNMENTS      1  1  2  2  2  2  2  2  2  3  3  3  3  3  3  3  4  4  4  4
TYPE ASSIGNMENTS      4  4  4  2  2  2  2  2  2  2  3  3  3  3  3  3  3  4  4  4
TYPE ASSIGNMENTS      4  4  4  4  2  3  4  2  3  4  2  3  4  5  6  7  8  9 10  5
TYPE ASSIGNMENTS      6  7  8  9 10  5  6  7  8  9 10 11 12 13 17 14 15 18 19 16
TYPE ASSIGNMENTS     20 11 12 13 17 14 15 18 19 16 20  1  1  1  1  1  1  2  3  4
TYPE ASSIGNMENTS      2  3  4  2  3  4  5  6  7  8  9 10  5  6  7  8  9 10
EXPONENTS  0.3124000D+06 0.4680000D+05 0.1065000D+05 0.3018000D+04 0.9868000D+03
EXPONENTS  0.3574000D+03 0.1396000D+03 0.5763000D+02 0.2460000D+02 0.1012000D+02
EXPONENTS  0.4283000D+01 0.1805000D+01 0.2782000D+00 0.3124000D+06 0.4680000D+05
EXPONENTS  0.1065000D+05 0.3018000D+04 0.9868000D+03 0.3574000D+03 0.1396000D+03
EXPONENTS  0.5763000D+02 0.2460000D+02 0.1012000D+02 0.4283000D+01 0.1805000D+01
EXPONENTS  0.2782000D+00 0.3124000D+06 0.4680000D+05 0.1065000D+05 0.3018000D+04
EXPONENTS  0.9868000D+03 0.3574000D+03 0.1396000D+03 0.5763000D+02 0.2460000D+02
EXPONENTS  0.1012000D+02 0.4283000D+01 0.1805000D+01 0.2782000D+00 0.6158000D+00
EXPONENTS  0.1055000D+00 0.4090000D-01 0.5049000D+03 0.1194000D+03 0.3796000D+02
EXPONENTS  0.1395000D+02 0.5457000D+01 0.2177000D+01 0.2877000D+00 0.5049000D+03
EXPONENTS  0.1194000D+03 0.3796000D+02 0.1395000D+02 0.5457000D+01 0.2177000D+01
EXPONENTS  0.2877000D+00 0.5049000D+03 0.1194000D+03 0.3796000D+02 0.1395000D+02
EXPONENTS  0.5457000D+01 0.2177000D+01 0.2877000D+00 0.5049000D+03 0.1194000D+03
EXPONENTS  0.3796000D+02 0.1395000D+02 0.5457000D+01 0.2177000D+01 0.2877000D+00
EXPONENTS  0.5049000D+03 0.1194000D+03 0.3796000D+02 0.1395000D+02 0.5457000D+01
EXPONENTS  0.2177000D+01 0.2877000D+00 0.5049000D+03 0.1194000D+03 0.3796000D+02
EXPONENTS  0.1395000D+02 0.5457000D+01 0.2177000D+01 0.2877000D+00 0.8010000D+00
EXPONENTS  0.8010000D+00 0.8010000D+00 0.9714000D-01 0.9714000D-01 0.9714000D-01
EXPONENTS  0.3070000D-01 0.3070000D-01 0.3070000D-01 0.2160000D+00 0.2160000D+00
EXPONENTS  0.2160000D+00 0.2160000D+00 0.2160000D+00 0.2160000D+00 0.6520000D+00
EXPONENTS  0.6520000D+00 0.6520000D+00 0.6520000D+00 0.6520000D+00 0.6520000D+00
EXPONENTS  0.7750000D-01 0.7750000D-01 0.7750000D-01 0.7750000D-01 0.7750000D-01
EXPONENTS  0.7750000D-01 0.4520000D+00 0.4520000D+00 0.4520000D+00 0.4520000D+00
EXPONENTS  0.4520000D+00 0.4520000D+00 0.4520000D+00 0.4520000D+00 0.4520000D+00
EXPONENTS  0.4520000D+00 0.1650000D+00 0.1650000D+00 0.1650000D+00 0.1650000D+00
EXPONENTS  0.1650000D+00 0.1650000D+00 0.1650000D+00 0.1650000D+00 0.1650000D+00
EXPONENTS  0.1650000D+00 0.3387000D+02 0.5095000D+01 0.1159000D+01 0.3258000D+00
EXPONENTS  0.1027000D+00 0.2526000D-01 0.1407000D+01 0.1407000D+01 0.1407000D+01
EXPONENTS  0.3880000D+00 0.3880000D+00 0.3880000D+00 0.1020000D+00 0.1020000D+00
EXPONENTS  0.1020000D+00 0.1057000D+01 0.1057000D+01 0.1057000D+01 0.1057000D+01
EXPONENTS  0.1057000D+01 0.1057000D+01 0.2470000D+00 0.2470000D+00 0.2470000D+00
EXPONENTS  0.2470000D+00 0.2470000D+00 0.2470000D+00
MO    1     MO 0.0        OCC NO =    2.0000000  ORB. ENERGY =  -76.811517
  0.54401572D+00  0.10178452D+01  0.17575181D+01  0.28423557D+01  0.42899583D+01
  0.58773756D+01  0.67920718D+01  0.57078880D+01  0.25071545D+01  0.28656362D+00
 -0.38622024D-02  0.24021819D-02  0.11816328D-03 -0.12149944D-02 -0.22725198D-02
 -0.39347451D-02 -0.63891063D-02 -0.98121744D-02 -0.13955164D-01 -0.17755705D-01
 -0.18401162D-01 -0.12279536D-01  0.12093778D-02  0.92376755D-02  0.47431684D-02
 -0.20805724D-04  0.48957329D-03  0.91487592D-03  0.15864273D-02  0.25725615D-02
  0.39653286D-02  0.56424460D-02  0.72657636D-02  0.76381480D-02  0.53545759D-02
 -0.62171418D-03 -0.50331714D-02 -0.47368982D-02  0.23099921D-02 -0.28977397D-02
 -0.91318790D-03 -0.35225729D-05  0.17520699D-05  0.22920418D-05  0.25075741D-05
  0.20655458D-05  0.11044002D-05  0.30515649D-06 -0.25012307D-09 -0.23028280D-05
 -0.30125385D-05 -0.32958226D-05 -0.27148440D-05 -0.14515651D-05 -0.40108154D-06
  0.32874852D-09 -0.96739879D-02 -0.12655422D-01 -0.13845476D-01 -0.11404833D-01
 -0.60979040D-02 -0.16849100D-02  0.13810451D-05 -0.30172993D-06 -0.39961299D-06
 -0.44146501D-06 -0.37811613D-06 -0.20627666D-06 -0.63404035D-07  0.27603897D-07
  0.40303055D-06  0.53377616D-06  0.58967927D-06  0.50506210D-06  0.27553049D-06
  0.84690847D-07 -0.36871429D-07  0.81979976D-02  0.10857479D-01  0.11994598D-01
  0.10273409D-01  0.56045336D-02  0.17226867D-02 -0.74999747D-03 -0.11869942D-06
  0.15741907D-06  0.35529421D-03 -0.16338087D-08  0.21620572D-08  0.28474173D-03
  0.18913838D-09 -0.26198162D-09  0.35999693D-06 -0.16325491D-04 -0.16312096D-04
  0.32637588D-04 -0.13027350D-07 -0.43848908D-08  0.59622741D-08 -0.20404192D-03
 -0.20412529D-03  0.40816721D-03  0.63089144D-07  0.80294264D-09 -0.12376447D-08
  0.11879684D-04  0.11877571D-04 -0.23757255D-04  0.20258987D-08 -0.42667450D-10
  0.63711502D-10 -0.10457047D-08  0.13913301D-08 -0.11070937D-03 -0.96968472D-09
  0.12947707D-08  0.16605515D-03  0.41067987D-08 -0.54687610D-08  0.16607295D-03
 -0.31026177D-08 -0.86696061D-10  0.12208570D-09  0.94662934D-05 -0.94361967D-10
  0.12886149D-09 -0.14198873D-04  0.35445015D-09 -0.49511859D-09 -0.14200008D-04
 -0.77162445D-09  0.64185710D-04  0.11576157D-03  0.17069037D-03 -0.56345076D-03
  0.66352947D-03 -0.66216618D-05  0.84042602D-08 -0.11370048D-07  0.12857429D-03
 -0.94835467D-08  0.12790769D-07 -0.73147424D-03 -0.12254142D-08  0.17077660D-08
  0.46901854D-04  0.16158054D-03  0.16158473D-03 -0.32316527D-03  0.67914393D-08
 -0.52689205D-09  0.60938000D-09  0.56290281D-04  0.56290482D-04 -0.11258076D-03
 -0.21278882D-08 -0.52537556D-08  0.71142281D-08
MO    2     MO 0.0        OCC NO =    2.0000000  ORB. ENERGY =   -6.521942
 -0.19884142D-02 -0.37202928D-02 -0.64238471D-02 -0.10389002D-01 -0.15680087D-01
 -0.21482204D-01 -0.24825481D-01 -0.20862715D-01 -0.91638187D-02 -0.10474094D-02
  0.14116610D-04 -0.87801370D-05 -0.43189476D-06 -0.14483251D+00 -0.27089405D+00
 -0.46903840D+00 -0.76160873D+00 -0.11696530D+01 -0.16635151D+01 -0.21165558D+01
 -0.21934969D+01 -0.14637731D+01  0.14416299D+00  0.11011703D+01  0.56540590D+00
 -0.24801310D-02 -0.63421339D-03 -0.11851679D-02 -0.20551232D-02 -0.33326021D-02
 -0.51368499D-02 -0.73094567D-02 -0.94123691D-02 -0.98947712D-02 -0.69365380D-02
  0.80539413D-03  0.65201773D-02  0.61363728D-02 -0.29924589D-02  0.38949121D-01
  0.14397164D-02 -0.30697691D-04  0.24172749D-03  0.31622569D-03  0.34596199D-03
  0.28497675D-03  0.15237057D-03  0.42101466D-04 -0.34508681D-07 -0.29642464D-03
 -0.38778001D-03 -0.42424492D-03 -0.34946018D-03 -0.18684838D-03 -0.51628021D-04
  0.42317170D-07 -0.35302030D-01 -0.46181792D-01 -0.50524499D-01 -0.41618178D-01
 -0.22252290D-01 -0.61485237D-02  0.50396687D-05  0.89870329D-05  0.11902482D-04
  0.13149045D-04  0.11262198D-04  0.61439550D-05  0.18884907D-05 -0.82218271D-06
 -0.11305247D-04 -0.14972740D-04 -0.16540855D-04 -0.14167293D-04 -0.77287944D-05
 -0.23756287D-05  0.10342656D-05 -0.12811731D-01 -0.16967936D-01 -0.18745012D-01
 -0.16055160D-01 -0.87586971D-02 -0.26921939D-02  0.11720869D-02  0.74920181D-05
 -0.89229108D-05 -0.14802927D-02  0.54933487D-07 -0.73555548D-07 -0.39470826D-03
 -0.63539466D-08  0.80519939D-08  0.22830807D-05  0.80850701D-05  0.30586906D-04
 -0.38671976D-04 -0.86627913D-05  0.13652193D-06 -0.13221960D-06  0.46157495D-03
  0.22270573D-03 -0.68428068D-03  0.92566691D-04 -0.24795663D-06 -0.95380809D-07
 -0.14629093D-04 -0.15968690D-04  0.30597783D-04  0.48083721D-06  0.88835481D-09
 -0.22790993D-08  0.26848832D-07 -0.34359122D-07  0.11847862D-03  0.99551961D-08
 -0.18241554D-08 -0.17131445D-03 -0.90501691D-07  0.10490152D-06 -0.18412140D-03
  0.20515966D-05  0.26897031D-08 -0.28400390D-08 -0.10546559D-04  0.36545629D-08
 -0.42107762D-08  0.16176868D-04 -0.11723672D-07  0.12730893D-07  0.15462809D-04
  0.53040821D-06 -0.86672046D-04 -0.15631660D-03 -0.23048874D-03  0.86594515D-03
 -0.89801406D-03  0.17964140D-04 -0.19618944D-06  0.23669142D-06 -0.30744524D-03
  0.26028326D-06 -0.30873551D-06  0.10985954D-02  0.37999866D-07 -0.42816070D-07
 -0.70093286D-04 -0.34182102D-03 -0.34214496D-03  0.68396597D-03 -0.11307553D-05
 -0.16703528D-07 -0.47881113D-07 -0.71735661D-04 -0.74884413D-04  0.14662007D-03
  0.16766752D-05  0.15099383D-06 -0.18345892D-06
MO    3     MO 0.0        OCC NO =    2.0000000  ORB. ENERGY =   -4.662159
 -0.74370091D-06 -0.13914532D-05 -0.24026287D-05 -0.38856643D-05 -0.58646208D-05
 -0.80347119D-05 -0.92851544D-05 -0.78030124D-05 -0.34274250D-05 -0.39174902D-06
  0.52798536D-08 -0.32839214D-08 -0.16153603D-09  0.49925569D-05  0.93380548D-05
  0.16168337D-04  0.26253600D-04  0.40319395D-04  0.57343436D-04  0.72960312D-04
  0.75612569D-04  0.50458080D-04 -0.49694775D-05 -0.37958711D-04 -0.19490245D-04
  0.85493201D-07 -0.44190615D-06 -0.82579933D-06 -0.14319653D-05 -0.23220849D-05
 -0.35792457D-05 -0.50930711D-05 -0.65583349D-05 -0.68944622D-05 -0.48332294D-05
  0.56118118D-06  0.45431183D-05  0.42756916D-05 -0.20850805D-05  0.21878547D-05
  0.45414792D-06  0.30699086D-07  0.78343597D+01  0.10248838D+02  0.11212588D+02
  0.92360632D+01  0.49383122D+01  0.13645036D+01 -0.11184223D-02  0.15091918D+01
  0.19743109D+01  0.21599653D+01  0.17792125D+01  0.95130432D+00  0.26285461D+00
 -0.21545012D-03 -0.66816962D-03 -0.87409338D-03 -0.95628879D-03 -0.78771681D-03
 -0.42117420D-03 -0.11637452D-03  0.95386966D-07 -0.19661714D-01 -0.26040096D-01
 -0.28767311D-01 -0.24639289D-01 -0.13441665D-01 -0.41316153D-02  0.17987606D-02
 -0.38243279D-02 -0.50649637D-02 -0.55954243D-02 -0.47924980D-02 -0.26144890D-02
 -0.80362537D-03  0.34987035D-03 -0.10459879D-04 -0.13853129D-04 -0.15303986D-04
 -0.13107911D-04 -0.71508615D-05 -0.21979873D-05  0.95692672D-06  0.83759927D-01
  0.16124979D-01 -0.77661466D-05 -0.15010622D-04 -0.33832684D-05 -0.20473590D-06
  0.58180390D-05  0.11542977D-05 -0.10493783D-08 -0.26680685D-06  0.25420193D-06
  0.12604920D-07  0.43202137D-06 -0.84100354D-04 -0.16679163D-04  0.50465641D-05
 -0.28155478D-05 -0.22310163D-05 -0.62350047D-05 -0.83215885D-03 -0.16411189D-03
  0.78604435D-08 -0.23785799D-07  0.15925355D-07 -0.26058127D-07 -0.86489092D-05
 -0.16211114D-05 -0.17630691D-04  0.46070458D-05  0.19995734D-06 -0.12667764D-03
 -0.51405589D-04 -0.32549967D-06  0.17956971D-03  0.37584451D-04 -0.27437235D-06
  0.53838401D-07 -0.38164922D-05 -0.41308776D-06 -0.12921503D-07 -0.19225629D-05
 -0.13636881D-05  0.27117886D-07  0.13372040D-04  0.26029514D-05  0.11646622D-07
 -0.12420279D-07 -0.82982025D-07 -0.14966150D-06 -0.22067579D-06  0.84325537D-06
 -0.34215207D-06 -0.17532840D-08  0.27015797D-03  0.50938366D-04  0.75885495D-07
 -0.28734205D-03 -0.56415298D-04  0.12154300D-05 -0.61525491D-04 -0.11779678D-04
  0.17077547D-07 -0.58209478D-06 -0.45139779D-06  0.10334926D-05  0.11456361D-06
 -0.20319969D-03 -0.43626391D-04 -0.40896197D-07 -0.10533610D-06  0.14623229D-06
 -0.53149525D-07 -0.20564812D-03 -0.39817928D-04
MO    4     MO 0.0        OCC NO =    2.0000000  ORB. ENERGY =   -4.658776
  0.15941266D-05  0.29825868D-05  0.51500466D-05  0.83289409D-05  0.12570844D-04
  0.17222445D-04  0.19902775D-04  0.16725796D-04  0.73467025D-05  0.83971598D-06
 -0.11317393D-07  0.70391020D-08  0.34625329D-09 -0.84523909D-05 -0.15809312D-04
 -0.27372970D-04 -0.44447304D-04 -0.68260673D-04 -0.97082347D-04 -0.12352169D-03
 -0.12801196D-03 -0.85425450D-04  0.84133176D-05  0.64264038D-04  0.32996954D-04
 -0.14473985D-06  0.11294745D-05  0.21106728D-05  0.36599814D-05  0.59350514D-05
  0.91482473D-05  0.13017456D-04  0.16762546D-04  0.17621659D-04  0.12353323D-04
 -0.14343313D-05 -0.11611824D-04 -0.10928304D-04  0.53292883D-05 -0.51553638D-05
  0.37236518D-05  0.21692633D-06 -0.15098159D+01 -0.19751273D+01 -0.21608585D+01
 -0.17799482D+01 -0.95169771D+00 -0.26296331D+00  0.21553922D-03  0.78382622D+01
  0.10253943D+02  0.11218173D+02  0.92406639D+01  0.49407721D+01  0.13651833D+01
 -0.11189794D-02 -0.92390904D-02 -0.12086494D-01 -0.13223047D-01 -0.10892125D-01
 -0.58237706D-02 -0.16091643D-02  0.13189597D-05  0.41031771D-02  0.54342733D-02
  0.60034122D-02  0.51419409D-02  0.28051233D-02  0.86222136D-03 -0.37538099D-03
 -0.21495023D-01 -0.28468142D-01 -0.31449649D-01 -0.26936721D-01 -0.14695000D-01
 -0.45168578D-02  0.19664818D-02  0.89124157D-04  0.11803659D-03  0.13039872D-03
  0.11168690D-03  0.60929432D-04  0.18728110D-04 -0.81535633D-05 -0.16018522D-01
  0.83107015D-01 -0.94129133D-04  0.38996654D-05 -0.22836655D-04 -0.91896510D-06
 -0.13047657D-05  0.69548832D-05 -0.73753671D-08 -0.68601562D-06 -0.25186766D-06
  0.93788328D-06 -0.52154343D-06  0.23908251D-04 -0.12672816D-03  0.14000002D-06
 -0.61501216D-05  0.60101216D-05  0.78244867D-05  0.15087276D-03 -0.80330472D-03
  0.78690932D-08 -0.18487161D-07  0.10618067D-07  0.31478372D-07  0.16626520D-05
 -0.83917737D-05 -0.13304848D-04 -0.39661027D-04 -0.10739243D-05  0.78526463D-04
 -0.97038586D-04  0.16031746D-05 -0.38611920D-04  0.21602167D-03  0.16185982D-05
 -0.12193676D-06  0.10370185D-05 -0.37338906D-05 -0.12899146D-07 -0.93529712D-07
 -0.46140523D-05  0.25795103D-07 -0.30175257D-05  0.15815724D-04  0.12902335D-07
  0.20473847D-07  0.53838550D-06  0.97100042D-06  0.14317396D-05 -0.62461618D-05
 -0.36879262D-05 -0.76530156D-07 -0.61534503D-04  0.31386218D-03  0.30405527D-06
  0.67743109D-04 -0.35738949D-03 -0.65487189D-05  0.13644597D-04 -0.70469746D-04
 -0.99090145D-06  0.14248412D-05  0.15187762D-05 -0.29436174D-05 -0.15451948D-06
  0.41056128D-04 -0.23668270D-03  0.32378591D-06  0.26958425D-06 -0.59337016D-06
  0.67387120D-07  0.46090598D-04 -0.24039586D-03
MO    5     MO 0.0        OCC NO =    2.0000000  ORB. ENERGY =   -4.656655
 -0.16696100D-03 -0.31238151D-03 -0.53939062D-03 -0.87233242D-03 -0.13166085D-02
 -0.18037944D-02 -0.20845190D-02 -0.17517779D-02 -0.76945759D-03 -0.87947733D-04
  0.11853282D-05 -0.73724102D-06 -0.36264871D-07 -0.60090425D-03 -0.11239285D-02
 -0.19460214D-02 -0.31598839D-02 -0.48528432D-02 -0.69018571D-02 -0.87815046D-02
 -0.91007303D-02 -0.60731356D-02  0.59812642D-03  0.45687112D-02  0.23458463D-02
 -0.10289963D-04 -0.20961732D-03 -0.39171631D-03 -0.67924996D-03 -0.11014765D-02
 -0.16978082D-02 -0.24158884D-02 -0.31109334D-02 -0.32703748D-02 -0.22926330D-02
  0.26619520D-03  0.21550193D-02  0.20281660D-02 -0.98905388D-03  0.10255976D-02
 -0.37395246D-02 -0.21412720D-03 -0.10623420D-02 -0.13897461D-02 -0.15204309D-02
 -0.12524135D-02 -0.66963692D-03 -0.18502718D-03  0.15165847D-06  0.91309130D-02
  0.11944977D-01  0.13068223D-01  0.10764592D-01  0.57555820D-02  0.15903231D-02
 -0.13035164D-05  0.80208649D+01  0.10492822D+02  0.11479515D+02  0.94559375D+01
  0.50558740D+01  0.13969870D+01 -0.11450475D-02  0.33176558D-05  0.43939239D-05
  0.48541056D-05  0.41575563D-05  0.22681043D-05  0.69715578D-06 -0.30351722D-06
 -0.26230906D-04 -0.34740375D-04 -0.38378782D-04 -0.32871544D-04 -0.17932671D-04
 -0.55120329D-05  0.23997461D-05 -0.55509741D-01 -0.73517446D-01 -0.81217029D-01
 -0.69562633D-01 -0.37949049D-01 -0.11664543D-01  0.50783334D-02 -0.11286678D-04
  0.96465404D-04  0.82505385D-01  0.36902581D-07 -0.75675849D-07  0.10580662D-02
 -0.90312899D-09  0.87433384D-08  0.71645675D-05  0.39399693D-03  0.38892827D-03
 -0.78292520D-03  0.20098107D-05 -0.42151829D-06  0.37609452D-06  0.77023829D-03
  0.77783612D-03 -0.15480744D-02 -0.70600585D-05  0.67559067D-05 -0.86984574D-05
  0.16340201D-04  0.16613051D-04 -0.32953252D-04 -0.84897146D-07  0.19766269D-07
 -0.31774828D-07  0.15282282D-07 -0.69378153D-07  0.56662166D-03  0.10132677D-06
 -0.11244430D-06 -0.83315405D-03 -0.14717362D-06  0.32057876D-06 -0.86671092D-03
  0.21394714D-04 -0.35533455D-08  0.37217925D-09  0.29797912D-04 -0.36539379D-08
 -0.14742787D-08 -0.45513906D-04  0.14313975D-07  0.35774093D-09 -0.43879829D-04
 -0.94246601D-06 -0.29785098D-03 -0.53718650D-03 -0.79208118D-03  0.37607520D-02
  0.35068100D-02  0.62152219D-04  0.45132692D-07  0.25776587D-06 -0.31728681D-03
 -0.34839902D-07 -0.30499294D-06  0.34109441D-02 -0.27348695D-07 -0.38374260D-07
  0.77434567D-03 -0.39172618D-03 -0.39316153D-03  0.78488771D-03  0.34992488D-05
  0.10335363D-05 -0.14198689D-05 -0.12416637D-03 -0.12359855D-03  0.24776492D-03
 -0.57062216D-06  0.46459287D-08 -0.24699033D-06
MO    6     MO 0.0        OCC NO =    2.0000000  ORB. ENERGY =   -0.566852
  0.49933562D-03  0.93424940D-03  0.16131728D-02  0.26089125D-02  0.39376233D-02
  0.53946658D-02  0.62342378D-02  0.52390981D-02  0.23012415D-02  0.26302810D-03
 -0.35449990D-05  0.22048903D-05  0.10845851D-06  0.81596448D-03  0.15261761D-02
  0.26424915D-02  0.42907884D-02  0.65896484D-02  0.93719927D-02  0.11924355D-01
  0.12357830D-01  0.82466764D-02 -0.81219248D-03 -0.62038272D-02 -0.31854114D-02
  0.13972683D-04  0.36326236D-01  0.67883602D-01  0.11771257D+00  0.19088353D+00
  0.29422655D+00  0.41866831D+00  0.53911814D+00  0.56674898D+00  0.39730841D+00
 -0.46131062D-01 -0.37346026D+00 -0.35147685D+00  0.17140093D+00  0.31034446D-01
  0.41088989D-01 -0.69517317D-03  0.13501471D-04  0.17662500D-04  0.19323394D-04
  0.15917119D-04  0.85105204D-05  0.23515394D-05 -0.19274512D-08 -0.13914714D-04
 -0.18203102D-04 -0.19914832D-04 -0.16404299D-04 -0.87710046D-05 -0.24235137D-05
  0.19864453D-08  0.10979921D+00  0.14363832D+00  0.15714536D+00  0.12944420D+00
  0.69210861D-01  0.19123632D-01 -0.15674783D-04 -0.49408644D-03 -0.65437115D-03
 -0.72290434D-03 -0.61916977D-03 -0.33778054D-03 -0.10382488D-03  0.45201718D-04
  0.53176966D-03  0.70427905D-03  0.77803916D-03  0.66639291D-03  0.36354255D-03
  0.11174345D-03 -0.48649185D-04  0.29546021D+00  0.39130934D+00  0.43229170D+00
  0.37025916D+00  0.20199038D+00  0.62086548D-01 -0.27030309D-01  0.42923548D-04
 -0.46836069D-04 -0.32486702D-01  0.39281830D-05 -0.41503433D-05 -0.16160317D-02
  0.17048713D-07 -0.48837523D-08  0.13976412D-03 -0.83040658D-03 -0.10224362D-02
  0.18528428D-02  0.11978718D-03 -0.25361896D-05  0.24255180D-05 -0.71463064D-02
 -0.80076553D-02  0.15153962D-01  0.54945995D-03 -0.11426433D-04  0.10906306D-04
  0.38733919D-04  0.79005976D-04 -0.11773989D-03 -0.23234396D-04 -0.89246511D-08
  0.39888050D-07 -0.49162177D-06  0.84768019D-06 -0.18865314D-02 -0.18740907D-06
 -0.48494609D-06  0.29533978D-02  0.16622744D-05 -0.20580945D-05  0.27061963D-02
 -0.10309005D-03  0.49721543D-07 -0.72040750D-07  0.18852631D-04 -0.21952163D-06
  0.26658688D-06 -0.12339691D-04  0.70357004D-07 -0.50464631D-07 -0.44218201D-04
  0.22721972D-04  0.27649083D-01  0.49866260D-01  0.73527772D-01  0.46047537D-01
  0.46777316D-02  0.35951320D-03  0.59233615D-05 -0.56668730D-05  0.20373751D-01
  0.42457794D-05 -0.41784861D-05  0.54276013D-02 -0.10658194D-06  0.93066026D-07
 -0.67700306D-03 -0.22220941D-02 -0.27121929D-02  0.49342869D-02  0.11554831D-03
  0.55024751D-05 -0.51319928D-05  0.64750703D-04  0.13920271D-04 -0.78670973D-04
  0.29833636D-04  0.33066523D-07 -0.59061003D-08
MO    7     MO 0.0        OCC NO =    2.0000000  ORB. ENERGY =   -0.319613
 -0.28783238D-04 -0.53853003D-04 -0.92988233D-04 -0.15038573D-03 -0.22697669D-03
 -0.31096509D-03 -0.35936060D-03 -0.30199770D-03 -0.13265062D-03 -0.15161747D-04
  0.20434462D-06 -0.12709665D-06 -0.62518815D-08 -0.98657193D-04 -0.18452795D-03
 -0.31950017D-03 -0.51879359D-03 -0.79674572D-03 -0.11331553D-02 -0.14417581D-02
 -0.14941690D-02 -0.99709481D-03  0.98201125D-04  0.75009659D-03  0.38514390D-03
 -0.16894187D-05  0.16872290D-01  0.31529604D-01  0.54673450D-01  0.88658848D-01
  0.13665814D+00  0.19445706D+00  0.25040187D+00  0.26323545D+00  0.18453612D+00
 -0.21426295D-01 -0.17345948D+00 -0.16324894D+00  0.79609851D-01  0.14988461D-01
  0.40042862D-01  0.32464467D-02 -0.88616107D-05 -0.11592678D-04 -0.12682796D-04
 -0.10447107D-04 -0.55858299D-05 -0.15434190D-05  0.12650712D-08  0.80982271D-05
  0.10594027D-04  0.11590236D-04  0.95471411D-05  0.51046385D-05  0.14104611D-05
 -0.11560916D-08 -0.21180301D+00 -0.27707876D+00 -0.30313388D+00 -0.24969826D+00
 -0.13350796D+00 -0.36889546D-01  0.30236704D-04 -0.55616232D-03 -0.73658483D-03
 -0.81372837D-03 -0.69696083D-03 -0.38021851D-03 -0.11686920D-03  0.50880758D-04
  0.61667745D-03  0.81673145D-03  0.90226885D-03  0.77279603D-03  0.42158948D-03
  0.12958555D-03 -0.56417012D-04 -0.13043605D+01 -0.17275032D+01 -0.19084270D+01
 -0.16345736D+01 -0.89172173D+00 -0.27409188D+00  0.11933001D+00  0.52031463D-04
 -0.57572506D-04  0.13227350D+00  0.79605087D-05 -0.85258154D-05  0.11915875D-01
  0.11276852D-06 -0.10174724D-06 -0.39188535D-04  0.16009887D-02  0.12630787D-02
 -0.28640674D-02  0.16212906D-03  0.89795847D-05 -0.97721945D-05  0.17584668D-01
  0.16416836D-01 -0.34001504D-01  0.37200840D-03  0.42832975D-04 -0.47970208D-04
  0.15661039D-04  0.41299331D-04 -0.56960370D-04 -0.15870646D-04  0.20429867D-06
 -0.28521476D-06  0.10217038D-05 -0.46275062D-06  0.18018620D-02  0.60360411D-06
 -0.97348326D-06 -0.22357067D-02 -0.36687155D-05  0.23617351D-05 -0.31698792D-02
  0.44568363D-03  0.64784172D-07 -0.90411869D-07 -0.12333594D-03 -0.28976539D-06
  0.28538243D-06  0.17794707D-03  0.95412870D-07 -0.14146821D-07  0.19206075D-03
  0.41643017D-05 -0.38797596D-01 -0.69973062D-01 -0.10317524D+00 -0.81212912D-01
 -0.24747638D-01 -0.57847601D-03 -0.31809154D-05  0.27459712D-05 -0.15333441D-01
 -0.40028542D-05  0.38155729D-05 -0.14346280D-02 -0.14059346D-05  0.12224739D-05
 -0.72596063D-03  0.19419703D-02  0.23051563D-02 -0.42471266D-02 -0.82043083D-04
 -0.13156920D-05  0.16544209D-05 -0.54534762D-03 -0.43854384D-03  0.98389145D-03
 -0.43974361D-04 -0.59290761D-06  0.63863850D-06
MO    8     MO 0.0        OCC NO =    2.0000000  ORB. ENERGY =   -0.194793
  0.52912097D-06  0.98997733D-06  0.17093985D-05  0.27645340D-05  0.41725024D-05
  0.57164573D-05  0.66061098D-05  0.55516101D-05  0.24385104D-05  0.27871772D-06
 -0.37564580D-08  0.23364119D-08  0.11492806D-09 -0.87729594D-06 -0.16408902D-05
 -0.28411127D-05 -0.46133028D-05 -0.70849551D-05 -0.10076433D-04 -0.12820642D-04
 -0.13286699D-04 -0.88665327D-05  0.87324041D-06  0.66701339D-05  0.34248408D-05
 -0.15022931D-07 -0.75438733D-05 -0.14097395D-04 -0.24445382D-04 -0.39640802D-04
 -0.61102059D-04 -0.86944892D-04 -0.11195872D-03 -0.11769682D-03 -0.82509080D-04
  0.95800426D-05  0.77556532D-04  0.72991235D-04 -0.35594850D-04 -0.11437839D-04
 -0.99847940D-05 -0.31841348D-06 -0.12817025D+00 -0.16767114D+00 -0.18343810D+00
 -0.15110214D+00 -0.80790864D-01 -0.22323300D-01  0.18297406D-04 -0.36231436D-01
 -0.47397633D-01 -0.51854671D-01 -0.42713871D-01 -0.22838132D-01 -0.63103975D-02
  0.51723494D-05  0.99616483D-05  0.13031737D-04  0.14257177D-04  0.11743961D-04
  0.62792279D-05  0.17350116D-05 -0.14221111D-08 -0.17398999D+01 -0.23043342D+01
 -0.25456703D+01 -0.21803744D+01 -0.11894767D+01 -0.36561396D+00  0.15917551D+00
 -0.48625558D+00 -0.64399991D+00 -0.71144690D+00 -0.60935644D+00 -0.33242700D+00
 -0.10217934D+00  0.44485308D-01  0.28429876D-03  0.37652704D-03  0.41596123D-03
  0.35627206D-03  0.19435989D-03  0.59741135D-04 -0.26009198D-04  0.16965319D+00
  0.47460071D-01 -0.25996203D-04  0.29821975D-01  0.83784278D-02 -0.38813194D-05
  0.64760587D-03  0.18094342D-03 -0.88432590D-07  0.12832996D-04 -0.88238600D-05
 -0.40091365D-05 -0.11718395D-04 -0.20131552D-03 -0.12848517D-03  0.47884210D-04
 -0.33844125D-04 -0.14040085D-04 -0.52537627D-04 -0.80753283D-02 -0.26229878D-02
  0.88088530D-06 -0.69611356D-06 -0.18477173D-06 -0.70632269D-06 -0.23725373D-03
 -0.69611634D-04  0.69593500D-03  0.57821435D-03  0.28631870D-06 -0.24714877D-02
 -0.18844146D-02 -0.18701168D-05  0.38368274D-03  0.14977152D-03  0.10111607D-05
  0.12703412D-05  0.17000657D-03  0.11743040D-03  0.12789076D-06 -0.25667902D-03
 -0.28503274D-03 -0.17613148D-06 -0.25334071D-03 -0.67258466D-04 -0.20754081D-06
  0.13569137D-06 -0.75174501D-06 -0.13558031D-05 -0.19991309D-05  0.24491371D-05
  0.11141157D-05 -0.78817100D-08  0.12203261D-01  0.34434119D-02 -0.12816305D-05
  0.13995503D-01  0.38575141D-02  0.50663591D-06  0.66492449D-03  0.17571224D-03
  0.29555001D-06  0.21592439D-05 -0.21371826D-05 -0.22061310D-07 -0.27371195D-05
  0.94529681D-02  0.25434170D-02  0.18817298D-06 -0.96076565D-07 -0.92096418D-07
 -0.17580137D-06  0.17237616D-02  0.47439730D-03
END DATA
RHF
