 Molden2AIM, Version 4.0.0 (06/02/2016)           Time: Fri Jun 29 23:15:08 2018
GAUSSIAN             16 MOL ORBITALS    262 PRIMITIVES        2 NUCLEI
  S    1    (CENTRE  1)   0.00000000  0.00000000  1.78333643  CHARGE = 16.0
  S    2    (CENTRE  2)   0.00000000  0.00000000 -1.78333643  CHARGE = 16.0
CENTRE ASSIGNMENTS    1  1  1  1  1  1  1  1  1  1  1  1  1  1  1  1  1  1  1  1
CENTRE ASSIGNMENTS    1  1  1  1  1  1  1  1  1  1  1  1  1  1  1  1  1  1  1  1
CENTRE ASSIGNMENTS    1  1  1  1  1  1  1  1  1  1  1  1  1  1  1  1  1  1  1  1
CENTRE ASSIGNMENTS    1  1  1  1  1  1  1  1  1  1  1  1  1  1  1  1  1  1  1  1
CENTRE ASSIGNMENTS    1  1  1  1  1  1  1  1  1  1  1  1  1  1  1  1  1  1  1  1
CENTRE ASSIGNMENTS    1  1  1  1  1  1  1  1  1  1  1  1  1  1  1  1  1  1  1  1
CENTRE ASSIGNMENTS    1  1  1  1  1  1  1  1  1  1  1  2  2  2  2  2  2  2  2  2
CENTRE ASSIGNMENTS    2  2  2  2  2  2  2  2  2  2  2  2  2  2  2  2  2  2  2  2
CENTRE ASSIGNMENTS    2  2  2  2  2  2  2  2  2  2  2  2  2  2  2  2  2  2  2  2
CENTRE ASSIGNMENTS    2  2  2  2  2  2  2  2  2  2  2  2  2  2  2  2  2  2  2  2
CENTRE ASSIGNMENTS    2  2  2  2  2  2  2  2  2  2  2  2  2  2  2  2  2  2  2  2
CENTRE ASSIGNMENTS    2  2  2  2  2  2  2  2  2  2  2  2  2  2  2  2  2  2  2  2
CENTRE ASSIGNMENTS    2  2  2  2  2  2  2  2  2  2  2  2  2  2  2  2  2  2  2  2
CENTRE ASSIGNMENTS    2  2
TYPE ASSIGNMENTS      1  1  1  1  1  1  1  1  1  1  1  1  1  1  1  1  1  1  1  1
TYPE ASSIGNMENTS      1  1  1  1  1  1  1  1  1  1  1  1  1  1  1  1  1  1  1  1
TYPE ASSIGNMENTS      1  1  2  2  2  2  2  2  2  3  3  3  3  3  3  3  4  4  4  4
TYPE ASSIGNMENTS      4  4  4  2  2  2  2  2  2  2  3  3  3  3  3  3  3  4  4  4
TYPE ASSIGNMENTS      4  4  4  4  2  3  4  2  3  4  2  3  4  5  6  7  8  9 10  5
TYPE ASSIGNMENTS      6  7  8  9 10  5  6  7  8  9 10 11 12 13 17 14 15 18 19 16
TYPE ASSIGNMENTS     20 11 12 13 17 14 15 18 19 16 20  1  1  1  1  1  1  1  1  1
TYPE ASSIGNMENTS      1  1  1  1  1  1  1  1  1  1  1  1  1  1  1  1  1  1  1  1
TYPE ASSIGNMENTS      1  1  1  1  1  1  1  1  1  1  1  1  1  2  2  2  2  2  2  2
TYPE ASSIGNMENTS      3  3  3  3  3  3  3  4  4  4  4  4  4  4  2  2  2  2  2  2
TYPE ASSIGNMENTS      2  3  3  3  3  3  3  3  4  4  4  4  4  4  4  2  3  4  2  3
TYPE ASSIGNMENTS      4  2  3  4  5  6  7  8  9 10  5  6  7  8  9 10  5  6  7  8
TYPE ASSIGNMENTS      9 10 11 12 13 17 14 15 18 19 16 20 11 12 13 17 14 15 18 19
TYPE ASSIGNMENTS     16 20
EXPONENTS  0.3741000D+06 0.5605000D+05 0.1276000D+05 0.3615000D+04 0.1183000D+04
EXPONENTS  0.4288000D+03 0.1678000D+03 0.6947000D+02 0.2984000D+02 0.1272000D+02
EXPONENTS  0.5244000D+01 0.2219000D+01 0.3490000D+00 0.3741000D+06 0.5605000D+05
EXPONENTS  0.1276000D+05 0.3615000D+04 0.1183000D+04 0.4288000D+03 0.1678000D+03
EXPONENTS  0.6947000D+02 0.2984000D+02 0.1272000D+02 0.5244000D+01 0.2219000D+01
EXPONENTS  0.3490000D+00 0.3741000D+06 0.5605000D+05 0.1276000D+05 0.3615000D+04
EXPONENTS  0.1183000D+04 0.4288000D+03 0.1678000D+03 0.6947000D+02 0.2984000D+02
EXPONENTS  0.1272000D+02 0.5244000D+01 0.2219000D+01 0.3490000D+00 0.7767000D+00
EXPONENTS  0.1322000D+00 0.4970000D-01 0.5744000D+03 0.1358000D+03 0.4319000D+02
EXPONENTS  0.1587000D+02 0.6208000D+01 0.2483000D+01 0.3229000D+00 0.5744000D+03
EXPONENTS  0.1358000D+03 0.4319000D+02 0.1587000D+02 0.6208000D+01 0.2483000D+01
EXPONENTS  0.3229000D+00 0.5744000D+03 0.1358000D+03 0.4319000D+02 0.1587000D+02
EXPONENTS  0.6208000D+01 0.2483000D+01 0.3229000D+00 0.5744000D+03 0.1358000D+03
EXPONENTS  0.4319000D+02 0.1587000D+02 0.6208000D+01 0.2483000D+01 0.3229000D+00
EXPONENTS  0.5744000D+03 0.1358000D+03 0.4319000D+02 0.1587000D+02 0.6208000D+01
EXPONENTS  0.2483000D+01 0.3229000D+00 0.5744000D+03 0.1358000D+03 0.4319000D+02
EXPONENTS  0.1587000D+02 0.6208000D+01 0.2483000D+01 0.3229000D+00 0.8688000D+00
EXPONENTS  0.8688000D+00 0.8688000D+00 0.1098000D+00 0.1098000D+00 0.1098000D+00
EXPONENTS  0.3510000D-01 0.3510000D-01 0.3510000D-01 0.2690000D+00 0.2690000D+00
EXPONENTS  0.2690000D+00 0.2690000D+00 0.2690000D+00 0.2690000D+00 0.8190000D+00
EXPONENTS  0.8190000D+00 0.8190000D+00 0.8190000D+00 0.8190000D+00 0.8190000D+00
EXPONENTS  0.1010000D+00 0.1010000D+00 0.1010000D+00 0.1010000D+00 0.1010000D+00
EXPONENTS  0.1010000D+00 0.5570000D+00 0.5570000D+00 0.5570000D+00 0.5570000D+00
EXPONENTS  0.5570000D+00 0.5570000D+00 0.5570000D+00 0.5570000D+00 0.5570000D+00
EXPONENTS  0.5570000D+00 0.2180000D+00 0.2180000D+00 0.2180000D+00 0.2180000D+00
EXPONENTS  0.2180000D+00 0.2180000D+00 0.2180000D+00 0.2180000D+00 0.2180000D+00
EXPONENTS  0.2180000D+00 0.3741000D+06 0.5605000D+05 0.1276000D+05 0.3615000D+04
EXPONENTS  0.1183000D+04 0.4288000D+03 0.1678000D+03 0.6947000D+02 0.2984000D+02
EXPONENTS  0.1272000D+02 0.5244000D+01 0.2219000D+01 0.3490000D+00 0.3741000D+06
EXPONENTS  0.5605000D+05 0.1276000D+05 0.3615000D+04 0.1183000D+04 0.4288000D+03
EXPONENTS  0.1678000D+03 0.6947000D+02 0.2984000D+02 0.1272000D+02 0.5244000D+01
EXPONENTS  0.2219000D+01 0.3490000D+00 0.3741000D+06 0.5605000D+05 0.1276000D+05
EXPONENTS  0.3615000D+04 0.1183000D+04 0.4288000D+03 0.1678000D+03 0.6947000D+02
EXPONENTS  0.2984000D+02 0.1272000D+02 0.5244000D+01 0.2219000D+01 0.3490000D+00
EXPONENTS  0.7767000D+00 0.1322000D+00 0.4970000D-01 0.5744000D+03 0.1358000D+03
EXPONENTS  0.4319000D+02 0.1587000D+02 0.6208000D+01 0.2483000D+01 0.3229000D+00
EXPONENTS  0.5744000D+03 0.1358000D+03 0.4319000D+02 0.1587000D+02 0.6208000D+01
EXPONENTS  0.2483000D+01 0.3229000D+00 0.5744000D+03 0.1358000D+03 0.4319000D+02
EXPONENTS  0.1587000D+02 0.6208000D+01 0.2483000D+01 0.3229000D+00 0.5744000D+03
EXPONENTS  0.1358000D+03 0.4319000D+02 0.1587000D+02 0.6208000D+01 0.2483000D+01
EXPONENTS  0.3229000D+00 0.5744000D+03 0.1358000D+03 0.4319000D+02 0.1587000D+02
EXPONENTS  0.6208000D+01 0.2483000D+01 0.3229000D+00 0.5744000D+03 0.1358000D+03
EXPONENTS  0.4319000D+02 0.1587000D+02 0.6208000D+01 0.2483000D+01 0.3229000D+00
EXPONENTS  0.8688000D+00 0.8688000D+00 0.8688000D+00 0.1098000D+00 0.1098000D+00
EXPONENTS  0.1098000D+00 0.3510000D-01 0.3510000D-01 0.3510000D-01 0.2690000D+00
EXPONENTS  0.2690000D+00 0.2690000D+00 0.2690000D+00 0.2690000D+00 0.2690000D+00
EXPONENTS  0.8190000D+00 0.8190000D+00 0.8190000D+00 0.8190000D+00 0.8190000D+00
EXPONENTS  0.8190000D+00 0.1010000D+00 0.1010000D+00 0.1010000D+00 0.1010000D+00
EXPONENTS  0.1010000D+00 0.1010000D+00 0.5570000D+00 0.5570000D+00 0.5570000D+00
EXPONENTS  0.5570000D+00 0.5570000D+00 0.5570000D+00 0.5570000D+00 0.5570000D+00
EXPONENTS  0.5570000D+00 0.5570000D+00 0.2180000D+00 0.2180000D+00 0.2180000D+00
EXPONENTS  0.2180000D+00 0.2180000D+00 0.2180000D+00 0.2180000D+00 0.2180000D+00
EXPONENTS  0.2180000D+00 0.2180000D+00
MO    1     MO 0.0        OCC NO =    2.0000000  ORB. ENERGY =  -88.635362
  0.58511969D+00  0.10938473D+01  0.18905096D+01  0.30578144D+01  0.46217074D+01
  0.63648495D+01  0.74390334D+01  0.64278861D+01  0.29979890D+01  0.40706214D+00
  0.10900121D-02  0.21381532D-02  0.97615623D-04 -0.11628571D-02 -0.21716851D-02
 -0.37671238D-02 -0.61082610D-02 -0.94043632D-02 -0.13393926D-01 -0.17222850D-01
 -0.18078867D-01 -0.12783040D-01  0.28308578D-03  0.91847796D-02  0.50573889D-02
 -0.21387612D-04  0.44974789D-03  0.83929610D-03  0.14577569D-02  0.23612427D-02
  0.36474289D-02  0.51999579D-02  0.67634467D-02  0.72080110D-02  0.53460319D-02
 -0.16640212D-03 -0.48432264D-02 -0.47446902D-02  0.22160517D-02 -0.29943305D-02
 -0.11913093D-02 -0.29342681D-03  0.63704338D-05  0.83576622D-05  0.91670816D-05
  0.75428200D-05  0.39767239D-05  0.10345556D-05 -0.11448412D-08  0.44582554D-05
  0.58489883D-05  0.64154487D-05  0.52787328D-05  0.27830524D-05  0.72401868D-06
 -0.80120049D-09 -0.46855093D-02 -0.61471331D-02 -0.67424681D-02 -0.55478096D-02
 -0.29249149D-02 -0.76092462D-03  0.84204067D-06 -0.11623385D-05 -0.15261575D-05
 -0.17170301D-05 -0.14467277D-05 -0.80927920D-06 -0.20142794D-06  0.92384561D-07
 -0.81738850D-06 -0.10732361D-05 -0.12074630D-05 -0.10173788D-05 -0.56910745D-06
 -0.14164969D-06  0.64967372D-07  0.37037518D-02  0.48630487D-02  0.54712577D-02
  0.46099483D-02  0.25787404D-02  0.64184324D-03 -0.29438024D-03 -0.39044832D-06
 -0.27395428D-06  0.19742880D-03 -0.80952049D-08 -0.56263888D-08  0.52173975D-03
  0.65654308D-09  0.46048142D-09  0.15967707D-04  0.44414936D-04  0.44376560D-04
 -0.88791496D-04 -0.12048069D-06 -0.15527673D-07 -0.11252448D-07 -0.11442025D-03
 -0.11409630D-03  0.22851656D-03  0.10044215D-05  0.18955286D-07  0.14905512D-07
  0.28858041D-04  0.28861996D-04 -0.57720037D-04  0.12752111D-07  0.39280683D-09
  0.28059883D-09 -0.23927864D-08 -0.16211071D-08 -0.61254752D-04 -0.20961599D-08
 -0.16132752D-08  0.91888385D-04  0.92745191D-08  0.64765964D-08  0.91875872D-04
 -0.38091966D-07 -0.48779330D-09 -0.36337627D-09  0.29868084D-04 -0.52652608D-09
 -0.36417843D-09 -0.44803262D-04  0.19899060D-08  0.14543072D-08 -0.44800989D-04
  0.67666402D-08 -0.13765732D-02 -0.25734235D-02 -0.44476793D-02 -0.71939217D-02
 -0.10873191D-01 -0.14974169D-01 -0.17501332D-01 -0.15122471D-01 -0.70531743D-02
 -0.95766870D-03 -0.25644008D-05 -0.50302943D-05 -0.22965395D-06  0.94091706D-04
  0.17572027D-03  0.30481400D-03  0.49424536D-03  0.76094699D-03  0.10837594D-02
  0.13935740D-02  0.14628380D-02  0.10343301D-02 -0.22905673D-04 -0.74317955D-03
 -0.40921483D-03  0.17305626D-05 -0.47080401D-04 -0.87858994D-04 -0.15260056D-03
 -0.24717904D-03 -0.38181928D-03 -0.54434075D-03 -0.70800951D-03 -0.75454729D-03
 -0.55963203D-03  0.17419267D-04  0.50699747D-03  0.49668253D-03 -0.23198020D-03
  0.16562402D-03  0.97916076D-03  0.27443108D-03 -0.18597487D-06 -0.24398890D-06
 -0.26761863D-06 -0.22020085D-06 -0.11609424D-06 -0.30202235D-07  0.33421852D-10
 -0.13217977D-06 -0.17341267D-06 -0.19020726D-06 -0.15650555D-06 -0.82512821D-07
 -0.21465936D-07  0.23754247D-10  0.19263496D-02  0.25272658D-02  0.27720254D-02
  0.22808664D-02  0.12025179D-02  0.31283832D-03 -0.34618749D-06  0.14232559D-06
  0.18687436D-06  0.21024626D-06  0.17714837D-06  0.99094313D-07  0.24664373D-07
 -0.11312270D-07  0.10130847D-06  0.13301864D-06  0.14965494D-06  0.12609560D-06
  0.70536113D-07  0.17556295D-07 -0.80521628D-08 -0.18168429D-02 -0.23855258D-02
 -0.26838774D-02 -0.22613696D-02 -0.12649785D-02 -0.31485056D-03  0.14440564D-03
  0.17643215D-07  0.12523561D-07  0.58791404D-04 -0.73036566D-09 -0.57498762D-09
  0.33634451D-03 -0.67808142D-10 -0.45050591D-10  0.10422660D-04  0.45498049D-05
  0.45577540D-05 -0.91075589D-05  0.25413477D-07 -0.15877926D-07 -0.11355375D-07
 -0.13627834D-04 -0.13643479D-04  0.27271312D-04 -0.50670161D-07  0.18806528D-07
  0.13443230D-07 -0.82207236D-05 -0.82223555D-05  0.16443079D-04 -0.53462592D-08
  0.19429269D-09  0.12668222D-09  0.13886685D-08  0.96214686D-09 -0.22590911D-04
  0.13393012D-08  0.94007273D-09  0.33887866D-04 -0.55053067D-08 -0.38265133D-08
  0.33884868D-04 -0.84733811D-08  0.10808368D-08  0.77420867D-09 -0.15501611D-04
  0.10941324D-08  0.77760134D-09  0.23251282D-04 -0.43366428D-08 -0.31002274D-08
  0.23253550D-04  0.68149416D-08
MO    2     MO 0.0        OCC NO =    2.0000000  ORB. ENERGY =  -88.633111
  0.12703220D-02  0.23747933D-02  0.41043842D-02  0.66386573D-02  0.10033942D-01
  0.13818384D-01  0.16150487D-01  0.13955240D-01  0.65087735D-02  0.88375082D-03
  0.23664670D-05  0.46420299D-05  0.21192806D-06  0.88843650D-04  0.16591930D-03
  0.28781270D-03  0.46667834D-03  0.71850443D-03  0.10233117D-02  0.13158460D-02
  0.13812467D-02  0.97663933D-03 -0.21628087D-04 -0.70172798D-03 -0.38639047D-03
  0.16340388D-05 -0.45051480D-04 -0.84072727D-04 -0.14602426D-03 -0.23652691D-03
 -0.36536485D-03 -0.52088249D-03 -0.67749797D-03 -0.72203022D-03 -0.53551479D-03
  0.16668587D-04  0.48514851D-03  0.47527809D-03 -0.22198306D-03  0.15213291D-03
  0.97384895D-03  0.27312987D-03 -0.15770097D-06 -0.20689508D-06 -0.22693237D-06
 -0.18672355D-06 -0.98444348D-07 -0.25610566D-07  0.28340703D-10 -0.11174922D-06
 -0.14660889D-06 -0.16080760D-06 -0.13231504D-06 -0.69759108D-07 -0.18148023D-07
  0.20082638D-10 -0.19468752D-02 -0.25541942D-02 -0.28015617D-02 -0.23051694D-02
 -0.12153309D-02 -0.31617166D-03  0.34987617D-06  0.13753845D-06  0.18058882D-06
  0.20317460D-06  0.17118996D-06  0.95761264D-07  0.23834784D-07 -0.10931780D-07
  0.97380142D-07  0.12786072D-06  0.14385193D-06  0.12120613D-06  0.67801009D-07
  0.16875533D-07 -0.77399326D-08  0.18330319D-02  0.24067820D-02  0.27077920D-02
  0.22815195D-02  0.12762500D-02  0.31765603D-03 -0.14569236D-03  0.15932320D-07
  0.11257689D-07 -0.57973367D-04 -0.76693882D-09 -0.60173980D-09 -0.33400327D-03
 -0.64996372D-10 -0.42884393D-10 -0.10351290D-04  0.47648189D-05  0.47726160D-05
 -0.95374349D-05  0.24944098D-07  0.15860138D-07  0.11279222D-07 -0.14147649D-04
 -0.14161897D-04  0.28309546D-04 -0.46406725D-07 -0.18782671D-07 -0.13345912D-07
 -0.80899359D-05 -0.80915615D-05  0.16181497D-04 -0.52820200D-08 -0.19403240D-09
 -0.12421213D-09  0.13826248D-08  0.95201739D-09  0.22326276D-04  0.13354128D-08
  0.93031122D-09 -0.33490859D-04 -0.54832871D-08 -0.37863634D-08 -0.33487970D-04
  0.84560086D-08  0.10821885D-08  0.77092113D-09  0.15641875D-04  0.10951640D-08
  0.77427890D-09 -0.23461695D-04 -0.43417296D-08 -0.30870423D-08 -0.23463931D-04
 -0.68293146D-08  0.58511958D+00  0.10938471D+01  0.18905092D+01  0.30578138D+01
  0.46217066D+01  0.63648483D+01  0.74390320D+01  0.64278849D+01  0.29979884D+01
  0.40706206D+00  0.10900119D-02  0.21381527D-02  0.97615604D-04 -0.11627278D-02
 -0.21714437D-02 -0.37667050D-02 -0.61075820D-02 -0.94033178D-02 -0.13392437D-01
 -0.17220935D-01 -0.18076857D-01 -0.12781619D-01  0.28305431D-03  0.91837586D-02
  0.50568267D-02 -0.21385234D-04  0.44962203D-03  0.83906122D-03  0.14573489D-02
  0.23605819D-02  0.36464082D-02  0.51985027D-02  0.67615539D-02  0.72059938D-02
  0.53445358D-02 -0.16635555D-03 -0.48418710D-02 -0.47433624D-02  0.22154316D-02
 -0.29941915D-02 -0.11869886D-02 -0.29221743D-03  0.63914332D-05  0.83852123D-05
  0.91972998D-05  0.75676841D-05  0.39898327D-05  0.10379659D-05 -0.11486151D-08
  0.44459356D-05  0.58328254D-05  0.63977204D-05  0.52641457D-05  0.27753617D-05
  0.72201795D-06 -0.79898647D-09  0.46985324D-02  0.61642187D-02  0.67612084D-02
  0.55632294D-02  0.29330446D-02  0.76303957D-03 -0.84438107D-06 -0.11657035D-05
 -0.15305758D-05 -0.17220010D-05 -0.14509160D-05 -0.81162207D-06 -0.20201108D-06
  0.92652015D-07 -0.81485477D-06 -0.10699093D-05 -0.12037201D-05 -0.10142252D-05
 -0.56734334D-06 -0.14121060D-06  0.64765986D-07 -0.37140254D-02 -0.48765379D-02
 -0.54864340D-02 -0.46227354D-02 -0.25858934D-02 -0.64362360D-03  0.29519680D-03
 -0.39171202D-06 -0.27319021D-06 -0.19741762D-03 -0.81291966D-08 -0.56120744D-08
 -0.52027860D-03  0.65846693D-09  0.45915312D-09 -0.15922553D-04  0.44429762D-04
  0.44391422D-04 -0.88821184D-04 -0.12011974D-06  0.15508364D-07  0.11176856D-07
 -0.11449774D-03 -0.11417431D-03  0.22867205D-03  0.10027232D-05 -0.18930197D-07
 -0.14822428D-07  0.28825140D-04  0.28829096D-04 -0.57654235D-04  0.12677399D-07
 -0.39445820D-09 -0.27844862D-09 -0.23955644D-08 -0.16117753D-08  0.61174927D-04
 -0.20987391D-08 -0.16049818D-08 -0.91768573D-04  0.92854323D-08  0.64403077D-08
 -0.91756208D-04  0.38215319D-07 -0.48420917D-09 -0.35938752D-09 -0.29942051D-04
 -0.52316615D-09 -0.36007580D-09  0.44914189D-04  0.19757937D-08  0.14382384D-08
  0.44911964D-04 -0.67818899D-08
MO    3     MO 0.0        OCC NO =    2.0000000  ORB. ENERGY =   -7.917265
 -0.20084726D-02 -0.37547227D-02 -0.64893332D-02 -0.10496205D-01 -0.15864400D-01
 -0.21847881D-01 -0.25535108D-01 -0.22064260D-01 -0.10290849D-01 -0.13972750D-02
 -0.37415583D-05 -0.73393906D-05 -0.33507384D-06 -0.15863935D+00 -0.29626574D+00
 -0.51391878D+00 -0.83330153D+00 -0.12829626D+01 -0.18272269D+01 -0.23495766D+01
 -0.24663562D+01 -0.17438886D+01  0.38619144D-01  0.12530065D+01  0.68993939D+00
 -0.29177420D-02 -0.51064089D-03 -0.95293145D-03 -0.16551279D-02 -0.26809399D-02
 -0.41412675D-02 -0.59039991D-02 -0.76791743D-02 -0.81839298D-02 -0.60698506D-02
  0.18893191D-03  0.54989684D-02  0.53870911D-02 -0.25160910D-02  0.50542195D-01
  0.17758386D-02  0.33273788D-03  0.86881967D-03  0.11398441D-02  0.12502352D-02
  0.10287134D-02  0.54235803D-03  0.14109593D-03 -0.15613703D-06  0.58364345D-03
  0.76570843D-03  0.83986544D-03  0.69105459D-03  0.36433765D-03  0.94783436D-04
 -0.10488753D-06 -0.57075199D-01 -0.74879553D-01 -0.82131456D-01 -0.67579064D-01
 -0.35629019D-01 -0.92689867D-02  0.10257079D-04  0.32618754D-04  0.42828622D-04
  0.48185088D-04  0.40599580D-04  0.22710836D-04  0.56526808D-05 -0.25925918D-05
  0.21154457D-04  0.27775931D-04  0.31249795D-04  0.26330315D-04  0.14728809D-04
  0.36659706D-05 -0.16813907D-05 -0.39320355D-02 -0.51627865D-02 -0.58084829D-02
 -0.48940860D-02 -0.27376831D-02 -0.68140375D-03  0.31252459D-03  0.21772324D-04
  0.13806084D-04 -0.10661888D-02  0.23376043D-06  0.19545534D-06 -0.66441481D-03
 -0.20473819D-07 -0.14327515D-07 -0.18772989D-04 -0.47470097D-04 -0.67218532D-04
  0.11468863D-03 -0.61261246D-04  0.44366221D-06  0.15247762D-06 -0.22239782D-03
  0.39859595D-04  0.18253823D-03  0.81524224D-03 -0.12566000D-05  0.54226737D-06
 -0.37232553D-04 -0.35813410D-04  0.73045964D-04  0.44063353D-05 -0.67250428D-08
 -0.90852159D-08  0.40746139D-07  0.22884393D-07 -0.16120724D-04 -0.63893422D-07
 -0.44104085D-08  0.22074020D-04 -0.58344996D-07 -0.64242770D-07  0.26288152D-04
  0.12702422D-04  0.16123114D-07  0.54932753D-08 -0.31502195D-04  0.18775796D-07
  0.58787523D-08  0.46708834D-04 -0.67145140D-07 -0.22358578D-07  0.47797750D-04
  0.33488000D-05 -0.30346363D-04 -0.56730762D-04 -0.98048469D-04 -0.15858900D-03
 -0.23969799D-03 -0.33010346D-03 -0.38581441D-03 -0.33337276D-03 -0.15548624D-03
 -0.21111673D-04 -0.56531857D-07 -0.11089213D-06 -0.50626892D-08 -0.73593261D-02
 -0.13743855D-01 -0.23840843D-01 -0.38657103D-01 -0.59517010D-01 -0.84765592D-01
 -0.10899755D+00 -0.11441499D+00 -0.80899506D-01  0.17915534D-02  0.58127341D-01
  0.32006491D-01 -0.13535491D-03  0.40089314D-04  0.74812590D-04  0.12994051D-03
  0.21047480D-03  0.32512197D-03  0.46351023D-03  0.60287540D-03  0.64250266D-03
  0.47653086D-03 -0.14832636D-04 -0.43171214D-03 -0.42292889D-03  0.19753287D-03
  0.22316455D-02 -0.12539172D-02 -0.33185293D-03  0.44460771D-04  0.58330110D-04
  0.63979240D-04  0.52643133D-04  0.27754501D-04  0.72204093D-05 -0.79901190D-08
  0.29137909D-04  0.38227349D-04  0.41929576D-04  0.34500319D-04  0.18189251D-04
  0.47319833D-05 -0.52364220D-08 -0.86375797D-03 -0.11332034D-02 -0.12429514D-02
 -0.10227201D-02 -0.53919828D-03 -0.14027391D-03  0.15522738D-06 -0.23676597D-05
 -0.31087515D-05 -0.34975551D-05 -0.29469546D-05 -0.16484851D-05 -0.41030458D-06
  0.18818545D-06 -0.11522475D-05 -0.15129080D-05 -0.17021235D-05 -0.14341677D-05
 -0.80225331D-06 -0.19967922D-06  0.91582510D-07  0.35934893D-02  0.47182733D-02
  0.53083756D-02  0.44727078D-02  0.25019700D-02  0.62273525D-03 -0.28561639D-03
  0.56778437D-06  0.37796037D-06  0.21935875D-03  0.47533942D-07 -0.42269896D-08
 -0.43029992D-03  0.13576089D-08  0.14161155D-08 -0.11585936D-04  0.13135402D-04
  0.14482480D-04 -0.27617882D-04  0.41759481D-05  0.43275401D-06  0.23031013D-06
 -0.93703988D-05 -0.11487271D-05  0.10519126D-04  0.25612871D-04 -0.44334812D-06
 -0.31685840D-06  0.91378384D-05  0.89821425D-05 -0.18119981D-04 -0.48365356D-06
 -0.27347366D-09 -0.11945706D-07 -0.28214414D-07 -0.22540044D-07 -0.40529512D-04
 -0.34107834D-07 -0.24175865D-07  0.60836446D-04  0.11875108D-06  0.91795997D-07
  0.60752092D-04 -0.30435691D-06 -0.31170296D-07 -0.15968321D-07  0.21095901D-04
 -0.30696187D-07 -0.15815144D-07 -0.32376099D-04  0.12420707D-06  0.63720105D-07
 -0.30911604D-04  0.45522829D-05
MO    4     MO 0.0        OCC NO =    2.0000000  ORB. ENERGY =   -7.915350
  0.15370065D-03  0.28733443D-03  0.49660361D-03  0.80323405D-03  0.12140412D-02
  0.16719340D-02  0.19541032D-02  0.16884926D-02  0.78751896D-03  0.10692806D-03
  0.28632700D-06  0.56165522D-06  0.25641907D-07  0.71428259D-02  0.13339532D-01
  0.23139482D-01  0.37519869D-01  0.57766110D-01  0.82271916D-01  0.10579100D+00
  0.11104907D+00  0.78519565D-01 -0.17388486D-02 -0.56417322D-01 -0.31064909D-01
  0.13137297D-03  0.87091057D-04  0.16252480D-03  0.28228612D-03  0.45724088D-03
  0.70630334D-03  0.10069415D-02  0.13097020D-02  0.13957893D-02  0.10352279D-02
 -0.32222800D-04 -0.93786255D-03 -0.91878160D-03  0.42912550D-03 -0.23907242D-02
 -0.14202420D-02 -0.36333550D-03 -0.35054044D-04 -0.45988997D-04 -0.50442920D-04
 -0.41505234D-04 -0.21882380D-04 -0.56927611D-05  0.62996206D-08 -0.24127395D-04
 -0.31653828D-04 -0.34719425D-04 -0.28567693D-04 -0.15061453D-04 -0.39182781D-05
  0.43359742D-08  0.60872215D-02  0.79861031D-02  0.87595378D-02  0.72074865D-02
  0.37999294D-02  0.98856204D-03 -0.10939447D-05 -0.53839206D-05 -0.70691205D-05
 -0.79532373D-05 -0.67012037D-05 -0.37485594D-05 -0.93300880D-06  0.42792279D-06
 -0.30874737D-05 -0.40538717D-05 -0.45608790D-05 -0.38428854D-05 -0.21496562D-05
 -0.53504505D-06  0.24539744D-06 -0.32258577D-02 -0.42355708D-02 -0.47653027D-02
 -0.40151278D-02 -0.22460062D-02 -0.55902637D-03  0.25639643D-03 -0.14287426D-05
 -0.88273752D-06 -0.12081763D-03  0.26500413D-07 -0.22031414D-07  0.49223070D-03
  0.32439091D-08  0.27263804D-08  0.13332670D-04  0.17229657D-04  0.20374657D-04
 -0.37604314D-04  0.97638152D-05 -0.47693407D-06 -0.24473447D-06  0.10904320D-04
 -0.48044562D-05 -0.60998638D-05 -0.48860243D-04  0.56234697D-06  0.26831968D-06
  0.12550490D-04  0.12266137D-04 -0.24816627D-04 -0.88641737D-06  0.86491200D-09
  0.12777292D-07 -0.32194872D-07 -0.24657251D-07  0.42057587D-04 -0.28480397D-07
 -0.23733339D-07 -0.62943667D-04  0.12506501D-06  0.97705093D-07 -0.63229094D-04
 -0.82373082D-06 -0.32898376D-07 -0.16504158D-07 -0.18369952D-04 -0.32656078D-07
 -0.16394425D-07  0.28337071D-04  0.13135121D-06  0.65906900D-07  0.26772784D-04
 -0.48586486D-05 -0.20169898D-02 -0.37706453D-02 -0.65168523D-02 -0.10540716D-01
 -0.15931675D-01 -0.21940531D-01 -0.25643394D-01 -0.22157827D-01 -0.10334489D-01
 -0.14032004D-02 -0.37574249D-05 -0.73705145D-05 -0.33649477D-06 -0.15862533D+00
 -0.29623956D+00 -0.51387335D+00 -0.83322787D+00 -0.12828492D+01 -0.18270654D+01
 -0.23493689D+01 -0.24661382D+01 -0.17437345D+01  0.38615730D-01  0.12528958D+01
  0.68987841D+00 -0.29174841D-02 -0.51700175D-03 -0.96480175D-03 -0.16757452D-02
 -0.27143354D-02 -0.41928537D-02 -0.59775430D-02 -0.77748309D-02 -0.82858739D-02
 -0.61454604D-02  0.19128536D-03  0.55674670D-02  0.54541960D-02 -0.25474330D-02
  0.50566457D-01  0.18966226D-02  0.36418698D-03  0.87108561D-03  0.11428169D-02
  0.12534959D-02  0.10313963D-02  0.54377254D-03  0.14146391D-03 -0.15654424D-06
  0.58149897D-03  0.76289498D-03  0.83677951D-03  0.68851545D-03  0.36299896D-03
  0.94435172D-04 -0.10450215D-06  0.57735992D-01  0.75746478D-01  0.83082341D-01
  0.68361467D-01  0.36041517D-01  0.93762993D-02 -0.10375831D-04  0.33072635D-04
  0.43424571D-04  0.48855571D-04  0.41164512D-04  0.23026851D-04  0.57313363D-05
 -0.26286670D-05  0.21297476D-04  0.27963716D-04  0.31461066D-04  0.26508327D-04
  0.14828386D-04  0.36907552D-05 -0.16927582D-05  0.36561989D-02  0.48006115D-02
  0.54010116D-02  0.45507606D-02  0.25456317D-02  0.63360254D-03 -0.29060066D-03
  0.21872475D-04  0.13786397D-04  0.10641426D-02  0.23094131D-06  0.19608814D-06
  0.70614635D-03 -0.20739755D-07 -0.14478023D-07  0.19904370D-04 -0.48492318D-04
 -0.68334702D-04  0.11682702D-03 -0.61658600D-04 -0.48714091D-06 -0.17396624D-06
 -0.22325312D-03  0.38401866D-04  0.18485125D-03  0.81506083D-03  0.13081157D-05
 -0.51021740D-06 -0.38225348D-04 -0.36794109D-04  0.75019457D-04  0.44539037D-05
  0.68010827D-08  0.10181714D-07  0.43967606D-07  0.24970027D-07  0.19635182D-04
 -0.61666517D-07 -0.32379781D-08 -0.27389224D-04 -0.70236300D-07 -0.71672104D-07
 -0.31516321D-04 -0.12554000D-04  0.19118327D-07  0.69528112D-08  0.29659921D-04
  0.21728931D-07  0.73723321D-08 -0.43877440D-04 -0.79083912D-07 -0.28230766D-07
 -0.45102322D-04 -0.37631518D-05
MO    5     MO 0.0        OCC NO =    2.0000000  ORB. ENERGY =   -5.858392
 -0.27356802D-05 -0.51141952D-05 -0.88389261D-05 -0.14296566D-04 -0.21608423D-04
 -0.29758344D-04 -0.34780605D-04 -0.30053067D-04 -0.14016857D-04 -0.19031864D-05
 -0.50962643D-08 -0.99967638D-08 -0.45639403D-09  0.18039894D-04  0.33690271D-04
  0.58440987D-04  0.94760040D-04  0.14589387D-03  0.20778564D-03  0.26718536D-03
  0.28046512D-03  0.19830872D-03 -0.43916296D-05 -0.14248738D-03 -0.78457416D-04
  0.33179508D-06 -0.14625340D-05 -0.27293048D-05 -0.47404757D-05 -0.76785189D-05
 -0.11861065D-04 -0.16909730D-04 -0.21994035D-04 -0.23439712D-04 -0.17384747D-04
  0.54112262D-06  0.15749675D-04  0.15429246D-04 -0.72063729D-05  0.98548515D-05
 -0.49172708D-05 -0.10831748D-05  0.57073381D+01  0.74877167D+01  0.82128840D+01
  0.67576911D+01  0.35627884D+01  0.92686915D+00 -0.10256752D-02  0.78369717D+01
  0.10281680D+02  0.11277436D+02  0.92792530D+01  0.48922057D+01  0.12727207D+01
 -0.14083952D-02  0.37602893D-01  0.49332948D-01  0.54110724D-01  0.44523161D-01
  0.23473491D-01  0.61066929D-02 -0.67576783D-05 -0.61509302D-02 -0.80762088D-02
 -0.90862795D-02 -0.76558774D-02 -0.42825905D-02 -0.10659281D-02  0.48888597D-03
 -0.84448193D-02 -0.11088099D-01 -0.12474859D-01 -0.10511012D-01 -0.58797128D-02
 -0.14634485D-02  0.67120802D-03 -0.14050185D-03 -0.18447978D-03 -0.20755219D-03
 -0.17487842D-03 -0.97824534D-04 -0.24348327D-04  0.11167316D-04  0.46456597D-01
  0.63791089D-01  0.30021030D-03  0.16577954D-04  0.22743317D-04  0.13111808D-05
 -0.18394953D-05 -0.25232746D-05  0.41364257D-07  0.19126092D-06  0.33587429D-06
 -0.52713521D-06 -0.19983019D-05  0.74535860D-04  0.10249422D-03  0.90796440D-05
  0.67417367D-05 -0.15821381D-04  0.30345910D-04 -0.74659815D-03 -0.10254272D-02
  0.51928436D-08 -0.41740475D-08 -0.10187961D-08  0.14572554D-06  0.23814043D-05
  0.32639759D-05 -0.49785997D-04 -0.44983099D-04  0.18489312D-05  0.52037563D-04
  0.15425033D-05 -0.29754889D-05  0.97320427D-04  0.13340679D-03 -0.25713047D-05
  0.18335451D-06  0.53106147D-05  0.59439213D-05 -0.14179229D-06 -0.14404375D-07
  0.40305998D-05  0.22552686D-06 -0.15917440D-04 -0.21862364D-04  0.19985000D-06
  0.61426606D-07 -0.43392449D-06 -0.81119661D-06 -0.14020010D-05 -0.22676737D-05
 -0.34274561D-05 -0.47201694D-05 -0.55167837D-05 -0.47669173D-05 -0.22233072D-05
 -0.30187709D-06 -0.80835247D-09 -0.15856534D-08 -0.72391700D-10  0.65199536D-06
  0.12176291D-05  0.21121661D-05  0.34248043D-05  0.52728761D-05  0.75097599D-05
  0.96565764D-05  0.10136532D-04  0.71672462D-05 -0.15872167D-06 -0.51497590D-05
 -0.28355971D-05  0.11991692D-07 -0.62178086D-06 -0.11603351D-05 -0.20153631D-05
 -0.32644411D-05 -0.50426061D-05 -0.71889927D-05 -0.93505312D-05 -0.99651458D-05
 -0.73909414D-05  0.23005256D-06  0.66958079D-05  0.65595807D-05 -0.30637132D-05
 -0.21969021D-05  0.52438225D-05  0.14602186D-05  0.10821400D+00  0.14197087D+00
  0.15572041D+00  0.12812922D+00  0.67552258D-01  0.17573905D-01 -0.19447317D-04
  0.14853857D+00  0.19487452D+00  0.21374765D+00  0.17587495D+00  0.92724752D-01
  0.24122598D-01 -0.26694114D-04 -0.44746704D-02 -0.58705239D-02 -0.64390700D-02
 -0.52981688D-02 -0.27932994D-02 -0.72668448D-03  0.80415046D-06 -0.52247701D-03
 -0.68601549D-03 -0.77181368D-03 -0.65031138D-03 -0.36377507D-03 -0.90542874D-04
  0.41527325D-04 -0.71829358D-03 -0.94312384D-03 -0.10610779D-02 -0.89403836D-03
 -0.50011253D-03 -0.12447699D-03  0.57091145D-04 -0.40177401D-04 -0.52753172D-04
 -0.59350876D-04 -0.50007600D-04 -0.27973550D-04 -0.69625597D-05  0.31933654D-05
  0.86839218D-03  0.11918924D-02 -0.43967711D-04  0.14885231D-04  0.20437518D-04
  0.27541143D-05  0.23423606D-06  0.32035874D-06  0.66262469D-07 -0.12152995D-05
 -0.12257290D-05  0.24410285D-05  0.15471211D-06  0.32488518D-04  0.44661400D-04
  0.11717502D-05  0.11400319D-05 -0.23117821D-05  0.26145490D-06  0.53443782D-04
  0.73471292D-04 -0.12752228D-06 -0.12765243D-06  0.25517471D-06 -0.23268098D-07
  0.48236257D-05  0.66210629D-05  0.33211094D-05  0.48220391D-05  0.14300976D-05
  0.46258651D-05  0.54232742D-05 -0.21401743D-05 -0.14589193D-04 -0.19889391D-04
 -0.21501185D-05 -0.93415014D-07 -0.20222583D-05 -0.26318971D-05  0.26497974D-06
 -0.14842392D-05 -0.24702094D-05 -0.39172058D-06  0.75510141D-05  0.10365901D-04
 -0.40321865D-06  0.12573107D-06
MO    6     MO 0.0        OCC NO =    2.0000000  ORB. ENERGY =   -5.856447
  0.75153218D-05  0.14049457D-04  0.24281849D-04  0.39274801D-04  0.59361562D-04
  0.81750612D-04  0.95547512D-04  0.82560259D-04  0.38506399D-04  0.52283371D-05
  0.14000199D-07  0.27462602D-07  0.12537825D-08 -0.85539512D-03 -0.15974868D-02
 -0.27710881D-02 -0.44932235D-02 -0.69178291D-02 -0.98525425D-02 -0.12669091D-01
 -0.13298775D-01 -0.94031765D-02  0.20823728D-03  0.67563038D-02  0.37202042D-02
 -0.15732681D-04 -0.11756302D-04 -0.21938999D-04 -0.38105415D-04 -0.61722317D-04
 -0.95342916D-04 -0.13592565D-03 -0.17679487D-03 -0.18841568D-03 -0.13974399D-03
  0.43497115D-05  0.12660078D-03  0.12402506D-03 -0.57927061D-04  0.56326135D-03
 -0.17497336D-02 -0.43067184D-03 -0.79339825D-01 -0.10408953D+00 -0.11417035D+00
 -0.93941172D-01 -0.49527644D-01 -0.12884752D-01  0.14258292D-04 -0.10408160D+00
 -0.13654940D+00 -0.14977388D+00 -0.12323632D+00 -0.64972625D-01 -0.16902806D-01
  0.18704678D-04  0.79669260D+01  0.10452173D+02  0.11464441D+02  0.94331236D+01
  0.49733293D+01  0.12938252D+01 -0.14317495D-02 -0.13781744D-03 -0.18095514D-03
 -0.20358673D-03 -0.17153721D-03 -0.95955512D-04 -0.23883132D-04  0.10953955D-04
 -0.19406265D-03 -0.25480544D-03 -0.28667330D-03 -0.24154393D-03 -0.13511629D-03
 -0.33630168D-04  0.15424416D-04 -0.26028339D-01 -0.34175368D-01 -0.38449593D-01
 -0.32396689D-01 -0.18122254D-01 -0.45105921D-02  0.20687749D-02 -0.65314993D-03
 -0.85685756D-03  0.63724294D-01  0.82874965D-05  0.11027273D-04  0.63053119D-03
  0.16048148D-06  0.22580064D-06  0.16507362D-04  0.15193002D-03  0.15416967D-03