 Molden2AIM, Version 4.0.0 (06/02/2016)           Time: Fri Jun 29 23:10:35 2018
GAUSSIAN             14 MOL ORBITALS    262 PRIMITIVES        2 NUCLEI
  Si   1    (CENTRE  1)   0.00000000  0.00000000  1.93453720  CHARGE = 14.0
  Si   2    (CENTRE  2)   0.00000000  0.00000000 -1.93453720  CHARGE = 14.0
CENTRE ASSIGNMENTS    1  1  1  1  1  1  1  1  1  1  1  1  1  1  1  1  1  1  1  1
CENTRE ASSIGNMENTS    1  1  1  1  1  1  1  1  1  1  1  1  1  1  1  1  1  1  1  1
CENTRE ASSIGNMENTS    1  1  1  1  1  1  1  1  1  1  1  1  1  1  1  1  1  1  1  1
CENTRE ASSIGNMENTS    1  1  1  1  1  1  1  1  1  1  1  1  1  1  1  1  1  1  1  1
CENTRE ASSIGNMENTS    1  1  1  1  1  1  1  1  1  1  1  1  1  1  1  1  1  1  1  1
CENTRE ASSIGNMENTS    1  1  1  1  1  1  1  1  1  1  1  1  1  1  1  1  1  1  1  1
CENTRE ASSIGNMENTS    1  1  1  1  1  1  1  1  1  1  1  2  2  2  2  2  2  2  2  2
CENTRE ASSIGNMENTS    2  2  2  2  2  2  2  2  2  2  2  2  2  2  2  2  2  2  2  2
CENTRE ASSIGNMENTS    2  2  2  2  2  2  2  2  2  2  2  2  2  2  2  2  2  2  2  2
CENTRE ASSIGNMENTS    2  2  2  2  2  2  2  2  2  2  2  2  2  2  2  2  2  2  2  2
CENTRE ASSIGNMENTS    2  2  2  2  2  2  2  2  2  2  2  2  2  2  2  2  2  2  2  2
CENTRE ASSIGNMENTS    2  2  2  2  2  2  2  2  2  2  2  2  2  2  2  2  2  2  2  2
CENTRE ASSIGNMENTS    2  2  2  2  2  2  2  2  2  2  2  2  2  2  2  2  2  2  2  2
CENTRE ASSIGNMENTS    2  2
TYPE ASSIGNMENTS      1  1  1  1  1  1  1  1  1  1  1  1  1  1  1  1  1  1  1  1
TYPE ASSIGNMENTS      1  1  1  1  1  1  1  1  1  1  1  1  1  1  1  1  1  1  1  1
TYPE ASSIGNMENTS      1  1  2  2  2  2  2  2  2  3  3  3  3  3  3  3  4  4  4  4
TYPE ASSIGNMENTS      4  4  4  2  2  2  2  2  2  2  3  3  3  3  3  3  3  4  4  4
TYPE ASSIGNMENTS      4  4  4  4  2  3  4  2  3  4  2  3  4  5  6  7  8  9 10  5
TYPE ASSIGNMENTS      6  7  8  9 10  5  6  7  8  9 10 11 12 13 17 14 15 18 19 16
TYPE ASSIGNMENTS     20 11 12 13 17 14 15 18 19 16 20  1  1  1  1  1  1  1  1  1
TYPE ASSIGNMENTS      1  1  1  1  1  1  1  1  1  1  1  1  1  1  1  1  1  1  1  1
TYPE ASSIGNMENTS      1  1  1  1  1  1  1  1  1  1  1  1  1  2  2  2  2  2  2  2
TYPE ASSIGNMENTS      3  3  3  3  3  3  3  4  4  4  4  4  4  4  2  2  2  2  2  2
TYPE ASSIGNMENTS      2  3  3  3  3  3  3  3  4  4  4  4  4  4  4  2  3  4  2  3
TYPE ASSIGNMENTS      4  2  3  4  5  6  7  8  9 10  5  6  7  8  9 10  5  6  7  8
TYPE ASSIGNMENTS      9 10 11 12 13 17 14 15 18 19 16 20 11 12 13 17 14 15 18 19
TYPE ASSIGNMENTS     16 20
EXPONENTS  0.2549000D+06 0.3819000D+05 0.8690000D+04 0.2462000D+04 0.8048000D+03
EXPONENTS  0.2913000D+03 0.1136000D+03 0.4675000D+02 0.1982000D+02 0.7708000D+01
EXPONENTS  0.3340000D+01 0.1402000D+01 0.2070000D+00 0.2549000D+06 0.3819000D+05
EXPONENTS  0.8690000D+04 0.2462000D+04 0.8048000D+03 0.2913000D+03 0.1136000D+03
EXPONENTS  0.4675000D+02 0.1982000D+02 0.7708000D+01 0.3340000D+01 0.1402000D+01
EXPONENTS  0.2070000D+00 0.2549000D+06 0.3819000D+05 0.8690000D+04 0.2462000D+04
EXPONENTS  0.8048000D+03 0.2913000D+03 0.1136000D+03 0.4675000D+02 0.1982000D+02
EXPONENTS  0.7708000D+01 0.3340000D+01 0.1402000D+01 0.2070000D+00 0.4387000D+00
EXPONENTS  0.7944000D-01 0.3300000D-01 0.4815000D+03 0.1139000D+03 0.3623000D+02
EXPONENTS  0.1334000D+02 0.5252000D+01 0.2120000D+01 0.2528000D+00 0.4815000D+03
EXPONENTS  0.1139000D+03 0.3623000D+02 0.1334000D+02 0.5252000D+01 0.2120000D+01
EXPONENTS  0.2528000D+00 0.4815000D+03 0.1139000D+03 0.3623000D+02 0.1334000D+02
EXPONENTS  0.5252000D+01 0.2120000D+01 0.2528000D+00 0.4815000D+03 0.1139000D+03
EXPONENTS  0.3623000D+02 0.1334000D+02 0.5252000D+01 0.2120000D+01 0.2528000D+00
EXPONENTS  0.4815000D+03 0.1139000D+03 0.3623000D+02 0.1334000D+02 0.5252000D+01
EXPONENTS  0.2120000D+01 0.2528000D+00 0.4815000D+03 0.1139000D+03 0.3623000D+02
EXPONENTS  0.1334000D+02 0.5252000D+01 0.2120000D+01 0.2528000D+00 0.8561000D+00
EXPONENTS  0.8561000D+00 0.8561000D+00 0.7889000D-01 0.7889000D-01 0.7889000D-01
EXPONENTS  0.2370000D-01 0.2370000D-01 0.2370000D-01 0.1590000D+00 0.1590000D+00
EXPONENTS  0.1590000D+00 0.1590000D+00 0.1590000D+00 0.1590000D+00 0.4810000D+00
EXPONENTS  0.4810000D+00 0.4810000D+00 0.4810000D+00 0.4810000D+00 0.4810000D+00
EXPONENTS  0.5560000D-01 0.5560000D-01 0.5560000D-01 0.5560000D-01 0.5560000D-01
EXPONENTS  0.5560000D-01 0.3360000D+00 0.3360000D+00 0.3360000D+00 0.3360000D+00
EXPONENTS  0.3360000D+00 0.3360000D+00 0.3360000D+00 0.3360000D+00 0.3360000D+00
EXPONENTS  0.3360000D+00 0.1250000D+00 0.1250000D+00 0.1250000D+00 0.1250000D+00
EXPONENTS  0.1250000D+00 0.1250000D+00 0.1250000D+00 0.1250000D+00 0.1250000D+00
EXPONENTS  0.1250000D+00 0.2549000D+06 0.3819000D+05 0.8690000D+04 0.2462000D+04
EXPONENTS  0.8048000D+03 0.2913000D+03 0.1136000D+03 0.4675000D+02 0.1982000D+02
EXPONENTS  0.7708000D+01 0.3340000D+01 0.1402000D+01 0.2070000D+00 0.2549000D+06
EXPONENTS  0.3819000D+05 0.8690000D+04 0.2462000D+04 0.8048000D+03 0.2913000D+03
EXPONENTS  0.1136000D+03 0.4675000D+02 0.1982000D+02 0.7708000D+01 0.3340000D+01
EXPONENTS  0.1402000D+01 0.2070000D+00 0.2549000D+06 0.3819000D+05 0.8690000D+04
EXPONENTS  0.2462000D+04 0.8048000D+03 0.2913000D+03 0.1136000D+03 0.4675000D+02
EXPONENTS  0.1982000D+02 0.7708000D+01 0.3340000D+01 0.1402000D+01 0.2070000D+00
EXPONENTS  0.4387000D+00 0.7944000D-01 0.3300000D-01 0.4815000D+03 0.1139000D+03
EXPONENTS  0.3623000D+02 0.1334000D+02 0.5252000D+01 0.2120000D+01 0.2528000D+00
EXPONENTS  0.4815000D+03 0.1139000D+03 0.3623000D+02 0.1334000D+02 0.5252000D+01
EXPONENTS  0.2120000D+01 0.2528000D+00 0.4815000D+03 0.1139000D+03 0.3623000D+02
EXPONENTS  0.1334000D+02 0.5252000D+01 0.2120000D+01 0.2528000D+00 0.4815000D+03
EXPONENTS  0.1139000D+03 0.3623000D+02 0.1334000D+02 0.5252000D+01 0.2120000D+01
EXPONENTS  0.2528000D+00 0.4815000D+03 0.1139000D+03 0.3623000D+02 0.1334000D+02
EXPONENTS  0.5252000D+01 0.2120000D+01 0.2528000D+00 0.4815000D+03 0.1139000D+03
EXPONENTS  0.3623000D+02 0.1334000D+02 0.5252000D+01 0.2120000D+01 0.2528000D+00
EXPONENTS  0.8561000D+00 0.8561000D+00 0.8561000D+00 0.7889000D-01 0.7889000D-01
EXPONENTS  0.7889000D-01 0.2370000D-01 0.2370000D-01 0.2370000D-01 0.1590000D+00
EXPONENTS  0.1590000D+00 0.1590000D+00 0.1590000D+00 0.1590000D+00 0.1590000D+00
EXPONENTS  0.4810000D+00 0.4810000D+00 0.4810000D+00 0.4810000D+00 0.4810000D+00
EXPONENTS  0.4810000D+00 0.5560000D-01 0.5560000D-01 0.5560000D-01 0.5560000D-01
EXPONENTS  0.5560000D-01 0.5560000D-01 0.3360000D+00 0.3360000D+00 0.3360000D+00
EXPONENTS  0.3360000D+00 0.3360000D+00 0.3360000D+00 0.3360000D+00 0.3360000D+00
EXPONENTS  0.3360000D+00 0.3360000D+00 0.1250000D+00 0.1250000D+00 0.1250000D+00
EXPONENTS  0.1250000D+00 0.1250000D+00 0.1250000D+00 0.1250000D+00 0.1250000D+00
EXPONENTS  0.1250000D+00 0.1250000D+00
MO    1     MO 0.0        OCC NO =    2.0000000  ORB. ENERGY =  -65.864061
  0.50600833D+00  0.94651823D+00  0.16345944D+01  0.26402961D+01  0.39762316D+01
  0.54076563D+01  0.61560684D+01  0.49872596D+01  0.20244272D+01  0.18459992D+00
 -0.70942158D-02  0.23722547D-02  0.13312556D-03 -0.11862259D-02 -0.22202883D-02
 -0.38400741D-02 -0.62413462D-02 -0.95492088D-02 -0.13550987D-01 -0.16998588D-01
 -0.17331533D-01 -0.10648839D-01  0.23208273D-02  0.85008468D-02  0.38879881D-02
 -0.20637654D-04  0.49779461D-03  0.93104970D-03  0.16123258D-02  0.26178484D-02
  0.40183443D-02  0.57078789D-02  0.72413497D-02  0.74967535D-02  0.48288202D-02
 -0.11876735D-02 -0.48413225D-02 -0.42224756D-02  0.21519934D-02 -0.23335279D-02
 -0.63344522D-03  0.88115771D-04 -0.23195254D-04 -0.30595735D-04 -0.33984346D-04
 -0.29085810D-04 -0.16619398D-04 -0.53933570D-05 -0.37976183D-08 -0.32357171D-04
 -0.42680776D-04 -0.47407857D-04 -0.40574444D-04 -0.23183911D-04 -0.75236845D-05
 -0.52976434D-08 -0.57856411D-02 -0.76315588D-02 -0.84767872D-02 -0.72549350D-02
 -0.41454116D-02 -0.13452764D-02 -0.94724796D-06  0.31422762D-05  0.42970223D-05
  0.46712960D-05  0.42880055D-05  0.23371371D-05  0.98622698D-06 -0.34013772D-06
  0.45785336D-05  0.62610858D-05  0.68064309D-05  0.62479477D-05  0.34053852D-05
  0.14370072D-05 -0.49560634D-06  0.48102694D-02  0.65779816D-02  0.71509286D-02
  0.65641785D-02  0.35777438D-02  0.15097392D-02 -0.52069073D-03  0.21854241D-05
  0.30560168D-05  0.33547443D-03  0.14244843D-08 -0.12312379D-08  0.20586135D-03
 -0.83674713D-09 -0.10200165D-08  0.14610745D-05  0.26931104D-04  0.26937130D-04
 -0.53868234D-04  0.37874415D-08  0.63057617D-07  0.10054457D-06 -0.11754004D-03
 -0.11759680D-03  0.23513684D-03 -0.30157863D-07 -0.21767237D-07 -0.56306287D-07
  0.67892980D-05  0.67891905D-05 -0.13578489D-04 -0.35815567D-09 -0.37243069D-09
 -0.81225262D-09  0.88708308D-08  0.15286454D-07 -0.16561763D-04  0.53957944D-08
  0.14156321D-07  0.24841186D-04 -0.32008287D-07 -0.60015683D-07  0.24844102D-04
 -0.72402555D-08  0.12660478D-08  0.14809739D-08  0.81739230D-05  0.14040842D-08
  0.15129646D-08 -0.12260830D-04 -0.52022275D-08 -0.59558864D-08 -0.12260939D-04
  0.20357306D-08 -0.58828987D-03 -0.11004307D-02 -0.19003943D-02 -0.30696322D-02
 -0.46228029D-02 -0.62869902D-02 -0.71571009D-02 -0.57982332D-02 -0.23536174D-02
 -0.21461753D-03  0.82477996D-05 -0.27580048D-05 -0.15477298D-06 -0.22303527D-04
 -0.41746062D-04 -0.72201419D-04 -0.11735036D-03 -0.17954509D-03 -0.25478689D-03
 -0.31960899D-03 -0.32586905D-03 -0.20022043D-03  0.43636404D-04  0.15983369D-03
  0.73102303D-04 -0.38803103D-06  0.17059325D-04  0.31906893D-04  0.55254094D-04
  0.89713159D-04  0.13770788D-03  0.19560791D-03  0.24815966D-03  0.25691229D-03
  0.16548274D-03 -0.40701340D-04 -0.16591119D-03 -0.14470342D-03  0.73748398D-04
  0.22509983D-03  0.34395703D-03 -0.11200285D-03  0.87161628D-06  0.11497068D-05
  0.12770418D-05  0.10929678D-05  0.62451302D-06  0.20266809D-06  0.14270445D-09
  0.12429574D-05  0.16395249D-05  0.18211094D-05  0.15586130D-05  0.89057894D-06
  0.28901228D-06  0.20350189D-09 -0.59188124D-03 -0.78072185D-03 -0.86719019D-03
 -0.74219258D-03 -0.42408287D-03 -0.13762414D-03 -0.96905127D-07 -0.62680213D-06
 -0.85714385D-06 -0.93180170D-06 -0.85534523D-06 -0.46619788D-06 -0.19672655D-06
  0.67848602D-07 -0.89880693D-06 -0.12291069D-05 -0.13361630D-05 -0.12265278D-05
 -0.66850745D-06 -0.28209730D-06  0.97291939D-07  0.35947077D-03  0.49157165D-03
  0.53438790D-03  0.49054015D-03  0.26736430D-03  0.11282260D-03 -0.38911146D-04
 -0.10756082D-06 -0.15354275D-06  0.19908322D-03  0.25301850D-07  0.39801704D-07
 -0.59538597D-04 -0.88983638D-09 -0.13847821D-08 -0.10284873D-04  0.52083245D-04
  0.52082325D-04 -0.10416557D-03  0.15670494D-08  0.68224112D-07  0.10665698D-06
 -0.29260571D-06 -0.29063010D-06  0.58323581D-06 -0.32274004D-08 -0.26687477D-07
 -0.47955806D-07  0.36436613D-05  0.36437219D-05 -0.72873832D-05  0.27319687D-09
  0.10083614D-09  0.43467244D-09 -0.92362898D-08 -0.13515899D-07 -0.33221564D-04
 -0.96558618D-08 -0.13381655D-07  0.49834228D-04  0.37364731D-07  0.53929353D-07
  0.49830463D-04 -0.10209215D-08 -0.24051638D-08 -0.38033906D-08 -0.12547794D-04
 -0.22719873D-08 -0.37040956D-08  0.18821457D-04  0.94874788D-08  0.15114267D-07
  0.18821925D-04  0.27184494D-09
MO    2     MO 0.0        OCC NO =    2.0000000  ORB. ENERGY =  -65.863264
  0.60683391D-03  0.11351184D-02  0.19602984D-02  0.31663930D-02  0.47685226D-02
  0.64851683D-02  0.73827066D-02  0.59810048D-02  0.24278080D-02  0.22138270D-03
 -0.85077862D-05  0.28449424D-05  0.15965172D-06 -0.25104292D-04 -0.46988322D-04
 -0.81268111D-04 -0.13208662D-03 -0.20209146D-03 -0.28678174D-03 -0.35974388D-03
 -0.36679005D-03 -0.22536310D-03  0.49116044D-04  0.17990480D-03  0.82282122D-04
 -0.43675802D-06  0.18234870D-04  0.34105573D-04  0.59061612D-04  0.95895225D-04
  0.14719723D-03  0.20908710D-03  0.26526015D-03  0.27461593D-03  0.17688603D-03
 -0.43506038D-04 -0.17734400D-03 -0.15467483D-03  0.78830344D-04  0.21961702D-03
  0.34245459D-03 -0.11181135D-03  0.74262162D-06  0.97955618D-06  0.10880463D-05
  0.93121426D-06  0.53208835D-06  0.17267427D-06  0.12158494D-09  0.11416873D-05
  0.15059443D-05  0.16727342D-05  0.14316247D-05  0.81801885D-06  0.26546495D-06
  0.18692153D-09  0.57848571D-03  0.76305246D-03  0.84756384D-03  0.72539518D-03
  0.41448498D-03  0.13450941D-03  0.94711958D-07 -0.56303872D-06 -0.76994821D-06
 -0.83701125D-06 -0.76833256D-06 -0.41877245D-06 -0.17671393D-06  0.60946491D-07
 -0.86940844D-06 -0.11889049D-05 -0.12924593D-05 -0.11864101D-05 -0.64664167D-06
 -0.27287037D-06  0.94109680D-07 -0.34832133D-03 -0.47632494D-03 -0.51781319D-03
 -0.47532543D-03 -0.25907166D-03 -0.10932327D-03  0.37704268D-04 -0.93007295D-07
 -0.14298410D-06 -0.19832385D-03  0.22323767D-07  0.38825713D-07  0.60045482D-04
 -0.81322019D-09 -0.13582892D-08  0.10289622D-04  0.52153953D-04  0.52153119D-04
 -0.10430707D-03  0.15825579D-08 -0.60919314D-07 -0.10399866D-06 -0.56776174D-06
 -0.56608909D-06  0.11338508D-05 -0.34669659D-08  0.23316674D-07  0.46845780D-07
  0.36602742D-05  0.36603355D-05 -0.73206097D-05  0.26673760D-09 -0.59242630D-11
 -0.39964777D-09 -0.82799939D-08 -0.13162871D-07  0.33186941D-04 -0.87403910D-08
 -0.13045945D-07 -0.49782332D-04  0.33580373D-07  0.52534558D-07 -0.49778491D-04
  0.89775800D-09 -0.21546074D-08 -0.37069270D-08  0.12568432D-04 -0.20272207D-08
 -0.36069322D-08 -0.18852399D-04  0.84910428D-08  0.14727713D-07 -0.18852896D-04
 -0.24407537D-09  0.50600841D+00  0.94651838D+00  0.16345947D+01  0.26402966D+01
  0.39762323D+01  0.54076571D+01  0.61560694D+01  0.49872604D+01  0.20244275D+01
  0.18459995D+00 -0.70942170D-02  0.23722551D-02  0.13312558D-03 -0.11864218D-02
 -0.22206550D-02 -0.38407082D-02 -0.62423769D-02 -0.95507857D-02 -0.13553225D-01
 -0.17001395D-01 -0.17334395D-01 -0.10650597D-01  0.23212105D-02  0.85022506D-02
  0.38886301D-02 -0.20641062D-04  0.49788494D-03  0.93121865D-03  0.16126184D-02
  0.26183234D-02  0.40190735D-02  0.57089146D-02  0.72426637D-02  0.74981139D-02
  0.48296964D-02 -0.11878890D-02 -0.48422010D-02 -0.42232418D-02  0.21523839D-02
 -0.23332054D-02 -0.63264745D-03  0.87864104D-04 -0.21255108D-04 -0.28036583D-04
 -0.31141757D-04 -0.26652954D-04 -0.15229284D-04 -0.49422346D-05 -0.34799700D-08
 -0.31573231D-04 -0.41646719D-04 -0.46259274D-04 -0.39591418D-04 -0.22622218D-04
 -0.73414030D-05 -0.51692937D-08  0.57859517D-02  0.76319685D-02  0.84772422D-02
  0.72553244D-02  0.41456341D-02  0.13453486D-02  0.94729880D-06  0.28572356D-05
  0.39072329D-05  0.42475557D-05  0.38990340D-05  0.21251319D-05  0.89676484D-06
 -0.30928332D-06  0.44694817D-05  0.61119588D-05  0.66443149D-05  0.60991336D-05
  0.33242755D-05  0.14027804D-05 -0.48380195D-06 -0.48101550D-02 -0.65778252D-02
 -0.71507585D-02 -0.65640224D-02 -0.35776588D-02 -0.15097033D-02  0.52067835D-03
  0.19990801D-05  0.29809814D-05 -0.33513750D-03  0.21213814D-08 -0.97854985D-09
 -0.20600871D-03 -0.77527474D-09 -0.10040990D-08 -0.14854115D-05  0.27054283D-04
  0.27060185D-04 -0.54114468D-04  0.39571415D-08 -0.56115108D-07 -0.98070199D-07
 -0.11755317D-03 -0.11760953D-03  0.23516270D-03 -0.30750170D-07  0.18753644D-07
  0.55898873D-07  0.67984559D-05  0.67983529D-05 -0.13596809D-04 -0.36513235D-09
  0.36898048D-09  0.79532678D-09  0.78536464D-08  0.14855118D-07  0.16487073D-04
  0.40234100D-08  0.13688477D-07 -0.24729223D-04 -0.27584349D-07 -0.58253832D-07
 -0.24731996D-04  0.71857778D-08  0.11566001D-08  0.14483015D-08 -0.82042723D-05
  0.13393317D-08  0.14868098D-08  0.12306373D-04 -0.48091319D-08 -0.58317144D-08
  0.12306444D-04 -0.20190264D-08
MO    3     MO 0.0        OCC NO =    2.0000000  ORB. ENERGY =   -5.241907
 -0.18563431D-02 -0.34723985D-02 -0.59966762D-02 -0.96861952D-02 -0.14587211D-01
 -0.19838538D-01 -0.22584164D-01 -0.18296270D-01 -0.74268174D-02 -0.67722359D-03
  0.26025853D-04 -0.87028578D-05 -0.48838466D-06 -0.12543351D+00 -0.23477700D+00
 -0.40605585D+00 -0.65997039D+00 -0.10097493D+01 -0.14329041D+01 -0.17974591D+01
 -0.18326653D+01 -0.11260260D+01  0.24540815D+00  0.89889375D+00  0.41112236D+00
 -0.21822600D-02 -0.71962259D-03 -0.13459455D-02 -0.23308128D-02 -0.37844179D-02
 -0.58090050D-02 -0.82514324D-02 -0.10468251D-01 -0.10837468D-01 -0.69806463D-02
  0.17169263D-02  0.69987200D-02  0.61041015D-02 -0.31109679D-02  0.24568254D-01
  0.14805121D-02 -0.90079485D-04 -0.20047089D-02 -0.26443143D-02 -0.29371837D-02
 -0.25138152D-02 -0.14363738D-02 -0.46613461D-03 -0.32821884D-06 -0.28260233D-02
 -0.37276704D-02 -0.41405261D-02 -0.35437067D-02 -0.20248455D-02 -0.65710652D-03
 -0.46268766D-06  0.13236595D-01  0.17459751D-01  0.19393494D-01  0.16598097D-01
  0.94840194D-02  0.30777710D-02  0.21671474D-05 -0.10854015D-03 -0.14842726D-03
 -0.16135538D-03 -0.14811580D-03 -0.80729128D-04 -0.34066141D-04  0.11748999D-04
 -0.12481135D-03 -0.17067791D-03 -0.18554408D-03 -0.17031976D-03 -0.92831187D-04
 -0.39172978D-04  0.13510285D-04 -0.24996046D-02 -0.34181772D-02 -0.37159029D-02
 -0.34110045D-02 -0.18591360D-02 -0.78451967D-03  0.27057132D-03 -0.11841922D-03
 -0.14481737D-03  0.49971410D-03 -0.82586366D-05 -0.10757844D-04 -0.41683692D-03
 -0.20363942D-06 -0.28367105D-06 -0.44376594D-05 -0.78183540D-04 -0.69043739D-04
  0.14722728D-03 -0.17735161D-05  0.12125443D-04  0.14960066D-04  0.28986871D-04
 -0.59830141D-04  0.30843270D-04  0.13271743D-04 -0.66811638D-04 -0.10604452D-03
 -0.10753108D-04 -0.11187227D-04  0.21940334D-04  0.71635215D-07  0.55687942D-06
  0.71084458D-06 -0.23673554D-06  0.11470552D-06 -0.54141256D-04 -0.22891227D-06
 -0.49627118D-06  0.80007207D-04  0.93911890D-06  0.15215462D-06  0.82416560D-04
  0.13129731D-05  0.32289458D-06  0.39802314D-06 -0.13311822D-04  0.37063374D-06
  0.39465683D-06  0.20142607D-04 -0.13393175D-05 -0.15887262D-05  0.19792860D-04
  0.18700831D-06 -0.62349713D-03 -0.11662879D-02 -0.20141268D-02 -0.32533398D-02
 -0.48994628D-02 -0.66632463D-02 -0.75854304D-02 -0.61452388D-02 -0.24944739D-02
 -0.22746170D-03  0.87414039D-05 -0.29230625D-05 -0.16403564D-06 -0.40113894D-01
 -0.75082165D-01 -0.12985749D+00 -0.21105988D+00 -0.32291990D+00 -0.45824565D+00
 -0.57483111D+00 -0.58609012D+00 -0.36010542D+00  0.78482030D-01  0.28746806D+00
  0.13147777D+00 -0.69789122D-03 -0.26891696D-03 -0.50296860D-03 -0.87100534D-03
 -0.14142054D-02 -0.21707768D-02 -0.30834916D-02 -0.39118981D-02 -0.40498715D-02
 -0.26086094D-02  0.64160104D-03  0.26153633D-02  0.22810519D-02 -0.11625428D-02
  0.77696954D-02 -0.52958849D-03  0.61247823D-04 -0.54046714D-03 -0.71290401D-03
 -0.79186123D-03 -0.67772160D-03 -0.38724468D-03 -0.12566934D-03 -0.88487409D-07
 -0.84733179D-03 -0.11176743D-02 -0.12414616D-02 -0.10625161D-02 -0.60711318D-03
 -0.19702146D-03 -0.13872850D-06 -0.60804529D-02 -0.80204308D-02 -0.89087284D-02
 -0.76246158D-02 -0.43566442D-02 -0.14138260D-02 -0.99551570D-06 -0.75313490D-04
 -0.10299023D-03 -0.11196075D-03 -0.10277412D-03 -0.56016067D-04 -0.23637704D-04
  0.81523575D-05 -0.72603884D-04 -0.99284877D-04 -0.10793266D-03 -0.99076540D-04
 -0.54000738D-04 -0.22787274D-04  0.78590545D-05  0.31582208D-02  0.43188263D-02
  0.46949992D-02  0.43097638D-02  0.23489963D-02  0.99123131D-03 -0.34186366D-03
 -0.37135498D-04 -0.45728766D-04 -0.11233291D-03  0.67706724D-05  0.87259393D-05
 -0.12436509D-04  0.24489443D-06  0.35161384D-06  0.11495942D-04 -0.52031889D-04
 -0.50329493D-04  0.10236138D-03  0.23681405D-06  0.32064930D-05  0.35346969D-05
  0.73021018D-04  0.46273314D-04 -0.11929433D-03  0.45159399D-05  0.18310377D-04
  0.26028162D-04 -0.48507152D-05 -0.49974158D-05  0.98481311D-05  0.60967590D-08
  0.10010350D-05  0.13856660D-05  0.33130844D-06  0.13749630D-05  0.20097631D-04
  0.46489152D-06  0.12305064D-05 -0.31442779D-04 -0.14588169D-05 -0.53553954D-05
 -0.28850112D-04  0.19659362D-05 -0.13827801D-06 -0.21678880D-06  0.17937901D-04
 -0.12453835D-06 -0.19640465D-06 -0.26522977D-04  0.53937239D-06  0.84677103D-06
 -0.27290726D-04  0.12134703D-06
MO    4     MO 0.0        OCC NO =    2.0000000  ORB. ENERGY =   -5.241092
  0.55999923D-03  0.10475114D-02  0.18090051D-02  0.29220147D-02  0.44004941D-02
  0.59846512D-02  0.68129186D-02  0.55193983D-02  0.22404328D-02  0.20429666D-03
 -0.78511660D-05  0.26253733D-05  0.14733000D-06  0.40275783D-01  0.75385177D-01
  0.13038156D+00  0.21191166D+00  0.32422311D+00  0.46009501D+00  0.57715098D+00
  0.58845542D+00  0.36155871D+00 -0.78798763D-01 -0.28862821D+00 -0.13200838D+00
  0.70070772D-03  0.18369683D-03  0.34357719D-03  0.59498261D-03  0.96604189D-03
  0.14828548D-02  0.21063290D-02  0.26722125D-02  0.27664619D-02  0.17819376D-02
 -0.43827683D-03 -0.17865513D-02 -0.15581835D-02  0.79413145D-03 -0.79988455D-02
 -0.17068787D-02  0.14004410D-03  0.70947082D-03  0.93582858D-03  0.10394757D-02
  0.88964465D-03  0.50833581D-03  0.16496605D-03  0.11615736D-06  0.95132157D-03
  0.12548422D-02  0.13938214D-02  0.11929147D-02  0.68162185D-03  0.22120115D-03
  0.15575411D-06 -0.19360766D-02 -0.25537848D-02 -0.28366276D-02 -0.24277534D-02
 -0.13871988D-02 -0.45017625D-03 -0.31698209D-06 -0.20975056D-04 -0.28683119D-04
 -0.31181440D-04 -0.28622931D-04 -0.15600660D-04 -0.65831788D-05  0.22704585D-05
  0.20877671D-06  0.28549947D-06  0.31036668D-06  0.28490038D-06  0.15528228D-06
  0.65526138D-07 -0.22599170D-07 -0.20894740D-02 -0.28573288D-02 -0.31062042D-02
 -0.28513331D-02 -0.15540923D-02 -0.65579710D-03  0.22617647D-03  0.34732790D-04
  0.46573533D-04 -0.21513704D-03  0.14337352D-04  0.18627903D-04  0.31237116D-03
  0.44396591D-06  0.64169757D-06 -0.10981314D-04 -0.81932355D-05 -0.12673809D-04
  0.20867044D-04  0.15467691D-05 -0.12941464D-04 -0.15219895D-04  0.69002375D-04
  0.99775274D-04 -0.16877765D-03 -0.42840548D-05  0.25164072D-04  0.44088720D-04
  0.17090068D-05  0.18372465D-05 -0.35462532D-05 -0.39880631D-07 -0.16313508D-05
 -0.22368614D-05  0.49968059D-06  0.16392584D-05  0.13974505D-04  0.58435412D-06
  0.19120329D-05 -0.18466113D-04 -0.20833959D-05 -0.68298079D-05 -0.23457401D-04
 -0.33424024D-05 -0.40992780D-06 -0.55743259D-06 -0.12554785D-04 -0.42195900D-06
 -0.53130758D-06  0.18225724D-04  0.16517424D-05  0.22036053D-05  0.19438631D-04
 -0.29196187D-06 -0.18374889D-02 -0.34371307D-02 -0.59357702D-02 -0.95878162D-02
 -0.14439054D-01 -0.19637045D-01 -0.22354785D-01 -0.18110442D-01 -0.73513860D-02
 -0.67034529D-03  0.25761518D-04 -0.86144662D-05 -0.48342432D-06 -0.12548303D+00
 -0.23486968D+00 -0.40621615D+00 -0.66023093D+00 -0.10101479D+01 -0.14334697D+01
 -0.17981687D+01 -0.18333888D+01 -0.11264705D+01  0.24550504D+00  0.89924861D+00
  0.41128466D+00 -0.21831215D-02 -0.69291616D-03 -0.12959951D-02 -0.22443124D-02
 -0.36439717D-02 -0.55934229D-02 -0.79452077D-02 -0.10079756D-01 -0.10435271D-01
 -0.67215826D-02  0.16532082D-02  0.67389855D-02  0.58775679D-02 -0.29955146D-02
  0.24648812D-01  0.21965120D-02 -0.15488408D-03 -0.18870621D-02 -0.24891322D-02
 -0.27648144D-02 -0.23662915D-02 -0.13520799D-02 -0.43877941D-03 -0.30895725D-06
 -0.27876391D-02 -0.36770396D-02 -0.40842877D-02 -0.34955746D-02 -0.19973432D-02
 -0.64818142D-03 -0.45640325D-06 -0.11767773D-01 -0.15522299D-01 -0.17241461D-01
 -0.14756261D-01 -0.84316088D-02 -0.27362409D-02 -0.19266662D-05 -0.68481824D-04
 -0.93648014D-04 -0.10180482D-03 -0.93451505D-04 -0.50934865D-04 -0.21493535D-04
  0.74128595D-05 -0.10270784D-03 -0.14045165D-03 -0.15268509D-03 -0.14015693D-03
 -0.76391219D-04 -0.32235627D-04  0.11117677D-04  0.82495417D-03  0.11281142D-02
  0.12263738D-02  0.11257470D-02  0.61357784D-03  0.25891806D-03 -0.89297699D-04
 -0.10691969D-03 -0.14327898D-03 -0.52273342D-03 -0.15057832D-04 -0.19686076D-04
  0.52062921D-03 -0.42546638D-06 -0.60619414D-06 -0.27710604D-05 -0.58845414D-04
 -0.48749693D-04  0.10759511D-03 -0.23163494D-05 -0.17519866D-04 -0.21166873D-04
 -0.16489418D-04 -0.10711029D-03  0.12359971D-03  0.14237255D-04  0.69151013D-04
  0.11222199D-03 -0.97463122D-05 -0.10175664D-04  0.19921976D-04  0.79472476D-07
 -0.14009587D-05 -0.18841358D-05 -0.44413332D-06 -0.88670128D-06  0.52181243D-04
 -0.31928773D-06 -0.15695807D-05 -0.75783498D-04  0.16516877D-05  0.42296845D-05
 -0.80760232D-04 -0.31037741D-05  0.50323666D-06  0.65009612D-06  0.35354282D-05
  0.53956673D-06  0.63382518D-06 -0.58039425D-05 -0.20492767D-05 -0.25841135D-05
 -0.48023420D-05 -0.33078437D-06
MO    5     MO 0.0        OCC NO =    2.0000000  ORB. ENERGY =   -3.578353
 -0.28014811D-03 -0.52403345D-03 -0.90498221D-03 -0.14617822D-02 -0.22014139D-02
 -0.29939125D-02 -0.34082658D-02 -0.27611627D-02 -0.11208105D-02 -0.10220250D-03
  0.39276648D-05 -0.13133828D-05 -0.73704068D-07  0.67806806D-03  0.12691567D-02
  0.21950554D-02  0.35676657D-02  0.54584994D-02  0.77459879D-02  0.97166985D-02
  0.99070159D-02  0.60870676D-02 -0.13266266D-02 -0.48592368D-02 -0.22224439D-02
  0.11796854D-04 -0.30759841D-03 -0.57531641D-03 -0.99629213D-03 -0.16176270D-02
 -0.24830247D-02 -0.35270259D-02 -0.44745917D-02 -0.46324115D-02 -0.29838359D-02
  0.73388995D-03  0.29915613D-02  0.26091620D-02 -0.13297648D-02  0.45484879D-03
 -0.16544885D-02  0.96370197D-04 -0.95660319D+00 -0.12618089D+01 -0.14015597D+01
 -0.11995376D+01 -0.68540614D+00 -0.22242923D+00 -0.15661884D-03 -0.10905209D+01
 -0.14384532D+01 -0.15977682D+01 -0.13674643D+01 -0.78135813D+00 -0.25356775D+00
 -0.17854437D-03  0.47143396D+01  0.62184568D+01  0.69071780D+01  0.59115708D+01
  0.33778240D+01  0.10961775D+01  0.77185024D-03  0.35835815D-02  0.49005016D-02
  0.53273388D-02  0.48902185D-02  0.26653676D-02  0.11247340D-02 -0.38790710D-03
  0.40781760D-02  0.55768532D-02  0.60626012D-02  0.55651509D-02  0.30332332D-02
  0.12799662D-02 -0.44144481D-03 -0.27837017D-01 -0.38066763D-01 -0.41382405D-01
 -0.37986884D-01 -0.20704394D-01 -0.87368568D-02  0.30132360D-02 -0.23846350D-01
 -0.27157860D-01  0.11617862D+00  0.15491154D-04  0.20736386D-04 -0.20735786D-03
 -0.13361866D-05 -0.14327675D-05 -0.34086131D-04  0.94585401D-05  0.89169665D-05
 -0.18375507D-04 -0.19846386D-05  0.27782144D-04  0.24185978D-04  0.20182902D-03
  0.21315183D-03 -0.41498085D-03  0.19219468D-04 -0.43710968D-04 -0.43757864D-04
 -0.23364836D-04 -0.23370327D-04  0.46735164D-04  0.81845151D-07 -0.15189759D-05
 -0.18456300D-05  0.12578123D-04  0.15837325D-04  0.20659105D-03  0.13780743D-04
  0.11705277D-04 -0.30754106D-03 -0.51515111D-04 -0.59217252D-04 -0.31223207D-03
  0.11846879D-04 -0.12687932D-05 -0.16581386D-05 -0.27332182D-04 -0.14071368D-05
 -0.15562514D-05  0.40456751D-04  0.52135163D-05  0.65306673D-05  0.41539796D-04
 -0.27422739D-06 -0.18909408D-03 -0.35371156D-03 -0.61084397D-03 -0.98667225D-03
 -0.14859081D-02 -0.20208280D-02 -0.23005078D-02 -0.18637268D-02 -0.75652353D-03
 -0.68984540D-04  0.26510912D-05 -0.88650581D-06 -0.49748697D-07  0.44027288D-03
  0.82406961D-03  0.14252601D-02  0.23165026D-02  0.35442301D-02  0.50295075D-02
  0.63090994D-02  0.64326735D-02  0.39523625D-02 -0.86138506D-03 -0.31551260D-02
 -0.14430436D-02  0.76597543D-05 -0.21873400D-03 -0.40910894D-03 -0.70846584D-03
 -0.11502986D-02 -0.17656851D-02 -0.25080770D-02 -0.31818935D-02 -0.32941194D-02
 -0.21218132D-02  0.52187099D-03  0.21273068D-02  0.18553817D-02 -0.94559909D-03
  0.45123419D-04  0.37579077D-03  0.36227724D-03 -0.61242948D+00 -0.80782605D+00
 -0.89729630D+00 -0.76795916D+00 -0.43880569D+00 -0.14240201D+00 -0.10026937D-03
 -0.74165188D+00 -0.97827705D+00 -0.10866255D+01 -0.92999826D+00 -0.53139353D+00
 -0.17244878D+00 -0.12142617D-03 -0.36248449D+01 -0.47813572D+01 -0.53109133D+01
 -0.45453932D+01 -0.25972012D+01 -0.84284839D+00 -0.59347388D-03  0.20035523D-02
  0.27398320D-02  0.29784734D-02  0.27340828D-02  0.14901862D-02  0.62882994D-03
 -0.21687582D-03  0.24644857D-02  0.33701526D-02  0.36636953D-02  0.33630807D-02
  0.18330155D-02  0.77349735D-03 -0.26676986D-03  0.15308740D-01  0.20934505D-01
  0.22757916D-01  0.20890577D-01  0.11386213D-01  0.48047631D-02 -0.16571045D-02
 -0.15335957D-01 -0.18545081D-01 -0.90024534D-01  0.30562298D-04  0.31827605D-04
  0.88326247D-03 -0.12975147D-05 -0.15486842D-05  0.44622987D-04 -0.10544789D-03
 -0.10556650D-03  0.21101439D-03 -0.10305922D-05  0.27320936D-04  0.27432863D-04
  0.12400553D-03  0.13251094D-03 -0.25651647D-03  0.11516769D-04 -0.23212937D-05
  0.45826644D-05 -0.31365980D-04 -0.31269108D-04  0.62635088D-04  0.57404491D-07
  0.21008003D-05  0.19726635D-05  0.55719188D-05  0.75071581D-05 -0.12194223D-03
  0.60407018D-05  0.44882043D-05  0.18162261D-03 -0.22756458D-04 -0.27009679D-04
  0.18420407D-03 -0.10372494D-04 -0.26618491D-05 -0.28930581D-05  0.32947092D-04
 -0.27470297D-05 -0.28336058D-05 -0.49146967D-04  0.10732577D-04  0.11512780D-04
 -0.49694309D-04  0.43842556D-06
MO    6     MO 0.0        OCC NO =    2.0000000  ORB. ENERGY =   -3.576023
 -0.23367489D-03 -0.43710257D-03 -0.75485649D-03 -0.12192900D-02 -0.18362257D-02
 -0.24972582D-02 -0.28428753D-02 -0.23031188D-02 -0.93488144D-03 -0.85248328D-04
  0.32761122D-05 -0.10955083D-05 -0.61477444D-07  0.63179563D-03  0.11825475D-02
  0.20452613D-02  0.33242026D-02  0.50860028D-02  0.72173895D-02  0.90536157D-02
  0.92309456D-02  0.56716765D-02 -0.12360955D-02 -0.45276349D-02 -0.20707808D-02
  0.10991818D-04 -0.22172696D-03 -0.41470681D-03 -0.71815983D-03 -0.11660383D-02
 -0.17898451D-02 -0.25423952D-02 -0.32254315D-02 -0.33391931D-02 -0.21508461D-02
  0.52901180D-03  0.21564149D-02  0.18807690D-02 -0.95853779D-03  0.11768635D-02
 -0.58595906D-02 -0.81976801D-03 -0.32912100D+01 -0.43412757D+01 -0.48220908D+01
 -0.41270301D+01 -0.23581518D+01 -0.76527167D+00 -0.53884987D-03 -0.12071444D+01
 -0.15922856D+01 -0.17686382D+01 -0.15137050D+01 -0.86491887D+00 -0.28068503D+00
 -0.19763843D-03  0.25216636D+01  0.33262043D+01  0.36945959D+01  0.31620533D+01
  0.18067719D+01  0.58633685D+00  0.41285670D-03  0.14530304D-01  0.19870004D-01
  0.21600696D-01  0.19828309D-01  0.10807234D-01  0.45604450D-02 -0.15728422D-02
  0.57284149D-02  0.78335336D-02  0.85158401D-02  0.78170959D-02  0.42606347D-02
  0.17979060D-02 -0.62007598D-03 -0.33281554D-01 -0.45512098D-01 -0.49476234D-01
 -0.45416596D-01 -0.24753889D-01 -0.10445666D-01  0.36025834D-02 -0.81310397D-01
 -0.29746374D-01  0.60155860D-01 -0.59547134D-04 -0.43896715D-04  0.20786238D-02
 -0.89100292D-06  0.56635139D-06  0.37615000D-04  0.34536129D-03  0.34495923D-03