 Molden2AIM, Version 4.0.0 (06/02/2016)           Time: Sun Jul  1 16:14:46 2018
GAUSSIAN             20 MOL ORBITALS    338 PRIMITIVES        2 NUCLEI
  B    1    (CENTRE  1)   0.00000000  0.00000000 -0.37231573  CHARGE =  5.0
  Br   2    (CENTRE  2)   0.00000000  0.00000000  3.20690492  CHARGE = 35.0
CENTRE ASSIGNMENTS    1  1  1  1  1  1  1  1  1  1  1  1  1  1  1  1  1  1  1  1
CENTRE ASSIGNMENTS    1  1  1  1  1  1  1  1  1  1  1  1  1  1  1  1  1  1  1  1
CENTRE ASSIGNMENTS    1  1  1  1  1  1  1  1  1  1  1  1  1  1  1  1  1  1  1  1
CENTRE ASSIGNMENTS    1  1  1  1  1  1  1  1  1  1  1  1  1  1  1  2  2  2  2  2
CENTRE ASSIGNMENTS    2  2  2  2  2  2  2  2  2  2  2  2  2  2  2  2  2  2  2  2
CENTRE ASSIGNMENTS    2  2  2  2  2  2  2  2  2  2  2  2  2  2  2  2  2  2  2  2
CENTRE ASSIGNMENTS    2  2  2  2  2  2  2  2  2  2  2  2  2  2  2  2  2  2  2  2
CENTRE ASSIGNMENTS    2  2  2  2  2  2  2  2  2  2  2  2  2  2  2  2  2  2  2  2
CENTRE ASSIGNMENTS    2  2  2  2  2  2  2  2  2  2  2  2  2  2  2  2  2  2  2  2
CENTRE ASSIGNMENTS    2  2  2  2  2  2  2  2  2  2  2  2  2  2  2  2  2  2  2  2
CENTRE ASSIGNMENTS    2  2  2  2  2  2  2  2  2  2  2  2  2  2  2  2  2  2  2  2
CENTRE ASSIGNMENTS    2  2  2  2  2  2  2  2  2  2  2  2  2  2  2  2  2  2  2  2
CENTRE ASSIGNMENTS    2  2  2  2  2  2  2  2  2  2  2  2  2  2  2  2  2  2  2  2
CENTRE ASSIGNMENTS    2  2  2  2  2  2  2  2  2  2  2  2  2  2  2  2  2  2  2  2
CENTRE ASSIGNMENTS    2  2  2  2  2  2  2  2  2  2  2  2  2  2  2  2  2  2  2  2
CENTRE ASSIGNMENTS    2  2  2  2  2  2  2  2  2  2  2  2  2  2  2  2  2  2  2  2
CENTRE ASSIGNMENTS    2  2  2  2  2  2  2  2  2  2  2  2  2  2  2  2  2  2
TYPE ASSIGNMENTS      1  1  1  1  1  1  1  1  1  1  1  1  1  1  1  1  1  1  1  2
TYPE ASSIGNMENTS      2  2  3  3  3  4  4  4  2  3  4  2  3  4  2  3  4  5  6  7
TYPE ASSIGNMENTS      8  9 10  5  6  7  8  9 10  5  6  7  8  9 10 11 12 13 17 14
TYPE ASSIGNMENTS     15 18 19 16 20 11 12 13 17 14 15 18 19 16 20  1  1  1  1  1
TYPE ASSIGNMENTS      1  1  1  1  1  1  1  1  1  1  1  1  1  1  1  1  1  1  1  1
TYPE ASSIGNMENTS      1  1  1  1  1  1  1  1  1  1  1  1  1  1  1  1  1  1  1  1
TYPE ASSIGNMENTS      1  1  1  1  1  1  1  1  1  1  1  1  1  1  1  1  1  1  1  1
TYPE ASSIGNMENTS      1  1  1  1  1  1  1  1  1  1  2  2  2  2  2  2  2  2  2  2
TYPE ASSIGNMENTS      2  3  3  3  3  3  3  3  3  3  3  3  4  4  4  4  4  4  4  4
TYPE ASSIGNMENTS      4  4  4  2  2  2  2  2  2  2  2  2  2  2  3  3  3  3  3  3
TYPE ASSIGNMENTS      3  3  3  3  3  4  4  4  4  4  4  4  4  4  4  4  2  2  2  2
TYPE ASSIGNMENTS      2  2  2  2  2  2  2  3  3  3  3  3  3  3  3  3  3  3  4  4
TYPE ASSIGNMENTS      4  4  4  4  4  4  4  4  4  2  3  4  2  3  4  2  3  4  5  5
TYPE ASSIGNMENTS      5  5  5  5  5  6  6  6  6  6  6  6  7  7  7  7  7  7  7  8
TYPE ASSIGNMENTS      8  8  8  8  8  8  9  9  9  9  9  9  9 10 10 10 10 10 10 10
TYPE ASSIGNMENTS      5  6  7  8  9 10  5  6  7  8  9 10  5  6  7  8  9 10 11 12
TYPE ASSIGNMENTS     13 17 14 15 18 19 16 20 11 12 13 17 14 15 18 19 16 20
EXPONENTS  0.5473000D+04 0.8209000D+03 0.1868000D+03 0.5283000D+02 0.1708000D+02
EXPONENTS  0.5999000D+01 0.2208000D+01 0.2415000D+00 0.5473000D+04 0.8209000D+03
EXPONENTS  0.1868000D+03 0.5283000D+02 0.1708000D+02 0.5999000D+01 0.2208000D+01
EXPONENTS  0.2415000D+00 0.5879000D+00 0.8610000D-01 0.2914000D-01 0.1205000D+02
EXPONENTS  0.2613000D+01 0.7475000D+00 0.1205000D+02 0.2613000D+01 0.7475000D+00
EXPONENTS  0.1205000D+02 0.2613000D+01 0.7475000D+00 0.2385000D+00 0.2385000D+00
EXPONENTS  0.2385000D+00 0.7698000D-01 0.7698000D-01 0.7698000D-01 0.2096000D-01
EXPONENTS  0.2096000D-01 0.2096000D-01 0.6610000D+00 0.6610000D+00 0.6610000D+00
EXPONENTS  0.6610000D+00 0.6610000D+00 0.6610000D+00 0.1990000D+00 0.1990000D+00
EXPONENTS  0.1990000D+00 0.1990000D+00 0.1990000D+00 0.1990000D+00 0.6040000D-01
EXPONENTS  0.6040000D-01 0.6040000D-01 0.6040000D-01 0.6040000D-01 0.6040000D-01
EXPONENTS  0.4900000D+00 0.4900000D+00 0.4900000D+00 0.4900000D+00 0.4900000D+00
EXPONENTS  0.4900000D+00 0.4900000D+00 0.4900000D+00 0.4900000D+00 0.4900000D+00
EXPONENTS  0.1630000D+00 0.1630000D+00 0.1630000D+00 0.1630000D+00 0.1630000D+00
EXPONENTS  0.1630000D+00 0.1630000D+00 0.1630000D+00 0.1630000D+00 0.1630000D+00
EXPONENTS  0.1063900D+08 0.1593400D+07 0.3626100D+06 0.1027000D+06 0.3350100D+05
EXPONENTS  0.1209300D+05 0.4715900D+04 0.1955600D+04 0.8526100D+03 0.3876700D+03
EXPONENTS  0.1826800D+03 0.8824500D+02 0.3926300D+02 0.1923400D+02 0.9405700D+01
EXPONENTS  0.4160100D+01 0.1899500D+01 0.3011400D+00 0.1063900D+08 0.1593400D+07
EXPONENTS  0.3626100D+06 0.1027000D+06 0.3350100D+05 0.1209300D+05 0.4715900D+04
EXPONENTS  0.1955600D+04 0.8526100D+03 0.3876700D+03 0.1826800D+03 0.8824500D+02
EXPONENTS  0.3926300D+02 0.1923400D+02 0.9405700D+01 0.4160100D+01 0.1899500D+01
EXPONENTS  0.3011400D+00 0.1063900D+08 0.1593400D+07 0.3626100D+06 0.1027000D+06
EXPONENTS  0.3350100D+05 0.1209300D+05 0.4715900D+04 0.1955600D+04 0.8526100D+03
EXPONENTS  0.3876700D+03 0.1826800D+03 0.8824500D+02 0.3926300D+02 0.1923400D+02
EXPONENTS  0.9405700D+01 0.4160100D+01 0.1899500D+01 0.3011400D+00 0.1063900D+08
EXPONENTS  0.1593400D+07 0.3626100D+06 0.1027000D+06 0.3350100D+05 0.1209300D+05
EXPONENTS  0.4715900D+04 0.1955600D+04 0.8526100D+03 0.3876700D+03 0.1826800D+03
EXPONENTS  0.8824500D+02 0.3926300D+02 0.1923400D+02 0.9405700D+01 0.4160100D+01
EXPONENTS  0.1899500D+01 0.3011400D+00 0.6047200D+00 0.1251500D+00 0.4559300D-01
EXPONENTS  0.8676500D+04 0.2055900D+04 0.6662300D+03 0.2531000D+03 0.1061200D+03
EXPONENTS  0.4724200D+02 0.2182500D+02 0.9968400D+01 0.4517100D+01 0.1998200D+01
EXPONENTS  0.2814500D+00 0.8676500D+04 0.2055900D+04 0.6662300D+03 0.2531000D+03
EXPONENTS  0.1061200D+03 0.4724200D+02 0.2182500D+02 0.9968400D+01 0.4517100D+01
EXPONENTS  0.1998200D+01 0.2814500D+00 0.8676500D+04 0.2055900D+04 0.6662300D+03
EXPONENTS  0.2531000D+03 0.1061200D+03 0.4724200D+02 0.2182500D+02 0.9968400D+01
EXPONENTS  0.4517100D+01 0.1998200D+01 0.2814500D+00 0.8676500D+04 0.2055900D+04
EXPONENTS  0.6662300D+03 0.2531000D+03 0.1061200D+03 0.4724200D+02 0.2182500D+02
EXPONENTS  0.9968400D+01 0.4517100D+01 0.1998200D+01 0.2814500D+00 0.8676500D+04
EXPONENTS  0.2055900D+04 0.6662300D+03 0.2531000D+03 0.1061200D+03 0.4724200D+02
EXPONENTS  0.2182500D+02 0.9968400D+01 0.4517100D+01 0.1998200D+01 0.2814500D+00
EXPONENTS  0.8676500D+04 0.2055900D+04 0.6662300D+03 0.2531000D+03 0.1061200D+03
EXPONENTS  0.4724200D+02 0.2182500D+02 0.9968400D+01 0.4517100D+01 0.1998200D+01
EXPONENTS  0.2814500D+00 0.8676500D+04 0.2055900D+04 0.6662300D+03 0.2531000D+03
EXPONENTS  0.1061200D+03 0.4724200D+02 0.2182500D+02 0.9968400D+01 0.4517100D+01
EXPONENTS  0.1998200D+01 0.2814500D+00 0.8676500D+04 0.2055900D+04 0.6662300D+03
EXPONENTS  0.2531000D+03 0.1061200D+03 0.4724200D+02 0.2182500D+02 0.9968400D+01
EXPONENTS  0.4517100D+01 0.1998200D+01 0.2814500D+00 0.8676500D+04 0.2055900D+04
EXPONENTS  0.6662300D+03 0.2531000D+03 0.1061200D+03 0.4724200D+02 0.2182500D+02
EXPONENTS  0.9968400D+01 0.4517100D+01 0.1998200D+01 0.2814500D+00 0.7098800D+00
EXPONENTS  0.7098800D+00 0.7098800D+00 0.1020400D+00 0.1020400D+00 0.1020400D+00
EXPONENTS  0.3514200D-01 0.3514200D-01 0.3514200D-01 0.4038300D+03 0.1211700D+03
EXPONENTS  0.4634500D+02 0.1972100D+02 0.8862400D+01 0.3996200D+01 0.1763600D+01
EXPONENTS  0.4038300D+03 0.1211700D+03 0.4634500D+02 0.1972100D+02 0.8862400D+01
EXPONENTS  0.3996200D+01 0.1763600D+01 0.4038300D+03 0.1211700D+03 0.4634500D+02
EXPONENTS  0.1972100D+02 0.8862400D+01 0.3996200D+01 0.1763600D+01 0.4038300D+03
EXPONENTS  0.1211700D+03 0.4634500D+02 0.1972100D+02 0.8862400D+01 0.3996200D+01
EXPONENTS  0.1763600D+01 0.4038300D+03 0.1211700D+03 0.4634500D+02 0.1972100D+02
EXPONENTS  0.8862400D+01 0.3996200D+01 0.1763600D+01 0.4038300D+03 0.1211700D+03
EXPONENTS  0.4634500D+02 0.1972100D+02 0.8862400D+01 0.3996200D+01 0.1763600D+01
EXPONENTS  0.7061900D+00 0.7061900D+00 0.7061900D+00 0.7061900D+00 0.7061900D+00
EXPONENTS  0.7061900D+00 0.2639000D+00 0.2639000D+00 0.2639000D+00 0.2639000D+00
EXPONENTS  0.2639000D+00 0.2639000D+00 0.1047000D+00 0.1047000D+00 0.1047000D+00
EXPONENTS  0.1047000D+00 0.1047000D+00 0.1047000D+00 0.5515000D+00 0.5515000D+00
EXPONENTS  0.5515000D+00 0.5515000D+00 0.5515000D+00 0.5515000D+00 0.5515000D+00
EXPONENTS  0.5515000D+00 0.5515000D+00 0.5515000D+00 0.2580000D+00 0.2580000D+00
EXPONENTS  0.2580000D+00 0.2580000D+00 0.2580000D+00 0.2580000D+00 0.2580000D+00
EXPONENTS  0.2580000D+00 0.2580000D+00 0.2580000D+00
MO    1     MO 0.0        OCC NO =    2.0000000  ORB. ENERGY = -485.553337
 -0.60041899D-06 -0.11188415D-05 -0.18855573D-05 -0.28132361D-05 -0.34076142D-05
 -0.28353889D-05 -0.10530782D-05  0.55905706D-08  0.55016214D-06  0.10276400D-05
  0.17490485D-05  0.26749767D-05  0.34789659D-05  0.35215021D-05  0.23187305D-05
 -0.15849803D-05 -0.55816818D-05 -0.18503057D-04 -0.15786222D-05 -0.22244852D-15
 -0.20048292D-15 -0.14556360D-15 -0.47435589D-16 -0.42751580D-16 -0.31040419D-16
 -0.43290628D-05 -0.39015911D-05 -0.28328082D-05  0.62360113D-16 -0.71866848D-17
 -0.35036374D-06 -0.28164005D-16 -0.22220144D-16 -0.40086218D-05 -0.13037983D-17
  0.23134602D-18 -0.46032249D-07 -0.97513028D-06 -0.97513028D-06  0.19502606D-05
  0.24675109D-21  0.16432434D-16 -0.18650597D-17 -0.11059853D-05 -0.11059853D-05
  0.22119705D-05 -0.15880771D-21 -0.50293397D-17 -0.36121995D-16  0.48103469D-07
  0.48103469D-07 -0.96206938D-07  0.20826225D-22 -0.40527724D-17 -0.23721750D-17
  0.39858465D-17 -0.18238022D-18  0.19016859D-05  0.39858190D-17 -0.18239648D-18
 -0.28525289D-05 -0.15943359D-16  0.72953715D-18 -0.28525289D-05 -0.24843916D-21
  0.17417042D-18  0.13752813D-17  0.43746162D-06  0.17417218D-18  0.13752797D-17
 -0.65619243D-06 -0.69668344D-18 -0.55011235D-17 -0.65619243D-06 -0.51182064D-22
  0.78330592D+00  0.14734938D+01  0.25506905D+01  0.41810698D+01  0.65497268D+01
  0.98447971D+01  0.14070688D+02  0.18679188D+02  0.21754452D+02  0.19981253D+02
  0.11683825D+02  0.30658941D+01  0.16761123D+00 -0.59991327D-02  0.16765683D-02
 -0.49782970D-03  0.84871344D-04  0.69243343D-05  0.49561069D-04  0.91059040D-04
  0.15746207D-03  0.25786614D-03  0.40599865D-03  0.61309774D-03  0.89493547D-03
  0.12323805D-02  0.15746524D-02  0.17165556D-02  0.14129896D-02  0.38743214D-03
 -0.78147575D-03 -0.76158225D-03 -0.16665565D-03 -0.56144755D-05 -0.19020049D-06
  0.48384551D-09 -0.32374686D-04 -0.63467352D-04 -0.11116149D-03 -0.18160171D-03
 -0.28642964D-03 -0.43220953D-03 -0.63370505D-03 -0.87493465D-03 -0.11343571D-02
 -0.12614719D-02 -0.10956660D-02 -0.31827137D-03  0.80235826D-03  0.11690925D-02
  0.20126346D-03 -0.49099666D-03 -0.23370203D-03  0.11286185D-05  0.11500017D-04
  0.24917759D-04  0.42418534D-04  0.69238470D-04  0.10914765D-03  0.16473533D-03
  0.24152885D-03  0.33389649D-03  0.43336414D-03  0.48414353D-03  0.42291033D-03
  0.12526645D-03 -0.32562082D-03 -0.50091488D-03 -0.87675400D-04  0.27656720D-03
  0.23476373D-03 -0.87588249D-04  0.74562263D-04  0.31399558D-04  0.65952039D-05
  0.28851223D-15  0.41396397D-15  0.54811030D-15  0.63291210D-15  0.58673863D-15
  0.37986529D-15  0.13407850D-15  0.15715156D-16  0.22846928D-18  0.33456783D-19
  0.34398769D-21 -0.18814640D-15 -0.26995678D-15 -0.35743713D-15 -0.41273861D-15
 -0.38262768D-15 -0.24772013D-15 -0.87436110D-16 -0.10248266D-16 -0.14899082D-18
 -0.21818047D-19 -0.22432341D-21  0.93593017D-04  0.13428941D-03  0.17780632D-03
  0.20531592D-03  0.19033730D-03  0.12322784D-03  0.43494901D-04  0.50979775D-05
  0.74115157D-07  0.10853340D-07  0.11158919D-09 -0.11020653D-14 -0.15908440D-14
 -0.21253295D-14 -0.25249567D-14 -0.24468765D-14 -0.17008913D-14 -0.55345372D-15
  0.24909810D-15  0.26910905D-15  0.69281301D-16 -0.67577512D-19  0.67118011D-15
  0.96885621D-15  0.12943687D-14  0.15377498D-14  0.14901974D-14  0.10358773D-14
  0.33706453D-15 -0.15170579D-15 -0.16389286D-15 -0.42193716D-16  0.41156074D-19
 -0.76312460D-03 -0.11015791D-02 -0.14716834D-02 -0.17484050D-02 -0.16943385D-02
 -0.11777814D-02 -0.38323876D-03  0.17248786D-03  0.18634443D-03  0.47973803D-04
 -0.46794015D-07  0.67712901D-15  0.98389849D-15  0.13081045D-14  0.15696348D-14
  0.15186286D-14  0.10780495D-14  0.33506049D-15 -0.19237060D-15 -0.22099111D-15
 -0.58686132D-16  0.21174139D-16 -0.23175013D-15 -0.33674321D-15 -0.44770401D-15
 -0.53721382D-15 -0.51975675D-15 -0.36896677D-15 -0.11467580D-15  0.65839610D-16
  0.75635096D-16  0.20085565D-16 -0.72469343D-17  0.54095734D-03  0.78603502D-03
  0.10450427D-02  0.12539789D-02  0.12132301D-02  0.86125211D-03  0.26767932D-03
 -0.15368458D-03 -0.17654946D-03 -0.46884262D-04  0.16915988D-04 -0.39236778D-16
  0.40124482D-16 -0.10649400D-04  0.81021575D-17  0.29610811D-16 -0.11943646D-04
  0.56388971D-17  0.12620782D-17 -0.30884491D-06 -0.49029802D-04 -0.51304405D-04
 -0.43714099D-04 -0.28789039D-04 -0.13268011D-04 -0.39731273D-05 -0.67599393D-06
 -0.49029802D-04 -0.51304405D-04 -0.43714099D-04 -0.28789039D-04 -0.13268011D-04
 -0.39731273D-05 -0.67599393D-06  0.98059604D-04  0.10260881D-03  0.87428198D-04
  0.57578078D-04  0.26536022D-04  0.79462547D-05  0.13519879D-05  0.60751255D-17
  0.63569643D-17  0.54164738D-17  0.35671575D-17  0.16439967D-17  0.49229747D-18
  0.83760240D-19  0.97059820D-15  0.10156264D-14  0.86536808D-15  0.56991031D-15
  0.26265469D-15  0.78652373D-16  0.13382034D-16  0.25919842D-14  0.27122322D-14
  0.23109670D-14  0.15219465D-14  0.70141982D-15  0.21004130D-15  0.35736747D-16
  0.23568759D-05  0.23568759D-05 -0.47137518D-05 -0.24276201D-19  0.73155479D-17
 -0.38787616D-16  0.26146773D-06  0.26146773D-06 -0.52293546D-06  0.28979476D-20
 -0.13951504D-17 -0.22443910D-16 -0.81372446D-06 -0.81372446D-06  0.16274489D-05
 -0.22880719D-21 -0.11825148D-16 -0.10662041D-16  0.38125255D-17  0.24802277D-17
  0.33467366D-05  0.38127635D-17  0.24794329D-17 -0.50201049D-05 -0.15250340D-16
 -0.99201160D-17 -0.50201049D-05  0.40347937D-21 -0.24212168D-17 -0.68860810D-17
 -0.10482166D-05 -0.24211551D-17 -0.68860068D-17  0.15723249D-05  0.96848055D-17
  0.27544250D-16  0.15723249D-05 -0.11708017D-21
MO    2     MO 0.0        OCC NO =    2.0000000  ORB. ENERGY =  -63.548016
 -0.33401035D-04 -0.62240641D-04 -0.10489269D-03 -0.15649904D-03 -0.18956402D-03
 -0.15773139D-03 -0.58582258D-04  0.31100089D-06  0.26794964D-04  0.50049931D-04
  0.85185234D-04  0.13028142D-03  0.16943871D-03  0.17151038D-03  0.11293089D-03
 -0.77194495D-04 -0.15884123D-03 -0.63470926D-03 -0.54491639D-04  0.96359450D-16
  0.86844471D-16  0.63054718D-16  0.83831920D-16  0.75553968D-16  0.54857080D-16
 -0.11375770D-03 -0.10252474D-03 -0.74439610D-04 -0.10938273D-16  0.11481659D-16
 -0.55379816D-04  0.13879099D-16  0.36916280D-17 -0.14065526D-03  0.42945558D-18
 -0.20120986D-18 -0.16478823D-05 -0.22412161D-04 -0.22412161D-04  0.44824322D-04
 -0.42896269D-20 -0.59594608D-17 -0.41657617D-17 -0.30467057D-04 -0.30467057D-04
  0.60934114D-04  0.21795396D-20  0.81279073D-17  0.10778812D-16  0.17972753D-05
  0.17972753D-05 -0.35945506D-05 -0.22514322D-21  0.24145926D-17  0.13451436D-18
  0.16004202D-18 -0.15299097D-17  0.54218347D-04  0.16153651D-18 -0.15281190D-17
 -0.81327520D-04 -0.64166258D-18  0.61178481D-17 -0.81327520D-04  0.28304074D-20
 -0.60130543D-18 -0.31920606D-18  0.13610845D-04 -0.60139879D-18 -0.31910315D-18
 -0.20416267D-04  0.24053151D-17  0.12767213D-17 -0.20416267D-04  0.79584892D-21
 -0.41702938D-03 -0.78448306D-03 -0.13579789D-02 -0.22259872D-02 -0.34870520D-02
 -0.52413361D-02 -0.74911859D-02 -0.99447356D-02 -0.11581995D-01 -0.10637951D-01
 -0.62204281D-02 -0.16322715D-02 -0.89235644D-04  0.31939177D-05 -0.89259919D-06
  0.26504282D-06 -0.45185212D-07 -0.36864918D-08  0.25296796D+00  0.46478053D+00
  0.80371266D+00  0.13161918D+01  0.20722849D+01  0.31293532D+01  0.45679000D+01
  0.62902757D+01  0.80372884D+01  0.87615861D+01  0.72121344D+01  0.19775183D+01
 -0.39887826D+01 -0.38872429D+01 -0.85063825D+00 -0.28657220D-01 -0.97081503D-03
  0.24696282D-05 -0.92999808D-03 -0.18231688D-02 -0.31932349D-02 -0.52167068D-02
 -0.82280031D-02 -0.12415689D-01 -0.18203867D-01 -0.25133450D-01 -0.32585643D-01
 -0.36237152D-01 -0.31474198D-01 -0.91426914D-02  0.23048614D-01  0.33583455D-01
  0.57815119D-02 -0.14104413D-01 -0.67133452D-02  0.32420794D-04  0.34681832D-03
  0.75147154D-03  0.12792611D-02  0.20880987D-02  0.32916827D-02  0.49680998D-02
  0.72840440D-02  0.10069674D-01  0.13069426D-01  0.14600835D-01  0.12754160D-01
  0.37777945D-02 -0.98200956D-02 -0.15106626D-01 -0.26441209D-02  0.83407332D-02
  0.70800211D-02 -0.26414926D-02  0.26830458D-02  0.10699057D-02  0.22348478D-03
 -0.74052470D-14 -0.10625218D-13 -0.14068354D-13 -0.16244963D-13 -0.15059828D-13
 -0.97500071D-14 -0.34413944D-14 -0.40336110D-15 -0.58641239D-17 -0.85873566D-18
 -0.88291362D-20  0.37952944D-14  0.54455755D-14  0.72102315D-14  0.83257745D-14
  0.77183760D-14  0.49970173D-14  0.17637636D-14  0.20672830D-15  0.30054469D-17
  0.44011424D-18  0.45250579D-20  0.78866541D-02  0.11315952D-01  0.14982922D-01
  0.17301030D-01  0.16038851D-01  0.10383845D-01  0.36651158D-02  0.42958318D-03
  0.62453443D-05  0.91456115D-06  0.94031089D-08  0.17391797D-15  0.25105259D-15
  0.33540026D-15  0.39846580D-15  0.38614390D-15  0.26841927D-15  0.87341056D-16
 -0.39310406D-16 -0.42468354D-16 -0.10933348D-16  0.10664471D-19  0.30490319D-15
  0.44013126D-15  0.58800484D-15  0.69856779D-15  0.67696573D-15  0.47057754D-15
  0.15312142D-15 -0.68916789D-16 -0.74453125D-16 -0.19167729D-16  0.18696350D-19
 -0.21539637D-01 -0.31092714D-01 -0.41539122D-01 -0.49349752D-01 -0.47823692D-01
 -0.33243566D-01 -0.10817138D-01  0.48685704D-02  0.52596803D-02  0.13540886D-02
 -0.13207884D-05 -0.17697296D-15 -0.25714956D-15 -0.34188332D-15 -0.41023631D-15
 -0.39690545D-15 -0.28175665D-15 -0.87570676D-16  0.50277558D-16  0.57757753D-16
  0.15338079D-16 -0.55340267D-17 -0.30577562D-15 -0.44430554D-15 -0.59070937D-15
 -0.70881035D-15 -0.68577715D-15 -0.48682193D-15 -0.15130548D-15  0.86870061D-16
  0.99794416D-16  0.26501284D-16 -0.95617460D-17  0.15642657D-01  0.22729475D-01
  0.30219101D-01  0.36260829D-01  0.35082513D-01  0.24904499D-01  0.77403809D-02
 -0.44440384D-02 -0.51052136D-02 -0.13557343D-02  0.48915318D-03 -0.20748992D-17
  0.64564959D-17 -0.27965383D-03 -0.79946541D-17 -0.71556511D-17 -0.39804994D-03
 -0.30840637D-17  0.63146563D-19 -0.10280863D-04 -0.95800220D-03 -0.10024461D-02
 -0.85413772D-03 -0.56251426D-03 -0.25924607D-03 -0.77631657D-04 -0.13208368D-04
 -0.95800220D-03 -0.10024461D-02 -0.85413772D-03 -0.56251426D-03 -0.25924607D-03
 -0.77631657D-04 -0.13208368D-04  0.19160044D-02  0.20048922D-02  0.17082754D-02
  0.11250285D-02  0.51849215D-03  0.15526331D-03  0.26416736D-04 -0.61567967D-16
 -0.64424243D-16 -0.54892903D-16 -0.36151127D-16 -0.16660978D-16 -0.49891568D-17
 -0.84886274D-18 -0.15129578D-14 -0.15831473D-14 -0.13489262D-14 -0.88836989D-15
 -0.40942323D-15 -0.12260245D-15 -0.20859767D-16  0.10240335D-14  0.10715407D-14
  0.91301001D-15  0.60128612D-15  0.27711487D-15  0.82982496D-16  0.14118768D-16
  0.74420421D-04  0.74420421D-04 -0.14884084D-03  0.25431925D-18  0.14841145D-16
 -0.23841912D-16  0.84507512D-06  0.84507512D-06 -0.16901502D-05 -0.31435105D-19
  0.85974000D-17  0.82993726D-17 -0.26494964D-04 -0.26494964D-04  0.52989928D-04
  0.24441660D-20  0.78478893D-17  0.18735921D-17 -0.99136943D-18 -0.29643742D-17
  0.10032388D-03 -0.10004965D-17 -0.29295463D-17 -0.15048582D-03  0.39746048D-17
  0.11822669D-16 -0.15048582D-03 -0.19285176D-19  0.13973910D-17  0.26652260D-17
 -0.34934570D-04  0.13953661D-17  0.26621482D-17  0.52401855D-04 -0.55875392D-17
 -0.10657826D-16  0.52401855D-04  0.21063105D-20
MO    3     MO 0.0        OCC NO =    2.0000000  ORB. ENERGY =  -57.179069
 -0.99699164D-04 -0.18578286D-03 -0.31309551D-03 -0.46713593D-03 -0.56583201D-03
 -0.47081439D-03 -0.17486291D-03  0.92831043D-06  0.66296947D-04  0.12383512D-03
  0.21076800D-03  0.32234640D-03  0.41923062D-03  0.42435642D-03  0.27941718D-03
 -0.19099706D-03  0.11776575D-03 -0.22014347D-03 -0.12918887D-04  0.57064475D-15
  0.51429664D-15  0.37341272D-15 -0.44762655D-15 -0.40342583D-15 -0.29291332D-15
  0.11408239D-03  0.10281737D-03  0.74652079D-04 -0.49491840D-15  0.43757374D-15
 -0.31959873D-03  0.58705002D-17  0.42346116D-16 -0.73413960D-04 -0.50510636D-17
  0.24691886D-17 -0.43467651D-06  0.44072482D-04  0.44072482D-04 -0.88144964D-04
  0.10542287D-19  0.57391877D-16 -0.44192501D-16  0.39882651D-04  0.39882651D-04
 -0.79765302D-04 -0.73520593D-21 -0.50928400D-15  0.42766296D-15  0.20384512D-05
  0.20384512D-05 -0.40769024D-05 -0.24015966D-21  0.12291301D-16 -0.29993882D-17
  0.10526821D-15 -0.69069581D-16 -0.17353639D-04  0.10526800D-15 -0.69068323D-16
  0.26030458D-04 -0.42107262D-15  0.27627706D-15  0.26030458D-04 -0.50935001D-21
  0.24841888D-16 -0.20466855D-16 -0.57806551D-05  0.24841780D-16 -0.20466827D-16
  0.86709827D-05 -0.99367445D-16  0.81867392D-16  0.86709827D-05 -0.49846328D-22
  0.56762763D-05  0.10677767D-04  0.18483741D-04  0.30298388D-04  0.47463012D-04
  0.71340949D-04  0.10196414D-03  0.13535993D-03  0.15764502D-03  0.14479543D-03
  0.84667580D-04  0.22217197D-04  0.12146055D-05 -0.43473098D-07  0.12149359D-07
 -0.36075546D-08  0.61502560D-09  0.50177630D-10 -0.19059011D-05 -0.35017309D-05
 -0.60552997D-05 -0.99163996D-05 -0.15612925D-04 -0.23577047D-04 -0.34415289D-04
 -0.47391943D-04 -0.60554216D-04 -0.66011191D-04 -0.54337374D-04 -0.14898939D-04
  0.30052126D-04  0.29287109D-04  0.64088446D-05  0.21590808D-06  0.73142757D-08
 -0.18606574D-10  0.17125269D-04  0.33572386D-04  0.58801203D-04  0.96062031D-04
  0.15151296D-03  0.22862629D-03  0.33521157D-03  0.46281503D-03  0.60004197D-03
  0.66728199D-03  0.57957549D-03  0.16835631D-03 -0.42442422D-03 -0.61841600D-03
 -0.10646252D-03  0.25972298D-03  0.12362159D-03 -0.59700640D-06 -0.57321343D-05
 -0.12420151D-04 -0.21143337D-04 -0.34511620D-04 -0.54404183D-04 -0.82111624D-04
 -0.12038902D-03 -0.16642928D-03 -0.21600851D-03 -0.24131927D-03 -0.21079785D-03
 -0.62438528D-04  0.16230431D-03  0.24967888D-03  0.43701429D-04 -0.13785374D-03
 -0.11701698D-03  0.43657989D-04 -0.16213218D-03  0.43084725D-03  0.27329991D-04
  0.82005720D-09  0.11766369D-08  0.15579298D-08  0.17989675D-08  0.16677256D-08
  0.10797160D-08  0.38110009D-09  0.44668217D-10  0.64939320D-12  0.95096406D-13
  0.97773873D-15 -0.53661585D-09 -0.76994874D-09 -0.10194531D-08 -0.11771794D-08
 -0.10912995D-08 -0.70652719D-09 -0.24937815D-09 -0.29229270D-10 -0.42493948D-12
 -0.62227657D-13 -0.63979696D-15 -0.52014424D+02 -0.74631489D+02 -0.98816059D+02
 -0.11410455D+03 -0.10578017D+03 -0.68484009D+02 -0.24172340D+02 -0.28332067D+01
 -0.41189582D-01 -0.60317557D-02 -0.62015816D-04 -0.58111273D-13 -0.83884290D-13
 -0.11206741D-12 -0.13313952D-12 -0.12902240D-12 -0.89687024D-13 -0.29183297D-13
  0.13134800D-13  0.14189966D-13  0.36531633D-14 -0.35633235D-17  0.37725532D-13
  0.54457239D-13  0.72753569D-13  0.86433472D-13  0.83760660D-13  0.58224343D-13
  0.18945643D-13 -0.85270427D-14 -0.92120511D-14 -0.23716143D-14  0.23132908D-17
  0.19877271D-01  0.28693069D-01  0.38333255D-01  0.45541083D-01  0.44132800D-01
  0.30677926D-01  0.99823027D-02 -0.44928284D-02 -0.48537536D-02 -0.12495840D-02
  0.12188538D-05  0.10711279D-12  0.15563963D-12  0.20692469D-12  0.24829531D-12
  0.24022681D-12  0.17053306D-12  0.53002104D-13 -0.30430465D-13 -0.34957849D-13
 -0.92833640D-14  0.33494667D-14 -0.70851063D-13 -0.10294974D-12 -0.13687287D-12
 -0.16423797D-12 -0.15890096D-12 -0.11280118D-12 -0.35058891D-13  0.20128603D-13
  0.23123297D-13  0.61405947D-14 -0.22155457D-14 -0.18063730D-01 -0.26247401D-01
 -0.34896224D-01 -0.41873053D-01 -0.40512364D-01 -0.28759062D-01 -0.89383886D-02
  0.51318589D-02  0.58953666D-02  0.15655664D-02 -0.56486125D-03 -0.17407034D-13
  0.11310724D-13  0.14243529D-02 -0.41626986D-15  0.19569133D-15 -0.46328117D-04
  0.35516989D-16 -0.24526577D-16 -0.37376509D-06 -0.36414735D-03 -0.38104096D-03
 -0.32466729D-03 -0.21381796D-03 -0.98542331D-04 -0.29508660D-04 -0.50206484D-05
 -0.36414735D-03 -0.38104096D-03 -0.32466729D-03 -0.21381796D-03 -0.98542331D-04
 -0.29508660D-04 -0.50206484D-05  0.72829469D-03  0.76208192D-03  0.64933459D-03
  0.42763592D-03  0.19708466D-03  0.59017321D-04  0.10041297D-04 -0.21752564D-16
 -0.22761715D-16 -0.19394199D-16 -0.12772546D-16 -0.58864864D-17 -0.17627179D-17
 -0.29991150D-18 -0.20140529D-13 -0.21074894D-13 -0.17956938D-13 -0.11826001D-13
 -0.54502517D-14 -0.16320867D-14 -0.27768572D-15  0.14863108D-13  0.15552641D-13
  0.13251683D-13  0.87272348D-14  0.40221227D-14  0.12044311D-14  0.20492375D-15
  0.48387525D-04  0.48387525D-04 -0.96775049D-04  0.15790093D-18  0.11640949D-14
 -0.81823865D-15 -0.66830230D-04 -0.66830230D-04  0.13366046D-03 -0.20186187D-19
 -0.82551549D-15  0.60885236D-15  0.83508008D-06  0.83508008D-06 -0.16701602D-05
  0.17347214D-20  0.14036065D-16  0.13117390D-16 -0.87714939D-20 -0.99880974D-17
 -0.30378810D-04 -0.16190342D-19 -0.99887171D-17  0.45568215D-04  0.42504824D-19
  0.39953009D-16  0.45568215D-04  0.35884471D-19 -0.51325101D-16  0.49540107D-16
 -0.13310770D-04 -0.51323706D-16  0.49540212D-16  0.19966155D-04  0.20529901D-15
 -0.19816053D-15  0.19966155D-04 -0.42512352D-20
MO    4     MO 0.0        OCC NO =    2.0000000  ORB. ENERGY =  -57.178442
  0.13222731D-14  0.24639694D-14  0.41524699D-14  0.61954511D-14  0.75044206D-14
  0.62442371D-14  0.23191421D-14 -0.12311838D-16 -0.87225866D-15 -0.16292795D-14
 -0.27730419D-14 -0.42410616D-14 -0.55157523D-14 -0.55831916D-14 -0.36762486D-14
  0.25129187D-14 -0.15844581D-14  0.27587950D-14  0.18808962D-15  0.36718388D-04
  0.33092644D-04  0.24027406D-04  0.76944599D-05  0.69346733D-05  0.50350225D-05
 -0.14628437D-14 -0.13183957D-14 -0.95724079D-15 -0.33776586D-04 -0.70779956D-05
  0.40855353D-14 -0.15256270D-05 -0.31970020D-06  0.93099223D-15 -0.31404930D-06
 -0.65810073D-07  0.67194676D-17 -0.68174925D-15 -0.66022486D-15  0.13419741D-14
  0.80349907D-16  0.39125383D-05  0.81988537D-06 -0.51142114D-15 -0.52089164D-15
  0.10323128D-14 -0.26085865D-16 -0.34920642D-04 -0.73177364D-05 -0.26770396D-16
 -0.25732832D-16  0.52503227D-16  0.34021378D-17  0.45625198D-06  0.95609117D-07
  0.65154518D-05  0.13653345D-05  0.20344637D-15  0.65154519D-05  0.13653346D-05
 -0.29012252D-15 -0.26061807D-04 -0.54613381D-05 -0.32021659D-15 -0.16700165D-16
  0.17131269D-05  0.35899143D-06  0.79274470D-16  0.17131269D-05  0.35899141D-06
 -0.11927516D-15 -0.68525076D-05 -0.14359657D-05 -0.11854825D-15 -0.67567837D-18
 -0.82729074D-16 -0.15562346D-15 -0.26939189D-15 -0.44158485D-15 -0.69175122D-15
 -0.10397610D-14 -0.14860796D-14 -0.19728077D-14 -0.22976025D-14 -0.21103256D-14
 -0.12339904D-14 -0.32380526D-15 -0.17702307D-16  0.63360008D-18 -0.17707123D-18
  0.52578422D-19 -0.89637107D-20 -0.73131550D-21  0.76152555D-16  0.13991584D-15
  0.24194673D-15  0.39622159D-15  0.62383309D-15  0.94204908D-15  0.13751040D-14
  0.18936017D-14  0.24195160D-14  0.26375560D-14  0.21711147D-14  0.59530490D-15
 -0.12007686D-14 -0.11702014D-14 -0.25607304D-15 -0.86268650D-17 -0.29225062D-18
  0.74344789D-21 -0.22541549D-15 -0.44190466D-15 -0.77398505D-15 -0.12644397D-14
 -0.19943260D-14 -0.30093489D-14 -0.44123034D-14 -0.60919147D-14 -0.78981976D-14
 -0.87832606D-14 -0.76288025D-14 -0.22160307D-14  0.55865864D-14  0.81400501D-14
  0.14013387D-14 -0.34186665D-14 -0.16271991D-14  0.78582412D-17  0.90929692D-16
  0.19702268D-15  0.33539988D-15  0.54746292D-15  0.86302158D-15  0.13025488D-14
  0.19097488D-14  0.26400922D-14  0.34265748D-14  0.38280833D-14  0.33439174D-14
  0.99047159D-15 -0.25746572D-14 -0.39606930D-14 -0.69324222D-15  0.21867943D-14
  0.18562576D-14 -0.69255312D-15  0.20499404D-14 -0.54166286D-14 -0.37390809D-15
  0.50904746D+02  0.73039297D+02  0.96707912D+02  0.11167024D+03  0.10352345D+03
  0.67022968D+02  0.23656646D+02  0.27727629D+01  0.40310841D-01  0.59030740D-02
  0.60692768D-04  0.10667258D+02  0.15305627D+02  0.20265464D+02  0.23400869D+02
  0.21693682D+02  0.14044885D+02  0.49573287D+01  0.58104167D+00  0.84472705D-02
  0.12370087D-02  0.12718371D-04  0.69260129D-09  0.99376022D-09  0.13157914D-08
  0.15193662D-08  0.14085224D-08  0.91190307D-09  0.32186830D-09  0.37725740D-10
  0.54846243D-12  0.80316218D-13  0.82577545D-15 -0.35998544D-02 -0.51964312D-02
 -0.69423079D-02 -0.82476748D-02 -0.79926290D-02 -0.55558967D-02 -0.18078355D-02
  0.81366944D-03  0.87903446D-03  0.22630473D-03 -0.22073937D-06 -0.75436143D-03
 -0.10889294D-02 -0.14547836D-02 -0.17283276D-02 -0.16748819D-02 -0.11642566D-02
 -0.37883793D-03  0.17050713D-03  0.18420459D-03  0.47422907D-04 -0.46256667D-07
 -0.25352735D-12 -0.36596965D-12 -0.48892670D-12 -0.58085992D-12 -0.56289778D-12
 -0.39128576D-12 -0.12732063D-12  0.57304389D-13  0.61907859D-13  0.15937989D-13
 -0.15546036D-16  0.66657125D-02  0.96855760D-02  0.12877086D-01  0.15451611D-01
  0.14949502D-01  0.10612406D-01  0.32983624D-02 -0.18937116D-02 -0.21754543D-02
 -0.57771101D-03  0.20843993D-03  0.13968222D-02  0.20296446D-02  0.26984360D-02
  0.32379364D-02  0.31327178D-02  0.22238649D-02  0.69118279D-03 -0.39683356D-03
 -0.45587366D-03 -0.12106126D-03  0.43679279D-04  0.23594351D-12  0.34283639D-12
  0.45580496D-12  0.54693440D-12  0.52916145D-12  0.37564301D-12  0.11675079D-12
 -0.67030941D-13 -0.77003670D-13 -0.20449001D-13  0.73780635D-14 -0.10782952D-02
 -0.22596034D-03 -0.18798552D-13 -0.23003782D-04 -0.48205189D-05  0.54636710D-15
  0.23951168D-05  0.50190466D-06  0.10942125D-16  0.24615352D-13  0.25757314D-13
  0.21946610D-13  0.14453502D-13  0.66611887D-14  0.19947037D-14  0.33938193D-15
 -0.14038710D-14 -0.14689998D-14 -0.12516664D-14 -0.82431698D-15 -0.37990315D-15
 -0.11376261D-15 -0.19355744D-16 -0.23211481D-13 -0.24288314D-13 -0.20694944D-13
 -0.13629185D-13 -0.62812855D-14 -0.18809411D-14 -0.32002618D-15  0.62241530D-14
  0.65129055D-14  0.55493441D-14  0.36546626D-14  0.16843252D-14  0.50437390D-15
  0.85814943D-16 -0.11411618D-02 -0.11941028D-02 -0.10174395D-02 -0.67006084D-03