 Molden2AIM, Version 4.0.0 (06/02/2016)           Time: Sun Jul  1 16:10:03 2018
GAUSSIAN              7 MOL ORBITALS    150 PRIMITIVES        2 NUCLEI
  F    1    (CENTRE  1)   0.00000000  0.00000000  0.00362260  CHARGE =  9.0
  B    2    (CENTRE  2)   0.00000000  0.00000000  2.39160526  CHARGE =  5.0
CENTRE ASSIGNMENTS    1  1  1  1  1  1  1  1  1  1  1  1  1  1  1  1  1  1  1  1
CENTRE ASSIGNMENTS    1  1  1  1  1  1  1  1  1  1  1  1  1  1  1  1  1  1  1  1
CENTRE ASSIGNMENTS    1  1  1  1  1  1  1  1  1  1  1  1  1  1  1  1  1  1  1  1
CENTRE ASSIGNMENTS    1  1  1  1  1  1  1  1  1  1  1  1  1  1  1  2  2  2  2  2
CENTRE ASSIGNMENTS    2  2  2  2  2  2  2  2  2  2  2  2  2  2  2  2  2  2  2  2
CENTRE ASSIGNMENTS    2  2  2  2  2  2  2  2  2  2  2  2  2  2  2  2  2  2  2  2
CENTRE ASSIGNMENTS    2  2  2  2  2  2  2  2  2  2  2  2  2  2  2  2  2  2  2  2
CENTRE ASSIGNMENTS    2  2  2  2  2  2  2  2  2  2
TYPE ASSIGNMENTS      1  1  1  1  1  1  1  1  1  1  1  1  1  1  1  1  1  1  1  2
TYPE ASSIGNMENTS      2  2  3  3  3  4  4  4  2  3  4  2  3  4  2  3  4  5  6  7
TYPE ASSIGNMENTS      8  9 10  5  6  7  8  9 10  5  6  7  8  9 10 11 12 13 17 14
TYPE ASSIGNMENTS     15 18 19 16 20 11 12 13 17 14 15 18 19 16 20  1  1  1  1  1
TYPE ASSIGNMENTS      1  1  1  1  1  1  1  1  1  1  1  1  1  1  2  2  2  3  3  3
TYPE ASSIGNMENTS      4  4  4  2  3  4  2  3  4  2  3  4  5  6  7  8  9 10  5  6
TYPE ASSIGNMENTS      7  8  9 10  5  6  7  8  9 10 11 12 13 17 14 15 18 19 16 20
TYPE ASSIGNMENTS     11 12 13 17 14 15 18 19 16 20
EXPONENTS  0.1950000D+05 0.2923000D+04 0.6645000D+03 0.1875000D+03 0.6062000D+02
EXPONENTS  0.2142000D+02 0.7950000D+01 0.8815000D+00 0.1950000D+05 0.2923000D+04
EXPONENTS  0.6645000D+03 0.1875000D+03 0.6062000D+02 0.2142000D+02 0.7950000D+01
EXPONENTS  0.8815000D+00 0.2257000D+01 0.3041000D+00 0.9158000D-01 0.4388000D+02
EXPONENTS  0.9926000D+01 0.2930000D+01 0.4388000D+02 0.9926000D+01 0.2930000D+01
EXPONENTS  0.4388000D+02 0.9926000D+01 0.2930000D+01 0.9132000D+00 0.9132000D+00
EXPONENTS  0.9132000D+00 0.2672000D+00 0.2672000D+00 0.2672000D+00 0.7361000D-01
EXPONENTS  0.7361000D-01 0.7361000D-01 0.3107000D+01 0.3107000D+01 0.3107000D+01
EXPONENTS  0.3107000D+01 0.3107000D+01 0.3107000D+01 0.8550000D+00 0.8550000D+00
EXPONENTS  0.8550000D+00 0.8550000D+00 0.8550000D+00 0.8550000D+00 0.2920000D+00
EXPONENTS  0.2920000D+00 0.2920000D+00 0.2920000D+00 0.2920000D+00 0.2920000D+00
EXPONENTS  0.1917000D+01 0.1917000D+01 0.1917000D+01 0.1917000D+01 0.1917000D+01
EXPONENTS  0.1917000D+01 0.1917000D+01 0.1917000D+01 0.1917000D+01 0.1917000D+01
EXPONENTS  0.7240000D+00 0.7240000D+00 0.7240000D+00 0.7240000D+00 0.7240000D+00
EXPONENTS  0.7240000D+00 0.7240000D+00 0.7240000D+00 0.7240000D+00 0.7240000D+00
EXPONENTS  0.5473000D+04 0.8209000D+03 0.1868000D+03 0.5283000D+02 0.1708000D+02
EXPONENTS  0.5999000D+01 0.2208000D+01 0.2415000D+00 0.5473000D+04 0.8209000D+03
EXPONENTS  0.1868000D+03 0.5283000D+02 0.1708000D+02 0.5999000D+01 0.2208000D+01
EXPONENTS  0.2415000D+00 0.5879000D+00 0.8610000D-01 0.2914000D-01 0.1205000D+02
EXPONENTS  0.2613000D+01 0.7475000D+00 0.1205000D+02 0.2613000D+01 0.7475000D+00
EXPONENTS  0.1205000D+02 0.2613000D+01 0.7475000D+00 0.2385000D+00 0.2385000D+00
EXPONENTS  0.2385000D+00 0.7698000D-01 0.7698000D-01 0.7698000D-01 0.2096000D-01
EXPONENTS  0.2096000D-01 0.2096000D-01 0.6610000D+00 0.6610000D+00 0.6610000D+00
EXPONENTS  0.6610000D+00 0.6610000D+00 0.6610000D+00 0.1990000D+00 0.1990000D+00
EXPONENTS  0.1990000D+00 0.1990000D+00 0.1990000D+00 0.1990000D+00 0.6040000D-01
EXPONENTS  0.6040000D-01 0.6040000D-01 0.6040000D-01 0.6040000D-01 0.6040000D-01
EXPONENTS  0.4900000D+00 0.4900000D+00 0.4900000D+00 0.4900000D+00 0.4900000D+00
EXPONENTS  0.4900000D+00 0.4900000D+00 0.4900000D+00 0.4900000D+00 0.4900000D+00
EXPONENTS  0.1630000D+00 0.1630000D+00 0.1630000D+00 0.1630000D+00 0.1630000D+00
EXPONENTS  0.1630000D+00 0.1630000D+00 0.1630000D+00 0.1630000D+00 0.1630000D+00
MO    1     MO 0.0        OCC NO =    2.0000000  ORB. ENERGY =  -25.374740
  0.59424328D+00  0.11076952D+01  0.18778157D+01  0.28435664D+01  0.35558898D+01
  0.30612899D+01  0.11768716D+01 -0.50995772D-02  0.66808805D-03  0.12545510D-02
  0.21362841D-02  0.33464763D-02  0.44846720D-02  0.48238694D-02  0.28962448D-02
 -0.19046925D-02  0.62301275D-01  0.60831285D-03 -0.48681356D-03 -0.59104995D-18
 -0.57803394D-18 -0.38193147D-18 -0.56411566D-17 -0.55169280D-17 -0.36452676D-17
  0.64451706D-02  0.63032361D-02  0.41648146D-02 -0.10865618D-18  0.70985824D-18
 -0.12423046D-02  0.68268675D-20 -0.23341141D-18 -0.45623075D-04 -0.28205233D-19
  0.15371844D-19 -0.35065037D-04 -0.69872782D-03 -0.69872782D-03  0.13974556D-02
  0.94090456D-18 -0.23197039D-18 -0.12872800D-17  0.25109405D-03  0.25109405D-03
 -0.50218810D-03 -0.30445128D-18  0.75759040D-19 -0.21687954D-18 -0.26472961D-04
 -0.26472961D-04  0.52945922D-04  0.22973126D-19 -0.10755323D-18  0.71738203D-21
 -0.16827905D-20 -0.34614547D-19 -0.15525516D-03 -0.16009225D-18  0.33284356D-20
  0.23288273D-03  0.16514062D-18  0.10051521D-18  0.23288273D-03 -0.52138329D-18
  0.41813174D-20  0.18770294D-19 -0.23762777D-04  0.30548908D-19  0.59002363D-20
  0.35644166D-04 -0.43092860D-19 -0.62211120D-19  0.35644166D-04  0.10459145D-19
  0.36185515D-04  0.67429338D-04  0.11363708D-03  0.16954560D-03  0.20536705D-03
  0.17088068D-03  0.63465974D-04 -0.33692751D-06 -0.42630266D-04 -0.79628466D-04
 -0.13552805D-03 -0.20727520D-03 -0.26957369D-03 -0.27286968D-03 -0.17967085D-03
  0.12281494D-03 -0.70787408D-04  0.39027010D-03  0.11753126D-04 -0.14915812D-18
 -0.13442956D-18 -0.97604575D-19 -0.26901320D-18 -0.24244959D-18 -0.17603413D-18
 -0.30880691D-03 -0.27831389D-03 -0.20207393D-03  0.79560850D-19  0.13616335D-18
 -0.29351186D-03  0.97280747D-20 -0.17872877D-19 -0.87554825D-04 -0.14699787D-20
 -0.51078226D-21  0.34996201D-06 -0.24776786D-03 -0.24776786D-03  0.49553572D-03
 -0.66221310D-20  0.91038734D-19  0.12597451D-18 -0.34620380D-04 -0.34620380D-04
  0.69240760D-04 -0.67719273D-20 -0.65273320D-19 -0.93198245D-19 -0.12194652D-05
 -0.12194652D-05  0.24389303D-05 -0.24027330D-22  0.51839813D-20  0.48883085D-20
 -0.43502059D-20  0.53292018D-20 -0.11458560D-03 -0.50007889D-20  0.48812758D-20
  0.17187841D-03  0.18051407D-19 -0.20868881D-19  0.17187841D-03  0.21159851D-20
 -0.40336701D-21 -0.61618635D-20 -0.37387475D-05 -0.23466096D-21 -0.60514275D-20
  0.56081212D-05  0.14447620D-20  0.24537018D-19  0.56081212D-05  0.34145531D-20
MO    2     MO 0.0        OCC NO =    2.0000000  ORB. ENERGY =   -7.173865
  0.82961696D-03  0.15464419D-02  0.26215993D-02  0.39698740D-02  0.49643413D-02
  0.42738354D-02  0.16430184D-02 -0.71194676D-05 -0.86707709D-03 -0.16282172D-02
 -0.27725731D-02 -0.43432194D-02 -0.58204249D-02 -0.62606517D-02 -0.37588871D-02
  0.24720023D-02  0.53379773D-03 -0.56735935D-02 -0.39392481D-02  0.75890561D-15
  0.74219311D-15  0.49039837D-15  0.37655707D-15  0.36826459D-15  0.24332799D-15
  0.54930203D-02  0.53720538D-02  0.35495431D-02 -0.13489916D-15  0.25952392D-16
 -0.38276051D-03  0.31312940D-16  0.43590480D-16 -0.46798012D-02 -0.57094563D-17
  0.67786019D-17 -0.41721492D-03 -0.19023547D-02 -0.19023547D-02  0.38047094D-02
  0.13280920D-17  0.49007982D-18  0.28911762D-16  0.79815799D-03  0.79815799D-03
 -0.15963160D-02 -0.57466872D-18  0.15017851D-16 -0.15298476D-16  0.51054462D-03
  0.51054462D-03 -0.10210892D-02  0.34285449D-19  0.31380601D-16  0.27116863D-16
 -0.12889448D-18 -0.77975289D-17  0.26072050D-02  0.41378368D-18 -0.80335171D-17
 -0.39108075D-02 -0.27100241D-19  0.31426104D-16 -0.39108075D-02  0.47993685D-18
 -0.36023449D-17 -0.23353385D-18 -0.85182863D-03 -0.36329731D-17 -0.27414151D-18
  0.12777429D-02  0.14440008D-16  0.97474306D-18  0.12777429D-02 -0.98580980D-19
  0.25233212D+00  0.47020439D+00  0.79242445D+00  0.11822908D+01  0.14320841D+01
  0.11916007D+01  0.44256670D+00 -0.23494935D-02 -0.12332976D-02 -0.23036589D-02
 -0.39208391D-02 -0.59964907D-02 -0.77987920D-02 -0.78941453D-02 -0.51978944D-02
  0.35530476D-02  0.23352501D-01  0.37690914D-02 -0.15327434D-04  0.28597732D-16
  0.25773859D-16  0.18713493D-16 -0.34665970D-16 -0.31242891D-16 -0.22684365D-16
 -0.71050953D-02 -0.64035053D-02 -0.46493601D-02 -0.36916996D-16 -0.87407529D-18
 -0.36734772D-02  0.42419073D-17 -0.93875182D-17 -0.58435373D-03  0.26079329D-18
 -0.33048566D-18  0.69506689D-05 -0.14500729D-02 -0.14500729D-02  0.29001458D-02
  0.33940571D-19 -0.26584149D-16  0.68950069D-17 -0.21274651D-03 -0.21274651D-03
  0.42549303D-03 -0.20067115D-19  0.19329542D-16  0.14914354D-16 -0.42491586D-05
 -0.42491586D-05  0.84983172D-05  0.15392164D-20 -0.17519831D-17  0.16471482D-17
  0.32478156D-17  0.31211994D-18 -0.41922956D-03  0.32515600D-17  0.30431935D-18
  0.62884433D-03 -0.12995007D-16 -0.12406792D-17  0.62884433D-03 -0.16804484D-19
 -0.24076073D-18  0.10032685D-17  0.51960321D-05 -0.24025102D-18  0.10037463D-17
 -0.77940482D-05  0.96253320D-18 -0.40135519D-17 -0.77940482D-05  0.43232712D-20
MO    3     MO 0.0        OCC NO =    2.0000000  ORB. ENERGY =   -1.469281
  0.36897196D-02  0.68777972D-02  0.11659557D-01  0.17656006D-01  0.22078897D-01
  0.19007874D-01  0.73073206D-02 -0.31663816D-04  0.12794782D+00  0.24026334D+00
  0.40912704D+00  0.64089508D+00  0.85887481D+00  0.92383565D+00  0.55466971D+00
 -0.36477414D+00 -0.20827034D+00 -0.79152086D-01  0.59000751D-02  0.13962978D-15
  0.13655487D-15  0.90227578D-16  0.42562492D-15  0.41625188D-15  0.27503522D-15
 -0.32536660D+00 -0.31820143D+00 -0.21024914D+00  0.13186885D-15  0.85251198D-16
 -0.75746682D-01 -0.25791617D-16  0.26409434D-16 -0.85679004D-03 -0.26830195D-17
  0.80583306D-18  0.78564774D-03  0.14403210D-01  0.14403210D-01 -0.28806421D-01
 -0.24081922D-16  0.21447321D-16 -0.83766872D-17  0.55545753D-02  0.55545753D-02
 -0.11109151D-01 -0.36676602D-17  0.18868138D-16  0.85370781D-19  0.23222109D-03
  0.23222109D-03 -0.46444217D-03  0.60168639D-20 -0.53500884D-17  0.69780482D-17
  0.14015675D-17 -0.14207632D-17 -0.69476674D-02 -0.25179797D-18  0.29278257D-17
  0.10421501D-01 -0.39529045D-17  0.13344640D-17  0.10421501D-01  0.12622820D-17
  0.61189905D-18 -0.12546186D-17 -0.23735682D-02  0.77984322D-18 -0.80053579D-18
  0.35603523D-02 -0.26155404D-17  0.45643915D-17  0.35603523D-02 -0.23503086D-17
  0.71380788D-02  0.13301342D-01  0.22416441D-01  0.33445146D-01  0.40511408D-01
  0.33708509D-01  0.12519516D-01 -0.66463476D-04  0.89809278D-02  0.16775347D-01
  0.28551725D-01  0.43666713D-01  0.56791151D-01  0.57485518D-01  0.37851299D-01
 -0.25873451D-01 -0.96255785D-02 -0.57674831D-02 -0.17731075D-03  0.60658588D-17
  0.54668878D-17  0.39693151D-17  0.13812020D-16  0.12448157D-16  0.90381696D-17
  0.92907139D-01  0.83733058D-01  0.60795630D-01  0.14131112D-16 -0.67184813D-17
  0.17560766D-01  0.47376626D-17 -0.26097884D-17  0.10706730D-02  0.14242345D-18
 -0.11571378D-18 -0.12889905D-04  0.10879619D-01  0.10879619D-01 -0.21759238D-01
  0.68840797D-18 -0.29005688D-17 -0.83097444D-17  0.12584894D-02  0.12584894D-02
 -0.25169788D-02  0.28306922D-18 -0.67129617D-17  0.72387056D-17 -0.57768885D-05
 -0.57768885D-05  0.11553777D-04 -0.32011258D-20 -0.15408817D-17 -0.12878888D-18
  0.87156359D-18  0.12094953D-18  0.33332938D-02  0.89533871D-18  0.26669159D-18
 -0.49999407D-02 -0.35100295D-17 -0.62954019D-18 -0.49999407D-02 -0.63663985D-18
 -0.60548471D-18  0.41451973D-18  0.85784006D-04 -0.64734135D-18  0.40078705D-18
 -0.12867601D-03  0.24637955D-17 -0.16443462D-17 -0.12867601D-03 -0.19092025D-19
MO    4     MO 0.0        OCC NO =    2.0000000  ORB. ENERGY =   -0.725579
 -0.66338895D-03 -0.12365857D-02 -0.20963168D-02 -0.31744415D-02 -0.39696503D-02
 -0.34174991D-02 -0.13138114D-02  0.56929600D-05 -0.33736269D-01 -0.63350739D-01
 -0.10787538D+00 -0.16898615D+00 -0.22646132D+00 -0.24358968D+00 -0.14625093D+00
  0.96180762D-01  0.62248834D-01  0.80695806D-01  0.13072789D-01 -0.64332383D-14
 -0.62915665D-14 -0.41571040D-14 -0.73335206D-14 -0.71720230D-14 -0.47388588D-14
 -0.23295632D+01 -0.22782619D+01 -0.15053440D+01 -0.14528043D-14 -0.17146131D-14
 -0.52141540D+00 -0.28173359D-15 -0.25162504D-15 -0.55285785D-01 -0.14615353D-16
 -0.13475606D-16  0.35094853D-04  0.35716779D-01  0.35716779D-01 -0.71433559D-01
  0.44665671D-18 -0.22190905D-15 -0.26342393D-15  0.10080843D-01  0.10080843D-01
 -0.20161686D-01  0.73097123D-17 -0.96719942D-16 -0.12480177D-15  0.66734767D-03
  0.66734767D-03 -0.13346953D-02  0.12544455D-18 -0.34284442D-16 -0.23367727D-16
  0.10298384D-16  0.27131002D-16 -0.13497348D-01  0.91948414D-17  0.30861655D-16
  0.20246022D-01 -0.40089992D-16 -0.11225466D-15  0.20246022D-01 -0.47145703D-16
  0.85806212D-17  0.76377362D-17 -0.30646720D-02  0.79510719D-17  0.75378629D-17
  0.45970080D-02 -0.33692935D-16 -0.30451072D-16  0.45970080D-02 -0.23636405D-17
  0.59286693D-02  0.11047687D-01  0.18618408D-01  0.27778512D-01  0.33647532D-01
  0.27997254D-01  0.10398326D-01 -0.55202525D-04  0.21062674D-01  0.39342669D-01
  0.66961421D-01  0.10241010D+00  0.13319042D+00  0.13481889D+00  0.88771404D-01
 -0.60680153D-01 -0.25197168D-01 -0.13365796D-01 -0.78023878D-04 -0.23058647D-15
 -0.20781729D-15 -0.15088883D-15 -0.37613785D-15 -0.33899626D-15 -0.24613327D-15
  0.15858403D+00  0.14292471D+00  0.10377261D+00  0.44896878D-18 -0.59578813D-16
  0.33694494D-01  0.16364014D-16  0.25059036D-18  0.22084021D-02  0.16050437D-18
 -0.16715027D-18 -0.13818521D-04  0.12714046D-01  0.12714046D-01 -0.25428091D-01
 -0.10932782D-17  0.85020682D-16  0.12684635D-15  0.23167880D-02  0.23167880D-02
 -0.46335760D-02 -0.42375784D-18 -0.27564602D-16  0.42479809D-17  0.16832455D-04
  0.16832455D-04 -0.33664910D-04 -0.41984359D-20 -0.41846983D-17 -0.10366613D-17
  0.42575171D-17  0.46633305D-17  0.32287194D-02  0.43748964D-17  0.47649141D-17
 -0.48430791D-02 -0.17147448D-16 -0.18754906D-16 -0.48430791D-02  0.15823095D-17
 -0.24217207D-17 -0.30898134D-18  0.32059289D-03 -0.24397762D-17 -0.30934526D-18
 -0.48088933D-03  0.97049382D-17  0.12362893D-17 -0.48088933D-03  0.15234433D-18
MO    5     MO 0.0        OCC NO =    2.0000000  ORB. ENERGY =   -0.626242
  0.18804348D-16  0.35052120D-16  0.59421960D-16  0.89982360D-16  0.11252326D-15
  0.96872043D-16  0.37241150D-16 -0.16137200D-18  0.14643473D-15  0.27497850D-15
  0.46824095D-15  0.73349668D-15  0.98297185D-15  0.10573188D-14  0.63481279D-15
 -0.41747960D-15 -0.30341452D-15 -0.33873831D-15 -0.25704951D-15 -0.11682500D+01
 -0.11425230D+01 -0.75491327D+00 -0.22068203D+01 -0.21582220D+01 -0.14260285D+01
  0.94855605D-14  0.92766710D-14  0.61294888D-14 -0.26687639D+00 -0.50412857D+00
  0.20748967D-14 -0.43254966D-01 -0.81708480D-01  0.19566626D-15 -0.95088358D-03
 -0.17962158D-02 -0.41632608D-16 -0.21098024D-15 -0.16197349D-15  0.37295373D-15
 -0.28129469D-15 -0.40815428D-01 -0.77100202D-01 -0.25671367D-16 -0.49671102D-16
  0.75342469D-16 -0.65051214D-16 -0.17916524D-01 -0.33844252D-01 -0.35395075D-17
 -0.25154305D-17  0.60549380D-17  0.22169011D-18 -0.39885098D-02 -0.75342812D-02
  0.31417631D-02  0.59347797D-02 -0.47661133D-16  0.31417342D-02  0.59347249D-02
  0.46874845D-16 -0.12567024D-01 -0.23739064D-01  0.96108554D-16 -0.23061654D-15
  0.12838439D-02  0.24251767D-02  0.17659946D-16  0.12838470D-02  0.24251826D-02
  0.11622811D-16 -0.51353787D-02 -0.97007127D-02 -0.64602649D-16 -0.46142423D-17
 -0.39532785D-16 -0.73666757D-16 -0.12414886D-15 -0.18522908D-15 -0.22436412D-15
 -0.18668767D-15 -0.69336770D-16  0.36809433D-18 -0.88256289D-16 -0.16485266D-15
 -0.28058006D-15 -0.42911625D-15 -0.55809114D-15 -0.56491474D-15 -0.37196771D-15
  0.25426045D-15  0.13284373D-15  0.29048447D-15  0.15658043D-17 -0.52431076D-01
 -0.47253789D-01 -0.34309315D-01 -0.99042121D-01 -0.89262243D-01 -0.64810177D-01
 -0.41606625D-15 -0.37498194D-15 -0.27226121D-15 -0.71333067D-02 -0.13474792D-01
 -0.99827030D-16  0.19543131D-03  0.36916907D-03 -0.52869037D-16  0.27610562D-05
  0.52156256D-05  0.26630621D-17 -0.28987611D-16 -0.32497353D-16  0.61484964D-16
 -0.55664194D-17  0.18246609D-01  0.34467781D-01 -0.14303708D-16 -0.10611952D-16
  0.24915659D-16 -0.57099083D-17 -0.72286880D-03 -0.13654967D-02 -0.21559991D-19
 -0.30427825D-18  0.32583824D-18 -0.16174980D-17 -0.58330344D-04 -0.11018582D-03
  0.80576461D-03  0.15220866D-02 -0.13173693D-16  0.80576759D-03  0.15220922D-02
  0.20096025D-16 -0.32230614D-02 -0.60883519D-02  0.19425055D-16 -0.22812842D-16
 -0.97036012D-04 -0.18330069D-03 -0.10158109D-17 -0.97036126D-04 -0.18330091D-03
  0.15222306D-17  0.38814416D-03  0.73320298D-03  0.15252020D-17  0.32512566D-17
MO    6     MO 0.0        OCC NO =    2.0000000  ORB. ENERGY =   -0.626242
  0.53423139D-17  0.99583046D-17  0.16881775D-16  0.25563982D-16  0.31967849D-16
  0.27521340D-16  0.10580208D-16 -0.45845773D-19  0.19630776D-16  0.36863121D-16
  0.62771537D-16  0.98331241D-16  0.13177543D-15  0.14174224D-15  0.85101857D-16
 -0.55966562D-16 -0.65844682D-16 -0.21505493D-16  0.16166394D-15 -0.22068203D+01
 -0.21582220D+01 -0.14260285D+01  0.11682500D+01  0.11425230D+01  0.75491327D+00
  0.13288770D-14  0.12996127D-14  0.85870904D-15 -0.50412857D+00  0.26687639D+00
  0.37679283D-15 -0.81708480D-01  0.43254966D-01  0.48756405D-16 -0.17962158D-02
  0.95088358D-03  0.13870124D-16 -0.16053247D-16 -0.52417629D-16  0.68470875D-16
 -0.29265882D-15 -0.77100202D-01  0.40815428D-01 -0.65255943D-17 -0.50757595D-17
  0.11601354D-16  0.62747293D-16 -0.33844252D-01  0.17916524D-01 -0.22736349D-17
  0.84178568D-17 -0.61442219D-17 -0.90763097D-17 -0.75342812D-02  0.39885098D-02
  0.59347797D-02 -0.31417631D-02 -0.15048871D-16  0.59347249D-02 -0.31417342D-02
 -0.61444195D-16 -0.23739064D-01  0.12567024D-01  0.10659081D-15 -0.18524155D-15
  0.24251767D-02 -0.12838439D-02 -0.24069199D-16  0.24251826D-02 -0.12838470D-02
  0.96257756D-16 -0.97007127D-02  0.51353787D-02 -0.24050160D-16 -0.21026932D-16
 -0.41660248D-17 -0.77631144D-17 -0.13082995D-16 -0.19519721D-16 -0.23643831D-16
 -0.19673429D-16 -0.73068138D-17  0.38790338D-19 -0.56242165D-17 -0.10505394D-16
 -0.17880233D-16 -0.27345844D-16 -0.35564892D-16 -0.35999733D-16 -0.23703999D-16
  0.16202991D-16  0.32019508D-16 -0.14130613D-15 -0.71148180D-17 -0.99042121D-01
 -0.89262243D-01 -0.64810177D-01  0.52431076D-01  0.47253789D-01  0.34309315D-01
 -0.17329204D-15 -0.15618038D-15 -0.11339708D-15 -0.13474792D-01  0.71333067D-02
 -0.59549002D-17  0.36916907D-03 -0.19543131D-03  0.36991028D-16  0.52156256D-05
 -0.27610562D-05 -0.14770578D-18 -0.53849302D-16  0.38069852D-16  0.15779450D-16
  0.60466858D-17  0.34467781D-01 -0.18246609D-01  0.63923567D-17 -0.48204568D-17
 -0.15718999D-17  0.95642837D-17 -0.13654967D-02  0.72286880D-03  0.90449674D-18
  0.16042717D-17 -0.25087684D-17 -0.18797151D-18 -0.11018582D-03  0.58330344D-04
  0.15220866D-02 -0.80576461D-03  0.32089957D-17  0.15220922D-02 -0.80576759D-03
  0.22191440D-16 -0.60883519D-02  0.32230614D-02 -0.31818428D-16  0.85131991D-17
 -0.18330069D-03  0.97036012D-04 -0.68790562D-18 -0.18330091D-03  0.97036126D-04
 -0.60256644D-18  0.73320298D-03 -0.38814416D-03  0.26662833D-17 -0.33275227D-17
MO    7     MO 0.0        OCC NO =    2.0000000  ORB. ENERGY =   -0.342151
 -0.37482905D-02 -0.69869759D-02 -0.11844642D-01 -0.17936279D-01 -0.22429379D-01
 -0.19309606D-01 -0.74233176D-02  0.32166451D-04  0.16604008D-01  0.31179386D-01
  0.53093117D-01  0.83170054D-01  0.11145766D+00  0.11988774D+00  0.71980440D-01
 -0.47337366D-01 -0.28992756D-01 -0.40959891D-02  0.16109082D-02  0.17605632D-15
  0.17217923D-15  0.11376610D-15  0.12861083D-14  0.12577859D-14  0.83107230D-15
 -0.62868270D+00 -0.61483794D+00 -0.40624943D+00  0.18204671D-16  0.29444267D-15
 -0.14297150D+00  0.16295041D-16  0.40387007D-16 -0.12746166D-01  0.38611619D-17
 -0.13374049D-16 -0.83082941D-03  0.75935712D-02  0.75935712D-02 -0.15187142D-01
 -0.44355804D-16 -0.33966132D-17  0.11060458D-16  0.53282510D-03  0.53282510D-03
 -0.10656502D-02  0.89564865D-17 -0.80084994D-17  0.21150676D-16 -0.58563133D-03
 -0.58563133D-03  0.11712627D-02 -0.15406857D-17  0.12918841D-16 -0.65179237D-17
  0.47680700D-18 -0.61445345D-17 -0.57836155D-02  0.41873365D-17  0.13851903D-17
  0.86754233D-02 -0.56177575D-17  0.17048413D-16  0.86754233D-02 -0.23375587D-16
 -0.20623648D-17  0.32672791D-18  0.39162819D-03 -0.25751827D-17  0.60147779D-18
 -0.58744229D-03  0.87622773D-17 -0.15816615D-17 -0.58744229D-03 -0.87890161D-18
 -0.11486703D-02 -0.21404719D-02 -0.36072872D-02 -0.53820428D-02 -0.65191562D-02
 -0.54244237D-02 -0.20146592D-02  0.10695402D-04 -0.39253849D-01 -0.73321705D-01
 -0.12479391D+00 -0.19085852D+00 -0.24822282D+00 -0.25125777D+00 -0.16544050D+00
  0.11308771D+00  0.41833406D-01  0.49177843D-01  0.13410913D-02  0.26662629D-16
  0.24029838D-16  0.17447221D-16  0.73152026D-16  0.65928656D-16  0.47868479D-16
  0.23348346D+00  0.21042823D+00  0.15278454D+00 -0.54281834D-18  0.16137431D-16
  0.58212032D-01  0.91256728D-18  0.65500342D-17  0.49302659D-02 -0.40130220D-18
  0.51270959D-18  0.12306441D-04  0.12030617D-01  0.12030617D-01 -0.24061233D-01
  0.12686620D-17 -0.49937049D-17 -0.24401030D-16  0.18434981D-02  0.18434981D-02
 -0.36869963D-02  0.20082838D-19  0.69105135D-17 -0.84497234D-17  0.17060450D-04
  0.17060450D-04 -0.34120899D-04 -0.70516594D-19 -0.86718084D-19  0.20066290D-18
  0.42581730D-18 -0.18808465D-17  0.18518932D-02  0.35192834D-18 -0.24106333D-17
 -0.27778398D-02 -0.16293802D-17  0.80531729D-17 -0.27778398D-02  0.39898116D-17
 -0.11507385D-19 -0.47099829D-18  0.35947554D-05  0.83022087D-19 -0.44631074D-18
 -0.53921332D-05 -0.48499932D-19  0.18593056D-17 -0.53921332D-05  0.25144241D-18
END DATA
RHF
