 Molden2AIM, Version 4.0.0 (06/02/2016)           Time: Sun Jul  1 16:16:49 2018
GAUSSIAN             35 MOL ORBITALS    526 PRIMITIVES        2 NUCLEI
  Br   1    (CENTRE  1)   0.00000000  0.00000000  2.15296497  CHARGE = 35.0
  Br   2    (CENTRE  2)   0.00000000  0.00000000 -2.15296497  CHARGE = 35.0
CENTRE ASSIGNMENTS    1  1  1  1  1  1  1  1  1  1  1  1  1  1  1  1  1  1  1  1
CENTRE ASSIGNMENTS    1  1  1  1  1  1  1  1  1  1  1  1  1  1  1  1  1  1  1  1
CENTRE ASSIGNMENTS    1  1  1  1  1  1  1  1  1  1  1  1  1  1  1  1  1  1  1  1
CENTRE ASSIGNMENTS    1  1  1  1  1  1  1  1  1  1  1  1  1  1  1  1  1  1  1  1
CENTRE ASSIGNMENTS    1  1  1  1  1  1  1  1  1  1  1  1  1  1  1  1  1  1  1  1
CENTRE ASSIGNMENTS    1  1  1  1  1  1  1  1  1  1  1  1  1  1  1  1  1  1  1  1
CENTRE ASSIGNMENTS    1  1  1  1  1  1  1  1  1  1  1  1  1  1  1  1  1  1  1  1
CENTRE ASSIGNMENTS    1  1  1  1  1  1  1  1  1  1  1  1  1  1  1  1  1  1  1  1
CENTRE ASSIGNMENTS    1  1  1  1  1  1  1  1  1  1  1  1  1  1  1  1  1  1  1  1
CENTRE ASSIGNMENTS    1  1  1  1  1  1  1  1  1  1  1  1  1  1  1  1  1  1  1  1
CENTRE ASSIGNMENTS    1  1  1  1  1  1  1  1  1  1  1  1  1  1  1  1  1  1  1  1
CENTRE ASSIGNMENTS    1  1  1  1  1  1  1  1  1  1  1  1  1  1  1  1  1  1  1  1
CENTRE ASSIGNMENTS    1  1  1  1  1  1  1  1  1  1  1  1  1  1  1  1  1  1  1  1
CENTRE ASSIGNMENTS    1  1  1  2  2  2  2  2  2  2  2  2  2  2  2  2  2  2  2  2
CENTRE ASSIGNMENTS    2  2  2  2  2  2  2  2  2  2  2  2  2  2  2  2  2  2  2  2
CENTRE ASSIGNMENTS    2  2  2  2  2  2  2  2  2  2  2  2  2  2  2  2  2  2  2  2
CENTRE ASSIGNMENTS    2  2  2  2  2  2  2  2  2  2  2  2  2  2  2  2  2  2  2  2
CENTRE ASSIGNMENTS    2  2  2  2  2  2  2  2  2  2  2  2  2  2  2  2  2  2  2  2
CENTRE ASSIGNMENTS    2  2  2  2  2  2  2  2  2  2  2  2  2  2  2  2  2  2  2  2
CENTRE ASSIGNMENTS    2  2  2  2  2  2  2  2  2  2  2  2  2  2  2  2  2  2  2  2
CENTRE ASSIGNMENTS    2  2  2  2  2  2  2  2  2  2  2  2  2  2  2  2  2  2  2  2
CENTRE ASSIGNMENTS    2  2  2  2  2  2  2  2  2  2  2  2  2  2  2  2  2  2  2  2
CENTRE ASSIGNMENTS    2  2  2  2  2  2  2  2  2  2  2  2  2  2  2  2  2  2  2  2
CENTRE ASSIGNMENTS    2  2  2  2  2  2  2  2  2  2  2  2  2  2  2  2  2  2  2  2
CENTRE ASSIGNMENTS    2  2  2  2  2  2  2  2  2  2  2  2  2  2  2  2  2  2  2  2
CENTRE ASSIGNMENTS    2  2  2  2  2  2  2  2  2  2  2  2  2  2  2  2  2  2  2  2
CENTRE ASSIGNMENTS    2  2  2  2  2  2
TYPE ASSIGNMENTS      1  1  1  1  1  1  1  1  1  1  1  1  1  1  1  1  1  1  1  1
TYPE ASSIGNMENTS      1  1  1  1  1  1  1  1  1  1  1  1  1  1  1  1  1  1  1  1
TYPE ASSIGNMENTS      1  1  1  1  1  1  1  1  1  1  1  1  1  1  1  1  1  1  1  1
TYPE ASSIGNMENTS      1  1  1  1  1  1  1  1  1  1  1  1  1  1  1  2  2  2  2  2
TYPE ASSIGNMENTS      2  2  2  2  2  2  3  3  3  3  3  3  3  3  3  3  3  4  4  4
TYPE ASSIGNMENTS      4  4  4  4  4  4  4  4  2  2  2  2  2  2  2  2  2  2  2  3
TYPE ASSIGNMENTS      3  3  3  3  3  3  3  3  3  3  4  4  4  4  4  4  4  4  4  4
TYPE ASSIGNMENTS      4  2  2  2  2  2  2  2  2  2  2  2  3  3  3  3  3  3  3  3
TYPE ASSIGNMENTS      3  3  3  4  4  4  4  4  4  4  4  4  4  4  2  3  4  2  3  4
TYPE ASSIGNMENTS      2  3  4  5  5  5  5  5  5  5  6  6  6  6  6  6  6  7  7  7
TYPE ASSIGNMENTS      7  7  7  7  8  8  8  8  8  8  8  9  9  9  9  9  9  9 10 10
TYPE ASSIGNMENTS     10 10 10 10 10  5  6  7  8  9 10  5  6  7  8  9 10  5  6  7
TYPE ASSIGNMENTS      8  9 10 11 12 13 17 14 15 18 19 16 20 11 12 13 17 14 15 18
TYPE ASSIGNMENTS     19 16 20  1  1  1  1  1  1  1  1  1  1  1  1  1  1  1  1  1
TYPE ASSIGNMENTS      1  1  1  1  1  1  1  1  1  1  1  1  1  1  1  1  1  1  1  1
TYPE ASSIGNMENTS      1  1  1  1  1  1  1  1  1  1  1  1  1  1  1  1  1  1  1  1
TYPE ASSIGNMENTS      1  1  1  1  1  1  1  1  1  1  1  1  1  1  1  1  1  1  2  2
TYPE ASSIGNMENTS      2  2  2  2  2  2  2  2  2  3  3  3  3  3  3  3  3  3  3  3
TYPE ASSIGNMENTS      4  4  4  4  4  4  4  4  4  4  4  2  2  2  2  2  2  2  2  2
TYPE ASSIGNMENTS      2  2  3  3  3  3  3  3  3  3  3  3  3  4  4  4  4  4  4  4
TYPE ASSIGNMENTS      4  4  4  4  2  2  2  2  2  2  2  2  2  2  2  3  3  3  3  3
TYPE ASSIGNMENTS      3  3  3  3  3  3  4  4  4  4  4  4  4  4  4  4  4  2  3  4
TYPE ASSIGNMENTS      2  3  4  2  3  4  5  5  5  5  5  5  5  6  6  6  6  6  6  6
TYPE ASSIGNMENTS      7  7  7  7  7  7  7  8  8  8  8  8  8  8  9  9  9  9  9  9
TYPE ASSIGNMENTS      9 10 10 10 10 10 10 10  5  6  7  8  9 10  5  6  7  8  9 10
TYPE ASSIGNMENTS      5  6  7  8  9 10 11 12 13 17 14 15 18 19 16 20 11 12 13 17
TYPE ASSIGNMENTS     14 15 18 19 16 20
EXPONENTS  0.1063900D+08 0.1593400D+07 0.3626100D+06 0.1027000D+06 0.3350100D+05
EXPONENTS  0.1209300D+05 0.4715900D+04 0.1955600D+04 0.8526100D+03 0.3876700D+03
EXPONENTS  0.1826800D+03 0.8824500D+02 0.3926300D+02 0.1923400D+02 0.9405700D+01
EXPONENTS  0.4160100D+01 0.1899500D+01 0.3011400D+00 0.1063900D+08 0.1593400D+07
EXPONENTS  0.3626100D+06 0.1027000D+06 0.3350100D+05 0.1209300D+05 0.4715900D+04
EXPONENTS  0.1955600D+04 0.8526100D+03 0.3876700D+03 0.1826800D+03 0.8824500D+02
EXPONENTS  0.3926300D+02 0.1923400D+02 0.9405700D+01 0.4160100D+01 0.1899500D+01
EXPONENTS  0.3011400D+00 0.1063900D+08 0.1593400D+07 0.3626100D+06 0.1027000D+06
EXPONENTS  0.3350100D+05 0.1209300D+05 0.4715900D+04 0.1955600D+04 0.8526100D+03
EXPONENTS  0.3876700D+03 0.1826800D+03 0.8824500D+02 0.3926300D+02 0.1923400D+02
EXPONENTS  0.9405700D+01 0.4160100D+01 0.1899500D+01 0.3011400D+00 0.1063900D+08
EXPONENTS  0.1593400D+07 0.3626100D+06 0.1027000D+06 0.3350100D+05 0.1209300D+05
EXPONENTS  0.4715900D+04 0.1955600D+04 0.8526100D+03 0.3876700D+03 0.1826800D+03
EXPONENTS  0.8824500D+02 0.3926300D+02 0.1923400D+02 0.9405700D+01 0.4160100D+01
EXPONENTS  0.1899500D+01 0.3011400D+00 0.6047200D+00 0.1251500D+00 0.4559300D-01
EXPONENTS  0.8676500D+04 0.2055900D+04 0.6662300D+03 0.2531000D+03 0.1061200D+03
EXPONENTS  0.4724200D+02 0.2182500D+02 0.9968400D+01 0.4517100D+01 0.1998200D+01
EXPONENTS  0.2814500D+00 0.8676500D+04 0.2055900D+04 0.6662300D+03 0.2531000D+03
EXPONENTS  0.1061200D+03 0.4724200D+02 0.2182500D+02 0.9968400D+01 0.4517100D+01
EXPONENTS  0.1998200D+01 0.2814500D+00 0.8676500D+04 0.2055900D+04 0.6662300D+03
EXPONENTS  0.2531000D+03 0.1061200D+03 0.4724200D+02 0.2182500D+02 0.9968400D+01
EXPONENTS  0.4517100D+01 0.1998200D+01 0.2814500D+00 0.8676500D+04 0.2055900D+04
EXPONENTS  0.6662300D+03 0.2531000D+03 0.1061200D+03 0.4724200D+02 0.2182500D+02
EXPONENTS  0.9968400D+01 0.4517100D+01 0.1998200D+01 0.2814500D+00 0.8676500D+04
EXPONENTS  0.2055900D+04 0.6662300D+03 0.2531000D+03 0.1061200D+03 0.4724200D+02
EXPONENTS  0.2182500D+02 0.9968400D+01 0.4517100D+01 0.1998200D+01 0.2814500D+00
EXPONENTS  0.8676500D+04 0.2055900D+04 0.6662300D+03 0.2531000D+03 0.1061200D+03
EXPONENTS  0.4724200D+02 0.2182500D+02 0.9968400D+01 0.4517100D+01 0.1998200D+01
EXPONENTS  0.2814500D+00 0.8676500D+04 0.2055900D+04 0.6662300D+03 0.2531000D+03
EXPONENTS  0.1061200D+03 0.4724200D+02 0.2182500D+02 0.9968400D+01 0.4517100D+01
EXPONENTS  0.1998200D+01 0.2814500D+00 0.8676500D+04 0.2055900D+04 0.6662300D+03
EXPONENTS  0.2531000D+03 0.1061200D+03 0.4724200D+02 0.2182500D+02 0.9968400D+01
EXPONENTS  0.4517100D+01 0.1998200D+01 0.2814500D+00 0.8676500D+04 0.2055900D+04
EXPONENTS  0.6662300D+03 0.2531000D+03 0.1061200D+03 0.4724200D+02 0.2182500D+02
EXPONENTS  0.9968400D+01 0.4517100D+01 0.1998200D+01 0.2814500D+00 0.7098800D+00
EXPONENTS  0.7098800D+00 0.7098800D+00 0.1020400D+00 0.1020400D+00 0.1020400D+00
EXPONENTS  0.3514200D-01 0.3514200D-01 0.3514200D-01 0.4038300D+03 0.1211700D+03
EXPONENTS  0.4634500D+02 0.1972100D+02 0.8862400D+01 0.3996200D+01 0.1763600D+01
EXPONENTS  0.4038300D+03 0.1211700D+03 0.4634500D+02 0.1972100D+02 0.8862400D+01
EXPONENTS  0.3996200D+01 0.1763600D+01 0.4038300D+03 0.1211700D+03 0.4634500D+02
EXPONENTS  0.1972100D+02 0.8862400D+01 0.3996200D+01 0.1763600D+01 0.4038300D+03
EXPONENTS  0.1211700D+03 0.4634500D+02 0.1972100D+02 0.8862400D+01 0.3996200D+01
EXPONENTS  0.1763600D+01 0.4038300D+03 0.1211700D+03 0.4634500D+02 0.1972100D+02
EXPONENTS  0.8862400D+01 0.3996200D+01 0.1763600D+01 0.4038300D+03 0.1211700D+03
EXPONENTS  0.4634500D+02 0.1972100D+02 0.8862400D+01 0.3996200D+01 0.1763600D+01
EXPONENTS  0.7061900D+00 0.7061900D+00 0.7061900D+00 0.7061900D+00 0.7061900D+00
EXPONENTS  0.7061900D+00 0.2639000D+00 0.2639000D+00 0.2639000D+00 0.2639000D+00
EXPONENTS  0.2639000D+00 0.2639000D+00 0.1047000D+00 0.1047000D+00 0.1047000D+00
EXPONENTS  0.1047000D+00 0.1047000D+00 0.1047000D+00 0.5515000D+00 0.5515000D+00
EXPONENTS  0.5515000D+00 0.5515000D+00 0.5515000D+00 0.5515000D+00 0.5515000D+00
EXPONENTS  0.5515000D+00 0.5515000D+00 0.5515000D+00 0.2580000D+00 0.2580000D+00
EXPONENTS  0.2580000D+00 0.2580000D+00 0.2580000D+00 0.2580000D+00 0.2580000D+00
EXPONENTS  0.2580000D+00 0.2580000D+00 0.2580000D+00 0.1063900D+08 0.1593400D+07
EXPONENTS  0.3626100D+06 0.1027000D+06 0.3350100D+05 0.1209300D+05 0.4715900D+04
EXPONENTS  0.1955600D+04 0.8526100D+03 0.3876700D+03 0.1826800D+03 0.8824500D+02
EXPONENTS  0.3926300D+02 0.1923400D+02 0.9405700D+01 0.4160100D+01 0.1899500D+01
EXPONENTS  0.3011400D+00 0.1063900D+08 0.1593400D+07 0.3626100D+06 0.1027000D+06
EXPONENTS  0.3350100D+05 0.1209300D+05 0.4715900D+04 0.1955600D+04 0.8526100D+03
EXPONENTS  0.3876700D+03 0.1826800D+03 0.8824500D+02 0.3926300D+02 0.1923400D+02
EXPONENTS  0.9405700D+01 0.4160100D+01 0.1899500D+01 0.3011400D+00 0.1063900D+08
EXPONENTS  0.1593400D+07 0.3626100D+06 0.1027000D+06 0.3350100D+05 0.1209300D+05
EXPONENTS  0.4715900D+04 0.1955600D+04 0.8526100D+03 0.3876700D+03 0.1826800D+03
EXPONENTS  0.8824500D+02 0.3926300D+02 0.1923400D+02 0.9405700D+01 0.4160100D+01
EXPONENTS  0.1899500D+01 0.3011400D+00 0.1063900D+08 0.1593400D+07 0.3626100D+06
EXPONENTS  0.1027000D+06 0.3350100D+05 0.1209300D+05 0.4715900D+04 0.1955600D+04
EXPONENTS  0.8526100D+03 0.3876700D+03 0.1826800D+03 0.8824500D+02 0.3926300D+02
EXPONENTS  0.1923400D+02 0.9405700D+01 0.4160100D+01 0.1899500D+01 0.3011400D+00
EXPONENTS  0.6047200D+00 0.1251500D+00 0.4559300D-01 0.8676500D+04 0.2055900D+04
EXPONENTS  0.6662300D+03 0.2531000D+03 0.1061200D+03 0.4724200D+02 0.2182500D+02
EXPONENTS  0.9968400D+01 0.4517100D+01 0.1998200D+01 0.2814500D+00 0.8676500D+04
EXPONENTS  0.2055900D+04 0.6662300D+03 0.2531000D+03 0.1061200D+03 0.4724200D+02
EXPONENTS  0.2182500D+02 0.9968400D+01 0.4517100D+01 0.1998200D+01 0.2814500D+00
EXPONENTS  0.8676500D+04 0.2055900D+04 0.6662300D+03 0.2531000D+03 0.1061200D+03
EXPONENTS  0.4724200D+02 0.2182500D+02 0.9968400D+01 0.4517100D+01 0.1998200D+01
EXPONENTS  0.2814500D+00 0.8676500D+04 0.2055900D+04 0.6662300D+03 0.2531000D+03
EXPONENTS  0.1061200D+03 0.4724200D+02 0.2182500D+02 0.9968400D+01 0.4517100D+01
EXPONENTS  0.1998200D+01 0.2814500D+00 0.8676500D+04 0.2055900D+04 0.6662300D+03
EXPONENTS  0.2531000D+03 0.1061200D+03 0.4724200D+02 0.2182500D+02 0.9968400D+01
EXPONENTS  0.4517100D+01 0.1998200D+01 0.2814500D+00 0.8676500D+04 0.2055900D+04
EXPONENTS  0.6662300D+03 0.2531000D+03 0.1061200D+03 0.4724200D+02 0.2182500D+02
EXPONENTS  0.9968400D+01 0.4517100D+01 0.1998200D+01 0.2814500D+00 0.8676500D+04
EXPONENTS  0.2055900D+04 0.6662300D+03 0.2531000D+03 0.1061200D+03 0.4724200D+02
EXPONENTS  0.2182500D+02 0.9968400D+01 0.4517100D+01 0.1998200D+01 0.2814500D+00
EXPONENTS  0.8676500D+04 0.2055900D+04 0.6662300D+03 0.2531000D+03 0.1061200D+03
EXPONENTS  0.4724200D+02 0.2182500D+02 0.9968400D+01 0.4517100D+01 0.1998200D+01
EXPONENTS  0.2814500D+00 0.8676500D+04 0.2055900D+04 0.6662300D+03 0.2531000D+03
EXPONENTS  0.1061200D+03 0.4724200D+02 0.2182500D+02 0.9968400D+01 0.4517100D+01
EXPONENTS  0.1998200D+01 0.2814500D+00 0.7098800D+00 0.7098800D+00 0.7098800D+00
EXPONENTS  0.1020400D+00 0.1020400D+00 0.1020400D+00 0.3514200D-01 0.3514200D-01
EXPONENTS  0.3514200D-01 0.4038300D+03 0.1211700D+03 0.4634500D+02 0.1972100D+02
EXPONENTS  0.8862400D+01 0.3996200D+01 0.1763600D+01 0.4038300D+03 0.1211700D+03
EXPONENTS  0.4634500D+02 0.1972100D+02 0.8862400D+01 0.3996200D+01 0.1763600D+01
EXPONENTS  0.4038300D+03 0.1211700D+03 0.4634500D+02 0.1972100D+02 0.8862400D+01
EXPONENTS  0.3996200D+01 0.1763600D+01 0.4038300D+03 0.1211700D+03 0.4634500D+02
EXPONENTS  0.1972100D+02 0.8862400D+01 0.3996200D+01 0.1763600D+01 0.4038300D+03
EXPONENTS  0.1211700D+03 0.4634500D+02 0.1972100D+02 0.8862400D+01 0.3996200D+01
EXPONENTS  0.1763600D+01 0.4038300D+03 0.1211700D+03 0.4634500D+02 0.1972100D+02
EXPONENTS  0.8862400D+01 0.3996200D+01 0.1763600D+01 0.7061900D+00 0.7061900D+00
EXPONENTS  0.7061900D+00 0.7061900D+00 0.7061900D+00 0.7061900D+00 0.2639000D+00
EXPONENTS  0.2639000D+00 0.2639000D+00 0.2639000D+00 0.2639000D+00 0.2639000D+00
EXPONENTS  0.1047000D+00 0.1047000D+00 0.1047000D+00 0.1047000D+00 0.1047000D+00
EXPONENTS  0.1047000D+00 0.5515000D+00 0.5515000D+00 0.5515000D+00 0.5515000D+00
EXPONENTS  0.5515000D+00 0.5515000D+00 0.5515000D+00 0.5515000D+00 0.5515000D+00
EXPONENTS  0.5515000D+00 0.2580000D+00 0.2580000D+00 0.2580000D+00 0.2580000D+00
EXPONENTS  0.2580000D+00 0.2580000D+00 0.2580000D+00 0.2580000D+00 0.2580000D+00
EXPONENTS  0.2580000D+00
MO    1     MO 0.0        OCC NO =    2.0000000  ORB. ENERGY = -485.562761
 -0.55352566D+00 -0.10412492D+01 -0.18024537D+01 -0.29545664D+01 -0.46283856D+01
 -0.69568576D+01 -0.99430971D+01 -0.13199709D+02 -0.15372853D+02 -0.14119817D+02
 -0.82564124D+01 -0.21665239D+01 -0.11844302D+00  0.42393065D-02 -0.11847524D-02
  0.35179296D-03 -0.59974609D-04 -0.48931032D-05 -0.35255418D-04 -0.64775127D-04
 -0.11201112D-03 -0.18343387D-03 -0.28880838D-03 -0.43612895D-03 -0.63661508D-03
 -0.87665764D-03 -0.11201338D-02 -0.12210771D-02 -0.10051344D-02 -0.27560104D-03
  0.55590517D-03  0.54175386D-03  0.11855101D-03  0.39938743D-05  0.13529970D-06
 -0.34418498D-09  0.23042185D-04  0.45171912D-04  0.79117483D-04  0.12925222D-03
  0.20386189D-03  0.30761849D-03  0.45102982D-03  0.62272128D-03  0.80736122D-03
  0.89783319D-03  0.77982340D-03  0.22652475D-03 -0.57106615D-03 -0.83208361D-03
 -0.14324617D-03  0.34945932D-03  0.16633383D-03 -0.80327684D-06 -0.82519729D-05
 -0.17880033D-04 -0.30437920D-04 -0.49682882D-04 -0.78320189D-04 -0.11820779D-03
 -0.17331188D-03 -0.23959137D-03 -0.31096556D-03 -0.34740291D-03 -0.30346431D-03
 -0.89886423D-04  0.23365307D-03  0.35943739D-03  0.62912519D-04 -0.19845406D-03
 -0.16845749D-03  0.62849983D-04 -0.48429700D-04 -0.42522101D-04 -0.10011868D-04
 -0.17493442D-14 -0.25099991D-14 -0.33233723D-14 -0.38375534D-14 -0.35575886D-14
 -0.23032477D-14 -0.81296185D-15 -0.95286139D-16 -0.13852841D-17 -0.20285944D-18
 -0.20857100D-20 -0.10299557D-13 -0.14778041D-13 -0.19566912D-13 -0.22594240D-13
 -0.20945899D-13 -0.13560757D-13 -0.47864493D-14 -0.56101313D-15 -0.81560925D-17
 -0.11943690D-17 -0.12279968D-19  0.18091289D-03  0.25957796D-03  0.34369502D-03
  0.39687037D-03  0.36791709D-03  0.23819623D-03  0.84074523D-04  0.98542590D-05
  0.14326269D-06  0.20979226D-07  0.21569902D-09  0.14355680D-16  0.20722589D-16
  0.27684884D-16  0.32890491D-16  0.31873407D-16  0.22156084D-16  0.72093771D-17
 -0.32447918D-17 -0.35054577D-17 -0.90246936D-18  0.88027553D-21 -0.32490809D-15
 -0.46900856D-15 -0.62658422D-15 -0.74440128D-15 -0.72138190D-15 -0.50145244D-15
 -0.16316781D-15  0.73438465D-16  0.79338043D-16  0.20425336D-16 -0.19923030D-19
  0.23694837D-04  0.34203770D-04  0.45695419D-04  0.54287560D-04  0.52608807D-04
  0.36569831D-04  0.11899472D-04 -0.53557069D-05 -0.57859503D-05 -0.14895752D-05
  0.14529430D-08 -0.11061294D-15 -0.16072551D-15 -0.21368643D-15 -0.25640893D-15
 -0.24807677D-15 -0.17610562D-15 -0.54734070D-16  0.31424850D-16  0.36100177D-16
  0.95867192D-17 -0.34589182D-17 -0.17125182D-15 -0.24883648D-15 -0.33083099D-15
 -0.39697429D-15 -0.38407438D-15 -0.27264809D-15 -0.84739712D-16  0.48652197D-16
  0.55890574D-16  0.14842233D-16 -0.53551240D-17  0.53976371D-05  0.78430061D-05
  0.10427368D-04  0.12512119D-04  0.12105531D-04  0.85935173D-05  0.26708868D-05
 -0.15334547D-05 -0.17615990D-05 -0.46780811D-06  0.16878662D-06  0.35815080D-16
  0.41296078D-17  0.72075324D-07  0.19767921D-18 -0.10789528D-19  0.17082030D-04
  0.28058967D-19  0.34787433D-19  0.58622689D-06  0.39767013D-04  0.41611894D-04
  0.35455561D-04  0.23350167D-04  0.10761397D-04  0.32225177D-05  0.54828407D-06
  0.39767013D-04  0.41611894D-04  0.35455561D-04  0.23350167D-04  0.10761397D-04
  0.32225177D-05  0.54828407D-06 -0.79534026D-04 -0.83223789D-04 -0.70911122D-04
 -0.46700335D-04 -0.21522794D-04 -0.64450355D-05 -0.10965681D-05  0.81725061D-18
  0.85516471D-18  0.72864610D-18  0.47986854D-18  0.22115712D-18  0.66225859D-19
  0.11267768D-19 -0.23460346D-15 -0.24548724D-15 -0.20916827D-15 -0.13775312D-15
 -0.63486311D-16 -0.19011079D-16 -0.32345739D-17  0.52347719D-17  0.54776248D-17
  0.46672295D-17  0.30737235D-17  0.14165876D-17  0.42419946D-18  0.72173942D-19
 -0.15514683D-05 -0.15514683D-05  0.31029366D-05  0.60854171D-21  0.72867442D-17
 -0.68351043D-18  0.14835810D-05  0.14835810D-05 -0.29671621D-05 -0.70374076D-22
 -0.17392184D-17  0.20438113D-18  0.10763714D-05  0.10763714D-05 -0.21527429D-05
  0.17465628D-22  0.41112290D-18 -0.22255587D-19  0.57429123D-18 -0.26249743D-18
 -0.17293236D-05  0.57352584D-18 -0.26061634D-18  0.25939855D-05 -0.22963995D-17
  0.10481086D-17  0.25939855D-05 -0.83488622D-22 -0.29298384D-18  0.11912650D-18
  0.10620453D-05 -0.29290598D-18  0.11897938D-18 -0.15930680D-05  0.11718575D-17
 -0.47635889D-18 -0.15930680D-05  0.40602300D-22  0.55423589D+00  0.10425852D+01
  0.18047664D+01  0.29583574D+01  0.46343242D+01  0.69657840D+01  0.99558551D+01
  0.13216645D+02  0.15392578D+02  0.14137934D+02  0.82670062D+01  0.21693038D+01
  0.11859499D+00 -0.42447460D-02  0.11862725D-02 -0.35224435D-03  0.60051563D-04
  0.48993815D-05  0.35294409D-04  0.64846766D-04  0.11213500D-03  0.18363674D-03
  0.28912779D-03  0.43661130D-03  0.63731916D-03  0.87762719D-03  0.11213726D-02
  0.12224275D-02  0.10062461D-02  0.27590584D-03 -0.55651998D-03 -0.54235302D-03
 -0.11868212D-03 -0.39982914D-05 -0.13544934D-06  0.34456564D-09 -0.23063723D-04
 -0.45214136D-04 -0.79191439D-04 -0.12937304D-03 -0.20405245D-03 -0.30790603D-03
 -0.45145142D-03 -0.62330337D-03 -0.80811590D-03 -0.89867245D-03 -0.78055234D-03
 -0.22673649D-03  0.57159995D-03  0.83286141D-03  0.14338007D-03 -0.34978598D-03
 -0.16648931D-03  0.80402770D-06  0.82588092D-05  0.17894845D-04  0.30463136D-04
  0.49724042D-04  0.78385073D-04  0.11830571D-03  0.17345546D-03  0.23978986D-03
  0.31122318D-03  0.34769071D-03  0.30371571D-03  0.89960888D-04 -0.23384663D-03
 -0.35973516D-03 -0.62964639D-04  0.19861847D-03  0.16859705D-03 -0.62902051D-04
  0.48485074D-04  0.42532317D-04  0.10011026D-04  0.98922230D-15  0.14193589D-14
  0.18793066D-14  0.21700666D-14  0.20117516D-14  0.13024447D-14  0.45971514D-15
  0.53882578D-16  0.78335295D-18  0.11471332D-18  0.11794311D-20  0.15082246D-13
  0.21640353D-13  0.28652978D-13  0.33086071D-13  0.30672310D-13  0.19857813D-13
  0.70090786D-14  0.82152445D-15  0.11943445D-16  0.17489846D-17  0.17982278D-19
  0.18109056D-03  0.25983289D-03  0.34403255D-03  0.39726013D-03  0.36827841D-03
  0.23843016D-03  0.84157090D-04  0.98639366D-05  0.14340338D-06  0.20999829D-07
  0.21591085D-09 -0.37728818D-15 -0.54461982D-15 -0.72759906D-15 -0.86441000D-15
 -0.83767955D-15 -0.58229414D-15 -0.18947293D-15  0.85277854D-16  0.92128534D-16
  0.23718209D-16 -0.23134923D-19 -0.76584220D-15 -0.11055020D-14 -0.14769243D-14
 -0.17546314D-14 -0.17003723D-14 -0.11819756D-14 -0.38460353D-15  0.17310211D-15
  0.18700803D-15  0.48144645D-16 -0.46960656D-19  0.23952419D-04  0.34575592D-04
  0.46192164D-04  0.54877708D-04  0.53180706D-04  0.36967374D-04  0.12028829D-04
 -0.54139276D-05 -0.58488481D-05 -0.15057680D-05  0.14687377D-08 -0.83938292D-16
 -0.12196606D-15 -0.16215529D-15 -0.19457513D-15 -0.18825230D-15 -0.13363721D-15
 -0.41534781D-16  0.23846651D-16  0.27394509D-16  0.72748525D-17 -0.26247895D-17
  0.97561632D-16  0.14176138D-15  0.18847340D-15  0.22615503D-15  0.21880599D-15
  0.15532678D-15  0.48275953D-16 -0.27717007D-16 -0.31840688D-16 -0.84555745D-17
  0.30507977D-17  0.52330749D-05  0.76038900D-05  0.10109460D-04  0.12130652D-04
  0.11736460D-04  0.83315198D-05  0.25894573D-05 -0.14867030D-05 -0.17078917D-05
 -0.45354566D-06  0.16364069D-06  0.13526849D-16 -0.61042735D-17  0.74392449D-07
  0.66862622D-18 -0.12033897D-17  0.17083418D-04  0.72377947D-20  0.17645193D-19
  0.58619293D-06 -0.39817042D-04 -0.41664244D-04 -0.35500166D-04 -0.23379543D-04
 -0.10774935D-04 -0.32265718D-05 -0.54897384D-06 -0.39817042D-04 -0.41664244D-04
 -0.35500166D-04 -0.23379543D-04 -0.10774935D-04 -0.32265718D-05 -0.54897384D-06
  0.79634084D-04  0.83328488D-04  0.71000332D-04  0.46759086D-04  0.21549871D-04
  0.64531437D-05  0.10979477D-05  0.26047300D-17  0.27255693D-17  0.23223309D-17
  0.15294305D-17  0.70486897D-18  0.21107415D-18  0.35912478D-19 -0.34660288D-15
 -0.36268256D-15 -0.30902496D-15 -0.20351630D-15 -0.93794602D-16 -0.28086945D-16
 -0.47787556D-17  0.68234580D-16  0.71400136D-16  0.60836737D-16  0.40065591D-16
  0.18465038D-16  0.55293855D-17  0.94077806D-18  0.15534815D-05  0.15534815D-05
 -0.31069630D-05 -0.63320095D-20  0.92702849D-17 -0.19953316D-17 -0.14838833D-05
 -0.14838833D-05  0.29677666D-05  0.85358449D-21 -0.25205767D-17  0.69910010D-18
 -0.10765426D-05 -0.10765426D-05  0.21530853D-05 -0.66820268D-22  0.76330607D-18
 -0.13561074D-18 -0.67882142D-18  0.80527417D-18 -0.17311693D-05 -0.67877527D-18
  0.80551487D-18  0.25967539D-05  0.27152395D-17 -0.32213374D-17  0.25967539D-05
  0.30428950D-21  0.12285820D-18 -0.66302307D-19  0.10629857D-05  0.12284699D-18
 -0.66299266D-19 -0.15944786D-05 -0.49142159D-18  0.26520619D-18 -0.15944786D-05
 -0.16629270D-22
MO    2     MO 0.0        OCC NO =    2.0000000  ORB. ENERGY = -485.562761
  0.55423817D+00  0.10425895D+01  0.18047738D+01  0.29583696D+01  0.46343433D+01
  0.69658127D+01  0.99558961D+01  0.13216700D+02  0.15392642D+02  0.14137993D+02
  0.82670403D+01  0.21693127D+01  0.11859548D+00 -0.42447635D-02  0.11862774D-02
 -0.35224580D-03  0.60051810D-04  0.48994017D-05  0.30430534D-04  0.55910320D-04
  0.96681829D-04  0.15833001D-03  0.24928348D-03  0.37644248D-03  0.54949106D-03
  0.75668257D-03  0.96683775D-03  0.10539664D-02  0.86757666D-03  0.23788363D-03
 -0.47982671D-03 -0.46761208D-03 -0.10232670D-03 -0.34472922D-05 -0.11678325D-06
  0.29708151D-09 -0.16812116D-04 -0.32958482D-04 -0.57725965D-04 -0.94305442D-04
 -0.14874240D-03 -0.22444564D-03 -0.32908190D-03 -0.45435199D-03 -0.58906961D-03
 -0.65508008D-03 -0.56897737D-03 -0.16527775D-03  0.41666320D-03  0.60710765D-03
  0.10451575D-03 -0.25497368D-03 -0.12136105D-03  0.58608955D-06  0.53366655D-05
  0.11563266D-04  0.19684626D-04  0.32130610D-04  0.50650754D-04  0.76446617D-04
  0.11208320D-03  0.15494707D-03  0.20110575D-03  0.22467029D-03  0.19625458D-03
  0.58130798D-04 -0.15110668D-03 -0.23245315D-03 -0.40686400D-04  0.12834300D-03
  0.10894380D-03 -0.40645957D-04  0.43214883D-04  0.79939940D-05 -0.65033773D-06
 -0.17239754D-14 -0.24735995D-14 -0.32751772D-14 -0.37819017D-14 -0.35059969D-14
 -0.22698463D-14 -0.80117238D-15 -0.93904311D-16 -0.13651949D-17 -0.19991759D-18
 -0.20554633D-20  0.13654318D-14  0.19591529D-14  0.25940225D-14  0.29953611D-14
  0.27768375D-14  0.17977752D-14  0.63454864D-15  0.74374572D-16  0.10812686D-17
  0.15833975D-18  0.16279786D-20 -0.13867381D-03 -0.19897237D-03 -0.26344999D-03
 -0.30421010D-03 -0.28201676D-03 -0.18258279D-03 -0.64445020D-04 -0.75535120D-05
 -0.10981408D-06 -0.16081050D-07 -0.16533817D-09 -0.22126126D-17 -0.31939318D-17
 -0.42670165D-17 -0.50693465D-17 -0.49125853D-17 -0.34148735D-17 -0.11111671D-17
  0.50011336D-18  0.54028929D-18  0.13909582D-18 -0.13567513D-21 -0.33406170D-15
 -0.48222190D-15 -0.64423693D-15 -0.76537324D-15 -0.74170533D-15 -0.51557982D-15
 -0.16776473D-15  0.75507441D-16  0.81573228D-16  0.21000778D-16 -0.20484320D-19
 -0.20089452D-03 -0.28999355D-03 -0.38742445D-03 -0.46027214D-03 -0.44603898D-03
 -0.31005399D-03 -0.10088859D-03  0.45407874D-04  0.49055653D-04  0.12629228D-04
 -0.12318645D-07 -0.10489743D-15 -0.15242063D-15 -0.20264499D-15 -0.24315996D-15
 -0.23525834D-15 -0.16700603D-15 -0.51905892D-16  0.29801089D-16  0.34234836D-16
  0.90913615D-17 -0.32801916D-17 -0.16973391D-15 -0.24663090D-15 -0.32789865D-15
 -0.39345568D-15 -0.38067011D-15 -0.27023145D-15 -0.83988615D-16  0.48220965D-16
  0.55395184D-16  0.14710678D-16 -0.53076584D-17  0.12833317D-03  0.18647379D-03
  0.24791906D-03  0.29748571D-03  0.28781874D-03  0.20431779D-03  0.63502484D-04
 -0.36459120D-04 -0.41883436D-04 -0.11122514D-04  0.40130379D-05  0.35268653D-16
  0.37273744D-17 -0.18071085D-05  0.16577191D-18 -0.12199961D-19 -0.10940518D-05
  0.30650130D-19  0.34860458D-19  0.26111360D-07 -0.39041386D-04 -0.40852604D-04
 -0.34808605D-04 -0.22924098D-04 -0.10565034D-04 -0.31637166D-05 -0.53827956D-06
 -0.39041386D-04 -0.40852604D-04 -0.34808605D-04 -0.22924098D-04 -0.10565034D-04
 -0.31637166D-05 -0.53827956D-06  0.78082773D-04  0.81705208D-04  0.69617211D-04
  0.45848196D-04  0.21130069D-04  0.63274332D-05  0.10765591D-05 -0.82894855D-18
 -0.86740534D-18 -0.73907577D-18 -0.48673727D-18 -0.22432272D-18 -0.67173800D-19
 -0.11429053D-19 -0.23620470D-15 -0.24716276D-15 -0.21059590D-15 -0.13869332D-15
 -0.63919624D-16 -0.19140835D-16 -0.32566508D-17  0.35589923D-17  0.37241020D-17
  0.31731342D-17  0.20897488D-17  0.96310300D-18  0.28840275D-18  0.49069283D-19
  0.15710052D-05  0.15710052D-05 -0.31420104D-05 -0.92048484D-21  0.73130330D-17
 -0.65265449D-18 -0.23668769D-06 -0.23668769D-06  0.47337538D-06  0.99719342D-22
 -0.17504457D-17  0.19613114D-18 -0.13420087D-06 -0.13420087D-06  0.26840175D-06
  0.95942732D-24  0.41386031D-18 -0.22578049D-19  0.57168995D-18 -0.25931836D-18
  0.14404332D-05  0.57242723D-18 -0.26132505D-18 -0.21606498D-05 -0.22874971D-17
  0.10392801D-17 -0.21606498D-05  0.89323448D-22 -0.29258150D-18  0.11763224D-18
 -0.73403585D-06 -0.29265689D-18  0.11778687D-18  0.11010538D-05  0.11704014D-17
 -0.47068361D-18  0.11010538D-05 -0.13776895D-22  0.55352795D+00  0.10412535D+01
  0.18024611D+01  0.29545786D+01  0.46284047D+01  0.69568864D+01  0.99431382D+01
  0.13199763D+02  0.15372917D+02  0.14119876D+02  0.82564465D+01  0.21665329D+01
  0.11844351D+00 -0.42393240D-02  0.11847573D-02 -0.35179441D-03  0.59974857D-04
  0.48931234D-05  0.30385302D-04  0.55827215D-04  0.96538121D-04  0.15809467D-03
  0.24891295D-03  0.37588294D-03  0.54867430D-03  0.75555784D-03  0.96540064D-03
  0.10523998D-02  0.86628710D-03  0.23753004D-03 -0.47911349D-03 -0.46691702D-03
 -0.10217460D-03 -0.34421682D-05 -0.11660966D-06  0.29663993D-09 -0.16782556D-04
 -0.32900532D-04 -0.57624467D-04 -0.94139628D-04 -0.14848087D-03 -0.22405100D-03
 -0.32850328D-03 -0.45355312D-03 -0.58803387D-03 -0.65392827D-03 -0.56797696D-03
 -0.16498715D-03  0.41593060D-03  0.60604019D-03  0.10433199D-03 -0.25452537D-03
 -0.12114766D-03  0.58505905D-06  0.53260799D-05  0.11540329D-04  0.19645580D-04
  0.32066877D-04  0.50550285D-04  0.76294980D-04  0.11186088D-03  0.15463972D-03
  0.20070684D-03  0.22422464D-03  0.19586530D-03  0.58015492D-04 -0.15080695D-03
 -0.23199207D-03 -0.40605696D-04  0.12808842D-03  0.10872770D-03 -0.40565333D-04
  0.43152747D-04  0.79394629D-05 -0.66317499D-06  0.93138900D-15  0.13363783D-14
  0.17694359D-14  0.20431972D-14  0.18941378D-14  0.12262993D-14  0.43283863D-15
  0.50732419D-16  0.73755548D-18  0.10800679D-18  0.11104775D-20  0.33635878D-14
  0.48261529D-14  0.63900830D-14  0.73787354D-14  0.68404272D-14  0.44286173D-14
  0.15631393D-14  0.18321340D-15  0.26635837D-17  0.39005219D-18  0.40103422D-20
  0.13844172D-03  0.19863936D-03  0.26300907D-03  0.30370095D-03  0.28154476D-03
  0.18227721D-03  0.64337161D-04  0.75408700D-05  0.10963029D-06  0.16054136D-07
  0.16506145D-09 -0.37625223D-15 -0.54312442D-15 -0.72560124D-15 -0.86203653D-15
 -0.83537948D-15 -0.58069530D-15 -0.18895268D-15  0.85043701D-16  0.91875570D-16
  0.23653084D-16 -0.23071400D-19 -0.76352279D-15 -0.11021539D-14 -0.14724513D-14
 -0.17493173D-14 -0.16952226D-14 -0.11783959D-14 -0.38343873D-15  0.17257786D-15
  0.18644166D-15  0.47998835D-16 -0.46818432D-19  0.20086397D-03  0.28994945D-03
  0.38736554D-03  0.46020215D-03  0.44597115D-03  0.31000684D-03  0.10087325D-03
 -0.45400969D-04 -0.49048193D-04 -0.12627307D-04  0.12316772D-07 -0.84182787D-16
 -0.12232132D-15 -0.16262762D-15 -0.19514188D-15 -0.18880064D-15 -0.13402647D-15
 -0.41655763D-16  0.23916111D-16  0.27474303D-16  0.72960426D-17 -0.26324349D-17
  0.96224785D-16  0.13981888D-15  0.18589082D-15  0.22305612D-15  0.21580778D-15
  0.15319840D-15  0.47614447D-16 -0.27337212D-16 -0.31404388D-16 -0.83397112D-17
  0.30089938D-17 -0.12833998D-03 -0.18648369D-03 -0.24793223D-03 -0.29750151D-03
 -0.28783403D-03 -0.20432864D-03 -0.63505856D-04  0.36461057D-04  0.41885660D-04
  0.11123105D-04 -0.40132510D-05  0.13527736D-16 -0.58586580D-17  0.18070145D-05
  0.67436890D-18 -0.11962288D-17  0.10721473D-05  0.66563427D-20  0.17052944D-19
 -0.26863033D-07 -0.38990362D-04 -0.40799213D-04 -0.34763113D-04 -0.22894138D-04
 -0.10551227D-04 -0.31595819D-05 -0.53757607D-06 -0.38990362D-04 -0.40799213D-04
 -0.34763113D-04 -0.22894138D-04 -0.10551227D-04 -0.31595819D-05 -0.53757607D-06
  0.77980725D-04  0.81598426D-04  0.69526227D-04  0.45788276D-04  0.21102453D-04
  0.63191638D-05  0.10751521D-05  0.25992473D-17  0.27198323D-17  0.23174427D-17
  0.15262112D-17  0.70338530D-18  0.21062987D-18  0.35836886D-19 -0.34661738D-15
 -0.36269775D-15 -0.30903789D-15 -0.20352482D-15 -0.93798528D-16 -0.28088121D-16
 -0.47789557D-17  0.67382795D-16  0.70508834D-16  0.60077301D-16  0.39565444D-16
  0.18234535D-16  0.54603611D-17  0.92903415D-18  0.15690145D-05  0.15690145D-05
 -0.31380291D-05 -0.62921585D-20  0.92887658D-17 -0.19732887D-17 -0.23478516D-06
 -0.23478516D-06  0.46957032D-06  0.83505249D-21 -0.25302445D-17  0.69017566D-18
 -0.13282057D-06 -0.13282057D-06  0.26564114D-06 -0.63445794D-22  0.76575229D-18