 Molden2AIM, Version 4.0.0 (06/02/2016)           Time: Sun Jul  1 16:16:55 2018
GAUSSIAN              7 MOL ORBITALS    150 PRIMITIVES        2 NUCLEI
  C    1    (CENTRE  1)   0.00000000  0.00000000 -1.33233251  CHARGE =  6.0
  F    2    (CENTRE  2)   0.00000000  0.00000000  0.84648392  CHARGE =  9.0
CENTRE ASSIGNMENTS    1  1  1  1  1  1  1  1  1  1  1  1  1  1  1  1  1  1  1  1
CENTRE ASSIGNMENTS    1  1  1  1  1  1  1  1  1  1  1  1  1  1  1  1  1  1  1  1
CENTRE ASSIGNMENTS    1  1  1  1  1  1  1  1  1  1  1  1  1  1  1  1  1  1  1  1
CENTRE ASSIGNMENTS    1  1  1  1  1  1  1  1  1  1  1  1  1  1  1  2  2  2  2  2
CENTRE ASSIGNMENTS    2  2  2  2  2  2  2  2  2  2  2  2  2  2  2  2  2  2  2  2
CENTRE ASSIGNMENTS    2  2  2  2  2  2  2  2  2  2  2  2  2  2  2  2  2  2  2  2
CENTRE ASSIGNMENTS    2  2  2  2  2  2  2  2  2  2  2  2  2  2  2  2  2  2  2  2
CENTRE ASSIGNMENTS    2  2  2  2  2  2  2  2  2  2
TYPE ASSIGNMENTS      1  1  1  1  1  1  1  1  1  1  1  1  1  1  1  1  1  1  1  2
TYPE ASSIGNMENTS      2  2  3  3  3  4  4  4  2  3  4  2  3  4  2  3  4  5  6  7
TYPE ASSIGNMENTS      8  9 10  5  6  7  8  9 10  5  6  7  8  9 10 11 12 13 17 14
TYPE ASSIGNMENTS     15 18 19 16 20 11 12 13 17 14 15 18 19 16 20  1  1  1  1  1
TYPE ASSIGNMENTS      1  1  1  1  1  1  1  1  1  1  1  1  1  1  2  2  2  3  3  3
TYPE ASSIGNMENTS      4  4  4  2  3  4  2  3  4  2  3  4  5  6  7  8  9 10  5  6
TYPE ASSIGNMENTS      7  8  9 10  5  6  7  8  9 10 11 12 13 17 14 15 18 19 16 20
TYPE ASSIGNMENTS     11 12 13 17 14 15 18 19 16 20
EXPONENTS  0.8236000D+04 0.1235000D+04 0.2808000D+03 0.7927000D+02 0.2559000D+02
EXPONENTS  0.8997000D+01 0.3319000D+01 0.3643000D+00 0.8236000D+04 0.1235000D+04
EXPONENTS  0.2808000D+03 0.7927000D+02 0.2559000D+02 0.8997000D+01 0.3319000D+01
EXPONENTS  0.3643000D+00 0.9059000D+00 0.1285000D+00 0.4402000D-01 0.1871000D+02
EXPONENTS  0.4133000D+01 0.1200000D+01 0.1871000D+02 0.4133000D+01 0.1200000D+01
EXPONENTS  0.1871000D+02 0.4133000D+01 0.1200000D+01 0.3827000D+00 0.3827000D+00
EXPONENTS  0.3827000D+00 0.1209000D+00 0.1209000D+00 0.1209000D+00 0.3569000D-01
EXPONENTS  0.3569000D-01 0.3569000D-01 0.1097000D+01 0.1097000D+01 0.1097000D+01
EXPONENTS  0.1097000D+01 0.1097000D+01 0.1097000D+01 0.3180000D+00 0.3180000D+00
EXPONENTS  0.3180000D+00 0.3180000D+00 0.3180000D+00 0.3180000D+00 0.1000000D+00
EXPONENTS  0.1000000D+00 0.1000000D+00 0.1000000D+00 0.1000000D+00 0.1000000D+00
EXPONENTS  0.7610000D+00 0.7610000D+00 0.7610000D+00 0.7610000D+00 0.7610000D+00
EXPONENTS  0.7610000D+00 0.7610000D+00 0.7610000D+00 0.7610000D+00 0.7610000D+00
EXPONENTS  0.2680000D+00 0.2680000D+00 0.2680000D+00 0.2680000D+00 0.2680000D+00
EXPONENTS  0.2680000D+00 0.2680000D+00 0.2680000D+00 0.2680000D+00 0.2680000D+00
EXPONENTS  0.1950000D+05 0.2923000D+04 0.6645000D+03 0.1875000D+03 0.6062000D+02
EXPONENTS  0.2142000D+02 0.7950000D+01 0.8815000D+00 0.1950000D+05 0.2923000D+04
EXPONENTS  0.6645000D+03 0.1875000D+03 0.6062000D+02 0.2142000D+02 0.7950000D+01
EXPONENTS  0.8815000D+00 0.2257000D+01 0.3041000D+00 0.9158000D-01 0.4388000D+02
EXPONENTS  0.9926000D+01 0.2930000D+01 0.4388000D+02 0.9926000D+01 0.2930000D+01
EXPONENTS  0.4388000D+02 0.9926000D+01 0.2930000D+01 0.9132000D+00 0.9132000D+00
EXPONENTS  0.9132000D+00 0.2672000D+00 0.2672000D+00 0.2672000D+00 0.7361000D-01
EXPONENTS  0.7361000D-01 0.7361000D-01 0.3107000D+01 0.3107000D+01 0.3107000D+01
EXPONENTS  0.3107000D+01 0.3107000D+01 0.3107000D+01 0.8550000D+00 0.8550000D+00
EXPONENTS  0.8550000D+00 0.8550000D+00 0.8550000D+00 0.8550000D+00 0.2920000D+00
EXPONENTS  0.2920000D+00 0.2920000D+00 0.2920000D+00 0.2920000D+00 0.2920000D+00
EXPONENTS  0.1917000D+01 0.1917000D+01 0.1917000D+01 0.1917000D+01 0.1917000D+01
EXPONENTS  0.1917000D+01 0.1917000D+01 0.1917000D+01 0.1917000D+01 0.1917000D+01
EXPONENTS  0.7240000D+00 0.7240000D+00 0.7240000D+00 0.7240000D+00 0.7240000D+00
EXPONENTS  0.7240000D+00 0.7240000D+00 0.7240000D+00 0.7240000D+00 0.7240000D+00
MO    1     MO 0.0        OCC NO =    2.0000000  ORB. ENERGY =  -25.856788
  0.25269832D-03  0.47108712D-03  0.79622021D-03  0.11969798D-02  0.14706280D-02
  0.12421804D-02  0.46850475D-03 -0.23186562D-05 -0.19487541D-03 -0.36486826D-03
 -0.62121943D-03 -0.96093200D-03 -0.12655136D-02 -0.13149497D-02 -0.83559153D-03
  0.55999401D-03  0.14118936D-04  0.24393832D-03  0.27611609D-04  0.16141190D-15
  0.15133391D-15  0.10775876D-15  0.12542447D-15  0.11759341D-15  0.83733516D-16
  0.70001742D-03  0.65631083D-03  0.46733241D-03  0.12544179D-16  0.30408382D-16
  0.82763845D-03  0.28730637D-16  0.40546456D-17  0.56666776D-04 -0.79831037D-17
 -0.36575589D-17  0.29241302D-05 -0.52138972D-03 -0.52138972D-03  0.10427794D-02
  0.14291585D-18  0.44463225D-16  0.70776939D-16 -0.10363162D-03 -0.10363162D-03
  0.20726324D-03 -0.16697316D-19  0.29760790D-16  0.19072204D-17  0.18294065D-06
  0.18294065D-06 -0.36588131D-06  0.35023568D-20  0.31804675D-18  0.13464596D-18
 -0.47179420D-17  0.37650822D-17  0.97412645D-04 -0.47225254D-17  0.37566683D-17
 -0.14611897D-03  0.18876352D-16 -0.15051915D-16 -0.14611897D-03  0.21925122D-19
 -0.90032389D-18 -0.72492092D-18  0.24732685D-04 -0.90035915D-18 -0.72564433D-18
 -0.37099028D-04  0.36013308D-17  0.29004071D-17 -0.37099028D-04  0.58425661D-20
  0.59425502D+00  0.11077171D+01  0.18778528D+01  0.28436226D+01  0.35559600D+01
  0.30613504D+01  0.11768948D+01 -0.50996780D-02  0.67164566D-03  0.12612316D-02
  0.21476599D-02  0.33642965D-02  0.45085531D-02  0.48495567D-02  0.29116675D-02
 -0.19148351D-02  0.62324267D-01  0.21446140D-03 -0.21429519D-03  0.14967616D-16
  0.14638002D-16  0.96719466D-17 -0.10131782D-15 -0.99086611D-16 -0.65470713D-16
 -0.10304312D-01 -0.10077392D-01 -0.66585590D-02  0.11841777D-16 -0.15170959D-16
  0.19076860D-02 -0.40131137D-16 -0.15443394D-16  0.23178630D-03  0.13317641D-18
  0.89668319D-18  0.13508742D-04 -0.11346230D-02 -0.11346230D-02  0.22692461D-02
  0.11962432D-17 -0.29316156D-16 -0.40576212D-16  0.39751177D-03  0.39751177D-03
 -0.79502354D-03 -0.91707356D-19 -0.70145060D-16 -0.69115766D-16  0.11391757D-04
  0.11391757D-04 -0.22783514D-04  0.36137443D-21  0.38643929D-16  0.94810487D-17
 -0.92457250D-17 -0.36583045D-17  0.14740238D-03 -0.88072667D-17 -0.34643201D-17
 -0.22110357D-03  0.36544442D-16  0.14439234D-16 -0.22110357D-03  0.75798802D-20
  0.49337700D-17 -0.45165432D-17  0.14296250D-03  0.49129001D-17 -0.45336346D-17
 -0.21444375D-03 -0.19714210D-16  0.18083264D-16 -0.21444375D-03  0.74207077D-19
MO    2     MO 0.0        OCC NO =    2.0000000  ORB. ENERGY =  -11.208146
 -0.32760264D+00 -0.61072580D+00 -0.10322342D+01 -0.15517861D+01 -0.19065485D+01
 -0.16103850D+01 -0.60737798D+00  0.30059475D-02  0.99828202D-03  0.18690989D-02
  0.31823008D-02  0.49225355D-02  0.64828061D-02  0.67360508D-02  0.42804579D-02
 -0.28686633D-02 -0.31458338D-01 -0.15250467D-02 -0.34007328D-04  0.18676216D-16
  0.17510140D-16  0.12468263D-16 -0.48107557D-17 -0.45103892D-17 -0.32116658D-17
 -0.11477038D-01 -0.10760453D-01 -0.76620832D-02  0.33890881D-17 -0.22353198D-17
 -0.22375472D-02 -0.11815282D-18  0.12315827D-18 -0.22594696D-04 -0.58666691D-20
 -0.11841711D-19 -0.19107718D-05  0.23929558D-02  0.23929558D-02 -0.47859116D-02
  0.37103986D-18  0.80969237D-17 -0.23407121D-17 -0.50431521D-04 -0.50431521D-04
  0.10086304D-03 -0.13750994D-18  0.19670685D-19 -0.51844776D-18 -0.16595427D-04
 -0.16595427D-04  0.33190854D-04  0.55324905D-20 -0.65496607D-19 -0.20929017D-20
 -0.30713885D-18  0.15226253D-18 -0.71215607D-03 -0.25957676D-18  0.24483587D-18
  0.10682341D-02  0.11809933D-17 -0.70162345D-18  0.10682341D-02 -0.20736506D-18
  0.36290272D-19  0.17341638D-19  0.10088724D-03  0.36191439D-19  0.15227674D-19
 -0.15133086D-03 -0.14506225D-18 -0.67252586D-19 -0.15133086D-03  0.37878696D-19
 -0.56026929D-03 -0.10443662D-02 -0.17704575D-02 -0.26809945D-02 -0.33525930D-02
 -0.28862703D-02 -0.11095877D-02  0.48080250D-05  0.56485286D-03  0.10606936D-02
  0.18061783D-02  0.28293677D-02  0.37916855D-02  0.40784690D-02  0.24487074D-02
 -0.16103730D-02 -0.77308077D-03  0.24202111D-02  0.95646505D-03  0.16511643D-15
  0.16148026D-15  0.10669684D-15 -0.56411422D-16 -0.55169139D-16 -0.36452583D-16
  0.51097518D-02  0.49972257D-02  0.33018783D-02  0.38174182D-16 -0.13069609D-16
 -0.16011370D-02  0.54894182D-17 -0.12904530D-17 -0.28685054D-02  0.69421976D-19
  0.75993366D-20 -0.14971497D-03  0.19844448D-02  0.19844448D-02 -0.39688896D-02
  0.50788561D-20 -0.10438194D-16  0.39838233D-17 -0.14865473D-02 -0.14865473D-02
  0.29730945D-02 -0.19670615D-19 -0.48654634D-17  0.13441545D-17 -0.41176783D-03
 -0.41176783D-03  0.82353565D-03  0.38905311D-19 -0.73611665D-18 -0.57074743D-19
 -0.10730893D-17  0.62010846D-18  0.11771284D-02 -0.11240508D-17  0.55069807D-18
 -0.17656926D-02  0.43433186D-17 -0.24110235D-17 -0.17656926D-02  0.17363410D-18
 -0.20379304D-18 -0.41176633D-19 -0.14187253D-02 -0.19590997D-18 -0.31216005D-19
  0.21280879D-02  0.80728909D-18  0.15474590D-18  0.21280879D-02 -0.82740523D-21
MO    3     MO 0.0        OCC NO =    2.0000000  ORB. ENERGY =   -1.993626
  0.72648545D-02  0.13543341D-01  0.22890631D-01  0.34412117D-01  0.42279262D-01
  0.35711595D-01  0.13469100D-01 -0.66659327D-04  0.20244376D-01  0.37903859D-01
  0.64534564D-01  0.99825157D-01  0.13146622D+00  0.13660182D+00  0.86804327D-01
 -0.58174241D-01 -0.28933309D-01 -0.16510914D-02  0.10001571D-03 -0.18699276D-15
 -0.17531760D-15 -0.12483657D-15 -0.85424849D-16 -0.80091226D-16 -0.57029724D-16
 -0.21538269D+00 -0.20193496D+00 -0.14378972D+00 -0.59161396D-16 -0.10936116D-16
 -0.44965698D-01 -0.84650369D-17  0.36752634D-17  0.50193805D-03 -0.92361719D-18
  0.16746391D-18  0.26576193D-04  0.22697046D-01  0.22697046D-01 -0.45394092D-01
  0.60058645D-17  0.21928147D-16 -0.18337846D-16  0.33100293D-02  0.33100293D-02
 -0.66200586D-02 -0.14966995D-17 -0.21301287D-16  0.43977791D-16 -0.11420337D-03
 -0.11420337D-03  0.22840673D-03 -0.12863736D-18  0.25645546D-18  0.25439304D-17
  0.27160571D-19 -0.86472194D-18 -0.63873020D-02  0.82662245D-18  0.22659612D-19
  0.95809530D-02 -0.90810416D-18  0.25715062D-17  0.95809530D-02 -0.33994754D-17
  0.82133984D-18 -0.23443849D-17 -0.32632957D-03  0.85382198D-18 -0.21482146D-17
  0.48949435D-03 -0.33178415D-17  0.91813693D-17  0.48949435D-03  0.26830722D-18
  0.34202100D-02  0.63754196D-02  0.10807904D-01  0.16366351D-01  0.20466180D-01
  0.17619474D-01  0.67735692D-02 -0.29350984D-04  0.12215699D+00  0.22938919D+00
  0.39061023D+00  0.61188861D+00  0.82000273D+00  0.88202350D+00  0.52956575D+00
 -0.34826472D+00 -0.19948466D+00 -0.64384688D-01  0.66521405D-04 -0.27034917D-15
 -0.26439558D-15 -0.17469734D-15 -0.27433281D-16 -0.26829149D-16 -0.17727153D-16
  0.54152008D+00  0.52959481D+00  0.34992568D+00 -0.59988717D-16 -0.20389062D-17
  0.12411776D+00  0.14281743D-16 -0.46730422D-16  0.20834688D-02 -0.10666163D-17
 -0.14216349D-17 -0.26116112D-03  0.30170386D-01  0.30170386D-01 -0.60340771D-01
 -0.43015851D-17  0.14002560D-16  0.21205811D-16  0.10946905D-01  0.10946905D-01
 -0.21893810D-01 -0.61006756D-18 -0.40003946D-16  0.31955015D-16 -0.40357478D-03
 -0.40357478D-03  0.80714955D-03  0.89733423D-18 -0.86302041D-17  0.33023468D-16
  0.40219697D-17 -0.22592565D-17  0.15127442D-01  0.74311958D-17  0.20858352D-17
 -0.22691163D-01 -0.19497105D-16  0.46919343D-17 -0.22691163D-01 -0.33826886D-18
 -0.10571698D-17  0.15629058D-17  0.27055976D-02 -0.52920136D-18  0.11777008D-17
 -0.40583964D-02  0.37007107D-17 -0.58664183D-17 -0.40583964D-02 -0.24445622D-17
MO    4     MO 0.0        OCC NO =    2.0000000  ORB. ENERGY =   -1.238036
 -0.24704222D-02 -0.46054287D-02 -0.77839858D-02 -0.11701880D-01 -0.14377112D-01
 -0.12143770D-01 -0.45801831D-02  0.22667582D-04 -0.37184742D-01 -0.69621570D-01
 -0.11853668D+00 -0.18335822D+00 -0.24147633D+00 -0.25090937D+00 -0.15944164D+00
  0.10685408D+00  0.59017390D-01  0.15943830D-01 -0.16113236D-03 -0.21085019D-15
 -0.19768546D-15 -0.14076382D-15  0.34186358D-15  0.32051884D-15  0.22822851D-15
  0.23136946D+00  0.21692358D+00  0.15446251D+00 -0.10152200D-15  0.10929358D-15
  0.54087847D-01 -0.14998696D-16  0.35633323D-17  0.20566577D-02  0.19419046D-17
  0.10014127D-17 -0.67068664D-04 -0.14287803D-01 -0.14287803D-01  0.28575606D-01
 -0.55184461D-17 -0.32474082D-16  0.90991285D-16 -0.30790657D-02 -0.30790657D-02
  0.61581315D-02  0.25765208D-17  0.29852578D-17  0.43004663D-16 -0.16217601D-04
 -0.16217601D-04  0.32435202D-04  0.13217333D-18 -0.27470856D-17 -0.37783975D-17
  0.19353060D-17 -0.39538300D-17  0.26331938D-02  0.11928500D-17 -0.45919784D-17
 -0.39497906D-02 -0.69987679D-17  0.16453468D-16 -0.39497906D-02  0.47571897D-17
 -0.40799262D-18 -0.21923750D-17  0.33850721D-03 -0.36646201D-18 -0.22586892D-17
 -0.50776082D-03  0.15904399D-17  0.88358141D-17 -0.50776082D-03 -0.96720892D-18
 -0.30686519D-02 -0.57201001D-02 -0.96969759D-02 -0.14684079D-01 -0.18362493D-01
 -0.15808396D-01 -0.60773245D-02  0.26334042D-04  0.59394913D-01  0.11153313D+00
  0.18992168D+00  0.29751119D+00  0.39869999D+00  0.42885560D+00  0.25748434D+00
 -0.16933253D+00 -0.10658273D+00 -0.89516782D-01 -0.39822052D-02 -0.61676754D-15
 -0.60318519D-15 -0.39854996D-15  0.17231175D-14  0.16851712D-14  0.11134639D-14
 -0.21448663D+01 -0.20976324D+01 -0.13859944D+01 -0.14122127D-15  0.40056300D-15
 -0.47698370D+00 -0.21141140D-16  0.13644611D-16 -0.35289021D-01  0.36406412D-17
  0.82684245D-17  0.48832176D-03 -0.53631486D-01 -0.53631486D-01  0.10726297D+00
 -0.32353851D-17  0.10584995D-15 -0.13380672D-15 -0.16272889D-01 -0.16272889D-01
  0.32545777D-01 -0.16446458D-17  0.40773937D-16 -0.59215670D-16  0.97719151D-04
  0.97719151D-04 -0.19543830D-03 -0.10098147D-17  0.11738199D-16  0.19727081D-16
  0.69468101D-17 -0.19775348D-16 -0.23330350D-01  0.12655043D-16 -0.12888580D-16
  0.34995525D-01 -0.33495473D-16  0.72214624D-16  0.34995525D-01 -0.17130467D-16
  0.11483142D-17 -0.43342124D-18 -0.31909407D-02  0.65974486D-18 -0.14906336D-17
  0.47864111D-02 -0.41046874D-17  0.27908973D-17  0.47864111D-02  0.18622996D-17
MO    5     MO 0.0        OCC NO =    2.0000000  ORB. ENERGY =   -1.085824
 -0.19576827D-18 -0.36495657D-18 -0.61684090D-18 -0.92731392D-18 -0.11393123D-17
 -0.96233137D-18 -0.36295598D-18  0.17962894D-20  0.27742556D-16  0.51942818D-16
  0.88437093D-16  0.13679873D-15  0.18015912D-15  0.18719687D-15  0.11895521D-15
 -0.79721013D-16 -0.36777114D-16 -0.17962733D-15 -0.22994984D-16 -0.27259595D-02
 -0.25557603D-02 -0.18198536D-02  0.27461805D+00  0.25747188D+00  0.18333532D+00
 -0.13121861D-15 -0.12302578D-15 -0.87601687D-16 -0.65059885D-03  0.65542496D-01
 -0.10968729D-15 -0.22400875D-04  0.22567044D-02 -0.42313678D-16 -0.79822656D-07
  0.80414777D-05 -0.26406524D-17 -0.70699222D-17  0.34791368D-16 -0.27721446D-16
 -0.99752640D-16 -0.90967257D-03  0.91642048D-01 -0.10804952D-16  0.19970721D-16
 -0.91657693D-17 -0.68089645D-17 -0.15613552D-03  0.15729373D-01  0.88062952D-17
 -0.95627477D-18 -0.78500204D-17  0.18507540D-18  0.28919957D-05 -0.29134484D-03
  0.50589259D-04 -0.50964528D-02 -0.30944467D-17  0.50589181D-04 -0.50964450D-02
 -0.45101434D-16 -0.20235696D-03  0.20385803D-01  0.54384774D-16 -0.11854329D-15
  0.37401474D-05 -0.37678917D-03 -0.24668879D-17  0.37401508D-05 -0.37678951D-03
  0.24112001D-16 -0.14960593D-04  0.15071570D-02 -0.16711337D-16  0.64516397D-17
 -0.10122410D-16 -0.18868610D-16 -0.31986934D-16 -0.48437644D-16 -0.60571444D-16
 -0.52146371D-16 -0.20046969D-16  0.86866798D-19 -0.27708388D-16 -0.52031445D-16
 -0.88600578D-16 -0.13879228D-15 -0.18599798D-15 -0.20006591D-15 -0.12011931D-15
  0.78995512D-16  0.59681250D-16  0.16304980D-15  0.15068615D-15 -0.24690996D-01
 -0.24147254D-01 -0.15955112D-01  0.24874152D+01  0.24326378D+01  0.16073466D+01
  0.18031426D-14  0.17634341D-14  0.11651755D-14 -0.57245413D-02  0.57670057D+00
  0.38804259D-15 -0.64401315D-03  0.64879042D-01 -0.24835465D-16 -0.11883788D-05
  0.11971942D-03 -0.18264773D-16  0.20779382D-15  0.46345563D-16 -0.25413938D-15
  0.51895870D-16  0.15051713D-02 -0.15163366D+00  0.35514866D-16 -0.50646905D-17
 -0.30450175D-16  0.10055719D-15  0.60375779D-03 -0.60823644D-01 -0.36603626D-16
  0.21783631D-16  0.14819995D-16  0.89293117D-17  0.22514636D-04 -0.22681649D-02
  0.15780746D-03 -0.15897806D-01  0.60447693D-17  0.15780760D-03 -0.15897821D-01
  0.87089193D-17 -0.63122997D-03  0.63591241D-01 -0.26843227D-16 -0.58670196D-17
  0.19762991D-04 -0.19909592D-02  0.21940478D-18  0.19762983D-04 -0.19909584D-02
 -0.25831318D-16 -0.79051956D-04  0.79638360D-02  0.25173104D-16 -0.90026480D-16
MO    6     MO 0.0        OCC NO =    2.0000000  ORB. ENERGY =   -1.085824
  0.95749359D-18  0.17849858D-17  0.30169404D-17  0.45354496D-17  0.55723239D-17
  0.47067183D-17  0.17752010D-17 -0.87855687D-20  0.14618439D-17  0.27370330D-17
  0.46600328D-17  0.72083622D-17  0.94931594D-17  0.98640007D-17  0.62681296D-17
 -0.42007547D-17 -0.14595566D-16 -0.14541757D-17  0.56766989D-17 -0.27461805D+00
 -0.25747188D+00 -0.18333532D+00 -0.27259595D-02 -0.25557603D-02 -0.18198536D-02
 -0.15594962D-15 -0.14621268D-15 -0.10411214D-15 -0.65542496D-01 -0.65059885D-03
 -0.18110649D-16 -0.22567044D-02 -0.22400875D-04 -0.33371841D-16 -0.80414777D-05
 -0.79822656D-07  0.50153684D-17 -0.16832728D-15  0.16259359D-15  0.57336814D-17
 -0.94221609D-16 -0.91642048D-01 -0.90967257D-03  0.37628093D-16 -0.17238601D-16
 -0.20389492D-16  0.29641313D-16 -0.15729373D-01 -0.15613552D-03 -0.56768766D-17
  0.42529998D-17  0.14238768D-17  0.55164776D-17  0.29134484D-03  0.28919957D-05
  0.50964528D-02  0.50589259D-04 -0.58487158D-18  0.50964450D-02  0.50589181D-04
 -0.84229218D-16 -0.20385803D-01 -0.20235696D-03  0.85983833D-16  0.11118110D-15
  0.37678917D-03  0.37401474D-05 -0.34747979D-17  0.37678951D-03  0.37401508D-05
  0.14023098D-16 -0.15071570D-02 -0.14960593D-04 -0.35987042D-17 -0.71214497D-17
 -0.18564404D-16 -0.34604853D-16 -0.58663734D-16 -0.88834182D-16 -0.11108746D-15
 -0.95635953D-16 -0.36765952D-16  0.15931289D-18 -0.16172075D-16 -0.30368293D-16
 -0.51711965D-16 -0.81006487D-16 -0.10855822D-15 -0.11676901D-15 -0.70107958D-16
  0.46105943D-16  0.48177809D-16  0.15013507D-15 -0.32542038D-16 -0.24874152D+01
 -0.24326378D+01 -0.16073466D+01 -0.24690996D-01 -0.24147254D-01 -0.15955112D-01
  0.85965314D-15  0.84072199D-15  0.55550057D-15 -0.57670057D+00 -0.57245413D-02
  0.15380354D-15 -0.64879042D-01 -0.64401315D-03  0.29647333D-16 -0.11971942D-03
 -0.11883788D-05 -0.59296305D-17  0.50919007D-16  0.28143158D-16 -0.79062165D-16
  0.22106061D-15  0.15163366D+00  0.15051713D-02  0.30372372D-17  0.15872849D-18
 -0.31959656D-17 -0.14886579D-15  0.60823644D-01  0.60375779D-03 -0.17086227D-16
  0.14027111D-16  0.30591158D-17  0.86387769D-17  0.22681649D-02  0.22514636D-04
  0.15897806D-01  0.15780746D-03 -0.72371195D-16  0.15897821D-01  0.15780760D-03
 -0.23301290D-15 -0.63591241D-01 -0.63122997D-03  0.45012648D-15 -0.63204068D-16
  0.19909592D-02  0.19762991D-04  0.13036362D-16  0.19909584D-02  0.19762983D-04
 -0.21349429D-16 -0.79638360D-02 -0.79051956D-04 -0.17759656D-16  0.35325082D-16
MO    7     MO 0.0        OCC NO =    2.0000000  ORB. ENERGY =   -0.873564
 -0.18465458D-02 -0.34423812D-02 -0.58182307D-02 -0.87467065D-02 -0.10746340D-01
 -0.90770017D-02 -0.34235111D-02  0.16943147D-04  0.57119837D-01  0.10694636D+00
  0.18208532D+00  0.28165831D+00  0.37093408D+00  0.38542427D+00  0.24491982D+00
 -0.16413957D+00 -0.83776584D-01 -0.50356156D-01 -0.58090670D-04 -0.16555105D-15
 -0.15521463D-15 -0.11052206D-15  0.24890500D-15  0.23336426D-15  0.16616925D-15
  0.50700603D+00  0.47535038D+00  0.33847779D+00 -0.50422740D-16  0.11112733D-16
  0.12470584D+00  0.18712111D-16 -0.72457530D-17  0.44949408D-02  0.20076181D-17
 -0.56469852D-18 -0.94158418D-04 -0.26056698D-01 -0.26056698D-01  0.52113396D-01
 -0.85292173D-17 -0.31522441D-16  0.51666721D-17 -0.39980350D-02 -0.39980350D-02
  0.79960701D-02  0.33591800D-17  0.23726922D-17  0.51279353D-17  0.13143772D-03
  0.13143772D-03 -0.26287544D-03 -0.10359695D-18  0.12192995D-18 -0.95230845D-17
 -0.11461078D-17  0.12518438D-17  0.35886727D-02 -0.16956148D-17  0.27935742D-17
 -0.53830090D-02  0.51339384D-17 -0.65491055D-17 -0.53830090D-02  0.35508689D-17
  0.17035424D-18 -0.90711981D-19 -0.47899661D-04  0.20785949D-18  0.54977798D-19
  0.71849492D-04 -0.71892219D-18  0.21715815D-18  0.71849492D-04 -0.16011983D-17
  0.37743536D-02  0.70355585D-02  0.11927001D-01  0.18060995D-01  0.22585338D-01
  0.19443872D-01  0.74749343D-02 -0.32390114D-04 -0.13871187D-01 -0.26047633D-01
 -0.44354627D-01 -0.69481260D-01 -0.93113063D-01 -0.10015565D+00 -0.60133323D-01
  0.39546203D-01  0.23560762D-01 -0.54620600D-02  0.79786979D-03 -0.41227954D-15
 -0.40320038D-15 -0.26641154D-15 -0.16063993D-15 -0.15710235D-15 -0.10380416D-15
 -0.94260539D+00 -0.92184748D+00 -0.60910361D+00 -0.97159383D-16 -0.43316313D-16
 -0.21383507D+00 -0.19686758D-16  0.49272646D-17 -0.10485773D-01 -0.22223436D-17
  0.15530821D-16 -0.25926421D-03 -0.19184749D-01 -0.19184749D-01  0.38369499D-01
 -0.72553608D-17  0.53078106D-16 -0.37716201D-17 -0.41324842D-02 -0.41324842D-02
  0.82649684D-02 -0.20462441D-17  0.32921922D-16 -0.57772061D-17  0.18238327D-02
  0.18238327D-02 -0.36476654D-02 -0.26943310D-17  0.97261511D-17 -0.41593662D-17
  0.69804912D-18 -0.24706494D-18 -0.88697532D-02 -0.10815293D-18 -0.19781105D-17
  0.13304630D-01 -0.19859944D-17  0.27193053D-17  0.13304630D-01 -0.92233515D-17
  0.44775562D-17 -0.19516132D-17  0.63286448D-03  0.48419195D-17 -0.12708911D-17
 -0.94929673D-03 -0.18274588D-16  0.71257308D-17 -0.94929673D-03  0.31491558D-17
END DATA
RHF
