 Molden2AIM, Version 4.0.0 (06/02/2016)           Time: Sun Jul  1 16:12:11 2018
GAUSSIAN              7 MOL ORBITALS    150 PRIMITIVES        2 NUCLEI
  C    1    (CENTRE  1)   0.00000000  0.00000000  0.00687104  CHARGE =  6.0
  N    2    (CENTRE  2)   0.00000000  0.00000000  2.21733660  CHARGE =  7.0
CENTRE ASSIGNMENTS    1  1  1  1  1  1  1  1  1  1  1  1  1  1  1  1  1  1  1  1
CENTRE ASSIGNMENTS    1  1  1  1  1  1  1  1  1  1  1  1  1  1  1  1  1  1  1  1
CENTRE ASSIGNMENTS    1  1  1  1  1  1  1  1  1  1  1  1  1  1  1  1  1  1  1  1
CENTRE ASSIGNMENTS    1  1  1  1  1  1  1  1  1  1  1  1  1  1  1  2  2  2  2  2
CENTRE ASSIGNMENTS    2  2  2  2  2  2  2  2  2  2  2  2  2  2  2  2  2  2  2  2
CENTRE ASSIGNMENTS    2  2  2  2  2  2  2  2  2  2  2  2  2  2  2  2  2  2  2  2
CENTRE ASSIGNMENTS    2  2  2  2  2  2  2  2  2  2  2  2  2  2  2  2  2  2  2  2
CENTRE ASSIGNMENTS    2  2  2  2  2  2  2  2  2  2
TYPE ASSIGNMENTS      1  1  1  1  1  1  1  1  1  1  1  1  1  1  1  1  1  1  1  2
TYPE ASSIGNMENTS      2  2  3  3  3  4  4  4  2  3  4  2  3  4  2  3  4  5  6  7
TYPE ASSIGNMENTS      8  9 10  5  6  7  8  9 10  5  6  7  8  9 10 11 12 13 17 14
TYPE ASSIGNMENTS     15 18 19 16 20 11 12 13 17 14 15 18 19 16 20  1  1  1  1  1
TYPE ASSIGNMENTS      1  1  1  1  1  1  1  1  1  1  1  1  1  1  2  2  2  3  3  3
TYPE ASSIGNMENTS      4  4  4  2  3  4  2  3  4  2  3  4  5  6  7  8  9 10  5  6
TYPE ASSIGNMENTS      7  8  9 10  5  6  7  8  9 10 11 12 13 17 14 15 18 19 16 20
TYPE ASSIGNMENTS     11 12 13 17 14 15 18 19 16 20
EXPONENTS  0.8236000D+04 0.1235000D+04 0.2808000D+03 0.7927000D+02 0.2559000D+02
EXPONENTS  0.8997000D+01 0.3319000D+01 0.3643000D+00 0.8236000D+04 0.1235000D+04
EXPONENTS  0.2808000D+03 0.7927000D+02 0.2559000D+02 0.8997000D+01 0.3319000D+01
EXPONENTS  0.3643000D+00 0.9059000D+00 0.1285000D+00 0.4402000D-01 0.1871000D+02
EXPONENTS  0.4133000D+01 0.1200000D+01 0.1871000D+02 0.4133000D+01 0.1200000D+01
EXPONENTS  0.1871000D+02 0.4133000D+01 0.1200000D+01 0.3827000D+00 0.3827000D+00
EXPONENTS  0.3827000D+00 0.1209000D+00 0.1209000D+00 0.1209000D+00 0.3569000D-01
EXPONENTS  0.3569000D-01 0.3569000D-01 0.1097000D+01 0.1097000D+01 0.1097000D+01
EXPONENTS  0.1097000D+01 0.1097000D+01 0.1097000D+01 0.3180000D+00 0.3180000D+00
EXPONENTS  0.3180000D+00 0.3180000D+00 0.3180000D+00 0.3180000D+00 0.1000000D+00
EXPONENTS  0.1000000D+00 0.1000000D+00 0.1000000D+00 0.1000000D+00 0.1000000D+00
EXPONENTS  0.7610000D+00 0.7610000D+00 0.7610000D+00 0.7610000D+00 0.7610000D+00
EXPONENTS  0.7610000D+00 0.7610000D+00 0.7610000D+00 0.7610000D+00 0.7610000D+00
EXPONENTS  0.2680000D+00 0.2680000D+00 0.2680000D+00 0.2680000D+00 0.2680000D+00
EXPONENTS  0.2680000D+00 0.2680000D+00 0.2680000D+00 0.2680000D+00 0.2680000D+00
EXPONENTS  0.1142000D+05 0.1712000D+04 0.3893000D+03 0.1100000D+03 0.3557000D+02
EXPONENTS  0.1254000D+02 0.4644000D+01 0.5118000D+00 0.1142000D+05 0.1712000D+04
EXPONENTS  0.3893000D+03 0.1100000D+03 0.3557000D+02 0.1254000D+02 0.4644000D+01
EXPONENTS  0.5118000D+00 0.1293000D+01 0.1787000D+00 0.5760000D-01 0.2663000D+02
EXPONENTS  0.5948000D+01 0.1742000D+01 0.2663000D+02 0.5948000D+01 0.1742000D+01
EXPONENTS  0.2663000D+02 0.5948000D+01 0.1742000D+01 0.5550000D+00 0.5550000D+00
EXPONENTS  0.5550000D+00 0.1725000D+00 0.1725000D+00 0.1725000D+00 0.4910000D-01
EXPONENTS  0.4910000D-01 0.4910000D-01 0.1654000D+01 0.1654000D+01 0.1654000D+01
EXPONENTS  0.1654000D+01 0.1654000D+01 0.1654000D+01 0.4690000D+00 0.4690000D+00
EXPONENTS  0.4690000D+00 0.4690000D+00 0.4690000D+00 0.4690000D+00 0.1510000D+00
EXPONENTS  0.1510000D+00 0.1510000D+00 0.1510000D+00 0.1510000D+00 0.1510000D+00
EXPONENTS  0.1093000D+01 0.1093000D+01 0.1093000D+01 0.1093000D+01 0.1093000D+01
EXPONENTS  0.1093000D+01 0.1093000D+01 0.1093000D+01 0.1093000D+01 0.1093000D+01
EXPONENTS  0.3640000D+00 0.3640000D+00 0.3640000D+00 0.3640000D+00 0.3640000D+00
EXPONENTS  0.3640000D+00 0.3640000D+00 0.3640000D+00 0.3640000D+00 0.3640000D+00
MO    1     MO 0.0        OCC NO =    2.0000000  ORB. ENERGY =  -14.504592
 -0.19888973D-03 -0.37077567D-03 -0.62667620D-03 -0.94209960D-03 -0.11574782D-02
 -0.97767538D-03 -0.36874318D-03  0.18249306D-05  0.15413069D-03  0.28858129D-03
  0.49133433D-03  0.76001951D-03  0.10009190D-02  0.10400189D-02  0.66088533D-03
 -0.44290998D-03  0.93102058D-03 -0.16844805D-02 -0.93820326D-04 -0.17347087D-15
 -0.16263997D-15 -0.11580935D-15  0.74547009D-16  0.69892560D-16  0.49767666D-16
  0.15636161D-02  0.14659894D-02  0.10438718D-02 -0.97084311D-16  0.14312730D-15
 -0.22095918D-02  0.22496338D-16  0.57694244D-16 -0.86818123D-03  0.24683643D-17
 -0.29146184D-18 -0.80891354D-05  0.75618618D-03  0.75618618D-03 -0.15123724D-02
 -0.18062825D-18  0.15716611D-16 -0.54844862D-16  0.43309789D-03  0.43309789D-03
 -0.86619578D-03 -0.13776872D-19 -0.48275746D-16  0.13870359D-15  0.32051082D-04
  0.32051082D-04 -0.64102164D-04  0.40437380D-20  0.85815091D-17  0.12677034D-16
  0.44968016D-17 -0.18345464D-17 -0.96413309D-03  0.44804724D-17 -0.18377191D-17
  0.14461996D-02 -0.17970877D-16  0.73413585D-17  0.14461996D-02 -0.27740401D-19
 -0.21886913D-17 -0.54368640D-17 -0.69614190D-04 -0.21890266D-17 -0.54371966D-17
  0.10442129D-03  0.87551004D-17  0.21747789D-16  0.10442129D-03  0.15995616D-19
  0.41124059D+00  0.76628629D+00  0.12959822D+01  0.19516774D+01  0.24163033D+01
  0.20561650D+01  0.78240872D+00 -0.36643538D-02 -0.42884352D-03 -0.80408560D-03
 -0.13679888D-02 -0.21243422D-02 -0.28191257D-02 -0.29709715D-02 -0.18421919D-02
  0.12254267D-02  0.40813112D-01  0.31661133D-02  0.70941995D-04 -0.11838963D-15
 -0.11371183D-15 -0.79742583D-16 -0.35555611D-15 -0.34150739D-15 -0.23948856D-15
 -0.37588849D-02 -0.36103640D-02 -0.25318365D-02 -0.56865362D-16 -0.99428777D-16
 -0.26270284D-02  0.96890504D-17 -0.12012982D-15 -0.77308976D-04 -0.91509105D-17
 -0.51590620D-17  0.22825727D-04 -0.17726639D-02 -0.17726639D-02  0.35453279D-02
  0.52059451D-18  0.34539856D-16  0.25972317D-16 -0.73078216D-04 -0.73078216D-04
  0.14615643D-03 -0.24608475D-18 -0.97726562D-16  0.19153726D-15  0.50061443D-04
  0.50061443D-04 -0.10012289D-03  0.76773337D-20  0.46357067D-17  0.27588494D-16
  0.13626601D-17  0.11274837D-16 -0.74574650D-03  0.13323237D-17  0.11262464D-16
  0.11186198D-02 -0.54203041D-17 -0.45086976D-16  0.11186198D-02  0.44227450D-19
 -0.15554780D-16  0.11685546D-16  0.10780414D-03 -0.15553128D-16  0.11686874D-16
 -0.16170621D-03  0.62217469D-16 -0.46743512D-16 -0.16170621D-03  0.35152046D-19
MO    2     MO 0.0        OCC NO =    2.0000000  ORB. ENERGY =  -10.302857
  0.32753689D+00  0.61060324D+00  0.10320270D+01  0.15514747D+01  0.19061659D+01
  0.16100618D+01  0.60725609D+00 -0.30053443D-02 -0.11301228D-02 -0.21159465D-02
 -0.36025799D-02 -0.55726433D-02 -0.73389753D-02 -0.76256654D-02 -0.48457680D-02
  0.32475210D-02  0.31958606D-01  0.45782933D-02  0.57581082D-03  0.27521445D-18
  0.25803104D-18  0.18373347D-18  0.35832539D-17  0.33595283D-17  0.23921843D-17
  0.38990557D-02  0.36556126D-02  0.26030139D-02  0.44118393D-18  0.97163990D-18
  0.39718683D-02  0.12215068D-18 -0.31753366D-18  0.97662942D-03  0.52926981D-19
  0.83398928D-20  0.33698381D-04 -0.19579531D-02 -0.19579531D-02  0.39159062D-02
  0.59259198D-18  0.63099525D-18  0.17070008D-17 -0.23307971D-03 -0.23307971D-03
  0.46615941D-03 -0.67308645D-19  0.37452969D-19 -0.36468361D-18 -0.14724346D-04
 -0.14724346D-04  0.29448691D-04 -0.10374699D-20  0.39616445D-19 -0.72158742D-19
 -0.49258541D-19 -0.16306061D-19  0.74773975D-03 -0.43734650D-19 -0.63614242D-19
 -0.11216096D-02  0.19151027D-18  0.11253242D-18 -0.11216096D-02 -0.70729418D-19
 -0.12597044D-19  0.19504754D-19 -0.17682177D-04 -0.10030001D-19  0.12299722D-19
  0.26523265D-04  0.47821132D-19 -0.70813985D-19  0.26523265D-04 -0.77414984D-20
 -0.48523398D-03 -0.90416208D-03 -0.15291647D-02 -0.23028374D-02 -0.28510620D-02
 -0.24261251D-02 -0.92318537D-03  0.43236709D-05  0.13909254D-03  0.26079982D-03
  0.44369809D-03  0.68901629D-03  0.91436469D-03  0.96361487D-03  0.59750269D-03
 -0.39745902D-03  0.73282827D-03 -0.54714556D-02 -0.13636468D-02  0.48419534D-17
  0.46506384D-17  0.32613486D-17  0.85487811D-17  0.82110021D-17  0.57581214D-17
 -0.29556058D-02 -0.28388240D-02 -0.19907794D-02  0.10533410D-17  0.23255752D-17
  0.38168771D-02  0.64447689D-19  0.80455650D-18  0.24731723D-02 -0.29691315D-19
  0.76624478D-19  0.11309940D-03  0.15143097D-03  0.15143097D-03 -0.30286195D-03
 -0.22624487D-18 -0.70485423D-18 -0.10402516D-17  0.10421440D-02  0.10421440D-02
 -0.20842879D-02 -0.19554639D-19 -0.24492281D-18 -0.51331805D-18  0.91412142D-04
  0.91412142D-04 -0.18282428D-03  0.92253087D-21  0.70387838D-19 -0.22203295D-18
  0.15899666D-19 -0.62474580D-20  0.74621250D-03  0.17282708D-19 -0.22039311D-19
 -0.11193187D-02 -0.64981704D-19  0.40781685D-19 -0.11193187D-02  0.37010701D-18
 -0.25460113D-19 -0.48373685D-19  0.25835452D-03 -0.22863352D-19 -0.49508715D-19
 -0.38753179D-03  0.99243691D-19  0.19462977D-18 -0.38753179D-03 -0.24798800D-19
MO    3     MO 0.0        OCC NO =    2.0000000  ORB. ENERGY =   -0.751950
  0.79914461D-02  0.14897872D-01  0.25180029D-01  0.37853832D-01  0.46507806D-01
  0.39283277D-01  0.14816207D-01 -0.73326234D-04  0.35862229D-01  0.67145409D-01
  0.11432080D+00  0.17683690D+00  0.23288798D+00  0.24198552D+00  0.15377094D+00
 -0.10305371D+00 -0.45995177D-01 -0.22304062D-01 -0.22983573D-02 -0.36384363D-16
 -0.34112653D-16 -0.24290241D-16 -0.28287161D-16 -0.26521012D-16 -0.18884540D-16
 -0.28258719D+00 -0.26494346D+00 -0.18865552D+00  0.29122313D-18 -0.14891241D-16
 -0.55143557D-01  0.16407813D-16 -0.28212836D-16 -0.19290080D-02 -0.75943217D-18
  0.20996442D-17  0.17008130D-05  0.22252302D-01  0.22252302D-01 -0.44504604D-01
 -0.54369233D-17  0.82157865D-17 -0.98439426D-18  0.95673087D-03  0.95673087D-03
 -0.19134617D-02  0.10990370D-17  0.21057711D-16 -0.34476467D-16 -0.14313177D-03
 -0.14313177D-03  0.28626355D-03 -0.47910870D-19  0.19339133D-17 -0.40394093D-17
 -0.18976369D-17  0.32410837D-17 -0.62295907D-02 -0.14758290D-17  0.35344962D-17
  0.93443860D-02  0.71687397D-17 -0.13257747D-16  0.93443860D-02 -0.64958732D-17
 -0.13519806D-17  0.11276791D-17  0.61643383D-03 -0.13468393D-17  0.12196453D-17
 -0.92465075D-03  0.54027811D-17 -0.46026826D-17 -0.92465075D-03  0.32505502D-21
  0.82470013D-02  0.15367073D-01  0.25989572D-01  0.39138856D-01  0.48456442D-01
  0.41234245D-01  0.15690391D-01 -0.73484795D-04  0.65914228D-01  0.12358979D+00
  0.21026301D+00  0.32651625D+00  0.43330606D+00  0.45664511D+00  0.28314910D+00
 -0.18835089D+00 -0.94112913D-01 -0.23084470D-01  0.50851025D-02  0.48456555D-16
  0.46541941D-16  0.32638422D-16 -0.12462223D-15 -0.11969816D-15 -0.83940615D-16
  0.37435003D+00  0.35955872D+00  0.25214740D+00 -0.40822856D-17 -0.21031809D-16
  0.75812513D-01 -0.14133228D-16  0.30502316D-16 -0.70564511D-02 -0.46356829D-18
  0.11851499D-17 -0.79718544D-03  0.23664234D-01  0.23664234D-01 -0.47328469D-01
 -0.15538126D-16 -0.38087270D-18  0.21511468D-16  0.15844753D-02  0.15844753D-02
 -0.31689507D-02 -0.18977469D-17  0.19722926D-16 -0.37990256D-16 -0.71289621D-03
 -0.71289621D-03  0.14257924D-02  0.36295192D-19  0.44545758D-17 -0.11014114D-16
 -0.21004434D-18 -0.71183597D-18  0.61417195D-02  0.16843381D-17 -0.26763227D-18
 -0.92125793D-02 -0.10542051D-17  0.24031402D-17 -0.92125793D-02  0.15402856D-16
  0.79684767D-18 -0.33826045D-17 -0.21863640D-03  0.57023699D-18 -0.33409344D-17
  0.32795460D-03 -0.29607800D-17  0.13488748D-16  0.32795460D-03  0.34630770D-18
MO    4     MO 0.0        OCC NO =    2.0000000  ORB. ENERGY =   -0.237256
  0.24771693D-02  0.46180067D-02  0.78052449D-02  0.11733840D-01  0.14416378D-01
  0.12176936D-01  0.45926922D-02 -0.22729490D-04  0.41996318D-01  0.78630358D-01
  0.13387491D+00  0.20708413D+00  0.27272252D+00  0.28337617D+00  0.18007283D+00
 -0.12068062D+00 -0.54815653D-01 -0.44507243D-01 -0.43545940D-02 -0.11392345D-15
 -0.10681047D-15 -0.76055420D-16 -0.15023381D-15 -0.14085375D-15 -0.10029626D-15
  0.11856054D-01  0.11115804D-01  0.79151147D-02 -0.31804061D-16 -0.45559227D-16
  0.54840290D-02 -0.14239658D-16  0.68056030D-17  0.25448634D-02 -0.64904726D-18
 -0.74018897D-18 -0.13241358D-04  0.52797428D-02  0.52797428D-02 -0.10559486D-01
 -0.52467138D-17 -0.22659001D-16 -0.29800124D-16 -0.17082004D-03 -0.17082004D-03
  0.34164008D-03 -0.49636258D-17 -0.83230891D-17  0.35174215D-17 -0.24160672D-05
 -0.24160672D-05  0.48321344D-05 -0.76109045D-19 -0.93951084D-18  0.12616570D-17
  0.79054609D-18  0.39451942D-18 -0.31303609D-02  0.96767233D-18 -0.48101966D-18
  0.46955413D-02 -0.33393106D-17 -0.70253859D-18  0.46955413D-02 -0.22017893D-17
  0.35087068D-18 -0.98864542D-19  0.26026853D-03  0.32755390D-18  0.38831694D-19
 -0.39040279D-03 -0.13801660D-17  0.25776193D-18 -0.39040279D-03 -0.97004306D-18
 -0.40400651D-03 -0.75280665D-03 -0.12731848D-02 -0.19173457D-02 -0.23737984D-02
 -0.20199953D-02 -0.76864547D-03  0.35998947D-05 -0.47877154D-01 -0.89770111D-01
 -0.15272567D+00 -0.23716684D+00 -0.31473419D+00 -0.33168663D+00 -0.20566687D+00
  0.13680968D+00  0.70137620D-01  0.74738629D-01  0.10625178D-01 -0.22717441D-15
 -0.21819830D-15 -0.15301571D-15 -0.25488634D-15 -0.24481528D-15 -0.17168137D-15
  0.70866352D+00  0.68066284D+00  0.47732776D+00 -0.52013554D-16 -0.64945756D-16
  0.16471692D+00 -0.39856673D-17 -0.21447452D-16  0.20142479D-01  0.54986143D-18
 -0.13525909D-17  0.47252152D-03  0.16949729D-01  0.16949729D-01 -0.33899458D-01
  0.14867287D-16  0.51721532D-16  0.43285366D-16  0.15262530D-02  0.15262530D-02
 -0.30525060D-02  0.53737209D-17  0.91179302D-17  0.10628328D-16 -0.15958420D-03
 -0.15958420D-03  0.31916840D-03  0.70101094D-18 -0.25582780D-17  0.53159311D-17
  0.30074180D-17  0.67933164D-18  0.18530089D-02  0.13528948D-17  0.73755315D-18
 -0.27795134D-02 -0.10375149D-16 -0.27755481D-17 -0.27795134D-02  0.17977021D-16
 -0.30637164D-18  0.11281110D-17 -0.76906792D-04 -0.62980180D-19  0.10904312D-17
  0.11536019D-03  0.98209509D-18 -0.44747642D-17  0.11536019D-03 -0.21925866D-18
MO    5     MO 0.0        OCC NO =    2.0000000  ORB. ENERGY =   -0.133366
 -0.39982395D-17 -0.74536275D-17 -0.12597943D-16 -0.18938836D-16 -0.23268548D-16
 -0.19654008D-16 -0.74127688D-17  0.36686207D-19 -0.12612608D-16 -0.23614782D-16
 -0.40206186D-16 -0.62192857D-16 -0.81905805D-16 -0.85105377D-16 -0.54080647D-16
  0.36243592D-16  0.20688415D-16 -0.26683817D-16  0.14841674D-16  0.36691815D+00
  0.34400909D+00  0.24495496D+00 -0.21296199D+00 -0.19966540D+00 -0.14217366D+00
 -0.36391698D-15 -0.34119530D-15 -0.24295138D-15  0.90144302D-01 -0.52320416D-01
 -0.11888044D-15  0.12107327D-01 -0.70271817D-02 -0.36652475D-16  0.29945796D-03
 -0.17380760D-03 -0.74212051D-18  0.18122301D-16  0.13101182D-16 -0.31223483D-16
 -0.14466679D-16  0.62123415D-01 -0.36056887D-01  0.51399946D-17  0.87692038D-17
 -0.13909198D-16 -0.43095500D-17  0.90553524D-02 -0.52557931D-02  0.10969344D-17
  0.27073005D-17 -0.38042350D-17 -0.31910915D-18 -0.23260632D-04  0.13500642D-04
 -0.30077487D-02  0.17457194D-02 -0.36758656D-17 -0.30077387D-02  0.17457136D-02
 -0.47561804D-17  0.12030985D-01 -0.69828720D-02  0.15783777D-16 -0.18408150D-16
 -0.10255962D-04  0.59526359D-05 -0.10525415D-17 -0.10256508D-04  0.59529529D-05
 -0.10028827D-17  0.41024395D-04 -0.23810860D-04  0.41605071D-17 -0.33269164D-17
  0.26627502D-17  0.49616430D-17  0.83913821D-17  0.12636956D-16  0.15645372D-16
  0.13313505D-16  0.50660344D-17 -0.23726400D-19 -0.33720246D-17 -0.63225776D-17
 -0.10756586D-16 -0.16703842D-16 -0.22166970D-16 -0.23360943D-16 -0.14485275D-16
  0.96356105D-17 -0.44379189D-17  0.11968490D-15 -0.17277853D-17  0.74138802D+00
  0.71209433D+00  0.49936970D+00 -0.43030706D+00 -0.41330479D+00 -0.28983785D+00
  0.47532453D-15  0.45654353D-15  0.32015984D-15  0.18770744D+00 -0.10894678D+00
  0.65841871D-16  0.32372762D-01 -0.18789389D-01 -0.18348128D-17  0.15915595D-02
 -0.92375287D-03  0.48378890D-17  0.15336107D-16  0.60385091D-17 -0.21374616D-16
 -0.21388238D-16 -0.78495597D-01  0.45559422D-01 -0.27463460D-17 -0.25315937D-17
  0.52779397D-17  0.36081486D-17 -0.16147909D-01  0.93723650D-02  0.30451943D-17
 -0.63662200D-18 -0.24085723D-17  0.24041594D-17 -0.71429985D-03  0.41458489D-03
 -0.52497684D-02  0.30470042D-02  0.12748014D-17 -0.52497893D-02  0.30470163D-02
  0.19121885D-16  0.20999094D-01 -0.12188029D-01 -0.22946290D-16  0.29902909D-16
 -0.97087370D-04  0.56350224D-04 -0.49455466D-18 -0.97086443D-04  0.56349686D-04
 -0.15102318D-17  0.38834855D-03 -0.22540036D-03  0.29938958D-17 -0.52189718D-17
MO    6     MO 0.0        OCC NO =    2.0000000  ORB. ENERGY =   -0.133366
 -0.82460623D-17 -0.15372535D-16 -0.25982292D-16 -0.39059896D-16 -0.47989595D-16
 -0.40534885D-16 -0.15288267D-16  0.75662487D-19 -0.39313299D-16 -0.73606900D-16
 -0.12532205D-15 -0.19385415D-15 -0.25529909D-15 -0.26527211D-15 -0.16856852D-15
  0.11297070D-15  0.38586745D-16 -0.42028019D-16 -0.11239240D-16 -0.21296199D+00
 -0.19966540D+00 -0.14217366D+00 -0.36691815D+00 -0.34400909D+00 -0.24495496D+00
 -0.68661549D-15 -0.64374566D-15 -0.45838526D-15 -0.52320416D-01 -0.90144302D-01
 -0.20429696D-15 -0.70271817D-02 -0.12107327D-01 -0.61106358D-16 -0.17380760D-03
 -0.29945796D-03 -0.34271593D-17  0.28913866D-16  0.23129215D-16 -0.52043081D-16
  0.20755244D-16 -0.36056887D-01 -0.62123415D-01  0.72050242D-17  0.74071436D-17
 -0.14612168D-16  0.12895489D-16 -0.52557931D-02 -0.90553524D-02  0.36860208D-17
  0.30114730D-18 -0.39871681D-17  0.36939508D-17  0.13500642D-04  0.23260632D-04
  0.17457194D-02  0.30077487D-02 -0.49117886D-17  0.17457136D-02  0.30077387D-02
 -0.45166594D-18 -0.69828720D-02 -0.12030985D-01  0.15187032D-16 -0.15345967D-16
  0.59526359D-05  0.10255962D-04 -0.13251262D-17  0.59529529D-05  0.10256508D-04
  0.23198438D-17 -0.23810860D-04 -0.41024395D-04  0.16555347D-17  0.78884687D-17
 -0.91359782D-18 -0.17023550D-17 -0.28791091D-17 -0.43357788D-17 -0.53679754D-17
 -0.45679048D-17 -0.17381720D-17  0.81406012D-20  0.10355328D-16  0.19416337D-16
  0.33032967D-16  0.51296709D-16  0.68073717D-16  0.71740353D-16  0.44483595D-16
 -0.29590505D-16 -0.25624767D-16  0.15341805D-15  0.41780809D-16 -0.43030706D+00
 -0.41330479D+00 -0.28983785D+00 -0.74138802D+00 -0.71209433D+00 -0.49936970D+00
  0.61235473D-15  0.58815939D-15  0.41245797D-15 -0.10894678D+00 -0.18770744D+00
  0.96043568D-16 -0.18789389D-01 -0.32372762D-01 -0.27763211D-16 -0.92375287D-03
 -0.15915595D-02 -0.70042306D-18  0.13488698D-16  0.38753316D-16 -0.52242014D-16
 -0.26469393D-16  0.45559422D-01  0.78495597D-01 -0.91765539D-17 -0.90249357D-17
  0.18201490D-16  0.43291235D-17  0.93723650D-02  0.16147909D-01 -0.12691079D-17
 -0.25559756D-18  0.15247054D-17 -0.99011144D-17  0.41458489D-03  0.71429985D-03
  0.30470042D-02  0.52497684D-02  0.77670342D-18  0.30470163D-02  0.52497893D-02
  0.40980738D-17 -0.12188029D-01 -0.20999094D-01 -0.64281841D-17 -0.11086120D-16
  0.56350224D-04  0.97087370D-04 -0.23773253D-17  0.56349686D-04  0.97086443D-04
  0.44535083D-17 -0.22540036D-03 -0.38834855D-03  0.26784676D-17  0.35536766D-17
MO    7     MO 0.0        OCC NO =    2.0000000  ORB. ENERGY =   -0.106545
  0.10782769D-02  0.20101533D-02  0.33975131D-02  0.51075751D-02  0.62752462D-02
  0.53004486D-02  0.19991342D-02 -0.98938267D-05  0.23820881D-01  0.44600205D-01
  0.75935666D-01  0.11746093D+00  0.15469191D+00  0.16073480D+00  0.10213975D+00
 -0.68451687D-01 -0.26674296D-01 -0.49776719D-01 -0.12936358D-01 -0.10114918D-16
 -0.94833787D-17 -0.67527306D-17 -0.53291670D-15 -0.49964328D-15 -0.35577578D-15
  0.55564134D+00  0.52094907D+00  0.37094677D+00 -0.46786525D-17 -0.12526331D-15
  0.12785981D+00  0.26324363D-17 -0.14652713D-16  0.15175133D-01 -0.35025297D-18
  0.19798965D-17  0.55246110D-03 -0.20215691D-01 -0.20215691D-01  0.40431382D-01
 -0.91026976D-17 -0.74653921D-17 -0.85894959D-16 -0.78459228D-03 -0.78459228D-03
  0.15691846D-02  0.36473422D-18 -0.16290943D-17 -0.95338954D-17  0.20255512D-03
  0.20255512D-03 -0.40511024D-03 -0.27986403D-18  0.23597944D-18  0.14355490D-17
 -0.57167409D-18  0.47408581D-17  0.44216832D-02  0.40850459D-18  0.46741747D-17
 -0.66325248D-02  0.13065177D-17 -0.18896749D-16 -0.66325248D-02  0.86302317D-17
  0.96679324D-19 -0.33170157D-18 -0.64888594D-03  0.53049585D-19 -0.26294519D-18
  0.97332891D-03 -0.34308756D-18  0.12580499D-17  0.97332891D-03 -0.77871825D-19
 -0.22007740D-03 -0.41008182D-03 -0.69355117D-03 -0.10444496D-02 -0.12930964D-02
 -0.11003667D-02 -0.41870982D-03  0.19609967D-05  0.37906468D-03  0.71074982D-03
  0.12091969D-02  0.18777551D-02  0.24918903D-02  0.26261103D-02  0.16283559D-02
 -0.10831830D-02  0.27543205D-02 -0.17622448D-01 -0.25142149D-02 -0.66515764D-16
 -0.63887596D-16 -0.44802392D-16 -0.10351790D-14 -0.99427702D-15 -0.69725568D-15
 -0.68262092D+00 -0.65564924D+00 -0.45978650D+00 -0.17388126D-16 -0.26306144D-15
 -0.15478273D+00 -0.54390151D-17 -0.50551779D-16 -0.19674338D-01 -0.41358823D-18
 -0.35844384D-17 -0.12818933D-02 -0.19806876D-01 -0.19806876D-01  0.39613752D-01
  0.17807526D-17 -0.17303302D-16  0.97092110D-16 -0.11454799D-02 -0.11454799D-02
  0.22909598D-02  0.13966310D-17 -0.96028559D-18  0.24736319D-16  0.36397640D-03
  0.36397640D-03 -0.72795281D-03 -0.26861537D-18  0.42627270D-18  0.22474449D-17
  0.51375410D-18  0.79656393D-17 -0.29146627D-02  0.62887378D-18  0.84697996D-17
  0.43719941D-02 -0.21701361D-17 -0.32366717D-16  0.43719941D-02 -0.20539832D-16
  0.80577569D-19  0.28680034D-18  0.44628550D-04 -0.10309787D-19  0.18206376D-18
 -0.66942826D-04 -0.23142292D-18 -0.10424648D-17 -0.66942826D-04 -0.12563180D-17
END DATA
RHF
