 Molden2AIM, Version 4.0.0 (06/02/2016)           Time: Sun Jul  1 16:16:39 2018
GAUSSIAN             20 MOL ORBITALS    338 PRIMITIVES        2 NUCLEI
  C    1    (CENTRE  1)   0.00000000  0.00000000 -0.16165473  CHARGE =  6.0
  Se   2    (CENTRE  2)   0.00000000  0.00000000  2.99624392  CHARGE = 34.0
CENTRE ASSIGNMENTS    1  1  1  1  1  1  1  1  1  1  1  1  1  1  1  1  1  1  1  1
CENTRE ASSIGNMENTS    1  1  1  1  1  1  1  1  1  1  1  1  1  1  1  1  1  1  1  1
CENTRE ASSIGNMENTS    1  1  1  1  1  1  1  1  1  1  1  1  1  1  1  1  1  1  1  1
CENTRE ASSIGNMENTS    1  1  1  1  1  1  1  1  1  1  1  1  1  1  1  2  2  2  2  2
CENTRE ASSIGNMENTS    2  2  2  2  2  2  2  2  2  2  2  2  2  2  2  2  2  2  2  2
CENTRE ASSIGNMENTS    2  2  2  2  2  2  2  2  2  2  2  2  2  2  2  2  2  2  2  2
CENTRE ASSIGNMENTS    2  2  2  2  2  2  2  2  2  2  2  2  2  2  2  2  2  2  2  2
CENTRE ASSIGNMENTS    2  2  2  2  2  2  2  2  2  2  2  2  2  2  2  2  2  2  2  2
CENTRE ASSIGNMENTS    2  2  2  2  2  2  2  2  2  2  2  2  2  2  2  2  2  2  2  2
CENTRE ASSIGNMENTS    2  2  2  2  2  2  2  2  2  2  2  2  2  2  2  2  2  2  2  2
CENTRE ASSIGNMENTS    2  2  2  2  2  2  2  2  2  2  2  2  2  2  2  2  2  2  2  2
CENTRE ASSIGNMENTS    2  2  2  2  2  2  2  2  2  2  2  2  2  2  2  2  2  2  2  2
CENTRE ASSIGNMENTS    2  2  2  2  2  2  2  2  2  2  2  2  2  2  2  2  2  2  2  2
CENTRE ASSIGNMENTS    2  2  2  2  2  2  2  2  2  2  2  2  2  2  2  2  2  2  2  2
CENTRE ASSIGNMENTS    2  2  2  2  2  2  2  2  2  2  2  2  2  2  2  2  2  2  2  2
CENTRE ASSIGNMENTS    2  2  2  2  2  2  2  2  2  2  2  2  2  2  2  2  2  2  2  2
CENTRE ASSIGNMENTS    2  2  2  2  2  2  2  2  2  2  2  2  2  2  2  2  2  2
TYPE ASSIGNMENTS      1  1  1  1  1  1  1  1  1  1  1  1  1  1  1  1  1  1  1  2
TYPE ASSIGNMENTS      2  2  3  3  3  4  4  4  2  3  4  2  3  4  2  3  4  5  6  7
TYPE ASSIGNMENTS      8  9 10  5  6  7  8  9 10  5  6  7  8  9 10 11 12 13 17 14
TYPE ASSIGNMENTS     15 18 19 16 20 11 12 13 17 14 15 18 19 16 20  1  1  1  1  1
TYPE ASSIGNMENTS      1  1  1  1  1  1  1  1  1  1  1  1  1  1  1  1  1  1  1  1
TYPE ASSIGNMENTS      1  1  1  1  1  1  1  1  1  1  1  1  1  1  1  1  1  1  1  1
TYPE ASSIGNMENTS      1  1  1  1  1  1  1  1  1  1  1  1  1  1  1  1  1  1  1  1
TYPE ASSIGNMENTS      1  1  1  1  1  1  1  1  1  1  2  2  2  2  2  2  2  2  2  2
TYPE ASSIGNMENTS      2  3  3  3  3  3  3  3  3  3  3  3  4  4  4  4  4  4  4  4
TYPE ASSIGNMENTS      4  4  4  2  2  2  2  2  2  2  2  2  2  2  3  3  3  3  3  3
TYPE ASSIGNMENTS      3  3  3  3  3  4  4  4  4  4  4  4  4  4  4  4  2  2  2  2
TYPE ASSIGNMENTS      2  2  2  2  2  2  2  3  3  3  3  3  3  3  3  3  3  3  4  4
TYPE ASSIGNMENTS      4  4  4  4  4  4  4  4  4  2  3  4  2  3  4  2  3  4  5  5
TYPE ASSIGNMENTS      5  5  5  5  5  6  6  6  6  6  6  6  7  7  7  7  7  7  7  8
TYPE ASSIGNMENTS      8  8  8  8  8  8  9  9  9  9  9  9  9 10 10 10 10 10 10 10
TYPE ASSIGNMENTS      5  6  7  8  9 10  5  6  7  8  9 10  5  6  7  8  9 10 11 12
TYPE ASSIGNMENTS     13 17 14 15 18 19 16 20 11 12 13 17 14 15 18 19 16 20
EXPONENTS  0.8236000D+04 0.1235000D+04 0.2808000D+03 0.7927000D+02 0.2559000D+02
EXPONENTS  0.8997000D+01 0.3319000D+01 0.3643000D+00 0.8236000D+04 0.1235000D+04
EXPONENTS  0.2808000D+03 0.7927000D+02 0.2559000D+02 0.8997000D+01 0.3319000D+01
EXPONENTS  0.3643000D+00 0.9059000D+00 0.1285000D+00 0.4402000D-01 0.1871000D+02
EXPONENTS  0.4133000D+01 0.1200000D+01 0.1871000D+02 0.4133000D+01 0.1200000D+01
EXPONENTS  0.1871000D+02 0.4133000D+01 0.1200000D+01 0.3827000D+00 0.3827000D+00
EXPONENTS  0.3827000D+00 0.1209000D+00 0.1209000D+00 0.1209000D+00 0.3569000D-01
EXPONENTS  0.3569000D-01 0.3569000D-01 0.1097000D+01 0.1097000D+01 0.1097000D+01
EXPONENTS  0.1097000D+01 0.1097000D+01 0.1097000D+01 0.3180000D+00 0.3180000D+00
EXPONENTS  0.3180000D+00 0.3180000D+00 0.3180000D+00 0.3180000D+00 0.1000000D+00
EXPONENTS  0.1000000D+00 0.1000000D+00 0.1000000D+00 0.1000000D+00 0.1000000D+00
EXPONENTS  0.7610000D+00 0.7610000D+00 0.7610000D+00 0.7610000D+00 0.7610000D+00
EXPONENTS  0.7610000D+00 0.7610000D+00 0.7610000D+00 0.7610000D+00 0.7610000D+00
EXPONENTS  0.2680000D+00 0.2680000D+00 0.2680000D+00 0.2680000D+00 0.2680000D+00
EXPONENTS  0.2680000D+00 0.2680000D+00 0.2680000D+00 0.2680000D+00 0.2680000D+00
EXPONENTS  0.9563600D+07 0.1432100D+07 0.3259100D+06 0.9231200D+05 0.3011600D+05
EXPONENTS  0.1087200D+05 0.4240100D+04 0.1758400D+04 0.7665900D+03 0.3484300D+03
EXPONENTS  0.1640300D+03 0.7914200D+02 0.3552400D+02 0.1730500D+02 0.8378400D+01
EXPONENTS  0.3740500D+01 0.1689000D+01 0.2552000D+00 0.9563600D+07 0.1432100D+07
EXPONENTS  0.3259100D+06 0.9231200D+05 0.3011600D+05 0.1087200D+05 0.4240100D+04
EXPONENTS  0.1758400D+04 0.7665900D+03 0.3484300D+03 0.1640300D+03 0.7914200D+02
EXPONENTS  0.3552400D+02 0.1730500D+02 0.8378400D+01 0.3740500D+01 0.1689000D+01
EXPONENTS  0.2552000D+00 0.9563600D+07 0.1432100D+07 0.3259100D+06 0.9231200D+05
EXPONENTS  0.3011600D+05 0.1087200D+05 0.4240100D+04 0.1758400D+04 0.7665900D+03
EXPONENTS  0.3484300D+03 0.1640300D+03 0.7914200D+02 0.3552400D+02 0.1730500D+02
EXPONENTS  0.8378400D+01 0.3740500D+01 0.1689000D+01 0.2552000D+00 0.9563600D+07
EXPONENTS  0.1432100D+07 0.3259100D+06 0.9231200D+05 0.3011600D+05 0.1087200D+05
EXPONENTS  0.4240100D+04 0.1758400D+04 0.7665900D+03 0.3484300D+03 0.1640300D+03
EXPONENTS  0.7914200D+02 0.3552400D+02 0.1730500D+02 0.8378400D+01 0.3740500D+01
EXPONENTS  0.1689000D+01 0.2552000D+00 0.5092700D+00 0.1065100D+00 0.3920100D-01
EXPONENTS  0.8004300D+04 0.1896900D+04 0.6147100D+03 0.2335000D+03 0.9785600D+02
EXPONENTS  0.4351400D+02 0.2006300D+02 0.9112700D+01 0.4106300D+01 0.1794900D+01
EXPONENTS  0.2461500D+00 0.8004300D+04 0.1896900D+04 0.6147100D+03 0.2335000D+03
EXPONENTS  0.9785600D+02 0.4351400D+02 0.2006300D+02 0.9112700D+01 0.4106300D+01
EXPONENTS  0.1794900D+01 0.2461500D+00 0.8004300D+04 0.1896900D+04 0.6147100D+03
EXPONENTS  0.2335000D+03 0.9785600D+02 0.4351400D+02 0.2006300D+02 0.9112700D+01
EXPONENTS  0.4106300D+01 0.1794900D+01 0.2461500D+00 0.8004300D+04 0.1896900D+04
EXPONENTS  0.6147100D+03 0.2335000D+03 0.9785600D+02 0.4351400D+02 0.2006300D+02
EXPONENTS  0.9112700D+01 0.4106300D+01 0.1794900D+01 0.2461500D+00 0.8004300D+04
EXPONENTS  0.1896900D+04 0.6147100D+03 0.2335000D+03 0.9785600D+02 0.4351400D+02
EXPONENTS  0.2006300D+02 0.9112700D+01 0.4106300D+01 0.1794900D+01 0.2461500D+00
EXPONENTS  0.8004300D+04 0.1896900D+04 0.6147100D+03 0.2335000D+03 0.9785600D+02
EXPONENTS  0.4351400D+02 0.2006300D+02 0.9112700D+01 0.4106300D+01 0.1794900D+01
EXPONENTS  0.2461500D+00 0.8004300D+04 0.1896900D+04 0.6147100D+03 0.2335000D+03
EXPONENTS  0.9785600D+02 0.4351400D+02 0.2006300D+02 0.9112700D+01 0.4106300D+01
EXPONENTS  0.1794900D+01 0.2461500D+00 0.8004300D+04 0.1896900D+04 0.6147100D+03
EXPONENTS  0.2335000D+03 0.9785600D+02 0.4351400D+02 0.2006300D+02 0.9112700D+01
EXPONENTS  0.4106300D+01 0.1794900D+01 0.2461500D+00 0.8004300D+04 0.1896900D+04
EXPONENTS  0.6147100D+03 0.2335000D+03 0.9785600D+02 0.4351400D+02 0.2006300D+02
EXPONENTS  0.9112700D+01 0.4106300D+01 0.1794900D+01 0.2461500D+00 0.6243200D+00
EXPONENTS  0.6243200D+00 0.6243200D+00 0.8891700D-01 0.8891700D-01 0.8891700D-01
EXPONENTS  0.3025100D-01 0.3025100D-01 0.3025100D-01 0.3618500D+03 0.1085500D+03
EXPONENTS  0.4143300D+02 0.1757900D+02 0.7862700D+01 0.3518000D+01 0.1534800D+01
EXPONENTS  0.3618500D+03 0.1085500D+03 0.4143300D+02 0.1757900D+02 0.7862700D+01
EXPONENTS  0.3518000D+01 0.1534800D+01 0.3618500D+03 0.1085500D+03 0.4143300D+02
EXPONENTS  0.1757900D+02 0.7862700D+01 0.3518000D+01 0.1534800D+01 0.3618500D+03
EXPONENTS  0.1085500D+03 0.4143300D+02 0.1757900D+02 0.7862700D+01 0.3518000D+01
EXPONENTS  0.1534800D+01 0.3618500D+03 0.1085500D+03 0.4143300D+02 0.1757900D+02
EXPONENTS  0.7862700D+01 0.3518000D+01 0.1534800D+01 0.3618500D+03 0.1085500D+03
EXPONENTS  0.4143300D+02 0.1757900D+02 0.7862700D+01 0.3518000D+01 0.1534800D+01
EXPONENTS  0.6081300D+00 0.6081300D+00 0.6081300D+00 0.6081300D+00 0.6081300D+00
EXPONENTS  0.6081300D+00 0.2220000D+00 0.2220000D+00 0.2220000D+00 0.2220000D+00
EXPONENTS  0.2220000D+00 0.2220000D+00 0.8370000D-01 0.8370000D-01 0.8370000D-01
EXPONENTS  0.8370000D-01 0.8370000D-01 0.8370000D-01 0.4620000D+00 0.4620000D+00
EXPONENTS  0.4620000D+00 0.4620000D+00 0.4620000D+00 0.4620000D+00 0.4620000D+00
EXPONENTS  0.4620000D+00 0.4620000D+00 0.4620000D+00 0.1880000D+00 0.1880000D+00
EXPONENTS  0.1880000D+00 0.1880000D+00 0.1880000D+00 0.1880000D+00 0.1880000D+00
EXPONENTS  0.1880000D+00 0.1880000D+00 0.1880000D+00
MO    1     MO 0.0        OCC NO =    2.0000000  ORB. ENERGY = -456.506658
  0.25659791D-05  0.47835685D-05  0.80850735D-05  0.12154514D-04  0.14933225D-04
  0.12613495D-04  0.47573464D-05 -0.23544373D-07 -0.15426904D-05 -0.28884031D-05
 -0.49177534D-05 -0.76070168D-05 -0.10018173D-04 -0.10409524D-04 -0.66147852D-05
  0.44330752D-05 -0.82690730D-05  0.63230306D-05  0.15228200D-05 -0.29288159D-16
 -0.27459510D-16 -0.19552807D-16  0.20202142D-16  0.18940792D-16  0.13486972D-16
 -0.14081345D-04 -0.13202156D-04 -0.94007214D-05  0.63704037D-16 -0.42562296D-16
  0.19101859D-04 -0.15091166D-16  0.16241436D-16  0.10051326D-04  0.14072643D-18
 -0.53857463D-18  0.32815880D-06  0.29959831D-06  0.29959831D-06 -0.59919662D-06
 -0.27319927D-21  0.14856249D-16 -0.18161566D-16 -0.47949781D-05 -0.47949781D-05
  0.95899562D-05  0.26921468D-21  0.34427096D-16  0.37374003D-17 -0.66755167D-06
 -0.66755167D-06  0.13351033D-05 -0.64807544D-23 -0.32597217D-17  0.26417229D-17
  0.15295442D-17  0.62083866D-18  0.45684805D-06  0.15295664D-17  0.62087583D-18
 -0.68527208D-06 -0.61181989D-17 -0.24833918D-17 -0.68527208D-06 -0.14665769D-20
 -0.27599052D-17 -0.76602996D-18  0.13191944D-05 -0.27598969D-17 -0.76604847D-18
 -0.19787916D-05  0.11039612D-16  0.30641383D-17 -0.19787916D-05  0.24860878D-21
  0.77216571D+00  0.14427556D+01  0.25022789D+01  0.40993722D+01  0.64192912D+01
  0.96400636D+01  0.13749491D+02  0.18165863D+02  0.20949705D+02  0.18855407D+02
  0.10578352D+02  0.25573732D+01  0.12141140D+00 -0.20777140D-02  0.58437142D-03
 -0.22772861D-03  0.21540527D-04  0.21239413D-05  0.47329797D-04  0.87158557D-04
  0.15128536D-03  0.24777708D-03  0.38998972D-03  0.58863785D-03  0.85806252D-03
  0.11783001D-02  0.14964261D-02  0.16115560D-02  0.12856691D-02  0.28797962D-03
 -0.77005103D-03 -0.68478668D-03 -0.13374162D-03 -0.37049179D-05 -0.26829756D-06
 -0.54793702D-08 -0.35047481D-04 -0.63274982D-04 -0.11014970D-03 -0.18037477D-03
 -0.28437110D-03 -0.42910817D-03 -0.62803174D-03 -0.86534521D-03 -0.11147965D-02
 -0.12270404D-02 -0.10329690D-02 -0.24598689D-03  0.82857843D-03  0.11071545D-02
  0.13601619D-03 -0.47525905D-03 -0.20979595D-03  0.10411796D-05  0.11752181D-04
  0.25460970D-04  0.43343965D-04  0.70752665D-04  0.11154461D-03  0.16832709D-03
  0.24636097D-03  0.33983952D-03  0.43835746D-03  0.48461119D-03  0.41042974D-03
  0.99696111D-04 -0.34588677D-03 -0.48817951D-03 -0.58246539D-04  0.27374533D-03
  0.21881979D-03 -0.82899286D-04  0.75150518D-04  0.32905162D-05 -0.32169522D-07
 -0.33448393D-15 -0.47939305D-15 -0.63305691D-15 -0.72766701D-15 -0.66940816D-15
 -0.42823874D-15 -0.14823004D-15 -0.16664601D-16 -0.21201434D-18 -0.36738421D-19
 -0.37542669D-21  0.95184308D-17  0.13642119D-16  0.18014941D-16  0.20707267D-16
  0.19049391D-16  0.12186417D-16  0.42181917D-17  0.47422561D-18  0.60333057D-20
  0.10454676D-20  0.10683541D-22  0.23341408D-03  0.33453651D-03  0.44176829D-03
  0.50779038D-03  0.46713541D-03  0.29883932D-03  0.10343988D-03  0.11629116D-04
  0.14795070D-06  0.25637300D-07  0.26198530D-09  0.13603407D-14  0.19621842D-14
  0.26133755D-14  0.30928338D-14  0.29720971D-14  0.20428826D-14  0.64319089D-15
 -0.31084835D-15 -0.31900565D-15 -0.80337461D-16  0.87590493D-19  0.69944276D-17
  0.10088911D-16  0.13437124D-16  0.15902342D-16  0.15281553D-16  0.10503836D-16
  0.33070775D-17 -0.15982807D-17 -0.16402229D-17 -0.41306900D-18  0.45036172D-21
 -0.11578173D-02 -0.16700603D-02 -0.22243042D-02 -0.26323822D-02 -0.25296204D-02
 -0.17387445D-02 -0.54743460D-03  0.26457020D-03  0.27151307D-03  0.68377067D-04
 -0.74550290D-07 -0.77826662D-15 -0.11282430D-14 -0.14974604D-14 -0.17870757D-14
 -0.17169555D-14 -0.12017773D-14 -0.36286599D-15  0.22212812D-15  0.23889483D-15
  0.64246633D-16 -0.23949049D-16  0.13346738D-15  0.19348592D-15  0.25680417D-15
  0.30647121D-15  0.29444607D-15  0.20609656D-15  0.62229024D-16 -0.38093446D-16
 -0.40968821D-16 -0.11017856D-16  0.41070973D-17  0.87099604D-03  0.12626716D-02
  0.16758808D-02  0.20000034D-02  0.19215285D-02  0.13449675D-02  0.40610098D-03
 -0.24859439D-03 -0.26735882D-03 -0.71901533D-04  0.26802546D-04  0.39123641D-16
  0.33132392D-17 -0.62141099D-05  0.60477101D-17 -0.31239879D-17 -0.35879551D-05
  0.67242957D-18 -0.15045378D-17 -0.15159349D-06 -0.89562129D-04 -0.92705362D-04
 -0.77563539D-04 -0.50050508D-04 -0.22483372D-04 -0.65647809D-05 -0.11075188D-05
 -0.89562129D-04 -0.92705362D-04 -0.77563539D-04 -0.50050508D-04 -0.22483372D-04
 -0.65647809D-05 -0.11075188D-05  0.17912426D-03  0.18541072D-03  0.15512708D-03
  0.10010102D-03  0.44966745D-04  0.13129562D-04  0.22150375D-05 -0.53039469D-17
 -0.54900918D-17 -0.45933800D-17 -0.29640345D-17 -0.13314848D-17 -0.38877201D-18
 -0.65588221D-19 -0.92171399D-16 -0.95406206D-16 -0.79823247D-16 -0.51508661D-16
 -0.23138395D-16 -0.67560368D-17 -0.11397848D-17 -0.15505867D-14 -0.16050054D-14
 -0.13428554D-14 -0.86652307D-15 -0.38925401D-15 -0.11365587D-15 -0.19174442D-16
  0.53655007D-05  0.53655007D-05 -0.10731001D-04  0.18218690D-19  0.64101204D-17
  0.55502303D-16  0.13162679D-05  0.13162679D-05 -0.26325358D-05 -0.20855856D-20
  0.19839420D-16 -0.68820162D-17 -0.44300222D-06 -0.44300222D-06  0.88600445D-06
  0.13453106D-21 -0.47926175D-17  0.14327002D-17  0.96357376D-17 -0.71511774D-19
  0.43439398D-05  0.96356933D-17 -0.71571226D-19 -0.65159098D-05 -0.38542906D-16
  0.28610655D-18 -0.65159098D-05  0.15970730D-21  0.63839870D-19 -0.10802235D-18
 -0.54133872D-06  0.63826474D-19 -0.10801751D-18  0.81200807D-06 -0.25534608D-18
  0.43208456D-18  0.81200807D-06  0.53477129D-22
MO    2     MO 0.0        OCC NO =    2.0000000  ORB. ENERGY =  -59.086569
  0.57566613D-04  0.10731726D-03  0.18138507D-03  0.27268117D-03  0.33502032D-03
  0.28297822D-03  0.10672897D-03 -0.52820765D-06 -0.33191361D-04 -0.62144700D-04
 -0.10580667D-03 -0.16366683D-03 -0.21554346D-03 -0.22396346D-03 -0.14231872D-03
  0.95378699D-04 -0.24698743D-03  0.15577048D-03  0.40551566D-04 -0.20093260D-15
 -0.18838708D-15 -0.13414282D-15 -0.19711250D-15 -0.18480550D-15 -0.13159252D-15
 -0.43546978D-03 -0.40828060D-03 -0.29072011D-03 -0.17944866D-16  0.21689452D-16
  0.55509586D-03 -0.19351537D-17  0.21353873D-16  0.30758216D-03  0.57594257D-18
 -0.17323214D-18  0.99621082D-05  0.26345266D-04  0.26345266D-04 -0.52690533D-04
 -0.30261512D-19 -0.76735715D-18  0.32242391D-16 -0.15123683D-03 -0.15123683D-03
  0.30247365D-03  0.45345872D-20  0.80145646D-18  0.13588518D-16 -0.21109707D-04
 -0.21109707D-04  0.42219415D-04 -0.12458287D-21  0.17638916D-17  0.60256577D-17
  0.14581938D-17  0.51741266D-17  0.23879046D-04  0.14586460D-17  0.51731947D-17
 -0.35818569D-04 -0.58332274D-17 -0.20695575D-16 -0.35818569D-04 -0.70099211D-20
 -0.72917384D-18 -0.22273381D-17  0.43641617D-04 -0.72972061D-18 -0.22267090D-17
 -0.65462426D-04  0.29172421D-17  0.89087234D-17 -0.65462426D-04  0.23670467D-20
 -0.39770333D-03 -0.74309013D-03 -0.12887967D-02 -0.21113783D-02 -0.33062508D-02
 -0.49651070D-02 -0.70816642D-02 -0.93563130D-02 -0.10790129D-01 -0.97114620D-02
 -0.54483717D-02 -0.13171730D-02 -0.62532845D-04  0.10701249D-05 -0.30098003D-06
  0.11729144D-06 -0.11094431D-07 -0.10939342D-08  0.24580982D+00  0.45266260D+00
  0.78570855D+00  0.12868434D+01  0.20254323D+01  0.30571219D+01  0.44563933D+01
  0.61195642D+01  0.77717686D+01  0.83697017D+01  0.66771908D+01  0.14956375D+01
 -0.39993010D+01 -0.35564760D+01 -0.69459419D+00 -0.19241688D-01 -0.13934176D-02
 -0.28457400D-04 -0.10008662D-02 -0.18069712D-02 -0.31455928D-02 -0.51510410D-02
 -0.81209095D-02 -0.12254229D-01 -0.17934976D-01 -0.24712040D-01 -0.31835729D-01
 -0.35041127D-01 -0.29498947D-01 -0.70247548D-02  0.23662075D-01  0.31617493D-01
  0.38842736D-02 -0.13572180D-01 -0.59912344D-02  0.29733419D-04  0.35149587D-03
  0.76151189D-03  0.12963742D-02  0.21161408D-02  0.33361867D-02  0.50344932D-02
  0.73684080D-02  0.10164257D-01  0.13110829D-01  0.14494231D-01  0.12275539D-01
  0.29818100D-02 -0.10345124D-01 -0.14600956D-01 -0.17420952D-02  0.81874465D-02
  0.65446790D-02 -0.24794340D-02  0.23730212D-02  0.13480584D-03  0.65731663D-05
  0.35824185D-15  0.51344366D-15  0.67802205D-15  0.77935216D-15  0.71695527D-15
  0.45865593D-15  0.15875861D-15  0.17848264D-16  0.22707342D-18  0.39347899D-19
  0.40209271D-21  0.94688560D-17  0.13571067D-16  0.17921114D-16  0.20599417D-16
  0.18950176D-16  0.12122947D-16  0.41962221D-17  0.47175570D-18  0.60018825D-20
  0.10400225D-20  0.10627898D-22 -0.18524295D-01 -0.26549610D-01 -0.35059779D-01
 -0.40299449D-01 -0.37072974D-01 -0.23716597D-01 -0.82092341D-02 -0.92291421D-03
 -0.11741718D-04 -0.20346369D-05 -0.20791775D-07  0.34236787D-15  0.49383867D-15
  0.65772922D-15  0.77839833D-15  0.74801157D-15  0.51414869D-15  0.16187702D-15
 -0.78233702D-16 -0.80286715D-16 -0.20219174D-16  0.22044603D-19  0.69751447D-15
  0.10061097D-14  0.13400079D-14  0.15858501D-14  0.15239423D-14  0.10474878D-14
  0.32979603D-15 -0.15938744D-15 -0.16357010D-15 -0.41193021D-16  0.44912012D-19
 -0.33429656D-01 -0.48219645D-01 -0.64222328D-01 -0.76004763D-01 -0.73037723D-01
 -0.50202766D-01 -0.15806078D-01  0.76389346D-02  0.78393960D-02  0.19742508D-02
 -0.21524903D-05 -0.11024823D-15 -0.15982543D-15 -0.21212829D-15 -0.25315482D-15
 -0.24322168D-15 -0.17024221D-15 -0.51403123D-16  0.31466380D-16  0.33841530D-16
  0.91010942D-17 -0.33925911D-17 -0.49161791D-15 -0.71269209D-15 -0.94592050D-15
 -0.11288656D-14 -0.10845719D-14 -0.75914249D-15 -0.22921633D-15  0.14031459D-15
  0.15090584D-15  0.40583515D-16 -0.15128211D-16  0.25888710D-01  0.37530526D-01
  0.49812386D-01  0.59446317D-01  0.57113799D-01  0.39976615D-01  0.12070584D-01
 -0.73889979D-02 -0.79467353D-02 -0.21371370D-02  0.79665498D-03  0.15112208D-16
  0.11925325D-16 -0.11311537D-03 -0.13168581D-17 -0.10720413D-16 -0.12595934D-03
 -0.57879985D-18 -0.68821887D-18 -0.50385694D-05 -0.34491436D-02 -0.35701932D-02
 -0.29870637D-02 -0.19275043D-02 -0.86586128D-03 -0.25281748D-03 -0.42651859D-04
 -0.34491436D-02 -0.35701932D-02 -0.29870637D-02 -0.19275043D-02 -0.86586128D-03
 -0.25281748D-03 -0.42651859D-04  0.68982872D-02  0.71403864D-02  0.59741274D-02
  0.38550086D-02  0.17317226D-02  0.50563496D-03  0.85303717D-04 -0.13106560D-15
 -0.13566542D-15 -0.11350681D-15 -0.73244126D-16 -0.32902263D-16 -0.96069282D-17
 -0.16207477D-17 -0.13089091D-14 -0.13548460D-14 -0.11335553D-14 -0.73146504D-15
 -0.32858410D-15 -0.95941238D-16 -0.16185875D-16 -0.13404172D-14 -0.13874599D-14
 -0.11608423D-14 -0.74907291D-15 -0.33649379D-15 -0.98250741D-16 -0.16575502D-16
  0.17570553D-03  0.17570553D-03 -0.35141106D-03  0.20662659D-18  0.96666511D-17
  0.22264946D-16  0.33524382D-04  0.33524382D-04 -0.67048763D-04 -0.28353909D-19
  0.66504076D-17  0.17693059D-16 -0.14415443D-04 -0.14415443D-04  0.28830886D-04
  0.19727968D-20  0.11384239D-17  0.20460431D-17  0.42168239D-17  0.36594540D-17
  0.12992982D-03  0.42161927D-17  0.36616020D-17 -0.19489473D-03 -0.16866664D-16
 -0.14639964D-16 -0.19489473D-03 -0.49665428D-20 -0.22860565D-18  0.23021295D-18
 -0.18239704D-04 -0.22817969D-18  0.22982652D-18  0.27359556D-04  0.91399663D-18
 -0.92046538D-18  0.27359556D-04  0.71971448D-21
MO    3     MO 0.0        OCC NO =    2.0000000  ORB. ENERGY =  -52.958208
  0.77380369D-16  0.14425460D-15  0.24381569D-15  0.36653485D-15  0.45033041D-15
  0.38037602D-15  0.14346384D-15 -0.71001055D-18 -0.12525699D-16 -0.23452061D-16
 -0.39929140D-16 -0.61764308D-16 -0.81341421D-16 -0.84518946D-16 -0.53707996D-16
  0.35993850D-16 -0.79485247D-16  0.12358440D-14  0.20974274D-15 -0.22069115D-04
 -0.20691198D-04 -0.14733366D-04  0.38863310D-04  0.36436823D-04  0.25945189D-04
  0.77956683D-16  0.73089345D-16  0.52043968D-16  0.20725012D-04 -0.36496369D-04
  0.48304413D-15  0.24994809D-04 -0.44015404D-04  0.46167905D-15  0.93800451D-06
 -0.16518088D-05  0.18264477D-16  0.17413280D-15 -0.17849536D-15  0.43625690D-17
 -0.43212243D-16 -0.57369844D-04  0.10102725D-03 -0.13428389D-15 -0.10161307D-15
  0.23589696D-15  0.28828251D-16  0.45411122D-04 -0.79968159D-04 -0.14882899D-16
 -0.12403591D-16  0.27286490D-16  0.22843502D-17  0.63848193D-05 -0.11243550D-04
  0.70717511D-05 -0.12453225D-04 -0.38528348D-16  0.70717510D-05 -0.12453225D-04
  0.56785189D-16 -0.28287004D-04  0.49812900D-04  0.58799855D-16 -0.46066049D-17
 -0.36803172D-05  0.64809716D-05  0.13530470D-16 -0.36803172D-05  0.64809716D-05
 -0.24196167D-16  0.14721269D-04 -0.25923886D-04 -0.16395242D-16 -0.21521878D-17
  0.10850909D-16  0.20274417D-16  0.35163436D-16  0.57606692D-16  0.90207505D-16
  0.13546762D-15  0.19321561D-15  0.25527696D-15  0.29439709D-15  0.26496682D-15
  0.14865298D-15  0.35937652D-16  0.17061416D-17 -0.29197211D-19  0.82119172D-20
 -0.32001710D-20  0.30269964D-21  0.29846822D-22  0.14750100D-15  0.27162539D-15
  0.47147344D-15  0.77218519D-15  0.12153840D-14  0.18344611D-14  0.26741100D-14
  0.36721148D-14  0.46635390D-14  0.50223357D-14  0.40067250D-14  0.89747445D-15
 -0.23998265D-14 -0.21341043D-14 -0.41679923D-15 -0.11546196D-16 -0.83613626D-18
 -0.17076190D-19  0.18309443D-16  0.33056004D-16  0.57544208D-16  0.94231070D-16
  0.14856065D-15  0.22417393D-15  0.32809523D-15  0.45207211D-15  0.58239001D-15
  0.64102826D-15  0.53964185D-15  0.12850804D-15 -0.43286447D-15 -0.57839768D-15
 -0.71057337D-16  0.24828399D-15  0.10960123D-15 -0.54393119D-18 -0.23462118D-17
 -0.50830418D-17 -0.86532128D-17 -0.14125101D-16 -0.22268827D-16 -0.33604911D-16
 -0.49183639D-16 -0.67845747D-16 -0.87513921D-16 -0.96748041D-16 -0.81938417D-16
 -0.19903386D-16  0.69053023D-16  0.97460423D-16  0.11628371D-16 -0.54650668D-16
 -0.43685302D-16  0.16550059D-16 -0.32602940D-16 -0.12323670D-14 -0.11605484D-15
 -0.24008934D+02 -0.34410370D+02 -0.45440214D+02 -0.52231235D+02 -0.48049471D+02
 -0.30738563D+02 -0.10639809D+02 -0.11961689D+01 -0.15218184D-01 -0.26370484D-02
 -0.26947765D-04  0.42279295D+02  0.60596034D+02  0.80019388D+02  0.91978253D+02
  0.84614243D+02  0.54130049D+02  0.18736509D+02  0.21064317D+01  0.26798946D-01
  0.46437942D-02  0.47454523D-04  0.60975090D-10  0.87391445D-10  0.11540376D-09
  0.13265080D-09  0.12203044D-09  0.78066218D-10  0.27021746D-10  0.30378904D-11
  0.38649371D-13  0.66972680D-14  0.68438791D-16  0.23574158D-02  0.34003866D-02
  0.45288750D-02  0.53597569D-02  0.51505251D-02  0.35402337D-02  0.11146240D-02
 -0.53868772D-03 -0.55282400D-03 -0.13922160D-03  0.15179081D-06 -0.41513663D-02
 -0.59880188D-02 -0.79752663D-02 -0.94384343D-02 -0.90699809D-02 -0.62342870D-02
 -0.19628326D-02  0.94861926D-03  0.97351299D-03  0.24516670D-03 -0.26730085D-06
 -0.39060706D-13 -0.56341991D-13 -0.75040243D-13 -0.88807367D-13 -0.85340545D-13
 -0.58659159D-13 -0.18468529D-13  0.89256731D-14  0.91599012D-14  0.23068030D-14
 -0.25150660D-17 -0.33219814D-02 -0.48158332D-02 -0.63918142D-02 -0.76280187D-02
 -0.73287151D-02 -0.51297099D-02 -0.15488703D-02  0.94813971D-03  0.10197073D-02
  0.27423265D-03 -0.10222499D-03  0.58499487D-02  0.84805946D-02  0.11255868D-01
  0.13432802D-01  0.12905734D-01  0.90333257D-02  0.27275324D-02 -0.16696568D-02
 -0.17956860D-02 -0.48291871D-03  0.18001634D-03  0.31639443D-13  0.45867290D-13
  0.60877355D-13  0.72651299D-13  0.69800652D-13  0.48856735D-13  0.14751857D-13
 -0.90303373D-14 -0.97119665D-14 -0.26118655D-14  0.97361825D-15  0.46698018D-03
 -0.82234359D-03 -0.16793110D-14 -0.74660425D-06  0.13147565D-05  0.25945230D-15
 -0.13268311D-05  0.23365253D-05  0.12409617D-17  0.17023291D-15  0.17620733D-15
  0.14742690D-15  0.95132215D-16  0.42734692D-16  0.12477838D-16  0.21050878D-17
 -0.10484285D-13 -0.10852237D-13 -0.90797114D-14 -0.58589922D-14 -0.26319394D-14
 -0.76848370D-15 -0.12964791D-15  0.10314053D-13  0.10676030D-13  0.89322845D-14
  0.57638600D-14  0.25892047D-14  0.75600587D-15  0.12754282D-15  0.30160989D-14
  0.31219505D-14  0.26120337D-14  0.16855035D-14  0.75715121D-15  0.22107590D-15
  0.37296859D-16 -0.25607855D-02 -0.26506577D-02 -0.22177184D-02 -0.14310581D-02
 -0.64285088D-03 -0.18770205D-03 -0.31666487D-04  0.45094966D-02  0.46677598D-02
  0.39053618D-02  0.25200673D-02  0.11320487D-02  0.33053990D-03  0.55764106D-04
  0.54229526D-16  0.38898426D-16 -0.93127952D-16 -0.37624044D-17  0.43012419D-05
 -0.75744086D-05  0.99749458D-16  0.94855582D-16 -0.19460504D-15  0.99643654D-18
  0.29647781D-04 -0.52209202D-04  0.70226459D-17  0.61446554D-17 -0.13167301D-16
 -0.46732333D-17  0.31118318D-05 -0.54798791D-05  0.37794937D-05 -0.66556195D-05
  0.84580872D-16  0.37794936D-05 -0.66556193D-05 -0.12618278D-15 -0.15117975D-04
  0.26622478D-04 -0.12755984D-15 -0.58538747D-17  0.13278652D-05 -0.23383465D-05
  0.15733373D-16  0.13278652D-05 -0.23383465D-05 -0.25695589D-16 -0.53114609D-05
  0.93533859D-05 -0.21504530D-16  0.17184025D-17
MO    4     MO 0.0        OCC NO =    2.0000000  ORB. ENERGY =  -52.958208
  0.28510445D-15  0.53149951D-15  0.89832780D-15  0.13504809D-14  0.16592219D-14
  0.14014781D-14  0.52858598D-15 -0.26160015D-17 -0.20810194D-15 -0.38963250D-15
 -0.66338267D-15 -0.10261521D-14 -0.13514062D-14 -0.14041976D-14 -0.89230457D-15
  0.59800177D-15  0.23407352D-16  0.57458016D-14  0.13146446D-14 -0.38863310D-04
 -0.36436823D-04 -0.25945189D-04 -0.22069115D-04 -0.20691198D-04 -0.14733366D-04
 -0.73229323D-15 -0.68657145D-15 -0.48887977D-15  0.36496369D-04  0.20725012D-04
  0.21902381D-14  0.44015404D-04  0.24994809D-04  0.19248297D-14  0.16518088D-05
  0.93800451D-06  0.87628462D-16 -0.37618765D-16  0.31782383D-16  0.58363819D-17
 -0.99767617D-16 -0.10102725D-03 -0.57369844D-04 -0.18047011D-15 -0.22401022D-15
  0.40448033D-15  0.11154282D-16  0.79968159D-04  0.45411122D-04 -0.40395570D-16
 -0.35784524D-16  0.76180094D-16 -0.51393800D-17  0.11243550D-04  0.63848193D-05
  0.12453225D-04  0.70717511D-05 -0.43125327D-15  0.12453225D-04  0.70717510D-05
  0.68769187D-15 -0.49812900D-04 -0.28287004D-04  0.60606795D-15  0.11453026D-16
 -0.64809716D-05 -0.36803172D-05 -0.60779286D-16 -0.64809716D-05 -0.36803172D-05
  0.88223572D-16  0.25923886D-04  0.14721269D-04  0.94114287D-16 -0.57768365D-17
  0.25229891D-16  0.47140875D-16  0.81759942D-16  0.13394367D-15  0.20974515D-15
  0.31498129D-15  0.44925350D-15  0.59355489D-15  0.68451469D-15  0.61608518D-15
  0.34563911D-15  0.83560103D-16  0.39670195D-17 -0.67887627D-19  0.19093864D-19
 -0.74408484D-20  0.70381930D-21  0.69398066D-22  0.99297657D-15  0.18285818D-14
  0.31739586D-14  0.51983497D-14  0.81819632D-14  0.12349590D-13  0.18002105D-13
  0.24720672D-13  0.31394939D-13  0.33810357D-13  0.26973268D-13  0.60417968D-14
 -0.16155629D-13 -0.14366787D-13 -0.28058919D-14 -0.77728977D-16 -0.56288682D-17
 -0.11495689D-18  0.10420131D-15  0.18812582D-15  0.32749123D-15  0.53628071D-15
  0.84547708D-15  0.12758017D-14  0.18672307D-14  0.25727985D-14  0.33144538D-14
  0.36481714D-14  0.30711687D-14  0.73135518D-15 -0.24634854D-14 -0.32917330D-14
 -0.40439612D-15  0.14130150D-14  0.62375420D-15 -0.30955799D-17 -0.61723502D-16
 -0.13372328D-15 -0.22764637D-15 -0.37159930D-15 -0.58584225D-15 -0.88406886D-15
 -0.12939098D-14 -0.17848675D-14 -0.23022924D-14 -0.25452211D-14 -0.21556136D-14
 -0.52361286D-15  0.18166281D-14  0.25639623D-14  0.30591601D-15 -0.14377349D-14
 -0.11492610D-14  0.43539444D-15  0.13530205D-14 -0.52836379D-14 -0.97599439D-15
 -0.42279295D+02 -0.60596034D+02 -0.80019388D+02 -0.91978253D+02 -0.84614243D+02
 -0.54130049D+02 -0.18736509D+02 -0.21064317D+01 -0.26798946D-01 -0.46437942D-02
 -0.47454523D-04 -0.24008934D+02 -0.34410370D+02 -0.45440214D+02 -0.52231235D+02
 -0.48049471D+02 -0.30738563D+02 -0.10639809D+02 -0.11961689D+01 -0.15218184D-01
 -0.26370484D-02 -0.26947765D-04  0.38039033D-09  0.54518755D-09  0.71994108D-09
  0.82753598D-09  0.76128137D-09  0.48701255D-09  0.16857393D-09  0.18951741D-10
  0.24111234D-12  0.41780602D-13  0.42695228D-15  0.41513663D-02  0.59880188D-02
  0.79752663D-02  0.94384343D-02  0.90699809D-02  0.62342870D-02  0.19628326D-02
 -0.94861926D-03 -0.97351299D-03 -0.24516670D-03  0.26730085D-06  0.23574158D-02
  0.34003866D-02  0.45288750D-02  0.53597569D-02  0.51505251D-02  0.35402337D-02
  0.11146240D-02 -0.53868772D-03 -0.55282400D-03 -0.13922160D-03  0.15179081D-06
 -0.14996324D-12 -0.21631015D-12 -0.28809714D-12 -0.34095236D-12 -0.32764242D-12
 -0.22520630D-12 -0.70905024D-13  0.34267758D-13  0.35167014D-13  0.88563593D-14
 -0.96559297D-17 -0.58499487D-02 -0.84805946D-02 -0.11255868D-01 -0.13432802D-01
 -0.12905734D-01 -0.90333257D-02 -0.27275324D-02  0.16696568D-02  0.17956860D-02
  0.48291871D-03 -0.18001634D-03 -0.33219814D-02 -0.48158332D-02 -0.63918142D-02
 -0.76280187D-02 -0.73287151D-02 -0.51297099D-02 -0.15488703D-02  0.94813971D-03
  0.10197073D-02  0.27423265D-03 -0.10222499D-03  0.13384420D-12  0.19403220D-12
  0.25752922D-12  0.30733648D-12  0.29527740D-12  0.20667844D-12  0.62404719D-13
 -0.38200997D-13 -0.41084491D-13 -0.11048963D-13  0.41186931D-14  0.82234359D-03
  0.46698018D-03 -0.99620103D-14 -0.13147565D-05 -0.74660425D-06  0.14036489D-14
 -0.23365253D-05 -0.13268311D-05  0.45231495D-16 -0.30938012D-14 -0.32023798D-14
 -0.26793263D-14 -0.17289263D-14 -0.77665733D-15 -0.22677137D-15 -0.38257720D-16
 -0.21815998D-14 -0.22581643D-14 -0.18893321D-14 -0.12191557D-14 -0.54766140D-15
 -0.15990827D-15 -0.26977504D-16  0.52754010D-14  0.54605441D-14  0.45686584D-14
  0.29480820D-14  0.13243187D-14  0.38667964D-15  0.65235224D-16 -0.23439779D-14
 -0.24262411D-14 -0.20299565D-14 -0.13098984D-14 -0.58842425D-15 -0.17181036D-15
 -0.28985460D-16 -0.45094966D-02 -0.46677598D-02 -0.39053618D-02 -0.25200673D-02