 Molden2AIM, Version 4.0.0 (06/02/2016)           Time: Sun Jul  1 16:11:12 2018
GAUSSIAN              5 MOL ORBITALS    102 PRIMITIVES        2 NUCLEI
  H    1    (CENTRE  1)   0.00000000  0.00000000  1.73657327  CHARGE =  1.0
  F    2    (CENTRE  2)   0.00000000  0.00000000 -0.00407236  CHARGE =  9.0
CENTRE ASSIGNMENTS    1  1  1  1  1  1  1  1  1  1  1  1  1  1  1  1  1  1  1  1
CENTRE ASSIGNMENTS    1  1  1  1  1  1  1  2  2  2  2  2  2  2  2  2  2  2  2  2
CENTRE ASSIGNMENTS    2  2  2  2  2  2  2  2  2  2  2  2  2  2  2  2  2  2  2  2
CENTRE ASSIGNMENTS    2  2  2  2  2  2  2  2  2  2  2  2  2  2  2  2  2  2  2  2
CENTRE ASSIGNMENTS    2  2  2  2  2  2  2  2  2  2  2  2  2  2  2  2  2  2  2  2
CENTRE ASSIGNMENTS    2  2
TYPE ASSIGNMENTS      1  1  1  1  1  1  2  3  4  2  3  4  2  3  4  5  6  7  8  9
TYPE ASSIGNMENTS     10  5  6  7  8  9 10  1  1  1  1  1  1  1  1  1  1  1  1  1
TYPE ASSIGNMENTS      1  1  1  1  1  1  2  2  2  3  3  3  4  4  4  2  3  4  2  3
TYPE ASSIGNMENTS      4  2  3  4  5  6  7  8  9 10  5  6  7  8  9 10  5  6  7  8
TYPE ASSIGNMENTS      9 10 11 12 13 17 14 15 18 19 16 20 11 12 13 17 14 15 18 19
TYPE ASSIGNMENTS     16 20
EXPONENTS  0.3387000D+02 0.5095000D+01 0.1159000D+01 0.3258000D+00 0.1027000D+00
EXPONENTS  0.2526000D-01 0.1407000D+01 0.1407000D+01 0.1407000D+01 0.3880000D+00
EXPONENTS  0.3880000D+00 0.3880000D+00 0.1020000D+00 0.1020000D+00 0.1020000D+00
EXPONENTS  0.1057000D+01 0.1057000D+01 0.1057000D+01 0.1057000D+01 0.1057000D+01
EXPONENTS  0.1057000D+01 0.2470000D+00 0.2470000D+00 0.2470000D+00 0.2470000D+00
EXPONENTS  0.2470000D+00 0.2470000D+00 0.1950000D+05 0.2923000D+04 0.6645000D+03
EXPONENTS  0.1875000D+03 0.6062000D+02 0.2142000D+02 0.7950000D+01 0.8815000D+00
EXPONENTS  0.1950000D+05 0.2923000D+04 0.6645000D+03 0.1875000D+03 0.6062000D+02
EXPONENTS  0.2142000D+02 0.7950000D+01 0.8815000D+00 0.2257000D+01 0.3041000D+00
EXPONENTS  0.9158000D-01 0.4388000D+02 0.9926000D+01 0.2930000D+01 0.4388000D+02
EXPONENTS  0.9926000D+01 0.2930000D+01 0.4388000D+02 0.9926000D+01 0.2930000D+01
EXPONENTS  0.9132000D+00 0.9132000D+00 0.9132000D+00 0.2672000D+00 0.2672000D+00
EXPONENTS  0.2672000D+00 0.7361000D-01 0.7361000D-01 0.7361000D-01 0.3107000D+01
EXPONENTS  0.3107000D+01 0.3107000D+01 0.3107000D+01 0.3107000D+01 0.3107000D+01
EXPONENTS  0.8550000D+00 0.8550000D+00 0.8550000D+00 0.8550000D+00 0.8550000D+00
EXPONENTS  0.8550000D+00 0.2920000D+00 0.2920000D+00 0.2920000D+00 0.2920000D+00
EXPONENTS  0.2920000D+00 0.2920000D+00 0.1917000D+01 0.1917000D+01 0.1917000D+01
EXPONENTS  0.1917000D+01 0.1917000D+01 0.1917000D+01 0.1917000D+01 0.1917000D+01
EXPONENTS  0.1917000D+01 0.1917000D+01 0.7240000D+00 0.7240000D+00 0.7240000D+00
EXPONENTS  0.7240000D+00 0.7240000D+00 0.7240000D+00 0.7240000D+00 0.7240000D+00
EXPONENTS  0.7240000D+00 0.7240000D+00
MO    1     MO 0.0        OCC NO =    2.0000000  ORB. ENERGY =  -25.284579
  0.17749816D-03  0.32012525D-03  0.47202449D-03 -0.40921373D-03 -0.58934197D-05
  0.59253713D-05 -0.14489156D-15 -0.33864370D-17 -0.98842292D-03 -0.11159231D-15
 -0.70104046D-16  0.11455307D-03 -0.15319218D-16 -0.60951123D-17 -0.52299548D-05
  0.15337424D-03  0.15337424D-03 -0.30674849D-03  0.15873053D-15 -0.27498104D-15
 -0.82769669D-16 -0.21510664D-04 -0.21510664D-04  0.43021329D-04  0.33705266D-17
  0.53617446D-16  0.28148541D-16  0.59433302D+00  0.11078625D+01  0.18780993D+01
  0.28439959D+01  0.35564268D+01  0.30617522D+01  0.11770493D+01 -0.51003474D-02
  0.61296413D-03  0.11510381D-02  0.19600193D-02  0.30703587D-02  0.41146418D-02
  0.44258521D-02  0.26572758D-02 -0.17475363D-02  0.62238765D-01  0.11261780D-02
 -0.50902332D-04  0.91120383D-16  0.89113744D-16  0.58881219D-16 -0.15793178D-15
 -0.15445383D-15 -0.10205418D-15  0.79038719D-02  0.77298140D-02  0.51074150D-02
 -0.78893903D-16  0.31452784D-16 -0.10351057D-02  0.97754960D-16  0.57780660D-16
  0.27561309D-03  0.45278566D-17  0.20232201D-17  0.13046776D-05 -0.84898121D-03
 -0.84898121D-03  0.16979624D-02 -0.29983329D-16 -0.54820948D-16 -0.50526708D-16
  0.29828528D-03  0.29828528D-03 -0.59657056D-03 -0.13291028D-15 -0.31257203D-16
  0.49442818D-16 -0.37851573D-04 -0.37851573D-04  0.75703145D-04  0.10877389D-16
  0.75665140D-16  0.40250532D-16  0.47465978D-16  0.23208407D-17 -0.11697453D-03
  0.47270408D-16  0.22409164D-17  0.17546180D-03 -0.18966834D-15 -0.92034385D-17
  0.17546180D-03  0.61742170D-16 -0.19218114D-16 -0.51071611D-17 -0.13373294D-03
 -0.19214232D-16 -0.50840681D-17  0.20059942D-03  0.76868575D-16  0.20405551D-16
  0.20059942D-03 -0.57987980D-16
MO    2     MO 0.0        OCC NO =    2.0000000  ORB. ENERGY =   -1.370406
 -0.23054937D-01 -0.41580528D-01 -0.61310464D-01 -0.12459777D-01  0.30676697D-02
  0.38326437D-04  0.20812979D-16  0.10481110D-15  0.33339193D-01  0.43548234D-17
 -0.18200806D-16  0.29264335D-02  0.36732710D-18 -0.11509378D-16 -0.55564886D-03
  0.28506588D-02  0.28506588D-02 -0.57013175D-02  0.51365948D-16  0.11290924D-16
  0.25892959D-16  0.17302668D-03  0.17302668D-03 -0.34605335D-03  0.19101276D-17
  0.20648755D-16  0.11793523D-16  0.54929231D-02  0.10239047D-01  0.17357701D-01
  0.26284675D-01  0.32869079D-01  0.28297215D-01  0.10878483D-01 -0.47138245D-04
  0.12639227D+00  0.23734230D+00  0.40415300D+00  0.63310329D+00  0.84843288D+00
  0.91260396D+00  0.54792622D+00 -0.36033933D+00 -0.20860507D+00 -0.99417378D-01
 -0.43512242D-02 -0.63765097D-16 -0.62360872D-16 -0.41204465D-16  0.25683566D-15
  0.25117966D-15  0.16596502D-15 -0.30390080D+00 -0.29720835D+00 -0.19637812D+00
 -0.20348460D-16  0.16280360D-16 -0.73550444D-01  0.12008288D-16  0.30138352D-16
 -0.93654823D-02 -0.83290858D-18  0.40369552D-17 -0.27045572D-03  0.18984193D-01
  0.18984193D-01 -0.37968387D-01 -0.69769918D-17  0.67135259D-17 -0.16805106D-16
  0.54806172D-02  0.54806172D-02 -0.10961234D-01 -0.18931999D-16  0.23898736D-16
 -0.77004597D-17  0.61646463D-03  0.61646463D-03 -0.12329293D-02  0.71751536D-18
  0.11511825D-16  0.21608278D-16 -0.77590602D-17 -0.10558762D-16 -0.74964233D-02
 -0.47444309D-17  0.19512734D-17  0.11244635D-01  0.28021611D-16  0.29725012D-16
  0.11244635D-01  0.89229809D-17  0.51686240D-17  0.37988737D-17 -0.73166273D-03
  0.53955362D-17  0.17451017D-17  0.10974941D-02 -0.20901408D-16 -0.13141723D-16
  0.10974941D-02 -0.90223892D-17
MO    3     MO 0.0        OCC NO =    2.0000000  ORB. ENERGY =   -0.648143
  0.41321189D-01  0.74524466D-01  0.10988628D+00  0.85785961D-01  0.10765995D-01
  0.78469986D-04  0.15202605D-16 -0.69640837D-17 -0.29546514D-01  0.41387490D-17
 -0.12208621D-16 -0.24994745D-01  0.60884536D-18 -0.62678534D-17 -0.88135837D-03
 -0.49184554D-02 -0.49184554D-02  0.98369108D-02 -0.10870116D-16 -0.10603632D-16
 -0.32096248D-16 -0.83897570D-03 -0.83897570D-03  0.16779514D-02 -0.17499728D-17
  0.91072598D-17 -0.13778196D-17 -0.76258464D-03 -0.14214908D-02 -0.24097764D-02
 -0.36491116D-02 -0.45632269D-02 -0.39285133D-02 -0.15102639D-02  0.65442209D-05
  0.35291324D-01  0.66270855D-01  0.11284784D+00  0.17677547D+00  0.23689993D+00
  0.25481781D+00  0.15299228D+00 -0.10061416D+00 -0.62228693D-01 -0.78264751D-01
 -0.84453103D-02  0.30068856D-15  0.29406684D-15  0.19430240D-15 -0.50871416D-15
 -0.49751133D-15 -0.32872677D-15  0.22149882D+01  0.21662101D+01  0.14313066D+01
  0.74514104D-16 -0.12471780D-15  0.48898014D+00  0.15252232D-16 -0.19786843D-16
  0.50455842D-01 -0.13692455D-18  0.40174624D-17  0.57784947D-03 -0.42463596D-01
 -0.42463596D-01  0.84927193D-01  0.12585212D-17  0.12122402D-16 -0.20057367D-17
 -0.95935106D-02 -0.95935106D-02  0.19187021D-01  0.15101713D-16  0.28608119D-17
 -0.36104341D-16  0.31110018D-03  0.31110018D-03 -0.62220036D-03 -0.12175835D-17
  0.76399413D-17  0.18642098D-17 -0.31282420D-17 -0.20233923D-17  0.19418364D-01
  0.23884479D-18 -0.96358829D-19 -0.29127545D-01  0.91458812D-17  0.61665357D-17
 -0.29127545D-01 -0.19138990D-16  0.11797300D-17  0.48769687D-17  0.13948052D-02
  0.12583323D-17  0.44056705D-17 -0.20922078D-02 -0.47975224D-17 -0.19036577D-16
 -0.20922078D-02  0.12482524D-16
MO    4     MO 0.0        OCC NO =    2.0000000  ORB. ENERGY =   -0.517586
  0.72455862D-17  0.13067713D-16  0.19268335D-16  0.24930685D-15  0.10964581D-15
  0.22522772D-17 -0.51004939D-02  0.27482376D-01 -0.15234683D-16 -0.17798315D-02
  0.95900511D-02 -0.14917004D-15 -0.15670555D-03  0.84435759D-03 -0.16941578D-16
  0.63127115D-18 -0.45166268D-16  0.44534997D-16 -0.17960270D-16  0.32554457D-02
 -0.17540925D-01 -0.10142127D-16 -0.14033774D-16  0.24175901D-16 -0.33756837D-17
  0.41659507D-04 -0.22446890D-03  0.13053203D-16  0.24331737D-16  0.41248275D-16
  0.62462045D-16  0.78109007D-16  0.67244579D-16  0.25851271D-16 -0.11201779D-18
 -0.47402176D-17 -0.89012892D-17 -0.15157360D-16 -0.23743915D-16 -0.31819640D-16
 -0.34226313D-16 -0.20549433D-16  0.13514172D-16  0.53658732D-17 -0.28315120D-15
 -0.73647604D-16 -0.47341421D+00 -0.46298876D+00 -0.30591625D+00  0.25508407D+01
  0.24946665D+01  0.16483316D+01  0.45615265D-15  0.44610733D-15  0.29476198D-15
 -0.10771770D+00  0.58040229D+00  0.49427344D-16 -0.16749199D-01  0.90247685D-01
 -0.12082603D-15 -0.35894800D-03  0.19340762D-02 -0.12447940D-16  0.14287503D-16
 -0.35481180D-16  0.21193678D-16 -0.10928078D-15 -0.14515747D-01  0.78213445D-01
 -0.15031419D-16  0.47532484D-16 -0.32501065D-16  0.50065277D-16 -0.46202920D-02
  0.24894962D-01  0.22895045D-16  0.29192493D-17 -0.25814294D-16 -0.28109523D-16
 -0.61382152D-03  0.33073804D-02  0.15937982D-02 -0.85876707D-02 -0.35731637D-16
  0.15937992D-02 -0.85876758D-02  0.79586882D-16 -0.63751939D-02  0.34350688D-01
  0.27608029D-16 -0.63370542D-16  0.17933789D-03 -0.96630470D-03 -0.26486395D-17
  0.17933781D-03 -0.96630429D-03 -0.12796181D-17 -0.71735148D-03  0.38652184D-02
  0.92255367D-17  0.82031948D-16
MO    5     MO 0.0        OCC NO =    2.0000000  ORB. ENERGY =   -0.517586
 -0.43183795D-17 -0.77883752D-17 -0.11483955D-16  0.70285820D-16  0.14859918D-15
  0.64410345D-17  0.27482376D-01  0.51004939D-02  0.20807775D-16  0.95900511D-02
  0.17798315D-02 -0.63048726D-16  0.84435759D-03  0.15670555D-03 -0.33163046D-16
  0.20368290D-16 -0.40122518D-16  0.19754228D-16  0.17568003D-16 -0.17540925D-01
 -0.32554457D-02  0.40787426D-17  0.21529241D-18 -0.42940350D-17  0.24572566D-17
 -0.22446890D-03 -0.41659507D-04  0.17423945D-17  0.32478989D-17  0.55059870D-17
  0.83376871D-17  0.10426307D-16  0.89760791D-17  0.34507325D-17 -0.14952589D-19
 -0.34853642D-17 -0.65448968D-17 -0.11144830D-16 -0.17458311D-16 -0.23396191D-16
 -0.25165757D-16 -0.15109488D-16  0.99366348D-17  0.12821804D-16 -0.67329138D-16
 -0.15277937D-15  0.25508407D+01  0.24946665D+01  0.16483316D+01  0.47341421D+00
  0.46298876D+00  0.30591625D+00 -0.11047116D-15 -0.10803838D-15 -0.71385526D-16
  0.58040229D+00  0.10771770D+00 -0.45674610D-17  0.90247685D-01  0.16749199D-01
 -0.86681092D-16  0.19340762D-02  0.35894800D-03 -0.13069151D-16 -0.52536725D-16
  0.51751977D-16  0.78474817D-18  0.88958778D-16  0.78213445D-01  0.14515747D-01
 -0.49069442D-17 -0.61374248D-17  0.11044369D-16 -0.94171765D-17  0.24894962D-01
  0.46202920D-02  0.19774776D-17  0.86897429D-17 -0.10667221D-16  0.13938477D-16
  0.33073804D-02  0.61382152D-03 -0.85876707D-02 -0.15937982D-02  0.46049823D-17
 -0.85876758D-02 -0.15937992D-02  0.18146989D-15  0.34350688D-01  0.63751939D-02
 -0.19528484D-15  0.16359735D-16 -0.96630470D-03 -0.17933789D-03 -0.91715855D-17
 -0.96630429D-03 -0.17933781D-03 -0.40791994D-16  0.38652184D-02  0.71735148D-03
  0.68306751D-16 -0.23838231D-16
END DATA
RHF
