 Molden2AIM, Version 4.0.0 (06/02/2016)           Time: Sun Jul  1 16:17:10 2018
GAUSSIAN             10 MOL ORBITALS    208 PRIMITIVES        2 NUCLEI
  Li   1    (CENTRE  1)   0.00000000  0.00000000  3.38620969  CHARGE =  3.0
  Cl   2    (CENTRE  2)   0.00000000  0.00000000 -0.43086701  CHARGE = 17.0
CENTRE ASSIGNMENTS    1  1  1  1  1  1  1  1  1  1  1  1  1  1  1  1  1  1  1  1
CENTRE ASSIGNMENTS    1  1  1  1  1  1  1  1  1  1  1  1  1  1  1  1  1  1  1  1
CENTRE ASSIGNMENTS    1  1  1  1  1  1  1  1  1  1  1  1  1  1  1  1  1  1  1  1
CENTRE ASSIGNMENTS    1  1  1  1  1  1  1  1  1  1  1  1  1  1  1  1  1  2  2  2
CENTRE ASSIGNMENTS    2  2  2  2  2  2  2  2  2  2  2  2  2  2  2  2  2  2  2  2
CENTRE ASSIGNMENTS    2  2  2  2  2  2  2  2  2  2  2  2  2  2  2  2  2  2  2  2
CENTRE ASSIGNMENTS    2  2  2  2  2  2  2  2  2  2  2  2  2  2  2  2  2  2  2  2
CENTRE ASSIGNMENTS    2  2  2  2  2  2  2  2  2  2  2  2  2  2  2  2  2  2  2  2
CENTRE ASSIGNMENTS    2  2  2  2  2  2  2  2  2  2  2  2  2  2  2  2  2  2  2  2
CENTRE ASSIGNMENTS    2  2  2  2  2  2  2  2  2  2  2  2  2  2  2  2  2  2  2  2
CENTRE ASSIGNMENTS    2  2  2  2  2  2  2  2
TYPE ASSIGNMENTS      1  1  1  1  1  1  1  1  1  1  1  1  1  1  1  1  1  1  1  1
TYPE ASSIGNMENTS      1  2  2  2  3  3  3  4  4  4  2  3  4  2  3  4  2  3  4  5
TYPE ASSIGNMENTS      6  7  8  9 10  5  6  7  8  9 10  5  6  7  8  9 10 11 12 13
TYPE ASSIGNMENTS     17 14 15 18 19 16 20 11 12 13 17 14 15 18 19 16 20  1  1  1
TYPE ASSIGNMENTS      1  1  1  1  1  1  1  1  1  1  1  1  1  1  1  1  1  1  1  1
TYPE ASSIGNMENTS      1  1  1  1  1  1  1  1  1  1  1  1  1  1  1  1  1  1  1  2
TYPE ASSIGNMENTS      2  2  2  2  2  2  3  3  3  3  3  3  3  4  4  4  4  4  4  4
TYPE ASSIGNMENTS      2  2  2  2  2  2  2  3  3  3  3  3  3  3  4  4  4  4  4  4
TYPE ASSIGNMENTS      4  2  3  4  2  3  4  2  3  4  5  6  7  8  9 10  5  6  7  8
TYPE ASSIGNMENTS      9 10  5  6  7  8  9 10 11 12 13 17 14 15 18 19 16 20 11 12
TYPE ASSIGNMENTS     13 17 14 15 18 19 16 20
EXPONENTS  0.5988000D+04 0.8989000D+03 0.2059000D+03 0.5924000D+02 0.1987000D+02
EXPONENTS  0.7406000D+01 0.2930000D+01 0.1189000D+01 0.4798000D+00 0.5988000D+04
EXPONENTS  0.8989000D+03 0.2059000D+03 0.5924000D+02 0.1987000D+02 0.7406000D+01
EXPONENTS  0.2930000D+01 0.1189000D+01 0.4798000D+00 0.7509000D-01 0.2832000D-01
EXPONENTS  0.7600000D-02 0.3266000D+01 0.6511000D+00 0.1696000D+00 0.3266000D+01
EXPONENTS  0.6511000D+00 0.1696000D+00 0.3266000D+01 0.6511000D+00 0.1696000D+00
EXPONENTS  0.5578000D-01 0.5578000D-01 0.5578000D-01 0.2050000D-01 0.2050000D-01
EXPONENTS  0.2050000D-01 0.9100000D-02 0.9100000D-02 0.9100000D-02 0.1874000D+00
EXPONENTS  0.1874000D+00 0.1874000D+00 0.1874000D+00 0.1874000D+00 0.1874000D+00
EXPONENTS  0.8010000D-01 0.8010000D-01 0.8010000D-01 0.8010000D-01 0.8010000D-01
EXPONENTS  0.8010000D-01 0.3710000D-01 0.3710000D-01 0.3710000D-01 0.3710000D-01
EXPONENTS  0.3710000D-01 0.3710000D-01 0.1829000D+00 0.1829000D+00 0.1829000D+00
EXPONENTS  0.1829000D+00 0.1829000D+00 0.1829000D+00 0.1829000D+00 0.1829000D+00
EXPONENTS  0.1829000D+00 0.1829000D+00 0.8160000D-01 0.8160000D-01 0.8160000D-01
EXPONENTS  0.8160000D-01 0.8160000D-01 0.8160000D-01 0.8160000D-01 0.8160000D-01
EXPONENTS  0.8160000D-01 0.8160000D-01 0.4561000D+06 0.6833000D+05 0.1555000D+05
EXPONENTS  0.4405000D+04 0.1439000D+04 0.5204000D+03 0.2031000D+03 0.8396000D+02
EXPONENTS  0.3620000D+02 0.1583000D+02 0.6334000D+01 0.2694000D+01 0.4313000D+00
EXPONENTS  0.4561000D+06 0.6833000D+05 0.1555000D+05 0.4405000D+04 0.1439000D+04
EXPONENTS  0.5204000D+03 0.2031000D+03 0.8396000D+02 0.3620000D+02 0.1583000D+02
EXPONENTS  0.6334000D+01 0.2694000D+01 0.4313000D+00 0.4561000D+06 0.6833000D+05
EXPONENTS  0.1555000D+05 0.4405000D+04 0.1439000D+04 0.5204000D+03 0.2031000D+03
EXPONENTS  0.8396000D+02 0.3620000D+02 0.1583000D+02 0.6334000D+01 0.2694000D+01
EXPONENTS  0.4313000D+00 0.9768000D+00 0.1625000D+00 0.5910000D-01 0.6633000D+03
EXPONENTS  0.1568000D+03 0.4998000D+02 0.1842000D+02 0.7240000D+01 0.2922000D+01
EXPONENTS  0.3818000D+00 0.6633000D+03 0.1568000D+03 0.4998000D+02 0.1842000D+02
EXPONENTS  0.7240000D+01 0.2922000D+01 0.3818000D+00 0.6633000D+03 0.1568000D+03
EXPONENTS  0.4998000D+02 0.1842000D+02 0.7240000D+01 0.2922000D+01 0.3818000D+00
EXPONENTS  0.6633000D+03 0.1568000D+03 0.4998000D+02 0.1842000D+02 0.7240000D+01
EXPONENTS  0.2922000D+01 0.3818000D+00 0.6633000D+03 0.1568000D+03 0.4998000D+02
EXPONENTS  0.1842000D+02 0.7240000D+01 0.2922000D+01 0.3818000D+00 0.6633000D+03
EXPONENTS  0.1568000D+03 0.4998000D+02 0.1842000D+02 0.7240000D+01 0.2922000D+01
EXPONENTS  0.3818000D+00 0.1022000D+01 0.1022000D+01 0.1022000D+01 0.1301000D+00
EXPONENTS  0.1301000D+00 0.1301000D+00 0.4190000D-01 0.4190000D-01 0.4190000D-01
EXPONENTS  0.1046000D+01 0.1046000D+01 0.1046000D+01 0.1046000D+01 0.1046000D+01
EXPONENTS  0.1046000D+01 0.3440000D+00 0.3440000D+00 0.3440000D+00 0.3440000D+00
EXPONENTS  0.3440000D+00 0.3440000D+00 0.1350000D+00 0.1350000D+00 0.1350000D+00
EXPONENTS  0.1350000D+00 0.1350000D+00 0.1350000D+00 0.7060000D+00 0.7060000D+00
EXPONENTS  0.7060000D+00 0.7060000D+00 0.7060000D+00 0.7060000D+00 0.7060000D+00
EXPONENTS  0.7060000D+00 0.7060000D+00 0.7060000D+00 0.3120000D+00 0.3120000D+00
EXPONENTS  0.3120000D+00 0.3120000D+00 0.3120000D+00 0.3120000D+00 0.3120000D+00
EXPONENTS  0.3120000D+00 0.3120000D+00 0.3120000D+00
MO    1     MO 0.0        OCC NO =    2.0000000  ORB. ENERGY = -102.665009
 -0.83183140D-05 -0.15460720D-04 -0.26329341D-04 -0.41061243D-04 -0.57364893D-04
 -0.68380007D-04 -0.64824023D-04 -0.41169807D-04 -0.10110094D-04  0.60124794D-05
  0.11116866D-04  0.18746883D-04  0.29871463D-04  0.41638571D-04  0.53054313D-04
  0.52688409D-04  0.47526188D-04  0.27203102D-04  0.10847632D-03  0.87168062D-05
 -0.36829762D-06  0.17523971D-16  0.12858847D-16  0.10559208D-16  0.21577478D-16
  0.15833254D-16  0.13001681D-16 -0.74630236D-04 -0.54762633D-04 -0.44969041D-04
 -0.21711452D-17 -0.12806140D-16 -0.34584004D-04  0.24139862D-17  0.43811314D-17
  0.21533562D-05 -0.10325409D-17 -0.41149402D-18 -0.29416752D-06  0.64568318D-06
  0.64568318D-06 -0.12913664D-05  0.71230380D-22 -0.14315513D-18  0.10069084D-16
 -0.44439068D-05 -0.44439068D-05  0.88878135D-05  0.28095654D-22  0.14580228D-18
 -0.10472674D-17 -0.66011165D-07 -0.66011165D-07  0.13202233D-06 -0.10415775D-23
 -0.11198971D-17  0.40508210D-18  0.16185215D-18  0.80609980D-18  0.43361712D-05
  0.16197279D-18  0.80609702D-18 -0.65042569D-05 -0.64752924D-18 -0.32243964D-17
 -0.65042569D-05 -0.65263408D-22 -0.15279511D-18 -0.46246881D-19 -0.11680737D-05
 -0.15281743D-18 -0.46243766D-19  0.17521105D-05  0.61120275D-18  0.18498441D-18
  0.17521105D-05 -0.18066069D-22  0.61691807D+00  0.11542561D+01  0.19942988D+01
  0.32329909D+01  0.49095546D+01  0.68237036D+01  0.81123992D+01  0.72259012D+01
  0.35871537D+01  0.57794794D+00  0.88730403D-02  0.15856036D-02  0.59251532D-04
 -0.46102761D-03 -0.86113337D-03 -0.14945387D-02 -0.24250290D-02 -0.37536569D-02
 -0.53730188D-02 -0.70134679D-02 -0.74740203D-02 -0.55869819D-02 -0.29492685D-03
  0.37896636D-02  0.22514956D-02 -0.84414205D-05  0.18083612D-03  0.33750455D-03
  0.58655321D-03  0.95063020D-03  0.14764775D-02  0.21150967D-02  0.27927881D-02
  0.30198323D-02  0.23675877D-02  0.11781038D-03 -0.20296213D-02 -0.21010343D-02
  0.95074773D-03 -0.16026113D-02 -0.41043870D-03 -0.39757122D-04  0.39953239D-16
  0.52627382D-16  0.58060331D-16  0.48225779D-16  0.25613883D-16  0.66065675D-17
 -0.67913268D-20 -0.19242837D-15 -0.25347135D-15 -0.27963828D-15 -0.23227174D-15
 -0.12336516D-15 -0.31819474D-16  0.32709337D-19  0.16172421D-02  0.21302708D-02
  0.23501878D-02  0.19521011D-02  0.10368083D-02  0.26742311D-03 -0.27490186D-06
 -0.12339211D-17 -0.16200480D-17 -0.18445438D-17 -0.15618839D-17 -0.89470725D-18
 -0.20351486D-18  0.95256155D-19  0.13035873D-15  0.17115146D-15  0.19486853D-15
  0.16500666D-15  0.94522170D-16  0.21500514D-16 -0.10063424D-16 -0.12083746D-02
 -0.15865072D-02 -0.18063552D-02 -0.15295474D-02 -0.87618363D-03 -0.19930138D-03
  0.93284014D-04 -0.72855430D-17  0.79974291D-17 -0.95685556D-04 -0.62296444D-17
  0.16151020D-16 -0.82428262D-04 -0.17159214D-17 -0.29355610D-17 -0.27667000D-06
 -0.19209455D-04 -0.19209455D-04  0.38418909D-04 -0.76079317D-19  0.88762925D-17
 -0.27928550D-16  0.34978400D-05  0.34978400D-05 -0.69956801D-05  0.11517403D-20
  0.43355161D-17 -0.27760714D-17  0.45093743D-05  0.45093743D-05 -0.90187486D-05
 -0.44657244D-21 -0.60125913D-18  0.25503733D-17  0.44548303D-18  0.17848923D-17
  0.28826537D-04  0.45018572D-18  0.17814889D-17 -0.43239806D-04 -0.17866348D-17
 -0.71361660D-17 -0.43239806D-04  0.21179976D-19 -0.93392726D-18 -0.13792567D-17
 -0.10693285D-04 -0.93456608D-18 -0.13793738D-17  0.16039927D-04  0.37363479D-17
  0.55171439D-17  0.16039927D-04 -0.24049050D-20
MO    2     MO 0.0        OCC NO =    2.0000000  ORB. ENERGY =   -9.788426
 -0.22979554D-04 -0.42710634D-04 -0.72735475D-04 -0.11343273D-03 -0.15847198D-03
 -0.18890151D-03 -0.17907802D-03 -0.11373264D-03 -0.27929392D-04  0.19051916D-04
  0.35226333D-04  0.59403788D-04  0.94654565D-04  0.13194134D-03  0.16811473D-03
  0.16695528D-03  0.15059760D-03  0.86199250D-04  0.26571769D-03  0.26696669D-05
 -0.44576188D-06  0.94276470D-17  0.69178767D-17  0.56807035D-17 -0.10003970D-16
 -0.73407748D-17 -0.60279717D-17 -0.16904179D-03 -0.12404052D-03 -0.10185747D-03
  0.29184300D-17  0.11573612D-16 -0.86776286D-04 -0.22446825D-17 -0.38427256D-17
  0.80266573D-05  0.50590034D-18  0.70765222D-18 -0.10560362D-05  0.11584783D-04
  0.11584783D-04 -0.23169567D-04  0.42821033D-20  0.13200011D-17 -0.40604695D-17
 -0.13191972D-04 -0.13191972D-04  0.26383944D-04 -0.67471812D-20 -0.44402354D-18
  0.75614102D-18  0.11139757D-06  0.11139757D-06 -0.22279513D-06 -0.43831006D-21
  0.51365167D-18  0.75139325D-19 -0.32005057D-18 -0.22559417D-18  0.15756811D-04
 -0.32736653D-18 -0.22599105D-18 -0.23635216D-04  0.12875183D-17  0.90277357D-18
 -0.23635216D-04 -0.16146860D-19  0.10545465D-18  0.28560856D-19 -0.34398081D-05
  0.10671221D-18  0.28312954D-19  0.51597121D-05 -0.42307618D-18 -0.11399552D-18
  0.51597121D-05  0.66583028D-20  0.17484347D-02  0.32713280D-02  0.56521301D-02
  0.91627620D-02  0.13914385D-01  0.19339359D-01  0.22991708D-01  0.20479245D-01
  0.10166510D-01  0.16379877D-02  0.25147475D-04  0.44938290D-05  0.16792738D-06
  0.17030682D+00  0.31810869D+00  0.55209305D+00  0.89582266D+00  0.13866271D+01
  0.19848307D+01  0.25908240D+01  0.27609553D+01  0.20638702D+01  0.10894804D+00
 -0.13999282D+01 -0.83171821D+00  0.31183197D-02  0.63814191D-03  0.11909999D-02
  0.20698531D-02  0.33546229D-02  0.52102546D-02  0.74638400D-02  0.98553053D-02
  0.10656508D-01  0.83548407D-02  0.41573411D-03 -0.71622109D-02 -0.74142160D-02
  0.33550376D-02 -0.65565123D-01 -0.16591729D-02  0.36014553D-05  0.64693199D-15
  0.85215462D-15  0.94012617D-15  0.78088285D-15  0.41474585D-15  0.10697505D-15
 -0.10996672D-18 -0.28300156D-14 -0.37277657D-14 -0.41125989D-14 -0.34159861D-14
 -0.18143132D-14 -0.46796430D-15  0.48105139D-18 -0.12829714D-01 -0.16899613D-01
 -0.18644232D-01 -0.15486177D-01 -0.82250850D-02 -0.21214894D-02  0.21808189D-05
 -0.25476795D-16 -0.33449164D-16 -0.38084334D-16 -0.32248249D-16 -0.18473039D-16
 -0.42019754D-17  0.19667558D-17 -0.13573606D-15 -0.17821150D-15 -0.20290690D-15
 -0.17181323D-15 -0.98421235D-16 -0.22387416D-16  0.10478543D-16 -0.42733759D-02
 -0.56106293D-02 -0.63881142D-02 -0.54091927D-02 -0.30985939D-02 -0.70482260D-03
  0.32989577D-03  0.58937562D-17 -0.64941350D-17 -0.66875979D-03 -0.16991482D-18
 -0.34474817D-17 -0.22187902D-03  0.21125696D-17  0.71707924D-18  0.32035886D-05
  0.29725440D-04  0.29725440D-04 -0.59450879D-04  0.10261420D-16  0.48685076D-17
  0.30299213D-16 -0.42221092D-05 -0.42221092D-05  0.84442184D-05 -0.97533437D-18
 -0.18675171D-17  0.53397654D-17  0.13318436D-04  0.13318436D-04 -0.26636873D-04
  0.96395345D-19  0.13828759D-17  0.78015863D-18 -0.15347982D-18 -0.80762421D-18
  0.60112824D-04 -0.44327043D-18 -0.73107963D-18 -0.90169236D-04  0.90370990D-18
  0.31539523D-17 -0.90169236D-04 -0.10136885D-17  0.10591762D-18  0.88511484D-18
 -0.26271123D-04  0.14257750D-18  0.89530978D-18  0.39406684D-04 -0.46033036D-18
 -0.35506543D-17  0.39406684D-04  0.88916866D-19
MO    3     MO 0.0        OCC NO =    2.0000000  ORB. ENERGY =   -7.429319
  0.41437314D-04  0.77016896D-04  0.13115845D-03  0.20454477D-03  0.28576068D-03
  0.34063199D-03  0.32291801D-03  0.20508558D-03  0.50362985D-04 -0.37118670D-04
 -0.68631134D-04 -0.11573584D-03 -0.18441460D-03 -0.25706007D-03 -0.32753634D-03
 -0.32527740D-03 -0.29340789D-03 -0.16794119D-03 -0.30780814D-03 -0.11591722D-03
  0.39760366D-05 -0.60684597D-16 -0.44529516D-16 -0.36565985D-16  0.10718306D-15
  0.78649444D-16  0.64584003D-16 -0.68699162D-04 -0.50410493D-04 -0.41395225D-04
 -0.27023520D-16  0.11397240D-15  0.87446802D-04  0.28585456D-17 -0.13386951D-16
  0.59204165D-05 -0.82536131D-18  0.18298800D-17 -0.63127464D-06 -0.51156654D-04
 -0.51156654D-04  0.10231331D-03 -0.90780624D-20 -0.12139588D-16  0.65432846D-16
  0.32447733D-05  0.32447733D-05 -0.64895465D-05 -0.58462216D-20  0.22234425D-16
 -0.98223713D-16  0.10561173D-05  0.10561173D-05 -0.21122346D-05  0.48542065D-21
  0.33339380D-18  0.17192772D-17 -0.23747542D-17  0.11437608D-16 -0.23969623D-04
 -0.23738963D-17  0.11437160D-16  0.35954435D-04  0.94981591D-17 -0.45749985D-16
  0.35954435D-04  0.18110737D-19  0.10674423D-17 -0.52016433D-17  0.19179416D-08
  0.10673280D-17 -0.52015909D-17 -0.28769123D-08 -0.42696549D-17  0.20806521D-16
 -0.28769123D-08 -0.52065352D-22 -0.24231067D-04 -0.45336419D-04 -0.78331288D-04
 -0.12698415D-03 -0.19283557D-03 -0.26801876D-03 -0.31863565D-03 -0.28381612D-03
 -0.14089482D-03 -0.22700413D-04 -0.34851181D-06 -0.62278718D-07 -0.23272585D-08
  0.29828904D-03  0.55716110D-03  0.96698012D-03  0.15690158D-02  0.24286500D-02
  0.34763919D-02  0.45377773D-02  0.48357589D-02  0.36148280D-02  0.19082035D-03
 -0.24519467D-02 -0.14567381D-02  0.54616756D-05  0.96525495D-05  0.18015093D-04
  0.31308646D-04  0.50742104D-04  0.78810433D-04  0.11289822D-03  0.14907158D-03
  0.16119060D-03  0.12637552D-03  0.62884039D-05 -0.10833577D-03 -0.11214761D-03
  0.50748378D-04  0.11098878D-03 -0.50030392D-03  0.61597319D-03  0.37664797D-11
  0.49612990D-11  0.54734751D-11  0.45463502D-11  0.24146770D-11  0.62281564D-12
 -0.64023331D-15 -0.18811788D-10 -0.24779347D-10 -0.27337425D-10 -0.22706874D-10
 -0.12060172D-10 -0.31106702D-11  0.31976632D-14  0.11496625D+02  0.15143636D+02
  0.16706978D+02  0.13877065D+02  0.73704466D+01  0.19010532D+01 -0.19542180D-02
  0.41017392D-14  0.53852829D-14  0.61315407D-14  0.51919369D-14  0.29741413D-14
  0.67651397D-15 -0.31664577D-15 -0.21707109D-13 -0.28499843D-13 -0.32449168D-13
 -0.27476622D-13 -0.15739667D-13 -0.35802282D-14  0.16757438D-14  0.18918634D-01
  0.24838780D-01  0.28280778D-01  0.23947001D-01  0.13717764D-01  0.31203155D-02
 -0.14604794D-02  0.30022923D-13 -0.14997584D-12  0.92410597D-01  0.16374811D-15
 -0.81504900D-15  0.49212878D-03  0.11265257D-17  0.10969067D-16  0.20144575D-04
 -0.34275578D-03 -0.34275578D-03  0.68551156D-03  0.82314475D-18  0.30032829D-15
 -0.13344685D-14  0.10666700D-03  0.10666700D-03 -0.21333400D-03 -0.57425863D-20
 -0.76491942D-16  0.38481487D-15 -0.31057193D-04 -0.31057193D-04  0.62114386D-04
  0.15675152D-19  0.35412596D-16 -0.13776800D-15 -0.45305117D-17  0.22958232D-16
 -0.14549006D-04 -0.44836379D-17  0.22973822D-16  0.21823509D-04  0.18075173D-16
 -0.91848517D-16  0.21823509D-04 -0.29538846D-17  0.16070828D-18 -0.44782173D-17
  0.94102952D-05  0.15990357D-18 -0.44827326D-17 -0.14115443D-04 -0.64202842D-18
  0.17917384D-16 -0.14115443D-04  0.31306014D-18
MO    4     MO 0.0        OCC NO =    2.0000000  ORB. ENERGY =   -7.428806
 -0.41884382D-16 -0.77847833D-16 -0.13257352D-15 -0.20675161D-15 -0.28884376D-15
 -0.34430707D-15 -0.32640198D-15 -0.20729825D-15 -0.50906353D-16  0.36253346D-16
  0.67031181D-16  0.11303777D-15  0.18011546D-15  0.25106739D-15  0.31990070D-15
  0.31769442D-15  0.28656786D-15  0.16402609D-15  0.65439573D-15  0.21324744D-15
 -0.89029332D-17 -0.21148986D-04 -0.15518833D-04 -0.12743489D-04  0.28858732D-04
  0.21176137D-04  0.17389058D-04 -0.94647122D-16 -0.69450746D-16 -0.57030374D-16
 -0.38351361D-04  0.52332137D-04 -0.18399175D-15  0.39768713D-05 -0.54266177D-05
 -0.97318262D-17 -0.45597072D-06  0.62219232D-06  0.14070644D-17  0.49296864D-16
  0.46984165D-16 -0.96281029D-16 -0.77502112D-16 -0.25578259D-04  0.34902671D-04
 -0.74066056D-17 -0.64393340D-17  0.13845940D-16  0.17424482D-16  0.36065968D-04
 -0.49213617D-04 -0.23224278D-17 -0.22160267D-17  0.45384546D-17  0.73731282D-18
 -0.95086148D-06  0.12974928D-05 -0.42029148D-05  0.57350641D-05  0.28021696D-16
 -0.42029275D-05  0.57350815D-05 -0.44991555D-16  0.16811672D-04 -0.22940274D-04
 -0.39073533D-16  0.84864477D-17  0.18535395D-05 -0.25292371D-05 -0.88919679D-18
  0.18535368D-05 -0.25292334D-05  0.17153085D-17 -0.74141554D-05  0.10116945D-04
  0.95228187D-18  0.70592718D-18  0.41788172D-16  0.78185831D-16  0.13508780D-15
  0.21899307D-15  0.33255845D-15  0.46221714D-15  0.54950950D-15  0.48946079D-15
  0.24298299D-15  0.39148453D-16  0.60103304D-18  0.10740401D-18  0.40135204D-20
 -0.48872843D-15 -0.91287454D-15 -0.15843380D-14 -0.25707368D-14 -0.39791952D-14
 -0.56958564D-14 -0.74348718D-14 -0.79230965D-14 -0.59226755D-14 -0.31264752D-15
  0.40173654D-14  0.23867766D-14 -0.89486229D-17 -0.32569426D-17 -0.60786141D-17
 -0.10564096D-16 -0.17121292D-16 -0.26592048D-16 -0.38093876D-16 -0.50299413D-16
 -0.54388586D-16 -0.42641357D-16 -0.21218198D-17  0.36554424D-16  0.37840605D-16
 -0.17123409D-16 -0.15674893D-15  0.55749465D-15 -0.10902150D-14  0.68002942D+01
  0.89575136D+01  0.98822360D+01  0.82083329D+01  0.43596450D+01  0.11244796D+01
 -0.11559268D-02 -0.92793037D+01 -0.12222926D+02 -0.13484750D+02 -0.11200635D+02
 -0.59489294D+01 -0.15344024D+01  0.15773135D-02 -0.17390881D-10 -0.22907694D-10
 -0.25272553D-10 -0.20991760D-10 -0.11149234D-10 -0.28757126D-11  0.29561348D-14
  0.77774346D-02  0.10211201D-01  0.11626204D-01  0.98445921D-02  0.56393614D-02
  0.12827591D-02 -0.60040184D-03 -0.10612655D-01 -0.13933638D-01 -0.15864472D-01
 -0.13433384D-01 -0.76951593D-02 -0.17503818D-02  0.81927500D-03 -0.24641122D-13
 -0.32351987D-13 -0.36835117D-13 -0.31190464D-13 -0.17867099D-13 -0.40641451D-14
  0.19022436D-14  0.54212551D-01 -0.73975435D-01 -0.13953283D-12  0.29111353D-03
 -0.39723736D-03 -0.79424450D-15 -0.39008754D-05  0.53229179D-05 -0.40500803D-16
  0.59880471D-15  0.57225969D-15 -0.11710644D-14  0.35479847D-16  0.49596210D-03
 -0.67676234D-03 -0.12797958D-15 -0.98813098D-16  0.22679267D-15 -0.42296460D-16
 -0.13646790D-03  0.18621652D-03  0.47327426D-16  0.42915064D-16 -0.90242490D-16
  0.13172068D-16  0.50328760D-04 -0.68675831D-04 -0.87733526D-05  0.11971630D-04
  0.87981398D-16 -0.87803377D-05  0.11981161D-04 -0.17208729D-15  0.35100396D-04
 -0.47896050D-04 -0.91856898D-16 -0.15250502D-15  0.20095273D-05 -0.27420894D-05
 -0.38296613D-16  0.20103807D-05 -0.27432538D-05  0.50398546D-16 -0.80389627D-05
  0.10969522D-04  0.64491294D-16  0.13632677D-16
MO    5     MO 0.0        OCC NO =    2.0000000  ORB. ENERGY =   -7.428806
  0.17027327D-16  0.31647607D-16  0.53895331D-16  0.84051070D-16  0.11742413D-15
  0.13997172D-15  0.13269273D-15  0.84273298D-16  0.20695043D-16 -0.16712492D-16
 -0.30900819D-16 -0.52109474D-16 -0.83031735D-16 -0.11573999D-15 -0.14747157D-15
 -0.14645449D-15 -0.13210541D-15 -0.75614666D-16 -0.27068476D-15 -0.58086955D-16
 -0.22625058D-18 -0.28858732D-04 -0.21176137D-04 -0.17389058D-04 -0.21148986D-04
 -0.15518833D-04 -0.12743489D-04  0.26526749D-16  0.19464960D-16  0.15983903D-16
 -0.52332137D-04 -0.38351361D-04  0.67631985D-16  0.54266177D-05  0.39768713D-05
 -0.12749264D-17 -0.62219232D-06 -0.45597072D-06  0.13658399D-17 -0.20193933D-16
 -0.25530955D-16  0.45724888D-16  0.36225751D-16 -0.34902671D-04 -0.25578259D-04
  0.25789494D-17  0.25222642D-17 -0.51012136D-17 -0.91044841D-17  0.49213617D-04
  0.36065968D-04  0.42342375D-18  0.96098212D-18 -0.13844059D-17 -0.72455838D-18
 -0.12974928D-05 -0.95086148D-06 -0.57350641D-05 -0.42029148D-05 -0.13563495D-16
 -0.57350815D-05 -0.42029275D-05  0.12059318D-16  0.22940274D-04  0.16811672D-04
  0.28631165D-16  0.55741697D-18  0.25292371D-05  0.18535395D-05  0.39568962D-18
  0.25292334D-05  0.18535368D-05  0.21289146D-18 -0.10116945D-04 -0.74141554D-05
 -0.13999603D-17  0.31718905D-17 -0.20003092D-16 -0.37425862D-16 -0.64663599D-16
 -0.10482724D-15 -0.15918852D-15 -0.22125332D-15 -0.26303828D-15 -0.23429427D-15
 -0.11631069D-15 -0.18739516D-16 -0.28770149D-18 -0.51411973D-19 -0.19211852D-20
  0.22998658D-15  0.42958190D-15  0.74556022D-15  0.12097412D-14  0.18725358D-14
  0.26803648D-14  0.34987134D-14  0.37284629D-14  0.27871017D-14  0.14712615D-15
 -0.18904980D-14 -0.11231730D-14  0.42110567D-17  0.72583600D-17  0.13546683D-16
  0.23542943D-16  0.38156185D-16  0.59262529D-16  0.84895283D-16  0.11209631D-15
  0.12120936D-15  0.95029712D-16  0.47286470D-17 -0.81464490D-16 -0.84330849D-16
  0.38160902D-16  0.67314910D-16 -0.24061845D-15  0.41801164D-15  0.92793037D+01
  0.12222926D+02  0.13484750D+02  0.11200635D+02  0.59489294D+01  0.15344024D+01
 -0.15773135D-02  0.68002942D+01  0.89575136D+01  0.98822360D+01  0.82083329D+01
  0.43596450D+01  0.11244796D+01 -0.11559268D-02  0.80774768D-11  0.10639850D-10
  0.11738247D-10  0.97499632D-11  0.51784423D-11  0.13356713D-11 -0.13730247D-14
  0.10612655D-01  0.13933638D-01  0.15864472D-01  0.13433384D-01  0.76951593D-02
  0.17503818D-02 -0.81927500D-03  0.77774346D-02  0.10211201D-01  0.11626204D-01
  0.98445921D-02  0.56393614D-02  0.12827591D-02 -0.60040184D-03  0.11602042D-13
  0.15232630D-13  0.17343470D-13  0.14685738D-13  0.84125563D-14  0.19135647D-14
 -0.89565359D-15  0.73975435D-01  0.54212551D-01  0.64747345D-13  0.39723736D-03
  0.29111353D-03  0.35392767D-15 -0.53229179D-05 -0.39008754D-05  0.10196215D-16
 -0.23985581D-15 -0.29489045D-15  0.53474626D-15  0.10835315D-15  0.67676234D-03
  0.49596210D-03  0.32667659D-16  0.74052659D-16 -0.10672032D-15 -0.46493277D-16
 -0.18621652D-03 -0.13646790D-03 -0.16799741D-16 -0.21977744D-16  0.38777485D-16
  0.61760099D-17  0.68675831D-04  0.50328760D-04 -0.11971630D-04 -0.87733526D-05
 -0.36134542D-16 -0.11981161D-04 -0.87803377D-05  0.20927326D-16  0.47896050D-04
  0.35100396D-04  0.87476300D-16 -0.30878438D-15  0.27420894D-05  0.20095273D-05
  0.14544684D-16  0.27432538D-05  0.20103807D-05 -0.42273831D-16 -0.10969522D-04
 -0.80389627D-05 -0.13602219D-17  0.37702119D-16
MO    6     MO 0.0        OCC NO =    2.0000000  ORB. ENERGY =   -2.202191
 -0.64484025D-01 -0.11985235D+00 -0.20410649D+00 -0.31830900D+00 -0.44469579D+00
 -0.53008556D+00 -0.50251938D+00 -0.31915060D+00 -0.78374000D-01  0.17101757D-03
  0.31620555D-03  0.53323199D-03  0.84965695D-03  0.11843578D-02  0.15090645D-02
  0.14986569D-02  0.13518238D-02  0.77375870D-03  0.34739335D-02  0.20679190D-03
 -0.66243632D-05  0.69920911D-18  0.51306995D-18  0.42131399D-18 -0.19138769D-18
 -0.14043764D-18 -0.11532217D-18 -0.61034407D-02 -0.44786202D-02 -0.36776766D-02
  0.32839278D-19  0.20904223D-18 -0.30938758D-03  0.36314434D-19 -0.36844204D-19
 -0.10788808D-04 -0.52833655D-20  0.46413347D-20  0.30368054D-05 -0.34930514D-03
 -0.34930514D-03  0.69861028D-03 -0.54750722D-19 -0.17172755D-18 -0.32016886D-18
  0.14287886D-04  0.14287886D-04 -0.28575772D-04 -0.39445971D-19 -0.12696747D-18
  0.49292398D-19 -0.13519993D-05 -0.13519993D-05  0.27039987D-05  0.12142230D-19
  0.10459691D-19 -0.54101461D-20 -0.14099299D-19 -0.12454882D-19 -0.39922429D-04
 -0.13888041D-19 -0.32673577D-19  0.59883643D-04  0.56185938D-19  0.70038221D-19
  0.59883643D-04 -0.62272851D-20 -0.14008930D-21 -0.81459988D-21  0.10997458D-04
 -0.10937502D-20 -0.22625439D-21 -0.16496187D-04  0.15140181D-20  0.26700540D-20
 -0.16496187D-04 -0.30982288D-20  0.47040738D-03  0.88013402D-03  0.15206766D-02
  0.24651941D-02  0.37435940D-02  0.52031554D-02  0.61858011D-02  0.55098359D-02
  0.27352475D-02  0.44069220D-03  0.67657991D-05  0.12090417D-05  0.45180000D-07
 -0.93384301D-03 -0.17442847D-02 -0.30272906D-02 -0.49120624D-02 -0.76032892D-02
 -0.10883418D-01 -0.14206260D-01 -0.15139140D-01 -0.11316815D-01 -0.59739455D-03
  0.76762234D-02  0.45605586D-02 -0.17098676D-04  0.20813307D-03  0.38845038D-03
  0.67509258D-03  0.10941265D-02  0.16993497D-02  0.24343675D-02  0.32143554D-02
  0.34756717D-02  0.27249717D-02  0.13559369D-03 -0.23359897D-02 -0.24181824D-02
  0.10942617D-02 -0.21059838D-03 -0.31084861D-02 -0.29125563D-02 -0.70425075D-16
 -0.92765630D-16 -0.10234222D-15 -0.85006979D-16 -0.45149271D-16 -0.11645314D-16
  0.11970987D-19  0.17919354D-15  0.23603811D-15  0.26040533D-15  0.21629656D-15
  0.11488036D-15  0.29630995D-16 -0.30459655D-19  0.10102718D-01  0.13307547D-01
  0.14681342D-01  0.12194542D-01  0.64768174D-02  0.16705601D-02 -0.17172790D-05
 -0.41263278D-17 -0.54175659D-17 -0.61682974D-17 -0.52230609D-17 -0.29919704D-17
 -0.68056946D-18  0.31854396D-18 -0.33634613D-17 -0.44159781D-17 -0.50279159D-17
 -0.42574327D-17 -0.24388214D-17 -0.55474725D-18  0.25965224D-18  0.13019647D-01
  0.17093843D-01  0.19462598D-01  0.16480128D-01  0.94404519D-02  0.21473753D-02
 -0.10050898D-02 -0.10342785D-17  0.13794579D-17 -0.13216704D-02 -0.38522570D-18
 -0.33703037D-18 -0.34621263D-02 -0.30833749D-19 -0.26692551D-20 -0.20952053D-03
 -0.48099374D-04 -0.48099374D-04  0.96198748D-04 -0.27427430D-19  0.18282381D-18
  0.24778607D-18  0.56848171D-03  0.56848171D-03 -0.11369634D-02  0.20222740D-19
  0.73796429D-19 -0.81047749D-19  0.31770637D-03  0.31770637D-03 -0.63541273D-03
 -0.10424874D-19 -0.13336057D-18 -0.16280311D-18 -0.83570913D-19 -0.74143526D-19
  0.45943104D-03 -0.10444095D-18 -0.12201735D-18 -0.68914657D-03  0.35515369D-18
  0.34444792D-18 -0.68914657D-03  0.13441837D-18  0.39155720D-19  0.26872744D-19
 -0.55924576D-03  0.38647472D-19  0.38383141D-19  0.83886864D-03 -0.15611463D-18
 -0.11900137D-18  0.83886864D-03 -0.18848717D-19
MO    7     MO 0.0        OCC NO =    2.0000000  ORB. ENERGY =   -0.825053
 -0.16936023D-02 -0.31477907D-02 -0.53606334D-02 -0.83600372D-02 -0.11679448D-01
 -0.13922117D-01 -0.13198121D-01 -0.83821409D-02 -0.20584072D-02 -0.12603243D-02
 -0.23302960D-02 -0.39296855D-02 -0.62615985D-02 -0.87281969D-02 -0.11121143D-01
 -0.11044443D-01 -0.99623478D-02 -0.57022617D-02  0.74843036D-02  0.85341403D-03
 -0.34483707D-04  0.16463309D-16  0.12080548D-16  0.99200973D-17  0.23523217D-16
  0.17261010D-16  0.14174101D-16 -0.10290725D-01 -0.75511911D-02 -0.62007578D-02
 -0.21467760D-17 -0.56895833D-17 -0.14878941D-02  0.29628368D-18  0.14482802D-17
  0.78290802D-05 -0.29003838D-18 -0.10389936D-18  0.23782013D-05 -0.85767392D-03
 -0.85767392D-03  0.17153478D-02  0.97537050D-19 -0.20856172D-17 -0.12092609D-18
 -0.95514308D-04 -0.95514308D-04  0.19102862D-03 -0.10083359D-18  0.15801121D-17
 -0.74627189D-18 -0.79473977D-05 -0.79473977D-05  0.15894795D-04  0.30581961D-19
 -0.22340864D-18 -0.46686350D-18  0.89232558D-19  0.12400761D-18 -0.27931924D-03
  0.16622714D-18  0.14176891D-18  0.41897886D-03 -0.43392481D-18 -0.51379175D-18
  0.41897886D-03 -0.16742619D-18 -0.95919515D-20 -0.27391444D-19 -0.23187541D-05
 -0.40364367D-20 -0.36881986D-19  0.34781311D-05  0.32812291D-19  0.11905632D-18
  0.34781311D-05  0.66808961D-22 -0.10370494D-02 -0.19403234D-02 -0.33524489D-02
 -0.54347107D-02 -0.82530418D-02 -0.11470758D-01 -0.13637076D-01 -0.12146858D-01
 -0.60300642D-02 -0.97153996D-03 -0.14915726D-04 -0.26654256D-05 -0.99602797D-07
  0.30421689D-02  0.56823347D-02  0.98619674D-02  0.16001965D-01  0.24769142D-01
  0.35454776D-01  0.46279558D-01  0.49318591D-01  0.36866648D-01  0.19461249D-02
 -0.25006738D-01 -0.14856876D-01  0.55702145D-04  0.49620234D-01  0.92609018D-01
  0.16094632D+00  0.26084664D+00  0.40513567D+00  0.58036854D+00  0.76632258D+00
  0.82862203D+00  0.64965041D+00  0.32326390D-01 -0.55691465D+00 -0.57650991D+00
  0.26087889D+00  0.50108617D-01  0.68130337D-01 -0.35988033D-02 -0.14026942D-14
 -0.18476631D-14 -0.20384052D-14 -0.16931298D-14 -0.89926238D-15 -0.23194600D-15
  0.23843260D-18  0.69878344D-15  0.92045462D-15  0.10154771D-14  0.84347043D-15
  0.44798764D-15  0.11554908D-15 -0.11878053D-18 -0.42950074D-01 -0.56574887D-01
 -0.62415353D-01 -0.51843126D-01 -0.27535143D-01 -0.71021167D-02  0.73007345D-05
 -0.17108130D-15 -0.22461720D-15 -0.25574321D-15 -0.21655285D-15 -0.12404981D-15
 -0.28217028D-16  0.13207122D-16  0.63643473D-16  0.83559214D-16  0.95138313D-16
  0.80559216D-16  0.46147420D-16  0.10496937D-16 -0.49131443D-17 -0.79974825D-01
 -0.10500108D+00 -0.11955146D+00 -0.10123126D+00 -0.57989165D-01 -0.13190523D-01
  0.61738908D-02 -0.28276666D-17 -0.43776038D-17  0.11456096D-01  0.12075079D-17
  0.30241289D-17 -0.52002434D-03  0.37234992D-18 -0.34028376D-17 -0.34212774D-03
 -0.22663013D-02 -0.22663013D-02  0.45326025D-02 -0.43559174D-16  0.79041306D-17
 -0.35601477D-17 -0.56264052D-03 -0.56264052D-03  0.11252810D-02 -0.75690633D-17
 -0.49538828D-19  0.31551664D-17 -0.29526623D-04 -0.29526623D-04  0.59053246D-04
  0.82450923D-18  0.34754996D-17 -0.36773945D-17  0.34821715D-18  0.34429450D-18
  0.31372233D-03  0.11532903D-17 -0.10928912D-17 -0.47058350D-03 -0.21979417D-17
  0.60007650D-19 -0.47058350D-03 -0.39636180D-17 -0.30174498D-18 -0.18276031D-18
  0.33905209D-03 -0.27819225D-18 -0.36878796D-19 -0.50857814D-03  0.11834272D-17
  0.58515972D-18 -0.50857814D-03 -0.49776750D-18
MO    8     MO 0.0        OCC NO =    2.0000000  ORB. ENERGY =   -0.338488
 -0.20466102D-02 -0.38039040D-02 -0.64779831D-02 -0.10102571D-01 -0.14113867D-01
 -0.16823989D-01 -0.15949086D-01 -0.10129282D-01 -0.24874537D-02 -0.41949390D-02
 -0.77562969D-02 -0.13079801D-01 -0.20841480D-01 -0.29051454D-01 -0.37016278D-01
 -0.36760985D-01 -0.33159275D-01 -0.18979749D-01  0.25894780D-01  0.20718145D-02
 -0.80105411D-04 -0.87601735D-17 -0.64280939D-17 -0.52785120D-17 -0.20655864D-16