 Molden2AIM, Version 4.0.0 (06/02/2016)           Time: Sun Jul  1 16:16:05 2018
GAUSSIAN             11 MOL ORBITALS    280 PRIMITIVES        2 NUCLEI
  Na   1    (CENTRE  1)   0.00000000  0.00000000  2.94866628  CHARGE = 11.0
  Na   2    (CENTRE  2)   0.00000000  0.00000000 -2.94866628  CHARGE = 11.0
CENTRE ASSIGNMENTS    1  1  1  1  1  1  1  1  1  1  1  1  1  1  1  1  1  1  1  1
CENTRE ASSIGNMENTS    1  1  1  1  1  1  1  1  1  1  1  1  1  1  1  1  1  1  1  1
CENTRE ASSIGNMENTS    1  1  1  1  1  1  1  1  1  1  1  1  1  1  1  1  1  1  1  1
CENTRE ASSIGNMENTS    1  1  1  1  1  1  1  1  1  1  1  1  1  1  1  1  1  1  1  1
CENTRE ASSIGNMENTS    1  1  1  1  1  1  1  1  1  1  1  1  1  1  1  1  1  1  1  1
CENTRE ASSIGNMENTS    1  1  1  1  1  1  1  1  1  1  1  1  1  1  1  1  1  1  1  1
CENTRE ASSIGNMENTS    1  1  1  1  1  1  1  1  1  1  1  1  1  1  1  1  1  1  1  1
CENTRE ASSIGNMENTS    2  2  2  2  2  2  2  2  2  2  2  2  2  2  2  2  2  2  2  2
CENTRE ASSIGNMENTS    2  2  2  2  2  2  2  2  2  2  2  2  2  2  2  2  2  2  2  2
CENTRE ASSIGNMENTS    2  2  2  2  2  2  2  2  2  2  2  2  2  2  2  2  2  2  2  2
CENTRE ASSIGNMENTS    2  2  2  2  2  2  2  2  2  2  2  2  2  2  2  2  2  2  2  2
CENTRE ASSIGNMENTS    2  2  2  2  2  2  2  2  2  2  2  2  2  2  2  2  2  2  2  2
CENTRE ASSIGNMENTS    2  2  2  2  2  2  2  2  2  2  2  2  2  2  2  2  2  2  2  2
CENTRE ASSIGNMENTS    2  2  2  2  2  2  2  2  2  2  2  2  2  2  2  2  2  2  2  2
TYPE ASSIGNMENTS      1  1  1  1  1  1  1  1  1  1  1  1  1  1  1  1  1  1  1  1
TYPE ASSIGNMENTS      1  1  1  1  1  1  1  1  1  1  1  1  1  1  1  1  1  1  1  1
TYPE ASSIGNMENTS      1  1  1  1  1  2  2  2  2  2  2  2  2  3  3  3  3  3  3  3
TYPE ASSIGNMENTS      3  4  4  4  4  4  4  4  4  2  2  2  2  2  2  2  2  3  3  3
TYPE ASSIGNMENTS      3  3  3  3  3  4  4  4  4  4  4  4  4  2  3  4  2  3  4  2
TYPE ASSIGNMENTS      3  4  5  6  7  8  9 10  5  6  7  8  9 10  5  6  7  8  9 10
TYPE ASSIGNMENTS     11 12 13 17 14 15 18 19 16 20 11 12 13 17 14 15 18 19 16 20
TYPE ASSIGNMENTS      1  1  1  1  1  1  1  1  1  1  1  1  1  1  1  1  1  1  1  1
TYPE ASSIGNMENTS      1  1  1  1  1  1  1  1  1  1  1  1  1  1  1  1  1  1  1  1
TYPE ASSIGNMENTS      1  1  1  1  1  2  2  2  2  2  2  2  2  3  3  3  3  3  3  3
TYPE ASSIGNMENTS      3  4  4  4  4  4  4  4  4  2  2  2  2  2  2  2  2  3  3  3
TYPE ASSIGNMENTS      3  3  3  3  3  4  4  4  4  4  4  4  4  2  3  4  2  3  4  2
TYPE ASSIGNMENTS      3  4  5  6  7  8  9 10  5  6  7  8  9 10  5  6  7  8  9 10
TYPE ASSIGNMENTS     11 12 13 17 14 15 18 19 16 20 11 12 13 17 14 15 18 19 16 20
EXPONENTS  0.4230000D+06 0.6334000D+05 0.1441000D+05 0.4077000D+04 0.1328000D+04
EXPONENTS  0.4786000D+03 0.1862000D+03 0.7692000D+02 0.3332000D+02 0.1500000D+02
EXPONENTS  0.6869000D+01 0.2683000D+01 0.1109000D+01 0.6015000D-01 0.4230000D+06
EXPONENTS  0.6334000D+05 0.1441000D+05 0.4077000D+04 0.1328000D+04 0.4786000D+03
EXPONENTS  0.1862000D+03 0.7692000D+02 0.3332000D+02 0.1500000D+02 0.6869000D+01
EXPONENTS  0.2683000D+01 0.1109000D+01 0.6015000D-01 0.4230000D+06 0.6334000D+05
EXPONENTS  0.1441000D+05 0.4077000D+04 0.1328000D+04 0.4786000D+03 0.1862000D+03
EXPONENTS  0.7692000D+02 0.3332000D+02 0.1500000D+02 0.6869000D+01 0.2683000D+01
EXPONENTS  0.1109000D+01 0.6015000D-01 0.4540000D+00 0.2382000D-01 0.6650000D-02
EXPONENTS  0.2433000D+03 0.5739000D+02 0.1810000D+02 0.6575000D+01 0.2521000D+01
EXPONENTS  0.9607000D+00 0.3512000D+00 0.9827000D-01 0.2433000D+03 0.5739000D+02
EXPONENTS  0.1810000D+02 0.6575000D+01 0.2521000D+01 0.9607000D+00 0.3512000D+00
EXPONENTS  0.9827000D-01 0.2433000D+03 0.5739000D+02 0.1810000D+02 0.6575000D+01
EXPONENTS  0.2521000D+01 0.9607000D+00 0.3512000D+00 0.9827000D-01 0.2433000D+03
EXPONENTS  0.5739000D+02 0.1810000D+02 0.6575000D+01 0.2521000D+01 0.9607000D+00
EXPONENTS  0.3512000D+00 0.9827000D-01 0.2433000D+03 0.5739000D+02 0.1810000D+02
EXPONENTS  0.6575000D+01 0.2521000D+01 0.9607000D+00 0.3512000D+00 0.9827000D-01
EXPONENTS  0.2433000D+03 0.5739000D+02 0.1810000D+02 0.6575000D+01 0.2521000D+01
EXPONENTS  0.9607000D+00 0.3512000D+00 0.9827000D-01 0.3734000D-01 0.3734000D-01
EXPONENTS  0.3734000D-01 0.1500000D-01 0.1500000D-01 0.1500000D-01 0.7000000D-02
EXPONENTS  0.7000000D-02 0.7000000D-02 0.1367000D+00 0.1367000D+00 0.1367000D+00
EXPONENTS  0.1367000D+00 0.1367000D+00 0.1367000D+00 0.6360000D-01 0.6360000D-01
EXPONENTS  0.6360000D-01 0.6360000D-01 0.6360000D-01 0.6360000D-01 0.2230000D-01
EXPONENTS  0.2230000D-01 0.2230000D-01 0.2230000D-01 0.2230000D-01 0.2230000D-01
EXPONENTS  0.1397000D+00 0.1397000D+00 0.1397000D+00 0.1397000D+00 0.1397000D+00
EXPONENTS  0.1397000D+00 0.1397000D+00 0.1397000D+00 0.1397000D+00 0.1397000D+00
EXPONENTS  0.7140000D-01 0.7140000D-01 0.7140000D-01 0.7140000D-01 0.7140000D-01
EXPONENTS  0.7140000D-01 0.7140000D-01 0.7140000D-01 0.7140000D-01 0.7140000D-01
EXPONENTS  0.4230000D+06 0.6334000D+05 0.1441000D+05 0.4077000D+04 0.1328000D+04
EXPONENTS  0.4786000D+03 0.1862000D+03 0.7692000D+02 0.3332000D+02 0.1500000D+02
EXPONENTS  0.6869000D+01 0.2683000D+01 0.1109000D+01 0.6015000D-01 0.4230000D+06
EXPONENTS  0.6334000D+05 0.1441000D+05 0.4077000D+04 0.1328000D+04 0.4786000D+03
EXPONENTS  0.1862000D+03 0.7692000D+02 0.3332000D+02 0.1500000D+02 0.6869000D+01
EXPONENTS  0.2683000D+01 0.1109000D+01 0.6015000D-01 0.4230000D+06 0.6334000D+05
EXPONENTS  0.1441000D+05 0.4077000D+04 0.1328000D+04 0.4786000D+03 0.1862000D+03
EXPONENTS  0.7692000D+02 0.3332000D+02 0.1500000D+02 0.6869000D+01 0.2683000D+01
EXPONENTS  0.1109000D+01 0.6015000D-01 0.4540000D+00 0.2382000D-01 0.6650000D-02
EXPONENTS  0.2433000D+03 0.5739000D+02 0.1810000D+02 0.6575000D+01 0.2521000D+01
EXPONENTS  0.9607000D+00 0.3512000D+00 0.9827000D-01 0.2433000D+03 0.5739000D+02
EXPONENTS  0.1810000D+02 0.6575000D+01 0.2521000D+01 0.9607000D+00 0.3512000D+00
EXPONENTS  0.9827000D-01 0.2433000D+03 0.5739000D+02 0.1810000D+02 0.6575000D+01
EXPONENTS  0.2521000D+01 0.9607000D+00 0.3512000D+00 0.9827000D-01 0.2433000D+03
EXPONENTS  0.5739000D+02 0.1810000D+02 0.6575000D+01 0.2521000D+01 0.9607000D+00
EXPONENTS  0.3512000D+00 0.9827000D-01 0.2433000D+03 0.5739000D+02 0.1810000D+02
EXPONENTS  0.6575000D+01 0.2521000D+01 0.9607000D+00 0.3512000D+00 0.9827000D-01
EXPONENTS  0.2433000D+03 0.5739000D+02 0.1810000D+02 0.6575000D+01 0.2521000D+01
EXPONENTS  0.9607000D+00 0.3512000D+00 0.9827000D-01 0.3734000D-01 0.3734000D-01
EXPONENTS  0.3734000D-01 0.1500000D-01 0.1500000D-01 0.1500000D-01 0.7000000D-02
EXPONENTS  0.7000000D-02 0.7000000D-02 0.1367000D+00 0.1367000D+00 0.1367000D+00
EXPONENTS  0.1367000D+00 0.1367000D+00 0.1367000D+00 0.6360000D-01 0.6360000D-01
EXPONENTS  0.6360000D-01 0.6360000D-01 0.6360000D-01 0.6360000D-01 0.2230000D-01
EXPONENTS  0.2230000D-01 0.2230000D-01 0.2230000D-01 0.2230000D-01 0.2230000D-01
EXPONENTS  0.1397000D+00 0.1397000D+00 0.1397000D+00 0.1397000D+00 0.1397000D+00
EXPONENTS  0.1397000D+00 0.1397000D+00 0.1397000D+00 0.1397000D+00 0.1397000D+00
EXPONENTS  0.7140000D-01 0.7140000D-01 0.7140000D-01 0.7140000D-01 0.7140000D-01
EXPONENTS  0.7140000D-01 0.7140000D-01 0.7140000D-01 0.7140000D-01 0.7140000D-01
MO    1     MO 0.0        OCC NO =    2.0000000  ORB. ENERGY =  -39.208882
 -0.15105157D+00 -0.28270102D+00 -0.48968969D+00 -0.80053245D+00 -0.12431957D+01
 -0.18203358D+01 -0.24395984D+01 -0.27990718D+01 -0.24382301D+01 -0.12473272D+01
 -0.24095988D+00 -0.74708350D-02 -0.32584874D-03  0.32510515D-06  0.13520720D-03
  0.25366527D-03  0.43822107D-03  0.72100760D-03  0.11201354D-02  0.16771383D-02
  0.23119445D-02  0.29116978D-02  0.29874532D-02  0.22903466D-02  0.34448841D-03
 -0.13104587D-02 -0.11222196D-02 -0.91391616D-06 -0.37813930D-04 -0.70808328D-04
 -0.12266998D-03 -0.20111448D-03 -0.31400798D-03 -0.46787504D-03 -0.65099120D-03
 -0.81631559D-03 -0.85769224D-03 -0.65907870D-03 -0.11139412D-03  0.44301747D-03
  0.43001282D-03 -0.26160931D-03  0.57156243D-03 -0.31526723D-03 -0.50466220D-04
  0.23928219D-15  0.30500883D-15  0.32072638D-15  0.25600085D-15  0.13343893D-15
  0.41682086D-16  0.48132437D-17  0.14245798D-19 -0.88064223D-16 -0.11225393D-15
 -0.11803854D-15 -0.94217275D-16 -0.49110198D-16 -0.15340467D-16 -0.17714422D-17
 -0.52429523D-20  0.17449034D-02  0.22241979D-02  0.23388140D-02  0.18668199D-02
  0.97306883D-03  0.30395581D-03  0.35099332D-04  0.10388379D-06 -0.22198411D-15
 -0.28595182D-15 -0.30072040D-15 -0.24627511D-15 -0.12681711D-15 -0.44475983D-16
 -0.53957317D-17  0.10441554D-16  0.16397887D-15  0.21123159D-15  0.22214109D-15
  0.18192255D-15  0.93679349D-16  0.32854250D-16  0.39858078D-17 -0.77131385D-17
 -0.18949686D-02 -0.24410294D-02 -0.25671015D-02 -0.21023289D-02 -0.10825750D-02
 -0.37966949D-03 -0.46060696D-04  0.89134384D-04 -0.21932379D-17  0.95723306D-17
  0.10273623D-03  0.34511309D-17 -0.72567794D-19  0.67774590D-05 -0.61932040D-18
 -0.31146652D-18  0.19889300D-05  0.83047267D-05  0.83047267D-05 -0.16609453D-04
 -0.23142935D-20  0.41464084D-18  0.13931291D-18  0.78143802D-05  0.78143802D-05
 -0.15628760D-04  0.64018095D-21 -0.88988188D-18 -0.20626968D-17  0.62421442D-06
  0.62421442D-06 -0.12484288D-05 -0.39893987D-22 -0.46041262D-18 -0.22836342D-18
  0.98620712D-19  0.34440202D-19  0.46228214D-05  0.98799370D-19  0.34609158D-19
 -0.69342322D-05 -0.39466151D-18 -0.13792976D-18 -0.69342322D-05  0.21936297D-21
 -0.12836311D-18 -0.70270754D-19  0.45456267D-06 -0.12836957D-18 -0.70301830D-19
 -0.68184400D-06  0.51345888D-18  0.28111409D-18 -0.68184400D-06 -0.91387548D-22
  0.15105159D+00  0.28270107D+00  0.48968977D+00  0.80053257D+00  0.12431959D+01
  0.18203361D+01  0.24395987D+01  0.27990723D+01  0.24382305D+01  0.12473274D+01
  0.24095991D+00  0.74708361D-02  0.32584879D-03 -0.32510520D-06 -0.13520721D-03
 -0.25366529D-03 -0.43822111D-03 -0.72100766D-03 -0.11201355D-02 -0.16771385D-02
 -0.23119447D-02 -0.29116980D-02 -0.29874535D-02 -0.22903468D-02 -0.34448844D-03
  0.13104588D-02  0.11222197D-02  0.91391624D-06  0.37813930D-04  0.70808329D-04
  0.12266998D-03  0.20111448D-03  0.31400798D-03  0.46787504D-03  0.65099121D-03
  0.81631560D-03  0.85769224D-03  0.65907870D-03  0.11139412D-03 -0.44301747D-03
 -0.43001282D-03  0.26160931D-03 -0.57156250D-03  0.31526723D-03  0.50466219D-04
  0.56877271D-17  0.72500464D-17  0.76236519D-17  0.60851289D-17  0.31718375D-17
  0.99078134D-18  0.11441059D-18  0.33862199D-21 -0.11587547D-15 -0.14770444D-15
 -0.15531587D-15 -0.12397170D-15 -0.64619515D-16 -0.20185085D-16 -0.23308750D-17
 -0.68987105D-20  0.17449033D-02  0.22241978D-02  0.23388139D-02  0.18668198D-02
  0.97306879D-03  0.30395580D-03  0.35099331D-04  0.10388379D-06  0.64273369D-16
  0.82794607D-16  0.87070707D-16  0.71306596D-16  0.36718678D-16  0.12877594D-16
  0.15622824D-17 -0.30232517D-17  0.65863427D-16  0.84842862D-16  0.89224749D-16
  0.73070649D-16  0.37627061D-16  0.13196173D-16  0.16009317D-17 -0.30980439D-17
 -0.18949686D-02 -0.24410293D-02 -0.25671014D-02 -0.21023289D-02 -0.10825750D-02
 -0.37966948D-03 -0.46060695D-04  0.89134381D-04 -0.17186687D-17 -0.21481851D-17
  0.10273623D-03 -0.28835781D-17 -0.21140518D-17  0.67774586D-05  0.65749359D-18
  0.46578070D-18  0.19889300D-05 -0.83047263D-05 -0.83047263D-05  0.16609453D-04
  0.20342465D-20  0.14269212D-18 -0.20543739D-18 -0.78143805D-05 -0.78143805D-05
  0.15628761D-04 -0.55153627D-21 -0.97748002D-18 -0.16859203D-17 -0.62421440D-06
 -0.62421440D-06  0.12484288D-05  0.34580619D-22 -0.49346415D-18 -0.43133158D-18
  0.85224242D-19 -0.17561424D-18  0.46228215D-05  0.85459016D-19 -0.17558752D-18
 -0.69342323D-05 -0.34113174D-18  0.70243024D-18 -0.69342323D-05  0.19052194D-22
 -0.66092055D-19  0.21118375D-18  0.45456273D-06 -0.66118199D-19  0.21119084D-18
 -0.68184410D-06  0.26439436D-18 -0.84474209D-18 -0.68184410D-06 -0.67390534D-22
MO    2     MO 0.0        OCC NO =    2.0000000  ORB. ENERGY =  -39.208879
 -0.15102937D+00 -0.28265948D+00 -0.48961774D+00 -0.80041482D+00 -0.12430130D+01
 -0.18200683D+01 -0.24392399D+01 -0.27986605D+01 -0.24378718D+01 -0.12471440D+01
 -0.24092447D+00 -0.74697372D-02 -0.32580086D-03  0.32505738D-06  0.79530882D-04
  0.14920968D-03  0.25776815D-03  0.42410739D-03  0.65888030D-03  0.98651769D-03
  0.13599201D-02  0.17127039D-02  0.17572644D-02  0.13472159D-02  0.20263320D-03
 -0.77083130D-03 -0.66010627D-03 -0.53757907D-06 -0.13157380D-05 -0.24637802D-05
 -0.42683096D-05 -0.69977908D-05 -0.10925927D-04 -0.16279741D-04 -0.22651280D-04
 -0.28403752D-04 -0.29843455D-04 -0.22932685D-04 -0.38759653D-05  0.15414820D-04
  0.14962323D-04 -0.91027123D-05  0.42526823D-03 -0.42226160D-05  0.69503299D-06
 -0.24022817D-15 -0.30621466D-15 -0.32199435D-15 -0.25701293D-15 -0.13396647D-15
 -0.41846873D-16 -0.48322724D-17 -0.14302118D-19  0.85524101D-16  0.10901608D-15
  0.11463384D-15  0.91499675D-16  0.47693665D-16  0.14897987D-16  0.17203467D-17
  0.50917248D-20 -0.47481719D-03 -0.60524119D-03 -0.63643015D-03 -0.50799270D-03
 -0.26478819D-03 -0.82711425D-04 -0.95511113D-05 -0.28268505D-07  0.22274088D-15
  0.28692667D-15  0.30174560D-15  0.24711470D-15  0.12724945D-15  0.44627608D-16
  0.54141266D-17 -0.10477150D-16 -0.16221094D-15 -0.20895422D-15 -0.21974609D-15
 -0.17996116D-15 -0.92669352D-16 -0.32500035D-16 -0.39428352D-17  0.76299799D-17
  0.33095601D-03  0.42632545D-03  0.44834391D-03  0.36717146D-03  0.18907158D-03
  0.66309223D-04  0.80444941D-05 -0.15567308D-04  0.21818852D-17 -0.95865119D-17
  0.82722491D-05 -0.34508059D-17  0.71788629D-19 -0.24376156D-05  0.61914835D-18
  0.31174156D-18  0.22968702D-06 -0.24376719D-05 -0.24376719D-05  0.48753439D-05
 -0.19810790D-20 -0.41802215D-18 -0.14869084D-18  0.19977625D-05  0.19977625D-05
 -0.39955249D-05  0.38400186D-21  0.90702205D-18  0.20931913D-17 -0.14437711D-06
 -0.14437711D-06  0.28875421D-06 -0.84323192D-23  0.46040682D-18  0.22827204D-18
 -0.98478261D-19 -0.34545843D-19  0.53285618D-06 -0.98306242D-19 -0.34479222D-19
 -0.79928427D-06  0.39374102D-18  0.13811675D-18 -0.79928427D-06  0.32104512D-21
  0.12894075D-18  0.71398839D-19  0.41532010D-06  0.12893085D-18  0.71376012D-19
 -0.62298015D-06 -0.51575309D-18 -0.28557253D-18 -0.62298015D-06 -0.36952692D-22
 -0.15102935D+00 -0.28265944D+00 -0.48961766D+00 -0.80041470D+00 -0.12430128D+01
 -0.18200680D+01 -0.24392395D+01 -0.27986601D+01 -0.24378714D+01 -0.12471438D+01
 -0.24092443D+00 -0.74697360D-02 -0.32580081D-03  0.32505733D-06  0.79530862D-04
  0.14920964D-03  0.25776808D-03  0.42410728D-03  0.65888013D-03  0.98651744D-03
  0.13599198D-02  0.17127035D-02  0.17572640D-02  0.13472155D-02  0.20263315D-03
 -0.77083110D-03 -0.66010610D-03 -0.53757893D-06 -0.13157323D-05 -0.24637695D-05
 -0.42682911D-05 -0.69977604D-05 -0.10925880D-04 -0.16279671D-04 -0.22651181D-04
 -0.28403629D-04 -0.29843326D-04 -0.22932585D-04 -0.38759484D-05  0.15414754D-04
  0.14962258D-04 -0.91026728D-05  0.42526814D-03 -0.42225691D-05  0.69504019D-06
 -0.54912844D-17 -0.69996444D-17 -0.73603463D-17 -0.58749608D-17 -0.30622886D-17
 -0.95656174D-18 -0.11045908D-18 -0.32692667D-21  0.11614826D-15  0.14805216D-15
  0.15568150D-15  0.12426355D-15  0.64771639D-16  0.20232604D-16  0.23363623D-17
  0.69149512D-20  0.47481746D-03  0.60524152D-03  0.63643050D-03  0.50799298D-03
  0.26478834D-03  0.82711471D-04  0.95511166D-05  0.28268521D-07 -0.64418699D-16
 -0.82981816D-16 -0.87267584D-16 -0.71467829D-16 -0.36801703D-16 -0.12906712D-16
 -0.15658149D-17  0.30300876D-17 -0.66254504D-16 -0.85346632D-16 -0.89754537D-16
 -0.73504520D-16 -0.37850479D-16 -0.13274528D-16 -0.16104375D-17  0.31164391D-17
 -0.33095630D-03 -0.42632582D-03 -0.44834430D-03 -0.36717177D-03 -0.18907174D-03
 -0.66309281D-04 -0.80445011D-05  0.15567321D-04  0.17399145D-17  0.21822175D-17
 -0.82722338D-05  0.28809807D-17  0.21105713D-17  0.24376166D-05 -0.65695837D-18
 -0.46538208D-18 -0.22968673D-06 -0.24376732D-05 -0.24376732D-05  0.48753464D-05
 -0.15066052D-20 -0.15321936D-18  0.19169534D-18  0.19977613D-05  0.19977613D-05
 -0.39955226D-05  0.27010598D-21  0.99684224D-18  0.17188191D-17 -0.14437720D-06
 -0.14437720D-06  0.28875440D-06 -0.18624648D-22  0.49349206D-18  0.43129075D-18
 -0.84691507D-19  0.17626584D-18 -0.53285548D-06 -0.85007194D-19  0.17623853D-18
  0.79928322D-06  0.33908171D-18 -0.70503604D-18  0.79928322D-06  0.38135252D-21
  0.64979223D-19 -0.21295298D-18 -0.41532003D-06  0.65001569D-19 -0.21295633D-18
  0.62298005D-06 -0.25993924D-18  0.85181528D-18  0.62298005D-06 -0.59102373D-22
MO    3     MO 0.0        OCC NO =    2.0000000  ORB. ENERGY =   -2.444035
  0.22658704D-03  0.42406966D-03  0.73456593D-03  0.12008500D-02  0.18648732D-02
  0.27306203D-02  0.36595539D-02  0.41987872D-02  0.36575014D-02  0.18710708D-02
  0.36145526D-03  0.11206731D-04  0.48879400D-06 -0.48767856D-09  0.36561592D-01
  0.68594028D-01  0.11850005D+00  0.19496881D+00  0.30289759D+00  0.45351763D+00
  0.62517657D+00  0.78735681D+00  0.80784196D+00  0.61933624D+00  0.93153656D-01
 -0.35436322D+00 -0.30346119D+00 -0.24713352D-03  0.27897389D-04  0.52239149D-04
  0.90500306D-04  0.14837307D-03  0.23166074D-03  0.34517683D-03  0.48027157D-03
  0.60224035D-03  0.63276614D-03  0.48623815D-03  0.82181489D-04 -0.32683804D-03
 -0.31724381D-03  0.19300339D-03 -0.69553393D-01 -0.43352340D-04  0.21792190D-05
  0.20448375D-15  0.26065186D-15  0.27408364D-15  0.21877104D-15  0.11403311D-15
  0.35620324D-16  0.41132610D-17  0.12174053D-19  0.22434821D-16  0.28597274D-16
  0.30070933D-16  0.24002343D-16  0.12511079D-16  0.39080640D-17  0.45128414D-18
  0.13356695D-20 -0.22383132D-01 -0.28531388D-01 -0.30001652D-01 -0.23947043D-01
 -0.12482255D-01 -0.38990601D-02 -0.45024441D-03 -0.13325922D-05  0.74105014D-16
  0.95459374D-16  0.10038957D-15  0.82214087D-16  0.42335390D-16  0.14847429D-16
  0.18012586D-17 -0.34857067D-17 -0.27448730D-16 -0.35358452D-16 -0.37184613D-16
 -0.30452356D-16 -0.15681161D-16 -0.54995344D-17 -0.66719183D-18  0.12911167D-17
  0.41363588D-02  0.53283064D-02  0.56034979D-02  0.45889872D-02  0.23630569D-02
  0.82874682D-03  0.10054180D-03 -0.19456353D-03 -0.19633012D-17  0.20432312D-17
  0.10181547D-03  0.29099212D-18  0.36516901D-18 -0.13632770D-04  0.64704570D-19
 -0.16272766D-18  0.23537198D-05 -0.15288114D-04 -0.15288114D-04  0.30576228D-04
  0.16587435D-19 -0.49981349D-18  0.23355080D-19  0.19612258D-04  0.19612258D-04
 -0.39224516D-04 -0.71852402D-20  0.12230619D-17  0.31573185D-18 -0.79872294D-07
 -0.79872294D-07  0.15974459D-06  0.30646986D-21 -0.20341837D-18 -0.13062469D-18
  0.98925781D-19 -0.85250181D-19  0.29017404D-05  0.12465735D-18 -0.68288667D-19
 -0.43526107D-05 -0.42143469D-18  0.32403921D-18 -0.43526107D-05  0.46062015D-19
 -0.67402509D-19  0.67695621D-19  0.52584436D-05 -0.69830650D-19  0.64659809D-19
 -0.78876654D-05  0.27203818D-18 -0.26774667D-18 -0.78876654D-05 -0.60181428D-20
  0.22658704D-03  0.42406966D-03  0.73456593D-03  0.12008500D-02  0.18648732D-02
  0.27306203D-02  0.36595539D-02  0.41987872D-02  0.36575014D-02  0.18710708D-02
  0.36145526D-03  0.11206731D-04  0.48879400D-06 -0.48767856D-09  0.36561592D-01
  0.68594028D-01  0.11850005D+00  0.19496881D+00  0.30289759D+00  0.45351763D+00
  0.62517657D+00  0.78735681D+00  0.80784196D+00  0.61933624D+00  0.93153656D-01
 -0.35436322D+00 -0.30346119D+00 -0.24713352D-03  0.27897389D-04  0.52239149D-04
  0.90500306D-04  0.14837307D-03  0.23166074D-03  0.34517683D-03  0.48027157D-03
  0.60224035D-03  0.63276615D-03  0.48623815D-03  0.82181490D-04 -0.32683804D-03
 -0.31724381D-03  0.19300340D-03 -0.69553393D-01 -0.43352337D-04  0.21792211D-05
 -0.95987464D-16 -0.12235354D-15 -0.12865860D-15 -0.10269411D-15 -0.53528700D-16
 -0.16720666D-16 -0.19308209D-17 -0.57146669D-20  0.34976491D-15  0.44583922D-15
  0.46881397D-15  0.37420301D-15  0.19505111D-15  0.60927773D-16  0.70356416D-17
  0.20823448D-19  0.22383132D-01  0.28531388D-01  0.30001652D-01  0.23947043D-01
  0.12482255D-01  0.38990601D-02  0.45024441D-03  0.13325922D-05  0.63129222D-16
  0.81320759D-16  0.85520739D-16  0.70037249D-16  0.36065039D-16  0.12648357D-16
  0.15344718D-17 -0.29694340D-17 -0.70420364D-16 -0.90712941D-16 -0.95398000D-16
 -0.78126237D-16 -0.40230389D-16 -0.14109185D-16 -0.17116964D-17  0.33123903D-17
 -0.41363588D-02 -0.53283064D-02 -0.56034979D-02 -0.45889872D-02 -0.23630569D-02
 -0.82874682D-03 -0.10054180D-03  0.19456353D-03  0.10728664D-17 -0.22041082D-18
 -0.10181547D-03  0.58118321D-18 -0.97619062D-18  0.13632770D-04 -0.21016124D-18
  0.15184577D-18 -0.23537197D-05 -0.15288114D-04 -0.15288114D-04  0.30576228D-04
  0.12393507D-18 -0.78788397D-19 -0.23906932D-18  0.19612258D-04  0.19612258D-04
 -0.39224516D-04 -0.23426762D-19  0.11056307D-17  0.55211636D-18 -0.79872301D-07
 -0.79872301D-07  0.15974460D-06  0.20448330D-21  0.17649710D-18 -0.33478954D-18
  0.14597100D-18 -0.38787203D-19 -0.29017404D-05  0.11200019D-18 -0.44089592D-19
  0.43526107D-05 -0.54991320D-18  0.16045120D-18  0.43526107D-05  0.30868695D-19
 -0.18317379D-18  0.53855122D-19 -0.52584436D-05 -0.18102733D-18  0.53429846D-19
  0.78876654D-05  0.73054869D-18 -0.21499521D-18  0.78876654D-05 -0.39616209D-20
MO    4     MO 0.0        OCC NO =    2.0000000  ORB. ENERGY =   -2.443932
 -0.17778013D-03 -0.33272493D-03 -0.57634022D-03 -0.94218656D-03 -0.14631790D-02
 -0.21424440D-02 -0.28712850D-02 -0.32943672D-02 -0.28696746D-02 -0.14680416D-02
 -0.28359769D-03 -0.87927982D-05 -0.38350763D-06  0.38263246D-09 -0.36733569D-01
 -0.68916677D-01 -0.11905745D+00 -0.19588589D+00 -0.30432235D+00 -0.45565087D+00
 -0.62811725D+00 -0.79106034D+00 -0.81164185D+00 -0.62224945D+00 -0.93591827D-01
  0.35603005D+00  0.30488860D+00  0.24829597D-03  0.10191952D-03  0.19084900D-03
  0.33063120D-03  0.54206189D-03  0.84634265D-03  0.12610590D-02  0.17546103D-02
  0.22002075D-02  0.23117295D-02  0.17764084D-02  0.30023948D-03 -0.11940607D-02
 -0.11590094D-02  0.70511302D-03  0.69564114D-01  0.98981914D-03  0.26006986D-03
 -0.26106502D-15 -0.33277503D-15 -0.34992341D-15 -0.27930565D-15 -0.14558642D-15
 -0.45476576D-16 -0.52514128D-17 -0.15542651D-19 -0.13957554D-15 -0.17791450D-15
 -0.18708270D-15 -0.14932769D-15 -0.77836176D-16 -0.24313550D-16 -0.28076100D-17
 -0.83097071D-20  0.17651722D-01  0.22500341D-01  0.23659817D-01  0.18885049D-01
  0.98437200D-02  0.30748656D-02  0.35507046D-03  0.10509050D-05  0.74946255D-16
  0.96543029D-16  0.10152920D-15  0.83147381D-16  0.42815982D-16  0.15015977D-16
  0.18217065D-17 -0.35252764D-17 -0.46445063D-16 -0.59828834D-16 -0.62918819D-16
 -0.51527396D-16 -0.26533560D-16 -0.93055752D-17 -0.11289326D-17  0.21846547D-17
  0.30099192D-03  0.38772680D-03  0.40775176D-03  0.33392849D-03  0.17195341D-03
  0.60305719D-04  0.73161618D-05 -0.14157875D-04 -0.89795669D-18  0.37771904D-18
 -0.36514570D-03  0.44630332D-19  0.54107986D-18 -0.16503507D-04  0.69748541D-19
 -0.18593524D-18 -0.11307494D-04  0.19789450D-04  0.19789450D-04 -0.39578900D-04
 -0.78783637D-19 -0.50025506D-18  0.30289195D-18 -0.24953478D-04 -0.24953478D-04
  0.49906956D-04  0.18332305D-19  0.53494915D-18  0.71948425D-18 -0.22957745D-05
 -0.22957745D-05  0.45915491D-05 -0.74978455D-21 -0.19506882D-18 -0.49945936D-19
  0.93714820D-19 -0.74830008D-19  0.61240914D-05  0.69136182D-19 -0.94769963D-19
 -0.91861370D-05 -0.35028064D-18  0.31925999D-18 -0.91861370D-05  0.11166411D-20
 -0.76650376D-19  0.10848973D-18 -0.28312359D-05 -0.76428861D-19  0.11267095D-18
  0.42468538D-05  0.30637999D-18 -0.43814013D-18  0.42468538D-05 -0.15292892D-20
  0.17778013D-03  0.33272493D-03  0.57634022D-03  0.94218656D-03  0.14631790D-02
  0.21424440D-02  0.28712850D-02  0.32943672D-02  0.28696746D-02  0.14680416D-02
  0.28359769D-03  0.87927982D-05  0.38350763D-06 -0.38263246D-09  0.36733569D-01
  0.68916677D-01  0.11905745D+00  0.19588589D+00  0.30432235D+00  0.45565087D+00
  0.62811725D+00  0.79106034D+00  0.81164185D+00  0.62224945D+00  0.93591827D-01
 -0.35603005D+00 -0.30488860D+00 -0.24829597D-03 -0.10191952D-03 -0.19084900D-03
 -0.33063120D-03 -0.54206189D-03 -0.84634265D-03 -0.12610590D-02 -0.17546103D-02
 -0.22002075D-02 -0.23117295D-02 -0.17764084D-02 -0.30023948D-03  0.11940607D-02
  0.11590094D-02 -0.70511302D-03 -0.69564114D-01 -0.98981914D-03 -0.26006986D-03
 -0.16706848D-15 -0.21295927D-15 -0.22393337D-15 -0.17874156D-15 -0.93167982D-16
 -0.29102720D-16 -0.33606399D-17 -0.99465144D-20 -0.18541633D-15 -0.23634696D-15
 -0.24852626D-15 -0.19837138D-15 -0.10339991D-15 -0.32298849D-16 -0.37297133D-17
 -0.11038864D-19  0.17651722D-01  0.22500341D-01  0.23659817D-01  0.18885049D-01
  0.98437200D-02  0.30748656D-02  0.35507046D-03  0.10509050D-05  0.57132135D-16
  0.73595530D-16  0.77396525D-16  0.63383920D-16  0.32638968D-16  0.11446801D-16
  0.13887015D-17 -0.26873466D-17 -0.13447088D-16 -0.17322048D-16 -0.18216681D-16
 -0.14918559D-16 -0.76821754D-17 -0.26942129D-17 -0.32685619D-18  0.63251596D-18
  0.30099192D-03  0.38772680D-03  0.40775176D-03  0.33392849D-03  0.17195341D-03
  0.60305719D-04  0.73161617D-05 -0.14157875D-04  0.45601524D-18  0.22428061D-17
 -0.36514570D-03  0.57873557D-18 -0.14318323D-17 -0.16503507D-04 -0.18854918D-18
  0.28251748D-18 -0.11307494D-04 -0.19789450D-04 -0.19789450D-04  0.39578900D-04
  0.11985732D-18  0.12972765D-18 -0.55733012D-18  0.24953478D-04  0.24953478D-04
 -0.49906956D-04 -0.22855979D-19  0.34916161D-18  0.11743339D-17  0.22957745D-05
  0.22957745D-05 -0.45915491D-05  0.61398842D-21  0.17025757D-18 -0.31907553D-18
  0.12070604D-18 -0.28671160D-19  0.61240914D-05  0.90534450D-19 -0.33087118D-19
 -0.91861370D-05 -0.45265258D-18  0.11910060D-18 -0.91861370D-05  0.25439569D-19
 -0.14552661D-18  0.20854779D-19 -0.28312359D-05 -0.14186818D-18  0.19401563D-19
  0.42468538D-05  0.57844801D-18 -0.81965900D-19  0.42468538D-05 -0.40444478D-20
MO    5     MO 0.0        OCC NO =    2.0000000  ORB. ENERGY =   -1.291331
  0.11988913D-03  0.22437887D-03  0.38866510D-03  0.63537997D-03  0.98672032D-03
  0.14447945D-02  0.19363012D-02  0.22216141D-02  0.19352152D-02  0.98999953D-03
  0.19124906D-03  0.59295771D-05  0.25862507D-06 -0.25803489D-09 -0.47246530D-03
 -0.88640281D-03 -0.15313109D-02 -0.25194744D-02 -0.39141786D-02 -0.58605584D-02
 -0.80788122D-02 -0.10174578D-01 -0.10439296D-01 -0.80033409D-02 -0.12037733D-02
  0.45792405D-02  0.39214617D-02  0.31935702D-05  0.52522451D-04  0.98350714D-04
  0.17038504D-03  0.27934217D-03  0.43614797D-03  0.64986486D-03  0.90420790D-03
  0.11338387D-02  0.11913096D-02  0.91544120D-03  0.15472320D-03 -0.61533841D-03
 -0.59727533D-03  0.36336774D-03 -0.40853797D-03 -0.56932455D-04 -0.29126863D-05
  0.13090124D-12  0.16685753D-12  0.17545594D-12  0.14004732D-12  0.72998839D-13
  0.22802520D-13  0.26331236D-14  0.77932782D-17  0.13582056D-11  0.17312810D-11
  0.18204964D-11  0.14531035D-11  0.75742164D-12  0.23659447D-12  0.27320774D-13
  0.80861526D-16 -0.21815141D+01 -0.27807379D+01 -0.29240334D+01 -0.23339366D+01
 -0.12165507D+01 -0.38001181D+00 -0.43881907D-01 -0.12987765D-03 -0.73846425D-15
 -0.95126268D-15 -0.10003926D-14 -0.81927200D-15 -0.42187661D-15 -0.14795619D-15
 -0.17949731D-16  0.34735433D-16 -0.65091659D-14 -0.83848699D-14 -0.88179240D-14
 -0.72214429D-14 -0.37186158D-14 -0.13041544D-14 -0.15821724D-15  0.30617419D-15
  0.13840396D-01  0.17828693D-01  0.18749493D-01  0.15354906D-01  0.79068681D-02
  0.27730148D-02  0.33641627D-03 -0.65101615D-03 -0.88823464D-17  0.94647814D-17
  0.12783891D-03  0.10711830D-17 -0.24033033D-17 -0.51319751D-05 -0.15154223D-18
  0.34694123D-18  0.37209248D-05  0.13026618D-04  0.13026618D-04 -0.26053236D-04
 -0.11690325D-19  0.61781571D-17  0.11232088D-15  0.61901288D-05  0.61901288D-05
 -0.12380258D-04 -0.20736440D-20  0.96811815D-18 -0.54189232D-16  0.17423458D-05
  0.17423458D-05 -0.34846916D-05  0.54595749D-21  0.13178440D-18  0.17167051D-17
 -0.42300738D-18  0.45416735D-18 -0.12241897D-04 -0.41487759D-18  0.45206491D-18
  0.18362845D-04  0.16838997D-17 -0.18145669D-17  0.18362845D-04  0.48643128D-19
  0.14171298D-18 -0.13066940D-17  0.52666665D-05  0.14134143D-18 -0.13063637D-17
 -0.78999997D-05 -0.56648036D-18  0.52264456D-17 -0.78999997D-05 -0.61707171D-20
  0.11988913D-03  0.22437887D-03  0.38866510D-03  0.63537997D-03  0.98672032D-03
  0.14447945D-02  0.19363012D-02  0.22216141D-02  0.19352152D-02  0.98999952D-03
  0.19124906D-03  0.59295771D-05  0.25862507D-06 -0.25803489D-09 -0.47246530D-03
 -0.88640280D-03 -0.15313109D-02 -0.25194744D-02 -0.39141786D-02 -0.58605583D-02
 -0.80788122D-02 -0.10174578D-01 -0.10439296D-01 -0.80033408D-02 -0.12037733D-02
  0.45792405D-02  0.39214617D-02  0.31935702D-05  0.52522450D-04  0.98350712D-04
  0.17038504D-03  0.27934217D-03  0.43614797D-03  0.64986485D-03  0.90420788D-03
  0.11338387D-02  0.11913096D-02  0.91544118D-03  0.15472319D-03 -0.61533840D-03
 -0.59727532D-03  0.36336774D-03 -0.40853796D-03 -0.56932500D-04 -0.29126372D-05
  0.15925596D-12  0.20300079D-12  0.21346172D-12  0.17038318D-12  0.88811227D-13
  0.27741808D-13  0.32034885D-14  0.94813919D-17  0.13891005D-12  0.17706621D-12
  0.18619069D-12  0.14861570D-12  0.77465054D-13  0.24197624D-13  0.27942234D-14
  0.82700866D-17  0.21815141D+01  0.27807379D+01  0.29240334D+01  0.23339366D+01
  0.12165507D+01  0.38001181D+00  0.43881907D-01  0.12987765D-03 -0.79539053D-15
 -0.10245930D-14 -0.10775103D-14 -0.88242754D-15 -0.45439797D-15 -0.15936175D-15
 -0.19333429D-16  0.37413096D-16 -0.34847371D-15 -0.44889111D-15 -0.47207502D-15
 -0.38660606D-15 -0.19907925D-15 -0.69819010D-16 -0.84702940D-17  0.16391295D-16
 -0.13840396D-01 -0.17828693D-01 -0.18749493D-01 -0.15354906D-01 -0.79068680D-02
 -0.27730148D-02 -0.33641627D-03  0.65101615D-03 -0.13861146D-17 -0.42095418D-16
 -0.12783892D-03 -0.32949371D-19  0.10332296D-16  0.51319736D-05  0.31159793D-19
 -0.14621027D-17 -0.37209225D-05  0.13026617D-04  0.13026617D-04 -0.26053235D-04
  0.40922334D-20 -0.10569587D-16  0.27443814D-16  0.61901295D-05  0.61901295D-05
 -0.12380259D-04  0.50863042D-20  0.40590165D-17 -0.36171664D-16  0.17423459D-05
  0.17423459D-05 -0.34846917D-05 -0.70164459D-21 -0.16531249D-18  0.72026158D-18
 -0.25420246D-18 -0.40068450D-17  0.12241897D-04 -0.26021407D-18 -0.40122748D-17