 Molden2AIM, Version 4.0.0 (06/02/2016)           Time: Sun Jul  1 16:17:03 2018
GAUSSIAN             23 MOL ORBITALS    403 PRIMITIVES        2 NUCLEI
  Na   1    (CENTRE  1)   0.00000000  0.00000000 -0.95575166  CHARGE = 11.0
  Br   2    (CENTRE  2)   0.00000000  0.00000000  3.79034085  CHARGE = 35.0
CENTRE ASSIGNMENTS    1  1  1  1  1  1  1  1  1  1  1  1  1  1  1  1  1  1  1  1
CENTRE ASSIGNMENTS    1  1  1  1  1  1  1  1  1  1  1  1  1  1  1  1  1  1  1  1
CENTRE ASSIGNMENTS    1  1  1  1  1  1  1  1  1  1  1  1  1  1  1  1  1  1  1  1
CENTRE ASSIGNMENTS    1  1  1  1  1  1  1  1  1  1  1  1  1  1  1  1  1  1  1  1
CENTRE ASSIGNMENTS    1  1  1  1  1  1  1  1  1  1  1  1  1  1  1  1  1  1  1  1
CENTRE ASSIGNMENTS    1  1  1  1  1  1  1  1  1  1  1  1  1  1  1  1  1  1  1  1
CENTRE ASSIGNMENTS    1  1  1  1  1  1  1  1  1  1  1  1  1  1  1  1  1  1  1  1
CENTRE ASSIGNMENTS    2  2  2  2  2  2  2  2  2  2  2  2  2  2  2  2  2  2  2  2
CENTRE ASSIGNMENTS    2  2  2  2  2  2  2  2  2  2  2  2  2  2  2  2  2  2  2  2
CENTRE ASSIGNMENTS    2  2  2  2  2  2  2  2  2  2  2  2  2  2  2  2  2  2  2  2
CENTRE ASSIGNMENTS    2  2  2  2  2  2  2  2  2  2  2  2  2  2  2  2  2  2  2  2
CENTRE ASSIGNMENTS    2  2  2  2  2  2  2  2  2  2  2  2  2  2  2  2  2  2  2  2
CENTRE ASSIGNMENTS    2  2  2  2  2  2  2  2  2  2  2  2  2  2  2  2  2  2  2  2
CENTRE ASSIGNMENTS    2  2  2  2  2  2  2  2  2  2  2  2  2  2  2  2  2  2  2  2
CENTRE ASSIGNMENTS    2  2  2  2  2  2  2  2  2  2  2  2  2  2  2  2  2  2  2  2
CENTRE ASSIGNMENTS    2  2  2  2  2  2  2  2  2  2  2  2  2  2  2  2  2  2  2  2
CENTRE ASSIGNMENTS    2  2  2  2  2  2  2  2  2  2  2  2  2  2  2  2  2  2  2  2
CENTRE ASSIGNMENTS    2  2  2  2  2  2  2  2  2  2  2  2  2  2  2  2  2  2  2  2
CENTRE ASSIGNMENTS    2  2  2  2  2  2  2  2  2  2  2  2  2  2  2  2  2  2  2  2
CENTRE ASSIGNMENTS    2  2  2  2  2  2  2  2  2  2  2  2  2  2  2  2  2  2  2  2
CENTRE ASSIGNMENTS    2  2  2
TYPE ASSIGNMENTS      1  1  1  1  1  1  1  1  1  1  1  1  1  1  1  1  1  1  1  1
TYPE ASSIGNMENTS      1  1  1  1  1  1  1  1  1  1  1  1  1  1  1  1  1  1  1  1
TYPE ASSIGNMENTS      1  1  1  1  1  2  2  2  2  2  2  2  2  3  3  3  3  3  3  3
TYPE ASSIGNMENTS      3  4  4  4  4  4  4  4  4  2  2  2  2  2  2  2  2  3  3  3
TYPE ASSIGNMENTS      3  3  3  3  3  4  4  4  4  4  4  4  4  2  3  4  2  3  4  2
TYPE ASSIGNMENTS      3  4  5  6  7  8  9 10  5  6  7  8  9 10  5  6  7  8  9 10
TYPE ASSIGNMENTS     11 12 13 17 14 15 18 19 16 20 11 12 13 17 14 15 18 19 16 20
TYPE ASSIGNMENTS      1  1  1  1  1  1  1  1  1  1  1  1  1  1  1  1  1  1  1  1
TYPE ASSIGNMENTS      1  1  1  1  1  1  1  1  1  1  1  1  1  1  1  1  1  1  1  1
TYPE ASSIGNMENTS      1  1  1  1  1  1  1  1  1  1  1  1  1  1  1  1  1  1  1  1
TYPE ASSIGNMENTS      1  1  1  1  1  1  1  1  1  1  1  1  1  1  1  2  2  2  2  2
TYPE ASSIGNMENTS      2  2  2  2  2  2  3  3  3  3  3  3  3  3  3  3  3  4  4  4
TYPE ASSIGNMENTS      4  4  4  4  4  4  4  4  2  2  2  2  2  2  2  2  2  2  2  3
TYPE ASSIGNMENTS      3  3  3  3  3  3  3  3  3  3  4  4  4  4  4  4  4  4  4  4
TYPE ASSIGNMENTS      4  2  2  2  2  2  2  2  2  2  2  2  3  3  3  3  3  3  3  3
TYPE ASSIGNMENTS      3  3  3  4  4  4  4  4  4  4  4  4  4  4  2  3  4  2  3  4
TYPE ASSIGNMENTS      2  3  4  5  5  5  5  5  5  5  6  6  6  6  6  6  6  7  7  7
TYPE ASSIGNMENTS      7  7  7  7  8  8  8  8  8  8  8  9  9  9  9  9  9  9 10 10
TYPE ASSIGNMENTS     10 10 10 10 10  5  6  7  8  9 10  5  6  7  8  9 10  5  6  7
TYPE ASSIGNMENTS      8  9 10 11 12 13 17 14 15 18 19 16 20 11 12 13 17 14 15 18
TYPE ASSIGNMENTS     19 16 20
EXPONENTS  0.4230000D+06 0.6334000D+05 0.1441000D+05 0.4077000D+04 0.1328000D+04
EXPONENTS  0.4786000D+03 0.1862000D+03 0.7692000D+02 0.3332000D+02 0.1500000D+02
EXPONENTS  0.6869000D+01 0.2683000D+01 0.1109000D+01 0.6015000D-01 0.4230000D+06
EXPONENTS  0.6334000D+05 0.1441000D+05 0.4077000D+04 0.1328000D+04 0.4786000D+03
EXPONENTS  0.1862000D+03 0.7692000D+02 0.3332000D+02 0.1500000D+02 0.6869000D+01
EXPONENTS  0.2683000D+01 0.1109000D+01 0.6015000D-01 0.4230000D+06 0.6334000D+05
EXPONENTS  0.1441000D+05 0.4077000D+04 0.1328000D+04 0.4786000D+03 0.1862000D+03
EXPONENTS  0.7692000D+02 0.3332000D+02 0.1500000D+02 0.6869000D+01 0.2683000D+01
EXPONENTS  0.1109000D+01 0.6015000D-01 0.4540000D+00 0.2382000D-01 0.6650000D-02
EXPONENTS  0.2433000D+03 0.5739000D+02 0.1810000D+02 0.6575000D+01 0.2521000D+01
EXPONENTS  0.9607000D+00 0.3512000D+00 0.9827000D-01 0.2433000D+03 0.5739000D+02
EXPONENTS  0.1810000D+02 0.6575000D+01 0.2521000D+01 0.9607000D+00 0.3512000D+00
EXPONENTS  0.9827000D-01 0.2433000D+03 0.5739000D+02 0.1810000D+02 0.6575000D+01
EXPONENTS  0.2521000D+01 0.9607000D+00 0.3512000D+00 0.9827000D-01 0.2433000D+03
EXPONENTS  0.5739000D+02 0.1810000D+02 0.6575000D+01 0.2521000D+01 0.9607000D+00
EXPONENTS  0.3512000D+00 0.9827000D-01 0.2433000D+03 0.5739000D+02 0.1810000D+02
EXPONENTS  0.6575000D+01 0.2521000D+01 0.9607000D+00 0.3512000D+00 0.9827000D-01
EXPONENTS  0.2433000D+03 0.5739000D+02 0.1810000D+02 0.6575000D+01 0.2521000D+01
EXPONENTS  0.9607000D+00 0.3512000D+00 0.9827000D-01 0.3734000D-01 0.3734000D-01
EXPONENTS  0.3734000D-01 0.1500000D-01 0.1500000D-01 0.1500000D-01 0.7000000D-02
EXPONENTS  0.7000000D-02 0.7000000D-02 0.1367000D+00 0.1367000D+00 0.1367000D+00
EXPONENTS  0.1367000D+00 0.1367000D+00 0.1367000D+00 0.6360000D-01 0.6360000D-01
EXPONENTS  0.6360000D-01 0.6360000D-01 0.6360000D-01 0.6360000D-01 0.2230000D-01
EXPONENTS  0.2230000D-01 0.2230000D-01 0.2230000D-01 0.2230000D-01 0.2230000D-01
EXPONENTS  0.1397000D+00 0.1397000D+00 0.1397000D+00 0.1397000D+00 0.1397000D+00
EXPONENTS  0.1397000D+00 0.1397000D+00 0.1397000D+00 0.1397000D+00 0.1397000D+00
EXPONENTS  0.7140000D-01 0.7140000D-01 0.7140000D-01 0.7140000D-01 0.7140000D-01
EXPONENTS  0.7140000D-01 0.7140000D-01 0.7140000D-01 0.7140000D-01 0.7140000D-01
EXPONENTS  0.1063900D+08 0.1593400D+07 0.3626100D+06 0.1027000D+06 0.3350100D+05
EXPONENTS  0.1209300D+05 0.4715900D+04 0.1955600D+04 0.8526100D+03 0.3876700D+03
EXPONENTS  0.1826800D+03 0.8824500D+02 0.3926300D+02 0.1923400D+02 0.9405700D+01
EXPONENTS  0.4160100D+01 0.1899500D+01 0.3011400D+00 0.1063900D+08 0.1593400D+07
EXPONENTS  0.3626100D+06 0.1027000D+06 0.3350100D+05 0.1209300D+05 0.4715900D+04
EXPONENTS  0.1955600D+04 0.8526100D+03 0.3876700D+03 0.1826800D+03 0.8824500D+02
EXPONENTS  0.3926300D+02 0.1923400D+02 0.9405700D+01 0.4160100D+01 0.1899500D+01
EXPONENTS  0.3011400D+00 0.1063900D+08 0.1593400D+07 0.3626100D+06 0.1027000D+06
EXPONENTS  0.3350100D+05 0.1209300D+05 0.4715900D+04 0.1955600D+04 0.8526100D+03
EXPONENTS  0.3876700D+03 0.1826800D+03 0.8824500D+02 0.3926300D+02 0.1923400D+02
EXPONENTS  0.9405700D+01 0.4160100D+01 0.1899500D+01 0.3011400D+00 0.1063900D+08
EXPONENTS  0.1593400D+07 0.3626100D+06 0.1027000D+06 0.3350100D+05 0.1209300D+05
EXPONENTS  0.4715900D+04 0.1955600D+04 0.8526100D+03 0.3876700D+03 0.1826800D+03
EXPONENTS  0.8824500D+02 0.3926300D+02 0.1923400D+02 0.9405700D+01 0.4160100D+01
EXPONENTS  0.1899500D+01 0.3011400D+00 0.6047200D+00 0.1251500D+00 0.4559300D-01
EXPONENTS  0.8676500D+04 0.2055900D+04 0.6662300D+03 0.2531000D+03 0.1061200D+03
EXPONENTS  0.4724200D+02 0.2182500D+02 0.9968400D+01 0.4517100D+01 0.1998200D+01
EXPONENTS  0.2814500D+00 0.8676500D+04 0.2055900D+04 0.6662300D+03 0.2531000D+03
EXPONENTS  0.1061200D+03 0.4724200D+02 0.2182500D+02 0.9968400D+01 0.4517100D+01
EXPONENTS  0.1998200D+01 0.2814500D+00 0.8676500D+04 0.2055900D+04 0.6662300D+03
EXPONENTS  0.2531000D+03 0.1061200D+03 0.4724200D+02 0.2182500D+02 0.9968400D+01
EXPONENTS  0.4517100D+01 0.1998200D+01 0.2814500D+00 0.8676500D+04 0.2055900D+04
EXPONENTS  0.6662300D+03 0.2531000D+03 0.1061200D+03 0.4724200D+02 0.2182500D+02
EXPONENTS  0.9968400D+01 0.4517100D+01 0.1998200D+01 0.2814500D+00 0.8676500D+04
EXPONENTS  0.2055900D+04 0.6662300D+03 0.2531000D+03 0.1061200D+03 0.4724200D+02
EXPONENTS  0.2182500D+02 0.9968400D+01 0.4517100D+01 0.1998200D+01 0.2814500D+00
EXPONENTS  0.8676500D+04 0.2055900D+04 0.6662300D+03 0.2531000D+03 0.1061200D+03
EXPONENTS  0.4724200D+02 0.2182500D+02 0.9968400D+01 0.4517100D+01 0.1998200D+01
EXPONENTS  0.2814500D+00 0.8676500D+04 0.2055900D+04 0.6662300D+03 0.2531000D+03
EXPONENTS  0.1061200D+03 0.4724200D+02 0.2182500D+02 0.9968400D+01 0.4517100D+01
EXPONENTS  0.1998200D+01 0.2814500D+00 0.8676500D+04 0.2055900D+04 0.6662300D+03
EXPONENTS  0.2531000D+03 0.1061200D+03 0.4724200D+02 0.2182500D+02 0.9968400D+01
EXPONENTS  0.4517100D+01 0.1998200D+01 0.2814500D+00 0.8676500D+04 0.2055900D+04
EXPONENTS  0.6662300D+03 0.2531000D+03 0.1061200D+03 0.4724200D+02 0.2182500D+02
EXPONENTS  0.9968400D+01 0.4517100D+01 0.1998200D+01 0.2814500D+00 0.7098800D+00
EXPONENTS  0.7098800D+00 0.7098800D+00 0.1020400D+00 0.1020400D+00 0.1020400D+00
EXPONENTS  0.3514200D-01 0.3514200D-01 0.3514200D-01 0.4038300D+03 0.1211700D+03
EXPONENTS  0.4634500D+02 0.1972100D+02 0.8862400D+01 0.3996200D+01 0.1763600D+01
EXPONENTS  0.4038300D+03 0.1211700D+03 0.4634500D+02 0.1972100D+02 0.8862400D+01
EXPONENTS  0.3996200D+01 0.1763600D+01 0.4038300D+03 0.1211700D+03 0.4634500D+02
EXPONENTS  0.1972100D+02 0.8862400D+01 0.3996200D+01 0.1763600D+01 0.4038300D+03
EXPONENTS  0.1211700D+03 0.4634500D+02 0.1972100D+02 0.8862400D+01 0.3996200D+01
EXPONENTS  0.1763600D+01 0.4038300D+03 0.1211700D+03 0.4634500D+02 0.1972100D+02
EXPONENTS  0.8862400D+01 0.3996200D+01 0.1763600D+01 0.4038300D+03 0.1211700D+03
EXPONENTS  0.4634500D+02 0.1972100D+02 0.8862400D+01 0.3996200D+01 0.1763600D+01
EXPONENTS  0.7061900D+00 0.7061900D+00 0.7061900D+00 0.7061900D+00 0.7061900D+00
EXPONENTS  0.7061900D+00 0.2639000D+00 0.2639000D+00 0.2639000D+00 0.2639000D+00
EXPONENTS  0.2639000D+00 0.2639000D+00 0.1047000D+00 0.1047000D+00 0.1047000D+00
EXPONENTS  0.1047000D+00 0.1047000D+00 0.1047000D+00 0.5515000D+00 0.5515000D+00
EXPONENTS  0.5515000D+00 0.5515000D+00 0.5515000D+00 0.5515000D+00 0.5515000D+00
EXPONENTS  0.5515000D+00 0.5515000D+00 0.5515000D+00 0.2580000D+00 0.2580000D+00
EXPONENTS  0.2580000D+00 0.2580000D+00 0.2580000D+00 0.2580000D+00 0.2580000D+00
EXPONENTS  0.2580000D+00 0.2580000D+00 0.2580000D+00
MO    1     MO 0.0        OCC NO =    2.0000000  ORB. ENERGY = -485.405946
 -0.15505024D-05 -0.29018474D-05 -0.50265286D-05 -0.82172432D-05 -0.12761058D-04
 -0.18685241D-04 -0.25041799D-04 -0.28731694D-04 -0.25027754D-04 -0.12803468D-04
 -0.24733862D-05 -0.76686045D-07 -0.33447468D-08  0.33371140D-11  0.47888873D-05
  0.89845395D-05  0.15521299D-04  0.25537281D-04  0.39673941D-04  0.59402359D-04
  0.81886482D-04  0.10312907D-03  0.10581225D-03  0.81121508D-04  0.12201393D-04
 -0.46414979D-04 -0.39747762D-04 -0.32369886D-07 -0.35414707D-05 -0.66315673D-05
 -0.11488680D-04 -0.18835414D-04 -0.29408476D-04 -0.43818925D-04 -0.60968703D-04
 -0.76452190D-04 -0.80327327D-04 -0.61726139D-04 -0.10432637D-04  0.41490884D-04
  0.40272931D-04 -0.24501069D-04  0.63960760D-05 -0.15442964D-05  0.42614075D-07
  0.26119600D-15  0.33294198D-15  0.35009896D-15  0.27944578D-15  0.14565946D-15
  0.45499391D-16  0.52540474D-17  0.15550449D-19 -0.81816422D-16 -0.10428996D-15
 -0.10966418D-15 -0.87532940D-16 -0.45626028D-16 -0.14252123D-16 -0.16457655D-17
 -0.48709861D-20 -0.32389305D-03 -0.41286081D-03 -0.43413613D-03 -0.34652347D-03
 -0.18062331D-03 -0.56420989D-04 -0.65152201D-05 -0.19283152D-07  0.34345081D-16
  0.44242079D-16  0.46527053D-16  0.38103352D-16  0.19620972D-16  0.68812639D-17
  0.83482031D-18 -0.16155030D-17  0.12893387D-15  0.16608790D-15  0.17466585D-15
  0.14304268D-15  0.73658518D-16  0.25832752D-16  0.31339746D-17 -0.60647129D-17
  0.30665706D-03  0.39502443D-03  0.41542629D-03  0.34021355D-03  0.17518985D-03
  0.61440768D-04  0.74538635D-05 -0.14424349D-04  0.19225920D-18 -0.48105034D-17
 -0.22948330D-05 -0.11487685D-17  0.63531486D-18  0.13749322D-06  0.45070499D-19
 -0.15884573D-19 -0.13807087D-07  0.14993126D-05  0.14993126D-05 -0.29986252D-05
 -0.14345810D-22  0.19400368D-17  0.63399512D-18  0.39532476D-06  0.39532476D-06
 -0.79064951D-06  0.99311323D-23 -0.38010022D-17 -0.32109031D-17 -0.16882650D-09
 -0.16882650D-09  0.33765300D-09  0.25234107D-24 -0.10132475D-18 -0.13806457D-18
 -0.23956468D-18  0.18961355D-19 -0.30213402D-06 -0.23956657D-18  0.18960535D-19
  0.45320103D-06  0.95826062D-18 -0.75844599D-19  0.45320103D-06 -0.17307438D-22
  0.35053808D-18  0.11879517D-18 -0.46902631D-07  0.35053848D-18  0.11879569D-18
  0.70353946D-07 -0.14021527D-17 -0.47518121D-18  0.70353946D-07  0.71480519D-23
  0.78330643D+00  0.14734948D+01  0.25506921D+01  0.41810724D+01  0.65497310D+01
  0.98448034D+01  0.14070697D+02  0.18679200D+02  0.21754466D+02  0.19981266D+02
  0.11683832D+02  0.30658960D+01  0.16761134D+00 -0.59991366D-02  0.16765694D-02
 -0.49783002D-03  0.84871399D-04  0.69243388D-05  0.48501538D-04  0.89112354D-04
  0.15409580D-03  0.25235340D-03  0.39731909D-03  0.59999076D-03  0.87580329D-03
  0.12060343D-02  0.15409890D-02  0.16798586D-02  0.13827823D-02  0.37914950D-03
 -0.76476914D-03 -0.74530093D-03 -0.16309284D-03 -0.54944476D-05 -0.18613433D-06
  0.47350172D-09 -0.31060558D-04 -0.60891136D-04 -0.10664932D-03 -0.17423028D-03
 -0.27480311D-03 -0.41466563D-03 -0.60798220D-03 -0.83942000D-03 -0.10883122D-02
 -0.12102672D-02 -0.10511916D-02 -0.30535235D-03  0.76978957D-03  0.11216376D-02
  0.19309393D-03 -0.47106651D-03 -0.22421578D-03  0.10828065D-05  0.10916718D-04
  0.23653892D-04  0.40267000D-04  0.65726588D-04  0.10361152D-03  0.15637970D-03
  0.22927813D-03  0.31696074D-03  0.41138324D-03  0.45958702D-03  0.40145967D-03
  0.11891274D-03 -0.30910483D-03 -0.47550770D-03 -0.83228368D-04  0.26253929D-03
  0.22285615D-03 -0.83145638D-04  0.69215776D-04  0.46185791D-04  0.12347421D-04
 -0.15309913D-16 -0.21967014D-16 -0.29085494D-16 -0.33585505D-16 -0.31135308D-16
 -0.20157566D-16 -0.71148806D-17 -0.83392536D-18 -0.12123731D-19 -0.17753855D-20
 -0.18253720D-22 -0.23118961D-16 -0.33171616D-16 -0.43920984D-16 -0.50716292D-16
 -0.47016336D-16 -0.30439233D-16 -0.10743931D-16 -0.12592814D-17 -0.18307621D-19
 -0.26809473D-20 -0.27564301D-22 -0.44118513D-04 -0.63302256D-04 -0.83815552D-04
 -0.96783215D-04 -0.89722493D-04 -0.58087977D-04 -0.20502923D-04 -0.24031193D-05
 -0.34936907D-07 -0.51161212D-08 -0.52601671D-10 -0.15788611D-16 -0.22791041D-16
 -0.30448286D-16 -0.36173499D-16 -0.35054893D-16 -0.24367622D-16 -0.79289905D-17
  0.35686750D-17  0.38553596D-17  0.99255052D-18 -0.96814138D-21  0.12266668D-15
  0.17707077D-15  0.23656231D-15  0.28104328D-15  0.27235248D-15  0.18931972D-15
  0.61602820D-16 -0.27726158D-16 -0.29953501D-16 -0.77114370D-17  0.75217947D-20
 -0.16005021D-03 -0.23103432D-03 -0.30865633D-03 -0.36669319D-03 -0.35535381D-03
 -0.24701622D-03 -0.80376710D-04  0.36175898D-04  0.39082039D-04  0.10061551D-04
 -0.98141143D-08 -0.82299260D-16 -0.11958447D-15 -0.15898895D-15 -0.19077573D-15
 -0.18457636D-15 -0.13102773D-15 -0.40723747D-16  0.23381006D-16  0.26859586D-16
  0.71327991D-17 -0.25735362D-17  0.43065061D-16  0.62575445D-16  0.83194779D-16
  0.99827976D-16  0.96584009D-16  0.68563400D-16  0.21309677D-16 -0.12234672D-16
 -0.14054923D-16 -0.37324082D-17  0.13466645D-17  0.11035263D-03  0.16034726D-03
  0.21318354D-03  0.25580549D-03  0.24749295D-03  0.17569118D-03  0.54605259D-04
 -0.31350895D-04 -0.36015219D-04 -0.95641579D-05  0.34507780D-05 -0.12772641D-17
  0.71820074D-17 -0.82898519D-06  0.71153864D-17  0.57993629D-17 -0.16452426D-04
  0.32132639D-17  0.32150942D-17 -0.81832211D-06 -0.42455178D-04 -0.44424769D-04
 -0.37852281D-04 -0.24928589D-04 -0.11488844D-04 -0.34403531D-05 -0.58534691D-06
 -0.42455178D-04 -0.44424769D-04 -0.37852281D-04 -0.24928589D-04 -0.11488844D-04
 -0.34403531D-05 -0.58534691D-06  0.84910356D-04  0.88849539D-04  0.75704563D-04
  0.49857178D-04  0.22977689D-04  0.68807061D-05  0.11706938D-05  0.10521297D-18
  0.11009403D-18  0.93806008D-19  0.61778348D-19  0.28471801D-19  0.85259270D-20
  0.14506142D-20  0.83522559D-15  0.87397359D-15  0.74467228D-15  0.49042299D-15
  0.22602136D-15  0.67682461D-16  0.11515597D-16  0.90323382D-15  0.94513687D-15
  0.80530720D-15  0.53035567D-15  0.24442514D-15  0.73193504D-16  0.12453254D-16
  0.26761776D-05  0.26761776D-05 -0.53523552D-05 -0.10699355D-19 -0.10439274D-16
 -0.83745493D-17 -0.14723110D-05 -0.14723110D-05  0.29446221D-05  0.10939358D-20
  0.33829995D-18  0.15696564D-17 -0.96181348D-06 -0.96181348D-06  0.19236270D-05
 -0.11530714D-21 -0.52661781D-17 -0.52709890D-17  0.74792994D-19  0.46631887D-18
  0.24223336D-05  0.74777480D-19  0.46613834D-18 -0.36335004D-05 -0.29915646D-18
 -0.18650950D-17 -0.36335004D-05 -0.45175763D-21  0.17287896D-18 -0.15893422D-18
 -0.13284359D-05  0.17288740D-18 -0.15891500D-18  0.19926538D-05 -0.69152428D-18
  0.63571766D-18  0.19926538D-05  0.48933794D-22
MO    2     MO 0.0        OCC NO =    2.0000000  ORB. ENERGY =  -63.400308
 -0.49964034D-04 -0.93510339D-04 -0.16197695D-03 -0.26479586D-03 -0.41121765D-03
 -0.60212098D-03 -0.80695736D-03 -0.92586208D-03 -0.80650477D-03 -0.41258426D-03
 -0.79703425D-04 -0.24711630D-05 -0.10778251D-06  0.10753655D-09  0.15423376D-03
  0.28936144D-03  0.49988822D-03  0.82246891D-03  0.12777626D-02  0.19131478D-02
  0.26372849D-02  0.33214364D-02  0.34078523D-02  0.26126477D-02  0.39296535D-03
 -0.14948685D-02 -0.12801401D-02 -0.10425239D-05 -0.11407419D-03 -0.21360919D-03
 -0.37006148D-03 -0.60670688D-03 -0.94727543D-03 -0.14114499D-02 -0.19638608D-02
 -0.24625989D-02 -0.25874208D-02 -0.19882586D-02 -0.33604531D-03  0.13364615D-02
  0.12972300D-02 -0.78920310D-03  0.20619350D-03 -0.49290084D-04  0.13634714D-05
 -0.66579118D-15 -0.84867239D-15 -0.89240571D-15 -0.71231004D-15 -0.37128740D-15
 -0.11597840D-15 -0.13392619D-16 -0.39638247D-19  0.35885833D-15  0.45743045D-15
  0.48100251D-15  0.38393179D-15  0.20012217D-15  0.62511814D-16  0.72185589D-17
  0.21364830D-19 -0.10434748D-01 -0.13300991D-01 -0.13986410D-01 -0.11163824D-01
 -0.58190774D-02 -0.18176950D-02 -0.20989854D-03 -0.62123850D-06  0.69053420D-16
  0.88952094D-16  0.93546210D-16  0.76609712D-16  0.39449469D-16  0.13835309D-16
  0.16784703D-17 -0.32480928D-17 -0.22907860D-16 -0.29509069D-16 -0.31033126D-16
 -0.25414593D-16 -0.13087012D-16 -0.45897411D-17 -0.55681764D-18  0.10775260D-17
  0.98821764D-02  0.12729859D-01  0.13387319D-01  0.10963551D-01  0.56455801D-02
  0.19799593D-02  0.24020446D-03 -0.46483181D-03  0.23893662D-18  0.13480273D-17
 -0.73715104D-04 -0.18504969D-18 -0.29032685D-18  0.44445532D-05  0.65201076D-19
  0.10406168D-18 -0.44644950D-06  0.48425506D-04  0.48425506D-04 -0.96851012D-04
  0.38267583D-21 -0.84887817D-18 -0.21292519D-18  0.12705820D-04  0.12705820D-04
 -0.25411641D-04 -0.41138581D-21 -0.12439840D-18  0.45170421D-18 -0.78384983D-08
 -0.78384983D-08  0.15676997D-07 -0.19467612D-22 -0.41410325D-19  0.63939512D-19
  0.66666746D-20 -0.66088081D-20 -0.98338719D-05  0.66788040D-20 -0.66369988D-20
  0.14750808D-04 -0.26678828D-19  0.26463423D-19  0.14750808D-04  0.99126862D-21
  0.24393710D-19 -0.80863006D-20 -0.14963310D-05  0.24386415D-19 -0.80887740D-20
  0.22444964D-05 -0.97567545D-19  0.32347676D-19  0.22444964D-05 -0.41630228D-21
 -0.40215292D-03 -0.75649863D-03 -0.13095364D-02 -0.21465808D-02 -0.33626603D-02
 -0.50543649D-02 -0.72239570D-02 -0.95899825D-02 -0.11168837D-01 -0.10258469D-01
 -0.59985302D-02 -0.15740443D-02 -0.86052390D-04  0.30799828D-05 -0.86075799D-06
  0.25558809D-06 -0.43573345D-07 -0.35549856D-08  0.25293649D+00  0.46472271D+00
  0.80361267D+00  0.13160281D+01  0.20720271D+01  0.31289639D+01  0.45673317D+01
  0.62894932D+01  0.80362885D+01  0.87604961D+01  0.72112372D+01  0.19772723D+01
 -0.39882864D+01 -0.38867593D+01 -0.85053243D+00 -0.28653655D-01 -0.97069426D-03
  0.24693210D-05 -0.89080842D-03 -0.17463413D-02 -0.30586735D-02 -0.49968773D-02
 -0.78812790D-02 -0.11892498D-01 -0.17436765D-01 -0.24074339D-01 -0.31212499D-01
 -0.34710136D-01 -0.30147890D-01 -0.87574229D-02  0.22077357D-01  0.32168265D-01
  0.55378818D-02 -0.13510060D-01 -0.64304481D-02  0.31054598D-04  0.32930289D-03
  0.71351984D-03  0.12146544D-02  0.19826430D-02  0.31254422D-02  0.47171950D-02
  0.69161767D-02  0.95611232D-02  0.12409379D-01  0.13863446D-01  0.12110034D-01
  0.35870039D-02 -0.93241495D-02 -0.14343694D-01 -0.25105844D-02  0.79194997D-02
  0.67224576D-02 -0.25080888D-02  0.25356322D-02  0.14915520D-02  0.39640173D-03
 -0.66270635D-14 -0.95086628D-14 -0.12589975D-13 -0.14537854D-13 -0.13477260D-13
 -0.87254235D-14 -0.30797541D-14 -0.36097373D-15 -0.52478900D-17 -0.76849507D-18
 -0.79013228D-20  0.11796596D-14  0.16926026D-14  0.22410959D-14  0.25878308D-14
  0.23990382D-14  0.15531811D-14  0.54821588D-15  0.64255628D-16  0.93415790D-18
  0.13679703D-18  0.14064859D-20  0.14380063D-01  0.20632844D-01  0.27318983D-01
  0.31545685D-01  0.29244301D-01  0.18933294D-01  0.66827573D-02  0.78327678D-03
  0.11387395D-04  0.16675572D-05  0.17145078D-07 -0.22866096D-16 -0.33007473D-16
 -0.44097195D-16 -0.52388820D-16 -0.50768783D-16 -0.35290780D-16 -0.11483281D-16
  0.51683879D-17  0.55835832D-17  0.14374764D-17 -0.14021255D-20  0.78841103D-17
  0.11380804D-16  0.15204482D-16  0.18063391D-16  0.17504810D-16  0.12168076D-16
  0.39593753D-17 -0.17820331D-17 -0.19251903D-17 -0.49563434D-18  0.48344553D-21
 -0.47393462D-02 -0.68413007D-02 -0.91398142D-02 -0.10858380D-01 -0.10522602D-01
 -0.73145508D-02 -0.23800847D-02  0.10712270D-02  0.11572825D-02  0.29793884D-03
 -0.29061183D-06  0.13807675D-16  0.20063164D-16  0.26674209D-16  0.32007205D-16
  0.30967112D-16  0.21983044D-16  0.68323853D-17 -0.39227246D-17 -0.45063398D-17
 -0.11966981D-17  0.43177242D-18 -0.37603766D-16 -0.54639941D-16 -0.72644435D-16
 -0.87168293D-16 -0.84335709D-16 -0.59868534D-16 -0.18607291D-16  0.10683133D-16
  0.12272548D-16  0.32590829D-17 -0.11758873D-17  0.34133496D-02  0.49597484D-02
  0.65940430D-02  0.79123951D-02  0.76552772D-02  0.54343555D-02  0.16890113D-02
 -0.96972377D-03 -0.11139973D-02 -0.29583178D-03  0.10673703D-03 -0.28206859D-18
 -0.19908744D-17 -0.15620645D-04  0.35459312D-18  0.14906334D-18 -0.52931592D-03
  0.55307015D-18 -0.10335877D-17 -0.26366638D-04 -0.10823712D-02 -0.11325849D-02
 -0.96502294D-03 -0.63554056D-03 -0.29290172D-03 -0.87709895D-04 -0.14923095D-04
 -0.10823712D-02 -0.11325849D-02 -0.96502294D-03 -0.63554056D-03 -0.29290172D-03
 -0.87709895D-04 -0.14923095D-04  0.21647425D-02  0.22651698D-02  0.19300459D-02
  0.12710811D-02  0.58580344D-03  0.17541979D-03  0.29846190D-04 -0.67325425D-16
 -0.70448803D-16 -0.60026151D-16 -0.39531758D-16 -0.18219010D-16 -0.54557122D-17
 -0.92824317D-18 -0.87061229D-16 -0.91100196D-16 -0.77622242D-16 -0.51120115D-16
 -0.23559739D-16 -0.70550020D-17 -0.12003488D-17  0.51422140D-16  0.53807729D-16
  0.45847065D-16  0.30193758D-16  0.13915404D-16  0.41669903D-17  0.70897807D-18
  0.84360695D-04  0.84360695D-04 -0.16872139D-03  0.52268223D-18  0.17984511D-18
  0.21138296D-18 -0.47290814D-04 -0.47290814D-04  0.94581627D-04 -0.54873833D-19
  0.71866835D-18 -0.71265076D-18 -0.30990649D-04 -0.30990649D-04  0.61981298D-04
  0.59313433D-20 -0.88047841D-18  0.81732145D-18  0.97070012D-19 -0.17219189D-18
  0.77230061D-04  0.91554368D-19 -0.18100902D-18 -0.11584509D-03 -0.38276440D-18
  0.69758470D-18 -0.11584509D-03 -0.27941281D-20 -0.96230437D-20  0.20836692D-19
 -0.42659163D-04 -0.90944885D-20  0.21610455D-19  0.63988744D-04  0.37963620D-19
 -0.84120530D-19  0.63988744D-04 -0.22149568D-21
MO    3     MO 0.0        OCC NO =    2.0000000  ORB. ENERGY =  -57.031268
  0.85582876D-06  0.16017289D-05  0.27744864D-05  0.45356609D-05  0.70437045D-05
  0.10313668D-04  0.13822289D-04  0.15858995D-04  0.13814537D-04  0.70671131D-05
  0.13652317D-05  0.42328295D-07  0.18461955D-08 -0.18419824D-11  0.80302274D-06
  0.15065691D-05  0.26026831D-05  0.42822092D-05  0.66527096D-05  0.99608619D-05
  0.13731103D-04  0.17293159D-04  0.17743086D-04  0.13602829D-04  0.20459860D-05
 -0.77830780D-05 -0.66650882D-05 -0.54279319D-08 -0.15778160D-05 -0.29545333D-05
 -0.51185016D-05 -0.83916600D-05 -0.13102230D-04 -0.19522455D-04 -0.27163121D-04
 -0.34061412D-04 -0.35787885D-04 -0.27500578D-04 -0.46480073D-05  0.18485253D-04
  0.17942624D-04 -0.10915855D-04 -0.36919587D-04 -0.21056729D-04  0.57269491D-06
 -0.95772963D-14 -0.12208012D-13 -0.12837109D-13 -0.10246463D-13 -0.53409081D-14
 -0.16683301D-14 -0.19265061D-15 -0.57018965D-18  0.65479979D-15  0.83466186D-15
  0.87767320D-15  0.70055069D-15  0.36515791D-15  0.11406374D-15  0.13171523D-16
  0.38983869D-19  0.17540204D-03  0.22358192D-03  0.23510342D-03  0.18765739D-03
  0.97815307D-04  0.30554396D-04  0.35282724D-05  0.10442658D-07  0.92091405D-14
  0.11862879D-13  0.12475562D-13  0.10216867D-13  0.52610820D-14  0.18451122D-14
  0.22384509D-15 -0.43317396D-15 -0.10056533D-14 -0.12954459D-14 -0.13623519D-14
 -0.11156987D-14 -0.57451881D-15 -0.20148928D-15 -0.24444252D-16  0.47303309D-16
 -0.23758830D-03 -0.30605257D-03 -0.32185930D-03 -0.26358682D-03 -0.13573162D-03
 -0.47602386D-04 -0.57750203D-05  0.11175534D-04 -0.28821086D-15  0.29763387D-16
 -0.98025299D-05  0.58451573D-16 -0.63274834D-17 -0.30831764D-06 -0.68474724D-17
  0.80064488D-18  0.21007753D-07 -0.65711491D-05 -0.65711491D-05  0.13142298D-04
  0.14486830D-20  0.36949945D-16 -0.39473017D-17  0.83063437D-06  0.83063437D-06
 -0.16612687D-05 -0.18628552D-21 -0.38332191D-15  0.40164838D-16  0.84768763D-07
  0.84768763D-07 -0.16953753D-06  0.11271429D-22  0.10559488D-16 -0.11431830D-17
 -0.26337768D-16  0.27790176D-17  0.35346719D-05 -0.26337742D-16  0.27791047D-17
 -0.53020079D-05  0.10535104D-15 -0.11116157D-16 -0.53020079D-05  0.17225346D-21
  0.24150561D-16 -0.25235570D-17 -0.25347707D-06  0.24150548D-16 -0.25235590D-17
  0.38021560D-06 -0.96602230D-16  0.10094230D-16  0.38021560D-06  0.12815356D-21
  0.24627039D-05  0.46326460D-05  0.80193386D-05  0.13145230D-04  0.20592258D-04
  0.30951917D-04  0.44238065D-04  0.58727131D-04  0.68395720D-04  0.62820807D-04
  0.36733797D-04  0.96391320D-05  0.52696759D-06 -0.18861197D-07  0.52711094D-08
 -0.15651703D-08  0.26683443D-09  0.21770019D-10 -0.67182397D-04 -0.12343488D-03
 -0.21344736D-03 -0.34954988D-03 -0.55035057D-03 -0.83108329D-03 -0.12131278D-02
 -0.16705507D-02 -0.21345165D-02 -0.23268731D-02 -0.19153749D-02 -0.52518278D-03
  0.10593277D-02  0.10323611D-02  0.22590970D-03  0.76106898D-05  0.25782585D-06
 -0.65587571D-09  0.34037056D-05  0.66726264D-05  0.11686940D-04  0.19092657D-04
  0.30113718D-04  0.45440256D-04  0.66624444D-04  0.91986066D-04  0.11926039D-03
  0.13262457D-03  0.11519261D-03  0.33461392D-04 -0.84355762D-04 -0.12291229D-03
 -0.21159790D-04  0.51620828D-04  0.24570213D-04 -0.11865706D-06 -0.24206955D-05
 -0.52450626D-05 -0.89288873D-05 -0.14574348D-04 -0.22975030D-04 -0.34675956D-04
 -0.50840603D-04 -0.70283525D-04 -0.91220964D-04 -0.10190977D-03 -0.89020490D-04
 -0.26367956D-04  0.68541538D-04  0.10544005D-03  0.18455229D-04 -0.58216000D-04
 -0.49416580D-04  0.18436884D-04  0.20778779D-04 -0.83362643D-04  0.73438562D-04
 -0.33177651D-08 -0.47604056D-08 -0.63030301D-08 -0.72782139D-08 -0.67472391D-08
 -0.43682856D-08 -0.15418444D-08 -0.18071746D-09 -0.26272974D-11 -0.38473845D-12
 -0.39557088D-14  0.35204205D-09  0.50511801D-09  0.66880309D-09  0.77227808D-09
  0.71593731D-09  0.46351087D-09  0.16360231D-09  0.19175602D-10  0.27877776D-12
  0.40823900D-13  0.41973309D-15  0.52011092D+02  0.74626709D+02  0.98809730D+02
  0.11409724D+03  0.10577339D+03  0.68479622D+02  0.24170792D+02  0.28330252D+01
  0.41186943D-01  0.60313694D-02  0.62011844D-04  0.20763207D-12  0.29971928D-12
  0.40041779D-12  0.47570863D-12  0.46099812D-12  0.32045250D-12  0.10427217D-12
 -0.46930751D-13 -0.50700869D-13 -0.13052783D-13  0.12731785D-16 -0.22017452D-13
 -0.31782444D-13 -0.42460586D-13 -0.50444479D-13 -0.48884566D-13 -0.33981009D-13
 -0.11057095D-13  0.49765700D-14  0.53763559D-14  0.13841264D-14 -0.13500875D-17
 -0.64146088D-02 -0.92595615D-02 -0.12370553D-01 -0.14696596D-01 -0.14242128D-01
 -0.99000959D-02 -0.32213963D-02  0.14498840D-02  0.15663584D-02  0.40325417D-03
 -0.39333721D-06 -0.41582945D-12 -0.60421864D-12 -0.80331569D-12 -0.96392322D-12
 -0.93259998D-12 -0.66203740D-12 -0.20576289D-12  0.11813607D-12  0.13571212D-12
  0.36039546D-13 -0.13003181D-13  0.44115321D-13  0.64101519D-13  0.85223712D-13
  0.10226256D-12  0.98939475D-13  0.70235507D-13  0.21829372D-13 -0.12533048D-13
 -0.14397690D-13 -0.38234332D-14  0.13795066D-14  0.85765371D-02  0.12462089D-01
  0.16568492D-01  0.19881043D-01  0.19234997D-01  0.13654608D-01  0.42438866D-02
 -0.24365720D-02 -0.27990803D-02 -0.74332037D-03  0.26819231D-03  0.69490242D-13
 -0.73731007D-14 -0.11691306D-02  0.37589369D-14 -0.39760795D-15 -0.45309432D-04
 -0.14348649D-15  0.15643129D-16 -0.17591952D-05  0.10852126D-02  0.11355581D-02
  0.96755628D-03  0.63720896D-03  0.29367064D-03  0.87940147D-04  0.14962271D-04
  0.10852126D-02  0.11355581D-02  0.96755628D-03  0.63720896D-03  0.29367064D-03
  0.87940147D-04  0.14962271D-04 -0.21704253D-02 -0.22711162D-02 -0.19351126D-02
 -0.12744179D-02 -0.58734127D-03 -0.17588029D-03 -0.29924541D-04  0.13378216D-16
  0.13998861D-16  0.11927779D-16  0.78553442D-17  0.36202943D-17  0.10841030D-17
  0.18445093D-18  0.18415394D-12  0.19269725D-12  0.16418837D-12  0.10813046D-12
  0.49834108D-13  0.14922904D-13  0.25390056D-14 -0.19370823D-13 -0.20269479D-13
 -0.17270681D-13 -0.11374049D-13 -0.52419605D-14 -0.15697136D-14 -0.26707346D-15
 -0.24433869D-04 -0.24433869D-04  0.48867739D-04 -0.75783554D-19 -0.27683941D-14
  0.29150235D-15  0.14663071D-04  0.14663071D-04 -0.29326142D-04  0.10363194D-19
  0.13028458D-14 -0.13801299D-15 -0.25027971D-05 -0.25027971D-05  0.50055942D-05
 -0.94199104D-21 -0.69470422D-15  0.72794135D-16  0.20576988D-15 -0.21841231D-16
  0.78767689D-05  0.20576284D-15 -0.21821766D-16 -0.11815153D-04 -0.82307247D-15
  0.87345458D-16 -0.11815153D-04 -0.41676960D-19 -0.64510807D-16  0.68555461D-17
 -0.72950373D-06 -0.64509268D-16  0.68535043D-17  0.10942556D-05  0.25804169D-15
 -0.27420143D-16  0.10942556D-05  0.49758647D-20