 Molden2AIM, Version 4.0.0 (06/02/2016)           Time: Sun Jul  1 16:10:25 2018
GAUSSIAN             11 MOL ORBITALS    206 PRIMITIVES        2 NUCLEI
  N    1    (CENTRE  1)   0.00000000  0.00000000  0.07309083  CHARGE =  7.0
  S    2    (CENTRE  2)   0.00000000  0.00000000  2.76149836  CHARGE = 16.0
CENTRE ASSIGNMENTS    1  1  1  1  1  1  1  1  1  1  1  1  1  1  1  1  1  1  1  1
CENTRE ASSIGNMENTS    1  1  1  1  1  1  1  1  1  1  1  1  1  1  1  1  1  1  1  1
CENTRE ASSIGNMENTS    1  1  1  1  1  1  1  1  1  1  1  1  1  1  1  1  1  1  1  1
CENTRE ASSIGNMENTS    1  1  1  1  1  1  1  1  1  1  1  1  1  1  1  2  2  2  2  2
CENTRE ASSIGNMENTS    2  2  2  2  2  2  2  2  2  2  2  2  2  2  2  2  2  2  2  2
CENTRE ASSIGNMENTS    2  2  2  2  2  2  2  2  2  2  2  2  2  2  2  2  2  2  2  2
CENTRE ASSIGNMENTS    2  2  2  2  2  2  2  2  2  2  2  2  2  2  2  2  2  2  2  2
CENTRE ASSIGNMENTS    2  2  2  2  2  2  2  2  2  2  2  2  2  2  2  2  2  2  2  2
CENTRE ASSIGNMENTS    2  2  2  2  2  2  2  2  2  2  2  2  2  2  2  2  2  2  2  2
CENTRE ASSIGNMENTS    2  2  2  2  2  2  2  2  2  2  2  2  2  2  2  2  2  2  2  2
CENTRE ASSIGNMENTS    2  2  2  2  2  2
TYPE ASSIGNMENTS      1  1  1  1  1  1  1  1  1  1  1  1  1  1  1  1  1  1  1  2
TYPE ASSIGNMENTS      2  2  3  3  3  4  4  4  2  3  4  2  3  4  2  3  4  5  6  7
TYPE ASSIGNMENTS      8  9 10  5  6  7  8  9 10  5  6  7  8  9 10 11 12 13 17 14
TYPE ASSIGNMENTS     15 18 19 16 20 11 12 13 17 14 15 18 19 16 20  1  1  1  1  1
TYPE ASSIGNMENTS      1  1  1  1  1  1  1  1  1  1  1  1  1  1  1  1  1  1  1  1
TYPE ASSIGNMENTS      1  1  1  1  1  1  1  1  1  1  1  1  1  1  1  1  1  2  2  2
TYPE ASSIGNMENTS      2  2  2  2  3  3  3  3  3  3  3  4  4  4  4  4  4  4  2  2
TYPE ASSIGNMENTS      2  2  2  2  2  3  3  3  3  3  3  3  4  4  4  4  4  4  4  2
TYPE ASSIGNMENTS      3  4  2  3  4  2  3  4  5  6  7  8  9 10  5  6  7  8  9 10
TYPE ASSIGNMENTS      5  6  7  8  9 10 11 12 13 17 14 15 18 19 16 20 11 12 13 17
TYPE ASSIGNMENTS     14 15 18 19 16 20
EXPONENTS  0.1142000D+05 0.1712000D+04 0.3893000D+03 0.1100000D+03 0.3557000D+02
EXPONENTS  0.1254000D+02 0.4644000D+01 0.5118000D+00 0.1142000D+05 0.1712000D+04
EXPONENTS  0.3893000D+03 0.1100000D+03 0.3557000D+02 0.1254000D+02 0.4644000D+01
EXPONENTS  0.5118000D+00 0.1293000D+01 0.1787000D+00 0.5760000D-01 0.2663000D+02
EXPONENTS  0.5948000D+01 0.1742000D+01 0.2663000D+02 0.5948000D+01 0.1742000D+01
EXPONENTS  0.2663000D+02 0.5948000D+01 0.1742000D+01 0.5550000D+00 0.5550000D+00
EXPONENTS  0.5550000D+00 0.1725000D+00 0.1725000D+00 0.1725000D+00 0.4910000D-01
EXPONENTS  0.4910000D-01 0.4910000D-01 0.1654000D+01 0.1654000D+01 0.1654000D+01
EXPONENTS  0.1654000D+01 0.1654000D+01 0.1654000D+01 0.4690000D+00 0.4690000D+00
EXPONENTS  0.4690000D+00 0.4690000D+00 0.4690000D+00 0.4690000D+00 0.1510000D+00
EXPONENTS  0.1510000D+00 0.1510000D+00 0.1510000D+00 0.1510000D+00 0.1510000D+00
EXPONENTS  0.1093000D+01 0.1093000D+01 0.1093000D+01 0.1093000D+01 0.1093000D+01
EXPONENTS  0.1093000D+01 0.1093000D+01 0.1093000D+01 0.1093000D+01 0.1093000D+01
EXPONENTS  0.3640000D+00 0.3640000D+00 0.3640000D+00 0.3640000D+00 0.3640000D+00
EXPONENTS  0.3640000D+00 0.3640000D+00 0.3640000D+00 0.3640000D+00 0.3640000D+00
EXPONENTS  0.3741000D+06 0.5605000D+05 0.1276000D+05 0.3615000D+04 0.1183000D+04
EXPONENTS  0.4288000D+03 0.1678000D+03 0.6947000D+02 0.2984000D+02 0.1272000D+02
EXPONENTS  0.5244000D+01 0.2219000D+01 0.3490000D+00 0.3741000D+06 0.5605000D+05
EXPONENTS  0.1276000D+05 0.3615000D+04 0.1183000D+04 0.4288000D+03 0.1678000D+03
EXPONENTS  0.6947000D+02 0.2984000D+02 0.1272000D+02 0.5244000D+01 0.2219000D+01
EXPONENTS  0.3490000D+00 0.3741000D+06 0.5605000D+05 0.1276000D+05 0.3615000D+04
EXPONENTS  0.1183000D+04 0.4288000D+03 0.1678000D+03 0.6947000D+02 0.2984000D+02
EXPONENTS  0.1272000D+02 0.5244000D+01 0.2219000D+01 0.3490000D+00 0.7767000D+00
EXPONENTS  0.1322000D+00 0.4970000D-01 0.5744000D+03 0.1358000D+03 0.4319000D+02
EXPONENTS  0.1587000D+02 0.6208000D+01 0.2483000D+01 0.3229000D+00 0.5744000D+03
EXPONENTS  0.1358000D+03 0.4319000D+02 0.1587000D+02 0.6208000D+01 0.2483000D+01
EXPONENTS  0.3229000D+00 0.5744000D+03 0.1358000D+03 0.4319000D+02 0.1587000D+02
EXPONENTS  0.6208000D+01 0.2483000D+01 0.3229000D+00 0.5744000D+03 0.1358000D+03
EXPONENTS  0.4319000D+02 0.1587000D+02 0.6208000D+01 0.2483000D+01 0.3229000D+00
EXPONENTS  0.5744000D+03 0.1358000D+03 0.4319000D+02 0.1587000D+02 0.6208000D+01
EXPONENTS  0.2483000D+01 0.3229000D+00 0.5744000D+03 0.1358000D+03 0.4319000D+02
EXPONENTS  0.1587000D+02 0.6208000D+01 0.2483000D+01 0.3229000D+00 0.8688000D+00
EXPONENTS  0.8688000D+00 0.8688000D+00 0.1098000D+00 0.1098000D+00 0.1098000D+00
EXPONENTS  0.3510000D-01 0.3510000D-01 0.3510000D-01 0.2690000D+00 0.2690000D+00
EXPONENTS  0.2690000D+00 0.2690000D+00 0.2690000D+00 0.2690000D+00 0.8190000D+00
EXPONENTS  0.8190000D+00 0.8190000D+00 0.8190000D+00 0.8190000D+00 0.8190000D+00
EXPONENTS  0.1010000D+00 0.1010000D+00 0.1010000D+00 0.1010000D+00 0.1010000D+00
EXPONENTS  0.1010000D+00 0.5570000D+00 0.5570000D+00 0.5570000D+00 0.5570000D+00
EXPONENTS  0.5570000D+00 0.5570000D+00 0.5570000D+00 0.5570000D+00 0.5570000D+00
EXPONENTS  0.5570000D+00 0.2180000D+00 0.2180000D+00 0.2180000D+00 0.2180000D+00
EXPONENTS  0.2180000D+00 0.2180000D+00 0.2180000D+00 0.2180000D+00 0.2180000D+00
EXPONENTS  0.2180000D+00
MO    1     MO 0.0        OCC NO =    2.0000000  ORB. ENERGY =  -90.478788
  0.22844667D-04  0.42567674D-04  0.71992608D-04  0.10841688D-03  0.13422713D-03
  0.11422123D-03  0.43463285D-04 -0.20355710D-06 -0.17888098D-04 -0.33540350D-04
 -0.57062115D-04 -0.88611440D-04 -0.11759254D-03 -0.12392639D-03 -0.76842268D-04
  0.51115506D-04  0.12485802D-03 -0.45254828D-03 -0.10874513D-03 -0.16241459D-15
 -0.15599727D-15 -0.10939605D-15 -0.13084069D-15 -0.12567092D-15 -0.88129124D-16
  0.34981265D-03  0.33599087D-03  0.23561999D-03  0.38649874D-16  0.29309510D-16
 -0.44175286D-03 -0.14720440D-17  0.34824508D-16 -0.44431944D-03 -0.19633055D-17
 -0.54118266D-18 -0.17759858D-04 -0.89301089D-04 -0.89301089D-04  0.17860218D-03
 -0.50764007D-21  0.18733945D-16  0.59923639D-16  0.16524723D-03  0.16524723D-03
 -0.33049447D-03  0.13965041D-20  0.22490493D-17  0.74866376D-16  0.33053680D-04
  0.33053680D-04 -0.66107359D-04 -0.28582746D-22  0.18882299D-17  0.37007566D-17
  0.84297374D-17  0.19045184D-17 -0.99052158D-05  0.84277659D-17  0.19119918D-17
  0.14857824D-04 -0.33716978D-16 -0.76255472D-17  0.14857824D-04  0.11075025D-19
 -0.72544678D-18 -0.54592546D-17 -0.54700485D-04 -0.72451339D-18 -0.54589369D-17
  0.82050727D-04  0.29008537D-17  0.21836701D-16  0.82050727D-04 -0.24402388D-22
  0.58486826D+00  0.10933772D+01  0.18896972D+01  0.30565004D+01  0.46197214D+01
  0.63621145D+01  0.74358368D+01  0.64251240D+01  0.29967007D+01  0.40688722D+00
  0.10895437D-02  0.21372344D-02  0.97573676D-04 -0.68447843D-03 -0.12782926D-02
 -0.22173963D-02 -0.35954315D-02 -0.55355761D-02 -0.78839037D-02 -0.10137677D-01
 -0.10641544D-01 -0.75243257D-02  0.16662934D-03  0.54063252D-02  0.29768694D-02
 -0.12589130D-04  0.30927294D-03  0.57714906D-03  0.10024388D-02  0.16237285D-02
  0.25081853D-02  0.35757951D-02  0.46509413D-02  0.49566497D-02  0.36762440D-02
 -0.11442783D-03 -0.33304856D-02 -0.32627264D-02  0.15238867D-02 -0.17382941D-02
  0.20975482D-03  0.42534400D-04  0.12816189D-15  0.16814142D-15  0.18442551D-15
  0.15174823D-15  0.80004670D-16  0.20813434D-16 -0.23032186D-19 -0.80319935D-15
 -0.10537538D-14 -0.11558073D-14 -0.95101657D-15 -0.50139474D-15 -0.13043921D-15
  0.14434429D-18 -0.10981212D-01 -0.14406752D-01 -0.15802011D-01 -0.13002145D-01
 -0.68549881D-02 -0.17833439D-02  0.19734519D-05 -0.56103788D-16 -0.73664615D-16
 -0.82877659D-16 -0.69830694D-16 -0.39062311D-16 -0.97225297D-17  0.44592206D-17
  0.59952677D-15  0.78718230D-15  0.88563316D-15  0.74621290D-15  0.41742103D-15
  0.10389525D-15 -0.47651365D-16  0.97523228D-02  0.12804859D-01  0.14406330D-01
  0.12138422D-01  0.67900632D-02  0.16900329D-02 -0.77513052D-03 -0.12011149D-16
  0.58543630D-16  0.19796744D-03 -0.55822258D-17 -0.61335333D-17  0.16554329D-04
  0.13613796D-17  0.60013103D-18  0.10854395D-05 -0.34547250D-04 -0.34547250D-04
  0.69094499D-04  0.24482099D-20  0.12395254D-16  0.17519389D-16 -0.17160751D-03
 -0.17160751D-03  0.34321501D-03 -0.12045673D-20  0.27872911D-16  0.28853009D-16
  0.83207638D-05  0.83207638D-05 -0.16641528D-04 -0.12495281D-21  0.68093160D-19
  0.23940994D-17  0.30619235D-17  0.17478991D-16 -0.10358610D-03  0.30573996D-17
  0.17485451D-16  0.15537916D-03 -0.12243170D-16 -0.69922423D-16  0.15537916D-03
  0.71459377D-20 -0.10781414D-18  0.47492477D-18  0.13409711D-04 -0.10781483D-18
  0.47444439D-18 -0.20114567D-04  0.43125724D-18 -0.18992187D-17 -0.20114567D-04
 -0.43735159D-21
MO    2     MO 0.0        OCC NO =    2.0000000  ORB. ENERGY =  -15.241664
 -0.41037207D+00 -0.76466792D+00 -0.12932452D+01 -0.19475555D+01 -0.24112001D+01
 -0.20518225D+01 -0.78075630D+00  0.36566148D-02 -0.28648554D-03 -0.53716306D-03
 -0.91387420D-03 -0.14191501D-02 -0.18832948D-02 -0.19847342D-02 -0.12306618D-02
  0.81863670D-03 -0.40331559D-01  0.34426932D-03  0.39269066D-03 -0.60048548D-17
 -0.57675912D-17 -0.40446331D-17  0.11231982D-16  0.10788184D-16  0.75654194D-17
 -0.85586337D-02 -0.82204654D-02 -0.57647578D-02 -0.20738015D-17  0.23590125D-17
  0.12604352D-02 -0.19394716D-18 -0.44957991D-19  0.57251528D-03  0.31987949D-19
  0.58367844D-20  0.36957968D-04  0.98691367D-03  0.98691367D-03 -0.19738273D-02
 -0.14285695D-17 -0.71658188D-18  0.20540134D-17 -0.31228468D-03 -0.31228468D-03
  0.62456937D-03  0.29288043D-20 -0.38930303D-18 -0.58355318D-19 -0.33666777D-04
 -0.33666777D-04  0.67333555D-04 -0.60471898D-22 -0.15248291D-19 -0.13356950D-21
  0.50256361D-20 -0.15242212D-19  0.64229718D-04  0.73177279D-19 -0.62359715D-20
 -0.96344577D-04 -0.88254187D-19  0.51962607D-19 -0.96344577D-04 -0.12376850D-19
  0.15923241D-19  0.85947710D-20  0.10804455D-03  0.18695922D-19  0.12291882D-19
 -0.16206682D-03 -0.66465645D-19 -0.38076195D-19 -0.16206682D-03  0.58368726D-20
 -0.19534292D-03 -0.36518224D-03 -0.63114893D-03 -0.10208551D-02 -0.15429627D-02
 -0.21249128D-02 -0.24835304D-02 -0.21459576D-02 -0.10008823D-02 -0.13589819D-03
 -0.36390187D-06 -0.71382504D-06 -0.32589095D-07  0.38249588D-03  0.71432735D-03
  0.12391113D-02  0.20091762D-02  0.30933554D-02  0.44056330D-02  0.56650721D-02
  0.59466399D-02  0.42046958D-02 -0.93114750D-04 -0.30211283D-02 -0.16635152D-02
  0.70349777D-05 -0.23102493D-03 -0.43112670D-03 -0.74881548D-03 -0.12129149D-02
 -0.18735986D-02 -0.26710963D-02 -0.34742238D-02 -0.37025861D-02 -0.27461311D-02
  0.85476863D-04  0.24878517D-02  0.24372360D-02 -0.11383338D-02  0.94155862D-04
 -0.60043045D-03 -0.22529796D-03 -0.43972482D-14 -0.57689501D-14 -0.63276590D-14
 -0.52064981D-14 -0.27449688D-14 -0.71411113D-15  0.79023677D-18  0.55908739D-15
  0.73349221D-15  0.80452916D-15  0.66197934D-15  0.34900860D-15  0.90795542D-16
 -0.10047452D-18  0.11787234D-01  0.15464209D-01  0.16961880D-01  0.13956503D-01
  0.73581446D-02  0.19142415D-02 -0.21183033D-05  0.12213282D-16  0.16036113D-16
  0.18041708D-16  0.15201503D-16  0.85035079D-17  0.21165058D-17 -0.97073154D-18
 -0.19705503D-16 -0.25873445D-16 -0.29109370D-16 -0.24526845D-16 -0.13719973D-16
 -0.34148734D-17  0.15662255D-17 -0.12096644D-01 -0.15882968D-01 -0.17869409D-01
 -0.15056328D-01 -0.84222991D-02 -0.20962931D-02  0.96146102D-03 -0.37593045D-16
  0.64661039D-17  0.70657024D-03 -0.20899297D-18  0.16163293D-18  0.13007491D-03
 -0.17610604D-20  0.53925754D-20  0.11210099D-04  0.51583358D-04  0.51583358D-04
 -0.10316672D-03 -0.62622843D-21 -0.49609788D-19 -0.15668007D-18  0.36546749D-03
  0.36546749D-03 -0.73093498D-03  0.16034178D-19  0.44047564D-18 -0.83210953D-18
  0.12403728D-05  0.12403728D-05 -0.24807455D-05  0.23398064D-20  0.38694630D-19
 -0.43682065D-19 -0.13638472D-20 -0.64753732D-19 -0.50001882D-04 -0.25847691D-20
 -0.62835208D-19  0.75002823D-04  0.66763108D-20  0.25709641D-18  0.75002823D-04
  0.62697484D-19  0.38092985D-21 -0.10095776D-19  0.43872720D-05 -0.60626101D-22
 -0.10448437D-19 -0.65809080D-05 -0.10821634D-20  0.40735766D-19 -0.65809080D-05
 -0.44332586D-20
MO    3     MO 0.0        OCC NO =    2.0000000  ORB. ENERGY =   -8.794129
  0.11562073D-03  0.21544221D-03  0.36436680D-03  0.54871620D-03  0.67934626D-03
  0.57809300D-03  0.21997505D-03 -0.10302370D-05  0.28142324D-04  0.52767121D-04
  0.89772573D-04  0.13940733D-03  0.18500163D-03  0.19496632D-03  0.12089156D-03
 -0.80417112D-04  0.17562796D-03 -0.35671147D-03 -0.93329364D-04  0.25963302D-15
  0.24937441D-15  0.17487855D-15  0.59239679D-15  0.56899003D-15  0.39901509D-15
 -0.22468105D-03 -0.21580346D-03 -0.15133628D-03  0.34321105D-16 -0.73763928D-16
 -0.87445263D-03  0.45797702D-16 -0.49701802D-16 -0.68055723D-03  0.65758480D-17
 -0.58829827D-17 -0.20454462D-04 -0.21508826D-04 -0.21508826D-04  0.43017651D-04
 -0.77620539D-19 -0.28490389D-18 -0.49764386D-16  0.29116558D-03  0.29116558D-03
 -0.58233115D-03 -0.14327950D-18  0.25975127D-16 -0.62700940D-16  0.60904685D-04
  0.60904685D-04 -0.12180937D-03 -0.16601818D-19  0.20783326D-16 -0.28555085D-16
 -0.22364386D-17 -0.72040604D-17 -0.36186911D-03 -0.21583049D-17 -0.74871476D-17
  0.54280367D-03  0.88676207D-17  0.29099329D-16  0.54280367D-03  0.35738325D-18
 -0.36824233D-17  0.81470111D-17 -0.81652671D-04 -0.37211873D-17  0.81180468D-17
  0.12247901D-03  0.14768457D-16 -0.32559080D-16  0.12247901D-03 -0.81186880D-19
  0.17486547D-02  0.32690083D-02  0.56498670D-02  0.91384063D-02  0.13812166D-01
  0.19021619D-01  0.22231863D-01  0.19210007D-01  0.89596155D-02  0.12165222D-02
  0.32575468D-05  0.63899601D-05  0.29172837D-06  0.15873787D+00  0.29644973D+00
  0.51423793D+00  0.83381902D+00  0.12837593D+01  0.18283616D+01  0.23510357D+01
  0.24678879D+01  0.17449716D+01 -0.38643127D-01 -0.12537847D+01 -0.69036786D+00
  0.29195540D-02  0.79265317D-03  0.14792081D-02  0.25692074D-02  0.41615459D-02
  0.64283705D-02  0.91646081D-02  0.11920161D-01  0.12703679D-01  0.94220545D-02
 -0.29327357D-03 -0.85358905D-02 -0.83622266D-02  0.39056558D-02 -0.49404135D-01
 -0.46775564D-03  0.47870494D-04  0.58179687D-15  0.76328581D-15  0.83720819D-15
  0.68886817D-15  0.36318492D-15  0.94483551D-16 -0.10455568D-18  0.10358516D-14
  0.13589809D-14  0.14905949D-14  0.12264851D-14  0.64662722D-15  0.16822184D-15
 -0.18615462D-18 -0.15438765D-01 -0.20254819D-01 -0.22216449D-01 -0.18280046D-01
 -0.96376019D-02 -0.25072485D-02  0.27745261D-05  0.36863604D-15  0.48402136D-15
  0.54455667D-15  0.45883017D-15  0.25666316D-15  0.63882939D-16 -0.29299794D-16
 -0.74061818D-15 -0.97243618D-15 -0.10940563D-14 -0.92182512D-15 -0.51565605D-15
 -0.12834574D-15  0.58865541D-16  0.14047842D-01  0.18444902D-01  0.20751758D-01
  0.17484925D-01  0.97808219D-02  0.24344267D-02 -0.11165454D-02  0.62427385D-16
 -0.95825884D-16  0.27800226D-03 -0.28203030D-16  0.14472070D-16  0.16208510D-03
 -0.66140067D-18  0.18393557D-17  0.39641617D-05 -0.15160977D-04 -0.15160977D-04
  0.30321954D-04  0.65784432D-18  0.31926265D-16 -0.54275247D-16 -0.23550957D-03
 -0.23550957D-03  0.47101914D-03 -0.64528692D-17  0.13316676D-16 -0.25272496D-16
  0.20415143D-04  0.20415143D-04 -0.40830285D-04 -0.36351383D-19  0.82394995D-17
 -0.49969799D-17  0.27148712D-17 -0.16285984D-16 -0.59507006D-04  0.28670568D-17
 -0.16591361D-16  0.89260509D-04 -0.11011670D-16  0.65449314D-16  0.89260509D-04
 -0.26346456D-18  0.10830170D-17  0.86291536D-20  0.27730867D-04  0.10843141D-17
  0.32416853D-19 -0.41596300D-04 -0.43333652D-17 -0.58304314D-19 -0.41596300D-04
 -0.25918740D-19
MO    4     MO 0.0        OCC NO =    2.0000000  ORB. ENERGY =   -6.641642
 -0.56937670D-16 -0.10609497D-15 -0.17943318D-15 -0.27021643D-15 -0.33454547D-15
 -0.28468310D-15 -0.10832717D-15  0.50734235D-18 -0.11705958D-15 -0.21948780D-15
 -0.37341406D-15 -0.57987260D-15 -0.76952467D-15 -0.81097337D-15 -0.50285523D-15
  0.33449949D-15  0.31172602D-15  0.14041955D-15 -0.14692273D-15 -0.74492760D-04
 -0.71549405D-04 -0.50175382D-04  0.18226846D-03  0.17506667D-03  0.12276883D-03
  0.10273266D-14  0.98673488D-15  0.69196661D-15 -0.62183439D-04  0.15215008D-03
  0.42430758D-16 -0.12328598D-03  0.30165543D-03 -0.10115209D-15 -0.57464040D-05
  0.14060268D-04 -0.21789612D-16  0.24866555D-15 -0.57739716D-15  0.32873161D-15
  0.51017060D-15 -0.14243652D-05  0.34851285D-05  0.60616958D-16  0.87084774D-16
 -0.14770173D-15 -0.56855465D-16 -0.12781064D-03  0.31272634D-03  0.23628574D-16
  0.12812363D-17 -0.24909811D-16  0.68703362D-17 -0.44091203D-04  0.10788210D-03
 -0.11095165D-04  0.27147586D-04  0.56375188D-15 -0.11095159D-04  0.27147572D-04
 -0.52249640D-15  0.44380654D-04 -0.10859033D-03 -0.11687592D-14 -0.14512000D-14
  0.79000159D-05 -0.19329713D-04 -0.58950168D-16  0.78999943D-05 -0.19329660D-04
  0.68354989D-16 -0.31600042D-04  0.77318800D-04  0.10849552D-15  0.14392716D-16
  0.12838783D-15  0.24001358D-15  0.41481841D-15  0.67095016D-15  0.10141019D-14
  0.13965847D-14  0.16322837D-14  0.14104163D-14  0.65782317D-15  0.89318176D-16
  0.23917207D-18  0.46915673D-18  0.21418964D-19 -0.20576739D-15 -0.38427936D-15
 -0.66659201D-15 -0.10808559D-14 -0.16641007D-14 -0.23700532D-14 -0.30475807D-14
 -0.31990529D-14 -0.22619571D-14  0.50091987D-16  0.16252454D-14  0.89490423D-15
 -0.37845348D-17  0.14365535D-15  0.26808213D-15  0.46562657D-15  0.75421174D-15
  0.11650364D-14  0.16609344D-14  0.21603332D-14  0.23023328D-14  0.17075924D-14
 -0.53151010D-16 -0.15469897D-14 -0.15155160D-14  0.70783585D-15 -0.24262559D-15
 -0.15492124D-15  0.10818921D-15 -0.36643892D+01 -0.48074791D+01 -0.52730719D+01
 -0.43387671D+01 -0.22874838D+01 -0.59509517D+00  0.65853348D-03  0.89660065D+01
  0.11762912D+02  0.12902122D+02  0.10616070D+02  0.55970022D+01  0.14560754D+01
 -0.16112959D-02 -0.65736882D-11 -0.86243210D-11 -0.94595656D-11 -0.77834805D-11
 -0.41036048D-11 -0.10675640D-11  0.11813684D-14 -0.25251009D-02 -0.33154729D-02
 -0.37301306D-02 -0.31429170D-02 -0.17581037D-02 -0.43758843D-03  0.20069914D-03
  0.61784024D-02  0.81122799D-02  0.91268619D-02  0.76900712D-02  0.43017180D-02
  0.10706889D-02 -0.49106950D-03  0.16085747D-14  0.21120683D-14  0.23762193D-14
  0.20021444D-14  0.11199715D-14  0.27875863D-15 -0.12785214D-15 -0.29789629D-01
  0.72889093D-01 -0.53233807D-13 -0.13017227D-04  0.31850475D-04 -0.49438396D-16
  0.54627207D-05 -0.13366153D-04  0.18416262D-18  0.34511640D-17  0.23527310D-16
 -0.26978474D-16  0.28600263D-17 -0.96583849D-04  0.23632081D-03 -0.20205190D-15
 -0.45895679D-15  0.66100869D-15 -0.66136807D-17 -0.84802366D-04  0.20749394D-03
  0.30403480D-17  0.87683885D-17 -0.11808736D-16 -0.14030186D-17 -0.15933411D-04
  0.38985779D-04  0.87840019D-05 -0.21492645D-04 -0.21291561D-15  0.87828499D-05
 -0.21489827D-04  0.16184450D-15 -0.35134856D-04  0.85967762D-04  0.47690233D-15
 -0.15017433D-16 -0.67276201D-05  0.16461102D-04  0.20729365D-16 -0.67275380D-05
  0.16460901D-04 -0.17442182D-16  0.26910398D-04 -0.65844207D-04 -0.44745914D-16
  0.12476216D-17
MO    5     MO 0.0        OCC NO =    2.0000000  ORB. ENERGY =   -6.641642
  0.94597777D-16  0.17626903D-15  0.29811512D-15  0.44894485D-15  0.55582285D-15
  0.47298016D-15  0.17997768D-15 -0.84291224D-18 -0.77796261D-17 -0.14586872D-16
 -0.24816609D-16 -0.38537573D-16 -0.51141601D-16 -0.53896227D-16 -0.33419099D-16
  0.22230398D-16  0.78808136D-16 -0.21469526D-15 -0.16359143D-15 -0.18226846D-03
 -0.17506667D-03 -0.12276883D-03 -0.74492760D-04 -0.71549405D-04 -0.50175382D-04
  0.75478915D-15  0.72496595D-15  0.50839617D-15 -0.15215008D-03 -0.62183439D-04
  0.46895424D-16 -0.30165543D-03 -0.12328598D-03 -0.10286370D-15 -0.14060268D-04
 -0.57464040D-05 -0.23705617D-16  0.25000129D-15 -0.33859948D-15  0.88598190D-16
  0.15614322D-15 -0.34851285D-05 -0.14243652D-05  0.35229453D-17  0.83684369D-16
 -0.87207314D-16 -0.11375930D-15 -0.31272634D-03 -0.12781064D-03  0.30141379D-16
 -0.18436120D-16 -0.11705259D-16  0.80247658D-17 -0.10788210D-03 -0.44091203D-04
 -0.27147586D-04 -0.11095165D-04  0.14978907D-15 -0.27147572D-04 -0.11095159D-04
 -0.18428464D-15  0.10859033D-03  0.44380654D-04 -0.26508258D-15  0.25056477D-15
  0.19329713D-04  0.79000159D-05 -0.15700081D-16  0.19329660D-04  0.78999943D-05
  0.24956237D-16 -0.77318800D-04 -0.31600042D-04  0.22144005D-16  0.48878763D-17
  0.37702404D-16  0.70482453D-16  0.12181569D-15  0.19703140D-15  0.29780143D-15
  0.41012144D-15  0.47933688D-15  0.41418322D-15  0.19317653D-15  0.26229200D-16
  0.70235334D-19  0.13777269D-18  0.62898988D-20 -0.52244874D-16 -0.97569527D-16
 -0.16924944D-15 -0.27443212D-15 -0.42251949D-15 -0.60176266D-15 -0.77378866D-15
 -0.81224784D-15 -0.57431678D-15  0.12718486D-16  0.41265403D-15  0.22721851D-15
 -0.96090322D-18  0.41563109D-16  0.77562909D-16  0.13471749D-15  0.21821244D-15
  0.33707436D-15  0.48055015D-15  0.62503877D-15  0.66612285D-15  0.49404946D-15
 -0.15377925D-16 -0.44758308D-15 -0.43847693D-15  0.20479473D-15 -0.10431498D-15
  0.15274930D-15  0.12154417D-15 -0.89660065D+01 -0.11762912D+02 -0.12902122D+02
 -0.10616070D+02 -0.55970022D+01 -0.14560754D+01  0.16112959D-02 -0.36643892D+01
 -0.48074791D+01 -0.52730719D+01 -0.43387671D+01 -0.22874838D+01 -0.59509517D+00
  0.65853348D-03 -0.19092559D-11 -0.25048398D-11 -0.27474275D-11 -0.22606269D-11
 -0.11918472D-11 -0.31006231D-12  0.34311555D-15 -0.61784024D-02 -0.81122799D-02
 -0.91268619D-02 -0.76900712D-02 -0.43017180D-02 -0.10706889D-02  0.49106950D-03
 -0.25251009D-02 -0.33154729D-02 -0.37301306D-02 -0.31429170D-02 -0.17581037D-02
 -0.43758843D-03  0.20069914D-03  0.20883809D-14  0.27420568D-14  0.30849988D-14
  0.25993447D-14  0.14540370D-14  0.36190685D-15 -0.16598792D-15 -0.72889093D-01
 -0.29789629D-01 -0.15450417D-13 -0.31850475D-04 -0.13017227D-04 -0.10936428D-15
  0.13366153D-04  0.54627207D-05 -0.35548430D-18 -0.22577597D-16 -0.76805089D-17
  0.30258106D-16  0.31209366D-17 -0.23632081D-03 -0.96583849D-04 -0.18367104D-15
 -0.63237655D-16  0.24690869D-15  0.21175549D-16 -0.20749394D-03 -0.84802366D-04
 -0.64416809D-17  0.59956880D-17  0.44599288D-18 -0.63629233D-18 -0.38985779D-04
 -0.15933411D-04  0.21492645D-04  0.87840019D-05 -0.82551876D-16  0.21489827D-04
  0.87828499D-05  0.15712016D-15 -0.85967762D-04 -0.35134856D-04  0.90535469D-16
  0.13105827D-16 -0.16461102D-04 -0.67276201D-05  0.81486964D-17 -0.16460901D-04
 -0.67275380D-05 -0.15485844D-16  0.65844207D-04  0.26910398D-04 -0.89602453D-17
  0.56450743D-17
MO    6     MO 0.0        OCC NO =    2.0000000  ORB. ENERGY =   -6.640148
 -0.18761063D-03 -0.34958478D-03 -0.59123550D-03 -0.89036790D-03 -0.11023332D-02
 -0.93803582D-03 -0.35693993D-03  0.16717020D-05 -0.14530961D-03 -0.27245688D-03
 -0.46353021D-03 -0.71981348D-03 -0.95523435D-03 -0.10066859D-02 -0.62420947D-03
  0.41522438D-03  0.39283764D-03  0.36574136D-03 -0.11784009D-03 -0.47669678D-15
 -0.45786156D-15 -0.32108413D-15 -0.41647946D-16 -0.40002354D-16 -0.28052412D-16
  0.22045562D-02  0.21174499D-02  0.14849020D-02  0.20547252D-15 -0.14624655D-15
  0.30103561D-03  0.12883075D-15 -0.25253066D-15 -0.55377591D-04  0.99642003D-18
 -0.12145812D-16 -0.23314724D-04 -0.27005717D-03 -0.27005717D-03  0.54011433D-03
  0.67506018D-18  0.21451236D-17 -0.10776826D-16  0.78543657D-04  0.78543657D-04
 -0.15708731D-03  0.16941838D-19  0.17720410D-15 -0.25857887D-15  0.16245135D-04
  0.16245135D-04 -0.32490271D-04  0.38743853D-19  0.28181701D-16 -0.85737113D-16
  0.10535340D-16 -0.19234100D-16  0.84911582D-03  0.10475827D-16 -0.19041137D-16
 -0.12736737D-02 -0.42081847D-16  0.76743436D-16 -0.12736737D-02 -0.52187900D-18
 -0.83489276D-17  0.18548342D-16 -0.87989194D-04 -0.83569500D-17  0.18568709D-16
  0.13198379D-03  0.33403733D-16 -0.74213736D-16  0.13198379D-03 -0.15028043D-19
  0.18425909D-03  0.34446166D-03  0.59533729D-03  0.96293135D-03  0.14554144D-02
  0.20043444D-02  0.23426139D-02  0.20241951D-02  0.94409182D-03  0.12818727D-03
  0.34325394D-06  0.67332232D-06  0.30739977D-07 -0.33415639D-03 -0.62405129D-03
 -0.10825135D-02 -0.17552582D-02 -0.27024199D-02 -0.38488529D-02 -0.49491253D-02
 -0.51951088D-02 -0.36733101D-02  0.81346989D-04  0.26393208D-02  0.14532816D-02
 -0.61459034D-05  0.24416404D-03  0.45564622D-03  0.79140294D-03  0.12818972D-02
  0.19801560D-02  0.28230099D-02  0.36718137D-02  0.39131636D-02  0.29023121D-02
 -0.90338198D-04 -0.26293435D-02 -0.25758492D-02  0.12030743D-02 -0.26011923D-03
 -0.36485453D-03  0.87747031D-04  0.42503596D-11  0.55762404D-11  0.61162858D-11
  0.50325769D-11  0.26532741D-11  0.69025650D-12 -0.76383920D-15 -0.53569535D-11
 -0.70280313D-11 -0.77086791D-11 -0.63428233D-11 -0.33440619D-11 -0.86996685D-12
  0.96270702D-15 -0.96933656D+01 -0.12717168D+02 -0.13948795D+02 -0.11477289D+02
 -0.60510539D+01 -0.15741982D+01  0.17420108D-02  0.26448871D-14  0.34727528D-14
  0.39070811D-14  0.32920112D-14  0.18415049D-14  0.45834683D-15 -0.21021994D-15
 -0.42173710D-14 -0.55374338D-14 -0.62299864D-14 -0.52492345D-14 -0.29363482D-14
 -0.73085109D-15  0.33520352D-15  0.17812600D-02  0.23388052D-02  0.26313135D-02
  0.22170806D-02  0.12402038D-02  0.30868420D-03 -0.14157745D-03  0.34544979D-13
 -0.43592934D-13 -0.78546664D-01  0.34103871D-16  0.72172518D-17  0.33518765D-05
 -0.52294537D-17  0.97855519D-17  0.36360511D-05  0.37452264D-04  0.37452264D-04
 -0.74904527D-04  0.50154077D-19  0.91124667D-16 -0.19036719D-15 -0.48196895D-03
 -0.48196895D-03  0.96393790D-03 -0.28114103D-18  0.76137743D-16 -0.16139477D-15
  0.10989278D-04  0.10989278D-04 -0.21978557D-04 -0.15465955D-19  0.14119324D-16
 -0.30431470D-16 -0.33350618D-17 -0.29824742D-17 -0.30180566D-03 -0.32622516D-17
 -0.29316158D-17  0.45270849D-03  0.13267437D-16  0.11879038D-16  0.45270849D-03
 -0.14393614D-17  0.80824883D-17 -0.99820626D-17  0.31296980D-04  0.80789159D-17
 -0.99848541D-17 -0.46945469D-04 -0.32326381D-16  0.39931042D-16 -0.46945469D-04
  0.89754052D-19
MO    7     MO 0.0        OCC NO =    2.0000000  ORB. ENERGY =   -1.446759
 -0.58284805D-02 -0.10860515D-01 -0.18367854D-01 -0.27660970D-01 -0.34246076D-01
 -0.29141865D-01 -0.11089017D-01  0.51934598D-04 -0.61457188D-01 -0.11523280D+00
 -0.19604528D+00 -0.30443762D+00 -0.40400643D+00 -0.42576732D+00 -0.26400290D+00
  0.17561483D+00  0.89563950D-01  0.32484181D-01  0.48854720D-03 -0.35075891D-15
 -0.33689974D-15 -0.23625735D-15 -0.36807547D-16 -0.35353208D-16 -0.24792110D-16
  0.36187722D+00  0.34757874D+00  0.24374620D+00 -0.44317409D-16  0.26018169D-16
  0.87447299D-01 -0.14605334D-16 -0.11305660D-16  0.52978046D-02 -0.20226412D-17
  0.15958783D-18 -0.11240946D-03 -0.22348062D-01 -0.22348062D-01  0.44696125D-01
 -0.26317056D-17 -0.97449710D-17 -0.22400475D-17 -0.47509580D-02 -0.47509580D-02
  0.95019159D-02  0.35748840D-17 -0.19125039D-16 -0.15209437D-16 -0.64288045D-05
 -0.64288045D-05  0.12857609D-04 -0.65377969D-18 -0.27013559D-17 -0.37954751D-17
  0.76256725D-19 -0.49605622D-18  0.76779475D-02 -0.44279161D-18  0.14095378D-18
 -0.11516921D-01  0.21402144D-18  0.13472149D-17 -0.11516921D-01  0.89118254D-17
  0.12113955D-17  0.14351175D-17  0.53145824D-03  0.10878979D-17  0.69891761D-18
 -0.79718736D-03 -0.47220843D-17 -0.50042702D-17 -0.79718736D-03  0.47599305D-18
 -0.44227830D-03 -0.82681358D-03 -0.14289920D-02 -0.23113305D-02 -0.34934406D-02
 -0.48110410D-02 -0.56229915D-02 -0.48586889D-02 -0.22661098D-02 -0.30768876D-03
 -0.82391468D-06 -0.16161800D-05 -0.73785368D-07  0.27365847D-02  0.51106885D-02
  0.88652801D-02  0.14374745D-01  0.22131557D-01  0.31520308D-01  0.40531024D-01
  0.42545514D-01  0.30082694D-01 -0.66619384D-03 -0.21614804D-01 -0.11901698D-01
  0.50332078D-04  0.27919506D-01  0.52101929D-01  0.90494815D-01  0.14658152D+00
  0.22642555D+00  0.32280365D+00  0.41986210D+00  0.44745982D+00  0.33187164D+00
 -0.10329932D-01 -0.30065842D+00 -0.29454148D+00  0.13756834D+00  0.31559547D-01
  0.12881728D-01 -0.11577443D-02 -0.13201825D-14 -0.17320075D-14 -0.18997482D-14
 -0.15631430D-14 -0.82411988D-15 -0.21439704D-15  0.23725218D-18 -0.10762437D-14
 -0.14119731D-14 -0.15487193D-14 -0.12743108D-14 -0.67184185D-15 -0.17478149D-15
  0.19341354D-18  0.46463591D+00  0.60957702D+00  0.66861308D+00  0.55014543D+00
  0.29004755D+00  0.75456664D-01 -0.83500492D-04 -0.13509145D-15 -0.17737589D-15
 -0.19955984D-15 -0.16814425D-15 -0.94057537D-16 -0.23410729D-16  0.10737289D-16
 -0.17320062D-15 -0.22741347D-15 -0.25585548D-15 -0.21557759D-15 -0.12059108D-15
 -0.30014875D-16  0.13766268D-16  0.53576930D+00  0.70346836D+00  0.79144933D+00
  0.66685590D+00  0.37302984D+00  0.92846368D-01 -0.42583818D-01 -0.16426503D-16
 -0.22646609D-16 -0.92629513D-01  0.89894092D-17  0.70760461D-17  0.11216713D-02
 -0.10230093D-18 -0.11313312D-17  0.61643406D-04 -0.15879456D-02 -0.15879456D-02
  0.31758913D-02  0.61245438D-18 -0.96503353D-17 -0.50594640D-18 -0.26154965D-01
 -0.26154965D-01  0.52309930D-01  0.13721637D-16  0.43029211D-17  0.18412266D-16
  0.12535221D-03  0.12535221D-03 -0.25070443D-03 -0.36372919D-18 -0.86858243D-18
 -0.13972876D-17 -0.26076712D-17 -0.28705989D-17 -0.53096371D-02 -0.33592896D-17
 -0.37123588D-17  0.79644557D-02  0.11182303D-16  0.12324155D-16  0.79644557D-02
 -0.10328502D-16  0.36321371D-18 -0.34753276D-19  0.21915427D-03  0.55337060D-18
 -0.21448431D-19 -0.32873140D-03 -0.16430117D-17  0.12570826D-18 -0.32873140D-03
  0.74235013D-18
MO    8     MO 0.0        OCC NO =    2.0000000  ORB. ENERGY =   -1.012623
  0.44030911D-03  0.82045120D-03  0.13875887D-02  0.20896316D-02  0.25870995D-02
  0.22015049D-02  0.83771324D-03 -0.39233685D-05 -0.52844339D-01 -0.99083629D-01
 -0.16857073D+00 -0.26177255D+00 -0.34738740D+00 -0.36609864D+00 -0.22700451D+00
  0.15100349D+00  0.82525968D-01  0.47898181D-01 -0.14942638D-02  0.42196473D-15
  0.40529208D-15  0.28421878D-15 -0.19112605D-15 -0.18357429D-15 -0.12873496D-15
 -0.14561777D+00 -0.13986412D+00 -0.98082377D-01  0.28416333D-16 -0.98751741D-16
 -0.36781433D-01  0.41239424D-16 -0.58650217D-17 -0.50109457D-02  0.21920706D-18
 -0.19576464D-17 -0.28495851D-03  0.41836680D-02  0.41836680D-02 -0.83673361D-02