 Molden2AIM, Version 4.0.0 (06/02/2016)           Time: Mon Jul  2 17:54:23 2018
GAUSSIAN             21 MOL ORBITALS    558 PRIMITIVES       10 NUCLEI
  H    1    (CENTRE  1)   0.00000000  4.55007689 -0.29307196  CHARGE =  1.0
  H    2    (CENTRE  2)   0.00000000 -4.55007689 -0.29307196  CHARGE =  1.0
  H    3    (CENTRE  3)   0.00000000  2.40741282  3.97138795  CHARGE =  1.0
  H    4    (CENTRE  4)   0.00000000 -2.40741282  3.97138795  CHARGE =  1.0
  C    5    (CENTRE  5)   0.00000000  2.49439502 -0.12568946  CHARGE =  6.0
  C    6    (CENTRE  6)   0.00000000 -2.49439502 -0.12568946  CHARGE =  6.0
  C    7    (CENTRE  7)   0.00000000  1.30637523  2.23048154  CHARGE =  6.0
  C    8    (CENTRE  8)   0.00000000 -1.30637523  2.23048154  CHARGE =  6.0
  N    9    (CENTRE  9)   0.00000000  1.25097413 -2.31686470  CHARGE =  7.0
  N   10    (CENTRE 10)   0.00000000 -1.25097413 -2.31686470  CHARGE =  7.0
CENTRE ASSIGNMENTS    1  1  1  1  1  1  1  1  1  1  1  1  1  1  1  1  1  1  1  1
CENTRE ASSIGNMENTS    1  1  1  1  1  1  1  2  2  2  2  2  2  2  2  2  2  2  2  2
CENTRE ASSIGNMENTS    2  2  2  2  2  2  2  2  2  2  2  2  2  2  3  3  3  3  3  3
CENTRE ASSIGNMENTS    3  3  3  3  3  3  3  3  3  3  3  3  3  3  3  3  3  3  3  3
CENTRE ASSIGNMENTS    3  4  4  4  4  4  4  4  4  4  4  4  4  4  4  4  4  4  4  4
CENTRE ASSIGNMENTS    4  4  4  4  4  4  4  4  5  5  5  5  5  5  5  5  5  5  5  5
CENTRE ASSIGNMENTS    5  5  5  5  5  5  5  5  5  5  5  5  5  5  5  5  5  5  5  5
CENTRE ASSIGNMENTS    5  5  5  5  5  5  5  5  5  5  5  5  5  5  5  5  5  5  5  5
CENTRE ASSIGNMENTS    5  5  5  5  5  5  5  5  5  5  5  5  5  5  5  5  5  5  5  5
CENTRE ASSIGNMENTS    5  5  5  6  6  6  6  6  6  6  6  6  6  6  6  6  6  6  6  6
CENTRE ASSIGNMENTS    6  6  6  6  6  6  6  6  6  6  6  6  6  6  6  6  6  6  6  6
CENTRE ASSIGNMENTS    6  6  6  6  6  6  6  6  6  6  6  6  6  6  6  6  6  6  6  6
CENTRE ASSIGNMENTS    6  6  6  6  6  6  6  6  6  6  6  6  6  6  6  6  6  6  7  7
CENTRE ASSIGNMENTS    7  7  7  7  7  7  7  7  7  7  7  7  7  7  7  7  7  7  7  7
CENTRE ASSIGNMENTS    7  7  7  7  7  7  7  7  7  7  7  7  7  7  7  7  7  7  7  7
CENTRE ASSIGNMENTS    7  7  7  7  7  7  7  7  7  7  7  7  7  7  7  7  7  7  7  7
CENTRE ASSIGNMENTS    7  7  7  7  7  7  7  7  7  7  7  7  7  8  8  8  8  8  8  8
CENTRE ASSIGNMENTS    8  8  8  8  8  8  8  8  8  8  8  8  8  8  8  8  8  8  8  8
CENTRE ASSIGNMENTS    8  8  8  8  8  8  8  8  8  8  8  8  8  8  8  8  8  8  8  8
CENTRE ASSIGNMENTS    8  8  8  8  8  8  8  8  8  8  8  8  8  8  8  8  8  8  8  8
CENTRE ASSIGNMENTS    8  8  8  8  8  8  8  8  9  9  9  9  9  9  9  9  9  9  9  9
CENTRE ASSIGNMENTS    9  9  9  9  9  9  9  9  9  9  9  9  9  9  9  9  9  9  9  9
CENTRE ASSIGNMENTS    9  9  9  9  9  9  9  9  9  9  9  9  9  9  9  9  9  9  9  9
CENTRE ASSIGNMENTS    9  9  9  9  9  9  9  9  9  9  9  9  9  9  9  9  9  9  9  9
CENTRE ASSIGNMENTS    9  9  9 10 10 10 10 10 10 10 10 10 10 10 10 10 10 10 10 10
CENTRE ASSIGNMENTS   10 10 10 10 10 10 10 10 10 10 10 10 10 10 10 10 10 10 10 10
CENTRE ASSIGNMENTS   10 10 10 10 10 10 10 10 10 10 10 10 10 10 10 10 10 10 10 10
CENTRE ASSIGNMENTS   10 10 10 10 10 10 10 10 10 10 10 10 10 10 10 10 10 10
TYPE ASSIGNMENTS      1  1  1  1  1  1  2  3  4  2  3  4  2  3  4  5  6  7  8  9
TYPE ASSIGNMENTS     10  5  6  7  8  9 10  1  1  1  1  1  1  2  3  4  2  3  4  2
TYPE ASSIGNMENTS      3  4  5  6  7  8  9 10  5  6  7  8  9 10  1  1  1  1  1  1
TYPE ASSIGNMENTS      2  3  4  2  3  4  2  3  4  5  6  7  8  9 10  5  6  7  8  9
TYPE ASSIGNMENTS     10  1  1  1  1  1  1  2  3  4  2  3  4  2  3  4  5  6  7  8
TYPE ASSIGNMENTS      9 10  5  6  7  8  9 10  1  1  1  1  1  1  1  1  1  1  1  1
TYPE ASSIGNMENTS      1  1  1  1  1  1  1  2  2  2  3  3  3  4  4  4  2  3  4  2
TYPE ASSIGNMENTS      3  4  2  3  4  5  6  7  8  9 10  5  6  7  8  9 10  5  6  7
TYPE ASSIGNMENTS      8  9 10 11 12 13 17 14 15 18 19 16 20 11 12 13 17 14 15 18
TYPE ASSIGNMENTS     19 16 20  1  1  1  1  1  1  1  1  1  1  1  1  1  1  1  1  1
TYPE ASSIGNMENTS      1  1  2  2  2  3  3  3  4  4  4  2  3  4  2  3  4  2  3  4
TYPE ASSIGNMENTS      5  6  7  8  9 10  5  6  7  8  9 10  5  6  7  8  9 10 11 12
TYPE ASSIGNMENTS     13 17 14 15 18 19 16 20 11 12 13 17 14 15 18 19 16 20  1  1
TYPE ASSIGNMENTS      1  1  1  1  1  1  1  1  1  1  1  1  1  1  1  1  1  2  2  2
TYPE ASSIGNMENTS      3  3  3  4  4  4  2  3  4  2  3  4  2  3  4  5  6  7  8  9
TYPE ASSIGNMENTS     10  5  6  7  8  9 10  5  6  7  8  9 10 11 12 13 17 14 15 18
TYPE ASSIGNMENTS     19 16 20 11 12 13 17 14 15 18 19 16 20  1  1  1  1  1  1  1
TYPE ASSIGNMENTS      1  1  1  1  1  1  1  1  1  1  1  1  2  2  2  3  3  3  4  4
TYPE ASSIGNMENTS      4  2  3  4  2  3  4  2  3  4  5  6  7  8  9 10  5  6  7  8
TYPE ASSIGNMENTS      9 10  5  6  7  8  9 10 11 12 13 17 14 15 18 19 16 20 11 12
TYPE ASSIGNMENTS     13 17 14 15 18 19 16 20  1  1  1  1  1  1  1  1  1  1  1  1
TYPE ASSIGNMENTS      1  1  1  1  1  1  1  2  2  2  3  3  3  4  4  4  2  3  4  2
TYPE ASSIGNMENTS      3  4  2  3  4  5  6  7  8  9 10  5  6  7  8  9 10  5  6  7
TYPE ASSIGNMENTS      8  9 10 11 12 13 17 14 15 18 19 16 20 11 12 13 17 14 15 18
TYPE ASSIGNMENTS     19 16 20  1  1  1  1  1  1  1  1  1  1  1  1  1  1  1  1  1
TYPE ASSIGNMENTS      1  1  2  2  2  3  3  3  4  4  4  2  3  4  2  3  4  2  3  4
TYPE ASSIGNMENTS      5  6  7  8  9 10  5  6  7  8  9 10  5  6  7  8  9 10 11 12
TYPE ASSIGNMENTS     13 17 14 15 18 19 16 20 11 12 13 17 14 15 18 19 16 20
EXPONENTS  0.3387000D+02 0.5095000D+01 0.1159000D+01 0.3258000D+00 0.1027000D+00
EXPONENTS  0.2526000D-01 0.1407000D+01 0.1407000D+01 0.1407000D+01 0.3880000D+00
EXPONENTS  0.3880000D+00 0.3880000D+00 0.1020000D+00 0.1020000D+00 0.1020000D+00
EXPONENTS  0.1057000D+01 0.1057000D+01 0.1057000D+01 0.1057000D+01 0.1057000D+01
EXPONENTS  0.1057000D+01 0.2470000D+00 0.2470000D+00 0.2470000D+00 0.2470000D+00
EXPONENTS  0.2470000D+00 0.2470000D+00 0.3387000D+02 0.5095000D+01 0.1159000D+01
EXPONENTS  0.3258000D+00 0.1027000D+00 0.2526000D-01 0.1407000D+01 0.1407000D+01
EXPONENTS  0.1407000D+01 0.3880000D+00 0.3880000D+00 0.3880000D+00 0.1020000D+00
EXPONENTS  0.1020000D+00 0.1020000D+00 0.1057000D+01 0.1057000D+01 0.1057000D+01
EXPONENTS  0.1057000D+01 0.1057000D+01 0.1057000D+01 0.2470000D+00 0.2470000D+00
EXPONENTS  0.2470000D+00 0.2470000D+00 0.2470000D+00 0.2470000D+00 0.3387000D+02
EXPONENTS  0.5095000D+01 0.1159000D+01 0.3258000D+00 0.1027000D+00 0.2526000D-01
EXPONENTS  0.1407000D+01 0.1407000D+01 0.1407000D+01 0.3880000D+00 0.3880000D+00
EXPONENTS  0.3880000D+00 0.1020000D+00 0.1020000D+00 0.1020000D+00 0.1057000D+01
EXPONENTS  0.1057000D+01 0.1057000D+01 0.1057000D+01 0.1057000D+01 0.1057000D+01
EXPONENTS  0.2470000D+00 0.2470000D+00 0.2470000D+00 0.2470000D+00 0.2470000D+00
EXPONENTS  0.2470000D+00 0.3387000D+02 0.5095000D+01 0.1159000D+01 0.3258000D+00
EXPONENTS  0.1027000D+00 0.2526000D-01 0.1407000D+01 0.1407000D+01 0.1407000D+01
EXPONENTS  0.3880000D+00 0.3880000D+00 0.3880000D+00 0.1020000D+00 0.1020000D+00
EXPONENTS  0.1020000D+00 0.1057000D+01 0.1057000D+01 0.1057000D+01 0.1057000D+01
EXPONENTS  0.1057000D+01 0.1057000D+01 0.2470000D+00 0.2470000D+00 0.2470000D+00
EXPONENTS  0.2470000D+00 0.2470000D+00 0.2470000D+00 0.8236000D+04 0.1235000D+04
EXPONENTS  0.2808000D+03 0.7927000D+02 0.2559000D+02 0.8997000D+01 0.3319000D+01
EXPONENTS  0.3643000D+00 0.8236000D+04 0.1235000D+04 0.2808000D+03 0.7927000D+02
EXPONENTS  0.2559000D+02 0.8997000D+01 0.3319000D+01 0.3643000D+00 0.9059000D+00
EXPONENTS  0.1285000D+00 0.4402000D-01 0.1871000D+02 0.4133000D+01 0.1200000D+01
EXPONENTS  0.1871000D+02 0.4133000D+01 0.1200000D+01 0.1871000D+02 0.4133000D+01
EXPONENTS  0.1200000D+01 0.3827000D+00 0.3827000D+00 0.3827000D+00 0.1209000D+00
EXPONENTS  0.1209000D+00 0.1209000D+00 0.3569000D-01 0.3569000D-01 0.3569000D-01
EXPONENTS  0.1097000D+01 0.1097000D+01 0.1097000D+01 0.1097000D+01 0.1097000D+01
EXPONENTS  0.1097000D+01 0.3180000D+00 0.3180000D+00 0.3180000D+00 0.3180000D+00
EXPONENTS  0.3180000D+00 0.3180000D+00 0.1000000D+00 0.1000000D+00 0.1000000D+00
EXPONENTS  0.1000000D+00 0.1000000D+00 0.1000000D+00 0.7610000D+00 0.7610000D+00
EXPONENTS  0.7610000D+00 0.7610000D+00 0.7610000D+00 0.7610000D+00 0.7610000D+00
EXPONENTS  0.7610000D+00 0.7610000D+00 0.7610000D+00 0.2680000D+00 0.2680000D+00
EXPONENTS  0.2680000D+00 0.2680000D+00 0.2680000D+00 0.2680000D+00 0.2680000D+00
EXPONENTS  0.2680000D+00 0.2680000D+00 0.2680000D+00 0.8236000D+04 0.1235000D+04
EXPONENTS  0.2808000D+03 0.7927000D+02 0.2559000D+02 0.8997000D+01 0.3319000D+01
EXPONENTS  0.3643000D+00 0.8236000D+04 0.1235000D+04 0.2808000D+03 0.7927000D+02
EXPONENTS  0.2559000D+02 0.8997000D+01 0.3319000D+01 0.3643000D+00 0.9059000D+00
EXPONENTS  0.1285000D+00 0.4402000D-01 0.1871000D+02 0.4133000D+01 0.1200000D+01
EXPONENTS  0.1871000D+02 0.4133000D+01 0.1200000D+01 0.1871000D+02 0.4133000D+01
EXPONENTS  0.1200000D+01 0.3827000D+00 0.3827000D+00 0.3827000D+00 0.1209000D+00
EXPONENTS  0.1209000D+00 0.1209000D+00 0.3569000D-01 0.3569000D-01 0.3569000D-01
EXPONENTS  0.1097000D+01 0.1097000D+01 0.1097000D+01 0.1097000D+01 0.1097000D+01
EXPONENTS  0.1097000D+01 0.3180000D+00 0.3180000D+00 0.3180000D+00 0.3180000D+00
EXPONENTS  0.3180000D+00 0.3180000D+00 0.1000000D+00 0.1000000D+00 0.1000000D+00
EXPONENTS  0.1000000D+00 0.1000000D+00 0.1000000D+00 0.7610000D+00 0.7610000D+00
EXPONENTS  0.7610000D+00 0.7610000D+00 0.7610000D+00 0.7610000D+00 0.7610000D+00
EXPONENTS  0.7610000D+00 0.7610000D+00 0.7610000D+00 0.2680000D+00 0.2680000D+00
EXPONENTS  0.2680000D+00 0.2680000D+00 0.2680000D+00 0.2680000D+00 0.2680000D+00
EXPONENTS  0.2680000D+00 0.2680000D+00 0.2680000D+00 0.8236000D+04 0.1235000D+04
EXPONENTS  0.2808000D+03 0.7927000D+02 0.2559000D+02 0.8997000D+01 0.3319000D+01
EXPONENTS  0.3643000D+00 0.8236000D+04 0.1235000D+04 0.2808000D+03 0.7927000D+02
EXPONENTS  0.2559000D+02 0.8997000D+01 0.3319000D+01 0.3643000D+00 0.9059000D+00
EXPONENTS  0.1285000D+00 0.4402000D-01 0.1871000D+02 0.4133000D+01 0.1200000D+01
EXPONENTS  0.1871000D+02 0.4133000D+01 0.1200000D+01 0.1871000D+02 0.4133000D+01
EXPONENTS  0.1200000D+01 0.3827000D+00 0.3827000D+00 0.3827000D+00 0.1209000D+00
EXPONENTS  0.1209000D+00 0.1209000D+00 0.3569000D-01 0.3569000D-01 0.3569000D-01
EXPONENTS  0.1097000D+01 0.1097000D+01 0.1097000D+01 0.1097000D+01 0.1097000D+01
EXPONENTS  0.1097000D+01 0.3180000D+00 0.3180000D+00 0.3180000D+00 0.3180000D+00
EXPONENTS  0.3180000D+00 0.3180000D+00 0.1000000D+00 0.1000000D+00 0.1000000D+00
EXPONENTS  0.1000000D+00 0.1000000D+00 0.1000000D+00 0.7610000D+00 0.7610000D+00
EXPONENTS  0.7610000D+00 0.7610000D+00 0.7610000D+00 0.7610000D+00 0.7610000D+00
EXPONENTS  0.7610000D+00 0.7610000D+00 0.7610000D+00 0.2680000D+00 0.2680000D+00
EXPONENTS  0.2680000D+00 0.2680000D+00 0.2680000D+00 0.2680000D+00 0.2680000D+00
EXPONENTS  0.2680000D+00 0.2680000D+00 0.2680000D+00 0.8236000D+04 0.1235000D+04
EXPONENTS  0.2808000D+03 0.7927000D+02 0.2559000D+02 0.8997000D+01 0.3319000D+01
EXPONENTS  0.3643000D+00 0.8236000D+04 0.1235000D+04 0.2808000D+03 0.7927000D+02
EXPONENTS  0.2559000D+02 0.8997000D+01 0.3319000D+01 0.3643000D+00 0.9059000D+00
EXPONENTS  0.1285000D+00 0.4402000D-01 0.1871000D+02 0.4133000D+01 0.1200000D+01
EXPONENTS  0.1871000D+02 0.4133000D+01 0.1200000D+01 0.1871000D+02 0.4133000D+01
EXPONENTS  0.1200000D+01 0.3827000D+00 0.3827000D+00 0.3827000D+00 0.1209000D+00
EXPONENTS  0.1209000D+00 0.1209000D+00 0.3569000D-01 0.3569000D-01 0.3569000D-01
EXPONENTS  0.1097000D+01 0.1097000D+01 0.1097000D+01 0.1097000D+01 0.1097000D+01
EXPONENTS  0.1097000D+01 0.3180000D+00 0.3180000D+00 0.3180000D+00 0.3180000D+00
EXPONENTS  0.3180000D+00 0.3180000D+00 0.1000000D+00 0.1000000D+00 0.1000000D+00
EXPONENTS  0.1000000D+00 0.1000000D+00 0.1000000D+00 0.7610000D+00 0.7610000D+00
EXPONENTS  0.7610000D+00 0.7610000D+00 0.7610000D+00 0.7610000D+00 0.7610000D+00
EXPONENTS  0.7610000D+00 0.7610000D+00 0.7610000D+00 0.2680000D+00 0.2680000D+00
EXPONENTS  0.2680000D+00 0.2680000D+00 0.2680000D+00 0.2680000D+00 0.2680000D+00
EXPONENTS  0.2680000D+00 0.2680000D+00 0.2680000D+00 0.1142000D+05 0.1712000D+04
EXPONENTS  0.3893000D+03 0.1100000D+03 0.3557000D+02 0.1254000D+02 0.4644000D+01
EXPONENTS  0.5118000D+00 0.1142000D+05 0.1712000D+04 0.3893000D+03 0.1100000D+03
EXPONENTS  0.3557000D+02 0.1254000D+02 0.4644000D+01 0.5118000D+00 0.1293000D+01
EXPONENTS  0.1787000D+00 0.5760000D-01 0.2663000D+02 0.5948000D+01 0.1742000D+01
EXPONENTS  0.2663000D+02 0.5948000D+01 0.1742000D+01 0.2663000D+02 0.5948000D+01
EXPONENTS  0.1742000D+01 0.5550000D+00 0.5550000D+00 0.5550000D+00 0.1725000D+00
EXPONENTS  0.1725000D+00 0.1725000D+00 0.4910000D-01 0.4910000D-01 0.4910000D-01
EXPONENTS  0.1654000D+01 0.1654000D+01 0.1654000D+01 0.1654000D+01 0.1654000D+01
EXPONENTS  0.1654000D+01 0.4690000D+00 0.4690000D+00 0.4690000D+00 0.4690000D+00
EXPONENTS  0.4690000D+00 0.4690000D+00 0.1510000D+00 0.1510000D+00 0.1510000D+00
EXPONENTS  0.1510000D+00 0.1510000D+00 0.1510000D+00 0.1093000D+01 0.1093000D+01
EXPONENTS  0.1093000D+01 0.1093000D+01 0.1093000D+01 0.1093000D+01 0.1093000D+01
EXPONENTS  0.1093000D+01 0.1093000D+01 0.1093000D+01 0.3640000D+00 0.3640000D+00
EXPONENTS  0.3640000D+00 0.3640000D+00 0.3640000D+00 0.3640000D+00 0.3640000D+00
EXPONENTS  0.3640000D+00 0.3640000D+00 0.3640000D+00 0.1142000D+05 0.1712000D+04
EXPONENTS  0.3893000D+03 0.1100000D+03 0.3557000D+02 0.1254000D+02 0.4644000D+01
EXPONENTS  0.5118000D+00 0.1142000D+05 0.1712000D+04 0.3893000D+03 0.1100000D+03
EXPONENTS  0.3557000D+02 0.1254000D+02 0.4644000D+01 0.5118000D+00 0.1293000D+01
EXPONENTS  0.1787000D+00 0.5760000D-01 0.2663000D+02 0.5948000D+01 0.1742000D+01
EXPONENTS  0.2663000D+02 0.5948000D+01 0.1742000D+01 0.2663000D+02 0.5948000D+01
EXPONENTS  0.1742000D+01 0.5550000D+00 0.5550000D+00 0.5550000D+00 0.1725000D+00
EXPONENTS  0.1725000D+00 0.1725000D+00 0.4910000D-01 0.4910000D-01 0.4910000D-01
EXPONENTS  0.1654000D+01 0.1654000D+01 0.1654000D+01 0.1654000D+01 0.1654000D+01
EXPONENTS  0.1654000D+01 0.4690000D+00 0.4690000D+00 0.4690000D+00 0.4690000D+00
EXPONENTS  0.4690000D+00 0.4690000D+00 0.1510000D+00 0.1510000D+00 0.1510000D+00
EXPONENTS  0.1510000D+00 0.1510000D+00 0.1510000D+00 0.1093000D+01 0.1093000D+01
EXPONENTS  0.1093000D+01 0.1093000D+01 0.1093000D+01 0.1093000D+01 0.1093000D+01
EXPONENTS  0.1093000D+01 0.1093000D+01 0.1093000D+01 0.3640000D+00 0.3640000D+00
EXPONENTS  0.3640000D+00 0.3640000D+00 0.3640000D+00 0.3640000D+00 0.3640000D+00
EXPONENTS  0.3640000D+00 0.3640000D+00 0.3640000D+00
MO    1     MO 0.0        OCC NO =    2.0000000  ORB. ENERGY =  -14.426409
  0.70796857D-04  0.12768505D-03  0.18827153D-03  0.81465378D-03  0.14863114D-02
 -0.21759528D-04  0.13874803D-15 -0.34858855D-03  0.53983387D-04 -0.41197327D-16
  0.10289145D-02 -0.34225066D-03  0.31664216D-17 -0.19995288D-03  0.20794445D-03
  0.38018068D-03 -0.37344445D-03 -0.67362324D-05 -0.66426975D-16  0.12633107D-15
 -0.13603533D-05  0.10998893D-03 -0.14914938D-03  0.39160448D-04  0.16185060D-17
 -0.28664880D-16 -0.30887744D-04  0.70796857D-04  0.12768505D-03  0.18827153D-03
  0.81465378D-03  0.14863114D-02 -0.21759528D-04 -0.81042266D-18  0.34858855D-03
  0.53983387D-04  0.18947046D-17 -0.10289145D-02 -0.34225066D-03  0.77936402D-18
  0.19995288D-03  0.20794445D-03  0.38018068D-03 -0.37344445D-03 -0.67362324D-05
  0.11526172D-17  0.67942293D-18  0.13603534D-05  0.10998893D-03 -0.14914938D-03
  0.39160448D-04  0.35799529D-18  0.68807609D-18  0.30887744D-04 -0.13976391D-04
 -0.25206997D-04 -0.37167703D-04  0.41586610D-03 -0.69322582D-03  0.27754033D-04
 -0.37966922D-17 -0.50073235D-04  0.93801535D-04  0.41761348D-17  0.16230649D-03
 -0.13430204D-02  0.39619772D-17 -0.24976352D-04  0.96056430D-04 -0.20640194D-03
 -0.17328714D-03  0.37968908D-03 -0.20390609D-17 -0.35989995D-17 -0.31903621D-04
 -0.54092355D-04 -0.53014278D-04  0.10710663D-03 -0.13062012D-17 -0.12009586D-17
  0.13134418D-03 -0.13976391D-04 -0.25206997D-04 -0.37167703D-04  0.41586610D-03
 -0.69322582D-03  0.27754033D-04  0.64541711D-18  0.50073235D-04  0.93801535D-04
 -0.28279492D-17 -0.16230649D-03 -0.13430204D-02  0.23425159D-18  0.24976352D-04
  0.96056430D-04 -0.20640194D-03 -0.17328714D-03  0.37968908D-03 -0.19369556D-17
  0.27013360D-17  0.31903621D-04 -0.54092355D-04 -0.53014278D-04  0.10710663D-03
 -0.10733013D-17 -0.13517367D-18 -0.13134418D-03  0.38670740D-03  0.72091051D-03
  0.12184658D-02  0.18317532D-02  0.22505204D-02  0.19009242D-02  0.71695869D-03
 -0.35482685D-05 -0.29836396D-03 -0.55863147D-03 -0.95111787D-03 -0.14712347D-02
 -0.19375644D-02 -0.20132535D-02 -0.12793322D-02  0.85737871D-03  0.99197257D-03
 -0.19971092D-02 -0.12270822D-02  0.17232199D-17  0.16156281D-17  0.11504235D-17
 -0.52557686D-03 -0.49276172D-03 -0.35087570D-03 -0.24093051D-03 -0.22588767D-03
 -0.16084548D-03 -0.50816469D-17  0.79781733D-03 -0.29736321D-02 -0.11136252D-16
 -0.17092106D-02  0.63613150D-03 -0.24247101D-19  0.30222746D-04 -0.69910005D-04
 -0.35808015D-03 -0.93611944D-04  0.45169209D-03  0.27171293D-17 -0.56615744D-17
  0.10650888D-02  0.38739058D-03  0.58714126D-03 -0.97453184D-03  0.45106143D-17
 -0.31621063D-18 -0.81598922D-04  0.48210865D-04  0.61941533D-04 -0.11015240D-03
  0.21586037D-17 -0.29283458D-17 -0.45389261D-03 -0.78357099D-18 -0.20863653D-04
 -0.23007519D-03  0.54264948D-17 -0.60283822D-03 -0.42563353D-04 -0.30757819D-17
  0.66542918D-03  0.73278893D-03  0.50100115D-17  0.68586962D-18 -0.28725132D-03
 -0.37075845D-04  0.12665148D-17  0.16175584D-03 -0.27870978D-03 -0.33241236D-17
  0.69999812D-03  0.38993732D-03  0.30808686D-17  0.38670740D-03  0.72091051D-03
  0.12184658D-02  0.18317532D-02  0.22505204D-02  0.19009242D-02  0.71695869D-03
 -0.35482685D-05 -0.29836396D-03 -0.55863147D-03 -0.95111787D-03 -0.14712347D-02
 -0.19375644D-02 -0.20132535D-02 -0.12793322D-02  0.85737871D-03  0.99197257D-03
 -0.19971092D-02 -0.12270822D-02 -0.20646701D-18 -0.19357594D-18 -0.13783760D-18
  0.52557686D-03  0.49276172D-03  0.35087570D-03 -0.24093051D-03 -0.22588767D-03
 -0.16084548D-03  0.40727512D-18 -0.79781733D-03 -0.29736321D-02  0.37847293D-17
  0.17092106D-02  0.63613149D-03 -0.31069538D-18 -0.30222746D-04 -0.69910005D-04
 -0.35808015D-03 -0.93611944D-04  0.45169209D-03 -0.19623580D-17 -0.49519443D-17
 -0.10650888D-02  0.38739058D-03  0.58714126D-03 -0.97453184D-03  0.23401578D-17
  0.52975784D-17  0.81598923D-04  0.48210865D-04  0.61941533D-04 -0.11015240D-03
  0.66859593D-18  0.15217528D-17  0.45389261D-03  0.40589369D-18  0.20863654D-04
 -0.23007519D-03  0.75686762D-18  0.60283822D-03 -0.42563353D-04 -0.19745487D-17
 -0.66542918D-03  0.73278893D-03 -0.31508183D-18 -0.11259602D-18  0.28725132D-03
 -0.37075845D-04 -0.10391673D-17 -0.16175584D-03 -0.27870978D-03  0.13769554D-17
 -0.69999812D-03  0.38993732D-03  0.26546178D-17 -0.75001805D-04 -0.13982042D-03
 -0.23632114D-03 -0.35526808D-03 -0.43648788D-03 -0.36868379D-03 -0.13905396D-03
  0.68818582D-06  0.59801569D-04  0.11196741D-03  0.19063409D-03  0.29488195D-03
  0.38834915D-03  0.40351965D-03  0.25641862D-03 -0.17184580D-03 -0.45391646D-03
 -0.13446298D-02  0.12111055D-02 -0.21525086D-17 -0.20181136D-17 -0.14370171D-17
 -0.47023892D-04 -0.44087888D-04 -0.31393203D-04  0.33755894D-03  0.31648296D-03
  0.22535472D-03  0.18110376D-17  0.96831985D-03 -0.22524271D-02  0.72817819D-17
  0.59368215D-03  0.87997650D-03 -0.17341812D-18  0.35417435D-04 -0.51582615D-04
 -0.13873787D-03 -0.19789923D-03  0.33663710D-03 -0.11567631D-17  0.20959870D-17
 -0.30496812D-04 -0.96728927D-04  0.74929306D-04  0.21799621D-04  0.37895561D-17
 -0.79730805D-17 -0.19626632D-02 -0.90602173D-04  0.23476969D-03 -0.14416751D-03
 -0.27715038D-18 -0.33471440D-17 -0.13735976D-03  0.40528556D-18 -0.58730461D-04
  0.10080336D-03 -0.15661011D-17  0.20895530D-04  0.17666947D-03  0.35024442D-18
  0.15529585D-03 -0.47907956D-03  0.68013989D-18 -0.18863739D-18 -0.22500454D-03
  0.13799707D-03  0.35110114D-18  0.92979749D-04 -0.13622678D-03  0.21481104D-18
  0.58203386D-03 -0.27776443D-03 -0.25898841D-17 -0.75001805D-04 -0.13982042D-03
 -0.23632114D-03 -0.35526808D-03 -0.43648788D-03 -0.36868379D-03 -0.13905396D-03
  0.68818582D-06  0.59801569D-04  0.11196741D-03  0.19063409D-03  0.29488195D-03
  0.38834915D-03  0.40351965D-03  0.25641862D-03 -0.17184580D-03 -0.45391646D-03
 -0.13446298D-02  0.12111055D-02 -0.14716026D-17 -0.13797210D-17 -0.98244356D-18
  0.47023892D-04  0.44087888D-04  0.31393203D-04  0.33755894D-03  0.31648296D-03
  0.22535472D-03 -0.75832559D-18 -0.96831985D-03 -0.22524271D-02 -0.64367270D-17
 -0.59368215D-03  0.87997650D-03  0.28921514D-18 -0.35417435D-04 -0.51582615D-04
 -0.13873787D-03 -0.19789923D-03  0.33663710D-03  0.13714320D-17 -0.61622309D-17
  0.30496812D-04 -0.96728927D-04  0.74929306D-04  0.21799621D-04  0.19264267D-17
  0.66597370D-17  0.19626632D-02 -0.90602173D-04  0.23476969D-03 -0.14416751D-03
  0.91615952D-18  0.11147176D-17  0.13735976D-03  0.17663243D-19  0.58730461D-04
  0.10080336D-03  0.73299389D-18 -0.20895530D-04  0.17666947D-03 -0.78598362D-18
 -0.15529585D-03 -0.47907956D-03  0.83985106D-18 -0.16764520D-18  0.22500454D-03
  0.13799707D-03  0.18816188D-18 -0.92979749D-04 -0.13622678D-03  0.31477372D-18
 -0.58203386D-03 -0.27776443D-03 -0.11479135D-17  0.29128274D+00  0.54276249D+00
  0.91794744D+00  0.13823780D+01  0.17114736D+01  0.14563868D+01  0.55418205D+00
 -0.25954709D-02 -0.90677358D-03 -0.17002089D-02 -0.28925613D-02 -0.44918423D-02
 -0.59609359D-02 -0.62820082D-02 -0.38952459D-02  0.25911190D-02  0.31063784D-01
  0.18927629D-02  0.10438578D-03 -0.22944771D-16 -0.22038178D-16 -0.15454692D-16
 -0.34355136D-02 -0.32997697D-02 -0.23140263D-02  0.48184808D-02  0.46280932D-02
  0.32455384D-02  0.45860129D-17 -0.10567726D-02  0.12508197D-03  0.64943885D-17
  0.78487628D-03 -0.55429167D-03 -0.35902899D-18 -0.36917233D-04  0.18516719D-04
 -0.23970241D-02  0.26858063D-02 -0.28878223D-03 -0.69520704D-17  0.13936646D-17
  0.20375670D-02  0.89623857D-03 -0.85138848D-03 -0.44850098D-04  0.39676892D-17
  0.75015737D-18 -0.76788872D-03  0.18070219D-03 -0.19237530D-03  0.11673109D-04
 -0.10960408D-17  0.12851468D-17 -0.14085524D-03 -0.68176267D-18  0.16191532D-03
  0.91891447D-04  0.67713010D-18 -0.18923225D-03  0.13016084D-03  0.13681579D-17
 -0.29651370D-03 -0.40583518D-03  0.13866852D-18 -0.10129301D-17  0.35669511D-03
 -0.27001617D-04  0.33595936D-17 -0.36293350D-03  0.20919377D-03 -0.32080337D-18
 -0.70715182D-03 -0.12818892D-03  0.31228192D-17  0.29128274D+00  0.54276249D+00
  0.91794744D+00  0.13823780D+01  0.17114736D+01  0.14563868D+01  0.55418205D+00
 -0.25954709D-02 -0.90677358D-03 -0.17002089D-02 -0.28925613D-02 -0.44918423D-02
 -0.59609359D-02 -0.62820082D-02 -0.38952459D-02  0.25911190D-02  0.31063784D-01
  0.18927629D-02  0.10438578D-03 -0.45283592D-17 -0.43494349D-17 -0.30501240D-17
  0.34355136D-02  0.32997697D-02  0.23140263D-02  0.48184808D-02  0.46280932D-02
  0.32455384D-02  0.14848932D-17  0.10567726D-02  0.12508197D-03 -0.30079209D-17
 -0.78487627D-03 -0.55429167D-03  0.69878186D-18  0.36917234D-04  0.18516719D-04
 -0.23970241D-02  0.26858063D-02 -0.28878223D-03 -0.34144316D-17 -0.83904456D-17
 -0.20375670D-02  0.89623857D-03 -0.85138848D-03 -0.44850098D-04 -0.94560495D-18
  0.39338749D-17  0.76788872D-03  0.18070219D-03 -0.19237530D-03  0.11673109D-04
 -0.17761713D-17 -0.66133732D-19  0.14085524D-03 -0.29757375D-18 -0.16191532D-03
  0.91891447D-04 -0.63697684D-18  0.18923225D-03  0.13016084D-03  0.15296981D-17
  0.29651370D-03 -0.40583518D-03 -0.85611435D-19  0.12328575D-18 -0.35669511D-03
 -0.27001617D-04 -0.47020817D-18  0.36293350D-03  0.20919377D-03  0.10035093D-18
  0.70715182D-03 -0.12818892D-03  0.42063351D-18
MO    2     MO 0.0        OCC NO =    2.0000000  ORB. ENERGY =  -14.426080
  0.81606758D-04  0.14718115D-03  0.21701852D-03  0.13564455D-03 -0.96298331D-03
 -0.13275665D-04 -0.17242865D-15 -0.22759188D-03  0.25856716D-03  0.61727437D-16
  0.13543404D-02  0.28447437D-03 -0.13544279D-16  0.68158595D-05  0.23094617D-03
  0.37222786D-03 -0.27440649D-03 -0.97821371D-04  0.45673489D-18  0.35136536D-17
 -0.99580552D-03  0.14374457D-03 -0.10426863D-03 -0.39475941D-04  0.32122757D-17
 -0.12872347D-17 -0.10834331D-03 -0.81606758D-04 -0.14718115D-03 -0.21701852D-03
 -0.13564455D-03  0.96298331D-03  0.13275665D-04 -0.15109080D-17 -0.22759188D-03
 -0.25856716D-03  0.30168675D-17  0.13543404D-02 -0.28447437D-03  0.21475252D-18
  0.68158595D-05 -0.23094617D-03 -0.37222786D-03  0.27440649D-03  0.97821371D-04
  0.37498319D-19  0.63782092D-18 -0.99580552D-03 -0.14374457D-03  0.10426863D-03
  0.39475941D-04  0.67376429D-18 -0.61692445D-19 -0.10834331D-03 -0.31493416D-04
 -0.56799673D-04 -0.83751084D-04  0.47622968D-02  0.48155457D-02 -0.35364566D-04
 -0.15554225D-17 -0.12338332D-03 -0.51828548D-05  0.46732325D-17 -0.12921687D-02
 -0.28904704D-02  0.10459583D-17 -0.38881589D-03 -0.40175878D-03 -0.34841341D-03
 -0.90774686D-04  0.43918810D-03 -0.10995380D-17 -0.57635042D-18  0.51549383D-03
 -0.10743880D-03 -0.48445068D-05  0.11228331D-03  0.15996038D-19 -0.22788781D-17
  0.11910255D-03  0.31493416D-04  0.56799673D-04  0.83751084D-04 -0.47622968D-02
 -0.48155457D-02  0.35364566D-04 -0.33539532D-18 -0.12338332D-03  0.51828548D-05
  0.85061075D-18 -0.12921687D-02  0.28904704D-02  0.11111161D-17 -0.38881589D-03
  0.40175878D-03  0.34841341D-03  0.90774686D-04 -0.43918810D-03  0.14066150D-18
  0.41819417D-19  0.51549383D-03  0.10743880D-03  0.48445068D-05 -0.11228331D-03
 -0.66536685D-18 -0.80643155D-18  0.11910255D-03  0.25696212D-03  0.47903582D-03
  0.80965493D-03  0.12171766D-02  0.14954421D-02  0.12631399D-02  0.47640989D-03
 -0.23577791D-05 -0.19778357D-03 -0.37031324D-03 -0.63048998D-03 -0.97527213D-03
 -0.12843991D-02 -0.13345729D-02 -0.84806118D-03  0.56835088D-03  0.69385450D-03
  0.42321428D-02 -0.11573852D-02  0.48094061D-18  0.45091239D-18  0.32107649D-18
 -0.29807579D-03 -0.27946500D-03 -0.19899573D-03 -0.31971057D-03 -0.29974898D-03
 -0.21343913D-03  0.10358503D-17  0.96322096D-03 -0.26694493D-02  0.38557526D-17
 -0.26744835D-02  0.17520072D-03  0.16454843D-18  0.37650762D-04 -0.63325920D-04
 -0.20368680D-03 -0.28573050D-03  0.48941730D-03 -0.71006363D-17  0.13132665D-18
  0.92706890D-03  0.16593803D-03  0.13200884D-02 -0.14860264D-02  0.59386222D-17
 -0.34912590D-17 -0.16179173D-02 -0.34980420D-04  0.32419562D-03 -0.28921520D-03
  0.42572510D-18  0.63934516D-18 -0.48528225D-03  0.73007881D-18 -0.25800195D-03
  0.17374977D-03 -0.37402183D-17 -0.16904325D-03 -0.28768941D-03  0.15499818D-17
  0.94304910D-03 -0.23355989D-03  0.43332607D-17 -0.15972812D-18 -0.47884732D-03
 -0.11146896D-03  0.19021325D-17  0.31527267D-04 -0.16156451D-03 -0.14229481D-17
  0.14050147D-02  0.49597140D-03  0.39336344D-18 -0.25696212D-03 -0.47903582D-03
 -0.80965493D-03 -0.12171766D-02 -0.14954421D-02 -0.12631399D-02 -0.47640989D-03
  0.23577791D-05  0.19778357D-03  0.37031324D-03  0.63048998D-03  0.97527213D-03
  0.12843991D-02  0.13345729D-02  0.84806118D-03 -0.56835088D-03 -0.69385450D-03
 -0.42321428D-02  0.11573852D-02 -0.11335890D-17 -0.10628118D-17 -0.75678530D-18
 -0.29807579D-03 -0.27946500D-03 -0.19899573D-03  0.31971057D-03  0.29974898D-03
  0.21343913D-03  0.47532712D-18  0.96322096D-03  0.26694493D-02  0.65709203D-18
 -0.26744835D-02 -0.17520072D-03  0.25238814D-19  0.37650762D-04  0.63325920D-04
  0.20368680D-03  0.28573050D-03 -0.48941730D-03  0.74261629D-18 -0.77319602D-18
  0.92706890D-03 -0.16593803D-03 -0.13200884D-02  0.14860264D-02  0.34707618D-18
  0.11580423D-17 -0.16179173D-02  0.34980420D-04 -0.32419562D-03  0.28921520D-03
  0.66285047D-20 -0.27731777D-18 -0.48528225D-03  0.15914156D-18 -0.25800195D-03
 -0.17374977D-03  0.86288924D-18 -0.16904325D-03  0.28768941D-03 -0.13403139D-17
  0.94304910D-03  0.23355989D-03  0.86905389D-18  0.29375142D-19 -0.47884732D-03
  0.11146896D-03 -0.15537664D-17  0.31527267D-04  0.16156451D-03  0.14656410D-17
  0.14050147D-02 -0.49597140D-03  0.14393566D-18  0.46078979D-03  0.85901693D-03
  0.14518899D-02  0.21826662D-02  0.26816576D-02  0.22650885D-02  0.85430805D-03
 -0.42280182D-05 -0.34275447D-03 -0.64174451D-03 -0.10926249D-02 -0.16901246D-02
 -0.22258347D-02 -0.23127848D-02 -0.14696709D-02  0.98493928D-03  0.12584370D-02
 -0.55205392D-02  0.41478116D-03 -0.66315803D-18 -0.62175280D-18 -0.44272504D-18
 -0.29446554D-03 -0.27608016D-03 -0.19658552D-03 -0.72261790D-04 -0.67750021D-04
 -0.48242051D-04  0.30385400D-18  0.93273464D-04 -0.21320825D-02 -0.21387008D-17
 -0.22070575D-03  0.18856234D-02 -0.24638756D-18  0.59544210D-04 -0.28883473D-05
  0.42332105D-04 -0.38350126D-03  0.34116916D-03  0.19806582D-17  0.19550212D-17
  0.26569380D-03  0.76198368D-03  0.25592910D-03 -0.10179128D-02  0.89543127D-18
 -0.46906324D-17 -0.54198734D-02  0.65216901D-04  0.29227782D-03 -0.35749473D-03
 -0.85212620D-18  0.54602559D-18 -0.80646817D-03  0.33801647D-18  0.21260060D-03
 -0.24969436D-04 -0.11767092D-17 -0.34076503D-03 -0.68839784D-04  0.16265977D-18
 -0.29703678D-03  0.14374809D-03  0.62923909D-18  0.10591701D-19 -0.27068351D-03
 -0.54236771D-04 -0.43690486D-18  0.20670658D-03  0.63194997D-04  0.40512976D-18
  0.60534395D-03  0.99515315D-04 -0.33043031D-17 -0.46078979D-03 -0.85901693D-03
 -0.14518899D-02 -0.21826662D-02 -0.26816576D-02 -0.22650885D-02 -0.85430805D-03
  0.42280182D-05  0.34275447D-03  0.64174451D-03  0.10926249D-02  0.16901246D-02
  0.22258347D-02  0.23127848D-02  0.14696709D-02 -0.98493928D-03 -0.12584370D-02
  0.55205392D-02 -0.41478116D-03 -0.66028377D-18 -0.61905801D-18 -0.44080618D-18
 -0.29446554D-03 -0.27608016D-03 -0.19658552D-03  0.72261790D-04  0.67750021D-04
  0.48242051D-04  0.49264919D-18  0.93273464D-04  0.21320825D-02 -0.21035057D-17
 -0.22070575D-03 -0.18856234D-02  0.46465326D-19  0.59544210D-04  0.28883472D-05
 -0.42332105D-04  0.38350126D-03 -0.34116916D-03 -0.14631881D-17 -0.69635423D-18
  0.26569380D-03 -0.76198368D-03 -0.25592910D-03  0.10179128D-02  0.34724055D-17
 -0.49901716D-19 -0.54198734D-02 -0.65216901D-04 -0.29227782D-03  0.35749473D-03
  0.12102424D-18 -0.68669149D-18 -0.80646817D-03 -0.75441027D-19  0.21260060D-03