 Molden2AIM, Version 4.0.0 (06/02/2016)           Time: Tue Jun 26 17:40:33 2018
GAUSSIAN             15 MOL ORBITALS    259 PRIMITIVES        2 NUCLEI
  Al   1    (CENTRE  1)   0.00000000  0.00000000 -0.00584681  CHARGE = 13.0
  Cl   2    (CENTRE  2)   0.00000000  0.00000000  4.05177690  CHARGE = 17.0
CENTRE ASSIGNMENTS    1  1  1  1  1  1  1  1  1  1  1  1  1  1  1  1  1  1  1  1
CENTRE ASSIGNMENTS    1  1  1  1  1  1  1  1  1  1  1  1  1  1  1  1  1  1  1  1
CENTRE ASSIGNMENTS    1  1  1  1  1  1  1  1  1  1  1  1  1  1  1  1  1  1  1  1
CENTRE ASSIGNMENTS    1  1  1  1  1  1  1  1  1  1  1  1  1  1  1  1  1  1  1  1
CENTRE ASSIGNMENTS    1  1  1  1  1  1  1  1  1  1  1  1  1  1  1  1  1  1  1  1
CENTRE ASSIGNMENTS    1  1  1  1  1  1  1  1  1  1  1  1  1  1  1  1  1  1  1  1
CENTRE ASSIGNMENTS    1  1  1  1  1  1  1  1  2  2  2  2  2  2  2  2  2  2  2  2
CENTRE ASSIGNMENTS    2  2  2  2  2  2  2  2  2  2  2  2  2  2  2  2  2  2  2  2
CENTRE ASSIGNMENTS    2  2  2  2  2  2  2  2  2  2  2  2  2  2  2  2  2  2  2  2
CENTRE ASSIGNMENTS    2  2  2  2  2  2  2  2  2  2  2  2  2  2  2  2  2  2  2  2
CENTRE ASSIGNMENTS    2  2  2  2  2  2  2  2  2  2  2  2  2  2  2  2  2  2  2  2
CENTRE ASSIGNMENTS    2  2  2  2  2  2  2  2  2  2  2  2  2  2  2  2  2  2  2  2
CENTRE ASSIGNMENTS    2  2  2  2  2  2  2  2  2  2  2  2  2  2  2  2  2  2  2
TYPE ASSIGNMENTS      1  1  1  1  1  1  1  1  1  1  1  1  1  1  1  1  1  1  1  1
TYPE ASSIGNMENTS      1  2  2  2  2  2  2  2  2  3  3  3  3  3  3  3  3  4  4  4
TYPE ASSIGNMENTS      4  4  4  4  4  2  2  3  3  4  4  2  3  4  2  3  4  2  3  4
TYPE ASSIGNMENTS      2  3  4  5  6  7  8  9 10  5  6  7  8  9 10  5  6  7  8  9
TYPE ASSIGNMENTS     10  5  6  7  8  9 10  5  6  7  8  9 10 11 12 13 17 14 15 18
TYPE ASSIGNMENTS     19 16 20 11 12 13 17 14 15 18 19 16 20 21 22 23 24 25 26 27
TYPE ASSIGNMENTS     28 29 30 31 32 33 34 35  1  1  1  1  1  1  1  1  1  1  1  1
TYPE ASSIGNMENTS      1  1  1  1  1  1  1  1  1  2  2  2  2  2  2  2  2  3  3  3
TYPE ASSIGNMENTS      3  3  3  3  3  4  4  4  4  4  4  4  4  2  2  3  3  4  4  2
TYPE ASSIGNMENTS      3  4  2  3  4  2  3  4  2  3  4  2  3  4  5  6  7  8  9 10
TYPE ASSIGNMENTS      5  6  7  8  9 10  5  6  7  8  9 10  5  6  7  8  9 10  5  6
TYPE ASSIGNMENTS      7  8  9 10 11 12 13 17 14 15 18 19 16 20 11 12 13 17 14 15
TYPE ASSIGNMENTS     18 19 16 20 21 22 23 24 25 26 27 28 29 30 31 32 33 34 35
EXPONENTS  0.7545508D+06 0.1129994D+06 0.2571583D+05 0.7283603D+04 0.2376001D+04
EXPONENTS  0.8576547D+03 0.3343892D+03 0.1384850D+03 0.6015037D+02 0.2712761D+02
EXPONENTS  0.2253650D+03 0.6934197D+02 0.2661934D+02 0.1234942D+02 0.4587879D+01
EXPONENTS  0.2057134D+01 0.9086455D+00 0.2422699D+00 0.1124814D+00 0.4815649D-01
EXPONENTS  0.2113485D-01 0.1489612D+04 0.3530140D+03 0.1144076D+03 0.4331219D+02
EXPONENTS  0.1802732D+02 0.7967543D+01 0.3609040D+01 0.1645608D+01 0.1489612D+04
EXPONENTS  0.3530140D+03 0.1144076D+03 0.4331219D+02 0.1802732D+02 0.7967543D+01
EXPONENTS  0.3609040D+01 0.1645608D+01 0.1489612D+04 0.3530140D+03 0.1144076D+03
EXPONENTS  0.4331219D+02 0.1802732D+02 0.7967543D+01 0.3609040D+01 0.1645608D+01
EXPONENTS  0.3473119D+02 0.1255308D+01 0.3473119D+02 0.1255308D+01 0.3473119D+02
EXPONENTS  0.1255308D+01 0.7363553D+00 0.7363553D+00 0.7363553D+00 0.2468647D+00
EXPONENTS  0.2468647D+00 0.2468647D+00 0.9482197D-01 0.9482197D-01 0.9482197D-01
EXPONENTS  0.3621417D-01 0.3621417D-01 0.3621417D-01 0.1970000D+01 0.1970000D+01
EXPONENTS  0.1970000D+01 0.1970000D+01 0.1970000D+01 0.1970000D+01 0.4370000D+00
EXPONENTS  0.4370000D+00 0.4370000D+00 0.4370000D+00 0.4370000D+00 0.4370000D+00
EXPONENTS  0.1950000D+00 0.1950000D+00 0.1950000D+00 0.1950000D+00 0.1950000D+00
EXPONENTS  0.1950000D+00 0.8000000D-01 0.8000000D-01 0.8000000D-01 0.8000000D-01
EXPONENTS  0.8000000D-01 0.8000000D-01 0.3066400D-01 0.3066400D-01 0.3066400D-01
EXPONENTS  0.3066400D-01 0.3066400D-01 0.3066400D-01 0.1540000D+00 0.1540000D+00
EXPONENTS  0.1540000D+00 0.1540000D+00 0.1540000D+00 0.1540000D+00 0.1540000D+00
EXPONENTS  0.1540000D+00 0.1540000D+00 0.1540000D+00 0.4010000D+00 0.4010000D+00
EXPONENTS  0.4010000D+00 0.4010000D+00 0.4010000D+00 0.4010000D+00 0.4010000D+00
EXPONENTS  0.4010000D+00 0.4010000D+00 0.4010000D+00 0.3570000D+00 0.3570000D+00
EXPONENTS  0.3570000D+00 0.3570000D+00 0.3570000D+00 0.3570000D+00 0.3570000D+00
EXPONENTS  0.3570000D+00 0.3570000D+00 0.3570000D+00 0.3570000D+00 0.3570000D+00
EXPONENTS  0.3570000D+00 0.3570000D+00 0.3570000D+00 0.1467459D+07 0.2197562D+06
EXPONENTS  0.5001077D+05 0.1416482D+05 0.4620747D+04 0.1667899D+04 0.6502920D+03
EXPONENTS  0.2693804D+03 0.1170675D+03 0.5281177D+02 0.4614277D+03 0.1421267D+03
EXPONENTS  0.5443784D+02 0.2416077D+02 0.9708354D+01 0.4564070D+01 0.2119474D+01
EXPONENTS  0.7572237D+00 0.3374722D+00 0.1386078D+00 0.5423457D-01 0.2501946D+04
EXPONENTS  0.5928806D+03 0.1921809D+03 0.7287571D+02 0.3043636D+02 0.1349018D+02
EXPONENTS  0.6147807D+01 0.2845094D+01 0.2501946D+04 0.5928806D+03 0.1921809D+03
EXPONENTS  0.7287571D+02 0.3043636D+02 0.1349018D+02 0.6147807D+01 0.2845094D+01
EXPONENTS  0.2501946D+04 0.5928806D+03 0.1921809D+03 0.7287571D+02 0.3043636D+02
EXPONENTS  0.1349018D+02 0.6147807D+01 0.2845094D+01 0.1053940D+03 0.6736974D+01
EXPONENTS  0.1053940D+03 0.6736974D+01 0.1053940D+03 0.6736974D+01 0.1242110D+01
EXPONENTS  0.1242110D+01 0.1242110D+01 0.5566971D+00 0.5566971D+00 0.5566971D+00
EXPONENTS  0.2338780D+00 0.2338780D+00 0.2338780D+00 0.9316449D-01 0.9316449D-01
EXPONENTS  0.9316449D-01 0.2725615D-01 0.2725615D-01 0.2725615D-01 0.5191000D+01
EXPONENTS  0.5191000D+01 0.5191000D+01 0.5191000D+01 0.5191000D+01 0.5191000D+01
EXPONENTS  0.1276000D+01 0.1276000D+01 0.1276000D+01 0.1276000D+01 0.1276000D+01
EXPONENTS  0.1276000D+01 0.5830000D+00 0.5830000D+00 0.5830000D+00 0.5830000D+00
EXPONENTS  0.5830000D+00 0.5830000D+00 0.2430000D+00 0.2430000D+00 0.2430000D+00
EXPONENTS  0.2430000D+00 0.2430000D+00 0.2430000D+00 0.8345654D-01 0.8345654D-01
EXPONENTS  0.8345654D-01 0.8345654D-01 0.8345654D-01 0.8345654D-01 0.4230000D+00
EXPONENTS  0.4230000D+00 0.4230000D+00 0.4230000D+00 0.4230000D+00 0.4230000D+00
EXPONENTS  0.4230000D+00 0.4230000D+00 0.4230000D+00 0.4230000D+00 0.1089000D+01
EXPONENTS  0.1089000D+01 0.1089000D+01 0.1089000D+01 0.1089000D+01 0.1089000D+01
EXPONENTS  0.1089000D+01 0.1089000D+01 0.1089000D+01 0.1089000D+01 0.8270000D+00
EXPONENTS  0.8270000D+00 0.8270000D+00 0.8270000D+00 0.8270000D+00 0.8270000D+00
EXPONENTS  0.8270000D+00 0.8270000D+00 0.8270000D+00 0.8270000D+00 0.8270000D+00
EXPONENTS  0.8270000D+00 0.8270000D+00 0.8270000D+00 0.8270000D+00
MO    1     MO 0.0        OCC NO =    2.0000000  ORB. ENERGY = -100.649050
 -0.26623107D-06 -0.49822060D-06 -0.86289617D-06 -0.14104672D-05 -0.21967396D-05
 -0.32439960D-05 -0.44497957D-05 -0.53749453D-05 -0.51948710D-05 -0.32850996D-05
  0.28751728D-05  0.10227746D-04  0.17100712D-04 -0.28976945D-04  0.38327432D-04
 -0.41636965D-04  0.27955983D-04 -0.88726690D-05  0.37956861D-05  0.20193593D-05
 -0.11811610D-05 -0.14499610D-15 -0.20803423D-15 -0.27435323D-15 -0.31810310D-15
 -0.31420432D-15 -0.24184163D-15 -0.13381910D-15 -0.48399455D-16 -0.11683042D-14
 -0.16762332D-14 -0.22105977D-14 -0.25631118D-14 -0.25316974D-14 -0.19486359D-14
 -0.10782457D-14 -0.38997801D-15  0.22225786D-05  0.31888611D-05  0.42054346D-05
  0.48760563D-05  0.48162937D-05  0.37070792D-05  0.20512516D-05  0.74189302D-06
  0.94672579D-15 -0.50219007D-15  0.33725849D-16 -0.17889854D-16  0.49525273D-04
 -0.26270648D-04  0.27771079D-15 -0.86418518D-16  0.32958360D-04 -0.28980041D-16
  0.19866477D-16 -0.15396676D-04  0.72659476D-17 -0.32982912D-17  0.34849087D-05
  0.31916069D-18  0.56253526D-18 -0.65483026D-06 -0.82944254D-05 -0.82944254D-05
  0.16588851D-04  0.91307182D-16  0.90622604D-16 -0.21580721D-15  0.17381655D-05
  0.17381655D-05 -0.34763309D-05 -0.34705308D-17 -0.37187381D-17 -0.34459117D-17
  0.15982953D-05  0.15982953D-05 -0.31965907D-05  0.10720830D-17  0.35022771D-17
 -0.22465948D-17 -0.16259715D-06 -0.16259715D-06  0.32519430D-06 -0.16417199D-18
  0.16337259D-17 -0.11554194D-17  0.24892302D-07  0.24892302D-07 -0.49784603D-07
  0.12486405D-19  0.92503911D-19  0.60834388D-19 -0.73006709D-18  0.35554911D-18
 -0.23563886D-06 -0.72999299D-18  0.35383302D-18  0.35345829D-06  0.29201943D-17
 -0.14204804D-17  0.35345829D-06  0.17409892D-18 -0.12868907D-17  0.84390275D-18
 -0.31270189D-05 -0.12872609D-17  0.84771241D-18  0.46905284D-05  0.51479330D-17
 -0.33794207D-17  0.46905284D-05  0.58003653D-19 -0.23102600D-06 -0.23102600D-06
 -0.61606933D-06  0.41569393D-19 -0.84882606D-17  0.41568324D-19  0.25255618D-17
  0.11317686D-16 -0.33675075D-17 -0.46205200D-06  0.18482080D-05  0.18482080D-05
  0.25258371D-17 -0.84882764D-17 -0.24941315D-18  0.34520861D+00  0.64605398D+00
  0.11190625D+01  0.18303337D+01  0.28551884D+01  0.42359555D+01  0.58751569D+01
  0.72715637D+01  0.73588688D+01  0.50793786D+01 -0.82054423D-02 -0.31045249D-01
 -0.58566850D-01  0.17507055D+01  0.12127116D+00 -0.95762675D-02  0.19681319D-02
 -0.40320601D-03  0.14854477D-03 -0.32300979D-04  0.41899967D-05 -0.69940201D-16
 -0.10054925D-15 -0.13337865D-15 -0.15607124D-15 -0.15382670D-15 -0.11589224D-15
 -0.60524937D-16 -0.17393896D-16 -0.81249180D-16 -0.11680756D-15 -0.15494531D-15
 -0.18130718D-15 -0.17869971D-15 -0.13463143D-15 -0.70311515D-16 -0.20206402D-16
 -0.53625496D-03 -0.77094481D-03 -0.10226588D-02 -0.11966505D-02 -0.11794409D-02
 -0.88858462D-03 -0.46406497D-03 -0.13336483D-03 -0.38782220D-15  0.23272524D-15
 -0.43677905D-15  0.26210337D-15 -0.15619189D-02  0.93727988D-03 -0.16044410D-16
 -0.84604511D-17  0.47069000D-04  0.14974204D-16 -0.35063096D-17 -0.38625444D-05
 -0.19530744D-16  0.38780487D-17 -0.14374939D-04 -0.10249509D-17  0.28030127D-17
  0.42931208D-05 -0.38873207D-18 -0.47970726D-18  0.85889902D-08 -0.29637272D-04
 -0.29637272D-04  0.59274543D-04  0.22947115D-17  0.19003496D-16  0.22579693D-16
  0.10395516D-04  0.10395516D-04 -0.20791032D-04 -0.10632021D-17  0.13318279D-16
  0.50113667D-17 -0.45747569D-05 -0.45747569D-05  0.91495137D-05  0.90429272D-18
 -0.85881169D-17  0.28161545D-17 -0.14448490D-05 -0.14448490D-05  0.28896980D-05
 -0.33938415D-18  0.91249889D-17 -0.70644309D-17  0.22657377D-06  0.22657377D-06
 -0.45314754D-06  0.35876886D-19  0.27999222D-18 -0.48265821D-18  0.49215403D-17
 -0.16034300D-17 -0.29796565D-05  0.49214801D-17 -0.16036718D-17  0.44694847D-05
 -0.19686101D-16  0.64139618D-17  0.44694847D-05  0.18976873D-17 -0.65366596D-17
 -0.69634560D-17  0.36412927D-05 -0.65357956D-17 -0.69633670D-17 -0.54619391D-05
  0.26145774D-16  0.27853735D-16 -0.54619391D-05 -0.34394956D-17  0.11018344D-05
  0.11018344D-05  0.29382203D-05  0.32067127D-19  0.73233693D-17  0.32199154D-19
 -0.17616882D-17 -0.97644543D-17  0.23488473D-17  0.22036548D-05 -0.88146610D-05
 -0.88146610D-05 -0.17614772D-17  0.73232552D-17 -0.19279884D-18
MO    2     MO 0.0        OCC NO =    2.0000000  ORB. ENERGY =  -55.412986
 -0.24477101D+00 -0.45806059D+00 -0.79334079D+00 -0.12967738D+01 -0.20196672D+01
 -0.29825076D+01 -0.40911115D+01 -0.49416876D+01 -0.47761286D+01 -0.30202979D+01
  0.66469971D-02  0.23645118D-01  0.39534452D-01 -0.91139855D+00 -0.39418238D-01
  0.29789189D-02 -0.43986081D-03  0.39293258D-04  0.14623131D-04  0.69622902D-05
 -0.55828230D-06 -0.17510483D-17 -0.25123296D-17 -0.33132323D-17 -0.38415786D-17
 -0.37944949D-17 -0.29206053D-17 -0.16160691D-17 -0.58449701D-18  0.93637801D-16
  0.13434753D-15  0.17717603D-15  0.20542949D-15  0.20291168D-15  0.15618019D-15
  0.86419750D-16  0.31256142D-16 -0.31666630D-03 -0.45433933D-03 -0.59917765D-03
 -0.69472582D-03 -0.68621102D-03 -0.52817348D-03 -0.29225614D-03 -0.10570268D-03
 -0.59659688D-18  0.31646442D-18  0.17994455D-16 -0.95451467D-17 -0.71061494D-03
  0.37694523D-03 -0.19409441D-18  0.96186834D-17 -0.19615461D-03  0.82325949D-19
 -0.25162646D-18  0.46613905D-04 -0.47529332D-20  0.69047682D-19  0.99664538D-05
  0.78417766D-20  0.42576695D-21  0.25490061D-06  0.26017751D-05  0.26017751D-05
 -0.52035502D-05  0.25121760D-17  0.13985351D-17  0.12946108D-17 -0.29816549D-06
 -0.29816549D-06  0.59633098D-06 -0.14581328D-19 -0.40140292D-19 -0.18860043D-19
 -0.61866570D-05 -0.61866570D-05  0.12373314D-04 -0.15312826D-19  0.29175503D-19
  0.13013645D-19 -0.26713501D-06 -0.26713501D-06  0.53427001D-06  0.20046063D-20
 -0.81385173D-20  0.39679593D-20 -0.74459329D-08 -0.74459329D-08  0.14891866D-07
  0.79468503D-22  0.93074333D-21  0.17756874D-21 -0.55562417D-21 -0.11380921D-20
  0.86404690D-06 -0.43348707D-21 -0.11305865D-20 -0.12960704D-05  0.21003596D-20
  0.45448630D-20 -0.12960704D-05 -0.10448339D-20  0.19936454D-21  0.23158024D-20
  0.58548102D-05  0.18163706D-21  0.21056831D-20 -0.87822152D-05 -0.77973070D-21
 -0.90530904D-20 -0.87822152D-05  0.16746029D-19  0.43457262D-06  0.43457262D-06
  0.11588605D-05 -0.17803985D-20  0.81885955D-20 -0.17714082D-20 -0.20429165D-20
 -0.10920736D-19  0.27231867D-20  0.86914571D-06 -0.34765814D-05 -0.34765814D-05
 -0.20408105D-20  0.81964205D-20  0.10655420D-19  0.13368358D-06  0.25018729D-06
  0.43336195D-06  0.70880490D-06  0.11056845D-05  0.16403927D-05  0.22751808D-05
  0.28159455D-05  0.28497548D-05  0.19670121D-05 -0.15144695D-05 -0.57299876D-05
 -0.10809619D-04  0.23012084D-04 -0.38607085D-04  0.48350871D-04 -0.41317978D-04
  0.34809541D-04 -0.30323608D-05 -0.47490903D-04 -0.21789967D-05  0.17607978D-14
  0.25314039D-14  0.33579089D-14  0.39292123D-14  0.38727042D-14  0.29176752D-14
  0.15237613D-14  0.43790457D-15 -0.58814559D-15 -0.84554517D-15 -0.11216162D-14
 -0.13124442D-14 -0.12935693D-14 -0.97456839D-15 -0.50897016D-15 -0.14626986D-15
 -0.96330852D-06 -0.13848967D-05 -0.18370663D-05 -0.21496186D-05 -0.21187038D-05
 -0.15962205D-05 -0.83362911D-06 -0.23957164D-06  0.69592196D-16 -0.41761045D-16
 -0.25666722D-16  0.15402145D-16  0.61384527D-05 -0.36835768D-05  0.40236437D-16
 -0.13580770D-16  0.11094895D-04  0.51732792D-18  0.16281606D-19 -0.32861793D-04
 -0.45411309D-19  0.21050862D-19  0.50189246D-04  0.22549338D-19 -0.13271096D-19
  0.34773882D-05 -0.23676314D-20 -0.36123575D-20 -0.43893455D-07  0.14888646D-04
  0.14888646D-04 -0.29777292D-04 -0.46405237D-18 -0.27798274D-17  0.76454726D-18
 -0.88805701D-05 -0.88805701D-05  0.17761140D-04  0.36352551D-20 -0.69300444D-19
  0.16459053D-18  0.34657634D-05  0.34657634D-05 -0.69315269D-05 -0.22639077D-19
 -0.70634256D-19 -0.11570924D-18  0.65074729D-05  0.65074729D-05 -0.13014946D-04
  0.28891811D-20  0.16785275D-19  0.59945956D-20 -0.60686445D-07 -0.60686445D-07
  0.12137289D-06 -0.44521438D-21 -0.27765596D-20  0.26246351D-20  0.10119788D-20
  0.56611331D-20  0.68096820D-05  0.10384792D-20  0.56739300D-20 -0.10214523D-04
 -0.40744158D-20 -0.22657329D-19 -0.10214523D-04 -0.45353112D-19  0.14427855D-19
 -0.11417470D-18 -0.65419333D-05  0.14384591D-19 -0.11421804D-18  0.98129000D-05
 -0.57668155D-19  0.45674214D-18  0.98129000D-05  0.31318251D-19 -0.11137368D-05
 -0.11137368D-05 -0.29699647D-05  0.21137286D-20  0.75590544D-19  0.20891746D-20
  0.33247391D-19 -0.10081055D-18 -0.44335729D-19 -0.22274734D-05  0.89098942D-05
  0.89098942D-05  0.33265014D-19  0.75660004D-19 -0.12608709D-19
MO    3     MO 0.0        OCC NO =    2.0000000  ORB. ENERGY =   -9.160920
  0.19119441D-05  0.35779820D-05  0.61969074D-05  0.10129300D-04  0.15775933D-04
  0.23296827D-04  0.31956303D-04  0.38600285D-04  0.37307078D-04  0.23592014D-04
 -0.23977031D-04 -0.85292609D-04 -0.14260858D-03  0.31744998D-03 -0.54500587D-03
  0.71891834D-03 -0.57470535D-03  0.26266143D-03 -0.20920392D-03 -0.86642350D-04
  0.36269747D-04 -0.28073050D-15 -0.40278016D-15 -0.53118200D-15 -0.61588721D-15
 -0.60833868D-15 -0.46823550D-15 -0.25909044D-15 -0.93707371D-16 -0.51983804D-18
 -0.74584149D-18 -0.98360746D-18 -0.11404589D-17 -0.11264811D-17 -0.86704733D-18
 -0.47976643D-18 -0.17352107D-18 -0.28719401D-04 -0.41205375D-04 -0.54341190D-04
 -0.63006735D-04 -0.62234503D-04 -0.47901612D-04 -0.26505572D-04 -0.95864883D-05
 -0.47050518D-15  0.24957916D-15  0.16605661D-15 -0.88084620D-16 -0.88131827D-03
  0.46749470D-03 -0.65736280D-16  0.28054455D-15 -0.64817201D-03 -0.24838784D-16
 -0.64380340D-16  0.34896831D-03  0.27283536D-16  0.11322481D-16 -0.14295118D-03
 -0.25149106D-19 -0.35399158D-17  0.18244119D-04  0.14294387D-03  0.14294387D-03
 -0.28588774D-03 -0.31778315D-15  0.16265223D-15  0.68142087D-17 -0.44317563D-04
 -0.44317563D-04  0.88635126D-04  0.20660878D-16  0.33175143D-16 -0.45303915D-16
 -0.30629036D-04 -0.30629036D-04  0.61258072D-04 -0.16704162D-17  0.61196736D-17
  0.24679047D-16  0.58201600D-05  0.58201600D-05 -0.11640320D-04 -0.23893151D-18
  0.26174599D-18  0.28255626D-17 -0.72369926D-06 -0.72369926D-06  0.14473985D-05
  0.44243746D-19  0.58408322D-19 -0.31610040D-18 -0.19882240D-18 -0.13783982D-17
  0.46941416D-05 -0.19825087D-18 -0.13620581D-17 -0.70412125D-05  0.79471806D-18
  0.54972528D-17 -0.70412125D-05  0.72617240D-18 -0.22026972D-17 -0.37908478D-17
  0.64289530D-04 -0.22015074D-17 -0.38226766D-17 -0.96434296D-04  0.88095989D-17
  0.15195220D-16 -0.96434296D-04 -0.14797899D-17  0.40718299D-05  0.40718299D-05
  0.10858212D-04  0.35321113D-18 -0.32964520D-17  0.35327132D-18 -0.11003224D-16
  0.43946937D-17  0.14672081D-16  0.81436554D-05 -0.32574635D-04 -0.32574635D-04
 -0.11006570D-16 -0.32947251D-17 -0.21194474D-17 -0.97651515D-01 -0.18275370D+00
 -0.31655683D+00 -0.51775897D+00 -0.80766661D+00 -0.11982536D+01 -0.16619457D+01
 -0.20569568D+01 -0.20816534D+01 -0.14368385D+01 -0.14253765D+00 -0.53929046D+00
 -0.10173713D+01 -0.11126000D+01  0.71957383D+00  0.12283033D+01  0.48494598D+00
  0.31172163D-01 -0.52276587D-02  0.11322908D-02 -0.98438939D-04 -0.15890731D-15
 -0.22845246D-15 -0.30304234D-15 -0.35460094D-15 -0.34950124D-15 -0.26331242D-15
 -0.13751540D-15 -0.39519721D-16 -0.18596158D-15 -0.26734693D-15 -0.35463588D-15
 -0.41497244D-15 -0.40900450D-15 -0.30814187D-15 -0.16092766D-15 -0.46248030D-16
 -0.10368586D-01 -0.14906356D-01 -0.19773291D-01 -0.23137452D-01 -0.22804701D-01
 -0.17180943D-01 -0.89727794D-02 -0.25786329D-02 -0.44649945D-15  0.26793642D-15
 -0.53432653D-15  0.32063989D-15  0.14810262D-02 -0.88873762D-03 -0.30793621D-16
 -0.86766481D-16 -0.15082256D-03  0.28647094D-16  0.81799152D-16 -0.30076239D-03
 -0.13445733D-16 -0.37489864D-16  0.38273534D-03 -0.15452113D-17 -0.72976465D-17
 -0.15864039D-03 -0.13481023D-17  0.14147662D-17 -0.44486065D-06 -0.68118716D-03
 -0.68118716D-03  0.13623743D-02  0.75439608D-16  0.56753975D-16  0.76815936D-16
 -0.29512969D-03 -0.29512969D-03  0.59025939D-03 -0.85533117D-17  0.71442077D-17
  0.68928210D-16  0.73504833D-04  0.73504833D-04 -0.14700967D-03  0.96164133D-19
 -0.20155702D-17 -0.36327200D-16  0.32356508D-04  0.32356508D-04 -0.64713017D-04
 -0.25298429D-18  0.99478284D-17  0.41470855D-16 -0.75366305D-05 -0.75366305D-05
  0.15073261D-04 -0.45441805D-20 -0.16433719D-18  0.22524513D-17  0.82201020D-17
  0.11063014D-16  0.65704254D-04  0.82043103D-17  0.11098007D-16 -0.98556381D-04
 -0.32864616D-16 -0.44287048D-16 -0.98556381D-04  0.40721538D-17 -0.36011932D-16
 -0.39897881D-16 -0.14605418D-03 -0.35919720D-16 -0.40259419D-16  0.21908127D-03
  0.14395551D-15  0.15995306D-15  0.21908127D-03  0.54477915D-17 -0.19852691D-04
 -0.19852691D-04 -0.52937022D-04  0.20917423D-18 -0.33667784D-16  0.22488003D-18
 -0.12589046D-16  0.44863165D-16  0.16748730D-16 -0.39694918D-04  0.15881107D-03
  0.15881107D-03 -0.12479051D-16 -0.33586145D-16 -0.13021628D-17
MO    4     MO 0.0        OCC NO =    2.0000000  ORB. ENERGY =   -6.978887
  0.71551108D-07  0.13389961D-06  0.23190824D-06  0.37907105D-06  0.59038622D-06
  0.87184232D-06  0.11959078D-05  0.14445470D-05  0.13961510D-05  0.88288915D-06
 -0.65233456D-05 -0.23205257D-04 -0.38799008D-04  0.79919177D-04 -0.15659033D-03
  0.25310728D-03 -0.24807680D-03 -0.20622113D-03  0.57107255D-03  0.93234764D-04
 -0.63720519D-05  0.83752499D-17  0.12016452D-16  0.15847163D-16  0.18374239D-16
  0.18149038D-16  0.13969232D-16  0.77296455D-17  0.27956445D-17 -0.43231982D-16
 -0.62027408D-16 -0.81801055D-16 -0.94845502D-16 -0.93683044D-16 -0.72107410D-16
 -0.39899454D-16 -0.14430764D-16  0.95537923D-05  0.13707375D-04  0.18077133D-04
  0.20959812D-04  0.20702922D-04  0.15934944D-04  0.88173402D-05  0.31890399D-05
 -0.14681551D-15  0.77878190D-16  0.15514636D-15 -0.82297283D-16 -0.41543572D-03
  0.22036760D-03  0.45889057D-17  0.17395265D-15 -0.42556808D-03 -0.23023840D-16
 -0.44047463D-16  0.36463093D-03  0.57221717D-17  0.74483605D-17  0.24814694D-03
  0.84334877D-18  0.12331288D-17 -0.17670059D-05  0.67469949D-04  0.67469949D-04
 -0.13493990D-03 -0.10651637D-15  0.37081216D-16  0.20582809D-15 -0.29357713D-04
 -0.29357713D-04  0.58715427D-04 -0.19277703D-16  0.24643027D-16  0.86786113D-18
 -0.70049940D-04 -0.70049940D-04  0.14009988D-03  0.62293189D-17 -0.29551186D-16
 -0.17209066D-17 -0.93204011D-05 -0.93204011D-05  0.18640802D-04 -0.74647633D-18
  0.52263004D-17  0.27427325D-17  0.25334067D-06  0.25334067D-06 -0.50668133D-06
  0.52750797D-19  0.10646012D-18 -0.35637205D-18  0.21748609D-18 -0.46253658D-18
  0.12115209D-04  0.22134382D-18 -0.45630154D-18 -0.18172813D-04 -0.87380210D-18
  0.18439113D-17 -0.18172813D-04  0.52127765D-18  0.57187728D-17  0.15747728D-17
  0.41440864D-04  0.57135845D-17  0.15822025D-17 -0.62161296D-04 -0.22869903D-16
 -0.63065208D-17 -0.62161296D-04 -0.18413978D-17 -0.12568449D-06 -0.12568449D-06
 -0.33515802D-06  0.19005107D-18  0.10652285D-16  0.19009363D-18 -0.21641154D-17
 -0.14202531D-16  0.28850056D-17 -0.25136710D-06  0.10054741D-05  0.10054741D-05
 -0.21626704D-17  0.10650738D-16 -0.11404341D-17  0.16051784D-03  0.30040730D-03
  0.52035054D-03  0.85108306D-03  0.13276281D-02  0.19696681D-02  0.27318770D-02
  0.33811893D-02  0.34217851D-02  0.23618497D-02  0.23530885D-03  0.89028984D-03
  0.16795314D-02  0.19129022D-02 -0.11231795D-02 -0.19247322D-02 -0.10780321D-02
 -0.20482928D-03  0.60445187D-03 -0.97976058D-03 -0.46890907D-04  0.35925117D-12
  0.51647602D-12  0.68510578D-12  0.80166738D-12  0.79013818D-12  0.59528600D-12
  0.31088922D-12  0.89344576D-13  0.84077295D-12  0.12087339D-11  0.16033863D-11
  0.18761811D-11  0.18491987D-11  0.13931767D-11  0.72758913D-12  0.20909745D-12
 -0.61522444D+01 -0.88447497D+01 -0.11732566D+02 -0.13728706D+02 -0.13531266D+02
 -0.10194385D+02 -0.53240368D+01 -0.15300428D+01  0.14319880D-13 -0.85931066D-14
  0.33920256D-13 -0.20354945D-13 -0.24773516D+00  0.14866148D+00  0.82390117D-14
  0.19081946D-13 -0.13972086D+00  0.63224206D-16  0.21074789D-15 -0.23578866D-02
  0.32538353D-16 -0.19478738D-16  0.84695536D-03 -0.33791644D-17 -0.30536617D-17
  0.90964796D-04 -0.14594919D-17  0.41993081D-18  0.12431079D-05 -0.28689738D-02
 -0.28689738D-02  0.57379476D-02 -0.37583658D-16 -0.47408256D-15 -0.12078695D-14
 -0.49591178D-04 -0.49591178D-04  0.99182356D-04  0.96593861D-17 -0.66956035D-16
 -0.27273656D-16 -0.12343266D-03 -0.12343266D-03  0.24686531D-03  0.29158718D-17
  0.26479581D-16 -0.63247954D-17  0.10653409D-03  0.10653409D-03 -0.21306817D-03
 -0.14432001D-17 -0.29234792D-16  0.16716931D-17  0.32311982D-06  0.32311982D-06
 -0.64623965D-06  0.10098292D-18  0.20939011D-17  0.24173487D-17 -0.10632644D-16
  0.23082660D-17  0.94192193D-04 -0.10613542D-16  0.23074207D-17 -0.14128829D-03
  0.42511474D-16 -0.92322186D-17 -0.14128829D-03  0.50889105D-17  0.24147674D-16
 -0.46220679D-16 -0.41699227D-03  0.23868168D-16 -0.46251570D-16  0.62548841D-03
 -0.96311190D-16  0.18491361D-15  0.62548841D-03  0.17757092D-18 -0.71600022D-05
 -0.71600022D-05 -0.19092773D-04  0.25196800D-18  0.11041970D-16  0.19887054D-18
 -0.70646040D-17 -0.14687733D-16  0.94133120D-17 -0.14318304D-04  0.57278318D-04
  0.57278318D-04 -0.70461240D-17  0.10937289D-16 -0.13525156D-17
MO    5     MO 0.0        OCC NO =    2.0000000  ORB. ENERGY =   -6.977286
 -0.24540999D-16 -0.45925637D-16 -0.79541183D-16 -0.13001591D-15 -0.20249397D-15
 -0.29902935D-15 -0.41017914D-15 -0.49545881D-15 -0.47885968D-15 -0.30281825D-15
 -0.29743742D-17 -0.10580632D-16 -0.17690733D-16 -0.93224401D-16  0.29578007D-17
  0.29834583D-16 -0.19453701D-16  0.21080026D-16  0.29408896D-16  0.16027638D-15
  0.14102775D-16  0.47544200D-05  0.68214394D-05  0.89960384D-05  0.10430596D-04
  0.10302755D-04  0.79299837D-05  0.43879265D-05  0.15870175D-05  0.15345641D-05
  0.22017272D-05  0.29036134D-05  0.33666396D-05  0.33253769D-05  0.25595274D-05
  0.14162725D-05  0.51223494D-06 -0.14789376D-15 -0.21219167D-15 -0.27983601D-15
 -0.32446020D-15 -0.32048351D-15 -0.24667469D-15 -0.13649340D-15 -0.49366690D-16
  0.11146315D-03 -0.59125553D-04  0.35976490D-04 -0.19083705D-04 -0.18964814D-16
  0.10059873D-16  0.65860975D-04  0.21257669D-04 -0.43474163D-16 -0.22245148D-04
 -0.71799727D-05 -0.35326015D-16  0.50441445D-06  0.16280772D-06  0.66478811D-16
  0.19749497D-05  0.63744619D-06  0.13901386D-16  0.12455184D-15 -0.94241369D-16
 -0.30310476D-16  0.10488353D-15  0.22127232D-05  0.71419133D-06  0.16962726D-15
 -0.17321015D-15  0.35828932D-17  0.29804270D-16  0.19513813D-04  0.62983912D-05
 -0.45949066D-16  0.49024418D-16 -0.30753514D-17  0.72120539D-17 -0.32372685D-04
 -0.10448795D-04  0.24104987D-17 -0.60771187D-17  0.36666200D-17 -0.11413049D-17
  0.23332572D-05  0.75309559D-06 -0.44964851D-18  0.53442244D-18 -0.84773934D-19
 -0.13518788D-19  0.24215194D-06  0.78158361D-07  0.13777140D-05  0.44467894D-06
  0.82302248D-18  0.13777310D-05  0.44468441D-06 -0.30898794D-18 -0.55108730D-05
 -0.17787212D-05 -0.21600795D-17  0.32910528D-17  0.61561938D-05  0.19870087D-05
 -0.11536531D-16  0.61561619D-05  0.19869984D-05  0.24221220D-16 -0.24624743D-04
 -0.79480246D-05  0.10388374D-16 -0.27823574D-16 -0.18037494D-17 -0.47421783D-18
  0.14606810D-17 -0.25952109D-18  0.90811325D-05 -0.24315981D-18  0.29310788D-05
 -0.12108218D-04 -0.39081183D-05  0.11215944D-16 -0.39344826D-18 -0.83706375D-17
  0.29311185D-05  0.90812555D-05  0.15080427D-17  0.22487241D-16  0.42084615D-16
  0.72896871D-16  0.11922980D-15  0.18598988D-15  0.27593446D-15  0.38271372D-15
  0.47367708D-15  0.47936422D-15  0.33087590D-15  0.23358609D-16  0.88377180D-16
  0.16672352D-15  0.40179822D-15 -0.41346889D-15 -0.10289476D-16 -0.40184770D-15
  0.19618608D-15 -0.63332617D-16  0.88697224D-16 -0.25425518D-15 -0.58554397D+01
 -0.84180496D+01 -0.11166548D+02 -0.13066387D+02 -0.12878473D+02 -0.97025745D+01
 -0.50671876D+01 -0.14562285D+01 -0.18899356D+01 -0.27170584D+01 -0.36041797D+01
 -0.42173827D+01 -0.41567304D+01 -0.31316590D+01 -0.16355148D+01 -0.47002072D+00
 -0.60011590D-12 -0.86275423D-12 -0.11444441D-11 -0.13391559D-11 -0.13198968D-11
 -0.99440340D-12 -0.51932903D-12 -0.14924683D-12 -0.23643187D+00  0.14187858D+00
 -0.76312118D-01  0.45793551D-01 -0.24106985D-13  0.14466175D-13 -0.13325346D+00
 -0.43009658D-01 -0.13696185D-13 -0.14855634D-02 -0.47948905D-03 -0.13120424D-15
  0.19139494D-03  0.61775737D-04 -0.15919244D-16 -0.29163752D-04 -0.94130611D-05
  0.51554041D-16  0.86906793D-07  0.28050539D-07  0.13248378D-16 -0.83497179D-15
 -0.73393979D-16  0.90836577D-15  0.15454684D-15  0.84784410D-02  0.27365506D-02
 -0.64313239D-17 -0.78779807D-16  0.85211131D-16 -0.21982618D-16  0.11895226D-03
  0.38393720D-04 -0.50394901D-16 -0.12724459D-16  0.63119360D-16  0.63231359D-17
  0.12226069D-03  0.39461566D-04  0.10409351D-16  0.16439071D-17 -0.12053258D-16
 -0.18711942D-18 -0.55311965D-04 -0.17852810D-04  0.15809985D-17  0.40470842D-17
 -0.56280827D-17 -0.78591234D-18  0.36336194D-05  0.11728080D-05 -0.12849764D-04
 -0.41474643D-05  0.39526785D-17 -0.12852111D-04 -0.41482218D-05 -0.96427708D-17
  0.51401405D-04  0.16590615D-04 -0.22152649D-17  0.28808819D-17  0.10882472D-03
  0.35124895D-04 -0.29172843D-16  0.10885367D-03  0.35134240D-04  0.46346018D-16
 -0.43532782D-03 -0.14050893D-03  0.41172512D-16  0.85694644D-17 -0.54289760D-17
  0.28359013D-17 -0.12801630D-17  0.40088000D-17 -0.72937447D-06  0.31093109D-17
 -0.23541712D-06  0.97136554D-06  0.31352356D-06  0.39387353D-17  0.28635121D-16
 -0.20954143D-16 -0.23431931D-06 -0.72597321D-06 -0.21354333D-16
MO    6     MO 0.0        OCC NO =    2.0000000  ORB. ENERGY =   -6.977286
 -0.22397149D-16 -0.41913671D-16 -0.72592634D-16 -0.11865799D-15 -0.18480452D-15
 -0.27290678D-15 -0.37434676D-15 -0.45217657D-15 -0.43702751D-15 -0.27636469D-15
 -0.11197005D-16 -0.39830694D-16 -0.66596608D-16 -0.12935106D-15  0.10267466D-15
  0.38671115D-16  0.97300277D-16 -0.13875215D-15  0.18782042D-15  0.14859125D-15
  0.85202428D-17  0.15345641D-05  0.22017272D-05  0.29036134D-05  0.33666396D-05
  0.33253769D-05  0.25595274D-05  0.14162725D-05  0.51223494D-06 -0.47544200D-05
 -0.68214394D-05 -0.89960384D-05 -0.10430596D-04 -0.10302755D-04 -0.79299837D-05
 -0.43879265D-05 -0.15870175D-05 -0.28991093D-15 -0.41595187D-15 -0.54855269D-15
 -0.63602793D-15 -0.62823255D-15 -0.48354772D-15 -0.26756321D-15 -0.96771786D-16
  0.35976490D-04 -0.19083705D-04 -0.11146315D-03  0.59125553D-04  0.67188408D-16
 -0.35640047D-16  0.21257669D-04 -0.65860975D-04  0.56313858D-16 -0.71799727D-05
  0.22245148D-04  0.18873723D-16  0.16280772D-06 -0.50441445D-06  0.10440232D-15
  0.63744619D-06 -0.19749497D-05  0.50941868D-17  0.13981052D-15 -0.16123462D-15
  0.21424109D-16 -0.43494399D-15  0.71419132D-06 -0.22127232D-05 -0.25991760D-15
  0.29026922D-15 -0.30351624D-16  0.43024549D-16  0.62983912D-05 -0.19513813D-04
  0.66216762D-16 -0.97382807D-16  0.31166045D-16 -0.38105550D-16 -0.10448795D-04
  0.32372685D-04 -0.83547729D-17  0.72228276D-17  0.11319453D-17  0.62478405D-17
  0.75309559D-06 -0.23332572D-05  0.74956158D-18 -0.87030087D-18  0.12073929D-18
 -0.41679109D-18  0.78158361D-07 -0.24215194D-06  0.44467894D-06 -0.13777140D-05
  0.24308775D-18  0.44468441D-06 -0.13777310D-05  0.47188391D-18 -0.17787212D-05
  0.55108730D-05 -0.12011472D-17 -0.26381824D-17  0.19870087D-05 -0.61561938D-05
  0.18680723D-16  0.19869984D-05 -0.61561619D-05 -0.42905383D-16 -0.79480246D-05
  0.24624743D-04 -0.13136784D-16 -0.10971690D-16 -0.18035088D-18 -0.36090478D-17
 -0.45937262D-18 -0.99692914D-18  0.29310788D-05 -0.10157700D-17 -0.90811325D-05