 Molden2AIM, Version 4.0.0 (06/02/2016)           Time: Tue Jun 26 17:37:00 2018
GAUSSIAN             11 MOL ORBITALS    230 PRIMITIVES        2 NUCLEI
  B    1    (CENTRE  1)   0.00000000  0.00000000 -0.20585921  CHARGE =  5.0
  Cl   2    (CENTRE  2)   0.00000000  0.00000000  3.04044839  CHARGE = 17.0
CENTRE ASSIGNMENTS    1  1  1  1  1  1  1  1  1  1  1  1  1  1  1  1  1  1  1  1
CENTRE ASSIGNMENTS    1  1  1  1  1  1  1  1  1  1  1  1  1  1  1  1  1  1  1  1
CENTRE ASSIGNMENTS    1  1  1  1  1  1  1  1  1  1  1  1  1  1  1  1  1  1  1  1
CENTRE ASSIGNMENTS    1  1  1  1  1  1  1  1  1  1  1  1  1  1  1  1  1  1  1  1
CENTRE ASSIGNMENTS    1  1  1  1  1  1  1  1  1  1  1  1  1  1  1  1  1  1  1  2
CENTRE ASSIGNMENTS    2  2  2  2  2  2  2  2  2  2  2  2  2  2  2  2  2  2  2  2
CENTRE ASSIGNMENTS    2  2  2  2  2  2  2  2  2  2  2  2  2  2  2  2  2  2  2  2
CENTRE ASSIGNMENTS    2  2  2  2  2  2  2  2  2  2  2  2  2  2  2  2  2  2  2  2
CENTRE ASSIGNMENTS    2  2  2  2  2  2  2  2  2  2  2  2  2  2  2  2  2  2  2  2
CENTRE ASSIGNMENTS    2  2  2  2  2  2  2  2  2  2  2  2  2  2  2  2  2  2  2  2
CENTRE ASSIGNMENTS    2  2  2  2  2  2  2  2  2  2  2  2  2  2  2  2  2  2  2  2
CENTRE ASSIGNMENTS    2  2  2  2  2  2  2  2  2  2
TYPE ASSIGNMENTS      1  1  1  1  1  1  1  1  1  1  1  1  1  1  1  1  2  2  2  2
TYPE ASSIGNMENTS      2  3  3  3  3  3  4  4  4  4  4  2  3  4  2  3  4  2  3  4
TYPE ASSIGNMENTS      5  6  7  8  9 10  5  6  7  8  9 10  5  6  7  8  9 10  5  6
TYPE ASSIGNMENTS      7  8  9 10 11 12 13 17 14 15 18 19 16 20 11 12 13 17 14 15
TYPE ASSIGNMENTS     18 19 16 20 21 22 23 24 25 26 27 28 29 30 31 32 33 34 35  1
TYPE ASSIGNMENTS      1  1  1  1  1  1  1  1  1  1  1  1  1  1  1  1  1  1  1  1
TYPE ASSIGNMENTS      2  2  2  2  2  2  2  2  3  3  3  3  3  3  3  3  4  4  4  4
TYPE ASSIGNMENTS      4  4  4  4  2  2  3  3  4  4  2  3  4  2  3  4  2  3  4  2
TYPE ASSIGNMENTS      3  4  2  3  4  5  6  7  8  9 10  5  6  7  8  9 10  5  6  7
TYPE ASSIGNMENTS      8  9 10  5  6  7  8  9 10  5  6  7  8  9 10 11 12 13 17 14
TYPE ASSIGNMENTS     15 18 19 16 20 11 12 13 17 14 15 18 19 16 20 21 22 23 24 25
TYPE ASSIGNMENTS     26 27 28 29 30 31 32 33 34 35
EXPONENTS  0.4644767D+05 0.6957689D+04 0.1583443D+04 0.4484660D+03 0.1462864D+03
EXPONENTS  0.5278439D+02 0.2051940D+02 0.8418566D+01 0.3651002D+02 0.1054185D+02
EXPONENTS  0.3600409D+01 0.1561702D+01 0.4499737D+00 0.1807523D+00 0.7159670D-01
EXPONENTS  0.2994140D-01 0.7224046D+02 0.1680771D+02 0.5225941D+01 0.1850835D+01
EXPONENTS  0.7220678D+00 0.7224046D+02 0.1680771D+02 0.5225941D+01 0.1850835D+01
EXPONENTS  0.7220678D+00 0.7224046D+02 0.1680771D+02 0.5225941D+01 0.1850835D+01
EXPONENTS  0.7220678D+00 0.2949102D+00 0.2949102D+00 0.2949102D+00 0.1220114D+00
EXPONENTS  0.1220114D+00 0.1220114D+00 0.4986539D-01 0.4986539D-01 0.4986539D-01
EXPONENTS  0.1110000D+01 0.1110000D+01 0.1110000D+01 0.1110000D+01 0.1110000D+01
EXPONENTS  0.1110000D+01 0.4020000D+00 0.4020000D+00 0.4020000D+00 0.4020000D+00
EXPONENTS  0.4020000D+00 0.4020000D+00 0.1450000D+00 0.1450000D+00 0.1450000D+00
EXPONENTS  0.1450000D+00 0.1450000D+00 0.1450000D+00 0.5089659D-01 0.5089659D-01
EXPONENTS  0.5089659D-01 0.5089659D-01 0.5089659D-01 0.5089659D-01 0.8820000D+00
EXPONENTS  0.8820000D+00 0.8820000D+00 0.8820000D+00 0.8820000D+00 0.8820000D+00
EXPONENTS  0.8820000D+00 0.8820000D+00 0.8820000D+00 0.8820000D+00 0.3110000D+00
EXPONENTS  0.3110000D+00 0.3110000D+00 0.3110000D+00 0.3110000D+00 0.3110000D+00
EXPONENTS  0.3110000D+00 0.3110000D+00 0.3110000D+00 0.3110000D+00 0.6730000D+00
EXPONENTS  0.6730000D+00 0.6730000D+00 0.6730000D+00 0.6730000D+00 0.6730000D+00
EXPONENTS  0.6730000D+00 0.6730000D+00 0.6730000D+00 0.6730000D+00 0.6730000D+00
EXPONENTS  0.6730000D+00 0.6730000D+00 0.6730000D+00 0.6730000D+00 0.1467459D+07
EXPONENTS  0.2197562D+06 0.5001077D+05 0.1416482D+05 0.4620747D+04 0.1667899D+04
EXPONENTS  0.6502920D+03 0.2693804D+03 0.1170675D+03 0.5281177D+02 0.4614277D+03
EXPONENTS  0.1421267D+03 0.5443784D+02 0.2416077D+02 0.9708354D+01 0.4564070D+01
EXPONENTS  0.2119474D+01 0.7572237D+00 0.3374722D+00 0.1386078D+00 0.5423457D-01
EXPONENTS  0.2501946D+04 0.5928806D+03 0.1921809D+03 0.7287571D+02 0.3043636D+02
EXPONENTS  0.1349018D+02 0.6147807D+01 0.2845094D+01 0.2501946D+04 0.5928806D+03
EXPONENTS  0.1921809D+03 0.7287571D+02 0.3043636D+02 0.1349018D+02 0.6147807D+01
EXPONENTS  0.2845094D+01 0.2501946D+04 0.5928806D+03 0.1921809D+03 0.7287571D+02
EXPONENTS  0.3043636D+02 0.1349018D+02 0.6147807D+01 0.2845094D+01 0.1053940D+03
EXPONENTS  0.6736974D+01 0.1053940D+03 0.6736974D+01 0.1053940D+03 0.6736974D+01
EXPONENTS  0.1242110D+01 0.1242110D+01 0.1242110D+01 0.5566971D+00 0.5566971D+00
EXPONENTS  0.5566971D+00 0.2338780D+00 0.2338780D+00 0.2338780D+00 0.9316449D-01
EXPONENTS  0.9316449D-01 0.9316449D-01 0.2725615D-01 0.2725615D-01 0.2725615D-01
EXPONENTS  0.5191000D+01 0.5191000D+01 0.5191000D+01 0.5191000D+01 0.5191000D+01
EXPONENTS  0.5191000D+01 0.1276000D+01 0.1276000D+01 0.1276000D+01 0.1276000D+01
EXPONENTS  0.1276000D+01 0.1276000D+01 0.5830000D+00 0.5830000D+00 0.5830000D+00
EXPONENTS  0.5830000D+00 0.5830000D+00 0.5830000D+00 0.2430000D+00 0.2430000D+00
EXPONENTS  0.2430000D+00 0.2430000D+00 0.2430000D+00 0.2430000D+00 0.8345654D-01
EXPONENTS  0.8345654D-01 0.8345654D-01 0.8345654D-01 0.8345654D-01 0.8345654D-01
EXPONENTS  0.4230000D+00 0.4230000D+00 0.4230000D+00 0.4230000D+00 0.4230000D+00
EXPONENTS  0.4230000D+00 0.4230000D+00 0.4230000D+00 0.4230000D+00 0.4230000D+00
EXPONENTS  0.1089000D+01 0.1089000D+01 0.1089000D+01 0.1089000D+01 0.1089000D+01
EXPONENTS  0.1089000D+01 0.1089000D+01 0.1089000D+01 0.1089000D+01 0.1089000D+01
EXPONENTS  0.8270000D+00 0.8270000D+00 0.8270000D+00 0.8270000D+00 0.8270000D+00
EXPONENTS  0.8270000D+00 0.8270000D+00 0.8270000D+00 0.8270000D+00 0.8270000D+00
EXPONENTS  0.8270000D+00 0.8270000D+00 0.8270000D+00 0.8270000D+00 0.8270000D+00
MO    1     MO 0.0        OCC NO =    2.0000000  ORB. ENERGY = -100.720170
 -0.53026471D-06 -0.99235524D-06 -0.17145780D-05 -0.27858069D-05 -0.42492697D-05
 -0.59518712D-05 -0.72058395D-05 -0.68859749D-05  0.65325380D-05  0.25710312D-04
 -0.30037612D-04  0.33363503D-04  0.20843410D-05 -0.57994299D-04  0.98141437D-05
  0.57216767D-06  0.72704117D-16  0.93348027D-16  0.97636282D-16  0.89838554D-16
  0.69470359D-16  0.81567911D-16  0.10472864D-15  0.10953971D-15  0.10079131D-15
  0.77939907D-16  0.98425111D-05  0.12637235D-04  0.13217769D-04  0.12162131D-04
  0.94047326D-05 -0.56239964D-16  0.37416874D-16 -0.64972730D-04  0.12128288D-16
 -0.27878065D-17 -0.49864957D-05 -0.34098705D-17 -0.77655855D-17  0.15597861D-05
 -0.24179884D-05 -0.24179884D-05  0.48359767D-05  0.25623073D-16  0.75474624D-16
  0.17195671D-15  0.14449620D-04  0.14449620D-04 -0.28899241D-04 -0.31052032D-17
 -0.27478297D-16  0.25495989D-16  0.11939933D-05  0.11939933D-05 -0.23879866D-05
 -0.58933733D-18 -0.10213719D-17 -0.58903497D-17 -0.91148947D-07 -0.91148947D-07
  0.18229789D-06 -0.34838498D-18  0.13454643D-18 -0.13889336D-17  0.30137706D-17
  0.41159561D-16 -0.10036163D-04  0.30101766D-17  0.41156718D-16  0.15054244D-04
 -0.12051488D-16 -0.16463540D-15  0.15054244D-04  0.28533976D-16  0.21854408D-18
 -0.57630296D-17 -0.22169819D-05  0.21711252D-18 -0.57633840D-17  0.33254729D-05
 -0.87274476D-18  0.23052473D-16  0.33254729D-05  0.35548399D-19  0.45304402D-06
  0.45304402D-06  0.12081174D-05  0.92350622D-18 -0.72784050D-17  0.92452461D-18
 -0.41286997D-16  0.97033991D-17  0.55048340D-16  0.90608796D-06 -0.36243521D-05
 -0.36243521D-05 -0.41284027D-16 -0.72749822D-17 -0.55440925D-17  0.34520786D+00
  0.64605257D+00  0.11190600D+01  0.18303297D+01  0.28551821D+01  0.42359462D+01
  0.58751442D+01  0.72715478D+01  0.73588528D+01  0.50793675D+01 -0.82022277D-02
 -0.31033087D-01 -0.58543906D-01  0.17506802D+01  0.12131722D+00 -0.96298184D-02
  0.20137112D-02 -0.44822881D-03  0.16954489D-03  0.66335167D-05 -0.59492180D-05
 -0.72396191D-16 -0.10408010D-15 -0.13806232D-15 -0.16155177D-15 -0.15922841D-15
 -0.11996186D-15 -0.62650305D-16 -0.18004693D-16 -0.13899984D-16 -0.19983256D-16
 -0.26507802D-16 -0.31017751D-16 -0.30571668D-16 -0.23032536D-16 -0.12028785D-16
 -0.34568798D-17 -0.69434575D-03 -0.99822340D-03 -0.13241440D-02 -0.15494294D-02
 -0.15271463D-02 -0.11505441D-02 -0.60087377D-03 -0.17268149D-03 -0.74701625D-16
  0.44827122D-16 -0.14417665D-15  0.86517852D-16 -0.20229427D-02  0.12139321D-02
  0.45635408D-16 -0.74384285D-16  0.66572265D-04 -0.36838831D-16  0.69408375D-16
  0.48998412D-05  0.41278706D-16 -0.63982972D-16 -0.62224090D-04 -0.90483876D-17
  0.29131320D-16  0.32726694D-05  0.20694562D-17  0.49923400D-18 -0.13217302D-07
 -0.62634762D-04 -0.62634762D-04  0.12526952D-03 -0.22106995D-17 -0.17801950D-15
 -0.22997854D-16  0.26471625D-04  0.26471625D-04 -0.52943250D-04 -0.17616241D-16
 -0.93901062D-16 -0.89892032D-16 -0.14044933D-04 -0.14044933D-04  0.28089867D-04
  0.13663598D-16  0.25403090D-16  0.46051568D-16 -0.72050411D-05 -0.72050411D-05
  0.14410082D-04 -0.65257232D-17  0.26684350D-17  0.34061209D-16  0.16743119D-06
  0.16743119D-06 -0.33486237D-06  0.48161192D-18 -0.20063250D-17 -0.42850227D-17
 -0.36537415D-17 -0.86078908D-19 -0.10613505D-04 -0.36538275D-17 -0.86369969D-19
  0.15920258D-04  0.14615052D-16  0.34460669D-18  0.15920258D-04  0.20551253D-17
 -0.75140579D-17 -0.28320875D-16  0.10260370D-04 -0.75197477D-17 -0.28325650D-16
 -0.15390555D-04  0.30061921D-16  0.11328827D-15 -0.15390555D-04 -0.45358626D-16
  0.25622523D-05  0.25622523D-05  0.68326751D-05  0.96129296D-18 -0.96595661D-17
  0.96102003D-18 -0.29250580D-16  0.12878397D-16  0.39000840D-16  0.51245119D-05
 -0.20498025D-04 -0.20498025D-04 -0.29250780D-16 -0.96564922D-17 -0.57669389D-17
MO    2     MO 0.0        OCC NO =    2.0000000  ORB. ENERGY =   -9.232527
 -0.46368174D-05 -0.86774963D-05 -0.14992861D-04 -0.24360056D-04 -0.37157079D-04
 -0.52045213D-04 -0.63010344D-04 -0.60213338D-04  0.49403840D-04  0.19444023D-03
 -0.33842906D-03  0.44786644D-03 -0.33088822D-04 -0.89011694D-03  0.53572406D-03
  0.24837654D-04 -0.31153403D-16 -0.39999231D-16 -0.41836729D-16 -0.38495436D-16
 -0.29767752D-16 -0.17423622D-16 -0.22370958D-16 -0.23398643D-16 -0.21529909D-16
 -0.16648648D-16  0.11725311D-03  0.15054645D-03  0.15746231D-03  0.14488657D-03
  0.11203789D-03 -0.98203907D-18 -0.10668924D-15 -0.11111900D-02  0.79873018D-17
  0.60471324D-16  0.69560395D-04 -0.65400663D-17 -0.66560750D-17  0.60968023D-04
 -0.83429659D-05 -0.83429659D-05  0.16685932D-04  0.19959959D-15  0.28260172D-16
 -0.16695965D-15  0.21438386D-03  0.21438386D-03 -0.42876772D-03 -0.56697984D-17
 -0.21885556D-16 -0.18412329D-17  0.12188089D-04  0.12188089D-04 -0.24376177D-04
  0.32629676D-17  0.27224631D-16 -0.12199516D-17 -0.30013552D-05 -0.30013552D-05
  0.60027104D-05 -0.18016851D-18 -0.30094112D-17  0.13361477D-17  0.41687300D-17
 -0.94149240D-17 -0.86595737D-04  0.41976687D-17 -0.94572362D-17  0.12989361D-03
 -0.16703859D-16  0.37702008D-16  0.12989361D-03 -0.34442940D-16 -0.25465693D-17
  0.27208824D-18 -0.21698318D-04 -0.25600007D-17  0.25962798D-18  0.32547478D-04
  0.10199709D-16 -0.10758927D-17  0.32547478D-04  0.63316433D-17  0.20926200D-04
  0.20926200D-04  0.55803188D-04 -0.64715962D-17  0.26954290D-17 -0.64575477D-17
  0.25494670D-17 -0.36103620D-17 -0.34074720D-17  0.41852361D-04 -0.16740956D-03
 -0.16740956D-03  0.25740149D-17  0.27447990D-17  0.38787432D-16  0.97648088D-01
  0.18274728D+00  0.31654573D+00  0.51774080D+00  0.80763826D+00  0.11982116D+01
  0.16618874D+01  0.20568846D+01  0.20815804D+01  0.14367880D+01  0.14254364D+00
  0.53931314D+00  0.10174140D+01  0.11123938D+01 -0.71918213D+00 -0.12287793D+01
 -0.48438701D+00 -0.31758627D-01  0.53794968D-02 -0.58414542D-03 -0.28800311D-03
 -0.29748335D-15 -0.42767575D-15 -0.56731216D-15 -0.66383274D-15 -0.65428582D-15
 -0.49293554D-15 -0.25743650D-15 -0.73983122D-16 -0.82230910D-15 -0.11821894D-14
 -0.15681750D-14 -0.18349791D-14 -0.18085893D-14 -0.13625818D-14 -0.71161086D-15
 -0.20450555D-15  0.11053768D-01  0.15891405D-01  0.21079960D-01  0.24666433D-01
  0.24311692D-01  0.18316303D-01  0.95657232D-02  0.27490354D-02 -0.18446632D-15
  0.11069497D-15 -0.14940043D-15  0.89652553D-16 -0.14531352D-02  0.87200070D-03
  0.40295896D-16  0.72536242D-16 -0.20753222D-03 -0.67414775D-16  0.31497770D-16
  0.83805173D-03  0.11251889D-16  0.31902389D-16 -0.11749556D-02 -0.16732142D-17
 -0.23279231D-16  0.20834393D-03  0.59895859D-17  0.12008465D-17  0.46181362D-06
  0.89321304D-03  0.89321304D-03 -0.17864261D-02  0.27633303D-15  0.10673511D-15
 -0.33333039D-15  0.55019632D-03  0.55019632D-03 -0.11003926D-02  0.39285862D-16
  0.89620458D-16 -0.14651201D-15 -0.15598013D-03 -0.15598013D-03  0.31196025D-03
 -0.69139691D-17 -0.15149942D-16  0.70706936D-19 -0.12694402D-03 -0.12694402D-03
  0.25388804D-03  0.80851984D-17  0.37988652D-16 -0.37518763D-16  0.70482615D-05
  0.70482615D-05 -0.14096523D-04 -0.18584140D-17 -0.30165173D-17  0.99979880D-17
  0.39455997D-17  0.19464693D-17 -0.18391458D-03  0.39350567D-17  0.18933543D-17
  0.27587186D-03 -0.15771856D-16 -0.77327621D-17  0.27587186D-03 -0.96114212D-17
  0.13977748D-16 -0.27320126D-17  0.36745774D-03  0.13900414D-16 -0.18901747D-17
 -0.55118661D-03 -0.55833658D-16  0.10086212D-16 -0.55118661D-03  0.28975548D-16
  0.29152924D-04  0.29152924D-04  0.77743733D-04  0.78019153D-17 -0.46756032D-17
  0.76986099D-17  0.90619461D-17  0.61801595D-17 -0.12064239D-16  0.58313652D-04
 -0.23323120D-03 -0.23323120D-03  0.90068775D-17 -0.45136689D-17 -0.46501576D-16
MO    3     MO 0.0        OCC NO =    2.0000000  ORB. ENERGY =   -7.051060
 -0.37959695D-04 -0.71039053D-04 -0.12274032D-03 -0.19942564D-03 -0.30418955D-03
 -0.42607251D-03 -0.51583948D-03 -0.49294155D-03 -0.66687428D-04 -0.26246378D-03
  0.11171380D-03 -0.45909126D-03 -0.37174245D-03  0.73295632D-03  0.24132907D-03
  0.14591945D-04  0.96602153D-16  0.12403177D-15  0.12972959D-15  0.11936873D-15
  0.92305450D-16  0.22622012D-16  0.29045400D-16  0.30379698D-16  0.27953421D-16
  0.21615822D-16 -0.35168690D-03 -0.45154635D-03 -0.47228964D-03 -0.43457020D-03
 -0.33604445D-03 -0.26082253D-16  0.46725839D-17  0.71049801D-03 -0.29815903D-17
  0.39183390D-17  0.20373899D-03 -0.28188718D-16  0.51903843D-17  0.10675474D-04
  0.28100307D-03  0.28100307D-03 -0.56200615D-03 -0.53119237D-16  0.46649796D-16
  0.14090947D-15 -0.27813332D-03 -0.27813332D-03  0.55626663D-03 -0.21289374D-17
  0.20843960D-16 -0.34728255D-16 -0.23962105D-04 -0.23962105D-04  0.47924210D-04
  0.15739470D-17  0.90406579D-17  0.17360481D-16  0.16369065D-06  0.16369065D-06
 -0.32738130D-06 -0.22356686D-18 -0.59601348D-17 -0.36213889D-19  0.63873690D-17
  0.65887843D-17  0.30036443D-03  0.66000334D-17  0.66389955D-17 -0.45054665D-03
 -0.25762140D-16 -0.26405348D-16 -0.45054665D-03  0.27403263D-16  0.20237474D-17
  0.15238637D-17  0.91690811D-04  0.20151660D-17  0.14777586D-17 -0.13753622D-03
 -0.80864081D-17 -0.60493498D-17 -0.13753622D-03 -0.85111846D-17  0.51347085D-04
  0.51347085D-04  0.13692555D-03  0.60165439D-17  0.34711809D-16  0.60347825D-17
  0.22551834D-16 -0.46304572D-16 -0.30077579D-16  0.10269416D-03 -0.41077666D-03
 -0.41077666D-03  0.22577233D-16  0.34778290D-16 -0.36153979D-16 -0.15975785D-03
 -0.29898500D-03 -0.51788689D-03 -0.84705353D-03 -0.13213423D-02 -0.19603426D-02
 -0.27189427D-02 -0.33651808D-02 -0.34055844D-02 -0.23506673D-02 -0.24005380D-03
 -0.90824232D-03 -0.17133988D-02 -0.17961854D-02  0.80485554D-03  0.21056657D-02
  0.90635247D-03  0.10498817D-02 -0.12053495D-02 -0.29530457D-03 -0.16550666D-03
  0.39731455D-11  0.57119768D-11  0.75769410D-11  0.88660563D-11  0.87385489D-11
  0.65835773D-11  0.34382855D-11  0.98810812D-12  0.15786115D-11  0.22694845D-11
  0.30104727D-11  0.35226644D-11  0.34720031D-11  0.26157891D-11  0.13661007D-11
  0.39259544D-12  0.61518304D+01  0.88441545D+01  0.11731777D+02  0.13727782D+02
  0.13530355D+02  0.10193699D+02  0.53236785D+01  0.15299398D+01  0.16047514D-12
 -0.96298293D-13  0.63844628D-13 -0.38312031D-13  0.24715505D+00 -0.14831337D+00
  0.90398618D-13  0.35956300D-13  0.13922853D+00  0.10382095D-14  0.39476171D-15
  0.27561396D-02 -0.15624101D-15 -0.21203366D-16  0.23681809D-03  0.75584437D-16
 -0.10025370D-16  0.12164466D-03  0.13499957D-17 -0.48424193D-18  0.29658196D-05
  0.29701817D-02  0.29701817D-02 -0.59403634D-02  0.30155714D-16 -0.56417058D-14
 -0.25049714D-14 -0.33573999D-03 -0.33573999D-03  0.67147998D-03  0.11717502D-16
  0.28741010D-15  0.80510594D-16  0.47408118D-03  0.47408118D-03 -0.94816236D-03
 -0.34023783D-17 -0.13688983D-15 -0.86465068D-16  0.15585971D-04  0.15585971D-04
 -0.31171943D-04  0.97375713D-18  0.58459292D-16  0.15777769D-16  0.40384662D-05
  0.40384662D-05 -0.80769324D-05 -0.24441374D-18 -0.18018009D-16  0.23998527D-17
 -0.33759919D-17 -0.48109039D-17  0.67611565D-04 -0.33305983D-17 -0.48542327D-17
 -0.10141735D-03  0.13458574D-16  0.19286944D-16 -0.10141735D-03  0.11524193D-16
 -0.10579047D-15 -0.39412195D-16  0.66064584D-03 -0.10664681D-15 -0.39172830D-16
 -0.99096877D-03  0.42401823D-15  0.15740942D-15 -0.99096877D-03 -0.41014488D-16
 -0.57587542D-04 -0.57587542D-04 -0.15356462D-03 -0.73413818D-17  0.39472914D-16
 -0.73922100D-17  0.12300095D-16 -0.52715826D-16 -0.16331388D-16 -0.11516862D-03
  0.46069387D-03  0.46069387D-03  0.12093879D-16  0.39728737D-16  0.44200775D-16
MO    4     MO 0.0        OCC NO =    2.0000000  ORB. ENERGY =   -7.048548
 -0.35391626D-15 -0.66233081D-15 -0.11443663D-14 -0.18593399D-14 -0.28361036D-14
 -0.39724763D-14 -0.48094164D-14 -0.45959281D-14  0.33180871D-16  0.13059098D-15
 -0.26723248D-14 -0.79704330D-15 -0.37859852D-16 -0.29327739D-16  0.39854355D-15
  0.13524859D-15  0.16522753D-05  0.21214293D-05  0.22188842D-05  0.20416729D-05
  0.15787849D-05 -0.64579821D-05 -0.82916884D-05 -0.86725949D-05 -0.79799576D-05
 -0.61707418D-05  0.10048234D-15  0.12901371D-15  0.13494039D-15  0.12416337D-15
  0.96013053D-16  0.27252641D-05 -0.10651800D-04  0.27099869D-16 -0.45608889D-06
  0.17826411D-05  0.10376678D-15 -0.31202747D-05  0.12195715D-04  0.49728887D-16
 -0.35694291D-16  0.46734414D-16 -0.11040123D-16 -0.25659753D-15  0.22143582D-04
 -0.86549047D-04  0.30362806D-16 -0.68482481D-16  0.38119675D-16  0.43395506D-16
 -0.17984659D-05  0.70293736D-05 -0.14686151D-16  0.65112512D-17  0.81749001D-17
 -0.31034974D-18  0.17715029D-05 -0.69239877D-05 -0.28905016D-17 -0.53053229D-17
  0.81958246D-17 -0.41211299D-18 -0.89707548D-06  0.35062542D-05  0.19860214D-05
 -0.77624415D-05  0.32894603D-17  0.19859888D-05 -0.77623141D-05  0.61955532D-15
 -0.79440530D-05  0.31049639D-04 -0.62942370D-15 -0.74258645D-16  0.76129269D-07
 -0.29755419D-06  0.11035813D-16  0.76145967D-07 -0.29761946D-06 -0.12224913D-15
 -0.30453377D-06  0.11902820D-05  0.89141691D-16 -0.10209073D-17 -0.27826625D-17
  0.16266265D-17  0.11772838D-16 -0.69858969D-17  0.16629688D-04  0.20503965D-17
 -0.64997779D-04 -0.22172975D-04  0.86663933D-04  0.38786621D-16 -0.22090647D-16
 -0.48546380D-16 -0.64998462D-04  0.16629863D-04  0.14806501D-16 -0.20228655D-16
 -0.37857698D-16 -0.65575216D-16 -0.10725454D-15 -0.16730933D-15 -0.24822001D-15
 -0.34427451D-15 -0.42610164D-15 -0.43121758D-15 -0.29764321D-15 -0.21658059D-16
 -0.81943156D-16 -0.15458573D-15 -0.26708567D-15  0.10517641D-15  0.27415757D-15
  0.80448504D-16  0.74986186D-16 -0.67714651D-16 -0.94967015D-17 -0.51902607D-15
  0.15250787D+01  0.21925233D+01  0.29083835D+01  0.34032062D+01  0.33542629D+01
  0.25270842D+01  0.13197744D+01  0.37928201D+00 -0.59608290D+01 -0.85695621D+01
 -0.11367530D+02 -0.13301563D+02 -0.13110266D+02 -0.98772065D+01 -0.51583895D+01
 -0.14824384D+01  0.54385914D-12  0.78187693D-12  0.10371603D-11  0.12136192D-11
  0.11961655D-11  0.90118489D-12  0.47064549D-12  0.13525597D-12  0.61580958D-01
 -0.36953642D-01 -0.24069156D+00  0.14443474D+00  0.21845496D-13 -0.13109096D-13
  0.34708408D-01 -0.13565916D+00  0.12327318D-13  0.39298738D-03 -0.15360064D-02
  0.38046191D-15 -0.50699813D-04  0.19816218D-03 -0.13519829D-15  0.12874609D-04
 -0.50320907D-04  0.16157767D-15  0.34978525D-06 -0.13671492D-05  0.14891592D-16
 -0.16908249D-14  0.16648181D-14  0.26006786D-16 -0.69212478D-15 -0.22484946D-02
  0.87883280D-02 -0.13234714D-16 -0.14230094D-15  0.15553565D-15  0.16335753D-15
  0.40518631D-04 -0.15836864D-03 -0.29095150D-16 -0.37160992D-16  0.66256143D-16
 -0.26361538D-16 -0.59579118D-04  0.23286729D-03 -0.21490398D-16  0.27140721D-16
 -0.56503236D-17  0.10520220D-16  0.10991203D-04 -0.42959543D-04  0.24836020D-17
  0.49935756D-17 -0.74771776D-17 -0.33476435D-18 -0.17506532D-05  0.68424957D-05
  0.84885733D-06 -0.33177917D-05 -0.26375478D-17  0.84885902D-06 -0.33177984D-05
  0.28332414D-17 -0.33954310D-05  0.13271174D-04  0.50794020D-17 -0.63046483D-17
 -0.39876188D-04  0.15585762D-03  0.63787995D-16 -0.39878923D-04  0.15586832D-03
 -0.12201608D-15  0.15950749D-03 -0.62344119D-03 -0.69347906D-16 -0.26758658D-16
 -0.11467904D-16 -0.89765040D-17 -0.68284215D-17 -0.37278910D-17  0.20518996D-04
 -0.98554635D-17 -0.80199290D-04 -0.27359753D-04  0.10693665D-03  0.40847958D-16
  0.27959463D-16  0.13011066D-16 -0.80212091D-04  0.20522271D-04  0.40750063D-16
MO    5     MO 0.0        OCC NO =    2.0000000  ORB. ENERGY =   -7.048548
  0.68771020D-15  0.12870040D-14  0.22236683D-14  0.36129649D-14  0.55109572D-14
  0.77190928D-14  0.93453877D-14  0.89305493D-14 -0.11982156D-15 -0.47158544D-15
  0.55712632D-14  0.12156762D-14 -0.21762084D-15  0.78636341D-15  0.11210266D-14
  0.15260485D-15 -0.64579821D-05 -0.82916884D-05 -0.86725949D-05 -0.79799576D-05
 -0.61707418D-05 -0.16522753D-05 -0.21214293D-05 -0.22188842D-05 -0.20416729D-05
 -0.15787849D-05 -0.25342090D-15 -0.32537828D-15 -0.34032562D-15 -0.31314550D-15
 -0.24214916D-15 -0.10651800D-04 -0.27252641D-05  0.66119890D-15  0.17826411D-05
  0.45608889D-06  0.46835197D-15  0.12195715D-04  0.31202747D-05  0.16709948D-15
  0.21406498D-15  0.15997092D-15 -0.37403590D-15 -0.11399510D-15 -0.86549047D-04
 -0.22143582D-04 -0.26815816D-15 -0.25771460D-15  0.52587277D-15  0.93118638D-17
  0.70293736D-05  0.17984659D-05 -0.52642077D-16 -0.39599128D-16  0.92241206D-16
  0.38852580D-17 -0.69239877D-05 -0.17715029D-05 -0.55635374D-17 -0.66834882D-17
  0.12247026D-16 -0.47057418D-18  0.35062542D-05  0.89707548D-06 -0.77624415D-05
 -0.19860214D-05  0.20541871D-15 -0.77623141D-05 -0.19859888D-05 -0.30683301D-15
  0.31049639D-04  0.79440530D-05 -0.30942311D-15  0.32384168D-16 -0.29755419D-06
 -0.76129269D-07  0.94760458D-16 -0.29761946D-06 -0.76145967D-07 -0.14908426D-15
  0.11902820D-05  0.30453377D-06 -0.13519712D-15 -0.15167040D-16  0.34644754D-16
  0.28875850D-16  0.89782783D-16  0.18033860D-17 -0.64997779D-04  0.16718571D-16
 -0.16629688D-04  0.86663933D-04  0.22172975D-04  0.78786537D-16 -0.28665506D-15
 -0.25204164D-15 -0.16629863D-04 -0.64998462D-04 -0.55565871D-16 -0.11500798D-15
 -0.21523611D-15 -0.37282126D-15 -0.60978482D-15 -0.95122028D-15 -0.14112297D-14
 -0.19573379D-14 -0.24225578D-14 -0.24516439D-14 -0.16922204D-14 -0.17603004D-15
 -0.66600878D-15 -0.12564253D-14 -0.12949658D-14  0.65902571D-15  0.13905717D-14
  0.80235042D-15  0.62616882D-15 -0.66156689D-15 -0.10029757D-14 -0.95559231D-15
 -0.59608290D+01 -0.85695621D+01 -0.11367530D+02 -0.13301563D+02 -0.13110266D+02
 -0.98772065D+01 -0.51583895D+01 -0.14824384D+01 -0.15250787D+01 -0.21925233D+01
 -0.29083835D+01 -0.34032062D+01 -0.33542629D+01 -0.25270842D+01 -0.13197744D+01
 -0.37928201D+00  0.42403956D-11  0.60961878D-11  0.80865971D-11  0.94624236D-11
  0.93263396D-11  0.70264157D-11  0.36695587D-11  0.10545723D-11 -0.24069156D+00
  0.14443474D+00 -0.61580958D-01  0.36953642D-01  0.17032105D-12 -0.10220665D-12
 -0.13565916D+00 -0.34708408D-01  0.95931602D-13 -0.15360064D-02 -0.39298738D-03
  0.22018586D-14  0.19816218D-03  0.50699813D-04  0.24122891D-15 -0.50320907D-04
 -0.12874609D-04  0.43376105D-15 -0.13671492D-05 -0.34978525D-06  0.60452182D-17
  0.13999853D-14  0.15228108D-14 -0.29227961D-14  0.13954160D-15  0.87883280D-02
  0.22484946D-02 -0.28747943D-15 -0.32683103D-15  0.61431046D-15  0.13906646D-15
 -0.15836864D-03 -0.40518631D-04  0.20112755D-15  0.14214268D-15 -0.34327024D-15
 -0.43384883D-17  0.23286729D-03  0.59579118D-04  0.10339011D-15  0.12363084D-15
 -0.22702095D-15  0.12119889D-16 -0.42959543D-04 -0.10991203D-04  0.58405234D-17
  0.55014777D-17 -0.11342001D-16 -0.20084118D-17  0.68424957D-05  0.17506532D-05
 -0.33177917D-05 -0.84885733D-06  0.10375143D-15 -0.33177984D-05 -0.84885902D-06
 -0.14404534D-15  0.13271174D-04  0.33954310D-05 -0.16720897D-15  0.93385480D-18
  0.15585762D-03  0.39876188D-04  0.43032514D-15  0.15586832D-03  0.39878923D-04
 -0.62926846D-15 -0.62344119D-03 -0.15950749D-03 -0.66170696D-15  0.90032846D-17
 -0.66230888D-16 -0.63462350D-16 -0.11707813D-15 -0.30646803D-17 -0.80199290D-04
 -0.13993933D-18 -0.20518996D-04  0.10693665D-03  0.27359753D-04  0.37845338D-16
  0.35953999D-15  0.34292877D-15 -0.20522271D-04 -0.80212091D-04  0.96138588D-17
MO    6     MO 0.0        OCC NO =    2.0000000  ORB. ENERGY =   -6.616350
  0.87749763D-01  0.16421786D+00  0.28373341D+00  0.46100351D+00  0.70318164D+00
  0.98493314D+00  0.11924435D+01  0.11395114D+01 -0.85904160D-02 -0.33809567D-01
  0.67338045D+00  0.19369045D+00  0.91346111D-02 -0.41396636D-02 -0.99990581D-03
  0.90849875D-05 -0.13234744D-16 -0.16992673D-16 -0.17773288D-16 -0.16353824D-16
 -0.12646085D-16 -0.13479061D-16 -0.17306362D-16 -0.18101388D-16 -0.16655719D-16
 -0.12879535D-16  0.27731974D-02  0.35606306D-02  0.37242001D-02  0.34267666D-02
  0.26498502D-02  0.12418029D-16  0.71397179D-17 -0.19007089D-02 -0.25597551D-17
 -0.19042470D-17 -0.11472273D-02 -0.23136551D-19 -0.31027212D-18 -0.22676995D-05
 -0.66739443D-03 -0.66739443D-03  0.13347889D-02  0.82741030D-17  0.73092587D-17
 -0.59151588D-17  0.39128625D-03  0.39128625D-03 -0.78257249D-03 -0.14054494D-17
  0.27398817D-18  0.19662289D-17  0.12915814D-03  0.12915814D-03 -0.25831628D-03
  0.60449890D-19  0.31329966D-18 -0.84419140D-19 -0.24627269D-05 -0.24627269D-05
  0.49254537D-05  0.27211009D-19 -0.34498837D-19 -0.11492971D-18  0.90281676D-18
  0.23599859D-18  0.26078243D-03  0.65126369D-18  0.23320299D-18 -0.39117365D-03
 -0.33597140D-17 -0.94119877D-18 -0.39117365D-03  0.27010837D-17 -0.32780852D-18
 -0.26158921D-18 -0.17208477D-03 -0.26331180D-18 -0.20439534D-18  0.25812716D-03
  0.12467374D-17  0.98916296D-18  0.25812716D-03 -0.11659187D-18 -0.26205415D-04
 -0.26205415D-04 -0.69883012D-04  0.19782213D-18 -0.17360675D-17  0.20199234D-18
 -0.27280631D-17  0.23308599D-17  0.36421483D-17 -0.52416545D-04  0.20964904D-03
  0.20964904D-03 -0.27422555D-17 -0.17843772D-17 -0.11994434D-17  0.11656930D-04
  0.21815812D-04  0.37788262D-04  0.61806316D-04  0.96413389D-04  0.14303884D-03
  0.19839104D-03  0.24554460D-03  0.24849271D-03  0.17151937D-03  0.21966668D-04
  0.83110778D-04  0.15678845D-03  0.72287988D-04  0.52599218D-04 -0.43464452D-03
  0.29013430D-03 -0.84552547D-03  0.61099336D-03  0.28636461D-02  0.40767991D-03
  0.52391586D-13  0.75320556D-13  0.99912766D-13  0.11691159D-12  0.11523022D-12
  0.86813851D-13  0.45338695D-13  0.13029614D-13 -0.11122307D-13 -0.15989940D-13
 -0.21210666D-13 -0.24819377D-13 -0.24462437D-13 -0.18429873D-13 -0.96250354D-14
 -0.27660808D-14  0.42718755D-02  0.61414449D-02  0.81466306D-02  0.95326710D-02
  0.93955767D-02  0.70785786D-02  0.36968009D-02  0.10624013D-02  0.21211603D-14
 -0.12728708D-14 -0.43964366D-15  0.26382238D-15  0.37043601D-03 -0.22229209D-03
  0.11920164D-14 -0.25158459D-15  0.40129576D-03  0.13238883D-16 -0.19742177D-17
 -0.14038236D-03 -0.19590353D-17 -0.27824834D-18 -0.19495268D-02  0.67057075D-18
  0.97815425D-18 -0.54778952D-03  0.30747703D-20  0.17555530D-18 -0.72439021D-05
 -0.25271936D-03 -0.25271936D-03  0.50543871D-03  0.93667211D-17 -0.88823456D-16
  0.12262368D-16  0.17934188D-03  0.17934188D-03 -0.35868377D-03  0.19144657D-17
 -0.87558352D-17 -0.63436428D-17 -0.26908395D-03 -0.26908395D-03  0.53816790D-03
  0.43744199D-18  0.54792998D-18  0.11764069D-17 -0.19402131D-03 -0.19402131D-03
  0.38804262D-03  0.50389215D-18  0.14796679D-17  0.11124292D-17 -0.16497536D-04
 -0.16497536D-04  0.32995071D-04 -0.49934965D-19 -0.29528451D-18 -0.43025564D-18
  0.40753181D-18  0.31062502D-18 -0.99438741D-04  0.41764312D-18  0.34023992D-18
  0.14915811D-03 -0.16402385D-17 -0.12721150D-17  0.14915811D-03 -0.15837629D-19
 -0.20707757D-17 -0.53026566D-18 -0.19214517D-03 -0.20400396D-17 -0.56443247D-18
  0.28821775D-03  0.82523667D-17  0.21552294D-17  0.28821775D-03 -0.40765482D-17
  0.76472702D-05  0.76472702D-05  0.20392747D-04 -0.10286365D-18 -0.20727439D-17
 -0.10131613D-18 -0.34096133D-17  0.27769860D-17  0.45413283D-17  0.15294620D-04
 -0.61178241D-04 -0.61178241D-04 -0.33951450D-17 -0.21127262D-17  0.61253933D-18
MO    7     MO 0.0        OCC NO =    2.0000000  ORB. ENERGY =   -0.817035
 -0.51365203D-02 -0.96126572D-02 -0.16608620D-01 -0.26985303D-01 -0.41161442D-01
 -0.57654049D-01 -0.69800876D-01 -0.66702440D-01 -0.40515148D-02 -0.15945673D-01
 -0.62723141D-01 -0.28263920D-01  0.30783795D-01  0.13889505D-01 -0.17203462D-03
 -0.31756140D-04  0.32800734D-16  0.42114311D-16  0.44048973D-16  0.40530999D-16
  0.31341812D-16  0.73852880D-16  0.94822975D-16  0.99178986D-16  0.91258050D-16
  0.70568027D-16  0.44752616D-01  0.57459861D-01  0.60099472D-01  0.55299624D-01
  0.42762095D-01 -0.84025610D-17  0.32314022D-16  0.15071135D-01  0.68968557D-18
  0.96077119D-17  0.50944501D-03 -0.30870118D-17 -0.76986759D-17 -0.11385270D-03
 -0.66400821D-02 -0.66400821D-02  0.13280164D-01  0.48949224D-16  0.96591891D-16
  0.34270350D-16 -0.21052921D-02 -0.21052921D-02  0.42105842D-02 -0.23889367D-16
  0.44568505D-17  0.78984517D-17 -0.54634422D-04 -0.54634422D-04  0.10926884D-03
  0.43903093D-17 -0.77387695D-18  0.38914758D-18  0.86549295D-05  0.86549295D-05
 -0.17309859D-04 -0.13236187D-18 -0.11409330D-17 -0.27255993D-17  0.36972820D-17
 -0.41401520D-17  0.30412351D-02  0.38211490D-17 -0.43330499D-17 -0.45618526D-02