 Molden2AIM, Version 4.0.0 (06/02/2016)           Time: Thu Jun 28 23:38:55 2018
GAUSSIAN              7 MOL ORBITALS    150 PRIMITIVES        2 NUCLEI
  F    1    (CENTRE  1)   0.00000000  0.00000000  0.00362260  CHARGE =  9.0
  B    2    (CENTRE  2)   0.00000000  0.00000000  2.39160526  CHARGE =  5.0
CENTRE ASSIGNMENTS    1  1  1  1  1  1  1  1  1  1  1  1  1  1  1  1  1  1  1  1
CENTRE ASSIGNMENTS    1  1  1  1  1  1  1  1  1  1  1  1  1  1  1  1  1  1  1  1
CENTRE ASSIGNMENTS    1  1  1  1  1  1  1  1  1  1  1  1  1  1  1  1  1  1  1  1
CENTRE ASSIGNMENTS    1  1  1  1  1  1  1  1  1  1  1  1  1  1  1  2  2  2  2  2
CENTRE ASSIGNMENTS    2  2  2  2  2  2  2  2  2  2  2  2  2  2  2  2  2  2  2  2
CENTRE ASSIGNMENTS    2  2  2  2  2  2  2  2  2  2  2  2  2  2  2  2  2  2  2  2
CENTRE ASSIGNMENTS    2  2  2  2  2  2  2  2  2  2  2  2  2  2  2  2  2  2  2  2
CENTRE ASSIGNMENTS    2  2  2  2  2  2  2  2  2  2
TYPE ASSIGNMENTS      1  1  1  1  1  1  1  1  1  1  1  1  1  1  1  1  1  1  1  2
TYPE ASSIGNMENTS      2  2  3  3  3  4  4  4  2  3  4  2  3  4  2  3  4  5  6  7
TYPE ASSIGNMENTS      8  9 10  5  6  7  8  9 10  5  6  7  8  9 10 11 12 13 17 14
TYPE ASSIGNMENTS     15 18 19 16 20 11 12 13 17 14 15 18 19 16 20  1  1  1  1  1
TYPE ASSIGNMENTS      1  1  1  1  1  1  1  1  1  1  1  1  1  1  2  2  2  3  3  3
TYPE ASSIGNMENTS      4  4  4  2  3  4  2  3  4  2  3  4  5  6  7  8  9 10  5  6
TYPE ASSIGNMENTS      7  8  9 10  5  6  7  8  9 10 11 12 13 17 14 15 18 19 16 20
TYPE ASSIGNMENTS     11 12 13 17 14 15 18 19 16 20
EXPONENTS  0.1950000D+05 0.2923000D+04 0.6645000D+03 0.1875000D+03 0.6062000D+02
EXPONENTS  0.2142000D+02 0.7950000D+01 0.8815000D+00 0.1950000D+05 0.2923000D+04
EXPONENTS  0.6645000D+03 0.1875000D+03 0.6062000D+02 0.2142000D+02 0.7950000D+01
EXPONENTS  0.8815000D+00 0.2257000D+01 0.3041000D+00 0.9158000D-01 0.4388000D+02
EXPONENTS  0.9926000D+01 0.2930000D+01 0.4388000D+02 0.9926000D+01 0.2930000D+01
EXPONENTS  0.4388000D+02 0.9926000D+01 0.2930000D+01 0.9132000D+00 0.9132000D+00
EXPONENTS  0.9132000D+00 0.2672000D+00 0.2672000D+00 0.2672000D+00 0.7361000D-01
EXPONENTS  0.7361000D-01 0.7361000D-01 0.3107000D+01 0.3107000D+01 0.3107000D+01
EXPONENTS  0.3107000D+01 0.3107000D+01 0.3107000D+01 0.8550000D+00 0.8550000D+00
EXPONENTS  0.8550000D+00 0.8550000D+00 0.8550000D+00 0.8550000D+00 0.2920000D+00
EXPONENTS  0.2920000D+00 0.2920000D+00 0.2920000D+00 0.2920000D+00 0.2920000D+00
EXPONENTS  0.1917000D+01 0.1917000D+01 0.1917000D+01 0.1917000D+01 0.1917000D+01
EXPONENTS  0.1917000D+01 0.1917000D+01 0.1917000D+01 0.1917000D+01 0.1917000D+01
EXPONENTS  0.7240000D+00 0.7240000D+00 0.7240000D+00 0.7240000D+00 0.7240000D+00
EXPONENTS  0.7240000D+00 0.7240000D+00 0.7240000D+00 0.7240000D+00 0.7240000D+00
EXPONENTS  0.5473000D+04 0.8209000D+03 0.1868000D+03 0.5283000D+02 0.1708000D+02
EXPONENTS  0.5999000D+01 0.2208000D+01 0.2415000D+00 0.5473000D+04 0.8209000D+03
EXPONENTS  0.1868000D+03 0.5283000D+02 0.1708000D+02 0.5999000D+01 0.2208000D+01
EXPONENTS  0.2415000D+00 0.5879000D+00 0.8610000D-01 0.2914000D-01 0.1205000D+02
EXPONENTS  0.2613000D+01 0.7475000D+00 0.1205000D+02 0.2613000D+01 0.7475000D+00
EXPONENTS  0.1205000D+02 0.2613000D+01 0.7475000D+00 0.2385000D+00 0.2385000D+00
EXPONENTS  0.2385000D+00 0.7698000D-01 0.7698000D-01 0.7698000D-01 0.2096000D-01
EXPONENTS  0.2096000D-01 0.2096000D-01 0.6610000D+00 0.6610000D+00 0.6610000D+00
EXPONENTS  0.6610000D+00 0.6610000D+00 0.6610000D+00 0.1990000D+00 0.1990000D+00
EXPONENTS  0.1990000D+00 0.1990000D+00 0.1990000D+00 0.1990000D+00 0.6040000D-01
EXPONENTS  0.6040000D-01 0.6040000D-01 0.6040000D-01 0.6040000D-01 0.6040000D-01
EXPONENTS  0.4900000D+00 0.4900000D+00 0.4900000D+00 0.4900000D+00 0.4900000D+00
EXPONENTS  0.4900000D+00 0.4900000D+00 0.4900000D+00 0.4900000D+00 0.4900000D+00
EXPONENTS  0.1630000D+00 0.1630000D+00 0.1630000D+00 0.1630000D+00 0.1630000D+00
EXPONENTS  0.1630000D+00 0.1630000D+00 0.1630000D+00 0.1630000D+00 0.1630000D+00
MO    1     MO 0.0        OCC NO =    2.0000000  ORB. ENERGY =  -24.354300
  0.59289992D+00  0.11051911D+01  0.18735707D+01  0.28371382D+01  0.35478512D+01
  0.30543694D+01  0.11742111D+01 -0.50880490D-02  0.90506364D-03  0.16995492D-02
  0.28940392D-02  0.45334953D-02  0.60754171D-02  0.65349302D-02  0.39235635D-02
 -0.25803005D-02  0.67356749D-01 -0.36727467D-03 -0.96669223D-03 -0.79803211D-17
 -0.78045797D-17 -0.51568158D-17  0.11906281D-17  0.11644083D-17  0.76937381D-18
  0.58614180D-02  0.57323387D-02  0.37875986D-02  0.14504365D-17 -0.32589402D-18
 -0.10811068D-02 -0.37548781D-18  0.70560857D-18 -0.68858371D-03 -0.47903891D-19
 -0.23443394D-19 -0.69324071D-04 -0.96553354D-03 -0.96553354D-03  0.19310671D-02
 -0.45931828D-17  0.59607447D-17 -0.36157680D-17  0.35218262D-03  0.35218262D-03
 -0.70436525D-03  0.18754492D-18  0.12844132D-18  0.33623497D-18  0.36714932D-04
  0.36714932D-04 -0.73429865D-04 -0.42040523D-19 -0.38628441D-18  0.27187392D-18
 -0.53198227D-18 -0.36314641D-18  0.90476589D-04 -0.40126406D-19 -0.14879599D-17
 -0.13571488D-03  0.16360732D-17  0.25773992D-17 -0.13571488D-03 -0.47554788D-17
  0.14052349D-18  0.80373342D-19 -0.17182790D-03 -0.14169361D-19 -0.34324155D-18
  0.25774184D-03 -0.40740109D-18  0.10212153D-18  0.25774184D-03  0.32014304D-18
  0.28712695D-03  0.53504226D-03  0.90169420D-03  0.13453203D-02  0.16295585D-02
  0.13559141D-02  0.50359353D-03 -0.26734722D-05 -0.21919734D-03 -0.40943559D-03
 -0.69686143D-03 -0.10657727D-02 -0.13861006D-02 -0.14030480D-02 -0.92383595D-03
  0.63149285D-03  0.15166226D-03  0.82222089D-03  0.15630726D-04 -0.86636021D-19
 -0.78081179D-19 -0.56691999D-19  0.81845047D-19  0.73763288D-19  0.53556930D-19
 -0.59915766D-03 -0.53999406D-03 -0.39207070D-03  0.20813483D-18 -0.35841649D-18
 -0.80762838D-03  0.29646656D-19 -0.16411207D-19 -0.17575204D-03 -0.20353346D-20
  0.21328229D-20  0.92382643D-06 -0.31704531D-03 -0.31704531D-03  0.63409062D-03
 -0.89455152D-19 -0.19952116D-18  0.12647471D-18 -0.71962392D-04 -0.71962392D-04
  0.14392478D-03  0.20077452D-19 -0.19752205D-18  0.21132836D-18 -0.26849819D-05
 -0.26849819D-05  0.53699638D-05 -0.11818454D-20 -0.20688758D-20 -0.22133363D-20
 -0.28359898D-19  0.54443248D-19 -0.86733462D-04 -0.12839337D-19  0.47816188D-19
  0.13010019D-03  0.97919030D-19 -0.21114593D-18  0.13010019D-03  0.11252045D-18
 -0.60112458D-20  0.56767301D-20 -0.86266775D-05 -0.63416412D-20  0.85533929D-20
  0.12940016D-04  0.24375379D-19 -0.25583583D-19  0.12940016D-04  0.74170776D-20
MO    2     MO 0.0        OCC NO =    2.0000000  ORB. ENERGY =   -6.615527
  0.16640440D-02  0.31018500D-02  0.52583984D-02  0.79627649D-02  0.99574655D-02
  0.85724502D-02  0.32955628D-02 -0.14280213D-04 -0.13694754D-02 -0.25716323D-02
 -0.43790462D-02 -0.68597500D-02 -0.91928720D-02 -0.98881733D-02 -0.59368463D-02
  0.39043199D-02  0.70318584D-03 -0.12370737D-01 -0.76980737D-02  0.24998369D-15
  0.24447859D-15  0.16153734D-15 -0.70205120D-15 -0.68659074D-15 -0.45365953D-15
  0.50768854D-02  0.49650830D-02  0.32806403D-02 -0.76138229D-16  0.12426116D-15
 -0.24177205D-02 -0.41947268D-16 -0.79738902D-16 -0.88130286D-02 -0.57607097D-17
 -0.67177581D-17 -0.75105876D-03 -0.23647696D-02 -0.23647696D-02  0.47295393D-02
  0.76974413D-15 -0.37868857D-15 -0.76906924D-15  0.16055647D-02  0.16055647D-02
 -0.32111294D-02 -0.66838734D-16  0.11564565D-15  0.47249809D-17  0.82433447D-03
  0.82433447D-03 -0.16486689D-02 -0.22987641D-17 -0.47842852D-16 -0.79975058D-16
 -0.30796349D-17  0.98454926D-16  0.21189833D-02 -0.13685858D-15  0.15505643D-15
 -0.31784749D-02  0.14609749D-15 -0.45042121D-15 -0.31784749D-02 -0.10969258D-15
  0.34178193D-18  0.16473868D-16 -0.11746330D-02  0.41681676D-16 -0.16502423D-16
  0.17619495D-02 -0.42707022D-16 -0.32919180D-16  0.17619495D-02  0.94820017D-17
  0.25294239D+00  0.47134157D+00  0.79434092D+00  0.11851501D+01  0.14355476D+01
  0.11944826D+01  0.44363704D+00 -0.23551758D-02 -0.23847899D-02 -0.44545152D-02
 -0.75816072D-02 -0.11595232D-01 -0.15080287D-01 -0.15264669D-01 -0.10051010D-01
  0.68704200D-02  0.28001080D-01  0.72792435D-02  0.23921267D-05 -0.27484357D-16
 -0.24770425D-16 -0.17984935D-16 -0.55729553D-16 -0.50226558D-16 -0.36467739D-16
 -0.75504786D-02 -0.68049094D-02 -0.49408055D-02  0.24824357D-16  0.80142487D-16
 -0.80816386D-02  0.36333488D-17  0.69566487D-17 -0.12313928D-02  0.23272089D-19
  0.40081648D-18  0.12895588D-04 -0.23255359D-02 -0.23255359D-02  0.46510719D-02
  0.36668509D-17  0.17941511D-16 -0.12825230D-16 -0.54882864D-03 -0.54882864D-03
  0.10976573D-02  0.76577548D-17 -0.22317926D-16 -0.54807834D-16 -0.10949984D-04
 -0.10949984D-04  0.21899968D-04 -0.55236534D-19 -0.18714044D-18  0.14411058D-17
 -0.18592883D-17 -0.11975265D-16 -0.81140833D-03 -0.59270053D-17 -0.11611034D-16
  0.12171125D-02  0.11504870D-16  0.47536829D-16  0.12171125D-02 -0.14294556D-16
 -0.75951193D-18 -0.12500393D-17 -0.16718367D-04 -0.79932664D-18 -0.11002875D-17
  0.25077550D-04  0.30778624D-17  0.48504056D-17  0.25077550D-04 -0.10757472D-17
MO    3     MO 0.0        OCC NO =    2.0000000  ORB. ENERGY =   -1.201752
 -0.75000493D-02 -0.13980417D-01 -0.23700244D-01 -0.35889154D-01 -0.44879513D-01
 -0.38637080D-01 -0.14853504D-01  0.64362664D-04 -0.12554239D+00 -0.23574637D+00
 -0.40143542D+00 -0.62884621D+00 -0.84272790D+00 -0.90646748D+00 -0.54424188D+00
  0.35791636D+00  0.21422761D+00  0.80950565D-01 -0.35778774D-02  0.14192447D-15
  0.13879903D-15  0.91710391D-16 -0.14251698D-15 -0.13937849D-15 -0.92093264D-16
  0.38362538D+00  0.37517724D+00  0.24789547D+00  0.44864369D-16 -0.43350535D-16
  0.84314165D-01  0.11111232D-16  0.80429276D-17  0.20595642D-02  0.18554767D-17
  0.15709902D-17 -0.66225578D-03 -0.13807611D-01 -0.13807611D-01  0.27615222D-01
  0.41652691D-16  0.15310517D-15 -0.26871031D-16 -0.52907513D-02 -0.52907513D-02
  0.10581503D-01  0.12416890D-16 -0.17398037D-16  0.16920991D-16 -0.17954119D-03
 -0.17954119D-03  0.35908238D-03 -0.14888287D-17  0.10873953D-16 -0.49086904D-17
  0.70445455D-18  0.29800203D-17  0.74882973D-02 -0.72039318D-17 -0.19312424D-18
 -0.11232446D-01  0.50905681D-17 -0.87469366D-17 -0.11232446D-01 -0.77888817D-16
 -0.60791943D-19 -0.22430577D-18  0.20070104D-02 -0.25660916D-18 -0.45516007D-17
 -0.30105156D-02  0.43898499D-18  0.52245180D-17 -0.30105156D-02  0.96500730D-17
 -0.80553279D-02 -0.15010576D-01 -0.25296972D-01 -0.37742875D-01 -0.45717157D-01
 -0.38040081D-01 -0.14128284D-01  0.75004088D-04 -0.89410056D-02 -0.16700777D-01
 -0.28424807D-01 -0.43472605D-01 -0.56538702D-01 -0.57229983D-01 -0.37683041D-01
  0.25758438D-01  0.11552319D-01  0.38911467D-02  0.13985624D-03 -0.19108841D-17
 -0.17221945D-17 -0.12504249D-17 -0.46372753D-17 -0.41793693D-17 -0.30344931D-17
 -0.10078102D+00 -0.90829437D-01 -0.65948061D-01 -0.76088490D-17 -0.35502903D-17
 -0.16200975D-01 -0.28508401D-17 -0.14096848D-17 -0.63271603D-03 -0.12980010D-18
 -0.95618893D-19  0.10835134D-04 -0.10402351D-01 -0.10402351D-01  0.20804703D-01
  0.21701023D-17  0.44545125D-18  0.67179638D-17 -0.10339604D-02 -0.10339604D-02
  0.20679208D-02  0.19362946D-17  0.34909593D-17  0.38811944D-18  0.13602497D-04
  0.13602497D-04 -0.27204994D-04 -0.71495002D-19  0.57757584D-18  0.46583771D-18
  0.95419037D-18  0.41125664D-18 -0.31562682D-02  0.13458385D-17  0.18760006D-18
  0.47344022D-02 -0.42084096D-17 -0.14213700D-17  0.47344022D-02  0.26577441D-17
  0.15291160D-18 -0.51935569D-19 -0.53388199D-04  0.11534792D-18 -0.47427232D-19
  0.80082299D-04 -0.57408271D-18  0.20323394D-18  0.80082299D-04 -0.12473383D-17
MO    4     MO 0.0        OCC NO =    2.0000000  ORB. ENERGY =   -0.560634
 -0.14945564D-02 -0.27859179D-02 -0.47228158D-02 -0.71517350D-02 -0.89432697D-02
 -0.76993222D-02 -0.29599005D-02  0.12825734D-04 -0.35862697D-01 -0.67343793D-01
 -0.11467487D+00 -0.17963750D+00 -0.24073538D+00 -0.25894336D+00 -0.15546925D+00
  0.10224312D+00  0.67268694D-01  0.76988841D-01  0.13944951D-01 -0.16069001D-14
 -0.15715132D-14 -0.10383652D-14  0.82526247D-15  0.80708867D-15  0.53327761D-15
 -0.23572798D+01 -0.23053681D+01 -0.15232542D+01 -0.27016610D-15  0.17859210D-15
 -0.50644508D+00 -0.74652102D-16  0.32767707D-16 -0.55330210D-01 -0.57606294D-17
 -0.26817300D-17 -0.24328262D-03  0.33313115D-01  0.33313115D-01 -0.66626231D-01
 -0.44323784D-16 -0.11666384D-15  0.14274811D-15  0.93486216D-02  0.93486216D-02
 -0.18697243D-01  0.46827932D-16  0.15358534D-16 -0.11539462D-16  0.43392404D-03
  0.43392404D-03 -0.86784809D-03  0.44367422D-18 -0.85311879D-17  0.20402333D-16
  0.14312359D-17  0.55709118D-17 -0.13551941D-01  0.72667945D-17 -0.60617668D-16
  0.20327912D-01 -0.11560502D-16  0.43904932D-16  0.20327912D-01 -0.74059223D-16
  0.91349549D-19  0.86348211D-18 -0.21795882D-02  0.54172976D-19 -0.43479043D-17
  0.32693823D-02 -0.32822162D-18  0.17574580D-17  0.32693823D-02 -0.59723529D-17
  0.73925334D-02  0.13775502D-01  0.23215531D-01  0.34637381D-01  0.41955538D-01
  0.34910133D-01  0.12965805D-01 -0.68832732D-04  0.20788900D-01  0.38831289D-01
  0.66091050D-01  0.10107897D+00  0.13145919D+00  0.13306650D+00  0.87617545D-01
 -0.59891426D-01 -0.28995469D-01 -0.13405083D-01 -0.11215923D-03 -0.10901721D-15
 -0.98252345D-16 -0.71337574D-16  0.20543750D-16  0.18515165D-16  0.13443211D-16
  0.16570236D+00  0.14934014D+00  0.10843063D+00 -0.28771842D-16 -0.31827982D-17
  0.30877831D-01  0.13006963D-19  0.39500595D-17  0.21879483D-02  0.43862012D-18
  0.13721343D-18 -0.90228761D-05  0.10776687D-01  0.10776687D-01 -0.21553373D-01
  0.17803845D-17  0.28330418D-16 -0.11071388D-16  0.17233673D-02  0.17233673D-02
 -0.34467345D-02  0.44877803D-17  0.39000627D-17  0.50372911D-17  0.16151615D-04
  0.16151615D-04 -0.32303230D-04 -0.27931482D-18  0.17193011D-18 -0.12713458D-17
  0.11363788D-17  0.63447468D-18  0.27826643D-02  0.93927359D-18 -0.73161074D-18
 -0.41739964D-02 -0.43484099D-17 -0.11718133D-17 -0.41739964D-02  0.25648230D-17
 -0.27426849D-18  0.39593495D-18  0.24366419D-03 -0.32202829D-18  0.57814249D-18
 -0.36549629D-03  0.11448338D-17 -0.17659473D-17 -0.36549629D-03 -0.18407600D-17
MO    5     MO 0.0        OCC NO =    2.0000000  ORB. ENERGY =   -0.475671
 -0.21234517D-17 -0.39582060D-17 -0.67101323D-17 -0.10161118D-16 -0.12706514D-16
 -0.10939125D-16 -0.42053989D-17  0.18222682D-19  0.24306487D-17  0.45643277D-17
  0.77722630D-17  0.12175204D-16  0.16316206D-16  0.17550279D-16  0.10537165D-16
 -0.69296827D-17  0.27893626D-17  0.32798579D-16  0.19034407D-15  0.27440946D+00
  0.26836645D+00  0.17732106D+00 -0.25174943D+01 -0.24620544D+01 -0.16267835D+01
 -0.10473696D-14 -0.10243046D-14 -0.67680133D-15  0.60141068D-01 -0.55174773D+00
 -0.23575383D-15  0.96480827D-02 -0.88513689D-01  0.37382509D-16  0.26452103D-03
 -0.24267756D-02  0.10436280D-16  0.49313741D-16 -0.99575072D-16  0.50261330D-16
 -0.22211185D-15  0.87751722D-02 -0.80505411D-01 -0.32660206D-16 -0.16957588D-16
  0.49617794D-16  0.63477443D-16  0.39909097D-02 -0.36613507D-01 -0.40122290D-17
  0.49843717D-17 -0.97214274D-18 -0.15639921D-16  0.77050694D-03 -0.70688047D-02
 -0.71996360D-03  0.66051086D-02 -0.45880814D-16 -0.71995293D-03  0.66050107D-02
  0.14083529D-15  0.28798437D-02 -0.26420336D-01 -0.31928452D-17  0.53113724D-16
 -0.26710801D-03  0.24505092D-02  0.26949465D-16 -0.26710908D-03  0.24505190D-02
 -0.28063457D-16  0.10684331D-02 -0.98020465D-02 -0.52784939D-16 -0.11463784D-16
 -0.35358312D-17 -0.65887899D-17 -0.11103933D-16 -0.16566977D-16 -0.20067234D-16
 -0.16697434D-16 -0.62015138D-17  0.32922533D-19 -0.31107258D-17 -0.58104803D-17
 -0.98894668D-17 -0.15124848D-16 -0.19670762D-16 -0.19911270D-16 -0.13110562D-16
  0.89617925D-17 -0.13942142D-16 -0.11051887D-15 -0.22698270D-16  0.14311460D-01
  0.12898280D-01  0.93649878D-02 -0.13129656D+00 -0.11833173D+00 -0.85916512D-01
  0.10719912D-15  0.96613784D-16  0.70147872D-16  0.20596362D-02 -0.18895568D-01
  0.57783340D-16 -0.33692788D-05  0.30910524D-04  0.36744132D-16 -0.18375229D-05
  0.16857850D-04 -0.39822876D-19  0.24196330D-16  0.22593734D-16 -0.46790064D-16
  0.74665095D-16 -0.40091866D-02  0.36781183D-01  0.13886070D-16  0.44084525D-17
 -0.18294522D-16 -0.64171153D-17  0.11252610D-03 -0.10323399D-02  0.10240937D-17
 -0.11515972D-18 -0.90893401D-18  0.10473462D-17  0.11402432D-04 -0.10460848D-03
 -0.17186161D-03  0.15766972D-02  0.15782659D-16 -0.17186231D-03  0.15767037D-02
 -0.19729812D-16  0.68744715D-03 -0.63067953D-02 -0.27618166D-16 -0.13170936D-16
  0.20631144D-04 -0.18927477D-03 -0.21128160D-17  0.20631173D-04 -0.18927504D-03
 -0.29381575D-17 -0.82524605D-04  0.75709936D-03  0.92766056D-17 -0.29029796D-17
MO    6     MO 0.0        OCC NO =    2.0000000  ORB. ENERGY =   -0.475671
  0.12889535D-16  0.24026652D-16  0.40731082D-16  0.61678862D-16  0.77129634D-16
  0.66401430D-16  0.25527134D-16 -0.11061325D-18 -0.26448949D-16 -0.49666441D-16
 -0.84573384D-16 -0.13248371D-15 -0.17754375D-15 -0.19097224D-15 -0.11465948D-15
  0.75404901D-16  0.23291761D-16 -0.73571781D-16 -0.68388651D-16  0.25174943D+01
  0.24620544D+01  0.16267835D+01  0.27440946D+00  0.26836645D+00  0.17732106D+00
 -0.10117310D-14 -0.98945079D-15 -0.65377197D-15  0.55174773D+00  0.60141068D-01
 -0.25665774D-15  0.88513689D-01  0.96480827D-02  0.16837646D-16  0.24267756D-02
  0.26452103D-03 -0.51348309D-17  0.19964376D-15  0.46742953D-16 -0.24638671D-15
  0.14263790D-15  0.80505411D-01  0.87751722D-02 -0.28146375D-16  0.69716731D-17
  0.21174702D-16 -0.24328003D-16  0.36613507D-01  0.39909097D-02 -0.16185428D-17
 -0.97972794D-17  0.11415822D-16  0.17636850D-16  0.70688047D-02  0.77050694D-03
 -0.66051086D-02 -0.71996360D-03  0.60940935D-17 -0.66050107D-02 -0.71995293D-03
 -0.33253749D-16  0.26420336D-01  0.28798437D-02  0.14971468D-16 -0.18734634D-15
 -0.24505092D-02 -0.26710801D-03  0.19533047D-16 -0.24505190D-02 -0.26710908D-03
  0.13288862D-16  0.98020465D-02  0.10684331D-02 -0.71888004D-16  0.19675459D-16
 -0.52756321D-17 -0.98307950D-17 -0.16567609D-16 -0.24718736D-16 -0.29941289D-16
 -0.24913384D-16 -0.92529602D-17  0.49122020D-19  0.29131147D-16  0.54413654D-16
  0.92612312D-16  0.14164031D-15  0.18421163D-15  0.18646393D-15  0.12277704D-15
 -0.83924881D-16 -0.49605695D-16  0.57424753D-16  0.95980401D-17  0.13129656D+00
  0.11833173D+00  0.85916512D-01  0.14311460D-01  0.12898280D-01  0.93649878D-02
  0.49231735D-16  0.44370365D-16  0.32215762D-16  0.18895568D-01  0.20596362D-02
 -0.27488833D-17 -0.30910524D-04 -0.33692788D-05 -0.48479164D-16 -0.16857850D-04
 -0.18375229D-05  0.20894210D-17  0.23165380D-16  0.18525590D-16 -0.41690971D-16
 -0.95474848D-18 -0.36781183D-01 -0.40091866D-02 -0.15751497D-16 -0.16166715D-17
  0.17368169D-16  0.22667556D-17  0.10323399D-02  0.11252610D-03 -0.17250264D-17
 -0.76244049D-18  0.24874669D-17 -0.53610518D-18  0.10460848D-03  0.11402432D-04
 -0.15766972D-02 -0.17186161D-03  0.11576646D-17 -0.15767037D-02 -0.17186231D-03
  0.36321782D-17  0.63067953D-02  0.68744715D-03 -0.71051720D-17 -0.63726942D-17
  0.18927477D-03  0.20631144D-04 -0.26187443D-17  0.18927504D-03  0.20631173D-04
  0.22928349D-17 -0.75709936D-03 -0.82524605D-04  0.55633980D-17  0.18757340D-16
MO    7     MO 0.0        OCC NO =    2.0000000  ORB. ENERGY =   -0.249471
 -0.44732227D-02 -0.83382809D-02 -0.14135436D-01 -0.21405216D-01 -0.26767298D-01
 -0.23044150D-01 -0.88590127D-02  0.38387552D-04  0.18249158D-01  0.34268687D-01
  0.58353664D-01  0.91410669D-01  0.12250105D+00  0.13176640D+00  0.79112371D-01
 -0.52027624D-01 -0.33391936D-01 -0.46141709D-02  0.72699745D-02  0.89235847D-15
  0.87270710D-15  0.57663448D-15  0.36032418D-15  0.35238918D-15  0.23283843D-15
 -0.68687799D+00 -0.67175168D+00 -0.44385473D+00  0.22048155D-15  0.96267207D-16
 -0.15059233D+00  0.33907202D-16  0.30797578D-16 -0.10222860D-01 -0.22596668D-18
  0.72917209D-17 -0.32448800D-03  0.70987449D-02  0.70987449D-02 -0.14197490D-01
  0.13117256D-15  0.11273655D-15  0.30145697D-16 -0.82569384D-04 -0.82569384D-04
  0.16513877D-03 -0.13888138D-16  0.84110163D-17 -0.65224957D-17 -0.95578469D-03
 -0.95578469D-03  0.19115694D-02 -0.74615642D-18  0.89994249D-18  0.21747920D-16
 -0.79271935D-17 -0.79540566D-17 -0.61824093D-02 -0.52737573D-17 -0.11082792D-16
  0.92736140D-02  0.29055338D-16  0.34944962D-16  0.92736140D-02 -0.17571199D-16
  0.63740815D-18 -0.18006639D-17  0.69609503D-03 -0.25941830D-18 -0.95542853D-17
 -0.10441425D-02 -0.16528062D-17  0.14956277D-16 -0.10441425D-02 -0.45049944D-18
 -0.45284323D-02 -0.84384370D-02 -0.14221100D-01 -0.21217765D-01 -0.25700636D-01
 -0.21384844D-01 -0.79424423D-02  0.42164756D-04 -0.37523204D-01 -0.70089059D-01
 -0.11929193D+00 -0.18244384D+00 -0.23727904D+00 -0.24018018D+00 -0.15814647D+00
  0.10810184D+00  0.43557902D-01  0.44982838D-01  0.23053053D-02  0.20928794D-16
  0.18862188D-16  0.13695172D-16  0.49848679D-16  0.44926389D-16  0.32619472D-16
  0.23750181D+00  0.21404978D+00  0.15541402D+00  0.47299325D-18 -0.14091971D-16
  0.56171272D-01 -0.36754764D-17 -0.20512806D-17  0.53750444D-02  0.56051414D-20
 -0.44893848D-18  0.13083155D-04  0.12036605D-01  0.12036605D-01 -0.24073210D-01
  0.26119872D-17 -0.15113527D-16  0.20386110D-17  0.19525057D-02  0.19525057D-02
 -0.39050114D-02 -0.15444020D-17 -0.35184690D-18  0.14838742D-16  0.35565192D-04
  0.35565192D-04 -0.71130385D-04  0.51449021D-18  0.74589767D-18 -0.51412208D-18
 -0.54614687D-18  0.14405476D-17  0.17539388D-02 -0.23028571D-18  0.15232900D-17
 -0.26309082D-02  0.18687263D-17 -0.58449327D-17 -0.26309082D-02  0.47407544D-17
  0.24255179D-18  0.56972426D-18 -0.22500000D-04  0.27177859D-18  0.53956016D-18
  0.33750001D-04 -0.99943397D-18 -0.22487329D-17  0.33750001D-04 -0.18113542D-17
END DATA
RHF
