 Molden2AIM, Version 4.0.0 (06/02/2016)           Time: Tue Jun 26 17:52:27 2018
GAUSSIAN              3 MOL ORBITALS    140 PRIMITIVES        2 NUCLEI
  B    1    (CENTRE  1)   0.00000000  0.00000000  2.65025774  CHARGE =  5.0
  H    2    (CENTRE  2)   0.00000000  0.00000000  0.30508494  CHARGE =  1.0
CENTRE ASSIGNMENTS    1  1  1  1  1  1  1  1  1  1  1  1  1  1  1  1  1  1  1  1
CENTRE ASSIGNMENTS    1  1  1  1  1  1  1  1  1  1  1  1  1  1  1  1  1  1  1  1
CENTRE ASSIGNMENTS    1  1  1  1  1  1  1  1  1  1  1  1  1  1  1  1  1  1  1  1
CENTRE ASSIGNMENTS    1  1  1  1  1  1  1  1  1  1  1  1  1  1  1  1  1  1  1  1
CENTRE ASSIGNMENTS    1  1  1  1  1  1  1  1  1  1  1  1  1  1  1  1  1  1  1  2
CENTRE ASSIGNMENTS    2  2  2  2  2  2  2  2  2  2  2  2  2  2  2  2  2  2  2  2
CENTRE ASSIGNMENTS    2  2  2  2  2  2  2  2  2  2  2  2  2  2  2  2  2  2  2  2
TYPE ASSIGNMENTS      1  1  1  1  1  1  1  1  1  1  1  1  1  1  1  1  2  2  2  2
TYPE ASSIGNMENTS      2  3  3  3  3  3  4  4  4  4  4  2  3  4  2  3  4  2  3  4
TYPE ASSIGNMENTS      5  6  7  8  9 10  5  6  7  8  9 10  5  6  7  8  9 10  5  6
TYPE ASSIGNMENTS      7  8  9 10 11 12 13 17 14 15 18 19 16 20 11 12 13 17 14 15
TYPE ASSIGNMENTS     18 19 16 20 21 22 23 24 25 26 27 28 29 30 31 32 33 34 35  1
TYPE ASSIGNMENTS      1  1  1  1  1  1  2  3  4  2  3  4  2  3  4  2  3  4  5  6
TYPE ASSIGNMENTS      7  8  9 10  5  6  7  8  9 10 11 12 13 17 14 15 18 19 16 20
EXPONENTS  0.4644767D+05 0.6957689D+04 0.1583443D+04 0.4484660D+03 0.1462864D+03
EXPONENTS  0.5278439D+02 0.2051940D+02 0.8418566D+01 0.3651002D+02 0.1054185D+02
EXPONENTS  0.3600409D+01 0.1561702D+01 0.4499737D+00 0.1807523D+00 0.7159670D-01
EXPONENTS  0.2994140D-01 0.7224046D+02 0.1680771D+02 0.5225941D+01 0.1850835D+01
EXPONENTS  0.7220678D+00 0.7224046D+02 0.1680771D+02 0.5225941D+01 0.1850835D+01
EXPONENTS  0.7220678D+00 0.7224046D+02 0.1680771D+02 0.5225941D+01 0.1850835D+01
EXPONENTS  0.7220678D+00 0.2949102D+00 0.2949102D+00 0.2949102D+00 0.1220114D+00
EXPONENTS  0.1220114D+00 0.1220114D+00 0.4986539D-01 0.4986539D-01 0.4986539D-01
EXPONENTS  0.1110000D+01 0.1110000D+01 0.1110000D+01 0.1110000D+01 0.1110000D+01
EXPONENTS  0.1110000D+01 0.4020000D+00 0.4020000D+00 0.4020000D+00 0.4020000D+00
EXPONENTS  0.4020000D+00 0.4020000D+00 0.1450000D+00 0.1450000D+00 0.1450000D+00
EXPONENTS  0.1450000D+00 0.1450000D+00 0.1450000D+00 0.5089659D-01 0.5089659D-01
EXPONENTS  0.5089659D-01 0.5089659D-01 0.5089659D-01 0.5089659D-01 0.8820000D+00
EXPONENTS  0.8820000D+00 0.8820000D+00 0.8820000D+00 0.8820000D+00 0.8820000D+00
EXPONENTS  0.8820000D+00 0.8820000D+00 0.8820000D+00 0.8820000D+00 0.3110000D+00
EXPONENTS  0.3110000D+00 0.3110000D+00 0.3110000D+00 0.3110000D+00 0.3110000D+00
EXPONENTS  0.3110000D+00 0.3110000D+00 0.3110000D+00 0.3110000D+00 0.6730000D+00
EXPONENTS  0.6730000D+00 0.6730000D+00 0.6730000D+00 0.6730000D+00 0.6730000D+00
EXPONENTS  0.6730000D+00 0.6730000D+00 0.6730000D+00 0.6730000D+00 0.6730000D+00
EXPONENTS  0.6730000D+00 0.6730000D+00 0.6730000D+00 0.6730000D+00 0.1906917D+03
EXPONENTS  0.2860553D+02 0.6509594D+01 0.1841246D+01 0.5985373D+00 0.2139762D+00
EXPONENTS  0.8031629D-01 0.2292000D+01 0.2292000D+01 0.2292000D+01 0.8380000D+00
EXPONENTS  0.8380000D+00 0.8380000D+00 0.2920000D+00 0.2920000D+00 0.2920000D+00
EXPONENTS  0.8406320D-01 0.8406320D-01 0.8406320D-01 0.2062000D+01 0.2062000D+01
EXPONENTS  0.2062000D+01 0.2062000D+01 0.2062000D+01 0.2062000D+01 0.6620000D+00
EXPONENTS  0.6620000D+00 0.6620000D+00 0.6620000D+00 0.6620000D+00 0.6620000D+00
EXPONENTS  0.1397000D+01 0.1397000D+01 0.1397000D+01 0.1397000D+01 0.1397000D+01
EXPONENTS  0.1397000D+01 0.1397000D+01 0.1397000D+01 0.1397000D+01 0.1397000D+01
MO    1     MO 0.0        OCC NO =    2.0000000  ORB. ENERGY =   -6.608079
  0.87746533D-01  0.16421182D+00  0.28372297D+00  0.46098654D+00  0.70315576D+00
  0.98489689D+00  0.11923996D+01  0.11394694D+01 -0.85407637D-02 -0.33614149D-01
  0.67304069D+00  0.19403277D+00  0.80202780D-02 -0.18309421D-02 -0.61828878D-04
 -0.14568194D-04 -0.18964457D-16 -0.24349304D-16 -0.25467871D-16 -0.23433878D-16
 -0.18120949D-16  0.14540618D-16  0.18669342D-16  0.19526981D-16  0.17967457D-16
  0.13893876D-16 -0.18903984D-02 -0.24271660D-02 -0.25386660D-02 -0.23359153D-02
 -0.18063167D-02  0.71403408D-17 -0.54413574D-17  0.26528904D-03 -0.18173913D-17
  0.39922041D-18  0.24486819D-03  0.66715998D-19  0.39572040D-19 -0.68155808D-05
 -0.26089132D-03 -0.26089132D-03  0.52178263D-03 -0.25545810D-18 -0.32241735D-17
  0.37253825D-18 -0.56839453D-04 -0.56839453D-04  0.11367891D-03 -0.29743186D-18
 -0.11765472D-17  0.18963870D-20  0.38147558D-04  0.38147558D-04 -0.76295117D-04
 -0.51090598D-19 -0.29280063D-19 -0.34433297D-20 -0.19287662D-05 -0.19287662D-05
  0.38575324D-05 -0.97074561D-21  0.44032036D-19 -0.29796238D-20  0.47900363D-18
 -0.39769693D-18 -0.55636498D-03  0.40043556D-18 -0.47846543D-18  0.83454746D-03
 -0.18374464D-17  0.16715562D-17  0.83454746D-03  0.73013807D-18 -0.14790420D-18
  0.39851003D-19  0.44527706D-04 -0.14485893D-18  0.43959917D-19 -0.66791559D-04
  0.58857153D-18 -0.16351293D-18 -0.66791559D-04  0.51272468D-19  0.10235941D-04
  0.10235941D-04  0.27295252D-04  0.12757623D-18  0.66942710D-18  0.14212664D-18
  0.43436737D-18 -0.89702213D-18 -0.56912375D-18  0.20470107D-04 -0.81885755D-04
 -0.81885755D-04  0.40426914D-18  0.68278512D-18 -0.80910860D-18  0.46026801D-04
  0.85662824D-04  0.14435800D-03  0.21550872D-03 -0.31452550D-03  0.66397680D-03
  0.26552252D-03  0.49116419D-18  0.11802047D-17  0.89116355D-03 -0.63128253D-18
 -0.10337502D-17 -0.86900257D-03 -0.12887641D-17  0.60606522D-18  0.32082908D-04
  0.45883085D-18 -0.89978251D-19  0.98657796D-04 -0.26725032D-03 -0.26725032D-03
  0.53450065D-03 -0.37054139D-18  0.11700806D-17  0.71776858D-19  0.25330023D-03
  0.25330023D-03 -0.50660047D-03  0.52702390D-18 -0.19428611D-17 -0.85919452D-18
 -0.68882990D-18  0.93880943D-18 -0.32404196D-03 -0.69819168D-18  0.94597009D-18
  0.48606294D-03  0.27646814D-17 -0.37623984D-17  0.48606294D-03 -0.34800058D-18
MO    2     MO 0.0        OCC NO =    2.0000000  ORB. ENERGY =   -0.437209
  0.14957985D-01  0.27992877D-01  0.48365717D-01  0.78583502D-01  0.11986563D+00
  0.16789350D+00  0.20326610D+00  0.19424319D+00  0.12626400D-01  0.49694113D-01
  0.18978917D+00  0.86158755D-01 -0.94730737D-01 -0.74881674D-01 -0.95048624D-02
 -0.85440633D-04  0.15447926D-15  0.19834274D-15  0.20745428D-15  0.19088593D-15
  0.14760828D-15 -0.76105534D-16 -0.97715256D-16 -0.10220413D-15 -0.94041595D-16
 -0.72720486D-16  0.80317754D-01  0.10312351D+00  0.10786084D+00  0.99246524D-01
  0.76745354D-01  0.11479071D-15 -0.50983475D-16  0.34792619D-01  0.15326253D-16
 -0.13759840D-16  0.44843171D-02  0.38896880D-17 -0.47585124D-17  0.85448478D-04
  0.76809537D-02  0.76809537D-02 -0.15361907D-01  0.57652160D-17 -0.18911906D-16
  0.12100946D-16  0.23741253D-02  0.23741253D-02 -0.47482506D-02 -0.94306236D-17
 -0.20236625D-16  0.15806788D-16  0.12660094D-03  0.12660094D-03 -0.25320188D-03
 -0.67978506D-18 -0.30545554D-17  0.52893199D-17 -0.48877328D-05 -0.48877328D-05
  0.97754657D-05 -0.13712269D-18 -0.55935347D-18  0.31326294D-19 -0.44453818D-17
  0.72470733D-18  0.35651232D-02 -0.35891775D-17  0.21939794D-17 -0.53476849D-02
  0.16925323D-16 -0.43681013D-17 -0.53476849D-02  0.98228106D-18 -0.16393412D-17
  0.21897939D-17  0.47201225D-03 -0.14052761D-17  0.17279192D-17 -0.70801838D-03
  0.63232997D-17 -0.82973009D-17 -0.70801838D-03 -0.32815582D-18 -0.11876584D-03
 -0.11876584D-03 -0.31670651D-03 -0.44877676D-18  0.10455404D-16 -0.55797293D-18
 -0.94685411D-17 -0.13929606D-16  0.12235820D-16 -0.23752449D-03  0.95011953D-03
  0.95011953D-03 -0.83018359D-17  0.10422606D-16  0.30202491D-17 -0.17975401D-01
 -0.33454936D-01 -0.56377872D-01 -0.84165219D-01 -0.79600802D-01 -0.39406183D-01
 -0.60271856D-02  0.18704131D-16 -0.62964018D-17 -0.13201529D-01  0.19686972D-17
 -0.85358321D-18 -0.11484996D-01  0.56723838D-17  0.64460737D-17 -0.33544492D-02
 -0.33298861D-17 -0.13778749D-17 -0.56049604D-04  0.19376023D-02  0.19376023D-02
 -0.38752046D-02  0.22848648D-17  0.10139148D-18 -0.10536316D-16  0.10842336D-03
  0.10842336D-03 -0.21684672D-03 -0.18524759D-17 -0.49615790D-17  0.11914939D-16
  0.36200873D-17 -0.53295381D-17  0.18679428D-02  0.45355089D-17 -0.43136879D-17
 -0.28019142D-02 -0.15395771D-16  0.20302302D-16 -0.28019142D-02  0.55238015D-17
MO    3     MO 0.0        OCC NO =    2.0000000  ORB. ENERGY =   -0.203561
  0.10887477D-01  0.20375192D-01  0.35203982D-01  0.57198619D-01  0.87246665D-01
  0.12220474D+00  0.14795141D+00  0.14138390D+00  0.93523171D-02  0.36808204D-01
  0.14279067D+00  0.61573327D-01 -0.63811607D-01 -0.80987437D-01 -0.23871359D-01
 -0.15843759D-02  0.50875087D-15  0.65320772D-15  0.68321501D-15  0.62865000D-15
  0.48612248D-15 -0.24145809D-15 -0.31001871D-15 -0.32426045D-15 -0.29836337D-15
 -0.23071844D-15 -0.15932464D+00 -0.20456395D+00 -0.21396128D+00 -0.19687325D+00
 -0.15223815D+00  0.26190531D-15 -0.11821015D-15 -0.64445787D-01  0.79252272D-16
 -0.35790073D-16 -0.18212256D-01  0.10451498D-16 -0.46649185D-17 -0.28535238D-02
 -0.87478316D-02 -0.87478316D-02  0.17495663D-01  0.68338847D-17  0.80651254D-16
 -0.54620587D-16 -0.35209011D-02 -0.35209011D-02  0.70418022D-02  0.32343699D-17
  0.53592723D-16 -0.52273874D-16 -0.59353261D-03 -0.59353261D-03  0.11870652D-02
 -0.20422090D-17  0.13405265D-16 -0.81543614D-17 -0.64163495D-04 -0.64163495D-04
  0.12832699D-03  0.33620666D-18  0.14320488D-17 -0.59157626D-18 -0.91981406D-17
  0.49357205D-17 -0.73900663D-03 -0.87496871D-17  0.68273427D-17  0.11085099D-02
  0.36344109D-16 -0.21634504D-16  0.11085099D-02  0.22972395D-17 -0.17836010D-17
  0.89795175D-18  0.72520120D-03 -0.14198813D-17  0.47837704D-18 -0.10878018D-02
  0.67706843D-17 -0.31722323D-17 -0.10878018D-02  0.92559012D-19  0.55635770D-05
  0.55635770D-05  0.14833879D-04  0.29672129D-18 -0.87653966D-17  0.69312652D-19
  0.53233660D-17  0.10961890D-16 -0.72869391D-17  0.11120175D-04 -0.44501638D-04
 -0.44501638D-04  0.58907191D-17 -0.65894802D-17 -0.10981018D-17  0.12747694D-01
  0.23725382D-01  0.39981741D-01  0.59687815D-01  0.67162778D-01  0.43991562D-01
  0.77737462D-02  0.13960862D-16 -0.57114165D-17  0.24219144D-02  0.26843373D-16
 -0.95107549D-17  0.59698680D-02  0.23093135D-17 -0.26098770D-17 -0.23174974D-03
  0.80864633D-17  0.27279259D-17 -0.10753712D-02 -0.26338270D-02 -0.26338270D-02
  0.52676540D-02 -0.15940283D-17  0.25946315D-16 -0.34656020D-17  0.36670849D-03
  0.36670849D-03 -0.73341698D-03  0.38766540D-18  0.72504769D-17 -0.43150608D-17
 -0.18931771D-17  0.45327746D-17 -0.14472964D-02 -0.30057694D-17  0.48077515D-17
  0.21709446D-02  0.86853008D-17 -0.18406075D-16  0.21709446D-02  0.16790535D-18
END DATA
RHF
