 Molden2AIM, Version 4.0.0 (06/02/2016)           Time: Thu Jun 28 23:51:54 2018
GAUSSIAN             35 MOL ORBITALS    526 PRIMITIVES        2 NUCLEI
  Br   1    (CENTRE  1)   0.00000000  0.00000000  2.15296497  CHARGE = 35.0
  Br   2    (CENTRE  2)   0.00000000  0.00000000 -2.15296497  CHARGE = 35.0
CENTRE ASSIGNMENTS    1  1  1  1  1  1  1  1  1  1  1  1  1  1  1  1  1  1  1  1
CENTRE ASSIGNMENTS    1  1  1  1  1  1  1  1  1  1  1  1  1  1  1  1  1  1  1  1
CENTRE ASSIGNMENTS    1  1  1  1  1  1  1  1  1  1  1  1  1  1  1  1  1  1  1  1
CENTRE ASSIGNMENTS    1  1  1  1  1  1  1  1  1  1  1  1  1  1  1  1  1  1  1  1
CENTRE ASSIGNMENTS    1  1  1  1  1  1  1  1  1  1  1  1  1  1  1  1  1  1  1  1
CENTRE ASSIGNMENTS    1  1  1  1  1  1  1  1  1  1  1  1  1  1  1  1  1  1  1  1
CENTRE ASSIGNMENTS    1  1  1  1  1  1  1  1  1  1  1  1  1  1  1  1  1  1  1  1
CENTRE ASSIGNMENTS    1  1  1  1  1  1  1  1  1  1  1  1  1  1  1  1  1  1  1  1
CENTRE ASSIGNMENTS    1  1  1  1  1  1  1  1  1  1  1  1  1  1  1  1  1  1  1  1
CENTRE ASSIGNMENTS    1  1  1  1  1  1  1  1  1  1  1  1  1  1  1  1  1  1  1  1
CENTRE ASSIGNMENTS    1  1  1  1  1  1  1  1  1  1  1  1  1  1  1  1  1  1  1  1
CENTRE ASSIGNMENTS    1  1  1  1  1  1  1  1  1  1  1  1  1  1  1  1  1  1  1  1
CENTRE ASSIGNMENTS    1  1  1  1  1  1  1  1  1  1  1  1  1  1  1  1  1  1  1  1
CENTRE ASSIGNMENTS    1  1  1  2  2  2  2  2  2  2  2  2  2  2  2  2  2  2  2  2
CENTRE ASSIGNMENTS    2  2  2  2  2  2  2  2  2  2  2  2  2  2  2  2  2  2  2  2
CENTRE ASSIGNMENTS    2  2  2  2  2  2  2  2  2  2  2  2  2  2  2  2  2  2  2  2
CENTRE ASSIGNMENTS    2  2  2  2  2  2  2  2  2  2  2  2  2  2  2  2  2  2  2  2
CENTRE ASSIGNMENTS    2  2  2  2  2  2  2  2  2  2  2  2  2  2  2  2  2  2  2  2
CENTRE ASSIGNMENTS    2  2  2  2  2  2  2  2  2  2  2  2  2  2  2  2  2  2  2  2
CENTRE ASSIGNMENTS    2  2  2  2  2  2  2  2  2  2  2  2  2  2  2  2  2  2  2  2
CENTRE ASSIGNMENTS    2  2  2  2  2  2  2  2  2  2  2  2  2  2  2  2  2  2  2  2
CENTRE ASSIGNMENTS    2  2  2  2  2  2  2  2  2  2  2  2  2  2  2  2  2  2  2  2
CENTRE ASSIGNMENTS    2  2  2  2  2  2  2  2  2  2  2  2  2  2  2  2  2  2  2  2
CENTRE ASSIGNMENTS    2  2  2  2  2  2  2  2  2  2  2  2  2  2  2  2  2  2  2  2
CENTRE ASSIGNMENTS    2  2  2  2  2  2  2  2  2  2  2  2  2  2  2  2  2  2  2  2
CENTRE ASSIGNMENTS    2  2  2  2  2  2  2  2  2  2  2  2  2  2  2  2  2  2  2  2
CENTRE ASSIGNMENTS    2  2  2  2  2  2
TYPE ASSIGNMENTS      1  1  1  1  1  1  1  1  1  1  1  1  1  1  1  1  1  1  1  1
TYPE ASSIGNMENTS      1  1  1  1  1  1  1  1  1  1  1  1  1  1  1  1  1  1  1  1
TYPE ASSIGNMENTS      1  1  1  1  1  1  1  1  1  1  1  1  1  1  1  1  1  1  1  1
TYPE ASSIGNMENTS      1  1  1  1  1  1  1  1  1  1  1  1  1  1  1  2  2  2  2  2
TYPE ASSIGNMENTS      2  2  2  2  2  2  3  3  3  3  3  3  3  3  3  3  3  4  4  4
TYPE ASSIGNMENTS      4  4  4  4  4  4  4  4  2  2  2  2  2  2  2  2  2  2  2  3
TYPE ASSIGNMENTS      3  3  3  3  3  3  3  3  3  3  4  4  4  4  4  4  4  4  4  4
TYPE ASSIGNMENTS      4  2  2  2  2  2  2  2  2  2  2  2  3  3  3  3  3  3  3  3
TYPE ASSIGNMENTS      3  3  3  4  4  4  4  4  4  4  4  4  4  4  2  3  4  2  3  4
TYPE ASSIGNMENTS      2  3  4  5  5  5  5  5  5  5  6  6  6  6  6  6  6  7  7  7
TYPE ASSIGNMENTS      7  7  7  7  8  8  8  8  8  8  8  9  9  9  9  9  9  9 10 10
TYPE ASSIGNMENTS     10 10 10 10 10  5  6  7  8  9 10  5  6  7  8  9 10  5  6  7
TYPE ASSIGNMENTS      8  9 10 11 12 13 17 14 15 18 19 16 20 11 12 13 17 14 15 18
TYPE ASSIGNMENTS     19 16 20  1  1  1  1  1  1  1  1  1  1  1  1  1  1  1  1  1
TYPE ASSIGNMENTS      1  1  1  1  1  1  1  1  1  1  1  1  1  1  1  1  1  1  1  1
TYPE ASSIGNMENTS      1  1  1  1  1  1  1  1  1  1  1  1  1  1  1  1  1  1  1  1
TYPE ASSIGNMENTS      1  1  1  1  1  1  1  1  1  1  1  1  1  1  1  1  1  1  2  2
TYPE ASSIGNMENTS      2  2  2  2  2  2  2  2  2  3  3  3  3  3  3  3  3  3  3  3
TYPE ASSIGNMENTS      4  4  4  4  4  4  4  4  4  4  4  2  2  2  2  2  2  2  2  2
TYPE ASSIGNMENTS      2  2  3  3  3  3  3  3  3  3  3  3  3  4  4  4  4  4  4  4
TYPE ASSIGNMENTS      4  4  4  4  2  2  2  2  2  2  2  2  2  2  2  3  3  3  3  3
TYPE ASSIGNMENTS      3  3  3  3  3  3  4  4  4  4  4  4  4  4  4  4  4  2  3  4
TYPE ASSIGNMENTS      2  3  4  2  3  4  5  5  5  5  5  5  5  6  6  6  6  6  6  6
TYPE ASSIGNMENTS      7  7  7  7  7  7  7  8  8  8  8  8  8  8  9  9  9  9  9  9
TYPE ASSIGNMENTS      9 10 10 10 10 10 10 10  5  6  7  8  9 10  5  6  7  8  9 10
TYPE ASSIGNMENTS      5  6  7  8  9 10 11 12 13 17 14 15 18 19 16 20 11 12 13 17
TYPE ASSIGNMENTS     14 15 18 19 16 20
EXPONENTS  0.1063900D+08 0.1593400D+07 0.3626100D+06 0.1027000D+06 0.3350100D+05
EXPONENTS  0.1209300D+05 0.4715900D+04 0.1955600D+04 0.8526100D+03 0.3876700D+03
EXPONENTS  0.1826800D+03 0.8824500D+02 0.3926300D+02 0.1923400D+02 0.9405700D+01
EXPONENTS  0.4160100D+01 0.1899500D+01 0.3011400D+00 0.1063900D+08 0.1593400D+07
EXPONENTS  0.3626100D+06 0.1027000D+06 0.3350100D+05 0.1209300D+05 0.4715900D+04
EXPONENTS  0.1955600D+04 0.8526100D+03 0.3876700D+03 0.1826800D+03 0.8824500D+02
EXPONENTS  0.3926300D+02 0.1923400D+02 0.9405700D+01 0.4160100D+01 0.1899500D+01
EXPONENTS  0.3011400D+00 0.1063900D+08 0.1593400D+07 0.3626100D+06 0.1027000D+06
EXPONENTS  0.3350100D+05 0.1209300D+05 0.4715900D+04 0.1955600D+04 0.8526100D+03
EXPONENTS  0.3876700D+03 0.1826800D+03 0.8824500D+02 0.3926300D+02 0.1923400D+02
EXPONENTS  0.9405700D+01 0.4160100D+01 0.1899500D+01 0.3011400D+00 0.1063900D+08
EXPONENTS  0.1593400D+07 0.3626100D+06 0.1027000D+06 0.3350100D+05 0.1209300D+05
EXPONENTS  0.4715900D+04 0.1955600D+04 0.8526100D+03 0.3876700D+03 0.1826800D+03
EXPONENTS  0.8824500D+02 0.3926300D+02 0.1923400D+02 0.9405700D+01 0.4160100D+01
EXPONENTS  0.1899500D+01 0.3011400D+00 0.6047200D+00 0.1251500D+00 0.4559300D-01
EXPONENTS  0.8676500D+04 0.2055900D+04 0.6662300D+03 0.2531000D+03 0.1061200D+03
EXPONENTS  0.4724200D+02 0.2182500D+02 0.9968400D+01 0.4517100D+01 0.1998200D+01
EXPONENTS  0.2814500D+00 0.8676500D+04 0.2055900D+04 0.6662300D+03 0.2531000D+03
EXPONENTS  0.1061200D+03 0.4724200D+02 0.2182500D+02 0.9968400D+01 0.4517100D+01
EXPONENTS  0.1998200D+01 0.2814500D+00 0.8676500D+04 0.2055900D+04 0.6662300D+03
EXPONENTS  0.2531000D+03 0.1061200D+03 0.4724200D+02 0.2182500D+02 0.9968400D+01
EXPONENTS  0.4517100D+01 0.1998200D+01 0.2814500D+00 0.8676500D+04 0.2055900D+04
EXPONENTS  0.6662300D+03 0.2531000D+03 0.1061200D+03 0.4724200D+02 0.2182500D+02
EXPONENTS  0.9968400D+01 0.4517100D+01 0.1998200D+01 0.2814500D+00 0.8676500D+04
EXPONENTS  0.2055900D+04 0.6662300D+03 0.2531000D+03 0.1061200D+03 0.4724200D+02
EXPONENTS  0.2182500D+02 0.9968400D+01 0.4517100D+01 0.1998200D+01 0.2814500D+00
EXPONENTS  0.8676500D+04 0.2055900D+04 0.6662300D+03 0.2531000D+03 0.1061200D+03
EXPONENTS  0.4724200D+02 0.2182500D+02 0.9968400D+01 0.4517100D+01 0.1998200D+01
EXPONENTS  0.2814500D+00 0.8676500D+04 0.2055900D+04 0.6662300D+03 0.2531000D+03
EXPONENTS  0.1061200D+03 0.4724200D+02 0.2182500D+02 0.9968400D+01 0.4517100D+01
EXPONENTS  0.1998200D+01 0.2814500D+00 0.8676500D+04 0.2055900D+04 0.6662300D+03
EXPONENTS  0.2531000D+03 0.1061200D+03 0.4724200D+02 0.2182500D+02 0.9968400D+01
EXPONENTS  0.4517100D+01 0.1998200D+01 0.2814500D+00 0.8676500D+04 0.2055900D+04
EXPONENTS  0.6662300D+03 0.2531000D+03 0.1061200D+03 0.4724200D+02 0.2182500D+02
EXPONENTS  0.9968400D+01 0.4517100D+01 0.1998200D+01 0.2814500D+00 0.7098800D+00
EXPONENTS  0.7098800D+00 0.7098800D+00 0.1020400D+00 0.1020400D+00 0.1020400D+00
EXPONENTS  0.3514200D-01 0.3514200D-01 0.3514200D-01 0.4038300D+03 0.1211700D+03
EXPONENTS  0.4634500D+02 0.1972100D+02 0.8862400D+01 0.3996200D+01 0.1763600D+01
EXPONENTS  0.4038300D+03 0.1211700D+03 0.4634500D+02 0.1972100D+02 0.8862400D+01
EXPONENTS  0.3996200D+01 0.1763600D+01 0.4038300D+03 0.1211700D+03 0.4634500D+02
EXPONENTS  0.1972100D+02 0.8862400D+01 0.3996200D+01 0.1763600D+01 0.4038300D+03
EXPONENTS  0.1211700D+03 0.4634500D+02 0.1972100D+02 0.8862400D+01 0.3996200D+01
EXPONENTS  0.1763600D+01 0.4038300D+03 0.1211700D+03 0.4634500D+02 0.1972100D+02
EXPONENTS  0.8862400D+01 0.3996200D+01 0.1763600D+01 0.4038300D+03 0.1211700D+03
EXPONENTS  0.4634500D+02 0.1972100D+02 0.8862400D+01 0.3996200D+01 0.1763600D+01
EXPONENTS  0.7061900D+00 0.7061900D+00 0.7061900D+00 0.7061900D+00 0.7061900D+00
EXPONENTS  0.7061900D+00 0.2639000D+00 0.2639000D+00 0.2639000D+00 0.2639000D+00
EXPONENTS  0.2639000D+00 0.2639000D+00 0.1047000D+00 0.1047000D+00 0.1047000D+00
EXPONENTS  0.1047000D+00 0.1047000D+00 0.1047000D+00 0.5515000D+00 0.5515000D+00
EXPONENTS  0.5515000D+00 0.5515000D+00 0.5515000D+00 0.5515000D+00 0.5515000D+00
EXPONENTS  0.5515000D+00 0.5515000D+00 0.5515000D+00 0.2580000D+00 0.2580000D+00
EXPONENTS  0.2580000D+00 0.2580000D+00 0.2580000D+00 0.2580000D+00 0.2580000D+00
EXPONENTS  0.2580000D+00 0.2580000D+00 0.2580000D+00 0.1063900D+08 0.1593400D+07
EXPONENTS  0.3626100D+06 0.1027000D+06 0.3350100D+05 0.1209300D+05 0.4715900D+04
EXPONENTS  0.1955600D+04 0.8526100D+03 0.3876700D+03 0.1826800D+03 0.8824500D+02
EXPONENTS  0.3926300D+02 0.1923400D+02 0.9405700D+01 0.4160100D+01 0.1899500D+01
EXPONENTS  0.3011400D+00 0.1063900D+08 0.1593400D+07 0.3626100D+06 0.1027000D+06
EXPONENTS  0.3350100D+05 0.1209300D+05 0.4715900D+04 0.1955600D+04 0.8526100D+03
EXPONENTS  0.3876700D+03 0.1826800D+03 0.8824500D+02 0.3926300D+02 0.1923400D+02
EXPONENTS  0.9405700D+01 0.4160100D+01 0.1899500D+01 0.3011400D+00 0.1063900D+08
EXPONENTS  0.1593400D+07 0.3626100D+06 0.1027000D+06 0.3350100D+05 0.1209300D+05
EXPONENTS  0.4715900D+04 0.1955600D+04 0.8526100D+03 0.3876700D+03 0.1826800D+03
EXPONENTS  0.8824500D+02 0.3926300D+02 0.1923400D+02 0.9405700D+01 0.4160100D+01
EXPONENTS  0.1899500D+01 0.3011400D+00 0.1063900D+08 0.1593400D+07 0.3626100D+06
EXPONENTS  0.1027000D+06 0.3350100D+05 0.1209300D+05 0.4715900D+04 0.1955600D+04
EXPONENTS  0.8526100D+03 0.3876700D+03 0.1826800D+03 0.8824500D+02 0.3926300D+02
EXPONENTS  0.1923400D+02 0.9405700D+01 0.4160100D+01 0.1899500D+01 0.3011400D+00
EXPONENTS  0.6047200D+00 0.1251500D+00 0.4559300D-01 0.8676500D+04 0.2055900D+04
EXPONENTS  0.6662300D+03 0.2531000D+03 0.1061200D+03 0.4724200D+02 0.2182500D+02
EXPONENTS  0.9968400D+01 0.4517100D+01 0.1998200D+01 0.2814500D+00 0.8676500D+04
EXPONENTS  0.2055900D+04 0.6662300D+03 0.2531000D+03 0.1061200D+03 0.4724200D+02
EXPONENTS  0.2182500D+02 0.9968400D+01 0.4517100D+01 0.1998200D+01 0.2814500D+00
EXPONENTS  0.8676500D+04 0.2055900D+04 0.6662300D+03 0.2531000D+03 0.1061200D+03
EXPONENTS  0.4724200D+02 0.2182500D+02 0.9968400D+01 0.4517100D+01 0.1998200D+01
EXPONENTS  0.2814500D+00 0.8676500D+04 0.2055900D+04 0.6662300D+03 0.2531000D+03
EXPONENTS  0.1061200D+03 0.4724200D+02 0.2182500D+02 0.9968400D+01 0.4517100D+01
EXPONENTS  0.1998200D+01 0.2814500D+00 0.8676500D+04 0.2055900D+04 0.6662300D+03
EXPONENTS  0.2531000D+03 0.1061200D+03 0.4724200D+02 0.2182500D+02 0.9968400D+01
EXPONENTS  0.4517100D+01 0.1998200D+01 0.2814500D+00 0.8676500D+04 0.2055900D+04
EXPONENTS  0.6662300D+03 0.2531000D+03 0.1061200D+03 0.4724200D+02 0.2182500D+02
EXPONENTS  0.9968400D+01 0.4517100D+01 0.1998200D+01 0.2814500D+00 0.8676500D+04
EXPONENTS  0.2055900D+04 0.6662300D+03 0.2531000D+03 0.1061200D+03 0.4724200D+02
EXPONENTS  0.2182500D+02 0.9968400D+01 0.4517100D+01 0.1998200D+01 0.2814500D+00
EXPONENTS  0.8676500D+04 0.2055900D+04 0.6662300D+03 0.2531000D+03 0.1061200D+03
EXPONENTS  0.4724200D+02 0.2182500D+02 0.9968400D+01 0.4517100D+01 0.1998200D+01
EXPONENTS  0.2814500D+00 0.8676500D+04 0.2055900D+04 0.6662300D+03 0.2531000D+03
EXPONENTS  0.1061200D+03 0.4724200D+02 0.2182500D+02 0.9968400D+01 0.4517100D+01
EXPONENTS  0.1998200D+01 0.2814500D+00 0.7098800D+00 0.7098800D+00 0.7098800D+00
EXPONENTS  0.1020400D+00 0.1020400D+00 0.1020400D+00 0.3514200D-01 0.3514200D-01
EXPONENTS  0.3514200D-01 0.4038300D+03 0.1211700D+03 0.4634500D+02 0.1972100D+02
EXPONENTS  0.8862400D+01 0.3996200D+01 0.1763600D+01 0.4038300D+03 0.1211700D+03
EXPONENTS  0.4634500D+02 0.1972100D+02 0.8862400D+01 0.3996200D+01 0.1763600D+01
EXPONENTS  0.4038300D+03 0.1211700D+03 0.4634500D+02 0.1972100D+02 0.8862400D+01
EXPONENTS  0.3996200D+01 0.1763600D+01 0.4038300D+03 0.1211700D+03 0.4634500D+02
EXPONENTS  0.1972100D+02 0.8862400D+01 0.3996200D+01 0.1763600D+01 0.4038300D+03
EXPONENTS  0.1211700D+03 0.4634500D+02 0.1972100D+02 0.8862400D+01 0.3996200D+01
EXPONENTS  0.1763600D+01 0.4038300D+03 0.1211700D+03 0.4634500D+02 0.1972100D+02
EXPONENTS  0.8862400D+01 0.3996200D+01 0.1763600D+01 0.7061900D+00 0.7061900D+00
EXPONENTS  0.7061900D+00 0.7061900D+00 0.7061900D+00 0.7061900D+00 0.2639000D+00
EXPONENTS  0.2639000D+00 0.2639000D+00 0.2639000D+00 0.2639000D+00 0.2639000D+00
EXPONENTS  0.1047000D+00 0.1047000D+00 0.1047000D+00 0.1047000D+00 0.1047000D+00
EXPONENTS  0.1047000D+00 0.5515000D+00 0.5515000D+00 0.5515000D+00 0.5515000D+00
EXPONENTS  0.5515000D+00 0.5515000D+00 0.5515000D+00 0.5515000D+00 0.5515000D+00
EXPONENTS  0.5515000D+00 0.2580000D+00 0.2580000D+00 0.2580000D+00 0.2580000D+00
EXPONENTS  0.2580000D+00 0.2580000D+00 0.2580000D+00 0.2580000D+00 0.2580000D+00
EXPONENTS  0.2580000D+00
MO    1     MO 0.0        OCC NO =    2.0000000  ORB. ENERGY = -481.064444
 -0.55391158D+00 -0.10419751D+01 -0.18037103D+01 -0.29566264D+01 -0.46316125D+01
 -0.69617080D+01 -0.99500294D+01 -0.13208911D+02 -0.15383571D+02 -0.14129661D+02
 -0.82621688D+01 -0.21680344D+01 -0.11852560D+00  0.42422621D-02 -0.11855784D-02
  0.35203823D-03 -0.60016423D-04 -0.48965147D-05 -0.72633859D-04 -0.13345090D-03
 -0.23076737D-03 -0.37791382D-03 -0.59500833D-03 -0.89852087D-03 -0.13115661D-02
 -0.18061062D-02 -0.23077201D-02 -0.25156854D-02 -0.20707964D-02 -0.56779832D-03
  0.11452860D-02  0.11161313D-02  0.24424096D-03  0.82282531D-05  0.27874692D-06
 -0.70909622D-09  0.45540345D-04  0.89277318D-04  0.15636701D-03  0.25545281D-03
  0.40291061D-03  0.60797413D-03  0.89141087D-03  0.12307402D-02  0.15956607D-02
  0.17744686D-02  0.15412352D-02  0.44770127D-03 -0.11286495D-02 -0.16445218D-02
 -0.28311031D-03  0.69066793D-03  0.32874052D-03 -0.15875884D-05 -0.16395092D-04
 -0.35524205D-04 -0.60474326D-04 -0.98710385D-04 -0.15560724D-03 -0.23485626D-03
 -0.34433756D-03 -0.47602223D-03 -0.61782909D-03 -0.69022314D-03 -0.60292554D-03
 -0.17858713D-03  0.46422395D-03  0.71413335D-03  0.12499514D-03 -0.39429027D-03
 -0.33469281D-03  0.12487090D-03 -0.10799311D-03 -0.85305378D-04 -0.19603610D-04
 -0.17311472D-14 -0.24838898D-14 -0.32888021D-14 -0.37976347D-14 -0.35205820D-14
 -0.22792890D-14 -0.80450531D-15 -0.94294959D-16 -0.13708742D-17 -0.20074926D-18
 -0.20640142D-20 -0.15294607D-14 -0.21945053D-14 -0.29056417D-14 -0.33551929D-14
 -0.31104182D-14 -0.20137415D-14 -0.71077678D-15 -0.83309168D-16 -0.12111611D-17
 -0.17736106D-18 -0.18235472D-20  0.16493631D-03  0.23665441D-03  0.31334301D-03
  0.36182240D-03  0.33542601D-03  0.21716092D-03  0.76649828D-04  0.89840208D-05
  0.13061103D-06  0.19126532D-07  0.19665045D-09  0.40580822D-15  0.58578883D-15
  0.78259988D-15  0.92975267D-15  0.90100160D-15  0.62631104D-15  0.20379561D-15
 -0.91724195D-16 -0.99092733D-16 -0.25511121D-16  0.24883743D-19  0.34383064D-15
  0.49632349D-15  0.66307631D-15  0.78775500D-15  0.76339498D-15  0.53065689D-15
  0.17267066D-15 -0.77715501D-16 -0.83958669D-16 -0.21614902D-16  0.21083341D-19
  0.89788353D-05  0.12961052D-04  0.17315655D-04  0.20571530D-04  0.19935389D-04
  0.13857639D-04  0.45091427D-05 -0.20294720D-05 -0.21925069D-05 -0.56445419D-06
  0.55057294D-09 -0.12785627D-14 -0.18578083D-14 -0.24699776D-14 -0.29638022D-14
 -0.28674917D-14 -0.20355852D-14 -0.63266501D-15  0.36323634D-15  0.41727792D-15
  0.11081182D-15 -0.39981250D-16  0.15670806D-14  0.22770376D-14  0.30273478D-14
  0.36326078D-14  0.35145642D-14  0.24949313D-14  0.77543093D-15 -0.44520352D-15
 -0.51144002D-15 -0.13581739D-15  0.49003338D-16  0.14046763D-04  0.20410570D-04
  0.27136089D-04  0.32561428D-04  0.31503326D-04  0.22363693D-04  0.69506921D-05
 -0.39906489D-05 -0.45843697D-05 -0.12174197D-05  0.43924881D-06  0.37062816D-16
 -0.50590222D-16 -0.70513603D-06  0.96317325D-17 -0.13599851D-16  0.33867610D-04
 -0.16119683D-17  0.14705656D-17  0.11459358D-05  0.51769618D-04  0.54171328D-04
  0.46156870D-04  0.30397789D-04  0.14009436D-04  0.41951482D-05  0.71376890D-06
  0.51769618D-04  0.54171328D-04  0.46156870D-04  0.30397789D-04  0.14009436D-04
  0.41951482D-05  0.71376890D-06 -0.10353924D-03 -0.10834266D-03 -0.92313741D-04
 -0.60795577D-04 -0.28018872D-04 -0.83902964D-05 -0.14275378D-05 -0.48082942D-15
 -0.50313618D-15 -0.42869895D-15 -0.28233067D-15 -0.13011780D-15 -0.38963986D-16
 -0.66293919D-17 -0.18734248D-14 -0.19603372D-14 -0.16703122D-14 -0.11000269D-14
 -0.50696963D-15 -0.15181288D-15 -0.25829674D-16 -0.13000625D-14 -0.13603754D-14
 -0.11591126D-14 -0.76336330D-15 -0.35181142D-15 -0.10535050D-15 -0.17924494D-16
 -0.28502147D-05 -0.28502147D-05  0.57004294D-05  0.27058919D-16 -0.80635588D-16
 -0.28448687D-16  0.28960115D-05  0.28960115D-05 -0.57920231D-05 -0.74724799D-19
  0.14759048D-16 -0.16304284D-16  0.21381161D-05  0.21381161D-05 -0.42762322D-05
 -0.99414725D-18  0.31096009D-18 -0.31458864D-17  0.22856465D-17  0.61954004D-17
 -0.34821475D-05  0.22858307D-17  0.61951801D-17  0.52232212D-05 -0.91427703D-17
 -0.24781381D-16  0.52232212D-05 -0.23715171D-17 -0.77880190D-18 -0.14761478D-17
  0.21001014D-05 -0.77882171D-18 -0.14761189D-17 -0.31501521D-05  0.31152274D-17
  0.59045623D-17 -0.31501521D-05  0.22490168D-18  0.55383432D+00  0.10418298D+01
  0.18034588D+01  0.29562140D+01  0.46309664D+01  0.69607369D+01  0.99486416D+01
  0.13207069D+02  0.15381426D+02  0.14127691D+02  0.82610164D+01  0.21677320D+01
  0.11850906D+00 -0.42416704D-02  0.11854130D-02 -0.35198913D-03  0.60008052D-04
  0.48958317D-05  0.72625089D-04  0.13343479D-03  0.23073951D-03  0.37786819D-03
  0.59493648D-03  0.89841238D-03  0.13114077D-02  0.18058881D-02  0.23074415D-02
  0.25153816D-02  0.20705464D-02  0.56772976D-03 -0.11451477D-02 -0.11159965D-02
 -0.24421147D-03 -0.82272596D-05 -0.27871327D-06  0.70901060D-09 -0.45535742D-04
 -0.89268294D-04 -0.15635120D-03 -0.25542699D-03 -0.40286989D-03 -0.60791267D-03
 -0.89132076D-03 -0.12306158D-02 -0.15954994D-02 -0.17742893D-02 -0.15410794D-02
 -0.44765602D-03  0.11285354D-02  0.16443556D-02  0.28308169D-03 -0.69059812D-03
 -0.32870729D-03  0.15874279D-05  0.16393622D-04  0.35521020D-04  0.60468904D-04
  0.98701535D-04  0.15559329D-03  0.23483521D-03  0.34430669D-03  0.47597955D-03
  0.61777370D-03  0.69016126D-03  0.60287148D-03  0.17857112D-03 -0.46418233D-03
 -0.71406933D-03 -0.12498394D-03  0.39425492D-03  0.33466280D-03 -0.12485970D-03
  0.10797956D-03  0.85303070D-04  0.19603803D-04 -0.21953804D-14 -0.31499822D-14
 -0.41707439D-14 -0.48160275D-14 -0.44646790D-14 -0.28905146D-14 -0.10202455D-14
 -0.11958157D-15 -0.17384947D-17 -0.25458320D-18 -0.26175106D-20  0.49843969D-15
  0.71517271D-15  0.94692669D-15  0.10934320D-14  0.10136618D-14  0.65626313D-15
  0.23163678D-15  0.27149828D-16  0.39470825D-18  0.57800630D-19  0.59428024D-21
  0.16492472D-03  0.23663777D-03  0.31332099D-03  0.36179697D-03  0.33540244D-03
  0.21714565D-03  0.76644441D-04  0.89833893D-05  0.13060185D-06  0.19125188D-07
  0.19663663D-09 -0.10987446D-14 -0.15860504D-14 -0.21189255D-14 -0.25173485D-14
 -0.24395036D-14 -0.16957662D-14 -0.55178606D-15  0.24834751D-15  0.26829817D-15
  0.69072543D-16 -0.67373888D-19  0.23474882D-14  0.33886261D-14  0.45271235D-14
  0.53783617D-14  0.52120447D-14  0.36230359D-14  0.11789011D-14 -0.53059907D-15
 -0.57322402D-15 -0.14757477D-15  0.14394556D-18  0.89299216D-05  0.12890444D-04
  0.17221326D-04  0.20459463D-04  0.19826788D-04  0.13782147D-04  0.44845784D-05
 -0.20184162D-05 -0.21805629D-05 -0.56137923D-06  0.54757360D-09 -0.11743249D-14
 -0.17063462D-14 -0.22686070D-14 -0.27221714D-14 -0.26337128D-14 -0.18696295D-14
 -0.58108553D-15  0.33362266D-15  0.38325837D-15  0.10177763D-15 -0.36721686D-16
  0.30580601D-15  0.44434970D-15  0.59076808D-15  0.70888080D-15  0.68584531D-15
  0.48687031D-15  0.15132052D-15 -0.86878695D-16 -0.99804334D-16 -0.26503918D-16
  0.95626963D-17  0.14080897D-04  0.20460169D-04  0.27202031D-04  0.32640555D-04
  0.31579881D-04  0.22418038D-04  0.69675827D-05 -0.40003464D-05 -0.45955100D-05
 -0.12203781D-05  0.44031622D-06  0.11688980D-15  0.19947721D-16 -0.70548110D-06
 -0.11469433D-17 -0.14794922D-16  0.33867317D-04  0.24723969D-17  0.36417866D-17
  0.11459427D-05 -0.51762759D-04 -0.54164150D-04 -0.46150755D-04 -0.30393761D-04
 -0.14007580D-04 -0.41945923D-05 -0.71367433D-06 -0.51762759D-04 -0.54164150D-04
 -0.46150755D-04 -0.30393761D-04 -0.14007580D-04 -0.41945923D-05 -0.71367433D-06
  0.10352552D-03  0.10832830D-03  0.92301509D-04  0.60787522D-04  0.28015159D-04
  0.83891847D-05  0.14273487D-05  0.27899677D-14  0.29194006D-14  0.24874856D-14
  0.16381973D-14  0.75499636D-15  0.22608488D-15  0.38466426D-16  0.64328822D-14
  0.67313181D-14  0.57354433D-14  0.37772230D-14  0.17408096D-14  0.52128826D-15
  0.88692779D-16  0.16052605D-14  0.16797321D-14  0.14312217D-14  0.94256769D-15
  0.43440138D-15  0.13008220D-15  0.22132383D-16  0.28498173D-05  0.28498173D-05
 -0.56996345D-05  0.10046962D-17 -0.22096218D-16 -0.32247337D-16 -0.28959488D-05
 -0.28959488D-05  0.57918976D-05 -0.50993765D-18  0.95314161D-17 -0.93513226D-17
 -0.21380793D-05 -0.21380793D-05  0.42761586D-05 -0.18913803D-18  0.21291603D-17
 -0.34803614D-17  0.47360568D-17  0.51406600D-17 -0.34817521D-05  0.47361427D-17
  0.51405692D-17  0.52226282D-05 -0.18944313D-16 -0.20562549D-16  0.52226282D-05
 -0.29259143D-17 -0.63999310D-18 -0.58496318D-18  0.20998996D-05 -0.64000141D-18
 -0.58495422D-18 -0.31498494D-05  0.25599807D-17  0.23398438D-17 -0.31498494D-05
 -0.52911342D-19
MO    2     MO 0.0        OCC NO =    2.0000000  ORB. ENERGY = -481.064444
  0.55383890D+00  0.10418384D+01  0.18034737D+01  0.29562384D+01  0.46310047D+01
  0.69607945D+01  0.99487238D+01  0.13207178D+02  0.15381553D+02  0.14127808D+02
  0.82610847D+01  0.21677500D+01  0.11851004D+00 -0.42417055D-02  0.11854228D-02
 -0.35199204D-03  0.60008549D-04  0.48958722D-05  0.62867303D-04  0.11550672D-03
  0.19973773D-03  0.32709845D-03  0.51500181D-03  0.77770319D-03  0.11352092D-02
  0.15632520D-02  0.19974175D-02  0.21774191D-02  0.17923512D-02  0.49145053D-03
 -0.99128760D-03 -0.96605306D-03 -0.21139963D-03 -0.71218587D-05 -0.24126582D-06
  0.61374912D-09 -0.32998219D-04 -0.64689728D-04 -0.11330245D-03 -0.18509934D-03
 -0.29194625D-03 -0.44053385D-03 -0.64591015D-03 -0.89178581D-03 -0.11562047D-02
 -0.12857677D-02 -0.11167684D-02 -0.32440125D-03  0.81781160D-03  0.11916091D-02
  0.20513977D-03 -0.50045321D-03 -0.23820311D-03  0.11503556D-05  0.10536306D-04
  0.22829631D-04  0.38863827D-04  0.63436231D-04  0.10000099D-03  0.15093038D-03
  0.22128854D-03  0.30591569D-03  0.39704788D-03  0.44357191D-03  0.38747011D-03
  0.11476902D-03 -0.29833353D-03 -0.45893781D-03 -0.80328131D-04  0.25339065D-03
  0.21509034D-03 -0.80248284D-04  0.97163610D-04  0.16541132D-04 -0.13797041D-05
 -0.18714363D-14 -0.26851797D-14 -0.35553207D-14 -0.41053881D-14 -0.38058836D-14
 -0.24639984D-14 -0.86970095D-15 -0.10193645D-15 -0.14819673D-17 -0.21701762D-18
 -0.22312781D-20 -0.13806798D-14 -0.19810310D-14 -0.26229904D-14 -0.30288107D-14
 -0.28078469D-14 -0.18178513D-14 -0.64163474D-15 -0.75205124D-16 -0.10933433D-17
 -0.16010796D-18 -0.16461584D-20 -0.83099269D-04 -0.11923274D-03 -0.15787048D-03
 -0.18229568D-03 -0.16899648D-03 -0.10941140D-03 -0.38618207D-04 -0.45263869D-05
 -0.65805288D-07 -0.96364519D-08 -0.99077691D-10  0.40750275D-15  0.58823490D-15
  0.78586776D-15  0.93363501D-15  0.90476389D-15  0.62892632D-15  0.20464659D-15
 -0.92107206D-16 -0.99506513D-16 -0.25617647D-16  0.24987649D-19  0.34558662D-15
  0.49885826D-15  0.66646271D-15  0.79177815D-15  0.76729372D-15  0.53336701D-15
  0.17355251D-15 -0.78112402D-16 -0.84387455D-16 -0.21725292D-16  0.21191016D-19
 -0.35065809D-03 -0.50617898D-03 -0.67624302D-03 -0.80339746D-03 -0.77855372D-03
 -0.54119415D-03 -0.17609938D-03  0.79258698D-04  0.85625837D-04  0.22044110D-04
 -0.21501993D-07 -0.12784950D-14 -0.18577100D-14 -0.24698470D-14 -0.29636454D-14
 -0.28673400D-14 -0.20354775D-14 -0.63263154D-15  0.36321712D-15  0.41725584D-15
  0.11080596D-15 -0.39979134D-16  0.15682061D-14  0.22786730D-14  0.30295222D-14
  0.36352170D-14  0.35170885D-14  0.24967233D-14  0.77598788D-15 -0.44552329D-15
 -0.51180736D-15 -0.13591494D-15  0.49038535D-16  0.24470896D-03  0.35557298D-03
  0.47273839D-03  0.56725335D-03  0.54882012D-03  0.38959839D-03  0.12108816D-03
 -0.69521181D-04 -0.79864404D-04 -0.21208695D-04  0.76521631D-05  0.37059891D-16
 -0.50598783D-16 -0.24738237D-05  0.96314280D-17 -0.13612684D-16 -0.20930317D-05
 -0.16120304D-17  0.14716142D-17  0.50002897D-07 -0.49172547D-04 -0.51453772D-04
 -0.43841368D-04 -0.28872855D-04 -0.13306639D-04 -0.39846947D-05 -0.67796202D-06
 -0.49172547D-04 -0.51453772D-04 -0.43841368D-04 -0.28872855D-04 -0.13306639D-04
 -0.39846947D-05 -0.67796202D-06  0.98345094D-04  0.10290754D-03  0.87682736D-04
  0.57745710D-04  0.26613279D-04  0.79693894D-05  0.13559240D-05 -0.48081833D-15
 -0.50312458D-15 -0.42868907D-15 -0.28232416D-15 -0.13011480D-15 -0.38963087D-16
 -0.66292390D-17 -0.18761960D-14 -0.19632369D-14 -0.16727829D-14 -0.11016540D-14
 -0.50771954D-15 -0.15203744D-15 -0.25867881D-16 -0.13030890D-14 -0.13635422D-14
 -0.11618110D-14 -0.76514035D-15 -0.35263041D-15 -0.10559575D-15 -0.17966221D-16
  0.28488834D-05  0.28488834D-05 -0.56977668D-05  0.27059830D-16 -0.80637663D-16
 -0.28438009D-16 -0.44940643D-06 -0.44940643D-06  0.89881286D-06 -0.74519358D-19
  0.14759624D-16 -0.16312499D-16 -0.26387476D-06 -0.26387476D-06  0.52774952D-06
 -0.99413233D-18  0.31118463D-18 -0.31439846D-17  0.22854708D-17  0.61952511D-17
  0.28338862D-05  0.22856711D-17  0.61950294D-17 -0.42508292D-05 -0.91420835D-17
 -0.24780783D-16 -0.42508292D-05 -0.23714315D-17 -0.77871378D-18 -0.14763631D-17
 -0.14467861D-05 -0.77873646D-18 -0.14763388D-17  0.21701792D-05  0.31148778D-17
  0.59054282D-17  0.21701792D-05  0.22484229D-18  0.55391616D+00  0.10419838D+01
  0.18037253D+01  0.29566508D+01  0.46316508D+01  0.69617655D+01  0.99501117D+01
  0.13209021D+02  0.15383699D+02  0.14129778D+02  0.82622371D+01  0.21680524D+01
  0.11852658D+00 -0.42422972D-02  0.11855882D-02 -0.35204114D-03  0.60016920D-04
  0.48965552D-05  0.62877434D-04  0.11552533D-03  0.19976992D-03  0.32715116D-03
  0.51508480D-03  0.77782852D-03  0.11353921D-02  0.15635039D-02  0.19977394D-02
  0.21777700D-02  0.17926401D-02  0.49152973D-03 -0.99144735D-03 -0.96620874D-03
 -0.21143369D-03 -0.71230064D-05 -0.24130470D-06  0.61384803D-09 -0.33004571D-04
 -0.64702180D-04 -0.11332427D-03 -0.18513497D-03 -0.29200245D-03 -0.44061865D-03
 -0.64603449D-03 -0.89195748D-03 -0.11564273D-02 -0.12860152D-02 -0.11169834D-02
 -0.32446369D-03  0.81796903D-03  0.11918385D-02  0.20517926D-03 -0.50054955D-03
 -0.23824896D-03  0.11505770D-05  0.10538593D-04  0.22834586D-04  0.38872262D-04
  0.63449999D-04  0.10002270D-03  0.15096314D-03  0.22133657D-03  0.30598209D-03
  0.39713406D-03  0.44366819D-03  0.38755421D-03  0.11479393D-03 -0.29839828D-03
 -0.45903742D-03 -0.80345566D-04  0.25344565D-03  0.21513703D-03 -0.80265701D-04
  0.97178673D-04  0.16553031D-04 -0.13769698D-05 -0.62655785D-15 -0.89899958D-15
 -0.11903232D-14 -0.13744861D-14 -0.12742118D-14 -0.82494797D-15 -0.29117634D-15
 -0.34128378D-16 -0.49616344D-18 -0.72657614D-19 -0.74703310D-21 -0.61856169D-14
 -0.88752651D-14 -0.11751323D-13 -0.13569448D-13 -0.12579503D-13 -0.81441995D-14
 -0.28746033D-14 -0.33692830D-15 -0.48983138D-17 -0.71730354D-18 -0.73749943D-20
  0.83122275D-04  0.11926575D-03  0.15791419D-03  0.18234615D-03  0.16904327D-03
  0.10944169D-03  0.38628899D-04  0.45276400D-05  0.65823506D-07  0.96391198D-08
  0.99105121D-10 -0.10992731D-14 -0.15868134D-14 -0.21199447D-14 -0.25185594D-14
 -0.24406771D-14 -0.16965819D-14 -0.55205148D-15  0.24846698D-15  0.26842723D-15
  0.69105768D-16 -0.67406296D-19  0.23489625D-14  0.33907543D-14  0.45299667D-14
  0.53817394D-14  0.52153180D-14  0.36253113D-14  0.11796415D-14 -0.53093230D-15
 -0.57358402D-15 -0.14766745D-15  0.14403596D-18  0.35065934D-03  0.50618079D-03
  0.67624544D-03  0.80340033D-03  0.77855650D-03  0.54119608D-03  0.17610001D-03
 -0.79258981D-04 -0.85626143D-04 -0.22044188D-04  0.21502070D-07 -0.11741175D-14
 -0.17060448D-14 -0.22682063D-14 -0.27216905D-14 -0.26332476D-14 -0.18692992D-14
 -0.58098289D-15  0.33356373D-15  0.38319067D-15  0.10175965D-15 -0.36715199D-16
  0.30438102D-15  0.44227912D-15  0.58801522D-15  0.70557756D-15  0.68264941D-15
  0.48460160D-15  0.15061539D-15 -0.86473858D-16 -0.99339267D-16 -0.26380415D-16
  0.95181361D-17 -0.24470700D-03 -0.35557013D-03 -0.47273461D-03 -0.56724880D-03
 -0.54881573D-03 -0.38959526D-03 -0.12108719D-03  0.69520625D-04  0.79863765D-04
  0.21208525D-04 -0.76521018D-05  0.11685524D-15  0.20168608D-16  0.24737254D-05
 -0.11484157D-17 -0.14785760D-16  0.20977557D-05  0.24725315D-17  0.36415668D-17
 -0.49843072D-07 -0.49179768D-04 -0.51461328D-04 -0.43847806D-04 -0.28877095D-04
 -0.13308593D-04 -0.39852798D-05 -0.67806157D-06 -0.49179768D-04 -0.51461328D-04
 -0.43847806D-04 -0.28877095D-04 -0.13308593D-04 -0.39852798D-05 -0.67806157D-06
  0.98359535D-04  0.10292266D-03  0.87695611D-04  0.57754190D-04  0.26617187D-04
  0.79705596D-05  0.13561231D-05  0.27899652D-14  0.29193980D-14  0.24874834D-14
  0.16381959D-14  0.75499569D-15  0.22608468D-15  0.38466392D-16  0.64336016D-14
  0.67320708D-14  0.57360847D-14  0.37776454D-14  0.17410043D-14  0.52134655D-15
  0.88702696D-16  0.16050916D-14  0.16795554D-14  0.14310711D-14  0.94246852D-15
  0.43435568D-15  0.13006851D-15  0.22130055D-16  0.28492809D-05  0.28492809D-05
 -0.56985618D-05  0.10021039D-17 -0.22100292D-16 -0.32226900D-16 -0.44981037D-06
 -0.44981037D-06  0.89962073D-06 -0.50919512D-18  0.95325217D-17 -0.93594598D-17
 -0.26417299D-06 -0.26417299D-06  0.52834598D-06 -0.18917608D-18  0.21295547D-17