 Molden2AIM, Version 4.0.0 (06/02/2016)           Time: Thu Jun 28 23:34:36 2018
GAUSSIAN             20 MOL ORBITALS    338 PRIMITIVES        2 NUCLEI
  C    1    (CENTRE  1)   0.00000000  0.00000000 -0.18384956  CHARGE =  6.0
  Br   2    (CENTRE  2)   0.00000000  0.00000000  3.01843875  CHARGE = 35.0
CENTRE ASSIGNMENTS    1  1  1  1  1  1  1  1  1  1  1  1  1  1  1  1  1  1  1  1
CENTRE ASSIGNMENTS    1  1  1  1  1  1  1  1  1  1  1  1  1  1  1  1  1  1  1  1
CENTRE ASSIGNMENTS    1  1  1  1  1  1  1  1  1  1  1  1  1  1  1  1  1  1  1  1
CENTRE ASSIGNMENTS    1  1  1  1  1  1  1  1  1  1  1  1  1  1  1  2  2  2  2  2
CENTRE ASSIGNMENTS    2  2  2  2  2  2  2  2  2  2  2  2  2  2  2  2  2  2  2  2
CENTRE ASSIGNMENTS    2  2  2  2  2  2  2  2  2  2  2  2  2  2  2  2  2  2  2  2
CENTRE ASSIGNMENTS    2  2  2  2  2  2  2  2  2  2  2  2  2  2  2  2  2  2  2  2
CENTRE ASSIGNMENTS    2  2  2  2  2  2  2  2  2  2  2  2  2  2  2  2  2  2  2  2
CENTRE ASSIGNMENTS    2  2  2  2  2  2  2  2  2  2  2  2  2  2  2  2  2  2  2  2
CENTRE ASSIGNMENTS    2  2  2  2  2  2  2  2  2  2  2  2  2  2  2  2  2  2  2  2
CENTRE ASSIGNMENTS    2  2  2  2  2  2  2  2  2  2  2  2  2  2  2  2  2  2  2  2
CENTRE ASSIGNMENTS    2  2  2  2  2  2  2  2  2  2  2  2  2  2  2  2  2  2  2  2
CENTRE ASSIGNMENTS    2  2  2  2  2  2  2  2  2  2  2  2  2  2  2  2  2  2  2  2
CENTRE ASSIGNMENTS    2  2  2  2  2  2  2  2  2  2  2  2  2  2  2  2  2  2  2  2
CENTRE ASSIGNMENTS    2  2  2  2  2  2  2  2  2  2  2  2  2  2  2  2  2  2  2  2
CENTRE ASSIGNMENTS    2  2  2  2  2  2  2  2  2  2  2  2  2  2  2  2  2  2  2  2
CENTRE ASSIGNMENTS    2  2  2  2  2  2  2  2  2  2  2  2  2  2  2  2  2  2
TYPE ASSIGNMENTS      1  1  1  1  1  1  1  1  1  1  1  1  1  1  1  1  1  1  1  2
TYPE ASSIGNMENTS      2  2  3  3  3  4  4  4  2  3  4  2  3  4  2  3  4  5  6  7
TYPE ASSIGNMENTS      8  9 10  5  6  7  8  9 10  5  6  7  8  9 10 11 12 13 17 14
TYPE ASSIGNMENTS     15 18 19 16 20 11 12 13 17 14 15 18 19 16 20  1  1  1  1  1
TYPE ASSIGNMENTS      1  1  1  1  1  1  1  1  1  1  1  1  1  1  1  1  1  1  1  1
TYPE ASSIGNMENTS      1  1  1  1  1  1  1  1  1  1  1  1  1  1  1  1  1  1  1  1
TYPE ASSIGNMENTS      1  1  1  1  1  1  1  1  1  1  1  1  1  1  1  1  1  1  1  1
TYPE ASSIGNMENTS      1  1  1  1  1  1  1  1  1  1  2  2  2  2  2  2  2  2  2  2
TYPE ASSIGNMENTS      2  3  3  3  3  3  3  3  3  3  3  3  4  4  4  4  4  4  4  4
TYPE ASSIGNMENTS      4  4  4  2  2  2  2  2  2  2  2  2  2  2  3  3  3  3  3  3
TYPE ASSIGNMENTS      3  3  3  3  3  4  4  4  4  4  4  4  4  4  4  4  2  2  2  2
TYPE ASSIGNMENTS      2  2  2  2  2  2  2  3  3  3  3  3  3  3  3  3  3  3  4  4
TYPE ASSIGNMENTS      4  4  4  4  4  4  4  4  4  2  3  4  2  3  4  2  3  4  5  5
TYPE ASSIGNMENTS      5  5  5  5  5  6  6  6  6  6  6  6  7  7  7  7  7  7  7  8
TYPE ASSIGNMENTS      8  8  8  8  8  8  9  9  9  9  9  9  9 10 10 10 10 10 10 10
TYPE ASSIGNMENTS      5  6  7  8  9 10  5  6  7  8  9 10  5  6  7  8  9 10 11 12
TYPE ASSIGNMENTS     13 17 14 15 18 19 16 20 11 12 13 17 14 15 18 19 16 20
EXPONENTS  0.8236000D+04 0.1235000D+04 0.2808000D+03 0.7927000D+02 0.2559000D+02
EXPONENTS  0.8997000D+01 0.3319000D+01 0.3643000D+00 0.8236000D+04 0.1235000D+04
EXPONENTS  0.2808000D+03 0.7927000D+02 0.2559000D+02 0.8997000D+01 0.3319000D+01
EXPONENTS  0.3643000D+00 0.9059000D+00 0.1285000D+00 0.4402000D-01 0.1871000D+02
EXPONENTS  0.4133000D+01 0.1200000D+01 0.1871000D+02 0.4133000D+01 0.1200000D+01
EXPONENTS  0.1871000D+02 0.4133000D+01 0.1200000D+01 0.3827000D+00 0.3827000D+00
EXPONENTS  0.3827000D+00 0.1209000D+00 0.1209000D+00 0.1209000D+00 0.3569000D-01
EXPONENTS  0.3569000D-01 0.3569000D-01 0.1097000D+01 0.1097000D+01 0.1097000D+01
EXPONENTS  0.1097000D+01 0.1097000D+01 0.1097000D+01 0.3180000D+00 0.3180000D+00
EXPONENTS  0.3180000D+00 0.3180000D+00 0.3180000D+00 0.3180000D+00 0.1000000D+00
EXPONENTS  0.1000000D+00 0.1000000D+00 0.1000000D+00 0.1000000D+00 0.1000000D+00
EXPONENTS  0.7610000D+00 0.7610000D+00 0.7610000D+00 0.7610000D+00 0.7610000D+00
EXPONENTS  0.7610000D+00 0.7610000D+00 0.7610000D+00 0.7610000D+00 0.7610000D+00
EXPONENTS  0.2680000D+00 0.2680000D+00 0.2680000D+00 0.2680000D+00 0.2680000D+00
EXPONENTS  0.2680000D+00 0.2680000D+00 0.2680000D+00 0.2680000D+00 0.2680000D+00
EXPONENTS  0.1063900D+08 0.1593400D+07 0.3626100D+06 0.1027000D+06 0.3350100D+05
EXPONENTS  0.1209300D+05 0.4715900D+04 0.1955600D+04 0.8526100D+03 0.3876700D+03
EXPONENTS  0.1826800D+03 0.8824500D+02 0.3926300D+02 0.1923400D+02 0.9405700D+01
EXPONENTS  0.4160100D+01 0.1899500D+01 0.3011400D+00 0.1063900D+08 0.1593400D+07
EXPONENTS  0.3626100D+06 0.1027000D+06 0.3350100D+05 0.1209300D+05 0.4715900D+04
EXPONENTS  0.1955600D+04 0.8526100D+03 0.3876700D+03 0.1826800D+03 0.8824500D+02
EXPONENTS  0.3926300D+02 0.1923400D+02 0.9405700D+01 0.4160100D+01 0.1899500D+01
EXPONENTS  0.3011400D+00 0.1063900D+08 0.1593400D+07 0.3626100D+06 0.1027000D+06
EXPONENTS  0.3350100D+05 0.1209300D+05 0.4715900D+04 0.1955600D+04 0.8526100D+03
EXPONENTS  0.3876700D+03 0.1826800D+03 0.8824500D+02 0.3926300D+02 0.1923400D+02
EXPONENTS  0.9405700D+01 0.4160100D+01 0.1899500D+01 0.3011400D+00 0.1063900D+08
EXPONENTS  0.1593400D+07 0.3626100D+06 0.1027000D+06 0.3350100D+05 0.1209300D+05
EXPONENTS  0.4715900D+04 0.1955600D+04 0.8526100D+03 0.3876700D+03 0.1826800D+03
EXPONENTS  0.8824500D+02 0.3926300D+02 0.1923400D+02 0.9405700D+01 0.4160100D+01
EXPONENTS  0.1899500D+01 0.3011400D+00 0.6047200D+00 0.1251500D+00 0.4559300D-01
EXPONENTS  0.8676500D+04 0.2055900D+04 0.6662300D+03 0.2531000D+03 0.1061200D+03
EXPONENTS  0.4724200D+02 0.2182500D+02 0.9968400D+01 0.4517100D+01 0.1998200D+01
EXPONENTS  0.2814500D+00 0.8676500D+04 0.2055900D+04 0.6662300D+03 0.2531000D+03
EXPONENTS  0.1061200D+03 0.4724200D+02 0.2182500D+02 0.9968400D+01 0.4517100D+01
EXPONENTS  0.1998200D+01 0.2814500D+00 0.8676500D+04 0.2055900D+04 0.6662300D+03
EXPONENTS  0.2531000D+03 0.1061200D+03 0.4724200D+02 0.2182500D+02 0.9968400D+01
EXPONENTS  0.4517100D+01 0.1998200D+01 0.2814500D+00 0.8676500D+04 0.2055900D+04
EXPONENTS  0.6662300D+03 0.2531000D+03 0.1061200D+03 0.4724200D+02 0.2182500D+02
EXPONENTS  0.9968400D+01 0.4517100D+01 0.1998200D+01 0.2814500D+00 0.8676500D+04
EXPONENTS  0.2055900D+04 0.6662300D+03 0.2531000D+03 0.1061200D+03 0.4724200D+02
EXPONENTS  0.2182500D+02 0.9968400D+01 0.4517100D+01 0.1998200D+01 0.2814500D+00
EXPONENTS  0.8676500D+04 0.2055900D+04 0.6662300D+03 0.2531000D+03 0.1061200D+03
EXPONENTS  0.4724200D+02 0.2182500D+02 0.9968400D+01 0.4517100D+01 0.1998200D+01
EXPONENTS  0.2814500D+00 0.8676500D+04 0.2055900D+04 0.6662300D+03 0.2531000D+03
EXPONENTS  0.1061200D+03 0.4724200D+02 0.2182500D+02 0.9968400D+01 0.4517100D+01
EXPONENTS  0.1998200D+01 0.2814500D+00 0.8676500D+04 0.2055900D+04 0.6662300D+03
EXPONENTS  0.2531000D+03 0.1061200D+03 0.4724200D+02 0.2182500D+02 0.9968400D+01
EXPONENTS  0.4517100D+01 0.1998200D+01 0.2814500D+00 0.8676500D+04 0.2055900D+04
EXPONENTS  0.6662300D+03 0.2531000D+03 0.1061200D+03 0.4724200D+02 0.2182500D+02
EXPONENTS  0.9968400D+01 0.4517100D+01 0.1998200D+01 0.2814500D+00 0.7098800D+00
EXPONENTS  0.7098800D+00 0.7098800D+00 0.1020400D+00 0.1020400D+00 0.1020400D+00
EXPONENTS  0.3514200D-01 0.3514200D-01 0.3514200D-01 0.4038300D+03 0.1211700D+03
EXPONENTS  0.4634500D+02 0.1972100D+02 0.8862400D+01 0.3996200D+01 0.1763600D+01
EXPONENTS  0.4038300D+03 0.1211700D+03 0.4634500D+02 0.1972100D+02 0.8862400D+01
EXPONENTS  0.3996200D+01 0.1763600D+01 0.4038300D+03 0.1211700D+03 0.4634500D+02
EXPONENTS  0.1972100D+02 0.8862400D+01 0.3996200D+01 0.1763600D+01 0.4038300D+03
EXPONENTS  0.1211700D+03 0.4634500D+02 0.1972100D+02 0.8862400D+01 0.3996200D+01
EXPONENTS  0.1763600D+01 0.4038300D+03 0.1211700D+03 0.4634500D+02 0.1972100D+02
EXPONENTS  0.8862400D+01 0.3996200D+01 0.1763600D+01 0.4038300D+03 0.1211700D+03
EXPONENTS  0.4634500D+02 0.1972100D+02 0.8862400D+01 0.3996200D+01 0.1763600D+01
EXPONENTS  0.7061900D+00 0.7061900D+00 0.7061900D+00 0.7061900D+00 0.7061900D+00
EXPONENTS  0.7061900D+00 0.2639000D+00 0.2639000D+00 0.2639000D+00 0.2639000D+00
EXPONENTS  0.2639000D+00 0.2639000D+00 0.1047000D+00 0.1047000D+00 0.1047000D+00
EXPONENTS  0.1047000D+00 0.1047000D+00 0.1047000D+00 0.5515000D+00 0.5515000D+00
EXPONENTS  0.5515000D+00 0.5515000D+00 0.5515000D+00 0.5515000D+00 0.5515000D+00
EXPONENTS  0.5515000D+00 0.5515000D+00 0.5515000D+00 0.2580000D+00 0.2580000D+00
EXPONENTS  0.2580000D+00 0.2580000D+00 0.2580000D+00 0.2580000D+00 0.2580000D+00
EXPONENTS  0.2580000D+00 0.2580000D+00 0.2580000D+00
MO    1     MO 0.0        OCC NO =    2.0000000  ORB. ENERGY = -481.411565
  0.75714232D-05  0.14114854D-04  0.23856590D-04  0.35864269D-04  0.44063399D-04
  0.37218584D-04  0.14037481D-04 -0.69472275D-07 -0.46142003D-05 -0.86392388D-05
 -0.14709043D-04 -0.22752653D-04 -0.29964444D-04 -0.31134977D-04 -0.19784880D-04
  0.13259366D-04 -0.16437129D-04 -0.26837615D-04 -0.76647449D-06  0.25198904D-15
  0.23625574D-15  0.16822816D-15  0.36969361D-16  0.34661126D-16  0.24680786D-16
 -0.21573892D-04 -0.20226895D-04 -0.14402754D-04 -0.64024996D-16 -0.23901056D-16
  0.20814032D-04  0.64882583D-17 -0.34313838D-17 -0.10172396D-05  0.56673187D-17
  0.71022865D-18  0.13836153D-06 -0.72202080D-06 -0.72202080D-06  0.14440416D-05
  0.38260346D-15  0.12501029D-15  0.75009956D-15 -0.59549332D-05 -0.59549332D-05
  0.11909866D-04 -0.40736422D-16 -0.44742326D-16 -0.64503992D-16 -0.46633180D-06
 -0.46633180D-06  0.93266361D-06  0.39003761D-17  0.55971828D-17  0.57592982D-18
  0.34542668D-16  0.51215014D-16  0.14480423D-05  0.46337941D-17 -0.69683928D-16
 -0.21720634D-05 -0.10826180D-15 -0.83961114D-16 -0.21720634D-05 -0.51159947D-17
 -0.38236689D-17  0.12998604D-17  0.23055001D-05  0.21010712D-17  0.40759677D-17
 -0.34582502D-05  0.93699356D-17 -0.79755489D-17 -0.34582502D-05  0.16173571D-17
  0.78329627D+00  0.14734757D+01  0.25506591D+01  0.41810182D+01  0.65496460D+01
  0.98446758D+01  0.14070515D+02  0.18678958D+02  0.21754183D+02  0.19981007D+02
  0.11683681D+02  0.30658563D+01  0.16760917D+00 -0.59990588D-02  0.16765476D-02
 -0.49782356D-03  0.84870298D-04  0.69242490D-05  0.99197147D-04  0.18225590D-03
  0.31516245D-03  0.51612255D-03  0.81261177D-03  0.12271234D-02  0.17912254D-02
  0.24666262D-02  0.31516879D-02  0.34357091D-02  0.28281176D-02  0.77545065D-03
 -0.15641342D-02 -0.15243171D-02 -0.33356353D-03 -0.11237448D-04 -0.38068884D-06
  0.96842331D-09 -0.59883601D-04 -0.11739584D-03 -0.20561591D-03 -0.33590949D-03
 -0.52981018D-03 -0.79945990D-03 -0.11721671D-02 -0.16183705D-02 -0.20982254D-02
 -0.23333501D-02 -0.20266582D-02 -0.58870797D-03  0.14841257D-02  0.21624757D-02
  0.37227792D-03 -0.90819871D-03 -0.43227969D-03  0.20876106D-05  0.21085097D-04
  0.45686313D-04  0.77773703D-04  0.12694763D-03  0.20012048D-03  0.30203960D-03
  0.44283928D-03  0.61219387D-03  0.79456622D-03  0.88766941D-03  0.77539933D-03
  0.22967404D-03 -0.59702056D-03 -0.91841942D-03 -0.16075144D-03  0.50708154D-03
  0.43043554D-03 -0.16059165D-03  0.15674303D-03  0.44070513D-04  0.20306252D-05
  0.17403073D-14  0.24970329D-14  0.33062043D-14  0.38177292D-14  0.35392106D-14
  0.22913495D-14  0.80876221D-15  0.94793905D-16  0.13781279D-17  0.20181150D-18
  0.20749356D-20 -0.48924267D-15 -0.70197661D-15 -0.92945436D-15 -0.10732564D-14
 -0.99495809D-15 -0.64415401D-15 -0.22736271D-15 -0.26648870D-16 -0.38742525D-18
 -0.56734115D-19 -0.58331481D-21  0.20208865D-03  0.28996143D-03  0.38392435D-03
  0.44332385D-03  0.41098160D-03  0.26607698D-03  0.93915403D-04  0.11007695D-04
  0.16003151D-06  0.23434834D-07  0.24094648D-09  0.23053709D-15  0.33278294D-15
  0.44459005D-15  0.52818662D-15  0.51185332D-15  0.35580335D-15  0.11577500D-15
 -0.52107936D-16 -0.56293956D-16 -0.14492707D-16  0.14136297D-19 -0.83219420D-15
 -0.12012819D-14 -0.16048839D-14 -0.19066513D-14 -0.18476913D-14 -0.12843811D-14
 -0.41792529D-15  0.18809955D-15  0.20321027D-15  0.52315861D-16 -0.51029292D-19
 -0.13981321D-02 -0.20182198D-02 -0.26962934D-02 -0.32032793D-02 -0.31042232D-02
 -0.21578311D-02 -0.70213754D-03  0.31601761D-03  0.34140446D-03  0.87893532D-04
 -0.85732024D-07 -0.19991124D-15 -0.29047989D-15 -0.38619639D-15 -0.46340893D-15
 -0.44835019D-15 -0.31827643D-15 -0.98921115D-16  0.56794264D-16  0.65244001D-16
  0.17326118D-16 -0.62513174D-17  0.66073066D-15  0.96007095D-15  0.12764255D-14
  0.15316222D-14  0.14818513D-14  0.10519418D-14  0.32694617D-15 -0.18771187D-15
 -0.21563926D-15 -0.57264902D-16  0.20661355D-16  0.10398069D-02  0.15108856D-02
  0.20087399D-02  0.24103488D-02  0.23320231D-02  0.16554649D-02  0.51452265D-03
 -0.29540645D-03 -0.33935643D-03 -0.90119082D-04  0.32515246D-04  0.58493317D-17
 -0.89284573D-17 -0.94236801D-05 -0.11979546D-16  0.81388656D-18 -0.15633299D-04
 -0.93974964D-18 -0.29170469D-18 -0.83885253D-07 -0.12321170D-03 -0.12892777D-03
 -0.10985336D-03 -0.72346743D-04 -0.33342460D-04 -0.99844536D-05 -0.16987701D-05
 -0.12321170D-03 -0.12892777D-03 -0.10985336D-03 -0.72346743D-04 -0.33342460D-04
 -0.99844536D-05 -0.16987701D-05  0.24642340D-03  0.25785554D-03  0.21970672D-03
  0.14469349D-03  0.66684920D-04  0.19968907D-04  0.33975403D-05 -0.90006758D-15
 -0.94182374D-15 -0.80248424D-15 -0.52849654D-15 -0.24356832D-15 -0.72936927D-16
 -0.12409600D-16  0.12052248D-15  0.12611379D-15  0.10745570D-15  0.70767703D-16
  0.32614727D-16  0.97665329D-17  0.16616928D-17  0.96335617D-15  0.10080484D-14
  0.85891122D-15  0.56565797D-15  0.26069492D-15  0.78065515D-16  0.13282186D-16
  0.68633657D-05  0.68633657D-05 -0.13726731D-04  0.63661289D-18  0.19941777D-16
  0.91362477D-17  0.18004423D-05  0.18004423D-05 -0.36008847D-05  0.10837215D-16
 -0.32128541D-16 -0.34808704D-16 -0.13850503D-05 -0.13850503D-05  0.27701007D-05
 -0.14089900D-17  0.94562413D-17  0.26809398D-17 -0.75747793D-17 -0.12102771D-16
  0.89538166D-05 -0.50039401D-17 -0.11272554D-16 -0.13430725D-04  0.27728278D-16
  0.47580867D-16 -0.13430725D-04 -0.57430082D-17  0.22375391D-17  0.48325390D-18
 -0.16465531D-05 -0.12899692D-17 -0.16784807D-17  0.24698296D-05 -0.54226481D-17
  0.22871897D-18  0.24698296D-05  0.18267786D-16
MO    2     MO 0.0        OCC NO =    2.0000000  ORB. ENERGY =  -62.215099
  0.20456139D-03  0.38134894D-03  0.64454688D-03  0.96896509D-03  0.11904856D-02
  0.10055554D-02  0.37925849D-03 -0.18769714D-05 -0.12328595D-03 -0.23083019D-03
 -0.39300815D-03 -0.60792386D-03 -0.80061433D-03 -0.83188957D-03 -0.52862848D-03
  0.35427451D-03 -0.49221070D-03 -0.10287440D-02 -0.58046362D-04  0.55877112D-16
  0.52388345D-16  0.37303622D-16 -0.72524261D-16 -0.67996104D-16 -0.48417277D-16
 -0.65193159D-03 -0.61122730D-03 -0.43523025D-03  0.23801075D-16 -0.45056559D-16
  0.56113039D-03 -0.14632670D-16 -0.73049762D-17 -0.79352752D-04 -0.12805839D-17
 -0.36845269D-17  0.21926977D-05  0.94815818D-05  0.94815818D-05 -0.18963164D-04
  0.19859394D-15 -0.45598112D-15 -0.13759059D-15 -0.18619918D-03 -0.18619918D-03
  0.37239836D-03 -0.44052382D-16  0.21486034D-16 -0.13734317D-16 -0.14820479D-04
 -0.14820479D-04  0.29640958D-04  0.57884138D-17 -0.89717003D-17 -0.40380795D-17
 -0.11636563D-16  0.37340876D-16  0.41879089D-04 -0.19526562D-16 -0.12776516D-15
 -0.62818634D-04  0.54436252D-16  0.15742532D-16 -0.62818634D-04  0.26797374D-17
  0.58564699D-18 -0.41633149D-17  0.78587588D-04  0.12127838D-17  0.14448401D-16
 -0.11788138D-03 -0.29697248D-17 -0.19584559D-17 -0.11788138D-03 -0.32108544D-17
 -0.81834951D-03 -0.15394151D-02 -0.26648034D-02 -0.43681227D-02 -0.68427488D-02
 -0.10285234D-01 -0.14700183D-01 -0.19514859D-01 -0.22727704D-01 -0.20875176D-01
 -0.12206536D-01 -0.32030562D-02 -0.17510983D-03  0.62675223D-05 -0.17515747D-05
  0.52010163D-06 -0.88668323D-07 -0.72341156D-08  0.25362279D+00  0.46598365D+00
  0.80579313D+00  0.13195989D+01  0.20776491D+01  0.31374537D+01  0.45797243D+01
  0.63065586D+01  0.80580935D+01  0.87842661D+01  0.72308036D+01  0.19826372D+01
 -0.39991079D+01 -0.38973053D+01 -0.85284020D+00 -0.28731401D-01 -0.97332806D-03
  0.24760210D-05 -0.17873252D-02 -0.35038734D-02 -0.61369474D-02 -0.10025775D-01
 -0.15813062D-01 -0.23861205D-01 -0.34985267D-01 -0.48302948D-01 -0.62625012D-01
 -0.69642699D-01 -0.60488971D-01 -0.17570964D-01  0.44296188D-01  0.64542667D-01
  0.11111251D-01 -0.27106694D-01 -0.12902103D-01  0.62308196D-04  0.66025298D-03
  0.14306088D-02  0.24353845D-02  0.39752034D-02  0.62665181D-02  0.94579857D-02
  0.13866949D-01  0.19170072D-01  0.24880830D-01  0.27796238D-01  0.24280643D-01
  0.71919502D-02 -0.18694939D-01 -0.28759135D-01 -0.50337269D-02  0.15878613D-01
  0.13478541D-01 -0.50287233D-02  0.52359801D-02  0.15778685D-02  0.10771413D-03
 -0.17045675D-13 -0.24457525D-13 -0.32383063D-13 -0.37393263D-13 -0.34665275D-13
 -0.22442931D-13 -0.79215305D-14 -0.92847168D-15 -0.13498260D-16 -0.19766699D-17
 -0.20323236D-19  0.53624409D-14  0.76941533D-14  0.10187468D-13  0.11763639D-13
  0.10905435D-13  0.70603772D-14  0.24920539D-14  0.29209020D-15  0.42464509D-17
  0.62184547D-18  0.63935371D-20  0.77688626D-02  0.11146942D-01  0.14759144D-01
  0.17042630D-01  0.15799302D-01  0.10228756D-01  0.36103753D-02  0.42316711D-03
  0.61520666D-05  0.90090167D-06  0.92626683D-08 -0.28390635D-15 -0.40982208D-15
 -0.54751250D-15 -0.65046165D-15 -0.63034720D-15 -0.43817171D-15 -0.14257687D-15
  0.64170907D-16  0.69325989D-16  0.17847764D-16 -0.17408845D-19 -0.10909074D-14
 -0.15747373D-14 -0.21038114D-14 -0.24993925D-14 -0.24221029D-14 -0.16836705D-14
 -0.54785022D-15  0.24657608D-15  0.26638443D-15  0.68579855D-16 -0.66893316D-19
 -0.39880753D-01 -0.57568325D-01 -0.76909906D-01 -0.91371328D-01 -0.88545820D-01
 -0.61550640D-01 -0.20027988D-01  0.90141839D-02  0.97383261D-02  0.25071022D-02
 -0.24454467D-05  0.48546400D-16  0.70540072D-16  0.93783844D-16  0.11253412D-15
  0.10887726D-15  0.77290177D-16  0.24021981D-16 -0.13791906D-16 -0.15843839D-16
 -0.42074706D-17  0.15180685D-17  0.63674632D-15  0.92522065D-15  0.12300916D-14
  0.14760248D-14  0.14280605D-14  0.10137567D-14  0.31507812D-15 -0.18089798D-15
 -0.20781162D-15 -0.55186202D-16  0.19911354D-16  0.30726374D-01  0.44646785D-01
  0.59358418D-01  0.71225993D-01  0.68911463D-01  0.48919115D-01  0.15204184D-01
 -0.87292833D-02 -0.10028009D-01 -0.26630258D-02  0.96082803D-03  0.19748942D-16
 -0.65747873D-16 -0.16002156D-03  0.13929243D-16  0.10298513D-16 -0.56823368D-03
  0.35454927D-17  0.21819999D-17 -0.45547709D-05 -0.37294412D-02 -0.39024583D-02
 -0.33251034D-02 -0.21898320D-02 -0.10092284D-02 -0.30221506D-03 -0.51419331D-04
 -0.37294412D-02 -0.39024583D-02 -0.33251034D-02 -0.21898320D-02 -0.10092284D-02
 -0.30221506D-03 -0.51419331D-04  0.74588823D-02  0.78049167D-02  0.66502068D-02
  0.43796639D-02  0.20184567D-02  0.60443013D-03  0.10283866D-03 -0.20961830D-14
 -0.21934296D-14 -0.18689195D-14 -0.12308248D-14 -0.56725048D-15 -0.16986408D-15
 -0.28900932D-16 -0.73950943D-15 -0.77381694D-15 -0.65933345D-15 -0.43422092D-15
 -0.20011949D-15 -0.59926106D-16 -0.10195919D-16 -0.15258950D-14 -0.15966847D-14
 -0.13604608D-14 -0.89596630D-15 -0.41292419D-15 -0.12365082D-15 -0.21038138D-16
  0.23355532D-03  0.23355532D-03 -0.46711064D-03  0.61306909D-17  0.23118262D-16
  0.50527723D-16  0.38502207D-04  0.38502207D-04 -0.77004414D-04  0.29553882D-16
  0.78435910D-17 -0.79149868D-17 -0.48411510D-04 -0.48411510D-04  0.96823021D-04
 -0.66495818D-17 -0.97843673D-17 -0.57316132D-17  0.62938882D-17 -0.42617119D-17
  0.28159780D-03  0.62544865D-17 -0.20240500D-17 -0.42239671D-03 -0.25136151D-16
  0.14809186D-16 -0.42239671D-03 -0.34349687D-17  0.57923861D-18 -0.47447720D-18
 -0.60854095D-04  0.52900937D-18 -0.38847248D-17  0.91281143D-04 -0.22667252D-17
  0.53081564D-17  0.91281143D-04  0.14905122D-16
MO    3     MO 0.0        OCC NO =    2.0000000  ORB. ENERGY =  -56.127497
  0.81602680D-04  0.15212595D-03  0.25711965D-03  0.38653506D-03  0.47490298D-03
  0.40113149D-03  0.15129204D-03 -0.74875274D-06 -0.55620108D-04 -0.10413839D-03
 -0.17730452D-03 -0.27426313D-03 -0.36119490D-03 -0.37530464D-03 -0.23848925D-03
  0.15982995D-03 -0.10061535D-03  0.11880264D-02  0.21127322D-03 -0.26826619D-14
 -0.25151660D-14 -0.17909480D-14 -0.83675359D-15 -0.78450968D-15 -0.55861763D-15
 -0.29463639D-03 -0.27624035D-03 -0.19669958D-03  0.22596557D-14  0.11947316D-14
  0.68300377D-03  0.10548633D-14  0.56846722D-15  0.46644265D-03  0.26839238D-16
  0.17807564D-16  0.16317153D-04 -0.22799670D-04 -0.22799670D-04  0.45599340D-04
  0.46027082D-16 -0.49472732D-14 -0.25590556D-14 -0.98420485D-04 -0.98420485D-04
  0.19684097D-03 -0.17360071D-16  0.41300467D-14  0.22079629D-14 -0.13682057D-04
 -0.13682057D-04  0.27364115D-04  0.10708753D-17  0.24325709D-15  0.14178893D-15
  0.28496204D-15  0.21530301D-15 -0.43484320D-04  0.25350957D-15 -0.16146651D-16
  0.65226480D-04 -0.11083957D-14 -0.62976238D-15  0.65226480D-04 -0.40909567D-17
 -0.32701907D-15 -0.17800071D-15  0.62169514D-05 -0.32391616D-15 -0.16809317D-15
 -0.93254270D-05  0.13049734D-14  0.70209531D-15 -0.93254270D-05  0.86651923D-19
  0.15635188D-04  0.29411694D-04  0.50913092D-04  0.83456299D-04  0.13073591D-03
  0.19650720D-03  0.28085816D-03  0.37284619D-03  0.43423002D-03  0.39883608D-03
  0.23321514D-03  0.61196819D-04  0.33456062D-05 -0.11974577D-06  0.33465164D-07
 -0.99369363D-08  0.16940756D-08  0.13821327D-09 -0.21097999D-04 -0.38763562D-04
 -0.67031132D-04 -0.10977285D-03 -0.17283241D-03 -0.26099388D-03 -0.38097136D-03
 -0.52462070D-03 -0.67032481D-03 -0.73073259D-03 -0.60150544D-03 -0.16492871D-03
  0.33267190D-03  0.32420329D-03  0.70944814D-04  0.23900655D-05  0.80967781D-07
 -0.20597159D-09  0.43311957D-04  0.84908786D-04  0.14871563D-03  0.24295295D-03
  0.38319533D-03  0.57822464D-03  0.84779220D-03  0.11705174D-02  0.15175816D-02
  0.16876400D-02  0.14658193D-02  0.42579428D-03 -0.10734222D-02 -0.15640518D-02
 -0.26925711D-03  0.65687206D-03  0.31265454D-03 -0.15099042D-05 -0.22525917D-04
 -0.48808222D-04 -0.83088259D-04 -0.13562241D-03 -0.21379543D-03 -0.32267905D-03
 -0.47310007D-03 -0.65402726D-03 -0.84886177D-03 -0.94832704D-03 -0.82838514D-03
 -0.24536848D-03  0.63781711D-03  0.98117831D-03  0.17173616D-03 -0.54173224D-03
 -0.45984874D-03  0.17156546D-03  0.23098169D-03 -0.12667956D-02 -0.21341436D-03
 -0.13397688D-08 -0.19223310D-08 -0.25452684D-08 -0.29390639D-08 -0.27246474D-08
 -0.17639864D-08 -0.62262242D-09 -0.72976716D-10 -0.10609464D-11 -0.15536379D-12
 -0.15973810D-14 -0.68059723D-09 -0.97653652D-09 -0.12929863D-08 -0.14930328D-08
 -0.13841101D-08 -0.89609811D-09 -0.31628972D-09 -0.37071883D-10 -0.53895656D-12
 -0.78924189D-13 -0.81146323D-15  0.52021737D+02  0.74641981D+02  0.98829952D+02
  0.11412059D+03  0.10579504D+03  0.68493637D+02  0.24175739D+02  0.28336050D+01
  0.41195372D-01  0.60326037D-02  0.62024535D-04  0.15968341D-12  0.23050484D-12
  0.30794895D-12  0.36585280D-12  0.35453941D-12  0.24645011D-12  0.80192503D-13
 -0.36092990D-13 -0.38992471D-13 -0.10038492D-13  0.97916224D-17  0.84880586D-13
  0.12252610D-12  0.16369194D-12  0.19447105D-12  0.18845735D-12  0.13100190D-12
  0.42626762D-13 -0.19185426D-13 -0.20726661D-13 -0.53360153D-14  0.52047902D-17
 -0.36315308D-01 -0.52421564D-01 -0.70033956D-01 -0.83202489D-01 -0.80629589D-01
 -0.56047850D-01 -0.18237433D-01  0.82082920D-02  0.88676939D-02  0.22829606D-02
 -0.22268173D-05 -0.35277223D-12 -0.51259370D-12 -0.68149927D-12 -0.81775194D-12
 -0.79117862D-12 -0.56164470D-12 -0.17456058D-12  0.10022168D-12  0.11513246D-12
  0.30574436D-13 -0.11031352D-13 -0.18106975D-12 -0.26310238D-12 -0.34979767D-12
 -0.41973299D-12 -0.40609352D-12 -0.28827912D-12 -0.89597874D-13  0.51441447D-13
  0.59094803D-13  0.15693144D-13 -0.56621354D-14  0.34954127D-01  0.50789897D-01
  0.67525757D-01  0.81026234D-01  0.78393240D-01  0.55650072D-01  0.17296182D-01
 -0.99303768D-02 -0.11407799D-01 -0.30294412D-02  0.10930318D-02  0.45169699D-13
  0.23071282D-13 -0.23584872D-02  0.66555887D-15  0.30139201D-15  0.32098950D-03
 -0.12504323D-15 -0.65015974D-16  0.85781418D-05  0.11560696D-03  0.12097022D-03
  0.10307311D-03  0.67881432D-04  0.31284531D-04  0.93682035D-05  0.15939204D-05
  0.11560696D-03  0.12097022D-03  0.10307311D-03  0.67881432D-04  0.31284531D-04
  0.93682035D-05  0.15939204D-05 -0.23121391D-03 -0.24194045D-03 -0.20614621D-03
 -0.13576286D-03 -0.62569062D-04 -0.18736407D-04 -0.31878408D-05 -0.30925519D-15
 -0.32360223D-15 -0.27572642D-15 -0.18158669D-15 -0.83687901D-16 -0.25060477D-16
 -0.42638278D-17 -0.13278960D-13 -0.13895001D-13 -0.11839285D-13 -0.77970639D-14
 -0.35934346D-14 -0.10760598D-14 -0.18308245D-15 -0.28912349D-14 -0.30253658D-14
 -0.25777736D-14 -0.16976588D-14 -0.78240038D-15 -0.23429106D-15 -0.39862638D-16
 -0.75965244D-04 -0.75965244D-04  0.15193049D-03 -0.19711348D-17 -0.16909232D-14
 -0.96993303D-15  0.13719071D-03  0.13719071D-03 -0.27438142D-03  0.69125461D-17
  0.30884648D-14  0.16506596D-14  0.13975832D-04  0.13975832D-04 -0.27951664D-04
 -0.15005653D-17  0.14178354D-15  0.79361726D-16  0.22861879D-15  0.13376627D-15
  0.55083691D-04  0.23048636D-15  0.13793498D-15 -0.82625536D-04 -0.91634271D-15
 -0.53923378D-15 -0.82625536D-04  0.37653738D-17  0.21764187D-15  0.11706855D-15
  0.36207099D-04  0.21713660D-15  0.11552334D-15 -0.54310648D-04 -0.87006222D-15
 -0.46672900D-15 -0.54310648D-04  0.34266500D-19
MO    4     MO 0.0        OCC NO =    2.0000000  ORB. ENERGY =  -56.127026
  0.17599031D-14  0.32808596D-14  0.55452307D-14  0.83362981D-14  0.10242105D-13
  0.86510953D-14  0.32628749D-14 -0.16148150D-16 -0.11726342D-14 -0.21955412D-14
 -0.37380968D-14 -0.57822674D-14 -0.76150427D-14 -0.79125172D-14 -0.50280495D-14
  0.33696818D-14 -0.21244058D-14  0.25271926D-13  0.45156070D-14  0.38128607D-04
  0.35747993D-04  0.25454701D-04  0.10034151D-03  0.94076546D-04  0.66988105D-04
 -0.64785290D-14 -0.60740327D-14 -0.43250732D-14 -0.31470562D-04 -0.82819805D-04
  0.14527312D-13 -0.14228494D-04 -0.37444553D-04  0.99132425D-14 -0.39496207D-06
 -0.10394057D-05  0.35018475D-15 -0.33697705D-15 -0.54190083D-15  0.87887788D-15
 -0.35160250D-16  0.64854356D-04  0.17067458D-03 -0.20872182D-14 -0.20503503D-14
  0.41375684D-14  0.18296064D-16 -0.55966529D-04 -0.14728485D-03 -0.29393176D-15
 -0.29716127D-15  0.59109304D-15 -0.83557281D-17 -0.33617782D-05 -0.88470556D-05
 -0.38810006D-05 -0.10213472D-04 -0.92563452D-15 -0.38810008D-05 -0.10213473D-04
  0.13730042D-14  0.15524003D-04  0.40853890D-04  0.14038993D-14  0.26763614D-16
  0.44609182D-05  0.11739618D-04  0.14203785D-15  0.44609182D-05  0.11739618D-04
 -0.21343714D-15 -0.17843673D-04 -0.46958471D-04 -0.21267643D-15 -0.10489062D-16
  0.33191561D-15  0.62437368D-15  0.10808216D-14  0.17716734D-14  0.27753608D-14
  0.41716036D-14  0.59622694D-14  0.79150609D-14  0.92181634D-14  0.84667939D-14
  0.49508674D-14  0.12991324D-14  0.71023060D-16 -0.25420538D-17  0.71042381D-18
 -0.21094880D-18  0.35963118D-19  0.29340958D-20 -0.42362794D-15 -0.77833579D-15
 -0.13459220D-14 -0.22041353D-14 -0.34703120D-14 -0.52405112D-14 -0.76495459D-14
 -0.10533889D-13 -0.13459491D-13 -0.14672422D-13 -0.12077662D-13 -0.33116130D-14
  0.66797382D-14  0.65096966D-14  0.14245050D-14  0.47990262D-16  0.16257567D-17
 -0.41357154D-20  0.93061449D-15  0.18243772D-14  0.31953514D-14  0.52201644D-14
  0.82334566D-14  0.12423918D-13  0.18215933D-13  0.25150109D-13  0.32607240D-13
  0.36261170D-13  0.31495059D-13  0.91487512D-14 -0.23063891D-13 -0.33605714D-13
 -0.57853439D-14  0.14113762D-13  0.67177948D-14 -0.32442283D-16 -0.48667919D-15
 -0.10545163D-14 -0.17951467D-14 -0.29301629D-14 -0.46191143D-14 -0.69715776D-14
 -0.10221469D-13 -0.14130455D-13 -0.18339913D-13 -0.20488890D-13 -0.17897509D-13
 -0.53012597D-14  0.13780230D-13  0.21198652D-13  0.37104113D-14 -0.11704287D-13
 -0.99351700D-14  0.37067231D-14  0.49145121D-14 -0.26899443D-13 -0.45681842D-14
  0.18475867D+02  0.26509598D+02  0.35100117D+02  0.40530690D+02  0.37573814D+02
  0.24325972D+02  0.85861749D+01  0.10063737D+01  0.14630811D-01  0.21425195D-02
  0.22028427D-04  0.48622191D+02  0.69764235D+02  0.92371556D+02  0.10666298D+03
  0.98881486D+02  0.64017677D+02  0.22595889D+02  0.26484330D+01  0.38503314D-01
  0.56383818D-02  0.57971321D-04  0.11122541D-08  0.15958876D-08  0.21130401D-08
  0.24399626D-08  0.22619576D-08  0.14644326D-08  0.51689092D-09  0.60584073D-10
  0.88078028D-12  0.12898047D-12  0.13261195D-14 -0.21646914D-02 -0.31247570D-02
 -0.41746006D-02 -0.49595536D-02 -0.48061876D-02 -0.33409135D-02 -0.10871012D-02
  0.48928181D-03  0.52858759D-03  0.13608326D-03 -0.13273665D-06 -0.56967309D-02
 -0.82232964D-02 -0.10986127D-01 -0.13051857D-01 -0.12648249D-01 -0.87921467D-02
 -0.28608802D-02  0.12876231D-02  0.13910626D-02  0.35812480D-03 -0.34931767D-06
 -0.77647018D-12 -0.11208436D-11 -0.14974203D-11 -0.17789812D-11 -0.17239692D-11
 -0.11983785D-11 -0.38994087D-12  0.17550433D-12  0.18960324D-12  0.48812772D-13
 -0.47612352D-16  0.48455225D-02  0.70407592D-02  0.93607710D-02  0.11232277D-01
  0.10867278D-01  0.77145019D-02  0.23976866D-02 -0.13766004D-02 -0.15814083D-02
 -0.41995686D-03  0.15152175D-03  0.12751766D-01  0.18528881D-01  0.24634362D-01
  0.29559529D-01  0.28598975D-01  0.20301943D-01  0.63098948D-02 -0.36227435D-02
 -0.41617281D-02 -0.11051835D-02  0.39875364D-03  0.74780575D-12  0.10865949D-11
  0.14446405D-11  0.17334687D-11  0.16771386D-11  0.11905731D-11  0.37003312D-12
 -0.21244967D-12 -0.24405751D-12 -0.64811618D-13  0.23384234D-13 -0.62161417D-03
 -0.16358768D-02 -0.50354771D-13 -0.92095226D-05 -0.24236328D-04  0.67928842D-14
  0.17431340D-05  0.45873352D-05  0.18712952D-15 -0.20755242D-14 -0.21718124D-14
 -0.18505004D-14 -0.12186944D-14 -0.56165997D-15 -0.16818999D-15 -0.28616101D-16
  0.70038886D-14  0.73288148D-14  0.62445424D-14  0.41125033D-14  0.18953303D-14
  0.56755973D-15  0.96565477D-16 -0.49283644D-14 -0.51570024D-14 -0.43940420D-14
 -0.28938089D-14 -0.13336704D-14 -0.39936975D-15 -0.67949376D-16 -0.18536336D-14
 -0.19396278D-14 -0.16526667D-14 -0.10884060D-14 -0.50161391D-15 -0.15020910D-15
 -0.25556805D-16  0.19489297D-03  0.20393449D-03  0.17376310D-03  0.11443614D-03