 Molden2AIM, Version 4.0.0 (06/02/2016)           Time: Thu Jun 28 23:54:16 2018
GAUSSIAN              7 MOL ORBITALS    150 PRIMITIVES        2 NUCLEI
  C    1    (CENTRE  1)   0.00000000  0.00000000 -1.33233251  CHARGE =  6.0
  F    2    (CENTRE  2)   0.00000000  0.00000000  0.84648392  CHARGE =  9.0
CENTRE ASSIGNMENTS    1  1  1  1  1  1  1  1  1  1  1  1  1  1  1  1  1  1  1  1
CENTRE ASSIGNMENTS    1  1  1  1  1  1  1  1  1  1  1  1  1  1  1  1  1  1  1  1
CENTRE ASSIGNMENTS    1  1  1  1  1  1  1  1  1  1  1  1  1  1  1  1  1  1  1  1
CENTRE ASSIGNMENTS    1  1  1  1  1  1  1  1  1  1  1  1  1  1  1  2  2  2  2  2
CENTRE ASSIGNMENTS    2  2  2  2  2  2  2  2  2  2  2  2  2  2  2  2  2  2  2  2
CENTRE ASSIGNMENTS    2  2  2  2  2  2  2  2  2  2  2  2  2  2  2  2  2  2  2  2
CENTRE ASSIGNMENTS    2  2  2  2  2  2  2  2  2  2  2  2  2  2  2  2  2  2  2  2
CENTRE ASSIGNMENTS    2  2  2  2  2  2  2  2  2  2
TYPE ASSIGNMENTS      1  1  1  1  1  1  1  1  1  1  1  1  1  1  1  1  1  1  1  2
TYPE ASSIGNMENTS      2  2  3  3  3  4  4  4  2  3  4  2  3  4  2  3  4  5  6  7
TYPE ASSIGNMENTS      8  9 10  5  6  7  8  9 10  5  6  7  8  9 10 11 12 13 17 14
TYPE ASSIGNMENTS     15 18 19 16 20 11 12 13 17 14 15 18 19 16 20  1  1  1  1  1
TYPE ASSIGNMENTS      1  1  1  1  1  1  1  1  1  1  1  1  1  1  2  2  2  3  3  3
TYPE ASSIGNMENTS      4  4  4  2  3  4  2  3  4  2  3  4  5  6  7  8  9 10  5  6
TYPE ASSIGNMENTS      7  8  9 10  5  6  7  8  9 10 11 12 13 17 14 15 18 19 16 20
TYPE ASSIGNMENTS     11 12 13 17 14 15 18 19 16 20
EXPONENTS  0.8236000D+04 0.1235000D+04 0.2808000D+03 0.7927000D+02 0.2559000D+02
EXPONENTS  0.8997000D+01 0.3319000D+01 0.3643000D+00 0.8236000D+04 0.1235000D+04
EXPONENTS  0.2808000D+03 0.7927000D+02 0.2559000D+02 0.8997000D+01 0.3319000D+01
EXPONENTS  0.3643000D+00 0.9059000D+00 0.1285000D+00 0.4402000D-01 0.1871000D+02
EXPONENTS  0.4133000D+01 0.1200000D+01 0.1871000D+02 0.4133000D+01 0.1200000D+01
EXPONENTS  0.1871000D+02 0.4133000D+01 0.1200000D+01 0.3827000D+00 0.3827000D+00
EXPONENTS  0.3827000D+00 0.1209000D+00 0.1209000D+00 0.1209000D+00 0.3569000D-01
EXPONENTS  0.3569000D-01 0.3569000D-01 0.1097000D+01 0.1097000D+01 0.1097000D+01
EXPONENTS  0.1097000D+01 0.1097000D+01 0.1097000D+01 0.3180000D+00 0.3180000D+00
EXPONENTS  0.3180000D+00 0.3180000D+00 0.3180000D+00 0.3180000D+00 0.1000000D+00
EXPONENTS  0.1000000D+00 0.1000000D+00 0.1000000D+00 0.1000000D+00 0.1000000D+00
EXPONENTS  0.7610000D+00 0.7610000D+00 0.7610000D+00 0.7610000D+00 0.7610000D+00
EXPONENTS  0.7610000D+00 0.7610000D+00 0.7610000D+00 0.7610000D+00 0.7610000D+00
EXPONENTS  0.2680000D+00 0.2680000D+00 0.2680000D+00 0.2680000D+00 0.2680000D+00
EXPONENTS  0.2680000D+00 0.2680000D+00 0.2680000D+00 0.2680000D+00 0.2680000D+00
EXPONENTS  0.1950000D+05 0.2923000D+04 0.6645000D+03 0.1875000D+03 0.6062000D+02
EXPONENTS  0.2142000D+02 0.7950000D+01 0.8815000D+00 0.1950000D+05 0.2923000D+04
EXPONENTS  0.6645000D+03 0.1875000D+03 0.6062000D+02 0.2142000D+02 0.7950000D+01
EXPONENTS  0.8815000D+00 0.2257000D+01 0.3041000D+00 0.9158000D-01 0.4388000D+02
EXPONENTS  0.9926000D+01 0.2930000D+01 0.4388000D+02 0.9926000D+01 0.2930000D+01
EXPONENTS  0.4388000D+02 0.9926000D+01 0.2930000D+01 0.9132000D+00 0.9132000D+00
EXPONENTS  0.9132000D+00 0.2672000D+00 0.2672000D+00 0.2672000D+00 0.7361000D-01
EXPONENTS  0.7361000D-01 0.7361000D-01 0.3107000D+01 0.3107000D+01 0.3107000D+01
EXPONENTS  0.3107000D+01 0.3107000D+01 0.3107000D+01 0.8550000D+00 0.8550000D+00
EXPONENTS  0.8550000D+00 0.8550000D+00 0.8550000D+00 0.8550000D+00 0.2920000D+00
EXPONENTS  0.2920000D+00 0.2920000D+00 0.2920000D+00 0.2920000D+00 0.2920000D+00
EXPONENTS  0.1917000D+01 0.1917000D+01 0.1917000D+01 0.1917000D+01 0.1917000D+01
EXPONENTS  0.1917000D+01 0.1917000D+01 0.1917000D+01 0.1917000D+01 0.1917000D+01
EXPONENTS  0.7240000D+00 0.7240000D+00 0.7240000D+00 0.7240000D+00 0.7240000D+00
EXPONENTS  0.7240000D+00 0.7240000D+00 0.7240000D+00 0.7240000D+00 0.7240000D+00
MO    1     MO 0.0        OCC NO =    2.0000000  ORB. ENERGY =  -24.833091
  0.44459953D-03  0.82883461D-03  0.14008765D-02  0.21059763D-02  0.25874352D-02
  0.21855026D-02  0.82429118D-03 -0.40794630D-05 -0.33065126D-03 -0.61908349D-03
 -0.10540426D-02 -0.16304436D-02 -0.21472369D-02 -0.22311167D-02 -0.14177745D-02
  0.95015950D-03  0.31276768D-03  0.40811992D-03  0.42967170D-04  0.24255585D-15
  0.22741153D-15  0.16193056D-15 -0.69555229D-19 -0.65212448D-19 -0.46435148D-19
  0.10609854D-02  0.99474127D-03  0.70831504D-03 -0.12762200D-15 -0.65414348D-16
  0.98243106D-03 -0.32295113D-16 -0.26918568D-16  0.66800384D-04 -0.34815649D-17
 -0.40244387D-17  0.43474252D-05 -0.51160376D-03 -0.51160376D-03  0.10232075D-02
  0.22662893D-15  0.22127002D-15 -0.81801719D-16 -0.58381051D-04 -0.58381051D-04
  0.11676210D-03 -0.58040951D-16 -0.10878891D-15 -0.14181207D-15  0.85756945D-06
  0.85756945D-06 -0.17151389D-05  0.89824616D-17 -0.11359782D-16  0.41405247D-17
  0.16508269D-16  0.16743844D-16 -0.11514074D-03  0.21878126D-16  0.81901212D-17
  0.17271110D-03 -0.71402934D-16 -0.58421653D-16  0.17271110D-03 -0.88213071D-16
  0.50573357D-17  0.76325154D-17  0.11565700D-04  0.47385724D-17  0.91427086D-17
 -0.17348550D-04 -0.19910579D-16 -0.32040255D-16 -0.17348550D-04  0.13525029D-16
  0.59292468D+00  0.11052373D+01  0.18736489D+01  0.28372566D+01  0.35479994D+01
  0.30544970D+01  0.11742602D+01 -0.50882615D-02  0.88581926D-03  0.16634117D-02
  0.28325032D-02  0.44370995D-02  0.59462354D-02  0.63959779D-02  0.38401367D-02
 -0.25254355D-02  0.67426167D-01 -0.12178105D-03 -0.37742355D-03 -0.10861198D-15
 -0.10622015D-15 -0.70184141D-16  0.16993775D-15  0.16619541D-15  0.10981233D-15
 -0.91954585D-02 -0.89929576D-02 -0.59420273D-02 -0.96276570D-17 -0.15790915D-16
  0.13584546D-02  0.12690947D-15  0.12909194D-15  0.72690323D-03  0.11910813D-16
 -0.62654871D-18  0.31198196D-04 -0.14720070D-02 -0.14720070D-02  0.29440140D-02
 -0.26984656D-16  0.19281964D-16  0.22915664D-15  0.45534740D-03  0.45534740D-03
 -0.91069481D-03 -0.22085679D-16 -0.15460935D-16 -0.10091957D-15  0.87914567D-04
  0.87914567D-04 -0.17582913D-03  0.21236277D-17 -0.75076376D-16 -0.85807036D-16
  0.18189322D-16  0.61896516D-16 -0.30595907D-03 -0.25407395D-17 -0.92337448D-16
  0.45893861D-03 -0.52027227D-16 -0.93352099D-16  0.45893861D-03  0.54648156D-17
 -0.24589201D-16 -0.25740783D-16  0.34496310D-03 -0.26145678D-16 -0.14505881D-16
 -0.51744465D-03  0.99913282D-16  0.91728229D-16 -0.51744465D-03 -0.80277171D-16
MO    2     MO 0.0        OCC NO =    2.0000000  ORB. ENERGY =  -10.508697
 -0.32800091D+00 -0.61146828D+00 -0.10334891D+01 -0.15536727D+01 -0.19088664D+01
 -0.16123428D+01 -0.60811638D+00  0.30096019D-02  0.20869285D-02  0.39073886D-02
  0.66526633D-02  0.10290659D-01  0.13552435D-01  0.14081848D-01  0.89483825D-02
 -0.59969979D-02 -0.36712913D-01 -0.34549676D-02 -0.12437824D-03 -0.87589338D-17
 -0.82120572D-17 -0.58474739D-17 -0.11078854D-17 -0.10387130D-17 -0.73962553D-18
 -0.11108754D-01 -0.10415163D-01 -0.74162164D-02  0.28256232D-17  0.93481839D-18
 -0.64797242D-02  0.92769797D-19  0.76048460D-19 -0.33613837D-03 -0.10787108D-19
  0.51297570D-19 -0.60566075D-05  0.34934960D-02  0.34934960D-02 -0.69869921D-02
  0.95037831D-19 -0.32406893D-18 -0.31580734D-18  0.19699840D-03  0.19699840D-03
 -0.39399680D-03  0.95762762D-19  0.89461613D-18  0.19639805D-18 -0.23544053D-04
 -0.23544053D-04  0.47088106D-04  0.25353300D-19 -0.43751319D-19  0.75108241D-19
  0.12622724D-18 -0.13029278D-18 -0.13192362D-02 -0.21706456D-19 -0.35536443D-18
  0.19788543D-02 -0.35697526D-18  0.74624276D-18  0.19788543D-02  0.42553537D-18
 -0.63232381D-19 -0.32130541D-19  0.12950464D-03 -0.58666624D-19 -0.40412577D-19
 -0.19425695D-03  0.24836377D-18  0.13680420D-18 -0.19425695D-03 -0.20655096D-19
 -0.10322566D-02 -0.19241711D-02 -0.32619431D-02 -0.49395432D-02 -0.61769161D-02
 -0.53177494D-02 -0.20443370D-02  0.88584469D-05  0.83186093D-03  0.15620875D-02
  0.26599656D-02  0.41668204D-02  0.55840295D-02  0.60063767D-02  0.36062207D-02
 -0.23716024D-02 -0.11502719D-02  0.66547039D-02  0.21645731D-02 -0.25630870D-17
 -0.25066431D-17 -0.16562451D-17 -0.29077996D-17 -0.28437645D-17 -0.18789954D-17
  0.63420221D-02  0.62023590D-02  0.40981609D-02  0.21620630D-19 -0.10385656D-17
 -0.45956936D-02 -0.13506412D-17 -0.85218667D-18 -0.60616270D-02  0.32907577D-19
 -0.76637377D-19 -0.28867795D-03  0.26232265D-02  0.26232265D-02 -0.52464529D-02
  0.16331812D-18 -0.81987730D-18 -0.17836140D-17 -0.26021357D-02 -0.26021357D-02
  0.52042715D-02 -0.11571527D-18 -0.13020298D-17  0.17699089D-17 -0.77113852D-03
 -0.77113852D-03  0.15422770D-02 -0.93029135D-20  0.11580054D-17  0.38606636D-18
  0.31042379D-20  0.29041276D-19  0.69690672D-03 -0.40335999D-18 -0.18890688D-17
 -0.10453601D-02  0.39404728D-18  0.18019450D-17 -0.10453601D-02 -0.29550178D-18
 -0.62911792D-19  0.37691235D-18 -0.21198625D-02  0.30465427D-20  0.49231265D-18
  0.31797938D-02  0.18568883D-18 -0.16230497D-17  0.31797938D-02  0.57796407D-18
MO    3     MO 0.0        OCC NO =    2.0000000  ORB. ENERGY =   -1.720925
  0.87505037D-02  0.16312928D-01  0.27571723D-01  0.41449331D-01  0.50925292D-01
  0.43014550D-01  0.16223506D-01 -0.80291035D-04  0.20066379D-01  0.37570593D-01
  0.63967149D-01  0.98947453D-01  0.13031032D+00  0.13540076D+00  0.86041108D-01
 -0.57662749D-01 -0.31588164D-01 -0.46433198D-03  0.21982101D-03 -0.34302868D-16
 -0.32161119D-16 -0.22900632D-16 -0.44037432D-15 -0.41287892D-15 -0.29399439D-15
 -0.23132341D+00 -0.21688041D+00 -0.15443177D+00  0.29657001D-16 -0.14697820D-15
 -0.43520056D-01  0.36034860D-17 -0.16826608D-16  0.83154980D-03  0.18243108D-17
 -0.63493059D-18  0.34259531D-04  0.21457354D-01  0.21457354D-01 -0.42914708D-01
  0.49121098D-16 -0.27152874D-17 -0.18042218D-17  0.29245864D-02  0.29245864D-02
 -0.58491728D-02 -0.74619223D-18 -0.32300326D-16 -0.27103203D-16 -0.11938834D-03
 -0.11938834D-03  0.23877667D-03 -0.11374367D-17 -0.24420305D-17 -0.70785511D-17
  0.66810154D-18  0.11916374D-16 -0.61883130D-02  0.11848235D-16 -0.11769737D-16
  0.92824695D-02 -0.13852539D-16 -0.23979386D-16  0.92824695D-02  0.39154576D-16
  0.70272234D-18  0.24664627D-17 -0.26950409D-03 -0.52380057D-19  0.16012751D-17
  0.40425614D-03 -0.20557870D-17 -0.90006631D-17  0.40425614D-03 -0.78435421D-17
  0.69556418D-02  0.12965618D-01  0.21979909D-01  0.33284061D-01  0.41621835D-01
  0.35832523D-01  0.13775330D-01 -0.59690760D-04  0.11927920D+00  0.22398521D+00
  0.38140819D+00  0.59747367D+00  0.80068500D+00  0.86124467D+00  0.51709017D+00
 -0.34006025D+00 -0.20395528D+00 -0.65854375D-01 -0.97545655D-03 -0.25513532D-15
 -0.24951677D-15 -0.16486628D-15 -0.26389390D-15 -0.25808247D-15 -0.17052600D-15
  0.62390554D+00  0.61016599D+00  0.40316247D+00 -0.40962707D-16 -0.68325352D-16
  0.13549329D+00  0.56362804D-17  0.54687909D-16  0.36707839D-02 -0.67965608D-18
  0.19354124D-17 -0.18422239D-03  0.29016023D-01  0.29016023D-01 -0.58032046D-01
 -0.14867405D-15 -0.40395425D-16  0.12487330D-15  0.10629819D-01  0.10629819D-01
 -0.21259638D-01 -0.57333571D-16 -0.33136138D-16  0.24306260D-17 -0.33935996D-03
 -0.33935996D-03  0.67871993D-03  0.51529173D-17 -0.64234337D-17 -0.13634749D-16
  0.61683734D-17 -0.13676277D-17  0.14766155D-01  0.13174964D-16  0.29230914D-16
 -0.22149233D-01 -0.31680084D-16 -0.25128031D-16 -0.22149233D-01  0.83409669D-16
 -0.45684663D-17 -0.42196259D-17  0.25799919D-02 -0.60614655D-17 -0.41490344D-17
 -0.38699879D-02  0.19766865D-16  0.16807912D-16 -0.38699879D-02 -0.14939042D-16
MO    4     MO 0.0        OCC NO =    2.0000000  ORB. ENERGY =   -1.058649
  0.46063440D-02  0.85872726D-02  0.14514003D-01  0.21819301D-01  0.26807533D-01
  0.22643247D-01  0.85401996D-02 -0.42265925D-04  0.35634869D-01  0.66719717D-01
  0.11359603D+00  0.17571578D+00  0.23141150D+00  0.24045137D+00  0.15279605D+00
 -0.10240036D+00 -0.60900630D-01 -0.15638690D-01  0.97950284D-04  0.15128724D-15
  0.14184141D-15  0.10099953D-15 -0.37067523D-16 -0.34753159D-16 -0.24746319D-16
 -0.24339391D+00 -0.22819726D+00 -0.16249005D+00  0.84321492D-17  0.28693903D-16
 -0.51333451D-01 -0.26789652D-16  0.49733346D-16 -0.19027093D-02  0.57177429D-17
 -0.15705775D-17  0.51900224D-04  0.11153894D-01  0.11153894D-01 -0.22307788D-01
  0.57890090D-16  0.28784679D-16 -0.13648918D-16  0.22450230D-02  0.22450230D-02
 -0.44900461D-02  0.19416027D-17 -0.21027659D-16  0.45278716D-16  0.64502912D-05
  0.64502912D-05 -0.12900582D-04 -0.52722711D-17 -0.80405622D-17  0.16548359D-16
  0.21552537D-17 -0.57349629D-17 -0.21751724D-02  0.16839068D-17 -0.20277615D-17
  0.32627587D-02 -0.81496680D-17  0.19232650D-16  0.32627587D-02 -0.25659284D-16
  0.12730317D-17 -0.40139991D-17 -0.25410345D-03  0.21421518D-17 -0.42741466D-17
  0.38115518D-03 -0.59612470D-17  0.16316144D-16  0.38115518D-03  0.46773655D-17
  0.13138055D-02  0.24489904D-02  0.41516408D-02  0.62868077D-02  0.78616751D-02
  0.67681700D-02  0.26019316D-02 -0.11274596D-04 -0.61510111D-01 -0.11550509D+00
 -0.19668526D+00 -0.30810629D+00 -0.41289867D+00 -0.44412820D+00 -0.26665399D+00
  0.17536288D+00  0.11302488D+00  0.88210342D-01  0.44022024D-02  0.12065812D-15
  0.11800100D-15  0.77968252D-16 -0.63052992D-15 -0.61664449D-15 -0.40744308D-15
  0.21661947D+01  0.21184911D+01  0.13997767D+01  0.15220559D-16 -0.12813365D-15
  0.46257420D+00  0.33116930D-16 -0.11441578D-15  0.37161163D-01  0.14356594D-16
 -0.18946853D-16 -0.36548679D-03  0.50278428D-01  0.50278428D-01 -0.10055686D+00
  0.79613433D-16 -0.58403529D-16  0.51575650D-16  0.15313446D-01  0.15313446D-01
 -0.30626891D-01  0.37743798D-16 -0.31375952D-16  0.46136092D-16  0.14758620D-04
  0.14758620D-04 -0.29517241D-04 -0.15608407D-17 -0.18768644D-16  0.52413896D-16
 -0.18078252D-18 -0.33798260D-16  0.21251173D-01  0.49012062D-17  0.43320734D-16
 -0.31876760D-01 -0.43588587D-17  0.58074046D-16 -0.31876760D-01  0.57266748D-16
 -0.45931470D-17  0.13147376D-16  0.28558310D-02 -0.39909717D-17  0.88729060D-17
 -0.42837465D-02  0.17770413D-16 -0.48315035D-16 -0.42837465D-02  0.58952334D-16
MO    5     MO 0.0        OCC NO =    2.0000000  ORB. ENERGY =   -0.935211
  0.10411586D-16  0.19409564D-16  0.32805582D-16  0.49317535D-16  0.60592290D-16
  0.51179875D-16  0.19303166D-16 -0.95532445D-19  0.93120966D-18  0.17435183D-17
  0.29684891D-17  0.45918012D-17  0.60472407D-17  0.62834704D-17  0.39928634D-17
 -0.26759242D-17 -0.41057483D-17  0.49337590D-16  0.10374840D-17  0.16581789D+00
  0.15546481D+00  0.11070021D+00 -0.27079483D+00 -0.25388736D+00 -0.18078293D+00
  0.30797098D-15  0.28874237D-15  0.20560177D-15  0.36739021D-01 -0.59997970D-01
  0.11509299D-15  0.15067205D-02 -0.24606038D-02  0.21122241D-16 -0.76019766D-06
  0.12414679D-05 -0.46965911D-17 -0.98112255D-17  0.21170919D-16 -0.11359693D-16
  0.28827985D-15  0.44632172D-01 -0.72888163D-01  0.43602576D-17 -0.29207727D-16
  0.24847470D-16  0.10261326D-15  0.73324582D-02 -0.11974533D-01 -0.59998285D-18
 -0.15796171D-18  0.75794456D-18 -0.19104917D-18 -0.11048093D-03  0.18042483D-03
 -0.23805765D-02  0.38876854D-02  0.35628108D-16 -0.23805715D-02  0.38876773D-02
 -0.93875954D-16  0.95223010D-02 -0.15550734D-01 -0.13008370D-16  0.29712871D-16
 -0.16175648D-03  0.26416219D-03  0.56209321D-17 -0.16175671D-03  0.26416257D-03
  0.25257726D-16  0.64702614D-03 -0.10566491D-02 -0.42120522D-16  0.84284426D-16
 -0.15890236D-16 -0.29620088D-16 -0.50213330D-16 -0.76037781D-16 -0.95085512D-16
 -0.81859769D-16 -0.31469884D-16  0.13636416D-18 -0.60330937D-17 -0.11329081D-16
 -0.19291472D-16 -0.30219976D-16 -0.40498324D-16 -0.43561407D-16 -0.26154212D-16
  0.17200110D-16  0.29771417D-16 -0.71522121D-16 -0.32612544D-16  0.13158354D+01
  0.12868583D+01  0.85028169D+00 -0.21488720D+01 -0.21015499D+01 -0.13885829D+01
 -0.70475763D-15 -0.68923757D-15 -0.45540841D-15  0.29251479D+00 -0.47770172D+00
 -0.13371155D-15  0.33182056D-01 -0.54189141D-01 -0.12660807D-16  0.12119677D-03
 -0.19792472D-03  0.13204873D-16 -0.96207629D-18 -0.72316527D-16  0.73278603D-16
 -0.11285118D-15 -0.73589707D-01  0.12017830D+00 -0.27612743D-17  0.16434092D-16
 -0.13672818D-16  0.12816075D-15 -0.30162220D-01  0.49257491D-01 -0.26913755D-16
  0.36503037D-16 -0.95892815D-17 -0.12013608D-15 -0.10048288D-02  0.16409715D-02
 -0.77904985D-02  0.12722552D-01 -0.10249765D-15 -0.77905094D-02  0.12722570D-01
 -0.17803664D-15  0.31162005D-01 -0.50890225D-01  0.48552958D-15 -0.22378954D-16
 -0.10225724D-02  0.16699484D-02  0.21427416D-16 -0.10225716D-02  0.16699470D-02
  0.13362123D-16  0.40902888D-02 -0.66797922D-02 -0.77644371D-16  0.14529021D-15
MO    6     MO 0.0        OCC NO =    2.0000000  ORB. ENERGY =   -0.935211
  0.31614842D-17  0.58937254D-17  0.99614343D-17  0.14975299D-16  0.18398885D-16
  0.15540799D-16  0.58614177D-17 -0.29008484D-19  0.14229417D-16  0.26641958D-16
  0.45360213D-16  0.70165353D-16  0.92405301D-16  0.96015027D-16  0.61013239D-16
 -0.40889654D-16 -0.12881819D-16  0.21621228D-15  0.55620203D-16 -0.27079483D+00
 -0.25388736D+00 -0.18078293D+00 -0.16581789D+00 -0.15546481D+00 -0.11070021D+00
  0.10637584D-15  0.99734113D-16  0.71016630D-16 -0.59997970D-01 -0.36739021D-01
  0.15495731D-15 -0.24606038D-02 -0.15067205D-02  0.87089572D-16  0.12414679D-05
  0.76019766D-06  0.35243866D-17  0.13337967D-15 -0.17835624D-15  0.44976565D-16
 -0.31253719D-15 -0.72888163D-01 -0.44632172D-01 -0.28051775D-16 -0.32034278D-17
  0.31255203D-16  0.70016833D-16 -0.11974533D-01 -0.73324582D-02 -0.66379812D-17
  0.30761904D-18  0.63303621D-17  0.36960324D-17  0.18042483D-03  0.11048093D-03
  0.38876854D-02  0.23805765D-02  0.11814080D-16  0.38876773D-02  0.23805715D-02
  0.26289020D-16 -0.15550734D-01 -0.95223010D-02 -0.61731261D-16 -0.45209930D-16
  0.26416219D-03  0.16175648D-03  0.11417921D-17  0.26416257D-03  0.16175671D-03
  0.28633333D-16 -0.10566491D-02 -0.64702614D-03 -0.32058710D-16  0.91808711D-16
 -0.53742747D-17 -0.10017881D-16 -0.16982771D-16 -0.25716920D-16 -0.32159099D-16
 -0.27685989D-16 -0.10643505D-16  0.46120049D-19 -0.17187438D-16 -0.32274964D-16
 -0.54958698D-16 -0.86092475D-16 -0.11537404D-15 -0.12410034D-15 -0.74509682D-16
  0.49000701D-16  0.23099438D-16 -0.91339297D-16 -0.26397102D-15 -0.21488720D+01
 -0.21015499D+01 -0.13885829D+01 -0.13158354D+01 -0.12868583D+01 -0.85028169D+00
 -0.60421204D-15 -0.59090618D-15 -0.39043670D-15 -0.47770172D+00 -0.29251479D+00
 -0.61795204D-16 -0.54189141D-01 -0.33182056D-01  0.93840909D-16 -0.19792472D-03
 -0.12119677D-03  0.13678875D-16 -0.26070153D-15  0.23594707D-16  0.23710682D-15
 -0.20434800D-15  0.12017830D+00  0.73589707D-01  0.22382035D-16 -0.16218033D-17
 -0.20760231D-16  0.42558968D-16  0.49257491D-01  0.30162220D-01 -0.51397435D-16
  0.54069121D-16 -0.26716859D-17 -0.14925095D-15  0.16409715D-02  0.10048288D-02
  0.12722552D-01  0.77904985D-02 -0.37210032D-16  0.12722570D-01  0.77905094D-02
  0.20166461D-15 -0.50890225D-01 -0.31162005D-01 -0.90034514D-16 -0.42083028D-15
  0.16699484D-02  0.10225724D-02  0.70865124D-17  0.16699470D-02  0.10225716D-02
  0.23560580D-16 -0.66797922D-02 -0.40902888D-02 -0.44820118D-16  0.37818815D-16
MO    7     MO 0.0        OCC NO =    2.0000000  ORB. ENERGY =   -0.739545
 -0.17305524D-02 -0.32261431D-02 -0.54527502D-02 -0.81972696D-02 -0.10071293D-01
 -0.85068168D-02 -0.32084583D-02  0.15878839D-04 -0.55727819D-01 -0.10434006D+00
 -0.17764788D+00 -0.27479426D+00 -0.36189437D+00 -0.37603144D+00 -0.23895110D+00
  0.16013947D+00  0.85333042D-01  0.52538235D-01  0.36437809D-03 -0.72676163D-16
 -0.68138522D-16 -0.48518687D-16 -0.37552700D-15 -0.35208043D-15 -0.25070224D-15
 -0.50344581D+00 -0.47201245D+00 -0.33610098D+00 -0.10239820D-16 -0.62527975D-16
 -0.11683139D+00 -0.36043840D-16  0.32090889D-16 -0.41107865D-02  0.66717196D-17
  0.15517173D-17  0.69762988D-04  0.25977179D-01  0.25977179D-01 -0.51954358D-01
 -0.25764630D-16  0.29424074D-17 -0.74259909D-16  0.39173791D-02  0.39173791D-02
 -0.78347582D-02  0.72822939D-18 -0.56400639D-16  0.26400998D-16 -0.13880957D-03
 -0.13880957D-03  0.27761914D-03 -0.29652929D-17 -0.53962346D-17  0.89505982D-17
  0.26288314D-17 -0.88967740D-18 -0.36657508D-02  0.39509766D-17 -0.43454828D-17
  0.54986262D-02 -0.11837471D-16  0.70145150D-17  0.54986262D-02 -0.11097906D-16
  0.40201122D-17 -0.24409457D-17  0.12475340D-03  0.34390724D-17 -0.26903938D-17
 -0.18713010D-03 -0.15499409D-16  0.10013231D-16 -0.18713010D-03  0.65045739D-18
 -0.45551245D-02 -0.84909494D-02 -0.14394247D-01 -0.21797132D-01 -0.27257390D-01
 -0.23466074D-01 -0.90212154D-02  0.39090403D-04  0.15568381D-01  0.29234663D-01
  0.49781590D-01  0.77982565D-01  0.10450581D+00  0.11241009D+00  0.67490871D-01
 -0.44384836D-01 -0.28584342D-01  0.28914278D-02  0.11778567D-03 -0.30085457D-15
 -0.29422920D-15 -0.19440967D-15 -0.87122157D-15 -0.85203567D-15 -0.56297599D-15
  0.99569677D+00  0.97376969D+00  0.64341081D+00 -0.78449610D-16 -0.17914124D-15
  0.21665656D+00  0.63952780D-16 -0.74618141D-16  0.98160147D-02  0.44428648D-17
 -0.17175692D-16  0.18650634D-03  0.16775508D-01  0.16775508D-01 -0.33551017D-01
 -0.14584789D-16 -0.42835347D-17  0.10603480D-15  0.26747033D-02  0.26747033D-02
 -0.53494066D-02 -0.19594286D-18 -0.11670654D-16  0.69453803D-16 -0.21116769D-02
 -0.21116769D-02  0.42233537D-02  0.17771957D-17 -0.41830273D-16  0.29968187D-16
  0.91385517D-17 -0.95741706D-17  0.82977348D-02  0.19022914D-16  0.37028288D-16
 -0.12446602D-01 -0.46438569D-16 -0.83057768D-17 -0.12446602D-01  0.37482944D-16
 -0.63361721D-17  0.81709476D-17 -0.11749877D-02 -0.65932643D-17  0.64345506D-17
  0.17624816D-02  0.25601781D-16 -0.30947393D-16  0.17624816D-02  0.16944479D-16
END DATA
RHF
