 Molden2AIM, Version 4.0.0 (06/02/2016)           Time: Thu Jun 28 23:32:56 2018
GAUSSIAN             26 MOL ORBITALS    394 PRIMITIVES        2 NUCLEI
  Cl   1    (CENTRE  1)   0.00000000  0.00000000 -2.49530209  CHARGE = 17.0
  Br   2    (CENTRE  2)   0.00000000  0.00000000  1.53061202  CHARGE = 35.0
CENTRE ASSIGNMENTS    1  1  1  1  1  1  1  1  1  1  1  1  1  1  1  1  1  1  1  1
CENTRE ASSIGNMENTS    1  1  1  1  1  1  1  1  1  1  1  1  1  1  1  1  1  1  1  1
CENTRE ASSIGNMENTS    1  1  1  1  1  1  1  1  1  1  1  1  1  1  1  1  1  1  1  1
CENTRE ASSIGNMENTS    1  1  1  1  1  1  1  1  1  1  1  1  1  1  1  1  1  1  1  1
CENTRE ASSIGNMENTS    1  1  1  1  1  1  1  1  1  1  1  1  1  1  1  1  1  1  1  1
CENTRE ASSIGNMENTS    1  1  1  1  1  1  1  1  1  1  1  1  1  1  1  1  1  1  1  1
CENTRE ASSIGNMENTS    1  1  1  1  1  1  1  1  1  1  1  2  2  2  2  2  2  2  2  2
CENTRE ASSIGNMENTS    2  2  2  2  2  2  2  2  2  2  2  2  2  2  2  2  2  2  2  2
CENTRE ASSIGNMENTS    2  2  2  2  2  2  2  2  2  2  2  2  2  2  2  2  2  2  2  2
CENTRE ASSIGNMENTS    2  2  2  2  2  2  2  2  2  2  2  2  2  2  2  2  2  2  2  2
CENTRE ASSIGNMENTS    2  2  2  2  2  2  2  2  2  2  2  2  2  2  2  2  2  2  2  2
CENTRE ASSIGNMENTS    2  2  2  2  2  2  2  2  2  2  2  2  2  2  2  2  2  2  2  2
CENTRE ASSIGNMENTS    2  2  2  2  2  2  2  2  2  2  2  2  2  2  2  2  2  2  2  2
CENTRE ASSIGNMENTS    2  2  2  2  2  2  2  2  2  2  2  2  2  2  2  2  2  2  2  2
CENTRE ASSIGNMENTS    2  2  2  2  2  2  2  2  2  2  2  2  2  2  2  2  2  2  2  2
CENTRE ASSIGNMENTS    2  2  2  2  2  2  2  2  2  2  2  2  2  2  2  2  2  2  2  2
CENTRE ASSIGNMENTS    2  2  2  2  2  2  2  2  2  2  2  2  2  2  2  2  2  2  2  2
CENTRE ASSIGNMENTS    2  2  2  2  2  2  2  2  2  2  2  2  2  2  2  2  2  2  2  2
CENTRE ASSIGNMENTS    2  2  2  2  2  2  2  2  2  2  2  2  2  2  2  2  2  2  2  2
CENTRE ASSIGNMENTS    2  2  2  2  2  2  2  2  2  2  2  2  2  2
TYPE ASSIGNMENTS      1  1  1  1  1  1  1  1  1  1  1  1  1  1  1  1  1  1  1  1
TYPE ASSIGNMENTS      1  1  1  1  1  1  1  1  1  1  1  1  1  1  1  1  1  1  1  1
TYPE ASSIGNMENTS      1  1  2  2  2  2  2  2  2  3  3  3  3  3  3  3  4  4  4  4
TYPE ASSIGNMENTS      4  4  4  2  2  2  2  2  2  2  3  3  3  3  3  3  3  4  4  4
TYPE ASSIGNMENTS      4  4  4  4  2  3  4  2  3  4  2  3  4  5  6  7  8  9 10  5
TYPE ASSIGNMENTS      6  7  8  9 10  5  6  7  8  9 10 11 12 13 17 14 15 18 19 16
TYPE ASSIGNMENTS     20 11 12 13 17 14 15 18 19 16 20  1  1  1  1  1  1  1  1  1
TYPE ASSIGNMENTS      1  1  1  1  1  1  1  1  1  1  1  1  1  1  1  1  1  1  1  1
TYPE ASSIGNMENTS      1  1  1  1  1  1  1  1  1  1  1  1  1  1  1  1  1  1  1  1
TYPE ASSIGNMENTS      1  1  1  1  1  1  1  1  1  1  1  1  1  1  1  1  1  1  1  1
TYPE ASSIGNMENTS      1  1  1  1  1  1  2  2  2  2  2  2  2  2  2  2  2  3  3  3
TYPE ASSIGNMENTS      3  3  3  3  3  3  3  3  4  4  4  4  4  4  4  4  4  4  4  2
TYPE ASSIGNMENTS      2  2  2  2  2  2  2  2  2  2  3  3  3  3  3  3  3  3  3  3
TYPE ASSIGNMENTS      3  4  4  4  4  4  4  4  4  4  4  4  2  2  2  2  2  2  2  2
TYPE ASSIGNMENTS      2  2  2  3  3  3  3  3  3  3  3  3  3  3  4  4  4  4  4  4
TYPE ASSIGNMENTS      4  4  4  4  4  2  3  4  2  3  4  2  3  4  5  5  5  5  5  5
TYPE ASSIGNMENTS      5  6  6  6  6  6  6  6  7  7  7  7  7  7  7  8  8  8  8  8
TYPE ASSIGNMENTS      8  8  9  9  9  9  9  9  9 10 10 10 10 10 10 10  5  6  7  8
TYPE ASSIGNMENTS      9 10  5  6  7  8  9 10  5  6  7  8  9 10 11 12 13 17 14 15
TYPE ASSIGNMENTS     18 19 16 20 11 12 13 17 14 15 18 19 16 20
EXPONENTS  0.4561000D+06 0.6833000D+05 0.1555000D+05 0.4405000D+04 0.1439000D+04
EXPONENTS  0.5204000D+03 0.2031000D+03 0.8396000D+02 0.3620000D+02 0.1583000D+02
EXPONENTS  0.6334000D+01 0.2694000D+01 0.4313000D+00 0.4561000D+06 0.6833000D+05
EXPONENTS  0.1555000D+05 0.4405000D+04 0.1439000D+04 0.5204000D+03 0.2031000D+03
EXPONENTS  0.8396000D+02 0.3620000D+02 0.1583000D+02 0.6334000D+01 0.2694000D+01
EXPONENTS  0.4313000D+00 0.4561000D+06 0.6833000D+05 0.1555000D+05 0.4405000D+04
EXPONENTS  0.1439000D+04 0.5204000D+03 0.2031000D+03 0.8396000D+02 0.3620000D+02
EXPONENTS  0.1583000D+02 0.6334000D+01 0.2694000D+01 0.4313000D+00 0.9768000D+00
EXPONENTS  0.1625000D+00 0.5910000D-01 0.6633000D+03 0.1568000D+03 0.4998000D+02
EXPONENTS  0.1842000D+02 0.7240000D+01 0.2922000D+01 0.3818000D+00 0.6633000D+03
EXPONENTS  0.1568000D+03 0.4998000D+02 0.1842000D+02 0.7240000D+01 0.2922000D+01
EXPONENTS  0.3818000D+00 0.6633000D+03 0.1568000D+03 0.4998000D+02 0.1842000D+02
EXPONENTS  0.7240000D+01 0.2922000D+01 0.3818000D+00 0.6633000D+03 0.1568000D+03
EXPONENTS  0.4998000D+02 0.1842000D+02 0.7240000D+01 0.2922000D+01 0.3818000D+00
EXPONENTS  0.6633000D+03 0.1568000D+03 0.4998000D+02 0.1842000D+02 0.7240000D+01
EXPONENTS  0.2922000D+01 0.3818000D+00 0.6633000D+03 0.1568000D+03 0.4998000D+02
EXPONENTS  0.1842000D+02 0.7240000D+01 0.2922000D+01 0.3818000D+00 0.1022000D+01
EXPONENTS  0.1022000D+01 0.1022000D+01 0.1301000D+00 0.1301000D+00 0.1301000D+00
EXPONENTS  0.4190000D-01 0.4190000D-01 0.4190000D-01 0.1046000D+01 0.1046000D+01
EXPONENTS  0.1046000D+01 0.1046000D+01 0.1046000D+01 0.1046000D+01 0.3440000D+00
EXPONENTS  0.3440000D+00 0.3440000D+00 0.3440000D+00 0.3440000D+00 0.3440000D+00
EXPONENTS  0.1350000D+00 0.1350000D+00 0.1350000D+00 0.1350000D+00 0.1350000D+00
EXPONENTS  0.1350000D+00 0.7060000D+00 0.7060000D+00 0.7060000D+00 0.7060000D+00
EXPONENTS  0.7060000D+00 0.7060000D+00 0.7060000D+00 0.7060000D+00 0.7060000D+00
EXPONENTS  0.7060000D+00 0.3120000D+00 0.3120000D+00 0.3120000D+00 0.3120000D+00
EXPONENTS  0.3120000D+00 0.3120000D+00 0.3120000D+00 0.3120000D+00 0.3120000D+00
EXPONENTS  0.3120000D+00 0.1063900D+08 0.1593400D+07 0.3626100D+06 0.1027000D+06
EXPONENTS  0.3350100D+05 0.1209300D+05 0.4715900D+04 0.1955600D+04 0.8526100D+03
EXPONENTS  0.3876700D+03 0.1826800D+03 0.8824500D+02 0.3926300D+02 0.1923400D+02
EXPONENTS  0.9405700D+01 0.4160100D+01 0.1899500D+01 0.3011400D+00 0.1063900D+08
EXPONENTS  0.1593400D+07 0.3626100D+06 0.1027000D+06 0.3350100D+05 0.1209300D+05
EXPONENTS  0.4715900D+04 0.1955600D+04 0.8526100D+03 0.3876700D+03 0.1826800D+03
EXPONENTS  0.8824500D+02 0.3926300D+02 0.1923400D+02 0.9405700D+01 0.4160100D+01
EXPONENTS  0.1899500D+01 0.3011400D+00 0.1063900D+08 0.1593400D+07 0.3626100D+06
EXPONENTS  0.1027000D+06 0.3350100D+05 0.1209300D+05 0.4715900D+04 0.1955600D+04
EXPONENTS  0.8526100D+03 0.3876700D+03 0.1826800D+03 0.8824500D+02 0.3926300D+02
EXPONENTS  0.1923400D+02 0.9405700D+01 0.4160100D+01 0.1899500D+01 0.3011400D+00
EXPONENTS  0.1063900D+08 0.1593400D+07 0.3626100D+06 0.1027000D+06 0.3350100D+05
EXPONENTS  0.1209300D+05 0.4715900D+04 0.1955600D+04 0.8526100D+03 0.3876700D+03
EXPONENTS  0.1826800D+03 0.8824500D+02 0.3926300D+02 0.1923400D+02 0.9405700D+01
EXPONENTS  0.4160100D+01 0.1899500D+01 0.3011400D+00 0.6047200D+00 0.1251500D+00
EXPONENTS  0.4559300D-01 0.8676500D+04 0.2055900D+04 0.6662300D+03 0.2531000D+03
EXPONENTS  0.1061200D+03 0.4724200D+02 0.2182500D+02 0.9968400D+01 0.4517100D+01
EXPONENTS  0.1998200D+01 0.2814500D+00 0.8676500D+04 0.2055900D+04 0.6662300D+03
EXPONENTS  0.2531000D+03 0.1061200D+03 0.4724200D+02 0.2182500D+02 0.9968400D+01
EXPONENTS  0.4517100D+01 0.1998200D+01 0.2814500D+00 0.8676500D+04 0.2055900D+04
EXPONENTS  0.6662300D+03 0.2531000D+03 0.1061200D+03 0.4724200D+02 0.2182500D+02
EXPONENTS  0.9968400D+01 0.4517100D+01 0.1998200D+01 0.2814500D+00 0.8676500D+04
EXPONENTS  0.2055900D+04 0.6662300D+03 0.2531000D+03 0.1061200D+03 0.4724200D+02
EXPONENTS  0.2182500D+02 0.9968400D+01 0.4517100D+01 0.1998200D+01 0.2814500D+00
EXPONENTS  0.8676500D+04 0.2055900D+04 0.6662300D+03 0.2531000D+03 0.1061200D+03
EXPONENTS  0.4724200D+02 0.2182500D+02 0.9968400D+01 0.4517100D+01 0.1998200D+01
EXPONENTS  0.2814500D+00 0.8676500D+04 0.2055900D+04 0.6662300D+03 0.2531000D+03
EXPONENTS  0.1061200D+03 0.4724200D+02 0.2182500D+02 0.9968400D+01 0.4517100D+01
EXPONENTS  0.1998200D+01 0.2814500D+00 0.8676500D+04 0.2055900D+04 0.6662300D+03
EXPONENTS  0.2531000D+03 0.1061200D+03 0.4724200D+02 0.2182500D+02 0.9968400D+01
EXPONENTS  0.4517100D+01 0.1998200D+01 0.2814500D+00 0.8676500D+04 0.2055900D+04
EXPONENTS  0.6662300D+03 0.2531000D+03 0.1061200D+03 0.4724200D+02 0.2182500D+02
EXPONENTS  0.9968400D+01 0.4517100D+01 0.1998200D+01 0.2814500D+00 0.8676500D+04
EXPONENTS  0.2055900D+04 0.6662300D+03 0.2531000D+03 0.1061200D+03 0.4724200D+02
EXPONENTS  0.2182500D+02 0.9968400D+01 0.4517100D+01 0.1998200D+01 0.2814500D+00
EXPONENTS  0.7098800D+00 0.7098800D+00 0.7098800D+00 0.1020400D+00 0.1020400D+00
EXPONENTS  0.1020400D+00 0.3514200D-01 0.3514200D-01 0.3514200D-01 0.4038300D+03
EXPONENTS  0.1211700D+03 0.4634500D+02 0.1972100D+02 0.8862400D+01 0.3996200D+01
EXPONENTS  0.1763600D+01 0.4038300D+03 0.1211700D+03 0.4634500D+02 0.1972100D+02
EXPONENTS  0.8862400D+01 0.3996200D+01 0.1763600D+01 0.4038300D+03 0.1211700D+03
EXPONENTS  0.4634500D+02 0.1972100D+02 0.8862400D+01 0.3996200D+01 0.1763600D+01
EXPONENTS  0.4038300D+03 0.1211700D+03 0.4634500D+02 0.1972100D+02 0.8862400D+01
EXPONENTS  0.3996200D+01 0.1763600D+01 0.4038300D+03 0.1211700D+03 0.4634500D+02
EXPONENTS  0.1972100D+02 0.8862400D+01 0.3996200D+01 0.1763600D+01 0.4038300D+03
EXPONENTS  0.1211700D+03 0.4634500D+02 0.1972100D+02 0.8862400D+01 0.3996200D+01
EXPONENTS  0.1763600D+01 0.7061900D+00 0.7061900D+00 0.7061900D+00 0.7061900D+00
EXPONENTS  0.7061900D+00 0.7061900D+00 0.2639000D+00 0.2639000D+00 0.2639000D+00
EXPONENTS  0.2639000D+00 0.2639000D+00 0.2639000D+00 0.1047000D+00 0.1047000D+00
EXPONENTS  0.1047000D+00 0.1047000D+00 0.1047000D+00 0.1047000D+00 0.5515000D+00
EXPONENTS  0.5515000D+00 0.5515000D+00 0.5515000D+00 0.5515000D+00 0.5515000D+00
EXPONENTS  0.5515000D+00 0.5515000D+00 0.5515000D+00 0.5515000D+00 0.2580000D+00
EXPONENTS  0.2580000D+00 0.2580000D+00 0.2580000D+00 0.2580000D+00 0.2580000D+00
EXPONENTS  0.2580000D+00 0.2580000D+00 0.2580000D+00 0.2580000D+00
MO    1     MO 0.0        OCC NO =    2.0000000  ORB. ENERGY = -481.072378
  0.35699054D-05  0.66793067D-05  0.11540362D-04  0.18708273D-04  0.28410005D-04
  0.39486567D-04  0.46943831D-04  0.41813954D-04  0.20757699D-04  0.33443979D-05
  0.51345416D-07  0.91753753D-08  0.34286946D-09 -0.61203443D-05 -0.11431924D-04
 -0.19840659D-04 -0.32193327D-04 -0.49831446D-04 -0.71329188D-04 -0.93106871D-04
 -0.99220908D-04 -0.74169643D-04 -0.39152837D-05  0.50309452D-04  0.29889594D-04
 -0.11206357D-06  0.31148490D-05  0.58134168D-05  0.10103207D-04  0.16374326D-04
  0.25431892D-04  0.36431919D-04  0.48104954D-04  0.52015725D-04  0.40781003D-04
  0.20292492D-05 -0.34959630D-04 -0.36189698D-04  0.16376350D-04 -0.85670357D-05
 -0.26587526D-04 -0.16468539D-04  0.21633729D-16  0.28496476D-16  0.31438289D-16
  0.26113113D-16  0.13869308D-16  0.35772992D-17 -0.36773420D-20 -0.30704767D-14
 -0.40445069D-14 -0.44620386D-14 -0.37062360D-14 -0.19684720D-14 -0.50772634D-15
  0.52192542D-18  0.76564775D-04  0.10085299D-03  0.11126448D-03  0.92417937D-04
  0.49085411D-04  0.12660559D-04 -0.13014625D-07  0.25663999D-15  0.33694949D-15
  0.38364178D-15  0.32485210D-15  0.18608779D-15  0.42328517D-16 -0.19812075D-16
  0.12781715D-14  0.16781455D-14  0.19106921D-14  0.16178956D-14  0.92679289D-15
  0.21081323D-15 -0.98672193D-16 -0.55298358D-04 -0.72602691D-04 -0.82663505D-04
 -0.69996061D-04 -0.40096438D-04 -0.91205486D-05  0.42689187D-05 -0.14620728D-15
  0.18253834D-15 -0.11962275D-04 -0.31725183D-17  0.21214005D-16 -0.16961619D-04
  0.12619095D-17  0.13984739D-17 -0.10711058D-05  0.32703821D-05  0.32703821D-05
 -0.65407642D-05  0.25884086D-15 -0.88993462D-16  0.28891857D-15 -0.74876877D-06
 -0.74876877D-06  0.14975375D-05 -0.44825617D-16  0.36284918D-16 -0.82392603D-16
  0.89159667D-06  0.89159667D-06 -0.17831933D-05  0.14157038D-17  0.95597043D-18
  0.16073445D-16 -0.92627181D-18 -0.63483510D-18 -0.10148404D-05 -0.92649400D-18
 -0.63474746D-18  0.15222606D-05  0.37053094D-17  0.25392528D-17  0.15222606D-05
  0.84999050D-17  0.61309363D-18  0.17214620D-18  0.11807610D-05  0.61313771D-18
  0.17210220D-18 -0.17711415D-05 -0.24524186D-17 -0.68854079D-18 -0.17711415D-05
  0.20313696D-18  0.78329899D+00  0.14734808D+01  0.25506679D+01  0.41810328D+01
  0.65496688D+01  0.98447100D+01  0.14070563D+02  0.18679023D+02  0.21754259D+02
  0.19981077D+02  0.11683721D+02  0.30658669D+01  0.16760975D+00 -0.59990796D-02
  0.16765534D-02 -0.49782529D-03  0.84870593D-04  0.69242730D-05  0.93433120D-04
  0.17166559D-03  0.29684937D-03  0.48613234D-03  0.76539352D-03  0.11558192D-02
  0.16871431D-02  0.23232985D-02  0.29685535D-02  0.32360711D-02  0.26637848D-02
  0.73039171D-03 -0.14732474D-02 -0.14357440D-02 -0.31418123D-03 -0.10584476D-04
 -0.35856824D-06  0.91215135D-09 -0.52421835D-04 -0.10276779D-03 -0.17999525D-03
 -0.29405366D-03 -0.46379345D-03 -0.69984361D-03 -0.10261098D-02 -0.14167143D-02
 -0.18367771D-02 -0.20426042D-02 -0.17741275D-02 -0.51535231D-03  0.12991969D-02
  0.18930215D-02  0.32589041D-03 -0.79503307D-03 -0.37841570D-03  0.18274850D-05
  0.17555930D-04  0.38039460D-04  0.64756149D-04  0.10569947D-03  0.16662485D-03
  0.25148502D-03  0.36871803D-03  0.50972650D-03  0.66157385D-03  0.73909368D-03
  0.64561507D-03  0.19123181D-03 -0.49709286D-03 -0.76469684D-03 -0.13384530D-03
  0.42220759D-03  0.35839039D-03 -0.13371225D-03  0.14433636D-03  0.54448298D-04
  0.72138410D-05 -0.23045748D-15 -0.33066568D-15 -0.43781894D-15 -0.50555682D-15
 -0.46867443D-15 -0.30342837D-15 -0.10709907D-15 -0.12552935D-16 -0.18249644D-18
 -0.26724572D-19 -0.27477010D-21  0.17730844D-15  0.25440622D-15  0.33684737D-15
  0.38896327D-15  0.36058684D-15  0.23345050D-15  0.82399452D-16  0.96579263D-17
  0.14040837D-18  0.20561243D-19  0.21140151D-21 -0.16197847D-03 -0.23241043D-03
 -0.30772377D-03 -0.35533376D-03 -0.32941075D-03 -0.21326652D-03 -0.75275250D-04
 -0.88229084D-05 -0.12826876D-06 -0.18783532D-07 -0.19312388D-09  0.16964980D-16
  0.24489144D-16  0.32716910D-16  0.38868693D-16  0.37666743D-16  0.26183191D-16
  0.85197593D-17 -0.38345678D-17 -0.41426126D-17 -0.10665029D-17  0.10402751D-20
 -0.23051214D-15 -0.33274692D-15 -0.44454193D-15 -0.52812946D-15 -0.51179792D-15
 -0.35576484D-15 -0.11576247D-15  0.52102297D-16  0.56287864D-16  0.14491138D-16
 -0.14134767D-19 -0.39351849D-03 -0.56804847D-03 -0.75889917D-03 -0.90159550D-03
 -0.87371515D-03 -0.60734348D-03 -0.19762374D-03  0.88946367D-04  0.96091752D-04
  0.24738527D-04 -0.24130149D-07 -0.64384511D-16 -0.93553551D-16 -0.12438053D-15
 -0.14924803D-15 -0.14439813D-15 -0.10250586D-15 -0.31859078D-16  0.18291473D-16
  0.21012842D-16  0.55801448D-17 -0.20133336D-17  0.19476717D-16  0.28300533D-16
  0.37625887D-16  0.45148460D-16  0.43681335D-16  0.31008661D-16  0.96375699D-17
 -0.55332847D-17 -0.63565158D-17 -0.16880286D-17  0.60904599D-18  0.25829061D-03
  0.37530771D-03  0.49897595D-03  0.59873660D-03  0.57928031D-03  0.41122157D-03
  0.12780870D-03 -0.73379691D-04 -0.84296976D-04 -0.22385803D-04  0.80768674D-05
  0.15178905D-17 -0.20059828D-16 -0.54878298D-05 -0.32289971D-17 -0.80206454D-17
 -0.17226103D-04  0.44513628D-18 -0.37681477D-18 -0.49554889D-06 -0.70295587D-04
 -0.73556758D-04 -0.62674295D-04 -0.41275761D-04 -0.19022769D-04 -0.56963991D-05
 -0.96919401D-06 -0.70295587D-04 -0.73556758D-04 -0.62674295D-04 -0.41275761D-04
 -0.19022769D-04 -0.56963991D-05 -0.96919401D-06  0.14059117D-03  0.14711352D-03
  0.12534859D-03  0.82551522D-04  0.38045539D-04  0.11392798D-04  0.19383880D-05
 -0.47766962D-15 -0.49982979D-15 -0.42588173D-15 -0.28047532D-15 -0.12926272D-15
 -0.38707932D-16 -0.65858264D-17  0.66426706D-15  0.69508391D-15  0.59224869D-15
  0.39004054D-15  0.17975807D-15  0.53828845D-16  0.91585217D-17 -0.11544176D-14
 -0.12079736D-14 -0.10292582D-14 -0.67784434D-15 -0.31239827D-15 -0.93548169D-16
 -0.15916428D-16  0.32482875D-05  0.32482875D-05 -0.64965750D-05  0.12159739D-16
  0.33063560D-17  0.25774463D-16 -0.10294786D-05 -0.10294786D-05  0.20589572D-05
 -0.24197446D-17 -0.64917760D-17 -0.13556635D-16 -0.12825330D-05 -0.12825330D-05
  0.25650659D-05  0.17989845D-17  0.14113986D-17  0.81808734D-17  0.78529114D-18
 -0.76974837D-17  0.52365452D-05  0.78536231D-18 -0.76975388D-17 -0.78548178D-05
 -0.31412357D-17  0.30789990D-16 -0.78548178D-05 -0.10506167D-16  0.70905254D-18
  0.10602955D-17 -0.20177444D-05  0.70902128D-18  0.10603331D-17  0.30266165D-05
 -0.28361789D-17 -0.42412197D-17  0.30266165D-05  0.91189546D-18
MO    2     MO 0.0        OCC NO =    2.0000000  ORB. ENERGY = -100.746190
 -0.61725837D+00 -0.11548928D+01 -0.19953989D+01 -0.32347743D+01 -0.49122628D+01
 -0.68274677D+01 -0.81168742D+01 -0.72298872D+01 -0.35891325D+01 -0.57826675D+00
 -0.88779349D-02 -0.15864782D-02 -0.59284217D-04  0.10119798D-02  0.18902330D-02
  0.32805910D-02  0.53230659D-02  0.82394739D-02  0.11794058D-01  0.15394930D-01
  0.16405867D-01  0.12263719D-01  0.64737992D-03 -0.83185106D-02 -0.49421510D-02
  0.18529361D-04 -0.41931494D-03 -0.78259092D-03 -0.13600741D-02 -0.22042801D-02
 -0.34235921D-02 -0.49043945D-02 -0.64757959D-02 -0.70022563D-02 -0.54898597D-02
 -0.27317360D-03  0.47061978D-02  0.48717871D-02 -0.22045526D-02  0.29387639D-02
  0.12094348D-02  0.27843947D-03 -0.30764801D-17 -0.40524148D-17 -0.44707628D-17
 -0.37134824D-17 -0.19723207D-17 -0.50871905D-18  0.52294589D-21  0.41981202D-17
  0.55298665D-17  0.61007382D-17  0.50673643D-17  0.26914003D-17  0.69419064D-18
 -0.71360438D-21 -0.19491640D-02 -0.25674865D-02 -0.28325391D-02 -0.23527493D-02
 -0.12496023D-02 -0.32230889D-03  0.33132258D-06  0.24933523D-17  0.32735887D-17
  0.37272216D-17  0.31560582D-17  0.18079116D-17  0.41123717D-18 -0.19248163D-18
 -0.46242754D-17 -0.60713346D-17 -0.69126611D-17 -0.58533575D-17 -0.33530286D-17
 -0.76269767D-18  0.35698448D-18  0.12989086D-02  0.17053718D-02  0.19416912D-02
  0.16441444D-02  0.94182921D-03  0.21423347D-03 -0.10027305D-03  0.49508285D-18
 -0.91972549D-18 -0.49988467D-06  0.46178646D-19 -0.77043974D-19  0.55263722D-03
 -0.32175689D-20  0.47149331D-20  0.14593158D-04  0.12545182D-03  0.12545182D-03
 -0.25090363D-03 -0.21389801D-19  0.51170970D-19 -0.18058844D-18 -0.73120767D-04
 -0.73120767D-04  0.14624153D-03 -0.22814125D-20 -0.29888773D-19 -0.12052392D-20
 -0.40903051D-04 -0.40903051D-04  0.81806101D-04 -0.33248842D-21  0.72174398D-20
 -0.12937530D-19  0.44797670D-20 -0.11568342D-19 -0.86132066D-04  0.50237822D-20
 -0.60281619D-20  0.12919810D-03 -0.18463083D-19  0.40733188D-19  0.12919810D-03
  0.16436395D-20 -0.64983386D-21  0.35523564D-20  0.67036136D-04 -0.63936092D-21
  0.33454326D-20 -0.10055420D-03  0.25888625D-20 -0.14002502D-19 -0.10055420D-03
 -0.44208999D-21  0.36156377D-04  0.68014548D-04  0.11773654D-03  0.19299271D-03
  0.30232682D-03  0.45442295D-03  0.64948455D-03  0.86220688D-03  0.10041570D-02
  0.92230851D-03  0.53931006D-03  0.14151766D-03  0.77367151D-05 -0.27691212D-06
  0.77388198D-07 -0.22979167D-07  0.39175502D-08  0.31961821D-09 -0.77400848D-04
 -0.14220934D-03 -0.24591272D-03 -0.40271645D-03 -0.63405896D-03 -0.95749115D-03
 -0.13976447D-02 -0.19246416D-02 -0.24591767D-02 -0.26807908D-02 -0.22067036D-02
 -0.60506314D-03  0.12204516D-02  0.11893834D-02  0.26027059D-03  0.87682766D-05
  0.29704119D-06 -0.75563448D-09  0.10147968D-03  0.19894082D-03  0.34843991D-03
  0.56923743D-03  0.89782454D-03  0.13547771D-02  0.19863725D-02  0.27425158D-02
  0.35556853D-02  0.39541313D-02  0.34344065D-02  0.99763365D-03 -0.25150223D-02
 -0.36645648D-02 -0.63086792D-03  0.15390476D-02  0.73254786D-03 -0.35376973D-05
 -0.48932125D-04 -0.10602410D-03 -0.18048921D-03 -0.29460700D-03 -0.46441903D-03
 -0.70094245D-03 -0.10276959D-02 -0.14207166D-02 -0.18439476D-02 -0.20600119D-02
 -0.17994670D-02 -0.53300389D-03  0.13855039D-02  0.21313734D-02  0.37305542D-03
 -0.11767827D-02 -0.99891055D-03  0.37268460D-03  0.54964040D-04 -0.89266216D-03
 -0.14959672D-03  0.49537358D-14  0.71077338D-14  0.94110175D-14  0.10867059D-13
  0.10074263D-13  0.65222618D-14  0.23021189D-14  0.26982818D-15  0.39228024D-17
  0.57445074D-18  0.59062458D-20 -0.79779981D-14 -0.11447015D-13 -0.15156456D-13
 -0.17501413D-13 -0.16224615D-13 -0.10504111D-13 -0.37075655D-14 -0.43455865D-15
 -0.63176784D-17 -0.92515368D-18 -0.95120166D-20  0.46171115D-02  0.66247376D-02
  0.87715047D-02  0.10128603D-01  0.93896807D-02  0.60790504D-02  0.21456816D-02
  0.25149238D-03  0.36562337D-05  0.53541473D-06  0.55048949D-08 -0.73035184D-18
 -0.10542713D-17 -0.14084812D-17 -0.16733189D-17 -0.16215743D-17 -0.11272010D-17
 -0.36678038D-18  0.16508028D-18  0.17834178D-18  0.45913545D-19 -0.44784423D-22
  0.10097728D-17  0.14576187D-17  0.19473437D-17  0.23135040D-17  0.22419628D-17
  0.15584501D-17  0.50710471D-18 -0.22823736D-18 -0.24657250D-18 -0.63479335D-19
  0.61918230D-22 -0.18538177D-01 -0.26760071D-01 -0.35750815D-01 -0.42473065D-01
 -0.41159656D-01 -0.28611211D-01 -0.93098137D-02  0.41901550D-02  0.45267653D-02
  0.11654019D-02 -0.11367419D-05  0.13727404D-17  0.19946528D-17  0.26519140D-17
  0.31821132D-17  0.30787086D-17  0.21855246D-17  0.67926655D-18 -0.38999200D-18
 -0.44801424D-18 -0.11897412D-18  0.42926233D-19 -0.17320141D-17 -0.25166934D-17
 -0.33459730D-17 -0.40149360D-17 -0.38844683D-17 -0.27575202D-17 -0.85704422D-18
  0.49206072D-18  0.56526854D-18  0.15011203D-18 -0.54160888D-19  0.13243260D-01
  0.19243044D-01  0.25583850D-01  0.30698849D-01  0.29701272D-01  0.21084445D-01
  0.65530984D-02 -0.37623757D-02 -0.43221345D-02 -0.11477808D-02  0.41412289D-03
 -0.16871225D-18  0.26496347D-18 -0.35563476D-03 -0.16732830D-19  0.26219036D-19
  0.34814905D-03  0.14571099D-20 -0.89125032D-21  0.49589521D-05  0.20407686D-03
  0.21354445D-03  0.18195130D-03  0.11982868D-03  0.55225473D-04  0.16537357D-04
  0.28136911D-05  0.20407686D-03  0.21354445D-03  0.18195130D-03  0.11982868D-03
  0.55225473D-04  0.16537357D-04  0.28136911D-05 -0.40815372D-03 -0.42708889D-03
 -0.36390259D-03 -0.23965737D-03 -0.11045095D-03 -0.33074715D-04 -0.56273823D-05
  0.53365459D-18  0.55841203D-18  0.47579694D-18  0.31334826D-18  0.14441288D-18
  0.43244671D-19  0.73577142D-20 -0.31380812D-18 -0.32836639D-18 -0.27978574D-18
 -0.18426006D-18 -0.84919976D-19 -0.25429424D-19 -0.43266010D-20  0.76935205D-18
  0.80504403D-18  0.68594060D-18  0.45174374D-18  0.20819524D-18  0.62344402D-19
  0.10607371D-19 -0.29240864D-04 -0.29240864D-04  0.58481728D-04 -0.17037786D-19
  0.23325877D-19 -0.31789822D-19  0.78828320D-04  0.78828320D-04 -0.15765664D-03
  0.30980994D-20 -0.16734092D-19  0.87684288D-20  0.20155332D-04  0.20155332D-04
 -0.40310664D-04 -0.59664188D-21  0.62938953D-20 -0.12576920D-19 -0.33603685D-20
  0.28555274D-20  0.78665720D-05 -0.35307545D-20  0.25772204D-20 -0.11799858D-04
  0.13611860D-19 -0.11143803D-19 -0.11799858D-04  0.27729896D-20  0.11882852D-20
 -0.19932927D-20  0.21989182D-04  0.11652560D-20 -0.18945970D-20 -0.32983773D-04
 -0.47301115D-20  0.78744753D-20 -0.32983773D-04 -0.19042988D-21
MO    3     MO 0.0        OCC NO =    2.0000000  ORB. ENERGY =  -61.875489
  0.12668562D-03  0.23702928D-03  0.40953409D-03  0.66390253D-03  0.10081889D-02
  0.14012641D-02  0.16659008D-02  0.14838563D-02  0.73663072D-03  0.11868301D-03
  0.18221004D-05  0.32560754D-06  0.12167446D-07 -0.21940282D-03 -0.40981297D-03
 -0.71125029D-03 -0.11540702D-02 -0.17863636D-02 -0.25570171D-02 -0.33377061D-02
 -0.35568828D-02 -0.26588421D-02 -0.14035555D-03  0.18034992D-02  0.10714857D-02
 -0.40172681D-05  0.11359946D-03  0.21201703D-03  0.36846693D-03  0.59717650D-03
  0.92750860D-03  0.13286828D-02  0.17544019D-02  0.18970288D-02  0.14872952D-02
  0.74007318D-04 -0.12749880D-02 -0.13198490D-02  0.59725033D-03 -0.26842324D-03
 -0.96227430D-03 -0.58310288D-03  0.10529821D-14  0.13870137D-14  0.15302010D-14
  0.12710078D-14  0.67506314D-15  0.17411848D-15 -0.17898787D-18  0.30939264D-14
  0.40753954D-14  0.44961158D-14  0.37345410D-14  0.19835055D-14  0.51160392D-15
 -0.52591143D-18  0.19027820D-02  0.25063909D-02  0.27651363D-02  0.22967635D-02
  0.12198669D-02  0.31463926D-03 -0.32343846D-06 -0.46966993D-16 -0.61664219D-16
 -0.70209250D-16 -0.59450309D-16 -0.34055426D-16 -0.77464279D-17  0.36257546D-17
  0.44051713D-15  0.57836669D-15  0.65851303D-15  0.55760179D-15  0.31941577D-15
  0.72656007D-16 -0.34007010D-16 -0.13483652D-02 -0.17703047D-02 -0.20156222D-02
 -0.17067461D-02 -0.97768985D-03 -0.22239052D-03  0.10409100D-03  0.81710352D-16
  0.25096780D-16 -0.31234429D-03 -0.14424118D-17  0.18361641D-16 -0.61362714D-03
  0.61890093D-18  0.11879579D-17 -0.37476949D-04  0.81976852D-04  0.81976852D-04
 -0.16395370D-03 -0.72199292D-16  0.73264732D-16 -0.51260605D-15 -0.80139388D-05
 -0.80139388D-05  0.16027878D-04 -0.85338354D-17 -0.11345440D-16  0.11712009D-15
  0.33002063D-04  0.33002063D-04 -0.66004126D-04  0.79370978D-18 -0.68827946D-18
 -0.28345998D-16 -0.19534112D-17 -0.50495796D-17 -0.39986707D-04 -0.19655583D-17
 -0.50525789D-17  0.59980061D-04  0.78257919D-17  0.20201318D-16  0.59980061D-04
 -0.76246890D-17  0.88976019D-18  0.21309477D-17  0.31825159D-04  0.89113890D-18
  0.21312220D-17 -0.47737738D-04 -0.35604195D-17 -0.85240651D-17 -0.47737738D-04
  0.12966863D-17 -0.72993300D-03 -0.13730929D-02 -0.23768915D-02 -0.38961799D-02
 -0.61034412D-02 -0.91739919D-02 -0.13111939D-01 -0.17406425D-01 -0.20272146D-01
 -0.18619770D-01 -0.10887712D-01 -0.28569900D-02 -0.15619053D-03  0.55903636D-05
 -0.15623302D-05  0.46390856D-06 -0.79088377D-07 -0.64525238D-08  0.25343415D+00
  0.46563706D+00  0.80519379D+00  0.13186174D+01  0.20761038D+01  0.31351202D+01
  0.45763180D+01  0.63018679D+01  0.80521000D+01  0.87777325D+01  0.72254254D+01
  0.19811626D+01 -0.39961334D+01 -0.38944066D+01 -0.85220587D+00 -0.28710031D-01
 -0.97260412D-03  0.24741794D-05 -0.15438698D-02 -0.30266031D-02 -0.53010204D-02
 -0.86601424D-02 -0.13659130D-01 -0.20611018D-01 -0.30219847D-01 -0.41723498D-01
 -0.54094722D-01 -0.60156515D-01 -0.52249637D-01 -0.15177585D-01  0.38262507D-01
  0.55751169D-01  0.95977631D-02 -0.23414433D-01 -0.11144680D-01  0.53821061D-04
  0.54480915D-03  0.11804699D-02  0.20095628D-02  0.32801476D-02  0.51708308D-02
  0.78042771D-02  0.11442342D-01  0.15818226D-01  0.20530470D-01  0.22936125D-01
  0.20035225D-01  0.59344530D-02 -0.15426169D-01 -0.23730662D-01 -0.41535905D-02
  0.13102272D-01  0.11121847D-01 -0.41494618D-02  0.48584578D-02  0.18697061D-02
  0.25971037D-03  0.40597597D-13  0.58250364D-13  0.77126579D-13  0.89059347D-13
  0.82562111D-13  0.53452216D-13  0.18866669D-13  0.22113363D-14  0.32148737D-16
  0.47078247D-17  0.48403749D-19 -0.50269001D-14 -0.72127116D-14 -0.95500136D-14
 -0.11027560D-13 -0.10223055D-13 -0.66185924D-14 -0.23361201D-14 -0.27381342D-15
 -0.39807403D-17 -0.58293510D-18 -0.59934781D-20  0.59051997D-01  0.84729161D-01
  0.11218591D+00  0.12954294D+00  0.12009227D+00  0.77749924D-01  0.27442868D-01
  0.32165408D-02  0.46762549D-04  0.68478548D-05  0.70406582D-07 -0.16069955D-15
 -0.23197164D-15 -0.30990857D-15 -0.36818089D-15 -0.35679550D-15 -0.24801839D-15
 -0.80702804D-16  0.36322666D-16  0.39240598D-16  0.10102372D-16 -0.98539309D-20
 -0.79723858D-15 -0.11508230D-14 -0.15374721D-14 -0.18265640D-14 -0.17700805D-14
 -0.12304318D-14 -0.40037069D-15  0.18019858D-15  0.19467459D-15  0.50118377D-16
 -0.48885849D-19 -0.89920331D-02 -0.12980103D-01 -0.17341107D-01 -0.20601768D-01
 -0.19964692D-01 -0.13878008D-01 -0.45157706D-02  0.20324551D-02  0.21957296D-02
  0.56528387D-03 -0.55138222D-06 -0.27249709D-15 -0.39595036D-15 -0.52642060D-15
 -0.63166828D-15 -0.61114185D-15 -0.43383955D-15 -0.13483842D-15  0.77415717D-16
  0.88933473D-16  0.23617066D-16 -0.85211109D-17  0.64667671D-15  0.93964995D-15
  0.12492755D-14  0.14990441D-14  0.14503318D-14  0.10295667D-14  0.31999192D-15
 -0.18371918D-15 -0.21105255D-15 -0.56046860D-16  0.20221882D-16  0.61927808D-02
  0.89983852D-02  0.11963457D-01  0.14355321D-01  0.13888836D-01  0.98594567D-02
  0.30643439D-02 -0.17593530D-02 -0.20211060D-02 -0.53672246D-03  0.19365114D-03
 -0.32899524D-16 -0.11410685D-16 -0.78565858D-04 -0.13577509D-17 -0.12434028D-16
 -0.60228318D-03  0.11730349D-17 -0.58658373D-18 -0.17632157D-04  0.15539064D-02
  0.16259956D-02  0.13854353D-02  0.91241386D-03  0.42050438D-03  0.12592072D-03
  0.21424343D-04  0.15539064D-02  0.16259956D-02  0.13854353D-02  0.91241386D-03
  0.42050438D-03  0.12592072D-03  0.21424343D-04 -0.31078127D-02 -0.32519912D-02
 -0.27708705D-02 -0.18248277D-02 -0.84100877D-03 -0.25184144D-03 -0.42848685D-04
  0.22856997D-14  0.23917385D-14  0.20378892D-14  0.13421041D-14  0.61853582D-15
  0.18522155D-15  0.31513877D-16 -0.73828747D-15 -0.77253828D-15 -0.65824397D-15
 -0.43350342D-15 -0.19978882D-15 -0.59827085D-16 -0.10179071D-16  0.58347527D-15
  0.61054401D-15  0.52021617D-15  0.34260168D-15  0.15789491D-15  0.47281887D-16
  0.80446123D-17  0.98066987D-04  0.98066987D-04 -0.19613397D-03 -0.43682736D-16
  0.15860312D-16 -0.24263654D-17 -0.45666850D-04 -0.45666850D-04  0.91333701D-04
  0.87401733D-17 -0.20664432D-17 -0.61586274D-17 -0.44336568D-04 -0.44336568D-04
  0.88673135D-04 -0.41209051D-17 -0.81903115D-20  0.68902698D-17 -0.17378463D-17
 -0.10234020D-16  0.16490634D-03 -0.17361468D-17 -0.10230474D-16 -0.24735950D-03
  0.69496857D-17  0.40932534D-16 -0.24735950D-03 -0.10325156D-16 -0.79216636D-18
  0.88414767D-18 -0.70687798D-04 -0.79241466D-18  0.88359354D-18  0.10603170D-03
  0.31689137D-17 -0.35360365D-17  0.10603170D-03  0.20233879D-17
MO    4     MO 0.0        OCC NO =    2.0000000  ORB. ENERGY =  -55.791968
  0.98415260D-04  0.18413533D-03  0.31814506D-03  0.51575024D-03  0.78320788D-03
  0.10885669D-02  0.12941490D-02  0.11527284D-02  0.57224887D-03  0.92198461D-04
  0.14154920D-05  0.25294702D-06  0.94522357D-08 -0.17832031D-03 -0.33307674D-03
 -0.57807083D-03 -0.93797403D-03 -0.14518724D-02 -0.20782234D-02 -0.27127308D-02
 -0.28908673D-02 -0.21609820D-02 -0.11407440D-03  0.14657994D-02  0.87085326D-03
 -0.32650468D-05  0.99014495D-04  0.18479629D-03  0.32115968D-03  0.52050537D-03
  0.80842633D-03  0.11580940D-02  0.15291553D-02  0.16534704D-02  0.12963423D-02
  0.64505562D-04 -0.11112931D-02 -0.11503944D-02  0.52056972D-03 -0.49414693D-04