 Molden2AIM, Version 4.0.0 (06/02/2016)           Time: Tue Jun 26 17:37:27 2018
GAUSSIAN             13 MOL ORBITALS    233 PRIMITIVES        2 NUCLEI
  Cl   1    (CENTRE  1)  -0.39513228  2.73230587  0.75452040  CHARGE = 17.0
  O    2    (CENTRE  2)   2.42815634  4.09130619  0.83453140  CHARGE =  8.0
CENTRE ASSIGNMENTS    1  1  1  1  1  1  1  1  1  1  1  1  1  1  1  1  1  1  1  1
CENTRE ASSIGNMENTS    1  1  1  1  1  1  1  1  1  1  1  1  1  1  1  1  1  1  1  1
CENTRE ASSIGNMENTS    1  1  1  1  1  1  1  1  1  1  1  1  1  1  1  1  1  1  1  1
CENTRE ASSIGNMENTS    1  1  1  1  1  1  1  1  1  1  1  1  1  1  1  1  1  1  1  1
CENTRE ASSIGNMENTS    1  1  1  1  1  1  1  1  1  1  1  1  1  1  1  1  1  1  1  1
CENTRE ASSIGNMENTS    1  1  1  1  1  1  1  1  1  1  1  1  1  1  1  1  1  1  1  1
CENTRE ASSIGNMENTS    1  1  1  1  1  1  1  1  1  1  1  2  2  2  2  2  2  2  2  2
CENTRE ASSIGNMENTS    2  2  2  2  2  2  2  2  2  2  2  2  2  2  2  2  2  2  2  2
CENTRE ASSIGNMENTS    2  2  2  2  2  2  2  2  2  2  2  2  2  2  2  2  2  2  2  2
CENTRE ASSIGNMENTS    2  2  2  2  2  2  2  2  2  2  2  2  2  2  2  2  2  2  2  2
CENTRE ASSIGNMENTS    2  2  2  2  2  2  2  2  2  2  2  2  2  2  2  2  2  2  2  2
CENTRE ASSIGNMENTS    2  2  2  2  2  2  2  2  2  2  2  2  2
TYPE ASSIGNMENTS      1  1  1  1  1  1  1  1  1  1  1  1  1  1  1  1  1  1  1  1
TYPE ASSIGNMENTS      1  2  2  2  2  2  2  2  2  3  3  3  3  3  3  3  3  4  4  4
TYPE ASSIGNMENTS      4  4  4  4  4  2  2  3  3  4  4  2  3  4  2  3  4  2  3  4
TYPE ASSIGNMENTS      2  3  4  2  3  4  5  6  7  8  9 10  5  6  7  8  9 10  5  6
TYPE ASSIGNMENTS      7  8  9 10  5  6  7  8  9 10  5  6  7  8  9 10 11 12 13 17
TYPE ASSIGNMENTS     14 15 18 19 16 20 11 12 13 17 14 15 18 19 16 20 21 22 23 24
TYPE ASSIGNMENTS     25 26 27 28 29 30 31 32 33 34 35  1  1  1  1  1  1  1  1  1
TYPE ASSIGNMENTS      1  1  1  1  1  1  1  2  2  2  2  2  3  3  3  3  3  4  4  4
TYPE ASSIGNMENTS      4  4  2  3  4  2  3  4  2  3  4  2  3  4  5  6  7  8  9 10
TYPE ASSIGNMENTS      5  6  7  8  9 10  5  6  7  8  9 10  5  6  7  8  9 10 11 12
TYPE ASSIGNMENTS     13 17 14 15 18 19 16 20 11 12 13 17 14 15 18 19 16 20 21 22
TYPE ASSIGNMENTS     23 24 25 26 27 28 29 30 31 32 33 34 35
EXPONENTS  0.1467459D+07 0.2197562D+06 0.5001077D+05 0.1416482D+05 0.4620747D+04
EXPONENTS  0.1667899D+04 0.6502920D+03 0.2693804D+03 0.1170675D+03 0.5281177D+02
EXPONENTS  0.4614277D+03 0.1421267D+03 0.5443784D+02 0.2416077D+02 0.9708354D+01
EXPONENTS  0.4564070D+01 0.2119474D+01 0.7572237D+00 0.3374722D+00 0.1386078D+00
EXPONENTS  0.5423457D-01 0.2501946D+04 0.5928806D+03 0.1921809D+03 0.7287571D+02
EXPONENTS  0.3043636D+02 0.1349018D+02 0.6147807D+01 0.2845094D+01 0.2501946D+04
EXPONENTS  0.5928806D+03 0.1921809D+03 0.7287571D+02 0.3043636D+02 0.1349018D+02
EXPONENTS  0.6147807D+01 0.2845094D+01 0.2501946D+04 0.5928806D+03 0.1921809D+03
EXPONENTS  0.7287571D+02 0.3043636D+02 0.1349018D+02 0.6147807D+01 0.2845094D+01
EXPONENTS  0.1053940D+03 0.6736974D+01 0.1053940D+03 0.6736974D+01 0.1053940D+03
EXPONENTS  0.6736974D+01 0.1242110D+01 0.1242110D+01 0.1242110D+01 0.5566971D+00
EXPONENTS  0.5566971D+00 0.5566971D+00 0.2338780D+00 0.2338780D+00 0.2338780D+00
EXPONENTS  0.9316449D-01 0.9316449D-01 0.9316449D-01 0.2725615D-01 0.2725615D-01
EXPONENTS  0.2725615D-01 0.5191000D+01 0.5191000D+01 0.5191000D+01 0.5191000D+01
EXPONENTS  0.5191000D+01 0.5191000D+01 0.1276000D+01 0.1276000D+01 0.1276000D+01
EXPONENTS  0.1276000D+01 0.1276000D+01 0.1276000D+01 0.5830000D+00 0.5830000D+00
EXPONENTS  0.5830000D+00 0.5830000D+00 0.5830000D+00 0.5830000D+00 0.2430000D+00
EXPONENTS  0.2430000D+00 0.2430000D+00 0.2430000D+00 0.2430000D+00 0.2430000D+00
EXPONENTS  0.8345654D-01 0.8345654D-01 0.8345654D-01 0.8345654D-01 0.8345654D-01
EXPONENTS  0.8345654D-01 0.4230000D+00 0.4230000D+00 0.4230000D+00 0.4230000D+00
EXPONENTS  0.4230000D+00 0.4230000D+00 0.4230000D+00 0.4230000D+00 0.4230000D+00
EXPONENTS  0.4230000D+00 0.1089000D+01 0.1089000D+01 0.1089000D+01 0.1089000D+01
EXPONENTS  0.1089000D+01 0.1089000D+01 0.1089000D+01 0.1089000D+01 0.1089000D+01
EXPONENTS  0.1089000D+01 0.8270000D+00 0.8270000D+00 0.8270000D+00 0.8270000D+00
EXPONENTS  0.8270000D+00 0.8270000D+00 0.8270000D+00 0.8270000D+00 0.8270000D+00
EXPONENTS  0.8270000D+00 0.8270000D+00 0.8270000D+00 0.8270000D+00 0.8270000D+00
EXPONENTS  0.8270000D+00 0.1165065D+06 0.1750435D+05 0.3993451D+04 0.1133006D+04
EXPONENTS  0.3699957D+03 0.1336207D+03 0.5203564D+02 0.2146194D+02 0.8983505D+02
EXPONENTS  0.2642801D+02 0.9282282D+01 0.4094773D+01 0.1325535D+01 0.5187723D+00
EXPONENTS  0.1977268D+00 0.6963854D-01 0.1911526D+03 0.4523336D+02 0.1435347D+02
EXPONENTS  0.5242237D+01 0.2079242D+01 0.1911526D+03 0.4523336D+02 0.1435347D+02
EXPONENTS  0.5242237D+01 0.2079242D+01 0.1911526D+03 0.4523336D+02 0.1435347D+02
EXPONENTS  0.5242237D+01 0.2079242D+01 0.8428237D+00 0.8428237D+00 0.8428237D+00
EXPONENTS  0.3361769D+00 0.3361769D+00 0.3361769D+00 0.1286400D+00 0.1286400D+00
EXPONENTS  0.1286400D+00 0.4359816D-01 0.4359816D-01 0.4359816D-01 0.3775000D+01
EXPONENTS  0.3775000D+01 0.3775000D+01 0.3775000D+01 0.3775000D+01 0.3775000D+01
EXPONENTS  0.1300000D+01 0.1300000D+01 0.1300000D+01 0.1300000D+01 0.1300000D+01
EXPONENTS  0.1300000D+01 0.4440000D+00 0.4440000D+00 0.4440000D+00 0.4440000D+00
EXPONENTS  0.4440000D+00 0.4440000D+00 0.1254638D+00 0.1254638D+00 0.1254638D+00
EXPONENTS  0.1254638D+00 0.1254638D+00 0.1254638D+00 0.2666000D+01 0.2666000D+01
EXPONENTS  0.2666000D+01 0.2666000D+01 0.2666000D+01 0.2666000D+01 0.2666000D+01
EXPONENTS  0.2666000D+01 0.2666000D+01 0.2666000D+01 0.8590000D+00 0.8590000D+00
EXPONENTS  0.8590000D+00 0.8590000D+00 0.8590000D+00 0.8590000D+00 0.8590000D+00
EXPONENTS  0.8590000D+00 0.8590000D+00 0.8590000D+00 0.1846000D+01 0.1846000D+01
EXPONENTS  0.1846000D+01 0.1846000D+01 0.1846000D+01 0.1846000D+01 0.1846000D+01
EXPONENTS  0.1846000D+01 0.1846000D+01 0.1846000D+01 0.1846000D+01 0.1846000D+01
EXPONENTS  0.1846000D+01 0.1846000D+01 0.1846000D+01
MO    1     MO 0.0        OCC NO =    2.0000000  ORB. ENERGY = -100.454710
  0.34521032D+00  0.64605718D+00  0.11190680D+01  0.18303427D+01  0.28552025D+01
  0.42359764D+01  0.58751860D+01  0.72715997D+01  0.73589052D+01  0.50794037D+01
 -0.81952705D-02 -0.31006764D-01 -0.58494249D-01  0.17506469D+01  0.12124883D+00
 -0.95852347D-02  0.19823582D-02 -0.42760379D-03  0.15289373D-03 -0.11669602D-05
 -0.35066388D-05  0.90174776D-03  0.12963941D-02  0.17196676D-02  0.20122461D-02
  0.19833069D-02  0.14942131D-02  0.78035558D-03  0.22426168D-03  0.43406225D-03
  0.62402786D-03  0.82777337D-03  0.96860795D-03  0.95467790D-03  0.71924936D-03
  0.37562932D-03  0.10794984D-03  0.25556544D-04  0.36741264D-04  0.48737310D-04
  0.57029312D-04  0.56209144D-04  0.42347677D-04  0.22116153D-04  0.63558277D-05
  0.25329741D-02 -0.15199929D-02  0.12192623D-02 -0.73165774D-03  0.71786227D-04
 -0.43077644D-04 -0.93007275D-04 -0.44769749D-04 -0.26359896D-05  0.94160326D-05
  0.45325488D-05  0.26690771D-06  0.43486950D-04  0.20932584D-04  0.12323940D-05
 -0.30968761D-05 -0.14906917D-05 -0.87763843D-07 -0.86874483D-07 -0.41817363D-07
 -0.24619956D-08  0.16959587D-03 -0.51562282D-04 -0.11803358D-03  0.27713136D-03
  0.16316685D-04  0.78638442D-05 -0.42654627D-04  0.12968801D-04  0.29685825D-04
 -0.69699065D-04 -0.41035656D-05 -0.19759183D-05  0.22417901D-04 -0.68160390D-05
 -0.15601862D-04  0.36631421D-04  0.21566848D-05  0.10382671D-05  0.90603548D-05
 -0.27547713D-05 -0.63055835D-05  0.14804782D-04  0.87162846D-06  0.41954760D-06
 -0.27669328D-06  0.84127683D-07  0.19256560D-06 -0.45212187D-06 -0.26618675D-07
 -0.12812405D-07  0.51659690D-05 -0.48473761D-05 -0.41515571D-06 -0.88047738D-06
  0.21578282D-04  0.12704211D-05 -0.14617429D-04 -0.70361531D-05 -0.24953945D-07
  0.16231470D-05 -0.33358256D-05  0.31300912D-05  0.26807208D-06  0.56859006D-06
 -0.13933702D-04 -0.82035202D-06  0.94388867D-05  0.45434282D-05  0.16135782D-07
 -0.10480421D-05  0.17679407D-05 -0.14590960D-05  0.31000038D-05  0.21768892D-04
  0.12816442D-05 -0.13681688D-04 -0.38773583D-06 -0.14327684D-05 -0.68966998D-06
  0.83734774D-05 -0.18981121D-04  0.38109878D-06  0.32322174D-05  0.45337269D-06
 -0.24261614D-04  0.58332685D-06  0.10894883D-05  0.18803736D-05  0.30544281D-05
  0.46617163D-05  0.65472943D-05  0.79589341D-05  0.75507624D-05 -0.80237251D-05
 -0.31269729D-04  0.41501927D-04 -0.47031291D-04  0.48393469D-04 -0.25009196D-04
 -0.40897462D-04  0.81894153D-05 -0.23428133D-05 -0.30851202D-05 -0.34322679D-05
 -0.31874381D-05 -0.22220075D-05 -0.11277203D-05 -0.14850319D-05 -0.16521325D-05
 -0.15342829D-05 -0.10695700D-05 -0.66393487D-07 -0.87429878D-07 -0.97267773D-07
 -0.90329487D-07 -0.62969944D-07 -0.13364031D-04 -0.64328216D-05 -0.37872976D-06
  0.61017942D-04  0.29371207D-04  0.17292250D-05 -0.85483987D-07 -0.41145754D-07
 -0.24212311D-08 -0.27441662D-06 -0.13209162D-06 -0.77769800D-08  0.53465979D-05
 -0.16256235D-05 -0.37209745D-05  0.87364218D-05  0.51434077D-06  0.24758485D-06
  0.31177262D-06 -0.94793938D-07 -0.21697868D-06  0.50943644D-06  0.29992238D-07
  0.14432741D-07 -0.20345106D-04  0.61858559D-05  0.14159250D-04 -0.33244289D-04
 -0.19572505D-05 -0.94212808D-06 -0.25564342D-06  0.77727125D-07  0.17791630D-06
 -0.41772783D-06 -0.24594326D-07 -0.11838577D-07 -0.60173732D-05  0.56462276D-05
  0.48354961D-06  0.10257016D-05 -0.25134373D-04 -0.14797225D-05  0.17026418D-04
  0.81956906D-05  0.29073691D-07 -0.18905532D-05  0.64840407D-05 -0.60841479D-05
 -0.52107360D-06 -0.11051563D-05  0.27083813D-04  0.15945399D-05 -0.18346966D-04
 -0.88313695D-05 -0.31319066D-07  0.20372615D-05  0.73214724D-06 -0.60428124D-06
  0.12838281D-05  0.90153164D-05  0.53082286D-06 -0.56660887D-05 -0.16058895D-06
 -0.59340470D-06 -0.28562927D-06  0.34678864D-05 -0.78607698D-05  0.15780109D-06
  0.13386546D-05  0.18774552D-06 -0.10047683D-04
MO    2     MO 0.0        OCC NO =    2.0000000  ORB. ENERGY =  -18.478489
  0.78639788D-06  0.14717347D-05  0.25492654D-05  0.41695673D-05  0.65042238D-05
  0.96496619D-05  0.13383823D-04  0.16564889D-04  0.16763773D-04  0.11571011D-04
 -0.91803834D-05 -0.34733934D-04 -0.65525553D-04  0.15455174D-03 -0.29284878D-03
  0.42040502D-03 -0.43595403D-03  0.50701896D-03 -0.29823952D-03 -0.45597320D-04
  0.65277342D-05 -0.74900454D-04 -0.10768034D-03 -0.14283804D-03 -0.16714003D-03
 -0.16473630D-03 -0.12411147D-03 -0.64817447D-04 -0.18627495D-04 -0.36053463D-04
 -0.51832118D-04 -0.68755338D-04 -0.80453140D-04 -0.79296102D-04 -0.59741271D-04
 -0.31199990D-04 -0.89663768D-05 -0.21225532D-05 -0.30514802D-05 -0.40477904D-05
 -0.47364679D-05 -0.46683503D-05 -0.35171108D-05 -0.18368177D-05 -0.52787195D-06
  0.28936624D-03 -0.17364356D-03  0.13928717D-03 -0.83583763D-04  0.82003337D-05
 -0.49208750D-05  0.31664515D-03  0.15241793D-03  0.89733611D-05 -0.82839313D-04
 -0.39874724D-04 -0.23474104D-05 -0.19920275D-03 -0.95887126D-04 -0.56454893D-05
  0.17741082D-04  0.85399320D-05  0.50292072D-06 -0.38933727D-06 -0.18741327D-06
 -0.11037336D-07 -0.43073562D-03  0.13096404D-03  0.29977159D-03 -0.70382781D-03
 -0.41436692D-04 -0.19945770D-04  0.32582936D-03 -0.99067440D-04 -0.22676192D-03
  0.53241022D-03  0.31345104D-04  0.15088083D-04 -0.19600696D-03  0.59595256D-04
  0.13641171D-03 -0.32027873D-03 -0.18856239D-04 -0.90764913D-05 -0.43710658D-04
  0.13290049D-04  0.30420610D-04 -0.71424219D-04 -0.42051887D-05 -0.20242147D-05
  0.21177401D-05 -0.64387921D-06 -0.14738609D-05  0.34605010D-05  0.20376864D-06
  0.98099732D-07 -0.38780932D-04  0.36389287D-04  0.31165956D-05  0.66097381D-05
 -0.16198829D-03 -0.95370988D-05  0.10973306D-03  0.52820433D-04  0.18731188D-06
 -0.12185178D-04 -0.74575494D-05  0.69975586D-05  0.59930181D-06  0.12710965D-05
 -0.31149896D-04 -0.18338888D-05  0.21101552D-04  0.10157220D-04  0.35983426D-07
 -0.23428303D-05 -0.19672061D-04  0.16235234D-04 -0.34493720D-04 -0.24222258D-03
 -0.14260465D-04  0.15223642D-03  0.43142870D-05  0.15942053D-04  0.76738348D-05
 -0.93170677D-04  0.21120305D-03 -0.42407245D-05 -0.35964365D-04 -0.50447658D-05
  0.26995849D-03 -0.18268258D+00 -0.34119897D+00 -0.58888338D+00 -0.95656627D+00
 -0.14599265D+01 -0.20504398D+01 -0.24925281D+01 -0.23646995D+01  0.10995570D-01
  0.42851478D-01 -0.13591584D+01 -0.35579911D+00 -0.11477131D-01  0.16635189D-02
 -0.14350269D-03  0.13291270D-04  0.29190284D-02  0.38439056D-02  0.42764344D-02
  0.39713886D-02  0.27685103D-02  0.14051135D-02  0.18503156D-02  0.20585191D-02
  0.19116812D-02  0.13326596D-02  0.82744911D-04  0.10896216D-03  0.12122293D-03
  0.11257588D-03  0.78478216D-04 -0.86183576D-03 -0.41486030D-03 -0.24433616D-04
 -0.14533754D-03 -0.69955462D-04 -0.41162195D-05 -0.27906496D-05 -0.13439826D-05
 -0.79609337D-07 -0.59658953D-06 -0.28715228D-06 -0.16891645D-07 -0.25164404D-02
  0.76506009D-03  0.17513803D-02 -0.41120147D-02 -0.24218064D-03 -0.11644591D-03
  0.15022190D-03 -0.45669172D-04 -0.10455273D-03  0.24546757D-03  0.14460409D-04
  0.69450320D-05  0.10556667D-03 -0.32097654D-04 -0.73469011D-04  0.17249766D-03
  0.10154653D-04  0.48896711D-05 -0.73376332D-06  0.22313628D-06  0.51062704D-06
 -0.11988782D-05 -0.70494836D-07 -0.34005199D-07  0.15864874D-03 -0.14888844D-03
 -0.12763969D-04 -0.27006872D-04  0.66270484D-03  0.39102931D-04 -0.44893934D-03
 -0.21603952D-03 -0.81102407D-06  0.49643694D-04 -0.72578438D-04  0.68103374D-04
  0.58334946D-05  0.12368840D-04 -0.30316257D-03 -0.17850968D-04  0.20536648D-03
  0.98852449D-04  0.35048409D-06 -0.22799076D-04  0.36294229D-04 -0.29958228D-04
  0.63653082D-04  0.44697052D-03  0.26296282D-04 -0.28090899D-03 -0.79690029D-05
 -0.29426998D-04 -0.14176867D-04  0.17195124D-03 -0.38971662D-03  0.77981245D-05
  0.66437608D-04  0.93921474D-05 -0.49818460D-03
MO    3     MO 0.0        OCC NO =    2.0000000  ORB. ENERGY =   -8.959553
 -0.97669326D-01 -0.18278703D+00 -0.31661457D+00 -0.51785341D+00 -0.80781392D+00
 -0.11984722D+01 -0.16622488D+01 -0.20573320D+01 -0.20820331D+01 -0.14371005D+01
 -0.14258868D+00 -0.53948355D+00 -0.10177355D+01 -0.11127406D+01  0.72010518D+00
  0.12287159D+01  0.48470351D+00  0.31340180D-01 -0.51462966D-02  0.38972271D-03
  0.10574065D-03  0.30263566D-01  0.43508295D-01  0.57713782D-01  0.67533011D-01
  0.66561783D-01  0.50147301D-01  0.26189522D-01  0.75264485D-02  0.14567398D-01
  0.20942761D-01  0.27780587D-01  0.32507082D-01  0.32039581D-01  0.24138454D-01
  0.12606352D-01  0.36228635D-02  0.85762851D-03  0.12329662D-02  0.16355305D-02
  0.19137941D-02  0.18862709D-02  0.14211067D-02  0.74217561D-03  0.21328937D-03
 -0.49820887D-02  0.29896632D-02 -0.23981070D-02  0.14390616D-02 -0.14114974D-03
  0.84701462D-04  0.19332683D-02  0.93057604D-03  0.54779276D-04  0.61869321D-04
  0.29783498D-04  0.17553973D-05 -0.94816915D-03 -0.45640516D-03 -0.26871131D-04
  0.11428259D-03  0.55010406D-04  0.32387492D-05  0.21877196D-05  0.10530677D-05
  0.61999678D-07  0.11315673D-01 -0.34404785D-02 -0.78751945D-02  0.18489925D-01
  0.10886207D-02  0.52403008D-03  0.14456457D-02 -0.43954796D-03 -0.10060977D-02
  0.23621946D-02  0.13904664D-03  0.66968136D-04 -0.45223485D-03  0.13750114D-03
  0.31473371D-03 -0.73895666D-03 -0.43499757D-04 -0.20948726D-04 -0.18400988D-03
  0.55947435D-04  0.12806244D-03 -0.30067614D-03 -0.17702955D-04 -0.85202975D-05
  0.84488590D-05 -0.25688387D-05 -0.58800203D-05  0.13805626D-04  0.81283470D-06
  0.39120625D-06 -0.10108275D-03  0.94848608D-04  0.81233158D-05  0.17228811D-04
 -0.42222287D-03 -0.24857906D-04  0.28601942D-03  0.13767704D-03  0.48795858D-06
 -0.31760789D-04  0.64729871D-04 -0.60734302D-04 -0.52005355D-05 -0.11041388D-04
  0.27037123D-03  0.15912137D-04 -0.18314823D-03 -0.88168324D-04 -0.31053001D-06
  0.20343020D-04 -0.28114825D-04  0.23203827D-04 -0.49298377D-04 -0.34618142D-03
 -0.20382542D-04  0.21757462D-03  0.61663320D-05  0.22785800D-04  0.10966561D-04
 -0.13316214D-03  0.30185109D-03 -0.60608239D-05 -0.51398679D-04 -0.72097768D-05
  0.38582041D-03 -0.63230118D-05 -0.11809583D-04 -0.20382440D-04 -0.33108685D-04
 -0.50530997D-04 -0.70969850D-04 -0.86271417D-04 -0.81847012D-04  0.71218861D-04
  0.27755119D-03 -0.52687704D-03  0.67687480D-03 -0.83883094D-03  0.46958651D-03
  0.80144753D-03 -0.27318719D-03 -0.33905680D-04 -0.44648498D-04 -0.49672492D-04
 -0.46129263D-04 -0.32157352D-04 -0.16320728D-04 -0.21491856D-04 -0.23910190D-04
 -0.22204633D-04 -0.15479159D-04 -0.96095379D-06 -0.12654264D-05 -0.14078163D-05
 -0.13073942D-05 -0.91140274D-06  0.33022675D-03  0.15895593D-03  0.93586047D-05
 -0.12900126D-02 -0.62095228D-03 -0.36558531D-04  0.41888848D-04  0.20163350D-04
  0.11871518D-05  0.99168322D-05  0.47734936D-05  0.28103429D-06  0.99185931D-04
 -0.30156570D-04 -0.69029360D-04  0.16207221D-03  0.95428370D-05  0.45923148D-05
 -0.74092654D-04  0.22527516D-04  0.51565137D-04 -0.12106884D-03 -0.71281625D-05
 -0.34307595D-05  0.41759546D-03 -0.12696833D-03 -0.29062713D-03  0.68235912D-03
  0.40173905D-04  0.19337801D-04  0.48993075D-05 -0.14896188D-05 -0.34096886D-05
  0.80055537D-05  0.47130000D-06  0.22687932D-06  0.13979437D-03 -0.13117255D-03
 -0.11234088D-04 -0.23827363D-04  0.58392028D-03  0.34377824D-04 -0.39555575D-03
 -0.19040263D-03 -0.67556056D-06  0.43924671D-04 -0.11244454D-03  0.10550988D-03
  0.90364871D-05  0.19164821D-04 -0.46968139D-03 -0.27652427D-04  0.31816879D-03
  0.15315174D-03  0.54296604D-06 -0.35330757D-04 -0.14353621D-04  0.11846233D-04
 -0.25168486D-04 -0.17673890D-03 -0.10405840D-04  0.11108010D-03  0.31478826D-05
  0.11632191D-04  0.55988036D-05 -0.67983296D-04  0.15410502D-03 -0.30941040D-05
 -0.26240059D-04 -0.36790534D-05  0.19697639D-03
MO    4     MO 0.0        OCC NO =    2.0000000  ORB. ENERGY =   -6.784862
 -0.58933728D-03 -0.11029380D-02 -0.19104542D-02 -0.31247305D-02 -0.48743539D-02
 -0.72315880D-02 -0.10030019D-01 -0.12413953D-01 -0.12563000D-01 -0.86714729D-02
 -0.87357868D-03 -0.33051805D-02 -0.62352217D-02 -0.70081637D-02  0.46213369D-02
  0.81922160D-02  0.21673076D-02  0.10225028D-02 -0.82514119D-03  0.12621840D-03
  0.21202028D-04 -0.55418520D+01 -0.79672214D+01 -0.10568524D+02 -0.12366618D+02
 -0.12188767D+02 -0.91829536D+01 -0.47958146D+01 -0.13782402D+01 -0.26676034D+01
 -0.38350693D+01 -0.50872220D+01 -0.59527449D+01 -0.58671353D+01 -0.44202693D+01
 -0.23084939D+01 -0.66342411D+00 -0.15706698D+00 -0.22580672D+00 -0.29953276D+00
 -0.35049425D+00 -0.34545361D+00 -0.26026296D+00 -0.13592281D+00 -0.39062037D-01
 -0.22292956D+00  0.13377608D+00 -0.10730877D+00  0.64394094D-01 -0.63184610D-02
  0.37915966D-02 -0.12549904D+00 -0.60409684D-01 -0.35568741D-02 -0.19755143D-02
 -0.95092926D-03 -0.55991017D-04 -0.74746653D-04 -0.35978282D-04 -0.21175260D-05
 -0.34773334D-05 -0.16739706D-05 -0.98607006D-07  0.67335532D-06  0.32412591D-06
  0.19086389D-07 -0.14331806D-01  0.43574788D-02  0.99743268D-02 -0.23418610D-01
 -0.13789182D-02 -0.66384523D-03 -0.21023027D-03  0.63924353D-04  0.14630592D-03
 -0.34349432D-03 -0.20202226D-04 -0.97556893D-05 -0.46462630D-03  0.14126719D-03
  0.32335911D-03 -0.75921395D-03 -0.44703223D-04 -0.21510373D-04 -0.24433034D-04
  0.74288582D-05  0.17004176D-04 -0.39923383D-04 -0.23499550D-05 -0.11319725D-05
 -0.17078908D-05  0.51927455D-06  0.11886163D-05 -0.27907557D-05 -0.16432218D-06
 -0.79052368D-07 -0.20042332D-04  0.18806437D-04  0.16106150D-05  0.34157360D-05
 -0.83717059D-04 -0.49292650D-05  0.56711259D-04  0.27297747D-04  0.97420009D-07
 -0.62960391D-05 -0.47065621D-03  0.44162743D-03  0.37823833D-04  0.80223564D-04
 -0.19659312D-02 -0.11573725D-03  0.13317451D-02  0.64104896D-03  0.22657510D-05
 -0.14789775D-03 -0.24524124D-04  0.20239395D-04 -0.43001713D-04 -0.30196975D-03
 -0.17776770D-04  0.18978633D-03  0.53783269D-05  0.19873816D-04  0.95681702D-05
 -0.11615095D-03  0.26329570D-03 -0.52854208D-05 -0.44839491D-04 -0.62911373D-05
  0.33655027D-03  0.29582485D-05  0.55251648D-05  0.95360127D-05  0.15490042D-04
  0.23641146D-04  0.33203552D-04  0.40362456D-04  0.38292479D-04  0.83325890D-04
  0.32473420D-03 -0.47746331D-03  0.76096268D-03 -0.67693899D-03  0.12613401D-03
  0.37504507D-03 -0.10415732D-03  0.10444699D-03  0.13754042D-03  0.15301692D-03
  0.14210194D-03  0.99061244D-04  0.50275837D-04  0.66205444D-04  0.73655096D-04
  0.68401145D-04  0.47683391D-04  0.29598933D-05  0.38977183D-05  0.43363022D-05
  0.40269860D-05  0.28072680D-05  0.52859759D-03  0.25444239D-03  0.14980260D-04
 -0.70424504D-03 -0.33899099D-03 -0.19958103D-04  0.76419818D-04  0.36784919D-04
  0.21656479D-05  0.43955026D-05  0.21158022D-05  0.12456836D-06 -0.12419573D-03
  0.37761768D-04  0.86433964D-04 -0.20293825D-03 -0.11947496D-04 -0.57516031D-05
 -0.31846603D-03  0.96828394D-04  0.22163764D-03 -0.52037931D-03 -0.30637186D-04
 -0.14746978D-04  0.33135518D-03 -0.10074732D-03 -0.23060786D-03  0.54144076D-03
  0.31877296D-04  0.15344195D-04 -0.11085408D-04  0.33704858D-05  0.77149221D-05
 -0.18113725D-04 -0.10664013D-05 -0.51333921D-06  0.83872317D-03 -0.78699707D-03
 -0.67401779D-04 -0.14295275D-03  0.35033482D-02  0.20625837D-03 -0.23732168D-02
 -0.11423570D-02 -0.40530315D-05  0.26352372D-03 -0.25859910D-03  0.24265077D-03
  0.20781801D-04  0.44075567D-04 -0.10801692D-02 -0.63594723D-04  0.73172174D-03
  0.35221686D-03  0.12493199D-05 -0.81251175D-04  0.14200422D-03 -0.11719641D-03
  0.24899688D-03  0.17485096D-02  0.10294258D-03 -0.10989338D-02 -0.31143270D-04
 -0.11508091D-03 -0.55394430D-04  0.67256722D-03 -0.15245925D-02  0.30611249D-04
  0.25961310D-03  0.36414992D-04 -0.19487275D-02
MO    5     MO 0.0        OCC NO =    2.0000000  ORB. ENERGY =   -6.773211
  0.17683602D-08  0.33094659D-08  0.57324917D-08  0.93760383D-08  0.14625943D-07
  0.21699038D-07  0.30095986D-07  0.37249197D-07  0.37696425D-07  0.26019544D-07
  0.24280376D-07  0.91864681D-07  0.17330269D-06 -0.19984091D-06  0.23810515D-06
 -0.24774157D-06  0.76954863D-07 -0.32114256D-07  0.13010483D-07  0.20362822D-08
 -0.31643432D-09  0.21102925D+01  0.30338536D+01  0.40244088D+01  0.47091081D+01
  0.46413840D+01  0.34967946D+01  0.18262075D+01  0.52482274D+00 -0.41467100D+01
 -0.59615012D+01 -0.79079352D+01 -0.92533647D+01 -0.91202873D+01 -0.68711770D+01
 -0.35884850D+01 -0.10312730D+01 -0.40310980D+01 -0.57952920D+01 -0.76874586D+01
 -0.89953770D+01 -0.88660098D+01 -0.66796057D+01 -0.34884365D+01 -0.10025207D+01
  0.86716535D-01 -0.52037057D-01 -0.17039813D+00  0.10225290D+00 -0.16564718D+00
  0.99401942D-01  0.47539387D-01 -0.93414504D-01 -0.90810079D-01  0.59081619D-03
 -0.11609647D-02 -0.11285947D-02 -0.73448722D-04  0.14434378D-03  0.14031648D-03
  0.92269687D-05 -0.18131594D-04 -0.17625986D-04 -0.54876934D-06  0.10783198D-05
  0.10482585D-05  0.10865570D-01 -0.10277301D-01 -0.58826950D-03 -0.16120800D-01
 -0.20447576D-01 -0.10596048D-01  0.60773100D-03 -0.57484422D-03 -0.32886775D-04
 -0.90167012D-03 -0.11437087D-02 -0.59261935D-03 -0.34705414D-04  0.32830548D-04
  0.18748661D-05  0.51499566D-04  0.65321514D-04  0.33841204D-04 -0.54867016D-05
  0.51902508D-05  0.29645086D-06  0.81442007D-05  0.10327318D-04  0.53523649D-05
 -0.27346590D-06  0.25865950D-06  0.14806395D-07  0.40566332D-06  0.51461132D-06
  0.26662502D-06 -0.24753905D-04 -0.95599871D-06 -0.15419199D-04  0.62635238D-04
  0.17018096D-04  0.45425580D-04  0.11626477D-04 -0.14150100D-04  0.83201696D-06
  0.63178103D-04  0.36708751D-03  0.14166800D-04  0.22865208D-03 -0.92882568D-03
 -0.25232182D-03 -0.67361989D-03 -0.17243685D-03  0.20982142D-03 -0.12336354D-04
 -0.93686824D-03 -0.54555505D-05 -0.32436078D-05 -0.33042431D-06 -0.30365489D-05
  0.96095739D-05  0.54412760D-05 -0.30454875D-05 -0.11441461D-04 -0.59308361D-05
  0.25106202D-04  0.76271010D-05 -0.56445551D-05  0.26928971D-04  0.54956618D-05
 -0.72141815D-05  0.17218725D-11  0.32159669D-11  0.55505135D-11  0.90161043D-11
  0.13760521D-10  0.19326396D-10  0.23493295D-10  0.22288448D-10 -0.39578140D-09
 -0.15424229D-08  0.25655285D-08 -0.39109235D-08  0.44507067D-08 -0.14448294D-08
 -0.65204832D-08  0.54146248D-09  0.14624459D-06  0.19258134D-06  0.21425122D-06
  0.19896829D-06  0.13870357D-06 -0.28776779D-06 -0.37894534D-06 -0.42158551D-06
 -0.39151305D-06 -0.27292920D-06 -0.27968434D-06 -0.36830070D-06 -0.40974310D-06
 -0.38051538D-06 -0.26526257D-06  0.11425519D-05 -0.22519704D-05 -0.21879324D-05
  0.13450120D-04 -0.26410082D-04 -0.25677256D-04  0.18863637D-05 -0.37057135D-05
 -0.36025711D-05  0.46098028D-08 -0.91156685D-08 -0.88505430D-08  0.33663347D-04
 -0.31841019D-04 -0.18223286D-05 -0.49945255D-04 -0.63350566D-04 -0.32828053D-04
 -0.26685174D-04  0.25241330D-04  0.14438437D-05  0.39595490D-04  0.50220699D-04
  0.26024220D-04 -0.17347198D-04  0.16406378D-04  0.94082020D-06  0.25728853D-04
  0.32640087D-04  0.16913854D-04 -0.15927207D-05  0.15064531D-05  0.86267628D-07
  0.23628575D-05  0.29971796D-05  0.15531440D-05  0.11212700D-03  0.43296238D-05
  0.69842911D-04 -0.28371277D-03 -0.77082405D-04 -0.20575782D-03 -0.52668240D-04
  0.64093534D-04 -0.37709178D-05 -0.28617676D-03  0.95695298D-06  0.36018623D-07
  0.59537062D-06 -0.24190210D-05 -0.65308180D-06 -0.17539247D-05 -0.45183794D-06
  0.54502593D-06 -0.32187130D-07 -0.24395390D-05  0.26838878D-04  0.15955291D-04
  0.16238830D-05  0.14944411D-04 -0.47283752D-04 -0.26773853D-04  0.14981629D-04
  0.56289265D-04  0.29175245D-04 -0.12351086D-03 -0.37522410D-04  0.27779112D-04
 -0.13247062D-03 -0.27016540D-04  0.35488323D-04
MO    6     MO 0.0        OCC NO =    2.0000000  ORB. ENERGY =   -6.773211
 -0.78439657D-10 -0.14679892D-09 -0.25427777D-09 -0.41589561D-09 -0.64876712D-09
 -0.96251044D-09 -0.13349762D-08 -0.16522733D-08 -0.16721111D-08 -0.11541564D-08
  0.26573064D-08  0.10053905D-07  0.18966688D-07 -0.28184322D-07  0.28429142D-07
 -0.22024619D-07  0.96072820D-08 -0.40874622D-08  0.12727860D-08 -0.12638517D-09
 -0.99341799D-10  0.16419515D+01  0.23605450D+01  0.31312645D+01  0.36640073D+01
  0.36113133D+01  0.27207446D+01  0.14209140D+01  0.40834788D+00 -0.36848942D+01
 -0.52975734D+01 -0.70272346D+01 -0.82228247D+01 -0.81045680D+01 -0.61059394D+01
 -0.31888382D+01 -0.91642096D+00  0.46501438D+01  0.66852607D+01  0.88680027D+01
  0.10376775D+02  0.10227541D+02  0.77053763D+01  0.40241471D+01  0.11564753D+01
  0.67471327D-01 -0.40488349D-01 -0.15142032D+00  0.90864655D-01  0.19108447D+00
 -0.11466641D+00  0.36988865D-01 -0.83011004D-01  0.10475555D+00  0.45970182D-03
 -0.10316751D-02  0.13019199D-02 -0.57154029D-04  0.12826712D-03 -0.16186639D-03
  0.71793806D-05 -0.16112421D-04  0.20332986D-04 -0.42697942D-06  0.95822797D-06
 -0.12092364D-05  0.84541949D-02 -0.91326230D-02  0.67842815D-03 -0.14903610D-01
  0.24182425D-01  0.10987373D-01  0.47285180D-03 -0.51080191D-03  0.37950117D-04
 -0.83356155D-03  0.13525599D-02  0.61451534D-03 -0.27003064D-04  0.29169405D-04
 -0.21663405D-05  0.47599973D-04 -0.77239598D-04 -0.35089827D-04 -0.42703326D-05
  0.46131747D-05 -0.34284211D-06  0.75282620D-05 -0.12215033D-04 -0.55503117D-05
 -0.21275338D-06  0.22981612D-06 -0.17062736D-07  0.37500862D-06 -0.60853322D-06
 -0.27646536D-06 -0.19260843D-04 -0.84891253D-06  0.17786787D-04  0.55604969D-04
  0.18616689D-04 -0.55997209D-04  0.21775599D-05 -0.16069952D-04  0.26368486D-05
 -0.67138966D-04  0.28562002D-03  0.12588866D-04 -0.26376198D-03 -0.82457275D-03
 -0.27606702D-03  0.83038793D-03 -0.32287310D-04  0.23830043D-03 -0.39101980D-04
  0.99560823D-03 -0.42456517D-05 -0.28818889D-05  0.38086200D-06 -0.11777536D-05
 -0.12653313D-04  0.46549049D-05  0.37339533D-05  0.13534850D-04  0.61477357D-05
  0.22525208D-04  0.29487023D-05 -0.52338743D-05 -0.29645067D-04 -0.26446107D-05
 -0.10431454D-04  0.94239548D-12  0.17601261D-11  0.30378433D-11  0.49345906D-11
  0.75312500D-11  0.10577501D-10  0.12858080D-10  0.12198657D-10  0.30667725D-10
  0.11951699D-09 -0.17533813D-09  0.27848306D-09 -0.24305147D-09 -0.25408510D-10
  0.16203482D-09  0.11189613D-09  0.11396870D-06  0.15007902D-06  0.16696640D-06
  0.15505638D-06  0.10809196D-06 -0.25559459D-06 -0.33657826D-06 -0.37445114D-06
 -0.34774086D-06 -0.24241500D-06  0.32260094D-06  0.42481518D-06  0.47261676D-06
  0.43890415D-06  0.30596620D-06  0.89141399D-06 -0.20000220D-05  0.25240191D-05
  0.10458788D-04 -0.23472291D-04  0.29620718D-04  0.14674925D-05 -0.32932070D-05
  0.41558917D-05  0.35919310D-08 -0.80637615D-08  0.10174661D-07  0.26192768D-04
 -0.28295042D-04  0.21022740D-05 -0.46174332D-04  0.74922358D-04  0.34041045D-04
 -0.20764297D-04  0.22430729D-04 -0.16664319D-05  0.36604116D-04 -0.59394211D-04
 -0.26985810D-04 -0.13495075D-04  0.14578322D-04 -0.10832473D-05  0.23790440D-04
 -0.38602050D-04 -0.17538837D-04 -0.12392485D-05  0.13386966D-05 -0.99448148D-07
  0.21845547D-05 -0.35447156D-05 -0.16105526D-05  0.87246607D-04  0.38456007D-05
 -0.80569603D-04 -0.25187605D-03 -0.84327607D-04  0.25365145D-03 -0.98637688D-05
  0.72790804D-04 -0.11942643D-04  0.30412281D-03  0.74325452D-06  0.32823958D-07
 -0.68647642D-06 -0.21461499D-05 -0.71909892D-06  0.21611683D-05 -0.83613668D-07
  0.62062705D-06 -0.10173908D-06  0.25913903D-05  0.20883433D-04  0.14178591D-04
 -0.18735859D-05  0.58003311D-05  0.62244296D-04 -0.22896663D-04 -0.18362448D-04
 -0.66577606D-04 -0.30244053D-04 -0.11080683D-03 -0.14493769D-04  0.25735284D-04
  0.14581950D-03  0.12999931D-04  0.51288994D-04
MO    7     MO 0.0        OCC NO =    2.0000000  ORB. ENERGY =   -0.640503
 -0.18282910D-01 -0.34216257D-01 -0.59267693D-01 -0.96937978D-01 -0.15121625D+00
 -0.22434432D+00 -0.31115957D+00 -0.38511594D+00 -0.38973979D+00 -0.26901362D+00
 -0.29558019D-01 -0.11183261D+00 -0.21097218D+00 -0.23930139D+00  0.18787446D+00
  0.35366368D+00  0.23606969D+00 -0.10577709D+00 -0.11808948D+00 -0.15748685D-01
 -0.48808059D-04  0.35458757D+00  0.50977141D+00  0.67621211D+00  0.79126057D+00
  0.77988104D+00  0.58755832D+00  0.30685343D+00  0.88184754D-01  0.17068206D+00
  0.24538039D+00  0.32549724D+00  0.38087625D+00  0.37539867D+00  0.28282341D+00
  0.14770505D+00  0.42448063D-01  0.10048894D-01  0.14446753D-01  0.19163627D-01
  0.22424063D-01  0.22101571D-01  0.16651208D-01  0.86961246D-02  0.24991267D-02
 -0.17431212D-01  0.10460162D-01 -0.83904618D-02  0.50349676D-02 -0.49387850D-03