 Molden2AIM, Version 4.0.0 (06/02/2016)           Time: Tue Jun 26 17:32:33 2018
GAUSSIAN              7 MOL ORBITALS    201 PRIMITIVES        2 NUCLEI
  C    1    (CENTRE  1)   0.00000000  0.00000000 -1.21389770  CHARGE =  6.0
  O    2    (CENTRE  2)   0.00000000  0.00000000  0.90932865  CHARGE =  8.0
CENTRE ASSIGNMENTS    1  1  1  1  1  1  1  1  1  1  1  1  1  1  1  1  1  1  1  1
CENTRE ASSIGNMENTS    1  1  1  1  1  1  1  1  1  1  1  1  1  1  1  1  1  1  1  1
CENTRE ASSIGNMENTS    1  1  1  1  1  1  1  1  1  1  1  1  1  1  1  1  1  1  1  1
CENTRE ASSIGNMENTS    1  1  1  1  1  1  1  1  1  1  1  1  1  1  1  1  1  1  1  1
CENTRE ASSIGNMENTS    1  1  1  1  1  1  1  1  1  1  1  1  1  1  1  1  1  1  1  2
CENTRE ASSIGNMENTS    2  2  2  2  2  2  2  2  2  2  2  2  2  2  2  2  2  2  2  2
CENTRE ASSIGNMENTS    2  2  2  2  2  2  2  2  2  2  2  2  2  2  2  2  2  2  2  2
CENTRE ASSIGNMENTS    2  2  2  2  2  2  2  2  2  2  2  2  2  2  2  2  2  2  2  2
CENTRE ASSIGNMENTS    2  2  2  2  2  2  2  2  2  2  2  2  2  2  2  2  2  2  2  2
CENTRE ASSIGNMENTS    2  2  2  2  2  2  2  2  2  2  2  2  2  2  2  2  2  2  2  2
CENTRE ASSIGNMENTS    2
TYPE ASSIGNMENTS      1  1  1  1  1  1  1  1  1  1  1  1  1  1  1  1  2  2  2  2
TYPE ASSIGNMENTS      2  3  3  3  3  3  4  4  4  4  4  2  3  4  2  3  4  2  3  4
TYPE ASSIGNMENTS      5  6  7  8  9 10  5  6  7  8  9 10  5  6  7  8  9 10  5  6
TYPE ASSIGNMENTS      7  8  9 10 11 12 13 17 14 15 18 19 16 20 11 12 13 17 14 15
TYPE ASSIGNMENTS     18 19 16 20 21 22 23 24 25 26 27 28 29 30 31 32 33 34 35  1
TYPE ASSIGNMENTS      1  1  1  1  1  1  1  1  1  1  1  1  1  1  1  2  2  2  2  2
TYPE ASSIGNMENTS      3  3  3  3  3  4  4  4  4  4  2  3  4  2  3  4  2  3  4  2
TYPE ASSIGNMENTS      3  4  5  6  7  8  9 10  5  6  7  8  9 10  5  6  7  8  9 10
TYPE ASSIGNMENTS      5  6  7  8  9 10 11 12 13 17 14 15 18 19 16 20 11 12 13 17
TYPE ASSIGNMENTS     14 15 18 19 16 20 21 22 23 24 25 26 27 28 29 30 31 32 33 34
TYPE ASSIGNMENTS     35
EXPONENTS  0.6702507D+05 0.1003999D+05 0.2284932D+04 0.6471412D+03 0.2110947D+03
EXPONENTS  0.7617764D+02 0.2963384D+02 0.1218779D+02 0.5302601D+02 0.1525850D+02
EXPONENTS  0.5240396D+01 0.2290502D+01 0.6967328D+00 0.2759934D+00 0.1073988D+00
EXPONENTS  0.4498140D-01 0.1051256D+03 0.2488446D+02 0.7863723D+01 0.2840700D+01
EXPONENTS  0.1122714D+01 0.1051256D+03 0.2488446D+02 0.7863723D+01 0.2840700D+01
EXPONENTS  0.1122714D+01 0.1051256D+03 0.2488446D+02 0.7863723D+01 0.2840700D+01
EXPONENTS  0.1122714D+01 0.4605073D+00 0.4605073D+00 0.4605073D+00 0.1893753D+00
EXPONENTS  0.1893753D+00 0.1893753D+00 0.7598379D-01 0.7598379D-01 0.7598379D-01
EXPONENTS  0.1848000D+01 0.1848000D+01 0.1848000D+01 0.1848000D+01 0.1848000D+01
EXPONENTS  0.1848000D+01 0.6490000D+00 0.6490000D+00 0.6490000D+00 0.6490000D+00
EXPONENTS  0.6490000D+00 0.6490000D+00 0.2280000D+00 0.2280000D+00 0.2280000D+00
EXPONENTS  0.2280000D+00 0.2280000D+00 0.2280000D+00 0.7688983D-01 0.7688983D-01
EXPONENTS  0.7688983D-01 0.7688983D-01 0.7688983D-01 0.7688983D-01 0.1419000D+01
EXPONENTS  0.1419000D+01 0.1419000D+01 0.1419000D+01 0.1419000D+01 0.1419000D+01
EXPONENTS  0.1419000D+01 0.1419000D+01 0.1419000D+01 0.1419000D+01 0.4850000D+00
EXPONENTS  0.4850000D+00 0.4850000D+00 0.4850000D+00 0.4850000D+00 0.4850000D+00
EXPONENTS  0.4850000D+00 0.4850000D+00 0.4850000D+00 0.4850000D+00 0.1011000D+01
EXPONENTS  0.1011000D+01 0.1011000D+01 0.1011000D+01 0.1011000D+01 0.1011000D+01
EXPONENTS  0.1011000D+01 0.1011000D+01 0.1011000D+01 0.1011000D+01 0.1011000D+01
EXPONENTS  0.1011000D+01 0.1011000D+01 0.1011000D+01 0.1011000D+01 0.1165065D+06
EXPONENTS  0.1750435D+05 0.3993451D+04 0.1133006D+04 0.3699957D+03 0.1336207D+03
EXPONENTS  0.5203564D+02 0.2146194D+02 0.8983505D+02 0.2642801D+02 0.9282282D+01
EXPONENTS  0.4094773D+01 0.1325535D+01 0.5187723D+00 0.1977268D+00 0.6963854D-01
EXPONENTS  0.1911526D+03 0.4523336D+02 0.1435347D+02 0.5242237D+01 0.2079242D+01
EXPONENTS  0.1911526D+03 0.4523336D+02 0.1435347D+02 0.5242237D+01 0.2079242D+01
EXPONENTS  0.1911526D+03 0.4523336D+02 0.1435347D+02 0.5242237D+01 0.2079242D+01
EXPONENTS  0.8428237D+00 0.8428237D+00 0.8428237D+00 0.3361769D+00 0.3361769D+00
EXPONENTS  0.3361769D+00 0.1286400D+00 0.1286400D+00 0.1286400D+00 0.4359816D-01
EXPONENTS  0.4359816D-01 0.4359816D-01 0.3775000D+01 0.3775000D+01 0.3775000D+01
EXPONENTS  0.3775000D+01 0.3775000D+01 0.3775000D+01 0.1300000D+01 0.1300000D+01
EXPONENTS  0.1300000D+01 0.1300000D+01 0.1300000D+01 0.1300000D+01 0.4440000D+00
EXPONENTS  0.4440000D+00 0.4440000D+00 0.4440000D+00 0.4440000D+00 0.4440000D+00
EXPONENTS  0.1254638D+00 0.1254638D+00 0.1254638D+00 0.1254638D+00 0.1254638D+00
EXPONENTS  0.1254638D+00 0.2666000D+01 0.2666000D+01 0.2666000D+01 0.2666000D+01
EXPONENTS  0.2666000D+01 0.2666000D+01 0.2666000D+01 0.2666000D+01 0.2666000D+01
EXPONENTS  0.2666000D+01 0.8590000D+00 0.8590000D+00 0.8590000D+00 0.8590000D+00
EXPONENTS  0.8590000D+00 0.8590000D+00 0.8590000D+00 0.8590000D+00 0.8590000D+00
EXPONENTS  0.8590000D+00 0.1846000D+01 0.1846000D+01 0.1846000D+01 0.1846000D+01
EXPONENTS  0.1846000D+01 0.1846000D+01 0.1846000D+01 0.1846000D+01 0.1846000D+01
EXPONENTS  0.1846000D+01 0.1846000D+01 0.1846000D+01 0.1846000D+01 0.1846000D+01
EXPONENTS  0.1846000D+01
MO    1     MO 0.0        OCC NO =    2.0000000  ORB. ENERGY =  -18.859187
  0.55138457D-05  0.10319032D-04  0.17829460D-04  0.28975058D-04  0.44220301D-04
  0.62048246D-04  0.75345566D-04  0.71978212D-04 -0.65142275D-04 -0.26016850D-03
  0.45340842D-03 -0.65018448D-03  0.34241110D-03  0.19932713D-02  0.26889139D-03
 -0.56223872D-05  0.48021615D-16  0.62078430D-16  0.66847143D-16  0.62123766D-16
  0.46406614D-16 -0.93348592D-16 -0.12067345D-15 -0.12994329D-15 -0.12076158D-15
 -0.90209213D-16 -0.16025009D-04 -0.20715826D-04 -0.22307165D-04 -0.20730955D-04
 -0.15486077D-04 -0.59640346D-17  0.11502804D-15  0.21635566D-02 -0.10132589D-16
 -0.10970005D-15  0.50084581D-03 -0.68656174D-17 -0.69545577D-19 -0.10393751D-05
  0.14541385D-04  0.14541385D-04 -0.29082769D-04 -0.12945959D-15 -0.38890661D-16
  0.32168360D-15 -0.50096458D-03 -0.50096458D-03  0.10019292D-02  0.65680693D-16
  0.31692637D-17 -0.12989560D-15 -0.70887153D-04 -0.70887153D-04  0.14177431D-03
  0.34551212D-17 -0.51107795D-16 -0.18544427D-16  0.87764414D-06  0.87764414D-06
 -0.17552883D-05 -0.38416013D-18  0.19307844D-17 -0.40068192D-17  0.55793919D-16
  0.64721945D-17  0.38290923D-03  0.55895901D-16  0.62636452D-17 -0.57436384D-03
 -0.22327766D-15 -0.25680229D-16 -0.57436384D-03  0.60908485D-16  0.58164906D-17
  0.12972315D-16  0.78314638D-04  0.58114638D-17  0.12977592D-16 -0.11747196D-03
 -0.23260935D-16 -0.51894536D-16 -0.11747196D-03 -0.17918376D-16 -0.98739915D-05
 -0.98739915D-05 -0.26330659D-04  0.75452213D-17 -0.28842785D-16  0.75542256D-17
  0.45794715D-16  0.38467522D-16 -0.61065779D-16 -0.19748028D-04  0.78991977D-04
  0.78991977D-04  0.45813194D-16 -0.28874211D-16 -0.45298341D-16  0.18265699D+00
  0.34115118D+00  0.58880090D+00  0.95643229D+00  0.14597220D+01  0.20501526D+01
  0.24921790D+01  0.23643683D+01 -0.11019831D-01 -0.42946029D-01  0.13587879D+01
  0.35573412D+00  0.12575455D-01 -0.31554235D-02 -0.11991134D-02 -0.36622402D-04
 -0.34330656D-16 -0.45208125D-16 -0.50295090D-16 -0.46707450D-16 -0.32560415D-16
 -0.16938011D-15 -0.22304721D-15 -0.24814521D-15 -0.23044456D-15 -0.16064612D-15
 -0.38114973D-02 -0.50191481D-02 -0.55839190D-02 -0.51856080D-02 -0.36149596D-02
 -0.17804544D-17 -0.71297125D-16  0.17621127D-02  0.22781404D-16  0.60184112D-16
  0.16127266D-02  0.28894590D-16  0.29885379D-16  0.87491613D-04 -0.11628425D-17
  0.14072348D-17  0.12229848D-05 -0.13690068D-02 -0.13690068D-02  0.27380135D-02
  0.41451079D-18 -0.81229129D-16 -0.14372648D-15  0.32730517D-03  0.32730517D-03
 -0.65461035D-03  0.18759226D-16  0.33584303D-17  0.24127117D-16  0.34244496D-03
  0.34244496D-03 -0.68488993D-03  0.46331922D-17 -0.21882144D-16 -0.10149981D-15
  0.91065172D-06  0.91065172D-06 -0.18213034D-05 -0.31090086D-18 -0.12333491D-16
 -0.10014332D-16  0.34569040D-16 -0.79555319D-17 -0.12638990D-02  0.32766260D-16
 -0.67100083D-17  0.18958486D-02 -0.13647338D-15  0.30576604D-16  0.18958486D-02
  0.21476789D-16 -0.19891721D-16 -0.64938635D-17  0.42460583D-03 -0.19819856D-16
 -0.65396022D-17 -0.63690875D-03  0.79495019D-16  0.26021193D-16 -0.63690875D-03
 -0.36259400D-16 -0.43104819D-04 -0.43104819D-04 -0.11494282D-03 -0.28792234D-17
 -0.63677818D-16 -0.30238165D-17  0.14348763D-15  0.84966804D-16 -0.19127278D-15
 -0.86199559D-04  0.34482847D-03  0.34482847D-03  0.14335544D-15 -0.63866959D-16
  0.17709120D-16
MO    2     MO 0.0        OCC NO =    2.0000000  ORB. ENERGY =   -9.999017
 -0.11618807D+00 -0.21744324D+00 -0.37570340D+00 -0.61056409D+00 -0.93181271D+00
 -0.13074842D+01 -0.15876861D+01 -0.15167290D+01  0.94456464D-02  0.37724499D-01
 -0.89002509D+00 -0.24855558D+00 -0.10847636D-01  0.27645345D-02  0.77110007D-03
  0.10444128D-04  0.50064901D-17  0.64719825D-17  0.69691443D-17  0.64767089D-17
  0.48381183D-17 -0.87315177D-17 -0.11287395D-16 -0.12154465D-16 -0.11295638D-16
 -0.84378705D-17 -0.33262821D-02 -0.42999464D-02 -0.46302578D-02 -0.43030867D-02
 -0.32144168D-02  0.98529084D-18 -0.80672214D-17  0.76056991D-04  0.17726200D-17
 -0.67627713D-18  0.81972164D-03 -0.25575454D-18 -0.11679610D-18 -0.27188301D-04
  0.14451822D-02  0.14451822D-02 -0.28903644D-02  0.41628560D-16 -0.32518944D-17
 -0.62983532D-17  0.17052463D-03  0.17052463D-03 -0.34104926D-03  0.91318618D-18
  0.73268843D-17 -0.27749120D-17 -0.96086197D-04 -0.96086197D-04  0.19217239D-03
 -0.16328790D-17 -0.45062979D-18 -0.85247465D-18  0.47825635D-05  0.47825635D-05
 -0.95651270D-05  0.32973654D-19 -0.61662056D-20  0.55480562D-20  0.71542841D-18
 -0.13568635D-17 -0.17892753D-02  0.13447602D-17 -0.24628597D-17  0.26839130D-02
 -0.34910455D-17  0.65334501D-17  0.26839130D-02 -0.81367174D-17 -0.39505186D-18
  0.59141733D-18  0.80528423D-04 -0.40799279D-18  0.61583784D-18 -0.12079263D-03
  0.15931484D-17 -0.23900898D-17 -0.12079263D-03  0.12741346D-17 -0.70505184D-04
 -0.70505184D-04 -0.18801604D-03  0.21514009D-18 -0.23173983D-17  0.20510082D-18
  0.18761214D-17  0.30697921D-17 -0.24730365D-17 -0.14101701D-03  0.56404812D-03
  0.56404812D-03  0.17907451D-17 -0.22571813D-17 -0.12607227D-17  0.59037638D-04
  0.11026548D-03  0.19030980D-03  0.30913410D-03  0.47180534D-03  0.66264186D-03
  0.80551181D-03  0.76420137D-03  0.24125228D-04  0.94019839D-04  0.54883908D-03
  0.27291211D-03 -0.52583836D-03  0.31470642D-03 -0.15942899D-02 -0.30849295D-03
  0.15079207D-16  0.19856966D-16  0.22091337D-16  0.20515522D-16  0.14301656D-16
 -0.34238015D-16 -0.45086132D-16 -0.50159371D-16 -0.46581412D-16 -0.32472551D-16
  0.81738607D-03  0.10763701D-02  0.11974868D-02  0.11120679D-02  0.77523802D-03
  0.49576505D-17 -0.12782893D-16 -0.72622643D-03  0.10478025D-17 -0.30827713D-17
  0.32967748D-03  0.28196819D-18 -0.81860064D-19  0.45645810D-03  0.75195839D-19
 -0.60465200D-19  0.14791939D-04  0.10882967D-02  0.10882967D-02 -0.21765933D-02
 -0.44733054D-18 -0.54024705D-17  0.58746856D-17 -0.29848996D-03 -0.29848996D-03
  0.59697993D-03 -0.21772268D-19  0.12846685D-17  0.57127530D-17 -0.94575734D-04
 -0.94575734D-04  0.18915147D-03 -0.46624387D-18  0.12456819D-17 -0.11703147D-17
  0.23805737D-04  0.23805737D-04 -0.47611474D-04  0.49581607D-19 -0.89002610D-19
  0.49346380D-20 -0.13495369D-18 -0.82499702D-18  0.12004136D-02 -0.31924487D-18
 -0.82275898D-18 -0.18006204D-02  0.72410593D-18  0.32977500D-17 -0.18006204D-02
  0.17688089D-17  0.20738475D-18  0.70262083D-18 -0.35180454D-03  0.20302560D-18
  0.72248551D-18  0.52770680D-03 -0.82517985D-18 -0.28303480D-17  0.52770680D-03
 -0.14247218D-17  0.19630976D-04  0.19630976D-04  0.52350074D-04  0.53186458D-18
 -0.70885348D-18  0.52038974D-18  0.41568331D-17  0.92640979D-18 -0.55240859D-17
  0.39264366D-04 -0.15705022D-03 -0.15705022D-03  0.41017584D-17 -0.65266892D-18
 -0.31567630D-17
MO    3     MO 0.0        OCC NO =    2.0000000  ORB. ENERGY =   -1.079378
  0.13214054D-01  0.24729791D-01  0.42728697D-01  0.69439371D-01  0.10597493D+00
  0.14870000D+00  0.18056732D+00  0.17249739D+00  0.10149173D-01  0.40534279D-01
  0.17179825D+00  0.63030677D-01 -0.82258431D-01 -0.37983904D-01 -0.32716601D-03
  0.26571157D-03  0.23745809D-16  0.30696647D-16  0.33054689D-16  0.30719065D-16
  0.22947221D-16  0.32106746D-16  0.41504984D-16  0.44693296D-16  0.41535295D-16
  0.31026973D-16 -0.15136162D+00 -0.19566797D+00 -0.21069870D+00 -0.19581086D+00
 -0.14627122D+00 -0.63505174D-16  0.83357191D-16 -0.48240530D-01  0.25679200D-16
  0.78149391D-16 -0.31199124D-02 -0.20440796D-16  0.15168862D-16  0.39392175D-03
  0.28227997D-01  0.28227997D-01 -0.56455993D-01  0.26187640D-16  0.35129060D-16
 -0.76064090D-16  0.80361395D-02  0.80361395D-02 -0.16072279D-01  0.51278294D-17
  0.14231445D-16  0.57288034D-16  0.29516495D-03  0.29516495D-03 -0.59032990D-03
 -0.17732822D-17 -0.12301336D-16  0.24005999D-16 -0.24960173D-04 -0.24960173D-04
  0.49920346D-04  0.85306050D-18 -0.39792433D-17  0.46015907D-17 -0.39315418D-17
 -0.92227361D-17 -0.15795760D-01 -0.11308902D-16 -0.93921406D-17  0.23693639D-01
  0.23103527D-16  0.37060349D-16  0.23693639D-01 -0.86799612D-17  0.27408969D-18
 -0.47199992D-17 -0.10640889D-02  0.10401461D-18 -0.52806233D-17  0.15961333D-02
 -0.92628369D-18  0.19440621D-16  0.15961333D-02  0.38003026D-17 -0.68220535D-03
 -0.68220535D-03 -0.18192219D-02 -0.18441695D-17  0.13739216D-16 -0.19851113D-17
 -0.67388086D-17 -0.17231949D-16  0.92728551D-17 -0.13644335D-02  0.54576656D-02
  0.54576656D-02 -0.76021397D-17  0.10478200D-16  0.11487842D-16  0.36335215D-01
  0.67863823D-01  0.11712778D+00  0.19025920D+00  0.29037659D+00  0.40782855D+00
  0.49575907D+00  0.47033421D+00  0.32931249D-01  0.12833830D+00  0.49515731D+00
  0.14299568D+00 -0.24366445D+00 -0.18119440D+00 -0.29898447D-01 -0.80886159D-03
 -0.63018916D-16 -0.82986095D-16 -0.92323960D-16 -0.85738325D-16 -0.59769381D-16
  0.81444276D-16  0.10724942D-15  0.11931748D-15  0.11080635D-15  0.77244648D-16
  0.27159788D+00  0.35765210D+00  0.39789628D+00  0.36951362D+00  0.25759309D+00
 -0.27417427D-16  0.15746199D-16  0.10763711D+00  0.43974148D-17 -0.12649125D-16
  0.17449843D-01  0.16925614D-16 -0.38695141D-16  0.20428524D-03  0.55009545D-17
 -0.40632859D-17 -0.20748451D-04  0.22533054D-01  0.22533054D-01 -0.45066108D-01
 -0.53686929D-17 -0.98865264D-17 -0.26625450D-16  0.14315591D-01  0.14315591D-01
 -0.28631183D-01 -0.47700166D-18  0.19420050D-16 -0.34001011D-16  0.16701722D-02
  0.16701722D-02 -0.33403444D-02  0.29746989D-17 -0.16327067D-16  0.36019611D-16
 -0.32184997D-04 -0.32184997D-04  0.64369994D-04 -0.68403642D-18 -0.42203236D-17
  0.10311764D-16 -0.12578690D-17 -0.96388982D-17  0.18829846D-01 -0.13746924D-18
 -0.13967647D-16 -0.28244769D-01  0.39110762D-17  0.42884341D-16 -0.28244769D-01
  0.97293822D-17 -0.13681967D-17  0.89667785D-17  0.26554060D-02  0.69910541D-19
  0.80239133D-17 -0.39831090D-02  0.40346796D-17 -0.34924249D-16 -0.39831090D-02
 -0.15407452D-17 -0.90873556D-03 -0.90873556D-03 -0.24232991D-02 -0.43810797D-17
  0.17239983D-16 -0.66602756D-18 -0.22888318D-16 -0.21713577D-16  0.29469495D-16
 -0.18174840D-02  0.72698974D-02  0.72698974D-02 -0.19743530D-16  0.13420782D-16
  0.15141322D-16
MO    4     MO 0.0        OCC NO =    2.0000000  ORB. ENERGY =   -0.519127
  0.15245294D-01  0.28531208D-01  0.49296874D-01  0.80113464D-01  0.12226521D+00
  0.17155789D+00  0.20832380D+00  0.19901337D+00  0.12898509D-01  0.51514717D-01
  0.20394352D+00  0.78794257D-01 -0.10124090D+00 -0.87779718D-01 -0.16268068D-01
 -0.81895198D-03 -0.90646917D-17 -0.11718095D-16 -0.12618250D-16 -0.11726653D-16
 -0.87598397D-17 -0.11095660D-15 -0.14343565D-15 -0.15445402D-15 -0.14354040D-15
 -0.10722505D-15 -0.81331578D-01 -0.10513884D+00 -0.11321534D+00 -0.10521562D+00
 -0.78596339D-01 -0.39108482D-16 -0.24421503D-16 -0.38859201D-01  0.31191018D-16
 -0.24999591D-16 -0.63047282D-02 -0.58053537D-17 -0.98861467D-17 -0.24436134D-03
  0.11141791D-01  0.11141791D-01 -0.22283583D-01  0.86216302D-16 -0.57002881D-16
  0.47110377D-16  0.61000123D-02  0.61000123D-02 -0.12200025D-01 -0.37158926D-16
 -0.13164051D-16 -0.35013929D-16  0.46380360D-03  0.46380360D-03 -0.92760719D-03
  0.24835732D-17  0.23081378D-17 -0.73082691D-17 -0.95396790D-05 -0.95396790D-05
  0.19079358D-04  0.28560801D-18  0.72285775D-19  0.99078717D-18  0.10027758D-16
  0.90039794D-17 -0.12107471D-01  0.76421791D-17  0.13492908D-16  0.18161206D-01
 -0.37725454D-16 -0.40504846D-16  0.18161206D-01 -0.74137205D-17  0.17977452D-17
  0.61363808D-17 -0.19020524D-02  0.21380467D-17  0.51157706D-17  0.28530786D-02
 -0.75312822D-17 -0.23524913D-16  0.28530786D-02  0.18432548D-16 -0.90189343D-03
 -0.90189343D-03 -0.24050574D-02 -0.44411396D-17 -0.62850561D-17 -0.49771119D-17
  0.12285323D-16  0.92440142D-17 -0.16282561D-16 -0.18038116D-02  0.72151722D-02
  0.72151722D-02  0.11991714D-16 -0.88768742D-17  0.28254754D-16 -0.20943749D-01
 -0.39116952D-01 -0.67512874D-01 -0.10966609D+00 -0.16737412D+00 -0.23507385D+00
 -0.28575732D+00 -0.27110233D+00 -0.19207741D-01 -0.74855613D-01 -0.29447536D+00
 -0.79036390D-01  0.13985407D+00  0.15037683D+00  0.62006294D-01  0.59025634D-02
 -0.21606424D-15 -0.28452295D-15 -0.31653840D-15 -0.29395914D-15 -0.20492301D-15
 -0.37215239D-15 -0.49006671D-15 -0.54521061D-15 -0.50631976D-15 -0.35296256D-15
  0.71239038D+00  0.93810714D+00  0.10436660D+01  0.96921942D+00  0.67565636D+00
 -0.78630575D-16 -0.12889702D-15  0.27310250D+00 -0.36747153D-16 -0.34945280D-16
  0.60215434D-01 -0.39568490D-17  0.18629041D-17  0.49423163D-02  0.66596858D-18
 -0.15032665D-17 -0.64360150D-04  0.32275555D-01  0.32275555D-01 -0.64551110D-01
 -0.61497355D-17  0.41110694D-16  0.91934154D-16  0.14696483D-01  0.14696483D-01
 -0.29392967D-01 -0.57306622D-17  0.34467248D-16  0.44179883D-16  0.12154146D-02
  0.12154146D-02 -0.24308292D-02 -0.65549894D-17 -0.59067736D-17 -0.13308910D-16
  0.86947588D-05  0.86947588D-05 -0.17389518D-04 -0.15627444D-18  0.13555393D-17
  0.71968902D-19  0.76396939D-17  0.86654653D-17  0.12911414D-01  0.78103244D-18
  0.14087651D-16 -0.19367120D-01 -0.23700114D-16 -0.40084046D-16 -0.19367120D-01
 -0.32436415D-16 -0.34031963D-17 -0.26764415D-17  0.85696741D-03 -0.37321241D-17
 -0.36532110D-17 -0.12854511D-02  0.13941713D-16  0.11682536D-16 -0.12854511D-02
  0.65251635D-17 -0.11371989D-02 -0.11371989D-02 -0.30325350D-02 -0.32429776D-17
 -0.15085598D-16  0.24653483D-17  0.10214162D-16  0.19818608D-16 -0.12532728D-16
 -0.22744114D-02  0.90976049D-02  0.90976049D-02  0.69557004D-17 -0.14199030D-16
  0.23328882D-17
MO    5     MO 0.0        OCC NO =    2.0000000  ORB. ENERGY =   -0.437321
 -0.58972979D-17 -0.11036654D-16 -0.19069384D-16 -0.30990086D-16 -0.47295536D-16
 -0.66363299D-16 -0.80585362D-16 -0.76983831D-16 -0.40331664D-17 -0.16107864D-16
 -0.70536126D-16 -0.44319703D-16 -0.50989732D-16  0.69920989D-15  0.10075596D-14
  0.17907522D-15 -0.20677329D+00 -0.26729966D+00 -0.28783297D+00 -0.26749487D+00
 -0.19981936D+00 -0.47670664D-01 -0.61624750D-01 -0.66358612D-01 -0.61669754D-01
 -0.46067465D-01  0.30673485D-16  0.39652182D-16  0.42698165D-16  0.39681140D-16
  0.29641914D-16 -0.90117728D-01 -0.20776242D-01  0.34321470D-15 -0.19591056D-01
 -0.45166309D-02  0.43655039D-15 -0.13710845D-02 -0.31609744D-03  0.98742132D-16
 -0.11539468D-15  0.96605088D-16  0.18789588D-16  0.39225862D-16 -0.76812478D-01
 -0.17708776D-01 -0.46141865D-16 -0.10478633D-15  0.15092820D-15 -0.12228216D-15
 -0.39268143D-01 -0.90530960D-02 -0.55298603D-16 -0.19523588D-16  0.74822191D-16
 -0.18818846D-16 -0.35824532D-02 -0.82591868D-03  0.85707240D-18 -0.44172329D-17
  0.35601605D-17 -0.36579428D-17 -0.11565070D-03 -0.26662756D-04  0.10820778D-01
  0.24946824D-02  0.41241336D-16  0.10820667D-01  0.24946567D-02 -0.74844082D-16
 -0.43283002D-01 -0.99787038D-02 -0.48879925D-16  0.50180669D-15  0.11345376D-02
  0.26156259D-03  0.22434088D-16  0.11345410D-02  0.26156338D-03 -0.43731861D-16
 -0.45381536D-02 -0.10462512D-02 -0.23570403D-16 -0.24577340D-17 -0.75010656D-17
  0.10576721D-16  0.11213179D-16  0.17580624D-15  0.77950748D-02 -0.14134402D-15
  0.17971199D-02 -0.10393423D-01 -0.23961576D-02  0.24412570D-16  0.20593823D-16
 -0.87872898D-16  0.17971132D-02  0.77950459D-02 -0.10338667D-15  0.37843292D-17
  0.70680480D-17  0.12198912D-16  0.19815582D-16  0.30242855D-16  0.42475530D-16
  0.51633533D-16  0.48985522D-16  0.23845680D-17  0.92930397D-17  0.66862109D-16
 -0.52776485D-17  0.62097894D-16 -0.13665277D-15 -0.10586753D-14 -0.70169847D-15
 -0.78173150D+00 -0.10294186D+01 -0.11452521D+01 -0.10635592D+01 -0.74142195D+00
 -0.18022472D+00 -0.23732788D+00 -0.26403279D+00 -0.24519885D+00 -0.17093154D+00
 -0.13617758D-15 -0.17932465D-15 -0.19950285D-15 -0.18527195D-15 -0.12915566D-15
 -0.32387291D+00 -0.74667461D-01  0.40348416D-16 -0.89375237D-01 -0.20605064D-01
  0.43363800D-15 -0.89256932D-02 -0.20577789D-02  0.32873533D-15 -0.82995608D-04
 -0.19134269D-04  0.23757503D-16  0.31458780D-16 -0.15459610D-15  0.12313732D-15
 -0.10455935D-15  0.85045207D-01  0.19606795D-01  0.16679266D-16  0.78142028D-17
 -0.24493469D-16  0.25357780D-16  0.67010941D-01  0.15449075D-01  0.76698863D-16
  0.58243614D-16 -0.13494248D-15 -0.12890397D-16  0.12756130D-01  0.29408691D-02
  0.82945997D-17  0.15231171D-16 -0.23525771D-16  0.32260444D-17  0.34425931D-04
  0.79367455D-05  0.12745558D-01  0.29384318D-02 -0.67453929D-16  0.12745455D-01
  0.29384081D-02  0.62764663D-16 -0.50982130D-01 -0.11753704D-01  0.13959712D-15
 -0.27440766D-15  0.26384350D-02  0.60827947D-03  0.63824820D-16  0.26384407D-02
  0.60828078D-03 -0.82719640D-16 -0.10553746D-01 -0.24331192D-02 -0.10875482D-15
  0.16628520D-16 -0.14397844D-16 -0.32604222D-17 -0.45210900D-16 -0.37066631D-16
 -0.16375678D-01 -0.19885126D-15 -0.37753398D-02  0.21834229D-01  0.50337846D-02
 -0.82657901D-16  0.16904497D-15  0.10222043D-15 -0.37753344D-02 -0.16375654D-01
  0.70775368D-15
MO    6     MO 0.0        OCC NO =    2.0000000  ORB. ENERGY =   -0.437321
  0.38896541D-17  0.72793962D-17  0.12577507D-16  0.20439991D-16  0.31194503D-16
  0.43770941D-16  0.53151324D-16  0.50775878D-16  0.55688144D-17  0.22241012D-16
  0.60585418D-16  0.34952587D-16 -0.49899814D-16  0.90622615D-16  0.42858366D-15
  0.86437990D-16  0.47670664D-01  0.61624750D-01  0.66358612D-01  0.61669754D-01
  0.46067465D-01 -0.20677329D+00 -0.26729966D+00 -0.28783297D+00 -0.26749487D+00
 -0.19981936D+00  0.21228582D-15  0.27442581D-15  0.29550653D-15  0.27462622D-15
  0.20514650D-15  0.20776242D-01 -0.90117728D-01  0.81573508D-16  0.45166309D-02
 -0.19591056D-01  0.13455912D-15  0.31609744D-03 -0.13710845D-02  0.49839865D-16
 -0.45154209D-16  0.19834660D-16  0.25319549D-16 -0.31379484D-16  0.17708776D-01
 -0.76812478D-01  0.44107093D-17  0.20106462D-16 -0.24517172D-16 -0.17508958D-16
  0.90530960D-02 -0.39268143D-01 -0.15941532D-16 -0.50087442D-17  0.20950276D-16
 -0.49663759D-17  0.82591868D-03 -0.35824532D-02  0.50435648D-18 -0.54492576D-18
  0.40569282D-19 -0.10789616D-17  0.26662756D-04 -0.11565070D-03 -0.24946824D-02
  0.10820778D-01 -0.15213623D-16 -0.24946567D-02  0.10820667D-01  0.75459838D-16
  0.99787038D-02 -0.43283002D-01 -0.29818970D-16  0.16440897D-15 -0.26156259D-03
  0.11345376D-02 -0.23071948D-17 -0.26156338D-03  0.11345410D-02 -0.17112960D-17
  0.10462512D-02 -0.45381536D-02  0.86328804D-17  0.12421582D-16  0.84901159D-17
 -0.12980901D-16 -0.63591521D-17  0.87336894D-16 -0.17971199D-02 -0.92647370D-16
  0.77950748D-02  0.23961576D-02 -0.10393423D-01 -0.56051019D-17 -0.45335593D-16
  0.83490506D-16  0.77950459D-02 -0.17971132D-02  0.15931429D-16  0.49202068D-17
  0.91895436D-17  0.15860451D-16  0.25763288D-16  0.39320337D-16  0.55224686D-16
  0.67131492D-16  0.63688672D-16  0.64571671D-17  0.25164604D-16  0.54614128D-16
  0.60757289D-16 -0.12809213D-15  0.12996449D-15 -0.36654783D-15 -0.34101267D-15
  0.18022472D+00  0.23732788D+00  0.26403279D+00  0.24519885D+00  0.17093154D+00
 -0.78173150D+00 -0.10294186D+01 -0.11452521D+01 -0.10635592D+01 -0.74142195D+00
 -0.38323619D-15 -0.50466236D-15 -0.56144861D-15 -0.52139946D-15 -0.36347483D-15
  0.74667461D-01 -0.32387291D+00 -0.19187809D-15  0.20605064D-01 -0.89375237D-01
  0.56135702D-17  0.20577789D-02 -0.89256932D-02  0.14782311D-15  0.19134269D-04
 -0.82995608D-04  0.18165270D-16  0.76436856D-16 -0.35781044D-16 -0.40655813D-16
  0.13453271D-15 -0.19606795D-01  0.85045207D-01 -0.42044115D-16 -0.54523595D-16
  0.96567710D-16 -0.13000921D-16 -0.15449075D-01  0.67010941D-01  0.29127298D-16
 -0.39071217D-18 -0.28736586D-16 -0.81525930D-17 -0.29408691D-02  0.12756130D-01
  0.73894165D-17  0.78364584D-17 -0.15225875D-16  0.84040524D-18 -0.79367455D-05
  0.34425931D-04 -0.29384318D-02  0.12745558D-01  0.49823431D-17 -0.29384081D-02
  0.12745455D-01  0.32412085D-16  0.11753704D-01 -0.50982130D-01 -0.47359114D-16
 -0.27058759D-15 -0.60827947D-03  0.26384350D-02  0.50798190D-17 -0.60828078D-03
  0.26384407D-02 -0.93579584D-16  0.24331192D-02 -0.10553746D-01  0.78340127D-16
  0.22012794D-16  0.46765992D-16  0.45738649D-16  0.14592931D-16 -0.24192838D-16
  0.37753398D-02 -0.53921148D-16 -0.16375678D-01 -0.50337846D-02  0.21834229D-01
 -0.23373513D-15 -0.46860821D-16 -0.40696765D-16 -0.16375654D-01  0.37753344D-02
  0.23434196D-15
MO    7     MO 0.0        OCC NO =    2.0000000  ORB. ENERGY =   -0.331759
 -0.15431363D-01 -0.28879433D-01 -0.49898545D-01 -0.81091253D-01 -0.12375746D+00
 -0.17365176D+00 -0.21086640D+00 -0.20144234D+00 -0.13585114D-01 -0.54256916D-01
 -0.20843192D+00 -0.79708240D-01  0.92126775D-01  0.11922969D+00  0.41754705D-01
  0.32712671D-02  0.13928671D-16  0.18005851D-16  0.19389017D-16  0.18019001D-16
  0.13460240D-16 -0.47924718D-16 -0.61953171D-16 -0.66712262D-16 -0.61998415D-16
 -0.46312976D-16 -0.29164968D+00 -0.37702093D+00 -0.40598276D+00 -0.37729627D+00
 -0.28184129D+00 -0.37281552D-16 -0.19760504D-16 -0.11019153D+00  0.51292478D-17
  0.29615654D-16 -0.23668076D-01 -0.11332338D-16  0.10384347D-16 -0.22836323D-02
  0.24430754D-01  0.24430754D-01 -0.48861508D-01  0.99624486D-16 -0.33335400D-16
 -0.32614617D-16  0.72339852D-02  0.72339852D-02 -0.14467970D-01  0.15417314D-16
 -0.18024510D-16  0.34351225D-16  0.40421277D-03  0.40421277D-03 -0.80842555D-03
 -0.13706913D-17 -0.34696424D-17  0.74910842D-17  0.27849430D-04  0.27849430D-04
 -0.55698859D-04  0.10284055D-17 -0.31059655D-17  0.33094040D-17 -0.11041166D-17
  0.75243169D-17 -0.95336537D-02  0.14267094D-18  0.37290399D-17  0.14300481D-01
  0.31696787D-17 -0.26301990D-16  0.14300481D-01  0.22881062D-18  0.31533186D-18
 -0.14437469D-17  0.60154604D-03 -0.67336521D-19  0.28525020D-18 -0.90231906D-03
 -0.87865905D-18  0.40459906D-17 -0.90231906D-03  0.61136360D-17 -0.53572050D-03
 -0.53572050D-03 -0.14285857D-02 -0.10545071D-17  0.19897144D-17 -0.14005475D-17
 -0.61711069D-18 -0.39659409D-17  0.92844277D-18 -0.10714340D-02  0.42857570D-02
  0.42857570D-02 -0.93399622D-18  0.59286793D-17  0.73651640D-17  0.26468596D-02
  0.49435792D-02  0.85322404D-02  0.13859541D-01  0.21152650D-01  0.29708505D-01
  0.36113855D-01  0.34261766D-01  0.28239102D-02  0.11005226D-01  0.35199040D-01
  0.14371198D-01 -0.24860339D-01 -0.18403369D-01 -0.15533240D-02  0.60398908D-03
  0.13875295D-15  0.18271601D-15  0.20327581D-15  0.18877578D-15  0.13159823D-15
 -0.33973874D-15 -0.44738299D-15 -0.49772398D-15 -0.46222043D-15 -0.32222030D-15
  0.40979481D+00  0.53963592D+00  0.60035751D+00  0.55753292D+00  0.38866397D+00
  0.67873991D-16 -0.14358424D-15  0.17061767D+00  0.15571036D-16 -0.51814095D-16
  0.43316724D-01  0.15476674D-16 -0.23922025D-16  0.57802650D-02  0.26199421D-17
 -0.25612757D-17  0.13486913D-03  0.15510419D-01  0.15510419D-01 -0.31020838D-01
 -0.74308890D-17  0.22219117D-16  0.40862554D-16  0.10969712D-01  0.10969712D-01
 -0.21939423D-01 -0.19335024D-17  0.11825463D-16  0.13399078D-16  0.87820789D-03
  0.87820789D-03 -0.17564158D-02 -0.35126957D-17 -0.22719089D-17  0.25490482D-16
  0.10936076D-04  0.10936076D-04 -0.21872152D-04  0.63533969D-18 -0.24448235D-17
  0.47791900D-17  0.21284194D-17  0.56878313D-17  0.18383365D-01  0.13859137D-17
  0.59455118D-17 -0.27575048D-01 -0.77711718D-17 -0.23009006D-16 -0.27575048D-01
 -0.13716789D-16 -0.20536843D-17  0.20994494D-17  0.16831118D-02 -0.27303066D-17
  0.79146394D-18 -0.25246677D-02  0.88913597D-17 -0.70898123D-17 -0.25246677D-02
  0.25494000D-17 -0.12922138D-02 -0.12922138D-02 -0.34459066D-02 -0.23979170D-17
  0.67495727D-17 -0.50572533D-19 -0.32898482D-16 -0.87992405D-17  0.43722183D-16
 -0.25844371D-02  0.10337720D-01  0.10337720D-01 -0.32471104D-16  0.61490034D-17
  0.73454687D-17
END DATA
RHF
