 Molden2AIM, Version 4.0.0 (06/02/2016)           Time: Thu Jun 28 23:41:00 2018
GAUSSIAN             11 MOL ORBITALS    206 PRIMITIVES        2 NUCLEI
  C    1    (CENTRE  1)   0.00000000  0.00000000 -2.10841279  CHARGE =  6.0
  S    2    (CENTRE  2)   0.00000000  0.00000000  0.78160962  CHARGE = 16.0
CENTRE ASSIGNMENTS    1  1  1  1  1  1  1  1  1  1  1  1  1  1  1  1  1  1  1  1
CENTRE ASSIGNMENTS    1  1  1  1  1  1  1  1  1  1  1  1  1  1  1  1  1  1  1  1
CENTRE ASSIGNMENTS    1  1  1  1  1  1  1  1  1  1  1  1  1  1  1  1  1  1  1  1
CENTRE ASSIGNMENTS    1  1  1  1  1  1  1  1  1  1  1  1  1  1  1  2  2  2  2  2
CENTRE ASSIGNMENTS    2  2  2  2  2  2  2  2  2  2  2  2  2  2  2  2  2  2  2  2
CENTRE ASSIGNMENTS    2  2  2  2  2  2  2  2  2  2  2  2  2  2  2  2  2  2  2  2
CENTRE ASSIGNMENTS    2  2  2  2  2  2  2  2  2  2  2  2  2  2  2  2  2  2  2  2
CENTRE ASSIGNMENTS    2  2  2  2  2  2  2  2  2  2  2  2  2  2  2  2  2  2  2  2
CENTRE ASSIGNMENTS    2  2  2  2  2  2  2  2  2  2  2  2  2  2  2  2  2  2  2  2
CENTRE ASSIGNMENTS    2  2  2  2  2  2  2  2  2  2  2  2  2  2  2  2  2  2  2  2
CENTRE ASSIGNMENTS    2  2  2  2  2  2
TYPE ASSIGNMENTS      1  1  1  1  1  1  1  1  1  1  1  1  1  1  1  1  1  1  1  2
TYPE ASSIGNMENTS      2  2  3  3  3  4  4  4  2  3  4  2  3  4  2  3  4  5  6  7
TYPE ASSIGNMENTS      8  9 10  5  6  7  8  9 10  5  6  7  8  9 10 11 12 13 17 14
TYPE ASSIGNMENTS     15 18 19 16 20 11 12 13 17 14 15 18 19 16 20  1  1  1  1  1
TYPE ASSIGNMENTS      1  1  1  1  1  1  1  1  1  1  1  1  1  1  1  1  1  1  1  1
TYPE ASSIGNMENTS      1  1  1  1  1  1  1  1  1  1  1  1  1  1  1  1  1  2  2  2
TYPE ASSIGNMENTS      2  2  2  2  3  3  3  3  3  3  3  4  4  4  4  4  4  4  2  2
TYPE ASSIGNMENTS      2  2  2  2  2  3  3  3  3  3  3  3  4  4  4  4  4  4  4  2
TYPE ASSIGNMENTS      3  4  2  3  4  2  3  4  5  6  7  8  9 10  5  6  7  8  9 10
TYPE ASSIGNMENTS      5  6  7  8  9 10 11 12 13 17 14 15 18 19 16 20 11 12 13 17
TYPE ASSIGNMENTS     14 15 18 19 16 20
EXPONENTS  0.8236000D+04 0.1235000D+04 0.2808000D+03 0.7927000D+02 0.2559000D+02
EXPONENTS  0.8997000D+01 0.3319000D+01 0.3643000D+00 0.8236000D+04 0.1235000D+04
EXPONENTS  0.2808000D+03 0.7927000D+02 0.2559000D+02 0.8997000D+01 0.3319000D+01
EXPONENTS  0.3643000D+00 0.9059000D+00 0.1285000D+00 0.4402000D-01 0.1871000D+02
EXPONENTS  0.4133000D+01 0.1200000D+01 0.1871000D+02 0.4133000D+01 0.1200000D+01
EXPONENTS  0.1871000D+02 0.4133000D+01 0.1200000D+01 0.3827000D+00 0.3827000D+00
EXPONENTS  0.3827000D+00 0.1209000D+00 0.1209000D+00 0.1209000D+00 0.3569000D-01
EXPONENTS  0.3569000D-01 0.3569000D-01 0.1097000D+01 0.1097000D+01 0.1097000D+01
EXPONENTS  0.1097000D+01 0.1097000D+01 0.1097000D+01 0.3180000D+00 0.3180000D+00
EXPONENTS  0.3180000D+00 0.3180000D+00 0.3180000D+00 0.3180000D+00 0.1000000D+00
EXPONENTS  0.1000000D+00 0.1000000D+00 0.1000000D+00 0.1000000D+00 0.1000000D+00
EXPONENTS  0.7610000D+00 0.7610000D+00 0.7610000D+00 0.7610000D+00 0.7610000D+00
EXPONENTS  0.7610000D+00 0.7610000D+00 0.7610000D+00 0.7610000D+00 0.7610000D+00
EXPONENTS  0.2680000D+00 0.2680000D+00 0.2680000D+00 0.2680000D+00 0.2680000D+00
EXPONENTS  0.2680000D+00 0.2680000D+00 0.2680000D+00 0.2680000D+00 0.2680000D+00
EXPONENTS  0.3741000D+06 0.5605000D+05 0.1276000D+05 0.3615000D+04 0.1183000D+04
EXPONENTS  0.4288000D+03 0.1678000D+03 0.6947000D+02 0.2984000D+02 0.1272000D+02
EXPONENTS  0.5244000D+01 0.2219000D+01 0.3490000D+00 0.3741000D+06 0.5605000D+05
EXPONENTS  0.1276000D+05 0.3615000D+04 0.1183000D+04 0.4288000D+03 0.1678000D+03
EXPONENTS  0.6947000D+02 0.2984000D+02 0.1272000D+02 0.5244000D+01 0.2219000D+01
EXPONENTS  0.3490000D+00 0.3741000D+06 0.5605000D+05 0.1276000D+05 0.3615000D+04
EXPONENTS  0.1183000D+04 0.4288000D+03 0.1678000D+03 0.6947000D+02 0.2984000D+02
EXPONENTS  0.1272000D+02 0.5244000D+01 0.2219000D+01 0.3490000D+00 0.7767000D+00
EXPONENTS  0.1322000D+00 0.4970000D-01 0.5744000D+03 0.1358000D+03 0.4319000D+02
EXPONENTS  0.1587000D+02 0.6208000D+01 0.2483000D+01 0.3229000D+00 0.5744000D+03
EXPONENTS  0.1358000D+03 0.4319000D+02 0.1587000D+02 0.6208000D+01 0.2483000D+01
EXPONENTS  0.3229000D+00 0.5744000D+03 0.1358000D+03 0.4319000D+02 0.1587000D+02
EXPONENTS  0.6208000D+01 0.2483000D+01 0.3229000D+00 0.5744000D+03 0.1358000D+03
EXPONENTS  0.4319000D+02 0.1587000D+02 0.6208000D+01 0.2483000D+01 0.3229000D+00
EXPONENTS  0.5744000D+03 0.1358000D+03 0.4319000D+02 0.1587000D+02 0.6208000D+01
EXPONENTS  0.2483000D+01 0.3229000D+00 0.5744000D+03 0.1358000D+03 0.4319000D+02
EXPONENTS  0.1587000D+02 0.6208000D+01 0.2483000D+01 0.3229000D+00 0.8688000D+00
EXPONENTS  0.8688000D+00 0.8688000D+00 0.1098000D+00 0.1098000D+00 0.1098000D+00
EXPONENTS  0.3510000D-01 0.3510000D-01 0.3510000D-01 0.2690000D+00 0.2690000D+00
EXPONENTS  0.2690000D+00 0.2690000D+00 0.2690000D+00 0.2690000D+00 0.8190000D+00
EXPONENTS  0.8190000D+00 0.8190000D+00 0.8190000D+00 0.8190000D+00 0.8190000D+00
EXPONENTS  0.1010000D+00 0.1010000D+00 0.1010000D+00 0.1010000D+00 0.1010000D+00
EXPONENTS  0.1010000D+00 0.5570000D+00 0.5570000D+00 0.5570000D+00 0.5570000D+00
EXPONENTS  0.5570000D+00 0.5570000D+00 0.5570000D+00 0.5570000D+00 0.5570000D+00
EXPONENTS  0.5570000D+00 0.2180000D+00 0.2180000D+00 0.2180000D+00 0.2180000D+00
EXPONENTS  0.2180000D+00 0.2180000D+00 0.2180000D+00 0.2180000D+00 0.2180000D+00
EXPONENTS  0.2180000D+00
MO    1     MO 0.0        OCC NO =    2.0000000  ORB. ENERGY =  -88.134502
 -0.11456854D-03 -0.21358181D-03 -0.36099089D-03 -0.54268755D-03 -0.66675436D-03
 -0.56318065D-03 -0.21241102D-03  0.10512340D-05  0.69858098D-04  0.13079640D-03
  0.22269206D-03  0.34447076D-03  0.45365588D-03  0.47137751D-03  0.29953925D-03
 -0.20074424D-03  0.33141636D-03  0.57976548D-03  0.11218198D-04  0.23126739D-15
  0.21682788D-15  0.15439437D-15  0.35639609D-15  0.33414399D-15  0.23793043D-15
  0.42207813D-03  0.39572508D-03  0.28177983D-03 -0.36825422D-16  0.29790132D-17
 -0.55461184D-03  0.23543471D-16  0.10067362D-16 -0.61412125D-04  0.69525424D-18
 -0.21558965D-17 -0.73267925D-05  0.33026212D-04  0.33026212D-04 -0.66052423D-04
  0.32244968D-15 -0.70990080D-15 -0.13213268D-15  0.16320879D-03  0.16320879D-03
 -0.32641758D-03 -0.47966497D-16  0.13401663D-15  0.54119417D-16  0.13227212D-04
  0.13227212D-04 -0.26454423D-04  0.33036589D-17 -0.49193722D-17 -0.80816919D-18
 -0.14277330D-16 -0.71741443D-17 -0.72053539D-04 -0.93302040D-17 -0.88318330D-17
  0.10808031D-03  0.52162194D-16  0.30354266D-16  0.10808031D-03 -0.16271315D-16
 -0.39069609D-17 -0.17223695D-17 -0.55470130D-04 -0.39741085D-17 -0.29794066D-17
  0.83205196D-04  0.15694991D-16  0.81465152D-17  0.83205196D-04  0.93636379D-17
  0.58521625D+00  0.10940278D+01  0.18908216D+01  0.30583190D+01  0.46224701D+01
  0.63658998D+01  0.74402610D+01  0.64289468D+01  0.29984837D+01  0.40712931D+00
  0.10901920D-02  0.21385060D-02  0.97631731D-04 -0.12694035D-02 -0.23706652D-02
 -0.41122855D-02 -0.66679288D-02 -0.10266035D-01 -0.14621140D-01 -0.18800889D-01
 -0.19735338D-01 -0.13954283D-01  0.30902344D-03  0.10026333D-01  0.55207708D-02
 -0.23347246D-04  0.56286809D-03  0.10503951D-02  0.18244106D-02  0.29551404D-02
  0.45648271D-02  0.65078469D-02  0.84645830D-02  0.90209637D-02  0.66906612D-02
 -0.20825544D-03 -0.60613905D-02 -0.59380706D-02  0.27734312D-02 -0.30678837D-02
 -0.65954145D-03 -0.10081957D-03 -0.85530860D-15 -0.11221183D-14 -0.12307928D-14
 -0.10127158D-14 -0.53392379D-15 -0.13890173D-15  0.15370893D-18 -0.63013979D-15
 -0.82670909D-15 -0.90677387D-15 -0.74610791D-15 -0.39336285D-15 -0.10233442D-15
  0.11324347D-18 -0.12446652D-01 -0.16329329D-01 -0.17910785D-01 -0.14737278D-01
 -0.77697844D-02 -0.20213307D-02  0.22368085D-05  0.74164795D-15  0.97378828D-15
  0.10955775D-14  0.92310685D-15  0.51637303D-15  0.12852420D-15 -0.58947389D-16
  0.27698091D-15  0.36367762D-15  0.40916184D-15  0.34474979D-15  0.19284820D-15
  0.47999524D-16 -0.22014894D-16  0.11311914D-01  0.14852612D-01  0.16710190D-01
  0.14079599D-01  0.78759301D-02  0.19603030D-02 -0.89908940D-03  0.97071781D-16
  0.86796609D-16  0.20122185D-03 -0.56500591D-17 -0.34844987D-17  0.39368017D-03
 -0.23267573D-17 -0.13708866D-17  0.87890759D-05 -0.13951092D-04 -0.13951092D-04
  0.27902184D-04  0.13099771D-16  0.40268086D-16  0.61054670D-16 -0.24739025D-03
 -0.24739025D-03  0.49478051D-03  0.20601972D-16 -0.33869215D-16  0.23249609D-16
  0.29445702D-04  0.29445702D-04 -0.58891404D-04 -0.15376696D-17  0.26924410D-17
 -0.17639538D-17  0.23054822D-16  0.12277280D-16 -0.15205458D-03  0.25491725D-16
  0.11212801D-16  0.22808187D-03 -0.94656190D-16 -0.48044641D-16  0.22808187D-03
  0.94738965D-17 -0.13074545D-17  0.35991410D-18  0.27721711D-04 -0.13708487D-17
  0.15168620D-17 -0.41582566D-04  0.52932123D-17 -0.25966043D-17 -0.41582566D-04
 -0.50027667D-17
MO    2     MO 0.0        OCC NO =    2.0000000  ORB. ENERGY =   -9.984627
 -0.32578117D+00 -0.60733018D+00 -0.10264950D+01 -0.15431582D+01 -0.18959482D+01
 -0.16014313D+01 -0.60400097D+00  0.29892345D-02  0.47738523D-03  0.89381577D-03
  0.15217978D-02  0.23539898D-02  0.31001218D-02  0.32212251D-02  0.20469440D-02
 -0.13718142D-02 -0.34753067D-01 -0.27158622D-02 -0.17403526D-03 -0.45029922D-17
 -0.42218414D-17 -0.30062026D-17  0.33369146D-19  0.31285695D-19  0.22277279D-19
 -0.44236220D-02 -0.41474268D-02 -0.29532150D-02  0.24051081D-18 -0.58579484D-18
 -0.22348613D-02  0.31422576D-18 -0.25511708D-18 -0.17556370D-03 -0.21582031D-19
  0.40092971D-19 -0.22393640D-05  0.11571656D-02  0.11571656D-02 -0.23143312D-02
  0.71795252D-17 -0.71302290D-18 -0.15869249D-17 -0.22151695D-04 -0.22151695D-04
  0.44303391D-04 -0.69291285D-18  0.18064024D-18 -0.32099849D-18 -0.25831624D-04
 -0.25831624D-04  0.51663248D-04  0.34866549D-19  0.63840354D-19 -0.46599078D-19
  0.23547236D-18  0.41913723D-18 -0.34034477D-03  0.36030270D-18 -0.73958134D-18
  0.51051715D-03 -0.10667198D-17 -0.51783034D-18  0.51051715D-03 -0.98143039D-18
 -0.29911568D-19  0.12984854D-19  0.10174842D-03 -0.46423385D-19  0.39310143D-19
 -0.15262262D-03  0.13615809D-18 -0.78264704D-19 -0.15262262D-03 -0.61495280D-19
 -0.17281391D-03 -0.32306556D-03 -0.55835816D-03 -0.90311927D-03 -0.13650119D-02
 -0.18798454D-02 -0.21971034D-02 -0.18984631D-02 -0.88544995D-03 -0.12022497D-03
 -0.32193286D-06 -0.63149919D-06 -0.28830576D-07  0.37237879D-03  0.69543325D-03
  0.12063366D-02  0.19560331D-02  0.30115356D-02  0.42891031D-02  0.55152298D-02
  0.57893501D-02  0.40934808D-02 -0.90651846D-04 -0.29412189D-02 -0.16195149D-02
  0.68489012D-05 -0.22980350D-03 -0.42884733D-03 -0.74485648D-03 -0.12065022D-02
 -0.18636928D-02 -0.26569742D-02 -0.34558555D-02 -0.36830104D-02 -0.27316122D-02
  0.85024945D-04  0.24746984D-02  0.24243503D-02 -0.11323154D-02 -0.10220921D-02
  0.20780717D-02  0.52646444D-03  0.50230452D-14  0.65899617D-14  0.72281836D-14
  0.59474640D-14  0.31356206D-14  0.81574029D-15 -0.90269979D-18 -0.42410807D-14
 -0.55640670D-14 -0.61029334D-14 -0.50215903D-14 -0.26474817D-14 -0.68874962D-15
  0.76217167D-18 -0.23501266D-01 -0.30832381D-01 -0.33818422D-01 -0.27826334D-01
 -0.14670593D-01 -0.38165950D-02  0.42234515D-05  0.31590342D-17  0.41478312D-17
  0.46665898D-17  0.39319547D-17  0.21994803D-17  0.54744618D-18 -0.25108519D-18
 -0.55959310D-17 -0.73474915D-17 -0.82664233D-17 -0.69650866D-17 -0.38961718D-17
 -0.96974923D-18  0.44477372D-18  0.20358163D-01  0.26730392D-01  0.30073493D-01
  0.25339192D-01  0.14174389D-01  0.35279764D-02 -0.16181000D-02  0.44117690D-16
 -0.37595098D-16  0.25262885D-02 -0.58307887D-19  0.16899018D-18 -0.11537285D-02
  0.12815605D-20 -0.56705608D-20 -0.26141579D-04 -0.47916176D-03 -0.47916176D-03
  0.95832352D-03  0.40585090D-19  0.40990947D-18 -0.55977714D-18  0.10368564D-03
  0.10368564D-03 -0.20737129D-03  0.11671180D-18 -0.34215872D-18  0.17552375D-18
 -0.54957724D-04 -0.54957724D-04  0.10991545D-03 -0.12534116D-19 -0.86624139D-21
 -0.11273193D-19 -0.62646492D-19 -0.95895071D-19 -0.63528626D-03 -0.71521108D-19
  0.41496842D-20  0.95292938D-03  0.25946058D-18  0.28353553D-18  0.95292938D-03
 -0.64707331D-19  0.14274389D-19 -0.35726822D-19 -0.10522643D-03  0.15982018D-19
 -0.37039528D-19  0.15783965D-03 -0.58805184D-19  0.14421999D-18  0.15783965D-03
 -0.16131252D-18
MO    3     MO 0.0        OCC NO =    2.0000000  ORB. ENERGY =   -7.736976
  0.21687610D-04  0.40430636D-04  0.68334897D-04  0.10272973D-03  0.12621535D-03
  0.10660904D-03  0.40209007D-04 -0.19899662D-06 -0.65156328D-04 -0.12199320D-03
 -0.20770387D-03 -0.32128630D-03 -0.42312276D-03 -0.43965165D-03 -0.27937888D-03
  0.18723323D-03 -0.39083845D-03 -0.25141793D-02 -0.44673468D-04  0.19059805D-16
  0.17869779D-16  0.12724347D-16  0.73626416D-16  0.69029445D-16  0.49153077D-16
 -0.15158270D-03 -0.14211841D-03 -0.10119678D-03 -0.10323482D-15  0.27616985D-16
  0.33219409D-03  0.79970895D-16  0.47789376D-16 -0.31368819D-03 -0.77571118D-18
 -0.59109966D-18  0.15642205D-04  0.46058853D-04  0.46058853D-04 -0.92117707D-04
  0.29275102D-15  0.60825263D-16  0.96840388D-16 -0.20442250D-03 -0.20442250D-03
  0.40884500D-03 -0.12887823D-16  0.38333297D-16  0.60265551D-16 -0.17327311D-04
 -0.17327311D-04  0.34654622D-04 -0.27763474D-17  0.19388158D-16  0.67786592D-17
  0.12705275D-16 -0.15598166D-16  0.10675248D-04  0.82713367D-17  0.38712674D-16
 -0.16012872D-04 -0.46387162D-16  0.80818236D-17 -0.16012872D-04 -0.34975283D-16
 -0.49691733D-17 -0.22295035D-17  0.94004041D-04 -0.72110075D-17 -0.82769418D-17
 -0.14100606D-03  0.22118528D-16  0.14965452D-16 -0.14100606D-03 -0.91388693D-17
 -0.37733594D-02 -0.70540762D-02 -0.12191646D-01 -0.19719441D-01 -0.29804780D-01
 -0.41046072D-01 -0.47973342D-01 -0.41452587D-01 -0.19333634D-01 -0.26250898D-02
 -0.70293438D-05 -0.13788667D-04 -0.62951023D-06 -0.15550532D+00 -0.29041281D+00
 -0.50376596D+00 -0.81683908D+00 -0.12576168D+01 -0.17911288D+01 -0.23031591D+01
 -0.24176317D+01 -0.17094369D+01  0.37856196D-01  0.12282525D+01  0.67630917D+00
 -0.28601000D-02 -0.16024823D-02 -0.29904690D-02 -0.51940866D-02 -0.84132679D-02
 -0.12996037D-01 -0.18527803D-01 -0.24098620D-01 -0.25682633D-01 -0.19048274D-01
  0.59290205D-03  0.17256744D-01  0.16905653D-01 -0.78959427D-02  0.60428885D-01
  0.33391079D-02  0.18172446D-03 -0.70488847D-15 -0.92477529D-15 -0.10143375D-14
 -0.83461300D-15 -0.44002448D-15 -0.11447357D-15  0.12667668D-18 -0.75981049D-15
 -0.99682998D-15 -0.10933706D-14 -0.89964262D-15 -0.47430938D-15 -0.12339288D-15
  0.13654681D-18  0.47115257D-02  0.61812652D-02  0.67799058D-02  0.55786139D-02
  0.29411556D-02  0.76514967D-03 -0.84671612D-06  0.37940253D-15  0.49815783D-15
  0.56046115D-15  0.47223089D-15  0.26415934D-15  0.65748722D-16 -0.30155532D-16
  0.12263830D-14  0.16102483D-14  0.18116380D-14  0.15264420D-14  0.85387023D-15
  0.21252656D-15 -0.97474921D-16 -0.10724020D-01 -0.14080704D-01 -0.15841742D-01
 -0.13347865D-01 -0.74666086D-02 -0.18584237D-02  0.85236264D-03  0.73661742D-16
 -0.57762841D-16  0.17086855D-03 -0.63136128D-16 -0.37586720D-16 -0.11553270D-02
 -0.11749082D-18  0.62393292D-18 -0.12666847D-04 -0.71512714D-04 -0.71512714D-04
  0.14302543D-03  0.12509664D-16  0.43921047D-16  0.23998991D-16  0.22964061D-03
  0.22964061D-03 -0.45928121D-03 -0.57909148D-17  0.41254703D-16  0.11147324D-16
 -0.70269909D-04 -0.70269909D-04  0.14053982D-03  0.12297402D-17  0.18908117D-16
  0.70795811D-17 -0.11688230D-17 -0.11016657D-16  0.94238878D-04 -0.41168668D-17
 -0.12016539D-16 -0.14135832D-03  0.76233357D-17  0.45066510D-16 -0.14135832D-03
 -0.65975500D-18  0.49533611D-17  0.34411522D-17 -0.58485342D-04  0.53952099D-17
  0.53168128D-17  0.87728013D-04 -0.20255293D-16 -0.15640269D-16  0.87728013D-04
 -0.18023752D-17
MO    4     MO 0.0        OCC NO =    2.0000000  ORB. ENERGY =   -5.756073
  0.47248237D-15  0.88081457D-15  0.14887318D-14  0.22380515D-14  0.27497049D-14
  0.23225654D-14  0.87598620D-15 -0.43353046D-17 -0.11018350D-15 -0.20629828D-15
 -0.35124047D-15 -0.54331561D-15 -0.71552754D-15 -0.74347895D-15 -0.47244750D-15
  0.31662333D-15 -0.64605653D-15  0.28192548D-14  0.38527950D-15  0.13241926D-03
  0.12415147D-03  0.88403246D-04  0.19674296D-04  0.18445903D-04  0.13134582D-04
 -0.13452090D-14 -0.12612190D-14 -0.89806304D-15  0.21376990D-04  0.31761032D-05
  0.20475955D-14 -0.15250763D-03 -0.22658942D-04  0.11528517D-14 -0.10434645D-05
 -0.15503356D-06  0.33302367D-16 -0.22101737D-15 -0.31806720D-15  0.53908457D-15
  0.24985834D-16  0.18389249D-03  0.27321973D-04 -0.39696059D-15 -0.37383262D-15
  0.77079321D-15  0.42545526D-17 -0.13092581D-03 -0.19452405D-04 -0.43783465D-16
 -0.32980483D-16  0.76763948D-16 -0.16273343D-17 -0.35408713D-04 -0.52608774D-05
  0.52480755D-04  0.77973696D-05  0.20010312D-15  0.52480390D-04  0.77973154D-05
 -0.38678783D-15 -0.20992265D-03 -0.31189424D-04 -0.21352153D-15  0.80934333D-17
  0.14000525D-04  0.20801391D-05  0.79556979D-16  0.14000644D-04  0.20801567D-05
 -0.11861057D-15 -0.56002219D-04 -0.83205739D-05 -0.12006037D-15  0.32257650D-17
 -0.36462322D-15 -0.68164192D-15 -0.11780901D-14 -0.19055078D-14 -0.28800635D-14
 -0.39663200D-14 -0.46357085D-14 -0.40056019D-14 -0.18682270D-14 -0.25366486D-15
 -0.67925200D-18 -0.13324116D-17 -0.60830157D-19  0.54951020D-15  0.10262337D-14
  0.17801611D-14  0.28864697D-14  0.44440487D-14  0.63293236D-14  0.81386886D-14
  0.85432012D-14  0.60406486D-14 -0.13377269D-15 -0.43402841D-14 -0.23898782D-14
  0.10106754D-16 -0.33423955D-15 -0.62374045D-15 -0.10833625D-14 -0.17548069D-14
 -0.27106631D-14 -0.38644575D-14 -0.50263969D-14 -0.53567842D-14 -0.39730154D-14
  0.12366522D-15  0.35993450D-14  0.35261158D-14 -0.16469052D-14  0.13075896D-14
 -0.27331181D-14 -0.47265442D-15  0.95614273D+01  0.12544072D+02  0.13758935D+02
  0.11321070D+02  0.59686918D+01  0.15527715D+01 -0.17183000D-02  0.14205966D+01
  0.18637454D+01  0.20442446D+01  0.16820369D+01  0.88680310D+00  0.23070425D+00
 -0.25529778D-03  0.91780262D-11  0.12041071D-10  0.13207219D-10  0.10867109D-10
  0.57293549D-11  0.14905073D-11 -0.16493983D-14  0.10952426D-02  0.14380602D-02
  0.16179147D-02  0.13632154D-02  0.76256361D-03  0.18980053D-03 -0.87051668D-04
  0.16272653D-03  0.21366093D-03  0.24038295D-03  0.20254081D-03  0.11329849D-03
  0.28199764D-04 -0.12933770D-04 -0.28249019D-13 -0.37091133D-13 -0.41730026D-13
 -0.35160702D-13 -0.19668404D-13 -0.48954257D-14  0.22452781D-14  0.83559480D-01
  0.12414916D-01  0.79257913D-13  0.27103882D-03  0.40269806D-04  0.79963347D-15
 -0.87612297D-05 -0.13017066D-05 -0.55615707D-17  0.23207426D-15  0.24840198D-15
 -0.48047624D-15 -0.46166565D-17 -0.13761716D-03 -0.20446578D-04  0.61258488D-15
  0.67807621D-15 -0.12906611D-14 -0.20833740D-16  0.41499769D-04  0.61658610D-05
  0.23156197D-17  0.74535843D-17 -0.97692040D-17 -0.31351377D-17 -0.27790093D-04
 -0.41289350D-05 -0.63631302D-04 -0.94540709D-05  0.53837504D-15 -0.63624187D-04
 -0.94530139D-05 -0.83089715D-15  0.25451809D-03  0.37815227D-04 -0.78422798D-15
 -0.34455088D-18 -0.23343808D-05 -0.34683248D-06 -0.10820916D-16 -0.23348304D-05
 -0.34689927D-06  0.32789307D-16  0.93379729D-05  0.13873967D-05 -0.32655793D-18
  0.14375375D-17
MO    5     MO 0.0        OCC NO =    2.0000000  ORB. ENERGY =   -5.756073
 -0.11277322D-15 -0.21023493D-15 -0.35533406D-15 -0.53418348D-15 -0.65630613D-15
 -0.55435545D-15 -0.20908248D-15  0.10347609D-17  0.26280689D-16  0.49205742D-16
  0.83776987D-16  0.12959026D-15  0.17066581D-15  0.17733271D-15  0.11268698D-15
 -0.75520192D-16  0.32403265D-16 -0.37559407D-15 -0.44060334D-16 -0.19674296D-04
 -0.18445903D-04 -0.13134582D-04  0.13241926D-03  0.12415147D-03  0.88403246D-04
  0.37966417D-15  0.35595930D-15  0.25346422D-15 -0.31761032D-05  0.21376990D-04
 -0.16180180D-15  0.22658942D-04 -0.15250763D-03 -0.11362200D-15  0.15503356D-06
 -0.10434645D-05 -0.29291175D-17  0.10362448D-16  0.41344131D-16 -0.51706579D-16
 -0.78229206D-16 -0.27321973D-04  0.18389249D-03  0.14864222D-16  0.51232466D-16
 -0.66096688D-16  0.10673450D-16  0.19452405D-04 -0.13092581D-03  0.98108651D-17
 -0.35072797D-17 -0.63035854D-17 -0.26318421D-17  0.52608774D-05 -0.35408713D-04
 -0.77973696D-05  0.52480755D-04 -0.16710251D-16 -0.77973154D-05  0.52480390D-04
 -0.41348967D-15  0.31189424D-04 -0.20992265D-03  0.46362042D-15  0.33141174D-16
 -0.20801391D-05  0.14000525D-04 -0.73202151D-17 -0.20801567D-05  0.14000644D-04
  0.73407987D-16  0.83205739D-05 -0.56002219D-04 -0.51447341D-16  0.92506838D-17
  0.24302238D-16  0.45431621D-16  0.78520026D-16  0.12700262D-15  0.19195702D-15
  0.26435632D-15  0.30897125D-15  0.26697447D-15  0.12451784D-15  0.16906833D-16
  0.45272333D-19  0.88805602D-19  0.40543467D-20 -0.37089065D-16 -0.69265408D-16
 -0.12015157D-15 -0.19482161D-15 -0.29995005D-15 -0.42719625D-15 -0.54931892D-15
 -0.57662141D-15 -0.40771219D-15  0.90289573D-17  0.29294648D-15  0.16130428D-15
 -0.68215308D-18  0.21941148D-16  0.40945428D-16  0.71117308D-16  0.11519426D-15
  0.17794142D-15  0.25368223D-15  0.32995771D-15  0.35164598D-15  0.26080851D-15
 -0.81180004D-17 -0.23627892D-15 -0.23147179D-15  0.10811106D-15 -0.11058369D-15
  0.31659796D-15  0.59522582D-16 -0.14205966D+01 -0.18637454D+01 -0.20442446D+01
 -0.16820369D+01 -0.88680310D+00 -0.23070425D+00  0.25529778D-03  0.95614273D+01
  0.12544072D+02  0.13758935D+02  0.11321070D+02  0.59686918D+01  0.15527715D+01
 -0.17183000D-02 -0.80513143D-12 -0.10562886D-11 -0.11585876D-11 -0.95330423D-12
 -0.50260084D-12 -0.13075298D-12  0.14469151D-15 -0.16272653D-03 -0.21366093D-03
 -0.24038295D-03 -0.20254081D-03 -0.11329849D-03 -0.28199764D-04  0.12933770D-04
  0.10952426D-02  0.14380602D-02  0.16179147D-02  0.13632154D-02  0.76256361D-03
  0.18980053D-03 -0.87051668D-04  0.34416087D-14  0.45188532D-14  0.50840145D-14
  0.42836666D-14  0.23962231D-14  0.59641504D-15 -0.27354467D-15 -0.12414916D-01
  0.83559480D-01 -0.70015767D-14 -0.40269806D-04  0.27103882D-03 -0.11360052D-15
  0.13017066D-05 -0.87612297D-05 -0.92375519D-18 -0.31777898D-16 -0.20824686D-16
  0.52602584D-16 -0.13811048D-16  0.20446578D-04 -0.13761716D-03 -0.19575895D-15
  0.67349599D-16  0.12840935D-15  0.63347062D-16 -0.61658610D-05  0.41499769D-04
 -0.70467131D-17  0.18771480D-17  0.51695651D-17 -0.16866125D-17  0.41289350D-05
 -0.27790093D-04  0.94540709D-05 -0.63631302D-04 -0.53903530D-16  0.94530139D-05
 -0.63624187D-04  0.13612017D-15 -0.37815227D-04  0.25451809D-03  0.25590421D-16
 -0.15055631D-16  0.34683248D-06 -0.23343808D-05  0.32427457D-18  0.34689927D-06
 -0.23348304D-05  0.21485316D-16 -0.13873967D-05  0.93379729D-05 -0.22458140D-16
 -0.12093589D-17
MO    6     MO 0.0        OCC NO =    2.0000000  ORB. ENERGY =   -5.754459
 -0.39524053D-03 -0.73681822D-03 -0.12453526D-02 -0.18721729D-02 -0.23001807D-02
 -0.19428703D-02 -0.73277920D-03  0.36265651D-05  0.13028689D-03  0.24393817D-03
  0.41532561D-03  0.64244556D-03  0.84607820D-03  0.87912945D-03  0.55864730D-03
 -0.37439243D-03  0.70204745D-03 -0.35674513D-02 -0.69452316D-03 -0.28244266D-15
 -0.26480794D-15 -0.18855903D-15  0.44213248D-16  0.41452730D-16  0.29516813D-16
  0.18628381D-02  0.17465291D-02  0.12436328D-02  0.46352052D-16  0.13843016D-16
 -0.22361365D-02 -0.21726809D-15 -0.73446579D-16 -0.13678985D-02 -0.56657736D-18
 -0.13745100D-17 -0.56077485D-04  0.27928475D-03  0.27928475D-03 -0.55856951D-03
 -0.68343922D-17  0.51672429D-16 -0.10900747D-15  0.43329646D-03  0.43329646D-03
 -0.86659291D-03  0.71905555D-17 -0.28671016D-15 -0.20640644D-16  0.37019301D-04
  0.37019301D-04 -0.74038602D-04 -0.16425446D-18 -0.48907674D-16 -0.15965849D-16
  0.49154649D-16  0.80018501D-17 -0.22591637D-03  0.55025114D-16 -0.28669047D-16
  0.33887455D-03 -0.20248906D-15  0.46634967D-17  0.33887455D-03  0.10410984D-16
  0.26873300D-16  0.27806109D-17 -0.83684950D-04  0.27419308D-16  0.50279927D-17
  0.12552742D-03 -0.10803921D-15 -0.13369825D-16  0.12552742D-03 -0.29797874D-17
  0.39087503D-03  0.73071816D-03  0.12629091D-02  0.20426988D-02  0.30874197D-02
  0.42518835D-02  0.49694660D-02  0.42939936D-02  0.20027339D-02  0.27192800D-03
  0.72815618D-06  0.14283414D-05  0.65209752D-07 -0.59112566D-03 -0.11039524D-02
 -0.19149762D-02 -0.31050676D-02 -0.47806051D-02 -0.68086555D-02 -0.87550472D-02
 -0.91901943D-02 -0.64981186D-02  0.14390356D-03  0.46689822D-02  0.25708683D-02
 -0.10872159D-04  0.36084691D-03  0.67339371D-03  0.11696043D-02  0.18944994D-02
  0.29264472D-02  0.41720901D-02  0.54265264D-02  0.57832144D-02  0.42892899D-02
 -0.13350967D-03 -0.38858732D-02 -0.38068145D-02  0.17780081D-02 -0.14606725D-02
  0.31544343D-02  0.90106619D-03  0.91659955D-11  0.12025287D-10  0.13189907D-10
  0.10852864D-10  0.57218448D-11  0.14885536D-11 -0.16472363D-14  0.55025565D-12
  0.72190545D-12  0.79182025D-12  0.65152225D-12  0.34349542D-12  0.89361272D-13
 -0.98887358D-16 -0.97004881D+01 -0.12726512D+02 -0.13959044D+02 -0.11485723D+02
 -0.60555002D+01 -0.15753549D+01  0.17432908D-02 -0.51808275D-15 -0.68024581D-15
 -0.76532240D-15 -0.64484199D-15 -0.36071557D-15 -0.89781370D-16  0.41178062D-16
  0.75041509D-15  0.98529958D-15  0.11085285D-14  0.93401904D-15  0.52247716D-15
  0.13004350D-15 -0.59644215D-16  0.32680014D-01  0.42909058D-01  0.48275583D-01
  0.40675829D-01  0.22753488D-01  0.56632969D-02 -0.25974608D-02  0.79919410D-13
  0.48168498D-14 -0.83863186D-01  0.30683714D-15  0.66381597D-16 -0.11005032D-02
 -0.80761913D-17 -0.77614228D-19 -0.18652969D-04 -0.28050733D-03 -0.28050733D-03
  0.56101466D-03 -0.31256749D-17 -0.27991122D-15 -0.33947866D-16 -0.70677958D-03
 -0.70677958D-03  0.14135592D-02  0.44254493D-17  0.13988414D-15 -0.58370761D-17
 -0.18792080D-04 -0.18792080D-04  0.37584160D-04  0.16898401D-17 -0.32706987D-16
 -0.18783455D-16 -0.79277322D-16 -0.15076603D-16 -0.59257314D-03 -0.77699799D-16
 -0.12774681D-16  0.88885971D-03  0.31553177D-15  0.58004489D-16  0.88885971D-03
  0.14723163D-17 -0.68792683D-17 -0.13352083D-17  0.61965373D-05 -0.72774393D-17
 -0.20531650D-17 -0.92948060D-05  0.27915244D-16  0.60587899D-17 -0.92948060D-05
 -0.33500999D-17
MO    7     MO 0.0        OCC NO =    2.0000000  ORB. ENERGY =   -0.771149
  0.72758005D-02  0.13563746D-01  0.22925121D-01  0.34463966D-01  0.42342964D-01
  0.35765402D-01  0.13489394D-01 -0.66759763D-04  0.33954106D-01  0.63572800D-01
  0.10823813D+00  0.16742793D+00  0.22049669D+00  0.22911019D+00  0.14558924D+00
 -0.97570523D-01 -0.47512529D-01 -0.17693002D-01 -0.20411114D-02 -0.16689669D-15
 -0.15647625D-15 -0.11142041D-15  0.11571180D-16  0.10848717D-16  0.77249326D-17
 -0.23283958D+00 -0.21830191D+00 -0.15544397D+00 -0.52835315D-16 -0.39701603D-16
 -0.50631644D-01  0.24357183D-16  0.15873337D-16 -0.31324293D-02  0.71056828D-18
 -0.50014690D-21 -0.10707146D-03  0.12972866D-01  0.12972866D-01 -0.25945731D-01
  0.12701880D-15 -0.99416942D-16 -0.94304627D-16  0.20472272D-02  0.20472272D-02
 -0.40944544D-02 -0.12898646D-16  0.17278616D-16  0.39667501D-16  0.12469340D-04
  0.12469340D-04 -0.24938680D-04  0.18426790D-17  0.41876436D-17 -0.60765058D-18
  0.35137927D-17 -0.15639990D-18 -0.35933892D-02  0.44495900D-17 -0.15017611D-16
  0.53900838D-02 -0.14990968D-16  0.15486811D-16  0.53900838D-02 -0.99275223D-17
 -0.15261079D-17 -0.79324073D-18 -0.20590795D-03 -0.14273170D-17 -0.69183945D-18
  0.30886193D-03  0.60056407D-17  0.30715616D-17  0.30886193D-03 -0.59113374D-17
  0.12120817D-02  0.22659163D-02  0.39162108D-02  0.63342953D-02  0.95739164D-02
  0.13184854D-01  0.15410037D-01  0.13315435D-01  0.62103662D-02  0.84323357D-03
  0.22579717D-05  0.44292071D-05  0.20221181D-06 -0.44870946D-02 -0.83798402D-02
 -0.14536130D-01 -0.23569831D-01 -0.36288439D-01 -0.51682888D-01 -0.66457485D-01
 -0.69760583D-01 -0.49325676D-01  0.10923377D-02  0.35441135D-01  0.19514851D-01
 -0.82527974D-04 -0.35344723D-01 -0.65958482D-01 -0.11456199D+00 -0.18556500D+00
 -0.28664362D+00 -0.40865355D+00 -0.53152478D+00 -0.56646214D+00 -0.42013319D+00
  0.13077186D-01  0.38061878D+00  0.37287504D+00 -0.17415476D+00 -0.41987142D-01
 -0.27818787D-01  0.31858880D-02  0.13555386D-14  0.17783928D-14  0.19506258D-14
  0.16050059D-14  0.84619083D-15  0.22013886D-15 -0.24360609D-18 -0.12983166D-15
 -0.17033207D-15 -0.18682832D-15 -0.15372530D-15 -0.81047019D-16 -0.21084604D-16
  0.23332264D-19 -0.37871045D+00 -0.49684749D+00 -0.54496596D+00 -0.44840663D+00
 -0.23640884D+00 -0.61502407D-01  0.68058684D-04 -0.21989394D-15 -0.28872208D-15
 -0.32483181D-15 -0.27369536D-15 -0.15310135D-15 -0.38106613D-16  0.17477529D-16
  0.26725991D-15  0.35091388D-15  0.39480178D-15  0.33265035D-15  0.18607994D-15
  0.46314919D-16 -0.21242253D-16 -0.40491172D+00 -0.53165156D+00 -0.59814385D+00
 -0.50398142D+00 -0.28192014D+00 -0.70169349D-01  0.32183044D-01  0.46583203D-16
  0.19792913D-16  0.76791625D-01 -0.12612020D-16 -0.12552013D-16 -0.10705798D-02
 -0.36408649D-18 -0.15450869D-17 -0.19516432D-03  0.70289006D-03  0.70289006D-03
 -0.14057801D-02  0.73606364D-17  0.16393362D-16  0.27120970D-16  0.18166231D-01
  0.18166231D-01 -0.36332462D-01  0.22702359D-16 -0.51928884D-17 -0.38312876D-16
 -0.10443424D-03 -0.10443424D-03  0.20886848D-03 -0.14415411D-17  0.39638891D-17
  0.54943664D-18  0.17945992D-17  0.29551125D-17  0.38418310D-02  0.45759922D-17
  0.46095994D-17 -0.57627466D-02 -0.99597900D-17 -0.13474937D-16 -0.57627466D-02
 -0.12777696D-16  0.35494831D-18  0.86494074D-18 -0.24540207D-03  0.46449076D-18
  0.91492704D-18  0.36810311D-03 -0.15293357D-17 -0.35097493D-17  0.36810311D-03
 -0.91848913D-17
MO    8     MO 0.0        OCC NO =    2.0000000  ORB. ENERGY =   -0.478961
 -0.46584817D-02 -0.86844690D-02 -0.14678283D-01 -0.22066267D-01 -0.27110958D-01
 -0.22899538D-01 -0.86368633D-02  0.42744318D-04 -0.41536703D-01 -0.77769813D-01
 -0.13240976D+00 -0.20481777D+00 -0.26973779D+00 -0.28027484D+00 -0.17810208D+00
  0.11935987D+00  0.61423761D-01  0.46593714D-01  0.28571306D-02  0.35374233D-16
  0.33165592D-16  0.23615877D-16 -0.14628481D-16 -0.13715131D-16 -0.97659905D-17
  0.87664614D-01  0.82191148D-01  0.58524994D-01 -0.77841549D-17  0.12830296D-16
  0.19501885D-01  0.19661126D-16  0.14337274D-17  0.58565831D-02 -0.12268425D-18
 -0.66716956D-18  0.94003787D-04 -0.30838544D-02 -0.30838544D-02  0.61677089D-02