 Molden2AIM, Version 4.0.0 (06/02/2016)           Time: Thu Jun 28 23:43:24 2018
GAUSSIAN             22 MOL ORBITALS    338 PRIMITIVES        2 NUCLEI
  F    1    (CENTRE  1)   0.00000000  0.00000000 -2.64110391  CHARGE =  9.0
  Br   2    (CENTRE  2)   0.00000000  0.00000000  0.67138946  CHARGE = 35.0
CENTRE ASSIGNMENTS    1  1  1  1  1  1  1  1  1  1  1  1  1  1  1  1  1  1  1  1
CENTRE ASSIGNMENTS    1  1  1  1  1  1  1  1  1  1  1  1  1  1  1  1  1  1  1  1
CENTRE ASSIGNMENTS    1  1  1  1  1  1  1  1  1  1  1  1  1  1  1  1  1  1  1  1
CENTRE ASSIGNMENTS    1  1  1  1  1  1  1  1  1  1  1  1  1  1  1  2  2  2  2  2
CENTRE ASSIGNMENTS    2  2  2  2  2  2  2  2  2  2  2  2  2  2  2  2  2  2  2  2
CENTRE ASSIGNMENTS    2  2  2  2  2  2  2  2  2  2  2  2  2  2  2  2  2  2  2  2
CENTRE ASSIGNMENTS    2  2  2  2  2  2  2  2  2  2  2  2  2  2  2  2  2  2  2  2
CENTRE ASSIGNMENTS    2  2  2  2  2  2  2  2  2  2  2  2  2  2  2  2  2  2  2  2
CENTRE ASSIGNMENTS    2  2  2  2  2  2  2  2  2  2  2  2  2  2  2  2  2  2  2  2
CENTRE ASSIGNMENTS    2  2  2  2  2  2  2  2  2  2  2  2  2  2  2  2  2  2  2  2
CENTRE ASSIGNMENTS    2  2  2  2  2  2  2  2  2  2  2  2  2  2  2  2  2  2  2  2
CENTRE ASSIGNMENTS    2  2  2  2  2  2  2  2  2  2  2  2  2  2  2  2  2  2  2  2
CENTRE ASSIGNMENTS    2  2  2  2  2  2  2  2  2  2  2  2  2  2  2  2  2  2  2  2
CENTRE ASSIGNMENTS    2  2  2  2  2  2  2  2  2  2  2  2  2  2  2  2  2  2  2  2
CENTRE ASSIGNMENTS    2  2  2  2  2  2  2  2  2  2  2  2  2  2  2  2  2  2  2  2
CENTRE ASSIGNMENTS    2  2  2  2  2  2  2  2  2  2  2  2  2  2  2  2  2  2  2  2
CENTRE ASSIGNMENTS    2  2  2  2  2  2  2  2  2  2  2  2  2  2  2  2  2  2
TYPE ASSIGNMENTS      1  1  1  1  1  1  1  1  1  1  1  1  1  1  1  1  1  1  1  2
TYPE ASSIGNMENTS      2  2  3  3  3  4  4  4  2  3  4  2  3  4  2  3  4  5  6  7
TYPE ASSIGNMENTS      8  9 10  5  6  7  8  9 10  5  6  7  8  9 10 11 12 13 17 14
TYPE ASSIGNMENTS     15 18 19 16 20 11 12 13 17 14 15 18 19 16 20  1  1  1  1  1
TYPE ASSIGNMENTS      1  1  1  1  1  1  1  1  1  1  1  1  1  1  1  1  1  1  1  1
TYPE ASSIGNMENTS      1  1  1  1  1  1  1  1  1  1  1  1  1  1  1  1  1  1  1  1
TYPE ASSIGNMENTS      1  1  1  1  1  1  1  1  1  1  1  1  1  1  1  1  1  1  1  1
TYPE ASSIGNMENTS      1  1  1  1  1  1  1  1  1  1  2  2  2  2  2  2  2  2  2  2
TYPE ASSIGNMENTS      2  3  3  3  3  3  3  3  3  3  3  3  4  4  4  4  4  4  4  4
TYPE ASSIGNMENTS      4  4  4  2  2  2  2  2  2  2  2  2  2  2  3  3  3  3  3  3
TYPE ASSIGNMENTS      3  3  3  3  3  4  4  4  4  4  4  4  4  4  4  4  2  2  2  2
TYPE ASSIGNMENTS      2  2  2  2  2  2  2  3  3  3  3  3  3  3  3  3  3  3  4  4
TYPE ASSIGNMENTS      4  4  4  4  4  4  4  4  4  2  3  4  2  3  4  2  3  4  5  5
TYPE ASSIGNMENTS      5  5  5  5  5  6  6  6  6  6  6  6  7  7  7  7  7  7  7  8
TYPE ASSIGNMENTS      8  8  8  8  8  8  9  9  9  9  9  9  9 10 10 10 10 10 10 10
TYPE ASSIGNMENTS      5  6  7  8  9 10  5  6  7  8  9 10  5  6  7  8  9 10 11 12
TYPE ASSIGNMENTS     13 17 14 15 18 19 16 20 11 12 13 17 14 15 18 19 16 20
EXPONENTS  0.1950000D+05 0.2923000D+04 0.6645000D+03 0.1875000D+03 0.6062000D+02
EXPONENTS  0.2142000D+02 0.7950000D+01 0.8815000D+00 0.1950000D+05 0.2923000D+04
EXPONENTS  0.6645000D+03 0.1875000D+03 0.6062000D+02 0.2142000D+02 0.7950000D+01
EXPONENTS  0.8815000D+00 0.2257000D+01 0.3041000D+00 0.9158000D-01 0.4388000D+02
EXPONENTS  0.9926000D+01 0.2930000D+01 0.4388000D+02 0.9926000D+01 0.2930000D+01
EXPONENTS  0.4388000D+02 0.9926000D+01 0.2930000D+01 0.9132000D+00 0.9132000D+00
EXPONENTS  0.9132000D+00 0.2672000D+00 0.2672000D+00 0.2672000D+00 0.7361000D-01
EXPONENTS  0.7361000D-01 0.7361000D-01 0.3107000D+01 0.3107000D+01 0.3107000D+01
EXPONENTS  0.3107000D+01 0.3107000D+01 0.3107000D+01 0.8550000D+00 0.8550000D+00
EXPONENTS  0.8550000D+00 0.8550000D+00 0.8550000D+00 0.8550000D+00 0.2920000D+00
EXPONENTS  0.2920000D+00 0.2920000D+00 0.2920000D+00 0.2920000D+00 0.2920000D+00
EXPONENTS  0.1917000D+01 0.1917000D+01 0.1917000D+01 0.1917000D+01 0.1917000D+01
EXPONENTS  0.1917000D+01 0.1917000D+01 0.1917000D+01 0.1917000D+01 0.1917000D+01
EXPONENTS  0.7240000D+00 0.7240000D+00 0.7240000D+00 0.7240000D+00 0.7240000D+00
EXPONENTS  0.7240000D+00 0.7240000D+00 0.7240000D+00 0.7240000D+00 0.7240000D+00
EXPONENTS  0.1063900D+08 0.1593400D+07 0.3626100D+06 0.1027000D+06 0.3350100D+05
EXPONENTS  0.1209300D+05 0.4715900D+04 0.1955600D+04 0.8526100D+03 0.3876700D+03
EXPONENTS  0.1826800D+03 0.8824500D+02 0.3926300D+02 0.1923400D+02 0.9405700D+01
EXPONENTS  0.4160100D+01 0.1899500D+01 0.3011400D+00 0.1063900D+08 0.1593400D+07
EXPONENTS  0.3626100D+06 0.1027000D+06 0.3350100D+05 0.1209300D+05 0.4715900D+04
EXPONENTS  0.1955600D+04 0.8526100D+03 0.3876700D+03 0.1826800D+03 0.8824500D+02
EXPONENTS  0.3926300D+02 0.1923400D+02 0.9405700D+01 0.4160100D+01 0.1899500D+01
EXPONENTS  0.3011400D+00 0.1063900D+08 0.1593400D+07 0.3626100D+06 0.1027000D+06
EXPONENTS  0.3350100D+05 0.1209300D+05 0.4715900D+04 0.1955600D+04 0.8526100D+03
EXPONENTS  0.3876700D+03 0.1826800D+03 0.8824500D+02 0.3926300D+02 0.1923400D+02
EXPONENTS  0.9405700D+01 0.4160100D+01 0.1899500D+01 0.3011400D+00 0.1063900D+08
EXPONENTS  0.1593400D+07 0.3626100D+06 0.1027000D+06 0.3350100D+05 0.1209300D+05
EXPONENTS  0.4715900D+04 0.1955600D+04 0.8526100D+03 0.3876700D+03 0.1826800D+03
EXPONENTS  0.8824500D+02 0.3926300D+02 0.1923400D+02 0.9405700D+01 0.4160100D+01
EXPONENTS  0.1899500D+01 0.3011400D+00 0.6047200D+00 0.1251500D+00 0.4559300D-01
EXPONENTS  0.8676500D+04 0.2055900D+04 0.6662300D+03 0.2531000D+03 0.1061200D+03
EXPONENTS  0.4724200D+02 0.2182500D+02 0.9968400D+01 0.4517100D+01 0.1998200D+01
EXPONENTS  0.2814500D+00 0.8676500D+04 0.2055900D+04 0.6662300D+03 0.2531000D+03
EXPONENTS  0.1061200D+03 0.4724200D+02 0.2182500D+02 0.9968400D+01 0.4517100D+01
EXPONENTS  0.1998200D+01 0.2814500D+00 0.8676500D+04 0.2055900D+04 0.6662300D+03
EXPONENTS  0.2531000D+03 0.1061200D+03 0.4724200D+02 0.2182500D+02 0.9968400D+01
EXPONENTS  0.4517100D+01 0.1998200D+01 0.2814500D+00 0.8676500D+04 0.2055900D+04
EXPONENTS  0.6662300D+03 0.2531000D+03 0.1061200D+03 0.4724200D+02 0.2182500D+02
EXPONENTS  0.9968400D+01 0.4517100D+01 0.1998200D+01 0.2814500D+00 0.8676500D+04
EXPONENTS  0.2055900D+04 0.6662300D+03 0.2531000D+03 0.1061200D+03 0.4724200D+02
EXPONENTS  0.2182500D+02 0.9968400D+01 0.4517100D+01 0.1998200D+01 0.2814500D+00
EXPONENTS  0.8676500D+04 0.2055900D+04 0.6662300D+03 0.2531000D+03 0.1061200D+03
EXPONENTS  0.4724200D+02 0.2182500D+02 0.9968400D+01 0.4517100D+01 0.1998200D+01
EXPONENTS  0.2814500D+00 0.8676500D+04 0.2055900D+04 0.6662300D+03 0.2531000D+03
EXPONENTS  0.1061200D+03 0.4724200D+02 0.2182500D+02 0.9968400D+01 0.4517100D+01
EXPONENTS  0.1998200D+01 0.2814500D+00 0.8676500D+04 0.2055900D+04 0.6662300D+03
EXPONENTS  0.2531000D+03 0.1061200D+03 0.4724200D+02 0.2182500D+02 0.9968400D+01
EXPONENTS  0.4517100D+01 0.1998200D+01 0.2814500D+00 0.8676500D+04 0.2055900D+04
EXPONENTS  0.6662300D+03 0.2531000D+03 0.1061200D+03 0.4724200D+02 0.2182500D+02
EXPONENTS  0.9968400D+01 0.4517100D+01 0.1998200D+01 0.2814500D+00 0.7098800D+00
EXPONENTS  0.7098800D+00 0.7098800D+00 0.1020400D+00 0.1020400D+00 0.1020400D+00
EXPONENTS  0.3514200D-01 0.3514200D-01 0.3514200D-01 0.4038300D+03 0.1211700D+03
EXPONENTS  0.4634500D+02 0.1972100D+02 0.8862400D+01 0.3996200D+01 0.1763600D+01
EXPONENTS  0.4038300D+03 0.1211700D+03 0.4634500D+02 0.1972100D+02 0.8862400D+01
EXPONENTS  0.3996200D+01 0.1763600D+01 0.4038300D+03 0.1211700D+03 0.4634500D+02
EXPONENTS  0.1972100D+02 0.8862400D+01 0.3996200D+01 0.1763600D+01 0.4038300D+03
EXPONENTS  0.1211700D+03 0.4634500D+02 0.1972100D+02 0.8862400D+01 0.3996200D+01
EXPONENTS  0.1763600D+01 0.4038300D+03 0.1211700D+03 0.4634500D+02 0.1972100D+02
EXPONENTS  0.8862400D+01 0.3996200D+01 0.1763600D+01 0.4038300D+03 0.1211700D+03
EXPONENTS  0.4634500D+02 0.1972100D+02 0.8862400D+01 0.3996200D+01 0.1763600D+01
EXPONENTS  0.7061900D+00 0.7061900D+00 0.7061900D+00 0.7061900D+00 0.7061900D+00
EXPONENTS  0.7061900D+00 0.2639000D+00 0.2639000D+00 0.2639000D+00 0.2639000D+00
EXPONENTS  0.2639000D+00 0.2639000D+00 0.1047000D+00 0.1047000D+00 0.1047000D+00
EXPONENTS  0.1047000D+00 0.1047000D+00 0.1047000D+00 0.5515000D+00 0.5515000D+00
EXPONENTS  0.5515000D+00 0.5515000D+00 0.5515000D+00 0.5515000D+00 0.5515000D+00
EXPONENTS  0.5515000D+00 0.5515000D+00 0.5515000D+00 0.2580000D+00 0.2580000D+00
EXPONENTS  0.2580000D+00 0.2580000D+00 0.2580000D+00 0.2580000D+00 0.2580000D+00
EXPONENTS  0.2580000D+00 0.2580000D+00 0.2580000D+00
MO    1     MO 0.0        OCC NO =    2.0000000  ORB. ENERGY = -481.091304
 -0.15899173D-04 -0.29636747D-04 -0.50241573D-04 -0.76080548D-04 -0.95138992D-04
 -0.81905810D-04 -0.31487584D-04  0.13644085D-06  0.10440051D-04  0.19604567D-04
  0.33383197D-04  0.52294580D-04  0.70080890D-04  0.75381446D-04  0.45258921D-04
 -0.29764171D-04  0.90475593D-05  0.22431152D-04 -0.97939148D-05 -0.19806108D-15
 -0.19369941D-15 -0.12798539D-15 -0.17769584D-15 -0.17378265D-15 -0.11482555D-15
 -0.99224155D-05 -0.97039056D-05 -0.64117807D-05 -0.16180484D-17 -0.24232937D-15
 -0.45908300D-05 -0.19938049D-16  0.12090295D-15  0.24036565D-04  0.51918772D-17
 -0.75359000D-17 -0.17541025D-05  0.14975941D-04  0.14975941D-04 -0.29951883D-04
 -0.36424817D-14  0.32964634D-14  0.28568972D-14 -0.49278960D-05 -0.49278960D-05
  0.98557920D-05  0.43403949D-15 -0.60265298D-16 -0.17973152D-15 -0.53781702D-05
 -0.53781702D-05  0.10756340D-04 -0.23619080D-16 -0.19893801D-16  0.67806841D-16
  0.11184593D-15  0.26911068D-15 -0.28890811D-04 -0.26570454D-15 -0.69609230D-15
  0.43336216D-04 -0.69833242D-16 -0.11123973D-15  0.43336216D-04  0.71910239D-15
 -0.47882107D-17 -0.20150485D-16  0.13466150D-04 -0.42512755D-17  0.48939661D-16
 -0.20199225D-04  0.18615908D-16  0.11511794D-16 -0.20199225D-04 -0.20744474D-15
  0.78329793D+00  0.14734788D+01  0.25506645D+01  0.41810271D+01  0.65496599D+01
  0.98446966D+01  0.14070544D+02  0.18678997D+02  0.21754229D+02  0.19981049D+02
  0.11683705D+02  0.30658627D+01  0.16760952D+00 -0.59990715D-02  0.16765512D-02
 -0.49782461D-03  0.84870478D-04  0.69242636D-05  0.95749591D-04  0.17592167D-03
  0.30420911D-03  0.49818493D-03  0.78436978D-03  0.11844752D-02  0.17289721D-02
  0.23808996D-02  0.30421523D-02  0.33163025D-02  0.27298276D-02  0.74850018D-03
 -0.15097734D-02 -0.14713401D-02 -0.32197067D-03 -0.10846895D-04 -0.36745816D-06
  0.93476616D-09 -0.55153776D-04 -0.10812349D-03 -0.18937562D-03 -0.30937814D-03
 -0.48796385D-03 -0.73631565D-03 -0.10795850D-02 -0.14905457D-02 -0.19324999D-02
 -0.21490537D-02 -0.18665854D-02 -0.54220968D-03  0.13669040D-02  0.19916755D-02
  0.34287405D-03 -0.83646588D-03 -0.39813667D-03  0.19227236D-05  0.18764324D-04
  0.40657758D-04  0.69213385D-04  0.11297488D-03  0.17809382D-03  0.26879501D-03
  0.39409729D-03  0.54481153D-03  0.70711070D-03  0.78996631D-03  0.69005345D-03
  0.20439450D-03 -0.53130830D-03 -0.81733176D-03 -0.14305801D-03  0.45126860D-03
  0.38305880D-03 -0.14291581D-03  0.16014959D-03  0.30966573D-04  0.48876751D-06
 -0.39435690D-14 -0.56583233D-14 -0.74919209D-14 -0.86510459D-14 -0.80199176D-14
 -0.51922408D-14 -0.18326703D-14 -0.21480477D-15 -0.31228637D-17 -0.45730863D-18
 -0.47018429D-20 -0.35111173D-14 -0.50378317D-14 -0.66703570D-14 -0.77023725D-14
 -0.71404536D-14 -0.46228598D-14 -0.16316998D-14 -0.19124928D-15 -0.27804106D-17
 -0.40716018D-18 -0.41862390D-20  0.13185383D-03  0.18918690D-03  0.25049351D-03
  0.28924903D-03  0.26814716D-03  0.17360336D-03  0.61275611D-04  0.71820300D-05
  0.10441342D-06  0.15290183D-07  0.15720683D-09  0.63075400D-15  0.91050065D-15
  0.12164071D-14  0.14451290D-14  0.14004407D-14  0.97348495D-15  0.31676266D-15
 -0.14256834D-15 -0.15402137D-15 -0.39652330D-16  0.38677186D-19  0.44024505D-16
  0.63549879D-16  0.84901119D-16  0.10086513D-15  0.97746046D-16  0.67945971D-16
  0.22108967D-16 -0.99507897D-17 -0.10750173D-16 -0.27675991D-17  0.26995373D-20
 -0.17673618D-02 -0.25512071D-02 -0.34083516D-02 -0.40492263D-02 -0.39240107D-02
 -0.27276880D-02 -0.88756351D-03  0.39947401D-03  0.43156521D-03  0.11110514D-03
 -0.10837281D-06 -0.73047384D-16 -0.10614109D-15 -0.14111581D-15 -0.16932920D-15
 -0.16382675D-15 -0.11629792D-15 -0.36145685D-16  0.20752572D-16  0.23840099D-16
  0.63309478D-17 -0.22842257D-17 -0.26041117D-15 -0.37838898D-15 -0.50307253D-15
 -0.60365221D-15 -0.58403619D-15 -0.41459769D-15 -0.12885800D-15  0.73982137D-16
  0.84989052D-16  0.22569590D-16 -0.81431784D-17  0.12602623D-02  0.18312171D-02
  0.24346243D-02  0.29213807D-02  0.28264487D-02  0.20064495D-02  0.62360954D-03
 -0.35803726D-03 -0.41130533D-03 -0.10922575D-03  0.39408990D-04  0.43820962D-16
 -0.31614573D-16 -0.26798723D-04  0.35312044D-17 -0.98934954D-17 -0.76583776D-05
 -0.23557321D-18  0.24200543D-17  0.13862896D-07 -0.11822918D-03 -0.12371410D-03
 -0.10541104D-03 -0.69421137D-04 -0.31994135D-04 -0.95806955D-05 -0.16300741D-05
 -0.11822918D-03 -0.12371410D-03 -0.10541104D-03 -0.69421137D-04 -0.31994135D-04
 -0.95806955D-05 -0.16300741D-05  0.23645837D-03  0.24742821D-03  0.21082207D-03
  0.13884227D-03  0.63988270D-04  0.19161391D-04  0.32601482D-05 -0.12120947D-14
 -0.12683265D-14 -0.10806820D-14 -0.71171083D-15 -0.32800633D-15 -0.98222026D-16
 -0.16711645D-16  0.16107563D-14  0.16854829D-14  0.14361216D-14  0.94579466D-15
  0.43588860D-15  0.13052755D-15  0.22208155D-16 -0.36319671D-14 -0.38004622D-14
 -0.32381972D-14 -0.21325977D-14 -0.98285077D-15 -0.29431625D-15 -0.50075416D-16
  0.42853039D-05  0.42853039D-05 -0.85706077D-05  0.10694909D-16 -0.31308589D-16
  0.37947902D-16  0.40876321D-05  0.40876321D-05 -0.81752642D-05  0.81845352D-17
 -0.28531342D-17  0.54871535D-16 -0.71584971D-06 -0.71584971D-06  0.14316994D-05
  0.81162381D-18 -0.18444317D-17  0.38004947D-17 -0.61512772D-17 -0.99697407D-17
  0.88444670D-05 -0.68620073D-17 -0.74586930D-17 -0.13266700D-04  0.25315839D-16
  0.37367915D-16 -0.13266700D-04 -0.69073152D-16 -0.86581824D-18  0.88470253D-17
 -0.75256998D-06 -0.73262035D-18  0.80034493D-17  0.11288550D-05  0.33300751D-17
 -0.34544525D-16  0.11288550D-05  0.35969903D-17
MO    2     MO 0.0        OCC NO =    2.0000000  ORB. ENERGY =  -61.893577
 -0.42083200D-03 -0.78444907D-03 -0.13298340D-02 -0.20137606D-02 -0.25182148D-02
 -0.21679483D-02 -0.83343849D-03  0.36114254D-05  0.27926400D-03  0.52440834D-03
  0.89297696D-03  0.13988431D-02  0.18746144D-02  0.20164005D-02  0.12106442D-02
 -0.79617056D-03  0.20842737D-03  0.56269160D-03 -0.37972949D-03 -0.22619966D-14
 -0.22121833D-14 -0.14616830D-14  0.16120994D-14  0.15765980D-14  0.10417249D-14
 -0.26625198D-03 -0.26038862D-03 -0.17204977D-03  0.39466635D-15 -0.43126580D-15
 -0.13388854D-03 -0.84645261D-16 -0.27040640D-17  0.64891295D-03  0.16081359D-17
 -0.18613117D-18 -0.64126609D-04  0.36633860D-03  0.36633860D-03 -0.73267721D-03
  0.37971886D-15 -0.49567885D-15 -0.10628384D-15 -0.12353673D-03 -0.12353673D-03
  0.24707346D-03 -0.18057061D-16  0.18157850D-15 -0.72515474D-16 -0.16092301D-03
 -0.16092301D-03  0.32184601D-03  0.45069672D-18 -0.60528756D-16  0.44617829D-16
  0.15225660D-16 -0.63321158D-16 -0.91440859D-03  0.83931637D-16  0.13416835D-15
  0.13716129D-02 -0.12960862D-15  0.55795121D-16  0.13716129D-02 -0.71863373D-15
  0.14882138D-16 -0.22424607D-16  0.41173717D-03  0.11845578D-16 -0.27443504D-16
 -0.61760575D-03 -0.56491990D-16  0.94717324D-16 -0.61760575D-03  0.37489274D-16
 -0.75804978D-03 -0.14259840D-02 -0.24684485D-02 -0.40462594D-02 -0.63385438D-02
 -0.95273711D-02 -0.13617007D-01 -0.18076915D-01 -0.21053022D-01 -0.19336997D-01
 -0.11307103D-01 -0.29670404D-02 -0.16220694D-03  0.58057026D-05 -0.16225107D-05
  0.48177816D-06 -0.82134836D-07 -0.67010729D-08  0.25349262D+00  0.46574448D+00
  0.80537954D+00  0.13189216D+01  0.20765827D+01  0.31358434D+01  0.45773737D+01
  0.63033216D+01  0.80539576D+01  0.87797574D+01  0.72270923D+01  0.19816196D+01
 -0.39970553D+01 -0.38953049D+01 -0.85240246D+00 -0.28716654D-01 -0.97282849D-03
  0.24747502D-05 -0.16147132D-02 -0.31654846D-02 -0.55442678D-02 -0.90575295D-02
 -0.14285906D-01 -0.21556794D-01 -0.31606543D-01 -0.43638061D-01 -0.56576962D-01
 -0.62916911D-01 -0.54647210D-01 -0.15874037D-01  0.40018255D-01  0.58309418D-01
  0.10038175D-01 -0.24488848D-01 -0.11656074D-01  0.56290743D-04  0.57557367D-03
  0.12471291D-02  0.21230396D-02  0.34653723D-02  0.54628195D-02  0.82449724D-02
  0.12088473D-01  0.16711456D-01  0.21689793D-01  0.24231292D-01  0.21166582D-01
  0.62695622D-02 -0.16297260D-01 -0.25070695D-01 -0.43881372D-02  0.13842136D-01
  0.11749880D-01 -0.43837753D-02  0.53283335D-02  0.10985585D-02  0.25088074D-04
 -0.40547750D-13 -0.58178843D-13 -0.77031881D-13 -0.88949997D-13 -0.82460739D-13
 -0.53386586D-13 -0.18843504D-13 -0.22086212D-14 -0.32109264D-16 -0.47020443D-17
 -0.48344318D-19 -0.15054431D-14 -0.21600443D-14 -0.28600135D-14 -0.33025052D-14
 -0.30615743D-14 -0.19821190D-14 -0.69961522D-15 -0.82000936D-16 -0.11921418D-17
 -0.17457590D-18 -0.17949114D-20  0.82404686D-01  0.11823613D+00  0.15655093D+00
  0.18077197D+00  0.16758393D+00  0.10849689D+00  0.38295418D-01  0.44885532D-02
  0.65255256D-04  0.95559058D-05  0.98249552D-07 -0.43439442D-15 -0.62705334D-15
 -0.83772827D-15 -0.99524689D-15 -0.96447053D-15 -0.67043004D-15 -0.21815151D-15
  0.98185489D-16  0.10607309D-15  0.27308191D-16 -0.26636619D-19  0.63495620D-15
  0.91656657D-15  0.12245110D-14  0.14547567D-14  0.14097707D-14  0.97997048D-15
  0.31887300D-15 -0.14351815D-15 -0.15504749D-15 -0.39916501D-16  0.38934861D-19
 -0.51058556D-01 -0.73703612D-01 -0.98466264D-01 -0.11698094D+00 -0.11336350D+00
 -0.78802093D-01 -0.25641445D-01  0.11540685D-01  0.12467790D-01  0.32097945D-02
 -0.31308581D-05  0.58570743D-15  0.85105888D-15  0.11314927D-14  0.13577129D-14
  0.13135932D-14  0.93249822D-15  0.28982279D-15 -0.16639796D-15 -0.19115432D-15
 -0.50762710D-16  0.18315344D-16 -0.13246222D-14 -0.19247348D-14 -0.25589572D-14
 -0.30705715D-14 -0.29707915D-14 -0.21089161D-14 -0.65545641D-15  0.37632172D-15
  0.43231012D-15  0.11480375D-15 -0.41421552D-16  0.36808394D-01  0.53484229D-01
  0.71107902D-01  0.85324560D-01  0.82551890D-01  0.58602230D-01  0.18213720D-01
 -0.10457169D-01 -0.12012966D-01 -0.31901487D-02  0.11510156D-02  0.29058546D-17
 -0.16860037D-16 -0.74339382D-03  0.14085655D-16 -0.97251085D-17 -0.27711886D-03
 -0.97872960D-18  0.10653697D-17  0.15811121D-06  0.11504689D-02  0.12038417D-02
  0.10257376D-02  0.67552574D-03  0.31132970D-03  0.93228182D-04  0.15861985D-04
  0.11504689D-02  0.12038417D-02  0.10257376D-02  0.67552574D-03  0.31132970D-03
  0.93228182D-04  0.15861985D-04 -0.23009377D-02 -0.24076834D-02 -0.20514751D-02
 -0.13510515D-02 -0.62265940D-03 -0.18645636D-03 -0.31723970D-04  0.79333517D-15
  0.83013977D-15  0.70732352D-15  0.46582601D-15  0.21468534D-15  0.64287872D-16
  0.10938036D-16  0.12360581D-14  0.12934016D-14  0.11020474D-14  0.72578152D-15
  0.33449110D-15  0.10016390D-15  0.17042038D-16 -0.23643374D-14 -0.24740244D-14
 -0.21080012D-14 -0.13882781D-14 -0.63981606D-15 -0.19159395D-15 -0.32598087D-16
  0.11682389D-03  0.11682389D-03 -0.23364778D-03 -0.71719125D-17  0.94539502D-17
  0.21724663D-17  0.11294571D-03  0.11294571D-03 -0.22589142D-03  0.18414139D-17
 -0.43874712D-16  0.33431961D-16 -0.24770472D-04 -0.24770472D-04  0.49540944D-04
 -0.27565525D-18 -0.24548437D-18  0.20015868D-17  0.52684519D-17  0.50494765D-18
  0.26967304D-03  0.54343752D-17  0.15694915D-18 -0.40450957D-03 -0.21239731D-16
 -0.16717921D-17 -0.40450957D-03  0.12451652D-16 -0.51775531D-17  0.41382913D-17
 -0.30645514D-04 -0.51971624D-17  0.41765564D-17  0.45968271D-04  0.20729822D-16
 -0.16591430D-16  0.45968271D-04  0.68091591D-17
MO    3     MO 0.0        OCC NO =    2.0000000  ORB. ENERGY =  -55.811116
  0.24826964D-03  0.46278537D-03  0.78453497D-03  0.11880172D-02  0.14856196D-02
  0.12789801D-02  0.49168665D-03 -0.21305587D-05 -0.16433531D-03 -0.30859261D-03
 -0.52547999D-03 -0.82316129D-03 -0.11031330D-02 -0.11865682D-02 -0.71241402D-03
  0.46851343D-03 -0.11305425D-03 -0.68430228D-03 -0.20824223D-03 -0.58892919D-15
 -0.57595988D-15 -0.38056104D-15 -0.21624056D-14 -0.21147855D-14 -0.13973282D-14
  0.32986642D-04  0.32260215D-04  0.21315688D-04  0.32995233D-15  0.50108523D-15
  0.14468574D-04 -0.77209842D-16 -0.24724604D-16 -0.56982611D-03 -0.45833481D-17
  0.30986060D-17 -0.22095964D-04 -0.19747316D-04 -0.19747316D-04  0.39494632D-04
 -0.49147607D-15  0.38681315D-15  0.20806666D-15  0.55167460D-04  0.55167460D-04
 -0.11033492D-03  0.10763107D-15  0.37094453D-16 -0.88531632D-16  0.60566111D-04
  0.60566111D-04 -0.12113222D-03 -0.12831763D-16 -0.12036768D-15  0.29095151D-16
 -0.28572755D-16  0.12905998D-15 -0.30899635D-03 -0.26398663D-17 -0.11208302D-16
  0.46349453D-03  0.88358130D-16 -0.37597164D-15  0.46349453D-03  0.72436349D-16
  0.16530513D-16 -0.34965629D-16  0.41601274D-04  0.20510491D-16 -0.22818381D-16
 -0.62401910D-04 -0.70102031D-16  0.12771527D-15 -0.62401910D-04 -0.62358087D-17
  0.39160155D-05  0.73665021D-05  0.12751778D-04  0.20902604D-04  0.32744335D-04
  0.49217524D-04  0.70344204D-04  0.93383680D-04  0.10875798D-03  0.99893152D-04
  0.58411454D-04  0.15327458D-04  0.83794614D-06 -0.29991726D-07  0.83817409D-08
 -0.24888217D-08  0.42430101D-09  0.34617127D-10  0.32225183D-03  0.59207647D-03
  0.10238367D-02  0.16766756D-02  0.26398504D-02  0.39864328D-02  0.58189745D-02
  0.80130814D-02  0.10238573D-01  0.11161244D-01  0.91874224D-02  0.25191288D-02
 -0.50812462D-02 -0.49518964D-02 -0.10836144D-02 -0.36505972D-04 -0.12367057D-05
  0.31460198D-08  0.19487647D-04  0.38203593D-04  0.66912647D-04  0.10931349D-03
  0.17241371D-03  0.26016458D-03  0.38145297D-03  0.52665893D-03  0.68281591D-03
  0.75933148D-03  0.65952613D-03  0.19158055D-03 -0.48297223D-03 -0.70372457D-03
 -0.12114870D-03  0.29555096D-03  0.14067480D-03 -0.67936159D-06 -0.53879990D-05
 -0.11674493D-04 -0.19873972D-04 -0.32439675D-04 -0.51137964D-04 -0.77181958D-04
 -0.11316133D-03 -0.15643750D-03 -0.20304018D-03 -0.22683139D-03 -0.19814236D-03
 -0.58689959D-04  0.15256018D-03  0.23468912D-03  0.41077763D-04 -0.12957753D-03
 -0.10999173D-03  0.41036931D-04 -0.27462478D-03  0.43070960D-03  0.15951974D-04
  0.31554793D-10  0.45275542D-10  0.59947224D-10  0.69222059D-10  0.64172033D-10
  0.41546144D-10  0.14664263D-10  0.17187781D-11  0.24987852D-13  0.36591928D-14
  0.37622185D-16 -0.28154032D-10 -0.40396051D-10 -0.53486519D-10 -0.61761775D-10
 -0.57256006D-10 -0.37068582D-10 -0.13083848D-10 -0.15335398D-11 -0.22294831D-13
 -0.32648298D-14 -0.33567521D-16 -0.52019420D+02 -0.74638658D+02 -0.98825552D+02
 -0.11411551D+03 -0.10579033D+03 -0.68490588D+02 -0.24174662D+02 -0.28334789D+01
 -0.41193538D-01 -0.60323352D-02 -0.62021774D-04 -0.73106375D-15 -0.10552989D-14
 -0.14098541D-14 -0.16749500D-14 -0.16231549D-14 -0.11282997D-14 -0.36713790D-15
  0.16524119D-15  0.17851562D-15  0.45958299D-16 -0.44828077D-19  0.15491729D-14
  0.22362489D-14  0.29875751D-14  0.35493309D-14  0.34395737D-14  0.23909425D-14
  0.77798974D-15 -0.35015712D-15 -0.37828652D-15 -0.97388706D-16  0.94993690D-19
  0.27536063D-01  0.39748623D-01  0.53103210D-01  0.63088243D-01  0.61137343D-01
  0.42498252D-01  0.13828524D-01 -0.62239330D-02 -0.67239242D-02 -0.17310537D-02
  0.16884830D-05  0.65767385D-14  0.95562928D-14  0.12705202D-13  0.15245363D-13
  0.14749956D-13  0.10470751D-13  0.32543359D-14 -0.18684344D-14 -0.21464163D-14
 -0.56999971D-15  0.20565767D-15 -0.59393458D-14 -0.86301330D-14 -0.11473862D-13
 -0.13767840D-13 -0.13320446D-13 -0.94559657D-14 -0.29389379D-14  0.16873528D-14
  0.19383937D-14  0.51475749D-15 -0.18572611D-15 -0.28061765D-01 -0.40774990D-01
 -0.54210822D-01 -0.65049234D-01 -0.62935421D-01 -0.44676821D-01 -0.13885668D-01
  0.79722748D-02  0.91583740D-02  0.24320867D-02 -0.87750447D-03 -0.98642699D-15
  0.93880778D-15  0.22486550D-02 -0.13539839D-16  0.31322499D-16 -0.58482426D-04
  0.20636646D-17 -0.27371232D-17 -0.34467872D-05 -0.45210005D-02 -0.47307398D-02
 -0.40308436D-02 -0.26546152D-02 -0.12234331D-02 -0.36635903D-03 -0.62332882D-04
 -0.45210005D-02 -0.47307398D-02 -0.40308436D-02 -0.26546152D-02 -0.12234331D-02
 -0.36635903D-03 -0.62332882D-04  0.90420009D-02  0.94614797D-02  0.80616871D-02
  0.53092304D-02  0.24468662D-02  0.73271805D-03  0.12466576D-03 -0.21422245D-15
 -0.22416071D-15 -0.19099692D-15 -0.12578591D-15 -0.57970982D-16 -0.17359504D-16
 -0.29535725D-17 -0.66361610D-14 -0.69440274D-14 -0.59166830D-14 -0.38965831D-14
 -0.17958191D-14 -0.53776094D-15 -0.91495466D-16  0.85961130D-14  0.89949060D-14
  0.76641414D-14  0.50474165D-14  0.23262040D-14  0.69658555D-15  0.11851813D-15
  0.10276778D-03  0.10276778D-03 -0.20553557D-03  0.64628564D-17  0.66190882D-16
 -0.54066143D-16 -0.11647253D-03 -0.11647253D-03  0.23294507D-03 -0.67567344D-18
 -0.72268820D-16  0.71537941D-17 -0.28777547D-05 -0.28777547D-05  0.57555094D-05
  0.20473637D-18 -0.53026401D-17 -0.83317773D-19  0.31236879D-17  0.12908069D-16
 -0.33476951D-04  0.33127739D-17  0.13014644D-16  0.50215426D-04 -0.12683838D-16
 -0.51738850D-16  0.50215426D-04  0.14914165D-16 -0.91065567D-17 -0.15765602D-17
 -0.35861102D-04 -0.91628799D-17 -0.16488497D-17  0.53791653D-04  0.36482550D-16
  0.63785302D-17  0.53791653D-04 -0.42715640D-17
MO    4     MO 0.0        OCC NO =    2.0000000  ORB. ENERGY =  -55.803154
  0.17252577D-15  0.32159550D-15  0.54518344D-15  0.82556841D-15  0.10323762D-14
  0.88877973D-15  0.34167938D-15 -0.14805527D-17 -0.33246854D-16 -0.62431704D-16
 -0.10631042D-15 -0.16653465D-15 -0.22317602D-15 -0.24005590D-15 -0.14412925D-15
  0.94785459D-16  0.57428353D-17  0.63747571D-16  0.22310960D-15 -0.28315084D-04
 -0.27691534D-04 -0.18296967D-04 -0.25593945D-04 -0.25030319D-04 -0.16538590D-04
  0.97978735D-15  0.95821063D-15  0.63313028D-15  0.28127312D-04  0.25424218D-04
 -0.37545671D-15 -0.35633062D-04 -0.32208650D-04  0.22882297D-15  0.98930192D-06
  0.89422793D-06  0.26496983D-16 -0.26425516D-14  0.23903167D-14  0.25223488D-15
 -0.25335391D-15 -0.42568184D-04 -0.38477292D-04  0.23974472D-15 -0.95207527D-16
 -0.14453719D-15 -0.85849473D-15  0.18997851D-04  0.17172118D-04 -0.51169979D-16
 -0.14157761D-16  0.65327740D-16  0.54751133D-16 -0.44907889D-04 -0.40592146D-04
 -0.44445356D-04 -0.40174064D-04  0.44991688D-16 -0.44445361D-04 -0.40174068D-04
  0.33626505D-15  0.17778143D-03  0.16069626D-03 -0.47124011D-15  0.58318692D-15
  0.18671248D-04  0.16876902D-04  0.37307543D-16  0.18671248D-04  0.16876902D-04
 -0.11208335D-15 -0.74684994D-04 -0.67507608D-04  0.16072136D-18 -0.17145860D-15
  0.26854699D-16  0.50516960D-16  0.87447347D-16  0.14334293D-15  0.22454948D-15
  0.33751700D-15  0.48239657D-15  0.64039344D-15  0.74582514D-15  0.68503317D-15
  0.40056584D-15  0.10511048D-15  0.57463489D-17 -0.20567303D-18  0.57479121D-19
 -0.17067491D-19  0.29097117D-20  0.23739245D-21  0.45347257D-16  0.83316962D-16
  0.14407423D-15  0.23594169D-15  0.37147958D-15  0.56097056D-15  0.81884571D-15
  0.11276003D-14  0.14407713D-14  0.15706095D-14  0.12928535D-14  0.35449164D-15
 -0.71503263D-15 -0.69683053D-15 -0.15248615D-15 -0.51371180D-17 -0.17402914D-18
  0.44270770D-21  0.10319257D-15  0.20229877D-15  0.35432128D-15  0.57884567D-15
  0.91297905D-15  0.13776446D-14  0.20199007D-14  0.27888071D-14  0.36157022D-14
  0.40208737D-14  0.34923763D-14  0.10144729D-14 -0.25574738D-14 -0.37264195D-14
 -0.64151644D-15  0.15650254D-14  0.74491264D-15 -0.35974106D-17 -0.15058183D-16
 -0.32627446D-16 -0.55543053D-16 -0.90661220D-16 -0.14291852D-15 -0.21570532D-15
 -0.31625915D-15 -0.43720583D-15 -0.56744930D-15 -0.63394010D-15 -0.55376103D-15
 -0.16402456D-15  0.42636962D-15  0.65590060D-15  0.11480263D-15 -0.36213856D-15
 -0.30740087D-15  0.11468852D-15 -0.11096966D-15 -0.24372306D-15 -0.34579693D-16
  0.38586222D+02  0.55364397D+02  0.73305405D+02  0.84646974D+02  0.78471639D+02
  0.50803969D+02  0.17931935D+02  0.21017775D+01  0.30555954D-01  0.44745794D-02
  0.46005625D-04  0.34878005D+02  0.50043762D+02  0.66260601D+02  0.76512221D+02
  0.70930349D+02  0.45921601D+02  0.16208639D+02  0.18997922D+01  0.27619463D-01
  0.40445629D-02  0.41584387D-04  0.45398983D-11  0.65139502D-11  0.86248164D-11
  0.99592193D-11  0.92326544D-11  0.59773888D-11  0.21097987D-11  0.24728660D-12
  0.35950895D-14  0.52646084D-15  0.54128350D-17 -0.12861110D-02 -0.18565160D-02
 -0.24802611D-02 -0.29466262D-02 -0.28555067D-02 -0.19849414D-02 -0.64588089D-03
  0.29069766D-03  0.31405045D-03  0.80851328D-04 -0.78863005D-07 -0.11625130D-02
 -0.16781009D-02 -0.22419027D-02 -0.26634492D-02 -0.25810865D-02 -0.17941843D-02
 -0.58381037D-03  0.26276100D-03  0.28386954D-03  0.73081345D-04 -0.71284104D-07
 -0.11403413D-13 -0.16460958D-13 -0.21991446D-13 -0.26126512D-13 -0.25318593D-13
 -0.17599652D-13 -0.57267579D-14  0.25774955D-14  0.27845551D-14  0.71687518D-15
 -0.69924555D-18  0.80770779D-02  0.11736353D-01  0.15603617D-01  0.18723260D-01
  0.18114837D-01  0.12859425D-01  0.39967416D-02 -0.22946769D-02 -0.26360744D-02
 -0.70003271D-03  0.25257399D-03  0.73008537D-02  0.10608464D-01  0.14104076D-01
  0.16923915D-01  0.16373963D-01  0.11623607D-01  0.36126463D-02 -0.20741536D-02
 -0.23827421D-02 -0.63275810D-03  0.22830109D-03  0.24329170D-14  0.35351363D-14
  0.47000047D-14  0.56396803D-14  0.54564156D-14  0.38734198D-14  0.12038686D-14
 -0.69118541D-15 -0.79401860D-15 -0.21085862D-15  0.76078447D-16 -0.12432865D-02
 -0.11238041D-02 -0.55537208D-16 -0.34273735D-04 -0.30979957D-04  0.79003579D-16
  0.27340766D-05  0.24713261D-05  0.19456711D-17  0.19059986D-13  0.19944221D-13
  0.16993544D-13  0.11191533D-13  0.51578445D-14  0.15445249D-14  0.26278782D-15
  0.19231134D-13  0.20123310D-13  0.17146137D-13  0.11292027D-13  0.52041593D-14
  0.15583939D-14  0.26514751D-15 -0.38291120D-13 -0.40067531D-13 -0.34139681D-13
 -0.22483561D-13 -0.10362004D-13 -0.31029188D-14 -0.52793533D-15  0.92100085D-15
  0.96372815D-15  0.82114796D-15  0.54078801D-15  0.24923309D-15  0.74633254D-16
  0.12698215D-16 -0.98100767D-02 -0.10265188D-01 -0.87464899D-02 -0.57602248D-02