 Molden2AIM, Version 4.0.0 (06/02/2016)           Time: Tue Jun 26 17:40:36 2018
GAUSSIAN              1 MOL ORBITALS     82 PRIMITIVES        2 NUCLEI
  H    1    (CENTRE  1)   0.00000000  0.00000000  2.18259966  CHARGE =  1.0
  H    2    (CENTRE  2)   0.00000000  0.00000000  0.77274303  CHARGE =  1.0
CENTRE ASSIGNMENTS    1  1  1  1  1  1  1  1  1  1  1  1  1  1  1  1  1  1  1  1
CENTRE ASSIGNMENTS    1  1  1  1  1  1  1  1  1  1  1  1  1  1  1  1  1  1  1  1
CENTRE ASSIGNMENTS    1  2  2  2  2  2  2  2  2  2  2  2  2  2  2  2  2  2  2  2
CENTRE ASSIGNMENTS    2  2  2  2  2  2  2  2  2  2  2  2  2  2  2  2  2  2  2  2
CENTRE ASSIGNMENTS    2  2
TYPE ASSIGNMENTS      1  1  1  1  1  1  1  2  3  4  2  3  4  2  3  4  2  3  4  5
TYPE ASSIGNMENTS      6  7  8  9 10  5  6  7  8  9 10 11 12 13 17 14 15 18 19 16
TYPE ASSIGNMENTS     20  1  1  1  1  1  1  1  2  3  4  2  3  4  2  3  4  2  3  4
TYPE ASSIGNMENTS      5  6  7  8  9 10  5  6  7  8  9 10 11 12 13 17 14 15 18 19
TYPE ASSIGNMENTS     16 20
EXPONENTS  0.1906917D+03 0.2860553D+02 0.6509594D+01 0.1841246D+01 0.5985373D+00
EXPONENTS  0.2139762D+00 0.8031629D-01 0.2292000D+01 0.2292000D+01 0.2292000D+01
EXPONENTS  0.8380000D+00 0.8380000D+00 0.8380000D+00 0.2920000D+00 0.2920000D+00
EXPONENTS  0.2920000D+00 0.8406320D-01 0.8406320D-01 0.8406320D-01 0.2062000D+01
EXPONENTS  0.2062000D+01 0.2062000D+01 0.2062000D+01 0.2062000D+01 0.2062000D+01
EXPONENTS  0.6620000D+00 0.6620000D+00 0.6620000D+00 0.6620000D+00 0.6620000D+00
EXPONENTS  0.6620000D+00 0.1397000D+01 0.1397000D+01 0.1397000D+01 0.1397000D+01
EXPONENTS  0.1397000D+01 0.1397000D+01 0.1397000D+01 0.1397000D+01 0.1397000D+01
EXPONENTS  0.1397000D+01 0.1906917D+03 0.2860553D+02 0.6509594D+01 0.1841246D+01
EXPONENTS  0.5985373D+00 0.2139762D+00 0.8031629D-01 0.2292000D+01 0.2292000D+01
EXPONENTS  0.2292000D+01 0.8380000D+00 0.8380000D+00 0.8380000D+00 0.2920000D+00
EXPONENTS  0.2920000D+00 0.2920000D+00 0.8406320D-01 0.8406320D-01 0.8406320D-01
EXPONENTS  0.2062000D+01 0.2062000D+01 0.2062000D+01 0.2062000D+01 0.2062000D+01
EXPONENTS  0.2062000D+01 0.6620000D+00 0.6620000D+00 0.6620000D+00 0.6620000D+00
EXPONENTS  0.6620000D+00 0.6620000D+00 0.1397000D+01 0.1397000D+01 0.1397000D+01
EXPONENTS  0.1397000D+01 0.1397000D+01 0.1397000D+01 0.1397000D+01 0.1397000D+01
EXPONENTS  0.1397000D+01 0.1397000D+01
MO    1     MO 0.0        OCC NO =    2.0000000  ORB. ENERGY =   -0.380610
  0.22208041D-01  0.41332516D-01  0.69653080D-01  0.10398347D+00  0.10033174D+00
  0.48293261D-01  0.89200758D-02 -0.71555999D-17  0.53353854D-17 -0.21378323D-01
 -0.12532170D-16  0.43130472D-17 -0.10297121D-01 -0.87556239D-17 -0.10764431D-16
 -0.26644747D-02 -0.79776941D-18  0.31672209D-17 -0.13859443D-03 -0.32480277D-02
 -0.32480277D-02  0.64960555D-02 -0.23838731D-16  0.87981324D-17 -0.38273055D-17
  0.16521617D-03  0.16521617D-03 -0.33043234D-03 -0.11455934D-16  0.23883778D-16
  0.19854570D-16 -0.33433858D-17 -0.39011077D-17  0.17266648D-02  0.68509907D-17
  0.86864074D-19 -0.25899972D-02  0.31791668D-17  0.11616459D-16 -0.25899972D-02
 -0.15268130D-17  0.22208041D-01  0.41332516D-01  0.69653080D-01  0.10398347D+00
  0.10033174D+00  0.48293261D-01  0.89200758D-02 -0.63387804D-17  0.65946415D-17
  0.21378323D-01  0.10535901D-16 -0.33098268D-17  0.10297121D-01  0.63347828D-17
  0.13244811D-16  0.26644747D-02  0.46999271D-18 -0.40344300D-17  0.13859443D-03
 -0.32480277D-02 -0.32480277D-02  0.64960555D-02 -0.63631702D-17  0.95023293D-18
 -0.15753040D-16  0.16521617D-03  0.16521617D-03 -0.33043234D-03 -0.52663084D-17
  0.27307672D-16  0.23133952D-16 -0.11215969D-16 -0.97850187D-17 -0.17266648D-02
 -0.50194685D-17 -0.21685467D-16  0.25899972D-02  0.38667376D-16  0.51040523D-16
  0.25899972D-02 -0.15268230D-17
END DATA
RHF
