 Molden2AIM, Version 4.0.0 (06/02/2016)           Time: Tue Jun 26 17:36:03 2018
GAUSSIAN             10 MOL ORBITALS    186 PRIMITIVES        2 NUCLEI
  Li   1    (CENTRE  1)   0.00000000  0.00000000  3.38620969  CHARGE =  3.0
  Cl   2    (CENTRE  2)   0.00000000  0.00000000 -0.43086701  CHARGE = 17.0
CENTRE ASSIGNMENTS    1  1  1  1  1  1  1  1  1  1  1  1  1  1  1  1  1  1  1  1
CENTRE ASSIGNMENTS    1  1  1  1  1  1  1  1  1  1  1  1  1  1  1  1  1  1  1  1
CENTRE ASSIGNMENTS    1  1  1  1  1  1  1  1  1  1  1  1  1  1  1  2  2  2  2  2
CENTRE ASSIGNMENTS    2  2  2  2  2  2  2  2  2  2  2  2  2  2  2  2  2  2  2  2
CENTRE ASSIGNMENTS    2  2  2  2  2  2  2  2  2  2  2  2  2  2  2  2  2  2  2  2
CENTRE ASSIGNMENTS    2  2  2  2  2  2  2  2  2  2  2  2  2  2  2  2  2  2  2  2
CENTRE ASSIGNMENTS    2  2  2  2  2  2  2  2  2  2  2  2  2  2  2  2  2  2  2  2
CENTRE ASSIGNMENTS    2  2  2  2  2  2  2  2  2  2  2  2  2  2  2  2  2  2  2  2
CENTRE ASSIGNMENTS    2  2  2  2  2  2  2  2  2  2  2  2  2  2  2  2  2  2  2  2
CENTRE ASSIGNMENTS    2  2  2  2  2  2
TYPE ASSIGNMENTS      1  1  1  1  1  1  1  1  1  1  1  1  1  1  1  2  2  2  3  3
TYPE ASSIGNMENTS      3  4  4  4  2  3  4  2  3  4  2  3  4  5  6  7  8  9 10  5
TYPE ASSIGNMENTS      6  7  8  9 10 11 12 13 17 14 15 18 19 16 20  1  1  1  1  1
TYPE ASSIGNMENTS      1  1  1  1  1  1  1  1  1  1  1  1  1  1  1  1  2  2  2  2
TYPE ASSIGNMENTS      2  2  2  2  3  3  3  3  3  3  3  3  4  4  4  4  4  4  4  4
TYPE ASSIGNMENTS      2  2  3  3  4  4  2  3  4  2  3  4  2  3  4  2  3  4  2  3
TYPE ASSIGNMENTS      4  5  6  7  8  9 10  5  6  7  8  9 10  5  6  7  8  9 10  5
TYPE ASSIGNMENTS      6  7  8  9 10  5  6  7  8  9 10 11 12 13 17 14 15 18 19 16
TYPE ASSIGNMENTS     20 11 12 13 17 14 15 18 19 16 20 21 22 23 24 25 26 27 28 29
TYPE ASSIGNMENTS     30 31 32 33 34 35
EXPONENTS  0.1485398D+05 0.2225224D+04 0.5048874D+03 0.1424585D+03 0.4631560D+02
EXPONENTS  0.1665534D+02 0.6433119D+01 0.2602704D+01 0.1089725D+01 0.4423660D+01
EXPONENTS  0.1235639D+01 0.4606747D+00 0.9661717D-01 0.4591545D-01 0.2114005D-01
EXPONENTS  0.3260511D+01 0.6500304D+00 0.1694167D+00 0.3260511D+01 0.6500304D+00
EXPONENTS  0.1694167D+00 0.3260511D+01 0.6500304D+00 0.1694167D+00 0.5573234D-01
EXPONENTS  0.5573234D-01 0.5573234D-01 0.2048996D-01 0.2048996D-01 0.2048996D-01
EXPONENTS  0.3327000D+01 0.3327000D+01 0.3327000D+01 0.2300000D+00 0.2300000D+00
EXPONENTS  0.2300000D+00 0.2300000D+00 0.2300000D+00 0.2300000D+00 0.7570000D-01
EXPONENTS  0.7570000D-01 0.7570000D-01 0.7570000D-01 0.7570000D-01 0.7570000D-01
EXPONENTS  0.1350000D+00 0.1350000D+00 0.1350000D+00 0.1350000D+00 0.1350000D+00
EXPONENTS  0.1350000D+00 0.1350000D+00 0.1350000D+00 0.1350000D+00 0.1350000D+00
EXPONENTS  0.1467459D+07 0.2197562D+06 0.5001077D+05 0.1416482D+05 0.4620747D+04
EXPONENTS  0.1667899D+04 0.6502920D+03 0.2693804D+03 0.1170675D+03 0.5281177D+02
EXPONENTS  0.4614277D+03 0.1421267D+03 0.5443784D+02 0.2416077D+02 0.9708354D+01
EXPONENTS  0.4564070D+01 0.2119474D+01 0.7572237D+00 0.3374722D+00 0.1386078D+00
EXPONENTS  0.5423457D-01 0.2501946D+04 0.5928806D+03 0.1921809D+03 0.7287571D+02
EXPONENTS  0.3043636D+02 0.1349018D+02 0.6147807D+01 0.2845094D+01 0.2501946D+04
EXPONENTS  0.5928806D+03 0.1921809D+03 0.7287571D+02 0.3043636D+02 0.1349018D+02
EXPONENTS  0.6147807D+01 0.2845094D+01 0.2501946D+04 0.5928806D+03 0.1921809D+03
EXPONENTS  0.7287571D+02 0.3043636D+02 0.1349018D+02 0.6147807D+01 0.2845094D+01
EXPONENTS  0.1053940D+03 0.6736974D+01 0.1053940D+03 0.6736974D+01 0.1053940D+03
EXPONENTS  0.6736974D+01 0.1242110D+01 0.1242110D+01 0.1242110D+01 0.5566971D+00
EXPONENTS  0.5566971D+00 0.5566971D+00 0.2338780D+00 0.2338780D+00 0.2338780D+00
EXPONENTS  0.9316449D-01 0.9316449D-01 0.9316449D-01 0.2725615D-01 0.2725615D-01
EXPONENTS  0.2725615D-01 0.5191000D+01 0.5191000D+01 0.5191000D+01 0.5191000D+01
EXPONENTS  0.5191000D+01 0.5191000D+01 0.1276000D+01 0.1276000D+01 0.1276000D+01
EXPONENTS  0.1276000D+01 0.1276000D+01 0.1276000D+01 0.5830000D+00 0.5830000D+00
EXPONENTS  0.5830000D+00 0.5830000D+00 0.5830000D+00 0.5830000D+00 0.2430000D+00
EXPONENTS  0.2430000D+00 0.2430000D+00 0.2430000D+00 0.2430000D+00 0.2430000D+00
EXPONENTS  0.8345654D-01 0.8345654D-01 0.8345654D-01 0.8345654D-01 0.8345654D-01
EXPONENTS  0.8345654D-01 0.4230000D+00 0.4230000D+00 0.4230000D+00 0.4230000D+00
EXPONENTS  0.4230000D+00 0.4230000D+00 0.4230000D+00 0.4230000D+00 0.4230000D+00
EXPONENTS  0.4230000D+00 0.1089000D+01 0.1089000D+01 0.1089000D+01 0.1089000D+01
EXPONENTS  0.1089000D+01 0.1089000D+01 0.1089000D+01 0.1089000D+01 0.1089000D+01
EXPONENTS  0.1089000D+01 0.8270000D+00 0.8270000D+00 0.8270000D+00 0.8270000D+00
EXPONENTS  0.8270000D+00 0.8270000D+00 0.8270000D+00 0.8270000D+00 0.8270000D+00
EXPONENTS  0.8270000D+00 0.8270000D+00 0.8270000D+00 0.8270000D+00 0.8270000D+00
EXPONENTS  0.8270000D+00
MO    1     MO 0.0        OCC NO =    2.0000000  ORB. ENERGY = -100.570964
 -0.96782494D-07 -0.18134311D-06 -0.31424060D-06 -0.51026359D-06 -0.77439683D-06
 -0.10645484D-05 -0.12432835D-05 -0.11269254D-05 -0.66460771D-06  0.10876411D-05
  0.30057027D-05  0.68320979D-06  0.35883103D-05  0.30791018D-05 -0.60315815D-06
 -0.43354298D-16 -0.31789818D-16 -0.26110986D-16 -0.31067915D-16 -0.22780749D-16
 -0.18711268D-16 -0.48753400D-06 -0.35748745D-06 -0.29362702D-06  0.19593544D-17
  0.63025134D-17 -0.14007833D-05 -0.14642055D-17 -0.24368846D-17  0.12306453D-06
  0.27792229D-15 -0.22960460D-15 -0.35959915D-05  0.80449788D-06  0.80449788D-06
 -0.16089958D-05  0.89013341D-17 -0.16388333D-17 -0.11936172D-16 -0.73399216D-07
 -0.73399216D-07  0.14679843D-06 -0.26321658D-17  0.20440924D-17  0.37300550D-17
  0.44178253D-18 -0.28829648D-18  0.17361374D-06 -0.46767351D-18  0.11000268D-17
 -0.26042061D-06 -0.85767407D-18 -0.23513742D-18 -0.26042061D-06  0.14477893D-17
  0.34520950D+00  0.64605564D+00  0.11190654D+01  0.18303384D+01  0.28551957D+01
  0.42359663D+01  0.58751720D+01  0.72715824D+01  0.73588877D+01  0.50793916D+01
 -0.82088233D-02 -0.31058041D-01 -0.58590983D-01  0.17507234D+01  0.12123697D+00
 -0.95384775D-02  0.19385549D-02 -0.38007865D-03  0.13620699D-03 -0.32674438D-04
  0.16407292D-06  0.45805830D-15  0.65852569D-15  0.87353476D-15  0.10221550D-14
  0.10074549D-14  0.75901127D-15  0.39639505D-15  0.11391758D-15 -0.42426017D-15
 -0.60993595D-15 -0.80908044D-15 -0.94673466D-15 -0.93311918D-15 -0.70300714D-15
 -0.36714679D-15 -0.10551210D-15  0.43931216D-03  0.63157538D-03  0.83778515D-03
  0.98032311D-03  0.96622457D-03  0.72794857D-03  0.38017250D-03  0.10925548D-03
  0.47303700D-15 -0.28386113D-15 -0.10436127D-14  0.62625348D-15  0.12824174D-02
 -0.76955598D-03 -0.50135266D-16  0.35318737D-16 -0.34275935D-04 -0.27396753D-16
  0.30344785D-16  0.49044654D-05 -0.25679167D-16  0.12972282D-16  0.47331414D-05
  0.15367912D-16  0.19145553D-18 -0.39387883D-05 -0.70596098D-18  0.32926011D-17
 -0.14597835D-07 -0.11884708D-04 -0.11884708D-04  0.23769416D-04  0.78143687D-16
  0.16791886D-15  0.28812206D-17  0.42736728D-05  0.42736728D-05 -0.85473456D-05
  0.23641647D-16 -0.24966717D-16  0.63806704D-16 -0.22732244D-05 -0.22732244D-05
  0.45464488D-05  0.58849589D-17 -0.37023923D-17  0.15357517D-16  0.28625514D-06
  0.28625514D-06 -0.57251028D-06  0.37604542D-17  0.28274235D-17  0.30142592D-17
  0.11054295D-06  0.11054295D-06 -0.22108590D-06  0.10071170D-17  0.30355050D-17
  0.30049386D-17 -0.36965265D-18  0.37153213D-18 -0.12675261D-06 -0.68624275D-18
  0.49211026D-18  0.19012891D-06  0.17952007D-17 -0.16067066D-17  0.19012891D-06
  0.18072652D-17 -0.20304194D-17  0.14150162D-17  0.11719311D-05 -0.20371364D-17
  0.15298151D-17 -0.17578966D-05  0.81283947D-17 -0.57748636D-17 -0.17578966D-05
 -0.62754250D-17  0.39971817D-07  0.39971817D-07  0.10658774D-06 -0.57349292D-20
  0.17815206D-17 -0.59673342D-20  0.14762090D-17 -0.23002844D-17 -0.19805803D-17
  0.79932307D-07 -0.31976321D-06 -0.31976321D-06  0.15131138D-17  0.15562915D-17
  0.35106790D-19
MO    2     MO 0.0        OCC NO =    2.0000000  ORB. ENERGY =   -9.082441
 -0.17610391D-05 -0.32996908D-05 -0.57178728D-05 -0.92846764D-05 -0.14090803D-04
 -0.19370357D-04 -0.22622592D-04 -0.20505357D-04 -0.12093098D-04  0.25100086D-04
  0.69364240D-04  0.19287996D-04  0.94426341D-04  0.10995258D-03 -0.20180579D-04
  0.40331757D-17  0.29573520D-17  0.24290601D-17 -0.40830142D-16 -0.29938965D-16
 -0.24590763D-16  0.12845771D-04  0.94192443D-05  0.77366204D-05  0.68468518D-17
  0.20274029D-17 -0.45513225D-04  0.39677896D-18  0.21162416D-17  0.39567573D-05
 -0.51215616D-16  0.19153072D-16 -0.11392861D-03  0.27388529D-04  0.27388529D-04
 -0.54777058D-04 -0.26439010D-17  0.10784003D-16 -0.10936222D-16 -0.21475049D-05
 -0.21475049D-05  0.42950099D-05  0.95186667D-19 -0.24178322D-17  0.25257523D-17
  0.40129847D-18 -0.10199334D-18  0.54360575D-05 -0.24400668D-18 -0.45445644D-18
 -0.81540862D-05 -0.95988873D-18  0.76043646D-18 -0.81540862D-05 -0.10831204D-17
  0.97654127D-01  0.18275859D+00  0.31656530D+00  0.51777282D+00  0.80768822D+00
  0.11982857D+01  0.16619902D+01  0.20570118D+01  0.20817091D+01  0.14368769D+01
  0.14253211D+00  0.53926953D+00  0.10173318D+01  0.11127610D+01 -0.71988161D+00
 -0.12279208D+01 -0.48538553D+00 -0.30735392D-01  0.49749675D-02 -0.10203583D-02
 -0.63879506D-05  0.23767972D-15  0.34169931D-15  0.45326436D-15  0.53038123D-15
  0.52275355D-15  0.39383980D-15  0.20568357D-15  0.59110160D-16  0.22193297D-16
  0.31906104D-16  0.42323468D-16  0.49524241D-16  0.48812007D-16  0.36774713D-16
  0.19205662D-16  0.55193993D-17 -0.10007555D-01 -0.14387321D-01 -0.19084791D-01
 -0.22331813D-01 -0.22010648D-01 -0.16582708D-01 -0.86603500D-02 -0.24888457D-02
  0.12151848D-15 -0.72921087D-16 -0.16797897D-15  0.10080121D-15  0.16075784D-02
 -0.96467935D-03  0.13280404D-16 -0.23543834D-16 -0.18707893D-03  0.32413616D-16
  0.24517083D-17 -0.19592853D-03 -0.16847201D-17 -0.14941061D-16  0.23056904D-03
 -0.90897551D-17  0.15575920D-16 -0.13043894D-03 -0.13820782D-17 -0.77433398D-18
 -0.92469513D-06  0.16562273D-03  0.16562273D-03 -0.33124547D-03 -0.81019424D-16
 -0.90917078D-16 -0.69021090D-16  0.14536158D-03  0.14536158D-03 -0.29072316D-03
 -0.47508122D-17  0.83494859D-17 -0.19707889D-16 -0.43278535D-04 -0.43278535D-04
  0.86557069D-04  0.22788275D-17 -0.11750218D-16 -0.15752163D-16  0.72194943D-06
  0.72194943D-06 -0.14438989D-05 -0.26684152D-17  0.11265616D-16  0.28787424D-18
  0.38617107D-05  0.38617107D-05 -0.77234214D-05 -0.23373719D-18 -0.41732599D-17
  0.69503085D-18  0.63106979D-18 -0.13692723D-17  0.28431696D-05 -0.13405200D-18
 -0.88653642D-18 -0.42647544D-05 -0.17591574D-17  0.49943533D-17 -0.42647544D-05
 -0.17923587D-17 -0.11455086D-17 -0.28944812D-17 -0.25882316D-04 -0.63902824D-18
 -0.18340835D-17  0.38823475D-04  0.40755540D-17  0.10517527D-16  0.38823475D-04
  0.27581562D-17  0.39586281D-06  0.39586281D-06  0.10510055D-05  0.64962008D-19
 -0.23601813D-17  0.16655807D-18  0.42021095D-17  0.31377990D-17 -0.56419936D-17
  0.77783953D-06 -0.31530164D-05 -0.31530164D-05  0.43196525D-17 -0.23328532D-17
 -0.69456024D-18
MO    3     MO 0.0        OCC NO =    2.0000000  ORB. ENERGY =   -6.899773
 -0.25730561D-05 -0.48211817D-05 -0.83543900D-05 -0.13565850D-04 -0.20588088D-04
 -0.28302049D-04 -0.33053894D-04 -0.29960399D-04 -0.17669238D-04  0.39770303D-04
  0.10990548D-03 -0.35124165D-04 -0.48860196D-04  0.10630972D-03 -0.44594308D-05
 -0.28903558D-16 -0.21193720D-16 -0.17407741D-16 -0.35003998D-16 -0.25666907D-16
 -0.21081852D-16  0.17208341D-03  0.12618127D-03  0.10364065D-03 -0.33079843D-17
  0.12999813D-16 -0.17601321D-04  0.13080491D-18  0.14301130D-17  0.30649840D-06
  0.27707878D-15  0.18674177D-15 -0.40646004D-03  0.28647853D-04  0.28647853D-04
 -0.57295707D-04 -0.23382604D-17 -0.10008215D-16  0.31334392D-16  0.12862844D-05
  0.12862844D-05 -0.25725688D-05 -0.34098973D-18  0.40191014D-17 -0.81415587D-17
  0.27115501D-18 -0.39075064D-18  0.32411721D-05 -0.65689223D-18  0.77125466D-18
 -0.48617581D-05 -0.15657281D-18  0.40099725D-18 -0.48617581D-05  0.99881344D-18
 -0.16101994D-03 -0.30134698D-03 -0.52197820D-03 -0.85374526D-03 -0.13317810D-02
 -0.19758293D-02 -0.27404224D-02 -0.33917657D-02 -0.34324885D-02 -0.23692376D-02
 -0.23497626D-03 -0.88903150D-03 -0.16771576D-02 -0.19478971D-02  0.12381481D-02
  0.19561462D-02  0.98718503D-03  0.73752531D-04 -0.17319987D-03  0.31077320D-03
 -0.16310031D-03  0.34185527D-11  0.49146687D-11  0.65193112D-11  0.76284849D-11
  0.75187757D-11  0.56646065D-11  0.29583513D-11  0.85018272D-12 -0.31639122D-11
 -0.45485858D-11 -0.60337021D-11 -0.70602559D-11 -0.69587187D-11 -0.52426625D-11
 -0.27379903D-11 -0.78685449D-12 -0.61526394D+01 -0.88453175D+01 -0.11733319D+02
 -0.13729587D+02 -0.13532135D+02 -0.10195040D+02 -0.53243786D+01 -0.15301410D+01
  0.13800744D-12 -0.82815823D-13 -0.12745566D-12  0.76483885D-13 -0.24807436D+00
  0.14886503D+00  0.77775518D-13 -0.72028742D-13 -0.13976957D+00  0.85729238D-15
 -0.76875007D-15 -0.19719016D-02 -0.89916125D-16  0.54314478D-16  0.48154461D-03
  0.23266780D-16 -0.42966664D-17 -0.95134966D-04 -0.43707759D-18 -0.31079868D-17
 -0.43033880D-05  0.29565438D-02  0.29565438D-02 -0.59130877D-02  0.42331520D-16
  0.49373954D-14 -0.45590909D-14  0.86510336D-04  0.86510336D-04 -0.17302067D-03
  0.34525837D-17  0.14953921D-15 -0.85706236D-16  0.63127779D-04  0.63127779D-04
 -0.12625556D-03  0.19964556D-17  0.22308954D-16 -0.42731486D-16 -0.37758126D-04
 -0.37758126D-04  0.75516253D-04  0.15081819D-17 -0.33076790D-17  0.19963035D-16
  0.42972254D-05  0.42972254D-05 -0.85944508D-05  0.32703302D-18  0.22230857D-17
 -0.62739258D-17 -0.29624664D-18 -0.19678623D-17  0.30394385D-04 -0.10757988D-17
 -0.17240548D-17 -0.45591577D-04  0.19645387D-17  0.76276418D-17 -0.45591577D-04
 -0.13999304D-17 -0.25873014D-16  0.29406081D-16 -0.19735573D-03 -0.25179352D-16
  0.29205056D-16  0.29603360D-03  0.10279839D-15 -0.11742330D-15  0.29603360D-03
 -0.33030899D-17  0.27219447D-06  0.27219447D-06  0.72181506D-06  0.26299095D-19
 -0.10242588D-16  0.59822060D-19  0.30476794D-17  0.13708720D-16 -0.42132484D-17
  0.53227837D-06 -0.21654452D-05 -0.21654452D-05  0.34967069D-17 -0.10398396D-16
 -0.25836347D-18
MO    4     MO 0.0        OCC NO =    2.0000000  ORB. ENERGY =   -6.899161
 -0.14519843D-17 -0.27206092D-17 -0.47144106D-17 -0.76552555D-17 -0.11617928D-16
 -0.15970942D-16 -0.18652424D-16 -0.16906755D-16 -0.99708110D-17  0.17164407D-16
  0.47433942D-16 -0.87658527D-17  0.11610421D-15  0.27663556D-16  0.80389615D-17
 -0.69473645D-05 -0.50941997D-05 -0.41841881D-05 -0.15902796D-05 -0.11660827D-05
 -0.95777741D-06  0.69729732D-16  0.51129774D-16  0.41996114D-16  0.85533149D-05
  0.19578880D-05 -0.10341806D-16 -0.73329833D-06 -0.16785492D-06  0.43640779D-18
  0.24898492D-04  0.56993645D-05 -0.13119101D-15  0.23107767D-16  0.25609230D-16
 -0.48716997D-16  0.68083235D-18  0.17715374D-04  0.40551200D-05  0.46625392D-17
  0.35304238D-17 -0.81929631D-17 -0.11908959D-17 -0.40213575D-05 -0.92050483D-06
  0.39956947D-06  0.91463052D-07  0.83622435D-17  0.39958486D-06  0.91466576D-07
  0.32922776D-17 -0.15982933D-05 -0.36585573D-06 -0.28379008D-16 -0.14182622D-17
 -0.66387521D-16 -0.12424349D-15 -0.21520837D-15 -0.35199387D-15 -0.54908502D-15
 -0.81462215D-15 -0.11298591D-14 -0.13984039D-14 -0.14151937D-14 -0.97682195D-15
 -0.89979675D-16 -0.34043764D-15 -0.64223548D-15 -0.86611909D-15  0.67739999D-15
  0.59218027D-15  0.53766034D-15 -0.41004413D-16 -0.15397494D-16  0.27249508D-15
 -0.17328330D-15 -0.59977866D+01 -0.86226940D+01 -0.11438009D+02 -0.13384034D+02
 -0.13191551D+02 -0.99384459D+01 -0.51903719D+01 -0.14916296D+01 -0.13729174D+01
 -0.19737692D+01 -0.26182061D+01 -0.30636589D+01 -0.30195989D+01 -0.22749501D+01
 -0.11880969D+01 -0.34144000D+00 -0.26254978D-11 -0.37745365D-11 -0.50069252D-11
 -0.58587866D-11 -0.57745284D-11 -0.43504996D-11 -0.22720565D-11 -0.65295261D-12
 -0.24206509D+00  0.14525897D+00 -0.55409668D-01  0.33250361D-01 -0.10554677D-12
  0.63336745D-13 -0.13646745D+00 -0.31237945D-01 -0.59649469D-13 -0.15077156D-02
 -0.34512213D-03 -0.95914797D-15  0.18031319D-03  0.41274411D-04  0.35312725D-15
 -0.40621952D-04 -0.92985276D-05 -0.13656385D-15  0.11949216D-05  0.27352234D-06
 -0.32240564D-17  0.19883574D-14  0.49118322D-15 -0.24795406D-14  0.78417409D-16
 -0.88054168D-02 -0.20155952D-02 -0.11070778D-16  0.18244183D-15 -0.17137106D-15
 -0.46269724D-16 -0.22153613D-03 -0.50710508D-04  0.30815762D-16  0.39874442D-16
 -0.70690204D-16  0.59641207D-18 -0.72765811D-04 -0.16656386D-04 -0.20692792D-16
 -0.53819348D-17  0.26074727D-16 -0.44177443D-17  0.25753916D-04  0.58951745D-05
  0.44207258D-17  0.49649891D-17 -0.93857149D-17  0.65743370D-19 -0.52268212D-05
 -0.11964403D-05 -0.31169322D-05 -0.71347826D-06  0.14294908D-16 -0.31182482D-05
 -0.71377949D-06  0.74197538D-19  0.12469045D-04  0.28542143D-05 -0.42958923D-16
  0.36371959D-18  0.50269172D-04  0.11506815D-04 -0.84709097D-16  0.50268434D-04
  0.11506646D-04  0.67465937D-16 -0.20107595D-03 -0.46027090D-04  0.18666135D-15
  0.20471237D-16 -0.44686779D-16 -0.27154214D-16  0.85940406D-17  0.25632834D-18
  0.13319087D-04  0.12767803D-18  0.30487924D-05 -0.17750870D-04 -0.40632453D-05
  0.24130510D-15  0.26815572D-16 -0.78379816D-16  0.30433588D-05  0.13295350D-04
 -0.11520191D-17
MO    5     MO 0.0        OCC NO =    2.0000000  ORB. ENERGY =   -6.899161
 -0.20098925D-17 -0.37659719D-17 -0.65258685D-17 -0.10596699D-16 -0.16081983D-16
 -0.22107592D-16 -0.25819403D-16 -0.23402981D-16 -0.13801980D-16  0.25565755D-16
  0.70651119D-16 -0.26267643D-16 -0.53718936D-16  0.70771152D-16 -0.44008235D-17
 -0.15902796D-05 -0.11660827D-05 -0.95777741D-06  0.69473645D-05  0.50941997D-05
  0.41841881D-05  0.10861214D-15  0.79640554D-16  0.65413818D-16  0.19578880D-05
 -0.85533149D-05 -0.22743338D-16 -0.16785492D-06  0.73329833D-06 -0.23243982D-18
  0.56993645D-05 -0.24898492D-04 -0.24118463D-15  0.22507861D-16  0.15517998D-16
 -0.38025859D-16  0.19501530D-16  0.40551200D-05 -0.17715374D-04 -0.11875874D-17
 -0.35723240D-18  0.15448198D-17 -0.18852236D-17 -0.92050483D-06  0.40213575D-05
  0.91463052D-07 -0.39956947D-06  0.26680192D-17  0.91466576D-07 -0.39958486D-06
 -0.18404448D-18 -0.36585573D-06  0.15982933D-05 -0.78200132D-17  0.19677983D-17
 -0.10085506D-15 -0.18874910D-15 -0.32694178D-15 -0.53474453D-15 -0.83416286D-15
 -0.12375634D-14 -0.17164674D-14 -0.21244372D-14 -0.21499440D-14 -0.14839753D-14
 -0.15891870D-15 -0.60126808D-15 -0.11342920D-14 -0.10198543D-14  0.48270230D-15
  0.15245804D-14  0.47793341D-15  0.76094342D-16 -0.10264384D-15  0.13977740D-15
 -0.90195911D-16 -0.13729174D+01 -0.19737692D+01 -0.26182061D+01 -0.30636589D+01
 -0.30195989D+01 -0.22749501D+01 -0.11880969D+01 -0.34144000D+00  0.59977866D+01
  0.86226940D+01  0.11438009D+02  0.13384034D+02  0.13191551D+02  0.99384459D+01
  0.51903719D+01  0.14916296D+01 -0.38453577D-11 -0.55282633D-11 -0.73332448D-11
 -0.85808985D-11 -0.84574921D-11 -0.63718306D-11 -0.33277004D-11 -0.95632772D-12
 -0.55409668D-01  0.33250361D-01  0.24206509D+00 -0.14525897D+00 -0.15482231D-12
  0.92906127D-13 -0.31237945D-01  0.13646745D+00 -0.87374480D-13 -0.34512213D-03
  0.15077156D-02 -0.12506465D-14  0.41274411D-04 -0.18031319D-03  0.29395104D-15
 -0.92985276D-05  0.40621952D-04 -0.62538066D-16  0.27352234D-06 -0.11949216D-05
  0.27602232D-17  0.24518381D-14  0.12465031D-14 -0.36983412D-14 -0.48642942D-15
 -0.20155952D-02  0.88054168D-02 -0.30553975D-15  0.44289495D-15 -0.13735520D-15
  0.62558552D-16 -0.50710508D-04  0.22153613D-03  0.17440843D-15 -0.93323497D-16
 -0.81084936D-16 -0.71963456D-17 -0.16656386D-04  0.72765811D-04 -0.37846176D-16
 -0.52620681D-18  0.38372383D-16  0.52719543D-17  0.58951745D-05 -0.25753916D-04
  0.39178903D-18  0.66692610D-18 -0.10587151D-17  0.32373641D-18 -0.11964403D-05
  0.52268212D-05 -0.71347826D-06  0.31169322D-05  0.18358589D-16 -0.71377949D-06
  0.31182482D-05 -0.44761623D-16  0.28542143D-05 -0.12469045D-04 -0.10314143D-16
  0.60146899D-17  0.11506815D-04 -0.50269172D-04 -0.12378242D-15  0.11506646D-04
 -0.50268434D-04  0.41075219D-15 -0.46027090D-04  0.20107595D-03 -0.39404946D-16
 -0.24966054D-16 -0.99151198D-17 -0.23410678D-16 -0.22798697D-18 -0.42766523D-19
  0.30487924D-05 -0.33722371D-18 -0.13319087D-04 -0.40632453D-05  0.17750870D-04
  0.99293434D-16 -0.39802715D-16  0.41170637D-16 -0.13295350D-04  0.30433588D-05
  0.11399707D-17
MO    6     MO 0.0        OCC NO =    2.0000000  ORB. ENERGY =   -1.897628
 -0.41454962D-01 -0.77674911D-01 -0.13459905D+00 -0.21856182D+00 -0.33169833D+00
 -0.45597931D+00 -0.53253712D+00 -0.48269729D+00 -0.28467222D+00  0.94954151D-02
  0.26240637D-01 -0.77775885D-01  0.12708959D-02  0.19119020D-02 -0.45657297D-04
 -0.84570625D-18 -0.62011955D-18 -0.50934336D-18 -0.18439280D-17 -0.13520720D-17
 -0.11105422D-17 -0.48367711D-02 -0.35465935D-02 -0.29130413D-02 -0.14070903D-18
 -0.74288309D-19 -0.75981025D-03 -0.56004596D-19 -0.81630115D-20  0.10753321D-04
 -0.15485769D-17  0.34526390D-17 -0.49330630D-02 -0.42815528D-03 -0.42815528D-03
  0.85631055D-03 -0.32637400D-19 -0.24243503D-18  0.52309649D-18 -0.79357401D-04
 -0.79357401D-04  0.15871480D-03  0.15425357D-19  0.21748566D-18  0.35902166D-19
  0.13384916D-19  0.27107461D-19 -0.50095741D-04  0.56806723D-20  0.65901105D-19
  0.75143611D-04 -0.45835419D-19 -0.14722349D-18  0.75143611D-04 -0.13995743D-18
 -0.18495071D-03 -0.34613313D-03 -0.59955455D-03 -0.98062879D-03 -0.15297101D-02
 -0.22694768D-02 -0.31477037D-02 -0.38958496D-02 -0.39426246D-02 -0.27213534D-02
 -0.30875608D-03 -0.11681771D-02 -0.22037656D-02 -0.21730834D-02  0.14007604D-02
  0.40109701D-02  0.14581543D-02 -0.44562313D-03  0.12787860D-02 -0.55840821D-02
 -0.19445386D-02 -0.23109320D-16 -0.33223023D-16 -0.44070361D-16 -0.51568344D-16
 -0.50826713D-16 -0.38292582D-16 -0.19998372D-16 -0.57472114D-17 -0.88293520D-16
 -0.12693483D-15 -0.16837913D-15 -0.19702659D-15 -0.19419305D-15 -0.14630403D-15
 -0.76407555D-16 -0.21958306D-16  0.12600745D-01  0.18115411D-01  0.24030104D-01
  0.28118505D-01  0.27714118D-01  0.20879673D-01  0.10904448D-01  0.31337634D-02
 -0.35548592D-18  0.21332081D-18 -0.31569491D-17  0.18944292D-17 -0.94171524D-03
  0.56510664D-03 -0.14392841D-18 -0.11726240D-17 -0.24943671D-02  0.15496564D-18
 -0.77382048D-19  0.16471884D-02 -0.73273296D-19  0.45558671D-18 -0.39486966D-02
  0.64839338D-18  0.29062000D-18 -0.10417142D-02  0.46117840D-19  0.44270935D-19
 -0.35557142D-04  0.26433301D-02  0.26433301D-02 -0.52866601D-02  0.35441546D-17
 -0.47153752D-17 -0.53630879D-19  0.54018039D-03  0.54018039D-03 -0.10803608D-02
 -0.34452775D-18 -0.26948812D-18  0.27212384D-17  0.78964514D-04  0.78964514D-04
 -0.15792903D-03  0.88462874D-19 -0.74456453D-18 -0.10283015D-17  0.66256310D-03
  0.66256310D-03 -0.13251262D-02 -0.63067717D-19  0.89329771D-19  0.73551657D-18
  0.39797429D-05  0.39797429D-05 -0.79594859D-05  0.16098301D-20  0.17240882D-18
  0.88790064D-20  0.10013894D-19 -0.62146686D-19 -0.65483936D-03  0.30397646D-19
 -0.22468787D-19  0.98225905D-03 -0.60439328D-19  0.20890885D-18  0.98225905D-03
 -0.13055365D-18  0.13279799D-18  0.34693543D-18  0.46807888D-03 -0.21622648D-18
  0.37451807D-18 -0.70211832D-03 -0.18216748D-18 -0.14153244D-17 -0.70211832D-03
  0.38538371D-18 -0.14029465D-03 -0.14029465D-03 -0.37411733D-03  0.45736927D-19
  0.89156265D-19 -0.12520837D-19  0.57649066D-19 -0.53005610D-19 -0.29652791D-19
 -0.28058408D-03  0.11223520D-02  0.11223520D-02 -0.83988823D-19 -0.10845197D-18
 -0.99648272D-19
MO    7     MO 0.0        OCC NO =    2.0000000  ORB. ENERGY =   -0.643737
  0.19058043D-02  0.35709399D-02  0.61879072D-02  0.10047918D-01  0.15249130D-01
  0.20962685D-01  0.24482269D-01  0.22190988D-01  0.13087204D-01  0.15448353D-02
  0.42691617D-02  0.62547741D-02 -0.68992556D-02 -0.27989320D-02 -0.78723664D-04
  0.86614296D-17  0.63510490D-17  0.52165178D-17  0.15423597D-17  0.11309452D-17
  0.92891673D-18  0.11230376D-01  0.82347456D-02  0.67637168D-02  0.13573436D-17
 -0.79293544D-17  0.15066273D-02 -0.17172197D-18  0.61246353D-18 -0.23141835D-04
 -0.56090624D-16 -0.83454359D-17  0.68709558D-02  0.88140632D-03  0.88140632D-03
 -0.17628126D-02  0.56894657D-17 -0.62566449D-17  0.16091347D-16  0.14595562D-03
  0.14595562D-03 -0.29191125D-03 -0.11072130D-17  0.16259786D-17  0.17276348D-17
 -0.12294143D-18  0.82449339D-18  0.10274550D-03  0.30077450D-18  0.10527817D-17
 -0.15411825D-03  0.68049800D-19 -0.35262618D-17 -0.15411825D-03 -0.25213475D-18
 -0.30678317D-01 -0.57414120D-01 -0.99449875D-01 -0.16265978D+00 -0.25373751D+00
 -0.37644479D+00 -0.52211886D+00 -0.64621602D+00 -0.65397473D+00 -0.45139889D+00
 -0.49891506D-01 -0.18876426D+00 -0.35610371D+00 -0.39899152D+00  0.30950380D+00
  0.60812547D+00  0.39233494D+00 -0.17593071D+00 -0.20420092D+00 -0.35934151D-01
  0.33099986D-02  0.16370970D-15  0.23535660D-15  0.31220069D-15  0.36531747D-15
  0.36006365D-15  0.27127008D-15  0.14167130D-15  0.40714061D-16  0.53356536D-16
  0.76707812D-16  0.10175296D-15  0.11906487D-15  0.11735254D-15  0.88412791D-16
  0.46173745D-16  0.13269594D-16  0.75252783D-01  0.10818686D+00  0.14350995D+00
  0.16792625D+00  0.16551121D+00  0.12469529D+00  0.65122345D-01  0.18715118D-01
 -0.22716651D-16  0.13631860D-16 -0.65976844D-16  0.39591536D-16 -0.39586025D-02
  0.23754873D-02 -0.10404979D-16 -0.36636557D-16 -0.10166044D-01 -0.53391343D-17
 -0.19015262D-16 -0.96455647D-02 -0.14265870D-16 -0.14229512D-16 -0.28599963D-02
  0.62024438D-17  0.12302659D-16  0.18358881D-02 -0.87404551D-18  0.90654166D-18
  0.88269696D-04  0.89392686D-02  0.89392686D-02 -0.17878537D-01  0.32349247D-16
 -0.97253831D-16  0.16365981D-16  0.97212678D-03  0.97212678D-03 -0.19442536D-02
 -0.13267075D-16 -0.61034119D-16 -0.18630777D-16  0.15350149D-02  0.15350149D-02
 -0.30700299D-02 -0.36099704D-17  0.10134503D-16 -0.69791002D-17  0.87965345D-05
  0.87965345D-05 -0.17593069D-04  0.41610997D-18 -0.12498311D-16  0.49689976D-17
 -0.36456261D-04 -0.36456261D-04  0.72912521D-04  0.38311255D-18  0.16562842D-17
  0.17990076D-17  0.15031380D-17 -0.12334095D-17 -0.41440088D-03  0.48925110D-18
 -0.47405823D-18  0.62160133D-03 -0.49986650D-17  0.41742867D-17  0.62160133D-03
 -0.95602568D-18 -0.38133498D-17  0.29646676D-17 -0.43405475D-03 -0.67799898D-17
  0.96718241D-17  0.65108213D-03  0.18220039D-16 -0.18565827D-16  0.65108213D-03
 -0.14434245D-17 -0.16468780D-03 -0.16468780D-03 -0.43913753D-03 -0.48005899D-18
  0.23375043D-17  0.50023102D-18 -0.53912058D-18 -0.27027508D-17  0.11163288D-17
 -0.32928582D-03  0.13174126D-02  0.13174126D-02 -0.17316246D-17  0.10957396D-17
 -0.60516093D-19
MO    8     MO 0.0        OCC NO =    2.0000000  ORB. ENERGY =   -0.237485
 -0.43047735D-02 -0.80659317D-02 -0.13977059D-01 -0.22695934D-01 -0.34444276D-01
 -0.47349884D-01 -0.55299814D-01 -0.50124337D-01 -0.29560983D-01 -0.54251424D-02
 -0.14992414D-01 -0.18500316D-01  0.23734951D-01  0.11996219D-01  0.20810224D-03
 -0.19297427D-16 -0.14149962D-16 -0.11622258D-16 -0.10571636D-16 -0.77517199D-17
 -0.63669773D-17 -0.34790384D-01 -0.25510273D-01 -0.20953199D-01 -0.43733324D-17
 -0.18492700D-16 -0.51850776D-02  0.20741542D-17  0.52225452D-18  0.68471336D-04
  0.93938424D-17 -0.62850925D-16 -0.13922738D-01 -0.16648915D-02 -0.16648915D-02
  0.33297830D-02 -0.56008410D-17  0.13567796D-16  0.23448037D-16 -0.35479304D-03
 -0.35479304D-03  0.70958609D-03  0.26487638D-18 -0.25022566D-17  0.61972685D-17
 -0.41109774D-18  0.81556756D-18 -0.18540946D-03  0.45481361D-18  0.11112635D-17
  0.27811419D-03  0.77847962D-18 -0.35579662D-17  0.27811419D-03  0.31310944D-18
 -0.27774112D-02 -0.51978934D-02 -0.90035316D-02 -0.14726137D-01 -0.22971710D-01
 -0.34080813D-01 -0.47269176D-01 -0.58504109D-01 -0.59206532D-01 -0.40866660D-01
 -0.44666511D-02 -0.16899552D-01 -0.31880998D-01 -0.37428680D-01  0.30691464D-01
  0.52413618D-01  0.41661483D-01 -0.22673240D-01 -0.16587939D-01 -0.21208738D-01
 -0.16965358D-01  0.12546463D-14  0.18037372D-14  0.23926586D-14  0.27997375D-14
  0.27594730D-14  0.20789726D-14  0.10857473D-14  0.31202637D-15  0.16747727D-14
  0.24077303D-14  0.31938559D-14  0.37372478D-14  0.36835005D-14  0.27751301D-14
  0.14493169D-14  0.41651042D-15 -0.16942007D+01 -0.24356609D+01 -0.32309058D+01
 -0.37806012D+01 -0.37262305D+01 -0.28073227D+01 -0.14661295D+01 -0.42134210D+00
 -0.65590235D-16  0.39359539D-16 -0.68092931D-16  0.40861362D-16  0.98064143D-01
 -0.58846556D-01 -0.28443418D-15 -0.22918381D-15  0.27189040D+00 -0.23290735D-15
 -0.19551719D-15  0.25296929D+00 -0.93383268D-16 -0.83321741D-16  0.88400914D-01
 -0.16636492D-16  0.10457526D-16  0.60054754D-02 -0.28169766D-17  0.85407915D-18
 -0.12496318D-03 -0.28800931D-01 -0.28800931D-01  0.57601863D-01 -0.49982941D-16
 -0.12604625D-16 -0.11818730D-15 -0.63117620D-02 -0.63117620D-02  0.12623524D-01
  0.17342449D-17 -0.10086175D-16 -0.11755349D-16 -0.32934861D-02 -0.32934861D-02
  0.65869721D-02  0.13125669D-17  0.72529491D-18 -0.22786342D-16 -0.27409791D-03
 -0.27409791D-03  0.54819582D-03  0.25315058D-18 -0.15153083D-17  0.64788987D-17
  0.13370558D-03  0.13370558D-03 -0.26741117D-03  0.18403375D-19 -0.22191772D-17
  0.41579843D-17  0.66685981D-18  0.35045087D-19  0.89101226D-03  0.76084963D-18
 -0.89900123D-19 -0.13365184D-02 -0.27614290D-17 -0.15235138D-19 -0.13365184D-02
  0.55423919D-17 -0.25111948D-17  0.12017494D-17  0.10981967D-02 -0.18425225D-17
  0.22850203D-18 -0.16472951D-02  0.93761069D-17 -0.38337503D-17 -0.16472951D-02
  0.12685356D-16  0.32909590D-03  0.32909590D-03  0.87759124D-03  0.12758171D-19
  0.57099984D-18 -0.93934808D-18  0.13416941D-17 -0.25155114D-17 -0.12763866D-17
  0.65819833D-03 -0.26327737D-02 -0.26327737D-02 -0.19592241D-18  0.58335348D-17
  0.27797697D-17
MO    9     MO 0.0        OCC NO =    2.0000000  ORB. ENERGY =   -0.216084
 -0.31991010D-17 -0.59942134D-17 -0.10387079D-16 -0.16866529D-16 -0.25597333D-16
 -0.35188161D-16 -0.41096167D-16 -0.37250002D-16 -0.21968304D-16 -0.21847237D-17
 -0.60374972D-17 -0.16602106D-16 -0.66433977D-17  0.67387816D-16 -0.11636819D-16
 -0.60755028D-03 -0.44549015D-03 -0.36590921D-03  0.16143788D-01  0.11837537D-01