 Molden2AIM, Version 4.0.0 (06/02/2016)           Time: Thu Jun 28 23:47:35 2018
GAUSSIAN              6 MOL ORBITALS    152 PRIMITIVES        2 NUCLEI
  Li   1    (CENTRE  1)   0.00000000  0.00000000  2.95919773  CHARGE =  3.0
  F    2    (CENTRE  2)   0.00000000  0.00000000 -0.00385504  CHARGE =  9.0
CENTRE ASSIGNMENTS    1  1  1  1  1  1  1  1  1  1  1  1  1  1  1  1  1  1  1  1
CENTRE ASSIGNMENTS    1  1  1  1  1  1  1  1  1  1  1  1  1  1  1  1  1  1  1  1
CENTRE ASSIGNMENTS    1  1  1  1  1  1  1  1  1  1  1  1  1  1  1  1  1  1  1  1
CENTRE ASSIGNMENTS    1  1  1  1  1  1  1  1  1  1  1  1  1  1  1  1  1  2  2  2
CENTRE ASSIGNMENTS    2  2  2  2  2  2  2  2  2  2  2  2  2  2  2  2  2  2  2  2
CENTRE ASSIGNMENTS    2  2  2  2  2  2  2  2  2  2  2  2  2  2  2  2  2  2  2  2
CENTRE ASSIGNMENTS    2  2  2  2  2  2  2  2  2  2  2  2  2  2  2  2  2  2  2  2
CENTRE ASSIGNMENTS    2  2  2  2  2  2  2  2  2  2  2  2
TYPE ASSIGNMENTS      1  1  1  1  1  1  1  1  1  1  1  1  1  1  1  1  1  1  1  1
TYPE ASSIGNMENTS      1  2  2  2  3  3  3  4  4  4  2  3  4  2  3  4  2  3  4  5
TYPE ASSIGNMENTS      6  7  8  9 10  5  6  7  8  9 10  5  6  7  8  9 10 11 12 13
TYPE ASSIGNMENTS     17 14 15 18 19 16 20 11 12 13 17 14 15 18 19 16 20  1  1  1
TYPE ASSIGNMENTS      1  1  1  1  1  1  1  1  1  1  1  1  1  1  1  1  2  2  2  3
TYPE ASSIGNMENTS      3  3  4  4  4  2  3  4  2  3  4  2  3  4  5  6  7  8  9 10
TYPE ASSIGNMENTS      5  6  7  8  9 10  5  6  7  8  9 10 11 12 13 17 14 15 18 19
TYPE ASSIGNMENTS     16 20 11 12 13 17 14 15 18 19 16 20
EXPONENTS  0.5988000D+04 0.8989000D+03 0.2059000D+03 0.5924000D+02 0.1987000D+02
EXPONENTS  0.7406000D+01 0.2930000D+01 0.1189000D+01 0.4798000D+00 0.5988000D+04
EXPONENTS  0.8989000D+03 0.2059000D+03 0.5924000D+02 0.1987000D+02 0.7406000D+01
EXPONENTS  0.2930000D+01 0.1189000D+01 0.4798000D+00 0.7509000D-01 0.2832000D-01
EXPONENTS  0.7600000D-02 0.3266000D+01 0.6511000D+00 0.1696000D+00 0.3266000D+01
EXPONENTS  0.6511000D+00 0.1696000D+00 0.3266000D+01 0.6511000D+00 0.1696000D+00
EXPONENTS  0.5578000D-01 0.5578000D-01 0.5578000D-01 0.2050000D-01 0.2050000D-01
EXPONENTS  0.2050000D-01 0.9100000D-02 0.9100000D-02 0.9100000D-02 0.1874000D+00
EXPONENTS  0.1874000D+00 0.1874000D+00 0.1874000D+00 0.1874000D+00 0.1874000D+00
EXPONENTS  0.8010000D-01 0.8010000D-01 0.8010000D-01 0.8010000D-01 0.8010000D-01
EXPONENTS  0.8010000D-01 0.3710000D-01 0.3710000D-01 0.3710000D-01 0.3710000D-01
EXPONENTS  0.3710000D-01 0.3710000D-01 0.1829000D+00 0.1829000D+00 0.1829000D+00
EXPONENTS  0.1829000D+00 0.1829000D+00 0.1829000D+00 0.1829000D+00 0.1829000D+00
EXPONENTS  0.1829000D+00 0.1829000D+00 0.8160000D-01 0.8160000D-01 0.8160000D-01
EXPONENTS  0.8160000D-01 0.8160000D-01 0.8160000D-01 0.8160000D-01 0.8160000D-01
EXPONENTS  0.8160000D-01 0.8160000D-01 0.1950000D+05 0.2923000D+04 0.6645000D+03
EXPONENTS  0.1875000D+03 0.6062000D+02 0.2142000D+02 0.7950000D+01 0.8815000D+00
EXPONENTS  0.1950000D+05 0.2923000D+04 0.6645000D+03 0.1875000D+03 0.6062000D+02
EXPONENTS  0.2142000D+02 0.7950000D+01 0.8815000D+00 0.2257000D+01 0.3041000D+00
EXPONENTS  0.9158000D-01 0.4388000D+02 0.9926000D+01 0.2930000D+01 0.4388000D+02
EXPONENTS  0.9926000D+01 0.2930000D+01 0.4388000D+02 0.9926000D+01 0.2930000D+01
EXPONENTS  0.9132000D+00 0.9132000D+00 0.9132000D+00 0.2672000D+00 0.2672000D+00
EXPONENTS  0.2672000D+00 0.7361000D-01 0.7361000D-01 0.7361000D-01 0.3107000D+01
EXPONENTS  0.3107000D+01 0.3107000D+01 0.3107000D+01 0.3107000D+01 0.3107000D+01
EXPONENTS  0.8550000D+00 0.8550000D+00 0.8550000D+00 0.8550000D+00 0.8550000D+00
EXPONENTS  0.8550000D+00 0.2920000D+00 0.2920000D+00 0.2920000D+00 0.2920000D+00
EXPONENTS  0.2920000D+00 0.2920000D+00 0.1917000D+01 0.1917000D+01 0.1917000D+01
EXPONENTS  0.1917000D+01 0.1917000D+01 0.1917000D+01 0.1917000D+01 0.1917000D+01
EXPONENTS  0.1917000D+01 0.1917000D+01 0.7240000D+00 0.7240000D+00 0.7240000D+00
EXPONENTS  0.7240000D+00 0.7240000D+00 0.7240000D+00 0.7240000D+00 0.7240000D+00
EXPONENTS  0.7240000D+00 0.7240000D+00
MO    1     MO 0.0        OCC NO =    2.0000000  ORB. ENERGY =  -24.101474
  0.19025669D-04  0.35361799D-04  0.60220535D-04  0.93915379D-04  0.13120513D-03
  0.15639893D-03  0.14826567D-03  0.94163688D-04  0.23123832D-04 -0.15940636D-04
 -0.29473684D-04 -0.49702831D-04 -0.79196967D-04 -0.11039461D-03 -0.14066069D-03
 -0.13969059D-03 -0.12600420D-03 -0.72122451D-04  0.24706883D-04  0.37804711D-05
 -0.53574029D-06 -0.64280779D-17 -0.47168345D-17 -0.38732894D-17 -0.18577603D-17
 -0.13631988D-17 -0.11194082D-17  0.43794583D-04  0.32135858D-04  0.26388773D-04
 -0.16445044D-17 -0.47319624D-17 -0.14958700D-05  0.89788783D-18 -0.97629678D-19
  0.40497869D-06 -0.30817444D-18 -0.43054011D-18 -0.27519934D-07 -0.39479676D-05
 -0.39479676D-05  0.78959351D-05  0.21144847D-16 -0.11102196D-16 -0.18507179D-16
  0.29093539D-05  0.29093539D-05 -0.58187078D-05 -0.93438875D-17  0.40426929D-17
  0.77183897D-17 -0.10973740D-06 -0.10973740D-06  0.21947480D-06  0.11071262D-17
 -0.68572360D-18 -0.56478769D-18  0.69387072D-19 -0.45927066D-18 -0.55373700D-05
  0.41950446D-18  0.56602946D-18  0.83060551D-05 -0.62766568D-18  0.81178251D-18
  0.83060551D-05 -0.18576648D-17 -0.10535265D-19  0.15688000D-18  0.11935311D-05
 -0.21513880D-19  0.33974373D-19 -0.17902967D-05  0.53119675D-19 -0.50461438D-18
 -0.17902967D-05  0.12210090D-17  0.59273746D+00  0.11048883D+01  0.18730573D+01
  0.28363608D+01  0.35468791D+01  0.30535326D+01  0.11738894D+01 -0.50866549D-02
  0.10392261D-02  0.19514826D-02  0.33230383D-02  0.52055199D-02  0.69760090D-02
  0.75036383D-02  0.45051746D-02 -0.29627923D-02  0.67170938D-01  0.10905718D-02
 -0.11071466D-03 -0.30922035D-15 -0.30241075D-15 -0.19981557D-15 -0.57346175D-15
 -0.56083307D-15 -0.37056612D-15  0.21050455D-02  0.20586885D-02  0.13602625D-02
  0.70557176D-16  0.74391160D-16 -0.28066162D-03 -0.70937872D-17 -0.21502968D-16
  0.77078893D-04  0.16035263D-17  0.93712998D-17 -0.20408171D-04 -0.62652910D-04
 -0.62652910D-04  0.12530582D-03 -0.12316122D-18  0.39508369D-15  0.33316494D-15
  0.15850438D-04  0.15850438D-04 -0.31700876D-04 -0.17193769D-17 -0.26615679D-16
 -0.35683667D-17 -0.93452378D-05 -0.93452378D-05  0.18690476D-04  0.18032696D-17
  0.47659341D-18  0.38548447D-18  0.13030482D-16 -0.37618259D-17 -0.62811252D-04
 -0.30149859D-15 -0.12042026D-15  0.94216878D-04  0.26240715D-15  0.13170574D-15
  0.94216878D-04  0.42251923D-16  0.14718917D-17  0.18200814D-17  0.21892860D-04
  0.19686523D-16  0.86668694D-17 -0.32839290D-04 -0.24102198D-16 -0.14127114D-16
 -0.32839290D-04 -0.37916959D-17
MO    2     MO 0.0        OCC NO =    2.0000000  ORB. ENERGY =   -1.855876
  0.64911730D-01  0.12064730D+00  0.20546027D+00  0.32042026D+00  0.44764534D+00
  0.53360147D+00  0.50585245D+00  0.32126744D+00  0.78893833D-01 -0.75605431D-03
 -0.13979182D-02 -0.23573739D-02 -0.37562621D-02 -0.52359466D-02 -0.66714477D-02
 -0.66254362D-02 -0.59762998D-02 -0.34207223D-02 -0.57294071D-02  0.31508029D-03
 -0.22512588D-05 -0.11055784D-16 -0.81125810D-17 -0.66617503D-17 -0.10749674D-16
 -0.78879621D-17 -0.64773016D-17  0.10869967D-01  0.79762311D-02  0.65497848D-02
  0.23767166D-17  0.19264621D-17  0.27061162D-03 -0.59489576D-18 -0.42628202D-18
 -0.45556573D-04  0.10245651D-18  0.80362659D-19  0.36911496D-05  0.83145021D-03
  0.83145021D-03 -0.16629004D-02 -0.87220173D-18  0.43604832D-17  0.43789519D-17
 -0.49839804D-04 -0.49839804D-04  0.99679607D-04  0.99419165D-19 -0.85921289D-18
 -0.99599604D-18 -0.26841150D-05 -0.26841150D-05  0.53682300D-05 -0.44398044D-20
 -0.58407078D-19 -0.18882841D-19  0.43119534D-18  0.40350792D-18  0.18364991D-03
  0.40972307D-18  0.36914946D-18 -0.27547487D-03 -0.17033091D-17 -0.15796732D-17
 -0.27547487D-03  0.47653176D-19 -0.37205622D-19 -0.32844744D-19 -0.26877650D-04
 -0.35234454D-19 -0.30339112D-19  0.40316476D-04  0.14685132D-18  0.12887334D-18
  0.40316476D-04  0.56095982D-20 -0.26161760D-02 -0.48766654D-02 -0.82671467D-02
 -0.12518897D-01 -0.15654924D-01 -0.13477431D-01 -0.51812167D-02  0.22451060D-04
 -0.10374286D-02 -0.19481072D-02 -0.33172906D-02 -0.51965161D-02 -0.69639429D-02
 -0.74906596D-02 -0.44973822D-02  0.29576677D-02  0.35647443D-02  0.97472137D-02
  0.64542669D-02  0.41233136D-16  0.40325106D-16  0.26644503D-16  0.43233797D-16
  0.42281709D-16  0.27937313D-16  0.34262265D-01  0.33507747D-01  0.22139985D-01
 -0.32249549D-17 -0.21276862D-17  0.25916432D-02  0.10715677D-16  0.10083066D-16
  0.95036768D-02 -0.10744178D-17 -0.78914459D-18  0.13232447D-02 -0.19855119D-02
 -0.19855119D-02  0.39710237D-02 -0.24488146D-17  0.18505664D-17  0.15547104D-17
 -0.85562934D-03 -0.85562934D-03  0.17112587D-02 -0.72751671D-18 -0.13001796D-16
 -0.11984135D-16 -0.12302161D-02 -0.12302161D-02  0.24604322D-02 -0.69270246D-19
  0.80383162D-17  0.74331553D-17  0.11458777D-17  0.76499618D-18 -0.22137032D-02
  0.12963236D-17  0.89459181D-18  0.33205548D-02 -0.47339566D-17 -0.31895804D-17
  0.33205548D-02 -0.22527786D-17  0.22279275D-18  0.27171330D-18  0.24593368D-02
  0.21847738D-18  0.22904481D-18 -0.36890052D-02 -0.88685564D-18 -0.10441847D-17
 -0.36890052D-02 -0.66163324D-19
MO    3     MO 0.0        OCC NO =    2.0000000  ORB. ENERGY =   -0.902115
 -0.34212393D-02 -0.63588396D-02 -0.10828995D-01 -0.16888078D-01 -0.23593607D-01
 -0.28124013D-01 -0.26661472D-01 -0.16932730D-01 -0.41581804D-02 -0.11232049D-02
 -0.20767669D-02 -0.35021476D-02 -0.55803555D-02 -0.77785955D-02 -0.99111961D-02
 -0.98428407D-02 -0.88784745D-02 -0.50818728D-02  0.82180489D-02 -0.52004009D-03
  0.25939243D-04  0.60522574D-16  0.44410626D-16  0.36468357D-16  0.69161723D-16
  0.50749914D-16  0.41673945D-16 -0.10741147D-01 -0.78817045D-02 -0.64721630D-02
  0.99694734D-17 -0.40523639D-17 -0.11068822D-02 -0.18649400D-17  0.44890568D-17
  0.13050058D-03  0.81773051D-18 -0.56825051D-18 -0.15463388D-04 -0.85708271D-03
 -0.85708271D-03  0.17141654D-02 -0.14610949D-16 -0.14627338D-16 -0.12643870D-16
 -0.76814644D-04 -0.76814644D-04  0.15362929D-03 -0.26330893D-18  0.27501740D-17
  0.12506034D-18  0.48379747D-05  0.48379747D-05 -0.96759494D-05  0.12870330D-17
  0.29365419D-18  0.78122706D-18 -0.65204304D-18  0.54235432D-18 -0.30974531D-03
 -0.72232321D-18  0.38570407D-18  0.46461797D-03  0.26784523D-17 -0.20127670D-17
  0.46461797D-03 -0.18649322D-18  0.70369158D-19 -0.12003638D-18  0.93060216D-05
  0.79108662D-19 -0.11861409D-18 -0.13959032D-04 -0.29021614D-18  0.47872322D-18
 -0.13959032D-04  0.33326787D-18 -0.98573137D-02 -0.18374460D-01 -0.31149227D-01
 -0.47169110D-01 -0.58985137D-01 -0.50780709D-01 -0.19521958D-01  0.84591841D-04
 -0.12810340D+00 -0.24055550D+00 -0.40962453D+00 -0.64167441D+00 -0.85991919D+00
 -0.92495904D+00 -0.55534419D+00  0.36521770D+00  0.22185664D+00  0.10526776D+00
 -0.37277083D-02  0.19385490D-14  0.18958586D-14  0.12526739D-14  0.19253395D-14
  0.18829400D-14  0.12441381D-14  0.11142833D+00  0.10897448D+00  0.72004043D-01
  0.24090689D-15  0.24189610D-15  0.28587770D-01  0.13790698D-15  0.13835228D-15
  0.30101460D-02  0.20026668D-16  0.20289665D-16 -0.98896251D-03 -0.25927194D-03
 -0.25927194D-03  0.51854388D-03 -0.11216214D-15  0.24302654D-15  0.25865187D-15
 -0.19680131D-02 -0.19680131D-02  0.39360262D-02 -0.30313117D-16  0.85882799D-16
  0.77013978D-16 -0.56863973D-03 -0.56863973D-03  0.11372795D-02 -0.46096095D-17
  0.49485259D-17  0.17571544D-16 -0.70123538D-17 -0.26834883D-17 -0.23113912D-02
 -0.19143322D-16 -0.16125991D-16  0.34670868D-02  0.40180384D-16  0.24176456D-16
  0.34670868D-02 -0.68843974D-17 -0.14752516D-17 -0.27095054D-17  0.22025083D-02
 -0.69121736D-18 -0.10179607D-17 -0.33037625D-02  0.51169721D-17  0.91464769D-17
 -0.33037625D-02 -0.14699235D-17
MO    4     MO 0.0        OCC NO =    2.0000000  ORB. ENERGY =   -0.235751
  0.30393507D-02  0.56490475D-02  0.96202307D-02  0.15002982D-01  0.20960020D-01
  0.24984729D-01  0.23685441D-01  0.15042650D-01  0.36940322D-02  0.39793321D-02
  0.73576472D-02  0.12407539D-01  0.19770292D-01  0.27558299D-01  0.35113756D-01
  0.34871584D-01  0.31454991D-01  0.18004249D-01 -0.29497077D-01  0.15037603D-02
 -0.11755027D-03  0.18614676D-15  0.13659191D-15  0.11216421D-15  0.18380687D-15
  0.13487493D-15  0.11075429D-15  0.39733841D-01  0.29156142D-01  0.23941941D-01
  0.10078451D-16  0.61640089D-17  0.43505124D-02  0.40245586D-17  0.33009469D-17
 -0.43325719D-03 -0.27993342D-18 -0.11688330D-17  0.53436102D-04  0.21071469D-02
  0.21071469D-02 -0.42142938D-02  0.21068660D-17 -0.20727252D-16 -0.20570767D-16
  0.26241242D-03  0.26241242D-03 -0.52482484D-03  0.13587102D-17 -0.69350500D-17
 -0.55805237D-17 -0.81955165D-05 -0.81955165D-05  0.16391033D-04  0.35373680D-18
  0.11357710D-17  0.97895246D-18 -0.39441509D-18 -0.29929170D-18  0.80995142D-03
 -0.27584386D-18 -0.30991017D-18 -0.12149271D-02  0.14590891D-17  0.12077853D-17
 -0.12149271D-02  0.67352336D-18 -0.46777862D-18 -0.31101396D-18 -0.14517751D-04
 -0.49732211D-18 -0.31324007D-18  0.21776627D-04  0.19006580D-17  0.12462819D-17
  0.21776627D-04 -0.10650461D-18 -0.52236951D-03 -0.97371940D-03 -0.16506938D-02
 -0.24996369D-02 -0.31258047D-02 -0.26910267D-02 -0.10345289D-02  0.44827830D-05
 -0.10065894D-01 -0.18901966D-01 -0.32186789D-01 -0.50420415D-01 -0.67569287D-01
 -0.72679879D-01 -0.43636904D-01  0.28697464D-01  0.19792428D-01  0.29322852D-01
  0.28545396D-01  0.14074987D-13  0.13765030D-13  0.90951375D-14  0.14521611D-13
  0.14201819D-13  0.93837419D-14 -0.25322097D+01 -0.24764458D+01 -0.16362924D+01
  0.30192169D-14  0.31093107D-14 -0.55121716D+00  0.57199934D-15  0.58986154D-15
 -0.83860145D-01  0.27281989D-16  0.32527106D-16 -0.14078942D-02  0.95383784D-02
  0.95383784D-02 -0.19076757D-01 -0.95361464D-17  0.21269033D-14  0.20057789D-14
  0.46434068D-02  0.46434068D-02 -0.92868137D-02 -0.10371328D-17  0.65506488D-15
  0.62400918D-15  0.15675516D-02  0.15675516D-02 -0.31351031D-02 -0.26909002D-18
  0.12483538D-15  0.12312556D-15  0.42043748D-16  0.45520881D-16  0.43690709D-02
  0.63498100D-16  0.54813421D-16 -0.65536063D-02 -0.18962934D-15 -0.19137607D-15
 -0.65536063D-02  0.94667210D-16 -0.13000730D-16 -0.13899858D-16 -0.42557759D-02
 -0.13883399D-16 -0.14716290D-16  0.63836638D-02  0.52885587D-16  0.56415864D-16
  0.63836638D-02  0.11200056D-16
MO    5     MO 0.0        OCC NO =    2.0000000  ORB. ENERGY =   -0.225053
  0.17170055D-16  0.31912887D-16  0.54347098D-16  0.84755612D-16  0.11840841D-15
  0.14114501D-15  0.13380500D-15  0.84979703D-16  0.20868516D-16  0.30302677D-16
  0.56028599D-16  0.94483607D-16  0.15055108D-15  0.20985688D-15  0.26739180D-15
  0.26554766D-15  0.23953025D-15  0.13710264D-15 -0.20010859D-15  0.22156562D-17
  0.13245521D-17 -0.17938212D-01 -0.13162811D-01 -0.10808812D-01 -0.11429271D-02
 -0.83866405D-03 -0.68867977D-03  0.34148908D-15  0.25057996D-15  0.20576695D-15
 -0.43451231D-03 -0.27684804D-04  0.19262527D-16 -0.67616189D-04 -0.43081425D-05
  0.60252237D-17  0.76150235D-05  0.48518864D-06 -0.21097410D-17  0.68916589D-17
  0.14366467D-16 -0.21258126D-16  0.73740803D-17  0.26289488D-02  0.16750258D-03
  0.22426431D-17 -0.13453014D-18 -0.21081130D-17 -0.22641349D-17  0.13649998D-03
  0.86970499D-05 -0.25366423D-18  0.56157495D-18 -0.30791072D-18  0.36450610D-19
 -0.14047126D-04 -0.89500785D-06  0.89624855D-04  0.57104172D-05  0.50425564D-17
  0.89643460D-04  0.57116027D-05 -0.74503596D-17 -0.35851802D-03 -0.22842854D-04
 -0.76773095D-17  0.58881715D-17 -0.63050922D-05 -0.40172681D-06 -0.44636062D-18
 -0.63068151D-05 -0.40183659D-06  0.47677880D-18  0.25222092D-04  0.16070170D-05
  0.86230307D-18 -0.18497021D-17 -0.10486290D-16 -0.19546899D-16 -0.33136800D-16
 -0.50178881D-16 -0.62748867D-16 -0.54020929D-16 -0.20767617D-16  0.89989486D-19
 -0.25262518D-15 -0.47438534D-15 -0.80779642D-15 -0.12654083D-14 -0.16957960D-14
 -0.18240572D-14 -0.10951616D-14  0.72022433D-15  0.49494880D-15  0.42447443D-15
  0.10971153D-15 -0.25047484D+01 -0.24495892D+01 -0.16185471D+01 -0.15958919D+00
 -0.15607474D+00 -0.10312518D+00 -0.15894250D-13 -0.15544230D-13 -0.10270730D-13
 -0.54298422D+00 -0.34596055D-01 -0.34636486D-14 -0.92687411D-01 -0.59055470D-02
 -0.49523255D-15 -0.51924608D-02 -0.33083588D-03 -0.11669301D-16  0.12724508D-14
 -0.49637267D-15 -0.77607816D-15  0.20626091D-14 -0.24103565D-01 -0.15357505D-02
  0.36065295D-15 -0.12756305D-15 -0.23308990D-15  0.48585873D-15 -0.15628432D-01
 -0.99576027D-03  0.60891011D-16 -0.14310151D-16 -0.46580860D-16  0.12559463D-15
 -0.42002031D-02 -0.26761451D-03 -0.19634801D-02 -0.12510247D-03  0.45029597D-16
 -0.19635586D-02 -0.12510747D-03 -0.14111559D-15  0.78539988D-02  0.50041487D-03
  0.60267941D-17 -0.14994018D-15  0.22043408D-02  0.14044883D-03 -0.19469835D-16
  0.22045871D-02  0.14046452D-03  0.19819096D-16 -0.88176095D-02 -0.56181100D-03
  0.38590408D-16 -0.29010241D-16
MO    6     MO 0.0        OCC NO =    2.0000000  ORB. ENERGY =   -0.225053
  0.15382391D-16  0.28590271D-16  0.48688739D-16  0.75931264D-16  0.10608030D-15
  0.12644966D-15  0.11987387D-15  0.76132024D-16  0.18695786D-16  0.27454170D-16
  0.50761809D-16  0.85601977D-16  0.13639901D-15  0.19012995D-15  0.24225649D-15
  0.24058570D-15  0.21701397D-15  0.12421474D-15 -0.21199045D-15  0.10070139D-17
  0.19340014D-17  0.11429271D-02  0.83866405D-03  0.68867977D-03 -0.17938212D-01
 -0.13162811D-01 -0.10808812D-01  0.28241753D-15  0.20723407D-15  0.17017292D-15
  0.27684804D-04 -0.43451231D-03  0.21962304D-16  0.43081425D-05 -0.67616189D-04
  0.24428176D-17 -0.48518864D-06  0.76150235D-05 -0.85916783D-18  0.12172946D-16
 -0.60476344D-20 -0.12166898D-16  0.10060120D-17 -0.16750258D-03  0.26289488D-02
  0.12672412D-17  0.61812463D-18 -0.18853658D-17  0.17122154D-17 -0.86970499D-05
  0.13649998D-03 -0.17614312D-18 -0.24940340D-19  0.20108346D-18 -0.11263369D-17
  0.89500785D-06 -0.14047126D-04 -0.57104172D-05  0.89624855D-04  0.43820462D-17
 -0.57116027D-05  0.89643460D-04 -0.74931603D-17  0.22842854D-04 -0.35851802D-03
 -0.56529783D-17 -0.66298990D-17  0.40172681D-06 -0.63050922D-05 -0.72195371D-18
  0.40183659D-06 -0.63068151D-05  0.13450588D-17 -0.16070170D-05  0.25222092D-04
  0.82080231D-18 -0.47891624D-18 -0.16731530D-17 -0.31188298D-17 -0.52871832D-17
 -0.80063536D-17 -0.10011973D-16 -0.86193764D-17 -0.33136030D-17  0.14358384D-19
 -0.22244224D-15 -0.41770713D-15 -0.71128321D-15 -0.11142209D-14 -0.14931871D-14
 -0.16061241D-14 -0.96431480D-15  0.63417398D-15  0.41802425D-15  0.33614053D-15
  0.12125143D-15  0.15958919D+00  0.15607474D+00  0.10312518D+00 -0.25047484D+01
 -0.24495892D+01 -0.16185471D+01 -0.14249275D-13 -0.13935480D-13 -0.92077609D-14
  0.34596055D-01 -0.54298422D+00 -0.31136541D-14  0.59055470D-02 -0.92687411D-01
 -0.45463920D-15  0.33083588D-03 -0.51924608D-02  0.52596140D-17 -0.63719130D-15
  0.13022485D-14 -0.66505724D-15  0.18774071D-14  0.15357505D-02 -0.24103565D-01
 -0.15055606D-15  0.35610701D-15 -0.20555094D-15  0.48202863D-15  0.99576027D-03
 -0.15628432D-01 -0.32166439D-16  0.65790340D-16 -0.33623901D-16  0.88723998D-16
  0.26761451D-03 -0.42002031D-02  0.12510247D-03 -0.19634801D-02  0.63881791D-16
  0.12510747D-03 -0.19635586D-02 -0.49680953D-16 -0.50041487D-03  0.78539988D-02
 -0.14196442D-15 -0.35222280D-16 -0.14044883D-03  0.22043408D-02 -0.25051415D-16
 -0.14046452D-03  0.22045871D-02  0.50297978D-16  0.56181100D-03 -0.88176095D-02
  0.24856267D-16 -0.21522742D-17
END DATA
RHF
