 Molden2AIM, Version 4.0.0 (06/02/2016)           Time: Thu Jun 28 23:53:53 2018
GAUSSIAN             23 MOL ORBITALS    400 PRIMITIVES        2 NUCLEI
  Mg   1    (CENTRE  1)   0.00000000  0.00000000 -0.71579235  CHARGE = 12.0
  Se   2    (CENTRE  2)   0.00000000  0.00000000  3.55038154  CHARGE = 34.0
CENTRE ASSIGNMENTS    1  1  1  1  1  1  1  1  1  1  1  1  1  1  1  1  1  1  1  1
CENTRE ASSIGNMENTS    1  1  1  1  1  1  1  1  1  1  1  1  1  1  1  1  1  1  1  1
CENTRE ASSIGNMENTS    1  1  1  1  1  1  1  1  1  1  1  1  1  1  1  1  1  1  1  1
CENTRE ASSIGNMENTS    1  1  1  1  1  1  1  1  1  1  1  1  1  1  1  1  1  1  1  1
CENTRE ASSIGNMENTS    1  1  1  1  1  1  1  1  1  1  1  1  1  1  1  1  1  1  1  1
CENTRE ASSIGNMENTS    1  1  1  1  1  1  1  1  1  1  1  1  1  1  1  1  1  1  1  1
CENTRE ASSIGNMENTS    1  1  1  1  1  1  1  1  1  1  1  1  1  1  1  1  1  2  2  2
CENTRE ASSIGNMENTS    2  2  2  2  2  2  2  2  2  2  2  2  2  2  2  2  2  2  2  2
CENTRE ASSIGNMENTS    2  2  2  2  2  2  2  2  2  2  2  2  2  2  2  2  2  2  2  2
CENTRE ASSIGNMENTS    2  2  2  2  2  2  2  2  2  2  2  2  2  2  2  2  2  2  2  2
CENTRE ASSIGNMENTS    2  2  2  2  2  2  2  2  2  2  2  2  2  2  2  2  2  2  2  2
CENTRE ASSIGNMENTS    2  2  2  2  2  2  2  2  2  2  2  2  2  2  2  2  2  2  2  2
CENTRE ASSIGNMENTS    2  2  2  2  2  2  2  2  2  2  2  2  2  2  2  2  2  2  2  2
CENTRE ASSIGNMENTS    2  2  2  2  2  2  2  2  2  2  2  2  2  2  2  2  2  2  2  2
CENTRE ASSIGNMENTS    2  2  2  2  2  2  2  2  2  2  2  2  2  2  2  2  2  2  2  2
CENTRE ASSIGNMENTS    2  2  2  2  2  2  2  2  2  2  2  2  2  2  2  2  2  2  2  2
CENTRE ASSIGNMENTS    2  2  2  2  2  2  2  2  2  2  2  2  2  2  2  2  2  2  2  2
CENTRE ASSIGNMENTS    2  2  2  2  2  2  2  2  2  2  2  2  2  2  2  2  2  2  2  2
CENTRE ASSIGNMENTS    2  2  2  2  2  2  2  2  2  2  2  2  2  2  2  2  2  2  2  2
CENTRE ASSIGNMENTS    2  2  2  2  2  2  2  2  2  2  2  2  2  2  2  2  2  2  2  2
TYPE ASSIGNMENTS      1  1  1  1  1  1  1  1  1  1  1  1  1  1  1  1  1  1  1  1
TYPE ASSIGNMENTS      1  1  1  1  1  1  1  1  1  1  1  1  1  1  1  1  1  1  1  1
TYPE ASSIGNMENTS      1  1  2  2  2  2  2  2  2  2  3  3  3  3  3  3  3  3  4  4
TYPE ASSIGNMENTS      4  4  4  4  4  4  2  2  2  2  2  2  2  2  3  3  3  3  3  3
TYPE ASSIGNMENTS      3  3  4  4  4  4  4  4  4  4  2  3  4  2  3  4  2  3  4  5
TYPE ASSIGNMENTS      6  7  8  9 10  5  6  7  8  9 10  5  6  7  8  9 10 11 12 13
TYPE ASSIGNMENTS     17 14 15 18 19 16 20 11 12 13 17 14 15 18 19 16 20  1  1  1
TYPE ASSIGNMENTS      1  1  1  1  1  1  1  1  1  1  1  1  1  1  1  1  1  1  1  1
TYPE ASSIGNMENTS      1  1  1  1  1  1  1  1  1  1  1  1  1  1  1  1  1  1  1  1
TYPE ASSIGNMENTS      1  1  1  1  1  1  1  1  1  1  1  1  1  1  1  1  1  1  1  1
TYPE ASSIGNMENTS      1  1  1  1  1  1  1  1  1  1  1  1  2  2  2  2  2  2  2  2
TYPE ASSIGNMENTS      2  2  2  3  3  3  3  3  3  3  3  3  3  3  4  4  4  4  4  4
TYPE ASSIGNMENTS      4  4  4  4  4  2  2  2  2  2  2  2  2  2  2  2  3  3  3  3
TYPE ASSIGNMENTS      3  3  3  3  3  3  3  4  4  4  4  4  4  4  4  4  4  4  2  2
TYPE ASSIGNMENTS      2  2  2  2  2  2  2  2  2  3  3  3  3  3  3  3  3  3  3  3
TYPE ASSIGNMENTS      4  4  4  4  4  4  4  4  4  4  4  2  3  4  2  3  4  2  3  4
TYPE ASSIGNMENTS      5  5  5  5  5  5  5  6  6  6  6  6  6  6  7  7  7  7  7  7
TYPE ASSIGNMENTS      7  8  8  8  8  8  8  8  9  9  9  9  9  9  9 10 10 10 10 10
TYPE ASSIGNMENTS     10 10  5  6  7  8  9 10  5  6  7  8  9 10  5  6  7  8  9 10
TYPE ASSIGNMENTS     11 12 13 17 14 15 18 19 16 20 11 12 13 17 14 15 18 19 16 20
EXPONENTS  0.1649000D+06 0.2471000D+05 0.5628000D+04 0.1596000D+04 0.5210000D+03
EXPONENTS  0.1880000D+03 0.7301000D+02 0.2990000D+02 0.1254000D+02 0.4306000D+01
EXPONENTS  0.1826000D+01 0.7417000D+00 0.7612000D-01 0.1649000D+06 0.2471000D+05
EXPONENTS  0.5628000D+04 0.1596000D+04 0.5210000D+03 0.1880000D+03 0.7301000D+02
EXPONENTS  0.2990000D+02 0.1254000D+02 0.4306000D+01 0.1826000D+01 0.7417000D+00
EXPONENTS  0.7612000D-01 0.1649000D+06 0.2471000D+05 0.5628000D+04 0.1596000D+04
EXPONENTS  0.5210000D+03 0.1880000D+03 0.7301000D+02 0.2990000D+02 0.1254000D+02
EXPONENTS  0.4306000D+01 0.1826000D+01 0.7417000D+00 0.7612000D-01 0.1457000D+00
EXPONENTS  0.3310000D-01 0.1290000D-01 0.3169000D+03 0.7486000D+02 0.2372000D+02
EXPONENTS  0.8669000D+01 0.3363000D+01 0.1310000D+01 0.4911000D+00 0.2364000D+00
EXPONENTS  0.3169000D+03 0.7486000D+02 0.2372000D+02 0.8669000D+01 0.3363000D+01
EXPONENTS  0.1310000D+01 0.4911000D+00 0.2364000D+00 0.3169000D+03 0.7486000D+02
EXPONENTS  0.2372000D+02 0.8669000D+01 0.3363000D+01 0.1310000D+01 0.4911000D+00
EXPONENTS  0.2364000D+00 0.3169000D+03 0.7486000D+02 0.2372000D+02 0.8669000D+01
EXPONENTS  0.3363000D+01 0.1310000D+01 0.4911000D+00 0.2364000D+00 0.3169000D+03
EXPONENTS  0.7486000D+02 0.2372000D+02 0.8669000D+01 0.3363000D+01 0.1310000D+01
EXPONENTS  0.4911000D+00 0.2364000D+00 0.3169000D+03 0.7486000D+02 0.2372000D+02
EXPONENTS  0.8669000D+01 0.3363000D+01 0.1310000D+01 0.4911000D+00 0.2364000D+00
EXPONENTS  0.8733000D-01 0.8733000D-01 0.8733000D-01 0.3237000D-01 0.3237000D-01
EXPONENTS  0.3237000D-01 0.7450000D-02 0.7450000D-02 0.7450000D-02 0.1260000D+00
EXPONENTS  0.1260000D+00 0.1260000D+00 0.1260000D+00 0.1260000D+00 0.1260000D+00
EXPONENTS  0.2940000D+00 0.2940000D+00 0.2940000D+00 0.2940000D+00 0.2940000D+00
EXPONENTS  0.2940000D+00 0.4680000D-01 0.4680000D-01 0.4680000D-01 0.4680000D-01
EXPONENTS  0.4680000D-01 0.4680000D-01 0.2520000D+00 0.2520000D+00 0.2520000D+00
EXPONENTS  0.2520000D+00 0.2520000D+00 0.2520000D+00 0.2520000D+00 0.2520000D+00
EXPONENTS  0.2520000D+00 0.2520000D+00 0.9400000D-01 0.9400000D-01 0.9400000D-01
EXPONENTS  0.9400000D-01 0.9400000D-01 0.9400000D-01 0.9400000D-01 0.9400000D-01
EXPONENTS  0.9400000D-01 0.9400000D-01 0.9563600D+07 0.1432100D+07 0.3259100D+06
EXPONENTS  0.9231200D+05 0.3011600D+05 0.1087200D+05 0.4240100D+04 0.1758400D+04
EXPONENTS  0.7665900D+03 0.3484300D+03 0.1640300D+03 0.7914200D+02 0.3552400D+02
EXPONENTS  0.1730500D+02 0.8378400D+01 0.3740500D+01 0.1689000D+01 0.2552000D+00
EXPONENTS  0.9563600D+07 0.1432100D+07 0.3259100D+06 0.9231200D+05 0.3011600D+05
EXPONENTS  0.1087200D+05 0.4240100D+04 0.1758400D+04 0.7665900D+03 0.3484300D+03
EXPONENTS  0.1640300D+03 0.7914200D+02 0.3552400D+02 0.1730500D+02 0.8378400D+01
EXPONENTS  0.3740500D+01 0.1689000D+01 0.2552000D+00 0.9563600D+07 0.1432100D+07
EXPONENTS  0.3259100D+06 0.9231200D+05 0.3011600D+05 0.1087200D+05 0.4240100D+04
EXPONENTS  0.1758400D+04 0.7665900D+03 0.3484300D+03 0.1640300D+03 0.7914200D+02
EXPONENTS  0.3552400D+02 0.1730500D+02 0.8378400D+01 0.3740500D+01 0.1689000D+01
EXPONENTS  0.2552000D+00 0.9563600D+07 0.1432100D+07 0.3259100D+06 0.9231200D+05
EXPONENTS  0.3011600D+05 0.1087200D+05 0.4240100D+04 0.1758400D+04 0.7665900D+03
EXPONENTS  0.3484300D+03 0.1640300D+03 0.7914200D+02 0.3552400D+02 0.1730500D+02
EXPONENTS  0.8378400D+01 0.3740500D+01 0.1689000D+01 0.2552000D+00 0.5092700D+00
EXPONENTS  0.1065100D+00 0.3920100D-01 0.8004300D+04 0.1896900D+04 0.6147100D+03
EXPONENTS  0.2335000D+03 0.9785600D+02 0.4351400D+02 0.2006300D+02 0.9112700D+01
EXPONENTS  0.4106300D+01 0.1794900D+01 0.2461500D+00 0.8004300D+04 0.1896900D+04
EXPONENTS  0.6147100D+03 0.2335000D+03 0.9785600D+02 0.4351400D+02 0.2006300D+02
EXPONENTS  0.9112700D+01 0.4106300D+01 0.1794900D+01 0.2461500D+00 0.8004300D+04
EXPONENTS  0.1896900D+04 0.6147100D+03 0.2335000D+03 0.9785600D+02 0.4351400D+02
EXPONENTS  0.2006300D+02 0.9112700D+01 0.4106300D+01 0.1794900D+01 0.2461500D+00
EXPONENTS  0.8004300D+04 0.1896900D+04 0.6147100D+03 0.2335000D+03 0.9785600D+02
EXPONENTS  0.4351400D+02 0.2006300D+02 0.9112700D+01 0.4106300D+01 0.1794900D+01
EXPONENTS  0.2461500D+00 0.8004300D+04 0.1896900D+04 0.6147100D+03 0.2335000D+03
EXPONENTS  0.9785600D+02 0.4351400D+02 0.2006300D+02 0.9112700D+01 0.4106300D+01
EXPONENTS  0.1794900D+01 0.2461500D+00 0.8004300D+04 0.1896900D+04 0.6147100D+03
EXPONENTS  0.2335000D+03 0.9785600D+02 0.4351400D+02 0.2006300D+02 0.9112700D+01
EXPONENTS  0.4106300D+01 0.1794900D+01 0.2461500D+00 0.8004300D+04 0.1896900D+04
EXPONENTS  0.6147100D+03 0.2335000D+03 0.9785600D+02 0.4351400D+02 0.2006300D+02
EXPONENTS  0.9112700D+01 0.4106300D+01 0.1794900D+01 0.2461500D+00 0.8004300D+04
EXPONENTS  0.1896900D+04 0.6147100D+03 0.2335000D+03 0.9785600D+02 0.4351400D+02
EXPONENTS  0.2006300D+02 0.9112700D+01 0.4106300D+01 0.1794900D+01 0.2461500D+00
EXPONENTS  0.8004300D+04 0.1896900D+04 0.6147100D+03 0.2335000D+03 0.9785600D+02
EXPONENTS  0.4351400D+02 0.2006300D+02 0.9112700D+01 0.4106300D+01 0.1794900D+01
EXPONENTS  0.2461500D+00 0.6243200D+00 0.6243200D+00 0.6243200D+00 0.8891700D-01
EXPONENTS  0.8891700D-01 0.8891700D-01 0.3025100D-01 0.3025100D-01 0.3025100D-01
EXPONENTS  0.3618500D+03 0.1085500D+03 0.4143300D+02 0.1757900D+02 0.7862700D+01
EXPONENTS  0.3518000D+01 0.1534800D+01 0.3618500D+03 0.1085500D+03 0.4143300D+02
EXPONENTS  0.1757900D+02 0.7862700D+01 0.3518000D+01 0.1534800D+01 0.3618500D+03
EXPONENTS  0.1085500D+03 0.4143300D+02 0.1757900D+02 0.7862700D+01 0.3518000D+01
EXPONENTS  0.1534800D+01 0.3618500D+03 0.1085500D+03 0.4143300D+02 0.1757900D+02
EXPONENTS  0.7862700D+01 0.3518000D+01 0.1534800D+01 0.3618500D+03 0.1085500D+03
EXPONENTS  0.4143300D+02 0.1757900D+02 0.7862700D+01 0.3518000D+01 0.1534800D+01
EXPONENTS  0.3618500D+03 0.1085500D+03 0.4143300D+02 0.1757900D+02 0.7862700D+01
EXPONENTS  0.3518000D+01 0.1534800D+01 0.6081300D+00 0.6081300D+00 0.6081300D+00
EXPONENTS  0.6081300D+00 0.6081300D+00 0.6081300D+00 0.2220000D+00 0.2220000D+00
EXPONENTS  0.2220000D+00 0.2220000D+00 0.2220000D+00 0.2220000D+00 0.8370000D-01
EXPONENTS  0.8370000D-01 0.8370000D-01 0.8370000D-01 0.8370000D-01 0.8370000D-01
EXPONENTS  0.4620000D+00 0.4620000D+00 0.4620000D+00 0.4620000D+00 0.4620000D+00
EXPONENTS  0.4620000D+00 0.4620000D+00 0.4620000D+00 0.4620000D+00 0.4620000D+00
EXPONENTS  0.1880000D+00 0.1880000D+00 0.1880000D+00 0.1880000D+00 0.1880000D+00
EXPONENTS  0.1880000D+00 0.1880000D+00 0.1880000D+00 0.1880000D+00 0.1880000D+00
MO    1     MO 0.0        OCC NO =    2.0000000  ORB. ENERGY = -452.054333
 -0.45929738D-05 -0.85875413D-05 -0.14802996D-04 -0.23875003D-04 -0.35833022D-04
 -0.48024987D-04 -0.52783954D-04 -0.39507599D-04 -0.13563446D-04 -0.76452429D-06
  0.53307928D-07 -0.12661550D-07 -0.78917769D-09  0.98685745D-05  0.18511543D-04
  0.31843101D-04  0.51964053D-04  0.78859140D-04  0.11167829D-03  0.13502823D-03
  0.13333479D-03  0.66685698D-04 -0.37340623D-04 -0.59629719D-04 -0.19461851D-04
  0.11320375D-06 -0.57160358D-05 -0.10714203D-04 -0.18453580D-04 -0.30081509D-04
 -0.45794880D-04 -0.64896829D-04 -0.79304875D-04 -0.79406232D-04 -0.41462909D-04
  0.25816321D-04  0.46677303D-04  0.34213825D-04 -0.15597023D-04 -0.16959342D-04
 -0.26091682D-05  0.38603930D-06  0.69882388D-15  0.90319302D-15  0.97384437D-15
  0.80279972D-15  0.43830544D-15  0.14053880D-15  0.15828409D-16 -0.18163811D-18
 -0.41648425D-15 -0.53828394D-15 -0.58039064D-15 -0.47845165D-15 -0.26122077D-15
 -0.83758153D-16 -0.94333972D-17  0.10825247D-18 -0.12869096D-03 -0.16632629D-03
 -0.17933699D-03 -0.14783849D-03 -0.80715544D-04 -0.25880733D-04 -0.29148593D-05
  0.33449320D-07 -0.67919308D-15 -0.87777921D-15 -0.96064733D-15 -0.80259568D-15
 -0.44900666D-15 -0.15209558D-15 -0.23803824D-16  0.44959766D-16  0.45162227D-15
  0.58367002D-15  0.63877231D-15  0.53367753D-15  0.29856224D-15  0.10113435D-15
  0.15828102D-16 -0.29895522D-16  0.11660573D-03  0.15069954D-03  0.16492656D-03
  0.13779182D-03  0.77086692D-04  0.26112186D-04  0.40867057D-05 -0.77188156D-05
 -0.31933900D-16  0.14937948D-16 -0.82315908D-05  0.32757552D-17 -0.24129975D-17
  0.27367586D-07 -0.35373149D-18 -0.35042888D-18  0.31445151D-08  0.15940920D-06
  0.15940920D-06 -0.31881840D-06 -0.10529648D-16 -0.35334341D-17  0.33378323D-17
  0.18343569D-06  0.18343569D-06 -0.36687137D-06  0.95948498D-17  0.13411851D-17
  0.18839241D-16  0.23772835D-07  0.23772835D-07 -0.47545671D-07 -0.43892239D-18
 -0.17038781D-17  0.44182246D-18  0.11902840D-19  0.53821508D-18  0.77409986D-06
  0.11940069D-19  0.53827068D-18 -0.11611498D-05 -0.47648589D-19 -0.21529159D-17
 -0.11611498D-05 -0.17011341D-18  0.56309379D-18 -0.20035354D-18  0.79953263D-07
  0.56309208D-18 -0.20035520D-18 -0.11992989D-06 -0.22523734D-17  0.80141581D-18
 -0.11992989D-06  0.14472550D-19  0.77215834D+00  0.14427419D+01  0.25022550D+01
  0.40993330D+01  0.64192299D+01  0.96399715D+01  0.13749359D+02  0.18165689D+02
  0.20949505D+02  0.18855227D+02  0.10578251D+02  0.25573488D+01  0.12141024D+00
 -0.20776942D-02  0.58436584D-03 -0.22772643D-03  0.21540321D-04  0.21239210D-05
  0.91126961D-04  0.16781172D-03  0.29127898D-03  0.47706041D-03  0.75087113D-03
  0.11333405D-02  0.16520804D-02  0.22686534D-02  0.28811610D-02  0.31028276D-02
  0.24753776D-02  0.55446483D-03 -0.14826265D-02 -0.13184618D-02 -0.25750094D-03
 -0.71333057D-05 -0.51656974D-06 -0.10549767D-07 -0.58909194D-04 -0.10635509D-03
 -0.18514397D-03 -0.30318106D-03 -0.47798221D-03 -0.72126200D-03 -0.10556206D-02
 -0.14545065D-02 -0.18737941D-02 -0.20624580D-02 -0.17362552D-02 -0.41346450D-03
  0.13927074D-02  0.18609491D-02  0.22862140D-03 -0.79883422D-03 -0.35263334D-03
  0.17500558D-05  0.18730719D-04  0.40579894D-04  0.69081953D-04  0.11276615D-03
  0.17778068D-03  0.26828104D-03  0.39265206D-03  0.54163891D-03  0.69865757D-03
  0.77237713D-03  0.65414616D-03  0.15889645D-03 -0.55127706D-03 -0.77806435D-03
 -0.92833793D-04  0.43629747D-03  0.34875670D-03 -0.13212554D-03  0.14200717D-03
  0.53423362D-04  0.28037677D-05  0.15610250D-14  0.22373108D-14  0.29544548D-14
  0.33959968D-14  0.31241048D-14  0.19985754D-14  0.69178447D-15  0.77773117D-16
  0.98946362D-18  0.17145695D-18  0.17521034D-20 -0.14208817D-14 -0.20364531D-14
 -0.26892144D-14 -0.30911164D-14 -0.28436338D-14 -0.18191505D-14 -0.62967853D-15
 -0.70790924D-16 -0.90063311D-18 -0.15606415D-18 -0.15948058D-20  0.80275579D-05
  0.11505352D-04  0.15193259D-04  0.17463885D-04  0.16065683D-04  0.10277657D-04
  0.35574959D-05  0.39994760D-06  0.50883084D-08  0.88171591D-09  0.90101771D-11
  0.23508562D-15  0.33909249D-15  0.45162732D-15  0.53448432D-15  0.51361936D-15
  0.35303829D-15  0.11115225D-15 -0.53718881D-16 -0.55128575D-16 -0.13883421D-16
  0.15136845D-19 -0.29326274D-16 -0.42300839D-16 -0.56339245D-16 -0.66675424D-16
 -0.64072578D-16 -0.44040538D-16 -0.13865933D-16  0.67012800D-17  0.68771354D-17
  0.17319179D-17 -0.18882790D-20 -0.49878477D-03 -0.71945774D-03 -0.95822462D-03
 -0.11340236D-02 -0.10897541D-02 -0.74904675D-03 -0.23583344D-03  0.11397617D-03
  0.11696714D-03  0.29456667D-04 -0.32116076D-07 -0.17392616D-15 -0.25213849D-15
 -0.33465078D-15 -0.39937369D-15 -0.38370331D-15 -0.26857186D-15 -0.81092887D-16
  0.49640945D-16  0.53387949D-16  0.14357766D-16 -0.53521068D-17  0.42679246D-17
  0.61871548D-17  0.82119005D-17  0.98001176D-17  0.94155865D-17  0.65904087D-17
  0.19899153D-17 -0.12181250D-17 -0.13100717D-17 -0.35232114D-18  0.13133383D-18
  0.35220050D-03  0.51058048D-03  0.67766789D-03  0.80873180D-03  0.77699927D-03
  0.54385807D-03  0.16421311D-03 -0.10052292D-03 -0.10811061D-03 -0.29074479D-04
  0.10838017D-04 -0.11423557D-17 -0.64011496D-17 -0.62117078D-05  0.20067922D-16
 -0.95896743D-17 -0.14899280D-04  0.35403074D-18  0.47157559D-17 -0.19990508D-06
 -0.70276130D-04 -0.72742510D-04 -0.60861275D-04 -0.39272805D-04 -0.17641881D-04
 -0.51511437D-05 -0.86902951D-06 -0.70276130D-04 -0.72742510D-04 -0.60861275D-04
 -0.39272805D-04 -0.17641881D-04 -0.51511437D-05 -0.86902951D-06  0.14055226D-03
  0.14548502D-03  0.12172255D-03  0.78545610D-04  0.35283762D-04  0.10302287D-04
  0.17380590D-05  0.57504734D-15  0.59522895D-15  0.49800856D-15  0.32135694D-15
  0.14435793D-15  0.42150179D-16  0.71109936D-17  0.14843045D-14  0.15363970D-14
  0.12854530D-14  0.82948224D-15  0.37261476D-15  0.10879748D-15  0.18354802D-16
 -0.25763561D-14 -0.26667747D-14 -0.22312030D-14 -0.14397595D-14 -0.64675967D-15
 -0.18884336D-15 -0.31859032D-16  0.36046794D-05  0.36046794D-05 -0.72093588D-05
 -0.55483280D-17 -0.11635473D-16  0.13619319D-16 -0.13658962D-05 -0.13658962D-05
  0.27317924D-05 -0.13411744D-17 -0.13116384D-16  0.78708600D-17 -0.83703038D-06
 -0.83703038D-06  0.16740608D-05 -0.15018849D-17 -0.73849157D-17  0.10460219D-17
 -0.14743457D-18  0.47927751D-18  0.21831431D-05 -0.14737428D-18  0.47931159D-18
 -0.32747147D-05  0.58967799D-18 -0.19171441D-17 -0.32747147D-05 -0.10733703D-17
 -0.29697702D-19  0.79125432D-19 -0.10648200D-05 -0.29705466D-19  0.79099424D-19
  0.15972301D-05  0.11879857D-18 -0.31647572D-18  0.15972301D-05  0.22803139D-17
MO    2     MO 0.0        OCC NO =    2.0000000  ORB. ENERGY =  -57.365509
 -0.15471587D-03 -0.28927423D-03 -0.49864393D-03 -0.80423753D-03 -0.12070474D-02
 -0.16177379D-02 -0.17780453D-02 -0.13308268D-02 -0.45688924D-03 -0.25753258D-04
  0.17956955D-05 -0.42650859D-06 -0.26583716D-07  0.33174087D-03  0.62228189D-03
  0.10704340D-02  0.17468177D-02  0.26509198D-02  0.37541647D-02  0.45390934D-02
  0.44821670D-02  0.22416988D-02 -0.12552381D-02 -0.20045058D-02 -0.65422736D-03
  0.38054443D-05 -0.19341718D-03 -0.36254337D-03 -0.62442565D-03 -0.10178874D-02
 -0.15495908D-02 -0.21959558D-02 -0.26834901D-02 -0.26869198D-02 -0.14030071D-02
  0.87356347D-03  0.15794500D-02  0.11577152D-02 -0.52776652D-03 -0.56653540D-03
 -0.10675616D-03  0.12539419D-04  0.84866029D-16  0.10968487D-15  0.11826485D-15
  0.97492982D-16  0.53228350D-16  0.17067204D-16  0.19222215D-17 -0.22058355D-19
 -0.42936500D-16 -0.55493163D-16 -0.59834058D-16 -0.49324889D-16 -0.26929963D-16
 -0.86348570D-17 -0.97251471D-18  0.11160043D-19 -0.44909989D-02 -0.58043794D-02
 -0.62584210D-02 -0.51592007D-02 -0.28167745D-02 -0.90317407D-03 -0.10172144D-03
  0.11672992D-05 -0.31555634D-16 -0.40782040D-16 -0.44632132D-16 -0.37288977D-16
 -0.20861063D-16 -0.70664332D-17 -0.11059370D-17  0.20888521D-17  0.46774735D-15
  0.60450984D-15  0.66157954D-15  0.55273237D-15  0.30922234D-15  0.10474533D-15
  0.16393241D-16 -0.30962935D-16  0.41225426D-02  0.53279139D-02  0.58309039D-02
  0.48715675D-02  0.27253651D-02  0.92318451D-03  0.14448363D-03 -0.27289523D-03
 -0.71307119D-18  0.16913641D-16 -0.28388181D-03 -0.16056504D-17  0.23706449D-17
 -0.25614698D-05  0.24437398D-18 -0.45632397D-19  0.12042845D-06  0.70992651D-05
  0.70992651D-05 -0.14198530D-04  0.11679165D-16 -0.42412637D-17  0.89477369D-17
  0.11843548D-04  0.11843548D-04 -0.23687096D-04 -0.71543251D-16 -0.32232741D-17
 -0.14136985D-16  0.10392956D-05  0.10392956D-05 -0.20785912D-05  0.79452025D-18
 -0.13139101D-17  0.27367954D-18 -0.22558625D-18 -0.83448214D-18  0.22613291D-04
 -0.22556648D-18 -0.83522184D-18 -0.33919937D-04  0.90232522D-18  0.33386683D-17
 -0.33919937D-04 -0.40248149D-17  0.11847614D-18 -0.12920900D-18  0.24325416D-05
  0.11843951D-18 -0.12915462D-18 -0.36488123D-05 -0.47386792D-18  0.51678162D-18
 -0.36488123D-05 -0.53545783D-19 -0.72016238D-03 -0.13455898D-02 -0.23337570D-02
 -0.38232902D-02 -0.59869688D-02 -0.89908306D-02 -0.12823499D-01 -0.16942440D-01
 -0.19538798D-01 -0.17585545D-01 -0.98659278D-02 -0.23851408D-02 -0.11323466D-03
  0.19377854D-05 -0.54501554D-06  0.21239169D-06 -0.20089829D-07 -0.19808994D-08
  0.24629727D+00  0.45356025D+00  0.78726665D+00  0.12893953D+01  0.20294489D+01
  0.30631844D+01  0.44652305D+01  0.61316996D+01  0.77871804D+01  0.83862993D+01
  0.66904320D+01  0.14986034D+01 -0.40072318D+01 -0.35635287D+01 -0.69597161D+00
 -0.19279845D-01 -0.13961808D-02 -0.28513833D-04 -0.17239480D-02 -0.31124284D-02
 -0.54181452D-02 -0.88724414D-02 -0.13987909D-01 -0.21107370D-01 -0.30892207D-01
 -0.42565402D-01 -0.54835642D-01 -0.60356799D-01 -0.50810637D-01 -0.12099831D-01
  0.40756883D-01  0.54459740D-01  0.66904903D-02 -0.23377482D-01 -0.10319638D-01
  0.51214505D-04  0.57384418D-03  0.12432270D-02  0.21164312D-02  0.34547634D-02
  0.54465828D-02  0.82191994D-02  0.12029496D-01  0.16593935D-01  0.21404442D-01
  0.23662953D-01  0.20040767D-01  0.48680354D-02 -0.16889215D-01 -0.23837190D-01
 -0.28441050D-02  0.13366639D-01  0.10684694D-01 -0.40478676D-02  0.44772009D-02
  0.17426331D-02  0.12270057D-03  0.86467992D-14  0.12392869D-13  0.16365258D-13
  0.18811039D-13  0.17304980D-13  0.11070470D-13  0.38319191D-14  0.43079933D-15
  0.54808176D-17  0.94973097D-18  0.97052170D-20 -0.55224374D-14 -0.79149335D-14
 -0.10451973D-13 -0.12014016D-13 -0.11052144D-13 -0.70703594D-14 -0.24473256D-14
 -0.27513792D-15 -0.35004250D-17 -0.60656316D-18 -0.61984154D-20  0.19780234D-01
  0.28349663D-01  0.37436818D-01  0.43031734D-01  0.39586506D-01  0.25324572D-01
  0.87658167D-02  0.98548740D-03  0.12537802D-04  0.21725844D-05  0.22201448D-07
  0.89787453D-15  0.12951133D-14  0.17249233D-14  0.20413833D-14  0.19616927D-14
  0.13483772D-14  0.42452948D-15 -0.20517127D-15 -0.21055538D-15 -0.53025659D-16
  0.57812925D-19  0.77140396D-15  0.11126894D-14  0.14819584D-14  0.17538432D-14
  0.16853775D-14  0.11584508D-14  0.36473217D-15 -0.17627176D-15 -0.18089750D-15
 -0.45556703D-16  0.49669656D-19 -0.13942878D-01 -0.20111503D-01 -0.26785920D-01
 -0.31700151D-01 -0.30462655D-01 -0.20938625D-01 -0.65924164D-02  0.31860553D-02
  0.32696640D-02  0.82342273D-03 -0.89776304D-06 -0.13874194D-15 -0.20113238D-15
 -0.26695294D-15 -0.31858279D-15 -0.30608243D-15 -0.21424139D-15 -0.64688283D-16
  0.39598880D-16  0.42587888D-16  0.11453276D-16 -0.42694077D-17 -0.47235445D-15
 -0.68476610D-15 -0.90885574D-15 -0.10846324D-14 -0.10420742D-14 -0.72939640D-15
 -0.22023476D-15  0.13481653D-15  0.14499277D-15  0.38993299D-16 -0.14535430D-16
  0.10177220D-01  0.14753783D-01  0.19581958D-01  0.23369193D-01  0.22452247D-01
  0.15715376D-01  0.47451181D-02 -0.29047202D-02 -0.31239747D-02 -0.84013897D-03
  0.31317640D-03  0.17346194D-16 -0.71630399D-17 -0.14670198D-03  0.83863661D-17
 -0.69412475D-17 -0.49768668D-03  0.29493355D-18 -0.34999457D-17 -0.81997629D-05
 -0.63598964D-03 -0.65831005D-03 -0.55078645D-03 -0.35541367D-03 -0.15965668D-03
 -0.46617166D-04 -0.78646016D-05 -0.63598964D-03 -0.65831005D-03 -0.55078645D-03
 -0.35541367D-03 -0.15965668D-03 -0.46617166D-04 -0.78646016D-05  0.12719793D-02
  0.13166201D-02  0.11015729D-02  0.71082733D-03  0.31931335D-03  0.93234332D-04
  0.15729203D-04  0.23151147D-15  0.23963650D-15  0.20049601D-15  0.12937686D-15
  0.58117853D-16  0.16969472D-16  0.28628540D-17 -0.16982201D-14 -0.17578200D-14
 -0.14707104D-14 -0.94902587D-15 -0.42631539D-15 -0.12447720D-15 -0.21000066D-16
  0.14996638D-14  0.15522954D-14  0.12987547D-14  0.83806558D-15  0.37647052D-15
  0.10992330D-15  0.18544734D-16  0.11411495D-03  0.11411495D-03 -0.22822991D-03
 -0.18064471D-17  0.12613886D-16  0.51482334D-18 -0.49604348D-04 -0.49604348D-04
  0.99208697D-04 -0.52352370D-17  0.73858782D-17 -0.15215672D-16 -0.27533778D-04
 -0.27533778D-04  0.55067556D-04  0.16436880D-17  0.18870303D-17  0.72243888D-17
  0.60784415D-18  0.84893300D-18  0.65780303D-04  0.60869199D-18  0.84800707D-18
 -0.98670455D-04 -0.24322244D-17 -0.33948061D-17 -0.98670455D-04  0.67070596D-17
 -0.43484279D-18 -0.89467692D-18 -0.35351194D-04 -0.43470843D-18 -0.89460568D-18
  0.53026791D-04  0.17392368D-17  0.35786365D-17  0.53026791D-04 -0.86168586D-18
MO    3     MO 0.0        OCC NO =    2.0000000  ORB. ENERGY =  -51.515403
  0.73774798D-04  0.13793768D-03  0.23777364D-03  0.38349306D-03  0.57556914D-03
  0.77140299D-03  0.84784406D-03  0.63459216D-03  0.21786331D-03  0.12280198D-04
 -0.85626042D-06  0.20337658D-06  0.12676194D-07 -0.16441984D-03 -0.30841992D-03
 -0.53053637D-03 -0.86577059D-03 -0.13138683D-02 -0.18606667D-02 -0.22496988D-02
 -0.22214845D-02 -0.11110472D-02  0.62213032D-03  0.99348788D-03  0.32425297D-03
 -0.18860823D-05  0.10305249D-03  0.19316276D-03  0.33269338D-03  0.54232942D-03
  0.82562050D-03  0.11700031D-02  0.14297609D-02  0.14315883D-02  0.74752085D-03
 -0.46543377D-03 -0.84152941D-03 -0.61682955D-03  0.28119349D-03  0.47934229D-04
  0.13449972D-04 -0.10194630D-05 -0.10011289D-14 -0.12939063D-14 -0.13951208D-14
 -0.11500838D-14 -0.62791249D-15 -0.20133464D-15 -0.22675639D-16  0.26021314D-18
  0.65870271D-15  0.85133853D-15  0.91793361D-15  0.75670905D-15  0.41314127D-15
  0.13247013D-15  0.14919662D-16 -0.17120983D-18  0.23805318D-02  0.30767118D-02
  0.33173844D-02  0.27347237D-02  0.14930801D-02  0.47874306D-03  0.53919210D-04
 -0.61874715D-06  0.91511394D-15  0.11826799D-14  0.12943326D-14  0.10813810D-14
  0.60497121D-15  0.20492669D-15  0.32072193D-16 -0.60576749D-16 -0.38946861D-15
 -0.50334354D-15 -0.55086247D-15 -0.46023117D-15 -0.25747318D-15 -0.87215929D-16
 -0.13649789D-16  0.25781207D-16 -0.25253098D-02 -0.32636734D-02 -0.35717857D-02
 -0.29841333D-02 -0.16694530D-02 -0.56550703D-03 -0.88505068D-04  0.16716504D-03
  0.65320224D-16 -0.10246836D-16  0.18383421D-03  0.10767980D-16  0.57718732D-17
  0.26797090D-05  0.12293202D-18 -0.25754913D-18  0.35398119D-07 -0.30176599D-04
 -0.30176599D-04  0.60353198D-04 -0.80957224D-17  0.65298003D-17 -0.57571762D-17
 -0.33874532D-04 -0.33874532D-04  0.67749064D-04  0.38704804D-16 -0.38814308D-16
  0.43712222D-17 -0.15751034D-05 -0.15751034D-05  0.31502069D-05  0.87796422D-18
  0.12733031D-16  0.26268923D-17  0.14448403D-16  0.13717613D-17  0.21497995D-04
  0.14447782D-16  0.13721196D-17 -0.32246992D-04 -0.57792992D-16 -0.54874035D-17
 -0.32246992D-04  0.59214253D-18 -0.13420731D-17 -0.53023185D-19  0.30151198D-05
 -0.13420514D-17 -0.52975826D-19 -0.45226797D-05  0.53682706D-17  0.21204538D-18
 -0.45226797D-05 -0.34361637D-19  0.50311953D-05  0.94005538D-05  0.16304083D-04
  0.26710253D-04  0.41826135D-04  0.62811701D-04  0.89587471D-04  0.11836320D-03
  0.13650186D-03  0.12285605D-03  0.68925301D-04  0.16663060D-04  0.79107950D-06
 -0.13537748D-07  0.38075852D-08 -0.14838099D-08  0.14035147D-09  0.13838951D-10
 -0.90643051D-04 -0.16692059D-03 -0.28973221D-03 -0.47452708D-03 -0.74688379D-03
 -0.11273222D-02 -0.16433074D-02 -0.22566063D-02 -0.28658612D-02 -0.30863507D-02
 -0.24622326D-02 -0.55152046D-03  0.14747533D-02  0.13114604D-02  0.25613353D-03
  0.70954259D-05  0.51382661D-06  0.10493745D-07  0.13435872D-04  0.24257223D-04
  0.42227206D-04  0.69148831D-04  0.10901707D-03  0.16450376D-03  0.24076349D-03
  0.33174046D-03  0.42737059D-03  0.47040064D-03  0.39600106D-03  0.94302022D-04
 -0.31764547D-03 -0.42444094D-03 -0.52143437D-04  0.18219625D-03  0.80427792D-04
 -0.39914867D-06 -0.80157395D-05 -0.17366011D-04 -0.29563358D-04 -0.48257845D-04
 -0.76080563D-04 -0.11480984D-03 -0.16803395D-03 -0.23179230D-03 -0.29898784D-03
 -0.33053584D-03 -0.27993935D-03 -0.67999128D-04  0.23591691D-03  0.33296966D-03
  0.39727867D-04 -0.18671184D-03 -0.14924910D-03  0.56542618D-04  0.14739323D-03
 -0.61934591D-03  0.11127986D-04  0.15640223D-09  0.22416067D-09  0.29601277D-09
  0.34025175D-09  0.31301034D-09  0.20024129D-09  0.69311278D-10  0.77922450D-11
  0.99136350D-13  0.17178616D-13  0.17554676D-15  0.13555970D-10  0.19428849D-10
  0.25656541D-10  0.29490900D-10  0.27129785D-10  0.17355667D-10  0.60074693D-11
  0.67538320D-12  0.85925206D-14  0.14889353D-14  0.15215299D-16  0.48627514D+02
  0.69694506D+02  0.92034269D+02  0.10578875D+03  0.97319039D+02  0.62257655D+02
  0.21549789D+02  0.24227116D+01  0.30822797D-01  0.53410581D-02  0.54579801D-04
 -0.10116431D-13 -0.14592154D-13 -0.19434861D-13 -0.23000444D-13 -0.22102563D-13
 -0.15192283D-13 -0.47832107D-14  0.23116826D-14  0.23723459D-14  0.59744473D-15
 -0.65138327D-18 -0.10016398D-14 -0.14447865D-14 -0.19242687D-14 -0.22773012D-14
 -0.21884010D-14 -0.15042060D-14 -0.47359137D-15  0.22888244D-15  0.23488878D-15
  0.59153712D-16 -0.64494232D-19 -0.21763504D-01 -0.31392140D-01 -0.41810269D-01
 -0.49480916D-01 -0.47549302D-01 -0.32683199D-01 -0.10290134D-01  0.49731289D-02
  0.51036340D-02  0.12852844D-02 -0.14013226D-05  0.32045282D-13  0.46455628D-13
  0.61658228D-13  0.73583196D-13  0.70695983D-13  0.49483419D-13  0.14941079D-13
 -0.91461692D-14 -0.98365417D-14 -0.26453678D-14  0.98610683D-15  0.31768543D-14
  0.46054444D-14  0.61125756D-14  0.72947742D-14  0.70085463D-14  0.49056088D-14
  0.14812050D-14 -0.90671842D-15 -0.97515947D-15 -0.26225228D-15  0.97759095D-16
  0.22649479D-01  0.32834655D-01  0.43579793D-01  0.52008313D-01  0.49967642D-01
  0.34974686D-01  0.10560296D-01 -0.64644764D-02 -0.69524289D-02 -0.18697355D-02
  0.69697642D-03 -0.47497872D-14 -0.40078123D-15 -0.18941040D-02 -0.21751707D-15
 -0.15212924D-16  0.60024418D-04 -0.18954617D-17 -0.38168774D-17 -0.29416491D-05
  0.14856870D-02  0.15378280D-02  0.12866503D-02  0.83025480D-03  0.37296180D-03
  0.10889881D-03  0.18371897D-04  0.14856870D-02  0.15378280D-02  0.12866503D-02
  0.83025480D-03  0.37296180D-03  0.10889881D-03  0.18371897D-04 -0.29713739D-02
 -0.30756559D-02 -0.25733006D-02 -0.16605096D-02 -0.74592361D-03 -0.21779762D-03
 -0.36743794D-04  0.11299164D-15  0.11695715D-15  0.97854215D-16  0.63143756D-16
  0.28365038D-16  0.82821321D-17  0.13972464D-17 -0.86098382D-14 -0.89120052D-14
 -0.74563828D-14 -0.48114843D-14 -0.21613845D-14 -0.63108930D-15 -0.10646863D-15
 -0.50092823D-15 -0.51850858D-15 -0.43381915D-15 -0.27993654D-15 -0.12575132D-15
 -0.36717350D-16 -0.61944420D-17 -0.58465939D-04 -0.58465939D-04  0.11693188D-03
  0.16471264D-18  0.16075336D-15  0.18041460D-16  0.61879080D-04  0.61879080D-04
 -0.12375816D-03 -0.40242647D-18 -0.94447616D-16 -0.15857434D-16 -0.10863013D-05
 -0.10863013D-05  0.21726027D-05  0.83494930D-20  0.31451596D-16  0.38996981D-17
 -0.18392696D-16 -0.19742579D-17  0.41375122D-04 -0.18393371D-16 -0.19729420D-17
 -0.62062683D-04  0.73571460D-16  0.78957157D-17 -0.62062683D-04 -0.35003931D-17
  0.65745364D-18  0.21468297D-18  0.41753438D-05  0.65773884D-18  0.21449572D-18
 -0.62630157D-05 -0.26300998D-17 -0.85854463D-18 -0.62630157D-05 -0.25982358D-18
MO    4     MO 0.0        OCC NO =    2.0000000  ORB. ENERGY =  -51.512363
 -0.23621931D-15 -0.44166224D-15 -0.76132671D-15 -0.12279053D-14 -0.18429131D-14
 -0.24699530D-14 -0.27147094D-14 -0.20318988D-14 -0.69757589D-15 -0.39319929D-16