 Molden2AIM, Version 4.0.0 (06/02/2016)           Time: Thu Jun 28 23:47:01 2018
GAUSSIAN             10 MOL ORBITALS    215 PRIMITIVES        2 NUCLEI
  Na   1    (CENTRE  1)   0.00000000  0.00000000 -2.30925099  CHARGE = 11.0
  F    2    (CENTRE  2)   0.00000000  0.00000000  1.34104981  CHARGE =  9.0
CENTRE ASSIGNMENTS    1  1  1  1  1  1  1  1  1  1  1  1  1  1  1  1  1  1  1  1
CENTRE ASSIGNMENTS    1  1  1  1  1  1  1  1  1  1  1  1  1  1  1  1  1  1  1  1
CENTRE ASSIGNMENTS    1  1  1  1  1  1  1  1  1  1  1  1  1  1  1  1  1  1  1  1
CENTRE ASSIGNMENTS    1  1  1  1  1  1  1  1  1  1  1  1  1  1  1  1  1  1  1  1
CENTRE ASSIGNMENTS    1  1  1  1  1  1  1  1  1  1  1  1  1  1  1  1  1  1  1  1
CENTRE ASSIGNMENTS    1  1  1  1  1  1  1  1  1  1  1  1  1  1  1  1  1  1  1  1
CENTRE ASSIGNMENTS    1  1  1  1  1  1  1  1  1  1  1  1  1  1  1  1  1  1  1  1
CENTRE ASSIGNMENTS    2  2  2  2  2  2  2  2  2  2  2  2  2  2  2  2  2  2  2  2
CENTRE ASSIGNMENTS    2  2  2  2  2  2  2  2  2  2  2  2  2  2  2  2  2  2  2  2
CENTRE ASSIGNMENTS    2  2  2  2  2  2  2  2  2  2  2  2  2  2  2  2  2  2  2  2
CENTRE ASSIGNMENTS    2  2  2  2  2  2  2  2  2  2  2  2  2  2  2
TYPE ASSIGNMENTS      1  1  1  1  1  1  1  1  1  1  1  1  1  1  1  1  1  1  1  1
TYPE ASSIGNMENTS      1  1  1  1  1  1  1  1  1  1  1  1  1  1  1  1  1  1  1  1
TYPE ASSIGNMENTS      1  1  1  1  1  2  2  2  2  2  2  2  2  3  3  3  3  3  3  3
TYPE ASSIGNMENTS      3  4  4  4  4  4  4  4  4  2  2  2  2  2  2  2  2  3  3  3
TYPE ASSIGNMENTS      3  3  3  3  3  4  4  4  4  4  4  4  4  2  3  4  2  3  4  2
TYPE ASSIGNMENTS      3  4  5  6  7  8  9 10  5  6  7  8  9 10  5  6  7  8  9 10
TYPE ASSIGNMENTS     11 12 13 17 14 15 18 19 16 20 11 12 13 17 14 15 18 19 16 20
TYPE ASSIGNMENTS      1  1  1  1  1  1  1  1  1  1  1  1  1  1  1  1  1  1  1  2
TYPE ASSIGNMENTS      2  2  3  3  3  4  4  4  2  3  4  2  3  4  2  3  4  5  6  7
TYPE ASSIGNMENTS      8  9 10  5  6  7  8  9 10  5  6  7  8  9 10 11 12 13 17 14
TYPE ASSIGNMENTS     15 18 19 16 20 11 12 13 17 14 15 18 19 16 20
EXPONENTS  0.4230000D+06 0.6334000D+05 0.1441000D+05 0.4077000D+04 0.1328000D+04
EXPONENTS  0.4786000D+03 0.1862000D+03 0.7692000D+02 0.3332000D+02 0.1500000D+02
EXPONENTS  0.6869000D+01 0.2683000D+01 0.1109000D+01 0.6015000D-01 0.4230000D+06
EXPONENTS  0.6334000D+05 0.1441000D+05 0.4077000D+04 0.1328000D+04 0.4786000D+03
EXPONENTS  0.1862000D+03 0.7692000D+02 0.3332000D+02 0.1500000D+02 0.6869000D+01
EXPONENTS  0.2683000D+01 0.1109000D+01 0.6015000D-01 0.4230000D+06 0.6334000D+05
EXPONENTS  0.1441000D+05 0.4077000D+04 0.1328000D+04 0.4786000D+03 0.1862000D+03
EXPONENTS  0.7692000D+02 0.3332000D+02 0.1500000D+02 0.6869000D+01 0.2683000D+01
EXPONENTS  0.1109000D+01 0.6015000D-01 0.4540000D+00 0.2382000D-01 0.6650000D-02
EXPONENTS  0.2433000D+03 0.5739000D+02 0.1810000D+02 0.6575000D+01 0.2521000D+01
EXPONENTS  0.9607000D+00 0.3512000D+00 0.9827000D-01 0.2433000D+03 0.5739000D+02
EXPONENTS  0.1810000D+02 0.6575000D+01 0.2521000D+01 0.9607000D+00 0.3512000D+00
EXPONENTS  0.9827000D-01 0.2433000D+03 0.5739000D+02 0.1810000D+02 0.6575000D+01
EXPONENTS  0.2521000D+01 0.9607000D+00 0.3512000D+00 0.9827000D-01 0.2433000D+03
EXPONENTS  0.5739000D+02 0.1810000D+02 0.6575000D+01 0.2521000D+01 0.9607000D+00
EXPONENTS  0.3512000D+00 0.9827000D-01 0.2433000D+03 0.5739000D+02 0.1810000D+02
EXPONENTS  0.6575000D+01 0.2521000D+01 0.9607000D+00 0.3512000D+00 0.9827000D-01
EXPONENTS  0.2433000D+03 0.5739000D+02 0.1810000D+02 0.6575000D+01 0.2521000D+01
EXPONENTS  0.9607000D+00 0.3512000D+00 0.9827000D-01 0.3734000D-01 0.3734000D-01
EXPONENTS  0.3734000D-01 0.1500000D-01 0.1500000D-01 0.1500000D-01 0.7000000D-02
EXPONENTS  0.7000000D-02 0.7000000D-02 0.1367000D+00 0.1367000D+00 0.1367000D+00
EXPONENTS  0.1367000D+00 0.1367000D+00 0.1367000D+00 0.6360000D-01 0.6360000D-01
EXPONENTS  0.6360000D-01 0.6360000D-01 0.6360000D-01 0.6360000D-01 0.2230000D-01
EXPONENTS  0.2230000D-01 0.2230000D-01 0.2230000D-01 0.2230000D-01 0.2230000D-01
EXPONENTS  0.1397000D+00 0.1397000D+00 0.1397000D+00 0.1397000D+00 0.1397000D+00
EXPONENTS  0.1397000D+00 0.1397000D+00 0.1397000D+00 0.1397000D+00 0.1397000D+00
EXPONENTS  0.7140000D-01 0.7140000D-01 0.7140000D-01 0.7140000D-01 0.7140000D-01
EXPONENTS  0.7140000D-01 0.7140000D-01 0.7140000D-01 0.7140000D-01 0.7140000D-01
EXPONENTS  0.1950000D+05 0.2923000D+04 0.6645000D+03 0.1875000D+03 0.6062000D+02
EXPONENTS  0.2142000D+02 0.7950000D+01 0.8815000D+00 0.1950000D+05 0.2923000D+04
EXPONENTS  0.6645000D+03 0.1875000D+03 0.6062000D+02 0.2142000D+02 0.7950000D+01
EXPONENTS  0.8815000D+00 0.2257000D+01 0.3041000D+00 0.9158000D-01 0.4388000D+02
EXPONENTS  0.9926000D+01 0.2930000D+01 0.4388000D+02 0.9926000D+01 0.2930000D+01
EXPONENTS  0.4388000D+02 0.9926000D+01 0.2930000D+01 0.9132000D+00 0.9132000D+00
EXPONENTS  0.9132000D+00 0.2672000D+00 0.2672000D+00 0.2672000D+00 0.7361000D-01
EXPONENTS  0.7361000D-01 0.7361000D-01 0.3107000D+01 0.3107000D+01 0.3107000D+01
EXPONENTS  0.3107000D+01 0.3107000D+01 0.3107000D+01 0.8550000D+00 0.8550000D+00
EXPONENTS  0.8550000D+00 0.8550000D+00 0.8550000D+00 0.8550000D+00 0.2920000D+00
EXPONENTS  0.2920000D+00 0.2920000D+00 0.2920000D+00 0.2920000D+00 0.2920000D+00
EXPONENTS  0.1917000D+01 0.1917000D+01 0.1917000D+01 0.1917000D+01 0.1917000D+01
EXPONENTS  0.1917000D+01 0.1917000D+01 0.1917000D+01 0.1917000D+01 0.1917000D+01
EXPONENTS  0.7240000D+00 0.7240000D+00 0.7240000D+00 0.7240000D+00 0.7240000D+00
EXPONENTS  0.7240000D+00 0.7240000D+00 0.7240000D+00 0.7240000D+00 0.7240000D+00
MO    1     MO 0.0        OCC NO =    2.0000000  ORB. ENERGY =  -37.955276
  0.21369242D+00  0.39993669D+00  0.69276324D+00  0.11325120D+01  0.17587470D+01
  0.25752262D+01  0.34512960D+01  0.39598425D+01  0.34493603D+01  0.17645919D+01
  0.34088556D+00  0.10568978D-01  0.46097770D-03 -0.45992574D-06 -0.30114589D-03
 -0.56498660D-03 -0.97604624D-03 -0.16058944D-02 -0.24948685D-02 -0.37354766D-02
 -0.51493752D-02 -0.64852009D-02 -0.66539304D-02 -0.51012703D-02 -0.76727624D-03
  0.29187741D-02  0.24995107D-02  0.20355580D-05  0.53567394D-04  0.10030742D-03
  0.17377488D-03  0.28489973D-03  0.44482521D-03  0.66279403D-03  0.92219727D-03
  0.11563966D-02  0.12150109D-02  0.93365405D-03  0.15780144D-03 -0.62758067D-03
 -0.60915822D-03  0.37059701D-03 -0.14739782D-02 -0.29889095D-04  0.29368531D-05
 -0.66928580D-18 -0.85312693D-18 -0.89708980D-18 -0.71604884D-18 -0.37323623D-18
 -0.11658715D-18 -0.13462914D-19 -0.39846302D-22 -0.46956653D-18 -0.59854826D-18
 -0.62939232D-18 -0.50237517D-18 -0.26186009D-18 -0.81796779D-19 -0.94454925D-20
 -0.27955904D-22  0.19838445D-02  0.25287720D-02  0.26590833D-02  0.21224558D-02
  0.11063176D-02  0.34557849D-03  0.39905715D-04  0.11810928D-06  0.12417385D-18
  0.15995622D-18  0.16821749D-18  0.13776179D-18  0.70939171D-19  0.24879051D-19
  0.30182736D-20 -0.58408140D-20  0.99405326D-18  0.12805031D-17  0.13466374D-17
  0.11028293D-17  0.56789183D-18  0.19916514D-18  0.24162291D-19 -0.46757673D-19
 -0.26528533D-02 -0.34173088D-02 -0.35938029D-02 -0.29431465D-02 -0.15155463D-02
 -0.53151670D-03 -0.64482476D-04  0.12478330D-03 -0.53930246D-20 -0.27095036D-20
  0.43022701D-04  0.33418722D-20  0.35422001D-20 -0.62369445D-05 -0.45930117D-21
 -0.13464156D-20  0.84834635D-06 -0.10009746D-04 -0.10009746D-04  0.20019493D-04
  0.56950384D-20 -0.16535962D-19 -0.33430441D-19 -0.84578432D-05 -0.84578432D-05
  0.16915686D-04 -0.84570850D-21  0.60133676D-21 -0.66513664D-21  0.12101239D-06
  0.12101239D-06 -0.24202479D-06 -0.29343120D-22 -0.34164155D-21 -0.53654273D-21
  0.12463460D-20  0.24631116D-20  0.44381151D-05  0.12822551D-20  0.24209655D-20
 -0.66571727D-05 -0.50212931D-20 -0.98103003D-20 -0.66571727D-05  0.24824808D-21
 -0.27345417D-22  0.23716249D-21  0.15365960D-05 -0.29272076D-22  0.24196524D-21
 -0.23048941D-05  0.11130833D-21 -0.95345271D-21 -0.23048941D-05  0.50119684D-24
 -0.43490322D-04 -0.81067845D-04 -0.13742993D-03 -0.20810941D-03 -0.26024155D-03
 -0.22404373D-03 -0.86130591D-04  0.37321795D-06  0.27037578D-04  0.50771784D-04
  0.86455592D-04  0.13543217D-03  0.18149504D-03  0.19522239D-03  0.11721127D-03
 -0.77083061D-04  0.62139203D-04 -0.26998659D-04 -0.49481889D-03  0.10110878D-18
  0.98882182D-19  0.65335638D-19  0.10140515D-18  0.99172024D-19  0.65527149D-19
 -0.61354730D-04 -0.60003585D-04 -0.39646906D-04 -0.45663993D-19 -0.13149259D-18
  0.56473272D-04  0.35935496D-19  0.78290189D-19  0.71100262D-04  0.68335554D-20
  0.25579167D-19  0.28834041D-04 -0.14865860D-03 -0.14865860D-03  0.29731720D-03
 -0.16579490D-18 -0.66028475D-18 -0.14983766D-17  0.86155286D-04  0.86155286D-04
 -0.17231057D-03  0.14584035D-19  0.19602799D-18  0.37134404D-18 -0.35724525D-04
 -0.35724525D-04  0.71449049D-04 -0.97202564D-22 -0.63816926D-19 -0.12604488D-18
  0.44693120D-19  0.24937218D-18  0.59294942D-03  0.32572227D-18 -0.15091949D-18
 -0.88942413D-03 -0.45980163D-18 -0.59719705D-18 -0.88942413D-03  0.83901389D-20
 -0.13382889D-19 -0.29961108D-19 -0.15311304D-03 -0.28866798D-19 -0.71756374D-20
  0.22966956D-03  0.69015465D-19  0.97058961D-19  0.22966956D-03 -0.11746555D-20
MO    2     MO 0.0        OCC NO =    2.0000000  ORB. ENERGY =  -24.067173
 -0.34880931D-05 -0.65281512D-05 -0.11307948D-04 -0.18485950D-04 -0.28707959D-04
 -0.42035317D-04 -0.56335371D-04 -0.64636356D-04 -0.56303775D-04 -0.28803365D-04
 -0.55642618D-05 -0.17251703D-06 -0.75245212D-08  0.75073501D-11  0.48104803D-05
  0.90250506D-05  0.15591284D-04  0.25652428D-04  0.39852829D-04  0.59670203D-04
  0.82255706D-04  0.10359408D-03  0.10628935D-03  0.81487283D-04  0.12256409D-04
 -0.46624263D-04 -0.39926983D-04 -0.32515841D-07 -0.17519644D-05 -0.32806341D-05
 -0.56834461D-05 -0.93178729D-05 -0.14548363D-04 -0.21677207D-04 -0.30161197D-04
 -0.37820873D-04 -0.39737902D-04 -0.30535900D-04 -0.51610220D-05  0.20525526D-04
  0.19923005D-04 -0.12120671D-04  0.13734043D-04 -0.10724712D-04  0.94432802D-06
  0.29356434D-14  0.37420134D-14  0.39348448D-14  0.31407570D-14  0.16371010D-14
  0.51137839D-15  0.59051478D-16  0.17477516D-18  0.14853626D-15  0.18933658D-15
  0.19909337D-15  0.15891450D-15  0.82833242D-16  0.25874475D-16  0.29878580D-17
  0.88431886D-20  0.65636784D-03  0.83666062D-03  0.87977496D-03  0.70222829D-03
  0.36603235D-03  0.11433689D-03  0.13203065D-04  0.39077223D-07 -0.87913218D-16
 -0.11324660D-15 -0.11909545D-15 -0.97533277D-16 -0.50223867D-16 -0.17613994D-16
 -0.21368923D-17  0.41352085D-17 -0.12792020D-15 -0.16478213D-15 -0.17329265D-15
 -0.14191810D-15 -0.73079423D-16 -0.25629658D-16 -0.31093357D-17  0.60170328D-17
 -0.49761806D-03 -0.64101342D-03 -0.67411990D-03 -0.55207080D-03 -0.28428380D-03
 -0.99701067D-04 -0.12095522D-04  0.23406656D-04 -0.17008352D-17 -0.16313564D-17
 -0.11256817D-04  0.49039472D-18  0.28398594D-18  0.14975634D-05 -0.15100741D-18
 -0.11008464D-18 -0.19351279D-06 -0.72852825D-05 -0.72852825D-05  0.14570565D-04
  0.73202931D-18 -0.24589554D-17 -0.48404048D-18  0.74519459D-06  0.74519459D-06
 -0.14903892D-05  0.29267324D-17  0.49293133D-18 -0.57703001D-18  0.16262530D-07
  0.16262530D-07 -0.32525061D-07 -0.13532446D-18  0.64431081D-19  0.34523430D-19
 -0.36253969D-19 -0.55178695D-19  0.15958693D-05 -0.30131934D-19 -0.63190075D-19
 -0.23938039D-05  0.13889384D-18  0.22872616D-18 -0.23938039D-05  0.27018816D-19
 -0.48916262D-20 -0.12731630D-20  0.14472273D-06 -0.52052995D-20 -0.86171377D-21
 -0.21708410D-06  0.19880178D-19  0.46812029D-20 -0.21708410D-06 -0.34251060D-19
 -0.59273273D+00 -0.11048795D+01 -0.18730424D+01 -0.28363382D+01 -0.35468508D+01
 -0.30535082D+01 -0.11738800D+01  0.50866143D-02 -0.10439247D-02 -0.19603058D-02
 -0.33380627D-02 -0.52290554D-02 -0.70075494D-02 -0.75375643D-02 -0.45255437D-02
  0.29761879D-02 -0.67162599D-01 -0.11793368D-02  0.15933202D-03  0.22385427D-16
  0.21892459D-16  0.14465273D-16 -0.65669628D-16 -0.64223461D-16 -0.42435156D-16
  0.16845292D-02  0.16474328D-02  0.10885285D-02  0.18004624D-16  0.69136700D-17
 -0.19666806D-03  0.47367797D-18 -0.26069545D-17  0.78023240D-04 -0.71648192D-18
 -0.73050230D-18 -0.13526037D-04  0.56598999D-04  0.56598999D-04 -0.11319800D-03
 -0.63340934D-16 -0.16350798D-17 -0.92930599D-17  0.41255730D-05  0.41255730D-05
 -0.82511460D-05  0.52305445D-17 -0.65172285D-18 -0.11421774D-17  0.57335609D-06
  0.57335609D-06 -0.11467122D-05 -0.40054052D-20  0.67921951D-18  0.80095651D-18
 -0.28318780D-16  0.25716907D-16 -0.69622300D-05  0.67374935D-16 -0.99539669D-16
  0.10443345D-04  0.17581405D-16  0.22388947D-16  0.10443345D-04 -0.10914761D-16
  0.18229577D-17 -0.90700245D-18  0.42758982D-05 -0.36532047D-17  0.62602346D-17
 -0.64138473D-05 -0.18156683D-17 -0.35392273D-17 -0.64138473D-05  0.85487763D-18
MO    3     MO 0.0        OCC NO =    2.0000000  ORB. ENERGY =   -2.077960
  0.77072624D-03  0.14424550D-02  0.24985950D-02  0.40846405D-02  0.63432875D-02
  0.92880898D-02  0.12447818D-01  0.14281997D-01  0.12440837D-01  0.63643684D-02
  0.12294748D-02  0.38119223D-04  0.16626121D-05 -0.16588180D-08  0.51197244D-01
  0.96052304D-01  0.16593578D+00  0.27301507D+00  0.42414788D+00  0.63506131D+00
  0.87543554D+00  0.11025367D+01  0.11312221D+01  0.86725733D+00  0.13044318D+00
 -0.49621526D+00 -0.42493709D+00 -0.34606137D-03 -0.25525590D-04 -0.47797846D-04
 -0.82806090D-04 -0.13575859D-03 -0.21196525D-03 -0.31583035D-03 -0.43943951D-03
 -0.55103867D-03 -0.57896920D-03 -0.44489883D-03 -0.75194528D-04  0.29905071D-03
  0.29027216D-03 -0.17659450D-03 -0.10169621D+00  0.11849869D-03 -0.17588172D-04
 -0.15595663D-15 -0.19879519D-15 -0.20903940D-15 -0.16685333D-15 -0.86971312D-16
 -0.27167077D-16 -0.31371213D-17 -0.92849646D-20 -0.24699537D-16 -0.31484069D-16
 -0.33106489D-16 -0.26425295D-16 -0.13774029D-16 -0.43025694D-17 -0.49683969D-18
 -0.14705007D-20  0.10337948D+00  0.13177601D+00  0.13856662D+00  0.11060261D+00
  0.57650954D-01  0.18008328D-01  0.20795137D-02  0.61547544D-05  0.14444730D-16
  0.18607174D-16  0.19568180D-16  0.16025370D-16  0.82521176D-17  0.28940972D-17
  0.35110572D-18 -0.67944245D-18 -0.71264657D-16 -0.91800528D-16 -0.96541758D-16
 -0.79062917D-16 -0.40712725D-16 -0.14278345D-16 -0.17322185D-17  0.33521036D-17
 -0.14062139D-01 -0.18114334D-01 -0.19049887D-01 -0.15600914D-01 -0.80335474D-02
 -0.28174425D-02 -0.34180614D-03  0.66144636D-03  0.14499262D-17 -0.42435389D-17
 -0.17205383D-03 -0.95960203D-18  0.12159022D-17  0.21083668D-04  0.22494279D-18
 -0.52646285D-19 -0.29658786D-05 -0.12502781D-03 -0.12502781D-03  0.25005561D-03
  0.22352677D-17 -0.22255975D-17 -0.46045000D-18  0.27357923D-04  0.27357923D-04
 -0.54715846D-04  0.87854160D-18  0.70237221D-18 -0.34443370D-18  0.14265283D-06
  0.14265283D-06 -0.28530565D-06 -0.18480982D-18  0.45319949D-20 -0.46395404D-20
 -0.79438029D-20 -0.33775032D-19  0.44655175D-04 -0.37017036D-20 -0.32205198D-19
 -0.66982763D-04  0.27533112D-19  0.13353029D-18 -0.66982763D-04  0.58562382D-19
  0.17333863D-19  0.60356779D-19 -0.10844913D-04  0.17028275D-19  0.60147945D-19
  0.16267370D-04 -0.69029865D-19 -0.24121828D-18  0.16267370D-04 -0.23367972D-19
  0.48314875D-03  0.90061020D-03  0.15267557D-02  0.23119581D-02  0.28911117D-02
  0.24889779D-02  0.95685396D-03 -0.41462048D-05  0.28632135D-03  0.53766079D-03
  0.91554359D-03  0.14341936D-02  0.19219882D-02  0.20673574D-02  0.12412387D-02
 -0.81629078D-03 -0.70024679D-03 -0.18091177D-02  0.82948128D-04  0.62177421D-16
  0.60808160D-16  0.40178522D-16  0.69976674D-16  0.68435659D-16  0.45218333D-16
  0.69008273D-02  0.67488584D-02  0.44592561D-02 -0.42578191D-17 -0.10719305D-16
  0.18304344D-02  0.16209549D-17  0.85040857D-18  0.10188774D-02  0.33836346D-18
  0.35150261D-17  0.21084344D-03  0.20054541D-03  0.20054541D-03 -0.40109081D-03
  0.36051355D-17  0.34195517D-17 -0.81074659D-18  0.49089959D-03  0.49089959D-03
 -0.98179918D-03  0.59933141D-18 -0.44417720D-18  0.13569453D-17  0.62927493D-04
  0.62927493D-04 -0.12585499D-03  0.38717224D-18 -0.19307588D-18 -0.10330197D-17
 -0.31201680D-17  0.48839024D-17  0.85465824D-03  0.11007338D-16 -0.13663795D-16
 -0.12819874D-02 -0.16468345D-17 -0.98791220D-18 -0.12819874D-02  0.18214663D-18
  0.15123439D-18 -0.38359282D-18 -0.49583804D-05 -0.65223443D-18  0.69124746D-18
  0.74375706D-05  0.19853127D-18  0.45953101D-18  0.74375706D-05 -0.60432124D-18
MO    4     MO 0.0        OCC NO =    2.0000000  ORB. ENERGY =   -1.055281
  0.36402510D-16  0.68129228D-16  0.11801224D-15  0.19292345D-15  0.29960260D-15
  0.43868986D-15  0.58792838D-15  0.67455930D-15  0.58759863D-15  0.30059828D-15
  0.58069865D-16  0.18004258D-17  0.78527566D-19 -0.78348365D-22 -0.15514361D-15
 -0.29106843D-15 -0.50283713D-15 -0.82732077D-15 -0.12853003D-14 -0.19244338D-14
 -0.26528426D-14 -0.33410300D-14 -0.34279557D-14 -0.26280601D-14 -0.39528351D-15
  0.15036869D-14  0.12876919D-14  0.10486739D-17  0.44050740D-16  0.82487044D-16
  0.14290246D-15  0.23428513D-15  0.36579864D-15  0.54504364D-15  0.75836193D-15
  0.95095396D-15  0.99915503D-15  0.76778332D-15  0.12976682D-15 -0.51608620D-15
 -0.50093664D-15  0.30475763D-15 -0.90112076D-16 -0.94454422D-17 -0.11564977D-17
 -0.47759220D+00 -0.60877844D+00 -0.64014968D+00 -0.51096160D+00 -0.26633571D+00
 -0.83194821D-01 -0.96069315D-02 -0.28433717D-04 -0.30654194D+01 -0.39074366D+01
 -0.41087925D+01 -0.32796004D+01 -0.17094723D+01 -0.53398489D+00 -0.61661966D-01
 -0.18250144D-03  0.17811316D-12  0.22703773D-12  0.23873732D-12  0.19055794D-12
  0.99327199D-13  0.31026663D-13  0.35828075D-14  0.10604066D-16  0.61897922D-02
  0.79734643D-02  0.83852705D-02  0.68671211D-02  0.35361611D-02  0.12401658D-02
  0.15045428D-03 -0.29115169D-03  0.39729101D-01  0.51177578D-01  0.53820751D-01
  0.44076529D-01  0.22696804D-01  0.79599880D-02  0.96568883D-03 -0.18687533D-02
 -0.57183144D-14 -0.73661239D-14 -0.77465627D-14 -0.63440511D-14 -0.32668110D-14
 -0.11457021D-14 -0.13899414D-15  0.26897460D-15  0.34407940D-04  0.22084692D-03
  0.31408482D-17 -0.91080201D-05 -0.58459710D-04  0.27424707D-18  0.14215419D-05
  0.91241481D-05 -0.60175066D-18  0.14093244D-18 -0.80718158D-17  0.79308833D-17
 -0.43756338D-17  0.14226206D-03  0.91310721D-03 -0.63164599D-17 -0.72808552D-17
  0.13597315D-16  0.35947163D-17 -0.39566773D-04 -0.25395883D-03  0.24690260D-18
  0.27078127D-18 -0.51768387D-18 -0.23040486D-18  0.79775240D-06  0.51203635D-05
 -0.38224943D-05 -0.24534630D-04  0.54856824D-17 -0.38224973D-05 -0.24534650D-04
 -0.98471329D-17  0.15289980D-04  0.98138540D-04 -0.66099144D-17 -0.84033504D-17
  0.14798973D-05  0.94987015D-05 -0.17129856D-18  0.14798975D-05  0.94987028D-05
  0.27751507D-18 -0.59195893D-05 -0.37994807D-04  0.23638062D-18  0.22799496D-17
 -0.15277832D-15 -0.28478542D-15 -0.48278129D-15 -0.73107316D-15 -0.91420956D-15
 -0.78704927D-15 -0.30257047D-15  0.13110874D-17 -0.13013006D-14 -0.24436121D-14
 -0.41610500D-14 -0.65182602D-14 -0.87352355D-14 -0.93959235D-14 -0.56413002D-14
  0.37099563D-14  0.22147502D-14  0.10720848D-14 -0.46222985D-15 -0.16477360D-02
 -0.16114498D-02 -0.10647530D-02 -0.10575972D-01 -0.10343070D-01 -0.68341034D-02
 -0.38619446D-14 -0.37768975D-14 -0.24955559D-14 -0.30480557D-03 -0.19563906D-02
 -0.11277920D-14 -0.13665088D-03 -0.87709194D-03  0.40526318D-16  0.69465305D-04
  0.44586217D-03  0.75584906D-16 -0.59774645D-17 -0.12139958D-15  0.12737704D-15
  0.17504305D-16  0.15678513D-03  0.10063233D-02 -0.83066504D-17 -0.26968665D-15
  0.27799330D-15 -0.19277373D-16  0.27369198D-03  0.17566884D-02  0.79103629D-17
  0.18084908D-16 -0.25995270D-16  0.76584250D-17  0.41330118D-04  0.26527683D-03
 -0.36871015D-05 -0.23665614D-04 -0.35605594D-17 -0.36936860D-05 -0.23707876D-04
  0.56498222D-16  0.14754991D-04  0.94704717D-04 -0.45816544D-16 -0.29525564D-16
  0.33751659D-04  0.21663459D-03 -0.21665317D-16  0.33753256D-04  0.21664484D-03
 -0.38948272D-17 -0.13500823D-03 -0.86654861D-03  0.68890779D-16  0.24650370D-16
MO    5     MO 0.0        OCC NO =    2.0000000  ORB. ENERGY =   -1.055281
 -0.19086840D-16 -0.35722034D-16 -0.61877073D-16 -0.10115509D-15 -0.15708991D-15
 -0.23001719D-15 -0.30826707D-15 -0.35369005D-15 -0.30809417D-15 -0.15761197D-15
 -0.30447632D-16 -0.94401292D-18 -0.41174169D-19  0.41080209D-22  0.96500633D-16
  0.18104702D-15  0.31276894D-15  0.51460050D-15  0.79946763D-15  0.11970140D-14
  0.16500905D-14  0.20781489D-14  0.21322174D-14  0.16346755D-14  0.24586968D-15
 -0.93530596D-15 -0.80095519D-15 -0.65228398D-18 -0.24219170D-16 -0.45351513D-16
 -0.78568006D-16 -0.12881035D-15 -0.20111669D-15 -0.29966589D-15 -0.41694864D-15
 -0.52283606D-15 -0.54933709D-15 -0.42212854D-15 -0.71346010D-16  0.28374505D-15
  0.27541579D-15 -0.16755625D-15  0.82057603D-17 -0.10308708D-16  0.32614202D-17
  0.30654194D+01  0.39074366D+01  0.41087925D+01  0.32796004D+01  0.17094723D+01
  0.53398489D+00  0.61661966D-01  0.18250144D-03 -0.47759220D+00 -0.60877844D+00
 -0.64014968D+00 -0.51096160D+00 -0.26633571D+00 -0.83194821D-01 -0.96069315D-02
 -0.28433717D-04 -0.12409398D-12 -0.15818043D-12 -0.16633170D-12 -0.13276443D-12
 -0.69202676D-13 -0.21616719D-13 -0.24961931D-14 -0.73880039D-17 -0.39729101D-01
 -0.51177578D-01 -0.53820751D-01 -0.44076529D-01 -0.22696804D-01 -0.79599880D-02
 -0.96568883D-03  0.18687533D-02  0.61897922D-02  0.79734643D-02  0.83852705D-02
  0.68671211D-02  0.35361611D-02  0.12401658D-02  0.15045428D-03 -0.29115169D-03
  0.36864174D-14  0.47487083D-14  0.49939653D-14  0.40898102D-14  0.21060103D-14
  0.73859809D-15  0.89605151D-16 -0.17339946D-15 -0.22084692D-03  0.34407940D-04
 -0.44935097D-17  0.58459710D-04 -0.91080201D-05 -0.17723840D-17 -0.91241481D-05
  0.14215419D-05  0.13820578D-17  0.49551676D-17 -0.34000238D-17 -0.15551438D-17
  0.61603949D-17 -0.91310721D-03  0.14226206D-03  0.62331191D-17  0.52777506D-17
 -0.11510870D-16  0.11610164D-17  0.25395883D-03 -0.39566773D-04  0.43931367D-19
 -0.18725716D-18  0.14332580D-18 -0.24174785D-19 -0.51203635D-05  0.79775240D-06
  0.24534630D-04 -0.38224943D-05 -0.28819348D-17  0.24534650D-04 -0.38224973D-05
  0.57124475D-17 -0.98138540D-04  0.15289980D-04  0.29333568D-17 -0.88716782D-18
 -0.94987015D-05  0.14798973D-05  0.25490158D-18 -0.94987028D-05  0.14798975D-05
 -0.98715735D-18  0.37994807D-04 -0.59195893D-05  0.22245260D-18 -0.19007043D-18
  0.12510340D-15  0.23319816D-15  0.39532821D-15  0.59864342D-15  0.74860570D-15
  0.64447978D-15  0.24776155D-15 -0.10735914D-17  0.98150096D-15  0.18430850D-14
  0.31384559D-14  0.49163725D-14  0.65885176D-14  0.70868390D-14  0.42549288D-14
 -0.27982202D-14 -0.16262782D-14 -0.87608873D-15  0.34211955D-15  0.10575972D-01
  0.10343070D-01  0.68341034D-02 -0.16477360D-02 -0.16114498D-02 -0.10647530D-02
  0.22622019D-14  0.22123840D-14  0.14618157D-14  0.19563906D-02 -0.30480557D-03
  0.67999793D-15  0.87709194D-03 -0.13665088D-03 -0.34447576D-16 -0.44586217D-03
  0.69465305D-04 -0.40795794D-16 -0.86008343D-16  0.46949121D-16  0.39059223D-16
 -0.32633038D-16 -0.10063233D-02  0.15678513D-03 -0.12471463D-15  0.31858785D-15
 -0.19387322D-15  0.26442043D-16 -0.17566884D-02  0.27369198D-03  0.12412638D-16
 -0.26595159D-16  0.14182521D-16  0.25871402D-17 -0.26527683D-03  0.41330118D-04
  0.23665614D-04 -0.36871015D-05 -0.57961890D-16  0.23707876D-04 -0.36936860D-05
  0.53493257D-16 -0.94704717D-04  0.14754991D-04  0.12039241D-15  0.13576433D-15
 -0.21663459D-03  0.33751659D-04  0.51654878D-16 -0.21664484D-03  0.33753256D-04
 -0.30182601D-16  0.86654861D-03 -0.13500823D-03 -0.12478203D-15  0.12130135D-16
MO    6     MO 0.0        OCC NO =    2.0000000  ORB. ENERGY =   -1.052903
 -0.60874237D-03 -0.11392936D-02 -0.19734642D-02 -0.32261698D-02 -0.50101160D-02
 -0.73360079D-02 -0.98316547D-02 -0.11280344D-01 -0.98261405D-02 -0.50267663D-02
 -0.97107554D-03 -0.30107689D-04 -0.13131802D-05  0.13101835D-08  0.27551433D-02
  0.51689864D-02  0.89297157D-02  0.14692112D-01  0.22825217D-01  0.34175373D-01
  0.47110941D-01  0.59332230D-01  0.60875914D-01  0.46670836D-01  0.70197071D-02
 -0.26703471D-01 -0.22867687D-01 -0.18623047D-04 -0.79975605D-03 -0.14975801D-02
 -0.25944423D-02 -0.42535256D-02 -0.66411977D-02 -0.98954513D-02 -0.13768317D-01
 -0.17264890D-01 -0.18139997D-01 -0.13939365D-01 -0.23559604D-02  0.93697192D-02
  0.90946738D-02 -0.55329777D-02  0.75920834D-03  0.15829221D-03  0.10951101D-04
 -0.15077244D-12 -0.19218699D-12 -0.20209067D-12 -0.16130692D-12 -0.84080276D-13
 -0.26264009D-13 -0.30328395D-14 -0.89763207D-17 -0.15689721D-12 -0.19999414D-12
 -0.21030013D-12 -0.16785963D-12 -0.87495841D-13 -0.27330923D-13 -0.31560415D-14
 -0.93409626D-17 -0.31269460D+01 -0.39858635D+01 -0.41912609D+01 -0.33454259D+01
 -0.17437835D+01 -0.54470261D+00 -0.62899596D-01 -0.18616447D-03  0.18978012D-14
  0.24446783D-14  0.25709388D-14  0.21054715D-14  0.10841933D-14  0.38023702D-15
  0.46129547D-16 -0.89267622D-16  0.18724386D-14  0.24120071D-14  0.25365802D-14
  0.20773336D-14  0.10697039D-14  0.37515545D-15  0.45513063D-16 -0.88074632D-16
  0.10128725D+00  0.13047454D+00  0.13721317D+00  0.11237079D+00  0.57864307D-01
  0.20293570D-01  0.24619728D-02 -0.47642882D-02  0.63428761D-17  0.51907762D-17
 -0.14625215D-03 -0.33818905D-17 -0.31270681D-17  0.27473683D-04  0.10248416D-17
  0.42130475D-18 -0.28791854D-05  0.32498453D-04  0.32498453D-04 -0.64996906D-04
 -0.82013391D-19  0.51692277D-16  0.47725988D-16  0.12892112D-03  0.12892112D-03
 -0.25784223D-03  0.17054261D-17 -0.14610006D-16 -0.11895334D-16 -0.55757109D-05
 -0.55757109D-05  0.11151422D-04 -0.12496734D-18  0.32658481D-18 -0.43785437D-18
 -0.13310122D-17 -0.13146757D-17 -0.69990443D-04 -0.13409936D-17 -0.13217949D-17
  0.10498566D-03  0.53340303D-17  0.52658218D-17  0.10498566D-03 -0.29292652D-18
  0.52363979D-18  0.63985592D-18 -0.68565619D-05  0.52558893D-18  0.63956752D-18
  0.10284843D-04 -0.20965083D-17 -0.25591353D-17  0.10284843D-04  0.71435123D-19
  0.18010215D-02  0.33571822D-02  0.56912491D-02  0.86182285D-02  0.10777125D-01
  0.92781007D-02  0.35668406D-02 -0.15455704D-04  0.14705785D-01  0.27614859D-01
  0.47023343D-01  0.73661789D-01  0.98715463D-01  0.10618179D+00  0.63751407D-01
 -0.41925608D-01 -0.25007266D-01 -0.12721152D-01  0.90868187D-02 -0.53634818D-15
 -0.52453681D-15 -0.34658365D-15 -0.55870894D-15 -0.54640514D-15 -0.36103298D-15
  0.67233913D-01  0.65753299D-01  0.43445985D-01 -0.88742508D-16 -0.94269073D-16
  0.19071913D-01 -0.47888636D-16 -0.47981114D-16 -0.61711342D-03  0.25343818D-16
  0.31013887D-16 -0.14158312D-02  0.21475888D-03  0.21475888D-03 -0.42951776D-03
  0.10726106D-16  0.66694392D-16  0.30804940D-16  0.26361087D-02  0.26361087D-02
 -0.52722174D-02  0.59679332D-17  0.74391792D-16  0.95071125D-16 -0.29775568D-03
 -0.29775568D-03  0.59551136D-03  0.12905792D-17  0.20109424D-16  0.99350876D-17
 -0.11396285D-16  0.14135615D-16  0.16859309D-02  0.27081664D-16 -0.37721610D-16
 -0.25288963D-02  0.71071902D-17 -0.46852362D-17 -0.25288963D-02 -0.74932747D-17
  0.11959902D-16  0.99555255D-17  0.73003129D-03  0.97699092D-17  0.12988726D-16
 -0.10950469D-02 -0.45649615D-16 -0.42855302D-16 -0.10950469D-02 -0.92956578D-18
MO    7     MO 0.0        OCC NO =    2.0000000  ORB. ENERGY =   -0.858618
  0.60445477D-03  0.11312691D-02  0.19595643D-02  0.32034467D-02  0.49748278D-02
  0.72843376D-02  0.97624066D-02  0.11200892D-01  0.97569313D-02  0.49913609D-02
  0.96423589D-03  0.29895630D-04  0.13039310D-05 -0.13009554D-08 -0.26326855D-02
 -0.49392406D-02 -0.85328168D-02 -0.14039092D-01 -0.21810705D-01 -0.32656381D-01
 -0.45017002D-01 -0.56695092D-01 -0.58170164D-01 -0.44596458D-01 -0.67077023D-02
  0.25516583D-01  0.21851288D-01  0.17795309D-04  0.40750096D-03  0.76306436D-03
  0.13219503D-02  0.21673056D-02  0.33838999D-02  0.50420449D-02  0.70153921D-02
  0.87970067D-02  0.92429012D-02  0.71025468D-02  0.12004362D-02 -0.47741678D-02
 -0.46340235D-02  0.28192269D-02  0.35079412D-02  0.88777096D-05 -0.77814838D-05
 -0.10708698D-13 -0.13650190D-13 -0.14353604D-13 -0.11456915D-13 -0.59718493D-14
 -0.18654161D-14 -0.21540914D-15 -0.63754827D-18 -0.86836414D-14 -0.11068886D-13
 -0.11639282D-13 -0.92903679D-14 -0.48425494D-14 -0.15126587D-14 -0.17467444D-15
 -0.51698541D-18  0.53449518D+00  0.68131167D+00  0.71642065D+00  0.57184039D+00
  0.29806842D+00  0.93107112D-01  0.10751554D-01  0.31821467D-04 -0.36916058D-16
 -0.47553918D-16 -0.50009939D-16 -0.40955663D-16 -0.21089743D-16 -0.73963761D-17
 -0.89731263D-18  0.17364351D-17 -0.29696321D-15 -0.38253717D-15 -0.40229410D-15
 -0.32945894D-15 -0.16965186D-15 -0.59498542D-16 -0.72182367D-17  0.13968375D-16
 -0.38505091D-01 -0.49600852D-01 -0.52162591D-01 -0.42718578D-01 -0.21997540D-01
 -0.77147494D-02 -0.93593700D-03  0.18111791D-02  0.79416333D-18 -0.11358970D-16
  0.19670613D-03 -0.22048830D-17  0.12511773D-17 -0.23910970D-04  0.56773037D-18
 -0.52840795D-18  0.27342635D-05 -0.29404079D-04 -0.29404079D-04  0.58808158D-04
  0.10984859D-16 -0.27278101D-17  0.89946365D-18 -0.55142565D-04 -0.55142565D-04
  0.11028513D-03 -0.29878294D-17  0.16236366D-17 -0.38005715D-17  0.14507759D-05
  0.14507759D-05 -0.29015519D-05  0.34482549D-18  0.27402806D-19  0.25171358D-18
 -0.48895397D-19 -0.24878304D-18  0.27521434D-04 -0.65892849D-19 -0.24373910D-18
 -0.41282152D-04  0.21257904D-18  0.99008821D-18 -0.41282152D-04  0.38335138D-18
 -0.20192845D-19  0.10124725D-18  0.28186718D-05 -0.20702538D-19  0.10347796D-18
 -0.42280078D-05  0.81281073D-19 -0.40721970D-18 -0.42280078D-05 -0.89692043D-19
  0.10781372D-01  0.20096944D-01  0.34069262D-01  0.51590903D-01  0.64514605D-01
  0.55541065D-01  0.21352013D-01 -0.92521769D-04  0.12688282D+00  0.23826346D+00
  0.40572158D+00  0.63556045D+00  0.85172578D+00  0.91614591D+00  0.55005280D+00
 -0.36173787D+00 -0.22164600D+00 -0.11205129D+00 -0.97214296D-02  0.18592274D-16
  0.18182838D-16  0.12014170D-16 -0.71119786D-16 -0.69553597D-16 -0.45957003D-16
  0.72640091D-01  0.71040423D-01  0.46939411D-01  0.96825849D-17 -0.65897544D-17
  0.14567996D-01  0.13712469D-18 -0.67886989D-17  0.77818357D-02 -0.22690136D-17
  0.39029826D-17  0.76949214D-03  0.13031836D-02  0.13031836D-02 -0.26063672D-02
  0.11461786D-15  0.26338725D-16  0.30767591D-16  0.55885903D-03  0.55885903D-03