 Molden2AIM, Version 4.0.0 (06/02/2016)           Time: Tue Jun 26 17:53:48 2018
GAUSSIAN              6 MOL ORBITALS    125 PRIMITIVES        2 NUCLEI
  Na   1    (CENTRE  1)   0.00000000  0.00000000  3.26099455  CHARGE = 11.0
  H    2    (CENTRE  2)   0.00000000  0.00000000 -0.30565186  CHARGE =  1.0
CENTRE ASSIGNMENTS    1  1  1  1  1  1  1  1  1  1  1  1  1  1  1  1  1  1  1  1
CENTRE ASSIGNMENTS    1  1  1  1  1  1  1  1  1  1  1  1  1  1  1  1  1  1  1  1
CENTRE ASSIGNMENTS    1  1  1  1  1  1  1  1  1  1  1  1  1  1  1  1  1  1  1  1
CENTRE ASSIGNMENTS    1  1  1  1  1  1  1  1  1  1  1  1  1  1  1  1  1  1  1  1
CENTRE ASSIGNMENTS    1  1  1  1  2  2  2  2  2  2  2  2  2  2  2  2  2  2  2  2
CENTRE ASSIGNMENTS    2  2  2  2  2  2  2  2  2  2  2  2  2  2  2  2  2  2  2  2
CENTRE ASSIGNMENTS    2  2  2  2  2
TYPE ASSIGNMENTS      1  1  1  1  1  1  1  1  1  1  1  1  1  1  1  1  1  1  1  1
TYPE ASSIGNMENTS      2  2  2  2  2  2  2  2  3  3  3  3  3  3  3  3  4  4  4  4
TYPE ASSIGNMENTS      4  4  4  4  2  3  4  2  3  4  2  3  4  2  3  4  5  6  7  8
TYPE ASSIGNMENTS      9 10  5  6  7  8  9 10  5  6  7  8  9 10 11 12 13 17 14 15
TYPE ASSIGNMENTS     18 19 16 20  1  1  1  1  1  1  1  2  3  4  2  3  4  2  3  4
TYPE ASSIGNMENTS      2  3  4  5  6  7  8  9 10  5  6  7  8  9 10 11 12 13 17 14
TYPE ASSIGNMENTS     15 18 19 16 20
EXPONENTS  0.3798522D+06 0.5688601D+05 0.1294270D+05 0.3664302D+04 0.1194742D+04
EXPONENTS  0.4309819D+03 0.1678317D+03 0.6930667D+02 0.2995117D+02 0.1338079D+02
EXPONENTS  0.1217401D+03 0.3704414D+02 0.1399542D+02 0.5982780D+01 0.2483046D+01
EXPONENTS  0.1045251D+01 0.4387564D+00 0.6559563D-01 0.3056193D-01 0.1550906D-01
EXPONENTS  0.6907763D+03 0.1638281D+03 0.5287646D+02 0.1981227D+02 0.8132038D+01
EXPONENTS  0.3496907D+01 0.1511724D+01 0.6447929D+00 0.6907763D+03 0.1638281D+03
EXPONENTS  0.5287646D+02 0.1981227D+02 0.8132038D+01 0.3496907D+01 0.1511724D+01
EXPONENTS  0.6447929D+00 0.6907763D+03 0.1638281D+03 0.5287646D+02 0.1981227D+02
EXPONENTS  0.8132038D+01 0.3496907D+01 0.1511724D+01 0.6447929D+00 0.2614582D+00
EXPONENTS  0.2614582D+00 0.2614582D+00 0.1170473D+00 0.1170473D+00 0.1170473D+00
EXPONENTS  0.4049475D-01 0.4049475D-01 0.4049475D-01 0.1566671D-01 0.1566671D-01
EXPONENTS  0.1566671D-01 0.2900000D+01 0.2900000D+01 0.2900000D+01 0.2900000D+01
EXPONENTS  0.2900000D+01 0.2900000D+01 0.2300000D+00 0.2300000D+00 0.2300000D+00
EXPONENTS  0.2300000D+00 0.2300000D+00 0.2300000D+00 0.7570000D-01 0.7570000D-01
EXPONENTS  0.7570000D-01 0.7570000D-01 0.7570000D-01 0.7570000D-01 0.1350000D+00
EXPONENTS  0.1350000D+00 0.1350000D+00 0.1350000D+00 0.1350000D+00 0.1350000D+00
EXPONENTS  0.1350000D+00 0.1350000D+00 0.1350000D+00 0.1350000D+00 0.1906917D+03
EXPONENTS  0.2860553D+02 0.6509594D+01 0.1841246D+01 0.5985373D+00 0.2139762D+00
EXPONENTS  0.8031629D-01 0.2292000D+01 0.2292000D+01 0.2292000D+01 0.8380000D+00
EXPONENTS  0.8380000D+00 0.8380000D+00 0.2920000D+00 0.2920000D+00 0.2920000D+00
EXPONENTS  0.8406320D-01 0.8406320D-01 0.8406320D-01 0.2062000D+01 0.2062000D+01
EXPONENTS  0.2062000D+01 0.2062000D+01 0.2062000D+01 0.2062000D+01 0.6620000D+00
EXPONENTS  0.6620000D+00 0.6620000D+00 0.6620000D+00 0.6620000D+00 0.6620000D+00
EXPONENTS  0.1397000D+01 0.1397000D+01 0.1397000D+01 0.1397000D+01 0.1397000D+01
EXPONENTS  0.1397000D+01 0.1397000D+01 0.1397000D+01 0.1397000D+01 0.1397000D+01
MO    1     MO 0.0        OCC NO =    2.0000000  ORB. ENERGY =  -37.956019
  0.22590258D+00  0.42278855D+00  0.73202409D+00  0.11947997D+01  0.18511592D+01
  0.26953083D+01  0.35702380D+01  0.40041817D+01  0.33224097D+01  0.15262963D+01
 -0.77485794D-02 -0.25314983D-01 -0.33581253D-01  0.26350587D+00 -0.71072630D-02
  0.31657632D-02 -0.65794818D-03  0.75388945D-04 -0.23000756D-04  0.55456218D-05
  0.96179586D-18  0.13496019D-17  0.16876723D-17  0.18099646D-17  0.15801929D-17
  0.10066313D-17  0.44176418D-18  0.11805640D-18 -0.48079768D-18 -0.67466028D-18
 -0.84366024D-18 -0.90479365D-18 -0.78993175D-18 -0.50321072D-18 -0.22083604D-18
 -0.59015895D-19  0.17067437D-03  0.23949204D-03  0.29948393D-03  0.32118517D-03
  0.28041130D-03  0.17863058D-03  0.78392749D-04  0.20949561D-04 -0.16339484D-18
 -0.64139266D-19  0.13367862D-04  0.42045717D-19  0.13935338D-19 -0.63421322D-05
 -0.18259463D-20 -0.35887356D-20 -0.52268322D-05 -0.47806032D-21  0.52876802D-21
  0.40356892D-06  0.54408100D-05  0.54408100D-05 -0.10881620D-04 -0.47214410D-17
 -0.15289658D-17  0.28985227D-18  0.54631872D-05  0.54631872D-05 -0.10926374D-04
  0.54159372D-20  0.58577671D-20  0.30374368D-21 -0.96149304D-06 -0.96149304D-06
  0.19229861D-05 -0.16741527D-21 -0.41572656D-21  0.47408968D-21 -0.13192272D-21
 -0.11377228D-21 -0.27883083D-08 -0.12923313D-21 -0.11629540D-21  0.41824624D-08
  0.52500129D-21  0.45761226D-21  0.41824624D-08  0.42038769D-22  0.20787408D-05
  0.38688505D-05  0.65197423D-05  0.97331722D-05 -0.45330109D-04  0.50507981D-04
 -0.50809867D-04  0.82434384D-20  0.29818872D-19  0.15203400D-04 -0.21969015D-20
 -0.11128932D-19 -0.45527532D-04 -0.31351648D-20 -0.15826574D-20  0.45575374D-04
  0.25896348D-21  0.15626157D-20 -0.10077903D-04  0.79347677D-04  0.79347677D-04
 -0.15869535D-03  0.31656735D-19 -0.18474579D-19  0.22415369D-19 -0.32942826D-04
 -0.32942826D-04  0.65885652D-04 -0.32224081D-20  0.19040960D-19 -0.86073310D-21
 -0.36011067D-19  0.49514604D-20  0.62519891D-04 -0.35963117D-19  0.47597395D-20
 -0.93779836D-04  0.14399632D-18 -0.19614121D-19 -0.93779836D-04  0.38537101D-18
MO    2     MO 0.0        OCC NO =    2.0000000  ORB. ENERGY =   -2.070931
  0.56836172D-01  0.10637188D+00  0.18417429D+00  0.30060676D+00  0.46574413D+00
  0.67812862D+00  0.89825739D+00  0.10074359D+01  0.83590478D+00  0.38400996D+00
  0.10623729D+00  0.34708234D+00  0.46041746D+00  0.31779840D-01 -0.52236258D+00
 -0.38160295D+00 -0.93220092D-01 -0.17085901D-02  0.37160863D-03 -0.79511477D-04
 -0.74361302D-16 -0.10434455D-15 -0.13048248D-15 -0.13993752D-15 -0.12217271D-15
 -0.77827755D-16 -0.34155022D-16 -0.91275373D-17  0.73640433D-16  0.10333302D-15
  0.12921756D-15  0.13858094D-15  0.12098835D-15  0.77073282D-16  0.33823919D-16
  0.90390537D-17 -0.33140235D-01 -0.46502721D-01 -0.58151484D-01 -0.62365264D-01
 -0.54448108D-01 -0.34685113D-01 -0.15221701D-01 -0.40678246D-02  0.38030426D-18
 -0.12036578D-17 -0.18081333D-02  0.16019104D-19  0.11802475D-17  0.46427759D-03
 -0.27211456D-18 -0.61856781D-19  0.78482573D-04  0.49587346D-19 -0.92249472D-19
 -0.52180786D-05 -0.12952315D-02 -0.12952315D-02  0.25904630D-02  0.19186790D-15
  0.47773995D-16 -0.59478994D-16 -0.11905142D-03 -0.11905142D-03  0.23810284D-03
  0.11556482D-17  0.56509730D-18 -0.42724224D-18  0.19428246D-04  0.19428246D-04
 -0.38856492D-04 -0.68176769D-19 -0.29179925D-19  0.44913665D-19 -0.26508783D-21
  0.20671235D-21 -0.46641198D-05 -0.35252208D-20 -0.10113193D-20  0.69961797D-05
  0.43204843D-20  0.39118223D-21  0.69961797D-05 -0.18564819D-20 -0.63893020D-04
 -0.11891456D-03 -0.20039344D-03 -0.29916272D-03  0.23636266D-03 -0.10224073D-02
  0.11731755D-02  0.87014438D-18  0.15511868D-18 -0.71285807D-04 -0.60262111D-18
  0.10417416D-18 -0.14134909D-03  0.49122891D-18 -0.12529345D-18 -0.77582313D-03
 -0.79130910D-19  0.19728261D-19  0.24978255D-03 -0.35357508D-03 -0.35357508D-03
  0.70715016D-03 -0.14835345D-17 -0.63244151D-17 -0.65815966D-17  0.34353070D-03
  0.34353070D-03 -0.68706140D-03 -0.67035409D-19  0.36221494D-18  0.26919514D-18
  0.19924798D-17 -0.15254714D-17 -0.28297017D-03  0.19882374D-17 -0.15048478D-17
  0.42445526D-03 -0.79656768D-17  0.60812620D-17  0.42445526D-03 -0.78827304D-17
MO    3     MO 0.0        OCC NO =    2.0000000  ORB. ENERGY =   -1.048442
  0.12800605D-16  0.23957005D-16  0.41479611D-16  0.67702456D-16  0.10489458D-15
  0.15272768D-15  0.20230494D-15  0.22689404D-15  0.18826192D-15  0.86486469D-16
  0.30079587D-16  0.98271460D-16  0.13036070D-15 -0.24144436D-16 -0.10774845D-15
 -0.11925656D-15 -0.31893885D-16  0.18413408D-15 -0.52345830D-16  0.11476920D-16
 -0.31097638D+00 -0.43636528D+00 -0.54567320D+00 -0.58521384D+00 -0.51092201D+00
 -0.32547297D+00 -0.14283512D+00 -0.38171044D-01 -0.18556145D+01 -0.26038174D+01
 -0.32560643D+01 -0.34920056D+01 -0.30487019D+01 -0.19421165D+01 -0.85230561D+00
 -0.22776888D+00  0.18505208D-13  0.25966699D-13  0.32471263D-13  0.34824199D-13
  0.30403331D-13  0.19367853D-13  0.84996600D-14  0.22714365D-14 -0.35064383D-02
 -0.20923125D-01  0.23863291D-15 -0.28602914D-03 -0.17067528D-02 -0.74234398D-16
  0.20573975D-04  0.12276613D-03 -0.13511230D-16 -0.27221763D-05 -0.16243387D-04
  0.11388508D-17 -0.33032766D-15  0.11951740D-15  0.21081025D-15  0.11158144D-14
 -0.60682186D-02 -0.36209420D-01 -0.56310049D-17 -0.29561562D-16  0.35192567D-16
  0.11806382D-16 -0.23553863D-03 -0.14054729D-02 -0.33666809D-17 -0.30212917D-17
  0.63879726D-17 -0.49416780D-17  0.15122322D-04  0.90235789D-04 -0.38738829D-07
 -0.23115689D-06 -0.28025178D-17 -0.38737131D-07 -0.23114675D-06  0.56589094D-17
  0.15495362D-06  0.92461741D-06  0.27486440D-17 -0.62835977D-17 -0.13936615D-16
 -0.25938145D-16 -0.43710663D-16 -0.65254636D-16  0.30756283D-16 -0.16813181D-15
 -0.13241885D-15 -0.45665977D-04 -0.27249159D-03 -0.36890042D-15  0.15901230D-04
  0.94883583D-04  0.15807686D-15 -0.76856270D-04 -0.45860592D-03 -0.10173066D-15
  0.22755259D-04  0.13578198D-03 -0.33520894D-16 -0.21086016D-15  0.11683016D-15
  0.94030001D-16 -0.26361453D-15  0.28405767D-03  0.16949889D-02  0.24433190D-16
  0.20946720D-16 -0.45379910D-16  0.48847757D-16 -0.23965893D-03 -0.14300591D-02
  0.79404564D-04  0.47381173D-03 -0.73990189D-16  0.79407129D-04  0.47382704D-03
  0.65422913D-16 -0.31762082D-03 -0.18952622D-02  0.15654765D-15 -0.18793927D-15
MO    4     MO 0.0        OCC NO =    2.0000000  ORB. ENERGY =   -1.048442
 -0.20653517D-16 -0.38654142D-16 -0.66926513D-16 -0.10923654D-15 -0.16924529D-15
 -0.24642302D-15 -0.32641492D-15 -0.36608893D-15 -0.30375680D-15 -0.13954417D-15
 -0.40203686D-16 -0.13134738D-15 -0.17423712D-15  0.13909638D-16  0.15046526D-15
  0.21070937D-15 -0.21375420D-18 -0.29754113D-16 -0.13123539D-16  0.42052759D-17
 -0.18556145D+01 -0.26038174D+01 -0.32560643D+01 -0.34920056D+01 -0.30487019D+01
 -0.19421165D+01 -0.85230561D+00 -0.22776888D+00  0.31097638D+00  0.43636528D+00
  0.54567320D+00  0.58521384D+00  0.51092201D+00  0.32547297D+00  0.14283512D+00
  0.38171044D-01 -0.28516844D-13 -0.40015130D-13 -0.50038776D-13 -0.53664691D-13
 -0.46852057D-13 -0.29846195D-13 -0.13098123D-13 -0.35003228D-14 -0.20923125D-01
  0.35064383D-02 -0.30112030D-15 -0.17067528D-02  0.28602914D-03 -0.18159833D-16
  0.12276613D-03 -0.20573975D-04  0.95624175D-17 -0.16243387D-04  0.27221763D-05
 -0.86172774D-18  0.26699505D-15  0.11891913D-15 -0.38591418D-15 -0.52898207D-15
 -0.36209420D-01  0.60682186D-02  0.60564619D-17  0.12721332D-16 -0.18777794D-16
 -0.39640650D-16 -0.14054729D-02  0.23553863D-03  0.91448248D-18  0.11250429D-17
 -0.20395254D-17  0.75988632D-17  0.90235789D-04 -0.15122322D-04 -0.23115689D-06
  0.38738829D-07  0.11298644D-17 -0.23114675D-06  0.38737131D-07 -0.48148197D-17
  0.92461741D-06 -0.15495362D-06  0.14252264D-17 -0.12455839D-17  0.61818617D-17
  0.11505378D-16  0.19388730D-16  0.28944986D-16 -0.18025542D-16  0.83156635D-16
  0.30539568D-16 -0.27249159D-03  0.45665977D-04  0.15539516D-15  0.94883583D-04
 -0.15901230D-04 -0.79830053D-16 -0.45860592D-03  0.76856270D-04  0.39631710D-16
  0.13578198D-03 -0.22755259D-04  0.81268807D-17  0.10683568D-15 -0.70466476D-16
 -0.36369200D-16 -0.90267776D-16  0.16949889D-02 -0.28405767D-03 -0.17550145D-16
 -0.14374948D-16  0.31925094D-16  0.34217163D-16 -0.14300591D-02  0.23965893D-03
  0.47381173D-03 -0.79404564D-04 -0.49017200D-16  0.47382704D-03 -0.79407129D-04
  0.36299727D-16 -0.18952622D-02  0.31762082D-03  0.11075187D-15 -0.83302605D-16
MO    5     MO 0.0        OCC NO =    2.0000000  ORB. ENERGY =   -1.045182
 -0.12179951D-02 -0.22795418D-02 -0.39468418D-02 -0.64419813D-02 -0.99808632D-02
 -0.14532248D-01 -0.19249591D-01 -0.21589278D-01 -0.17913379D-01 -0.82293058D-02
 -0.25432612D-02 -0.83089571D-02 -0.11022136D-01  0.12428173D-02  0.91458281D-02
  0.14105051D-01 -0.16172438D-02 -0.13793419D-03  0.94850500D-03 -0.21143625D-03
  0.24826758D-13  0.34837163D-13  0.43563747D-13  0.46720468D-13  0.40789390D-13
  0.25984091D-13  0.11403223D-13  0.30473802D-14 -0.22846070D-13 -0.32057841D-13
 -0.40088215D-13 -0.42993092D-13 -0.37535198D-13 -0.23911070D-13 -0.10493469D-13
 -0.28042591D-14 -0.18820616D+01 -0.26409283D+01 -0.33024713D+01 -0.35417754D+01
 -0.30921535D+01 -0.19697965D+01 -0.86445309D+00 -0.23101516D+00  0.32362463D-15
 -0.31956685D-15 -0.19597249D-01  0.18691454D-16  0.24018958D-16 -0.18256548D-02
 -0.14048700D-17 -0.87090076D-17 -0.96127407D-04 -0.11946838D-18  0.66461208D-18
  0.16834681D-05  0.12029312D-01  0.12029312D-01 -0.24058624D-01 -0.17776759D-15
  0.46779198D-15 -0.49886526D-15  0.82666370D-03  0.82666370D-03 -0.16533274D-02
 -0.28871283D-17  0.19284473D-16 -0.14106632D-16 -0.42252404D-04 -0.42252404D-04
  0.84504808D-04  0.20947321D-18 -0.25674712D-17 -0.11571653D-17 -0.83753343D-19
 -0.23354126D-18  0.53380090D-04 -0.83985012D-19 -0.23392653D-18 -0.80070134D-04
  0.33524504D-18  0.93455030D-18 -0.80070134D-04  0.20784084D-19  0.50762025D-03
  0.94475792D-03  0.15920952D-02  0.23768020D-02  0.68812067D-04  0.52869699D-02
 -0.28923299D-02  0.96517657D-17 -0.23367226D-19  0.96550501D-04 -0.38326719D-17
  0.76963274D-18  0.11989972D-02  0.12667079D-16 -0.79787636D-17  0.32660442D-02
 -0.60383567D-17 -0.44948423D-17 -0.62865595D-03  0.10834262D-02  0.10834262D-02
 -0.21668523D-02  0.48443793D-17 -0.31678583D-16  0.26419705D-16 -0.14260166D-02
 -0.14260166D-02  0.28520332D-02 -0.55694598D-18  0.22914887D-16 -0.23179655D-16
  0.22178561D-17  0.32551238D-17  0.15634032D-02  0.22148983D-17  0.31815733D-17
 -0.23451048D-02 -0.88684665D-17 -0.12946945D-16 -0.23451048D-02  0.21567148D-16
MO    6     MO 0.0        OCC NO =    2.0000000  ORB. ENERGY =   -0.155373
 -0.72366626D-02 -0.13543794D-01 -0.23449981D-01 -0.38274740D-01 -0.59300846D-01
 -0.86342690D-01 -0.11437057D+00 -0.12827172D+00 -0.10643153D+00 -0.48894048D-01
 -0.14856036D-01 -0.48535385D-01 -0.64383967D-01 -0.20871898D-02  0.75916115D-01
  0.84088869D-01  0.24447505D-01 -0.34576572D-01 -0.33802769D-02 -0.16459038D-02
  0.36531291D-16  0.51261085D-16  0.64101802D-16  0.68746754D-16  0.60019480D-16
  0.38234247D-16  0.16779253D-16  0.44840624D-17 -0.52938433D-16 -0.74283757D-16
 -0.92891569D-16 -0.99622689D-16 -0.86975771D-16 -0.55406230D-16 -0.24315246D-16
 -0.64979702D-17 -0.16364986D+00 -0.22963518D+00 -0.28715796D+00 -0.30796603D+00
 -0.26887031D+00 -0.17127862D+00 -0.75166311D-01 -0.20087333D-01  0.26667696D-17
 -0.14855788D-16 -0.21340745D-02 -0.83692729D-17  0.78481861D-17  0.65126750D-02
  0.35342235D-17 -0.47822519D-18  0.18137829D-02 -0.31492939D-18  0.61690118D-19
  0.32361116D-04  0.13112970D-01  0.13112970D-01 -0.26225940D-01  0.91834277D-17
 -0.15668853D-17 -0.36402533D-16  0.11953195D-02  0.11953195D-02 -0.23906390D-02
  0.21140974D-17  0.69789199D-18 -0.86108708D-18  0.30882264D-03  0.30882264D-03
 -0.61764528D-03  0.47591600D-18  0.85233882D-18  0.11754664D-17  0.36994502D-19
  0.81101396D-19  0.12044290D-03 -0.13465534D-19  0.96246819D-19 -0.18066436D-03
 -0.97517971D-19 -0.33955101D-18 -0.18066436D-03 -0.91576492D-19 -0.19829606D-01
 -0.36905891D-01 -0.62193382D-01 -0.92847060D-01 -0.92846023D-01 -0.66284059D-01
 -0.17675441D-01 -0.77969132D-18 -0.31975036D-17 -0.33876049D-02  0.18520025D-18
  0.67053961D-18 -0.93151233D-03 -0.43273625D-18  0.34678515D-19 -0.46392977D-02
  0.18653923D-17  0.26449291D-17  0.15502759D-02 -0.48938144D-03 -0.48938144D-03
  0.97876287D-03  0.52061201D-17 -0.16641687D-17 -0.24579959D-17  0.81206295D-03
  0.81206295D-03 -0.16241259D-02  0.42187989D-18 -0.38737574D-18 -0.11406701D-20
  0.35867955D-17  0.93040204D-18 -0.41251552D-03  0.44590995D-17  0.32040514D-18
  0.61877328D-03 -0.15219486D-16 -0.31116113D-17  0.61877328D-03 -0.10783250D-16
END DATA
RHF
