 Molden2AIM, Version 4.0.0 (06/02/2016)           Time: Tue Jun 26 17:32:17 2018
GAUSSIAN              7 MOL ORBITALS    201 PRIMITIVES        2 NUCLEI
  N    1    (CENTRE  1)   0.00000000  0.00000000  2.00260325  CHARGE =  7.0
  O    2    (CENTRE  2)   0.00000000  0.00000000  0.01127789  CHARGE =  8.0
CENTRE ASSIGNMENTS    1  1  1  1  1  1  1  1  1  1  1  1  1  1  1  1  1  1  1  1
CENTRE ASSIGNMENTS    1  1  1  1  1  1  1  1  1  1  1  1  1  1  1  1  1  1  1  1
CENTRE ASSIGNMENTS    1  1  1  1  1  1  1  1  1  1  1  1  1  1  1  1  1  1  1  1
CENTRE ASSIGNMENTS    1  1  1  1  1  1  1  1  1  1  1  1  1  1  1  1  1  1  1  1
CENTRE ASSIGNMENTS    1  1  1  1  1  1  1  1  1  1  1  1  1  1  1  1  1  1  1  2
CENTRE ASSIGNMENTS    2  2  2  2  2  2  2  2  2  2  2  2  2  2  2  2  2  2  2  2
CENTRE ASSIGNMENTS    2  2  2  2  2  2  2  2  2  2  2  2  2  2  2  2  2  2  2  2
CENTRE ASSIGNMENTS    2  2  2  2  2  2  2  2  2  2  2  2  2  2  2  2  2  2  2  2
CENTRE ASSIGNMENTS    2  2  2  2  2  2  2  2  2  2  2  2  2  2  2  2  2  2  2  2
CENTRE ASSIGNMENTS    2  2  2  2  2  2  2  2  2  2  2  2  2  2  2  2  2  2  2  2
CENTRE ASSIGNMENTS    2
TYPE ASSIGNMENTS      1  1  1  1  1  1  1  1  1  1  1  1  1  1  1  1  2  2  2  2
TYPE ASSIGNMENTS      2  3  3  3  3  3  4  4  4  4  4  2  3  4  2  3  4  2  3  4
TYPE ASSIGNMENTS      5  6  7  8  9 10  5  6  7  8  9 10  5  6  7  8  9 10  5  6
TYPE ASSIGNMENTS      7  8  9 10 11 12 13 17 14 15 18 19 16 20 11 12 13 17 14 15
TYPE ASSIGNMENTS     18 19 16 20 21 22 23 24 25 26 27 28 29 30 31 32 33 34 35  1
TYPE ASSIGNMENTS      1  1  1  1  1  1  1  1  1  1  1  1  1  1  1  2  2  2  2  2
TYPE ASSIGNMENTS      3  3  3  3  3  4  4  4  4  4  2  3  4  2  3  4  2  3  4  2
TYPE ASSIGNMENTS      3  4  5  6  7  8  9 10  5  6  7  8  9 10  5  6  7  8  9 10
TYPE ASSIGNMENTS      5  6  7  8  9 10 11 12 13 17 14 15 18 19 16 20 11 12 13 17
TYPE ASSIGNMENTS     14 15 18 19 16 20 21 22 23 24 25 26 27 28 29 30 31 32 33 34
TYPE ASSIGNMENTS     35
EXPONENTS  0.9072689D+05 0.1359053D+05 0.3092988D+04 0.8759988D+03 0.2857447D+03
EXPONENTS  0.1031191D+03 0.4012856D+02 0.1652810D+02 0.6939096D+02 0.2042820D+02
EXPONENTS  0.7129259D+01 0.3132430D+01 0.9875578D+00 0.3876572D+00 0.1490988D+00
EXPONENTS  0.6215163D-01 0.1500574D+03 0.3549160D+02 0.1124786D+02 0.4090031D+01
EXPONENTS  0.1622057D+01 0.1500574D+03 0.3549160D+02 0.1124786D+02 0.4090031D+01
EXPONENTS  0.1622057D+01 0.1500574D+03 0.3549160D+02 0.1124786D+02 0.4090031D+01
EXPONENTS  0.1622057D+01 0.6644226D+00 0.6644226D+00 0.6644226D+00 0.2709977D+00
EXPONENTS  0.2709977D+00 0.2709977D+00 0.1068875D+00 0.1068875D+00 0.1068875D+00
EXPONENTS  0.2837000D+01 0.2837000D+01 0.2837000D+01 0.2837000D+01 0.2837000D+01
EXPONENTS  0.2837000D+01 0.9680000D+00 0.9680000D+00 0.9680000D+00 0.9680000D+00
EXPONENTS  0.9680000D+00 0.9680000D+00 0.3350000D+00 0.3350000D+00 0.3350000D+00
EXPONENTS  0.3350000D+00 0.3350000D+00 0.3350000D+00 0.1082528D+00 0.1082528D+00
EXPONENTS  0.1082528D+00 0.1082528D+00 0.1082528D+00 0.1082528D+00 0.2027000D+01
EXPONENTS  0.2027000D+01 0.2027000D+01 0.2027000D+01 0.2027000D+01 0.2027000D+01
EXPONENTS  0.2027000D+01 0.2027000D+01 0.2027000D+01 0.2027000D+01 0.6850000D+00
EXPONENTS  0.6850000D+00 0.6850000D+00 0.6850000D+00 0.6850000D+00 0.6850000D+00
EXPONENTS  0.6850000D+00 0.6850000D+00 0.6850000D+00 0.6850000D+00 0.1427000D+01
EXPONENTS  0.1427000D+01 0.1427000D+01 0.1427000D+01 0.1427000D+01 0.1427000D+01
EXPONENTS  0.1427000D+01 0.1427000D+01 0.1427000D+01 0.1427000D+01 0.1427000D+01
EXPONENTS  0.1427000D+01 0.1427000D+01 0.1427000D+01 0.1427000D+01 0.1165065D+06
EXPONENTS  0.1750435D+05 0.3993451D+04 0.1133006D+04 0.3699957D+03 0.1336207D+03
EXPONENTS  0.5203564D+02 0.2146194D+02 0.8983505D+02 0.2642801D+02 0.9282282D+01
EXPONENTS  0.4094773D+01 0.1325535D+01 0.5187723D+00 0.1977268D+00 0.6963854D-01
EXPONENTS  0.1911526D+03 0.4523336D+02 0.1435347D+02 0.5242237D+01 0.2079242D+01
EXPONENTS  0.1911526D+03 0.4523336D+02 0.1435347D+02 0.5242237D+01 0.2079242D+01
EXPONENTS  0.1911526D+03 0.4523336D+02 0.1435347D+02 0.5242237D+01 0.2079242D+01
EXPONENTS  0.8428237D+00 0.8428237D+00 0.8428237D+00 0.3361769D+00 0.3361769D+00
EXPONENTS  0.3361769D+00 0.1286400D+00 0.1286400D+00 0.1286400D+00 0.4359816D-01
EXPONENTS  0.4359816D-01 0.4359816D-01 0.3775000D+01 0.3775000D+01 0.3775000D+01
EXPONENTS  0.3775000D+01 0.3775000D+01 0.3775000D+01 0.1300000D+01 0.1300000D+01
EXPONENTS  0.1300000D+01 0.1300000D+01 0.1300000D+01 0.1300000D+01 0.4440000D+00
EXPONENTS  0.4440000D+00 0.4440000D+00 0.4440000D+00 0.4440000D+00 0.4440000D+00
EXPONENTS  0.1254638D+00 0.1254638D+00 0.1254638D+00 0.1254638D+00 0.1254638D+00
EXPONENTS  0.1254638D+00 0.2666000D+01 0.2666000D+01 0.2666000D+01 0.2666000D+01
EXPONENTS  0.2666000D+01 0.2666000D+01 0.2666000D+01 0.2666000D+01 0.2666000D+01
EXPONENTS  0.2666000D+01 0.8590000D+00 0.8590000D+00 0.8590000D+00 0.8590000D+00
EXPONENTS  0.8590000D+00 0.8590000D+00 0.8590000D+00 0.8590000D+00 0.8590000D+00
EXPONENTS  0.8590000D+00 0.1846000D+01 0.1846000D+01 0.1846000D+01 0.1846000D+01
EXPONENTS  0.1846000D+01 0.1846000D+01 0.1846000D+01 0.1846000D+01 0.1846000D+01
EXPONENTS  0.1846000D+01 0.1846000D+01 0.1846000D+01 0.1846000D+01 0.1846000D+01
EXPONENTS  0.1846000D+01
MO    1     MO 0.0        OCC NO =    2.0000000  ORB. ENERGY =  -19.376877
  0.10619968D-04  0.19875174D-04  0.34341018D-04  0.55813089D-04  0.85200941D-04
  0.11965581D-03  0.14548059D-03  0.13861538D-03 -0.54945931D-04 -0.21470533D-03
  0.44683012D-03 -0.58809289D-03 -0.91064370D-04  0.32917783D-02  0.98358132D-03
  0.26753117D-04  0.45800815D-15  0.60084411D-15  0.66247340D-15  0.61994641D-15
  0.45400503D-15  0.24991597D-15  0.32785561D-15  0.36148415D-15  0.33827894D-15
  0.24773164D-15  0.21868803D-03  0.28688882D-03  0.31631535D-03  0.29600971D-03
  0.21677664D-03 -0.11664385D-15 -0.12977616D-16 -0.32413320D-02  0.90466220D-16
 -0.59380411D-16 -0.14344200D-02  0.39272065D-17  0.54231145D-16 -0.69196419D-04
  0.13954693D-03  0.13954693D-03 -0.27909386D-03  0.23897175D-15 -0.39737232D-16
 -0.36806531D-15 -0.91429597D-03 -0.91429597D-03  0.18285919D-02 -0.13933571D-15
 -0.56324330D-15 -0.23765035D-15 -0.19938005D-03 -0.19938005D-03  0.39876010D-03
  0.19444037D-16 -0.48324391D-17  0.81962083D-16 -0.20522603D-05 -0.20522603D-05
  0.41045206D-05 -0.16805357D-17 -0.10347979D-17 -0.11823140D-16 -0.28101391D-16
  0.43149751D-16 -0.11742561D-02 -0.28054962D-16  0.43214244D-16  0.17613841D-02
  0.11235913D-15 -0.17266350D-15  0.17613841D-02  0.14620715D-15 -0.11390642D-16
  0.68448045D-17 -0.14263826D-03 -0.11394518D-16  0.68617169D-17  0.21395739D-03
  0.45566444D-16 -0.27396131D-16  0.21395739D-03 -0.73015388D-16 -0.19959112D-04
 -0.19959112D-04 -0.53224348D-04 -0.76372411D-17  0.55962529D-16 -0.76156192D-17
 -0.14947564D-16 -0.74633679D-16  0.19906780D-16 -0.39918370D-04  0.15967304D-03
  0.15967304D-03 -0.14877649D-16  0.56013452D-16  0.45758581D-16  0.18264579D+00
  0.34113027D+00  0.58876481D+00  0.95637367D+00  0.14596326D+01  0.20500269D+01
  0.24920262D+01  0.23642234D+01 -0.11002070D-01 -0.42876812D-01  0.13592623D+01
  0.35538860D+00  0.13203289D-01 -0.42448716D-02 -0.17311405D-02 -0.84763109D-04
 -0.36748676D-15 -0.48392281D-15 -0.53837537D-15 -0.49997209D-15 -0.34853751D-15
 -0.57841821D-16 -0.76168667D-16 -0.84739413D-16 -0.78694798D-16 -0.54859240D-16
  0.58917443D-02  0.77585094D-02  0.86315221D-02  0.80158200D-02  0.55879398D-02
  0.65265589D-16 -0.13395018D-15 -0.32080289D-02 -0.13031103D-15  0.95400554D-16
 -0.22905629D-02 -0.52472560D-17 -0.72089941D-16 -0.13152105D-03 -0.49734484D-18
 -0.83530297D-18 -0.95111266D-06 -0.24833535D-02 -0.24833535D-02  0.49667070D-02
 -0.21105718D-16  0.60570881D-16  0.19456606D-15  0.87039039D-03  0.87039039D-03
 -0.17407808D-02 -0.78316102D-17 -0.35634377D-15 -0.87195158D-16  0.51142555D-03
  0.51142555D-03 -0.10228511D-02 -0.23812166D-16 -0.75572886D-16  0.76012852D-16
  0.21103456D-05  0.21103456D-05 -0.42206913D-05  0.77612575D-18 -0.22029716D-17
 -0.14435431D-16 -0.61125852D-16  0.32830172D-16  0.14079303D-02 -0.61032281D-16
  0.36827882D-16 -0.21118954D-02  0.24440984D-15 -0.13531840D-15 -0.21118954D-02
 -0.32439699D-16  0.11016929D-15 -0.16289637D-16 -0.79152840D-03  0.11016631D-15
 -0.16400061D-16  0.11872926D-02 -0.44067416D-15  0.65268972D-16  0.11872926D-02
  0.70797460D-17 -0.17981738D-03 -0.17981738D-03 -0.47951102D-03  0.21850609D-16
  0.76125070D-16  0.21982054D-16 -0.23888851D-15 -0.10149010D-15  0.31849363D-15
 -0.35962876D-03  0.14385331D-02  0.14385331D-02 -0.23881537D-15  0.76095104D-16
 -0.13149799D-15
MO    2     MO 0.0        OCC NO =    2.0000000  ORB. ENERGY =  -14.606138
 -0.14770380D+00 -0.27642633D+00 -0.47761905D+00 -0.77625523D+00 -0.11849851D+01
 -0.16641875D+01 -0.20233618D+01 -0.19278796D+01  0.10827901D-01  0.42310833D-01
 -0.11190649D+01 -0.30148004D+00 -0.12264691D-01  0.51103511D-02  0.21787470D-02
  0.27427661D-03  0.11424621D-17  0.14987541D-17  0.16524831D-17  0.15464032D-17
  0.11324766D-17 -0.68849598D-17 -0.90321265D-17 -0.99585625D-17 -0.93192799D-17
 -0.68247834D-17  0.59787674D-02  0.78433259D-02  0.86478252D-02  0.80926844D-02
  0.59265113D-02  0.32587862D-17  0.39535913D-17 -0.32787109D-02  0.28152994D-18
  0.33052322D-17 -0.24201783D-02 -0.27832619D-19 -0.46037604D-18 -0.20777248D-03
  0.24354150D-02  0.24354150D-02 -0.48708300D-02  0.33093000D-16  0.21250869D-16
  0.68254330D-16 -0.73746017D-03 -0.73746017D-03  0.14749203D-02 -0.49802096D-17
 -0.59362219D-17 -0.12489998D-16 -0.41036780D-03 -0.41036780D-03  0.82073560D-03
  0.81044515D-18 -0.40478166D-17 -0.33478034D-17 -0.18385399D-05 -0.18385399D-05
  0.36770798D-05  0.57711886D-19  0.28767560D-18  0.14711846D-18 -0.15952809D-17
 -0.30341851D-17  0.15940714D-02 -0.66187274D-18 -0.13372973D-17 -0.23911071D-02
  0.54477155D-17  0.10439853D-16 -0.23911071D-02 -0.10243015D-16 -0.80931063D-18
 -0.25076911D-17 -0.58697000D-03 -0.84399464D-18 -0.25731614D-17  0.88045500D-03
  0.32719265D-17  0.10096235D-16  0.88045500D-03  0.30748704D-17  0.81412658D-04
  0.81412658D-04  0.21710383D-03  0.83776154D-18  0.75098718D-17  0.79804925D-18
  0.20848578D-16 -0.10028773D-16 -0.27764130D-16  0.16283553D-03 -0.65131148D-03
 -0.65131148D-03  0.20746657D-16  0.75567049D-17 -0.49074324D-17  0.46068256D-04
  0.86042369D-04  0.14850256D-03  0.24122355D-03  0.36815919D-03  0.51707277D-03
  0.62855706D-03  0.59632169D-03 -0.15442259D-04 -0.60180931D-04  0.51323826D-03
 -0.41712377D-04  0.69710873D-03 -0.29720352D-02 -0.32412438D-02 -0.49821748D-03
  0.12795922D-18  0.16850235D-18  0.18746278D-18  0.17409072D-18  0.12136107D-18
  0.32797140D-18  0.43188723D-18  0.48048459D-18  0.44621076D-18  0.31105974D-18
 -0.46801108D-04 -0.61629768D-04 -0.68564550D-04 -0.63673717D-04 -0.44387835D-04
 -0.37774736D-17 -0.37616438D-17 -0.20575302D-02 -0.38383949D-17 -0.50149602D-17
 -0.25750447D-02  0.90346312D-18  0.59285257D-18 -0.47086187D-03  0.30420344D-19
  0.19800481D-19 -0.16043178D-04  0.31547286D-03  0.31547286D-03 -0.63094573D-03
  0.47629642D-17 -0.47206012D-17 -0.84812492D-17  0.52126145D-03  0.52126145D-03
 -0.10425229D-02 -0.13349466D-17 -0.67217656D-17 -0.24519366D-16  0.31763452D-03
  0.31763452D-03 -0.63526905D-03  0.94463001D-18 -0.22624026D-17 -0.57732617D-17
  0.20070635D-04  0.20070635D-04 -0.40141270D-04 -0.19926500D-19 -0.36650078D-19
  0.21282144D-18 -0.40764542D-17 -0.62753594D-17 -0.15783420D-02 -0.42450656D-17
 -0.61914697D-17  0.23675130D-02  0.16474428D-16  0.25017548D-16  0.23675130D-02
 -0.39721598D-17  0.14309977D-17  0.51003069D-17  0.35475290D-04  0.14352356D-17
  0.51002378D-17 -0.53212935D-04 -0.57282286D-17 -0.20401158D-16 -0.53212935D-04
 -0.37437637D-18  0.10089539D-03  0.10089539D-03  0.26905465D-03  0.54190078D-18
  0.39585076D-17  0.53155803D-18  0.59440665D-17 -0.53227387D-17 -0.79208052D-17
  0.20179164D-03 -0.80716395D-03 -0.80716395D-03  0.59302161D-17  0.40926933D-17
 -0.32203764D-17
MO    3     MO 0.0        OCC NO =    2.0000000  ORB. ENERGY =   -1.683285
 -0.20279776D-01 -0.37953418D-01 -0.65577239D-01 -0.10658008D+00 -0.16269880D+00
 -0.22849344D+00 -0.27780818D+00 -0.26469844D+00 -0.17413674D-01 -0.68045234D-01
 -0.26907944D+00 -0.91703044D-01  0.13873454D+00  0.74503297D-01  0.47342644D-02
  0.42182554D-03 -0.20717341D-15 -0.27178321D-15 -0.29966034D-15 -0.28042386D-15
 -0.20536266D-15  0.16099712D-15  0.21120622D-15  0.23286989D-15  0.21792098D-15
  0.15958996D-15 -0.25355892D+00 -0.33263466D+00 -0.36675339D+00 -0.34320992D+00
 -0.25134275D+00 -0.96324384D-16  0.44763956D-17 -0.97265725D-01  0.20863532D-16
  0.49852242D-18 -0.96177050D-02 -0.94944053D-17 -0.25832359D-16  0.30562111D-03
 -0.41844008D-01 -0.41844008D-01  0.83688016D-01 -0.24904800D-15  0.14462495D-15
 -0.27405637D-15 -0.17788478D-01 -0.17788478D-01  0.35576956D-01  0.41324908D-16
 -0.97092332D-16 -0.59289614D-16 -0.12526195D-02 -0.12526195D-02  0.25052391D-02
  0.61310823D-18 -0.44277830D-16  0.45906634D-16  0.49949244D-04  0.49949244D-04
 -0.99898487D-04 -0.25915655D-17  0.68048153D-17  0.81221467D-17 -0.53626508D-17
  0.50036618D-17 -0.27488396D-01 -0.14469005D-16  0.94773677D-17  0.41232594D-01
  0.30556957D-16 -0.24488353D-16  0.41232594D-01  0.59841816D-16 -0.89329799D-17
  0.32183799D-17 -0.32900839D-02 -0.82009112D-17  0.47813375D-17  0.49351258D-02
  0.34999851D-16 -0.14436477D-16  0.49351258D-02  0.62254647D-17  0.15746460D-02
  0.15746460D-02  0.41990553D-02 -0.18891545D-17  0.40258570D-16 -0.46873093D-17
  0.21877242D-17 -0.53088055D-16 -0.49376031D-19  0.31492897D-02 -0.12597166D-01
 -0.12597166D-01 -0.64150446D-17  0.38488455D-16  0.19729391D-16 -0.32656021D-01
 -0.60992137D-01 -0.10526777D+00 -0.17099413D+00 -0.26097394D+00 -0.36653307D+00
 -0.44556001D+00 -0.42270959D+00 -0.29722011D-01 -0.11583139D+00 -0.44181482D+00
 -0.13150516D+00  0.22392461D+00  0.15424758D+00  0.16029040D-01 -0.11961363D-02
 -0.31818604D-16 -0.41900145D-16 -0.46614885D-16 -0.43289761D-16 -0.30177896D-16
 -0.22988515D-15 -0.30272293D-15 -0.33678630D-15 -0.31276273D-15 -0.21803125D-15
  0.34545114D+00  0.45490534D+00  0.50609277D+00  0.46999225D+00  0.32763815D+00
 -0.15700508D-16 -0.49636020D-16  0.13532421D+00 -0.40034294D-16 -0.21784717D-16
  0.18940248D-01  0.17385782D-16  0.36742718D-16 -0.90621237D-03  0.19190865D-18
 -0.35084533D-19 -0.61760029D-04 -0.37209346D-01 -0.37209346D-01  0.74418693D-01
 -0.39303144D-16  0.23809614D-16  0.81175403D-16 -0.22087318D-01 -0.22087318D-01
  0.44174637D-01 -0.20361739D-16  0.10421649D-16  0.20458283D-16 -0.26176836D-02
 -0.26176836D-02  0.52353672D-02 -0.70359700D-17 -0.42917233D-16  0.96447589D-17
  0.74724510D-04  0.74724510D-04 -0.14944902D-03 -0.35410496D-18  0.39328997D-17
  0.11402965D-16 -0.17146048D-16 -0.10413948D-17  0.30498227D-01 -0.25154184D-16
  0.28803465D-16 -0.45747340D-01  0.76592327D-16 -0.25679281D-16 -0.45747340D-01
 -0.30138535D-16  0.12091788D-16 -0.25525258D-17  0.48316585D-02  0.13160434D-16
 -0.15558557D-17 -0.72474877D-02 -0.49435799D-16  0.92134332D-17 -0.72474877D-02
  0.13157943D-16  0.20947351D-02  0.20947351D-02  0.55859364D-02 -0.29506873D-17
  0.44517811D-16  0.12869245D-17  0.21022813D-16 -0.57299104D-16 -0.36458790D-16
  0.41893982D-02 -0.16757809D-01 -0.16757809D-01  0.46307928D-16  0.38343879D-16
  0.49912884D-17
MO    4     MO 0.0        OCC NO =    2.0000000  ORB. ENERGY =   -1.020390
  0.21200543D-01  0.39676626D-01  0.68554657D-01  0.11141915D+00  0.17008585D+00
  0.23886778D+00  0.29042157D+00  0.27671661D+00  0.19351881D-01  0.75618922D-01
  0.29028507D+00  0.99747037D-01 -0.15355414D+00 -0.13895542D+00 -0.30581106D-01
 -0.23508839D-02  0.18362382D-15  0.24088937D-15  0.26559768D-15  0.24854783D-15
  0.18201890D-15 -0.31145279D-16 -0.40858350D-16 -0.45049240D-16 -0.42157337D-16
 -0.30873061D-16  0.28802528D-02  0.37784981D-02  0.41660632D-02  0.38986258D-02
  0.28550786D-02  0.83553016D-16 -0.13261879D-15  0.17707561D-01 -0.43544839D-16
  0.49992284D-16  0.61344857D-02 -0.32702472D-16 -0.15494177D-16  0.20964276D-02
  0.54308609D-03  0.54308609D-03 -0.10861722D-02  0.21274541D-15 -0.11101459D-15
 -0.22469685D-15  0.42931830D-02  0.42931830D-02 -0.85863659D-02  0.48267249D-16
  0.22580565D-17 -0.50928341D-16  0.87294302D-03  0.87294302D-03 -0.17458860D-02
 -0.26721261D-17 -0.13428517D-16  0.48370062D-16  0.64412399D-04  0.64412399D-04
 -0.12882480D-03 -0.14863197D-17  0.14087682D-16 -0.64265183D-17 -0.17626360D-17
  0.17689572D-16  0.12939399D-01  0.45266721D-17  0.74642249D-17 -0.19409098D-01
  0.76123602D-18 -0.60532940D-16 -0.19409098D-01 -0.15699181D-16  0.14398713D-17
  0.23588597D-17  0.24330227D-02  0.24026077D-18 -0.11360539D-17 -0.36495340D-02
 -0.45598746D-17 -0.59405253D-17 -0.36495340D-02 -0.27967320D-16 -0.13389147D-02
 -0.13389147D-02 -0.35704437D-02 -0.72975778D-17  0.17142974D-17 -0.16658087D-17
 -0.49609537D-17 -0.26239541D-17  0.72119875D-17 -0.26778427D-02  0.10711331D-01
  0.10711331D-01 -0.67531012D-17  0.27289700D-17  0.26890160D-16 -0.27925136D-01
 -0.52156194D-01 -0.90017610D-01 -0.14622218D+00 -0.22316659D+00 -0.31343335D+00
 -0.38101164D+00 -0.36147156D+00 -0.25998191D-01 -0.10131907D+00 -0.39059209D+00
 -0.10962443D+00  0.19427801D+00  0.19640942D+00  0.64478264D-01  0.42336091D-02
  0.53660732D-15  0.70662824D-15  0.78614034D-15  0.73006353D-15  0.50893746D-15
  0.10307152D-15  0.13572914D-15  0.15100182D-15  0.14023059D-15  0.97756699D-16
 -0.57324475D+00 -0.75487403D+00 -0.83981491D+00 -0.77990940D+00 -0.54368571D+00
  0.25241542D-15  0.67706484D-16 -0.21282819D+00  0.39680572D-16  0.18705784D-16
 -0.33821700D-01  0.73401907D-16  0.32760419D-17 -0.20481435D-04  0.10648267D-17
 -0.27614239D-17  0.11280820D-03  0.37225518D-01  0.37225518D-01 -0.74451036D-01
 -0.22886244D-16  0.12713152D-15  0.13194946D-16  0.15513998D-01  0.15513998D-01
 -0.31027997D-01 -0.20788716D-16  0.35261377D-16 -0.70435346D-16  0.53484246D-03
  0.53484246D-03 -0.10696849D-02 -0.68915980D-17  0.19189729D-16 -0.17286413D-17
  0.31183529D-05  0.31183529D-05 -0.62367058D-05  0.17365222D-18  0.16771461D-16
  0.54825643D-17  0.11082084D-16  0.82851017D-17 -0.11443729D-01  0.55790485D-17
  0.25307330D-16  0.17165593D-01 -0.38825301D-16 -0.50162635D-16  0.17165593D-01
  0.17820550D-17 -0.67247519D-17  0.80018978D-17  0.34799825D-03 -0.65861481D-17
  0.90148955D-17 -0.52199738D-03  0.26760404D-16 -0.33020589D-16 -0.52199738D-03
 -0.16380928D-16 -0.46245257D-03 -0.46245257D-03 -0.12332170D-02  0.12095083D-16
 -0.33875787D-16  0.14627633D-16 -0.40631790D-16  0.47373468D-16  0.50394267D-16
 -0.92493546D-03  0.36996509D-02  0.36996509D-02 -0.29287432D-16 -0.40493041D-16
 -0.80168147D-16
MO    5     MO 0.0        OCC NO =    2.0000000  ORB. ENERGY =   -0.937906
  0.18727514D-16  0.35048373D-16  0.60557800D-16  0.98422182D-16  0.15024545D-15
  0.21100401D-15  0.25654408D-15  0.24443779D-15  0.12375853D-16  0.48359571D-16
  0.27847217D-15  0.68671463D-16 -0.34274386D-16 -0.60409368D-15 -0.51555056D-15
 -0.84111343D-16 -0.38469482D+00 -0.50466704D+00 -0.55643134D+00 -0.52071164D+00
 -0.38133249D+00 -0.13699125D+00 -0.17971380D+00 -0.19814726D+00 -0.18542734D+00
 -0.13579391D+00 -0.26281287D-15 -0.34477457D-15 -0.38013851D-15 -0.35573580D-15
 -0.26051581D-15 -0.17591050D+00 -0.62642382D-01  0.20153223D-15 -0.37119991D-01
 -0.13218566D-01  0.27075629D-15 -0.21722977D-02 -0.77356325D-03  0.47159693D-16
 -0.99788951D-17 -0.61034968D-16  0.71013863D-16  0.82889778D-15  0.11151049D+00
  0.39709299D-01  0.96248683D-16  0.13968842D-15 -0.23593710D-15 -0.40974454D-16
  0.78834522D-01  0.28073266D-01  0.32011281D-16  0.15360279D-17 -0.33547308D-16
  0.11955339D-17  0.86956266D-02  0.30965449D-02  0.15353874D-17  0.20514045D-17
 -0.35867918D-17  0.32904634D-17  0.26192030D-03  0.93270790D-04  0.17636574D-01
  0.62804495D-02  0.19335464D-15  0.17636637D-01  0.62804719D-02 -0.15855364D-15
 -0.70546360D-01 -0.25121820D-01 -0.42151030D-15  0.31918795D-15  0.28091666D-02
  0.10003546D-02  0.18360400D-16  0.28091629D-02  0.10003533D-02 -0.11367347D-15
 -0.11236663D-01 -0.40014173D-02  0.58592269D-16 -0.17607136D-15 -0.40609074D-17
 -0.22509737D-17 -0.27227382D-17 -0.22119015D-16 -0.16276788D-01  0.55046324D-16
 -0.57962246D-02  0.21702398D-01  0.77283042D-02  0.10767429D-16  0.13598016D-16
  0.27384132D-17 -0.57962387D-02 -0.16276828D-01 -0.98781926D-16 -0.12016826D-16
 -0.22444005D-16 -0.38736640D-16 -0.62922752D-16 -0.96033696D-16 -0.13487755D-15
 -0.16395804D-15 -0.15554949D-15 -0.72307368D-17 -0.28179328D-16 -0.17719488D-15
 -0.44990362D-16  0.72200050D-17  0.19839455D-15  0.59445541D-15  0.18860530D-15
 -0.73516347D+00 -0.96809576D+00 -0.10770290D+01 -0.10002026D+01 -0.69725518D+00
 -0.26179444D+00 -0.34474249D+00 -0.38353404D+00 -0.35617586D+00 -0.24829515D+00
 -0.13663865D-15 -0.17993182D-15 -0.20017833D-15 -0.18589925D-15 -0.12959296D-15
 -0.30919040D+00 -0.11010385D+00  0.68999216D-16 -0.73592181D-01 -0.26206448D-01
  0.35544888D-15 -0.29690979D-02 -0.10573068D-02  0.14076057D-15  0.51790256D-04
  0.18442702D-04  0.60958273D-17 -0.28750047D-17 -0.85609305D-16  0.88484310D-16
  0.17187740D-15 -0.11984364D+00 -0.42676764D-01 -0.81705653D-16  0.29731787D-16
  0.51973866D-16 -0.17925030D-16 -0.93989212D-01 -0.33469907D-01 -0.67280272D-16
 -0.91316919D-16  0.15859719D-15  0.95692807D-17 -0.16894258D-01 -0.60161079D-02
 -0.57849858D-17 -0.84851214D-17  0.14270107D-16  0.29623676D-18  0.10288497D-03
  0.36637721D-04  0.18537676D-01  0.66013350D-02 -0.30687502D-16  0.18537815D-01
  0.66013845D-02  0.26506499D-15 -0.74150841D-01 -0.26405389D-01 -0.17300249D-15
 -0.95888236D-16  0.37382309D-02  0.13311979D-02  0.89501109D-16  0.37382297D-02
  0.13311975D-02 -0.14423208D-15 -0.14952923D-01 -0.53247911D-02 -0.12427125D-15
  0.31140219D-16  0.11597698D-16  0.26329653D-16  0.56869056D-16  0.40645684D-16
  0.20803041D-01 -0.83322680D-16  0.74080401D-02 -0.27737412D-01 -0.98773954D-02
  0.56825116D-16 -0.12641130D-15 -0.21480304D-15  0.74080659D-02  0.20803114D-01
  0.12803099D-15
MO    6     MO 0.0        OCC NO =    2.0000000  ORB. ENERGY =   -0.937906
 -0.60091181D-17 -0.11246010D-16 -0.19431249D-16 -0.31580835D-16 -0.48209424D-16
 -0.67705092D-16 -0.82317584D-16 -0.78433026D-16 -0.13977339D-16 -0.54617496D-16
 -0.43372346D-16 -0.10075037D-15  0.20202973D-15 -0.28221492D-15 -0.40393261D-15
 -0.17342149D-16  0.13699125D+00  0.17971380D+00  0.19814726D+00  0.18542734D+00
  0.13579391D+00 -0.38469482D+00 -0.50466704D+00 -0.55643134D+00 -0.52071164D+00
 -0.38133249D+00  0.11544760D-15  0.15145148D-15  0.16698603D-15  0.15626649D-15
  0.11443856D-15  0.62642382D-01 -0.17591050D+00  0.26198292D-15  0.13218566D-01
 -0.37119991D-01  0.39666025D-15  0.77356325D-03 -0.21722977D-02  0.38526381D-16
  0.22420882D-16 -0.17848846D-15  0.15606758D-15  0.15228873D-15 -0.39709299D-01
  0.11151049D+00 -0.11523152D-16  0.11056117D-15 -0.99038013D-16 -0.62153283D-16
 -0.28073266D-01  0.78834522D-01  0.45345891D-16  0.80342414D-16 -0.12568830D-15
  0.12848267D-16 -0.30965449D-02  0.86956266D-02  0.47762730D-17 -0.53852189D-17
  0.60894592D-18 -0.10216497D-16 -0.93270790D-04  0.26192030D-03 -0.62804495D-02
  0.17636574D-01  0.99755495D-16 -0.62804719D-02  0.17636637D-01 -0.21786913D-15
  0.25121820D-01 -0.70546360D-01 -0.81397353D-16 -0.25374053D-15 -0.10003546D-02
  0.28091666D-02  0.50913324D-16 -0.10003533D-02  0.28091629D-02 -0.10319258D-15
  0.40014173D-02 -0.11236663D-01 -0.49547389D-16  0.50382948D-16 -0.13833031D-16
 -0.27369885D-16 -0.65793034D-16 -0.44658664D-16  0.57962246D-02 -0.72363672D-16
 -0.16276788D-01 -0.77283042D-02  0.21702398D-01 -0.73770353D-16  0.15676854D-15
  0.23798966D-15 -0.16276828D-01  0.57962387D-02  0.35106701D-15  0.10462840D-16
  0.19541603D-16  0.33727315D-16  0.54785740D-16  0.83614861D-16  0.11743552D-15
  0.14275540D-15  0.13543423D-15  0.15571555D-16  0.60684817D-16  0.16586891D-15
  0.61422784D-16 -0.15342050D-15  0.20743565D-15  0.55352676D-15  0.37129797D-16
  0.26179444D+00  0.34474249D+00  0.38353404D+00  0.35617586D+00  0.24829515D+00
 -0.73516347D+00 -0.96809576D+00 -0.10770290D+01 -0.10002026D+01 -0.69725518D+00
 -0.30491282D-15 -0.40152267D-15 -0.44670331D-15 -0.41483916D-15 -0.28919016D-15
  0.11010385D+00 -0.30919040D+00  0.12014693D-15  0.26206448D-01 -0.73592181D-01
  0.29335434D-15  0.10573068D-02 -0.29690979D-02  0.89460219D-16 -0.18442702D-04
  0.51790256D-04 -0.22621268D-17  0.10442530D-15 -0.12039478D-15  0.15969480D-16
 -0.49232465D-16  0.42676764D-01 -0.11984364D+00 -0.23850588D-16 -0.15430802D-15
  0.17815861D-15 -0.14552542D-15  0.33469907D-01 -0.93989212D-01 -0.23927199D-17
 -0.68645575D-16  0.71038295D-16 -0.23038920D-16  0.60161079D-02 -0.16894258D-01
 -0.13536071D-17 -0.12097676D-17  0.25633747D-17  0.11753559D-16 -0.36637721D-04
  0.10288497D-03 -0.66013350D-02  0.18537676D-01 -0.39901309D-16 -0.66013845D-02
  0.18537815D-01  0.26209233D-15  0.26405389D-01 -0.74150841D-01 -0.14238840D-15
 -0.12114400D-15 -0.13311979D-02  0.37382309D-02  0.34941604D-16 -0.13311975D-02
  0.37382297D-02 -0.77961779D-16  0.53247911D-02 -0.14952923D-01 -0.26863032D-16
 -0.76378555D-18 -0.32627544D-16  0.48162435D-17 -0.22116931D-17 -0.17052947D-15
 -0.74080401D-02  0.43534947D-15  0.20803041D-01  0.98773954D-02 -0.27737412D-01
  0.76798822D-16  0.11896644D-15 -0.10569628D-15  0.20803114D-01 -0.74080659D-02
 -0.79446001D-15
MO    7     MO 0.0        OCC NO =    2.0000000  ORB. ENERGY =   -0.849743
 -0.18155084D-01 -0.33977076D-01 -0.58706777D-01 -0.95413787D-01 -0.14565301D+00
 -0.20455441D+00 -0.24870250D+00 -0.23696625D+00 -0.16565110D-01 -0.64729408D-01
 -0.25233354D+00 -0.81899988D-01  0.12153873D+00  0.14288167D+00  0.38425213D-01
  0.54033893D-04  0.17899472D-17  0.23481662D-17  0.25890204D-17  0.24228201D-17
  0.17743026D-17  0.14689318D-15  0.19270378D-15  0.21246963D-15  0.19883030D-15
  0.14560929D-15  0.49945019D+00  0.65521040D+00  0.72241612D+00  0.67604114D+00
  0.49508486D+00  0.10388588D-15  0.92918011D-16  0.20262038D+00 -0.55677463D-16
  0.55288899D-16  0.36220391D-01 -0.16114221D-16  0.33282399D-16  0.14465160D-02
  0.41319880D-01  0.41319880D-01 -0.82639759D-01 -0.33195521D-15 -0.83265590D-17
 -0.21964969D-15  0.17518971D-01  0.17518971D-01 -0.35037942D-01 -0.52786497D-16
  0.10483969D-15  0.11440192D-15  0.10998586D-02  0.10998586D-02 -0.21997171D-02
  0.84013204D-17  0.66567642D-16 -0.21892379D-16 -0.14055364D-04 -0.14055364D-04
  0.28110727D-04 -0.12677913D-17 -0.32858646D-17 -0.14576840D-16  0.13937627D-16
  0.58273193D-17  0.20023402D-01  0.10199335D-16  0.36993923D-18 -0.30035103D-01
 -0.52012216D-16 -0.17851897D-16 -0.30035103D-01 -0.27148555D-16  0.14126490D-16
 -0.16838422D-17  0.85210250D-03  0.13948563D-16  0.68683027D-18 -0.12781537D-02
 -0.56328032D-16  0.43646964D-17 -0.12781537D-02 -0.23941167D-16 -0.16492557D-02
 -0.16492557D-02 -0.43980016D-02  0.60554026D-17 -0.23062394D-16 -0.29375353D-17
 -0.21423966D-16  0.32331827D-16  0.23873402D-16 -0.32984710D-02  0.13194005D-01
  0.13194005D-01 -0.73483084D-17 -0.27808298D-16 -0.93536018D-17 -0.23389746D-02
 -0.43685377D-02 -0.75397627D-02 -0.12247387D-01 -0.18692155D-01 -0.26252786D-01
 -0.31913059D-01 -0.30276407D-01 -0.18424393D-02 -0.71802779D-02 -0.35057994D-01
 -0.50479645D-02  0.99862203D-02  0.19062965D-01  0.87445188D-02  0.13857441D-02
 -0.37932339D-15 -0.49950981D-15 -0.55571627D-15 -0.51607603D-15 -0.35976379D-15
 -0.48315063D-16 -0.63623410D-16 -0.70782523D-16 -0.65733478D-16 -0.45823723D-16
 -0.55402212D+00 -0.72956082D+00 -0.81165338D+00 -0.75375668D+00 -0.52545428D+00
 -0.14492833D-15  0.19794005D-16 -0.22804948D+00  0.91933814D-18 -0.22609399D-16
 -0.51800813D-01  0.46691307D-17 -0.40171150D-16 -0.25286613D-02  0.26312108D-17
 -0.77188861D-17  0.51960300D-04  0.29373990D-01  0.29373990D-01 -0.58747980D-01
  0.18355963D-16 -0.63256354D-16 -0.31675093D-17  0.18111775D-01  0.18111775D-01
 -0.36223550D-01 -0.30109715D-16  0.25763988D-16  0.12587176D-16  0.25426329D-02
  0.25426329D-02 -0.50852659D-02  0.18566267D-17  0.41961555D-16 -0.17279353D-16
 -0.27857811D-04 -0.27857811D-04  0.55715622D-04  0.20968958D-18  0.58774462D-17
 -0.11760466D-16  0.12488547D-16 -0.70580796D-17 -0.28212325D-01  0.17735373D-16
 -0.57352705D-17  0.42318488D-01 -0.55201013D-16  0.26909509D-16  0.42318488D-01
  0.42632102D-16 -0.25460596D-16 -0.81738656D-17 -0.37266684D-02 -0.26612626D-16
 -0.93093181D-17  0.55900025D-02  0.10299441D-15  0.33830915D-16  0.55900025D-02
 -0.28227276D-16 -0.29597646D-02 -0.29597646D-02 -0.78926990D-02 -0.24074470D-17
 -0.38971273D-16  0.10872628D-18 -0.44039631D-16  0.53431628D-16  0.61305569D-16
 -0.59195093D-02  0.23678097D-01  0.23678097D-01 -0.51797817D-16 -0.43381065D-16
  0.68961622D-17
END DATA
RHF
