 Molden2AIM, Version 4.0.0 (06/02/2016)           Time: Thu Jun 28 23:43:59 2018
GAUSSIAN             20 MOL ORBITALS    338 PRIMITIVES        2 NUCLEI
  N    1    (CENTRE  1)   0.00000000  0.00000000 -0.06506705  CHARGE =  7.0
  Se   2    (CENTRE  2)   0.00000000  0.00000000  2.89965624  CHARGE = 34.0
CENTRE ASSIGNMENTS    1  1  1  1  1  1  1  1  1  1  1  1  1  1  1  1  1  1  1  1
CENTRE ASSIGNMENTS    1  1  1  1  1  1  1  1  1  1  1  1  1  1  1  1  1  1  1  1
CENTRE ASSIGNMENTS    1  1  1  1  1  1  1  1  1  1  1  1  1  1  1  1  1  1  1  1
CENTRE ASSIGNMENTS    1  1  1  1  1  1  1  1  1  1  1  1  1  1  1  2  2  2  2  2
CENTRE ASSIGNMENTS    2  2  2  2  2  2  2  2  2  2  2  2  2  2  2  2  2  2  2  2
CENTRE ASSIGNMENTS    2  2  2  2  2  2  2  2  2  2  2  2  2  2  2  2  2  2  2  2
CENTRE ASSIGNMENTS    2  2  2  2  2  2  2  2  2  2  2  2  2  2  2  2  2  2  2  2
CENTRE ASSIGNMENTS    2  2  2  2  2  2  2  2  2  2  2  2  2  2  2  2  2  2  2  2
CENTRE ASSIGNMENTS    2  2  2  2  2  2  2  2  2  2  2  2  2  2  2  2  2  2  2  2
CENTRE ASSIGNMENTS    2  2  2  2  2  2  2  2  2  2  2  2  2  2  2  2  2  2  2  2
CENTRE ASSIGNMENTS    2  2  2  2  2  2  2  2  2  2  2  2  2  2  2  2  2  2  2  2
CENTRE ASSIGNMENTS    2  2  2  2  2  2  2  2  2  2  2  2  2  2  2  2  2  2  2  2
CENTRE ASSIGNMENTS    2  2  2  2  2  2  2  2  2  2  2  2  2  2  2  2  2  2  2  2
CENTRE ASSIGNMENTS    2  2  2  2  2  2  2  2  2  2  2  2  2  2  2  2  2  2  2  2
CENTRE ASSIGNMENTS    2  2  2  2  2  2  2  2  2  2  2  2  2  2  2  2  2  2  2  2
CENTRE ASSIGNMENTS    2  2  2  2  2  2  2  2  2  2  2  2  2  2  2  2  2  2  2  2
CENTRE ASSIGNMENTS    2  2  2  2  2  2  2  2  2  2  2  2  2  2  2  2  2  2
TYPE ASSIGNMENTS      1  1  1  1  1  1  1  1  1  1  1  1  1  1  1  1  1  1  1  2
TYPE ASSIGNMENTS      2  2  3  3  3  4  4  4  2  3  4  2  3  4  2  3  4  5  6  7
TYPE ASSIGNMENTS      8  9 10  5  6  7  8  9 10  5  6  7  8  9 10 11 12 13 17 14
TYPE ASSIGNMENTS     15 18 19 16 20 11 12 13 17 14 15 18 19 16 20  1  1  1  1  1
TYPE ASSIGNMENTS      1  1  1  1  1  1  1  1  1  1  1  1  1  1  1  1  1  1  1  1
TYPE ASSIGNMENTS      1  1  1  1  1  1  1  1  1  1  1  1  1  1  1  1  1  1  1  1
TYPE ASSIGNMENTS      1  1  1  1  1  1  1  1  1  1  1  1  1  1  1  1  1  1  1  1
TYPE ASSIGNMENTS      1  1  1  1  1  1  1  1  1  1  2  2  2  2  2  2  2  2  2  2
TYPE ASSIGNMENTS      2  3  3  3  3  3  3  3  3  3  3  3  4  4  4  4  4  4  4  4
TYPE ASSIGNMENTS      4  4  4  2  2  2  2  2  2  2  2  2  2  2  3  3  3  3  3  3
TYPE ASSIGNMENTS      3  3  3  3  3  4  4  4  4  4  4  4  4  4  4  4  2  2  2  2
TYPE ASSIGNMENTS      2  2  2  2  2  2  2  3  3  3  3  3  3  3  3  3  3  3  4  4
TYPE ASSIGNMENTS      4  4  4  4  4  4  4  4  4  2  3  4  2  3  4  2  3  4  5  5
TYPE ASSIGNMENTS      5  5  5  5  5  6  6  6  6  6  6  6  7  7  7  7  7  7  7  8
TYPE ASSIGNMENTS      8  8  8  8  8  8  9  9  9  9  9  9  9 10 10 10 10 10 10 10
TYPE ASSIGNMENTS      5  6  7  8  9 10  5  6  7  8  9 10  5  6  7  8  9 10 11 12
TYPE ASSIGNMENTS     13 17 14 15 18 19 16 20 11 12 13 17 14 15 18 19 16 20
EXPONENTS  0.1142000D+05 0.1712000D+04 0.3893000D+03 0.1100000D+03 0.3557000D+02
EXPONENTS  0.1254000D+02 0.4644000D+01 0.5118000D+00 0.1142000D+05 0.1712000D+04
EXPONENTS  0.3893000D+03 0.1100000D+03 0.3557000D+02 0.1254000D+02 0.4644000D+01
EXPONENTS  0.5118000D+00 0.1293000D+01 0.1787000D+00 0.5760000D-01 0.2663000D+02
EXPONENTS  0.5948000D+01 0.1742000D+01 0.2663000D+02 0.5948000D+01 0.1742000D+01
EXPONENTS  0.2663000D+02 0.5948000D+01 0.1742000D+01 0.5550000D+00 0.5550000D+00
EXPONENTS  0.5550000D+00 0.1725000D+00 0.1725000D+00 0.1725000D+00 0.4910000D-01
EXPONENTS  0.4910000D-01 0.4910000D-01 0.1654000D+01 0.1654000D+01 0.1654000D+01
EXPONENTS  0.1654000D+01 0.1654000D+01 0.1654000D+01 0.4690000D+00 0.4690000D+00
EXPONENTS  0.4690000D+00 0.4690000D+00 0.4690000D+00 0.4690000D+00 0.1510000D+00
EXPONENTS  0.1510000D+00 0.1510000D+00 0.1510000D+00 0.1510000D+00 0.1510000D+00
EXPONENTS  0.1093000D+01 0.1093000D+01 0.1093000D+01 0.1093000D+01 0.1093000D+01
EXPONENTS  0.1093000D+01 0.1093000D+01 0.1093000D+01 0.1093000D+01 0.1093000D+01
EXPONENTS  0.3640000D+00 0.3640000D+00 0.3640000D+00 0.3640000D+00 0.3640000D+00
EXPONENTS  0.3640000D+00 0.3640000D+00 0.3640000D+00 0.3640000D+00 0.3640000D+00
EXPONENTS  0.9563600D+07 0.1432100D+07 0.3259100D+06 0.9231200D+05 0.3011600D+05
EXPONENTS  0.1087200D+05 0.4240100D+04 0.1758400D+04 0.7665900D+03 0.3484300D+03
EXPONENTS  0.1640300D+03 0.7914200D+02 0.3552400D+02 0.1730500D+02 0.8378400D+01
EXPONENTS  0.3740500D+01 0.1689000D+01 0.2552000D+00 0.9563600D+07 0.1432100D+07
EXPONENTS  0.3259100D+06 0.9231200D+05 0.3011600D+05 0.1087200D+05 0.4240100D+04
EXPONENTS  0.1758400D+04 0.7665900D+03 0.3484300D+03 0.1640300D+03 0.7914200D+02
EXPONENTS  0.3552400D+02 0.1730500D+02 0.8378400D+01 0.3740500D+01 0.1689000D+01
EXPONENTS  0.2552000D+00 0.9563600D+07 0.1432100D+07 0.3259100D+06 0.9231200D+05
EXPONENTS  0.3011600D+05 0.1087200D+05 0.4240100D+04 0.1758400D+04 0.7665900D+03
EXPONENTS  0.3484300D+03 0.1640300D+03 0.7914200D+02 0.3552400D+02 0.1730500D+02
EXPONENTS  0.8378400D+01 0.3740500D+01 0.1689000D+01 0.2552000D+00 0.9563600D+07
EXPONENTS  0.1432100D+07 0.3259100D+06 0.9231200D+05 0.3011600D+05 0.1087200D+05
EXPONENTS  0.4240100D+04 0.1758400D+04 0.7665900D+03 0.3484300D+03 0.1640300D+03
EXPONENTS  0.7914200D+02 0.3552400D+02 0.1730500D+02 0.8378400D+01 0.3740500D+01
EXPONENTS  0.1689000D+01 0.2552000D+00 0.5092700D+00 0.1065100D+00 0.3920100D-01
EXPONENTS  0.8004300D+04 0.1896900D+04 0.6147100D+03 0.2335000D+03 0.9785600D+02
EXPONENTS  0.4351400D+02 0.2006300D+02 0.9112700D+01 0.4106300D+01 0.1794900D+01
EXPONENTS  0.2461500D+00 0.8004300D+04 0.1896900D+04 0.6147100D+03 0.2335000D+03
EXPONENTS  0.9785600D+02 0.4351400D+02 0.2006300D+02 0.9112700D+01 0.4106300D+01
EXPONENTS  0.1794900D+01 0.2461500D+00 0.8004300D+04 0.1896900D+04 0.6147100D+03
EXPONENTS  0.2335000D+03 0.9785600D+02 0.4351400D+02 0.2006300D+02 0.9112700D+01
EXPONENTS  0.4106300D+01 0.1794900D+01 0.2461500D+00 0.8004300D+04 0.1896900D+04
EXPONENTS  0.6147100D+03 0.2335000D+03 0.9785600D+02 0.4351400D+02 0.2006300D+02
EXPONENTS  0.9112700D+01 0.4106300D+01 0.1794900D+01 0.2461500D+00 0.8004300D+04
EXPONENTS  0.1896900D+04 0.6147100D+03 0.2335000D+03 0.9785600D+02 0.4351400D+02
EXPONENTS  0.2006300D+02 0.9112700D+01 0.4106300D+01 0.1794900D+01 0.2461500D+00
EXPONENTS  0.8004300D+04 0.1896900D+04 0.6147100D+03 0.2335000D+03 0.9785600D+02
EXPONENTS  0.4351400D+02 0.2006300D+02 0.9112700D+01 0.4106300D+01 0.1794900D+01
EXPONENTS  0.2461500D+00 0.8004300D+04 0.1896900D+04 0.6147100D+03 0.2335000D+03
EXPONENTS  0.9785600D+02 0.4351400D+02 0.2006300D+02 0.9112700D+01 0.4106300D+01
EXPONENTS  0.1794900D+01 0.2461500D+00 0.8004300D+04 0.1896900D+04 0.6147100D+03
EXPONENTS  0.2335000D+03 0.9785600D+02 0.4351400D+02 0.2006300D+02 0.9112700D+01
EXPONENTS  0.4106300D+01 0.1794900D+01 0.2461500D+00 0.8004300D+04 0.1896900D+04
EXPONENTS  0.6147100D+03 0.2335000D+03 0.9785600D+02 0.4351400D+02 0.2006300D+02
EXPONENTS  0.9112700D+01 0.4106300D+01 0.1794900D+01 0.2461500D+00 0.6243200D+00
EXPONENTS  0.6243200D+00 0.6243200D+00 0.8891700D-01 0.8891700D-01 0.8891700D-01
EXPONENTS  0.3025100D-01 0.3025100D-01 0.3025100D-01 0.3618500D+03 0.1085500D+03
EXPONENTS  0.4143300D+02 0.1757900D+02 0.7862700D+01 0.3518000D+01 0.1534800D+01
EXPONENTS  0.3618500D+03 0.1085500D+03 0.4143300D+02 0.1757900D+02 0.7862700D+01
EXPONENTS  0.3518000D+01 0.1534800D+01 0.3618500D+03 0.1085500D+03 0.4143300D+02
EXPONENTS  0.1757900D+02 0.7862700D+01 0.3518000D+01 0.1534800D+01 0.3618500D+03
EXPONENTS  0.1085500D+03 0.4143300D+02 0.1757900D+02 0.7862700D+01 0.3518000D+01
EXPONENTS  0.1534800D+01 0.3618500D+03 0.1085500D+03 0.4143300D+02 0.1757900D+02
EXPONENTS  0.7862700D+01 0.3518000D+01 0.1534800D+01 0.3618500D+03 0.1085500D+03
EXPONENTS  0.4143300D+02 0.1757900D+02 0.7862700D+01 0.3518000D+01 0.1534800D+01
EXPONENTS  0.6081300D+00 0.6081300D+00 0.6081300D+00 0.6081300D+00 0.6081300D+00
EXPONENTS  0.6081300D+00 0.2220000D+00 0.2220000D+00 0.2220000D+00 0.2220000D+00
EXPONENTS  0.2220000D+00 0.2220000D+00 0.8370000D-01 0.8370000D-01 0.8370000D-01
EXPONENTS  0.8370000D-01 0.8370000D-01 0.8370000D-01 0.4620000D+00 0.4620000D+00
EXPONENTS  0.4620000D+00 0.4620000D+00 0.4620000D+00 0.4620000D+00 0.4620000D+00
EXPONENTS  0.4620000D+00 0.4620000D+00 0.4620000D+00 0.1880000D+00 0.1880000D+00
EXPONENTS  0.1880000D+00 0.1880000D+00 0.1880000D+00 0.1880000D+00 0.1880000D+00
EXPONENTS  0.1880000D+00 0.1880000D+00 0.1880000D+00
MO    1     MO 0.0        OCC NO =    2.0000000  ORB. ENERGY = -452.513410
 -0.63194287D-05 -0.11775325D-04 -0.19915027D-04 -0.29990926D-04 -0.37130712D-04
 -0.31596561D-04 -0.12023074D-04  0.56309186D-07  0.44568660D-05  0.83566654D-05
  0.14217174D-04  0.22077771D-04  0.29298486D-04  0.30876582D-04  0.19145451D-04
 -0.12735561D-04 -0.91458947D-05  0.62158352D-04  0.43454906D-05 -0.91552055D-15
 -0.87934654D-15 -0.61665849D-15  0.36800698D-16  0.35346630D-16  0.24787497D-16
 -0.34733071D-04 -0.33360700D-04 -0.23394826D-04  0.15477329D-15 -0.65403503D-16
  0.38819072D-04 -0.64979759D-16 -0.40086842D-16  0.54150671D-04 -0.41988227D-17
  0.18171810D-17  0.12844615D-05  0.97158787D-05  0.97158787D-05 -0.19431757D-04
  0.14645005D-16  0.13422229D-15  0.10291978D-15 -0.14504555D-04 -0.14504555D-04
  0.29009109D-04 -0.86413304D-16  0.43503806D-16 -0.66044267D-16 -0.40998378D-05
 -0.40998378D-05  0.81996757D-05  0.46355402D-17 -0.17547259D-16 -0.13196083D-16
 -0.41615286D-16  0.11775847D-15 -0.34682333D-05  0.14033206D-15 -0.36334541D-15
  0.52023499D-05 -0.15486198D-16  0.10069999D-16  0.52023499D-05  0.23966798D-15
 -0.25609271D-17  0.43267676D-17  0.45519377D-05 -0.90608167D-17  0.16760507D-16
 -0.68279066D-05  0.16743598D-16 -0.29740810D-16 -0.68279066D-05 -0.27349176D-16
  0.77215184D+00  0.14427297D+01  0.25022340D+01  0.40992985D+01  0.64191759D+01
  0.96398904D+01  0.13749244D+02  0.18165537D+02  0.20949329D+02  0.18855068D+02
  0.10578162D+02  0.25573273D+01  0.12140922D+00 -0.20776767D-02  0.58436092D-03
 -0.22772452D-03  0.21540140D-04  0.21239031D-05  0.10504637D-03  0.19344452D-03
  0.33577110D-03  0.54993016D-03  0.86556476D-03  0.13064554D-02  0.19044314D-02
  0.26151844D-02  0.33212509D-02  0.35767765D-02  0.28534851D-02  0.63915791D-03
 -0.17090939D-02 -0.15198534D-02 -0.29683354D-03 -0.82228998D-05 -0.59547444D-06
 -0.12161217D-07 -0.79080143D-04 -0.14277188D-03 -0.24853865D-03 -0.40699252D-03
 -0.64164689D-03 -0.96822751D-03 -0.14170730D-02 -0.19525404D-02 -0.25153952D-02
 -0.27686591D-02 -0.23307620D-02 -0.55503784D-03  0.18695809D-02  0.24981520D-02
  0.30690307D-03 -0.10723610D-02 -0.47337764D-03  0.23492881D-05  0.27813717D-04
  0.60258108D-04  0.10258153D-03  0.16744931D-03  0.26399102D-03  0.39837728D-03
  0.58305895D-03  0.80429328D-03  0.10374542D-02  0.11469223D-02  0.97135813D-03
  0.23594934D-03 -0.81860521D-03 -0.11553674D-02 -0.13785124D-03  0.64786912D-03
  0.51787763D-03 -0.19619654D-03  0.15936188D-03 -0.37387771D-05  0.46931332D-06
  0.63215961D-15  0.90603133D-15  0.11964491D-14  0.13752580D-14  0.12651514D-14
  0.80935198D-15  0.28014811D-15  0.31495347D-16  0.40069758D-18  0.69433966D-19
  0.70953957D-21 -0.19010001D-14 -0.27245741D-14 -0.35979046D-14 -0.41356099D-14
 -0.38045026D-14 -0.24338446D-14 -0.84244800D-15 -0.94711300D-16 -0.12049586D-17
 -0.20879850D-18 -0.21336935D-20  0.72907868D-03  0.10449388D-02  0.13798818D-02
  0.15861046D-02  0.14591171D-02  0.93343716D-03  0.32309881D-03  0.36324032D-04
  0.46213022D-06  0.80079182D-07  0.81832209D-09  0.16253725D-15  0.23444718D-15
  0.31225330D-15  0.36954030D-15  0.35511435D-15  0.24408924D-15  0.76850218D-16
 -0.37141017D-16 -0.38115674D-16 -0.95989411D-17  0.10465553D-19 -0.21635548D-14
 -0.31207574D-14 -0.41564450D-14 -0.49189998D-14 -0.47269741D-14 -0.32491042D-14
 -0.10229634D-14  0.49438899D-15  0.50736277D-15  0.12777278D-15 -0.13930837D-18
 -0.35714328D-02 -0.51515105D-02 -0.68611454D-02 -0.81199132D-02 -0.78029316D-02
 -0.53633757D-02 -0.16886307D-02  0.81609998D-03  0.83751613D-03  0.21091764D-03
 -0.22995972D-06  0.30172336D-15  0.43740443D-15  0.58054499D-15  0.69282490D-15
  0.66564026D-15  0.46591270D-15  0.14067820D-15 -0.86116044D-16 -0.92616268D-16
 -0.24907544D-16  0.92847199D-17  0.15838373D-14  0.22960683D-14  0.30474565D-14
  0.36368477D-14  0.34941473D-14  0.24457168D-14  0.73846247D-15 -0.45204920D-15
 -0.48617084D-15 -0.13074724D-15  0.48738307D-16  0.26920887D-02  0.39026860D-02
  0.51798396D-02  0.61816430D-02  0.59390914D-02  0.41570474D-02  0.12551835D-02
 -0.76835957D-03 -0.82635699D-03 -0.22223442D-03  0.82841744D-04  0.66247619D-17
 -0.38197898D-16 -0.19587765D-04  0.19403461D-16  0.29747946D-17 -0.41160082D-05
  0.14662923D-17  0.15203780D-17 -0.26356363D-06 -0.19155249D-03 -0.19827514D-03
 -0.16589031D-03 -0.10704636D-03 -0.48086687D-04 -0.14040534D-04 -0.23687242D-05
 -0.19155249D-03 -0.19827514D-03 -0.16589031D-03 -0.10704636D-03 -0.48086687D-04
 -0.14040534D-04 -0.23687242D-05  0.38310499D-03  0.39655027D-03  0.33178062D-03
  0.21409272D-03  0.96173374D-04  0.28081069D-04  0.47374484D-05 -0.64824644D-15
 -0.67099701D-15 -0.56140121D-15 -0.36226320D-15 -0.16273358D-15 -0.47515572D-16
 -0.80161683D-17 -0.35456204D-14 -0.36700560D-14 -0.30706156D-14 -0.19814190D-14
 -0.89008050D-15 -0.25988910D-15 -0.43844884D-16  0.15711087D-14  0.16262477D-14
  0.13606281D-14  0.87799153D-15  0.39440580D-15  0.11516011D-15  0.19428216D-16
  0.12984897D-04  0.12984897D-04 -0.25969793D-04 -0.16571978D-16  0.99547188D-16
 -0.67745238D-16  0.48205984D-05  0.48205984D-05 -0.96411968D-05  0.14419488D-16
 -0.17399287D-16 -0.27296367D-16 -0.71874605D-06 -0.71874605D-06  0.14374921D-05
 -0.25507493D-17 -0.47699708D-17 -0.43827846D-17  0.11691319D-16 -0.91095324D-17
  0.97093021D-05  0.11264681D-16 -0.79717774D-17 -0.14563953D-04 -0.46338639D-16
  0.35300375D-16 -0.14563953D-04  0.29220797D-16 -0.20795571D-17 -0.42222199D-18
 -0.95693288D-06 -0.18633242D-17 -0.61874920D-18  0.14353993D-05  0.81019956D-17
  0.18854152D-17  0.14353993D-05 -0.66872300D-17
MO    2     MO 0.0        OCC NO =    2.0000000  ORB. ENERGY =  -57.823331
 -0.23732448D-03 -0.44221923D-03 -0.74790358D-03 -0.11263014D-02 -0.13944341D-02
 -0.11866005D-02 -0.45152339D-03  0.21146767D-05  0.16856921D-03  0.31606885D-03
  0.53772716D-03  0.83503350D-03  0.11081380D-02  0.11678254D-02  0.72412623D-03
 -0.48168905D-03 -0.31952500D-03  0.19941948D-02  0.14986023D-03  0.11065048D-14
  0.10627846D-14  0.74529792D-15  0.37242442D-15  0.35770920D-15  0.25085038D-15
 -0.11804790D-02 -0.11338360D-02 -0.79512406D-03  0.77949041D-17 -0.96068016D-16
  0.12219276D-02 -0.61363696D-16  0.34877358D-16  0.18048184D-02 -0.63888182D-18
 -0.13204013D-17  0.44338615D-04  0.40037933D-03  0.40037933D-03 -0.80075865D-03
  0.39544465D-15  0.19230856D-15 -0.21647970D-16 -0.50695113D-03 -0.50695113D-03
  0.10139023D-02 -0.63010883D-16  0.19079011D-16  0.29241891D-16 -0.13872844D-03
 -0.13872844D-03  0.27745688D-03  0.70150072D-17 -0.33231716D-16  0.61741746D-17
 -0.53222189D-16 -0.57702046D-16 -0.60613163D-04  0.50958898D-16  0.18191483D-15
  0.90919744D-04  0.10870767D-15 -0.88086904D-17  0.90919744D-04  0.42017537D-17
 -0.96147706D-18 -0.66261955D-17  0.17008262D-03 -0.47985175D-17 -0.13539378D-16
 -0.25512393D-03  0.76829486D-17  0.33417965D-16 -0.25512393D-03  0.12518480D-17
 -0.94094713D-03 -0.17581158D-02 -0.30492317D-02 -0.49954205D-02 -0.78224318D-02
 -0.11747207D-01 -0.16754880D-01 -0.22136591D-01 -0.25528931D-01 -0.22976857D-01
 -0.12890588D-01 -0.31163686D-02 -0.14794973D-03  0.25318646D-05 -0.71210441D-06
  0.27750595D-06 -0.26248895D-07 -0.25881963D-08  0.24676529D+00  0.45442212D+00
  0.78876263D+00  0.12918454D+01  0.20333053D+01  0.30690051D+01  0.44737154D+01
  0.61433512D+01  0.78019777D+01  0.84022351D+01  0.67031452D+01  0.15014511D+01
 -0.40148464D+01 -0.35703002D+01 -0.69729411D+00 -0.19316481D-01 -0.13988339D-02
 -0.28568015D-04 -0.24118852D-02 -0.43544354D-02 -0.75802429D-02 -0.12412968D-01
 -0.19569750D-01 -0.29530215D-01 -0.43219667D-01 -0.59551022D-01 -0.76717672D-01
 -0.84442033D-01 -0.71086498D-01 -0.16928239D-01  0.57020818D-01  0.76191767D-01
  0.93603143D-02 -0.32706210D-01 -0.14437664D-01  0.71651529D-04  0.88433308D-03
  0.19158978D-02  0.32615650D-02  0.53240264D-02  0.83935561D-02  0.12666348D-01
  0.18538275D-01  0.25572388D-01  0.32985707D-01  0.36466227D-01  0.30884191D-01
  0.75019751D-02 -0.26027434D-01 -0.36734738D-01 -0.43829602D-02  0.20598905D-01
  0.16465844D-01 -0.62380405D-02  0.49906151D-02 -0.12468341D-03  0.18424971D-04
  0.14637529D-14  0.20978974D-14  0.27703540D-14  0.31843823D-14  0.29294326D-14
  0.18740383D-14  0.64867734D-15  0.72926844D-16  0.92780722D-18  0.16077296D-18
  0.16429247D-20 -0.22121637D-13 -0.31705436D-13 -0.41868244D-13 -0.48125436D-13
 -0.44272393D-13 -0.28322263D-13 -0.98034336D-14 -0.11021404D-14 -0.14021912D-16
 -0.24297550D-17 -0.24829452D-19  0.17899094D-02  0.25653553D-02  0.33876501D-02
  0.38939330D-02  0.35821750D-02  0.22916155D-02  0.79321700D-03  0.89176558D-04
  0.11345432D-05  0.19659673D-06  0.20090046D-08 -0.61446561D-15 -0.88631823D-15
 -0.11804612D-14 -0.13970324D-14 -0.13424957D-14 -0.92276968D-15 -0.29052919D-15
  0.14041014D-15  0.14409479D-15  0.36288415D-16 -0.39564608D-19  0.23163715D-14
  0.33411833D-14  0.44500239D-14  0.52664396D-14  0.50608507D-14  0.34785956D-14
  0.10952176D-14 -0.52930877D-15 -0.54319892D-15 -0.13679765D-15  0.14914802D-18
 -0.11320003D+00 -0.16328212D+00 -0.21747066D+00 -0.25736853D+00 -0.24732149D+00
 -0.16999740D+00 -0.53522789D-01  0.25867081D-01  0.26545886D-01  0.66852393D-02
 -0.72887965D-05  0.13932967D-14  0.20198441D-14  0.26808379D-14  0.31993236D-14
  0.30737905D-14  0.21514895D-14  0.64962313D-15 -0.39766627D-15 -0.42768297D-15
 -0.11501794D-15  0.42874936D-16 -0.17253407D-14 -0.25012040D-14 -0.33197228D-14
 -0.39617716D-14 -0.38063220D-14 -0.26642225D-14 -0.80443830D-15  0.49243625D-15
  0.52960639D-15  0.14242848D-15 -0.53092692D-16  0.86914393D-01  0.12599867D+00
  0.16723172D+00  0.19957505D+00  0.19174425D+00  0.13421075D+00  0.40523744D-01
 -0.24806577D-01 -0.26679030D-01 -0.71748640D-02  0.26745552D-02  0.40389899D-16
  0.52042746D-16 -0.41847911D-03  0.28736244D-16 -0.39081196D-18 -0.15104655D-03
 -0.14661783D-17  0.97034875D-18 -0.84262021D-05 -0.77367229D-02 -0.80082475D-02
 -0.67002383D-02 -0.43235564D-02 -0.19422006D-02 -0.56709115D-03 -0.95671752D-04
 -0.77367229D-02 -0.80082475D-02 -0.67002383D-02 -0.43235564D-02 -0.19422006D-02
 -0.56709115D-03 -0.95671752D-04  0.15473446D-01  0.16016495D-01  0.13400477D-01
  0.86471127D-02  0.38844012D-02  0.11341823D-02  0.19134350D-03 -0.16459966D-15
 -0.17037637D-15 -0.14254833D-15 -0.91984151D-16 -0.41320538D-16 -0.12064928D-16
 -0.20354274D-17  0.19478162D-14  0.20161759D-14  0.16868683D-14  0.10885091D-14
  0.48897316D-15  0.14277225D-15  0.24086553D-16 -0.58470227D-15 -0.60522273D-15
 -0.50637003D-15 -0.32675246D-15 -0.14678167D-15 -0.42857873D-16 -0.72303858D-17
  0.46703088D-03  0.46703088D-03 -0.93406177D-03 -0.87318227D-18  0.59528184D-16
  0.37552694D-16  0.14416190D-03  0.14416190D-03 -0.28832380D-03  0.87831177D-18
 -0.58476461D-16 -0.10740951D-17 -0.24403703D-04 -0.24403703D-04  0.48807406D-04
 -0.85936577D-18 -0.34070459D-17  0.11082194D-17  0.48785833D-17  0.66949609D-17
  0.31557977D-03  0.46192505D-17  0.61323254D-17 -0.47336966D-03 -0.19255001D-16
 -0.26217208D-16 -0.47336966D-03  0.11842331D-16 -0.35513271D-17 -0.42331031D-18
 -0.34570519D-04 -0.34256246D-17  0.38833973D-18  0.51855778D-04  0.14079606D-16
  0.88159121D-18  0.51855778D-04 -0.19198191D-17
MO    3     MO 0.0        OCC NO =    2.0000000  ORB. ENERGY =  -51.971988
 -0.14293595D-15 -0.26634009D-15 -0.45044787D-15 -0.67834953D-15 -0.83984073D-15
 -0.71466656D-15 -0.27194381D-15  0.12736289D-17  0.85687002D-16  0.16066393D-15
  0.27333715D-15  0.42446373D-15  0.56328806D-15  0.59362829D-15  0.36808741D-15
 -0.24485189D-15  0.28843293D-16  0.16277966D-14  0.45089410D-15  0.14310655D-07
  0.13745213D-07  0.96390923D-08  0.39592244D-04  0.38027877D-04  0.26667772D-04
 -0.34207506D-15 -0.32855900D-15 -0.23040825D-15 -0.10709899D-07 -0.29630295D-04
  0.24934526D-15  0.73063904D-07  0.20214056D-03  0.69066825D-15  0.33704378D-08
  0.93247438D-05  0.41059292D-16  0.40042275D-15 -0.10925569D-14  0.69213411D-15
 -0.67913302D-16 -0.82822388D-07 -0.22913864D-03 -0.76935716D-16  0.14465761D-15
 -0.67721891D-16 -0.23740773D-16  0.54373281D-07  0.15043058D-03 -0.23322632D-16
 -0.48772154D-16  0.72094786D-16 -0.10313515D-16  0.29024171D-07  0.80299049D-04
  0.27011111D-07  0.74729666D-04 -0.23545209D-15  0.27011111D-07  0.74729666D-04
 -0.60973246D-15 -0.10804444D-06 -0.29891866D-03  0.13160887D-14  0.16213725D-15
 -0.78850377D-08 -0.21814957D-04 -0.39207550D-16 -0.78850377D-08 -0.21814957D-04
  0.11330397D-15  0.31540151D-07  0.87259828D-04  0.43186754D-17 -0.99752580D-17
 -0.83788134D-17 -0.15655422D-16 -0.27152369D-16 -0.44482516D-16 -0.69656088D-16
 -0.10460487D-15 -0.14919649D-15 -0.19711879D-15 -0.22732642D-15 -0.20460107D-15
 -0.11478629D-15 -0.27750200D-16 -0.13174419D-17  0.22545391D-19 -0.63410470D-20
  0.24710959D-20 -0.23373746D-21 -0.23047006D-22  0.37956107D-16  0.69896762D-16
  0.12132322D-15  0.19870471D-15  0.31275207D-15  0.47205783D-15  0.68812281D-15
  0.94493718D-15  0.12000582D-14  0.12923865D-14  0.10310417D-14  0.23094512D-15
 -0.61754205D-15 -0.54916434D-15 -0.10725402D-15 -0.29711571D-17 -0.21516109D-18
 -0.43941782D-20  0.21641112D-16  0.39071025D-16  0.68015214D-16  0.11137778D-15
  0.17559342D-15  0.26496564D-15  0.38779693D-15  0.53433321D-15  0.68836434D-15
  0.75767268D-15  0.63783753D-15  0.15189194D-15 -0.51163046D-15 -0.68364555D-15
 -0.83987253D-16  0.29346287D-15  0.12954477D-15 -0.64290738D-18  0.25846073D-17
  0.55995230D-17  0.95324544D-17  0.15560333D-16  0.24531533D-16  0.37019462D-16
  0.54181124D-16  0.74739465D-16  0.96406096D-16  0.10657848D-15  0.90264072D-16
  0.21925743D-16 -0.76069410D-16 -0.10736325D-15 -0.12809914D-16  0.60203650D-16
  0.48124108D-16 -0.18231688D-16  0.30200059D-15 -0.13338619D-14 -0.14370951D-15
 -0.17575353D-01 -0.25189557D-01 -0.33263777D-01 -0.38235035D-01 -0.35173842D-01
 -0.22501670D-01 -0.77887008D-02 -0.87563622D-03 -0.11140227D-04 -0.19304088D-05
 -0.19726677D-07 -0.48624445D+02 -0.69690106D+02 -0.92028459D+02 -0.10578207D+03
 -0.97312895D+02 -0.62253725D+02 -0.21548429D+02 -0.24225587D+01 -0.30820851D-01
 -0.53407209D-02 -0.54576355D-04  0.49365221D-10  0.70751810D-10  0.93430479D-10
  0.10739363D-09  0.98795422D-10  0.63202138D-10  0.21876711D-10  0.24594655D-11
  0.31290396D-13  0.54220849D-14  0.55407807D-16  0.33803531D-05  0.48758930D-05
  0.64940586D-05  0.76854795D-05  0.73854572D-05  0.50764230D-05  0.15982852D-05
 -0.77243679D-06 -0.79270713D-06 -0.19963307D-06  0.21765636D-09  0.93521756D-02
  0.13489777D-01  0.17966637D-01  0.21262854D-01  0.20432804D-01  0.14044568D-01
  0.44218586D-02 -0.21370444D-02 -0.21931248D-02 -0.55231022D-03  0.60217392D-06
 -0.48548148D-13 -0.70026878D-13 -0.93266741D-13 -0.11037776D-12 -0.10606888D-12
 -0.72906861D-13 -0.22954343D-13  0.11093627D-13  0.11384746D-13  0.28671016D-14
 -0.31259495D-17 -0.51728894D-05 -0.74990705D-05 -0.99531405D-05 -0.11878121D-04
 -0.11412054D-04 -0.79878298D-05 -0.24118542D-05  0.14764146D-05  0.15878575D-05
  0.42702683D-06 -0.15918167D-06 -0.14311455D-01 -0.20747130D-01 -0.27536626D-01
 -0.32862328D-01 -0.31572896D-01 -0.22099344D-01 -0.66727007D-02  0.40846883D-02
  0.43930093D-02  0.11814239D-02 -0.44039629D-03  0.42567445D-13  0.61709471D-13
  0.81903889D-13  0.97744456D-13  0.93909218D-13  0.65731447D-13  0.19847026D-13
 -0.12149341D-13 -0.13066399D-13 -0.35139821D-14  0.13098979D-14  0.55911384D-06
  0.15468593D-02 -0.23758710D-14 -0.44191506D-08 -0.12226141D-04  0.30391859D-15
 -0.13692174D-08 -0.37881135D-05  0.54737452D-18  0.16232591D-13  0.16802283D-13
  0.14057919D-13  0.90713500D-14  0.40749744D-14  0.11898266D-14  0.20073104D-15
 -0.31772130D-14 -0.32887191D-14 -0.27515635D-14 -0.17755398D-14 -0.79759676D-15
 -0.23288535D-15 -0.39289185D-16 -0.13055378D-13 -0.13513563D-13 -0.11306356D-13
 -0.72958101D-14 -0.32773777D-14 -0.95694123D-15 -0.16144185D-15 -0.56625846D-14
 -0.58613161D-14 -0.49039712D-14 -0.31644540D-14 -0.14215160D-14 -0.41505966D-15
 -0.70023109D-16 -0.14419061D-05 -0.14925106D-05 -0.12487347D-05 -0.80578848D-06
 -0.36197120D-06 -0.10568973D-06 -0.17830505D-07 -0.39892160D-02 -0.41292198D-02
 -0.34547829D-02 -0.22293160D-02 -0.10014392D-02 -0.29240405D-03 -0.49330355D-04
 -0.92710925D-16 -0.12948654D-15  0.22219747D-15 -0.21187436D-17 -0.14793595D-07
 -0.40928356D-04  0.14696466D-15  0.15100987D-15 -0.29797453D-15 -0.60014909D-18
  0.55613982D-07  0.15386314D-03  0.66295172D-17  0.99079049D-17 -0.16537422D-16
 -0.27577229D-19  0.47163914D-08  0.13048495D-04  0.40035542D-08  0.11076340D-04
  0.32621841D-16  0.40035549D-08  0.11076342D-04 -0.50038410D-16 -0.16014217D-07
 -0.44305364D-04 -0.47827113D-16  0.16329718D-17  0.26751536D-08  0.74011519D-05
  0.21894336D-16  0.26751536D-08  0.74011517D-05 -0.30031232D-16 -0.10700615D-07
 -0.29604607D-04 -0.35651777D-16 -0.21362614D-17
MO    4     MO 0.0        OCC NO =    2.0000000  ORB. ENERGY =  -51.971988
  0.76401487D-16  0.14236292D-15  0.24077139D-15  0.36258837D-15  0.44890793D-15
  0.38200039D-15  0.14535819D-15 -0.68077444D-18  0.31930457D-16  0.59869906D-16
  0.10185652D-15  0.15817243D-15  0.20990401D-15  0.22121001D-15  0.13716432D-15
 -0.91241759D-16 -0.20374616D-16  0.10169797D-15 -0.43432136D-16 -0.39592244D-04
 -0.38027877D-04 -0.26667772D-04  0.14310656D-07  0.13745214D-07  0.96390928D-08
  0.11845464D-15  0.11377426D-15  0.79786366D-16  0.29630295D-04 -0.10709899D-07
  0.89608953D-16 -0.20214056D-03  0.73063905D-07 -0.63905777D-16 -0.93247438D-05
  0.33704378D-08 -0.74990859D-17 -0.19160701D-15  0.15204305D-15  0.39563960D-16
  0.27695717D-16  0.22913864D-03 -0.82822387D-07  0.36576121D-16  0.19062203D-16
 -0.55638324D-16 -0.22847720D-17 -0.15043058D-03  0.54373281D-07  0.77602586D-17
  0.93658852D-17 -0.17126144D-16  0.19335605D-17 -0.80299049D-04  0.29024171D-07
 -0.74729666D-04  0.27011111D-07 -0.97347414D-16 -0.74729666D-04  0.27011111D-07
  0.19303596D-15  0.29891866D-03 -0.10804445D-06  0.99006278D-16 -0.80219083D-16
  0.21814957D-04 -0.78850377D-08  0.16086068D-17  0.21814957D-04 -0.78850377D-08
 -0.34727019D-17 -0.87259828D-04  0.31540151D-07 -0.13531186D-17  0.22283660D-17
  0.19457049D-16  0.36354589D-16  0.63052480D-16  0.10329607D-15  0.16175344D-15
  0.24291054D-15  0.34645998D-15  0.45774382D-15  0.52789114D-15  0.47511896D-15
  0.26655355D-15  0.64440747D-16  0.30593272D-17 -0.52354284D-19  0.14725004D-19
 -0.57383106D-20  0.54277867D-21  0.53519120D-22 -0.40589713D-16 -0.74746587D-16
 -0.12974130D-15 -0.21249194D-15 -0.33445254D-15 -0.50481182D-15 -0.73586859D-15
 -0.10105022D-14 -0.12833249D-14 -0.13820595D-14 -0.11025811D-14 -0.24696937D-15
  0.66039054D-15  0.58726841D-15  0.11469590D-15  0.31773125D-17  0.23009016D-18
  0.46990707D-20  0.53252818D-16  0.96143031D-16  0.16736671D-15  0.27407005D-15
  0.43208704D-15  0.65200746D-15  0.95426144D-15  0.13148469D-14  0.16938751D-14
  0.18644238D-14  0.15695425D-14  0.37376423D-15 -0.12589817D-14 -0.16822634D-14
 -0.20666950D-15  0.72213131D-15  0.31877399D-15 -0.15820180D-17 -0.13627405D-16
 -0.29523623D-16 -0.50260099D-16 -0.82042240D-16 -0.12934311D-15 -0.19518602D-15
 -0.28567131D-15 -0.39406566D-15 -0.50830351D-15 -0.56193766D-15 -0.47591953D-15
 -0.11560402D-15  0.40107783D-15  0.56607536D-15  0.67540587D-16 -0.31742522D-15
 -0.25373554D-15  0.96127024D-16 -0.10265192D-15 -0.62269972D-16  0.14325835D-16
  0.48624445D+02  0.69690106D+02  0.92028459D+02  0.10578207D+03  0.97312895D+02
  0.62253725D+02  0.21548429D+02  0.24225587D+01  0.30820851D-01  0.53407209D-02
  0.54576355D-04 -0.17575353D-01 -0.25189557D-01 -0.33263777D-01 -0.38235035D-01
 -0.35173842D-01 -0.22501670D-01 -0.77887008D-02 -0.87563622D-03 -0.11140227D-04
 -0.19304088D-05 -0.19726677D-07  0.10848007D-10  0.15547709D-10  0.20531347D-10
  0.23599748D-10  0.21710293D-10  0.13888669D-10  0.48074071D-11  0.54046751D-12
  0.68760642D-14  0.11915031D-14  0.12175865D-16 -0.93521756D-02 -0.13489777D-01
 -0.17966637D-01 -0.21262854D-01 -0.20432804D-01 -0.14044568D-01 -0.44218586D-02
  0.21370444D-02  0.21931248D-02  0.55231022D-03 -0.60217392D-06  0.33803531D-05
  0.48758930D-05  0.64940586D-05  0.76854795D-05  0.73854572D-05  0.50764230D-05
  0.15982852D-05 -0.77243679D-06 -0.79270713D-06 -0.19963307D-06  0.21765636D-09
  0.46143224D-14  0.66557964D-14  0.88646597D-14  0.10490999D-13  0.10081456D-13
  0.69295282D-14  0.21817256D-14 -0.10544083D-14 -0.10820781D-14 -0.27250743D-15
  0.29710997D-18  0.14311455D-01  0.20747130D-01  0.27536626D-01  0.32862328D-01
  0.31572896D-01  0.22099344D-01  0.66727007D-02 -0.40846883D-02 -0.43930093D-02
 -0.11814239D-02  0.44039629D-03 -0.51728894D-05 -0.74990705D-05 -0.99531405D-05
 -0.11878121D-04 -0.11412054D-04 -0.79878298D-05 -0.24118542D-05  0.14764146D-05
  0.15878575D-05  0.42702683D-06 -0.15918167D-06 -0.11208112D-14 -0.16248254D-14
 -0.21565493D-14 -0.25736353D-14 -0.24726526D-14 -0.17307250D-14 -0.52257703D-15
  0.31989510D-15  0.34404147D-15  0.92524005D-16 -0.34489931D-16 -0.15468593D-02
  0.55911384D-06 -0.25893034D-15  0.12226141D-04 -0.44191506D-08  0.27715738D-16
  0.37881135D-05 -0.13692174D-08 -0.98158169D-18  0.13661422D-13  0.14140878D-13
  0.11831209D-13  0.76344895D-14  0.34295171D-14  0.10013635D-14  0.16893616D-15
  0.20711202D-14  0.21438073D-14  0.17936534D-14  0.11574158D-14  0.51992698D-15
  0.15181026D-15  0.25611322D-16 -0.15732543D-13 -0.16284685D-13 -0.13624862D-13
 -0.87919053D-14 -0.39494440D-14 -0.11531737D-14 -0.19454748D-15  0.21836771D-13
  0.22603145D-13  0.18911311D-13  0.12203166D-13  0.54818288D-14  0.16006053D-14
  0.27003192D-15  0.39892160D-02  0.41292198D-02  0.34547829D-02  0.22293160D-02