 Molden2AIM, Version 4.0.0 (06/02/2016)           Time: Tue Jun 26 17:44:13 2018
GAUSSIAN             10 MOL ORBITALS    227 PRIMITIVES        2 NUCLEI
  Si   1    (CENTRE  1)   0.00000000  0.00000000  1.54557865  CHARGE = 14.0
  C    2    (CENTRE  2)   0.00000000  0.00000000 -1.54557865  CHARGE =  6.0
CENTRE ASSIGNMENTS    1  1  1  1  1  1  1  1  1  1  1  1  1  1  1  1  1  1  1  1
CENTRE ASSIGNMENTS    1  1  1  1  1  1  1  1  1  1  1  1  1  1  1  1  1  1  1  1
CENTRE ASSIGNMENTS    1  1  1  1  1  1  1  1  1  1  1  1  1  1  1  1  1  1  1  1
CENTRE ASSIGNMENTS    1  1  1  1  1  1  1  1  1  1  1  1  1  1  1  1  1  1  1  1
CENTRE ASSIGNMENTS    1  1  1  1  1  1  1  1  1  1  1  1  1  1  1  1  1  1  1  1
CENTRE ASSIGNMENTS    1  1  1  1  1  1  1  1  1  1  1  1  1  1  1  1  1  1  1  1
CENTRE ASSIGNMENTS    1  1  1  1  1  1  1  1  2  2  2  2  2  2  2  2  2  2  2  2
CENTRE ASSIGNMENTS    2  2  2  2  2  2  2  2  2  2  2  2  2  2  2  2  2  2  2  2
CENTRE ASSIGNMENTS    2  2  2  2  2  2  2  2  2  2  2  2  2  2  2  2  2  2  2  2
CENTRE ASSIGNMENTS    2  2  2  2  2  2  2  2  2  2  2  2  2  2  2  2  2  2  2  2
CENTRE ASSIGNMENTS    2  2  2  2  2  2  2  2  2  2  2  2  2  2  2  2  2  2  2  2
CENTRE ASSIGNMENTS    2  2  2  2  2  2  2
TYPE ASSIGNMENTS      1  1  1  1  1  1  1  1  1  1  1  1  1  1  1  1  1  1  1  1
TYPE ASSIGNMENTS      1  2  2  2  2  2  2  2  2  3  3  3  3  3  3  3  3  4  4  4
TYPE ASSIGNMENTS      4  4  4  4  4  2  2  3  3  4  4  2  3  4  2  3  4  2  3  4
TYPE ASSIGNMENTS      2  3  4  5  6  7  8  9 10  5  6  7  8  9 10  5  6  7  8  9
TYPE ASSIGNMENTS     10  5  6  7  8  9 10  5  6  7  8  9 10 11 12 13 17 14 15 18
TYPE ASSIGNMENTS     19 16 20 11 12 13 17 14 15 18 19 16 20 21 22 23 24 25 26 27
TYPE ASSIGNMENTS     28 29 30 31 32 33 34 35  1  1  1  1  1  1  1  1  1  1  1  1
TYPE ASSIGNMENTS      1  1  1  1  2  2  2  2  2  3  3  3  3  3  4  4  4  4  4  2
TYPE ASSIGNMENTS      3  4  2  3  4  2  3  4  5  6  7  8  9 10  5  6  7  8  9 10
TYPE ASSIGNMENTS      5  6  7  8  9 10  5  6  7  8  9 10 11 12 13 17 14 15 18 19
TYPE ASSIGNMENTS     16 20 11 12 13 17 14 15 18 19 16 20 21 22 23 24 25 26 27 28
TYPE ASSIGNMENTS     29 30 31 32 33 34 35
EXPONENTS  0.9180707D+06 0.1374853D+06 0.3128777D+05 0.8861611D+04 0.2890694D+04
EXPONENTS  0.1043406D+04 0.4068016D+03 0.1684836D+03 0.7318563D+02 0.3299849D+02
EXPONENTS  0.2787875D+03 0.8591023D+02 0.3299260D+02 0.1503369D+02 0.5725751D+01
EXPONENTS  0.2614652D+01 0.1175783D+01 0.3543233D+00 0.1624834D+00 0.6833246D-01
EXPONENTS  0.3052108D-01 0.1775885D+04 0.4208379D+03 0.1364229D+03 0.5170099D+02
EXPONENTS  0.2155946D+02 0.9555920D+01 0.4352982D+01 0.2009696D+01 0.1775885D+04
EXPONENTS  0.4208379D+03 0.1364229D+03 0.5170099D+02 0.2155946D+02 0.9555920D+01
EXPONENTS  0.4352982D+01 0.2009696D+01 0.1775885D+04 0.4208379D+03 0.1364229D+03
EXPONENTS  0.5170099D+02 0.2155946D+02 0.9555920D+01 0.4352982D+01 0.2009696D+01
EXPONENTS  0.4641815D+02 0.1907642D+01 0.4641815D+02 0.1907642D+01 0.4641815D+02
EXPONENTS  0.1907642D+01 0.9233722D+00 0.9233722D+00 0.9233722D+00 0.3451572D+00
EXPONENTS  0.3451572D+00 0.3451572D+00 0.1365683D+00 0.1365683D+00 0.1365683D+00
EXPONENTS  0.5298706D-01 0.5298706D-01 0.5298706D-01 0.2645000D+01 0.2645000D+01
EXPONENTS  0.2645000D+01 0.2645000D+01 0.2645000D+01 0.2645000D+01 0.6080000D+00
EXPONENTS  0.6080000D+00 0.6080000D+00 0.6080000D+00 0.6080000D+00 0.6080000D+00
EXPONENTS  0.2720000D+00 0.2720000D+00 0.2720000D+00 0.2720000D+00 0.2720000D+00
EXPONENTS  0.2720000D+00 0.1130000D+00 0.1130000D+00 0.1130000D+00 0.1130000D+00
EXPONENTS  0.1130000D+00 0.1130000D+00 0.4401890D-01 0.4401890D-01 0.4401890D-01
EXPONENTS  0.4401890D-01 0.4401890D-01 0.4401890D-01 0.2120000D+00 0.2120000D+00
EXPONENTS  0.2120000D+00 0.2120000D+00 0.2120000D+00 0.2120000D+00 0.2120000D+00
EXPONENTS  0.2120000D+00 0.2120000D+00 0.2120000D+00 0.5410000D+00 0.5410000D+00
EXPONENTS  0.5410000D+00 0.5410000D+00 0.5410000D+00 0.5410000D+00 0.5410000D+00
EXPONENTS  0.5410000D+00 0.5410000D+00 0.5410000D+00 0.4610000D+00 0.4610000D+00
EXPONENTS  0.4610000D+00 0.4610000D+00 0.4610000D+00 0.4610000D+00 0.4610000D+00
EXPONENTS  0.4610000D+00 0.4610000D+00 0.4610000D+00 0.4610000D+00 0.4610000D+00
EXPONENTS  0.4610000D+00 0.4610000D+00 0.4610000D+00 0.6702507D+05 0.1003999D+05
EXPONENTS  0.2284932D+04 0.6471412D+03 0.2110947D+03 0.7617764D+02 0.2963384D+02
EXPONENTS  0.1218779D+02 0.5302601D+02 0.1525850D+02 0.5240396D+01 0.2290502D+01
EXPONENTS  0.6967328D+00 0.2759934D+00 0.1073988D+00 0.4498140D-01 0.1051256D+03
EXPONENTS  0.2488446D+02 0.7863723D+01 0.2840700D+01 0.1122714D+01 0.1051256D+03
EXPONENTS  0.2488446D+02 0.7863723D+01 0.2840700D+01 0.1122714D+01 0.1051256D+03
EXPONENTS  0.2488446D+02 0.7863723D+01 0.2840700D+01 0.1122714D+01 0.4605073D+00
EXPONENTS  0.4605073D+00 0.4605073D+00 0.1893753D+00 0.1893753D+00 0.1893753D+00
EXPONENTS  0.7598379D-01 0.7598379D-01 0.7598379D-01 0.1848000D+01 0.1848000D+01
EXPONENTS  0.1848000D+01 0.1848000D+01 0.1848000D+01 0.1848000D+01 0.6490000D+00
EXPONENTS  0.6490000D+00 0.6490000D+00 0.6490000D+00 0.6490000D+00 0.6490000D+00
EXPONENTS  0.2280000D+00 0.2280000D+00 0.2280000D+00 0.2280000D+00 0.2280000D+00
EXPONENTS  0.2280000D+00 0.7688983D-01 0.7688983D-01 0.7688983D-01 0.7688983D-01
EXPONENTS  0.7688983D-01 0.7688983D-01 0.1419000D+01 0.1419000D+01 0.1419000D+01
EXPONENTS  0.1419000D+01 0.1419000D+01 0.1419000D+01 0.1419000D+01 0.1419000D+01
EXPONENTS  0.1419000D+01 0.1419000D+01 0.4850000D+00 0.4850000D+00 0.4850000D+00
EXPONENTS  0.4850000D+00 0.4850000D+00 0.4850000D+00 0.4850000D+00 0.4850000D+00
EXPONENTS  0.4850000D+00 0.4850000D+00 0.1011000D+01 0.1011000D+01 0.1011000D+01
EXPONENTS  0.1011000D+01 0.1011000D+01 0.1011000D+01 0.1011000D+01 0.1011000D+01
EXPONENTS  0.1011000D+01 0.1011000D+01 0.1011000D+01 0.1011000D+01 0.1011000D+01
EXPONENTS  0.1011000D+01 0.1011000D+01
MO    1     MO 0.0        OCC NO =    2.0000000  ORB. ENERGY =  -65.446131
  0.26754213D+00  0.50068801D+00  0.86721782D+00  0.14178943D+01  0.22096892D+01
  0.32689393D+01  0.45029568D+01  0.54896351D+01  0.54000598D+01  0.35326741D+01
 -0.69893011D-02 -0.25377414D-01 -0.44424924D-01  0.11217559D+01  0.58438430D-01
 -0.48556972D-02  0.86103205D-03 -0.16580861D-03  0.74886549D-04  0.11343061D-04
  0.31542459D-06 -0.91459988D-09 -0.13142299D-08 -0.17414251D-08 -0.20336371D-08
 -0.20239039D-08 -0.15686021D-08 -0.87216334D-09 -0.30925352D-09 -0.31259490D-08
 -0.44918174D-08 -0.59518991D-08 -0.69506305D-08 -0.69173642D-08 -0.53612191D-08
 -0.29809080D-08 -0.10569767D-08  0.62928161D-04  0.90424317D-04  0.11981707D-03
  0.13992243D-03  0.13925275D-03  0.10792616D-03  0.60008356D-04  0.21277889D-04
 -0.73025064D-08  0.31287367D-08 -0.24070937D-07  0.10313120D-07  0.34353782D-04
 -0.14718774D-04 -0.65267267D-09 -0.21573913D-08 -0.37318619D-04  0.12307602D-09
  0.40593615D-09  0.37723061D-04 -0.22115968D-10 -0.72722945D-10 -0.21097676D-04
 -0.12327417D-11 -0.40570921D-11 -0.30491432D-06 -0.29778337D-04 -0.29778356D-04
  0.59556693D-04 -0.13091460D-10  0.39521977D-09  0.12728057D-08  0.86882356D-05
  0.86882364D-05 -0.17376472D-04  0.54425130D-12 -0.79940520D-11 -0.24889406D-10
  0.27043240D-06  0.27043182D-06 -0.54086422D-06 -0.39147339D-12 -0.27113579D-10
 -0.89715319D-10 -0.83907277D-06 -0.83907278D-06  0.16781456D-05 -0.49813813D-14
  0.16804952D-11  0.55659486D-11  0.41406676D-07  0.41406674D-07 -0.82813350D-07
 -0.11336829D-14  0.11558416D-12  0.38071928D-12 -0.57688536D-12 -0.19103137D-11
 -0.49323595D-06 -0.57679731D-12 -0.19103691D-11  0.73985388D-06  0.23074534D-11
  0.76413102D-11  0.73985396D-06  0.58285859D-13 -0.58998826D-11 -0.19431433D-10
  0.75078754D-05 -0.59000492D-11 -0.19431700D-10 -0.11261813D-04  0.23599697D-10
  0.77726001D-10 -0.11261813D-04  0.10180411D-12 -0.36074972D-06 -0.36074971D-06
 -0.96199922D-06  0.23233209D-14  0.81509765D-11  0.23257333D-14  0.26846693D-10
 -0.10868378D-10 -0.35795320D-10 -0.72149937D-06  0.28859977D-05  0.28859977D-05
  0.26845882D-10  0.81522053D-11 -0.13947163D-13  0.23030780D-06  0.43101563D-06
  0.74471866D-06  0.12102591D-05  0.18470376D-05  0.25916929D-05  0.31471087D-05
  0.30064577D-05 -0.30699337D-05 -0.12260856D-04  0.15494866D-04 -0.15290822D-04
 -0.31318376D-05  0.11310085D-04 -0.32469797D-04 -0.41857768D-05 -0.12598944D-10
 -0.16286888D-10 -0.17538006D-10 -0.16298782D-10 -0.12175232D-10 -0.40230305D-10
 -0.52006460D-10 -0.56001469D-10 -0.52044440D-10 -0.38877331D-10 -0.10715409D-04
 -0.13852008D-04 -0.14916085D-04 -0.13862124D-04 -0.10355043D-04 -0.19297836D-10
 -0.62942087D-10  0.30429541D-04 -0.18052129D-10 -0.59377094D-10 -0.10144228D-04
  0.57317605D-11  0.18932396D-10 -0.70454576D-05  0.96492624D-05  0.96492622D-05
 -0.19298525D-04 -0.18821133D-12  0.71706297D-10  0.23556577D-09 -0.11775070D-04
 -0.11775070D-04  0.23550140D-04 -0.26353033D-12 -0.30756076D-10 -0.10126656D-09
 -0.32120138D-06 -0.32120142D-06  0.64240280D-06 -0.24392705D-13 -0.14041309D-10
 -0.46346037D-10  0.36171001D-06  0.36171000D-06 -0.72342001D-06 -0.16152581D-14
  0.21055051D-11  0.69412771D-11 -0.79706847D-11 -0.26304621D-10  0.71498959D-05
 -0.79731305D-11 -0.26302655D-10 -0.10724844D-04  0.31885185D-10  0.10521652D-09
 -0.10724844D-04  0.19432487D-12  0.80844439D-11  0.26601028D-10  0.40153274D-05
  0.80834797D-11  0.26601825D-10 -0.60229910D-05 -0.32336812D-10 -0.10640491D-09
 -0.60229912D-05 -0.78761166D-13 -0.64497864D-06 -0.64497850D-06 -0.17199429D-05
  0.98377941D-13  0.13208438D-10  0.98377788D-13  0.43152440D-10 -0.17611191D-10
 -0.57536610D-10 -0.12899573D-05  0.51598292D-05  0.51598283D-05  0.43152512D-10
  0.13208258D-10 -0.59026719D-12
MO    2     MO 0.0        OCC NO =    2.0000000  ORB. ENERGY =   -9.971854
  0.20989073D-05  0.39279710D-05  0.68034512D-05  0.11123589D-04  0.17335336D-04
  0.25645309D-04  0.35326357D-04  0.43066994D-04  0.42364262D-04  0.27714347D-04
 -0.14738541D-04 -0.53514088D-04 -0.93680122D-04  0.23797259D-03 -0.43371608D-03
  0.61017306D-03 -0.53979810D-03  0.24195776D-03 -0.46514318D-03  0.88354386D-04
  0.34585185D-04 -0.21290557D-08 -0.30593363D-08 -0.40537849D-08 -0.47340118D-08
 -0.47113544D-08 -0.36514780D-08 -0.20302696D-08 -0.71989728D-09 -0.71416476D-08
 -0.10262156D-07 -0.13597908D-07 -0.15879643D-07 -0.15803641D-07 -0.12248420D-07
 -0.68102821D-08 -0.24148042D-08 -0.14496655D-04 -0.20830898D-04 -0.27602058D-04
 -0.32233696D-04 -0.32079422D-04 -0.24862767D-04 -0.13824024D-04 -0.49017516D-05
  0.28496639D-08 -0.12209298D-08  0.93226092D-08 -0.39942436D-08 -0.87431065D-04
  0.37459574D-04  0.14512161D-08  0.47508633D-08  0.28134190D-03 -0.19587471D-09
 -0.61218248D-09 -0.10230694D-03  0.34573756D-10  0.12304176D-09  0.24145540D-03
 -0.22121541D-09 -0.72124870D-09 -0.28738643D-04  0.30006499D-03  0.30006497D-03
 -0.60012996D-03 -0.10697401D-10 -0.14629777D-08 -0.48239555D-08 -0.91499284D-04
 -0.91499290D-04  0.18299857D-03 -0.45975954D-11 -0.27519797D-09 -0.91164398D-09
 -0.11352481D-04 -0.11352484D-04  0.22704965D-04 -0.17032956D-11  0.73814231D-09
  0.24103886D-08  0.12641994D-04  0.12641994D-04 -0.25283988D-04 -0.39791531D-12
 -0.20599891D-10 -0.67659673D-10 -0.77269590D-06 -0.77269584D-06  0.15453917D-05
  0.43359583D-13  0.41382903D-10  0.13514392D-09  0.36184543D-10  0.11830177D-09
 -0.21668509D-05  0.36183261D-10  0.11830197D-09  0.32502761D-05 -0.14473689D-09
 -0.47320729D-09  0.32502767D-05  0.38194732D-12  0.35953733D-09  0.11747296D-08
 -0.16104036D-03  0.35953758D-09  0.11747334D-08  0.24156054D-03 -0.14381496D-08
 -0.46989222D-08  0.24156054D-03 -0.11488537D-11  0.14358544D-04  0.14358543D-04
  0.38289449D-04 -0.29008899D-12 -0.56768295D-09 -0.29007251D-12 -0.18553312D-08
  0.75690679D-09  0.24737769D-08  0.28717087D-04 -0.11486835D-03 -0.11486835D-03
 -0.18553370D-08 -0.56767153D-09  0.17404845D-11 -0.11623379D+00 -0.21752881D+00
 -0.37585125D+00 -0.61080435D+00 -0.93217939D+00 -0.13079987D+01 -0.15883109D+01
 -0.15173259D+01  0.94915232D-02  0.37907724D-01 -0.89083426D+00 -0.24863371D+00
 -0.94560924D-02  0.14842053D-02  0.11680109D-03 -0.12268468D-03 -0.30970490D-07
 -0.40036125D-07 -0.43111603D-07 -0.40065364D-07 -0.29928930D-07 -0.10104241D-06
 -0.13061940D-06 -0.14065326D-06 -0.13071479D-06 -0.97644285D-07  0.77944829D-03
  0.10076072D-02  0.10850092D-02  0.10083431D-02  0.75323489D-03  0.12902579D-07
  0.42192446D-07 -0.11218860D-02 -0.26248915D-08 -0.85577427D-08  0.60974496D-03
  0.78512014D-09  0.25659424D-08 -0.71308352D-04  0.59168163D-03  0.59168287D-03
 -0.11833645D-02  0.83576673D-09  0.21704308D-07  0.70556964D-07  0.20634108D-03
  0.20634103D-03 -0.41268211D-03 -0.29718717D-10  0.14532112D-08  0.47726490D-08
 -0.53989114D-04 -0.53989105D-04  0.10797822D-03  0.58461185D-11  0.30939578D-09
  0.10112802D-08  0.28948200D-05  0.28948195D-05 -0.57896396D-05 -0.31498519D-12
  0.66556599D-10  0.21734396D-09 -0.33958252D-08 -0.11101842D-07 -0.62835857D-03
 -0.33961084D-08 -0.11102532D-07  0.94253781D-03  0.13583584D-07  0.44408057D-07
  0.94253791D-03  0.64533848D-10 -0.10764196D-09 -0.35214871D-09  0.60701320D-05
 -0.10766684D-09 -0.35208398D-09 -0.91052040D-05  0.43059270D-09  0.14085301D-08
 -0.91051922D-05  0.79470157D-11 -0.37288571D-04 -0.37288569D-04 -0.99436754D-04
  0.12230213D-11 -0.12764192D-10  0.12227424D-11 -0.45946143D-10  0.16991067D-10
  0.61329190D-10 -0.74578839D-04  0.29831027D-03  0.29831026D-03 -0.46149143D-10
 -0.12680626D-10 -0.73372908D-11
MO    3     MO 0.0        OCC NO =    2.0000000  ORB. ENERGY =   -5.094621
  0.72100265D-01  0.13493104D+00  0.23370762D+00  0.38211012D+00  0.59549191D+00
  0.88095054D+00  0.12135075D+01  0.14794087D+01  0.14552689D+01  0.95202478D+00
  0.11280845D+00  0.40959557D+00  0.71702545D+00  0.63530398D+00 -0.59773375D+00
 -0.79655220D+00 -0.28853044D+00 -0.15273049D-01  0.46366755D-02  0.53450849D-03
  0.33566962D-04 -0.18286203D-06 -0.26276271D-06 -0.34817469D-06 -0.40659857D-06
 -0.40465255D-06 -0.31362104D-06 -0.17437741D-06 -0.61831109D-07 -0.58189567D-06
 -0.83615218D-06 -0.11079465D-05 -0.12938605D-05 -0.12876679D-05 -0.99799138D-06
 -0.55489628D-06 -0.19675629D-06 -0.12795273D-01 -0.18386105D-01 -0.24362576D-01
 -0.28450628D-01 -0.28314460D-01 -0.21944779D-01 -0.12201584D-01 -0.43264636D-02
 -0.31242809D-07  0.13385887D-07 -0.10233541D-06  0.43845296D-07  0.17470454D-02
 -0.74851631D-03 -0.21592791D-07 -0.69618905D-07 -0.29948431D-02  0.11323913D-08
  0.37151905D-08  0.10177697D-02 -0.33903955D-10 -0.11288823D-09 -0.10816234D-02
 -0.87950361D-11 -0.29428639D-10 -0.28098050D-04  0.86296238D-03  0.86296805D-03
 -0.17259304D-02  0.38154834D-08 -0.74518488D-07 -0.23956033D-06  0.38213173D-03
  0.38213203D-03 -0.76426376D-03  0.20714260D-09 -0.46463848D-08 -0.14989953D-07
 -0.38555907D-04 -0.38555949D-04  0.77111855D-04 -0.28255693D-10 -0.31379759D-09
 -0.10499735D-08 -0.39241017D-04 -0.39241014D-04  0.78482031D-04  0.15853132D-11
 -0.21805633D-10 -0.68856479D-10  0.16227623D-05  0.16227620D-05 -0.32455243D-05
 -0.16653082D-12  0.33821349D-11  0.10973206D-10  0.17239320D-12  0.32784298D-12
 -0.22103194D-04  0.18325841D-12  0.32687739D-12  0.33154787D-04 -0.70043802D-12
 -0.13104063D-11  0.33154796D-04  0.60959340D-11 -0.49539284D-09 -0.16130493D-08
  0.32668233D-03 -0.49551699D-09 -0.16131060D-08 -0.49002344D-03  0.19816955D-08
  0.64522538D-08 -0.49002355D-03 -0.78997627D-10 -0.18529164D-04 -0.18529167D-04
 -0.49410235D-04 -0.19686313D-11  0.36344999D-09 -0.19684872D-11  0.11857214D-08
 -0.48462927D-09 -0.15809602D-08 -0.37055709D-04  0.14823070D-03  0.14823071D-03
  0.11857165D-08  0.36353784D-09  0.11811356D-10  0.47088395D-04  0.88124824D-04
  0.15226408D-03  0.24744780D-03  0.37764260D-03  0.52989374D-03  0.64345323D-03
  0.61469593D-03 -0.21558769D-04 -0.86102498D-04  0.72337202D-03 -0.23656799D-03
  0.13306076D-03 -0.23988433D-04 -0.18084489D-02 -0.22769689D-03  0.10187974D-08
  0.13170182D-08  0.14181883D-08  0.13179800D-08  0.98453447D-09  0.33289706D-08
  0.43034220D-08  0.46340003D-08  0.43065647D-08  0.32170150D-08 -0.38277053D-03
 -0.49481454D-03 -0.53282499D-03 -0.49517591D-03 -0.36989768D-03 -0.77791730D-10
 -0.24751687D-09  0.74226541D-03 -0.23465443D-09 -0.76822832D-09 -0.82873360D-03
  0.72787797D-10  0.23936749D-09 -0.35427626D-03  0.19615056D-03  0.19615058D-03
 -0.39230114D-03  0.12856828D-10  0.24295353D-08  0.79076971D-08 -0.14501852D-03
 -0.14501854D-03  0.29003706D-03 -0.11592420D-10 -0.12597124D-08 -0.40938619D-08
  0.44183250D-04  0.44183248D-04 -0.88366498D-04 -0.18553901D-11 -0.28843014D-09
 -0.94335685D-09  0.17542696D-04  0.17542697D-04 -0.35085393D-04  0.17898670D-12
  0.21363654D-10  0.70264102D-10 -0.18040660D-09 -0.59014933D-09 -0.22587051D-03
 -0.18043609D-09 -0.59013576D-09  0.33880574D-03  0.72165590D-09  0.23605837D-08
  0.33880578D-03  0.28489092D-10  0.23665521D-09  0.77063319D-09 -0.71389460D-05
  0.23664532D-09  0.77064977D-09  0.10708426D-04 -0.94661094D-09 -0.30825493D-08
  0.10708412D-04 -0.95990751D-11 -0.10122338D-03 -0.10122338D-03 -0.26992904D-03
  0.12335575D-11  0.51668205D-09  0.12336537D-11  0.16698970D-08 -0.68889630D-09
 -0.22265566D-08 -0.20244683D-03  0.80978712D-03  0.80978711D-03  0.16699789D-08
  0.51664278D-09 -0.74016337D-11
MO    4     MO 0.0        OCC NO =    2.0000000  ORB. ENERGY =   -3.507867
 -0.36862193D-03 -0.68985239D-03 -0.11948604D-02 -0.19535874D-02 -0.30445294D-02
 -0.45039736D-02 -0.62042138D-02 -0.75636681D-02 -0.74402503D-02 -0.48673498D-02
 -0.57765350D-03 -0.20973989D-02 -0.36716422D-02 -0.35848195D-02  0.37779545D-02
  0.49813788D-02  0.43109917D-03  0.11750148D-02 -0.36928277D-02 -0.14656469D-02
 -0.71369954D-04 -0.80243655D-04 -0.11530573D-03 -0.15278629D-03 -0.17842389D-03
 -0.17756994D-03 -0.13762343D-03 -0.76520428D-04 -0.27132775D-04 -0.25711591D-03
 -0.36946147D-03 -0.48955628D-03 -0.57170405D-03 -0.56896782D-03 -0.44097160D-03
 -0.24518599D-03 -0.86938564D-04 -0.33262797D+01 -0.47796815D+01 -0.63333346D+01
 -0.73960711D+01 -0.73606728D+01 -0.57048001D+01 -0.31719436D+01 -0.11247144D+01
 -0.34568290D-05  0.14810679D-05 -0.11076490D-04  0.47456886D-05 -0.14916437D+00
  0.63909022D-01 -0.47515263D-05 -0.15224796D-04 -0.20009914D+00 -0.10157880D-06
 -0.32551270D-06 -0.25500109D-02  0.13727628D-08  0.44139898D-08  0.18958809D-02
  0.38126069D-11  0.14201321D-10  0.16239687D-03  0.36378297D-02  0.36378284D-02
 -0.72756581D-02 -0.88980164D-09 -0.23619597D-06 -0.74727751D-06  0.17067098D-04
  0.17067001D-04 -0.34134099D-04 -0.65451872D-10 -0.25983829D-07 -0.83100400D-07
  0.42679312D-03  0.42679314D-03 -0.85358627D-03  0.13486310D-10 -0.66192334D-09
 -0.21174679D-08  0.67608390D-04  0.67608391D-04 -0.13521678D-03  0.48396791D-12
 -0.38468902D-09 -0.12338569D-08  0.18585695D-05  0.18585697D-05 -0.37171393D-05
  0.13544487D-12  0.13453681D-10  0.42931027D-10 -0.25771075D-09 -0.82681576D-09
  0.80414733D-04 -0.25774811D-09 -0.82689751D-09 -0.12062209D-03  0.10308803D-08
  0.33073448D-08 -0.12062211D-03 -0.12636588D-10  0.25348956D-08  0.81643823D-08
 -0.39255047D-04  0.25354290D-08  0.81657348D-08  0.58882393D-04 -0.10140116D-07
 -0.32658882D-07  0.58882749D-04  0.23988419D-09 -0.43486292D-05 -0.43486214D-05
 -0.11597251D-04  0.52165972D-11 -0.59520797D-09  0.52164760D-11 -0.19208694D-08
  0.79368171D-09  0.25613062D-08 -0.87000012D-05  0.34791776D-04  0.34791730D-04
 -0.19213103D-08 -0.59542121D-09 -0.31299220D-10 -0.15924395D-03 -0.29802130D-03
 -0.51492801D-03 -0.83682115D-03 -0.12771150D-02 -0.17919993D-02 -0.21760358D-02
 -0.20787841D-02 -0.73040224D-04 -0.29171173D-03 -0.18391364D-02 -0.42519208D-03
 -0.89065462D-03  0.30108967D-02  0.31820207D-02  0.37147538D-03 -0.40515460D-08
 -0.52375085D-08 -0.56398411D-08 -0.52413334D-08 -0.39152896D-08 -0.13025263D-07
 -0.16837998D-07 -0.18131452D-07 -0.16850295D-07 -0.12587214D-07  0.97236464D-03
  0.12569938D-02  0.13535530D-02  0.12579118D-02  0.93966333D-03 -0.35368652D-08
 -0.11360091D-07  0.19782372D-02 -0.28600089D-08 -0.91600901D-08  0.22490441D-02
  0.16208066D-09  0.51723048D-09  0.31080704D-03 -0.18214505D-03 -0.18214507D-03
  0.36429011D-03 -0.11939571D-10  0.15829182D-08  0.50039063D-08 -0.85376094D-03
 -0.85376091D-03  0.17075219D-02  0.21002518D-10 -0.12338479D-07 -0.39543476D-07
 -0.24684138D-03 -0.24684137D-03  0.49368274D-03  0.54541744D-11 -0.24266698D-08
 -0.77738349D-08 -0.52834525D-05 -0.52834535D-05  0.10566906D-04 -0.65567418D-12
  0.99469920D-10  0.31782309D-09  0.36487324D-08  0.11715748D-07  0.11405886D-02
  0.36487465D-08  0.11715731D-07 -0.17108828D-02 -0.14594944D-07 -0.46862974D-07
 -0.17108829D-02 -0.71884083D-10  0.19659965D-08  0.62988563D-08  0.31214069D-03
  0.19659852D-08  0.62988227D-08 -0.46821106D-03 -0.78639745D-08 -0.25195392D-07
 -0.46821102D-03  0.29487989D-10  0.97741619D-04  0.97741622D-04  0.26064436D-03
  0.17345963D-11  0.15971607D-07  0.17342252D-11  0.51258116D-07 -0.21295537D-07
 -0.68343981D-07  0.19548335D-03 -0.78193306D-03 -0.78193308D-03  0.51257595D-07
  0.15971789D-07 -0.10406465D-10
MO    5     MO 0.0        OCC NO =    2.0000000  ORB. ENERGY =   -3.502944
 -0.15482766D-07 -0.28975008D-07 -0.50186229D-07 -0.82054089D-07 -0.12787556D-06
 -0.18917477D-06 -0.26058784D-06 -0.31768730D-06 -0.31250354D-06 -0.20443721D-06
 -0.23633898D-07 -0.85812190D-07 -0.15022019D-06 -0.15741565D-06  0.18427956D-06
  0.20126212D-06  0.10608762D-07  0.84860381D-07 -0.28809047D-06 -0.11444795D-06
 -0.60407369D-08  0.97164147D+00  0.13961955D+01  0.18500340D+01  0.21604706D+01
  0.21501303D+01  0.16664324D+01  0.92655825D+00  0.32854098D+00  0.31843498D+01
  0.45757361D+01  0.60630960D+01  0.70804863D+01  0.70465984D+01  0.54613805D+01
  0.30365991D+01  0.10767237D+01 -0.26920450D-03 -0.38683211D-03 -0.51257331D-03
 -0.59858335D-03 -0.59571847D-03 -0.46170437D-03 -0.25671368D-03 -0.91026077D-04
  0.41964881D-01 -0.17979726D-01  0.13753104D+00 -0.58924756D-01 -0.12074040D-04
  0.51730856D-05  0.57500099D-01  0.18844444D+00 -0.16172642D-04  0.12140306D-02
  0.39787292D-02 -0.19895961D-06 -0.17163792D-04 -0.56250706D-04  0.14853993D-06
  0.66718771D-06  0.21865669D-05  0.13256467D-07  0.37240069D-06  0.21410046D-06
 -0.58650114D-06 -0.10548831D-06  0.41060614D-02  0.13456749D-01  0.24545639D-08
  0.10948402D-07 -0.13402966D-07  0.57838416D-08  0.31680063D-03  0.10382472D-02
  0.33134934D-07  0.31322575D-07 -0.64457508D-07 -0.12276736D-08  0.20790507D-04
  0.68136500D-04  0.51583965D-08  0.53665896D-08 -0.10524986D-07  0.14098860D-09
  0.39273307D-05  0.12870997D-04  0.15230698D-09  0.14629388D-09 -0.29860086D-09
 -0.40641719D-11 -0.21361535D-06 -0.70007923D-06  0.29188016D-05  0.95657717D-05
  0.62878737D-08  0.29191293D-05  0.95667840D-05 -0.91318645D-08 -0.11675534D-04
 -0.38264099D-04 -0.97317566D-08 -0.40699212D-09 -0.14299633D-04 -0.46864308D-04
 -0.58763852D-08 -0.14304800D-04 -0.46880125D-04  0.22578415D-08  0.57203699D-04
  0.18747305D-03  0.15371314D-07  0.88950795D-08 -0.32256583D-09 -0.15116279D-09
 -0.63168696D-09  0.11632107D-09  0.78815752D-06  0.11632303D-09  0.25830434D-05
 -0.10514276D-05 -0.34458321D-05 -0.47387501D-09  0.24092700D-08  0.13808518D-08
  0.25883660D-05  0.78981025D-06 -0.69793231D-09 -0.12733060D-07 -0.23829622D-07
 -0.41173366D-07 -0.66911767D-07 -0.10211743D-06 -0.14328729D-06 -0.17399464D-06
 -0.16621845D-06 -0.55838103D-08 -0.22300904D-07 -0.14822101D-06 -0.31269652D-07
 -0.74864740D-07  0.23577895D-06  0.25173633D-06  0.30174106D-07  0.28013021D-04
  0.36212951D-04  0.38994742D-04  0.36239398D-04  0.27070924D-04  0.91806765D-04
  0.11868031D-03  0.12779704D-03  0.11876698D-03  0.88719238D-04  0.71140611D-07
  0.91964785D-07  0.99029295D-07  0.92031947D-07  0.68748102D-07  0.39028379D-04
  0.12790727D-03  0.15146893D-06  0.38515349D-04  0.12622593D-03  0.17840493D-06
 -0.35049501D-05 -0.11486734D-04  0.23697604D-07 -0.11361905D-07 -0.13771551D-07
  0.25133456D-07 -0.16277221D-08 -0.52588455D-04 -0.17234756D-03 -0.67624617D-07
 -0.68255770D-07  0.13588039D-06 -0.42205869D-09  0.16407994D-03  0.53773738D-03
 -0.19706180D-07 -0.19833401D-07  0.39539581D-07 -0.85638490D-10  0.34413249D-04
  0.11278216D-03 -0.33976749D-09 -0.38597810D-09  0.72574559D-09 -0.31322766D-10
 -0.15797933D-05 -0.51774390D-05 -0.37906299D-04 -0.12422990D-03  0.90264117D-07
 -0.37906388D-04 -0.12423018D-03 -0.13338153D-06  0.15162528D-03  0.49691987D-03
 -0.13741082D-06 -0.27239958D-08 -0.26415538D-04 -0.86571335D-04  0.26175730D-07
 -0.26415411D-04 -0.86570977D-04 -0.39584114D-07  0.10566202D-03  0.34628498D-03
 -0.38943078D-07  0.43920031D-09  0.83567615D-08  0.85238231D-08  0.22507450D-07
  0.10899553D-09 -0.18358057D-03  0.10898183D-09 -0.60164657D-03  0.24477374D-03
  0.80219427D-03  0.16880595D-07 -0.67021164D-07 -0.68023533D-07 -0.60164312D-03
 -0.18357950D-03 -0.65393208D-09
MO    6     MO 0.0        OCC NO =    2.0000000  ORB. ENERGY =   -3.502944
  0.74977230D-10  0.14031510D-09  0.24303309D-09  0.39735718D-09  0.61925339D-09
  0.91610248D-09  0.12619292D-08  0.15384404D-08  0.15133374D-08  0.99001274D-09
  0.11251786D-09  0.40854048D-09  0.71517843D-09  0.82899665D-09 -0.98140774D-09
 -0.11910957D-08  0.21341334D-09 -0.55396416D-09  0.17975388D-08  0.72205806D-09
  0.36733328D-10 -0.31843498D+01 -0.45757361D+01 -0.60630960D+01 -0.70804863D+01
 -0.70465984D+01 -0.54613805D+01 -0.30365991D+01 -0.10767237D+01  0.97164147D+00
  0.13961955D+01  0.18500340D+01  0.21604706D+01  0.21501303D+01  0.16664324D+01
  0.92655825D+00  0.32854098D+00  0.17110380D-05  0.24586678D-05  0.32578669D-05
  0.38045384D-05  0.37863295D-05  0.29345487D-05  0.16316475D-05  0.57855303D-06
 -0.13753104D+00  0.58924755D-01  0.41964880D-01 -0.17979725D-01  0.76807978D-07
 -0.32908145D-07 -0.18844444D+00  0.57500099D-01  0.10278142D-06 -0.39787292D-02
  0.12140307D-02  0.13077024D-08  0.56250717D-04 -0.17163795D-04 -0.94561637D-09
 -0.21865701D-05  0.66718867D-06 -0.83299704D-10  0.50671136D-07 -0.54817177D-07
  0.41460405D-08  0.15831138D-06 -0.13456746D-01  0.41060604D-02 -0.29229285D-08
  0.28602728D-08  0.62655634D-10 -0.84942695D-08 -0.10382469D-02  0.31680054D-03
  0.40599910D-09 -0.82153582D-09  0.41553671D-09  0.18123597D-08 -0.68136619D-04
  0.20790544D-04 -0.10425300D-09  0.36735005D-10  0.67518000D-10 -0.20821397D-09
 -0.12871001D-04  0.39273318D-05  0.10693182D-11 -0.29934030D-11  0.19240848D-11
  0.60125524D-11  0.70007903D-06 -0.21361529D-06 -0.95657657D-05  0.29188092D-05
 -0.39886255D-10 -0.95668026D-05  0.29191068D-05  0.26332395D-09  0.38264100D-04
 -0.11675534D-04 -0.14366518D-09  0.59985092D-09  0.46864171D-04 -0.14299762D-04
  0.36390586D-10  0.46880432D-04 -0.14304382D-04 -0.45023478D-08 -0.18747294D-03
  0.57203667D-04  0.43931761D-08 -0.13113426D-07 -0.56797316D-10  0.59536280D-10
  0.36517673D-11 -0.17141278D-09 -0.25830197D-05 -0.17141412D-09  0.78816461D-06
  0.34458129D-05 -0.10514218D-05  0.27384104D-11  0.33804549D-09 -0.35995609D-09
  0.78977146D-06 -0.25883796D-05  0.10284807D-08  0.81590578D-10  0.15269485D-09
  0.26382965D-09  0.42875552D-09  0.65434547D-09  0.91815269D-09  0.11149185D-08
  0.10650904D-08  0.36528093D-10  0.14588774D-09  0.94724526D-09  0.21013064D-09
  0.44894079D-09 -0.14898892D-08 -0.15887544D-08 -0.18756448D-09 -0.91806660D-04
 -0.11868017D-03 -0.12779689D-03 -0.11876684D-03 -0.88719136D-04  0.28012989D-04
  0.36212910D-04  0.38994697D-04  0.36239356D-04  0.27070892D-04 -0.41109346D-09
 -0.53142812D-09 -0.57225113D-09 -0.53181623D-09 -0.39726809D-09 -0.12790727D-03
  0.39028378D-04 -0.93440476D-09 -0.12622594D-03  0.38515353D-04 -0.11130218D-08
  0.11486742D-04 -0.35049526D-05 -0.15169868D-09  0.90806875D-09 -0.71962392D-09
 -0.18844483D-09  0.24095269D-08  0.17234774D-03 -0.52588510D-04  0.63863968D-09
  0.21665512D-09 -0.85529479D-09  0.63108046D-09 -0.53773739D-03  0.16407995D-03
  0.16706982D-09  0.81462829D-10 -0.24853265D-09  0.12716881D-09 -0.11278216D-03
  0.34413249D-04  0.18146429D-10 -0.13172008D-10 -0.49744202D-11  0.46203163D-10
  0.51774433D-05 -0.15797946D-05  0.12422991D-03 -0.37906303D-04 -0.57328373D-09
  0.12423019D-03 -0.37906387D-04  0.22220012D-08 -0.49691991D-03  0.15162530D-03
 -0.50214998D-09  0.40294285D-08  0.86571360D-04 -0.26415536D-04 -0.15978619D-09
  0.86570980D-04 -0.26415438D-04  0.20110901D-10 -0.34628506D-03  0.10566205D-03
  0.45924768D-09 -0.64086386D-09 -0.10523778D-09  0.37387388D-11 -0.13532755D-09
 -0.16710779D-09  0.60164661D-03 -0.16710205D-09 -0.18358057D-03 -0.80219432D-03
  0.24477375D-03 -0.10148553D-09  0.73291222D-09  0.79053096D-10 -0.18357954D-03
  0.60164313D-03  0.10026295D-08
MO    7     MO 0.0        OCC NO =    2.0000000  ORB. ENERGY =   -0.579811
  0.12154767D-01  0.22746869D-01  0.39398767D-01  0.64416674D-01  0.10038888D+00
  0.14851191D+00  0.20457484D+00  0.24940084D+00  0.24533133D+00  0.16049371D+00
  0.20535460D-01  0.74562088D-01  0.13052611D+00  0.12331056D+00 -0.13594883D+00
 -0.19544279D+00 -0.12618603D+00  0.59504984D-01  0.57310982D-01  0.60322394D-02
 -0.11278982D-03  0.14411008D-06  0.20707828D-06  0.27438984D-06  0.32043258D-06
  0.31889896D-06  0.24715876D-06  0.13742351D-06  0.48727918D-07  0.48378901D-06
  0.69517828D-06  0.92114854D-06  0.10757177D-05  0.10705692D-05  0.82973166D-06
  0.46134167D-06  0.16358350D-06  0.33546901D+00  0.48205057D+00  0.63874289D+00
  0.74592424D+00  0.74235417D+00  0.57535259D+00  0.31990358D+00  0.11343208D+00
 -0.12370469D-07  0.53000898D-08 -0.41182274D-07  0.17644420D-07 -0.10856189D-01
  0.46513013D-02 -0.48477090D-08 -0.16318324D-07 -0.69731581D-02 -0.20156752D-07
 -0.67962576D-07 -0.42727674D-01 -0.95211688D-08 -0.31927944D-07 -0.88603453D-02
 -0.35024518D-09 -0.12179347D-08 -0.40003201D-05 -0.36023316D-01 -0.36023320D-01
  0.72046636D-01 -0.24255794D-08  0.83484203D-07  0.27351400D-06 -0.11179704D-01
 -0.11179706D-01  0.22359409D-01 -0.13271602D-08  0.38661313D-07  0.12635479D-06
 -0.29474110D-02 -0.29474120D-02  0.58948231D-02 -0.64780026D-09  0.17281316D-07
  0.56485696D-07 -0.23908340D-03 -0.23908349D-03  0.47816690D-03 -0.58682064D-10
  0.93185465D-09  0.30655551D-08  0.10101529D-04  0.10101527D-04 -0.20203056D-04
 -0.89387559D-12 -0.79488790D-10 -0.26030263D-09  0.18779799D-09  0.61429916D-09