 Molden2AIM, Version 4.0.0 (06/02/2016)           Time: Thu Jun 28 23:32:29 2018
GAUSSIAN             11 MOL ORBITALS    206 PRIMITIVES        2 NUCLEI
  Si   1    (CENTRE  1)   0.00000000  0.00000000  1.02835683  CHARGE = 14.0
  O    2    (CENTRE  2)   0.00000000  0.00000000 -1.82323989  CHARGE =  8.0
CENTRE ASSIGNMENTS    1  1  1  1  1  1  1  1  1  1  1  1  1  1  1  1  1  1  1  1
CENTRE ASSIGNMENTS    1  1  1  1  1  1  1  1  1  1  1  1  1  1  1  1  1  1  1  1
CENTRE ASSIGNMENTS    1  1  1  1  1  1  1  1  1  1  1  1  1  1  1  1  1  1  1  1
CENTRE ASSIGNMENTS    1  1  1  1  1  1  1  1  1  1  1  1  1  1  1  1  1  1  1  1
CENTRE ASSIGNMENTS    1  1  1  1  1  1  1  1  1  1  1  1  1  1  1  1  1  1  1  1
CENTRE ASSIGNMENTS    1  1  1  1  1  1  1  1  1  1  1  1  1  1  1  1  1  1  1  1
CENTRE ASSIGNMENTS    1  1  1  1  1  1  1  1  1  1  1  2  2  2  2  2  2  2  2  2
CENTRE ASSIGNMENTS    2  2  2  2  2  2  2  2  2  2  2  2  2  2  2  2  2  2  2  2
CENTRE ASSIGNMENTS    2  2  2  2  2  2  2  2  2  2  2  2  2  2  2  2  2  2  2  2
CENTRE ASSIGNMENTS    2  2  2  2  2  2  2  2  2  2  2  2  2  2  2  2  2  2  2  2
CENTRE ASSIGNMENTS    2  2  2  2  2  2
TYPE ASSIGNMENTS      1  1  1  1  1  1  1  1  1  1  1  1  1  1  1  1  1  1  1  1
TYPE ASSIGNMENTS      1  1  1  1  1  1  1  1  1  1  1  1  1  1  1  1  1  1  1  1
TYPE ASSIGNMENTS      1  1  2  2  2  2  2  2  2  3  3  3  3  3  3  3  4  4  4  4
TYPE ASSIGNMENTS      4  4  4  2  2  2  2  2  2  2  3  3  3  3  3  3  3  4  4  4
TYPE ASSIGNMENTS      4  4  4  4  2  3  4  2  3  4  2  3  4  5  6  7  8  9 10  5
TYPE ASSIGNMENTS      6  7  8  9 10  5  6  7  8  9 10 11 12 13 17 14 15 18 19 16
TYPE ASSIGNMENTS     20 11 12 13 17 14 15 18 19 16 20  1  1  1  1  1  1  1  1  1
TYPE ASSIGNMENTS      1  1  1  1  1  1  1  1  1  1  2  2  2  3  3  3  4  4  4  2
TYPE ASSIGNMENTS      3  4  2  3  4  2  3  4  5  6  7  8  9 10  5  6  7  8  9 10
TYPE ASSIGNMENTS      5  6  7  8  9 10 11 12 13 17 14 15 18 19 16 20 11 12 13 17
TYPE ASSIGNMENTS     14 15 18 19 16 20
EXPONENTS  0.2549000D+06 0.3819000D+05 0.8690000D+04 0.2462000D+04 0.8048000D+03
EXPONENTS  0.2913000D+03 0.1136000D+03 0.4675000D+02 0.1982000D+02 0.7708000D+01
EXPONENTS  0.3340000D+01 0.1402000D+01 0.2070000D+00 0.2549000D+06 0.3819000D+05
EXPONENTS  0.8690000D+04 0.2462000D+04 0.8048000D+03 0.2913000D+03 0.1136000D+03
EXPONENTS  0.4675000D+02 0.1982000D+02 0.7708000D+01 0.3340000D+01 0.1402000D+01
EXPONENTS  0.2070000D+00 0.2549000D+06 0.3819000D+05 0.8690000D+04 0.2462000D+04
EXPONENTS  0.8048000D+03 0.2913000D+03 0.1136000D+03 0.4675000D+02 0.1982000D+02
EXPONENTS  0.7708000D+01 0.3340000D+01 0.1402000D+01 0.2070000D+00 0.4387000D+00
EXPONENTS  0.7944000D-01 0.3300000D-01 0.4815000D+03 0.1139000D+03 0.3623000D+02
EXPONENTS  0.1334000D+02 0.5252000D+01 0.2120000D+01 0.2528000D+00 0.4815000D+03
EXPONENTS  0.1139000D+03 0.3623000D+02 0.1334000D+02 0.5252000D+01 0.2120000D+01
EXPONENTS  0.2528000D+00 0.4815000D+03 0.1139000D+03 0.3623000D+02 0.1334000D+02
EXPONENTS  0.5252000D+01 0.2120000D+01 0.2528000D+00 0.4815000D+03 0.1139000D+03
EXPONENTS  0.3623000D+02 0.1334000D+02 0.5252000D+01 0.2120000D+01 0.2528000D+00
EXPONENTS  0.4815000D+03 0.1139000D+03 0.3623000D+02 0.1334000D+02 0.5252000D+01
EXPONENTS  0.2120000D+01 0.2528000D+00 0.4815000D+03 0.1139000D+03 0.3623000D+02
EXPONENTS  0.1334000D+02 0.5252000D+01 0.2120000D+01 0.2528000D+00 0.8561000D+00
EXPONENTS  0.8561000D+00 0.8561000D+00 0.7889000D-01 0.7889000D-01 0.7889000D-01
EXPONENTS  0.2370000D-01 0.2370000D-01 0.2370000D-01 0.1590000D+00 0.1590000D+00
EXPONENTS  0.1590000D+00 0.1590000D+00 0.1590000D+00 0.1590000D+00 0.4810000D+00
EXPONENTS  0.4810000D+00 0.4810000D+00 0.4810000D+00 0.4810000D+00 0.4810000D+00
EXPONENTS  0.5560000D-01 0.5560000D-01 0.5560000D-01 0.5560000D-01 0.5560000D-01
EXPONENTS  0.5560000D-01 0.3360000D+00 0.3360000D+00 0.3360000D+00 0.3360000D+00
EXPONENTS  0.3360000D+00 0.3360000D+00 0.3360000D+00 0.3360000D+00 0.3360000D+00
EXPONENTS  0.3360000D+00 0.1250000D+00 0.1250000D+00 0.1250000D+00 0.1250000D+00
EXPONENTS  0.1250000D+00 0.1250000D+00 0.1250000D+00 0.1250000D+00 0.1250000D+00
EXPONENTS  0.1250000D+00 0.1533000D+05 0.2299000D+04 0.5224000D+03 0.1473000D+03
EXPONENTS  0.4755000D+02 0.1676000D+02 0.6207000D+01 0.6882000D+00 0.1533000D+05
EXPONENTS  0.2299000D+04 0.5224000D+03 0.1473000D+03 0.4755000D+02 0.1676000D+02
EXPONENTS  0.6207000D+01 0.6882000D+00 0.1752000D+01 0.2384000D+00 0.7376000D-01
EXPONENTS  0.3446000D+02 0.7749000D+01 0.2280000D+01 0.3446000D+02 0.7749000D+01
EXPONENTS  0.2280000D+01 0.3446000D+02 0.7749000D+01 0.2280000D+01 0.7156000D+00
EXPONENTS  0.7156000D+00 0.7156000D+00 0.2140000D+00 0.2140000D+00 0.2140000D+00
EXPONENTS  0.5974000D-01 0.5974000D-01 0.5974000D-01 0.2314000D+01 0.2314000D+01
EXPONENTS  0.2314000D+01 0.2314000D+01 0.2314000D+01 0.2314000D+01 0.6450000D+00
EXPONENTS  0.6450000D+00 0.6450000D+00 0.6450000D+00 0.6450000D+00 0.6450000D+00
EXPONENTS  0.2140000D+00 0.2140000D+00 0.2140000D+00 0.2140000D+00 0.2140000D+00
EXPONENTS  0.2140000D+00 0.1428000D+01 0.1428000D+01 0.1428000D+01 0.1428000D+01
EXPONENTS  0.1428000D+01 0.1428000D+01 0.1428000D+01 0.1428000D+01 0.1428000D+01
EXPONENTS  0.1428000D+01 0.5000000D+00 0.5000000D+00 0.5000000D+00 0.5000000D+00
EXPONENTS  0.5000000D+00 0.5000000D+00 0.5000000D+00 0.5000000D+00 0.5000000D+00
EXPONENTS  0.5000000D+00
MO    1     MO 0.0        OCC NO =    2.0000000  ORB. ENERGY =  -65.464802
  0.50616063D+00  0.94680312D+00  0.16350864D+01  0.26410908D+01  0.39774284D+01
  0.54092839D+01  0.61579213D+01  0.49887607D+01  0.20250365D+01  0.18465548D+00
 -0.70963511D-02  0.23729687D-02  0.13316562D-03 -0.14433555D-02 -0.27015642D-02
 -0.46724591D-02 -0.75942377D-02 -0.11619122D-01 -0.16488337D-01 -0.20683249D-01
 -0.21088364D-01 -0.12957110D-01  0.28238962D-02  0.10343514D-01  0.47307591D-02
 -0.25111129D-04  0.70400603D-03  0.13167371D-02  0.22802318D-02  0.37022922D-02
  0.56829436D-02  0.80723678D-02  0.10241079D-01  0.10602284D-01  0.68291591D-02
 -0.16796672D-02 -0.68468405D-02 -0.59716362D-02  0.30434567D-02 -0.19535125D-02
 -0.50990287D-03  0.28896598D-04 -0.10599538D-16 -0.13981336D-16 -0.15529830D-16
 -0.13291346D-16 -0.75945681D-17 -0.24646029D-17 -0.17353980D-20 -0.27516387D-16
 -0.36295533D-16 -0.40315421D-16 -0.34504318D-16 -0.19715490D-16 -0.63981063D-17
 -0.45050913D-20 -0.16173642D-01 -0.21333868D-01 -0.23696686D-01 -0.20281023D-01
 -0.11588414D-01 -0.37606929D-02 -0.26480124D-05 -0.18640754D-16 -0.25490991D-16
 -0.27711274D-16 -0.25437501D-16 -0.13864471D-16 -0.58505405D-17  0.20177804D-17
 -0.21168138D-16 -0.28947157D-16 -0.31468475D-16 -0.28886415D-16 -0.15744269D-16
 -0.66437791D-17  0.22913588D-17  0.14152913D-01  0.19353926D-01  0.21039667D-01
  0.19313314D-01  0.10526541D-01  0.44419980D-02 -0.15319912D-02 -0.10436096D-16
 -0.14978691D-16  0.97898632D-04  0.61984688D-19  0.94301289D-20  0.12023770D-03
  0.47731504D-20  0.44203375D-20  0.11283305D-05 -0.15355698D-04 -0.15355698D-04
  0.30711396D-04  0.25303227D-19 -0.47189340D-18 -0.45208784D-18 -0.31971497D-03
 -0.31971497D-03  0.63942993D-03 -0.13545103D-18 -0.80688429D-18 -0.46592740D-18
  0.51945530D-05  0.51945530D-05 -0.10389106D-04 -0.71815812D-21  0.31956266D-20
  0.66649304D-20 -0.12102032D-18 -0.98250865D-19 -0.61298070D-04 -0.12090659D-18
 -0.98248208D-19  0.91947105D-04  0.48396754D-18  0.39300080D-18  0.91947105D-04
  0.26022990D-20 -0.80843451D-20 -0.80492410D-20  0.72916623D-05 -0.80901868D-20
 -0.80447057D-20 -0.10937493D-04  0.32343222D-19  0.32192429D-19 -0.10937493D-04
 -0.17968817D-20  0.44123964D-03  0.82241392D-03  0.13945415D-02  0.21107035D-02
  0.26335418D-02  0.22618611D-02  0.86837248D-03 -0.38842834D-05 -0.29346761D-03
 -0.55040578D-03 -0.93832119D-03 -0.14664134D-02 -0.19608741D-02 -0.20937564D-02
 -0.12800816D-02  0.84452009D-03 -0.14263982D-03 -0.15115559D-02  0.72607450D-04
  0.14782240D-17  0.14333801D-17  0.96694972D-18  0.27183877D-17  0.26359217D-17
  0.17781772D-17  0.37665498D-03  0.36522863D-03  0.24638108D-03  0.11694666D-17
  0.13937875D-17 -0.25406860D-03 -0.12100073D-17 -0.10437563D-17 -0.12935345D-02
 -0.27084636D-19 -0.13229317D-20 -0.12113672D-04 -0.28575293D-03 -0.28575293D-03
  0.57150586D-03 -0.40056187D-19  0.34555288D-18 -0.14507590D-17  0.20837523D-03
  0.20837523D-03 -0.41675046D-03 -0.81826612D-20 -0.38887770D-18 -0.11790834D-18
  0.14332876D-03  0.14332876D-03 -0.28665751D-03 -0.78687653D-22 -0.73784138D-18
 -0.64435208D-18 -0.51166538D-18 -0.29457815D-18  0.26994936D-03 -0.51234199D-18
 -0.29893667D-18 -0.40492405D-03  0.20473381D-17  0.11826711D-17 -0.40492405D-03
  0.20103540D-19  0.20828369D-18  0.11394197D-18 -0.16018013D-03  0.20816656D-18
  0.11405068D-18  0.24027020D-03 -0.83301764D-18 -0.45587659D-18  0.24027020D-03
 -0.24806068D-19
MO    2     MO 0.0        OCC NO =    2.0000000  ORB. ENERGY =  -18.747409
 -0.21669893D-03 -0.40534805D-03 -0.70001787D-03 -0.11307113D-02 -0.17028280D-02
 -0.23158381D-02 -0.26363468D-02 -0.21358025D-02 -0.86696442D-03 -0.79055230D-04
  0.30381101D-05 -0.10159221D-05 -0.57011247D-07  0.45471248D-03  0.85109656D-03
  0.14720042D-02  0.23924768D-02  0.36604700D-02  0.51944599D-02  0.65160186D-02
  0.66436454D-02  0.40819879D-02 -0.88963585D-03 -0.32586045D-02 -0.14903710D-02
  0.79109708D-05 -0.28489818D-03 -0.53285906D-03 -0.92276750D-03 -0.14982489D-02
 -0.22997818D-02 -0.32667375D-02 -0.41443747D-02 -0.42905476D-02 -0.27636340D-02
  0.67973015D-03  0.27707893D-02  0.24166104D-02 -0.12316305D-02 -0.20508306D-03
 -0.68579807D-03 -0.48314932D-04 -0.39387945D-15 -0.51954730D-15 -0.57708942D-15
 -0.49390720D-15 -0.28221461D-15 -0.91584792D-16 -0.64487496D-19  0.17114075D-14
  0.22574346D-14  0.25074553D-14  0.21460284D-14  0.12262234D-14  0.39793621D-15
  0.28019837D-18  0.13051877D-01  0.17216099D-01  0.19122857D-01  0.16366470D-01
  0.93516694D-02  0.30348206D-02  0.21369048D-05 -0.36116423D-15 -0.49388744D-15
 -0.53690540D-15 -0.49285108D-15 -0.26862385D-15 -0.11335411D-15  0.39094457D-16
 -0.43678458D-15 -0.59729729D-15 -0.64932232D-15 -0.59604394D-15 -0.32486815D-15
 -0.13708812D-15  0.47280030D-16 -0.12367554D-01 -0.16912471D-01 -0.18385560D-01
 -0.16876982D-01 -0.91986407D-02 -0.38816497D-02  0.13387339D-02  0.10952173D-15
 -0.17777477D-16  0.40329281D-03  0.11985399D-16 -0.84512613D-17  0.18236770D-03
 -0.63421955D-17  0.52013101D-17  0.11279606D-05  0.50256957D-04  0.50256957D-04
 -0.10051391D-03 -0.16506393D-16 -0.46719162D-17 -0.15507412D-16  0.36373669D-03
  0.36373669D-03 -0.72747338D-03  0.67752841D-16 -0.25191839D-17  0.58067271D-17
  0.32202912D-06  0.32202912D-06 -0.64405824D-06  0.22311371D-17 -0.17140800D-18
  0.53122393D-18  0.39773490D-17 -0.91075370D-18  0.79350698D-04  0.39756338D-17
 -0.90956534D-18 -0.11902605D-03 -0.15907681D-16  0.36418264D-17 -0.11902605D-03
 -0.17901751D-16 -0.42144527D-18 -0.86758276D-18  0.37162325D-06 -0.42161480D-18
 -0.86734038D-18 -0.55743488D-06  0.16859506D-17  0.34700887D-17 -0.55743488D-06
  0.70256091D-18 -0.49590903D+00 -0.92431062D+00 -0.15673246D+01 -0.23722187D+01
 -0.29598363D+01 -0.25421047D+01 -0.97596341D+00  0.43655442D-02 -0.54335965D-03
 -0.10190845D-02 -0.17373156D-02 -0.27150862D-02 -0.36305876D-02 -0.38766211D-02
 -0.23700901D-02  0.15636415D-02 -0.56551305D-01  0.97069152D-03  0.78540804D-03
 -0.40795906D-16 -0.39558306D-16 -0.26685799D-16 -0.30862981D-16 -0.29926710D-16
 -0.20188382D-16 -0.53496271D-02 -0.51873388D-02 -0.34993481D-02  0.85434421D-16
  0.13567759D-15  0.92789228D-03 -0.16010688D-16 -0.51840424D-16  0.11474996D-02
 -0.32746652D-17  0.15150558D-17  0.74393213D-04  0.87149539D-03  0.87149539D-03
 -0.17429908D-02  0.65976543D-17  0.82362390D-17 -0.42616847D-15 -0.39940757D-03
 -0.39940757D-03  0.79881513D-03  0.21431739D-16  0.12370095D-16  0.40115157D-16
 -0.92618775D-04 -0.92618775D-04  0.18523755D-03 -0.70107076D-17 -0.10385504D-17
 -0.29303247D-16 -0.43836855D-17  0.13746620D-16 -0.15218940D-03 -0.55402293D-17
  0.15245068D-16  0.22828410D-03  0.18691286D-16 -0.56484927D-16  0.22828410D-03
 -0.62006096D-17  0.18822052D-18  0.47407542D-18  0.20069547D-03  0.24386798D-18
  0.40639027D-18 -0.30104321D-03 -0.80852953D-18 -0.18286165D-17 -0.30104321D-03
  0.98186712D-17
MO    3     MO 0.0        OCC NO =    2.0000000  ORB. ENERGY =   -5.092199
 -0.34446303D-02 -0.64433829D-02 -0.11127433D-01 -0.17973704D-01 -0.27068029D-01
 -0.36812392D-01 -0.41907176D-01 -0.33950559D-01 -0.13781203D-01 -0.12566561D-02
  0.48293574D-04 -0.16149023D-04 -0.90624659D-06 -0.12861293D+00 -0.24072799D+00
 -0.41634832D+00 -0.67669894D+00 -0.10353439D+01 -0.14692245D+01 -0.18430201D+01
 -0.18791187D+01 -0.11545679D+01  0.25162862D+00  0.92167840D+00  0.42154325D+00
 -0.22375747D-02 -0.19400477D-02 -0.36285665D-02 -0.62836940D-02 -0.10202503D-01
 -0.15660635D-01 -0.22245234D-01 -0.28221607D-01 -0.29216989D-01 -0.18819291D-01
  0.46287025D-02  0.18868016D-01  0.16456193D-01 -0.83869326D-02  0.32213399D-01
  0.29180807D-02 -0.99789482D-04 -0.14864076D-13 -0.19606482D-13 -0.21777985D-13
 -0.18638886D-13 -0.10650109D-13 -0.34561927D-14 -0.24336050D-17 -0.22501538D-13
 -0.29680689D-13 -0.32967954D-13 -0.28215922D-13 -0.16122351D-13 -0.52320544D-14
 -0.36840405D-17  0.28490824D-01  0.37580865D-01  0.41743110D-01  0.35726218D-01
  0.20413674D-01  0.66246822D-02  0.46646300D-05  0.47867209D-15  0.65457792D-15
  0.71159214D-15  0.65320437D-15  0.35602291D-15  0.15023483D-15 -0.51814170D-16
  0.10292188D-14  0.14074435D-14  0.15300328D-14  0.14044901D-14  0.76550414D-15
  0.32302805D-15 -0.11140846D-15 -0.21167589D-01 -0.28946406D-01 -0.31467659D-01
 -0.28885665D-01 -0.15743860D-01 -0.66436067D-02  0.22912994D-02 -0.13179758D-15
 -0.12206696D-15  0.91081078D-03  0.41159182D-17 -0.41187795D-17 -0.56121017D-03
 -0.15194155D-17  0.92526551D-19 -0.31622351D-06 -0.30479146D-04 -0.30479146D-04
  0.60958292D-04 -0.88576623D-17 -0.20552000D-17  0.33324519D-16  0.63047771D-03
  0.63047771D-03 -0.12609554D-02  0.48535598D-16  0.30135913D-17 -0.54533510D-17
 -0.12198411D-04 -0.12198411D-04  0.24396823D-04  0.77649702D-18  0.76323508D-18
 -0.21540088D-18  0.13473768D-17  0.57691442D-17  0.68500726D-04  0.13103471D-17
  0.57616073D-17 -0.10275109D-03 -0.53524775D-17 -0.23069040D-16 -0.10275109D-03
  0.56144985D-17  0.29205297D-18  0.36990695D-18 -0.16478884D-04  0.29490103D-18
  0.36845494D-18  0.24718325D-04 -0.11710599D-17 -0.14781758D-17  0.24718325D-04
 -0.10692831D-18 -0.49388042D-03 -0.92052955D-03 -0.15609131D-02 -0.23625147D-02
 -0.29477286D-02 -0.25317057D-02 -0.97197105D-03  0.43476861D-05  0.16356051D-03
  0.30676178D-03  0.52296159D-03  0.81728717D-03  0.10928687D-02  0.11669289D-02
  0.71343747D-03 -0.47068271D-03 -0.16861509D-03  0.19022610D-02 -0.12610958D-02
 -0.49608670D-16 -0.48103722D-16 -0.32450487D-16 -0.13479992D-15 -0.13071058D-15
 -0.88176586D-16  0.73400449D-03  0.71173745D-03  0.48013388D-03 -0.30206983D-16
 -0.48254837D-16  0.12238702D-02  0.18731431D-16  0.55852354D-16  0.18689501D-02
  0.46726051D-19  0.29511774D-17 -0.11277748D-03 -0.27653950D-04 -0.27653950D-04
  0.55307899D-04 -0.18950764D-17 -0.10523777D-16  0.74838832D-16 -0.55069835D-03
 -0.55069835D-03  0.11013967D-02 -0.28759209D-17  0.23562444D-16  0.30779892D-17
 -0.22084526D-03 -0.22084526D-03  0.44169052D-03 -0.27371713D-18  0.56784160D-17
  0.28738307D-16  0.63405269D-17  0.13269185D-16  0.11352802D-02  0.11045063D-16
  0.83300029D-17 -0.17029203D-02 -0.30066644D-16 -0.48137558D-16 -0.17029203D-02
  0.58801328D-17 -0.53825767D-17 -0.52084734D-17  0.27445169D-03 -0.55988975D-17
 -0.49779509D-17 -0.41167754D-03  0.21746628D-16  0.20603371D-16 -0.41167754D-03
 -0.37403258D-17
MO    4     MO 0.0        OCC NO =    2.0000000  ORB. ENERGY =   -3.505897
  0.15229334D-15  0.28487361D-15  0.49196393D-15  0.79464998D-15  0.11967265D-14
  0.16275424D-14  0.18527920D-14  0.15010156D-14  0.60929190D-15  0.55559041D-16
 -0.21351463D-17  0.71397754D-18  0.40066801D-19 -0.29164102D-15 -0.54587168D-15
 -0.94410607D-15 -0.15344738D-14 -0.23477323D-14 -0.33315944D-14 -0.41792085D-14
 -0.42610652D-14 -0.26180832D-14  0.57058980D-15  0.20899860D-14  0.95588603D-15
 -0.50738954D-17  0.17348603D-15  0.32447945D-15  0.56191048D-15  0.91234443D-15
  0.14004302D-14  0.19892487D-14  0.25236775D-14  0.26126881D-14  0.16828886D-14
 -0.41391521D-15 -0.16872458D-14 -0.14715719D-14  0.74998964D-15 -0.23753938D-15
  0.87225285D-15  0.49262869D-16  0.50280904D+01  0.66323104D+01  0.73668676D+01
  0.63050003D+01  0.36026265D+01  0.11691308D+01  0.82321877D-03 -0.36042888D+01
 -0.47542427D+01 -0.52807957D+01 -0.45196168D+01 -0.25824727D+01 -0.83806870D+00
 -0.59010836D-03 -0.68709408D-12 -0.90631250D-12 -0.10066906D-11 -0.86158522D-12
 -0.49230287D-12 -0.15976301D-12 -0.11249375D-15 -0.27598401D-01 -0.37740458D-01
 -0.41027679D-01 -0.37661264D-01 -0.20526918D-01 -0.86619653D-02  0.29874068D-02
  0.19783377D-01  0.27053513D-01  0.29409894D-01  0.26996745D-01  0.14714322D-01
  0.62091613D-02 -0.21414644D-02  0.11363322D-13  0.15539197D-13  0.16892673D-13
  0.15506590D-13  0.84517213D-14  0.35664640D-14 -0.12300302D-14  0.12891716D+00
 -0.92411756D-01 -0.16803637D-13 -0.13564572D-04  0.97234997D-05 -0.26539806D-15
  0.71458644D-05 -0.51223739D-05 -0.12751531D-17 -0.87381867D-16 -0.69230077D-16
  0.15661194D-15 -0.39753812D-17 -0.67236561D-03  0.48197221D-03  0.96227080D-16
 -0.35293522D-15  0.25670814D-15  0.18924161D-16 -0.36305761D-03  0.26025079D-03
 -0.21804385D-17 -0.24771638D-17  0.46576023D-17 -0.98466231D-18  0.10342758D-04
 -0.74140046D-05 -0.13287291D-03  0.95247363D-04 -0.80473478D-16 -0.13287114D-03
  0.95246095D-04  0.11915005D-15  0.53148988D-03 -0.38098819D-03  0.12227039D-15
  0.15390561D-16 -0.11702247D-04  0.83885282D-05 -0.33040154D-17 -0.11702341D-04
  0.83885953D-05  0.68784582D-17  0.46809082D-04 -0.33554180D-04  0.30335881D-17
 -0.21672052D-17  0.18295850D-15  0.34101111D-15  0.57824185D-15  0.87519597D-15
  0.10919890D-14  0.93787295D-15  0.36006766D-15 -0.16106047D-17 -0.19157787D-15
 -0.35930904D-15 -0.61254315D-15 -0.95728571D-15 -0.12800734D-14 -0.13668199D-14
 -0.83564691D-15  0.55130908D-15  0.35888610D-16 -0.15415556D-14 -0.81046674D-15
  0.12995501D-03  0.12601264D-03  0.85007385D-04 -0.93155720D-04 -0.90329713D-04
 -0.60935891D-04  0.18034181D-14  0.17487090D-14  0.11796687D-14  0.11547750D-02
 -0.82777796D-03 -0.93524037D-16 -0.16843676D-02  0.12074061D-02 -0.79375720D-15
 -0.25995443D-04  0.18634328D-04 -0.67637436D-16  0.77964839D-15 -0.99344663D-15
  0.21379823D-15  0.55407017D-15  0.10828694D-02 -0.77623387D-03 -0.99382073D-16
  0.54088019D-16  0.45294054D-16 -0.27189721D-16  0.25967083D-03 -0.18613999D-03
  0.50827527D-16  0.34392490D-16 -0.85220017D-16  0.37573407D-18 -0.96421419D-03
  0.69117819D-03 -0.68720884D-03  0.49261229D-03  0.80978719D-16 -0.68721054D-03
  0.49261351D-03 -0.16248776D-15  0.27488371D-02 -0.19704504D-02 -0.80448395D-16
  0.65191865D-15  0.18818707D-03 -0.13489824D-03  0.26415034D-16  0.18818732D-03
 -0.13489842D-03 -0.25994147D-16 -0.75274854D-03  0.53959315D-03 -0.53250955D-16
  0.68981773D-17
MO    5     MO 0.0        OCC NO =    2.0000000  ORB. ENERGY =   -3.505897
  0.77736920D-16  0.14541146D-15  0.25111906D-15  0.40562275D-15  0.61085951D-15
  0.83076605D-15  0.94574292D-15  0.76618146D-15  0.31100819D-15  0.28359669D-16
 -0.10898684D-17  0.36444414D-18  0.20451779D-19 -0.68072641D-15 -0.12741324D-14
 -0.22036610D-14 -0.35816526D-14 -0.54798993D-14 -0.77763559D-14 -0.97547926D-14
 -0.99458561D-14 -0.61109318D-14  0.13318276D-14  0.48782874D-14  0.22311569D-14
 -0.11843103D-16  0.10646027D-15  0.19911786D-15  0.34481819D-15  0.55986311D-15
  0.85937855D-15  0.12207089D-14  0.15486628D-14  0.16032845D-14  0.10327100D-14
 -0.25400040D-15 -0.10353838D-14 -0.90303484D-15  0.46023357D-15  0.22408239D-15
  0.49940861D-15  0.21991800D-16  0.36042888D+01  0.47542427D+01  0.52807957D+01
  0.45196168D+01  0.25824727D+01  0.83806870D+00  0.59010836D-03  0.50280904D+01
  0.66323104D+01  0.73668676D+01  0.63050003D+01  0.36026265D+01  0.11691308D+01
  0.82321877D-03 -0.29451164D-12 -0.38847604D-12 -0.43150145D-12 -0.36930442D-12
 -0.21101758D-12 -0.68479804D-13 -0.48218606D-16 -0.19783377D-01 -0.27053513D-01
 -0.29409894D-01 -0.26996745D-01 -0.14714322D-01 -0.62091613D-02  0.21414644D-02
 -0.27598401D-01 -0.37740458D-01 -0.41027679D-01 -0.37661264D-01 -0.20526918D-01
 -0.86619653D-02  0.29874068D-02  0.74761661D-14  0.10223561D-13  0.11114041D-13
  0.10202108D-13  0.55605632D-14  0.23464509D-14 -0.80926244D-15  0.92411756D-01
  0.12891716D+00 -0.71756996D-14 -0.97234997D-05 -0.13564572D-04 -0.14319282D-15
  0.51223739D-05  0.71458644D-05  0.16991884D-18 -0.57508316D-16 -0.30569904D-16
  0.88078220D-16 -0.25173467D-16 -0.48197221D-03 -0.67236561D-03 -0.14567004D-16
 -0.15270822D-15  0.16727523D-15  0.34403518D-15 -0.26025079D-03 -0.36305761D-03
 -0.68222467D-18 -0.27715568D-18  0.95938035D-18  0.31977960D-17  0.74140046D-05
  0.10342758D-04 -0.95247363D-04 -0.13287291D-03 -0.46861847D-16 -0.95246095D-04
 -0.13287114D-03  0.74652790D-16  0.38098819D-03  0.53148988D-03  0.65932751D-16
 -0.18910267D-16 -0.83885282D-05 -0.11702247D-04 -0.11019334D-17 -0.83885953D-05
 -0.11702341D-04  0.26626259D-17  0.33554180D-04  0.46809082D-04  0.64317446D-18
  0.26029683D-17  0.78873851D-16  0.14701071D-15  0.24928145D-15  0.37729909D-15
  0.47075911D-15  0.40431929D-15  0.15522604D-15 -0.69433559D-18 -0.13636375D-15
 -0.25575359D-15 -0.43600380D-15 -0.68138908D-15 -0.91114703D-15 -0.97289260D-15
 -0.59480746D-15  0.39241784D-15  0.23972741D-15 -0.92156592D-15 -0.46259695D-15
  0.93155720D-04  0.90329713D-04  0.60935891D-04  0.12995501D-03  0.12601264D-03
  0.85007385D-04  0.14378905D-14  0.13942701D-14  0.94056638D-15  0.82777796D-03
  0.11547750D-02 -0.14626943D-15 -0.12074061D-02 -0.16843676D-02 -0.55456055D-15
 -0.18634328D-04 -0.25995443D-04 -0.43212291D-16  0.14345719D-14 -0.15915610D-14
  0.15698913D-15  0.11601948D-16  0.77623387D-03  0.10828694D-02  0.11237208D-16
  0.23045543D-15 -0.24169264D-15 -0.27135464D-16  0.18613999D-03  0.25967083D-03
  0.49080989D-16  0.23964566D-16 -0.73045556D-16  0.38007614D-17 -0.69117819D-03
 -0.96421419D-03 -0.49261229D-03 -0.68720884D-03  0.47468963D-15 -0.49261351D-03
 -0.68721054D-03 -0.10633877D-14  0.19704504D-02  0.27488371D-02 -0.36068118D-15
 -0.21880693D-15  0.13489824D-03  0.18818707D-03 -0.57827929D-16  0.13489842D-03
  0.18818732D-03  0.10221365D-15 -0.53959315D-03 -0.75274854D-03  0.71270140D-16
 -0.47670370D-16
MO    6     MO 0.0        OCC NO =    2.0000000  ORB. ENERGY =   -3.497688
 -0.64933600D-03 -0.12146210D-02 -0.20975959D-02 -0.33881642D-02 -0.51025056D-02
 -0.69393835D-02 -0.78997846D-02 -0.63999088D-02 -0.25978494D-02 -0.23688814D-03
  0.91036637D-05 -0.30441996D-05 -0.17083358D-06  0.13096745D-02  0.24513500D-02
  0.42397042D-02  0.68908728D-02  0.10542979D-01  0.14961216D-01  0.18767603D-01
  0.19135197D-01  0.11757046D-01 -0.25623519D-02 -0.93855158D-02 -0.42926045D-02
  0.22785380D-04 -0.63128590D-03 -0.11807250D-02 -0.20446958D-02 -0.33198648D-02
 -0.50959253D-02 -0.72385346D-02 -0.91832292D-02 -0.95071235D-02 -0.61237427D-02
  0.15061664D-02  0.61395978D-02  0.53547975D-02 -0.27290836D-02  0.26812471D-02
 -0.55791789D-02 -0.18663430D-03  0.71845593D-12  0.94768040D-12  0.10526401D-11
  0.90091158D-12  0.51477364D-12  0.16705527D-12  0.11762843D-15 -0.16123607D-12
 -0.21267869D-12 -0.23623378D-12 -0.20218282D-12 -0.11552564D-12 -0.37490588D-13
 -0.26398205D-16  0.62236673D+01  0.82093379D+01  0.91185578D+01  0.78042002D+01
  0.44592573D+01  0.14471262D+01  0.10189633D-02 -0.35035356D-14 -0.47910399D-14
 -0.52083430D-14 -0.47809865D-14 -0.26058318D-14 -0.10996110D-14  0.37924249D-15
  0.13752884D-14  0.18806892D-14  0.20444985D-14  0.18767428D-14  0.10229010D-14
  0.43164458D-15 -0.14886898D-15 -0.65213808D-01 -0.89179043D-01 -0.96946603D-01
 -0.88991912D-01 -0.48504206D-01 -0.20467843D-01  0.70591109D-02  0.18195238D-13
 -0.41459899D-14  0.15419496D+00 -0.12630093D-17 -0.68319147D-17  0.15743618D-02
  0.17233457D-17 -0.11378823D-17  0.87432629D-07  0.52281452D-03  0.52281452D-03
 -0.10456290D-02 -0.20564537D-16 -0.94892651D-16  0.21690747D-16  0.38448114D-03
  0.38448114D-03 -0.76896228D-03  0.33648113D-16  0.18169742D-15  0.39475469D-15
  0.99242433D-05  0.99242433D-05 -0.19848487D-04  0.16923710D-17  0.15546129D-17
  0.11349519D-17 -0.10719784D-16  0.15042384D-16  0.43191127D-03 -0.10675779D-16
  0.15068264D-16 -0.64786690D-03  0.42835130D-16 -0.60195415D-16 -0.64786690D-03
 -0.53588812D-18 -0.18342501D-17  0.54309504D-18  0.37124290D-04 -0.18380417D-17
  0.54221298D-18 -0.55686436D-04  0.73407921D-17 -0.21714981D-17 -0.55686436D-04
  0.54540315D-18 -0.43290931D-03 -0.80688725D-03 -0.13682134D-02 -0.20708548D-02
 -0.25838221D-02 -0.22191586D-02 -0.85197814D-03  0.38109505D-05  0.11117214D-02
  0.20850611D-02  0.35545721D-02  0.55551042D-02  0.74282328D-02  0.79316208D-02
  0.48492375D-02 -0.31992323D-02 -0.67376642D-03  0.83124942D-02  0.45195578D-02
  0.26492025D-15  0.25688353D-15  0.17329211D-15  0.23529801D-15  0.22815992D-15
  0.15391534D-15 -0.98591084D-02 -0.95600187D-02 -0.64491321D-02  0.22059378D-15
  0.28871837D-16 -0.83579918D-03 -0.19524621D-15  0.13285687D-15  0.34337457D-02
 -0.52426504D-17  0.61725160D-17  0.40292009D-03  0.95399911D-03  0.95399911D-03
 -0.19079982D-02 -0.11905313D-16  0.50186656D-16 -0.30866079D-15  0.43618680D-03
  0.43618680D-03 -0.87237360D-03  0.23191405D-17  0.12274270D-15  0.13154126D-15
 -0.57212866D-04 -0.57212866D-04  0.11442573D-03 -0.12844631D-18 -0.10935355D-15
  0.78049864D-16 -0.68438226D-16  0.46077472D-16 -0.13466938D-02 -0.73564791D-16
  0.51654465D-16  0.20200407D-02  0.27887947D-15 -0.18988688D-15  0.20200407D-02
 -0.12777004D-16  0.20693849D-17 -0.31250796D-16 -0.63284738D-03  0.23157036D-17
 -0.31508598D-16  0.94927107D-03 -0.85238584D-17  0.12526099D-15  0.94927107D-03
  0.62274821D-17
MO    7     MO 0.0        OCC NO =    2.0000000  ORB. ENERGY =   -0.863886
  0.16075245D-02  0.30069687D-02  0.51928998D-02  0.83878867D-02  0.12631985D-01
  0.17179440D-01  0.19557050D-01  0.15843893D-01  0.64313491D-02  0.58645058D-03
 -0.22537426D-04  0.75363530D-05  0.42292305D-06 -0.55527112D-02 -0.10393146D-01
 -0.17975347D-01 -0.29215677D-01 -0.44699747D-01 -0.63432030D-01 -0.79570214D-01
 -0.81128726D-01 -0.49847103D-01  0.10863768D-01  0.39792375D-01  0.18199632D-01
 -0.96604642D-04 -0.82325548D-02 -0.15397752D-01 -0.26664733D-01 -0.43294122D-01
 -0.66455601D-01 -0.94397217D-01 -0.11975784D+00 -0.12398173D+00 -0.79859296D-01
  0.19641809D-01  0.80066060D-01  0.69831536D-01 -0.35589786D-01 -0.10338130D-01
 -0.17865628D-02  0.17833878D-03 -0.65617734D-15 -0.86553172D-15 -0.96139313D-15
 -0.82281701D-15 -0.47015103D-15 -0.15257426D-15 -0.10743194D-18 -0.93814772D-16
 -0.12374652D-15 -0.13745198D-15 -0.11763952D-15 -0.67218279D-16 -0.21813797D-16
 -0.15359724D-19 -0.33513439D+00 -0.44205953D+00 -0.49101955D+00 -0.42024353D+00
 -0.24012377D+00 -0.77925399D-01 -0.54869523D-04 -0.27251098D-14 -0.37265527D-14
 -0.40511381D-14 -0.37187329D-14 -0.20268605D-14 -0.85529619D-15  0.29498128D-15
 -0.31590361D-14 -0.43199413D-14 -0.46962113D-14 -0.43108764D-14 -0.23496027D-14
 -0.99148721D-15  0.34195191D-15 -0.25164980D+00 -0.34412786D+00 -0.37410164D+00
 -0.34340575D+00 -0.18717008D+00 -0.78982178D-01  0.27239995D-01  0.10826785D-15
  0.27254547D-15  0.23064671D-01  0.59352237D-16  0.69399054D-16  0.17365501D-03
 -0.32743998D-17 -0.33629598D-18 -0.25795811D-04  0.62856272D-03  0.62856272D-03
 -0.12571254D-02  0.14664330D-16 -0.16044948D-16 -0.34851559D-16  0.10223041D-01
  0.10223041D-01 -0.20446082D-01 -0.18431748D-16 -0.10427970D-15 -0.24085211D-15
 -0.28757875D-04 -0.28757875D-04  0.57515749D-04 -0.35928611D-17 -0.21520366D-18
 -0.43981624D-17  0.32006961D-18  0.74045933D-18  0.21278373D-02  0.22958810D-18
  0.64112123D-18 -0.31917560D-02 -0.11897969D-17 -0.28624992D-17 -0.31917560D-02
  0.66434240D-17 -0.19035068D-19 -0.72435934D-19 -0.31490250D-04 -0.12097514D-19
 -0.82814308D-19  0.47235375D-04  0.69202716D-19  0.30012211D-18  0.47235375D-04
 -0.25602955D-18  0.99568927D-02  0.18558367D-01  0.31468841D-01  0.47629557D-01
  0.59427780D-01  0.51040538D-01  0.19595455D-01 -0.87651672D-04  0.96646128D-01
  0.18126221D+00  0.30901233D+00  0.48292612D+00  0.64576424D+00  0.68952565D+00
  0.42156246D+00 -0.27812131D+00 -0.15630287D+00 -0.69315646D-01 -0.15608345D-02
  0.99305849D-14  0.96293269D-14  0.64958870D-14  0.14803749D-13  0.14354657D-13
  0.96835665D-14 -0.32067270D+00 -0.31094465D+00 -0.20976142D+00  0.19156615D-14
  0.28405736D-14 -0.72825108D-01  0.38211223D-15  0.57164676D-15 -0.52459281D-02
  0.19530918D-16  0.22625969D-16  0.17961063D-03  0.77207964D-02  0.77207964D-02
 -0.15441593D-01  0.17566975D-15  0.52245099D-16 -0.23568424D-16  0.51692242D-02
  0.51692242D-02 -0.10338448D-01  0.32783869D-16 -0.98481083D-16 -0.16572630D-15
  0.27097752D-03  0.27097752D-03 -0.54195504D-03  0.30272693D-17 -0.90531623D-17
 -0.16043425D-16  0.56325511D-17 -0.60056336D-17 -0.56119886D-02  0.72077531D-17
  0.85311134D-17  0.84179829D-02 -0.24105406D-16  0.94857875D-17  0.84179829D-02
  0.33753877D-16  0.51810475D-17  0.14710757D-16 -0.23413234D-02  0.55078792D-17
  0.14400580D-16  0.35119850D-02 -0.21051022D-16 -0.58532852D-16  0.35119850D-02
 -0.28501639D-17
MO    8     MO 0.0        OCC NO =    2.0000000  ORB. ENERGY =   -0.394065
 -0.16984090D-02 -0.31769735D-02 -0.54864904D-02 -0.88621122D-02 -0.13346159D-01
 -0.18150713D-01 -0.20662746D-01 -0.16739658D-01 -0.67949579D-02 -0.61960670D-03
  0.23811623D-04 -0.79624353D-05 -0.44683382D-06  0.46668394D-02  0.87350384D-02
  0.15107585D-01  0.24554648D-01  0.37568412D-01  0.53312173D-01  0.66875693D-01
  0.68185563D-01  0.41894566D-01 -0.91305778D-02 -0.33443955D-01 -0.15296088D-01
  0.81192472D-04  0.27949598D-01  0.52275507D-01  0.90527013D-01  0.14698394D+00
  0.22561737D+00  0.32047941D+00  0.40657897D+00  0.42091909D+00  0.27112304D+00
 -0.66684122D-01 -0.27182500D+00 -0.23707870D+00  0.12082765D+00  0.36212729D-01