 Molden2AIM, Version 4.0.0 (06/02/2016)           Time: Tue Jun 26 17:46:25 2018
GAUSSIAN             24 MOL ORBITALS    317 PRIMITIVES        2 NUCLEI
  Si   1    (CENTRE  1)   0.00000000  0.00000000 -0.53056707  CHARGE = 14.0
  Se   2    (CENTRE  2)   0.00000000  0.00000000  3.36515625  CHARGE = 34.0
CENTRE ASSIGNMENTS    1  1  1  1  1  1  1  1  1  1  1  1  1  1  1  1  1  1  1  1
CENTRE ASSIGNMENTS    1  1  1  1  1  1  1  1  1  1  1  1  1  1  1  1  1  1  1  1
CENTRE ASSIGNMENTS    1  1  1  1  1  1  1  1  1  1  1  1  1  1  1  1  1  1  1  1
CENTRE ASSIGNMENTS    1  1  1  1  1  1  1  1  1  1  1  1  1  1  1  1  1  1  1  1
CENTRE ASSIGNMENTS    1  1  1  1  1  1  1  1  1  1  1  1  1  1  1  1  1  1  1  1
CENTRE ASSIGNMENTS    1  1  1  1  1  1  1  1  1  1  1  1  1  1  1  1  1  1  1  1
CENTRE ASSIGNMENTS    1  1  1  1  1  1  1  1  2  2  2  2  2  2  2  2  2  2  2  2
CENTRE ASSIGNMENTS    2  2  2  2  2  2  2  2  2  2  2  2  2  2  2  2  2  2  2  2
CENTRE ASSIGNMENTS    2  2  2  2  2  2  2  2  2  2  2  2  2  2  2  2  2  2  2  2
CENTRE ASSIGNMENTS    2  2  2  2  2  2  2  2  2  2  2  2  2  2  2  2  2  2  2  2
CENTRE ASSIGNMENTS    2  2  2  2  2  2  2  2  2  2  2  2  2  2  2  2  2  2  2  2
CENTRE ASSIGNMENTS    2  2  2  2  2  2  2  2  2  2  2  2  2  2  2  2  2  2  2  2
CENTRE ASSIGNMENTS    2  2  2  2  2  2  2  2  2  2  2  2  2  2  2  2  2  2  2  2
CENTRE ASSIGNMENTS    2  2  2  2  2  2  2  2  2  2  2  2  2  2  2  2  2  2  2  2
CENTRE ASSIGNMENTS    2  2  2  2  2  2  2  2  2  2  2  2  2  2  2  2  2  2  2  2
CENTRE ASSIGNMENTS    2  2  2  2  2  2  2  2  2  2  2  2  2  2  2  2  2
TYPE ASSIGNMENTS      1  1  1  1  1  1  1  1  1  1  1  1  1  1  1  1  1  1  1  1
TYPE ASSIGNMENTS      1  2  2  2  2  2  2  2  2  3  3  3  3  3  3  3  3  4  4  4
TYPE ASSIGNMENTS      4  4  4  4  4  2  2  3  3  4  4  2  3  4  2  3  4  2  3  4
TYPE ASSIGNMENTS      2  3  4  5  6  7  8  9 10  5  6  7  8  9 10  5  6  7  8  9
TYPE ASSIGNMENTS     10  5  6  7  8  9 10  5  6  7  8  9 10 11 12 13 17 14 15 18
TYPE ASSIGNMENTS     19 16 20 11 12 13 17 14 15 18 19 16 20 21 22 23 24 25 26 27
TYPE ASSIGNMENTS     28 29 30 31 32 33 34 35  1  1  1  1  1  1  1  1  1  1  1  1
TYPE ASSIGNMENTS      1  1  1  1  1  1  1  1  1  1  1  1  1  2  2  2  2  2  2  2
TYPE ASSIGNMENTS      2  2  2  3  3  3  3  3  3  3  3  3  3  4  4  4  4  4  4  4
TYPE ASSIGNMENTS      4  4  4  2  2  2  2  2  3  3  3  3  3  4  4  4  4  4  2  3
TYPE ASSIGNMENTS      4  2  3  4  2  3  4  2  3  4  2  3  4  2  3  4  5  5  5  5
TYPE ASSIGNMENTS      5  5  5  6  6  6  6  6  6  6  7  7  7  7  7  7  7  8  8  8
TYPE ASSIGNMENTS      8  8  8  8  9  9  9  9  9  9  9 10 10 10 10 10 10 10  5  6
TYPE ASSIGNMENTS      7  8  9 10  5  6  7  8  9 10  5  6  7  8  9 10  5  6  7  8
TYPE ASSIGNMENTS      9 10 11 12 13 17 14 15 18 19 16 20 11 12 13 17 14 15 18 19
TYPE ASSIGNMENTS     16 20 21 22 23 24 25 26 27 28 29 30 31 32 33 34 35
EXPONENTS  0.9180707D+06 0.1374853D+06 0.3128777D+05 0.8861611D+04 0.2890694D+04
EXPONENTS  0.1043406D+04 0.4068016D+03 0.1684836D+03 0.7318563D+02 0.3299849D+02
EXPONENTS  0.2787875D+03 0.8591023D+02 0.3299260D+02 0.1503369D+02 0.5725751D+01
EXPONENTS  0.2614652D+01 0.1175783D+01 0.3543233D+00 0.1624834D+00 0.6833246D-01
EXPONENTS  0.3052108D-01 0.1775885D+04 0.4208379D+03 0.1364229D+03 0.5170099D+02
EXPONENTS  0.2155946D+02 0.9555920D+01 0.4352982D+01 0.2009696D+01 0.1775885D+04
EXPONENTS  0.4208379D+03 0.1364229D+03 0.5170099D+02 0.2155946D+02 0.9555920D+01
EXPONENTS  0.4352982D+01 0.2009696D+01 0.1775885D+04 0.4208379D+03 0.1364229D+03
EXPONENTS  0.5170099D+02 0.2155946D+02 0.9555920D+01 0.4352982D+01 0.2009696D+01
EXPONENTS  0.4641815D+02 0.1907642D+01 0.4641815D+02 0.1907642D+01 0.4641815D+02
EXPONENTS  0.1907642D+01 0.9233722D+00 0.9233722D+00 0.9233722D+00 0.3451572D+00
EXPONENTS  0.3451572D+00 0.3451572D+00 0.1365683D+00 0.1365683D+00 0.1365683D+00
EXPONENTS  0.5298706D-01 0.5298706D-01 0.5298706D-01 0.2645000D+01 0.2645000D+01
EXPONENTS  0.2645000D+01 0.2645000D+01 0.2645000D+01 0.2645000D+01 0.6080000D+00
EXPONENTS  0.6080000D+00 0.6080000D+00 0.6080000D+00 0.6080000D+00 0.6080000D+00
EXPONENTS  0.2720000D+00 0.2720000D+00 0.2720000D+00 0.2720000D+00 0.2720000D+00
EXPONENTS  0.2720000D+00 0.1130000D+00 0.1130000D+00 0.1130000D+00 0.1130000D+00
EXPONENTS  0.1130000D+00 0.1130000D+00 0.4401890D-01 0.4401890D-01 0.4401890D-01
EXPONENTS  0.4401890D-01 0.4401890D-01 0.4401890D-01 0.2120000D+00 0.2120000D+00
EXPONENTS  0.2120000D+00 0.2120000D+00 0.2120000D+00 0.2120000D+00 0.2120000D+00
EXPONENTS  0.2120000D+00 0.2120000D+00 0.2120000D+00 0.5410000D+00 0.5410000D+00
EXPONENTS  0.5410000D+00 0.5410000D+00 0.5410000D+00 0.5410000D+00 0.5410000D+00
EXPONENTS  0.5410000D+00 0.5410000D+00 0.5410000D+00 0.4610000D+00 0.4610000D+00
EXPONENTS  0.4610000D+00 0.4610000D+00 0.4610000D+00 0.4610000D+00 0.4610000D+00
EXPONENTS  0.4610000D+00 0.4610000D+00 0.4610000D+00 0.4610000D+00 0.4610000D+00
EXPONENTS  0.4610000D+00 0.4610000D+00 0.4610000D+00 0.9520447D+07 0.1424984D+07
EXPONENTS  0.3241276D+06 0.9177488D+05 0.2993273D+05 0.1080462D+05 0.4214013D+04
EXPONENTS  0.1747812D+04 0.7621216D+03 0.3464560D+03 0.1631157D+03 0.2614515D+04
EXPONENTS  0.8186855D+03 0.3186340D+03 0.1390484D+03 0.7834873D+02 0.3170429D+02
EXPONENTS  0.1550586D+02 0.7322742D+01 0.3496948D+01 0.1612155D+01 0.4958716D+00
EXPONENTS  0.2409214D+00 0.1023174D+00 0.4031630D-01 0.2536022D+05 0.5993790D+04
EXPONENTS  0.1943074D+04 0.7423532D+03 0.3146211D+03 0.1433475D+03 0.6867362D+02
EXPONENTS  0.3401355D+02 0.1719810D+02 0.8583033D+01 0.2536022D+05 0.5993790D+04
EXPONENTS  0.1943074D+04 0.7423532D+03 0.3146211D+03 0.1433475D+03 0.6867362D+02
EXPONENTS  0.3401355D+02 0.1719810D+02 0.8583033D+01 0.2536022D+05 0.5993790D+04
EXPONENTS  0.1943074D+04 0.7423532D+03 0.3146211D+03 0.1433475D+03 0.6867362D+02
EXPONENTS  0.3401355D+02 0.1719810D+02 0.8583033D+01 0.2365821D+03 0.9057618D+02
EXPONENTS  0.3908669D+02 0.9308434D+01 0.4616992D+01 0.2365821D+03 0.9057618D+02
EXPONENTS  0.3908669D+02 0.9308434D+01 0.4616992D+01 0.2365821D+03 0.9057618D+02
EXPONENTS  0.3908669D+02 0.9308434D+01 0.4616992D+01 0.2265348D+01 0.2265348D+01
EXPONENTS  0.2265348D+01 0.1080000D+01 0.1080000D+01 0.1080000D+01 0.4793933D+00
EXPONENTS  0.4793933D+00 0.4793933D+00 0.1961998D+00 0.1961998D+00 0.1961998D+00
EXPONENTS  0.7625634D-01 0.7625634D-01 0.7625634D-01 0.2503150D-01 0.2503150D-01
EXPONENTS  0.2503150D-01 0.5394870D+03 0.1621339D+03 0.6266180D+02 0.2707727D+02
EXPONENTS  0.1248300D+02 0.5886462D+01 0.2751913D+01 0.5394870D+03 0.1621339D+03
EXPONENTS  0.6266180D+02 0.2707727D+02 0.1248300D+02 0.5886462D+01 0.2751913D+01
EXPONENTS  0.5394870D+03 0.1621339D+03 0.6266180D+02 0.2707727D+02 0.1248300D+02
EXPONENTS  0.5886462D+01 0.2751913D+01 0.5394870D+03 0.1621339D+03 0.6266180D+02
EXPONENTS  0.2707727D+02 0.1248300D+02 0.5886462D+01 0.2751913D+01 0.5394870D+03
EXPONENTS  0.1621339D+03 0.6266180D+02 0.2707727D+02 0.1248300D+02 0.5886462D+01
EXPONENTS  0.2751913D+01 0.5394870D+03 0.1621339D+03 0.6266180D+02 0.2707727D+02
EXPONENTS  0.1248300D+02 0.5886462D+01 0.2751913D+01 0.1250077D+01 0.1250077D+01
EXPONENTS  0.1250077D+01 0.1250077D+01 0.1250077D+01 0.1250077D+01 0.5117284D+00
EXPONENTS  0.5117284D+00 0.5117284D+00 0.5117284D+00 0.5117284D+00 0.5117284D+00
EXPONENTS  0.2000000D+00 0.2000000D+00 0.2000000D+00 0.2000000D+00 0.2000000D+00
EXPONENTS  0.2000000D+00 0.6582295D-01 0.6582295D-01 0.6582295D-01 0.6582295D-01
EXPONENTS  0.6582295D-01 0.6582295D-01 0.2840000D+00 0.2840000D+00 0.2840000D+00
EXPONENTS  0.2840000D+00 0.2840000D+00 0.2840000D+00 0.2840000D+00 0.2840000D+00
EXPONENTS  0.2840000D+00 0.2840000D+00 0.7097000D+00 0.7097000D+00 0.7097000D+00
EXPONENTS  0.7097000D+00 0.7097000D+00 0.7097000D+00 0.7097000D+00 0.7097000D+00
EXPONENTS  0.7097000D+00 0.7097000D+00 0.5730000D+00 0.5730000D+00 0.5730000D+00
EXPONENTS  0.5730000D+00 0.5730000D+00 0.5730000D+00 0.5730000D+00 0.5730000D+00
EXPONENTS  0.5730000D+00 0.5730000D+00 0.5730000D+00 0.5730000D+00 0.5730000D+00
EXPONENTS  0.5730000D+00 0.5730000D+00
MO    1     MO 0.0        OCC NO =    2.0000000  ORB. ENERGY = -452.097803
 -0.40601288D-07 -0.75982718D-07 -0.13160604D-06 -0.21517484D-06 -0.33533495D-06
 -0.49608316D-06 -0.68335348D-06 -0.83308845D-06 -0.81949479D-06 -0.53610667D-06
  0.37205579D-06  0.13508953D-05  0.23648359D-05 -0.31951308D-05  0.35420400D-05
 -0.30902608D-05  0.24383062D-05 -0.22899940D-04  0.38019254D-04  0.12424082D-04
  0.51342911D-06 -0.64976969D-15 -0.93368342D-15 -0.12371807D-14 -0.14447801D-14
 -0.14378653D-14 -0.11144000D-14 -0.61962101D-15 -0.21970653D-15  0.11753426D-15
  0.16889029D-15  0.22378870D-15  0.26134055D-15  0.26008975D-15  0.20157940D-15
  0.11208079D-15  0.39741842D-16 -0.33824902D-05 -0.48604530D-05 -0.64403612D-05
 -0.75210567D-05 -0.74850602D-05 -0.58012050D-05 -0.32255460D-05 -0.11437209D-05
 -0.38046116D-15  0.16300743D-15  0.52898982D-15 -0.22664408D-15 -0.51619646D-04
  0.22116280D-04 -0.10979677D-15  0.13017270D-15 -0.25281948D-04  0.26607762D-16
 -0.48674988D-17  0.16365279D-04 -0.39961286D-17  0.21382525D-18  0.21931212D-04
 -0.87800803D-18  0.87860017D-18  0.79229147D-06 -0.71753496D-06 -0.71753496D-06
  0.14350699D-05  0.33038143D-15 -0.56714096D-15 -0.17006781D-15  0.13984550D-05
  0.13984550D-05 -0.27969100D-05  0.56223582D-16  0.26976513D-16 -0.20456763D-16
 -0.54181219D-05 -0.54181219D-05  0.10836244D-04 -0.10916680D-16  0.12620956D-17
 -0.17525474D-17 -0.93141983D-06 -0.93141983D-06  0.18628397D-05  0.96606640D-18
  0.51830586D-18 -0.21855460D-17  0.20849105D-07  0.20849105D-07 -0.41698210D-07
 -0.41422975D-19 -0.29069940D-18  0.51784600D-18 -0.44598154D-18  0.83545923D-18
  0.10467558D-05 -0.44616378D-18  0.83595386D-18 -0.15701337D-05  0.17841084D-17
 -0.33423315D-17 -0.15701337D-05  0.35104365D-18 -0.25031719D-17 -0.16971899D-17
  0.18489735D-05 -0.25025986D-17 -0.16988999D-17 -0.27734603D-05  0.10012114D-16
  0.67904697D-17 -0.27734603D-05 -0.72444670D-18  0.22637168D-08  0.22637168D-08
  0.60365780D-08  0.17452556D-18 -0.13119266D-17  0.17442398D-18  0.39356678D-17
  0.17491696D-17 -0.52473996D-17  0.45274331D-08 -0.18109734D-07 -0.18109734D-07
  0.39351954D-17 -0.13117292D-17 -0.10468486D-17  0.77435792D+00  0.14501013D+01
  0.25127815D+01  0.41177844D+01  0.64483102D+01  0.96813494D+01  0.13802948D+02
  0.18222321D+02  0.20987046D+02  0.18842247D+02  0.10520982D+02 -0.62213756D-02
 -0.25408337D-01 -0.57861191D-01 -0.66054385D-01  0.26264242D+01  0.63540842D-01
  0.57814217D-02 -0.40495200D-02  0.16086502D-02 -0.44746612D-03  0.12645556D-03
 -0.63508955D-04 -0.19507601D-04 -0.32453355D-05 -0.56027342D-16 -0.82346968D-16
 -0.11615089D-15 -0.15241126D-15 -0.18126409D-15 -0.18622473D-15 -0.15191616D-15
 -0.87243042D-16 -0.27833425D-16 -0.33675137D-17 -0.13323524D-16 -0.19582436D-16
 -0.27621141D-16 -0.36244001D-16 -0.43105320D-16 -0.44284981D-16 -0.36126267D-16
 -0.20746741D-16 -0.66188988D-17 -0.80080812D-18 -0.76127584D-04 -0.11188958D-03
 -0.15782091D-03 -0.20708997D-03 -0.24629399D-03 -0.25303430D-03 -0.20641726D-03
 -0.11854216D-03 -0.37818881D-04 -0.45756353D-05 -0.71527047D-17 -0.16251611D-16
 -0.17453542D-16  0.21654306D-16  0.20031895D-16 -0.75641783D-17 -0.17186518D-16
 -0.18457591D-16  0.22900013D-16  0.21184270D-16 -0.10106924D-04 -0.22963873D-04
 -0.24662226D-04  0.30597995D-04  0.28305494D-04  0.23976568D-16  0.46909954D-17
 -0.36998894D-04 -0.92105657D-17  0.71362722D-17  0.30020365D-04  0.86800012D-17
 -0.16883302D-16 -0.30165007D-04 -0.10812595D-16  0.12348478D-16  0.37422944D-04
  0.82201519D-18 -0.18423790D-17  0.38412009D-05  0.66380563D-18 -0.11599345D-17
  0.10183389D-06  0.30528092D-04  0.33710811D-04  0.31972402D-04  0.24172695D-04
  0.14042672D-04  0.56586747D-05  0.15393150D-05  0.30528092D-04  0.33710811D-04
  0.31972402D-04  0.24172695D-04  0.14042672D-04  0.56586747D-05  0.15393150D-05
 -0.61056184D-04 -0.67421622D-04 -0.63944804D-04 -0.48345391D-04 -0.28085345D-04
 -0.11317349D-04 -0.30786301D-05 -0.30770312D-16 -0.33978284D-16 -0.32226082D-16
 -0.24364490D-16 -0.14154092D-16 -0.57035725D-17 -0.15515285D-17 -0.63620421D-15
 -0.70253195D-15 -0.66630357D-15 -0.50375800D-15 -0.29264872D-15 -0.11792655D-15
 -0.32079264D-16  0.45469600D-15  0.50210053D-15  0.47620805D-15  0.36003652D-15
  0.20915644D-15  0.84282265D-16  0.22927093D-16 -0.42720775D-05 -0.42720775D-05
  0.85441549D-05  0.17534725D-17  0.25389723D-16 -0.76023578D-17  0.74705114D-06
  0.74705114D-06 -0.14941023D-05 -0.33023590D-18 -0.47130721D-17  0.33880152D-17
  0.44864658D-05  0.44864658D-05 -0.89729317D-05  0.12453974D-18  0.49249469D-17
 -0.11362641D-16  0.66688803D-07  0.66688803D-07 -0.13337761D-06 -0.81801804D-20
 -0.37000127D-18  0.73073660D-18  0.66918136D-18 -0.11947910D-17  0.27069458D-05
  0.66937499D-18 -0.11943758D-17 -0.40604187D-05 -0.26769191D-17  0.47787488D-17
 -0.40604187D-05 -0.99820287D-18  0.25218339D-17  0.29758579D-17 -0.12439919D-05
  0.25209706D-17  0.29746387D-17  0.18659878D-05 -0.10086472D-16 -0.11902213D-16
  0.18659878D-05  0.69020119D-18 -0.57233489D-06 -0.57233489D-06 -0.15262264D-05
 -0.25494567D-18 -0.97850301D-17 -0.25502976D-18  0.42683635D-17  0.13046493D-16
 -0.56908885D-17 -0.11446699D-05  0.45786793D-05  0.45786793D-05  0.42675750D-17
 -0.97843889D-17  0.15299263D-17
MO    2     MO 0.0        OCC NO =    2.0000000  ORB. ENERGY =  -65.447772
 -0.26754199D+00 -0.50068775D+00 -0.86721736D+00 -0.14178936D+01 -0.22096880D+01
 -0.32689375D+01 -0.45029544D+01 -0.54896322D+01 -0.54000569D+01 -0.35326722D+01
  0.69846113D-02  0.25360386D-01  0.44395115D-01 -0.11217508D+01 -0.58411997D-01
  0.48289266D-02 -0.83700666D-03  0.13177620D-03 -0.27758388D-04  0.78714210D-05
 -0.25470112D-06  0.26959877D-16  0.38739865D-16  0.51332401D-16  0.59946001D-16
  0.59659094D-16  0.46238056D-16  0.25708965D-16  0.91159390D-17 -0.84677569D-17
 -0.12167702D-16 -0.16122859D-16 -0.18828282D-16 -0.18738168D-16 -0.14522790D-16
 -0.80748613D-17 -0.28632013D-17 -0.37348083D-03 -0.53667148D-03 -0.71111851D-03
 -0.83044453D-03 -0.82646994D-03 -0.64054549D-03 -0.35615168D-03 -0.12628502D-03
 -0.27822698D-17  0.11920550D-17 -0.79810607D-17  0.34194612D-17 -0.10456074D-02
  0.44798733D-03  0.50882433D-18 -0.99358068D-18 -0.16384756D-03  0.23867059D-18
  0.18262335D-18  0.58925372D-04 -0.20268260D-19 -0.72142312D-19 -0.28864040D-05
  0.24184634D-19  0.24239677D-19  0.95403252D-06 -0.13500257D-05 -0.13500257D-05
  0.27000514D-05 -0.53595128D-18 -0.89258021D-19  0.45092087D-17 -0.18943305D-05
 -0.18943305D-05  0.37886610D-05  0.63733930D-19 -0.78451297D-19 -0.73451832D-19
 -0.43941334D-05 -0.43941334D-05  0.87882669D-05 -0.14049039D-19  0.54140539D-19
  0.23557406D-19  0.45318943D-06  0.45318943D-06 -0.90637886D-06  0.14117638D-20
  0.63059472D-20 -0.51227282D-20 -0.47929304D-07 -0.47929304D-07  0.95858607D-07
 -0.67089494D-22  0.12038821D-20  0.17935983D-20 -0.33958004D-20 -0.24968957D-20
 -0.20467656D-06 -0.34114106D-20 -0.26050408D-20  0.30701484D-06  0.13598812D-19
  0.10095728D-19  0.30701484D-06  0.15771643D-20 -0.32352741D-20  0.31307698D-20
  0.68350904D-05 -0.40787078D-20  0.39936704D-20 -0.10252636D-04  0.13784530D-19
 -0.13385980D-19 -0.10252636D-04 -0.33693669D-20  0.25114718D-06  0.25114718D-06
  0.66972487D-06  0.16527963D-21  0.27225653D-20  0.31723196D-22 -0.24088962D-20
 -0.36472499D-20  0.32143515D-20  0.50229154D-06 -0.20091746D-05 -0.20091746D-05
 -0.24163659D-20  0.27740537D-20 -0.59100848D-21  0.12468429D-07  0.23349003D-07
  0.40459894D-07  0.66303066D-07  0.10382834D-06  0.15588556D-06  0.22225005D-06
  0.29340918D-06  0.33792578D-06  0.30339100D-06  0.16940503D-06 -0.94194721D-07
 -0.38469486D-06 -0.87604721D-06 -0.10000962D-05  0.33589349D-05 -0.67052148D-05
  0.10426346D-04 -0.13155985D-04  0.15467738D-04 -0.16451388D-04  0.27093000D-04
 -0.12018958D-04 -0.85591323D-05 -0.81153392D-06 -0.73591114D-14 -0.10816157D-13
 -0.15256253D-13 -0.20019001D-13 -0.23808780D-13 -0.24460353D-13 -0.19953972D-13
 -0.11459249D-13 -0.36558806D-14 -0.44231812D-15 -0.23512131D-14 -0.34557283D-14
 -0.48743252D-14 -0.63960082D-14 -0.76068308D-14 -0.78150064D-14 -0.63752315D-14
 -0.36611943D-14 -0.11680424D-14 -0.14131926D-15  0.73945557D-05  0.10868252D-04
  0.15329733D-04  0.20115420D-04  0.23923452D-04  0.24578164D-04  0.20050077D-04
  0.11514441D-04  0.36734887D-05  0.44444850D-06  0.70004435D-17  0.15905660D-16
  0.17082004D-16 -0.21193346D-16 -0.19605472D-16  0.14315042D-18  0.32525109D-18
  0.34930588D-18 -0.43337773D-18 -0.40090766D-18  0.69347516D-05  0.15756402D-04
  0.16921707D-04 -0.20994468D-04 -0.19421494D-04 -0.29259925D-17  0.19707701D-17
  0.43361687D-04 -0.57078212D-18 -0.56166730D-19 -0.31388765D-04  0.15480939D-18
  0.43750449D-20 -0.39182777D-05 -0.60369700D-19  0.22102818D-20  0.17338062D-04
 -0.70433787D-21 -0.60193094D-20  0.40976490D-06 -0.20217467D-20 -0.24061938D-20
 -0.45424475D-08  0.77901250D-04  0.86022877D-04  0.81586823D-04  0.61683618D-04
  0.35833937D-04  0.14439744D-04  0.39280072D-05  0.77901250D-04  0.86022877D-04
  0.81586823D-04  0.61683618D-04  0.35833937D-04  0.14439744D-04  0.39280072D-05
 -0.15580250D-03 -0.17204575D-03 -0.16317365D-03 -0.12336724D-03 -0.71667873D-04
 -0.28879488D-04 -0.78560144D-05 -0.64300365D-20 -0.71004027D-20 -0.67342470D-20
 -0.50914192D-20 -0.29577641D-20 -0.11918689D-20 -0.32422111D-21  0.54841701D-17
  0.60559246D-17  0.57436308D-17  0.43424651D-17  0.25226733D-17  0.10165435D-17
  0.27652778D-18  0.88007865D-17  0.97183162D-17  0.92171591D-17  0.69686219D-17
  0.40482897D-17  0.16313102D-17  0.44376121D-18 -0.14110187D-04 -0.14110187D-04
  0.28220374D-04  0.10933995D-19 -0.19287564D-18 -0.21341601D-18  0.50887249D-05
  0.50887249D-05 -0.10177450D-04 -0.29255396D-20  0.37035108D-19  0.21440450D-19
  0.32328302D-05  0.32328302D-05 -0.64656605D-05 -0.84460795D-21  0.27539698D-19
 -0.27191851D-19 -0.53647076D-07 -0.53647076D-07  0.10729415D-06  0.62404110D-22
  0.92025586D-21  0.41558884D-20  0.10095995D-19  0.10807677D-20  0.36218456D-05
  0.10149840D-19  0.10672562D-20 -0.54327684D-05 -0.40437824D-19 -0.43095593D-20
 -0.54327684D-05 -0.10063733D-20 -0.14153426D-19  0.90730128D-20  0.23856879D-05
 -0.14196508D-19  0.90443207D-20 -0.35785319D-05  0.56656785D-19 -0.36263359D-19
 -0.35785319D-05 -0.46414823D-20 -0.13383427D-05 -0.13383427D-05 -0.35689137D-05
 -0.46957767D-22 -0.43738334D-19 -0.50763068D-22 -0.53320319D-20  0.58295698D-19
  0.71301472D-20 -0.26766852D-05  0.10706741D-04  0.10706741D-04 -0.53943460D-20
 -0.43672092D-19  0.29316250D-21
MO    3     MO 0.0        OCC NO =    2.0000000  ORB. ENERGY =  -57.394636
 -0.13111262D-06 -0.24536890D-06 -0.42499176D-06 -0.69485818D-06 -0.10828879D-05
 -0.16019877D-05 -0.22067345D-05 -0.26902695D-05 -0.26463719D-05 -0.17312345D-05
  0.14794567D-05  0.53717511D-05  0.94036228D-05 -0.17346717D-04  0.23262155D-04
 -0.22661018D-04  0.19450515D-04 -0.18428730D-03  0.30538289D-03  0.98831259D-04
  0.41140383D-05  0.72526303D-16  0.10421632D-15  0.13809222D-15  0.16126416D-15
  0.16049233D-15  0.12438763D-15  0.69161153D-16  0.24523308D-16 -0.49223126D-15
 -0.70730933D-15 -0.93722283D-15 -0.10944893D-14 -0.10892509D-14 -0.84421070D-15
 -0.46939221D-15 -0.16643808D-15 -0.22303370D-04 -0.32048719D-04 -0.42466274D-04
 -0.49592134D-04 -0.49354781D-04 -0.38251824D-04 -0.21268515D-04 -0.75414349D-05
 -0.19925639D-14  0.85370794D-15 -0.20685833D-14  0.88627821D-15 -0.38181452D-03
  0.16358727D-03 -0.59561440D-15 -0.31309200D-15 -0.19583149D-03 -0.23093203D-16
  0.30008044D-16  0.12950098D-03  0.11929719D-17  0.34901738D-16  0.17624831D-03
 -0.23041401D-17 -0.86017833D-17  0.60197907D-05 -0.54683320D-05 -0.54683320D-05
  0.10936664D-04  0.27067042D-15  0.90731172D-16  0.37400977D-15  0.11088385D-04
  0.11088385D-04 -0.22176770D-04 -0.64758188D-16  0.67847494D-16 -0.52065205D-16
 -0.43410724D-04 -0.43410724D-04  0.86821448D-04  0.18099923D-16 -0.65809221D-17
  0.15677755D-16 -0.75032937D-05 -0.75032937D-05  0.15006587D-04 -0.18263691D-17
 -0.13143816D-16  0.91378388D-17  0.18376656D-06  0.18376656D-06 -0.36753312D-06
  0.93488367D-19  0.14104586D-18 -0.15917074D-17  0.28643118D-17 -0.15862874D-17
  0.84511722D-05  0.28629862D-17 -0.15827189D-17 -0.12676758D-04 -0.11455922D-16
  0.63415810D-17 -0.12676758D-04  0.35175883D-18  0.36249947D-17  0.22838926D-17
  0.14562457D-04  0.36274764D-17  0.22738570D-17 -0.21843686D-04 -0.14502461D-16
 -0.91255348D-17 -0.21843686D-04  0.79216174D-18 -0.15792677D-07 -0.15792677D-07
 -0.42113822D-07 -0.11293706D-18  0.16358283D-16 -0.11384049D-18 -0.29489769D-18
 -0.21811563D-16  0.39469687D-18 -0.31585402D-07  0.12634147D-06  0.12634147D-06
 -0.29939755D-18  0.16359840D-16  0.68033265D-18  0.24424353D+00  0.45738262D+00
  0.79256711D+00  0.12988079D+01  0.20338889D+01  0.30536356D+01  0.43536466D+01
  0.57475796D+01  0.66196135D+01  0.59431132D+01  0.33184678D+01  0.31177019D+00
  0.12732814D+01  0.28995829D+01  0.33101663D+01  0.48129336D+00 -0.42836192D+01
 -0.30531164D+01 -0.50318563D+00  0.12270531D-01 -0.41685247D-02  0.10744155D-02
 -0.53382976D-03 -0.14967727D-03 -0.26539729D-04  0.59137247D-14  0.86917796D-14
  0.12259806D-13  0.16087114D-13  0.19132550D-13  0.19656150D-13  0.16034856D-13
  0.92085635D-14  0.29378372D-14  0.35544340D-15 -0.23211313D-13 -0.34115151D-13
 -0.48119622D-13 -0.63141766D-13 -0.75095076D-13 -0.77150199D-13 -0.62936657D-13
 -0.36143523D-13 -0.11530983D-13 -0.13951119D-14 -0.30316405D-03 -0.44557960D-03
 -0.62849266D-03 -0.82469758D-03 -0.98082034D-03 -0.10076624D-02 -0.82201865D-03
 -0.47207226D-03 -0.15060671D-03 -0.18221623D-04  0.10665935D-16  0.24233997D-16
  0.26026286D-16 -0.32290361D-16 -0.29871062D-16 -0.17945295D-16 -0.40773382D-16
 -0.43788884D-16  0.54328108D-16  0.50257669D-16  0.45726103D-04  0.10389397D-03
  0.11157772D-03 -0.13843253D-03 -0.12806072D-03  0.20261227D-17  0.44007310D-16
 -0.72716483D-04  0.11607015D-16 -0.88746482D-17  0.17101100D-03 -0.28479435D-16
 -0.51763711D-17 -0.22786950D-03  0.34781398D-16 -0.23250809D-16  0.29818802D-03
  0.55431665D-17 -0.57130735D-18  0.30753210D-04  0.54362983D-18  0.16846365D-17
  0.84683037D-06 -0.29945244D-03 -0.33067198D-03 -0.31361978D-03 -0.23711185D-03
 -0.13774567D-03 -0.55506381D-04 -0.15099261D-04 -0.29945244D-03 -0.33067198D-03
 -0.31361978D-03 -0.23711185D-03 -0.13774567D-03 -0.55506381D-04 -0.15099261D-04
  0.59890488D-03  0.66134395D-03  0.62723957D-03  0.47422371D-03  0.27549134D-03
  0.11101276D-03  0.30198523D-04 -0.31980097D-16 -0.35314195D-16 -0.33493102D-16
 -0.25322419D-16 -0.14710583D-16 -0.59278177D-17 -0.16125293D-17 -0.24414172D-15
 -0.26959482D-15 -0.25569227D-15 -0.19331583D-15 -0.11230319D-15 -0.45254010D-16
 -0.12310334D-16  0.46753461D-15  0.51627762D-15  0.48965406D-15  0.37020236D-15
  0.21506209D-15  0.86662024D-16  0.23574452D-16 -0.22728130D-04 -0.22728130D-04
  0.45456260D-04  0.60204195D-17  0.13692312D-16  0.17329409D-16  0.43034816D-05
  0.43034816D-05 -0.86069631D-05 -0.28262329D-17 -0.28921017D-17 -0.27176417D-16
  0.36081261D-04  0.36081261D-04 -0.72162522D-04  0.22817727D-18 -0.17704995D-16
  0.25765505D-16  0.53170298D-06  0.53170298D-06 -0.10634060D-05 -0.46809302D-19
 -0.14888876D-17 -0.25114779D-17 -0.40334647D-17  0.16799440D-17  0.21685913D-04
 -0.40319366D-17  0.16837433D-17 -0.32528870D-04  0.16132331D-16 -0.67235753D-17
 -0.32528870D-04  0.15456480D-17 -0.54949824D-17 -0.25883742D-17 -0.10158529D-04
 -0.55018430D-17 -0.26088275D-17  0.15237793D-04  0.21986790D-16  0.10373950D-16
  0.15237793D-04 -0.20902840D-17 -0.45478263D-05 -0.45478263D-05 -0.12127538D-04
 -0.10766488D-18  0.17819945D-16 -0.10810444D-18 -0.58395658D-17 -0.23761593D-16
  0.77883804D-17 -0.90956555D-05  0.36382613D-04  0.36382613D-04 -0.58464438D-17
  0.17824947D-16  0.64730796D-18
MO    4     MO 0.0        OCC NO =    2.0000000  ORB. ENERGY =  -51.543145
  0.63314898D-16  0.11848979D-15  0.20523051D-15  0.33555027D-15  0.52293164D-15
  0.77360734D-15  0.10656424D-14  0.12991438D-14  0.12779454D-14  0.83602123D-15
 -0.15714201D-16 -0.57056606D-16 -0.99881546D-16  0.38758600D-15 -0.14748954D-15
  0.18318791D-15 -0.72190861D-16  0.10942417D-15 -0.19363755D-15 -0.85680676D-16
  0.15636819D-16  0.49970530D-06  0.71804912D-06  0.95145363D-06  0.11111080D-05
  0.11057901D-05  0.85702920D-06  0.47651946D-06  0.16896528D-06  0.58004326D-06
  0.83349036D-06  0.11044195D-05  0.12897416D-05  0.12835687D-05  0.99481436D-06
  0.55312982D-06  0.19612994D-06 -0.35285576D-16 -0.50703438D-16 -0.67184777D-16
 -0.78458413D-16 -0.78082904D-16 -0.60517207D-16 -0.33648360D-16 -0.11931106D-16
  0.66010663D-05 -0.28282068D-05  0.76623242D-05 -0.32828995D-05 -0.40981774D-15
  0.17558517D-15  0.21461269D-05  0.24911612D-05 -0.47621145D-16 -0.14313075D-05
 -0.16614197D-05 -0.46952202D-16  0.29637263D-05  0.34402066D-05 -0.17634339D-15
 -0.11888192D-05 -0.13799464D-05 -0.10173241D-16  0.10859688D-14  0.20173275D-15
 -0.12877016D-14  0.58644982D-15  0.64879761D-05  0.75310524D-05 -0.13052919D-15
  0.22211849D-15 -0.91589304D-16 -0.86410758D-17 -0.28231291D-05 -0.32770055D-05
  0.56941496D-16 -0.40846528D-16 -0.16094967D-16  0.20642163D-18  0.34776320D-05
  0.40367332D-05  0.95854350D-17  0.13897433D-16 -0.23482868D-16  0.87362660D-18
  0.84606925D-06  0.98209237D-06  0.58842066D-18  0.35217541D-18 -0.94059607D-18
 -0.34098076D-18 -0.23082850D-06 -0.26793895D-06 -0.34390318D-06 -0.39919273D-06
 -0.80752505D-17 -0.34390310D-06 -0.39919263D-06  0.10316192D-16  0.13756126D-05
  0.15967708D-05  0.13909559D-16  0.43194187D-17  0.35574378D-06  0.41293695D-06
  0.86302325D-16  0.35574348D-06  0.41293660D-06 -0.12891690D-15 -0.14229748D-05
 -0.16517474D-05 -0.12999007D-15 -0.97260888D-17 -0.38426385D-18 -0.83136335D-18
  0.21109707D-17 -0.52063971D-18  0.24437732D-06 -0.32629711D-18  0.28366602D-06
 -0.32583643D-06 -0.37822137D-06  0.99797936D-17 -0.76742105D-17 -0.49916135D-17
  0.28366605D-06  0.24437734D-06  0.25408105D-17 -0.18988241D-15 -0.35558328D-15
 -0.61616599D-15 -0.10097331D-14 -0.15812077D-14 -0.23739900D-14 -0.33846585D-14
 -0.44683448D-14 -0.51462907D-14 -0.46203586D-14 -0.25798787D-14 -0.32477635D-15
 -0.13263991D-14 -0.30205452D-14 -0.34482570D-14  0.21699401D-14  0.36362942D-14
  0.78415966D-15  0.11944127D-14 -0.14625653D-14  0.12062150D-14 -0.54159886D-15
  0.73992708D-16  0.30463727D-15 -0.39538073D-16 -0.18013975D+02 -0.26476291D+02
 -0.37344965D+02 -0.49003441D+02 -0.58280238D+02 -0.59875189D+02 -0.48844259D+02
 -0.28050482D+02 -0.89490344D+01 -0.10827268D+01 -0.20910094D+02 -0.30732902D+02
 -0.43348941D+02 -0.56881757D+02 -0.67649991D+02 -0.69501364D+02 -0.56696983D+02
 -0.32560177D+02 -0.10387777D+02 -0.12567976D+01 -0.23306016D-09 -0.34254342D-09
 -0.48315952D-09 -0.63399387D-09 -0.75401467D-09 -0.77464974D-09 -0.63193441D-09
 -0.36290990D-09 -0.11578030D-09 -0.14008040D-10  0.99033201D-02  0.22501266D-01
  0.24165406D-01 -0.29981599D-01 -0.27735280D-01  0.11495484D-01  0.26118810D-01
  0.28050494D-01 -0.34801761D-01 -0.32194299D-01  0.12809407D-12  0.29104166D-12
  0.31256640D-12 -0.38779570D-12 -0.35874079D-12  0.13318266D-02  0.15459452D-02
  0.18980837D-13 -0.61599669D-03 -0.71503089D-03 -0.97400079D-14  0.13808364D-03
  0.16028344D-03  0.26144541D-14 -0.26439618D-04 -0.30690333D-04 -0.66094261D-15
  0.37367364D-05  0.43374941D-05  0.35644739D-16  0.97192635D-08  0.11281836D-07
  0.11452551D-17  0.37167736D-14  0.41042674D-14  0.38926173D-14  0.29430086D-14
  0.17096854D-14  0.68893964D-15  0.18741052D-15 -0.42136653D-14 -0.46529627D-14
 -0.44130173D-14 -0.33364563D-14 -0.19382515D-14 -0.78104327D-15 -0.21246524D-15
  0.49689162D-15  0.54869527D-15  0.52039998D-15  0.39344777D-15  0.22856607D-15
  0.92103628D-16  0.25054718D-16  0.81495646D-15  0.89992008D-15  0.85351273D-15
  0.64529726D-15  0.37487329D-15  0.15106000D-15  0.41092471D-16 -0.69994096D-03
 -0.77291359D-03 -0.73305575D-03 -0.55422591D-03 -0.32196711D-03 -0.12974077D-03
 -0.35293055D-04 -0.81247094D-03 -0.89717543D-03 -0.85090962D-03 -0.64332918D-03
 -0.37372997D-03 -0.15059928D-03 -0.40967144D-04  0.16024259D-15  0.14768183D-15
 -0.30792442D-15 -0.55277743D-17  0.25584453D-04  0.29697682D-04 -0.11130610D-16
 -0.15201515D-16  0.26332125D-16 -0.24938663D-17 -0.91310083D-05 -0.10599007D-04
 -0.26794859D-16 -0.34828865D-16  0.61623723D-16 -0.15793733D-17  0.47235773D-05
  0.54829900D-05  0.11836551D-17  0.17866117D-17 -0.29702669D-17 -0.19724944D-18
 -0.36895999D-06 -0.42827793D-06  0.56431383D-06  0.65503895D-06 -0.16163620D-16
  0.56431157D-06  0.65503632D-06  0.28084919D-16 -0.22572531D-05 -0.26201532D-05
  0.20405943D-16 -0.21715199D-17 -0.11826154D-05 -0.13727453D-05  0.67827588D-16
 -0.11825821D-05 -0.13727067D-05 -0.10171851D-15  0.47304283D-05  0.54909425D-05
 -0.10176426D-15 -0.20576447D-17 -0.29865031D-18  0.95351649D-18 -0.94907223D-17
  0.55298779D-18 -0.96984609D-06  0.66922637D-18 -0.11257689D-05  0.12931303D-05
  0.15010277D-05 -0.30436765D-16  0.32228667D-16  0.24715667D-16 -0.11257765D-05
 -0.96985264D-06 -0.36666425D-17
MO    5     MO 0.0        OCC NO =    2.0000000  ORB. ENERGY =  -51.543145
 -0.29046058D-16 -0.54357843D-16 -0.94150626D-16 -0.15393553D-15 -0.23989777D-15
 -0.35489662D-15 -0.48886933D-15 -0.59598935D-15 -0.58626448D-15 -0.38352934D-15
 -0.15895277D-16 -0.57714074D-16 -0.10103249D-15  0.10581730D-15 -0.31950490D-15
  0.24100759D-15 -0.12968526D-15  0.26869344D-15 -0.61764461D-15 -0.40433436D-15
  0.33934429D-16 -0.58004326D-06 -0.83349036D-06 -0.11044195D-05 -0.12897416D-05
 -0.12835687D-05 -0.99481436D-06 -0.55312982D-06 -0.19612994D-06  0.49970530D-06
  0.71804912D-06  0.95145362D-06  0.11111080D-05  0.11057901D-05  0.85702920D-06
  0.47651946D-06  0.16896528D-06 -0.29494817D-15 -0.42382435D-15 -0.56159001D-15
 -0.65582507D-15 -0.65268623D-15 -0.50585654D-15 -0.28126286D-15 -0.99730779D-16
 -0.76623242D-05  0.32828995D-05  0.66010663D-05 -0.28282068D-05 -0.26561208D-15
  0.11380069D-15 -0.24911612D-05  0.21461269D-05  0.25588271D-15  0.16614197D-05
 -0.14313075D-05 -0.28808660D-15 -0.34402066D-05  0.29637263D-05 -0.51987355D-15
  0.13799464D-05 -0.11888192D-05 -0.33729552D-16  0.10304450D-14  0.76559162D-15