 Molden2AIM, Version 4.0.0 (06/02/2016)           Time: Sat Jun 30 03:04:47 2018
GAUSSIAN             64 MOL ORBITALS   1048 PRIMITIVES        8 NUCLEI
  Al   1    (CENTRE  1)   3.04408989  0.00000000  0.00000000  CHARGE = 13.0
  Al   2    (CENTRE  2)  -3.04408989  0.00000000  0.00000000  CHARGE = 13.0
  Cl   3    (CENTRE  3)   0.00000000  0.00000000  3.09483282  CHARGE = 17.0
  Cl   4    (CENTRE  4)   0.00000000  0.00000000 -3.09483282  CHARGE = 17.0
  Cl   5    (CENTRE  5)   4.93141229  3.49477068  0.00000000  CHARGE = 17.0
  Cl   6    (CENTRE  6)   4.93141229 -3.49477068  0.00000000  CHARGE = 17.0
  Cl   7    (CENTRE  7)  -4.93141229  3.49477068  0.00000000  CHARGE = 17.0
  Cl   8    (CENTRE  8)  -4.93141229 -3.49477068  0.00000000  CHARGE = 17.0
CENTRE ASSIGNMENTS    1  1  1  1  1  1  1  1  1  1  1  1  1  1  1  1  1  1  1  1
CENTRE ASSIGNMENTS    1  1  1  1  1  1  1  1  1  1  1  1  1  1  1  1  1  1  1  1
CENTRE ASSIGNMENTS    1  1  1  1  1  1  1  1  1  1  1  1  1  1  1  1  1  1  1  1
CENTRE ASSIGNMENTS    1  1  1  1  1  1  1  1  1  1  1  1  1  1  1  1  1  1  1  1
CENTRE ASSIGNMENTS    1  1  1  1  1  1  1  1  1  1  1  1  1  1  1  1  1  1  1  1
CENTRE ASSIGNMENTS    1  1  1  1  1  1  1  1  1  1  1  1  1  1  1  1  1  1  1  1
CENTRE ASSIGNMENTS    1  1  1  1  1  1  1  1  1  1  1  2  2  2  2  2  2  2  2  2
CENTRE ASSIGNMENTS    2  2  2  2  2  2  2  2  2  2  2  2  2  2  2  2  2  2  2  2
CENTRE ASSIGNMENTS    2  2  2  2  2  2  2  2  2  2  2  2  2  2  2  2  2  2  2  2
CENTRE ASSIGNMENTS    2  2  2  2  2  2  2  2  2  2  2  2  2  2  2  2  2  2  2  2
CENTRE ASSIGNMENTS    2  2  2  2  2  2  2  2  2  2  2  2  2  2  2  2  2  2  2  2
CENTRE ASSIGNMENTS    2  2  2  2  2  2  2  2  2  2  2  2  2  2  2  2  2  2  2  2
CENTRE ASSIGNMENTS    2  2  2  2  2  2  2  2  2  2  2  2  2  2  2  2  2  2  2  2
CENTRE ASSIGNMENTS    2  2  3  3  3  3  3  3  3  3  3  3  3  3  3  3  3  3  3  3
CENTRE ASSIGNMENTS    3  3  3  3  3  3  3  3  3  3  3  3  3  3  3  3  3  3  3  3
CENTRE ASSIGNMENTS    3  3  3  3  3  3  3  3  3  3  3  3  3  3  3  3  3  3  3  3
CENTRE ASSIGNMENTS    3  3  3  3  3  3  3  3  3  3  3  3  3  3  3  3  3  3  3  3
CENTRE ASSIGNMENTS    3  3  3  3  3  3  3  3  3  3  3  3  3  3  3  3  3  3  3  3
CENTRE ASSIGNMENTS    3  3  3  3  3  3  3  3  3  3  3  3  3  3  3  3  3  3  3  3
CENTRE ASSIGNMENTS    3  3  3  3  3  3  3  3  3  3  3  3  3  4  4  4  4  4  4  4
CENTRE ASSIGNMENTS    4  4  4  4  4  4  4  4  4  4  4  4  4  4  4  4  4  4  4  4
CENTRE ASSIGNMENTS    4  4  4  4  4  4  4  4  4  4  4  4  4  4  4  4  4  4  4  4
CENTRE ASSIGNMENTS    4  4  4  4  4  4  4  4  4  4  4  4  4  4  4  4  4  4  4  4
CENTRE ASSIGNMENTS    4  4  4  4  4  4  4  4  4  4  4  4  4  4  4  4  4  4  4  4
CENTRE ASSIGNMENTS    4  4  4  4  4  4  4  4  4  4  4  4  4  4  4  4  4  4  4  4
CENTRE ASSIGNMENTS    4  4  4  4  4  4  4  4  4  4  4  4  4  4  4  4  4  4  4  4
CENTRE ASSIGNMENTS    4  4  4  4  5  5  5  5  5  5  5  5  5  5  5  5  5  5  5  5
CENTRE ASSIGNMENTS    5  5  5  5  5  5  5  5  5  5  5  5  5  5  5  5  5  5  5  5
CENTRE ASSIGNMENTS    5  5  5  5  5  5  5  5  5  5  5  5  5  5  5  5  5  5  5  5
CENTRE ASSIGNMENTS    5  5  5  5  5  5  5  5  5  5  5  5  5  5  5  5  5  5  5  5
CENTRE ASSIGNMENTS    5  5  5  5  5  5  5  5  5  5  5  5  5  5  5  5  5  5  5  5
CENTRE ASSIGNMENTS    5  5  5  5  5  5  5  5  5  5  5  5  5  5  5  5  5  5  5  5
CENTRE ASSIGNMENTS    5  5  5  5  5  5  5  5  5  5  5  5  5  5  5  6  6  6  6  6
CENTRE ASSIGNMENTS    6  6  6  6  6  6  6  6  6  6  6  6  6  6  6  6  6  6  6  6
CENTRE ASSIGNMENTS    6  6  6  6  6  6  6  6  6  6  6  6  6  6  6  6  6  6  6  6
CENTRE ASSIGNMENTS    6  6  6  6  6  6  6  6  6  6  6  6  6  6  6  6  6  6  6  6
CENTRE ASSIGNMENTS    6  6  6  6  6  6  6  6  6  6  6  6  6  6  6  6  6  6  6  6
CENTRE ASSIGNMENTS    6  6  6  6  6  6  6  6  6  6  6  6  6  6  6  6  6  6  6  6
CENTRE ASSIGNMENTS    6  6  6  6  6  6  6  6  6  6  6  6  6  6  6  6  6  6  6  6
CENTRE ASSIGNMENTS    6  6  6  6  6  6  7  7  7  7  7  7  7  7  7  7  7  7  7  7
CENTRE ASSIGNMENTS    7  7  7  7  7  7  7  7  7  7  7  7  7  7  7  7  7  7  7  7
CENTRE ASSIGNMENTS    7  7  7  7  7  7  7  7  7  7  7  7  7  7  7  7  7  7  7  7
CENTRE ASSIGNMENTS    7  7  7  7  7  7  7  7  7  7  7  7  7  7  7  7  7  7  7  7
CENTRE ASSIGNMENTS    7  7  7  7  7  7  7  7  7  7  7  7  7  7  7  7  7  7  7  7
CENTRE ASSIGNMENTS    7  7  7  7  7  7  7  7  7  7  7  7  7  7  7  7  7  7  7  7
CENTRE ASSIGNMENTS    7  7  7  7  7  7  7  7  7  7  7  7  7  7  7  7  7  8  8  8
CENTRE ASSIGNMENTS    8  8  8  8  8  8  8  8  8  8  8  8  8  8  8  8  8  8  8  8
CENTRE ASSIGNMENTS    8  8  8  8  8  8  8  8  8  8  8  8  8  8  8  8  8  8  8  8
CENTRE ASSIGNMENTS    8  8  8  8  8  8  8  8  8  8  8  8  8  8  8  8  8  8  8  8
CENTRE ASSIGNMENTS    8  8  8  8  8  8  8  8  8  8  8  8  8  8  8  8  8  8  8  8
CENTRE ASSIGNMENTS    8  8  8  8  8  8  8  8  8  8  8  8  8  8  8  8  8  8  8  8
CENTRE ASSIGNMENTS    8  8  8  8  8  8  8  8  8  8  8  8  8  8  8  8  8  8  8  8
CENTRE ASSIGNMENTS    8  8  8  8  8  8  8  8
TYPE ASSIGNMENTS      1  1  1  1  1  1  1  1  1  1  1  1  1  1  1  1  1  1  1  1
TYPE ASSIGNMENTS      1  1  1  1  1  1  1  1  1  1  1  1  1  1  1  1  1  1  1  1
TYPE ASSIGNMENTS      1  1  2  2  2  2  2  2  2  3  3  3  3  3  3  3  4  4  4  4
TYPE ASSIGNMENTS      4  4  4  2  2  2  2  2  2  2  3  3  3  3  3  3  3  4  4  4
TYPE ASSIGNMENTS      4  4  4  4  2  3  4  2  3  4  2  3  4  5  6  7  8  9 10  5
TYPE ASSIGNMENTS      6  7  8  9 10  5  6  7  8  9 10 11 12 13 17 14 15 18 19 16
TYPE ASSIGNMENTS     20 11 12 13 17 14 15 18 19 16 20  1  1  1  1  1  1  1  1  1
TYPE ASSIGNMENTS      1  1  1  1  1  1  1  1  1  1  1  1  1  1  1  1  1  1  1  1
TYPE ASSIGNMENTS      1  1  1  1  1  1  1  1  1  1  1  1  1  2  2  2  2  2  2  2
TYPE ASSIGNMENTS      3  3  3  3  3  3  3  4  4  4  4  4  4  4  2  2  2  2  2  2
TYPE ASSIGNMENTS      2  3  3  3  3  3  3  3  4  4  4  4  4  4  4  2  3  4  2  3
TYPE ASSIGNMENTS      4  2  3  4  5  6  7  8  9 10  5  6  7  8  9 10  5  6  7  8
TYPE ASSIGNMENTS      9 10 11 12 13 17 14 15 18 19 16 20 11 12 13 17 14 15 18 19
TYPE ASSIGNMENTS     16 20  1  1  1  1  1  1  1  1  1  1  1  1  1  1  1  1  1  1
TYPE ASSIGNMENTS      1  1  1  1  1  1  1  1  1  1  1  1  1  1  1  1  1  1  1  1
TYPE ASSIGNMENTS      1  1  1  1  2  2  2  2  2  2  2  3  3  3  3  3  3  3  4  4
TYPE ASSIGNMENTS      4  4  4  4  4  2  2  2  2  2  2  2  3  3  3  3  3  3  3  4
TYPE ASSIGNMENTS      4  4  4  4  4  4  2  3  4  2  3  4  2  3  4  5  6  7  8  9
TYPE ASSIGNMENTS     10  5  6  7  8  9 10  5  6  7  8  9 10 11 12 13 17 14 15 18
TYPE ASSIGNMENTS     19 16 20 11 12 13 17 14 15 18 19 16 20  1  1  1  1  1  1  1
TYPE ASSIGNMENTS      1  1  1  1  1  1  1  1  1  1  1  1  1  1  1  1  1  1  1  1
TYPE ASSIGNMENTS      1  1  1  1  1  1  1  1  1  1  1  1  1  1  1  2  2  2  2  2
TYPE ASSIGNMENTS      2  2  3  3  3  3  3  3  3  4  4  4  4  4  4  4  2  2  2  2
TYPE ASSIGNMENTS      2  2  2  3  3  3  3  3  3  3  4  4  4  4  4  4  4  2  3  4
TYPE ASSIGNMENTS      2  3  4  2  3  4  5  6  7  8  9 10  5  6  7  8  9 10  5  6
TYPE ASSIGNMENTS      7  8  9 10 11 12 13 17 14 15 18 19 16 20 11 12 13 17 14 15
TYPE ASSIGNMENTS     18 19 16 20  1  1  1  1  1  1  1  1  1  1  1  1  1  1  1  1
TYPE ASSIGNMENTS      1  1  1  1  1  1  1  1  1  1  1  1  1  1  1  1  1  1  1  1
TYPE ASSIGNMENTS      1  1  1  1  1  1  2  2  2  2  2  2  2  3  3  3  3  3  3  3
TYPE ASSIGNMENTS      4  4  4  4  4  4  4  2  2  2  2  2  2  2  3  3  3  3  3  3
TYPE ASSIGNMENTS      3  4  4  4  4  4  4  4  2  3  4  2  3  4  2  3  4  5  6  7
TYPE ASSIGNMENTS      8  9 10  5  6  7  8  9 10  5  6  7  8  9 10 11 12 13 17 14
TYPE ASSIGNMENTS     15 18 19 16 20 11 12 13 17 14 15 18 19 16 20  1  1  1  1  1
TYPE ASSIGNMENTS      1  1  1  1  1  1  1  1  1  1  1  1  1  1  1  1  1  1  1  1
TYPE ASSIGNMENTS      1  1  1  1  1  1  1  1  1  1  1  1  1  1  1  1  1  2  2  2
TYPE ASSIGNMENTS      2  2  2  2  3  3  3  3  3  3  3  4  4  4  4  4  4  4  2  2
TYPE ASSIGNMENTS      2  2  2  2  2  3  3  3  3  3  3  3  4  4  4  4  4  4  4  2
TYPE ASSIGNMENTS      3  4  2  3  4  2  3  4  5  6  7  8  9 10  5  6  7  8  9 10
TYPE ASSIGNMENTS      5  6  7  8  9 10 11 12 13 17 14 15 18 19 16 20 11 12 13 17
TYPE ASSIGNMENTS     14 15 18 19 16 20  1  1  1  1  1  1  1  1  1  1  1  1  1  1
TYPE ASSIGNMENTS      1  1  1  1  1  1  1  1  1  1  1  1  1  1  1  1  1  1  1  1
TYPE ASSIGNMENTS      1  1  1  1  1  1  1  1  2  2  2  2  2  2  2  3  3  3  3  3
TYPE ASSIGNMENTS      3  3  4  4  4  4  4  4  4  2  2  2  2  2  2  2  3  3  3  3
TYPE ASSIGNMENTS      3  3  3  4  4  4  4  4  4  4  2  3  4  2  3  4  2  3  4  5
TYPE ASSIGNMENTS      6  7  8  9 10  5  6  7  8  9 10  5  6  7  8  9 10 11 12 13
TYPE ASSIGNMENTS     17 14 15 18 19 16 20 11 12 13 17 14 15 18 19 16 20  1  1  1
TYPE ASSIGNMENTS      1  1  1  1  1  1  1  1  1  1  1  1  1  1  1  1  1  1  1  1
TYPE ASSIGNMENTS      1  1  1  1  1  1  1  1  1  1  1  1  1  1  1  1  1  1  1  2
TYPE ASSIGNMENTS      2  2  2  2  2  2  3  3  3  3  3  3  3  4  4  4  4  4  4  4
TYPE ASSIGNMENTS      2  2  2  2  2  2  2  3  3  3  3  3  3  3  4  4  4  4  4  4
TYPE ASSIGNMENTS      4  2  3  4  2  3  4  2  3  4  5  6  7  8  9 10  5  6  7  8
TYPE ASSIGNMENTS      9 10  5  6  7  8  9 10 11 12 13 17 14 15 18 19 16 20 11 12
TYPE ASSIGNMENTS     13 17 14 15 18 19 16 20
EXPONENTS  0.2055000D+06 0.3078000D+05 0.7006000D+04 0.1985000D+04 0.6491000D+03
EXPONENTS  0.2350000D+03 0.9162000D+02 0.3767000D+02 0.1591000D+02 0.5850000D+01
EXPONENTS  0.2542000D+01 0.1057000D+01 0.1455000D+00 0.2055000D+06 0.3078000D+05
EXPONENTS  0.7006000D+04 0.1985000D+04 0.6491000D+03 0.2350000D+03 0.9162000D+02
EXPONENTS  0.3767000D+02 0.1591000D+02 0.5850000D+01 0.2542000D+01 0.1057000D+01
EXPONENTS  0.1455000D+00 0.2055000D+06 0.3078000D+05 0.7006000D+04 0.1985000D+04
EXPONENTS  0.6491000D+03 0.2350000D+03 0.9162000D+02 0.3767000D+02 0.1591000D+02
EXPONENTS  0.5850000D+01 0.2542000D+01 0.1057000D+01 0.1455000D+00 0.2931000D+00
EXPONENTS  0.5650000D-01 0.2210000D-01 0.4444000D+03 0.1051000D+03 0.3347000D+02
EXPONENTS  0.1233000D+02 0.4869000D+01 0.1961000D+01 0.1888000D+00 0.4444000D+03
EXPONENTS  0.1051000D+03 0.3347000D+02 0.1233000D+02 0.4869000D+01 0.1961000D+01
EXPONENTS  0.1888000D+00 0.4444000D+03 0.1051000D+03 0.3347000D+02 0.1233000D+02
EXPONENTS  0.4869000D+01 0.1961000D+01 0.1888000D+00 0.4444000D+03 0.1051000D+03
EXPONENTS  0.3347000D+02 0.1233000D+02 0.4869000D+01 0.1961000D+01 0.1888000D+00
EXPONENTS  0.4444000D+03 0.1051000D+03 0.3347000D+02 0.1233000D+02 0.4869000D+01
EXPONENTS  0.1961000D+01 0.1888000D+00 0.4444000D+03 0.1051000D+03 0.3347000D+02
EXPONENTS  0.1233000D+02 0.4869000D+01 0.1961000D+01 0.1888000D+00 0.7834000D+00
EXPONENTS  0.7834000D+00 0.7834000D+00 0.5557000D-01 0.5557000D-01 0.5557000D-01
EXPONENTS  0.1460000D-01 0.1460000D-01 0.1460000D-01 0.1090000D+00 0.1090000D+00
EXPONENTS  0.1090000D+00 0.1090000D+00 0.1090000D+00 0.1090000D+00 0.3330000D+00
EXPONENTS  0.3330000D+00 0.3330000D+00 0.3330000D+00 0.3330000D+00 0.3330000D+00
EXPONENTS  0.3560000D-01 0.3560000D-01 0.3560000D-01 0.3560000D-01 0.3560000D-01
EXPONENTS  0.3560000D-01 0.2440000D+00 0.2440000D+00 0.2440000D+00 0.2440000D+00
EXPONENTS  0.2440000D+00 0.2440000D+00 0.2440000D+00 0.2440000D+00 0.2440000D+00
EXPONENTS  0.2440000D+00 0.8580000D-01 0.8580000D-01 0.8580000D-01 0.8580000D-01
EXPONENTS  0.8580000D-01 0.8580000D-01 0.8580000D-01 0.8580000D-01 0.8580000D-01
EXPONENTS  0.8580000D-01 0.2055000D+06 0.3078000D+05 0.7006000D+04 0.1985000D+04
EXPONENTS  0.6491000D+03 0.2350000D+03 0.9162000D+02 0.3767000D+02 0.1591000D+02
EXPONENTS  0.5850000D+01 0.2542000D+01 0.1057000D+01 0.1455000D+00 0.2055000D+06
EXPONENTS  0.3078000D+05 0.7006000D+04 0.1985000D+04 0.6491000D+03 0.2350000D+03
EXPONENTS  0.9162000D+02 0.3767000D+02 0.1591000D+02 0.5850000D+01 0.2542000D+01
EXPONENTS  0.1057000D+01 0.1455000D+00 0.2055000D+06 0.3078000D+05 0.7006000D+04
EXPONENTS  0.1985000D+04 0.6491000D+03 0.2350000D+03 0.9162000D+02 0.3767000D+02
EXPONENTS  0.1591000D+02 0.5850000D+01 0.2542000D+01 0.1057000D+01 0.1455000D+00
EXPONENTS  0.2931000D+00 0.5650000D-01 0.2210000D-01 0.4444000D+03 0.1051000D+03
EXPONENTS  0.3347000D+02 0.1233000D+02 0.4869000D+01 0.1961000D+01 0.1888000D+00
EXPONENTS  0.4444000D+03 0.1051000D+03 0.3347000D+02 0.1233000D+02 0.4869000D+01
EXPONENTS  0.1961000D+01 0.1888000D+00 0.4444000D+03 0.1051000D+03 0.3347000D+02
EXPONENTS  0.1233000D+02 0.4869000D+01 0.1961000D+01 0.1888000D+00 0.4444000D+03
EXPONENTS  0.1051000D+03 0.3347000D+02 0.1233000D+02 0.4869000D+01 0.1961000D+01
EXPONENTS  0.1888000D+00 0.4444000D+03 0.1051000D+03 0.3347000D+02 0.1233000D+02
EXPONENTS  0.4869000D+01 0.1961000D+01 0.1888000D+00 0.4444000D+03 0.1051000D+03
EXPONENTS  0.3347000D+02 0.1233000D+02 0.4869000D+01 0.1961000D+01 0.1888000D+00
EXPONENTS  0.7834000D+00 0.7834000D+00 0.7834000D+00 0.5557000D-01 0.5557000D-01
EXPONENTS  0.5557000D-01 0.1460000D-01 0.1460000D-01 0.1460000D-01 0.1090000D+00
EXPONENTS  0.1090000D+00 0.1090000D+00 0.1090000D+00 0.1090000D+00 0.1090000D+00
EXPONENTS  0.3330000D+00 0.3330000D+00 0.3330000D+00 0.3330000D+00 0.3330000D+00
EXPONENTS  0.3330000D+00 0.3560000D-01 0.3560000D-01 0.3560000D-01 0.3560000D-01
EXPONENTS  0.3560000D-01 0.3560000D-01 0.2440000D+00 0.2440000D+00 0.2440000D+00
EXPONENTS  0.2440000D+00 0.2440000D+00 0.2440000D+00 0.2440000D+00 0.2440000D+00
EXPONENTS  0.2440000D+00 0.2440000D+00 0.8580000D-01 0.8580000D-01 0.8580000D-01
EXPONENTS  0.8580000D-01 0.8580000D-01 0.8580000D-01 0.8580000D-01 0.8580000D-01
EXPONENTS  0.8580000D-01 0.8580000D-01 0.4561000D+06 0.6833000D+05 0.1555000D+05
EXPONENTS  0.4405000D+04 0.1439000D+04 0.5204000D+03 0.2031000D+03 0.8396000D+02
EXPONENTS  0.3620000D+02 0.1583000D+02 0.6334000D+01 0.2694000D+01 0.4313000D+00
EXPONENTS  0.4561000D+06 0.6833000D+05 0.1555000D+05 0.4405000D+04 0.1439000D+04
EXPONENTS  0.5204000D+03 0.2031000D+03 0.8396000D+02 0.3620000D+02 0.1583000D+02
EXPONENTS  0.6334000D+01 0.2694000D+01 0.4313000D+00 0.4561000D+06 0.6833000D+05
EXPONENTS  0.1555000D+05 0.4405000D+04 0.1439000D+04 0.5204000D+03 0.2031000D+03
EXPONENTS  0.8396000D+02 0.3620000D+02 0.1583000D+02 0.6334000D+01 0.2694000D+01
EXPONENTS  0.4313000D+00 0.9768000D+00 0.1625000D+00 0.5910000D-01 0.6633000D+03
EXPONENTS  0.1568000D+03 0.4998000D+02 0.1842000D+02 0.7240000D+01 0.2922000D+01
EXPONENTS  0.3818000D+00 0.6633000D+03 0.1568000D+03 0.4998000D+02 0.1842000D+02
EXPONENTS  0.7240000D+01 0.2922000D+01 0.3818000D+00 0.6633000D+03 0.1568000D+03
EXPONENTS  0.4998000D+02 0.1842000D+02 0.7240000D+01 0.2922000D+01 0.3818000D+00
EXPONENTS  0.6633000D+03 0.1568000D+03 0.4998000D+02 0.1842000D+02 0.7240000D+01
EXPONENTS  0.2922000D+01 0.3818000D+00 0.6633000D+03 0.1568000D+03 0.4998000D+02
EXPONENTS  0.1842000D+02 0.7240000D+01 0.2922000D+01 0.3818000D+00 0.6633000D+03
EXPONENTS  0.1568000D+03 0.4998000D+02 0.1842000D+02 0.7240000D+01 0.2922000D+01
EXPONENTS  0.3818000D+00 0.1022000D+01 0.1022000D+01 0.1022000D+01 0.1301000D+00
EXPONENTS  0.1301000D+00 0.1301000D+00 0.4190000D-01 0.4190000D-01 0.4190000D-01
EXPONENTS  0.1046000D+01 0.1046000D+01 0.1046000D+01 0.1046000D+01 0.1046000D+01
EXPONENTS  0.1046000D+01 0.3440000D+00 0.3440000D+00 0.3440000D+00 0.3440000D+00
EXPONENTS  0.3440000D+00 0.3440000D+00 0.1350000D+00 0.1350000D+00 0.1350000D+00
EXPONENTS  0.1350000D+00 0.1350000D+00 0.1350000D+00 0.7060000D+00 0.7060000D+00
EXPONENTS  0.7060000D+00 0.7060000D+00 0.7060000D+00 0.7060000D+00 0.7060000D+00
EXPONENTS  0.7060000D+00 0.7060000D+00 0.7060000D+00 0.3120000D+00 0.3120000D+00
EXPONENTS  0.3120000D+00 0.3120000D+00 0.3120000D+00 0.3120000D+00 0.3120000D+00
EXPONENTS  0.3120000D+00 0.3120000D+00 0.3120000D+00 0.4561000D+06 0.6833000D+05
EXPONENTS  0.1555000D+05 0.4405000D+04 0.1439000D+04 0.5204000D+03 0.2031000D+03
EXPONENTS  0.8396000D+02 0.3620000D+02 0.1583000D+02 0.6334000D+01 0.2694000D+01
EXPONENTS  0.4313000D+00 0.4561000D+06 0.6833000D+05 0.1555000D+05 0.4405000D+04
EXPONENTS  0.1439000D+04 0.5204000D+03 0.2031000D+03 0.8396000D+02 0.3620000D+02
EXPONENTS  0.1583000D+02 0.6334000D+01 0.2694000D+01 0.4313000D+00 0.4561000D+06
EXPONENTS  0.6833000D+05 0.1555000D+05 0.4405000D+04 0.1439000D+04 0.5204000D+03
EXPONENTS  0.2031000D+03 0.8396000D+02 0.3620000D+02 0.1583000D+02 0.6334000D+01
EXPONENTS  0.2694000D+01 0.4313000D+00 0.9768000D+00 0.1625000D+00 0.5910000D-01
EXPONENTS  0.6633000D+03 0.1568000D+03 0.4998000D+02 0.1842000D+02 0.7240000D+01
EXPONENTS  0.2922000D+01 0.3818000D+00 0.6633000D+03 0.1568000D+03 0.4998000D+02
EXPONENTS  0.1842000D+02 0.7240000D+01 0.2922000D+01 0.3818000D+00 0.6633000D+03
EXPONENTS  0.1568000D+03 0.4998000D+02 0.1842000D+02 0.7240000D+01 0.2922000D+01
EXPONENTS  0.3818000D+00 0.6633000D+03 0.1568000D+03 0.4998000D+02 0.1842000D+02
EXPONENTS  0.7240000D+01 0.2922000D+01 0.3818000D+00 0.6633000D+03 0.1568000D+03
EXPONENTS  0.4998000D+02 0.1842000D+02 0.7240000D+01 0.2922000D+01 0.3818000D+00
EXPONENTS  0.6633000D+03 0.1568000D+03 0.4998000D+02 0.1842000D+02 0.7240000D+01
EXPONENTS  0.2922000D+01 0.3818000D+00 0.1022000D+01 0.1022000D+01 0.1022000D+01
EXPONENTS  0.1301000D+00 0.1301000D+00 0.1301000D+00 0.4190000D-01 0.4190000D-01
EXPONENTS  0.4190000D-01 0.1046000D+01 0.1046000D+01 0.1046000D+01 0.1046000D+01
EXPONENTS  0.1046000D+01 0.1046000D+01 0.3440000D+00 0.3440000D+00 0.3440000D+00
EXPONENTS  0.3440000D+00 0.3440000D+00 0.3440000D+00 0.1350000D+00 0.1350000D+00
EXPONENTS  0.1350000D+00 0.1350000D+00 0.1350000D+00 0.1350000D+00 0.7060000D+00
EXPONENTS  0.7060000D+00 0.7060000D+00 0.7060000D+00 0.7060000D+00 0.7060000D+00
EXPONENTS  0.7060000D+00 0.7060000D+00 0.7060000D+00 0.7060000D+00 0.3120000D+00
EXPONENTS  0.3120000D+00 0.3120000D+00 0.3120000D+00 0.3120000D+00 0.3120000D+00
EXPONENTS  0.3120000D+00 0.3120000D+00 0.3120000D+00 0.3120000D+00 0.4561000D+06
EXPONENTS  0.6833000D+05 0.1555000D+05 0.4405000D+04 0.1439000D+04 0.5204000D+03
EXPONENTS  0.2031000D+03 0.8396000D+02 0.3620000D+02 0.1583000D+02 0.6334000D+01
EXPONENTS  0.2694000D+01 0.4313000D+00 0.4561000D+06 0.6833000D+05 0.1555000D+05
EXPONENTS  0.4405000D+04 0.1439000D+04 0.5204000D+03 0.2031000D+03 0.8396000D+02
EXPONENTS  0.3620000D+02 0.1583000D+02 0.6334000D+01 0.2694000D+01 0.4313000D+00
EXPONENTS  0.4561000D+06 0.6833000D+05 0.1555000D+05 0.4405000D+04 0.1439000D+04
EXPONENTS  0.5204000D+03 0.2031000D+03 0.8396000D+02 0.3620000D+02 0.1583000D+02
EXPONENTS  0.6334000D+01 0.2694000D+01 0.4313000D+00 0.9768000D+00 0.1625000D+00
EXPONENTS  0.5910000D-01 0.6633000D+03 0.1568000D+03 0.4998000D+02 0.1842000D+02
EXPONENTS  0.7240000D+01 0.2922000D+01 0.3818000D+00 0.6633000D+03 0.1568000D+03
EXPONENTS  0.4998000D+02 0.1842000D+02 0.7240000D+01 0.2922000D+01 0.3818000D+00
EXPONENTS  0.6633000D+03 0.1568000D+03 0.4998000D+02 0.1842000D+02 0.7240000D+01
EXPONENTS  0.2922000D+01 0.3818000D+00 0.6633000D+03 0.1568000D+03 0.4998000D+02
EXPONENTS  0.1842000D+02 0.7240000D+01 0.2922000D+01 0.3818000D+00 0.6633000D+03
EXPONENTS  0.1568000D+03 0.4998000D+02 0.1842000D+02 0.7240000D+01 0.2922000D+01
EXPONENTS  0.3818000D+00 0.6633000D+03 0.1568000D+03 0.4998000D+02 0.1842000D+02
EXPONENTS  0.7240000D+01 0.2922000D+01 0.3818000D+00 0.1022000D+01 0.1022000D+01
EXPONENTS  0.1022000D+01 0.1301000D+00 0.1301000D+00 0.1301000D+00 0.4190000D-01
EXPONENTS  0.4190000D-01 0.4190000D-01 0.1046000D+01 0.1046000D+01 0.1046000D+01
EXPONENTS  0.1046000D+01 0.1046000D+01 0.1046000D+01 0.3440000D+00 0.3440000D+00
EXPONENTS  0.3440000D+00 0.3440000D+00 0.3440000D+00 0.3440000D+00 0.1350000D+00
EXPONENTS  0.1350000D+00 0.1350000D+00 0.1350000D+00 0.1350000D+00 0.1350000D+00
EXPONENTS  0.7060000D+00 0.7060000D+00 0.7060000D+00 0.7060000D+00 0.7060000D+00
EXPONENTS  0.7060000D+00 0.7060000D+00 0.7060000D+00 0.7060000D+00 0.7060000D+00
EXPONENTS  0.3120000D+00 0.3120000D+00 0.3120000D+00 0.3120000D+00 0.3120000D+00
EXPONENTS  0.3120000D+00 0.3120000D+00 0.3120000D+00 0.3120000D+00 0.3120000D+00
EXPONENTS  0.4561000D+06 0.6833000D+05 0.1555000D+05 0.4405000D+04 0.1439000D+04
EXPONENTS  0.5204000D+03 0.2031000D+03 0.8396000D+02 0.3620000D+02 0.1583000D+02
EXPONENTS  0.6334000D+01 0.2694000D+01 0.4313000D+00 0.4561000D+06 0.6833000D+05
EXPONENTS  0.1555000D+05 0.4405000D+04 0.1439000D+04 0.5204000D+03 0.2031000D+03
EXPONENTS  0.8396000D+02 0.3620000D+02 0.1583000D+02 0.6334000D+01 0.2694000D+01
EXPONENTS  0.4313000D+00 0.4561000D+06 0.6833000D+05 0.1555000D+05 0.4405000D+04
EXPONENTS  0.1439000D+04 0.5204000D+03 0.2031000D+03 0.8396000D+02 0.3620000D+02
EXPONENTS  0.1583000D+02 0.6334000D+01 0.2694000D+01 0.4313000D+00 0.9768000D+00
EXPONENTS  0.1625000D+00 0.5910000D-01 0.6633000D+03 0.1568000D+03 0.4998000D+02
EXPONENTS  0.1842000D+02 0.7240000D+01 0.2922000D+01 0.3818000D+00 0.6633000D+03
EXPONENTS  0.1568000D+03 0.4998000D+02 0.1842000D+02 0.7240000D+01 0.2922000D+01
EXPONENTS  0.3818000D+00 0.6633000D+03 0.1568000D+03 0.4998000D+02 0.1842000D+02
EXPONENTS  0.7240000D+01 0.2922000D+01 0.3818000D+00 0.6633000D+03 0.1568000D+03
EXPONENTS  0.4998000D+02 0.1842000D+02 0.7240000D+01 0.2922000D+01 0.3818000D+00
EXPONENTS  0.6633000D+03 0.1568000D+03 0.4998000D+02 0.1842000D+02 0.7240000D+01
EXPONENTS  0.2922000D+01 0.3818000D+00 0.6633000D+03 0.1568000D+03 0.4998000D+02
EXPONENTS  0.1842000D+02 0.7240000D+01 0.2922000D+01 0.3818000D+00 0.1022000D+01
EXPONENTS  0.1022000D+01 0.1022000D+01 0.1301000D+00 0.1301000D+00 0.1301000D+00
EXPONENTS  0.4190000D-01 0.4190000D-01 0.4190000D-01 0.1046000D+01 0.1046000D+01
EXPONENTS  0.1046000D+01 0.1046000D+01 0.1046000D+01 0.1046000D+01 0.3440000D+00
EXPONENTS  0.3440000D+00 0.3440000D+00 0.3440000D+00 0.3440000D+00 0.3440000D+00
EXPONENTS  0.1350000D+00 0.1350000D+00 0.1350000D+00 0.1350000D+00 0.1350000D+00
EXPONENTS  0.1350000D+00 0.7060000D+00 0.7060000D+00 0.7060000D+00 0.7060000D+00
EXPONENTS  0.7060000D+00 0.7060000D+00 0.7060000D+00 0.7060000D+00 0.7060000D+00
EXPONENTS  0.7060000D+00 0.3120000D+00 0.3120000D+00 0.3120000D+00 0.3120000D+00
EXPONENTS  0.3120000D+00 0.3120000D+00 0.3120000D+00 0.3120000D+00 0.3120000D+00
EXPONENTS  0.3120000D+00 0.4561000D+06 0.6833000D+05 0.1555000D+05 0.4405000D+04
EXPONENTS  0.1439000D+04 0.5204000D+03 0.2031000D+03 0.8396000D+02 0.3620000D+02
EXPONENTS  0.1583000D+02 0.6334000D+01 0.2694000D+01 0.4313000D+00 0.4561000D+06
EXPONENTS  0.6833000D+05 0.1555000D+05 0.4405000D+04 0.1439000D+04 0.5204000D+03
EXPONENTS  0.2031000D+03 0.8396000D+02 0.3620000D+02 0.1583000D+02 0.6334000D+01
EXPONENTS  0.2694000D+01 0.4313000D+00 0.4561000D+06 0.6833000D+05 0.1555000D+05
EXPONENTS  0.4405000D+04 0.1439000D+04 0.5204000D+03 0.2031000D+03 0.8396000D+02
EXPONENTS  0.3620000D+02 0.1583000D+02 0.6334000D+01 0.2694000D+01 0.4313000D+00
EXPONENTS  0.9768000D+00 0.1625000D+00 0.5910000D-01 0.6633000D+03 0.1568000D+03
EXPONENTS  0.4998000D+02 0.1842000D+02 0.7240000D+01 0.2922000D+01 0.3818000D+00
EXPONENTS  0.6633000D+03 0.1568000D+03 0.4998000D+02 0.1842000D+02 0.7240000D+01
EXPONENTS  0.2922000D+01 0.3818000D+00 0.6633000D+03 0.1568000D+03 0.4998000D+02
EXPONENTS  0.1842000D+02 0.7240000D+01 0.2922000D+01 0.3818000D+00 0.6633000D+03
EXPONENTS  0.1568000D+03 0.4998000D+02 0.1842000D+02 0.7240000D+01 0.2922000D+01
EXPONENTS  0.3818000D+00 0.6633000D+03 0.1568000D+03 0.4998000D+02 0.1842000D+02
EXPONENTS  0.7240000D+01 0.2922000D+01 0.3818000D+00 0.6633000D+03 0.1568000D+03
EXPONENTS  0.4998000D+02 0.1842000D+02 0.7240000D+01 0.2922000D+01 0.3818000D+00
EXPONENTS  0.1022000D+01 0.1022000D+01 0.1022000D+01 0.1301000D+00 0.1301000D+00
EXPONENTS  0.1301000D+00 0.4190000D-01 0.4190000D-01 0.4190000D-01 0.1046000D+01
EXPONENTS  0.1046000D+01 0.1046000D+01 0.1046000D+01 0.1046000D+01 0.1046000D+01
EXPONENTS  0.3440000D+00 0.3440000D+00 0.3440000D+00 0.3440000D+00 0.3440000D+00
EXPONENTS  0.3440000D+00 0.1350000D+00 0.1350000D+00 0.1350000D+00 0.1350000D+00
EXPONENTS  0.1350000D+00 0.1350000D+00 0.7060000D+00 0.7060000D+00 0.7060000D+00
EXPONENTS  0.7060000D+00 0.7060000D+00 0.7060000D+00 0.7060000D+00 0.7060000D+00
EXPONENTS  0.7060000D+00 0.7060000D+00 0.3120000D+00 0.3120000D+00 0.3120000D+00
EXPONENTS  0.3120000D+00 0.3120000D+00 0.3120000D+00 0.3120000D+00 0.3120000D+00
EXPONENTS  0.3120000D+00 0.3120000D+00 0.4561000D+06 0.6833000D+05 0.1555000D+05
EXPONENTS  0.4405000D+04 0.1439000D+04 0.5204000D+03 0.2031000D+03 0.8396000D+02
EXPONENTS  0.3620000D+02 0.1583000D+02 0.6334000D+01 0.2694000D+01 0.4313000D+00
EXPONENTS  0.4561000D+06 0.6833000D+05 0.1555000D+05 0.4405000D+04 0.1439000D+04
EXPONENTS  0.5204000D+03 0.2031000D+03 0.8396000D+02 0.3620000D+02 0.1583000D+02
EXPONENTS  0.6334000D+01 0.2694000D+01 0.4313000D+00 0.4561000D+06 0.6833000D+05
EXPONENTS  0.1555000D+05 0.4405000D+04 0.1439000D+04 0.5204000D+03 0.2031000D+03
EXPONENTS  0.8396000D+02 0.3620000D+02 0.1583000D+02 0.6334000D+01 0.2694000D+01
EXPONENTS  0.4313000D+00 0.9768000D+00 0.1625000D+00 0.5910000D-01 0.6633000D+03
EXPONENTS  0.1568000D+03 0.4998000D+02 0.1842000D+02 0.7240000D+01 0.2922000D+01
EXPONENTS  0.3818000D+00 0.6633000D+03 0.1568000D+03 0.4998000D+02 0.1842000D+02
EXPONENTS  0.7240000D+01 0.2922000D+01 0.3818000D+00 0.6633000D+03 0.1568000D+03
EXPONENTS  0.4998000D+02 0.1842000D+02 0.7240000D+01 0.2922000D+01 0.3818000D+00
EXPONENTS  0.6633000D+03 0.1568000D+03 0.4998000D+02 0.1842000D+02 0.7240000D+01
EXPONENTS  0.2922000D+01 0.3818000D+00 0.6633000D+03 0.1568000D+03 0.4998000D+02
EXPONENTS  0.1842000D+02 0.7240000D+01 0.2922000D+01 0.3818000D+00 0.6633000D+03
EXPONENTS  0.1568000D+03 0.4998000D+02 0.1842000D+02 0.7240000D+01 0.2922000D+01
EXPONENTS  0.3818000D+00 0.1022000D+01 0.1022000D+01 0.1022000D+01 0.1301000D+00
EXPONENTS  0.1301000D+00 0.1301000D+00 0.4190000D-01 0.4190000D-01 0.4190000D-01
EXPONENTS  0.1046000D+01 0.1046000D+01 0.1046000D+01 0.1046000D+01 0.1046000D+01
EXPONENTS  0.1046000D+01 0.3440000D+00 0.3440000D+00 0.3440000D+00 0.3440000D+00
EXPONENTS  0.3440000D+00 0.3440000D+00 0.1350000D+00 0.1350000D+00 0.1350000D+00
EXPONENTS  0.1350000D+00 0.1350000D+00 0.1350000D+00 0.7060000D+00 0.7060000D+00
EXPONENTS  0.7060000D+00 0.7060000D+00 0.7060000D+00 0.7060000D+00 0.7060000D+00
EXPONENTS  0.7060000D+00 0.7060000D+00 0.7060000D+00 0.3120000D+00 0.3120000D+00
EXPONENTS  0.3120000D+00 0.3120000D+00 0.3120000D+00 0.3120000D+00 0.3120000D+00
EXPONENTS  0.3120000D+00 0.3120000D+00 0.3120000D+00
MO    1     MO 0.0        OCC NO =    2.0000000  ORB. ENERGY = -101.274146
  0.29131990D-04  0.54466725D-04  0.94043202D-04  0.15170022D-03  0.22767654D-03
  0.30700552D-03  0.34351173D-03  0.26798559D-03  0.10080437D-03  0.74356026D-05
 -0.43846058D-06  0.12109158D-06  0.75634817D-08 -0.56379991D-04 -0.10558784D-03
 -0.18232713D-03 -0.29660035D-03 -0.45151388D-03 -0.63877310D-03 -0.78771080D-03
 -0.78958762D-03 -0.44422910D-03  0.15806322D-03  0.37436993D-03  0.15073950D-03
 -0.89385238D-06  0.31445497D-04  0.58841661D-04  0.10174973D-03  0.16531771D-03
  0.25253633D-03  0.35747194D-03  0.44591678D-03  0.45337670D-03  0.26730043D-03
 -0.10662258D-03 -0.28201120D-03 -0.23030524D-03  0.12301344D-03 -0.30337208D-03
  0.88517049D-03  0.23792800D-04 -0.20874709D-02 -0.27638954D-02 -0.30981240D-02
 -0.27280172D-02 -0.16384492D-02 -0.59569776D-03 -0.76377736D-06 -0.68344394D-15
 -0.90490725D-15 -0.10143347D-14 -0.89316062D-15 -0.53643294D-15 -0.19503315D-15
 -0.25006289D-18  0.34512079D-13  0.45695379D-13  0.51221169D-13  0.45102206D-13
  0.27088419D-13  0.98486488D-14  0.12627503D-16  0.17385629D-02  0.24263892D-02
  0.26029790D-02  0.25047286D-02  0.13797398D-02  0.67136601D-03 -0.18644315D-03
  0.10699912D-14  0.14933110D-14  0.16019924D-14  0.15415246D-14  0.84915503D-15
  0.41318936D-15 -0.11474565D-15 -0.32054039D-13 -0.44735552D-13 -0.47991354D-13
 -0.46179903D-13 -0.25438385D-13 -0.12378034D-13  0.34374688D-14  0.12313596D-03
  0.89429795D-16  0.13202235D-14 -0.94631765D-04 -0.37633304D-15 -0.63551721D-15
 -0.17694781D-05  0.70335926D-17 -0.24026103D-15  0.17188363D-04 -0.17447825D-04
  0.25946136D-06 -0.15764199D-15  0.21807238D-14  0.62519030D-17  0.10545394D-04
 -0.43449180D-04  0.32903786D-04 -0.29554005D-16 -0.31683406D-14  0.33099607D-18
  0.30076892D-05 -0.24491280D-05 -0.55856113D-06 -0.11970989D-16  0.14137763D-15
  0.34503705D-17 -0.44152391D-07 -0.44384973D-17 -0.31112898D-15  0.45471126D-04
 -0.27239592D-17  0.27405604D-15 -0.45338668D-04  0.16039451D-16  0.65933090D-15
  0.49688795D-19 -0.25590084D-05  0.88021905D-18 -0.96689634D-16  0.15476903D-04
 -0.21687778D-16 -0.94129291D-16 -0.77998781D-05  0.19047121D-16  0.38419819D-15
 -0.65854835D-18  0.29131990D-04  0.54466725D-04  0.94043202D-04  0.15170022D-03
  0.22767654D-03  0.30700552D-03  0.34351173D-03  0.26798559D-03  0.10080437D-03
  0.74356026D-05 -0.43846058D-06  0.12109158D-06  0.75634817D-08 -0.56379991D-04
 -0.10558784D-03 -0.18232713D-03 -0.29660035D-03 -0.45151388D-03 -0.63877310D-03
 -0.78771080D-03 -0.78958762D-03 -0.44422910D-03  0.15806322D-03  0.37436993D-03
  0.15073950D-03 -0.89385238D-06  0.31445497D-04  0.58841661D-04  0.10174973D-03
  0.16531771D-03  0.25253633D-03  0.35747194D-03  0.44591678D-03  0.45337670D-03
  0.26730043D-03 -0.10662258D-03 -0.28201120D-03 -0.23030524D-03  0.12301344D-03
 -0.30337208D-03  0.88517049D-03  0.23792800D-04  0.20874709D-02  0.27638954D-02
  0.30981240D-02  0.27280172D-02  0.16384492D-02  0.59569776D-03  0.76377736D-06
  0.74259160D-15  0.98322112D-15  0.11021188D-14  0.97045789D-15  0.58285775D-15
  0.21191201D-15  0.27170422D-18  0.34667506D-13  0.45901172D-13  0.51451847D-13
  0.45305327D-13  0.27210414D-13  0.98930028D-14  0.12684371D-16 -0.17385629D-02
 -0.24263892D-02 -0.26029790D-02 -0.25047286D-02 -0.13797398D-02 -0.67136601D-03
  0.18644315D-03 -0.59316293D-15 -0.82783550D-15 -0.88808441D-15 -0.85456335D-15
 -0.47073965D-15 -0.22905666D-15  0.63610675D-16 -0.32168751D-13 -0.44895648D-13
 -0.48163101D-13 -0.46345168D-13 -0.25529422D-13 -0.12422332D-13  0.34497705D-14
 -0.12313596D-03 -0.66555089D-16  0.13019715D-14  0.94631765D-04  0.38069826D-15
 -0.60579737D-15  0.17694781D-05 -0.76907659D-17 -0.23910650D-15  0.17188363D-04