 Molden2AIM, Version 4.0.0 (06/02/2016)           Time: Sat Jun 30 05:43:22 2018
GAUSSIAN             40 MOL ORBITALS    712 PRIMITIVES        8 NUCLEI
  Al   1    (CENTRE  1)   2.61959316  0.00000000  0.00000000  CHARGE = 13.0
  Al   2    (CENTRE  2)  -2.61959316  0.00000000  0.00000000  CHARGE = 13.0
  F    3    (CENTRE  3)   0.00000000  0.00000000  2.23026611  CHARGE =  9.0
  F    4    (CENTRE  4)   0.00000000  0.00000000 -2.23026611  CHARGE =  9.0
  F    5    (CENTRE  5)   4.08071050  2.75781906  0.00000000  CHARGE =  9.0
  F    6    (CENTRE  6)   4.08071050 -2.75781906  0.00000000  CHARGE =  9.0
  F    7    (CENTRE  7)  -4.08071050  2.75781906  0.00000000  CHARGE =  9.0
  F    8    (CENTRE  8)  -4.08071050 -2.75781906  0.00000000  CHARGE =  9.0
CENTRE ASSIGNMENTS    1  1  1  1  1  1  1  1  1  1  1  1  1  1  1  1  1  1  1  1
CENTRE ASSIGNMENTS    1  1  1  1  1  1  1  1  1  1  1  1  1  1  1  1  1  1  1  1
CENTRE ASSIGNMENTS    1  1  1  1  1  1  1  1  1  1  1  1  1  1  1  1  1  1  1  1
CENTRE ASSIGNMENTS    1  1  1  1  1  1  1  1  1  1  1  1  1  1  1  1  1  1  1  1
CENTRE ASSIGNMENTS    1  1  1  1  1  1  1  1  1  1  1  1  1  1  1  1  1  1  1  1
CENTRE ASSIGNMENTS    1  1  1  1  1  1  1  1  1  1  1  1  1  1  1  1  1  1  1  1
CENTRE ASSIGNMENTS    1  1  1  1  1  1  1  1  1  1  1  2  2  2  2  2  2  2  2  2
CENTRE ASSIGNMENTS    2  2  2  2  2  2  2  2  2  2  2  2  2  2  2  2  2  2  2  2
CENTRE ASSIGNMENTS    2  2  2  2  2  2  2  2  2  2  2  2  2  2  2  2  2  2  2  2
CENTRE ASSIGNMENTS    2  2  2  2  2  2  2  2  2  2  2  2  2  2  2  2  2  2  2  2
CENTRE ASSIGNMENTS    2  2  2  2  2  2  2  2  2  2  2  2  2  2  2  2  2  2  2  2
CENTRE ASSIGNMENTS    2  2  2  2  2  2  2  2  2  2  2  2  2  2  2  2  2  2  2  2
CENTRE ASSIGNMENTS    2  2  2  2  2  2  2  2  2  2  2  2  2  2  2  2  2  2  2  2
CENTRE ASSIGNMENTS    2  2  3  3  3  3  3  3  3  3  3  3  3  3  3  3  3  3  3  3
CENTRE ASSIGNMENTS    3  3  3  3  3  3  3  3  3  3  3  3  3  3  3  3  3  3  3  3
CENTRE ASSIGNMENTS    3  3  3  3  3  3  3  3  3  3  3  3  3  3  3  3  3  3  3  3
CENTRE ASSIGNMENTS    3  3  3  3  3  3  3  3  3  3  3  3  3  3  3  3  3  4  4  4
CENTRE ASSIGNMENTS    4  4  4  4  4  4  4  4  4  4  4  4  4  4  4  4  4  4  4  4
CENTRE ASSIGNMENTS    4  4  4  4  4  4  4  4  4  4  4  4  4  4  4  4  4  4  4  4
CENTRE ASSIGNMENTS    4  4  4  4  4  4  4  4  4  4  4  4  4  4  4  4  4  4  4  4
CENTRE ASSIGNMENTS    4  4  4  4  4  4  4  4  4  4  4  4  5  5  5  5  5  5  5  5
CENTRE ASSIGNMENTS    5  5  5  5  5  5  5  5  5  5  5  5  5  5  5  5  5  5  5  5
CENTRE ASSIGNMENTS    5  5  5  5  5  5  5  5  5  5  5  5  5  5  5  5  5  5  5  5
CENTRE ASSIGNMENTS    5  5  5  5  5  5  5  5  5  5  5  5  5  5  5  5  5  5  5  5
CENTRE ASSIGNMENTS    5  5  5  5  5  5  5  6  6  6  6  6  6  6  6  6  6  6  6  6
CENTRE ASSIGNMENTS    6  6  6  6  6  6  6  6  6  6  6  6  6  6  6  6  6  6  6  6
CENTRE ASSIGNMENTS    6  6  6  6  6  6  6  6  6  6  6  6  6  6  6  6  6  6  6  6
CENTRE ASSIGNMENTS    6  6  6  6  6  6  6  6  6  6  6  6  6  6  6  6  6  6  6  6
CENTRE ASSIGNMENTS    6  6  7  7  7  7  7  7  7  7  7  7  7  7  7  7  7  7  7  7
CENTRE ASSIGNMENTS    7  7  7  7  7  7  7  7  7  7  7  7  7  7  7  7  7  7  7  7
CENTRE ASSIGNMENTS    7  7  7  7  7  7  7  7  7  7  7  7  7  7  7  7  7  7  7  7
CENTRE ASSIGNMENTS    7  7  7  7  7  7  7  7  7  7  7  7  7  7  7  7  7  8  8  8
CENTRE ASSIGNMENTS    8  8  8  8  8  8  8  8  8  8  8  8  8  8  8  8  8  8  8  8
CENTRE ASSIGNMENTS    8  8  8  8  8  8  8  8  8  8  8  8  8  8  8  8  8  8  8  8
CENTRE ASSIGNMENTS    8  8  8  8  8  8  8  8  8  8  8  8  8  8  8  8  8  8  8  8
CENTRE ASSIGNMENTS    8  8  8  8  8  8  8  8  8  8  8  8
TYPE ASSIGNMENTS      1  1  1  1  1  1  1  1  1  1  1  1  1  1  1  1  1  1  1  1
TYPE ASSIGNMENTS      1  1  1  1  1  1  1  1  1  1  1  1  1  1  1  1  1  1  1  1
TYPE ASSIGNMENTS      1  1  2  2  2  2  2  2  2  3  3  3  3  3  3  3  4  4  4  4
TYPE ASSIGNMENTS      4  4  4  2  2  2  2  2  2  2  3  3  3  3  3  3  3  4  4  4
TYPE ASSIGNMENTS      4  4  4  4  2  3  4  2  3  4  2  3  4  5  6  7  8  9 10  5
TYPE ASSIGNMENTS      6  7  8  9 10  5  6  7  8  9 10 11 12 13 17 14 15 18 19 16
TYPE ASSIGNMENTS     20 11 12 13 17 14 15 18 19 16 20  1  1  1  1  1  1  1  1  1
TYPE ASSIGNMENTS      1  1  1  1  1  1  1  1  1  1  1  1  1  1  1  1  1  1  1  1
TYPE ASSIGNMENTS      1  1  1  1  1  1  1  1  1  1  1  1  1  2  2  2  2  2  2  2
TYPE ASSIGNMENTS      3  3  3  3  3  3  3  4  4  4  4  4  4  4  2  2  2  2  2  2
TYPE ASSIGNMENTS      2  3  3  3  3  3  3  3  4  4  4  4  4  4  4  2  3  4  2  3
TYPE ASSIGNMENTS      4  2  3  4  5  6  7  8  9 10  5  6  7  8  9 10  5  6  7  8
TYPE ASSIGNMENTS      9 10 11 12 13 17 14 15 18 19 16 20 11 12 13 17 14 15 18 19
TYPE ASSIGNMENTS     16 20  1  1  1  1  1  1  1  1  1  1  1  1  1  1  1  1  1  1
TYPE ASSIGNMENTS      1  2  2  2  3  3  3  4  4  4  2  3  4  2  3  4  2  3  4  5
TYPE ASSIGNMENTS      6  7  8  9 10  5  6  7  8  9 10  5  6  7  8  9 10 11 12 13
TYPE ASSIGNMENTS     17 14 15 18 19 16 20 11 12 13 17 14 15 18 19 16 20  1  1  1
TYPE ASSIGNMENTS      1  1  1  1  1  1  1  1  1  1  1  1  1  1  1  1  2  2  2  3
TYPE ASSIGNMENTS      3  3  4  4  4  2  3  4  2  3  4  2  3  4  5  6  7  8  9 10
TYPE ASSIGNMENTS      5  6  7  8  9 10  5  6  7  8  9 10 11 12 13 17 14 15 18 19
TYPE ASSIGNMENTS     16 20 11 12 13 17 14 15 18 19 16 20  1  1  1  1  1  1  1  1
TYPE ASSIGNMENTS      1  1  1  1  1  1  1  1  1  1  1  2  2  2  3  3  3  4  4  4
TYPE ASSIGNMENTS      2  3  4  2  3  4  2  3  4  5  6  7  8  9 10  5  6  7  8  9
TYPE ASSIGNMENTS     10  5  6  7  8  9 10 11 12 13 17 14 15 18 19 16 20 11 12 13
TYPE ASSIGNMENTS     17 14 15 18 19 16 20  1  1  1  1  1  1  1  1  1  1  1  1  1
TYPE ASSIGNMENTS      1  1  1  1  1  1  2  2  2  3  3  3  4  4  4  2  3  4  2  3
TYPE ASSIGNMENTS      4  2  3  4  5  6  7  8  9 10  5  6  7  8  9 10  5  6  7  8
TYPE ASSIGNMENTS      9 10 11 12 13 17 14 15 18 19 16 20 11 12 13 17 14 15 18 19
TYPE ASSIGNMENTS     16 20  1  1  1  1  1  1  1  1  1  1  1  1  1  1  1  1  1  1
TYPE ASSIGNMENTS      1  2  2  2  3  3  3  4  4  4  2  3  4  2  3  4  2  3  4  5
TYPE ASSIGNMENTS      6  7  8  9 10  5  6  7  8  9 10  5  6  7  8  9 10 11 12 13
TYPE ASSIGNMENTS     17 14 15 18 19 16 20 11 12 13 17 14 15 18 19 16 20  1  1  1
TYPE ASSIGNMENTS      1  1  1  1  1  1  1  1  1  1  1  1  1  1  1  1  2  2  2  3
TYPE ASSIGNMENTS      3  3  4  4  4  2  3  4  2  3  4  2  3  4  5  6  7  8  9 10
TYPE ASSIGNMENTS      5  6  7  8  9 10  5  6  7  8  9 10 11 12 13 17 14 15 18 19
TYPE ASSIGNMENTS     16 20 11 12 13 17 14 15 18 19 16 20
EXPONENTS  0.2055000D+06 0.3078000D+05 0.7006000D+04 0.1985000D+04 0.6491000D+03
EXPONENTS  0.2350000D+03 0.9162000D+02 0.3767000D+02 0.1591000D+02 0.5850000D+01
EXPONENTS  0.2542000D+01 0.1057000D+01 0.1455000D+00 0.2055000D+06 0.3078000D+05
EXPONENTS  0.7006000D+04 0.1985000D+04 0.6491000D+03 0.2350000D+03 0.9162000D+02
EXPONENTS  0.3767000D+02 0.1591000D+02 0.5850000D+01 0.2542000D+01 0.1057000D+01
EXPONENTS  0.1455000D+00 0.2055000D+06 0.3078000D+05 0.7006000D+04 0.1985000D+04
EXPONENTS  0.6491000D+03 0.2350000D+03 0.9162000D+02 0.3767000D+02 0.1591000D+02
EXPONENTS  0.5850000D+01 0.2542000D+01 0.1057000D+01 0.1455000D+00 0.2931000D+00
EXPONENTS  0.5650000D-01 0.2210000D-01 0.4444000D+03 0.1051000D+03 0.3347000D+02
EXPONENTS  0.1233000D+02 0.4869000D+01 0.1961000D+01 0.1888000D+00 0.4444000D+03
EXPONENTS  0.1051000D+03 0.3347000D+02 0.1233000D+02 0.4869000D+01 0.1961000D+01
EXPONENTS  0.1888000D+00 0.4444000D+03 0.1051000D+03 0.3347000D+02 0.1233000D+02
EXPONENTS  0.4869000D+01 0.1961000D+01 0.1888000D+00 0.4444000D+03 0.1051000D+03
EXPONENTS  0.3347000D+02 0.1233000D+02 0.4869000D+01 0.1961000D+01 0.1888000D+00
EXPONENTS  0.4444000D+03 0.1051000D+03 0.3347000D+02 0.1233000D+02 0.4869000D+01
EXPONENTS  0.1961000D+01 0.1888000D+00 0.4444000D+03 0.1051000D+03 0.3347000D+02
EXPONENTS  0.1233000D+02 0.4869000D+01 0.1961000D+01 0.1888000D+00 0.7834000D+00
EXPONENTS  0.7834000D+00 0.7834000D+00 0.5557000D-01 0.5557000D-01 0.5557000D-01
EXPONENTS  0.1460000D-01 0.1460000D-01 0.1460000D-01 0.1090000D+00 0.1090000D+00
EXPONENTS  0.1090000D+00 0.1090000D+00 0.1090000D+00 0.1090000D+00 0.3330000D+00
EXPONENTS  0.3330000D+00 0.3330000D+00 0.3330000D+00 0.3330000D+00 0.3330000D+00
EXPONENTS  0.3560000D-01 0.3560000D-01 0.3560000D-01 0.3560000D-01 0.3560000D-01
EXPONENTS  0.3560000D-01 0.2440000D+00 0.2440000D+00 0.2440000D+00 0.2440000D+00
EXPONENTS  0.2440000D+00 0.2440000D+00 0.2440000D+00 0.2440000D+00 0.2440000D+00
EXPONENTS  0.2440000D+00 0.8580000D-01 0.8580000D-01 0.8580000D-01 0.8580000D-01
EXPONENTS  0.8580000D-01 0.8580000D-01 0.8580000D-01 0.8580000D-01 0.8580000D-01
EXPONENTS  0.8580000D-01 0.2055000D+06 0.3078000D+05 0.7006000D+04 0.1985000D+04
EXPONENTS  0.6491000D+03 0.2350000D+03 0.9162000D+02 0.3767000D+02 0.1591000D+02
EXPONENTS  0.5850000D+01 0.2542000D+01 0.1057000D+01 0.1455000D+00 0.2055000D+06
EXPONENTS  0.3078000D+05 0.7006000D+04 0.1985000D+04 0.6491000D+03 0.2350000D+03
EXPONENTS  0.9162000D+02 0.3767000D+02 0.1591000D+02 0.5850000D+01 0.2542000D+01
EXPONENTS  0.1057000D+01 0.1455000D+00 0.2055000D+06 0.3078000D+05 0.7006000D+04
EXPONENTS  0.1985000D+04 0.6491000D+03 0.2350000D+03 0.9162000D+02 0.3767000D+02
EXPONENTS  0.1591000D+02 0.5850000D+01 0.2542000D+01 0.1057000D+01 0.1455000D+00
EXPONENTS  0.2931000D+00 0.5650000D-01 0.2210000D-01 0.4444000D+03 0.1051000D+03
EXPONENTS  0.3347000D+02 0.1233000D+02 0.4869000D+01 0.1961000D+01 0.1888000D+00
EXPONENTS  0.4444000D+03 0.1051000D+03 0.3347000D+02 0.1233000D+02 0.4869000D+01
EXPONENTS  0.1961000D+01 0.1888000D+00 0.4444000D+03 0.1051000D+03 0.3347000D+02
EXPONENTS  0.1233000D+02 0.4869000D+01 0.1961000D+01 0.1888000D+00 0.4444000D+03
EXPONENTS  0.1051000D+03 0.3347000D+02 0.1233000D+02 0.4869000D+01 0.1961000D+01
EXPONENTS  0.1888000D+00 0.4444000D+03 0.1051000D+03 0.3347000D+02 0.1233000D+02
EXPONENTS  0.4869000D+01 0.1961000D+01 0.1888000D+00 0.4444000D+03 0.1051000D+03
EXPONENTS  0.3347000D+02 0.1233000D+02 0.4869000D+01 0.1961000D+01 0.1888000D+00
EXPONENTS  0.7834000D+00 0.7834000D+00 0.7834000D+00 0.5557000D-01 0.5557000D-01
EXPONENTS  0.5557000D-01 0.1460000D-01 0.1460000D-01 0.1460000D-01 0.1090000D+00
EXPONENTS  0.1090000D+00 0.1090000D+00 0.1090000D+00 0.1090000D+00 0.1090000D+00
EXPONENTS  0.3330000D+00 0.3330000D+00 0.3330000D+00 0.3330000D+00 0.3330000D+00
EXPONENTS  0.3330000D+00 0.3560000D-01 0.3560000D-01 0.3560000D-01 0.3560000D-01
EXPONENTS  0.3560000D-01 0.3560000D-01 0.2440000D+00 0.2440000D+00 0.2440000D+00
EXPONENTS  0.2440000D+00 0.2440000D+00 0.2440000D+00 0.2440000D+00 0.2440000D+00
EXPONENTS  0.2440000D+00 0.2440000D+00 0.8580000D-01 0.8580000D-01 0.8580000D-01
EXPONENTS  0.8580000D-01 0.8580000D-01 0.8580000D-01 0.8580000D-01 0.8580000D-01
EXPONENTS  0.8580000D-01 0.8580000D-01 0.1950000D+05 0.2923000D+04 0.6645000D+03
EXPONENTS  0.1875000D+03 0.6062000D+02 0.2142000D+02 0.7950000D+01 0.8815000D+00
EXPONENTS  0.1950000D+05 0.2923000D+04 0.6645000D+03 0.1875000D+03 0.6062000D+02
EXPONENTS  0.2142000D+02 0.7950000D+01 0.8815000D+00 0.2257000D+01 0.3041000D+00
EXPONENTS  0.9158000D-01 0.4388000D+02 0.9926000D+01 0.2930000D+01 0.4388000D+02
EXPONENTS  0.9926000D+01 0.2930000D+01 0.4388000D+02 0.9926000D+01 0.2930000D+01
EXPONENTS  0.9132000D+00 0.9132000D+00 0.9132000D+00 0.2672000D+00 0.2672000D+00
EXPONENTS  0.2672000D+00 0.7361000D-01 0.7361000D-01 0.7361000D-01 0.3107000D+01
EXPONENTS  0.3107000D+01 0.3107000D+01 0.3107000D+01 0.3107000D+01 0.3107000D+01
EXPONENTS  0.8550000D+00 0.8550000D+00 0.8550000D+00 0.8550000D+00 0.8550000D+00
EXPONENTS  0.8550000D+00 0.2920000D+00 0.2920000D+00 0.2920000D+00 0.2920000D+00
EXPONENTS  0.2920000D+00 0.2920000D+00 0.1917000D+01 0.1917000D+01 0.1917000D+01
EXPONENTS  0.1917000D+01 0.1917000D+01 0.1917000D+01 0.1917000D+01 0.1917000D+01
EXPONENTS  0.1917000D+01 0.1917000D+01 0.7240000D+00 0.7240000D+00 0.7240000D+00
EXPONENTS  0.7240000D+00 0.7240000D+00 0.7240000D+00 0.7240000D+00 0.7240000D+00
EXPONENTS  0.7240000D+00 0.7240000D+00 0.1950000D+05 0.2923000D+04 0.6645000D+03
EXPONENTS  0.1875000D+03 0.6062000D+02 0.2142000D+02 0.7950000D+01 0.8815000D+00
EXPONENTS  0.1950000D+05 0.2923000D+04 0.6645000D+03 0.1875000D+03 0.6062000D+02
EXPONENTS  0.2142000D+02 0.7950000D+01 0.8815000D+00 0.2257000D+01 0.3041000D+00
EXPONENTS  0.9158000D-01 0.4388000D+02 0.9926000D+01 0.2930000D+01 0.4388000D+02
EXPONENTS  0.9926000D+01 0.2930000D+01 0.4388000D+02 0.9926000D+01 0.2930000D+01
EXPONENTS  0.9132000D+00 0.9132000D+00 0.9132000D+00 0.2672000D+00 0.2672000D+00
EXPONENTS  0.2672000D+00 0.7361000D-01 0.7361000D-01 0.7361000D-01 0.3107000D+01
EXPONENTS  0.3107000D+01 0.3107000D+01 0.3107000D+01 0.3107000D+01 0.3107000D+01
EXPONENTS  0.8550000D+00 0.8550000D+00 0.8550000D+00 0.8550000D+00 0.8550000D+00
EXPONENTS  0.8550000D+00 0.2920000D+00 0.2920000D+00 0.2920000D+00 0.2920000D+00
EXPONENTS  0.2920000D+00 0.2920000D+00 0.1917000D+01 0.1917000D+01 0.1917000D+01
EXPONENTS  0.1917000D+01 0.1917000D+01 0.1917000D+01 0.1917000D+01 0.1917000D+01
EXPONENTS  0.1917000D+01 0.1917000D+01 0.7240000D+00 0.7240000D+00 0.7240000D+00
EXPONENTS  0.7240000D+00 0.7240000D+00 0.7240000D+00 0.7240000D+00 0.7240000D+00
EXPONENTS  0.7240000D+00 0.7240000D+00 0.1950000D+05 0.2923000D+04 0.6645000D+03
EXPONENTS  0.1875000D+03 0.6062000D+02 0.2142000D+02 0.7950000D+01 0.8815000D+00
EXPONENTS  0.1950000D+05 0.2923000D+04 0.6645000D+03 0.1875000D+03 0.6062000D+02
EXPONENTS  0.2142000D+02 0.7950000D+01 0.8815000D+00 0.2257000D+01 0.3041000D+00
EXPONENTS  0.9158000D-01 0.4388000D+02 0.9926000D+01 0.2930000D+01 0.4388000D+02
EXPONENTS  0.9926000D+01 0.2930000D+01 0.4388000D+02 0.9926000D+01 0.2930000D+01
EXPONENTS  0.9132000D+00 0.9132000D+00 0.9132000D+00 0.2672000D+00 0.2672000D+00
EXPONENTS  0.2672000D+00 0.7361000D-01 0.7361000D-01 0.7361000D-01 0.3107000D+01
EXPONENTS  0.3107000D+01 0.3107000D+01 0.3107000D+01 0.3107000D+01 0.3107000D+01
EXPONENTS  0.8550000D+00 0.8550000D+00 0.8550000D+00 0.8550000D+00 0.8550000D+00
EXPONENTS  0.8550000D+00 0.2920000D+00 0.2920000D+00 0.2920000D+00 0.2920000D+00
EXPONENTS  0.2920000D+00 0.2920000D+00 0.1917000D+01 0.1917000D+01 0.1917000D+01
EXPONENTS  0.1917000D+01 0.1917000D+01 0.1917000D+01 0.1917000D+01 0.1917000D+01
EXPONENTS  0.1917000D+01 0.1917000D+01 0.7240000D+00 0.7240000D+00 0.7240000D+00
EXPONENTS  0.7240000D+00 0.7240000D+00 0.7240000D+00 0.7240000D+00 0.7240000D+00
EXPONENTS  0.7240000D+00 0.7240000D+00 0.1950000D+05 0.2923000D+04 0.6645000D+03
EXPONENTS  0.1875000D+03 0.6062000D+02 0.2142000D+02 0.7950000D+01 0.8815000D+00
EXPONENTS  0.1950000D+05 0.2923000D+04 0.6645000D+03 0.1875000D+03 0.6062000D+02
EXPONENTS  0.2142000D+02 0.7950000D+01 0.8815000D+00 0.2257000D+01 0.3041000D+00
EXPONENTS  0.9158000D-01 0.4388000D+02 0.9926000D+01 0.2930000D+01 0.4388000D+02
EXPONENTS  0.9926000D+01 0.2930000D+01 0.4388000D+02 0.9926000D+01 0.2930000D+01
EXPONENTS  0.9132000D+00 0.9132000D+00 0.9132000D+00 0.2672000D+00 0.2672000D+00
EXPONENTS  0.2672000D+00 0.7361000D-01 0.7361000D-01 0.7361000D-01 0.3107000D+01
EXPONENTS  0.3107000D+01 0.3107000D+01 0.3107000D+01 0.3107000D+01 0.3107000D+01
EXPONENTS  0.8550000D+00 0.8550000D+00 0.8550000D+00 0.8550000D+00 0.8550000D+00
EXPONENTS  0.8550000D+00 0.2920000D+00 0.2920000D+00 0.2920000D+00 0.2920000D+00
EXPONENTS  0.2920000D+00 0.2920000D+00 0.1917000D+01 0.1917000D+01 0.1917000D+01
EXPONENTS  0.1917000D+01 0.1917000D+01 0.1917000D+01 0.1917000D+01 0.1917000D+01
EXPONENTS  0.1917000D+01 0.1917000D+01 0.7240000D+00 0.7240000D+00 0.7240000D+00
EXPONENTS  0.7240000D+00 0.7240000D+00 0.7240000D+00 0.7240000D+00 0.7240000D+00
EXPONENTS  0.7240000D+00 0.7240000D+00 0.1950000D+05 0.2923000D+04 0.6645000D+03
EXPONENTS  0.1875000D+03 0.6062000D+02 0.2142000D+02 0.7950000D+01 0.8815000D+00
EXPONENTS  0.1950000D+05 0.2923000D+04 0.6645000D+03 0.1875000D+03 0.6062000D+02
EXPONENTS  0.2142000D+02 0.7950000D+01 0.8815000D+00 0.2257000D+01 0.3041000D+00
EXPONENTS  0.9158000D-01 0.4388000D+02 0.9926000D+01 0.2930000D+01 0.4388000D+02
EXPONENTS  0.9926000D+01 0.2930000D+01 0.4388000D+02 0.9926000D+01 0.2930000D+01
EXPONENTS  0.9132000D+00 0.9132000D+00 0.9132000D+00 0.2672000D+00 0.2672000D+00
EXPONENTS  0.2672000D+00 0.7361000D-01 0.7361000D-01 0.7361000D-01 0.3107000D+01
EXPONENTS  0.3107000D+01 0.3107000D+01 0.3107000D+01 0.3107000D+01 0.3107000D+01
EXPONENTS  0.8550000D+00 0.8550000D+00 0.8550000D+00 0.8550000D+00 0.8550000D+00
EXPONENTS  0.8550000D+00 0.2920000D+00 0.2920000D+00 0.2920000D+00 0.2920000D+00
EXPONENTS  0.2920000D+00 0.2920000D+00 0.1917000D+01 0.1917000D+01 0.1917000D+01
EXPONENTS  0.1917000D+01 0.1917000D+01 0.1917000D+01 0.1917000D+01 0.1917000D+01
EXPONENTS  0.1917000D+01 0.1917000D+01 0.7240000D+00 0.7240000D+00 0.7240000D+00
EXPONENTS  0.7240000D+00 0.7240000D+00 0.7240000D+00 0.7240000D+00 0.7240000D+00
EXPONENTS  0.7240000D+00 0.7240000D+00 0.1950000D+05 0.2923000D+04 0.6645000D+03
EXPONENTS  0.1875000D+03 0.6062000D+02 0.2142000D+02 0.7950000D+01 0.8815000D+00
EXPONENTS  0.1950000D+05 0.2923000D+04 0.6645000D+03 0.1875000D+03 0.6062000D+02
EXPONENTS  0.2142000D+02 0.7950000D+01 0.8815000D+00 0.2257000D+01 0.3041000D+00
EXPONENTS  0.9158000D-01 0.4388000D+02 0.9926000D+01 0.2930000D+01 0.4388000D+02
EXPONENTS  0.9926000D+01 0.2930000D+01 0.4388000D+02 0.9926000D+01 0.2930000D+01
EXPONENTS  0.9132000D+00 0.9132000D+00 0.9132000D+00 0.2672000D+00 0.2672000D+00
EXPONENTS  0.2672000D+00 0.7361000D-01 0.7361000D-01 0.7361000D-01 0.3107000D+01
EXPONENTS  0.3107000D+01 0.3107000D+01 0.3107000D+01 0.3107000D+01 0.3107000D+01
EXPONENTS  0.8550000D+00 0.8550000D+00 0.8550000D+00 0.8550000D+00 0.8550000D+00
EXPONENTS  0.8550000D+00 0.2920000D+00 0.2920000D+00 0.2920000D+00 0.2920000D+00
EXPONENTS  0.2920000D+00 0.2920000D+00 0.1917000D+01 0.1917000D+01 0.1917000D+01
EXPONENTS  0.1917000D+01 0.1917000D+01 0.1917000D+01 0.1917000D+01 0.1917000D+01
EXPONENTS  0.1917000D+01 0.1917000D+01 0.7240000D+00 0.7240000D+00 0.7240000D+00
EXPONENTS  0.7240000D+00 0.7240000D+00 0.7240000D+00 0.7240000D+00 0.7240000D+00
EXPONENTS  0.7240000D+00 0.7240000D+00
MO    1     MO 0.0        OCC NO =    2.0000000  ORB. ENERGY =  -55.863839
 -0.33110634D+00 -0.61905411D+00 -0.10688697D+01 -0.17241838D+01 -0.25877102D+01
 -0.34893420D+01 -0.39042617D+01 -0.30458519D+01 -0.11457153D+01 -0.84511054D-01
  0.49834247D-02 -0.13762942D-02 -0.85964494D-04  0.18840477D-02  0.35284244D-02
  0.60928179D-02  0.99114811D-02  0.15088220D-01  0.21345853D-01  0.26322898D-01
  0.26385616D-01  0.14844785D-01 -0.52819918D-02 -0.12510304D-01 -0.50372555D-02
  0.29869826D-04 -0.98548491D-03 -0.18440659D-02 -0.31887816D-02 -0.51809678D-02
 -0.79143521D-02 -0.11202978D-01 -0.13974791D-01 -0.14208581D-01 -0.83770511D-02
  0.33414940D-02  0.88380789D-02  0.72176420D-02 -0.38551749D-02  0.21003893D-02
  0.85005143D-03  0.12339166D-03  0.53677432D-02  0.71071078D-02  0.79665465D-02
  0.70148501D-02  0.42131243D-02  0.15317831D-02  0.19639846D-05  0.28783172D-14
  0.38110077D-14  0.42718601D-14  0.37615369D-14  0.22591819D-14  0.82138012D-15
  0.10531373D-17 -0.35703212D-14 -0.47272487D-14 -0.52988991D-14 -0.46658841D-14
 -0.28023335D-14 -0.10188560D-14 -0.13063322D-17 -0.45485908D-02 -0.63481461D-02
 -0.68101568D-02 -0.65531050D-02 -0.36098042D-02 -0.17564905D-02  0.48778998D-03
 -0.20948566D-14 -0.29236430D-14 -0.31364223D-14 -0.30180369D-14 -0.16624978D-14
 -0.80895287D-15  0.22465200D-15  0.30436640D-14  0.42478264D-14  0.45569783D-14
  0.43849735D-14  0.24154803D-14  0.11753458D-14 -0.32640193D-15 -0.15435216D-03
 -0.41931032D-15  0.58806929D-16 -0.34180957D-03  0.95038321D-15 -0.28994490D-15
 -0.24353431D-05  0.12642688D-16 -0.29481042D-17 -0.61628747D-04 -0.53654393D-04
  0.11528314D-03  0.67163920D-15  0.60209864D-16  0.31482563D-18 -0.14454929D-03
  0.83744225D-05  0.13617486D-03 -0.21442986D-15  0.24906272D-15  0.12370175D-18
  0.33773004D-06 -0.12363634D-05  0.89863335D-06 -0.47790694D-16  0.92469345D-17
  0.44498381D-19  0.66338867D-04  0.56762389D-16  0.15568674D-16 -0.37719795D-03
 -0.11382265D-15 -0.50924827D-16  0.17818135D-03 -0.56464517D-16  0.42188058D-17
  0.61333848D-18  0.63841065D-05  0.35446259D-16 -0.16733014D-17 -0.90876695D-05
 -0.73102500D-16  0.64142228D-17 -0.10064650D-04 -0.33236277D-16 -0.13943186D-17
  0.76752638D-19  0.33110638D+00  0.61905419D+00  0.10688698D+01  0.17241840D+01
  0.25877105D+01  0.34893424D+01  0.39042621D+01  0.30458523D+01  0.11457154D+01
  0.84511064D-01 -0.49834252D-02  0.13762944D-02  0.85964503D-04 -0.18840479D-02
 -0.35284248D-02 -0.60928185D-02 -0.99114821D-02 -0.15088221D-01 -0.21345855D-01
 -0.26322901D-01 -0.26385618D-01 -0.14844786D-01  0.52819923D-02  0.12510305D-01
  0.50372560D-02 -0.29869829D-04  0.98548501D-03  0.18440661D-02  0.31887819D-02
  0.51809683D-02  0.79143529D-02  0.11202979D-01  0.13974793D-01  0.14208582D-01
  0.83770519D-02 -0.33414943D-02 -0.88380797D-02 -0.72176427D-02  0.38551753D-02
 -0.21003896D-02 -0.85005137D-03 -0.12339167D-03  0.53677436D-02  0.71071082D-02
  0.79665471D-02  0.70148506D-02  0.42131246D-02  0.15317832D-02  0.19639847D-05
 -0.30118874D-14 -0.39878600D-14 -0.44700986D-14 -0.39360935D-14 -0.23640207D-14
 -0.85949681D-15 -0.11020089D-17  0.37592098D-14  0.49773449D-14  0.55792385D-14
  0.49127338D-14  0.29505916D-14  0.10727588D-14  0.13754440D-17 -0.45485911D-02
 -0.63481465D-02 -0.68101573D-02 -0.65531054D-02 -0.36098045D-02 -0.17564906D-02
  0.48779001D-03  0.21509578D-14  0.30019396D-14  0.32204172D-14  0.30988614D-14
  0.17070203D-14  0.83061702D-15 -0.23066829D-15 -0.32128840D-14 -0.44839947D-14
 -0.48103347D-14 -0.46287669D-14 -0.25497748D-14 -0.12406920D-14  0.34454905D-15
 -0.15435217D-03  0.44177769D-15 -0.76677261D-16 -0.34180957D-03 -0.92911526D-15
  0.30615119D-15 -0.24353433D-05 -0.13402239D-16  0.28998829D-17  0.61628744D-04
  0.53654400D-04 -0.11528314D-03  0.60504748D-15  0.78093513D-16 -0.92566422D-19
  0.14454930D-03 -0.83744155D-05 -0.13617488D-03 -0.27324172D-15  0.25903027D-15
 -0.41459677D-18 -0.33773023D-06  0.12363636D-05 -0.89863336D-06 -0.52000598D-16
  0.10290209D-16 -0.23116129D-19  0.66338872D-04 -0.81111629D-16 -0.13266155D-16
 -0.37719798D-03  0.17758067D-15  0.51813915D-16  0.17818137D-03  0.65754220D-16
 -0.12015450D-16 -0.50964096D-18  0.63841062D-05 -0.38665721D-16  0.19288787D-17
 -0.90876683D-05  0.84764430D-16 -0.54813542D-17 -0.10064650D-04  0.31232734D-16
 -0.30528205D-18  0.79582100D-19  0.18311252D-10  0.34132967D-10  0.57863770D-10
  0.87622802D-10  0.10957262D-09  0.94331820D-10  0.36264596D-10 -0.15714043D-12
 -0.12113296D-10 -0.22746625D-10 -0.38733580D-10 -0.60675923D-10 -0.81312876D-10
 -0.87462961D-10 -0.52512647D-10  0.34534526D-10 -0.97348019D-11 -0.41684125D-10
 -0.40644344D-10  0.64249977D-03  0.62835074D-03  0.41517790D-03  0.23906998D-16
  0.23380522D-16  0.15448500D-16  0.12826611D-10  0.12544146D-10  0.82884474D-11
 -0.63329486D-03 -0.13876128D-16 -0.15872638D-10  0.12513728D-02 -0.11542525D-16
  0.41483925D-10 -0.26195468D-03  0.90835118D-17  0.80103582D-11 -0.29174021D-10
  0.20440757D-11  0.27129945D-10  0.10831097D-14  0.78722103D-04 -0.72707291D-16
  0.12055396D-10 -0.20352388D-11 -0.10020157D-10 -0.47692587D-15  0.93907792D-04
  0.26216408D-16 -0.98187948D-11  0.98396957D-11 -0.20900885D-13  0.37029905D-15
 -0.67412999D-03  0.81671921D-17  0.99840953D-04 -0.27006450D-16 -0.10458513D-10
  0.72348198D-03 -0.11696424D-15 -0.18260500D-11 -0.10230048D-02  0.19798359D-15
  0.33201588D-10  0.44624315D-15 -0.37954717D-04  0.88407112D-17  0.30112921D-11
 -0.30029616D-03  0.31234601D-16  0.41986301D-11  0.41416031D-03 -0.57756734D-16
 -0.13232507D-10 -0.19185214D-15  0.18311236D-10  0.34132937D-10  0.57863720D-10
  0.87622725D-10  0.10957252D-09  0.94331737D-10  0.36264564D-10 -0.15714029D-12
 -0.12113274D-10 -0.22746584D-10 -0.38733509D-10 -0.60675812D-10 -0.81312727D-10
 -0.87462801D-10 -0.52512551D-10  0.34534463D-10 -0.97347611D-11 -0.41684046D-10
 -0.40644263D-10  0.64249977D-03  0.62835074D-03  0.41517790D-03  0.20362253D-16
  0.19913839D-16  0.13157915D-16 -0.12826630D-10 -0.12544164D-10 -0.82884593D-11
 -0.63329486D-03 -0.11492279D-16  0.15872654D-10  0.12513728D-02 -0.13120469D-16
 -0.41483918D-10 -0.26195468D-03  0.94339472D-17 -0.80103736D-11 -0.29173957D-10
  0.20441155D-11  0.27129842D-10  0.10862900D-14 -0.78722103D-04  0.72906088D-16
  0.12055361D-10 -0.20352469D-11 -0.10020114D-10 -0.47780367D-15 -0.93907792D-04
 -0.26315239D-16 -0.98187749D-11  0.98396955D-11 -0.20920588D-13  0.37078526D-15
  0.67412999D-03 -0.87592869D-17  0.99840953D-04 -0.29967876D-16  0.10458557D-10
  0.72348198D-03 -0.11056264D-15  0.18259653D-11 -0.10230048D-02  0.20046627D-15
 -0.33201637D-10 -0.44588854D-15 -0.37954717D-04  0.95700705D-17 -0.30113041D-11
 -0.30029616D-03  0.29612204D-16 -0.41986064D-11  0.41416031D-03 -0.58322416D-16
  0.13232519D-10  0.19188391D-15 -0.28326391D-03 -0.52801620D-03 -0.89511726D-03
 -0.13554713D-02 -0.16950217D-02 -0.14592558D-02 -0.56099119D-03  0.24308667D-05
  0.18699511D-03  0.35114369D-03  0.59793715D-03  0.93666501D-03  0.12552413D-02
  0.13501813D-02  0.81064706D-03 -0.53311561D-03  0.15010809D-03  0.11599811D-02
  0.56486206D-03 -0.39912785D-04 -0.39033832D-04 -0.25791303D-04  0.60779097D-04
  0.59440629D-04  0.39274937D-04 -0.78002500D-17 -0.76284741D-17 -0.50404554D-17
  0.43685342D-04 -0.21356522D-04  0.28017443D-18 -0.30780900D-03 -0.59396031D-03
  0.13627401D-16  0.13929328D-04 -0.74576523D-04  0.26779685D-16  0.50199984D-04
 -0.77692358D-04  0.27492374D-04 -0.94950720D-04 -0.38594370D-16  0.55040555D-16
 -0.26806160D-04  0.62892591D-04 -0.36086432D-04  0.67550915D-04  0.23776263D-16
 -0.15626102D-16 -0.32748711D-04  0.52232325D-04 -0.19483614D-04  0.11187199D-03
 -0.22512894D-16 -0.11150730D-16 -0.11760532D-03 -0.17181652D-03  0.38861133D-16
 -0.25054240D-03 -0.21877990D-04 -0.44504524D-16  0.60335835D-03  0.53732756D-03
 -0.72078876D-16 -0.17544987D-15  0.46293407D-04  0.36908611D-04 -0.11697246D-16
  0.21651202D-04  0.18732691D-04  0.15896957D-16 -0.16053142D-03 -0.12945852D-03
  0.19194781D-16  0.48154257D-16 -0.28326391D-03 -0.52801620D-03 -0.89511726D-03
 -0.13554713D-02 -0.16950217D-02 -0.14592558D-02 -0.56099119D-03  0.24308667D-05
  0.18699511D-03  0.35114369D-03  0.59793715D-03  0.93666501D-03  0.12552413D-02
  0.13501813D-02  0.81064706D-03 -0.53311561D-03  0.15010809D-03  0.11599811D-02
  0.56486206D-03 -0.39912785D-04 -0.39033832D-04 -0.25791303D-04 -0.60779097D-04
 -0.59440629D-04 -0.39274937D-04 -0.96815502D-17 -0.94683446D-17 -0.62561356D-17
  0.43685342D-04  0.21356522D-04  0.45334766D-18 -0.30780900D-03  0.59396031D-03
  0.14711839D-16  0.13929328D-04  0.74576523D-04  0.27556147D-16  0.50199984D-04
 -0.77692358D-04  0.27492374D-04  0.94950720D-04 -0.34328449D-16 -0.49383424D-16
 -0.26806160D-04  0.62892591D-04 -0.36086432D-04 -0.67550915D-04  0.22413613D-16
  0.13173064D-16 -0.32748711D-04  0.52232325D-04 -0.19483614D-04 -0.11187199D-03
 -0.22328659D-16  0.12598469D-16 -0.11760532D-03  0.17181652D-03  0.38259438D-16
 -0.25054240D-03  0.21877990D-04 -0.39828274D-16  0.60335835D-03 -0.53732756D-03
 -0.74950040D-16  0.17531402D-15  0.46293407D-04 -0.36908611D-04 -0.11626132D-16
  0.21651202D-04 -0.18732691D-04  0.14762000D-16 -0.16053142D-03  0.12945852D-03
  0.20116397D-16 -0.48358097D-16  0.28326393D-03  0.52801624D-03  0.89511734D-03
  0.13554715D-02  0.16950218D-02  0.14592559D-02  0.56099124D-03 -0.24308669D-05
 -0.18699512D-03 -0.35114372D-03 -0.59793720D-03 -0.93666509D-03 -0.12552414D-02
 -0.13501814D-02 -0.81064713D-03  0.53311566D-03 -0.15010811D-03 -0.11599812D-02
 -0.56486212D-03 -0.39912808D-04 -0.39033854D-04 -0.25791318D-04 -0.60779093D-04
 -0.59440625D-04 -0.39274934D-04  0.30688980D-16  0.30013152D-16  0.19830958D-16
  0.43685360D-04  0.21356517D-04 -0.16679021D-16 -0.30780904D-03  0.59396037D-03
  0.29631944D-17  0.13929324D-04  0.74576529D-04 -0.26202831D-16 -0.50199993D-04
  0.77692369D-04 -0.27492375D-04 -0.94950728D-04 -0.53975710D-16 -0.55834278D-16
  0.26806164D-04 -0.62892599D-04  0.36086434D-04  0.67550921D-04  0.30171237D-16
  0.16216536D-16  0.32748713D-04 -0.52232329D-04  0.19483617D-04  0.11187201D-03
 -0.22457438D-16  0.73508865D-17 -0.11760533D-03  0.17181654D-03 -0.38237551D-16
 -0.25054243D-03  0.21877996D-04  0.47357610D-16  0.60335842D-03 -0.53732762D-03
  0.67355044D-16 -0.20211156D-15  0.46293412D-04 -0.36908615D-04  0.11296636D-16
  0.21651206D-04 -0.18732694D-04 -0.16327088D-16 -0.16053144D-03  0.12945854D-03
 -0.17562820D-16  0.53829397D-16  0.28326393D-03  0.52801624D-03  0.89511734D-03
  0.13554715D-02  0.16950218D-02  0.14592559D-02  0.56099124D-03 -0.24308669D-05
 -0.18699512D-03 -0.35114372D-03 -0.59793720D-03 -0.93666509D-03 -0.12552414D-02
 -0.13501814D-02 -0.81064713D-03  0.53311566D-03 -0.15010811D-03 -0.11599812D-02
 -0.56486212D-03 -0.39912808D-04 -0.39033854D-04 -0.25791318D-04  0.60779093D-04
  0.59440625D-04  0.39274934D-04  0.29573744D-16  0.28922476D-16  0.19110303D-16
  0.43685360D-04 -0.21356517D-04 -0.16149204D-16 -0.30780904D-03 -0.59396037D-03
  0.30505420D-17  0.13929324D-04 -0.74576529D-04 -0.26729386D-16 -0.50199993D-04
  0.77692369D-04 -0.27492375D-04  0.94950728D-04 -0.53647198D-16  0.51720493D-16
  0.26806164D-04 -0.62892599D-04  0.36086434D-04 -0.67550921D-04  0.30110485D-16
 -0.14352817D-16  0.32748713D-04 -0.52232329D-04  0.19483617D-04 -0.11187201D-03
 -0.22530919D-16 -0.77296039D-17 -0.11760533D-03 -0.17181654D-03 -0.38525527D-16
 -0.25054243D-03 -0.21877996D-04  0.50601316D-16  0.60335842D-03  0.53732762D-03
  0.64975265D-16  0.20597526D-15  0.46293412D-04  0.36908615D-04  0.11375880D-16
  0.21651206D-04  0.18732694D-04 -0.17164115D-16 -0.16053144D-03 -0.12945854D-03
 -0.16963525D-16 -0.54843918D-16
MO    2     MO 0.0        OCC NO =    2.0000000  ORB. ENERGY =  -55.863828
  0.33100147D+00  0.61885804D+00  0.10685311D+01  0.17236377D+01  0.25868906D+01
  0.34882368D+01  0.39030251D+01  0.30448872D+01  0.11453524D+01  0.84484286D-01