 Molden2AIM, Version 4.0.0 (06/02/2016)           Time: Sat Jun 30 01:26:01 2018
GAUSSIAN             42 MOL ORBITALS    656 PRIMITIVES        4 NUCLEI
  As   1    (CENTRE  1)   0.00000000 -0.00001134  0.93425036  CHARGE = 33.0
  Cl   2    (CENTRE  2)   0.00000000 -3.63878482 -1.03254069  CHARGE = 17.0
  Cl   3    (CENTRE  3)   3.15114288  1.81949256 -1.03253313  CHARGE = 17.0
  Cl   4    (CENTRE  4)  -3.15114288  1.81949256 -1.03253313  CHARGE = 17.0
CENTRE ASSIGNMENTS    1  1  1  1  1  1  1  1  1  1  1  1  1  1  1  1  1  1  1  1
CENTRE ASSIGNMENTS    1  1  1  1  1  1  1  1  1  1  1  1  1  1  1  1  1  1  1  1
CENTRE ASSIGNMENTS    1  1  1  1  1  1  1  1  1  1  1  1  1  1  1  1  1  1  1  1
CENTRE ASSIGNMENTS    1  1  1  1  1  1  1  1  1  1  1  1  1  1  1  1  1  1  1  1
CENTRE ASSIGNMENTS    1  1  1  1  1  1  1  1  1  1  1  1  1  1  1  1  1  1  1  1
CENTRE ASSIGNMENTS    1  1  1  1  1  1  1  1  1  1  1  1  1  1  1  1  1  1  1  1
CENTRE ASSIGNMENTS    1  1  1  1  1  1  1  1  1  1  1  1  1  1  1  1  1  1  1  1
CENTRE ASSIGNMENTS    1  1  1  1  1  1  1  1  1  1  1  1  1  1  1  1  1  1  1  1
CENTRE ASSIGNMENTS    1  1  1  1  1  1  1  1  1  1  1  1  1  1  1  1  1  1  1  1
CENTRE ASSIGNMENTS    1  1  1  1  1  1  1  1  1  1  1  1  1  1  1  1  1  1  1  1
CENTRE ASSIGNMENTS    1  1  1  1  1  1  1  1  1  1  1  1  1  1  1  1  1  1  1  1
CENTRE ASSIGNMENTS    1  1  1  1  1  1  1  1  1  1  1  1  1  1  1  1  1  1  1  1
CENTRE ASSIGNMENTS    1  1  1  1  1  1  1  1  1  1  1  1  1  1  1  1  1  1  1  1
CENTRE ASSIGNMENTS    1  1  1  2  2  2  2  2  2  2  2  2  2  2  2  2  2  2  2  2
CENTRE ASSIGNMENTS    2  2  2  2  2  2  2  2  2  2  2  2  2  2  2  2  2  2  2  2
CENTRE ASSIGNMENTS    2  2  2  2  2  2  2  2  2  2  2  2  2  2  2  2  2  2  2  2
CENTRE ASSIGNMENTS    2  2  2  2  2  2  2  2  2  2  2  2  2  2  2  2  2  2  2  2
CENTRE ASSIGNMENTS    2  2  2  2  2  2  2  2  2  2  2  2  2  2  2  2  2  2  2  2
CENTRE ASSIGNMENTS    2  2  2  2  2  2  2  2  2  2  2  2  2  2  2  2  2  2  2  2
CENTRE ASSIGNMENTS    2  2  2  2  2  2  2  2  2  2  2  2  2  2  3  3  3  3  3  3
CENTRE ASSIGNMENTS    3  3  3  3  3  3  3  3  3  3  3  3  3  3  3  3  3  3  3  3
CENTRE ASSIGNMENTS    3  3  3  3  3  3  3  3  3  3  3  3  3  3  3  3  3  3  3  3
CENTRE ASSIGNMENTS    3  3  3  3  3  3  3  3  3  3  3  3  3  3  3  3  3  3  3  3
CENTRE ASSIGNMENTS    3  3  3  3  3  3  3  3  3  3  3  3  3  3  3  3  3  3  3  3
CENTRE ASSIGNMENTS    3  3  3  3  3  3  3  3  3  3  3  3  3  3  3  3  3  3  3  3
CENTRE ASSIGNMENTS    3  3  3  3  3  3  3  3  3  3  3  3  3  3  3  3  3  3  3  3
CENTRE ASSIGNMENTS    3  3  3  3  3  4  4  4  4  4  4  4  4  4  4  4  4  4  4  4
CENTRE ASSIGNMENTS    4  4  4  4  4  4  4  4  4  4  4  4  4  4  4  4  4  4  4  4
CENTRE ASSIGNMENTS    4  4  4  4  4  4  4  4  4  4  4  4  4  4  4  4  4  4  4  4
CENTRE ASSIGNMENTS    4  4  4  4  4  4  4  4  4  4  4  4  4  4  4  4  4  4  4  4
CENTRE ASSIGNMENTS    4  4  4  4  4  4  4  4  4  4  4  4  4  4  4  4  4  4  4  4
CENTRE ASSIGNMENTS    4  4  4  4  4  4  4  4  4  4  4  4  4  4  4  4  4  4  4  4
CENTRE ASSIGNMENTS    4  4  4  4  4  4  4  4  4  4  4  4  4  4  4  4
TYPE ASSIGNMENTS      1  1  1  1  1  1  1  1  1  1  1  1  1  1  1  1  1  1  1  1
TYPE ASSIGNMENTS      1  1  1  1  1  1  1  1  1  1  1  1  1  1  1  1  1  1  1  1
TYPE ASSIGNMENTS      1  1  1  1  1  1  1  1  1  1  1  1  1  1  1  1  1  1  1  1
TYPE ASSIGNMENTS      1  1  1  1  1  1  1  1  1  1  1  1  1  1  1  2  2  2  2  2
TYPE ASSIGNMENTS      2  2  2  2  2  2  3  3  3  3  3  3  3  3  3  3  3  4  4  4
TYPE ASSIGNMENTS      4  4  4  4  4  4  4  4  2  2  2  2  2  2  2  2  2  2  2  3
TYPE ASSIGNMENTS      3  3  3  3  3  3  3  3  3  3  4  4  4  4  4  4  4  4  4  4
TYPE ASSIGNMENTS      4  2  2  2  2  2  2  2  2  2  2  2  3  3  3  3  3  3  3  3
TYPE ASSIGNMENTS      3  3  3  4  4  4  4  4  4  4  4  4  4  4  2  3  4  2  3  4
TYPE ASSIGNMENTS      2  3  4  5  5  5  5  5  5  5  6  6  6  6  6  6  6  7  7  7
TYPE ASSIGNMENTS      7  7  7  7  8  8  8  8  8  8  8  9  9  9  9  9  9  9 10 10
TYPE ASSIGNMENTS     10 10 10 10 10  5  6  7  8  9 10  5  6  7  8  9 10  5  6  7
TYPE ASSIGNMENTS      8  9 10 11 12 13 17 14 15 18 19 16 20 11 12 13 17 14 15 18
TYPE ASSIGNMENTS     19 16 20  1  1  1  1  1  1  1  1  1  1  1  1  1  1  1  1  1
TYPE ASSIGNMENTS      1  1  1  1  1  1  1  1  1  1  1  1  1  1  1  1  1  1  1  1
TYPE ASSIGNMENTS      1  1  1  1  1  2  2  2  2  2  2  2  3  3  3  3  3  3  3  4
TYPE ASSIGNMENTS      4  4  4  4  4  4  2  2  2  2  2  2  2  3  3  3  3  3  3  3
TYPE ASSIGNMENTS      4  4  4  4  4  4  4  2  3  4  2  3  4  2  3  4  5  6  7  8
TYPE ASSIGNMENTS      9 10  5  6  7  8  9 10  5  6  7  8  9 10 11 12 13 17 14 15
TYPE ASSIGNMENTS     18 19 16 20 11 12 13 17 14 15 18 19 16 20  1  1  1  1  1  1
TYPE ASSIGNMENTS      1  1  1  1  1  1  1  1  1  1  1  1  1  1  1  1  1  1  1  1
TYPE ASSIGNMENTS      1  1  1  1  1  1  1  1  1  1  1  1  1  1  1  1  2  2  2  2
TYPE ASSIGNMENTS      2  2  2  3  3  3  3  3  3  3  4  4  4  4  4  4  4  2  2  2
TYPE ASSIGNMENTS      2  2  2  2  3  3  3  3  3  3  3  4  4  4  4  4  4  4  2  3
TYPE ASSIGNMENTS      4  2  3  4  2  3  4  5  6  7  8  9 10  5  6  7  8  9 10  5
TYPE ASSIGNMENTS      6  7  8  9 10 11 12 13 17 14 15 18 19 16 20 11 12 13 17 14
TYPE ASSIGNMENTS     15 18 19 16 20  1  1  1  1  1  1  1  1  1  1  1  1  1  1  1
TYPE ASSIGNMENTS      1  1  1  1  1  1  1  1  1  1  1  1  1  1  1  1  1  1  1  1
TYPE ASSIGNMENTS      1  1  1  1  1  1  1  2  2  2  2  2  2  2  3  3  3  3  3  3
TYPE ASSIGNMENTS      3  4  4  4  4  4  4  4  2  2  2  2  2  2  2  3  3  3  3  3
TYPE ASSIGNMENTS      3  3  4  4  4  4  4  4  4  2  3  4  2  3  4  2  3  4  5  6
TYPE ASSIGNMENTS      7  8  9 10  5  6  7  8  9 10  5  6  7  8  9 10 11 12 13 17
TYPE ASSIGNMENTS     14 15 18 19 16 20 11 12 13 17 14 15 18 19 16 20
EXPONENTS  0.8482340D+07 0.1270151D+07 0.2890570D+06 0.8187985D+05 0.2671656D+05
EXPONENTS  0.9647584D+04 0.3764119D+04 0.1561566D+04 0.6808147D+03 0.3092412D+03
EXPONENTS  0.1452574D+03 0.6973905D+02 0.3177032D+02 0.1539176D+02 0.7341526D+01
EXPONENTS  0.3323716D+01 0.1485867D+01 0.2115000D+00 0.8482340D+07 0.1270151D+07
EXPONENTS  0.2890570D+06 0.8187985D+05 0.2671656D+05 0.9647584D+04 0.3764119D+04
EXPONENTS  0.1561566D+04 0.6808147D+03 0.3092412D+03 0.1452574D+03 0.6973905D+02
EXPONENTS  0.3177032D+02 0.1539176D+02 0.7341526D+01 0.3323716D+01 0.1485867D+01
EXPONENTS  0.2115000D+00 0.8482340D+07 0.1270151D+07 0.2890570D+06 0.8187985D+05
EXPONENTS  0.2671656D+05 0.9647584D+04 0.3764119D+04 0.1561566D+04 0.6808147D+03
EXPONENTS  0.3092412D+03 0.1452574D+03 0.6973905D+02 0.3177032D+02 0.1539176D+02
EXPONENTS  0.7341526D+01 0.3323716D+01 0.1485867D+01 0.2115000D+00 0.8482340D+07
EXPONENTS  0.1270151D+07 0.2890570D+06 0.8187985D+05 0.2671656D+05 0.9647584D+04
EXPONENTS  0.3764119D+04 0.1561566D+04 0.6808147D+03 0.3092412D+03 0.1452574D+03
EXPONENTS  0.6973905D+02 0.3177032D+02 0.1539176D+02 0.7341526D+01 0.3323716D+01
EXPONENTS  0.1485867D+01 0.2115000D+00 0.4210860D+00 0.8897400D-01 0.3340700D-01
EXPONENTS  0.7423861D+04 0.1759517D+04 0.5702292D+03 0.2165800D+03 0.9073425D+02
EXPONENTS  0.4030879D+02 0.1855550D+02 0.8396543D+01 0.3767367D+01 0.1629701D+01
EXPONENTS  0.2225030D+00 0.7423861D+04 0.1759517D+04 0.5702292D+03 0.2165800D+03
EXPONENTS  0.9073425D+02 0.4030879D+02 0.1855550D+02 0.8396543D+01 0.3767367D+01
EXPONENTS  0.1629701D+01 0.2225030D+00 0.7423861D+04 0.1759517D+04 0.5702292D+03
EXPONENTS  0.2165800D+03 0.9073425D+02 0.4030879D+02 0.1855550D+02 0.8396543D+01
EXPONENTS  0.3767367D+01 0.1629701D+01 0.2225030D+00 0.7423861D+04 0.1759517D+04
EXPONENTS  0.5702292D+03 0.2165800D+03 0.9073425D+02 0.4030879D+02 0.1855550D+02
EXPONENTS  0.8396543D+01 0.3767367D+01 0.1629701D+01 0.2225030D+00 0.7423861D+04
EXPONENTS  0.1759517D+04 0.5702292D+03 0.2165800D+03 0.9073425D+02 0.4030879D+02
EXPONENTS  0.1855550D+02 0.8396543D+01 0.3767367D+01 0.1629701D+01 0.2225030D+00
EXPONENTS  0.7423861D+04 0.1759517D+04 0.5702292D+03 0.2165800D+03 0.9073425D+02
EXPONENTS  0.4030879D+02 0.1855550D+02 0.8396543D+01 0.3767367D+01 0.1629701D+01
EXPONENTS  0.2225030D+00 0.7423861D+04 0.1759517D+04 0.5702292D+03 0.2165800D+03
EXPONENTS  0.9073425D+02 0.4030879D+02 0.1855550D+02 0.8396543D+01 0.3767367D+01
EXPONENTS  0.1629701D+01 0.2225030D+00 0.7423861D+04 0.1759517D+04 0.5702292D+03
EXPONENTS  0.2165800D+03 0.9073425D+02 0.4030879D+02 0.1855550D+02 0.8396543D+01
EXPONENTS  0.3767367D+01 0.1629701D+01 0.2225030D+00 0.7423861D+04 0.1759517D+04
EXPONENTS  0.5702292D+03 0.2165800D+03 0.9073425D+02 0.4030879D+02 0.1855550D+02
EXPONENTS  0.8396543D+01 0.3767367D+01 0.1629701D+01 0.2225030D+00 0.5682630D+00
EXPONENTS  0.5682630D+00 0.5682630D+00 0.8040500D-01 0.8040500D-01 0.8040500D-01
EXPONENTS  0.2679900D-01 0.2679900D-01 0.2679900D-01 0.3210196D+03 0.9624931D+02
EXPONENTS  0.3664496D+02 0.1549396D+02 0.6891138D+01 0.3054831D+01 0.1314241D+01
EXPONENTS  0.3210196D+03 0.9624931D+02 0.3664496D+02 0.1549396D+02 0.6891138D+01
EXPONENTS  0.3054831D+01 0.1314241D+01 0.3210196D+03 0.9624931D+02 0.3664496D+02
EXPONENTS  0.1549396D+02 0.6891138D+01 0.3054831D+01 0.1314241D+01 0.3210196D+03
EXPONENTS  0.9624931D+02 0.3664496D+02 0.1549396D+02 0.6891138D+01 0.3054831D+01
EXPONENTS  0.1314241D+01 0.3210196D+03 0.9624931D+02 0.3664496D+02 0.1549396D+02
EXPONENTS  0.6891138D+01 0.3054831D+01 0.1314241D+01 0.3210196D+03 0.9624931D+02
EXPONENTS  0.3664496D+02 0.1549396D+02 0.6891138D+01 0.3054831D+01 0.1314241D+01
EXPONENTS  0.5134300D+00 0.5134300D+00 0.5134300D+00 0.5134300D+00 0.5134300D+00
EXPONENTS  0.5134300D+00 0.1877000D+00 0.1877000D+00 0.1877000D+00 0.1877000D+00
EXPONENTS  0.1877000D+00 0.1877000D+00 0.7000000D-01 0.7000000D-01 0.7000000D-01
EXPONENTS  0.7000000D-01 0.7000000D-01 0.7000000D-01 0.4158000D+00 0.4158000D+00
EXPONENTS  0.4158000D+00 0.4158000D+00 0.4158000D+00 0.4158000D+00 0.4158000D+00
EXPONENTS  0.4158000D+00 0.4158000D+00 0.4158000D+00 0.1690000D+00 0.1690000D+00
EXPONENTS  0.1690000D+00 0.1690000D+00 0.1690000D+00 0.1690000D+00 0.1690000D+00
EXPONENTS  0.1690000D+00 0.1690000D+00 0.1690000D+00 0.4561000D+06 0.6833000D+05
EXPONENTS  0.1555000D+05 0.4405000D+04 0.1439000D+04 0.5204000D+03 0.2031000D+03
EXPONENTS  0.8396000D+02 0.3620000D+02 0.1583000D+02 0.6334000D+01 0.2694000D+01
EXPONENTS  0.4313000D+00 0.4561000D+06 0.6833000D+05 0.1555000D+05 0.4405000D+04
EXPONENTS  0.1439000D+04 0.5204000D+03 0.2031000D+03 0.8396000D+02 0.3620000D+02
EXPONENTS  0.1583000D+02 0.6334000D+01 0.2694000D+01 0.4313000D+00 0.4561000D+06
EXPONENTS  0.6833000D+05 0.1555000D+05 0.4405000D+04 0.1439000D+04 0.5204000D+03
EXPONENTS  0.2031000D+03 0.8396000D+02 0.3620000D+02 0.1583000D+02 0.6334000D+01
EXPONENTS  0.2694000D+01 0.4313000D+00 0.9768000D+00 0.1625000D+00 0.5910000D-01
EXPONENTS  0.6633000D+03 0.1568000D+03 0.4998000D+02 0.1842000D+02 0.7240000D+01
EXPONENTS  0.2922000D+01 0.3818000D+00 0.6633000D+03 0.1568000D+03 0.4998000D+02
EXPONENTS  0.1842000D+02 0.7240000D+01 0.2922000D+01 0.3818000D+00 0.6633000D+03
EXPONENTS  0.1568000D+03 0.4998000D+02 0.1842000D+02 0.7240000D+01 0.2922000D+01
EXPONENTS  0.3818000D+00 0.6633000D+03 0.1568000D+03 0.4998000D+02 0.1842000D+02
EXPONENTS  0.7240000D+01 0.2922000D+01 0.3818000D+00 0.6633000D+03 0.1568000D+03
EXPONENTS  0.4998000D+02 0.1842000D+02 0.7240000D+01 0.2922000D+01 0.3818000D+00
EXPONENTS  0.6633000D+03 0.1568000D+03 0.4998000D+02 0.1842000D+02 0.7240000D+01
EXPONENTS  0.2922000D+01 0.3818000D+00 0.1022000D+01 0.1022000D+01 0.1022000D+01
EXPONENTS  0.1301000D+00 0.1301000D+00 0.1301000D+00 0.4190000D-01 0.4190000D-01
EXPONENTS  0.4190000D-01 0.1046000D+01 0.1046000D+01 0.1046000D+01 0.1046000D+01
EXPONENTS  0.1046000D+01 0.1046000D+01 0.3440000D+00 0.3440000D+00 0.3440000D+00
EXPONENTS  0.3440000D+00 0.3440000D+00 0.3440000D+00 0.1350000D+00 0.1350000D+00
EXPONENTS  0.1350000D+00 0.1350000D+00 0.1350000D+00 0.1350000D+00 0.7060000D+00
EXPONENTS  0.7060000D+00 0.7060000D+00 0.7060000D+00 0.7060000D+00 0.7060000D+00
EXPONENTS  0.7060000D+00 0.7060000D+00 0.7060000D+00 0.7060000D+00 0.3120000D+00
EXPONENTS  0.3120000D+00 0.3120000D+00 0.3120000D+00 0.3120000D+00 0.3120000D+00
EXPONENTS  0.3120000D+00 0.3120000D+00 0.3120000D+00 0.3120000D+00 0.4561000D+06
EXPONENTS  0.6833000D+05 0.1555000D+05 0.4405000D+04 0.1439000D+04 0.5204000D+03
EXPONENTS  0.2031000D+03 0.8396000D+02 0.3620000D+02 0.1583000D+02 0.6334000D+01
EXPONENTS  0.2694000D+01 0.4313000D+00 0.4561000D+06 0.6833000D+05 0.1555000D+05
EXPONENTS  0.4405000D+04 0.1439000D+04 0.5204000D+03 0.2031000D+03 0.8396000D+02
EXPONENTS  0.3620000D+02 0.1583000D+02 0.6334000D+01 0.2694000D+01 0.4313000D+00
EXPONENTS  0.4561000D+06 0.6833000D+05 0.1555000D+05 0.4405000D+04 0.1439000D+04
EXPONENTS  0.5204000D+03 0.2031000D+03 0.8396000D+02 0.3620000D+02 0.1583000D+02
EXPONENTS  0.6334000D+01 0.2694000D+01 0.4313000D+00 0.9768000D+00 0.1625000D+00
EXPONENTS  0.5910000D-01 0.6633000D+03 0.1568000D+03 0.4998000D+02 0.1842000D+02
EXPONENTS  0.7240000D+01 0.2922000D+01 0.3818000D+00 0.6633000D+03 0.1568000D+03
EXPONENTS  0.4998000D+02 0.1842000D+02 0.7240000D+01 0.2922000D+01 0.3818000D+00
EXPONENTS  0.6633000D+03 0.1568000D+03 0.4998000D+02 0.1842000D+02 0.7240000D+01
EXPONENTS  0.2922000D+01 0.3818000D+00 0.6633000D+03 0.1568000D+03 0.4998000D+02
EXPONENTS  0.1842000D+02 0.7240000D+01 0.2922000D+01 0.3818000D+00 0.6633000D+03
EXPONENTS  0.1568000D+03 0.4998000D+02 0.1842000D+02 0.7240000D+01 0.2922000D+01
EXPONENTS  0.3818000D+00 0.6633000D+03 0.1568000D+03 0.4998000D+02 0.1842000D+02
EXPONENTS  0.7240000D+01 0.2922000D+01 0.3818000D+00 0.1022000D+01 0.1022000D+01
EXPONENTS  0.1022000D+01 0.1301000D+00 0.1301000D+00 0.1301000D+00 0.4190000D-01
EXPONENTS  0.4190000D-01 0.4190000D-01 0.1046000D+01 0.1046000D+01 0.1046000D+01
EXPONENTS  0.1046000D+01 0.1046000D+01 0.1046000D+01 0.3440000D+00 0.3440000D+00
EXPONENTS  0.3440000D+00 0.3440000D+00 0.3440000D+00 0.3440000D+00 0.1350000D+00
EXPONENTS  0.1350000D+00 0.1350000D+00 0.1350000D+00 0.1350000D+00 0.1350000D+00
EXPONENTS  0.7060000D+00 0.7060000D+00 0.7060000D+00 0.7060000D+00 0.7060000D+00
EXPONENTS  0.7060000D+00 0.7060000D+00 0.7060000D+00 0.7060000D+00 0.7060000D+00
EXPONENTS  0.3120000D+00 0.3120000D+00 0.3120000D+00 0.3120000D+00 0.3120000D+00
EXPONENTS  0.3120000D+00 0.3120000D+00 0.3120000D+00 0.3120000D+00 0.3120000D+00
EXPONENTS  0.4561000D+06 0.6833000D+05 0.1555000D+05 0.4405000D+04 0.1439000D+04
EXPONENTS  0.5204000D+03 0.2031000D+03 0.8396000D+02 0.3620000D+02 0.1583000D+02
EXPONENTS  0.6334000D+01 0.2694000D+01 0.4313000D+00 0.4561000D+06 0.6833000D+05
EXPONENTS  0.1555000D+05 0.4405000D+04 0.1439000D+04 0.5204000D+03 0.2031000D+03
EXPONENTS  0.8396000D+02 0.3620000D+02 0.1583000D+02 0.6334000D+01 0.2694000D+01
EXPONENTS  0.4313000D+00 0.4561000D+06 0.6833000D+05 0.1555000D+05 0.4405000D+04
EXPONENTS  0.1439000D+04 0.5204000D+03 0.2031000D+03 0.8396000D+02 0.3620000D+02
EXPONENTS  0.1583000D+02 0.6334000D+01 0.2694000D+01 0.4313000D+00 0.9768000D+00
EXPONENTS  0.1625000D+00 0.5910000D-01 0.6633000D+03 0.1568000D+03 0.4998000D+02
EXPONENTS  0.1842000D+02 0.7240000D+01 0.2922000D+01 0.3818000D+00 0.6633000D+03
EXPONENTS  0.1568000D+03 0.4998000D+02 0.1842000D+02 0.7240000D+01 0.2922000D+01
EXPONENTS  0.3818000D+00 0.6633000D+03 0.1568000D+03 0.4998000D+02 0.1842000D+02
EXPONENTS  0.7240000D+01 0.2922000D+01 0.3818000D+00 0.6633000D+03 0.1568000D+03
EXPONENTS  0.4998000D+02 0.1842000D+02 0.7240000D+01 0.2922000D+01 0.3818000D+00
EXPONENTS  0.6633000D+03 0.1568000D+03 0.4998000D+02 0.1842000D+02 0.7240000D+01
EXPONENTS  0.2922000D+01 0.3818000D+00 0.6633000D+03 0.1568000D+03 0.4998000D+02
EXPONENTS  0.1842000D+02 0.7240000D+01 0.2922000D+01 0.3818000D+00 0.1022000D+01
EXPONENTS  0.1022000D+01 0.1022000D+01 0.1301000D+00 0.1301000D+00 0.1301000D+00
EXPONENTS  0.4190000D-01 0.4190000D-01 0.4190000D-01 0.1046000D+01 0.1046000D+01
EXPONENTS  0.1046000D+01 0.1046000D+01 0.1046000D+01 0.1046000D+01 0.3440000D+00
EXPONENTS  0.3440000D+00 0.3440000D+00 0.3440000D+00 0.3440000D+00 0.3440000D+00
EXPONENTS  0.1350000D+00 0.1350000D+00 0.1350000D+00 0.1350000D+00 0.1350000D+00
EXPONENTS  0.1350000D+00 0.7060000D+00 0.7060000D+00 0.7060000D+00 0.7060000D+00
EXPONENTS  0.7060000D+00 0.7060000D+00 0.7060000D+00 0.7060000D+00 0.7060000D+00
EXPONENTS  0.7060000D+00 0.3120000D+00 0.3120000D+00 0.3120000D+00 0.3120000D+00
EXPONENTS  0.3120000D+00 0.3120000D+00 0.3120000D+00 0.3120000D+00 0.3120000D+00
EXPONENTS  0.3120000D+00
MO    1     MO 0.0        OCC NO =    2.0000000  ORB. ENERGY = -425.363783
  0.76169649D+00  0.14236778D+01  0.24645086D+01  0.40367250D+01  0.63176077D+01
  0.94735816D+01  0.13473087D+02  0.17690858D+02  0.20151727D+02  0.17678605D+02
  0.94081987D+01  0.20316923D+01  0.76366857D-01  0.18236613D-02 -0.48408983D-03
  0.43331247D-04 -0.35103655D-04 -0.20892814D-05  0.55507165D-04  0.10498287D-03
  0.18155093D-03  0.29735515D-03  0.46770702D-03  0.70544584D-03  0.10261290D-02
  0.14042978D-02  0.17694990D-02  0.18781196D-02  0.14368298D-02  0.22619931D-03
 -0.94237808D-03 -0.75255508D-03 -0.12726945D-03 -0.25111790D-05 -0.39844098D-06
 -0.12146869D-07 -0.13232129D-03 -0.25481469D-03 -0.44209995D-03 -0.72483752D-03
 -0.11408759D-02 -0.17211864D-02 -0.25122098D-02 -0.34536259D-02 -0.44120096D-02
 -0.47992987D-02 -0.38727997D-02 -0.65406090D-03  0.34578163D-02  0.41628017D-02
  0.26083835D-03 -0.18350038D-02 -0.74084083D-03  0.36487728D-05  0.49671308D-04
  0.10761005D-03  0.18319321D-03  0.29981800D-03  0.47185280D-03  0.71201635D-03
  0.10393090D-02  0.14303338D-02  0.18297862D-02  0.19990229D-02  0.16231876D-02
  0.28036577D-03 -0.15226149D-02 -0.19354467D-02 -0.10012516D-03  0.11091603D-02
  0.82623506D-03 -0.32009090D-03  0.27131897D-03  0.10411052D-03  0.86023525D-05
 -0.16138956D-15 -0.23110024D-15 -0.30457420D-15 -0.34889911D-15 -0.31928159D-15
 -0.20278624D-15 -0.69469367D-16 -0.76326825D-17 -0.89978313D-19 -0.17342590D-19
 -0.17875391D-21 -0.87254191D-07 -0.12494281D-06 -0.16466601D-06 -0.18862998D-06
 -0.17261746D-06 -0.10963503D-06 -0.37558150D-07 -0.41265589D-08 -0.48646175D-10
 -0.93761559D-11 -0.96642110D-13  0.83246096D-04  0.11920345D-03  0.15710194D-03
  0.17996510D-03  0.16468814D-03  0.10459885D-03  0.35832885D-04  0.39370019D-05
  0.46411572D-07  0.89454543D-08  0.92202773D-10  0.15237761D-14  0.21969371D-14
  0.29193556D-14  0.34442605D-14  0.32901998D-14  0.22453963D-14  0.69620678D-15
 -0.34635710D-15 -0.34753771D-15 -0.87546059D-16  0.10172396D-18  0.29610220D-06
  0.42691174D-06  0.56729305D-06  0.66929328D-06  0.63935599D-06  0.43632839D-06
  0.13528783D-06 -0.67304571D-07 -0.67533988D-07 -0.17012066D-07  0.19767135D-10
 -0.22934686D-02 -0.33066579D-02 -0.43939857D-02 -0.51840316D-02 -0.49521514D-02
 -0.33795949D-02 -0.10478760D-02  0.52130962D-03  0.52308658D-03  0.13176748D-03
 -0.15310695D-06 -0.10907922D-14 -0.15768849D-14 -0.20951811D-14 -0.24828119D-14
 -0.23809401D-14 -0.16431841D-14 -0.49692252D-15  0.31120523D-15  0.31481732D-15
  0.91239521D-16 -0.35497706D-16 -0.22257530D-06 -0.32176214D-06 -0.42752005D-06
 -0.50661583D-06 -0.48582896D-06 -0.33529042D-06 -0.10139665D-06  0.63501184D-07
  0.64238227D-07  0.18617353D-07 -0.72432791D-08  0.16651497D-02  0.24071949D-02
  0.31984002D-02  0.37901384D-02  0.36346259D-02  0.25084039D-02  0.75857744D-03
 -0.47507058D-03 -0.48058462D-03 -0.13928176D-03  0.54189050D-04  0.27465540D-16
  0.38167302D-08 -0.31008484D-04 -0.39184943D-16  0.47388840D-09 -0.23921636D-04
 -0.15817434D-17  0.40876919D-10 -0.17915752D-06  0.83572775D-04  0.85360828D-04
  0.69896628D-04  0.44026435D-04  0.19174875D-04  0.54295791D-05  0.90436333D-06
  0.83612050D-04  0.85400943D-04  0.69929476D-04  0.44047125D-04  0.19183886D-04
  0.54321307D-05  0.90478834D-06 -0.16718483D-03 -0.17076177D-03 -0.13982610D-03
 -0.88073560D-04 -0.38358761D-04 -0.10861710D-04 -0.18091517D-05  0.14719931D-16
  0.15034866D-16  0.12311109D-16  0.77545120D-17  0.33773300D-17  0.95632854D-18
  0.15928831D-18  0.24933153D-17  0.25466602D-17  0.20853003D-17  0.13134874D-17
  0.57206441D-18  0.16198640D-18  0.26980831D-19 -0.58630320D-07 -0.59884725D-07
 -0.49035845D-07 -0.30886661D-07 -0.13452097D-07 -0.38091108D-08 -0.63445436D-09
 -0.36162645D-05 -0.36178778D-05  0.72341423D-05  0.48524799D-17 -0.63772240D-17
  0.30290456D-08 -0.37247046D-06 -0.37194427D-06  0.74441473D-06 -0.20104747D-16
  0.21943891D-16  0.15675589D-08 -0.96694556D-07 -0.96449837D-07  0.19314439D-06
 -0.30676889D-17  0.43964475D-17 -0.23562592D-09  0.11977705D-18  0.82431392D-05
 -0.90435283D-05 -0.97753986D-19 -0.24728830D-04  0.13564486D-04 -0.26157715D-18
 -0.58757353D-09  0.13566099D-04  0.95793610D-17  0.57291230D-19 -0.14427363D-05
  0.15963471D-05  0.36474233D-18  0.43282276D-05 -0.23941968D-05 -0.53661602D-18
 -0.18665017D-10 -0.23948446D-05  0.43202852D-17 -0.79892224D-06 -0.14947866D-05
 -0.25826601D-05 -0.41867932D-05 -0.63579794D-05 -0.88368438D-05 -0.10505732D-04
 -0.93576984D-05 -0.46454417D-05 -0.74845508D-06 -0.11490779D-07 -0.20533909D-08
 -0.76732016D-10  0.17981899D-05  0.33587605D-05  0.58292918D-05  0.94585716D-05
  0.14640746D-04  0.20956897D-04  0.27355297D-04  0.29151634D-04  0.21791438D-04
  0.11503313D-05 -0.14781186D-04 -0.87817228D-05  0.32924877D-07 -0.12918704D-05
 -0.24110899D-05 -0.41902620D-05 -0.67911820D-05 -0.10547769D-04 -0.15109983D-04
 -0.19951325D-04 -0.21573301D-04 -0.16913747D-04 -0.84162248D-06  0.14499358D-04
  0.15009523D-04 -0.67920216D-05 -0.63145938D-05 -0.12262772D-04 -0.10838012D-04
 -0.41805054D-16 -0.55066638D-16 -0.60751402D-16 -0.50461023D-16 -0.26801075D-16
 -0.69127790D-17  0.71061018D-20  0.16713348D-03  0.22015230D-03  0.24287956D-03
  0.20173939D-03  0.10714869D-03  0.27636773D-04 -0.28409663D-07 -0.29040893D-04
 -0.38253374D-04 -0.42202432D-04 -0.35053971D-04 -0.18618016D-04 -0.48021293D-05
  0.49364257D-08  0.35645121D-16  0.46799431D-16  0.53284595D-16  0.45119206D-16
  0.25846018D-16  0.58790725D-17 -0.27517295D-17 -0.12164333D-03 -0.15970878D-03
 -0.18184019D-03 -0.15397480D-03 -0.88202696D-04 -0.20063053D-04  0.93906131D-05
  0.35724561D-04  0.46903730D-04  0.53403347D-04  0.45219761D-04  0.25903620D-04
  0.58921749D-05 -0.27578621D-05  0.29686302D-17 -0.27957366D-04 -0.64973624D-05
  0.27572473D-17 -0.20022571D-05  0.47147030D-05  0.36761669D-18 -0.58493822D-06
 -0.21384295D-06  0.12620599D-04 -0.16549839D-04  0.39292401D-05  0.14261903D-17
  0.37303159D-17 -0.26564497D-04 -0.66771576D-05  0.92782988D-05 -0.26011411D-05
 -0.13425838D-17 -0.20908444D-17  0.13670529D-04 -0.12512899D-05  0.12132684D-05
  0.38021445D-07  0.94188430D-18  0.23707755D-18  0.47478559D-05 -0.41983063D-18
 -0.33070598D-05  0.34109830D-05  0.40734453D-19  0.88156732D-05  0.71502175D-05
  0.12187574D-17  0.11055062D-05 -0.17383166D-04  0.85294712D-18  0.22234785D-18
  0.28361376D-05 -0.31307874D-05  0.86923740D-19 -0.88131176D-05 -0.50193302D-05
 -0.75396730D-18  0.30470476D-06  0.14411692D-04 -0.12317766D-17 -0.79926529D-06
 -0.14954284D-05 -0.25837690D-05 -0.41885909D-05 -0.63607094D-05 -0.88406382D-05
 -0.10510243D-04 -0.93617164D-05 -0.46474364D-05 -0.74877646D-06 -0.11495713D-07
 -0.20542726D-08 -0.76764964D-10  0.17988467D-05  0.33599873D-05  0.58314209D-05
  0.94620263D-05  0.14646093D-04  0.20964551D-04  0.27365288D-04  0.29162281D-04
  0.21799397D-04  0.11507514D-05 -0.14786585D-04 -0.87849303D-05  0.32936902D-07
 -0.12922609D-05 -0.24118188D-05 -0.41915288D-05 -0.67932351D-05 -0.10550958D-04
 -0.15114551D-04 -0.19957357D-04 -0.21579823D-04 -0.16918861D-04 -0.84187691D-06
  0.14503741D-04  0.15014061D-04 -0.67940750D-05 -0.63154039D-05 -0.12260455D-04
 -0.10836108D-04 -0.14475435D-03 -0.19067397D-03 -0.21035806D-03 -0.17472655D-03
 -0.92801514D-04 -0.23936217D-04  0.24605618D-07 -0.83594337D-04 -0.11011250D-03
 -0.12147989D-03 -0.10090301D-03 -0.53592039D-04 -0.13822950D-04  0.14209523D-07
 -0.29010880D-04 -0.38213839D-04 -0.42158817D-04 -0.35017743D-04 -0.18598774D-04
 -0.47971664D-05  0.49313240D-08  0.10535759D-03  0.13832679D-03  0.15749523D-03
  0.13336049D-03  0.76394023D-04  0.17376990D-04 -0.81333875D-05  0.60843913D-04
  0.79883598D-04  0.90953353D-04  0.77015563D-04  0.44117480D-04  0.10035196D-04
 -0.46970241D-05  0.35699526D-04  0.46870860D-04  0.53365923D-04  0.45188072D-04
  0.25885467D-04  0.58880457D-05 -0.27559294D-05  0.24212660D-04  0.13981833D-04
 -0.65001549D-05  0.17312514D-05  0.99967380D-06  0.47159305D-05  0.50643667D-06
  0.29237896D-06 -0.21377283D-06 -0.92560140D-05  0.53268656D-05  0.39291483D-05
 -0.25266152D-04  0.23008035D-04  0.13283766D-04  0.52891285D-05 -0.26878823D-05
 -0.26012462D-05  0.13820900D-04 -0.11841590D-04 -0.68367152D-05  0.59751482D-06
 -0.63528518D-06  0.37770357D-07  0.21351802D-05 -0.41120971D-05 -0.23744672D-05
  0.23963727D-06 -0.28923168D-05  0.34108339D-05  0.23959520D-06  0.92304471D-05
 -0.11248772D-04 -0.95850700D-06 -0.55349656D-06  0.10162706D-05 -0.21248964D-04
  0.66179352D-07  0.29505643D-05 -0.31309523D-05  0.65137052D-07 -0.86995647D-05
  0.95538325D-05 -0.26367511D-06 -0.15212802D-06 -0.16097552D-06  0.16830040D-04
 -0.79926529D-06 -0.14954284D-05 -0.25837690D-05 -0.41885909D-05 -0.63607094D-05
 -0.88406382D-05 -0.10510243D-04 -0.93617164D-05 -0.46474364D-05 -0.74877646D-06
 -0.11495713D-07 -0.20542726D-08 -0.76764964D-10  0.17988467D-05  0.33599873D-05
  0.58314209D-05  0.94620263D-05  0.14646093D-04  0.20964551D-04  0.27365288D-04
  0.29162281D-04  0.21799397D-04  0.11507514D-05 -0.14786585D-04 -0.87849303D-05
  0.32936902D-07 -0.12922609D-05 -0.24118188D-05 -0.41915288D-05 -0.67932351D-05
 -0.10550958D-04 -0.15114551D-04 -0.19957357D-04 -0.21579823D-04 -0.16918861D-04
 -0.84187691D-06  0.14503741D-04  0.15014061D-04 -0.67940750D-05 -0.63154039D-05
 -0.12260455D-04 -0.10836108D-04  0.14475435D-03  0.19067397D-03  0.21035806D-03
  0.17472655D-03  0.92801514D-04  0.23936217D-04 -0.24605618D-07 -0.83594337D-04
 -0.11011250D-03 -0.12147989D-03 -0.10090301D-03 -0.53592039D-04 -0.13822950D-04
  0.14209523D-07 -0.29010880D-04 -0.38213839D-04 -0.42158817D-04 -0.35017743D-04
 -0.18598774D-04 -0.47971664D-05  0.49313240D-08 -0.10535759D-03 -0.13832679D-03
 -0.15749523D-03 -0.13336049D-03 -0.76394023D-04 -0.17376990D-04  0.81333875D-05
  0.60843913D-04  0.79883598D-04  0.90953353D-04  0.77015563D-04  0.44117480D-04
  0.10035196D-04 -0.46970241D-05  0.35699526D-04  0.46870860D-04  0.53365923D-04
  0.45188072D-04  0.25885467D-04  0.58880457D-05 -0.27559294D-05 -0.24212660D-04
  0.13981833D-04 -0.65001549D-05 -0.17312514D-05  0.99967380D-06  0.47159305D-05
 -0.50643667D-06  0.29237896D-06 -0.21377283D-06 -0.92560140D-05  0.53268656D-05
  0.39291483D-05  0.25266152D-04 -0.23008035D-04  0.13283766D-04  0.52891285D-05
 -0.26878823D-05 -0.26012462D-05 -0.13820900D-04  0.11841590D-04 -0.68367152D-05
  0.59751482D-06 -0.63528518D-06  0.37770357D-07 -0.21351802D-05  0.41120971D-05
 -0.23744672D-05 -0.23963727D-06 -0.28923168D-05  0.34108339D-05 -0.23959520D-06
  0.92304471D-05 -0.11248772D-04  0.95850700D-06 -0.55349656D-06  0.10162706D-05
  0.21248964D-04 -0.66179352D-07  0.29505643D-05 -0.31309523D-05 -0.65137052D-07
 -0.86995647D-05  0.95538325D-05  0.26367511D-06 -0.15212802D-06 -0.16097552D-06
 -0.16830040D-04
MO    2     MO 0.0        OCC NO =    2.0000000  ORB. ENERGY = -101.231682
 -0.76702015D-05 -0.14336282D-04 -0.24817335D-04 -0.40649386D-04 -0.63617628D-04
 -0.95397945D-04 -0.13567253D-03 -0.17814503D-03 -0.20292572D-03 -0.17802164D-03
 -0.94739546D-04 -0.20458922D-04 -0.76900601D-06 -0.18364073D-07  0.48747324D-08
 -0.43634098D-09  0.35349002D-09  0.21038838D-10  0.16248608D-04  0.30731627D-04
  0.53145389D-04  0.87044748D-04  0.13691184D-03  0.20650510D-03  0.30037865D-03
  0.41107999D-03  0.51798530D-03  0.54978180D-03  0.42060308D-03  0.66215306D-04
 -0.27586226D-03 -0.22029539D-03 -0.37255576D-04 -0.73509722D-06 -0.11663559D-06
 -0.35557520D-08 -0.25030349D-04 -0.48201621D-04 -0.83629144D-04 -0.13711275D-03
 -0.21581200D-03 -0.32558553D-03 -0.47521823D-03 -0.65329974D-03 -0.83459088D-03
 -0.90785181D-03 -0.73259208D-03 -0.12372440D-03  0.65409241D-03  0.78744986D-03
  0.49341077D-04 -0.34711562D-03 -0.14013999D-03  0.69021438D-06  0.12926612D-04
  0.28004768D-04  0.47674759D-04  0.78025547D-04  0.12279641D-03  0.18529730D-03
  0.27047293D-03  0.37223442D-03  0.47618912D-03  0.52023180D-03  0.42242329D-03
  0.72963241D-04 -0.39624993D-03 -0.50368652D-03 -0.26056876D-04  0.28865126D-03
  0.21502193D-03 -0.83301428D-04 -0.20900561D-03  0.91254210D-03  0.67543682D-04
  0.20031798D-11  0.28684342D-11  0.37803986D-11  0.43305629D-11  0.39629479D-11
  0.25169986D-11  0.86225918D-12  0.94737448D-13  0.11168178D-14  0.21525758D-15
  0.22187074D-17 -0.35844514D-02 -0.51327210D-02 -0.67645726D-02 -0.77490259D-02
 -0.70912228D-02 -0.45038689D-02 -0.15429100D-02 -0.16952137D-03 -0.19984123D-05
 -0.38517777D-06 -0.39701124D-08 -0.23248463D-02 -0.33290414D-02 -0.43874472D-02
 -0.50259558D-02 -0.45993100D-02 -0.29211731D-02 -0.10007190D-02 -0.10995019D-03
 -0.12961541D-05 -0.24982320D-06 -0.25749829D-08 -0.87897547D-11 -0.12672819D-10
 -0.16840020D-10 -0.19867883D-10 -0.18979198D-10 -0.12952351D-10 -0.40160013D-11
  0.19979273D-11  0.20047376D-11  0.50500095D-12 -0.58678479D-15  0.15729219D-01
  0.22677942D-01  0.30135126D-01  0.35553471D-01  0.33963175D-01  0.23178163D-01
  0.71866131D-02 -0.35752804D-02 -0.35874672D-02 -0.90369653D-03  0.10500483D-05
  0.10071469D-01  0.14520759D-01  0.19295617D-01  0.22765001D-01  0.21746729D-01
  0.14841052D-01  0.46016112D-02 -0.22892634D-02 -0.22970667D-02 -0.57863977D-03
  0.67234926D-06  0.64881227D-11  0.93794425D-11  0.12462311D-10  0.14767971D-10
  0.14162029D-10  0.97737951D-11  0.29557363D-11 -0.18510745D-11 -0.18725595D-11
 -0.54270024D-12  0.21114330D-12 -0.11615136D-01 -0.16791221D-01 -0.22310219D-01
 -0.26437847D-01 -0.25353080D-01 -0.17497197D-01 -0.52914043D-02  0.33138219D-02
  0.33522846D-02  0.97155024D-03 -0.37799196D-03 -0.72855890D-02 -0.10532286D-01
 -0.13994075D-01 -0.16583128D-01 -0.15902708D-01 -0.10975109D-01 -0.33190310D-02