 Molden2AIM, Version 4.0.0 (06/02/2016)           Time: Sat Jun 30 02:51:48 2018
GAUSSIAN              8 MOL ORBITALS    312 PRIMITIVES        8 NUCLEI
  B    1    (CENTRE  1)   1.66655703  0.00000000  0.00000000  CHARGE =  5.0
  B    2    (CENTRE  2)  -1.66655703  0.00000000  0.00000000  CHARGE =  5.0
  H    3    (CENTRE  3)   0.00000000  0.00000000  1.87025061  CHARGE =  1.0
  H    4    (CENTRE  4)   0.00000000  0.00000000 -1.87025061  CHARGE =  1.0
  H    5    (CENTRE  5)   2.76718833  1.98238507  0.00000000  CHARGE =  1.0
  H    6    (CENTRE  6)   2.76718833 -1.98238507  0.00000000  CHARGE =  1.0
  H    7    (CENTRE  7)  -2.76718833  1.98238507  0.00000000  CHARGE =  1.0
  H    8    (CENTRE  8)  -2.76718833 -1.98238507  0.00000000  CHARGE =  1.0
CENTRE ASSIGNMENTS    1  1  1  1  1  1  1  1  1  1  1  1  1  1  1  1  1  1  1  1
CENTRE ASSIGNMENTS    1  1  1  1  1  1  1  1  1  1  1  1  1  1  1  1  1  1  1  1
CENTRE ASSIGNMENTS    1  1  1  1  1  1  1  1  1  1  1  1  1  1  1  1  1  1  1  1
CENTRE ASSIGNMENTS    1  1  1  1  1  1  1  1  1  1  1  1  1  1  1  2  2  2  2  2
CENTRE ASSIGNMENTS    2  2  2  2  2  2  2  2  2  2  2  2  2  2  2  2  2  2  2  2
CENTRE ASSIGNMENTS    2  2  2  2  2  2  2  2  2  2  2  2  2  2  2  2  2  2  2  2
CENTRE ASSIGNMENTS    2  2  2  2  2  2  2  2  2  2  2  2  2  2  2  2  2  2  2  2
CENTRE ASSIGNMENTS    2  2  2  2  2  2  2  2  2  2  3  3  3  3  3  3  3  3  3  3
CENTRE ASSIGNMENTS    3  3  3  3  3  3  3  3  3  3  3  3  3  3  3  3  3  4  4  4
CENTRE ASSIGNMENTS    4  4  4  4  4  4  4  4  4  4  4  4  4  4  4  4  4  4  4  4
CENTRE ASSIGNMENTS    4  4  4  4  5  5  5  5  5  5  5  5  5  5  5  5  5  5  5  5
CENTRE ASSIGNMENTS    5  5  5  5  5  5  5  5  5  5  5  6  6  6  6  6  6  6  6  6
CENTRE ASSIGNMENTS    6  6  6  6  6  6  6  6  6  6  6  6  6  6  6  6  6  6  7  7
CENTRE ASSIGNMENTS    7  7  7  7  7  7  7  7  7  7  7  7  7  7  7  7  7  7  7  7
CENTRE ASSIGNMENTS    7  7  7  7  7  8  8  8  8  8  8  8  8  8  8  8  8  8  8  8
CENTRE ASSIGNMENTS    8  8  8  8  8  8  8  8  8  8  8  8
TYPE ASSIGNMENTS      1  1  1  1  1  1  1  1  1  1  1  1  1  1  1  1  1  1  1  2
TYPE ASSIGNMENTS      2  2  3  3  3  4  4  4  2  3  4  2  3  4  2  3  4  5  6  7
TYPE ASSIGNMENTS      8  9 10  5  6  7  8  9 10  5  6  7  8  9 10 11 12 13 17 14
TYPE ASSIGNMENTS     15 18 19 16 20 11 12 13 17 14 15 18 19 16 20  1  1  1  1  1
TYPE ASSIGNMENTS      1  1  1  1  1  1  1  1  1  1  1  1  1  1  2  2  2  3  3  3
TYPE ASSIGNMENTS      4  4  4  2  3  4  2  3  4  2  3  4  5  6  7  8  9 10  5  6
TYPE ASSIGNMENTS      7  8  9 10  5  6  7  8  9 10 11 12 13 17 14 15 18 19 16 20
TYPE ASSIGNMENTS     11 12 13 17 14 15 18 19 16 20  1  1  1  1  1  1  2  3  4  2
TYPE ASSIGNMENTS      3  4  2  3  4  5  6  7  8  9 10  5  6  7  8  9 10  1  1  1
TYPE ASSIGNMENTS      1  1  1  2  3  4  2  3  4  2  3  4  5  6  7  8  9 10  5  6
TYPE ASSIGNMENTS      7  8  9 10  1  1  1  1  1  1  2  3  4  2  3  4  2  3  4  5
TYPE ASSIGNMENTS      6  7  8  9 10  5  6  7  8  9 10  1  1  1  1  1  1  2  3  4
TYPE ASSIGNMENTS      2  3  4  2  3  4  5  6  7  8  9 10  5  6  7  8  9 10  1  1
TYPE ASSIGNMENTS      1  1  1  1  2  3  4  2  3  4  2  3  4  5  6  7  8  9 10  5
TYPE ASSIGNMENTS      6  7  8  9 10  1  1  1  1  1  1  2  3  4  2  3  4  2  3  4
TYPE ASSIGNMENTS      5  6  7  8  9 10  5  6  7  8  9 10
EXPONENTS  0.5473000D+04 0.8209000D+03 0.1868000D+03 0.5283000D+02 0.1708000D+02
EXPONENTS  0.5999000D+01 0.2208000D+01 0.2415000D+00 0.5473000D+04 0.8209000D+03
EXPONENTS  0.1868000D+03 0.5283000D+02 0.1708000D+02 0.5999000D+01 0.2208000D+01
EXPONENTS  0.2415000D+00 0.5879000D+00 0.8610000D-01 0.2914000D-01 0.1205000D+02
EXPONENTS  0.2613000D+01 0.7475000D+00 0.1205000D+02 0.2613000D+01 0.7475000D+00
EXPONENTS  0.1205000D+02 0.2613000D+01 0.7475000D+00 0.2385000D+00 0.2385000D+00
EXPONENTS  0.2385000D+00 0.7698000D-01 0.7698000D-01 0.7698000D-01 0.2096000D-01
EXPONENTS  0.2096000D-01 0.2096000D-01 0.6610000D+00 0.6610000D+00 0.6610000D+00
EXPONENTS  0.6610000D+00 0.6610000D+00 0.6610000D+00 0.1990000D+00 0.1990000D+00
EXPONENTS  0.1990000D+00 0.1990000D+00 0.1990000D+00 0.1990000D+00 0.6040000D-01
EXPONENTS  0.6040000D-01 0.6040000D-01 0.6040000D-01 0.6040000D-01 0.6040000D-01
EXPONENTS  0.4900000D+00 0.4900000D+00 0.4900000D+00 0.4900000D+00 0.4900000D+00
EXPONENTS  0.4900000D+00 0.4900000D+00 0.4900000D+00 0.4900000D+00 0.4900000D+00
EXPONENTS  0.1630000D+00 0.1630000D+00 0.1630000D+00 0.1630000D+00 0.1630000D+00
EXPONENTS  0.1630000D+00 0.1630000D+00 0.1630000D+00 0.1630000D+00 0.1630000D+00
EXPONENTS  0.5473000D+04 0.8209000D+03 0.1868000D+03 0.5283000D+02 0.1708000D+02
EXPONENTS  0.5999000D+01 0.2208000D+01 0.2415000D+00 0.5473000D+04 0.8209000D+03
EXPONENTS  0.1868000D+03 0.5283000D+02 0.1708000D+02 0.5999000D+01 0.2208000D+01
EXPONENTS  0.2415000D+00 0.5879000D+00 0.8610000D-01 0.2914000D-01 0.1205000D+02
EXPONENTS  0.2613000D+01 0.7475000D+00 0.1205000D+02 0.2613000D+01 0.7475000D+00
EXPONENTS  0.1205000D+02 0.2613000D+01 0.7475000D+00 0.2385000D+00 0.2385000D+00
EXPONENTS  0.2385000D+00 0.7698000D-01 0.7698000D-01 0.7698000D-01 0.2096000D-01
EXPONENTS  0.2096000D-01 0.2096000D-01 0.6610000D+00 0.6610000D+00 0.6610000D+00
EXPONENTS  0.6610000D+00 0.6610000D+00 0.6610000D+00 0.1990000D+00 0.1990000D+00
EXPONENTS  0.1990000D+00 0.1990000D+00 0.1990000D+00 0.1990000D+00 0.6040000D-01
EXPONENTS  0.6040000D-01 0.6040000D-01 0.6040000D-01 0.6040000D-01 0.6040000D-01
EXPONENTS  0.4900000D+00 0.4900000D+00 0.4900000D+00 0.4900000D+00 0.4900000D+00
EXPONENTS  0.4900000D+00 0.4900000D+00 0.4900000D+00 0.4900000D+00 0.4900000D+00
EXPONENTS  0.1630000D+00 0.1630000D+00 0.1630000D+00 0.1630000D+00 0.1630000D+00
EXPONENTS  0.1630000D+00 0.1630000D+00 0.1630000D+00 0.1630000D+00 0.1630000D+00
EXPONENTS  0.3387000D+02 0.5095000D+01 0.1159000D+01 0.3258000D+00 0.1027000D+00
EXPONENTS  0.2526000D-01 0.1407000D+01 0.1407000D+01 0.1407000D+01 0.3880000D+00
EXPONENTS  0.3880000D+00 0.3880000D+00 0.1020000D+00 0.1020000D+00 0.1020000D+00
EXPONENTS  0.1057000D+01 0.1057000D+01 0.1057000D+01 0.1057000D+01 0.1057000D+01
EXPONENTS  0.1057000D+01 0.2470000D+00 0.2470000D+00 0.2470000D+00 0.2470000D+00
EXPONENTS  0.2470000D+00 0.2470000D+00 0.3387000D+02 0.5095000D+01 0.1159000D+01
EXPONENTS  0.3258000D+00 0.1027000D+00 0.2526000D-01 0.1407000D+01 0.1407000D+01
EXPONENTS  0.1407000D+01 0.3880000D+00 0.3880000D+00 0.3880000D+00 0.1020000D+00
EXPONENTS  0.1020000D+00 0.1020000D+00 0.1057000D+01 0.1057000D+01 0.1057000D+01
EXPONENTS  0.1057000D+01 0.1057000D+01 0.1057000D+01 0.2470000D+00 0.2470000D+00
EXPONENTS  0.2470000D+00 0.2470000D+00 0.2470000D+00 0.2470000D+00 0.3387000D+02
EXPONENTS  0.5095000D+01 0.1159000D+01 0.3258000D+00 0.1027000D+00 0.2526000D-01
EXPONENTS  0.1407000D+01 0.1407000D+01 0.1407000D+01 0.3880000D+00 0.3880000D+00
EXPONENTS  0.3880000D+00 0.1020000D+00 0.1020000D+00 0.1020000D+00 0.1057000D+01
EXPONENTS  0.1057000D+01 0.1057000D+01 0.1057000D+01 0.1057000D+01 0.1057000D+01
EXPONENTS  0.2470000D+00 0.2470000D+00 0.2470000D+00 0.2470000D+00 0.2470000D+00
EXPONENTS  0.2470000D+00 0.3387000D+02 0.5095000D+01 0.1159000D+01 0.3258000D+00
EXPONENTS  0.1027000D+00 0.2526000D-01 0.1407000D+01 0.1407000D+01 0.1407000D+01
EXPONENTS  0.3880000D+00 0.3880000D+00 0.3880000D+00 0.1020000D+00 0.1020000D+00
EXPONENTS  0.1020000D+00 0.1057000D+01 0.1057000D+01 0.1057000D+01 0.1057000D+01
EXPONENTS  0.1057000D+01 0.1057000D+01 0.2470000D+00 0.2470000D+00 0.2470000D+00
EXPONENTS  0.2470000D+00 0.2470000D+00 0.2470000D+00 0.3387000D+02 0.5095000D+01
EXPONENTS  0.1159000D+01 0.3258000D+00 0.1027000D+00 0.2526000D-01 0.1407000D+01
EXPONENTS  0.1407000D+01 0.1407000D+01 0.3880000D+00 0.3880000D+00 0.3880000D+00
EXPONENTS  0.1020000D+00 0.1020000D+00 0.1020000D+00 0.1057000D+01 0.1057000D+01
EXPONENTS  0.1057000D+01 0.1057000D+01 0.1057000D+01 0.1057000D+01 0.2470000D+00
EXPONENTS  0.2470000D+00 0.2470000D+00 0.2470000D+00 0.2470000D+00 0.2470000D+00
EXPONENTS  0.3387000D+02 0.5095000D+01 0.1159000D+01 0.3258000D+00 0.1027000D+00
EXPONENTS  0.2526000D-01 0.1407000D+01 0.1407000D+01 0.1407000D+01 0.3880000D+00
EXPONENTS  0.3880000D+00 0.3880000D+00 0.1020000D+00 0.1020000D+00 0.1020000D+00
EXPONENTS  0.1057000D+01 0.1057000D+01 0.1057000D+01 0.1057000D+01 0.1057000D+01
EXPONENTS  0.1057000D+01 0.2470000D+00 0.2470000D+00 0.2470000D+00 0.2470000D+00
EXPONENTS  0.2470000D+00 0.2470000D+00
MO    1     MO 0.0        OCC NO =    2.0000000  ORB. ENERGY =   -6.646843
  0.18106538D+00  0.33740349D+00  0.56861820D+00  0.84837368D+00  0.10276173D+01
  0.85505419D+00  0.31757157D+00 -0.16859207D-02 -0.29431972D-02 -0.54975560D-02
 -0.93568680D-02 -0.14310297D-01 -0.18611390D-01 -0.18838946D-01 -0.12404491D-01
  0.84791538D-02  0.17759401D-01 -0.19911807D-01 -0.30702635D-04 -0.13365600D-02
 -0.12045819D-02 -0.87460454D-03  0.29348055D-14  0.26450092D-14  0.19204482D-14
 -0.28000422D-14 -0.25235531D-14 -0.18322632D-14 -0.25699314D-03  0.51959628D-13
  0.18058158D-13  0.16862867D-02  0.15968380D-12  0.38878704D-14  0.85747030D-05
  0.20324922D-14  0.25596857D-15  0.24446692D-03  0.76546073D-03 -0.10099277D-02
  0.13197467D-13 -0.80919831D-14 -0.16745986D-16  0.84959740D-04 -0.74986949D-05
 -0.77461045D-04  0.89836417D-13 -0.84126507D-15  0.30917179D-15 -0.26631925D-04
  0.19991916D-04  0.66400085D-05 -0.94357768D-14 -0.22905126D-15 -0.43376160D-18
 -0.10208500D-04  0.58172837D-14  0.41538544D-16  0.12848102D-02 -0.42831459D-14
 -0.27866263D-16 -0.12541847D-02 -0.13168705D-13 -0.96749368D-16 -0.28693448D-16
  0.74408506D-05  0.50148538D-14  0.12229059D-15 -0.22983535D-03 -0.72884811D-14
 -0.68923881D-15  0.20751280D-03 -0.77560805D-14  0.32236705D-15 -0.12132819D-15
  0.18106538D+00  0.33740349D+00  0.56861820D+00  0.84837368D+00  0.10276173D+01
  0.85505419D+00  0.31757157D+00 -0.16859207D-02 -0.29431972D-02 -0.54975560D-02
 -0.93568680D-02 -0.14310297D-01 -0.18611390D-01 -0.18838946D-01 -0.12404491D-01
  0.84791538D-02  0.17759401D-01 -0.19911807D-01 -0.30702634D-04  0.13365600D-02
  0.12045819D-02  0.87460454D-03 -0.88600479D-15 -0.79851657D-15 -0.57977482D-15
 -0.14822364D-14 -0.13358735D-14 -0.96993080D-15  0.25699314D-03 -0.51084190D-13
  0.84643286D-14 -0.16862867D-02 -0.14163884D-12  0.86029940D-14 -0.85747030D-05
 -0.76440792D-15  0.26629266D-15  0.24446692D-03  0.76546073D-03 -0.10099277D-02
  0.11960561D-13  0.33713371D-14  0.75116604D-16  0.84959740D-04 -0.74986949D-05
 -0.77461045D-04  0.93736030D-13 -0.43823863D-14 -0.12400311D-15 -0.26631925D-04
  0.19991916D-04  0.66400085D-05 -0.10318257D-13  0.42608766D-15  0.11654960D-16
  0.10208500D-04 -0.67630610D-14 -0.38531467D-15 -0.12848102D-02  0.31420432D-14
 -0.38522492D-15  0.12541847D-02  0.17147140D-13  0.15411689D-14  0.85114286D-16
 -0.74408506D-05 -0.55256583D-14  0.32033717D-15  0.22983535D-03  0.85169415D-14
 -0.15312771D-14 -0.20751280D-03  0.80600335D-14  0.57026558D-15 -0.55706175D-16
  0.18739936D-03  0.33798247D-03  0.49835495D-03 -0.14897285D-02  0.13439500D-01
  0.63919636D-04 -0.81731311D-15  0.28296573D-15 -0.35904130D-03 -0.88750739D-13
 -0.23919640D-14  0.27386215D-02 -0.11443094D-12 -0.22687540D-14 -0.10639165D-02
 -0.58476200D-03  0.10126838D-02 -0.42792175D-03  0.53415731D-14  0.87702893D-13
  0.16505985D-14  0.89998923D-04  0.29370428D-03 -0.38370321D-03  0.16275440D-13
  0.32290247D-13  0.48354606D-15  0.18739936D-03  0.33798247D-03  0.49835495D-03
 -0.14897285D-02  0.13439500D-01  0.63919636D-04 -0.45643906D-14 -0.33513662D-16
  0.35904130D-03 -0.79480412D-13 -0.19642905D-14 -0.27386215D-02 -0.11830538D-12
 -0.20329448D-14  0.10639165D-02 -0.58476200D-03  0.10126838D-02 -0.42792175D-03
  0.54030152D-14 -0.81555324D-13 -0.16609372D-14  0.89998923D-04  0.29370428D-03
 -0.38370321D-03  0.16480068D-13 -0.30400880D-13 -0.32221973D-15  0.21836267D-04
  0.39382607D-04  0.58069631D-04 -0.11900916D-02  0.55272156D-02 -0.28596031D-04
 -0.14740629D-04  0.26701351D-03  0.36184942D-15  0.11404793D-02  0.18436650D-02
 -0.19114323D-14 -0.67943715D-03 -0.47634378D-03 -0.26015040D-15 -0.21061752D-04
 -0.41286949D-03  0.43393124D-03 -0.91549496D-03  0.17109328D-14  0.21126423D-14
  0.75746681D-04 -0.21822995D-03  0.14248327D-03 -0.35463435D-03  0.91708225D-16
  0.23443309D-16  0.21836267D-04  0.39382607D-04  0.58069631D-04 -0.11900916D-02
  0.55272156D-02 -0.28596031D-04 -0.14740629D-04 -0.26701351D-03  0.17454698D-15
  0.11404793D-02 -0.18436650D-02 -0.17046556D-14 -0.67943715D-03  0.47634378D-03
 -0.35951643D-15 -0.21061752D-04 -0.41286949D-03  0.43393124D-03  0.91549496D-03
  0.16765453D-14 -0.19706793D-14  0.75746681D-04 -0.21822995D-03  0.14248327D-03
  0.35463435D-03 -0.70057188D-16 -0.49354191D-16  0.21836267D-04  0.39382607D-04
  0.58069631D-04 -0.11900915D-02  0.55272156D-02 -0.28596031D-04  0.14740629D-04
  0.26701351D-03  0.10524182D-15 -0.11404793D-02  0.18436650D-02 -0.20013819D-14
  0.67943715D-03 -0.47634378D-03 -0.10712901D-14 -0.21061752D-04 -0.41286949D-03
  0.43393124D-03  0.91549496D-03 -0.13490634D-14  0.24169968D-14  0.75746681D-04
 -0.21822995D-03  0.14248327D-03  0.35463435D-03 -0.63863357D-16 -0.19623114D-16
  0.21836267D-04  0.39382607D-04  0.58069631D-04 -0.11900915D-02  0.55272156D-02
 -0.28596031D-04  0.14740629D-04 -0.26701351D-03  0.10662327D-15 -0.11404793D-02
 -0.18436650D-02 -0.20694048D-14  0.67943715D-03  0.47634378D-03 -0.10435498D-14
 -0.21061752D-04 -0.41286949D-03  0.43393124D-03 -0.91549496D-03 -0.12467107D-14
 -0.25122379D-14  0.75746681D-04 -0.21822995D-03  0.14248327D-03 -0.35463435D-03
 -0.15940542D-15  0.26347847D-16
MO    2     MO 0.0        OCC NO =    2.0000000  ORB. ENERGY =   -6.646638
 -0.18108004D+00 -0.33743079D+00 -0.56866421D+00 -0.84844234D+00 -0.10277005D+01
 -0.85512339D+00 -0.31759727D+00  0.16860571D-02  0.29334079D-02  0.54792709D-02
  0.93257466D-02  0.14262700D-01  0.18549488D-01  0.18776287D-01  0.12363233D-01
 -0.84509517D-02 -0.16953748D-01  0.14942609D-02  0.43082475D-03  0.11107665D-02
  0.10010842D-02  0.72685207D-03 -0.44464350D-15 -0.40073734D-15 -0.29096129D-15
  0.11170675D-14  0.10067631D-14  0.73097527D-15 -0.21419489D-02 -0.48789094D-14
  0.38385919D-14  0.77202666D-04 -0.26880693D-13  0.14881322D-13  0.78948284D-05
  0.10113948D-14  0.39060050D-15 -0.16905456D-03 -0.10437253D-02  0.12127799D-02
 -0.12173188D-14  0.10026062D-14 -0.37705995D-17  0.83152564D-04 -0.48210746D-03
  0.39895489D-03 -0.69536860D-14  0.36039338D-14 -0.16716514D-16 -0.10425408D-04
  0.50032312D-04 -0.39606903D-04  0.12871588D-14 -0.81863920D-15 -0.17343282D-17
  0.43010903D-03 -0.25770012D-15  0.28588114D-16 -0.25934301D-02  0.19847118D-15
 -0.20578409D-14  0.13031030D-02  0.57462918D-15  0.19720766D-14  0.17488527D-17
 -0.32318956D-04 -0.32570301D-15 -0.10308501D-16  0.24066518D-03 -0.25964434D-15
 -0.98250771D-15 -0.14370832D-03  0.12367534D-14  0.10134332D-14 -0.81040849D-18
  0.18108004D+00  0.33743079D+00  0.56866421D+00  0.84844234D+00  0.10277005D+01
  0.85512339D+00  0.31759727D+00 -0.16860571D-02 -0.29334079D-02 -0.54792709D-02
 -0.93257466D-02 -0.14262700D-01 -0.18549488D-01 -0.18776287D-01 -0.12363233D-01
  0.84509517D-02  0.16953748D-01 -0.14942609D-02 -0.43082475D-03  0.11107665D-02
  0.10010842D-02  0.72685207D-03  0.30000177D-15  0.27037821D-15  0.19631211D-15
 -0.27946346D-15 -0.25186794D-15 -0.18287246D-15 -0.21419489D-02 -0.76837105D-14
 -0.91463128D-14  0.77202665D-04  0.16286628D-13 -0.14354314D-13  0.78948284D-05
 -0.15393227D-14  0.19560775D-15  0.16905456D-03  0.10437253D-02 -0.12127799D-02
  0.54572895D-14 -0.59942547D-14 -0.28938090D-17 -0.83152564D-04  0.48210746D-03
 -0.39895489D-03  0.61428217D-15 -0.45974739D-14 -0.68303057D-17  0.10425408D-04
 -0.50032312D-04  0.39606903D-04  0.26056972D-14 -0.78287732D-15  0.13324724D-18
  0.43010903D-03  0.21469317D-15  0.13331767D-15 -0.25934301D-02 -0.15183105D-14
 -0.24547626D-14  0.13031030D-02  0.87423098D-15  0.20548096D-14 -0.11283707D-16
 -0.32318956D-04  0.59975132D-15  0.18360555D-16  0.24066518D-03 -0.99430516D-15
 -0.15083789D-15 -0.14370832D-03 -0.80494881D-15  0.95756229D-16 -0.15066026D-17
 -0.15316758D-14 -0.27624403D-14 -0.40732167D-14  0.16965355D-12  0.25600459D-11
  0.49772762D-14  0.32958480D-03  0.26725446D-15 -0.17765846D-13  0.15922656D-02
 -0.24852859D-15  0.19158094D-13  0.32879807D-03  0.71663401D-15 -0.24928829D-12
 -0.18968321D-13  0.63270050D-14  0.12641316D-13  0.10443973D-14 -0.22000094D-02
 -0.73888921D-16  0.28264535D-13  0.13307110D-13 -0.41571646D-13 -0.28756205D-14
 -0.10380550D-02 -0.29386030D-15  0.36833698D-15  0.66431092D-15  0.97952607D-15
  0.13046130D-12  0.25794230D-11  0.14734469D-13  0.32958480D-03  0.28646565D-15
  0.14286400D-13  0.15922656D-02 -0.28055804D-15 -0.28183667D-13  0.32879807D-03
  0.70700440D-15  0.25548849D-12 -0.19826154D-13  0.10346837D-13  0.94793176D-14
  0.10436935D-14  0.22000094D-02  0.63122099D-16  0.29459490D-13  0.12262434D-13
 -0.41721924D-13 -0.28742252D-14  0.10380550D-02  0.28467133D-15 -0.17885360D-05
 -0.32256984D-05 -0.47562904D-05  0.32606830D-02 -0.86309892D-03 -0.12594538D-03
 -0.34002459D-03 -0.67648669D-03  0.75013300D-15 -0.13550594D-02 -0.26857768D-02
 -0.23273579D-14 -0.81791377D-05 -0.21370470D-03 -0.14069804D-14 -0.41937655D-03
  0.69669749D-03 -0.27732094D-03  0.12237265D-02  0.16745421D-14  0.16664874D-14
 -0.98336258D-04  0.29963961D-03 -0.20130335D-03  0.19052338D-03 -0.81785522D-16
 -0.36219900D-15 -0.17885360D-05 -0.32256984D-05 -0.47562904D-05  0.32606830D-02
 -0.86309892D-03 -0.12594538D-03 -0.34002459D-03  0.67648669D-03  0.76876742D-15
 -0.13550594D-02  0.26857768D-02 -0.23545169D-14 -0.81791377D-05  0.21370470D-03
 -0.14225425D-14 -0.41937655D-03  0.69669749D-03 -0.27732094D-03 -0.12237265D-02
  0.16776133D-14 -0.16669925D-14 -0.98336258D-04  0.29963961D-03 -0.20130335D-03
 -0.19052338D-03 -0.72884556D-16  0.35091133D-15  0.17885360D-05  0.32256984D-05
  0.47562904D-05 -0.32606830D-02  0.86309892D-03  0.12594538D-03 -0.34002459D-03
  0.67648669D-03 -0.53691689D-16 -0.13550594D-02  0.26857768D-02 -0.52581695D-15
 -0.81791374D-05  0.21370470D-03  0.20344618D-14  0.41937655D-03 -0.69669749D-03
  0.27732094D-03  0.12237265D-02 -0.10374817D-14  0.12730538D-14  0.98336258D-04
 -0.29963961D-03  0.20130335D-03  0.19052338D-03  0.74403369D-15 -0.47694577D-15
  0.17885360D-05  0.32256984D-05  0.47562904D-05 -0.32606830D-02  0.86309892D-03
  0.12594538D-03 -0.34002459D-03 -0.67648669D-03 -0.53383349D-16 -0.13550594D-02
 -0.26857768D-02 -0.52684217D-15 -0.81791374D-05 -0.21370470D-03  0.20347842D-14
  0.41937655D-03 -0.69669749D-03  0.27732094D-03 -0.12237265D-02 -0.10393685D-14
 -0.12643613D-14  0.98336258D-04 -0.29963961D-03  0.20130335D-03 -0.19052338D-03
  0.74207274D-15  0.47696426D-15
MO    3     MO 0.0        OCC NO =    2.0000000  ORB. ENERGY =   -0.632682
 -0.61146577D-02 -0.11394264D-01 -0.19202487D-01 -0.28649953D-01 -0.34703090D-01
 -0.28875557D-01 -0.10724532D-01  0.56934285D-04 -0.25479051D-01 -0.47591957D-01
 -0.81001750D-01 -0.12388324D+00 -0.16111750D+00 -0.16308743D+00 -0.10738480D+00
  0.73403439D-01  0.22682220D-01 -0.99992478D-02 -0.63183499D-03 -0.88306475D-01
 -0.79586685D-01 -0.57785094D-01  0.52098481D-15  0.46954036D-15  0.34091675D-15
 -0.95404197D-14 -0.85983545D-14 -0.62429629D-14 -0.15651567D-01  0.62081691D-13
  0.83846786D-13  0.34535599D-04  0.35177494D-12  0.12192986D-12 -0.42322508D-04
 -0.15572550D-13  0.54429863D-14  0.76798435D-02 -0.57401285D-02 -0.19397150D-02
  0.92675049D-14 -0.26909489D-13  0.25565493D-15  0.13257618D-02 -0.15395767D-02
  0.21381497D-03  0.12417234D-12  0.14147060D-13  0.35588099D-14  0.57193275D-04
 -0.79110228D-04  0.21916952D-04 -0.26752598D-13 -0.70058487D-14  0.73855407D-15
 -0.12512172D-02  0.70475014D-14 -0.22991354D-14  0.71805790D-02 -0.50951416D-14
 -0.50239417D-16 -0.34269275D-02 -0.16047363D-13  0.69476456D-14  0.40725393D-15
 -0.12895635D-03  0.90274465D-14  0.14797035D-14  0.32218557D-03 -0.11178580D-13
 -0.92169391D-14  0.64683484D-04 -0.15903760D-13  0.47778286D-14  0.42615305D-15
 -0.61146577D-02 -0.11394264D-01 -0.19202487D-01 -0.28649953D-01 -0.34703090D-01
 -0.28875557D-01 -0.10724532D-01  0.56934285D-04 -0.25479051D-01 -0.47591957D-01
 -0.81001750D-01 -0.12388324D+00 -0.16111750D+00 -0.16308743D+00 -0.10738480D+00
  0.73403439D-01  0.22682220D-01 -0.99992478D-02 -0.63183499D-03  0.88306475D-01
  0.79586685D-01  0.57785094D-01 -0.84392438D-15 -0.76059138D-15 -0.55223866D-15
 -0.10976977D-13 -0.98930590D-14 -0.71830024D-14  0.15651567D-01 -0.17324072D-13
  0.48538002D-13 -0.34535602D-04 -0.28843274D-12 -0.19862474D-13  0.42322508D-04
  0.15552322D-13  0.43372330D-14  0.76798435D-02 -0.57401285D-02 -0.19397150D-02
 -0.51141690D-14  0.15229383D-13 -0.19967747D-15  0.13257618D-02 -0.15395767D-02
  0.21381497D-03  0.13208529D-12 -0.10414608D-14 -0.24039475D-14  0.57193275D-04
 -0.79110228D-04  0.21916952D-04 -0.25886991D-13 -0.68530644D-15 -0.62474202D-15
  0.12512172D-02 -0.62246677D-14  0.41672849D-16 -0.71805790D-02  0.76695797D-15
 -0.15597566D-14  0.34269275D-02  0.17907045D-13  0.14347381D-14  0.13404270D-14
  0.12895635D-03 -0.88712284D-14  0.73949727D-15 -0.32218557D-03  0.10835076D-13
 -0.28866299D-14 -0.64683484D-04  0.15778609D-13  0.66813806D-15  0.81463865D-15
  0.26074693D-01  0.47026783D-01  0.69340963D-01  0.35087014D-01  0.12351140D-01
 -0.78273534D-04  0.14785440D-12  0.92506346D-15 -0.18493422D-01 -0.63853371D-12
 -0.43535871D-14 -0.28799355D-02 -0.22595209D-11 -0.12711613D-13 -0.12318251D-02
  0.44701596D-03 -0.30642215D-02  0.26172055D-02  0.66352617D-14  0.31377257D-12
  0.11300999D-14 -0.70834259D-03  0.20433624D-03  0.50400634D-03  0.33090383D-13
  0.11464015D-12  0.39468907D-14  0.26074693D-01  0.47026783D-01  0.69340963D-01
  0.35087014D-01  0.12351140D-01 -0.78273534D-04  0.13519163D-12 -0.37009946D-15
  0.18493422D-01 -0.62116818D-12 -0.20459106D-14  0.28799355D-02 -0.21510056D-11
 -0.10908044D-13  0.12318251D-02  0.44701596D-03 -0.30642215D-02  0.26172055D-02
  0.67536238D-14 -0.31742679D-12 -0.12220188D-14 -0.70834259D-03  0.20433624D-03
  0.50400634D-03  0.34382260D-13 -0.94341904D-13 -0.27785980D-14  0.83425691D-02
  0.15046167D-01  0.22185564D-01  0.10743837D-01  0.72870627D-02  0.26751020D-03
 -0.52417519D-02 -0.50158215D-02  0.41259322D-14 -0.23752209D-02  0.11280074D-02
 -0.17127911D-13 -0.76049073D-03 -0.20236616D-03 -0.17263503D-13  0.17709020D-02
 -0.36309897D-03 -0.14078030D-02  0.45016461D-02  0.72642651D-14  0.10388053D-13
  0.34322097D-03 -0.42282794D-03  0.79606973D-04 -0.66093344D-03  0.32572068D-14
  0.28118279D-14  0.83425691D-02  0.15046167D-01  0.22185564D-01  0.10743837D-01
  0.72870627D-02  0.26751020D-03 -0.52417519D-02  0.50158215D-02  0.17369830D-14
 -0.23752209D-02 -0.11280074D-02 -0.12342420D-13 -0.76049073D-03  0.20236616D-03
 -0.12337752D-13  0.17709020D-02 -0.36309897D-03 -0.14078030D-02 -0.45016461D-02
  0.72390248D-14 -0.10771990D-13  0.34322097D-03 -0.42282794D-03  0.79606973D-04
  0.66093344D-03  0.18159231D-14 -0.25195115D-15  0.83425691D-02  0.15046167D-01
  0.22185564D-01  0.10743837D-01  0.72870627D-02  0.26751020D-03  0.52417519D-02
 -0.50158215D-02 -0.25088738D-14  0.23752209D-02  0.11280074D-02 -0.84224676D-15
  0.76049073D-03 -0.20236617D-03  0.60364975D-14  0.17709020D-02 -0.36309897D-03
 -0.14078030D-02 -0.45016461D-02 -0.45158897D-14  0.70000082D-14  0.34322097D-03
 -0.42282794D-03  0.79606973D-04  0.66093344D-03  0.21870820D-14 -0.28328027D-14
  0.83425691D-02  0.15046167D-01  0.22185564D-01  0.10743837D-01  0.72870627D-02
  0.26751020D-03  0.52417519D-02  0.50158215D-02 -0.37822952D-15  0.23752209D-02
 -0.11280074D-02 -0.53992429D-14  0.76049073D-03  0.20236617D-03  0.80955998D-15
  0.17709020D-02 -0.36309897D-03 -0.14078030D-02  0.45016461D-02 -0.40714499D-14
 -0.68166317D-14  0.34322097D-03 -0.42282794D-03  0.79606973D-04 -0.66093344D-03
  0.10114801D-14  0.12078341D-15
MO    4     MO 0.0        OCC NO =    2.0000000  ORB. ENERGY =   -0.429610
  0.43254789D-02  0.80602467D-02  0.13583745D-01  0.20266836D-01  0.24548796D-01
  0.20426427D-01  0.75864813D-02 -0.40275034D-04  0.25065972D-01  0.46820372D-01
  0.79688508D-01  0.12187478D+00  0.15850538D+00  0.16044338D+00  0.10564383D+00
 -0.72213385D-01 -0.24198815D-01 -0.35455783D-01 -0.67078296D-03 -0.89844834D-01
 -0.80973139D-01 -0.58791750D-01  0.10315499D-13  0.92968986D-14  0.67501512D-14
 -0.10420238D-14 -0.93912953D-15 -0.68186894D-15 -0.16303554D-01 -0.13666330D-12
  0.10497182D-12  0.29663063D-02 -0.19028339D-11  0.35684947D-12  0.16035001D-04
  0.20314092D-12  0.10445462D-13  0.40509270D-02 -0.90927458D-02  0.50418189D-02
 -0.12864177D-13 -0.33953868D-13 -0.64438539D-15  0.42323865D-03 -0.14557400D-02
  0.10325013D-02 -0.48032303D-12  0.13379743D-13  0.20620297D-14 -0.27730099D-04
 -0.14930320D-04  0.42660419D-04  0.19396669D-12 -0.21870742D-13 -0.10020114D-15
  0.15509130D-02 -0.33161139D-13 -0.25915675D-14 -0.50130431D-02  0.43290420D-13
  0.36990882D-14  0.36030422D-03  0.56192997D-13  0.40756143D-14  0.17943248D-15
  0.26926769D-03 -0.37900560D-13  0.28140099D-14 -0.84731430D-03  0.45128467D-13
 -0.17064131D-13  0.39511226D-04  0.68573212D-13  0.86221009D-14 -0.85844828D-15
 -0.43254789D-02 -0.80602467D-02 -0.13583745D-01 -0.20266836D-01 -0.24548796D-01
 -0.20426427D-01 -0.75864813D-02  0.40275034D-04 -0.25065972D-01 -0.46820372D-01
 -0.79688508D-01 -0.12187478D+00 -0.15850538D+00 -0.16044338D+00 -0.10564383D+00
  0.72213385D-01  0.24198815D-01  0.35455783D-01  0.67078296D-03 -0.89844834D-01
 -0.80973139D-01 -0.58791750D-01 -0.21819515D-13 -0.19664955D-13 -0.14278032D-13
 -0.88928545D-14 -0.80147328D-14 -0.58192158D-14 -0.16303554D-01  0.45990456D-12
 -0.13025756D-13  0.29663063D-02  0.18887043D-11 -0.26049985D-12  0.16035001D-04
 -0.21262136D-12  0.48916929D-14 -0.40509270D-02  0.90927458D-02 -0.50418189D-02
 -0.88767083D-13 -0.11386009D-13  0.59568434D-15 -0.42323865D-03  0.14557400D-02
 -0.10325013D-02 -0.51831227D-12 -0.10040088D-15 -0.36325047D-14  0.27730099D-04
  0.14930320D-04 -0.42660419D-04  0.20455187D-12 -0.15106237D-13 -0.58368983D-16
  0.15509130D-02  0.47926082D-13  0.16528058D-14 -0.50130431D-02 -0.50096171D-13
 -0.91171327D-14  0.36030422D-03 -0.93682074D-13  0.41587152D-14 -0.43157398D-16
  0.26926769D-03  0.48332064D-13 -0.14414997D-14 -0.84731430D-03 -0.72948214D-13
  0.76958342D-14  0.39511226D-04 -0.72047978D-13 -0.33713351D-14 -0.10568898D-14
  0.15302766D-13  0.27599169D-13  0.40694958D-13 -0.51499725D-12 -0.93849369D-11
 -0.13040831D-12 -0.11587338D-01 -0.30206552D-14 -0.33042054D-13 -0.67537829D-02
  0.14912237D-13  0.25401659D-12  0.11536698D-02  0.90309904D-14  0.10418734D-11
  0.79331685D-14  0.50985285D-13 -0.58918454D-13 -0.17555568D-13  0.61264398D-02
 -0.71230650D-14 -0.99811725D-13  0.15475757D-13  0.84335969D-13 -0.12795630D-12
  0.28116242D-03  0.51388254D-14  0.19960490D-13  0.35999566D-13  0.53081339D-13
 -0.64962996D-12 -0.88306460D-11  0.12256389D-12 -0.11587338D-01 -0.20194692D-14
 -0.30207295D-14 -0.67537829D-02  0.13151366D-13 -0.21191809D-12  0.11536698D-02
  0.74522140D-14 -0.96493256D-12  0.16633059D-14  0.56255706D-13 -0.57919012D-13
 -0.18466033D-13 -0.61264398D-02  0.70967201D-14 -0.81247423D-13 -0.31587667D-14
  0.84406189D-13 -0.12422024D-12 -0.28116242D-03 -0.59520420D-14 -0.22368565D-01
 -0.40342629D-01 -0.59485182D-01 -0.32613445D-01 -0.45712201D-02 -0.67151173D-04
  0.39586013D-02  0.11043466D-01  0.15184934D-14 -0.52993750D-03  0.35302051D-02
 -0.12960094D-13 -0.64021752D-03  0.14698001D-03 -0.36008238D-13  0.18533712D-02
 -0.31663916D-02  0.13130204D-02 -0.16079564D-02  0.57924905D-14  0.10855684D-13
 -0.58982226D-04 -0.13335040D-03  0.19233263D-03  0.44954837D-03  0.56608994D-14
 -0.24041190D-14 -0.22368565D-01 -0.40342629D-01 -0.59485182D-01 -0.32613445D-01
 -0.45712201D-02 -0.67151171D-04  0.39586013D-02 -0.11043466D-01  0.13760880D-14
 -0.52993750D-03 -0.35302051D-02 -0.12116389D-13 -0.64021752D-03 -0.14698001D-03
 -0.36805587D-13  0.18533712D-02 -0.31663916D-02  0.13130204D-02  0.16079564D-02
  0.57956303D-14 -0.10039051D-13 -0.58982226D-04 -0.13335040D-03  0.19233263D-03
 -0.44954837D-03  0.48525605D-14  0.19474665D-14  0.22368565D-01  0.40342629D-01
  0.59485182D-01  0.32613445D-01  0.45712201D-02  0.67151173D-04  0.39586013D-02
 -0.11043466D-01 -0.10246688D-16 -0.52993750D-03 -0.35302051D-02 -0.55377689D-15
 -0.64021752D-03 -0.14698001D-03  0.26841618D-13 -0.18533712D-02  0.31663916D-02
 -0.13130204D-02 -0.16079564D-02 -0.32628090D-14  0.25073630D-14  0.58982225D-04
  0.13335040D-03 -0.19233263D-03  0.44954837D-03  0.58953870D-14  0.65890887D-15
  0.22368565D-01  0.40342629D-01  0.59485182D-01  0.32613445D-01  0.45712201D-02
  0.67151171D-04  0.39586013D-02  0.11043466D-01  0.86982081D-15 -0.52993750D-03
  0.35302051D-02 -0.27424769D-14 -0.64021752D-03  0.14698001D-03  0.27085339D-13
 -0.18533712D-02  0.31663916D-02 -0.13130204D-02  0.16079564D-02 -0.37317705D-14
 -0.32501398D-14  0.58982226D-04  0.13335040D-03 -0.19233263D-03 -0.44954837D-03
  0.46364408D-14 -0.75834399D-15
MO    5     MO 0.0        OCC NO =    2.0000000  ORB. ENERGY =   -0.401155
  0.24058353D-13  0.44831166D-13  0.75552914D-13  0.11272433D-12  0.13654063D-12
  0.11361197D-12  0.42196078D-13 -0.22401011D-15 -0.17763514D-13 -0.33180214D-13
 -0.56472891D-13 -0.86369056D-13 -0.11232808D-12 -0.11370148D-12 -0.74866659D-13
  0.51175493D-13  0.23353562D-12 -0.11032083D-10 -0.37104090D-12 -0.48910118D-13
 -0.44080507D-13 -0.32005306D-13 -0.39465069D-14 -0.35568105D-14 -0.25824751D-14
 -0.18507931D+00 -0.16680373D+00 -0.12111032D+00  0.21627463D-12 -0.18417448D-13
 -0.41111833D-01  0.48873465D-12 -0.27882119D-13 -0.15188305D-02 -0.20184464D-13
 -0.21344868D-13 -0.70132241D-04 -0.12514436D-13 -0.15066410D-13  0.27580846D-13
 -0.90981579D-15  0.36671287D-01 -0.60172521D-15 -0.44397646D-13 -0.31426686D-13
  0.75824332D-13 -0.37152576D-13  0.65670539D-02 -0.35553606D-14 -0.41524226D-14
 -0.53249689D-14  0.94773914D-14  0.11842914D-14  0.55374136D-04 -0.69077663D-15
  0.37763606D-13 -0.15032043D-14 -0.23157907D-03 -0.12554595D-12 -0.59005857D-15