 Molden2AIM, Version 4.0.0 (06/02/2016)           Time: Sat Jun 30 00:42:16 2018
GAUSSIAN             21 MOL ORBITALS    612 PRIMITIVES       12 NUCLEI
  N    1    (CENTRE  1)  -4.56813701  3.78905962  0.30055338  CHARGE =  7.0
  B    2    (CENTRE  2)  -3.72915719  1.22616391  0.15936249  CHARGE =  5.0
  N    3    (CENTRE  3)  -1.07481386  0.81364804 -0.11634288  CHARGE =  7.0
  B    4    (CENTRE  4)   0.71598510  2.83041856 -0.25098020  CHARGE =  5.0
  N    5    (CENTRE  5)  -0.25016572  5.34740148 -0.09650831  CHARGE =  7.0
  B    6    (CENTRE  6)  -2.88017505  5.89352288  0.18023452  CHARGE =  5.0
  H    7    (CENTRE  7)  -6.43497855  4.12777791  0.49495518  CHARGE =  1.0
  H    8    (CENTRE  8)   0.97907655  6.80290066 -0.18675029  CHARGE =  1.0
  H    9    (CENTRE  9)  -0.43670815 -0.98064881 -0.22116977  CHARGE =  1.0
  H   10    (CENTRE 10)  -5.19394438 -0.50869160  0.26756254  CHARGE =  1.0
  H   11    (CENTRE 11)  -3.64052525  8.03202389  0.30554226  CHARGE =  1.0
  H   12    (CENTRE 12)   2.94083526  2.42677684 -0.48372453  CHARGE =  1.0
CENTRE ASSIGNMENTS    1  1  1  1  1  1  1  1  1  1  1  1  1  1  1  1  1  1  1  1
CENTRE ASSIGNMENTS    1  1  1  1  1  1  1  1  1  1  1  1  1  1  1  1  1  1  1  1
CENTRE ASSIGNMENTS    1  1  1  1  1  1  1  1  1  1  1  1  1  1  1  1  1  1  1  1
CENTRE ASSIGNMENTS    1  1  1  1  1  1  1  1  1  1  1  1  1  1  1  2  2  2  2  2
CENTRE ASSIGNMENTS    2  2  2  2  2  2  2  2  2  2  2  2  2  2  2  2  2  2  2  2
CENTRE ASSIGNMENTS    2  2  2  2  2  2  2  2  2  2  2  2  2  2  2  2  2  2  2  2
CENTRE ASSIGNMENTS    2  2  2  2  2  2  2  2  2  2  2  2  2  2  2  2  2  2  2  2
CENTRE ASSIGNMENTS    2  2  2  2  2  2  2  2  2  2  3  3  3  3  3  3  3  3  3  3
CENTRE ASSIGNMENTS    3  3  3  3  3  3  3  3  3  3  3  3  3  3  3  3  3  3  3  3
CENTRE ASSIGNMENTS    3  3  3  3  3  3  3  3  3  3  3  3  3  3  3  3  3  3  3  3
CENTRE ASSIGNMENTS    3  3  3  3  3  3  3  3  3  3  3  3  3  3  3  3  3  3  3  3
CENTRE ASSIGNMENTS    3  3  3  3  3  4  4  4  4  4  4  4  4  4  4  4  4  4  4  4
CENTRE ASSIGNMENTS    4  4  4  4  4  4  4  4  4  4  4  4  4  4  4  4  4  4  4  4
CENTRE ASSIGNMENTS    4  4  4  4  4  4  4  4  4  4  4  4  4  4  4  4  4  4  4  4
CENTRE ASSIGNMENTS    4  4  4  4  4  4  4  4  4  4  4  4  4  4  4  4  4  4  4  4
CENTRE ASSIGNMENTS    5  5  5  5  5  5  5  5  5  5  5  5  5  5  5  5  5  5  5  5
CENTRE ASSIGNMENTS    5  5  5  5  5  5  5  5  5  5  5  5  5  5  5  5  5  5  5  5
CENTRE ASSIGNMENTS    5  5  5  5  5  5  5  5  5  5  5  5  5  5  5  5  5  5  5  5
CENTRE ASSIGNMENTS    5  5  5  5  5  5  5  5  5  5  5  5  5  5  5  6  6  6  6  6
CENTRE ASSIGNMENTS    6  6  6  6  6  6  6  6  6  6  6  6  6  6  6  6  6  6  6  6
CENTRE ASSIGNMENTS    6  6  6  6  6  6  6  6  6  6  6  6  6  6  6  6  6  6  6  6
CENTRE ASSIGNMENTS    6  6  6  6  6  6  6  6  6  6  6  6  6  6  6  6  6  6  6  6
CENTRE ASSIGNMENTS    6  6  6  6  6  6  6  6  6  6  7  7  7  7  7  7  7  7  7  7
CENTRE ASSIGNMENTS    7  7  7  7  7  7  7  7  7  7  7  7  7  7  7  7  7  8  8  8
CENTRE ASSIGNMENTS    8  8  8  8  8  8  8  8  8  8  8  8  8  8  8  8  8  8  8  8
CENTRE ASSIGNMENTS    8  8  8  8  9  9  9  9  9  9  9  9  9  9  9  9  9  9  9  9
CENTRE ASSIGNMENTS    9  9  9  9  9  9  9  9  9  9  9 10 10 10 10 10 10 10 10 10
CENTRE ASSIGNMENTS   10 10 10 10 10 10 10 10 10 10 10 10 10 10 10 10 10 10 11 11
CENTRE ASSIGNMENTS   11 11 11 11 11 11 11 11 11 11 11 11 11 11 11 11 11 11 11 11
CENTRE ASSIGNMENTS   11 11 11 11 11 12 12 12 12 12 12 12 12 12 12 12 12 12 12 12
CENTRE ASSIGNMENTS   12 12 12 12 12 12 12 12 12 12 12 12
TYPE ASSIGNMENTS      1  1  1  1  1  1  1  1  1  1  1  1  1  1  1  1  1  1  1  2
TYPE ASSIGNMENTS      2  2  3  3  3  4  4  4  2  3  4  2  3  4  2  3  4  5  6  7
TYPE ASSIGNMENTS      8  9 10  5  6  7  8  9 10  5  6  7  8  9 10 11 12 13 17 14
TYPE ASSIGNMENTS     15 18 19 16 20 11 12 13 17 14 15 18 19 16 20  1  1  1  1  1
TYPE ASSIGNMENTS      1  1  1  1  1  1  1  1  1  1  1  1  1  1  2  2  2  3  3  3
TYPE ASSIGNMENTS      4  4  4  2  3  4  2  3  4  2  3  4  5  6  7  8  9 10  5  6
TYPE ASSIGNMENTS      7  8  9 10  5  6  7  8  9 10 11 12 13 17 14 15 18 19 16 20
TYPE ASSIGNMENTS     11 12 13 17 14 15 18 19 16 20  1  1  1  1  1  1  1  1  1  1
TYPE ASSIGNMENTS      1  1  1  1  1  1  1  1  1  2  2  2  3  3  3  4  4  4  2  3
TYPE ASSIGNMENTS      4  2  3  4  2  3  4  5  6  7  8  9 10  5  6  7  8  9 10  5
TYPE ASSIGNMENTS      6  7  8  9 10 11 12 13 17 14 15 18 19 16 20 11 12 13 17 14
TYPE ASSIGNMENTS     15 18 19 16 20  1  1  1  1  1  1  1  1  1  1  1  1  1  1  1
TYPE ASSIGNMENTS      1  1  1  1  2  2  2  3  3  3  4  4  4  2  3  4  2  3  4  2
TYPE ASSIGNMENTS      3  4  5  6  7  8  9 10  5  6  7  8  9 10  5  6  7  8  9 10
TYPE ASSIGNMENTS     11 12 13 17 14 15 18 19 16 20 11 12 13 17 14 15 18 19 16 20
TYPE ASSIGNMENTS      1  1  1  1  1  1  1  1  1  1  1  1  1  1  1  1  1  1  1  2
TYPE ASSIGNMENTS      2  2  3  3  3  4  4  4  2  3  4  2  3  4  2  3  4  5  6  7
TYPE ASSIGNMENTS      8  9 10  5  6  7  8  9 10  5  6  7  8  9 10 11 12 13 17 14
TYPE ASSIGNMENTS     15 18 19 16 20 11 12 13 17 14 15 18 19 16 20  1  1  1  1  1
TYPE ASSIGNMENTS      1  1  1  1  1  1  1  1  1  1  1  1  1  1  2  2  2  3  3  3
TYPE ASSIGNMENTS      4  4  4  2  3  4  2  3  4  2  3  4  5  6  7  8  9 10  5  6
TYPE ASSIGNMENTS      7  8  9 10  5  6  7  8  9 10 11 12 13 17 14 15 18 19 16 20
TYPE ASSIGNMENTS     11 12 13 17 14 15 18 19 16 20  1  1  1  1  1  1  2  3  4  2
TYPE ASSIGNMENTS      3  4  2  3  4  5  6  7  8  9 10  5  6  7  8  9 10  1  1  1
TYPE ASSIGNMENTS      1  1  1  2  3  4  2  3  4  2  3  4  5  6  7  8  9 10  5  6
TYPE ASSIGNMENTS      7  8  9 10  1  1  1  1  1  1  2  3  4  2  3  4  2  3  4  5
TYPE ASSIGNMENTS      6  7  8  9 10  5  6  7  8  9 10  1  1  1  1  1  1  2  3  4
TYPE ASSIGNMENTS      2  3  4  2  3  4  5  6  7  8  9 10  5  6  7  8  9 10  1  1
TYPE ASSIGNMENTS      1  1  1  1  2  3  4  2  3  4  2  3  4  5  6  7  8  9 10  5
TYPE ASSIGNMENTS      6  7  8  9 10  1  1  1  1  1  1  2  3  4  2  3  4  2  3  4
TYPE ASSIGNMENTS      5  6  7  8  9 10  5  6  7  8  9 10
EXPONENTS  0.1142000D+05 0.1712000D+04 0.3893000D+03 0.1100000D+03 0.3557000D+02
EXPONENTS  0.1254000D+02 0.4644000D+01 0.5118000D+00 0.1142000D+05 0.1712000D+04
EXPONENTS  0.3893000D+03 0.1100000D+03 0.3557000D+02 0.1254000D+02 0.4644000D+01
EXPONENTS  0.5118000D+00 0.1293000D+01 0.1787000D+00 0.5760000D-01 0.2663000D+02
EXPONENTS  0.5948000D+01 0.1742000D+01 0.2663000D+02 0.5948000D+01 0.1742000D+01
EXPONENTS  0.2663000D+02 0.5948000D+01 0.1742000D+01 0.5550000D+00 0.5550000D+00
EXPONENTS  0.5550000D+00 0.1725000D+00 0.1725000D+00 0.1725000D+00 0.4910000D-01
EXPONENTS  0.4910000D-01 0.4910000D-01 0.1654000D+01 0.1654000D+01 0.1654000D+01
EXPONENTS  0.1654000D+01 0.1654000D+01 0.1654000D+01 0.4690000D+00 0.4690000D+00
EXPONENTS  0.4690000D+00 0.4690000D+00 0.4690000D+00 0.4690000D+00 0.1510000D+00
EXPONENTS  0.1510000D+00 0.1510000D+00 0.1510000D+00 0.1510000D+00 0.1510000D+00
EXPONENTS  0.1093000D+01 0.1093000D+01 0.1093000D+01 0.1093000D+01 0.1093000D+01
EXPONENTS  0.1093000D+01 0.1093000D+01 0.1093000D+01 0.1093000D+01 0.1093000D+01
EXPONENTS  0.3640000D+00 0.3640000D+00 0.3640000D+00 0.3640000D+00 0.3640000D+00
EXPONENTS  0.3640000D+00 0.3640000D+00 0.3640000D+00 0.3640000D+00 0.3640000D+00
EXPONENTS  0.5473000D+04 0.8209000D+03 0.1868000D+03 0.5283000D+02 0.1708000D+02
EXPONENTS  0.5999000D+01 0.2208000D+01 0.2415000D+00 0.5473000D+04 0.8209000D+03
EXPONENTS  0.1868000D+03 0.5283000D+02 0.1708000D+02 0.5999000D+01 0.2208000D+01
EXPONENTS  0.2415000D+00 0.5879000D+00 0.8610000D-01 0.2914000D-01 0.1205000D+02
EXPONENTS  0.2613000D+01 0.7475000D+00 0.1205000D+02 0.2613000D+01 0.7475000D+00
EXPONENTS  0.1205000D+02 0.2613000D+01 0.7475000D+00 0.2385000D+00 0.2385000D+00
EXPONENTS  0.2385000D+00 0.7698000D-01 0.7698000D-01 0.7698000D-01 0.2096000D-01
EXPONENTS  0.2096000D-01 0.2096000D-01 0.6610000D+00 0.6610000D+00 0.6610000D+00
EXPONENTS  0.6610000D+00 0.6610000D+00 0.6610000D+00 0.1990000D+00 0.1990000D+00
EXPONENTS  0.1990000D+00 0.1990000D+00 0.1990000D+00 0.1990000D+00 0.6040000D-01
EXPONENTS  0.6040000D-01 0.6040000D-01 0.6040000D-01 0.6040000D-01 0.6040000D-01
EXPONENTS  0.4900000D+00 0.4900000D+00 0.4900000D+00 0.4900000D+00 0.4900000D+00
EXPONENTS  0.4900000D+00 0.4900000D+00 0.4900000D+00 0.4900000D+00 0.4900000D+00
EXPONENTS  0.1630000D+00 0.1630000D+00 0.1630000D+00 0.1630000D+00 0.1630000D+00
EXPONENTS  0.1630000D+00 0.1630000D+00 0.1630000D+00 0.1630000D+00 0.1630000D+00
EXPONENTS  0.1142000D+05 0.1712000D+04 0.3893000D+03 0.1100000D+03 0.3557000D+02
EXPONENTS  0.1254000D+02 0.4644000D+01 0.5118000D+00 0.1142000D+05 0.1712000D+04
EXPONENTS  0.3893000D+03 0.1100000D+03 0.3557000D+02 0.1254000D+02 0.4644000D+01
EXPONENTS  0.5118000D+00 0.1293000D+01 0.1787000D+00 0.5760000D-01 0.2663000D+02
EXPONENTS  0.5948000D+01 0.1742000D+01 0.2663000D+02 0.5948000D+01 0.1742000D+01
EXPONENTS  0.2663000D+02 0.5948000D+01 0.1742000D+01 0.5550000D+00 0.5550000D+00
EXPONENTS  0.5550000D+00 0.1725000D+00 0.1725000D+00 0.1725000D+00 0.4910000D-01
EXPONENTS  0.4910000D-01 0.4910000D-01 0.1654000D+01 0.1654000D+01 0.1654000D+01
EXPONENTS  0.1654000D+01 0.1654000D+01 0.1654000D+01 0.4690000D+00 0.4690000D+00
EXPONENTS  0.4690000D+00 0.4690000D+00 0.4690000D+00 0.4690000D+00 0.1510000D+00
EXPONENTS  0.1510000D+00 0.1510000D+00 0.1510000D+00 0.1510000D+00 0.1510000D+00
EXPONENTS  0.1093000D+01 0.1093000D+01 0.1093000D+01 0.1093000D+01 0.1093000D+01
EXPONENTS  0.1093000D+01 0.1093000D+01 0.1093000D+01 0.1093000D+01 0.1093000D+01
EXPONENTS  0.3640000D+00 0.3640000D+00 0.3640000D+00 0.3640000D+00 0.3640000D+00
EXPONENTS  0.3640000D+00 0.3640000D+00 0.3640000D+00 0.3640000D+00 0.3640000D+00
EXPONENTS  0.5473000D+04 0.8209000D+03 0.1868000D+03 0.5283000D+02 0.1708000D+02
EXPONENTS  0.5999000D+01 0.2208000D+01 0.2415000D+00 0.5473000D+04 0.8209000D+03
EXPONENTS  0.1868000D+03 0.5283000D+02 0.1708000D+02 0.5999000D+01 0.2208000D+01
EXPONENTS  0.2415000D+00 0.5879000D+00 0.8610000D-01 0.2914000D-01 0.1205000D+02
EXPONENTS  0.2613000D+01 0.7475000D+00 0.1205000D+02 0.2613000D+01 0.7475000D+00
EXPONENTS  0.1205000D+02 0.2613000D+01 0.7475000D+00 0.2385000D+00 0.2385000D+00
EXPONENTS  0.2385000D+00 0.7698000D-01 0.7698000D-01 0.7698000D-01 0.2096000D-01
EXPONENTS  0.2096000D-01 0.2096000D-01 0.6610000D+00 0.6610000D+00 0.6610000D+00
EXPONENTS  0.6610000D+00 0.6610000D+00 0.6610000D+00 0.1990000D+00 0.1990000D+00
EXPONENTS  0.1990000D+00 0.1990000D+00 0.1990000D+00 0.1990000D+00 0.6040000D-01
EXPONENTS  0.6040000D-01 0.6040000D-01 0.6040000D-01 0.6040000D-01 0.6040000D-01
EXPONENTS  0.4900000D+00 0.4900000D+00 0.4900000D+00 0.4900000D+00 0.4900000D+00
EXPONENTS  0.4900000D+00 0.4900000D+00 0.4900000D+00 0.4900000D+00 0.4900000D+00
EXPONENTS  0.1630000D+00 0.1630000D+00 0.1630000D+00 0.1630000D+00 0.1630000D+00
EXPONENTS  0.1630000D+00 0.1630000D+00 0.1630000D+00 0.1630000D+00 0.1630000D+00
EXPONENTS  0.1142000D+05 0.1712000D+04 0.3893000D+03 0.1100000D+03 0.3557000D+02
EXPONENTS  0.1254000D+02 0.4644000D+01 0.5118000D+00 0.1142000D+05 0.1712000D+04
EXPONENTS  0.3893000D+03 0.1100000D+03 0.3557000D+02 0.1254000D+02 0.4644000D+01
EXPONENTS  0.5118000D+00 0.1293000D+01 0.1787000D+00 0.5760000D-01 0.2663000D+02
EXPONENTS  0.5948000D+01 0.1742000D+01 0.2663000D+02 0.5948000D+01 0.1742000D+01
EXPONENTS  0.2663000D+02 0.5948000D+01 0.1742000D+01 0.5550000D+00 0.5550000D+00
EXPONENTS  0.5550000D+00 0.1725000D+00 0.1725000D+00 0.1725000D+00 0.4910000D-01
EXPONENTS  0.4910000D-01 0.4910000D-01 0.1654000D+01 0.1654000D+01 0.1654000D+01
EXPONENTS  0.1654000D+01 0.1654000D+01 0.1654000D+01 0.4690000D+00 0.4690000D+00
EXPONENTS  0.4690000D+00 0.4690000D+00 0.4690000D+00 0.4690000D+00 0.1510000D+00
EXPONENTS  0.1510000D+00 0.1510000D+00 0.1510000D+00 0.1510000D+00 0.1510000D+00
EXPONENTS  0.1093000D+01 0.1093000D+01 0.1093000D+01 0.1093000D+01 0.1093000D+01
EXPONENTS  0.1093000D+01 0.1093000D+01 0.1093000D+01 0.1093000D+01 0.1093000D+01
EXPONENTS  0.3640000D+00 0.3640000D+00 0.3640000D+00 0.3640000D+00 0.3640000D+00
EXPONENTS  0.3640000D+00 0.3640000D+00 0.3640000D+00 0.3640000D+00 0.3640000D+00
EXPONENTS  0.5473000D+04 0.8209000D+03 0.1868000D+03 0.5283000D+02 0.1708000D+02
EXPONENTS  0.5999000D+01 0.2208000D+01 0.2415000D+00 0.5473000D+04 0.8209000D+03
EXPONENTS  0.1868000D+03 0.5283000D+02 0.1708000D+02 0.5999000D+01 0.2208000D+01
EXPONENTS  0.2415000D+00 0.5879000D+00 0.8610000D-01 0.2914000D-01 0.1205000D+02
EXPONENTS  0.2613000D+01 0.7475000D+00 0.1205000D+02 0.2613000D+01 0.7475000D+00
EXPONENTS  0.1205000D+02 0.2613000D+01 0.7475000D+00 0.2385000D+00 0.2385000D+00
EXPONENTS  0.2385000D+00 0.7698000D-01 0.7698000D-01 0.7698000D-01 0.2096000D-01
EXPONENTS  0.2096000D-01 0.2096000D-01 0.6610000D+00 0.6610000D+00 0.6610000D+00
EXPONENTS  0.6610000D+00 0.6610000D+00 0.6610000D+00 0.1990000D+00 0.1990000D+00
EXPONENTS  0.1990000D+00 0.1990000D+00 0.1990000D+00 0.1990000D+00 0.6040000D-01
EXPONENTS  0.6040000D-01 0.6040000D-01 0.6040000D-01 0.6040000D-01 0.6040000D-01
EXPONENTS  0.4900000D+00 0.4900000D+00 0.4900000D+00 0.4900000D+00 0.4900000D+00
EXPONENTS  0.4900000D+00 0.4900000D+00 0.4900000D+00 0.4900000D+00 0.4900000D+00
EXPONENTS  0.1630000D+00 0.1630000D+00 0.1630000D+00 0.1630000D+00 0.1630000D+00
EXPONENTS  0.1630000D+00 0.1630000D+00 0.1630000D+00 0.1630000D+00 0.1630000D+00
EXPONENTS  0.3387000D+02 0.5095000D+01 0.1159000D+01 0.3258000D+00 0.1027000D+00
EXPONENTS  0.2526000D-01 0.1407000D+01 0.1407000D+01 0.1407000D+01 0.3880000D+00
EXPONENTS  0.3880000D+00 0.3880000D+00 0.1020000D+00 0.1020000D+00 0.1020000D+00
EXPONENTS  0.1057000D+01 0.1057000D+01 0.1057000D+01 0.1057000D+01 0.1057000D+01
EXPONENTS  0.1057000D+01 0.2470000D+00 0.2470000D+00 0.2470000D+00 0.2470000D+00
EXPONENTS  0.2470000D+00 0.2470000D+00 0.3387000D+02 0.5095000D+01 0.1159000D+01
EXPONENTS  0.3258000D+00 0.1027000D+00 0.2526000D-01 0.1407000D+01 0.1407000D+01
EXPONENTS  0.1407000D+01 0.3880000D+00 0.3880000D+00 0.3880000D+00 0.1020000D+00
EXPONENTS  0.1020000D+00 0.1020000D+00 0.1057000D+01 0.1057000D+01 0.1057000D+01
EXPONENTS  0.1057000D+01 0.1057000D+01 0.1057000D+01 0.2470000D+00 0.2470000D+00
EXPONENTS  0.2470000D+00 0.2470000D+00 0.2470000D+00 0.2470000D+00 0.3387000D+02
EXPONENTS  0.5095000D+01 0.1159000D+01 0.3258000D+00 0.1027000D+00 0.2526000D-01
EXPONENTS  0.1407000D+01 0.1407000D+01 0.1407000D+01 0.3880000D+00 0.3880000D+00
EXPONENTS  0.3880000D+00 0.1020000D+00 0.1020000D+00 0.1020000D+00 0.1057000D+01
EXPONENTS  0.1057000D+01 0.1057000D+01 0.1057000D+01 0.1057000D+01 0.1057000D+01
EXPONENTS  0.2470000D+00 0.2470000D+00 0.2470000D+00 0.2470000D+00 0.2470000D+00
EXPONENTS  0.2470000D+00 0.3387000D+02 0.5095000D+01 0.1159000D+01 0.3258000D+00
EXPONENTS  0.1027000D+00 0.2526000D-01 0.1407000D+01 0.1407000D+01 0.1407000D+01
EXPONENTS  0.3880000D+00 0.3880000D+00 0.3880000D+00 0.1020000D+00 0.1020000D+00
EXPONENTS  0.1020000D+00 0.1057000D+01 0.1057000D+01 0.1057000D+01 0.1057000D+01
EXPONENTS  0.1057000D+01 0.1057000D+01 0.2470000D+00 0.2470000D+00 0.2470000D+00
EXPONENTS  0.2470000D+00 0.2470000D+00 0.2470000D+00 0.3387000D+02 0.5095000D+01
EXPONENTS  0.1159000D+01 0.3258000D+00 0.1027000D+00 0.2526000D-01 0.1407000D+01
EXPONENTS  0.1407000D+01 0.1407000D+01 0.3880000D+00 0.3880000D+00 0.3880000D+00
EXPONENTS  0.1020000D+00 0.1020000D+00 0.1020000D+00 0.1057000D+01 0.1057000D+01
EXPONENTS  0.1057000D+01 0.1057000D+01 0.1057000D+01 0.1057000D+01 0.2470000D+00
EXPONENTS  0.2470000D+00 0.2470000D+00 0.2470000D+00 0.2470000D+00 0.2470000D+00
EXPONENTS  0.3387000D+02 0.5095000D+01 0.1159000D+01 0.3258000D+00 0.1027000D+00
EXPONENTS  0.2526000D-01 0.1407000D+01 0.1407000D+01 0.1407000D+01 0.3880000D+00
EXPONENTS  0.3880000D+00 0.3880000D+00 0.1020000D+00 0.1020000D+00 0.1020000D+00
EXPONENTS  0.1057000D+01 0.1057000D+01 0.1057000D+01 0.1057000D+01 0.1057000D+01
EXPONENTS  0.1057000D+01 0.2470000D+00 0.2470000D+00 0.2470000D+00 0.2470000D+00
EXPONENTS  0.2470000D+00 0.2470000D+00
MO    1     MO 0.0        OCC NO =    2.0000000  ORB. ENERGY =  -14.143174
 -0.21179643D-02 -0.39465146D-02 -0.66745456D-02 -0.10051496D-01 -0.12444404D-01
 -0.10589626D-01 -0.40295481D-02  0.18872093D-04  0.15483566D-04  0.29031831D-04
  0.49391783D-04  0.76700224D-04  0.10178566D-03  0.10726811D-03  0.66513073D-04
 -0.44244522D-04 -0.35474251D-03  0.32672743D-02 -0.95759808D-03 -0.20762116D-03
 -0.19941764D-03 -0.13984541D-03  0.37288284D-03  0.35814951D-03  0.25115916D-03
  0.28997637D-04  0.27851884D-04  0.19531663D-04  0.64413881D-03 -0.93287255D-03
 -0.85191239D-04  0.17254816D-02 -0.95466115D-03 -0.19504040D-03 -0.15506016D-03
  0.28768678D-03  0.22025117D-04 -0.16370176D-04 -0.64317820D-05  0.22801958D-04
 -0.34442425D-03 -0.37145174D-06  0.33677755D-04 -0.27705932D-03  0.35771360D-03
 -0.80654281D-04 -0.94475009D-05  0.39827663D-04  0.20098902D-04  0.53957650D-04
  0.36716180D-04 -0.90673830D-04 -0.77758622D-03 -0.47141271D-04  0.83573935D-04
  0.16256137D-03 -0.20540665D-04  0.17932400D-04 -0.36909423D-03 -0.18214636D-03
 -0.78621117D-04 -0.11858986D-03  0.24376836D-03  0.24823917D-04  0.75065825D-04
 -0.81033689D-04 -0.51815038D-04 -0.88438803D-05  0.20775039D-03  0.37542917D-03
  0.40907760D-04  0.35350679D-04 -0.21998405D-03 -0.14376120D-04 -0.11319570D-03
  0.31238900D-03  0.58211645D-03  0.98102723D-03  0.14636846D-02  0.17729306D-02
  0.14752103D-02  0.54790079D-03 -0.29086901D-05 -0.24565214D-03 -0.45885013D-03
 -0.78096524D-03 -0.11944002D-02 -0.15533883D-02 -0.15723810D-02 -0.10353332D-02
  0.70770736D-03  0.14371149D-02 -0.11629909D-02  0.16398980D-03  0.11007248D-02
  0.99203413D-03  0.72028111D-03 -0.91615734D-04 -0.82569172D-04 -0.59950573D-04
 -0.11247462D-03 -0.10136835D-03 -0.73599998D-04  0.20904908D-02 -0.12589462D-02
 -0.23791137D-03 -0.86416948D-03 -0.63095561D-04  0.84871694D-04 -0.85969625D-05
  0.21833698D-04  0.13462510D-05  0.19928022D-03 -0.27910711D-03  0.79826894D-04
  0.12881164D-03 -0.21094932D-04 -0.29028406D-04  0.72414666D-03 -0.86363548D-03
  0.13948882D-03  0.67734747D-03 -0.10310731D-03 -0.11251410D-03 -0.14915312D-04
  0.14794818D-04  0.12049440D-06 -0.59529413D-04  0.16621119D-05  0.66166956D-05
 -0.31791456D-03 -0.67454972D-05 -0.47327702D-04  0.50627182D-03  0.53834778D-04
  0.19172956D-03  0.44747185D-03 -0.33598286D-04 -0.49746450D-04 -0.16708447D-04
 -0.68261422D-05 -0.12381425D-03 -0.51737462D-05 -0.32463599D-04  0.35326558D-03
  0.21193845D-04  0.52942026D-04  0.18177167D-04 -0.56726068D-05 -0.71866911D-04
  0.41292157D+00  0.76941854D+00  0.13012796D+01  0.19596550D+01  0.24261801D+01
  0.20645697D+01  0.78560687D+00 -0.36793321D-02 -0.19100397D-02 -0.35813423D-02
 -0.60929288D-02 -0.94616752D-02 -0.12556193D-01 -0.13232504D-01 -0.82049967D-02
  0.54579670D-02  0.41789971D-01 -0.20101212D-02  0.25891392D-02  0.94029937D-04
  0.90314630D-04  0.63334853D-04 -0.27001910D-03 -0.25935012D-03 -0.18187420D-03
 -0.15464234D-04 -0.14853212D-04 -0.10416097D-04  0.11699680D-02 -0.32821861D-02
 -0.19259555D-03  0.16353352D-02 -0.45916245D-02 -0.26693372D-03 -0.17092573D-03
  0.47777739D-03  0.27991788D-04  0.82736644D-03  0.30400843D-02 -0.38674508D-02
 -0.17446305D-02 -0.99290479D-03  0.49167099D-03 -0.80785760D-03  0.34282624D-03
  0.46503136D-03 -0.95476850D-03  0.23610284D-03  0.90328697D-04  0.86758424D-04
 -0.50349329D-03  0.41673487D-03  0.48038450D-03  0.77678050D-04 -0.89764022D-04
 -0.12421698D-02 -0.13655276D-02  0.12064632D-03  0.44683482D-02  0.20786015D-02
  0.27455391D-03 -0.74183870D-03  0.20179812D-02 -0.63649288D-03  0.22924826D-03
  0.45120119D-03  0.32608074D-03 -0.11076795D-04 -0.14317892D-02 -0.80035128D-03
 -0.14105577D-03  0.78185646D-04 -0.17789095D-03  0.17428615D-03  0.57265077D-04
  0.31366812D-03  0.58450000D-03  0.98504417D-03  0.14696778D-02  0.17801901D-02
  0.14812508D-02  0.55014424D-03 -0.29206001D-05 -0.24666374D-03 -0.46073968D-03
 -0.78418126D-03 -0.11993187D-02 -0.15597851D-02 -0.15788561D-02 -0.10395967D-02
  0.71062170D-03  0.14422602D-02 -0.11658485D-02  0.16608828D-03 -0.79530203D-03
 -0.71677022D-03 -0.52042166D-03 -0.77147548D-03 -0.69529641D-03 -0.50483028D-03
  0.62651854D-04  0.56465319D-04  0.40997484D-04 -0.82106775D-03 -0.23014999D-02
  0.30396617D-04  0.71177255D-03  0.50122667D-03 -0.60143098D-04 -0.72162400D-05
  0.22329553D-04  0.12359312D-05  0.71577275D-04 -0.14917100D-03  0.77593728D-04
  0.44207060D-03  0.11243333D-04 -0.55048323D-04  0.42051712D-03 -0.55516756D-03
  0.13465044D-03  0.14176096D-02 -0.25108205D-04 -0.17374442D-03 -0.32188229D-04
  0.32351079D-04 -0.16285018D-06 -0.17459598D-04  0.61078785D-05  0.32330401D-05
 -0.29624992D-04 -0.93980866D-04  0.27101722D-04  0.42704262D-03  0.60265942D-03
 -0.46602057D-04 -0.33816764D-03 -0.32071683D-03 -0.34703109D-04 -0.15188437D-03
 -0.89140495D-04  0.68494467D-04  0.47300262D-05  0.32051931D-03 -0.17768765D-03
  0.12218808D-04 -0.53097821D-04 -0.27795750D-04 -0.26408886D-04  0.47663163D-04
 -0.84557735D-03 -0.15756089D-02 -0.26647496D-02 -0.40129653D-02 -0.49683113D-02
 -0.42278087D-02 -0.16087592D-02  0.75345057D-05  0.95693501D-05  0.17942621D-04
  0.30525737D-04  0.47403246D-04  0.62906864D-04  0.66295200D-04  0.41107253D-04
 -0.27344561D-04 -0.22554897D-03  0.32488411D-02 -0.94634122D-03 -0.75248377D-04
 -0.72275166D-04 -0.50684335D-04  0.42167592D-03  0.40501468D-03  0.28402425D-03
  0.17362656D-04  0.16676624D-04  0.11694800D-04  0.10054427D-03 -0.11239958D-02
 -0.35887591D-04 -0.71763532D-03 -0.18250565D-02  0.30017151D-04 -0.63201516D-04
  0.32001976D-03  0.13608759D-04 -0.17466321D-03  0.16633876D-03  0.83244469D-05
  0.64129051D-04  0.38402638D-04  0.34904319D-06 -0.30839534D-04  0.10605639D-03
 -0.75216851D-04 -0.61191228D-03 -0.23075362D-04  0.69936940D-04 -0.33389574D-03
  0.42888363D-03 -0.94987895D-04  0.16606475D-03  0.52415565D-04  0.70979299D-05
  0.10802076D-03  0.27909703D-04  0.11968914D-04 -0.27047196D-03 -0.34687427D-03
 -0.52929309D-04 -0.53590312D-04  0.26314516D-03  0.17022568D-04  0.11415261D-03
 -0.15238866D-03  0.38713269D-04 -0.15415971D-04  0.35527392D-03  0.82450835D-04
  0.70210412D-04  0.10189205D-03 -0.19859064D-03 -0.23962498D-04 -0.45769597D-04
 -0.11428164D-03 -0.21295635D-03 -0.35889035D-03 -0.53546146D-03 -0.64859330D-03
 -0.53967795D-03 -0.20043920D-03  0.10640895D-05  0.91249943D-04  0.17044447D-03
  0.29009734D-03  0.44367187D-03  0.57702159D-03  0.58407665D-03  0.38458486D-03
 -0.26288497D-03 -0.42369950D-03  0.48329854D-04 -0.43456049D-03 -0.12954207D-03
 -0.11675049D-03 -0.84768424D-04  0.37279278D-03  0.33598149D-03  0.24394435D-03
  0.21583302D-04  0.19452066D-04  0.14123462D-04  0.12517295D-03 -0.33044153D-03
 -0.19283959D-04  0.29433858D-03 -0.83369748D-03 -0.48306139D-04 -0.79102095D-05
  0.22046536D-04  0.13009680D-05 -0.64850669D-04 -0.35995677D-04  0.10084635D-03
 -0.28328032D-04  0.32402929D-04 -0.42509604D-05  0.48957300D-04 -0.18387258D-03
  0.13491528D-03  0.18154966D-03  0.21552179D-04 -0.33130565D-04 -0.35317860D-04
  0.30441630D-04  0.48762302D-05 -0.53892411D-04  0.68646409D-05  0.65868234D-05
 -0.48607822D-04 -0.82056292D-04  0.99993682D-05  0.20600240D-03  0.73497011D-04
  0.41609142D-05 -0.60178933D-04  0.17267187D-03 -0.34159019D-04  0.33017168D-04
  0.13247153D-04  0.86323881D-05 -0.94573559D-07 -0.40532377D-04 -0.25226351D-04
 -0.44101254D-05  0.79091839D-06 -0.67081319D-06  0.46938461D-05  0.30926751D-05
 -0.24185675D-04 -0.43619862D-04 -0.64317461D-04  0.55296511D-04 -0.22344307D-03
 -0.11819551D-03  0.17181061D-03 -0.92077017D-05 -0.17417972D-04  0.29123984D-03
 -0.46840700D-03 -0.39294198D-04  0.65026178D-04 -0.33434301D-04 -0.72242135D-05
  0.16772957D-03  0.39474746D-04 -0.20720432D-03 -0.33715410D-03 -0.83211113D-04
  0.44584553D-04  0.85354384D-04 -0.89452282D-04  0.40978981D-05 -0.17040426D-04
 -0.16719208D-04 -0.24140058D-05 -0.23376093D-04 -0.42159746D-04 -0.62164521D-04
  0.50002619D-04 -0.22637501D-03 -0.11710203D-03 -0.12212731D-03 -0.11098606D-03
  0.97197817D-05  0.78111469D-04 -0.53980732D-03 -0.20178991D-04 -0.27611440D-04
 -0.65826930D-04  0.13310861D-05 -0.52052466D-04  0.25513072D-03 -0.20307825D-03
  0.17802506D-03 -0.26620317D-04  0.33789526D-05  0.71994452D-05 -0.10675648D-04
  0.34762031D-05  0.17273509D-03  0.32382093D-05 -0.18055192D-04  0.24809762D-03
  0.44745427D-03  0.65977106D-03 -0.15248294D-02 -0.12594428D-02  0.22820167D-03
  0.76063416D-03 -0.21391391D-02 -0.12482674D-03  0.10857096D-02 -0.30483746D-02
 -0.17802698D-03  0.21928907D-03 -0.61657368D-03 -0.35863219D-04  0.10643040D-02
 -0.32264738D-02  0.21621698D-02  0.34886879D-02  0.30398976D-03 -0.59539850D-03
  0.10395063D-03 -0.27407859D-03  0.17012796D-03  0.30749529D-03  0.20661198D-04
 -0.51131733D-04  0.40534026D-04  0.73104785D-04  0.10779296D-03  0.22336276D-03
 -0.33104868D-03  0.67495699D-04  0.24719523D-03  0.18668286D-03 -0.20573640D-04
  0.57097399D-04 -0.30979431D-03 -0.12603570D-04 -0.56749105D-04 -0.39955763D-04
  0.48083094D-05  0.90756813D-04 -0.27865666D-03  0.18789985D-03 -0.37446647D-04
  0.19133348D-04 -0.17017459D-04  0.40753047D-04 -0.12155284D-03  0.80799790D-04
  0.85934814D-04  0.10069180D-04 -0.17675523D-04 -0.15336328D-04 -0.27659699D-04
 -0.40784210D-04  0.81182289D-03  0.12730597D-02 -0.88915553D-04  0.11368751D-04
 -0.31527202D-04 -0.18427657D-05  0.18441891D-03 -0.51650621D-03 -0.30416684D-04
  0.76544853D-04 -0.21591400D-03 -0.12761124D-04 -0.49430335D-04  0.15866319D-03
 -0.10923285D-03 -0.17027954D-03 -0.16179184D-04  0.29426396D-04 -0.13508115D-05
  0.10759462D-04 -0.94086506D-05 -0.10483356D-04 -0.18547527D-05  0.20600817D-05
  0.40723927D-04  0.73447279D-04  0.10829797D-03  0.22075179D-03 -0.33676249D-03
  0.67825223D-04 -0.30923198D-03 -0.13356626D-04  0.30836989D-04  0.15381818D-03
 -0.27510252D-03 -0.21718755D-04  0.70023272D-04  0.54811885D-05 -0.69321024D-05
 -0.75003386D-04 -0.11139022D-03  0.18639361D-03  0.36394821D-03  0.61428208D-04
 -0.50203946D-04  0.18226703D-04 -0.98925554D-04  0.80698851D-04  0.14010032D-03
  0.15940940D-04 -0.22262710D-04
MO    2     MO 0.0        OCC NO =    2.0000000  ORB. ENERGY =  -14.143149
  0.41291913D+00  0.76941400D+00  0.13012720D+01  0.19596435D+01  0.24261657D+01
  0.20645576D+01  0.78560224D+00 -0.36793104D-02 -0.19094473D-02 -0.35802315D-02
 -0.60910391D-02 -0.94587405D-02 -0.12552299D-01 -0.13228400D-01 -0.82024518D-02
  0.54562741D-02  0.41789393D-01 -0.19845106D-02  0.25794186D-02 -0.28135932D-03
 -0.27024226D-03 -0.18951253D-03  0.55370732D-04  0.53182926D-04  0.37295539D-04
  0.32076114D-04  0.30808724D-04  0.21605204D-04 -0.34113745D-02  0.61127950D-03
  0.35487999D-03 -0.47640313D-02  0.85891790D-03  0.49599490D-03  0.49595497D-03
 -0.87810659D-04 -0.51652407D-04  0.32018797D-02  0.64406349D-03 -0.38459431D-02
 -0.95750921D-03 -0.14462919D-02  0.30066097D-03  0.46388859D-03 -0.93974084D-03
  0.47585225D-03 -0.53053749D-03 -0.10322857D-04 -0.10858292D-04 -0.55707295D-03
  0.14666441D-03  0.41040855D-03  0.25713184D-03  0.20099122D-03 -0.37958185D-04
 -0.19197609D-02 -0.75913182D-03 -0.21741350D-03  0.37643773D-02  0.26388980D-02
  0.10634120D-02  0.19949054D-02 -0.36150253D-03 -0.41117147D-03 -0.53247677D-03
  0.50983779D-03  0.27304692D-03  0.18629702D-04 -0.13675445D-02 -0.84795484D-03
 -0.20941717D-03 -0.16196890D-03  0.28814072D-04  0.15352807D-03  0.12239414D-03
  0.31569156D-03  0.58827055D-03  0.99139859D-03  0.14791586D-02  0.17916739D-02
  0.14908062D-02  0.55369317D-03 -0.29394406D-05 -0.24825032D-03 -0.46370323D-03
 -0.78922524D-03 -0.12070329D-02 -0.15698179D-02 -0.15890116D-02 -0.10462835D-02
  0.71519253D-03  0.14516268D-02 -0.11738523D-02  0.16663089D-03 -0.25816858D-03
 -0.23267582D-03 -0.16893773D-03  0.10750121D-02  0.96886041D-03  0.70345548D-03
  0.49743892D-04  0.44831950D-04  0.32550903D-04 -0.15564558D-02  0.18533134D-02
  0.19774942D-03  0.69347103D-04 -0.86798812D-03 -0.26313076D-04  0.22775359D-04
 -0.47096863D-05 -0.23837462D-05 -0.28232649D-03  0.20633771D-03  0.75988782D-04
 -0.30312296D-04  0.72101111D-04  0.82587032D-05 -0.91410597D-03  0.78809722D-03
  0.12600875D-03  0.13745500D-03  0.21382474D-03  0.15458865D-04  0.23313809D-04
 -0.23768232D-04  0.45442330D-06 -0.47489875D-04 -0.56880270D-05  0.37463860D-05
 -0.87594753D-04 -0.29102132D-03  0.20820569D-04  0.36781731D-03  0.41533237D-03
  0.14773772D-04 -0.10503306D-03  0.45773159D-03 -0.77235478D-04  0.29651473D-04
 -0.10300106D-03  0.46909879D-04  0.80071762D-06  0.30530305D-03 -0.19518504D-03
  0.27709170D-04  0.37001383D-05  0.54455407D-04 -0.30111323D-04  0.64070773D-04
  0.21095632D-02  0.39308604D-02  0.66480704D-02  0.10011626D-01  0.12395042D-01
  0.10547621D-01  0.40135645D-02 -0.18797235D-04 -0.40788916D-05 -0.76479598D-05
 -0.13011455D-04 -0.20205416D-04 -0.26813762D-04 -0.28258025D-04 -0.17521778D-04
  0.11655493D-04  0.73245320D-04  0.32423992D-02 -0.92983437D-03  0.40137517D-03
  0.38551605D-03  0.27035047D-03 -0.14725004D-03 -0.14143190D-03 -0.99181810D-04
 -0.43642450D-04 -0.41918051D-04 -0.29395831D-04 -0.10102483D-02  0.45143535D-03
  0.11163348D-03 -0.12024135D-02  0.15036821D-02  0.15461343D-03  0.30627425D-03
 -0.10138130D-03 -0.33022329D-04  0.57593199D-04 -0.41369206D-04 -0.16223993D-04
 -0.34081876D-03 -0.22474179D-04  0.32935767D-04  0.33000453D-03 -0.25964421D-03
 -0.70360315D-04  0.18533010D-03 -0.76932608D-04 -0.27022121D-04  0.16218028D-03
 -0.76867120D-04 -0.85313161D-04 -0.73766920D-03 -0.66939300D-04  0.74849384D-04
  0.22603604D-04  0.10564218D-03 -0.27057865D-04 -0.31808290D-03 -0.25145164D-03
  0.38934145D-04  0.25027209D-03 -0.65474901D-04  0.42239450D-04  0.11542238D-04
 -0.68844973D-04 -0.99220805D-05  0.22781077D-04  0.42937075D-03  0.30089835D-04
 -0.24508403D-04 -0.22283583D-03 -0.32359345D-06 -0.43834826D-04  0.23623118D-04
 -0.11140753D-03 -0.20760064D-03 -0.34986449D-03 -0.52199495D-03 -0.63228159D-03
 -0.52610539D-03 -0.19539828D-03  0.10373284D-05  0.88995557D-04  0.16623353D-03
  0.28293031D-03  0.43271069D-03  0.56276592D-03  0.56964668D-03  0.37508345D-03
 -0.25639024D-03 -0.41056061D-03  0.38673208D-04 -0.43305192D-03  0.37962909D-03