 Molden2AIM, Version 4.0.0 (06/02/2016)           Time: Sat Jun 30 02:34:33 2018
GAUSSIAN             37 MOL ORBITALS    603 PRIMITIVES        3 NUCLEI
  Be   1    (CENTRE  1)   0.00000000 -0.00003213 -0.51713678  CHARGE =  4.0
  Br   2    (CENTRE  2)   0.00000000  3.68563869 -0.50499718  CHARGE = 35.0
  Br   3    (CENTRE  3)   0.00000000 -3.68560656 -0.52952016  CHARGE = 35.0
CENTRE ASSIGNMENTS    1  1  1  1  1  1  1  1  1  1  1  1  1  1  1  1  1  1  1  1
CENTRE ASSIGNMENTS    1  1  1  1  1  1  1  1  1  1  1  1  1  1  1  1  1  1  1  1
CENTRE ASSIGNMENTS    1  1  1  1  1  1  1  1  1  1  1  1  1  1  1  1  1  1  1  1
CENTRE ASSIGNMENTS    1  1  1  1  1  1  1  1  1  1  1  1  1  1  1  1  1  2  2  2
CENTRE ASSIGNMENTS    2  2  2  2  2  2  2  2  2  2  2  2  2  2  2  2  2  2  2  2
CENTRE ASSIGNMENTS    2  2  2  2  2  2  2  2  2  2  2  2  2  2  2  2  2  2  2  2
CENTRE ASSIGNMENTS    2  2  2  2  2  2  2  2  2  2  2  2  2  2  2  2  2  2  2  2
CENTRE ASSIGNMENTS    2  2  2  2  2  2  2  2  2  2  2  2  2  2  2  2  2  2  2  2
CENTRE ASSIGNMENTS    2  2  2  2  2  2  2  2  2  2  2  2  2  2  2  2  2  2  2  2
CENTRE ASSIGNMENTS    2  2  2  2  2  2  2  2  2  2  2  2  2  2  2  2  2  2  2  2
CENTRE ASSIGNMENTS    2  2  2  2  2  2  2  2  2  2  2  2  2  2  2  2  2  2  2  2
CENTRE ASSIGNMENTS    2  2  2  2  2  2  2  2  2  2  2  2  2  2  2  2  2  2  2  2
CENTRE ASSIGNMENTS    2  2  2  2  2  2  2  2  2  2  2  2  2  2  2  2  2  2  2  2
CENTRE ASSIGNMENTS    2  2  2  2  2  2  2  2  2  2  2  2  2  2  2  2  2  2  2  2
CENTRE ASSIGNMENTS    2  2  2  2  2  2  2  2  2  2  2  2  2  2  2  2  2  2  2  2
CENTRE ASSIGNMENTS    2  2  2  2  2  2  2  2  2  2  2  2  2  2  2  2  2  2  2  2
CENTRE ASSIGNMENTS    2  2  2  2  2  2  2  2  2  2  2  2  2  2  2  2  2  2  2  2
CENTRE ASSIGNMENTS    3  3  3  3  3  3  3  3  3  3  3  3  3  3  3  3  3  3  3  3
CENTRE ASSIGNMENTS    3  3  3  3  3  3  3  3  3  3  3  3  3  3  3  3  3  3  3  3
CENTRE ASSIGNMENTS    3  3  3  3  3  3  3  3  3  3  3  3  3  3  3  3  3  3  3  3
CENTRE ASSIGNMENTS    3  3  3  3  3  3  3  3  3  3  3  3  3  3  3  3  3  3  3  3
CENTRE ASSIGNMENTS    3  3  3  3  3  3  3  3  3  3  3  3  3  3  3  3  3  3  3  3
CENTRE ASSIGNMENTS    3  3  3  3  3  3  3  3  3  3  3  3  3  3  3  3  3  3  3  3
CENTRE ASSIGNMENTS    3  3  3  3  3  3  3  3  3  3  3  3  3  3  3  3  3  3  3  3
CENTRE ASSIGNMENTS    3  3  3  3  3  3  3  3  3  3  3  3  3  3  3  3  3  3  3  3
CENTRE ASSIGNMENTS    3  3  3  3  3  3  3  3  3  3  3  3  3  3  3  3  3  3  3  3
CENTRE ASSIGNMENTS    3  3  3  3  3  3  3  3  3  3  3  3  3  3  3  3  3  3  3  3
CENTRE ASSIGNMENTS    3  3  3  3  3  3  3  3  3  3  3  3  3  3  3  3  3  3  3  3
CENTRE ASSIGNMENTS    3  3  3  3  3  3  3  3  3  3  3  3  3  3  3  3  3  3  3  3
CENTRE ASSIGNMENTS    3  3  3  3  3  3  3  3  3  3  3  3  3  3  3  3  3  3  3  3
CENTRE ASSIGNMENTS    3  3  3
TYPE ASSIGNMENTS      1  1  1  1  1  1  1  1  1  1  1  1  1  1  1  1  1  1  1  1
TYPE ASSIGNMENTS      1  2  2  2  3  3  3  4  4  4  2  3  4  2  3  4  2  3  4  5
TYPE ASSIGNMENTS      6  7  8  9 10  5  6  7  8  9 10  5  6  7  8  9 10 11 12 13
TYPE ASSIGNMENTS     17 14 15 18 19 16 20 11 12 13 17 14 15 18 19 16 20  1  1  1
TYPE ASSIGNMENTS      1  1  1  1  1  1  1  1  1  1  1  1  1  1  1  1  1  1  1  1
TYPE ASSIGNMENTS      1  1  1  1  1  1  1  1  1  1  1  1  1  1  1  1  1  1  1  1
TYPE ASSIGNMENTS      1  1  1  1  1  1  1  1  1  1  1  1  1  1  1  1  1  1  1  1
TYPE ASSIGNMENTS      1  1  1  1  1  1  1  1  1  1  1  1  2  2  2  2  2  2  2  2
TYPE ASSIGNMENTS      2  2  2  3  3  3  3  3  3  3  3  3  3  3  4  4  4  4  4  4
TYPE ASSIGNMENTS      4  4  4  4  4  2  2  2  2  2  2  2  2  2  2  2  3  3  3  3
TYPE ASSIGNMENTS      3  3  3  3  3  3  3  4  4  4  4  4  4  4  4  4  4  4  2  2
TYPE ASSIGNMENTS      2  2  2  2  2  2  2  2  2  3  3  3  3  3  3  3  3  3  3  3
TYPE ASSIGNMENTS      4  4  4  4  4  4  4  4  4  4  4  2  3  4  2  3  4  2  3  4
TYPE ASSIGNMENTS      5  5  5  5  5  5  5  6  6  6  6  6  6  6  7  7  7  7  7  7
TYPE ASSIGNMENTS      7  8  8  8  8  8  8  8  9  9  9  9  9  9  9 10 10 10 10 10
TYPE ASSIGNMENTS     10 10  5  6  7  8  9 10  5  6  7  8  9 10  5  6  7  8  9 10
TYPE ASSIGNMENTS     11 12 13 17 14 15 18 19 16 20 11 12 13 17 14 15 18 19 16 20
TYPE ASSIGNMENTS      1  1  1  1  1  1  1  1  1  1  1  1  1  1  1  1  1  1  1  1
TYPE ASSIGNMENTS      1  1  1  1  1  1  1  1  1  1  1  1  1  1  1  1  1  1  1  1
TYPE ASSIGNMENTS      1  1  1  1  1  1  1  1  1  1  1  1  1  1  1  1  1  1  1  1
TYPE ASSIGNMENTS      1  1  1  1  1  1  1  1  1  1  1  1  1  1  1  2  2  2  2  2
TYPE ASSIGNMENTS      2  2  2  2  2  2  3  3  3  3  3  3  3  3  3  3  3  4  4  4
TYPE ASSIGNMENTS      4  4  4  4  4  4  4  4  2  2  2  2  2  2  2  2  2  2  2  3
TYPE ASSIGNMENTS      3  3  3  3  3  3  3  3  3  3  4  4  4  4  4  4  4  4  4  4
TYPE ASSIGNMENTS      4  2  2  2  2  2  2  2  2  2  2  2  3  3  3  3  3  3  3  3
TYPE ASSIGNMENTS      3  3  3  4  4  4  4  4  4  4  4  4  4  4  2  3  4  2  3  4
TYPE ASSIGNMENTS      2  3  4  5  5  5  5  5  5  5  6  6  6  6  6  6  6  7  7  7
TYPE ASSIGNMENTS      7  7  7  7  8  8  8  8  8  8  8  9  9  9  9  9  9  9 10 10
TYPE ASSIGNMENTS     10 10 10 10 10  5  6  7  8  9 10  5  6  7  8  9 10  5  6  7
TYPE ASSIGNMENTS      8  9 10 11 12 13 17 14 15 18 19 16 20 11 12 13 17 14 15 18
TYPE ASSIGNMENTS     19 16 20
EXPONENTS  0.6863000D+04 0.1030000D+04 0.2347000D+03 0.6656000D+02 0.2169000D+02
EXPONENTS  0.7734000D+01 0.2916000D+01 0.1130000D+01 0.1101000D+00 0.6863000D+04
EXPONENTS  0.1030000D+04 0.2347000D+03 0.6656000D+02 0.2169000D+02 0.7734000D+01
EXPONENTS  0.2916000D+01 0.1130000D+01 0.1101000D+00 0.2577000D+00 0.4409000D-01
EXPONENTS  0.1503000D-01 0.7436000D+01 0.1577000D+01 0.4352000D+00 0.7436000D+01
EXPONENTS  0.1577000D+01 0.4352000D+00 0.7436000D+01 0.1577000D+01 0.4352000D+00
EXPONENTS  0.1438000D+00 0.1438000D+00 0.1438000D+00 0.4994000D-01 0.4994000D-01
EXPONENTS  0.4994000D-01 0.7060000D-02 0.7060000D-02 0.7060000D-02 0.3480000D+00
EXPONENTS  0.3480000D+00 0.3480000D+00 0.3480000D+00 0.3480000D+00 0.3480000D+00
EXPONENTS  0.1803000D+00 0.1803000D+00 0.1803000D+00 0.1803000D+00 0.1803000D+00
EXPONENTS  0.1803000D+00 0.6540000D-01 0.6540000D-01 0.6540000D-01 0.6540000D-01
EXPONENTS  0.6540000D-01 0.6540000D-01 0.3250000D+00 0.3250000D+00 0.3250000D+00
EXPONENTS  0.3250000D+00 0.3250000D+00 0.3250000D+00 0.3250000D+00 0.3250000D+00
EXPONENTS  0.3250000D+00 0.3250000D+00 0.1533000D+00 0.1533000D+00 0.1533000D+00
EXPONENTS  0.1533000D+00 0.1533000D+00 0.1533000D+00 0.1533000D+00 0.1533000D+00
EXPONENTS  0.1533000D+00 0.1533000D+00 0.1063900D+08 0.1593400D+07 0.3626100D+06
EXPONENTS  0.1027000D+06 0.3350100D+05 0.1209300D+05 0.4715900D+04 0.1955600D+04
EXPONENTS  0.8526100D+03 0.3876700D+03 0.1826800D+03 0.8824500D+02 0.3926300D+02
EXPONENTS  0.1923400D+02 0.9405700D+01 0.4160100D+01 0.1899500D+01 0.3011400D+00
EXPONENTS  0.1063900D+08 0.1593400D+07 0.3626100D+06 0.1027000D+06 0.3350100D+05
EXPONENTS  0.1209300D+05 0.4715900D+04 0.1955600D+04 0.8526100D+03 0.3876700D+03
EXPONENTS  0.1826800D+03 0.8824500D+02 0.3926300D+02 0.1923400D+02 0.9405700D+01
EXPONENTS  0.4160100D+01 0.1899500D+01 0.3011400D+00 0.1063900D+08 0.1593400D+07
EXPONENTS  0.3626100D+06 0.1027000D+06 0.3350100D+05 0.1209300D+05 0.4715900D+04
EXPONENTS  0.1955600D+04 0.8526100D+03 0.3876700D+03 0.1826800D+03 0.8824500D+02
EXPONENTS  0.3926300D+02 0.1923400D+02 0.9405700D+01 0.4160100D+01 0.1899500D+01
EXPONENTS  0.3011400D+00 0.1063900D+08 0.1593400D+07 0.3626100D+06 0.1027000D+06
EXPONENTS  0.3350100D+05 0.1209300D+05 0.4715900D+04 0.1955600D+04 0.8526100D+03
EXPONENTS  0.3876700D+03 0.1826800D+03 0.8824500D+02 0.3926300D+02 0.1923400D+02
EXPONENTS  0.9405700D+01 0.4160100D+01 0.1899500D+01 0.3011400D+00 0.6047200D+00
EXPONENTS  0.1251500D+00 0.4559300D-01 0.8676500D+04 0.2055900D+04 0.6662300D+03
EXPONENTS  0.2531000D+03 0.1061200D+03 0.4724200D+02 0.2182500D+02 0.9968400D+01
EXPONENTS  0.4517100D+01 0.1998200D+01 0.2814500D+00 0.8676500D+04 0.2055900D+04
EXPONENTS  0.6662300D+03 0.2531000D+03 0.1061200D+03 0.4724200D+02 0.2182500D+02
EXPONENTS  0.9968400D+01 0.4517100D+01 0.1998200D+01 0.2814500D+00 0.8676500D+04
EXPONENTS  0.2055900D+04 0.6662300D+03 0.2531000D+03 0.1061200D+03 0.4724200D+02
EXPONENTS  0.2182500D+02 0.9968400D+01 0.4517100D+01 0.1998200D+01 0.2814500D+00
EXPONENTS  0.8676500D+04 0.2055900D+04 0.6662300D+03 0.2531000D+03 0.1061200D+03
EXPONENTS  0.4724200D+02 0.2182500D+02 0.9968400D+01 0.4517100D+01 0.1998200D+01
EXPONENTS  0.2814500D+00 0.8676500D+04 0.2055900D+04 0.6662300D+03 0.2531000D+03
EXPONENTS  0.1061200D+03 0.4724200D+02 0.2182500D+02 0.9968400D+01 0.4517100D+01
EXPONENTS  0.1998200D+01 0.2814500D+00 0.8676500D+04 0.2055900D+04 0.6662300D+03
EXPONENTS  0.2531000D+03 0.1061200D+03 0.4724200D+02 0.2182500D+02 0.9968400D+01
EXPONENTS  0.4517100D+01 0.1998200D+01 0.2814500D+00 0.8676500D+04 0.2055900D+04
EXPONENTS  0.6662300D+03 0.2531000D+03 0.1061200D+03 0.4724200D+02 0.2182500D+02
EXPONENTS  0.9968400D+01 0.4517100D+01 0.1998200D+01 0.2814500D+00 0.8676500D+04
EXPONENTS  0.2055900D+04 0.6662300D+03 0.2531000D+03 0.1061200D+03 0.4724200D+02
EXPONENTS  0.2182500D+02 0.9968400D+01 0.4517100D+01 0.1998200D+01 0.2814500D+00
EXPONENTS  0.8676500D+04 0.2055900D+04 0.6662300D+03 0.2531000D+03 0.1061200D+03
EXPONENTS  0.4724200D+02 0.2182500D+02 0.9968400D+01 0.4517100D+01 0.1998200D+01
EXPONENTS  0.2814500D+00 0.7098800D+00 0.7098800D+00 0.7098800D+00 0.1020400D+00
EXPONENTS  0.1020400D+00 0.1020400D+00 0.3514200D-01 0.3514200D-01 0.3514200D-01
EXPONENTS  0.4038300D+03 0.1211700D+03 0.4634500D+02 0.1972100D+02 0.8862400D+01
EXPONENTS  0.3996200D+01 0.1763600D+01 0.4038300D+03 0.1211700D+03 0.4634500D+02
EXPONENTS  0.1972100D+02 0.8862400D+01 0.3996200D+01 0.1763600D+01 0.4038300D+03
EXPONENTS  0.1211700D+03 0.4634500D+02 0.1972100D+02 0.8862400D+01 0.3996200D+01
EXPONENTS  0.1763600D+01 0.4038300D+03 0.1211700D+03 0.4634500D+02 0.1972100D+02
EXPONENTS  0.8862400D+01 0.3996200D+01 0.1763600D+01 0.4038300D+03 0.1211700D+03
EXPONENTS  0.4634500D+02 0.1972100D+02 0.8862400D+01 0.3996200D+01 0.1763600D+01
EXPONENTS  0.4038300D+03 0.1211700D+03 0.4634500D+02 0.1972100D+02 0.8862400D+01
EXPONENTS  0.3996200D+01 0.1763600D+01 0.7061900D+00 0.7061900D+00 0.7061900D+00
EXPONENTS  0.7061900D+00 0.7061900D+00 0.7061900D+00 0.2639000D+00 0.2639000D+00
EXPONENTS  0.2639000D+00 0.2639000D+00 0.2639000D+00 0.2639000D+00 0.1047000D+00
EXPONENTS  0.1047000D+00 0.1047000D+00 0.1047000D+00 0.1047000D+00 0.1047000D+00
EXPONENTS  0.5515000D+00 0.5515000D+00 0.5515000D+00 0.5515000D+00 0.5515000D+00
EXPONENTS  0.5515000D+00 0.5515000D+00 0.5515000D+00 0.5515000D+00 0.5515000D+00
EXPONENTS  0.2580000D+00 0.2580000D+00 0.2580000D+00 0.2580000D+00 0.2580000D+00
EXPONENTS  0.2580000D+00 0.2580000D+00 0.2580000D+00 0.2580000D+00 0.2580000D+00
EXPONENTS  0.1063900D+08 0.1593400D+07 0.3626100D+06 0.1027000D+06 0.3350100D+05
EXPONENTS  0.1209300D+05 0.4715900D+04 0.1955600D+04 0.8526100D+03 0.3876700D+03
EXPONENTS  0.1826800D+03 0.8824500D+02 0.3926300D+02 0.1923400D+02 0.9405700D+01
EXPONENTS  0.4160100D+01 0.1899500D+01 0.3011400D+00 0.1063900D+08 0.1593400D+07
EXPONENTS  0.3626100D+06 0.1027000D+06 0.3350100D+05 0.1209300D+05 0.4715900D+04
EXPONENTS  0.1955600D+04 0.8526100D+03 0.3876700D+03 0.1826800D+03 0.8824500D+02
EXPONENTS  0.3926300D+02 0.1923400D+02 0.9405700D+01 0.4160100D+01 0.1899500D+01
EXPONENTS  0.3011400D+00 0.1063900D+08 0.1593400D+07 0.3626100D+06 0.1027000D+06
EXPONENTS  0.3350100D+05 0.1209300D+05 0.4715900D+04 0.1955600D+04 0.8526100D+03
EXPONENTS  0.3876700D+03 0.1826800D+03 0.8824500D+02 0.3926300D+02 0.1923400D+02
EXPONENTS  0.9405700D+01 0.4160100D+01 0.1899500D+01 0.3011400D+00 0.1063900D+08
EXPONENTS  0.1593400D+07 0.3626100D+06 0.1027000D+06 0.3350100D+05 0.1209300D+05
EXPONENTS  0.4715900D+04 0.1955600D+04 0.8526100D+03 0.3876700D+03 0.1826800D+03
EXPONENTS  0.8824500D+02 0.3926300D+02 0.1923400D+02 0.9405700D+01 0.4160100D+01
EXPONENTS  0.1899500D+01 0.3011400D+00 0.6047200D+00 0.1251500D+00 0.4559300D-01
EXPONENTS  0.8676500D+04 0.2055900D+04 0.6662300D+03 0.2531000D+03 0.1061200D+03
EXPONENTS  0.4724200D+02 0.2182500D+02 0.9968400D+01 0.4517100D+01 0.1998200D+01
EXPONENTS  0.2814500D+00 0.8676500D+04 0.2055900D+04 0.6662300D+03 0.2531000D+03
EXPONENTS  0.1061200D+03 0.4724200D+02 0.2182500D+02 0.9968400D+01 0.4517100D+01
EXPONENTS  0.1998200D+01 0.2814500D+00 0.8676500D+04 0.2055900D+04 0.6662300D+03
EXPONENTS  0.2531000D+03 0.1061200D+03 0.4724200D+02 0.2182500D+02 0.9968400D+01
EXPONENTS  0.4517100D+01 0.1998200D+01 0.2814500D+00 0.8676500D+04 0.2055900D+04
EXPONENTS  0.6662300D+03 0.2531000D+03 0.1061200D+03 0.4724200D+02 0.2182500D+02
EXPONENTS  0.9968400D+01 0.4517100D+01 0.1998200D+01 0.2814500D+00 0.8676500D+04
EXPONENTS  0.2055900D+04 0.6662300D+03 0.2531000D+03 0.1061200D+03 0.4724200D+02
EXPONENTS  0.2182500D+02 0.9968400D+01 0.4517100D+01 0.1998200D+01 0.2814500D+00
EXPONENTS  0.8676500D+04 0.2055900D+04 0.6662300D+03 0.2531000D+03 0.1061200D+03
EXPONENTS  0.4724200D+02 0.2182500D+02 0.9968400D+01 0.4517100D+01 0.1998200D+01
EXPONENTS  0.2814500D+00 0.8676500D+04 0.2055900D+04 0.6662300D+03 0.2531000D+03
EXPONENTS  0.1061200D+03 0.4724200D+02 0.2182500D+02 0.9968400D+01 0.4517100D+01
EXPONENTS  0.1998200D+01 0.2814500D+00 0.8676500D+04 0.2055900D+04 0.6662300D+03
EXPONENTS  0.2531000D+03 0.1061200D+03 0.4724200D+02 0.2182500D+02 0.9968400D+01
EXPONENTS  0.4517100D+01 0.1998200D+01 0.2814500D+00 0.8676500D+04 0.2055900D+04
EXPONENTS  0.6662300D+03 0.2531000D+03 0.1061200D+03 0.4724200D+02 0.2182500D+02
EXPONENTS  0.9968400D+01 0.4517100D+01 0.1998200D+01 0.2814500D+00 0.7098800D+00
EXPONENTS  0.7098800D+00 0.7098800D+00 0.1020400D+00 0.1020400D+00 0.1020400D+00
EXPONENTS  0.3514200D-01 0.3514200D-01 0.3514200D-01 0.4038300D+03 0.1211700D+03
EXPONENTS  0.4634500D+02 0.1972100D+02 0.8862400D+01 0.3996200D+01 0.1763600D+01
EXPONENTS  0.4038300D+03 0.1211700D+03 0.4634500D+02 0.1972100D+02 0.8862400D+01
EXPONENTS  0.3996200D+01 0.1763600D+01 0.4038300D+03 0.1211700D+03 0.4634500D+02
EXPONENTS  0.1972100D+02 0.8862400D+01 0.3996200D+01 0.1763600D+01 0.4038300D+03
EXPONENTS  0.1211700D+03 0.4634500D+02 0.1972100D+02 0.8862400D+01 0.3996200D+01
EXPONENTS  0.1763600D+01 0.4038300D+03 0.1211700D+03 0.4634500D+02 0.1972100D+02
EXPONENTS  0.8862400D+01 0.3996200D+01 0.1763600D+01 0.4038300D+03 0.1211700D+03
EXPONENTS  0.4634500D+02 0.1972100D+02 0.8862400D+01 0.3996200D+01 0.1763600D+01
EXPONENTS  0.7061900D+00 0.7061900D+00 0.7061900D+00 0.7061900D+00 0.7061900D+00
EXPONENTS  0.7061900D+00 0.2639000D+00 0.2639000D+00 0.2639000D+00 0.2639000D+00
EXPONENTS  0.2639000D+00 0.2639000D+00 0.1047000D+00 0.1047000D+00 0.1047000D+00
EXPONENTS  0.1047000D+00 0.1047000D+00 0.1047000D+00 0.5515000D+00 0.5515000D+00
EXPONENTS  0.5515000D+00 0.5515000D+00 0.5515000D+00 0.5515000D+00 0.5515000D+00
EXPONENTS  0.5515000D+00 0.5515000D+00 0.5515000D+00 0.2580000D+00 0.2580000D+00
EXPONENTS  0.2580000D+00 0.2580000D+00 0.2580000D+00 0.2580000D+00 0.2580000D+00
EXPONENTS  0.2580000D+00 0.2580000D+00 0.2580000D+00
MO    1     MO 0.0        OCC NO =    2.0000000  ORB. ENERGY = -482.259836
  0.76764030D-07  0.14321515D-06  0.24449433D-06  0.38155937D-06  0.52012710D-06
  0.56449736D-06  0.41142387D-06  0.12589381D-06 -0.59983769D-09 -0.19879059D-06
 -0.37120517D-06 -0.63822880D-06 -0.10018294D-05 -0.14250728D-05 -0.16531226D-05
 -0.15672935D-05 -0.91326269D-06  0.67669032D-06 -0.59994952D-05 -0.11552962D-03
  0.51756791D-06  0.19226672D-15  0.16199810D-15  0.12794263D-15  0.48711578D-04
  0.41042897D-04  0.32414801D-04  0.16424222D-06  0.13838551D-06  0.10929391D-06
 -0.54333511D-16 -0.85369999D-04 -0.28718290D-06  0.17094887D-19 -0.27049475D-05
 -0.87110964D-08 -0.81229834D-22 -0.27830318D-08 -0.10631618D-10 -0.65151268D-06
  0.13029958D-05 -0.65148312D-06 -0.15290450D-19 -0.47536020D-23  0.15391220D-07
 -0.89692726D-06  0.17938297D-05 -0.89690243D-06  0.13427913D-19  0.80306507D-23
  0.16390984D-07  0.29521821D-05 -0.59042646D-05  0.29520825D-05 -0.54017113D-20
 -0.94625416D-23 -0.59396615D-07  0.90927200D-20 -0.12137719D-04  0.61000798D-07
 -0.28850662D-19  0.18207090D-04  0.61001861D-07  0.15725023D-20  0.18206068D-04
 -0.24400426D-06 -0.14630023D-21 -0.85926265D-20 -0.49211451D-05  0.24735035D-07
  0.35929472D-19  0.73819249D-05  0.24735500D-07 -0.10151593D-19  0.73815105D-05
 -0.98940604D-07  0.51317329D-21 -0.61374398D-01 -0.11545272D+00 -0.19985435D+00
 -0.32759952D+00 -0.51319099D+00 -0.77136976D+00 -0.11024811D+01 -0.14635711D+01
 -0.17045274D+01 -0.15655919D+01 -0.91546316D+00 -0.24022211D+00 -0.13132849D-01
  0.47005027D-03 -0.13136422D-03  0.39006469D-04 -0.66499276D-05 -0.54254263D-06
 -0.15728410D-04 -0.28897963D-04 -0.49971237D-04 -0.81834885D-04 -0.12884535D-03
 -0.19456910D-03 -0.28401147D-03 -0.39110104D-03 -0.49972243D-03 -0.54475601D-03
 -0.44841807D-03 -0.12295319D-03  0.24800456D-03  0.24169127D-03  0.52888860D-04
  0.17817770D-05  0.60360911D-07 -0.15355037D-09  0.23220925D-04  0.45522315D-04
  0.79731206D-04  0.13025485D-03  0.20544327D-03  0.31000472D-03  0.45452851D-03
  0.62755179D-03  0.81362401D-03  0.90479778D-03  0.78587257D-03  0.22828193D-03
 -0.57549597D-03 -0.83853818D-03 -0.14435735D-03  0.35217011D-03  0.16762409D-03
 -0.80950794D-06 -0.99065287D-05 -0.21465055D-04 -0.36540853D-04 -0.59644512D-04
 -0.94023721D-04 -0.14190895D-03 -0.20806165D-03 -0.28763046D-03 -0.37331548D-03
 -0.41705867D-03 -0.36431019D-03 -0.10790903D-03  0.28050150D-03  0.43150612D-03
  0.75526748D-04 -0.23824495D-03 -0.20223393D-03  0.75451673D-04 -0.49611673D-04
  0.10184371D-03  0.41944550D-04 -0.25490763D-18 -0.36574732D-18 -0.48426890D-18
 -0.55919337D-18 -0.51839798D-18 -0.33562030D-18 -0.11846164D-18 -0.13884726D-19
 -0.20185822D-21 -0.29559889D-22 -0.30392156D-24 -0.86182982D-03 -0.12365732D-02
 -0.16372887D-02 -0.18906045D-02 -0.17526773D-02 -0.11347153D-02 -0.40051282D-03
 -0.46943556D-04 -0.68247242D-06 -0.99940489D-07 -0.10275434D-08 -0.27868379D-05
 -0.39986189D-05 -0.52943840D-05 -0.61135135D-05 -0.56675082D-05 -0.36692482D-05
 -0.12951098D-05 -0.15179804D-06 -0.22068626D-08 -0.32317046D-09 -0.33226942D-11
  0.50955276D-17  0.73554527D-17  0.98267089D-17  0.11674432D-16  0.11313419D-16
  0.78642695D-17  0.25589579D-17 -0.11517341D-17 -0.12442571D-17 -0.32033018D-18
  0.31245251D-21  0.35844844D-02  0.51742444D-02  0.69126668D-02  0.82124602D-02
  0.79585035D-02  0.55321751D-02  0.18001167D-02 -0.81019537D-03 -0.87528131D-03
 -0.22533849D-03  0.21979689D-06  0.11595166D-04  0.16737755D-04  0.22361241D-04
  0.26565840D-04  0.25744336D-04  0.17895597D-04  0.58230557D-05 -0.26208372D-05
 -0.28313785D-05 -0.72892973D-06  0.71100365D-09 -0.32158091D-17 -0.46727133D-17
 -0.62124265D-17 -0.74544818D-17 -0.72122441D-17 -0.51198535D-17 -0.15912633D-17
  0.91360303D-18  0.10495271D-17  0.27871114D-18 -0.10055985D-18 -0.26533126D-02
 -0.38553809D-02 -0.51257736D-02 -0.61505735D-02 -0.59507070D-02 -0.42243091D-02
 -0.13129259D-02  0.75379922D-03  0.86594797D-03  0.22996009D-03 -0.82970319D-04
 -0.85917751D-05 -0.12484230D-04 -0.16597929D-04 -0.19916366D-04 -0.19269172D-04
 -0.13678869D-04 -0.42514267D-05  0.24409010D-05  0.28040534D-05  0.74464103D-06
 -0.26866881D-06  0.54372519D-19  0.34869943D-04  0.11021457D-06 -0.62935593D-19
 -0.92322743D-05 -0.26012736D-07  0.25700644D-20 -0.21873804D-05 -0.70467462D-08
  0.97523433D-04  0.10204776D-03  0.86950157D-04  0.57263252D-04  0.26390928D-04
  0.79028061D-05  0.13445955D-05 -0.19504352D-03 -0.20409203D-03 -0.17389733D-03
 -0.11452454D-03 -0.52780950D-04 -0.15805341D-04 -0.26891448D-05  0.97520086D-04
  0.10204426D-03  0.86947174D-04  0.57261287D-04  0.26390022D-04  0.79025349D-05
  0.13445493D-05 -0.32238309D-17 -0.33733916D-17 -0.28743102D-17 -0.18929506D-17
 -0.87240456D-18 -0.26124296D-18 -0.44448275D-19 -0.22021729D-18 -0.23043367D-18
 -0.19634182D-18 -0.12930593D-18 -0.59593255D-19 -0.17845297D-19 -0.30362259D-20
 -0.19804841D-05 -0.20723633D-05 -0.17657644D-05 -0.11628894D-05 -0.53594109D-06
 -0.16048843D-06 -0.27305745D-07 -0.51266488D-05  0.10253115D-04 -0.51264657D-05
 -0.10676605D-19  0.79767368D-21  0.10627989D-06 -0.67607113D-05  0.13521222D-04
 -0.67605106D-05  0.75584262D-19  0.20640526D-21  0.12771733D-06  0.10622286D-05
 -0.21244187D-05  0.10621901D-05  0.22694445D-19  0.42146841D-24 -0.22176700D-07
 -0.67279485D-20 -0.67885140D-05  0.33439022D-07  0.27415794D-19  0.10183045D-04
  0.33439536D-07 -0.72319486D-20  0.10182497D-04 -0.13375660D-06 -0.41205695D-21
  0.54481336D-20  0.43651017D-06 -0.25941767D-08 -0.21861308D-19 -0.65479016D-06
 -0.25942281D-08  0.55169076D-20 -0.65474034D-06  0.10376758D-07 -0.48532155D-23
  0.78086549D+00  0.14689031D+01  0.25427437D+01  0.41680434D+01  0.65293207D+01
  0.98141250D+01  0.14026850D+02  0.18620992D+02  0.21686674D+02  0.19919001D+02
  0.11647423D+02  0.30563421D+01  0.16708903D+00 -0.59804421D-02  0.16713448D-02
 -0.49627868D-03  0.84606922D-04  0.69027611D-05  0.66912678D-04  0.12293932D-03
  0.21259042D-03  0.34814653D-03  0.54814106D-03  0.82774671D-03  0.12082574D-02
  0.16638439D-02  0.21259470D-02  0.23175313D-02  0.19076851D-02  0.52307431D-03
 -0.10550748D-02 -0.10282165D-02 -0.22500273D-03 -0.75801349D-05 -0.25679075D-06
  0.65324255D-09 -0.12445833D-03 -0.24398818D-03 -0.42733925D-03 -0.69813328D-03
 -0.11011243D-02 -0.16615475D-02 -0.24361587D-02 -0.33635201D-02 -0.43608205D-02
 -0.48494890D-02 -0.42120797D-02 -0.12235338D-02  0.30845139D-02  0.44943541D-02
  0.77371913D-03 -0.18875434D-02 -0.89842307D-03  0.43387594D-05  0.45495471D-04
  0.98577698D-04  0.16781290D-03  0.27391584D-03  0.43180145D-03  0.65171310D-03
  0.95551761D-03  0.13209353D-02  0.17144414D-02  0.19153309D-02  0.16730849D-02
  0.49556938D-03 -0.12881957D-02 -0.19816804D-02 -0.34685459D-03  0.10941336D-02
  0.92875398D-03 -0.34650981D-03  0.30462599D-03  0.81937231D-04  0.47082225D-04
  0.99155649D-17  0.14227080D-16  0.18837410D-16  0.21751872D-16  0.20164986D-16
  0.13055179D-16  0.46079989D-17  0.54009721D-18  0.78520138D-20  0.11498400D-20
  0.11822141D-22 -0.10274118D-02 -0.14741541D-02 -0.19518583D-02 -0.22538434D-02
 -0.20894165D-02 -0.13527263D-02 -0.47746272D-03 -0.55962747D-04 -0.81359477D-06
 -0.11914190D-06 -0.12249637D-08 -0.34813058D-05 -0.49950575D-05 -0.66137216D-05
 -0.76369746D-05 -0.70798268D-05 -0.45836089D-05 -0.16178456D-05 -0.18962546D-06
 -0.27568032D-08 -0.40370314D-09 -0.41506952D-11  0.84915167D-17  0.12257602D-16
  0.16375863D-16  0.19455028D-16  0.18853413D-16  0.13105527D-16  0.42644128D-17
 -0.19193242D-17 -0.20735105D-17 -0.53381892D-18  0.52069107D-21  0.47141664D-02
  0.68049534D-02  0.90912551D-02  0.10800690D-01  0.10466696D-01  0.72756892D-02
  0.23674395D-02 -0.10655356D-02 -0.11511340D-02 -0.29635592D-03  0.28906783D-06
  0.15899015D-04  0.22950410D-04  0.30661199D-04  0.36426446D-04  0.35300018D-04
  0.24538015D-04  0.79844348D-05 -0.35936293D-05 -0.38823186D-05 -0.99949104D-06
  0.97491121D-09 -0.24417776D-17 -0.35480112D-17 -0.47171221D-17 -0.56602200D-17
 -0.54762879D-17 -0.38875267D-17 -0.12082531D-17  0.69370270D-18  0.79691041D-18
  0.21162656D-18 -0.76355524D-19 -0.34493418D-02 -0.50120467D-02 -0.66635742D-02
 -0.79958278D-02 -0.77359987D-02 -0.54916583D-02 -0.17068212D-02  0.97994907D-03
  0.11257439D-02  0.29895120D-03 -0.10786252D-03 -0.11632757D-04 -0.16902912D-04
 -0.22472617D-04 -0.26965585D-04 -0.26089323D-04 -0.18520381D-04 -0.57561811D-05
  0.33048361D-05  0.37965230D-05  0.10082000D-05 -0.36376172D-06 -0.24114789D-19
  0.53019079D-04  0.17939547D-06 -0.71557669D-19  0.24030218D-04  0.80354435D-07
 -0.38254243D-20  0.29834717D-05  0.10037349D-07 -0.20504831D-03 -0.21456096D-03
 -0.18281742D-03 -0.12039909D-03 -0.55488357D-04 -0.16616078D-04 -0.28270849D-05
  0.41008975D-03  0.42911474D-03  0.36562872D-03  0.24079416D-03  0.11097486D-03
  0.33231601D-04  0.56540751D-05 -0.20504144D-03 -0.21455378D-03 -0.18281130D-03
 -0.12039506D-03 -0.55486500D-04 -0.16615522D-04 -0.28269902D-05 -0.58094442D-17
 -0.60789574D-17 -0.51795970D-17 -0.34111562D-17 -0.15721003D-17 -0.47076799D-18
 -0.80097183D-19  0.31001735D-18  0.32439976D-18  0.27640596D-18  0.18203422D-18
  0.83894152D-19  0.25122240D-19  0.42743361D-20  0.41193150D-05  0.43104193D-05
  0.36727080D-05  0.24187559D-05  0.11147326D-05  0.33380847D-06  0.56794681D-07
  0.11377362D-04 -0.22754342D-04  0.11376980D-04 -0.19283896D-18 -0.34263797D-20
 -0.22822697D-06  0.48560253D-05 -0.97118819D-05  0.48558566D-05 -0.34882240D-19
  0.40243955D-21 -0.99177297D-07 -0.11642529D-05  0.23284669D-05 -0.11642139D-05
 -0.27851304D-19 -0.78945758D-22  0.23346721D-07 -0.13612409D-19 -0.10024688D-04
  0.50494101D-07  0.49328927D-19  0.15037456D-04  0.50494374D-07 -0.84916986D-20
  0.15036608D-04 -0.20197668D-06 -0.85764249D-22  0.74273265D-20  0.17204732D-05
 -0.85870177D-08 -0.28002886D-19 -0.25807813D-05 -0.85871121D-08  0.57209062D-20
 -0.25806383D-05  0.34348165D-07 -0.71794400D-22
MO    2     MO 0.0        OCC NO =    2.0000000  ORB. ENERGY = -482.259831
  0.86174468D-07  0.16077177D-06  0.27446669D-06  0.42833442D-06  0.58388905D-06
  0.63369862D-06  0.46185998D-06  0.14132703D-06 -0.67337129D-09 -0.22997602D-06
 -0.42943827D-06 -0.73835146D-06 -0.11589921D-05 -0.16486322D-05 -0.19124576D-05
 -0.18131640D-05 -0.10565315D-05  0.78284666D-06 -0.70210978D-05 -0.13524925D-03
  0.60586736D-06 -0.13121629D-15 -0.11055886D-15 -0.87317021D-16 -0.41607502D-04
 -0.35057218D-04 -0.27687440D-04 -0.13587614D-06 -0.11448511D-06 -0.90417888D-07
  0.36119734D-16  0.72905534D-04  0.23886036D-06 -0.19602693D-19  0.23091043D-05
  0.80206246D-08  0.62823330D-22  0.23774192D-08  0.63064930D-11 -0.76056149D-06
  0.15211045D-05 -0.76054302D-06  0.96283362D-20  0.74371554D-22  0.13147134D-07
 -0.10481079D-05  0.20961766D-05 -0.10480687D-05 -0.10378388D-19 -0.76607370D-22
  0.22213475D-07  0.34562155D-05 -0.69123176D-05  0.34561021D-05  0.79912901D-20
  0.45378032D-22 -0.68591016D-07  0.48518135D-21  0.10366974D-04 -0.51235215D-07
 -0.83466692D-20 -0.15550883D-04 -0.51236076D-07  0.68911252D-20 -0.15550039D-04
  0.20494172D-06 -0.17445307D-21  0.11613581D-19  0.42034106D-05 -0.20770727D-07
 -0.47788027D-19 -0.63052869D-05 -0.20771104D-07  0.12947283D-19 -0.63049448D-05
  0.83083284D-07 -0.65609571D-21  0.78086627D+00  0.14689046D+01  0.25427462D+01
  0.41680475D+01  0.65293272D+01  0.98141348D+01  0.14026864D+02  0.18621011D+02
  0.21686696D+02  0.19919020D+02  0.11647435D+02  0.30563451D+01  0.16708920D+00
 -0.59804480D-02  0.16713465D-02 -0.49627917D-03  0.84607007D-04  0.69027680D-05
  0.65253320D-04  0.11989057D-03  0.20731842D-03  0.33951289D-03  0.53454779D-03
  0.80721954D-03  0.11782940D-02  0.16225824D-02  0.20732260D-02  0.22600592D-02
  0.18603767D-02  0.51010267D-03 -0.10289102D-02 -0.10027179D-02 -0.21942292D-03
 -0.73921563D-05 -0.25042263D-06  0.63704288D-09 -0.12232827D-03 -0.23981241D-03
 -0.42002549D-03 -0.68618497D-03 -0.10822790D-02 -0.16331106D-02 -0.23944647D-02
 -0.33059546D-02 -0.42861865D-02 -0.47664917D-02 -0.41399914D-02 -0.12025935D-02
  0.30317235D-02  0.44174348D-02  0.76047720D-03 -0.18552387D-02 -0.88304687D-03
  0.42645030D-05  0.44492006D-04  0.96403434D-04  0.16411156D-03  0.26787426D-03
  0.42227748D-03  0.63733868D-03  0.93444238D-03  0.12918003D-02  0.16766271D-02
  0.18730857D-02  0.16361828D-02  0.48463893D-03 -0.12597828D-02 -0.19379718D-02
 -0.33920424D-03  0.10700010D-02  0.90826905D-03 -0.33886707D-03  0.30056014D-03
  0.99090815D-04  0.54307303D-04  0.13044249D-17  0.18716187D-17  0.24781227D-17
  0.28615296D-17  0.26527696D-17  0.17174514D-17  0.60619727D-18  0.71051547D-19
  0.10329580D-20  0.15126520D-21  0.15552412D-23  0.90364565D-03  0.12965715D-02
  0.17167296D-02  0.19823363D-02  0.18377170D-02  0.11897715D-02  0.41994563D-03
  0.49221249D-04  0.71558586D-06  0.10478958D-06  0.10773997D-08  0.29853036D-05
  0.42833822D-05  0.56714257D-05  0.65488898D-05  0.60711222D-05  0.39305552D-05
  0.13873416D-05  0.16260840D-06  0.23640252D-08  0.34618517D-09  0.35593212D-11
 -0.10698554D-16 -0.15443485D-16 -0.20632127D-16 -0.24511600D-16 -0.23753619D-16
 -0.16511795D-16 -0.53727798D-17  0.24181773D-17  0.26124382D-17  0.67256423D-18
 -0.65602430D-21 -0.42049182D-02 -0.60698477D-02 -0.81091714D-02 -0.96339444D-02
 -0.93360306D-02 -0.64897322D-02 -0.21116966D-02  0.95043105D-03  0.10267826D-02
  0.26434204D-03 -0.25784126D-06 -0.13814170D-04 -0.19940913D-04 -0.26640583D-04
 -0.31649830D-04 -0.30671111D-04 -0.21320334D-04 -0.69374323D-05  0.31223951D-05
  0.33732284D-05  0.86842733D-06 -0.84707067D-09  0.66399782D-17  0.96481829D-17
  0.12827371D-16  0.15391957D-16  0.14891787D-16  0.10571435D-16  0.32856284D-17
 -0.18864006D-17 -0.21670555D-17 -0.57548064D-18  0.20763521D-18  0.30718773D-02
  0.44635741D-02  0.59343735D-02  0.71208374D-02  0.68894416D-02  0.48907014D-02
  0.15200423D-02 -0.87271239D-03 -0.10025528D-02 -0.26623671D-03  0.96059034D-04
  0.10095092D-04  0.14668616D-04  0.19502095D-04  0.23401164D-04  0.22640730D-04
  0.16072282D-04  0.49953056D-05 -0.28679894D-05 -0.32946831D-05 -0.87493205D-06
  0.31567821D-06 -0.22518991D-18 -0.48157015D-04 -0.15786374D-06  0.56502698D-19
 -0.25794811D-04 -0.84651748D-07 -0.19399152D-20 -0.33668183D-05 -0.11051270D-07
 -0.19214634D-03 -0.20106044D-03 -0.17131426D-03 -0.11282339D-03 -0.51996942D-04
 -0.15570568D-04 -0.26492002D-05  0.38428644D-03  0.40211435D-03  0.34262295D-03
  0.22564312D-03  0.10399219D-03  0.31140631D-04  0.52983143D-05 -0.19214010D-03
 -0.20105391D-03 -0.17130869D-03 -0.11281973D-03 -0.51995253D-04 -0.15570063D-04
 -0.26491142D-05  0.11198593D-17  0.11718121D-17  0.99844660D-18  0.65755257D-18
  0.30304640D-18  0.90747735D-19  0.15439958D-19  0.25903277D-17  0.27104989D-17
  0.23094901D-17  0.15209738D-17  0.70097155D-18  0.20990707D-18  0.35713908D-19
  0.38029887D-05  0.39794179D-05  0.33906770D-05  0.22330172D-05  0.10291311D-05
  0.30817498D-06  0.52433360D-07  0.10706270D-04 -0.21412190D-04  0.10705920D-04