 Molden2AIM, Version 4.0.0 (06/02/2016)           Time: Sat Jun 30 01:40:19 2018
GAUSSIAN             16 MOL ORBITALS    300 PRIMITIVES        4 NUCLEI
  B    1    (CENTRE  1)   0.00000000  0.00079368  0.00000000  CHARGE =  5.0
  F    2    (CENTRE  2)   0.00000000  2.50263990  0.00000000  CHARGE =  9.0
  F    3    (CENTRE  3)   2.16559212 -1.25171679  0.00000000  CHARGE =  9.0
  F    4    (CENTRE  4)  -2.16559212 -1.25171679  0.00000000  CHARGE =  9.0
CENTRE ASSIGNMENTS    1  1  1  1  1  1  1  1  1  1  1  1  1  1  1  1  1  1  1  1
CENTRE ASSIGNMENTS    1  1  1  1  1  1  1  1  1  1  1  1  1  1  1  1  1  1  1  1
CENTRE ASSIGNMENTS    1  1  1  1  1  1  1  1  1  1  1  1  1  1  1  1  1  1  1  1
CENTRE ASSIGNMENTS    1  1  1  1  1  1  1  1  1  1  1  1  1  1  1  2  2  2  2  2
CENTRE ASSIGNMENTS    2  2  2  2  2  2  2  2  2  2  2  2  2  2  2  2  2  2  2  2
CENTRE ASSIGNMENTS    2  2  2  2  2  2  2  2  2  2  2  2  2  2  2  2  2  2  2  2
CENTRE ASSIGNMENTS    2  2  2  2  2  2  2  2  2  2  2  2  2  2  2  2  2  2  2  2
CENTRE ASSIGNMENTS    2  2  2  2  2  2  2  2  2  2  3  3  3  3  3  3  3  3  3  3
CENTRE ASSIGNMENTS    3  3  3  3  3  3  3  3  3  3  3  3  3  3  3  3  3  3  3  3
CENTRE ASSIGNMENTS    3  3  3  3  3  3  3  3  3  3  3  3  3  3  3  3  3  3  3  3
CENTRE ASSIGNMENTS    3  3  3  3  3  3  3  3  3  3  3  3  3  3  3  3  3  3  3  3
CENTRE ASSIGNMENTS    3  3  3  3  3  4  4  4  4  4  4  4  4  4  4  4  4  4  4  4
CENTRE ASSIGNMENTS    4  4  4  4  4  4  4  4  4  4  4  4  4  4  4  4  4  4  4  4
CENTRE ASSIGNMENTS    4  4  4  4  4  4  4  4  4  4  4  4  4  4  4  4  4  4  4  4
CENTRE ASSIGNMENTS    4  4  4  4  4  4  4  4  4  4  4  4  4  4  4  4  4  4  4  4
TYPE ASSIGNMENTS      1  1  1  1  1  1  1  1  1  1  1  1  1  1  1  1  1  1  1  2
TYPE ASSIGNMENTS      2  2  3  3  3  4  4  4  2  3  4  2  3  4  2  3  4  5  6  7
TYPE ASSIGNMENTS      8  9 10  5  6  7  8  9 10  5  6  7  8  9 10 11 12 13 17 14
TYPE ASSIGNMENTS     15 18 19 16 20 11 12 13 17 14 15 18 19 16 20  1  1  1  1  1
TYPE ASSIGNMENTS      1  1  1  1  1  1  1  1  1  1  1  1  1  1  2  2  2  3  3  3
TYPE ASSIGNMENTS      4  4  4  2  3  4  2  3  4  2  3  4  5  6  7  8  9 10  5  6
TYPE ASSIGNMENTS      7  8  9 10  5  6  7  8  9 10 11 12 13 17 14 15 18 19 16 20
TYPE ASSIGNMENTS     11 12 13 17 14 15 18 19 16 20  1  1  1  1  1  1  1  1  1  1
TYPE ASSIGNMENTS      1  1  1  1  1  1  1  1  1  2  2  2  3  3  3  4  4  4  2  3
TYPE ASSIGNMENTS      4  2  3  4  2  3  4  5  6  7  8  9 10  5  6  7  8  9 10  5
TYPE ASSIGNMENTS      6  7  8  9 10 11 12 13 17 14 15 18 19 16 20 11 12 13 17 14
TYPE ASSIGNMENTS     15 18 19 16 20  1  1  1  1  1  1  1  1  1  1  1  1  1  1  1
TYPE ASSIGNMENTS      1  1  1  1  2  2  2  3  3  3  4  4  4  2  3  4  2  3  4  2
TYPE ASSIGNMENTS      3  4  5  6  7  8  9 10  5  6  7  8  9 10  5  6  7  8  9 10
TYPE ASSIGNMENTS     11 12 13 17 14 15 18 19 16 20 11 12 13 17 14 15 18 19 16 20
EXPONENTS  0.5473000D+04 0.8209000D+03 0.1868000D+03 0.5283000D+02 0.1708000D+02
EXPONENTS  0.5999000D+01 0.2208000D+01 0.2415000D+00 0.5473000D+04 0.8209000D+03
EXPONENTS  0.1868000D+03 0.5283000D+02 0.1708000D+02 0.5999000D+01 0.2208000D+01
EXPONENTS  0.2415000D+00 0.5879000D+00 0.8610000D-01 0.2914000D-01 0.1205000D+02
EXPONENTS  0.2613000D+01 0.7475000D+00 0.1205000D+02 0.2613000D+01 0.7475000D+00
EXPONENTS  0.1205000D+02 0.2613000D+01 0.7475000D+00 0.2385000D+00 0.2385000D+00
EXPONENTS  0.2385000D+00 0.7698000D-01 0.7698000D-01 0.7698000D-01 0.2096000D-01
EXPONENTS  0.2096000D-01 0.2096000D-01 0.6610000D+00 0.6610000D+00 0.6610000D+00
EXPONENTS  0.6610000D+00 0.6610000D+00 0.6610000D+00 0.1990000D+00 0.1990000D+00
EXPONENTS  0.1990000D+00 0.1990000D+00 0.1990000D+00 0.1990000D+00 0.6040000D-01
EXPONENTS  0.6040000D-01 0.6040000D-01 0.6040000D-01 0.6040000D-01 0.6040000D-01
EXPONENTS  0.4900000D+00 0.4900000D+00 0.4900000D+00 0.4900000D+00 0.4900000D+00
EXPONENTS  0.4900000D+00 0.4900000D+00 0.4900000D+00 0.4900000D+00 0.4900000D+00
EXPONENTS  0.1630000D+00 0.1630000D+00 0.1630000D+00 0.1630000D+00 0.1630000D+00
EXPONENTS  0.1630000D+00 0.1630000D+00 0.1630000D+00 0.1630000D+00 0.1630000D+00
EXPONENTS  0.1950000D+05 0.2923000D+04 0.6645000D+03 0.1875000D+03 0.6062000D+02
EXPONENTS  0.2142000D+02 0.7950000D+01 0.8815000D+00 0.1950000D+05 0.2923000D+04
EXPONENTS  0.6645000D+03 0.1875000D+03 0.6062000D+02 0.2142000D+02 0.7950000D+01
EXPONENTS  0.8815000D+00 0.2257000D+01 0.3041000D+00 0.9158000D-01 0.4388000D+02
EXPONENTS  0.9926000D+01 0.2930000D+01 0.4388000D+02 0.9926000D+01 0.2930000D+01
EXPONENTS  0.4388000D+02 0.9926000D+01 0.2930000D+01 0.9132000D+00 0.9132000D+00
EXPONENTS  0.9132000D+00 0.2672000D+00 0.2672000D+00 0.2672000D+00 0.7361000D-01
EXPONENTS  0.7361000D-01 0.7361000D-01 0.3107000D+01 0.3107000D+01 0.3107000D+01
EXPONENTS  0.3107000D+01 0.3107000D+01 0.3107000D+01 0.8550000D+00 0.8550000D+00
EXPONENTS  0.8550000D+00 0.8550000D+00 0.8550000D+00 0.8550000D+00 0.2920000D+00
EXPONENTS  0.2920000D+00 0.2920000D+00 0.2920000D+00 0.2920000D+00 0.2920000D+00
EXPONENTS  0.1917000D+01 0.1917000D+01 0.1917000D+01 0.1917000D+01 0.1917000D+01
EXPONENTS  0.1917000D+01 0.1917000D+01 0.1917000D+01 0.1917000D+01 0.1917000D+01
EXPONENTS  0.7240000D+00 0.7240000D+00 0.7240000D+00 0.7240000D+00 0.7240000D+00
EXPONENTS  0.7240000D+00 0.7240000D+00 0.7240000D+00 0.7240000D+00 0.7240000D+00
EXPONENTS  0.1950000D+05 0.2923000D+04 0.6645000D+03 0.1875000D+03 0.6062000D+02
EXPONENTS  0.2142000D+02 0.7950000D+01 0.8815000D+00 0.1950000D+05 0.2923000D+04
EXPONENTS  0.6645000D+03 0.1875000D+03 0.6062000D+02 0.2142000D+02 0.7950000D+01
EXPONENTS  0.8815000D+00 0.2257000D+01 0.3041000D+00 0.9158000D-01 0.4388000D+02
EXPONENTS  0.9926000D+01 0.2930000D+01 0.4388000D+02 0.9926000D+01 0.2930000D+01
EXPONENTS  0.4388000D+02 0.9926000D+01 0.2930000D+01 0.9132000D+00 0.9132000D+00
EXPONENTS  0.9132000D+00 0.2672000D+00 0.2672000D+00 0.2672000D+00 0.7361000D-01
EXPONENTS  0.7361000D-01 0.7361000D-01 0.3107000D+01 0.3107000D+01 0.3107000D+01
EXPONENTS  0.3107000D+01 0.3107000D+01 0.3107000D+01 0.8550000D+00 0.8550000D+00
EXPONENTS  0.8550000D+00 0.8550000D+00 0.8550000D+00 0.8550000D+00 0.2920000D+00
EXPONENTS  0.2920000D+00 0.2920000D+00 0.2920000D+00 0.2920000D+00 0.2920000D+00
EXPONENTS  0.1917000D+01 0.1917000D+01 0.1917000D+01 0.1917000D+01 0.1917000D+01
EXPONENTS  0.1917000D+01 0.1917000D+01 0.1917000D+01 0.1917000D+01 0.1917000D+01
EXPONENTS  0.7240000D+00 0.7240000D+00 0.7240000D+00 0.7240000D+00 0.7240000D+00
EXPONENTS  0.7240000D+00 0.7240000D+00 0.7240000D+00 0.7240000D+00 0.7240000D+00
EXPONENTS  0.1950000D+05 0.2923000D+04 0.6645000D+03 0.1875000D+03 0.6062000D+02
EXPONENTS  0.2142000D+02 0.7950000D+01 0.8815000D+00 0.1950000D+05 0.2923000D+04
EXPONENTS  0.6645000D+03 0.1875000D+03 0.6062000D+02 0.2142000D+02 0.7950000D+01
EXPONENTS  0.8815000D+00 0.2257000D+01 0.3041000D+00 0.9158000D-01 0.4388000D+02
EXPONENTS  0.9926000D+01 0.2930000D+01 0.4388000D+02 0.9926000D+01 0.2930000D+01
EXPONENTS  0.4388000D+02 0.9926000D+01 0.2930000D+01 0.9132000D+00 0.9132000D+00
EXPONENTS  0.9132000D+00 0.2672000D+00 0.2672000D+00 0.2672000D+00 0.7361000D-01
EXPONENTS  0.7361000D-01 0.7361000D-01 0.3107000D+01 0.3107000D+01 0.3107000D+01
EXPONENTS  0.3107000D+01 0.3107000D+01 0.3107000D+01 0.8550000D+00 0.8550000D+00
EXPONENTS  0.8550000D+00 0.8550000D+00 0.8550000D+00 0.8550000D+00 0.2920000D+00
EXPONENTS  0.2920000D+00 0.2920000D+00 0.2920000D+00 0.2920000D+00 0.2920000D+00
EXPONENTS  0.1917000D+01 0.1917000D+01 0.1917000D+01 0.1917000D+01 0.1917000D+01
EXPONENTS  0.1917000D+01 0.1917000D+01 0.1917000D+01 0.1917000D+01 0.1917000D+01
EXPONENTS  0.7240000D+00 0.7240000D+00 0.7240000D+00 0.7240000D+00 0.7240000D+00
EXPONENTS  0.7240000D+00 0.7240000D+00 0.7240000D+00 0.7240000D+00 0.7240000D+00
MO    1     MO 0.0        OCC NO =    2.0000000  ORB. ENERGY =  -24.519462
  0.27232439D-03  0.50745867D-03  0.85520821D-03  0.12759636D-02  0.15455481D-02
  0.12860112D-02  0.47763124D-03 -0.25356438D-05 -0.20704308D-03 -0.38673281D-03
 -0.65822119D-03 -0.10066767D-02 -0.13092427D-02 -0.13252504D-02 -0.87261021D-03
  0.59647723D-03  0.24414578D-03  0.36773162D-03  0.98917794D-05  0.81657413D-14
  0.73594182D-14  0.53434148D-14  0.22836023D-03  0.20581089D-03  0.14943205D-03
 -0.75315876D-16 -0.67878837D-16 -0.49284438D-16  0.59287595D-13  0.17757357D-02
  0.31297337D-16  0.10414070D-13  0.32747356D-03  0.17862584D-18 -0.41664856D-16
 -0.14227226D-05 -0.23489432D-20 -0.42426862D-03  0.68712749D-03 -0.26285887D-03
 -0.38341605D-13 -0.54843913D-18 -0.29262305D-18 -0.19969975D-03  0.23638860D-03
 -0.36688850D-04 -0.14492814D-13  0.42488649D-18 -0.59763261D-18 -0.22974479D-05
  0.34575691D-05 -0.11601212D-05 -0.20665052D-15  0.10056819D-18  0.25135505D-19
  0.22765919D-14  0.63798194D-04 -0.42804027D-18  0.27030420D-14  0.90599997D-04
  0.10724644D-17 -0.95328176D-14 -0.28199458D-03  0.21165637D-18  0.36714859D-18
  0.21673666D-15  0.10373948D-04  0.62075739D-19  0.25810919D-15 -0.38653416D-05
 -0.88941682D-19 -0.90831916D-15 -0.27256503D-04 -0.97285534D-19 -0.21568890D-18
  0.59445443D+00  0.11080888D+01  0.18784829D+01  0.28445768D+01  0.35571533D+01
  0.30623776D+01  0.11772898D+01 -0.51013892D-02  0.12624748D-03  0.23707042D-03
  0.40369003D-03  0.63237805D-03  0.84746098D-03  0.91155855D-03  0.54729855D-03
 -0.35992656D-03  0.64261697D-01 -0.15052456D-02 -0.11519113D-02 -0.27750430D-14
 -0.27139314D-14 -0.17932092D-14 -0.62120397D-02 -0.60752392D-02 -0.40141674D-02
  0.78015624D-16  0.76297576D-16  0.50413035D-16  0.21495182D-14  0.98159892D-03
 -0.60341425D-17 -0.23430458D-14  0.12137701D-02  0.21313225D-17 -0.78093146D-15
  0.88821694D-04 -0.78332051D-19 -0.19699299D-03  0.94317306D-03 -0.74618007D-03
 -0.17651167D-14  0.22649628D-16 -0.10727645D-16  0.26360294D-03 -0.63720667D-03
  0.37360373D-03 -0.56411128D-15 -0.15403848D-17  0.13120725D-17  0.90485818D-04
 -0.17732024D-03  0.86834418D-04  0.30565512D-14  0.20426301D-18 -0.74372029D-18
 -0.22513766D-14 -0.10579658D-03  0.53612262D-19  0.22154709D-13  0.26267927D-04
 -0.38958727D-17 -0.15400579D-13  0.29112180D-03  0.37350360D-17 -0.15060194D-16
  0.65765741D-16  0.19475173D-03  0.26261865D-18 -0.44556699D-14 -0.23392195D-03
  0.47714887D-18  0.42583727D-14 -0.35033323D-03 -0.12650048D-17  0.79431643D-18
 -0.11114134D-02 -0.20717227D-02 -0.35120793D-02 -0.53183232D-02 -0.66505818D-02
 -0.57255314D-02 -0.22011033D-02  0.95377410D-05  0.13388636D-04  0.25141487D-04
  0.42811616D-04  0.67064143D-04  0.89873841D-04  0.96671434D-04  0.58041402D-04
 -0.38170468D-04 -0.15318507D-03  0.54989190D-03  0.33647673D-03  0.13064693D-03
  0.12776985D-03  0.84422940D-04 -0.15288047D-03 -0.14951376D-03 -0.98790061D-04
  0.13108659D-16  0.12819983D-16  0.84707045D-17 -0.15863883D-03  0.15321179D-03
  0.13101350D-18 -0.26675085D-03  0.90403497D-04 -0.29187609D-19 -0.34113242D-04
 -0.61711136D-05 -0.27628595D-18 -0.34420881D-05  0.69660478D-04 -0.66218390D-04
  0.29749770D-04  0.15820866D-18  0.16558016D-17  0.40621867D-04 -0.17148764D-04
 -0.23473103D-04 -0.12702543D-03  0.11056193D-18 -0.68114667D-18  0.38660301D-04
 -0.33566082D-04 -0.50942193D-05  0.25883958D-04  0.61862612D-18 -0.70812855D-19
  0.86783646D-04  0.12703976D-03  0.62367327D-18 -0.52952743D-03  0.22384435D-03
  0.11770896D-17  0.26917649D-03 -0.60496363D-03 -0.30481095D-17 -0.77927410D-17
 -0.11716681D-04 -0.40204749D-04 -0.13135482D-18  0.10195539D-03 -0.42466487D-04
 -0.32202414D-18 -0.66805345D-04  0.16308073D-03  0.71608861D-18  0.23792117D-17
 -0.11114134D-02 -0.20717228D-02 -0.35120794D-02 -0.53183233D-02 -0.66505820D-02
 -0.57255316D-02 -0.22011034D-02  0.95377412D-05  0.13388636D-04  0.25141487D-04
  0.42811616D-04  0.67064143D-04  0.89873841D-04  0.96671434D-04  0.58041402D-04
 -0.38170468D-04 -0.15318507D-03  0.54989190D-03  0.33647673D-03 -0.13064693D-03
 -0.12776985D-03 -0.84422940D-04 -0.15288047D-03 -0.14951376D-03 -0.98790061D-04
  0.14545285D-16  0.14224971D-16  0.93990399D-17  0.15863883D-03  0.15321179D-03
 -0.16063569D-17  0.26675085D-03  0.90403497D-04  0.96907937D-18  0.34113242D-04
 -0.61711136D-05  0.35776835D-18 -0.34420882D-05  0.69660478D-04 -0.66218390D-04
 -0.29749770D-04  0.13228966D-16  0.34505933D-17  0.40621867D-04 -0.17148764D-04
 -0.23473103D-04  0.12702543D-03 -0.12981859D-17 -0.13352390D-17  0.38660301D-04
 -0.33566082D-04 -0.50942193D-05 -0.25883958D-04  0.23274593D-18  0.29877880D-18
 -0.86783646D-04  0.12703976D-03 -0.16919804D-17  0.52952743D-03  0.22384435D-03
  0.37282459D-17 -0.26917649D-03 -0.60496363D-03  0.13476952D-17  0.12476414D-16
  0.11716681D-04 -0.40204749D-04  0.73050254D-18 -0.10195539D-03 -0.42466487D-04
 -0.16025879D-17  0.66805345D-04  0.16308073D-03 -0.58891969D-18 -0.43912987D-17
MO    2     MO 0.0        OCC NO =    2.0000000  ORB. ENERGY =  -24.519194
 -0.16882461D-13 -0.31459362D-13 -0.53017725D-13 -0.79102011D-13 -0.95814616D-13
 -0.79724899D-13 -0.29610242D-13  0.15719455D-15  0.11804746D-13  0.22049916D-13
  0.37529069D-13  0.57396569D-13  0.74647644D-13  0.75560337D-13  0.49752650D-13
 -0.34008682D-13  0.24981218D-13 -0.30275901D-12  0.31132294D-15  0.28025384D-03
  0.25258028D-03  0.18338966D-03 -0.11781828D-13 -0.10618436D-13 -0.77096729D-14
 -0.65852980D-16 -0.59350352D-16 -0.43092204D-16  0.21675650D-02  0.97658851D-13
  0.27925985D-16  0.39933330D-03  0.66172830D-13 -0.54424473D-18 -0.17343596D-05
 -0.48812514D-15  0.20928168D-18 -0.29269301D-14 -0.29353424D-14  0.58622725D-14
 -0.13593808D-02 -0.69593906D-16 -0.65932816D-16 -0.29010731D-13  0.55179274D-14
  0.23492803D-13 -0.53423294D-03  0.10801455D-17  0.11580759D-16  0.37075428D-14
 -0.45580530D-14  0.85051013D-15 -0.71445633D-05 -0.70222317D-20  0.63941734D-19
  0.86436429D-04 -0.94830555D-14 -0.25645506D-18  0.84488917D-04  0.37146198D-13
 -0.39777330D-18 -0.34379821D-03 -0.86970311D-14  0.11671385D-17 -0.15800032D-17
  0.83044943D-05 -0.15930619D-14  0.17850093D-19  0.83135516D-05  0.64861940D-14
 -0.66094334D-20 -0.33227034D-04 -0.17070083D-14 -0.46940847D-19 -0.21891936D-18
 -0.17056344D-10 -0.31793764D-10 -0.53898246D-10 -0.81617829D-10 -0.10206338D-09
 -0.87867064D-10 -0.33779307D-10  0.14637127D-12 -0.14605723D-13 -0.27426961D-13
 -0.46703384D-13 -0.73160574D-13 -0.98043777D-13 -0.10545930D-12 -0.63317626D-13
  0.41640335D-13 -0.18484919D-11 -0.18796631D-13 -0.31246526D-13 -0.94447354D-04
 -0.92367450D-04 -0.61031079D-04  0.19162344D-12  0.18740354D-12  0.12382544D-12
  0.16259496D-16  0.15901432D-16  0.10506748D-16  0.74950458D-04 -0.50276295D-13
 -0.14688139D-17 -0.76503155D-04  0.36067715D-13  0.34297425D-18 -0.31360708D-04
  0.11754656D-13 -0.30152263D-18 -0.12018820D-13 -0.23136787D-13  0.35155607D-13
 -0.66542747D-04 -0.25472539D-17 -0.16201377D-16 -0.29791566D-14  0.20070887D-13
 -0.17091731D-13 -0.19818491D-04  0.92092975D-18  0.29221442D-17  0.30574251D-14
 -0.11952241D-13  0.88948157D-14  0.10564203D-03 -0.64539648D-19  0.50336928D-18
 -0.79702441D-04 -0.17514790D-13 -0.13661438D-17  0.78728792D-03  0.32381783D-13
 -0.12904015D-17 -0.54818060D-03  0.20162587D-13  0.53888329D-17  0.47851547D-18
  0.18144216D-05  0.29335025D-14  0.10875993D-17 -0.15708237D-03 -0.14975649D-14
  0.98190179D-18  0.15163910D-03 -0.73029425D-14 -0.42446997D-17  0.34588923D-18
  0.42035700D+00  0.78356366D+00  0.13283330D+01  0.20114877D+01  0.25153724D+01
  0.21655014D+01  0.83249778D+00 -0.36073492D-02  0.79672828D-04  0.14961146D-03
  0.25476252D-03  0.39908397D-03  0.53481947D-03  0.57527045D-03  0.34539163D-03
 -0.22714406D-03  0.45464728D-01 -0.14497032D-02 -0.10492245D-02 -0.39310280D-02
 -0.38444595D-02 -0.25401969D-02  0.22211291D-02  0.21722157D-02  0.14352748D-02
  0.34311414D-16  0.33555813D-16  0.22171745D-16  0.74831776D-03 -0.38980453D-03
 -0.59390692D-17  0.88969274D-03 -0.56047861D-03  0.60280921D-18  0.62397841D-04
 -0.54251291D-04 -0.21852395D-18  0.43485424D-03  0.45265221D-04 -0.48011946D-03
 -0.75618087D-03 -0.21927350D-16  0.15118898D-17 -0.32633781D-03  0.46117382D-04
  0.28022043D-03  0.63225078D-03  0.35143741D-17  0.94989277D-18 -0.58466083D-04
 -0.61523634D-05  0.64618446D-04  0.19907905D-03 -0.55997096D-18  0.16941854D-18
  0.18241107D-03  0.31530946D-04 -0.66360547D-17 -0.25781885D-03  0.57133995D-04
 -0.19177490D-17 -0.28941435D-03 -0.15172683D-03  0.21825913D-16  0.29378751D-16
  0.16750552D-05  0.40395413D-04  0.22361333D-17  0.85128732D-04 -0.26170798D-03
 -0.65119262D-18 -0.90153898D-04  0.14052174D-03 -0.60572073D-17 -0.26795500D-17
 -0.42035700D+00 -0.78356366D+00 -0.13283330D+01 -0.20114877D+01 -0.25153724D+01
 -0.21655014D+01 -0.83249778D+00  0.36073492D-02 -0.79672828D-04 -0.14961146D-03
 -0.25476252D-03 -0.39908397D-03 -0.53481947D-03 -0.57527045D-03 -0.34539162D-03
  0.22714406D-03 -0.45464728D-01  0.14497032D-02  0.10492245D-02 -0.39310280D-02
 -0.38444595D-02 -0.25401969D-02 -0.22211291D-02 -0.21722157D-02 -0.14352748D-02
 -0.28295305D-16 -0.27672190D-16 -0.18284186D-16  0.74831776D-03  0.38980453D-03
  0.18036030D-17  0.88969274D-03  0.56047861D-03  0.19948656D-17  0.62397841D-04
  0.54251291D-04  0.14354442D-18 -0.43485424D-03 -0.45265221D-04  0.48011946D-03
 -0.75618087D-03  0.33641258D-16  0.13307284D-16  0.32633781D-03 -0.46117382D-04
 -0.28022043D-03  0.63225078D-03 -0.50266683D-17  0.75817913D-18  0.58466083D-04
  0.61523634D-05 -0.64618446D-04  0.19907905D-03  0.23090671D-17  0.86618143D-18
  0.18241107D-03 -0.31530946D-04 -0.21935173D-17 -0.25781885D-03 -0.57133995D-04
 -0.40254002D-18 -0.28941435D-03  0.15172683D-03  0.69830918D-17 -0.31327306D-16
  0.16750552D-05 -0.40395413D-04  0.24946352D-18  0.85128732D-04  0.26170798D-03
  0.47075416D-18 -0.90153898D-04 -0.14052174D-03 -0.12191447D-17  0.47458760D-18
MO    3     MO 0.0        OCC NO =    2.0000000  ORB. ENERGY =  -24.519193
  0.38686329D-03  0.72089441D-03  0.12149065D-02  0.18126305D-02  0.21956015D-02
  0.18269040D-02  0.67852166D-03 -0.36021288D-05 -0.29413254D-03 -0.54940597D-03
 -0.93509173D-03 -0.14301196D-02 -0.18599554D-02 -0.18826965D-02 -0.12396602D-02
  0.84737613D-03  0.34777570D-03  0.52254681D-03  0.14121089D-04  0.16028418D-14
  0.14445698D-14  0.10488513D-14 -0.16031744D-03 -0.14448695D-03 -0.10490690D-03
  0.14327804D-15  0.12913010D-15  0.93756830D-16  0.19642988D-12 -0.12524912D-02
 -0.50080483D-16  0.77527626D-13 -0.23028284D-03 -0.34209270D-18 -0.88247754D-15
  0.99839589D-06  0.32966797D-20  0.57536427D-03 -0.20234149D-03 -0.37302279D-03
 -0.59238297D-13  0.54141251D-18  0.67592390D-18  0.17877295D-03 -0.12672492D-03
 -0.52048027D-04 -0.74504010D-13 -0.38560839D-18  0.52656868D-18  0.28859943D-05
 -0.12350724D-05 -0.16509220D-05 -0.97078865D-15 -0.72105337D-19 -0.20561204D-19
  0.21300716D-14 -0.60257756D-04  0.34750302D-18  0.10976211D-13 -0.18449435D-04
 -0.97938975D-18 -0.17366425D-13  0.19922270D-03 -0.63119297D-19 -0.17691256D-18
 -0.98067815D-16  0.18200193D-06  0.21823292D-20  0.24910176D-14 -0.19770780D-04
 -0.18740070D-19 -0.21968142D-14  0.19224774D-04  0.12193083D-19  0.16195199D-18
  0.15202945D-02  0.28338948D-02  0.48041483D-02  0.72748964D-02  0.90972835D-02
  0.78319137D-02  0.30108736D-02 -0.13046608D-04  0.19468417D-04  0.36558238D-04
  0.62252375D-04  0.97517977D-04  0.13068556D-03  0.14056994D-03  0.84398009D-04
 -0.55503681D-04  0.11726560D-03  0.77346741D-03  0.47099858D-03  0.82706852D-14
  0.80885495D-14  0.53444467D-14  0.23778261D-03  0.23254619D-03  0.15365310D-03
 -0.90979955D-17 -0.88976409D-17 -0.58790475D-17 -0.80307105D-14 -0.30010745D-03
 -0.93365947D-21  0.89903787D-14 -0.38574820D-03 -0.57783890D-18 -0.66164821D-14
 -0.36946613D-04  0.10785323D-18  0.90232503D-04  0.76414397D-05 -0.97873942D-04
 -0.43397639D-13 -0.13865188D-18  0.48658092D-17 -0.80786019D-04  0.11228581D-03
 -0.31499791D-04  0.23613164D-13  0.11624756D-18 -0.13270684D-18 -0.56928818D-05
  0.12448164D-04 -0.67552826D-05 -0.68200485D-14 -0.82823191D-19  0.97333230D-19
 -0.31530434D-14 -0.22516756D-03  0.10140786D-17  0.16258670D-13 -0.85852803D-04
  0.10456403D-17 -0.67995394D-14  0.76135550D-03 -0.40878762D-17 -0.50379415D-18
  0.12475397D-14  0.51200463D-04 -0.33594690D-18 -0.67625807D-14  0.46023085D-04
 -0.18082146D-18  0.30199617D-14 -0.19962447D-03  0.11886621D-17  0.94699971D-19
  0.42033052D+00  0.78351430D+00  0.13282494D+01  0.20113610D+01  0.25152140D+01
  0.21653650D+01  0.83244534D+00 -0.36071219D-02  0.98421006D-04  0.18481722D-03
  0.31471185D-03  0.49299425D-03  0.66067029D-03  0.71063998D-03  0.42666731D-03
 -0.28059437D-03  0.45414291D-01 -0.67362730D-03 -0.57616952D-03 -0.36645000D-02
 -0.35838010D-02 -0.23679688D-02  0.21750248D-02  0.21271268D-02  0.14054826D-02
  0.27608314D-16  0.27000328D-16  0.17840259D-16  0.44875813D-03 -0.30322815D-03
 -0.44639372D-17  0.59456515D-03 -0.29700210D-03  0.14212289D-17  0.45914230D-04
 -0.85009040D-05  0.23720947D-18  0.49528142D-03  0.81875929D-04 -0.57715735D-03
 -0.64227809D-03  0.57293294D-17  0.15395030D-17 -0.25472199D-03  0.68424119D-05
  0.24787958D-03  0.46950000D-03 -0.10929273D-19  0.16665519D-18 -0.97368123D-04
  0.39227722D-04  0.58140400D-04  0.12882102D-03 -0.97187934D-18  0.40599581D-18
 -0.27063878D-03 -0.25314791D-04  0.19534704D-18  0.16516339D-03  0.13458008D-03
 -0.28870272D-17  0.64675295D-03 -0.58635713D-04  0.23009861D-17  0.90911001D-17
  0.10535959D-03  0.48647396D-04 -0.15492158D-18  0.23491972D-04 -0.25422942D-03
  0.85048412D-18 -0.33957076D-03  0.10828723D-03 -0.38571937D-18 -0.25510826D-17
  0.42033052D+00  0.78351430D+00  0.13282494D+01  0.20113610D+01  0.25152140D+01
  0.21653650D+01  0.83244534D+00 -0.36071219D-02  0.98421006D-04  0.18481722D-03
  0.31471185D-03  0.49299425D-03  0.66067029D-03  0.71063998D-03  0.42666731D-03
 -0.28059437D-03  0.45414291D-01 -0.67362730D-03 -0.57616952D-03  0.36645000D-02
  0.35838010D-02  0.23679688D-02  0.21750248D-02  0.21271268D-02  0.14054826D-02
  0.13783273D-16  0.13479740D-16  0.89066342D-17 -0.44875813D-03 -0.30322815D-03
 -0.20338318D-17 -0.59456515D-03 -0.29700210D-03  0.40386370D-18 -0.45914230D-04
 -0.85009039D-05 -0.21369265D-18  0.49528142D-03  0.81875929D-04 -0.57715735D-03
  0.64227809D-03 -0.27404303D-16 -0.98980883D-17 -0.25472199D-03  0.68424119D-05
  0.24787958D-03 -0.46950000D-03  0.16273413D-17  0.12100088D-17 -0.97368123D-04
  0.39227722D-04  0.58140400D-04 -0.12882102D-03  0.22939319D-18  0.46526979D-19
  0.27063878D-03 -0.25314791D-04  0.23369950D-17 -0.16516339D-03  0.13458008D-03
 -0.67462212D-17 -0.64675295D-03 -0.58635713D-04 -0.26476383D-18 -0.12781142D-16
 -0.10535959D-03  0.48647396D-04 -0.78826868D-18 -0.23491972D-04 -0.25422942D-03
  0.18285219D-17  0.33957076D-03  0.10828723D-03  0.53628412D-18  0.40282250D-17
MO    4     MO 0.0        OCC NO =    2.0000000  ORB. ENERGY =   -6.793261
  0.25523001D+00  0.47560442D+00  0.80152499D+00  0.11958687D+01  0.14485308D+01
  0.12052856D+01  0.44764933D+00 -0.23764761D-02 -0.35106778D-02 -0.65575450D-02
 -0.11160975D-01 -0.17069479D-01 -0.22199870D-01 -0.22471301D-01 -0.14796212D-01
  0.10114027D-01  0.23852376D-01  0.41596797D-02  0.16543983D-04 -0.17081583D-14
 -0.15394869D-14 -0.11177673D-14 -0.74947330D-05 -0.67546683D-05 -0.49043272D-05
  0.97331647D-18  0.87720669D-18  0.63690894D-18  0.33272680D-13  0.54425716D-05
 -0.33763565D-17  0.94927394D-14  0.38586956D-06 -0.44550713D-18 -0.58600101D-16
  0.15366130D-07 -0.46148036D-20  0.18862443D-02  0.18879499D-02 -0.37741942D-02
 -0.10194456D-13 -0.25332435D-17  0.27654859D-17  0.19813102D-03  0.19396671D-03
 -0.39209773D-03 -0.10623218D-13 -0.80056719D-18  0.32361616D-19 -0.26026456D-05
 -0.28802569D-05  0.54829024D-05 -0.52439445D-15 -0.19007223D-21 -0.22430454D-20
  0.95135244D-15  0.11733965D-02  0.76431554D-18  0.12441593D-14 -0.35166998D-02
 -0.12777667D-17 -0.40982166D-14 -0.34897101D-05 -0.10151799D-17  0.30015671D-17
 -0.19625873D-16 -0.26623140D-04  0.64923876D-19  0.60257169D-15  0.80084823D-04
 -0.77140434D-19 -0.54369407D-15 -0.21540118D-06 -0.11763119D-18  0.14062763D-18
  0.28435661D-03  0.53005304D-03  0.89857022D-03  0.13607001D-02  0.17015603D-02
  0.14648849D-02  0.56315524D-03 -0.24402438D-05 -0.32561905D-03 -0.61145491D-03
 -0.10412023D-02 -0.16310372D-02 -0.21857817D-02 -0.23511029D-02 -0.14115991D-02
  0.92832697D-03  0.32004921D-03 -0.36728419D-02 -0.16785617D-02 -0.34699910D-15
 -0.33935755D-15 -0.22422788D-15 -0.26923588D-02 -0.26330681D-02 -0.17397794D-02
  0.11793200D-17  0.11533492D-17  0.76206657D-18  0.42934955D-15  0.17792313D-02
 -0.10680069D-17 -0.11176727D-14  0.31282180D-02  0.17183584D-17 -0.17777237D-15
  0.20379519D-03  0.15502983D-18 -0.12434761D-02  0.13332512D-02 -0.89775082D-04
 -0.59158220D-14  0.88236081D-18  0.29657602D-18  0.94742346D-03 -0.12667325D-02
  0.31930904D-03  0.32172120D-14 -0.40051270D-18  0.19484652D-18  0.37233180D-03
 -0.74446987D-03  0.37213807D-03  0.21241524D-15 -0.15041964D-18 -0.13107176D-17
 -0.71930461D-15 -0.19851206D-02  0.21796664D-17  0.56503468D-14  0.44147374D-02
  0.11234270D-17 -0.34924330D-14  0.15406244D-02 -0.76624261D-17 -0.15873300D-17
  0.28581689D-15  0.56796242D-03 -0.80065943D-18 -0.22212581D-14 -0.15990497D-02
 -0.26113757D-18  0.13638074D-14 -0.10483755D-03  0.26631159D-17  0.12082166D-17
  0.28503131D-03  0.53131071D-03  0.90070227D-03  0.13639287D-02  0.17055976D-02
  0.14683607D-02  0.56449145D-03 -0.24460339D-05 -0.32612327D-03 -0.61240174D-03
 -0.10428145D-02 -0.16335628D-02 -0.21891664D-02 -0.23547436D-02 -0.14137850D-02
  0.92976447D-03  0.31922152D-03 -0.36727550D-02 -0.16799545D-02 -0.23276853D-02
 -0.22764254D-02 -0.15041305D-02  0.13484246D-02  0.13187298D-02  0.87134053D-03
  0.56451384D-18  0.55208220D-18  0.36478405D-18  0.15361166D-02 -0.88896603D-03
 -0.87990949D-18  0.27044097D-02 -0.15719637D-02  0.31688448D-17  0.17590385D-03
 -0.10256132D-03  0.16837859D-18  0.68418420D-03 -0.59284616D-03 -0.91338036D-04
 -0.22471911D-02  0.39205419D-17 -0.19946178D-17 -0.70813997D-03  0.38935991D-03
  0.31878006D-03  0.19233322D-02 -0.19771391D-17  0.11520715D-17 -0.46238427D-03
  0.91023551D-04  0.37136072D-03  0.97136021D-03 -0.21645275D-17  0.10190093D-17
 -0.33010918D-03 -0.14052302D-02  0.23931684D-17 -0.34999686D-03  0.49920784D-02
 -0.74780627D-17  0.13403244D-02 -0.77638783D-03  0.29855739D-18  0.89982519D-17
  0.19186123D-04  0.52931606D-03 -0.13593418D-17  0.32145217D-04 -0.16422536D-02
  0.41657727D-17 -0.89703584D-04  0.54305427D-04 -0.87747318D-19 -0.50553535D-17
  0.28503131D-03  0.53131071D-03  0.90070227D-03  0.13639287D-02  0.17055976D-02
  0.14683607D-02  0.56449145D-03 -0.24460339D-05 -0.32612327D-03 -0.61240174D-03
 -0.10428145D-02 -0.16335628D-02 -0.21891664D-02 -0.23547436D-02 -0.14137850D-02
  0.92976447D-03  0.31922152D-03 -0.36727550D-02 -0.16799545D-02  0.23276853D-02
  0.22764254D-02  0.15041305D-02  0.13484246D-02  0.13187298D-02  0.87134053D-03
  0.84123063D-20  0.82270519D-20  0.54359610D-20 -0.15361166D-02 -0.88896603D-03
 -0.32898007D-18 -0.27044097D-02 -0.15719637D-02  0.58513467D-18 -0.17590385D-03
 -0.10256132D-03  0.11508991D-18  0.68418420D-03 -0.59284616D-03 -0.91338036D-04
  0.22471911D-02 -0.25660338D-17 -0.15882438D-17 -0.70813997D-03  0.38935991D-03
  0.31878006D-03 -0.19233322D-02  0.48146497D-18  0.39855600D-18 -0.46238427D-03
  0.91023551D-04  0.37136072D-03 -0.97136021D-03  0.60582145D-18  0.34131310D-18
  0.33010918D-03 -0.14052302D-02  0.23047716D-17  0.34999686D-03  0.49920784D-02
 -0.47481246D-17 -0.13403244D-02 -0.77638783D-03 -0.21661901D-17 -0.59017943D-17
 -0.19186123D-04  0.52931606D-03 -0.88060968D-18 -0.32145217D-04 -0.16422536D-02
  0.19194694D-17  0.89703584D-04  0.54305427D-04  0.72235963D-18  0.21416280D-17
MO    5     MO 0.0        OCC NO =    2.0000000  ORB. ENERGY =   -1.238838
 -0.83456163D-02 -0.15551509D-01 -0.26208595D-01 -0.39103008D-01 -0.47364658D-01
 -0.39410925D-01 -0.14637422D-01  0.77706997D-04 -0.15415743D-01 -0.28794847D-01
 -0.49008974D-01 -0.74953818D-01 -0.97481887D-01 -0.98673767D-01 -0.64971672D-01
  0.44411723D-01  0.14267405D-01 -0.16620917D-03  0.29048354D-03  0.16813298D-13
  0.15153075D-13  0.11002115D-13  0.46953420D-04  0.42317022D-04  0.30724902D-04
  0.14628709D-15  0.13184203D-15  0.95725861D-16 -0.39757482D-12  0.22898471D-04
 -0.13292313D-15 -0.20678678D-12  0.13367941D-04 -0.15939073D-16  0.22595170D-14
 -0.59982201D-07  0.19226807D-18  0.79757645D-02  0.80633061D-02 -0.16039071D-01
  0.11600613D-12  0.11282328D-16  0.11259221D-16  0.89343438D-03  0.91210405D-03
 -0.18055384D-02  0.16609866D-12  0.20440124D-17  0.96649663D-17 -0.41333190D-05
 -0.52660478D-05  0.93993668D-05  0.36676844D-14 -0.62179067D-19 -0.50848297D-19
 -0.83916640D-14  0.44732225D-02 -0.86077054D-19 -0.10765944D-13 -0.13410744D-01
 -0.52977588D-18  0.35940936D-13 -0.89239468D-05  0.78800705D-18 -0.52976112D-17
 -0.11897068D-14  0.22708800D-03 -0.55733900D-18 -0.26595534D-14 -0.68033796D-03
 -0.28382062D-18  0.62286737D-14 -0.92603491D-06  0.19558376D-17 -0.49309961D-19
 -0.49440940D-02 -0.92160054D-02 -0.15623395D-01 -0.23658424D-01 -0.29584943D-01
 -0.25469880D-01 -0.97915517D-02  0.42428396D-04 -0.69781589D-01 -0.13103747D+00
 -0.22313420D+00 -0.34953841D+00 -0.46842259D+00 -0.50385166D+00 -0.30251187D+00
  0.19894453D+00  0.11781572D+00  0.45450034D-01  0.35381442D-03 -0.44628786D-14
 -0.43645978D-14 -0.28838743D-14 -0.21419942D+00 -0.20948235D+00 -0.13841385D+00
  0.14006252D-15  0.13697809D-15  0.90507215D-16  0.11886501D-13 -0.47574633D-01
  0.82262475D-16 -0.31175062D-13 -0.18492025D-02 -0.22718474D-16  0.16810541D-13
 -0.10028286D-03  0.23706796D-17 -0.86421626D-02  0.15266267D-01 -0.66241041D-02
  0.31129936D-13 -0.53862002D-16  0.49862431D-17 -0.32578151D-02  0.69157355D-02
 -0.36579203D-02 -0.26808361D-13 -0.27301623D-16 -0.17288616D-16  0.39329658D-03
 -0.11992685D-03 -0.27336972D-03  0.17885903D-13 -0.17691658D-17  0.11708096D-16
 -0.18561907D-16 -0.29204198D-02  0.24831827D-16 -0.19508273D-13  0.54380679D-02
 -0.23151556D-16  0.19563959D-13  0.33231915D-02 -0.51343924D-16  0.47912102D-17
  0.24222363D-15 -0.13565638D-02 -0.92232673D-17  0.76099450D-14  0.55571506D-03
  0.58283769D-17 -0.83366159D-14  0.35139764D-02  0.21841425D-16  0.26415370D-17