 Molden2AIM, Version 4.0.0 (06/02/2016)           Time: Sat Jun 30 01:53:19 2018
GAUSSIAN              8 MOL ORBITALS    204 PRIMITIVES        4 NUCLEI
  B    1    (CENTRE  1)   0.09410647  0.05519134  0.00000000  CHARGE =  5.0
  H    2    (CENTRE  2)  -0.01098309  2.32926508  0.00000000  CHARGE =  1.0
  H    3    (CENTRE  3)   2.01001286 -1.17379771  0.00000000  CHARGE =  1.0
  F    4    (CENTRE  4)  -2.09313813 -1.21065871  0.00000000  CHARGE =  9.0
CENTRE ASSIGNMENTS    1  1  1  1  1  1  1  1  1  1  1  1  1  1  1  1  1  1  1  1
CENTRE ASSIGNMENTS    1  1  1  1  1  1  1  1  1  1  1  1  1  1  1  1  1  1  1  1
CENTRE ASSIGNMENTS    1  1  1  1  1  1  1  1  1  1  1  1  1  1  1  1  1  1  1  1
CENTRE ASSIGNMENTS    1  1  1  1  1  1  1  1  1  1  1  1  1  1  1  2  2  2  2  2
CENTRE ASSIGNMENTS    2  2  2  2  2  2  2  2  2  2  2  2  2  2  2  2  2  2  2  2
CENTRE ASSIGNMENTS    2  2  3  3  3  3  3  3  3  3  3  3  3  3  3  3  3  3  3  3
CENTRE ASSIGNMENTS    3  3  3  3  3  3  3  3  3  4  4  4  4  4  4  4  4  4  4  4
CENTRE ASSIGNMENTS    4  4  4  4  4  4  4  4  4  4  4  4  4  4  4  4  4  4  4  4
CENTRE ASSIGNMENTS    4  4  4  4  4  4  4  4  4  4  4  4  4  4  4  4  4  4  4  4
CENTRE ASSIGNMENTS    4  4  4  4  4  4  4  4  4  4  4  4  4  4  4  4  4  4  4  4
CENTRE ASSIGNMENTS    4  4  4  4
TYPE ASSIGNMENTS      1  1  1  1  1  1  1  1  1  1  1  1  1  1  1  1  1  1  1  2
TYPE ASSIGNMENTS      2  2  3  3  3  4  4  4  2  3  4  2  3  4  2  3  4  5  6  7
TYPE ASSIGNMENTS      8  9 10  5  6  7  8  9 10  5  6  7  8  9 10 11 12 13 17 14
TYPE ASSIGNMENTS     15 18 19 16 20 11 12 13 17 14 15 18 19 16 20  1  1  1  1  1
TYPE ASSIGNMENTS      1  2  3  4  2  3  4  2  3  4  5  6  7  8  9 10  5  6  7  8
TYPE ASSIGNMENTS      9 10  1  1  1  1  1  1  2  3  4  2  3  4  2  3  4  5  6  7
TYPE ASSIGNMENTS      8  9 10  5  6  7  8  9 10  1  1  1  1  1  1  1  1  1  1  1
TYPE ASSIGNMENTS      1  1  1  1  1  1  1  1  2  2  2  3  3  3  4  4  4  2  3  4
TYPE ASSIGNMENTS      2  3  4  2  3  4  5  6  7  8  9 10  5  6  7  8  9 10  5  6
TYPE ASSIGNMENTS      7  8  9 10 11 12 13 17 14 15 18 19 16 20 11 12 13 17 14 15
TYPE ASSIGNMENTS     18 19 16 20
EXPONENTS  0.5473000D+04 0.8209000D+03 0.1868000D+03 0.5283000D+02 0.1708000D+02
EXPONENTS  0.5999000D+01 0.2208000D+01 0.2415000D+00 0.5473000D+04 0.8209000D+03
EXPONENTS  0.1868000D+03 0.5283000D+02 0.1708000D+02 0.5999000D+01 0.2208000D+01
EXPONENTS  0.2415000D+00 0.5879000D+00 0.8610000D-01 0.2914000D-01 0.1205000D+02
EXPONENTS  0.2613000D+01 0.7475000D+00 0.1205000D+02 0.2613000D+01 0.7475000D+00
EXPONENTS  0.1205000D+02 0.2613000D+01 0.7475000D+00 0.2385000D+00 0.2385000D+00
EXPONENTS  0.2385000D+00 0.7698000D-01 0.7698000D-01 0.7698000D-01 0.2096000D-01
EXPONENTS  0.2096000D-01 0.2096000D-01 0.6610000D+00 0.6610000D+00 0.6610000D+00
EXPONENTS  0.6610000D+00 0.6610000D+00 0.6610000D+00 0.1990000D+00 0.1990000D+00
EXPONENTS  0.1990000D+00 0.1990000D+00 0.1990000D+00 0.1990000D+00 0.6040000D-01
EXPONENTS  0.6040000D-01 0.6040000D-01 0.6040000D-01 0.6040000D-01 0.6040000D-01
EXPONENTS  0.4900000D+00 0.4900000D+00 0.4900000D+00 0.4900000D+00 0.4900000D+00
EXPONENTS  0.4900000D+00 0.4900000D+00 0.4900000D+00 0.4900000D+00 0.4900000D+00
EXPONENTS  0.1630000D+00 0.1630000D+00 0.1630000D+00 0.1630000D+00 0.1630000D+00
EXPONENTS  0.1630000D+00 0.1630000D+00 0.1630000D+00 0.1630000D+00 0.1630000D+00
EXPONENTS  0.3387000D+02 0.5095000D+01 0.1159000D+01 0.3258000D+00 0.1027000D+00
EXPONENTS  0.2526000D-01 0.1407000D+01 0.1407000D+01 0.1407000D+01 0.3880000D+00
EXPONENTS  0.3880000D+00 0.3880000D+00 0.1020000D+00 0.1020000D+00 0.1020000D+00
EXPONENTS  0.1057000D+01 0.1057000D+01 0.1057000D+01 0.1057000D+01 0.1057000D+01
EXPONENTS  0.1057000D+01 0.2470000D+00 0.2470000D+00 0.2470000D+00 0.2470000D+00
EXPONENTS  0.2470000D+00 0.2470000D+00 0.3387000D+02 0.5095000D+01 0.1159000D+01
EXPONENTS  0.3258000D+00 0.1027000D+00 0.2526000D-01 0.1407000D+01 0.1407000D+01
EXPONENTS  0.1407000D+01 0.3880000D+00 0.3880000D+00 0.3880000D+00 0.1020000D+00
EXPONENTS  0.1020000D+00 0.1020000D+00 0.1057000D+01 0.1057000D+01 0.1057000D+01
EXPONENTS  0.1057000D+01 0.1057000D+01 0.1057000D+01 0.2470000D+00 0.2470000D+00
EXPONENTS  0.2470000D+00 0.2470000D+00 0.2470000D+00 0.2470000D+00 0.1950000D+05
EXPONENTS  0.2923000D+04 0.6645000D+03 0.1875000D+03 0.6062000D+02 0.2142000D+02
EXPONENTS  0.7950000D+01 0.8815000D+00 0.1950000D+05 0.2923000D+04 0.6645000D+03
EXPONENTS  0.1875000D+03 0.6062000D+02 0.2142000D+02 0.7950000D+01 0.8815000D+00
EXPONENTS  0.2257000D+01 0.3041000D+00 0.9158000D-01 0.4388000D+02 0.9926000D+01
EXPONENTS  0.2930000D+01 0.4388000D+02 0.9926000D+01 0.2930000D+01 0.4388000D+02
EXPONENTS  0.9926000D+01 0.2930000D+01 0.9132000D+00 0.9132000D+00 0.9132000D+00
EXPONENTS  0.2672000D+00 0.2672000D+00 0.2672000D+00 0.7361000D-01 0.7361000D-01
EXPONENTS  0.7361000D-01 0.3107000D+01 0.3107000D+01 0.3107000D+01 0.3107000D+01
EXPONENTS  0.3107000D+01 0.3107000D+01 0.8550000D+00 0.8550000D+00 0.8550000D+00
EXPONENTS  0.8550000D+00 0.8550000D+00 0.8550000D+00 0.2920000D+00 0.2920000D+00
EXPONENTS  0.2920000D+00 0.2920000D+00 0.2920000D+00 0.2920000D+00 0.1917000D+01
EXPONENTS  0.1917000D+01 0.1917000D+01 0.1917000D+01 0.1917000D+01 0.1917000D+01
EXPONENTS  0.1917000D+01 0.1917000D+01 0.1917000D+01 0.1917000D+01 0.7240000D+00
EXPONENTS  0.7240000D+00 0.7240000D+00 0.7240000D+00 0.7240000D+00 0.7240000D+00
EXPONENTS  0.7240000D+00 0.7240000D+00 0.7240000D+00 0.7240000D+00
MO    1     MO 0.0        OCC NO =    2.0000000  ORB. ENERGY =  -24.497722
  0.29603722D-03  0.55164598D-03  0.92967605D-03  0.13870690D-02  0.16801278D-02
  0.13979915D-02  0.51922131D-03 -0.27564368D-05 -0.21953993D-03 -0.41007550D-03
 -0.69795057D-03 -0.10674384D-02 -0.13882669D-02 -0.14052408D-02 -0.92527984D-03
  0.63247982D-03  0.12115379D-03  0.68437376D-03  0.89228486D-04 -0.23723931D-03
 -0.21381321D-03 -0.15524225D-03 -0.13717839D-03 -0.12363276D-03 -0.89765402D-04
 -0.60506300D-18 -0.54531628D-18 -0.39593498D-18 -0.12853334D-02 -0.74603707D-03
  0.12316648D-18 -0.22007685D-03 -0.12756991D-03  0.22819261D-19  0.29510122D-05
  0.17148789D-05  0.69252621D-21  0.40500952D-03 -0.16434421D-03 -0.24066531D-03
  0.99001323D-03 -0.46624137D-19  0.13032528D-19  0.11209376D-03 -0.57042195D-04
 -0.55051568D-04  0.29532936D-03  0.44853175D-19  0.55568999D-19  0.29176140D-05
  0.44571671D-06 -0.33633307D-05  0.43695151D-05 -0.62991607D-21  0.15383540D-20
 -0.51923120D-04 -0.10612694D-04 -0.46512021D-19 -0.52248531D-04 -0.89059252D-04
  0.11139434D-18  0.20801789D-03  0.12089734D-03  0.28141721D-19  0.14137392D-20
 -0.45396190D-05  0.12019623D-05 -0.34838640D-22 -0.47416221D-05 -0.14303222D-04
 -0.77837448D-20  0.18360479D-04  0.10697335D-04  0.78882607D-20 -0.17195357D-20
 -0.39700930D-05 -0.71602263D-05 -0.10557749D-04  0.38399446D-03  0.10138062D-03
 -0.27335377D-04 -0.69166553D-04 -0.75603606D-04  0.12788007D-18  0.74826599D-04
 -0.18829102D-03 -0.14237234D-18  0.39212675D-04 -0.70665024D-05 -0.40080557D-19
 -0.48242371D-04  0.57733088D-04 -0.94907171D-05  0.13092899D-04  0.21810524D-19
  0.22819283D-19  0.40247679D-05 -0.69844519D-05  0.29596840D-05 -0.59008185D-04
 -0.18335531D-19  0.62965253D-19 -0.38247133D-05 -0.68980280D-05 -0.10171138D-04
  0.38187079D-03  0.10048042D-03 -0.27202093D-04 -0.10106391D-03 -0.22246920D-04
  0.30399052D-19 -0.12299862D-03  0.15917063D-03 -0.69482154D-19  0.13742914D-04
  0.37609479D-04 -0.10515719D-19  0.35450950D-04 -0.26528307D-04 -0.89226425D-05
 -0.86575229D-04  0.27669636D-19 -0.77246998D-19 -0.30188262D-04  0.27000426D-04
  0.31878360D-05 -0.20305119D-04  0.28612713D-19 -0.24525314D-19  0.59440504D+00
  0.11079967D+01  0.18783269D+01  0.28443405D+01  0.35568577D+01  0.30621232D+01
  0.11771919D+01 -0.51009654D-02  0.16376051D-03  0.30751324D-03  0.52364202D-03
  0.82028212D-03  0.10992745D-02  0.11824180D-02  0.70992220D-03 -0.46687471D-03
  0.64258554D-01 -0.12069662D-02 -0.10617173D-02  0.49513673D-02  0.48423291D-02
  0.31995315D-02  0.28692886D-02  0.28061016D-02  0.18541100D-02  0.75900627D-17
  0.74229156D-17  0.49046342D-17 -0.78951526D-03 -0.45790027D-03 -0.10124445D-17
 -0.93604101D-03 -0.54035629D-03  0.17005091D-18 -0.69079151D-04 -0.39875553D-04
 -0.14081067D-19  0.68619987D-03  0.21304716D-03 -0.89924703D-03  0.81666210D-03
 -0.12699647D-16  0.39741130D-17 -0.39786085D-03  0.35577514D-04  0.36228334D-03
 -0.75377356D-03  0.61279203D-18 -0.35234608D-18 -0.99141041D-04  0.24566174D-04
  0.74574866D-04 -0.21422923D-03 -0.39452948D-19  0.32061558D-19  0.77947157D-04
 -0.25510826D-05 -0.21630658D-20  0.76591043D-04  0.18750703D-03 -0.37653246D-17
 -0.31043251D-03 -0.17985378D-03  0.37718137D-17  0.37787202D-17 -0.70503313D-04
  0.75516236D-04  0.34539533D-19 -0.71299317D-04 -0.39001468D-03  0.18277532D-18
  0.28280926D-03  0.16346598D-03 -0.28639392D-18 -0.31265778D-18
MO    2     MO 0.0        OCC NO =    2.0000000  ORB. ENERGY =   -6.695874
  0.25537433D+00  0.47587335D+00  0.80197821D+00  0.11965449D+01  0.14493499D+01
  0.12059671D+01  0.44790245D+00 -0.23778199D-02 -0.36141084D-02 -0.67507416D-02
 -0.11489796D-01 -0.17572375D-01 -0.22853917D-01 -0.23133344D-01 -0.15232134D-01
  0.10412004D-01  0.23773796D-01  0.62660117D-02 -0.38270007D-04 -0.18883186D-02
 -0.17018573D-02 -0.12356587D-02 -0.10971314D-02 -0.98879559D-03 -0.71792972D-03
  0.12967118D-16  0.11686685D-16  0.84852911D-17  0.81638512D-05  0.66944611D-05
 -0.18653802D-17 -0.18985571D-03 -0.10955761D-03 -0.97197184D-19  0.19303857D-05
  0.11494285D-05 -0.55459608D-20  0.18851180D-02  0.19586816D-02 -0.38437997D-02
 -0.11384130D-03 -0.54572411D-17 -0.24922545D-18  0.25882703D-03  0.25032234D-03
 -0.50914937D-03  0.89527118D-05 -0.69636625D-18 -0.23783385D-18  0.42259479D-05
 -0.13146028D-05 -0.29113451D-05  0.92291583D-05 -0.29602414D-19 -0.17176852D-19
  0.29246306D-04  0.10099738D-02 -0.73928472D-19  0.21270765D-04 -0.29684066D-02
  0.29475081D-18 -0.10900968D-03 -0.61514717D-04 -0.72965391D-19  0.28829954D-17
  0.35806040D-05  0.86769600D-05  0.27423616D-19  0.40552439D-05 -0.17265958D-04
 -0.18783852D-19 -0.14797056D-04 -0.87649215D-05 -0.63486996D-19  0.10150683D-18
  0.39935888D-04  0.72026019D-04  0.10620232D-03 -0.41234071D-02 -0.23561819D-02
 -0.13857093D-04  0.34090358D-06  0.93816455D-03 -0.70225683D-18 -0.41342461D-03
  0.37374233D-02  0.76145192D-18 -0.44569083D-04  0.55278000D-03  0.30791530D-18
  0.95716550D-03 -0.13927779D-02  0.43561235D-03  0.59742209D-03 -0.63169763D-18
  0.11557857D-17  0.20308275D-03 -0.38586401D-03  0.18278125D-03  0.16046412D-03
 -0.83585156D-20 -0.35629011D-18  0.39569076D-04  0.71364458D-04  0.10522685D-03
 -0.41238418D-02 -0.23568901D-02 -0.13657699D-04  0.81114156D-03 -0.47113474D-03
 -0.27234663D-19  0.30221017D-02 -0.22331684D-02  0.16534360D-17  0.45505646D-03
 -0.31624927D-03  0.36532474D-18 -0.53861454D-03  0.10269858D-03  0.43591596D-03
  0.23327155D-02 -0.15704450D-17  0.69718179D-18 -0.16690228D-03 -0.14899279D-04
  0.18180156D-03  0.59176981D-03 -0.50030195D-18  0.28811876D-18  0.51459328D-03
  0.95922417D-03  0.16261208D-02  0.24624261D-02  0.30792725D-02  0.26509668D-02
  0.10191284D-02 -0.44160502D-05 -0.48225613D-03 -0.90559160D-03 -0.15420663D-02
 -0.24156378D-02 -0.32372388D-02 -0.34820868D-02 -0.20906403D-02  0.13748930D-02
  0.36170807D-03 -0.39273858D-02 -0.29816262D-02  0.21873396D-02  0.21391704D-02
  0.14134403D-02  0.12611313D-02  0.12333588D-02  0.81493234D-03 -0.13437021D-19
 -0.13141113D-19 -0.86828887D-20 -0.10456655D-02 -0.60103766D-03  0.21740580D-18
 -0.30776581D-02 -0.17873957D-02 -0.10786127D-17 -0.29271601D-03 -0.17020345D-03
 -0.86647601D-19  0.11203504D-02 -0.42007892D-03 -0.70027147D-03  0.26701063D-02
  0.31639686D-17  0.20456849D-17 -0.86748185D-03  0.29042712D-03  0.57705473D-03
 -0.20098382D-02 -0.14153701D-17 -0.89143854D-18 -0.54187260D-03  0.12947081D-03
  0.41240179D-03 -0.11746101D-02 -0.88530394D-18 -0.45126638D-18  0.48499334D-03
 -0.13128274D-02 -0.21645452D-17  0.52176430D-03  0.50866935D-02  0.68534363D-17
 -0.19767443D-02 -0.11482113D-02 -0.35980079D-18  0.10205651D-16 -0.14247466D-03
  0.52426190D-03  0.97903104D-18 -0.15325776D-03 -0.19095890D-02 -0.29759803D-17
  0.58068173D-03  0.33680325D-03  0.38887182D-19 -0.46554205D-17
MO    3     MO 0.0        OCC NO =    2.0000000  ORB. ENERGY =   -1.185285
 -0.45947794D-02 -0.85620706D-02 -0.14429457D-01 -0.21528632D-01 -0.26077182D-01
 -0.21698159D-01 -0.80588089D-02  0.42782522D-04 -0.89061561D-02 -0.16635682D-01
 -0.28314015D-01 -0.43303161D-01 -0.56318330D-01 -0.57006917D-01 -0.37536164D-01
  0.25658039D-01  0.80402144D-02  0.54451706D-02  0.92815878D-03 -0.68341685D-01
 -0.61593310D-01 -0.44720737D-01 -0.39561244D-01 -0.35654784D-01 -0.25887685D-01
 -0.21935245D-15 -0.19769257D-15 -0.14353763D-15 -0.38162852D-02 -0.22619422D-02
 -0.35441772D-16  0.15763061D-03  0.87985576D-04 -0.27781298D-17  0.19631084D-04
  0.11183486D-04 -0.18951181D-18  0.99041262D-02 -0.30977916D-03 -0.95943471D-02
  0.17832310D-01 -0.16628434D-16 -0.10619276D-16  0.84879420D-03  0.40093190D-03
 -0.12497261D-02  0.81683512D-03 -0.32241592D-17 -0.47904329D-17  0.46400693D-05
  0.15553875D-04 -0.20193944D-04 -0.18156858D-04 -0.12324038D-18 -0.10654161D-18
 -0.36763002D-03  0.23163013D-02 -0.54905275D-18 -0.38187589D-03 -0.78263500D-02
  0.24327137D-17  0.14847660D-02  0.87744621D-03 -0.78555545D-18  0.97872139D-17
  0.86014730D-05  0.19933142D-03  0.75123901D-19  0.55324407D-05 -0.58071873D-03
 -0.29585787D-18 -0.31336860D-04 -0.17275530D-04  0.70486171D-19 -0.48459650D-18
  0.60348249D-03  0.10884055D-02  0.16048533D-02 -0.61746088D-02 -0.27040763D-02
 -0.34890778D-03 -0.98768913D-03 -0.17958336D-03 -0.10964924D-16 -0.19558744D-02
  0.34060835D-02  0.21882291D-17 -0.10115202D-03  0.36433701D-03  0.15941147D-17
  0.58163492D-03 -0.88311414D-04 -0.49332351D-03  0.42776614D-02 -0.27986614D-17
  0.99294585D-17  0.36018092D-03 -0.40542812D-03  0.45247198D-04  0.19168763D-03
  0.96115759D-18 -0.13923321D-17  0.61089269D-03  0.11017701D-02  0.16245594D-02
 -0.61990101D-02 -0.27193921D-02 -0.35092638D-03 -0.68404699D-03 -0.76099667D-03
  0.40157702D-17  0.20122734D-02 -0.34028170D-02 -0.55143260D-17  0.27028298D-03
 -0.27240926D-03  0.12295624D-17  0.19078918D-02 -0.14292056D-02 -0.47868620D-03
  0.26833869D-02  0.29290281D-18 -0.91183522D-17 -0.13674350D-03  0.86935172D-04
  0.49808329D-04  0.75583671D-03  0.96402440D-18  0.27027559D-17 -0.84752916D-02
 -0.15798311D-01 -0.26782021D-01 -0.40555872D-01 -0.50715261D-01 -0.43661115D-01
 -0.16784927D-01  0.72731835D-04 -0.12529603D+00 -0.23528375D+00 -0.40064764D+00
 -0.62761216D+00 -0.84107413D+00 -0.90468863D+00 -0.54317387D+00  0.35721399D+00
  0.21292489D+00  0.95684086D-01 -0.20149626D-03  0.26671921D+00  0.26084556D+00
  0.17235169D+00  0.15446412D+00  0.15106253D+00  0.99813404D-01  0.10124031D-15
  0.99010813D-16  0.65420631D-16  0.64370502D-01  0.37259838D-01  0.66124662D-16
  0.62844564D-02  0.36799076D-02  0.66669084D-18 -0.17493419D-03 -0.99310338D-04
 -0.89259661D-18  0.13389138D-01 -0.43575495D-02 -0.90315881D-02  0.30788607D-01
  0.24105635D-16 -0.36192961D-16  0.66110018D-02 -0.25513206D-02 -0.40596812D-02
  0.16004881D-01  0.20789619D-16 -0.75968234D-17  0.64215115D-03  0.95550817D-04
 -0.73770196D-03  0.99704945D-03 -0.42310453D-17 -0.45289710D-17  0.15960748D-02
 -0.17855408D-02  0.19849759D-17  0.14787914D-02  0.91480230D-02  0.16393947D-16
 -0.62670158D-02 -0.37914007D-02 -0.22348875D-16  0.20847421D-16  0.68257111D-03
 -0.96903720D-03  0.82912637D-18  0.76529042D-03  0.44911703D-02 -0.34468353D-17
 -0.28130038D-02 -0.15840587D-02  0.95945621D-18 -0.16487249D-16
MO    4     MO 0.0        OCC NO =    2.0000000  ORB. ENERGY =   -0.525711
 -0.64488353D-02 -0.12016982D-01 -0.20251939D-01 -0.30215726D-01 -0.36599679D-01
 -0.30453660D-01 -0.11310648D-01  0.60045850D-04 -0.30108454D-01 -0.56239152D-01
 -0.95719321D-01 -0.14639214D+00 -0.19039166D+00 -0.19271952D+00 -0.12689603D+00
  0.86740439D-01  0.31385134D-01  0.13635935D-01 -0.72821921D-03 -0.67292627D-01
 -0.60647841D-01 -0.44034266D-01 -0.38931001D-01 -0.35086774D-01 -0.25475273D-01
 -0.24992036D-15 -0.22524207D-15 -0.16354035D-15 -0.70727205D-02 -0.40495579D-02
  0.44024002D-16 -0.19195052D-03 -0.10101330D-03 -0.16299553D-16 -0.17943274D-04
 -0.10489469D-04  0.73857452D-17  0.87537542D-02  0.37298739D-02 -0.12483628D-01
  0.88934978D-02  0.71271864D-17  0.28700779D-16  0.12845351D-02  0.83465450D-03
 -0.21191896D-02  0.91167819D-03  0.16262929D-17  0.11431821D-16  0.13696631D-04
  0.12228340D-04 -0.25924971D-04  0.61431751D-05 -0.10158691D-17 -0.60642671D-18
 -0.30059229D-03  0.26772127D-02  0.19173888D-17 -0.37806611D-03 -0.88183336D-02
 -0.76726859D-17  0.12798430D-02  0.78669553D-03  0.19205194D-17  0.12247581D-16
 -0.31028247D-04  0.38837061D-03  0.24449092D-18 -0.40121842D-04 -0.12400912D-02
 -0.70650152D-18  0.13320658D-03  0.74979384D-04 -0.26971236D-19  0.14404247D-17
  0.14120142D-01  0.25466257D-01  0.37549981D-01  0.14854481D-01  0.21247299D-02
  0.24708343D-03 -0.10888601D-02 -0.79559912D-02 -0.52953318D-17 -0.10935156D-02
 -0.25339899D-04 -0.19798871D-17 -0.64068260D-04  0.73463734D-05 -0.18497189D-17
 -0.81447408D-03  0.19542861D-02 -0.11398120D-02  0.18221780D-02 -0.17213624D-17
  0.47870357D-18  0.50788288D-03 -0.52553196D-03  0.17649086D-04 -0.16897568D-03
 -0.15222055D-17  0.15117519D-17  0.14108227D-01  0.25444768D-01  0.37518296D-01
  0.14925613D-01  0.21494146D-02  0.24632681D-03 -0.74906842D-02  0.30423293D-02
  0.63045270D-18 -0.55778608D-03 -0.94723852D-03  0.23077680D-16 -0.13466540D-04
 -0.63777245D-04  0.25520256D-17  0.20574188D-02 -0.94208519D-03 -0.11153336D-02
 -0.15104168D-02 -0.19673872D-16  0.17728171D-16 -0.35009280D-03  0.32405657D-03
  0.26036230D-04  0.81260475D-03 -0.23664792D-17 -0.71130020D-18  0.50559094D-03
  0.94244341D-03  0.15976733D-02  0.24193482D-02  0.30254034D-02  0.26045905D-02
  0.10012997D-02 -0.43387954D-05  0.33979566D-01  0.63807608D-01  0.10865335D+00
  0.17020483D+00  0.22809450D+00  0.24534639D+00  0.14730565D+00 -0.96874392D-01
 -0.63917272D-01 -0.60443372D-01 -0.50760920D-02  0.16781944D+01  0.16412374D+01
  0.10844350D+01  0.97164647D+00  0.95024902D+00  0.62786971D+00 -0.48578832D-16
 -0.47509037D-16 -0.31391230D-16  0.37087504D+00  0.21475125D+00 -0.38198733D-16
  0.47794607D-01  0.27745962D-01  0.84650577D-17  0.66078996D-03  0.38627117D-03
 -0.46786633D-17  0.33673152D-01 -0.44736321D-02 -0.29199519D-01  0.66222126D-01
  0.30918261D-16  0.94023583D-16  0.10159279D-01 -0.19248968D-02 -0.82343827D-02
  0.21204687D-01  0.15212492D-16  0.58337906D-17  0.15391790D-02 -0.43383215D-04
 -0.14957958D-02  0.28109117D-02  0.83466164D-17  0.95182129D-17  0.24794281D-02
 -0.45474461D-02 -0.54818185D-17  0.26309162D-02  0.19519719D-01  0.48052357D-18
 -0.10069200D-01 -0.58773804D-02  0.15964932D-16 -0.62833778D-17  0.94624736D-03
 -0.14149256D-02 -0.13736993D-17  0.10085171D-02  0.64383369D-02  0.76005438D-17
 -0.38472592D-02 -0.21935600D-02 -0.34794459D-17  0.17913879D-17
MO    5     MO 0.0        OCC NO =    2.0000000  ORB. ENERGY =   -0.435613
 -0.68113710D-05 -0.12692544D-04 -0.21390447D-04 -0.31914371D-04 -0.38657212D-04
 -0.32165681D-04 -0.11946501D-04  0.63421462D-07 -0.36339883D-04 -0.67878750D-04
 -0.11552997D-03 -0.17669035D-03 -0.22979628D-03 -0.23260593D-03 -0.15315921D-03
  0.10469277D-03  0.34717808D-05 -0.39592588D-04 -0.19511458D-04 -0.96618064D-01
 -0.87077548D-01 -0.63223947D-01  0.16810875D+00  0.15150891D+00  0.11000529D+00
 -0.58873291D-15 -0.53059869D-15 -0.38524906D-15 -0.15173748D-01  0.26595593D-01
 -0.10021812D-16 -0.55282616D-03  0.95146227D-03 -0.60827944D-17  0.55031064D-04
 -0.96034448D-04 -0.14463001D-17  0.79141490D-02 -0.79700984D-02  0.55949396D-04
 -0.92139540D-02 -0.44504402D-17 -0.43048813D-16 -0.36816466D-02  0.36705811D-02
  0.11065421D-04  0.42452870D-02  0.44365771D-16  0.14997220D-16  0.32984039D-04
 -0.33664437D-04  0.68039883D-06 -0.36155584D-04 -0.64072508D-17 -0.30303919D-18
 -0.21790929D-02  0.11678205D-03  0.41215832D-17  0.62469458D-02  0.11255515D-03
  0.29877617D-16  0.29033284D-03 -0.46290129D-03 -0.42242366D-16 -0.80440920D-16
  0.46375380D-03 -0.84697091D-04 -0.92540105D-18 -0.12042758D-02 -0.75224094D-04
  0.61630797D-17 -0.18698562D-03  0.32931537D-03 -0.33868765D-17  0.25141530D-17
  0.17071931D-01  0.30789930D-01  0.45399734D-01  0.25366914D-01  0.65540064D-02
  0.69175952D-03 -0.29884142D-02 -0.11647254D-01 -0.40814827D-16 -0.57363511D-02
 -0.47085301D-02 -0.22341036D-17  0.27053038D-03 -0.34270175D-03  0.10287144D-16
 -0.17510038D-02  0.28865886D-02 -0.11355848D-02  0.60520175D-02 -0.23271484D-17
  0.38468005D-16  0.22527005D-03  0.61685809D-03 -0.84212814D-03  0.13806686D-02
 -0.66273868D-17  0.20697195D-17 -0.16980769D-01 -0.30625516D-01 -0.45157306D-01
 -0.25161096D-01 -0.64439255D-02 -0.67776401D-03  0.11534526D-01 -0.31634770D-02
 -0.21123341D-16  0.69250732D-02  0.25999046D-02 -0.64185303D-17  0.15351394D-03
 -0.41832368D-03  0.96981091D-17 -0.42971972D-02  0.32158560D-02  0.10813412D-02
  0.98091217D-03  0.48280129D-16 -0.69433135D-17 -0.10967781D-02  0.25993753D-03
  0.83684057D-03 -0.33828787D-03 -0.11469396D-16 -0.33955837D-17 -0.12079830D-04
 -0.22517326D-04 -0.38172403D-04 -0.57804269D-04 -0.72284441D-04 -0.62230170D-04
 -0.23923549D-04  0.10366466D-06 -0.49730627D-05 -0.93385310D-05 -0.15901908D-04
 -0.24910244D-04 -0.33382658D-04 -0.35907550D-04 -0.21558846D-04  0.14178004D-04
  0.10815198D-04  0.10167428D-03  0.28605962D-04 -0.10726596D+01 -0.10490376D+01
 -0.69314352D+00  0.18466301D+01  0.18059639D+01  0.11932767D+01 -0.94547133D-14
 -0.92465031D-14 -0.61095556D-14 -0.23753205D+00  0.40895334D+00 -0.21562457D-14
 -0.42527058D-01  0.73389866D-01 -0.33116040D-15 -0.79787050D-03  0.13818374D-02
 -0.34093452D-16 -0.35845762D-01  0.35832264D-01  0.13498113D-04  0.40900944D-01
 -0.26136984D-15  0.29087261D-15 -0.13608192D-01  0.13587099D-01  0.21092772D-04
  0.15650795D-01 -0.10849483D-15 -0.72297595D-16 -0.41385943D-02  0.41338710D-02
  0.47233058D-05  0.47759264D-02 -0.10466704D-16  0.16942644D-16 -0.81240825D-02
  0.11492599D-02  0.64279805D-16  0.21986171D-01  0.85117287D-03 -0.10474136D-15
  0.23860766D-02 -0.42989527D-02 -0.88098050D-16 -0.35635670D-15 -0.32424776D-02
  0.21041220D-03  0.55120510D-17  0.91579803D-02  0.24607684D-03 -0.27174309D-16
  0.56945234D-03 -0.87731343D-03  0.10638156D-16 -0.22091143D-16
MO    6     MO 0.0        OCC NO =    2.0000000  ORB. ENERGY =   -0.422507
  0.48075861D-16  0.89586219D-16  0.15097756D-15  0.22525728D-15  0.27284944D-15
  0.22703106D-15  0.84320517D-16 -0.44763990D-18 -0.41481383D-15 -0.77482484D-15
 -0.13187558D-14 -0.20168915D-14 -0.26230870D-14 -0.26551586D-14 -0.17482873D-14
  0.11950509D-14  0.41418215D-15 -0.36191874D-15  0.32564500D-15  0.29328632D-14
  0.26432587D-14  0.19191772D-14  0.29288967D-14  0.26396839D-14  0.19165817D-14
  0.11587434D+00  0.10443237D+00  0.75824673D-01  0.58611049D-15 -0.46864035D-15
  0.21319896D-01  0.13500090D-16 -0.50475135D-15  0.29768968D-03  0.27149234D-16
 -0.27083451D-16 -0.99928326D-05 -0.20665398D-15  0.10926780D-15  0.97386175D-16
 -0.61803880D-15 -0.27386973D-01 -0.15806288D-01  0.23645199D-15 -0.24719801D-15
  0.10746014D-16 -0.31681122D-15  0.57510879D-03  0.34101473D-03  0.25194765D-16
 -0.22924637D-16 -0.22701273D-17 -0.16991587D-16  0.88961406D-04  0.51633879D-04
  0.14463352D-16 -0.69166651D-16 -0.16020881D-02  0.32277127D-16  0.19386003D-15
  0.43632357D-02 -0.75667182D-16  0.13639920D-16  0.44302879D-03  0.70113833D-02
 -0.20762393D-16  0.25127707D-17  0.18088956D-03  0.55966919D-16 -0.28782609D-17
 -0.47674355D-03  0.63202600D-17 -0.46600511D-17 -0.65925127D-04 -0.71057919D-03
  0.50674975D-15  0.91394404D-15  0.13476099D-14  0.16787481D-14  0.20008738D-14
  0.20959231D-15 -0.27392751D-16 -0.59587452D-15  0.29272275D-02 -0.24458664D-16
 -0.52455874D-15  0.25005699D-02  0.84731115D-16 -0.24525635D-15 -0.85114288D-04
 -0.14306328D-15  0.37084546D-15 -0.22778218D-15 -0.22776191D-15 -0.20479937D-02
 -0.61651808D-02 -0.39113783D-16 -0.10864186D-16  0.49977968D-16 -0.44761052D-16
  0.44885835D-04  0.37378963D-03  0.48121566D-15  0.86789225D-15  0.12797066D-14
  0.45401207D-15 -0.70614173D-15 -0.40901359D-15 -0.25716038D-15  0.19085499D-15
  0.29753682D-02  0.32819006D-15  0.20533250D-15  0.25149763D-02  0.77950559D-16
 -0.47734463D-16 -0.84427581D-04 -0.23498706D-15  0.12726677D-15  0.10772029D-15
 -0.55760371D-15 -0.64002907D-02  0.13613898D-02  0.95610769D-17  0.18960147D-16
 -0.28521224D-16  0.16588907D-16  0.35267202D-03 -0.14688758D-03  0.11213585D-15
  0.20902608D-15  0.35435059D-15  0.53659123D-15  0.67100921D-15  0.57767643D-15
  0.22207991D-15 -0.96230860D-18 -0.15947997D-15 -0.29947514D-15 -0.50995452D-15
 -0.79884073D-15 -0.10705406D-14 -0.11515107D-14 -0.69136552D-15  0.45467105D-15
 -0.28069217D-16  0.17766307D-16 -0.61870586D-15 -0.26216038D-13 -0.25638713D-13
 -0.16940582D-13 -0.30440633D-14 -0.29770274D-14 -0.19670479D-14  0.24826519D+01
  0.24279794D+01  0.16042686D+01 -0.54426547D-14 -0.10965904D-15  0.55625230D+00
 -0.75451977D-15 -0.79396458D-15  0.91517201D-01 -0.45930757D-16 -0.38938531D-16
  0.23504771D-02 -0.12649640D-14 -0.32816743D-15  0.15931314D-14  0.12739344D-15
  0.65022651D-01  0.37519742D-01 -0.38958889D-16  0.98732330D-16 -0.59773440D-16
 -0.18108447D-17  0.28072727D-01  0.16325430D-01 -0.17872017D-16 -0.47901706D-16
  0.65773723D-16 -0.17983560D-15  0.71775993D-02  0.41757344D-02 -0.19915921D-15
  0.20860951D-15 -0.40869406D-02  0.83809536D-15 -0.15894037D-16  0.12595393D-01
 -0.24061772D-15 -0.60993449D-15 -0.33457089D-03  0.21923997D-01 -0.11877878D-15
  0.45808491D-16 -0.22973232D-02  0.98821232D-16  0.13122473D-16  0.70402994D-02
  0.25751512D-15 -0.15054795D-15 -0.14832986D-03  0.12843507D-01
MO    7     MO 0.0        OCC NO =    2.0000000  ORB. ENERGY =   -0.416459
 -0.28320572D-02 -0.52773532D-02 -0.88937997D-02 -0.13269476D-01 -0.16073040D-01
 -0.13373967D-01 -0.49671607D-02  0.26369612D-04 -0.20363998D-01 -0.38037622D-01
 -0.64740224D-01 -0.99013029D-01 -0.12877232D+00 -0.13034678D+00 -0.85826743D-01
  0.58667314D-01  0.18273956D-01  0.97402384D-02 -0.12041528D-02  0.20349154D+00
  0.18339784D+00  0.13315873D+00  0.11748373D+00  0.10588284D+00  0.76877811D-01
 -0.19528779D-14 -0.17600417D-14 -0.12779044D-14  0.36512742D-01  0.21269598D-01
 -0.42245384D-15 -0.39334865D-05  0.13921193D-04  0.28150516D-16 -0.29069435D-05
 -0.39752665D-06 -0.17934351D-16 -0.97975606D-02  0.95182954D-02  0.27926521D-03
 -0.33468995D-01  0.54731158D-15  0.86736108D-16 -0.12016382D-02  0.16103603D-02
 -0.40872214D-03 -0.49143627D-02 -0.40566781D-16 -0.16564150D-16 -0.31312316D-04
  0.25544263D-04  0.57680533D-05 -0.96712120D-04 -0.13436834D-18 -0.43764003D-18
  0.57773811D-03  0.37407830D-03  0.26836952D-16  0.51625775D-03  0.12698988D-03
 -0.80174268D-16 -0.22494721D-02 -0.12492248D-02 -0.33658833D-18 -0.10756494D-15
  0.29537244D-04  0.95254423D-04 -0.19614259D-17  0.40072736D-04 -0.20612548D-03
  0.79110328D-17 -0.12868447D-03 -0.79637791D-04 -0.20267551D-17  0.15475336D-16
  0.28157991D-01  0.50784096D-01  0.74881120D-01  0.46043937D-01  0.14270050D-01
  0.50362399D-03  0.50433277D-02 -0.13236566D-01 -0.60299673D-16  0.52827952D-02
 -0.52840986D-02 -0.46166535D-16  0.85175769D-03 -0.10523539D-02  0.22225740D-16
 -0.11485076D-02  0.24390514D-02 -0.12905438D-02 -0.92429657D-02  0.33801213D-16
  0.12542614D-15 -0.20559278D-03  0.43274838D-03 -0.22715560D-03 -0.28391469D-03
  0.26995943D-17 -0.12791075D-16  0.28112562D-01  0.50702164D-01  0.74760311D-01
  0.46069234D-01  0.14328528D-01  0.51923029D-03 -0.89131307D-02  0.10966400D-01
 -0.18652314D-16 -0.20377044D-02  0.71905442D-02  0.14452498D-16 -0.48849368D-03
  0.12711731D-02  0.29683052D-16 -0.24093411D-02  0.36820732D-02 -0.12727321D-02
 -0.76646334D-02  0.95395665D-16 -0.55895467D-18  0.16792051D-03  0.70459044D-04
 -0.23837956D-03 -0.66801316D-03 -0.29866313D-16  0.13107681D-16 -0.18303992D-02
 -0.34119433D-02 -0.57840827D-02 -0.87588060D-02 -0.10952918D-01 -0.94294418D-02
 -0.36250217D-02  0.15707812D-04 -0.17715331D-02 -0.33266254D-02 -0.56646694D-02
 -0.88736711D-02 -0.11891763D-01 -0.12791195D-01 -0.76798165D-02  0.50505704D-02
  0.40060294D-02  0.16629472D-01 -0.12434953D-02 -0.11800799D+01 -0.11540924D+01
 -0.76255765D+00 -0.69037542D+00 -0.67517208D+00 -0.44611474D+00 -0.43043600D-13
 -0.42095701D-13 -0.27814410D-13 -0.26382398D+00 -0.15430147D+00 -0.96271919D-14
 -0.35057363D-01 -0.20629757D-01 -0.16232872D-14 -0.12617543D-02 -0.73852989D-03
 -0.29109608D-16 -0.20175651D-01  0.37050879D-02  0.16470563D-01 -0.41902078D-01
 -0.11299758D-14 -0.70674414D-15 -0.48686208D-02  0.16684366D-02  0.32001842D-02
 -0.11561303D-01 -0.49054514D-15 -0.28063783D-15 -0.88436419D-03  0.83748747D-04
  0.80061544D-03 -0.17755717D-02 -0.12909471D-15 -0.83897137D-16 -0.16106131D-02
  0.46045357D-02  0.81857212D-16 -0.15965779D-02 -0.17691957D-01 -0.22335404D-15
  0.64284173D-02  0.38783500D-02 -0.22217597D-16 -0.40091911D-15 -0.32616352D-03
  0.33134494D-03  0.36439792D-16 -0.41363586D-03 -0.17614408D-02 -0.11792573D-15
  0.13921264D-02  0.76740599D-03  0.86063585D-17 -0.21829187D-15
MO    8     MO 0.0        OCC NO =    2.0000000  ORB. ENERGY =   -0.298234
 -0.83924774D-05 -0.15638832D-04 -0.26355758D-04 -0.39322574D-04 -0.47630613D-04
 -0.39632219D-04 -0.14719612D-04  0.78143326D-07 -0.27961538D-04 -0.52228959D-04
 -0.88893951D-04 -0.13595349D-03 -0.17681558D-03 -0.17897745D-03 -0.11784757D-03
  0.80555318D-04  0.24302470D-04  0.20352077D-03  0.17540585D-05  0.11626515D+00
  0.10478459D+00  0.76080405D-01 -0.20050876D+00 -0.18070960D+00 -0.13120689D+00
  0.10630893D-16  0.95811492D-17  0.69565357D-17  0.30779677D-01 -0.53292311D-01
  0.40335618D-16  0.99480312D-03 -0.17405248D-02  0.13541679D-16  0.14919184D-04
 -0.24908642D-04  0.12383399D-16  0.22456908D-01 -0.22364601D-01 -0.92306450D-04
 -0.25840135D-01  0.53116367D-16 -0.92847994D-16  0.19610365D-02 -0.19258724D-02
 -0.35164086D-04 -0.22844884D-02  0.12566747D-16  0.13099368D-16 -0.36788786D-05