 Molden2AIM, Version 4.0.0 (06/02/2016)           Time: Sat Jun 30 01:53:10 2018
GAUSSIAN              4 MOL ORBITALS    156 PRIMITIVES        4 NUCLEI
  B    1    (CENTRE  1)   0.00000000 -0.00000756  0.00000000  CHARGE =  5.0
  H    2    (CENTRE  2)   0.00000000  2.27297014  0.00000000  CHARGE =  1.0
  H    3    (CENTRE  3)   1.96846723 -1.13648129  0.00000000  CHARGE =  1.0
  H    4    (CENTRE  4)  -1.96846723 -1.13648129  0.00000000  CHARGE =  1.0
CENTRE ASSIGNMENTS    1  1  1  1  1  1  1  1  1  1  1  1  1  1  1  1  1  1  1  1
CENTRE ASSIGNMENTS    1  1  1  1  1  1  1  1  1  1  1  1  1  1  1  1  1  1  1  1
CENTRE ASSIGNMENTS    1  1  1  1  1  1  1  1  1  1  1  1  1  1  1  1  1  1  1  1
CENTRE ASSIGNMENTS    1  1  1  1  1  1  1  1  1  1  1  1  1  1  1  2  2  2  2  2
CENTRE ASSIGNMENTS    2  2  2  2  2  2  2  2  2  2  2  2  2  2  2  2  2  2  2  2
CENTRE ASSIGNMENTS    2  2  3  3  3  3  3  3  3  3  3  3  3  3  3  3  3  3  3  3
CENTRE ASSIGNMENTS    3  3  3  3  3  3  3  3  3  4  4  4  4  4  4  4  4  4  4  4
CENTRE ASSIGNMENTS    4  4  4  4  4  4  4  4  4  4  4  4  4  4  4  4
TYPE ASSIGNMENTS      1  1  1  1  1  1  1  1  1  1  1  1  1  1  1  1  1  1  1  2
TYPE ASSIGNMENTS      2  2  3  3  3  4  4  4  2  3  4  2  3  4  2  3  4  5  6  7
TYPE ASSIGNMENTS      8  9 10  5  6  7  8  9 10  5  6  7  8  9 10 11 12 13 17 14
TYPE ASSIGNMENTS     15 18 19 16 20 11 12 13 17 14 15 18 19 16 20  1  1  1  1  1
TYPE ASSIGNMENTS      1  2  3  4  2  3  4  2  3  4  5  6  7  8  9 10  5  6  7  8
TYPE ASSIGNMENTS      9 10  1  1  1  1  1  1  2  3  4  2  3  4  2  3  4  5  6  7
TYPE ASSIGNMENTS      8  9 10  5  6  7  8  9 10  1  1  1  1  1  1  2  3  4  2  3
TYPE ASSIGNMENTS      4  2  3  4  5  6  7  8  9 10  5  6  7  8  9 10
EXPONENTS  0.5473000D+04 0.8209000D+03 0.1868000D+03 0.5283000D+02 0.1708000D+02
EXPONENTS  0.5999000D+01 0.2208000D+01 0.2415000D+00 0.5473000D+04 0.8209000D+03
EXPONENTS  0.1868000D+03 0.5283000D+02 0.1708000D+02 0.5999000D+01 0.2208000D+01
EXPONENTS  0.2415000D+00 0.5879000D+00 0.8610000D-01 0.2914000D-01 0.1205000D+02
EXPONENTS  0.2613000D+01 0.7475000D+00 0.1205000D+02 0.2613000D+01 0.7475000D+00
EXPONENTS  0.1205000D+02 0.2613000D+01 0.7475000D+00 0.2385000D+00 0.2385000D+00
EXPONENTS  0.2385000D+00 0.7698000D-01 0.7698000D-01 0.7698000D-01 0.2096000D-01
EXPONENTS  0.2096000D-01 0.2096000D-01 0.6610000D+00 0.6610000D+00 0.6610000D+00
EXPONENTS  0.6610000D+00 0.6610000D+00 0.6610000D+00 0.1990000D+00 0.1990000D+00
EXPONENTS  0.1990000D+00 0.1990000D+00 0.1990000D+00 0.1990000D+00 0.6040000D-01
EXPONENTS  0.6040000D-01 0.6040000D-01 0.6040000D-01 0.6040000D-01 0.6040000D-01
EXPONENTS  0.4900000D+00 0.4900000D+00 0.4900000D+00 0.4900000D+00 0.4900000D+00
EXPONENTS  0.4900000D+00 0.4900000D+00 0.4900000D+00 0.4900000D+00 0.4900000D+00
EXPONENTS  0.1630000D+00 0.1630000D+00 0.1630000D+00 0.1630000D+00 0.1630000D+00
EXPONENTS  0.1630000D+00 0.1630000D+00 0.1630000D+00 0.1630000D+00 0.1630000D+00
EXPONENTS  0.3387000D+02 0.5095000D+01 0.1159000D+01 0.3258000D+00 0.1027000D+00
EXPONENTS  0.2526000D-01 0.1407000D+01 0.1407000D+01 0.1407000D+01 0.3880000D+00
EXPONENTS  0.3880000D+00 0.3880000D+00 0.1020000D+00 0.1020000D+00 0.1020000D+00
EXPONENTS  0.1057000D+01 0.1057000D+01 0.1057000D+01 0.1057000D+01 0.1057000D+01
EXPONENTS  0.1057000D+01 0.2470000D+00 0.2470000D+00 0.2470000D+00 0.2470000D+00
EXPONENTS  0.2470000D+00 0.2470000D+00 0.3387000D+02 0.5095000D+01 0.1159000D+01
EXPONENTS  0.3258000D+00 0.1027000D+00 0.2526000D-01 0.1407000D+01 0.1407000D+01
EXPONENTS  0.1407000D+01 0.3880000D+00 0.3880000D+00 0.3880000D+00 0.1020000D+00
EXPONENTS  0.1020000D+00 0.1020000D+00 0.1057000D+01 0.1057000D+01 0.1057000D+01
EXPONENTS  0.1057000D+01 0.1057000D+01 0.1057000D+01 0.2470000D+00 0.2470000D+00
EXPONENTS  0.2470000D+00 0.2470000D+00 0.2470000D+00 0.2470000D+00 0.3387000D+02
EXPONENTS  0.5095000D+01 0.1159000D+01 0.3258000D+00 0.1027000D+00 0.2526000D-01
EXPONENTS  0.1407000D+01 0.1407000D+01 0.1407000D+01 0.3880000D+00 0.3880000D+00
EXPONENTS  0.3880000D+00 0.1020000D+00 0.1020000D+00 0.1020000D+00 0.1057000D+01
EXPONENTS  0.1057000D+01 0.1057000D+01 0.1057000D+01 0.1057000D+01 0.1057000D+01
EXPONENTS  0.2470000D+00 0.2470000D+00 0.2470000D+00 0.2470000D+00 0.2470000D+00
EXPONENTS  0.2470000D+00
MO    1     MO 0.0        OCC NO =    2.0000000  ORB. ENERGY =   -6.652110
  0.25539979D+00  0.47592079D+00  0.80205817D+00  0.11966642D+01  0.14494944D+01
  0.12060873D+01  0.44794710D+00 -0.23780570D-02 -0.36351354D-02 -0.67900177D-02
 -0.11556644D-01 -0.17674612D-01 -0.22986882D-01 -0.23267935D-01 -0.15320755D-01
  0.10472582D-01  0.23759860D-01  0.62937051D-02 -0.43080119D-03  0.30779795D-15
  0.27740456D-15  0.20141370D-15 -0.38132460D-05 -0.34367084D-05 -0.24952732D-05
 -0.57978906D-17 -0.52253800D-17 -0.37939647D-17 -0.11573999D-15 -0.43949087D-05
  0.49895118D-18 -0.67452819D-15  0.17299102D-06  0.11952748D-18 -0.43594588D-16
  0.85880642D-09  0.96704812D-21  0.19226707D-02  0.19156148D-02 -0.38382855D-02
  0.13140866D-15  0.10167432D-17  0.87635470D-18  0.25122633D-03  0.25048024D-03
 -0.50170657D-03  0.10694863D-14  0.46414095D-19 -0.10735972D-18  0.24461209D-06
  0.24800529D-06 -0.49261738D-06  0.12861697D-15  0.80166927D-20  0.68670584D-21
  0.11759829D-15  0.92122943D-03  0.10557076D-18 -0.33164217D-15 -0.27642976D-02
 -0.57176307D-18 -0.21152705D-16  0.60928599D-06  0.25505080D-18 -0.39208153D-18
 -0.49280145D-17  0.21265311D-04 -0.13289633D-19 -0.25313011D-16 -0.63679905D-04
 -0.40307060D-19  0.40097055D-16 -0.11602644D-06  0.80175958D-19  0.26023817D-20
  0.65099529D-04  0.11740968D-03  0.17312051D-03 -0.40603577D-02 -0.25914635D-02
  0.75951647D-04  0.43285269D-15  0.80986765D-03 -0.23823248D-18 -0.49168369D-15
  0.37727163D-02 -0.22451723D-18 -0.25919648D-15  0.57888207D-03 -0.10160551D-18
  0.93650410D-03 -0.14963525D-02  0.55984842D-03 -0.34027432D-15 -0.23502819D-21
  0.50627078D-18  0.24314049D-03 -0.42261883D-03  0.17947835D-03  0.25037409D-15
 -0.13454196D-19 -0.73040627D-19  0.65331443D-04  0.11782795D-03  0.17373724D-03
 -0.40671841D-02 -0.25921788D-02  0.75941127D-04  0.70288631D-03 -0.40605173D-03
 -0.30112463D-18  0.32715946D-02 -0.18887744D-02  0.12497850D-18  0.50160110D-03
 -0.28971770D-03 -0.14538581D-18 -0.88950903D-03  0.32835812D-03  0.56115091D-03
  0.21122477D-02 -0.65010823D-18  0.25751249D-18 -0.25636313D-03  0.76834783D-04
  0.17952835D-03  0.57676614D-03  0.19980299D-18  0.15967417D-18  0.65331443D-04
  0.11782795D-03  0.17373724D-03 -0.40671841D-02 -0.25921788D-02  0.75941127D-04
 -0.70288631D-03 -0.40605173D-03  0.48932031D-18 -0.32715946D-02 -0.18887744D-02
  0.18407852D-18 -0.50160110D-03 -0.28971770D-03 -0.59872279D-19 -0.88950903D-03
  0.32835812D-03  0.56115091D-03 -0.21122477D-02  0.18036862D-17  0.58984591D-18
 -0.25636313D-03  0.76834783D-04  0.17952835D-03 -0.57676614D-03 -0.20916094D-18
  0.18890768D-18
MO    2     MO 0.0        OCC NO =    2.0000000  ORB. ENERGY =   -0.482636
 -0.72921057D-02 -0.13588361D-01 -0.22900147D-01 -0.34166832D-01 -0.41385571D-01
 -0.34435878D-01 -0.12789664D-01  0.67897638D-04 -0.38388377D-01 -0.71705101D-01
 -0.12204244D+00 -0.18665045D+00 -0.24274998D+00 -0.24571801D+00 -0.16179285D+00
  0.11059434D+00  0.37453135D-01  0.12002912D-01 -0.21848042D-02  0.92211595D-15
  0.83106195D-15  0.60340487D-15 -0.12298142D-03 -0.11083767D-03 -0.80475335D-04
 -0.52175018D-16 -0.47023015D-16 -0.34141758D-16  0.13167547D-13 -0.51061652D-04
 -0.33315276D-16  0.11478802D-13  0.14377928D-04 -0.87650434D-17  0.17035112D-14
  0.18605437D-06  0.36894379D-19  0.57857266D-02  0.57165783D-02 -0.11502305D-01
 -0.50928298D-14  0.14927342D-17  0.91557204D-18  0.10219352D-02  0.99719155D-03
 -0.20191268D-02 -0.76482842D-14  0.68842925D-17  0.23982609D-17 -0.25614002D-05
 -0.20792390D-05  0.46406392D-05 -0.16113894D-14  0.12374452D-20 -0.13291711D-18
  0.20963860D-15  0.25330434D-02  0.11642737D-17  0.14391512D-15 -0.75437772D-02
 -0.74836951D-17 -0.77283092D-15 -0.55352945D-04  0.39908741D-17 -0.87089264D-17
  0.55271267D-16  0.33177400D-03  0.41897977D-18 -0.17106736D-16 -0.99078944D-03
  0.11136167D-18 -0.14870707D-15 -0.45325573D-05 -0.13683010D-17 -0.10456030D-17
  0.23974195D-01  0.43238447D-01  0.63755065D-01  0.34079342D-01  0.92597886D-02
  0.54785949D-03 -0.16261957D-14 -0.12992467D-01 -0.16424504D-16  0.29974098D-14
 -0.41741070D-02 -0.10366020D-16  0.28445511D-14 -0.59757283D-03  0.71879418D-17
 -0.19724574D-02  0.38472796D-02 -0.18748223D-02  0.79514287D-15 -0.18205625D-17
  0.25244123D-16  0.28717864D-03 -0.23345617D-03 -0.53722466D-04 -0.19058915D-14
 -0.65549119D-18 -0.34306561D-17  0.24008361D-01  0.43300068D-01  0.63845926D-01
  0.34109898D-01  0.92949526D-02  0.55087258D-03 -0.11242371D-01  0.65110073D-02
 -0.11898529D-16 -0.36392562D-02  0.20552554D-02 -0.77105699D-17 -0.51580458D-03
  0.28888035D-03  0.21908479D-17  0.24081158D-02 -0.53878516D-03 -0.18693307D-02
 -0.50236471D-02  0.11430140D-16 -0.23618288D-17 -0.92957922D-04  0.15577303D-03
 -0.62815113D-04  0.45841324D-03 -0.25228541D-17  0.17988533D-18  0.24008361D-01
  0.43300068D-01  0.63845926D-01  0.34109898D-01  0.92949526D-02  0.55087258D-03
  0.11242371D-01  0.65110073D-02  0.29754581D-17  0.36392562D-02  0.20552554D-02
  0.12745938D-16  0.51580458D-03  0.28888035D-03  0.60978468D-17  0.24081158D-02
 -0.53878516D-03 -0.18693307D-02  0.50236471D-02  0.36033841D-17  0.18742606D-16
 -0.92957922D-04  0.15577303D-03 -0.62815113D-04 -0.45841324D-03  0.39358483D-17
 -0.21110476D-17
MO    3     MO 0.0        OCC NO =    2.0000000  ORB. ENERGY =   -0.321280
  0.58219977D-16  0.10848911D-15  0.18283416D-15  0.27278707D-15  0.33042129D-15
  0.27493513D-15  0.10211234D-15 -0.54209293D-18 -0.63336186D-16 -0.11830476D-15
 -0.20135530D-15 -0.30795070D-15 -0.40050816D-15 -0.40540505D-15 -0.26693867D-15
  0.18246731D-15  0.45247757D-14  0.19605008D-13  0.30993246D-14  0.29493811D+00
  0.26581456D+00  0.19299861D+00  0.16070095D-11  0.14483260D-11  0.10515786D-11
 -0.65935073D-15 -0.59424339D-15 -0.43145924D-15  0.68333860D-01  0.42978353D-12
 -0.19770333D-15  0.18987202D-02  0.39047498D-13 -0.24005453D-16 -0.82719387D-05
  0.34725381D-14  0.10261327D-16 -0.10219096D-12  0.10098728D-12  0.12036749D-14
 -0.32923188D-01  0.12822520D-15 -0.49192373D-15 -0.32600913D-13  0.31436931D-13
  0.11639820D-14 -0.75102682D-02 -0.53308036D-16 -0.18939582D-16 -0.19226386D-14
  0.19535260D-14 -0.30887387D-16 -0.10914588D-03 -0.24899316D-16 -0.61447322D-18
  0.53470035D-03  0.35948684D-14  0.58196809D-16  0.71720175D-03  0.88220347D-14
  0.39949672D-16 -0.23213028D-02 -0.19606640D-13 -0.21454010D-15 -0.37437607D-16
  0.43806680D-04  0.98954536D-16 -0.15893610D-18  0.51778876D-04  0.16555416D-14
 -0.10544701D-16 -0.18319891D-03 -0.19524052D-14  0.11021510D-16 -0.41826602D-17
  0.24063342D-12  0.43399228D-12  0.63992136D-12  0.32882985D-12  0.45636345D-13
 -0.31780524D-13  0.80091288D-02 -0.10377938D-12 -0.27232906D-15  0.91006538D-02
  0.35221102D-13  0.22427239D-15  0.78805142D-03  0.31051984D-14  0.21354442D-16
 -0.79658858D-14 -0.23468422D-14  0.10312728D-13 -0.13094565D-01 -0.13071902D-14
 -0.41260543D-15  0.40590614D-15  0.59558159D-15 -0.10014877D-14 -0.25598274D-05
  0.11131810D-15  0.59219677D-17  0.38065372D-01  0.68652466D-01  0.10122802D+00
  0.57971324D-01  0.24946914D-01  0.52265808D-03 -0.10675257D-01  0.10819013D-01
 -0.36116541D-15  0.19697842D-02  0.42184464D-02  0.72157513D-16 -0.15891942D-02
  0.13816231D-02  0.46689729D-16 -0.26418521D-02  0.18866339D-02  0.75521821D-03
 -0.56537775D-02  0.10421633D-14 -0.63894932D-15  0.35231313D-03  0.34943520D-04
 -0.38725665D-03 -0.56529206D-03 -0.66289809D-16  0.57521732D-16 -0.38065372D-01
 -0.68652466D-01 -0.10122802D+00 -0.57971324D-01 -0.24946914D-01 -0.52265808D-03
 -0.10675257D-01 -0.10819013D-01 -0.24024466D-16  0.19697842D-02 -0.42184464D-02
 -0.53520987D-16 -0.15891942D-02 -0.13816231D-02 -0.83589020D-16  0.26418521D-02
 -0.18866339D-02 -0.75521821D-03 -0.56537775D-02 -0.48539515D-16  0.38323930D-16
 -0.35231313D-03 -0.34943520D-04  0.38725665D-03 -0.56529206D-03 -0.29078604D-16
 -0.39104602D-16
MO    4     MO 0.0        OCC NO =    2.0000000  ORB. ENERGY =   -0.321271
 -0.55295759D-05 -0.10304003D-04 -0.17365094D-04 -0.25908578D-04 -0.31382520D-04
 -0.26112595D-04 -0.96983536D-05  0.51486520D-07 -0.19443509D-04 -0.36318253D-04
 -0.61813850D-04 -0.94537462D-04 -0.12295158D-03 -0.12445487D-03 -0.81947220D-04
  0.56015446D-04  0.55228539D-04  0.36327434D-03 -0.95778881D-05 -0.16115421D-11
 -0.14524109D-11 -0.10545445D-11  0.29482807D+00  0.26571538D+00  0.19292660D+00
 -0.41774357D-16 -0.37649364D-16 -0.27335879D-16 -0.32014150D-12  0.68462991D-01
  0.11470372D-15  0.14271946D-13  0.18890173D-02 -0.28985096D-16  0.13064704D-14
 -0.84199536D-05 -0.53900926D-18 -0.16441563D-01  0.16507868D-01 -0.66304918D-04
  0.15857560D-12  0.54824774D-16  0.33724949D-15 -0.37582538D-02  0.37908085D-02
 -0.32554729D-04  0.23639432D-13 -0.13346844D-17 -0.40722036D-16 -0.53891005D-04
  0.55331983D-04 -0.14409783D-05 -0.12209485D-14 -0.17277685D-17 -0.25703628D-17
 -0.14052331D-14  0.56379713D-03  0.12556395D-17 -0.19949303D-14  0.64951563D-03
 -0.32963767D-17  0.62106296D-14 -0.23409070D-02 -0.47054174D-18  0.50812327D-17
 -0.43699061D-16  0.48224769D-04  0.89226293D-18  0.29126900D-15  0.32769617D-04
 -0.39137023D-17 -0.16017182D-15 -0.17744392D-03  0.12369135D-17  0.11630030D-16
  0.43971842D-01  0.79305028D-01  0.11693522D+00  0.66815226D-01  0.28672679D-01
  0.60696383D-03 -0.43977129D-13 -0.16935351D-01  0.40138728D-16 -0.49348903D-13
 -0.42109431D-03 -0.16108512D-16 -0.51081394D-14 -0.23661996D-02  0.28420358D-16
 -0.19883192D-02  0.10811585D-02  0.90716071D-03  0.73059797D-13  0.47811393D-15
  0.15154227D-15 -0.15279826D-03  0.59854472D-03 -0.44574646D-03  0.83363820D-15
 -0.36590465D-16 -0.24783816D-16 -0.21950680D-01 -0.39588955D-01 -0.58373890D-01
 -0.33447357D-01 -0.14537186D-01 -0.30089284D-03  0.10752218D-01  0.18197313D-02
  0.15730772D-15  0.41747756D-02  0.67521557D-02  0.87003711D-18  0.13927653D-02
 -0.71186791D-05  0.14933036D-16 -0.51226011D-02  0.55691368D-02 -0.44653570D-03
 -0.44146715D-02 -0.34968587D-15  0.87656543D-16 -0.20356042D-03 -0.20328183D-04
  0.22388860D-03  0.34013873D-03  0.19930132D-16  0.11822628D-17 -0.21950680D-01
 -0.39588955D-01 -0.58373890D-01 -0.33447357D-01 -0.14537186D-01 -0.30089284D-03
 -0.10752218D-01  0.18197313D-02  0.50026766D-16 -0.41747756D-02  0.67521557D-02
 -0.45342635D-16 -0.13927653D-02 -0.71186790D-05 -0.81160519D-17 -0.51226011D-02
  0.55691368D-02 -0.44653570D-03  0.44146715D-02 -0.17181859D-16 -0.89248046D-16
 -0.20356042D-03 -0.20328183D-04  0.22388860D-03 -0.34013873D-03 -0.32911868D-16
  0.93007114D-17
END DATA
RHF
