 Molden2AIM, Version 4.0.0 (06/02/2016)           Time: Sat Jun 30 04:01:47 2018
GAUSSIAN             24 MOL ORBITALS    450 PRIMITIVES        6 NUCLEI
  N    1    (CENTRE  1)   0.00000000  0.00000000 -1.20594384  CHARGE =  7.0
  F    2    (CENTRE  2)   2.06603190  0.00000000 -2.67087843  CHARGE =  9.0
  F    3    (CENTRE  3)  -2.06603190  0.00000000 -2.67087843  CHARGE =  9.0
  B    4    (CENTRE  4)   0.00000000  0.00000000  1.44974308  CHARGE =  5.0
  F    5    (CENTRE  5)  -2.20114165  0.00000000  2.65902607  CHARGE =  9.0
  F    6    (CENTRE  6)   2.20114165  0.00000000  2.65902796  CHARGE =  9.0
CENTRE ASSIGNMENTS    1  1  1  1  1  1  1  1  1  1  1  1  1  1  1  1  1  1  1  1
CENTRE ASSIGNMENTS    1  1  1  1  1  1  1  1  1  1  1  1  1  1  1  1  1  1  1  1
CENTRE ASSIGNMENTS    1  1  1  1  1  1  1  1  1  1  1  1  1  1  1  1  1  1  1  1
CENTRE ASSIGNMENTS    1  1  1  1  1  1  1  1  1  1  1  1  1  1  1  2  2  2  2  2
CENTRE ASSIGNMENTS    2  2  2  2  2  2  2  2  2  2  2  2  2  2  2  2  2  2  2  2
CENTRE ASSIGNMENTS    2  2  2  2  2  2  2  2  2  2  2  2  2  2  2  2  2  2  2  2
CENTRE ASSIGNMENTS    2  2  2  2  2  2  2  2  2  2  2  2  2  2  2  2  2  2  2  2
CENTRE ASSIGNMENTS    2  2  2  2  2  2  2  2  2  2  3  3  3  3  3  3  3  3  3  3
CENTRE ASSIGNMENTS    3  3  3  3  3  3  3  3  3  3  3  3  3  3  3  3  3  3  3  3
CENTRE ASSIGNMENTS    3  3  3  3  3  3  3  3  3  3  3  3  3  3  3  3  3  3  3  3
CENTRE ASSIGNMENTS    3  3  3  3  3  3  3  3  3  3  3  3  3  3  3  3  3  3  3  3
CENTRE ASSIGNMENTS    3  3  3  3  3  4  4  4  4  4  4  4  4  4  4  4  4  4  4  4
CENTRE ASSIGNMENTS    4  4  4  4  4  4  4  4  4  4  4  4  4  4  4  4  4  4  4  4
CENTRE ASSIGNMENTS    4  4  4  4  4  4  4  4  4  4  4  4  4  4  4  4  4  4  4  4
CENTRE ASSIGNMENTS    4  4  4  4  4  4  4  4  4  4  4  4  4  4  4  4  4  4  4  4
CENTRE ASSIGNMENTS    5  5  5  5  5  5  5  5  5  5  5  5  5  5  5  5  5  5  5  5
CENTRE ASSIGNMENTS    5  5  5  5  5  5  5  5  5  5  5  5  5  5  5  5  5  5  5  5
CENTRE ASSIGNMENTS    5  5  5  5  5  5  5  5  5  5  5  5  5  5  5  5  5  5  5  5
CENTRE ASSIGNMENTS    5  5  5  5  5  5  5  5  5  5  5  5  5  5  5  6  6  6  6  6
CENTRE ASSIGNMENTS    6  6  6  6  6  6  6  6  6  6  6  6  6  6  6  6  6  6  6  6
CENTRE ASSIGNMENTS    6  6  6  6  6  6  6  6  6  6  6  6  6  6  6  6  6  6  6  6
CENTRE ASSIGNMENTS    6  6  6  6  6  6  6  6  6  6  6  6  6  6  6  6  6  6  6  6
CENTRE ASSIGNMENTS    6  6  6  6  6  6  6  6  6  6
TYPE ASSIGNMENTS      1  1  1  1  1  1  1  1  1  1  1  1  1  1  1  1  1  1  1  2
TYPE ASSIGNMENTS      2  2  3  3  3  4  4  4  2  3  4  2  3  4  2  3  4  5  6  7
TYPE ASSIGNMENTS      8  9 10  5  6  7  8  9 10  5  6  7  8  9 10 11 12 13 17 14
TYPE ASSIGNMENTS     15 18 19 16 20 11 12 13 17 14 15 18 19 16 20  1  1  1  1  1
TYPE ASSIGNMENTS      1  1  1  1  1  1  1  1  1  1  1  1  1  1  2  2  2  3  3  3
TYPE ASSIGNMENTS      4  4  4  2  3  4  2  3  4  2  3  4  5  6  7  8  9 10  5  6
TYPE ASSIGNMENTS      7  8  9 10  5  6  7  8  9 10 11 12 13 17 14 15 18 19 16 20
TYPE ASSIGNMENTS     11 12 13 17 14 15 18 19 16 20  1  1  1  1  1  1  1  1  1  1
TYPE ASSIGNMENTS      1  1  1  1  1  1  1  1  1  2  2  2  3  3  3  4  4  4  2  3
TYPE ASSIGNMENTS      4  2  3  4  2  3  4  5  6  7  8  9 10  5  6  7  8  9 10  5
TYPE ASSIGNMENTS      6  7  8  9 10 11 12 13 17 14 15 18 19 16 20 11 12 13 17 14
TYPE ASSIGNMENTS     15 18 19 16 20  1  1  1  1  1  1  1  1  1  1  1  1  1  1  1
TYPE ASSIGNMENTS      1  1  1  1  2  2  2  3  3  3  4  4  4  2  3  4  2  3  4  2
TYPE ASSIGNMENTS      3  4  5  6  7  8  9 10  5  6  7  8  9 10  5  6  7  8  9 10
TYPE ASSIGNMENTS     11 12 13 17 14 15 18 19 16 20 11 12 13 17 14 15 18 19 16 20
TYPE ASSIGNMENTS      1  1  1  1  1  1  1  1  1  1  1  1  1  1  1  1  1  1  1  2
TYPE ASSIGNMENTS      2  2  3  3  3  4  4  4  2  3  4  2  3  4  2  3  4  5  6  7
TYPE ASSIGNMENTS      8  9 10  5  6  7  8  9 10  5  6  7  8  9 10 11 12 13 17 14
TYPE ASSIGNMENTS     15 18 19 16 20 11 12 13 17 14 15 18 19 16 20  1  1  1  1  1
TYPE ASSIGNMENTS      1  1  1  1  1  1  1  1  1  1  1  1  1  1  2  2  2  3  3  3
TYPE ASSIGNMENTS      4  4  4  2  3  4  2  3  4  2  3  4  5  6  7  8  9 10  5  6
TYPE ASSIGNMENTS      7  8  9 10  5  6  7  8  9 10 11 12 13 17 14 15 18 19 16 20
TYPE ASSIGNMENTS     11 12 13 17 14 15 18 19 16 20
EXPONENTS  0.1142000D+05 0.1712000D+04 0.3893000D+03 0.1100000D+03 0.3557000D+02
EXPONENTS  0.1254000D+02 0.4644000D+01 0.5118000D+00 0.1142000D+05 0.1712000D+04
EXPONENTS  0.3893000D+03 0.1100000D+03 0.3557000D+02 0.1254000D+02 0.4644000D+01
EXPONENTS  0.5118000D+00 0.1293000D+01 0.1787000D+00 0.5760000D-01 0.2663000D+02
EXPONENTS  0.5948000D+01 0.1742000D+01 0.2663000D+02 0.5948000D+01 0.1742000D+01
EXPONENTS  0.2663000D+02 0.5948000D+01 0.1742000D+01 0.5550000D+00 0.5550000D+00
EXPONENTS  0.5550000D+00 0.1725000D+00 0.1725000D+00 0.1725000D+00 0.4910000D-01
EXPONENTS  0.4910000D-01 0.4910000D-01 0.1654000D+01 0.1654000D+01 0.1654000D+01
EXPONENTS  0.1654000D+01 0.1654000D+01 0.1654000D+01 0.4690000D+00 0.4690000D+00
EXPONENTS  0.4690000D+00 0.4690000D+00 0.4690000D+00 0.4690000D+00 0.1510000D+00
EXPONENTS  0.1510000D+00 0.1510000D+00 0.1510000D+00 0.1510000D+00 0.1510000D+00
EXPONENTS  0.1093000D+01 0.1093000D+01 0.1093000D+01 0.1093000D+01 0.1093000D+01
EXPONENTS  0.1093000D+01 0.1093000D+01 0.1093000D+01 0.1093000D+01 0.1093000D+01
EXPONENTS  0.3640000D+00 0.3640000D+00 0.3640000D+00 0.3640000D+00 0.3640000D+00
EXPONENTS  0.3640000D+00 0.3640000D+00 0.3640000D+00 0.3640000D+00 0.3640000D+00
EXPONENTS  0.1950000D+05 0.2923000D+04 0.6645000D+03 0.1875000D+03 0.6062000D+02
EXPONENTS  0.2142000D+02 0.7950000D+01 0.8815000D+00 0.1950000D+05 0.2923000D+04
EXPONENTS  0.6645000D+03 0.1875000D+03 0.6062000D+02 0.2142000D+02 0.7950000D+01
EXPONENTS  0.8815000D+00 0.2257000D+01 0.3041000D+00 0.9158000D-01 0.4388000D+02
EXPONENTS  0.9926000D+01 0.2930000D+01 0.4388000D+02 0.9926000D+01 0.2930000D+01
EXPONENTS  0.4388000D+02 0.9926000D+01 0.2930000D+01 0.9132000D+00 0.9132000D+00
EXPONENTS  0.9132000D+00 0.2672000D+00 0.2672000D+00 0.2672000D+00 0.7361000D-01
EXPONENTS  0.7361000D-01 0.7361000D-01 0.3107000D+01 0.3107000D+01 0.3107000D+01
EXPONENTS  0.3107000D+01 0.3107000D+01 0.3107000D+01 0.8550000D+00 0.8550000D+00
EXPONENTS  0.8550000D+00 0.8550000D+00 0.8550000D+00 0.8550000D+00 0.2920000D+00
EXPONENTS  0.2920000D+00 0.2920000D+00 0.2920000D+00 0.2920000D+00 0.2920000D+00
EXPONENTS  0.1917000D+01 0.1917000D+01 0.1917000D+01 0.1917000D+01 0.1917000D+01
EXPONENTS  0.1917000D+01 0.1917000D+01 0.1917000D+01 0.1917000D+01 0.1917000D+01
EXPONENTS  0.7240000D+00 0.7240000D+00 0.7240000D+00 0.7240000D+00 0.7240000D+00
EXPONENTS  0.7240000D+00 0.7240000D+00 0.7240000D+00 0.7240000D+00 0.7240000D+00
EXPONENTS  0.1950000D+05 0.2923000D+04 0.6645000D+03 0.1875000D+03 0.6062000D+02
EXPONENTS  0.2142000D+02 0.7950000D+01 0.8815000D+00 0.1950000D+05 0.2923000D+04
EXPONENTS  0.6645000D+03 0.1875000D+03 0.6062000D+02 0.2142000D+02 0.7950000D+01
EXPONENTS  0.8815000D+00 0.2257000D+01 0.3041000D+00 0.9158000D-01 0.4388000D+02
EXPONENTS  0.9926000D+01 0.2930000D+01 0.4388000D+02 0.9926000D+01 0.2930000D+01
EXPONENTS  0.4388000D+02 0.9926000D+01 0.2930000D+01 0.9132000D+00 0.9132000D+00
EXPONENTS  0.9132000D+00 0.2672000D+00 0.2672000D+00 0.2672000D+00 0.7361000D-01
EXPONENTS  0.7361000D-01 0.7361000D-01 0.3107000D+01 0.3107000D+01 0.3107000D+01
EXPONENTS  0.3107000D+01 0.3107000D+01 0.3107000D+01 0.8550000D+00 0.8550000D+00
EXPONENTS  0.8550000D+00 0.8550000D+00 0.8550000D+00 0.8550000D+00 0.2920000D+00
EXPONENTS  0.2920000D+00 0.2920000D+00 0.2920000D+00 0.2920000D+00 0.2920000D+00
EXPONENTS  0.1917000D+01 0.1917000D+01 0.1917000D+01 0.1917000D+01 0.1917000D+01
EXPONENTS  0.1917000D+01 0.1917000D+01 0.1917000D+01 0.1917000D+01 0.1917000D+01
EXPONENTS  0.7240000D+00 0.7240000D+00 0.7240000D+00 0.7240000D+00 0.7240000D+00
EXPONENTS  0.7240000D+00 0.7240000D+00 0.7240000D+00 0.7240000D+00 0.7240000D+00
EXPONENTS  0.5473000D+04 0.8209000D+03 0.1868000D+03 0.5283000D+02 0.1708000D+02
EXPONENTS  0.5999000D+01 0.2208000D+01 0.2415000D+00 0.5473000D+04 0.8209000D+03
EXPONENTS  0.1868000D+03 0.5283000D+02 0.1708000D+02 0.5999000D+01 0.2208000D+01
EXPONENTS  0.2415000D+00 0.5879000D+00 0.8610000D-01 0.2914000D-01 0.1205000D+02
EXPONENTS  0.2613000D+01 0.7475000D+00 0.1205000D+02 0.2613000D+01 0.7475000D+00
EXPONENTS  0.1205000D+02 0.2613000D+01 0.7475000D+00 0.2385000D+00 0.2385000D+00
EXPONENTS  0.2385000D+00 0.7698000D-01 0.7698000D-01 0.7698000D-01 0.2096000D-01
EXPONENTS  0.2096000D-01 0.2096000D-01 0.6610000D+00 0.6610000D+00 0.6610000D+00
EXPONENTS  0.6610000D+00 0.6610000D+00 0.6610000D+00 0.1990000D+00 0.1990000D+00
EXPONENTS  0.1990000D+00 0.1990000D+00 0.1990000D+00 0.1990000D+00 0.6040000D-01
EXPONENTS  0.6040000D-01 0.6040000D-01 0.6040000D-01 0.6040000D-01 0.6040000D-01
EXPONENTS  0.4900000D+00 0.4900000D+00 0.4900000D+00 0.4900000D+00 0.4900000D+00
EXPONENTS  0.4900000D+00 0.4900000D+00 0.4900000D+00 0.4900000D+00 0.4900000D+00
EXPONENTS  0.1630000D+00 0.1630000D+00 0.1630000D+00 0.1630000D+00 0.1630000D+00
EXPONENTS  0.1630000D+00 0.1630000D+00 0.1630000D+00 0.1630000D+00 0.1630000D+00
EXPONENTS  0.1950000D+05 0.2923000D+04 0.6645000D+03 0.1875000D+03 0.6062000D+02
EXPONENTS  0.2142000D+02 0.7950000D+01 0.8815000D+00 0.1950000D+05 0.2923000D+04
EXPONENTS  0.6645000D+03 0.1875000D+03 0.6062000D+02 0.2142000D+02 0.7950000D+01
EXPONENTS  0.8815000D+00 0.2257000D+01 0.3041000D+00 0.9158000D-01 0.4388000D+02
EXPONENTS  0.9926000D+01 0.2930000D+01 0.4388000D+02 0.9926000D+01 0.2930000D+01
EXPONENTS  0.4388000D+02 0.9926000D+01 0.2930000D+01 0.9132000D+00 0.9132000D+00
EXPONENTS  0.9132000D+00 0.2672000D+00 0.2672000D+00 0.2672000D+00 0.7361000D-01
EXPONENTS  0.7361000D-01 0.7361000D-01 0.3107000D+01 0.3107000D+01 0.3107000D+01
EXPONENTS  0.3107000D+01 0.3107000D+01 0.3107000D+01 0.8550000D+00 0.8550000D+00
EXPONENTS  0.8550000D+00 0.8550000D+00 0.8550000D+00 0.8550000D+00 0.2920000D+00
EXPONENTS  0.2920000D+00 0.2920000D+00 0.2920000D+00 0.2920000D+00 0.2920000D+00
EXPONENTS  0.1917000D+01 0.1917000D+01 0.1917000D+01 0.1917000D+01 0.1917000D+01
EXPONENTS  0.1917000D+01 0.1917000D+01 0.1917000D+01 0.1917000D+01 0.1917000D+01
EXPONENTS  0.7240000D+00 0.7240000D+00 0.7240000D+00 0.7240000D+00 0.7240000D+00
EXPONENTS  0.7240000D+00 0.7240000D+00 0.7240000D+00 0.7240000D+00 0.7240000D+00
EXPONENTS  0.1950000D+05 0.2923000D+04 0.6645000D+03 0.1875000D+03 0.6062000D+02
EXPONENTS  0.2142000D+02 0.7950000D+01 0.8815000D+00 0.1950000D+05 0.2923000D+04
EXPONENTS  0.6645000D+03 0.1875000D+03 0.6062000D+02 0.2142000D+02 0.7950000D+01
EXPONENTS  0.8815000D+00 0.2257000D+01 0.3041000D+00 0.9158000D-01 0.4388000D+02
EXPONENTS  0.9926000D+01 0.2930000D+01 0.4388000D+02 0.9926000D+01 0.2930000D+01
EXPONENTS  0.4388000D+02 0.9926000D+01 0.2930000D+01 0.9132000D+00 0.9132000D+00
EXPONENTS  0.9132000D+00 0.2672000D+00 0.2672000D+00 0.2672000D+00 0.7361000D-01
EXPONENTS  0.7361000D-01 0.7361000D-01 0.3107000D+01 0.3107000D+01 0.3107000D+01
EXPONENTS  0.3107000D+01 0.3107000D+01 0.3107000D+01 0.8550000D+00 0.8550000D+00
EXPONENTS  0.8550000D+00 0.8550000D+00 0.8550000D+00 0.8550000D+00 0.2920000D+00
EXPONENTS  0.2920000D+00 0.2920000D+00 0.2920000D+00 0.2920000D+00 0.2920000D+00
EXPONENTS  0.1917000D+01 0.1917000D+01 0.1917000D+01 0.1917000D+01 0.1917000D+01
EXPONENTS  0.1917000D+01 0.1917000D+01 0.1917000D+01 0.1917000D+01 0.1917000D+01
EXPONENTS  0.7240000D+00 0.7240000D+00 0.7240000D+00 0.7240000D+00 0.7240000D+00
EXPONENTS  0.7240000D+00 0.7240000D+00 0.7240000D+00 0.7240000D+00 0.7240000D+00
MO    1     MO 0.0        OCC NO =    2.0000000  ORB. ENERGY =  -24.562067
  0.27923573D-03  0.52031467D-03  0.87998255D-03  0.13252050D-02  0.16406897D-02
  0.13961529D-02  0.53126193D-03 -0.24881263D-05 -0.17924648D-03 -0.33608883D-03
 -0.57178710D-03 -0.88792500D-03 -0.11783281D-02 -0.12417961D-02 -0.76999279D-03
  0.51219950D-03 -0.70461380D-03  0.21585147D-02  0.86081606D-03  0.56465489D-05
  0.54234427D-05  0.38032924D-05 -0.19665895D-15 -0.18888857D-15 -0.13246170D-15
  0.92549142D-03  0.88892345D-03  0.62337448D-03 -0.79492430D-05  0.21249119D-17
 -0.13736352D-02 -0.13176063D-05 -0.13568349D-18 -0.43639052D-03 -0.38411657D-07
  0.53447670D-20  0.18705370D-04  0.47466937D-03 -0.26659295D-03 -0.20807641D-03
 -0.20708740D-17  0.38396792D-05  0.10999389D-17  0.48004049D-03 -0.59948662D-03
  0.11944613D-03  0.42220168D-18  0.74567133D-05 -0.10495105D-17  0.93899240D-04
 -0.91643604D-04 -0.22556362D-05 -0.88752902D-19  0.78810257D-06 -0.72493917D-19
 -0.53297888D-06 -0.24303992D-18  0.42013377D-03  0.52022070D-05  0.70689985D-18
 -0.21187395D-02 -0.36032703D-05  0.22219928D-19  0.85833813D-03 -0.45057472D-18
 -0.38698400D-06 -0.78323108D-20 -0.35177485D-04 -0.33333475D-07  0.85793086D-19
  0.12421604D-03  0.11942855D-05 -0.62296153D-19 -0.18683580D-04 -0.45146347D-18
  0.41871793D+00  0.78050836D+00  0.13231535D+01  0.20036444D+01  0.25055644D+01
  0.21570576D+01  0.82925167D+00 -0.35932832D-02  0.36750450D-04  0.69010836D-04
  0.11751355D-03  0.18408428D-03  0.24669460D-03  0.26535330D-03  0.15931777D-03
 -0.10477407D-03  0.45271438D-01 -0.87092046D-03 -0.65603806D-03 -0.43895804D-02
 -0.42929138D-02 -0.28365096D-02  0.20200067D-16  0.19755225D-16  0.13053112D-16
  0.31550919D-02  0.30856110D-02  0.20387936D-02  0.64923558D-03 -0.16707282D-17
 -0.48967241D-03  0.76013911D-03 -0.61106366D-19 -0.51173270D-03  0.38306377D-04
 -0.22556049D-19 -0.45469030D-04 -0.31537444D-04  0.13642464D-03 -0.10488720D-03
 -0.15642822D-16  0.23401016D-03 -0.14849546D-16 -0.36178656D-03  0.38250352D-03
 -0.20716955D-04  0.11557418D-17  0.89942209D-03  0.19028062D-18 -0.10740052D-03
  0.10349299D-03  0.39075312D-05  0.18928839D-18  0.24897093D-03 -0.15050828D-18
 -0.12557921D-03 -0.69155869D-19  0.85817981D-04  0.25794959D-03  0.18298418D-17
 -0.12586747D-03  0.11878803D-03 -0.16223742D-17 -0.13158647D-03 -0.43415539D-17
  0.86252869D-04  0.14674848D-18  0.57563918D-04 -0.43374736D-03 -0.76795950D-18
 -0.46104129D-03  0.17498876D-03  0.32771405D-18  0.28834954D-03  0.16064054D-17
  0.42213290D+00  0.78687402D+00  0.13339449D+01  0.20199857D+01  0.25259993D+01
  0.21746501D+01  0.83601488D+00 -0.36225893D-02  0.37745779D-04  0.70879888D-04
  0.12069622D-03  0.18906992D-03  0.25337594D-03  0.27253998D-03  0.16363265D-03
 -0.10761171D-03  0.45641365D-01 -0.87601258D-03 -0.66065255D-03  0.44256681D-02
  0.43282067D-02  0.28598292D-02 -0.14868863D-16 -0.14541423D-16 -0.96081329D-17
  0.31819078D-02  0.31118363D-02  0.20561218D-02 -0.65565331D-03  0.17117325D-17
 -0.49507242D-03 -0.76492008D-03 -0.28294079D-18 -0.51603807D-03 -0.38701295D-04
  0.12423093D-19 -0.45800712D-04 -0.33452623D-04  0.13858456D-03 -0.10513194D-03
  0.60926995D-17 -0.23271942D-03  0.20045095D-16 -0.36440599D-03  0.38551890D-03
 -0.21112901D-04 -0.30275627D-18 -0.90874765D-03 -0.11247373D-17 -0.10779979D-03
  0.10416099D-03  0.36388025D-05 -0.24681284D-19 -0.25136397D-03  0.57037976D-19
  0.12459186D-03  0.35727309D-18  0.84629493D-04 -0.25881500D-03 -0.20855123D-17
 -0.12114340D-03 -0.11496059D-03  0.10136931D-17 -0.13274508D-03  0.27540922D-17
 -0.86140957D-04  0.17679044D-19  0.58784680D-04  0.43651141D-03  0.35102040D-19
 -0.46685046D-03 -0.17808854D-03 -0.88139173D-19  0.29049642D-03 -0.25485964D-18
  0.62206342D-04  0.11591744D-03  0.19535296D-03  0.29146501D-03  0.35304548D-03
  0.29376014D-03  0.10910405D-03 -0.57921043D-06 -0.47538831D-04 -0.88797105D-04
 -0.15113312D-03 -0.23114143D-03 -0.30061314D-03 -0.30428864D-03 -0.20035864D-03
  0.13695619D-03  0.87512843D-04 -0.50844146D-04 -0.62911348D-04  0.25575920D-06
  0.23050435D-06  0.16736110D-06 -0.63933564D-19 -0.57620468D-19 -0.41836196D-19
 -0.10375338D-03 -0.93508287D-04 -0.67893080D-04 -0.31453424D-05  0.18675138D-18
  0.52009245D-03 -0.83775084D-06 -0.45645782D-20  0.14304779D-03  0.84595790D-08
 -0.27028179D-20  0.40726936D-05  0.85341173D-04 -0.72471704D-04 -0.12869468D-04
 -0.14199200D-18  0.15848882D-05 -0.32088425D-18 -0.11218025D-03  0.24237927D-04
  0.87942320D-04  0.46691661D-19  0.75843733D-06 -0.26765239D-18  0.31006798D-05
 -0.48110759D-05  0.17103961D-05  0.79978704D-20  0.74568314D-07  0.31864861D-20
  0.18797489D-06 -0.86083612D-19 -0.60955536D-04  0.46558223D-06 -0.12788232D-18
  0.31001189D-03 -0.10295069D-05  0.38613315D-18 -0.12714528D-03 -0.30206008D-18
  0.50252043D-08 -0.36758657D-20 -0.14057305D-04  0.65928936D-07  0.11213139D-20
  0.68923064D-04 -0.81004548D-07  0.99062831D-20 -0.26751150D-04 -0.77493674D-19
 -0.23593974D-04 -0.43980190D-04 -0.74557234D-04 -0.11290163D-03 -0.14118388D-03
 -0.12154617D-03 -0.46726785D-04  0.20247481D-06  0.15506058D-04  0.29117631D-04
  0.49582303D-04  0.77670385D-04  0.10408745D-03  0.11196009D-03  0.67220691D-04
 -0.44207155D-04  0.32712222D-04 -0.25413577D-03 -0.21630696D-03  0.11826280D-03
  0.11565843D-03  0.76420416D-04 -0.30107198D-18 -0.29444182D-18 -0.19455016D-18
 -0.12232497D-03 -0.11963115D-03 -0.79045361D-04 -0.14303387D-03  0.12211779D-18
  0.16267064D-03 -0.20219350D-03 -0.88434033D-19 -0.20543101D-03 -0.14356181D-04
  0.17704459D-19 -0.78939495D-05  0.15853167D-03  0.24046271D-05 -0.16093629D-03
 -0.96774046D-18 -0.31858147D-05 -0.25883343D-18 -0.10729837D-03  0.30116932D-04
  0.77181442D-04  0.16582478D-18  0.75372657D-04  0.93515161D-19 -0.71037510D-04
 -0.83494001D-06  0.71872450D-04 -0.13177347D-19 -0.11012588D-04 -0.49363120D-19
  0.60771721D-04  0.11743318D-18  0.90690694D-05 -0.42782017D-04 -0.29216659D-18
 -0.10262165D-03 -0.13953315D-03 -0.60132947D-19  0.75414437D-04  0.67795059D-18
 -0.39913302D-04  0.33167877D-19 -0.33087485D-04  0.39447322D-04 -0.15366275D-18
  0.11150056D-03  0.80292585D-04  0.54159116D-19 -0.12238108D-04 -0.10315242D-18
 -0.24007623D-04 -0.44751249D-04 -0.75864369D-04 -0.11488101D-03 -0.14365911D-03
 -0.12367711D-03 -0.47545997D-04  0.20602459D-06  0.15755449D-04  0.29585943D-04
  0.50379758D-04  0.78919593D-04  0.10576154D-03  0.11376080D-03  0.68301832D-04
 -0.44918158D-04  0.32792100D-04 -0.25215030D-03 -0.21403132D-03 -0.11786633D-03
 -0.11527070D-03 -0.76164224D-04 -0.63061986D-19 -0.61673245D-19 -0.40750121D-19
 -0.12244946D-03 -0.11975290D-03 -0.79125802D-04  0.14259777D-03 -0.54272762D-20
  0.16289109D-03  0.20102437D-03  0.17109347D-18 -0.20655883D-03  0.14202950D-04
  0.26345265D-20 -0.82127386D-05  0.15840065D-03  0.24264901D-05 -0.16082714D-03
 -0.98849685D-18  0.38778023D-05  0.47068294D-18 -0.10706785D-03  0.30082272D-04
  0.76985574D-04  0.30808478D-18 -0.75846268D-04 -0.18903464D-18 -0.71008756D-04
 -0.10938840D-05  0.72102640D-04 -0.19640489D-18  0.11467492D-04  0.41329401D-19
 -0.61008566D-04  0.67488773D-18  0.94919931D-05  0.42598708D-04 -0.21628960D-17
 -0.10368491D-03  0.14042699D-03  0.13823286D-18  0.75208931D-04  0.24264727D-18
  0.39946167D-04 -0.14376183D-18 -0.33356238D-04 -0.39356122D-04  0.47709066D-18
  0.11220842D-03 -0.80482380D-04 -0.45805182D-19 -0.12139707D-04 -0.10224432D-19
MO    2     MO 0.0        OCC NO =    2.0000000  ORB. ENERGY =  -24.562066
  0.11344094D-05  0.21138049D-05  0.35749740D-05  0.53837128D-05  0.66653856D-05
  0.56719424D-05  0.21582787D-05 -0.10108140D-07 -0.72819677D-06 -0.13653757D-05
 -0.23229104D-05 -0.36072346D-05 -0.47870101D-05 -0.50448515D-05 -0.31281298D-05
  0.20808331D-05 -0.28625706D-05  0.87691898D-05  0.34971436D-05 -0.13898873D-02
 -0.13349702D-02 -0.93617322D-03 -0.16262947D-16 -0.15620366D-16 -0.10954079D-16
  0.37597779D-05  0.36112217D-05  0.25324379D-05  0.19566819D-02 -0.13013557D-15
 -0.55803567D-05  0.32439582D-03  0.24199852D-16 -0.17729242D-05  0.94601506D-05
  0.77563612D-18  0.75994243D-07  0.19283134D-05 -0.10829997D-05 -0.84531370D-06
  0.35032755D-15 -0.94511842D-03 -0.82856846D-16  0.19502197D-05 -0.24355013D-05
  0.48528163D-06  0.93948794D-17 -0.18354928D-02 -0.95688174D-18  0.38148621D-06
 -0.37231625D-06 -0.91699552D-08 -0.56669933D-19 -0.19396579D-03 -0.14480696D-18
  0.13119043D-03  0.16964762D-18  0.17068353D-05 -0.12804836D-02 -0.60893964D-18
 -0.86074811D-05  0.88691229D-03  0.99996793D-19  0.34869752D-05 -0.20347405D-18
  0.95263056D-04 -0.28971331D-18 -0.14292200D-06  0.81897049D-05  0.70595883D-18
  0.50465455D-06 -0.29397887D-03  0.16318109D-18 -0.75888545D-07 -0.47899183D-18
  0.42200601D+00  0.78663749D+00  0.13335439D+01  0.20193785D+01  0.25252399D+01
  0.21739964D+01  0.83576357D+00 -0.36215004D-02  0.12265085D-03  0.23031658D-03
  0.39218942D-03  0.61436240D-03  0.82331790D-03  0.88558941D-03  0.53170672D-03
 -0.34967271D-03  0.45713419D-01 -0.63027766D-03 -0.57059155D-03 -0.44593966D-02
 -0.43611924D-02 -0.28816242D-02  0.24164625D-16  0.23632476D-16  0.15614976D-16
  0.33132137D-02  0.32402506D-02  0.21409706D-02  0.79251909D-03 -0.11985745D-17
 -0.66660794D-03  0.59151364D-03 -0.12651086D-17 -0.53199624D-03  0.48759973D-04
 -0.13795209D-19 -0.41005334D-04 -0.23586467D-03  0.26638324D-03 -0.30518574D-04
 -0.15486122D-16 -0.15792954D-03 -0.18105238D-16 -0.32385600D-03  0.37268043D-03
 -0.48824436D-04  0.10208506D-17  0.11514135D-02  0.41445805D-18 -0.49574437D-04
  0.82637592D-04 -0.33063154D-04  0.94195168D-18  0.29554347D-03 -0.95677294D-18
  0.12100896D-03 -0.11464237D-17 -0.14592645D-03  0.10757342D-03  0.36277868D-17
  0.58090255D-03 -0.47060030D-03 -0.18851582D-18 -0.14312321D-03 -0.22761621D-17
 -0.13423885D-04  0.46096722D-18  0.15047921D-03 -0.34195519D-03 -0.11780135D-17
 -0.71683777D-03  0.38222685D-03 -0.20488815D-18  0.26540014D-03  0.19761336D-17
 -0.41859000D+00 -0.78026989D+00 -0.13227493D+01 -0.20030323D+01 -0.25047989D+01
 -0.21563985D+01 -0.82899832D+00  0.35921854D-02 -0.12234822D-03 -0.22974829D-03
 -0.39122172D-03 -0.61284650D-03 -0.82128641D-03 -0.88340427D-03 -0.53039477D-03
  0.34880991D-03 -0.45344080D-01  0.62318051D-03  0.56524242D-03 -0.44235840D-02
 -0.43261686D-02 -0.28584825D-02  0.21760007D-16  0.21280811D-16  0.14061132D-16
 -0.32874693D-02 -0.32150732D-02 -0.21243348D-02  0.78721787D-03 -0.12245672D-17
  0.66260733D-03  0.58531795D-03  0.27080122D-19  0.52782086D-03  0.48447131D-04
  0.21665615D-20  0.40634545D-04  0.23560052D-03 -0.26526599D-03  0.29665472D-04
  0.92198222D-18 -0.15982536D-03 -0.21069507D-16  0.32090581D-03 -0.36956030D-03
  0.48654487D-04 -0.14230236D-17  0.11440677D-02  0.10490721D-17  0.48700156D-04
 -0.81793978D-04  0.33093822D-04 -0.68237214D-19  0.29351085D-03 -0.20874711D-18
  0.12202533D-03 -0.19714420D-18  0.14661892D-03  0.10547397D-03 -0.14701416D-17
 -0.58190610D-03 -0.47154996D-03  0.20615742D-17  0.14204934D-03  0.12194546D-17
 -0.14124256D-04  0.39537908D-18 -0.15000655D-03 -0.33841970D-03 -0.47456115D-18
  0.71306819D-03  0.38079246D-03 -0.71157609D-18 -0.26304854D-03 -0.10800394D-17
  0.25275011D-06  0.47098328D-06  0.79373709D-06  0.11842492D-05  0.14344564D-05
  0.11935746D-05  0.44329980D-06 -0.23533854D-08 -0.19315575D-06 -0.36079287D-06
 -0.61407127D-06 -0.93915425D-06 -0.12214258D-05 -0.12363598D-05 -0.81408024D-06
  0.55646876D-06  0.35560285D-06 -0.20661047D-06 -0.25559335D-06 -0.63003886D-04
 -0.56782591D-04 -0.41227843D-04  0.81641385D-18  0.73579736D-18  0.53423660D-18
 -0.42154411D-06 -0.37991889D-06 -0.27584575D-06  0.77425130D-03 -0.65406838D-18
  0.21132639D-05  0.20619557D-03  0.65446706D-19  0.58122868D-06 -0.20825133D-05
 -0.52986048D-20  0.16544732D-07  0.34678386D-06 -0.29447479D-06 -0.52309075D-07
  0.15953817D-18 -0.39014657D-03 -0.19186662D-18 -0.45582498D-06  0.98480682D-07
  0.35734430D-06 -0.28469530D-18 -0.18664199D-03 -0.69109067D-19  0.12594913D-07
 -0.19543495D-07  0.69485821D-08  0.10621356D-19 -0.18350521D-04 -0.14064813D-19
 -0.46278399D-04  0.20605184D-18 -0.24764716D-06 -0.11460844D-03 -0.47366035D-18
  0.12595654D-05  0.25344364D-03 -0.14449517D-18 -0.51662391D-06  0.94073122D-19
 -0.12366627D-05  0.12964175D-19 -0.57112155D-07 -0.16229787D-04  0.96848726D-21
  0.28002745D-06  0.19939775D-04 -0.39861012D-19 -0.10869098D-06  0.87005269D-19
 -0.51022882D-04 -0.95108863D-04 -0.16123291D-03 -0.24415414D-03 -0.30531561D-03
 -0.26284830D-03 -0.10104848D-03  0.43785961D-06  0.30765768D-04  0.57772664D-04
  0.98376883D-04  0.15410680D-03  0.20652125D-03  0.22214145D-03  0.13337343D-03
 -0.87711981D-04  0.99528447D-05  0.24344520D-03  0.27919573D-03 -0.48320751D-04
 -0.47256639D-04 -0.31224460D-04  0.21252457D-18  0.20784439D-18  0.13733158D-18
 -0.15726540D-04 -0.15380213D-04 -0.10162357D-04  0.53079908D-04  0.17775615D-18
  0.27718343D-04  0.14310190D-03  0.17107843D-18 -0.13969194D-03  0.18799511D-04
  0.41007182D-19 -0.39265884D-04 -0.15440803D-04  0.27263631D-05  0.12714440D-04
 -0.43046685D-18 -0.85065545D-04  0.95717802D-18  0.27900429D-04 -0.41611774D-05
 -0.23739252D-04  0.36726677D-18  0.58526406D-04 -0.82251692D-18  0.32620370D-05
 -0.31864876D-04  0.28602839D-04  0.24610906D-18 -0.56047173D-04  0.10541589D-18
  0.29368371D-04  0.49571456D-18  0.51973777D-04  0.22366866D-04 -0.18294837D-17
 -0.13110417D-03 -0.11047198D-03  0.34234002D-18 -0.24817161D-04  0.25092777D-19
 -0.42086602D-05 -0.22712774D-18 -0.33178269D-04 -0.11058042D-04  0.72501786D-18
  0.87515359D-04  0.23684022D-04 -0.43634638D-19  0.12019447D-04 -0.16704005D-18
  0.50829528D-04  0.94748441D-04  0.16062190D-03  0.24322890D-03  0.30415859D-03
  0.26185221D-03  0.10066555D-03 -0.43620031D-06 -0.30638790D-04 -0.57534222D-04
 -0.97970857D-04 -0.15347077D-03 -0.20566888D-03 -0.22122461D-03 -0.13282297D-03
  0.87349972D-04 -0.96867339D-05 -0.24550201D-03 -0.28094398D-03 -0.49280143D-04
 -0.48194903D-04 -0.31844410D-04 -0.35025182D-18 -0.34253863D-18 -0.22632975D-18
  0.14732025D-04  0.14407599D-04  0.95197098D-05  0.54240434D-04 -0.10777947D-18
 -0.26395572D-04  0.14474020D-03  0.43764599D-18  0.13801803D-03  0.18915557D-04
 -0.95619331D-20  0.39200449D-04  0.16728552D-04 -0.27068219D-05 -0.14021730D-04
  0.90170726D-18 -0.85036502D-04  0.22308743D-18 -0.28771497D-04  0.44057986D-05
  0.24365699D-04 -0.47312911D-18  0.57911717D-04 -0.32058541D-18 -0.38392050D-05
  0.31857078D-04 -0.28017873D-04 -0.29436421D-18 -0.55955863D-04 -0.21879288D-18
  0.28873643D-04  0.37281870D-18 -0.51898577D-04  0.22713994D-04 -0.38994524D-18
  0.13026602D-03 -0.10933492D-03 -0.72851086D-18  0.25429715D-04 -0.93683401D-18
 -0.38841446D-05 -0.17321402D-18  0.32908323D-04 -0.11378310D-04  0.21646597D-18
 -0.86606299D-04  0.23030744D-04  0.30317608D-18 -0.12118670D-04  0.44745868D-18
MO    3     MO 0.0        OCC NO =    2.0000000  ORB. ENERGY =  -24.515968
  0.86823655D-06  0.16178310D-05  0.27361578D-05  0.41205020D-05  0.51014487D-05
  0.43411027D-05  0.16518696D-05 -0.77364103D-08 -0.56603258D-06 -0.10613164D-05
 -0.18056149D-05 -0.28039293D-05 -0.37209773D-05 -0.39213993D-05 -0.24315177D-05
  0.16174465D-05 -0.15866513D-05  0.19540384D-04  0.80165774D-05  0.81751521D-04
  0.78521358D-04  0.55064596D-04  0.88441799D-18  0.84947291D-18  0.59570904D-18
 -0.30106814D-05 -0.28917235D-05 -0.20278761D-05 -0.24694648D-03 -0.25446686D-16
  0.69514319D-05 -0.80398732D-05 -0.46639941D-17  0.59805211D-05 -0.10942578D-04
  0.11358478D-17  0.65036622D-06 -0.95392536D-06 -0.54365615D-06  0.14975815D-05
  0.86115268D-15 -0.38702536D-03  0.11619486D-15 -0.43587366D-06 -0.15655860D-05
  0.20014596D-05 -0.13266558D-15  0.58371901D-03  0.30600253D-16  0.13928911D-07
 -0.51930951D-06  0.50538060D-06  0.30449924D-16  0.67030286D-04  0.24965581D-18
 -0.15458562D-04  0.13228032D-17  0.85098758D-06  0.36232583D-03 -0.40075693D-17
 -0.34111942D-06 -0.31595015D-03  0.39159591D-19 -0.22118433D-05  0.19208443D-17
 -0.73034255D-05 -0.76544730D-19  0.35079049D-07 -0.14216790D-03  0.12408270D-17
 -0.10918498D-05  0.16407818D-03 -0.10111928D-17  0.98661270D-06 -0.54850488D-17
 -0.40037372D-04 -0.74631396D-04 -0.12651856D-03 -0.19158639D-03 -0.23957946D-03
 -0.20625559D-03 -0.79292181D-04  0.34358600D-06  0.31696670D-04  0.59520733D-04
  0.10135354D-03  0.15876973D-03  0.21277011D-03  0.22886294D-03  0.13740901D-03
 -0.90365946D-04 -0.98368554D-05  0.11658511D-03  0.17597249D-03  0.41863892D-04
  0.40941972D-04  0.27052092D-04  0.15761650D-17  0.15414550D-17  0.10185045D-17
 -0.59529755D-04 -0.58218800D-04 -0.38467623D-04  0.76636506D-05 -0.27610011D-17
  0.61798491D-04 -0.13659508D-03 -0.24333555D-17  0.33850182D-04 -0.18458935D-04
 -0.38974651D-18  0.15913778D-04 -0.12118517D-03 -0.27208687D-04  0.14839386D-03
  0.50029601D-17  0.35098875D-03  0.19164596D-16  0.61914772D-04 -0.14932752D-04
 -0.46982020D-04  0.67474318D-18 -0.22335710D-03 -0.62454592D-17  0.33381982D-04
 -0.85239882D-05 -0.24857994D-04  0.22226695D-17 -0.52697266D-04 -0.11470385D-17
 -0.29031275D-04 -0.13553226D-17  0.92764049D-04  0.83381800D-04  0.38837309D-17
 -0.20756323D-03  0.37120236D-05  0.18223685D-18 -0.70728918D-04 -0.14371610D-16
 -0.12038866D-05  0.69672925D-19 -0.67577252D-04  0.17223794D-04  0.13891098D-18
  0.18226129D-03 -0.13612134D-04 -0.34792976D-18  0.20470471D-04  0.76452107D-17
  0.39843575D-04  0.74270150D-04  0.12590616D-03  0.19065904D-03  0.23841980D-03
  0.20525724D-03  0.78908375D-04 -0.34192291D-06 -0.31580662D-04 -0.59302890D-04
 -0.10098259D-03 -0.15818864D-03 -0.21199138D-03 -0.22802531D-03 -0.13690610D-03
  0.90035210D-04  0.10082633D-04 -0.12066505D-03 -0.17866254D-03  0.42034055D-04
  0.41108388D-04  0.27162050D-04 -0.58160250D-17 -0.56879454D-17 -0.37582660D-17
  0.60713633D-04  0.59376607D-04  0.39232634D-04  0.68799872D-05  0.15586571D-17
 -0.63269262D-04 -0.13947972D-03  0.22677767D-17 -0.35220408D-04 -0.18561780D-04
  0.34265029D-18 -0.16103433D-04  0.12253488D-03  0.28590855D-04 -0.15112574D-03
  0.59998479D-17  0.34852593D-03  0.80122237D-18 -0.62654222D-04  0.14519883D-04
  0.48134338D-04  0.28795037D-18 -0.22252646D-03  0.43129867D-17 -0.33481993D-04
  0.89699153D-05  0.24512078D-04  0.26611966D-17 -0.54004437D-04 -0.53938711D-18
 -0.29363402D-04 -0.28751316D-17 -0.92710386D-04  0.80803217D-04 -0.20558342D-17
  0.20566929D-03  0.72869891D-05  0.10681229D-16  0.72461870D-04 -0.66391735D-16
 -0.10979284D-05 -0.18094211D-18  0.67544096D-04  0.17975399D-04  0.23808974D-17