 Molden2AIM, Version 4.0.0 (06/02/2016)           Time: Sat Jun 30 04:35:47 2018
GAUSSIAN             24 MOL ORBITALS    450 PRIMITIVES        6 NUCLEI
  C    1    (CENTRE  1)  -1.25215899  0.00000000  0.00000000  CHARGE =  6.0
  C    2    (CENTRE  2)   1.25215899  0.00000000  0.00000000  CHARGE =  6.0
  F    3    (CENTRE  3)  -2.62334426 -2.07943195  0.00000000  CHARGE =  9.0
  F    4    (CENTRE  4)   2.62334426 -2.07943195  0.00000000  CHARGE =  9.0
  F    5    (CENTRE  5)  -2.62334426  2.07943195  0.00000000  CHARGE =  9.0
  F    6    (CENTRE  6)   2.62334426  2.07943195  0.00000000  CHARGE =  9.0
CENTRE ASSIGNMENTS    1  1  1  1  1  1  1  1  1  1  1  1  1  1  1  1  1  1  1  1
CENTRE ASSIGNMENTS    1  1  1  1  1  1  1  1  1  1  1  1  1  1  1  1  1  1  1  1
CENTRE ASSIGNMENTS    1  1  1  1  1  1  1  1  1  1  1  1  1  1  1  1  1  1  1  1
CENTRE ASSIGNMENTS    1  1  1  1  1  1  1  1  1  1  1  1  1  1  1  2  2  2  2  2
CENTRE ASSIGNMENTS    2  2  2  2  2  2  2  2  2  2  2  2  2  2  2  2  2  2  2  2
CENTRE ASSIGNMENTS    2  2  2  2  2  2  2  2  2  2  2  2  2  2  2  2  2  2  2  2
CENTRE ASSIGNMENTS    2  2  2  2  2  2  2  2  2  2  2  2  2  2  2  2  2  2  2  2
CENTRE ASSIGNMENTS    2  2  2  2  2  2  2  2  2  2  3  3  3  3  3  3  3  3  3  3
CENTRE ASSIGNMENTS    3  3  3  3  3  3  3  3  3  3  3  3  3  3  3  3  3  3  3  3
CENTRE ASSIGNMENTS    3  3  3  3  3  3  3  3  3  3  3  3  3  3  3  3  3  3  3  3
CENTRE ASSIGNMENTS    3  3  3  3  3  3  3  3  3  3  3  3  3  3  3  3  3  3  3  3
CENTRE ASSIGNMENTS    3  3  3  3  3  4  4  4  4  4  4  4  4  4  4  4  4  4  4  4
CENTRE ASSIGNMENTS    4  4  4  4  4  4  4  4  4  4  4  4  4  4  4  4  4  4  4  4
CENTRE ASSIGNMENTS    4  4  4  4  4  4  4  4  4  4  4  4  4  4  4  4  4  4  4  4
CENTRE ASSIGNMENTS    4  4  4  4  4  4  4  4  4  4  4  4  4  4  4  4  4  4  4  4
CENTRE ASSIGNMENTS    5  5  5  5  5  5  5  5  5  5  5  5  5  5  5  5  5  5  5  5
CENTRE ASSIGNMENTS    5  5  5  5  5  5  5  5  5  5  5  5  5  5  5  5  5  5  5  5
CENTRE ASSIGNMENTS    5  5  5  5  5  5  5  5  5  5  5  5  5  5  5  5  5  5  5  5
CENTRE ASSIGNMENTS    5  5  5  5  5  5  5  5  5  5  5  5  5  5  5  6  6  6  6  6
CENTRE ASSIGNMENTS    6  6  6  6  6  6  6  6  6  6  6  6  6  6  6  6  6  6  6  6
CENTRE ASSIGNMENTS    6  6  6  6  6  6  6  6  6  6  6  6  6  6  6  6  6  6  6  6
CENTRE ASSIGNMENTS    6  6  6  6  6  6  6  6  6  6  6  6  6  6  6  6  6  6  6  6
CENTRE ASSIGNMENTS    6  6  6  6  6  6  6  6  6  6
TYPE ASSIGNMENTS      1  1  1  1  1  1  1  1  1  1  1  1  1  1  1  1  1  1  1  2
TYPE ASSIGNMENTS      2  2  3  3  3  4  4  4  2  3  4  2  3  4  2  3  4  5  6  7
TYPE ASSIGNMENTS      8  9 10  5  6  7  8  9 10  5  6  7  8  9 10 11 12 13 17 14
TYPE ASSIGNMENTS     15 18 19 16 20 11 12 13 17 14 15 18 19 16 20  1  1  1  1  1
TYPE ASSIGNMENTS      1  1  1  1  1  1  1  1  1  1  1  1  1  1  2  2  2  3  3  3
TYPE ASSIGNMENTS      4  4  4  2  3  4  2  3  4  2  3  4  5  6  7  8  9 10  5  6
TYPE ASSIGNMENTS      7  8  9 10  5  6  7  8  9 10 11 12 13 17 14 15 18 19 16 20
TYPE ASSIGNMENTS     11 12 13 17 14 15 18 19 16 20  1  1  1  1  1  1  1  1  1  1
TYPE ASSIGNMENTS      1  1  1  1  1  1  1  1  1  2  2  2  3  3  3  4  4  4  2  3
TYPE ASSIGNMENTS      4  2  3  4  2  3  4  5  6  7  8  9 10  5  6  7  8  9 10  5
TYPE ASSIGNMENTS      6  7  8  9 10 11 12 13 17 14 15 18 19 16 20 11 12 13 17 14
TYPE ASSIGNMENTS     15 18 19 16 20  1  1  1  1  1  1  1  1  1  1  1  1  1  1  1
TYPE ASSIGNMENTS      1  1  1  1  2  2  2  3  3  3  4  4  4  2  3  4  2  3  4  2
TYPE ASSIGNMENTS      3  4  5  6  7  8  9 10  5  6  7  8  9 10  5  6  7  8  9 10
TYPE ASSIGNMENTS     11 12 13 17 14 15 18 19 16 20 11 12 13 17 14 15 18 19 16 20
TYPE ASSIGNMENTS      1  1  1  1  1  1  1  1  1  1  1  1  1  1  1  1  1  1  1  2
TYPE ASSIGNMENTS      2  2  3  3  3  4  4  4  2  3  4  2  3  4  2  3  4  5  6  7
TYPE ASSIGNMENTS      8  9 10  5  6  7  8  9 10  5  6  7  8  9 10 11 12 13 17 14
TYPE ASSIGNMENTS     15 18 19 16 20 11 12 13 17 14 15 18 19 16 20  1  1  1  1  1
TYPE ASSIGNMENTS      1  1  1  1  1  1  1  1  1  1  1  1  1  1  2  2  2  3  3  3
TYPE ASSIGNMENTS      4  4  4  2  3  4  2  3  4  2  3  4  5  6  7  8  9 10  5  6
TYPE ASSIGNMENTS      7  8  9 10  5  6  7  8  9 10 11 12 13 17 14 15 18 19 16 20
TYPE ASSIGNMENTS     11 12 13 17 14 15 18 19 16 20
EXPONENTS  0.8236000D+04 0.1235000D+04 0.2808000D+03 0.7927000D+02 0.2559000D+02
EXPONENTS  0.8997000D+01 0.3319000D+01 0.3643000D+00 0.8236000D+04 0.1235000D+04
EXPONENTS  0.2808000D+03 0.7927000D+02 0.2559000D+02 0.8997000D+01 0.3319000D+01
EXPONENTS  0.3643000D+00 0.9059000D+00 0.1285000D+00 0.4402000D-01 0.1871000D+02
EXPONENTS  0.4133000D+01 0.1200000D+01 0.1871000D+02 0.4133000D+01 0.1200000D+01
EXPONENTS  0.1871000D+02 0.4133000D+01 0.1200000D+01 0.3827000D+00 0.3827000D+00
EXPONENTS  0.3827000D+00 0.1209000D+00 0.1209000D+00 0.1209000D+00 0.3569000D-01
EXPONENTS  0.3569000D-01 0.3569000D-01 0.1097000D+01 0.1097000D+01 0.1097000D+01
EXPONENTS  0.1097000D+01 0.1097000D+01 0.1097000D+01 0.3180000D+00 0.3180000D+00
EXPONENTS  0.3180000D+00 0.3180000D+00 0.3180000D+00 0.3180000D+00 0.1000000D+00
EXPONENTS  0.1000000D+00 0.1000000D+00 0.1000000D+00 0.1000000D+00 0.1000000D+00
EXPONENTS  0.7610000D+00 0.7610000D+00 0.7610000D+00 0.7610000D+00 0.7610000D+00
EXPONENTS  0.7610000D+00 0.7610000D+00 0.7610000D+00 0.7610000D+00 0.7610000D+00
EXPONENTS  0.2680000D+00 0.2680000D+00 0.2680000D+00 0.2680000D+00 0.2680000D+00
EXPONENTS  0.2680000D+00 0.2680000D+00 0.2680000D+00 0.2680000D+00 0.2680000D+00
EXPONENTS  0.8236000D+04 0.1235000D+04 0.2808000D+03 0.7927000D+02 0.2559000D+02
EXPONENTS  0.8997000D+01 0.3319000D+01 0.3643000D+00 0.8236000D+04 0.1235000D+04
EXPONENTS  0.2808000D+03 0.7927000D+02 0.2559000D+02 0.8997000D+01 0.3319000D+01
EXPONENTS  0.3643000D+00 0.9059000D+00 0.1285000D+00 0.4402000D-01 0.1871000D+02
EXPONENTS  0.4133000D+01 0.1200000D+01 0.1871000D+02 0.4133000D+01 0.1200000D+01
EXPONENTS  0.1871000D+02 0.4133000D+01 0.1200000D+01 0.3827000D+00 0.3827000D+00
EXPONENTS  0.3827000D+00 0.1209000D+00 0.1209000D+00 0.1209000D+00 0.3569000D-01
EXPONENTS  0.3569000D-01 0.3569000D-01 0.1097000D+01 0.1097000D+01 0.1097000D+01
EXPONENTS  0.1097000D+01 0.1097000D+01 0.1097000D+01 0.3180000D+00 0.3180000D+00
EXPONENTS  0.3180000D+00 0.3180000D+00 0.3180000D+00 0.3180000D+00 0.1000000D+00
EXPONENTS  0.1000000D+00 0.1000000D+00 0.1000000D+00 0.1000000D+00 0.1000000D+00
EXPONENTS  0.7610000D+00 0.7610000D+00 0.7610000D+00 0.7610000D+00 0.7610000D+00
EXPONENTS  0.7610000D+00 0.7610000D+00 0.7610000D+00 0.7610000D+00 0.7610000D+00
EXPONENTS  0.2680000D+00 0.2680000D+00 0.2680000D+00 0.2680000D+00 0.2680000D+00
EXPONENTS  0.2680000D+00 0.2680000D+00 0.2680000D+00 0.2680000D+00 0.2680000D+00
EXPONENTS  0.1950000D+05 0.2923000D+04 0.6645000D+03 0.1875000D+03 0.6062000D+02
EXPONENTS  0.2142000D+02 0.7950000D+01 0.8815000D+00 0.1950000D+05 0.2923000D+04
EXPONENTS  0.6645000D+03 0.1875000D+03 0.6062000D+02 0.2142000D+02 0.7950000D+01
EXPONENTS  0.8815000D+00 0.2257000D+01 0.3041000D+00 0.9158000D-01 0.4388000D+02
EXPONENTS  0.9926000D+01 0.2930000D+01 0.4388000D+02 0.9926000D+01 0.2930000D+01
EXPONENTS  0.4388000D+02 0.9926000D+01 0.2930000D+01 0.9132000D+00 0.9132000D+00
EXPONENTS  0.9132000D+00 0.2672000D+00 0.2672000D+00 0.2672000D+00 0.7361000D-01
EXPONENTS  0.7361000D-01 0.7361000D-01 0.3107000D+01 0.3107000D+01 0.3107000D+01
EXPONENTS  0.3107000D+01 0.3107000D+01 0.3107000D+01 0.8550000D+00 0.8550000D+00
EXPONENTS  0.8550000D+00 0.8550000D+00 0.8550000D+00 0.8550000D+00 0.2920000D+00
EXPONENTS  0.2920000D+00 0.2920000D+00 0.2920000D+00 0.2920000D+00 0.2920000D+00
EXPONENTS  0.1917000D+01 0.1917000D+01 0.1917000D+01 0.1917000D+01 0.1917000D+01
EXPONENTS  0.1917000D+01 0.1917000D+01 0.1917000D+01 0.1917000D+01 0.1917000D+01
EXPONENTS  0.7240000D+00 0.7240000D+00 0.7240000D+00 0.7240000D+00 0.7240000D+00
EXPONENTS  0.7240000D+00 0.7240000D+00 0.7240000D+00 0.7240000D+00 0.7240000D+00
EXPONENTS  0.1950000D+05 0.2923000D+04 0.6645000D+03 0.1875000D+03 0.6062000D+02
EXPONENTS  0.2142000D+02 0.7950000D+01 0.8815000D+00 0.1950000D+05 0.2923000D+04
EXPONENTS  0.6645000D+03 0.1875000D+03 0.6062000D+02 0.2142000D+02 0.7950000D+01
EXPONENTS  0.8815000D+00 0.2257000D+01 0.3041000D+00 0.9158000D-01 0.4388000D+02
EXPONENTS  0.9926000D+01 0.2930000D+01 0.4388000D+02 0.9926000D+01 0.2930000D+01
EXPONENTS  0.4388000D+02 0.9926000D+01 0.2930000D+01 0.9132000D+00 0.9132000D+00
EXPONENTS  0.9132000D+00 0.2672000D+00 0.2672000D+00 0.2672000D+00 0.7361000D-01
EXPONENTS  0.7361000D-01 0.7361000D-01 0.3107000D+01 0.3107000D+01 0.3107000D+01
EXPONENTS  0.3107000D+01 0.3107000D+01 0.3107000D+01 0.8550000D+00 0.8550000D+00
EXPONENTS  0.8550000D+00 0.8550000D+00 0.8550000D+00 0.8550000D+00 0.2920000D+00
EXPONENTS  0.2920000D+00 0.2920000D+00 0.2920000D+00 0.2920000D+00 0.2920000D+00
EXPONENTS  0.1917000D+01 0.1917000D+01 0.1917000D+01 0.1917000D+01 0.1917000D+01
EXPONENTS  0.1917000D+01 0.1917000D+01 0.1917000D+01 0.1917000D+01 0.1917000D+01
EXPONENTS  0.7240000D+00 0.7240000D+00 0.7240000D+00 0.7240000D+00 0.7240000D+00
EXPONENTS  0.7240000D+00 0.7240000D+00 0.7240000D+00 0.7240000D+00 0.7240000D+00
EXPONENTS  0.1950000D+05 0.2923000D+04 0.6645000D+03 0.1875000D+03 0.6062000D+02
EXPONENTS  0.2142000D+02 0.7950000D+01 0.8815000D+00 0.1950000D+05 0.2923000D+04
EXPONENTS  0.6645000D+03 0.1875000D+03 0.6062000D+02 0.2142000D+02 0.7950000D+01
EXPONENTS  0.8815000D+00 0.2257000D+01 0.3041000D+00 0.9158000D-01 0.4388000D+02
EXPONENTS  0.9926000D+01 0.2930000D+01 0.4388000D+02 0.9926000D+01 0.2930000D+01
EXPONENTS  0.4388000D+02 0.9926000D+01 0.2930000D+01 0.9132000D+00 0.9132000D+00
EXPONENTS  0.9132000D+00 0.2672000D+00 0.2672000D+00 0.2672000D+00 0.7361000D-01
EXPONENTS  0.7361000D-01 0.7361000D-01 0.3107000D+01 0.3107000D+01 0.3107000D+01
EXPONENTS  0.3107000D+01 0.3107000D+01 0.3107000D+01 0.8550000D+00 0.8550000D+00
EXPONENTS  0.8550000D+00 0.8550000D+00 0.8550000D+00 0.8550000D+00 0.2920000D+00
EXPONENTS  0.2920000D+00 0.2920000D+00 0.2920000D+00 0.2920000D+00 0.2920000D+00
EXPONENTS  0.1917000D+01 0.1917000D+01 0.1917000D+01 0.1917000D+01 0.1917000D+01
EXPONENTS  0.1917000D+01 0.1917000D+01 0.1917000D+01 0.1917000D+01 0.1917000D+01
EXPONENTS  0.7240000D+00 0.7240000D+00 0.7240000D+00 0.7240000D+00 0.7240000D+00
EXPONENTS  0.7240000D+00 0.7240000D+00 0.7240000D+00 0.7240000D+00 0.7240000D+00
EXPONENTS  0.1950000D+05 0.2923000D+04 0.6645000D+03 0.1875000D+03 0.6062000D+02
EXPONENTS  0.2142000D+02 0.7950000D+01 0.8815000D+00 0.1950000D+05 0.2923000D+04
EXPONENTS  0.6645000D+03 0.1875000D+03 0.6062000D+02 0.2142000D+02 0.7950000D+01
EXPONENTS  0.8815000D+00 0.2257000D+01 0.3041000D+00 0.9158000D-01 0.4388000D+02
EXPONENTS  0.9926000D+01 0.2930000D+01 0.4388000D+02 0.9926000D+01 0.2930000D+01
EXPONENTS  0.4388000D+02 0.9926000D+01 0.2930000D+01 0.9132000D+00 0.9132000D+00
EXPONENTS  0.9132000D+00 0.2672000D+00 0.2672000D+00 0.2672000D+00 0.7361000D-01
EXPONENTS  0.7361000D-01 0.7361000D-01 0.3107000D+01 0.3107000D+01 0.3107000D+01
EXPONENTS  0.3107000D+01 0.3107000D+01 0.3107000D+01 0.8550000D+00 0.8550000D+00
EXPONENTS  0.8550000D+00 0.8550000D+00 0.8550000D+00 0.8550000D+00 0.2920000D+00
EXPONENTS  0.2920000D+00 0.2920000D+00 0.2920000D+00 0.2920000D+00 0.2920000D+00
EXPONENTS  0.1917000D+01 0.1917000D+01 0.1917000D+01 0.1917000D+01 0.1917000D+01
EXPONENTS  0.1917000D+01 0.1917000D+01 0.1917000D+01 0.1917000D+01 0.1917000D+01
EXPONENTS  0.7240000D+00 0.7240000D+00 0.7240000D+00 0.7240000D+00 0.7240000D+00
EXPONENTS  0.7240000D+00 0.7240000D+00 0.7240000D+00 0.7240000D+00 0.7240000D+00
MO    1     MO 0.0        OCC NO =    2.0000000  ORB. ENERGY =  -24.545352
  0.15820245D-03  0.29492534D-03  0.49847578D-03  0.74937238D-03  0.92069056D-03
  0.77767036D-03  0.29330865D-03 -0.14516009D-05 -0.11514879D-03 -0.21559486D-03
 -0.36706870D-03 -0.56779947D-03 -0.74777192D-03 -0.77698293D-03 -0.49373777D-03
  0.33089157D-03 -0.42708539D-03  0.63581353D-02  0.84223351D-04  0.67998504D-03
  0.63752920D-03  0.45395877D-03 -0.36650563D-11 -0.34362233D-11 -0.24467957D-11
 -0.13256110D-15 -0.12428445D-15 -0.88497935D-16 -0.38049627D-02  0.15992721D-10
  0.60521988D-16  0.26454997D-02  0.15244200D-11 -0.18494171D-16  0.19941601D-05
  0.93404518D-13 -0.72731732D-19 -0.16654748D-03  0.65681888D-03 -0.49027140D-03
 -0.13729750D-10  0.12480673D-17  0.13088811D-18 -0.78854369D-03  0.11532960D-02
 -0.36475236D-03 -0.93271168D-11 -0.20263251D-17  0.40678327D-18  0.14310047D-03
 -0.17889777D-03  0.35797300D-04  0.34107118D-12 -0.57766735D-18  0.77209999D-19
  0.14130002D-03  0.72319424D-12  0.44088108D-18 -0.11420128D-02  0.35210492D-11
 -0.38164356D-18  0.71811273D-03 -0.56906320D-11 -0.94099967D-18 -0.31935995D-18
 -0.21278084D-03  0.37110323D-12  0.38460708D-18  0.85972797D-03 -0.11327630D-11
 -0.10148328D-17 -0.22138545D-03  0.19453270D-13 -0.13898846D-18 -0.24445955D-18
 -0.15820245D-03 -0.29492534D-03 -0.49847577D-03 -0.74937237D-03 -0.92069054D-03
 -0.77767034D-03 -0.29330864D-03  0.14516008D-05  0.11514879D-03  0.21559486D-03
  0.36706869D-03  0.56779946D-03  0.74777191D-03  0.77698291D-03  0.49373776D-03
 -0.33089157D-03  0.42708539D-03 -0.63581353D-02 -0.84223350D-04  0.67998504D-03
  0.63752920D-03  0.45395877D-03  0.38102589D-11  0.35723599D-11  0.25437331D-11
 -0.14830925D-17 -0.13904935D-17 -0.99011420D-18 -0.38049627D-02 -0.16708046D-10
  0.23352948D-17  0.26454997D-02 -0.15836126D-11  0.25646728D-17  0.19941600D-05
 -0.94684048D-13  0.41244870D-19  0.16654748D-03 -0.65681887D-03  0.49027139D-03
 -0.14339401D-10  0.15596670D-17 -0.26651434D-18  0.78854369D-03 -0.11532960D-02
  0.36475236D-03 -0.95015321D-11 -0.37185447D-17  0.41828772D-18 -0.14310047D-03
  0.17889777D-03 -0.35797301D-04  0.34470592D-12 -0.52791330D-18 -0.50216699D-19
  0.14130002D-03 -0.75705262D-12 -0.11210200D-19 -0.11420128D-02 -0.35757361D-11
  0.80939429D-18  0.71811273D-03  0.58468940D-11 -0.77576369D-18  0.17963770D-18
 -0.21278084D-03 -0.39063982D-12 -0.19631566D-18  0.85972797D-03  0.11958239D-11
  0.75471889D-18 -0.22138545D-03 -0.23904411D-13 -0.16577191D-18  0.19232557D-19
  0.29745234D+00  0.55446406D+00  0.93995289D+00  0.14233657D+01  0.17799238D+01
  0.15323486D+01  0.58909074D+00 -0.25526266D-02 -0.89512142D-04 -0.16808795D-03
 -0.28622479D-03 -0.44836944D-03 -0.60086780D-03 -0.64631433D-03 -0.38804627D-03
  0.25519556D-03  0.32178830D-01 -0.11278120D-03  0.35774113D-03  0.22429198D-02
  0.21935265D-02  0.14493557D-02  0.31956497D-02  0.31252756D-02  0.20650017D-02
 -0.49407727D-17 -0.48319678D-17 -0.31926854D-17 -0.39888348D-03 -0.50438877D-03
 -0.16809006D-18 -0.10058872D-02 -0.90026090D-03  0.17124980D-17  0.47955955D-04
 -0.14472498D-04 -0.12826532D-18  0.11795800D-03  0.36748200D-03 -0.48543999D-03
  0.53752954D-03 -0.80025459D-18 -0.33914073D-17 -0.64477432D-04 -0.36913142D-03
  0.43360885D-03 -0.89485723D-03  0.52272365D-18 -0.30052170D-18 -0.13608718D-03
 -0.13358024D-03  0.26966742D-03 -0.55859482D-03  0.63414251D-18  0.11612049D-17
  0.17226079D-03  0.18971113D-03  0.27504037D-17 -0.31399694D-04  0.10293064D-03
 -0.34763423D-17 -0.48538267D-03 -0.67206404D-03 -0.47748687D-17  0.17617031D-17
  0.13923298D-04 -0.11303089D-03 -0.10448691D-17 -0.42973024D-03 -0.20613362D-03
  0.13448928D-17  0.38796035D-03  0.54522630D-03  0.17897144D-17  0.14635674D-17
 -0.29745234D+00 -0.55446405D+00 -0.93995288D+00 -0.14233657D+01 -0.17799238D+01
 -0.15323486D+01 -0.58909074D+00  0.25526266D-02  0.89512143D-04  0.16808795D-03
  0.28622479D-03  0.44836944D-03  0.60086780D-03  0.64631434D-03  0.38804628D-03
 -0.25519556D-03 -0.32178830D-01  0.11278120D-03 -0.35774113D-03  0.22429197D-02
  0.21935265D-02  0.14493557D-02 -0.31956497D-02 -0.31252756D-02 -0.20650017D-02
 -0.91925668D-17 -0.89901296D-17 -0.59401587D-17 -0.39888347D-03  0.50438876D-03
  0.55432970D-18 -0.10058872D-02  0.90026090D-03  0.24151866D-18  0.47955956D-04
  0.14472498D-04 -0.87196951D-20 -0.11795800D-03 -0.36748199D-03  0.48543999D-03
  0.53752954D-03 -0.48484215D-17 -0.46911463D-17  0.64477432D-04  0.36913141D-03
 -0.43360885D-03 -0.89485722D-03  0.45989533D-18  0.36235087D-18  0.13608718D-03
  0.13358024D-03 -0.26966742D-03 -0.55859482D-03 -0.33364228D-18  0.20610816D-18
  0.17226079D-03 -0.18971113D-03 -0.81128989D-18 -0.31399695D-04 -0.10293064D-03
  0.81639614D-18 -0.48538267D-03  0.67206404D-03  0.16174735D-17  0.24413065D-17
  0.13923298D-04  0.11303089D-03  0.18185943D-19 -0.42973024D-03  0.20613362D-03
  0.75815505D-19  0.38796035D-03 -0.54522630D-03 -0.13037333D-18 -0.12688344D-17
  0.29745235D+00  0.55446407D+00  0.93995291D+00  0.14233657D+01  0.17799238D+01
  0.15323486D+01  0.58909075D+00 -0.25526267D-02 -0.89512141D-04 -0.16808795D-03
 -0.28622479D-03 -0.44836943D-03 -0.60086779D-03 -0.64631432D-03 -0.38804627D-03
  0.25519555D-03  0.32178831D-01 -0.11278121D-03  0.35774112D-03  0.22429198D-02
  0.21935266D-02  0.14493557D-02 -0.31956498D-02 -0.31252757D-02 -0.20650018D-02
 -0.50357688D-17 -0.49248719D-17 -0.32540711D-17 -0.39888348D-03  0.50438878D-03
 -0.31331189D-18 -0.10058872D-02  0.90026091D-03  0.10146287D-17  0.47955955D-04
  0.14472498D-04 -0.22332020D-18  0.11795800D-03  0.36748200D-03 -0.48544000D-03
 -0.53752955D-03  0.37441117D-17 -0.93093749D-17 -0.64477431D-04 -0.36913142D-03
  0.43360885D-03  0.89485724D-03  0.36139769D-18 -0.26940440D-18 -0.13608718D-03
 -0.13358024D-03  0.26966742D-03  0.55859482D-03  0.37559119D-18 -0.64296236D-18
  0.17226079D-03 -0.18971113D-03  0.15216143D-17 -0.31399686D-04 -0.10293065D-03
 -0.42319266D-17 -0.48538267D-03  0.67206405D-03 -0.33291615D-18 -0.16621976D-17
  0.13923300D-04  0.11303089D-03 -0.82435297D-18 -0.42973025D-03  0.20613362D-03
  0.15041037D-17  0.38796035D-03 -0.54522630D-03  0.96895522D-18 -0.25738897D-18
 -0.29745235D+00 -0.55446406D+00 -0.93995290D+00 -0.14233657D+01 -0.17799238D+01
 -0.15323486D+01 -0.58909075D+00  0.25526266D-02  0.89512142D-04  0.16808795D-03
  0.28622479D-03  0.44836944D-03  0.60086779D-03  0.64631433D-03  0.38804627D-03
 -0.25519556D-03 -0.32178831D-01  0.11278121D-03 -0.35774112D-03  0.22429198D-02
  0.21935266D-02  0.14493557D-02  0.31956497D-02  0.31252756D-02  0.20650018D-02
 -0.74351035D-18 -0.72713688D-18 -0.48045008D-18 -0.39888348D-03 -0.50438877D-03
  0.49360042D-19 -0.10058872D-02 -0.90026091D-03  0.73516180D-19  0.47955955D-04
 -0.14472498D-04  0.39929957D-19 -0.11795800D-03 -0.36748200D-03  0.48544000D-03
 -0.53752955D-03 -0.44051918D-17 -0.45528307D-18  0.64477432D-04  0.36913142D-03
 -0.43360885D-03  0.89485724D-03  0.24197421D-18 -0.31461863D-18  0.13608718D-03
  0.13358024D-03 -0.26966742D-03  0.55859482D-03 -0.14109188D-18  0.28401463D-19
  0.17226079D-03  0.18971113D-03 -0.43391337D-18 -0.31399687D-04  0.10293065D-03
 -0.38925974D-18 -0.48538267D-03 -0.67206404D-03  0.16909998D-17 -0.30776122D-17
  0.13923300D-04 -0.11303089D-03  0.76420270D-19 -0.42973025D-03 -0.20613362D-03
 -0.15191656D-19  0.38796035D-03  0.54522630D-03 -0.21406915D-18  0.48735510D-18
MO    2     MO 0.0        OCC NO =    2.0000000  ORB. ENERGY =  -24.545347
  0.18464410D-11  0.34421858D-11  0.58179004D-11  0.87462099D-11  0.10745729D-10
  0.90764864D-11  0.34233167D-11 -0.16942185D-13 -0.13359192D-11 -0.25012623D-11
 -0.42586131D-11 -0.65874269D-11 -0.86754095D-11 -0.90143062D-11 -0.57281869D-11
  0.38388977D-11 -0.43095890D-11  0.59505680D-10  0.12735422D-11  0.65976605D-11
  0.61857261D-11  0.44046055D-11  0.39513161D-03  0.37046100D-03  0.26379030D-03
  0.82530643D-16  0.77377724D-16  0.55097549D-16 -0.36681283D-10 -0.17366816D-02
 -0.44457403D-17  0.24295753D-10 -0.16616455D-03 -0.54099370D-17  0.41412913D-13
 -0.97484911D-05  0.13521785D-17 -0.16534042D-11  0.67542257D-11 -0.51008216D-11
  0.14893605D-02  0.75180852D-16 -0.12705584D-15 -0.73646667D-11  0.10982523D-10
 -0.36178561D-11  0.97993042D-03 -0.56329708D-17  0.40114948D-16  0.13221918D-11
 -0.16354013D-11  0.31320946D-12 -0.41158733D-04  0.10562367D-17 -0.72156434D-17
  0.13655756D-11 -0.77692185D-04 -0.40176370D-17 -0.11176401D-10 -0.37738750D-03
 -0.45467190D-15  0.70796738D-11  0.61046406D-03  0.46672481D-15  0.89072999D-16
 -0.19666075D-11 -0.38209544D-04  0.18597036D-18  0.79720831D-11  0.11788333D-03
 -0.36535308D-17 -0.20722604D-11 -0.32546955D-05  0.30956198D-17 -0.26310664D-17
 -0.11292544D-11 -0.21051869D-11 -0.35581367D-11 -0.53490450D-11 -0.65719198D-11
 -0.55510369D-11 -0.20936469D-11  0.10361575D-13  0.82966102D-12  0.15533872D-11
  0.26447746D-11  0.40910642D-11  0.53877877D-11  0.55982565D-11  0.35574407D-11
 -0.23841140D-11  0.37519862D-11 -0.58202095D-10 -0.11459367D-11  0.62770065D-11
  0.58850926D-11  0.41905365D-11 -0.39513159D-03 -0.37046098D-03 -0.26379029D-03
 -0.42904866D-17 -0.40226039D-17 -0.28643336D-17 -0.34982271D-10  0.17366815D-02
 -0.50837104D-17  0.24336473D-10  0.16616454D-03 -0.45587816D-19  0.39003303D-13
  0.97484909D-05  0.14243260D-18  0.15008814D-11 -0.56429239D-11  0.41420425D-11
  0.14893604D-02  0.24474303D-16 -0.11135452D-18  0.75025236D-11 -0.10733060D-10
  0.32305369D-11  0.97993040D-03  0.72459874D-17  0.17042687D-18 -0.12955031D-11
  0.16268690D-11 -0.33136590D-12 -0.41158733D-04 -0.13602656D-18  0.84109082D-20
  0.12806653D-11  0.77692179D-04  0.10186992D-17 -0.10334857D-10  0.37738749D-03
 -0.71744574D-17  0.64928614D-11 -0.61046403D-03  0.41183598D-17 -0.76783378D-18
 -0.20063924D-11  0.38209541D-04  0.21310560D-18  0.80761488D-11 -0.11788332D-03
 -0.88913035D-18 -0.20569717D-11  0.32546949D-05  0.24981354D-18  0.10330843D-18
  0.29722750D+00  0.55404494D+00  0.93924239D+00  0.14222898D+01  0.17785784D+01
  0.15311903D+01  0.58864545D+00 -0.25506971D-02  0.64604257D-04  0.12131535D-03
  0.20657913D-03  0.32360498D-03  0.43366874D-03  0.46646920D-03  0.28006750D-03
 -0.18418417D-03  0.32188649D-01 -0.75215625D-03 -0.22340527D-03  0.21876933D-02
  0.21395163D-02  0.14136689D-02  0.33041530D-02  0.32313895D-02  0.21351157D-02
  0.36752383D-16  0.35943028D-16  0.23749078D-16 -0.42899814D-03 -0.71167883D-03
  0.64910248D-18 -0.57055602D-03 -0.65342461D-03  0.33390527D-17 -0.18007263D-04
 -0.17183827D-04  0.24685865D-18 -0.45215276D-06  0.15258327D-03 -0.15213112D-03
  0.65226382D-03  0.16059159D-17  0.19718859D-16  0.25757000D-04 -0.26777406D-03
  0.24201706D-03 -0.77704733D-03  0.11088756D-16 -0.27230321D-17 -0.22838342D-04
 -0.91554517D-04  0.11439286D-03 -0.30992006D-03 -0.15817807D-17  0.42300725D-17
 -0.63920466D-04 -0.84921613D-04  0.98112412D-19  0.41364061D-03  0.43064752D-03
  0.23964951D-17 -0.22187921D-03 -0.17588268D-03 -0.26908323D-17 -0.70983750D-18
  0.83444082D-04 -0.11283426D-04 -0.67953078D-18 -0.46732462D-03 -0.23966351D-03
  0.16733573D-17  0.21699238D-03  0.27351379D-03  0.36523500D-18  0.74304040D-17
 -0.29722748D+00 -0.55404491D+00 -0.93924233D+00 -0.14222897D+01 -0.17785783D+01
 -0.15311902D+01 -0.58864541D+00  0.25506969D-02 -0.64604251D-04 -0.12131534D-03
 -0.20657910D-03 -0.32360494D-03 -0.43366869D-03 -0.46646915D-03 -0.28006747D-03
  0.18418415D-03 -0.32188647D-01  0.75215622D-03  0.22340526D-03  0.21876932D-02
  0.21395162D-02  0.14136688D-02 -0.33041528D-02 -0.32313893D-02 -0.21351155D-02
 -0.61384790D-17 -0.60032984D-17 -0.39666331D-17 -0.42899811D-03  0.71167879D-03
  0.16264009D-17 -0.57055599D-03  0.65342458D-03 -0.97525580D-18 -0.18007262D-04
  0.17183826D-04 -0.68998033D-19  0.45215437D-06 -0.15258327D-03  0.15213111D-03
  0.65226378D-03 -0.80022410D-17 -0.62561926D-17 -0.25757002D-04  0.26777405D-03
 -0.24201705D-03 -0.77704729D-03  0.49649074D-18  0.72416537D-18  0.22838341D-04
  0.91554514D-04 -0.11439285D-03 -0.30992005D-03  0.65080350D-18 -0.78498406D-18
 -0.63920454D-04  0.84921609D-04 -0.10033260D-17  0.41364058D-03 -0.43064750D-03
  0.18408140D-17 -0.22187921D-03  0.17588267D-03  0.11691641D-17 -0.42002303D-17
  0.83444075D-04  0.11283426D-04  0.28692629D-18 -0.46732459D-03  0.23966349D-03
 -0.47363903D-18  0.21699237D-03 -0.27351377D-03 -0.38713983D-18  0.16920400D-17
 -0.29722750D+00 -0.55404493D+00 -0.93924237D+00 -0.14222898D+01 -0.17785783D+01
 -0.15311903D+01 -0.58864544D+00  0.25506971D-02 -0.64604259D-04 -0.12131536D-03
 -0.20657913D-03 -0.32360498D-03 -0.43366875D-03 -0.46646921D-03 -0.28006750D-03
  0.18418417D-03 -0.32188648D-01  0.75215625D-03  0.22340528D-03 -0.21876933D-02
 -0.21395163D-02 -0.14136689D-02  0.33041530D-02  0.32313894D-02  0.21351156D-02
  0.21501596D-16  0.21028091D-16  0.13894149D-16  0.42899813D-03 -0.71167882D-03
  0.17703583D-17  0.57055600D-03 -0.65342459D-03  0.20330254D-17  0.18007264D-04
 -0.17183827D-04  0.30802055D-18  0.45215465D-06 -0.15258327D-03  0.15213111D-03
  0.65226381D-03 -0.49716346D-16 -0.11268068D-16 -0.25757001D-04  0.26777406D-03
 -0.24201706D-03 -0.77704732D-03  0.23346340D-17 -0.10590949D-18  0.22838340D-04
  0.91554514D-04 -0.11439285D-03 -0.30992005D-03  0.86013739D-19 -0.22510412D-17
  0.63920470D-04 -0.84921617D-04  0.74861500D-18 -0.41364061D-03  0.43064752D-03
 -0.12908027D-16  0.22187920D-03 -0.17588267D-03  0.10662182D-16 -0.13500600D-16
 -0.83444082D-04 -0.11283424D-04 -0.75422868D-18  0.46732461D-03 -0.23966350D-03
  0.16176971D-17 -0.21699237D-03  0.27351377D-03  0.64498890D-18 -0.90717245D-17
  0.29722748D+00  0.55404490D+00  0.93924231D+00  0.14222897D+01  0.17785782D+01
  0.15311902D+01  0.58864540D+00 -0.25506969D-02  0.64604253D-04  0.12131534D-03
  0.20657911D-03  0.32360495D-03  0.43366871D-03  0.46646917D-03  0.28006747D-03
 -0.18418415D-03  0.32188646D-01 -0.75215622D-03 -0.22340526D-03 -0.21876932D-02
 -0.21395161D-02 -0.14136688D-02 -0.33041528D-02 -0.32313892D-02 -0.21351155D-02
  0.17290490D-17  0.16909722D-17  0.11172968D-17  0.42899810D-03  0.71167879D-03
  0.12737024D-18  0.57055597D-03  0.65342456D-03 -0.69104347D-18  0.18007263D-04
  0.17183825D-04 -0.14825877D-19 -0.45215693D-06  0.15258326D-03 -0.15213111D-03
  0.65226377D-03 -0.12439852D-17  0.21070232D-17  0.25757003D-04 -0.26777405D-03
  0.24201704D-03 -0.77704727D-03  0.15800179D-17 -0.24272360D-18 -0.22838338D-04
 -0.91554511D-04  0.11439285D-03 -0.30992004D-03 -0.28320833D-18  0.60074753D-18
  0.63920458D-04  0.84921613D-04 -0.28187927D-19 -0.41364058D-03 -0.43064750D-03
 -0.14085507D-17  0.22187920D-03  0.17588266D-03  0.14931145D-17 -0.29162924D-17
 -0.83444075D-04  0.11283424D-04 -0.17632805D-19  0.46732459D-03  0.23966349D-03
  0.53780399D-18 -0.21699236D-03 -0.27351376D-03 -0.48490557D-18 -0.51933355D-18
MO    3     MO 0.0        OCC NO =    2.0000000  ORB. ENERGY =  -24.545346
  0.12356005D-10  0.23034403D-10  0.38932199D-10  0.58527848D-10  0.71908223D-10
  0.60737990D-10  0.22908135D-10 -0.11337364D-12 -0.87217992D-11 -0.16329960D-10
 -0.27803154D-10 -0.43007252D-10 -0.56639038D-10 -0.58851588D-10 -0.37397542D-10
  0.25062963D-10 -0.97197021D-11  0.23571851D-10  0.22391164D-11  0.56661639D-11
  0.53123888D-11  0.37827373D-11 -0.36103189D-03 -0.33849035D-03 -0.24102529D-03
  0.93235345D-17  0.87414062D-17  0.62244020D-17 -0.30057044D-10  0.17584098D-02
 -0.17580405D-16 -0.20701631D-12  0.15333333D-03  0.81033759D-17  0.41815207D-13
  0.31634964D-05  0.15760571D-18 -0.26801299D-11  0.19254707D-10 -0.16574578D-10
 -0.14928624D-02 -0.91721602D-16 -0.27011449D-15  0.22350214D-11  0.45217298D-11
 -0.67567511D-11 -0.43586166D-03  0.36232504D-16  0.76974880D-16  0.49147169D-12
 -0.18410996D-12 -0.30736173D-12  0.75431816D-05 -0.34993920D-17 -0.17653597D-16
  0.14947511D-11  0.83917402D-04 -0.80024106D-17 -0.14741394D-10  0.13380978D-03
  0.24550694D-15  0.10257140D-10 -0.38556198D-03 -0.22149971D-15 -0.26110214D-16
  0.64872933D-12  0.47333249D-04 -0.47608052D-18 -0.16365070D-11 -0.15189164D-03
  0.26168452D-17 -0.30968102D-12  0.98918922D-05 -0.11886036D-17  0.54643679D-18
  0.12293099D-10  0.22917132D-10  0.38733990D-10  0.58229874D-10  0.71542128D-10
  0.60428764D-10  0.22791507D-10 -0.11279644D-12 -0.86759804D-11 -0.16244173D-10
 -0.27657094D-10 -0.42781319D-10 -0.56341492D-10 -0.58542419D-10 -0.37201079D-10
  0.24931298D-10 -0.95502492D-11  0.21275277D-10  0.21504913D-11 -0.53827100D-11
 -0.50466327D-11 -0.35935032D-11 -0.36103191D-03 -0.33849037D-03 -0.24102531D-03
  0.23326961D-17  0.21870508D-17  0.15573105D-17  0.28513353D-10  0.17584099D-02
  0.11418444D-17  0.11425379D-11  0.15333334D-03 -0.94708417D-19 -0.38026821D-13
  0.31634970D-05 -0.10866860D-19 -0.26085637D-11  0.18983094D-10 -0.16374531D-10
  0.14928625D-02 -0.13315601D-16 -0.67773498D-18  0.25552860D-11  0.40625020D-11
 -0.66177880D-11  0.43586173D-03 -0.83682486D-18  0.11301827D-17  0.44146983D-12
 -0.12123422D-12 -0.32023561D-12 -0.75431843D-05  0.31070436D-18 -0.37758118D-19
 -0.14419302D-11  0.83917407D-04  0.94396746D-18  0.14286365D-10  0.13380980D-03
  0.15180742D-18 -0.99605740D-11 -0.38556202D-03 -0.29837098D-17  0.70638814D-18
 -0.73156171D-12  0.47333251D-04 -0.37756304D-18  0.19694083D-11 -0.15189165D-03
  0.10445682D-17  0.22527680D-12  0.98918924D-05  0.88120952D-19 -0.24289368D-19
 -0.29717091D+00 -0.55393946D+00 -0.93906356D+00 -0.14220190D+01 -0.17782397D+01
 -0.15308988D+01 -0.58853338D+00  0.25502115D-02 -0.10306307D-03 -0.19353419D-03
 -0.32955534D-03 -0.51624650D-03 -0.69183104D-03 -0.74415756D-03 -0.44679122D-03
  0.29382871D-03 -0.32197286D-01  0.44288064D-03  0.27091951D-03 -0.22088705D-02
 -0.21602271D-02 -0.14273534D-02 -0.31514431D-02 -0.30820426D-02 -0.20364358D-02
  0.11196449D-16  0.10949883D-16  0.72350505D-17  0.45873472D-03  0.58150079D-03
  0.31323621D-17  0.46214456D-03  0.41240491D-03 -0.43152888D-17  0.16893212D-04
  0.23387053D-04  0.16572707D-18 -0.30338987D-04 -0.87331938D-04  0.11767092D-03
 -0.60192667D-03 -0.10042788D-16 -0.75302445D-17  0.26614141D-04  0.19330750D-03
 -0.21992164D-03  0.72010344D-03 -0.53125479D-18  0.20508669D-17  0.20966613D-04
  0.46992331D-04 -0.67958945D-04  0.23508047D-03 -0.10535624D-17 -0.29625400D-17
  0.18890164D-03  0.68931955D-04 -0.36298925D-18 -0.54827016D-03 -0.31641709D-03
  0.10507904D-16 -0.18434765D-04  0.10962123D-03 -0.94189365D-17 -0.15666737D-16
 -0.11418783D-03 -0.50267468D-05  0.46341136D-18  0.46309427D-03  0.22902767D-03