 Molden2AIM, Version 4.0.0 (06/02/2016)           Time: Sat Jun 30 06:02:28 2018
GAUSSIAN             33 MOL ORBITALS    600 PRIMITIVES        8 NUCLEI
  C    1    (CENTRE  1)  -1.46016681 -0.03828396  0.03469915  CHARGE =  6.0
  C    2    (CENTRE  2)   1.46016681  0.03828396 -0.03469915  CHARGE =  6.0
  F    3    (CENTRE  3)  -2.31828955  1.58999666  1.75442551  CHARGE =  9.0
  F    4    (CENTRE  4)   2.31828955 -1.58999666 -1.75442551  CHARGE =  9.0
  F    5    (CENTRE  5)  -2.38476256  0.58634800 -2.22397332  CHARGE =  9.0
  F    6    (CENTRE  6)   2.38476256 -0.58634800  2.22397332  CHARGE =  9.0
  F    7    (CENTRE  7)  -2.23833524 -2.35791711  0.63473066  CHARGE =  9.0
  F    8    (CENTRE  8)   2.23833524  2.35791711 -0.63473066  CHARGE =  9.0
CENTRE ASSIGNMENTS    1  1  1  1  1  1  1  1  1  1  1  1  1  1  1  1  1  1  1  1
CENTRE ASSIGNMENTS    1  1  1  1  1  1  1  1  1  1  1  1  1  1  1  1  1  1  1  1
CENTRE ASSIGNMENTS    1  1  1  1  1  1  1  1  1  1  1  1  1  1  1  1  1  1  1  1
CENTRE ASSIGNMENTS    1  1  1  1  1  1  1  1  1  1  1  1  1  1  1  2  2  2  2  2
CENTRE ASSIGNMENTS    2  2  2  2  2  2  2  2  2  2  2  2  2  2  2  2  2  2  2  2
CENTRE ASSIGNMENTS    2  2  2  2  2  2  2  2  2  2  2  2  2  2  2  2  2  2  2  2
CENTRE ASSIGNMENTS    2  2  2  2  2  2  2  2  2  2  2  2  2  2  2  2  2  2  2  2
CENTRE ASSIGNMENTS    2  2  2  2  2  2  2  2  2  2  3  3  3  3  3  3  3  3  3  3
CENTRE ASSIGNMENTS    3  3  3  3  3  3  3  3  3  3  3  3  3  3  3  3  3  3  3  3
CENTRE ASSIGNMENTS    3  3  3  3  3  3  3  3  3  3  3  3  3  3  3  3  3  3  3  3
CENTRE ASSIGNMENTS    3  3  3  3  3  3  3  3  3  3  3  3  3  3  3  3  3  3  3  3
CENTRE ASSIGNMENTS    3  3  3  3  3  4  4  4  4  4  4  4  4  4  4  4  4  4  4  4
CENTRE ASSIGNMENTS    4  4  4  4  4  4  4  4  4  4  4  4  4  4  4  4  4  4  4  4
CENTRE ASSIGNMENTS    4  4  4  4  4  4  4  4  4  4  4  4  4  4  4  4  4  4  4  4
CENTRE ASSIGNMENTS    4  4  4  4  4  4  4  4  4  4  4  4  4  4  4  4  4  4  4  4
CENTRE ASSIGNMENTS    5  5  5  5  5  5  5  5  5  5  5  5  5  5  5  5  5  5  5  5
CENTRE ASSIGNMENTS    5  5  5  5  5  5  5  5  5  5  5  5  5  5  5  5  5  5  5  5
CENTRE ASSIGNMENTS    5  5  5  5  5  5  5  5  5  5  5  5  5  5  5  5  5  5  5  5
CENTRE ASSIGNMENTS    5  5  5  5  5  5  5  5  5  5  5  5  5  5  5  6  6  6  6  6
CENTRE ASSIGNMENTS    6  6  6  6  6  6  6  6  6  6  6  6  6  6  6  6  6  6  6  6
CENTRE ASSIGNMENTS    6  6  6  6  6  6  6  6  6  6  6  6  6  6  6  6  6  6  6  6
CENTRE ASSIGNMENTS    6  6  6  6  6  6  6  6  6  6  6  6  6  6  6  6  6  6  6  6
CENTRE ASSIGNMENTS    6  6  6  6  6  6  6  6  6  6  7  7  7  7  7  7  7  7  7  7
CENTRE ASSIGNMENTS    7  7  7  7  7  7  7  7  7  7  7  7  7  7  7  7  7  7  7  7
CENTRE ASSIGNMENTS    7  7  7  7  7  7  7  7  7  7  7  7  7  7  7  7  7  7  7  7
CENTRE ASSIGNMENTS    7  7  7  7  7  7  7  7  7  7  7  7  7  7  7  7  7  7  7  7
CENTRE ASSIGNMENTS    7  7  7  7  7  8  8  8  8  8  8  8  8  8  8  8  8  8  8  8
CENTRE ASSIGNMENTS    8  8  8  8  8  8  8  8  8  8  8  8  8  8  8  8  8  8  8  8
CENTRE ASSIGNMENTS    8  8  8  8  8  8  8  8  8  8  8  8  8  8  8  8  8  8  8  8
CENTRE ASSIGNMENTS    8  8  8  8  8  8  8  8  8  8  8  8  8  8  8  8  8  8  8  8
TYPE ASSIGNMENTS      1  1  1  1  1  1  1  1  1  1  1  1  1  1  1  1  1  1  1  2
TYPE ASSIGNMENTS      2  2  3  3  3  4  4  4  2  3  4  2  3  4  2  3  4  5  6  7
TYPE ASSIGNMENTS      8  9 10  5  6  7  8  9 10  5  6  7  8  9 10 11 12 13 17 14
TYPE ASSIGNMENTS     15 18 19 16 20 11 12 13 17 14 15 18 19 16 20  1  1  1  1  1
TYPE ASSIGNMENTS      1  1  1  1  1  1  1  1  1  1  1  1  1  1  2  2  2  3  3  3
TYPE ASSIGNMENTS      4  4  4  2  3  4  2  3  4  2  3  4  5  6  7  8  9 10  5  6
TYPE ASSIGNMENTS      7  8  9 10  5  6  7  8  9 10 11 12 13 17 14 15 18 19 16 20
TYPE ASSIGNMENTS     11 12 13 17 14 15 18 19 16 20  1  1  1  1  1  1  1  1  1  1
TYPE ASSIGNMENTS      1  1  1  1  1  1  1  1  1  2  2  2  3  3  3  4  4  4  2  3
TYPE ASSIGNMENTS      4  2  3  4  2  3  4  5  6  7  8  9 10  5  6  7  8  9 10  5
TYPE ASSIGNMENTS      6  7  8  9 10 11 12 13 17 14 15 18 19 16 20 11 12 13 17 14
TYPE ASSIGNMENTS     15 18 19 16 20  1  1  1  1  1  1  1  1  1  1  1  1  1  1  1
TYPE ASSIGNMENTS      1  1  1  1  2  2  2  3  3  3  4  4  4  2  3  4  2  3  4  2
TYPE ASSIGNMENTS      3  4  5  6  7  8  9 10  5  6  7  8  9 10  5  6  7  8  9 10
TYPE ASSIGNMENTS     11 12 13 17 14 15 18 19 16 20 11 12 13 17 14 15 18 19 16 20
TYPE ASSIGNMENTS      1  1  1  1  1  1  1  1  1  1  1  1  1  1  1  1  1  1  1  2
TYPE ASSIGNMENTS      2  2  3  3  3  4  4  4  2  3  4  2  3  4  2  3  4  5  6  7
TYPE ASSIGNMENTS      8  9 10  5  6  7  8  9 10  5  6  7  8  9 10 11 12 13 17 14
TYPE ASSIGNMENTS     15 18 19 16 20 11 12 13 17 14 15 18 19 16 20  1  1  1  1  1
TYPE ASSIGNMENTS      1  1  1  1  1  1  1  1  1  1  1  1  1  1  2  2  2  3  3  3
TYPE ASSIGNMENTS      4  4  4  2  3  4  2  3  4  2  3  4  5  6  7  8  9 10  5  6
TYPE ASSIGNMENTS      7  8  9 10  5  6  7  8  9 10 11 12 13 17 14 15 18 19 16 20
TYPE ASSIGNMENTS     11 12 13 17 14 15 18 19 16 20  1  1  1  1  1  1  1  1  1  1
TYPE ASSIGNMENTS      1  1  1  1  1  1  1  1  1  2  2  2  3  3  3  4  4  4  2  3
TYPE ASSIGNMENTS      4  2  3  4  2  3  4  5  6  7  8  9 10  5  6  7  8  9 10  5
TYPE ASSIGNMENTS      6  7  8  9 10 11 12 13 17 14 15 18 19 16 20 11 12 13 17 14
TYPE ASSIGNMENTS     15 18 19 16 20  1  1  1  1  1  1  1  1  1  1  1  1  1  1  1
TYPE ASSIGNMENTS      1  1  1  1  2  2  2  3  3  3  4  4  4  2  3  4  2  3  4  2
TYPE ASSIGNMENTS      3  4  5  6  7  8  9 10  5  6  7  8  9 10  5  6  7  8  9 10
TYPE ASSIGNMENTS     11 12 13 17 14 15 18 19 16 20 11 12 13 17 14 15 18 19 16 20
EXPONENTS  0.8236000D+04 0.1235000D+04 0.2808000D+03 0.7927000D+02 0.2559000D+02
EXPONENTS  0.8997000D+01 0.3319000D+01 0.3643000D+00 0.8236000D+04 0.1235000D+04
EXPONENTS  0.2808000D+03 0.7927000D+02 0.2559000D+02 0.8997000D+01 0.3319000D+01
EXPONENTS  0.3643000D+00 0.9059000D+00 0.1285000D+00 0.4402000D-01 0.1871000D+02
EXPONENTS  0.4133000D+01 0.1200000D+01 0.1871000D+02 0.4133000D+01 0.1200000D+01
EXPONENTS  0.1871000D+02 0.4133000D+01 0.1200000D+01 0.3827000D+00 0.3827000D+00
EXPONENTS  0.3827000D+00 0.1209000D+00 0.1209000D+00 0.1209000D+00 0.3569000D-01
EXPONENTS  0.3569000D-01 0.3569000D-01 0.1097000D+01 0.1097000D+01 0.1097000D+01
EXPONENTS  0.1097000D+01 0.1097000D+01 0.1097000D+01 0.3180000D+00 0.3180000D+00
EXPONENTS  0.3180000D+00 0.3180000D+00 0.3180000D+00 0.3180000D+00 0.1000000D+00
EXPONENTS  0.1000000D+00 0.1000000D+00 0.1000000D+00 0.1000000D+00 0.1000000D+00
EXPONENTS  0.7610000D+00 0.7610000D+00 0.7610000D+00 0.7610000D+00 0.7610000D+00
EXPONENTS  0.7610000D+00 0.7610000D+00 0.7610000D+00 0.7610000D+00 0.7610000D+00
EXPONENTS  0.2680000D+00 0.2680000D+00 0.2680000D+00 0.2680000D+00 0.2680000D+00
EXPONENTS  0.2680000D+00 0.2680000D+00 0.2680000D+00 0.2680000D+00 0.2680000D+00
EXPONENTS  0.8236000D+04 0.1235000D+04 0.2808000D+03 0.7927000D+02 0.2559000D+02
EXPONENTS  0.8997000D+01 0.3319000D+01 0.3643000D+00 0.8236000D+04 0.1235000D+04
EXPONENTS  0.2808000D+03 0.7927000D+02 0.2559000D+02 0.8997000D+01 0.3319000D+01
EXPONENTS  0.3643000D+00 0.9059000D+00 0.1285000D+00 0.4402000D-01 0.1871000D+02
EXPONENTS  0.4133000D+01 0.1200000D+01 0.1871000D+02 0.4133000D+01 0.1200000D+01
EXPONENTS  0.1871000D+02 0.4133000D+01 0.1200000D+01 0.3827000D+00 0.3827000D+00
EXPONENTS  0.3827000D+00 0.1209000D+00 0.1209000D+00 0.1209000D+00 0.3569000D-01
EXPONENTS  0.3569000D-01 0.3569000D-01 0.1097000D+01 0.1097000D+01 0.1097000D+01
EXPONENTS  0.1097000D+01 0.1097000D+01 0.1097000D+01 0.3180000D+00 0.3180000D+00
EXPONENTS  0.3180000D+00 0.3180000D+00 0.3180000D+00 0.3180000D+00 0.1000000D+00
EXPONENTS  0.1000000D+00 0.1000000D+00 0.1000000D+00 0.1000000D+00 0.1000000D+00
EXPONENTS  0.7610000D+00 0.7610000D+00 0.7610000D+00 0.7610000D+00 0.7610000D+00
EXPONENTS  0.7610000D+00 0.7610000D+00 0.7610000D+00 0.7610000D+00 0.7610000D+00
EXPONENTS  0.2680000D+00 0.2680000D+00 0.2680000D+00 0.2680000D+00 0.2680000D+00
EXPONENTS  0.2680000D+00 0.2680000D+00 0.2680000D+00 0.2680000D+00 0.2680000D+00
EXPONENTS  0.1950000D+05 0.2923000D+04 0.6645000D+03 0.1875000D+03 0.6062000D+02
EXPONENTS  0.2142000D+02 0.7950000D+01 0.8815000D+00 0.1950000D+05 0.2923000D+04
EXPONENTS  0.6645000D+03 0.1875000D+03 0.6062000D+02 0.2142000D+02 0.7950000D+01
EXPONENTS  0.8815000D+00 0.2257000D+01 0.3041000D+00 0.9158000D-01 0.4388000D+02
EXPONENTS  0.9926000D+01 0.2930000D+01 0.4388000D+02 0.9926000D+01 0.2930000D+01
EXPONENTS  0.4388000D+02 0.9926000D+01 0.2930000D+01 0.9132000D+00 0.9132000D+00
EXPONENTS  0.9132000D+00 0.2672000D+00 0.2672000D+00 0.2672000D+00 0.7361000D-01
EXPONENTS  0.7361000D-01 0.7361000D-01 0.3107000D+01 0.3107000D+01 0.3107000D+01
EXPONENTS  0.3107000D+01 0.3107000D+01 0.3107000D+01 0.8550000D+00 0.8550000D+00
EXPONENTS  0.8550000D+00 0.8550000D+00 0.8550000D+00 0.8550000D+00 0.2920000D+00
EXPONENTS  0.2920000D+00 0.2920000D+00 0.2920000D+00 0.2920000D+00 0.2920000D+00
EXPONENTS  0.1917000D+01 0.1917000D+01 0.1917000D+01 0.1917000D+01 0.1917000D+01
EXPONENTS  0.1917000D+01 0.1917000D+01 0.1917000D+01 0.1917000D+01 0.1917000D+01
EXPONENTS  0.7240000D+00 0.7240000D+00 0.7240000D+00 0.7240000D+00 0.7240000D+00
EXPONENTS  0.7240000D+00 0.7240000D+00 0.7240000D+00 0.7240000D+00 0.7240000D+00
EXPONENTS  0.1950000D+05 0.2923000D+04 0.6645000D+03 0.1875000D+03 0.6062000D+02
EXPONENTS  0.2142000D+02 0.7950000D+01 0.8815000D+00 0.1950000D+05 0.2923000D+04
EXPONENTS  0.6645000D+03 0.1875000D+03 0.6062000D+02 0.2142000D+02 0.7950000D+01
EXPONENTS  0.8815000D+00 0.2257000D+01 0.3041000D+00 0.9158000D-01 0.4388000D+02
EXPONENTS  0.9926000D+01 0.2930000D+01 0.4388000D+02 0.9926000D+01 0.2930000D+01
EXPONENTS  0.4388000D+02 0.9926000D+01 0.2930000D+01 0.9132000D+00 0.9132000D+00
EXPONENTS  0.9132000D+00 0.2672000D+00 0.2672000D+00 0.2672000D+00 0.7361000D-01
EXPONENTS  0.7361000D-01 0.7361000D-01 0.3107000D+01 0.3107000D+01 0.3107000D+01
EXPONENTS  0.3107000D+01 0.3107000D+01 0.3107000D+01 0.8550000D+00 0.8550000D+00
EXPONENTS  0.8550000D+00 0.8550000D+00 0.8550000D+00 0.8550000D+00 0.2920000D+00
EXPONENTS  0.2920000D+00 0.2920000D+00 0.2920000D+00 0.2920000D+00 0.2920000D+00
EXPONENTS  0.1917000D+01 0.1917000D+01 0.1917000D+01 0.1917000D+01 0.1917000D+01
EXPONENTS  0.1917000D+01 0.1917000D+01 0.1917000D+01 0.1917000D+01 0.1917000D+01
EXPONENTS  0.7240000D+00 0.7240000D+00 0.7240000D+00 0.7240000D+00 0.7240000D+00
EXPONENTS  0.7240000D+00 0.7240000D+00 0.7240000D+00 0.7240000D+00 0.7240000D+00
EXPONENTS  0.1950000D+05 0.2923000D+04 0.6645000D+03 0.1875000D+03 0.6062000D+02
EXPONENTS  0.2142000D+02 0.7950000D+01 0.8815000D+00 0.1950000D+05 0.2923000D+04
EXPONENTS  0.6645000D+03 0.1875000D+03 0.6062000D+02 0.2142000D+02 0.7950000D+01
EXPONENTS  0.8815000D+00 0.2257000D+01 0.3041000D+00 0.9158000D-01 0.4388000D+02
EXPONENTS  0.9926000D+01 0.2930000D+01 0.4388000D+02 0.9926000D+01 0.2930000D+01
EXPONENTS  0.4388000D+02 0.9926000D+01 0.2930000D+01 0.9132000D+00 0.9132000D+00
EXPONENTS  0.9132000D+00 0.2672000D+00 0.2672000D+00 0.2672000D+00 0.7361000D-01
EXPONENTS  0.7361000D-01 0.7361000D-01 0.3107000D+01 0.3107000D+01 0.3107000D+01
EXPONENTS  0.3107000D+01 0.3107000D+01 0.3107000D+01 0.8550000D+00 0.8550000D+00
EXPONENTS  0.8550000D+00 0.8550000D+00 0.8550000D+00 0.8550000D+00 0.2920000D+00
EXPONENTS  0.2920000D+00 0.2920000D+00 0.2920000D+00 0.2920000D+00 0.2920000D+00
EXPONENTS  0.1917000D+01 0.1917000D+01 0.1917000D+01 0.1917000D+01 0.1917000D+01
EXPONENTS  0.1917000D+01 0.1917000D+01 0.1917000D+01 0.1917000D+01 0.1917000D+01
EXPONENTS  0.7240000D+00 0.7240000D+00 0.7240000D+00 0.7240000D+00 0.7240000D+00
EXPONENTS  0.7240000D+00 0.7240000D+00 0.7240000D+00 0.7240000D+00 0.7240000D+00
EXPONENTS  0.1950000D+05 0.2923000D+04 0.6645000D+03 0.1875000D+03 0.6062000D+02
EXPONENTS  0.2142000D+02 0.7950000D+01 0.8815000D+00 0.1950000D+05 0.2923000D+04
EXPONENTS  0.6645000D+03 0.1875000D+03 0.6062000D+02 0.2142000D+02 0.7950000D+01
EXPONENTS  0.8815000D+00 0.2257000D+01 0.3041000D+00 0.9158000D-01 0.4388000D+02
EXPONENTS  0.9926000D+01 0.2930000D+01 0.4388000D+02 0.9926000D+01 0.2930000D+01
EXPONENTS  0.4388000D+02 0.9926000D+01 0.2930000D+01 0.9132000D+00 0.9132000D+00
EXPONENTS  0.9132000D+00 0.2672000D+00 0.2672000D+00 0.2672000D+00 0.7361000D-01
EXPONENTS  0.7361000D-01 0.7361000D-01 0.3107000D+01 0.3107000D+01 0.3107000D+01
EXPONENTS  0.3107000D+01 0.3107000D+01 0.3107000D+01 0.8550000D+00 0.8550000D+00
EXPONENTS  0.8550000D+00 0.8550000D+00 0.8550000D+00 0.8550000D+00 0.2920000D+00
EXPONENTS  0.2920000D+00 0.2920000D+00 0.2920000D+00 0.2920000D+00 0.2920000D+00
EXPONENTS  0.1917000D+01 0.1917000D+01 0.1917000D+01 0.1917000D+01 0.1917000D+01
EXPONENTS  0.1917000D+01 0.1917000D+01 0.1917000D+01 0.1917000D+01 0.1917000D+01
EXPONENTS  0.7240000D+00 0.7240000D+00 0.7240000D+00 0.7240000D+00 0.7240000D+00
EXPONENTS  0.7240000D+00 0.7240000D+00 0.7240000D+00 0.7240000D+00 0.7240000D+00
EXPONENTS  0.1950000D+05 0.2923000D+04 0.6645000D+03 0.1875000D+03 0.6062000D+02
EXPONENTS  0.2142000D+02 0.7950000D+01 0.8815000D+00 0.1950000D+05 0.2923000D+04
EXPONENTS  0.6645000D+03 0.1875000D+03 0.6062000D+02 0.2142000D+02 0.7950000D+01
EXPONENTS  0.8815000D+00 0.2257000D+01 0.3041000D+00 0.9158000D-01 0.4388000D+02
EXPONENTS  0.9926000D+01 0.2930000D+01 0.4388000D+02 0.9926000D+01 0.2930000D+01
EXPONENTS  0.4388000D+02 0.9926000D+01 0.2930000D+01 0.9132000D+00 0.9132000D+00
EXPONENTS  0.9132000D+00 0.2672000D+00 0.2672000D+00 0.2672000D+00 0.7361000D-01
EXPONENTS  0.7361000D-01 0.7361000D-01 0.3107000D+01 0.3107000D+01 0.3107000D+01
EXPONENTS  0.3107000D+01 0.3107000D+01 0.3107000D+01 0.8550000D+00 0.8550000D+00
EXPONENTS  0.8550000D+00 0.8550000D+00 0.8550000D+00 0.8550000D+00 0.2920000D+00
EXPONENTS  0.2920000D+00 0.2920000D+00 0.2920000D+00 0.2920000D+00 0.2920000D+00
EXPONENTS  0.1917000D+01 0.1917000D+01 0.1917000D+01 0.1917000D+01 0.1917000D+01
EXPONENTS  0.1917000D+01 0.1917000D+01 0.1917000D+01 0.1917000D+01 0.1917000D+01
EXPONENTS  0.7240000D+00 0.7240000D+00 0.7240000D+00 0.7240000D+00 0.7240000D+00
EXPONENTS  0.7240000D+00 0.7240000D+00 0.7240000D+00 0.7240000D+00 0.7240000D+00
EXPONENTS  0.1950000D+05 0.2923000D+04 0.6645000D+03 0.1875000D+03 0.6062000D+02
EXPONENTS  0.2142000D+02 0.7950000D+01 0.8815000D+00 0.1950000D+05 0.2923000D+04
EXPONENTS  0.6645000D+03 0.1875000D+03 0.6062000D+02 0.2142000D+02 0.7950000D+01
EXPONENTS  0.8815000D+00 0.2257000D+01 0.3041000D+00 0.9158000D-01 0.4388000D+02
EXPONENTS  0.9926000D+01 0.2930000D+01 0.4388000D+02 0.9926000D+01 0.2930000D+01
EXPONENTS  0.4388000D+02 0.9926000D+01 0.2930000D+01 0.9132000D+00 0.9132000D+00
EXPONENTS  0.9132000D+00 0.2672000D+00 0.2672000D+00 0.2672000D+00 0.7361000D-01
EXPONENTS  0.7361000D-01 0.7361000D-01 0.3107000D+01 0.3107000D+01 0.3107000D+01
EXPONENTS  0.3107000D+01 0.3107000D+01 0.3107000D+01 0.8550000D+00 0.8550000D+00
EXPONENTS  0.8550000D+00 0.8550000D+00 0.8550000D+00 0.8550000D+00 0.2920000D+00
EXPONENTS  0.2920000D+00 0.2920000D+00 0.2920000D+00 0.2920000D+00 0.2920000D+00
EXPONENTS  0.1917000D+01 0.1917000D+01 0.1917000D+01 0.1917000D+01 0.1917000D+01
EXPONENTS  0.1917000D+01 0.1917000D+01 0.1917000D+01 0.1917000D+01 0.1917000D+01
EXPONENTS  0.7240000D+00 0.7240000D+00 0.7240000D+00 0.7240000D+00 0.7240000D+00
EXPONENTS  0.7240000D+00 0.7240000D+00 0.7240000D+00 0.7240000D+00 0.7240000D+00
MO    1     MO 0.0        OCC NO =    2.0000000  ORB. ENERGY =  -24.549876
 -0.10310233D-03 -0.19220619D-03 -0.32486232D-03 -0.48837448D-03 -0.60002448D-03
 -0.50681659D-03 -0.19115257D-03  0.94602475D-06  0.71444199D-04  0.13376608D-03
  0.22774820D-03  0.35229184D-03  0.46395596D-03  0.48207996D-03  0.30634017D-03
 -0.20530206D-03  0.31376126D-03 -0.31908449D-02 -0.57203518D-03 -0.15514894D-03
 -0.14546199D-03 -0.10357760D-03 -0.32743261D-03 -0.30698889D-03 -0.21859438D-03
  0.85905812D-04  0.80542160D-04  0.57350816D-04  0.58381618D-03  0.12831522D-02
 -0.33583687D-03 -0.75676396D-03  0.18174223D-03 -0.33294083D-04 -0.28019455D-04
 -0.51257209D-05  0.17818991D-05  0.19219517D-03 -0.52068926D-03  0.32849409D-03
 -0.65086333D-03  0.17191664D-03  0.47047176D-03  0.27782468D-03 -0.30225958D-03
  0.24434901D-04 -0.28783412D-03  0.65371835D-04  0.18204420D-03 -0.35455410D-04
  0.18253786D-04  0.17201624D-04 -0.12855016D-04  0.50552405D-05 -0.31809914D-06
 -0.84350588D-04  0.11921113D-03  0.53451938D-04  0.32018115D-03 -0.19910753D-03
  0.51626846D-04 -0.67129381D-04 -0.15852585D-03 -0.21198266D-03 -0.21012901D-03
  0.10873161D-04  0.30111331D-04  0.27668341D-04 -0.10043101D-03  0.56826824D-05
  0.69013428D-06  0.67811526D-04 -0.96016676D-04 -0.83695158D-04  0.85643234D-04
  0.10310234D-03  0.19220620D-03  0.32486233D-03  0.48837450D-03  0.60002450D-03
  0.50681661D-03  0.19115258D-03 -0.94602478D-06 -0.71444202D-04 -0.13376609D-03
 -0.22774821D-03 -0.35229185D-03 -0.46395597D-03 -0.48207997D-03 -0.30634018D-03
  0.20530207D-03 -0.31376127D-03  0.31908449D-02  0.57203518D-03 -0.15514894D-03
 -0.14546200D-03 -0.10357761D-03 -0.32743262D-03 -0.30698890D-03 -0.21859438D-03
  0.85905815D-04  0.80542162D-04  0.57350817D-04  0.58381619D-03  0.12831522D-02
 -0.33583688D-03 -0.75676396D-03  0.18174223D-03 -0.33294083D-04 -0.28019455D-04
 -0.51257209D-05  0.17818991D-05 -0.19219518D-03  0.52068928D-03 -0.32849410D-03
  0.65086334D-03 -0.17191665D-03 -0.47047178D-03 -0.27782469D-03  0.30225959D-03
 -0.24434905D-04  0.28783413D-03 -0.65371837D-04 -0.18204420D-03  0.35455410D-04
 -0.18253786D-04 -0.17201624D-04  0.12855016D-04 -0.50552406D-05  0.31809908D-06
 -0.84350590D-04  0.11921113D-03  0.53451939D-04  0.32018115D-03 -0.19910753D-03
  0.51626847D-04 -0.67129383D-04 -0.15852586D-03 -0.21198266D-03 -0.21012901D-03
  0.10873160D-04  0.30111332D-04  0.27668341D-04 -0.10043101D-03  0.56826810D-05
  0.69013466D-06  0.67811526D-04 -0.96016677D-04 -0.83695158D-04  0.85643233D-04
 -0.17441599D-02 -0.32511896D-02 -0.55115657D-02 -0.83461348D-02 -0.10436871D-01
 -0.89851736D-02 -0.34542288D-02  0.14967739D-04  0.23092342D-04  0.43363328D-04
  0.73840269D-04  0.11567034D-03  0.15501187D-03  0.16673616D-03  0.10010817D-03
 -0.65835347D-04 -0.16919580D-03  0.41862527D-03 -0.43198973D-05  0.25601457D-04
  0.25037665D-04  0.16543444D-04  0.54392709D-04  0.53194881D-04  0.35148107D-04
  0.34337637D-04  0.33581459D-04  0.22188690D-04 -0.27228510D-04 -0.40261229D-04
 -0.48975429D-04  0.20036775D-03 -0.11464092D-03  0.60838913D-05 -0.67325680D-05
  0.18918089D-04  0.27451685D-05 -0.65290375D-04 -0.17100884D-03  0.23629922D-03
 -0.74097678D-04  0.28976513D-04  0.56284272D-04  0.25293280D-04  0.64460184D-04
 -0.89753464D-04  0.10789216D-04 -0.19388079D-04 -0.21167651D-05  0.24324230D-04
  0.12411554D-04 -0.36735784D-04 -0.40601448D-05 -0.62145449D-04 -0.17443742D-04
  0.14972521D-05  0.13850311D-03 -0.12473168D-03  0.14473403D-03 -0.11569086D-03
  0.19475747D-03 -0.14922578D-03 -0.29981846D-03  0.17943757D-03  0.27143934D-03
  0.58353613D-05 -0.56897316D-04  0.51841184D-04 -0.56010513D-04  0.46372829D-04
 -0.86894637D-04  0.38504429D-04  0.12431912D-03 -0.68628914D-04 -0.97258572D-04
  0.17441598D-02  0.32511895D-02  0.55115654D-02  0.83461344D-02  0.10436870D-01
  0.89851732D-02  0.34542286D-02 -0.14967738D-04 -0.23092341D-04 -0.43363327D-04
 -0.73840268D-04 -0.11567034D-03 -0.15501187D-03 -0.16673616D-03 -0.10010817D-03
  0.65835347D-04  0.16919579D-03 -0.41862527D-03  0.43198987D-05  0.25601458D-04
  0.25037667D-04  0.16543445D-04  0.54392708D-04  0.53194880D-04  0.35148106D-04
  0.34337635D-04  0.33581457D-04  0.22188689D-04 -0.27228510D-04 -0.40261228D-04
 -0.48975428D-04  0.20036775D-03 -0.11464092D-03  0.60838934D-05 -0.67325681D-05
  0.18918089D-04  0.27451687D-05  0.65290373D-04  0.17100885D-03 -0.23629922D-03
  0.74097681D-04 -0.28976510D-04 -0.56284273D-04 -0.25293279D-04 -0.64460185D-04
  0.89753465D-04 -0.10789217D-04  0.19388078D-04  0.21167659D-05 -0.24324231D-04
 -0.12411553D-04  0.36735784D-04  0.40601437D-05  0.62145448D-04  0.17443744D-04
  0.14972508D-05  0.13850311D-03 -0.12473168D-03  0.14473403D-03 -0.11569086D-03
  0.19475747D-03 -0.14922578D-03 -0.29981847D-03  0.17943757D-03  0.27143935D-03
  0.58353619D-05 -0.56897318D-04  0.51841184D-04 -0.56010513D-04  0.46372831D-04
 -0.86894637D-04  0.38504427D-04  0.12431912D-03 -0.68628914D-04 -0.97258576D-04
 -0.12527838D-02 -0.23352433D-02 -0.39588116D-02 -0.59948074D-02 -0.74965277D-02
 -0.64538121D-02 -0.24810810D-02  0.10750930D-04  0.23252326D-04  0.43663750D-04
  0.74351836D-04  0.11647171D-03  0.15608579D-03  0.16789132D-03  0.10080173D-03
 -0.66291456D-04 -0.11592174D-03  0.41799275D-03 -0.50110691D-05  0.25963508D-04
  0.25391744D-04  0.16777399D-04  0.29312283D-04  0.28666772D-04  0.18941348D-04
 -0.51135348D-04 -0.50009254D-04 -0.33043228D-04 -0.25445647D-04 -0.11346867D-04
  0.61837389D-04  0.20029175D-03 -0.10507141D-03  0.42205104D-04 -0.70113781D-05
  0.15384113D-04 -0.11287940D-04 -0.66200202D-04 -0.10173271D-03  0.16793291D-03
 -0.70310136D-04  0.27466715D-04  0.30958253D-03  0.26254098D-04  0.30493794D-04
 -0.56747893D-04  0.15123307D-04  0.50096941D-05 -0.12711493D-03  0.26155882D-04
  0.85333919D-05 -0.34689274D-04  0.24702796D-04  0.52400677D-04 -0.32589350D-04
 -0.39340150D-05 -0.17273675D-04  0.14357850D-03 -0.41723643D-04 -0.20682495D-03
 -0.11587173D-03  0.53525688D-04  0.25864597D-03 -0.31486376D-03 -0.36979669D-03
  0.83659833D-05  0.54116125D-05 -0.60517578D-04  0.87075244D-05  0.85863680D-04
  0.52897921D-04 -0.33805474D-04 -0.10209852D-03  0.12865481D-03  0.12234455D-03
  0.12527838D-02  0.23352434D-02  0.39588116D-02  0.59948075D-02  0.74965278D-02
  0.64538121D-02  0.24810810D-02 -0.10750930D-04 -0.23252326D-04 -0.43663749D-04
 -0.74351835D-04 -0.11647171D-03 -0.15608579D-03 -0.16789131D-03 -0.10080172D-03
  0.66291455D-04  0.11592174D-03 -0.41799275D-03  0.50110704D-05  0.25963509D-04
  0.25391744D-04  0.16777399D-04  0.29312283D-04  0.28666772D-04  0.18941349D-04
 -0.51135347D-04 -0.50009253D-04 -0.33043228D-04 -0.25445648D-04 -0.11346867D-04
  0.61837389D-04  0.20029175D-03 -0.10507141D-03  0.42205101D-04 -0.70113782D-05
  0.15384113D-04 -0.11287940D-04  0.66200200D-04  0.10173271D-03 -0.16793291D-03
  0.70310137D-04 -0.27466719D-04 -0.30958253D-03 -0.26254098D-04 -0.30493796D-04
  0.56747893D-04 -0.15123307D-04 -0.50096925D-05  0.12711493D-03 -0.26155882D-04
 -0.85333924D-05  0.34689275D-04 -0.24702796D-04 -0.52400675D-04  0.32589348D-04
 -0.39340163D-05 -0.17273673D-04  0.14357850D-03 -0.41723645D-04 -0.20682495D-03
 -0.11587172D-03  0.53525693D-04  0.25864597D-03 -0.31486377D-03 -0.36979670D-03
  0.83659839D-05  0.54116119D-05 -0.60517578D-04  0.87075252D-05  0.85863681D-04
  0.52897920D-04 -0.33805477D-04 -0.10209852D-03  0.12865481D-03  0.12234455D-03
 -0.42032834D+00 -0.78351023D+00 -0.13282425D+01 -0.20113506D+01 -0.25152009D+01
 -0.21653537D+01 -0.83244102D+00  0.36071032D-02 -0.95447826D-04 -0.17923411D-03
 -0.30520478D-03 -0.47810149D-03 -0.64071224D-03 -0.68917240D-03 -0.41377821D-03
  0.27211796D-03 -0.45524449D-01  0.10913800D-02  0.60013373D-03 -0.17650606D-02
 -0.17261907D-02 -0.11405672D-02 -0.47340625D-02 -0.46298097D-02 -0.30591110D-02
  0.12304028D-02  0.12033071D-02  0.79507587D-03  0.39292917D-03  0.89226077D-03
 -0.23283637D-03  0.47767959D-03  0.93931150D-03 -0.24562340D-03  0.96565869D-05
  0.70196038D-04 -0.17924342D-04  0.78797845D-04 -0.32772623D-03  0.24892838D-03
 -0.42617978D-03  0.11423600D-03  0.31550581D-03 -0.16823689D-03  0.46554714D-03
 -0.29731025D-03  0.60731841D-03 -0.16008055D-03 -0.42375206D-03 -0.74280654D-04
  0.16281509D-03 -0.88534432D-04  0.22878073D-03 -0.59019539D-04 -0.14019405D-03
  0.16085329D-03 -0.16189232D-03 -0.69165819D-04 -0.42930804D-03  0.27029003D-03
 -0.76881015D-04 -0.53251844D-04  0.21538694D-03  0.28437847D-03  0.20360874D-03
 -0.12322909D-03  0.15676476D-03  0.82943776D-04  0.42932788D-03 -0.21630195D-03
  0.57615023D-04 -0.59640618D-04 -0.25399233D-03 -0.30644635D-03 -0.26982467D-03
  0.42032835D+00  0.78351025D+00  0.13282425D+01  0.20113506D+01  0.25152010D+01
  0.21653538D+01  0.83244104D+00 -0.36071033D-02  0.95447829D-04  0.17923412D-03
  0.30520479D-03  0.47810150D-03  0.64071226D-03  0.68917242D-03  0.41377822D-03
 -0.27211796D-03  0.45524450D-01 -0.10913800D-02 -0.60013374D-03 -0.17650607D-02
 -0.17261908D-02 -0.11405672D-02 -0.47340626D-02 -0.46298098D-02 -0.30591111D-02
  0.12304029D-02  0.12033071D-02  0.79507589D-03  0.39292918D-03  0.89226079D-03
 -0.23283637D-03  0.47767960D-03  0.93931153D-03 -0.24562341D-03  0.96565874D-05
  0.70196039D-04 -0.17924342D-04 -0.78797851D-04  0.32772624D-03 -0.24892839D-03
  0.42617979D-03 -0.11423600D-03 -0.31550582D-03  0.16823690D-03 -0.46554715D-03
  0.29731026D-03 -0.60731842D-03  0.16008055D-03  0.42375207D-03  0.74280655D-04
 -0.16281509D-03  0.88534434D-04 -0.22878074D-03  0.59019541D-04  0.14019405D-03
  0.16085330D-03 -0.16189233D-03 -0.69165820D-04 -0.42930805D-03  0.27029003D-03
 -0.76881016D-04 -0.53251839D-04  0.21538695D-03  0.28437848D-03  0.20360874D-03
 -0.12322909D-03  0.15676476D-03  0.82943778D-04  0.42932789D-03 -0.21630195D-03
  0.57615024D-04 -0.59640621D-04 -0.25399234D-03 -0.30644636D-03 -0.26982468D-03
MO    2     MO 0.0        OCC NO =    2.0000000  ORB. ENERGY =  -24.549876
  0.14787981D-03  0.27568158D-03  0.46595044D-03  0.70047613D-03  0.86061586D-03
  0.72692767D-03  0.27417037D-03 -0.13568845D-05 -0.10316225D-03 -0.19315228D-03
 -0.32885829D-03 -0.50869376D-03 -0.66993179D-03 -0.69610204D-03 -0.44234160D-03
  0.29644705D-03 -0.23602570D-03  0.65414607D-03  0.55099355D-04  0.10378983D-03
  0.97309567D-04  0.69290208D-04  0.35218494D-03  0.33019576D-03  0.23511905D-03
 -0.90429538D-04 -0.84783440D-04 -0.60370860D-04 -0.35183324D-03 -0.13446060D-02
  0.34394521D-03 -0.34868146D-04 -0.87928765D-04  0.23277008D-04  0.32282627D-05
  0.23029974D-06 -0.12517752D-06 -0.26089913D-03  0.58114541D-03 -0.32024628D-03
  0.64723018D-03 -0.16656186D-03 -0.50133238D-03 -0.59675041D-04  0.24088558D-03
 -0.18121054D-03  0.36268214D-03 -0.96637399D-04 -0.23575891D-03 -0.19737705D-05
  0.28188695D-05 -0.84509899D-06  0.19346941D-04 -0.48203406D-05 -0.23148560D-05
  0.70818739D-04 -0.89278747D-04 -0.50716537D-04 -0.32136541D-03  0.11769465D-03
 -0.28670251D-04  0.10890919D-03  0.15014159D-03  0.18081986D-03  0.23733327D-03
  0.22830506D-04 -0.23631262D-04 -0.45943288D-05 -0.42447440D-04  0.56406023D-04
 -0.16128765D-04 -0.26044079D-04  0.14487764D-04  0.29911752D-04  0.74583874D-05
  0.14787980D-03  0.27568158D-03  0.46595043D-03  0.70047612D-03  0.86061585D-03
  0.72692766D-03  0.27417037D-03 -0.13568845D-05 -0.10316225D-03 -0.19315228D-03
 -0.32885828D-03 -0.50869375D-03 -0.66993178D-03 -0.69610203D-03 -0.44234159D-03
  0.29644705D-03 -0.23602570D-03  0.65414599D-03  0.55099341D-04 -0.10378983D-03
 -0.97309563D-04 -0.69290206D-04 -0.35218493D-03 -0.33019576D-03 -0.23511905D-03
  0.90429536D-04  0.84783438D-04  0.60370858D-04  0.35183322D-03  0.13446059D-02
 -0.34394520D-03  0.34868164D-04  0.87928760D-04 -0.23277007D-04 -0.32282620D-05
 -0.23029962D-06  0.12517748D-06 -0.26089912D-03  0.58114539D-03 -0.32024627D-03
  0.64723017D-03 -0.16656186D-03 -0.50133237D-03 -0.59675034D-04  0.24088558D-03
 -0.18121054D-03  0.36268214D-03 -0.96637398D-04 -0.23575891D-03 -0.19737714D-05
  0.28188700D-05 -0.84509858D-06  0.19346941D-04 -0.48203405D-05 -0.23148560D-05
 -0.70818737D-04  0.89278744D-04  0.50716536D-04  0.32136540D-03 -0.11769464D-03
  0.28670250D-04 -0.10890919D-03 -0.15014159D-03 -0.18081986D-03 -0.23733326D-03
 -0.22830506D-04  0.23631262D-04  0.45943281D-05  0.42447442D-04 -0.56406023D-04
  0.16128765D-04  0.26044077D-04 -0.14487762D-04 -0.29911750D-04 -0.74583895D-05
 -0.22383488D-02 -0.41723791D-02 -0.70732083D-02 -0.10710922D-01 -0.13394046D-01
 -0.11531026D-01 -0.44329472D-02  0.19208686D-04  0.11058267D-04  0.20765467D-04
  0.35360009D-04  0.55391245D-04  0.74230785D-04  0.79845218D-04  0.47938964D-04
 -0.31526680D-04 -0.25181513D-03  0.40267527D-04  0.55925270D-04 -0.47011786D-04
 -0.45976500D-04 -0.30378617D-04  0.34611574D-04  0.33849364D-04  0.22365706D-04
  0.64987860D-04  0.63556708D-04  0.41994604D-04  0.11052700D-04 -0.18047985D-04
 -0.19835643D-04  0.71545908D-04 -0.10351154D-03 -0.85395366D-04  0.18163369D-05
 -0.11512243D-04 -0.88867983D-05 -0.58307494D-04  0.17744699D-03 -0.11913950D-03
  0.14126078D-03  0.12551513D-03 -0.53346837D-04  0.12629694D-04 -0.58017982D-04
  0.45388288D-04 -0.60145632D-04 -0.47049243D-04  0.32654487D-04 -0.13182072D-04
  0.15626015D-04 -0.24439433D-05 -0.44983814D-04 -0.55779665D-04  0.84154626D-04
  0.55555446D-04 -0.15730788D-03 -0.58413087D-05 -0.66709423D-04  0.19654299D-03
  0.78754425D-05 -0.99956915D-04  0.27538065D-03  0.96484835D-05 -0.35340641D-03
 -0.27509955D-04  0.59751303D-04  0.66417946D-05  0.29836971D-04 -0.61645155D-04
 -0.27814127D-05  0.52692895D-04 -0.11760875D-03 -0.17143971D-04  0.15376051D-03
 -0.22383489D-02 -0.41723792D-02 -0.70732086D-02 -0.10710922D-01 -0.13394046D-01
 -0.11531026D-01 -0.44329474D-02  0.19208687D-04  0.11058268D-04  0.20765468D-04
  0.35360011D-04  0.55391248D-04  0.74230789D-04  0.79845222D-04  0.47938966D-04
 -0.31526681D-04 -0.25181513D-03  0.40267538D-04  0.55925270D-04  0.47011786D-04
  0.45976499D-04  0.30378617D-04 -0.34611576D-04 -0.33849365D-04 -0.22365707D-04
 -0.64987861D-04 -0.63556709D-04 -0.41994605D-04 -0.11052699D-04  0.18047986D-04
  0.19835644D-04 -0.71545913D-04  0.10351154D-03  0.85395366D-04 -0.18163367D-05
  0.11512243D-04  0.88867982D-05 -0.58307496D-04  0.17744699D-03 -0.11913949D-03
  0.14126078D-03  0.12551513D-03 -0.53346836D-04  0.12629695D-04 -0.58017981D-04
  0.45388286D-04 -0.60145631D-04 -0.47049244D-04  0.32654487D-04 -0.13182071D-04
  0.15626015D-04 -0.24439441D-05 -0.44983814D-04 -0.55779666D-04  0.84154626D-04
 -0.55555446D-04  0.15730787D-03  0.58413117D-05  0.66709419D-04 -0.19654298D-03
 -0.78754472D-05  0.99956919D-04 -0.27538064D-03 -0.96484879D-05  0.35340640D-03
  0.27509955D-04 -0.59751301D-04 -0.66417958D-05 -0.29836970D-04  0.61645154D-04