 Molden2AIM, Version 4.0.0 (06/02/2016)           Time: Sat Jun 30 02:04:40 2018
GAUSSIAN             11 MOL ORBITALS    279 PRIMITIVES        5 NUCLEI
  C    1    (CENTRE  1)   0.00000000  0.00000000 -2.30193208  CHARGE =  6.0
  N    2    (CENTRE  2)   0.00000000  0.00000000  0.14319589  CHARGE =  7.0
  H    3    (CENTRE  3)   1.81289364  0.00000000 -3.25616630  CHARGE =  1.0
  H    4    (CENTRE  4)  -1.81289364  0.00000000 -3.25616630  CHARGE =  1.0
  N    5    (CENTRE  5)   0.00000000  0.00000000  2.29709816  CHARGE =  7.0
CENTRE ASSIGNMENTS    1  1  1  1  1  1  1  1  1  1  1  1  1  1  1  1  1  1  1  1
CENTRE ASSIGNMENTS    1  1  1  1  1  1  1  1  1  1  1  1  1  1  1  1  1  1  1  1
CENTRE ASSIGNMENTS    1  1  1  1  1  1  1  1  1  1  1  1  1  1  1  1  1  1  1  1
CENTRE ASSIGNMENTS    1  1  1  1  1  1  1  1  1  1  1  1  1  1  1  2  2  2  2  2
CENTRE ASSIGNMENTS    2  2  2  2  2  2  2  2  2  2  2  2  2  2  2  2  2  2  2  2
CENTRE ASSIGNMENTS    2  2  2  2  2  2  2  2  2  2  2  2  2  2  2  2  2  2  2  2
CENTRE ASSIGNMENTS    2  2  2  2  2  2  2  2  2  2  2  2  2  2  2  2  2  2  2  2
CENTRE ASSIGNMENTS    2  2  2  2  2  2  2  2  2  2  3  3  3  3  3  3  3  3  3  3
CENTRE ASSIGNMENTS    3  3  3  3  3  3  3  3  3  3  3  3  3  3  3  3  3  4  4  4
CENTRE ASSIGNMENTS    4  4  4  4  4  4  4  4  4  4  4  4  4  4  4  4  4  4  4  4
CENTRE ASSIGNMENTS    4  4  4  4  5  5  5  5  5  5  5  5  5  5  5  5  5  5  5  5
CENTRE ASSIGNMENTS    5  5  5  5  5  5  5  5  5  5  5  5  5  5  5  5  5  5  5  5
CENTRE ASSIGNMENTS    5  5  5  5  5  5  5  5  5  5  5  5  5  5  5  5  5  5  5  5
CENTRE ASSIGNMENTS    5  5  5  5  5  5  5  5  5  5  5  5  5  5  5  5  5  5  5
TYPE ASSIGNMENTS      1  1  1  1  1  1  1  1  1  1  1  1  1  1  1  1  1  1  1  2
TYPE ASSIGNMENTS      2  2  3  3  3  4  4  4  2  3  4  2  3  4  2  3  4  5  6  7
TYPE ASSIGNMENTS      8  9 10  5  6  7  8  9 10  5  6  7  8  9 10 11 12 13 17 14
TYPE ASSIGNMENTS     15 18 19 16 20 11 12 13 17 14 15 18 19 16 20  1  1  1  1  1
TYPE ASSIGNMENTS      1  1  1  1  1  1  1  1  1  1  1  1  1  1  2  2  2  3  3  3
TYPE ASSIGNMENTS      4  4  4  2  3  4  2  3  4  2  3  4  5  6  7  8  9 10  5  6
TYPE ASSIGNMENTS      7  8  9 10  5  6  7  8  9 10 11 12 13 17 14 15 18 19 16 20
TYPE ASSIGNMENTS     11 12 13 17 14 15 18 19 16 20  1  1  1  1  1  1  2  3  4  2
TYPE ASSIGNMENTS      3  4  2  3  4  5  6  7  8  9 10  5  6  7  8  9 10  1  1  1
TYPE ASSIGNMENTS      1  1  1  2  3  4  2  3  4  2  3  4  5  6  7  8  9 10  5  6
TYPE ASSIGNMENTS      7  8  9 10  1  1  1  1  1  1  1  1  1  1  1  1  1  1  1  1
TYPE ASSIGNMENTS      1  1  1  2  2  2  3  3  3  4  4  4  2  3  4  2  3  4  2  3
TYPE ASSIGNMENTS      4  5  6  7  8  9 10  5  6  7  8  9 10  5  6  7  8  9 10 11
TYPE ASSIGNMENTS     12 13 17 14 15 18 19 16 20 11 12 13 17 14 15 18 19 16 20
EXPONENTS  0.8236000D+04 0.1235000D+04 0.2808000D+03 0.7927000D+02 0.2559000D+02
EXPONENTS  0.8997000D+01 0.3319000D+01 0.3643000D+00 0.8236000D+04 0.1235000D+04
EXPONENTS  0.2808000D+03 0.7927000D+02 0.2559000D+02 0.8997000D+01 0.3319000D+01
EXPONENTS  0.3643000D+00 0.9059000D+00 0.1285000D+00 0.4402000D-01 0.1871000D+02
EXPONENTS  0.4133000D+01 0.1200000D+01 0.1871000D+02 0.4133000D+01 0.1200000D+01
EXPONENTS  0.1871000D+02 0.4133000D+01 0.1200000D+01 0.3827000D+00 0.3827000D+00
EXPONENTS  0.3827000D+00 0.1209000D+00 0.1209000D+00 0.1209000D+00 0.3569000D-01
EXPONENTS  0.3569000D-01 0.3569000D-01 0.1097000D+01 0.1097000D+01 0.1097000D+01
EXPONENTS  0.1097000D+01 0.1097000D+01 0.1097000D+01 0.3180000D+00 0.3180000D+00
EXPONENTS  0.3180000D+00 0.3180000D+00 0.3180000D+00 0.3180000D+00 0.1000000D+00
EXPONENTS  0.1000000D+00 0.1000000D+00 0.1000000D+00 0.1000000D+00 0.1000000D+00
EXPONENTS  0.7610000D+00 0.7610000D+00 0.7610000D+00 0.7610000D+00 0.7610000D+00
EXPONENTS  0.7610000D+00 0.7610000D+00 0.7610000D+00 0.7610000D+00 0.7610000D+00
EXPONENTS  0.2680000D+00 0.2680000D+00 0.2680000D+00 0.2680000D+00 0.2680000D+00
EXPONENTS  0.2680000D+00 0.2680000D+00 0.2680000D+00 0.2680000D+00 0.2680000D+00
EXPONENTS  0.1142000D+05 0.1712000D+04 0.3893000D+03 0.1100000D+03 0.3557000D+02
EXPONENTS  0.1254000D+02 0.4644000D+01 0.5118000D+00 0.1142000D+05 0.1712000D+04
EXPONENTS  0.3893000D+03 0.1100000D+03 0.3557000D+02 0.1254000D+02 0.4644000D+01
EXPONENTS  0.5118000D+00 0.1293000D+01 0.1787000D+00 0.5760000D-01 0.2663000D+02
EXPONENTS  0.5948000D+01 0.1742000D+01 0.2663000D+02 0.5948000D+01 0.1742000D+01
EXPONENTS  0.2663000D+02 0.5948000D+01 0.1742000D+01 0.5550000D+00 0.5550000D+00
EXPONENTS  0.5550000D+00 0.1725000D+00 0.1725000D+00 0.1725000D+00 0.4910000D-01
EXPONENTS  0.4910000D-01 0.4910000D-01 0.1654000D+01 0.1654000D+01 0.1654000D+01
EXPONENTS  0.1654000D+01 0.1654000D+01 0.1654000D+01 0.4690000D+00 0.4690000D+00
EXPONENTS  0.4690000D+00 0.4690000D+00 0.4690000D+00 0.4690000D+00 0.1510000D+00
EXPONENTS  0.1510000D+00 0.1510000D+00 0.1510000D+00 0.1510000D+00 0.1510000D+00
EXPONENTS  0.1093000D+01 0.1093000D+01 0.1093000D+01 0.1093000D+01 0.1093000D+01
EXPONENTS  0.1093000D+01 0.1093000D+01 0.1093000D+01 0.1093000D+01 0.1093000D+01
EXPONENTS  0.3640000D+00 0.3640000D+00 0.3640000D+00 0.3640000D+00 0.3640000D+00
EXPONENTS  0.3640000D+00 0.3640000D+00 0.3640000D+00 0.3640000D+00 0.3640000D+00
EXPONENTS  0.3387000D+02 0.5095000D+01 0.1159000D+01 0.3258000D+00 0.1027000D+00
EXPONENTS  0.2526000D-01 0.1407000D+01 0.1407000D+01 0.1407000D+01 0.3880000D+00
EXPONENTS  0.3880000D+00 0.3880000D+00 0.1020000D+00 0.1020000D+00 0.1020000D+00
EXPONENTS  0.1057000D+01 0.1057000D+01 0.1057000D+01 0.1057000D+01 0.1057000D+01
EXPONENTS  0.1057000D+01 0.2470000D+00 0.2470000D+00 0.2470000D+00 0.2470000D+00
EXPONENTS  0.2470000D+00 0.2470000D+00 0.3387000D+02 0.5095000D+01 0.1159000D+01
EXPONENTS  0.3258000D+00 0.1027000D+00 0.2526000D-01 0.1407000D+01 0.1407000D+01
EXPONENTS  0.1407000D+01 0.3880000D+00 0.3880000D+00 0.3880000D+00 0.1020000D+00
EXPONENTS  0.1020000D+00 0.1020000D+00 0.1057000D+01 0.1057000D+01 0.1057000D+01
EXPONENTS  0.1057000D+01 0.1057000D+01 0.1057000D+01 0.2470000D+00 0.2470000D+00
EXPONENTS  0.2470000D+00 0.2470000D+00 0.2470000D+00 0.2470000D+00 0.1142000D+05
EXPONENTS  0.1712000D+04 0.3893000D+03 0.1100000D+03 0.3557000D+02 0.1254000D+02
EXPONENTS  0.4644000D+01 0.5118000D+00 0.1142000D+05 0.1712000D+04 0.3893000D+03
EXPONENTS  0.1100000D+03 0.3557000D+02 0.1254000D+02 0.4644000D+01 0.5118000D+00
EXPONENTS  0.1293000D+01 0.1787000D+00 0.5760000D-01 0.2663000D+02 0.5948000D+01
EXPONENTS  0.1742000D+01 0.2663000D+02 0.5948000D+01 0.1742000D+01 0.2663000D+02
EXPONENTS  0.5948000D+01 0.1742000D+01 0.5550000D+00 0.5550000D+00 0.5550000D+00
EXPONENTS  0.1725000D+00 0.1725000D+00 0.1725000D+00 0.4910000D-01 0.4910000D-01
EXPONENTS  0.4910000D-01 0.1654000D+01 0.1654000D+01 0.1654000D+01 0.1654000D+01
EXPONENTS  0.1654000D+01 0.1654000D+01 0.4690000D+00 0.4690000D+00 0.4690000D+00
EXPONENTS  0.4690000D+00 0.4690000D+00 0.4690000D+00 0.1510000D+00 0.1510000D+00
EXPONENTS  0.1510000D+00 0.1510000D+00 0.1510000D+00 0.1510000D+00 0.1093000D+01
EXPONENTS  0.1093000D+01 0.1093000D+01 0.1093000D+01 0.1093000D+01 0.1093000D+01
EXPONENTS  0.1093000D+01 0.1093000D+01 0.1093000D+01 0.1093000D+01 0.3640000D+00
EXPONENTS  0.3640000D+00 0.3640000D+00 0.3640000D+00 0.3640000D+00 0.3640000D+00
EXPONENTS  0.3640000D+00 0.3640000D+00 0.3640000D+00 0.3640000D+00
MO    1     MO 0.0        OCC NO =    2.0000000  ORB. ENERGY =  -14.297127
  0.18839268D-03  0.35120679D-03  0.59360135D-03  0.89237727D-03  0.10963886D-02
  0.92607543D-03  0.34928158D-03 -0.17286140D-05 -0.15077989D-03 -0.28230753D-03
 -0.48065273D-03 -0.74349669D-03 -0.97915898D-03 -0.10174089D-02 -0.64651768D-03
  0.43328112D-03  0.47644401D-03 -0.30079704D-02  0.18896317D-03 -0.42730961D-15
 -0.40062992D-15 -0.28527237D-15  0.15217938D-16  0.14267785D-16  0.10159513D-16
  0.84841557D-03  0.79544353D-03  0.56640318D-03  0.30500460D-14 -0.63465985D-17
  0.25833442D-04  0.97248784D-14  0.60215758D-19 -0.85495397D-03  0.27785143D-15
 -0.33351534D-19  0.16898479D-04 -0.27705601D-03 -0.57520494D-03  0.85226095D-03
 -0.42341631D-18 -0.66113889D-15 -0.20528023D-17  0.51870248D-03  0.38089956D-03
 -0.89960205D-03  0.20525506D-18 -0.27928324D-14  0.24909294D-17  0.54344036D-04
  0.31406755D-04 -0.85750791D-04  0.77048521D-19 -0.68479021D-15  0.96073991D-19
  0.19189183D-15  0.39557990D-18 -0.51635027D-03 -0.15884446D-15 -0.72196285D-18
  0.11299302D-02 -0.41683104D-15 -0.46477685D-18  0.41912064D-03 -0.10303549D-17
  0.14793134D-15  0.17144744D-18 -0.16356043D-03 -0.54159551D-15 -0.69067435D-18
  0.58701448D-03  0.97801497D-16  0.17633204D-18 -0.96333192D-04  0.96929735D-18
  0.41336938D+00  0.77025297D+00  0.13026909D+01  0.19617803D+01  0.24288112D+01
  0.20668088D+01  0.78645886D+00 -0.36833224D-02 -0.22424438D-02 -0.42046030D-02
 -0.71532808D-02 -0.11108290D-01 -0.14741347D-01 -0.15535356D-01 -0.96329117D-02
  0.64078166D-02  0.42345355D-01  0.34341840D-02  0.32493975D-04 -0.46028802D-15
 -0.44210114D-15 -0.31003184D-15 -0.19370263D-16 -0.18604906D-16 -0.13047044D-16
  0.83733629D-04  0.80425149D-04  0.56399666D-04  0.65618799D-15  0.49838438D-17
  0.49239776D-02 -0.24742940D-15  0.37161839D-18 -0.28208344D-02  0.27342693D-16
  0.60406032D-19  0.66571383D-04 -0.34650814D-02 -0.42592795D-02  0.77243608D-02
 -0.41533730D-17  0.21539841D-15 -0.52003328D-17 -0.27283989D-03  0.17990524D-03
  0.92934651D-04 -0.43611726D-18 -0.33483750D-15  0.38426973D-17  0.18024342D-03
  0.23775807D-03 -0.41800149D-03 -0.12569657D-18  0.14718297D-14  0.12458872D-17
  0.11657116D-16 -0.58887268D-18  0.15853264D-02 -0.19777555D-15 -0.71498414D-18
 -0.23979343D-02  0.16280420D-15  0.24816022D-17 -0.23580449D-02 -0.20052871D-17
 -0.10837468D-15 -0.22427028D-19 -0.24643297D-03  0.93102987D-16  0.18083124D-18
  0.64502110D-03  0.23202106D-15 -0.11355015D-18  0.94277809D-04  0.71091866D-18
  0.80946091D-04  0.14598961D-03  0.21526159D-03  0.93558906D-03 -0.82383380D-04
  0.43918854D-05 -0.28086528D-03 -0.21473589D-17  0.27824832D-03 -0.21181191D-03
  0.33770352D-17 -0.81004000D-03 -0.42174559D-04  0.16892519D-18 -0.78576251D-04
  0.27919370D-03  0.19989827D-03 -0.47909197D-03 -0.36226715D-19  0.42991395D-03
  0.27288305D-18  0.61271216D-04  0.80468290D-04 -0.14173951D-03 -0.91888826D-18
  0.86876062D-04  0.25760739D-18  0.80946091D-04  0.14598961D-03  0.21526159D-03
  0.93558906D-03 -0.82383380D-04  0.43918855D-05  0.28086528D-03 -0.15596867D-17
  0.27824832D-03  0.21181191D-03  0.23549643D-17 -0.81004000D-03  0.42174559D-04
  0.26383716D-18 -0.78576251D-04  0.27919370D-03  0.19989827D-03 -0.47909197D-03
  0.24438757D-18 -0.42991395D-03 -0.76545460D-18  0.61271216D-04  0.80468290D-04
 -0.14173951D-03  0.47230685D-18 -0.86876062D-04  0.11060368D-17  0.24726435D-02
  0.46074071D-02  0.77922804D-02  0.11734742D-01  0.14528372D-01  0.12362989D-01
  0.47043455D-02 -0.22032457D-04  0.63242446D-04  0.11858018D-03  0.20174016D-03
  0.31328118D-03  0.41574234D-03  0.43813536D-03  0.27167187D-03 -0.18071623D-03
  0.18846283D-02  0.12460786D-02 -0.60399026D-03 -0.16710557D-15 -0.16050290D-15
 -0.11255572D-15  0.82709350D-18  0.79441342D-18  0.55709753D-18 -0.30399568D-02
 -0.29198422D-02 -0.20475949D-02  0.76912944D-16 -0.17378997D-17  0.37235549D-02
 -0.17080598D-14 -0.22600208D-17  0.12469165D-02 -0.62191802D-16 -0.36132159D-19
  0.54727095D-04  0.80278926D-03  0.47571112D-03 -0.12785004D-02  0.28684194D-18
 -0.52180839D-15 -0.17253135D-17  0.12199160D-02  0.15008322D-02 -0.27207482D-02
 -0.11964158D-18  0.46958490D-15  0.37095882D-17  0.11761234D-03  0.10548839D-03
 -0.22310072D-03  0.10193664D-21  0.28378532D-15  0.42055063D-18  0.70095340D-16
 -0.58030411D-20  0.21203404D-02  0.27571485D-15 -0.41813402D-18 -0.30854715D-02
 -0.48600087D-15  0.43554314D-18 -0.32755496D-02 -0.36297571D-18  0.49386768D-17
  0.23053662D-18  0.35946500D-03 -0.84778872D-16  0.26659348D-18 -0.48760942D-03
  0.69962842D-16 -0.95820333D-18 -0.59078558D-03  0.10728191D-18
MO    2     MO 0.0        OCC NO =    2.0000000  ORB. ENERGY =  -14.224628
 -0.36976343D-03 -0.68932310D-03 -0.11650775D-02 -0.17514931D-02 -0.21519116D-02
 -0.18176334D-02 -0.68554443D-03  0.33927976D-05  0.28417076D-03  0.53205731D-03
  0.90587310D-03  0.14012479D-02  0.18453943D-02  0.19174828D-02  0.12184743D-02
 -0.81659312D-03 -0.12248814D-02 -0.26127915D-02 -0.83288723D-04 -0.29668268D-14
 -0.27815887D-14 -0.19806569D-14  0.53095641D-16  0.49780538D-16  0.35446709D-16
 -0.10860836D-02 -0.10182724D-02 -0.72507061D-03  0.10993169D-13 -0.40813370D-16
  0.50263908D-03  0.28190278D-13  0.16167869D-16 -0.93153246D-03  0.46001692D-15
 -0.12234293D-18  0.15578678D-04  0.11764189D-03 -0.65336310D-04 -0.52305575D-04
  0.18831761D-17 -0.28050517D-14  0.50135488D-17 -0.18203248D-03 -0.19476871D-03
  0.37680119D-03 -0.35899133D-17 -0.79110214D-14  0.15260929D-17 -0.20500956D-04
  0.10911311D-04  0.95896448D-05 -0.11110027D-17 -0.16858512D-14 -0.93720401D-18
  0.46564205D-15 -0.10651180D-17 -0.16077056D-03 -0.73128816D-15 -0.30912903D-17
  0.35847137D-03 -0.66563799D-15  0.62866443D-17  0.12384030D-03  0.11332439D-17
  0.32424464D-15 -0.24136757D-19 -0.29417059D-04 -0.16091908D-14  0.13711617D-18
  0.23054792D-03  0.63645685D-15 -0.64705902D-19 -0.14229674D-03  0.12248341D-17
 -0.27145406D-02 -0.50581467D-02 -0.85545941D-02 -0.12882745D-01 -0.15949674D-01
 -0.13572452D-01 -0.51645685D-02  0.24187878D-04 -0.99550409D-05 -0.18665795D-04
 -0.31756070D-04 -0.49313824D-04 -0.65442313D-04 -0.68967215D-04 -0.42764073D-04
  0.28446678D-04  0.20467588D-02 -0.12572855D-01 -0.17035637D-02 -0.12129553D-14
 -0.11650290D-14 -0.81699879D-15  0.59814707D-17  0.57451311D-17  0.40288825D-17
  0.35378851D-02  0.33980964D-02  0.23829797D-02  0.16902861D-14 -0.62501099D-17
 -0.36133237D-02 -0.12768975D-14 -0.13344442D-17 -0.10601052D-01  0.41885564D-15
  0.45935983D-18 -0.22809921D-03  0.30342023D-03 -0.16299810D-03 -0.14042213D-03
  0.21426553D-17 -0.40955161D-15 -0.87975482D-17  0.20317162D-02  0.23108797D-02
 -0.43425959D-02 -0.98144520D-18  0.28703813D-15  0.54146021D-17  0.33721568D-03
  0.33821847D-03 -0.67543415D-03  0.48966707D-18  0.40212689D-14 -0.16583132D-17
  0.10314089D-15 -0.78714687D-18 -0.18926123D-02 -0.46020815D-15 -0.66021319D-18
  0.28632481D-02  0.15078547D-15  0.30216538D-17  0.28145889D-02  0.57555462D-18
 -0.25912362D-15  0.51114293D-18 -0.99483776D-03  0.28062378D-15  0.46132946D-18
  0.16172353D-02  0.49674708D-15 -0.19947583D-17  0.13672780D-02  0.39431372D-19
  0.42376078D-04  0.76427002D-04  0.11269157D-03  0.53913261D-03 -0.14489860D-03
  0.67495909D-05 -0.22685137D-03 -0.22064787D-17 -0.67560502D-05  0.53330261D-04
  0.37394266D-17 -0.23867500D-03  0.67360575D-04  0.79652478D-18  0.47526261D-04
  0.16406806D-03  0.10402636D-03 -0.26809443D-03 -0.35397298D-17  0.23231347D-03
 -0.14273662D-17 -0.23415901D-05  0.72964885D-04 -0.70623294D-04 -0.25592124D-18
 -0.73113955D-04  0.12792979D-17  0.42376078D-04  0.76427002D-04  0.11269157D-03
  0.53913261D-03 -0.14489860D-03  0.67495909D-05  0.22685137D-03  0.31131620D-17
 -0.67560502D-05 -0.53330261D-04 -0.39588005D-17 -0.23867500D-03 -0.67360575D-04
 -0.25918325D-17  0.47526261D-04  0.16406806D-03  0.10402636D-03 -0.26809443D-03
  0.19462591D-18 -0.23231347D-03 -0.22280020D-18 -0.23415901D-05  0.72964885D-04
 -0.70623294D-04 -0.14264163D-17  0.73113955D-04 -0.21805090D-18  0.41353166D+00
  0.77055536D+00  0.13032023D+01  0.19625504D+01  0.24297648D+01  0.20676201D+01
  0.78676761D+00 -0.36847684D-02 -0.23181698D-02 -0.43465900D-02 -0.73948429D-02
 -0.11483410D-01 -0.15239153D-01 -0.16059976D-01 -0.99582095D-02  0.66242048D-02
  0.42659442D-01  0.16851959D-01  0.16491152D-02 -0.63569289D-15 -0.61057542D-15
 -0.42817763D-15  0.12193815D-17  0.11712013D-17  0.82132721D-18 -0.67831915D-02
 -0.65151743D-02 -0.45688900D-02  0.32340268D-15 -0.38680555D-18 -0.74814307D-02
 -0.47728360D-14  0.30717554D-17 -0.42059943D-02 -0.29515633D-15  0.80532415D-20
 -0.68182867D-04 -0.39822253D-02 -0.27706470D-02  0.67528723D-02  0.88973356D-17
 -0.14236655D-14  0.24645647D-17 -0.28472148D-03 -0.22326371D-03  0.50798519D-03
 -0.60059302D-18  0.14861116D-14 -0.23653556D-17 -0.16004016D-04 -0.85642191D-05
  0.24568235D-04 -0.38357675D-20  0.85238518D-15 -0.13156485D-17  0.19114013D-15
  0.79189835D-18 -0.14062751D-02  0.75677118D-15  0.90814647D-18  0.21795440D-02
 -0.13301916D-14 -0.32838415D-17  0.20392814D-02 -0.13347969D-17  0.55080240D-16
 -0.29107358D-18  0.20408287D-03 -0.18930226D-15 -0.27982891D-18 -0.27386197D-03
  0.24061539D-16  0.11530497D-17 -0.33838664D-03  0.19388967D-18
MO    3     MO 0.0        OCC NO =    2.0000000  ORB. ENERGY =  -10.068024
  0.33099873D+00  0.61705690D+00  0.10429349D+01  0.15678727D+01  0.19263128D+01
  0.16270791D+01  0.61367437D+00 -0.30371087D-02 -0.38277711D-02 -0.71667952D-02
 -0.12202082D-01 -0.18874766D-01 -0.24857402D-01 -0.25828433D-01 -0.16412810D-01
  0.10999483D-01  0.33661100D-01  0.76351269D-02  0.95191319D-03 -0.40247887D-14
 -0.37734952D-14 -0.26869534D-14  0.28096853D-16  0.26342586D-16  0.18757491D-16
  0.37604430D-02  0.35256544D-02  0.25104760D-02  0.11701885D-13 -0.52793462D-17
  0.14016626D-02  0.27807252D-13 -0.96834125D-18  0.23470459D-02 -0.24078928D-16
 -0.15039673D-19  0.22581175D-04  0.21482550D-02 -0.44707930D-02  0.23225380D-02
 -0.20845066D-17 -0.19429226D-14  0.29707132D-17  0.68951310D-03 -0.34164962D-03
 -0.34786348D-03 -0.26591123D-19 -0.56023264D-14 -0.49553037D-18 -0.13477760D-03
 -0.32059050D-04  0.16683665D-03 -0.82946835D-19 -0.19639913D-14 -0.34497331D-19
  0.12721056D-14  0.51775659D-18  0.14097554D-02 -0.11834914D-14 -0.15929396D-17
 -0.44744035D-02 -0.26328252D-14  0.39669804D-19  0.24513720D-03  0.40418387D-18
  0.10802910D-14  0.14438589D-18 -0.35019066D-03 -0.16243410D-14 -0.21584209D-18
  0.96824807D-03 -0.16165320D-14 -0.21731560D-18  0.82323896D-04 -0.10718514D-18
  0.13204514D-03  0.24604668D-03  0.41612662D-03  0.62666363D-03  0.77585022D-03
  0.66021353D-03  0.25122343D-03 -0.11765865D-05 -0.15461503D-03 -0.28990462D-03
 -0.49321401D-03 -0.76590929D-03 -0.10164062D-02 -0.10711526D-02 -0.66418293D-03
  0.44181474D-03  0.11279816D-02 -0.74932666D-03 -0.57013452D-03 -0.21611020D-14
 -0.20757127D-14 -0.14556330D-14  0.39525974D-18  0.37964225D-18  0.26623135D-18
 -0.14952394D-02 -0.14361596D-02 -0.10071342D-02  0.34824108D-14 -0.70096355D-18
 -0.10800449D-02  0.33846772D-15 -0.95919427D-18  0.11014109D-01  0.10171978D-14
 -0.23645468D-19  0.29482596D-03  0.49163520D-03 -0.51287445D-03  0.21239243D-04
 -0.46245617D-19 -0.18258244D-15  0.21468424D-17  0.84718067D-03  0.14528037D-02
 -0.22999844D-02 -0.18649279D-19 -0.14360121D-14 -0.35147960D-17 -0.25223855D-03
 -0.13158820D-03  0.38382675D-03  0.49032406D-19  0.39730491D-14 -0.11050503D-17
 -0.31638038D-16  0.56240892D-18  0.45314924D-03 -0.11915557D-14  0.22719016D-18
 -0.12869488D-02  0.12864698D-14 -0.19144169D-17 -0.72498955D-04  0.14498363D-18
 -0.17448698D-15  0.24605707D-21  0.92894464D-03  0.68271541D-15  0.17177569D-18
 -0.11450637D-02 -0.15925446D-15 -0.17251386D-18 -0.16417702D-02 -0.15495854D-18
  0.84652766D-04  0.15267475D-03  0.22511883D-03 -0.20837085D-02 -0.68305572D-04
 -0.39363953D-04  0.19131193D-02 -0.29281191D-18 -0.91812752D-03  0.24810296D-02
  0.14460934D-17 -0.17165431D-02  0.23711970D-03  0.31075798D-18  0.55469049D-04
 -0.17729531D-02  0.12879099D-02  0.48504325D-03 -0.12210761D-17  0.34468118D-02
  0.11104436D-17 -0.21961051D-03  0.22072095D-03 -0.11104465D-05 -0.48179373D-18
  0.18131802D-03  0.25747573D-18  0.84652766D-04  0.15267475D-03  0.22511883D-03
 -0.20837085D-02 -0.68305572D-04 -0.39363953D-04 -0.19131193D-02 -0.45271137D-18
 -0.91812752D-03 -0.24810296D-02  0.14113709D-17 -0.17165431D-02 -0.23711970D-03
  0.70786265D-19  0.55469049D-04 -0.17729531D-02  0.12879099D-02  0.48504325D-03
  0.67920537D-18 -0.34468118D-02  0.10085724D-17 -0.21961051D-03  0.22072095D-03
 -0.11104465D-05  0.41207946D-18 -0.18131802D-03  0.11751475D-18 -0.31882009D-03
 -0.59407429D-03 -0.10047286D-02 -0.15130655D-02 -0.18732733D-02 -0.15940710D-02
 -0.60657343D-03  0.28408422D-05  0.25252839D-03  0.47349310D-03  0.80555265D-03
  0.12509382D-02  0.16600678D-02  0.17494835D-02  0.10847914D-02 -0.72160366D-03
 -0.11303579D-02 -0.11280418D-01 -0.96161910D-03 -0.13324539D-14 -0.12798061D-14
 -0.89748836D-15 -0.70929270D-18 -0.68126716D-18 -0.47775155D-18  0.79103000D-03
  0.75977486D-03  0.53280658D-03  0.15121339D-14  0.10358524D-17 -0.49987323D-03
 -0.51679024D-14  0.21978205D-17  0.25795652D-02 -0.49923864D-15  0.50321794D-19
  0.64562896D-05  0.26983060D-03  0.18023599D-04 -0.28785420D-03  0.73716316D-19
 -0.13551486D-14  0.12032094D-17 -0.49899485D-03 -0.30610429D-03  0.80509914D-03
  0.81761595D-19  0.87419919D-15 -0.25041176D-17  0.17774773D-04 -0.35585174D-04
  0.17810402D-04 -0.27738927D-20  0.99104046D-15 -0.51973333D-18  0.19823162D-15
 -0.45600559D-18  0.97161080D-04  0.81614228D-15 -0.49656791D-18 -0.12040780D-03
 -0.14108371D-14  0.18645847D-17 -0.17107544D-03  0.18569297D-18  0.60892724D-16
 -0.11424080D-18 -0.98741321D-04 -0.26375890D-15 -0.16415785D-18  0.13803396D-03
  0.81080726D-16  0.50688023D-18  0.15819001D-03 -0.64195389D-19
MO    4     MO 0.0        OCC NO =    2.0000000  ORB. ENERGY =   -1.076652
 -0.20882997D-02 -0.38930655D-02 -0.65799665D-02 -0.98918451D-02 -0.12153275D-01
 -0.10265383D-01 -0.38717249D-02  0.19161382D-04 -0.10235701D-01 -0.19164462D-01
 -0.32629136D-01 -0.50472313D-01 -0.66470260D-01 -0.69066858D-01 -0.43888888D-01
  0.29413312D-01  0.12289875D-01  0.61379363D-02  0.28316728D-02 -0.12111214D-14
 -0.11355033D-14 -0.80854597D-15 -0.15278831D-15 -0.14324875D-15 -0.10200164D-15
  0.76279333D-01  0.71516723D-01  0.50924167D-01  0.11871914D-13  0.62845769D-16
  0.15183990D-01 -0.84096138D-13  0.37118578D-16  0.53608219D-03  0.15580944D-14
 -0.21728417D-17  0.20953994D-03 -0.60960666D-02 -0.87542633D-02  0.14850330D-01
  0.55678397D-16 -0.48127428D-14  0.37031748D-16  0.92680347D-03 -0.65503455D-03
 -0.27176892D-03  0.34051441D-17 -0.85532084D-14  0.66400774D-16  0.13852331D-04
  0.45583831D-04 -0.59436162D-04  0.46272308D-17  0.43055041D-14  0.41550216D-17
  0.27174389D-15 -0.19902379D-17  0.21782999D-02 -0.45685896D-14 -0.20746247D-16
 -0.42294054D-02  0.37533579D-14  0.26716960D-16 -0.23054942D-02 -0.88801629D-17
 -0.23032667D-14 -0.34996723D-17 -0.51772584D-03  0.39833912D-14  0.21003482D-17
  0.14546997D-02  0.29264089D-14  0.83986687D-17  0.98477815D-04  0.20072064D-16
 -0.88722503D-02 -0.16532132D-01 -0.27959980D-01 -0.42106180D-01 -0.52130182D-01
 -0.44360433D-01 -0.16879963D-01  0.79056068D-04 -0.63993852D-01 -0.11998907D+00
 -0.20413711D+00 -0.31700338D+00 -0.42068192D+00 -0.44334100D+00 -0.27489970D+00
  0.18286339D+00  0.94062550D-01  0.15540967D-01 -0.86608458D-02  0.33499345D-14
  0.32175720D-14  0.22563836D-14 -0.15874206D-17 -0.15246985D-17 -0.10692238D-17
  0.29857285D+00  0.28677565D+00  0.20110688D+00 -0.65952356D-14 -0.19700101D-16
  0.50841257D-01  0.40431928D-15 -0.18207101D-16 -0.13028478D-02 -0.54559861D-14
 -0.30378576D-17  0.94076439D-04 -0.32186723D-01 -0.34713282D-01  0.66900005D-01
  0.46422417D-17  0.52922651D-14 -0.11593963D-15 -0.12933739D-02 -0.22982610D-02
  0.35916350D-02 -0.12576278D-16 -0.53594445D-14  0.47509867D-16  0.66575584D-03
  0.64141714D-03 -0.13071730D-02 -0.33058934D-17 -0.14865952D-13  0.21927321D-16
  0.93058111D-15 -0.92275716D-18  0.95485743D-02  0.19664750D-14  0.23656299D-17
 -0.14606488D-01 -0.47582183D-14  0.40264159D-18 -0.14039235D-01 -0.42037559D-16
  0.22889606D-15  0.61795304D-17 -0.58057472D-03 -0.11343112D-14  0.21945862D-17
  0.19666783D-02  0.44762301D-15 -0.20733177D-16 -0.22495419D-03  0.93832140D-17
  0.14825026D-02  0.26737544D-02  0.39424493D-02  0.18369153D-02 -0.60365400D-03
 -0.28150370D-04 -0.54350347D-03 -0.21661438D-16  0.16987288D-02  0.61760514D-03
  0.21989497D-16 -0.15571517D-02  0.10504982D-03 -0.11264911D-16 -0.73125929D-04
 -0.27947415D-03 -0.69431316D-04  0.34890547D-03 -0.17053451D-16  0.36674217D-03
  0.30811735D-18  0.58531320D-04  0.29729026D-03 -0.35582158D-03 -0.48708921D-17
  0.27417265D-04 -0.83773277D-17  0.14825026D-02  0.26737544D-02  0.39424493D-02
  0.18369153D-02 -0.60365400D-03 -0.28150370D-04  0.54350347D-03  0.91693454D-17
  0.16987288D-02 -0.61760514D-03 -0.17603055D-16 -0.15571517D-02 -0.10504982D-03
  0.39612063D-17 -0.73125929D-04 -0.27947415D-03 -0.69431316D-04  0.34890547D-03
 -0.11021476D-16 -0.36674217D-03 -0.22551227D-17  0.58531320D-04  0.29729026D-03
 -0.35582158D-03  0.19186135D-17 -0.27417265D-04  0.71291907D-17 -0.81426020D-02
 -0.15172540D-01 -0.25660569D-01 -0.38643394D-01 -0.47843029D-01 -0.40712259D-01
 -0.15491765D-01  0.72554546D-04 -0.49169420D-01 -0.92193121D-01 -0.15684793D+00
 -0.24356827D+00 -0.32322927D+00 -0.34063928D+00 -0.21121808D+00  0.14050235D+00
  0.71587076D-01  0.29408950D-01  0.26644010D-02  0.23731037D-14  0.22793378D-14
  0.15984290D-14 -0.32515434D-16 -0.31230685D-16 -0.21901112D-16 -0.39207153D+00
 -0.37658002D+00 -0.26408390D+00 -0.33934099D-14  0.20834550D-16 -0.88285048D-01
  0.20667347D-13 -0.23914495D-16 -0.41986324D-02  0.28073081D-14 -0.73090113D-19
 -0.16492965D-03 -0.31429479D-01 -0.31324537D-01  0.62754016D-01  0.66786045D-17
  0.34091790D-14  0.78227765D-17 -0.41887835D-02 -0.39265566D-02  0.81153401D-02
 -0.38871086D-17 -0.54258698D-14 -0.40698969D-17  0.62390766D-04  0.18592926D-03
 -0.24832003D-03  0.10280733D-18 -0.46863989D-14  0.90692776D-17 -0.81984264D-15
  0.90966539D-17 -0.12060560D-01 -0.19031548D-14 -0.31904804D-17  0.18534807D-01
  0.43626828D-14 -0.24099481D-16  0.17646873D-01 -0.21321521D-16 -0.40391613D-15
 -0.16828216D-17 -0.14007274D-03  0.22327124D-15  0.74338710D-17  0.38536580D-03
  0.98847714D-15 -0.23854062D-17  0.34852432D-04  0.27836851D-17
MO    5     MO 0.0        OCC NO =    2.0000000  ORB. ENERGY =   -0.812889
 -0.82035594D-02 -0.15293300D-01 -0.25848371D-01 -0.38858569D-01 -0.47742241D-01
 -0.40325955D-01 -0.15209467D-01  0.75272499D-04 -0.39443080D-01 -0.73849892D-01
 -0.12573576D+00 -0.19449410D+00 -0.25614189D+00 -0.26614783D+00 -0.16912500D+00
  0.11334364D+00  0.49190914D-01  0.37675679D-01  0.20628367D-02  0.17083609D-13
  0.16016970D-13  0.11405037D-13  0.12798196D-15  0.11999122D-15  0.85440898D-16
  0.19853015D+00  0.18613463D+00  0.13253895D+00 -0.55171146D-13  0.91125230D-16
  0.27910929D-01 -0.72377232D-12 -0.11643437D-16  0.51241160D-03 -0.13100298D-13
 -0.46403573D-18 -0.70245683D-04 -0.61936598D-02 -0.19194252D-01  0.25387912D-01
  0.28574213D-16 -0.33397138D-14 -0.18674017D-15  0.31338647D-02 -0.40205294D-02
  0.88666466D-03 -0.17907616D-16  0.79603383D-13 -0.28312238D-16  0.10269712D-03
 -0.16927425D-04 -0.85769698D-04 -0.27921653D-17  0.42894643D-13 -0.61846250D-17
 -0.33489043D-14  0.49761265D-17  0.70931675D-02 -0.86848353D-14 -0.20519188D-16
 -0.16151909D-01  0.18731548D-13  0.55908083D-17 -0.51275937D-02 -0.69616768D-17
 -0.92151150D-14 -0.15023966D-17  0.63856119D-05  0.32435483D-13  0.87355983D-17
 -0.86533342D-03 -0.47901385D-14 -0.42284084D-17  0.84617658D-03 -0.45020726D-17
 -0.21284285D-02 -0.39660131D-02 -0.67075224D-02 -0.10101157D-01 -0.12505888D-01
 -0.10641946D-01 -0.40494568D-02  0.18965334D-04 -0.28457173D-01 -0.53357466D-01
 -0.90776925D-01 -0.14096698D+00 -0.18707138D+00 -0.19714756D+00 -0.12224406D+00
  0.81316797D-01  0.39931436D-01  0.44999409D-01  0.50848698D-02  0.17483905D-13
  0.16793082D-13  0.11776468D-13  0.13357362D-15  0.12829586D-15  0.89969914D-16
 -0.72630806D+00 -0.69761021D+00 -0.48921244D+00 -0.32172308D-13  0.38692259D-16
 -0.16592526D+00  0.26113010D-13  0.20078249D-16  0.96008685D-02 -0.15324013D-13
  0.42534095D-17  0.10826460D-02  0.98008997D-03 -0.12590935D-02  0.27900350D-03
 -0.23187396D-17  0.11327730D-13  0.13259360D-16 -0.29153558D-02 -0.33550370D-02
  0.62703928D-02  0.42286387D-17 -0.72218590D-14 -0.15106506D-16 -0.64310619D-03
 -0.67953269D-03  0.13226389D-02  0.29728619D-17 -0.11564837D-12 -0.24824265D-16
  0.21784721D-14 -0.33316975D-17 -0.18551688D-01  0.14158215D-13 -0.43463770D-17
  0.25303231D-01 -0.20693631D-13  0.14341469D-16  0.30351832D-01  0.19179126D-16
  0.39520315D-14  0.71967793D-18 -0.69147924D-04 -0.72285132D-14 -0.41685728D-17
  0.71608865D-04 -0.46275813D-14  0.20095390D-17  0.13583491D-03 -0.88103862D-17
  0.95956842D-02  0.17306212D-01  0.25517999D-01  0.35510422D-03 -0.55606545D-02
 -0.16543962D-03 -0.48348311D-02  0.30463268D-17  0.63308331D-02  0.48855238D-02
 -0.71424238D-18 -0.11113159D-02  0.11495208D-02  0.22011914D-17 -0.79933920D-03
 -0.19958487D-02 -0.15006764D-02  0.34965251D-02  0.12986190D-16 -0.18244681D-02
  0.15395417D-16 -0.28849555D-03  0.24710958D-03  0.41385966D-04 -0.28615209D-17
  0.48970550D-03 -0.59483457D-20  0.95956842D-02  0.17306212D-01  0.25517999D-01
  0.35510421D-03 -0.55606545D-02 -0.16543962D-03  0.48348311D-02  0.11928693D-16
  0.63308331D-02 -0.48855238D-02 -0.22121982D-17 -0.11113159D-02 -0.11495208D-02
 -0.12425548D-16 -0.79933920D-03 -0.19958487D-02 -0.15006764D-02  0.34965251D-02
  0.15910050D-16  0.18244681D-02  0.18410056D-16 -0.28849555D-03  0.24710958D-03
  0.41385966D-04 -0.76914908D-17 -0.48970550D-03 -0.14664143D-16  0.41640357D-02
  0.77590675D-02  0.13122528D-01  0.19761800D-01  0.24466391D-01  0.20819794D-01
  0.79223159D-02 -0.37103585D-04  0.34880482D-01  0.65401229D-01  0.11126695D+00
  0.17278582D+00  0.22929684D+00  0.24164739D+00  0.14983680D+00 -0.99671497D-01
 -0.53167147D-01 -0.52233387D-01 -0.64223745D-02  0.13212591D-13  0.12690536D-13
  0.88994797D-14  0.20483889D-16  0.19674531D-16  0.13797139D-16  0.18502165D+00
  0.17771108D+00  0.12462328D+00 -0.16346501D-13 -0.77147195D-17  0.41683397D-01
  0.13859796D-12  0.23457698D-16  0.11702941D-01  0.10855772D-13 -0.81374813D-18
  0.23454563D-03  0.13869558D-01  0.13610583D-01 -0.27480142D-01  0.18649010D-17
  0.21846033D-13 -0.27946310D-16  0.50865632D-03  0.11136227D-02 -0.16222791D-02
  0.58581605D-17 -0.30037595D-13  0.11067156D-17  0.19384405D-03  0.78155333D-04
 -0.27199939D-03 -0.10543884D-17 -0.26488006D-13 -0.61500467D-17 -0.46796673D-14