 Molden2AIM, Version 4.0.0 (06/02/2016)           Time: Sat Jun 30 04:30:13 2018
GAUSSIAN             16 MOL ORBITALS    354 PRIMITIVES        6 NUCLEI
  C    1    (CENTRE  1)   0.00000000  0.00000000  1.39243714  CHARGE =  6.0
  C    2    (CENTRE  2)   0.00000000  0.00000000 -1.10464885  CHARGE =  6.0
  H    3    (CENTRE  3)   0.00000000  1.78366903  2.40402832  CHARGE =  1.0
  H    4    (CENTRE  4)   0.00000000 -1.78366903  2.40402832  CHARGE =  1.0
  F    5    (CENTRE  5)   0.00000000  2.04058485 -2.54792151  CHARGE =  9.0
  F    6    (CENTRE  6)   0.00000000 -2.04058485 -2.54792151  CHARGE =  9.0
CENTRE ASSIGNMENTS    1  1  1  1  1  1  1  1  1  1  1  1  1  1  1  1  1  1  1  1
CENTRE ASSIGNMENTS    1  1  1  1  1  1  1  1  1  1  1  1  1  1  1  1  1  1  1  1
CENTRE ASSIGNMENTS    1  1  1  1  1  1  1  1  1  1  1  1  1  1  1  1  1  1  1  1
CENTRE ASSIGNMENTS    1  1  1  1  1  1  1  1  1  1  1  1  1  1  1  2  2  2  2  2
CENTRE ASSIGNMENTS    2  2  2  2  2  2  2  2  2  2  2  2  2  2  2  2  2  2  2  2
CENTRE ASSIGNMENTS    2  2  2  2  2  2  2  2  2  2  2  2  2  2  2  2  2  2  2  2
CENTRE ASSIGNMENTS    2  2  2  2  2  2  2  2  2  2  2  2  2  2  2  2  2  2  2  2
CENTRE ASSIGNMENTS    2  2  2  2  2  2  2  2  2  2  3  3  3  3  3  3  3  3  3  3
CENTRE ASSIGNMENTS    3  3  3  3  3  3  3  3  3  3  3  3  3  3  3  3  3  4  4  4
CENTRE ASSIGNMENTS    4  4  4  4  4  4  4  4  4  4  4  4  4  4  4  4  4  4  4  4
CENTRE ASSIGNMENTS    4  4  4  4  5  5  5  5  5  5  5  5  5  5  5  5  5  5  5  5
CENTRE ASSIGNMENTS    5  5  5  5  5  5  5  5  5  5  5  5  5  5  5  5  5  5  5  5
CENTRE ASSIGNMENTS    5  5  5  5  5  5  5  5  5  5  5  5  5  5  5  5  5  5  5  5
CENTRE ASSIGNMENTS    5  5  5  5  5  5  5  5  5  5  5  5  5  5  5  5  5  5  5  6
CENTRE ASSIGNMENTS    6  6  6  6  6  6  6  6  6  6  6  6  6  6  6  6  6  6  6  6
CENTRE ASSIGNMENTS    6  6  6  6  6  6  6  6  6  6  6  6  6  6  6  6  6  6  6  6
CENTRE ASSIGNMENTS    6  6  6  6  6  6  6  6  6  6  6  6  6  6  6  6  6  6  6  6
CENTRE ASSIGNMENTS    6  6  6  6  6  6  6  6  6  6  6  6  6  6
TYPE ASSIGNMENTS      1  1  1  1  1  1  1  1  1  1  1  1  1  1  1  1  1  1  1  2
TYPE ASSIGNMENTS      2  2  3  3  3  4  4  4  2  3  4  2  3  4  2  3  4  5  6  7
TYPE ASSIGNMENTS      8  9 10  5  6  7  8  9 10  5  6  7  8  9 10 11 12 13 17 14
TYPE ASSIGNMENTS     15 18 19 16 20 11 12 13 17 14 15 18 19 16 20  1  1  1  1  1
TYPE ASSIGNMENTS      1  1  1  1  1  1  1  1  1  1  1  1  1  1  2  2  2  3  3  3
TYPE ASSIGNMENTS      4  4  4  2  3  4  2  3  4  2  3  4  5  6  7  8  9 10  5  6
TYPE ASSIGNMENTS      7  8  9 10  5  6  7  8  9 10 11 12 13 17 14 15 18 19 16 20
TYPE ASSIGNMENTS     11 12 13 17 14 15 18 19 16 20  1  1  1  1  1  1  2  3  4  2
TYPE ASSIGNMENTS      3  4  2  3  4  5  6  7  8  9 10  5  6  7  8  9 10  1  1  1
TYPE ASSIGNMENTS      1  1  1  2  3  4  2  3  4  2  3  4  5  6  7  8  9 10  5  6
TYPE ASSIGNMENTS      7  8  9 10  1  1  1  1  1  1  1  1  1  1  1  1  1  1  1  1
TYPE ASSIGNMENTS      1  1  1  2  2  2  3  3  3  4  4  4  2  3  4  2  3  4  2  3
TYPE ASSIGNMENTS      4  5  6  7  8  9 10  5  6  7  8  9 10  5  6  7  8  9 10 11
TYPE ASSIGNMENTS     12 13 17 14 15 18 19 16 20 11 12 13 17 14 15 18 19 16 20  1
TYPE ASSIGNMENTS      1  1  1  1  1  1  1  1  1  1  1  1  1  1  1  1  1  1  2  2
TYPE ASSIGNMENTS      2  3  3  3  4  4  4  2  3  4  2  3  4  2  3  4  5  6  7  8
TYPE ASSIGNMENTS      9 10  5  6  7  8  9 10  5  6  7  8  9 10 11 12 13 17 14 15
TYPE ASSIGNMENTS     18 19 16 20 11 12 13 17 14 15 18 19 16 20
EXPONENTS  0.8236000D+04 0.1235000D+04 0.2808000D+03 0.7927000D+02 0.2559000D+02
EXPONENTS  0.8997000D+01 0.3319000D+01 0.3643000D+00 0.8236000D+04 0.1235000D+04
EXPONENTS  0.2808000D+03 0.7927000D+02 0.2559000D+02 0.8997000D+01 0.3319000D+01
EXPONENTS  0.3643000D+00 0.9059000D+00 0.1285000D+00 0.4402000D-01 0.1871000D+02
EXPONENTS  0.4133000D+01 0.1200000D+01 0.1871000D+02 0.4133000D+01 0.1200000D+01
EXPONENTS  0.1871000D+02 0.4133000D+01 0.1200000D+01 0.3827000D+00 0.3827000D+00
EXPONENTS  0.3827000D+00 0.1209000D+00 0.1209000D+00 0.1209000D+00 0.3569000D-01
EXPONENTS  0.3569000D-01 0.3569000D-01 0.1097000D+01 0.1097000D+01 0.1097000D+01
EXPONENTS  0.1097000D+01 0.1097000D+01 0.1097000D+01 0.3180000D+00 0.3180000D+00
EXPONENTS  0.3180000D+00 0.3180000D+00 0.3180000D+00 0.3180000D+00 0.1000000D+00
EXPONENTS  0.1000000D+00 0.1000000D+00 0.1000000D+00 0.1000000D+00 0.1000000D+00
EXPONENTS  0.7610000D+00 0.7610000D+00 0.7610000D+00 0.7610000D+00 0.7610000D+00
EXPONENTS  0.7610000D+00 0.7610000D+00 0.7610000D+00 0.7610000D+00 0.7610000D+00
EXPONENTS  0.2680000D+00 0.2680000D+00 0.2680000D+00 0.2680000D+00 0.2680000D+00
EXPONENTS  0.2680000D+00 0.2680000D+00 0.2680000D+00 0.2680000D+00 0.2680000D+00
EXPONENTS  0.8236000D+04 0.1235000D+04 0.2808000D+03 0.7927000D+02 0.2559000D+02
EXPONENTS  0.8997000D+01 0.3319000D+01 0.3643000D+00 0.8236000D+04 0.1235000D+04
EXPONENTS  0.2808000D+03 0.7927000D+02 0.2559000D+02 0.8997000D+01 0.3319000D+01
EXPONENTS  0.3643000D+00 0.9059000D+00 0.1285000D+00 0.4402000D-01 0.1871000D+02
EXPONENTS  0.4133000D+01 0.1200000D+01 0.1871000D+02 0.4133000D+01 0.1200000D+01
EXPONENTS  0.1871000D+02 0.4133000D+01 0.1200000D+01 0.3827000D+00 0.3827000D+00
EXPONENTS  0.3827000D+00 0.1209000D+00 0.1209000D+00 0.1209000D+00 0.3569000D-01
EXPONENTS  0.3569000D-01 0.3569000D-01 0.1097000D+01 0.1097000D+01 0.1097000D+01
EXPONENTS  0.1097000D+01 0.1097000D+01 0.1097000D+01 0.3180000D+00 0.3180000D+00
EXPONENTS  0.3180000D+00 0.3180000D+00 0.3180000D+00 0.3180000D+00 0.1000000D+00
EXPONENTS  0.1000000D+00 0.1000000D+00 0.1000000D+00 0.1000000D+00 0.1000000D+00
EXPONENTS  0.7610000D+00 0.7610000D+00 0.7610000D+00 0.7610000D+00 0.7610000D+00
EXPONENTS  0.7610000D+00 0.7610000D+00 0.7610000D+00 0.7610000D+00 0.7610000D+00
EXPONENTS  0.2680000D+00 0.2680000D+00 0.2680000D+00 0.2680000D+00 0.2680000D+00
EXPONENTS  0.2680000D+00 0.2680000D+00 0.2680000D+00 0.2680000D+00 0.2680000D+00
EXPONENTS  0.3387000D+02 0.5095000D+01 0.1159000D+01 0.3258000D+00 0.1027000D+00
EXPONENTS  0.2526000D-01 0.1407000D+01 0.1407000D+01 0.1407000D+01 0.3880000D+00
EXPONENTS  0.3880000D+00 0.3880000D+00 0.1020000D+00 0.1020000D+00 0.1020000D+00
EXPONENTS  0.1057000D+01 0.1057000D+01 0.1057000D+01 0.1057000D+01 0.1057000D+01
EXPONENTS  0.1057000D+01 0.2470000D+00 0.2470000D+00 0.2470000D+00 0.2470000D+00
EXPONENTS  0.2470000D+00 0.2470000D+00 0.3387000D+02 0.5095000D+01 0.1159000D+01
EXPONENTS  0.3258000D+00 0.1027000D+00 0.2526000D-01 0.1407000D+01 0.1407000D+01
EXPONENTS  0.1407000D+01 0.3880000D+00 0.3880000D+00 0.3880000D+00 0.1020000D+00
EXPONENTS  0.1020000D+00 0.1020000D+00 0.1057000D+01 0.1057000D+01 0.1057000D+01
EXPONENTS  0.1057000D+01 0.1057000D+01 0.1057000D+01 0.2470000D+00 0.2470000D+00
EXPONENTS  0.2470000D+00 0.2470000D+00 0.2470000D+00 0.2470000D+00 0.1950000D+05
EXPONENTS  0.2923000D+04 0.6645000D+03 0.1875000D+03 0.6062000D+02 0.2142000D+02
EXPONENTS  0.7950000D+01 0.8815000D+00 0.1950000D+05 0.2923000D+04 0.6645000D+03
EXPONENTS  0.1875000D+03 0.6062000D+02 0.2142000D+02 0.7950000D+01 0.8815000D+00
EXPONENTS  0.2257000D+01 0.3041000D+00 0.9158000D-01 0.4388000D+02 0.9926000D+01
EXPONENTS  0.2930000D+01 0.4388000D+02 0.9926000D+01 0.2930000D+01 0.4388000D+02
EXPONENTS  0.9926000D+01 0.2930000D+01 0.9132000D+00 0.9132000D+00 0.9132000D+00
EXPONENTS  0.2672000D+00 0.2672000D+00 0.2672000D+00 0.7361000D-01 0.7361000D-01
EXPONENTS  0.7361000D-01 0.3107000D+01 0.3107000D+01 0.3107000D+01 0.3107000D+01
EXPONENTS  0.3107000D+01 0.3107000D+01 0.8550000D+00 0.8550000D+00 0.8550000D+00
EXPONENTS  0.8550000D+00 0.8550000D+00 0.8550000D+00 0.2920000D+00 0.2920000D+00
EXPONENTS  0.2920000D+00 0.2920000D+00 0.2920000D+00 0.2920000D+00 0.1917000D+01
EXPONENTS  0.1917000D+01 0.1917000D+01 0.1917000D+01 0.1917000D+01 0.1917000D+01
EXPONENTS  0.1917000D+01 0.1917000D+01 0.1917000D+01 0.1917000D+01 0.7240000D+00
EXPONENTS  0.7240000D+00 0.7240000D+00 0.7240000D+00 0.7240000D+00 0.7240000D+00
EXPONENTS  0.7240000D+00 0.7240000D+00 0.7240000D+00 0.7240000D+00 0.1950000D+05
EXPONENTS  0.2923000D+04 0.6645000D+03 0.1875000D+03 0.6062000D+02 0.2142000D+02
EXPONENTS  0.7950000D+01 0.8815000D+00 0.1950000D+05 0.2923000D+04 0.6645000D+03
EXPONENTS  0.1875000D+03 0.6062000D+02 0.2142000D+02 0.7950000D+01 0.8815000D+00
EXPONENTS  0.2257000D+01 0.3041000D+00 0.9158000D-01 0.4388000D+02 0.9926000D+01
EXPONENTS  0.2930000D+01 0.4388000D+02 0.9926000D+01 0.2930000D+01 0.4388000D+02
EXPONENTS  0.9926000D+01 0.2930000D+01 0.9132000D+00 0.9132000D+00 0.9132000D+00
EXPONENTS  0.2672000D+00 0.2672000D+00 0.2672000D+00 0.7361000D-01 0.7361000D-01
EXPONENTS  0.7361000D-01 0.3107000D+01 0.3107000D+01 0.3107000D+01 0.3107000D+01
EXPONENTS  0.3107000D+01 0.3107000D+01 0.8550000D+00 0.8550000D+00 0.8550000D+00
EXPONENTS  0.8550000D+00 0.8550000D+00 0.8550000D+00 0.2920000D+00 0.2920000D+00
EXPONENTS  0.2920000D+00 0.2920000D+00 0.2920000D+00 0.2920000D+00 0.1917000D+01
EXPONENTS  0.1917000D+01 0.1917000D+01 0.1917000D+01 0.1917000D+01 0.1917000D+01
EXPONENTS  0.1917000D+01 0.1917000D+01 0.1917000D+01 0.1917000D+01 0.7240000D+00
EXPONENTS  0.7240000D+00 0.7240000D+00 0.7240000D+00 0.7240000D+00 0.7240000D+00
EXPONENTS  0.7240000D+00 0.7240000D+00 0.7240000D+00 0.7240000D+00
MO    1     MO 0.0        OCC NO =    2.0000000  ORB. ENERGY =  -24.527879
  0.17708695D-04  0.33013033D-04  0.55797842D-04  0.83882434D-04  0.10305926D-03
  0.87050022D-04  0.32832066D-04 -0.16248772D-06 -0.81370631D-05 -0.15235149D-04
 -0.25939146D-04 -0.40123914D-04 -0.52841783D-04 -0.54905997D-04 -0.34890297D-04
  0.23382665D-04 -0.83939976D-04 -0.14001521D-02 -0.43589359D-04 -0.16810996D-15
 -0.15761377D-15 -0.11223040D-15  0.16441691D-13  0.15415130D-13  0.10976491D-13
  0.27387391D-03  0.25677419D-03  0.18283852D-03  0.15359328D-16 -0.83213554D-13
 -0.16862133D-02  0.22534097D-18 -0.11649310D-13  0.12564988D-02  0.39273290D-20
  0.93385182D-14  0.33614573D-04  0.48526683D-04 -0.14983224D-03  0.10130556D-03
  0.25988354D-18  0.32860163D-19  0.73670315D-15  0.18537094D-04 -0.68649796D-03
  0.66796086D-03 -0.14813343D-18 -0.24055371D-17  0.67033573D-13 -0.31044835D-04
  0.85822008D-04 -0.54777173D-04 -0.19522628D-18 -0.15658977D-18 -0.92405113D-13
 -0.97010351D-19  0.44319085D-14  0.48454765D-04 -0.94569398D-18  0.37263548D-14
  0.22414934D-03  0.12367250D-17 -0.17022080D-13 -0.36951363D-03 -0.16645745D-18
  0.65345746D-19 -0.50683713D-14 -0.16308569D-03 -0.33026195D-18 -0.63288885D-14
 -0.10748924D-03  0.13422471D-18  0.21534002D-13  0.59674632D-03  0.63818063D-18
  0.27452494D-03  0.51177690D-03  0.86499311D-03  0.13003680D-02  0.15976523D-02
  0.13494728D-02  0.50897148D-03 -0.25189283D-05 -0.19554427D-03 -0.36612058D-03
 -0.62335161D-03 -0.96423016D-03 -0.12698572D-02 -0.13194630D-02 -0.83845949D-03
  0.56191605D-03 -0.56626788D-03  0.35274638D-02  0.40909469D-03  0.44932322D-18
  0.42126908D-18  0.29996868D-18 -0.29093229D-14 -0.27276751D-14 -0.19422672D-14
  0.65567592D-03  0.61473785D-03  0.43772997D-03 -0.71348831D-18 -0.14765193D-14
 -0.34391519D-02 -0.70030758D-18 -0.82080480D-13  0.11757307D-02 -0.21328224D-19
 -0.10883811D-13  0.79202358D-05 -0.65702979D-03  0.80046455D-03 -0.14343476D-03
  0.72653177D-19  0.16628825D-17 -0.65493765D-14 -0.39892184D-03  0.78854609D-03
 -0.38962425D-03 -0.28724819D-18 -0.18643035D-17 -0.32679000D-13  0.48933887D-06
 -0.76764043D-04  0.76274704D-04  0.22003869D-19 -0.17963959D-18 -0.88035654D-13
  0.27992996D-18 -0.72483083D-14  0.12386662D-03  0.95990348D-19 -0.36609252D-14
  0.74871768D-03 -0.93578022D-18  0.25405850D-13 -0.11203175D-02  0.28087057D-18
  0.75278860D-19 -0.22401449D-13 -0.10412619D-03  0.43675993D-18  0.16821005D-15
 -0.16451457D-03 -0.66259651D-18  0.67036136D-13  0.47689315D-03  0.62767608D-18
 -0.18033193D-04 -0.32523607D-04 -0.47956039D-04 -0.16158598D-03 -0.79144583D-03
 -0.29737348D-04 -0.86237053D-18 -0.63947582D-04  0.50398596D-04  0.10144371D-17
 -0.34605294D-03 -0.70599017D-03  0.44625109D-18  0.21540976D-04  0.23480720D-04
 -0.21107504D-03  0.80311719D-04  0.13076332D-03  0.15615704D-18 -0.11447708D-18
  0.35062546D-03 -0.62973746D-04  0.25568999D-04  0.37404747D-04 -0.43318980D-18
 -0.47274893D-18  0.67705848D-04 -0.18033193D-04 -0.32523607D-04 -0.47956039D-04
 -0.16158598D-03 -0.79144583D-03 -0.29737348D-04 -0.74049149D-18  0.63947582D-04
  0.50398596D-04  0.18134291D-17  0.34605294D-03 -0.70599017D-03 -0.73914277D-19
 -0.21540976D-04  0.23480720D-04 -0.21107504D-03  0.80311719D-04  0.13076332D-03
  0.62157836D-18 -0.37190750D-18 -0.35062546D-03 -0.62973746D-04  0.25568999D-04
  0.37404747D-04  0.44399807D-18 -0.31605187D-19 -0.67705848D-04  0.42046234D+00
  0.78376001D+00  0.13286659D+01  0.20119918D+01  0.25160028D+01  0.21660440D+01
  0.83270640D+00 -0.36082531D-02  0.92467041D-05  0.17363673D-04  0.29567340D-04
  0.46317063D-04  0.62070313D-04  0.66764991D-04  0.40085613D-04 -0.26361986D-04
  0.45500181D-01 -0.50373668D-03 -0.21906823D-03  0.32070328D-17  0.31364081D-17
  0.20723574D-17 -0.42835689D-02 -0.41892368D-02 -0.27680059D-02  0.30093436D-02
  0.29430724D-02  0.19446123D-02  0.99045459D-19  0.75984836D-03 -0.52516279D-03
  0.16141807D-18  0.91066789D-03 -0.84367473D-03  0.13520432D-19  0.31514479D-04
  0.47712191D-05 -0.57075974D-03  0.53208390D-03  0.38675843D-04  0.13240763D-16
  0.10460934D-17 -0.61030069D-03  0.46657670D-03 -0.45105384D-03 -0.15522854D-04
 -0.71431486D-18 -0.21257474D-18  0.10357854D-02  0.20619269D-03 -0.12748528D-03
 -0.78707409D-04 -0.22755214D-18 -0.58524811D-19  0.45488183D-03  0.28161680D-18
 -0.20148340D-03  0.91718408D-04 -0.30077979D-17  0.50808429D-03 -0.46234480D-03
  0.21629474D-17  0.96365913D-04  0.18718957D-03  0.10032592D-17 -0.74692049D-19
  0.11518864D-03  0.50957288D-04  0.72893738D-18 -0.50234497D-03  0.38313208D-03
 -0.50486123D-18  0.15677904D-03 -0.53600394D-03 -0.12450595D-18  0.42046234D+00
  0.78376001D+00  0.13286659D+01  0.20119918D+01  0.25160028D+01  0.21660440D+01
  0.83270640D+00 -0.36082531D-02  0.92467041D-05  0.17363673D-04  0.29567340D-04
  0.46317063D-04  0.62070314D-04  0.66764991D-04  0.40085613D-04 -0.26361986D-04
  0.45500181D-01 -0.50373668D-03 -0.21906822D-03  0.13146346D-17  0.12856839D-17
  0.84950572D-18  0.42835689D-02  0.41892368D-02  0.27680059D-02  0.30093436D-02
  0.29430724D-02  0.19446123D-02  0.55128079D-19 -0.75984836D-03 -0.52516279D-03
 -0.84350252D-18 -0.91066789D-03 -0.84367473D-03 -0.14189428D-19 -0.31514479D-04
  0.47712191D-05 -0.57075974D-03  0.53208390D-03  0.38675843D-04 -0.17874390D-16
  0.83550968D-17  0.61030069D-03  0.46657670D-03 -0.45105384D-03 -0.15522854D-04
  0.67204777D-18 -0.22003412D-18 -0.10357854D-02  0.20619269D-03 -0.12748528D-03
 -0.78707409D-04 -0.34644146D-18 -0.58594684D-18 -0.45488183D-03  0.66459818D-18
  0.20148340D-03  0.91718408D-04 -0.15255220D-17 -0.50808429D-03 -0.46234480D-03
 -0.46827258D-18 -0.96365913D-04  0.18718957D-03  0.16761559D-17 -0.11198779D-18
 -0.11518864D-03  0.50957287D-04  0.22714005D-18  0.50234497D-03  0.38313208D-03
  0.10882332D-18 -0.15677904D-03 -0.53600394D-03 -0.98653771D-18
MO    2     MO 0.0        OCC NO =    2.0000000  ORB. ENERGY =  -24.527877
  0.34715411D-14  0.64717419D-14  0.10938384D-13  0.16443974D-13  0.20203322D-13
  0.17064935D-13  0.64362657D-14 -0.31853438D-16 -0.25526153D-14 -0.47793012D-14
 -0.81371692D-14 -0.12586963D-13 -0.16576588D-13 -0.17224137D-13 -0.10945166D-13
  0.73351955D-14  0.20420260D-14  0.28456482D-12 -0.73783116D-13  0.70057893D-16
  0.65683728D-16  0.46770727D-16  0.19479030D-04  0.18262828D-04  0.13004222D-04
  0.60233416D-14  0.56472656D-14  0.40211896D-14  0.24534049D-16 -0.21127097D-03
 -0.16854090D-13 -0.47502476D-18  0.12078799D-03 -0.12963442D-12  0.19598301D-19
  0.12331659D-04  0.79490497D-15 -0.33058025D-14  0.18858156D-16  0.32869443D-14
 -0.55506955D-15  0.14981352D-17 -0.60166776D-04 -0.23382535D-14 -0.17533036D-14
  0.40915571D-14  0.11820823D-15 -0.70082621D-18 -0.11263932D-02  0.40850354D-14
 -0.16301530D-13  0.12216494D-13 -0.13122964D-18 -0.97046953D-19  0.71701557D-04
  0.19063615D-18 -0.39871414D-04 -0.34531655D-14 -0.94595439D-18  0.19367603D-03
  0.63678773D-14  0.37404593D-18 -0.74061785D-04  0.39916192D-14  0.41019415D-18
 -0.28715347D-18 -0.30708610D-04  0.51485153D-14  0.10269151D-17  0.31868003D-04
 -0.18438833D-14 -0.16545472D-18  0.60257828D-04 -0.13601663D-13  0.23285366D-17
 -0.97488483D-14 -0.18174070D-13 -0.30717379D-13 -0.46178283D-13 -0.56735356D-13
 -0.47922078D-13 -0.18074445D-13  0.89451436D-16  0.69241090D-14  0.12964117D-13
  0.22072518D-13  0.34142829D-13  0.44964905D-13  0.46721416D-13  0.29689363D-13
 -0.19897120D-13 -0.12267821D-14 -0.29803974D-12  0.70551266D-13 -0.64402342D-19
 -0.60381289D-19 -0.42995075D-19 -0.52092235D-03 -0.48839781D-03 -0.34776834D-03
  0.56886097D-15  0.53334332D-15  0.37977222D-15  0.51241738D-18  0.23456230D-02
  0.36838142D-13 -0.83464493D-18  0.25357950D-03 -0.14864142D-12 -0.12015549D-19
  0.74586380D-05  0.56993835D-14  0.48212179D-14 -0.13928220D-13  0.91070019D-14
  0.18087958D-17  0.10017648D-17 -0.19935660D-02  0.62156321D-14  0.25643660D-13
 -0.31859292D-13  0.48985162D-18 -0.42035795D-19 -0.15137594D-02 -0.40895082D-14
  0.18636362D-13 -0.14546853D-13  0.26253969D-19 -0.77387699D-19  0.11206419D-03
 -0.54208480D-18  0.91661497D-04 -0.57839331D-15  0.10114859D-17 -0.68061774D-03
  0.30615768D-14  0.61476855D-18  0.40563324D-03 -0.13263969D-14 -0.35219543D-17
  0.19467738D-18  0.13838272D-03  0.60698477D-14 -0.76851988D-18 -0.53264715D-05
  0.11045514D-14  0.18448773D-18 -0.40982168D-03 -0.19314094D-13  0.47538464D-17
 -0.62225732D-05 -0.11222667D-04 -0.16547816D-04  0.85401089D-03 -0.58106881D-03
 -0.30588213D-04 -0.39622468D-18 -0.51068182D-04  0.39689958D-04 -0.21455434D-18
 -0.47260911D-03 -0.24125874D-03  0.20165525D-18  0.52525033D-04  0.29182857D-04
 -0.77975410D-04  0.94876082D-04 -0.16900672D-04  0.28997460D-17  0.20204306D-17
  0.13393902D-03 -0.19922072D-04  0.27529440D-04 -0.76073682D-05 -0.29535600D-18
 -0.77168374D-18  0.32218611D-04  0.62225732D-05  0.11222667D-04  0.16547816D-04
 -0.85401089D-03  0.58106881D-03  0.30588213D-04  0.40560055D-17 -0.51068182D-04
 -0.39689958D-04 -0.45289957D-17 -0.47260911D-03  0.24125874D-03 -0.54878490D-18
  0.52525033D-04 -0.29182857D-04  0.77975410D-04 -0.94876082D-04  0.16900672D-04
  0.20812769D-17 -0.29485273D-17  0.13393902D-03  0.19922072D-04 -0.27529440D-04
  0.76073682D-05 -0.34601874D-18  0.15853192D-17  0.32218611D-04  0.42032952D+00
  0.78351244D+00  0.13282462D+01  0.20113562D+01  0.25152080D+01  0.21653598D+01
  0.83244336D+00 -0.36071134D-02  0.99656181D-04  0.18713666D-03  0.31866145D-03
  0.49918128D-03  0.66896164D-03  0.71955844D-03  0.43202194D-03 -0.28411581D-03
  0.45523221D-01 -0.95866096D-03 -0.19430357D-03  0.59793742D-17  0.58476974D-17
  0.38638209D-17 -0.43226292D-02 -0.42274369D-02 -0.27932463D-02  0.31184008D-02
  0.30497278D-02  0.20150841D-02 -0.11955869D-17  0.88871835D-03 -0.65412102D-03
  0.30531355D-17  0.70490726D-03 -0.10424120D-02 -0.48409017D-19  0.13606266D-04
 -0.26791907D-04 -0.25206981D-03  0.94774104D-04  0.15729571D-03  0.13633994D-16
  0.18000808D-17 -0.93524834D-03  0.31296721D-03 -0.25823533D-03 -0.54731875D-04
 -0.11549348D-17 -0.31522720D-18  0.10810753D-02  0.16025912D-03 -0.52157408D-04
 -0.10810171D-03 -0.14012020D-17  0.51176816D-18  0.46737612D-03  0.99445287D-18
  0.13385939D-03 -0.15079442D-03 -0.37675933D-17  0.32469776D-03 -0.15431461D-03
  0.78423468D-18 -0.72627593D-03  0.60669787D-03  0.16160258D-17 -0.16778063D-20
 -0.24834474D-04  0.12421726D-03  0.68238339D-18 -0.36061947D-03  0.24397179D-03
 -0.67734997D-18  0.43512289D-03 -0.61662356D-03  0.60707142D-18 -0.42032952D+00
 -0.78351244D+00 -0.13282462D+01 -0.20113562D+01 -0.25152080D+01 -0.21653598D+01
 -0.83244336D+00  0.36071134D-02 -0.99656181D-04 -0.18713666D-03 -0.31866145D-03
 -0.49918128D-03 -0.66896164D-03 -0.71955844D-03 -0.43202194D-03  0.28411581D-03
 -0.45523221D-01  0.95866096D-03  0.19430357D-03 -0.26157574D-17 -0.25581536D-17
 -0.16902802D-17 -0.43226292D-02 -0.42274369D-02 -0.27932463D-02 -0.31184008D-02
 -0.30497278D-02 -0.20150841D-02  0.13679748D-18  0.88871835D-03  0.65412102D-03
 -0.15880461D-17  0.70490726D-03  0.10424120D-02  0.41898520D-19  0.13606266D-04
  0.26791907D-04  0.25206981D-03 -0.94774104D-04 -0.15729571D-03  0.21168960D-16
 -0.72490817D-17 -0.93524834D-03 -0.31296721D-03  0.25823533D-03  0.54731875D-04
 -0.14964812D-17 -0.81213174D-18  0.10810753D-02 -0.16025912D-03  0.52157408D-04
  0.10810171D-03 -0.18457933D-17  0.41985423D-18  0.46737612D-03  0.27849067D-17
  0.13385939D-03  0.15079442D-03  0.76865226D-17  0.32469776D-03  0.15431461D-03
 -0.16041243D-16 -0.72627593D-03 -0.60669787D-03  0.77205480D-17 -0.80204240D-18
 -0.24834474D-04 -0.12421726D-03 -0.17025452D-17 -0.36061947D-03 -0.24397179D-03
  0.41086724D-17  0.43512289D-03  0.61662356D-03 -0.10770147D-17
MO    3     MO 0.0        OCC NO =    2.0000000  ORB. ENERGY =  -10.211836
  0.66652597D-03  0.12425560D-02  0.21001385D-02  0.31571960D-02  0.38789801D-02
  0.32764188D-02  0.12357446D-02 -0.61157691D-05  0.38736831D-04  0.72527569D-04
  0.12348439D-03  0.19101158D-03  0.25155553D-03  0.26138231D-03  0.16609672D-03
 -0.11131416D-03  0.19420767D-02 -0.13076196D-01 -0.54559359D-03 -0.47788150D-15
 -0.44804428D-15 -0.31903422D-15 -0.55188172D-14 -0.51742419D-14 -0.36843685D-14
 -0.20254779D-02 -0.18990143D-02 -0.13522113D-02  0.15743032D-15  0.28465633D-13
  0.74288648D-02 -0.75572611D-18  0.45931563D-13  0.26709124D-02 -0.81135831D-19
 -0.36966174D-14  0.23254943D-04  0.17500087D-03  0.16447505D-02 -0.18197514D-02
 -0.33773753D-17 -0.62613946D-18 -0.85962493D-14  0.13926264D-02  0.20719009D-02
 -0.34645273D-02  0.77355810D-17  0.15384732D-17  0.39695679D-13  0.88174003D-04
  0.63248048D-04 -0.15142205D-03 -0.20307577D-18  0.89979384D-20  0.79914834D-13
  0.13988335D-17  0.35934231D-14  0.94571394D-03 -0.46355697D-18 -0.36975902D-14
 -0.16769609D-02 -0.37329436D-17 -0.70826791D-14 -0.11601809D-02  0.43588905D-17
  0.99882661D-18  0.78221847D-14  0.48542447D-03 -0.24713437D-17 -0.25811106D-14
 -0.54399176D-04 -0.52513619D-18 -0.20885444D-13 -0.14018742D-02  0.43294916D-17
  0.33071053D+00  0.61651963D+00  0.10420268D+01  0.15665076D+01  0.19246355D+01
  0.16256624D+01  0.61314004D+00 -0.30344643D-02 -0.35391824D-02 -0.66264662D-02
 -0.11282126D-01 -0.17451733D-01 -0.22983318D-01 -0.23881140D-01 -0.15175392D-01
  0.10170195D-01  0.32726564D-01  0.83812142D-02  0.13881881D-03 -0.33427013D-18
 -0.31339949D-18 -0.22315911D-18  0.24371624D-14  0.22849946D-14  0.16270523D-14
 -0.63309197D-02 -0.59356396D-02 -0.42265290D-02  0.63580130D-17  0.26632206D-13
  0.76645907D-02 -0.61605751D-19  0.64720878D-13  0.36566472D-02 -0.42888566D-19
  0.45948221D-14 -0.21380672D-04 -0.43242895D-02  0.91093658D-03  0.34133529D-02
  0.42461393D-17  0.59422703D-17 -0.83656525D-14 -0.30418496D-04 -0.14481497D-02
  0.14785682D-02 -0.78336395D-18  0.89165233D-17  0.49206917D-13  0.14044319D-05
 -0.19087745D-03  0.18947302D-03 -0.20704477D-18 -0.10090989D-17  0.68519409D-13
  0.85066925D-18  0.66652584D-15  0.14606331D-02 -0.10671329D-17 -0.31861178D-14
 -0.61430931D-03 -0.14848748D-17  0.11865402D-14 -0.37675901D-02 -0.45247331D-18
 -0.27550309D-18 -0.12373094D-15 -0.58621671D-05 -0.61309967D-19  0.32666085D-14
 -0.87084598D-04  0.88781923D-18 -0.28954157D-14  0.10467110D-03  0.20688984D-17
  0.10891834D-03  0.19643872D-03  0.28964878D-03  0.86138120D-03  0.17025011D-03
  0.22276760D-04 -0.25796456D-17  0.64415106D-04 -0.53250539D-03  0.12408813D-17
  0.49876872D-03  0.21236508D-02  0.58700061D-18 -0.10224488D-05  0.13388662D-03
  0.48791311D-03 -0.12443317D-03 -0.36347994D-03  0.20812292D-17  0.87630286D-18
 -0.10253261D-02  0.22631178D-03  0.43226905D-04 -0.26953868D-03  0.70800996D-18
 -0.24530101D-17 -0.33987273D-03  0.10891834D-03  0.19643872D-03  0.28964878D-03
  0.86138120D-03  0.17025011D-03  0.22276760D-04 -0.56933213D-17 -0.64415106D-04
 -0.53250539D-03  0.18546683D-16 -0.49876872D-03  0.21236508D-02  0.10272936D-17
  0.10224489D-05  0.13388662D-03  0.48791311D-03 -0.12443317D-03 -0.36347994D-03
  0.45824603D-17 -0.28027678D-17  0.10253261D-02  0.22631178D-03  0.43226905D-04
 -0.26953868D-03  0.45011935D-17 -0.33720808D-17  0.33987273D-03  0.23016879D-03
  0.42904459D-03  0.72733606D-03  0.11014012D-02  0.13773060D-02  0.11857322D-02
  0.45583874D-03 -0.19752239D-05 -0.19111360D-03 -0.35887749D-03 -0.61110648D-03
 -0.95729468D-03 -0.12828875D-02 -0.13799185D-02 -0.82850124D-03  0.54485727D-03
  0.27676701D-03  0.45759014D-03  0.89779705D-03  0.93749407D-18  0.91684872D-18
  0.60580072D-18 -0.10030714D-02 -0.98098196D-03 -0.64817626D-03  0.45429174D-03
  0.44428740D-03  0.29355947D-03 -0.87499697D-18 -0.15923336D-04  0.36498938D-03
  0.24445906D-17  0.49401422D-03 -0.35344841D-03  0.11436361D-18 -0.34360555D-05
  0.13540228D-03 -0.73747541D-03  0.78532382D-03 -0.47848406D-04  0.24452091D-17
  0.75608270D-17 -0.33121920D-02  0.48073508D-03 -0.50363481D-03  0.22899730D-04
 -0.75561396D-18 -0.24688860D-17  0.19145268D-02  0.20326353D-03 -0.17686212D-03
 -0.26401417D-04 -0.11094462D-17  0.20380340D-17  0.58058122D-03 -0.57671101D-18
  0.14432584D-03 -0.19000129D-03  0.57385616D-17  0.41724696D-03 -0.89828058D-03
 -0.40084285D-17 -0.85022448D-03  0.14682844D-02  0.29886572D-16 -0.25645626D-19
 -0.98679547D-04  0.39170934D-03 -0.13126285D-17 -0.95239184D-03  0.99630593D-03
  0.13895654D-17  0.12484305D-02 -0.21714339D-02 -0.84674870D-17  0.23016879D-03
  0.42904459D-03  0.72733606D-03  0.11014012D-02  0.13773060D-02  0.11857322D-02
  0.45583874D-03 -0.19752239D-05 -0.19111360D-03 -0.35887749D-03 -0.61110648D-03
 -0.95729468D-03 -0.12828875D-02 -0.13799185D-02 -0.82850124D-03  0.54485727D-03
  0.27676701D-03  0.45759014D-03  0.89779705D-03 -0.19652941D-17 -0.19220147D-17
 -0.12699564D-17  0.10030714D-02  0.98098196D-03  0.64817626D-03  0.45429174D-03
  0.44428740D-03  0.29355947D-03  0.13871421D-17  0.15923336D-04  0.36498938D-03
 -0.15164644D-17 -0.49401422D-03 -0.35344841D-03 -0.43120803D-18  0.34360555D-05
  0.13540228D-03 -0.73747541D-03  0.78532382D-03 -0.47848406D-04 -0.11791753D-17
 -0.52697783D-17  0.33121920D-02  0.48073508D-03 -0.50363481D-03  0.22899730D-04
  0.45970375D-18  0.22908430D-17 -0.19145268D-02  0.20326353D-03 -0.17686212D-03
 -0.26401417D-04 -0.33027912D-18 -0.68852285D-18 -0.58058122D-03  0.76966254D-18
 -0.14432584D-03 -0.19000129D-03 -0.28235124D-17 -0.41724696D-03 -0.89828058D-03
  0.51452475D-18  0.85022448D-03  0.14682844D-02 -0.46818996D-17 -0.30852250D-18
  0.98679547D-04  0.39170934D-03  0.70127279D-18  0.95239184D-03  0.99630593D-03
  0.22429471D-18 -0.12484305D-02 -0.21714339D-02  0.10182327D-17
MO    4     MO 0.0        OCC NO =    2.0000000  ORB. ENERGY =  -10.042871
  0.33080160D+00  0.61668939D+00  0.10423137D+01  0.15669389D+01  0.19251655D+01
  0.16261100D+01  0.61330888D+00 -0.30352999D-02 -0.36989687D-02 -0.69256365D-02
 -0.11791489D-01 -0.18239640D-01 -0.24020964D-01 -0.24959321D-01 -0.15860528D-01
  0.10629357D-01  0.32974019D-01  0.72017772D-02  0.54370896D-04 -0.29249383D-17
 -0.27423156D-17 -0.19526921D-17 -0.10938236D-13 -0.10255291D-13 -0.73023782D-14
 -0.80170688D-03 -0.75165116D-03 -0.53522041D-03 -0.23699004D-17  0.52203036D-13
 -0.18864391D-02 -0.30142547D-18  0.38110167D-13 -0.33391010D-02 -0.17714208D-19
 -0.95250773D-16 -0.35038592D-04 -0.50880070D-02  0.23330706D-02  0.27549363D-02
 -0.98562596D-18 -0.46731797D-17  0.80145134D-14 -0.23993254D-03 -0.23220452D-03
  0.47213706D-03 -0.82312116D-18 -0.69136429D-18  0.64482893D-13  0.30533157D-04
 -0.32708471D-03  0.29655155D-03 -0.23527020D-19 -0.92979904D-20  0.18205136D-13
  0.11192378D-18  0.43375869D-14 -0.17141032D-02  0.10222811D-17 -0.89256066D-14
 -0.31470640D-03 -0.13580524D-17 -0.40871542D-14  0.54570159D-02 -0.26860127D-17
  0.49308821D-19  0.29206836D-14  0.30628283D-03 -0.20763914D-18 -0.38431096D-14
  0.69198951D-04  0.59712674D-19 -0.49189413D-14 -0.98804743D-03  0.13522631D-18
 -0.75990708D-03 -0.14166396D-02 -0.23943704D-02 -0.35995231D-02 -0.44224300D-02
 -0.37354491D-02 -0.14088740D-02  0.69725959D-05 -0.75035828D-04 -0.14049075D-03
 -0.23919752D-03 -0.37000219D-03 -0.48727986D-03 -0.50631499D-03 -0.32174045D-03
  0.21562297D-03  0.21998037D-02 -0.12607758D-01 -0.54479513D-03 -0.89128115D-19
 -0.83563273D-19 -0.59502029D-19 -0.31154079D-14 -0.29208930D-14 -0.20798498D-14
  0.13753658D-02  0.12894929D-02  0.91819575D-03 -0.71889138D-20  0.15551240D-13
 -0.30733164D-02  0.15465364D-18  0.18332684D-13 -0.29386400D-02  0.16356733D-19
  0.82820302D-15 -0.86882715D-05  0.31484251D-03  0.11380325D-02 -0.14528750D-02
 -0.12807980D-18 -0.23312235D-18 -0.81874922D-14  0.15897487D-02  0.63357378D-03
 -0.22233225D-02  0.16921989D-18  0.68325666D-19  0.26213931D-13  0.73852613D-04
  0.13314015D-03 -0.20699276D-03  0.16935855D-19 -0.95442757D-20  0.11101877D-13
 -0.33392161D-19  0.82872759D-15 -0.13347956D-02  0.21432314D-19 -0.97780767D-15
  0.13308519D-02  0.78744170D-19 -0.15083751D-14  0.26735349D-02 -0.43713352D-18
 -0.52240696D-19 -0.32435094D-14 -0.26217780D-03  0.84749008D-20  0.32160661D-15
  0.18942580D-03  0.14824719D-18  0.94089215D-14  0.59710759D-03  0.14172066D-18
  0.71078676D-04  0.12819332D-03  0.18902097D-03 -0.81535416D-03  0.16307084D-02
  0.26852849D-04  0.63152300D-19  0.20027818D-02  0.86696342D-03  0.13311697D-17
  0.23806630D-02  0.15406975D-02  0.16277551D-18  0.24991050D-03 -0.28326637D-03
  0.13935418D-02 -0.18158858D-02  0.42234400D-03 -0.20563644D-17 -0.25310668D-18
 -0.37326305D-02  0.29139506D-03 -0.24379494D-03 -0.47600123D-04 -0.31657415D-18
 -0.27782435D-18 -0.22969317D-03  0.71078676D-04  0.12819332D-03  0.18902097D-03
 -0.81535416D-03  0.16307084D-02  0.26852849D-04 -0.82418868D-18 -0.20027818D-02
  0.86696342D-03  0.43929631D-18 -0.23806630D-02  0.15406975D-02  0.71460369D-19
 -0.24991050D-03 -0.28326637D-03  0.13935418D-02 -0.18158858D-02  0.42234400D-03
 -0.31631333D-18  0.80986520D-18  0.37326305D-02  0.29139506D-03 -0.24379494D-03