 Molden2AIM, Version 4.0.0 (06/02/2016)           Time: Sat Jun 30 01:58:53 2018
GAUSSIAN             21 MOL ORBITALS    456 PRIMITIVES        8 NUCLEI
  C    1    (CENTRE  1)   0.00000000 -0.00054991 -0.03831231  CHARGE =  6.0
  C    2    (CENTRE  2)   0.00000000 -0.00042141  2.79237837  CHARGE =  6.0
  H    3    (CENTRE  3)   1.69379743  0.97824129  3.46718446  CHARGE =  1.0
  H    4    (CENTRE  4)  -1.69379743  0.97824129  3.46718446  CHARGE =  1.0
  H    5    (CENTRE  5)   0.00000000 -1.95576260  3.46959386  CHARGE =  1.0
  F    6    (CENTRE  6)   0.00000000  2.36770778 -0.99042436  CHARGE =  9.0
  F    7    (CENTRE  7)  -2.05038875 -1.18370744 -0.99285077  CHARGE =  9.0
  F    8    (CENTRE  8)   2.05038875 -1.18370744 -0.99285077  CHARGE =  9.0
CENTRE ASSIGNMENTS    1  1  1  1  1  1  1  1  1  1  1  1  1  1  1  1  1  1  1  1
CENTRE ASSIGNMENTS    1  1  1  1  1  1  1  1  1  1  1  1  1  1  1  1  1  1  1  1
CENTRE ASSIGNMENTS    1  1  1  1  1  1  1  1  1  1  1  1  1  1  1  1  1  1  1  1
CENTRE ASSIGNMENTS    1  1  1  1  1  1  1  1  1  1  1  1  1  1  1  2  2  2  2  2
CENTRE ASSIGNMENTS    2  2  2  2  2  2  2  2  2  2  2  2  2  2  2  2  2  2  2  2
CENTRE ASSIGNMENTS    2  2  2  2  2  2  2  2  2  2  2  2  2  2  2  2  2  2  2  2
CENTRE ASSIGNMENTS    2  2  2  2  2  2  2  2  2  2  2  2  2  2  2  2  2  2  2  2
CENTRE ASSIGNMENTS    2  2  2  2  2  2  2  2  2  2  3  3  3  3  3  3  3  3  3  3
CENTRE ASSIGNMENTS    3  3  3  3  3  3  3  3  3  3  3  3  3  3  3  3  3  4  4  4
CENTRE ASSIGNMENTS    4  4  4  4  4  4  4  4  4  4  4  4  4  4  4  4  4  4  4  4
CENTRE ASSIGNMENTS    4  4  4  4  5  5  5  5  5  5  5  5  5  5  5  5  5  5  5  5
CENTRE ASSIGNMENTS    5  5  5  5  5  5  5  5  5  5  5  6  6  6  6  6  6  6  6  6
CENTRE ASSIGNMENTS    6  6  6  6  6  6  6  6  6  6  6  6  6  6  6  6  6  6  6  6
CENTRE ASSIGNMENTS    6  6  6  6  6  6  6  6  6  6  6  6  6  6  6  6  6  6  6  6
CENTRE ASSIGNMENTS    6  6  6  6  6  6  6  6  6  6  6  6  6  6  6  6  6  6  6  6
CENTRE ASSIGNMENTS    6  6  6  6  6  6  7  7  7  7  7  7  7  7  7  7  7  7  7  7
CENTRE ASSIGNMENTS    7  7  7  7  7  7  7  7  7  7  7  7  7  7  7  7  7  7  7  7
CENTRE ASSIGNMENTS    7  7  7  7  7  7  7  7  7  7  7  7  7  7  7  7  7  7  7  7
CENTRE ASSIGNMENTS    7  7  7  7  7  7  7  7  7  7  7  7  7  7  7  7  7  7  7  7
CENTRE ASSIGNMENTS    7  8  8  8  8  8  8  8  8  8  8  8  8  8  8  8  8  8  8  8
CENTRE ASSIGNMENTS    8  8  8  8  8  8  8  8  8  8  8  8  8  8  8  8  8  8  8  8
CENTRE ASSIGNMENTS    8  8  8  8  8  8  8  8  8  8  8  8  8  8  8  8  8  8  8  8
CENTRE ASSIGNMENTS    8  8  8  8  8  8  8  8  8  8  8  8  8  8  8  8
TYPE ASSIGNMENTS      1  1  1  1  1  1  1  1  1  1  1  1  1  1  1  1  1  1  1  2
TYPE ASSIGNMENTS      2  2  3  3  3  4  4  4  2  3  4  2  3  4  2  3  4  5  6  7
TYPE ASSIGNMENTS      8  9 10  5  6  7  8  9 10  5  6  7  8  9 10 11 12 13 17 14
TYPE ASSIGNMENTS     15 18 19 16 20 11 12 13 17 14 15 18 19 16 20  1  1  1  1  1
TYPE ASSIGNMENTS      1  1  1  1  1  1  1  1  1  1  1  1  1  1  2  2  2  3  3  3
TYPE ASSIGNMENTS      4  4  4  2  3  4  2  3  4  2  3  4  5  6  7  8  9 10  5  6
TYPE ASSIGNMENTS      7  8  9 10  5  6  7  8  9 10 11 12 13 17 14 15 18 19 16 20
TYPE ASSIGNMENTS     11 12 13 17 14 15 18 19 16 20  1  1  1  1  1  1  2  3  4  2
TYPE ASSIGNMENTS      3  4  2  3  4  5  6  7  8  9 10  5  6  7  8  9 10  1  1  1
TYPE ASSIGNMENTS      1  1  1  2  3  4  2  3  4  2  3  4  5  6  7  8  9 10  5  6
TYPE ASSIGNMENTS      7  8  9 10  1  1  1  1  1  1  2  3  4  2  3  4  2  3  4  5
TYPE ASSIGNMENTS      6  7  8  9 10  5  6  7  8  9 10  1  1  1  1  1  1  1  1  1
TYPE ASSIGNMENTS      1  1  1  1  1  1  1  1  1  1  2  2  2  3  3  3  4  4  4  2
TYPE ASSIGNMENTS      3  4  2  3  4  2  3  4  5  6  7  8  9 10  5  6  7  8  9 10
TYPE ASSIGNMENTS      5  6  7  8  9 10 11 12 13 17 14 15 18 19 16 20 11 12 13 17
TYPE ASSIGNMENTS     14 15 18 19 16 20  1  1  1  1  1  1  1  1  1  1  1  1  1  1
TYPE ASSIGNMENTS      1  1  1  1  1  2  2  2  3  3  3  4  4  4  2  3  4  2  3  4
TYPE ASSIGNMENTS      2  3  4  5  6  7  8  9 10  5  6  7  8  9 10  5  6  7  8  9
TYPE ASSIGNMENTS     10 11 12 13 17 14 15 18 19 16 20 11 12 13 17 14 15 18 19 16
TYPE ASSIGNMENTS     20  1  1  1  1  1  1  1  1  1  1  1  1  1  1  1  1  1  1  1
TYPE ASSIGNMENTS      2  2  2  3  3  3  4  4  4  2  3  4  2  3  4  2  3  4  5  6
TYPE ASSIGNMENTS      7  8  9 10  5  6  7  8  9 10  5  6  7  8  9 10 11 12 13 17
TYPE ASSIGNMENTS     14 15 18 19 16 20 11 12 13 17 14 15 18 19 16 20
EXPONENTS  0.8236000D+04 0.1235000D+04 0.2808000D+03 0.7927000D+02 0.2559000D+02
EXPONENTS  0.8997000D+01 0.3319000D+01 0.3643000D+00 0.8236000D+04 0.1235000D+04
EXPONENTS  0.2808000D+03 0.7927000D+02 0.2559000D+02 0.8997000D+01 0.3319000D+01
EXPONENTS  0.3643000D+00 0.9059000D+00 0.1285000D+00 0.4402000D-01 0.1871000D+02
EXPONENTS  0.4133000D+01 0.1200000D+01 0.1871000D+02 0.4133000D+01 0.1200000D+01
EXPONENTS  0.1871000D+02 0.4133000D+01 0.1200000D+01 0.3827000D+00 0.3827000D+00
EXPONENTS  0.3827000D+00 0.1209000D+00 0.1209000D+00 0.1209000D+00 0.3569000D-01
EXPONENTS  0.3569000D-01 0.3569000D-01 0.1097000D+01 0.1097000D+01 0.1097000D+01
EXPONENTS  0.1097000D+01 0.1097000D+01 0.1097000D+01 0.3180000D+00 0.3180000D+00
EXPONENTS  0.3180000D+00 0.3180000D+00 0.3180000D+00 0.3180000D+00 0.1000000D+00
EXPONENTS  0.1000000D+00 0.1000000D+00 0.1000000D+00 0.1000000D+00 0.1000000D+00
EXPONENTS  0.7610000D+00 0.7610000D+00 0.7610000D+00 0.7610000D+00 0.7610000D+00
EXPONENTS  0.7610000D+00 0.7610000D+00 0.7610000D+00 0.7610000D+00 0.7610000D+00
EXPONENTS  0.2680000D+00 0.2680000D+00 0.2680000D+00 0.2680000D+00 0.2680000D+00
EXPONENTS  0.2680000D+00 0.2680000D+00 0.2680000D+00 0.2680000D+00 0.2680000D+00
EXPONENTS  0.8236000D+04 0.1235000D+04 0.2808000D+03 0.7927000D+02 0.2559000D+02
EXPONENTS  0.8997000D+01 0.3319000D+01 0.3643000D+00 0.8236000D+04 0.1235000D+04
EXPONENTS  0.2808000D+03 0.7927000D+02 0.2559000D+02 0.8997000D+01 0.3319000D+01
EXPONENTS  0.3643000D+00 0.9059000D+00 0.1285000D+00 0.4402000D-01 0.1871000D+02
EXPONENTS  0.4133000D+01 0.1200000D+01 0.1871000D+02 0.4133000D+01 0.1200000D+01
EXPONENTS  0.1871000D+02 0.4133000D+01 0.1200000D+01 0.3827000D+00 0.3827000D+00
EXPONENTS  0.3827000D+00 0.1209000D+00 0.1209000D+00 0.1209000D+00 0.3569000D-01
EXPONENTS  0.3569000D-01 0.3569000D-01 0.1097000D+01 0.1097000D+01 0.1097000D+01
EXPONENTS  0.1097000D+01 0.1097000D+01 0.1097000D+01 0.3180000D+00 0.3180000D+00
EXPONENTS  0.3180000D+00 0.3180000D+00 0.3180000D+00 0.3180000D+00 0.1000000D+00
EXPONENTS  0.1000000D+00 0.1000000D+00 0.1000000D+00 0.1000000D+00 0.1000000D+00
EXPONENTS  0.7610000D+00 0.7610000D+00 0.7610000D+00 0.7610000D+00 0.7610000D+00
EXPONENTS  0.7610000D+00 0.7610000D+00 0.7610000D+00 0.7610000D+00 0.7610000D+00
EXPONENTS  0.2680000D+00 0.2680000D+00 0.2680000D+00 0.2680000D+00 0.2680000D+00
EXPONENTS  0.2680000D+00 0.2680000D+00 0.2680000D+00 0.2680000D+00 0.2680000D+00
EXPONENTS  0.3387000D+02 0.5095000D+01 0.1159000D+01 0.3258000D+00 0.1027000D+00
EXPONENTS  0.2526000D-01 0.1407000D+01 0.1407000D+01 0.1407000D+01 0.3880000D+00
EXPONENTS  0.3880000D+00 0.3880000D+00 0.1020000D+00 0.1020000D+00 0.1020000D+00
EXPONENTS  0.1057000D+01 0.1057000D+01 0.1057000D+01 0.1057000D+01 0.1057000D+01
EXPONENTS  0.1057000D+01 0.2470000D+00 0.2470000D+00 0.2470000D+00 0.2470000D+00
EXPONENTS  0.2470000D+00 0.2470000D+00 0.3387000D+02 0.5095000D+01 0.1159000D+01
EXPONENTS  0.3258000D+00 0.1027000D+00 0.2526000D-01 0.1407000D+01 0.1407000D+01
EXPONENTS  0.1407000D+01 0.3880000D+00 0.3880000D+00 0.3880000D+00 0.1020000D+00
EXPONENTS  0.1020000D+00 0.1020000D+00 0.1057000D+01 0.1057000D+01 0.1057000D+01
EXPONENTS  0.1057000D+01 0.1057000D+01 0.1057000D+01 0.2470000D+00 0.2470000D+00
EXPONENTS  0.2470000D+00 0.2470000D+00 0.2470000D+00 0.2470000D+00 0.3387000D+02
EXPONENTS  0.5095000D+01 0.1159000D+01 0.3258000D+00 0.1027000D+00 0.2526000D-01
EXPONENTS  0.1407000D+01 0.1407000D+01 0.1407000D+01 0.3880000D+00 0.3880000D+00
EXPONENTS  0.3880000D+00 0.1020000D+00 0.1020000D+00 0.1020000D+00 0.1057000D+01
EXPONENTS  0.1057000D+01 0.1057000D+01 0.1057000D+01 0.1057000D+01 0.1057000D+01
EXPONENTS  0.2470000D+00 0.2470000D+00 0.2470000D+00 0.2470000D+00 0.2470000D+00
EXPONENTS  0.2470000D+00 0.1950000D+05 0.2923000D+04 0.6645000D+03 0.1875000D+03
EXPONENTS  0.6062000D+02 0.2142000D+02 0.7950000D+01 0.8815000D+00 0.1950000D+05
EXPONENTS  0.2923000D+04 0.6645000D+03 0.1875000D+03 0.6062000D+02 0.2142000D+02
EXPONENTS  0.7950000D+01 0.8815000D+00 0.2257000D+01 0.3041000D+00 0.9158000D-01
EXPONENTS  0.4388000D+02 0.9926000D+01 0.2930000D+01 0.4388000D+02 0.9926000D+01
EXPONENTS  0.2930000D+01 0.4388000D+02 0.9926000D+01 0.2930000D+01 0.9132000D+00
EXPONENTS  0.9132000D+00 0.9132000D+00 0.2672000D+00 0.2672000D+00 0.2672000D+00
EXPONENTS  0.7361000D-01 0.7361000D-01 0.7361000D-01 0.3107000D+01 0.3107000D+01
EXPONENTS  0.3107000D+01 0.3107000D+01 0.3107000D+01 0.3107000D+01 0.8550000D+00
EXPONENTS  0.8550000D+00 0.8550000D+00 0.8550000D+00 0.8550000D+00 0.8550000D+00
EXPONENTS  0.2920000D+00 0.2920000D+00 0.2920000D+00 0.2920000D+00 0.2920000D+00
EXPONENTS  0.2920000D+00 0.1917000D+01 0.1917000D+01 0.1917000D+01 0.1917000D+01
EXPONENTS  0.1917000D+01 0.1917000D+01 0.1917000D+01 0.1917000D+01 0.1917000D+01
EXPONENTS  0.1917000D+01 0.7240000D+00 0.7240000D+00 0.7240000D+00 0.7240000D+00
EXPONENTS  0.7240000D+00 0.7240000D+00 0.7240000D+00 0.7240000D+00 0.7240000D+00
EXPONENTS  0.7240000D+00 0.1950000D+05 0.2923000D+04 0.6645000D+03 0.1875000D+03
EXPONENTS  0.6062000D+02 0.2142000D+02 0.7950000D+01 0.8815000D+00 0.1950000D+05
EXPONENTS  0.2923000D+04 0.6645000D+03 0.1875000D+03 0.6062000D+02 0.2142000D+02
EXPONENTS  0.7950000D+01 0.8815000D+00 0.2257000D+01 0.3041000D+00 0.9158000D-01
EXPONENTS  0.4388000D+02 0.9926000D+01 0.2930000D+01 0.4388000D+02 0.9926000D+01
EXPONENTS  0.2930000D+01 0.4388000D+02 0.9926000D+01 0.2930000D+01 0.9132000D+00
EXPONENTS  0.9132000D+00 0.9132000D+00 0.2672000D+00 0.2672000D+00 0.2672000D+00
EXPONENTS  0.7361000D-01 0.7361000D-01 0.7361000D-01 0.3107000D+01 0.3107000D+01
EXPONENTS  0.3107000D+01 0.3107000D+01 0.3107000D+01 0.3107000D+01 0.8550000D+00
EXPONENTS  0.8550000D+00 0.8550000D+00 0.8550000D+00 0.8550000D+00 0.8550000D+00
EXPONENTS  0.2920000D+00 0.2920000D+00 0.2920000D+00 0.2920000D+00 0.2920000D+00
EXPONENTS  0.2920000D+00 0.1917000D+01 0.1917000D+01 0.1917000D+01 0.1917000D+01
EXPONENTS  0.1917000D+01 0.1917000D+01 0.1917000D+01 0.1917000D+01 0.1917000D+01
EXPONENTS  0.1917000D+01 0.7240000D+00 0.7240000D+00 0.7240000D+00 0.7240000D+00
EXPONENTS  0.7240000D+00 0.7240000D+00 0.7240000D+00 0.7240000D+00 0.7240000D+00
EXPONENTS  0.7240000D+00 0.1950000D+05 0.2923000D+04 0.6645000D+03 0.1875000D+03
EXPONENTS  0.6062000D+02 0.2142000D+02 0.7950000D+01 0.8815000D+00 0.1950000D+05
EXPONENTS  0.2923000D+04 0.6645000D+03 0.1875000D+03 0.6062000D+02 0.2142000D+02
EXPONENTS  0.7950000D+01 0.8815000D+00 0.2257000D+01 0.3041000D+00 0.9158000D-01
EXPONENTS  0.4388000D+02 0.9926000D+01 0.2930000D+01 0.4388000D+02 0.9926000D+01
EXPONENTS  0.2930000D+01 0.4388000D+02 0.9926000D+01 0.2930000D+01 0.9132000D+00
EXPONENTS  0.9132000D+00 0.9132000D+00 0.2672000D+00 0.2672000D+00 0.2672000D+00
EXPONENTS  0.7361000D-01 0.7361000D-01 0.7361000D-01 0.3107000D+01 0.3107000D+01
EXPONENTS  0.3107000D+01 0.3107000D+01 0.3107000D+01 0.3107000D+01 0.8550000D+00
EXPONENTS  0.8550000D+00 0.8550000D+00 0.8550000D+00 0.8550000D+00 0.8550000D+00
EXPONENTS  0.2920000D+00 0.2920000D+00 0.2920000D+00 0.2920000D+00 0.2920000D+00
EXPONENTS  0.2920000D+00 0.1917000D+01 0.1917000D+01 0.1917000D+01 0.1917000D+01
EXPONENTS  0.1917000D+01 0.1917000D+01 0.1917000D+01 0.1917000D+01 0.1917000D+01
EXPONENTS  0.1917000D+01 0.7240000D+00 0.7240000D+00 0.7240000D+00 0.7240000D+00
EXPONENTS  0.7240000D+00 0.7240000D+00 0.7240000D+00 0.7240000D+00 0.7240000D+00
EXPONENTS  0.7240000D+00
MO    1     MO 0.0        OCC NO =    2.0000000  ORB. ENERGY =  -24.509211
  0.15520107D-03  0.28933009D-03  0.48901882D-03  0.73515547D-03  0.90322343D-03
  0.76291658D-03  0.28774406D-03 -0.14240614D-05 -0.10613150D-03 -0.19871165D-03
 -0.33832358D-03 -0.52333514D-03 -0.68921397D-03 -0.71613746D-03 -0.45507321D-03
  0.30497948D-03 -0.44923058D-03  0.31726411D-02  0.56635333D-03  0.17475405D-13
  0.16384303D-13  0.11666599D-13 -0.53035133D-03 -0.49723808D-03 -0.35406314D-03
  0.27164010D-03  0.25467986D-03  0.18134723D-03 -0.56165187D-13  0.17409824D-02
 -0.89419851D-03 -0.11613505D-13  0.22062121D-03  0.61682875D-03  0.33570076D-15
 -0.47100438D-05  0.28019477D-04 -0.48100361D-03  0.73713492D-03 -0.25613131D-03
  0.38656095D-13  0.30301532D-13 -0.95706077D-03 -0.18227388D-03  0.45466026D-03
 -0.27238637D-03  0.21343710D-13  0.22544190D-13 -0.64816827D-03 -0.18892006D-04
 -0.10570965D-04  0.29462971D-04  0.11296600D-14  0.13484785D-14 -0.20643345D-04
 -0.11762080D-14  0.17880337D-03  0.13712950D-03 -0.11771788D-14 -0.39167202D-03
  0.19172651D-03  0.47058029D-14 -0.14473809D-03 -0.60311499D-03 -0.27060793D-13
 -0.35854991D-15  0.59551189D-04  0.53495714D-05 -0.81157192D-15 -0.12246445D-03
 -0.40752331D-04  0.18872217D-14 -0.56189120D-04  0.24703617D-04  0.27751689D-14
  0.28538258D-04  0.53201801D-04  0.89920416D-04  0.13517984D-03  0.16608405D-03
  0.14028453D-03  0.52910164D-04 -0.26185535D-06 -0.21372857D-04 -0.40016732D-04
 -0.68131911D-04 -0.10538971D-03 -0.13879454D-03 -0.14421641D-03 -0.91643056D-04
  0.61417045D-04  0.82796522D-04 -0.21018831D-02 -0.32069135D-03 -0.20100337D-14
 -0.18845344D-14 -0.13419007D-14  0.31599220D-04  0.29626277D-04  0.21095674D-04
  0.50784164D-04  0.47613382D-04  0.33903565D-04  0.87160773D-14 -0.14841405D-03
 -0.21145536D-03  0.66835141D-14 -0.23533113D-05  0.59487710D-03 -0.20345678D-15
  0.43999622D-05  0.28197957D-04 -0.36614645D-04  0.75844916D-04 -0.39230271D-04
  0.40864178D-14 -0.12334940D-15  0.25563118D-04 -0.14607017D-03 -0.67242041D-04
  0.21331221D-03  0.62779064D-14  0.10667912D-13 -0.24265563D-03  0.12587643D-04
  0.12538256D-04 -0.25125900D-04  0.88286523D-15  0.79348660D-15 -0.14636732D-04
 -0.20091054D-15  0.23995737D-04 -0.87508142D-05 -0.55736001D-16 -0.24642041D-04
 -0.74614731D-05  0.65846762D-15 -0.47345171D-04  0.33713916D-04  0.31236234D-14
  0.22955585D-15  0.19380884D-04 -0.22414833D-04  0.43023262D-15 -0.97296955D-04
 -0.41265647D-04 -0.11189002D-14  0.39154305D-04  0.10851014D-03  0.63732634D-14
 -0.74840681D-05 -0.13497825D-04 -0.19902535D-04  0.58916986D-03 -0.15146241D-04
 -0.15985999D-04 -0.47392075D-04 -0.46302158D-05  0.52514834D-04 -0.12653903D-03
 -0.12444902D-03 -0.19830770D-03 -0.11355210D-04  0.10238732D-04 -0.41120421D-05
 -0.10559421D-04 -0.25524237D-04  0.36083657D-04  0.48507697D-04  0.90487888D-04
  0.17270364D-04 -0.17506518D-05  0.25773441D-05 -0.82669227D-06  0.12867868D-04
  0.28898809D-04 -0.16880123D-04 -0.74840681D-05 -0.13497825D-04 -0.19902535D-04
  0.58916986D-03 -0.15146241D-04 -0.15985999D-04  0.47392075D-04 -0.46302158D-05
  0.52514834D-04  0.12653903D-03 -0.12444902D-03 -0.19830770D-03  0.11355210D-04
  0.10238732D-04 -0.41120421D-05 -0.10559421D-04 -0.25524237D-04  0.36083657D-04
 -0.48507697D-04 -0.90487888D-04  0.17270364D-04 -0.17506518D-05  0.25773441D-05
 -0.82669227D-06 -0.12867868D-04 -0.28898809D-04 -0.16880123D-04 -0.26048779D-05
 -0.46980045D-05 -0.69272049D-05  0.97483303D-04 -0.58389580D-04 -0.29653761D-05
 -0.58009646D-15  0.27701967D-05 -0.43467707D-04  0.22292958D-14 -0.77667899D-04
 -0.17099585D-03  0.13790878D-16  0.11629145D-04  0.20293759D-05  0.52926962D-05
 -0.90794223D-04  0.85501526D-04  0.89137919D-15  0.14546281D-14 -0.67280702D-04
  0.42424052D-05  0.38779701D-05 -0.81203753D-05  0.62078706D-15  0.83088929D-15
  0.42878864D-06  0.59441829D+00  0.11080214D+01  0.18783687D+01  0.28444039D+01
  0.35569370D+01  0.30621914D+01  0.11772182D+01 -0.51010791D-02  0.14351419D-03
  0.26949423D-03  0.45890220D-03  0.71886758D-03  0.96336713D-03  0.10362312D-02
  0.62215188D-03 -0.40915325D-03  0.64369081D-01 -0.14574424D-02 -0.86964148D-03
 -0.28320595D-15 -0.27696923D-15 -0.18300528D-15 -0.63597550D-02 -0.62197015D-02
 -0.41096197D-02  0.26129759D-02  0.25554334D-02  0.16884829D-02 -0.55479544D-15
  0.12342472D-02 -0.48834652D-03  0.24828688D-14  0.13211360D-02 -0.73425964D-03
 -0.79262595D-15  0.88501782D-04 -0.35344066D-04 -0.39253139D-03  0.52261552D-03
 -0.13008413D-03  0.16149439D-13  0.10487912D-14 -0.60383045D-03  0.46782961D-03
 -0.71041760D-03  0.24258799D-03 -0.55334436D-14 -0.27413148D-15  0.93147114D-03
  0.15560636D-03 -0.22075505D-03  0.65148690D-04 -0.10510018D-14 -0.11061102D-14
  0.39490881D-03  0.16945689D-14 -0.19857724D-03 -0.18053880D-03 -0.17223865D-13
  0.46854386D-03 -0.20864110D-03  0.12140159D-13  0.12718785D-03  0.75025748D-03
 -0.71029604D-14 -0.67803828D-15  0.22137972D-03  0.16902361D-03  0.64409604D-14
 -0.51117737D-03  0.22185057D-03 -0.44068456D-14 -0.15296179D-03 -0.72892142D-03
  0.26609563D-14  0.25828866D-02  0.48146125D-02  0.81619518D-02  0.12359600D-01
  0.15455724D-01  0.13305938D-01  0.51152885D-02 -0.22165382D-04 -0.26502203D-04
 -0.49766444D-04 -0.84743671D-04 -0.13275046D-03 -0.17790123D-03 -0.19135676D-03
 -0.11489035D-03  0.75556727D-04  0.25697665D-03 -0.33764283D-03 -0.19285971D-04
  0.33354175D-04  0.32619655D-04  0.21553185D-04  0.47485892D-04  0.46440165D-04
  0.30684981D-04 -0.35338860D-04 -0.34560633D-04 -0.22835672D-04 -0.32597989D-04
 -0.18858861D-04  0.33603660D-04 -0.25443797D-05 -0.35849159D-04 -0.18342707D-03
  0.73317810D-05  0.17246360D-04 -0.14157944D-06 -0.19782450D-03  0.19214415D-03
  0.56803421D-05  0.18491170D-03 -0.42947065D-04 -0.96102032D-04  0.66221084D-04
 -0.59987123D-04 -0.62339612D-05 -0.82503215D-04 -0.13321778D-04  0.19517212D-04
  0.33895784D-04  0.52842182D-05 -0.39180002D-04  0.39031155D-04 -0.28363356D-04
  0.74987171D-05 -0.14724974D-03  0.13136760D-03  0.66085392D-04  0.30145606D-03
 -0.13423116D-03 -0.13054229D-03  0.14029316D-03 -0.25987163D-03 -0.67713884D-04
 -0.41231195D-03  0.57841871D-04 -0.47122789D-04 -0.26958742D-04 -0.11255038D-03
  0.53830667D-04  0.46962713D-04 -0.60975235D-04  0.87537700D-04  0.33913511D-04
  0.13431265D-03  0.25828865D-02  0.48146124D-02  0.81619517D-02  0.12359600D-01
  0.15455724D-01  0.13305938D-01  0.51152885D-02 -0.22165382D-04 -0.26502203D-04
 -0.49766444D-04 -0.84743671D-04 -0.13275046D-03 -0.17790123D-03 -0.19135676D-03
 -0.11489035D-03  0.75556727D-04  0.25697665D-03 -0.33764283D-03 -0.19285971D-04
 -0.33354175D-04 -0.32619654D-04 -0.21553185D-04  0.47485892D-04  0.46440165D-04
  0.30684981D-04 -0.35338860D-04 -0.34560633D-04 -0.22835672D-04  0.32597989D-04
 -0.18858861D-04  0.33603660D-04  0.25443797D-05 -0.35849159D-04 -0.18342707D-03
 -0.73317810D-05  0.17246360D-04 -0.14157944D-06 -0.19782450D-03  0.19214415D-03
  0.56803421D-05 -0.18491170D-03  0.42947065D-04 -0.96102032D-04  0.66221084D-04
 -0.59987123D-04 -0.62339612D-05  0.82503215D-04  0.13321778D-04  0.19517212D-04
  0.33895784D-04  0.52842182D-05 -0.39180002D-04 -0.39031155D-04  0.28363356D-04
  0.74987171D-05  0.14724974D-03  0.13136760D-03  0.66085392D-04 -0.30145606D-03
 -0.13423116D-03 -0.13054229D-03 -0.14029316D-03 -0.25987163D-03 -0.67713884D-04
  0.41231195D-03 -0.57841871D-04 -0.47122789D-04 -0.26958742D-04  0.11255038D-03
  0.53830667D-04  0.46962713D-04  0.60975235D-04  0.87537700D-04  0.33913511D-04
 -0.13431265D-03
MO    2     MO 0.0        OCC NO =    2.0000000  ORB. ENERGY =  -24.509147
  0.21678385D-03  0.40413439D-03  0.68305830D-03  0.10268604D-02  0.12616166D-02
  0.10656369D-02  0.40191904D-03 -0.19891197D-05 -0.14825128D-03 -0.27757317D-03
 -0.47259208D-03 -0.73102809D-03 -0.96273827D-03 -0.10003467D-02 -0.63567544D-03
  0.42601490D-03 -0.62693598D-03  0.44291049D-02  0.79097652D-03  0.25839796D-10
  0.24226452D-10  0.17250677D-10  0.37953448D-03  0.35583770D-03  0.25337764D-03
  0.38028347D-03  0.35653992D-03  0.25387766D-03 -0.84916354D-10 -0.12467974D-02
 -0.12513142D-02 -0.10628475D-10 -0.15701366D-03  0.86125959D-03  0.22742682D-12
  0.33957120D-05  0.39144310D-04  0.61442234D-03 -0.25826705D-03 -0.35615529D-03
  0.59424250D-10  0.46840302D-10  0.68652016D-03  0.41812629D-03 -0.38454318D-04
 -0.37967198D-03  0.30968090D-10  0.31652444D-10  0.46536146D-03 -0.17625473D-04
 -0.23570825D-04  0.41196297D-04  0.38124829D-12  0.99718041D-12  0.14951202D-04
 -0.17522325D-11  0.17310524D-03  0.19157858D-03 -0.17280317D-11 -0.62208659D-03
 -0.57289093D-03  0.69847291D-11  0.10277088D-03 -0.18448099D-05 -0.38827632D-10
 -0.69862426D-12  0.53411633D-04  0.74627412D-05 -0.66648140D-12 -0.20068404D-03
  0.12317727D-04  0.27623542D-11  0.40449141D-04 -0.34705950D-04  0.32609947D-11
  0.39850178D-04  0.74289792D-04  0.12556284D-03  0.18876207D-03  0.23191601D-03
  0.19589015D-03  0.73882557D-04 -0.36564890D-06 -0.29837582D-04 -0.55865368D-04
 -0.95115568D-04 -0.14712932D-03 -0.19376414D-03 -0.20133335D-03 -0.12793831D-03
  0.85741279D-04  0.11533992D-03 -0.29355620D-02 -0.44788384D-03 -0.15234237D-11
 -0.14283066D-11 -0.10170394D-11 -0.22133906D-04 -0.20751944D-04 -0.14776620D-04
  0.71309450D-04  0.66857142D-04  0.47606268D-04  0.72245944D-11  0.10580948D-03
 -0.29588282D-03  0.35487513D-13  0.13738324D-05  0.83029107D-03 -0.21369430D-12
 -0.31318101D-05  0.39373232D-04  0.67836147D-04 -0.13166737D-04 -0.54669410D-04
  0.55248906D-11 -0.12688846D-11 -0.18540550D-04 -0.12060743D-03 -0.17697791D-03
  0.29758534D-03  0.38425594D-11  0.11872742D-10  0.17519290D-03  0.17507451D-04
  0.17564043D-04 -0.35071495D-04 -0.38928614D-14  0.71364161D-12  0.10631659D-04
 -0.56647859D-12  0.85604266D-05 -0.12294190D-04 -0.57773637D-12 -0.58889630D-04
  0.32954315D-04  0.22771722D-11  0.33208350D-04  0.39282547D-05  0.19635976D-11
  0.48074536D-12  0.47651356D-04 -0.31247555D-04  0.46870763D-12 -0.11508421D-03
  0.10077572D-03 -0.19109437D-11 -0.27869859D-04 -0.70330506D-05  0.73440433D-11
 -0.69424823D-05 -0.12521053D-04 -0.18462285D-04  0.47621738D-03 -0.51640507D-04
 -0.13168117D-04 -0.20621751D-04 -0.28100418D-04  0.55280809D-05 -0.71406492D-04
 -0.48058574D-05 -0.25739446D-03 -0.47226283D-05 -0.14826527D-04 -0.14639763D-05
 -0.47298750D-04 -0.37411606D-04  0.84710356D-04 -0.32784708D-04  0.82093737D-04
  0.72709448D-04  0.78068993D-05 -0.14019016D-05 -0.64049978D-05  0.15133347D-05
 -0.66936841D-06  0.23763269D-04 -0.69424826D-05 -0.12521053D-04 -0.18462286D-04
  0.47621741D-03 -0.51640505D-04 -0.13168118D-04  0.20621753D-04 -0.28100420D-04
  0.55280864D-05  0.71406506D-04 -0.48058623D-05 -0.25739447D-03  0.47226275D-05
 -0.14826527D-04 -0.14639766D-05 -0.47298747D-04 -0.37411607D-04  0.84710354D-04
  0.32784701D-04 -0.82093737D-04  0.72709450D-04  0.78068995D-05 -0.14019021D-05
 -0.64049974D-05 -0.15133348D-05  0.66936842D-06  0.23763271D-04 -0.10530899D-04
 -0.18992910D-04 -0.28005034D-04  0.82846399D-03 -0.20227446D-04 -0.22432201D-04
 -0.11253252D-11  0.60855363D-04  0.74767153D-04  0.25394453D-11  0.24291990D-03
 -0.27724785D-03 -0.81431615D-12  0.65819563D-05 -0.57319118D-05 -0.60261496D-04
  0.10590462D-04  0.49671034D-04  0.63677280D-12  0.16997253D-11 -0.12188269D-03
 -0.59136762D-05  0.68298977D-05 -0.91622150D-06  0.57724045D-12  0.16474746D-11
 -0.23190404D-04 -0.35380792D-02 -0.65951329D-02 -0.11180372D-01 -0.16930378D-01
 -0.21171497D-01 -0.18226687D-01 -0.70070037D-02  0.30362494D-04 -0.39062182D-04
 -0.73351860D-04 -0.12490557D-03 -0.19566383D-03 -0.26221255D-03 -0.28204495D-03
 -0.16933942D-03  0.11136473D-03 -0.41516505D-03 -0.45831571D-03 -0.16367686D-04
 -0.13994741D-11 -0.13686551D-11 -0.90432827D-12  0.26564873D-05  0.25979866D-05
  0.17165996D-05 -0.81315311D-04 -0.79524598D-04 -0.52545264D-04  0.17757324D-13
  0.38145624D-04  0.53154113D-04  0.16857950D-11  0.12436420D-04 -0.24892362D-03
 -0.62592445D-12 -0.22225167D-04  0.20636976D-06  0.24929075D-04 -0.35217777D-04
  0.10288702D-04  0.24296763D-10  0.35588821D-11  0.12810445D-03  0.47360951D-05
  0.72563833D-05 -0.11992478D-04 -0.85126680D-11 -0.13571949D-11 -0.91326493D-05
 -0.82874216D-05  0.64092926D-04 -0.55805505D-04 -0.30362834D-12 -0.11640652D-11
  0.24432540D-04  0.21519559D-11  0.93288145D-04  0.95290892D-04 -0.23153518D-10
 -0.28914851D-03  0.13664944D-03  0.16697650D-10  0.92840777D-05 -0.42252212D-03
 -0.86389017D-11 -0.90126238D-12 -0.41538825D-04 -0.40066852D-04  0.87173073D-11
  0.10968374D-03 -0.32311453D-04 -0.60135202D-11  0.14932736D-04  0.15251201D-03
  0.31791334D-11  0.42034550D+00  0.78354222D+00  0.13282967D+01  0.20114327D+01
  0.25153036D+01  0.21654421D+01  0.83247500D+00 -0.36072505D-02  0.82608174D-04
  0.15512352D-03  0.26414860D-03  0.41378722D-03  0.55452356D-03  0.59646485D-03
  0.35811672D-03 -0.23551262D-03  0.45502918D-01 -0.12594183D-02 -0.62575706D-03
  0.39161009D-02  0.38298612D-02  0.25305512D-02  0.22389338D-02  0.21896283D-02
  0.14467800D-02  0.18226228D-02  0.17824853D-02  0.11777634D-02 -0.77474168D-03
 -0.44682468D-03 -0.32150838D-03 -0.82812362D-03 -0.45312617D-03 -0.64543294D-03
 -0.40951673D-04 -0.32964283D-04 -0.25041367D-04  0.33247541D-03 -0.24237824D-03
 -0.90097170D-04  0.38232764D-03  0.29451801D-03  0.21971810D-03 -0.33855880D-03
  0.17245889D-03  0.16609991D-03 -0.66868230D-03 -0.56185595D-03 -0.34364991D-03
 -0.68734728D-04  0.50442430D-04  0.18292298D-04 -0.19857733D-03 -0.24657432D-03
 -0.15931297D-03  0.12684167D-03 -0.10537263D-03 -0.80970222D-04 -0.19350784D-03
  0.18025119D-03  0.17651910D-03 -0.18701719D-03  0.13586669D-03  0.66391566D-04
  0.40594670D-03 -0.61690458D-04  0.11534608D-03  0.10038537D-03  0.60575217D-04
 -0.33010478D-03 -0.27979006D-03  0.12449616D-03 -0.15933457D-04 -0.21366054D-04
 -0.52706857D-03  0.42034547D+00  0.78354216D+00  0.13282966D+01  0.20114325D+01
  0.25153034D+01  0.21654419D+01  0.83247494D+00 -0.36072502D-02  0.82608165D-04
  0.15512350D-03  0.26414857D-03  0.41378718D-03  0.55452349D-03  0.59646478D-03
  0.35811667D-03 -0.23551259D-03  0.45502914D-01 -0.12594183D-02 -0.62575701D-03
 -0.39161006D-02 -0.38298609D-02 -0.25305510D-02  0.22389336D-02  0.21896282D-02
  0.14467799D-02  0.18226227D-02  0.17824852D-02  0.11777633D-02  0.77474162D-03
 -0.44682464D-03 -0.32150835D-03  0.82812356D-03 -0.45312613D-03 -0.64543291D-03
  0.40951667D-04 -0.32964280D-04 -0.25041365D-04  0.33247540D-03 -0.24237824D-03
 -0.90097162D-04 -0.38232758D-03 -0.29451798D-03  0.21971808D-03 -0.33855878D-03
  0.17245888D-03  0.16609990D-03  0.66868224D-03  0.56185590D-03 -0.34364988D-03
 -0.68734720D-04  0.50442427D-04  0.18292292D-04  0.19857731D-03  0.24657430D-03
 -0.15931296D-03 -0.12684168D-03 -0.10537262D-03 -0.80970208D-04  0.19350786D-03
  0.18025114D-03  0.17651906D-03  0.18701719D-03  0.13586671D-03  0.66391568D-04
 -0.40594664D-03  0.61690459D-04  0.11534607D-03  0.10038536D-03 -0.60575225D-04
 -0.33010474D-03 -0.27979003D-03 -0.12449615D-03 -0.15933467D-04 -0.21366054D-04
  0.52706852D-03
MO    3     MO 0.0        OCC NO =    2.0000000  ORB. ENERGY =  -24.509146
  0.86182265D-11  0.16066334D-10  0.27154934D-10  0.40822761D-10  0.50155479D-10
  0.42364320D-10  0.15978263D-10 -0.79077314D-13 -0.58948742D-11 -0.11037065D-10
 -0.18791547D-10 -0.29067665D-10 -0.38281093D-10 -0.39776508D-10 -0.25276185D-10
  0.16939511D-10 -0.24838355D-10  0.17524216D-09  0.31204656D-10 -0.65212370D-03
 -0.61140742D-03 -0.43535851D-03  0.15022569D-10  0.14084614D-10  0.10029084D-10
  0.15070397D-10  0.14129455D-10  0.10061014D-10  0.21416211D-02 -0.49387847D-10
 -0.49611136D-10  0.27042913D-03 -0.61367395D-11  0.34173047D-10 -0.57964361D-05
  0.13198580D-12  0.15438309D-11  0.24371009D-10 -0.10236028D-10 -0.14134980D-10
 -0.14967279D-02 -0.11794427D-02  0.27242044D-10  0.16559861D-10 -0.15096498D-11
 -0.15050212D-10 -0.78269081D-03 -0.80003050D-03  0.18385566D-10 -0.70862745D-12
 -0.92763138D-12  0.16362588D-11 -0.10141793D-04 -0.25572792D-04  0.57951964D-12
  0.44221381D-04  0.68704097D-11  0.76029405D-11  0.43582632D-04 -0.24681100D-10
 -0.22708361D-10 -0.17624677D-03  0.40698712D-11 -0.10046093D-12  0.97996365D-03
  0.17465903D-04  0.21129412D-11  0.28678338D-12  0.17155770D-04 -0.79414029D-11
  0.50030573D-12 -0.69553478D-04  0.16025793D-11 -0.13606559D-11 -0.81307776D-04
  0.15854966D-11  0.29557262D-11  0.49956980D-11  0.75101705D-11  0.92271122D-11
  0.77937713D-11  0.29395238D-11 -0.14547867D-13 -0.11869244D-11 -0.22222969D-11
 -0.37836506D-11 -0.58527322D-11 -0.77078425D-11 -0.80089420D-11 -0.50893231D-11
  0.34107460D-11  0.45824907D-11 -0.11635392D-09 -0.17670023D-10  0.38386712D-04
  0.35989983D-04  0.25627012D-04 -0.87943491D-12 -0.82452613D-12 -0.58711172D-12
  0.28416217D-11  0.26642010D-11  0.18970698D-11 -0.18233484D-03  0.41957590D-11
 -0.11778014D-10 -0.26856109D-05 -0.19418687D-14  0.32903614D-10  0.54121360D-05
 -0.12329302D-12  0.15532050D-11  0.26932980D-11 -0.52573901D-12 -0.21675590D-11
 -0.13879275D-03  0.32133827D-04 -0.72689538D-12 -0.47974927D-11 -0.70175362D-11
  0.11815029D-10 -0.97666454D-04 -0.30026323D-03  0.69112161D-11  0.69054242D-12
  0.69601233D-12 -0.13865547D-11 -0.63070572D-07 -0.18161155D-04  0.41698398D-12
  0.14223166D-04  0.34133798D-12 -0.48270221D-12  0.14372844D-04 -0.23477722D-11
  0.12974653D-11 -0.57042341D-04  0.13237583D-11  0.15064135D-12 -0.49739004D-04
 -0.12089948D-04  0.18907968D-11 -0.12398539D-11 -0.12029262D-04 -0.45687795D-11
  0.39887843D-11  0.48299107D-04 -0.11036108D-11 -0.26922261D-12 -0.18513834D-03
 -0.35449435D-05 -0.63934517D-05 -0.94271407D-05  0.35042590D-03  0.31516250D-04
 -0.92524998D-05 -0.17800138D-04 -0.26495001D-04  0.68526876D-04 -0.16967539D-03
 -0.61626219D-04 -0.19409889D-04  0.93034367D-05 -0.65279786D-05 -0.42901146D-05
  0.46596788D-04 -0.11803887D-04 -0.34792901D-04  0.85625489D-04  0.15627615D-05
  0.25775708D-04  0.21650527D-05 -0.74593374D-05  0.52942846D-05  0.22475262D-05
 -0.35543273D-07  0.23927411D-04  0.35449430D-05  0.63934507D-05  0.94271393D-05
 -0.35042586D-03 -0.31516254D-04  0.92524987D-05 -0.17800136D-04  0.26494999D-04
 -0.68526875D-04 -0.16967539D-03  0.61626218D-04  0.19409868D-04  0.93034371D-05