 Molden2AIM, Version 4.0.0 (06/02/2016)           Time: Sat Jun 30 03:12:58 2018
GAUSSIAN             16 MOL ORBITALS    381 PRIMITIVES        7 NUCLEI
  C    1    (CENTRE  1) -13.39520836 -3.82994195  2.55737959  CHARGE =  6.0
  C    2    (CENTRE  2) -10.92768714 -2.62042086  3.16012097  CHARGE =  6.0
  H    3    (CENTRE  3) -14.57947327 -2.48733878  1.50999889  CHARGE =  1.0
  H    4    (CENTRE  4) -14.38411905 -4.28344032  4.32360834  CHARGE =  1.0
  H    5    (CENTRE  5) -13.07879262 -5.54134974  1.44491861  CHARGE =  1.0
  O    6    (CENTRE  6)  -8.85106899 -3.27078522  2.62567807  CHARGE =  8.0
  F    7    (CENTRE  7) -11.28986826 -0.46427169  4.52958281  CHARGE =  9.0
CENTRE ASSIGNMENTS    1  1  1  1  1  1  1  1  1  1  1  1  1  1  1  1  1  1  1  1
CENTRE ASSIGNMENTS    1  1  1  1  1  1  1  1  1  1  1  1  1  1  1  1  1  1  1  1
CENTRE ASSIGNMENTS    1  1  1  1  1  1  1  1  1  1  1  1  1  1  1  1  1  1  1  1
CENTRE ASSIGNMENTS    1  1  1  1  1  1  1  1  1  1  1  1  1  1  1  2  2  2  2  2
CENTRE ASSIGNMENTS    2  2  2  2  2  2  2  2  2  2  2  2  2  2  2  2  2  2  2  2
CENTRE ASSIGNMENTS    2  2  2  2  2  2  2  2  2  2  2  2  2  2  2  2  2  2  2  2
CENTRE ASSIGNMENTS    2  2  2  2  2  2  2  2  2  2  2  2  2  2  2  2  2  2  2  2
CENTRE ASSIGNMENTS    2  2  2  2  2  2  2  2  2  2  3  3  3  3  3  3  3  3  3  3
CENTRE ASSIGNMENTS    3  3  3  3  3  3  3  3  3  3  3  3  3  3  3  3  3  4  4  4
CENTRE ASSIGNMENTS    4  4  4  4  4  4  4  4  4  4  4  4  4  4  4  4  4  4  4  4
CENTRE ASSIGNMENTS    4  4  4  4  5  5  5  5  5  5  5  5  5  5  5  5  5  5  5  5
CENTRE ASSIGNMENTS    5  5  5  5  5  5  5  5  5  5  5  6  6  6  6  6  6  6  6  6
CENTRE ASSIGNMENTS    6  6  6  6  6  6  6  6  6  6  6  6  6  6  6  6  6  6  6  6
CENTRE ASSIGNMENTS    6  6  6  6  6  6  6  6  6  6  6  6  6  6  6  6  6  6  6  6
CENTRE ASSIGNMENTS    6  6  6  6  6  6  6  6  6  6  6  6  6  6  6  6  6  6  6  6
CENTRE ASSIGNMENTS    6  6  6  6  6  6  7  7  7  7  7  7  7  7  7  7  7  7  7  7
CENTRE ASSIGNMENTS    7  7  7  7  7  7  7  7  7  7  7  7  7  7  7  7  7  7  7  7
CENTRE ASSIGNMENTS    7  7  7  7  7  7  7  7  7  7  7  7  7  7  7  7  7  7  7  7
CENTRE ASSIGNMENTS    7  7  7  7  7  7  7  7  7  7  7  7  7  7  7  7  7  7  7  7
CENTRE ASSIGNMENTS    7
TYPE ASSIGNMENTS      1  1  1  1  1  1  1  1  1  1  1  1  1  1  1  1  1  1  1  2
TYPE ASSIGNMENTS      2  2  3  3  3  4  4  4  2  3  4  2  3  4  2  3  4  5  6  7
TYPE ASSIGNMENTS      8  9 10  5  6  7  8  9 10  5  6  7  8  9 10 11 12 13 17 14
TYPE ASSIGNMENTS     15 18 19 16 20 11 12 13 17 14 15 18 19 16 20  1  1  1  1  1
TYPE ASSIGNMENTS      1  1  1  1  1  1  1  1  1  1  1  1  1  1  2  2  2  3  3  3
TYPE ASSIGNMENTS      4  4  4  2  3  4  2  3  4  2  3  4  5  6  7  8  9 10  5  6
TYPE ASSIGNMENTS      7  8  9 10  5  6  7  8  9 10 11 12 13 17 14 15 18 19 16 20
TYPE ASSIGNMENTS     11 12 13 17 14 15 18 19 16 20  1  1  1  1  1  1  2  3  4  2
TYPE ASSIGNMENTS      3  4  2  3  4  5  6  7  8  9 10  5  6  7  8  9 10  1  1  1
TYPE ASSIGNMENTS      1  1  1  2  3  4  2  3  4  2  3  4  5  6  7  8  9 10  5  6
TYPE ASSIGNMENTS      7  8  9 10  1  1  1  1  1  1  2  3  4  2  3  4  2  3  4  5
TYPE ASSIGNMENTS      6  7  8  9 10  5  6  7  8  9 10  1  1  1  1  1  1  1  1  1
TYPE ASSIGNMENTS      1  1  1  1  1  1  1  1  1  1  2  2  2  3  3  3  4  4  4  2
TYPE ASSIGNMENTS      3  4  2  3  4  2  3  4  5  6  7  8  9 10  5  6  7  8  9 10
TYPE ASSIGNMENTS      5  6  7  8  9 10 11 12 13 17 14 15 18 19 16 20 11 12 13 17
TYPE ASSIGNMENTS     14 15 18 19 16 20  1  1  1  1  1  1  1  1  1  1  1  1  1  1
TYPE ASSIGNMENTS      1  1  1  1  1  2  2  2  3  3  3  4  4  4  2  3  4  2  3  4
TYPE ASSIGNMENTS      2  3  4  5  6  7  8  9 10  5  6  7  8  9 10  5  6  7  8  9
TYPE ASSIGNMENTS     10 11 12 13 17 14 15 18 19 16 20 11 12 13 17 14 15 18 19 16
TYPE ASSIGNMENTS     20
EXPONENTS  0.8236000D+04 0.1235000D+04 0.2808000D+03 0.7927000D+02 0.2559000D+02
EXPONENTS  0.8997000D+01 0.3319000D+01 0.3643000D+00 0.8236000D+04 0.1235000D+04
EXPONENTS  0.2808000D+03 0.7927000D+02 0.2559000D+02 0.8997000D+01 0.3319000D+01
EXPONENTS  0.3643000D+00 0.9059000D+00 0.1285000D+00 0.4402000D-01 0.1871000D+02
EXPONENTS  0.4133000D+01 0.1200000D+01 0.1871000D+02 0.4133000D+01 0.1200000D+01
EXPONENTS  0.1871000D+02 0.4133000D+01 0.1200000D+01 0.3827000D+00 0.3827000D+00
EXPONENTS  0.3827000D+00 0.1209000D+00 0.1209000D+00 0.1209000D+00 0.3569000D-01
EXPONENTS  0.3569000D-01 0.3569000D-01 0.1097000D+01 0.1097000D+01 0.1097000D+01
EXPONENTS  0.1097000D+01 0.1097000D+01 0.1097000D+01 0.3180000D+00 0.3180000D+00
EXPONENTS  0.3180000D+00 0.3180000D+00 0.3180000D+00 0.3180000D+00 0.1000000D+00
EXPONENTS  0.1000000D+00 0.1000000D+00 0.1000000D+00 0.1000000D+00 0.1000000D+00
EXPONENTS  0.7610000D+00 0.7610000D+00 0.7610000D+00 0.7610000D+00 0.7610000D+00
EXPONENTS  0.7610000D+00 0.7610000D+00 0.7610000D+00 0.7610000D+00 0.7610000D+00
EXPONENTS  0.2680000D+00 0.2680000D+00 0.2680000D+00 0.2680000D+00 0.2680000D+00
EXPONENTS  0.2680000D+00 0.2680000D+00 0.2680000D+00 0.2680000D+00 0.2680000D+00
EXPONENTS  0.8236000D+04 0.1235000D+04 0.2808000D+03 0.7927000D+02 0.2559000D+02
EXPONENTS  0.8997000D+01 0.3319000D+01 0.3643000D+00 0.8236000D+04 0.1235000D+04
EXPONENTS  0.2808000D+03 0.7927000D+02 0.2559000D+02 0.8997000D+01 0.3319000D+01
EXPONENTS  0.3643000D+00 0.9059000D+00 0.1285000D+00 0.4402000D-01 0.1871000D+02
EXPONENTS  0.4133000D+01 0.1200000D+01 0.1871000D+02 0.4133000D+01 0.1200000D+01
EXPONENTS  0.1871000D+02 0.4133000D+01 0.1200000D+01 0.3827000D+00 0.3827000D+00
EXPONENTS  0.3827000D+00 0.1209000D+00 0.1209000D+00 0.1209000D+00 0.3569000D-01
EXPONENTS  0.3569000D-01 0.3569000D-01 0.1097000D+01 0.1097000D+01 0.1097000D+01
EXPONENTS  0.1097000D+01 0.1097000D+01 0.1097000D+01 0.3180000D+00 0.3180000D+00
EXPONENTS  0.3180000D+00 0.3180000D+00 0.3180000D+00 0.3180000D+00 0.1000000D+00
EXPONENTS  0.1000000D+00 0.1000000D+00 0.1000000D+00 0.1000000D+00 0.1000000D+00
EXPONENTS  0.7610000D+00 0.7610000D+00 0.7610000D+00 0.7610000D+00 0.7610000D+00
EXPONENTS  0.7610000D+00 0.7610000D+00 0.7610000D+00 0.7610000D+00 0.7610000D+00
EXPONENTS  0.2680000D+00 0.2680000D+00 0.2680000D+00 0.2680000D+00 0.2680000D+00
EXPONENTS  0.2680000D+00 0.2680000D+00 0.2680000D+00 0.2680000D+00 0.2680000D+00
EXPONENTS  0.3387000D+02 0.5095000D+01 0.1159000D+01 0.3258000D+00 0.1027000D+00
EXPONENTS  0.2526000D-01 0.1407000D+01 0.1407000D+01 0.1407000D+01 0.3880000D+00
EXPONENTS  0.3880000D+00 0.3880000D+00 0.1020000D+00 0.1020000D+00 0.1020000D+00
EXPONENTS  0.1057000D+01 0.1057000D+01 0.1057000D+01 0.1057000D+01 0.1057000D+01
EXPONENTS  0.1057000D+01 0.2470000D+00 0.2470000D+00 0.2470000D+00 0.2470000D+00
EXPONENTS  0.2470000D+00 0.2470000D+00 0.3387000D+02 0.5095000D+01 0.1159000D+01
EXPONENTS  0.3258000D+00 0.1027000D+00 0.2526000D-01 0.1407000D+01 0.1407000D+01
EXPONENTS  0.1407000D+01 0.3880000D+00 0.3880000D+00 0.3880000D+00 0.1020000D+00
EXPONENTS  0.1020000D+00 0.1020000D+00 0.1057000D+01 0.1057000D+01 0.1057000D+01
EXPONENTS  0.1057000D+01 0.1057000D+01 0.1057000D+01 0.2470000D+00 0.2470000D+00
EXPONENTS  0.2470000D+00 0.2470000D+00 0.2470000D+00 0.2470000D+00 0.3387000D+02
EXPONENTS  0.5095000D+01 0.1159000D+01 0.3258000D+00 0.1027000D+00 0.2526000D-01
EXPONENTS  0.1407000D+01 0.1407000D+01 0.1407000D+01 0.3880000D+00 0.3880000D+00
EXPONENTS  0.3880000D+00 0.1020000D+00 0.1020000D+00 0.1020000D+00 0.1057000D+01
EXPONENTS  0.1057000D+01 0.1057000D+01 0.1057000D+01 0.1057000D+01 0.1057000D+01
EXPONENTS  0.2470000D+00 0.2470000D+00 0.2470000D+00 0.2470000D+00 0.2470000D+00
EXPONENTS  0.2470000D+00 0.1533000D+05 0.2299000D+04 0.5224000D+03 0.1473000D+03
EXPONENTS  0.4755000D+02 0.1676000D+02 0.6207000D+01 0.6882000D+00 0.1533000D+05
EXPONENTS  0.2299000D+04 0.5224000D+03 0.1473000D+03 0.4755000D+02 0.1676000D+02
EXPONENTS  0.6207000D+01 0.6882000D+00 0.1752000D+01 0.2384000D+00 0.7376000D-01
EXPONENTS  0.3446000D+02 0.7749000D+01 0.2280000D+01 0.3446000D+02 0.7749000D+01
EXPONENTS  0.2280000D+01 0.3446000D+02 0.7749000D+01 0.2280000D+01 0.7156000D+00
EXPONENTS  0.7156000D+00 0.7156000D+00 0.2140000D+00 0.2140000D+00 0.2140000D+00
EXPONENTS  0.5974000D-01 0.5974000D-01 0.5974000D-01 0.2314000D+01 0.2314000D+01
EXPONENTS  0.2314000D+01 0.2314000D+01 0.2314000D+01 0.2314000D+01 0.6450000D+00
EXPONENTS  0.6450000D+00 0.6450000D+00 0.6450000D+00 0.6450000D+00 0.6450000D+00
EXPONENTS  0.2140000D+00 0.2140000D+00 0.2140000D+00 0.2140000D+00 0.2140000D+00
EXPONENTS  0.2140000D+00 0.1428000D+01 0.1428000D+01 0.1428000D+01 0.1428000D+01
EXPONENTS  0.1428000D+01 0.1428000D+01 0.1428000D+01 0.1428000D+01 0.1428000D+01
EXPONENTS  0.1428000D+01 0.5000000D+00 0.5000000D+00 0.5000000D+00 0.5000000D+00
EXPONENTS  0.5000000D+00 0.5000000D+00 0.5000000D+00 0.5000000D+00 0.5000000D+00
EXPONENTS  0.5000000D+00 0.1950000D+05 0.2923000D+04 0.6645000D+03 0.1875000D+03
EXPONENTS  0.6062000D+02 0.2142000D+02 0.7950000D+01 0.8815000D+00 0.1950000D+05
EXPONENTS  0.2923000D+04 0.6645000D+03 0.1875000D+03 0.6062000D+02 0.2142000D+02
EXPONENTS  0.7950000D+01 0.8815000D+00 0.2257000D+01 0.3041000D+00 0.9158000D-01
EXPONENTS  0.4388000D+02 0.9926000D+01 0.2930000D+01 0.4388000D+02 0.9926000D+01
EXPONENTS  0.2930000D+01 0.4388000D+02 0.9926000D+01 0.2930000D+01 0.9132000D+00
EXPONENTS  0.9132000D+00 0.9132000D+00 0.2672000D+00 0.2672000D+00 0.2672000D+00
EXPONENTS  0.7361000D-01 0.7361000D-01 0.7361000D-01 0.3107000D+01 0.3107000D+01
EXPONENTS  0.3107000D+01 0.3107000D+01 0.3107000D+01 0.3107000D+01 0.8550000D+00
EXPONENTS  0.8550000D+00 0.8550000D+00 0.8550000D+00 0.8550000D+00 0.8550000D+00
EXPONENTS  0.2920000D+00 0.2920000D+00 0.2920000D+00 0.2920000D+00 0.2920000D+00
EXPONENTS  0.2920000D+00 0.1917000D+01 0.1917000D+01 0.1917000D+01 0.1917000D+01
EXPONENTS  0.1917000D+01 0.1917000D+01 0.1917000D+01 0.1917000D+01 0.1917000D+01
EXPONENTS  0.1917000D+01 0.7240000D+00 0.7240000D+00 0.7240000D+00 0.7240000D+00
EXPONENTS  0.7240000D+00 0.7240000D+00 0.7240000D+00 0.7240000D+00 0.7240000D+00
EXPONENTS  0.7240000D+00
MO    1     MO 0.0        OCC NO =    2.0000000  ORB. ENERGY =  -24.503876
  0.36180174D-04  0.67448071D-04  0.11399912D-03  0.17137802D-03  0.21055770D-03
  0.17784964D-03  0.67078340D-04 -0.33197445D-06 -0.26078598D-04 -0.48827364D-04
 -0.83132765D-04 -0.12859375D-03 -0.16935344D-03 -0.17596907D-03 -0.11182045D-03
  0.74939462D-04  0.90117547D-04 -0.17677521D-02 -0.34116276D-03 -0.11139593D-03
 -0.10444077D-03 -0.74368050D-04 -0.15413563D-04 -0.14451195D-04 -0.10290112D-04
 -0.20856131D-05 -0.19553948D-05 -0.13923576D-05  0.29123616D-03  0.13580212D-04
 -0.13302997D-04 -0.34691304D-03 -0.13539784D-03 -0.67012295D-04 -0.30034347D-04
 -0.68384157D-05 -0.24124126D-05 -0.35562846D-04  0.42356785D-04 -0.67939386D-05
 -0.46603249D-04 -0.29737196D-04  0.10825498D-03  0.15652543D-03 -0.58309876D-04
 -0.98215550D-04  0.25826558D-03  0.13077413D-03  0.49316202D-04 -0.66919707D-05
  0.38221441D-05  0.28698266D-05 -0.71360072D-05 -0.24246669D-05  0.26909629D-05
  0.15670720D-04 -0.66105301D-05 -0.14327246D-04 -0.60970733D-04  0.76363829D-05
  0.11746152D-04  0.13958572D-04  0.12195207D-04  0.31235585D-04 -0.17278704D-03
 -0.62648314D-05 -0.20848782D-04 -0.39663475D-04 -0.65650838D-06  0.63034817D-04
  0.47261060D-04  0.19451003D-04 -0.48847213D-06  0.71729366D-04 -0.90114354D-04
  0.21543723D-03  0.40162397D-03  0.67881527D-03  0.10204817D-02  0.12537797D-02
  0.10590174D-02  0.39942239D-03 -0.19767637D-05 -0.14745179D-03 -0.27607627D-03
 -0.47004347D-03 -0.72708578D-03 -0.95754640D-03 -0.99495204D-03 -0.63224736D-03
  0.42371748D-03 -0.41804241D-03  0.20444010D-02  0.56877060D-03  0.22574074D-04
  0.21164629D-04  0.15070477D-04 -0.48773183D-03 -0.45727959D-03 -0.32561031D-03
 -0.30568303D-03 -0.28659727D-03 -0.20407433D-03 -0.16208419D-03  0.16261439D-02
  0.10257656D-02 -0.38905575D-03 -0.62432140D-04 -0.16604152D-04 -0.23399043D-04
 -0.96851312D-05 -0.46037648D-05 -0.51128676D-03  0.50567677D-03  0.56099932D-05
 -0.21194237D-03 -0.10946733D-03  0.10543008D-02 -0.24004456D-03  0.28011976D-03
 -0.40075203D-04 -0.17115945D-03 -0.10933629D-03  0.67912474D-03  0.19940139D-04
 -0.35361353D-05 -0.16404004D-04  0.28451287D-04  0.12474782D-04  0.22995737D-04
  0.10895799D-03  0.36146271D-04 -0.18601808D-03 -0.24128958D-03 -0.26286199D-03
 -0.17836995D-03 -0.85584386D-04  0.15442318D-03  0.73642420D-03 -0.39125644D-03
 -0.16831138D-04  0.64211868D-06  0.27830046D-05  0.43795459D-04  0.35907406D-05
  0.20497112D-05  0.66979566D-05 -0.55170967D-05 -0.10398725D-04  0.78929946D-04
 -0.48519389D-05 -0.87506716D-05 -0.12902860D-04  0.51182978D-03  0.56337906D-04
 -0.22932877D-04 -0.28320173D-04 -0.70171313D-04  0.46723396D-04  0.25061676D-03
 -0.17570403D-04  0.71775150D-04  0.19408852D-04  0.23347089D-05 -0.18223946D-08
  0.38306326D-04 -0.13752275D-04 -0.24554051D-04 -0.25380889D-04  0.13337671D-03
 -0.54515690D-05  0.93398411D-05 -0.41036857D-05 -0.52361554D-05 -0.56653097D-05
  0.15826455D-04  0.87799897D-05 -0.50203803D-05 -0.90544626D-05 -0.13350800D-04
  0.52017160D-03  0.71262305D-04 -0.22462645D-04 -0.36673960D-04  0.92895906D-05
 -0.81146467D-04  0.23816226D-03  0.75030313D-04 -0.74754749D-04  0.19371998D-04
  0.29463306D-05 -0.20751902D-05  0.22773714D-04 -0.18770440D-04 -0.40032736D-05
  0.11513269D-03 -0.88665733D-04 -0.13217730D-04  0.68190408D-05 -0.68430042D-06
 -0.61347404D-05  0.14316459D-04 -0.14443415D-04  0.44705426D-05  0.46402301D-05
  0.83688461D-05  0.12339859D-04  0.39093780D-03  0.88715601D-04  0.11061522D-04
  0.33755947D-06  0.35009939D-04  0.21642429D-04  0.13798668D-03  0.10123782D-03
  0.55849444D-04  0.17289656D-04  0.11916484D-04  0.65275023D-05 -0.37021813D-05
  0.59340760D-05 -0.22318947D-05  0.10297669D-03  0.66886297D-04  0.10211032D-05
  0.93663531D-05 -0.60670768D-05 -0.32992763D-05  0.86733100D-05  0.45413851D-05
 -0.64510515D-05  0.43293236D-04  0.80693022D-04  0.13682863D-03  0.20709650D-03
  0.25839597D-03  0.22192768D-03  0.85202350D-04 -0.38111534D-06 -0.28501770D-04
 -0.53455776D-04 -0.91130379D-04 -0.14241904D-03 -0.19044140D-03 -0.20334701D-03
 -0.12432238D-03  0.82020353D-04 -0.38263954D-04 -0.10074938D-04 -0.11736647D-03
  0.14173501D-03  0.13743528D-03  0.92713030D-04 -0.33796571D-04 -0.32771306D-04
 -0.22107329D-04 -0.30958407D-04 -0.30019241D-04 -0.20250802D-04 -0.11721562D-03
  0.60107918D-04  0.45991913D-04  0.86462883D-05  0.14067024D-03  0.88919944D-04
  0.25261136D-05  0.14089021D-05  0.74143078D-06 -0.18117132D-03  0.17009630D-03
  0.11075024D-04  0.91436189D-05  0.17680583D-04  0.32151050D-03  0.11983165D-03
 -0.93753443D-04 -0.26078210D-04 -0.31771077D-05 -0.15523127D-04 -0.13612566D-03
  0.15606489D-05 -0.34442206D-05  0.18835718D-05 -0.86954960D-04 -0.54855216D-04
  0.18514521D-05  0.92120151D-05  0.54798714D-04 -0.22941559D-05 -0.62598568D-04
 -0.24392299D-03 -0.14407628D-03  0.34962522D-04  0.79526846D-04  0.15095875D-03
 -0.14080300D-03 -0.44794086D-04 -0.12876953D-04  0.84485986D-05  0.92400177D-04
  0.65789326D-04  0.50797520D-04  0.41982079D-04 -0.27158467D-04 -0.76143316D-04
  0.93175498D-04  0.59444515D+00  0.11080715D+01  0.18784536D+01  0.28445324D+01
  0.35570978D+01  0.30623298D+01  0.11772714D+01 -0.51013096D-02  0.13652155D-03
  0.25636330D-03  0.43654249D-03  0.68384122D-03  0.91642769D-03  0.98574154D-03
  0.59183793D-03 -0.38921752D-03  0.64317939D-01 -0.10281026D-02 -0.69351652D-03
  0.69180006D-03  0.67656535D-03  0.44703533D-03 -0.52125780D-02 -0.50977874D-02
 -0.33683237D-02 -0.33005094D-02 -0.32278261D-02 -0.21327612D-02 -0.12265605D-03
  0.94694757D-03  0.59939042D-03 -0.26136587D-03  0.11089493D-02  0.70940195D-03
 -0.79234234D-05  0.54756217D-04  0.34651737D-04 -0.13093242D-03  0.38219278D-03
 -0.25126037D-03 -0.19127444D-03 -0.18665653D-03  0.13343855D-02  0.38855560D-03
 -0.47155174D-03  0.82996136D-04  0.28534656D-03  0.18651672D-03 -0.11787535D-02
  0.13434059D-03 -0.16061002D-03  0.26269427D-04  0.15704226D-03  0.10069935D-03
 -0.40564987D-03 -0.86453685D-04 -0.70883476D-04  0.15630407D-03  0.27203441D-03
  0.41232709D-03  0.24855610D-03 -0.12673357D-04 -0.19967666D-03 -0.71746831D-03
  0.60094814D-03  0.77432863D-04  0.74630025D-04 -0.16028568D-03 -0.21382757D-03
 -0.41802351D-03 -0.26169643D-03 -0.18471023D-04  0.19413344D-03  0.74255348D-03
 -0.41610931D-03
MO    2     MO 0.0        OCC NO =    2.0000000  ORB. ENERGY =  -18.974996
  0.17810080D-03  0.33202039D-03  0.56117294D-03  0.84362675D-03  0.10364929D-02
  0.87548398D-03  0.33020035D-03 -0.16341799D-05 -0.12865179D-03 -0.24087674D-03
 -0.41011326D-03 -0.63438285D-03 -0.83545990D-03 -0.86809635D-03 -0.55163626D-03
  0.36969380D-03  0.17548951D-03 -0.19117377D-02  0.28090571D-03 -0.20788516D-03
 -0.19490555D-03 -0.13878436D-03 -0.78291825D-04 -0.73403562D-04 -0.52267709D-04
 -0.37827178D-04 -0.35465384D-04 -0.25253466D-04  0.13842998D-02  0.60605109D-03
  0.29673464D-03 -0.31701810D-03 -0.31960237D-03 -0.18476181D-03  0.19710711D-04
 -0.46995487D-05 -0.43902775D-05  0.47354122D-03 -0.18647014D-03 -0.28707108D-03
  0.21646722D-03  0.30950005D-04  0.17642014D-03  0.21419498D-03 -0.12401962D-03
 -0.90175356D-04  0.86753574D-03  0.52336089D-03 -0.18842316D-03 -0.43440949D-04
  0.46855490D-04 -0.34145410D-05  0.18356151D-04  0.13374623D-04  0.10257665D-03
  0.12506489D-03 -0.66301616D-04 -0.56943240D-04 -0.30027015D-03  0.21140279D-03
  0.12284813D-03 -0.74924515D-04 -0.12497944D-04  0.47981589D-04 -0.58456773D-03
 -0.31597509D-04 -0.61319614D-04 -0.18285037D-04 -0.98638359D-05  0.23335563D-03
  0.17975840D-03  0.10465636D-03 -0.49396792D-04 -0.12490329D-03 -0.32051651D-03
  0.54024544D-03  0.10071403D-02  0.17022446D-02  0.25590312D-02  0.31440655D-02
  0.26556659D-02  0.10016195D-02 -0.49570707D-05 -0.41601851D-03 -0.77891791D-03
 -0.13261744D-02 -0.20513901D-02 -0.27016086D-02 -0.28071444D-02 -0.17838143D-02
  0.11954708D-02  0.16280421D-02 -0.89298325D-03 -0.49020049D-03  0.10436313D-02
  0.97847069D-03  0.69672942D-03 -0.39000691D-03 -0.36565627D-03 -0.26036905D-03
 -0.30657297D-03 -0.28743164D-03 -0.20466845D-03  0.15455095D-02 -0.18006108D-03
 -0.20792260D-03 -0.11496483D-02 -0.36648366D-03 -0.15972168D-03  0.15561139D-04
  0.15046602D-04  0.85189539D-05  0.45668274D-03 -0.22492287D-03 -0.23175987D-03
 -0.38283241D-03 -0.32856996D-03  0.74217290D-04 -0.74100830D-03  0.31309544D-03
  0.42791286D-03  0.25366005D-03  0.31706515D-03 -0.28127482D-03 -0.91863025D-04
  0.50209651D-04  0.41653374D-04  0.20746141D-03  0.14760498D-03 -0.13322902D-04
 -0.38064743D-03 -0.31684272D-03 -0.18153952D-03  0.72292952D-03  0.13064121D-02
  0.94021798D-03  0.41901278D-03 -0.35588392D-03 -0.39559942D-03  0.17466158D-03
 -0.17235257D-03 -0.14577505D-03 -0.37043612D-04  0.33019962D-03  0.62466574D-03
  0.44391552D-03  0.18685809D-03 -0.18734058D-03 -0.33278468D-03  0.11925155D-03
  0.12193272D-05  0.21991067D-05  0.32425816D-05  0.72780526D-03  0.45115227D-03
  0.17804578D-04 -0.30921624D-04 -0.74523397D-04  0.84028330D-04  0.22521837D-03
 -0.24208875D-03  0.11058330D-03  0.36972876D-04 -0.42557722D-04  0.37589752D-04
 -0.11167478D-03  0.10410657D-03  0.75682106D-05 -0.11874104D-03  0.14205247D-03
 -0.83736830D-04 -0.22344503D-04  0.17129077D-04  0.52154266D-05 -0.18707115D-04
  0.79402042D-04  0.10677193D-04  0.82445318D-06  0.14869353D-05  0.21924852D-05
  0.73642564D-03  0.45219569D-03  0.17956343D-04 -0.46272289D-04  0.43169095D-04
 -0.10174548D-03  0.18931495D-03  0.23607874D-05 -0.29221036D-03  0.29137516D-04
  0.18090966D-04 -0.57813414D-04 -0.13191779D-03 -0.65300997D-05  0.13844789D-03
  0.57207489D-04 -0.11501213D-03  0.47206269D-05 -0.29511499D-04  0.13961468D-04
  0.15550030D-04  0.59559972D-04 -0.42087131D-04  0.76688118D-05 -0.21580691D-04
 -0.38921665D-04 -0.57389972D-04  0.60827290D-03 -0.94901229D-03 -0.19576794D-04
  0.10419629D-04  0.45070099D-04  0.31051770D-04  0.62875456D-03  0.60740200D-03
  0.33725846D-03  0.96785538D-04 -0.35855679D-04 -0.30763109D-04 -0.94542676D-04
  0.14451509D-03 -0.49972409D-04  0.52307893D-03  0.33029275D-03  0.32983034D-03
 -0.36633642D-04  0.36822632D-04 -0.18899051D-06  0.46308032D-04  0.32733302D-04
  0.71700176D-04  0.49794734D+00  0.92810977D+00  0.15737666D+01  0.23819691D+01
  0.29720020D+01  0.25525534D+01  0.97997487D+00 -0.43834877D-02 -0.56356370D-03
 -0.10569777D-02 -0.18019152D-02 -0.28160428D-02 -0.37655858D-02 -0.40207677D-02
 -0.24582185D-02  0.16217833D-02  0.53686940D-01  0.17064359D-02  0.58930493D-03
 -0.75101410D-02 -0.72823105D-02 -0.49126036D-02  0.23873293D-02  0.23149064D-02
  0.15616222D-02  0.19549712D-02  0.18956644D-02  0.12788040D-02 -0.40710612D-03
  0.22451147D-03  0.16620164D-03  0.13525168D-02 -0.16076357D-03 -0.18499714D-03
 -0.99224580D-05 -0.69665239D-05 -0.39317838D-05  0.27866553D-02 -0.75568437D-03
 -0.20309710D-02 -0.14932469D-02 -0.16440521D-02  0.28624894D-02 -0.76463586D-03
  0.24592572D-03  0.51871014D-03  0.38707722D-03  0.42636083D-03 -0.62847502D-03
 -0.35727941D-03  0.14267196D-03  0.21460745D-03  0.18168999D-03  0.19218625D-03
 -0.17848577D-03 -0.23317653D-03 -0.75609018D-04 -0.10318749D-03  0.24620308D-03
  0.25720219D-03  0.28473122D-03  0.45332651D-03 -0.30375134D-04  0.24831236D-04
 -0.56969189D-03  0.21412932D-03  0.69599434D-04  0.11059547D-03 -0.20971440D-03
 -0.22605189D-03 -0.26060464D-03 -0.43267358D-03  0.17253589D-04 -0.71181762D-04
  0.59229837D-03  0.13614410D-03  0.25377851D-03  0.43021696D-03  0.65147527D-03
  0.81467211D-03  0.70135680D-03  0.26962716D-03 -0.11683386D-05 -0.89246940D-04
 -0.16758995D-03 -0.28537678D-03 -0.44704103D-03 -0.59908757D-03 -0.64439946D-03
 -0.38689659D-03  0.25443948D-03 -0.16041758D-03  0.13940759D-02  0.20551509D-03
 -0.94741220D-04 -0.92654844D-04 -0.61220973D-04  0.60323404D-03  0.58994971D-03
  0.38980472D-03  0.38295501D-03  0.37452163D-03  0.24746228D-03  0.16849758D-03
 -0.68461288D-03 -0.43850601D-03 -0.15205344D-03 -0.37580586D-03 -0.22254739D-03
 -0.55035576D-04 -0.14965454D-04 -0.58394445D-05  0.60478139D-03 -0.29616329D-03
 -0.30861809D-03 -0.60821405D-03 -0.50025029D-03  0.12669381D-03 -0.37054889D-03
  0.27056958D-03  0.99979312D-04  0.17623672D-03  0.15673847D-03  0.31816611D-03
 -0.90325193D-04  0.45036729D-04  0.45288464D-04  0.94765119D-04  0.77072036D-04
 -0.17239782D-04 -0.21900905D-03  0.28733467D-03  0.44345566D-03  0.38566207D-03
 -0.98207018D-03 -0.57956201D-03  0.27136508D-03  0.12006617D-03 -0.75080497D-03
  0.79673644D-03  0.71130561D-04 -0.15815921D-03 -0.13587771D-03 -0.13108794D-03
  0.59545277D-03  0.36586151D-03 -0.82303745D-04 -0.12097512D-03  0.41771621D-04
 -0.34325772D-03
MO    3     MO 0.0        OCC NO =    2.0000000  ORB. ENERGY =  -10.203069
  0.37034683D-03  0.69041070D-03  0.11669157D-02  0.17542565D-02  0.21553069D-02
  0.18205012D-02  0.68662607D-03 -0.33981507D-05 -0.11137334D-03 -0.20852603D-03
 -0.35503340D-03 -0.54918269D-03 -0.72325428D-03 -0.75150753D-03 -0.47754930D-03
  0.32004243D-03  0.88271308D-03 -0.51854186D-02 -0.12537682D-03  0.83410088D-03
  0.78202259D-03  0.55684667D-03  0.40305673D-03  0.37789131D-03  0.26908112D-03
  0.20100188D-03  0.18845204D-03  0.13418908D-03  0.52836021D-03  0.50518363D-03
  0.27773249D-03 -0.16676743D-02 -0.15338463D-02 -0.87215183D-03  0.10989387D-04
 -0.42800565D-04 -0.27875220D-04  0.43897217D-03 -0.17795929D-03 -0.26101288D-03
  0.38156812D-03  0.14350546D-03  0.99490529D-04 -0.10014772D-02  0.24486169D-03
  0.75661551D-03 -0.13850593D-02 -0.59705438D-03 -0.87779948D-03 -0.15315923D-03
  0.13725361D-03  0.15905624D-04 -0.10931127D-03 -0.55693739D-04  0.26960074D-03
 -0.34022268D-03  0.45519200D-03  0.22455317D-03  0.23420396D-03 -0.18667755D-02
 -0.99761524D-03  0.78646408D-03  0.50119949D-03  0.32395574D-03 -0.50185732D-03
 -0.11320932D-03  0.59508128D-04  0.25034760D-03 -0.17890320D-04 -0.14550887D-03
 -0.98840486D-05  0.35751828D-03 -0.33015513D-04 -0.74115875D-03 -0.52533563D-03
  0.33069839D+00  0.61649698D+00  0.10419885D+01  0.15664500D+01  0.19245649D+01
  0.16256027D+01  0.61311752D+00 -0.30343528D-02 -0.35505050D-02 -0.66476656D-02
 -0.11318220D-01 -0.17507565D-01 -0.23056847D-01 -0.23957541D-01 -0.15223942D-01
  0.10202732D-01  0.33100339D-01  0.55192634D-02 -0.49945215D-04  0.98417657D-03
  0.92272809D-03  0.65703737D-03  0.24283734D-02  0.22767544D-02  0.16211848D-02
  0.14554927D-02  0.13646169D-02  0.97168853D-03  0.37080339D-02 -0.22895016D-02
 -0.16576525D-02 -0.35103206D-02 -0.17304312D-02 -0.86651595D-03 -0.10092547D-04
  0.14163041D-04  0.97373180D-05  0.41448332D-02 -0.98353518D-03 -0.31612980D-02
 -0.25178460D-02 -0.26729245D-02  0.48845312D-02  0.34212930D-03 -0.26227097D-03
 -0.79858336D-04 -0.93414867D-03 -0.62141743D-03 -0.23540178D-03 -0.12625736D-03
  0.69471685D-04  0.56785674D-04  0.49294103D-03  0.33474057D-03 -0.45082815D-04
  0.79701716D-03  0.88061776D-03  0.34251690D-03 -0.13171667D-02 -0.36300514D-02
 -0.25899997D-02 -0.10738847D-02  0.98819810D-03  0.15624490D-02  0.59569710D-03
 -0.23657752D-03 -0.23988448D-03 -0.55252262D-05  0.31192236D-03  0.10153549D-02
  0.75085077D-03  0.39781021D-03 -0.29570142D-03 -0.73427509D-03 -0.42886929D-03
 -0.36046606D-04 -0.65011538D-04 -0.95859475D-04 -0.20776424D-05  0.63015031D-03
  0.40216347D-04  0.13217120D-03  0.13445630D-03  0.25853841D-03 -0.10067427D-02
 -0.10793131D-02 -0.32061230D-03 -0.82941349D-04 -0.12303049D-03 -0.46099304D-04
 -0.63371953D-03  0.53416773D-03  0.99551799D-04 -0.25553992D-03 -0.32621621D-03
 -0.45871908D-03 -0.20812994D-03  0.14517456D-03  0.62955375D-04 -0.10809928D-03
 -0.93599547D-04  0.63166623D-04 -0.38207797D-04 -0.68909335D-04 -0.10160677D-03
  0.38121056D-04  0.65570273D-03  0.40137887D-04  0.10949082D-03  0.28814363D-03
  0.22570823D-05 -0.10383880D-02 -0.79214880D-03 -0.75865844D-03 -0.87592442D-04
 -0.94655735D-04 -0.87561790D-04 -0.60111745D-03 -0.29954159D-04  0.63107161D-03
 -0.46433421D-03  0.15003676D-03  0.78380104D-04 -0.20016067D-03  0.91598182D-04
  0.10856249D-03 -0.15454935D-03 -0.55158400D-05  0.11286889D-03 -0.52538470D-04
 -0.94755294D-04 -0.13971663D-03 -0.47231753D-03 -0.34894434D-02 -0.87004515D-04
 -0.52311717D-04  0.18453477D-04  0.20271111D-04 -0.54126214D-03  0.44703763D-03
  0.32326319D-03  0.83332610D-04 -0.30423425D-03 -0.20371839D-03 -0.41785380D-04
  0.79891614D-04 -0.38106234D-04 -0.94903440D-03 -0.62143079D-03  0.42702934D-03
 -0.16909748D-03  0.77527727D-04  0.91569754D-04 -0.22369792D-03 -0.10413652D-03
  0.25909359D-05  0.39246952D-03  0.73151268D-03  0.12404031D-02  0.18774079D-02
  0.23424569D-02  0.20118581D-02  0.77239144D-03 -0.34549543D-05 -0.36193405D-03
 -0.67881628D-03 -0.11572329D-02 -0.18085298D-02 -0.24183490D-02 -0.25822329D-02
 -0.15787266D-02  0.10415479D-02  0.10762560D-02 -0.16791150D-02  0.59675352D-03
 -0.27815549D-02 -0.26971726D-02 -0.18194967D-02  0.91088875D-03  0.88325568D-03
  0.59583906D-03  0.74382784D-03  0.72126279D-03  0.48655962D-03  0.36031642D-02
 -0.12508019D-02 -0.10078602D-02  0.44858022D-02 -0.69374742D-03 -0.71598668D-03
  0.26308354D-04 -0.36320258D-04 -0.24984475D-04  0.72112442D-03 -0.37426875D-03
 -0.34685566D-03  0.73930740D-04 -0.85116233D-04 -0.43867491D-04 -0.27961745D-02
  0.13655691D-02  0.14306054D-02  0.22339950D-02  0.19482471D-02 -0.49201190D-03
 -0.89497163D-03  0.41046517D-03  0.48450645D-03  0.49767509D-03  0.49387239D-03
 -0.23443435D-03  0.22918589D-03  0.26174402D-03  0.24204924D-03 -0.55792290D-03
 -0.10502962D-02 -0.71188686D-03 -0.12963478D-03  0.26506416D-03 -0.14260855D-04
 -0.45378583D-03  0.48974349D-03  0.19239269D-03  0.12523688D-03 -0.65628847D-03
 -0.75800300D-03 -0.69349523D-03 -0.81294198D-03  0.18082494D-03  0.31778458D-03
  0.59471574D-03  0.35259435D-03  0.65725114D-03  0.11142023D-02  0.16872306D-02
  0.21098878D-02  0.18164169D-02  0.69829695D-03 -0.30258350D-05 -0.27071825D-03
 -0.50836093D-03 -0.86565098D-03 -0.13560371D-02 -0.18172493D-02 -0.19546966D-02
 -0.11735973D-02  0.77180696D-03  0.24783502D-03  0.17059487D-02  0.25105891D-03
  0.23746214D-03  0.23223279D-03  0.15344602D-03 -0.63026800D-03 -0.61638834D-03
 -0.40727384D-03 -0.40696104D-03 -0.39799901D-03 -0.26297477D-03 -0.69536065D-04
 -0.55384762D-03 -0.34341135D-03  0.10409407D-02  0.42783022D-03  0.20600685D-03
 -0.11050075D-03 -0.51507304D-05  0.31994818D-05 -0.10952458D-02  0.13520346D-02
 -0.25678882D-03 -0.10415943D-02 -0.68071640D-03  0.34486895D-02  0.51840775D-03
 -0.66561148D-03  0.14720373D-03  0.59307378D-03  0.39334559D-03 -0.17506153D-02
  0.20530545D-03 -0.26330462D-03  0.57999168D-04 -0.48896172D-03 -0.30161093D-03
 -0.59317765D-03  0.75000107D-04 -0.14874902D-03  0.39542005D-03 -0.26242359D-03
  0.78613317D-03  0.48912700D-03  0.37423271D-04 -0.33988612D-03 -0.16753871D-02
 -0.54073805D-03  0.16928602D-03  0.22282815D-03 -0.45527603D-03 -0.40046038D-03
 -0.12010221D-02 -0.76598314D-03 -0.10739768D-03  0.53253762D-03  0.21318112D-02
 -0.63505684D-03
MO    4     MO 0.0        OCC NO =    2.0000000  ORB. ENERGY =  -10.070162
  0.33110660D+00  0.61725798D+00  0.10432747D+01  0.15683836D+01  0.19269405D+01
  0.16276093D+01  0.61387435D+00 -0.30380984D-02 -0.38852885D-02 -0.72744859D-02
 -0.12385435D-01 -0.19158384D-01 -0.25230918D-01 -0.26216540D-01 -0.16659434D-01
  0.11164765D-01  0.32944216D-01 -0.60402476D-02 -0.24591652D-03  0.25405441D-03
  0.23819216D-03  0.16960701D-03  0.16977810D-03  0.15917776D-03  0.11334405D-03
  0.97462958D-04  0.91377718D-04  0.65066379D-04  0.24364955D-03  0.36505298D-03
  0.22045146D-03 -0.11184649D-02  0.19268937D-03  0.18514967D-03 -0.23839321D-04
 -0.57555226D-05 -0.23929989D-05 -0.41178818D-03  0.25815922D-03  0.15362896D-03
 -0.13713062D-02 -0.80084809D-03  0.42220256D-03  0.83235433D-04 -0.13449272D-03
  0.51257289D-04  0.81108263D-03  0.51194909D-03 -0.51552299D-03 -0.91308254D-04
  0.33553603D-04  0.57754651D-04  0.38516695D-04  0.50866538D-04 -0.63875224D-04
  0.67680906D-03 -0.33175417D-03  0.83051270D-03 -0.16919274D-04  0.21511133D-02
  0.74128967D-03 -0.20135079D-02 -0.11558508D-02 -0.32328278D-02  0.43817457D-02
 -0.13702523D-03 -0.13667804D-04 -0.26765837D-03 -0.79879236D-04 -0.17201425D-03