 Molden2AIM, Version 4.0.0 (06/02/2016)           Time: Sat Jun 30 03:11:47 2018
GAUSSIAN             12 MOL ORBITALS    306 PRIMITIVES        6 NUCLEI
  C    1    (CENTRE  1)  -0.00000189  0.03286045  1.33543166  CHARGE =  6.0
  C    2    (CENTRE  2)  -0.00000756  0.10903153 -1.16721769  CHARGE =  6.0
  H    3    (CENTRE  3)   0.00000378  1.80200126  2.38227568  CHARGE =  1.0
  H    4    (CENTRE  4)   0.00000000 -1.74889806  2.36391699  CHARGE =  1.0
  H    5    (CENTRE  5)   0.00000189  1.81116643 -2.32975641  CHARGE =  1.0
  F    6    (CENTRE  6)   0.00000378 -2.00616160 -2.58465023  CHARGE =  9.0
CENTRE ASSIGNMENTS    1  1  1  1  1  1  1  1  1  1  1  1  1  1  1  1  1  1  1  1
CENTRE ASSIGNMENTS    1  1  1  1  1  1  1  1  1  1  1  1  1  1  1  1  1  1  1  1
CENTRE ASSIGNMENTS    1  1  1  1  1  1  1  1  1  1  1  1  1  1  1  1  1  1  1  1
CENTRE ASSIGNMENTS    1  1  1  1  1  1  1  1  1  1  1  1  1  1  1  2  2  2  2  2
CENTRE ASSIGNMENTS    2  2  2  2  2  2  2  2  2  2  2  2  2  2  2  2  2  2  2  2
CENTRE ASSIGNMENTS    2  2  2  2  2  2  2  2  2  2  2  2  2  2  2  2  2  2  2  2
CENTRE ASSIGNMENTS    2  2  2  2  2  2  2  2  2  2  2  2  2  2  2  2  2  2  2  2
CENTRE ASSIGNMENTS    2  2  2  2  2  2  2  2  2  2  3  3  3  3  3  3  3  3  3  3
CENTRE ASSIGNMENTS    3  3  3  3  3  3  3  3  3  3  3  3  3  3  3  3  3  4  4  4
CENTRE ASSIGNMENTS    4  4  4  4  4  4  4  4  4  4  4  4  4  4  4  4  4  4  4  4
CENTRE ASSIGNMENTS    4  4  4  4  5  5  5  5  5  5  5  5  5  5  5  5  5  5  5  5
CENTRE ASSIGNMENTS    5  5  5  5  5  5  5  5  5  5  5  6  6  6  6  6  6  6  6  6
CENTRE ASSIGNMENTS    6  6  6  6  6  6  6  6  6  6  6  6  6  6  6  6  6  6  6  6
CENTRE ASSIGNMENTS    6  6  6  6  6  6  6  6  6  6  6  6  6  6  6  6  6  6  6  6
CENTRE ASSIGNMENTS    6  6  6  6  6  6  6  6  6  6  6  6  6  6  6  6  6  6  6  6
CENTRE ASSIGNMENTS    6  6  6  6  6  6
TYPE ASSIGNMENTS      1  1  1  1  1  1  1  1  1  1  1  1  1  1  1  1  1  1  1  2
TYPE ASSIGNMENTS      2  2  3  3  3  4  4  4  2  3  4  2  3  4  2  3  4  5  6  7
TYPE ASSIGNMENTS      8  9 10  5  6  7  8  9 10  5  6  7  8  9 10 11 12 13 17 14
TYPE ASSIGNMENTS     15 18 19 16 20 11 12 13 17 14 15 18 19 16 20  1  1  1  1  1
TYPE ASSIGNMENTS      1  1  1  1  1  1  1  1  1  1  1  1  1  1  2  2  2  3  3  3
TYPE ASSIGNMENTS      4  4  4  2  3  4  2  3  4  2  3  4  5  6  7  8  9 10  5  6
TYPE ASSIGNMENTS      7  8  9 10  5  6  7  8  9 10 11 12 13 17 14 15 18 19 16 20
TYPE ASSIGNMENTS     11 12 13 17 14 15 18 19 16 20  1  1  1  1  1  1  2  3  4  2
TYPE ASSIGNMENTS      3  4  2  3  4  5  6  7  8  9 10  5  6  7  8  9 10  1  1  1
TYPE ASSIGNMENTS      1  1  1  2  3  4  2  3  4  2  3  4  5  6  7  8  9 10  5  6
TYPE ASSIGNMENTS      7  8  9 10  1  1  1  1  1  1  2  3  4  2  3  4  2  3  4  5
TYPE ASSIGNMENTS      6  7  8  9 10  5  6  7  8  9 10  1  1  1  1  1  1  1  1  1
TYPE ASSIGNMENTS      1  1  1  1  1  1  1  1  1  1  2  2  2  3  3  3  4  4  4  2
TYPE ASSIGNMENTS      3  4  2  3  4  2  3  4  5  6  7  8  9 10  5  6  7  8  9 10
TYPE ASSIGNMENTS      5  6  7  8  9 10 11 12 13 17 14 15 18 19 16 20 11 12 13 17
TYPE ASSIGNMENTS     14 15 18 19 16 20
EXPONENTS  0.8236000D+04 0.1235000D+04 0.2808000D+03 0.7927000D+02 0.2559000D+02
EXPONENTS  0.8997000D+01 0.3319000D+01 0.3643000D+00 0.8236000D+04 0.1235000D+04
EXPONENTS  0.2808000D+03 0.7927000D+02 0.2559000D+02 0.8997000D+01 0.3319000D+01
EXPONENTS  0.3643000D+00 0.9059000D+00 0.1285000D+00 0.4402000D-01 0.1871000D+02
EXPONENTS  0.4133000D+01 0.1200000D+01 0.1871000D+02 0.4133000D+01 0.1200000D+01
EXPONENTS  0.1871000D+02 0.4133000D+01 0.1200000D+01 0.3827000D+00 0.3827000D+00
EXPONENTS  0.3827000D+00 0.1209000D+00 0.1209000D+00 0.1209000D+00 0.3569000D-01
EXPONENTS  0.3569000D-01 0.3569000D-01 0.1097000D+01 0.1097000D+01 0.1097000D+01
EXPONENTS  0.1097000D+01 0.1097000D+01 0.1097000D+01 0.3180000D+00 0.3180000D+00
EXPONENTS  0.3180000D+00 0.3180000D+00 0.3180000D+00 0.3180000D+00 0.1000000D+00
EXPONENTS  0.1000000D+00 0.1000000D+00 0.1000000D+00 0.1000000D+00 0.1000000D+00
EXPONENTS  0.7610000D+00 0.7610000D+00 0.7610000D+00 0.7610000D+00 0.7610000D+00
EXPONENTS  0.7610000D+00 0.7610000D+00 0.7610000D+00 0.7610000D+00 0.7610000D+00
EXPONENTS  0.2680000D+00 0.2680000D+00 0.2680000D+00 0.2680000D+00 0.2680000D+00
EXPONENTS  0.2680000D+00 0.2680000D+00 0.2680000D+00 0.2680000D+00 0.2680000D+00
EXPONENTS  0.8236000D+04 0.1235000D+04 0.2808000D+03 0.7927000D+02 0.2559000D+02
EXPONENTS  0.8997000D+01 0.3319000D+01 0.3643000D+00 0.8236000D+04 0.1235000D+04
EXPONENTS  0.2808000D+03 0.7927000D+02 0.2559000D+02 0.8997000D+01 0.3319000D+01
EXPONENTS  0.3643000D+00 0.9059000D+00 0.1285000D+00 0.4402000D-01 0.1871000D+02
EXPONENTS  0.4133000D+01 0.1200000D+01 0.1871000D+02 0.4133000D+01 0.1200000D+01
EXPONENTS  0.1871000D+02 0.4133000D+01 0.1200000D+01 0.3827000D+00 0.3827000D+00
EXPONENTS  0.3827000D+00 0.1209000D+00 0.1209000D+00 0.1209000D+00 0.3569000D-01
EXPONENTS  0.3569000D-01 0.3569000D-01 0.1097000D+01 0.1097000D+01 0.1097000D+01
EXPONENTS  0.1097000D+01 0.1097000D+01 0.1097000D+01 0.3180000D+00 0.3180000D+00
EXPONENTS  0.3180000D+00 0.3180000D+00 0.3180000D+00 0.3180000D+00 0.1000000D+00
EXPONENTS  0.1000000D+00 0.1000000D+00 0.1000000D+00 0.1000000D+00 0.1000000D+00
EXPONENTS  0.7610000D+00 0.7610000D+00 0.7610000D+00 0.7610000D+00 0.7610000D+00
EXPONENTS  0.7610000D+00 0.7610000D+00 0.7610000D+00 0.7610000D+00 0.7610000D+00
EXPONENTS  0.2680000D+00 0.2680000D+00 0.2680000D+00 0.2680000D+00 0.2680000D+00
EXPONENTS  0.2680000D+00 0.2680000D+00 0.2680000D+00 0.2680000D+00 0.2680000D+00
EXPONENTS  0.3387000D+02 0.5095000D+01 0.1159000D+01 0.3258000D+00 0.1027000D+00
EXPONENTS  0.2526000D-01 0.1407000D+01 0.1407000D+01 0.1407000D+01 0.3880000D+00
EXPONENTS  0.3880000D+00 0.3880000D+00 0.1020000D+00 0.1020000D+00 0.1020000D+00
EXPONENTS  0.1057000D+01 0.1057000D+01 0.1057000D+01 0.1057000D+01 0.1057000D+01
EXPONENTS  0.1057000D+01 0.2470000D+00 0.2470000D+00 0.2470000D+00 0.2470000D+00
EXPONENTS  0.2470000D+00 0.2470000D+00 0.3387000D+02 0.5095000D+01 0.1159000D+01
EXPONENTS  0.3258000D+00 0.1027000D+00 0.2526000D-01 0.1407000D+01 0.1407000D+01
EXPONENTS  0.1407000D+01 0.3880000D+00 0.3880000D+00 0.3880000D+00 0.1020000D+00
EXPONENTS  0.1020000D+00 0.1020000D+00 0.1057000D+01 0.1057000D+01 0.1057000D+01
EXPONENTS  0.1057000D+01 0.1057000D+01 0.1057000D+01 0.2470000D+00 0.2470000D+00
EXPONENTS  0.2470000D+00 0.2470000D+00 0.2470000D+00 0.2470000D+00 0.3387000D+02
EXPONENTS  0.5095000D+01 0.1159000D+01 0.3258000D+00 0.1027000D+00 0.2526000D-01
EXPONENTS  0.1407000D+01 0.1407000D+01 0.1407000D+01 0.3880000D+00 0.3880000D+00
EXPONENTS  0.3880000D+00 0.1020000D+00 0.1020000D+00 0.1020000D+00 0.1057000D+01
EXPONENTS  0.1057000D+01 0.1057000D+01 0.1057000D+01 0.1057000D+01 0.1057000D+01
EXPONENTS  0.2470000D+00 0.2470000D+00 0.2470000D+00 0.2470000D+00 0.2470000D+00
EXPONENTS  0.2470000D+00 0.1950000D+05 0.2923000D+04 0.6645000D+03 0.1875000D+03
EXPONENTS  0.6062000D+02 0.2142000D+02 0.7950000D+01 0.8815000D+00 0.1950000D+05
EXPONENTS  0.2923000D+04 0.6645000D+03 0.1875000D+03 0.6062000D+02 0.2142000D+02
EXPONENTS  0.7950000D+01 0.8815000D+00 0.2257000D+01 0.3041000D+00 0.9158000D-01
EXPONENTS  0.4388000D+02 0.9926000D+01 0.2930000D+01 0.4388000D+02 0.9926000D+01
EXPONENTS  0.2930000D+01 0.4388000D+02 0.9926000D+01 0.2930000D+01 0.9132000D+00
EXPONENTS  0.9132000D+00 0.9132000D+00 0.2672000D+00 0.2672000D+00 0.2672000D+00
EXPONENTS  0.7361000D-01 0.7361000D-01 0.7361000D-01 0.3107000D+01 0.3107000D+01
EXPONENTS  0.3107000D+01 0.3107000D+01 0.3107000D+01 0.3107000D+01 0.8550000D+00
EXPONENTS  0.8550000D+00 0.8550000D+00 0.8550000D+00 0.8550000D+00 0.8550000D+00
EXPONENTS  0.2920000D+00 0.2920000D+00 0.2920000D+00 0.2920000D+00 0.2920000D+00
EXPONENTS  0.2920000D+00 0.1917000D+01 0.1917000D+01 0.1917000D+01 0.1917000D+01
EXPONENTS  0.1917000D+01 0.1917000D+01 0.1917000D+01 0.1917000D+01 0.1917000D+01
EXPONENTS  0.1917000D+01 0.7240000D+00 0.7240000D+00 0.7240000D+00 0.7240000D+00
EXPONENTS  0.7240000D+00 0.7240000D+00 0.7240000D+00 0.7240000D+00 0.7240000D+00
EXPONENTS  0.7240000D+00
MO    1     MO 0.0        OCC NO =    2.0000000  ORB. ENERGY =  -24.493531
  0.42028284D-05  0.78350277D-05  0.13242577D-04  0.19907931D-04  0.24459193D-04
  0.20659699D-04  0.77920783D-05 -0.38563430D-07 -0.49874008D-07 -0.93379879D-07
 -0.15898723D-06 -0.24592908D-06 -0.32387994D-06 -0.33653201D-06 -0.21385098D-06
  0.14331796D-06 -0.38313575D-04 -0.11670778D-02 -0.19948861D-03 -0.35680306D-09
 -0.33452555D-09 -0.23820212D-09 -0.47070433D-04 -0.44131523D-04 -0.31424274D-04
  0.18348437D-03  0.17202826D-03  0.12249437D-03 -0.48971236D-09  0.27054668D-03
 -0.95349769D-03  0.32629550D-08 -0.11228418D-03  0.81541475D-03  0.38387029D-10
 -0.77302599D-05  0.32697693D-04  0.50133327D-04 -0.69809487D-04  0.19676160D-04
 -0.26321816D-08  0.24111852D-08  0.49751613D-04  0.26595847D-04 -0.40260458D-03
  0.37600873D-03  0.40965377D-08 -0.59694072D-09  0.79477585D-03 -0.15155858D-04
  0.50510167D-04 -0.35354309D-04 -0.76429755D-09 -0.31611980D-09 -0.26666272D-04
  0.11894410D-08  0.24370152D-04  0.49643151D-04 -0.18456170D-08 -0.16678743D-03
  0.11011663D-03 -0.17227059D-08  0.93676974D-04 -0.25904609D-03  0.73045368D-09
 -0.21166053D-09  0.25031257D-04 -0.92700828D-04  0.58097956D-09 -0.15356358D-04
 -0.57673258D-04  0.54002033D-10 -0.59737414D-04  0.33577574D-03 -0.56925379D-10
  0.17870847D-03  0.33315322D-03  0.56308763D-03  0.84650516D-03  0.10400294D-02
  0.87847108D-03  0.33132697D-03 -0.16397557D-05 -0.12543778D-03 -0.23485911D-03
 -0.39986772D-03 -0.61853457D-03 -0.81458827D-03 -0.84640939D-03 -0.53785517D-03
  0.36045803D-03 -0.42052620D-03  0.23145359D-02  0.42239616D-03 -0.35921260D-08
 -0.33678465D-08 -0.23981073D-08  0.49838094D-03  0.46726381D-03  0.33271967D-03
  0.41226125D-03  0.38652112D-03  0.27522607D-03  0.86381793D-08 -0.15731763D-02
 -0.19089161D-02  0.19848162D-08 -0.30849914D-03  0.78507434D-03  0.10976999D-09
 -0.10547532D-04  0.22688930D-04 -0.42446921D-03  0.52173341D-03 -0.97264202D-04
 -0.10218305D-07 -0.10375364D-07  0.12146945D-02 -0.27288027D-03  0.52107540D-03
 -0.24819513D-03 -0.63199984D-08 -0.58094488D-08  0.12230605D-02 -0.63745493D-05
 -0.49273006D-04  0.55647555D-04  0.49885603D-09 -0.46089987D-10 -0.60566161D-04
 -0.31524207D-08 -0.75906039D-04  0.13803512D-03  0.67022584D-08  0.51395654D-03
  0.45993423D-03  0.27550038D-08 -0.28623842D-03 -0.87403957D-03  0.11572465D-07
 -0.28378502D-09 -0.98121958D-04 -0.43850714D-04  0.18986808D-08  0.27882312D-04
 -0.94348486D-04 -0.10473258D-08  0.26648356D-03  0.22590063D-03  0.11854872D-08
 -0.67704495D-05 -0.12210784D-04 -0.18004795D-04 -0.68355025D-03 -0.13411249D-03
 -0.79103279D-05 -0.31448369D-09  0.12590880D-05 -0.54264807D-05  0.55382777D-09
  0.13817751D-03 -0.18292506D-03  0.65870612D-09 -0.10272964D-04 -0.44156333D-05
 -0.63346422D-04 -0.27852871D-04  0.91199293D-04 -0.72193439D-09  0.12479146D-08
  0.89803716D-04 -0.21801066D-04 -0.61065989D-05  0.27907664D-04  0.49701243D-10
  0.39729434D-09  0.48321508D-05 -0.12865005D-04 -0.23202566D-04 -0.34212170D-04
  0.56071466D-03 -0.76936633D-03 -0.46836488D-04  0.46976895D-09  0.10357746D-03
  0.58613127D-04 -0.35791450D-10  0.55515455D-03 -0.61603739D-03 -0.51661004D-09
 -0.41067036D-04  0.39668902D-04 -0.18608372D-03  0.12969879D-03  0.56384928D-04
  0.12101201D-08 -0.18258661D-09 -0.33612374D-03 -0.50150218D-04  0.33259055D-04
  0.16891163D-04  0.11849690D-09 -0.64367189D-10 -0.65749119D-04  0.15880950D-04
  0.28641948D-04  0.42232536D-04  0.47846580D-03  0.24474994D-03  0.20179303D-04
  0.18122512D-08 -0.17364283D-04 -0.56144262D-04 -0.45836192D-08  0.73000255D-04
  0.13228901D-03 -0.11919864D-08 -0.52794544D-05  0.79433381D-04  0.10906275D-03
 -0.10498823D-03 -0.40745181D-05  0.11253259D-08 -0.12501659D-08 -0.37432259D-04
  0.68820063D-05  0.36656875D-05 -0.10547694D-04 -0.59226649D-09 -0.13837247D-08
 -0.76133854D-05  0.59449182D+00  0.11081585D+01  0.18786011D+01  0.28447557D+01
  0.35573770D+01  0.30625702D+01  0.11773638D+01 -0.51017101D-02  0.10480374D-03
  0.19680286D-03  0.33512133D-03  0.52496557D-03  0.70351563D-03  0.75672591D-03
  0.45433724D-03 -0.29879129D-03  0.64349303D-01 -0.11170276D-02 -0.43144006D-03
 -0.37285785D-07 -0.36464683D-07 -0.24093758D-07  0.58181688D-02  0.56900420D-02
  0.37596513D-02  0.40137191D-02  0.39253296D-02  0.25936313D-02  0.67803886D-08
 -0.11223024D-02 -0.79365199D-03  0.35388218D-08 -0.11186152D-02 -0.12453957D-02
  0.10681427D-09 -0.41522257D-04 -0.24510863D-04 -0.50764442D-03  0.34990200D-03
  0.15774242D-03 -0.26697445D-08  0.77806747D-09  0.90783503D-03  0.50156293D-03
 -0.48445750D-03 -0.17105437D-04  0.10338087D-07  0.71863894D-08 -0.14261275D-02
  0.23149025D-03 -0.12969114D-03 -0.10179911D-03  0.23273310D-08  0.36137902D-08
 -0.61333995D-03  0.39882803D-08  0.58841862D-04 -0.12460847D-03 -0.30363279D-08
 -0.63098316D-03 -0.31519945D-03 -0.89285129D-08  0.45445758D-03  0.68902486D-03
 -0.10500565D-07 -0.34072054D-08 -0.70951554D-04  0.15501295D-03  0.58354292D-08
  0.58672773D-03  0.37331995D-03  0.43861869D-08 -0.37387307D-03 -0.83835879D-03
  0.13632974D-07
MO    2     MO 0.0        OCC NO =    2.0000000  ORB. ENERGY =  -10.121974
  0.15130467D-02  0.28206630D-02  0.47674174D-02  0.71669900D-02  0.88054753D-02
  0.74376315D-02  0.28052010D-02 -0.13883096D-04 -0.37380813D-04 -0.69988676D-04
 -0.11916171D-03 -0.18432505D-03 -0.24274960D-03 -0.25223238D-03 -0.16028236D-03
  0.10741751D-03  0.21935862D-02 -0.12843559D-01 -0.85195838D-03 -0.18266220D-08
 -0.17125742D-08 -0.12194549D-08  0.63920805D-04  0.59929818D-04  0.42673600D-04
 -0.18112274D-02 -0.16981408D-02 -0.12091774D-02  0.70911693D-08 -0.39008929D-03
  0.53234757D-02  0.15694191D-07  0.19683697D-03  0.29541907D-02  0.32529411D-09
  0.51967849D-04  0.45873719D-04  0.22612530D-03  0.13273944D-02 -0.15535197D-02
  0.14642828D-08 -0.68975051D-09  0.28229433D-03  0.14891974D-02  0.14341406D-02
 -0.29233380D-02 -0.10523601D-08 -0.84812100D-08 -0.81620313D-03  0.92087541D-04
  0.64500908D-04 -0.15658845D-03 -0.22137644D-09 -0.14837262D-08  0.15398371D-03
 -0.14567055D-08  0.10454173D-03  0.10855922D-02 -0.22486512D-08  0.14522471D-03
 -0.14442484D-02  0.66187677D-08 -0.45884990D-03 -0.18125282D-02 -0.54519130D-08
 -0.13774364D-08 -0.18889233D-04  0.37223882D-03  0.37126045D-08  0.44841898D-04
 -0.14062110D-03  0.41970470D-09  0.11825802D-04 -0.97609535D-03 -0.21483933D-08
  0.33068314D+00  0.61646857D+00  0.10419405D+01  0.15663778D+01  0.19244761D+01
  0.16255278D+01  0.61308926D+00 -0.30342130D-02 -0.35505347D-02 -0.66477212D-02
 -0.11318314D-01 -0.17507711D-01 -0.23057039D-01 -0.23957741D-01 -0.15224069D-01
  0.10202817D-01  0.32603425D-01  0.81443868D-02  0.39838877D-03  0.83743354D-09
  0.78514717D-09  0.55907156D-09 -0.32782772D-02 -0.30735933D-02 -0.21885815D-02
 -0.30160770D-02 -0.28277639D-02 -0.20135364D-02  0.45748483D-07  0.21323170D-02
  0.46602632D-02 -0.25485133D-08  0.28503445D-04  0.36805121D-02 -0.14148153D-09
 -0.40479098D-04  0.35380854D-04 -0.45744721D-02  0.12723708D-02  0.33021013D-02
  0.50170108D-08 -0.18161406D-07 -0.80826832D-03 -0.21247968D-03 -0.93222192D-03
  0.11447016D-02  0.78391210D-08  0.17042311D-07 -0.23272589D-02 -0.12233873D-05
 -0.21355474D-03  0.21477813D-03  0.21423955D-09 -0.15133363D-09 -0.26576356D-04
 -0.13774111D-07  0.24809279D-04  0.15095248D-02  0.18895962D-07 -0.41236007D-03
 -0.13447459D-03  0.22426372D-07  0.33793223D-03 -0.43940997D-02 -0.14871287D-07
  0.15130844D-08  0.57870136D-04 -0.16222086D-03 -0.57762950D-08 -0.10666498D-03
 -0.64049273D-04  0.12370419D-08 -0.66945431D-04  0.55071186D-03 -0.67837931D-08
  0.97223560D-04  0.17534669D-03  0.25854860D-03  0.19248656D-02 -0.70508735D-03
 -0.67939735D-04  0.27324511D-08 -0.14820758D-03 -0.51110524D-03 -0.10012169D-07
 -0.44808987D-03  0.12583277D-02 -0.56189183D-09  0.73169469D-04  0.84043743D-04
  0.25265159D-03  0.18491695D-03 -0.43756854D-03  0.12867472D-08  0.81742049D-09
 -0.58223793D-03  0.14695020D-03  0.11149844D-03 -0.25844863D-03  0.20872048D-09
 -0.66067110D-09 -0.21271912D-03  0.91619086D-04  0.16523880D-03  0.24364451D-03
  0.68334797D-03  0.70895310D-03  0.59633467D-04  0.44854565D-08  0.11718356D-03
 -0.67482457D-03 -0.97533114D-08 -0.44378555D-03  0.15557447D-02 -0.18588108D-08
  0.32652974D-04  0.17803393D-03  0.35549718D-03 -0.12331334D-03 -0.23218383D-03
 -0.23005003D-08  0.22297691D-08  0.58596496D-03  0.20835980D-03  0.34707377D-04
 -0.24306717D-03 -0.32347379D-09  0.45092620D-09  0.33943465D-03  0.40936438D-04
  0.73830551D-04  0.10886310D-03 -0.26114488D-02  0.13492565D-02  0.64924689D-04
  0.90519716D-08  0.16543417D-02 -0.11426662D-02  0.13288633D-07  0.28225987D-02
 -0.15437185D-02 -0.14251656D-08  0.19251678D-03  0.24785105D-03  0.11631545D-02
 -0.12443698D-02  0.81215364D-04 -0.26894910D-07  0.20049286D-07  0.39781488D-02
  0.22520857D-03 -0.26669542D-03  0.41486849D-04 -0.29997884D-08  0.31774580D-08
  0.32653656D-03  0.27767718D-03  0.51760230D-03  0.87746314D-03  0.13287378D-02
  0.16615913D-02  0.14304753D-02  0.54992694D-03 -0.23829234D-05 -0.22004435D-03
 -0.41320432D-03 -0.70361569D-03 -0.11022098D-02 -0.14770908D-02 -0.15888103D-02
 -0.95391964D-03  0.62733769D-03  0.21538302D-03  0.18528977D-02  0.10934160D-02
 -0.41863860D-08 -0.40941941D-08 -0.27052071D-08  0.68777888D-03  0.67263272D-03
  0.44443688D-03  0.14282810D-03  0.13968276D-03  0.92294308D-04 -0.20962344D-08
  0.51674982D-03  0.70476309D-03  0.46228558D-10  0.81124468D-04  0.54230719D-04
 -0.62282687D-09  0.36490277D-04  0.12878043D-03 -0.11281883D-02  0.12748824D-02
 -0.14669408D-03 -0.18287883D-07 -0.13250432D-07  0.30538558D-02  0.55602139D-03
 -0.64403659D-03  0.88015203D-04  0.84828226D-08  0.62742128D-08 -0.14820410D-02
  0.19914670D-03 -0.10795088D-03 -0.91195823D-04  0.38254732D-08  0.22242854D-08
 -0.30868797D-03  0.59112457D-08  0.39535198D-04  0.12819442D-03 -0.11180584D-07
 -0.90348723D-03 -0.11291498D-02 -0.65531533D-08  0.78488163D-03  0.74456651D-03
 -0.37213821D-08 -0.64821125D-08 -0.74119720D-04  0.27413158D-03  0.13959716D-07
  0.12264882D-02  0.10602382D-02  0.54866212D-08 -0.10041290D-02 -0.18826329D-02
  0.24558618D-07
MO    3     MO 0.0        OCC NO =    2.0000000  ORB. ENERGY =  -10.036678
  0.33076008D+00  0.61661200D+00  0.10421829D+01  0.15667423D+01  0.19249239D+01
  0.16259060D+01  0.61323191D+00 -0.30349189D-02 -0.36617546D-02 -0.68559599D-02
 -0.11672858D-01 -0.18056137D-01 -0.23779297D-01 -0.24708213D-01 -0.15700960D-01
  0.10522418D-01  0.32852645D-01  0.67635083D-02  0.15419756D-03 -0.13078678D-07
 -0.12262092D-07 -0.87313396D-08  0.69103133D-04  0.64788580D-04  0.46133328D-04
  0.64094090D-04  0.60092284D-04  0.42789286D-04  0.55216429D-08 -0.44684895D-04
 -0.24694397D-02 -0.91653680D-08  0.32918980D-03 -0.32550893D-02 -0.15383071D-09
 -0.46417755D-05 -0.33249518D-04 -0.50918928D-02  0.22075031D-02  0.28843896D-02
  0.10565330D-07  0.39687696D-07 -0.13039007D-03 -0.23128059D-03 -0.44109024D-03
  0.67237083D-03  0.55663843D-08  0.32284946D-08  0.28104563D-03  0.23936464D-04
 -0.31634309D-03  0.29240663D-03  0.87371735D-09  0.12448045D-08  0.10130251D-04
 -0.15845477D-08 -0.17081096D-04 -0.17085780D-02  0.16663029D-07 -0.25413838D-04
 -0.27186166D-03 -0.11909386D-07  0.76657124D-04  0.53975958D-02  0.89392799D-08
  0.28699361D-10  0.23377089D-04  0.29064376D-03 -0.23394488D-08 -0.37655596D-04
  0.66553757D-04  0.22533507D-08 -0.32475670D-04 -0.93848502D-03 -0.58551217D-08
 -0.15190880D-02 -0.28319254D-02 -0.47864527D-02 -0.71956063D-02 -0.88406337D-02
 -0.74673285D-02 -0.28164016D-02  0.13938528D-04 -0.59891679D-04 -0.11213612D-03
 -0.19092134D-03 -0.29532628D-03 -0.38893432D-03 -0.40412768D-03 -0.25680500D-03
  0.17210474D-03  0.21033378D-02 -0.12856260D-01 -0.62241083D-03  0.43659362D-08
  0.40933427D-08  0.29147038D-08 -0.18202330D-04 -0.17065841D-04 -0.12151896D-04
  0.14643723D-02  0.13729422D-02  0.97761660D-03 -0.67299151D-08  0.13550980D-03
 -0.34490814D-02 -0.76473057D-08 -0.14999251D-03 -0.24835975D-02  0.31459449D-10
  0.46761016D-05 -0.20672501D-04  0.33479238D-03  0.10707922D-02 -0.14055846D-02
  0.54306785D-08 -0.15785459D-07  0.92984330D-04  0.16196022D-02  0.75882792D-03
 -0.23784302D-02 -0.37238240D-08 -0.13203420D-07  0.24046291D-03  0.73061636D-04
  0.12902499D-03 -0.20208663D-03 -0.13352871D-08  0.29300071D-09  0.81655793D-04
  0.29542657D-08 -0.19976038D-03 -0.12893047D-02  0.63488309D-08 -0.18023862D-04
  0.13911910D-02 -0.15211628D-07  0.61730500D-03  0.24767232D-02  0.16647192D-08
  0.28663952D-09 -0.12874950D-03 -0.26368867D-03  0.58285309D-08  0.28502100D-04
  0.14613077D-03 -0.66884495D-08  0.35774640D-03  0.64493523D-03 -0.41710192D-08
  0.75205730D-04  0.13563663D-03  0.19999613D-03 -0.90854576D-03  0.11302585D-02
  0.25565124D-04  0.63107132D-08  0.19210051D-02  0.93939792D-03  0.65909550D-08
  0.23114528D-02  0.14399592D-02 -0.16720963D-08  0.29253375D-03 -0.23957322D-03
  0.13850222D-02 -0.17065892D-02  0.32156694D-03 -0.20451931D-07 -0.95113829D-08
 -0.37612137D-02  0.27900942D-03 -0.23591663D-03 -0.43092794D-04 -0.22079454D-08
 -0.14699145D-08 -0.21408893D-03  0.72637258D-04  0.13100429D-03  0.19316574D-03
 -0.30765594D-03  0.19963830D-02  0.20384814D-04  0.19206990D-08 -0.18983390D-02
  0.90796308D-03 -0.99055210D-10 -0.21825566D-02  0.12723756D-02  0.25343871D-09
 -0.18400058D-03 -0.33662047D-03  0.13729232D-02 -0.17477261D-02  0.37480298D-03
  0.50887638D-08 -0.39184502D-08  0.37199409D-02  0.27931483D-03 -0.24087630D-03
 -0.38438531D-04 -0.24581548D-09 -0.23238259D-08  0.21148054D-03  0.83101047D-04
  0.14987616D-03  0.22099231D-03  0.20550086D-02  0.70357880D-03  0.55455670D-05
  0.27619037D-08 -0.33978190D-03  0.66623652D-03 -0.19757685D-07 -0.11833136D-03
 -0.71681881D-04  0.12470092D-09 -0.17449830D-03 -0.14161772D-03  0.16628576D-03
 -0.18661048D-03  0.20324729D-04  0.21041740D-08 -0.16377688D-07 -0.13231084D-03
  0.12329905D-03  0.49299665D-04 -0.17259871D-03 -0.29026750D-09 -0.32906310D-08
  0.21169942D-03  0.13982272D-03  0.26063560D-03  0.44184143D-03  0.66907814D-03
  0.83668456D-03  0.72030747D-03  0.27691249D-03 -0.11999071D-05 -0.93060207D-04
 -0.17475059D-03 -0.29757011D-03 -0.46614182D-03 -0.62468488D-03 -0.67193281D-03
 -0.40342758D-03  0.26531095D-03 -0.16323079D-03  0.15777349D-02 -0.20251553D-03
  0.69128159D-08  0.67605830D-08  0.44670030D-08 -0.48167342D-03 -0.47106609D-03
 -0.31125328D-03 -0.37829489D-03 -0.36996414D-03 -0.24445095D-03 -0.59767457D-08
  0.59844309D-03  0.57124207D-03 -0.10664194D-07  0.98436855D-03 -0.52555208D-03
 -0.18703993D-09  0.52937658D-06 -0.70000063D-04 -0.20698670D-03 -0.29980999D-03
  0.50679669D-03  0.12494807D-07  0.60286571D-08  0.28880446D-03 -0.83435828D-04
  0.29464444D-03 -0.21120861D-03 -0.10436602D-07 -0.52370248D-08  0.24574698D-03
  0.92568588D-04  0.31237322D-03 -0.40494181D-03 -0.42696809D-08 -0.38024538D-08
 -0.18301820D-03  0.57182971D-08 -0.23856653D-03  0.39763310D-03 -0.10440546D-07
 -0.96658248D-03 -0.71099062D-03 -0.67143450D-08  0.16822821D-02 -0.48190869D-03
  0.24995358D-07 -0.60881793D-09  0.14130292D-03 -0.24010538D-03  0.42596807D-09
  0.23466345D-03  0.24801858D-03  0.14004857D-08 -0.65857222D-03  0.47229756D-03
 -0.15837005D-07
MO    4     MO 0.0        OCC NO =    2.0000000  ORB. ENERGY =   -1.192157
 -0.89343645D-03 -0.16655687D-02 -0.28151045D-02 -0.42320241D-02 -0.51995306D-02
 -0.43918348D-02 -0.16564385D-02  0.81978066D-05 -0.17268566D-02 -0.32332204D-02
 -0.55048344D-02 -0.85151418D-02 -0.11214142D-01 -0.11652212D-01 -0.74044577D-02
  0.49622954D-02  0.16291713D-02 -0.70776427D-02  0.19277256D-02  0.43614228D-09
  0.40891111D-09  0.29116907D-09 -0.60428751D-02 -0.56655795D-02 -0.40342301D-02
 -0.14959034D-01 -0.14025046D-01 -0.99866680D-02  0.42518415D-07 -0.17520019D-02
  0.19388773D-02  0.14797233D-07 -0.33670260D-03  0.10674299D-02 -0.21000961D-09
  0.14460197D-03 -0.10001921D-03 -0.14153180D-02  0.25010834D-03  0.11652097D-02
  0.51204319D-08 -0.30707235D-08  0.31618290D-02 -0.16798930D-03  0.15615091D-02
 -0.13935198D-02 -0.13671573D-07 -0.51794393D-07 -0.16615583D-02 -0.11351085D-03
  0.15151745D-03 -0.38006597D-04 -0.16853039D-07 -0.24793666D-08 -0.59246019D-03
 -0.46615627D-08  0.55689551D-03 -0.96307236D-04 -0.56761000D-08  0.35609155D-03
  0.34861864D-03  0.19660788D-07 -0.20267781D-02 -0.59696932D-04  0.62452024D-08
  0.36835921D-08 -0.10090353D-03  0.29169148D-03 -0.12923080D-07 -0.17497169D-03
 -0.43402434D-04  0.18723037D-08  0.47768229D-03 -0.83167201D-03  0.18677889D-07
 -0.38652128D-02 -0.72056354D-02 -0.12178793D-01 -0.18308715D-01 -0.22494372D-01
 -0.19000093D-01 -0.71661362D-02  0.35465608D-04 -0.15261858D-01 -0.28575014D-01
 -0.48651406D-01 -0.75256327D-01 -0.99109935D-01 -0.10298157D+00 -0.65440166D-01
  0.43856477D-01  0.19176208D-01  0.94572412D-02 -0.27378012D-02  0.62061272D-06
  0.58186387D-06  0.41432174D-06 -0.10761419D+00 -0.10089515D+00 -0.71843355D-01
 -0.69680296D-01 -0.65329707D-01 -0.46518643D-01  0.12889779D-06 -0.19826169D-01
 -0.10943977D-01 -0.27721851D-09  0.26561589D-02  0.16315725D-02 -0.12640198D-09
 -0.53970157D-04 -0.13705943D-03 -0.14761203D-01  0.13186650D-01  0.15745522D-02
 -0.27216232D-06 -0.16788251D-06  0.31083390D-01 -0.22237769D-02  0.12243147D-02
  0.99946216D-03 -0.22628312D-07 -0.49590349D-07  0.13288215D-02  0.16435738D-03
 -0.66020679D-03  0.49584942D-03  0.16080841D-07 -0.63115025D-08 -0.16748583D-02
 -0.29198772D-07 -0.36123197D-03  0.20646465D-02  0.57317149D-07  0.45033406D-02
  0.24516890D-02  0.30279166D-07 -0.34196446D-02 -0.86456286D-02  0.76298875D-07
 -0.18606212D-09  0.22731712D-03  0.51298651D-03  0.14442690D-07  0.96485492D-04
  0.21413482D-03 -0.13884504D-07 -0.77843684D-03 -0.17530944D-02  0.32232762D-07
  0.20945657D-03  0.37776354D-03  0.55701212D-03  0.30000414D-03  0.45389763D-02
 -0.12496813D-03 -0.50057105D-08 -0.93156633D-04  0.32553084D-03  0.19613800D-07
  0.32203300D-03  0.84208535D-03  0.10870877D-07 -0.57749119D-03 -0.59543504D-03
  0.41023369D-03  0.34599455D-03 -0.75622823D-03 -0.29868830D-08 -0.25901598D-07
 -0.10032719D-02  0.20013957D-03 -0.57565457D-04 -0.14257411D-03 -0.23946782D-08
 -0.28965452D-08 -0.14917856D-03  0.45428904D-03  0.81932899D-03  0.12081001D-02
 -0.13785667D-02 -0.51168923D-02  0.21654896D-03 -0.66226011D-08  0.20624927D-03
 -0.10163900D-02  0.32916139D-07 -0.18106039D-02  0.16011081D-02 -0.11190994D-07
 -0.56622445D-03  0.40678666D-03  0.16983908D-05 -0.78056909D-03  0.77887070D-03
  0.15757843D-07 -0.54449124D-08  0.48808835D-03  0.12741063D-03 -0.10544854D-03
 -0.21962090D-04  0.47896718D-08 -0.20898933D-09  0.37580817D-03  0.17962041D-02
  0.32395281D-02  0.47766823D-02 -0.25935877D-02 -0.76756553D-02  0.30144354D-05
  0.38627560D-08 -0.26341306D-02 -0.57508326D-03  0.30530299D-07  0.15224882D-03
 -0.24072780D-02 -0.11953586D-07  0.19541868D-02  0.42209790D-03 -0.55707319D-03
  0.16616107D-02 -0.11045375D-02 -0.46136205D-08  0.17385444D-07  0.16205031D-02
 -0.13428872D-04 -0.20889059D-03  0.22231946D-03 -0.59490210D-08 -0.12205270D-07
  0.51379852D-03 -0.83867541D-02 -0.15633273D-01 -0.26502241D-01 -0.40132204D-01
 -0.50185462D-01 -0.43205008D-01 -0.16609582D-01  0.71972039D-04 -0.12194028D+00
 -0.22898225D+00 -0.38991729D+00 -0.61080312D+00 -0.81854804D+00 -0.88045879D+00
 -0.52862630D+00  0.34764690D+00  0.20614858D+00  0.97932507D-01  0.96753641D-02
 -0.16148431D-05 -0.15792812D-05 -0.10434979D-05  0.28654153D+00  0.28023135D+00
  0.18516070D+00  0.19240176D+00  0.18816472D+00  0.12432839D+00 -0.40471558D-06
  0.73179239D-01  0.49051594D-01 -0.61928408D-07  0.61131653D-02  0.50288302D-02
 -0.29364559D-08  0.46326118D-03  0.48290414D-03 -0.13437027D-01  0.15333675D-01
 -0.18966480D-02 -0.32822956D-06 -0.19642380D-06  0.40420984D-01 -0.88241640D-02
  0.93921659D-02 -0.56800189D-03 -0.21040637D-06 -0.16156100D-06  0.25364781D-01
 -0.15821887D-03 -0.83815032D-04  0.24203390D-03 -0.89785279D-08 -0.16781368D-07
 -0.14816795D-03  0.27139309D-07  0.11731471D-02 -0.31291564D-02 -0.14372071D-06
 -0.82743352D-02 -0.48436210D-02  0.62302779D-07  0.47548938D-02  0.14231090D-01
 -0.11932665D-06  0.27729483D-07  0.57402299D-03 -0.93041082D-03 -0.39666102D-07
 -0.38138578D-02 -0.28581675D-02 -0.43522346D-07  0.20917888D-02  0.56494000D-02
 -0.13119440D-06
MO    5     MO 0.0        OCC NO =    2.0000000  ORB. ENERGY =   -0.739413
 -0.80329271D-02 -0.14975202D-01 -0.25310730D-01 -0.38050318D-01 -0.46749213D-01
 -0.39487183D-01 -0.14893113D-01  0.73706846D-04 -0.43133011D-01 -0.80758606D-01
 -0.13749844D+00 -0.21268917D+00 -0.28010416D+00 -0.29104616D+00 -0.18494677D+00
  0.12394703D+00  0.51665623D-01  0.33188772D-01 -0.23111327D-02 -0.24144212D-06
 -0.22636734D-06 -0.16118703D-06  0.12855828D-01  0.12053156D-01  0.85825648D-02
 -0.14039370D+00 -0.13162802D+00 -0.93726991D-01 -0.29465711D-07  0.18185048D-02
 -0.18819582D-01  0.44264395D-08 -0.11480083D-02 -0.91023338D-03  0.10838479D-08
  0.16834572D-03  0.15481235D-03 -0.18209662D-01 -0.23475478D-02  0.20557210D-01
  0.23282240D-07  0.18979987D-06 -0.25420993D-02 -0.38475115D-02  0.21330544D-02
  0.17144572D-02  0.10336648D-07  0.15071161D-07 -0.23041579D-02  0.71789170D-04
 -0.11381994D-03  0.42030769D-04 -0.10026348D-07 -0.38231308D-08 -0.19242296D-02
  0.76086739D-08 -0.52647535D-03 -0.54711776D-02  0.45398581D-07 -0.26947975D-03
  0.43442750D-02 -0.68224603D-07  0.18489058D-02  0.12069258D-01  0.31367183D-07
  0.61814106D-09 -0.32028468D-03 -0.30731247D-03 -0.22948858D-08  0.17006924D-03
 -0.44374935D-03  0.44046266D-09  0.79078480D-03  0.13656868D-02 -0.42849060D-09
 -0.67301119D-02 -0.12546459D-01 -0.21205725D-01 -0.31879151D-01 -0.39167221D-01
 -0.33082979D-01 -0.12477683D-01  0.61752748D-04 -0.39788090D-01 -0.74495859D-01
 -0.12683557D+00 -0.19619535D+00 -0.25838237D+00 -0.26847583D+00 -0.17060434D+00
  0.11433506D+00  0.50320179D-01  0.28957634D-01  0.20901668D-02  0.62472020D-06
  0.58571490D-06  0.41706390D-06  0.30438347D-01  0.28537885D-01  0.20320674D-01
  0.18097021D+00  0.16967107D+00  0.12081591D+00  0.17272561D-06  0.50511201D-02