 Molden2AIM, Version 4.0.0 (06/02/2016)           Time: Sat Jun 30 05:39:44 2018
GAUSSIAN             16 MOL ORBITALS    408 PRIMITIVES        8 NUCLEI
  C    1    (CENTRE  1)  -2.00447596  2.48397696  0.55972932  CHARGE =  6.0
  O    2    (CENTRE  2)  -0.62951690  4.25282108  0.99515056  CHARGE =  8.0
  O    3    (CENTRE  3)  -1.10355659  0.15880313  0.00277601  CHARGE =  8.0
  H    4    (CENTRE  4)   0.72105524  0.28760687  0.04624727  CHARGE =  1.0
  C    5    (CENTRE  5)  -4.83323913  2.53550412  0.55940618  CHARGE =  6.0
  H    6    (CENTRE  6)  -5.48666485  4.44780870  0.98265758  CHARGE =  1.0
  H    7    (CENTRE  7)  -5.54401236  1.92020174 -1.28951887  CHARGE =  1.0
  H    8    (CENTRE  8)  -5.55235928  1.19965106  1.97442365  CHARGE =  1.0
CENTRE ASSIGNMENTS    1  1  1  1  1  1  1  1  1  1  1  1  1  1  1  1  1  1  1  1
CENTRE ASSIGNMENTS    1  1  1  1  1  1  1  1  1  1  1  1  1  1  1  1  1  1  1  1
CENTRE ASSIGNMENTS    1  1  1  1  1  1  1  1  1  1  1  1  1  1  1  1  1  1  1  1
CENTRE ASSIGNMENTS    1  1  1  1  1  1  1  1  1  1  1  1  1  1  1  2  2  2  2  2
CENTRE ASSIGNMENTS    2  2  2  2  2  2  2  2  2  2  2  2  2  2  2  2  2  2  2  2
CENTRE ASSIGNMENTS    2  2  2  2  2  2  2  2  2  2  2  2  2  2  2  2  2  2  2  2
CENTRE ASSIGNMENTS    2  2  2  2  2  2  2  2  2  2  2  2  2  2  2  2  2  2  2  2
CENTRE ASSIGNMENTS    2  2  2  2  2  2  2  2  2  2  3  3  3  3  3  3  3  3  3  3
CENTRE ASSIGNMENTS    3  3  3  3  3  3  3  3  3  3  3  3  3  3  3  3  3  3  3  3
CENTRE ASSIGNMENTS    3  3  3  3  3  3  3  3  3  3  3  3  3  3  3  3  3  3  3  3
CENTRE ASSIGNMENTS    3  3  3  3  3  3  3  3  3  3  3  3  3  3  3  3  3  3  3  3
CENTRE ASSIGNMENTS    3  3  3  3  3  4  4  4  4  4  4  4  4  4  4  4  4  4  4  4
CENTRE ASSIGNMENTS    4  4  4  4  4  4  4  4  4  4  4  4  5  5  5  5  5  5  5  5
CENTRE ASSIGNMENTS    5  5  5  5  5  5  5  5  5  5  5  5  5  5  5  5  5  5  5  5
CENTRE ASSIGNMENTS    5  5  5  5  5  5  5  5  5  5  5  5  5  5  5  5  5  5  5  5
CENTRE ASSIGNMENTS    5  5  5  5  5  5  5  5  5  5  5  5  5  5  5  5  5  5  5  5
CENTRE ASSIGNMENTS    5  5  5  5  5  5  5  6  6  6  6  6  6  6  6  6  6  6  6  6
CENTRE ASSIGNMENTS    6  6  6  6  6  6  6  6  6  6  6  6  6  6  7  7  7  7  7  7
CENTRE ASSIGNMENTS    7  7  7  7  7  7  7  7  7  7  7  7  7  7  7  7  7  7  7  7
CENTRE ASSIGNMENTS    7  8  8  8  8  8  8  8  8  8  8  8  8  8  8  8  8  8  8  8
CENTRE ASSIGNMENTS    8  8  8  8  8  8  8  8
TYPE ASSIGNMENTS      1  1  1  1  1  1  1  1  1  1  1  1  1  1  1  1  1  1  1  2
TYPE ASSIGNMENTS      2  2  3  3  3  4  4  4  2  3  4  2  3  4  2  3  4  5  6  7
TYPE ASSIGNMENTS      8  9 10  5  6  7  8  9 10  5  6  7  8  9 10 11 12 13 17 14
TYPE ASSIGNMENTS     15 18 19 16 20 11 12 13 17 14 15 18 19 16 20  1  1  1  1  1
TYPE ASSIGNMENTS      1  1  1  1  1  1  1  1  1  1  1  1  1  1  2  2  2  3  3  3
TYPE ASSIGNMENTS      4  4  4  2  3  4  2  3  4  2  3  4  5  6  7  8  9 10  5  6
TYPE ASSIGNMENTS      7  8  9 10  5  6  7  8  9 10 11 12 13 17 14 15 18 19 16 20
TYPE ASSIGNMENTS     11 12 13 17 14 15 18 19 16 20  1  1  1  1  1  1  1  1  1  1
TYPE ASSIGNMENTS      1  1  1  1  1  1  1  1  1  2  2  2  3  3  3  4  4  4  2  3
TYPE ASSIGNMENTS      4  2  3  4  2  3  4  5  6  7  8  9 10  5  6  7  8  9 10  5
TYPE ASSIGNMENTS      6  7  8  9 10 11 12 13 17 14 15 18 19 16 20 11 12 13 17 14
TYPE ASSIGNMENTS     15 18 19 16 20  1  1  1  1  1  1  2  3  4  2  3  4  2  3  4
TYPE ASSIGNMENTS      5  6  7  8  9 10  5  6  7  8  9 10  1  1  1  1  1  1  1  1
TYPE ASSIGNMENTS      1  1  1  1  1  1  1  1  1  1  1  2  2  2  3  3  3  4  4  4
TYPE ASSIGNMENTS      2  3  4  2  3  4  2  3  4  5  6  7  8  9 10  5  6  7  8  9
TYPE ASSIGNMENTS     10  5  6  7  8  9 10 11 12 13 17 14 15 18 19 16 20 11 12 13
TYPE ASSIGNMENTS     17 14 15 18 19 16 20  1  1  1  1  1  1  2  3  4  2  3  4  2
TYPE ASSIGNMENTS      3  4  5  6  7  8  9 10  5  6  7  8  9 10  1  1  1  1  1  1
TYPE ASSIGNMENTS      2  3  4  2  3  4  2  3  4  5  6  7  8  9 10  5  6  7  8  9
TYPE ASSIGNMENTS     10  1  1  1  1  1  1  2  3  4  2  3  4  2  3  4  5  6  7  8
TYPE ASSIGNMENTS      9 10  5  6  7  8  9 10
EXPONENTS  0.8236000D+04 0.1235000D+04 0.2808000D+03 0.7927000D+02 0.2559000D+02
EXPONENTS  0.8997000D+01 0.3319000D+01 0.3643000D+00 0.8236000D+04 0.1235000D+04
EXPONENTS  0.2808000D+03 0.7927000D+02 0.2559000D+02 0.8997000D+01 0.3319000D+01
EXPONENTS  0.3643000D+00 0.9059000D+00 0.1285000D+00 0.4402000D-01 0.1871000D+02
EXPONENTS  0.4133000D+01 0.1200000D+01 0.1871000D+02 0.4133000D+01 0.1200000D+01
EXPONENTS  0.1871000D+02 0.4133000D+01 0.1200000D+01 0.3827000D+00 0.3827000D+00
EXPONENTS  0.3827000D+00 0.1209000D+00 0.1209000D+00 0.1209000D+00 0.3569000D-01
EXPONENTS  0.3569000D-01 0.3569000D-01 0.1097000D+01 0.1097000D+01 0.1097000D+01
EXPONENTS  0.1097000D+01 0.1097000D+01 0.1097000D+01 0.3180000D+00 0.3180000D+00
EXPONENTS  0.3180000D+00 0.3180000D+00 0.3180000D+00 0.3180000D+00 0.1000000D+00
EXPONENTS  0.1000000D+00 0.1000000D+00 0.1000000D+00 0.1000000D+00 0.1000000D+00
EXPONENTS  0.7610000D+00 0.7610000D+00 0.7610000D+00 0.7610000D+00 0.7610000D+00
EXPONENTS  0.7610000D+00 0.7610000D+00 0.7610000D+00 0.7610000D+00 0.7610000D+00
EXPONENTS  0.2680000D+00 0.2680000D+00 0.2680000D+00 0.2680000D+00 0.2680000D+00
EXPONENTS  0.2680000D+00 0.2680000D+00 0.2680000D+00 0.2680000D+00 0.2680000D+00
EXPONENTS  0.1533000D+05 0.2299000D+04 0.5224000D+03 0.1473000D+03 0.4755000D+02
EXPONENTS  0.1676000D+02 0.6207000D+01 0.6882000D+00 0.1533000D+05 0.2299000D+04
EXPONENTS  0.5224000D+03 0.1473000D+03 0.4755000D+02 0.1676000D+02 0.6207000D+01
EXPONENTS  0.6882000D+00 0.1752000D+01 0.2384000D+00 0.7376000D-01 0.3446000D+02
EXPONENTS  0.7749000D+01 0.2280000D+01 0.3446000D+02 0.7749000D+01 0.2280000D+01
EXPONENTS  0.3446000D+02 0.7749000D+01 0.2280000D+01 0.7156000D+00 0.7156000D+00
EXPONENTS  0.7156000D+00 0.2140000D+00 0.2140000D+00 0.2140000D+00 0.5974000D-01
EXPONENTS  0.5974000D-01 0.5974000D-01 0.2314000D+01 0.2314000D+01 0.2314000D+01
EXPONENTS  0.2314000D+01 0.2314000D+01 0.2314000D+01 0.6450000D+00 0.6450000D+00
EXPONENTS  0.6450000D+00 0.6450000D+00 0.6450000D+00 0.6450000D+00 0.2140000D+00
EXPONENTS  0.2140000D+00 0.2140000D+00 0.2140000D+00 0.2140000D+00 0.2140000D+00
EXPONENTS  0.1428000D+01 0.1428000D+01 0.1428000D+01 0.1428000D+01 0.1428000D+01
EXPONENTS  0.1428000D+01 0.1428000D+01 0.1428000D+01 0.1428000D+01 0.1428000D+01
EXPONENTS  0.5000000D+00 0.5000000D+00 0.5000000D+00 0.5000000D+00 0.5000000D+00
EXPONENTS  0.5000000D+00 0.5000000D+00 0.5000000D+00 0.5000000D+00 0.5000000D+00
EXPONENTS  0.1533000D+05 0.2299000D+04 0.5224000D+03 0.1473000D+03 0.4755000D+02
EXPONENTS  0.1676000D+02 0.6207000D+01 0.6882000D+00 0.1533000D+05 0.2299000D+04
EXPONENTS  0.5224000D+03 0.1473000D+03 0.4755000D+02 0.1676000D+02 0.6207000D+01
EXPONENTS  0.6882000D+00 0.1752000D+01 0.2384000D+00 0.7376000D-01 0.3446000D+02
EXPONENTS  0.7749000D+01 0.2280000D+01 0.3446000D+02 0.7749000D+01 0.2280000D+01
EXPONENTS  0.3446000D+02 0.7749000D+01 0.2280000D+01 0.7156000D+00 0.7156000D+00
EXPONENTS  0.7156000D+00 0.2140000D+00 0.2140000D+00 0.2140000D+00 0.5974000D-01
EXPONENTS  0.5974000D-01 0.5974000D-01 0.2314000D+01 0.2314000D+01 0.2314000D+01
EXPONENTS  0.2314000D+01 0.2314000D+01 0.2314000D+01 0.6450000D+00 0.6450000D+00
EXPONENTS  0.6450000D+00 0.6450000D+00 0.6450000D+00 0.6450000D+00 0.2140000D+00
EXPONENTS  0.2140000D+00 0.2140000D+00 0.2140000D+00 0.2140000D+00 0.2140000D+00
EXPONENTS  0.1428000D+01 0.1428000D+01 0.1428000D+01 0.1428000D+01 0.1428000D+01
EXPONENTS  0.1428000D+01 0.1428000D+01 0.1428000D+01 0.1428000D+01 0.1428000D+01
EXPONENTS  0.5000000D+00 0.5000000D+00 0.5000000D+00 0.5000000D+00 0.5000000D+00
EXPONENTS  0.5000000D+00 0.5000000D+00 0.5000000D+00 0.5000000D+00 0.5000000D+00
EXPONENTS  0.3387000D+02 0.5095000D+01 0.1159000D+01 0.3258000D+00 0.1027000D+00
EXPONENTS  0.2526000D-01 0.1407000D+01 0.1407000D+01 0.1407000D+01 0.3880000D+00
EXPONENTS  0.3880000D+00 0.3880000D+00 0.1020000D+00 0.1020000D+00 0.1020000D+00
EXPONENTS  0.1057000D+01 0.1057000D+01 0.1057000D+01 0.1057000D+01 0.1057000D+01
EXPONENTS  0.1057000D+01 0.2470000D+00 0.2470000D+00 0.2470000D+00 0.2470000D+00
EXPONENTS  0.2470000D+00 0.2470000D+00 0.8236000D+04 0.1235000D+04 0.2808000D+03
EXPONENTS  0.7927000D+02 0.2559000D+02 0.8997000D+01 0.3319000D+01 0.3643000D+00
EXPONENTS  0.8236000D+04 0.1235000D+04 0.2808000D+03 0.7927000D+02 0.2559000D+02
EXPONENTS  0.8997000D+01 0.3319000D+01 0.3643000D+00 0.9059000D+00 0.1285000D+00
EXPONENTS  0.4402000D-01 0.1871000D+02 0.4133000D+01 0.1200000D+01 0.1871000D+02
EXPONENTS  0.4133000D+01 0.1200000D+01 0.1871000D+02 0.4133000D+01 0.1200000D+01
EXPONENTS  0.3827000D+00 0.3827000D+00 0.3827000D+00 0.1209000D+00 0.1209000D+00
EXPONENTS  0.1209000D+00 0.3569000D-01 0.3569000D-01 0.3569000D-01 0.1097000D+01
EXPONENTS  0.1097000D+01 0.1097000D+01 0.1097000D+01 0.1097000D+01 0.1097000D+01
EXPONENTS  0.3180000D+00 0.3180000D+00 0.3180000D+00 0.3180000D+00 0.3180000D+00
EXPONENTS  0.3180000D+00 0.1000000D+00 0.1000000D+00 0.1000000D+00 0.1000000D+00
EXPONENTS  0.1000000D+00 0.1000000D+00 0.7610000D+00 0.7610000D+00 0.7610000D+00
EXPONENTS  0.7610000D+00 0.7610000D+00 0.7610000D+00 0.7610000D+00 0.7610000D+00
EXPONENTS  0.7610000D+00 0.7610000D+00 0.2680000D+00 0.2680000D+00 0.2680000D+00
EXPONENTS  0.2680000D+00 0.2680000D+00 0.2680000D+00 0.2680000D+00 0.2680000D+00
EXPONENTS  0.2680000D+00 0.2680000D+00 0.3387000D+02 0.5095000D+01 0.1159000D+01
EXPONENTS  0.3258000D+00 0.1027000D+00 0.2526000D-01 0.1407000D+01 0.1407000D+01
EXPONENTS  0.1407000D+01 0.3880000D+00 0.3880000D+00 0.3880000D+00 0.1020000D+00
EXPONENTS  0.1020000D+00 0.1020000D+00 0.1057000D+01 0.1057000D+01 0.1057000D+01
EXPONENTS  0.1057000D+01 0.1057000D+01 0.1057000D+01 0.2470000D+00 0.2470000D+00
EXPONENTS  0.2470000D+00 0.2470000D+00 0.2470000D+00 0.2470000D+00 0.3387000D+02
EXPONENTS  0.5095000D+01 0.1159000D+01 0.3258000D+00 0.1027000D+00 0.2526000D-01
EXPONENTS  0.1407000D+01 0.1407000D+01 0.1407000D+01 0.3880000D+00 0.3880000D+00
EXPONENTS  0.3880000D+00 0.1020000D+00 0.1020000D+00 0.1020000D+00 0.1057000D+01
EXPONENTS  0.1057000D+01 0.1057000D+01 0.1057000D+01 0.1057000D+01 0.1057000D+01
EXPONENTS  0.2470000D+00 0.2470000D+00 0.2470000D+00 0.2470000D+00 0.2470000D+00
EXPONENTS  0.2470000D+00 0.3387000D+02 0.5095000D+01 0.1159000D+01 0.3258000D+00
EXPONENTS  0.1027000D+00 0.2526000D-01 0.1407000D+01 0.1407000D+01 0.1407000D+01
EXPONENTS  0.3880000D+00 0.3880000D+00 0.3880000D+00 0.1020000D+00 0.1020000D+00
EXPONENTS  0.1020000D+00 0.1057000D+01 0.1057000D+01 0.1057000D+01 0.1057000D+01
EXPONENTS  0.1057000D+01 0.1057000D+01 0.2470000D+00 0.2470000D+00 0.2470000D+00
EXPONENTS  0.2470000D+00 0.2470000D+00 0.2470000D+00
MO    1     MO 0.0        OCC NO =    2.0000000  ORB. ENERGY =  -19.007937
  0.33082938D-03  0.61674118D-03  0.10424012D-02  0.15670705D-02  0.19253272D-02
  0.16262466D-02  0.61336038D-03 -0.30355547D-05 -0.24070229D-03 -0.45067064D-03
 -0.76730533D-03 -0.11869047D-02 -0.15631117D-02 -0.16241732D-02 -0.10320891D-02
  0.69168214D-03 -0.55260051D-05  0.27129529D-02  0.31176446D-03 -0.56266536D-04
 -0.52753454D-04 -0.37563602D-04  0.62070700D-04  0.58195227D-04  0.41438468D-04
  0.14704481D-04  0.13786385D-04  0.98167277D-05  0.92903786D-03 -0.22700761D-02
 -0.54289819D-03 -0.62721615D-03  0.14851692D-03  0.34128007D-04  0.11713519D-04
 -0.11697835D-04 -0.27146245D-05 -0.53004321D-03  0.87075029D-03 -0.34070708D-03
 -0.13019753D-02 -0.31422450D-03  0.61155751D-03  0.12840117D-03 -0.12874653D-05
 -0.12711370D-03 -0.16303261D-03 -0.39148533D-04  0.66527156D-04  0.12857255D-03
 -0.82826409D-04 -0.45746138D-04 -0.23077457D-03 -0.54308273D-04 -0.20474952D-04
  0.10552341D-03 -0.11898546D-03  0.70573338D-04 -0.13780282D-03  0.11485703D-03
  0.31509254D-04 -0.17876741D-03  0.24209935D-03 -0.24322927D-03  0.20468980D-04
  0.71489870D-04  0.22222565D-03 -0.25990207D-04 -0.14727704D-03 -0.59935118D-03
 -0.14328400D-03 -0.67192567D-04 -0.67325764D-04  0.22125463D-03 -0.51494708D-04
  0.19914621D-03  0.37118291D-03  0.62940324D-03  0.95263111D-03  0.11886055D-02
  0.10208536D-02  0.39192555D-03 -0.17531070D-05 -0.12249901D-03 -0.22974993D-03
 -0.39167327D-03 -0.61210909D-03 -0.81850648D-03 -0.87397409D-03 -0.53433062D-03
  0.35251889D-03 -0.10980084D-04  0.28630441D-03  0.41287614D-03  0.15879858D-04
  0.15398120D-04  0.10387481D-04  0.15449436D-03  0.14980756D-03  0.10105930D-03
  0.35087985D-04  0.34023542D-04  0.22952081D-04 -0.84270181D-04 -0.42597247D-03
 -0.10075545D-03  0.38520231D-03 -0.29608619D-03 -0.67301126D-04 -0.43837943D-04
 -0.16712948D-04 -0.42205884D-05 -0.57178391D-04  0.42568567D-03 -0.36850728D-03
 -0.48388571D-03 -0.11482214D-03  0.40711912D-03  0.37456770D-04 -0.16526161D-03
  0.12780484D-03  0.48051309D-03  0.11503807D-03 -0.14934599D-03 -0.13027461D-03
  0.77372784D-04  0.52901825D-04  0.86130459D-04  0.18859119D-04  0.12413236D-04
 -0.13462076D-03 -0.60206819D-04  0.18235954D-04  0.24411186D-03  0.12248180D-03
  0.29325850D-04  0.15975043D-03  0.58138660D-04 -0.84033711D-04  0.46016692D-04
  0.73381325D-04  0.11809551D-03 -0.30196463D-04 -0.17340063D-03 -0.25936773D-03
 -0.62426701D-04 -0.46743345D-04 -0.94918795D-04  0.15301609D-03 -0.67364629D-04
  0.49790954D+00  0.92803932D+00  0.15736472D+01  0.23817883D+01  0.29717764D+01
  0.25523596D+01  0.97990048D+00 -0.43831550D-02 -0.53971488D-03 -0.10122486D-02
 -0.17256620D-02 -0.26968738D-02 -0.36062342D-02 -0.38506173D-02 -0.23541919D-02
  0.15531529D-02  0.53593140D-01 -0.75698178D-03 -0.16651531D-03  0.37631444D-02
  0.36489842D-02  0.24615832D-02  0.64988242D-02  0.63016734D-02  0.42510716D-02
  0.16043478D-02  0.15556776D-02  0.10494510D-02  0.88100617D-03 -0.74816487D-03
 -0.17614631D-03 -0.67670125D-03 -0.14593438D-02 -0.35850783D-03 -0.30902506D-04
 -0.22673322D-04 -0.57583645D-05  0.13578530D-02  0.47458438D-03 -0.18324374D-02
 -0.21423145D-03  0.28359587D-05  0.11865876D-02  0.31616609D-03 -0.87304426D-03
  0.55687817D-03  0.69824346D-03  0.16181871D-03 -0.72817985D-03  0.33514235D-04
 -0.22944219D-03  0.19592796D-03 -0.62629192D-04 -0.18964869D-04 -0.21945815D-03
  0.10303986D-02 -0.36163910D-04 -0.81698194D-04 -0.14613245D-02  0.36540780D-03
  0.13428963D-03 -0.16298713D-02 -0.25691607D-03  0.11080495D-03  0.97870673D-04
 -0.30838022D-03 -0.16718388D-03  0.11525728D-03  0.66181588D-03  0.11227760D-03
  0.15474379D-04  0.26332479D-03  0.38927406D-03 -0.36124622D-03  0.19756057D-03
  0.17698109D-03  0.31919269D-03  0.47064944D-03  0.35435551D-03 -0.91676523D-03
 -0.22323520D-04  0.60917627D-03  0.38028203D-04  0.13255666D-04  0.65199131D-03
 -0.46451592D-04 -0.37231565D-05  0.17915884D-03 -0.14568829D-03 -0.33465414D-04
 -0.20026833D-02  0.98083169D-03  0.10218516D-02 -0.25174691D-03 -0.10503864D-03
 -0.23658782D-04 -0.50485239D-04 -0.92667117D-05  0.59751951D-04  0.65420009D-04
  0.13584298D-04 -0.34918796D-04  0.13657834D-03  0.25461307D-03  0.43034095D-03
  0.64694341D-03  0.79484473D-03  0.67137344D-03  0.25321736D-03 -0.12531868D-05
 -0.10089692D-03 -0.18891086D-03 -0.32163690D-03 -0.49752338D-03 -0.65522080D-03
 -0.68081638D-03 -0.43262824D-03  0.28993739D-03  0.36750455D-03 -0.45195724D-02
 -0.22268438D-03 -0.17897813D-03 -0.16780338D-03 -0.11948600D-03 -0.38889480D-04
 -0.36461360D-04 -0.25962660D-04 -0.11460364D-04 -0.10744820D-04 -0.76509520D-05
  0.59100444D-03 -0.10056594D-03 -0.16913190D-04 -0.65459720D-03 -0.10036027D-03
 -0.31574345D-04 -0.18673246D-04 -0.13859294D-05 -0.61054341D-06  0.58275145D-05
  0.43842139D-04 -0.49669653D-04 -0.21885123D-03 -0.55384414D-04  0.46163170D-04
  0.44354215D-03 -0.43293968D-03 -0.10602465D-04  0.99017684D-03  0.24537572D-03
 -0.19143823D-03 -0.93781966D-05  0.26694635D-04 -0.17316438D-04 -0.44752068D-04
 -0.11218142D-04  0.20680534D-04 -0.22111064D-04 -0.15298228D-03  0.31481842D-04
  0.91917956D-04  0.34981788D-03  0.81361754D-04 -0.25584764D-04  0.10912895D-03
 -0.17580728D-03  0.53928625D-04  0.14678368D-04 -0.12106413D-03  0.59766902D-04
 -0.14876194D-04  0.14418294D-03  0.33346306D-04 -0.29158909D-04  0.21900946D-03
 -0.21264701D-03 -0.70867314D-05  0.11150874D-04  0.20111061D-04  0.29653748D-04
  0.22110683D-02 -0.34841254D-03  0.12467401D-04  0.67620213D-04 -0.20081274D-03
 -0.45106857D-04  0.48183540D-03 -0.67588683D-03 -0.14205234D-03 -0.67831845D-05
  0.26570104D-04  0.65222827D-05  0.12742818D-04  0.61704362D-04 -0.74447180D-04
 -0.19471758D-03 -0.38616853D-04  0.58449669D-04 -0.77375083D-05  0.12213590D-04
 -0.44760814D-05 -0.19671820D-04 -0.10305021D-05  0.81957891D-05 -0.93763936D-05
 -0.16910712D-04 -0.24934835D-04  0.85088247D-03  0.57202493D-03 -0.54371810D-05
  0.30253055D-05  0.81555376D-05  0.14992064D-03  0.39708131D-03  0.60253395D-04
  0.28967375D-04  0.77165166D-04  0.48302916D-04  0.44157104D-04  0.12673378D-03
 -0.84699063D-04 -0.42034720D-04 -0.46936337D-04  0.22095911D-03  0.69267685D-04
  0.39667012D-04 -0.12923277D-04 -0.26743734D-04 -0.43038787D-05 -0.15545101D-04
  0.15875157D-04 -0.89280794D-05 -0.16102159D-04 -0.23742624D-04  0.88697017D-03
  0.56092701D-03 -0.44624703D-05  0.38933351D-05  0.76288494D-04 -0.12940097D-03
  0.38393233D-03  0.58001272D-04 -0.25889680D-04  0.75904964D-04  0.58815267D-04
 -0.19268543D-04  0.12159317D-03 -0.53617364D-04 -0.67975806D-04  0.42102952D-04
 -0.21671830D-03 -0.80617524D-04  0.38975654D-04 -0.93923574D-05 -0.29583297D-04
 -0.13887813D-04  0.11724160D-04  0.10751139D-05
MO    2     MO 0.0        OCC NO =    2.0000000  ORB. ENERGY =  -18.945182
  0.52612112D-03  0.98080939D-03  0.16577407D-02  0.24921272D-02  0.30618662D-02
  0.25862355D-02  0.97543288D-03 -0.48274717D-05 -0.40357441D-03 -0.75561864D-03
 -0.12865054D-02 -0.19900282D-02 -0.26207971D-02 -0.27231761D-02 -0.17304562D-02
  0.11597115D-02  0.13777649D-02 -0.37538679D-03 -0.34668576D-03  0.50745138D-03
  0.47576793D-03  0.33877511D-03  0.81230158D-03  0.76158437D-03  0.54229344D-03
  0.20095372D-03  0.18840688D-03  0.13415693D-03  0.13741092D-02  0.13769748D-02
  0.34063197D-03 -0.10570829D-02 -0.15242765D-03 -0.42956787D-04  0.71607422D-05
  0.88240277D-06  0.43685550D-06  0.80572946D-04  0.20919651D-03 -0.28976945D-03
  0.12746614D-02  0.31250776D-03  0.26451823D-03 -0.23979516D-03 -0.13616073D-03
  0.37595589D-03 -0.85075809D-03 -0.20949815D-03 -0.26795426D-03  0.64044070D-04
 -0.91633037D-04  0.27588967D-04 -0.25775385D-03 -0.62063243D-04 -0.62153654D-04
  0.40501339D-03  0.14943820D-03  0.69769427D-04 -0.12573266D-02 -0.71301269D-03
 -0.16890220D-03  0.42286412D-04  0.26469810D-03 -0.40406082D-04 -0.67529362D-03
  0.22256267D-03  0.98161501D-04  0.19749842D-04 -0.77251919D-03 -0.37087498D-03
 -0.88321123D-04  0.10483118D-03  0.76390478D-04  0.29071595D-04 -0.45485554D-03
  0.49786402D+00  0.92795448D+00  0.15735033D+01  0.23815706D+01  0.29715048D+01
  0.25521263D+01  0.97981091D+00 -0.43827543D-02 -0.50210279D-03 -0.94170622D-03
 -0.16054027D-02 -0.25089319D-02 -0.33549200D-02 -0.35822724D-02 -0.21901311D-02
  0.14449155D-02  0.53675796D-01  0.12627186D-02  0.47891519D-03 -0.45824193D-02
 -0.44434052D-02 -0.29974949D-02 -0.63486296D-02 -0.61560352D-02 -0.41528250D-02
 -0.15619138D-02 -0.15145310D-02 -0.10216936D-02 -0.60272475D-04 -0.15403087D-03
 -0.35381668D-04  0.10824529D-02  0.91726196D-03  0.22565577D-03  0.76528614D-06
 -0.24090238D-05 -0.86813910D-06  0.10268803D-02  0.14425332D-02 -0.24694135D-02
  0.26003305D-02  0.67988268D-03  0.20204565D-02 -0.29482252D-03 -0.39085698D-03
  0.68567950D-03 -0.10030382D-02 -0.25582329D-03 -0.55702324D-03 -0.12217284D-03
 -0.11939589D-03  0.24156873D-03 -0.50858635D-03 -0.12637710D-03 -0.18781844D-03
 -0.18981288D-04 -0.21905539D-04  0.90157933D-04 -0.28863887D-03 -0.25732455D-03
 -0.61342169D-04  0.34558273D-03  0.32304117D-03 -0.20913163D-03 -0.33800150D-03
  0.83546923D-05  0.41189525D-04 -0.11439125D-03  0.35039734D-03  0.27733163D-03
  0.71707053D-04 -0.37546142D-03 -0.40090020D-03  0.27146671D-03  0.38097100D-03
  0.20165283D-03  0.37585493D-03  0.63732543D-03  0.96462172D-03  0.12035663D-02
  0.10337029D-02  0.39685865D-03 -0.17751731D-05 -0.15299925D-03 -0.28695389D-03
 -0.48919347D-03 -0.76451417D-03 -0.10223011D-02 -0.10915792D-02 -0.66737015D-03
  0.44029029D-03 -0.86362702D-04  0.12111302D-02  0.44577525D-03  0.28669820D-03
  0.27800081D-03  0.18753771D-03 -0.42286560D-03 -0.41003739D-03 -0.27660880D-03
 -0.10137705D-03 -0.98301636D-04 -0.66313703D-04 -0.51496262D-03  0.79822753D-03
  0.19063832D-03 -0.75855225D-04  0.22498582D-03  0.54788341D-04 -0.43247306D-04
  0.18251171D-04  0.40111062D-05 -0.13601226D-03  0.54533403D-03 -0.40932177D-03
  0.80105838D-03  0.19919118D-03  0.49064935D-03 -0.15336194D-03  0.21337852D-04
  0.13202409D-03 -0.81125622D-03 -0.20156439D-03 -0.59317182D-04  0.22222202D-04
 -0.15101162D-04 -0.71210397D-05 -0.10773591D-03 -0.25980348D-04 -0.49961113D-05
 -0.28955418D-03  0.15522291D-03 -0.48064894D-04  0.29480380D-03 -0.29973244D-03
 -0.85437758D-04  0.57385876D-03 -0.16593629D-03  0.22963244D-03 -0.14673044D-03
  0.19304272D-03 -0.25887555D-04  0.34743772D-04 -0.42330828D-03 -0.47025873D-04
 -0.68651603D-05 -0.15581987D-03  0.12468854D-03 -0.97366156D-04 -0.14004929D-03
 -0.21331448D-04 -0.38472144D-04 -0.56727154D-04 -0.90907107D-04 -0.48746917D-03
  0.72759234D-05 -0.23495150D-03  0.36431574D-03  0.86145282D-04 -0.57446700D-04
 -0.45064346D-05  0.20001965D-06  0.85177931D-04 -0.73460780D-04 -0.16660959D-04
  0.24076304D-03 -0.14382612D-03 -0.96936915D-04 -0.29148195D-03 -0.67214276D-04
 -0.27646380D-04  0.33476715D-04 -0.39725935D-04  0.62492193D-05  0.60254255D-04
  0.14264410D-04 -0.22687472D-04  0.17951705D-03  0.33466060D-03  0.56563536D-03
  0.85033523D-03  0.10447351D-02  0.88244579D-03  0.33282608D-03 -0.16471749D-05
 -0.13027505D-03 -0.24391600D-03 -0.41528786D-03 -0.64238717D-03 -0.84600130D-03
 -0.87904954D-03 -0.55859652D-03  0.37435840D-03  0.20087374D-03 -0.20292168D-02
  0.14832331D-03 -0.19037140D-03 -0.17848529D-03 -0.12709216D-03  0.95694359D-05
  0.89719544D-05  0.63885660D-05  0.51035371D-06  0.47848905D-06  0.34071271D-06
  0.14081343D-02  0.94370010D-05  0.95084783D-05 -0.46539914D-03  0.17888872D-03
  0.31668807D-04  0.63068858D-05  0.14531632D-04  0.31689258D-05  0.37638262D-03
 -0.81962701D-04 -0.29441992D-03  0.37087137D-03  0.91302607D-04  0.11381686D-03
  0.50797847D-03 -0.46053866D-03 -0.47439809D-04 -0.40948177D-03 -0.81693925D-04
 -0.20844075D-03 -0.12454887D-04  0.39532695D-04 -0.27077808D-04 -0.12269036D-03
 -0.27936029D-04  0.33072571D-04  0.90983773D-04 -0.12168188D-03  0.40760321D-04
 -0.31529524D-03  0.21531390D-03  0.45149158D-04  0.42343918D-04  0.14973174D-03
 -0.16743012D-03 -0.18035146D-03  0.51565481D-04 -0.24053054D-04  0.19265652D-04
 -0.31841679D-03 -0.54030758D-05 -0.43029715D-05  0.16372035D-03  0.77562239D-04
 -0.53493984D-04 -0.24403548D-03 -0.23545903D-04 -0.42466006D-04 -0.62616100D-04
  0.46871140D-03 -0.97617888D-03 -0.27930865D-04  0.25156402D-04 -0.15074447D-04
  0.13011476D-05  0.85975514D-03 -0.24059238D-03 -0.61673994D-04  0.68051798D-04
  0.89642045D-04  0.17654985D-04  0.23876360D-03 -0.10508218D-03 -0.13368142D-03
 -0.58765314D-03 -0.12442877D-03  0.16300785D-04  0.69694879D-05  0.13395176D-04
 -0.20364664D-04 -0.10751738D-03 -0.22170605D-04  0.16730689D-04  0.49392817D-05
  0.89081979D-05  0.13135133D-04  0.74298255D-03  0.45182068D-03  0.16779382D-04
 -0.67690287D-05 -0.32021951D-04  0.98771922D-04  0.10422555D-03  0.16541148D-03
  0.28446604D-03  0.66917339D-05  0.16399642D-04  0.71157711D-04 -0.89830873D-04
 -0.11902030D-04  0.10173290D-03 -0.11098094D-03  0.58909413D-04  0.11606416D-03
 -0.11855452D-04 -0.92424827D-05  0.21097935D-04 -0.56029366D-04  0.38067331D-04
  0.27573569D-04  0.37979128D-05  0.68496921D-05  0.10099867D-04  0.76217017D-03
  0.45593311D-03  0.16875605D-04 -0.12620953D-04  0.13140928D-04 -0.10970495D-03
  0.91271558D-04  0.28078709D-03 -0.18528529D-03  0.63645458D-05  0.44239396D-04
 -0.57762127D-04 -0.93720019D-04  0.55475395D-04  0.38244625D-04 -0.73343918D-04
 -0.86645905D-04 -0.17121976D-03 -0.98764122D-05  0.63435204D-05  0.35328919D-05
 -0.31276285D-04 -0.54299526D-04 -0.41891393D-04
MO    3     MO 0.0        OCC NO =    2.0000000  ORB. ENERGY =  -10.169328
  0.33091852D+00  0.61690735D+00  0.10426821D+01  0.15674927D+01  0.19258459D+01
  0.16266848D+01  0.61352564D+00 -0.30363727D-02 -0.37125378D-02 -0.69510422D-02
 -0.11834744D-01 -0.18306550D-01 -0.24109082D-01 -0.25050880D-01 -0.15918710D-01
  0.10668349D-01  0.33182536D-01  0.66499132D-02 -0.29430844D-03  0.15291788D-02
  0.14337023D-02  0.10208815D-02 -0.11336010D-02 -0.10628230D-02 -0.75679328D-03
 -0.27010337D-03 -0.25323908D-03 -0.18032131D-03  0.28047272D-02  0.22863631D-02
  0.57920351D-03 -0.43237696D-02 -0.48406744D-03 -0.13584428D-03  0.31718079D-04
 -0.21957572D-04 -0.46804840D-05  0.15769222D-02  0.28099871D-02 -0.43869093D-02
  0.35795160D-02  0.93059948D-03  0.37269279D-02 -0.58093727D-03  0.59643627D-03
 -0.15498997D-04  0.32653591D-03  0.86581710D-04  0.31482835D-03  0.27520935D-03
 -0.28852454D-03  0.13315183D-04 -0.53158725D-03 -0.12562564D-03 -0.15738726D-03
 -0.12052115D-02 -0.31874635D-03 -0.17018687D-03  0.44938703D-02  0.15621275D-02
  0.37152802D-03 -0.87823585D-03 -0.60588841D-03  0.13903258D-03  0.27938878D-02
  0.28602602D-03 -0.17953380D-04  0.76176292D-05 -0.13108476D-02  0.40217626D-04
  0.59671982D-05  0.45276958D-03  0.13642512D-04 -0.28820086D-04 -0.89659695D-03
  0.41713729D-03  0.77749023D-03  0.13183658D-02  0.19954081D-02  0.24896867D-02
  0.21383088D-02  0.82093833D-03 -0.36721075D-05 -0.36856568D-03 -0.69125406D-03
 -0.11784366D-02 -0.18416671D-02 -0.24626598D-02 -0.26295465D-02 -0.16076532D-02
  0.10606319D-02  0.10771309D-02 -0.97814182D-03  0.10967684D-02 -0.16900516D-02
 -0.16387816D-02 -0.11055124D-02 -0.22043823D-02 -0.21375094D-02 -0.14419512D-02
 -0.53976659D-03 -0.52339203D-03 -0.35307717D-03  0.18681516D-02  0.26314038D-02
  0.64258354D-03  0.28146357D-02  0.29722063D-02  0.72097079D-03 -0.48041125D-04
  0.15117410D-04  0.23661473D-05  0.28479462D-03  0.10078492D-03 -0.38557954D-03
  0.11077217D-02  0.28013661D-03  0.24182364D-03 -0.28395297D-03 -0.11335741D-02
  0.14175271D-02 -0.45020037D-02 -0.11071078D-02 -0.13259057D-02 -0.24568533D-03
 -0.29364870D-03  0.53933403D-03 -0.12437908D-02 -0.30530810D-03 -0.43246567D-03
 -0.60028384D-03 -0.10639146D-03 -0.10255524D-03  0.16590136D-02  0.70533086D-03
  0.15940254D-03  0.14183791D-03 -0.38615647D-03  0.14826319D-03  0.78664351D-03
 -0.12974621D-03 -0.37205459D-04 -0.17602236D-03  0.11180843D-02  0.73739568D-03
  0.18516065D-03 -0.72884569D-03 -0.62577930D-03  0.34290643D-03  0.96244909D-03
  0.38358301D-03  0.71494937D-03  0.12123172D-02  0.18348986D-02  0.22894177D-02
  0.19663045D-02  0.75490254D-03 -0.33767254D-05 -0.30291752D-03 -0.56812931D-03
 -0.96853592D-03 -0.15136331D-02 -0.20240159D-02 -0.21611771D-02 -0.13213013D-02
  0.87171435D-03  0.64979733D-03 -0.45351568D-03  0.56929329D-03 -0.33560442D-03
 -0.32542340D-03 -0.21952870D-03  0.11383741D-02  0.11038400D-02  0.74464392D-03
  0.27157960D-03  0.26334086D-03  0.17764819D-03 -0.40813414D-03 -0.21175578D-04
 -0.70271428D-05  0.24170469D-02 -0.97797443D-03 -0.22308246D-03 -0.82537618D-04
  0.11616343D-04  0.17636162D-05 -0.67120096D-03  0.14738432D-02 -0.80264222D-03
 -0.30412633D-02 -0.73371963D-03  0.11532028D-02  0.33615756D-03 -0.12420087D-02
  0.90585115D-03  0.25901961D-02  0.62277101D-03 -0.10890093D-02  0.11729545D-03
 -0.27734595D-03  0.16005050D-03  0.12632092D-02  0.30886991D-03 -0.21818639D-03
 -0.50873012D-03 -0.48675139D-03  0.22764316D-03  0.13403478D-02  0.71310242D-03
  0.14750889D-03  0.18584256D-03  0.74715176D-03 -0.83043839D-03  0.58292802D-03
 -0.22950636D-03 -0.43642347D-03  0.13393765D-03  0.10561747D-02  0.86105629D-03
  0.21835902D-03 -0.36765562D-03  0.44821412D-03 -0.62017199D-03  0.74161386D-03
 -0.36978146D-04 -0.66691610D-04 -0.98336740D-04 -0.75592553D-03 -0.99586396D-03
 -0.14601761D-04  0.23087061D-03 -0.78368724D-03 -0.19135469D-03 -0.52546105D-03
 -0.62114106D-03 -0.16008388D-03  0.11626781D-03 -0.21164860D-03 -0.50032667D-04
  0.29967225D-03 -0.43443042D-04 -0.25622921D-03  0.11253380D-02  0.28860289D-03
  0.11796926D-03  0.98972076D-04  0.44647384D-04 -0.14361946D-03  0.66262540D-04
  0.19683282D-04  0.98857236D-04  0.34620592D-03  0.64540655D-03  0.10908508D-02
  0.16399060D-02  0.20148140D-02  0.17018325D-02  0.64186862D-03 -0.31766436D-05
 -0.85013170D-04 -0.15917148D-03 -0.27100306D-03 -0.41920053D-03 -0.55207235D-03
 -0.57363853D-03 -0.36452154D-03  0.24429386D-03  0.68763399D-03 -0.50184016D-02
  0.61707867D-04  0.77066494D-03  0.72254737D-03  0.51449677D-03  0.77067189D-04
  0.72255388D-04  0.51450141D-04  0.18626910D-04  0.17463912D-04  0.12435345D-04
  0.11568337D-02 -0.28667580D-03 -0.64986992D-04 -0.24828633D-02  0.76154160D-04
 -0.55642540D-05 -0.32849360D-05  0.36812366D-04  0.83906722D-05  0.57542033D-03
 -0.23209778D-03 -0.34332255D-03  0.32232385D-03  0.75064947D-04  0.70583166D-04
 -0.12250896D-02  0.45453662D-03  0.77055298D-03 -0.68894760D-03 -0.17038727D-03
 -0.16793188D-03 -0.11666577D-03  0.13589247D-03 -0.19226700D-04 -0.13253449D-03
 -0.30005606D-04  0.79228363D-04 -0.90049416D-03  0.33954774D-04  0.32009536D-04
  0.16763257D-02 -0.21299717D-03 -0.69613430D-04  0.10251568D-02  0.11113285D-03
 -0.26415179D-04  0.32555443D-03 -0.12945199D-03  0.13665124D-03 -0.10006699D-03
 -0.26632603D-03 -0.27193296D-05 -0.85001728D-05  0.65468201D-03 -0.40723440D-03
  0.30870113D-03 -0.44799737D-03 -0.52537287D-04 -0.94753160D-04 -0.13971348D-03
 -0.10666090D-02 -0.22349173D-02 -0.55365524D-04  0.53131932D-04 -0.11495555D-03
 -0.18372881D-04 -0.37455646D-03 -0.40077792D-03 -0.90658653D-04 -0.10817498D-03
  0.19728287D-03  0.37284605D-04 -0.46432132D-03  0.57689528D-03 -0.11257396D-03
  0.42270304D-03  0.10061213D-03  0.31680354D-03 -0.20490974D-03  0.11323094D-03
  0.91678805D-04 -0.24318459D-04 -0.48749611D-05  0.12486563D-04 -0.37854385D-04
 -0.68271943D-04 -0.10066694D-03  0.21789518D-04 -0.40029334D-03  0.32580502D-04