 Molden2AIM, Version 4.0.0 (06/02/2016)           Time: Sat Jun 30 02:58:37 2018
GAUSSIAN             29 MOL ORBITALS    623 PRIMITIVES        9 NUCLEI
  H    1    (CENTRE  1)   2.12830027 -3.39317522  0.00000000  CHARGE =  1.0
  H    2    (CENTRE  2)   3.83293339 -0.58426741  0.00000000  CHARGE =  1.0
  H    3    (CENTRE  3)  -4.02671535 -0.43340680  0.00000000  CHARGE =  1.0
  H    4    (CENTRE  4)  -2.43236476 -2.89029642  1.68076210  CHARGE =  1.0
  H    5    (CENTRE  5)  -2.43236287 -2.89029642 -1.68076210  CHARGE =  1.0
  C    6    (CENTRE  6)   0.01155756 -0.12838610  0.00000000  CHARGE =  6.0
  C    7    (CENTRE  7)  -2.37150802 -1.66476179  0.00000000  CHARGE =  6.0
  Se   8    (CENTRE  8)   0.03718603  3.27682478  0.00000000  CHARGE = 34.0
  N    9    (CENTRE  9)   2.15097509 -1.48433074  0.00000000  CHARGE =  7.0
CENTRE ASSIGNMENTS    1  1  1  1  1  1  1  1  1  1  1  1  1  1  1  1  1  1  1  1
CENTRE ASSIGNMENTS    1  1  1  1  1  1  1  2  2  2  2  2  2  2  2  2  2  2  2  2
CENTRE ASSIGNMENTS    2  2  2  2  2  2  2  2  2  2  2  2  2  2  3  3  3  3  3  3
CENTRE ASSIGNMENTS    3  3  3  3  3  3  3  3  3  3  3  3  3  3  3  3  3  3  3  3
CENTRE ASSIGNMENTS    3  4  4  4  4  4  4  4  4  4  4  4  4  4  4  4  4  4  4  4
CENTRE ASSIGNMENTS    4  4  4  4  4  4  4  4  5  5  5  5  5  5  5  5  5  5  5  5
CENTRE ASSIGNMENTS    5  5  5  5  5  5  5  5  5  5  5  5  5  5  5  6  6  6  6  6
CENTRE ASSIGNMENTS    6  6  6  6  6  6  6  6  6  6  6  6  6  6  6  6  6  6  6  6
CENTRE ASSIGNMENTS    6  6  6  6  6  6  6  6  6  6  6  6  6  6  6  6  6  6  6  6
CENTRE ASSIGNMENTS    6  6  6  6  6  6  6  6  6  6  6  6  6  6  6  6  6  6  6  6
CENTRE ASSIGNMENTS    6  6  6  6  6  6  6  6  6  6  7  7  7  7  7  7  7  7  7  7
CENTRE ASSIGNMENTS    7  7  7  7  7  7  7  7  7  7  7  7  7  7  7  7  7  7  7  7
CENTRE ASSIGNMENTS    7  7  7  7  7  7  7  7  7  7  7  7  7  7  7  7  7  7  7  7
CENTRE ASSIGNMENTS    7  7  7  7  7  7  7  7  7  7  7  7  7  7  7  7  7  7  7  7
CENTRE ASSIGNMENTS    7  7  7  7  7  8  8  8  8  8  8  8  8  8  8  8  8  8  8  8
CENTRE ASSIGNMENTS    8  8  8  8  8  8  8  8  8  8  8  8  8  8  8  8  8  8  8  8
CENTRE ASSIGNMENTS    8  8  8  8  8  8  8  8  8  8  8  8  8  8  8  8  8  8  8  8
CENTRE ASSIGNMENTS    8  8  8  8  8  8  8  8  8  8  8  8  8  8  8  8  8  8  8  8
CENTRE ASSIGNMENTS    8  8  8  8  8  8  8  8  8  8  8  8  8  8  8  8  8  8  8  8
CENTRE ASSIGNMENTS    8  8  8  8  8  8  8  8  8  8  8  8  8  8  8  8  8  8  8  8
CENTRE ASSIGNMENTS    8  8  8  8  8  8  8  8  8  8  8  8  8  8  8  8  8  8  8  8
CENTRE ASSIGNMENTS    8  8  8  8  8  8  8  8  8  8  8  8  8  8  8  8  8  8  8  8
CENTRE ASSIGNMENTS    8  8  8  8  8  8  8  8  8  8  8  8  8  8  8  8  8  8  8  8
CENTRE ASSIGNMENTS    8  8  8  8  8  8  8  8  8  8  8  8  8  8  8  8  8  8  8  8
CENTRE ASSIGNMENTS    8  8  8  8  8  8  8  8  8  8  8  8  8  8  8  8  8  8  8  8
CENTRE ASSIGNMENTS    8  8  8  8  8  8  8  8  8  8  8  8  8  8  8  8  8  8  8  8
CENTRE ASSIGNMENTS    8  8  8  8  8  8  8  8  8  8  8  8  8  8  8  8  8  8  8  8
CENTRE ASSIGNMENTS    8  8  8  8  8  8  8  8  9  9  9  9  9  9  9  9  9  9  9  9
CENTRE ASSIGNMENTS    9  9  9  9  9  9  9  9  9  9  9  9  9  9  9  9  9  9  9  9
CENTRE ASSIGNMENTS    9  9  9  9  9  9  9  9  9  9  9  9  9  9  9  9  9  9  9  9
CENTRE ASSIGNMENTS    9  9  9  9  9  9  9  9  9  9  9  9  9  9  9  9  9  9  9  9
CENTRE ASSIGNMENTS    9  9  9
TYPE ASSIGNMENTS      1  1  1  1  1  1  2  3  4  2  3  4  2  3  4  5  6  7  8  9
TYPE ASSIGNMENTS     10  5  6  7  8  9 10  1  1  1  1  1  1  2  3  4  2  3  4  2
TYPE ASSIGNMENTS      3  4  5  6  7  8  9 10  5  6  7  8  9 10  1  1  1  1  1  1
TYPE ASSIGNMENTS      2  3  4  2  3  4  2  3  4  5  6  7  8  9 10  5  6  7  8  9
TYPE ASSIGNMENTS     10  1  1  1  1  1  1  2  3  4  2  3  4  2  3  4  5  6  7  8
TYPE ASSIGNMENTS      9 10  5  6  7  8  9 10  1  1  1  1  1  1  2  3  4  2  3  4
TYPE ASSIGNMENTS      2  3  4  5  6  7  8  9 10  5  6  7  8  9 10  1  1  1  1  1
TYPE ASSIGNMENTS      1  1  1  1  1  1  1  1  1  1  1  1  1  1  2  2  2  3  3  3
TYPE ASSIGNMENTS      4  4  4  2  3  4  2  3  4  2  3  4  5  6  7  8  9 10  5  6
TYPE ASSIGNMENTS      7  8  9 10  5  6  7  8  9 10 11 12 13 17 14 15 18 19 16 20
TYPE ASSIGNMENTS     11 12 13 17 14 15 18 19 16 20  1  1  1  1  1  1  1  1  1  1
TYPE ASSIGNMENTS      1  1  1  1  1  1  1  1  1  2  2  2  3  3  3  4  4  4  2  3
TYPE ASSIGNMENTS      4  2  3  4  2  3  4  5  6  7  8  9 10  5  6  7  8  9 10  5
TYPE ASSIGNMENTS      6  7  8  9 10 11 12 13 17 14 15 18 19 16 20 11 12 13 17 14
TYPE ASSIGNMENTS     15 18 19 16 20  1  1  1  1  1  1  1  1  1  1  1  1  1  1  1
TYPE ASSIGNMENTS      1  1  1  1  1  1  1  1  1  1  1  1  1  1  1  1  1  1  1  1
TYPE ASSIGNMENTS      1  1  1  1  1  1  1  1  1  1  1  1  1  1  1  1  1  1  1  1
TYPE ASSIGNMENTS      1  1  1  1  1  1  1  1  1  1  1  1  1  1  1  1  1  1  1  1
TYPE ASSIGNMENTS      2  2  2  2  2  2  2  2  2  2  2  3  3  3  3  3  3  3  3  3
TYPE ASSIGNMENTS      3  3  4  4  4  4  4  4  4  4  4  4  4  2  2  2  2  2  2  2
TYPE ASSIGNMENTS      2  2  2  2  3  3  3  3  3  3  3  3  3  3  3  4  4  4  4  4
TYPE ASSIGNMENTS      4  4  4  4  4  4  2  2  2  2  2  2  2  2  2  2  2  3  3  3
TYPE ASSIGNMENTS      3  3  3  3  3  3  3  3  4  4  4  4  4  4  4  4  4  4  4  2
TYPE ASSIGNMENTS      3  4  2  3  4  2  3  4  5  5  5  5  5  5  5  6  6  6  6  6
TYPE ASSIGNMENTS      6  6  7  7  7  7  7  7  7  8  8  8  8  8  8  8  9  9  9  9
TYPE ASSIGNMENTS      9  9  9 10 10 10 10 10 10 10  5  6  7  8  9 10  5  6  7  8
TYPE ASSIGNMENTS      9 10  5  6  7  8  9 10 11 12 13 17 14 15 18 19 16 20 11 12
TYPE ASSIGNMENTS     13 17 14 15 18 19 16 20  1  1  1  1  1  1  1  1  1  1  1  1
TYPE ASSIGNMENTS      1  1  1  1  1  1  1  2  2  2  3  3  3  4  4  4  2  3  4  2
TYPE ASSIGNMENTS      3  4  2  3  4  5  6  7  8  9 10  5  6  7  8  9 10  5  6  7
TYPE ASSIGNMENTS      8  9 10 11 12 13 17 14 15 18 19 16 20 11 12 13 17 14 15 18
TYPE ASSIGNMENTS     19 16 20
EXPONENTS  0.3387000D+02 0.5095000D+01 0.1159000D+01 0.3258000D+00 0.1027000D+00
EXPONENTS  0.2526000D-01 0.1407000D+01 0.1407000D+01 0.1407000D+01 0.3880000D+00
EXPONENTS  0.3880000D+00 0.3880000D+00 0.1020000D+00 0.1020000D+00 0.1020000D+00
EXPONENTS  0.1057000D+01 0.1057000D+01 0.1057000D+01 0.1057000D+01 0.1057000D+01
EXPONENTS  0.1057000D+01 0.2470000D+00 0.2470000D+00 0.2470000D+00 0.2470000D+00
EXPONENTS  0.2470000D+00 0.2470000D+00 0.3387000D+02 0.5095000D+01 0.1159000D+01
EXPONENTS  0.3258000D+00 0.1027000D+00 0.2526000D-01 0.1407000D+01 0.1407000D+01
EXPONENTS  0.1407000D+01 0.3880000D+00 0.3880000D+00 0.3880000D+00 0.1020000D+00
EXPONENTS  0.1020000D+00 0.1020000D+00 0.1057000D+01 0.1057000D+01 0.1057000D+01
EXPONENTS  0.1057000D+01 0.1057000D+01 0.1057000D+01 0.2470000D+00 0.2470000D+00
EXPONENTS  0.2470000D+00 0.2470000D+00 0.2470000D+00 0.2470000D+00 0.3387000D+02
EXPONENTS  0.5095000D+01 0.1159000D+01 0.3258000D+00 0.1027000D+00 0.2526000D-01
EXPONENTS  0.1407000D+01 0.1407000D+01 0.1407000D+01 0.3880000D+00 0.3880000D+00
EXPONENTS  0.3880000D+00 0.1020000D+00 0.1020000D+00 0.1020000D+00 0.1057000D+01
EXPONENTS  0.1057000D+01 0.1057000D+01 0.1057000D+01 0.1057000D+01 0.1057000D+01
EXPONENTS  0.2470000D+00 0.2470000D+00 0.2470000D+00 0.2470000D+00 0.2470000D+00
EXPONENTS  0.2470000D+00 0.3387000D+02 0.5095000D+01 0.1159000D+01 0.3258000D+00
EXPONENTS  0.1027000D+00 0.2526000D-01 0.1407000D+01 0.1407000D+01 0.1407000D+01
EXPONENTS  0.3880000D+00 0.3880000D+00 0.3880000D+00 0.1020000D+00 0.1020000D+00
EXPONENTS  0.1020000D+00 0.1057000D+01 0.1057000D+01 0.1057000D+01 0.1057000D+01
EXPONENTS  0.1057000D+01 0.1057000D+01 0.2470000D+00 0.2470000D+00 0.2470000D+00
EXPONENTS  0.2470000D+00 0.2470000D+00 0.2470000D+00 0.3387000D+02 0.5095000D+01
EXPONENTS  0.1159000D+01 0.3258000D+00 0.1027000D+00 0.2526000D-01 0.1407000D+01
EXPONENTS  0.1407000D+01 0.1407000D+01 0.3880000D+00 0.3880000D+00 0.3880000D+00
EXPONENTS  0.1020000D+00 0.1020000D+00 0.1020000D+00 0.1057000D+01 0.1057000D+01
EXPONENTS  0.1057000D+01 0.1057000D+01 0.1057000D+01 0.1057000D+01 0.2470000D+00
EXPONENTS  0.2470000D+00 0.2470000D+00 0.2470000D+00 0.2470000D+00 0.2470000D+00
EXPONENTS  0.8236000D+04 0.1235000D+04 0.2808000D+03 0.7927000D+02 0.2559000D+02
EXPONENTS  0.8997000D+01 0.3319000D+01 0.3643000D+00 0.8236000D+04 0.1235000D+04
EXPONENTS  0.2808000D+03 0.7927000D+02 0.2559000D+02 0.8997000D+01 0.3319000D+01
EXPONENTS  0.3643000D+00 0.9059000D+00 0.1285000D+00 0.4402000D-01 0.1871000D+02
EXPONENTS  0.4133000D+01 0.1200000D+01 0.1871000D+02 0.4133000D+01 0.1200000D+01
EXPONENTS  0.1871000D+02 0.4133000D+01 0.1200000D+01 0.3827000D+00 0.3827000D+00
EXPONENTS  0.3827000D+00 0.1209000D+00 0.1209000D+00 0.1209000D+00 0.3569000D-01
EXPONENTS  0.3569000D-01 0.3569000D-01 0.1097000D+01 0.1097000D+01 0.1097000D+01
EXPONENTS  0.1097000D+01 0.1097000D+01 0.1097000D+01 0.3180000D+00 0.3180000D+00
EXPONENTS  0.3180000D+00 0.3180000D+00 0.3180000D+00 0.3180000D+00 0.1000000D+00
EXPONENTS  0.1000000D+00 0.1000000D+00 0.1000000D+00 0.1000000D+00 0.1000000D+00
EXPONENTS  0.7610000D+00 0.7610000D+00 0.7610000D+00 0.7610000D+00 0.7610000D+00
EXPONENTS  0.7610000D+00 0.7610000D+00 0.7610000D+00 0.7610000D+00 0.7610000D+00
EXPONENTS  0.2680000D+00 0.2680000D+00 0.2680000D+00 0.2680000D+00 0.2680000D+00
EXPONENTS  0.2680000D+00 0.2680000D+00 0.2680000D+00 0.2680000D+00 0.2680000D+00
EXPONENTS  0.8236000D+04 0.1235000D+04 0.2808000D+03 0.7927000D+02 0.2559000D+02
EXPONENTS  0.8997000D+01 0.3319000D+01 0.3643000D+00 0.8236000D+04 0.1235000D+04
EXPONENTS  0.2808000D+03 0.7927000D+02 0.2559000D+02 0.8997000D+01 0.3319000D+01
EXPONENTS  0.3643000D+00 0.9059000D+00 0.1285000D+00 0.4402000D-01 0.1871000D+02
EXPONENTS  0.4133000D+01 0.1200000D+01 0.1871000D+02 0.4133000D+01 0.1200000D+01
EXPONENTS  0.1871000D+02 0.4133000D+01 0.1200000D+01 0.3827000D+00 0.3827000D+00
EXPONENTS  0.3827000D+00 0.1209000D+00 0.1209000D+00 0.1209000D+00 0.3569000D-01
EXPONENTS  0.3569000D-01 0.3569000D-01 0.1097000D+01 0.1097000D+01 0.1097000D+01
EXPONENTS  0.1097000D+01 0.1097000D+01 0.1097000D+01 0.3180000D+00 0.3180000D+00
EXPONENTS  0.3180000D+00 0.3180000D+00 0.3180000D+00 0.3180000D+00 0.1000000D+00
EXPONENTS  0.1000000D+00 0.1000000D+00 0.1000000D+00 0.1000000D+00 0.1000000D+00
EXPONENTS  0.7610000D+00 0.7610000D+00 0.7610000D+00 0.7610000D+00 0.7610000D+00
EXPONENTS  0.7610000D+00 0.7610000D+00 0.7610000D+00 0.7610000D+00 0.7610000D+00
EXPONENTS  0.2680000D+00 0.2680000D+00 0.2680000D+00 0.2680000D+00 0.2680000D+00
EXPONENTS  0.2680000D+00 0.2680000D+00 0.2680000D+00 0.2680000D+00 0.2680000D+00
EXPONENTS  0.9563600D+07 0.1432100D+07 0.3259100D+06 0.9231200D+05 0.3011600D+05
EXPONENTS  0.1087200D+05 0.4240100D+04 0.1758400D+04 0.7665900D+03 0.3484300D+03
EXPONENTS  0.1640300D+03 0.7914200D+02 0.3552400D+02 0.1730500D+02 0.8378400D+01
EXPONENTS  0.3740500D+01 0.1689000D+01 0.2552000D+00 0.9563600D+07 0.1432100D+07
EXPONENTS  0.3259100D+06 0.9231200D+05 0.3011600D+05 0.1087200D+05 0.4240100D+04
EXPONENTS  0.1758400D+04 0.7665900D+03 0.3484300D+03 0.1640300D+03 0.7914200D+02
EXPONENTS  0.3552400D+02 0.1730500D+02 0.8378400D+01 0.3740500D+01 0.1689000D+01
EXPONENTS  0.2552000D+00 0.9563600D+07 0.1432100D+07 0.3259100D+06 0.9231200D+05
EXPONENTS  0.3011600D+05 0.1087200D+05 0.4240100D+04 0.1758400D+04 0.7665900D+03
EXPONENTS  0.3484300D+03 0.1640300D+03 0.7914200D+02 0.3552400D+02 0.1730500D+02
EXPONENTS  0.8378400D+01 0.3740500D+01 0.1689000D+01 0.2552000D+00 0.9563600D+07
EXPONENTS  0.1432100D+07 0.3259100D+06 0.9231200D+05 0.3011600D+05 0.1087200D+05
EXPONENTS  0.4240100D+04 0.1758400D+04 0.7665900D+03 0.3484300D+03 0.1640300D+03
EXPONENTS  0.7914200D+02 0.3552400D+02 0.1730500D+02 0.8378400D+01 0.3740500D+01
EXPONENTS  0.1689000D+01 0.2552000D+00 0.5092700D+00 0.1065100D+00 0.3920100D-01
EXPONENTS  0.8004300D+04 0.1896900D+04 0.6147100D+03 0.2335000D+03 0.9785600D+02
EXPONENTS  0.4351400D+02 0.2006300D+02 0.9112700D+01 0.4106300D+01 0.1794900D+01
EXPONENTS  0.2461500D+00 0.8004300D+04 0.1896900D+04 0.6147100D+03 0.2335000D+03
EXPONENTS  0.9785600D+02 0.4351400D+02 0.2006300D+02 0.9112700D+01 0.4106300D+01
EXPONENTS  0.1794900D+01 0.2461500D+00 0.8004300D+04 0.1896900D+04 0.6147100D+03
EXPONENTS  0.2335000D+03 0.9785600D+02 0.4351400D+02 0.2006300D+02 0.9112700D+01
EXPONENTS  0.4106300D+01 0.1794900D+01 0.2461500D+00 0.8004300D+04 0.1896900D+04
EXPONENTS  0.6147100D+03 0.2335000D+03 0.9785600D+02 0.4351400D+02 0.2006300D+02
EXPONENTS  0.9112700D+01 0.4106300D+01 0.1794900D+01 0.2461500D+00 0.8004300D+04
EXPONENTS  0.1896900D+04 0.6147100D+03 0.2335000D+03 0.9785600D+02 0.4351400D+02
EXPONENTS  0.2006300D+02 0.9112700D+01 0.4106300D+01 0.1794900D+01 0.2461500D+00
EXPONENTS  0.8004300D+04 0.1896900D+04 0.6147100D+03 0.2335000D+03 0.9785600D+02
EXPONENTS  0.4351400D+02 0.2006300D+02 0.9112700D+01 0.4106300D+01 0.1794900D+01
EXPONENTS  0.2461500D+00 0.8004300D+04 0.1896900D+04 0.6147100D+03 0.2335000D+03
EXPONENTS  0.9785600D+02 0.4351400D+02 0.2006300D+02 0.9112700D+01 0.4106300D+01
EXPONENTS  0.1794900D+01 0.2461500D+00 0.8004300D+04 0.1896900D+04 0.6147100D+03
EXPONENTS  0.2335000D+03 0.9785600D+02 0.4351400D+02 0.2006300D+02 0.9112700D+01
EXPONENTS  0.4106300D+01 0.1794900D+01 0.2461500D+00 0.8004300D+04 0.1896900D+04
EXPONENTS  0.6147100D+03 0.2335000D+03 0.9785600D+02 0.4351400D+02 0.2006300D+02
EXPONENTS  0.9112700D+01 0.4106300D+01 0.1794900D+01 0.2461500D+00 0.6243200D+00
EXPONENTS  0.6243200D+00 0.6243200D+00 0.8891700D-01 0.8891700D-01 0.8891700D-01
EXPONENTS  0.3025100D-01 0.3025100D-01 0.3025100D-01 0.3618500D+03 0.1085500D+03
EXPONENTS  0.4143300D+02 0.1757900D+02 0.7862700D+01 0.3518000D+01 0.1534800D+01
EXPONENTS  0.3618500D+03 0.1085500D+03 0.4143300D+02 0.1757900D+02 0.7862700D+01
EXPONENTS  0.3518000D+01 0.1534800D+01 0.3618500D+03 0.1085500D+03 0.4143300D+02
EXPONENTS  0.1757900D+02 0.7862700D+01 0.3518000D+01 0.1534800D+01 0.3618500D+03
EXPONENTS  0.1085500D+03 0.4143300D+02 0.1757900D+02 0.7862700D+01 0.3518000D+01
EXPONENTS  0.1534800D+01 0.3618500D+03 0.1085500D+03 0.4143300D+02 0.1757900D+02
EXPONENTS  0.7862700D+01 0.3518000D+01 0.1534800D+01 0.3618500D+03 0.1085500D+03
EXPONENTS  0.4143300D+02 0.1757900D+02 0.7862700D+01 0.3518000D+01 0.1534800D+01
EXPONENTS  0.6081300D+00 0.6081300D+00 0.6081300D+00 0.6081300D+00 0.6081300D+00
EXPONENTS  0.6081300D+00 0.2220000D+00 0.2220000D+00 0.2220000D+00 0.2220000D+00
EXPONENTS  0.2220000D+00 0.2220000D+00 0.8370000D-01 0.8370000D-01 0.8370000D-01
EXPONENTS  0.8370000D-01 0.8370000D-01 0.8370000D-01 0.4620000D+00 0.4620000D+00
EXPONENTS  0.4620000D+00 0.4620000D+00 0.4620000D+00 0.4620000D+00 0.4620000D+00
EXPONENTS  0.4620000D+00 0.4620000D+00 0.4620000D+00 0.1880000D+00 0.1880000D+00
EXPONENTS  0.1880000D+00 0.1880000D+00 0.1880000D+00 0.1880000D+00 0.1880000D+00
EXPONENTS  0.1880000D+00 0.1880000D+00 0.1880000D+00 0.1142000D+05 0.1712000D+04
EXPONENTS  0.3893000D+03 0.1100000D+03 0.3557000D+02 0.1254000D+02 0.4644000D+01
EXPONENTS  0.5118000D+00 0.1142000D+05 0.1712000D+04 0.3893000D+03 0.1100000D+03
EXPONENTS  0.3557000D+02 0.1254000D+02 0.4644000D+01 0.5118000D+00 0.1293000D+01
EXPONENTS  0.1787000D+00 0.5760000D-01 0.2663000D+02 0.5948000D+01 0.1742000D+01
EXPONENTS  0.2663000D+02 0.5948000D+01 0.1742000D+01 0.2663000D+02 0.5948000D+01
EXPONENTS  0.1742000D+01 0.5550000D+00 0.5550000D+00 0.5550000D+00 0.1725000D+00
EXPONENTS  0.1725000D+00 0.1725000D+00 0.4910000D-01 0.4910000D-01 0.4910000D-01
EXPONENTS  0.1654000D+01 0.1654000D+01 0.1654000D+01 0.1654000D+01 0.1654000D+01
EXPONENTS  0.1654000D+01 0.4690000D+00 0.4690000D+00 0.4690000D+00 0.4690000D+00
EXPONENTS  0.4690000D+00 0.4690000D+00 0.1510000D+00 0.1510000D+00 0.1510000D+00
EXPONENTS  0.1510000D+00 0.1510000D+00 0.1510000D+00 0.1093000D+01 0.1093000D+01
EXPONENTS  0.1093000D+01 0.1093000D+01 0.1093000D+01 0.1093000D+01 0.1093000D+01
EXPONENTS  0.1093000D+01 0.1093000D+01 0.1093000D+01 0.3640000D+00 0.3640000D+00
EXPONENTS  0.3640000D+00 0.3640000D+00 0.3640000D+00 0.3640000D+00 0.3640000D+00
EXPONENTS  0.3640000D+00 0.3640000D+00 0.3640000D+00
MO    1     MO 0.0        OCC NO =    2.0000000  ORB. ENERGY = -453.240166
 -0.14360518D-05 -0.25899786D-05 -0.38189219D-05  0.11253770D-04 -0.66114757D-04
  0.19561815D-05  0.85739347D-05 -0.30389784D-06  0.47059395D-12  0.13687724D-04
  0.14235138D-04  0.13733938D-11  0.95918164D-05 -0.91844237D-05  0.29368094D-12
 -0.77247568D-05  0.69215557D-05  0.80320104D-06  0.95657716D-05 -0.60034856D-11
  0.91016620D-14 -0.90171116D-06  0.23665939D-05 -0.14648828D-05  0.20061158D-06
  0.94014368D-12 -0.52055365D-12  0.11264331D-05  0.20315685D-05  0.29955466D-05
  0.18289448D-04 -0.16527789D-04 -0.14880576D-06  0.20885387D-05  0.27800495D-05
 -0.15367288D-11 -0.24596317D-05  0.22631090D-04  0.13815773D-10  0.33215869D-05
 -0.10861811D-05  0.22078372D-11 -0.33908393D-05  0.98827885D-06  0.24025605D-05
 -0.22517230D-04 -0.64848416D-11 -0.60453585D-11 -0.20038317D-06 -0.25852280D-05
  0.27856111D-05  0.22592032D-05 -0.36299677D-11 -0.11784980D-11  0.64665050D-06
  0.11662608D-05  0.17196509D-05  0.10771529D-03 -0.34421763D-04  0.22888717D-05
  0.95026966D-05 -0.73825498D-05  0.59628863D-11  0.55003364D-05 -0.18402643D-04
 -0.17695551D-10 -0.49562188D-05  0.79553030D-05 -0.83409128D-12 -0.80404489D-05
  0.89079453D-05 -0.86749641D-06  0.21973582D-05 -0.20245140D-11  0.14061822D-10
 -0.25978118D-05 -0.16271632D-06  0.27605281D-05 -0.62552678D-05  0.12546383D-11
  0.34307873D-11  0.99519208D-07  0.17948699D-06  0.26465346D-06 -0.33892950D-05
  0.22372954D-04 -0.87061809D-06 -0.56818441D-05  0.34005277D-05  0.41379034D-05
  0.17401196D-04 -0.12197405D-04  0.25330924D-05  0.29379654D-05 -0.24303180D-05
 -0.99321059D-05  0.64703467D-05 -0.50688062D-05 -0.14015405D-05  0.58648626D-05
 -0.42095496D-05  0.23708464D-05 -0.30187690D-05  0.22925920D-05  0.72617701D-06
  0.80532523D-05  0.13847836D-05  0.65414443D-05  0.99519682D-07  0.17948784D-06
  0.26465472D-06 -0.33892878D-05  0.22373035D-04 -0.87061557D-06 -0.56818152D-05
  0.34005266D-05 -0.41379060D-05  0.17401160D-04 -0.12197396D-04 -0.25330951D-05
  0.29379628D-05 -0.24303126D-05  0.99321122D-05  0.64703490D-05 -0.50688095D-05
 -0.14015395D-05  0.58648674D-05  0.42095413D-05 -0.23708392D-05 -0.30187686D-05
  0.22925920D-05  0.72617660D-06  0.80532590D-05 -0.13847885D-05 -0.65414468D-05
 -0.95712504D-05 -0.17842987D-04 -0.30157791D-04 -0.45337039D-04 -0.55701790D-04
 -0.47049066D-04 -0.17745177D-04  0.87821870D-07  0.75045818D-05  0.14050945D-04
  0.23922936D-04  0.37005145D-04  0.48734474D-04  0.50638240D-04  0.32178328D-04
 -0.21565167D-04 -0.33371592D-04  0.19902612D-03  0.37904323D-04  0.61115733D-05
  0.57299884D-05  0.40800931D-05 -0.15420350D-04 -0.14457558D-04 -0.10294643D-04
  0.82605101D-11  0.77447533D-11  0.55147257D-11 -0.98883409D-05 -0.43378141D-04
 -0.15773054D-10  0.37063388D-04  0.11208777D-03  0.14083614D-10 -0.65305573D-06
  0.97046368D-05 -0.45179376D-12  0.10694661D-04 -0.31495877D-04  0.20801216D-04
 -0.19905198D-04  0.86131862D-11  0.57526445D-11 -0.26122550D-04  0.54828077D-04
 -0.28705527D-04  0.21239633D-04  0.19060469D-11  0.35925495D-11 -0.53793493D-05
  0.14752786D-04 -0.93734371D-05 -0.18029185D-04 -0.20638612D-11 -0.40450345D-11
 -0.44956002D-05  0.48930324D-06  0.21065000D-11  0.76409746D-05 -0.14423594D-04
 -0.55179386D-12  0.58458260D-05  0.12955684D-04 -0.57677060D-11 -0.10407147D-10
  0.57182799D-05  0.15802838D-04 -0.76555556D-12 -0.12482979D-04 -0.24469875D-04
 -0.10195995D-11 -0.46718601D-05 -0.22938640D-04  0.33162662D-11  0.24929350D-11
  0.27294606D-05  0.50883351D-05  0.86001827D-05  0.12928892D-04  0.15884637D-04
  0.13417115D-04  0.50604423D-05 -0.25044411D-07 -0.20534267D-05 -0.38446626D-05
 -0.65458670D-05 -0.10125461D-04 -0.13334876D-04 -0.13855790D-04 -0.88047327D-05
  0.59007271D-05  0.86812923D-05 -0.25230736D-04  0.80622759D-05 -0.25348734D-05
 -0.23766050D-05 -0.16922843D-05  0.38924584D-05  0.36494272D-05  0.25986095D-05
  0.17894404D-11  0.16777141D-11  0.11946324D-11 -0.11960210D-04 -0.22208927D-04
 -0.16543106D-10 -0.61044736D-05 -0.74820402D-06  0.16105201D-10  0.16319597D-05
 -0.25580344D-05  0.11218116D-11  0.76337571D-06 -0.57720938D-05  0.50087181D-05
 -0.14972146D-04 -0.16520942D-10  0.75463906D-11 -0.29265841D-04  0.17814590D-04
  0.11451251D-04  0.20345853D-04 -0.12895400D-10  0.85655304D-11  0.28341234D-05
 -0.87754316D-05  0.59413082D-05 -0.77736320D-06 -0.37745731D-11 -0.42182193D-11
  0.12594897D-06  0.43409885D-05 -0.10255777D-11 -0.20382605D-05 -0.76172155D-05
  0.24604209D-11  0.16604136D-05 -0.54057500D-05  0.61631220D-12  0.82816046D-11
  0.57035798D-06  0.68281632D-05 -0.38012631D-11  0.12619253D-04 -0.21747322D-04
  0.13285735D-10 -0.14330327D-04  0.12628323D-05 -0.18819460D-11  0.61846446D-11
  0.77213257D+00  0.14426937D+01  0.25021715D+01  0.40991962D+01  0.64190156D+01
  0.96396498D+01  0.13748901D+02  0.18165083D+02  0.20948806D+02  0.18854597D+02
  0.10577898D+02  0.25572634D+01  0.12140619D+00 -0.20776248D-02  0.58434633D-03
 -0.22771884D-03  0.21539602D-04  0.21238501D-05  0.71912077D-04  0.13242721D-03
  0.22986037D-03  0.37646822D-03  0.59254366D-03  0.89436619D-03  0.13037254D-02
  0.17902888D-02  0.22736440D-02  0.24485704D-02  0.19534234D-02  0.43755127D-03
 -0.11700023D-02 -0.10404531D-02 -0.20320471D-03 -0.56291884D-05 -0.40764668D-06
 -0.83252606D-08 -0.14278257D-03 -0.25778070D-03 -0.44874712D-03 -0.73484235D-03
 -0.11585208D-02 -0.17481760D-02 -0.25585857D-02 -0.35253949D-02 -0.45416532D-02
 -0.49989320D-02 -0.42082901D-02 -0.10021445D-02  0.33756079D-02  0.45105198D-02
  0.55412658D-03 -0.19361935D-02 -0.85470350D-03  0.42417397D-05  0.50818736D-04
  0.11009823D-03  0.18742781D-03  0.30594840D-03  0.48234078D-03  0.72787934D-03
  0.10653132D-02  0.14695328D-02  0.18955436D-02  0.20955538D-02  0.17747787D-02
  0.43110554D-03 -0.14956822D-02 -0.21109839D-02 -0.25186946D-03  0.11837285D-02
  0.94621969D-03 -0.35847277D-03  0.26469845D-03 -0.79863590D-04 -0.29757027D-04
  0.12454000D-03  0.17849470D-03  0.23570911D-03  0.27093573D-03  0.24924394D-03
  0.15944818D-03  0.55191198D-04  0.62048104D-05  0.78940312D-07  0.13678992D-07
  0.13978441D-09  0.13814156D-02  0.19798890D-02  0.26145193D-02  0.30052582D-02
  0.27646496D-02  0.17686221D-02  0.61218871D-03  0.68824650D-04  0.87561731D-06
  0.15172935D-06  0.15505088D-08 -0.41736680D-10 -0.59818342D-10 -0.78992416D-10
 -0.90797800D-10 -0.83528300D-10 -0.53435342D-10 -0.18496044D-10 -0.20793977D-11
 -0.26455007D-13 -0.45841955D-14 -0.46845489D-16 -0.47927333D-03 -0.69131401D-03
 -0.92074082D-03 -0.10896629D-02 -0.10471251D-02 -0.71974556D-03 -0.22660812D-03
  0.10951766D-03  0.11239163D-03  0.28304382D-04 -0.30859760D-07 -0.68726573D-02
 -0.99132667D-02 -0.13203189D-01 -0.15625488D-01 -0.15015507D-01 -0.10320968D-01
 -0.32495026D-02  0.15704553D-02  0.16116673D-02  0.40587763D-03 -0.44252110D-06
  0.16931782D-09  0.24422762D-09  0.32527959D-09  0.38495643D-09  0.36992867D-09
  0.25427192D-09  0.80056182D-10 -0.38690430D-10 -0.39705747D-10 -0.99993805D-11
  0.10902145D-13  0.35533270D-03  0.51512120D-03  0.68369456D-03  0.81592405D-03
  0.78390931D-03  0.54869473D-03  0.16567350D-03 -0.10141690D-03 -0.10907206D-03
 -0.29333045D-04  0.10934402D-04  0.52033658D-02  0.75432517D-02  0.10011780D-01
  0.11948102D-01  0.11479289D-01  0.80348905D-02  0.24260638D-02 -0.14851130D-02
 -0.15972125D-02 -0.42954268D-03  0.16011950D-03 -0.12278093D-09 -0.17799392D-09
 -0.23624241D-09 -0.28193271D-09 -0.27087041D-09 -0.18959485D-09 -0.57246479D-10
  0.35043386D-10  0.37688535D-10  0.10135680D-10 -0.37782509D-11 -0.45300950D-05
 -0.27147329D-04  0.24288325D-11  0.73612659D-05  0.26344251D-05  0.25723199D-11
 -0.38636473D-07  0.51276490D-06  0.95180887D-13 -0.30790839D-03 -0.31871461D-03
 -0.26665807D-03 -0.17207018D-03 -0.77296276D-04 -0.22569262D-04 -0.38075728D-05
  0.76974933D-03  0.79676411D-03  0.66662643D-03  0.43016335D-03  0.19323526D-03
  0.56421567D-04  0.95186642D-05 -0.46184094D-03 -0.47804951D-03 -0.39996836D-03
 -0.25809317D-03 -0.11593898D-03 -0.33852306D-04 -0.57110915D-05  0.36299429D-04
  0.37573378D-04  0.31436414D-04  0.20285414D-04  0.91124853D-05  0.26606982D-05
  0.44887610D-06 -0.63683489D-12 -0.65918496D-12 -0.55151846D-12 -0.35588602D-12
 -0.15986887D-12 -0.46679121D-13 -0.78750539D-14  0.13447950D-11  0.13919913D-11
  0.11646335D-11  0.75151934D-12  0.33759276D-12  0.98571623D-13  0.16629637D-13
  0.20883011D-04 -0.50594933D-04  0.29711922D-04 -0.31038673D-05  0.10100753D-12
  0.14278632D-12  0.78056708D-05 -0.11793595D-04  0.39879237D-05 -0.54695883D-05
 -0.35175198D-12  0.27355093D-11 -0.72764490D-06  0.26031487D-05 -0.18755038D-05
 -0.11488260D-05  0.19042723D-12 -0.60673944D-12 -0.68827055D-06  0.11635002D-04
  0.28737536D-12  0.24101617D-05 -0.13675424D-04  0.24766961D-12 -0.34535002D-06
 -0.21229582D-04 -0.11097957D-11  0.12391081D-11 -0.17285775D-06 -0.18675741D-05
  0.11203127D-12  0.33088182D-06  0.50214863D-06  0.15993197D-12  0.18769142D-06
  0.51005736D-05 -0.49602577D-12 -0.14464358D-12 -0.14072099D-05 -0.26221285D-05
 -0.44346767D-05 -0.66783773D-05 -0.82682644D-05 -0.70359198D-05 -0.26772973D-05
  0.12538925D-07  0.93064059D-06  0.17449598D-05  0.29686958D-05  0.46100712D-05
  0.61178325D-05  0.64473557D-05  0.39977719D-05 -0.26593194D-05  0.38121641D-06
 -0.81545788D-04  0.21218783D-04 -0.73446523D-06 -0.70544507D-06 -0.49470678D-06
 -0.35581582D-05 -0.34175684D-05 -0.23966349D-05 -0.58892007D-12 -0.56565069D-12
 -0.39667331D-12  0.11052417D-04  0.13131558D-04  0.16735432D-11  0.14232204D-04
 -0.49963360D-04 -0.12099158D-10 -0.22275695D-05 -0.61641146D-06 -0.54312656D-12
  0.13010687D-04 -0.12741944D-04 -0.26874349D-06  0.45525378D-05  0.12607583D-11
  0.15770112D-11 -0.26925574D-05  0.21548823D-05  0.53767501D-06  0.11141355D-04
 -0.68057440D-11 -0.25333625D-11  0.17323733D-05 -0.30208309D-05  0.12884576D-05
  0.50447626D-05  0.10388733D-11  0.14725232D-12  0.38022504D-05  0.41260816D-06
 -0.28007661D-11  0.22936274D-05  0.99427731D-05  0.68917875D-11 -0.13700379D-04
 -0.11180598D-04  0.15105109D-11  0.58651391D-11  0.49795145D-05  0.18492414D-05
  0.21602961D-11 -0.19180305D-04 -0.11622533D-04 -0.63043994D-11  0.42417620D-05
  0.60748089D-05 -0.17648890D-12 -0.84183166D-11
MO    2     MO 0.0        OCC NO =    2.0000000  ORB. ENERGY =  -57.872514
  0.18412308D-04  0.33207355D-04  0.48964226D-04 -0.17406906D-03  0.91555075D-03
 -0.26648421D-04 -0.11576703D-03  0.33861029D-05 -0.42659676D-11 -0.17834698D-03
 -0.19586078D-03 -0.20496687D-10 -0.13456221D-03  0.12595081D-03 -0.34392950D-11
  0.10094403D-03 -0.86871676D-04 -0.14072353D-04 -0.12876472D-03  0.80099898D-10
 -0.61433694D-12  0.12725474D-04 -0.33068465D-04  0.20342991D-04 -0.82501366D-06
 -0.13161455D-10  0.72232466D-11 -0.15040234D-04 -0.27125681D-04 -0.39996800D-04
 -0.24506775D-03  0.24538279D-03  0.28666313D-05 -0.30031490D-04 -0.37207874D-04
  0.19981219D-10  0.32356323D-04 -0.30151661D-03 -0.18462262D-09 -0.50383602D-04
  0.16395402D-04 -0.29874395D-10  0.46305454D-04 -0.13527850D-04 -0.32777603D-04
  0.29737970D-03  0.84793201D-10  0.80139182D-10  0.31545148D-05  0.35653970D-04
 -0.38808485D-04 -0.34634822D-04  0.49358436D-10  0.15659880D-10 -0.76024094D-05
 -0.13711258D-04 -0.20217242D-04 -0.14358596D-02  0.53101547D-03 -0.31703415D-04
 -0.12598084D-03  0.95194451D-04 -0.78860125D-10 -0.65235708D-04  0.24190021D-03
  0.23031821D-09  0.74587126D-04 -0.11362721D-03  0.14084970D-10  0.10739828D-03
 -0.11831861D-03  0.10920329D-04 -0.33699137D-04  0.21782485D-10 -0.18208572D-09
  0.35804532D-04  0.30677554D-05 -0.38872288D-04  0.88928071D-04 -0.17223135D-10
 -0.45898247D-10 -0.14013316D-05 -0.25273592D-05 -0.37265896D-05  0.46821279D-04
 -0.30586322D-03  0.10956534D-04  0.77459131D-04 -0.43893001D-04 -0.56577910D-04
 -0.23003487D-03  0.16451341D-03 -0.27617138D-04 -0.39987593D-04  0.32911542D-04
  0.13797607D-03 -0.83689829D-04  0.68316063D-04  0.15373766D-04 -0.73393694D-04
  0.51015131D-04 -0.28818103D-04  0.43058190D-04 -0.32427067D-04 -0.10631123D-04
 -0.10966275D-03 -0.18088724D-04 -0.88559721D-04 -0.14013359D-05 -0.25273671D-05
 -0.37266013D-05  0.46821172D-04 -0.30586432D-03  0.10956499D-04  0.77458755D-04
 -0.43892983D-04  0.56577947D-04 -0.23003438D-03  0.16451327D-03  0.27617171D-04
 -0.39987556D-04  0.32911466D-04 -0.13797615D-03 -0.83689863D-04  0.68316107D-04
  0.15373756D-04 -0.73393769D-04 -0.51015010D-04  0.28817996D-04  0.43058184D-04
 -0.32427067D-04 -0.10631116D-04 -0.10966284D-03  0.18088790D-04  0.88559755D-04
  0.11423520D-03  0.21296039D-03  0.35994057D-03  0.54110857D-03  0.66481440D-03
  0.56154204D-03  0.21179300D-03 -0.10481754D-05 -0.90473716D-04 -0.16939534D-03
 -0.28841006D-03 -0.44612651D-03 -0.58753293D-03 -0.61048434D-03 -0.38793539D-03
  0.25998528D-03  0.43778998D-03 -0.26596925D-02 -0.46754250D-03 -0.79350362D-04
 -0.74396009D-04 -0.52974390D-04  0.18416170D-03  0.17266330D-03  0.12294655D-03
 -0.10920905D-09 -0.10239043D-09 -0.72908084D-10  0.11658780D-03  0.61327436D-03
  0.21120826D-09 -0.50572869D-03 -0.14853511D-02 -0.19702858D-09  0.50761129D-05
 -0.13748732D-03  0.60663478D-11 -0.14460755D-03  0.41240726D-03 -0.26779971D-03
  0.26776960D-03 -0.11084880D-09 -0.76236907D-10  0.33757785D-03 -0.72028019D-03
  0.38270234D-03 -0.28011546D-03 -0.30483918D-10 -0.45749523D-10  0.74062771D-04
 -0.20317464D-03  0.12911186D-03  0.24768153D-03  0.28506089D-10  0.56837185D-10
  0.58490610D-04  0.29019576D-05 -0.26973330D-10 -0.10042414D-03  0.17969739D-03
  0.61079992D-11 -0.75047693D-04 -0.18840326D-03  0.74811990D-10  0.13847575D-09
 -0.76681522D-04 -0.21288548D-03  0.10392013D-10  0.16810706D-03  0.32927486D-03
  0.13747250D-10  0.61937509D-04  0.30938158D-03 -0.44923289D-10 -0.32724522D-10
 -0.32760755D-04 -0.61073495D-04 -0.10322497D-03 -0.15518094D-03 -0.19065771D-03
 -0.16104091D-03 -0.60738708D-04  0.30059925D-06  0.24986480D-04  0.46782575D-04
  0.79651337D-04  0.12320851D-03  0.16226127D-03  0.16859985D-03  0.10713764D-03
 -0.71801153D-04 -0.11602738D-03  0.31046431D-03 -0.15383269D-03  0.29408038D-04