 Molden2AIM, Version 4.0.0 (06/02/2016)           Time: Sat Jun 30 02:20:39 2018
GAUSSIAN             13 MOL ORBITALS    360 PRIMITIVES        8 NUCLEI
  F    1    (CENTRE  1)  -0.01081490  0.00000000 -0.01267628  CHARGE =  9.0
  C    2    (CENTRE  2)   0.00477723  0.00000000  2.63090128  CHARGE =  6.0
  C    3    (CENTRE  3)   2.68752314  0.00000000  3.58613516  CHARGE =  6.0
  H    4    (CENTRE  4)   2.68822045  0.00000000  5.66364337  CHARGE =  1.0
  H    5    (CENTRE  5)  -1.03652990  1.69200408  3.24440275  CHARGE =  1.0
  H    6    (CENTRE  6)  -1.03652990 -1.69200408  3.24440275  CHARGE =  1.0
  H    7    (CENTRE  7)   3.70070736  1.68667316  2.92908494  CHARGE =  1.0
  H    8    (CENTRE  8)   3.70070736 -1.68667316  2.92908494  CHARGE =  1.0
CENTRE ASSIGNMENTS    1  1  1  1  1  1  1  1  1  1  1  1  1  1  1  1  1  1  1  1
CENTRE ASSIGNMENTS    1  1  1  1  1  1  1  1  1  1  1  1  1  1  1  1  1  1  1  1
CENTRE ASSIGNMENTS    1  1  1  1  1  1  1  1  1  1  1  1  1  1  1  1  1  1  1  1
CENTRE ASSIGNMENTS    1  1  1  1  1  1  1  1  1  1  1  1  1  1  1  2  2  2  2  2
CENTRE ASSIGNMENTS    2  2  2  2  2  2  2  2  2  2  2  2  2  2  2  2  2  2  2  2
CENTRE ASSIGNMENTS    2  2  2  2  2  2  2  2  2  2  2  2  2  2  2  2  2  2  2  2
CENTRE ASSIGNMENTS    2  2  2  2  2  2  2  2  2  2  2  2  2  2  2  2  2  2  2  2
CENTRE ASSIGNMENTS    2  2  2  2  2  2  2  2  2  2  3  3  3  3  3  3  3  3  3  3
CENTRE ASSIGNMENTS    3  3  3  3  3  3  3  3  3  3  3  3  3  3  3  3  3  3  3  3
CENTRE ASSIGNMENTS    3  3  3  3  3  3  3  3  3  3  3  3  3  3  3  3  3  3  3  3
CENTRE ASSIGNMENTS    3  3  3  3  3  3  3  3  3  3  3  3  3  3  3  3  3  3  3  3
CENTRE ASSIGNMENTS    3  3  3  3  3  4  4  4  4  4  4  4  4  4  4  4  4  4  4  4
CENTRE ASSIGNMENTS    4  4  4  4  4  4  4  4  4  4  4  4  5  5  5  5  5  5  5  5
CENTRE ASSIGNMENTS    5  5  5  5  5  5  5  5  5  5  5  5  5  5  5  5  5  5  5  6
CENTRE ASSIGNMENTS    6  6  6  6  6  6  6  6  6  6  6  6  6  6  6  6  6  6  6  6
CENTRE ASSIGNMENTS    6  6  6  6  6  6  7  7  7  7  7  7  7  7  7  7  7  7  7  7
CENTRE ASSIGNMENTS    7  7  7  7  7  7  7  7  7  7  7  7  7  8  8  8  8  8  8  8
CENTRE ASSIGNMENTS    8  8  8  8  8  8  8  8  8  8  8  8  8  8  8  8  8  8  8  8
TYPE ASSIGNMENTS      1  1  1  1  1  1  1  1  1  1  1  1  1  1  1  1  1  1  1  2
TYPE ASSIGNMENTS      2  2  3  3  3  4  4  4  2  3  4  2  3  4  2  3  4  5  6  7
TYPE ASSIGNMENTS      8  9 10  5  6  7  8  9 10  5  6  7  8  9 10 11 12 13 17 14
TYPE ASSIGNMENTS     15 18 19 16 20 11 12 13 17 14 15 18 19 16 20  1  1  1  1  1
TYPE ASSIGNMENTS      1  1  1  1  1  1  1  1  1  1  1  1  1  1  2  2  2  3  3  3
TYPE ASSIGNMENTS      4  4  4  2  3  4  2  3  4  2  3  4  5  6  7  8  9 10  5  6
TYPE ASSIGNMENTS      7  8  9 10  5  6  7  8  9 10 11 12 13 17 14 15 18 19 16 20
TYPE ASSIGNMENTS     11 12 13 17 14 15 18 19 16 20  1  1  1  1  1  1  1  1  1  1
TYPE ASSIGNMENTS      1  1  1  1  1  1  1  1  1  2  2  2  3  3  3  4  4  4  2  3
TYPE ASSIGNMENTS      4  2  3  4  2  3  4  5  6  7  8  9 10  5  6  7  8  9 10  5
TYPE ASSIGNMENTS      6  7  8  9 10 11 12 13 17 14 15 18 19 16 20 11 12 13 17 14
TYPE ASSIGNMENTS     15 18 19 16 20  1  1  1  1  1  1  2  3  4  2  3  4  2  3  4
TYPE ASSIGNMENTS      5  6  7  8  9 10  5  6  7  8  9 10  1  1  1  1  1  1  2  3
TYPE ASSIGNMENTS      4  2  3  4  2  3  4  5  6  7  8  9 10  5  6  7  8  9 10  1
TYPE ASSIGNMENTS      1  1  1  1  1  2  3  4  2  3  4  2  3  4  5  6  7  8  9 10
TYPE ASSIGNMENTS      5  6  7  8  9 10  1  1  1  1  1  1  2  3  4  2  3  4  2  3
TYPE ASSIGNMENTS      4  5  6  7  8  9 10  5  6  7  8  9 10  1  1  1  1  1  1  2
TYPE ASSIGNMENTS      3  4  2  3  4  2  3  4  5  6  7  8  9 10  5  6  7  8  9 10
EXPONENTS  0.1950000D+05 0.2923000D+04 0.6645000D+03 0.1875000D+03 0.6062000D+02
EXPONENTS  0.2142000D+02 0.7950000D+01 0.8815000D+00 0.1950000D+05 0.2923000D+04
EXPONENTS  0.6645000D+03 0.1875000D+03 0.6062000D+02 0.2142000D+02 0.7950000D+01
EXPONENTS  0.8815000D+00 0.2257000D+01 0.3041000D+00 0.9158000D-01 0.4388000D+02
EXPONENTS  0.9926000D+01 0.2930000D+01 0.4388000D+02 0.9926000D+01 0.2930000D+01
EXPONENTS  0.4388000D+02 0.9926000D+01 0.2930000D+01 0.9132000D+00 0.9132000D+00
EXPONENTS  0.9132000D+00 0.2672000D+00 0.2672000D+00 0.2672000D+00 0.7361000D-01
EXPONENTS  0.7361000D-01 0.7361000D-01 0.3107000D+01 0.3107000D+01 0.3107000D+01
EXPONENTS  0.3107000D+01 0.3107000D+01 0.3107000D+01 0.8550000D+00 0.8550000D+00
EXPONENTS  0.8550000D+00 0.8550000D+00 0.8550000D+00 0.8550000D+00 0.2920000D+00
EXPONENTS  0.2920000D+00 0.2920000D+00 0.2920000D+00 0.2920000D+00 0.2920000D+00
EXPONENTS  0.1917000D+01 0.1917000D+01 0.1917000D+01 0.1917000D+01 0.1917000D+01
EXPONENTS  0.1917000D+01 0.1917000D+01 0.1917000D+01 0.1917000D+01 0.1917000D+01
EXPONENTS  0.7240000D+00 0.7240000D+00 0.7240000D+00 0.7240000D+00 0.7240000D+00
EXPONENTS  0.7240000D+00 0.7240000D+00 0.7240000D+00 0.7240000D+00 0.7240000D+00
EXPONENTS  0.8236000D+04 0.1235000D+04 0.2808000D+03 0.7927000D+02 0.2559000D+02
EXPONENTS  0.8997000D+01 0.3319000D+01 0.3643000D+00 0.8236000D+04 0.1235000D+04
EXPONENTS  0.2808000D+03 0.7927000D+02 0.2559000D+02 0.8997000D+01 0.3319000D+01
EXPONENTS  0.3643000D+00 0.9059000D+00 0.1285000D+00 0.4402000D-01 0.1871000D+02
EXPONENTS  0.4133000D+01 0.1200000D+01 0.1871000D+02 0.4133000D+01 0.1200000D+01
EXPONENTS  0.1871000D+02 0.4133000D+01 0.1200000D+01 0.3827000D+00 0.3827000D+00
EXPONENTS  0.3827000D+00 0.1209000D+00 0.1209000D+00 0.1209000D+00 0.3569000D-01
EXPONENTS  0.3569000D-01 0.3569000D-01 0.1097000D+01 0.1097000D+01 0.1097000D+01
EXPONENTS  0.1097000D+01 0.1097000D+01 0.1097000D+01 0.3180000D+00 0.3180000D+00
EXPONENTS  0.3180000D+00 0.3180000D+00 0.3180000D+00 0.3180000D+00 0.1000000D+00
EXPONENTS  0.1000000D+00 0.1000000D+00 0.1000000D+00 0.1000000D+00 0.1000000D+00
EXPONENTS  0.7610000D+00 0.7610000D+00 0.7610000D+00 0.7610000D+00 0.7610000D+00
EXPONENTS  0.7610000D+00 0.7610000D+00 0.7610000D+00 0.7610000D+00 0.7610000D+00
EXPONENTS  0.2680000D+00 0.2680000D+00 0.2680000D+00 0.2680000D+00 0.2680000D+00
EXPONENTS  0.2680000D+00 0.2680000D+00 0.2680000D+00 0.2680000D+00 0.2680000D+00
EXPONENTS  0.8236000D+04 0.1235000D+04 0.2808000D+03 0.7927000D+02 0.2559000D+02
EXPONENTS  0.8997000D+01 0.3319000D+01 0.3643000D+00 0.8236000D+04 0.1235000D+04
EXPONENTS  0.2808000D+03 0.7927000D+02 0.2559000D+02 0.8997000D+01 0.3319000D+01
EXPONENTS  0.3643000D+00 0.9059000D+00 0.1285000D+00 0.4402000D-01 0.1871000D+02
EXPONENTS  0.4133000D+01 0.1200000D+01 0.1871000D+02 0.4133000D+01 0.1200000D+01
EXPONENTS  0.1871000D+02 0.4133000D+01 0.1200000D+01 0.3827000D+00 0.3827000D+00
EXPONENTS  0.3827000D+00 0.1209000D+00 0.1209000D+00 0.1209000D+00 0.3569000D-01
EXPONENTS  0.3569000D-01 0.3569000D-01 0.1097000D+01 0.1097000D+01 0.1097000D+01
EXPONENTS  0.1097000D+01 0.1097000D+01 0.1097000D+01 0.3180000D+00 0.3180000D+00
EXPONENTS  0.3180000D+00 0.3180000D+00 0.3180000D+00 0.3180000D+00 0.1000000D+00
EXPONENTS  0.1000000D+00 0.1000000D+00 0.1000000D+00 0.1000000D+00 0.1000000D+00
EXPONENTS  0.7610000D+00 0.7610000D+00 0.7610000D+00 0.7610000D+00 0.7610000D+00
EXPONENTS  0.7610000D+00 0.7610000D+00 0.7610000D+00 0.7610000D+00 0.7610000D+00
EXPONENTS  0.2680000D+00 0.2680000D+00 0.2680000D+00 0.2680000D+00 0.2680000D+00
EXPONENTS  0.2680000D+00 0.2680000D+00 0.2680000D+00 0.2680000D+00 0.2680000D+00
EXPONENTS  0.3387000D+02 0.5095000D+01 0.1159000D+01 0.3258000D+00 0.1027000D+00
EXPONENTS  0.2526000D-01 0.1407000D+01 0.1407000D+01 0.1407000D+01 0.3880000D+00
EXPONENTS  0.3880000D+00 0.3880000D+00 0.1020000D+00 0.1020000D+00 0.1020000D+00
EXPONENTS  0.1057000D+01 0.1057000D+01 0.1057000D+01 0.1057000D+01 0.1057000D+01
EXPONENTS  0.1057000D+01 0.2470000D+00 0.2470000D+00 0.2470000D+00 0.2470000D+00
EXPONENTS  0.2470000D+00 0.2470000D+00 0.3387000D+02 0.5095000D+01 0.1159000D+01
EXPONENTS  0.3258000D+00 0.1027000D+00 0.2526000D-01 0.1407000D+01 0.1407000D+01
EXPONENTS  0.1407000D+01 0.3880000D+00 0.3880000D+00 0.3880000D+00 0.1020000D+00
EXPONENTS  0.1020000D+00 0.1020000D+00 0.1057000D+01 0.1057000D+01 0.1057000D+01
EXPONENTS  0.1057000D+01 0.1057000D+01 0.1057000D+01 0.2470000D+00 0.2470000D+00
EXPONENTS  0.2470000D+00 0.2470000D+00 0.2470000D+00 0.2470000D+00 0.3387000D+02
EXPONENTS  0.5095000D+01 0.1159000D+01 0.3258000D+00 0.1027000D+00 0.2526000D-01
EXPONENTS  0.1407000D+01 0.1407000D+01 0.1407000D+01 0.3880000D+00 0.3880000D+00
EXPONENTS  0.3880000D+00 0.1020000D+00 0.1020000D+00 0.1020000D+00 0.1057000D+01
EXPONENTS  0.1057000D+01 0.1057000D+01 0.1057000D+01 0.1057000D+01 0.1057000D+01
EXPONENTS  0.2470000D+00 0.2470000D+00 0.2470000D+00 0.2470000D+00 0.2470000D+00
EXPONENTS  0.2470000D+00 0.3387000D+02 0.5095000D+01 0.1159000D+01 0.3258000D+00
EXPONENTS  0.1027000D+00 0.2526000D-01 0.1407000D+01 0.1407000D+01 0.1407000D+01
EXPONENTS  0.3880000D+00 0.3880000D+00 0.3880000D+00 0.1020000D+00 0.1020000D+00
EXPONENTS  0.1020000D+00 0.1057000D+01 0.1057000D+01 0.1057000D+01 0.1057000D+01
EXPONENTS  0.1057000D+01 0.1057000D+01 0.2470000D+00 0.2470000D+00 0.2470000D+00
EXPONENTS  0.2470000D+00 0.2470000D+00 0.2470000D+00 0.3387000D+02 0.5095000D+01
EXPONENTS  0.1159000D+01 0.3258000D+00 0.1027000D+00 0.2526000D-01 0.1407000D+01
EXPONENTS  0.1407000D+01 0.1407000D+01 0.3880000D+00 0.3880000D+00 0.3880000D+00
EXPONENTS  0.1020000D+00 0.1020000D+00 0.1020000D+00 0.1057000D+01 0.1057000D+01
EXPONENTS  0.1057000D+01 0.1057000D+01 0.1057000D+01 0.1057000D+01 0.2470000D+00
EXPONENTS  0.2470000D+00 0.2470000D+00 0.2470000D+00 0.2470000D+00 0.2470000D+00
MO    1     MO 0.0        OCC NO =    2.0000000  ORB. ENERGY =  -24.454998
  0.59440865D+00  0.11080035D+01  0.18783383D+01  0.28443577D+01  0.35568793D+01
  0.30621418D+01  0.11771991D+01 -0.51009964D-02  0.16347299D-03  0.30697333D-03
  0.52272264D-03  0.81884192D-03  0.10973445D-02  0.11803420D-02  0.70867577D-03
 -0.46605500D-03  0.64328045D-01 -0.12743017D-02 -0.81214222D-03  0.65556993D-04
  0.64113307D-04  0.42362373D-04  0.14895820D-14  0.14567787D-14  0.96255527D-15
  0.64278966D-02  0.62863425D-02  0.41536523D-02 -0.29682501D-04 -0.12629207D-14
 -0.12219972D-02 -0.96138882D-04  0.11818752D-14 -0.13765082D-02 -0.60320529D-05
 -0.63006362D-15 -0.85066839D-04 -0.11102525D-03 -0.18980487D-03  0.30083012D-03
 -0.10567699D-14  0.10267182D-03  0.16536668D-14  0.39361457D-03  0.43408771D-03
 -0.82770228D-03  0.59897796D-15 -0.40341231D-04 -0.10320980D-14  0.15714425D-03
  0.13614184D-03 -0.29328609D-03 -0.47856854D-15 -0.51664112D-04  0.64708771D-15
 -0.35870333D-04  0.68642102D-15  0.38452001D-03  0.29266562D-04 -0.14824302D-14
 -0.67486242D-03  0.78344436D-04 -0.57683289D-15 -0.47869762D-03  0.23983541D-14
  0.13313371D-04 -0.15775780D-15 -0.36853629D-03 -0.46323352D-05  0.47791189D-15
  0.58177049D-03 -0.35307779D-04 -0.46384880D-17  0.52383839D-03 -0.97432793D-15
  0.11604775D-03  0.21633940D-03  0.36565170D-03  0.54969427D-03  0.67536293D-03
  0.57045196D-03  0.21515349D-03 -0.10648066D-05 -0.75748010D-04 -0.14182418D-03
 -0.24146779D-03 -0.37351396D-03 -0.49190474D-03 -0.51112054D-03 -0.32479416D-03
  0.21766949D-03 -0.47771367D-03  0.22410809D-02  0.50539684D-03 -0.15358525D-04
 -0.14399594D-04 -0.10253368D-04  0.26491597D-14  0.24837556D-14  0.17685819D-14
  0.70565172D-03  0.66159335D-03  0.47109388D-03 -0.17867302D-04 -0.11068894D-13
 -0.16012831D-02  0.32465642D-03 -0.15957790D-13 -0.11321972D-03  0.25422652D-04
  0.16471649D-15  0.72471170D-05 -0.34453084D-03 -0.33706878D-03  0.68159962D-03
  0.20774389D-14 -0.24226928D-06 -0.76014560D-15 -0.35340226D-03 -0.31395438D-03
  0.66735665D-03  0.80534846D-14  0.31835531D-04 -0.53662571D-14  0.63299337D-05
 -0.11864497D-04  0.55345629D-05  0.20870992D-14  0.11805114D-04 -0.13735810D-14
 -0.13206363D-04 -0.40134893D-15 -0.37989069D-03  0.83574174D-04 -0.38880528D-15
  0.59695006D-03 -0.43955084D-04  0.15928521D-14  0.54272202D-03  0.39660272D-14
 -0.22125903D-04  0.31257783D-15 -0.46698876D-04 -0.11492260D-04 -0.67469790D-15
  0.59313040D-04  0.77869969D-04 -0.26303560D-15  0.80783590D-04  0.12311787D-14
  0.14591356D-04  0.27201605D-04  0.45975505D-04  0.69116244D-04  0.84917291D-04
  0.71726228D-04  0.27052494D-04 -0.13388430D-06 -0.11079480D-04 -0.20744282D-04
 -0.35318915D-04 -0.54632991D-04 -0.71949728D-04 -0.74760376D-04 -0.47506863D-04
  0.31837995D-04  0.59840298D-04 -0.12382958D-02 -0.27772525D-03  0.15191363D-04
  0.14242868D-04  0.10141771D-04  0.74464493D-15  0.69815195D-15  0.49712578D-15
 -0.15897723D-04 -0.14905126D-04 -0.10613338D-04 -0.16580647D-03 -0.27812596D-14
  0.79348138D-04  0.36623968D-03  0.35285596D-14  0.82613799D-04  0.29114300D-04
 -0.76452112D-16  0.43106759D-05 -0.60319140D-05 -0.31808023D-04  0.37839937D-04
  0.23463176D-15 -0.82799339D-04  0.11810553D-14  0.11158454D-04 -0.11611938D-03
  0.10496093D-03 -0.11252099D-14  0.32682481D-03  0.85221880D-15 -0.16941966D-04
  0.99022513D-05  0.70397144D-05  0.50836613D-15 -0.15750591D-04 -0.11858342D-15
  0.59242302D-05 -0.10425340D-15 -0.39138285D-05 -0.50593326D-04  0.27284299D-15
  0.12708756D-04  0.32820635D-04  0.39917224D-16 -0.96727035D-06 -0.17022799D-15
  0.13240190D-04 -0.16348799D-15  0.15345143D-04 -0.56897081D-04  0.13621614D-15
 -0.10146866D-03  0.17176510D-04  0.35424784D-15  0.55433231D-04 -0.35101223D-16
 -0.56964670D-05 -0.10273813D-04 -0.15148731D-04 -0.77452065D-04  0.86106495D-04
  0.20697287D-05 -0.14233963D-04  0.73645924D-15 -0.59728647D-05 -0.15048605D-03
 -0.12599284D-14  0.71364127D-04 -0.31610719D-06 -0.22413067D-15 -0.26368150D-04
  0.42389968D-04  0.24616815D-05 -0.44851649D-04  0.48213844D-15  0.14991725D-03
  0.16132380D-15  0.10675641D-04 -0.34193405D-05 -0.72563009D-05 -0.19663753D-15
 -0.59555624D-06  0.17119059D-15  0.13659016D-04  0.24634598D-04  0.36323700D-04
 -0.68909015D-04 -0.59664447D-04  0.31761376D-05  0.45241370D-05  0.31098775D-04
  0.32874336D-04 -0.35416051D-05 -0.73181354D-04 -0.17421423D-03  0.43996156D-05
 -0.10241495D-04 -0.34553114D-04  0.32585357D-05  0.43968842D-04 -0.47227378D-04
  0.27080760D-04 -0.59720521D-04  0.32833904D-04 -0.90747577D-05  0.52106273D-05
  0.38641305D-05 -0.33732276D-04 -0.43426297D-04  0.49605277D-04  0.13659016D-04
  0.24634598D-04  0.36323700D-04 -0.68909015D-04 -0.59664447D-04  0.31761376D-05
  0.45241370D-05 -0.31098775D-04  0.32874336D-04 -0.35416051D-05  0.73181354D-04
 -0.17421423D-03  0.43996156D-05  0.10241495D-04 -0.34553114D-04  0.32585357D-05
  0.43968842D-04 -0.47227378D-04 -0.27080760D-04 -0.59720521D-04 -0.32833904D-04
 -0.90747577D-05  0.52106273D-05  0.38641305D-05  0.33732276D-04 -0.43426297D-04
 -0.49605277D-04 -0.46731521D-05 -0.84282222D-05 -0.12427409D-04  0.42310140D-03
 -0.42087721D-04 -0.21709512D-04  0.59837673D-04 -0.40336382D-04  0.21042489D-04
 -0.19218236D-03 -0.10280729D-03  0.39642893D-04 -0.60026209D-05 -0.35873011D-05
 -0.58532592D-05  0.19927623D-04  0.12389687D-05 -0.21166591D-04  0.81415696D-04
  0.87527376D-05 -0.14498163D-04 -0.33620143D-05 -0.25186913D-05  0.58807056D-05
  0.29870005D-04  0.10600104D-04 -0.42185227D-05 -0.46731521D-05 -0.84282222D-05
 -0.12427409D-04  0.42310140D-03 -0.42087721D-04 -0.21709512D-04  0.59837673D-04
  0.40336382D-04  0.21042489D-04 -0.19218236D-03  0.10280729D-03  0.39642893D-04
 -0.60026209D-05  0.35873011D-05 -0.58532592D-05  0.19927623D-04  0.12389687D-05
 -0.21166591D-04 -0.81415696D-04  0.87527376D-05  0.14498163D-04 -0.33620143D-05
 -0.25186913D-05  0.58807056D-05 -0.29870005D-04  0.10600104D-04  0.42185227D-05
MO    2     MO 0.0        OCC NO =    2.0000000  ORB. ENERGY =  -10.106628
 -0.47067291D-04 -0.87735470D-04 -0.14873319D-03 -0.22522589D-03 -0.28164576D-03
 -0.24247076D-03 -0.93214614D-04  0.40391418D-06  0.92875565D-05  0.17440386D-04
  0.29697970D-04  0.46521694D-04  0.62344543D-04  0.67059962D-04  0.40262713D-04
 -0.26478454D-04  0.27100485D-03  0.27825925D-02  0.10283333D-02 -0.11329457D-03
 -0.11079962D-03 -0.73209993D-04 -0.11512478D-13 -0.11258952D-13 -0.74392655D-14
  0.65880575D-03  0.64429764D-03  0.42571469D-03  0.95818661D-04  0.13280632D-13
  0.53418115D-03  0.23197518D-03 -0.23306373D-13  0.58493435D-03 -0.50529307D-05
  0.20911892D-14  0.91906244D-04 -0.11885109D-02 -0.10061944D-02  0.21947054D-02
  0.13898001D-13 -0.24341970D-03 -0.43196828D-14  0.52193254D-03  0.43786814D-03
 -0.95980068D-03 -0.72050220D-14  0.16058684D-03  0.40748179D-14  0.15937493D-03
  0.75866686D-04 -0.23524162D-03  0.49027210D-14  0.41866965D-04 -0.12925788D-13
 -0.39996189D-03 -0.10432091D-13  0.88460300D-03  0.97672078D-03  0.10316273D-13
 -0.15319623D-02  0.22316489D-03  0.20980001D-13 -0.11218467D-02 -0.16323003D-13
  0.15907117D-03  0.36634812D-14 -0.96322350D-03 -0.31592002D-03 -0.32050647D-14
  0.15435456D-02 -0.16129348D-03 -0.77853791D-14  0.13461249D-02  0.69542458D-14
  0.33098602D+00  0.61703319D+00  0.10428948D+01  0.15678125D+01  0.19262388D+01
  0.16270166D+01  0.61365080D+00 -0.30369920D-02 -0.37170500D-02 -0.69594904D-02
 -0.11849128D-01 -0.18328799D-01 -0.24138384D-01 -0.25081327D-01 -0.15938057D-01
  0.10681315D-01  0.32057541D-01 -0.42891122D-02 -0.59162627D-03 -0.13382830D-03
 -0.12547254D-03 -0.89343920D-04 -0.88937356D-14 -0.83384424D-14 -0.59374678D-14
 -0.33099217D-02 -0.31032620D-02 -0.22097074D-02 -0.77562793D-05  0.44070574D-13
  0.21914944D-02 -0.93298045D-03  0.12573805D-12  0.25838216D-03 -0.41827070D-04
  0.14937654D-14 -0.15862218D-04 -0.64980365D-04  0.71357209D-03 -0.64859172D-03
 -0.53371569D-14 -0.63682331D-03  0.46641017D-14  0.40835459D-03  0.30909147D-03
 -0.71744607D-03 -0.38576376D-13  0.15514979D-03  0.14325999D-13 -0.49078509D-04
  0.10684919D-03 -0.57770681D-04 -0.21568322D-13 -0.89776228D-05  0.52413289D-14
  0.10455616D-02  0.17515710D-14 -0.13262725D-02 -0.37194540D-02  0.42360389D-14
  0.16253151D-02  0.58276930D-03 -0.94907519D-14  0.23535025D-02 -0.15374162D-13
 -0.18228370D-03 -0.46973714D-14  0.32664659D-03  0.67109790D-03  0.77576238D-14
 -0.31496479D-03 -0.12424681D-03  0.63344904D-14 -0.66497497D-03 -0.46604246D-14
  0.52266173D-03  0.97436031D-03  0.16468406D-02  0.24757408D-02  0.30417336D-02
  0.25692303D-02  0.96901914D-03 -0.47957298D-05 -0.12223914D-03 -0.22887024D-03
 -0.38967117D-03 -0.60276205D-03 -0.79381642D-03 -0.82482611D-03 -0.52413996D-03
  0.35126641D-03  0.83724094D-03  0.25717377D-02  0.36939454D-03 -0.66152364D-03
 -0.62022046D-03 -0.44163392D-03 -0.55352923D-14 -0.51896884D-14 -0.36953673D-14
 -0.27771897D-03 -0.26037919D-03 -0.18540549D-03 -0.26735476D-03  0.18741826D-13
  0.82358227D-04 -0.78835859D-03 -0.37759869D-13 -0.21961189D-03 -0.47609859D-04
 -0.10249389D-14 -0.16982404D-04  0.14991438D-03  0.30021451D-05 -0.15291652D-03
 -0.52902552D-14  0.14406576D-03 -0.93606671D-14 -0.14664966D-02  0.70924450D-03
  0.75725210D-03  0.15550676D-13 -0.16248574D-02 -0.62162446D-14  0.27851995D-05
 -0.31068656D-04  0.28283457D-04 -0.84504367D-14  0.26917065D-04  0.12465764D-14
  0.61519898D-03  0.40683208D-15 -0.22890942D-03 -0.10795339D-02  0.68273671D-15
  0.15286036D-02 -0.76606300D-03 -0.19032330D-14 -0.84187538D-03  0.10110407D-14
  0.19988926D-03  0.23429138D-14 -0.45904707D-04 -0.30278112D-03 -0.22211318D-14
  0.50993552D-03 -0.29688665D-03 -0.48076095D-14 -0.37222140D-03 -0.30827158D-14
 -0.85793285D-05 -0.15473172D-04 -0.22815184D-04 -0.85192180D-03 -0.28258646D-03
  0.35864922D-04 -0.85809985D-04 -0.71682135D-14 -0.79444144D-05  0.13002254D-02
  0.14558408D-13  0.36741641D-03  0.66245890D-05  0.18290920D-14  0.77922577D-04
 -0.13352268D-03  0.21958371D-04  0.11156430D-03 -0.35690200D-14 -0.14244757D-02
 -0.39184950D-14 -0.68808364D-04  0.57938240D-04  0.10870123D-04  0.25241542D-14
 -0.18112342D-03 -0.17140724D-14 -0.36119389D-04 -0.65142806D-04 -0.96053029D-04
 -0.48784502D-04 -0.59295967D-03 -0.34295469D-04 -0.11480782D-02  0.16274438D-02
  0.54291863D-03 -0.88586798D-03  0.19582318D-02  0.88273272D-03 -0.15844148D-03
  0.12653027D-03  0.17360978D-03  0.26922075D-03 -0.11950508D-02  0.92583005D-03
  0.28618958D-02  0.11630642D-02 -0.16068766D-02  0.30850803D-04 -0.17603944D-03
  0.14518864D-03  0.37420754D-03  0.23591757D-03 -0.26083946D-03 -0.36119389D-04
 -0.65142806D-04 -0.96053029D-04 -0.48784502D-04 -0.59295967D-03 -0.34295469D-04
 -0.11480782D-02 -0.16274438D-02  0.54291863D-03 -0.88586798D-03 -0.19582318D-02
  0.88273272D-03 -0.15844148D-03 -0.12653027D-03  0.17360978D-03  0.26922075D-03
 -0.11950508D-02  0.92583005D-03 -0.28618958D-02  0.11630642D-02  0.16068766D-02
  0.30850803D-04 -0.17603944D-03  0.14518864D-03 -0.37420754D-03  0.23591757D-03
  0.26083946D-03  0.10859509D-04  0.19585571D-04  0.28878913D-04 -0.37428996D-03
  0.17898838D-03  0.24738538D-04 -0.17383469D-03 -0.14782546D-04 -0.12268493D-04
  0.11025158D-02 -0.22490236D-03  0.56604447D-03  0.73626133D-04 -0.64814589D-05
  0.67225970D-04 -0.61609459D-03  0.40609442D-03  0.21000017D-03 -0.58126952D-03
 -0.20151540D-03 -0.62579732D-03 -0.14413241D-03  0.65963490D-04  0.78168922D-04
 -0.72973457D-04 -0.10607453D-03 -0.39323376D-04  0.10859509D-04  0.19585571D-04
  0.28878913D-04 -0.37428996D-03  0.17898838D-03  0.24738538D-04 -0.17383469D-03
  0.14782546D-04 -0.12268493D-04  0.11025158D-02  0.22490236D-03  0.56604447D-03
  0.73626133D-04  0.64814588D-05  0.67225970D-04 -0.61609459D-03  0.40609442D-03
  0.21000017D-03  0.58126952D-03 -0.20151540D-03  0.62579732D-03 -0.14413241D-03
  0.65963490D-04  0.78168922D-04  0.72973457D-04 -0.10607453D-03  0.39323376D-04
MO    3     MO 0.0        OCC NO =    2.0000000  ORB. ENERGY =  -10.034364
  0.20175369D-04  0.37607762D-04  0.63754403D-04  0.96542955D-04  0.12072730D-03
  0.10393496D-03  0.39956394D-04 -0.17313760D-06 -0.14879986D-04 -0.27941979D-04
 -0.47580371D-04 -0.74534369D-04 -0.99884823D-04 -0.10743959D-03 -0.64506591D-04
  0.42422248D-04  0.22904064D-04 -0.36858566D-03  0.45225748D-04 -0.47827040D-05
 -0.46773800D-05 -0.30905428D-05 -0.70747475D-14 -0.69189486D-14 -0.45716418D-14
  0.19920442D-03  0.19481757D-03  0.12872421D-03  0.18533788D-03  0.70591991D-14
 -0.23529265D-03 -0.12417747D-02 -0.11567408D-13 -0.31070145D-03 -0.31595923D-04
  0.11508623D-14 -0.63486347D-05  0.43536468D-04  0.37076961D-04 -0.80613430D-04
  0.53085559D-14  0.17572304D-02 -0.20767679D-14  0.20391322D-04 -0.16210081D-04
 -0.41812410D-05 -0.32640193D-14 -0.83611888D-03  0.15961902D-14 -0.80633967D-04
  0.12094355D-03 -0.40309578D-04  0.26649802D-14 -0.77583529D-03 -0.59860086D-14
 -0.68445844D-03 -0.31945183D-14 -0.16981690D-03  0.47201545D-03 -0.28040668D-16
  0.70505866D-03  0.15813599D-02  0.96115955D-14 -0.19560795D-03 -0.12669869D-13
  0.33671991D-03  0.11838390D-14  0.92451289D-04 -0.56645845D-04  0.33156893D-16
 -0.37082484D-03 -0.95351388D-03 -0.35846739D-14  0.93470973D-04  0.49574788D-14
 -0.22593817D-03 -0.42120012D-03 -0.71190241D-03 -0.10702225D-02 -0.13148920D-02
 -0.11106365D-02 -0.41889123D-03  0.20731161D-05 -0.12431630D-03 -0.23275934D-03
 -0.39629268D-03 -0.61300452D-03 -0.80730539D-03 -0.83884202D-03 -0.53304644D-03
  0.35723533D-03  0.79640205D-03  0.19215874D-02  0.47658842D-03  0.57860283D-03
  0.54247693D-03  0.38627589D-03 -0.55832578D-14 -0.52346591D-14 -0.37273891D-14
  0.30718895D-03  0.28800916D-03  0.20507968D-03  0.40167515D-04  0.26042663D-13
  0.13428552D-03  0.13302752D-02  0.66518075D-13  0.37537277D-03  0.65690116D-04
  0.30591803D-15  0.10043068D-04  0.13604832D-03  0.50465941D-04 -0.18651426D-03
 -0.77691091D-14  0.37879038D-03  0.32608025D-14 -0.14176174D-02  0.71556870D-03
  0.70204867D-03 -0.21397063D-13 -0.17216719D-02  0.68416048D-14  0.67747151D-04
 -0.50985764D-04 -0.16761387D-04 -0.95847443D-14 -0.26931530D-04  0.23621473D-14
 -0.52125354D-03  0.12040464D-14  0.17666501D-03  0.10554463D-02  0.25796441D-14
 -0.15044286D-02  0.50831436D-03 -0.61917834D-14  0.97443360D-03 -0.10237742D-13
 -0.27920359D-03 -0.17196711D-14  0.36978518D-04  0.45447815D-03  0.27791032D-14
 -0.46446205D-03  0.38313263D-03  0.23799102D-14  0.35352650D-03 -0.22099694D-14
  0.33101490D+00  0.61708703D+00  0.10429858D+01  0.15679493D+01  0.19264068D+01
  0.16271585D+01  0.61370433D+00 -0.30372570D-02 -0.38051469D-02 -0.71244355D-02
 -0.12129961D-01 -0.18763205D-01 -0.24710481D-01 -0.25675773D-01 -0.16315801D-01
  0.10934471D-01  0.32496798D-01 -0.45202532D-02 -0.61009393D-03  0.13964216D-03
  0.13092340D-03  0.93225263D-04  0.50142293D-14  0.47011587D-14  0.33475051D-14
  0.24521612D-03  0.22990570D-03  0.16370656D-03 -0.39917542D-03 -0.27988350D-13
 -0.19115796D-03  0.10813232D-02 -0.59174940D-13 -0.13778994D-03  0.55483204D-04
 -0.90258739D-15  0.15510744D-04 -0.54257432D-03  0.35024662D-03  0.19232770D-03
 -0.94826449D-14 -0.84553249D-03 -0.66661804D-15  0.24372922D-03 -0.67421461D-04
 -0.17630775D-03 -0.18865565D-13  0.43616254D-03  0.15987685D-13 -0.62825469D-04
  0.85006696D-04 -0.22181227D-04 -0.97570556D-14 -0.18399198D-04  0.62910278D-14
 -0.10386426D-02 -0.70754806D-15  0.16854539D-02  0.33858374D-02 -0.15248841D-14
 -0.20700594D-02 -0.26990966D-03  0.36475283D-14 -0.29863022D-02  0.13800884D-13
  0.16269372D-03  0.47534876D-15 -0.34650631D-03 -0.52630400D-03 -0.86175839D-15
  0.24751161D-03  0.38222847D-04 -0.56428789D-15  0.79200733D-03  0.18087505D-14
 -0.40669364D-04 -0.73348873D-04 -0.10815287D-03  0.10345028D-02  0.95634593D-03
 -0.25671493D-04  0.46064241D-04 -0.45872452D-14  0.19581265D-02 -0.27973384D-03
  0.35204041D-14  0.17979651D-02 -0.35644530D-04 -0.43558147D-14  0.28685867D-04
  0.12626762D-02  0.10684105D-02 -0.23310867D-02 -0.14704111D-14  0.10440715D-03
 -0.10557241D-15  0.21967967D-03  0.10068772D-03 -0.32036738D-03  0.25118791D-14
 -0.21166634D-04  0.11962561D-14  0.17062902D-04  0.30773647D-04  0.45375724D-04
 -0.21776711D-04  0.44930800D-03  0.52041753D-04  0.21949988D-03 -0.62391591D-04
  0.11091159D-04 -0.11044865D-02 -0.14633315D-03 -0.67251270D-03  0.28172867D-05
 -0.10986421D-04 -0.66127150D-04 -0.67760850D-03  0.34450222D-03  0.33310629D-03
  0.59780387D-03 -0.30523056D-03  0.68067469D-03 -0.15073897D-03  0.45083167D-04
  0.10565580D-03  0.42480840D-04 -0.92609016D-04 -0.13797688D-04  0.17062902D-04
  0.30773647D-04  0.45375724D-04 -0.21776711D-04  0.44930800D-03  0.52041753D-04
  0.21949988D-03  0.62391591D-04  0.11091159D-04 -0.11044865D-02  0.14633315D-03
 -0.67251270D-03  0.28172867D-05  0.10986421D-04 -0.66127150D-04 -0.67760850D-03
  0.34450222D-03  0.33310629D-03 -0.59780387D-03 -0.30523056D-03 -0.68067469D-03
 -0.15073897D-03  0.45083167D-04  0.10565580D-03 -0.42480840D-04 -0.92609016D-04
  0.13797688D-04 -0.33390744D-04 -0.60221582D-04 -0.88796688D-04  0.48519314D-03
 -0.69648325D-03 -0.41825800D-04  0.11178070D-02  0.16366796D-02 -0.59570468D-03
  0.57231786D-03  0.16090253D-02 -0.87511266D-03  0.17781002D-03  0.14700351D-03
 -0.11247590D-03  0.39041207D-03 -0.11316905D-02  0.74127847D-03 -0.27910044D-02
  0.11595326D-02  0.17149998D-02  0.68927813D-04 -0.13766304D-03  0.68735225D-04
 -0.33618319D-03  0.18316778D-03  0.21691011D-03 -0.33390744D-04 -0.60221582D-04
 -0.88796688D-04  0.48519314D-03 -0.69648325D-03 -0.41825800D-04  0.11178070D-02
 -0.16366796D-02 -0.59570468D-03  0.57231786D-03 -0.16090253D-02 -0.87511266D-03
  0.17781002D-03 -0.14700351D-03 -0.11247590D-03  0.39041207D-03 -0.11316905D-02
  0.74127847D-03  0.27910044D-02  0.11595326D-02 -0.17149998D-02  0.68927813D-04
 -0.13766304D-03  0.68735225D-04  0.33618319D-03  0.18316778D-03 -0.21691011D-03
MO    4     MO 0.0        OCC NO =    2.0000000  ORB. ENERGY =   -1.146557
 -0.86952676D-02 -0.16208355D-01 -0.27477147D-01 -0.41608499D-01 -0.52031574D-01
 -0.44794338D-01 -0.17220579D-01  0.74619588D-04 -0.12203261D+00 -0.22915562D+00
 -0.39021250D+00 -0.61126558D+00 -0.81916779D+00 -0.88112540D+00 -0.52902654D+00
  0.34791011D+00  0.20692941D+00  0.10184207D+00  0.47357770D-02  0.37454637D-02
  0.36629817D-02  0.24202869D-02  0.22558056D-14  0.22061286D-14  0.14576824D-14
  0.30686982D+00  0.30011198D+00  0.19829667D+00  0.46896278D-03 -0.26611771D-14
  0.78461846D-01  0.19631150D-03 -0.16055471D-13  0.77141329D-02  0.91651403D-04
 -0.84009577D-14  0.15535395D-03 -0.12379041D-01 -0.12521571D-01  0.24900612D-01
 -0.57282476D-15  0.70114526D-03  0.99741764D-14 -0.79594929D-02 -0.80081092D-02
  0.15967602D-01  0.22468477D-16  0.22439101D-03 -0.75930016D-14  0.84713499D-04
  0.14775441D-03 -0.23246791D-03 -0.90333887D-15 -0.10173964D-03 -0.10085819D-13
 -0.23756602D-03 -0.23868383D-14  0.54959382D-02  0.23888125D-03 -0.53242505D-14
 -0.80595911D-02  0.47381681D-03  0.12484765D-13 -0.84282236D-02  0.16619639D-13
  0.62207126D-04  0.16899417D-14  0.24493499D-02 -0.28605501D-03  0.30546611D-14
 -0.37478978D-02  0.99433627D-04 -0.81244863D-14 -0.36001519D-02 -0.86270636D-14
 -0.30219232D-02 -0.56335520D-02 -0.95216953D-02 -0.14314227D-01 -0.17586682D-01
 -0.14854764D-01 -0.56026705D-02  0.27727929D-04 -0.14703371D-01 -0.27529349D-01
 -0.46871073D-01 -0.72502423D-01 -0.95483141D-01 -0.99213099D-01 -0.63045471D-01
  0.42251608D-01  0.18793725D-01 -0.12145627D-01 -0.11422774D-02 -0.14359178D-03
 -0.13462642D-03 -0.95862033D-04  0.28025615D-13  0.26275795D-13  0.18709932D-13
 -0.11237895D+00 -0.10536241D+00 -0.75024313D-01  0.95174893D-03 -0.10452032D-12
 -0.24141708D-01 -0.12629931D-02 -0.11337965D-12  0.16249226D-02 -0.53870084D-04
  0.63925356D-14  0.31490681D-04 -0.95585353D-02 -0.10262398D-01  0.19820933D-01
  0.57459294D-14  0.50226155D-03 -0.70015708D-14 -0.14678135D-02 -0.23574990D-02
  0.38253125D-02  0.10788750D-12 -0.33661291D-03 -0.47752340D-13 -0.90570249D-04
  0.34765475D-03 -0.25708450D-03  0.21078401D-14  0.37888066D-03 -0.15855565D-13
  0.95873070D-03 -0.28975917D-14 -0.37119453D-02 -0.19730271D-02 -0.22494907D-14
  0.56023108D-02 -0.90316504D-03  0.10942266D-13  0.55335251D-02  0.35364347D-13
 -0.49473581D-03 -0.22833351D-14 -0.98002184D-04  0.12741386D-02 -0.71517767D-14
  0.10711695D-03  0.21006880D-03  0.14001782D-13  0.18688960D-03  0.20337298D-13
 -0.48113196D-03 -0.89693937D-03 -0.15159855D-02 -0.22790228D-02 -0.28000429D-02
 -0.23650838D-02 -0.89202261D-03  0.44146697D-05 -0.20178722D-02 -0.37780935D-02
 -0.64325274D-02 -0.99501418D-02 -0.13103987D-01 -0.13615882D-01 -0.86522815D-02