 Molden2AIM, Version 4.0.0 (06/02/2016)           Time: Sat Jun 30 02:52:22 2018
GAUSSIAN              9 MOL ORBITALS    312 PRIMITIVES        8 NUCLEI
  C    1    (CENTRE  1)   0.00000000 -0.00000189 -0.16511482  CHARGE =  6.0
  C    2    (CENTRE  2)   0.00000000  0.00000945  2.71058536  CHARGE =  6.0
  H    3    (CENTRE  3)   1.67476222  0.96692373  3.46786287  CHARGE =  1.0
  H    4    (CENTRE  4)  -1.67476222  0.96692373  3.46786287  CHARGE =  1.0
  H    5    (CENTRE  5)   0.00000000 -1.93383422  3.46786665  CHARGE =  1.0
  H    6    (CENTRE  6)   0.00000000  1.93369627 -0.92238666  CHARGE =  1.0
  H    7    (CENTRE  7)  -1.67463561 -0.96684058 -0.92238666  CHARGE =  1.0
  H    8    (CENTRE  8)   1.67463561 -0.96684058 -0.92238666  CHARGE =  1.0
CENTRE ASSIGNMENTS    1  1  1  1  1  1  1  1  1  1  1  1  1  1  1  1  1  1  1  1
CENTRE ASSIGNMENTS    1  1  1  1  1  1  1  1  1  1  1  1  1  1  1  1  1  1  1  1
CENTRE ASSIGNMENTS    1  1  1  1  1  1  1  1  1  1  1  1  1  1  1  1  1  1  1  1
CENTRE ASSIGNMENTS    1  1  1  1  1  1  1  1  1  1  1  1  1  1  1  2  2  2  2  2
CENTRE ASSIGNMENTS    2  2  2  2  2  2  2  2  2  2  2  2  2  2  2  2  2  2  2  2
CENTRE ASSIGNMENTS    2  2  2  2  2  2  2  2  2  2  2  2  2  2  2  2  2  2  2  2
CENTRE ASSIGNMENTS    2  2  2  2  2  2  2  2  2  2  2  2  2  2  2  2  2  2  2  2
CENTRE ASSIGNMENTS    2  2  2  2  2  2  2  2  2  2  3  3  3  3  3  3  3  3  3  3
CENTRE ASSIGNMENTS    3  3  3  3  3  3  3  3  3  3  3  3  3  3  3  3  3  4  4  4
CENTRE ASSIGNMENTS    4  4  4  4  4  4  4  4  4  4  4  4  4  4  4  4  4  4  4  4
CENTRE ASSIGNMENTS    4  4  4  4  5  5  5  5  5  5  5  5  5  5  5  5  5  5  5  5
CENTRE ASSIGNMENTS    5  5  5  5  5  5  5  5  5  5  5  6  6  6  6  6  6  6  6  6
CENTRE ASSIGNMENTS    6  6  6  6  6  6  6  6  6  6  6  6  6  6  6  6  6  6  7  7
CENTRE ASSIGNMENTS    7  7  7  7  7  7  7  7  7  7  7  7  7  7  7  7  7  7  7  7
CENTRE ASSIGNMENTS    7  7  7  7  7  8  8  8  8  8  8  8  8  8  8  8  8  8  8  8
CENTRE ASSIGNMENTS    8  8  8  8  8  8  8  8  8  8  8  8
TYPE ASSIGNMENTS      1  1  1  1  1  1  1  1  1  1  1  1  1  1  1  1  1  1  1  2
TYPE ASSIGNMENTS      2  2  3  3  3  4  4  4  2  3  4  2  3  4  2  3  4  5  6  7
TYPE ASSIGNMENTS      8  9 10  5  6  7  8  9 10  5  6  7  8  9 10 11 12 13 17 14
TYPE ASSIGNMENTS     15 18 19 16 20 11 12 13 17 14 15 18 19 16 20  1  1  1  1  1
TYPE ASSIGNMENTS      1  1  1  1  1  1  1  1  1  1  1  1  1  1  2  2  2  3  3  3
TYPE ASSIGNMENTS      4  4  4  2  3  4  2  3  4  2  3  4  5  6  7  8  9 10  5  6
TYPE ASSIGNMENTS      7  8  9 10  5  6  7  8  9 10 11 12 13 17 14 15 18 19 16 20
TYPE ASSIGNMENTS     11 12 13 17 14 15 18 19 16 20  1  1  1  1  1  1  2  3  4  2
TYPE ASSIGNMENTS      3  4  2  3  4  5  6  7  8  9 10  5  6  7  8  9 10  1  1  1
TYPE ASSIGNMENTS      1  1  1  2  3  4  2  3  4  2  3  4  5  6  7  8  9 10  5  6
TYPE ASSIGNMENTS      7  8  9 10  1  1  1  1  1  1  2  3  4  2  3  4  2  3  4  5
TYPE ASSIGNMENTS      6  7  8  9 10  5  6  7  8  9 10  1  1  1  1  1  1  2  3  4
TYPE ASSIGNMENTS      2  3  4  2  3  4  5  6  7  8  9 10  5  6  7  8  9 10  1  1
TYPE ASSIGNMENTS      1  1  1  1  2  3  4  2  3  4  2  3  4  5  6  7  8  9 10  5
TYPE ASSIGNMENTS      6  7  8  9 10  1  1  1  1  1  1  2  3  4  2  3  4  2  3  4
TYPE ASSIGNMENTS      5  6  7  8  9 10  5  6  7  8  9 10
EXPONENTS  0.8236000D+04 0.1235000D+04 0.2808000D+03 0.7927000D+02 0.2559000D+02
EXPONENTS  0.8997000D+01 0.3319000D+01 0.3643000D+00 0.8236000D+04 0.1235000D+04
EXPONENTS  0.2808000D+03 0.7927000D+02 0.2559000D+02 0.8997000D+01 0.3319000D+01
EXPONENTS  0.3643000D+00 0.9059000D+00 0.1285000D+00 0.4402000D-01 0.1871000D+02
EXPONENTS  0.4133000D+01 0.1200000D+01 0.1871000D+02 0.4133000D+01 0.1200000D+01
EXPONENTS  0.1871000D+02 0.4133000D+01 0.1200000D+01 0.3827000D+00 0.3827000D+00
EXPONENTS  0.3827000D+00 0.1209000D+00 0.1209000D+00 0.1209000D+00 0.3569000D-01
EXPONENTS  0.3569000D-01 0.3569000D-01 0.1097000D+01 0.1097000D+01 0.1097000D+01
EXPONENTS  0.1097000D+01 0.1097000D+01 0.1097000D+01 0.3180000D+00 0.3180000D+00
EXPONENTS  0.3180000D+00 0.3180000D+00 0.3180000D+00 0.3180000D+00 0.1000000D+00
EXPONENTS  0.1000000D+00 0.1000000D+00 0.1000000D+00 0.1000000D+00 0.1000000D+00
EXPONENTS  0.7610000D+00 0.7610000D+00 0.7610000D+00 0.7610000D+00 0.7610000D+00
EXPONENTS  0.7610000D+00 0.7610000D+00 0.7610000D+00 0.7610000D+00 0.7610000D+00
EXPONENTS  0.2680000D+00 0.2680000D+00 0.2680000D+00 0.2680000D+00 0.2680000D+00
EXPONENTS  0.2680000D+00 0.2680000D+00 0.2680000D+00 0.2680000D+00 0.2680000D+00
EXPONENTS  0.8236000D+04 0.1235000D+04 0.2808000D+03 0.7927000D+02 0.2559000D+02
EXPONENTS  0.8997000D+01 0.3319000D+01 0.3643000D+00 0.8236000D+04 0.1235000D+04
EXPONENTS  0.2808000D+03 0.7927000D+02 0.2559000D+02 0.8997000D+01 0.3319000D+01
EXPONENTS  0.3643000D+00 0.9059000D+00 0.1285000D+00 0.4402000D-01 0.1871000D+02
EXPONENTS  0.4133000D+01 0.1200000D+01 0.1871000D+02 0.4133000D+01 0.1200000D+01
EXPONENTS  0.1871000D+02 0.4133000D+01 0.1200000D+01 0.3827000D+00 0.3827000D+00
EXPONENTS  0.3827000D+00 0.1209000D+00 0.1209000D+00 0.1209000D+00 0.3569000D-01
EXPONENTS  0.3569000D-01 0.3569000D-01 0.1097000D+01 0.1097000D+01 0.1097000D+01
EXPONENTS  0.1097000D+01 0.1097000D+01 0.1097000D+01 0.3180000D+00 0.3180000D+00
EXPONENTS  0.3180000D+00 0.3180000D+00 0.3180000D+00 0.3180000D+00 0.1000000D+00
EXPONENTS  0.1000000D+00 0.1000000D+00 0.1000000D+00 0.1000000D+00 0.1000000D+00
EXPONENTS  0.7610000D+00 0.7610000D+00 0.7610000D+00 0.7610000D+00 0.7610000D+00
EXPONENTS  0.7610000D+00 0.7610000D+00 0.7610000D+00 0.7610000D+00 0.7610000D+00
EXPONENTS  0.2680000D+00 0.2680000D+00 0.2680000D+00 0.2680000D+00 0.2680000D+00
EXPONENTS  0.2680000D+00 0.2680000D+00 0.2680000D+00 0.2680000D+00 0.2680000D+00
EXPONENTS  0.3387000D+02 0.5095000D+01 0.1159000D+01 0.3258000D+00 0.1027000D+00
EXPONENTS  0.2526000D-01 0.1407000D+01 0.1407000D+01 0.1407000D+01 0.3880000D+00
EXPONENTS  0.3880000D+00 0.3880000D+00 0.1020000D+00 0.1020000D+00 0.1020000D+00
EXPONENTS  0.1057000D+01 0.1057000D+01 0.1057000D+01 0.1057000D+01 0.1057000D+01
EXPONENTS  0.1057000D+01 0.2470000D+00 0.2470000D+00 0.2470000D+00 0.2470000D+00
EXPONENTS  0.2470000D+00 0.2470000D+00 0.3387000D+02 0.5095000D+01 0.1159000D+01
EXPONENTS  0.3258000D+00 0.1027000D+00 0.2526000D-01 0.1407000D+01 0.1407000D+01
EXPONENTS  0.1407000D+01 0.3880000D+00 0.3880000D+00 0.3880000D+00 0.1020000D+00
EXPONENTS  0.1020000D+00 0.1020000D+00 0.1057000D+01 0.1057000D+01 0.1057000D+01
EXPONENTS  0.1057000D+01 0.1057000D+01 0.1057000D+01 0.2470000D+00 0.2470000D+00
EXPONENTS  0.2470000D+00 0.2470000D+00 0.2470000D+00 0.2470000D+00 0.3387000D+02
EXPONENTS  0.5095000D+01 0.1159000D+01 0.3258000D+00 0.1027000D+00 0.2526000D-01
EXPONENTS  0.1407000D+01 0.1407000D+01 0.1407000D+01 0.3880000D+00 0.3880000D+00
EXPONENTS  0.3880000D+00 0.1020000D+00 0.1020000D+00 0.1020000D+00 0.1057000D+01
EXPONENTS  0.1057000D+01 0.1057000D+01 0.1057000D+01 0.1057000D+01 0.1057000D+01
EXPONENTS  0.2470000D+00 0.2470000D+00 0.2470000D+00 0.2470000D+00 0.2470000D+00
EXPONENTS  0.2470000D+00 0.3387000D+02 0.5095000D+01 0.1159000D+01 0.3258000D+00
EXPONENTS  0.1027000D+00 0.2526000D-01 0.1407000D+01 0.1407000D+01 0.1407000D+01
EXPONENTS  0.3880000D+00 0.3880000D+00 0.3880000D+00 0.1020000D+00 0.1020000D+00
EXPONENTS  0.1020000D+00 0.1057000D+01 0.1057000D+01 0.1057000D+01 0.1057000D+01
EXPONENTS  0.1057000D+01 0.1057000D+01 0.2470000D+00 0.2470000D+00 0.2470000D+00
EXPONENTS  0.2470000D+00 0.2470000D+00 0.2470000D+00 0.3387000D+02 0.5095000D+01
EXPONENTS  0.1159000D+01 0.3258000D+00 0.1027000D+00 0.2526000D-01 0.1407000D+01
EXPONENTS  0.1407000D+01 0.1407000D+01 0.3880000D+00 0.3880000D+00 0.3880000D+00
EXPONENTS  0.1020000D+00 0.1020000D+00 0.1020000D+00 0.1057000D+01 0.1057000D+01
EXPONENTS  0.1057000D+01 0.1057000D+01 0.1057000D+01 0.1057000D+01 0.2470000D+00
EXPONENTS  0.2470000D+00 0.2470000D+00 0.2470000D+00 0.2470000D+00 0.2470000D+00
EXPONENTS  0.3387000D+02 0.5095000D+01 0.1159000D+01 0.3258000D+00 0.1027000D+00
EXPONENTS  0.2526000D-01 0.1407000D+01 0.1407000D+01 0.1407000D+01 0.3880000D+00
EXPONENTS  0.3880000D+00 0.3880000D+00 0.1020000D+00 0.1020000D+00 0.1020000D+00
EXPONENTS  0.1057000D+01 0.1057000D+01 0.1057000D+01 0.1057000D+01 0.1057000D+01
EXPONENTS  0.1057000D+01 0.2470000D+00 0.2470000D+00 0.2470000D+00 0.2470000D+00
EXPONENTS  0.2470000D+00 0.2470000D+00
MO    1     MO 0.0        OCC NO =    2.0000000  ORB. ENERGY =  -10.019393
  0.21628263D+00  0.40320000D+00  0.68147903D+00  0.10244862D+01  0.12586997D+01
  0.10631731D+01  0.40098977D+00 -0.19845208D-02 -0.25398569D-02 -0.47554136D-02
 -0.80964985D-02 -0.12524052D-01 -0.16493736D-01 -0.17138048D-01 -0.10890460D-01
  0.72985332D-02  0.21574041D-01 -0.17438752D-03  0.59078759D-05  0.55774852D-14
  0.52292469D-14  0.37235353D-14  0.48985376D-06  0.45926904D-06  0.32702691D-06
  0.33985157D-03  0.31863245D-03  0.22688529D-03 -0.23339645D-13 -0.12750269D-05
  0.25313724D-03 -0.43788659D-13 -0.52912451D-06  0.84746847D-04 -0.61205029D-15
 -0.21851500D-08  0.76054998D-05  0.13510377D-03  0.13557500D-03 -0.27067876D-03
 -0.46511913D-15  0.35923494D-14 -0.52289246D-06  0.55050315D-03  0.54978475D-03
 -0.11002879D-02  0.21576309D-13  0.17849413D-13  0.94552705D-06  0.10114187D-04
  0.10067915D-04 -0.20182102D-04  0.55446775D-14  0.27687095D-14 -0.41909726D-07
 -0.78822773D-15  0.96836490D-03  0.34621999D-03 -0.10061683D-14 -0.29058871D-02
 -0.51921430D-03  0.33708515D-14  0.79239864D-06 -0.51944567D-03 -0.12857723D-13
  0.52114494D-16 -0.93072464D-04 -0.33887899D-03 -0.69516924D-15  0.27918500D-03
  0.50820860D-03  0.53882576D-15  0.32388496D-07  0.50842838D-03 -0.32737591D-14
  0.25069720D+00  0.46735658D+00  0.78991495D+00  0.11875009D+01  0.14589821D+01
  0.12323436D+01  0.46479466D+00 -0.23002947D-02 -0.29124008D-02 -0.54529333D-02
 -0.92840855D-02 -0.14361069D-01 -0.18913022D-01 -0.19651841D-01 -0.12487863D-01
  0.83690754D-02  0.24846580D-01 -0.57012948D-03 -0.11060588D-03 -0.83025655D-14
 -0.77841829D-14 -0.55428019D-14 -0.57695688D-06 -0.54093375D-06 -0.38517706D-06
 -0.28120920D-03 -0.26365150D-03 -0.18773557D-03  0.36916006D-13  0.14825565D-05
 -0.13470573D-03  0.50816628D-13  0.61962239D-06  0.34913125D-04  0.36813402D-15
  0.19200376D-08  0.45203977D-05  0.18358971D-03  0.18415479D-03 -0.36774451D-03
  0.34330443D-14  0.53711378D-14 -0.61171965D-06  0.47685286D-03  0.47599516D-03
 -0.95284802D-03  0.31144923D-13  0.26621422D-13  0.10102545D-05  0.13905367D-04
  0.13851276D-04 -0.27756642D-04  0.75222756D-14  0.29505187D-14 -0.33550563D-07
  0.85308515D-15 -0.10888377D-02 -0.57457877D-03  0.13560482D-14  0.32674275D-02
  0.86171374D-03 -0.39153036D-14 -0.91439176D-06  0.86202256D-03  0.17701333D-13
 -0.48912663D-15  0.12497216D-03  0.33382022D-03  0.69538343D-15 -0.37488709D-03
 -0.50060431D-03  0.77199646D-15 -0.29398144D-07 -0.50085634D-03  0.83775477D-14
 -0.21472231D-04 -0.38726053D-04 -0.57101543D-04 -0.24746917D-03 -0.15234329D-03
 -0.71247419D-05  0.12074321D-02  0.69693074D-03  0.54462696D-03  0.11794340D-02
  0.68105060D-03  0.11689771D-02  0.11593901D-03  0.66999099D-04  0.10314261D-03
 -0.56603219D-03  0.41369210D-03  0.15234010D-03 -0.16961526D-02 -0.21062963D-02
 -0.12162586D-02 -0.64927852D-04  0.76008418D-04 -0.11080565D-04 -0.24418902D-03
 -0.25762767D-03 -0.14872284D-03 -0.21472231D-04 -0.38726053D-04 -0.57101543D-04
 -0.24746917D-03 -0.15234329D-03 -0.71247419D-05 -0.12074321D-02  0.69693074D-03
  0.54462696D-03 -0.11794340D-02  0.68105060D-03  0.11689771D-02 -0.11593901D-03
  0.66999099D-04  0.10314261D-03 -0.56603219D-03  0.41369210D-03  0.15234010D-03
  0.16961526D-02  0.21062963D-02 -0.12162586D-02 -0.64927852D-04  0.76008418D-04
 -0.11080565D-04  0.24418902D-03  0.25762767D-03 -0.14872284D-03 -0.21478925D-04
 -0.38738126D-04 -0.57119344D-04 -0.24474870D-03 -0.15071941D-03 -0.70920303D-05
  0.22582464D-14 -0.13939256D-02  0.54429317D-03  0.25778302D-14 -0.13603606D-02
  0.11686889D-02  0.55915106D-14 -0.13358420D-03  0.10298627D-03  0.90300688D-03
 -0.10551154D-02  0.15210849D-03  0.12610083D-14 -0.93808651D-15  0.24319052D-02
  0.14646739D-03 -0.13531953D-03 -0.11147854D-04  0.18048221D-14 -0.17920369D-14
  0.29737871D-03 -0.16993744D-04 -0.30648918D-04 -0.45191811D-04 -0.26307217D-03
 -0.12413909D-03  0.83617956D-08 -0.34887648D-14  0.11957798D-02 -0.44052370D-03
  0.88896233D-15  0.11180925D-02 -0.12288462D-02 -0.29756446D-14  0.11532936D-03
 -0.96476746D-04  0.79426068D-03 -0.80831395D-03  0.14053272D-04  0.11215960D-14
 -0.69876964D-15  0.22586609D-02  0.14108805D-03 -0.10231510D-03 -0.38772953D-04
  0.51454413D-15 -0.16118334D-14  0.26793733D-03 -0.16989614D-04 -0.30641469D-04
 -0.45180828D-04 -0.26544244D-03 -0.12546146D-03 -0.23354277D-07 -0.10357875D-02
 -0.59786122D-03 -0.44082049D-03 -0.96947928D-03 -0.55979479D-03 -0.12290588D-02
 -0.10007936D-03 -0.57834601D-04 -0.96625213D-04 -0.40808266D-03  0.39380489D-03
  0.14277769D-04 -0.13881824D-02 -0.19562062D-02 -0.11295788D-02 -0.41517532D-04
  0.80226934D-04 -0.38709403D-04 -0.21092700D-03 -0.23212364D-03 -0.13399384D-03
 -0.16989614D-04 -0.30641469D-04 -0.45180828D-04 -0.26544244D-03 -0.12546146D-03
 -0.23354273D-07  0.10357875D-02 -0.59786122D-03 -0.44082049D-03  0.96947928D-03
 -0.55979479D-03 -0.12290588D-02  0.10007936D-03 -0.57834601D-04 -0.96625213D-04
 -0.40808266D-03  0.39380489D-03  0.14277769D-04  0.13881824D-02  0.19562062D-02
 -0.11295788D-02 -0.41517532D-04  0.80226934D-04 -0.38709403D-04  0.21092700D-03
  0.23212364D-03 -0.13399384D-03
MO    2     MO 0.0        OCC NO =    2.0000000  ORB. ENERGY =  -10.019242
  0.25046848D+00  0.46693020D+00  0.78919430D+00  0.11864175D+01  0.14576510D+01
  0.12312193D+01  0.46437062D+00 -0.22981961D-02 -0.27276553D-02 -0.51070313D-02
 -0.86951578D-02 -0.13450087D-01 -0.17713291D-01 -0.18405244D-01 -0.11695707D-01
  0.78381905D-02  0.23898039D-01 -0.26970890D-02 -0.79532750D-03  0.11398578D-13
  0.10686892D-13  0.76097035D-14  0.58678597D-06  0.55014915D-06  0.39173897D-06
 -0.37382395D-03 -0.35048372D-03 -0.24956529D-03 -0.45615172D-13 -0.14405255D-05
 -0.80072959D-03 -0.43426693D-13 -0.61379048D-06 -0.80732514D-03  0.77500274D-16
  0.77576441D-09 -0.82113489D-04  0.34203103D-03  0.34268785D-03 -0.68471888D-03
  0.48773316D-14  0.46834201D-14 -0.58544283D-06 -0.45823285D-03 -0.45920239D-03
  0.91743524D-03  0.37026375D-13  0.19803081D-13  0.46811800D-06  0.26579909D-04
  0.26525121D-04 -0.53105030D-04  0.95088602D-14  0.20750181D-14  0.55556339D-07
 -0.99770241D-15  0.89324537D-03  0.15813053D-02 -0.10358770D-14 -0.26805830D-02
 -0.23717431D-02  0.40289843D-14  0.84684388D-06 -0.23721726D-02 -0.14854919D-13
  0.88206634D-17 -0.22368642D-03  0.88470302D-05  0.34106038D-15  0.67106517D-03
 -0.13335335D-04 -0.36752237D-15 -0.59204357D-08 -0.13205756D-04 -0.88709112D-14
 -0.21601701D+00 -0.40270482D+00 -0.68064209D+00 -0.10232280D+01 -0.12571538D+01
 -0.10618674D+01 -0.40049731D+00  0.19820835D-02  0.23251923D-02  0.43534936D-02
  0.74121953D-02  0.11465539D-01  0.15099712D-01  0.15689568D-01  0.99700159D-02
 -0.66816728D-02 -0.20472759D-01  0.26439451D-02  0.78766566D-03  0.10541374D-13
  0.98832086D-14  0.70374333D-14  0.51393384D-06  0.48184564D-06  0.34310280D-06
 -0.41944154D-03 -0.39325311D-03 -0.28001964D-03 -0.43114934D-13 -0.12579298D-05
 -0.82797345D-03 -0.26797781D-13 -0.53411841D-06 -0.81098822D-03 -0.55480396D-15
  0.11321579D-08 -0.82340196D-04 -0.31833426D-03 -0.31891724D-03  0.63725151D-03
 -0.78343738D-14 -0.13989964D-14  0.51208322D-06  0.53396869D-03  0.53483590D-03
 -0.10688046D-02 -0.29761202D-13 -0.23501817D-13 -0.34767207D-06 -0.24806224D-04
 -0.24758239D-04  0.49564463D-04 -0.60235022D-14 -0.34415542D-14 -0.58890668D-07
 -0.62759786D-15  0.74145165D-03  0.15132917D-02 -0.96902467D-15 -0.22250864D-02
 -0.22697383D-02  0.28518182D-14  0.73141081D-06 -0.22701367D-02 -0.12257793D-13
  0.28547576D-15 -0.20763172D-03  0.58399147D-04 -0.46568942D-15  0.62290365D-03
 -0.87649709D-04 -0.39073785D-15 -0.84777297D-08 -0.87547731D-04 -0.81802301D-14
  0.29329185D-04  0.52896393D-04  0.77995701D-04 -0.13341249D-03  0.17277234D-03
  0.47842090D-04 -0.10822266D-02 -0.62463354D-03 -0.66813883D-03 -0.13463996D-02
 -0.77754203D-03  0.48992215D-03 -0.99835811D-04 -0.57685500D-04 -0.37399627D-04
  0.10334750D-02 -0.10581701D-03 -0.92765798D-03  0.19728970D-02  0.86935770D-03
  0.50207435D-03  0.15466493D-03  0.34049695D-04 -0.18871463D-03  0.20901990D-03
  0.15522999D-03  0.89662638D-04  0.29329185D-04  0.52896393D-04  0.77995701D-04
 -0.13341249D-03  0.17277234D-03  0.47842090D-04  0.10822266D-02 -0.62463354D-03
 -0.66813883D-03  0.13463996D-02 -0.77754203D-03  0.48992215D-03  0.99835811D-04
 -0.57685500D-04 -0.37399627D-04  0.10334750D-02 -0.10581701D-03 -0.92765798D-03
 -0.19728970D-02 -0.86935770D-03  0.50207435D-03  0.15466493D-03  0.34049695D-04
 -0.18871463D-03 -0.20901990D-03 -0.15522999D-03  0.89662638D-04  0.29350102D-04
  0.52934118D-04  0.78051326D-04 -0.13544816D-03  0.17096145D-03  0.47835821D-04
  0.12374867D-14  0.12493226D-02 -0.66789587D-03 -0.59637476D-14  0.15537013D-02
  0.49046437D-03 -0.48993909D-14  0.11492951D-03 -0.37364252D-04 -0.67503878D-03
  0.16027065D-02 -0.92766771D-03 -0.35044336D-15  0.15206213D-14 -0.10033959D-02
 -0.26262340D-04  0.21495950D-03 -0.18869716D-03 -0.22634249D-14  0.78394363D-15
 -0.17919205D-03 -0.32245284D-04 -0.58155697D-04 -0.85750541D-04  0.96902374D-04
 -0.19154563D-03 -0.48363168D-04  0.90452772D-15  0.14407507D-02 -0.74067427D-03
 -0.91754054D-14  0.17372609D-02  0.31346723D-03 -0.88946924D-14  0.13335723D-03
 -0.52118405D-04  0.80026059D-03 -0.17401804D-02  0.93991978D-03  0.31305211D-14
 -0.16314822D-14  0.13495347D-02  0.47473076D-04 -0.23250829D-03  0.18503521D-03
  0.34807783D-14 -0.16805532D-14  0.22093407D-03 -0.32223637D-04 -0.58116657D-04
 -0.85692976D-04  0.94533091D-04 -0.19357508D-03 -0.48374304D-04 -0.12480425D-02
 -0.72034043D-03 -0.74096690D-03 -0.15055342D-02 -0.86942883D-03  0.31288748D-03
 -0.11582829D-03 -0.66925920D-04 -0.52175042D-04 -0.11053347D-02  0.16539731D-03
  0.93993741D-03 -0.22004356D-02 -0.11691580D-02 -0.67518694D-03 -0.16253092D-03
 -0.22529777D-04  0.18506070D-03 -0.24260504D-03 -0.19139256D-03 -0.11053965D-03
 -0.32223637D-04 -0.58116657D-04 -0.85692976D-04  0.94533091D-04 -0.19357508D-03
 -0.48374304D-04  0.12480425D-02 -0.72034043D-03 -0.74096690D-03  0.15055342D-02
 -0.86942883D-03  0.31288748D-03  0.11582829D-03 -0.66925920D-04 -0.52175042D-04
 -0.11053347D-02  0.16539731D-03  0.93993741D-03  0.22004356D-02  0.11691580D-02
 -0.67518694D-03 -0.16253092D-03 -0.22529777D-04  0.18506070D-03  0.24260504D-03
  0.19139256D-03 -0.11053965D-03
MO    3     MO 0.0        OCC NO =    2.0000000  ORB. ENERGY =   -0.715709
 -0.66456800D-02 -0.12389059D-01 -0.20939691D-01 -0.31479215D-01 -0.38675853D-01
 -0.32667941D-01 -0.12321145D-01  0.60978036D-04 -0.39557888D-01 -0.74064847D-01
 -0.12610174D+00 -0.19506022D+00 -0.25688744D+00 -0.26692251D+00 -0.16961727D+00
  0.11367355D+00  0.49140717D-01  0.21806268D-01 -0.38151121D-03 -0.41185865D-13
 -0.38614366D-13 -0.27495729D-13 -0.51521654D-05 -0.48304825D-05 -0.34395913D-05
  0.67268848D-01  0.63068821D-01  0.44908758D-01  0.17343889D-12  0.53328020D-05
  0.14079423D-01  0.25032541D-12  0.32380498D-05  0.12387274D-04  0.87081847D-14
 -0.45942940D-06 -0.24879205D-04 -0.33116449D-02 -0.33094886D-02  0.66211335D-02
 -0.22131125D-13 -0.23244366D-13 -0.90171099D-05 -0.99563709D-03 -0.99385573D-03
  0.19894928D-02 -0.12645697D-12 -0.64927519D-13  0.87156491D-05 -0.31115492D-04
 -0.28381051D-04  0.59496543D-04 -0.44429402D-13 -0.32744155D-13  0.27978703D-05
  0.20476556D-14  0.20306217D-02  0.46890533D-02  0.27266441D-14 -0.61017201D-02
 -0.70334339D-02 -0.88696110D-14  0.98550856D-05 -0.70337259D-02  0.52194743D-13
 -0.24532193D-14 -0.12866394D-03 -0.14934256D-04 -0.50991811D-14  0.38449448D-03
  0.22737248D-04  0.12458839D-13  0.14973311D-05  0.22065522D-04  0.37951487D-13
 -0.66443251D-02 -0.12386533D-01 -0.20935422D-01 -0.31472797D-01 -0.38667968D-01
 -0.32661280D-01 -0.12318633D-01  0.60965603D-04 -0.39552956D-01 -0.74055614D-01
 -0.12608602D+00 -0.19503590D+00 -0.25685542D+00 -0.26688923D+00 -0.16959613D+00
  0.11365938D+00  0.49134719D-01  0.21800186D-01 -0.38134215D-03 -0.66699027D-13
 -0.62534577D-13 -0.44528344D-13  0.53075048D-05  0.49761231D-05  0.35432961D-05
 -0.67296989D-01 -0.63095205D-01 -0.44927544D-01  0.27992555D-12 -0.53568500D-05
 -0.14084282D-01  0.12955838D-12 -0.32143176D-05 -0.11792558D-04 -0.71425416D-14
  0.46138567D-06  0.24882436D-04 -0.33123354D-02 -0.33101282D-02  0.66224636D-02
  0.37328829D-13  0.12330552D-13 -0.90578627D-05 -0.99521593D-03 -0.99344484D-03
  0.19886608D-02  0.21748549D-12  0.16894037D-12  0.87007832D-05 -0.31084629D-04
 -0.28357015D-04  0.59441643D-04  0.35134616D-13  0.10044282D-13  0.27897721D-05
  0.35874103D-14 -0.20310431D-02 -0.46887098D-02  0.51943307D-14  0.61030137D-02
  0.70328981D-02 -0.15956562D-13 -0.98845233D-05  0.70332313D-02  0.86722975D-13
 -0.43700486D-15  0.12867998D-03  0.15046462D-04  0.52892051D-14 -0.38454509D-03
 -0.22903048D-04 -0.39781905D-14 -0.14948584D-05 -0.22236339D-04  0.68507330D-13
  0.13022304D-01  0.23486261D-01  0.34630478D-01  0.18254283D-01  0.20519794D-03
  0.20098993D-05 -0.88682775D-02 -0.51209579D-02 -0.55395842D-02 -0.40644022D-03
 -0.23689146D-03 -0.22636963D-02  0.60731561D-03  0.34602923D-03  0.12509119D-03
  0.93230840D-04 -0.89402534D-03  0.80079450D-03  0.17134188D-02  0.28798413D-02
  0.16663231D-02 -0.24610751D-03  0.41410174D-04  0.20469734D-03 -0.49715621D-03
 -0.76608217D-04 -0.43021881D-04  0.13022304D-01  0.23486261D-01  0.34630478D-01
  0.18254283D-01  0.20519794D-03  0.20098993D-05  0.88682775D-02 -0.51209579D-02
 -0.55395842D-02  0.40644022D-03 -0.23689146D-03 -0.22636963D-02 -0.60731561D-03
  0.34602923D-03  0.12509119D-03  0.93230840D-04 -0.89402534D-03  0.80079450D-03
 -0.17134188D-02 -0.28798413D-02  0.16663231D-02 -0.24610751D-03  0.41410174D-04
  0.20469734D-03  0.49715621D-03  0.76608217D-04 -0.43021881D-04  0.13022701D-01
  0.23486977D-01  0.34631534D-01  0.18251812D-01  0.20074511D-03  0.36471667D-05
 -0.14157786D-13  0.10242018D-01 -0.55389527D-02  0.60012965D-13  0.46832375D-03
 -0.22624272D-02  0.41701317D-13 -0.69776250D-03  0.12764822D-03 -0.13852071D-02
  0.58655125D-03  0.79865582D-03  0.12481308D-13 -0.70063710D-14 -0.33303180D-02
  0.18583674D-03 -0.39061220D-03  0.20477546D-03  0.22743197D-13 -0.57644123D-14
  0.87401781D-04  0.13026429D-01  0.23493700D-01  0.34641447D-01  0.18255143D-01
  0.20073112D-03  0.36525153D-05  0.30754251D-15 -0.10246069D-01  0.55405783D-02
  0.27213022D-13 -0.46786864D-03  0.22626360D-02  0.28146134D-13  0.69790154D-03
 -0.12770484D-03 -0.13858672D-02  0.58735806D-03  0.79850916D-03 -0.10582767D-13
  0.18007536D-14 -0.33316101D-02  0.18586196D-03 -0.39071210D-03  0.20485015D-03
 -0.75869267D-14  0.11427168D-13  0.87384077D-04  0.13026022D-01  0.23492967D-01
  0.34640366D-01  0.18257600D-01  0.20520624D-03  0.20208018D-05  0.88718078D-02
  0.51229936D-02  0.55412000D-02  0.40597197D-03  0.23662343D-03  0.22639195D-02
 -0.60745261D-03 -0.34610540D-03 -0.12513282D-03  0.93650853D-04 -0.89431841D-03
  0.80066756D-03  0.17146622D-02  0.28809325D-02  0.16669586D-02 -0.24618630D-03
  0.41402092D-04  0.20478421D-03 -0.49727808D-03 -0.76611576D-04 -0.43033267D-04
  0.13026022D-01  0.23492967D-01  0.34640366D-01  0.18257600D-01  0.20520624D-03
  0.20208018D-05 -0.88718078D-02  0.51229936D-02  0.55412000D-02 -0.40597197D-03
  0.23662343D-03  0.22639195D-02  0.60745261D-03 -0.34610540D-03 -0.12513282D-03
  0.93650853D-04 -0.89431841D-03  0.80066756D-03 -0.17146622D-02 -0.28809325D-02
  0.16669586D-02 -0.24618630D-03  0.41402092D-04  0.20478421D-03  0.49727808D-03
  0.76611576D-04 -0.43033267D-04
MO    4     MO 0.0        OCC NO =    2.0000000  ORB. ENERGY =   -0.578581
  0.50744845D-02  0.94599929D-02  0.15989055D-01  0.24036786D-01  0.29531969D-01
  0.24944469D-01  0.94081360D-02 -0.46561390D-04  0.35292989D-01  0.66079612D-01
  0.11250619D+00  0.17402997D+00  0.22919135D+00  0.23814450D+00  0.15133014D+00
 -0.10141794D+00 -0.44174651D-01 -0.42688251D-01  0.19647004D-02  0.59183038D-13
  0.55487860D-13  0.39510662D-13  0.26889399D-05  0.25210521D-05  0.17951393D-05
  0.15524028D+00  0.14554763D+00  0.10363858D+00 -0.29123086D-12 -0.17637065D-04
  0.35248626D-01 -0.83630793D-12 -0.58278783D-05 -0.17722109D-02 -0.10065913D-13
  0.11791087D-06  0.11496464D-03 -0.53751057D-02 -0.53846394D-02  0.10759745D-01
 -0.13599561D-13  0.28899276D-13  0.15898841D-04 -0.10726317D-02 -0.10763488D-02
  0.21489805D-02  0.32533405D-12  0.28384452D-12  0.41220537D-05  0.61642929D-04
  0.57002529D-04 -0.11864546D-03  0.11921044D-12  0.56503094D-13 -0.12981086D-06
 -0.12112978D-13 -0.17378826D-02 -0.36799108D-02 -0.12845848D-13  0.52164056D-02
  0.55187307D-02  0.49184781D-13 -0.27578264D-05  0.55210018D-02 -0.16270273D-12
  0.43723519D-15 -0.28049388D-03  0.91537690D-04 -0.36048775D-14  0.84161215D-03
 -0.13862769D-03  0.22931719D-14 -0.13050121D-06 -0.13598538D-03 -0.64353897D-13
 -0.50748962D-02 -0.94607603D-02 -0.15990352D-01 -0.24038736D-01 -0.29534365D-01
 -0.24946493D-01 -0.94088992D-02  0.46565167D-04 -0.35299112D-01 -0.66091074D-01
 -0.11252571D+00 -0.17406016D+00 -0.22923111D+00 -0.23818581D+00 -0.15135639D+00
  0.10143553D+00  0.44181689D-01  0.42692697D-01 -0.19645274D-02 -0.12881721D-12
 -0.12077432D-12 -0.85998511D-13  0.27407021D-05  0.25695824D-05  0.18296958D-05
  0.15519098D+00  0.14550140D+00  0.10360567D+00  0.58404726D-12 -0.17572272D-04
  0.35238767D-01  0.10794277D-11 -0.57959704D-05 -0.17728643D-02  0.31849770D-14
  0.11853792D-06  0.11495892D-03  0.53738935D-02  0.53834763D-02 -0.10757370D-01
  0.24065646D-13  0.47573140D-13 -0.15952179D-04  0.10723969D-02  0.10760684D-02
 -0.21484652D-02  0.53900662D-12  0.44355902D-12 -0.40894408D-05 -0.61639932D-04
 -0.57002114D-04  0.11864205D-03  0.16709069D-12  0.89980244D-13  0.13770205D-06
  0.14284760D-13 -0.17388393D-02 -0.36812686D-02  0.15958147D-13  0.52193277D-02
  0.55207528D-02 -0.58812428D-13 -0.28098579D-05  0.55230531D-02  0.25004205D-12
 -0.26273010D-14 -0.28046059D-03  0.91500341D-04  0.17849848D-14  0.84151259D-03
 -0.13856403D-03  0.60969182D-14 -0.13080135D-06 -0.13593699D-03  0.13946862D-12
  0.18329520D-01  0.33058043D-01  0.48744066D-01  0.22537957D-01  0.13195734D-02
 -0.30938507D-04 -0.12967528D-01 -0.74895163D-02 -0.25542778D-02 -0.12345366D-02
 -0.71088492D-03  0.23538076D-02  0.57942870D-03  0.32952166D-03  0.47082054D-03
  0.20690128D-02 -0.13206207D-04 -0.20558066D-02  0.36000643D-02  0.90334000D-03
  0.52214360D-03 -0.15863117D-03  0.71083036D-04  0.87548133D-04 -0.39864762D-03
 -0.22869507D-03 -0.13180488D-03  0.18329520D-01  0.33058043D-01  0.48744066D-01
  0.22537957D-01  0.13195734D-02 -0.30938507D-04  0.12967528D-01 -0.74895163D-02
 -0.25542778D-02  0.12345366D-02 -0.71088492D-03  0.23538076D-02 -0.57942870D-03
  0.32952166D-03  0.47082054D-03  0.20690128D-02 -0.13206207D-04 -0.20558066D-02
 -0.36000643D-02 -0.90334000D-03  0.52214360D-03 -0.15863117D-03  0.71083036D-04
  0.87548133D-04  0.39864762D-03  0.22869507D-03 -0.13180488D-03  0.18330567D-01
  0.33059932D-01  0.48746851D-01  0.22515491D-01  0.12823135D-02 -0.30543615D-04
  0.25461096D-13  0.14974805D-01 -0.25583955D-02  0.57174250D-13  0.14084683D-02
  0.23604214D-02  0.12833663D-12 -0.67086080D-03  0.47226195D-03 -0.10490421D-02
  0.31060101D-02 -0.20569680D-02  0.28951089D-13 -0.13822930D-13 -0.10332731D-02
  0.18817405D-03 -0.27605444D-03  0.87880395D-04  0.33510218D-13 -0.43502883D-13
  0.26350980D-03 -0.18330867D-01 -0.33060474D-01 -0.48747649D-01 -0.22513814D-01
 -0.12821458D-02  0.30534328D-04 -0.35355893D-13  0.14976734D-01 -0.25576382D-02
  0.11883882D-14  0.14081273D-02  0.23613491D-02 -0.73730296D-13 -0.67085990D-03
  0.47223112D-03  0.10492477D-02 -0.31067044D-02  0.20574567D-02  0.18226051D-13
 -0.11360848D-13  0.10330768D-02 -0.18820881D-03  0.27606389D-03 -0.87855082D-04
  0.10411875D-13 -0.29021788D-13 -0.26351790D-03 -0.18329845D-01 -0.33058630D-01
 -0.48744930D-01 -0.22536415D-01 -0.13195307D-02  0.30927812D-04 -0.12969247D-01
 -0.74904877D-02 -0.25535677D-02 -0.12342686D-02 -0.71074778D-03  0.23547283D-02
  0.57942054D-03  0.32951838D-03  0.47078328D-03 -0.20694954D-02  0.13181411D-04
  0.20563140D-02 -0.36008534D-02 -0.90325201D-03 -0.52210293D-03  0.15863848D-03
 -0.71101396D-04 -0.87537082D-04  0.39869126D-03  0.22871434D-03  0.13182085D-03
 -0.18329845D-01 -0.33058630D-01 -0.48744930D-01 -0.22536415D-01 -0.13195307D-02
  0.30927813D-04  0.12969247D-01 -0.74904877D-02 -0.25535677D-02  0.12342686D-02
 -0.71074778D-03  0.23547283D-02 -0.57942055D-03  0.32951838D-03  0.47078328D-03
 -0.20694954D-02  0.13181411D-04  0.20563140D-02  0.36008534D-02  0.90325201D-03
 -0.52210293D-03  0.15863848D-03 -0.71101396D-04 -0.87537082D-04 -0.39869126D-03
 -0.22871434D-03  0.13182085D-03
MO    5     MO 0.0        OCC NO =    2.0000000  ORB. ENERGY =   -0.399559
 -0.11009237D-05 -0.20523720D-05 -0.34688702D-05 -0.52148482D-05 -0.64070436D-05
 -0.54117725D-05 -0.20411215D-05  0.10101624D-07  0.12761962D-05  0.23894419D-05
  0.40682293D-05  0.62929322D-05  0.82875703D-05  0.86113164D-05  0.54721050D-05
 -0.36672775D-05 -0.84467161D-05  0.10479676D-03  0.41961118D-05 -0.14528973D-09
 -0.13621836D-09 -0.96995588D-10  0.38420235D+00  0.36021413D+00  0.25649392D+00
 -0.27729324D-05 -0.25998004D-05 -0.18512128D-05 -0.32793478D-10  0.87095040D-01
 -0.14318718D-04 -0.44703563D-11  0.12469306D-01  0.99866940D-05 -0.41660598D-13
  0.11915961D-03  0.37702641D-06 -0.11445346D-01  0.11438562D-01  0.67846297D-05
  0.86509400D-11  0.12134822D-11 -0.32283341D-02 -0.10578660D-02  0.10647056D-02
 -0.68396082D-05  0.67961645D-12 -0.10541677D-11  0.25173101D-02 -0.28379681D-03
  0.28325964D-03  0.53717465D-06  0.17776309D-12  0.18643989D-12 -0.53279428D-03
  0.64393060D-12 -0.16954214D-02 -0.77678937D-06  0.64552028D-12 -0.17021620D-02