 Molden2AIM, Version 4.0.0 (06/02/2016)           Time: Sat Jun 30 03:10:36 2018
GAUSSIAN             17 MOL ORBITALS    443 PRIMITIVES        9 NUCLEI
  S    1    (CENTRE  1)  -9.92513829  4.99981092  0.68369535  CHARGE = 16.0
  C    2    (CENTRE  2)  -6.51756903  5.09413093  0.38429093  CHARGE =  6.0
  C    3    (CENTRE  3) -10.76696215  5.66336747 -2.56609312  CHARGE =  6.0
  H    4    (CENTRE  4)  -5.72229291  4.71402953  2.26041291  CHARGE =  1.0
  H    5    (CENTRE  5)  -5.87771532  6.96509397 -0.24731602  CHARGE =  1.0
  H    6    (CENTRE  6)  -5.84600950  3.63865820 -0.93462075  CHARGE =  1.0
  H    7    (CENTRE  7) -10.06122125  7.52544690 -3.15211420  CHARGE =  1.0
  H    8    (CENTRE  8) -12.83673949  5.66722818 -2.67910819  CHARGE =  1.0
  H    9    (CENTRE  9) -10.02998408  4.19900546 -3.83943783  CHARGE =  1.0
CENTRE ASSIGNMENTS    1  1  1  1  1  1  1  1  1  1  1  1  1  1  1  1  1  1  1  1
CENTRE ASSIGNMENTS    1  1  1  1  1  1  1  1  1  1  1  1  1  1  1  1  1  1  1  1
CENTRE ASSIGNMENTS    1  1  1  1  1  1  1  1  1  1  1  1  1  1  1  1  1  1  1  1
CENTRE ASSIGNMENTS    1  1  1  1  1  1  1  1  1  1  1  1  1  1  1  1  1  1  1  1
CENTRE ASSIGNMENTS    1  1  1  1  1  1  1  1  1  1  1  1  1  1  1  1  1  1  1  1
CENTRE ASSIGNMENTS    1  1  1  1  1  1  1  1  1  1  1  1  1  1  1  1  1  1  1  1
CENTRE ASSIGNMENTS    1  1  1  1  1  1  1  1  1  1  1  2  2  2  2  2  2  2  2  2
CENTRE ASSIGNMENTS    2  2  2  2  2  2  2  2  2  2  2  2  2  2  2  2  2  2  2  2
CENTRE ASSIGNMENTS    2  2  2  2  2  2  2  2  2  2  2  2  2  2  2  2  2  2  2  2
CENTRE ASSIGNMENTS    2  2  2  2  2  2  2  2  2  2  2  2  2  2  2  2  2  2  2  2
CENTRE ASSIGNMENTS    2  2  2  2  2  2  3  3  3  3  3  3  3  3  3  3  3  3  3  3
CENTRE ASSIGNMENTS    3  3  3  3  3  3  3  3  3  3  3  3  3  3  3  3  3  3  3  3
CENTRE ASSIGNMENTS    3  3  3  3  3  3  3  3  3  3  3  3  3  3  3  3  3  3  3  3
CENTRE ASSIGNMENTS    3  3  3  3  3  3  3  3  3  3  3  3  3  3  3  3  3  3  3  3
CENTRE ASSIGNMENTS    3  4  4  4  4  4  4  4  4  4  4  4  4  4  4  4  4  4  4  4
CENTRE ASSIGNMENTS    4  4  4  4  4  4  4  4  5  5  5  5  5  5  5  5  5  5  5  5
CENTRE ASSIGNMENTS    5  5  5  5  5  5  5  5  5  5  5  5  5  5  5  6  6  6  6  6
CENTRE ASSIGNMENTS    6  6  6  6  6  6  6  6  6  6  6  6  6  6  6  6  6  6  6  6
CENTRE ASSIGNMENTS    6  6  7  7  7  7  7  7  7  7  7  7  7  7  7  7  7  7  7  7
CENTRE ASSIGNMENTS    7  7  7  7  7  7  7  7  7  8  8  8  8  8  8  8  8  8  8  8
CENTRE ASSIGNMENTS    8  8  8  8  8  8  8  8  8  8  8  8  8  8  8  8  9  9  9  9
CENTRE ASSIGNMENTS    9  9  9  9  9  9  9  9  9  9  9  9  9  9  9  9  9  9  9  9
CENTRE ASSIGNMENTS    9  9  9
TYPE ASSIGNMENTS      1  1  1  1  1  1  1  1  1  1  1  1  1  1  1  1  1  1  1  1
TYPE ASSIGNMENTS      1  1  1  1  1  1  1  1  1  1  1  1  1  1  1  1  1  1  1  1
TYPE ASSIGNMENTS      1  1  2  2  2  2  2  2  2  3  3  3  3  3  3  3  4  4  4  4
TYPE ASSIGNMENTS      4  4  4  2  2  2  2  2  2  2  3  3  3  3  3  3  3  4  4  4
TYPE ASSIGNMENTS      4  4  4  4  2  3  4  2  3  4  2  3  4  5  6  7  8  9 10  5
TYPE ASSIGNMENTS      6  7  8  9 10  5  6  7  8  9 10 11 12 13 17 14 15 18 19 16
TYPE ASSIGNMENTS     20 11 12 13 17 14 15 18 19 16 20  1  1  1  1  1  1  1  1  1
TYPE ASSIGNMENTS      1  1  1  1  1  1  1  1  1  1  2  2  2  3  3  3  4  4  4  2
TYPE ASSIGNMENTS      3  4  2  3  4  2  3  4  5  6  7  8  9 10  5  6  7  8  9 10
TYPE ASSIGNMENTS      5  6  7  8  9 10 11 12 13 17 14 15 18 19 16 20 11 12 13 17
TYPE ASSIGNMENTS     14 15 18 19 16 20  1  1  1  1  1  1  1  1  1  1  1  1  1  1
TYPE ASSIGNMENTS      1  1  1  1  1  2  2  2  3  3  3  4  4  4  2  3  4  2  3  4
TYPE ASSIGNMENTS      2  3  4  5  6  7  8  9 10  5  6  7  8  9 10  5  6  7  8  9
TYPE ASSIGNMENTS     10 11 12 13 17 14 15 18 19 16 20 11 12 13 17 14 15 18 19 16
TYPE ASSIGNMENTS     20  1  1  1  1  1  1  2  3  4  2  3  4  2  3  4  5  6  7  8
TYPE ASSIGNMENTS      9 10  5  6  7  8  9 10  1  1  1  1  1  1  2  3  4  2  3  4
TYPE ASSIGNMENTS      2  3  4  5  6  7  8  9 10  5  6  7  8  9 10  1  1  1  1  1
TYPE ASSIGNMENTS      1  2  3  4  2  3  4  2  3  4  5  6  7  8  9 10  5  6  7  8
TYPE ASSIGNMENTS      9 10  1  1  1  1  1  1  2  3  4  2  3  4  2  3  4  5  6  7
TYPE ASSIGNMENTS      8  9 10  5  6  7  8  9 10  1  1  1  1  1  1  2  3  4  2  3
TYPE ASSIGNMENTS      4  2  3  4  5  6  7  8  9 10  5  6  7  8  9 10  1  1  1  1
TYPE ASSIGNMENTS      1  1  2  3  4  2  3  4  2  3  4  5  6  7  8  9 10  5  6  7
TYPE ASSIGNMENTS      8  9 10
EXPONENTS  0.3741000D+06 0.5605000D+05 0.1276000D+05 0.3615000D+04 0.1183000D+04
EXPONENTS  0.4288000D+03 0.1678000D+03 0.6947000D+02 0.2984000D+02 0.1272000D+02
EXPONENTS  0.5244000D+01 0.2219000D+01 0.3490000D+00 0.3741000D+06 0.5605000D+05
EXPONENTS  0.1276000D+05 0.3615000D+04 0.1183000D+04 0.4288000D+03 0.1678000D+03
EXPONENTS  0.6947000D+02 0.2984000D+02 0.1272000D+02 0.5244000D+01 0.2219000D+01
EXPONENTS  0.3490000D+00 0.3741000D+06 0.5605000D+05 0.1276000D+05 0.3615000D+04
EXPONENTS  0.1183000D+04 0.4288000D+03 0.1678000D+03 0.6947000D+02 0.2984000D+02
EXPONENTS  0.1272000D+02 0.5244000D+01 0.2219000D+01 0.3490000D+00 0.7767000D+00
EXPONENTS  0.1322000D+00 0.4970000D-01 0.5744000D+03 0.1358000D+03 0.4319000D+02
EXPONENTS  0.1587000D+02 0.6208000D+01 0.2483000D+01 0.3229000D+00 0.5744000D+03
EXPONENTS  0.1358000D+03 0.4319000D+02 0.1587000D+02 0.6208000D+01 0.2483000D+01
EXPONENTS  0.3229000D+00 0.5744000D+03 0.1358000D+03 0.4319000D+02 0.1587000D+02
EXPONENTS  0.6208000D+01 0.2483000D+01 0.3229000D+00 0.5744000D+03 0.1358000D+03
EXPONENTS  0.4319000D+02 0.1587000D+02 0.6208000D+01 0.2483000D+01 0.3229000D+00
EXPONENTS  0.5744000D+03 0.1358000D+03 0.4319000D+02 0.1587000D+02 0.6208000D+01
EXPONENTS  0.2483000D+01 0.3229000D+00 0.5744000D+03 0.1358000D+03 0.4319000D+02
EXPONENTS  0.1587000D+02 0.6208000D+01 0.2483000D+01 0.3229000D+00 0.8688000D+00
EXPONENTS  0.8688000D+00 0.8688000D+00 0.1098000D+00 0.1098000D+00 0.1098000D+00
EXPONENTS  0.3510000D-01 0.3510000D-01 0.3510000D-01 0.2690000D+00 0.2690000D+00
EXPONENTS  0.2690000D+00 0.2690000D+00 0.2690000D+00 0.2690000D+00 0.8190000D+00
EXPONENTS  0.8190000D+00 0.8190000D+00 0.8190000D+00 0.8190000D+00 0.8190000D+00
EXPONENTS  0.1010000D+00 0.1010000D+00 0.1010000D+00 0.1010000D+00 0.1010000D+00
EXPONENTS  0.1010000D+00 0.5570000D+00 0.5570000D+00 0.5570000D+00 0.5570000D+00
EXPONENTS  0.5570000D+00 0.5570000D+00 0.5570000D+00 0.5570000D+00 0.5570000D+00
EXPONENTS  0.5570000D+00 0.2180000D+00 0.2180000D+00 0.2180000D+00 0.2180000D+00
EXPONENTS  0.2180000D+00 0.2180000D+00 0.2180000D+00 0.2180000D+00 0.2180000D+00
EXPONENTS  0.2180000D+00 0.8236000D+04 0.1235000D+04 0.2808000D+03 0.7927000D+02
EXPONENTS  0.2559000D+02 0.8997000D+01 0.3319000D+01 0.3643000D+00 0.8236000D+04
EXPONENTS  0.1235000D+04 0.2808000D+03 0.7927000D+02 0.2559000D+02 0.8997000D+01
EXPONENTS  0.3319000D+01 0.3643000D+00 0.9059000D+00 0.1285000D+00 0.4402000D-01
EXPONENTS  0.1871000D+02 0.4133000D+01 0.1200000D+01 0.1871000D+02 0.4133000D+01
EXPONENTS  0.1200000D+01 0.1871000D+02 0.4133000D+01 0.1200000D+01 0.3827000D+00
EXPONENTS  0.3827000D+00 0.3827000D+00 0.1209000D+00 0.1209000D+00 0.1209000D+00
EXPONENTS  0.3569000D-01 0.3569000D-01 0.3569000D-01 0.1097000D+01 0.1097000D+01
EXPONENTS  0.1097000D+01 0.1097000D+01 0.1097000D+01 0.1097000D+01 0.3180000D+00
EXPONENTS  0.3180000D+00 0.3180000D+00 0.3180000D+00 0.3180000D+00 0.3180000D+00
EXPONENTS  0.1000000D+00 0.1000000D+00 0.1000000D+00 0.1000000D+00 0.1000000D+00
EXPONENTS  0.1000000D+00 0.7610000D+00 0.7610000D+00 0.7610000D+00 0.7610000D+00
EXPONENTS  0.7610000D+00 0.7610000D+00 0.7610000D+00 0.7610000D+00 0.7610000D+00
EXPONENTS  0.7610000D+00 0.2680000D+00 0.2680000D+00 0.2680000D+00 0.2680000D+00
EXPONENTS  0.2680000D+00 0.2680000D+00 0.2680000D+00 0.2680000D+00 0.2680000D+00
EXPONENTS  0.2680000D+00 0.8236000D+04 0.1235000D+04 0.2808000D+03 0.7927000D+02
EXPONENTS  0.2559000D+02 0.8997000D+01 0.3319000D+01 0.3643000D+00 0.8236000D+04
EXPONENTS  0.1235000D+04 0.2808000D+03 0.7927000D+02 0.2559000D+02 0.8997000D+01
EXPONENTS  0.3319000D+01 0.3643000D+00 0.9059000D+00 0.1285000D+00 0.4402000D-01
EXPONENTS  0.1871000D+02 0.4133000D+01 0.1200000D+01 0.1871000D+02 0.4133000D+01
EXPONENTS  0.1200000D+01 0.1871000D+02 0.4133000D+01 0.1200000D+01 0.3827000D+00
EXPONENTS  0.3827000D+00 0.3827000D+00 0.1209000D+00 0.1209000D+00 0.1209000D+00
EXPONENTS  0.3569000D-01 0.3569000D-01 0.3569000D-01 0.1097000D+01 0.1097000D+01
EXPONENTS  0.1097000D+01 0.1097000D+01 0.1097000D+01 0.1097000D+01 0.3180000D+00
EXPONENTS  0.3180000D+00 0.3180000D+00 0.3180000D+00 0.3180000D+00 0.3180000D+00
EXPONENTS  0.1000000D+00 0.1000000D+00 0.1000000D+00 0.1000000D+00 0.1000000D+00
EXPONENTS  0.1000000D+00 0.7610000D+00 0.7610000D+00 0.7610000D+00 0.7610000D+00
EXPONENTS  0.7610000D+00 0.7610000D+00 0.7610000D+00 0.7610000D+00 0.7610000D+00
EXPONENTS  0.7610000D+00 0.2680000D+00 0.2680000D+00 0.2680000D+00 0.2680000D+00
EXPONENTS  0.2680000D+00 0.2680000D+00 0.2680000D+00 0.2680000D+00 0.2680000D+00
EXPONENTS  0.2680000D+00 0.3387000D+02 0.5095000D+01 0.1159000D+01 0.3258000D+00
EXPONENTS  0.1027000D+00 0.2526000D-01 0.1407000D+01 0.1407000D+01 0.1407000D+01
EXPONENTS  0.3880000D+00 0.3880000D+00 0.3880000D+00 0.1020000D+00 0.1020000D+00
EXPONENTS  0.1020000D+00 0.1057000D+01 0.1057000D+01 0.1057000D+01 0.1057000D+01
EXPONENTS  0.1057000D+01 0.1057000D+01 0.2470000D+00 0.2470000D+00 0.2470000D+00
EXPONENTS  0.2470000D+00 0.2470000D+00 0.2470000D+00 0.3387000D+02 0.5095000D+01
EXPONENTS  0.1159000D+01 0.3258000D+00 0.1027000D+00 0.2526000D-01 0.1407000D+01
EXPONENTS  0.1407000D+01 0.1407000D+01 0.3880000D+00 0.3880000D+00 0.3880000D+00
EXPONENTS  0.1020000D+00 0.1020000D+00 0.1020000D+00 0.1057000D+01 0.1057000D+01
EXPONENTS  0.1057000D+01 0.1057000D+01 0.1057000D+01 0.1057000D+01 0.2470000D+00
EXPONENTS  0.2470000D+00 0.2470000D+00 0.2470000D+00 0.2470000D+00 0.2470000D+00
EXPONENTS  0.3387000D+02 0.5095000D+01 0.1159000D+01 0.3258000D+00 0.1027000D+00
EXPONENTS  0.2526000D-01 0.1407000D+01 0.1407000D+01 0.1407000D+01 0.3880000D+00
EXPONENTS  0.3880000D+00 0.3880000D+00 0.1020000D+00 0.1020000D+00 0.1020000D+00
EXPONENTS  0.1057000D+01 0.1057000D+01 0.1057000D+01 0.1057000D+01 0.1057000D+01
EXPONENTS  0.1057000D+01 0.2470000D+00 0.2470000D+00 0.2470000D+00 0.2470000D+00
EXPONENTS  0.2470000D+00 0.2470000D+00 0.3387000D+02 0.5095000D+01 0.1159000D+01
EXPONENTS  0.3258000D+00 0.1027000D+00 0.2526000D-01 0.1407000D+01 0.1407000D+01
EXPONENTS  0.1407000D+01 0.3880000D+00 0.3880000D+00 0.3880000D+00 0.1020000D+00
EXPONENTS  0.1020000D+00 0.1020000D+00 0.1057000D+01 0.1057000D+01 0.1057000D+01
EXPONENTS  0.1057000D+01 0.1057000D+01 0.1057000D+01 0.2470000D+00 0.2470000D+00
EXPONENTS  0.2470000D+00 0.2470000D+00 0.2470000D+00 0.2470000D+00 0.3387000D+02
EXPONENTS  0.5095000D+01 0.1159000D+01 0.3258000D+00 0.1027000D+00 0.2526000D-01
EXPONENTS  0.1407000D+01 0.1407000D+01 0.1407000D+01 0.3880000D+00 0.3880000D+00
EXPONENTS  0.3880000D+00 0.1020000D+00 0.1020000D+00 0.1020000D+00 0.1057000D+01
EXPONENTS  0.1057000D+01 0.1057000D+01 0.1057000D+01 0.1057000D+01 0.1057000D+01
EXPONENTS  0.2470000D+00 0.2470000D+00 0.2470000D+00 0.2470000D+00 0.2470000D+00
EXPONENTS  0.2470000D+00 0.3387000D+02 0.5095000D+01 0.1159000D+01 0.3258000D+00
EXPONENTS  0.1027000D+00 0.2526000D-01 0.1407000D+01 0.1407000D+01 0.1407000D+01
EXPONENTS  0.3880000D+00 0.3880000D+00 0.3880000D+00 0.1020000D+00 0.1020000D+00
EXPONENTS  0.1020000D+00 0.1057000D+01 0.1057000D+01 0.1057000D+01 0.1057000D+01
EXPONENTS  0.1057000D+01 0.1057000D+01 0.2470000D+00 0.2470000D+00 0.2470000D+00
EXPONENTS  0.2470000D+00 0.2470000D+00 0.2470000D+00
MO    1     MO 0.0        OCC NO =    2.0000000  ORB. ENERGY =  -88.566009
  0.58541121D+00  0.10943922D+01  0.18914515D+01  0.30593379D+01  0.46240101D+01
  0.63680207D+01  0.74427398D+01  0.64310887D+01  0.29994827D+01  0.40726495D+00
  0.10905552D-02  0.21392185D-02  0.97664258D-04 -0.16831085D-02 -0.31432769D-02
 -0.54525001D-02 -0.88410404D-02 -0.13611788D-01 -0.19386244D-01 -0.24928193D-01
 -0.26167185D-01 -0.18502054D-01  0.40973573D-03  0.13293965D-01  0.73200179D-02
 -0.30956232D-04  0.72936074D-03  0.13610950D-02  0.23640592D-02  0.38292513D-02
  0.59150726D-02  0.84328248D-02  0.10968350D-01  0.11689305D-01  0.86697144D-02
 -0.26985602D-03 -0.78543096D-02 -0.76945125D-02  0.35937937D-02 -0.35879815D-02
 -0.20147865D-02 -0.63299292D-03  0.62394721D-02  0.81858476D-02  0.89786272D-02
  0.73877567D-02  0.38949715D-02  0.10132875D-02 -0.11213059D-05  0.18430783D-02
  0.24180184D-02  0.26521977D-02  0.21822703D-02  0.11505360D-02  0.29931510D-03
 -0.33122267D-06 -0.86312434D-02 -0.11323721D-01 -0.12420396D-01 -0.10219699D-01
 -0.53880274D-02 -0.14017101D-02  0.15511351D-05 -0.53627031D-02 -0.70412618D-02
 -0.79218943D-02 -0.66747949D-02 -0.37337867D-02 -0.92933191D-03  0.42623639D-03
 -0.15840029D-02 -0.20798054D-02 -0.23399214D-02 -0.19715607D-02 -0.11028634D-02
 -0.27450045D-03  0.12589913D-03  0.74182219D-02  0.97401705D-02  0.10958349D-01
  0.92332372D-02  0.51649434D-02  0.12855439D-02 -0.58961238D-03 -0.17281614D-03
 -0.51052879D-04  0.23907667D-03 -0.43628873D-03 -0.12887159D-03  0.60351622D-03
 -0.14310642D-04 -0.42276114D-05  0.19795832D-04 -0.28715092D-04  0.35733795D-04
 -0.70187027D-05  0.10179744D-04 -0.55372561D-04  0.17888406D-04  0.19219120D-03
 -0.31909405D-03  0.12690284D-03 -0.16442899D-04  0.12852707D-03 -0.19123689D-03
 -0.26734204D-04  0.55244922D-04 -0.28510718D-04 -0.47340553D-05  0.15006911D-04
  0.36319755D-04  0.95366949D-04 -0.31515893D-04 -0.49214153D-04 -0.11466268D-03
  0.12067122D-05  0.17732959D-04 -0.17143816D-03  0.93340968D-04  0.12990950D-03
  0.21620531D-04 -0.24890621D-04  0.72010556D-05  0.12086945D-04  0.26598948D-04
  0.16799565D-06 -0.66389758D-05  0.48072916D-04 -0.21771162D-04 -0.29621860D-04
 -0.86631180D-05  0.25552541D-04  0.47635746D-04  0.80512802D-04  0.12103711D-03
  0.14870808D-03  0.12560775D-03  0.47374620D-04 -0.23445964D-06 -0.18213924D-04
 -0.34102213D-04 -0.58061936D-04 -0.89812987D-04 -0.11828054D-03 -0.12290106D-03
 -0.78098107D-04  0.52339535D-04  0.39648487D-04  0.66403017D-03  0.12411031D-03
 -0.13246080D-03 -0.12419042D-03 -0.88430975D-04  0.23945716D-05  0.22450630D-05
  0.15986186D-05 -0.17718260D-04 -0.16611995D-04 -0.11828730D-04 -0.16817461D-03
 -0.25484800D-04  0.11561323D-03 -0.34861939D-03 -0.12792147D-04  0.45834647D-04
 -0.94682505D-05 -0.83439313D-06  0.36036307D-05  0.22361483D-03 -0.97232411D-04
 -0.12638242D-03  0.20637615D-04 -0.70439870D-04  0.11830964D-04 -0.27001529D-03
  0.76671437D-04  0.19334385D-03 -0.30948479D-04  0.11829657D-03 -0.49116617D-04
  0.22455391D-04 -0.82098914D-05 -0.14245499D-04 -0.24180538D-05  0.14509932D-04
  0.27557798D-05  0.84914611D-04  0.26287118D-05  0.36412443D-04 -0.11994476D-03
  0.24530901D-04 -0.95896944D-04 -0.13479908D-03 -0.32417037D-04 -0.13340385D-04
  0.48448985D-05  0.56692371D-04  0.17451955D-04  0.26951180D-04 -0.10554002D-03
  0.40197337D-05 -0.17510138D-05 -0.64537093D-04 -0.56375598D-04 -0.79102526D-04
 -0.15798722D-04  0.25548753D-04  0.47628684D-04  0.80500866D-04  0.12101917D-03
  0.14868603D-03  0.12558913D-03  0.47367597D-04 -0.23442488D-06 -0.18211105D-04
 -0.34096935D-04 -0.58052950D-04 -0.89799086D-04 -0.11826224D-03 -0.12288204D-03
 -0.78086020D-04  0.52331435D-04  0.39640346D-04  0.66407896D-03  0.12411272D-03
  0.60988740D-04  0.57180820D-04  0.40716150D-04 -0.23522354D-04 -0.22053702D-04
 -0.15703550D-04  0.11658877D-03  0.10930938D-03  0.77834789D-04 -0.55521919D-04
 -0.40577006D-04  0.19383022D-03  0.71468879D-04 -0.69061058D-04  0.33751467D-03
 -0.32922207D-06 -0.20574862D-05  0.99492510D-05 -0.11149013D-03 -0.83974650D-04
  0.19546478D-03 -0.33448697D-04  0.16044703D-03 -0.11897119D-03  0.18461457D-03
  0.58679171D-04 -0.24329374D-03  0.42392693D-04 -0.19494494D-03  0.12834490D-03
 -0.58088610D-05 -0.70905397D-05  0.12899401D-04 -0.69869693D-05  0.33980918D-04
 -0.82794094D-05  0.13815190D-04 -0.19358320D-04 -0.75609493D-04  0.52866976D-04
 -0.30770974D-04  0.14544162D-03 -0.94312545D-04  0.88845935D-04  0.81386863D-04
  0.64413401D-04 -0.10731197D-04 -0.11961995D-04 -0.35372433D-04  0.11745920D-03
 -0.13185169D-04  0.50871636D-04 -0.85265612D-04  0.49071155D-04  0.55245663D-04
  0.87183835D-04 -0.15634065D-04 -0.28196681D-04 -0.41575989D-04 -0.27695012D-03
  0.31728463D-04 -0.13371153D-04 -0.31659236D-05 -0.70864496D-05  0.34133664D-04
  0.24561980D-03  0.55703154D-05 -0.15663752D-04 -0.31721058D-04 -0.53989508D-05
  0.24658047D-04 -0.13632382D-03  0.15652208D-04  0.12067161D-03  0.25044313D-04
 -0.13472874D-03 -0.46717902D-04 -0.17364995D-04  0.18292434D-04 -0.92743897D-06
 -0.38031595D-06 -0.15224834D-05  0.82835688D-05 -0.98042264D-05 -0.17682326D-04
 -0.26072580D-04 -0.42633179D-04  0.24164126D-03  0.95059258D-05 -0.21077180D-04
  0.27134428D-04 -0.10135794D-04  0.23090560D-03 -0.12157216D-03  0.64224163D-04
 -0.26001364D-04 -0.25144197D-04  0.55840918D-06 -0.12064840D-03  0.11009696D-03
  0.10551440D-04 -0.11573057D-03  0.44298984D-04 -0.94555348D-04 -0.12426433D-04
 -0.10804966D-05  0.13506930D-04 -0.11439820D-04 -0.18002936D-06  0.33639679D-05
 -0.98053365D-05 -0.17684328D-04 -0.26075532D-04 -0.42621307D-04  0.24162032D-03
  0.95060640D-05 -0.20610927D-04 -0.21282165D-04 -0.20132086D-04  0.22888903D-03
  0.90357887D-04  0.10802046D-03 -0.26446031D-04  0.22381851D-04  0.10377789D-04
 -0.12252783D-03  0.61605334D-04  0.60922492D-04  0.81518203D-04  0.82643526D-04
  0.13916734D-03 -0.12635075D-04  0.26253865D-05  0.10009688D-04  0.10074418D-04
  0.44308734D-05 -0.12804391D-04 -0.98046143D-05 -0.17683026D-04 -0.26073611D-04
 -0.42626749D-04  0.24166101D-03  0.95048910D-05  0.21254559D-04  0.21462970D-04
  0.19246313D-04 -0.15816025D-03 -0.69446025D-04 -0.20586932D-03  0.36537464D-05
 -0.29122634D-04  0.21149751D-04  0.35359765D-04  0.70552408D-04 -0.10591217D-03
  0.15850281D-03 -0.15126443D-04  0.13279614D-03  0.10227953D-04 -0.28074354D-05
 -0.74205175D-05 -0.15691621D-05 -0.14598309D-04  0.16363920D-04 -0.15636168D-04
 -0.28200472D-04 -0.41581580D-04 -0.27699563D-03  0.31696573D-04 -0.13371712D-04
 -0.31819202D-04 -0.32367997D-05  0.14241784D-04 -0.66385081D-04  0.47339496D-04
 -0.23227529D-03 -0.13222126D-04 -0.78858238D-05  0.37501836D-04  0.53422145D-04
  0.81344984D-05 -0.61556643D-04  0.55635368D-04 -0.26546715D-03  0.27367055D-04
 -0.39564126D-05  0.17759852D-04 -0.13803440D-04  0.17825342D-05 -0.10758070D-04
  0.13513184D-04 -0.98038665D-05 -0.17681677D-04 -0.26071622D-04 -0.42635222D-04
  0.24158941D-03  0.95068375D-05  0.21707021D-04 -0.26953037D-04  0.92578362D-05
 -0.16014631D-03  0.14248565D-03 -0.16210788D-03  0.32115698D-05  0.18405427D-04
  0.30962668D-04  0.38184563D-04  0.88621298D-04 -0.12680586D-03 -0.14156911D-03
 -0.76152462D-04  0.35432071D-04  0.10146021D-04  0.25532246D-05 -0.12699246D-04
  0.75294590D-05 -0.12456265D-04 -0.80664284D-05
MO    2     MO 0.0        OCC NO =    2.0000000  ORB. ENERGY =  -10.056287
  0.12166770D-04  0.22745070D-04  0.39310582D-04  0.63583103D-04  0.96102137D-04
  0.13234841D-03  0.15468461D-03  0.13365917D-03  0.62339115D-04  0.84643050D-05
  0.22665323D-07  0.44459995D-07  0.20297845D-08 -0.16463027D-04 -0.30745405D-04
 -0.53332662D-04 -0.86477067D-04 -0.13314129D-03 -0.18962310D-03 -0.24383070D-03
 -0.25594967D-03 -0.18097456D-03  0.40077573D-05  0.13003256D-03  0.71599455D-04
 -0.30279288D-06  0.50213062D-05  0.93705003D-05  0.16275437D-04  0.26362597D-04
  0.40722498D-04  0.58056039D-04  0.75511943D-04  0.80475376D-04  0.59686913D-04
 -0.18578320D-05 -0.54073234D-04 -0.52973106D-04  0.24741582D-04 -0.53154247D-03
  0.34889285D-02  0.98308643D-03 -0.47958593D-02 -0.62919062D-02 -0.69012621D-02
 -0.56784678D-02 -0.29938005D-02 -0.77884540D-03  0.86187184D-06  0.57021677D-02
  0.74809335D-02  0.82054438D-02  0.67515692D-02  0.35595608D-02  0.92602949D-03
 -0.10247460D-05 -0.27814201D-01 -0.36490717D-01 -0.40024754D-01 -0.32933002D-01
 -0.17362930D-01 -0.45170137D-02  0.49985362D-05  0.44631974D-02  0.58602053D-02
  0.65931261D-02  0.55552072D-02  0.31075050D-02  0.77345168D-03 -0.35474221D-03
 -0.51408826D-02 -0.67500102D-02 -0.75942166D-02 -0.63987017D-02 -0.35793440D-02
 -0.89089144D-03  0.40860574D-03  0.25082760D-01  0.32933817D-01  0.37052764D-01
  0.31219755D-01  0.17463893D-01  0.43467275D-02 -0.19936187D-02  0.40344428D-04
 -0.19387485D-03  0.94006436D-03 -0.19693679D-03  0.30094162D-03 -0.14652040D-02
 -0.11210433D-04  0.97800353D-05 -0.47853076D-04 -0.24908131D-03 -0.34118634D-03
  0.59026765D-03 -0.40988883D-04  0.21061340D-03 -0.39992997D-03 -0.11747216D-03
 -0.66148481D-04  0.18362065D-03 -0.10006811D-03  0.48057698D-03 -0.10286086D-03
 -0.60828769D-04 -0.33834844D-04  0.94663613D-04  0.69138534D-05 -0.35370632D-04
 -0.55840036D-04  0.83836833D-04 -0.33174496D-04 -0.81877816D-04 -0.51970466D-04
 -0.19117703D-04  0.10824836D-03 -0.19954003D-03  0.11864119D-03  0.13738508D-03
  0.62428943D-04 -0.23328270D-04 -0.16571144D-04 -0.31641484D-04  0.37569990D-04
 -0.61401846D-05  0.23144321D-04  0.32414818D-04  0.55853617D-04  0.71780131D-04
  0.93983082D-06  0.10508134D-01  0.19589551D-01  0.33109792D-01  0.49774863D-01
  0.61154171D-01  0.51654473D-01  0.19482167D-01 -0.96418331D-04 -0.13475879D-03
 -0.25231097D-03 -0.42958102D-03 -0.66449652D-03 -0.87511854D-03 -0.90930422D-03
 -0.57782201D-03  0.38724288D-03  0.11178577D-02 -0.39900309D-03 -0.12914378D-03
 -0.91755259D-04 -0.86026387D-04 -0.61255913D-04 -0.29723993D-05 -0.27868133D-05
 -0.19843771D-05  0.10131962D-04  0.94993586D-05  0.67641093D-05 -0.17997167D-03
  0.61005345D-04 -0.30311335D-03  0.26667193D-03 -0.93518057D-04  0.46493527D-03
  0.83649469D-06 -0.24203026D-05  0.11767333D-04  0.27031868D-04 -0.22531537D-04
 -0.45003305D-05 -0.62747922D-04  0.30837906D-03 -0.46774339D-05 -0.37862473D-04
  0.62594970D-04 -0.24732497D-04  0.58891082D-04 -0.29444466D-03  0.34651802D-04
 -0.25422237D-04  0.13039523D-04  0.12382714D-04  0.23925254D-04 -0.11932205D-03
 -0.99630256D-06  0.67467603D-04  0.40442661D-05 -0.70799229D-04 -0.22052147D-04
 -0.46731183D-04  0.23676406D-03 -0.18035066D-03  0.34598385D-04 -0.24366379D-04
  0.73501758D-04 -0.10892503D-04  0.49613222D-06 -0.15725770D-04 -0.66220066D-04
 -0.10145224D-04  0.54248749D-04  0.98897574D-04  0.86568278D-05 -0.70714384D-05
 -0.69955424D-04  0.33057755D+00  0.61627172D+00  0.10416078D+01  0.15658777D+01
  0.19238616D+01  0.16250087D+01  0.61289350D+00 -0.30332441D-02 -0.35743789D-02
 -0.66923651D-02 -0.11394324D-01 -0.17625287D-01 -0.23211883D-01 -0.24118633D-01
 -0.15326309D-01  0.10271336D-01  0.31890437D-01  0.42359280D-03 -0.46488202D-03
  0.25637954D-03  0.24037212D-03  0.17115927D-03 -0.36516236D-03 -0.34236293D-03
 -0.24378280D-03  0.17822252D-02  0.16709494D-02  0.11898155D-02 -0.67979371D-03
  0.84683949D-03 -0.41337956D-02  0.66818661D-03  0.26939041D-03 -0.12738636D-02
 -0.84285118D-05  0.87760065D-05 -0.42845375D-04  0.70457037D-03  0.73084025D-03
 -0.14354106D-02  0.27710056D-03 -0.13525165D-02  0.92050662D-03  0.49645048D-04
  0.11476089D-02 -0.11972540D-02  0.30606164D-03 -0.15908478D-02  0.99631593D-03
  0.69479954D-05  0.85391312D-04 -0.92339308D-04  0.52263305D-05 -0.33254896D-04
  0.76374899D-04 -0.17278523D-02  0.60129221D-03  0.74325616D-03  0.38789161D-02
 -0.16199895D-03  0.18329337D-03  0.13046408D-02 -0.16418777D-02 -0.24130619D-02
  0.11749364D-02  0.22443217D-03 -0.66919689D-04 -0.18465339D-03 -0.24837848D-03
 -0.47992721D-04  0.28499864D-03 -0.42491804D-03  0.24875179D-03  0.26896152D-03
  0.75224446D-04  0.10366912D-04  0.18697153D-04  0.27568941D-04  0.11096721D-03
 -0.91712038D-04  0.10793610D-04 -0.44078578D-05  0.22089875D-05 -0.10709036D-04
 -0.17778536D-03  0.31036331D-04 -0.15895340D-03  0.91887395D-04  0.20420022D-05
 -0.55188706D-05 -0.91164124D-05  0.31731989D-04 -0.22615577D-04 -0.28951339D-04
  0.13619411D-03  0.24919554D-04  0.13392910D-05 -0.19827392D-04  0.18488101D-04
  0.73972151D-05 -0.33690763D-04 -0.16867096D-04 -0.21729008D-04 -0.39189160D-04
 -0.57784394D-04  0.22776291D-03 -0.53857008D-04  0.13709672D-04 -0.19743974D-04
 -0.43833440D-05  0.12446249D-04 -0.14509982D-04  0.65755684D-04 -0.13940000D-04
  0.10061732D-04  0.16883983D-04 -0.48544327D-05  0.88759435D-04 -0.82973945D-04
 -0.57854900D-05 -0.18818377D-04  0.19396264D-03 -0.14369053D-04 -0.28742792D-04
 -0.39050072D-05  0.32647799D-04 -0.28568831D-04  0.11351734D-04 -0.37700326D-05
 -0.21743866D-04 -0.39215959D-04 -0.57823908D-04  0.22787288D-03 -0.53673649D-04
  0.13720259D-04 -0.19713032D-04 -0.12161616D-05  0.13160647D-04 -0.13553496D-04
 -0.55042550D-04 -0.38937870D-04  0.10337164D-04 -0.13374906D-04 -0.11156657D-04
  0.89096241D-04 -0.77102301D-04 -0.11993941D-04 -0.53510683D-04  0.18715724D-03
 -0.43073615D-04 -0.29216578D-04  0.84990039D-06  0.28366677D-04  0.20727083D-04
  0.21754985D-04 -0.23531536D-04 -0.99187450D-06 -0.17888865D-05 -0.26377121D-05
 -0.30911057D-02 -0.18523631D-02 -0.33182391D-04  0.85335939D-03  0.20540409D-02
 -0.54893528D-03  0.11459532D-02  0.31023775D-02 -0.14498985D-02  0.18008456D-03
  0.40099467D-03 -0.30663429D-03  0.91165913D-03 -0.18591969D-02  0.94753773D-03
 -0.23618752D-02  0.80625462D-03  0.23529369D-02  0.12617387D-03 -0.21703955D-03
  0.90865680D-04 -0.31692222D-03  0.16535029D-03  0.39185624D-03 -0.20649280D-04
 -0.37241827D-04 -0.54913052D-04 -0.81681165D-03  0.69025441D-03 -0.89695707D-05
 -0.21200370D-02 -0.37030279D-04  0.82351625D-04 -0.26237911D-02  0.15295706D-03
 -0.85962412D-03 -0.72413716D-04  0.15334944D-04 -0.77597262D-04 -0.24995053D-02
  0.12317277D-02  0.12677776D-02  0.91880690D-04 -0.78483846D-03 -0.23469243D-04
 -0.35380318D-03  0.17124991D-03  0.18255327D-03  0.46810801D-04 -0.27417129D-03
 -0.76558243D-05 -0.96461777D-06 -0.17397279D-05 -0.25652277D-05 -0.30921621D-02
 -0.18526684D-02 -0.33181791D-04  0.88819315D-03 -0.16525047D-02 -0.13149059D-02
  0.11965318D-02 -0.22532275D-02 -0.25566657D-02  0.18611375D-03 -0.24338707D-03
 -0.43981368D-03  0.87140950D-03 -0.52836698D-03 -0.34304252D-03  0.19144932D-02
  0.17512179D-02 -0.36186976D-02  0.12102012D-03 -0.21986553D-04 -0.99033567D-04
  0.23263088D-03  0.28790225D-03 -0.48693643D-03
MO    3     MO 0.0        OCC NO =    2.0000000  ORB. ENERGY =  -10.056268
  0.11429910D-04  0.21367553D-04  0.36929802D-04  0.59732298D-04  0.90281870D-04
  0.12433295D-03  0.14531639D-03  0.12556433D-03  0.58563649D-04  0.79516784D-05
  0.21292635D-07  0.41767349D-07  0.19068539D-08 -0.15465145D-04 -0.28881817D-04
 -0.50099981D-04 -0.81235386D-04 -0.12507113D-03 -0.17812938D-03 -0.22905125D-03
 -0.24043566D-03 -0.17000505D-03  0.37648330D-05  0.12215082D-03  0.67259559D-04
 -0.28443953D-06  0.47163346D-05  0.88013781D-05  0.15286940D-04  0.24761451D-04
  0.38249196D-04  0.54529976D-04  0.70925686D-04  0.75587663D-04  0.56061797D-04
 -0.17449956D-05 -0.50789068D-04 -0.49755757D-04  0.23238889D-04 -0.49908199D-03
  0.32747610D-02  0.92281805D-03  0.28733026D-01  0.37696166D-01  0.41346948D-01
  0.34020924D-01  0.17936504D-01  0.46662306D-02 -0.51636599D-05  0.90074972D-03
  0.11817346D-02  0.12961827D-02  0.10665197D-02  0.56229027D-03  0.14628135D-03
 -0.16187523D-06 -0.30363235D-02 -0.39834912D-02 -0.43692826D-02 -0.35951150D-02
 -0.18954157D-02 -0.49309759D-03  0.54566275D-06 -0.25965956D-01 -0.34093458D-01
 -0.38357439D-01 -0.32319042D-01 -0.18078819D-01 -0.44997813D-02  0.20638165D-02
 -0.78635511D-03 -0.10324890D-02 -0.11616198D-02 -0.97875251D-03 -0.54750043D-03
 -0.13627174D-03  0.62500787D-04  0.26100679D-02  0.34270350D-02  0.38556455D-02
  0.32486728D-02  0.18172620D-02  0.45231282D-03 -0.20745245D-03 -0.92313568D-03
 -0.53273976D-04  0.21536036D-03  0.14913386D-02  0.57913073D-04 -0.21149255D-03
  0.50611899D-04  0.99279702D-06 -0.24715302D-05  0.61811793D-03 -0.35398381D-03
 -0.26413413D-03  0.99054150D-04 -0.38925042D-03 -0.42872133D-04  0.32149509D-03
 -0.79198978D-04 -0.24229612D-03 -0.24246409D-04  0.15345427D-03  0.72012914D-04
  0.75227089D-04 -0.37005016D-04 -0.38222073D-04  0.27839906D-04 -0.12433144D-03
 -0.76718056D-06  0.12028094D-03 -0.18660511D-04 -0.96429496D-05 -0.14724900D-03
  0.15807733D-04 -0.46549417D-04 -0.21359382D-03  0.40173799D-04  0.75478266D-04
  0.25823663D-04  0.21737919D-04  0.11705781D-05  0.22410228D-04 -0.93128466D-04
  0.14831118D-04 -0.59653844D-04  0.27914710D-04 -0.18342852D-04 -0.75768396D-05
 -0.53292400D-04  0.33057547D+00  0.61626784D+00  0.10416012D+01  0.15658678D+01
  0.19238495D+01  0.16249985D+01  0.61288964D+00 -0.30332250D-02 -0.35728204D-02
 -0.66894471D-02 -0.11389356D-01 -0.17617602D-01 -0.23201762D-01 -0.24108117D-01
 -0.15319626D-01  0.10266857D-01  0.31883927D-01  0.45047670D-03 -0.45787509D-03
 -0.18000115D-02 -0.16876252D-02 -0.12016897D-02 -0.90093579D-04 -0.84468457D-04
 -0.60146574D-04  0.35412479D-03  0.33201450D-03  0.23641411D-03  0.42255872D-02
  0.19015825D-03 -0.72322962D-03  0.98991365D-03  0.23102166D-03 -0.10717608D-02
  0.44090938D-04  0.19032100D-05 -0.71611570D-05 -0.17196085D-02  0.82874793D-03
  0.89086053D-03 -0.10872076D-03  0.29310655D-03 -0.25258633D-04 -0.16590162D-02
  0.12137648D-02  0.44525143D-03  0.26800588D-04 -0.39649443D-03  0.32800159D-03
 -0.97436744D-04  0.88946393D-04  0.84903511D-05 -0.13343048D-04  0.47155865D-04
  0.35225471D-04 -0.10802251D-02  0.92724173D-03  0.11553678D-02  0.14489830D-02
 -0.15283505D-03  0.45897750D-03  0.17916922D-02 -0.26288901D-02 -0.39250810D-02
 -0.40085256D-04  0.26710001D-03 -0.68120548D-04 -0.47490304D-04 -0.24952275D-03
  0.41961552D-04 -0.14420310D-03 -0.55177728D-03  0.16240009D-03  0.28667401D-03
  0.12041525D-03 -0.10452105D-01 -0.19485100D-01 -0.32933251D-01 -0.49509464D-01
 -0.60828096D-01 -0.51379052D-01 -0.19378288D-01  0.95904228D-04  0.91841853D-04
  0.17195693D-03  0.29277138D-03  0.45287281D-03  0.59641756D-03  0.61971604D-03
  0.39380173D-03 -0.26391676D-03 -0.90398292D-03 -0.42661863D-03 -0.99732443D-04
  0.44554520D-05  0.41772695D-05  0.29744647D-05  0.51713127D-05  0.48484344D-05