 Molden2AIM, Version 4.0.0 (06/02/2016)           Time: Sat Jun 30 02:59:48 2018
GAUSSIAN             13 MOL ORBITALS    387 PRIMITIVES        9 NUCLEI
  O    1    (CENTRE  1)  -9.52870588  5.11796983  0.13557084  CHARGE =  8.0
  C    2    (CENTRE  2)  -6.87327029  5.12899827  0.19921115  CHARGE =  6.0
  C    3    (CENTRE  3) -10.47084773  5.61107496 -2.29853814  CHARGE =  6.0
  H    4    (CENTRE  4)  -6.29615171  4.73263578  2.14863183  CHARGE =  1.0
  H    5    (CENTRE  5)  -6.10189920  6.98350557 -0.37403727  CHARGE =  1.0
  H    6    (CENTRE  6)  -6.07187901  3.66554523 -1.05732822  CHARGE =  1.0
  H    7    (CENTRE  7)  -9.86652655  7.48818906 -2.98707497  CHARGE =  1.0
  H    8    (CENTRE  8) -12.53866354  5.56846353 -2.18567046  CHARGE =  1.0
  H    9    (CENTRE  9)  -9.83568622  4.17038745 -3.67105378  CHARGE =  1.0
CENTRE ASSIGNMENTS    1  1  1  1  1  1  1  1  1  1  1  1  1  1  1  1  1  1  1  1
CENTRE ASSIGNMENTS    1  1  1  1  1  1  1  1  1  1  1  1  1  1  1  1  1  1  1  1
CENTRE ASSIGNMENTS    1  1  1  1  1  1  1  1  1  1  1  1  1  1  1  1  1  1  1  1
CENTRE ASSIGNMENTS    1  1  1  1  1  1  1  1  1  1  1  1  1  1  1  2  2  2  2  2
CENTRE ASSIGNMENTS    2  2  2  2  2  2  2  2  2  2  2  2  2  2  2  2  2  2  2  2
CENTRE ASSIGNMENTS    2  2  2  2  2  2  2  2  2  2  2  2  2  2  2  2  2  2  2  2
CENTRE ASSIGNMENTS    2  2  2  2  2  2  2  2  2  2  2  2  2  2  2  2  2  2  2  2
CENTRE ASSIGNMENTS    2  2  2  2  2  2  2  2  2  2  3  3  3  3  3  3  3  3  3  3
CENTRE ASSIGNMENTS    3  3  3  3  3  3  3  3  3  3  3  3  3  3  3  3  3  3  3  3
CENTRE ASSIGNMENTS    3  3  3  3  3  3  3  3  3  3  3  3  3  3  3  3  3  3  3  3
CENTRE ASSIGNMENTS    3  3  3  3  3  3  3  3  3  3  3  3  3  3  3  3  3  3  3  3
CENTRE ASSIGNMENTS    3  3  3  3  3  4  4  4  4  4  4  4  4  4  4  4  4  4  4  4
CENTRE ASSIGNMENTS    4  4  4  4  4  4  4  4  4  4  4  4  5  5  5  5  5  5  5  5
CENTRE ASSIGNMENTS    5  5  5  5  5  5  5  5  5  5  5  5  5  5  5  5  5  5  5  6
CENTRE ASSIGNMENTS    6  6  6  6  6  6  6  6  6  6  6  6  6  6  6  6  6  6  6  6
CENTRE ASSIGNMENTS    6  6  6  6  6  6  7  7  7  7  7  7  7  7  7  7  7  7  7  7
CENTRE ASSIGNMENTS    7  7  7  7  7  7  7  7  7  7  7  7  7  8  8  8  8  8  8  8
CENTRE ASSIGNMENTS    8  8  8  8  8  8  8  8  8  8  8  8  8  8  8  8  8  8  8  8
CENTRE ASSIGNMENTS    9  9  9  9  9  9  9  9  9  9  9  9  9  9  9  9  9  9  9  9
CENTRE ASSIGNMENTS    9  9  9  9  9  9  9
TYPE ASSIGNMENTS      1  1  1  1  1  1  1  1  1  1  1  1  1  1  1  1  1  1  1  2
TYPE ASSIGNMENTS      2  2  3  3  3  4  4  4  2  3  4  2  3  4  2  3  4  5  6  7
TYPE ASSIGNMENTS      8  9 10  5  6  7  8  9 10  5  6  7  8  9 10 11 12 13 17 14
TYPE ASSIGNMENTS     15 18 19 16 20 11 12 13 17 14 15 18 19 16 20  1  1  1  1  1
TYPE ASSIGNMENTS      1  1  1  1  1  1  1  1  1  1  1  1  1  1  2  2  2  3  3  3
TYPE ASSIGNMENTS      4  4  4  2  3  4  2  3  4  2  3  4  5  6  7  8  9 10  5  6
TYPE ASSIGNMENTS      7  8  9 10  5  6  7  8  9 10 11 12 13 17 14 15 18 19 16 20
TYPE ASSIGNMENTS     11 12 13 17 14 15 18 19 16 20  1  1  1  1  1  1  1  1  1  1
TYPE ASSIGNMENTS      1  1  1  1  1  1  1  1  1  2  2  2  3  3  3  4  4  4  2  3
TYPE ASSIGNMENTS      4  2  3  4  2  3  4  5  6  7  8  9 10  5  6  7  8  9 10  5
TYPE ASSIGNMENTS      6  7  8  9 10 11 12 13 17 14 15 18 19 16 20 11 12 13 17 14
TYPE ASSIGNMENTS     15 18 19 16 20  1  1  1  1  1  1  2  3  4  2  3  4  2  3  4
TYPE ASSIGNMENTS      5  6  7  8  9 10  5  6  7  8  9 10  1  1  1  1  1  1  2  3
TYPE ASSIGNMENTS      4  2  3  4  2  3  4  5  6  7  8  9 10  5  6  7  8  9 10  1
TYPE ASSIGNMENTS      1  1  1  1  1  2  3  4  2  3  4  2  3  4  5  6  7  8  9 10
TYPE ASSIGNMENTS      5  6  7  8  9 10  1  1  1  1  1  1  2  3  4  2  3  4  2  3
TYPE ASSIGNMENTS      4  5  6  7  8  9 10  5  6  7  8  9 10  1  1  1  1  1  1  2
TYPE ASSIGNMENTS      3  4  2  3  4  2  3  4  5  6  7  8  9 10  5  6  7  8  9 10
TYPE ASSIGNMENTS      1  1  1  1  1  1  2  3  4  2  3  4  2  3  4  5  6  7  8  9
TYPE ASSIGNMENTS     10  5  6  7  8  9 10
EXPONENTS  0.1533000D+05 0.2299000D+04 0.5224000D+03 0.1473000D+03 0.4755000D+02
EXPONENTS  0.1676000D+02 0.6207000D+01 0.6882000D+00 0.1533000D+05 0.2299000D+04
EXPONENTS  0.5224000D+03 0.1473000D+03 0.4755000D+02 0.1676000D+02 0.6207000D+01
EXPONENTS  0.6882000D+00 0.1752000D+01 0.2384000D+00 0.7376000D-01 0.3446000D+02
EXPONENTS  0.7749000D+01 0.2280000D+01 0.3446000D+02 0.7749000D+01 0.2280000D+01
EXPONENTS  0.3446000D+02 0.7749000D+01 0.2280000D+01 0.7156000D+00 0.7156000D+00
EXPONENTS  0.7156000D+00 0.2140000D+00 0.2140000D+00 0.2140000D+00 0.5974000D-01
EXPONENTS  0.5974000D-01 0.5974000D-01 0.2314000D+01 0.2314000D+01 0.2314000D+01
EXPONENTS  0.2314000D+01 0.2314000D+01 0.2314000D+01 0.6450000D+00 0.6450000D+00
EXPONENTS  0.6450000D+00 0.6450000D+00 0.6450000D+00 0.6450000D+00 0.2140000D+00
EXPONENTS  0.2140000D+00 0.2140000D+00 0.2140000D+00 0.2140000D+00 0.2140000D+00
EXPONENTS  0.1428000D+01 0.1428000D+01 0.1428000D+01 0.1428000D+01 0.1428000D+01
EXPONENTS  0.1428000D+01 0.1428000D+01 0.1428000D+01 0.1428000D+01 0.1428000D+01
EXPONENTS  0.5000000D+00 0.5000000D+00 0.5000000D+00 0.5000000D+00 0.5000000D+00
EXPONENTS  0.5000000D+00 0.5000000D+00 0.5000000D+00 0.5000000D+00 0.5000000D+00
EXPONENTS  0.8236000D+04 0.1235000D+04 0.2808000D+03 0.7927000D+02 0.2559000D+02
EXPONENTS  0.8997000D+01 0.3319000D+01 0.3643000D+00 0.8236000D+04 0.1235000D+04
EXPONENTS  0.2808000D+03 0.7927000D+02 0.2559000D+02 0.8997000D+01 0.3319000D+01
EXPONENTS  0.3643000D+00 0.9059000D+00 0.1285000D+00 0.4402000D-01 0.1871000D+02
EXPONENTS  0.4133000D+01 0.1200000D+01 0.1871000D+02 0.4133000D+01 0.1200000D+01
EXPONENTS  0.1871000D+02 0.4133000D+01 0.1200000D+01 0.3827000D+00 0.3827000D+00
EXPONENTS  0.3827000D+00 0.1209000D+00 0.1209000D+00 0.1209000D+00 0.3569000D-01
EXPONENTS  0.3569000D-01 0.3569000D-01 0.1097000D+01 0.1097000D+01 0.1097000D+01
EXPONENTS  0.1097000D+01 0.1097000D+01 0.1097000D+01 0.3180000D+00 0.3180000D+00
EXPONENTS  0.3180000D+00 0.3180000D+00 0.3180000D+00 0.3180000D+00 0.1000000D+00
EXPONENTS  0.1000000D+00 0.1000000D+00 0.1000000D+00 0.1000000D+00 0.1000000D+00
EXPONENTS  0.7610000D+00 0.7610000D+00 0.7610000D+00 0.7610000D+00 0.7610000D+00
EXPONENTS  0.7610000D+00 0.7610000D+00 0.7610000D+00 0.7610000D+00 0.7610000D+00
EXPONENTS  0.2680000D+00 0.2680000D+00 0.2680000D+00 0.2680000D+00 0.2680000D+00
EXPONENTS  0.2680000D+00 0.2680000D+00 0.2680000D+00 0.2680000D+00 0.2680000D+00
EXPONENTS  0.8236000D+04 0.1235000D+04 0.2808000D+03 0.7927000D+02 0.2559000D+02
EXPONENTS  0.8997000D+01 0.3319000D+01 0.3643000D+00 0.8236000D+04 0.1235000D+04
EXPONENTS  0.2808000D+03 0.7927000D+02 0.2559000D+02 0.8997000D+01 0.3319000D+01
EXPONENTS  0.3643000D+00 0.9059000D+00 0.1285000D+00 0.4402000D-01 0.1871000D+02
EXPONENTS  0.4133000D+01 0.1200000D+01 0.1871000D+02 0.4133000D+01 0.1200000D+01
EXPONENTS  0.1871000D+02 0.4133000D+01 0.1200000D+01 0.3827000D+00 0.3827000D+00
EXPONENTS  0.3827000D+00 0.1209000D+00 0.1209000D+00 0.1209000D+00 0.3569000D-01
EXPONENTS  0.3569000D-01 0.3569000D-01 0.1097000D+01 0.1097000D+01 0.1097000D+01
EXPONENTS  0.1097000D+01 0.1097000D+01 0.1097000D+01 0.3180000D+00 0.3180000D+00
EXPONENTS  0.3180000D+00 0.3180000D+00 0.3180000D+00 0.3180000D+00 0.1000000D+00
EXPONENTS  0.1000000D+00 0.1000000D+00 0.1000000D+00 0.1000000D+00 0.1000000D+00
EXPONENTS  0.7610000D+00 0.7610000D+00 0.7610000D+00 0.7610000D+00 0.7610000D+00
EXPONENTS  0.7610000D+00 0.7610000D+00 0.7610000D+00 0.7610000D+00 0.7610000D+00
EXPONENTS  0.2680000D+00 0.2680000D+00 0.2680000D+00 0.2680000D+00 0.2680000D+00
EXPONENTS  0.2680000D+00 0.2680000D+00 0.2680000D+00 0.2680000D+00 0.2680000D+00
EXPONENTS  0.3387000D+02 0.5095000D+01 0.1159000D+01 0.3258000D+00 0.1027000D+00
EXPONENTS  0.2526000D-01 0.1407000D+01 0.1407000D+01 0.1407000D+01 0.3880000D+00
EXPONENTS  0.3880000D+00 0.3880000D+00 0.1020000D+00 0.1020000D+00 0.1020000D+00
EXPONENTS  0.1057000D+01 0.1057000D+01 0.1057000D+01 0.1057000D+01 0.1057000D+01
EXPONENTS  0.1057000D+01 0.2470000D+00 0.2470000D+00 0.2470000D+00 0.2470000D+00
EXPONENTS  0.2470000D+00 0.2470000D+00 0.3387000D+02 0.5095000D+01 0.1159000D+01
EXPONENTS  0.3258000D+00 0.1027000D+00 0.2526000D-01 0.1407000D+01 0.1407000D+01
EXPONENTS  0.1407000D+01 0.3880000D+00 0.3880000D+00 0.3880000D+00 0.1020000D+00
EXPONENTS  0.1020000D+00 0.1020000D+00 0.1057000D+01 0.1057000D+01 0.1057000D+01
EXPONENTS  0.1057000D+01 0.1057000D+01 0.1057000D+01 0.2470000D+00 0.2470000D+00
EXPONENTS  0.2470000D+00 0.2470000D+00 0.2470000D+00 0.2470000D+00 0.3387000D+02
EXPONENTS  0.5095000D+01 0.1159000D+01 0.3258000D+00 0.1027000D+00 0.2526000D-01
EXPONENTS  0.1407000D+01 0.1407000D+01 0.1407000D+01 0.3880000D+00 0.3880000D+00
EXPONENTS  0.3880000D+00 0.1020000D+00 0.1020000D+00 0.1020000D+00 0.1057000D+01
EXPONENTS  0.1057000D+01 0.1057000D+01 0.1057000D+01 0.1057000D+01 0.1057000D+01
EXPONENTS  0.2470000D+00 0.2470000D+00 0.2470000D+00 0.2470000D+00 0.2470000D+00
EXPONENTS  0.2470000D+00 0.3387000D+02 0.5095000D+01 0.1159000D+01 0.3258000D+00
EXPONENTS  0.1027000D+00 0.2526000D-01 0.1407000D+01 0.1407000D+01 0.1407000D+01
EXPONENTS  0.3880000D+00 0.3880000D+00 0.3880000D+00 0.1020000D+00 0.1020000D+00
EXPONENTS  0.1020000D+00 0.1057000D+01 0.1057000D+01 0.1057000D+01 0.1057000D+01
EXPONENTS  0.1057000D+01 0.1057000D+01 0.2470000D+00 0.2470000D+00 0.2470000D+00
EXPONENTS  0.2470000D+00 0.2470000D+00 0.2470000D+00 0.3387000D+02 0.5095000D+01
EXPONENTS  0.1159000D+01 0.3258000D+00 0.1027000D+00 0.2526000D-01 0.1407000D+01
EXPONENTS  0.1407000D+01 0.1407000D+01 0.3880000D+00 0.3880000D+00 0.3880000D+00
EXPONENTS  0.1020000D+00 0.1020000D+00 0.1020000D+00 0.1057000D+01 0.1057000D+01
EXPONENTS  0.1057000D+01 0.1057000D+01 0.1057000D+01 0.1057000D+01 0.2470000D+00
EXPONENTS  0.2470000D+00 0.2470000D+00 0.2470000D+00 0.2470000D+00 0.2470000D+00
EXPONENTS  0.3387000D+02 0.5095000D+01 0.1159000D+01 0.3258000D+00 0.1027000D+00
EXPONENTS  0.2526000D-01 0.1407000D+01 0.1407000D+01 0.1407000D+01 0.3880000D+00
EXPONENTS  0.3880000D+00 0.3880000D+00 0.1020000D+00 0.1020000D+00 0.1020000D+00
EXPONENTS  0.1057000D+01 0.1057000D+01 0.1057000D+01 0.1057000D+01 0.1057000D+01
EXPONENTS  0.1057000D+01 0.2470000D+00 0.2470000D+00 0.2470000D+00 0.2470000D+00
EXPONENTS  0.2470000D+00 0.2470000D+00
MO    1     MO 0.0        OCC NO =    2.0000000  ORB. ENERGY =  -18.957940
  0.49769279D+00  0.92763533D+00  0.15729622D+01  0.23807515D+01  0.29704828D+01
  0.25512485D+01  0.97947392D+00 -0.43812469D-02 -0.37715405D-03 -0.70736176D-03
 -0.12058967D-02 -0.18845819D-02 -0.25200450D-02 -0.26908206D-02 -0.16451149D-02
  0.10853469D-02  0.53748411D-01 -0.33249470D-02 -0.15537481D-02  0.49975569D-02
  0.48459492D-02  0.32690487D-02  0.14718357D-02  0.14271856D-02  0.96277096D-03
 -0.69180489D-02 -0.67081804D-02 -0.45252989D-02 -0.83865910D-03 -0.24698141D-03
  0.11635520D-02 -0.86562179D-03 -0.25486031D-03  0.11973863D-02 -0.61274555D-04
 -0.18043817D-04  0.84850059D-04  0.62412462D-03 -0.73363022D-03  0.10950560D-03
 -0.24398764D-03  0.13489260D-02 -0.34586453D-03 -0.65781128D-03  0.89713799D-03
 -0.23932672D-03  0.18379430D-03 -0.10348935D-02  0.47867382D-03 -0.11485732D-03
  0.16673430D-03 -0.51876983D-04  0.25429983D-04 -0.14884096D-03  0.92620360D-04
  0.10509266D-03  0.25904954D-04 -0.74178258D-05  0.65238260D-04 -0.27205618D-04
  0.13319717D-03 -0.38051623D-03 -0.50509244D-04 -0.11094370D-03  0.21110925D-03
 -0.36572766D-03  0.51005108D-04  0.13717064D-03  0.21383831D-03  0.28782702D-04
 -0.20420636D-03  0.88334467D-03 -0.18179803D-03 -0.20730555D-03 -0.28824186D-03
  0.21275535D-03  0.39662434D-03  0.67036500D-03  0.10077782D-02  0.12381719D-02
  0.10458341D-02  0.39445016D-03 -0.19521559D-05 -0.15049921D-03 -0.28178201D-03
 -0.47975798D-03 -0.74211264D-03 -0.97733625D-03 -0.10155150D-02 -0.64531417D-03
  0.43247455D-03 -0.25637165D-03  0.11881820D-02  0.22885670D-03  0.44826114D-03
  0.42027331D-03  0.29925963D-03 -0.38593766D-05 -0.36184109D-05 -0.25765241D-05
  0.39008087D-04  0.36572561D-04  0.26041842D-04 -0.22935301D-02 -0.97696560D-05
 -0.55234993D-04 -0.36944624D-03  0.37288439D-04 -0.19720892D-03 -0.66693789D-05
  0.74934839D-06 -0.39243894D-05  0.11794318D-02 -0.59486786D-03 -0.58456389D-03
  0.54154239D-04 -0.10668811D-03 -0.54888613D-05  0.24320649D-03 -0.82883889D-04
 -0.16032260D-03 -0.13655052D-04  0.94682115D-04  0.34604687D-04  0.16425967D-04
  0.28954189D-05 -0.19321386D-04  0.29642591D-05 -0.13472134D-04  0.94060350D-05
 -0.92590771D-04 -0.52455621D-05 -0.56790355D-04  0.11899562D-03 -0.35093826D-04
  0.14764464D-03  0.15877670D-03  0.50830512D-04  0.22726427D-04 -0.14726859D-04
  0.16078963D-04  0.20824304D-04  0.35870072D-04 -0.48752223D-04  0.48017955D-05
 -0.16219233D-04  0.51533418D-06 -0.67274708D-04 -0.91390984D-04 -0.19521077D-04
  0.21282492D-03  0.39675404D-03  0.67058422D-03  0.10081077D-02  0.12385768D-02
  0.10461761D-02  0.39457915D-03 -0.19527942D-05 -0.15054308D-03 -0.28186415D-03
 -0.47989783D-03 -0.74232897D-03 -0.97762114D-03 -0.10158110D-02 -0.64550228D-03
  0.43260062D-03 -0.25672619D-03  0.11863868D-02  0.22891786D-03 -0.18649527D-03
 -0.17485117D-03 -0.12450445D-03  0.81181189D-04  0.76112525D-04  0.54196652D-04
 -0.40220845D-03 -0.37709598D-03 -0.26851481D-03  0.81388522D-03 -0.42579823D-03
  0.21029107D-02  0.31224757D-03 -0.53934141D-04  0.27643123D-03  0.59903913D-05
 -0.95313150D-06  0.48725233D-05 -0.42422818D-03 -0.53175974D-03  0.95598792D-03
 -0.20272220D-03  0.99879551D-03 -0.63046152D-03 -0.88767686D-04 -0.70188524D-04
  0.15895621D-03 -0.67054651D-04  0.32442029D-03 -0.95569391D-04 -0.20525919D-04
  0.43056893D-05  0.16220230D-04 -0.29098215D-05  0.11984609D-04 -0.50245645D-05
 -0.79880211D-05  0.17990542D-04  0.93540943D-04 -0.65417193D-04  0.43656303D-04
 -0.20660931D-03  0.89381256D-04 -0.97627928D-04 -0.74013522D-04 -0.69038532D-04
 -0.35436490D-04 -0.82849607D-06 -0.15676505D-04  0.11633793D-03 -0.11458836D-04
  0.39345313D-04 -0.10028459D-04  0.13944324D-04  0.76842030D-05  0.54958462D-04
 -0.67587671D-05 -0.12189715D-04 -0.17973727D-04  0.84748192D-04  0.38212236D-03
 -0.14346499D-04 -0.38055565D-04  0.10684675D-04 -0.53416647D-04  0.11188053D-03
  0.50358502D-04 -0.24057936D-03 -0.20686148D-04  0.13422812D-04 -0.66009290D-04
 -0.23683251D-03  0.21981966D-04  0.21485054D-03  0.39164145D-04 -0.21147944D-03
 -0.84874723D-04 -0.40808173D-04  0.10166482D-04  0.30641691D-04 -0.19931677D-05
  0.56092274D-05 -0.87354848D-05  0.51910034D-05  0.93621884D-05  0.13804541D-04
 -0.21452774D-04 -0.76751018D-04 -0.68826272D-05 -0.74160754D-05  0.63858234D-05
 -0.16976538D-04  0.17411149D-03 -0.28824047D-03  0.11004884D-03 -0.26139256D-04
 -0.83617118D-05 -0.13938367D-05 -0.30657388D-03  0.25101620D-03  0.55557680D-04
 -0.21785975D-03  0.84755832D-04 -0.12372253D-03 -0.44881279D-04  0.40347417D-04
  0.45338625D-05  0.58393116D-04 -0.23716575D-05 -0.22985832D-04  0.51934108D-05
  0.93665302D-05  0.13810943D-04 -0.21978470D-04 -0.76629655D-04 -0.68656353D-05
 -0.73530841D-05  0.56815601D-06 -0.18202609D-04  0.17002316D-03  0.22430311D-03
  0.21532710D-03 -0.26374625D-04  0.77978996D-05  0.18654135D-05 -0.30996664D-03
  0.17841504D-03  0.13155160D-03  0.14913984D-03  0.15697548D-03  0.23024315D-03
 -0.43829629D-04  0.25450756D-04  0.18378873D-04 -0.55240634D-04 -0.26323431D-04
  0.41178893D-04  0.51984133D-05  0.93755524D-05  0.13824247D-04 -0.20969978D-04
 -0.76343296D-04 -0.68547511D-05  0.19355305D-04  0.28774670D-05  0.15863349D-05
 -0.21111167D-03 -0.23667929D-03 -0.15757041D-03  0.85623850D-05 -0.13019076D-04
  0.22805668D-04  0.81014855D-04  0.17915858D-03 -0.26017343D-03  0.26648661D-03
 -0.10086370D-03  0.30980278D-03 -0.20345857D-06  0.44389232D-04 -0.44185773D-04
  0.21957440D-04 -0.41433628D-04 -0.34728114D-04 -0.67598036D-05 -0.12191584D-04
 -0.17976484D-04  0.85144805D-04  0.38224145D-03 -0.14347370D-04  0.63967453D-04
 -0.30337917D-05  0.17431198D-04  0.19447253D-03  0.39584451D-04 -0.18269390D-03
  0.70429306D-04  0.12509321D-05 -0.27413067D-05  0.10490986D-03  0.85458805D-05
 -0.11345574D-03  0.93833885D-04 -0.44661935D-03  0.47978623D-04  0.25326357D-04
  0.75512912D-05 -0.32877648D-04  0.85424367D-05 -0.39867640D-04  0.17004877D-04
  0.52089402D-05  0.93945381D-05  0.13852241D-04 -0.20452120D-04 -0.75925953D-04
 -0.68770824D-05  0.19419308D-04 -0.28854493D-05  0.56102069D-06 -0.21609251D-03
  0.27592024D-03 -0.51825488D-04  0.83403406D-05  0.31493728D-05  0.26155713D-04
  0.85487967D-04  0.21916512D-03 -0.30465309D-03 -0.21012674D-03 -0.19726064D-03
  0.10199390D-03  0.16086239D-07  0.17874820D-04 -0.17890906D-04 -0.47295245D-05
 -0.48251041D-04  0.87325567D-04
MO    2     MO 0.0        OCC NO =    2.0000000  ORB. ENERGY =  -10.072670
  0.11823576D-03  0.22037624D-03  0.37368509D-03  0.56558979D-03  0.70569092D-03
  0.60609438D-03  0.23269142D-03 -0.10408430D-05 -0.11476901D-03 -0.21525212D-03
 -0.36695767D-03 -0.57348341D-03 -0.76685659D-03 -0.81882405D-03 -0.50061297D-03
  0.33027403D-03  0.53902418D-03  0.18803923D-02  0.35023697D-03 -0.12831359D-03
 -0.12442102D-03 -0.83933688D-04  0.23641160D-03  0.22923973D-03  0.15464377D-03
 -0.11518853D-02 -0.11169413D-02 -0.75348199D-03 -0.69679841D-04 -0.49140593D-04
  0.23482221D-03  0.30696026D-03  0.14856460D-03 -0.70842224D-03 -0.24687358D-04
  0.11183787D-04 -0.55396757D-04 -0.26200210D-03 -0.56521419D-03  0.82721630D-03
 -0.43750231D-03  0.21516390D-02 -0.57846021D-03  0.20654180D-03  0.49350803D-03
 -0.70004982D-03  0.29322104D-03 -0.14516737D-02  0.49960938D-03  0.31223375D-04
  0.82687145D-04 -0.11391052D-03  0.16528376D-03 -0.80746105D-03  0.76655807D-04
  0.16917178D-03  0.14776097D-03  0.46702759D-04 -0.78702986D-03 -0.92644521D-04
  0.54507639D-03  0.27951453D-03 -0.35063838D-03 -0.68518467D-03 -0.43356957D-03
 -0.42166025D-03  0.96086366D-04  0.39986237D-03  0.11806471D-03  0.15422677D-03
 -0.81128899D-03  0.11469160D-02 -0.44248586D-03 -0.38829811D-03 -0.44925733D-03
  0.49437472D-01  0.92162688D-01  0.15577118D+00  0.23417511D+00  0.28771118D+00
  0.24301808D+00  0.91657479D-01 -0.45361798D-03 -0.60301765D-03 -0.11290393D-02
 -0.19222860D-02 -0.29734842D-02 -0.39159740D-02 -0.40689479D-02 -0.25856337D-02
  0.17328316D-02  0.49679885D-02  0.63532434D-03  0.11804423D-03 -0.79345133D-03
 -0.74391106D-03 -0.52970899D-03  0.79964524D-04  0.74971824D-04  0.53384405D-04
 -0.42227414D-03 -0.39590885D-03 -0.28191069D-03  0.66029402D-03 -0.18776379D-03
  0.94029931D-03 -0.93809741D-04 -0.13822209D-03  0.66530117D-03 -0.27620868D-04
 -0.35007472D-05  0.15718823D-04 -0.98120665D-04 -0.29650338D-04  0.12777100D-03
  0.56995130D-04 -0.28306815D-03 -0.70631531D-04 -0.21164688D-03  0.16669716D-03
  0.44949727D-04  0.15077139D-03 -0.76402105D-03  0.45077121D-04 -0.10612791D-04
 -0.66718286D-06  0.11279974D-04  0.19018118D-04 -0.92679737D-04 -0.58574948D-05
 -0.30110450D-03  0.14182169D-03 -0.34269194D-04  0.27514849D-03 -0.16189282D-03
  0.72338877D-03  0.62816501D-03 -0.26357225D-03 -0.62058119D-03 -0.12405929D-03
  0.24913163D-04 -0.16419961D-05  0.10431259D-04  0.37240363D-07  0.90258071D-05
 -0.40048836D-04 -0.74776728D-04 -0.40998189D-05  0.87550592D-05  0.30967978D-04
  0.32737898D+00  0.61030884D+00  0.10315295D+01  0.15507267D+01  0.19052469D+01
  0.16092856D+01  0.60696331D+00 -0.30038953D-02 -0.37769537D-02 -0.70716490D-02
 -0.12040087D-01 -0.18624184D-01 -0.24527396D-01 -0.25485535D-01 -0.16194914D-01
  0.10853454D-01  0.31797830D-01 -0.15558784D-02 -0.32207511D-03  0.87400438D-03
  0.81943466D-03  0.58348630D-03 -0.46242922D-03 -0.43355678D-03 -0.30871826D-03
  0.22848538D-02  0.21421957D-02  0.15253709D-02 -0.64673333D-03  0.40589992D-03
 -0.19977596D-02  0.50809183D-03  0.69870462D-04 -0.31463600D-03 -0.24103841D-04
  0.26868725D-05 -0.14027968D-04  0.44486576D-03  0.59664501D-04 -0.50453026D-03
  0.15547418D-03 -0.71232070D-03  0.23296430D-03 -0.53579954D-03  0.72609528D-03
 -0.19029574D-03  0.99364877D-04 -0.59945027D-03  0.38971374D-03 -0.16561406D-04
  0.72218813D-04 -0.55657407D-04 -0.10352073D-04  0.42258070D-04  0.55548298D-04
 -0.18436564D-02  0.72407504D-03  0.87290909D-03  0.29956845D-02 -0.18431291D-03
  0.37815439D-03  0.25352848D-02 -0.19879122D-02 -0.29968816D-02  0.27801833D-03
  0.35161514D-03 -0.10382012D-03 -0.10752394D-03 -0.57322010D-03  0.41982836D-04
 -0.10255720D-03 -0.48162532D-03  0.26947751D-03  0.42512901D-03 -0.51548341D-04
  0.24795311D-04  0.44719365D-04  0.65938677D-04 -0.67489289D-03 -0.89060148D-03
 -0.39153958D-04 -0.14097128D-03 -0.81054766D-04  0.38639282D-03  0.55223346D-03
 -0.11905925D-03  0.60472213D-03  0.19783453D-03 -0.27697022D-04  0.14251017D-03
  0.22040967D-03  0.29405398D-03 -0.51446365D-03  0.66233294D-04 -0.33210704D-03
  0.34430019D-03  0.45868433D-04  0.68336780D-06 -0.46551801D-04  0.36945503D-04
 -0.17564155D-03  0.18541331D-04  0.30704532D-05  0.55376889D-05  0.81653190D-05
 -0.43606465D-03  0.93776574D-04  0.37876301D-04 -0.57801066D-04  0.23965178D-03
 -0.21444551D-04  0.28477624D-03  0.45410185D-03 -0.28388400D-03  0.37352528D-04
 -0.83093256D-06 -0.27324720D-05  0.89103444D-04 -0.23273770D-03  0.14363426D-03
 -0.40062169D-03  0.19710105D-03  0.33767542D-03 -0.20417719D-04 -0.19621060D-04
  0.40038779D-04 -0.75158157D-04  0.28114933D-04  0.41919655D-04  0.30863037D-05
  0.55662759D-05  0.82074706D-05 -0.43629933D-03  0.92910609D-04  0.37809160D-04
 -0.53626081D-04 -0.21281464D-03 -0.11466164D-03  0.29236563D-03 -0.30003276D-03
 -0.43840952D-03  0.37488622D-04  0.23678258D-05 -0.18436017D-05  0.82429254D-04
 -0.46104375D-04 -0.36324879D-04  0.29706494D-03  0.34863005D-03 -0.49798473D-03
 -0.21600138D-04  0.58430147D-05  0.15757123D-04  0.57277504D-04  0.56597712D-04
 -0.70907522D-04 -0.13458807D-04 -0.24273512D-04 -0.35791279D-04 -0.11569306D-02
 -0.60038234D-03 -0.60584925D-05  0.57697486D-03  0.19187262D-02 -0.64652646D-03
  0.10698602D-02  0.23899574D-02 -0.99338428D-03  0.16071472D-03  0.19154737D-03
 -0.21303350D-03  0.89258293D-03 -0.17223276D-02  0.82974462D-03 -0.19433266D-02
  0.86828892D-03  0.22583970D-02  0.94517384D-04 -0.22742929D-03  0.13291190D-03
 -0.28823700D-03  0.20353122D-03  0.37575474D-03 -0.33703714D-04 -0.60786036D-04
 -0.89628975D-04  0.90700833D-03  0.96768308D-03 -0.26443096D-04 -0.20481050D-02
 -0.65694863D-04  0.22464198D-03 -0.20798904D-02 -0.57680355D-04  0.18327731D-03
 -0.16513244D-04 -0.48650952D-05  0.22990425D-04 -0.24296807D-02  0.11395560D-02
  0.12901248D-02 -0.22563201D-03  0.76600139D-03 -0.57287260D-04 -0.38251880D-03
  0.12655477D-03  0.25596403D-03 -0.97236352D-05  0.94520190D-06 -0.55630948D-04
 -0.13637440D-04 -0.24595684D-04 -0.36266322D-04 -0.11575115D-02 -0.60011905D-03
 -0.59805397D-05  0.60925630D-03 -0.14961602D-02 -0.13500531D-02  0.11090774D-02
 -0.17831104D-02 -0.18529831D-02  0.16354991D-03 -0.88807923D-04 -0.27074964D-03
  0.86039692D-03 -0.47714891D-03 -0.38324801D-03  0.15024778D-02  0.16357496D-02
 -0.33710743D-02  0.89971006D-04 -0.31213978D-04 -0.58757028D-04  0.19074694D-03
  0.31127030D-03 -0.51376516D-03
MO    3     MO 0.0        OCC NO =    2.0000000  ORB. ENERGY =  -10.072664
  0.87307354D-04  0.16272967D-03  0.27593561D-03  0.41764140D-03  0.52109453D-03
  0.44755070D-03  0.17182342D-03 -0.76857669D-06 -0.84739281D-04 -0.15893062D-03
 -0.27094187D-03 -0.42342940D-03 -0.56620579D-03 -0.60457578D-03 -0.36962578D-03
  0.24385664D-03  0.39798776D-03  0.13871072D-02  0.25810962D-03  0.12457446D-02
  0.12079533D-02  0.81487813D-03 -0.50712901D-05 -0.49174455D-05 -0.33172797D-05
  0.80366607D-04  0.77928575D-04  0.52570156D-04 -0.19160161D-03 -0.17575529D-04
  0.76051653D-04  0.51204605D-03  0.71286522D-04 -0.32383939D-03  0.71971703D-04
 -0.38712112D-05  0.21770960D-04  0.15969248D-02 -0.48804477D-03 -0.11088800D-02
 -0.34947105D-04  0.35469503D-03  0.27147014D-03 -0.12255850D-02  0.41877345D-03
  0.80681154D-03 -0.49639020D-05 -0.12224135D-03 -0.16857495D-03 -0.38994578D-03
  0.77294085D-04  0.31265170D-03  0.55923419D-04 -0.31113892D-03 -0.10426930D-03
 -0.29217698D-03 -0.14081683D-03 -0.17258490D-05  0.12695532D-02  0.10666516D-03
 -0.67581417D-03 -0.39302224D-03  0.31578533D-03  0.68099171D-03  0.68714832D-03
 -0.52359306D-03  0.22888363D-04 -0.13077100D-03  0.48036821D-03 -0.12331885D-03
  0.48840841D-03  0.10904110D-02  0.54653765D-04 -0.96095413D-04 -0.25125264D-03
  0.32736807D+00  0.61028851D+00  0.10314951D+01  0.15506750D+01  0.19051834D+01
  0.16092320D+01  0.60694309D+00 -0.30037952D-02 -0.37671917D-02 -0.70533715D-02
 -0.12008969D-01 -0.18576048D-01 -0.24464002D-01 -0.25419665D-01 -0.16153056D-01
  0.10825403D-01  0.31746389D-01 -0.18262771D-02 -0.37377171D-03 -0.23599306D-02
 -0.22125850D-02 -0.15754923D-02 -0.37781534D-04 -0.35422590D-04 -0.25222994D-04
  0.83473228D-04  0.78261457D-04  0.55726819D-04  0.20321760D-02  0.92682741D-04
 -0.36451223D-03  0.16967238D-03  0.16738733D-03 -0.80848982D-03  0.31053036D-04
 -0.25196697D-05  0.13613208D-04 -0.64763558D-03  0.11588357D-03  0.53175201D-03
 -0.39168393D-04  0.13016526D-03 -0.17608395D-03 -0.41054280D-03  0.70681452D-03
 -0.29627171D-03  0.71101610D-04 -0.45083242D-03  0.42802502D-03 -0.41509629D-04
  0.76987820D-04 -0.35478191D-04 -0.21124818D-04  0.91692111D-04  0.49498608D-04
 -0.16023768D-02  0.79231765D-03  0.12647696D-02  0.24426973D-02  0.15582887D-04
 -0.50177186D-03  0.23644333D-02 -0.23925359D-02 -0.32925369D-02  0.99100982D-04
  0.25672791D-03 -0.14543965D-03 -0.25173512D-03 -0.31106837D-03 -0.17451609D-04
  0.14628530D-03 -0.45911535D-03  0.45377055D-03  0.60892004D-03  0.52658368D-04
 -0.49361917D-01 -0.92021836D-01 -0.15553311D+00 -0.23381722D+00 -0.28727147D+00
 -0.24264668D+00 -0.91517399D-01  0.45292472D-03  0.53536072D-03  0.10023642D-02
  0.17066108D-02  0.26398674D-02  0.34766125D-02  0.36124231D-02  0.22955327D-02
 -0.15384126D-02 -0.46206316D-02  0.11461532D-02  0.22321793D-03  0.43192010D-03
  0.40495255D-03  0.28835034D-03  0.21211085D-04  0.19886741D-04  0.14160544D-04
 -0.84574617D-04 -0.79294080D-04 -0.56462108D-04 -0.97799105D-03 -0.71699606D-04
  0.30501063D-03 -0.79507453D-03 -0.93353053D-04  0.41928141D-03  0.12189323D-05
 -0.75108343D-05  0.36529951D-04 -0.11790292D-03 -0.54328082D-04  0.17223100D-03
  0.31764650D-04 -0.16042030D-03 -0.98719796D-04 -0.76877959D-04 -0.49174955D-04
  0.12605291D-03  0.12364088D-03 -0.60009919D-03 -0.81883694D-04 -0.16110630D-04
 -0.22605329D-04  0.38715959D-04  0.21690494D-04 -0.10304767D-03 -0.27400742D-04
  0.30806804D-03 -0.12248298D-03  0.10818867D-03 -0.32531074D-03  0.19201094D-03
 -0.86328229D-03 -0.59889337D-03  0.17543799D-03  0.53871629D-03  0.88425282D-04
 -0.90564594D-04  0.32200803D-04  0.90619642D-05  0.16631280D-03 -0.27852987D-04
  0.10730039D-03  0.10538098D-03 -0.68749423D-04 -0.13448628D-03  0.31205188D-04
 -0.42927497D-04 -0.77421508D-04 -0.11415797D-03  0.11643001D-02  0.12918641D-02
 -0.15575846D-04  0.52744546D-03 -0.39453827D-03  0.19401234D-02  0.36543425D-03
 -0.38538828D-03  0.18865449D-02 -0.78711395D-04  0.33902407D-05 -0.20698926D-04
  0.11159367D-02  0.95532850D-03 -0.20712652D-02  0.34239855D-03 -0.16629707D-02
  0.12841477D-02  0.18575217D-03  0.10842760D-03 -0.29417976D-03  0.74840216D-04
 -0.35832536D-03  0.16975275D-03 -0.15167233D-04 -0.27354729D-04 -0.40334532D-04
 -0.10773303D-02 -0.65771304D-03 -0.18001862D-04  0.80206422D-03  0.19104503D-02
 -0.54626460D-03  0.94852187D-03  0.23732233D-02 -0.10121354D-02  0.17464154D-03
  0.19832955D-03 -0.21012844D-03  0.77374008D-03 -0.16503355D-02  0.87659542D-03
 -0.24910037D-02  0.83336900D-03  0.18366297D-02  0.14757915D-03 -0.21555362D-03
  0.67974470D-04 -0.40571945D-03  0.14954335D-03  0.30778647D-03 -0.15300503D-04
 -0.27595087D-04 -0.40688940D-04 -0.10796363D-02 -0.65957814D-03 -0.18002302D-04
  0.83361074D-03 -0.15255110D-02 -0.12535867D-02  0.98589951D-03 -0.17636113D-02
 -0.18640280D-02  0.17741094D-03 -0.96315386D-04 -0.27075594D-03  0.73266000D-03
 -0.55453457D-03 -0.17812543D-03  0.20153970D-02  0.18088733D-02 -0.30584987D-02
  0.14099313D-03 -0.54164052D-04 -0.86829080D-04  0.32198933D-03  0.30665965D-03
 -0.41100278D-03  0.74009028D-05  0.13347833D-04  0.19681372D-04 -0.99514567D-04
  0.28293949D-03  0.41449896D-04 -0.92502820D-04 -0.36127027D-03  0.27875115D-03
 -0.70811142D-04 -0.25779341D-03 -0.16336408D-04 -0.60485084D-04 -0.53288829D-04
  0.28482087D-04 -0.11411625D-03  0.27943445D-03 -0.16531821D-03  0.23909018D-03
 -0.10044829D-03 -0.28615242D-03  0.10292011D-04  0.42799058D-04 -0.53091069D-04
  0.53205481D-04 -0.68895703D-04 -0.26552175D-04  0.36366382D-04  0.65588267D-04
  0.96709862D-04 -0.98789215D-03 -0.12319450D-02 -0.32801395D-04  0.29202449D-03
 -0.38625911D-04  0.20123639D-03 -0.15918030D-03  0.77188539D-04 -0.38130246D-03
 -0.20733846D-03  0.29023323D-04 -0.14906854D-03  0.15330184D-03 -0.11537805D-04
 -0.14176404D-03  0.61363996D-05 -0.13882044D-04  0.55857617D-04  0.19474118D-04
 -0.32537270D-04  0.13063152D-04  0.18154220D-04 -0.83098004D-04 -0.20616523D-04
  0.74343065D-05  0.13408078D-04  0.19770203D-04 -0.98129673D-04  0.28412726D-03
  0.41492631D-04 -0.98150648D-04  0.22000884D-03  0.39868776D-03 -0.75261774D-04
  0.24236153D-03  0.86560395D-04 -0.61099516D-04  0.36727384D-04  0.47147784D-04
 -0.10995490D-03  0.10266327D-03  0.72916270D-05 -0.18950404D-03 -0.19693194D-03
  0.51561272D-03  0.10893229D-04  0.17876060D-04 -0.28769289D-04 -0.22201348D-04
 -0.85690266D-04  0.86238841D-04
MO    4     MO 0.0        OCC NO =    2.0000000  ORB. ENERGY =   -1.001888
 -0.80661828D-02 -0.15034327D-01 -0.25493237D-01 -0.38585202D-01 -0.48143066D-01
 -0.41348473D-01 -0.15874483D-01  0.71007535D-04 -0.88943905D-01 -0.16681650D+00
 -0.28438556D+00 -0.44443927D+00 -0.59429999D+00 -0.63457383D+00 -0.38796600D+00
  0.25595640D+00  0.13595274D+00  0.70711583D-01  0.28996337D-02  0.15495284D+00
  0.15025213D+00  0.10135920D+00  0.45645222D-01  0.44260511D-01  0.29857879D-01
 -0.21431721D+00 -0.20781560D+00 -0.14019118D+00  0.41833071D-01  0.12295928D-01
 -0.57900010D-01  0.24481021D-02  0.73405312D-03 -0.33588414D-02 -0.20179134D-04