 Molden2AIM, Version 4.0.0 (06/02/2016)           Time: Sat Jun 30 05:57:21 2018
GAUSSIAN             26 MOL ORBITALS    629 PRIMITIVES       11 NUCLEI
  Ge   1    (CENTRE  1)   0.00000000  0.00000000  1.10364352  CHARGE = 32.0
  H    2    (CENTRE  2)   2.36287575  0.00000000  2.82363822  CHARGE =  1.0
  H    3    (CENTRE  3)  -2.36287575  0.00000000  2.82363822  CHARGE =  1.0
  C    4    (CENTRE  4)   0.00000000  3.04343983 -1.00058920  CHARGE =  6.0
  H    5    (CENTRE  5)  -1.68238537  3.08463586 -2.21550546  CHARGE =  1.0
  H    6    (CENTRE  6)   0.00000000  4.75362874  0.17284758  CHARGE =  1.0
  H    7    (CENTRE  7)   1.68238537  3.08463586 -2.21550546  CHARGE =  1.0
  C    8    (CENTRE  8)   0.00000000 -3.04343983 -1.00058920  CHARGE =  6.0
  H    9    (CENTRE  9)   0.00000000 -4.75362874  0.17284758  CHARGE =  1.0
  H   10    (CENTRE 10)  -1.68238537 -3.08463586 -2.21550546  CHARGE =  1.0
  H   11    (CENTRE 11)   1.68238537 -3.08463586 -2.21550546  CHARGE =  1.0
CENTRE ASSIGNMENTS    1  1  1  1  1  1  1  1  1  1  1  1  1  1  1  1  1  1  1  1
CENTRE ASSIGNMENTS    1  1  1  1  1  1  1  1  1  1  1  1  1  1  1  1  1  1  1  1
CENTRE ASSIGNMENTS    1  1  1  1  1  1  1  1  1  1  1  1  1  1  1  1  1  1  1  1
CENTRE ASSIGNMENTS    1  1  1  1  1  1  1  1  1  1  1  1  1  1  1  1  1  1  1  1
CENTRE ASSIGNMENTS    1  1  1  1  1  1  1  1  1  1  1  1  1  1  1  1  1  1  1  1
CENTRE ASSIGNMENTS    1  1  1  1  1  1  1  1  1  1  1  1  1  1  1  1  1  1  1  1
CENTRE ASSIGNMENTS    1  1  1  1  1  1  1  1  1  1  1  1  1  1  1  1  1  1  1  1
CENTRE ASSIGNMENTS    1  1  1  1  1  1  1  1  1  1  1  1  1  1  1  1  1  1  1  1
CENTRE ASSIGNMENTS    1  1  1  1  1  1  1  1  1  1  1  1  1  1  1  1  1  1  1  1
CENTRE ASSIGNMENTS    1  1  1  1  1  1  1  1  1  1  1  1  1  1  1  1  1  1  1  1
CENTRE ASSIGNMENTS    1  1  1  1  1  1  1  1  1  1  1  1  1  1  1  1  1  1  1  1
CENTRE ASSIGNMENTS    1  1  1  1  1  1  1  1  1  1  1  1  1  1  1  1  1  1  1  1
CENTRE ASSIGNMENTS    1  1  1  1  1  1  1  1  1  1  1  1  1  1  1  1  1  1  1  1
CENTRE ASSIGNMENTS    1  1  1  2  2  2  2  2  2  2  2  2  2  2  2  2  2  2  2  2
CENTRE ASSIGNMENTS    2  2  2  2  2  2  2  2  2  2  3  3  3  3  3  3  3  3  3  3
CENTRE ASSIGNMENTS    3  3  3  3  3  3  3  3  3  3  3  3  3  3  3  3  3  4  4  4
CENTRE ASSIGNMENTS    4  4  4  4  4  4  4  4  4  4  4  4  4  4  4  4  4  4  4  4
CENTRE ASSIGNMENTS    4  4  4  4  4  4  4  4  4  4  4  4  4  4  4  4  4  4  4  4
CENTRE ASSIGNMENTS    4  4  4  4  4  4  4  4  4  4  4  4  4  4  4  4  4  4  4  4
CENTRE ASSIGNMENTS    4  4  4  4  4  4  4  4  4  4  4  4  5  5  5  5  5  5  5  5
CENTRE ASSIGNMENTS    5  5  5  5  5  5  5  5  5  5  5  5  5  5  5  5  5  5  5  6
CENTRE ASSIGNMENTS    6  6  6  6  6  6  6  6  6  6  6  6  6  6  6  6  6  6  6  6
CENTRE ASSIGNMENTS    6  6  6  6  6  6  7  7  7  7  7  7  7  7  7  7  7  7  7  7
CENTRE ASSIGNMENTS    7  7  7  7  7  7  7  7  7  7  7  7  7  8  8  8  8  8  8  8
CENTRE ASSIGNMENTS    8  8  8  8  8  8  8  8  8  8  8  8  8  8  8  8  8  8  8  8
CENTRE ASSIGNMENTS    8  8  8  8  8  8  8  8  8  8  8  8  8  8  8  8  8  8  8  8
CENTRE ASSIGNMENTS    8  8  8  8  8  8  8  8  8  8  8  8  8  8  8  8  8  8  8  8
CENTRE ASSIGNMENTS    8  8  8  8  8  8  8  8  9  9  9  9  9  9  9  9  9  9  9  9
CENTRE ASSIGNMENTS    9  9  9  9  9  9  9  9  9  9  9  9  9  9  9 10 10 10 10 10
CENTRE ASSIGNMENTS   10 10 10 10 10 10 10 10 10 10 10 10 10 10 10 10 10 10 10 10
CENTRE ASSIGNMENTS   10 10 11 11 11 11 11 11 11 11 11 11 11 11 11 11 11 11 11 11
CENTRE ASSIGNMENTS   11 11 11 11 11 11 11 11 11
TYPE ASSIGNMENTS      1  1  1  1  1  1  1  1  1  1  1  1  1  1  1  1  1  1  1  1
TYPE ASSIGNMENTS      1  1  1  1  1  1  1  1  1  1  1  1  1  1  1  1  1  1  1  1
TYPE ASSIGNMENTS      1  1  1  1  1  1  1  1  1  1  1  1  1  1  1  1  1  1  1  1
TYPE ASSIGNMENTS      1  1  1  1  1  1  1  1  1  1  1  1  1  1  1  2  2  2  2  2
TYPE ASSIGNMENTS      2  2  2  2  2  2  3  3  3  3  3  3  3  3  3  3  3  4  4  4
TYPE ASSIGNMENTS      4  4  4  4  4  4  4  4  2  2  2  2  2  2  2  2  2  2  2  3
TYPE ASSIGNMENTS      3  3  3  3  3  3  3  3  3  3  4  4  4  4  4  4  4  4  4  4
TYPE ASSIGNMENTS      4  2  2  2  2  2  2  2  2  2  2  2  3  3  3  3  3  3  3  3
TYPE ASSIGNMENTS      3  3  3  4  4  4  4  4  4  4  4  4  4  4  2  3  4  2  3  4
TYPE ASSIGNMENTS      2  3  4  5  5  5  5  5  5  5  6  6  6  6  6  6  6  7  7  7
TYPE ASSIGNMENTS      7  7  7  7  8  8  8  8  8  8  8  9  9  9  9  9  9  9 10 10
TYPE ASSIGNMENTS     10 10 10 10 10  5  6  7  8  9 10  5  6  7  8  9 10  5  6  7
TYPE ASSIGNMENTS      8  9 10 11 12 13 17 14 15 18 19 16 20 11 12 13 17 14 15 18
TYPE ASSIGNMENTS     19 16 20  1  1  1  1  1  1  2  3  4  2  3  4  2  3  4  5  6
TYPE ASSIGNMENTS      7  8  9 10  5  6  7  8  9 10  1  1  1  1  1  1  2  3  4  2
TYPE ASSIGNMENTS      3  4  2  3  4  5  6  7  8  9 10  5  6  7  8  9 10  1  1  1
TYPE ASSIGNMENTS      1  1  1  1  1  1  1  1  1  1  1  1  1  1  1  1  2  2  2  3
TYPE ASSIGNMENTS      3  3  4  4  4  2  3  4  2  3  4  2  3  4  5  6  7  8  9 10
TYPE ASSIGNMENTS      5  6  7  8  9 10  5  6  7  8  9 10 11 12 13 17 14 15 18 19
TYPE ASSIGNMENTS     16 20 11 12 13 17 14 15 18 19 16 20  1  1  1  1  1  1  2  3
TYPE ASSIGNMENTS      4  2  3  4  2  3  4  5  6  7  8  9 10  5  6  7  8  9 10  1
TYPE ASSIGNMENTS      1  1  1  1  1  2  3  4  2  3  4  2  3  4  5  6  7  8  9 10
TYPE ASSIGNMENTS      5  6  7  8  9 10  1  1  1  1  1  1  2  3  4  2  3  4  2  3
TYPE ASSIGNMENTS      4  5  6  7  8  9 10  5  6  7  8  9 10  1  1  1  1  1  1  1
TYPE ASSIGNMENTS      1  1  1  1  1  1  1  1  1  1  1  1  2  2  2  3  3  3  4  4
TYPE ASSIGNMENTS      4  2  3  4  2  3  4  2  3  4  5  6  7  8  9 10  5  6  7  8
TYPE ASSIGNMENTS      9 10  5  6  7  8  9 10 11 12 13 17 14 15 18 19 16 20 11 12
TYPE ASSIGNMENTS     13 17 14 15 18 19 16 20  1  1  1  1  1  1  2  3  4  2  3  4
TYPE ASSIGNMENTS      2  3  4  5  6  7  8  9 10  5  6  7  8  9 10  1  1  1  1  1
TYPE ASSIGNMENTS      1  2  3  4  2  3  4  2  3  4  5  6  7  8  9 10  5  6  7  8
TYPE ASSIGNMENTS      9 10  1  1  1  1  1  1  2  3  4  2  3  4  2  3  4  5  6  7
TYPE ASSIGNMENTS      8  9 10  5  6  7  8  9 10
EXPONENTS  0.7447967D+07 0.1115318D+07 0.2538426D+06 0.7191529D+05 0.2347018D+05
EXPONENTS  0.8477492D+04 0.3308391D+04 0.1372605D+04 0.5982201D+03 0.2713860D+03
EXPONENTS  0.1269780D+03 0.6022207D+02 0.2801858D+02 0.1351752D+02 0.6309406D+01
EXPONENTS  0.2904534D+01 0.1287556D+01 0.1677320D+00 0.7447967D+07 0.1115318D+07
EXPONENTS  0.2538426D+06 0.7191529D+05 0.2347018D+05 0.8477492D+04 0.3308391D+04
EXPONENTS  0.1372605D+04 0.5982201D+03 0.2713860D+03 0.1269780D+03 0.6022207D+02
EXPONENTS  0.2801858D+02 0.1351752D+02 0.6309406D+01 0.2904534D+01 0.1287556D+01
EXPONENTS  0.1677320D+00 0.7447967D+07 0.1115318D+07 0.2538426D+06 0.7191529D+05
EXPONENTS  0.2347018D+05 0.8477492D+04 0.3308391D+04 0.1372605D+04 0.5982201D+03
EXPONENTS  0.2713860D+03 0.1269780D+03 0.6022207D+02 0.2801858D+02 0.1351752D+02
EXPONENTS  0.6309406D+01 0.2904534D+01 0.1287556D+01 0.1677320D+00 0.7447967D+07
EXPONENTS  0.1115318D+07 0.2538426D+06 0.7191529D+05 0.2347018D+05 0.8477492D+04
EXPONENTS  0.3308391D+04 0.1372605D+04 0.5982201D+03 0.2713860D+03 0.1269780D+03
EXPONENTS  0.6022207D+02 0.2801858D+02 0.1351752D+02 0.6309406D+01 0.2904534D+01
EXPONENTS  0.1287556D+01 0.1677320D+00 0.3365520D+00 0.7106900D-01 0.2737000D-01
EXPONENTS  0.6979598D+04 0.1654165D+04 0.5360286D+03 0.2035371D+03 0.8523753D+02
EXPONENTS  0.3784196D+02 0.1740651D+02 0.7881492D+01 0.3533213D+01 0.1521473D+01
EXPONENTS  0.1990930D+00 0.6979598D+04 0.1654165D+04 0.5360286D+03 0.2035371D+03
EXPONENTS  0.8523753D+02 0.3784196D+02 0.1740651D+02 0.7881492D+01 0.3533213D+01
EXPONENTS  0.1521473D+01 0.1990930D+00 0.6979598D+04 0.1654165D+04 0.5360286D+03
EXPONENTS  0.2035371D+03 0.8523753D+02 0.3784196D+02 0.1740651D+02 0.7881492D+01
EXPONENTS  0.3533213D+01 0.1521473D+01 0.1990930D+00 0.6979598D+04 0.1654165D+04
EXPONENTS  0.5360286D+03 0.2035371D+03 0.8523753D+02 0.3784196D+02 0.1740651D+02
EXPONENTS  0.7881492D+01 0.3533213D+01 0.1521473D+01 0.1990930D+00 0.6979598D+04
EXPONENTS  0.1654165D+04 0.5360286D+03 0.2035371D+03 0.8523753D+02 0.3784196D+02
EXPONENTS  0.1740651D+02 0.7881492D+01 0.3533213D+01 0.1521473D+01 0.1990930D+00
EXPONENTS  0.6979598D+04 0.1654165D+04 0.5360286D+03 0.2035371D+03 0.8523753D+02
EXPONENTS  0.3784196D+02 0.1740651D+02 0.7881492D+01 0.3533213D+01 0.1521473D+01
EXPONENTS  0.1990930D+00 0.6979598D+04 0.1654165D+04 0.5360286D+03 0.2035371D+03
EXPONENTS  0.8523753D+02 0.3784196D+02 0.1740651D+02 0.7881492D+01 0.3533213D+01
EXPONENTS  0.1521473D+01 0.1990930D+00 0.6979598D+04 0.1654165D+04 0.5360286D+03
EXPONENTS  0.2035371D+03 0.8523753D+02 0.3784196D+02 0.1740651D+02 0.7881492D+01
EXPONENTS  0.3533213D+01 0.1521473D+01 0.1990930D+00 0.6979598D+04 0.1654165D+04
EXPONENTS  0.5360286D+03 0.2035371D+03 0.8523753D+02 0.3784196D+02 0.1740651D+02
EXPONENTS  0.7881492D+01 0.3533213D+01 0.1521473D+01 0.1990930D+00 0.5627040D+00
EXPONENTS  0.5627040D+00 0.5627040D+00 0.6703100D-01 0.6703100D-01 0.6703100D-01
EXPONENTS  0.2136800D-01 0.2136800D-01 0.2136800D-01 0.2822391D+03 0.8454996D+02
EXPONENTS  0.3207366D+02 0.1349750D+02 0.5958550D+01 0.2610788D+01 0.1103987D+01
EXPONENTS  0.2822391D+03 0.8454996D+02 0.3207366D+02 0.1349750D+02 0.5958550D+01
EXPONENTS  0.2610788D+01 0.1103987D+01 0.2822391D+03 0.8454996D+02 0.3207366D+02
EXPONENTS  0.1349750D+02 0.5958550D+01 0.2610788D+01 0.1103987D+01 0.2822391D+03
EXPONENTS  0.8454996D+02 0.3207366D+02 0.1349750D+02 0.5958550D+01 0.2610788D+01
EXPONENTS  0.1103987D+01 0.2822391D+03 0.8454996D+02 0.3207366D+02 0.1349750D+02
EXPONENTS  0.5958550D+01 0.2610788D+01 0.1103987D+01 0.2822391D+03 0.8454996D+02
EXPONENTS  0.3207366D+02 0.1349750D+02 0.5958550D+01 0.2610788D+01 0.1103987D+01
EXPONENTS  0.4240490D+00 0.4240490D+00 0.4240490D+00 0.4240490D+00 0.4240490D+00
EXPONENTS  0.4240490D+00 0.1520000D+00 0.1520000D+00 0.1520000D+00 0.1520000D+00
EXPONENTS  0.1520000D+00 0.1520000D+00 0.5280000D-01 0.5280000D-01 0.5280000D-01
EXPONENTS  0.5280000D-01 0.5280000D-01 0.5280000D-01 0.3458000D+00 0.3458000D+00
EXPONENTS  0.3458000D+00 0.3458000D+00 0.3458000D+00 0.3458000D+00 0.3458000D+00
EXPONENTS  0.3458000D+00 0.3458000D+00 0.3458000D+00 0.1323000D+00 0.1323000D+00
EXPONENTS  0.1323000D+00 0.1323000D+00 0.1323000D+00 0.1323000D+00 0.1323000D+00
EXPONENTS  0.1323000D+00 0.1323000D+00 0.1323000D+00 0.3387000D+02 0.5095000D+01
EXPONENTS  0.1159000D+01 0.3258000D+00 0.1027000D+00 0.2526000D-01 0.1407000D+01
EXPONENTS  0.1407000D+01 0.1407000D+01 0.3880000D+00 0.3880000D+00 0.3880000D+00
EXPONENTS  0.1020000D+00 0.1020000D+00 0.1020000D+00 0.1057000D+01 0.1057000D+01
EXPONENTS  0.1057000D+01 0.1057000D+01 0.1057000D+01 0.1057000D+01 0.2470000D+00
EXPONENTS  0.2470000D+00 0.2470000D+00 0.2470000D+00 0.2470000D+00 0.2470000D+00
EXPONENTS  0.3387000D+02 0.5095000D+01 0.1159000D+01 0.3258000D+00 0.1027000D+00
EXPONENTS  0.2526000D-01 0.1407000D+01 0.1407000D+01 0.1407000D+01 0.3880000D+00
EXPONENTS  0.3880000D+00 0.3880000D+00 0.1020000D+00 0.1020000D+00 0.1020000D+00
EXPONENTS  0.1057000D+01 0.1057000D+01 0.1057000D+01 0.1057000D+01 0.1057000D+01
EXPONENTS  0.1057000D+01 0.2470000D+00 0.2470000D+00 0.2470000D+00 0.2470000D+00
EXPONENTS  0.2470000D+00 0.2470000D+00 0.8236000D+04 0.1235000D+04 0.2808000D+03
EXPONENTS  0.7927000D+02 0.2559000D+02 0.8997000D+01 0.3319000D+01 0.3643000D+00
EXPONENTS  0.8236000D+04 0.1235000D+04 0.2808000D+03 0.7927000D+02 0.2559000D+02
EXPONENTS  0.8997000D+01 0.3319000D+01 0.3643000D+00 0.9059000D+00 0.1285000D+00
EXPONENTS  0.4402000D-01 0.1871000D+02 0.4133000D+01 0.1200000D+01 0.1871000D+02
EXPONENTS  0.4133000D+01 0.1200000D+01 0.1871000D+02 0.4133000D+01 0.1200000D+01
EXPONENTS  0.3827000D+00 0.3827000D+00 0.3827000D+00 0.1209000D+00 0.1209000D+00
EXPONENTS  0.1209000D+00 0.3569000D-01 0.3569000D-01 0.3569000D-01 0.1097000D+01
EXPONENTS  0.1097000D+01 0.1097000D+01 0.1097000D+01 0.1097000D+01 0.1097000D+01
EXPONENTS  0.3180000D+00 0.3180000D+00 0.3180000D+00 0.3180000D+00 0.3180000D+00
EXPONENTS  0.3180000D+00 0.1000000D+00 0.1000000D+00 0.1000000D+00 0.1000000D+00
EXPONENTS  0.1000000D+00 0.1000000D+00 0.7610000D+00 0.7610000D+00 0.7610000D+00
EXPONENTS  0.7610000D+00 0.7610000D+00 0.7610000D+00 0.7610000D+00 0.7610000D+00
EXPONENTS  0.7610000D+00 0.7610000D+00 0.2680000D+00 0.2680000D+00 0.2680000D+00
EXPONENTS  0.2680000D+00 0.2680000D+00 0.2680000D+00 0.2680000D+00 0.2680000D+00
EXPONENTS  0.2680000D+00 0.2680000D+00 0.3387000D+02 0.5095000D+01 0.1159000D+01
EXPONENTS  0.3258000D+00 0.1027000D+00 0.2526000D-01 0.1407000D+01 0.1407000D+01
EXPONENTS  0.1407000D+01 0.3880000D+00 0.3880000D+00 0.3880000D+00 0.1020000D+00
EXPONENTS  0.1020000D+00 0.1020000D+00 0.1057000D+01 0.1057000D+01 0.1057000D+01
EXPONENTS  0.1057000D+01 0.1057000D+01 0.1057000D+01 0.2470000D+00 0.2470000D+00
EXPONENTS  0.2470000D+00 0.2470000D+00 0.2470000D+00 0.2470000D+00 0.3387000D+02
EXPONENTS  0.5095000D+01 0.1159000D+01 0.3258000D+00 0.1027000D+00 0.2526000D-01
EXPONENTS  0.1407000D+01 0.1407000D+01 0.1407000D+01 0.3880000D+00 0.3880000D+00
EXPONENTS  0.3880000D+00 0.1020000D+00 0.1020000D+00 0.1020000D+00 0.1057000D+01
EXPONENTS  0.1057000D+01 0.1057000D+01 0.1057000D+01 0.1057000D+01 0.1057000D+01
EXPONENTS  0.2470000D+00 0.2470000D+00 0.2470000D+00 0.2470000D+00 0.2470000D+00
EXPONENTS  0.2470000D+00 0.3387000D+02 0.5095000D+01 0.1159000D+01 0.3258000D+00
EXPONENTS  0.1027000D+00 0.2526000D-01 0.1407000D+01 0.1407000D+01 0.1407000D+01
EXPONENTS  0.3880000D+00 0.3880000D+00 0.3880000D+00 0.1020000D+00 0.1020000D+00
EXPONENTS  0.1020000D+00 0.1057000D+01 0.1057000D+01 0.1057000D+01 0.1057000D+01
EXPONENTS  0.1057000D+01 0.1057000D+01 0.2470000D+00 0.2470000D+00 0.2470000D+00
EXPONENTS  0.2470000D+00 0.2470000D+00 0.2470000D+00 0.8236000D+04 0.1235000D+04
EXPONENTS  0.2808000D+03 0.7927000D+02 0.2559000D+02 0.8997000D+01 0.3319000D+01
EXPONENTS  0.3643000D+00 0.8236000D+04 0.1235000D+04 0.2808000D+03 0.7927000D+02
EXPONENTS  0.2559000D+02 0.8997000D+01 0.3319000D+01 0.3643000D+00 0.9059000D+00
EXPONENTS  0.1285000D+00 0.4402000D-01 0.1871000D+02 0.4133000D+01 0.1200000D+01
EXPONENTS  0.1871000D+02 0.4133000D+01 0.1200000D+01 0.1871000D+02 0.4133000D+01
EXPONENTS  0.1200000D+01 0.3827000D+00 0.3827000D+00 0.3827000D+00 0.1209000D+00
EXPONENTS  0.1209000D+00 0.1209000D+00 0.3569000D-01 0.3569000D-01 0.3569000D-01
EXPONENTS  0.1097000D+01 0.1097000D+01 0.1097000D+01 0.1097000D+01 0.1097000D+01
EXPONENTS  0.1097000D+01 0.3180000D+00 0.3180000D+00 0.3180000D+00 0.3180000D+00
EXPONENTS  0.3180000D+00 0.3180000D+00 0.1000000D+00 0.1000000D+00 0.1000000D+00
EXPONENTS  0.1000000D+00 0.1000000D+00 0.1000000D+00 0.7610000D+00 0.7610000D+00
EXPONENTS  0.7610000D+00 0.7610000D+00 0.7610000D+00 0.7610000D+00 0.7610000D+00
EXPONENTS  0.7610000D+00 0.7610000D+00 0.7610000D+00 0.2680000D+00 0.2680000D+00
EXPONENTS  0.2680000D+00 0.2680000D+00 0.2680000D+00 0.2680000D+00 0.2680000D+00
EXPONENTS  0.2680000D+00 0.2680000D+00 0.2680000D+00 0.3387000D+02 0.5095000D+01
EXPONENTS  0.1159000D+01 0.3258000D+00 0.1027000D+00 0.2526000D-01 0.1407000D+01
EXPONENTS  0.1407000D+01 0.1407000D+01 0.3880000D+00 0.3880000D+00 0.3880000D+00
EXPONENTS  0.1020000D+00 0.1020000D+00 0.1020000D+00 0.1057000D+01 0.1057000D+01
EXPONENTS  0.1057000D+01 0.1057000D+01 0.1057000D+01 0.1057000D+01 0.2470000D+00
EXPONENTS  0.2470000D+00 0.2470000D+00 0.2470000D+00 0.2470000D+00 0.2470000D+00
EXPONENTS  0.3387000D+02 0.5095000D+01 0.1159000D+01 0.3258000D+00 0.1027000D+00
EXPONENTS  0.2526000D-01 0.1407000D+01 0.1407000D+01 0.1407000D+01 0.3880000D+00
EXPONENTS  0.3880000D+00 0.3880000D+00 0.1020000D+00 0.1020000D+00 0.1020000D+00
EXPONENTS  0.1057000D+01 0.1057000D+01 0.1057000D+01 0.1057000D+01 0.1057000D+01
EXPONENTS  0.1057000D+01 0.2470000D+00 0.2470000D+00 0.2470000D+00 0.2470000D+00
EXPONENTS  0.2470000D+00 0.2470000D+00 0.3387000D+02 0.5095000D+01 0.1159000D+01
EXPONENTS  0.3258000D+00 0.1027000D+00 0.2526000D-01 0.1407000D+01 0.1407000D+01
EXPONENTS  0.1407000D+01 0.3880000D+00 0.3880000D+00 0.3880000D+00 0.1020000D+00
EXPONENTS  0.1020000D+00 0.1020000D+00 0.1057000D+01 0.1057000D+01 0.1057000D+01
EXPONENTS  0.1057000D+01 0.1057000D+01 0.1057000D+01 0.2470000D+00 0.2470000D+00
EXPONENTS  0.2470000D+00 0.2470000D+00 0.2470000D+00 0.2470000D+00
MO    1     MO 0.0        OCC NO =    2.0000000  ORB. ENERGY = -398.137613
  0.75184431D+00  0.14038764D+01  0.24330692D+01  0.39848736D+01  0.62326506D+01
  0.93316333D+01  0.13228689D+02  0.17244443D+02  0.19353718D+02  0.16454003D+02
  0.82089697D+01  0.15262077D+01  0.35857606D-01  0.51982261D-02 -0.13776470D-02
  0.28618868D-03 -0.78557442D-04 -0.49683420D-05  0.11436992D-03  0.21426824D-03
  0.37077204D-03  0.60716291D-03  0.95402298D-03  0.14382704D-02  0.20867653D-02
  0.28456398D-02  0.35509774D-02  0.37051560D-02  0.26832532D-02  0.18956361D-03
 -0.19433267D-02 -0.13700451D-02 -0.19398160D-03 -0.17572573D-05 -0.88224103D-06
 -0.29993273D-07 -0.24810442D-03 -0.45789075D-03 -0.79158163D-03 -0.12974868D-02
 -0.20396708D-02 -0.30780155D-02 -0.44776291D-02 -0.61427531D-02 -0.77654122D-02
 -0.83341007D-02 -0.63598883D-02 -0.49635883D-03  0.64156481D-02  0.68176172D-02
 -0.83560471D-04 -0.31045295D-02 -0.11230548D-02  0.51842810D-05  0.10275316D-03
  0.22261709D-03  0.37900357D-03  0.62035299D-03  0.97441455D-03  0.14712057D-02
  0.21401059D-02  0.29397116D-02  0.37207626D-02  0.40119674D-02  0.30794313D-02
  0.25043446D-03 -0.32694645D-02 -0.36590861D-02  0.11593651D-03  0.21680891D-02
  0.14816500D-02 -0.58470337D-03  0.22375003D-03  0.40450921D-03  0.33445328D-05
  0.47342325D-15  0.67786327D-15  0.89288695D-15  0.10222985D-14  0.93543026D-15
  0.59539033D-15  0.20560360D-15  0.22956800D-16  0.29064397D-18  0.52747453D-19
  0.41407833D-21 -0.23410113D-14 -0.33519384D-14 -0.44152002D-14 -0.50551218D-14
 -0.46255708D-14 -0.29441213D-14 -0.10166808D-14 -0.11351814D-15 -0.14371935D-17
 -0.26082873D-18 -0.20475590D-20  0.29308747D-03  0.41965246D-03  0.55276960D-03
  0.63288583D-03  0.57910736D-03  0.36859501D-03  0.12728534D-03  0.14212125D-04
  0.17993224D-06  0.32654961D-07  0.25634814D-09 -0.23201738D-14 -0.33439886D-14
 -0.44414944D-14 -0.52340278D-14 -0.49975192D-14 -0.34126069D-14 -0.10809303D-14
  0.50952559D-15  0.52821077D-15  0.13897054D-15 -0.92212007D-19  0.11238589D-13
  0.16197801D-13  0.21513963D-13  0.25352881D-13  0.24207267D-13  0.16530179D-13
  0.52358715D-14 -0.24680689D-14 -0.25585773D-14 -0.67315340D-15  0.44666175D-18
 -0.12703725D-02 -0.18309452D-02 -0.24318662D-02 -0.28658046D-02 -0.27363082D-02
 -0.18685160D-02 -0.59184536D-03  0.27898224D-03  0.28921299D-03  0.76091003D-04
 -0.50489146D-07  0.18252005D-14  0.26140268D-14  0.34959882D-14  0.41071536D-14
  0.39686078D-14  0.27054430D-14  0.86490066D-15 -0.51294059D-15 -0.49775134D-15
 -0.16820790D-15  0.62919933D-16 -0.85688569D-14 -0.12272197D-13 -0.16412784D-13
 -0.19282052D-13 -0.18631614D-13 -0.12701374D-13 -0.40604908D-14  0.24081269D-14
  0.23368172D-14  0.78969375D-15 -0.29539324D-15  0.91143831D-03  0.13053493D-02
  0.17457685D-02  0.20509621D-02  0.19817774D-02  0.13509992D-02  0.43189972D-03
 -0.25614375D-03 -0.24855879D-03 -0.83996868D-04  0.31419911D-04 -0.76953128D-17
  0.70638330D-16 -0.19901529D-04  0.48764068D-16  0.56872351D-16 -0.48646778D-04
  0.35711557D-17 -0.32053807D-17 -0.13270543D-05 -0.10968890D-03 -0.11033550D-03
 -0.88172172D-04 -0.53995923D-04 -0.22653616D-04 -0.61762000D-05 -0.10104573D-05
  0.82991668D-05  0.83480889D-05  0.66711907D-05  0.40853831D-05  0.17139942D-05
  0.46729719D-06  0.76452161D-07  0.10138973D-03  0.10198741D-03  0.81500982D-04
  0.49910540D-04  0.20939622D-04  0.57089029D-05  0.93400510D-06 -0.39838663D-15
 -0.40073505D-15 -0.32023856D-15 -0.19611150D-15 -0.82277222D-16 -0.22431764D-16
 -0.36699490D-17 -0.34467164D-15 -0.34670342D-15 -0.27706037D-15 -0.16966952D-15
 -0.71183676D-16 -0.19407260D-16 -0.31751250D-17 -0.90054790D-15 -0.90585647D-15
 -0.72389517D-15 -0.44330753D-15 -0.18598661D-15 -0.50706717D-16 -0.82958729D-17
  0.33928125D-05  0.22328473D-05 -0.56256598D-05  0.27115012D-16  0.23123789D-16
  0.51217739D-16 -0.64575702D-05  0.30146328D-05  0.34429374D-05 -0.43478329D-16
  0.55240160D-16  0.12017603D-15 -0.14029124D-05  0.17686269D-05 -0.36571449D-06
  0.78229428D-17  0.32772900D-18 -0.25109047D-18  0.29233910D-17 -0.16117813D-16
  0.18112517D-05 -0.18492465D-16  0.42933601D-16 -0.49576139D-04  0.97222917D-17
  0.54198390D-17  0.44142384D-04 -0.29777855D-17  0.13245940D-17  0.68722929D-17
  0.48500812D-06 -0.46041938D-17  0.29612365D-17  0.57900032D-05  0.63041194D-18
 -0.23578115D-16 -0.72450276D-05  0.17822933D-16 -0.66379555D-05 -0.11971826D-04
 -0.17652451D-04  0.74017080D-04 -0.69929888D-04  0.52811669D-05  0.18841884D-04
 -0.24843608D-17  0.23930369D-04 -0.61737715D-04 -0.65056306D-17 -0.58097187D-04
  0.16069303D-05 -0.33012403D-16  0.11195728D-04  0.30061050D-05 -0.82357673D-05
  0.52296623D-05  0.22641478D-16  0.35262604D-04 -0.14654723D-16  0.53357258D-05
 -0.59333108D-05  0.59758500D-06 -0.58846628D-17  0.13352124D-04  0.98064661D-17
 -0.66379555D-05 -0.11971826D-04 -0.17652451D-04  0.74017080D-04 -0.69929888D-04
  0.52811669D-05 -0.18841884D-04  0.13796094D-16  0.23930369D-04  0.61737715D-04
 -0.24703082D-16 -0.58097187D-04 -0.16069303D-05  0.28520188D-17  0.11195728D-04
  0.30061050D-05 -0.82357673D-05  0.52296623D-05 -0.57656447D-16 -0.35262604D-04
 -0.11225886D-16  0.53357258D-05 -0.59333108D-05  0.59758500D-06  0.21381685D-16
 -0.13352124D-04  0.16397119D-16 -0.16312265D-04 -0.30409770D-04 -0.51397869D-04
 -0.77267832D-04 -0.94932460D-04 -0.80185638D-04 -0.30243073D-04  0.14967465D-06
  0.11774405D-04  0.22045401D-04  0.37534182D-04  0.58059672D-04  0.76462545D-04
  0.79449482D-04  0.50486579D-04 -0.33834932D-04 -0.33869180D-04  0.25262496D-03
 -0.15062207D-04 -0.90307805D-16 -0.84669308D-16 -0.60289591D-16  0.15432938D-04
  0.14469360D-04  0.10303047D-04 -0.20445003D-04 -0.19168490D-04 -0.13649107D-04
  0.34781548D-15  0.14099064D-04  0.17485840D-04  0.40783717D-15  0.31747563D-04
  0.22682343D-04 -0.63835425D-17 -0.74646617D-06 -0.68620063D-06  0.13962908D-04
 -0.15520338D-04  0.15574298D-05  0.72819808D-16 -0.93401919D-16  0.30138459D-04
 -0.23759924D-04  0.22470112D-04  0.12898123D-05 -0.90303004D-16 -0.33213783D-15
  0.37366679D-05 -0.38725709D-05  0.22232631D-06  0.36502446D-05 -0.72837733D-16
 -0.58485328D-16  0.33102314D-05  0.12055980D-16 -0.11375825D-05 -0.55665750D-05
 -0.99761799D-16  0.11302207D-04  0.23974369D-05  0.63593861D-16 -0.78894600D-05
  0.14302288D-04  0.49611195D-17 -0.22131238D-17  0.12367360D-05 -0.25625051D-05
 -0.27524834D-16 -0.71953199D-05 -0.15566676D-04  0.34164205D-16  0.34851120D-05
  0.23254192D-04 -0.24060273D-16  0.22968719D-05  0.41425031D-05  0.61081184D-05
 -0.48553585D-04 -0.68443169D-04 -0.25156101D-05  0.44051215D-05 -0.12022294D-04
  0.77102308D-05 -0.18817552D-04  0.12782907D-04 -0.69293608D-05 -0.10459681D-04
  0.15932289D-04 -0.83035970D-05 -0.74736790D-05  0.53208537D-05  0.21528253D-05
  0.11387298D-05 -0.70462997D-05  0.92224097D-06  0.16380039D-05 -0.30962702D-05
  0.14582663D-05  0.14744596D-06  0.39961205D-05  0.70996723D-05  0.25035222D-05
  0.45152055D-05  0.66576678D-05 -0.14269184D-03 -0.14583283D-03  0.19726783D-05
  0.18024484D-17 -0.16223541D-05  0.12730182D-04  0.73750020D-16  0.40585843D-04
  0.24188676D-04  0.79452305D-16  0.28442320D-04 -0.10543973D-05  0.58143375D-05
 -0.30390651D-05 -0.27752724D-05 -0.49088972D-16 -0.20717544D-16 -0.21494119D-04
  0.10010041D-05 -0.45626523D-06 -0.54473889D-06 -0.20608921D-16 -0.21558761D-16
  0.84152564D-05  0.22968719D-05  0.41425031D-05  0.61081184D-05 -0.48553585D-04
 -0.68443169D-04 -0.25156101D-05 -0.44051215D-05 -0.12022294D-04  0.77102308D-05
  0.18817552D-04  0.12782907D-04 -0.69293608D-05  0.10459681D-04  0.15932289D-04
 -0.83035970D-05 -0.74736790D-05  0.53208537D-05  0.21528253D-05 -0.11387298D-05
  0.70462997D-05  0.92224097D-06  0.16380039D-05 -0.30962702D-05  0.14582663D-05
 -0.14744596D-06 -0.39961205D-05  0.70996723D-05 -0.16312265D-04 -0.30409770D-04
 -0.51397869D-04 -0.77267832D-04 -0.94932460D-04 -0.80185638D-04 -0.30243073D-04
  0.14967465D-06  0.11774405D-04  0.22045401D-04  0.37534182D-04  0.58059672D-04
  0.76462545D-04  0.79449482D-04  0.50486579D-04 -0.33834932D-04 -0.33869180D-04
  0.25262496D-03 -0.15062207D-04  0.28459345D-16  0.26682445D-16  0.18999491D-16
 -0.15432938D-04 -0.14469360D-04 -0.10303047D-04 -0.20445003D-04 -0.19168490D-04
 -0.13649107D-04 -0.10654286D-15 -0.14099064D-04  0.17485840D-04 -0.19650936D-15
 -0.31747563D-04  0.22682343D-04  0.39028662D-17  0.74646617D-06 -0.68620063D-06
  0.13962908D-04 -0.15520338D-04  0.15574298D-05  0.96622461D-17  0.72063185D-17
 -0.30138459D-04 -0.23759924D-04  0.22470112D-04  0.12898123D-05 -0.16692489D-16
  0.13007910D-15 -0.37366679D-05 -0.38725709D-05  0.22232631D-06  0.36502446D-05
 -0.34820903D-16  0.36487429D-16 -0.33102314D-05 -0.62355633D-17  0.11375825D-05
 -0.55665750D-05  0.35038398D-16 -0.11302207D-04  0.23974369D-05 -0.16331708D-16
  0.78894600D-05  0.14302288D-04  0.32254480D-17  0.24348277D-17 -0.12367360D-05
 -0.25625051D-05  0.11870701D-16  0.71953199D-05 -0.15566676D-04 -0.19175184D-16
 -0.34851120D-05  0.23254192D-04 -0.97635400D-18  0.25035222D-05  0.45152055D-05
  0.66576678D-05 -0.14269184D-03 -0.14583283D-03  0.19726783D-05 -0.13627608D-16
  0.16223541D-05  0.12730182D-04 -0.77130798D-17 -0.40585843D-04  0.24188676D-04
 -0.33968366D-16 -0.28442320D-04 -0.10543973D-05  0.58143375D-05 -0.30390651D-05
 -0.27752724D-05 -0.19012628D-16  0.84660142D-17  0.21494119D-04  0.10010041D-05
 -0.45626523D-06 -0.54473889D-06  0.90729203D-18  0.55279749D-17 -0.84152564D-05
  0.22968719D-05  0.41425031D-05  0.61081184D-05 -0.48553585D-04 -0.68443169D-04
 -0.25156101D-05  0.44051215D-05  0.12022294D-04  0.77102308D-05 -0.18817552D-04
 -0.12782907D-04 -0.69293608D-05 -0.10459681D-04 -0.15932289D-04 -0.83035970D-05
 -0.74736790D-05  0.53208537D-05  0.21528253D-05 -0.11387298D-05 -0.70462997D-05
 -0.92224097D-06  0.16380039D-05 -0.30962702D-05  0.14582663D-05 -0.14744596D-06
  0.39961205D-05 -0.70996723D-05  0.22968719D-05  0.41425031D-05  0.61081184D-05
 -0.48553585D-04 -0.68443169D-04 -0.25156101D-05 -0.44051215D-05  0.12022294D-04
  0.77102308D-05  0.18817552D-04 -0.12782907D-04 -0.69293608D-05  0.10459681D-04
 -0.15932289D-04 -0.83035970D-05 -0.74736790D-05  0.53208537D-05  0.21528253D-05
  0.11387298D-05  0.70462997D-05 -0.92224097D-06  0.16380039D-05 -0.30962702D-05
  0.14582663D-05  0.14744596D-06 -0.39961205D-05 -0.70996723D-05
MO    2     MO 0.0        OCC NO =    2.0000000  ORB. ENERGY =  -49.617407
  0.76328936D-03  0.14252471D-02  0.24701069D-02  0.40455338D-02  0.63275278D-02
  0.94736852D-02  0.13430065D-01  0.17506948D-01  0.19648333D-01  0.16704476D-01
  0.83339318D-02  0.15494406D-02  0.36403453D-04  0.52773567D-05 -0.13986184D-05
  0.29054523D-06 -0.79753293D-07 -0.50439732D-08 -0.23558122D+00 -0.44135359D+00
 -0.76372294D+00 -0.12506451D+01 -0.19651137D+01 -0.29625753D+01 -0.42983567D+01
 -0.58615001D+01 -0.73143673D+01 -0.76319471D+01 -0.55270133D+01 -0.39046654D+00
  0.40028994D+01  0.28220435D+01  0.39956680D+00  0.36196303D-02  0.18172560D-02
  0.61780684D-04  0.29517288D-02  0.54475826D-02  0.94175439D-02  0.15436360D-01
  0.24266214D-01  0.36619529D-01  0.53270904D-01  0.73081089D-01  0.92386063D-01
  0.99151820D-01  0.75664373D-01  0.59052420D-02 -0.76327754D-01 -0.81110029D-01
  0.99412919D-03  0.36934969D-01  0.13361120D-01 -0.61678028D-04 -0.12407375D-02
 -0.26880863D-02 -0.45764425D-02 -0.74907204D-02 -0.11765990D-01 -0.17764710D-01
 -0.25841634D-01 -0.35496819D-01 -0.44927957D-01 -0.48444236D-01 -0.37183925D-01
 -0.30239792D-02  0.39478563D-01  0.44183218D-01 -0.13999256D-02 -0.26179529D-01
 -0.17890824D-01  0.70602536D-02 -0.29183507D-02 -0.48839598D-02 -0.52907640D-04
  0.23397727D-15  0.33501650D-15  0.44128643D-15  0.50524474D-15  0.46231236D-15
  0.29425637D-15  0.10161429D-15  0.11345808D-16  0.14364331D-18  0.26069073D-19
  0.20464757D-21 -0.66266184D-14 -0.94882143D-14 -0.12497952D-13 -0.14309356D-13
 -0.13093441D-13 -0.83338208D-14 -0.28778827D-14 -0.32133181D-15 -0.40682131D-17
 -0.73831871D-18 -0.57959533D-20 -0.17424882D-02 -0.24949529D-02 -0.32863721D-02
 -0.37626858D-02 -0.34429576D-02 -0.21914019D-02 -0.75674745D-03 -0.84495114D-04
 -0.10697482D-05 -0.19414301D-06 -0.15240624D-08 -0.47281440D-14 -0.68145151D-14
 -0.90510570D-14 -0.10666114D-13 -0.10184147D-13 -0.69543483D-14 -0.22027635D-14
  0.10383318D-14  0.10764093D-14  0.28319980D-15 -0.18791336D-18  0.12358218D-12
  0.17811484D-12  0.23657260D-12  0.27878625D-12  0.26618881D-12  0.18176974D-12
  0.57574876D-13 -0.27139467D-13 -0.28134718D-13 -0.74021534D-14  0.49115978D-17
  0.15592530D-01  0.22472990D-01  0.29848685D-01  0.35174838D-01  0.33585401D-01
  0.22934134D-01  0.72643000D-02 -0.34242233D-02 -0.35497954D-02 -0.93393970D-03
  0.61970293D-06  0.29286260D-14  0.41943374D-14  0.56094888D-14  0.65901345D-14
  0.63678308D-14  0.43410193D-14  0.13877766D-14 -0.82303898D-15 -0.79866706D-15
 -0.26989804D-15  0.10095820D-15 -0.98464739D-13 -0.14101983D-12 -0.18859931D-12
 -0.22157007D-12 -0.21409589D-12 -0.14595149D-12 -0.46659102D-13  0.27671788D-13
  0.26852368D-13  0.90743713D-14 -0.33943639D-14 -0.11229971D-01 -0.16083408D-01
 -0.21509880D-01 -0.25270218D-01 -0.24417782D-01 -0.16645867D-01 -0.53215024D-02
  0.31559863D-02  0.30625309D-02  0.10349382D-02 -0.38712952D-03 -0.31540149D-15
  0.38490496D-15  0.24425637D-03  0.41838733D-15 -0.58823222D-14  0.59546482D-03
 -0.60426008D-16 -0.17849706D-15  0.16257127D-04  0.15497241D-02  0.15588595D-02
  0.12457281D-02  0.76287378D-03  0.32005842D-03  0.87259571D-04  0.14276103D-04
 -0.33889700D-03 -0.34089474D-03 -0.27241849D-03 -0.16682688D-03 -0.69991062D-04
 -0.19082110D-04 -0.31219288D-05 -0.12108271D-02 -0.12179647D-02 -0.97330960D-03
 -0.59604690D-03 -0.25006736D-03 -0.68177461D-04 -0.11154174D-04  0.59782863D-14