 Molden2AIM, Version 4.0.0 (06/02/2016)           Time: Sat Jun 30 04:02:47 2018
GAUSSIAN             13 MOL ORBITALS    300 PRIMITIVES        4 NUCLEI
  C    1    (CENTRE  1)   0.00000000  0.00000000  1.30618815  CHARGE =  6.0
  C    2    (CENTRE  2)   0.00000000  0.00000000 -1.30618815  CHARGE =  6.0
  N    3    (CENTRE  3)   0.00000000  0.00000000  3.50045686  CHARGE =  7.0
  N    4    (CENTRE  4)   0.00000000  0.00000000 -3.50045686  CHARGE =  7.0
CENTRE ASSIGNMENTS    1  1  1  1  1  1  1  1  1  1  1  1  1  1  1  1  1  1  1  1
CENTRE ASSIGNMENTS    1  1  1  1  1  1  1  1  1  1  1  1  1  1  1  1  1  1  1  1
CENTRE ASSIGNMENTS    1  1  1  1  1  1  1  1  1  1  1  1  1  1  1  1  1  1  1  1
CENTRE ASSIGNMENTS    1  1  1  1  1  1  1  1  1  1  1  1  1  1  1  2  2  2  2  2
CENTRE ASSIGNMENTS    2  2  2  2  2  2  2  2  2  2  2  2  2  2  2  2  2  2  2  2
CENTRE ASSIGNMENTS    2  2  2  2  2  2  2  2  2  2  2  2  2  2  2  2  2  2  2  2
CENTRE ASSIGNMENTS    2  2  2  2  2  2  2  2  2  2  2  2  2  2  2  2  2  2  2  2
CENTRE ASSIGNMENTS    2  2  2  2  2  2  2  2  2  2  3  3  3  3  3  3  3  3  3  3
CENTRE ASSIGNMENTS    3  3  3  3  3  3  3  3  3  3  3  3  3  3  3  3  3  3  3  3
CENTRE ASSIGNMENTS    3  3  3  3  3  3  3  3  3  3  3  3  3  3  3  3  3  3  3  3
CENTRE ASSIGNMENTS    3  3  3  3  3  3  3  3  3  3  3  3  3  3  3  3  3  3  3  3
CENTRE ASSIGNMENTS    3  3  3  3  3  4  4  4  4  4  4  4  4  4  4  4  4  4  4  4
CENTRE ASSIGNMENTS    4  4  4  4  4  4  4  4  4  4  4  4  4  4  4  4  4  4  4  4
CENTRE ASSIGNMENTS    4  4  4  4  4  4  4  4  4  4  4  4  4  4  4  4  4  4  4  4
CENTRE ASSIGNMENTS    4  4  4  4  4  4  4  4  4  4  4  4  4  4  4  4  4  4  4  4
TYPE ASSIGNMENTS      1  1  1  1  1  1  1  1  1  1  1  1  1  1  1  1  1  1  1  2
TYPE ASSIGNMENTS      2  2  3  3  3  4  4  4  2  3  4  2  3  4  2  3  4  5  6  7
TYPE ASSIGNMENTS      8  9 10  5  6  7  8  9 10  5  6  7  8  9 10 11 12 13 17 14
TYPE ASSIGNMENTS     15 18 19 16 20 11 12 13 17 14 15 18 19 16 20  1  1  1  1  1
TYPE ASSIGNMENTS      1  1  1  1  1  1  1  1  1  1  1  1  1  1  2  2  2  3  3  3
TYPE ASSIGNMENTS      4  4  4  2  3  4  2  3  4  2  3  4  5  6  7  8  9 10  5  6
TYPE ASSIGNMENTS      7  8  9 10  5  6  7  8  9 10 11 12 13 17 14 15 18 19 16 20
TYPE ASSIGNMENTS     11 12 13 17 14 15 18 19 16 20  1  1  1  1  1  1  1  1  1  1
TYPE ASSIGNMENTS      1  1  1  1  1  1  1  1  1  2  2  2  3  3  3  4  4  4  2  3
TYPE ASSIGNMENTS      4  2  3  4  2  3  4  5  6  7  8  9 10  5  6  7  8  9 10  5
TYPE ASSIGNMENTS      6  7  8  9 10 11 12 13 17 14 15 18 19 16 20 11 12 13 17 14
TYPE ASSIGNMENTS     15 18 19 16 20  1  1  1  1  1  1  1  1  1  1  1  1  1  1  1
TYPE ASSIGNMENTS      1  1  1  1  2  2  2  3  3  3  4  4  4  2  3  4  2  3  4  2
TYPE ASSIGNMENTS      3  4  5  6  7  8  9 10  5  6  7  8  9 10  5  6  7  8  9 10
TYPE ASSIGNMENTS     11 12 13 17 14 15 18 19 16 20 11 12 13 17 14 15 18 19 16 20
EXPONENTS  0.8236000D+04 0.1235000D+04 0.2808000D+03 0.7927000D+02 0.2559000D+02
EXPONENTS  0.8997000D+01 0.3319000D+01 0.3643000D+00 0.8236000D+04 0.1235000D+04
EXPONENTS  0.2808000D+03 0.7927000D+02 0.2559000D+02 0.8997000D+01 0.3319000D+01
EXPONENTS  0.3643000D+00 0.9059000D+00 0.1285000D+00 0.4402000D-01 0.1871000D+02
EXPONENTS  0.4133000D+01 0.1200000D+01 0.1871000D+02 0.4133000D+01 0.1200000D+01
EXPONENTS  0.1871000D+02 0.4133000D+01 0.1200000D+01 0.3827000D+00 0.3827000D+00
EXPONENTS  0.3827000D+00 0.1209000D+00 0.1209000D+00 0.1209000D+00 0.3569000D-01
EXPONENTS  0.3569000D-01 0.3569000D-01 0.1097000D+01 0.1097000D+01 0.1097000D+01
EXPONENTS  0.1097000D+01 0.1097000D+01 0.1097000D+01 0.3180000D+00 0.3180000D+00
EXPONENTS  0.3180000D+00 0.3180000D+00 0.3180000D+00 0.3180000D+00 0.1000000D+00
EXPONENTS  0.1000000D+00 0.1000000D+00 0.1000000D+00 0.1000000D+00 0.1000000D+00
EXPONENTS  0.7610000D+00 0.7610000D+00 0.7610000D+00 0.7610000D+00 0.7610000D+00
EXPONENTS  0.7610000D+00 0.7610000D+00 0.7610000D+00 0.7610000D+00 0.7610000D+00
EXPONENTS  0.2680000D+00 0.2680000D+00 0.2680000D+00 0.2680000D+00 0.2680000D+00
EXPONENTS  0.2680000D+00 0.2680000D+00 0.2680000D+00 0.2680000D+00 0.2680000D+00
EXPONENTS  0.8236000D+04 0.1235000D+04 0.2808000D+03 0.7927000D+02 0.2559000D+02
EXPONENTS  0.8997000D+01 0.3319000D+01 0.3643000D+00 0.8236000D+04 0.1235000D+04
EXPONENTS  0.2808000D+03 0.7927000D+02 0.2559000D+02 0.8997000D+01 0.3319000D+01
EXPONENTS  0.3643000D+00 0.9059000D+00 0.1285000D+00 0.4402000D-01 0.1871000D+02
EXPONENTS  0.4133000D+01 0.1200000D+01 0.1871000D+02 0.4133000D+01 0.1200000D+01
EXPONENTS  0.1871000D+02 0.4133000D+01 0.1200000D+01 0.3827000D+00 0.3827000D+00
EXPONENTS  0.3827000D+00 0.1209000D+00 0.1209000D+00 0.1209000D+00 0.3569000D-01
EXPONENTS  0.3569000D-01 0.3569000D-01 0.1097000D+01 0.1097000D+01 0.1097000D+01
EXPONENTS  0.1097000D+01 0.1097000D+01 0.1097000D+01 0.3180000D+00 0.3180000D+00
EXPONENTS  0.3180000D+00 0.3180000D+00 0.3180000D+00 0.3180000D+00 0.1000000D+00
EXPONENTS  0.1000000D+00 0.1000000D+00 0.1000000D+00 0.1000000D+00 0.1000000D+00
EXPONENTS  0.7610000D+00 0.7610000D+00 0.7610000D+00 0.7610000D+00 0.7610000D+00
EXPONENTS  0.7610000D+00 0.7610000D+00 0.7610000D+00 0.7610000D+00 0.7610000D+00
EXPONENTS  0.2680000D+00 0.2680000D+00 0.2680000D+00 0.2680000D+00 0.2680000D+00
EXPONENTS  0.2680000D+00 0.2680000D+00 0.2680000D+00 0.2680000D+00 0.2680000D+00
EXPONENTS  0.1142000D+05 0.1712000D+04 0.3893000D+03 0.1100000D+03 0.3557000D+02
EXPONENTS  0.1254000D+02 0.4644000D+01 0.5118000D+00 0.1142000D+05 0.1712000D+04
EXPONENTS  0.3893000D+03 0.1100000D+03 0.3557000D+02 0.1254000D+02 0.4644000D+01
EXPONENTS  0.5118000D+00 0.1293000D+01 0.1787000D+00 0.5760000D-01 0.2663000D+02
EXPONENTS  0.5948000D+01 0.1742000D+01 0.2663000D+02 0.5948000D+01 0.1742000D+01
EXPONENTS  0.2663000D+02 0.5948000D+01 0.1742000D+01 0.5550000D+00 0.5550000D+00
EXPONENTS  0.5550000D+00 0.1725000D+00 0.1725000D+00 0.1725000D+00 0.4910000D-01
EXPONENTS  0.4910000D-01 0.4910000D-01 0.1654000D+01 0.1654000D+01 0.1654000D+01
EXPONENTS  0.1654000D+01 0.1654000D+01 0.1654000D+01 0.4690000D+00 0.4690000D+00
EXPONENTS  0.4690000D+00 0.4690000D+00 0.4690000D+00 0.4690000D+00 0.1510000D+00
EXPONENTS  0.1510000D+00 0.1510000D+00 0.1510000D+00 0.1510000D+00 0.1510000D+00
EXPONENTS  0.1093000D+01 0.1093000D+01 0.1093000D+01 0.1093000D+01 0.1093000D+01
EXPONENTS  0.1093000D+01 0.1093000D+01 0.1093000D+01 0.1093000D+01 0.1093000D+01
EXPONENTS  0.3640000D+00 0.3640000D+00 0.3640000D+00 0.3640000D+00 0.3640000D+00
EXPONENTS  0.3640000D+00 0.3640000D+00 0.3640000D+00 0.3640000D+00 0.3640000D+00
EXPONENTS  0.1142000D+05 0.1712000D+04 0.3893000D+03 0.1100000D+03 0.3557000D+02
EXPONENTS  0.1254000D+02 0.4644000D+01 0.5118000D+00 0.1142000D+05 0.1712000D+04
EXPONENTS  0.3893000D+03 0.1100000D+03 0.3557000D+02 0.1254000D+02 0.4644000D+01
EXPONENTS  0.5118000D+00 0.1293000D+01 0.1787000D+00 0.5760000D-01 0.2663000D+02
EXPONENTS  0.5948000D+01 0.1742000D+01 0.2663000D+02 0.5948000D+01 0.1742000D+01
EXPONENTS  0.2663000D+02 0.5948000D+01 0.1742000D+01 0.5550000D+00 0.5550000D+00
EXPONENTS  0.5550000D+00 0.1725000D+00 0.1725000D+00 0.1725000D+00 0.4910000D-01
EXPONENTS  0.4910000D-01 0.4910000D-01 0.1654000D+01 0.1654000D+01 0.1654000D+01
EXPONENTS  0.1654000D+01 0.1654000D+01 0.1654000D+01 0.4690000D+00 0.4690000D+00
EXPONENTS  0.4690000D+00 0.4690000D+00 0.4690000D+00 0.4690000D+00 0.1510000D+00
EXPONENTS  0.1510000D+00 0.1510000D+00 0.1510000D+00 0.1510000D+00 0.1510000D+00
EXPONENTS  0.1093000D+01 0.1093000D+01 0.1093000D+01 0.1093000D+01 0.1093000D+01
EXPONENTS  0.1093000D+01 0.1093000D+01 0.1093000D+01 0.1093000D+01 0.1093000D+01
EXPONENTS  0.3640000D+00 0.3640000D+00 0.3640000D+00 0.3640000D+00 0.3640000D+00
EXPONENTS  0.3640000D+00 0.3640000D+00 0.3640000D+00 0.3640000D+00 0.3640000D+00
MO    1     MO 0.0        OCC NO =    2.0000000  ORB. ENERGY =  -14.229187
  0.39315682D-03  0.73293370D-03  0.12387871D-02  0.18623027D-02  0.22880541D-02
  0.19326275D-02  0.72891597D-03 -0.36074458D-05 -0.27850327D-03 -0.52144600D-03
 -0.88780644D-03 -0.13733016D-02 -0.18085898D-02 -0.18792407D-02 -0.11941731D-02
  0.80030704D-03  0.11518681D-02 -0.46153389D-02 -0.60407534D-02 -0.83894059D-16
 -0.78656013D-16 -0.56007767D-16 -0.76810468D-16 -0.72014696D-16 -0.51278754D-16
  0.31302083D-02  0.29347693D-02  0.20897306D-02 -0.15836172D-16 -0.30072896D-16
 -0.11704168D-01  0.39868468D-17  0.17610978D-16 -0.32818679D-02 -0.21011780D-19
 -0.33778375D-17  0.20876321D-03  0.21574827D-03  0.21574827D-03 -0.43149653D-03
  0.12989477D-17 -0.79900981D-18 -0.83795544D-18  0.59407384D-03  0.59407384D-03
 -0.11881477D-02 -0.49501023D-18 -0.23521729D-17 -0.34904702D-17  0.12242570D-03
  0.12242570D-03 -0.24485140D-03  0.20645791D-19 -0.13865998D-18 -0.17670622D-18
 -0.43611268D-19  0.86661969D-18 -0.31371551D-02 -0.74573441D-19  0.79465697D-18
  0.47057327D-02  0.20540724D-18 -0.33945160D-17  0.47057327D-02 -0.32928930D-18
 -0.42769063D-18 -0.54843624D-18 -0.47681980D-03 -0.42681456D-18 -0.54903419D-18
  0.71522970D-03  0.17098865D-17  0.21943429D-17  0.71522970D-03  0.40923908D-18
 -0.39315682D-03 -0.73293371D-03 -0.12387871D-02 -0.18623028D-02 -0.22880541D-02
 -0.19326275D-02 -0.72891598D-03  0.36074458D-05  0.27850328D-03  0.52144601D-03
  0.88780645D-03  0.13733016D-02  0.18085899D-02  0.18792407D-02  0.11941731D-02
 -0.80030705D-03 -0.11518681D-02  0.46153389D-02  0.60407534D-02  0.21581574D-17
  0.20234098D-17  0.14407883D-17  0.99690442D-18  0.93466126D-18  0.66553450D-18
  0.31302083D-02  0.29347693D-02  0.20897305D-02 -0.45091007D-17  0.54118288D-18
 -0.11704168D-01 -0.13404740D-17 -0.11896840D-20 -0.32818679D-02 -0.25038254D-20
 -0.86985600D-19  0.20876321D-03 -0.21574826D-03 -0.21574826D-03  0.43149651D-03
 -0.11173944D-18  0.29215649D-17 -0.38836608D-17 -0.59407383D-03 -0.59407383D-03
  0.11881477D-02 -0.83245456D-19 -0.26015354D-17 -0.88387683D-17 -0.12242570D-03
 -0.12242570D-03  0.24485140D-03 -0.23099259D-19  0.71137883D-20 -0.58490603D-18
  0.47004012D-18 -0.84533356D-18 -0.31371551D-02  0.48195175D-18 -0.81219089D-18
  0.47057327D-02 -0.18920721D-17  0.33481916D-17  0.47057327D-02 -0.77413627D-18
  0.70205666D-19 -0.12959295D-18 -0.47681980D-03  0.68715623D-19 -0.13289883D-18
  0.71522970D-03 -0.27933262D-18  0.52167768D-18  0.71522970D-03  0.66578612D-18
  0.29329496D+00  0.54651197D+00  0.92428875D+00  0.13919276D+01  0.17232967D+01
  0.14664477D+01  0.55801041D+00 -0.26134008D-02 -0.22444774D-02 -0.42084160D-02
 -0.71597678D-02 -0.11118363D-01 -0.14754715D-01 -0.15549444D-01 -0.96416474D-02
  0.64136276D-02  0.30058506D-01  0.86258576D-02  0.31020306D-02  0.96985419D-18
  0.93153336D-18  0.65325549D-18  0.45068745D-17  0.43287991D-17  0.30356527D-17
 -0.38880649D-02 -0.37344398D-02 -0.26188470D-02 -0.22078356D-17 -0.23110766D-17
 -0.75994383D-02 -0.37487443D-18 -0.10443664D-17 -0.12275107D-02 -0.59855325D-20
 -0.14437746D-18 -0.25624099D-03 -0.28014916D-02 -0.28014916D-02  0.56029833D-02
  0.47322285D-17  0.11365871D-17  0.23279463D-17 -0.55517745D-03 -0.55517745D-03
  0.11103549D-02 -0.39596399D-18 -0.99136505D-18 -0.29625376D-17  0.30497964D-04
  0.30497964D-04 -0.60995928D-04 -0.51985498D-19 -0.45711201D-19  0.57138843D-18
  0.40896544D-18 -0.74240629D-18 -0.82545701D-03 -0.53613977D-19 -0.11501021D-17
  0.12381855D-02 -0.11732823D-17  0.33773210D-17  0.12381855D-02 -0.73614708D-18
 -0.29914629D-18 -0.12770892D-18 -0.38111126D-05 -0.27956895D-18 -0.10979587D-18
  0.57166689D-05  0.11770078D-17  0.49292263D-18  0.57166689D-05  0.18197067D-18
 -0.29329496D+00 -0.54651196D+00 -0.92428874D+00 -0.13919276D+01 -0.17232967D+01
 -0.14664477D+01 -0.55801041D+00  0.26134008D-02  0.22444774D-02  0.42084160D-02
  0.71597678D-02  0.11118363D-01  0.14754715D-01  0.15549444D-01  0.96416474D-02
 -0.64136275D-02 -0.30058506D-01 -0.86258576D-02 -0.31020306D-02 -0.36862238D-17
 -0.35405739D-17 -0.24828948D-17  0.24267629D-16  0.23308768D-16  0.16345717D-16
 -0.38880648D-02 -0.37344398D-02 -0.26188470D-02  0.10908545D-17 -0.71649560D-17
 -0.75994383D-02  0.55172161D-18 -0.33490580D-17 -0.12275107D-02  0.52965384D-19
 -0.74336793D-19 -0.25624099D-03  0.28014916D-02  0.28014916D-02 -0.56029832D-02
 -0.42611138D-17  0.46596144D-18  0.56169739D-17  0.55517745D-03  0.55517745D-03
 -0.11103549D-02  0.77967491D-18  0.83457393D-18 -0.77037639D-17 -0.30497963D-04
 -0.30497963D-04  0.60995927D-04  0.12705148D-18  0.12123205D-18 -0.60227950D-18
  0.11142773D-18  0.69637592D-18 -0.82545700D-03 -0.17034037D-18  0.55689103D-18
  0.12381855D-02 -0.16394281D-18 -0.26460188D-17  0.12381855D-02 -0.23037805D-17
 -0.12024079D-18  0.34506935D-18 -0.38111136D-05 -0.10932191D-18  0.35265303D-18
  0.57166704D-05  0.47004428D-18 -0.13878611D-17  0.57166704D-05  0.59388949D-18
MO    2     MO 0.0        OCC NO =    2.0000000  ORB. ENERGY =  -14.229157
 -0.42449936D-03 -0.79136332D-03 -0.13375434D-02 -0.20107659D-02 -0.24704582D-02
 -0.20866969D-02 -0.78702529D-03  0.38950321D-05  0.32281402D-03  0.60440969D-03
  0.10290592D-02  0.15917981D-02  0.20963422D-02  0.21782338D-02  0.13841698D-02
 -0.92763840D-03  0.10877693D-02 -0.20625733D-02 -0.12833346D-03  0.39269337D-17
  0.36817500D-17  0.26216253D-17  0.17742910D-15  0.16635106D-15  0.11845187D-15
  0.21521202D-02  0.20177495D-02  0.14367578D-02 -0.15661799D-17  0.39081095D-16
 -0.39996253D-02  0.17401414D-17 -0.28759679D-16 -0.94737275D-03 -0.69602302D-18
  0.48403319D-17 -0.41192360D-04  0.14120161D-02  0.14120161D-02 -0.28240323D-02
  0.45165085D-16  0.32716675D-18 -0.66418740D-17  0.73287109D-03  0.73287109D-03
 -0.14657422D-02  0.49495110D-18 -0.26962493D-17 -0.39968069D-17  0.29773642D-04
  0.29773642D-04 -0.59547285D-04 -0.22866665D-19 -0.42820698D-18 -0.24800060D-18
  0.83067780D-19  0.46266222D-18 -0.13352524D-02  0.80698354D-19  0.46796375D-18
  0.20028786D-02 -0.32990169D-18 -0.18559504D-17  0.20028786D-02 -0.30215271D-19
 -0.32100520D-18  0.69746321D-18 -0.89304577D-04 -0.32236231D-18  0.69298885D-18
  0.13395687D-03  0.12853779D-17 -0.27853785D-17  0.13395687D-03 -0.32050987D-18
 -0.42449935D-03 -0.79136331D-03 -0.13375434D-02 -0.20107659D-02 -0.24704582D-02
 -0.20866969D-02 -0.78702529D-03  0.38950321D-05  0.32281402D-03  0.60440969D-03
  0.10290592D-02  0.15917981D-02  0.20963421D-02  0.21782338D-02  0.13841698D-02
 -0.92763839D-03  0.10877693D-02 -0.20625734D-02 -0.12833350D-03  0.50227997D-18
  0.47091940D-18  0.33532267D-18 -0.20004093D-17 -0.18755108D-17 -0.13354754D-17
 -0.21521202D-02 -0.20177495D-02 -0.14367578D-02 -0.17016524D-17  0.20773352D-17
  0.39996253D-02 -0.14434233D-17  0.15381590D-17  0.94737278D-03 -0.99406036D-20
  0.28233839D-18  0.41192358D-04  0.14120161D-02  0.14120161D-02 -0.28240323D-02
  0.43659628D-19  0.87577795D-18  0.25849858D-17  0.73287109D-03  0.73287109D-03
 -0.14657422D-02  0.11750927D-18 -0.30266729D-17  0.46554475D-17  0.29773643D-04
  0.29773643D-04 -0.59547287D-04  0.24165423D-19 -0.35848377D-18  0.68290587D-18
 -0.16232003D-19  0.40889472D-18  0.13352524D-02 -0.33103121D-19  0.44415856D-18
 -0.20028786D-02  0.81799131D-19 -0.16708427D-17 -0.20028786D-02  0.66101839D-18
  0.39319092D-19  0.95643583D-19  0.89304581D-04  0.42440299D-19  0.95046415D-19
 -0.13395687D-03 -0.16039757D-18 -0.38197716D-18 -0.13395687D-03 -0.61048553D-18
  0.29219408D+00  0.54446065D+00  0.92081945D+00  0.13867031D+01  0.17168284D+01
  0.14609434D+01  0.55591593D+00 -0.26035915D-02 -0.14543710D-02 -0.27269591D-02
 -0.46393689D-02 -0.72044500D-02 -0.95607242D-02 -0.10075691D-01 -0.62475711D-02
  0.41558867D-02  0.29365402D-01  0.30520276D-02  0.16222809D-03 -0.10816511D-20
 -0.10389129D-20 -0.72855746D-21 -0.43969977D-17 -0.42232638D-17 -0.29616441D-17
 -0.36133271D-02 -0.34705575D-02 -0.24337945D-02 -0.14536714D-17  0.64802037D-17
 -0.44805810D-02  0.68862158D-18  0.68970105D-17 -0.47191102D-05  0.12990710D-18
  0.58854262D-18  0.38502463D-04 -0.24690856D-02 -0.24690856D-02  0.49381713D-02
  0.29806899D-17  0.90782000D-18  0.29812559D-17 -0.15384466D-03 -0.15384466D-03
  0.30768932D-03  0.76767608D-19 -0.97543523D-18 -0.56884588D-17  0.69125920D-04
  0.69125920D-04 -0.13825184D-03  0.53111797D-19 -0.43513128D-18 -0.24369725D-17
  0.33565798D-18  0.89631400D-18 -0.10463754D-02 -0.13918936D-18  0.41639883D-18
  0.15695631D-02 -0.86778458D-18 -0.31053408D-17  0.15695631D-02 -0.76765868D-19
 -0.34054591D-18 -0.47874358D-18  0.12699702D-03 -0.32140568D-18 -0.45874835D-18
 -0.19049553D-03  0.13430434D-17  0.18949791D-17 -0.19049553D-03 -0.13477287D-18
  0.29219408D+00  0.54446065D+00  0.92081946D+00  0.13867031D+01  0.17168284D+01
  0.14609435D+01  0.55591594D+00 -0.26035915D-02 -0.14543710D-02 -0.27269592D-02
 -0.46393689D-02 -0.72044501D-02 -0.95607243D-02 -0.10075691D-01 -0.62475712D-02
  0.41558868D-02  0.29365402D-01  0.30520277D-02  0.16222811D-03  0.25501361D-17
  0.24493752D-17  0.17176710D-17 -0.24134438D-16 -0.23180839D-16 -0.16256005D-16
  0.36133272D-02  0.34705576D-02  0.24337945D-02 -0.75771558D-18  0.55885823D-17
  0.44805810D-02 -0.49251237D-18  0.87646497D-18  0.47191199D-05 -0.10977233D-19
 -0.39363614D-19 -0.38502461D-04 -0.24690857D-02 -0.24690857D-02  0.49381713D-02
  0.42342338D-17  0.12777431D-17 -0.10909033D-17 -0.15384466D-03 -0.15384466D-03
  0.30768933D-03 -0.74694401D-18 -0.10266936D-17  0.31720094D-17  0.69125920D-04
  0.69125920D-04 -0.13825184D-03 -0.12039513D-18 -0.11367370D-18  0.18104756D-19
  0.19347476D-18 -0.72609847D-18  0.10463754D-02  0.53390537D-18 -0.66364672D-18
 -0.15695631D-02 -0.11143296D-17  0.28419421D-17 -0.15695631D-02  0.22405048D-17
  0.24150880D-19 -0.45903436D-19 -0.12699702D-03  0.95723756D-20 -0.46806918D-19
  0.19049553D-03 -0.82025014D-19  0.18451722D-18  0.19049553D-03 -0.57224717D-18
MO    3     MO 0.0        OCC NO =    2.0000000  ORB. ENERGY =  -10.149114
  0.23372313D+00  0.43571305D+00  0.73643181D+00  0.11070982D+01  0.13601981D+01
  0.11489047D+01  0.43332459D+00 -0.21445476D-02 -0.25720399D-02 -0.48156702D-02
 -0.81990905D-02 -0.12682746D-01 -0.16702731D-01 -0.17355207D-01 -0.11028455D-01
  0.73910141D-02  0.25568693D-01  0.27899252D-02  0.24640029D-03 -0.17433291D-15
 -0.16344818D-15 -0.11638484D-15 -0.11591252D-15 -0.10867536D-15 -0.77383329D-16
 -0.22021973D-02 -0.20647000D-02 -0.14701894D-02  0.69369521D-16  0.22173879D-16
  0.36644259D-02 -0.11736607D-16  0.10813055D-17  0.13308326D-02 -0.33180381D-18
  0.12154812D-18 -0.46195679D-04 -0.33737129D-02 -0.33737129D-02  0.67474258D-02
  0.49096065D-17 -0.12196794D-17  0.21940749D-17  0.38321129D-03  0.38321129D-03
 -0.76642258D-03  0.18702148D-19  0.99530207D-18  0.18700047D-17  0.50714929D-04
  0.50714929D-04 -0.10142986D-03 -0.26867066D-20 -0.35093433D-19 -0.52067526D-18
  0.10433540D-17  0.39648428D-18  0.14593717D-02  0.27228454D-18  0.18383801D-17
 -0.21890576D-02 -0.34023465D-17 -0.30278329D-17 -0.21890576D-02  0.77761146D-18
  0.22358682D-18 -0.13004379D-19  0.21246305D-03  0.24285378D-18 -0.73990371D-19
 -0.31869458D-03 -0.91361424D-18  0.11300351D-18 -0.31869458D-03 -0.11257911D-18
  0.23372313D+00  0.43571305D+00  0.73643181D+00  0.11070982D+01  0.13601981D+01
  0.11489047D+01  0.43332459D+00 -0.21445476D-02 -0.25720399D-02 -0.48156702D-02
 -0.81990905D-02 -0.12682746D-01 -0.16702731D-01 -0.17355207D-01 -0.11028455D-01
  0.73910141D-02  0.25568693D-01  0.27899252D-02  0.24640031D-03 -0.58930827D-19
 -0.55251396D-19 -0.39342286D-19 -0.13031108D-17 -0.12217492D-17 -0.86995822D-18
  0.22021973D-02  0.20647000D-02  0.14701894D-02  0.17524994D-17  0.37517984D-17
 -0.36644259D-02  0.84138187D-18 -0.53691901D-18 -0.13308326D-02  0.17921977D-18
 -0.12920219D-18  0.46195680D-04 -0.33737129D-02 -0.33737129D-02  0.67474258D-02
  0.30081854D-17  0.18333972D-17 -0.27354525D-18  0.38321129D-03  0.38321129D-03
 -0.76642258D-03 -0.16985652D-18  0.41268484D-17  0.21648201D-17  0.50714929D-04
  0.50714929D-04 -0.10142986D-03  0.37942822D-20  0.75076426D-18 -0.52440493D-18
 -0.10380936D-18  0.16882212D-18 -0.14593717D-02 -0.77150304D-18 -0.17449002D-17
  0.21890576D-02  0.10829311D-17  0.12384338D-17  0.21890576D-02  0.17745003D-18
 -0.20182440D-19 -0.30330711D-18 -0.21246305D-03 -0.18564181D-19 -0.24178212D-18
  0.31869458D-03  0.79111501D-19  0.11517035D-17  0.31869458D-03 -0.44417635D-19
 -0.74382437D-03 -0.13860072D-02 -0.23440856D-02 -0.35300631D-02 -0.43704471D-02
 -0.37190532D-02 -0.14151684D-02  0.66278371D-05  0.43104935D-03  0.80822156D-03
  0.13750253D-02  0.21352692D-02  0.28336264D-02  0.29862532D-02  0.18516675D-02
 -0.12317299D-02  0.51585362D-03 -0.39282368D-02 -0.89505289D-03 -0.10759703D-18
 -0.10334566D-18 -0.72473111D-19  0.38858739D-17  0.37323354D-17  0.26173712D-17
 -0.13307541D-02 -0.12781734D-02 -0.89634341D-03  0.21605032D-17  0.15034759D-18
  0.40229429D-02  0.25446899D-17  0.98906526D-18  0.21283230D-02  0.39382814D-18
  0.88009053D-19  0.15176827D-03  0.60320456D-03  0.60320456D-03 -0.12064091D-02
 -0.79859820D-19 -0.45599483D-17 -0.55695206D-17  0.11911360D-02  0.11911360D-02
 -0.23822719D-02 -0.59646327D-19 -0.98454257D-18  0.11943939D-17  0.10944971D-03
  0.10944971D-03 -0.21889942D-03  0.19432764D-19 -0.11019339D-17 -0.66522869D-18
  0.14379824D-18  0.72782648D-19  0.94895677D-03  0.26072859D-18 -0.16861701D-18
 -0.14234352D-02 -0.69212330D-18 -0.49730931D-19 -0.14234352D-02  0.10952729D-17
 -0.31948281D-18 -0.27400806D-18  0.37917635D-03 -0.31905465D-18 -0.25916989D-18
 -0.56876452D-03  0.12775031D-17  0.10811941D-17 -0.56876452D-03  0.13003856D-19
 -0.74382437D-03 -0.13860072D-02 -0.23440856D-02 -0.35300631D-02 -0.43704471D-02
 -0.37190532D-02 -0.14151684D-02  0.66278371D-05  0.43104935D-03  0.80822156D-03
  0.13750253D-02  0.21352692D-02  0.28336264D-02  0.29862532D-02  0.18516675D-02
 -0.12317299D-02  0.51585362D-03 -0.39282368D-02 -0.89505290D-03 -0.85243025D-18
 -0.81874906D-18 -0.57416336D-18  0.48994072D-18  0.47058221D-18  0.33000473D-18
  0.13307541D-02  0.12781734D-02  0.89634341D-03  0.56318873D-18 -0.67595299D-18
 -0.40229429D-02  0.17704881D-17 -0.11211635D-17 -0.21283230D-02  0.27689411D-19
 -0.55045629D-19 -0.15176827D-03  0.60320456D-03  0.60320456D-03 -0.12064091D-02
  0.19246279D-19 -0.27086981D-17 -0.15160985D-17  0.11911360D-02  0.11911360D-02
 -0.23822719D-02 -0.30005879D-19  0.22635800D-17 -0.77976469D-18  0.10944971D-03
  0.10944971D-03 -0.21889942D-03  0.28746340D-21  0.37199870D-19 -0.31635922D-18
 -0.30766510D-19 -0.61519882D-19 -0.94895677D-03  0.48462624D-19  0.20382057D-18
  0.14234352D-02  0.43836906D-19 -0.19260926D-19  0.14234352D-02 -0.37197109D-18
 -0.21341403D-19  0.35032802D-19 -0.37917635D-03 -0.11041563D-19  0.32068165D-19
  0.56876452D-03  0.75065773D-19 -0.13716657D-18  0.56876452D-03  0.61282874D-20
MO    4     MO 0.0        OCC NO =    2.0000000  ORB. ENERGY =  -10.148591
  0.23323300D+00  0.43479934D+00  0.73488747D+00  0.11047766D+01  0.13573457D+01
  0.11464954D+01  0.43241589D+00 -0.21400504D-02 -0.21562637D-02 -0.40372060D-02
 -0.68736887D-02 -0.10632551D-01 -0.14002696D-01 -0.14549698D-01 -0.92456799D-02
  0.61962397D-02  0.24256045D-01  0.13811968D-01  0.36888707D-02  0.69599870D-16
  0.65254302D-16  0.46464950D-16  0.83679192D-16  0.78454562D-16  0.55864322D-16
  0.18825752D-03  0.17650339D-03  0.12568093D-03 -0.38517430D-16 -0.20050671D-16
  0.57610549D-02  0.80067429D-17  0.13874552D-17 -0.43852596D-02  0.30745655D-18
 -0.23241397D-18 -0.15736467D-03 -0.24196286D-02 -0.24196286D-02  0.48392572D-02
  0.51236507D-17  0.47455853D-17  0.43636862D-17 -0.97152404D-04 -0.97152404D-04
  0.19430481D-03 -0.43098291D-19 -0.86875901D-18 -0.48371064D-17 -0.26328687D-05
 -0.26328687D-05  0.52657375D-05  0.14642459D-20  0.15727793D-18 -0.69557976D-19
 -0.64280167D-18 -0.13354188D-17  0.67363241D-03 -0.14214896D-17 -0.32290203D-19
 -0.10104486D-02  0.33498946D-17  0.40385467D-17 -0.10104486D-02  0.40271908D-18
 -0.32883177D-18 -0.17941958D-18 -0.38347822D-03 -0.30790344D-18 -0.20832812D-18
  0.57521732D-03  0.12943987D-17  0.74658686D-18  0.57521732D-03 -0.41457330D-20
 -0.23323300D+00 -0.43479934D+00 -0.73488747D+00 -0.11047766D+01 -0.13573457D+01
 -0.11464954D+01 -0.43241589D+00  0.21400504D-02  0.21562637D-02  0.40372060D-02
  0.68736887D-02  0.10632551D-01  0.14002696D-01  0.14549698D-01  0.92456799D-02
 -0.61962397D-02 -0.24256045D-01 -0.13811968D-01 -0.36888707D-02  0.20461841D-18
  0.19184277D-18  0.13660348D-18  0.26031054D-17  0.24405768D-17  0.17378360D-17
  0.18825752D-03  0.17650339D-03  0.12568093D-03 -0.18886199D-17 -0.57452606D-17
  0.57610549D-02 -0.45240333D-18 -0.20847921D-17 -0.43852596D-02 -0.14383113D-18
  0.23144536D-18 -0.15736467D-03  0.24196286D-02  0.24196286D-02 -0.48392572D-02
 -0.30481762D-17 -0.15987026D-17  0.30489368D-18  0.97152404D-04  0.97152404D-04
 -0.19430481D-03  0.12488057D-18 -0.51816941D-17 -0.51269866D-17  0.26328687D-05
  0.26328687D-05 -0.52657375D-05 -0.51536259D-20 -0.79895103D-18 -0.11694848D-19
 -0.18761237D-19 -0.11042980D-18  0.67363241D-03  0.74635222D-18  0.17030741D-17
 -0.10104486D-02 -0.69006851D-18 -0.13717847D-17 -0.10104486D-02 -0.58575475D-18
  0.60568345D-20  0.45802989D-18 -0.38347822D-03 -0.51757121D-20  0.41811138D-18
  0.57521732D-03 -0.12994791D-19 -0.17922011D-17  0.57521732D-03  0.29390429D-19
  0.14770196D-03  0.27522085D-03  0.46546746D-03  0.70096820D-03  0.86784411D-03
  0.73849617D-03  0.28101142D-03 -0.13160963D-05 -0.21389707D-03 -0.40105901D-03
 -0.68232071D-03 -0.10595720D-02 -0.14061137D-02 -0.14818508D-02 -0.91884204D-03
  0.61121408D-03  0.12117493D-02 -0.33426625D-02 -0.18373453D-02  0.66062687D-18
  0.63452421D-18  0.44497218D-18 -0.30035119D-17 -0.28848373D-17 -0.20230470D-17
 -0.24861448D-02 -0.23879124D-02 -0.16745690D-02 -0.29060517D-17 -0.13089129D-17
  0.43548949D-02 -0.32456023D-17 -0.94036708D-18  0.41176509D-02 -0.39860906D-18
  0.69548754D-19  0.23487584D-03  0.19087566D-03  0.19087566D-03 -0.38175131D-03
  0.14595572D-18  0.37734431D-17  0.76514318D-17  0.12709970D-02  0.12709970D-02
 -0.25419941D-02 -0.13909950D-18  0.20626643D-17 -0.12039435D-17  0.25356174D-03
  0.25356174D-03 -0.50712348D-03  0.65250533D-20  0.11707480D-17  0.74233746D-18
  0.36382286D-19  0.25516515D-18  0.68149837D-03  0.14422440D-18  0.17912294D-18
 -0.10222476D-02 -0.25337126D-18 -0.94461840D-18 -0.10222476D-02  0.98079427D-18
  0.33511083D-18  0.25487845D-18  0.21633994D-03  0.33711088D-18  0.24297679D-18
 -0.32450991D-03 -0.13424434D-17 -0.10076122D-17 -0.32450991D-03  0.42974037D-19
 -0.14770196D-03 -0.27522085D-03 -0.46546746D-03 -0.70096820D-03 -0.86784411D-03
 -0.73849617D-03 -0.28101142D-03  0.13160963D-05  0.21389707D-03  0.40105901D-03
  0.68232071D-03  0.10595720D-02  0.14061137D-02  0.14818508D-02  0.91884204D-03
 -0.61121408D-03 -0.12117493D-02  0.33426625D-02  0.18373453D-02  0.11470475D-17
  0.11017254D-17  0.77260591D-18 -0.40086867D-18 -0.38502957D-18 -0.27000931D-18
 -0.24861448D-02 -0.23879124D-02 -0.16745690D-02 -0.10338347D-17  0.60482285D-18
  0.43548949D-02 -0.23275242D-17  0.12181697D-17  0.41176509D-02 -0.66882423D-19
 -0.55264434D-19  0.23487584D-03 -0.19087566D-03 -0.19087566D-03  0.38175131D-03
 -0.78298918D-19  0.32802379D-17  0.25111060D-17 -0.12709970D-02 -0.12709970D-02
  0.25419941D-02  0.12200985D-19 -0.30183957D-17 -0.84587041D-20 -0.25356174D-03
 -0.25356174D-03  0.50712348D-03 -0.12670249D-20 -0.18274574D-18  0.47910956D-18
  0.10651704D-18  0.12395412D-18  0.68149837D-03 -0.67856156D-19 -0.30971506D-19
 -0.10222476D-02 -0.25169495D-18 -0.34089084D-18 -0.10222476D-02  0.19899787D-18
  0.53046172D-19 -0.17222715D-19  0.21633994D-03  0.51439636D-19 -0.32687249D-19
 -0.32450991D-03 -0.21057815D-18  0.84355393D-19 -0.32450991D-03 -0.19141134D-19
MO    5     MO 0.0        OCC NO =    2.0000000  ORB. ENERGY =   -0.951709
 -0.63658062D-02 -0.11867310D-01 -0.20057845D-01 -0.30153511D-01 -0.37047072D-01
 -0.31292175D-01 -0.11802257D-01  0.58410029D-04 -0.32559738D-01 -0.60962103D-01
 -0.10379320D+00 -0.16055229D+00 -0.21144172D+00 -0.21970149D+00 -0.13961044D+00
  0.93563668D-01  0.43313574D-01  0.10269434D-01  0.23565073D-03  0.58863157D-15
  0.55187951D-15  0.39297109D-15 -0.83942187D-15 -0.78701136D-15 -0.56039897D-15
  0.12654158D+00  0.11864077D+00  0.84479296D-01  0.51501279D-17 -0.22944337D-15
  0.16483180D-01 -0.31303740D-16  0.86249080D-16  0.65490274D-03 -0.25967199D-17
 -0.32854200D-17 -0.20772707D-03 -0.18753797D-01 -0.18753797D-01  0.37507595D-01
  0.58245781D-16  0.69060064D-16  0.10481716D-15  0.53106326D-03  0.53106326D-03
 -0.10621265D-02 -0.28516707D-16  0.37086600D-16  0.74391828D-16  0.21629592D-03
  0.21629592D-03 -0.43259184D-03 -0.21230046D-17  0.15001781D-16  0.59418910D-17
 -0.48592987D-17 -0.87136387D-18  0.35700631D-02 -0.12766923D-16  0.13282999D-16
 -0.53550947D-02  0.27344820D-16 -0.10668907D-16 -0.53550947D-02 -0.27153963D-16
 -0.36713535D-17 -0.57916466D-17 -0.15727025D-03 -0.53846689D-17 -0.69125286D-17
  0.23590537D-03  0.16398730D-16  0.24287468D-16  0.23590537D-03  0.41974210D-17
 -0.63658062D-02 -0.11867310D-01 -0.20057845D-01 -0.30153511D-01 -0.37047072D-01
 -0.31292175D-01 -0.11802257D-01  0.58410029D-04 -0.32559738D-01 -0.60962103D-01
 -0.10379320D+00 -0.16055229D+00 -0.21144172D+00 -0.21970149D+00 -0.13961044D+00
  0.93563668D-01  0.43313574D-01  0.10269434D-01  0.23565069D-03 -0.16120612D-15
 -0.15114098D-15 -0.10762138D-15 -0.12165964D-15 -0.11406365D-15 -0.81220113D-16
 -0.12654158D+00 -0.11864077D+00 -0.84479296D-01 -0.59467869D-16 -0.63896018D-16
 -0.16483180D-01  0.51044790D-16 -0.87196203D-17 -0.65490274D-03  0.47743370D-17
 -0.68445280D-18  0.20772706D-03 -0.18753797D-01 -0.18753797D-01  0.37507595D-01
  0.51862266D-17 -0.18837741D-16 -0.82273998D-17  0.53106327D-03  0.53106327D-03
 -0.10621265D-02 -0.72280316D-17 -0.78360849D-16 -0.31766546D-16  0.21629592D-03
  0.21629592D-03 -0.43259184D-03  0.97810410D-18 -0.79337309D-18 -0.35270199D-17
  0.67026602D-17  0.15557123D-16 -0.35700631D-02 -0.50086781D-17 -0.10349041D-17
  0.53550947D-02 -0.15099302D-16 -0.45636465D-16  0.53550947D-02  0.68021835D-17
  0.23963495D-18  0.52906995D-18  0.15727025D-03  0.88007740D-19 -0.33045876D-19
 -0.23590537D-03 -0.80691259D-18 -0.15541640D-17 -0.23590537D-03  0.63225639D-17