 Molden2AIM, Version 4.0.0 (06/02/2016)           Time: Sat Jun 30 05:17:20 2018
GAUSSIAN             25 MOL ORBITALS    701 PRIMITIVES       15 NUCLEI
  Si   1    (CENTRE  1)   0.00025889  0.03399050  0.00000000  CHARGE = 14.0
  O    2    (CENTRE  2)  -1.10952057  3.05451173  0.00000000  CHARGE =  8.0
  H    3    (CENTRE  3)  -2.91530695  3.22403717  0.00000000  CHARGE =  1.0
  C    4    (CENTRE  4)   3.51864737  0.40433903  0.00000000  CHARGE =  6.0
  H    5    (CENTRE  5)   4.14736681  1.45044606  1.67937315  CHARGE =  1.0
  H    6    (CENTRE  6)   4.46437970 -1.44537025  0.00000000  CHARGE =  1.0
  H    7    (CENTRE  7)   4.14736681  1.45044606 -1.67937315  CHARGE =  1.0
  C    8    (CENTRE  8)  -1.12306046 -1.67827144  2.90627406  CHARGE =  6.0
  H    9    (CENTRE  9)  -0.34592760 -3.60488124  2.97801373  CHARGE =  1.0
  H   10    (CENTRE 10)  -0.53093745 -0.68325883  4.62991026  CHARGE =  1.0
  H   11    (CENTRE 11)  -3.19484658 -1.83920619  2.93878491  CHARGE =  1.0
  C   12    (CENTRE 12)  -1.12306046 -1.67827144 -2.90627406  CHARGE =  6.0
  H   13    (CENTRE 13)  -0.53093745 -0.68325883 -4.62991026  CHARGE =  1.0
  H   14    (CENTRE 14)  -0.34592760 -3.60488124 -2.97801373  CHARGE =  1.0
  H   15    (CENTRE 15)  -3.19484658 -1.83920619 -2.93878491  CHARGE =  1.0
CENTRE ASSIGNMENTS    1  1  1  1  1  1  1  1  1  1  1  1  1  1  1  1  1  1  1  1
CENTRE ASSIGNMENTS    1  1  1  1  1  1  1  1  1  1  1  1  1  1  1  1  1  1  1  1
CENTRE ASSIGNMENTS    1  1  1  1  1  1  1  1  1  1  1  1  1  1  1  1  1  1  1  1
CENTRE ASSIGNMENTS    1  1  1  1  1  1  1  1  1  1  1  1  1  1  1  1  1  1  1  1
CENTRE ASSIGNMENTS    1  1  1  1  1  1  1  1  1  1  1  1  1  1  1  1  1  1  1  1
CENTRE ASSIGNMENTS    1  1  1  1  1  1  1  1  1  1  1  1  1  1  1  1  1  1  1  1
CENTRE ASSIGNMENTS    1  1  1  1  1  1  1  1  1  1  1  2  2  2  2  2  2  2  2  2
CENTRE ASSIGNMENTS    2  2  2  2  2  2  2  2  2  2  2  2  2  2  2  2  2  2  2  2
CENTRE ASSIGNMENTS    2  2  2  2  2  2  2  2  2  2  2  2  2  2  2  2  2  2  2  2
CENTRE ASSIGNMENTS    2  2  2  2  2  2  2  2  2  2  2  2  2  2  2  2  2  2  2  2
CENTRE ASSIGNMENTS    2  2  2  2  2  2  3  3  3  3  3  3  3  3  3  3  3  3  3  3
CENTRE ASSIGNMENTS    3  3  3  3  3  3  3  3  3  3  3  3  3  4  4  4  4  4  4  4
CENTRE ASSIGNMENTS    4  4  4  4  4  4  4  4  4  4  4  4  4  4  4  4  4  4  4  4
CENTRE ASSIGNMENTS    4  4  4  4  4  4  4  4  4  4  4  4  4  4  4  4  4  4  4  4
CENTRE ASSIGNMENTS    4  4  4  4  4  4  4  4  4  4  4  4  4  4  4  4  4  4  4  4
CENTRE ASSIGNMENTS    4  4  4  4  4  4  4  4  5  5  5  5  5  5  5  5  5  5  5  5
CENTRE ASSIGNMENTS    5  5  5  5  5  5  5  5  5  5  5  5  5  5  5  6  6  6  6  6
CENTRE ASSIGNMENTS    6  6  6  6  6  6  6  6  6  6  6  6  6  6  6  6  6  6  6  6
CENTRE ASSIGNMENTS    6  6  7  7  7  7  7  7  7  7  7  7  7  7  7  7  7  7  7  7
CENTRE ASSIGNMENTS    7  7  7  7  7  7  7  7  7  8  8  8  8  8  8  8  8  8  8  8
CENTRE ASSIGNMENTS    8  8  8  8  8  8  8  8  8  8  8  8  8  8  8  8  8  8  8  8
CENTRE ASSIGNMENTS    8  8  8  8  8  8  8  8  8  8  8  8  8  8  8  8  8  8  8  8
CENTRE ASSIGNMENTS    8  8  8  8  8  8  8  8  8  8  8  8  8  8  8  8  8  8  8  8
CENTRE ASSIGNMENTS    8  8  8  8  9  9  9  9  9  9  9  9  9  9  9  9  9  9  9  9
CENTRE ASSIGNMENTS    9  9  9  9  9  9  9  9  9  9  9 10 10 10 10 10 10 10 10 10
CENTRE ASSIGNMENTS   10 10 10 10 10 10 10 10 10 10 10 10 10 10 10 10 10 10 11 11
CENTRE ASSIGNMENTS   11 11 11 11 11 11 11 11 11 11 11 11 11 11 11 11 11 11 11 11
CENTRE ASSIGNMENTS   11 11 11 11 11 12 12 12 12 12 12 12 12 12 12 12 12 12 12 12
CENTRE ASSIGNMENTS   12 12 12 12 12 12 12 12 12 12 12 12 12 12 12 12 12 12 12 12
CENTRE ASSIGNMENTS   12 12 12 12 12 12 12 12 12 12 12 12 12 12 12 12 12 12 12 12
CENTRE ASSIGNMENTS   12 12 12 12 12 12 12 12 12 12 12 12 12 12 12 12 12 12 12 12
CENTRE ASSIGNMENTS   13 13 13 13 13 13 13 13 13 13 13 13 13 13 13 13 13 13 13 13
CENTRE ASSIGNMENTS   13 13 13 13 13 13 13 14 14 14 14 14 14 14 14 14 14 14 14 14
CENTRE ASSIGNMENTS   14 14 14 14 14 14 14 14 14 14 14 14 14 14 15 15 15 15 15 15
CENTRE ASSIGNMENTS   15 15 15 15 15 15 15 15 15 15 15 15 15 15 15 15 15 15 15 15
CENTRE ASSIGNMENTS   15
TYPE ASSIGNMENTS      1  1  1  1  1  1  1  1  1  1  1  1  1  1  1  1  1  1  1  1
TYPE ASSIGNMENTS      1  1  1  1  1  1  1  1  1  1  1  1  1  1  1  1  1  1  1  1
TYPE ASSIGNMENTS      1  1  2  2  2  2  2  2  2  3  3  3  3  3  3  3  4  4  4  4
TYPE ASSIGNMENTS      4  4  4  2  2  2  2  2  2  2  3  3  3  3  3  3  3  4  4  4
TYPE ASSIGNMENTS      4  4  4  4  2  3  4  2  3  4  2  3  4  5  6  7  8  9 10  5
TYPE ASSIGNMENTS      6  7  8  9 10  5  6  7  8  9 10 11 12 13 17 14 15 18 19 16
TYPE ASSIGNMENTS     20 11 12 13 17 14 15 18 19 16 20  1  1  1  1  1  1  1  1  1
TYPE ASSIGNMENTS      1  1  1  1  1  1  1  1  1  1  2  2  2  3  3  3  4  4  4  2
TYPE ASSIGNMENTS      3  4  2  3  4  2  3  4  5  6  7  8  9 10  5  6  7  8  9 10
TYPE ASSIGNMENTS      5  6  7  8  9 10 11 12 13 17 14 15 18 19 16 20 11 12 13 17
TYPE ASSIGNMENTS     14 15 18 19 16 20  1  1  1  1  1  1  2  3  4  2  3  4  2  3
TYPE ASSIGNMENTS      4  5  6  7  8  9 10  5  6  7  8  9 10  1  1  1  1  1  1  1
TYPE ASSIGNMENTS      1  1  1  1  1  1  1  1  1  1  1  1  2  2  2  3  3  3  4  4
TYPE ASSIGNMENTS      4  2  3  4  2  3  4  2  3  4  5  6  7  8  9 10  5  6  7  8
TYPE ASSIGNMENTS      9 10  5  6  7  8  9 10 11 12 13 17 14 15 18 19 16 20 11 12
TYPE ASSIGNMENTS     13 17 14 15 18 19 16 20  1  1  1  1  1  1  2  3  4  2  3  4
TYPE ASSIGNMENTS      2  3  4  5  6  7  8  9 10  5  6  7  8  9 10  1  1  1  1  1
TYPE ASSIGNMENTS      1  2  3  4  2  3  4  2  3  4  5  6  7  8  9 10  5  6  7  8
TYPE ASSIGNMENTS      9 10  1  1  1  1  1  1  2  3  4  2  3  4  2  3  4  5  6  7
TYPE ASSIGNMENTS      8  9 10  5  6  7  8  9 10  1  1  1  1  1  1  1  1  1  1  1
TYPE ASSIGNMENTS      1  1  1  1  1  1  1  1  2  2  2  3  3  3  4  4  4  2  3  4
TYPE ASSIGNMENTS      2  3  4  2  3  4  5  6  7  8  9 10  5  6  7  8  9 10  5  6
TYPE ASSIGNMENTS      7  8  9 10 11 12 13 17 14 15 18 19 16 20 11 12 13 17 14 15
TYPE ASSIGNMENTS     18 19 16 20  1  1  1  1  1  1  2  3  4  2  3  4  2  3  4  5
TYPE ASSIGNMENTS      6  7  8  9 10  5  6  7  8  9 10  1  1  1  1  1  1  2  3  4
TYPE ASSIGNMENTS      2  3  4  2  3  4  5  6  7  8  9 10  5  6  7  8  9 10  1  1
TYPE ASSIGNMENTS      1  1  1  1  2  3  4  2  3  4  2  3  4  5  6  7  8  9 10  5
TYPE ASSIGNMENTS      6  7  8  9 10  1  1  1  1  1  1  1  1  1  1  1  1  1  1  1
TYPE ASSIGNMENTS      1  1  1  1  2  2  2  3  3  3  4  4  4  2  3  4  2  3  4  2
TYPE ASSIGNMENTS      3  4  5  6  7  8  9 10  5  6  7  8  9 10  5  6  7  8  9 10
TYPE ASSIGNMENTS     11 12 13 17 14 15 18 19 16 20 11 12 13 17 14 15 18 19 16 20
TYPE ASSIGNMENTS      1  1  1  1  1  1  2  3  4  2  3  4  2  3  4  5  6  7  8  9
TYPE ASSIGNMENTS     10  5  6  7  8  9 10  1  1  1  1  1  1  2  3  4  2  3  4  2
TYPE ASSIGNMENTS      3  4  5  6  7  8  9 10  5  6  7  8  9 10  1  1  1  1  1  1
TYPE ASSIGNMENTS      2  3  4  2  3  4  2  3  4  5  6  7  8  9 10  5  6  7  8  9
TYPE ASSIGNMENTS     10
EXPONENTS  0.2549000D+06 0.3819000D+05 0.8690000D+04 0.2462000D+04 0.8048000D+03
EXPONENTS  0.2913000D+03 0.1136000D+03 0.4675000D+02 0.1982000D+02 0.7708000D+01
EXPONENTS  0.3340000D+01 0.1402000D+01 0.2070000D+00 0.2549000D+06 0.3819000D+05
EXPONENTS  0.8690000D+04 0.2462000D+04 0.8048000D+03 0.2913000D+03 0.1136000D+03
EXPONENTS  0.4675000D+02 0.1982000D+02 0.7708000D+01 0.3340000D+01 0.1402000D+01
EXPONENTS  0.2070000D+00 0.2549000D+06 0.3819000D+05 0.8690000D+04 0.2462000D+04
EXPONENTS  0.8048000D+03 0.2913000D+03 0.1136000D+03 0.4675000D+02 0.1982000D+02
EXPONENTS  0.7708000D+01 0.3340000D+01 0.1402000D+01 0.2070000D+00 0.4387000D+00
EXPONENTS  0.7944000D-01 0.3300000D-01 0.4815000D+03 0.1139000D+03 0.3623000D+02
EXPONENTS  0.1334000D+02 0.5252000D+01 0.2120000D+01 0.2528000D+00 0.4815000D+03
EXPONENTS  0.1139000D+03 0.3623000D+02 0.1334000D+02 0.5252000D+01 0.2120000D+01
EXPONENTS  0.2528000D+00 0.4815000D+03 0.1139000D+03 0.3623000D+02 0.1334000D+02
EXPONENTS  0.5252000D+01 0.2120000D+01 0.2528000D+00 0.4815000D+03 0.1139000D+03
EXPONENTS  0.3623000D+02 0.1334000D+02 0.5252000D+01 0.2120000D+01 0.2528000D+00
EXPONENTS  0.4815000D+03 0.1139000D+03 0.3623000D+02 0.1334000D+02 0.5252000D+01
EXPONENTS  0.2120000D+01 0.2528000D+00 0.4815000D+03 0.1139000D+03 0.3623000D+02
EXPONENTS  0.1334000D+02 0.5252000D+01 0.2120000D+01 0.2528000D+00 0.8561000D+00
EXPONENTS  0.8561000D+00 0.8561000D+00 0.7889000D-01 0.7889000D-01 0.7889000D-01
EXPONENTS  0.2370000D-01 0.2370000D-01 0.2370000D-01 0.1590000D+00 0.1590000D+00
EXPONENTS  0.1590000D+00 0.1590000D+00 0.1590000D+00 0.1590000D+00 0.4810000D+00
EXPONENTS  0.4810000D+00 0.4810000D+00 0.4810000D+00 0.4810000D+00 0.4810000D+00
EXPONENTS  0.5560000D-01 0.5560000D-01 0.5560000D-01 0.5560000D-01 0.5560000D-01
EXPONENTS  0.5560000D-01 0.3360000D+00 0.3360000D+00 0.3360000D+00 0.3360000D+00
EXPONENTS  0.3360000D+00 0.3360000D+00 0.3360000D+00 0.3360000D+00 0.3360000D+00
EXPONENTS  0.3360000D+00 0.1250000D+00 0.1250000D+00 0.1250000D+00 0.1250000D+00
EXPONENTS  0.1250000D+00 0.1250000D+00 0.1250000D+00 0.1250000D+00 0.1250000D+00
EXPONENTS  0.1250000D+00 0.1533000D+05 0.2299000D+04 0.5224000D+03 0.1473000D+03
EXPONENTS  0.4755000D+02 0.1676000D+02 0.6207000D+01 0.6882000D+00 0.1533000D+05
EXPONENTS  0.2299000D+04 0.5224000D+03 0.1473000D+03 0.4755000D+02 0.1676000D+02
EXPONENTS  0.6207000D+01 0.6882000D+00 0.1752000D+01 0.2384000D+00 0.7376000D-01
EXPONENTS  0.3446000D+02 0.7749000D+01 0.2280000D+01 0.3446000D+02 0.7749000D+01
EXPONENTS  0.2280000D+01 0.3446000D+02 0.7749000D+01 0.2280000D+01 0.7156000D+00
EXPONENTS  0.7156000D+00 0.7156000D+00 0.2140000D+00 0.2140000D+00 0.2140000D+00
EXPONENTS  0.5974000D-01 0.5974000D-01 0.5974000D-01 0.2314000D+01 0.2314000D+01
EXPONENTS  0.2314000D+01 0.2314000D+01 0.2314000D+01 0.2314000D+01 0.6450000D+00
EXPONENTS  0.6450000D+00 0.6450000D+00 0.6450000D+00 0.6450000D+00 0.6450000D+00
EXPONENTS  0.2140000D+00 0.2140000D+00 0.2140000D+00 0.2140000D+00 0.2140000D+00
EXPONENTS  0.2140000D+00 0.1428000D+01 0.1428000D+01 0.1428000D+01 0.1428000D+01
EXPONENTS  0.1428000D+01 0.1428000D+01 0.1428000D+01 0.1428000D+01 0.1428000D+01
EXPONENTS  0.1428000D+01 0.5000000D+00 0.5000000D+00 0.5000000D+00 0.5000000D+00
EXPONENTS  0.5000000D+00 0.5000000D+00 0.5000000D+00 0.5000000D+00 0.5000000D+00
EXPONENTS  0.5000000D+00 0.3387000D+02 0.5095000D+01 0.1159000D+01 0.3258000D+00
EXPONENTS  0.1027000D+00 0.2526000D-01 0.1407000D+01 0.1407000D+01 0.1407000D+01
EXPONENTS  0.3880000D+00 0.3880000D+00 0.3880000D+00 0.1020000D+00 0.1020000D+00
EXPONENTS  0.1020000D+00 0.1057000D+01 0.1057000D+01 0.1057000D+01 0.1057000D+01
EXPONENTS  0.1057000D+01 0.1057000D+01 0.2470000D+00 0.2470000D+00 0.2470000D+00
EXPONENTS  0.2470000D+00 0.2470000D+00 0.2470000D+00 0.8236000D+04 0.1235000D+04
EXPONENTS  0.2808000D+03 0.7927000D+02 0.2559000D+02 0.8997000D+01 0.3319000D+01
EXPONENTS  0.3643000D+00 0.8236000D+04 0.1235000D+04 0.2808000D+03 0.7927000D+02
EXPONENTS  0.2559000D+02 0.8997000D+01 0.3319000D+01 0.3643000D+00 0.9059000D+00
EXPONENTS  0.1285000D+00 0.4402000D-01 0.1871000D+02 0.4133000D+01 0.1200000D+01
EXPONENTS  0.1871000D+02 0.4133000D+01 0.1200000D+01 0.1871000D+02 0.4133000D+01
EXPONENTS  0.1200000D+01 0.3827000D+00 0.3827000D+00 0.3827000D+00 0.1209000D+00
EXPONENTS  0.1209000D+00 0.1209000D+00 0.3569000D-01 0.3569000D-01 0.3569000D-01
EXPONENTS  0.1097000D+01 0.1097000D+01 0.1097000D+01 0.1097000D+01 0.1097000D+01
EXPONENTS  0.1097000D+01 0.3180000D+00 0.3180000D+00 0.3180000D+00 0.3180000D+00
EXPONENTS  0.3180000D+00 0.3180000D+00 0.1000000D+00 0.1000000D+00 0.1000000D+00
EXPONENTS  0.1000000D+00 0.1000000D+00 0.1000000D+00 0.7610000D+00 0.7610000D+00
EXPONENTS  0.7610000D+00 0.7610000D+00 0.7610000D+00 0.7610000D+00 0.7610000D+00
EXPONENTS  0.7610000D+00 0.7610000D+00 0.7610000D+00 0.2680000D+00 0.2680000D+00
EXPONENTS  0.2680000D+00 0.2680000D+00 0.2680000D+00 0.2680000D+00 0.2680000D+00
EXPONENTS  0.2680000D+00 0.2680000D+00 0.2680000D+00 0.3387000D+02 0.5095000D+01
EXPONENTS  0.1159000D+01 0.3258000D+00 0.1027000D+00 0.2526000D-01 0.1407000D+01
EXPONENTS  0.1407000D+01 0.1407000D+01 0.3880000D+00 0.3880000D+00 0.3880000D+00
EXPONENTS  0.1020000D+00 0.1020000D+00 0.1020000D+00 0.1057000D+01 0.1057000D+01
EXPONENTS  0.1057000D+01 0.1057000D+01 0.1057000D+01 0.1057000D+01 0.2470000D+00
EXPONENTS  0.2470000D+00 0.2470000D+00 0.2470000D+00 0.2470000D+00 0.2470000D+00
EXPONENTS  0.3387000D+02 0.5095000D+01 0.1159000D+01 0.3258000D+00 0.1027000D+00
EXPONENTS  0.2526000D-01 0.1407000D+01 0.1407000D+01 0.1407000D+01 0.3880000D+00
EXPONENTS  0.3880000D+00 0.3880000D+00 0.1020000D+00 0.1020000D+00 0.1020000D+00
EXPONENTS  0.1057000D+01 0.1057000D+01 0.1057000D+01 0.1057000D+01 0.1057000D+01
EXPONENTS  0.1057000D+01 0.2470000D+00 0.2470000D+00 0.2470000D+00 0.2470000D+00
EXPONENTS  0.2470000D+00 0.2470000D+00 0.3387000D+02 0.5095000D+01 0.1159000D+01
EXPONENTS  0.3258000D+00 0.1027000D+00 0.2526000D-01 0.1407000D+01 0.1407000D+01
EXPONENTS  0.1407000D+01 0.3880000D+00 0.3880000D+00 0.3880000D+00 0.1020000D+00
EXPONENTS  0.1020000D+00 0.1020000D+00 0.1057000D+01 0.1057000D+01 0.1057000D+01
EXPONENTS  0.1057000D+01 0.1057000D+01 0.1057000D+01 0.2470000D+00 0.2470000D+00
EXPONENTS  0.2470000D+00 0.2470000D+00 0.2470000D+00 0.2470000D+00 0.8236000D+04
EXPONENTS  0.1235000D+04 0.2808000D+03 0.7927000D+02 0.2559000D+02 0.8997000D+01
EXPONENTS  0.3319000D+01 0.3643000D+00 0.8236000D+04 0.1235000D+04 0.2808000D+03
EXPONENTS  0.7927000D+02 0.2559000D+02 0.8997000D+01 0.3319000D+01 0.3643000D+00
EXPONENTS  0.9059000D+00 0.1285000D+00 0.4402000D-01 0.1871000D+02 0.4133000D+01
EXPONENTS  0.1200000D+01 0.1871000D+02 0.4133000D+01 0.1200000D+01 0.1871000D+02
EXPONENTS  0.4133000D+01 0.1200000D+01 0.3827000D+00 0.3827000D+00 0.3827000D+00
EXPONENTS  0.1209000D+00 0.1209000D+00 0.1209000D+00 0.3569000D-01 0.3569000D-01
EXPONENTS  0.3569000D-01 0.1097000D+01 0.1097000D+01 0.1097000D+01 0.1097000D+01
EXPONENTS  0.1097000D+01 0.1097000D+01 0.3180000D+00 0.3180000D+00 0.3180000D+00
EXPONENTS  0.3180000D+00 0.3180000D+00 0.3180000D+00 0.1000000D+00 0.1000000D+00
EXPONENTS  0.1000000D+00 0.1000000D+00 0.1000000D+00 0.1000000D+00 0.7610000D+00
EXPONENTS  0.7610000D+00 0.7610000D+00 0.7610000D+00 0.7610000D+00 0.7610000D+00
EXPONENTS  0.7610000D+00 0.7610000D+00 0.7610000D+00 0.7610000D+00 0.2680000D+00
EXPONENTS  0.2680000D+00 0.2680000D+00 0.2680000D+00 0.2680000D+00 0.2680000D+00
EXPONENTS  0.2680000D+00 0.2680000D+00 0.2680000D+00 0.2680000D+00 0.3387000D+02
EXPONENTS  0.5095000D+01 0.1159000D+01 0.3258000D+00 0.1027000D+00 0.2526000D-01
EXPONENTS  0.1407000D+01 0.1407000D+01 0.1407000D+01 0.3880000D+00 0.3880000D+00
EXPONENTS  0.3880000D+00 0.1020000D+00 0.1020000D+00 0.1020000D+00 0.1057000D+01
EXPONENTS  0.1057000D+01 0.1057000D+01 0.1057000D+01 0.1057000D+01 0.1057000D+01
EXPONENTS  0.2470000D+00 0.2470000D+00 0.2470000D+00 0.2470000D+00 0.2470000D+00
EXPONENTS  0.2470000D+00 0.3387000D+02 0.5095000D+01 0.1159000D+01 0.3258000D+00
EXPONENTS  0.1027000D+00 0.2526000D-01 0.1407000D+01 0.1407000D+01 0.1407000D+01
EXPONENTS  0.3880000D+00 0.3880000D+00 0.3880000D+00 0.1020000D+00 0.1020000D+00
EXPONENTS  0.1020000D+00 0.1057000D+01 0.1057000D+01 0.1057000D+01 0.1057000D+01
EXPONENTS  0.1057000D+01 0.1057000D+01 0.2470000D+00 0.2470000D+00 0.2470000D+00
EXPONENTS  0.2470000D+00 0.2470000D+00 0.2470000D+00 0.3387000D+02 0.5095000D+01
EXPONENTS  0.1159000D+01 0.3258000D+00 0.1027000D+00 0.2526000D-01 0.1407000D+01
EXPONENTS  0.1407000D+01 0.1407000D+01 0.3880000D+00 0.3880000D+00 0.3880000D+00
EXPONENTS  0.1020000D+00 0.1020000D+00 0.1020000D+00 0.1057000D+01 0.1057000D+01
EXPONENTS  0.1057000D+01 0.1057000D+01 0.1057000D+01 0.1057000D+01 0.2470000D+00
EXPONENTS  0.2470000D+00 0.2470000D+00 0.2470000D+00 0.2470000D+00 0.2470000D+00
EXPONENTS  0.8236000D+04 0.1235000D+04 0.2808000D+03 0.7927000D+02 0.2559000D+02
EXPONENTS  0.8997000D+01 0.3319000D+01 0.3643000D+00 0.8236000D+04 0.1235000D+04
EXPONENTS  0.2808000D+03 0.7927000D+02 0.2559000D+02 0.8997000D+01 0.3319000D+01
EXPONENTS  0.3643000D+00 0.9059000D+00 0.1285000D+00 0.4402000D-01 0.1871000D+02
EXPONENTS  0.4133000D+01 0.1200000D+01 0.1871000D+02 0.4133000D+01 0.1200000D+01
EXPONENTS  0.1871000D+02 0.4133000D+01 0.1200000D+01 0.3827000D+00 0.3827000D+00
EXPONENTS  0.3827000D+00 0.1209000D+00 0.1209000D+00 0.1209000D+00 0.3569000D-01
EXPONENTS  0.3569000D-01 0.3569000D-01 0.1097000D+01 0.1097000D+01 0.1097000D+01
EXPONENTS  0.1097000D+01 0.1097000D+01 0.1097000D+01 0.3180000D+00 0.3180000D+00
EXPONENTS  0.3180000D+00 0.3180000D+00 0.3180000D+00 0.3180000D+00 0.1000000D+00
EXPONENTS  0.1000000D+00 0.1000000D+00 0.1000000D+00 0.1000000D+00 0.1000000D+00
EXPONENTS  0.7610000D+00 0.7610000D+00 0.7610000D+00 0.7610000D+00 0.7610000D+00
EXPONENTS  0.7610000D+00 0.7610000D+00 0.7610000D+00 0.7610000D+00 0.7610000D+00
EXPONENTS  0.2680000D+00 0.2680000D+00 0.2680000D+00 0.2680000D+00 0.2680000D+00
EXPONENTS  0.2680000D+00 0.2680000D+00 0.2680000D+00 0.2680000D+00 0.2680000D+00
EXPONENTS  0.3387000D+02 0.5095000D+01 0.1159000D+01 0.3258000D+00 0.1027000D+00
EXPONENTS  0.2526000D-01 0.1407000D+01 0.1407000D+01 0.1407000D+01 0.3880000D+00
EXPONENTS  0.3880000D+00 0.3880000D+00 0.1020000D+00 0.1020000D+00 0.1020000D+00
EXPONENTS  0.1057000D+01 0.1057000D+01 0.1057000D+01 0.1057000D+01 0.1057000D+01
EXPONENTS  0.1057000D+01 0.2470000D+00 0.2470000D+00 0.2470000D+00 0.2470000D+00
EXPONENTS  0.2470000D+00 0.2470000D+00 0.3387000D+02 0.5095000D+01 0.1159000D+01
EXPONENTS  0.3258000D+00 0.1027000D+00 0.2526000D-01 0.1407000D+01 0.1407000D+01
EXPONENTS  0.1407000D+01 0.3880000D+00 0.3880000D+00 0.3880000D+00 0.1020000D+00
EXPONENTS  0.1020000D+00 0.1020000D+00 0.1057000D+01 0.1057000D+01 0.1057000D+01
EXPONENTS  0.1057000D+01 0.1057000D+01 0.1057000D+01 0.2470000D+00 0.2470000D+00
EXPONENTS  0.2470000D+00 0.2470000D+00 0.2470000D+00 0.2470000D+00 0.3387000D+02
EXPONENTS  0.5095000D+01 0.1159000D+01 0.3258000D+00 0.1027000D+00 0.2526000D-01
EXPONENTS  0.1407000D+01 0.1407000D+01 0.1407000D+01 0.3880000D+00 0.3880000D+00
EXPONENTS  0.3880000D+00 0.1020000D+00 0.1020000D+00 0.1020000D+00 0.1057000D+01
EXPONENTS  0.1057000D+01 0.1057000D+01 0.1057000D+01 0.1057000D+01 0.1057000D+01
EXPONENTS  0.2470000D+00 0.2470000D+00 0.2470000D+00 0.2470000D+00 0.2470000D+00
EXPONENTS  0.2470000D+00
MO    1     MO 0.0        OCC NO =    2.0000000  ORB. ENERGY =  -65.824657
  0.50714183D+00  0.94863851D+00  0.16382561D+01  0.26462106D+01  0.39851387D+01
  0.54197699D+01  0.61698585D+01  0.49984315D+01  0.20289621D+01  0.18501343D+00
 -0.71101074D-02  0.23775687D-02  0.13342377D-03 -0.34189639D-02 -0.63993590D-02
 -0.11067938D-01 -0.17988932D-01 -0.27522919D-01 -0.39056924D-01 -0.48993668D-01
 -0.49953289D-01 -0.30692294D-01  0.66891343D-02  0.24501309D-01  0.11206036D-01
 -0.59482255D-04  0.17924925D-02  0.33525868D-02  0.58057719D-02  0.94265258D-02
  0.14469526D-01  0.20553317D-01  0.26075142D-01  0.26994818D-01  0.17387943D-01
 -0.42766550D-02 -0.17432962D-01 -0.15204576D-01  0.77490435D-02 -0.22488393D-02
 -0.94476760D-02 -0.42209577D-04 -0.15579562D-02 -0.20550245D-02 -0.22826274D-02
 -0.19536073D-02 -0.11162755D-02 -0.36225574D-03 -0.25507473D-06  0.57866588D-02
  0.76329011D-02  0.84782781D-02  0.72562111D-02  0.41461407D-02  0.13455130D-02
  0.94741456D-06  0.19569786D-13  0.25813556D-13  0.28672520D-13  0.24539636D-13
  0.14021751D-13  0.45503637D-14  0.32040425D-17  0.13012538D-02  0.17794478D-02
  0.19344390D-02  0.17757138D-02  0.96783615D-03  0.40840827D-03 -0.14085506D-03
 -0.49485570D-02 -0.67670881D-02 -0.73565063D-02 -0.67528881D-02 -0.36805983D-02
 -0.15531418D-02  0.53565976D-03 -0.16942996D-13 -0.23169329D-13 -0.25187394D-13
 -0.23120711D-13 -0.12601726D-13 -0.53176865D-14  0.18340056D-14  0.35556559D-04
 -0.74230838D-04 -0.62514921D-15 -0.43001298D-03  0.10100726D-02  0.15304431D-13
 -0.93081301D-05 -0.46803587D-05  0.11672263D-14 -0.11961111D-03  0.16719933D-03
 -0.47588220D-04 -0.35010248D-04 -0.21656850D-14 -0.18174795D-14 -0.25008458D-04
  0.98688851D-04 -0.73680393D-04 -0.86161313D-04 -0.27346104D-16 -0.13810288D-14
 -0.73983370D-06  0.27589663D-04 -0.26849829D-04 -0.16751024D-05 -0.26423008D-15
 -0.65988156D-15  0.10251225D-03  0.87437875D-04 -0.18565331D-15 -0.17721866D-03
 -0.23126240D-05 -0.37359431D-15 -0.13031809D-03 -0.26000100D-03  0.93055426D-15
  0.49333524D-15 -0.59800858D-04 -0.33555126D-04  0.31587417D-15  0.10816582D-03
 -0.70573077D-04  0.22219905D-15  0.71236757D-04  0.17123845D-03 -0.11698216D-14
  0.41443419D-15  0.84145681D-05  0.15683672D-04  0.26594312D-04  0.40251729D-04
  0.50222406D-04  0.43134349D-04  0.16560115D-04 -0.74074412D-07 -0.88333464D-05
 -0.16567160D-04 -0.28243376D-04 -0.44138899D-04 -0.59022118D-04 -0.63021862D-04
 -0.38530331D-04  0.25419972D-04  0.37852244D-04  0.11738630D-02 -0.26651167D-03
  0.14467573D-03  0.14028680D-03  0.94636644D-04 -0.11878453D-03 -0.11518104D-03
 -0.77700450D-04  0.89410484D-15  0.86698093D-15  0.58486022D-15 -0.16404829D-03
 -0.12225869D-04 -0.79530259D-15 -0.88497998D-03  0.58554902D-03  0.14635849D-14
 -0.18662783D-04 -0.63988457D-05  0.14010526D-15 -0.18472683D-03  0.46298026D-03
 -0.27825343D-03 -0.11834699D-03  0.22463675D-14  0.54830444D-15  0.22759378D-03
 -0.28614938D-03  0.58555600D-04 -0.47924860D-05 -0.11476977D-14 -0.48597850D-16
  0.20691482D-03 -0.30645511D-03  0.99540285D-04  0.48188643D-03  0.12527412D-14
 -0.37515535D-15 -0.18371127D-03 -0.29865577D-03 -0.76475444D-16  0.67240891D-03
  0.25053323D-03 -0.18573810D-16 -0.12127509D-03  0.64543408D-03  0.24800014D-15
 -0.12440033D-14  0.50614212D-04  0.13741189D-03  0.36238893D-16 -0.31626736D-03
 -0.88702489D-04  0.11637570D-15  0.16442473D-03 -0.32353317D-03 -0.22509238D-15
  0.43508022D-15  0.26096542D-04  0.47066188D-04  0.69399067D-04 -0.11844010D-02
  0.55609252D-03 -0.22906141D-05 -0.22511793D-03  0.12002022D-03 -0.62168385D-15
 -0.29307604D-03  0.58144203D-04  0.67542186D-15  0.12750496D-03 -0.84260097D-04
 -0.24168351D-15 -0.99646651D-04 -0.61267325D-04  0.16091398D-03 -0.74425825D-04
 -0.56587229D-15 -0.62276133D-15 -0.27382406D-04  0.70551566D-04 -0.43169161D-04
  0.71846356D-05  0.24539861D-15  0.62724223D-15  0.15111553D-03  0.28171370D-03
  0.47614578D-03  0.71580308D-03  0.87944679D-03  0.74283340D-03  0.28016943D-03
 -0.13865741D-05 -0.10935187D-03 -0.20474120D-03 -0.34858941D-03 -0.53921481D-03
 -0.71012694D-03 -0.73786738D-03 -0.46888159D-03  0.31423354D-03  0.13940232D-03
  0.12684483D-02  0.10459911D-03 -0.19643840D-03 -0.18417349D-03 -0.13114250D-03
 -0.21433555D-04 -0.20095320D-04 -0.14309065D-04  0.11346992D-14  0.10638527D-14
  0.75752648D-15  0.17053416D-03  0.38098339D-04 -0.46967598D-14 -0.12056029D-02
  0.24996968D-03 -0.64627550D-14 -0.94370616D-05  0.66082162D-06  0.38791718D-15
  0.14195293D-03 -0.52957513D-04 -0.88995418D-04  0.44186048D-04 -0.47970526D-15
 -0.36269755D-15 -0.31024039D-03  0.12799853D-03  0.18224186D-03 -0.12155789D-04
 -0.17465492D-14 -0.44782835D-14  0.25118295D-04 -0.36093964D-04  0.10975669D-04
  0.13705617D-03  0.68772685D-15 -0.11007782D-14 -0.49396126D-04 -0.82135761D-04
  0.10683462D-15  0.10347096D-03 -0.10128579D-03  0.27991201D-15  0.44717421D-04
  0.34769308D-03 -0.60041588D-15 -0.16728922D-14  0.92564267D-04 -0.17557997D-04
 -0.28687558D-15 -0.14275598D-03  0.11084540D-03  0.51250691D-15 -0.13493682D-03
 -0.58171404D-04  0.34811984D-15 -0.77508536D-15  0.24932054D-05  0.44965987D-05
  0.66302321D-05 -0.90850015D-04  0.25369491D-03  0.14395757D-04  0.37232169D-04
  0.96071580D-04  0.10429191D-03  0.19373903D-03  0.17853448D-04  0.24509613D-04
 -0.11093276D-03 -0.44071436D-04  0.28053012D-05 -0.53381865D-04  0.11076926D-04
  0.42304939D-04 -0.11333553D-03 -0.16165465D-03 -0.14204892D-04 -0.12787649D-05
  0.19641883D-04 -0.18363118D-04 -0.13463867D-04  0.93465620D-05 -0.32761839D-04
  0.23530184D-05  0.42437656D-05  0.62574298D-05  0.74533514D-04  0.21371695D-02
  0.35260967D-05 -0.12890191D-04 -0.15002414D-03  0.17609112D-15  0.29982955D-03
  0.12770939D-03 -0.14516505D-14 -0.19566195D-03  0.24197387D-03 -0.15297400D-14
 -0.10309626D-03  0.51669280D-04  0.51426981D-04  0.10327200D-03  0.24505780D-15
 -0.39853390D-15  0.90608476D-05 -0.86713202D-05 -0.38952737D-06  0.71942225D-04
  0.35545275D-15 -0.52211577D-15  0.24932054D-05  0.44965987D-05  0.66302321D-05
 -0.90850015D-04  0.25369491D-03  0.14395757D-04  0.37232169D-04  0.96071580D-04
 -0.10429191D-03  0.19373903D-03  0.17853448D-04 -0.24509613D-04 -0.11093276D-03
 -0.44071436D-04 -0.28053012D-05 -0.53381865D-04  0.11076926D-04  0.42304939D-04
 -0.11333553D-03  0.16165465D-03  0.14204892D-04 -0.12787649D-05  0.19641883D-04
 -0.18363118D-04 -0.13463867D-04 -0.93465620D-05  0.32761839D-04  0.13747602D-03
  0.25628656D-03  0.43316943D-03  0.65119555D-03  0.80006897D-03  0.67578615D-03
  0.25488167D-03 -0.12614236D-05 -0.99742611D-04 -0.18674964D-03 -0.31795724D-03
 -0.49183150D-03 -0.64772479D-03 -0.67302754D-03 -0.42767879D-03  0.28662038D-03
  0.12464082D-03  0.13885097D-02  0.16802776D-04  0.46419922D-04  0.43521627D-04
  0.30989991D-04  0.98769605D-04  0.92602783D-04  0.65938698D-04 -0.21038327D-03
 -0.19724769D-03 -0.14045210D-03 -0.44551517D-04 -0.78407647D-04  0.23996867D-03
  0.35018228D-03  0.66552021D-03 -0.87138264D-03  0.10877486D-05  0.98133360D-05
  0.66062735D-05 -0.61781671D-04 -0.14690556D-05  0.63250726D-04  0.47686746D-04
 -0.11831338D-03 -0.19436091D-03  0.12447580D-03 -0.12265206D-04 -0.11221059D-03
 -0.69508563D-04  0.25942271D-03  0.51511958D-03  0.87276898D-05 -0.29025772D-04
  0.20298083D-04  0.18827398D-04 -0.51218607D-04 -0.15346187D-04 -0.11761583D-03
 -0.46758298D-04 -0.91914705D-05  0.22828060D-03  0.64891906D-05 -0.78107656D-04
  0.12456688D-03  0.13378570D-03  0.10568207D-03  0.13172386D-03  0.45983862D-04
  0.40668501D-04  0.39917391D-04 -0.42310751D-04  0.76457231D-05 -0.57869502D-04
 -0.95640836D-04 -0.12965122D-03 -0.61882670D-04  0.23305059D-03  0.52567234D-05
  0.94807172D-05  0.13979312D-04  0.40005248D-04  0.15360610D-02  0.11749491D-04
  0.67241625D-04 -0.11621470D-03 -0.84901211D-04 -0.10630673D-03 -0.49102272D-04
  0.37715505D-03 -0.47072805D-04  0.23677286D-03 -0.61974957D-04  0.50291060D-04
 -0.37409548D-04 -0.12881512D-04 -0.25335377D-04 -0.25617474D-05  0.18296397D-03
  0.19711169D-05 -0.34104124D-04  0.32133007D-04  0.13907769D-04 -0.49934080D-04
  0.66786001D-04  0.94235119D-06  0.16995692D-05  0.25060138D-05 -0.33762566D-03
  0.59941709D-03 -0.10491957D-04  0.40614417D-04  0.88630360D-04  0.12639122D-03
 -0.45582847D-04 -0.93270910D-05  0.21472502D-03  0.35880624D-04  0.29308076D-04
 -0.10024225D-03  0.39740478D-04  0.85407473D-04 -0.12514795D-03  0.32669236D-04
  0.51916667D-04  0.12559965D-04  0.18103697D-04 -0.13697917D-04 -0.44057808D-05
 -0.38282295D-04 -0.15534428D-04 -0.23873796D-04  0.10124903D-05  0.18260680D-05
  0.26925363D-05 -0.87515814D-04  0.50614984D-03 -0.90748259D-05 -0.12695048D-03
 -0.13234716D-05 -0.15611542D-04 -0.91692118D-04 -0.71586296D-04  0.19526045D-03
  0.88794841D-04  0.15509210D-04 -0.51271431D-04 -0.35767767D-04  0.27764890D-04
  0.80028767D-05 -0.86367936D-04  0.17460653D-03  0.41978382D-04 -0.14906921D-04
  0.82672752D-05  0.66396459D-05  0.18968544D-05  0.55301397D-06  0.28907363D-04
  0.13747602D-03  0.25628656D-03  0.43316943D-03  0.65119555D-03  0.80006897D-03
  0.67578615D-03  0.25488167D-03 -0.12614236D-05 -0.99742611D-04 -0.18674964D-03
 -0.31795724D-03 -0.49183150D-03 -0.64772479D-03 -0.67302754D-03 -0.42767879D-03
  0.28662038D-03  0.12464082D-03  0.13885097D-02  0.16802776D-04  0.46419922D-04
  0.43521627D-04  0.30989991D-04  0.98769605D-04  0.92602783D-04  0.65938698D-04
  0.21038327D-03  0.19724769D-03  0.14045210D-03 -0.44551517D-04 -0.78407647D-04
 -0.23996867D-03  0.35018228D-03  0.66552021D-03  0.87138264D-03  0.10877486D-05
  0.98133360D-05 -0.66062735D-05 -0.61781671D-04 -0.14690556D-05  0.63250726D-04
  0.47686746D-04  0.11831338D-03  0.19436091D-03  0.12447580D-03 -0.12265206D-04
 -0.11221059D-03 -0.69508563D-04 -0.25942271D-03 -0.51511958D-03  0.87276898D-05
 -0.29025772D-04  0.20298083D-04  0.18827398D-04  0.51218607D-04  0.15346187D-04
 -0.11761583D-03 -0.46758298D-04  0.91914705D-05  0.22828060D-03  0.64891906D-05
  0.78107656D-04  0.12456688D-03  0.13378570D-03 -0.10568207D-03 -0.13172386D-03
  0.45983862D-04  0.40668501D-04 -0.39917391D-04 -0.42310751D-04  0.76457231D-05
  0.57869502D-04 -0.95640836D-04 -0.12965122D-03  0.61882670D-04 -0.23305059D-03
  0.94235119D-06  0.16995692D-05  0.25060138D-05 -0.33762566D-03  0.59941709D-03
 -0.10491957D-04  0.40614417D-04  0.88630360D-04 -0.12639122D-03 -0.45582847D-04
 -0.93270910D-05 -0.21472502D-03  0.35880624D-04  0.29308076D-04  0.10024225D-03
  0.39740478D-04  0.85407473D-04 -0.12514795D-03  0.32669236D-04 -0.51916667D-04
 -0.12559965D-04  0.18103697D-04 -0.13697917D-04 -0.44057808D-05 -0.38282295D-04
  0.15534428D-04  0.23873796D-04  0.52567234D-05  0.94807172D-05  0.13979312D-04
  0.40005248D-04  0.15360610D-02  0.11749491D-04  0.67241625D-04 -0.11621470D-03
  0.84901211D-04 -0.10630673D-03 -0.49102272D-04 -0.37715505D-03 -0.47072805D-04
  0.23677286D-03  0.61974957D-04  0.50291060D-04 -0.37409548D-04 -0.12881512D-04
 -0.25335377D-04  0.25617474D-05 -0.18296397D-03  0.19711169D-05 -0.34104124D-04
  0.32133007D-04  0.13907769D-04  0.49934080D-04 -0.66786001D-04  0.10124903D-05
  0.18260680D-05  0.26925363D-05 -0.87515814D-04  0.50614984D-03 -0.90748259D-05
 -0.12695048D-03 -0.13234716D-05  0.15611542D-04 -0.91692118D-04 -0.71586296D-04
 -0.19526045D-03  0.88794841D-04  0.15509210D-04  0.51271431D-04 -0.35767767D-04
  0.27764890D-04  0.80028767D-05 -0.86367936D-04 -0.17460653D-03 -0.41978382D-04
 -0.14906921D-04  0.82672752D-05  0.66396459D-05  0.18968544D-05 -0.55301397D-06
 -0.28907363D-04
MO    2     MO 0.0        OCC NO =    2.0000000  ORB. ENERGY =  -18.940142
  0.68566979D-04  0.12825855D-03  0.22149675D-03  0.35777500D-03  0.53880178D-03