 Molden2AIM, Version 4.0.0 (06/02/2016)           Time: Sat Jun 30 05:59:12 2018
GAUSSIAN             16 MOL ORBITALS    462 PRIMITIVES       10 NUCLEI
  O    1    (CENTRE  1) -10.22055918  5.73101777 -0.30125636  CHARGE =  8.0
  C    2    (CENTRE  2) -11.73396146  6.04005413  1.39400939  CHARGE =  6.0
  C    3    (CENTRE  3) -10.93099794  6.96726715  3.96770110  CHARGE =  6.0
  C    4    (CENTRE  4) -14.51347080  5.51617481  1.03528457  CHARGE =  6.0
  H    5    (CENTRE  5) -14.86996575  4.86101054 -0.89330377  CHARGE =  1.0
  H    6    (CENTRE  6) -15.61769636  7.23593519  1.41545400  CHARGE =  1.0
  H    7    (CENTRE  7) -15.14978694  4.08272306  2.39977643  CHARGE =  1.0
  H    8    (CENTRE  8)  -8.88758605  7.28187443  4.00339613  CHARGE =  1.0
  H    9    (CENTRE  9) -11.46002865  5.57920095  5.42193984  CHARGE =  1.0
  H   10    (CENTRE 10) -11.92818562  8.73097311  4.43279293  CHARGE =  1.0
CENTRE ASSIGNMENTS    1  1  1  1  1  1  1  1  1  1  1  1  1  1  1  1  1  1  1  1
CENTRE ASSIGNMENTS    1  1  1  1  1  1  1  1  1  1  1  1  1  1  1  1  1  1  1  1
CENTRE ASSIGNMENTS    1  1  1  1  1  1  1  1  1  1  1  1  1  1  1  1  1  1  1  1
CENTRE ASSIGNMENTS    1  1  1  1  1  1  1  1  1  1  1  1  1  1  1  2  2  2  2  2
CENTRE ASSIGNMENTS    2  2  2  2  2  2  2  2  2  2  2  2  2  2  2  2  2  2  2  2
CENTRE ASSIGNMENTS    2  2  2  2  2  2  2  2  2  2  2  2  2  2  2  2  2  2  2  2
CENTRE ASSIGNMENTS    2  2  2  2  2  2  2  2  2  2  2  2  2  2  2  2  2  2  2  2
CENTRE ASSIGNMENTS    2  2  2  2  2  2  2  2  2  2  3  3  3  3  3  3  3  3  3  3
CENTRE ASSIGNMENTS    3  3  3  3  3  3  3  3  3  3  3  3  3  3  3  3  3  3  3  3
CENTRE ASSIGNMENTS    3  3  3  3  3  3  3  3  3  3  3  3  3  3  3  3  3  3  3  3
CENTRE ASSIGNMENTS    3  3  3  3  3  3  3  3  3  3  3  3  3  3  3  3  3  3  3  3
CENTRE ASSIGNMENTS    3  3  3  3  3  4  4  4  4  4  4  4  4  4  4  4  4  4  4  4
CENTRE ASSIGNMENTS    4  4  4  4  4  4  4  4  4  4  4  4  4  4  4  4  4  4  4  4
CENTRE ASSIGNMENTS    4  4  4  4  4  4  4  4  4  4  4  4  4  4  4  4  4  4  4  4
CENTRE ASSIGNMENTS    4  4  4  4  4  4  4  4  4  4  4  4  4  4  4  4  4  4  4  4
CENTRE ASSIGNMENTS    5  5  5  5  5  5  5  5  5  5  5  5  5  5  5  5  5  5  5  5
CENTRE ASSIGNMENTS    5  5  5  5  5  5  5  6  6  6  6  6  6  6  6  6  6  6  6  6
CENTRE ASSIGNMENTS    6  6  6  6  6  6  6  6  6  6  6  6  6  6  7  7  7  7  7  7
CENTRE ASSIGNMENTS    7  7  7  7  7  7  7  7  7  7  7  7  7  7  7  7  7  7  7  7
CENTRE ASSIGNMENTS    7  8  8  8  8  8  8  8  8  8  8  8  8  8  8  8  8  8  8  8
CENTRE ASSIGNMENTS    8  8  8  8  8  8  8  8  9  9  9  9  9  9  9  9  9  9  9  9
CENTRE ASSIGNMENTS    9  9  9  9  9  9  9  9  9  9  9  9  9  9  9 10 10 10 10 10
CENTRE ASSIGNMENTS   10 10 10 10 10 10 10 10 10 10 10 10 10 10 10 10 10 10 10 10
CENTRE ASSIGNMENTS   10 10
TYPE ASSIGNMENTS      1  1  1  1  1  1  1  1  1  1  1  1  1  1  1  1  1  1  1  2
TYPE ASSIGNMENTS      2  2  3  3  3  4  4  4  2  3  4  2  3  4  2  3  4  5  6  7
TYPE ASSIGNMENTS      8  9 10  5  6  7  8  9 10  5  6  7  8  9 10 11 12 13 17 14
TYPE ASSIGNMENTS     15 18 19 16 20 11 12 13 17 14 15 18 19 16 20  1  1  1  1  1
TYPE ASSIGNMENTS      1  1  1  1  1  1  1  1  1  1  1  1  1  1  2  2  2  3  3  3
TYPE ASSIGNMENTS      4  4  4  2  3  4  2  3  4  2  3  4  5  6  7  8  9 10  5  6
TYPE ASSIGNMENTS      7  8  9 10  5  6  7  8  9 10 11 12 13 17 14 15 18 19 16 20
TYPE ASSIGNMENTS     11 12 13 17 14 15 18 19 16 20  1  1  1  1  1  1  1  1  1  1
TYPE ASSIGNMENTS      1  1  1  1  1  1  1  1  1  2  2  2  3  3  3  4  4  4  2  3
TYPE ASSIGNMENTS      4  2  3  4  2  3  4  5  6  7  8  9 10  5  6  7  8  9 10  5
TYPE ASSIGNMENTS      6  7  8  9 10 11 12 13 17 14 15 18 19 16 20 11 12 13 17 14
TYPE ASSIGNMENTS     15 18 19 16 20  1  1  1  1  1  1  1  1  1  1  1  1  1  1  1
TYPE ASSIGNMENTS      1  1  1  1  2  2  2  3  3  3  4  4  4  2  3  4  2  3  4  2
TYPE ASSIGNMENTS      3  4  5  6  7  8  9 10  5  6  7  8  9 10  5  6  7  8  9 10
TYPE ASSIGNMENTS     11 12 13 17 14 15 18 19 16 20 11 12 13 17 14 15 18 19 16 20
TYPE ASSIGNMENTS      1  1  1  1  1  1  2  3  4  2  3  4  2  3  4  5  6  7  8  9
TYPE ASSIGNMENTS     10  5  6  7  8  9 10  1  1  1  1  1  1  2  3  4  2  3  4  2
TYPE ASSIGNMENTS      3  4  5  6  7  8  9 10  5  6  7  8  9 10  1  1  1  1  1  1
TYPE ASSIGNMENTS      2  3  4  2  3  4  2  3  4  5  6  7  8  9 10  5  6  7  8  9
TYPE ASSIGNMENTS     10  1  1  1  1  1  1  2  3  4  2  3  4  2  3  4  5  6  7  8
TYPE ASSIGNMENTS      9 10  5  6  7  8  9 10  1  1  1  1  1  1  2  3  4  2  3  4
TYPE ASSIGNMENTS      2  3  4  5  6  7  8  9 10  5  6  7  8  9 10  1  1  1  1  1
TYPE ASSIGNMENTS      1  2  3  4  2  3  4  2  3  4  5  6  7  8  9 10  5  6  7  8
TYPE ASSIGNMENTS      9 10
EXPONENTS  0.1533000D+05 0.2299000D+04 0.5224000D+03 0.1473000D+03 0.4755000D+02
EXPONENTS  0.1676000D+02 0.6207000D+01 0.6882000D+00 0.1533000D+05 0.2299000D+04
EXPONENTS  0.5224000D+03 0.1473000D+03 0.4755000D+02 0.1676000D+02 0.6207000D+01
EXPONENTS  0.6882000D+00 0.1752000D+01 0.2384000D+00 0.7376000D-01 0.3446000D+02
EXPONENTS  0.7749000D+01 0.2280000D+01 0.3446000D+02 0.7749000D+01 0.2280000D+01
EXPONENTS  0.3446000D+02 0.7749000D+01 0.2280000D+01 0.7156000D+00 0.7156000D+00
EXPONENTS  0.7156000D+00 0.2140000D+00 0.2140000D+00 0.2140000D+00 0.5974000D-01
EXPONENTS  0.5974000D-01 0.5974000D-01 0.2314000D+01 0.2314000D+01 0.2314000D+01
EXPONENTS  0.2314000D+01 0.2314000D+01 0.2314000D+01 0.6450000D+00 0.6450000D+00
EXPONENTS  0.6450000D+00 0.6450000D+00 0.6450000D+00 0.6450000D+00 0.2140000D+00
EXPONENTS  0.2140000D+00 0.2140000D+00 0.2140000D+00 0.2140000D+00 0.2140000D+00
EXPONENTS  0.1428000D+01 0.1428000D+01 0.1428000D+01 0.1428000D+01 0.1428000D+01
EXPONENTS  0.1428000D+01 0.1428000D+01 0.1428000D+01 0.1428000D+01 0.1428000D+01
EXPONENTS  0.5000000D+00 0.5000000D+00 0.5000000D+00 0.5000000D+00 0.5000000D+00
EXPONENTS  0.5000000D+00 0.5000000D+00 0.5000000D+00 0.5000000D+00 0.5000000D+00
EXPONENTS  0.8236000D+04 0.1235000D+04 0.2808000D+03 0.7927000D+02 0.2559000D+02
EXPONENTS  0.8997000D+01 0.3319000D+01 0.3643000D+00 0.8236000D+04 0.1235000D+04
EXPONENTS  0.2808000D+03 0.7927000D+02 0.2559000D+02 0.8997000D+01 0.3319000D+01
EXPONENTS  0.3643000D+00 0.9059000D+00 0.1285000D+00 0.4402000D-01 0.1871000D+02
EXPONENTS  0.4133000D+01 0.1200000D+01 0.1871000D+02 0.4133000D+01 0.1200000D+01
EXPONENTS  0.1871000D+02 0.4133000D+01 0.1200000D+01 0.3827000D+00 0.3827000D+00
EXPONENTS  0.3827000D+00 0.1209000D+00 0.1209000D+00 0.1209000D+00 0.3569000D-01
EXPONENTS  0.3569000D-01 0.3569000D-01 0.1097000D+01 0.1097000D+01 0.1097000D+01
EXPONENTS  0.1097000D+01 0.1097000D+01 0.1097000D+01 0.3180000D+00 0.3180000D+00
EXPONENTS  0.3180000D+00 0.3180000D+00 0.3180000D+00 0.3180000D+00 0.1000000D+00
EXPONENTS  0.1000000D+00 0.1000000D+00 0.1000000D+00 0.1000000D+00 0.1000000D+00
EXPONENTS  0.7610000D+00 0.7610000D+00 0.7610000D+00 0.7610000D+00 0.7610000D+00
EXPONENTS  0.7610000D+00 0.7610000D+00 0.7610000D+00 0.7610000D+00 0.7610000D+00
EXPONENTS  0.2680000D+00 0.2680000D+00 0.2680000D+00 0.2680000D+00 0.2680000D+00
EXPONENTS  0.2680000D+00 0.2680000D+00 0.2680000D+00 0.2680000D+00 0.2680000D+00
EXPONENTS  0.8236000D+04 0.1235000D+04 0.2808000D+03 0.7927000D+02 0.2559000D+02
EXPONENTS  0.8997000D+01 0.3319000D+01 0.3643000D+00 0.8236000D+04 0.1235000D+04
EXPONENTS  0.2808000D+03 0.7927000D+02 0.2559000D+02 0.8997000D+01 0.3319000D+01
EXPONENTS  0.3643000D+00 0.9059000D+00 0.1285000D+00 0.4402000D-01 0.1871000D+02
EXPONENTS  0.4133000D+01 0.1200000D+01 0.1871000D+02 0.4133000D+01 0.1200000D+01
EXPONENTS  0.1871000D+02 0.4133000D+01 0.1200000D+01 0.3827000D+00 0.3827000D+00
EXPONENTS  0.3827000D+00 0.1209000D+00 0.1209000D+00 0.1209000D+00 0.3569000D-01
EXPONENTS  0.3569000D-01 0.3569000D-01 0.1097000D+01 0.1097000D+01 0.1097000D+01
EXPONENTS  0.1097000D+01 0.1097000D+01 0.1097000D+01 0.3180000D+00 0.3180000D+00
EXPONENTS  0.3180000D+00 0.3180000D+00 0.3180000D+00 0.3180000D+00 0.1000000D+00
EXPONENTS  0.1000000D+00 0.1000000D+00 0.1000000D+00 0.1000000D+00 0.1000000D+00
EXPONENTS  0.7610000D+00 0.7610000D+00 0.7610000D+00 0.7610000D+00 0.7610000D+00
EXPONENTS  0.7610000D+00 0.7610000D+00 0.7610000D+00 0.7610000D+00 0.7610000D+00
EXPONENTS  0.2680000D+00 0.2680000D+00 0.2680000D+00 0.2680000D+00 0.2680000D+00
EXPONENTS  0.2680000D+00 0.2680000D+00 0.2680000D+00 0.2680000D+00 0.2680000D+00
EXPONENTS  0.8236000D+04 0.1235000D+04 0.2808000D+03 0.7927000D+02 0.2559000D+02
EXPONENTS  0.8997000D+01 0.3319000D+01 0.3643000D+00 0.8236000D+04 0.1235000D+04
EXPONENTS  0.2808000D+03 0.7927000D+02 0.2559000D+02 0.8997000D+01 0.3319000D+01
EXPONENTS  0.3643000D+00 0.9059000D+00 0.1285000D+00 0.4402000D-01 0.1871000D+02
EXPONENTS  0.4133000D+01 0.1200000D+01 0.1871000D+02 0.4133000D+01 0.1200000D+01
EXPONENTS  0.1871000D+02 0.4133000D+01 0.1200000D+01 0.3827000D+00 0.3827000D+00
EXPONENTS  0.3827000D+00 0.1209000D+00 0.1209000D+00 0.1209000D+00 0.3569000D-01
EXPONENTS  0.3569000D-01 0.3569000D-01 0.1097000D+01 0.1097000D+01 0.1097000D+01
EXPONENTS  0.1097000D+01 0.1097000D+01 0.1097000D+01 0.3180000D+00 0.3180000D+00
EXPONENTS  0.3180000D+00 0.3180000D+00 0.3180000D+00 0.3180000D+00 0.1000000D+00
EXPONENTS  0.1000000D+00 0.1000000D+00 0.1000000D+00 0.1000000D+00 0.1000000D+00
EXPONENTS  0.7610000D+00 0.7610000D+00 0.7610000D+00 0.7610000D+00 0.7610000D+00
EXPONENTS  0.7610000D+00 0.7610000D+00 0.7610000D+00 0.7610000D+00 0.7610000D+00
EXPONENTS  0.2680000D+00 0.2680000D+00 0.2680000D+00 0.2680000D+00 0.2680000D+00
EXPONENTS  0.2680000D+00 0.2680000D+00 0.2680000D+00 0.2680000D+00 0.2680000D+00
EXPONENTS  0.3387000D+02 0.5095000D+01 0.1159000D+01 0.3258000D+00 0.1027000D+00
EXPONENTS  0.2526000D-01 0.1407000D+01 0.1407000D+01 0.1407000D+01 0.3880000D+00
EXPONENTS  0.3880000D+00 0.3880000D+00 0.1020000D+00 0.1020000D+00 0.1020000D+00
EXPONENTS  0.1057000D+01 0.1057000D+01 0.1057000D+01 0.1057000D+01 0.1057000D+01
EXPONENTS  0.1057000D+01 0.2470000D+00 0.2470000D+00 0.2470000D+00 0.2470000D+00
EXPONENTS  0.2470000D+00 0.2470000D+00 0.3387000D+02 0.5095000D+01 0.1159000D+01
EXPONENTS  0.3258000D+00 0.1027000D+00 0.2526000D-01 0.1407000D+01 0.1407000D+01
EXPONENTS  0.1407000D+01 0.3880000D+00 0.3880000D+00 0.3880000D+00 0.1020000D+00
EXPONENTS  0.1020000D+00 0.1020000D+00 0.1057000D+01 0.1057000D+01 0.1057000D+01
EXPONENTS  0.1057000D+01 0.1057000D+01 0.1057000D+01 0.2470000D+00 0.2470000D+00
EXPONENTS  0.2470000D+00 0.2470000D+00 0.2470000D+00 0.2470000D+00 0.3387000D+02
EXPONENTS  0.5095000D+01 0.1159000D+01 0.3258000D+00 0.1027000D+00 0.2526000D-01
EXPONENTS  0.1407000D+01 0.1407000D+01 0.1407000D+01 0.3880000D+00 0.3880000D+00
EXPONENTS  0.3880000D+00 0.1020000D+00 0.1020000D+00 0.1020000D+00 0.1057000D+01
EXPONENTS  0.1057000D+01 0.1057000D+01 0.1057000D+01 0.1057000D+01 0.1057000D+01
EXPONENTS  0.2470000D+00 0.2470000D+00 0.2470000D+00 0.2470000D+00 0.2470000D+00
EXPONENTS  0.2470000D+00 0.3387000D+02 0.5095000D+01 0.1159000D+01 0.3258000D+00
EXPONENTS  0.1027000D+00 0.2526000D-01 0.1407000D+01 0.1407000D+01 0.1407000D+01
EXPONENTS  0.3880000D+00 0.3880000D+00 0.3880000D+00 0.1020000D+00 0.1020000D+00
EXPONENTS  0.1020000D+00 0.1057000D+01 0.1057000D+01 0.1057000D+01 0.1057000D+01
EXPONENTS  0.1057000D+01 0.1057000D+01 0.2470000D+00 0.2470000D+00 0.2470000D+00
EXPONENTS  0.2470000D+00 0.2470000D+00 0.2470000D+00 0.3387000D+02 0.5095000D+01
EXPONENTS  0.1159000D+01 0.3258000D+00 0.1027000D+00 0.2526000D-01 0.1407000D+01
EXPONENTS  0.1407000D+01 0.1407000D+01 0.3880000D+00 0.3880000D+00 0.3880000D+00
EXPONENTS  0.1020000D+00 0.1020000D+00 0.1020000D+00 0.1057000D+01 0.1057000D+01
EXPONENTS  0.1057000D+01 0.1057000D+01 0.1057000D+01 0.1057000D+01 0.2470000D+00
EXPONENTS  0.2470000D+00 0.2470000D+00 0.2470000D+00 0.2470000D+00 0.2470000D+00
EXPONENTS  0.3387000D+02 0.5095000D+01 0.1159000D+01 0.3258000D+00 0.1027000D+00
EXPONENTS  0.2526000D-01 0.1407000D+01 0.1407000D+01 0.1407000D+01 0.3880000D+00
EXPONENTS  0.3880000D+00 0.3880000D+00 0.1020000D+00 0.1020000D+00 0.1020000D+00
EXPONENTS  0.1057000D+01 0.1057000D+01 0.1057000D+01 0.1057000D+01 0.1057000D+01
EXPONENTS  0.1057000D+01 0.2470000D+00 0.2470000D+00 0.2470000D+00 0.2470000D+00
EXPONENTS  0.2470000D+00 0.2470000D+00
MO    1     MO 0.0        OCC NO =    2.0000000  ORB. ENERGY =  -18.939865
  0.49785651D+00  0.92794048D+00  0.15734796D+01  0.23815347D+01  0.29714599D+01
  0.25520878D+01  0.97979612D+00 -0.43826882D-02 -0.49687495D-03 -0.93190128D-03
 -0.15886874D-02 -0.24828092D-02 -0.33199889D-02 -0.35449741D-02 -0.21673277D-02
  0.14298712D-02  0.53709682D-01  0.16495241D-02  0.49080905D-03 -0.50610125D-02
 -0.49074797D-02 -0.33105568D-02  0.10310344D-02  0.99975658D-03  0.67442988D-03
  0.56691931D-02  0.54972103D-02  0.37083856D-02 -0.15148611D-03  0.32005296D-04
  0.16929926D-03  0.87461636D-03 -0.17779340D-03 -0.97870182D-03  0.19003755D-04
 -0.38403741D-05 -0.21263883D-04  0.12981539D-02 -0.26387140D-02  0.13405601D-02
  0.45747338D-03 -0.26228947D-02  0.23701404D-02 -0.32267882D-03  0.71661378D-03
 -0.39393496D-03  0.75049888D-05  0.10898527D-02 -0.59459774D-03 -0.98544156D-04
  0.24052491D-03 -0.14198076D-03  0.46169393D-04  0.49033966D-03 -0.18366701D-03
 -0.56973301D-04 -0.58973984D-04  0.39173562D-04  0.31476897D-03 -0.67627003D-04
  0.15803628D-03 -0.14384907D-03  0.24454895D-03 -0.27555697D-03 -0.13739226D-03
  0.10874416D-04  0.83287909D-04 -0.23827936D-04 -0.41567066D-03  0.32249800D-04
 -0.33483460D-03  0.38304741D-03 -0.28211353D-03  0.40631841D-03  0.27482542D-03
  0.62836833D-03  0.11714214D-02  0.19799086D-02  0.29764511D-02  0.36569141D-02
  0.30888486D-02  0.11650000D-02 -0.57656502D-05 -0.47779719D-03 -0.89458709D-03
 -0.15231111D-02 -0.23560212D-02 -0.31027971D-02 -0.32240049D-02 -0.20487104D-02
  0.13729981D-02  0.14265049D-02 -0.19514909D-02 -0.29531374D-03  0.60131681D-03
  0.56377273D-03  0.40143977D-03 -0.12298358D-03 -0.11530493D-03 -0.82103977D-04
 -0.67384506D-03 -0.63177258D-03 -0.44985971D-03  0.12810604D-02 -0.26168934D-03
 -0.14346580D-02 -0.19776236D-03  0.40684034D-04  0.22197853D-03 -0.17249372D-04
  0.34752416D-05  0.19238785D-04  0.12891712D-03 -0.44680261D-03  0.31788549D-03
 -0.32163315D-03 -0.15805793D-02  0.25762932D-03 -0.16862608D-03  0.42097378D-03
 -0.25234770D-03  0.95037066D-04  0.89882561D-03 -0.31672754D-03 -0.72525748D-05
  0.62624935D-04 -0.55372360D-04  0.92231210D-04  0.35562645D-03 -0.19193361D-04
  0.26302483D-03 -0.44653078D-04 -0.12742742D-03  0.15321834D-03  0.26699271D-03
  0.64752793D-03 -0.94229282D-03 -0.13303348D-03 -0.26524567D-03 -0.45342777D-03
  0.24111011D-03 -0.30637343D-04 -0.11970140D-03  0.89503068D-04  0.24797968D-03
  0.55125182D-03 -0.81283339D-03 -0.15606765D-03 -0.19214762D-03 -0.37954586D-03
  0.16559812D-03  0.30871255D-03  0.52177859D-03  0.78440413D-03  0.96373111D-03
  0.81402499D-03  0.30702027D-03 -0.15194605D-05 -0.11991492D-03 -0.22451856D-03
 -0.38226207D-03 -0.59130129D-03 -0.77872300D-03 -0.80914308D-03 -0.51417410D-03
  0.34458753D-03  0.18201946D-03 -0.22196702D-04  0.84718151D-04  0.12413725D-03
  0.11638656D-03  0.82874166D-04  0.44544348D-04  0.41763158D-04  0.29737856D-04
  0.83398395D-04  0.78191296D-04  0.55676861D-04 -0.47573460D-03 -0.44327250D-03
 -0.11884219D-02 -0.79454517D-04  0.51158557D-05  0.52465892D-04  0.66178381D-05
 -0.25413086D-05 -0.11226262D-04 -0.13104277D-03 -0.21965530D-03  0.35069807D-03
  0.24596672D-04 -0.63588768D-04  0.38833570D-03 -0.17382746D-03  0.58400159D-04
  0.11542730D-03  0.23351388D-03  0.91641383D-03  0.20334698D-03  0.39865121D-04
 -0.10381943D-04 -0.29483178D-04  0.48787488D-04  0.10388243D-03  0.64045209D-05
  0.12307529D-04 -0.11018243D-04 -0.14208890D-04  0.20561682D-03 -0.73511185D-05
  0.18473350D-03 -0.24253941D-03  0.40405849D-04 -0.14210683D-03 -0.20459621D-03
  0.78206578D-04 -0.47931358D-04 -0.26138958D-04 -0.15864377D-04  0.10826900D-03
  0.19920785D-03 -0.21875536D-03  0.35525073D-04 -0.12079098D-03 -0.10714457D-04
  0.16558587D-03  0.30868970D-03  0.52173998D-03  0.78434609D-03  0.96365980D-03
  0.81396475D-03  0.30699756D-03 -0.15193480D-05 -0.11990050D-03 -0.22449157D-03
 -0.38221610D-03 -0.59123019D-03 -0.77862937D-03 -0.80904579D-03 -0.51411228D-03
  0.34454609D-03  0.18185200D-03 -0.22896791D-04  0.83855605D-04 -0.10581102D-03
 -0.99204562D-04 -0.70639558D-04 -0.48364168D-04 -0.45344481D-04 -0.32287972D-04
 -0.10408754D-03 -0.97588685D-04 -0.69488957D-04  0.12999206D-02  0.27598966D-03
  0.26492085D-03 -0.41320481D-04  0.20702570D-04  0.82651937D-04  0.10491023D-04
 -0.97378267D-06 -0.80377659D-05  0.38439157D-03 -0.26197097D-03 -0.12242061D-03
  0.12853086D-03 -0.21921881D-03  0.68330175D-04  0.26634470D-03  0.22057272D-04
 -0.28840198D-03  0.31997119D-03  0.78093014D-03 -0.71054757D-04 -0.12278302D-04
 -0.61030172D-05  0.18381319D-04  0.38259405D-04  0.11953955D-03  0.38962869D-04
  0.41516983D-04 -0.55614180D-04  0.17179405D-05  0.11171093D-03  0.46707942D-04
  0.19180150D-03 -0.23626188D-03  0.12013460D-03 -0.19695533D-03 -0.86702062D-04
  0.45806274D-04  0.20479898D-04 -0.32124873D-04  0.12080531D-03  0.15606396D-04
  0.13338918D-03 -0.25822413D-03 -0.77046088D-04 -0.37014561D-04 -0.22481194D-03
 -0.27527330D-04 -0.49646674D-04 -0.73203991D-04  0.88101109D-04 -0.54449810D-03
 -0.29812173D-05 -0.69915197D-05  0.78993237D-06  0.72284859D-05  0.71528594D-03
  0.17451362D-03  0.21486146D-03  0.91348145D-04 -0.82693501D-06 -0.47226105D-04
  0.11603890D-03 -0.10105036D-03 -0.14988532D-04  0.23384812D-03  0.50311245D-03
  0.15500775D-03 -0.14468286D-04 -0.88143214D-05  0.23282608D-04  0.29139109D-04
  0.91125899D-04  0.38807432D-04  0.79489424D-05  0.14336245D-04  0.21138785D-04
  0.37218215D-03  0.22285590D-03  0.50010905D-05 -0.58498073D-05 -0.69333059D-04
  0.40607600D-04  0.10417621D-03 -0.25249305D-03 -0.11644509D-03 -0.10176099D-04
 -0.53884962D-04  0.27043561D-04 -0.68741661D-04  0.77891060D-04 -0.91493995D-05
 -0.14773973D-03  0.48677658D-04  0.71088959D-04 -0.83990640D-05  0.20945729D-04
 -0.12546665D-04 -0.50610275D-04  0.41669946D-04  0.23956237D-04  0.78191452D-05
  0.14102150D-04  0.20793612D-04  0.37429825D-03  0.22486018D-03  0.49705997D-05
 -0.28108827D-04  0.76349722D-04 -0.46439715D-05  0.42619287D-04  0.16049376D-03
 -0.24755606D-03 -0.26163584D-04  0.55178969D-04 -0.68847363D-05 -0.10105433D-03
  0.46835009D-04  0.54219320D-04  0.73432412D-04  0.99236891D-05 -0.12223763D-03
 -0.22885880D-04  0.14499130D-04  0.83867497D-05  0.49166713D-04  0.20453836D-04
 -0.41474956D-04 -0.27470929D-04 -0.49544951D-04 -0.73054002D-04  0.84652652D-04
 -0.54433818D-03 -0.29134360D-05 -0.62390286D-05  0.11994555D-05  0.72859094D-05
 -0.33162074D-03 -0.25067731D-03 -0.64335642D-03  0.34308780D-04 -0.24278038D-04
 -0.93961314D-04  0.80090357D-04 -0.97750735D-04  0.17660378D-04  0.22709810D-03
  0.51384647D-03  0.17665328D-03  0.40532842D-04 -0.13233101D-04 -0.27299741D-04
  0.40365713D-04  0.74343299D-04  0.45546775D-05  0.78326493D-05  0.14126506D-04
  0.20829524D-04  0.37503121D-03  0.22350148D-03  0.49971705D-05 -0.26799213D-04
  0.76627270D-04 -0.38217949D-05  0.14614109D-03  0.20290118D-03 -0.16351661D-03
 -0.15805159D-04  0.59371581D-04  0.17445392D-05  0.70660565D-05  0.29911151D-04
 -0.36977207D-04  0.76035259D-04 -0.13240249D-04 -0.20146035D-03 -0.33348874D-05
  0.41089714D-05 -0.77408400D-06  0.31506998D-04  0.25226989D-04 -0.67126385D-04
  0.78977073D-05  0.14243840D-04  0.21002534D-04  0.37342845D-03  0.22210017D-03
  0.49955563D-05 -0.50885937D-05 -0.69098849D-04  0.41599497D-04  0.20667696D-03
 -0.21185033D-03 -0.32916442D-04  0.28813032D-06 -0.49557744D-04  0.35904187D-04
  0.33301152D-04  0.78182182D-04 -0.11148333D-03 -0.10632258D-03  0.70457916D-05
  0.20479637D-04  0.46885798D-05  0.28787453D-04 -0.33476033D-04 -0.26091547D-04
  0.26827768D-04  0.29225387D-04
MO    2     MO 0.0        OCC NO =    2.0000000  ORB. ENERGY =  -10.124217
  0.65905074D-03  0.12283858D-02  0.20829353D-02  0.31526196D-02  0.39335487D-02
  0.33783938D-02  0.12970311D-02 -0.58016995D-05 -0.54000424D-03 -0.10127913D-02
 -0.17265872D-02 -0.26983197D-02 -0.36081676D-02 -0.38526818D-02 -0.23554541D-02
  0.15539856D-02  0.12018093D-02  0.23870408D-03  0.21276691D-02 -0.19084176D-02
 -0.18505231D-02 -0.12483519D-02  0.38868751D-03  0.37689614D-03  0.25425191D-03
  0.21382142D-02  0.20733485D-02  0.13986687D-02  0.19555424D-02 -0.39801260D-03
 -0.21910996D-02  0.30704126D-02 -0.62516108D-03 -0.34405328D-02 -0.20194601D-04
  0.41710539D-05  0.22727956D-04  0.22227692D-03 -0.62644423D-03  0.40416731D-03
 -0.26835071D-03 -0.16983191D-02  0.42549840D-03 -0.52816979D-03  0.15999894D-02
 -0.10718196D-02  0.85951183D-03  0.48336206D-02 -0.10240277D-02 -0.22170639D-03
  0.59445138D-03 -0.37274499D-03  0.20737156D-03  0.14773859D-02 -0.42080571D-03
 -0.32963828D-03  0.10646675D-03  0.14960979D-03 -0.44305729D-03 -0.32285784D-03
 -0.10291387D-02  0.14319721D-02  0.34576072D-05  0.58030933D-03  0.74212727D-03
 -0.17908132D-03  0.14259196D-03  0.62425150D-04 -0.66075351D-03 -0.15337581D-03
 -0.91875609D-03  0.11979975D-02 -0.27440008D-03  0.73148064D-03  0.69634173D-03
  0.33088373D+00  0.61684251D+00  0.10425725D+01  0.15673280D+01  0.19256435D+01
  0.16265138D+01  0.61346116D+00 -0.30360535D-02 -0.36976847D-02 -0.69232324D-02
 -0.11787395D-01 -0.18233308D-01 -0.24012626D-01 -0.24950656D-01 -0.15855022D-01
  0.10625667D-01  0.33522578D-01  0.12979425D-02 -0.11367108D-02  0.79384533D-03
  0.74428046D-03  0.52997202D-03 -0.15698738D-03 -0.14718565D-03 -0.10480495D-03
 -0.89418575D-03 -0.83835598D-03 -0.59695940D-03  0.28322054D-02 -0.58197573D-03
 -0.31691685D-02 -0.13919522D-02  0.28302857D-03  0.15637172D-02 -0.14139682D-04
  0.28693190D-05  0.15720887D-04  0.18859434D-02 -0.39098903D-02  0.20239469D-02
  0.50021031D-03 -0.44038750D-02  0.34424354D-02 -0.19479455D-03  0.89730951D-04
  0.10506360D-03 -0.67001769D-03 -0.17727351D-02 -0.31437354D-03 -0.75597859D-06
  0.15850684D-03 -0.15775086D-03  0.31079890D-03  0.11200658D-02 -0.21024405D-04
 -0.85808933D-03  0.22329980D-03  0.39941679D-03 -0.87551095D-03 -0.85517676D-03
 -0.24342643D-02  0.34497790D-02  0.18527737D-03  0.12360139D-02  0.17460217D-02
  0.37403874D-03 -0.98460743D-04 -0.17361864D-03  0.39130516D-03  0.37094451D-03
  0.10699797D-02 -0.15134214D-02 -0.75562286D-04 -0.54912379D-03 -0.76497924D-03
  0.50973387D-03  0.95025982D-03  0.16061065D-02  0.24145042D-02  0.29664973D-02
  0.25056812D-02  0.94505077D-03 -0.46771090D-05 -0.14752325D-03 -0.27621007D-03
 -0.47027128D-03 -0.72743816D-03 -0.95801047D-03 -0.99543424D-03 -0.63255378D-03
  0.42392283D-03  0.71742417D-03  0.35942957D-03  0.18096728D-03 -0.38811648D-04
 -0.36388387D-04 -0.25910700D-04 -0.20259760D-03 -0.18994813D-03 -0.13525438D-03
 -0.62619189D-03 -0.58709470D-03 -0.41804640D-03 -0.14994820D-02 -0.68372897D-03
 -0.14736679D-02  0.25419680D-03  0.23257842D-03  0.61670318D-03  0.16099236D-04
 -0.81329485D-05 -0.33414461D-04 -0.26935162D-03 -0.26214894D-03  0.53150057D-03
  0.24314695D-03  0.66650501D-03  0.67587906D-03 -0.35820015D-03  0.90994473D-03
 -0.55174458D-03 -0.86770583D-03 -0.13118364D-02 -0.12791717D-02  0.16229036D-03
 -0.78066341D-04 -0.84224022D-04  0.83989018D-04  0.34925043D-04  0.55809608D-05
 -0.43619839D-03 -0.21606141D-03  0.35911285D-03 -0.85451776D-04 -0.37625297D-03
 -0.79670097D-03  0.13940469D-02  0.10244372D-02 -0.28063760D-03  0.10092986D-02
  0.16551915D-03 -0.18867084D-03 -0.11399982D-04 -0.61903349D-03  0.36585092D-03
  0.15558024D-03  0.12247604D-03  0.20016159D-03 -0.12138029D-03  0.72876168D-03
  0.50954855D-03  0.94991435D-03  0.16055226D-02  0.24136264D-02  0.29654189D-02
  0.25047703D-02  0.94470720D-03 -0.46754086D-05 -0.14754423D-03 -0.27624936D-03
 -0.47033817D-03 -0.72754163D-03 -0.95814673D-03 -0.99557583D-03 -0.63264375D-03
  0.42398313D-03  0.71706793D-03  0.36556875D-03  0.18067168D-03  0.65136204D-03
  0.61069332D-03  0.43485002D-03  0.77041463D-04  0.72231268D-04  0.51432966D-04
 -0.60898143D-04 -0.57095880D-04 -0.40655668D-04  0.17548372D-02  0.63370219D-03
  0.11884395D-02 -0.67473008D-03 -0.14264165D-03 -0.14475503D-03  0.31948525D-04
 -0.16841670D-05 -0.20404803D-04  0.70058534D-03 -0.34226249D-03 -0.35832284D-03
  0.43848819D-03  0.37284704D-03  0.74630282D-04 -0.90939385D-03  0.95705109D-03
 -0.47657240D-04 -0.97726726D-03 -0.11470283D-02 -0.93403913D-03 -0.72587879D-04
 -0.58480733D-04  0.13106861D-03  0.37437479D-04  0.10579265D-03  0.15186825D-03
 -0.67569651D-03  0.15260700D-03  0.23570225D-03  0.68514649D-03 -0.81678183D-03
 -0.87191469D-03  0.13419430D-02  0.35896085D-03  0.16480793D-03  0.38298224D-04
 -0.51455872D-04  0.25270509D-03 -0.63462809D-04  0.26750348D-03 -0.22680367D-03
 -0.23348382D-03 -0.11313586D-03 -0.53131159D-03  0.42387224D-03 -0.63531454D-03
 -0.38377916D-04 -0.69216152D-04 -0.10205918D-03  0.40726276D-03 -0.28802092D-02
 -0.22738424D-04 -0.11766382D-03  0.54168989D-04  0.23041405D-03 -0.22573677D-03
  0.34150083D-03  0.11997240D-02 -0.18955254D-03 -0.11186749D-03 -0.27169114D-03
 -0.54110146D-03 -0.12285096D-03  0.66395242D-03 -0.29262317D-03 -0.58218781D-03
  0.43337497D-03 -0.24396092D-03  0.84305576D-04  0.15965534D-03 -0.10573586D-03
 -0.23912068D-04  0.42947628D-04 -0.30726628D-04 -0.55416739D-04 -0.81711950D-04
 -0.13336760D-02  0.49786163D-03  0.29234620D-04  0.16155972D-03  0.41320432D-04
  0.23226872D-03 -0.13388321D-02 -0.41435810D-03 -0.42391963D-03 -0.87950205D-04
 -0.10208247D-04 -0.55701811D-04 -0.66182156D-03  0.55377431D-03  0.10804725D-03
  0.14572847D-03  0.11829368D-03  0.34510542D-03 -0.18951861D-03  0.95171734D-04
  0.94346880D-04 -0.69659384D-05  0.46134780D-04  0.97750421D-04 -0.31270822D-04
 -0.56398215D-04 -0.83159135D-04 -0.13264954D-02  0.50081532D-03  0.29224464D-04
  0.14526361D-03  0.13890714D-03  0.20095136D-03 -0.13596339D-02 -0.26211783D-03
 -0.47201054D-03 -0.81897510D-04 -0.44866053D-04 -0.43303278D-04 -0.54963996D-03
  0.16479483D-03  0.38484512D-03 -0.54215252D-03  0.48265853D-03 -0.42466380D-03
 -0.17467207D-03  0.40106869D-04  0.13456521D-03 -0.94527623D-04  0.95554306D-04
 -0.15320713D-04 -0.38493595D-04 -0.69424785D-04 -0.10236680D-03  0.40630918D-03
 -0.28802893D-02 -0.22752294D-04 -0.21847147D-03  0.13629673D-04  0.14774615D-03
 -0.12009918D-02 -0.52068155D-04  0.40050988D-03  0.30924136D-03  0.89257747D-04
  0.13665944D-03  0.61280352D-03 -0.21751774D-03 -0.39528577D-03 -0.60381685D-04
 -0.93218069D-03 -0.28040989D-03  0.15249022D-03  0.51672614D-04 -0.20416284D-03
 -0.25466848D-04 -0.14410252D-03 -0.20311049D-03 -0.31167561D-04 -0.56211979D-04
 -0.82884531D-04 -0.13271160D-02  0.49844204D-03  0.29224544D-04 -0.25416584D-03
 -0.22453711D-04 -0.12634982D-03  0.66107012D-03  0.55464888D-03  0.11814475D-02
  0.66471324D-04  0.14820751D-04  0.78208477D-04  0.18501636D-03  0.45325545D-03
 -0.63827181D-03  0.46939907D-03 -0.16660418D-03 -0.34705391D-03  0.11182626D-03
  0.64503657D-04 -0.17632992D-03  0.81696154D-04 -0.49955160D-04 -0.11965885D-03
 -0.30850465D-04 -0.55640084D-04 -0.82041272D-04 -0.13301699D-02  0.49784166D-03
  0.29296813D-04 -0.24013984D-03 -0.12092572D-03 -0.96274490D-04  0.68329664D-03
  0.40317874D-03  0.12308096D-02  0.61560412D-04  0.50272501D-04  0.67125538D-04
  0.33934657D-03  0.12199166D-03 -0.46133823D-03 -0.51481736D-03  0.24160102D-03
 -0.80995157D-03  0.13407246D-03  0.20279966D-04 -0.15435243D-03 -0.60774413D-04
  0.73968029D-05 -0.17635646D-03
MO    3     MO 0.0        OCC NO =    2.0000000  ORB. ENERGY =  -10.040055
  0.31448467D-03  0.58615897D-03  0.99393140D-03  0.15043615D-02  0.18770039D-02
  0.16120960D-02  0.61891500D-03 -0.27684448D-05 -0.22662081D-03 -0.42503295D-03
 -0.72458800D-03 -0.11323900D-02 -0.15142212D-02 -0.16168352D-02 -0.98850135D-03
  0.65215315D-03  0.22341881D-03  0.33856249D-03  0.53876981D-03 -0.11378687D-03
 -0.11033499D-03 -0.74431332D-04  0.13805087D-03  0.13386291D-03  0.90303128D-04
  0.48666263D-03  0.47189905D-03  0.31834031D-03  0.19813066D-04 -0.12302508D-03
 -0.39429178D-03  0.73096386D-03 -0.29912151D-04 -0.43425386D-03 -0.64507482D-04
 -0.55861435D-05  0.12515567D-04  0.45664068D-03 -0.83438242D-03  0.37774175D-03
  0.69333180D-03  0.79689606D-03  0.10133366D-02 -0.26504940D-03  0.54818611D-03
 -0.28313671D-03 -0.40667326D-03 -0.40511657D-03 -0.66850365D-03 -0.21079373D-03
  0.22977512D-03 -0.18981381D-04 -0.11771599D-03  0.72769222D-04 -0.16794343D-03
 -0.25270695D-03  0.11766871D-04  0.16400507D-04  0.46297559D-03 -0.22787731D-03
  0.10810996D-03  0.29514527D-03  0.19257670D-03 -0.15731148D-03 -0.34750740D-04
  0.24206476D-03  0.25235610D-04 -0.88614934D-04 -0.35801299D-03  0.24778792D-03
  0.87734388D-04 -0.36818128D-03 -0.32349475D-03  0.17811041D-03 -0.53999683D-04
 -0.16429764D-03 -0.30628816D-03 -0.51768095D-03 -0.77824404D-03 -0.95616272D-03
 -0.80763227D-03 -0.30460918D-03  0.15075278D-05 -0.19723461D-03 -0.36928543D-03
 -0.62874004D-03 -0.97256523D-03 -0.12808342D-02 -0.13308688D-02 -0.84570736D-03
  0.56677341D-03  0.11171130D-02  0.53397633D-02  0.37887251D-03 -0.22269123D-03
 -0.20878718D-03 -0.14866891D-03  0.20689334D-03  0.19397566D-03  0.13812223D-03
  0.76441577D-03  0.71668837D-03  0.51032482D-03  0.72518972D-03 -0.20314183D-04
 -0.40503790D-03 -0.19756638D-02 -0.30049185D-03 -0.32189931D-04  0.52674992D-04
  0.16252505D-04  0.27077409D-04  0.24170864D-04  0.42850451D-04 -0.67021315D-04
  0.20725675D-03  0.65854496D-03  0.42764617D-04 -0.14257677D-03  0.27941978D-03
 -0.13684301D-03 -0.82118538D-03 -0.20633280D-02 -0.67170320D-03  0.14698663D-03
 -0.61643786D-05 -0.14082225D-03  0.11605029D-03  0.22453020D-03 -0.50974038D-04
  0.29126008D-03  0.21434811D-03 -0.29404125D-03 -0.21144467D-03  0.29558392D-03
  0.39778303D-03 -0.66233558D-03 -0.93862825D-03  0.48434070D-03 -0.47398449D-03
  0.52486822D-03  0.45686655D-04 -0.29943172D-03 -0.28812195D-03  0.57025924D-03
  0.80632016D-03 -0.12864827D-02 -0.70731920D-03  0.91975011D-04 -0.50471430D-03
  0.31766819D+00  0.59220574D+00  0.10009320D+01  0.15047287D+01  0.18487331D+01
  0.15615506D+01  0.58895944D+00 -0.29147931D-02 -0.38268735D-02 -0.71651147D-02