 Molden2AIM, Version 4.0.0 (06/02/2016)           Time: Sat Jun 30 06:26:50 2018
GAUSSIAN             21 MOL ORBITALS    618 PRIMITIVES       14 NUCLEI
  O    1    (CENTRE  1)  -0.00023244  0.00000000 -3.09075479  CHARGE =  8.0
  N    2    (CENTRE  2)  -0.00005291  0.00000000 -0.54116654  CHARGE =  7.0
  C    3    (CENTRE  3)   1.32641766 -2.29736273  0.40649899  CHARGE =  6.0
  C    4    (CENTRE  4)   1.32641766  2.29736273  0.40649899  CHARGE =  6.0
  C    5    (CENTRE  5)  -2.65281265  0.00000000  0.40654056  CHARGE =  6.0
  H    6    (CENTRE  6)   1.35731091 -2.35116323  2.48241983  CHARGE =  1.0
  H    7    (CENTRE  7)   1.35731091  2.35116323  2.48241983  CHARGE =  1.0
  H    8    (CENTRE  8)  -2.71478244  0.00000000  2.48247085  CHARGE =  1.0
  H    9    (CENTRE  9)   0.32331324 -3.92989335 -0.36686765  CHARGE =  1.0
  H   10    (CENTRE 10)   3.24188753  2.24462992 -0.36660687  CHARGE =  1.0
  H   11    (CENTRE 11)  -3.56498723 -1.68509335 -0.36669380  CHARGE =  1.0
  H   12    (CENTRE 12)   3.24188753 -2.24462992 -0.36660687  CHARGE =  1.0
  H   13    (CENTRE 13)   0.32331324  3.92989335 -0.36686765  CHARGE =  1.0
  H   14    (CENTRE 14)  -3.56498723  1.68509335 -0.36669380  CHARGE =  1.0
CENTRE ASSIGNMENTS    1  1  1  1  1  1  1  1  1  1  1  1  1  1  1  1  1  1  1  1
CENTRE ASSIGNMENTS    1  1  1  1  1  1  1  1  1  1  1  1  1  1  1  1  1  1  1  1
CENTRE ASSIGNMENTS    1  1  1  1  1  1  1  1  1  1  1  1  1  1  1  1  1  1  1  1
CENTRE ASSIGNMENTS    1  1  1  1  1  1  1  1  1  1  1  1  1  1  1  2  2  2  2  2
CENTRE ASSIGNMENTS    2  2  2  2  2  2  2  2  2  2  2  2  2  2  2  2  2  2  2  2
CENTRE ASSIGNMENTS    2  2  2  2  2  2  2  2  2  2  2  2  2  2  2  2  2  2  2  2
CENTRE ASSIGNMENTS    2  2  2  2  2  2  2  2  2  2  2  2  2  2  2  2  2  2  2  2
CENTRE ASSIGNMENTS    2  2  2  2  2  2  2  2  2  2  3  3  3  3  3  3  3  3  3  3
CENTRE ASSIGNMENTS    3  3  3  3  3  3  3  3  3  3  3  3  3  3  3  3  3  3  3  3
CENTRE ASSIGNMENTS    3  3  3  3  3  3  3  3  3  3  3  3  3  3  3  3  3  3  3  3
CENTRE ASSIGNMENTS    3  3  3  3  3  3  3  3  3  3  3  3  3  3  3  3  3  3  3  3
CENTRE ASSIGNMENTS    3  3  3  3  3  4  4  4  4  4  4  4  4  4  4  4  4  4  4  4
CENTRE ASSIGNMENTS    4  4  4  4  4  4  4  4  4  4  4  4  4  4  4  4  4  4  4  4
CENTRE ASSIGNMENTS    4  4  4  4  4  4  4  4  4  4  4  4  4  4  4  4  4  4  4  4
CENTRE ASSIGNMENTS    4  4  4  4  4  4  4  4  4  4  4  4  4  4  4  4  4  4  4  4
CENTRE ASSIGNMENTS    5  5  5  5  5  5  5  5  5  5  5  5  5  5  5  5  5  5  5  5
CENTRE ASSIGNMENTS    5  5  5  5  5  5  5  5  5  5  5  5  5  5  5  5  5  5  5  5
CENTRE ASSIGNMENTS    5  5  5  5  5  5  5  5  5  5  5  5  5  5  5  5  5  5  5  5
CENTRE ASSIGNMENTS    5  5  5  5  5  5  5  5  5  5  5  5  5  5  5  6  6  6  6  6
CENTRE ASSIGNMENTS    6  6  6  6  6  6  6  6  6  6  6  6  6  6  6  6  6  6  6  6
CENTRE ASSIGNMENTS    6  6  7  7  7  7  7  7  7  7  7  7  7  7  7  7  7  7  7  7
CENTRE ASSIGNMENTS    7  7  7  7  7  7  7  7  7  8  8  8  8  8  8  8  8  8  8  8
CENTRE ASSIGNMENTS    8  8  8  8  8  8  8  8  8  8  8  8  8  8  8  8  9  9  9  9
CENTRE ASSIGNMENTS    9  9  9  9  9  9  9  9  9  9  9  9  9  9  9  9  9  9  9  9
CENTRE ASSIGNMENTS    9  9  9 10 10 10 10 10 10 10 10 10 10 10 10 10 10 10 10 10
CENTRE ASSIGNMENTS   10 10 10 10 10 10 10 10 10 10 11 11 11 11 11 11 11 11 11 11
CENTRE ASSIGNMENTS   11 11 11 11 11 11 11 11 11 11 11 11 11 11 11 11 11 12 12 12
CENTRE ASSIGNMENTS   12 12 12 12 12 12 12 12 12 12 12 12 12 12 12 12 12 12 12 12
CENTRE ASSIGNMENTS   12 12 12 12 13 13 13 13 13 13 13 13 13 13 13 13 13 13 13 13
CENTRE ASSIGNMENTS   13 13 13 13 13 13 13 13 13 13 13 14 14 14 14 14 14 14 14 14
CENTRE ASSIGNMENTS   14 14 14 14 14 14 14 14 14 14 14 14 14 14 14 14 14 14
TYPE ASSIGNMENTS      1  1  1  1  1  1  1  1  1  1  1  1  1  1  1  1  1  1  1  2
TYPE ASSIGNMENTS      2  2  3  3  3  4  4  4  2  3  4  2  3  4  2  3  4  5  6  7
TYPE ASSIGNMENTS      8  9 10  5  6  7  8  9 10  5  6  7  8  9 10 11 12 13 17 14
TYPE ASSIGNMENTS     15 18 19 16 20 11 12 13 17 14 15 18 19 16 20  1  1  1  1  1
TYPE ASSIGNMENTS      1  1  1  1  1  1  1  1  1  1  1  1  1  1  2  2  2  3  3  3
TYPE ASSIGNMENTS      4  4  4  2  3  4  2  3  4  2  3  4  5  6  7  8  9 10  5  6
TYPE ASSIGNMENTS      7  8  9 10  5  6  7  8  9 10 11 12 13 17 14 15 18 19 16 20
TYPE ASSIGNMENTS     11 12 13 17 14 15 18 19 16 20  1  1  1  1  1  1  1  1  1  1
TYPE ASSIGNMENTS      1  1  1  1  1  1  1  1  1  2  2  2  3  3  3  4  4  4  2  3
TYPE ASSIGNMENTS      4  2  3  4  2  3  4  5  6  7  8  9 10  5  6  7  8  9 10  5
TYPE ASSIGNMENTS      6  7  8  9 10 11 12 13 17 14 15 18 19 16 20 11 12 13 17 14
TYPE ASSIGNMENTS     15 18 19 16 20  1  1  1  1  1  1  1  1  1  1  1  1  1  1  1
TYPE ASSIGNMENTS      1  1  1  1  2  2  2  3  3  3  4  4  4  2  3  4  2  3  4  2
TYPE ASSIGNMENTS      3  4  5  6  7  8  9 10  5  6  7  8  9 10  5  6  7  8  9 10
TYPE ASSIGNMENTS     11 12 13 17 14 15 18 19 16 20 11 12 13 17 14 15 18 19 16 20
TYPE ASSIGNMENTS      1  1  1  1  1  1  1  1  1  1  1  1  1  1  1  1  1  1  1  2
TYPE ASSIGNMENTS      2  2  3  3  3  4  4  4  2  3  4  2  3  4  2  3  4  5  6  7
TYPE ASSIGNMENTS      8  9 10  5  6  7  8  9 10  5  6  7  8  9 10 11 12 13 17 14
TYPE ASSIGNMENTS     15 18 19 16 20 11 12 13 17 14 15 18 19 16 20  1  1  1  1  1
TYPE ASSIGNMENTS      1  2  3  4  2  3  4  2  3  4  5  6  7  8  9 10  5  6  7  8
TYPE ASSIGNMENTS      9 10  1  1  1  1  1  1  2  3  4  2  3  4  2  3  4  5  6  7
TYPE ASSIGNMENTS      8  9 10  5  6  7  8  9 10  1  1  1  1  1  1  2  3  4  2  3
TYPE ASSIGNMENTS      4  2  3  4  5  6  7  8  9 10  5  6  7  8  9 10  1  1  1  1
TYPE ASSIGNMENTS      1  1  2  3  4  2  3  4  2  3  4  5  6  7  8  9 10  5  6  7
TYPE ASSIGNMENTS      8  9 10  1  1  1  1  1  1  2  3  4  2  3  4  2  3  4  5  6
TYPE ASSIGNMENTS      7  8  9 10  5  6  7  8  9 10  1  1  1  1  1  1  2  3  4  2
TYPE ASSIGNMENTS      3  4  2  3  4  5  6  7  8  9 10  5  6  7  8  9 10  1  1  1
TYPE ASSIGNMENTS      1  1  1  2  3  4  2  3  4  2  3  4  5  6  7  8  9 10  5  6
TYPE ASSIGNMENTS      7  8  9 10  1  1  1  1  1  1  2  3  4  2  3  4  2  3  4  5
TYPE ASSIGNMENTS      6  7  8  9 10  5  6  7  8  9 10  1  1  1  1  1  1  2  3  4
TYPE ASSIGNMENTS      2  3  4  2  3  4  5  6  7  8  9 10  5  6  7  8  9 10
EXPONENTS  0.1533000D+05 0.2299000D+04 0.5224000D+03 0.1473000D+03 0.4755000D+02
EXPONENTS  0.1676000D+02 0.6207000D+01 0.6882000D+00 0.1533000D+05 0.2299000D+04
EXPONENTS  0.5224000D+03 0.1473000D+03 0.4755000D+02 0.1676000D+02 0.6207000D+01
EXPONENTS  0.6882000D+00 0.1752000D+01 0.2384000D+00 0.7376000D-01 0.3446000D+02
EXPONENTS  0.7749000D+01 0.2280000D+01 0.3446000D+02 0.7749000D+01 0.2280000D+01
EXPONENTS  0.3446000D+02 0.7749000D+01 0.2280000D+01 0.7156000D+00 0.7156000D+00
EXPONENTS  0.7156000D+00 0.2140000D+00 0.2140000D+00 0.2140000D+00 0.5974000D-01
EXPONENTS  0.5974000D-01 0.5974000D-01 0.2314000D+01 0.2314000D+01 0.2314000D+01
EXPONENTS  0.2314000D+01 0.2314000D+01 0.2314000D+01 0.6450000D+00 0.6450000D+00
EXPONENTS  0.6450000D+00 0.6450000D+00 0.6450000D+00 0.6450000D+00 0.2140000D+00
EXPONENTS  0.2140000D+00 0.2140000D+00 0.2140000D+00 0.2140000D+00 0.2140000D+00
EXPONENTS  0.1428000D+01 0.1428000D+01 0.1428000D+01 0.1428000D+01 0.1428000D+01
EXPONENTS  0.1428000D+01 0.1428000D+01 0.1428000D+01 0.1428000D+01 0.1428000D+01
EXPONENTS  0.5000000D+00 0.5000000D+00 0.5000000D+00 0.5000000D+00 0.5000000D+00
EXPONENTS  0.5000000D+00 0.5000000D+00 0.5000000D+00 0.5000000D+00 0.5000000D+00
EXPONENTS  0.1142000D+05 0.1712000D+04 0.3893000D+03 0.1100000D+03 0.3557000D+02
EXPONENTS  0.1254000D+02 0.4644000D+01 0.5118000D+00 0.1142000D+05 0.1712000D+04
EXPONENTS  0.3893000D+03 0.1100000D+03 0.3557000D+02 0.1254000D+02 0.4644000D+01
EXPONENTS  0.5118000D+00 0.1293000D+01 0.1787000D+00 0.5760000D-01 0.2663000D+02
EXPONENTS  0.5948000D+01 0.1742000D+01 0.2663000D+02 0.5948000D+01 0.1742000D+01
EXPONENTS  0.2663000D+02 0.5948000D+01 0.1742000D+01 0.5550000D+00 0.5550000D+00
EXPONENTS  0.5550000D+00 0.1725000D+00 0.1725000D+00 0.1725000D+00 0.4910000D-01
EXPONENTS  0.4910000D-01 0.4910000D-01 0.1654000D+01 0.1654000D+01 0.1654000D+01
EXPONENTS  0.1654000D+01 0.1654000D+01 0.1654000D+01 0.4690000D+00 0.4690000D+00
EXPONENTS  0.4690000D+00 0.4690000D+00 0.4690000D+00 0.4690000D+00 0.1510000D+00
EXPONENTS  0.1510000D+00 0.1510000D+00 0.1510000D+00 0.1510000D+00 0.1510000D+00
EXPONENTS  0.1093000D+01 0.1093000D+01 0.1093000D+01 0.1093000D+01 0.1093000D+01
EXPONENTS  0.1093000D+01 0.1093000D+01 0.1093000D+01 0.1093000D+01 0.1093000D+01
EXPONENTS  0.3640000D+00 0.3640000D+00 0.3640000D+00 0.3640000D+00 0.3640000D+00
EXPONENTS  0.3640000D+00 0.3640000D+00 0.3640000D+00 0.3640000D+00 0.3640000D+00
EXPONENTS  0.8236000D+04 0.1235000D+04 0.2808000D+03 0.7927000D+02 0.2559000D+02
EXPONENTS  0.8997000D+01 0.3319000D+01 0.3643000D+00 0.8236000D+04 0.1235000D+04
EXPONENTS  0.2808000D+03 0.7927000D+02 0.2559000D+02 0.8997000D+01 0.3319000D+01
EXPONENTS  0.3643000D+00 0.9059000D+00 0.1285000D+00 0.4402000D-01 0.1871000D+02
EXPONENTS  0.4133000D+01 0.1200000D+01 0.1871000D+02 0.4133000D+01 0.1200000D+01
EXPONENTS  0.1871000D+02 0.4133000D+01 0.1200000D+01 0.3827000D+00 0.3827000D+00
EXPONENTS  0.3827000D+00 0.1209000D+00 0.1209000D+00 0.1209000D+00 0.3569000D-01
EXPONENTS  0.3569000D-01 0.3569000D-01 0.1097000D+01 0.1097000D+01 0.1097000D+01
EXPONENTS  0.1097000D+01 0.1097000D+01 0.1097000D+01 0.3180000D+00 0.3180000D+00
EXPONENTS  0.3180000D+00 0.3180000D+00 0.3180000D+00 0.3180000D+00 0.1000000D+00
EXPONENTS  0.1000000D+00 0.1000000D+00 0.1000000D+00 0.1000000D+00 0.1000000D+00
EXPONENTS  0.7610000D+00 0.7610000D+00 0.7610000D+00 0.7610000D+00 0.7610000D+00
EXPONENTS  0.7610000D+00 0.7610000D+00 0.7610000D+00 0.7610000D+00 0.7610000D+00
EXPONENTS  0.2680000D+00 0.2680000D+00 0.2680000D+00 0.2680000D+00 0.2680000D+00
EXPONENTS  0.2680000D+00 0.2680000D+00 0.2680000D+00 0.2680000D+00 0.2680000D+00
EXPONENTS  0.8236000D+04 0.1235000D+04 0.2808000D+03 0.7927000D+02 0.2559000D+02
EXPONENTS  0.8997000D+01 0.3319000D+01 0.3643000D+00 0.8236000D+04 0.1235000D+04
EXPONENTS  0.2808000D+03 0.7927000D+02 0.2559000D+02 0.8997000D+01 0.3319000D+01
EXPONENTS  0.3643000D+00 0.9059000D+00 0.1285000D+00 0.4402000D-01 0.1871000D+02
EXPONENTS  0.4133000D+01 0.1200000D+01 0.1871000D+02 0.4133000D+01 0.1200000D+01
EXPONENTS  0.1871000D+02 0.4133000D+01 0.1200000D+01 0.3827000D+00 0.3827000D+00
EXPONENTS  0.3827000D+00 0.1209000D+00 0.1209000D+00 0.1209000D+00 0.3569000D-01
EXPONENTS  0.3569000D-01 0.3569000D-01 0.1097000D+01 0.1097000D+01 0.1097000D+01
EXPONENTS  0.1097000D+01 0.1097000D+01 0.1097000D+01 0.3180000D+00 0.3180000D+00
EXPONENTS  0.3180000D+00 0.3180000D+00 0.3180000D+00 0.3180000D+00 0.1000000D+00
EXPONENTS  0.1000000D+00 0.1000000D+00 0.1000000D+00 0.1000000D+00 0.1000000D+00
EXPONENTS  0.7610000D+00 0.7610000D+00 0.7610000D+00 0.7610000D+00 0.7610000D+00
EXPONENTS  0.7610000D+00 0.7610000D+00 0.7610000D+00 0.7610000D+00 0.7610000D+00
EXPONENTS  0.2680000D+00 0.2680000D+00 0.2680000D+00 0.2680000D+00 0.2680000D+00
EXPONENTS  0.2680000D+00 0.2680000D+00 0.2680000D+00 0.2680000D+00 0.2680000D+00
EXPONENTS  0.8236000D+04 0.1235000D+04 0.2808000D+03 0.7927000D+02 0.2559000D+02
EXPONENTS  0.8997000D+01 0.3319000D+01 0.3643000D+00 0.8236000D+04 0.1235000D+04
EXPONENTS  0.2808000D+03 0.7927000D+02 0.2559000D+02 0.8997000D+01 0.3319000D+01
EXPONENTS  0.3643000D+00 0.9059000D+00 0.1285000D+00 0.4402000D-01 0.1871000D+02
EXPONENTS  0.4133000D+01 0.1200000D+01 0.1871000D+02 0.4133000D+01 0.1200000D+01
EXPONENTS  0.1871000D+02 0.4133000D+01 0.1200000D+01 0.3827000D+00 0.3827000D+00
EXPONENTS  0.3827000D+00 0.1209000D+00 0.1209000D+00 0.1209000D+00 0.3569000D-01
EXPONENTS  0.3569000D-01 0.3569000D-01 0.1097000D+01 0.1097000D+01 0.1097000D+01
EXPONENTS  0.1097000D+01 0.1097000D+01 0.1097000D+01 0.3180000D+00 0.3180000D+00
EXPONENTS  0.3180000D+00 0.3180000D+00 0.3180000D+00 0.3180000D+00 0.1000000D+00
EXPONENTS  0.1000000D+00 0.1000000D+00 0.1000000D+00 0.1000000D+00 0.1000000D+00
EXPONENTS  0.7610000D+00 0.7610000D+00 0.7610000D+00 0.7610000D+00 0.7610000D+00
EXPONENTS  0.7610000D+00 0.7610000D+00 0.7610000D+00 0.7610000D+00 0.7610000D+00
EXPONENTS  0.2680000D+00 0.2680000D+00 0.2680000D+00 0.2680000D+00 0.2680000D+00
EXPONENTS  0.2680000D+00 0.2680000D+00 0.2680000D+00 0.2680000D+00 0.2680000D+00
EXPONENTS  0.3387000D+02 0.5095000D+01 0.1159000D+01 0.3258000D+00 0.1027000D+00
EXPONENTS  0.2526000D-01 0.1407000D+01 0.1407000D+01 0.1407000D+01 0.3880000D+00
EXPONENTS  0.3880000D+00 0.3880000D+00 0.1020000D+00 0.1020000D+00 0.1020000D+00
EXPONENTS  0.1057000D+01 0.1057000D+01 0.1057000D+01 0.1057000D+01 0.1057000D+01
EXPONENTS  0.1057000D+01 0.2470000D+00 0.2470000D+00 0.2470000D+00 0.2470000D+00
EXPONENTS  0.2470000D+00 0.2470000D+00 0.3387000D+02 0.5095000D+01 0.1159000D+01
EXPONENTS  0.3258000D+00 0.1027000D+00 0.2526000D-01 0.1407000D+01 0.1407000D+01
EXPONENTS  0.1407000D+01 0.3880000D+00 0.3880000D+00 0.3880000D+00 0.1020000D+00
EXPONENTS  0.1020000D+00 0.1020000D+00 0.1057000D+01 0.1057000D+01 0.1057000D+01
EXPONENTS  0.1057000D+01 0.1057000D+01 0.1057000D+01 0.2470000D+00 0.2470000D+00
EXPONENTS  0.2470000D+00 0.2470000D+00 0.2470000D+00 0.2470000D+00 0.3387000D+02
EXPONENTS  0.5095000D+01 0.1159000D+01 0.3258000D+00 0.1027000D+00 0.2526000D-01
EXPONENTS  0.1407000D+01 0.1407000D+01 0.1407000D+01 0.3880000D+00 0.3880000D+00
EXPONENTS  0.3880000D+00 0.1020000D+00 0.1020000D+00 0.1020000D+00 0.1057000D+01
EXPONENTS  0.1057000D+01 0.1057000D+01 0.1057000D+01 0.1057000D+01 0.1057000D+01
EXPONENTS  0.2470000D+00 0.2470000D+00 0.2470000D+00 0.2470000D+00 0.2470000D+00
EXPONENTS  0.2470000D+00 0.3387000D+02 0.5095000D+01 0.1159000D+01 0.3258000D+00
EXPONENTS  0.1027000D+00 0.2526000D-01 0.1407000D+01 0.1407000D+01 0.1407000D+01
EXPONENTS  0.3880000D+00 0.3880000D+00 0.3880000D+00 0.1020000D+00 0.1020000D+00
EXPONENTS  0.1020000D+00 0.1057000D+01 0.1057000D+01 0.1057000D+01 0.1057000D+01
EXPONENTS  0.1057000D+01 0.1057000D+01 0.2470000D+00 0.2470000D+00 0.2470000D+00
EXPONENTS  0.2470000D+00 0.2470000D+00 0.2470000D+00 0.3387000D+02 0.5095000D+01
EXPONENTS  0.1159000D+01 0.3258000D+00 0.1027000D+00 0.2526000D-01 0.1407000D+01
EXPONENTS  0.1407000D+01 0.1407000D+01 0.3880000D+00 0.3880000D+00 0.3880000D+00
EXPONENTS  0.1020000D+00 0.1020000D+00 0.1020000D+00 0.1057000D+01 0.1057000D+01
EXPONENTS  0.1057000D+01 0.1057000D+01 0.1057000D+01 0.1057000D+01 0.2470000D+00
EXPONENTS  0.2470000D+00 0.2470000D+00 0.2470000D+00 0.2470000D+00 0.2470000D+00
EXPONENTS  0.3387000D+02 0.5095000D+01 0.1159000D+01 0.3258000D+00 0.1027000D+00
EXPONENTS  0.2526000D-01 0.1407000D+01 0.1407000D+01 0.1407000D+01 0.3880000D+00
EXPONENTS  0.3880000D+00 0.3880000D+00 0.1020000D+00 0.1020000D+00 0.1020000D+00
EXPONENTS  0.1057000D+01 0.1057000D+01 0.1057000D+01 0.1057000D+01 0.1057000D+01
EXPONENTS  0.1057000D+01 0.2470000D+00 0.2470000D+00 0.2470000D+00 0.2470000D+00
EXPONENTS  0.2470000D+00 0.2470000D+00 0.3387000D+02 0.5095000D+01 0.1159000D+01
EXPONENTS  0.3258000D+00 0.1027000D+00 0.2526000D-01 0.1407000D+01 0.1407000D+01
EXPONENTS  0.1407000D+01 0.3880000D+00 0.3880000D+00 0.3880000D+00 0.1020000D+00
EXPONENTS  0.1020000D+00 0.1020000D+00 0.1057000D+01 0.1057000D+01 0.1057000D+01
EXPONENTS  0.1057000D+01 0.1057000D+01 0.1057000D+01 0.2470000D+00 0.2470000D+00
EXPONENTS  0.2470000D+00 0.2470000D+00 0.2470000D+00 0.2470000D+00 0.3387000D+02
EXPONENTS  0.5095000D+01 0.1159000D+01 0.3258000D+00 0.1027000D+00 0.2526000D-01
EXPONENTS  0.1407000D+01 0.1407000D+01 0.1407000D+01 0.3880000D+00 0.3880000D+00
EXPONENTS  0.3880000D+00 0.1020000D+00 0.1020000D+00 0.1020000D+00 0.1057000D+01
EXPONENTS  0.1057000D+01 0.1057000D+01 0.1057000D+01 0.1057000D+01 0.1057000D+01
EXPONENTS  0.2470000D+00 0.2470000D+00 0.2470000D+00 0.2470000D+00 0.2470000D+00
EXPONENTS  0.2470000D+00 0.3387000D+02 0.5095000D+01 0.1159000D+01 0.3258000D+00
EXPONENTS  0.1027000D+00 0.2526000D-01 0.1407000D+01 0.1407000D+01 0.1407000D+01
EXPONENTS  0.3880000D+00 0.3880000D+00 0.3880000D+00 0.1020000D+00 0.1020000D+00
EXPONENTS  0.1020000D+00 0.1057000D+01 0.1057000D+01 0.1057000D+01 0.1057000D+01
EXPONENTS  0.1057000D+01 0.1057000D+01 0.2470000D+00 0.2470000D+00 0.2470000D+00
EXPONENTS  0.2470000D+00 0.2470000D+00 0.2470000D+00
MO    1     MO 0.0        OCC NO =    2.0000000  ORB. ENERGY =  -18.864546
  0.49782893D+00  0.92788907D+00  0.15733924D+01  0.23814027D+01  0.29712953D+01
  0.25519464D+01  0.97974184D+00 -0.43824454D-02 -0.45541908D-03 -0.85414978D-03
 -0.14561381D-02 -0.22756604D-02 -0.30429916D-02 -0.32492056D-02 -0.19865006D-02
  0.13105724D-02  0.53637976D-01 -0.47579709D-02 -0.29626497D-03  0.30432581D-06
  0.29509367D-06  0.19906845D-06  0.96049933D-14  0.93136125D-14  0.62829080D-14
  0.91166930D-02  0.88401255D-02  0.59634965D-02 -0.26904330D-06 -0.11197267D-14
 -0.14398055D-02  0.12012480D-06 -0.71692206D-14 -0.27648712D-02 -0.22662097D-07
  0.23564076D-13  0.26400091D-04 -0.31115131D-04 -0.31301115D-04  0.62416246D-04
  0.22440699D-14 -0.23301486D-05 -0.17171768D-13  0.51807896D-03  0.51817946D-03
 -0.10362584D-02 -0.60915560D-14 -0.52744653D-07  0.37624140D-14  0.20825194D-03
  0.20823228D-03 -0.41648422D-03  0.10544062D-13  0.21985747D-07 -0.23458882D-13
  0.94418632D-04 -0.11524767D-14 -0.30567599D-03 -0.28338627D-03 -0.15472102D-13
  0.45845413D-03  0.13037615D-06  0.18929533D-13  0.45857385D-03 -0.22558421D-13
 -0.16851568D-04  0.22432246D-14 -0.24171085D-03  0.50632631D-04  0.84679734D-14
  0.36254787D-03 -0.77927234D-07 -0.15197647D-13  0.36258469D-03  0.22051856D-14
 -0.46026869D-04 -0.85764293D-04 -0.14504892D-03 -0.21843564D-03 -0.27043749D-03
 -0.23013010D-03 -0.87568748D-04  0.41012181D-06  0.39572177D-04  0.74198202D-04
  0.12623322D-03  0.19602686D-03  0.26013905D-03  0.27415084D-03  0.16999101D-03
 -0.11307809D-03 -0.64724854D-03  0.82603529D-02 -0.51075122D-02  0.55118289D-07
  0.52940457D-07  0.37125503D-07 -0.95513116D-14 -0.91739206D-14 -0.64333864D-14
  0.79838553D-03  0.76683976D-03  0.53776097D-03 -0.46034340D-07  0.10135850D-13
 -0.17787713D-02 -0.11194241D-05 -0.39256896D-13 -0.28109629D-02  0.12038927D-06
 -0.10736892D-12 -0.52964032D-03 -0.74331937D-03 -0.74321409D-03  0.14865335D-02
  0.34330594D-13  0.24719025D-06  0.37280513D-13 -0.16512749D-03 -0.16521698D-03
  0.33034447D-03 -0.39426585D-13  0.17016672D-06 -0.43683118D-13 -0.17078114D-03
 -0.17078836D-03  0.34156950D-03 -0.10339758D-12  0.24602234D-06 -0.11681071D-13
  0.35670507D-04 -0.17683167D-14 -0.91576390D-03 -0.10659450D-03 -0.82624510D-15
  0.13737179D-02 -0.41701996D-06  0.61311952D-14  0.13735738D-02  0.12514457D-13
 -0.15399208D-03  0.52662283D-14  0.27020162D-03  0.46180781D-03 -0.18160079D-13
 -0.40536204D-03  0.16843192D-06  0.23613938D-14 -0.40524280D-03 -0.38132456D-13
  0.11151392D-03  0.20788730D-03  0.35136616D-03  0.52821843D-03  0.64897738D-03
  0.54816514D-03  0.20674772D-03 -0.10232060D-05 -0.85131600D-04 -0.15939322D-03
 -0.27138059D-03 -0.41978450D-03 -0.55284142D-03 -0.57443765D-03 -0.36502934D-03
  0.24463417D-03  0.39331443D-03 -0.21441021D-02  0.42569727D-03 -0.61404869D-04
 -0.57570968D-04 -0.40993959D-04  0.10637819D-03  0.99736312D-04  0.71018195D-04
 -0.64762132D-04 -0.60718615D-04 -0.43235271D-04  0.88863268D-04 -0.15409483D-03
 -0.12758919D-03 -0.14289363D-04  0.24163940D-04  0.41397182D-04 -0.94702439D-05
  0.16387511D-04  0.33892801D-04 -0.36956244D-04 -0.34251463D-04  0.71207708D-04
 -0.47523424D-05  0.60434832D-05 -0.10353045D-04  0.22241802D-03  0.15943543D-03
 -0.38185345D-03  0.10972558D-03 -0.82816223D-04  0.14360347D-03  0.26600994D-04
  0.54395483D-05 -0.32040542D-04  0.36744620D-04  0.44776170D-05 -0.77768022D-05
 -0.12500638D-03  0.12209489D-03 -0.41009305D-04  0.93053775D-04  0.12207814D-03
 -0.32629914D-04  0.28196537D-03 -0.48836281D-03  0.15565783D-03 -0.32641736D-03
 -0.81198196D-04  0.42587382D-04 -0.56325053D-04  0.14520487D-03  0.42579378D-04
  0.10353293D-03  0.98389715D-04 -0.17034152D-03  0.65442224D-04  0.65823321D-04
  0.11151392D-03  0.20788730D-03  0.35136616D-03  0.52821843D-03  0.64897738D-03
  0.54816514D-03  0.20674772D-03 -0.10232060D-05 -0.85131600D-04 -0.15939322D-03
 -0.27138059D-03 -0.41978450D-03 -0.55284142D-03 -0.57443765D-03 -0.36502934D-03
  0.24463417D-03  0.39331443D-03 -0.21441021D-02  0.42569727D-03 -0.61404869D-04
 -0.57570968D-04 -0.40993959D-04 -0.10637819D-03 -0.99736312D-04 -0.71018195D-04
 -0.64762132D-04 -0.60718615D-04 -0.43235271D-04  0.88863268D-04  0.15409483D-03
 -0.12758919D-03 -0.14289363D-04 -0.24163939D-04  0.41397181D-04 -0.94702439D-05
 -0.16387511D-04  0.33892801D-04 -0.36956244D-04 -0.34251463D-04  0.71207708D-04
  0.47523424D-05  0.60434832D-05  0.10353045D-04  0.22241802D-03  0.15943543D-03
 -0.38185345D-03 -0.10972558D-03 -0.82816223D-04 -0.14360347D-03  0.26600994D-04
  0.54395484D-05 -0.32040542D-04 -0.36744620D-04  0.44776172D-05  0.77768021D-05
 -0.12500638D-03 -0.12209489D-03 -0.41009305D-04  0.93053775D-04 -0.12207814D-03
 -0.32629914D-04  0.28196537D-03  0.48836281D-03  0.15565783D-03  0.32641736D-03
 -0.81198196D-04 -0.42587382D-04 -0.56325053D-04  0.14520487D-03 -0.42579378D-04
  0.10353293D-03  0.98389715D-04  0.17034152D-03  0.65442224D-04 -0.65823321D-04
  0.11156497D-03  0.20798246D-03  0.35152700D-03  0.52846022D-03  0.64927444D-03
  0.54841606D-03  0.20684236D-03 -0.10236744D-05 -0.85170718D-04 -0.15946646D-03
 -0.27150529D-03 -0.41997740D-03 -0.55309546D-03 -0.57470161D-03 -0.36519707D-03
  0.24474659D-03  0.39351936D-03 -0.21462544D-02  0.42602529D-03  0.12285013D-03
  0.11517981D-03  0.82014886D-04 -0.23014677D-16 -0.21577723D-16 -0.15364624D-16
 -0.64818301D-04 -0.60771277D-04 -0.43272770D-04 -0.17798947D-03 -0.91316612D-14
 -0.12748723D-03  0.27729967D-04 -0.24402025D-12  0.41560899D-04  0.18943137D-04
  0.37606368D-14  0.33885410D-04 -0.32930573D-04 -0.38299531D-04  0.71230104D-04
 -0.24171879D-14 -0.11904873D-04 -0.63548563D-14  0.12782024D-03  0.25426150D-03
 -0.38208173D-03  0.54651806D-14  0.16601786D-03  0.85154287D-14 -0.51868677D-05
  0.37261672D-04 -0.32074804D-04  0.71943402D-13 -0.89602372D-05  0.85097090D-13
  0.86490312D-04  0.22651962D-14 -0.41010936D-04  0.30454873D-03 -0.18699598D-13
  0.24996876D-03 -0.56401967D-03  0.11904009D-13 -0.12693595D-03 -0.16782891D-13
 -0.74123283D-05 -0.35193635D-14 -0.56400378D-04  0.21893200D-03  0.46761455D-14
  0.46551986D-04 -0.19669501D-03  0.58819450D-14  0.12264915D-03  0.76823390D-14
 -0.60769470D-05 -0.10960024D-04 -0.16160549D-04  0.12507162D-02  0.12932151D-02
 -0.42385594D-04  0.45623752D-04 -0.79040899D-04 -0.88076882D-04 -0.26116396D-03
  0.45246212D-03 -0.49082722D-03 -0.95925674D-04  0.16620994D-03 -0.95039126D-04
 -0.28911631D-04 -0.73964223D-05  0.36308053D-04 -0.37069009D-04  0.24923750D-03
 -0.43177827D-03  0.37005522D-05  0.28191041D-04 -0.31891593D-04 -0.42403093D-04
  0.28030983D-04 -0.48547181D-04 -0.60769470D-05 -0.10960024D-04 -0.16160549D-04
  0.12507162D-02  0.12932151D-02 -0.42385594D-04  0.45623752D-04  0.79040899D-04
 -0.88076882D-04 -0.26116396D-03 -0.45246212D-03 -0.49082722D-03 -0.95925674D-04
 -0.16620994D-03 -0.95039126D-04 -0.28911631D-04 -0.73964223D-05  0.36308053D-04
  0.37069008D-04  0.24923750D-03  0.43177827D-03  0.37005522D-05  0.28191041D-04
 -0.31891593D-04  0.42403093D-04  0.28030983D-04  0.48547181D-04 -0.60748550D-05
 -0.10956251D-04 -0.16154986D-04  0.12517491D-02  0.12937131D-02 -0.42377047D-04
 -0.91256448D-04 -0.53121316D-14 -0.88126891D-04  0.52234544D-03 -0.90649074D-15
 -0.49109844D-03  0.19193365D-03 -0.69626777D-13 -0.95101742D-04  0.32498792D-05
 -0.39583460D-04  0.36333581D-04  0.94715731D-14 -0.49846892D-03  0.85525577D-14
  0.40433824D-04 -0.85371984D-05 -0.31896625D-04 -0.12667458D-13 -0.56029875D-04
 -0.61323547D-15 -0.30023734D-05 -0.54149041D-05 -0.79842730D-05  0.62601437D-03
  0.94642765D-03  0.84683892D-05  0.78510490D-04  0.70930894D-04  0.71952075D-06
 -0.10321518D-04  0.31928628D-04  0.54569069D-04  0.25036411D-04  0.16991475D-03
 -0.18800953D-04 -0.19537693D-04 -0.20763570D-04  0.40301262D-04 -0.34833794D-05
  0.16906159D-03 -0.66762447D-04  0.32472188D-05 -0.26068730D-04  0.22821511D-04
 -0.40835798D-04  0.25545125D-04 -0.36264901D-04 -0.30094990D-05 -0.54277554D-05
 -0.80032221D-05  0.62674589D-03  0.94726048D-03  0.84867509D-05 -0.10071835D-03
  0.32635438D-04  0.80888266D-06 -0.22800824D-04 -0.24751936D-04  0.54561229D-04
 -0.15980299D-03 -0.63218586D-04 -0.18719752D-04 -0.21888638D-04 -0.18337929D-04
  0.40226567D-04  0.54236846D-06 -0.26721758D-04  0.17988744D-03 -0.36439938D-04
  0.13608427D-04  0.22831512D-04 -0.49490414D-05  0.18638242D-04  0.40309116D-04
 -0.30013609D-05 -0.54130781D-05 -0.79815804D-05  0.62662607D-03  0.94709179D-03
  0.84811674D-05  0.22213475D-04  0.10351662D-03  0.73849787D-06  0.32852879D-04
  0.72200134D-05  0.54504270D-04  0.13471092D-03  0.10674101D-03 -0.18804141D-04
 -0.18950754D-04 -0.21296350D-04  0.40247104D-04 -0.27920312D-05 -0.14237662D-03
  0.11305546D-03 -0.10409180D-05 -0.21762987D-04  0.22803905D-04 -0.45864200D-04
 -0.44163808D-04  0.39894989D-05 -0.30094990D-05 -0.54277554D-05 -0.80032221D-05
  0.62674589D-03  0.94726048D-03  0.84867509D-05 -0.10071835D-03 -0.32635438D-04
  0.80888265D-06 -0.22800824D-04  0.24751936D-04  0.54561229D-04 -0.15980299D-03
  0.63218586D-04 -0.18719752D-04 -0.21888638D-04 -0.18337929D-04  0.40226567D-04
 -0.54236852D-06 -0.26721758D-04 -0.17988744D-03 -0.36439938D-04  0.13608427D-04
  0.22831512D-04  0.49490414D-05  0.18638242D-04 -0.40309116D-04 -0.30023734D-05
 -0.54149041D-05 -0.79842730D-05  0.62601437D-03  0.94642765D-03  0.84683892D-05
  0.78510490D-04 -0.70930894D-04  0.71952072D-06 -0.10321518D-04 -0.31928628D-04
  0.54569069D-04  0.25036411D-04 -0.16991475D-03 -0.18800954D-04 -0.19537692D-04
 -0.20763570D-04  0.40301262D-04  0.34833795D-05  0.16906159D-03  0.66762447D-04
  0.32472187D-05 -0.26068730D-04  0.22821511D-04  0.40835798D-04  0.25545125D-04
  0.36264901D-04 -0.30013609D-05 -0.54130781D-05 -0.79815804D-05  0.62662607D-03
  0.94709180D-03  0.84811674D-05  0.22213475D-04 -0.10351662D-03  0.73849786D-06
  0.32852879D-04 -0.72200134D-05  0.54504270D-04  0.13471092D-03 -0.10674101D-03
 -0.18804141D-04 -0.18950754D-04 -0.21296350D-04  0.40247104D-04  0.27920311D-05
 -0.14237662D-03 -0.11305546D-03 -0.10409180D-05 -0.21762987D-04  0.22803905D-04
  0.45864200D-04 -0.44163808D-04 -0.39894989D-05
MO    2     MO 0.0        OCC NO =    2.0000000  ORB. ENERGY =  -14.293372
 -0.57070308D-04 -0.10637171D-03 -0.18037118D-03 -0.27300018D-03 -0.34062452D-03
 -0.29255103D-03 -0.11231603D-03  0.50239649D-06  0.20437945D-04  0.38331872D-04
  0.65347439D-04  0.10212533D-03  0.13656102D-03  0.14581533D-03  0.89148635D-04
 -0.58814855D-04  0.25090972D-03  0.68051936D-02  0.72400697D-03  0.45488609D-07
  0.44108649D-07  0.29755434D-07  0.58766400D-14  0.56983641D-14  0.38440827D-14
 -0.70343304D-04 -0.68209343D-04 -0.46013620D-04  0.58696181D-07 -0.30193637D-13
  0.15645822D-02  0.29988724D-06  0.75683613D-13  0.21745015D-02  0.33745063D-07
 -0.35175443D-13  0.28392032D-04 -0.93655226D-03 -0.93630556D-03  0.18728578D-02
 -0.27365945D-13  0.39938402D-06 -0.27914125D-13  0.36266191D-03  0.36255244D-03
 -0.72521435D-03  0.18137483D-13 -0.12230945D-06 -0.11159839D-13 -0.31391146D-04
 -0.31411129D-04  0.62802275D-04  0.52738529D-14  0.25651223D-07  0.49088015D-13
  0.65082114D-04  0.61194766D-14 -0.61333086D-03 -0.19519719D-03  0.33022650D-13
  0.91994360D-03 -0.49152547D-07 -0.51381080D-13  0.92004896D-03 -0.27693746D-13
 -0.63870571D-04 -0.13693022D-14 -0.42900039D-03  0.19183182D-03 -0.13492685D-13
  0.64356565D-03 -0.22010857D-06  0.17600592D-13  0.64343553D-03  0.28036709D-13
  0.41402985D+00  0.77148366D+00  0.13047723D+01  0.19649147D+01  0.24326919D+01
  0.20701110D+01  0.78771544D+00 -0.36892074D-02 -0.25826193D-02 -0.48424354D-02
 -0.82384234D-02 -0.12793402D-01 -0.16977588D-01 -0.17892047D-01 -0.11094211D-01
  0.73798733D-02  0.42055616D-01 -0.15944336D-01  0.29714154D-02  0.14186570D-05
  0.13626031D-05  0.95555134D-06 -0.49191121D-13 -0.47247483D-13 -0.33133197D-13
  0.70197127D-03  0.67423501D-03  0.47282013D-03 -0.85063067D-06  0.17785817D-12
 -0.15715033D-02  0.12205424D-05 -0.83779578D-12  0.24331820D-02 -0.18580897D-06
  0.16510140D-12  0.37381826D-03  0.15087736D-03  0.14898575D-03 -0.29986310D-03
  0.28314387D-14  0.25459132D-06 -0.94058843D-14 -0.47233102D-03 -0.47223061D-03
  0.94456163D-03  0.70482817D-13 -0.52070991D-07  0.78670665D-13  0.35441812D-03
  0.35461027D-03 -0.70902839D-03 -0.43618920D-13  0.10694866D-06 -0.12885834D-15
 -0.48287307D-03  0.23865529D-13 -0.10187632D-02  0.14489907D-02  0.10722569D-13
  0.15282614D-02 -0.37147818D-06 -0.82319157D-13  0.15280281D-02  0.24254471D-13
  0.57784583D-03 -0.37142072D-13  0.64184373D-03 -0.17337018D-02  0.11120650D-13
 -0.96286385D-03  0.16431243D-06  0.10030557D-12 -0.96266735D-03  0.58287936D-13
  0.17564951D-03  0.32745062D-03  0.55344924D-03  0.83201549D-03  0.10222272D-02
  0.86343425D-03  0.32565563D-03 -0.16116879D-05 -0.12371973D-03 -0.23164237D-03
 -0.39439096D-03 -0.61006284D-03 -0.80343130D-03 -0.83481659D-03 -0.53048846D-03
  0.35552103D-03 -0.49083059D-04  0.13275577D-02 -0.29334597D-03  0.29615690D-03
  0.27766592D-03  0.19771467D-03 -0.51300132D-03 -0.48097135D-03 -0.34248025D-03
  0.20291614D-03  0.19024678D-03  0.13546704D-03 -0.18071237D-02  0.31303000D-02
 -0.97224814D-03 -0.28174304D-03  0.48814522D-03 -0.54150641D-03 -0.53766371D-05
  0.93274711D-05 -0.24185208D-04 -0.13226164D-03  0.57777952D-03 -0.44551788D-03
 -0.12296238D-02  0.45439008D-03 -0.78714679D-03 -0.15827346D-03  0.19872483D-04
  0.13840097D-03 -0.30933809D-03  0.35525128D-03 -0.61551693D-03 -0.73854707D-05
  0.32508277D-04 -0.25122807D-04 -0.69125625D-04 -0.22405240D-04  0.38846021D-04
 -0.23540306D-03 -0.48103730D-04 -0.23095958D-03  0.81757683D-03 -0.48279642D-04
  0.25210322D-03 -0.11136764D-03  0.19259083D-03  0.44077551D-03 -0.32661197D-03
  0.27558298D-04 -0.42733682D-04  0.21021153D-04  0.16156905D-04 -0.42614929D-04