 Molden2AIM, Version 4.0.0 (06/02/2016)           Time: Sat Jun 30 00:44:43 2018
GAUSSIAN             15 MOL ORBITALS    462 PRIMITIVES       10 NUCLEI
  C    1    (CENTRE  1)   0.00000000  2.14131859  0.58840213  CHARGE =  6.0
  C    2    (CENTRE  2)   0.00000000 -2.14131859  0.58840213  CHARGE =  6.0
  C    3    (CENTRE  3)   1.40845445  0.00000000 -0.60887165  CHARGE =  6.0
  C    4    (CENTRE  4)  -1.40845445  0.00000000 -0.60887165  CHARGE =  6.0
  H    5    (CENTRE  5)   0.00000000  2.32154555  2.65463057  CHARGE =  1.0
  H    6    (CENTRE  6)   0.00000000  3.93995614 -0.42574963  CHARGE =  1.0
  H    7    (CENTRE  7)   0.00000000 -2.32154555  2.65463057  CHARGE =  1.0
  H    8    (CENTRE  8)   0.00000000 -3.93995614 -0.42574963  CHARGE =  1.0
  H    9    (CENTRE  9)   2.70668307  0.00000000 -2.19530618  CHARGE =  1.0
  H   10    (CENTRE 10)  -2.70668307  0.00000000 -2.19530618  CHARGE =  1.0
CENTRE ASSIGNMENTS    1  1  1  1  1  1  1  1  1  1  1  1  1  1  1  1  1  1  1  1
CENTRE ASSIGNMENTS    1  1  1  1  1  1  1  1  1  1  1  1  1  1  1  1  1  1  1  1
CENTRE ASSIGNMENTS    1  1  1  1  1  1  1  1  1  1  1  1  1  1  1  1  1  1  1  1
CENTRE ASSIGNMENTS    1  1  1  1  1  1  1  1  1  1  1  1  1  1  1  2  2  2  2  2
CENTRE ASSIGNMENTS    2  2  2  2  2  2  2  2  2  2  2  2  2  2  2  2  2  2  2  2
CENTRE ASSIGNMENTS    2  2  2  2  2  2  2  2  2  2  2  2  2  2  2  2  2  2  2  2
CENTRE ASSIGNMENTS    2  2  2  2  2  2  2  2  2  2  2  2  2  2  2  2  2  2  2  2
CENTRE ASSIGNMENTS    2  2  2  2  2  2  2  2  2  2  3  3  3  3  3  3  3  3  3  3
CENTRE ASSIGNMENTS    3  3  3  3  3  3  3  3  3  3  3  3  3  3  3  3  3  3  3  3
CENTRE ASSIGNMENTS    3  3  3  3  3  3  3  3  3  3  3  3  3  3  3  3  3  3  3  3
CENTRE ASSIGNMENTS    3  3  3  3  3  3  3  3  3  3  3  3  3  3  3  3  3  3  3  3
CENTRE ASSIGNMENTS    3  3  3  3  3  4  4  4  4  4  4  4  4  4  4  4  4  4  4  4
CENTRE ASSIGNMENTS    4  4  4  4  4  4  4  4  4  4  4  4  4  4  4  4  4  4  4  4
CENTRE ASSIGNMENTS    4  4  4  4  4  4  4  4  4  4  4  4  4  4  4  4  4  4  4  4
CENTRE ASSIGNMENTS    4  4  4  4  4  4  4  4  4  4  4  4  4  4  4  4  4  4  4  4
CENTRE ASSIGNMENTS    5  5  5  5  5  5  5  5  5  5  5  5  5  5  5  5  5  5  5  5
CENTRE ASSIGNMENTS    5  5  5  5  5  5  5  6  6  6  6  6  6  6  6  6  6  6  6  6
CENTRE ASSIGNMENTS    6  6  6  6  6  6  6  6  6  6  6  6  6  6  7  7  7  7  7  7
CENTRE ASSIGNMENTS    7  7  7  7  7  7  7  7  7  7  7  7  7  7  7  7  7  7  7  7
CENTRE ASSIGNMENTS    7  8  8  8  8  8  8  8  8  8  8  8  8  8  8  8  8  8  8  8
CENTRE ASSIGNMENTS    8  8  8  8  8  8  8  8  9  9  9  9  9  9  9  9  9  9  9  9
CENTRE ASSIGNMENTS    9  9  9  9  9  9  9  9  9  9  9  9  9  9  9 10 10 10 10 10
CENTRE ASSIGNMENTS   10 10 10 10 10 10 10 10 10 10 10 10 10 10 10 10 10 10 10 10
CENTRE ASSIGNMENTS   10 10
TYPE ASSIGNMENTS      1  1  1  1  1  1  1  1  1  1  1  1  1  1  1  1  1  1  1  2
TYPE ASSIGNMENTS      2  2  3  3  3  4  4  4  2  3  4  2  3  4  2  3  4  5  6  7
TYPE ASSIGNMENTS      8  9 10  5  6  7  8  9 10  5  6  7  8  9 10 11 12 13 17 14
TYPE ASSIGNMENTS     15 18 19 16 20 11 12 13 17 14 15 18 19 16 20  1  1  1  1  1
TYPE ASSIGNMENTS      1  1  1  1  1  1  1  1  1  1  1  1  1  1  2  2  2  3  3  3
TYPE ASSIGNMENTS      4  4  4  2  3  4  2  3  4  2  3  4  5  6  7  8  9 10  5  6
TYPE ASSIGNMENTS      7  8  9 10  5  6  7  8  9 10 11 12 13 17 14 15 18 19 16 20
TYPE ASSIGNMENTS     11 12 13 17 14 15 18 19 16 20  1  1  1  1  1  1  1  1  1  1
TYPE ASSIGNMENTS      1  1  1  1  1  1  1  1  1  2  2  2  3  3  3  4  4  4  2  3
TYPE ASSIGNMENTS      4  2  3  4  2  3  4  5  6  7  8  9 10  5  6  7  8  9 10  5
TYPE ASSIGNMENTS      6  7  8  9 10 11 12 13 17 14 15 18 19 16 20 11 12 13 17 14
TYPE ASSIGNMENTS     15 18 19 16 20  1  1  1  1  1  1  1  1  1  1  1  1  1  1  1
TYPE ASSIGNMENTS      1  1  1  1  2  2  2  3  3  3  4  4  4  2  3  4  2  3  4  2
TYPE ASSIGNMENTS      3  4  5  6  7  8  9 10  5  6  7  8  9 10  5  6  7  8  9 10
TYPE ASSIGNMENTS     11 12 13 17 14 15 18 19 16 20 11 12 13 17 14 15 18 19 16 20
TYPE ASSIGNMENTS      1  1  1  1  1  1  2  3  4  2  3  4  2  3  4  5  6  7  8  9
TYPE ASSIGNMENTS     10  5  6  7  8  9 10  1  1  1  1  1  1  2  3  4  2  3  4  2
TYPE ASSIGNMENTS      3  4  5  6  7  8  9 10  5  6  7  8  9 10  1  1  1  1  1  1
TYPE ASSIGNMENTS      2  3  4  2  3  4  2  3  4  5  6  7  8  9 10  5  6  7  8  9
TYPE ASSIGNMENTS     10  1  1  1  1  1  1  2  3  4  2  3  4  2  3  4  5  6  7  8
TYPE ASSIGNMENTS      9 10  5  6  7  8  9 10  1  1  1  1  1  1  2  3  4  2  3  4
TYPE ASSIGNMENTS      2  3  4  5  6  7  8  9 10  5  6  7  8  9 10  1  1  1  1  1
TYPE ASSIGNMENTS      1  2  3  4  2  3  4  2  3  4  5  6  7  8  9 10  5  6  7  8
TYPE ASSIGNMENTS      9 10
EXPONENTS  0.8236000D+04 0.1235000D+04 0.2808000D+03 0.7927000D+02 0.2559000D+02
EXPONENTS  0.8997000D+01 0.3319000D+01 0.3643000D+00 0.8236000D+04 0.1235000D+04
EXPONENTS  0.2808000D+03 0.7927000D+02 0.2559000D+02 0.8997000D+01 0.3319000D+01
EXPONENTS  0.3643000D+00 0.9059000D+00 0.1285000D+00 0.4402000D-01 0.1871000D+02
EXPONENTS  0.4133000D+01 0.1200000D+01 0.1871000D+02 0.4133000D+01 0.1200000D+01
EXPONENTS  0.1871000D+02 0.4133000D+01 0.1200000D+01 0.3827000D+00 0.3827000D+00
EXPONENTS  0.3827000D+00 0.1209000D+00 0.1209000D+00 0.1209000D+00 0.3569000D-01
EXPONENTS  0.3569000D-01 0.3569000D-01 0.1097000D+01 0.1097000D+01 0.1097000D+01
EXPONENTS  0.1097000D+01 0.1097000D+01 0.1097000D+01 0.3180000D+00 0.3180000D+00
EXPONENTS  0.3180000D+00 0.3180000D+00 0.3180000D+00 0.3180000D+00 0.1000000D+00
EXPONENTS  0.1000000D+00 0.1000000D+00 0.1000000D+00 0.1000000D+00 0.1000000D+00
EXPONENTS  0.7610000D+00 0.7610000D+00 0.7610000D+00 0.7610000D+00 0.7610000D+00
EXPONENTS  0.7610000D+00 0.7610000D+00 0.7610000D+00 0.7610000D+00 0.7610000D+00
EXPONENTS  0.2680000D+00 0.2680000D+00 0.2680000D+00 0.2680000D+00 0.2680000D+00
EXPONENTS  0.2680000D+00 0.2680000D+00 0.2680000D+00 0.2680000D+00 0.2680000D+00
EXPONENTS  0.8236000D+04 0.1235000D+04 0.2808000D+03 0.7927000D+02 0.2559000D+02
EXPONENTS  0.8997000D+01 0.3319000D+01 0.3643000D+00 0.8236000D+04 0.1235000D+04
EXPONENTS  0.2808000D+03 0.7927000D+02 0.2559000D+02 0.8997000D+01 0.3319000D+01
EXPONENTS  0.3643000D+00 0.9059000D+00 0.1285000D+00 0.4402000D-01 0.1871000D+02
EXPONENTS  0.4133000D+01 0.1200000D+01 0.1871000D+02 0.4133000D+01 0.1200000D+01
EXPONENTS  0.1871000D+02 0.4133000D+01 0.1200000D+01 0.3827000D+00 0.3827000D+00
EXPONENTS  0.3827000D+00 0.1209000D+00 0.1209000D+00 0.1209000D+00 0.3569000D-01
EXPONENTS  0.3569000D-01 0.3569000D-01 0.1097000D+01 0.1097000D+01 0.1097000D+01
EXPONENTS  0.1097000D+01 0.1097000D+01 0.1097000D+01 0.3180000D+00 0.3180000D+00
EXPONENTS  0.3180000D+00 0.3180000D+00 0.3180000D+00 0.3180000D+00 0.1000000D+00
EXPONENTS  0.1000000D+00 0.1000000D+00 0.1000000D+00 0.1000000D+00 0.1000000D+00
EXPONENTS  0.7610000D+00 0.7610000D+00 0.7610000D+00 0.7610000D+00 0.7610000D+00
EXPONENTS  0.7610000D+00 0.7610000D+00 0.7610000D+00 0.7610000D+00 0.7610000D+00
EXPONENTS  0.2680000D+00 0.2680000D+00 0.2680000D+00 0.2680000D+00 0.2680000D+00
EXPONENTS  0.2680000D+00 0.2680000D+00 0.2680000D+00 0.2680000D+00 0.2680000D+00
EXPONENTS  0.8236000D+04 0.1235000D+04 0.2808000D+03 0.7927000D+02 0.2559000D+02
EXPONENTS  0.8997000D+01 0.3319000D+01 0.3643000D+00 0.8236000D+04 0.1235000D+04
EXPONENTS  0.2808000D+03 0.7927000D+02 0.2559000D+02 0.8997000D+01 0.3319000D+01
EXPONENTS  0.3643000D+00 0.9059000D+00 0.1285000D+00 0.4402000D-01 0.1871000D+02
EXPONENTS  0.4133000D+01 0.1200000D+01 0.1871000D+02 0.4133000D+01 0.1200000D+01
EXPONENTS  0.1871000D+02 0.4133000D+01 0.1200000D+01 0.3827000D+00 0.3827000D+00
EXPONENTS  0.3827000D+00 0.1209000D+00 0.1209000D+00 0.1209000D+00 0.3569000D-01
EXPONENTS  0.3569000D-01 0.3569000D-01 0.1097000D+01 0.1097000D+01 0.1097000D+01
EXPONENTS  0.1097000D+01 0.1097000D+01 0.1097000D+01 0.3180000D+00 0.3180000D+00
EXPONENTS  0.3180000D+00 0.3180000D+00 0.3180000D+00 0.3180000D+00 0.1000000D+00
EXPONENTS  0.1000000D+00 0.1000000D+00 0.1000000D+00 0.1000000D+00 0.1000000D+00
EXPONENTS  0.7610000D+00 0.7610000D+00 0.7610000D+00 0.7610000D+00 0.7610000D+00
EXPONENTS  0.7610000D+00 0.7610000D+00 0.7610000D+00 0.7610000D+00 0.7610000D+00
EXPONENTS  0.2680000D+00 0.2680000D+00 0.2680000D+00 0.2680000D+00 0.2680000D+00
EXPONENTS  0.2680000D+00 0.2680000D+00 0.2680000D+00 0.2680000D+00 0.2680000D+00
EXPONENTS  0.8236000D+04 0.1235000D+04 0.2808000D+03 0.7927000D+02 0.2559000D+02
EXPONENTS  0.8997000D+01 0.3319000D+01 0.3643000D+00 0.8236000D+04 0.1235000D+04
EXPONENTS  0.2808000D+03 0.7927000D+02 0.2559000D+02 0.8997000D+01 0.3319000D+01
EXPONENTS  0.3643000D+00 0.9059000D+00 0.1285000D+00 0.4402000D-01 0.1871000D+02
EXPONENTS  0.4133000D+01 0.1200000D+01 0.1871000D+02 0.4133000D+01 0.1200000D+01
EXPONENTS  0.1871000D+02 0.4133000D+01 0.1200000D+01 0.3827000D+00 0.3827000D+00
EXPONENTS  0.3827000D+00 0.1209000D+00 0.1209000D+00 0.1209000D+00 0.3569000D-01
EXPONENTS  0.3569000D-01 0.3569000D-01 0.1097000D+01 0.1097000D+01 0.1097000D+01
EXPONENTS  0.1097000D+01 0.1097000D+01 0.1097000D+01 0.3180000D+00 0.3180000D+00
EXPONENTS  0.3180000D+00 0.3180000D+00 0.3180000D+00 0.3180000D+00 0.1000000D+00
EXPONENTS  0.1000000D+00 0.1000000D+00 0.1000000D+00 0.1000000D+00 0.1000000D+00
EXPONENTS  0.7610000D+00 0.7610000D+00 0.7610000D+00 0.7610000D+00 0.7610000D+00
EXPONENTS  0.7610000D+00 0.7610000D+00 0.7610000D+00 0.7610000D+00 0.7610000D+00
EXPONENTS  0.2680000D+00 0.2680000D+00 0.2680000D+00 0.2680000D+00 0.2680000D+00
EXPONENTS  0.2680000D+00 0.2680000D+00 0.2680000D+00 0.2680000D+00 0.2680000D+00
EXPONENTS  0.3387000D+02 0.5095000D+01 0.1159000D+01 0.3258000D+00 0.1027000D+00
EXPONENTS  0.2526000D-01 0.1407000D+01 0.1407000D+01 0.1407000D+01 0.3880000D+00
EXPONENTS  0.3880000D+00 0.3880000D+00 0.1020000D+00 0.1020000D+00 0.1020000D+00
EXPONENTS  0.1057000D+01 0.1057000D+01 0.1057000D+01 0.1057000D+01 0.1057000D+01
EXPONENTS  0.1057000D+01 0.2470000D+00 0.2470000D+00 0.2470000D+00 0.2470000D+00
EXPONENTS  0.2470000D+00 0.2470000D+00 0.3387000D+02 0.5095000D+01 0.1159000D+01
EXPONENTS  0.3258000D+00 0.1027000D+00 0.2526000D-01 0.1407000D+01 0.1407000D+01
EXPONENTS  0.1407000D+01 0.3880000D+00 0.3880000D+00 0.3880000D+00 0.1020000D+00
EXPONENTS  0.1020000D+00 0.1020000D+00 0.1057000D+01 0.1057000D+01 0.1057000D+01
EXPONENTS  0.1057000D+01 0.1057000D+01 0.1057000D+01 0.2470000D+00 0.2470000D+00
EXPONENTS  0.2470000D+00 0.2470000D+00 0.2470000D+00 0.2470000D+00 0.3387000D+02
EXPONENTS  0.5095000D+01 0.1159000D+01 0.3258000D+00 0.1027000D+00 0.2526000D-01
EXPONENTS  0.1407000D+01 0.1407000D+01 0.1407000D+01 0.3880000D+00 0.3880000D+00
EXPONENTS  0.3880000D+00 0.1020000D+00 0.1020000D+00 0.1020000D+00 0.1057000D+01
EXPONENTS  0.1057000D+01 0.1057000D+01 0.1057000D+01 0.1057000D+01 0.1057000D+01
EXPONENTS  0.2470000D+00 0.2470000D+00 0.2470000D+00 0.2470000D+00 0.2470000D+00
EXPONENTS  0.2470000D+00 0.3387000D+02 0.5095000D+01 0.1159000D+01 0.3258000D+00
EXPONENTS  0.1027000D+00 0.2526000D-01 0.1407000D+01 0.1407000D+01 0.1407000D+01
EXPONENTS  0.3880000D+00 0.3880000D+00 0.3880000D+00 0.1020000D+00 0.1020000D+00
EXPONENTS  0.1020000D+00 0.1057000D+01 0.1057000D+01 0.1057000D+01 0.1057000D+01
EXPONENTS  0.1057000D+01 0.1057000D+01 0.2470000D+00 0.2470000D+00 0.2470000D+00
EXPONENTS  0.2470000D+00 0.2470000D+00 0.2470000D+00 0.3387000D+02 0.5095000D+01
EXPONENTS  0.1159000D+01 0.3258000D+00 0.1027000D+00 0.2526000D-01 0.1407000D+01
EXPONENTS  0.1407000D+01 0.1407000D+01 0.3880000D+00 0.3880000D+00 0.3880000D+00
EXPONENTS  0.1020000D+00 0.1020000D+00 0.1020000D+00 0.1057000D+01 0.1057000D+01
EXPONENTS  0.1057000D+01 0.1057000D+01 0.1057000D+01 0.1057000D+01 0.2470000D+00
EXPONENTS  0.2470000D+00 0.2470000D+00 0.2470000D+00 0.2470000D+00 0.2470000D+00
EXPONENTS  0.3387000D+02 0.5095000D+01 0.1159000D+01 0.3258000D+00 0.1027000D+00
EXPONENTS  0.2526000D-01 0.1407000D+01 0.1407000D+01 0.1407000D+01 0.3880000D+00
EXPONENTS  0.3880000D+00 0.3880000D+00 0.1020000D+00 0.1020000D+00 0.1020000D+00
EXPONENTS  0.1057000D+01 0.1057000D+01 0.1057000D+01 0.1057000D+01 0.1057000D+01
EXPONENTS  0.1057000D+01 0.2470000D+00 0.2470000D+00 0.2470000D+00 0.2470000D+00
EXPONENTS  0.2470000D+00 0.2470000D+00
MO    1     MO 0.0        OCC NO =    2.0000000  ORB. ENERGY =  -10.045177
  0.35414966D-01  0.66021549D-01  0.11158805D+00  0.16775339D+00  0.20610442D+00
  0.17408813D+00  0.65659638D-01 -0.32495321D-03 -0.75628845D-03 -0.14160106D-02
 -0.24108792D-02 -0.37292635D-02 -0.49113089D-02 -0.51031645D-02 -0.32428320D-02
  0.21732706D-02  0.51443222D-02  0.89809108D-03 -0.62248489D-03  0.11129333D-13
  0.10434457D-13  0.74299549D-14 -0.59566711D-03 -0.55847578D-03 -0.39766803D-03
 -0.27820993D-03 -0.26083950D-03 -0.18573326D-03 -0.87033232D-13 -0.26662982D-02
 -0.61999350D-03 -0.16108511D-12 -0.17202027D-02 -0.82758343D-03  0.36315401D-15
  0.21099197D-04 -0.61190876D-04 -0.81996130D-03  0.71009065D-03  0.10987064D-03
  0.15657778D-13  0.50103985D-13  0.10606540D-02  0.12856564D-02 -0.21027350D-02
  0.81707863D-03 -0.11911181D-13 -0.55483115D-13  0.42919285D-03 -0.31774642D-04
  0.13949300D-03 -0.10771835D-03 -0.94063045D-14  0.25436617D-13  0.16677193D-03
  0.30449874D-14 -0.22879058D-03 -0.33524114D-03  0.64776827D-14  0.99630456D-03
 -0.17981847D-03 -0.15612645D-13 -0.30993282D-03  0.11855419D-02  0.17464216D-13
  0.15609798D-14  0.27759393D-03 -0.33950622D-03  0.17881364D-14 -0.26612359D-03
  0.21344899D-03 -0.64710759D-14 -0.56665819D-03  0.80506968D-03  0.57407376D-13
  0.35414966D-01  0.66021549D-01  0.11158805D+00  0.16775339D+00  0.20610442D+00
  0.17408813D+00  0.65659638D-01 -0.32495321D-03 -0.75628845D-03 -0.14160106D-02
 -0.24108792D-02 -0.37292635D-02 -0.49113089D-02 -0.51031645D-02 -0.32428320D-02
  0.21732706D-02  0.51443222D-02  0.89809108D-03 -0.62248489D-03  0.10537276D-13
  0.98793658D-14  0.70346970D-14  0.59566711D-03  0.55847578D-03  0.39766803D-03
 -0.27820993D-03 -0.26083950D-03 -0.18573326D-03 -0.87905440D-13  0.26662982D-02
 -0.61999350D-03 -0.16410931D-12  0.17202027D-02 -0.82758343D-03  0.45606551D-15
 -0.21099197D-04 -0.61190876D-04 -0.81996130D-03  0.71009065D-03  0.10987064D-03
 -0.18818385D-13  0.52142872D-13 -0.10606540D-02  0.12856564D-02 -0.21027350D-02
  0.81707863D-03  0.15603149D-13 -0.58319581D-13 -0.42919285D-03 -0.31774642D-04
  0.13949300D-03 -0.10771835D-03  0.96411507D-14  0.23810269D-13 -0.16677192D-03
  0.33976874D-14  0.22879058D-03 -0.33524114D-03  0.63206328D-14 -0.99630456D-03
 -0.17981847D-03 -0.16513695D-13  0.30993282D-03  0.11855419D-02 -0.18822718D-13
  0.16356506D-14 -0.27759393D-03 -0.33950622D-03  0.16848183D-14  0.26612359D-03
  0.21344899D-03 -0.65917701D-14  0.56665819D-03  0.80506968D-03 -0.59426496D-13
  0.23150909D+00  0.43158559D+00  0.72945567D+00  0.10966108D+01  0.13473131D+01
  0.11380213D+01  0.42921976D+00 -0.21242325D-02 -0.27343673D-02 -0.51195984D-02
 -0.87165543D-02 -0.13483184D-01 -0.17756879D-01 -0.18450535D-01 -0.11724487D-01
  0.78574783D-02  0.24164799D-01 -0.71147263D-02  0.15542275D-03 -0.20052557D-02
 -0.18800547D-02 -0.13387109D-02  0.10713197D-13  0.10044303D-13  0.71521424D-14
 -0.23561636D-03 -0.22090532D-03 -0.15729775D-03 -0.18933249D-02 -0.24349440D-13
 -0.23066872D-03  0.11495590D-02 -0.24756870D-12 -0.28933298D-03 -0.43501595D-04
  0.32806975D-13  0.66086773D-04  0.91132611D-03 -0.35485005D-03 -0.55647607D-03
  0.75114109D-14 -0.44419336D-02 -0.75508325D-14 -0.10490284D-03 -0.81920409D-03
  0.92410693D-03  0.15625883D-13  0.41069033D-03  0.46356770D-14 -0.27472300D-03
  0.17723255D-03  0.97490449D-04  0.21749485D-13  0.34784147D-03 -0.23932992D-13
  0.14314795D-03 -0.34364198D-14 -0.19273636D-03 -0.10764796D-02  0.12780545D-14
 -0.35847298D-03  0.64703576D-03  0.90312050D-14  0.93668206D-03  0.27581323D-14
 -0.49506062D-05 -0.10750990D-13 -0.25525989D-04  0.84870405D-03  0.13831023D-13
  0.89923175D-03 -0.83385223D-03  0.18421947D-13 -0.82265378D-03 -0.34826905D-13
  0.23150909D+00  0.43158559D+00  0.72945567D+00  0.10966108D+01  0.13473131D+01
  0.11380213D+01  0.42921976D+00 -0.21242325D-02 -0.27343673D-02 -0.51195984D-02
 -0.87165543D-02 -0.13483184D-01 -0.17756879D-01 -0.18450535D-01 -0.11724487D-01
  0.78574783D-02  0.24164799D-01 -0.71147263D-02  0.15542275D-03  0.20052557D-02
  0.18800547D-02  0.13387109D-02  0.11157249D-13  0.10460630D-13  0.74485919D-14
 -0.23561636D-03 -0.22090532D-03 -0.15729775D-03  0.18933249D-02 -0.28129979D-13
 -0.23066872D-03 -0.11495590D-02 -0.24458049D-12 -0.28933298D-03  0.43501595D-04
  0.32596367D-13  0.66086773D-04  0.91132611D-03 -0.35485005D-03 -0.55647607D-03
 -0.10075765D-13  0.44419336D-02 -0.97103332D-14 -0.10490284D-03 -0.81920409D-03
  0.92410693D-03 -0.14422272D-13 -0.41069033D-03  0.43411842D-14 -0.27472300D-03
  0.17723255D-03  0.97490449D-04 -0.20019305D-13 -0.34784147D-03 -0.21207128D-13
 -0.14314795D-03 -0.37481927D-14 -0.19273636D-03  0.10764796D-02  0.29438239D-14
 -0.35847298D-03 -0.64703576D-03  0.83007542D-14  0.93668206D-03 -0.32158548D-14
  0.49506062D-05 -0.11186444D-13 -0.25525989D-04 -0.84870405D-03  0.14472552D-13
  0.89923175D-03  0.83385223D-03  0.19086780D-13 -0.82265378D-03  0.36461448D-13
  0.12531138D-03  0.22600423D-03  0.33324310D-03  0.94186126D-03  0.12181970D-02
  0.76167505D-04 -0.75106145D-14 -0.37403701D-03 -0.49595302D-03  0.50088390D-13
  0.11272364D-02  0.59062062D-03  0.16858245D-13 -0.24145188D-04  0.20892886D-04
  0.53671057D-04  0.66191467D-04 -0.11986252D-03 -0.24375953D-13 -0.47083183D-13
 -0.10192318D-02  0.81556923D-04 -0.40252287D-04 -0.41304635D-04 -0.18814959D-13
 -0.89073604D-14 -0.18604527D-03  0.51865109D-04  0.93540861D-04  0.13792594D-03
  0.43446191D-02  0.41268246D-03 -0.45368515D-04 -0.19905087D-13 -0.34234626D-03
  0.39443095D-03  0.52273802D-13 -0.16741637D-02  0.10606767D-02  0.31649767D-13
 -0.10484150D-03  0.23905963D-04 -0.35331997D-04 -0.17242537D-03  0.20775737D-03
 -0.28778507D-13 -0.80877497D-14 -0.10929614D-02  0.10636154D-03 -0.31969688D-04
 -0.74391848D-04 -0.38213250D-14  0.95789480D-14 -0.35157291D-03  0.12531138D-03
  0.22600423D-03  0.33324310D-03  0.94186126D-03  0.12181970D-02  0.76167505D-04
 -0.80997323D-14  0.37403701D-03 -0.49595302D-03  0.51940241D-13 -0.11272364D-02
  0.59062062D-03  0.18694841D-13  0.24145188D-04  0.20892886D-04  0.53671057D-04
  0.66191467D-04 -0.11986252D-03  0.25599393D-13 -0.48283506D-13  0.10192318D-02
  0.81556922D-04 -0.40252287D-04 -0.41304635D-04  0.18832912D-13 -0.95224399D-14
  0.18604527D-03  0.51865109D-04  0.93540861D-04  0.13792594D-03  0.43446191D-02
  0.41268246D-03 -0.45368515D-04 -0.20817722D-13  0.34234626D-03  0.39443095D-03
  0.55154464D-13  0.16741637D-02  0.10606767D-02  0.32265466D-13  0.10484150D-03
  0.23905963D-04 -0.35331997D-04 -0.17242537D-03  0.20775737D-03  0.29768044D-13
 -0.76716034D-14  0.10929614D-02  0.10636154D-03 -0.31969688D-04 -0.74391848D-04
  0.47567143D-14  0.10202737D-13  0.35157291D-03  0.12845087D-03  0.23166643D-03
  0.34159201D-03  0.20620310D-02  0.88525209D-03  0.67622388D-04  0.34149021D-03
  0.66423260D-14 -0.61356783D-03  0.18532715D-02 -0.42773280D-13 -0.52280417D-03
  0.46004492D-03 -0.13820902D-13  0.15246218D-03 -0.70829454D-03  0.10237970D-02
 -0.31550249D-03  0.46588862D-14  0.26207530D-02 -0.11866377D-13 -0.39119704D-04
 -0.13353411D-05  0.40455045D-04  0.34424353D-14  0.50462333D-03 -0.63682633D-14
  0.12845087D-03  0.23166643D-03  0.34159201D-03  0.20620310D-02  0.88525209D-03
  0.67622388D-04 -0.34149021D-03  0.73745040D-14 -0.61356783D-03 -0.18532715D-02
 -0.44676231D-13 -0.52280417D-03 -0.46004492D-03 -0.11355046D-13  0.15246218D-03
 -0.70829454D-03  0.10237970D-02 -0.31550249D-03 -0.46348121D-14 -0.26207530D-02
 -0.11723419D-13 -0.39119704D-04 -0.13353411D-05  0.40455045D-04 -0.34715438D-14
 -0.50462333D-03 -0.67298551D-14
MO    2     MO 0.0        OCC NO =    2.0000000  ORB. ENERGY =  -10.044946
  0.76647243D-12  0.14288789D-11  0.24150570D-11  0.36306218D-11  0.44606384D-11
  0.37677222D-11  0.14210462D-11 -0.70328369D-14 -0.10250688D-13 -0.19192521D-13
 -0.32676910D-13 -0.50546211D-13 -0.66567581D-13 -0.69167981D-13 -0.43953147D-13
  0.29456377D-13  0.45932939D-13  0.93521289D-12  0.20155234D-13  0.75777474D-05
  0.71046198D-05  0.50589126D-05  0.21225391D-13  0.19900153D-13  0.14170095D-13
  0.26867101D-13  0.25189615D-13  0.17936506D-13  0.21795765D-02 -0.12992183D-12
 -0.82455255D-13  0.32829726D-03 -0.30764724D-12 -0.28107708D-12 -0.63297302D-05
 -0.27838864D-14 -0.70902812D-15 -0.32402278D-13  0.18213508D-13  0.14188770D-13
 -0.71781065D-03 -0.11074320D-02 -0.22175842D-13  0.18860842D-13 -0.35453106D-13
  0.16592264D-13  0.74877433D-03  0.10124213D-02  0.17141476D-12 -0.57971898D-14
  0.57781889D-13 -0.51984699D-13 -0.34256785D-05  0.51863422D-04  0.41486055D-13
  0.12398391D-03  0.16556971D-14  0.15140641D-13 -0.90466814D-03  0.25384098D-13
 -0.96150043D-14  0.53271640D-03 -0.30351189D-13 -0.35806919D-13 -0.18902437D-02
  0.41599636D-04  0.16026828D-13  0.32641514D-14 -0.20326188D-03 -0.39664885D-13
 -0.90725660D-15  0.78462971D-04 -0.84155972D-14 -0.88851977D-14 -0.92980419D-03
  0.73320662D-12  0.13668638D-11  0.23102407D-11  0.34730485D-11  0.42670413D-11
  0.36041986D-11  0.13593711D-11 -0.67276034D-14 -0.10855277D-13 -0.20324503D-13
 -0.34604205D-13 -0.53527444D-13 -0.70493761D-13 -0.73247533D-13 -0.46545519D-13
  0.31193724D-13  0.46765804D-13  0.83770138D-12  0.68436923D-13  0.75777474D-05
  0.71046198D-05  0.50589126D-05 -0.14555585D-13 -0.13646786D-13 -0.97173249D-14
  0.28378954D-13  0.26607073D-13  0.18945821D-13  0.21795765D-02  0.12643958D-12
 -0.89802115D-13  0.32829726D-03  0.22463000D-12 -0.23371931D-12 -0.63297302D-05
  0.42822444D-14 -0.28073848D-14 -0.33763998D-13  0.20604379D-13  0.13159619D-13
  0.71781065D-03 -0.11074320D-02  0.12002897D-13  0.21339567D-13 -0.31857922D-13
  0.10518356D-13 -0.74877433D-03  0.10124213D-02 -0.14362189D-12 -0.91126966D-14
  0.46530237D-13 -0.37417540D-13  0.34256785D-05  0.51863422D-04 -0.38430524D-13
  0.12398391D-03 -0.99507122D-15  0.12729310D-13 -0.90466814D-03 -0.27367677D-13
 -0.57363064D-14  0.53271640D-03  0.30352891D-13 -0.32451623D-13  0.18902437D-02
  0.41599636D-04 -0.18129037D-13  0.28325417D-14 -0.20326188D-03  0.45708242D-13
  0.47234331D-15  0.78462971D-04  0.86788688D-14 -0.89699684D-14  0.92980419D-03
  0.23385288D+00  0.43595493D+00  0.73684064D+00  0.11077128D+01  0.13609532D+01
  0.11495425D+01  0.43356515D+00 -0.21457381D-02 -0.25246502D-02 -0.47269418D-02
 -0.80480228D-02 -0.12449068D-01 -0.16394984D-01 -0.17035439D-01 -0.10825257D-01
  0.72548352D-02  0.23312056D-01 -0.72950335D-02  0.70784446D-03 -0.15809592D-02
 -0.14822498D-02 -0.10554502D-02  0.35464063D-14  0.33249813D-14  0.23675848D-14
 -0.14621994D-03 -0.13709049D-03 -0.97616595D-04  0.12617131D-02 -0.12404522D-13
 -0.83661657D-03  0.85135879D-03 -0.17911099D-13  0.15853748D-02 -0.58564190D-04
  0.11337304D-14  0.63913992D-04  0.25629266D-03 -0.40506971D-03  0.14877705D-03
  0.31970801D-14 -0.43374698D-02 -0.47840884D-14 -0.14653743D-03 -0.18738663D-03
  0.33392406D-03  0.75268168D-14 -0.25660915D-03 -0.14773584D-14 -0.59430385D-04
 -0.28573318D-04  0.88003703D-04  0.28379018D-14 -0.27834382D-03 -0.73928847D-14
 -0.52465456D-03  0.13157676D-15 -0.29461177D-04 -0.59588335D-03 -0.11562181D-14
 -0.19386969D-02  0.21698470D-02  0.76148780D-15  0.20270804D-02  0.37280322D-14
 -0.77735086D-04 -0.48205825D-15 -0.13462235D-04  0.80717747D-03 -0.19619154D-15
  0.97195749D-03 -0.57397221D-03  0.16423663D-14 -0.93157078D-03 -0.10653741D-14
 -0.23385288D+00 -0.43595493D+00 -0.73684064D+00 -0.11077128D+01 -0.13609532D+01
 -0.11495425D+01 -0.43356515D+00  0.21457381D-02  0.25246502D-02  0.47269418D-02
  0.80480228D-02  0.12449068D-01  0.16394984D-01  0.17035439D-01  0.10825257D-01
 -0.72548352D-02 -0.23312056D-01  0.72950335D-02 -0.70784446D-03 -0.15809592D-02
 -0.14822498D-02 -0.10554502D-02  0.15669591D-14  0.14691237D-14  0.10461036D-14
  0.14621994D-03  0.13709049D-03  0.97616595D-04  0.12617131D-02 -0.40742655D-14
  0.83661657D-03  0.85135879D-03 -0.16877927D-13 -0.15853748D-02 -0.58564190D-04
  0.13165636D-14 -0.63913992D-04 -0.25629266D-03  0.40506971D-03 -0.14877705D-03
 -0.21664506D-14 -0.43374698D-02 -0.41509428D-14  0.14653743D-03  0.18738663D-03
 -0.33392406D-03 -0.39352271D-14 -0.25660915D-03  0.35264675D-14  0.59430385D-04
  0.28573318D-04 -0.88003703D-04 -0.29832823D-14 -0.27834382D-03 -0.83007910D-14
 -0.52465456D-03  0.38295486D-15  0.29461177D-04 -0.59588335D-03 -0.21720594D-14
  0.19386969D-02  0.21698470D-02  0.10231948D-14 -0.20270804D-02 -0.20621379D-14
 -0.77735086D-04 -0.61026185D-15  0.13462235D-04  0.80717747D-03  0.11385939D-15
 -0.97195749D-03 -0.57397221D-03  0.17169262D-14  0.93157078D-03  0.10085791D-14
  0.58241457D-14  0.10504087D-13  0.15488270D-13 -0.12681469D-12  0.60035852D-12
  0.24786734D-14 -0.10643083D-04 -0.25255250D-13 -0.18178757D-14 -0.84501073D-03
  0.20791384D-13  0.64860675D-13 -0.20347039D-03 -0.48592642D-13 -0.58011824D-13
 -0.24081637D-14  0.13901998D-13 -0.11493834D-13  0.72916659D-03  0.12615466D-02
 -0.25248739D-13  0.31568234D-14 -0.56834675D-14  0.25266441D-14  0.32450408D-03
  0.92521310D-04  0.21310742D-13  0.31563319D-14  0.56925746D-14  0.83936979D-14
 -0.24929402D-14 -0.28977867D-12  0.23164198D-15  0.38347549D-05 -0.49612660D-14
 -0.69610740D-14 -0.60539006D-03 -0.37551852D-13 -0.36293476D-14 -0.10640763D-04
  0.10612338D-13 -0.94148517D-13  0.94727398D-14 -0.43753430D-15 -0.90352055D-14
  0.72308355D-03 -0.15076953D-03 -0.67240332D-15  0.15552979D-14  0.75166665D-14
 -0.90719644D-14  0.14232360D-03  0.36300133D-04 -0.61950128D-14  0.57368811D-14
  0.10346701D-13  0.15256205D-13 -0.10507410D-12  0.39464422D-12  0.33670530D-14
 -0.10643083D-04  0.22560058D-13 -0.58994276D-14 -0.84501073D-03 -0.20602816D-13
  0.54899395D-13 -0.20347039D-03  0.37720265D-13 -0.36705686D-13 -0.51294566D-14
  0.15777210D-13 -0.10647754D-13 -0.72916659D-03  0.12615466D-02  0.28605573D-13
  0.36773292D-14 -0.90187944D-14  0.53414652D-14 -0.32450408D-03  0.92521310D-04
 -0.18172482D-13  0.34564066D-14  0.62337716D-14  0.91916926D-14 -0.38822420D-13
 -0.28852847D-12  0.72707130D-15  0.38347549D-05 -0.24981984D-14 -0.69947894D-14
 -0.60539006D-03  0.35948261D-13 -0.10698411D-13 -0.10640763D-04 -0.14864505D-13
 -0.78334066D-13  0.80200329D-14 -0.72458596D-15 -0.72954470D-14 -0.72308355D-03
 -0.15076953D-03 -0.21090152D-14  0.26002777D-14  0.86823873D-14 -0.11282665D-13
 -0.14232360D-03  0.36300133D-04  0.10464923D-13  0.48719583D-04  0.87867775D-04
  0.12956098D-03  0.95133517D-03  0.49582643D-03  0.82234303D-04  0.78607421D-03
  0.13627534D-14 -0.12899760D-02  0.22621837D-02 -0.34250645D-14 -0.15237271D-02
 -0.33888130D-04 -0.39130424D-14  0.84861283D-04 -0.16225171D-03  0.90537413D-03
 -0.74312242D-03  0.65647493D-15  0.36654259D-02  0.45539898D-15 -0.50433235D-04
  0.78885802D-04 -0.28452567D-04  0.30608326D-16  0.71258404D-03 -0.18433827D-15
 -0.48719583D-04 -0.87867775D-04 -0.12956098D-03 -0.95133517D-03 -0.49582643D-03
 -0.82234303D-04  0.78607421D-03  0.79988110D-15  0.12899760D-02  0.22621837D-02
 -0.18091747D-14  0.15237271D-02 -0.33888130D-04 -0.44477190D-14 -0.84861283D-04
  0.16225171D-03 -0.90537413D-03  0.74312242D-03  0.42855319D-16  0.36654259D-02
  0.48366921D-15  0.50433235D-04 -0.78885802D-04  0.28452567D-04  0.34109961D-15
  0.71258404D-03  0.38343332D-15
MO    3     MO 0.0        OCC NO =    2.0000000  ORB. ENERGY =  -10.043889
 -0.23420257D+00 -0.43660683D+00 -0.73794246D+00 -0.11093692D+01 -0.13629883D+01
 -0.11512615D+01 -0.43421348D+00  0.21489467D-02  0.27891954D-02  0.52222539D-02
  0.88913340D-02  0.13753542D-01  0.18112931D-01  0.18820495D-01  0.11959580D-01
 -0.80150323D-02 -0.23874262D-01  0.11343595D-01  0.37885571D-03 -0.83358222D-15
 -0.78153632D-15 -0.55650042D-15  0.97898229D-03  0.91785813D-03  0.65356967D-03
  0.79635378D-03  0.74663229D-03  0.53164667D-03  0.20328461D-14 -0.24858404D-03
  0.84789004D-03 -0.20194791D-13 -0.13475830D-02 -0.26397203D-02  0.22990933D-15
  0.12016117D-04 -0.93264847D-04  0.21821435D-02 -0.12499768D-02 -0.93216676D-03
  0.13399068D-15 -0.15916957D-14 -0.40466333D-03  0.38647559D-03 -0.12674413D-02
  0.88096568D-03  0.43214806D-14  0.48875522D-15  0.22098304D-02  0.53712338D-04
 -0.51499750D-04 -0.22125885D-05  0.46656131D-14 -0.74581788D-14  0.44024099D-03
  0.83989192D-15 -0.20286322D-03 -0.94904179D-03 -0.29703691D-14  0.10962774D-02
 -0.14111339D-04  0.45069336D-15 -0.48768769D-03  0.28612367D-02 -0.44747044D-14
  0.71684955D-15 -0.86880794D-04  0.47858215D-03 -0.18215788D-14 -0.38309548D-03
 -0.60351880D-03 -0.32896981D-15  0.64373786D-03 -0.83222766D-03  0.10240373D-14
  0.23420257D+00  0.43660683D+00  0.73794246D+00  0.11093692D+01  0.13629883D+01
  0.11512615D+01  0.43421348D+00 -0.21489467D-02 -0.27891954D-02 -0.52222539D-02
 -0.88913340D-02 -0.13753542D-01 -0.18112931D-01 -0.18820495D-01 -0.11959580D-01
  0.80150323D-02  0.23874262D-01 -0.11343595D-01 -0.37885572D-03 -0.38209770D-14
 -0.35824089D-14 -0.25508885D-14  0.97898229D-03  0.91785813D-03  0.65356967D-03
 -0.79635378D-03 -0.74663229D-03 -0.53164667D-03  0.22431926D-13 -0.24858404D-03
 -0.84789004D-03  0.27524110D-13 -0.13475830D-02  0.26397203D-02  0.10063456D-14
  0.12016117D-04  0.93264847D-04 -0.21821435D-02  0.12499768D-02  0.93216676D-03
  0.76061210D-14 -0.69458930D-14 -0.40466333D-03 -0.38647559D-03  0.12674413D-02
 -0.88096567D-03  0.12601952D-13  0.28778473D-14  0.22098304D-02 -0.53712338D-04
  0.51499750D-04  0.22125882D-05  0.20616551D-14  0.18201581D-14  0.44024099D-03
 -0.19855121D-14 -0.20286322D-03  0.94904179D-03  0.64375103D-14  0.10962774D-02
  0.14111338D-04 -0.48097416D-15 -0.48768769D-03 -0.28612367D-02 -0.77005807D-14
  0.63794013D-15 -0.86880794D-04 -0.47858215D-03  0.64893183D-15 -0.38309548D-03
  0.60351880D-03 -0.25627522D-14  0.64373786D-03  0.83222766D-03  0.56588207D-14
 -0.15974716D-10 -0.29780503D-10 -0.50334296D-10 -0.75668934D-10 -0.92968029D-10
 -0.78526362D-10 -0.29617255D-10  0.14657745D-12  0.11454613D-13  0.21446650D-13