 Molden2AIM, Version 4.0.0 (06/02/2016)           Time: Sat Jun 30 04:43:47 2018
GAUSSIAN             23 MOL ORBITALS    720 PRIMITIVES       16 NUCLEI
  C    1    (CENTRE  1)   2.38306559  1.19225656 -4.99985817  CHARGE =  6.0
  C    2    (CENTRE  2)   2.37867764  1.19304646 -2.47814527  CHARGE =  6.0
  H    3    (CENTRE  3)   4.13994396  1.19015518 -6.07691135  CHARGE =  1.0
  H    4    (CENTRE  4)   0.62145155  1.19923343 -6.07696615  CHARGE =  1.0
  H    5    (CENTRE  5)   4.19194923  1.18106182 -1.47755796  CHARGE =  1.0
  C    6    (CENTRE  6)   0.06810195  1.17553059 -0.84923725  CHARGE =  6.0
  H    7    (CENTRE  7)   0.05964732  2.86348121  0.37147669  CHARGE =  1.0
  H    8    (CENTRE  8)  -1.63462822  1.28132313 -2.03921102  CHARGE =  1.0
  C    9    (CENTRE  9)  -0.06810195 -1.17553059  0.84923725  CHARGE =  6.0
  H   10    (CENTRE 10)  -0.05964732 -2.86348121 -0.37147669  CHARGE =  1.0
  H   11    (CENTRE 11)   1.63462822 -1.28132313  2.03921102  CHARGE =  1.0
  C   12    (CENTRE 12)  -2.37867764 -1.19304646  2.47814527  CHARGE =  6.0
  C   13    (CENTRE 13)  -2.38306559 -1.19225656  4.99985817  CHARGE =  6.0
  H   14    (CENTRE 14)  -4.19194923 -1.18106182  1.47755796  CHARGE =  1.0
  H   15    (CENTRE 15)  -4.13994396 -1.19015518  6.07691135  CHARGE =  1.0
  H   16    (CENTRE 16)  -0.62145155 -1.19923343  6.07696615  CHARGE =  1.0
CENTRE ASSIGNMENTS    1  1  1  1  1  1  1  1  1  1  1  1  1  1  1  1  1  1  1  1
CENTRE ASSIGNMENTS    1  1  1  1  1  1  1  1  1  1  1  1  1  1  1  1  1  1  1  1
CENTRE ASSIGNMENTS    1  1  1  1  1  1  1  1  1  1  1  1  1  1  1  1  1  1  1  1
CENTRE ASSIGNMENTS    1  1  1  1  1  1  1  1  1  1  1  1  1  1  1  2  2  2  2  2
CENTRE ASSIGNMENTS    2  2  2  2  2  2  2  2  2  2  2  2  2  2  2  2  2  2  2  2
CENTRE ASSIGNMENTS    2  2  2  2  2  2  2  2  2  2  2  2  2  2  2  2  2  2  2  2
CENTRE ASSIGNMENTS    2  2  2  2  2  2  2  2  2  2  2  2  2  2  2  2  2  2  2  2
CENTRE ASSIGNMENTS    2  2  2  2  2  2  2  2  2  2  3  3  3  3  3  3  3  3  3  3
CENTRE ASSIGNMENTS    3  3  3  3  3  3  3  3  3  3  3  3  3  3  3  3  3  4  4  4
CENTRE ASSIGNMENTS    4  4  4  4  4  4  4  4  4  4  4  4  4  4  4  4  4  4  4  4
CENTRE ASSIGNMENTS    4  4  4  4  5  5  5  5  5  5  5  5  5  5  5  5  5  5  5  5
CENTRE ASSIGNMENTS    5  5  5  5  5  5  5  5  5  5  5  6  6  6  6  6  6  6  6  6
CENTRE ASSIGNMENTS    6  6  6  6  6  6  6  6  6  6  6  6  6  6  6  6  6  6  6  6
CENTRE ASSIGNMENTS    6  6  6  6  6  6  6  6  6  6  6  6  6  6  6  6  6  6  6  6
CENTRE ASSIGNMENTS    6  6  6  6  6  6  6  6  6  6  6  6  6  6  6  6  6  6  6  6
CENTRE ASSIGNMENTS    6  6  6  6  6  6  7  7  7  7  7  7  7  7  7  7  7  7  7  7
CENTRE ASSIGNMENTS    7  7  7  7  7  7  7  7  7  7  7  7  7  8  8  8  8  8  8  8
CENTRE ASSIGNMENTS    8  8  8  8  8  8  8  8  8  8  8  8  8  8  8  8  8  8  8  8
CENTRE ASSIGNMENTS    9  9  9  9  9  9  9  9  9  9  9  9  9  9  9  9  9  9  9  9
CENTRE ASSIGNMENTS    9  9  9  9  9  9  9  9  9  9  9  9  9  9  9  9  9  9  9  9
CENTRE ASSIGNMENTS    9  9  9  9  9  9  9  9  9  9  9  9  9  9  9  9  9  9  9  9
CENTRE ASSIGNMENTS    9  9  9  9  9  9  9  9  9  9  9  9  9  9  9 10 10 10 10 10
CENTRE ASSIGNMENTS   10 10 10 10 10 10 10 10 10 10 10 10 10 10 10 10 10 10 10 10
CENTRE ASSIGNMENTS   10 10 11 11 11 11 11 11 11 11 11 11 11 11 11 11 11 11 11 11
CENTRE ASSIGNMENTS   11 11 11 11 11 11 11 11 11 12 12 12 12 12 12 12 12 12 12 12
CENTRE ASSIGNMENTS   12 12 12 12 12 12 12 12 12 12 12 12 12 12 12 12 12 12 12 12
CENTRE ASSIGNMENTS   12 12 12 12 12 12 12 12 12 12 12 12 12 12 12 12 12 12 12 12
CENTRE ASSIGNMENTS   12 12 12 12 12 12 12 12 12 12 12 12 12 12 12 12 12 12 12 12
CENTRE ASSIGNMENTS   12 12 12 12 13 13 13 13 13 13 13 13 13 13 13 13 13 13 13 13
CENTRE ASSIGNMENTS   13 13 13 13 13 13 13 13 13 13 13 13 13 13 13 13 13 13 13 13
CENTRE ASSIGNMENTS   13 13 13 13 13 13 13 13 13 13 13 13 13 13 13 13 13 13 13 13
CENTRE ASSIGNMENTS   13 13 13 13 13 13 13 13 13 13 13 13 13 13 13 13 13 13 13 14
CENTRE ASSIGNMENTS   14 14 14 14 14 14 14 14 14 14 14 14 14 14 14 14 14 14 14 14
CENTRE ASSIGNMENTS   14 14 14 14 14 14 15 15 15 15 15 15 15 15 15 15 15 15 15 15
CENTRE ASSIGNMENTS   15 15 15 15 15 15 15 15 15 15 15 15 15 16 16 16 16 16 16 16
CENTRE ASSIGNMENTS   16 16 16 16 16 16 16 16 16 16 16 16 16 16 16 16 16 16 16 16
TYPE ASSIGNMENTS      1  1  1  1  1  1  1  1  1  1  1  1  1  1  1  1  1  1  1  2
TYPE ASSIGNMENTS      2  2  3  3  3  4  4  4  2  3  4  2  3  4  2  3  4  5  6  7
TYPE ASSIGNMENTS      8  9 10  5  6  7  8  9 10  5  6  7  8  9 10 11 12 13 17 14
TYPE ASSIGNMENTS     15 18 19 16 20 11 12 13 17 14 15 18 19 16 20  1  1  1  1  1
TYPE ASSIGNMENTS      1  1  1  1  1  1  1  1  1  1  1  1  1  1  2  2  2  3  3  3
TYPE ASSIGNMENTS      4  4  4  2  3  4  2  3  4  2  3  4  5  6  7  8  9 10  5  6
TYPE ASSIGNMENTS      7  8  9 10  5  6  7  8  9 10 11 12 13 17 14 15 18 19 16 20
TYPE ASSIGNMENTS     11 12 13 17 14 15 18 19 16 20  1  1  1  1  1  1  2  3  4  2
TYPE ASSIGNMENTS      3  4  2  3  4  5  6  7  8  9 10  5  6  7  8  9 10  1  1  1
TYPE ASSIGNMENTS      1  1  1  2  3  4  2  3  4  2  3  4  5  6  7  8  9 10  5  6
TYPE ASSIGNMENTS      7  8  9 10  1  1  1  1  1  1  2  3  4  2  3  4  2  3  4  5
TYPE ASSIGNMENTS      6  7  8  9 10  5  6  7  8  9 10  1  1  1  1  1  1  1  1  1
TYPE ASSIGNMENTS      1  1  1  1  1  1  1  1  1  1  2  2  2  3  3  3  4  4  4  2
TYPE ASSIGNMENTS      3  4  2  3  4  2  3  4  5  6  7  8  9 10  5  6  7  8  9 10
TYPE ASSIGNMENTS      5  6  7  8  9 10 11 12 13 17 14 15 18 19 16 20 11 12 13 17
TYPE ASSIGNMENTS     14 15 18 19 16 20  1  1  1  1  1  1  2  3  4  2  3  4  2  3
TYPE ASSIGNMENTS      4  5  6  7  8  9 10  5  6  7  8  9 10  1  1  1  1  1  1  2
TYPE ASSIGNMENTS      3  4  2  3  4  2  3  4  5  6  7  8  9 10  5  6  7  8  9 10
TYPE ASSIGNMENTS      1  1  1  1  1  1  1  1  1  1  1  1  1  1  1  1  1  1  1  2
TYPE ASSIGNMENTS      2  2  3  3  3  4  4  4  2  3  4  2  3  4  2  3  4  5  6  7
TYPE ASSIGNMENTS      8  9 10  5  6  7  8  9 10  5  6  7  8  9 10 11 12 13 17 14
TYPE ASSIGNMENTS     15 18 19 16 20 11 12 13 17 14 15 18 19 16 20  1  1  1  1  1
TYPE ASSIGNMENTS      1  2  3  4  2  3  4  2  3  4  5  6  7  8  9 10  5  6  7  8
TYPE ASSIGNMENTS      9 10  1  1  1  1  1  1  2  3  4  2  3  4  2  3  4  5  6  7
TYPE ASSIGNMENTS      8  9 10  5  6  7  8  9 10  1  1  1  1  1  1  1  1  1  1  1
TYPE ASSIGNMENTS      1  1  1  1  1  1  1  1  2  2  2  3  3  3  4  4  4  2  3  4
TYPE ASSIGNMENTS      2  3  4  2  3  4  5  6  7  8  9 10  5  6  7  8  9 10  5  6
TYPE ASSIGNMENTS      7  8  9 10 11 12 13 17 14 15 18 19 16 20 11 12 13 17 14 15
TYPE ASSIGNMENTS     18 19 16 20  1  1  1  1  1  1  1  1  1  1  1  1  1  1  1  1
TYPE ASSIGNMENTS      1  1  1  2  2  2  3  3  3  4  4  4  2  3  4  2  3  4  2  3
TYPE ASSIGNMENTS      4  5  6  7  8  9 10  5  6  7  8  9 10  5  6  7  8  9 10 11
TYPE ASSIGNMENTS     12 13 17 14 15 18 19 16 20 11 12 13 17 14 15 18 19 16 20  1
TYPE ASSIGNMENTS      1  1  1  1  1  2  3  4  2  3  4  2  3  4  5  6  7  8  9 10
TYPE ASSIGNMENTS      5  6  7  8  9 10  1  1  1  1  1  1  2  3  4  2  3  4  2  3
TYPE ASSIGNMENTS      4  5  6  7  8  9 10  5  6  7  8  9 10  1  1  1  1  1  1  2
TYPE ASSIGNMENTS      3  4  2  3  4  2  3  4  5  6  7  8  9 10  5  6  7  8  9 10
EXPONENTS  0.8236000D+04 0.1235000D+04 0.2808000D+03 0.7927000D+02 0.2559000D+02
EXPONENTS  0.8997000D+01 0.3319000D+01 0.3643000D+00 0.8236000D+04 0.1235000D+04
EXPONENTS  0.2808000D+03 0.7927000D+02 0.2559000D+02 0.8997000D+01 0.3319000D+01
EXPONENTS  0.3643000D+00 0.9059000D+00 0.1285000D+00 0.4402000D-01 0.1871000D+02
EXPONENTS  0.4133000D+01 0.1200000D+01 0.1871000D+02 0.4133000D+01 0.1200000D+01
EXPONENTS  0.1871000D+02 0.4133000D+01 0.1200000D+01 0.3827000D+00 0.3827000D+00
EXPONENTS  0.3827000D+00 0.1209000D+00 0.1209000D+00 0.1209000D+00 0.3569000D-01
EXPONENTS  0.3569000D-01 0.3569000D-01 0.1097000D+01 0.1097000D+01 0.1097000D+01
EXPONENTS  0.1097000D+01 0.1097000D+01 0.1097000D+01 0.3180000D+00 0.3180000D+00
EXPONENTS  0.3180000D+00 0.3180000D+00 0.3180000D+00 0.3180000D+00 0.1000000D+00
EXPONENTS  0.1000000D+00 0.1000000D+00 0.1000000D+00 0.1000000D+00 0.1000000D+00
EXPONENTS  0.7610000D+00 0.7610000D+00 0.7610000D+00 0.7610000D+00 0.7610000D+00
EXPONENTS  0.7610000D+00 0.7610000D+00 0.7610000D+00 0.7610000D+00 0.7610000D+00
EXPONENTS  0.2680000D+00 0.2680000D+00 0.2680000D+00 0.2680000D+00 0.2680000D+00
EXPONENTS  0.2680000D+00 0.2680000D+00 0.2680000D+00 0.2680000D+00 0.2680000D+00
EXPONENTS  0.8236000D+04 0.1235000D+04 0.2808000D+03 0.7927000D+02 0.2559000D+02
EXPONENTS  0.8997000D+01 0.3319000D+01 0.3643000D+00 0.8236000D+04 0.1235000D+04
EXPONENTS  0.2808000D+03 0.7927000D+02 0.2559000D+02 0.8997000D+01 0.3319000D+01
EXPONENTS  0.3643000D+00 0.9059000D+00 0.1285000D+00 0.4402000D-01 0.1871000D+02
EXPONENTS  0.4133000D+01 0.1200000D+01 0.1871000D+02 0.4133000D+01 0.1200000D+01
EXPONENTS  0.1871000D+02 0.4133000D+01 0.1200000D+01 0.3827000D+00 0.3827000D+00
EXPONENTS  0.3827000D+00 0.1209000D+00 0.1209000D+00 0.1209000D+00 0.3569000D-01
EXPONENTS  0.3569000D-01 0.3569000D-01 0.1097000D+01 0.1097000D+01 0.1097000D+01
EXPONENTS  0.1097000D+01 0.1097000D+01 0.1097000D+01 0.3180000D+00 0.3180000D+00
EXPONENTS  0.3180000D+00 0.3180000D+00 0.3180000D+00 0.3180000D+00 0.1000000D+00
EXPONENTS  0.1000000D+00 0.1000000D+00 0.1000000D+00 0.1000000D+00 0.1000000D+00
EXPONENTS  0.7610000D+00 0.7610000D+00 0.7610000D+00 0.7610000D+00 0.7610000D+00
EXPONENTS  0.7610000D+00 0.7610000D+00 0.7610000D+00 0.7610000D+00 0.7610000D+00
EXPONENTS  0.2680000D+00 0.2680000D+00 0.2680000D+00 0.2680000D+00 0.2680000D+00
EXPONENTS  0.2680000D+00 0.2680000D+00 0.2680000D+00 0.2680000D+00 0.2680000D+00
EXPONENTS  0.3387000D+02 0.5095000D+01 0.1159000D+01 0.3258000D+00 0.1027000D+00
EXPONENTS  0.2526000D-01 0.1407000D+01 0.1407000D+01 0.1407000D+01 0.3880000D+00
EXPONENTS  0.3880000D+00 0.3880000D+00 0.1020000D+00 0.1020000D+00 0.1020000D+00
EXPONENTS  0.1057000D+01 0.1057000D+01 0.1057000D+01 0.1057000D+01 0.1057000D+01
EXPONENTS  0.1057000D+01 0.2470000D+00 0.2470000D+00 0.2470000D+00 0.2470000D+00
EXPONENTS  0.2470000D+00 0.2470000D+00 0.3387000D+02 0.5095000D+01 0.1159000D+01
EXPONENTS  0.3258000D+00 0.1027000D+00 0.2526000D-01 0.1407000D+01 0.1407000D+01
EXPONENTS  0.1407000D+01 0.3880000D+00 0.3880000D+00 0.3880000D+00 0.1020000D+00
EXPONENTS  0.1020000D+00 0.1020000D+00 0.1057000D+01 0.1057000D+01 0.1057000D+01
EXPONENTS  0.1057000D+01 0.1057000D+01 0.1057000D+01 0.2470000D+00 0.2470000D+00
EXPONENTS  0.2470000D+00 0.2470000D+00 0.2470000D+00 0.2470000D+00 0.3387000D+02
EXPONENTS  0.5095000D+01 0.1159000D+01 0.3258000D+00 0.1027000D+00 0.2526000D-01
EXPONENTS  0.1407000D+01 0.1407000D+01 0.1407000D+01 0.3880000D+00 0.3880000D+00
EXPONENTS  0.3880000D+00 0.1020000D+00 0.1020000D+00 0.1020000D+00 0.1057000D+01
EXPONENTS  0.1057000D+01 0.1057000D+01 0.1057000D+01 0.1057000D+01 0.1057000D+01
EXPONENTS  0.2470000D+00 0.2470000D+00 0.2470000D+00 0.2470000D+00 0.2470000D+00
EXPONENTS  0.2470000D+00 0.8236000D+04 0.1235000D+04 0.2808000D+03 0.7927000D+02
EXPONENTS  0.2559000D+02 0.8997000D+01 0.3319000D+01 0.3643000D+00 0.8236000D+04
EXPONENTS  0.1235000D+04 0.2808000D+03 0.7927000D+02 0.2559000D+02 0.8997000D+01
EXPONENTS  0.3319000D+01 0.3643000D+00 0.9059000D+00 0.1285000D+00 0.4402000D-01
EXPONENTS  0.1871000D+02 0.4133000D+01 0.1200000D+01 0.1871000D+02 0.4133000D+01
EXPONENTS  0.1200000D+01 0.1871000D+02 0.4133000D+01 0.1200000D+01 0.3827000D+00
EXPONENTS  0.3827000D+00 0.3827000D+00 0.1209000D+00 0.1209000D+00 0.1209000D+00
EXPONENTS  0.3569000D-01 0.3569000D-01 0.3569000D-01 0.1097000D+01 0.1097000D+01
EXPONENTS  0.1097000D+01 0.1097000D+01 0.1097000D+01 0.1097000D+01 0.3180000D+00
EXPONENTS  0.3180000D+00 0.3180000D+00 0.3180000D+00 0.3180000D+00 0.3180000D+00
EXPONENTS  0.1000000D+00 0.1000000D+00 0.1000000D+00 0.1000000D+00 0.1000000D+00
EXPONENTS  0.1000000D+00 0.7610000D+00 0.7610000D+00 0.7610000D+00 0.7610000D+00
EXPONENTS  0.7610000D+00 0.7610000D+00 0.7610000D+00 0.7610000D+00 0.7610000D+00
EXPONENTS  0.7610000D+00 0.2680000D+00 0.2680000D+00 0.2680000D+00 0.2680000D+00
EXPONENTS  0.2680000D+00 0.2680000D+00 0.2680000D+00 0.2680000D+00 0.2680000D+00
EXPONENTS  0.2680000D+00 0.3387000D+02 0.5095000D+01 0.1159000D+01 0.3258000D+00
EXPONENTS  0.1027000D+00 0.2526000D-01 0.1407000D+01 0.1407000D+01 0.1407000D+01
EXPONENTS  0.3880000D+00 0.3880000D+00 0.3880000D+00 0.1020000D+00 0.1020000D+00
EXPONENTS  0.1020000D+00 0.1057000D+01 0.1057000D+01 0.1057000D+01 0.1057000D+01
EXPONENTS  0.1057000D+01 0.1057000D+01 0.2470000D+00 0.2470000D+00 0.2470000D+00
EXPONENTS  0.2470000D+00 0.2470000D+00 0.2470000D+00 0.3387000D+02 0.5095000D+01
EXPONENTS  0.1159000D+01 0.3258000D+00 0.1027000D+00 0.2526000D-01 0.1407000D+01
EXPONENTS  0.1407000D+01 0.1407000D+01 0.3880000D+00 0.3880000D+00 0.3880000D+00
EXPONENTS  0.1020000D+00 0.1020000D+00 0.1020000D+00 0.1057000D+01 0.1057000D+01
EXPONENTS  0.1057000D+01 0.1057000D+01 0.1057000D+01 0.1057000D+01 0.2470000D+00
EXPONENTS  0.2470000D+00 0.2470000D+00 0.2470000D+00 0.2470000D+00 0.2470000D+00
EXPONENTS  0.8236000D+04 0.1235000D+04 0.2808000D+03 0.7927000D+02 0.2559000D+02
EXPONENTS  0.8997000D+01 0.3319000D+01 0.3643000D+00 0.8236000D+04 0.1235000D+04
EXPONENTS  0.2808000D+03 0.7927000D+02 0.2559000D+02 0.8997000D+01 0.3319000D+01
EXPONENTS  0.3643000D+00 0.9059000D+00 0.1285000D+00 0.4402000D-01 0.1871000D+02
EXPONENTS  0.4133000D+01 0.1200000D+01 0.1871000D+02 0.4133000D+01 0.1200000D+01
EXPONENTS  0.1871000D+02 0.4133000D+01 0.1200000D+01 0.3827000D+00 0.3827000D+00
EXPONENTS  0.3827000D+00 0.1209000D+00 0.1209000D+00 0.1209000D+00 0.3569000D-01
EXPONENTS  0.3569000D-01 0.3569000D-01 0.1097000D+01 0.1097000D+01 0.1097000D+01
EXPONENTS  0.1097000D+01 0.1097000D+01 0.1097000D+01 0.3180000D+00 0.3180000D+00
EXPONENTS  0.3180000D+00 0.3180000D+00 0.3180000D+00 0.3180000D+00 0.1000000D+00
EXPONENTS  0.1000000D+00 0.1000000D+00 0.1000000D+00 0.1000000D+00 0.1000000D+00
EXPONENTS  0.7610000D+00 0.7610000D+00 0.7610000D+00 0.7610000D+00 0.7610000D+00
EXPONENTS  0.7610000D+00 0.7610000D+00 0.7610000D+00 0.7610000D+00 0.7610000D+00
EXPONENTS  0.2680000D+00 0.2680000D+00 0.2680000D+00 0.2680000D+00 0.2680000D+00
EXPONENTS  0.2680000D+00 0.2680000D+00 0.2680000D+00 0.2680000D+00 0.2680000D+00
EXPONENTS  0.3387000D+02 0.5095000D+01 0.1159000D+01 0.3258000D+00 0.1027000D+00
EXPONENTS  0.2526000D-01 0.1407000D+01 0.1407000D+01 0.1407000D+01 0.3880000D+00
EXPONENTS  0.3880000D+00 0.3880000D+00 0.1020000D+00 0.1020000D+00 0.1020000D+00
EXPONENTS  0.1057000D+01 0.1057000D+01 0.1057000D+01 0.1057000D+01 0.1057000D+01
EXPONENTS  0.1057000D+01 0.2470000D+00 0.2470000D+00 0.2470000D+00 0.2470000D+00
EXPONENTS  0.2470000D+00 0.2470000D+00 0.3387000D+02 0.5095000D+01 0.1159000D+01
EXPONENTS  0.3258000D+00 0.1027000D+00 0.2526000D-01 0.1407000D+01 0.1407000D+01
EXPONENTS  0.1407000D+01 0.3880000D+00 0.3880000D+00 0.3880000D+00 0.1020000D+00
EXPONENTS  0.1020000D+00 0.1020000D+00 0.1057000D+01 0.1057000D+01 0.1057000D+01
EXPONENTS  0.1057000D+01 0.1057000D+01 0.1057000D+01 0.2470000D+00 0.2470000D+00
EXPONENTS  0.2470000D+00 0.2470000D+00 0.2470000D+00 0.2470000D+00 0.8236000D+04
EXPONENTS  0.1235000D+04 0.2808000D+03 0.7927000D+02 0.2559000D+02 0.8997000D+01
EXPONENTS  0.3319000D+01 0.3643000D+00 0.8236000D+04 0.1235000D+04 0.2808000D+03
EXPONENTS  0.7927000D+02 0.2559000D+02 0.8997000D+01 0.3319000D+01 0.3643000D+00
EXPONENTS  0.9059000D+00 0.1285000D+00 0.4402000D-01 0.1871000D+02 0.4133000D+01
EXPONENTS  0.1200000D+01 0.1871000D+02 0.4133000D+01 0.1200000D+01 0.1871000D+02
EXPONENTS  0.4133000D+01 0.1200000D+01 0.3827000D+00 0.3827000D+00 0.3827000D+00
EXPONENTS  0.1209000D+00 0.1209000D+00 0.1209000D+00 0.3569000D-01 0.3569000D-01
EXPONENTS  0.3569000D-01 0.1097000D+01 0.1097000D+01 0.1097000D+01 0.1097000D+01
EXPONENTS  0.1097000D+01 0.1097000D+01 0.3180000D+00 0.3180000D+00 0.3180000D+00
EXPONENTS  0.3180000D+00 0.3180000D+00 0.3180000D+00 0.1000000D+00 0.1000000D+00
EXPONENTS  0.1000000D+00 0.1000000D+00 0.1000000D+00 0.1000000D+00 0.7610000D+00
EXPONENTS  0.7610000D+00 0.7610000D+00 0.7610000D+00 0.7610000D+00 0.7610000D+00
EXPONENTS  0.7610000D+00 0.7610000D+00 0.7610000D+00 0.7610000D+00 0.2680000D+00
EXPONENTS  0.2680000D+00 0.2680000D+00 0.2680000D+00 0.2680000D+00 0.2680000D+00
EXPONENTS  0.2680000D+00 0.2680000D+00 0.2680000D+00 0.2680000D+00 0.8236000D+04
EXPONENTS  0.1235000D+04 0.2808000D+03 0.7927000D+02 0.2559000D+02 0.8997000D+01
EXPONENTS  0.3319000D+01 0.3643000D+00 0.8236000D+04 0.1235000D+04 0.2808000D+03
EXPONENTS  0.7927000D+02 0.2559000D+02 0.8997000D+01 0.3319000D+01 0.3643000D+00
EXPONENTS  0.9059000D+00 0.1285000D+00 0.4402000D-01 0.1871000D+02 0.4133000D+01
EXPONENTS  0.1200000D+01 0.1871000D+02 0.4133000D+01 0.1200000D+01 0.1871000D+02
EXPONENTS  0.4133000D+01 0.1200000D+01 0.3827000D+00 0.3827000D+00 0.3827000D+00
EXPONENTS  0.1209000D+00 0.1209000D+00 0.1209000D+00 0.3569000D-01 0.3569000D-01
EXPONENTS  0.3569000D-01 0.1097000D+01 0.1097000D+01 0.1097000D+01 0.1097000D+01
EXPONENTS  0.1097000D+01 0.1097000D+01 0.3180000D+00 0.3180000D+00 0.3180000D+00
EXPONENTS  0.3180000D+00 0.3180000D+00 0.3180000D+00 0.1000000D+00 0.1000000D+00
EXPONENTS  0.1000000D+00 0.1000000D+00 0.1000000D+00 0.1000000D+00 0.7610000D+00
EXPONENTS  0.7610000D+00 0.7610000D+00 0.7610000D+00 0.7610000D+00 0.7610000D+00
EXPONENTS  0.7610000D+00 0.7610000D+00 0.7610000D+00 0.7610000D+00 0.2680000D+00
EXPONENTS  0.2680000D+00 0.2680000D+00 0.2680000D+00 0.2680000D+00 0.2680000D+00
EXPONENTS  0.2680000D+00 0.2680000D+00 0.2680000D+00 0.2680000D+00 0.3387000D+02
EXPONENTS  0.5095000D+01 0.1159000D+01 0.3258000D+00 0.1027000D+00 0.2526000D-01
EXPONENTS  0.1407000D+01 0.1407000D+01 0.1407000D+01 0.3880000D+00 0.3880000D+00
EXPONENTS  0.3880000D+00 0.1020000D+00 0.1020000D+00 0.1020000D+00 0.1057000D+01
EXPONENTS  0.1057000D+01 0.1057000D+01 0.1057000D+01 0.1057000D+01 0.1057000D+01
EXPONENTS  0.2470000D+00 0.2470000D+00 0.2470000D+00 0.2470000D+00 0.2470000D+00
EXPONENTS  0.2470000D+00 0.3387000D+02 0.5095000D+01 0.1159000D+01 0.3258000D+00
EXPONENTS  0.1027000D+00 0.2526000D-01 0.1407000D+01 0.1407000D+01 0.1407000D+01
EXPONENTS  0.3880000D+00 0.3880000D+00 0.3880000D+00 0.1020000D+00 0.1020000D+00
EXPONENTS  0.1020000D+00 0.1057000D+01 0.1057000D+01 0.1057000D+01 0.1057000D+01
EXPONENTS  0.1057000D+01 0.1057000D+01 0.2470000D+00 0.2470000D+00 0.2470000D+00
EXPONENTS  0.2470000D+00 0.2470000D+00 0.2470000D+00 0.3387000D+02 0.5095000D+01
EXPONENTS  0.1159000D+01 0.3258000D+00 0.1027000D+00 0.2526000D-01 0.1407000D+01
EXPONENTS  0.1407000D+01 0.1407000D+01 0.3880000D+00 0.3880000D+00 0.3880000D+00
EXPONENTS  0.1020000D+00 0.1020000D+00 0.1020000D+00 0.1057000D+01 0.1057000D+01
EXPONENTS  0.1057000D+01 0.1057000D+01 0.1057000D+01 0.1057000D+01 0.2470000D+00
EXPONENTS  0.2470000D+00 0.2470000D+00 0.2470000D+00 0.2470000D+00 0.2470000D+00
MO    1     MO 0.0        OCC NO =    2.0000000  ORB. ENERGY =  -10.038224
  0.60923835D-02  0.11357588D-01  0.19196325D-01  0.28858364D-01  0.35455834D-01
  0.29948120D-01  0.11295329D-01 -0.55901214D-04 -0.33159369D-03 -0.62084800D-03
 -0.10570468D-02 -0.16350907D-02 -0.21533570D-02 -0.22374758D-02 -0.14218155D-02
  0.95286765D-03  0.25876224D-02 -0.11067360D-01 -0.67424276D-04 -0.14152533D-03
 -0.13268899D-03 -0.94482468D-04  0.46021158D-05  0.43147761D-05  0.30723777D-05
  0.79253212D-03  0.74304924D-03  0.52909533D-03  0.18017418D-03 -0.11096963D-05
  0.11305034D-03 -0.55846847D-03  0.84008774D-04 -0.23644848D-02 -0.40502636D-04
 -0.67126200D-05 -0.10964283D-04  0.34110152D-03  0.19785401D-03 -0.53895553D-03
 -0.37001828D-04 -0.18604883D-03 -0.72450113D-05 -0.13944723D-03  0.12529230D-02
 -0.11134758D-02  0.50482089D-04  0.18142679D-02  0.49098062D-04  0.15526298D-03
  0.16851801D-05 -0.15694816D-03 -0.41979457D-04 -0.37537119D-03  0.18407813D-04
 -0.11135065D-03  0.67404486D-06 -0.77601148D-03 -0.35971366D-04 -0.23326399D-04
  0.14490421D-02  0.37002330D-03  0.21304264D-04  0.87899230D-03 -0.12676945D-04
 -0.75477440D-04 -0.13018125D-04 -0.15802530D-03  0.55099898D-04  0.77658195D-06
  0.33373447D-03  0.17133242D-03  0.38277794D-04  0.14034142D-03 -0.17613086D-04
  0.20609318D+00  0.38420454D+00  0.64937335D+00  0.97622086D+00  0.11994001D+01
  0.10130851D+01  0.38209844D+00 -0.18910265D-02 -0.25238602D-02 -0.47254627D-02
 -0.80455045D-02 -0.12445172D-01 -0.16389854D-01 -0.17030108D-01 -0.10821869D-01
  0.72525651D-02  0.21420326D-01 -0.19230580D-02 -0.83979085D-03 -0.39404094D-04
 -0.36943843D-04 -0.26306217D-04 -0.44676482D-04 -0.41887042D-04 -0.29826069D-04
  0.55464324D-03  0.52001329D-03  0.37028044D-03 -0.42560594D-03 -0.11730578D-03
 -0.10733790D-02 -0.13493501D-02  0.37518892D-03 -0.35798601D-02  0.80353647D-04
  0.24636705D-04 -0.42073204D-04  0.79589755D-03 -0.26446968D-02  0.18487993D-02
  0.57885644D-04 -0.13585288D-03 -0.28857382D-03 -0.26572584D-03  0.28774053D-03
 -0.22014690D-04 -0.67342649D-04  0.17436419D-02  0.36946254D-03 -0.62808751D-03
 -0.69776834D-05  0.63506519D-03  0.23217723D-05 -0.90960934D-03  0.52264340D-04
  0.18423264D-03 -0.38848776D-04 -0.73949956D-03 -0.71205586D-03  0.73896977D-04
  0.20534557D-02  0.15935793D-03  0.42649351D-04  0.16504294D-03 -0.33814342D-03
  0.41034703D-04 -0.98978553D-05  0.49567846D-03  0.23878577D-03 -0.31890477D-04
 -0.14612429D-02 -0.36188988D-03  0.61584043D-04 -0.25792446D-04 -0.12649796D-05
  0.17997334D-04  0.32458932D-04  0.47860677D-04  0.33933716D-02 -0.25992006D-02
  0.32670232D-04 -0.29013561D-03  0.36912293D-04  0.27293380D-03 -0.12132657D-02
 -0.64779518D-04  0.57170958D-03  0.14551241D-03  0.38751150D-04 -0.25644912D-03
  0.13578591D-03 -0.10176495D-04 -0.12560941D-03  0.25376586D-04 -0.35565620D-03
 -0.13770749D-04  0.85463573D-04  0.44352848D-04 -0.12981642D-03  0.18708627D-04
  0.20791575D-04  0.40439825D-06  0.43337357D-04  0.78160708D-04  0.11524792D-03
  0.75945464D-03  0.12887718D-02 -0.59015977D-04  0.26657513D-03  0.35112920D-04
  0.35487615D-03  0.38986961D-03 -0.20535425D-04 -0.14694538D-03  0.30865868D-03
 -0.13024968D-04 -0.95126985D-04  0.16095694D-03 -0.36789326D-04 -0.12416761D-03
  0.45452107D-04  0.24911090D-03 -0.45153256D-04  0.67384104D-04  0.30904989D-04
 -0.98289094D-04 -0.15482614D-04 -0.62912526D-04  0.31417717D-04  0.55040710D-04
  0.99268187D-04  0.14637088D-03  0.17414955D-02  0.97903280D-02 -0.36393602D-04
  0.78225631D-03  0.43853400D-04  0.31639611D-03  0.12649059D-02 -0.96163322D-04
  0.95713734D-03 -0.71895061D-03 -0.51842478D-04 -0.70493692D-03 -0.11216276D-02
  0.87970079D-03  0.24192684D-03  0.14100451D-03 -0.18708437D-02 -0.66546280D-04
 -0.20340704D-03  0.27507872D-03 -0.71671671D-04  0.29981403D-04 -0.17720103D-03
 -0.24207604D-04  0.11147051D+00  0.20780638D+00  0.35122939D+00  0.52801282D+00
  0.64872476D+00  0.54795177D+00  0.20666725D+00 -0.10228077D-02 -0.15132280D-02
 -0.28332403D-02 -0.48238340D-02 -0.74617377D-02 -0.98268460D-02 -0.10210722D-01
 -0.64884558D-02  0.43484122D-02  0.11793055D-01 -0.13586850D-02  0.57410736D-03
  0.13061893D-03  0.12246355D-03  0.87201344D-04 -0.66216954D-04 -0.62082604D-04
 -0.44206512D-04  0.92671557D-04  0.86885475D-04  0.61867634D-04  0.11769471D-02
 -0.13270936D-03 -0.14981550D-02  0.77744051D-03  0.76113615D-03  0.51775608D-03
  0.13322015D-04 -0.48593235D-05 -0.88621942D-05  0.33334770D-03 -0.57789566D-03
  0.24454796D-03  0.51042909D-03 -0.90181936D-03  0.27087508D-03 -0.44128703D-03
  0.57777051D-03 -0.13648348D-03 -0.81404265D-03  0.19588083D-02  0.40839144D-03
 -0.31591933D-03  0.32401437D-03 -0.80950492D-05 -0.90772230D-04 -0.49946347D-03
  0.24901815D-03 -0.17782906D-03 -0.51668314D-04 -0.18380112D-03  0.76367520D-03
 -0.32025739D-03 -0.61474023D-04 -0.23018803D-03  0.47526233D-03  0.61287739D-03
 -0.29528955D-03 -0.20725252D-03  0.16233676D-04  0.59495648D-04  0.78595405D-03
 -0.88258425D-04  0.28017326D-03 -0.16419649D-03  0.39557397D-04 -0.45866021D-03
 -0.45904762D-03  0.10287463D-05  0.18553863D-05  0.27357660D-05 -0.23689449D-03
 -0.62375923D-02  0.14903861D-04  0.28510266D-04  0.38192701D-03  0.50398464D-03
 -0.67783879D-03  0.38455569D-03  0.34127349D-03  0.84915186D-04  0.61691531D-03
  0.57128522D-03  0.32942431D-03 -0.21018629D-03 -0.11923802D-03  0.49345614D-03
  0.47566040D-03 -0.78165151D-03  0.25847585D-04  0.16889390D-04 -0.42736975D-04
 -0.54747032D-04  0.34060740D-03  0.83081551D-04 -0.32385691D-04 -0.58408928D-04
 -0.86123930D-04 -0.70177966D-03  0.63463687D-02  0.59641701D-04 -0.41255406D-03
 -0.85828665D-04 -0.18665727D-03 -0.80020894D-03  0.37649376D-03 -0.38045883D-03
  0.60869886D-03 -0.78679314D-04  0.28550994D-03 -0.56969914D-03  0.31891198D-03
  0.25078716D-03  0.32990867D-03 -0.74092582D-03  0.15797582D-03 -0.13781677D-03
  0.13927210D-03 -0.14553261D-05  0.62060359D-04  0.49851035D-04 -0.69428808D-05
  0.11147051D+00  0.20780638D+00  0.35122939D+00  0.52801282D+00  0.64872476D+00
  0.54795177D+00  0.20666725D+00 -0.10228077D-02 -0.15132280D-02 -0.28332403D-02
 -0.48238340D-02 -0.74617377D-02 -0.98268460D-02 -0.10210722D-01 -0.64884558D-02
  0.43484122D-02  0.11793055D-01 -0.13586850D-02  0.57410735D-03 -0.13061893D-03
 -0.12246355D-03 -0.87201344D-04  0.66216954D-04  0.62082604D-04  0.44206512D-04
 -0.92671557D-04 -0.86885475D-04 -0.61867634D-04 -0.11769471D-02  0.13270936D-03
  0.14981550D-02 -0.77744051D-03 -0.76113615D-03 -0.51775608D-03 -0.13322015D-04
  0.48593231D-05  0.88621942D-05  0.33334770D-03 -0.57789566D-03  0.24454796D-03
  0.51042909D-03 -0.90181936D-03  0.27087508D-03 -0.44128703D-03  0.57777051D-03
 -0.13648348D-03 -0.81404265D-03  0.19588083D-02  0.40839144D-03 -0.31591932D-03
  0.32401437D-03 -0.80950505D-05 -0.90772230D-04 -0.49946346D-03  0.24901815D-03
  0.17782905D-03  0.51668314D-04  0.18380112D-03 -0.76367520D-03  0.32025739D-03
  0.61474023D-04  0.23018803D-03 -0.47526233D-03 -0.61287739D-03  0.29528955D-03
  0.20725252D-03 -0.16233676D-04 -0.59495648D-04 -0.78595405D-03  0.88258425D-04
 -0.28017326D-03  0.16419649D-03 -0.39557397D-04  0.45866021D-03  0.45904762D-03
  0.10287462D-05  0.18553861D-05  0.27357658D-05 -0.23689449D-03 -0.62375923D-02
  0.14903860D-04 -0.28510266D-04 -0.38192701D-03 -0.50398464D-03  0.67783879D-03
 -0.38455569D-03 -0.34127349D-03 -0.84915186D-04 -0.61691531D-03 -0.57128522D-03
  0.32942431D-03 -0.21018629D-03 -0.11923802D-03  0.49345614D-03  0.47566040D-03
 -0.78165151D-03  0.25847585D-04  0.16889390D-04 -0.42736974D-04 -0.54747032D-04
  0.34060740D-03  0.83081551D-04 -0.32385691D-04 -0.58408928D-04 -0.86123930D-04
 -0.70177967D-03  0.63463687D-02  0.59641701D-04  0.41255406D-03  0.85828665D-04
  0.18665727D-03  0.80020894D-03 -0.37649376D-03  0.38045883D-03 -0.60869886D-03
  0.78679314D-04 -0.28550994D-03 -0.56969914D-03  0.31891198D-03  0.25078716D-03
  0.32990867D-03 -0.74092582D-03  0.15797582D-03 -0.13781677D-03  0.13927210D-03
 -0.14553260D-05  0.62060359D-04  0.49851035D-04 -0.69428809D-05  0.20609318D+00
  0.38420454D+00  0.64937336D+00  0.97622086D+00  0.11994001D+01  0.10130851D+01
  0.38209844D+00 -0.18910265D-02 -0.25238602D-02 -0.47254627D-02 -0.80455046D-02
 -0.12445172D-01 -0.16389854D-01 -0.17030108D-01 -0.10821869D-01  0.72525651D-02
  0.21420326D-01 -0.19230580D-02 -0.83979085D-03  0.39404094D-04  0.36943843D-04
  0.26306217D-04  0.44676482D-04  0.41887042D-04  0.29826069D-04 -0.55464324D-03
 -0.52001329D-03 -0.37028044D-03  0.42560594D-03  0.11730578D-03  0.10733790D-02
  0.13493501D-02 -0.37518892D-03  0.35798601D-02 -0.80353646D-04 -0.24636705D-04
  0.42073204D-04  0.79589755D-03 -0.26446968D-02  0.18487993D-02  0.57885644D-04
 -0.13585288D-03 -0.28857382D-03 -0.26572584D-03  0.28774053D-03 -0.22014690D-04
 -0.67342649D-04  0.17436419D-02  0.36946254D-03 -0.62808751D-03 -0.69776834D-05
  0.63506519D-03  0.23217722D-05 -0.90960934D-03  0.52264340D-04 -0.18423264D-03
  0.38848776D-04  0.73949956D-03  0.71205587D-03 -0.73896977D-04 -0.20534557D-02
 -0.15935793D-03 -0.42649351D-04 -0.16504294D-03  0.33814342D-03 -0.41034703D-04
  0.98978552D-05 -0.49567846D-03 -0.23878577D-03  0.31890477D-04  0.14612429D-02
  0.36188988D-03 -0.61584043D-04  0.25792446D-04  0.12649796D-05  0.60923835D-02
  0.11357588D-01  0.19196325D-01  0.28858364D-01  0.35455834D-01  0.29948120D-01
  0.11295329D-01 -0.55901214D-04 -0.33159369D-03 -0.62084800D-03 -0.10570468D-02
 -0.16350907D-02 -0.21533570D-02 -0.22374758D-02 -0.14218155D-02  0.95286766D-03
  0.25876224D-02 -0.11067360D-01 -0.67424275D-04  0.14152533D-03  0.13268899D-03
  0.94482469D-04 -0.46021157D-05 -0.43147760D-05 -0.30723775D-05 -0.79253212D-03
 -0.74304924D-03 -0.52909533D-03 -0.18017418D-03  0.11096959D-05 -0.11305033D-03
  0.55846847D-03 -0.84008774D-04  0.23644848D-02  0.40502636D-04  0.67126200D-05
  0.10964283D-04  0.34110152D-03  0.19785401D-03 -0.53895553D-03 -0.37001828D-04
 -0.18604883D-03 -0.72450113D-05 -0.13944723D-03  0.12529230D-02 -0.11134758D-02
  0.50482089D-04  0.18142679D-02  0.49098062D-04  0.15526298D-03  0.16851801D-05
 -0.15694816D-03 -0.41979457D-04 -0.37537120D-03  0.18407813D-04  0.11135065D-03
 -0.67404484D-06  0.77601149D-03  0.35971366D-04  0.23326399D-04 -0.14490421D-02
 -0.37002330D-03 -0.21304264D-04 -0.87899231D-03  0.12676945D-04  0.75477440D-04
  0.13018125D-04  0.15802530D-03 -0.55099897D-04 -0.77658197D-06 -0.33373447D-03
 -0.17133242D-03 -0.38277794D-04 -0.14034142D-03  0.17613086D-04  0.55040710D-04
  0.99268187D-04  0.14637088D-03  0.17414955D-02  0.97903280D-02 -0.36393602D-04
 -0.78225631D-03 -0.43853400D-04 -0.31639611D-03 -0.12649059D-02  0.96163322D-04
 -0.95713734D-03  0.71895061D-03  0.51842478D-04  0.70493692D-03 -0.11216276D-02
  0.87970079D-03  0.24192684D-03  0.14100451D-03 -0.18708437D-02 -0.66546280D-04
 -0.20340704D-03  0.27507872D-03 -0.71671671D-04  0.29981403D-04 -0.17720104D-03
 -0.24207604D-04  0.17997334D-04  0.32458933D-04  0.47860677D-04  0.33933716D-02
 -0.25992007D-02  0.32670232D-04  0.29013561D-03 -0.36912293D-04 -0.27293380D-03
  0.12132657D-02  0.64779518D-04 -0.57170958D-03 -0.14551241D-03 -0.38751150D-04