 Molden2AIM, Version 4.0.0 (06/02/2016)           Time: Sat Jun 30 05:02:41 2018
GAUSSIAN             20 MOL ORBITALS    337 PRIMITIVES        3 NUCLEI
  C    1    (CENTRE  1)   0.00000000  0.00000000 -0.60856551  CHARGE =  6.0
  Cl   2    (CENTRE  2)  -2.65967425  0.00000000  1.28500243  CHARGE = 17.0
  Cl   3    (CENTRE  3)   2.65967425  0.00000000  1.28500243  CHARGE = 17.0
CENTRE ASSIGNMENTS    1  1  1  1  1  1  1  1  1  1  1  1  1  1  1  1  1  1  1  1
CENTRE ASSIGNMENTS    1  1  1  1  1  1  1  1  1  1  1  1  1  1  1  1  1  1  1  1
CENTRE ASSIGNMENTS    1  1  1  1  1  1  1  1  1  1  1  1  1  1  1  1  1  1  1  1
CENTRE ASSIGNMENTS    1  1  1  1  1  1  1  1  1  1  1  1  1  1  1  2  2  2  2  2
CENTRE ASSIGNMENTS    2  2  2  2  2  2  2  2  2  2  2  2  2  2  2  2  2  2  2  2
CENTRE ASSIGNMENTS    2  2  2  2  2  2  2  2  2  2  2  2  2  2  2  2  2  2  2  2
CENTRE ASSIGNMENTS    2  2  2  2  2  2  2  2  2  2  2  2  2  2  2  2  2  2  2  2
CENTRE ASSIGNMENTS    2  2  2  2  2  2  2  2  2  2  2  2  2  2  2  2  2  2  2  2
CENTRE ASSIGNMENTS    2  2  2  2  2  2  2  2  2  2  2  2  2  2  2  2  2  2  2  2
CENTRE ASSIGNMENTS    2  2  2  2  2  2  2  2  2  2  2  2  2  2  2  2  2  2  2  2
CENTRE ASSIGNMENTS    2  2  2  2  2  2  3  3  3  3  3  3  3  3  3  3  3  3  3  3
CENTRE ASSIGNMENTS    3  3  3  3  3  3  3  3  3  3  3  3  3  3  3  3  3  3  3  3
CENTRE ASSIGNMENTS    3  3  3  3  3  3  3  3  3  3  3  3  3  3  3  3  3  3  3  3
CENTRE ASSIGNMENTS    3  3  3  3  3  3  3  3  3  3  3  3  3  3  3  3  3  3  3  3
CENTRE ASSIGNMENTS    3  3  3  3  3  3  3  3  3  3  3  3  3  3  3  3  3  3  3  3
CENTRE ASSIGNMENTS    3  3  3  3  3  3  3  3  3  3  3  3  3  3  3  3  3  3  3  3
CENTRE ASSIGNMENTS    3  3  3  3  3  3  3  3  3  3  3  3  3  3  3  3  3
TYPE ASSIGNMENTS      1  1  1  1  1  1  1  1  1  1  1  1  1  1  1  1  1  1  1  2
TYPE ASSIGNMENTS      2  2  3  3  3  4  4  4  2  3  4  2  3  4  2  3  4  5  6  7
TYPE ASSIGNMENTS      8  9 10  5  6  7  8  9 10  5  6  7  8  9 10 11 12 13 17 14
TYPE ASSIGNMENTS     15 18 19 16 20 11 12 13 17 14 15 18 19 16 20  1  1  1  1  1
TYPE ASSIGNMENTS      1  1  1  1  1  1  1  1  1  1  1  1  1  1  1  1  1  1  1  1
TYPE ASSIGNMENTS      1  1  1  1  1  1  1  1  1  1  1  1  1  1  1  1  1  2  2  2
TYPE ASSIGNMENTS      2  2  2  2  3  3  3  3  3  3  3  4  4  4  4  4  4  4  2  2
TYPE ASSIGNMENTS      2  2  2  2  2  3  3  3  3  3  3  3  4  4  4  4  4  4  4  2
TYPE ASSIGNMENTS      3  4  2  3  4  2  3  4  5  6  7  8  9 10  5  6  7  8  9 10
TYPE ASSIGNMENTS      5  6  7  8  9 10 11 12 13 17 14 15 18 19 16 20 11 12 13 17
TYPE ASSIGNMENTS     14 15 18 19 16 20  1  1  1  1  1  1  1  1  1  1  1  1  1  1
TYPE ASSIGNMENTS      1  1  1  1  1  1  1  1  1  1  1  1  1  1  1  1  1  1  1  1
TYPE ASSIGNMENTS      1  1  1  1  1  1  1  1  2  2  2  2  2  2  2  3  3  3  3  3
TYPE ASSIGNMENTS      3  3  4  4  4  4  4  4  4  2  2  2  2  2  2  2  3  3  3  3
TYPE ASSIGNMENTS      3  3  3  4  4  4  4  4  4  4  2  3  4  2  3  4  2  3  4  5
TYPE ASSIGNMENTS      6  7  8  9 10  5  6  7  8  9 10  5  6  7  8  9 10 11 12 13
TYPE ASSIGNMENTS     17 14 15 18 19 16 20 11 12 13 17 14 15 18 19 16 20
EXPONENTS  0.8236000D+04 0.1235000D+04 0.2808000D+03 0.7927000D+02 0.2559000D+02
EXPONENTS  0.8997000D+01 0.3319000D+01 0.3643000D+00 0.8236000D+04 0.1235000D+04
EXPONENTS  0.2808000D+03 0.7927000D+02 0.2559000D+02 0.8997000D+01 0.3319000D+01
EXPONENTS  0.3643000D+00 0.9059000D+00 0.1285000D+00 0.4402000D-01 0.1871000D+02
EXPONENTS  0.4133000D+01 0.1200000D+01 0.1871000D+02 0.4133000D+01 0.1200000D+01
EXPONENTS  0.1871000D+02 0.4133000D+01 0.1200000D+01 0.3827000D+00 0.3827000D+00
EXPONENTS  0.3827000D+00 0.1209000D+00 0.1209000D+00 0.1209000D+00 0.3569000D-01
EXPONENTS  0.3569000D-01 0.3569000D-01 0.1097000D+01 0.1097000D+01 0.1097000D+01
EXPONENTS  0.1097000D+01 0.1097000D+01 0.1097000D+01 0.3180000D+00 0.3180000D+00
EXPONENTS  0.3180000D+00 0.3180000D+00 0.3180000D+00 0.3180000D+00 0.1000000D+00
EXPONENTS  0.1000000D+00 0.1000000D+00 0.1000000D+00 0.1000000D+00 0.1000000D+00
EXPONENTS  0.7610000D+00 0.7610000D+00 0.7610000D+00 0.7610000D+00 0.7610000D+00
EXPONENTS  0.7610000D+00 0.7610000D+00 0.7610000D+00 0.7610000D+00 0.7610000D+00
EXPONENTS  0.2680000D+00 0.2680000D+00 0.2680000D+00 0.2680000D+00 0.2680000D+00
EXPONENTS  0.2680000D+00 0.2680000D+00 0.2680000D+00 0.2680000D+00 0.2680000D+00
EXPONENTS  0.4561000D+06 0.6833000D+05 0.1555000D+05 0.4405000D+04 0.1439000D+04
EXPONENTS  0.5204000D+03 0.2031000D+03 0.8396000D+02 0.3620000D+02 0.1583000D+02
EXPONENTS  0.6334000D+01 0.2694000D+01 0.4313000D+00 0.4561000D+06 0.6833000D+05
EXPONENTS  0.1555000D+05 0.4405000D+04 0.1439000D+04 0.5204000D+03 0.2031000D+03
EXPONENTS  0.8396000D+02 0.3620000D+02 0.1583000D+02 0.6334000D+01 0.2694000D+01
EXPONENTS  0.4313000D+00 0.4561000D+06 0.6833000D+05 0.1555000D+05 0.4405000D+04
EXPONENTS  0.1439000D+04 0.5204000D+03 0.2031000D+03 0.8396000D+02 0.3620000D+02
EXPONENTS  0.1583000D+02 0.6334000D+01 0.2694000D+01 0.4313000D+00 0.9768000D+00
EXPONENTS  0.1625000D+00 0.5910000D-01 0.6633000D+03 0.1568000D+03 0.4998000D+02
EXPONENTS  0.1842000D+02 0.7240000D+01 0.2922000D+01 0.3818000D+00 0.6633000D+03
EXPONENTS  0.1568000D+03 0.4998000D+02 0.1842000D+02 0.7240000D+01 0.2922000D+01
EXPONENTS  0.3818000D+00 0.6633000D+03 0.1568000D+03 0.4998000D+02 0.1842000D+02
EXPONENTS  0.7240000D+01 0.2922000D+01 0.3818000D+00 0.6633000D+03 0.1568000D+03
EXPONENTS  0.4998000D+02 0.1842000D+02 0.7240000D+01 0.2922000D+01 0.3818000D+00
EXPONENTS  0.6633000D+03 0.1568000D+03 0.4998000D+02 0.1842000D+02 0.7240000D+01
EXPONENTS  0.2922000D+01 0.3818000D+00 0.6633000D+03 0.1568000D+03 0.4998000D+02
EXPONENTS  0.1842000D+02 0.7240000D+01 0.2922000D+01 0.3818000D+00 0.1022000D+01
EXPONENTS  0.1022000D+01 0.1022000D+01 0.1301000D+00 0.1301000D+00 0.1301000D+00
EXPONENTS  0.4190000D-01 0.4190000D-01 0.4190000D-01 0.1046000D+01 0.1046000D+01
EXPONENTS  0.1046000D+01 0.1046000D+01 0.1046000D+01 0.1046000D+01 0.3440000D+00
EXPONENTS  0.3440000D+00 0.3440000D+00 0.3440000D+00 0.3440000D+00 0.3440000D+00
EXPONENTS  0.1350000D+00 0.1350000D+00 0.1350000D+00 0.1350000D+00 0.1350000D+00
EXPONENTS  0.1350000D+00 0.7060000D+00 0.7060000D+00 0.7060000D+00 0.7060000D+00
EXPONENTS  0.7060000D+00 0.7060000D+00 0.7060000D+00 0.7060000D+00 0.7060000D+00
EXPONENTS  0.7060000D+00 0.3120000D+00 0.3120000D+00 0.3120000D+00 0.3120000D+00
EXPONENTS  0.3120000D+00 0.3120000D+00 0.3120000D+00 0.3120000D+00 0.3120000D+00
EXPONENTS  0.3120000D+00 0.4561000D+06 0.6833000D+05 0.1555000D+05 0.4405000D+04
EXPONENTS  0.1439000D+04 0.5204000D+03 0.2031000D+03 0.8396000D+02 0.3620000D+02
EXPONENTS  0.1583000D+02 0.6334000D+01 0.2694000D+01 0.4313000D+00 0.4561000D+06
EXPONENTS  0.6833000D+05 0.1555000D+05 0.4405000D+04 0.1439000D+04 0.5204000D+03
EXPONENTS  0.2031000D+03 0.8396000D+02 0.3620000D+02 0.1583000D+02 0.6334000D+01
EXPONENTS  0.2694000D+01 0.4313000D+00 0.4561000D+06 0.6833000D+05 0.1555000D+05
EXPONENTS  0.4405000D+04 0.1439000D+04 0.5204000D+03 0.2031000D+03 0.8396000D+02
EXPONENTS  0.3620000D+02 0.1583000D+02 0.6334000D+01 0.2694000D+01 0.4313000D+00
EXPONENTS  0.9768000D+00 0.1625000D+00 0.5910000D-01 0.6633000D+03 0.1568000D+03
EXPONENTS  0.4998000D+02 0.1842000D+02 0.7240000D+01 0.2922000D+01 0.3818000D+00
EXPONENTS  0.6633000D+03 0.1568000D+03 0.4998000D+02 0.1842000D+02 0.7240000D+01
EXPONENTS  0.2922000D+01 0.3818000D+00 0.6633000D+03 0.1568000D+03 0.4998000D+02
EXPONENTS  0.1842000D+02 0.7240000D+01 0.2922000D+01 0.3818000D+00 0.6633000D+03
EXPONENTS  0.1568000D+03 0.4998000D+02 0.1842000D+02 0.7240000D+01 0.2922000D+01
EXPONENTS  0.3818000D+00 0.6633000D+03 0.1568000D+03 0.4998000D+02 0.1842000D+02
EXPONENTS  0.7240000D+01 0.2922000D+01 0.3818000D+00 0.6633000D+03 0.1568000D+03
EXPONENTS  0.4998000D+02 0.1842000D+02 0.7240000D+01 0.2922000D+01 0.3818000D+00
EXPONENTS  0.1022000D+01 0.1022000D+01 0.1022000D+01 0.1301000D+00 0.1301000D+00
EXPONENTS  0.1301000D+00 0.4190000D-01 0.4190000D-01 0.4190000D-01 0.1046000D+01
EXPONENTS  0.1046000D+01 0.1046000D+01 0.1046000D+01 0.1046000D+01 0.1046000D+01
EXPONENTS  0.3440000D+00 0.3440000D+00 0.3440000D+00 0.3440000D+00 0.3440000D+00
EXPONENTS  0.3440000D+00 0.1350000D+00 0.1350000D+00 0.1350000D+00 0.1350000D+00
EXPONENTS  0.1350000D+00 0.1350000D+00 0.7060000D+00 0.7060000D+00 0.7060000D+00
EXPONENTS  0.7060000D+00 0.7060000D+00 0.7060000D+00 0.7060000D+00 0.7060000D+00
EXPONENTS  0.7060000D+00 0.7060000D+00 0.3120000D+00 0.3120000D+00 0.3120000D+00
EXPONENTS  0.3120000D+00 0.3120000D+00 0.3120000D+00 0.3120000D+00 0.3120000D+00
EXPONENTS  0.3120000D+00 0.3120000D+00
MO    1     MO 0.0        OCC NO =    2.0000000  ORB. ENERGY = -101.258063
 -0.59587947D-12 -0.11108548D-11 -0.18775403D-11 -0.28225581D-11 -0.34678388D-11
 -0.29291442D-11 -0.11047654D-11  0.54675457D-14  0.11643369D-12  0.21800061D-12
  0.37116468D-12  0.57413533D-12  0.75611603D-12  0.78565299D-12  0.49924721D-12
 -0.33458387D-12  0.52557722D-11  0.62379129D-10  0.68692720D-11  0.91786395D-04
  0.86055580D-04  0.61276700D-04  0.79089586D-16  0.74151514D-16  0.52800295D-16
  0.23989879D-12  0.22492036D-12  0.16015670D-12  0.22531580D-03 -0.28007398D-16
  0.87036065D-11  0.59139240D-03  0.14188179D-16  0.13911328D-10  0.14528832D-04
  0.58671554D-20  0.31813390D-12  0.35890808D-11 -0.11427769D-11 -0.24463039D-11
 -0.25523977D-18  0.18352963D-03 -0.19113726D-18 -0.13955489D-11  0.15413747D-12
  0.12414115D-11  0.18064734D-18 -0.64051836D-04  0.19394596D-18  0.11280898D-12
 -0.44173010D-12  0.32892112D-12 -0.40155674D-20  0.50249500D-04  0.10482094D-19
 -0.45995956D-04 -0.54263493D-19  0.47073341D-12  0.13468881D-03  0.94306921D-19
 -0.36344017D-11  0.32990629D-05  0.68483557D-19  0.22222015D-11  0.80146409D-19
  0.26797290D-04 -0.21083411D-19  0.92817969D-12  0.19231902D-04  0.62649036D-19
 -0.40026254D-11 -0.99623773D-04  0.60119852D-21  0.12180863D-11  0.92933791D-19
 -0.43658772D+00 -0.81685729D+00 -0.14113484D+01 -0.22879604D+01 -0.34744504D+01
 -0.48290775D+01 -0.57410765D+01 -0.51137094D+01 -0.25385985D+01 -0.40900889D+00
 -0.62793759D-02 -0.11221183D-02 -0.41931810D-04  0.97941853D-03  0.18294132D-02
  0.31750353D-02  0.51517920D-02  0.79743622D-02  0.11414575D-01  0.14899586D-01
  0.15877995D-01  0.11869124D-01  0.62654995D-03 -0.80508558D-02 -0.47831333D-02
  0.17933164D-04 -0.38376832D-03 -0.71624827D-03 -0.12447764D-02 -0.20174164D-02
 -0.31333636D-02 -0.44886337D-02 -0.59268226D-02 -0.64086533D-02 -0.50244673D-02
 -0.25001583D-03  0.43072388D-02  0.44587907D-02 -0.20176659D-02  0.25236430D-02
  0.11535230D-02  0.30136782D-03 -0.50330059D-02 -0.66295983D-02 -0.73140000D-02
 -0.60751177D-02 -0.32266426D-02 -0.83224525D-03  0.85551982D-06  0.18321910D-16
  0.24134068D-16  0.26625531D-16  0.22115564D-16  0.11746113D-16  0.30296652D-17
 -0.31143929D-20  0.99491960D-03  0.13105324D-02  0.14458243D-02  0.12009232D-02
  0.63783950D-03  0.16451741D-03 -0.16911831D-06  0.42801722D-02  0.56195524D-02
  0.63982738D-02  0.54177955D-02  0.31035218D-02  0.70594355D-03 -0.33042043D-03
 -0.57885975D-17 -0.76000042D-17 -0.86531639D-17 -0.73271438D-17 -0.41972701D-17
 -0.95473332D-18  0.44686774D-18 -0.81628930D-03 -0.10717280D-02 -0.12202412D-02
 -0.10332501D-02 -0.59188545D-03 -0.13463340D-03  0.63015843D-04  0.21382888D-03
 -0.13794524D-17  0.57881427D-05  0.42548956D-03 -0.91531520D-19 -0.30460609D-03
  0.10511831D-04  0.28562180D-20 -0.62772091D-05 -0.94571127D-04  0.12790849D-03
 -0.33337359D-04  0.17147533D-18  0.22295489D-03 -0.28171584D-19 -0.15376979D-04
 -0.37799176D-04  0.53176155D-04 -0.86169417D-19 -0.78872392D-04  0.74485313D-19
  0.37076775D-04 -0.38133859D-04  0.10570846D-05 -0.13004626D-19 -0.98588540D-04
  0.13750676D-19 -0.41891443D-04  0.24866962D-19 -0.23677372D-04  0.15701220D-03
 -0.35677756D-19  0.12427693D-03 -0.31337873D-04 -0.38923129D-19 -0.53244815D-04
  0.78242697D-19  0.11140316D-04  0.15678833D-19  0.58088151D-05 -0.76832490D-04
 -0.38384284D-19 -0.53597363D-04  0.43411542D-04 -0.86522150D-20  0.36170917D-04
  0.81147264D-19  0.43658775D+00  0.81685736D+00  0.14113486D+01  0.22879606D+01
  0.34744507D+01  0.48290779D+01  0.57410770D+01  0.51137098D+01  0.25385987D+01
  0.40900892D+00  0.62793764D-02  0.11221184D-02  0.41931814D-04 -0.97941861D-03
 -0.18294133D-02 -0.31750356D-02 -0.51517924D-02 -0.79743628D-02 -0.11414576D-01
 -0.14899587D-01 -0.15877996D-01 -0.11869124D-01 -0.62655000D-03  0.80508565D-02
  0.47831337D-02 -0.17933165D-04  0.38376835D-03  0.71624832D-03  0.12447765D-02
  0.20174166D-02  0.31333638D-02  0.44886341D-02  0.59268231D-02  0.64086538D-02
  0.50244677D-02  0.25001585D-03 -0.43072391D-02 -0.44587910D-02  0.20176660D-02
 -0.25236432D-02 -0.11535231D-02 -0.30136784D-03 -0.50330061D-02 -0.66295986D-02
 -0.73140003D-02 -0.60751180D-02 -0.32266427D-02 -0.83224529D-03  0.85551986D-06
 -0.99647167D-17 -0.13125768D-16 -0.14480797D-16 -0.12027967D-16 -0.63883453D-17
 -0.16477406D-17  0.16938213D-20 -0.99491983D-03 -0.13105327D-02 -0.14458246D-02
 -0.12009235D-02 -0.63783965D-03 -0.16451745D-03  0.16911835D-06  0.42801724D-02
  0.56195526D-02  0.63982741D-02  0.54177957D-02  0.31035220D-02  0.70594358D-03
 -0.33042045D-03  0.40510059D-17  0.53186737D-17  0.60557013D-17  0.51277192D-17
  0.29373550D-17  0.66814635D-18 -0.31272926D-18  0.81628949D-03  0.10717283D-02
  0.12202415D-02  0.10332504D-02  0.59188559D-03  0.13463344D-03 -0.63015858D-04
  0.21382888D-03  0.89747528D-18 -0.57881341D-05  0.42548959D-03 -0.29049973D-19
  0.30460611D-03  0.10511832D-04 -0.14977608D-20  0.62772093D-05  0.94571134D-04
 -0.12790849D-03  0.33337359D-04 -0.29581189D-18  0.22295491D-03 -0.42256789D-18
  0.15376976D-04  0.37799178D-04 -0.53176154D-04  0.26873348D-18 -0.78872396D-04
  0.27280142D-18 -0.37076778D-04  0.38133862D-04 -0.10570843D-05  0.77231330D-20
 -0.98588548D-04 -0.83947610D-20 -0.41891442D-04  0.46925884D-19  0.23677374D-04
  0.15701221D-03 -0.14716935D-18 -0.12427695D-03 -0.31337882D-04  0.63916945D-20
  0.53244824D-04 -0.24921312D-18  0.11140317D-04  0.27500870D-19 -0.58088164D-05
 -0.76832494D-04 -0.51905952D-19  0.53597370D-04  0.43411545D-04 -0.30596657D-19
 -0.36170921D-04 -0.17519967D-18
MO    2     MO 0.0        OCC NO =    2.0000000  ORB. ENERGY = -101.258058
 -0.14214785D-04 -0.26499591D-04 -0.44788977D-04 -0.67332503D-04 -0.82725760D-04
 -0.69875129D-04 -0.26354328D-04  0.13042904D-06  0.29423938D-05  0.55090896D-05
  0.93796964D-05  0.14508964D-04  0.19107795D-04  0.19854223D-04  0.12616468D-04
 -0.84552632D-05  0.12199922D-03  0.14629361D-02  0.16312229D-03 -0.39816898D-11
 -0.37330872D-11 -0.26581805D-11 -0.75082632D-19 -0.70394740D-19 -0.50125248D-19
  0.44292494D-05  0.41527029D-05  0.29569718D-05 -0.95986946D-11  0.61809760D-19
  0.20437767D-03 -0.25327743D-10 -0.95661642D-20  0.32674192D-03 -0.62386915D-12
  0.54883062D-21  0.76179419D-05  0.83243324D-04 -0.26278208D-04 -0.56965115D-04
  0.18136370D-18 -0.78870040D-11 -0.89457849D-19 -0.31872231D-04  0.29321949D-05
  0.28940036D-04 -0.11405960D-18  0.27947104D-11  0.61754660D-19  0.26694718D-05
 -0.10397771D-04  0.77282992D-05  0.34101988D-20 -0.21560513D-11 -0.43862931D-20
  0.19752542D-11 -0.79755398D-20  0.10812356D-04 -0.57974016D-11  0.15769890D-19
 -0.83913146D-04 -0.12836090D-12  0.81567292D-20  0.51476079D-04 -0.27807258D-19
 -0.11513889D-11 -0.10769384D-19  0.21595923D-04 -0.82338646D-12  0.26520262D-19
 -0.93104448D-04  0.42775533D-11  0.57878905D-20  0.28316680D-04 -0.64792157D-19
  0.43654581D+00  0.81677889D+00  0.14112130D+01  0.22877408D+01  0.34741169D+01
  0.48286140D+01  0.57405255D+01  0.51132186D+01  0.25383548D+01  0.40896963D+00
  0.62787732D-02  0.11220106D-02  0.41927785D-04 -0.90721558D-03 -0.16945484D-02
 -0.29409710D-02 -0.47720007D-02 -0.73864904D-02 -0.10573090D-01 -0.13801185D-01
 -0.14707466D-01 -0.10994129D-01 -0.58036054D-03  0.74573449D-02  0.44305196D-02
 -0.16611127D-04  0.34652373D-03  0.64673661D-03  0.11239713D-02  0.18216268D-02
  0.28292717D-02  0.40530134D-02  0.53516265D-02  0.57866957D-02  0.45368444D-02
  0.22575188D-03 -0.38892227D-02 -0.40260665D-02  0.18218521D-02 -0.24086388D-02
 -0.94427336D-03 -0.20953638D-03  0.26814595D-02  0.35320839D-02  0.38967160D-02
  0.32366706D-02  0.17190744D-02  0.44339942D-03 -0.45579953D-06 -0.21138589D-16
 -0.27844265D-16 -0.30718747D-16 -0.25515451D-16 -0.13551876D-16 -0.34954241D-17
  0.35931771D-20 -0.26765825D-02 -0.35256599D-02 -0.38896288D-02 -0.32307838D-02
 -0.17159478D-02 -0.44259299D-03  0.45497054D-06 -0.22150077D-02 -0.29081427D-02
 -0.33111344D-02 -0.28037326D-02 -0.16060860D-02 -0.36532884D-03  0.17099400D-03
  0.71173640D-17  0.93445772D-17  0.10639489D-16  0.90090820D-17  0.51607490D-17
  0.11738914D-17 -0.54944576D-18  0.22780316D-02  0.29908885D-02  0.34053466D-02
  0.28835076D-02  0.16517842D-02  0.37572360D-03 -0.17585932D-03 -0.73071944D-04
  0.15911246D-17  0.99445756D-04 -0.36352973D-03  0.67996619D-19  0.23024974D-03
 -0.65454432D-05 -0.45892031D-20  0.32297746D-05  0.79256257D-04 -0.80778206D-04
  0.15219482D-05  0.15117008D-18 -0.23779075D-03 -0.11918557D-18 -0.37673413D-04
  0.23984086D-04  0.13689327D-04 -0.12123870D-18  0.45379710D-04  0.87272568D-19
 -0.36401341D-04  0.32878994D-04  0.35223471D-05  0.82632323D-20  0.92965181D-04
 -0.52091913D-20 -0.74244665D-05  0.15582312D-19  0.31916171D-04 -0.87578657D-04
 -0.39606842D-19 -0.20116078D-03  0.10985206D-03 -0.71400943D-20  0.10541226D-03
  0.62265581D-19 -0.52250462D-05  0.64718340D-20 -0.14795592D-04  0.45408508D-04
 -0.13829494D-19  0.91046223D-04 -0.29733369D-04 -0.55860081D-20 -0.46659446D-04
  0.34661474D-19  0.43654577D+00  0.81677882D+00  0.14112129D+01  0.22877406D+01
  0.34741166D+01  0.48286136D+01  0.57405250D+01  0.51132181D+01  0.25383546D+01
  0.40896959D+00  0.62787726D-02  0.11220105D-02  0.41927782D-04 -0.90721549D-03
 -0.16945483D-02 -0.29409707D-02 -0.47720003D-02 -0.73864897D-02 -0.10573089D-01
 -0.13801184D-01 -0.14707464D-01 -0.10994128D-01 -0.58036049D-03  0.74573442D-02
  0.44305192D-02 -0.16611126D-04  0.34652370D-03  0.64673655D-03  0.11239712D-02
  0.18216267D-02  0.28292714D-02  0.40530130D-02  0.53516260D-02  0.57866951D-02
  0.45368440D-02  0.22575186D-03 -0.38892224D-02 -0.40260661D-02  0.18218519D-02
 -0.24086386D-02 -0.94427326D-03 -0.20953635D-03 -0.26814590D-02 -0.35320834D-02
 -0.38967154D-02 -0.32366700D-02 -0.17190741D-02 -0.44339935D-03  0.45579946D-06
 -0.88561308D-17 -0.11665512D-16 -0.12869792D-16 -0.10689842D-16 -0.56776347D-17
 -0.14644276D-17  0.15053818D-20 -0.26765825D-02 -0.35256598D-02 -0.38896287D-02
 -0.32307837D-02 -0.17159477D-02 -0.44259297D-03  0.45497053D-06  0.22150073D-02
  0.29081422D-02  0.33111339D-02  0.28037322D-02  0.16060857D-02  0.36532878D-03
 -0.17099398D-03  0.10846170D-17  0.14240226D-17  0.16213545D-17  0.13728964D-17
  0.78644790D-18  0.17888961D-18 -0.83730183D-19  0.22780315D-02  0.29908884D-02
  0.34053465D-02  0.28835075D-02  0.16517841D-02  0.37572359D-03 -0.17585932D-03
  0.73071925D-04  0.50953593D-18  0.99445757D-04  0.36352969D-03  0.15424123D-19
  0.23024971D-03  0.65454423D-05 -0.96338787D-21  0.32297741D-05  0.79256249D-04
 -0.80778195D-04  0.15219454D-05  0.35772082D-19  0.23779073D-03 -0.10963978D-19
 -0.37673414D-04  0.23984082D-04  0.13689332D-04 -0.21500705D-19 -0.45379703D-04
 -0.12076842D-19 -0.36401338D-04  0.32878990D-04  0.35223472D-05 -0.14474088D-20
 -0.92965173D-04  0.15943107D-20  0.74244700D-05 -0.13605224D-19  0.31916169D-04
  0.87578643D-04  0.12585819D-19 -0.20116077D-03 -0.10985205D-03  0.28229852D-19
  0.10541226D-03 -0.34089957D-19  0.52250453D-05  0.35980953D-20 -0.14795592D-04
 -0.45408501D-04 -0.47825953D-21  0.91046218D-04  0.29733366D-04 -0.10316026D-19
 -0.46659443D-04  0.22203266D-19
MO    3     MO 0.0        OCC NO =    2.0000000  ORB. ENERGY =  -10.195998
  0.32724428D+00  0.61005774D+00  0.10311050D+01  0.15500886D+01  0.19044630D+01
  0.16086234D+01  0.60671358D+00 -0.30026593D-02 -0.93796074D-03 -0.17561585D-02
 -0.29900100D-02 -0.46250909D-02 -0.60910820D-02 -0.63290243D-02 -0.40218108D-02
  0.26953241D-02  0.31024746D-01 -0.46785222D-02 -0.81356748D-03 -0.10374895D-13
 -0.97271238D-14 -0.69262916D-14  0.19399102D-16  0.18187891D-16  0.12950862D-16
  0.80917136D-02  0.75864958D-02  0.54020370D-02  0.37569379D-14 -0.35455490D-17
 -0.12256847D-02 -0.51774075D-15 -0.58722771D-19 -0.16169272D-02 -0.13151568D-15
 -0.58492988D-20 -0.53583564D-04  0.11916118D-02 -0.17972780D-02  0.60566620D-03
 -0.74188356D-17 -0.30448231D-15 -0.72753648D-17 -0.62506428D-03  0.75293114D-03
 -0.12786687D-03  0.55051586D-18  0.11948696D-14 -0.74818276D-18 -0.55510054D-04
  0.10225924D-03 -0.46749188D-04  0.10399281D-19 -0.17802316D-15  0.10936341D-19
  0.36403640D-15  0.71568788D-18  0.53776322D-04 -0.12039244D-14  0.20600126D-17
  0.25220614D-04  0.11181521D-15 -0.42070763D-17 -0.18654958D-03  0.82659665D-18
  0.33236503D-16  0.58377020D-19  0.85424436D-04 -0.69954697D-16 -0.34444396D-18
 -0.50336327D-03 -0.29754811D-16  0.16931290D-18  0.24708996D-03  0.88548860D-19
  0.27179383D-04  0.50852730D-04  0.87862252D-04  0.14243496D-03  0.21629885D-03
  0.30062996D-03  0.35740566D-03  0.31834947D-03  0.15803821D-03  0.25462487D-04
  0.39091701D-06  0.69856485D-07  0.26104279D-08 -0.52100839D-04 -0.97316887D-04
 -0.16889818D-03 -0.27405310D-03 -0.42420165D-03 -0.60720613D-03 -0.79259367D-03
 -0.84464081D-03 -0.63138615D-03 -0.33329753D-04  0.42827079D-03  0.25444205D-03
 -0.95396693D-06  0.23974602D-04  0.44745141D-04  0.77763117D-04  0.12603114D-03
  0.19574609D-03  0.28041192D-03  0.37025781D-03  0.40035852D-03  0.31388627D-03
  0.15618877D-04 -0.26907989D-03 -0.27854757D-03  0.12604672D-03 -0.32699051D-03
  0.24719260D-02  0.74976149D-03  0.17777417D-01  0.23416848D-01  0.25834269D-01
  0.21458330D-01  0.11397040D-01  0.29396291D-02 -0.30218388D-05  0.67054091D-17
  0.88325286D-17  0.97443482D-17  0.80938013D-17  0.42988145D-17  0.11087897D-17
 -0.11397981D-20 -0.13143508D-01 -0.17312950D-01 -0.19100240D-01 -0.15864945D-01
 -0.84262574D-02 -0.21733776D-02  0.22341583D-05 -0.16261965D-01 -0.21350768D-01
 -0.24309420D-01 -0.20584218D-01 -0.11791433D-01 -0.26821419D-02  0.12553900D-02
 -0.60780423D-17 -0.79800239D-17 -0.90858443D-17 -0.76935198D-17 -0.44071444D-17
 -0.10024724D-17  0.46921227D-18  0.12128919D-01  0.15924381D-01  0.18131080D-01
  0.15352654D-01  0.87945911D-02  0.20004644D-02 -0.93632741D-03 -0.53012161D-03
 -0.68208201D-18  0.32067389D-03  0.78812155D-03  0.22860265D-18 -0.33911573D-03
  0.17264699D-04 -0.43425864D-20 -0.45198846D-05  0.16789113D-03 -0.25988227D-03
  0.91991143D-04 -0.10040308D-17 -0.85276898D-03  0.85068714D-18  0.15282661D-03
 -0.13954361D-03 -0.13282998D-04  0.76037927D-18 -0.35706342D-03 -0.63355102D-18
  0.57238449D-04 -0.19450148D-04 -0.37788302D-04  0.59167467D-19 -0.39195586D-04
 -0.80227913D-19 -0.87701853D-05  0.23355976D-19  0.25621211D-05 -0.28503196D-03
  0.19014042D-18 -0.18724673D-03  0.31134252D-03 -0.26020835D-18  0.17956037D-03
  0.21336777D-18  0.55860991D-05 -0.12940801D-18 -0.92831979D-05  0.11436971D-03
  0.20663182D-18  0.12051211D-03 -0.13112801D-03  0.18159221D-18 -0.92662520D-04
 -0.65522741D-18  0.27179383D-04  0.50852730D-04  0.87862252D-04  0.14243496D-03
  0.21629885D-03  0.30062996D-03  0.35740566D-03  0.31834947D-03  0.15803821D-03
  0.25462487D-04  0.39091701D-06  0.69856485D-07  0.26104279D-08 -0.52100839D-04
 -0.97316887D-04 -0.16889818D-03 -0.27405310D-03 -0.42420165D-03 -0.60720613D-03
 -0.79259367D-03 -0.84464081D-03 -0.63138615D-03 -0.33329753D-04  0.42827079D-03
  0.25444205D-03 -0.95396693D-06  0.23974602D-04  0.44745141D-04  0.77763117D-04
  0.12603114D-03  0.19574609D-03  0.28041192D-03  0.37025781D-03  0.40035852D-03
  0.31388627D-03  0.15618877D-04 -0.26907989D-03 -0.27854757D-03  0.12604672D-03
 -0.32699051D-03  0.24719260D-02  0.74976149D-03 -0.17777417D-01 -0.23416848D-01
 -0.25834269D-01 -0.21458330D-01 -0.11397040D-01 -0.29396291D-02  0.30218388D-05
  0.38593140D-17  0.50835826D-17  0.56083826D-17  0.46584064D-17  0.24741928D-17
  0.63816649D-18 -0.65601346D-21 -0.13143508D-01 -0.17312950D-01 -0.19100240D-01
 -0.15864945D-01 -0.84262574D-02 -0.21733776D-02  0.22341583D-05  0.16261965D-01
  0.21350768D-01  0.24309420D-01  0.20584218D-01  0.11791433D-01  0.26821419D-02
 -0.12553900D-02 -0.39455588D-17 -0.51802295D-17 -0.58980724D-17 -0.49942455D-17
 -0.28608961D-17 -0.65075460D-18  0.30458897D-18  0.12128919D-01  0.15924381D-01
  0.18131080D-01  0.15352654D-01  0.87945911D-02  0.20004644D-02 -0.93632741D-03
  0.53012161D-03 -0.46736058D-18  0.32067389D-03 -0.78812155D-03  0.83003988D-19
 -0.33911573D-03 -0.17264699D-04 -0.30958934D-20 -0.45198846D-05  0.16789113D-03
 -0.25988227D-03  0.91991143D-04  0.72983974D-18  0.85276898D-03  0.58114017D-18
  0.15282661D-03 -0.13954361D-03 -0.13282998D-04 -0.48755081D-18  0.35706342D-03
 -0.40083854D-18  0.57238449D-04 -0.19450148D-04 -0.37788302D-04  0.21384989D-20
  0.39195586D-04 -0.43430816D-19  0.87701853D-05 -0.44384904D-19  0.25621211D-05
  0.28503196D-03  0.31220129D-18 -0.18724673D-03 -0.31134252D-03 -0.17904657D-18
  0.17956037D-03  0.49210826D-19 -0.55860991D-05 -0.72175420D-19 -0.92831979D-05
 -0.11436971D-03  0.84421005D-19  0.12051211D-03  0.13112801D-03  0.13210526D-18
 -0.92662520D-04  0.38725946D-18
MO    4     MO 0.0        OCC NO =    2.0000000  ORB. ENERGY =   -9.428003
  0.17526970D-11  0.32674257D-11  0.55225251D-11  0.83021642D-11  0.10200168D-10
  0.86156725D-11  0.32495147D-11 -0.16082029D-13 -0.52670077D-11 -0.98615002D-11
 -0.16790048D-10 -0.25971651D-10 -0.34203751D-10 -0.35539888D-10 -0.22584003D-10
  0.15135274D-10  0.52672597D-11 -0.28752851D-09 -0.25288162D-10 -0.23863471D-03
 -0.22373521D-03 -0.15931279D-03 -0.61995080D-15 -0.58124328D-15 -0.41387984D-15
  0.37555551D-10  0.35210716D-10  0.25072127D-10  0.27542868D-03 -0.14694175D-15
 -0.43652942D-10  0.67469504D-03 -0.15887289D-16 -0.66890022D-10  0.14579625D-04
 -0.13628579D-17 -0.11307969D-11  0.75780439D-11 -0.86925152D-11  0.11144713D-11
  0.53582916D-16 -0.10900840D-03 -0.52207116D-15 -0.12344465D-10  0.11445360D-10
  0.89910509D-12 -0.38690063D-17  0.15335569D-03  0.10914341D-16 -0.82307002D-12
  0.23648641D-11 -0.15417941D-11  0.25523786D-17  0.70537884D-04 -0.87731416D-19
 -0.16768310D-04 -0.83279280D-19  0.11002990D-10 -0.96349614D-04  0.59413189D-18
 -0.51043143D-10  0.14665454D-03 -0.34429405D-18  0.18034173D-10  0.36437145D-17
  0.17203695D-04  0.45903577D-18 -0.22307819D-11  0.41153776D-05 -0.50931709D-18
  0.10011068D-10 -0.55726464D-04 -0.86779022D-18 -0.33187225D-11 -0.42788349D-17
 -0.14215121D-02 -0.26596546D-02 -0.45952940D-02 -0.74495075D-02 -0.11312671D-01
 -0.15723283D-01 -0.18692715D-01 -0.16650033D-01 -0.82655749D-02 -0.13317165D-02
 -0.20445396D-04 -0.36535722D-05 -0.13652829D-06 -0.12048065D+00 -0.22504055D+00
 -0.39056880D+00 -0.63373443D+00 -0.98094564D+00 -0.14041346D+01 -0.18328342D+01
 -0.19531907D+01 -0.14600497D+01 -0.77073429D-01  0.99035531D+00  0.58838483D+00
 -0.22060020D-02 -0.29442844D-03 -0.54950826D-03 -0.95499699D-03 -0.15477692D-02
 -0.24039279D-02 -0.34436960D-02 -0.45470797D-02 -0.49167420D-02 -0.38547895D-02
 -0.19181305D-03  0.33045292D-02  0.34208003D-02 -0.15479605D-02  0.46638077D-01
  0.14390320D-02  0.26201931D-03  0.26707125D-01  0.35179278D-01  0.38810985D-01
  0.32236984D-01  0.17121845D-01  0.44162234D-02 -0.45397275D-05 -0.18649447D-14
 -0.24565507D-14 -0.27101509D-14 -0.22510918D-14 -0.11956096D-14 -0.30838258D-15
  0.31700681D-18 -0.17304058D-01 -0.22793328D-01 -0.25146380D-01 -0.20886959D-01
 -0.11093571D-01 -0.28613557D-02  0.29413763D-05  0.17340120D-02  0.22766307D-02
  0.25921115D-02  0.21948936D-02  0.12573195D-02  0.28599658D-03 -0.13386214D-03
  0.10513461D-15  0.13803404D-15  0.15716190D-15  0.13307825D-15  0.76232343D-16
  0.17340213D-16 -0.81161741D-17  0.11545680D-03  0.15158631D-03  0.17259217D-03
  0.14614396D-03  0.83716886D-04  0.19042687D-04 -0.89130256D-05  0.41187134D-03
 -0.18426008D-16 -0.17085629D-03  0.41029831D-03  0.13687109D-17 -0.29704381D-03
  0.77751800D-05 -0.31189764D-18 -0.54008297D-05  0.17493972D-03 -0.16478113D-04
 -0.15846161D-03 -0.12444568D-16 -0.74130624D-03 -0.72228214D-17  0.10050019D-04
 -0.48547977D-04  0.38497958D-04 -0.13232690D-17 -0.61641003D-04  0.32020102D-17
  0.30738503D-04 -0.30701752D-04 -0.36751044D-07  0.12360989D-18 -0.92547432D-04
  0.14618481D-19 -0.61039554D-05  0.90318185D-18  0.15616527D-04  0.11510658D-04
 -0.13835520D-17 -0.72006832D-04  0.68012082D-05 -0.13259936D-17  0.25157250D-04
  0.38409162D-17  0.73610751D-05  0.24204066D-19  0.36223281D-05 -0.48462334D-04
  0.21322836D-18 -0.30114438D-04  0.26379109D-04 -0.28584056D-18  0.19247454D-04
  0.15087900D-17  0.14215116D-02  0.26596537D-02  0.45952924D-02  0.74495049D-02
  0.11312667D-01  0.15723278D-01  0.18692709D-01  0.16650027D-01  0.82655720D-02
  0.13317161D-02  0.20445389D-04  0.36535710D-05  0.13652825D-06  0.12048061D+00
  0.22504048D+00  0.39056866D+00  0.63373421D+00  0.98094529D+00  0.14041341D+01
  0.18328336D+01  0.19531900D+01  0.14600492D+01  0.77073402D-01 -0.99035496D+00
 -0.58838463D+00  0.22060012D-02  0.29442834D-03  0.54950808D-03  0.95499668D-03
  0.15477687D-02  0.24039271D-02  0.34436949D-02  0.45470783D-02  0.49167404D-02
  0.38547882D-02  0.19181299D-03 -0.33045281D-02 -0.34207992D-02  0.15479600D-02
 -0.46638061D-01 -0.14390316D-02 -0.26201924D-03  0.26707115D-01  0.35179265D-01
  0.38810970D-01  0.32236972D-01  0.17121839D-01  0.44162217D-02 -0.45397258D-05
  0.20257163D-14  0.26683230D-14  0.29437854D-14  0.24451521D-14  0.12986797D-14
  0.33496738D-15 -0.34433508D-18  0.17304052D-01  0.22793320D-01  0.25146371D-01
  0.20886952D-01  0.11093568D-01  0.28613547D-02 -0.29413753D-05  0.17340118D-02
  0.22766304D-02  0.25921112D-02  0.21948933D-02  0.12573194D-02  0.28599654D-03
 -0.13386212D-03 -0.26181341D-16 -0.34374181D-16 -0.39137534D-16 -0.33140056D-16
 -0.18983900D-16 -0.43181787D-17  0.20211453D-17 -0.11545698D-03 -0.15158655D-03
 -0.17259244D-03 -0.14614419D-03 -0.83717019D-04 -0.19042717D-04  0.89130397D-05