 Molden2AIM, Version 4.0.0 (06/02/2016)           Time: Sat Jun 30 01:59:20 2018
GAUSSIAN             37 MOL ORBITALS    599 PRIMITIVES        5 NUCLEI
  C    1    (CENTRE  1)   0.00000000  0.00000000  0.00000000  CHARGE =  6.0
  Cl   2    (CENTRE  2)   1.93692014  1.93692014  1.93692014  CHARGE = 17.0
  Cl   3    (CENTRE  3)   1.93692014 -1.93692014 -1.93692014  CHARGE = 17.0
  Cl   4    (CENTRE  4)  -1.93692014  1.93692014 -1.93692014  CHARGE = 17.0
  Cl   5    (CENTRE  5)  -1.93692014 -1.93692014  1.93692014  CHARGE = 17.0
CENTRE ASSIGNMENTS    1  1  1  1  1  1  1  1  1  1  1  1  1  1  1  1  1  1  1  1
CENTRE ASSIGNMENTS    1  1  1  1  1  1  1  1  1  1  1  1  1  1  1  1  1  1  1  1
CENTRE ASSIGNMENTS    1  1  1  1  1  1  1  1  1  1  1  1  1  1  1  1  1  1  1  1
CENTRE ASSIGNMENTS    1  1  1  1  1  1  1  1  1  1  1  1  1  1  1  2  2  2  2  2
CENTRE ASSIGNMENTS    2  2  2  2  2  2  2  2  2  2  2  2  2  2  2  2  2  2  2  2
CENTRE ASSIGNMENTS    2  2  2  2  2  2  2  2  2  2  2  2  2  2  2  2  2  2  2  2
CENTRE ASSIGNMENTS    2  2  2  2  2  2  2  2  2  2  2  2  2  2  2  2  2  2  2  2
CENTRE ASSIGNMENTS    2  2  2  2  2  2  2  2  2  2  2  2  2  2  2  2  2  2  2  2
CENTRE ASSIGNMENTS    2  2  2  2  2  2  2  2  2  2  2  2  2  2  2  2  2  2  2  2
CENTRE ASSIGNMENTS    2  2  2  2  2  2  2  2  2  2  2  2  2  2  2  2  2  2  2  2
CENTRE ASSIGNMENTS    2  2  2  2  2  2  3  3  3  3  3  3  3  3  3  3  3  3  3  3
CENTRE ASSIGNMENTS    3  3  3  3  3  3  3  3  3  3  3  3  3  3  3  3  3  3  3  3
CENTRE ASSIGNMENTS    3  3  3  3  3  3  3  3  3  3  3  3  3  3  3  3  3  3  3  3
CENTRE ASSIGNMENTS    3  3  3  3  3  3  3  3  3  3  3  3  3  3  3  3  3  3  3  3
CENTRE ASSIGNMENTS    3  3  3  3  3  3  3  3  3  3  3  3  3  3  3  3  3  3  3  3
CENTRE ASSIGNMENTS    3  3  3  3  3  3  3  3  3  3  3  3  3  3  3  3  3  3  3  3
CENTRE ASSIGNMENTS    3  3  3  3  3  3  3  3  3  3  3  3  3  3  3  3  3  4  4  4
CENTRE ASSIGNMENTS    4  4  4  4  4  4  4  4  4  4  4  4  4  4  4  4  4  4  4  4
CENTRE ASSIGNMENTS    4  4  4  4  4  4  4  4  4  4  4  4  4  4  4  4  4  4  4  4
CENTRE ASSIGNMENTS    4  4  4  4  4  4  4  4  4  4  4  4  4  4  4  4  4  4  4  4
CENTRE ASSIGNMENTS    4  4  4  4  4  4  4  4  4  4  4  4  4  4  4  4  4  4  4  4
CENTRE ASSIGNMENTS    4  4  4  4  4  4  4  4  4  4  4  4  4  4  4  4  4  4  4  4
CENTRE ASSIGNMENTS    4  4  4  4  4  4  4  4  4  4  4  4  4  4  4  4  4  4  4  4
CENTRE ASSIGNMENTS    4  4  4  4  4  4  4  4  5  5  5  5  5  5  5  5  5  5  5  5
CENTRE ASSIGNMENTS    5  5  5  5  5  5  5  5  5  5  5  5  5  5  5  5  5  5  5  5
CENTRE ASSIGNMENTS    5  5  5  5  5  5  5  5  5  5  5  5  5  5  5  5  5  5  5  5
CENTRE ASSIGNMENTS    5  5  5  5  5  5  5  5  5  5  5  5  5  5  5  5  5  5  5  5
CENTRE ASSIGNMENTS    5  5  5  5  5  5  5  5  5  5  5  5  5  5  5  5  5  5  5  5
CENTRE ASSIGNMENTS    5  5  5  5  5  5  5  5  5  5  5  5  5  5  5  5  5  5  5  5
CENTRE ASSIGNMENTS    5  5  5  5  5  5  5  5  5  5  5  5  5  5  5  5  5  5  5
TYPE ASSIGNMENTS      1  1  1  1  1  1  1  1  1  1  1  1  1  1  1  1  1  1  1  2
TYPE ASSIGNMENTS      2  2  3  3  3  4  4  4  2  3  4  2  3  4  2  3  4  5  6  7
TYPE ASSIGNMENTS      8  9 10  5  6  7  8  9 10  5  6  7  8  9 10 11 12 13 17 14
TYPE ASSIGNMENTS     15 18 19 16 20 11 12 13 17 14 15 18 19 16 20  1  1  1  1  1
TYPE ASSIGNMENTS      1  1  1  1  1  1  1  1  1  1  1  1  1  1  1  1  1  1  1  1
TYPE ASSIGNMENTS      1  1  1  1  1  1  1  1  1  1  1  1  1  1  1  1  1  2  2  2
TYPE ASSIGNMENTS      2  2  2  2  3  3  3  3  3  3  3  4  4  4  4  4  4  4  2  2
TYPE ASSIGNMENTS      2  2  2  2  2  3  3  3  3  3  3  3  4  4  4  4  4  4  4  2
TYPE ASSIGNMENTS      3  4  2  3  4  2  3  4  5  6  7  8  9 10  5  6  7  8  9 10
TYPE ASSIGNMENTS      5  6  7  8  9 10 11 12 13 17 14 15 18 19 16 20 11 12 13 17
TYPE ASSIGNMENTS     14 15 18 19 16 20  1  1  1  1  1  1  1  1  1  1  1  1  1  1
TYPE ASSIGNMENTS      1  1  1  1  1  1  1  1  1  1  1  1  1  1  1  1  1  1  1  1
TYPE ASSIGNMENTS      1  1  1  1  1  1  1  1  2  2  2  2  2  2  2  3  3  3  3  3
TYPE ASSIGNMENTS      3  3  4  4  4  4  4  4  4  2  2  2  2  2  2  2  3  3  3  3
TYPE ASSIGNMENTS      3  3  3  4  4  4  4  4  4  4  2  3  4  2  3  4  2  3  4  5
TYPE ASSIGNMENTS      6  7  8  9 10  5  6  7  8  9 10  5  6  7  8  9 10 11 12 13
TYPE ASSIGNMENTS     17 14 15 18 19 16 20 11 12 13 17 14 15 18 19 16 20  1  1  1
TYPE ASSIGNMENTS      1  1  1  1  1  1  1  1  1  1  1  1  1  1  1  1  1  1  1  1
TYPE ASSIGNMENTS      1  1  1  1  1  1  1  1  1  1  1  1  1  1  1  1  1  1  1  2
TYPE ASSIGNMENTS      2  2  2  2  2  2  3  3  3  3  3  3  3  4  4  4  4  4  4  4
TYPE ASSIGNMENTS      2  2  2  2  2  2  2  3  3  3  3  3  3  3  4  4  4  4  4  4
TYPE ASSIGNMENTS      4  2  3  4  2  3  4  2  3  4  5  6  7  8  9 10  5  6  7  8
TYPE ASSIGNMENTS      9 10  5  6  7  8  9 10 11 12 13 17 14 15 18 19 16 20 11 12
TYPE ASSIGNMENTS     13 17 14 15 18 19 16 20  1  1  1  1  1  1  1  1  1  1  1  1
TYPE ASSIGNMENTS      1  1  1  1  1  1  1  1  1  1  1  1  1  1  1  1  1  1  1  1
TYPE ASSIGNMENTS      1  1  1  1  1  1  1  1  1  1  2  2  2  2  2  2  2  3  3  3
TYPE ASSIGNMENTS      3  3  3  3  4  4  4  4  4  4  4  2  2  2  2  2  2  2  3  3
TYPE ASSIGNMENTS      3  3  3  3  3  4  4  4  4  4  4  4  2  3  4  2  3  4  2  3
TYPE ASSIGNMENTS      4  5  6  7  8  9 10  5  6  7  8  9 10  5  6  7  8  9 10 11
TYPE ASSIGNMENTS     12 13 17 14 15 18 19 16 20 11 12 13 17 14 15 18 19 16 20
EXPONENTS  0.8236000D+04 0.1235000D+04 0.2808000D+03 0.7927000D+02 0.2559000D+02
EXPONENTS  0.8997000D+01 0.3319000D+01 0.3643000D+00 0.8236000D+04 0.1235000D+04
EXPONENTS  0.2808000D+03 0.7927000D+02 0.2559000D+02 0.8997000D+01 0.3319000D+01
EXPONENTS  0.3643000D+00 0.9059000D+00 0.1285000D+00 0.4402000D-01 0.1871000D+02
EXPONENTS  0.4133000D+01 0.1200000D+01 0.1871000D+02 0.4133000D+01 0.1200000D+01
EXPONENTS  0.1871000D+02 0.4133000D+01 0.1200000D+01 0.3827000D+00 0.3827000D+00
EXPONENTS  0.3827000D+00 0.1209000D+00 0.1209000D+00 0.1209000D+00 0.3569000D-01
EXPONENTS  0.3569000D-01 0.3569000D-01 0.1097000D+01 0.1097000D+01 0.1097000D+01
EXPONENTS  0.1097000D+01 0.1097000D+01 0.1097000D+01 0.3180000D+00 0.3180000D+00
EXPONENTS  0.3180000D+00 0.3180000D+00 0.3180000D+00 0.3180000D+00 0.1000000D+00
EXPONENTS  0.1000000D+00 0.1000000D+00 0.1000000D+00 0.1000000D+00 0.1000000D+00
EXPONENTS  0.7610000D+00 0.7610000D+00 0.7610000D+00 0.7610000D+00 0.7610000D+00
EXPONENTS  0.7610000D+00 0.7610000D+00 0.7610000D+00 0.7610000D+00 0.7610000D+00
EXPONENTS  0.2680000D+00 0.2680000D+00 0.2680000D+00 0.2680000D+00 0.2680000D+00
EXPONENTS  0.2680000D+00 0.2680000D+00 0.2680000D+00 0.2680000D+00 0.2680000D+00
EXPONENTS  0.4561000D+06 0.6833000D+05 0.1555000D+05 0.4405000D+04 0.1439000D+04
EXPONENTS  0.5204000D+03 0.2031000D+03 0.8396000D+02 0.3620000D+02 0.1583000D+02
EXPONENTS  0.6334000D+01 0.2694000D+01 0.4313000D+00 0.4561000D+06 0.6833000D+05
EXPONENTS  0.1555000D+05 0.4405000D+04 0.1439000D+04 0.5204000D+03 0.2031000D+03
EXPONENTS  0.8396000D+02 0.3620000D+02 0.1583000D+02 0.6334000D+01 0.2694000D+01
EXPONENTS  0.4313000D+00 0.4561000D+06 0.6833000D+05 0.1555000D+05 0.4405000D+04
EXPONENTS  0.1439000D+04 0.5204000D+03 0.2031000D+03 0.8396000D+02 0.3620000D+02
EXPONENTS  0.1583000D+02 0.6334000D+01 0.2694000D+01 0.4313000D+00 0.9768000D+00
EXPONENTS  0.1625000D+00 0.5910000D-01 0.6633000D+03 0.1568000D+03 0.4998000D+02
EXPONENTS  0.1842000D+02 0.7240000D+01 0.2922000D+01 0.3818000D+00 0.6633000D+03
EXPONENTS  0.1568000D+03 0.4998000D+02 0.1842000D+02 0.7240000D+01 0.2922000D+01
EXPONENTS  0.3818000D+00 0.6633000D+03 0.1568000D+03 0.4998000D+02 0.1842000D+02
EXPONENTS  0.7240000D+01 0.2922000D+01 0.3818000D+00 0.6633000D+03 0.1568000D+03
EXPONENTS  0.4998000D+02 0.1842000D+02 0.7240000D+01 0.2922000D+01 0.3818000D+00
EXPONENTS  0.6633000D+03 0.1568000D+03 0.4998000D+02 0.1842000D+02 0.7240000D+01
EXPONENTS  0.2922000D+01 0.3818000D+00 0.6633000D+03 0.1568000D+03 0.4998000D+02
EXPONENTS  0.1842000D+02 0.7240000D+01 0.2922000D+01 0.3818000D+00 0.1022000D+01
EXPONENTS  0.1022000D+01 0.1022000D+01 0.1301000D+00 0.1301000D+00 0.1301000D+00
EXPONENTS  0.4190000D-01 0.4190000D-01 0.4190000D-01 0.1046000D+01 0.1046000D+01
EXPONENTS  0.1046000D+01 0.1046000D+01 0.1046000D+01 0.1046000D+01 0.3440000D+00
EXPONENTS  0.3440000D+00 0.3440000D+00 0.3440000D+00 0.3440000D+00 0.3440000D+00
EXPONENTS  0.1350000D+00 0.1350000D+00 0.1350000D+00 0.1350000D+00 0.1350000D+00
EXPONENTS  0.1350000D+00 0.7060000D+00 0.7060000D+00 0.7060000D+00 0.7060000D+00
EXPONENTS  0.7060000D+00 0.7060000D+00 0.7060000D+00 0.7060000D+00 0.7060000D+00
EXPONENTS  0.7060000D+00 0.3120000D+00 0.3120000D+00 0.3120000D+00 0.3120000D+00
EXPONENTS  0.3120000D+00 0.3120000D+00 0.3120000D+00 0.3120000D+00 0.3120000D+00
EXPONENTS  0.3120000D+00 0.4561000D+06 0.6833000D+05 0.1555000D+05 0.4405000D+04
EXPONENTS  0.1439000D+04 0.5204000D+03 0.2031000D+03 0.8396000D+02 0.3620000D+02
EXPONENTS  0.1583000D+02 0.6334000D+01 0.2694000D+01 0.4313000D+00 0.4561000D+06
EXPONENTS  0.6833000D+05 0.1555000D+05 0.4405000D+04 0.1439000D+04 0.5204000D+03
EXPONENTS  0.2031000D+03 0.8396000D+02 0.3620000D+02 0.1583000D+02 0.6334000D+01
EXPONENTS  0.2694000D+01 0.4313000D+00 0.4561000D+06 0.6833000D+05 0.1555000D+05
EXPONENTS  0.4405000D+04 0.1439000D+04 0.5204000D+03 0.2031000D+03 0.8396000D+02
EXPONENTS  0.3620000D+02 0.1583000D+02 0.6334000D+01 0.2694000D+01 0.4313000D+00
EXPONENTS  0.9768000D+00 0.1625000D+00 0.5910000D-01 0.6633000D+03 0.1568000D+03
EXPONENTS  0.4998000D+02 0.1842000D+02 0.7240000D+01 0.2922000D+01 0.3818000D+00
EXPONENTS  0.6633000D+03 0.1568000D+03 0.4998000D+02 0.1842000D+02 0.7240000D+01
EXPONENTS  0.2922000D+01 0.3818000D+00 0.6633000D+03 0.1568000D+03 0.4998000D+02
EXPONENTS  0.1842000D+02 0.7240000D+01 0.2922000D+01 0.3818000D+00 0.6633000D+03
EXPONENTS  0.1568000D+03 0.4998000D+02 0.1842000D+02 0.7240000D+01 0.2922000D+01
EXPONENTS  0.3818000D+00 0.6633000D+03 0.1568000D+03 0.4998000D+02 0.1842000D+02
EXPONENTS  0.7240000D+01 0.2922000D+01 0.3818000D+00 0.6633000D+03 0.1568000D+03
EXPONENTS  0.4998000D+02 0.1842000D+02 0.7240000D+01 0.2922000D+01 0.3818000D+00
EXPONENTS  0.1022000D+01 0.1022000D+01 0.1022000D+01 0.1301000D+00 0.1301000D+00
EXPONENTS  0.1301000D+00 0.4190000D-01 0.4190000D-01 0.4190000D-01 0.1046000D+01
EXPONENTS  0.1046000D+01 0.1046000D+01 0.1046000D+01 0.1046000D+01 0.1046000D+01
EXPONENTS  0.3440000D+00 0.3440000D+00 0.3440000D+00 0.3440000D+00 0.3440000D+00
EXPONENTS  0.3440000D+00 0.1350000D+00 0.1350000D+00 0.1350000D+00 0.1350000D+00
EXPONENTS  0.1350000D+00 0.1350000D+00 0.7060000D+00 0.7060000D+00 0.7060000D+00
EXPONENTS  0.7060000D+00 0.7060000D+00 0.7060000D+00 0.7060000D+00 0.7060000D+00
EXPONENTS  0.7060000D+00 0.7060000D+00 0.3120000D+00 0.3120000D+00 0.3120000D+00
EXPONENTS  0.3120000D+00 0.3120000D+00 0.3120000D+00 0.3120000D+00 0.3120000D+00
EXPONENTS  0.3120000D+00 0.3120000D+00 0.4561000D+06 0.6833000D+05 0.1555000D+05
EXPONENTS  0.4405000D+04 0.1439000D+04 0.5204000D+03 0.2031000D+03 0.8396000D+02
EXPONENTS  0.3620000D+02 0.1583000D+02 0.6334000D+01 0.2694000D+01 0.4313000D+00
EXPONENTS  0.4561000D+06 0.6833000D+05 0.1555000D+05 0.4405000D+04 0.1439000D+04
EXPONENTS  0.5204000D+03 0.2031000D+03 0.8396000D+02 0.3620000D+02 0.1583000D+02
EXPONENTS  0.6334000D+01 0.2694000D+01 0.4313000D+00 0.4561000D+06 0.6833000D+05
EXPONENTS  0.1555000D+05 0.4405000D+04 0.1439000D+04 0.5204000D+03 0.2031000D+03
EXPONENTS  0.8396000D+02 0.3620000D+02 0.1583000D+02 0.6334000D+01 0.2694000D+01
EXPONENTS  0.4313000D+00 0.9768000D+00 0.1625000D+00 0.5910000D-01 0.6633000D+03
EXPONENTS  0.1568000D+03 0.4998000D+02 0.1842000D+02 0.7240000D+01 0.2922000D+01
EXPONENTS  0.3818000D+00 0.6633000D+03 0.1568000D+03 0.4998000D+02 0.1842000D+02
EXPONENTS  0.7240000D+01 0.2922000D+01 0.3818000D+00 0.6633000D+03 0.1568000D+03
EXPONENTS  0.4998000D+02 0.1842000D+02 0.7240000D+01 0.2922000D+01 0.3818000D+00
EXPONENTS  0.6633000D+03 0.1568000D+03 0.4998000D+02 0.1842000D+02 0.7240000D+01
EXPONENTS  0.2922000D+01 0.3818000D+00 0.6633000D+03 0.1568000D+03 0.4998000D+02
EXPONENTS  0.1842000D+02 0.7240000D+01 0.2922000D+01 0.3818000D+00 0.6633000D+03
EXPONENTS  0.1568000D+03 0.4998000D+02 0.1842000D+02 0.7240000D+01 0.2922000D+01
EXPONENTS  0.3818000D+00 0.1022000D+01 0.1022000D+01 0.1022000D+01 0.1301000D+00
EXPONENTS  0.1301000D+00 0.1301000D+00 0.4190000D-01 0.4190000D-01 0.4190000D-01
EXPONENTS  0.1046000D+01 0.1046000D+01 0.1046000D+01 0.1046000D+01 0.1046000D+01
EXPONENTS  0.1046000D+01 0.3440000D+00 0.3440000D+00 0.3440000D+00 0.3440000D+00
EXPONENTS  0.3440000D+00 0.3440000D+00 0.1350000D+00 0.1350000D+00 0.1350000D+00
EXPONENTS  0.1350000D+00 0.1350000D+00 0.1350000D+00 0.7060000D+00 0.7060000D+00
EXPONENTS  0.7060000D+00 0.7060000D+00 0.7060000D+00 0.7060000D+00 0.7060000D+00
EXPONENTS  0.7060000D+00 0.7060000D+00 0.7060000D+00 0.3120000D+00 0.3120000D+00
EXPONENTS  0.3120000D+00 0.3120000D+00 0.3120000D+00 0.3120000D+00 0.3120000D+00
EXPONENTS  0.3120000D+00 0.3120000D+00 0.3120000D+00 0.4561000D+06 0.6833000D+05
EXPONENTS  0.1555000D+05 0.4405000D+04 0.1439000D+04 0.5204000D+03 0.2031000D+03
EXPONENTS  0.8396000D+02 0.3620000D+02 0.1583000D+02 0.6334000D+01 0.2694000D+01
EXPONENTS  0.4313000D+00 0.4561000D+06 0.6833000D+05 0.1555000D+05 0.4405000D+04
EXPONENTS  0.1439000D+04 0.5204000D+03 0.2031000D+03 0.8396000D+02 0.3620000D+02
EXPONENTS  0.1583000D+02 0.6334000D+01 0.2694000D+01 0.4313000D+00 0.4561000D+06
EXPONENTS  0.6833000D+05 0.1555000D+05 0.4405000D+04 0.1439000D+04 0.5204000D+03
EXPONENTS  0.2031000D+03 0.8396000D+02 0.3620000D+02 0.1583000D+02 0.6334000D+01
EXPONENTS  0.2694000D+01 0.4313000D+00 0.9768000D+00 0.1625000D+00 0.5910000D-01
EXPONENTS  0.6633000D+03 0.1568000D+03 0.4998000D+02 0.1842000D+02 0.7240000D+01
EXPONENTS  0.2922000D+01 0.3818000D+00 0.6633000D+03 0.1568000D+03 0.4998000D+02
EXPONENTS  0.1842000D+02 0.7240000D+01 0.2922000D+01 0.3818000D+00 0.6633000D+03
EXPONENTS  0.1568000D+03 0.4998000D+02 0.1842000D+02 0.7240000D+01 0.2922000D+01
EXPONENTS  0.3818000D+00 0.6633000D+03 0.1568000D+03 0.4998000D+02 0.1842000D+02
EXPONENTS  0.7240000D+01 0.2922000D+01 0.3818000D+00 0.6633000D+03 0.1568000D+03
EXPONENTS  0.4998000D+02 0.1842000D+02 0.7240000D+01 0.2922000D+01 0.3818000D+00
EXPONENTS  0.6633000D+03 0.1568000D+03 0.4998000D+02 0.1842000D+02 0.7240000D+01
EXPONENTS  0.2922000D+01 0.3818000D+00 0.1022000D+01 0.1022000D+01 0.1022000D+01
EXPONENTS  0.1301000D+00 0.1301000D+00 0.1301000D+00 0.4190000D-01 0.4190000D-01
EXPONENTS  0.4190000D-01 0.1046000D+01 0.1046000D+01 0.1046000D+01 0.1046000D+01
EXPONENTS  0.1046000D+01 0.1046000D+01 0.3440000D+00 0.3440000D+00 0.3440000D+00
EXPONENTS  0.3440000D+00 0.3440000D+00 0.3440000D+00 0.1350000D+00 0.1350000D+00
EXPONENTS  0.1350000D+00 0.1350000D+00 0.1350000D+00 0.1350000D+00 0.7060000D+00
EXPONENTS  0.7060000D+00 0.7060000D+00 0.7060000D+00 0.7060000D+00 0.7060000D+00
EXPONENTS  0.7060000D+00 0.7060000D+00 0.7060000D+00 0.7060000D+00 0.3120000D+00
EXPONENTS  0.3120000D+00 0.3120000D+00 0.3120000D+00 0.3120000D+00 0.3120000D+00
EXPONENTS  0.3120000D+00 0.3120000D+00 0.3120000D+00 0.3120000D+00
MO    1     MO 0.0        OCC NO =    2.0000000  ORB. ENERGY = -101.247209
 -0.20933044D-13 -0.39023953D-13 -0.65957354D-13 -0.99155509D-13 -0.12182400D-12
 -0.10289984D-12 -0.38810035D-13  0.19207303D-15  0.14786685D-13  0.27685340D-13
  0.47136661D-13  0.72913247D-13  0.96024181D-13  0.99775275D-13  0.63402708D-13
 -0.42491021D-13 -0.27810875D-13  0.38868414D-12  0.14678864D-12 -0.11230530D-04
 -0.10529336D-04 -0.74975146D-05 -0.96589016D-04 -0.90558342D-04 -0.64482934D-04
  0.76637471D-04  0.71852500D-04  0.51163261D-04 -0.13870799D-04 -0.11929684D-03
  0.94654738D-04 -0.77049880D-04 -0.66267325D-03  0.52579065D-03 -0.16891714D-05
 -0.14527844D-04  0.11526955D-04  0.58828912D-15  0.63990665D-14 -0.69873557D-14
  0.29631176D-03 -0.37345258D-03 -0.43421817D-04 -0.39789658D-15 -0.47800306D-14
  0.51779272D-14 -0.12726015D-03  0.16039063D-03  0.18648827D-04 -0.73772339D-15
 -0.72352259D-14  0.79729493D-14  0.26529741D-04 -0.33436406D-04 -0.38876945D-05
  0.22793370D-05  0.19603608D-04 -0.15554263D-04 -0.34190055D-05 -0.29405412D-04
  0.23331394D-04 -0.34190055D-05 -0.29405412D-04  0.23331394D-04  0.45132541D-13
 -0.64583294D-05 -0.55545344D-04  0.44071830D-04  0.96874942D-05  0.83318017D-04
 -0.66107745D-04  0.96874941D-05  0.83318017D-04 -0.66107745D-04  0.15902243D-13
 -0.77757875D-01 -0.14548528D+00 -0.25136634D+00 -0.40749415D+00 -0.61881237D+00
 -0.86007643D+00 -0.10225068D+01 -0.91077041D+00 -0.45213370D+00 -0.72845984D-01
 -0.11183799D-02 -0.19985339D-03 -0.74682093D-05  0.18629455D-03  0.34797146D-03
  0.60392135D-03  0.97991892D-03  0.15167981D-02  0.21711587D-02  0.28340403D-02
  0.30201428D-02  0.22576181D-02  0.11917565D-03 -0.15313479D-02 -0.90979660D-03
  0.34110552D-05 -0.74661752D-04 -0.13934540D-03 -0.24217005D-03 -0.39248640D-03
 -0.60959283D-03 -0.87325932D-03 -0.11530576D-02 -0.12467973D-02 -0.97750522D-03
 -0.48640336D-04  0.83796912D-03  0.86745338D-03 -0.39253493D-03  0.46410285D-03
  0.22811904D-03  0.59017349D-04  0.60931502D-03  0.80260463D-03  0.88546093D-03
  0.73547709D-03  0.39062975D-03  0.10075481D-03 -0.10357252D-06  0.25208131D-02
  0.33204766D-02  0.36632636D-02  0.30427615D-02  0.16160845D-02  0.41683534D-03
 -0.42849256D-06 -0.13583806D-02 -0.17892921D-02 -0.19740083D-02 -0.16396408D-02
 -0.87085306D-03 -0.22461841D-03  0.23090009D-06 -0.52314719D-03 -0.68685391D-03
 -0.78203371D-03 -0.66219403D-03 -0.37933023D-03 -0.86284468D-04  0.40385880D-04
 -0.21469612D-02 -0.28188027D-02 -0.32094143D-02 -0.27176002D-02 -0.15567460D-02
 -0.35410571D-03  0.16574096D-03  0.11484065D-02  0.15077736D-02  0.17167111D-02
  0.14536405D-02  0.83270124D-03  0.18941064D-03 -0.88654605D-04 -0.18684093D-04
 -0.16531911D-03  0.13226196D-03 -0.59393434D-04 -0.18015007D-04 -0.10198837D-03
 -0.13125947D-05 -0.11270148D-05 -0.15036306D-05  0.42903041D-06  0.44208058D-04
 -0.44637088D-04  0.47013302D-04 -0.11799583D-03 -0.36686502D-04 -0.51303636D-06
 -0.52864181D-04  0.53377217D-04 -0.92168499D-04  0.99358375D-04  0.49822538D-05
 -0.94768908D-07 -0.97651586D-05  0.98599275D-05  0.80804967D-05  0.19345785D-04
  0.13794741D-04 -0.57788402D-05 -0.14994201D-04  0.37074492D-05  0.52766068D-04
  0.44859625D-04 -0.27290657D-04 -0.35429547D-04  0.12297673D-06  0.16168310D-04
  0.35527460D-04  0.26088233D-05  0.50228658D-05  0.12380851D-06  0.18299813D-04
  0.37331242D-05 -0.11131337D-04 -0.26126282D-04 -0.18801722D-04  0.10759912D-04
 -0.13020130D-04  0.21747352D-01  0.40689379D-01  0.70302233D-01  0.11396812D+00
  0.17306968D+00  0.24054650D+00  0.28597509D+00  0.25472461D+00  0.12645293D+00
  0.20373592D-01  0.31278891D-03  0.55895071D-04  0.20887116D-05 -0.52102930D-04
 -0.97320791D-04 -0.16890495D-03 -0.27406410D-03 -0.42421867D-03 -0.60723049D-03
 -0.79262547D-03 -0.84467469D-03 -0.63141148D-03 -0.33331090D-04  0.42828797D-03
  0.25445226D-03 -0.95400521D-06  0.20881427D-04  0.38972175D-04  0.67730210D-04
  0.10977075D-03  0.17049116D-03  0.24423350D-03  0.32248758D-03  0.34870473D-03
  0.27338903D-03  0.13603748D-04 -0.23436352D-03 -0.24260969D-03  0.10978432D-03
 -0.12980046D-03 -0.63800420D-04 -0.16505995D-04  0.15141834D-03  0.19945193D-03
  0.22004221D-03  0.18277035D-03  0.97073770D-04  0.25038157D-04 -0.25738374D-07
  0.22630675D-02  0.29809678D-02  0.32887058D-02  0.27316482D-02  0.14508447D-02
  0.37421518D-03 -0.38468048D-06 -0.16161261D-02 -0.21288008D-02 -0.23485660D-02
 -0.19507540D-02 -0.10360929D-02 -0.26723857D-03  0.27471217D-06 -0.12708150D-03
 -0.16684870D-03 -0.18996951D-03 -0.16085838D-03 -0.92145875D-04 -0.20959990D-04
  0.98104287D-05 -0.19240197D-02 -0.25260968D-02 -0.28761471D-02 -0.24354032D-02
 -0.13950927D-02 -0.31733520D-03  0.14853034D-03  0.13713480D-02  0.18004794D-02
  0.20499783D-02  0.17358374D-02  0.99435452D-03  0.22618115D-03 -0.10586523D-03
 -0.19462817D-04 -0.16575745D-03  0.13182362D-03  0.23577909D-04  0.28688753D-04
 -0.55284613D-04  0.39835240D-06 -0.16393935D-06 -0.54055517D-06  0.72509200D-05
 -0.48048033D-04  0.40797113D-04  0.65733483D-04 -0.99275653D-04 -0.34292539D-05
 -0.86706806D-05  0.57456039D-04 -0.48785359D-04 -0.86813126D-04  0.10471375D-03
  0.14496316D-04 -0.16016624D-05  0.10613374D-04 -0.90117118D-05 -0.13300434D-05
  0.99352451D-05 -0.29235096D-05  0.64672384D-07 -0.11704944D-04  0.69967056D-05
 -0.44194816D-04  0.34207888D-04 -0.37942395D-04  0.44000799D-04  0.90694497D-06
  0.16952278D-04 -0.99363334D-05 -0.32319334D-06  0.33724622D-05 -0.15265951D-05
 -0.21728257D-04  0.33285198D-05 -0.11535942D-04  0.22697837D-04 -0.13445907D-04
  0.16115727D-04  0.36414750D-05 -0.40396481D+00 -0.75581970D+00 -0.13058890D+01
 -0.21169984D+01 -0.32148309D+01 -0.44682370D+01 -0.53120892D+01 -0.47316004D+01
 -0.23489081D+01 -0.37844673D+00 -0.58101655D-02 -0.10382709D-02 -0.38798562D-04
  0.96783047D-03  0.18077684D-02  0.31374697D-02  0.50908382D-02  0.78800129D-02
  0.11279523D-01  0.14723300D-01  0.15690133D-01  0.11728693D-01  0.61913688D-03
 -0.79556015D-02 -0.47265413D-02  0.17720986D-04 -0.38787995D-03 -0.72392204D-03
 -0.12581128D-02 -0.20390307D-02 -0.31669339D-02 -0.45367242D-02 -0.59903216D-02
 -0.64773146D-02 -0.50782986D-02 -0.25269446D-03  0.43533859D-02  0.45065614D-02
 -0.20392828D-02  0.24110898D-02  0.11851155D-02  0.30660472D-03 -0.16074451D-02
 -0.21173660D-02 -0.23359507D-02 -0.19402756D-02 -0.10305275D-02 -0.26580310D-03
  0.27323655D-06  0.40219310D-02  0.52977857D-02  0.58446987D-02  0.48546941D-02
  0.25784460D-02  0.66505644D-03 -0.68365541D-06 -0.35751407D-02 -0.47092627D-02
 -0.51954200D-02 -0.43153935D-02 -0.22920103D-02 -0.59117632D-03  0.60770915D-06
  0.13942780D-02  0.18305848D-02  0.20842555D-02  0.17648619D-02  0.10109809D-02
  0.22996307D-03 -0.10763537D-03 -0.34453792D-02 -0.45235303D-02 -0.51503721D-02
 -0.43611235D-02 -0.24982195D-02 -0.56825826D-03  0.26597614D-03  0.30658317D-02
  0.40252123D-02  0.45830003D-02  0.38806964D-02  0.22230123D-02  0.50565818D-03
 -0.23667586D-03 -0.22454034D-04 -0.16276623D-03  0.12849202D-03  0.34228575D-03
 -0.29001908D-03  0.29969081D-03  0.69704076D-05 -0.67359946D-05  0.67793717D-05
 -0.33455024D-04  0.21843929D-04  0.11611095D-04  0.20801761D-03 -0.22702272D-03
  0.12431781D-03  0.40005658D-04 -0.26121062D-04 -0.13884596D-04 -0.46109211D-04
  0.68168523D-04  0.51041542D-04  0.73899110D-05 -0.48251256D-05 -0.25647854D-05
 -0.72855556D-04  0.74153048D-04 -0.67141313D-04  0.22510655D-04 -0.34150927D-04
  0.31996944D-04 -0.38844994D-04  0.28858066D-04 -0.20548080D-04 -0.28686970D-04
  0.73594714D-04 -0.75442753D-04  0.18457093D-03 -0.11585596D-04  0.14634865D-04
 -0.14070611D-04  0.14819982D-04 -0.33219720D-04  0.34931750D-04  0.19936805D-04
 -0.10684874D-04  0.72800817D-05 -0.67641695D-04  0.45997533D+00  0.86061561D+00
  0.14869531D+01  0.24105244D+01  0.36605736D+01  0.50877669D+01  0.60486209D+01
  0.53876462D+01  0.26745889D+01  0.43091913D+00  0.66157564D-02  0.11822292D-02
  0.44178060D-04 -0.11020221D-02 -0.20584190D-02 -0.35724861D-02 -0.57966930D-02
 -0.89725924D-02 -0.12843451D-01 -0.16764715D-01 -0.17865601D-01 -0.13354900D-01
 -0.70498143D-03  0.90586615D-02  0.53818857D-02 -0.20178036D-04  0.44166027D-03
  0.82429526D-03  0.14325526D-02  0.23217464D-02  0.36060356D-02  0.51657501D-02
  0.68208916D-02  0.73754071D-02  0.57824148D-02  0.28773105D-03 -0.49569915D-02
 -0.51314051D-02  0.23220334D-02 -0.27453922D-02 -0.13494341D-02 -0.34911608D-03
  0.23681785D-02  0.31194226D-02  0.34414539D-02  0.28585230D-02  0.15182310D-02
  0.39159607D-03 -0.40254744D-06  0.42796766D-02  0.56372945D-02  0.62192565D-02
  0.51658074D-02  0.27436858D-02  0.70767660D-03 -0.72746749D-06 -0.38328863D-02
 -0.50487715D-02 -0.55699777D-02 -0.46265067D-02 -0.24572501D-02 -0.63379648D-03
  0.65152123D-06 -0.20445067D-02 -0.26842874D-02 -0.30562587D-02 -0.25879143D-02
 -0.14824570D-02 -0.33720753D-03  0.15783168D-03 -0.36683207D-02 -0.48162362D-02
 -0.54836392D-02 -0.46433205D-02 -0.26598727D-02 -0.60502877D-03  0.28318676D-03
  0.32887732D-02  0.43179182D-02  0.49162675D-02  0.41628934D-02  0.23846656D-02
  0.54242869D-03 -0.25388648D-03 -0.15692876D-04 -0.16232790D-03  0.12805368D-03
 -0.37810127D-03 -0.33672284D-03  0.34639457D-03 -0.78846499D-05 -0.76990700D-05
  0.77424472D-05  0.25775073D-04 -0.18003954D-04 -0.77711195D-05  0.22673779D-03
 -0.24574290D-03 -0.16443357D-03 -0.30821941D-04  0.21529204D-04  0.92927373D-05
 -0.40753838D-04  0.62813150D-04 -0.31562971D-04 -0.56934797D-05  0.39769100D-05
  0.17165697D-05 -0.82266097D-04  0.83563588D-04  0.78012544D-04 -0.28224823D-04
 -0.37440183D-04  0.35286200D-04  0.47416246D-04  0.39509803D-04 -0.31199817D-04
  0.37258222D-04  0.72810746D-04 -0.74658784D-04 -0.21016206D-03  0.13871226D-04
  0.16285268D-04 -0.15721014D-04 -0.18248427D-04 -0.32815116D-04  0.34527146D-04
 -0.23365250D-04 -0.16040690D-04  0.12635897D-04  0.77020350D-04
MO    2     MO 0.0        OCC NO =    2.0000000  ORB. ENERGY = -101.247209
  0.11290783D-11  0.21048587D-11  0.35575819D-11  0.53482110D-11  0.65708951D-11
  0.55501714D-11  0.20933204D-11 -0.10359960D-13 -0.70775931D-12 -0.13251487D-11
 -0.22561791D-11 -0.34899660D-11 -0.45961625D-11 -0.47757072D-11 -0.30347476D-11
  0.20338172D-11  0.70086643D-13 -0.39614569D-10 -0.31503007D-11  0.11739853D-03
  0.11006859D-03  0.78375391D-04 -0.31898283D-04 -0.29906668D-04 -0.21295329D-04
 -0.22998880D-04 -0.21562912D-04 -0.15354078D-04  0.14499862D-03 -0.39397486D-04
 -0.28405856D-04  0.80544218D-03 -0.21884620D-03 -0.15778960D-03  0.17657780D-04
 -0.47977846D-05 -0.34592354D-05 -0.74973511D-14  0.26648098D-14  0.48325413D-14
 -0.88923063D-04 -0.12333179D-03  0.45391068D-03  0.56236732D-14 -0.20174767D-14
 -0.36061965D-14  0.38190728D-04  0.52968608D-04 -0.19494582D-03  0.81079920D-14
 -0.32176129D-14 -0.48903791D-14 -0.79615668D-05 -0.11042290D-04  0.40640078D-04
 -0.23827087D-04  0.64740431D-05  0.46678293D-05  0.35740630D-04 -0.97110647D-05
 -0.70017439D-05  0.35740630D-04 -0.97110647D-05 -0.70017439D-05 -0.53515029D-12
  0.67512252D-04 -0.18343713D-04 -0.13225942D-04 -0.10126838D-03  0.27515569D-04
  0.19838913D-04 -0.10126838D-03  0.27515569D-04  0.19838913D-04  0.11671600D-11
  0.15585792D+00  0.29161077D+00  0.50383881D+00  0.81678148D+00  0.12403478D+01
  0.17239376D+01  0.20495132D+01  0.18255487D+01  0.90625703D+00  0.14601253D+00
  0.22416812D-02  0.40058623D-03  0.14969282D-04 -0.37340889D-03 -0.69747418D-03
 -0.12105003D-02 -0.19641500D-02 -0.30402709D-02 -0.43518716D-02 -0.56805518D-02
 -0.60535759D-02 -0.45251708D-02 -0.23887573D-03  0.30694346D-02  0.18235968D-02
 -0.68371207D-05  0.14965205D-03  0.27930400D-03  0.48540577D-03  0.78669995D-03
  0.12218682D-02  0.17503614D-02  0.23111892D-02  0.24990811D-02  0.19593120D-02
  0.97494715D-04 -0.16796257D-02 -0.17387240D-02  0.78679721D-03 -0.93024799D-03
 -0.45724192D-03 -0.11829440D-03 -0.33462124D-02 -0.44077126D-02 -0.48627396D-02
 -0.40390642D-02 -0.21452451D-02 -0.55332130D-03  0.56879548D-06 -0.28941446D-05
 -0.38122379D-05 -0.42057915D-05 -0.34933933D-05 -0.18554260D-05 -0.47856850D-06
  0.49195214D-09 -0.20218531D-03 -0.26632344D-03 -0.29381714D-03 -0.24404891D-03
 -0.12962030D-03 -0.33432857D-04  0.34367841D-07  0.28536959D-02  0.37466936D-02
  0.42658863D-02  0.36121773D-02  0.20691942D-02  0.47066990D-03 -0.22029941D-03
  0.13553372D-04  0.17794584D-04  0.20260443D-04  0.17155711D-04  0.98274518D-05
  0.22354043D-05 -0.10462923D-05  0.18285085D-03  0.24006976D-03  0.27333708D-03
  0.23145061D-03  0.13258382D-03  0.30158220D-04 -0.14115707D-04  0.20045601D-03
 -0.56016931D-04 -0.40728888D-04  0.73050245D-04  0.14542345D-03  0.14110937D-03
  0.24246672D-05  0.27492569D-05  0.27299085D-05 -0.49526541D-04  0.27045453D-04
  0.22481089D-04  0.30183910D-04  0.21706668D-04  0.16392129D-03  0.59224046D-04
 -0.32341066D-04 -0.26882980D-04  0.40330734D-04  0.50170309D-04 -0.11489886D-03
  0.10939963D-04 -0.59740950D-05 -0.49658683D-05 -0.24690614D-04 -0.24111867D-04
 -0.33820958D-04  0.21827289D-04  0.57091029D-05  0.66698886D-05 -0.30475437D-04
 -0.44304252D-04 -0.48010928D-04 -0.35006432D-04  0.27176943D-04  0.28001262D-04
 -0.71211257D-04 -0.79126770D-05 -0.36903801D-05 -0.39420661D-05  0.13010197D-04
 -0.12467765D-04 -0.13231417D-04  0.10727834D-04  0.23538905D-04  0.25057615D-04
  0.26097555D-04  0.42964898D+00  0.80387489D+00  0.13889177D+01  0.22515976D+01
  0.34192306D+01  0.47523285D+01  0.56498330D+01  0.50324367D+01  0.24982522D+01
  0.40250846D+00  0.61795771D-02  0.11042844D-02  0.41265383D-04 -0.10293654D-02
 -0.19227067D-02 -0.33369507D-02 -0.54145149D-02 -0.83810259D-02 -0.11996677D-01
 -0.15659411D-01 -0.16687716D-01 -0.12474406D-01 -0.65850174D-03  0.84614205D-02
  0.50270559D-02 -0.18847691D-04  0.41254144D-03  0.76994916D-03  0.13381039D-02
  0.21686727D-02  0.33682883D-02  0.48251702D-02  0.63711876D-02  0.68891437D-02
  0.54011780D-02  0.26876083D-03 -0.46301751D-02 -0.47930896D-02  0.21689409D-02
 -0.25643874D-02 -0.12604654D-02 -0.32609872D-03 -0.46061263D-02 -0.60673020D-02
 -0.66936555D-02 -0.55598503D-02 -0.29529716D-02 -0.76165750D-03  0.78295802D-06
  0.26914535D-02  0.35452483D-02  0.39112395D-02  0.32487340D-02  0.17254815D-02
  0.44505202D-03 -0.45749834D-06  0.24921624D-02  0.32827371D-02  0.36216281D-02
  0.30081784D-02  0.15977166D-02  0.41209773D-03 -0.42362245D-06  0.39434803D-02
  0.51775006D-02  0.58949653D-02  0.49916145D-02  0.28593890D-02  0.65041179D-03
 -0.30442851D-03 -0.23169695D-02 -0.30420110D-02 -0.34635534D-02 -0.29327947D-02
 -0.16800177D-02 -0.38214575D-03  0.17886524D-03 -0.21476720D-02 -0.28197359D-02
 -0.32104767D-02 -0.27184998D-02 -0.15572614D-02 -0.35422293D-03  0.16579583D-03
  0.19831334D-03 -0.51434780D-04 -0.36146736D-04  0.30134792D-03 -0.34279507D-03
 -0.34710915D-03  0.71323798D-05 -0.73182679D-05 -0.73376163D-05 -0.30755946D-04
  0.13095791D-04  0.17660155D-04 -0.16550780D-03 -0.17398504D-03  0.25542941D-03
  0.36778089D-04 -0.15660001D-04 -0.21118087D-04 -0.15651750D-04 -0.58121756D-05