 Molden2AIM, Version 4.0.0 (06/02/2016)           Time: Sat Jun 30 03:12:17 2018
GAUSSIAN             12 MOL ORBITALS    225 PRIMITIVES        3 NUCLEI
  C    1    (CENTRE  1)   0.00000000  0.00000000  0.49609657  CHARGE =  6.0
  F    2    (CENTRE  2)   0.00000000  1.95134253 -1.02387629  CHARGE =  9.0
  F    3    (CENTRE  3)   0.00000000 -1.95134253 -1.02387629  CHARGE =  9.0
CENTRE ASSIGNMENTS    1  1  1  1  1  1  1  1  1  1  1  1  1  1  1  1  1  1  1  1
CENTRE ASSIGNMENTS    1  1  1  1  1  1  1  1  1  1  1  1  1  1  1  1  1  1  1  1
CENTRE ASSIGNMENTS    1  1  1  1  1  1  1  1  1  1  1  1  1  1  1  1  1  1  1  1
CENTRE ASSIGNMENTS    1  1  1  1  1  1  1  1  1  1  1  1  1  1  1  2  2  2  2  2
CENTRE ASSIGNMENTS    2  2  2  2  2  2  2  2  2  2  2  2  2  2  2  2  2  2  2  2
CENTRE ASSIGNMENTS    2  2  2  2  2  2  2  2  2  2  2  2  2  2  2  2  2  2  2  2
CENTRE ASSIGNMENTS    2  2  2  2  2  2  2  2  2  2  2  2  2  2  2  2  2  2  2  2
CENTRE ASSIGNMENTS    2  2  2  2  2  2  2  2  2  2  3  3  3  3  3  3  3  3  3  3
CENTRE ASSIGNMENTS    3  3  3  3  3  3  3  3  3  3  3  3  3  3  3  3  3  3  3  3
CENTRE ASSIGNMENTS    3  3  3  3  3  3  3  3  3  3  3  3  3  3  3  3  3  3  3  3
CENTRE ASSIGNMENTS    3  3  3  3  3  3  3  3  3  3  3  3  3  3  3  3  3  3  3  3
CENTRE ASSIGNMENTS    3  3  3  3  3
TYPE ASSIGNMENTS      1  1  1  1  1  1  1  1  1  1  1  1  1  1  1  1  1  1  1  2
TYPE ASSIGNMENTS      2  2  3  3  3  4  4  4  2  3  4  2  3  4  2  3  4  5  6  7
TYPE ASSIGNMENTS      8  9 10  5  6  7  8  9 10  5  6  7  8  9 10 11 12 13 17 14
TYPE ASSIGNMENTS     15 18 19 16 20 11 12 13 17 14 15 18 19 16 20  1  1  1  1  1
TYPE ASSIGNMENTS      1  1  1  1  1  1  1  1  1  1  1  1  1  1  2  2  2  3  3  3
TYPE ASSIGNMENTS      4  4  4  2  3  4  2  3  4  2  3  4  5  6  7  8  9 10  5  6
TYPE ASSIGNMENTS      7  8  9 10  5  6  7  8  9 10 11 12 13 17 14 15 18 19 16 20
TYPE ASSIGNMENTS     11 12 13 17 14 15 18 19 16 20  1  1  1  1  1  1  1  1  1  1
TYPE ASSIGNMENTS      1  1  1  1  1  1  1  1  1  2  2  2  3  3  3  4  4  4  2  3
TYPE ASSIGNMENTS      4  2  3  4  2  3  4  5  6  7  8  9 10  5  6  7  8  9 10  5
TYPE ASSIGNMENTS      6  7  8  9 10 11 12 13 17 14 15 18 19 16 20 11 12 13 17 14
TYPE ASSIGNMENTS     15 18 19 16 20
EXPONENTS  0.8236000D+04 0.1235000D+04 0.2808000D+03 0.7927000D+02 0.2559000D+02
EXPONENTS  0.8997000D+01 0.3319000D+01 0.3643000D+00 0.8236000D+04 0.1235000D+04
EXPONENTS  0.2808000D+03 0.7927000D+02 0.2559000D+02 0.8997000D+01 0.3319000D+01
EXPONENTS  0.3643000D+00 0.9059000D+00 0.1285000D+00 0.4402000D-01 0.1871000D+02
EXPONENTS  0.4133000D+01 0.1200000D+01 0.1871000D+02 0.4133000D+01 0.1200000D+01
EXPONENTS  0.1871000D+02 0.4133000D+01 0.1200000D+01 0.3827000D+00 0.3827000D+00
EXPONENTS  0.3827000D+00 0.1209000D+00 0.1209000D+00 0.1209000D+00 0.3569000D-01
EXPONENTS  0.3569000D-01 0.3569000D-01 0.1097000D+01 0.1097000D+01 0.1097000D+01
EXPONENTS  0.1097000D+01 0.1097000D+01 0.1097000D+01 0.3180000D+00 0.3180000D+00
EXPONENTS  0.3180000D+00 0.3180000D+00 0.3180000D+00 0.3180000D+00 0.1000000D+00
EXPONENTS  0.1000000D+00 0.1000000D+00 0.1000000D+00 0.1000000D+00 0.1000000D+00
EXPONENTS  0.7610000D+00 0.7610000D+00 0.7610000D+00 0.7610000D+00 0.7610000D+00
EXPONENTS  0.7610000D+00 0.7610000D+00 0.7610000D+00 0.7610000D+00 0.7610000D+00
EXPONENTS  0.2680000D+00 0.2680000D+00 0.2680000D+00 0.2680000D+00 0.2680000D+00
EXPONENTS  0.2680000D+00 0.2680000D+00 0.2680000D+00 0.2680000D+00 0.2680000D+00
EXPONENTS  0.1950000D+05 0.2923000D+04 0.6645000D+03 0.1875000D+03 0.6062000D+02
EXPONENTS  0.2142000D+02 0.7950000D+01 0.8815000D+00 0.1950000D+05 0.2923000D+04
EXPONENTS  0.6645000D+03 0.1875000D+03 0.6062000D+02 0.2142000D+02 0.7950000D+01
EXPONENTS  0.8815000D+00 0.2257000D+01 0.3041000D+00 0.9158000D-01 0.4388000D+02
EXPONENTS  0.9926000D+01 0.2930000D+01 0.4388000D+02 0.9926000D+01 0.2930000D+01
EXPONENTS  0.4388000D+02 0.9926000D+01 0.2930000D+01 0.9132000D+00 0.9132000D+00
EXPONENTS  0.9132000D+00 0.2672000D+00 0.2672000D+00 0.2672000D+00 0.7361000D-01
EXPONENTS  0.7361000D-01 0.7361000D-01 0.3107000D+01 0.3107000D+01 0.3107000D+01
EXPONENTS  0.3107000D+01 0.3107000D+01 0.3107000D+01 0.8550000D+00 0.8550000D+00
EXPONENTS  0.8550000D+00 0.8550000D+00 0.8550000D+00 0.8550000D+00 0.2920000D+00
EXPONENTS  0.2920000D+00 0.2920000D+00 0.2920000D+00 0.2920000D+00 0.2920000D+00
EXPONENTS  0.1917000D+01 0.1917000D+01 0.1917000D+01 0.1917000D+01 0.1917000D+01
EXPONENTS  0.1917000D+01 0.1917000D+01 0.1917000D+01 0.1917000D+01 0.1917000D+01
EXPONENTS  0.7240000D+00 0.7240000D+00 0.7240000D+00 0.7240000D+00 0.7240000D+00
EXPONENTS  0.7240000D+00 0.7240000D+00 0.7240000D+00 0.7240000D+00 0.7240000D+00
EXPONENTS  0.1950000D+05 0.2923000D+04 0.6645000D+03 0.1875000D+03 0.6062000D+02
EXPONENTS  0.2142000D+02 0.7950000D+01 0.8815000D+00 0.1950000D+05 0.2923000D+04
EXPONENTS  0.6645000D+03 0.1875000D+03 0.6062000D+02 0.2142000D+02 0.7950000D+01
EXPONENTS  0.8815000D+00 0.2257000D+01 0.3041000D+00 0.9158000D-01 0.4388000D+02
EXPONENTS  0.9926000D+01 0.2930000D+01 0.4388000D+02 0.9926000D+01 0.2930000D+01
EXPONENTS  0.4388000D+02 0.9926000D+01 0.2930000D+01 0.9132000D+00 0.9132000D+00
EXPONENTS  0.9132000D+00 0.2672000D+00 0.2672000D+00 0.2672000D+00 0.7361000D-01
EXPONENTS  0.7361000D-01 0.7361000D-01 0.3107000D+01 0.3107000D+01 0.3107000D+01
EXPONENTS  0.3107000D+01 0.3107000D+01 0.3107000D+01 0.8550000D+00 0.8550000D+00
EXPONENTS  0.8550000D+00 0.8550000D+00 0.8550000D+00 0.8550000D+00 0.2920000D+00
EXPONENTS  0.2920000D+00 0.2920000D+00 0.2920000D+00 0.2920000D+00 0.2920000D+00
EXPONENTS  0.1917000D+01 0.1917000D+01 0.1917000D+01 0.1917000D+01 0.1917000D+01
EXPONENTS  0.1917000D+01 0.1917000D+01 0.1917000D+01 0.1917000D+01 0.1917000D+01
EXPONENTS  0.7240000D+00 0.7240000D+00 0.7240000D+00 0.7240000D+00 0.7240000D+00
EXPONENTS  0.7240000D+00 0.7240000D+00 0.7240000D+00 0.7240000D+00 0.7240000D+00
MO    1     MO 0.0        OCC NO =    2.0000000  ORB. ENERGY =  -24.563139
  0.61570624D-10  0.11478164D-09  0.19400120D-09  0.29164734D-09  0.35832246D-09
  0.30266060D-09  0.11415244D-09 -0.56494681D-12 -0.43652769D-10 -0.81731756D-10
 -0.13915531D-09 -0.21525210D-09 -0.28347945D-09 -0.29455330D-09 -0.18717540D-09
  0.12544060D-09 -0.32307864D-10  0.10121826D-09  0.96233220D-11 -0.10389903D-19
 -0.97411945D-20 -0.69363108D-20  0.30221057D-03  0.28334162D-03  0.20175611D-03
  0.21522750D-10  0.20178946D-10  0.14368612D-10 -0.13054893D-16 -0.20163668D-02
 -0.13337160D-09  0.10712610D-17 -0.29644116D-03 -0.23651603D-10 -0.40825140D-18
 -0.35459035D-05 -0.49765939D-12 -0.80655924D-10  0.69539179D-10  0.11116745D-10
  0.76500939D-19 -0.94122123D-16  0.23116585D-02 -0.22310767D-10  0.58985291D-11
  0.16412238D-10  0.92542386D-18  0.38003203D-18  0.77410349D-03 -0.69896073D-12
  0.88998960D-13  0.60996177D-12  0.16036034D-18 -0.55871075D-20  0.11349193D-04
  0.45079893D-18 -0.72510400D-04  0.45865051D-11 -0.13716942D-17  0.48519401D-03
  0.37973041D-10  0.19297443D-19 -0.26766281D-03 -0.51732556D-10  0.10452245D-17
 -0.38851641D-19  0.59611702D-05 -0.85899771D-12  0.30100874D-18  0.14815524D-04
  0.39466198D-11 -0.18445382D-18 -0.32699035D-04 -0.13696267D-11 -0.75179012D-18
 -0.42031394D+00 -0.78348339D+00 -0.13281970D+01 -0.20112817D+01 -0.25151148D+01
 -0.21652795D+01 -0.83241250D+00  0.36069796D-02 -0.11065118D-03 -0.20778333D-03
 -0.35381917D-03 -0.55425563D-03 -0.74276775D-03 -0.79894687D-03 -0.47968665D-03
  0.31546212D-03 -0.45481838D-01  0.80631435D-03  0.51049999D-03 -0.35559931D-16
 -0.34776836D-16 -0.22978526D-16  0.37845896D-02  0.37012460D-02  0.24455697D-02
 -0.26992091D-02 -0.26397675D-02 -0.17442060D-02  0.35949166D-17 -0.70510389D-03
  0.53567877D-03 -0.15795728D-17 -0.73808592D-03  0.56423122D-03 -0.14655784D-18
 -0.47630965D-04  0.28232659D-04  0.69546119D-03 -0.28386021D-03 -0.41160098D-03
 -0.30538012D-17 -0.15571891D-16  0.10969849D-02 -0.31893797D-03  0.20552563D-03
  0.11341234D-03 -0.66206760D-18  0.22418609D-17 -0.97039823D-03 -0.10728271D-03
  0.10025242D-03  0.70302884D-05  0.59753126D-18 -0.97598183D-18 -0.31741057D-03
 -0.34624449D-17 -0.13960404D-04  0.86241214D-04  0.96533423D-17 -0.39836515D-03
  0.33503322D-03  0.73399247D-18  0.44024636D-03 -0.59375686D-03 -0.10898577D-16
  0.78235386D-19  0.25208559D-04 -0.94666039D-04 -0.70860028D-19  0.32011698D-03
 -0.28381338D-03 -0.16384613D-18 -0.39574266D-03  0.56781149D-03 -0.20352548D-18
  0.42031405D+00  0.78348359D+00  0.13281973D+01  0.20112822D+01  0.25151154D+01
  0.21652801D+01  0.83241271D+00 -0.36069805D-02  0.11065123D-03  0.20778341D-03
  0.35381931D-03  0.55425585D-03  0.74276804D-03  0.79894718D-03  0.47968684D-03
 -0.31546224D-03  0.45481850D-01 -0.80631444D-03 -0.51050006D-03 -0.28741079D-16
 -0.28108147D-16 -0.18572241D-16  0.37845906D-02  0.37012469D-02  0.24455703D-02
  0.26992097D-02  0.26397681D-02  0.17442064D-02  0.25025479D-17 -0.70510406D-03
 -0.53567888D-03  0.56177520D-18 -0.73808603D-03 -0.56423128D-03  0.11920397D-18
 -0.47630970D-04 -0.28232662D-04 -0.69546139D-03  0.28386039D-03  0.41160099D-03
  0.68386510D-17 -0.10949435D-16  0.10969850D-02  0.31893805D-03 -0.20552572D-03
 -0.11341233D-03 -0.19535732D-17  0.16816013D-17 -0.97039840D-03  0.10728272D-03
 -0.10025244D-03 -0.70302833D-05  0.10604979D-17  0.42644509D-19 -0.31741060D-03
 -0.48926275D-18 -0.13960378D-04 -0.86241220D-04  0.12647392D-17 -0.39836520D-03
 -0.33503329D-03  0.20304911D-18  0.44024634D-03  0.59375695D-03  0.85096724D-17
 -0.94747500D-19  0.25208541D-04  0.94666055D-04  0.38010411D-18  0.32011705D-03
  0.28381342D-03 -0.95861609D-19 -0.39574267D-03 -0.56781159D-03 -0.65455315D-18
MO    2     MO 0.0        OCC NO =    2.0000000  ORB. ENERGY =  -24.563139
  0.48502270D-03  0.90419260D-03  0.15282448D-02  0.22974525D-02  0.28226858D-02
  0.23842094D-02  0.89923607D-03 -0.44503695D-05 -0.34387502D-03 -0.64384254D-03
 -0.10961970D-02 -0.16956501D-02 -0.22331115D-02 -0.23203459D-02 -0.14744757D-02
  0.98815930D-03 -0.25461128D-03  0.79739395D-03  0.75818451D-04  0.63502025D-16
  0.59537185D-16  0.42394022D-16 -0.38373734D-10 -0.35977815D-10 -0.25618347D-10
  0.16946653D-03  0.15888564D-03  0.11313604D-03 -0.12598520D-17  0.25599550D-09
 -0.10505227D-02  0.65765949D-19  0.37629660D-10 -0.18626640D-03  0.59913102D-20
  0.44902297D-12 -0.39189707D-05 -0.63545081D-03  0.54783238D-03  0.87618429D-04
  0.44022671D-18 -0.66705535D-19 -0.29342389D-09 -0.17578916D-03  0.46652852D-04
  0.12913631D-03 -0.41485001D-19  0.18020983D-18 -0.98310641D-10 -0.55097509D-05
  0.71846231D-06  0.47912886D-05 -0.18731233D-19  0.69215871D-22 -0.14399213D-11
  0.17604185D-19  0.91965035D-11  0.36167420D-04 -0.33581114D-19 -0.61596634D-10
  0.29915473D-03 -0.19231441D-19  0.34007124D-10 -0.40765699D-03 -0.12975831D-17
  0.13738906D-19 -0.76235736D-12 -0.67426170D-05 -0.33376058D-19 -0.18771336D-11
  0.31082854D-04 -0.78406587D-20  0.41642057D-11 -0.10855003D-04  0.34309128D-19
  0.42022903D+00  0.78332511D+00  0.13279286D+01  0.20108753D+01  0.25146067D+01
  0.21648421D+01  0.83224434D+00 -0.36062509D-02  0.16825403D-03  0.31595126D-03
  0.53801051D-03  0.84279028D-03  0.11294381D-02  0.12148630D-02  0.72940214D-03
 -0.47968553D-03  0.45493665D-01 -0.36387007D-03 -0.29826877D-03  0.33990050D-16
  0.33241526D-16  0.21964082D-16 -0.37765182D-02 -0.36933523D-02 -0.24403540D-02
  0.25235349D-02  0.24679620D-02  0.16306868D-02 -0.32891927D-17  0.66358203D-03
 -0.44833575D-03  0.54555466D-18  0.45987394D-03 -0.22661293D-03 -0.17306064D-19
  0.20123896D-04 -0.11224582D-04 -0.76918973D-03  0.71505604D-03  0.54133688D-04
  0.76790056D-17  0.11476840D-16 -0.47554684D-03  0.32192031D-03 -0.36104536D-03
  0.39125052D-04  0.11315899D-18 -0.11090210D-17  0.65550722D-03  0.50166677D-04
 -0.70292700D-04  0.20126023D-04 -0.17415666D-18  0.18634882D-18  0.11777030D-03
  0.14117424D-17 -0.10303634D-03 -0.25996344D-04 -0.32985765D-17  0.23022981D-03
 -0.25291396D-03 -0.93665076D-18  0.78879221D-04  0.33090299D-03  0.58837300D-17
 -0.11442785D-18  0.71855180D-04  0.65066097D-04  0.23291689D-18 -0.26364682D-03
  0.18101540D-03  0.11036665D-18  0.48081281D-04 -0.37621369D-03 -0.18763181D-18
  0.42022892D+00  0.78332491D+00  0.13279283D+01  0.20108748D+01  0.25146060D+01
  0.21648415D+01  0.83224412D+00 -0.36062500D-02  0.16825400D-03  0.31595121D-03
  0.53801042D-03  0.84279014D-03  0.11294379D-02  0.12148628D-02  0.72940202D-03
 -0.47968545D-03  0.45493653D-01 -0.36386986D-03 -0.29826864D-03 -0.28341543D-16
 -0.27717410D-16 -0.18314065D-16  0.37765173D-02  0.36933514D-02  0.24403534D-02
  0.25235342D-02  0.24679613D-02  0.16306864D-02  0.26461903D-17 -0.66358185D-03
 -0.44833562D-03 -0.19202734D-18 -0.45987375D-03 -0.22661279D-03  0.46024130D-20
 -0.20123884D-04 -0.11224575D-04 -0.76918956D-03  0.71505597D-03  0.54133583D-04
 -0.40127169D-17 -0.87428697D-17  0.47554656D-03  0.32192023D-03 -0.36104531D-03
  0.39125081D-04  0.60424080D-18  0.69832874D-18 -0.65550697D-03  0.50166650D-04
 -0.70292675D-04  0.20126025D-04 -0.10491401D-19  0.41508254D-21 -0.11777022D-03
 -0.62830266D-18  0.10303635D-03 -0.25996322D-04  0.11951664D-19 -0.23022971D-03
 -0.25291387D-03  0.18729563D-17 -0.78879332D-04  0.33090284D-03  0.25407988D-17
  0.33797005D-19 -0.71855187D-04  0.65066073D-04 -0.60877222D-19  0.26364674D-03
  0.18101533D-03 -0.40513792D-19 -0.48081180D-04 -0.37621355D-03  0.33033125D-18
MO    3     MO 0.0        OCC NO =    2.0000000  ORB. ENERGY =  -10.242225
  0.32918811D+00  0.61368147D+00  0.10372298D+01  0.15592961D+01  0.19157755D+01
  0.16181787D+01  0.61031745D+00 -0.30204951D-02 -0.23535544D-02 -0.44065964D-02
 -0.75026074D-02 -0.11605393D-01 -0.15283894D-01 -0.15880945D-01 -0.10091628D-01
  0.67631742D-02  0.31283953D-01  0.84556584D-03  0.16814578D-04 -0.73331435D-17
 -0.68752882D-17 -0.48956148D-17 -0.30334803D-14 -0.28440806D-14 -0.20251548D-14
 -0.94076021D-02 -0.88202249D-02 -0.62805256D-02  0.11838109D-17  0.10273645D-13
 -0.24021903D-02  0.85283432D-19  0.41801218D-14  0.36651229D-03 -0.56453001D-21
  0.39722452D-16  0.27563279D-05 -0.39424569D-02  0.27471181D-02  0.11953388D-02
  0.54733910D-18 -0.16210773D-17 -0.53717177D-14  0.71787353D-04  0.31853524D-03
 -0.39032259D-03  0.15076751D-18 -0.45544184D-18 -0.45446238D-14  0.45667633D-04
 -0.10601012D-04 -0.35066621D-04  0.36352555D-20 -0.14575397D-19 -0.37806560D-15
 -0.33538352D-18  0.16762306D-15  0.52056129D-03  0.82746723D-18 -0.17693481D-14
  0.12975829D-02  0.17868334D-18  0.12664789D-14 -0.28592668D-02 -0.50756755D-18
 -0.31239195D-19  0.15837275D-15 -0.17364120D-04  0.61396870D-19 -0.38061361D-15
 -0.26598122D-03  0.32320714D-19 -0.94504626D-16  0.31807358D-03 -0.53062414D-19
  0.67991180D-03  0.12673850D-02  0.21485292D-02  0.32535065D-02  0.40685213D-02
  0.35026178D-02  0.13465342D-02 -0.58347530D-05 -0.50926782D-03 -0.95631476D-03
 -0.16284391D-02 -0.25509402D-02 -0.34185600D-02 -0.36771222D-02 -0.22077394D-02
  0.14519023D-02  0.36016609D-03 -0.13645416D-02 -0.45593409D-03 -0.42270432D-19
 -0.41339559D-19 -0.27314795D-19 -0.15762795D-02 -0.15415670D-02 -0.10185785D-02
  0.12092397D-02  0.11826100D-02  0.78140041D-03  0.54715336D-19  0.37066381D-03
 -0.14563606D-03 -0.46730824D-18  0.15570224D-02 -0.17768315D-02 -0.87657024D-20
  0.51056241D-04 -0.79906538D-04 -0.14096783D-02  0.96259718D-03  0.44708116D-03
 -0.39699591D-18 -0.75669957D-20 -0.52862749D-02  0.91049550D-03 -0.63708163D-03
 -0.27341387D-03  0.30538064D-18 -0.13397443D-18  0.32157146D-02  0.41533690D-03
 -0.25481931D-03 -0.16051758D-03  0.29513410D-18 -0.22993945D-18  0.13385500D-02
 -0.31581244D-18 -0.13817695D-05 -0.61356724D-03  0.83422651D-18  0.16470210D-02
 -0.11904363D-02  0.11321080D-18 -0.16428757D-02  0.30311380D-02 -0.84475523D-18
  0.18404975D-18 -0.81534559D-04  0.52771034D-03 -0.45277893D-18 -0.15868980D-02
  0.13458911D-02 -0.99370314D-19  0.18315017D-02 -0.29290221D-02  0.72467601D-18
  0.67991180D-03  0.12673850D-02  0.21485292D-02  0.32535065D-02  0.40685213D-02
  0.35026178D-02  0.13465342D-02 -0.58347530D-05 -0.50926782D-03 -0.95631476D-03
 -0.16284391D-02 -0.25509402D-02 -0.34185600D-02 -0.36771222D-02 -0.22077394D-02
  0.14519023D-02  0.36016609D-03 -0.13645416D-02 -0.45593409D-03 -0.68317490D-19
 -0.66813013D-19 -0.44146183D-19  0.15762795D-02  0.15415670D-02  0.10185785D-02
  0.12092397D-02  0.11826100D-02  0.78140041D-03  0.72822996D-19 -0.37066381D-03
 -0.14563606D-03 -0.29561330D-18 -0.15570224D-02 -0.17768315D-02 -0.56370428D-20
 -0.51056241D-04 -0.79906538D-04 -0.14096783D-02  0.96259718D-03  0.44708116D-03
 -0.16540343D-18 -0.21301640D-19  0.52862749D-02  0.91049550D-03 -0.63708163D-03
 -0.27341387D-03 -0.51463290D-19 -0.89878142D-19 -0.32157146D-02  0.41533690D-03
 -0.25481931D-03 -0.16051758D-03 -0.21671484D-18 -0.15886849D-18 -0.13385500D-02
 -0.32033955D-18  0.13817695D-05 -0.61356724D-03  0.64278343D-18 -0.16470210D-02
 -0.11904363D-02  0.31823523D-18  0.16428757D-02  0.30311380D-02  0.10671216D-17
  0.14271357D-18  0.81534559D-04  0.52771034D-03 -0.25431760D-18  0.15868980D-02
  0.13458911D-02 -0.17382310D-18 -0.18315017D-02 -0.29290221D-02 -0.49529686D-18
MO    4     MO 0.0        OCC NO =    2.0000000  ORB. ENERGY =   -1.306363
 -0.63781372D-02 -0.11890298D-01 -0.20096698D-01 -0.30211920D-01 -0.37118835D-01
 -0.31352790D-01 -0.11825119D-01  0.58523172D-04 -0.20199103D-01 -0.37819094D-01
 -0.64390244D-01 -0.99601917D-01 -0.13117222D+00 -0.13629634D+00 -0.86610205D-01
  0.58044145D-01  0.26794724D-01  0.10646210D-02 -0.24261331D-03 -0.50196719D-15
 -0.47062615D-15 -0.33511386D-15 -0.24006546D-13 -0.22507663D-13 -0.16026797D-13
 -0.13233868D+00 -0.12407593D+00 -0.88349452D-01  0.52340815D-16 -0.14274617D-12
 -0.29295239D-01 -0.33730149D-17  0.74282612D-14  0.12020708D-02  0.56400101D-18
  0.23177313D-14  0.23033971D-04 -0.20501514D-01  0.12365449D-01  0.81360655D-02
  0.26202779D-16 -0.77767198D-17  0.70933422D-13 -0.25618578D-02  0.19165908D-02
  0.64526699D-03 -0.97754756D-18  0.81810919D-17  0.11485781D-12  0.14180615D-03
 -0.24775590D-04 -0.11703056D-03 -0.41874084D-18 -0.14805974D-17 -0.27163946D-14
  0.27865777D-18  0.93187282D-14  0.17150204D-02  0.11769781D-17  0.31696921D-13
  0.61105760D-02 -0.20129514D-17 -0.59653105D-13 -0.11255637D-01 -0.11642360D-16
  0.33259829D-18  0.12398828D-13  0.13040219D-03  0.97449245D-18 -0.64374006D-14
  0.26096791D-03 -0.19722873D-17 -0.30759082D-13 -0.65217447D-03  0.14141806D-17
 -0.49614527D-02 -0.92483628D-02 -0.15678249D-01 -0.23741489D-01 -0.29688815D-01
 -0.25559305D-01 -0.98259298D-02  0.42577362D-04 -0.83144495D-01 -0.15613064D+00
 -0.26586355D+00 -0.41647367D+00 -0.55812372D+00 -0.60033731D+00 -0.36044173D+00
  0.23704165D+00  0.13888696D+00  0.59936641D-01  0.82816807D-03  0.43656014D-15
  0.42694629D-15  0.28210146D-15 -0.26488857D+00 -0.25905523D+00 -0.17116875D+00
  0.15420284D+00  0.15080701D+00  0.99644569D-01  0.10182387D-15 -0.64868695D-01
  0.37938381D-01  0.15386917D-16 -0.39441206D-02  0.10895984D-02 -0.28670790D-17
  0.26686784D-04 -0.13892884D-03 -0.12746535D-01  0.15664510D-01 -0.29179751D-02
 -0.43513396D-16  0.17179298D-16 -0.37026714D-01 -0.58464561D-02  0.77220408D-02
 -0.18755847D-02 -0.19188757D-16  0.16767975D-16 -0.18874114D-01  0.30441536D-03
 -0.14131596D-03 -0.16309940D-03 -0.77765829D-17 -0.22392004D-17  0.58642375D-03
  0.17478454D-17 -0.26565343D-02 -0.21179003D-02 -0.99216242D-17  0.11324417D-01
 -0.56106271D-02  0.46780879D-17 -0.33548138D-02  0.11964328D-01  0.24163002D-16
 -0.64143724D-18 -0.20260715D-03 -0.12621311D-02  0.41345668D-17  0.18371805D-02
 -0.16952049D-02 -0.22102551D-17 -0.12293591D-02  0.54815982D-02 -0.40605534D-17
 -0.49614527D-02 -0.92483628D-02 -0.15678249D-01 -0.23741489D-01 -0.29688815D-01
 -0.25559305D-01 -0.98259298D-02  0.42577362D-04 -0.83144495D-01 -0.15613064D+00
 -0.26586355D+00 -0.41647367D+00 -0.55812372D+00 -0.60033731D+00 -0.36044173D+00
  0.23704165D+00  0.13888696D+00  0.59936641D-01  0.82816807D-03 -0.33158804D-15
 -0.32428586D-15 -0.21426938D-15  0.26488857D+00  0.25905523D+00  0.17116875D+00
  0.15420284D+00  0.15080701D+00  0.99644569D-01 -0.92469520D-16  0.64868695D-01
  0.37938381D-01 -0.84627845D-17  0.39441206D-02  0.10895984D-02 -0.31483143D-17
 -0.26686784D-04 -0.13892884D-03 -0.12746535D-01  0.15664510D-01 -0.29179751D-02
 -0.41989242D-16 -0.34803223D-16  0.37026714D-01 -0.58464561D-02  0.77220408D-02
 -0.18755847D-02  0.62805414D-18 -0.19971827D-16  0.18874114D-01  0.30441536D-03
 -0.14131596D-03 -0.16309940D-03 -0.33502287D-17 -0.36214456D-17 -0.58642375D-03
 -0.58135440D-17  0.26565343D-02 -0.21179003D-02  0.70649908D-17 -0.11324417D-01
 -0.56106271D-02  0.10375641D-16  0.33548138D-02  0.11964328D-01 -0.28059787D-16
  0.35376102D-17  0.20260715D-03 -0.12621311D-02 -0.18241418D-17 -0.18371805D-02
 -0.16952049D-02 -0.87886888D-17  0.12293591D-02  0.54815982D-02 -0.14748031D-17
MO    5     MO 0.0        OCC NO =    2.0000000  ORB. ENERGY =   -1.233634
  0.91348703D-14  0.17029475D-13  0.28782813D-13  0.43269996D-13  0.53162189D-13
  0.44903968D-13  0.16936124D-13 -0.83817825D-16 -0.15740830D-13 -0.29471800D-13
 -0.50178261D-13 -0.77618139D-13 -0.10222036D-12 -0.10621350D-12 -0.67493912D-13
  0.45232850D-13  0.26602202D-13 -0.44076501D-14 -0.33414992D-14 -0.91685677D-15
 -0.85961150D-15 -0.61209460D-15  0.17502320D+00  0.16409538D+00  0.11684568D+00
 -0.27478239D-13 -0.25762596D-13 -0.18344503D-13  0.23537410D-17  0.28046553D-01
 -0.72448982D-13  0.23603760D-17 -0.13043159D-02 -0.19470611D-13 -0.91482658D-17
 -0.22250047D-04 -0.68097712D-15 -0.17930370D-13  0.22071501D-13 -0.41411319D-14
 -0.92186432D-16 -0.63067265D-15 -0.57923172D-01  0.26829442D-14 -0.53936899D-13
  0.51253955D-13  0.22532640D-16  0.10340503D-15 -0.80962856D-02  0.11590435D-14
 -0.60560937D-14  0.48970502D-14 -0.28907642D-17 -0.90007640D-17  0.24372563D-03
  0.11945669D-15 -0.42233373D-03 -0.85826578D-14  0.35195310D-16 -0.54819149D-02
  0.11843867D-13 -0.39356537D-15  0.67489161D-02  0.13904106D-13 -0.32396441D-15
 -0.11644894D-17 -0.39229239D-03 -0.79767223D-14  0.24113758D-17 -0.19618792D-03
  0.46470555D-14  0.10820925D-17  0.13730651D-02  0.19283111D-13  0.32926070D-16
 -0.54858054D-02 -0.10225779D-01 -0.17335209D-01 -0.26250616D-01 -0.32826487D-01
 -0.28260548D-01 -0.10864386D-01  0.47077164D-04 -0.90579819D-01 -0.17009286D+00
 -0.28963880D+00 -0.45371747D+00 -0.60803479D+00 -0.65402339D+00 -0.39267479D+00
  0.25823946D+00  0.15345467D+00  0.71137216D-01  0.27035772D-02  0.71237155D-15
  0.69668381D-15  0.46032845D-15 -0.16220721D+00 -0.15863511D+00 -0.10481693D+00
  0.15777960D+00  0.15430500D+00  0.10195584D+00  0.13154900D-15 -0.42117638D-01
  0.40523144D-01  0.42931336D-16 -0.36377406D-02  0.51493291D-02  0.16353316D-16
 -0.13353384D-03  0.38162866D-04 -0.72019615D-02  0.46974614D-02  0.25045001D-02
 -0.13186770D-16  0.67729752D-16 -0.32496071D-01 -0.49358448D-02  0.33732706D-02
  0.15625742D-02 -0.70407274D-17  0.47932631D-16 -0.20751904D-01 -0.50510215D-03
  0.95222901D-04  0.40987925D-03 -0.23284497D-16  0.11069561D-16 -0.82355930D-03
  0.17305766D-16  0.15403420D-02 -0.15257085D-02 -0.54597162D-16  0.33100161D-02
 -0.51701855D-02  0.26798643D-17 -0.79310421D-02  0.97473110D-02  0.78594270D-16
 -0.12345788D-16  0.11718147D-03 -0.65990247D-03  0.22177349D-16  0.30527957D-02
 -0.21691207D-02  0.14860015D-16 -0.34043401D-02  0.41488281D-02 -0.73648484D-16
  0.54858054D-02  0.10225779D-01  0.17335209D-01  0.26250616D-01  0.32826487D-01
  0.28260548D-01  0.10864386D-01 -0.47077164D-04  0.90579819D-01  0.17009286D+00
  0.28963880D+00  0.45371747D+00  0.60803479D+00  0.65402339D+00  0.39267479D+00
 -0.25823946D+00 -0.15345467D+00 -0.71137216D-01 -0.27035772D-02 -0.74127387D-16
 -0.72494965D-16 -0.47900489D-16 -0.16220721D+00 -0.15863511D+00 -0.10481693D+00
 -0.15777960D+00 -0.15430500D+00 -0.10195584D+00  0.44443644D-16 -0.42117638D-01
 -0.40523144D-01 -0.57681532D-16 -0.36377406D-02 -0.51493291D-02  0.32837256D-17
 -0.13353384D-03 -0.38162866D-04  0.72019615D-02 -0.46974614D-02 -0.25045001D-02
 -0.95312159D-16 -0.74389576D-16 -0.32496071D-01  0.49358448D-02 -0.33732706D-02
 -0.15625742D-02 -0.33963105D-16  0.15573912D-16 -0.20751904D-01  0.50510215D-03
 -0.95222901D-04 -0.40987925D-03 -0.20522363D-16 -0.23217672D-16 -0.82355930D-03
 -0.43045227D-17  0.15403420D-02  0.15257085D-02  0.11623361D-16  0.33100161D-02
  0.51701855D-02  0.12902071D-17 -0.79310421D-02 -0.97473110D-02 -0.56832841D-16
  0.40249636D-17  0.11718147D-03  0.65990247D-03 -0.22190774D-16  0.30527957D-02
  0.21691207D-02  0.10115883D-16 -0.34043401D-02 -0.41488281D-02  0.90709096D-17
MO    6     MO 0.0        OCC NO =    2.0000000  ORB. ENERGY =   -0.672340
 -0.47666724D-02 -0.88861611D-02 -0.15019178D-01 -0.22578744D-01 -0.27740596D-01
 -0.23431368D-01 -0.88374498D-02  0.43737032D-04 -0.40336809D-01 -0.75523234D-01
 -0.12858477D+00 -0.19890108D+00 -0.26194573D+00 -0.27217839D+00 -0.17295715D+00
  0.11591186D+00  0.59066957D-01  0.24259132D-01  0.11593380D-03 -0.29879720D-15
 -0.28014137D-15 -0.19947734D-15 -0.13075098D-12 -0.12258735D-12 -0.87289497D-13
 -0.16304897D+00 -0.15286877D+00 -0.10885167D+00 -0.92639202D-16  0.21411033D-12
 -0.41797318D-01  0.53100863D-16  0.19012701D-12 -0.15807333D-02  0.18157945D-17
 -0.85972142D-14  0.59348473D-04 -0.11005650D-01  0.15953879D-02  0.94102621D-02
 -0.70867525D-16  0.93544761D-16 -0.51106432D-13 -0.28187645D-02  0.13430788D-02
  0.14756857D-02  0.33299527D-16 -0.22742990D-16 -0.13012487D-12  0.15113172D-04
 -0.22110552D-04  0.69973798D-05  0.20018387D-17  0.69491216D-18 -0.11002239D-13
 -0.33607202D-17 -0.17520387D-14  0.35037558D-03  0.10637591D-16 -0.40985619D-13
  0.31327665D-02 -0.55543064D-18  0.46241735D-13 -0.41838932D-02  0.11543901D-16
 -0.16835534D-17  0.53070446D-14  0.74564567D-04  0.10525099D-17 -0.73550770D-14
  0.84576774D-03  0.39981502D-17 -0.85660568D-14 -0.10694614D-02 -0.15111711D-16
  0.58280996D-03  0.10863830D-02  0.18416863D-02  0.27888558D-02  0.34874740D-02
  0.30023902D-02  0.11542284D-02 -0.50014607D-05  0.40622087D-01  0.76281085D-01
  0.12989353D+00  0.20347745D+00  0.27268372D+00  0.29330811D+00  0.17610180D+00
 -0.11581195D+00 -0.75299218D-01 -0.57918682D-01 -0.40646812D-02 -0.37727124D-15
 -0.36896303D-15 -0.24378948D-15 -0.11347904D+01 -0.11098002D+01 -0.73329194D+00
  0.71251788D+00  0.69682693D+00  0.46042301D+00 -0.65528642D-16 -0.25166189D+00
  0.15751941D+00 -0.46289037D-16 -0.26329457D-01  0.16642123D-01  0.26637610D-17
  0.60440670D-04 -0.10358121D-03 -0.28107370D-01  0.31171673D-01 -0.30643037D-02
 -0.11492194D-16 -0.29158381D-17 -0.69386704D-01 -0.85685369D-02  0.10240897D-01
 -0.16723603D-02 -0.55457752D-16  0.20532166D-16 -0.22858196D-01 -0.24430055D-03
  0.38050237D-03 -0.13620182D-03  0.34005876D-16 -0.15198193D-16 -0.17153032D-02
  0.36132236D-17 -0.23529002D-02 -0.55635005D-02  0.13711240D-16  0.14209872D-01
 -0.88950955D-02 -0.24550911D-16 -0.71511710D-02  0.25585597D-01 -0.59054342D-18
 -0.19350091D-17 -0.52825138D-03 -0.16549130D-02 -0.26364922D-17  0.32395584D-02
 -0.22926773D-02  0.84415194D-17 -0.16548042D-02  0.72574163D-02 -0.75403160D-19
  0.58280996D-03  0.10863830D-02  0.18416863D-02  0.27888558D-02  0.34874740D-02
  0.30023902D-02  0.11542284D-02 -0.50014607D-05  0.40622087D-01  0.76281085D-01
  0.12989353D+00  0.20347745D+00  0.27268372D+00  0.29330811D+00  0.17610180D+00
 -0.11581195D+00 -0.75299218D-01 -0.57918682D-01 -0.40646812D-02  0.63199367D-15
  0.61807600D-15  0.40838895D-15  0.11347904D+01  0.11098002D+01  0.73329194D+00
  0.71251788D+00  0.69682693D+00  0.46042301D+00  0.15679604D-15  0.25166189D+00
  0.15751941D+00  0.23248299D-16  0.26329457D-01  0.16642123D-01  0.55764350D-17
 -0.60440670D-04 -0.10358121D-03 -0.28107370D-01  0.31171673D-01 -0.30643037D-02
 -0.11913678D-15 -0.24218276D-16  0.69386704D-01 -0.85685369D-02  0.10240897D-01
 -0.16723603D-02 -0.51120116D-16 -0.32937821D-16  0.22858196D-01 -0.24430055D-03
  0.38050237D-03 -0.13620182D-03  0.39082730D-17  0.56519910D-17  0.17153032D-02
  0.71348042D-17  0.23529002D-02 -0.55635005D-02 -0.10324441D-16 -0.14209872D-01
 -0.88950955D-02 -0.11079971D-16  0.71511710D-02  0.25585597D-01 -0.56059243D-17
  0.81719684D-18  0.52825138D-03 -0.16549130D-02 -0.17263037D-17 -0.32395584D-02
 -0.22926773D-02 -0.72528680D-18  0.16548042D-02  0.72574163D-02 -0.11609275D-16
MO    7     MO 0.0        OCC NO =    2.0000000  ORB. ENERGY =   -0.565928
 -0.22578399D-14 -0.42091268D-14 -0.71141658D-14 -0.10694922D-13 -0.13139947D-13
 -0.11098786D-13 -0.41860536D-14  0.20717013D-16 -0.76450795D-14 -0.14314001D-13
 -0.24370812D-13 -0.37697940D-13 -0.49646860D-13 -0.51586268D-13 -0.32780758D-13
  0.21968901D-13  0.27465739D-13 -0.38108161D-12 -0.40749638D-13  0.18543988D-14
  0.17386168D-14  0.12379987D-14  0.39768961D+00  0.37285929D+00  0.26549803D+00
 -0.84094514D-13 -0.78843952D-13 -0.56141591D-13  0.44064015D-15  0.88316260D-01
  0.84078456D-13 -0.65916130D-16  0.28117527D-02  0.90753765D-13  0.92413016D-17
 -0.11954051D-05  0.22807070D-14 -0.81507473D-14  0.91045205D-14 -0.95377324D-15
  0.42348464D-15 -0.37889688D-16 -0.63888208D-01  0.40541940D-13 -0.48621491D-13
  0.80795507D-14  0.11267540D-15 -0.45011657D-16 -0.16328513D-01  0.17825930D-14
  0.24929205D-14 -0.42755135D-14 -0.35550164D-17  0.93629381D-17  0.15847308D-03
  0.10303213D-15  0.11267892D-02 -0.11231808D-13  0.10066533D-16 -0.60003430D-02
 -0.12771653D-13 -0.31916293D-15  0.26199756D-02  0.46467076D-13  0.42092090D-16
 -0.23764229D-16 -0.74005028D-03 -0.25702452D-14  0.78656392D-17 -0.50417102D-03
 -0.54124773D-14  0.63427047D-16  0.27243219D-02  0.13123213D-13 -0.86617897D-16
  0.74915616D-03  0.13964595D-02  0.23673422D-02  0.35848539D-02  0.44828723D-02
  0.38593355D-02  0.14836695D-02 -0.64289826D-05  0.21718031D-01  0.40782616D-01
  0.69445762D-01  0.10878638D+00  0.14578654D+00  0.15681308D+00  0.94150368D-01
 -0.61917243D-01 -0.41966335D-01 -0.40478096D-01 -0.16912716D-02  0.76875358D-14
  0.75182421D-14  0.49676204D-14 -0.99974851D+00 -0.97773221D+00 -0.64602901D+00
  0.13107753D+01  0.12819096D+01  0.84701190D+00  0.15499368D-14 -0.22454469D+00