 Molden2AIM, Version 4.0.0 (06/02/2016)           Time: Sat Jun 30 01:41:25 2018
GAUSSIAN             25 MOL ORBITALS    431 PRIMITIVES        5 NUCLEI
  C    1    (CENTRE  1)   3.07209753  0.22555960 -0.00043842  CHARGE =  6.0
  F    2    (CENTRE  2)   3.91107167  0.45949069  2.35804561  CHARGE =  9.0
  F    3    (CENTRE  3)   4.34602994 -1.62282499 -1.13201209  CHARGE =  9.0
  F    4    (CENTRE  4)   3.51307268  2.37517409 -1.22789112  CHARGE =  9.0
  Cl   5    (CENTRE  5)  -0.18507978 -0.45259130 -0.00454290  CHARGE = 17.0
CENTRE ASSIGNMENTS    1  1  1  1  1  1  1  1  1  1  1  1  1  1  1  1  1  1  1  1
CENTRE ASSIGNMENTS    1  1  1  1  1  1  1  1  1  1  1  1  1  1  1  1  1  1  1  1
CENTRE ASSIGNMENTS    1  1  1  1  1  1  1  1  1  1  1  1  1  1  1  1  1  1  1  1
CENTRE ASSIGNMENTS    1  1  1  1  1  1  1  1  1  1  1  1  1  1  1  2  2  2  2  2
CENTRE ASSIGNMENTS    2  2  2  2  2  2  2  2  2  2  2  2  2  2  2  2  2  2  2  2
CENTRE ASSIGNMENTS    2  2  2  2  2  2  2  2  2  2  2  2  2  2  2  2  2  2  2  2
CENTRE ASSIGNMENTS    2  2  2  2  2  2  2  2  2  2  2  2  2  2  2  2  2  2  2  2
CENTRE ASSIGNMENTS    2  2  2  2  2  2  2  2  2  2  3  3  3  3  3  3  3  3  3  3
CENTRE ASSIGNMENTS    3  3  3  3  3  3  3  3  3  3  3  3  3  3  3  3  3  3  3  3
CENTRE ASSIGNMENTS    3  3  3  3  3  3  3  3  3  3  3  3  3  3  3  3  3  3  3  3
CENTRE ASSIGNMENTS    3  3  3  3  3  3  3  3  3  3  3  3  3  3  3  3  3  3  3  3
CENTRE ASSIGNMENTS    3  3  3  3  3  4  4  4  4  4  4  4  4  4  4  4  4  4  4  4
CENTRE ASSIGNMENTS    4  4  4  4  4  4  4  4  4  4  4  4  4  4  4  4  4  4  4  4
CENTRE ASSIGNMENTS    4  4  4  4  4  4  4  4  4  4  4  4  4  4  4  4  4  4  4  4
CENTRE ASSIGNMENTS    4  4  4  4  4  4  4  4  4  4  4  4  4  4  4  4  4  4  4  4
CENTRE ASSIGNMENTS    5  5  5  5  5  5  5  5  5  5  5  5  5  5  5  5  5  5  5  5
CENTRE ASSIGNMENTS    5  5  5  5  5  5  5  5  5  5  5  5  5  5  5  5  5  5  5  5
CENTRE ASSIGNMENTS    5  5  5  5  5  5  5  5  5  5  5  5  5  5  5  5  5  5  5  5
CENTRE ASSIGNMENTS    5  5  5  5  5  5  5  5  5  5  5  5  5  5  5  5  5  5  5  5
CENTRE ASSIGNMENTS    5  5  5  5  5  5  5  5  5  5  5  5  5  5  5  5  5  5  5  5
CENTRE ASSIGNMENTS    5  5  5  5  5  5  5  5  5  5  5  5  5  5  5  5  5  5  5  5
CENTRE ASSIGNMENTS    5  5  5  5  5  5  5  5  5  5  5
TYPE ASSIGNMENTS      1  1  1  1  1  1  1  1  1  1  1  1  1  1  1  1  1  1  1  2
TYPE ASSIGNMENTS      2  2  3  3  3  4  4  4  2  3  4  2  3  4  2  3  4  5  6  7
TYPE ASSIGNMENTS      8  9 10  5  6  7  8  9 10  5  6  7  8  9 10 11 12 13 17 14
TYPE ASSIGNMENTS     15 18 19 16 20 11 12 13 17 14 15 18 19 16 20  1  1  1  1  1
TYPE ASSIGNMENTS      1  1  1  1  1  1  1  1  1  1  1  1  1  1  2  2  2  3  3  3
TYPE ASSIGNMENTS      4  4  4  2  3  4  2  3  4  2  3  4  5  6  7  8  9 10  5  6
TYPE ASSIGNMENTS      7  8  9 10  5  6  7  8  9 10 11 12 13 17 14 15 18 19 16 20
TYPE ASSIGNMENTS     11 12 13 17 14 15 18 19 16 20  1  1  1  1  1  1  1  1  1  1
TYPE ASSIGNMENTS      1  1  1  1  1  1  1  1  1  2  2  2  3  3  3  4  4  4  2  3
TYPE ASSIGNMENTS      4  2  3  4  2  3  4  5  6  7  8  9 10  5  6  7  8  9 10  5
TYPE ASSIGNMENTS      6  7  8  9 10 11 12 13 17 14 15 18 19 16 20 11 12 13 17 14
TYPE ASSIGNMENTS     15 18 19 16 20  1  1  1  1  1  1  1  1  1  1  1  1  1  1  1
TYPE ASSIGNMENTS      1  1  1  1  2  2  2  3  3  3  4  4  4  2  3  4  2  3  4  2
TYPE ASSIGNMENTS      3  4  5  6  7  8  9 10  5  6  7  8  9 10  5  6  7  8  9 10
TYPE ASSIGNMENTS     11 12 13 17 14 15 18 19 16 20 11 12 13 17 14 15 18 19 16 20
TYPE ASSIGNMENTS      1  1  1  1  1  1  1  1  1  1  1  1  1  1  1  1  1  1  1  1
TYPE ASSIGNMENTS      1  1  1  1  1  1  1  1  1  1  1  1  1  1  1  1  1  1  1  1
TYPE ASSIGNMENTS      1  1  2  2  2  2  2  2  2  3  3  3  3  3  3  3  4  4  4  4
TYPE ASSIGNMENTS      4  4  4  2  2  2  2  2  2  2  3  3  3  3  3  3  3  4  4  4
TYPE ASSIGNMENTS      4  4  4  4  2  3  4  2  3  4  2  3  4  5  6  7  8  9 10  5
TYPE ASSIGNMENTS      6  7  8  9 10  5  6  7  8  9 10 11 12 13 17 14 15 18 19 16
TYPE ASSIGNMENTS     20 11 12 13 17 14 15 18 19 16 20
EXPONENTS  0.8236000D+04 0.1235000D+04 0.2808000D+03 0.7927000D+02 0.2559000D+02
EXPONENTS  0.8997000D+01 0.3319000D+01 0.3643000D+00 0.8236000D+04 0.1235000D+04
EXPONENTS  0.2808000D+03 0.7927000D+02 0.2559000D+02 0.8997000D+01 0.3319000D+01
EXPONENTS  0.3643000D+00 0.9059000D+00 0.1285000D+00 0.4402000D-01 0.1871000D+02
EXPONENTS  0.4133000D+01 0.1200000D+01 0.1871000D+02 0.4133000D+01 0.1200000D+01
EXPONENTS  0.1871000D+02 0.4133000D+01 0.1200000D+01 0.3827000D+00 0.3827000D+00
EXPONENTS  0.3827000D+00 0.1209000D+00 0.1209000D+00 0.1209000D+00 0.3569000D-01
EXPONENTS  0.3569000D-01 0.3569000D-01 0.1097000D+01 0.1097000D+01 0.1097000D+01
EXPONENTS  0.1097000D+01 0.1097000D+01 0.1097000D+01 0.3180000D+00 0.3180000D+00
EXPONENTS  0.3180000D+00 0.3180000D+00 0.3180000D+00 0.3180000D+00 0.1000000D+00
EXPONENTS  0.1000000D+00 0.1000000D+00 0.1000000D+00 0.1000000D+00 0.1000000D+00
EXPONENTS  0.7610000D+00 0.7610000D+00 0.7610000D+00 0.7610000D+00 0.7610000D+00
EXPONENTS  0.7610000D+00 0.7610000D+00 0.7610000D+00 0.7610000D+00 0.7610000D+00
EXPONENTS  0.2680000D+00 0.2680000D+00 0.2680000D+00 0.2680000D+00 0.2680000D+00
EXPONENTS  0.2680000D+00 0.2680000D+00 0.2680000D+00 0.2680000D+00 0.2680000D+00
EXPONENTS  0.1950000D+05 0.2923000D+04 0.6645000D+03 0.1875000D+03 0.6062000D+02
EXPONENTS  0.2142000D+02 0.7950000D+01 0.8815000D+00 0.1950000D+05 0.2923000D+04
EXPONENTS  0.6645000D+03 0.1875000D+03 0.6062000D+02 0.2142000D+02 0.7950000D+01
EXPONENTS  0.8815000D+00 0.2257000D+01 0.3041000D+00 0.9158000D-01 0.4388000D+02
EXPONENTS  0.9926000D+01 0.2930000D+01 0.4388000D+02 0.9926000D+01 0.2930000D+01
EXPONENTS  0.4388000D+02 0.9926000D+01 0.2930000D+01 0.9132000D+00 0.9132000D+00
EXPONENTS  0.9132000D+00 0.2672000D+00 0.2672000D+00 0.2672000D+00 0.7361000D-01
EXPONENTS  0.7361000D-01 0.7361000D-01 0.3107000D+01 0.3107000D+01 0.3107000D+01
EXPONENTS  0.3107000D+01 0.3107000D+01 0.3107000D+01 0.8550000D+00 0.8550000D+00
EXPONENTS  0.8550000D+00 0.8550000D+00 0.8550000D+00 0.8550000D+00 0.2920000D+00
EXPONENTS  0.2920000D+00 0.2920000D+00 0.2920000D+00 0.2920000D+00 0.2920000D+00
EXPONENTS  0.1917000D+01 0.1917000D+01 0.1917000D+01 0.1917000D+01 0.1917000D+01
EXPONENTS  0.1917000D+01 0.1917000D+01 0.1917000D+01 0.1917000D+01 0.1917000D+01
EXPONENTS  0.7240000D+00 0.7240000D+00 0.7240000D+00 0.7240000D+00 0.7240000D+00
EXPONENTS  0.7240000D+00 0.7240000D+00 0.7240000D+00 0.7240000D+00 0.7240000D+00
EXPONENTS  0.1950000D+05 0.2923000D+04 0.6645000D+03 0.1875000D+03 0.6062000D+02
EXPONENTS  0.2142000D+02 0.7950000D+01 0.8815000D+00 0.1950000D+05 0.2923000D+04
EXPONENTS  0.6645000D+03 0.1875000D+03 0.6062000D+02 0.2142000D+02 0.7950000D+01
EXPONENTS  0.8815000D+00 0.2257000D+01 0.3041000D+00 0.9158000D-01 0.4388000D+02
EXPONENTS  0.9926000D+01 0.2930000D+01 0.4388000D+02 0.9926000D+01 0.2930000D+01
EXPONENTS  0.4388000D+02 0.9926000D+01 0.2930000D+01 0.9132000D+00 0.9132000D+00
EXPONENTS  0.9132000D+00 0.2672000D+00 0.2672000D+00 0.2672000D+00 0.7361000D-01
EXPONENTS  0.7361000D-01 0.7361000D-01 0.3107000D+01 0.3107000D+01 0.3107000D+01
EXPONENTS  0.3107000D+01 0.3107000D+01 0.3107000D+01 0.8550000D+00 0.8550000D+00
EXPONENTS  0.8550000D+00 0.8550000D+00 0.8550000D+00 0.8550000D+00 0.2920000D+00
EXPONENTS  0.2920000D+00 0.2920000D+00 0.2920000D+00 0.2920000D+00 0.2920000D+00
EXPONENTS  0.1917000D+01 0.1917000D+01 0.1917000D+01 0.1917000D+01 0.1917000D+01
EXPONENTS  0.1917000D+01 0.1917000D+01 0.1917000D+01 0.1917000D+01 0.1917000D+01
EXPONENTS  0.7240000D+00 0.7240000D+00 0.7240000D+00 0.7240000D+00 0.7240000D+00
EXPONENTS  0.7240000D+00 0.7240000D+00 0.7240000D+00 0.7240000D+00 0.7240000D+00
EXPONENTS  0.1950000D+05 0.2923000D+04 0.6645000D+03 0.1875000D+03 0.6062000D+02
EXPONENTS  0.2142000D+02 0.7950000D+01 0.8815000D+00 0.1950000D+05 0.2923000D+04
EXPONENTS  0.6645000D+03 0.1875000D+03 0.6062000D+02 0.2142000D+02 0.7950000D+01
EXPONENTS  0.8815000D+00 0.2257000D+01 0.3041000D+00 0.9158000D-01 0.4388000D+02
EXPONENTS  0.9926000D+01 0.2930000D+01 0.4388000D+02 0.9926000D+01 0.2930000D+01
EXPONENTS  0.4388000D+02 0.9926000D+01 0.2930000D+01 0.9132000D+00 0.9132000D+00
EXPONENTS  0.9132000D+00 0.2672000D+00 0.2672000D+00 0.2672000D+00 0.7361000D-01
EXPONENTS  0.7361000D-01 0.7361000D-01 0.3107000D+01 0.3107000D+01 0.3107000D+01
EXPONENTS  0.3107000D+01 0.3107000D+01 0.3107000D+01 0.8550000D+00 0.8550000D+00
EXPONENTS  0.8550000D+00 0.8550000D+00 0.8550000D+00 0.8550000D+00 0.2920000D+00
EXPONENTS  0.2920000D+00 0.2920000D+00 0.2920000D+00 0.2920000D+00 0.2920000D+00
EXPONENTS  0.1917000D+01 0.1917000D+01 0.1917000D+01 0.1917000D+01 0.1917000D+01
EXPONENTS  0.1917000D+01 0.1917000D+01 0.1917000D+01 0.1917000D+01 0.1917000D+01
EXPONENTS  0.7240000D+00 0.7240000D+00 0.7240000D+00 0.7240000D+00 0.7240000D+00
EXPONENTS  0.7240000D+00 0.7240000D+00 0.7240000D+00 0.7240000D+00 0.7240000D+00
EXPONENTS  0.4561000D+06 0.6833000D+05 0.1555000D+05 0.4405000D+04 0.1439000D+04
EXPONENTS  0.5204000D+03 0.2031000D+03 0.8396000D+02 0.3620000D+02 0.1583000D+02
EXPONENTS  0.6334000D+01 0.2694000D+01 0.4313000D+00 0.4561000D+06 0.6833000D+05
EXPONENTS  0.1555000D+05 0.4405000D+04 0.1439000D+04 0.5204000D+03 0.2031000D+03
EXPONENTS  0.8396000D+02 0.3620000D+02 0.1583000D+02 0.6334000D+01 0.2694000D+01
EXPONENTS  0.4313000D+00 0.4561000D+06 0.6833000D+05 0.1555000D+05 0.4405000D+04
EXPONENTS  0.1439000D+04 0.5204000D+03 0.2031000D+03 0.8396000D+02 0.3620000D+02
EXPONENTS  0.1583000D+02 0.6334000D+01 0.2694000D+01 0.4313000D+00 0.9768000D+00
EXPONENTS  0.1625000D+00 0.5910000D-01 0.6633000D+03 0.1568000D+03 0.4998000D+02
EXPONENTS  0.1842000D+02 0.7240000D+01 0.2922000D+01 0.3818000D+00 0.6633000D+03
EXPONENTS  0.1568000D+03 0.4998000D+02 0.1842000D+02 0.7240000D+01 0.2922000D+01
EXPONENTS  0.3818000D+00 0.6633000D+03 0.1568000D+03 0.4998000D+02 0.1842000D+02
EXPONENTS  0.7240000D+01 0.2922000D+01 0.3818000D+00 0.6633000D+03 0.1568000D+03
EXPONENTS  0.4998000D+02 0.1842000D+02 0.7240000D+01 0.2922000D+01 0.3818000D+00
EXPONENTS  0.6633000D+03 0.1568000D+03 0.4998000D+02 0.1842000D+02 0.7240000D+01
EXPONENTS  0.2922000D+01 0.3818000D+00 0.6633000D+03 0.1568000D+03 0.4998000D+02
EXPONENTS  0.1842000D+02 0.7240000D+01 0.2922000D+01 0.3818000D+00 0.1022000D+01
EXPONENTS  0.1022000D+01 0.1022000D+01 0.1301000D+00 0.1301000D+00 0.1301000D+00
EXPONENTS  0.4190000D-01 0.4190000D-01 0.4190000D-01 0.1046000D+01 0.1046000D+01
EXPONENTS  0.1046000D+01 0.1046000D+01 0.1046000D+01 0.1046000D+01 0.3440000D+00
EXPONENTS  0.3440000D+00 0.3440000D+00 0.3440000D+00 0.3440000D+00 0.3440000D+00
EXPONENTS  0.1350000D+00 0.1350000D+00 0.1350000D+00 0.1350000D+00 0.1350000D+00
EXPONENTS  0.1350000D+00 0.7060000D+00 0.7060000D+00 0.7060000D+00 0.7060000D+00
EXPONENTS  0.7060000D+00 0.7060000D+00 0.7060000D+00 0.7060000D+00 0.7060000D+00
EXPONENTS  0.7060000D+00 0.3120000D+00 0.3120000D+00 0.3120000D+00 0.3120000D+00
EXPONENTS  0.3120000D+00 0.3120000D+00 0.3120000D+00 0.3120000D+00 0.3120000D+00
EXPONENTS  0.3120000D+00
MO    1     MO 0.0        OCC NO =    2.0000000  ORB. ENERGY = -101.248872
  0.38347660D-04  0.71488757D-04  0.12082859D-03  0.18164496D-03  0.22317181D-03
  0.18850427D-03  0.71096877D-04 -0.35186241D-06 -0.27535181D-04 -0.51554547D-04
 -0.87776027D-04 -0.13577617D-03 -0.17881244D-03 -0.18579757D-03 -0.11806602D-03
  0.79125099D-04 -0.38798459D-04  0.17940921D-02  0.22663547D-03 -0.98264878D-04
 -0.92129570D-04 -0.65601742D-04 -0.20575522D-04 -0.19290860D-04 -0.13736241D-04
  0.59591721D-07  0.55871026D-07  0.39783499D-07 -0.15918131D-03 -0.32708916D-04
 -0.25715586D-06 -0.94633114D-03 -0.19736261D-03 -0.12037291D-05 -0.15454705D-04
 -0.32220293D-05 -0.12264388D-07  0.30870001D-03 -0.14424417D-03 -0.16445584D-03
  0.19755327D-03  0.70703318D-06  0.60424371D-06 -0.39229658D-03  0.18320626D-03
  0.20909033D-03 -0.25054311D-03 -0.11650131D-05 -0.78773761D-06  0.46489006D-04
 -0.21676556D-04 -0.24812450D-04  0.29590138D-04  0.19031143D-06 -0.17667254D-07
  0.57182470D-04 -0.21992676D-04  0.52384979D-04 -0.73547004D-04  0.74824011D-04
 -0.60292308D-05 -0.98000406D-04 -0.88459836D-05 -0.15112571D-03  0.63304655D-04
  0.65431091D-04 -0.26052208D-04  0.73115615D-04 -0.83219168D-04  0.85685137D-04
 -0.86666682D-05 -0.11307411D-03 -0.75285144D-05 -0.21068018D-03  0.87035381D-04
 -0.10882151D-04 -0.20284802D-04 -0.34387726D-04 -0.52073152D-04 -0.65117659D-04
 -0.56060239D-04 -0.21551602D-04  0.93386621D-07  0.65077907D-05  0.12220478D-04
  0.20809367D-04  0.32597750D-04  0.43684820D-04  0.46988914D-04  0.28212082D-04
 -0.18553452D-04  0.25119561D-04 -0.33814405D-03  0.83098957D-04 -0.43439017D-04
 -0.42482410D-04 -0.28069924D-04 -0.12408186D-04 -0.12134935D-04 -0.80180644D-05
 -0.11342956D-03 -0.11093163D-03 -0.73297219D-04  0.16191112D-04  0.72171874D-05
  0.13954383D-03  0.45144950D-03  0.95586787D-04  0.20610279D-04 -0.96239302D-05
 -0.21976482D-05 -0.88122467D-05  0.23119165D-03 -0.12063088D-04 -0.21912856D-03
  0.11616460D-03  0.36006980D-03  0.66873391D-04 -0.94662764D-04  0.15260446D-04
  0.79402318D-04 -0.53534343D-04 -0.19986953D-03 -0.39549603D-04 -0.87196449D-04
  0.58209949D-04  0.28986500D-04 -0.67671281D-04 -0.15337065D-03 -0.34174691D-04
  0.52965371D-04 -0.11961783D-04  0.13230019D-04 -0.97645158D-04  0.68181526D-04
 -0.41559038D-03 -0.61250956D-04 -0.32296178D-04  0.37590032D-03 -0.34288385D-03
 -0.17085012D-04 -0.49533389D-05 -0.30166909D-04 -0.46836725D-05 -0.20372153D-05
  0.22052751D-03  0.55938709D-04  0.16897232D-04 -0.13002678D-03  0.15651912D-03
 -0.11170373D-04 -0.20822060D-04 -0.35298510D-04 -0.53452348D-04 -0.66842349D-04
 -0.57545036D-04 -0.22122413D-04  0.95860035D-07  0.66960006D-05  0.12573903D-04
  0.21411189D-04  0.33540500D-04  0.44948216D-04  0.48347867D-04  0.29027996D-04
 -0.19090031D-04  0.25341291D-04 -0.33911911D-03  0.82749531D-04 -0.64979417D-04
 -0.63548450D-04 -0.41989148D-04  0.88224488D-04  0.86281622D-04  0.57009916D-04
  0.55166268D-04  0.53951405D-04  0.35647974D-04  0.42695840D-04 -0.11651912D-03
 -0.67648980D-04  0.45487459D-03  0.76814646D-04 -0.10344744D-04 -0.11229972D-04
  0.55330060D-05  0.41674219D-05  0.29076917D-03 -0.22156393D-03 -0.69205239D-04
 -0.12603020D-03 -0.13826010D-03 -0.19536333D-03 -0.12959779D-03  0.95061439D-04
  0.34536354D-04  0.96878800D-04  0.85769291D-04  0.67423617D-04 -0.11642348D-03
  0.59465831D-04  0.56957653D-04  0.73352775D-04  0.79848872D-04 -0.14889370D-04
 -0.23280231D-04 -0.84449432D-04 -0.15349385D-03  0.14490204D-03  0.39021109D-03
  0.20974844D-03 -0.75061346D-04 -0.13686279D-03  0.25073310D-03  0.24891433D-04
  0.26077110D-04  0.46626972D-04  0.57478643D-04 -0.73710784D-04 -0.19786611D-03
 -0.12240643D-03 -0.45205444D-05  0.57985197D-04 -0.50029500D-04  0.28555485D-04
 -0.11363387D-04 -0.21181845D-04 -0.35908435D-04 -0.54375953D-04 -0.67997321D-04
 -0.58539359D-04 -0.22504667D-04  0.97516405D-07  0.68207014D-05  0.12808069D-04
  0.21809933D-04  0.34165131D-04  0.45785295D-04  0.49248258D-04  0.29568590D-04
 -0.19445549D-04  0.25512069D-04 -0.33990891D-03  0.82799099D-04 -0.25070919D-04
 -0.24518811D-04 -0.16200615D-04 -0.10475916D-03 -0.10245217D-03 -0.67694479D-04
  0.59491193D-04  0.58181088D-04  0.38442704D-04 -0.65311557D-05  0.12117914D-03
 -0.73224277D-04  0.44700696D-03  0.11189407D-03 -0.10781914D-04 -0.80756278D-05
 -0.93395828D-05  0.45517215D-05  0.16508358D-03 -0.87180786D-04 -0.77902797D-04
  0.45025232D-03 -0.22108924D-03  0.13043555D-03 -0.59399517D-04  0.22073225D-04
  0.37326293D-04 -0.22533950D-03  0.11420363D-03 -0.28781797D-04 -0.61879210D-04
  0.63316463D-05  0.55547564D-04 -0.17563597D-03  0.72948143D-04  0.48605192D-04
  0.12676995D-03  0.65430233D-04 -0.15766991D-03 -0.26748645D-03 -0.24807599D-03
  0.24175338D-03 -0.11282341D-03  0.51785291D-04  0.23125635D-03 -0.39912821D-04
 -0.53220523D-04 -0.33148045D-04  0.59810430D-04  0.14072069D-03  0.14053652D-03
 -0.10855827D-03  0.18940874D-04 -0.41092386D-04 -0.70873021D-04 -0.80091984D-04
  0.61752087D+00  0.11553839D+01  0.19962475D+01  0.32361500D+01  0.49143519D+01
  0.68303712D+01  0.81203260D+01  0.72329618D+01  0.35906588D+01  0.57851267D+00
  0.88817104D-02  0.15871529D-02  0.59309429D-04 -0.15478816D-02 -0.28912207D-02
 -0.50178537D-02 -0.81419373D-02 -0.12602752D-01 -0.18039694D-01 -0.23547436D-01
 -0.25093723D-01 -0.18758067D-01 -0.99020504D-03  0.12723643D-01  0.75593059D-02
 -0.28341730D-04  0.62954932D-03  0.11749631D-02  0.20419824D-02  0.33094528D-02
  0.51400984D-02  0.73633393D-02  0.97226034D-02  0.10513018D-01  0.82423426D-02
  0.41013624D-03 -0.70657716D-02 -0.73143834D-02  0.33098620D-02 -0.37617779D-02
 -0.21362231D-02 -0.60632601D-03  0.88878830D-02  0.11707337D-01  0.12915935D-01
  0.10728169D-01  0.56979909D-02  0.14696781D-02 -0.15107791D-05  0.18494787D-02
  0.24361785D-02  0.26876756D-02  0.22324235D-02  0.11856944D-02  0.30582517D-03
 -0.31437787D-06  0.15772116D-04  0.20775416D-04  0.22920151D-04  0.19037820D-04
  0.10111449D-04  0.26080375D-05 -0.26809739D-08 -0.77160857D-02 -0.10130655D-01
 -0.11534496D-01 -0.97669374D-02 -0.55948778D-02 -0.12726406D-02  0.59566583D-03
 -0.16057626D-02 -0.21082485D-02 -0.24003960D-02 -0.20325568D-02 -0.11643268D-02
 -0.26484395D-03  0.12396154D-03 -0.13501156D-04 -0.17726028D-04 -0.20182387D-04
 -0.17089616D-04 -0.97895901D-05 -0.22267921D-05  0.10422613D-05 -0.24113126D-03
 -0.50161229D-04 -0.52745303D-06 -0.91161101D-03 -0.18982622D-03 -0.11887898D-05
 -0.26885895D-04 -0.55967777D-05 -0.37731427D-07  0.27114909D-03 -0.12672244D-03
 -0.14442666D-03  0.17318329D-03  0.10667872D-05  0.57097744D-06  0.20126622D-04
 -0.93094203D-05 -0.10817201D-04  0.12746740D-04  0.29310499D-06 -0.18620442D-06
 -0.10608043D-03  0.49509242D-04  0.56571188D-04 -0.67716681D-04 -0.44427001D-06
 -0.84670179D-07  0.10746921D-03 -0.34236964D-04 -0.92520225D-05 -0.14292501D-03
  0.14202311D-03  0.22127991D-05 -0.17948262D-03 -0.39312222D-04  0.25543269D-04
 -0.10285638D-04 -0.25754445D-04  0.83959300D-05 -0.42135724D-06  0.34182910D-04
 -0.34050834D-04 -0.13069342D-06  0.43080425D-04  0.88630439D-05  0.13947652D-05
 -0.82759165D-06
MO    2     MO 0.0        OCC NO =    2.0000000  ORB. ENERGY =  -24.547612
  0.24574514D-03  0.45812482D-03  0.77431165D-03  0.11640440D-02  0.14301626D-02
  0.12080009D-02  0.45561351D-03 -0.22548567D-05 -0.17213322D-03 -0.32228769D-03
 -0.54872237D-03 -0.84879007D-03 -0.11178267D-02 -0.11614935D-02 -0.73807698D-03
  0.49464203D-03 -0.28380892D-03  0.98639801D-03  0.90753805D-04 -0.20156626D-03
 -0.18898118D-03 -0.13456586D-03  0.35930212D-03  0.33686857D-03  0.23987049D-03
  0.21703650D-03  0.20348552D-03  0.14489381D-03  0.74020471D-03 -0.14582907D-02
 -0.87132224D-03  0.42816412D-04 -0.18955066D-03 -0.10765699D-03 -0.31172093D-05
  0.16496283D-05  0.12332997D-05 -0.51877011D-04  0.29211286D-03 -0.24023585D-03
 -0.11353733D-02 -0.72273708D-03  0.10249996D-02  0.35514125D-04  0.84692932D-04
 -0.12020706D-03 -0.49637378D-03 -0.33076647D-03  0.40824355D-03  0.30705091D-05
 -0.89292913D-06 -0.21775799D-05 -0.11077355D-04 -0.74867827D-05  0.41923067D-05
 -0.11681210D-03  0.19692187D-04  0.68110923D-04  0.35229616D-03 -0.32534121D-04
 -0.17010941D-04 -0.18598538D-05 -0.26542440D-04 -0.18732183D-03  0.61227968D-03
 -0.21984573D-04  0.81265087D-05  0.11433926D-04  0.43461366D-04 -0.30809507D-04
 -0.80278360D-05  0.22492354D-04  0.64299812D-05 -0.26273941D-04  0.55066318D-04
 -0.35301042D-02 -0.65802671D-02 -0.11155170D-01 -0.16892216D-01 -0.21123775D-01
 -0.18185603D-01 -0.69912096D-02  0.30294056D-04  0.12547874D-04  0.23562686D-04
  0.40123190D-04  0.62852739D-04  0.84230065D-04  0.90600792D-04  0.54396596D-04
 -0.35773490D-04 -0.39695304D-03  0.90344498D-04  0.94416202D-04  0.64374452D-04
  0.62956808D-04  0.41598225D-04 -0.14668232D-04 -0.14345211D-04 -0.94784874D-05
  0.11352226D-03  0.11102229D-03  0.73357121D-04 -0.19638901D-04 -0.46290107D-05
 -0.54283249D-04 -0.60220205D-04 -0.25198860D-04 -0.18334389D-03 -0.10815809D-05
 -0.99041141D-05 -0.20081528D-04 -0.42870484D-04  0.76911910D-04 -0.34041425D-04
 -0.70258609D-04 -0.32171115D-03  0.37138145D-03  0.47322597D-05 -0.35396059D-04
  0.30663800D-04  0.23029955D-04  0.13540325D-03 -0.12565553D-03 -0.20894744D-04
 -0.43741574D-04  0.64636318D-04  0.22836393D-04  0.64440340D-04  0.32479229D-04
 -0.89376938D-04  0.47247113D-04  0.85968039D-04 -0.91797011D-04  0.14275276D-03
  0.10336040D-03  0.35992782D-03 -0.28449410D-03 -0.36126452D-03  0.28609628D-03
  0.44905224D-04 -0.18771446D-04 -0.42043179D-04  0.42637173D-04 -0.48413895D-04
 -0.37664810D-04 -0.17735285D-03  0.10472823D-03  0.16379435D-03 -0.10286429D-03
  0.59434178D+00  0.11078788D+01  0.18781270D+01  0.28440377D+01  0.35564792D+01
  0.30617973D+01  0.11770667D+01 -0.51004225D-02  0.19639272D-03  0.36879075D-03
  0.62798705D-03  0.98373800D-03  0.13183246D-02  0.14180359D-02  0.85138690D-03
 -0.55990784D-03  0.64373244D-01 -0.10644169D-02 -0.67253356D-03 -0.36371743D-02
 -0.35570770D-02 -0.23503112D-02  0.53434151D-02  0.52257432D-02  0.34528695D-02
  0.32704654D-02  0.31984438D-02  0.21133470D-02  0.67623148D-03 -0.99234805D-03
 -0.60711213D-03  0.54752529D-03 -0.88838741D-03 -0.53663775D-03  0.35293201D-04
 -0.57436257D-04 -0.34697311D-04 -0.17109405D-03  0.26165034D-03 -0.90556283D-04
 -0.54968335D-03 -0.31791769D-03  0.62955645D-03  0.12323603D-03 -0.28393485D-03
  0.16069883D-03  0.93291479D-03  0.56593147D-03 -0.85855031D-03  0.47641051D-04
 -0.90143471D-04  0.42502420D-04  0.27874526D-03  0.16561617D-03 -0.25649837D-03
  0.15444317D-03 -0.15819352D-04 -0.11877017D-03 -0.46388931D-03  0.17390246D-04
  0.14956979D-04  0.55978890D-06  0.30067809D-04  0.34135353D-03 -0.82723141D-03
 -0.16158799D-03  0.30780305D-04  0.14615771D-03  0.48023572D-03 -0.76315293D-04
 -0.46553445D-04  0.45282523D-05 -0.16025622D-04 -0.39191969D-03  0.89593769D-03
 -0.67086044D-03 -0.12505129D-02 -0.21199268D-02 -0.32101940D-02 -0.40143589D-02
 -0.34559891D-02 -0.13286084D-02  0.57570775D-05  0.13406510D-04  0.25175051D-04
  0.42868771D-04  0.67153676D-04  0.89993826D-04  0.96800493D-04  0.58118889D-04
 -0.38221427D-04 -0.87064551D-04  0.84694018D-04  0.90708514D-04  0.36551668D-04
  0.35746733D-04  0.23619378D-04  0.59798995D-04  0.58482111D-04  0.38641603D-04
 -0.67458120D-04 -0.65972568D-04 -0.43590865D-04 -0.93962824D-05 -0.42623158D-04
  0.25611925D-04 -0.29330663D-04 -0.16494592D-03  0.86209948D-04  0.15178247D-05
 -0.21827931D-04  0.25954217D-05 -0.16172416D-05  0.14821211D-03 -0.14659487D-03
 -0.29177254D-03  0.53718911D-04  0.30199846D-03 -0.11355676D-04 -0.40334336D-04
  0.51690012D-04  0.10971222D-03 -0.25702277D-04 -0.12852548D-03 -0.27166478D-04
  0.49957264D-04 -0.22790786D-04  0.36190032D-04 -0.78298412D-05 -0.96111490D-04
 -0.83326865D-04 -0.11248267D-03  0.92220167D-04  0.34478007D-03  0.34985194D-04
  0.97919131D-04 -0.94799479D-04  0.30246283D-03 -0.37457963D-03 -0.16395932D-03
  0.40821729D-04  0.41461694D-04 -0.42440484D-04 -0.14601120D-03  0.33599125D-05
 -0.45905646D-04  0.23546015D-04 -0.12774500D-03  0.17322710D-03  0.94683263D-04
  0.98876809D-05  0.18499889D-04  0.31963710D-04  0.51816901D-04  0.78688098D-04
  0.10936720D-03  0.13002183D-03  0.11581344D-03  0.57493261D-04  0.92630855D-05
  0.14221304D-06  0.25413330D-07  0.94965649D-09 -0.17496724D-04 -0.32681367D-04
 -0.56720098D-04 -0.92033668D-04 -0.14245719D-03 -0.20391452D-03 -0.26617215D-03
 -0.28365084D-03 -0.21203476D-03 -0.11192938D-04  0.14382370D-03  0.85447803D-04
 -0.32036520D-06  0.94253135D-05  0.17590990D-04  0.30571592D-04  0.49547557D-04
  0.76955113D-04  0.11024042D-03  0.14556220D-03  0.15739592D-03  0.12340044D-03
  0.61403651D-05 -0.10578538D-03 -0.10950748D-03  0.49553682D-04 -0.14526668D-04
 -0.18372711D-03 -0.72468564D-04 -0.94238602D-03 -0.12413339D-02 -0.13694821D-02
 -0.11375123D-02 -0.60416041D-03 -0.15583059D-03  0.16018855D-06 -0.19394163D-03
 -0.25546465D-03 -0.28183736D-03 -0.23409832D-03 -0.12433530D-03 -0.32069702D-04
  0.32966563D-07 -0.19789813D-05 -0.26067624D-05 -0.28758697D-05 -0.23887403D-05
 -0.12687180D-05 -0.32723938D-06  0.33639096D-09  0.83192172D-03  0.10922522D-02
  0.12436095D-02  0.10530375D-02  0.60322041D-03  0.13721171D-03 -0.64222634D-04
  0.18535073D-03  0.24335192D-03  0.27707407D-03  0.23461494D-03  0.13439647D-03
  0.30570535D-04 -0.14308693D-04  0.93888549D-05  0.12326878D-04  0.14035058D-04
  0.11884310D-04  0.68077906D-05  0.15485362D-05 -0.72480015D-06  0.45120428D-04
  0.51592384D-05 -0.21131924D-05 -0.83978226D-04 -0.47558502D-04 -0.16301893D-04
 -0.74904310D-06 -0.29902834D-05 -0.15330963D-05  0.59041523D-05  0.56259448D-05
 -0.11530097D-04 -0.22237356D-05 -0.66143890D-05  0.26258734D-04 -0.95960419D-05
 -0.24030214D-05  0.11999063D-04 -0.34786031D-04 -0.13435639D-04 -0.14994034D-04
 -0.66903914D-05  0.33800703D-05  0.33103211D-05 -0.17983203D-04 -0.77557818D-05
  0.34649483D-05 -0.14969479D-04 -0.67578770D-06 -0.29306451D-05  0.22778195D-04
  0.24229658D-05  0.11572150D-04  0.22130241D-04 -0.39560269D-06 -0.27802151D-05
 -0.22919909D-05  0.61672272D-05  0.21293674D-05  0.14626559D-05 -0.14683041D-04
 -0.97895564D-05 -0.77841407D-05 -0.38186403D-05  0.34014543D-05  0.33961729D-05
 -0.11330911D-04
MO    3     MO 0.0        OCC NO =    2.0000000  ORB. ENERGY =  -24.547551
  0.24847046D-03  0.46320542D-03  0.78289876D-03  0.11769533D-02  0.14460231D-02
  0.12213977D-02  0.46066626D-03 -0.22798630D-05 -0.17402881D-03 -0.32583684D-03
 -0.55476511D-03 -0.85813727D-03 -0.11301366D-02 -0.11742843D-02 -0.74620496D-03
  0.50008921D-03 -0.28740313D-03  0.99766900D-03  0.91884124D-04 -0.12130835D-03
 -0.11373429D-03 -0.80985587D-04 -0.33692536D-04 -0.31588894D-04 -0.22493174D-04
 -0.44695238D-03 -0.41904626D-03 -0.29838590D-03  0.41566956D-03  0.11982023D-03
  0.17929289D-02  0.21730353D-05  0.46902432D-05  0.22050497D-03 -0.26817748D-05
 -0.60258102D-06 -0.25548158D-05 -0.28295874D-03 -0.53129837D-03  0.81425711D-03
  0.12819789D-03  0.98718444D-03  0.28230113D-03 -0.72215233D-04 -0.23580952D-03
  0.30802475D-03  0.81299391D-04  0.47805049D-03  0.13104932D-03  0.47218463D-06
 -0.34672791D-05  0.29950945D-05  0.19773820D-05  0.13027185D-04  0.31037035D-05
 -0.10107965D-03 -0.33799328D-04  0.14452711D-03 -0.12846126D-03 -0.11320771D-04
 -0.21021603D-03  0.43170020D-03  0.11271876D-03 -0.22336528D-03  0.41214858D-04
 -0.23011726D-04  0.13956266D-05  0.13419248D-04  0.77091595D-05 -0.19457986D-04
 -0.68893604D-05  0.61326019D-04  0.15271106D-04 -0.33368383D-04  0.14685706D-04
  0.59434118D+00  0.11078777D+01  0.18781251D+01  0.28440349D+01  0.35564756D+01
  0.30617942D+01  0.11770655D+01 -0.51004174D-02  0.19670620D-03  0.36937941D-03
  0.62898943D-03  0.98530822D-03  0.13204289D-02  0.14202993D-02  0.85274586D-03
 -0.56080155D-03  0.64373103D-01 -0.10635887D-02 -0.67141356D-03 -0.23830578D-02
 -0.23305785D-02 -0.15399117D-02 -0.66991937D-03 -0.65516651D-03 -0.43289621D-03
 -0.68062888D-02 -0.66564018D-02 -0.43981661D-02  0.44344021D-03  0.12433505D-03
  0.12642144D-02  0.34074964D-03  0.99016061D-04  0.11164391D-02  0.21918367D-04
  0.62745243D-05  0.72056523D-04 -0.26860433D-03 -0.26918591D-03  0.53779024D-03
  0.12994269D-04  0.35482365D-03  0.11277111D-03  0.30242476D-03  0.41136103D-03
 -0.71378579D-03 -0.68677541D-04 -0.75919029D-03 -0.21573184D-03  0.99527364D-04
  0.11764707D-03 -0.21717443D-03 -0.13998348D-04 -0.21950001D-03 -0.62600976D-04
  0.12579790D-03  0.45661061D-04 -0.22560160D-03  0.16550226D-03  0.15148007D-04
  0.30377647D-03 -0.54289596D-03 -0.15213119D-03  0.37302833D-03 -0.71040291D-04
 -0.14340313D-03 -0.48471930D-04  0.23725421D-03 -0.17156203D-03 -0.22088485D-04
 -0.26520051D-03  0.60177143D-03  0.16750427D-03 -0.44656212D-03  0.12239405D-03
  0.34913816D-02  0.65080865D-02  0.11032807D-01  0.16706921D-01  0.20892063D-01
  0.17986120D-01  0.69145212D-02 -0.29961752D-04  0.14840455D-04  0.27867746D-04
  0.47453965D-04  0.74336356D-04  0.99619462D-04  0.10715416D-03  0.64335219D-04
 -0.42309547D-04  0.36350470D-03  0.78035836D-04  0.86453365D-04  0.39014846D-04
  0.38155667D-04  0.25211063D-04 -0.35840406D-04 -0.35051134D-04 -0.23159766D-04
  0.11024593D-04  0.10781811D-04  0.71239983D-05 -0.21644536D-04  0.31264767D-04
  0.18192292D-04 -0.88458728D-04  0.13049763D-03  0.88995720D-04 -0.53676411D-05
  0.11911461D-04  0.17222215D-04 -0.10022823D-03 -0.13416559D-03  0.23439382D-03
  0.23395268D-03  0.86823646D-04  0.18076941D-03  0.30475945D-04  0.52760794D-04
 -0.83236739D-04 -0.10183149D-03 -0.39267284D-04 -0.51533526D-04 -0.33140050D-05
  0.19007547D-04 -0.15693542D-04 -0.68944541D-04 -0.60487183D-04  0.88318575D-04
 -0.34187861D-04 -0.68469180D-04  0.15217286D-03  0.17935406D-03 -0.16569093D-03
 -0.27267600D-03 -0.76790479D-04  0.37109847D-03 -0.18384257D-03  0.36640169D-03
  0.21759787D-04  0.22447715D-04 -0.63948339D-04 -0.98011077D-04  0.81301726D-04
  0.10688455D-03  0.32731715D-04 -0.14864487D-03  0.84960466D-04 -0.16953910D-03
 -0.83124722D-03 -0.15494808D-02 -0.26267510D-02 -0.39776751D-02 -0.49740967D-02
 -0.42822339D-02 -0.16462470D-02  0.71334579D-05  0.13488508D-04  0.25329029D-04
  0.43130969D-04  0.67564407D-04  0.90544254D-04  0.97392554D-04  0.58474361D-04
 -0.38455200D-04 -0.10461423D-03  0.86142226D-04  0.92022193D-04  0.30728723D-04
  0.30052020D-04  0.19856640D-04  0.93754327D-04  0.91689684D-04  0.60583251D-04
 -0.16191892D-04 -0.15835316D-04 -0.10463063D-04 -0.93734315D-05 -0.44701958D-04
  0.24133900D-04 -0.31264968D-04 -0.15959443D-03  0.10002265D-03 -0.39171763D-06
 -0.12867005D-04  0.18122454D-04 -0.20001408D-04 -0.22156114D-03  0.24156255D-03
 -0.12910464D-03  0.15376584D-03 -0.84338945D-04 -0.53211944D-05  0.91160557D-04
 -0.85839363D-04  0.53419363D-04 -0.59125171D-04  0.83260978D-05 -0.25952703D-04
  0.37402961D-04 -0.11450258D-04  0.31732477D-04 -0.22170424D-04 -0.11248511D-03
 -0.59735751D-04  0.11836220D-03  0.16991392D-03  0.96074661D-04 -0.40154450D-04
 -0.12173411D-03  0.83132593D-04 -0.31493215D-03 -0.38800765D-03 -0.31271492D-03