 Molden2AIM, Version 4.0.0 (06/02/2016)           Time: Sat Jun 30 02:26:15 2018
GAUSSIAN             37 MOL ORBITALS    683 PRIMITIVES        9 NUCLEI
  C    1    (CENTRE  1)  -6.47258032 -0.91998482  0.46011619  CHARGE =  6.0
  S    2    (CENTRE  2)  -3.17505547  0.11254075  1.24529550  CHARGE = 16.0
  F    3    (CENTRE  3)  -7.91706618 -0.66918037  2.50447482  CHARGE =  9.0
  F    4    (CENTRE  4)  -6.40552339 -3.32465375 -0.24007270  CHARGE =  9.0
  F    5    (CENTRE  5)  -7.38023656  0.49071274 -1.39816679  CHARGE =  9.0
  O    6    (CENTRE  6)  -1.75946352  0.21713709 -1.11425433  CHARGE =  8.0
  O    7    (CENTRE  7)  -2.38076579 -1.31416090  3.48275769  CHARGE =  8.0
  O    8    (CENTRE  8)  -3.78486442  3.01856347  2.07828867  CHARGE =  8.0
  H    9    (CENTRE  9)  -3.97131614  3.03041773  3.90278145  CHARGE =  1.0
CENTRE ASSIGNMENTS    1  1  1  1  1  1  1  1  1  1  1  1  1  1  1  1  1  1  1  1
CENTRE ASSIGNMENTS    1  1  1  1  1  1  1  1  1  1  1  1  1  1  1  1  1  1  1  1
CENTRE ASSIGNMENTS    1  1  1  1  1  1  1  1  1  1  1  1  1  1  1  1  1  1  1  1
CENTRE ASSIGNMENTS    1  1  1  1  1  1  1  1  1  1  1  1  1  1  1  2  2  2  2  2
CENTRE ASSIGNMENTS    2  2  2  2  2  2  2  2  2  2  2  2  2  2  2  2  2  2  2  2
CENTRE ASSIGNMENTS    2  2  2  2  2  2  2  2  2  2  2  2  2  2  2  2  2  2  2  2
CENTRE ASSIGNMENTS    2  2  2  2  2  2  2  2  2  2  2  2  2  2  2  2  2  2  2  2
CENTRE ASSIGNMENTS    2  2  2  2  2  2  2  2  2  2  2  2  2  2  2  2  2  2  2  2
CENTRE ASSIGNMENTS    2  2  2  2  2  2  2  2  2  2  2  2  2  2  2  2  2  2  2  2
CENTRE ASSIGNMENTS    2  2  2  2  2  2  2  2  2  2  2  2  2  2  2  2  2  2  2  2
CENTRE ASSIGNMENTS    2  2  2  2  2  2  3  3  3  3  3  3  3  3  3  3  3  3  3  3
CENTRE ASSIGNMENTS    3  3  3  3  3  3  3  3  3  3  3  3  3  3  3  3  3  3  3  3
CENTRE ASSIGNMENTS    3  3  3  3  3  3  3  3  3  3  3  3  3  3  3  3  3  3  3  3
CENTRE ASSIGNMENTS    3  3  3  3  3  3  3  3  3  3  3  3  3  3  3  3  3  3  3  3
CENTRE ASSIGNMENTS    3  4  4  4  4  4  4  4  4  4  4  4  4  4  4  4  4  4  4  4
CENTRE ASSIGNMENTS    4  4  4  4  4  4  4  4  4  4  4  4  4  4  4  4  4  4  4  4
CENTRE ASSIGNMENTS    4  4  4  4  4  4  4  4  4  4  4  4  4  4  4  4  4  4  4  4
CENTRE ASSIGNMENTS    4  4  4  4  4  4  4  4  4  4  4  4  4  4  4  4  5  5  5  5
CENTRE ASSIGNMENTS    5  5  5  5  5  5  5  5  5  5  5  5  5  5  5  5  5  5  5  5
CENTRE ASSIGNMENTS    5  5  5  5  5  5  5  5  5  5  5  5  5  5  5  5  5  5  5  5
CENTRE ASSIGNMENTS    5  5  5  5  5  5  5  5  5  5  5  5  5  5  5  5  5  5  5  5
CENTRE ASSIGNMENTS    5  5  5  5  5  5  5  5  5  5  5  6  6  6  6  6  6  6  6  6
CENTRE ASSIGNMENTS    6  6  6  6  6  6  6  6  6  6  6  6  6  6  6  6  6  6  6  6
CENTRE ASSIGNMENTS    6  6  6  6  6  6  6  6  6  6  6  6  6  6  6  6  6  6  6  6
CENTRE ASSIGNMENTS    6  6  6  6  6  6  6  6  6  6  6  6  6  6  6  6  6  6  6  6
CENTRE ASSIGNMENTS    6  6  6  6  6  6  7  7  7  7  7  7  7  7  7  7  7  7  7  7
CENTRE ASSIGNMENTS    7  7  7  7  7  7  7  7  7  7  7  7  7  7  7  7  7  7  7  7
CENTRE ASSIGNMENTS    7  7  7  7  7  7  7  7  7  7  7  7  7  7  7  7  7  7  7  7
CENTRE ASSIGNMENTS    7  7  7  7  7  7  7  7  7  7  7  7  7  7  7  7  7  7  7  7
CENTRE ASSIGNMENTS    7  8  8  8  8  8  8  8  8  8  8  8  8  8  8  8  8  8  8  8
CENTRE ASSIGNMENTS    8  8  8  8  8  8  8  8  8  8  8  8  8  8  8  8  8  8  8  8
CENTRE ASSIGNMENTS    8  8  8  8  8  8  8  8  8  8  8  8  8  8  8  8  8  8  8  8
CENTRE ASSIGNMENTS    8  8  8  8  8  8  8  8  8  8  8  8  8  8  8  8  9  9  9  9
CENTRE ASSIGNMENTS    9  9  9  9  9  9  9  9  9  9  9  9  9  9  9  9  9  9  9  9
CENTRE ASSIGNMENTS    9  9  9
TYPE ASSIGNMENTS      1  1  1  1  1  1  1  1  1  1  1  1  1  1  1  1  1  1  1  2
TYPE ASSIGNMENTS      2  2  3  3  3  4  4  4  2  3  4  2  3  4  2  3  4  5  6  7
TYPE ASSIGNMENTS      8  9 10  5  6  7  8  9 10  5  6  7  8  9 10 11 12 13 17 14
TYPE ASSIGNMENTS     15 18 19 16 20 11 12 13 17 14 15 18 19 16 20  1  1  1  1  1
TYPE ASSIGNMENTS      1  1  1  1  1  1  1  1  1  1  1  1  1  1  1  1  1  1  1  1
TYPE ASSIGNMENTS      1  1  1  1  1  1  1  1  1  1  1  1  1  1  1  1  1  2  2  2
TYPE ASSIGNMENTS      2  2  2  2  3  3  3  3  3  3  3  4  4  4  4  4  4  4  2  2
TYPE ASSIGNMENTS      2  2  2  2  2  3  3  3  3  3  3  3  4  4  4  4  4  4  4  2
TYPE ASSIGNMENTS      3  4  2  3  4  2  3  4  5  6  7  8  9 10  5  6  7  8  9 10
TYPE ASSIGNMENTS      5  6  7  8  9 10 11 12 13 17 14 15 18 19 16 20 11 12 13 17
TYPE ASSIGNMENTS     14 15 18 19 16 20  1  1  1  1  1  1  1  1  1  1  1  1  1  1
TYPE ASSIGNMENTS      1  1  1  1  1  2  2  2  3  3  3  4  4  4  2  3  4  2  3  4
TYPE ASSIGNMENTS      2  3  4  5  6  7  8  9 10  5  6  7  8  9 10  5  6  7  8  9
TYPE ASSIGNMENTS     10 11 12 13 17 14 15 18 19 16 20 11 12 13 17 14 15 18 19 16
TYPE ASSIGNMENTS     20  1  1  1  1  1  1  1  1  1  1  1  1  1  1  1  1  1  1  1
TYPE ASSIGNMENTS      2  2  2  3  3  3  4  4  4  2  3  4  2  3  4  2  3  4  5  6
TYPE ASSIGNMENTS      7  8  9 10  5  6  7  8  9 10  5  6  7  8  9 10 11 12 13 17
TYPE ASSIGNMENTS     14 15 18 19 16 20 11 12 13 17 14 15 18 19 16 20  1  1  1  1
TYPE ASSIGNMENTS      1  1  1  1  1  1  1  1  1  1  1  1  1  1  1  2  2  2  3  3
TYPE ASSIGNMENTS      3  4  4  4  2  3  4  2  3  4  2  3  4  5  6  7  8  9 10  5
TYPE ASSIGNMENTS      6  7  8  9 10  5  6  7  8  9 10 11 12 13 17 14 15 18 19 16
TYPE ASSIGNMENTS     20 11 12 13 17 14 15 18 19 16 20  1  1  1  1  1  1  1  1  1
TYPE ASSIGNMENTS      1  1  1  1  1  1  1  1  1  1  2  2  2  3  3  3  4  4  4  2
TYPE ASSIGNMENTS      3  4  2  3  4  2  3  4  5  6  7  8  9 10  5  6  7  8  9 10
TYPE ASSIGNMENTS      5  6  7  8  9 10 11 12 13 17 14 15 18 19 16 20 11 12 13 17
TYPE ASSIGNMENTS     14 15 18 19 16 20  1  1  1  1  1  1  1  1  1  1  1  1  1  1
TYPE ASSIGNMENTS      1  1  1  1  1  2  2  2  3  3  3  4  4  4  2  3  4  2  3  4
TYPE ASSIGNMENTS      2  3  4  5  6  7  8  9 10  5  6  7  8  9 10  5  6  7  8  9
TYPE ASSIGNMENTS     10 11 12 13 17 14 15 18 19 16 20 11 12 13 17 14 15 18 19 16
TYPE ASSIGNMENTS     20  1  1  1  1  1  1  1  1  1  1  1  1  1  1  1  1  1  1  1
TYPE ASSIGNMENTS      2  2  2  3  3  3  4  4  4  2  3  4  2  3  4  2  3  4  5  6
TYPE ASSIGNMENTS      7  8  9 10  5  6  7  8  9 10  5  6  7  8  9 10 11 12 13 17
TYPE ASSIGNMENTS     14 15 18 19 16 20 11 12 13 17 14 15 18 19 16 20  1  1  1  1
TYPE ASSIGNMENTS      1  1  2  3  4  2  3  4  2  3  4  5  6  7  8  9 10  5  6  7
TYPE ASSIGNMENTS      8  9 10
EXPONENTS  0.8236000D+04 0.1235000D+04 0.2808000D+03 0.7927000D+02 0.2559000D+02
EXPONENTS  0.8997000D+01 0.3319000D+01 0.3643000D+00 0.8236000D+04 0.1235000D+04
EXPONENTS  0.2808000D+03 0.7927000D+02 0.2559000D+02 0.8997000D+01 0.3319000D+01
EXPONENTS  0.3643000D+00 0.9059000D+00 0.1285000D+00 0.4402000D-01 0.1871000D+02
EXPONENTS  0.4133000D+01 0.1200000D+01 0.1871000D+02 0.4133000D+01 0.1200000D+01
EXPONENTS  0.1871000D+02 0.4133000D+01 0.1200000D+01 0.3827000D+00 0.3827000D+00
EXPONENTS  0.3827000D+00 0.1209000D+00 0.1209000D+00 0.1209000D+00 0.3569000D-01
EXPONENTS  0.3569000D-01 0.3569000D-01 0.1097000D+01 0.1097000D+01 0.1097000D+01
EXPONENTS  0.1097000D+01 0.1097000D+01 0.1097000D+01 0.3180000D+00 0.3180000D+00
EXPONENTS  0.3180000D+00 0.3180000D+00 0.3180000D+00 0.3180000D+00 0.1000000D+00
EXPONENTS  0.1000000D+00 0.1000000D+00 0.1000000D+00 0.1000000D+00 0.1000000D+00
EXPONENTS  0.7610000D+00 0.7610000D+00 0.7610000D+00 0.7610000D+00 0.7610000D+00
EXPONENTS  0.7610000D+00 0.7610000D+00 0.7610000D+00 0.7610000D+00 0.7610000D+00
EXPONENTS  0.2680000D+00 0.2680000D+00 0.2680000D+00 0.2680000D+00 0.2680000D+00
EXPONENTS  0.2680000D+00 0.2680000D+00 0.2680000D+00 0.2680000D+00 0.2680000D+00
EXPONENTS  0.3741000D+06 0.5605000D+05 0.1276000D+05 0.3615000D+04 0.1183000D+04
EXPONENTS  0.4288000D+03 0.1678000D+03 0.6947000D+02 0.2984000D+02 0.1272000D+02
EXPONENTS  0.5244000D+01 0.2219000D+01 0.3490000D+00 0.3741000D+06 0.5605000D+05
EXPONENTS  0.1276000D+05 0.3615000D+04 0.1183000D+04 0.4288000D+03 0.1678000D+03
EXPONENTS  0.6947000D+02 0.2984000D+02 0.1272000D+02 0.5244000D+01 0.2219000D+01
EXPONENTS  0.3490000D+00 0.3741000D+06 0.5605000D+05 0.1276000D+05 0.3615000D+04
EXPONENTS  0.1183000D+04 0.4288000D+03 0.1678000D+03 0.6947000D+02 0.2984000D+02
EXPONENTS  0.1272000D+02 0.5244000D+01 0.2219000D+01 0.3490000D+00 0.7767000D+00
EXPONENTS  0.1322000D+00 0.4970000D-01 0.5744000D+03 0.1358000D+03 0.4319000D+02
EXPONENTS  0.1587000D+02 0.6208000D+01 0.2483000D+01 0.3229000D+00 0.5744000D+03
EXPONENTS  0.1358000D+03 0.4319000D+02 0.1587000D+02 0.6208000D+01 0.2483000D+01
EXPONENTS  0.3229000D+00 0.5744000D+03 0.1358000D+03 0.4319000D+02 0.1587000D+02
EXPONENTS  0.6208000D+01 0.2483000D+01 0.3229000D+00 0.5744000D+03 0.1358000D+03
EXPONENTS  0.4319000D+02 0.1587000D+02 0.6208000D+01 0.2483000D+01 0.3229000D+00
EXPONENTS  0.5744000D+03 0.1358000D+03 0.4319000D+02 0.1587000D+02 0.6208000D+01
EXPONENTS  0.2483000D+01 0.3229000D+00 0.5744000D+03 0.1358000D+03 0.4319000D+02
EXPONENTS  0.1587000D+02 0.6208000D+01 0.2483000D+01 0.3229000D+00 0.8688000D+00
EXPONENTS  0.8688000D+00 0.8688000D+00 0.1098000D+00 0.1098000D+00 0.1098000D+00
EXPONENTS  0.3510000D-01 0.3510000D-01 0.3510000D-01 0.2690000D+00 0.2690000D+00
EXPONENTS  0.2690000D+00 0.2690000D+00 0.2690000D+00 0.2690000D+00 0.8190000D+00
EXPONENTS  0.8190000D+00 0.8190000D+00 0.8190000D+00 0.8190000D+00 0.8190000D+00
EXPONENTS  0.1010000D+00 0.1010000D+00 0.1010000D+00 0.1010000D+00 0.1010000D+00
EXPONENTS  0.1010000D+00 0.5570000D+00 0.5570000D+00 0.5570000D+00 0.5570000D+00
EXPONENTS  0.5570000D+00 0.5570000D+00 0.5570000D+00 0.5570000D+00 0.5570000D+00
EXPONENTS  0.5570000D+00 0.2180000D+00 0.2180000D+00 0.2180000D+00 0.2180000D+00
EXPONENTS  0.2180000D+00 0.2180000D+00 0.2180000D+00 0.2180000D+00 0.2180000D+00
EXPONENTS  0.2180000D+00 0.1950000D+05 0.2923000D+04 0.6645000D+03 0.1875000D+03
EXPONENTS  0.6062000D+02 0.2142000D+02 0.7950000D+01 0.8815000D+00 0.1950000D+05
EXPONENTS  0.2923000D+04 0.6645000D+03 0.1875000D+03 0.6062000D+02 0.2142000D+02
EXPONENTS  0.7950000D+01 0.8815000D+00 0.2257000D+01 0.3041000D+00 0.9158000D-01
EXPONENTS  0.4388000D+02 0.9926000D+01 0.2930000D+01 0.4388000D+02 0.9926000D+01
EXPONENTS  0.2930000D+01 0.4388000D+02 0.9926000D+01 0.2930000D+01 0.9132000D+00
EXPONENTS  0.9132000D+00 0.9132000D+00 0.2672000D+00 0.2672000D+00 0.2672000D+00
EXPONENTS  0.7361000D-01 0.7361000D-01 0.7361000D-01 0.3107000D+01 0.3107000D+01
EXPONENTS  0.3107000D+01 0.3107000D+01 0.3107000D+01 0.3107000D+01 0.8550000D+00
EXPONENTS  0.8550000D+00 0.8550000D+00 0.8550000D+00 0.8550000D+00 0.8550000D+00
EXPONENTS  0.2920000D+00 0.2920000D+00 0.2920000D+00 0.2920000D+00 0.2920000D+00
EXPONENTS  0.2920000D+00 0.1917000D+01 0.1917000D+01 0.1917000D+01 0.1917000D+01
EXPONENTS  0.1917000D+01 0.1917000D+01 0.1917000D+01 0.1917000D+01 0.1917000D+01
EXPONENTS  0.1917000D+01 0.7240000D+00 0.7240000D+00 0.7240000D+00 0.7240000D+00
EXPONENTS  0.7240000D+00 0.7240000D+00 0.7240000D+00 0.7240000D+00 0.7240000D+00
EXPONENTS  0.7240000D+00 0.1950000D+05 0.2923000D+04 0.6645000D+03 0.1875000D+03
EXPONENTS  0.6062000D+02 0.2142000D+02 0.7950000D+01 0.8815000D+00 0.1950000D+05
EXPONENTS  0.2923000D+04 0.6645000D+03 0.1875000D+03 0.6062000D+02 0.2142000D+02
EXPONENTS  0.7950000D+01 0.8815000D+00 0.2257000D+01 0.3041000D+00 0.9158000D-01
EXPONENTS  0.4388000D+02 0.9926000D+01 0.2930000D+01 0.4388000D+02 0.9926000D+01
EXPONENTS  0.2930000D+01 0.4388000D+02 0.9926000D+01 0.2930000D+01 0.9132000D+00
EXPONENTS  0.9132000D+00 0.9132000D+00 0.2672000D+00 0.2672000D+00 0.2672000D+00
EXPONENTS  0.7361000D-01 0.7361000D-01 0.7361000D-01 0.3107000D+01 0.3107000D+01
EXPONENTS  0.3107000D+01 0.3107000D+01 0.3107000D+01 0.3107000D+01 0.8550000D+00
EXPONENTS  0.8550000D+00 0.8550000D+00 0.8550000D+00 0.8550000D+00 0.8550000D+00
EXPONENTS  0.2920000D+00 0.2920000D+00 0.2920000D+00 0.2920000D+00 0.2920000D+00
EXPONENTS  0.2920000D+00 0.1917000D+01 0.1917000D+01 0.1917000D+01 0.1917000D+01
EXPONENTS  0.1917000D+01 0.1917000D+01 0.1917000D+01 0.1917000D+01 0.1917000D+01
EXPONENTS  0.1917000D+01 0.7240000D+00 0.7240000D+00 0.7240000D+00 0.7240000D+00
EXPONENTS  0.7240000D+00 0.7240000D+00 0.7240000D+00 0.7240000D+00 0.7240000D+00
EXPONENTS  0.7240000D+00 0.1950000D+05 0.2923000D+04 0.6645000D+03 0.1875000D+03
EXPONENTS  0.6062000D+02 0.2142000D+02 0.7950000D+01 0.8815000D+00 0.1950000D+05
EXPONENTS  0.2923000D+04 0.6645000D+03 0.1875000D+03 0.6062000D+02 0.2142000D+02
EXPONENTS  0.7950000D+01 0.8815000D+00 0.2257000D+01 0.3041000D+00 0.9158000D-01
EXPONENTS  0.4388000D+02 0.9926000D+01 0.2930000D+01 0.4388000D+02 0.9926000D+01
EXPONENTS  0.2930000D+01 0.4388000D+02 0.9926000D+01 0.2930000D+01 0.9132000D+00
EXPONENTS  0.9132000D+00 0.9132000D+00 0.2672000D+00 0.2672000D+00 0.2672000D+00
EXPONENTS  0.7361000D-01 0.7361000D-01 0.7361000D-01 0.3107000D+01 0.3107000D+01
EXPONENTS  0.3107000D+01 0.3107000D+01 0.3107000D+01 0.3107000D+01 0.8550000D+00
EXPONENTS  0.8550000D+00 0.8550000D+00 0.8550000D+00 0.8550000D+00 0.8550000D+00
EXPONENTS  0.2920000D+00 0.2920000D+00 0.2920000D+00 0.2920000D+00 0.2920000D+00
EXPONENTS  0.2920000D+00 0.1917000D+01 0.1917000D+01 0.1917000D+01 0.1917000D+01
EXPONENTS  0.1917000D+01 0.1917000D+01 0.1917000D+01 0.1917000D+01 0.1917000D+01
EXPONENTS  0.1917000D+01 0.7240000D+00 0.7240000D+00 0.7240000D+00 0.7240000D+00
EXPONENTS  0.7240000D+00 0.7240000D+00 0.7240000D+00 0.7240000D+00 0.7240000D+00
EXPONENTS  0.7240000D+00 0.1533000D+05 0.2299000D+04 0.5224000D+03 0.1473000D+03
EXPONENTS  0.4755000D+02 0.1676000D+02 0.6207000D+01 0.6882000D+00 0.1533000D+05
EXPONENTS  0.2299000D+04 0.5224000D+03 0.1473000D+03 0.4755000D+02 0.1676000D+02
EXPONENTS  0.6207000D+01 0.6882000D+00 0.1752000D+01 0.2384000D+00 0.7376000D-01
EXPONENTS  0.3446000D+02 0.7749000D+01 0.2280000D+01 0.3446000D+02 0.7749000D+01
EXPONENTS  0.2280000D+01 0.3446000D+02 0.7749000D+01 0.2280000D+01 0.7156000D+00
EXPONENTS  0.7156000D+00 0.7156000D+00 0.2140000D+00 0.2140000D+00 0.2140000D+00
EXPONENTS  0.5974000D-01 0.5974000D-01 0.5974000D-01 0.2314000D+01 0.2314000D+01
EXPONENTS  0.2314000D+01 0.2314000D+01 0.2314000D+01 0.2314000D+01 0.6450000D+00
EXPONENTS  0.6450000D+00 0.6450000D+00 0.6450000D+00 0.6450000D+00 0.6450000D+00
EXPONENTS  0.2140000D+00 0.2140000D+00 0.2140000D+00 0.2140000D+00 0.2140000D+00
EXPONENTS  0.2140000D+00 0.1428000D+01 0.1428000D+01 0.1428000D+01 0.1428000D+01
EXPONENTS  0.1428000D+01 0.1428000D+01 0.1428000D+01 0.1428000D+01 0.1428000D+01
EXPONENTS  0.1428000D+01 0.5000000D+00 0.5000000D+00 0.5000000D+00 0.5000000D+00
EXPONENTS  0.5000000D+00 0.5000000D+00 0.5000000D+00 0.5000000D+00 0.5000000D+00
EXPONENTS  0.5000000D+00 0.1533000D+05 0.2299000D+04 0.5224000D+03 0.1473000D+03
EXPONENTS  0.4755000D+02 0.1676000D+02 0.6207000D+01 0.6882000D+00 0.1533000D+05
EXPONENTS  0.2299000D+04 0.5224000D+03 0.1473000D+03 0.4755000D+02 0.1676000D+02
EXPONENTS  0.6207000D+01 0.6882000D+00 0.1752000D+01 0.2384000D+00 0.7376000D-01
EXPONENTS  0.3446000D+02 0.7749000D+01 0.2280000D+01 0.3446000D+02 0.7749000D+01
EXPONENTS  0.2280000D+01 0.3446000D+02 0.7749000D+01 0.2280000D+01 0.7156000D+00
EXPONENTS  0.7156000D+00 0.7156000D+00 0.2140000D+00 0.2140000D+00 0.2140000D+00
EXPONENTS  0.5974000D-01 0.5974000D-01 0.5974000D-01 0.2314000D+01 0.2314000D+01
EXPONENTS  0.2314000D+01 0.2314000D+01 0.2314000D+01 0.2314000D+01 0.6450000D+00
EXPONENTS  0.6450000D+00 0.6450000D+00 0.6450000D+00 0.6450000D+00 0.6450000D+00
EXPONENTS  0.2140000D+00 0.2140000D+00 0.2140000D+00 0.2140000D+00 0.2140000D+00
EXPONENTS  0.2140000D+00 0.1428000D+01 0.1428000D+01 0.1428000D+01 0.1428000D+01
EXPONENTS  0.1428000D+01 0.1428000D+01 0.1428000D+01 0.1428000D+01 0.1428000D+01
EXPONENTS  0.1428000D+01 0.5000000D+00 0.5000000D+00 0.5000000D+00 0.5000000D+00
EXPONENTS  0.5000000D+00 0.5000000D+00 0.5000000D+00 0.5000000D+00 0.5000000D+00
EXPONENTS  0.5000000D+00 0.1533000D+05 0.2299000D+04 0.5224000D+03 0.1473000D+03
EXPONENTS  0.4755000D+02 0.1676000D+02 0.6207000D+01 0.6882000D+00 0.1533000D+05
EXPONENTS  0.2299000D+04 0.5224000D+03 0.1473000D+03 0.4755000D+02 0.1676000D+02
EXPONENTS  0.6207000D+01 0.6882000D+00 0.1752000D+01 0.2384000D+00 0.7376000D-01
EXPONENTS  0.3446000D+02 0.7749000D+01 0.2280000D+01 0.3446000D+02 0.7749000D+01
EXPONENTS  0.2280000D+01 0.3446000D+02 0.7749000D+01 0.2280000D+01 0.7156000D+00
EXPONENTS  0.7156000D+00 0.7156000D+00 0.2140000D+00 0.2140000D+00 0.2140000D+00
EXPONENTS  0.5974000D-01 0.5974000D-01 0.5974000D-01 0.2314000D+01 0.2314000D+01
EXPONENTS  0.2314000D+01 0.2314000D+01 0.2314000D+01 0.2314000D+01 0.6450000D+00
EXPONENTS  0.6450000D+00 0.6450000D+00 0.6450000D+00 0.6450000D+00 0.6450000D+00
EXPONENTS  0.2140000D+00 0.2140000D+00 0.2140000D+00 0.2140000D+00 0.2140000D+00
EXPONENTS  0.2140000D+00 0.1428000D+01 0.1428000D+01 0.1428000D+01 0.1428000D+01
EXPONENTS  0.1428000D+01 0.1428000D+01 0.1428000D+01 0.1428000D+01 0.1428000D+01
EXPONENTS  0.1428000D+01 0.5000000D+00 0.5000000D+00 0.5000000D+00 0.5000000D+00
EXPONENTS  0.5000000D+00 0.5000000D+00 0.5000000D+00 0.5000000D+00 0.5000000D+00
EXPONENTS  0.5000000D+00 0.3387000D+02 0.5095000D+01 0.1159000D+01 0.3258000D+00
EXPONENTS  0.1027000D+00 0.2526000D-01 0.1407000D+01 0.1407000D+01 0.1407000D+01
EXPONENTS  0.3880000D+00 0.3880000D+00 0.3880000D+00 0.1020000D+00 0.1020000D+00
EXPONENTS  0.1020000D+00 0.1057000D+01 0.1057000D+01 0.1057000D+01 0.1057000D+01
EXPONENTS  0.1057000D+01 0.1057000D+01 0.2470000D+00 0.2470000D+00 0.2470000D+00
EXPONENTS  0.2470000D+00 0.2470000D+00 0.2470000D+00
MO    1     MO 0.0        OCC NO =    2.0000000  ORB. ENERGY =  -88.844007
 -0.22383605D-04 -0.41728129D-04 -0.70527889D-04 -0.10602652D-03 -0.13026583D-03
 -0.11003032D-03 -0.41499387D-04  0.20538278D-06  0.16618772D-04  0.31115584D-04
  0.52976944D-04  0.81947277D-04  0.10792168D-03  0.11213754D-03  0.71258372D-04
 -0.47755704D-04 -0.13586780D-03  0.32306988D-02  0.31249841D-03  0.20659814D-04
  0.19369889D-04  0.13792515D-04  0.16852037D-05  0.15799856D-05  0.11250439D-05
  0.98995219D-06  0.92814310D-06  0.66089318D-06  0.19756490D-03  0.13858735D-03
  0.65657843D-04  0.14480209D-02  0.28494714D-03  0.32335544D-03  0.20038399D-04
  0.10425871D-04  0.33482439D-05  0.27820344D-03 -0.15660677D-03 -0.12159667D-03
  0.27717334D-03  0.20587526D-03  0.20342562D-04 -0.40877531D-03  0.17352134D-03
  0.23525397D-03 -0.34530357D-03 -0.31317565D-03 -0.10090482D-03  0.61373157D-04
 -0.18500596D-04 -0.42872561D-04  0.54446351D-04  0.46017800D-04  0.33874108D-04
 -0.45183529D-04 -0.19986981D-04  0.80206339D-04  0.11884963D-03 -0.12005391D-03
 -0.67081998D-04  0.16700954D-04  0.18001485D-03 -0.17353702D-03 -0.65836288D-04
 -0.52749114D-04 -0.37149620D-05  0.59984705D-04  0.17506291D-03 -0.18924195D-03
 -0.74643433D-04 -0.16815572D-04  0.20038684D-03 -0.10531068D-03 -0.46512302D-04
  0.58601517D+00  0.10955213D+01  0.18934029D+01  0.30624942D+01  0.46287806D+01
  0.63745904D+01  0.74504183D+01  0.64377235D+01  0.30025772D+01  0.40768511D+00
  0.10916803D-02  0.21414254D-02  0.97765016D-04 -0.27972305D-02 -0.52239471D-02
 -0.90617446D-02 -0.14693306D-01 -0.22622017D-01 -0.32218833D-01 -0.41429237D-01
 -0.43488371D-01 -0.30749360D-01  0.68095745D-03  0.22093812D-01  0.12165453D-01
 -0.51447493D-04  0.13647468D-02  0.25468193D-02  0.44235203D-02  0.71651215D-02
  0.11068016D-01  0.15779119D-01  0.20523480D-01  0.21872498D-01  0.16222377D-01
 -0.50494234D-03 -0.14696628D-01 -0.14397623D-01  0.67245438D-02 -0.39460759D-02
 -0.62177080D-02 -0.55351506D-03 -0.54859294D-02 -0.71972406D-02 -0.78942759D-02
 -0.64955353D-02 -0.34245747D-02 -0.89091247D-03  0.98588548D-06 -0.53701535D-04
 -0.70453490D-04 -0.77276740D-04 -0.63584526D-04 -0.33523020D-04 -0.87211053D-05
  0.96507921D-08 -0.43595942D-03 -0.57195502D-03 -0.62734748D-03 -0.51619145D-03
 -0.27214634D-03 -0.70799615D-04  0.78346992D-07  0.47651783D-02  0.62567081D-02
  0.70392185D-02  0.59310738D-02  0.33177595D-02  0.82578359D-03 -0.37874414D-03
  0.28376794D-03  0.37258903D-03  0.41918778D-03  0.35319740D-03  0.19757367D-03
  0.49175685D-04 -0.22554339D-04  0.45758035D-03  0.60080578D-03  0.67594702D-03
  0.56953647D-03  0.31859072D-03  0.79296580D-04 -0.36369233D-04  0.33214389D-03
 -0.61380685D-04  0.92499205D-06  0.95248779D-03  0.26997992D-03  0.15155701D-03
  0.11200016D-04  0.31414593D-05  0.78856177D-05  0.10766824D-03  0.16137042D-04
 -0.12380528D-03  0.10686265D-03  0.12293832D-03  0.10780153D-03 -0.19408566D-03
 -0.12568231D-03  0.31976797D-03 -0.23261197D-03 -0.25094800D-03 -0.34872498D-03
 -0.50205814D-04  0.23751814D-04  0.26454000D-04 -0.45684850D-04 -0.32515184D-04
 -0.24792551D-04 -0.12173226D-03  0.17132629D-03 -0.54271316D-04 -0.15129499D-03
 -0.19582549D-03 -0.29208800D-03  0.51649176D-03 -0.31815338D-03  0.45490194D-03
 -0.43460876D-03  0.54787338D-04 -0.72389841D-04  0.34236763D-04  0.10596685D-03
  0.49704944D-04  0.13498056D-03 -0.27032887D-03  0.16746458D-03 -0.23769085D-03
  0.23472599D-03  0.57849778D-04  0.10783449D-03  0.18280597D-03  0.27682212D-03
  0.34616703D-03  0.29801757D-03  0.11456883D-03 -0.49644551D-06 -0.38937625D-04
 -0.73117964D-04 -0.12450728D-03 -0.19503992D-03 -0.26137644D-03 -0.28114560D-03
 -0.16879945D-03  0.11100962D-03 -0.63164207D-05 -0.63329639D-03  0.13044721D-03
  0.59498368D-04  0.58188105D-04  0.38447341D-04  0.10959970D-04  0.10718611D-04
  0.70822396D-05 -0.15376127D-03 -0.15037516D-03 -0.99359227D-04 -0.24467153D-04
  0.82278312D-05  0.17730945D-03 -0.65037291D-03 -0.10623717D-03  0.59004563D-05
  0.15019071D-04 -0.10503986D-04 -0.87165178D-05  0.35426797D-03 -0.23092493D-04
 -0.33117548D-03  0.20260455D-03 -0.14716756D-03 -0.19045225D-03 -0.15438519D-03
  0.30741676D-04  0.12364351D-03 -0.81636232D-04  0.13092870D-03  0.84273613D-04
 -0.14555140D-03  0.68190608D-04  0.77360795D-04 -0.60431575D-04  0.16389284D-03
 -0.43832200D-05  0.71814575D-04  0.10981285D-03  0.10698295D-03 -0.61925891D-04
 -0.54841449D-04 -0.43553698D-03 -0.15351783D-03 -0.27459709D-03  0.11458813D-03
 -0.50764931D-03 -0.46931184D-04 -0.24763292D-04 -0.69831518D-04  0.74225451D-04
 -0.43393364D-05  0.25971749D-03  0.66568101D-04  0.78629213D-04 -0.50222939D-04
  0.20581690D-03  0.84426367D-04  0.15737440D-03  0.26678831D-03  0.40399612D-03
  0.50519857D-03  0.43492891D-03  0.16720255D-03 -0.72451602D-06 -0.56245721D-04
 -0.10561950D-03 -0.17985180D-03 -0.28173678D-03 -0.37756042D-03 -0.40611714D-03
 -0.24383220D-03  0.16035431D-03 -0.22767909D-04 -0.72820297D-03 -0.66889948D-04
  0.17205915D-04  0.16827009D-04  0.11118317D-04  0.18701242D-03  0.18289406D-03
  0.12084584D-03  0.68786912D-04  0.67272097D-04  0.44449519D-04  0.33434465D-04
 -0.19364113D-03 -0.60608530D-04 -0.54695749D-03 -0.26882747D-03 -0.17872824D-03
  0.50814675D-05 -0.65276575D-05  0.27436102D-06  0.99297352D-04 -0.10160607D-03
  0.23087184D-05  0.70458647D-03  0.25856157D-03  0.53091812D-04 -0.12688533D-04
 -0.70062788D-05  0.19694812D-04 -0.32320939D-03 -0.11804988D-03 -0.73663190D-04
 -0.16017481D-04 -0.16447564D-04  0.32465045D-04 -0.21459646D-03 -0.82667960D-04
 -0.83425350D-04 -0.20426984D-03 -0.65826604D-04  0.48332484D-04  0.23451517D-03
  0.24637533D-03 -0.15263146D-03  0.37829435D-03 -0.48895518D-04  0.76340111D-05
 -0.42106187D-04  0.90416135D-04  0.23757479D-04 -0.25124484D-05 -0.17307049D-03
 -0.99885597D-04  0.38167277D-04 -0.98177918D-04  0.28613160D-04 -0.30629932D-04
 -0.88581959D-04  0.55300249D-04  0.10308206D-03  0.17474943D-03  0.26462214D-03
  0.33091092D-03  0.28488348D-03  0.10951961D-03 -0.47456639D-06 -0.37144792D-04
 -0.69751342D-04 -0.11877451D-03 -0.18605956D-03 -0.24934170D-03 -0.26820062D-03
 -0.16102730D-03  0.10589833D-03 -0.80581276D-05 -0.58042708D-03  0.19198053D-03
  0.60525185D-05  0.59192309D-05  0.39110861D-05 -0.83680945D-04 -0.81838136D-04
 -0.54073917D-04  0.12202413D-03  0.11933694D-03  0.78850960D-04  0.31906096D-04
  0.10529874D-03 -0.12420424D-03 -0.66032197D-03 -0.20622530D-04 -0.16691006D-03
  0.18487123D-04 -0.13828512D-04  0.13925138D-04  0.28213269D-03 -0.19831579D-03
 -0.83816904D-04 -0.10377243D-03  0.49071220D-03  0.34946734D-03 -0.10952597D-03
  0.91149644D-04  0.18376325D-04  0.75610269D-04 -0.24828245D-03 -0.10839181D-03
 -0.10129599D-03  0.60566246D-04  0.40729746D-04  0.82901063D-04 -0.25496789D-03
  0.27868813D-04 -0.91249297D-05  0.88224607D-04 -0.12989173D-03 -0.29878744D-03
 -0.39658219D-03  0.26556295D-03  0.32616222D-03  0.13190837D-03  0.12411224D-03
 -0.32190236D-04  0.10071682D-04 -0.40669809D-04  0.57281570D-04  0.13674249D-03
  0.17725261D-03 -0.18883011D-03 -0.16695753D-03 -0.55243186D-04  0.16985400D-04
  0.86619169D-04 -0.29155700D-04 -0.54342474D-04 -0.92146831D-04 -0.13946852D-03
 -0.17401599D-03 -0.14945653D-03 -0.57379268D-04  0.25666099D-06  0.13644112D-04
  0.25589871D-04  0.43625120D-04  0.68177571D-04  0.91166402D-04  0.97344463D-04
  0.59514496D-04 -0.39264050D-04  0.17557367D-03  0.14541137D-02  0.82202043D-04
 -0.12161312D-03 -0.11792381D-03 -0.79550708D-04 -0.18785440D-04 -0.18215558D-04
 -0.12288108D-04  0.28482194D-03  0.27618147D-03  0.18631039D-03  0.58811856D-04
  0.36678611D-05 -0.15063486D-03 -0.14699010D-03 -0.10057511D-03  0.24940824D-03
  0.78098403D-05 -0.22721140D-05 -0.17341656D-05 -0.98621977D-04 -0.27977872D-03
  0.37840069D-03 -0.11907523D-03 -0.65762792D-03 -0.19955320D-03  0.81275030D-04
  0.23596473D-03 -0.31723977D-03  0.21835511D-04  0.59615167D-03  0.11827812D-03
 -0.11001722D-04  0.27301307D-04 -0.16299586D-04  0.41164219D-04  0.68397837D-04
  0.96619657D-05 -0.36409096D-04 -0.94363716D-04 -0.17151606D-04  0.24826960D-04
  0.33142277D-03  0.69289806D-04  0.84400327D-04 -0.48331620D-04 -0.17834988D-04
 -0.20383836D-04 -0.54313082D-04  0.10480159D-04 -0.45067219D-04 -0.12028267D-03
 -0.96774405D-04 -0.65738067D-04  0.28322192D-03  0.65333927D-04  0.20093972D-03
 -0.84946644D-04 -0.42600063D-04 -0.79401037D-04 -0.13463785D-03 -0.20378066D-03
 -0.25425876D-03 -0.21837437D-03 -0.83838166D-04  0.37501326D-06  0.22483656D-04
  0.42168655D-04  0.71888312D-04  0.11234744D-03  0.15022993D-03  0.16041054D-03
  0.98071860D-04 -0.64701857D-04  0.18112072D-03  0.14800526D-02  0.11003420D-03
 -0.54936849D-04 -0.53270264D-04 -0.35935806D-04  0.14972310D-03  0.14518105D-03
  0.97938277D-04 -0.26628936D-03 -0.25821111D-03 -0.17418769D-03  0.25135809D-04
 -0.75667392D-04  0.13362941D-03 -0.98252041D-04  0.58404025D-04 -0.29853586D-03
  0.23613123D-05  0.35129733D-05 -0.42340752D-05 -0.20251691D-03 -0.11670091D-03
  0.31921782D-03 -0.32244728D-03  0.18407070D-03 -0.75222907D-03  0.18569875D-03
  0.75070019D-04 -0.26076877D-03  0.22448189D-03 -0.23551037D-03  0.61546011D-03
  0.55270807D-05  0.46783994D-07 -0.55738647D-05  0.69191644D-04 -0.17874090D-04
  0.66970515D-04 -0.28685838D-04 -0.64740657D-04  0.61020580D-05 -0.58995501D-04
  0.26729817D-03  0.44591958D-04  0.14505301D-03 -0.73076193D-04 -0.62898132D-04
  0.11756101D-03 -0.42682526D-04  0.90060456D-04  0.26994309D-04  0.20423283D-04
 -0.13829809D-04 -0.13696930D-03  0.10762429D-03 -0.25635156D-03  0.55986369D-04
 -0.28154638D-03 -0.42559436D-04 -0.79325312D-04 -0.13450945D-03 -0.20358631D-03
 -0.25401628D-03 -0.21816610D-03 -0.83758210D-04  0.37465561D-06  0.23894708D-04
  0.44815117D-04  0.76399951D-04  0.11939825D-03  0.15965821D-03  0.17047775D-03
  0.10422675D-03 -0.68762481D-04  0.10496390D-03  0.13053947D-02 -0.10747863D-04
  0.12809924D-03  0.12421317D-03  0.83793472D-04 -0.13699208D-03 -0.13283623D-03
 -0.89610537D-04 -0.10896288D-03 -0.10565734D-03 -0.71275816D-04 -0.65875285D-04
 -0.68140025D-04  0.61251650D-04  0.54397099D-04 -0.44919765D-03 -0.10312537D-03
  0.93827190D-05  0.41823824D-05 -0.56480024D-05 -0.27767993D-03  0.47178159D-03
 -0.19410166D-03 -0.49405298D-03 -0.17590291D-03  0.37959683D-03  0.12531495D-03
 -0.26735359D-03  0.14203864D-03  0.27120109D-03  0.10632141D-03 -0.22436404D-03
  0.14951341D-04 -0.97914437D-06 -0.13972196D-04  0.93204207D-05  0.35727469D-04
 -0.67781175D-04  0.43050737D-04 -0.34677939D-04  0.50574347D-04  0.27132742D-04
  0.11568378D-03  0.42098631D-05 -0.15628495D-03 -0.11649958D-04 -0.15593290D-03
  0.14267079D-03  0.14890066D-04  0.11237415D-03 -0.41062415D-04 -0.15729089D-03
 -0.17180254D-03 -0.79484254D-04  0.11262069D-03 -0.16531992D-03  0.20267150D-03
 -0.12947975D-03 -0.78699259D-05 -0.14193736D-04 -0.20928655D-04 -0.20989434D-04
  0.18283558D-03 -0.28563074D-05 -0.87148048D-04  0.15919266D-03  0.64581712D-04
 -0.52618343D-04  0.33460408D-04  0.33735307D-04 -0.58419160D-05 -0.99369648D-05
 -0.28069549D-04  0.15744154D-04  0.90991248D-05 -0.24843278D-04 -0.29740041D-04
  0.10637260D-03 -0.10249950D-03 -0.32145670D-05  0.23715899D-04 -0.20501332D-04
 -0.13028637D-04  0.51344477D-05 -0.15741111D-05
MO    2     MO 0.0        OCC NO =    2.0000000  ORB. ENERGY =  -24.564219
  0.21037538D-03  0.39218753D-03  0.66286602D-03  0.99650475D-03  0.12243212D-02
  0.10341350D-02  0.39003767D-03 -0.19303182D-05 -0.14691548D-03 -0.27507213D-03
 -0.46833383D-03 -0.72444123D-03 -0.95406361D-03 -0.99133320D-03 -0.62994775D-03
  0.42217633D-03 -0.36203522D-03  0.22521482D-02  0.31344010D-03  0.29237503D-03
  0.27412018D-03  0.19518990D-03 -0.49863169D-04 -0.46749890D-04 -0.33288707D-04
 -0.41351579D-03 -0.38769734D-03 -0.27606360D-03 -0.10610281D-02  0.22933114D-03
  0.16772338D-02  0.20360244D-03  0.16218750D-03  0.37441655D-03  0.17904022D-04
  0.59396698D-05 -0.33253073D-05  0.45959648D-04 -0.53466412D-03  0.48870447D-03
 -0.13786551D-03 -0.14493994D-02  0.27066513D-03  0.52649821D-04 -0.22906836D-03
  0.17641854D-03 -0.75676486D-04 -0.71378947D-03  0.64838012D-04  0.12652824D-04
 -0.48122509D-05 -0.78405734D-05  0.98288172D-05  0.15969861D-07  0.10578658D-04
  0.12921544D-03 -0.17514873D-04  0.17257419D-04  0.18519520D-03  0.47790891D-04
  0.19718121D-03 -0.57284152D-03  0.47537295D-05 -0.24895347D-03 -0.25356739D-03
  0.14696924D-04 -0.29351659D-04  0.13292648D-04  0.67149752D-05  0.38417993D-04
  0.26192778D-04 -0.50805747D-04  0.49636984D-04 -0.66070722D-04  0.17349749D-04
  0.33221298D-04  0.62105285D-04  0.10733732D-03  0.17361330D-03  0.26240634D-03