 Molden2AIM, Version 4.0.0 (06/02/2016)           Time: Sat Jun 30 02:26:29 2018
GAUSSIAN             13 MOL ORBITALS    279 PRIMITIVES        5 NUCLEI
  C    1    (CENTRE  1)   0.02791503  0.00000000  0.01966071  CHARGE =  6.0
  H    2    (CENTRE  2)  -0.04750394  0.00000000  2.09605398  CHARGE =  1.0
  H    3    (CENTRE  3)   1.96054550  0.00000000 -0.74342960  CHARGE =  1.0
  F    4    (CENTRE  4)  -1.20286926 -2.08731400 -0.85046746  CHARGE =  9.0
  F    5    (CENTRE  5)  -1.20286926  2.08731400 -0.85046746  CHARGE =  9.0
CENTRE ASSIGNMENTS    1  1  1  1  1  1  1  1  1  1  1  1  1  1  1  1  1  1  1  1
CENTRE ASSIGNMENTS    1  1  1  1  1  1  1  1  1  1  1  1  1  1  1  1  1  1  1  1
CENTRE ASSIGNMENTS    1  1  1  1  1  1  1  1  1  1  1  1  1  1  1  1  1  1  1  1
CENTRE ASSIGNMENTS    1  1  1  1  1  1  1  1  1  1  1  1  1  1  1  2  2  2  2  2
CENTRE ASSIGNMENTS    2  2  2  2  2  2  2  2  2  2  2  2  2  2  2  2  2  2  2  2
CENTRE ASSIGNMENTS    2  2  3  3  3  3  3  3  3  3  3  3  3  3  3  3  3  3  3  3
CENTRE ASSIGNMENTS    3  3  3  3  3  3  3  3  3  4  4  4  4  4  4  4  4  4  4  4
CENTRE ASSIGNMENTS    4  4  4  4  4  4  4  4  4  4  4  4  4  4  4  4  4  4  4  4
CENTRE ASSIGNMENTS    4  4  4  4  4  4  4  4  4  4  4  4  4  4  4  4  4  4  4  4
CENTRE ASSIGNMENTS    4  4  4  4  4  4  4  4  4  4  4  4  4  4  4  4  4  4  4  4
CENTRE ASSIGNMENTS    4  4  4  4  5  5  5  5  5  5  5  5  5  5  5  5  5  5  5  5
CENTRE ASSIGNMENTS    5  5  5  5  5  5  5  5  5  5  5  5  5  5  5  5  5  5  5  5
CENTRE ASSIGNMENTS    5  5  5  5  5  5  5  5  5  5  5  5  5  5  5  5  5  5  5  5
CENTRE ASSIGNMENTS    5  5  5  5  5  5  5  5  5  5  5  5  5  5  5  5  5  5  5
TYPE ASSIGNMENTS      1  1  1  1  1  1  1  1  1  1  1  1  1  1  1  1  1  1  1  2
TYPE ASSIGNMENTS      2  2  3  3  3  4  4  4  2  3  4  2  3  4  2  3  4  5  6  7
TYPE ASSIGNMENTS      8  9 10  5  6  7  8  9 10  5  6  7  8  9 10 11 12 13 17 14
TYPE ASSIGNMENTS     15 18 19 16 20 11 12 13 17 14 15 18 19 16 20  1  1  1  1  1
TYPE ASSIGNMENTS      1  2  3  4  2  3  4  2  3  4  5  6  7  8  9 10  5  6  7  8
TYPE ASSIGNMENTS      9 10  1  1  1  1  1  1  2  3  4  2  3  4  2  3  4  5  6  7
TYPE ASSIGNMENTS      8  9 10  5  6  7  8  9 10  1  1  1  1  1  1  1  1  1  1  1
TYPE ASSIGNMENTS      1  1  1  1  1  1  1  1  2  2  2  3  3  3  4  4  4  2  3  4
TYPE ASSIGNMENTS      2  3  4  2  3  4  5  6  7  8  9 10  5  6  7  8  9 10  5  6
TYPE ASSIGNMENTS      7  8  9 10 11 12 13 17 14 15 18 19 16 20 11 12 13 17 14 15
TYPE ASSIGNMENTS     18 19 16 20  1  1  1  1  1  1  1  1  1  1  1  1  1  1  1  1
TYPE ASSIGNMENTS      1  1  1  2  2  2  3  3  3  4  4  4  2  3  4  2  3  4  2  3
TYPE ASSIGNMENTS      4  5  6  7  8  9 10  5  6  7  8  9 10  5  6  7  8  9 10 11
TYPE ASSIGNMENTS     12 13 17 14 15 18 19 16 20 11 12 13 17 14 15 18 19 16 20
EXPONENTS  0.8236000D+04 0.1235000D+04 0.2808000D+03 0.7927000D+02 0.2559000D+02
EXPONENTS  0.8997000D+01 0.3319000D+01 0.3643000D+00 0.8236000D+04 0.1235000D+04
EXPONENTS  0.2808000D+03 0.7927000D+02 0.2559000D+02 0.8997000D+01 0.3319000D+01
EXPONENTS  0.3643000D+00 0.9059000D+00 0.1285000D+00 0.4402000D-01 0.1871000D+02
EXPONENTS  0.4133000D+01 0.1200000D+01 0.1871000D+02 0.4133000D+01 0.1200000D+01
EXPONENTS  0.1871000D+02 0.4133000D+01 0.1200000D+01 0.3827000D+00 0.3827000D+00
EXPONENTS  0.3827000D+00 0.1209000D+00 0.1209000D+00 0.1209000D+00 0.3569000D-01
EXPONENTS  0.3569000D-01 0.3569000D-01 0.1097000D+01 0.1097000D+01 0.1097000D+01
EXPONENTS  0.1097000D+01 0.1097000D+01 0.1097000D+01 0.3180000D+00 0.3180000D+00
EXPONENTS  0.3180000D+00 0.3180000D+00 0.3180000D+00 0.3180000D+00 0.1000000D+00
EXPONENTS  0.1000000D+00 0.1000000D+00 0.1000000D+00 0.1000000D+00 0.1000000D+00
EXPONENTS  0.7610000D+00 0.7610000D+00 0.7610000D+00 0.7610000D+00 0.7610000D+00
EXPONENTS  0.7610000D+00 0.7610000D+00 0.7610000D+00 0.7610000D+00 0.7610000D+00
EXPONENTS  0.2680000D+00 0.2680000D+00 0.2680000D+00 0.2680000D+00 0.2680000D+00
EXPONENTS  0.2680000D+00 0.2680000D+00 0.2680000D+00 0.2680000D+00 0.2680000D+00
EXPONENTS  0.3387000D+02 0.5095000D+01 0.1159000D+01 0.3258000D+00 0.1027000D+00
EXPONENTS  0.2526000D-01 0.1407000D+01 0.1407000D+01 0.1407000D+01 0.3880000D+00
EXPONENTS  0.3880000D+00 0.3880000D+00 0.1020000D+00 0.1020000D+00 0.1020000D+00
EXPONENTS  0.1057000D+01 0.1057000D+01 0.1057000D+01 0.1057000D+01 0.1057000D+01
EXPONENTS  0.1057000D+01 0.2470000D+00 0.2470000D+00 0.2470000D+00 0.2470000D+00
EXPONENTS  0.2470000D+00 0.2470000D+00 0.3387000D+02 0.5095000D+01 0.1159000D+01
EXPONENTS  0.3258000D+00 0.1027000D+00 0.2526000D-01 0.1407000D+01 0.1407000D+01
EXPONENTS  0.1407000D+01 0.3880000D+00 0.3880000D+00 0.3880000D+00 0.1020000D+00
EXPONENTS  0.1020000D+00 0.1020000D+00 0.1057000D+01 0.1057000D+01 0.1057000D+01
EXPONENTS  0.1057000D+01 0.1057000D+01 0.1057000D+01 0.2470000D+00 0.2470000D+00
EXPONENTS  0.2470000D+00 0.2470000D+00 0.2470000D+00 0.2470000D+00 0.1950000D+05
EXPONENTS  0.2923000D+04 0.6645000D+03 0.1875000D+03 0.6062000D+02 0.2142000D+02
EXPONENTS  0.7950000D+01 0.8815000D+00 0.1950000D+05 0.2923000D+04 0.6645000D+03
EXPONENTS  0.1875000D+03 0.6062000D+02 0.2142000D+02 0.7950000D+01 0.8815000D+00
EXPONENTS  0.2257000D+01 0.3041000D+00 0.9158000D-01 0.4388000D+02 0.9926000D+01
EXPONENTS  0.2930000D+01 0.4388000D+02 0.9926000D+01 0.2930000D+01 0.4388000D+02
EXPONENTS  0.9926000D+01 0.2930000D+01 0.9132000D+00 0.9132000D+00 0.9132000D+00
EXPONENTS  0.2672000D+00 0.2672000D+00 0.2672000D+00 0.7361000D-01 0.7361000D-01
EXPONENTS  0.7361000D-01 0.3107000D+01 0.3107000D+01 0.3107000D+01 0.3107000D+01
EXPONENTS  0.3107000D+01 0.3107000D+01 0.8550000D+00 0.8550000D+00 0.8550000D+00
EXPONENTS  0.8550000D+00 0.8550000D+00 0.8550000D+00 0.2920000D+00 0.2920000D+00
EXPONENTS  0.2920000D+00 0.2920000D+00 0.2920000D+00 0.2920000D+00 0.1917000D+01
EXPONENTS  0.1917000D+01 0.1917000D+01 0.1917000D+01 0.1917000D+01 0.1917000D+01
EXPONENTS  0.1917000D+01 0.1917000D+01 0.1917000D+01 0.1917000D+01 0.7240000D+00
EXPONENTS  0.7240000D+00 0.7240000D+00 0.7240000D+00 0.7240000D+00 0.7240000D+00
EXPONENTS  0.7240000D+00 0.7240000D+00 0.7240000D+00 0.7240000D+00 0.1950000D+05
EXPONENTS  0.2923000D+04 0.6645000D+03 0.1875000D+03 0.6062000D+02 0.2142000D+02
EXPONENTS  0.7950000D+01 0.8815000D+00 0.1950000D+05 0.2923000D+04 0.6645000D+03
EXPONENTS  0.1875000D+03 0.6062000D+02 0.2142000D+02 0.7950000D+01 0.8815000D+00
EXPONENTS  0.2257000D+01 0.3041000D+00 0.9158000D-01 0.4388000D+02 0.9926000D+01
EXPONENTS  0.2930000D+01 0.4388000D+02 0.9926000D+01 0.2930000D+01 0.4388000D+02
EXPONENTS  0.9926000D+01 0.2930000D+01 0.9132000D+00 0.9132000D+00 0.9132000D+00
EXPONENTS  0.2672000D+00 0.2672000D+00 0.2672000D+00 0.7361000D-01 0.7361000D-01
EXPONENTS  0.7361000D-01 0.3107000D+01 0.3107000D+01 0.3107000D+01 0.3107000D+01
EXPONENTS  0.3107000D+01 0.3107000D+01 0.8550000D+00 0.8550000D+00 0.8550000D+00
EXPONENTS  0.8550000D+00 0.8550000D+00 0.8550000D+00 0.2920000D+00 0.2920000D+00
EXPONENTS  0.2920000D+00 0.2920000D+00 0.2920000D+00 0.2920000D+00 0.1917000D+01
EXPONENTS  0.1917000D+01 0.1917000D+01 0.1917000D+01 0.1917000D+01 0.1917000D+01
EXPONENTS  0.1917000D+01 0.1917000D+01 0.1917000D+01 0.1917000D+01 0.7240000D+00
EXPONENTS  0.7240000D+00 0.7240000D+00 0.7240000D+00 0.7240000D+00 0.7240000D+00
EXPONENTS  0.7240000D+00 0.7240000D+00 0.7240000D+00 0.7240000D+00
MO    1     MO 0.0        OCC NO =    2.0000000  ORB. ENERGY =  -24.494864
  0.82296164D-10  0.15341876D-09  0.25930473D-09  0.38981995D-09  0.47893885D-09
  0.40454042D-09  0.15257776D-09 -0.75511587D-12 -0.56881827D-10 -0.10650073D-09
 -0.18132660D-09 -0.28048468D-09 -0.36938845D-09 -0.38381827D-09 -0.24389928D-09
  0.16345562D-09 -0.14145370D-09  0.36204110D-09  0.74338807D-10  0.13874491D-09
  0.13008217D-09  0.92626254D-10  0.65169130D-03  0.61100202D-03  0.43506984D-03
  0.98067786D-10  0.91944783D-10  0.65470163D-10 -0.40577485D-09 -0.18970015D-02
 -0.28685407D-09 -0.49179932D-10 -0.28222142D-03 -0.34696017D-10  0.11193171D-11
 -0.63124147D-06  0.79240573D-12 -0.63995242D-10  0.19868089D-09 -0.13468565D-09
  0.14379542D-02  0.19986034D-09  0.10165947D-02 -0.32520790D-10  0.11830282D-09
 -0.85782028D-10  0.83575017D-03  0.15058601D-09  0.59062494D-03 -0.10008465D-11
  0.32265973D-11 -0.22257508D-11  0.28398099D-04  0.34758091D-11  0.20052057D-04
  0.51805291D-10 -0.69900665D-04  0.40337484D-10 -0.20199873D-09 -0.55916337D-04
  0.21801518D-10  0.46582860D-10  0.26561833D-03 -0.14281397D-09 -0.90874688D-03
  0.52580676D-11  0.41372344D-06  0.43931472D-11 -0.20077007D-10 -0.18377372D-04
  0.10044420D-11  0.43028047D-11  0.17136202D-04 -0.14183884D-10 -0.10040356D-03
  0.65034893D-12  0.11729311D-11  0.17294862D-11  0.10491854D-09  0.69309264D-11
 -0.60790681D-11  0.13272141D-10  0.30570455D-04 -0.16986017D-12 -0.30601249D-10
 -0.10498973D-03 -0.10938056D-09 -0.86436280D-11 -0.42852431D-04 -0.10855022D-10
 -0.10485651D-10 -0.26744507D-10  0.37230158D-10 -0.87027151D-04 -0.22035554D-10
 -0.11247703D-03 -0.62936444D-11 -0.86786550D-11  0.14972299D-10 -0.17622185D-05
  0.12582193D-10  0.50882225D-04  0.64539687D-12  0.11639998D-11  0.17163171D-11
  0.10495020D-09  0.70918400D-11 -0.60761299D-11  0.42280673D-11  0.30534673D-04
  0.12571938D-10 -0.11333671D-09 -0.10513957D-03  0.75973030D-11 -0.13136849D-10
 -0.42886133D-04 -0.45208314D-11  0.25024071D-10 -0.26740712D-10  0.17166415D-11
 -0.13480869D-03 -0.47110586D-10 -0.44522277D-04  0.16560993D-10 -0.86774826D-11
 -0.78835103D-11  0.47400624D-04 -0.35768909D-11 -0.18621585D-04  0.42028566D+00
  0.78343068D+00  0.13281076D+01  0.20111463D+01  0.25149455D+01  0.21651338D+01
  0.83235649D+00 -0.36067369D-02  0.13104610D-03  0.24608136D-03  0.41903412D-03
  0.65641448D-03  0.87967262D-03  0.94620651D-03  0.56810115D-03 -0.37360722D-03
  0.45502088D-01 -0.78733286D-03 -0.56546343D-03  0.23362643D-02  0.22848155D-02
  0.15096742D-02  0.38957426D-02  0.38099511D-02  0.25173958D-02  0.16487383D-02
  0.16124301D-02  0.10654007D-02 -0.42740317D-03 -0.76458309D-03 -0.30173961D-03
 -0.40428217D-03 -0.75997489D-03 -0.28595293D-03 -0.25466329D-04 -0.58117854D-04
 -0.18010458D-04 -0.35866129D-04  0.83864172D-04 -0.47998042D-04  0.53901484D-03
  0.38123638D-04  0.38392834D-03  0.87386133D-04 -0.27399855D-03  0.18661242D-03
 -0.71526872D-03 -0.28051291D-03 -0.50580115D-03  0.43693441D-04 -0.11512080D-03
  0.71427362D-04 -0.23906105D-03 -0.78547487D-04 -0.16904397D-03 -0.15749931D-03
 -0.78698653D-04 -0.12541503D-03  0.60758115D-03  0.21949128D-03 -0.53408594D-04
 -0.13508323D-03  0.16604681D-04  0.42965368D-03  0.57824924D-03  0.12894188D-03
  0.25253030D-05  0.11381264D-03 -0.48352659D-03 -0.97346980D-04  0.40823324D-06
  0.96700948D-04  0.89771071D-04 -0.34184617D-03 -0.52952213D-03 -0.42028540D+00
 -0.78343020D+00 -0.13281068D+01 -0.20111451D+01 -0.25149440D+01 -0.21651325D+01
 -0.83235598D+00  0.36067347D-02 -0.13104602D-03 -0.24608122D-03 -0.41903387D-03
 -0.65641408D-03 -0.87967209D-03 -0.94620594D-03 -0.56810081D-03  0.37360699D-03
 -0.45502060D-01  0.78733240D-03  0.56546311D-03 -0.23362629D-02 -0.22848141D-02
 -0.15096733D-02  0.38957402D-02  0.38099489D-02  0.25173943D-02 -0.16487374D-02
 -0.16124291D-02 -0.10654001D-02  0.42740292D-03 -0.76458266D-03  0.30173943D-03
  0.40428192D-03 -0.75997449D-03  0.28595275D-03  0.25466310D-04 -0.58117832D-04
  0.18010445D-04  0.35866041D-04 -0.83863997D-04  0.47997956D-04  0.53901465D-03
 -0.38123642D-04  0.38392820D-03 -0.87386062D-04  0.27399835D-03 -0.18661229D-03
 -0.71526832D-03  0.28051274D-03 -0.50580087D-03 -0.43693430D-04  0.11512076D-03
 -0.71427331D-04 -0.23906093D-03  0.78547428D-04 -0.16904389D-03  0.15749927D-03
 -0.78698743D-04  0.12541498D-03 -0.60758102D-03  0.21949137D-03  0.53408629D-04
  0.13508321D-03  0.16604858D-04 -0.42965358D-03  0.57824900D-03 -0.12894182D-03
  0.25253460D-05 -0.11381259D-03  0.48352638D-03 -0.97346994D-04 -0.40825333D-06
 -0.96700911D-04  0.89770956D-04  0.34184602D-03 -0.52952184D-03
MO    2     MO 0.0        OCC NO =    2.0000000  ORB. ENERGY =  -24.494863
  0.27007266D-03  0.50347683D-03  0.85096454D-03  0.12792785D-02  0.15717414D-02
  0.13275869D-02  0.50071692D-03 -0.24780760D-05 -0.18666779D-03 -0.34950099D-03
 -0.59505534D-03 -0.92046013D-03 -0.12122136D-02 -0.12595676D-02 -0.80039866D-03
  0.53640857D-03 -0.46435719D-03  0.11884211D-02  0.24417749D-03  0.45551239D-03
  0.42707182D-03  0.30410058D-03 -0.19848769D-09 -0.18609483D-09 -0.13251060D-09
  0.32196917D-03  0.30186657D-03  0.21494698D-03 -0.13321853D-02  0.57779964D-09
 -0.94177146D-03 -0.16171224D-03  0.85880812D-10 -0.11409956D-03  0.36794293D-05
  0.19502742D-12  0.26045788D-05 -0.21008472D-03  0.65215585D-03 -0.44207113D-03
 -0.43811934D-09  0.65588610D-03 -0.30973787D-09 -0.10672792D-03  0.38842150D-03
 -0.28169358D-03 -0.25446120D-09  0.49465628D-03 -0.17982915D-09 -0.32798532D-05
  0.10612571D-04 -0.73327181D-05 -0.86283082D-11  0.11497135D-04 -0.60927275D-11
  0.17003797D-03  0.21294849D-10  0.13237487D-03 -0.66304169D-03  0.17021332D-10
  0.71646545D-04  0.15292778D-03 -0.80905881D-10 -0.46877115D-03  0.27676970D-09
  0.17268816D-04 -0.13375288D-12  0.14430498D-04 -0.65933880D-04  0.56065500D-11
  0.32876899D-05  0.14127433D-04 -0.52052914D-11 -0.46579183D-04  0.30567943D-10
  0.21322245D-05  0.38455547D-05  0.56702682D-05  0.34461624D-03  0.23315421D-04
 -0.19971430D-04  0.43568650D-04 -0.93064909D-11 -0.58550412D-06 -0.10054914D-03
  0.31936241D-10 -0.35921955D-03 -0.28483222D-04  0.13022702D-10 -0.35734641D-04
 -0.34459111D-04 -0.87806384D-04  0.12226550D-03  0.26517201D-10 -0.72269933D-04
  0.34281716D-10 -0.20665289D-04 -0.28496830D-04  0.49162119D-04  0.53011412D-12
  0.41363952D-04 -0.15472640D-10  0.21159696D-05  0.38162383D-05  0.56270412D-05
  0.34469765D-03  0.23808943D-04 -0.19962776D-04  0.13854656D-04 -0.92954362D-11
  0.41277922D-04 -0.37221838D-03  0.31981235D-10  0.24897874D-04 -0.43250362D-04
  0.13032536D-10 -0.14911867D-04  0.82205510D-04 -0.87792359D-04  0.55868494D-05
  0.41086415D-10 -0.15464992D-03  0.13562680D-10  0.54394111D-04 -0.28492666D-04
 -0.25901445D-04 -0.14415549D-10 -0.11705454D-04  0.56572599D-11  0.42028948D+00
  0.78343781D+00  0.13281197D+01  0.20111646D+01  0.25149684D+01  0.21651535D+01
  0.83236407D+00 -0.36067698D-02  0.12893532D-03  0.24211770D-03  0.41228469D-03
  0.64584152D-03  0.86550362D-03  0.93096584D-03  0.55895067D-03 -0.36758947D-03
  0.45487596D-01 -0.76343550D-03 -0.52864888D-03  0.23030172D-02  0.22523005D-02
  0.14881902D-02  0.38386181D-02  0.37540847D-02  0.24804825D-02  0.16252034D-02
  0.15894134D-02  0.10501926D-02 -0.42050965D-03 -0.70736442D-03 -0.29684654D-03
 -0.41259450D-03 -0.64971118D-03 -0.29182926D-03 -0.30565097D-04 -0.35858572D-04
 -0.21606275D-04 -0.14521482D-03  0.28709142D-03 -0.14187660D-03  0.31138559D-03
 -0.57069434D-05  0.22286728D-03  0.11666941D-03 -0.33181170D-03  0.21514229D-03
 -0.65301825D-03 -0.27832728D-03 -0.46172410D-03  0.18003430D-04 -0.70339763D-04
  0.52336333D-04 -0.19288102D-03 -0.97179005D-04 -0.13639953D-03 -0.64001898D-04
  0.14786572D-03 -0.70464006D-04  0.21792893D-03 -0.15153836D-03  0.57224572D-04
 -0.25923234D-04 -0.29205880D-03  0.15416745D-03  0.40187185D-03  0.96088331D-04
 -0.70728099D-04  0.93131041D-04 -0.34855189D-03  0.22670437D-04 -0.32984599D-04
  0.60286895D-04  0.18951386D-03 -0.24640852D-03 -0.47208959D-03  0.42028974D+00
  0.78343828D+00  0.13281205D+01  0.20111659D+01  0.25149700D+01  0.21651549D+01
  0.83236458D+00 -0.36067720D-02  0.12893540D-03  0.24211785D-03  0.41228494D-03
  0.64584192D-03  0.86550416D-03  0.93096641D-03  0.55895101D-03 -0.36758970D-03
  0.45487624D-01 -0.76343598D-03 -0.52864923D-03  0.23030186D-02  0.22523019D-02
  0.14881911D-02 -0.38386205D-02 -0.37540870D-02 -0.24804840D-02  0.16252044D-02
  0.15894144D-02  0.10501933D-02 -0.42050992D-03  0.70736489D-03 -0.29684672D-03
 -0.41259475D-03  0.64971164D-03 -0.29182943D-03 -0.30565112D-04  0.35858607D-04
 -0.21606286D-04 -0.14521484D-03  0.28709147D-03 -0.14187663D-03 -0.31138592D-03
 -0.57069203D-05 -0.22286751D-03  0.11666946D-03 -0.33181187D-03  0.21514240D-03
  0.65301869D-03 -0.27832745D-03  0.46172441D-03  0.18003457D-04 -0.70339833D-04
  0.52336376D-04  0.19288117D-03 -0.97179053D-04  0.13639963D-03 -0.64001994D-04
 -0.14786567D-03 -0.70464082D-04  0.21792930D-03  0.15153823D-03  0.57224539D-04
 -0.25923317D-04  0.29205879D-03  0.15416771D-03 -0.40187220D-03  0.96088410D-04
  0.70728097D-04  0.93131110D-04 -0.34855218D-03 -0.22670378D-04 -0.32984599D-04
  0.60286954D-04 -0.18951391D-03 -0.24640873D-03  0.47208992D-03
MO    3     MO 0.0        OCC NO =    2.0000000  ORB. ENERGY =  -10.197720
  0.33092544D+00  0.61692027D+00  0.10427039D+01  0.15675256D+01  0.19258863D+01
  0.16267188D+01  0.61353849D+00 -0.30364362D-02 -0.36385160D-02 -0.68124500D-02
 -0.11598779D-01 -0.17941547D-01 -0.23628387D-01 -0.24551407D-01 -0.15601317D-01
  0.10455640D-01  0.31462909D-01 -0.34003545D-03 -0.76053776D-04 -0.37338401D-02
 -0.35007124D-02 -0.24927158D-02 -0.15565824D-14 -0.14593949D-14 -0.10391761D-14
 -0.26350525D-02 -0.24705292D-02 -0.17591639D-02  0.26660573D-02  0.43682501D-14
  0.18775591D-02  0.59413072D-03  0.19225965D-14  0.41821714D-03 -0.57058329D-05
 -0.11829292D-15 -0.40424281D-05  0.19888316D-03 -0.77642608D-03  0.57754292D-03
  0.18406602D-15 -0.10761739D-02  0.26253397D-15  0.22877253D-03 -0.84622527D-03
  0.61745274D-03 -0.45334046D-14 -0.11082394D-02 -0.36002713D-14  0.14703786D-04
 -0.51886607D-04  0.37182820D-04 -0.56949338D-15 -0.64051305D-04 -0.43872568D-15
  0.11193816D-02  0.10493641D-15  0.18162719D-02 -0.30281117D-02  0.19112171D-15
 -0.33109895D-02 -0.33003299D-03 -0.50593093D-15 -0.21378262D-02  0.24902716D-14
 -0.18357480D-03  0.66233508D-16 -0.26506200D-03  0.54309789D-03  0.94771966D-16
  0.41105619D-03  0.76265064D-05 -0.29347249D-15  0.38412980D-03  0.10265257D-14
 -0.38375564D-04 -0.69211911D-04 -0.10205292D-03 -0.20993523D-02 -0.11250041D-02
 -0.37459685D-05 -0.13695890D-03 -0.30407817D-15  0.22695572D-02  0.21004351D-04
  0.16290899D-14  0.33751915D-02  0.66500021D-04  0.10161686D-14  0.35361663D-03
  0.12194637D-02  0.13479989D-02 -0.25674626D-02 -0.23719078D-15  0.43162194D-03
 -0.64003751D-15  0.14268082D-03  0.25872717D-03 -0.40140799D-03  0.53881246D-16
 -0.36787115D-04 -0.82390937D-15 -0.38351283D-04 -0.69168119D-04 -0.10198835D-03
 -0.21082524D-02 -0.11298089D-02 -0.38074024D-05  0.20960224D-02 -0.27917206D-15
 -0.88559017D-03  0.31946240D-02  0.13426861D-14 -0.11070480D-02  0.35633250D-03
  0.99412106D-15 -0.55517525D-04 -0.20128248D-02  0.13486450D-02  0.66417983D-03
 -0.28142058D-15  0.27157710D-02 -0.79103879D-17 -0.35282229D-03  0.25883239D-03
  0.93989894D-04 -0.78460758D-15  0.31364341D-03  0.32260887D-15  0.72652107D-04
  0.13542668D-03  0.22958151D-03  0.34765407D-03  0.43474263D-03  0.37427291D-03
  0.14388417D-03 -0.62347366D-06 -0.80258586D-04 -0.15071141D-03 -0.25663554D-03
 -0.40201805D-03 -0.53875149D-03 -0.57949986D-03 -0.34793096D-03  0.22881404D-03
  0.38972456D-03  0.16298787D-02  0.63102140D-03  0.61718178D-03  0.60359030D-03
  0.39881763D-03  0.10209955D-02  0.99851125D-03  0.65975860D-03  0.43610598D-03
  0.42650212D-03  0.28180798D-03 -0.72066203D-05 -0.61678405D-04 -0.50610832D-05
 -0.76190806D-04 -0.30123924D-04 -0.54085172D-04  0.38235966D-04  0.23832719D-04
  0.26988968D-04 -0.22893314D-03  0.85175331D-03 -0.62282018D-03  0.26775417D-02
  0.11121653D-02  0.18920619D-02  0.14953654D-03 -0.53566315D-03  0.38612661D-03
 -0.15630687D-02 -0.66831976D-03 -0.11046420D-02  0.58782073D-04 -0.14561314D-03
  0.86831067D-04 -0.46329144D-03 -0.79159228D-04 -0.32779140D-03 -0.51244553D-03
 -0.15546106D-03 -0.56173407D-03  0.17700740D-02  0.21866639D-03  0.43060765D-03
 -0.23273737D-03  0.24771679D-03  0.12545946D-02 -0.79387076D-04  0.51193708D-03
 -0.67698144D-05  0.49919504D-03 -0.18543692D-02 -0.25346846D-03 -0.18627284D-03
  0.31855798D-03  0.27377790D-03 -0.13113123D-02 -0.14892284D-02  0.72652107D-04
  0.13542668D-03  0.22958151D-03  0.34765407D-03  0.43474263D-03  0.37427291D-03
  0.14388417D-03 -0.62347366D-06 -0.80258586D-04 -0.15071141D-03 -0.25663554D-03
 -0.40201805D-03 -0.53875149D-03 -0.57949986D-03 -0.34793096D-03  0.22881404D-03
  0.38972456D-03  0.16298787D-02  0.63102140D-03  0.61718178D-03  0.60359030D-03
  0.39881763D-03 -0.10209955D-02 -0.99851125D-03 -0.65975860D-03  0.43610598D-03
  0.42650212D-03  0.28180798D-03 -0.72066204D-05  0.61678405D-04 -0.50610832D-05
 -0.76190806D-04  0.30123924D-04 -0.54085172D-04  0.38235966D-04 -0.23832719D-04
  0.26988968D-04 -0.22893314D-03  0.85175331D-03 -0.62282018D-03 -0.26775417D-02
  0.11121653D-02 -0.18920619D-02  0.14953654D-03 -0.53566315D-03  0.38612661D-03
  0.15630687D-02 -0.66831976D-03  0.11046420D-02  0.58782073D-04 -0.14561314D-03
  0.86831067D-04  0.46329144D-03 -0.79159228D-04  0.32779140D-03 -0.51244553D-03
  0.15546106D-03 -0.56173407D-03  0.17700740D-02 -0.21866639D-03  0.43060765D-03
 -0.23273737D-03 -0.24771679D-03  0.12545946D-02  0.79387076D-04  0.51193708D-03
  0.67698144D-05  0.49919504D-03 -0.18543692D-02  0.25346846D-03 -0.18627284D-03
  0.31855798D-03 -0.27377790D-03 -0.13113123D-02  0.14892284D-02
MO    4     MO 0.0        OCC NO =    2.0000000  ORB. ENERGY =   -1.221661
 -0.43316928D-02 -0.80752602D-02 -0.13648612D-01 -0.20518335D-01 -0.25209145D-01
 -0.21293153D-01 -0.80309939D-02  0.39745837D-04 -0.21040910D-01 -0.39395222D-01
 -0.67073737D-01 -0.10375287D+00 -0.13663888D+00 -0.14197655D+00 -0.90219725D-01
  0.60463162D-01  0.28610390D-01 -0.17877328D-01 -0.11715664D-02 -0.83531982D-01
 -0.78316543D-01 -0.55766044D-01 -0.14295830D-12 -0.13403249D-12 -0.95439118D-13
 -0.59074000D-01 -0.55385630D-01 -0.39437868D-01 -0.18335605D-01  0.21249432D-12
 -0.12912494D-01 -0.76652491D-04  0.27899758D-12  0.12365249D-04  0.87334541D-05
 -0.56459790D-14  0.69173545D-05 -0.33302577D-02  0.12426935D-01 -0.90966774D-02
  0.53618900D-13  0.16145686D-01  0.40018689D-13 -0.10483343D-02  0.35136344D-02
 -0.24653001D-02 -0.27233400D-12  0.41692637D-02 -0.19614224D-12 -0.10307028D-04
  0.50490256D-05  0.52580026D-05 -0.66586440D-13 -0.33986307D-04 -0.48331428D-13
  0.26483916D-02  0.41559748D-14  0.30879619D-02 -0.89538597D-02  0.18146178D-13
 -0.29644968D-02  0.10086850D-02 -0.30614102D-13 -0.62993889D-02  0.13738991D-12
 -0.20900973D-03  0.21438781D-13 -0.56721908D-03  0.22418601D-03 -0.28656752D-13
  0.15553615D-02  0.40284318D-03 -0.35659592D-13  0.14629577D-03  0.15353167D-13
  0.25322308D-02  0.45669826D-02  0.67340132D-02  0.11292309D-01  0.34060039D-02
  0.70146500D-04 -0.11995617D-02  0.20810707D-15 -0.31745971D-02 -0.14442348D-02
  0.75964896D-13 -0.18255261D-02 -0.35508625D-04  0.88528018D-13 -0.48223337D-03
 -0.33063220D-03 -0.10396117D-03  0.43459337D-03  0.33419747D-15  0.21961003D-02
 -0.15232923D-13  0.98657054D-04  0.32088094D-03 -0.41953799D-03  0.26054949D-13
  0.74988955D-04 -0.59205417D-13  0.25337745D-02  0.45697667D-02  0.67381183D-02
  0.11416850D-01  0.35552411D-02  0.72851205D-04 -0.33953874D-02  0.19194460D-14
 -0.64459732D-04 -0.22248916D-02  0.70318643D-13 -0.69445101D-03 -0.48792255D-03
  0.85245983D-13  0.13881043D-03  0.10093002D-02 -0.97593101D-04 -0.91170713D-03
 -0.11976080D-13  0.11681518D-02  0.41675724D-14 -0.34158414D-03  0.31729888D-03
  0.24285259D-04 -0.45455610D-13  0.37636932D-03  0.43721507D-13 -0.59800456D-02
 -0.11147064D-01 -0.18897014D-01 -0.28615648D-01 -0.35783969D-01 -0.30806664D-01
 -0.11843206D-01  0.51318551D-04 -0.82825677D-01 -0.15553195D+00 -0.26484409D+00
 -0.41487670D+00 -0.55598359D+00 -0.59803531D+00 -0.35905962D+00  0.23613271D+00
  0.13952799D+00  0.68320384D-01  0.26512393D-02  0.11706588D+00  0.11448787D+00
  0.75646976D-01  0.23018412D+00  0.22511504D+00  0.14874302D+00  0.82672557D-01
  0.80851955D-01  0.53422305D-01  0.29191130D-01  0.57484362D-01  0.20648590D-01
  0.24560500D-02  0.60800932D-02  0.17079376D-02  0.24859660D-04  0.90518660D-04
  0.17425023D-04 -0.48505629D-02  0.13439255D-01 -0.85886917D-02  0.24894615D-01
  0.10585447D-01  0.17653249D-01 -0.27460818D-02  0.74179530D-02 -0.46718712D-02
  0.13726890D-01  0.54618436D-02  0.96920480D-02 -0.69461380D-04  0.98518334D-04
 -0.29056954D-04 -0.39681139D-03 -0.12093429D-03 -0.30132815D-03 -0.21197952D-02
  0.15583701D-02 -0.19130030D-02  0.80439283D-02 -0.76577148D-03 -0.32956522D-04
 -0.16845428D-02 -0.39093390D-02  0.57719657D-02  0.91531056D-02 -0.88875938D-03
  0.48192548D-03 -0.77337958D-03  0.32926026D-02 -0.11833926D-03  0.13532461D-04
 -0.62632451D-03 -0.13274372D-02  0.23066063D-02  0.33497435D-02 -0.59800456D-02
 -0.11147064D-01 -0.18897014D-01 -0.28615648D-01 -0.35783969D-01 -0.30806664D-01
 -0.11843206D-01  0.51318551D-04 -0.82825677D-01 -0.15553195D+00 -0.26484409D+00
 -0.41487670D+00 -0.55598359D+00 -0.59803531D+00 -0.35905962D+00  0.23613271D+00
  0.13952799D+00  0.68320384D-01  0.26512393D-02  0.11706588D+00  0.11448787D+00
  0.75646976D-01 -0.23018412D+00 -0.22511504D+00 -0.14874302D+00  0.82672557D-01
  0.80851955D-01  0.53422305D-01  0.29191130D-01 -0.57484362D-01  0.20648590D-01
  0.24560500D-02 -0.60800932D-02  0.17079376D-02  0.24859660D-04 -0.90518660D-04
  0.17425023D-04 -0.48505629D-02  0.13439255D-01 -0.85886917D-02 -0.24894615D-01
  0.10585447D-01 -0.17653249D-01 -0.27460818D-02  0.74179530D-02 -0.46718712D-02
 -0.13726890D-01  0.54618436D-02 -0.96920480D-02 -0.69461380D-04  0.98518334D-04
 -0.29056954D-04  0.39681139D-03 -0.12093429D-03  0.30132815D-03 -0.21197952D-02
 -0.15583701D-02 -0.19130030D-02  0.80439283D-02  0.76577148D-03 -0.32956522D-04
 -0.16845428D-02  0.39093390D-02  0.57719657D-02 -0.91531056D-02 -0.88875938D-03
 -0.48192548D-03 -0.77337958D-03  0.32926026D-02  0.11833926D-03  0.13532461D-04
 -0.62632451D-03  0.13274372D-02  0.23066063D-02 -0.33497435D-02
MO    5     MO 0.0        OCC NO =    2.0000000  ORB. ENERGY =   -1.167861
 -0.17898484D-13 -0.33366844D-13 -0.56395845D-13 -0.84781428D-13 -0.10416378D-12
 -0.87982964D-13 -0.33183937D-13  0.16422916D-15  0.24190003D-13  0.45291318D-13
  0.77112344D-13  0.11928107D-12  0.15708897D-12  0.16322551D-12  0.10372248D-12
 -0.69512395D-13 -0.11776805D-12  0.52990972D-12  0.20736750D-12  0.10706887D-12
  0.10038387D-12  0.71479295D-13 -0.16113765D+00 -0.15107679D+00 -0.10757567D+00
  0.61308248D-13  0.57480379D-13  0.40929454D-13 -0.21504814D-12 -0.29996963D-01
 -0.90753691D-13 -0.26786918D-12  0.15959853D-02 -0.92874426D-13  0.47949640D-14
  0.46852988D-04  0.48509263D-14 -0.93195883D-14 -0.45111652D-14  0.13830754D-13
  0.37716626D-01 -0.51549410D-13  0.26554372D-01 -0.42919223D-13  0.11519353D-12
 -0.72274306D-13  0.74977095D-02  0.22639421D-12  0.53521554D-02 -0.45562083D-14
  0.21106181D-13 -0.16549973D-13 -0.22860148D-03  0.67223746D-13 -0.16142505D-03
  0.10635631D-13 -0.10293828D-02  0.49580417D-14 -0.54352258D-13  0.50661622D-04
  0.37081609D-13  0.22445366D-13  0.30374868D-02 -0.51955734D-13 -0.84381424D-02
  0.13153702D-13 -0.69726974D-04  0.16599740D-13 -0.49890011D-13 -0.42459159D-03
 -0.11247753D-13  0.10428904D-13  0.63377251D-03 -0.38551467D-13 -0.30465874D-02
  0.19794354D-14  0.35699933D-14  0.52639531D-14 -0.65916870D-13  0.20617754D-12
 -0.24656009D-13  0.32757935D-15 -0.26093188D-02  0.47374498D-14 -0.64493468D-13
 -0.32325009D-02 -0.34453698D-13 -0.89733134D-13 -0.46688931D-04 -0.49698413D-13
 -0.30303158D-14 -0.56040932D-16  0.30863568D-14  0.78471460D-03  0.26147865D-13
  0.46990049D-02 -0.60930439D-14 -0.10494633D-13  0.16587677D-13  0.46649621D-03
  0.44640843D-13 -0.47611717D-04  0.31275512D-15  0.56406674D-15  0.83171608D-15
  0.74402614D-13  0.48003794D-12 -0.18367258D-13 -0.62913035D-14 -0.26148547D-02
  0.28010174D-14 -0.11304989D-12 -0.32136274D-02 -0.12702121D-13 -0.11064106D-12
 -0.45246122D-04 -0.45717196D-13  0.26631462D-13 -0.10218037D-13 -0.16413425D-13
  0.46596665D-02 -0.64367390D-14 -0.84165934D-03  0.25704901D-13 -0.89806469D-14
 -0.16724255D-13  0.98390173D-04  0.14285260D-13  0.44980740D-03 -0.59799479D-02
 -0.11146882D-01 -0.18896705D-01 -0.28615181D-01 -0.35783385D-01 -0.30806161D-01
 -0.11843013D-01  0.51317714D-04 -0.89643358D-01 -0.16833435D+00 -0.28664437D+00
 -0.44902671D+00 -0.60174861D+00 -0.64726176D+00 -0.38861511D+00  0.25556965D+00
  0.15206703D+00  0.71008650D-01  0.27869348D-02  0.11789114D+00  0.11529496D+00
  0.76180253D-01  0.15487298D+00  0.15146239D+00  0.10007761D+00  0.83259909D-01
  0.81426372D-01  0.53801847D-01  0.29843128D-01  0.40165475D-01  0.21121840D-01
  0.37621025D-02  0.23943614D-02  0.26574266D-02  0.26871228D-04  0.82119229D-04
  0.18693323D-04 -0.10467188D-02  0.58589927D-02 -0.48122739D-02  0.21539888D-01
  0.10609677D-01  0.15221546D-01 -0.11154929D-02  0.47504642D-02 -0.36349712D-02
  0.15016570D-01  0.71718402D-02  0.10638111D-01  0.27923779D-03 -0.48780287D-03
  0.20856508D-03  0.42274978D-03  0.20126716D-03  0.29025813D-03 -0.20623317D-02
 -0.31320735D-03 -0.21962861D-02  0.73763693D-02  0.18934432D-02  0.12715947D-02
 -0.11893743D-02 -0.95382111D-03  0.53172635D-02  0.81533445D-02 -0.86180288D-03
 -0.24150755D-04 -0.72850226D-03  0.32211702D-02  0.92494891D-03 -0.69722405D-04
 -0.63576152D-03 -0.85249665D-03  0.22552292D-02  0.50266078D-02  0.59799479D-02
  0.11146882D-01  0.18896705D-01  0.28615181D-01  0.35783385D-01  0.30806161D-01
  0.11843013D-01 -0.51317714D-04  0.89643358D-01  0.16833435D+00  0.28664437D+00
  0.44902671D+00  0.60174861D+00  0.64726176D+00  0.38861511D+00 -0.25556965D+00
 -0.15206703D+00 -0.71008650D-01 -0.27869348D-02 -0.11789114D+00 -0.11529496D+00
 -0.76180253D-01  0.15487298D+00  0.15146239D+00  0.10007761D+00 -0.83259909D-01
 -0.81426372D-01 -0.53801847D-01 -0.29843128D-01  0.40165475D-01 -0.21121840D-01
 -0.37621025D-02  0.23943614D-02 -0.26574266D-02 -0.26871229D-04  0.82119229D-04
 -0.18693323D-04  0.10467188D-02 -0.58589927D-02  0.48122739D-02  0.21539888D-01
 -0.10609677D-01  0.15221546D-01  0.11154929D-02 -0.47504642D-02  0.36349712D-02
  0.15016570D-01 -0.71718402D-02  0.10638111D-01 -0.27923779D-03  0.48780287D-03
 -0.20856508D-03  0.42274978D-03 -0.20126716D-03  0.29025813D-03  0.20623317D-02