 Molden2AIM, Version 4.0.0 (06/02/2016)           Time: Sat Jun 30 04:14:17 2018
GAUSSIAN             13 MOL ORBITALS    306 PRIMITIVES        6 NUCLEI
  C    1    (CENTRE  1)  -3.33013585  0.91349550 -0.12881318  CHARGE =  6.0
  F    2    (CENTRE  2)  -0.70429715  0.90519582 -0.35113757  CHARGE =  9.0
  H    3    (CENTRE  3)  -3.92919604 -1.07050150 -0.33037137  CHARGE =  1.0
  H    4    (CENTRE  4)  -4.08089569  2.09988068 -1.65380327  CHARGE =  1.0
  O    5    (CENTRE  5)  -4.06351210  1.97957882  2.12198102  CHARGE =  8.0
  H    6    (CENTRE  6)  -3.63385830  0.85354772  3.48591164  CHARGE =  1.0
CENTRE ASSIGNMENTS    1  1  1  1  1  1  1  1  1  1  1  1  1  1  1  1  1  1  1  1
CENTRE ASSIGNMENTS    1  1  1  1  1  1  1  1  1  1  1  1  1  1  1  1  1  1  1  1
CENTRE ASSIGNMENTS    1  1  1  1  1  1  1  1  1  1  1  1  1  1  1  1  1  1  1  1
CENTRE ASSIGNMENTS    1  1  1  1  1  1  1  1  1  1  1  1  1  1  1  2  2  2  2  2
CENTRE ASSIGNMENTS    2  2  2  2  2  2  2  2  2  2  2  2  2  2  2  2  2  2  2  2
CENTRE ASSIGNMENTS    2  2  2  2  2  2  2  2  2  2  2  2  2  2  2  2  2  2  2  2
CENTRE ASSIGNMENTS    2  2  2  2  2  2  2  2  2  2  2  2  2  2  2  2  2  2  2  2
CENTRE ASSIGNMENTS    2  2  2  2  2  2  2  2  2  2  3  3  3  3  3  3  3  3  3  3
CENTRE ASSIGNMENTS    3  3  3  3  3  3  3  3  3  3  3  3  3  3  3  3  3  4  4  4
CENTRE ASSIGNMENTS    4  4  4  4  4  4  4  4  4  4  4  4  4  4  4  4  4  4  4  4
CENTRE ASSIGNMENTS    4  4  4  4  5  5  5  5  5  5  5  5  5  5  5  5  5  5  5  5
CENTRE ASSIGNMENTS    5  5  5  5  5  5  5  5  5  5  5  5  5  5  5  5  5  5  5  5
CENTRE ASSIGNMENTS    5  5  5  5  5  5  5  5  5  5  5  5  5  5  5  5  5  5  5  5
CENTRE ASSIGNMENTS    5  5  5  5  5  5  5  5  5  5  5  5  5  5  5  5  5  5  5  6
CENTRE ASSIGNMENTS    6  6  6  6  6  6  6  6  6  6  6  6  6  6  6  6  6  6  6  6
CENTRE ASSIGNMENTS    6  6  6  6  6  6
TYPE ASSIGNMENTS      1  1  1  1  1  1  1  1  1  1  1  1  1  1  1  1  1  1  1  2
TYPE ASSIGNMENTS      2  2  3  3  3  4  4  4  2  3  4  2  3  4  2  3  4  5  6  7
TYPE ASSIGNMENTS      8  9 10  5  6  7  8  9 10  5  6  7  8  9 10 11 12 13 17 14
TYPE ASSIGNMENTS     15 18 19 16 20 11 12 13 17 14 15 18 19 16 20  1  1  1  1  1
TYPE ASSIGNMENTS      1  1  1  1  1  1  1  1  1  1  1  1  1  1  2  2  2  3  3  3
TYPE ASSIGNMENTS      4  4  4  2  3  4  2  3  4  2  3  4  5  6  7  8  9 10  5  6
TYPE ASSIGNMENTS      7  8  9 10  5  6  7  8  9 10 11 12 13 17 14 15 18 19 16 20
TYPE ASSIGNMENTS     11 12 13 17 14 15 18 19 16 20  1  1  1  1  1  1  2  3  4  2
TYPE ASSIGNMENTS      3  4  2  3  4  5  6  7  8  9 10  5  6  7  8  9 10  1  1  1
TYPE ASSIGNMENTS      1  1  1  2  3  4  2  3  4  2  3  4  5  6  7  8  9 10  5  6
TYPE ASSIGNMENTS      7  8  9 10  1  1  1  1  1  1  1  1  1  1  1  1  1  1  1  1
TYPE ASSIGNMENTS      1  1  1  2  2  2  3  3  3  4  4  4  2  3  4  2  3  4  2  3
TYPE ASSIGNMENTS      4  5  6  7  8  9 10  5  6  7  8  9 10  5  6  7  8  9 10 11
TYPE ASSIGNMENTS     12 13 17 14 15 18 19 16 20 11 12 13 17 14 15 18 19 16 20  1
TYPE ASSIGNMENTS      1  1  1  1  1  2  3  4  2  3  4  2  3  4  5  6  7  8  9 10
TYPE ASSIGNMENTS      5  6  7  8  9 10
EXPONENTS  0.8236000D+04 0.1235000D+04 0.2808000D+03 0.7927000D+02 0.2559000D+02
EXPONENTS  0.8997000D+01 0.3319000D+01 0.3643000D+00 0.8236000D+04 0.1235000D+04
EXPONENTS  0.2808000D+03 0.7927000D+02 0.2559000D+02 0.8997000D+01 0.3319000D+01
EXPONENTS  0.3643000D+00 0.9059000D+00 0.1285000D+00 0.4402000D-01 0.1871000D+02
EXPONENTS  0.4133000D+01 0.1200000D+01 0.1871000D+02 0.4133000D+01 0.1200000D+01
EXPONENTS  0.1871000D+02 0.4133000D+01 0.1200000D+01 0.3827000D+00 0.3827000D+00
EXPONENTS  0.3827000D+00 0.1209000D+00 0.1209000D+00 0.1209000D+00 0.3569000D-01
EXPONENTS  0.3569000D-01 0.3569000D-01 0.1097000D+01 0.1097000D+01 0.1097000D+01
EXPONENTS  0.1097000D+01 0.1097000D+01 0.1097000D+01 0.3180000D+00 0.3180000D+00
EXPONENTS  0.3180000D+00 0.3180000D+00 0.3180000D+00 0.3180000D+00 0.1000000D+00
EXPONENTS  0.1000000D+00 0.1000000D+00 0.1000000D+00 0.1000000D+00 0.1000000D+00
EXPONENTS  0.7610000D+00 0.7610000D+00 0.7610000D+00 0.7610000D+00 0.7610000D+00
EXPONENTS  0.7610000D+00 0.7610000D+00 0.7610000D+00 0.7610000D+00 0.7610000D+00
EXPONENTS  0.2680000D+00 0.2680000D+00 0.2680000D+00 0.2680000D+00 0.2680000D+00
EXPONENTS  0.2680000D+00 0.2680000D+00 0.2680000D+00 0.2680000D+00 0.2680000D+00
EXPONENTS  0.1950000D+05 0.2923000D+04 0.6645000D+03 0.1875000D+03 0.6062000D+02
EXPONENTS  0.2142000D+02 0.7950000D+01 0.8815000D+00 0.1950000D+05 0.2923000D+04
EXPONENTS  0.6645000D+03 0.1875000D+03 0.6062000D+02 0.2142000D+02 0.7950000D+01
EXPONENTS  0.8815000D+00 0.2257000D+01 0.3041000D+00 0.9158000D-01 0.4388000D+02
EXPONENTS  0.9926000D+01 0.2930000D+01 0.4388000D+02 0.9926000D+01 0.2930000D+01
EXPONENTS  0.4388000D+02 0.9926000D+01 0.2930000D+01 0.9132000D+00 0.9132000D+00
EXPONENTS  0.9132000D+00 0.2672000D+00 0.2672000D+00 0.2672000D+00 0.7361000D-01
EXPONENTS  0.7361000D-01 0.7361000D-01 0.3107000D+01 0.3107000D+01 0.3107000D+01
EXPONENTS  0.3107000D+01 0.3107000D+01 0.3107000D+01 0.8550000D+00 0.8550000D+00
EXPONENTS  0.8550000D+00 0.8550000D+00 0.8550000D+00 0.8550000D+00 0.2920000D+00
EXPONENTS  0.2920000D+00 0.2920000D+00 0.2920000D+00 0.2920000D+00 0.2920000D+00
EXPONENTS  0.1917000D+01 0.1917000D+01 0.1917000D+01 0.1917000D+01 0.1917000D+01
EXPONENTS  0.1917000D+01 0.1917000D+01 0.1917000D+01 0.1917000D+01 0.1917000D+01
EXPONENTS  0.7240000D+00 0.7240000D+00 0.7240000D+00 0.7240000D+00 0.7240000D+00
EXPONENTS  0.7240000D+00 0.7240000D+00 0.7240000D+00 0.7240000D+00 0.7240000D+00
EXPONENTS  0.3387000D+02 0.5095000D+01 0.1159000D+01 0.3258000D+00 0.1027000D+00
EXPONENTS  0.2526000D-01 0.1407000D+01 0.1407000D+01 0.1407000D+01 0.3880000D+00
EXPONENTS  0.3880000D+00 0.3880000D+00 0.1020000D+00 0.1020000D+00 0.1020000D+00
EXPONENTS  0.1057000D+01 0.1057000D+01 0.1057000D+01 0.1057000D+01 0.1057000D+01
EXPONENTS  0.1057000D+01 0.2470000D+00 0.2470000D+00 0.2470000D+00 0.2470000D+00
EXPONENTS  0.2470000D+00 0.2470000D+00 0.3387000D+02 0.5095000D+01 0.1159000D+01
EXPONENTS  0.3258000D+00 0.1027000D+00 0.2526000D-01 0.1407000D+01 0.1407000D+01
EXPONENTS  0.1407000D+01 0.3880000D+00 0.3880000D+00 0.3880000D+00 0.1020000D+00
EXPONENTS  0.1020000D+00 0.1020000D+00 0.1057000D+01 0.1057000D+01 0.1057000D+01
EXPONENTS  0.1057000D+01 0.1057000D+01 0.1057000D+01 0.2470000D+00 0.2470000D+00
EXPONENTS  0.2470000D+00 0.2470000D+00 0.2470000D+00 0.2470000D+00 0.1533000D+05
EXPONENTS  0.2299000D+04 0.5224000D+03 0.1473000D+03 0.4755000D+02 0.1676000D+02
EXPONENTS  0.6207000D+01 0.6882000D+00 0.1533000D+05 0.2299000D+04 0.5224000D+03
EXPONENTS  0.1473000D+03 0.4755000D+02 0.1676000D+02 0.6207000D+01 0.6882000D+00
EXPONENTS  0.1752000D+01 0.2384000D+00 0.7376000D-01 0.3446000D+02 0.7749000D+01
EXPONENTS  0.2280000D+01 0.3446000D+02 0.7749000D+01 0.2280000D+01 0.3446000D+02
EXPONENTS  0.7749000D+01 0.2280000D+01 0.7156000D+00 0.7156000D+00 0.7156000D+00
EXPONENTS  0.2140000D+00 0.2140000D+00 0.2140000D+00 0.5974000D-01 0.5974000D-01
EXPONENTS  0.5974000D-01 0.2314000D+01 0.2314000D+01 0.2314000D+01 0.2314000D+01
EXPONENTS  0.2314000D+01 0.2314000D+01 0.6450000D+00 0.6450000D+00 0.6450000D+00
EXPONENTS  0.6450000D+00 0.6450000D+00 0.6450000D+00 0.2140000D+00 0.2140000D+00
EXPONENTS  0.2140000D+00 0.2140000D+00 0.2140000D+00 0.2140000D+00 0.1428000D+01
EXPONENTS  0.1428000D+01 0.1428000D+01 0.1428000D+01 0.1428000D+01 0.1428000D+01
EXPONENTS  0.1428000D+01 0.1428000D+01 0.1428000D+01 0.1428000D+01 0.5000000D+00
EXPONENTS  0.5000000D+00 0.5000000D+00 0.5000000D+00 0.5000000D+00 0.5000000D+00
EXPONENTS  0.5000000D+00 0.5000000D+00 0.5000000D+00 0.5000000D+00 0.3387000D+02
EXPONENTS  0.5095000D+01 0.1159000D+01 0.3258000D+00 0.1027000D+00 0.2526000D-01
EXPONENTS  0.1407000D+01 0.1407000D+01 0.1407000D+01 0.3880000D+00 0.3880000D+00
EXPONENTS  0.3880000D+00 0.1020000D+00 0.1020000D+00 0.1020000D+00 0.1057000D+01
EXPONENTS  0.1057000D+01 0.1057000D+01 0.1057000D+01 0.1057000D+01 0.1057000D+01
EXPONENTS  0.2470000D+00 0.2470000D+00 0.2470000D+00 0.2470000D+00 0.2470000D+00
EXPONENTS  0.2470000D+00
MO    1     MO 0.0        OCC NO =    2.0000000  ORB. ENERGY =  -24.466506
  0.14706800D-03  0.27416819D-03  0.46339253D-03  0.69663077D-03  0.85589139D-03
  0.72293710D-03  0.27266528D-03 -0.13494357D-05 -0.98294730D-04 -0.18403875D-03
 -0.31334172D-03 -0.48469199D-03 -0.63832230D-03 -0.66325776D-03 -0.42147053D-03
  0.28245975D-03 -0.39905754D-03  0.10324078D-02  0.19798456D-03 -0.68600786D-03
 -0.64317597D-03 -0.45797961D-03 -0.16665907D-04 -0.15625347D-04 -0.11126178D-04
 -0.34916959D-06 -0.32736868D-06 -0.23310600D-06  0.16125778D-02  0.29696845D-04
  0.11817630D-04  0.18274373D-03 -0.23337034D-04 -0.48340609D-05 -0.31579988D-05
 -0.94371859D-06 -0.19210990D-05  0.74319983D-03 -0.39074575D-03 -0.35245408D-03
 -0.99404896D-05 -0.21837714D-03  0.14333890D-04  0.55593394D-03 -0.31219957D-03
 -0.24373437D-03  0.12479053D-04 -0.10560652D-03  0.61342945D-04  0.12940325D-04
 -0.73850395D-05 -0.55552856D-05  0.17635464D-05 -0.48260469D-05 -0.71977309D-05
  0.32454863D-03  0.31805058D-04  0.45795218D-04 -0.49413335D-03 -0.21108432D-04
 -0.20645229D-03 -0.47951255D-03 -0.74306742D-04  0.69066638D-04  0.13959768D-04
  0.36605457D-04 -0.51976879D-05 -0.24859242D-05 -0.52494633D-04  0.24399963D-04
  0.17585868D-04 -0.57321739D-04 -0.88068993D-05 -0.10128095D-04 -0.13924883D-04
  0.59438149D+00  0.11079529D+01  0.18782525D+01  0.28442278D+01  0.35567168D+01
  0.30620019D+01  0.11771453D+01 -0.51007633D-02  0.18162558D-03  0.34106068D-03
  0.58076751D-03  0.90976887D-03  0.12191973D-02  0.13114111D-02  0.78736950D-03
 -0.51780731D-03  0.64321883D-01 -0.10110336D-02 -0.73223930D-03 -0.61723675D-02
 -0.60364406D-02 -0.39885315D-02 -0.47185842D-04 -0.46146723D-04 -0.30491091D-04
  0.50981451D-03  0.49858745D-03  0.32943781D-03  0.11384417D-02 -0.10638748D-04
 -0.10559452D-03  0.11952775D-02 -0.29400337D-04 -0.15569454D-03  0.77936324D-04
 -0.90230613D-06 -0.75847234D-05  0.38120863D-03 -0.14527454D-03 -0.23593410D-03
 -0.56698162D-04 -0.26957413D-03 -0.25883969D-04 -0.78082123D-03  0.39507923D-03
  0.38574201D-03  0.24918720D-04  0.23825397D-03 -0.16642618D-04 -0.25587265D-03
  0.13229048D-03  0.12358217D-03  0.18728865D-04  0.10300952D-03  0.32182534D-05
 -0.35992499D-03 -0.15834108D-04 -0.57929424D-04  0.55048573D-03  0.32346718D-04
  0.26238387D-03  0.52928925D-03  0.15155607D-04 -0.88595601D-04  0.43356559D-04
  0.34129161D-03  0.67048122D-05  0.49339895D-04 -0.52656923D-03 -0.15760971D-04
 -0.20807945D-03 -0.49730560D-03 -0.43534653D-05  0.60059761D-04 -0.27559105D-05
  0.41990057D-05  0.75730797D-05  0.11166502D-04  0.13218515D-03 -0.80192689D-04
 -0.16388679D-04 -0.32120136D-04 -0.11209995D-04 -0.16674951D-04  0.15898719D-03
  0.16163913D-03  0.52243314D-04  0.42848835D-04  0.67712791D-06 -0.93523577D-05
 -0.79138917D-04  0.69114932D-04  0.10023985D-04  0.22330674D-04  0.24563316D-04
  0.19746387D-04  0.29683233D-05  0.16320243D-04 -0.19288566D-04  0.68146095D-04
  0.16280149D-04  0.14963558D-04  0.40932336D-05  0.73823153D-05  0.10885220D-04
  0.15626246D-03 -0.23247900D-04 -0.14271424D-04 -0.33997663D-04 -0.37058653D-05
 -0.21019212D-04  0.19945784D-03 -0.81492671D-04  0.13947659D-03  0.37584952D-04
 -0.45410017D-05  0.13593338D-04 -0.62066878D-04  0.29331170D-04  0.32735708D-04
 -0.31006005D-04  0.75301821D-04 -0.60845876D-04  0.38770422D-05 -0.90064655D-05
  0.51294233D-05 -0.35575081D-04  0.64534674D-04 -0.26798384D-04  0.10181956D-04
  0.18977856D-04  0.32180156D-04  0.48706165D-04  0.60771073D-04  0.52194247D-04
  0.20038386D-04 -0.89632932D-07 -0.62527552D-05 -0.11727197D-04 -0.19992301D-04
 -0.31244074D-04 -0.41779281D-04 -0.44610531D-04 -0.27274004D-04  0.17993731D-04
 -0.14200037D-04 -0.10446584D-03 -0.91862610D-05 -0.35146359D-04 -0.34080146D-04
 -0.22990265D-04 -0.27377161D-05 -0.26546637D-05 -0.17908205D-05  0.24260051D-04
  0.23524089D-04  0.15869211D-04  0.52099408D-04  0.15763265D-04 -0.33366206D-04
  0.12775837D-03  0.35909490D-04  0.20664060D-04  0.13790864D-04 -0.40354301D-05
 -0.37364099D-06  0.11680907D-03 -0.22091822D-04 -0.94717253D-04  0.75054227D-05
 -0.67353005D-04 -0.26036966D-04 -0.24721304D-04 -0.56270438D-05  0.30348347D-04
 -0.23515983D-04  0.50008777D-06  0.31210190D-05  0.32064230D-05 -0.10556506D-04
  0.73500827D-05 -0.38923990D-04 -0.52300923D-04 -0.11598022D-04  0.82561990D-04
  0.65657831D-05  0.50268075D-04 -0.97657687D-04 -0.47652188D-04 -0.13975027D-03
 -0.15002828D-03  0.27954839D-04 -0.11053952D-04 -0.53708713D-04 -0.37381267D-04
  0.14837853D-05 -0.16471327D-04  0.33334992D-04  0.15231220D-04  0.56197175D-04
  0.78808809D-04 -0.19682576D-04 -0.67831931D-05 -0.22603801D-04 -0.10627304D-04
 -0.19166781D-04 -0.28261407D-04 -0.96918133D-05 -0.73993458D-05  0.10715886D-06
  0.78546562D-05 -0.19363885D-04  0.84406983D-05 -0.64492359D-04 -0.26108181D-05
 -0.26121362D-04 -0.54446553D-05  0.74602147D-05 -0.86456691D-05  0.88171947D-05
 -0.42316931D-04  0.33499736D-04 -0.78220408D-04 -0.14239836D-04  0.11035421D-04
 -0.10115018D-05 -0.39046914D-05  0.49161932D-05  0.19121616D-05  0.23810492D-04
 -0.53949290D-05
MO    2     MO 0.0        OCC NO =    2.0000000  ORB. ENERGY =  -18.987508
  0.26636126D-03  0.49655795D-03  0.83927040D-03  0.12616983D-02  0.15501422D-02
  0.13093429D-02  0.49383596D-03 -0.24440217D-05 -0.19350785D-03 -0.36230775D-03
 -0.61685994D-03 -0.95418853D-03 -0.12566327D-02 -0.13057219D-02 -0.82972765D-03
  0.55606417D-03 -0.32220534D-04  0.71937542D-03  0.21251926D-03 -0.46540527D-05
 -0.43634703D-05 -0.31070508D-05 -0.17750529D-03 -0.16642249D-03 -0.11850273D-03
 -0.17922629D-03 -0.16803604D-03 -0.11965167D-03 -0.47243146D-03  0.12204513D-02
  0.17036619D-02 -0.83705011D-04  0.37225486D-03  0.38552190D-03 -0.22942496D-05
  0.93010457D-05  0.16345390D-04 -0.37277232D-03 -0.25310737D-03  0.62587969D-03
 -0.60577081D-03 -0.10553309D-02  0.14087727D-02 -0.21232724D-05 -0.28049268D-03
  0.28261595D-03  0.70503471D-04  0.15749362D-03 -0.37003184D-04 -0.16195534D-04
 -0.31740682D-04  0.47936216D-04  0.54124805D-05  0.52571093D-05 -0.20531910D-04
 -0.19529088D-04 -0.49217355D-05 -0.26386468D-04  0.15341715D-03  0.53783031D-06
  0.87750517D-05 -0.94829887D-04  0.14227376D-04  0.70384351D-04  0.96081186D-04
  0.28488068D-05 -0.97871722D-05 -0.10244408D-04 -0.19207787D-05  0.86144269D-04
  0.64283559D-04 -0.66256417D-05 -0.56782753D-04 -0.33550335D-04  0.22402465D-03
  0.31497588D-05  0.58712869D-05  0.99532747D-05  0.15072191D-04  0.18847828D-04
  0.16226224D-04  0.62379530D-05 -0.27030071D-07 -0.15939466D-05 -0.29931494D-05
 -0.50968172D-05 -0.79841340D-05 -0.10699679D-04 -0.11508947D-04 -0.69099568D-05
  0.45442783D-05 -0.19073706D-04  0.41062269D-04  0.65821355D-04  0.78553014D-04
  0.76823132D-04  0.50760291D-04 -0.74105677D-05 -0.72473734D-05 -0.47886460D-05
  0.43258014D-04  0.42305393D-04  0.27952962D-04 -0.63922484D-04  0.55729020D-04
  0.45746623D-04 -0.75538100D-04 -0.25324225D-03 -0.28961702D-03 -0.12056917D-04
 -0.49073814D-05 -0.24510050D-05 -0.13703271D-03 -0.34167361D-04  0.17120007D-03
 -0.54010302D-03 -0.86372137D-03  0.24975674D-03  0.79875790D-04 -0.50209544D-05
 -0.74854835D-04  0.22008354D-03  0.33661798D-03 -0.83047785D-04  0.49715604D-04
  0.19649871D-05 -0.51680591D-04  0.15344676D-03  0.17974564D-03 -0.86748950D-04
  0.18231609D-03 -0.12744605D-03 -0.18143340D-03  0.70025975D-04  0.54580487D-03
  0.77816863D-03 -0.61697424D-03 -0.16346672D-03 -0.23386843D-03 -0.11171812D-02
 -0.96781890D-04  0.69678150D-04  0.88884485D-04 -0.37746494D-05 -0.27502637D-03
 -0.38097342D-03  0.29412032D-03  0.65991919D-04  0.11431997D-03  0.44323568D-03
  0.75608039D-05  0.13636221D-04  0.20106600D-04  0.67927092D-03  0.59923928D-03
  0.18917093D-04  0.50664366D-04  0.14982334D-03  0.24892029D-04  0.23554000D-03
  0.45397202D-03 -0.20057895D-03  0.40706531D-04  0.98224759D-04 -0.10242433D-04
  0.90346242D-04  0.15170112D-03 -0.24204736D-03  0.34210335D-03  0.64705974D-04
 -0.47615961D-03  0.68045212D-05  0.36223779D-04 -0.43028300D-04  0.34977055D-04
  0.53823260D-04 -0.24480613D-04 -0.15756741D-04 -0.28417932D-04 -0.41902224D-04
 -0.17115129D-03 -0.28363887D-03 -0.10520782D-04 -0.54139259D-05 -0.85370374D-05
  0.16760293D-04  0.20322876D-03 -0.12116090D-04 -0.39344469D-04 -0.32945717D-04
  0.55990469D-04  0.23258293D-04  0.79475820D-04  0.85954230D-04 -0.16543005D-03
 -0.22036780D-03  0.20385844D-03 -0.83257714D-04  0.31798731D-05 -0.44255068D-05
  0.12456336D-05  0.14503200D-04  0.46029220D-04 -0.11066134D-04  0.49784825D+00
  0.92792508D+00  0.15734535D+01  0.23814951D+01  0.29714106D+01  0.25520454D+01
  0.97977986D+00 -0.43826155D-02 -0.49224268D-03 -0.92321334D-03 -0.15738764D-02
 -0.24596624D-02 -0.32890373D-02 -0.35119250D-02 -0.21471221D-02  0.14165407D-02
  0.53460723D-01 -0.75749732D-03 -0.50884857D-03  0.34992175D-02  0.33930639D-02
  0.22889408D-02 -0.71520714D-02 -0.69351035D-02 -0.46783798D-02 -0.16083860D-02
 -0.15595934D-02 -0.10520925D-02 -0.10907291D-03 -0.10143196D-03  0.16856190D-02
 -0.32130877D-03  0.57872142D-03  0.82143125D-03 -0.14329415D-04  0.20895305D-04
  0.52499991D-04 -0.10047260D-02 -0.11303778D-03  0.11177638D-02 -0.10108101D-02
 -0.74283868D-04 -0.11518151D-02  0.20682859D-03  0.22876989D-03 -0.43559848D-03
  0.23109143D-03  0.91363904D-03 -0.13510751D-02  0.10206642D-03  0.28283277D-04
 -0.13034970D-03  0.81995026D-04  0.93244116D-04 -0.10279884D-03 -0.37676151D-03
  0.41467605D-03 -0.11767203D-03  0.34029402D-03  0.93813486D-03 -0.95581187D-03
  0.78999051D-03 -0.21821630D-02  0.13088280D-02 -0.21021585D-02  0.13398612D-03
 -0.19330797D-03  0.38047184D-04 -0.20504337D-05 -0.28303548D-03  0.10396239D-03
 -0.39990792D-03  0.86295939D-03 -0.21810394D-03 -0.42895963D-04  0.18220584D-03
  0.32861574D-03  0.48454372D-03 -0.51107813D-03 -0.52036602D-03 -0.37618211D-04
  0.18824333D-03 -0.54787973D-03  0.78533903D-03  0.12768611D-03 -0.56193447D-03
  0.84493832D-03 -0.30179890D-05 -0.40445419D-04  0.13639727D-03  0.10017908D-02
 -0.93479761D-04 -0.90831102D-03  0.86370737D-03 -0.11425281D-02  0.31946741D-02
  0.40807422D-04  0.23801383D-06 -0.41045436D-04  0.32791132D-04 -0.11973367D-04
  0.93226686D-04
MO    3     MO 0.0        OCC NO =    2.0000000  ORB. ENERGY =  -10.161692
  0.33109101D+00  0.61722892D+00  0.10432256D+01  0.15683098D+01  0.19268498D+01
  0.16275327D+01  0.61384545D+00 -0.30379554D-02 -0.37738571D-02 -0.70658512D-02
 -0.12030216D-01 -0.18608915D-01 -0.24507287D-01 -0.25464641D-01 -0.16181636D-01
  0.10844556D-01  0.31915663D-01 -0.23489515D-02 -0.28556625D-03  0.26793970D-02
  0.25121050D-02  0.17887684D-02  0.10700088D-02  0.10032013D-02  0.71433906D-03
  0.23610653D-02  0.22136488D-02  0.15762498D-02 -0.21042989D-02 -0.56831975D-03
 -0.17124016D-02 -0.44092239D-03  0.96060435D-04 -0.55797131D-03  0.67867193D-05
  0.72776740D-05 -0.45358592D-06 -0.92880669D-03  0.77047467D-03  0.15833203D-03
 -0.34857518D-03  0.42522240D-03 -0.51550988D-03 -0.59712929D-03  0.51472505D-03
  0.82404246D-04  0.34238663D-03  0.45109630D-03 -0.52534742D-03 -0.35842823D-04
  0.36951923D-04 -0.11090993D-05  0.28497823D-04  0.43011959D-04 -0.94998686D-04
  0.14300817D-02 -0.14155406D-02  0.41130168D-03 -0.22675554D-02  0.25239358D-03
 -0.60233206D-05 -0.20226897D-02  0.39942282D-02 -0.12278817D-02  0.10191741D-02
 -0.33503446D-03  0.21509029D-03 -0.95943852D-04  0.61943077D-03 -0.49143334D-04
  0.59983699D-04  0.38567262D-03 -0.59612754D-03  0.22784786D-03 -0.15035920D-03
  0.11586263D-04  0.21597296D-04  0.36612726D-04  0.55442457D-04  0.69330987D-04
  0.59687522D-04  0.22946062D-04 -0.99429045D-07 -0.32706394D-04 -0.61416816D-04
 -0.10458225D-03 -0.16382747D-03 -0.21954808D-03 -0.23615356D-03 -0.14178629D-03
  0.93244629D-04  0.30488137D-03  0.24468507D-02  0.80519090D-03 -0.81707766D-03
 -0.79908411D-03 -0.52798866D-03 -0.44510132D-04 -0.43529937D-04 -0.28762070D-04
  0.38671482D-04  0.37819865D-04  0.24989184D-04 -0.39480303D-03  0.52774758D-04
  0.49134613D-04 -0.32818153D-03 -0.62571043D-04  0.19077604D-03 -0.62822469D-04
 -0.19312518D-04 -0.20506543D-04  0.21816675D-02 -0.10158690D-02 -0.11657985D-02
 -0.12299931D-03 -0.39471893D-03 -0.21168425D-04 -0.10365362D-02  0.48486545D-03
  0.55167080D-03  0.53441555D-04  0.16992451D-03 -0.14140235D-05 -0.29899157D-03
  0.11405968D-03  0.18493189D-03  0.53495097D-04  0.38761683D-04  0.69167627D-04
 -0.87103913D-03  0.30032821D-03 -0.26073360D-03  0.11220593D-02  0.31110468D-03
  0.63731533D-03  0.14910581D-02 -0.12120893D-02  0.14488547D-03  0.23383633D-03
  0.96409545D-03 -0.87974783D-04  0.18870075D-03 -0.13715322D-02 -0.16299210D-03
 -0.60403038D-03 -0.15207542D-02  0.42691645D-03  0.37928139D-04 -0.10737147D-03
 -0.30704305D-04 -0.55376479D-04 -0.81652586D-04 -0.81573556D-03 -0.28261531D-03
  0.13891746D-04 -0.61581322D-03 -0.20442259D-02 -0.20244571D-03 -0.91564850D-03
 -0.28087067D-02 -0.29627441D-03 -0.69315797D-04 -0.20087406D-03 -0.10996271D-03
  0.10125910D-02 -0.22386804D-02  0.12260894D-02 -0.19826026D-02 -0.31602453D-03
 -0.70647962D-03  0.18074330D-03 -0.34063485D-03  0.15989155D-03 -0.34747275D-03
 -0.14408018D-03 -0.13640670D-03 -0.43777714D-04 -0.78954909D-04 -0.11641897D-03
 -0.10513184D-02 -0.11873666D-02 -0.16089446D-05 -0.83812205D-03  0.13298163D-02
 -0.16134489D-02 -0.12877918D-02  0.19302994D-02 -0.20233088D-02 -0.19345514D-03
  0.14249090D-03 -0.28339829D-03  0.73617043D-03 -0.19727834D-03 -0.53889209D-03
  0.16912155D-02 -0.21858203D-02  0.34251083D-02  0.13015090D-03 -0.98224738D-05
 -0.12032843D-03  0.17524491D-03 -0.44460211D-03  0.49460361D-03  0.13218646D-03
  0.24637855D-03  0.41777638D-03  0.63232402D-03  0.78895575D-03  0.67760777D-03
  0.26014680D-03 -0.11636526D-05 -0.12549876D-03 -0.23537604D-03 -0.40126455D-03
 -0.62709838D-03 -0.83855003D-03 -0.89537593D-03 -0.54741528D-03  0.36115136D-03
  0.52713482D-03  0.25194186D-02  0.69392774D-03  0.29300511D-03  0.28411639D-03
  0.19166324D-03 -0.26541135D-03 -0.25735973D-03 -0.17361336D-03 -0.13830036D-02
 -0.13410483D-02 -0.90466326D-03  0.19877647D-04 -0.34182302D-03  0.75900308D-03
  0.21199856D-03 -0.70932644D-03  0.43167743D-03 -0.52790068D-06 -0.40916951D-04
 -0.35768926D-04 -0.70903484D-03 -0.56558115D-03  0.12746160D-02 -0.44888454D-04
 -0.10537502D-02  0.18277411D-02  0.49766501D-03  0.63867470D-03 -0.11363397D-02
  0.24157444D-04  0.12872577D-02 -0.22714651D-02  0.10350909D-03  0.19600850D-03
 -0.29951759D-03 -0.10143312D-03  0.28629725D-03 -0.37512446D-03 -0.20377252D-03
 -0.10511123D-03  0.14484992D-03  0.56730476D-03 -0.11031706D-04 -0.77208467D-03
  0.44012816D-04  0.32636540D-03  0.33753492D-03 -0.22929453D-02  0.28520937D-03
 -0.34748789D-03 -0.13335720D-04  0.65470655D-04 -0.22237339D-03 -0.26539587D-03
 -0.92109877D-03  0.12648370D-02  0.30540302D-03 -0.64564218D-03  0.71075389D-04
  0.12818739D-03  0.18901223D-03 -0.15578813D-02 -0.18973016D-03  0.84735226D-05
  0.25661581D-04  0.83290618D-04  0.84793907D-03 -0.68484409D-04  0.21630549D-03
  0.11142927D-02 -0.24165941D-05  0.45961787D-04  0.31411336D-04  0.23886368D-03
  0.58857642D-03 -0.82744009D-03 -0.14041950D-03 -0.15984813D-04  0.32903264D-03
 -0.83387940D-05  0.58993265D-04 -0.50654471D-04 -0.57023556D-04 -0.29315772D-04
 -0.92148032D-06
MO    4     MO 0.0        OCC NO =    2.0000000  ORB. ENERGY =   -1.165258
 -0.34573722D-02 -0.64453278D-02 -0.10893739D-01 -0.16376859D-01 -0.20120863D-01
 -0.16995285D-01 -0.64099964D-02  0.31723430D-04 -0.17201914D-01 -0.32207411D-01
 -0.54835873D-01 -0.84822757D-01 -0.11170859D+00 -0.11607238D+00 -0.73758785D-01
  0.49431423D-01  0.22942797D-01 -0.13776819D-01 -0.96961991D-03  0.10905227D+00
  0.10224343D+00  0.72803414D-01  0.69865331D-02  0.65503189D-02  0.46642173D-02
  0.86840858D-02  0.81418824D-02  0.57975053D-02  0.23650387D-01  0.20589853D-02
  0.29083076D-02 -0.81275990D-03  0.21947437D-03  0.10780250D-03 -0.24973514D-04
  0.30613726D-04 -0.24694822D-04  0.17965333D-01 -0.10618151D-01 -0.73471817D-02
 -0.27893532D-03 -0.51199496D-02  0.37498287D-02  0.40974224D-02 -0.26779407D-02
 -0.14194817D-02 -0.44411107D-03 -0.13061512D-02  0.11339851D-02 -0.14382722D-03
  0.11485618D-03  0.28971046D-04 -0.30983775D-04 -0.15081819D-03 -0.80958962D-04
  0.37436365D-02 -0.81073076D-03  0.10187472D-02 -0.59444128D-02 -0.22163436D-03
 -0.26287825D-02 -0.52864965D-02  0.26538267D-02 -0.42745906D-03 -0.45113786D-04
  0.91807528D-04  0.51117458D-03 -0.20142396D-03 -0.70632763D-04 -0.33909814D-04
  0.63664045D-04 -0.20478982D-03 -0.14996139D-02  0.54060782D-03 -0.49728532D-03
 -0.84065387D-02 -0.15670152D-01 -0.26564761D-01 -0.40226877D-01 -0.50303851D-01
 -0.43306930D-01 -0.16648765D-01  0.72141823D-04 -0.11877869D+00 -0.22304535D+00
 -0.37980776D+00 -0.59496661D+00 -0.79732525D+00 -0.85763081D+00 -0.51492041D+00
  0.33863333D+00  0.20109246D+00  0.97794461D-01  0.41218567D-02 -0.31277472D+00
 -0.30588685D+00 -0.20211237D+00 -0.55348054D-03 -0.54129188D-03 -0.35765443D-03
  0.31521500D-01  0.30827338D-01  0.20368926D-01 -0.79091583D-01  0.48400788D-05
  0.77138745D-02 -0.76128468D-02 -0.22340727D-03  0.77722164D-03 -0.13291920D-03
  0.69164562D-05  0.96606430D-04  0.25439840D-01 -0.13341955D-01 -0.12097885D-01
 -0.11669429D-03 -0.71712296D-02  0.46964851D-03  0.15636960D-01 -0.80934758D-02
 -0.75434843D-02 -0.34172340D-03 -0.44395109D-02  0.71995964D-04 -0.23404629D-03
  0.10448964D-03  0.12955665D-03  0.10907527D-03  0.17570117D-03 -0.73130582D-04
 -0.55141895D-02 -0.66004606D-04 -0.97180587D-03  0.85585294D-02  0.24936904D-03
  0.35251249D-02  0.79840391D-02 -0.51355216D-04 -0.60970730D-03 -0.39624646D-03
 -0.23984604D-02 -0.70591882D-04 -0.28864760D-03  0.37319797D-02  0.16036499D-03
  0.14226200D-02  0.34634016D-02  0.51410658D-04 -0.55667717D-03  0.60115399D-04
  0.23820266D-02  0.42960831D-02  0.63345721D-02  0.95374283D-02  0.23418910D-02
  0.11527456D-03  0.26628730D-02  0.23023256D-02  0.19750884D-03  0.22966148D-02
  0.10486272D-02  0.50868280D-03  0.36725058D-04  0.36957948D-03 -0.58266465D-05
  0.71191736D-03 -0.33304135D-03 -0.37887601D-03  0.25869613D-02  0.26709510D-03
  0.38707919D-03  0.19830705D-03 -0.25796495D-03  0.59657903D-04 -0.41578011D-03
 -0.31171951D-04  0.61629031D-04  0.23053663D-02  0.41578230D-02  0.61307076D-02
  0.90675503D-02  0.22430696D-02 -0.19051578D-04  0.27439154D-02 -0.12590784D-02
  0.16843144D-02  0.22850258D-02 -0.32322527D-03  0.66373303D-03 -0.28179708D-04
 -0.29422359D-03  0.26170653D-03  0.95577688D-03 -0.53673197D-03 -0.41904491D-03
 -0.14280182D-02  0.19517704D-02 -0.37177222D-04  0.19894958D-03 -0.10856348D-03
 -0.90386102D-04  0.30867844D-03 -0.33832413D-03  0.22571737D-03 -0.15740007D-02
 -0.29337349D-02 -0.49746423D-02 -0.75293528D-02 -0.93944340D-02 -0.80685659D-02
 -0.30976793D-02  0.13856110D-04 -0.15488209D-01 -0.29048520D-01 -0.49521358D-01
 -0.77392244D-01 -0.10348818D+00 -0.11050124D+00 -0.67558294D-01  0.44570859D-01
  0.23495941D-01  0.13618871D-01  0.62713412D-03  0.45435339D-01  0.44056996D-01
  0.29720589D-01 -0.48216433D-01 -0.46753721D-01 -0.31539784D-01 -0.40150311D-01
 -0.38932296D-01 -0.26263497D-01  0.11926356D-01 -0.11819323D-01 -0.10518921D-01
  0.20097747D-02 -0.68045228D-03 -0.15277946D-02 -0.31070764D-04 -0.39188379D-04
  0.45193819D-04 -0.23015714D-02 -0.12203237D-02  0.35218952D-02 -0.74673380D-02
 -0.65820896D-02  0.26489537D-02 -0.16434894D-03 -0.92954859D-03  0.10938975D-02
 -0.20248606D-02 -0.36501776D-02  0.17413971D-02  0.31428794D-03 -0.18992938D-03
 -0.12435856D-03  0.15799937D-03 -0.31067248D-03  0.25354408D-03 -0.92697021D-03
  0.89100298D-03 -0.13056753D-04 -0.27625074D-03 -0.32564200D-03 -0.12097772D-02
  0.30571614D-02 -0.23473669D-02  0.12489475D-02  0.43013653D-02 -0.23479538D-04
  0.19396379D-03  0.24585991D-03 -0.25290953D-03 -0.45878629D-04 -0.32557612D-03
  0.32334814D-03 -0.53601275D-03 -0.41200360D-03  0.65991062D-03  0.30713855D-02
  0.55393703D-02  0.81677983D-02  0.42607445D-02  0.79439456D-04  0.24523542D-05
 -0.35043537D-03  0.20660103D-02 -0.43300384D-02  0.57322729D-03 -0.31015932D-03
 -0.18824243D-02  0.19825953D-03 -0.45853517D-04 -0.96592304D-04 -0.55773001D-03
 -0.69791543D-03  0.12556454D-02  0.49800296D-03 -0.21286371D-03 -0.97965254D-03
 -0.98607145D-05 -0.15910039D-03  0.16896111D-03 -0.41156324D-04 -0.33863072D-03
  0.60887923D-04
MO    5     MO 0.0        OCC NO =    2.0000000  ORB. ENERGY =   -1.024706
 -0.31734996D-02 -0.59161248D-02 -0.99992931D-02 -0.15032213D-01 -0.18468810D-01
 -0.15599863D-01 -0.58836943D-02  0.29118731D-04 -0.15658116D-01 -0.29316933D-01
 -0.49914586D-01 -0.77210276D-01 -0.10168322D+00 -0.10565538D+00 -0.67139248D-01
  0.44995163D-01  0.21164970D-01 -0.23369019D-02 -0.68658897D-03 -0.73965304D-01
 -0.69347174D-01 -0.49379319D-01  0.52868410D-01  0.49567495D-01  0.35295009D-01
  0.13252950D+00  0.12425483D+00  0.88476844D-01 -0.13027574D-01  0.93208683D-02
  0.24610016D-01  0.53900306D-03 -0.51701782D-04 -0.13651232D-02  0.21246663D-04
  0.33380400D-04 -0.65232503D-04 -0.13985577D-01 -0.28313233D-02  0.16816900D-01
 -0.49563058D-02 -0.10539512D-01  0.19660852D-01 -0.20476540D-02 -0.31478355D-03
  0.23624376D-02 -0.75678285D-03 -0.14091631D-02  0.23043451D-02  0.75668868D-04
  0.38114940D-04 -0.11378381D-03  0.17185454D-04  0.99712175D-04 -0.20699685D-03
  0.10594899D-02 -0.18737313D-02  0.11906941D-02 -0.22219927D-03 -0.36598975D-04
 -0.14558216D-02 -0.29562704D-02  0.56577928D-02 -0.21162607D-02 -0.29674819D-02
 -0.34115537D-03 -0.15994178D-04  0.63270864D-05  0.83947822D-03 -0.15760738D-03
 -0.97444897D-04  0.18398790D-03  0.20558992D-03  0.78463638D-04 -0.37515217D-03
  0.17597913D-02  0.32803271D-02  0.55609610D-02  0.84209338D-02  0.10530407D-01
  0.90656998D-02  0.34851860D-02 -0.15101881D-04  0.31604427D-01  0.59347517D-01
  0.10105859D+00  0.15830768D+00  0.21215091D+00  0.22819691D+00  0.13700913D+00
 -0.90102965D-01 -0.54398751D-01 -0.26219772D-01 -0.97301997D-03 -0.67172977D-02
 -0.65693704D-02 -0.43406608D-02  0.16148906D-01  0.15793277D-01  0.10435286D-01
  0.39337221D-01  0.38470943D-01  0.25419378D-01  0.11068870D-02  0.38059158D-02