 Molden2AIM, Version 4.0.0 (06/02/2016)           Time: Sat Jun 30 05:09:09 2018
GAUSSIAN             11 MOL ORBITALS    279 PRIMITIVES        5 NUCLEI
  C    1    (CENTRE  1)   0.00000000  0.00000000 -2.30217019  CHARGE =  6.0
  N    2    (CENTRE  2)   0.00000000  0.00000000  0.14302203  CHARGE =  7.0
  H    3    (CENTRE  3)   1.81348890  0.00000000 -3.25577324  CHARGE =  1.0
  H    4    (CENTRE  4)  -1.81348890  0.00000000 -3.25577324  CHARGE =  1.0
  N    5    (CENTRE  5)   0.00000000  0.00000000  2.29683738  CHARGE =  7.0
CENTRE ASSIGNMENTS    1  1  1  1  1  1  1  1  1  1  1  1  1  1  1  1  1  1  1  1
CENTRE ASSIGNMENTS    1  1  1  1  1  1  1  1  1  1  1  1  1  1  1  1  1  1  1  1
CENTRE ASSIGNMENTS    1  1  1  1  1  1  1  1  1  1  1  1  1  1  1  1  1  1  1  1
CENTRE ASSIGNMENTS    1  1  1  1  1  1  1  1  1  1  1  1  1  1  1  2  2  2  2  2
CENTRE ASSIGNMENTS    2  2  2  2  2  2  2  2  2  2  2  2  2  2  2  2  2  2  2  2
CENTRE ASSIGNMENTS    2  2  2  2  2  2  2  2  2  2  2  2  2  2  2  2  2  2  2  2
CENTRE ASSIGNMENTS    2  2  2  2  2  2  2  2  2  2  2  2  2  2  2  2  2  2  2  2
CENTRE ASSIGNMENTS    2  2  2  2  2  2  2  2  2  2  3  3  3  3  3  3  3  3  3  3
CENTRE ASSIGNMENTS    3  3  3  3  3  3  3  3  3  3  3  3  3  3  3  3  3  4  4  4
CENTRE ASSIGNMENTS    4  4  4  4  4  4  4  4  4  4  4  4  4  4  4  4  4  4  4  4
CENTRE ASSIGNMENTS    4  4  4  4  5  5  5  5  5  5  5  5  5  5  5  5  5  5  5  5
CENTRE ASSIGNMENTS    5  5  5  5  5  5  5  5  5  5  5  5  5  5  5  5  5  5  5  5
CENTRE ASSIGNMENTS    5  5  5  5  5  5  5  5  5  5  5  5  5  5  5  5  5  5  5  5
CENTRE ASSIGNMENTS    5  5  5  5  5  5  5  5  5  5  5  5  5  5  5  5  5  5  5
TYPE ASSIGNMENTS      1  1  1  1  1  1  1  1  1  1  1  1  1  1  1  1  1  1  1  2
TYPE ASSIGNMENTS      2  2  3  3  3  4  4  4  2  3  4  2  3  4  2  3  4  5  6  7
TYPE ASSIGNMENTS      8  9 10  5  6  7  8  9 10  5  6  7  8  9 10 11 12 13 17 14
TYPE ASSIGNMENTS     15 18 19 16 20 11 12 13 17 14 15 18 19 16 20  1  1  1  1  1
TYPE ASSIGNMENTS      1  1  1  1  1  1  1  1  1  1  1  1  1  1  2  2  2  3  3  3
TYPE ASSIGNMENTS      4  4  4  2  3  4  2  3  4  2  3  4  5  6  7  8  9 10  5  6
TYPE ASSIGNMENTS      7  8  9 10  5  6  7  8  9 10 11 12 13 17 14 15 18 19 16 20
TYPE ASSIGNMENTS     11 12 13 17 14 15 18 19 16 20  1  1  1  1  1  1  2  3  4  2
TYPE ASSIGNMENTS      3  4  2  3  4  5  6  7  8  9 10  5  6  7  8  9 10  1  1  1
TYPE ASSIGNMENTS      1  1  1  2  3  4  2  3  4  2  3  4  5  6  7  8  9 10  5  6
TYPE ASSIGNMENTS      7  8  9 10  1  1  1  1  1  1  1  1  1  1  1  1  1  1  1  1
TYPE ASSIGNMENTS      1  1  1  2  2  2  3  3  3  4  4  4  2  3  4  2  3  4  2  3
TYPE ASSIGNMENTS      4  5  6  7  8  9 10  5  6  7  8  9 10  5  6  7  8  9 10 11
TYPE ASSIGNMENTS     12 13 17 14 15 18 19 16 20 11 12 13 17 14 15 18 19 16 20
EXPONENTS  0.8236000D+04 0.1235000D+04 0.2808000D+03 0.7927000D+02 0.2559000D+02
EXPONENTS  0.8997000D+01 0.3319000D+01 0.3643000D+00 0.8236000D+04 0.1235000D+04
EXPONENTS  0.2808000D+03 0.7927000D+02 0.2559000D+02 0.8997000D+01 0.3319000D+01
EXPONENTS  0.3643000D+00 0.9059000D+00 0.1285000D+00 0.4402000D-01 0.1871000D+02
EXPONENTS  0.4133000D+01 0.1200000D+01 0.1871000D+02 0.4133000D+01 0.1200000D+01
EXPONENTS  0.1871000D+02 0.4133000D+01 0.1200000D+01 0.3827000D+00 0.3827000D+00
EXPONENTS  0.3827000D+00 0.1209000D+00 0.1209000D+00 0.1209000D+00 0.3569000D-01
EXPONENTS  0.3569000D-01 0.3569000D-01 0.1097000D+01 0.1097000D+01 0.1097000D+01
EXPONENTS  0.1097000D+01 0.1097000D+01 0.1097000D+01 0.3180000D+00 0.3180000D+00
EXPONENTS  0.3180000D+00 0.3180000D+00 0.3180000D+00 0.3180000D+00 0.1000000D+00
EXPONENTS  0.1000000D+00 0.1000000D+00 0.1000000D+00 0.1000000D+00 0.1000000D+00
EXPONENTS  0.7610000D+00 0.7610000D+00 0.7610000D+00 0.7610000D+00 0.7610000D+00
EXPONENTS  0.7610000D+00 0.7610000D+00 0.7610000D+00 0.7610000D+00 0.7610000D+00
EXPONENTS  0.2680000D+00 0.2680000D+00 0.2680000D+00 0.2680000D+00 0.2680000D+00
EXPONENTS  0.2680000D+00 0.2680000D+00 0.2680000D+00 0.2680000D+00 0.2680000D+00
EXPONENTS  0.1142000D+05 0.1712000D+04 0.3893000D+03 0.1100000D+03 0.3557000D+02
EXPONENTS  0.1254000D+02 0.4644000D+01 0.5118000D+00 0.1142000D+05 0.1712000D+04
EXPONENTS  0.3893000D+03 0.1100000D+03 0.3557000D+02 0.1254000D+02 0.4644000D+01
EXPONENTS  0.5118000D+00 0.1293000D+01 0.1787000D+00 0.5760000D-01 0.2663000D+02
EXPONENTS  0.5948000D+01 0.1742000D+01 0.2663000D+02 0.5948000D+01 0.1742000D+01
EXPONENTS  0.2663000D+02 0.5948000D+01 0.1742000D+01 0.5550000D+00 0.5550000D+00
EXPONENTS  0.5550000D+00 0.1725000D+00 0.1725000D+00 0.1725000D+00 0.4910000D-01
EXPONENTS  0.4910000D-01 0.4910000D-01 0.1654000D+01 0.1654000D+01 0.1654000D+01
EXPONENTS  0.1654000D+01 0.1654000D+01 0.1654000D+01 0.4690000D+00 0.4690000D+00
EXPONENTS  0.4690000D+00 0.4690000D+00 0.4690000D+00 0.4690000D+00 0.1510000D+00
EXPONENTS  0.1510000D+00 0.1510000D+00 0.1510000D+00 0.1510000D+00 0.1510000D+00
EXPONENTS  0.1093000D+01 0.1093000D+01 0.1093000D+01 0.1093000D+01 0.1093000D+01
EXPONENTS  0.1093000D+01 0.1093000D+01 0.1093000D+01 0.1093000D+01 0.1093000D+01
EXPONENTS  0.3640000D+00 0.3640000D+00 0.3640000D+00 0.3640000D+00 0.3640000D+00
EXPONENTS  0.3640000D+00 0.3640000D+00 0.3640000D+00 0.3640000D+00 0.3640000D+00
EXPONENTS  0.3387000D+02 0.5095000D+01 0.1159000D+01 0.3258000D+00 0.1027000D+00
EXPONENTS  0.2526000D-01 0.1407000D+01 0.1407000D+01 0.1407000D+01 0.3880000D+00
EXPONENTS  0.3880000D+00 0.3880000D+00 0.1020000D+00 0.1020000D+00 0.1020000D+00
EXPONENTS  0.1057000D+01 0.1057000D+01 0.1057000D+01 0.1057000D+01 0.1057000D+01
EXPONENTS  0.1057000D+01 0.2470000D+00 0.2470000D+00 0.2470000D+00 0.2470000D+00
EXPONENTS  0.2470000D+00 0.2470000D+00 0.3387000D+02 0.5095000D+01 0.1159000D+01
EXPONENTS  0.3258000D+00 0.1027000D+00 0.2526000D-01 0.1407000D+01 0.1407000D+01
EXPONENTS  0.1407000D+01 0.3880000D+00 0.3880000D+00 0.3880000D+00 0.1020000D+00
EXPONENTS  0.1020000D+00 0.1020000D+00 0.1057000D+01 0.1057000D+01 0.1057000D+01
EXPONENTS  0.1057000D+01 0.1057000D+01 0.1057000D+01 0.2470000D+00 0.2470000D+00
EXPONENTS  0.2470000D+00 0.2470000D+00 0.2470000D+00 0.2470000D+00 0.1142000D+05
EXPONENTS  0.1712000D+04 0.3893000D+03 0.1100000D+03 0.3557000D+02 0.1254000D+02
EXPONENTS  0.4644000D+01 0.5118000D+00 0.1142000D+05 0.1712000D+04 0.3893000D+03
EXPONENTS  0.1100000D+03 0.3557000D+02 0.1254000D+02 0.4644000D+01 0.5118000D+00
EXPONENTS  0.1293000D+01 0.1787000D+00 0.5760000D-01 0.2663000D+02 0.5948000D+01
EXPONENTS  0.1742000D+01 0.2663000D+02 0.5948000D+01 0.1742000D+01 0.2663000D+02
EXPONENTS  0.5948000D+01 0.1742000D+01 0.5550000D+00 0.5550000D+00 0.5550000D+00
EXPONENTS  0.1725000D+00 0.1725000D+00 0.1725000D+00 0.4910000D-01 0.4910000D-01
EXPONENTS  0.4910000D-01 0.1654000D+01 0.1654000D+01 0.1654000D+01 0.1654000D+01
EXPONENTS  0.1654000D+01 0.1654000D+01 0.4690000D+00 0.4690000D+00 0.4690000D+00
EXPONENTS  0.4690000D+00 0.4690000D+00 0.4690000D+00 0.1510000D+00 0.1510000D+00
EXPONENTS  0.1510000D+00 0.1510000D+00 0.1510000D+00 0.1510000D+00 0.1093000D+01
EXPONENTS  0.1093000D+01 0.1093000D+01 0.1093000D+01 0.1093000D+01 0.1093000D+01
EXPONENTS  0.1093000D+01 0.1093000D+01 0.1093000D+01 0.1093000D+01 0.3640000D+00
EXPONENTS  0.3640000D+00 0.3640000D+00 0.3640000D+00 0.3640000D+00 0.3640000D+00
EXPONENTS  0.3640000D+00 0.3640000D+00 0.3640000D+00 0.3640000D+00
MO    1     MO 0.0        OCC NO =    2.0000000  ORB. ENERGY =  -14.297117
  0.18829032D-03  0.35101597D-03  0.59327882D-03  0.89189241D-03  0.10957929D-02
  0.92557226D-03  0.34909180D-03 -0.17276748D-05 -0.15069721D-03 -0.28215272D-03
 -0.48038914D-03 -0.74308896D-03 -0.97862201D-03 -0.10168510D-02 -0.64616314D-03
  0.43304351D-03  0.47568087D-03 -0.30082848D-02  0.18916445D-03  0.17435215D-14
  0.16346623D-14  0.11639769D-14 -0.12507045D-15 -0.11726150D-15 -0.83497172D-16
  0.84801735D-03  0.79507017D-03  0.56613732D-03 -0.10583007D-13  0.78614287D-18
  0.26691005D-04 -0.24935065D-13 -0.78146969D-18 -0.85494833D-03 -0.16306342D-15
 -0.27538511D-20  0.16889106D-04 -0.27757483D-03 -0.57529870D-03  0.85287353D-03
  0.15977088D-18  0.26254295D-14  0.79063634D-18  0.51839148D-03  0.38061796D-03
 -0.89900944D-03 -0.26818478D-18  0.72093849D-14 -0.55874642D-18  0.54180989D-04
  0.31423154D-04 -0.85604143D-04  0.33066947D-19  0.17201027D-14 -0.47974108D-19
 -0.60676636D-15  0.11673358D-18 -0.51622498D-03  0.89617350D-15 -0.32979305D-18
  0.11300808D-02  0.92412558D-15 -0.20407691D-19  0.41859410D-03 -0.51217935D-19
 -0.44541392D-15  0.33001441D-19 -0.16360157D-03  0.14253205D-14  0.24670480D-18
  0.58733393D-03 -0.89078741D-16 -0.34570912D-18 -0.96529213D-04  0.15742676D-18
  0.41336970D+00  0.77025358D+00  0.13026919D+01  0.19617818D+01  0.24288132D+01
  0.20668104D+01  0.78645948D+00 -0.36833252D-02 -0.22427313D-02 -0.42051421D-02
 -0.71541979D-02 -0.11109714D-01 -0.14743237D-01 -0.15537348D-01 -0.96341467D-02
  0.64086381D-02  0.42346173D-01  0.34326724D-02  0.32319888D-04  0.12192623D-14
  0.11710869D-14  0.82124694D-15 -0.19655044D-16 -0.18878435D-16 -0.13238862D-16
  0.84302434D-04  0.80971480D-04  0.56782791D-04 -0.19115611D-14  0.28639589D-17
  0.49271244D-02  0.19009588D-15 -0.41806394D-18 -0.28221579D-02 -0.68093050D-15
 -0.32180794D-19  0.66688798D-04 -0.34655086D-02 -0.42602289D-02  0.77257375D-02
 -0.66551395D-18  0.19402870D-15  0.44533949D-17 -0.27291414D-03  0.18017603D-03
  0.92738110D-04 -0.40343534D-20  0.79648471D-16 -0.12779028D-17  0.18026546D-03
  0.23774238D-03 -0.41800784D-03 -0.39310546D-19 -0.34818501D-14 -0.33072844D-18
 -0.10310266D-15 -0.69471094D-18  0.15859361D-02  0.57498540D-15 -0.24370788D-18
 -0.23986825D-02 -0.26567741D-15  0.23278407D-17 -0.23591258D-02 -0.20131202D-17
  0.26492539D-15  0.12825708D-18 -0.24656153D-03 -0.29152756D-15 -0.76578157D-19
  0.64533177D-03 -0.50324862D-15 -0.30819307D-18  0.94352823D-04  0.20194698D-18
  0.80865951D-04  0.14584507D-03  0.21504847D-03  0.93590720D-03 -0.81926814D-04
  0.43802506D-05 -0.28103772D-03 -0.14748666D-18  0.27794368D-03 -0.21211283D-03
  0.32853291D-18 -0.81069198D-03 -0.41965661D-04  0.12273596D-18 -0.78296681D-04
  0.27978967D-03  0.19955576D-03 -0.47934543D-03 -0.19938484D-18  0.43079049D-03
  0.11170121D-18  0.61207636D-04  0.80465193D-04 -0.14167283D-03 -0.53375785D-18
  0.86896933D-04  0.13749029D-18  0.80865951D-04  0.14584507D-03  0.21504847D-03
  0.93590720D-03 -0.81926814D-04  0.43802506D-05  0.28103772D-03  0.24146912D-18
  0.27794368D-03  0.21211283D-03 -0.25252229D-18 -0.81069198D-03  0.41965661D-04
  0.12377204D-18 -0.78296681D-04  0.27978967D-03  0.19955576D-03 -0.47934543D-03
  0.55761367D-18 -0.43079049D-03 -0.22427337D-18  0.61207636D-04  0.80465193D-04
 -0.14167283D-03  0.15957347D-18 -0.86896933D-04  0.11567536D-18  0.24736722D-02
  0.46093239D-02  0.77955224D-02  0.11739625D-01  0.14534417D-01  0.12368133D-01
  0.47063027D-02 -0.22041623D-04  0.63378025D-04  0.11883439D-03  0.20217265D-03
  0.31395278D-03  0.41663360D-03  0.43907463D-03  0.27225428D-03 -0.18110365D-03
  0.18852134D-02  0.12470018D-02 -0.60426632D-03  0.53504645D-15  0.51390572D-15
  0.36038616D-15  0.26336423D-18  0.25295819D-18  0.17739175D-18 -0.30403439D-02
 -0.29202140D-02 -0.20478556D-02 -0.27068497D-15 -0.34943883D-18  0.37252088D-02
  0.44515513D-14  0.74684700D-18  0.12469522D-02  0.36849531D-15  0.62675494D-19
  0.54724108D-04  0.80342791D-03  0.47617930D-03 -0.12796072D-02  0.12866602D-18
  0.14010491D-14  0.12237417D-17  0.12202409D-02  0.15012989D-02 -0.27215397D-02
 -0.41905536D-19 -0.14348437D-14  0.77327226D-19  0.11762426D-03  0.10550334D-03
 -0.22312760D-03 -0.60516959D-20 -0.84254705D-15 -0.26669098D-18 -0.16409420D-15
  0.36870621D-18  0.21207577D-02 -0.66483556D-15  0.15233373D-18 -0.30860946D-02
  0.11571182D-14 -0.12584524D-17 -0.32761786D-02 -0.26737857D-18 -0.63044956D-16
 -0.78099773D-19  0.35954252D-03  0.16861278D-15  0.97924856D-20 -0.48769875D-03
  0.20522090D-16  0.22450683D-18 -0.59092881D-03  0.32960592D-19
MO    2     MO 0.0        OCC NO =    2.0000000  ORB. ENERGY =  -14.224618
 -0.36986465D-03 -0.68951180D-03 -0.11653964D-02 -0.17519725D-02 -0.21525007D-02
 -0.18181309D-02 -0.68573209D-03  0.33937264D-05  0.28423970D-03  0.53218640D-03
  0.90609288D-03  0.14015879D-02  0.18458420D-02  0.19179480D-02  0.12187699D-02
 -0.81679123D-03 -0.12246566D-02 -0.26136548D-02 -0.83300029D-04 -0.18600143D-14
 -0.17438816D-14 -0.12417476D-14  0.19127152D-15  0.17932920D-15  0.12769308D-15
 -0.10859359D-02 -0.10181340D-02 -0.72497204D-03  0.70569033D-14 -0.66878684D-16
  0.50257855D-03  0.90830082D-14  0.15411102D-16 -0.93218683D-03  0.86885560D-16
 -0.39539889D-19  0.15577312D-04  0.11764458D-03 -0.65284264D-04 -0.52360321D-04
  0.11948609D-17 -0.20233316D-14 -0.35842977D-17 -0.18196865D-03 -0.19458092D-03
  0.37654957D-03 -0.21191294D-17 -0.45029233D-14  0.40278151D-17 -0.20401012D-04
  0.10954575D-04  0.94464369D-05 -0.29816145D-19 -0.61862865D-15  0.62521769D-18
  0.36038918D-15  0.13436587D-17 -0.16104789D-03 -0.89854917D-15 -0.55003892D-17
  0.35907815D-03 -0.18261838D-15  0.14694130D-17  0.12406553D-03  0.36953021D-18
  0.11000060D-15 -0.13473938D-18 -0.29384082D-04 -0.59046044D-15  0.58566087D-18
  0.23063298D-03  0.26045865D-15 -0.18144272D-18 -0.14248073D-03  0.11682356D-17
 -0.27160201D-02 -0.50609035D-02 -0.85592566D-02 -0.12889766D-01 -0.15958367D-01
 -0.13579850D-01 -0.51673834D-02  0.24201061D-04 -0.97959563D-05 -0.18367510D-04
 -0.31248599D-04 -0.48525775D-04 -0.64396526D-04 -0.67865098D-04 -0.42080690D-04
  0.27992091D-04  0.20469236D-02 -0.12577274D-01 -0.17044789D-02 -0.40540317D-15
 -0.38938490D-15 -0.27306357D-15  0.10873500D-17  0.10443867D-17  0.73239606D-18
  0.35383496D-02  0.33985425D-02  0.23832926D-02  0.56817629D-15 -0.50256215D-19
 -0.36159639D-02 -0.33971512D-15  0.88217147D-18 -0.10604510D-01  0.20080320D-15
  0.32465143D-19 -0.22811307D-03  0.30396715D-03 -0.16265352D-03 -0.14131364D-03
  0.66308159D-18  0.23797496D-15  0.65784757D-17  0.20320694D-02  0.23113666D-02
 -0.43434360D-02 -0.38209477D-18 -0.36977635D-15  0.28143150D-17  0.33737949D-03
  0.33840510D-03 -0.67578459D-03 -0.12019195D-18  0.93789827D-15  0.49477167D-18
  0.14952458D-15  0.67157973D-18 -0.18932970D-02 -0.55105704D-16  0.13710597D-17
  0.28642887D-02 -0.39346803D-15 -0.33857988D-17  0.28156022D-02 -0.14516261D-17
 -0.10263494D-15 -0.29686478D-18 -0.99482297D-03  0.94971159D-16 -0.52564407D-18
  0.16173097D-02  0.21293365D-15  0.14162384D-17  0.13671592D-02  0.73528683D-18
  0.42318882D-04  0.76323847D-04  0.11253947D-03  0.53963783D-03 -0.14518512D-03
  0.67512870D-05 -0.22681815D-03 -0.32636232D-17 -0.69891032D-05  0.52721895D-04
  0.54071055D-17 -0.23914166D-03  0.67319465D-04  0.90103170D-18  0.47392729D-04
  0.16435643D-03  0.10380504D-03 -0.26816147D-03 -0.12847528D-17  0.23299878D-03
  0.22193578D-17 -0.23266667D-05  0.72919568D-04 -0.70592901D-04 -0.32853425D-17
 -0.73081113D-04 -0.32470861D-18  0.42318882D-04  0.76323847D-04  0.11253947D-03
  0.53963783D-03 -0.14518512D-03  0.67512870D-05  0.22681815D-03  0.61939592D-18
 -0.69891032D-05 -0.52721895D-04  0.53343071D-18 -0.23914166D-03 -0.67319465D-04
  0.38936634D-18  0.47392729D-04  0.16435643D-03  0.10380504D-03 -0.26816147D-03
  0.82379042D-18 -0.23299878D-03  0.23703006D-17 -0.23266667D-05  0.72919568D-04
 -0.70592901D-04  0.13231663D-17  0.73081113D-04 -0.64603105D-18  0.41353212D+00
  0.77055622D+00  0.13032038D+01  0.19625526D+01  0.24297675D+01  0.20676225D+01
  0.78676849D+00 -0.36847725D-02 -0.23185565D-02 -0.43473151D-02 -0.73960765D-02
 -0.11485326D-01 -0.15241696D-01 -0.16062655D-01 -0.99598707D-02  0.66253098D-02
  0.42660112D-01  0.16859464D-01  0.16498731D-02 -0.19794999D-15 -0.19012860D-15
 -0.13333130D-15 -0.17415958D-16 -0.16727820D-16 -0.11730702D-16 -0.67835351D-02
 -0.65155043D-02 -0.45691214D-02  0.88561510D-16  0.20029528D-17 -0.74835225D-02
 -0.10673362D-14 -0.25018850D-17 -0.42078793D-02 -0.10761870D-15 -0.45994806D-19
 -0.68239910D-04 -0.39829200D-02 -0.27716659D-02  0.67545859D-02  0.34051129D-17
 -0.34792014D-15  0.69718382D-17 -0.28493119D-03 -0.22336401D-03  0.50829521D-03
 -0.31840773D-18  0.21499305D-15 -0.60153965D-18 -0.16033478D-04 -0.85940267D-05
  0.24627505D-04 -0.11812291D-19  0.19381705D-15  0.10807350D-17 -0.22623283D-16
  0.17036094D-17 -0.14066171D-02  0.14824748D-15 -0.62407824D-18  0.21800651D-02
 -0.80377628D-16 -0.44867498D-17  0.20397863D-02  0.11579985D-18  0.14163211D-16
 -0.10000318D-18  0.20409465D-03 -0.67503041D-16  0.18658276D-18 -0.27385779D-03
  0.25013408D-16  0.11342679D-18 -0.33842617D-03  0.15025794D-18
MO    3     MO 0.0        OCC NO =    2.0000000  ORB. ENERGY =  -10.068044
  0.33099788D+00  0.61705531D+00  0.10429322D+01  0.15678687D+01  0.19263078D+01
  0.16270749D+01  0.61367279D+00 -0.30371009D-02 -0.38270144D-02 -0.71653784D-02
 -0.12199670D-01 -0.18871034D-01 -0.24852488D-01 -0.25823327D-01 -0.16409565D-01
  0.10997309D-01  0.33659113D-01  0.76359822D-02  0.95230005D-03  0.29936287D-14
  0.28067172D-14  0.19985499D-14  0.23244016D-17  0.21792742D-17  0.15517731D-17
  0.37603009D-02  0.35255211D-02  0.25103811D-02 -0.13476329D-13  0.99549994D-18
  0.14072276D-02 -0.70868637D-14  0.12937744D-18  0.23466277D-02 -0.34797104D-16
  0.27768106D-19  0.22595045D-04  0.21484658D-02 -0.44692643D-02  0.23207985D-02
  0.37862574D-17  0.45263190D-14  0.18375829D-17  0.68964692D-03 -0.34147982D-03
 -0.34816710D-03  0.56080052D-19  0.79199370D-14  0.82915009D-18 -0.13474285D-03
 -0.31976591D-04  0.16671944D-03  0.61822784D-20 -0.18187498D-15  0.11130073D-18
 -0.97123767D-16  0.16786469D-18  0.14094991D-02  0.18395552D-14 -0.16417350D-18
 -0.44726718D-02 -0.15481839D-14 -0.33942058D-18  0.24417460D-03  0.39733820D-18
  0.63591009D-15 -0.67354895D-19 -0.34998711D-03  0.58163429D-15  0.10975615D-18
  0.96777847D-03 -0.24893645D-14  0.92308529D-19  0.82182848D-04 -0.14752891D-18
  0.13187988D-03  0.24573873D-03  0.41560580D-03  0.62587930D-03  0.77487918D-03
  0.65938721D-03  0.25090900D-03 -0.11751139D-05 -0.15449189D-03 -0.28967374D-03
 -0.49282123D-03 -0.76529933D-03 -0.10155967D-02 -0.10702995D-02 -0.66365399D-03
  0.44146289D-03  0.11280361D-02 -0.74869458D-03 -0.57157370D-03 -0.65130995D-15
 -0.62557542D-15 -0.43869667D-15  0.12363853D-17  0.11875333D-17  0.83278033D-18
 -0.14957621D-02 -0.14366617D-02 -0.10074863D-02  0.12630100D-14 -0.13589206D-17
 -0.10789265D-02  0.29811945D-14 -0.37107737D-17  0.11013857D-01 -0.15537902D-16
 -0.14971561D-18  0.29501472D-03  0.49097982D-03 -0.51282936D-03  0.21849546D-04
 -0.38243008D-19  0.58318759D-15  0.21686428D-18  0.84742616D-03  0.14527801D-02
 -0.23002063D-02  0.42428224D-19 -0.13655936D-14 -0.18893657D-17 -0.25201356D-03
 -0.13139691D-03  0.38341047D-03  0.18279534D-19  0.20938343D-15 -0.91318501D-18
 -0.42199344D-15 -0.89517608D-19  0.45264553D-03 -0.60602816D-15 -0.17570037D-19
 -0.12856686D-02  0.18720085D-14  0.28612286D-18 -0.72267963D-04  0.22413213D-18
  0.31815809D-16  0.49186633D-18  0.92914408D-03  0.97393778D-16  0.43668165D-18
 -0.11455276D-02 -0.19284121D-15 -0.19122806D-17 -0.16419046D-02 -0.85755414D-19
  0.84754821D-04  0.15285881D-03  0.22539023D-03 -0.20821334D-02 -0.68336838D-04
 -0.39370409D-04  0.19124328D-02  0.29673649D-18 -0.91588177D-03  0.24794083D-02
 -0.46548332D-18 -0.17156152D-02  0.23714952D-03  0.27529253D-19  0.55427013D-04
 -0.17744835D-02  0.12875635D-02  0.48691996D-03  0.64294461D-18  0.34440226D-02
 -0.34388390D-18 -0.21962844D-03  0.22052271D-03 -0.89427343D-06 -0.27547894D-19
  0.18134475D-03 -0.10442067D-18  0.84754821D-04  0.15285881D-03  0.22539023D-03
 -0.20821334D-02 -0.68336838D-04 -0.39370409D-04 -0.19124328D-02  0.14187681D-18
 -0.91588177D-03 -0.24794083D-02 -0.54225764D-20 -0.17156152D-02 -0.23714952D-03
  0.57370927D-19  0.55427013D-04 -0.17744835D-02  0.12875635D-02  0.48691996D-03
  0.29269698D-18 -0.34440226D-02  0.31557184D-18 -0.21962844D-03  0.22052271D-03
 -0.89427343D-06  0.12024917D-18 -0.18134475D-03 -0.12110863D-18 -0.31894259D-03
 -0.59430256D-03 -0.10051146D-02 -0.15136469D-02 -0.18739931D-02 -0.15946835D-02
 -0.60680651D-03  0.28419337D-05  0.25261367D-03  0.47365299D-03  0.80582466D-03
  0.12513606D-02  0.16606283D-02  0.17500743D-02  0.10851577D-02 -0.72184732D-03
 -0.11304715D-02 -0.11278942D-01 -0.96139527D-03 -0.92080928D-16 -0.88442630D-16
 -0.62022077D-16 -0.11041043D-17 -0.10604790D-17 -0.74368105D-18  0.79096137D-03
  0.75970894D-03  0.53276035D-03  0.31535834D-15  0.22837124D-17 -0.50017038D-03
 -0.10117773D-14  0.31358936D-17  0.25793959D-02 -0.71876015D-17  0.98602078D-19
  0.63862983D-05  0.26945919D-03  0.17841323D-04 -0.28730052D-03  0.73223494D-19
 -0.47315070D-15  0.16199128D-17 -0.49878882D-03 -0.30604039D-03  0.80482921D-03
  0.25227172D-19  0.22781457D-15 -0.32149034D-17  0.17789646D-04 -0.35568865D-04
  0.17779220D-04 -0.36224683D-20  0.23546622D-15 -0.82901211D-18  0.16066543D-15
 -0.17373316D-18  0.97240858D-04  0.12596984D-15 -0.30816683D-18 -0.12047734D-03
 -0.60796614D-15  0.82936631D-18 -0.17124523D-03 -0.11347061D-19 -0.15554862D-16
 -0.14399543D-18 -0.98644563D-04 -0.19684701D-16 -0.12824193D-18  0.13785334D-03
  0.66349286D-16  0.56022823D-18  0.15808035D-03 -0.21403085D-19
MO    4     MO 0.0        OCC NO =    2.0000000  ORB. ENERGY =   -1.076675
 -0.20879738D-02 -0.38924580D-02 -0.65789396D-02 -0.98903013D-02 -0.12151378D-01
 -0.10263781D-01 -0.38711206D-02  0.19158392D-04 -0.10233162D-01 -0.19159708D-01
 -0.32621043D-01 -0.50459793D-01 -0.66453772D-01 -0.69049726D-01 -0.43878001D-01
  0.29406016D-01  0.12287165D-01  0.61364377D-02  0.28329960D-02  0.38367555D-14
  0.35972022D-14  0.25614222D-14  0.23174432D-15  0.21727503D-15  0.15471276D-15
  0.76263641D-01  0.71502011D-01  0.50913691D-01 -0.20099147D-13 -0.11383855D-15
  0.15184626D-01 -0.47764376D-13  0.26411034D-16  0.53579215D-03  0.13686333D-15
 -0.37715112D-17  0.20953564D-03 -0.60953760D-02 -0.87518481D-02  0.14847224D-01
 -0.63656485D-16  0.40383778D-14  0.70075468D-16  0.92707374D-03 -0.65460780D-03
 -0.27246593D-03  0.57245596D-17  0.18724070D-13 -0.37108402D-17  0.13516777D-04
  0.45751984D-04 -0.59268761D-04 -0.10942797D-16  0.34321035D-14  0.94146196D-18
 -0.85638547D-15 -0.38139838D-17  0.21766568D-02  0.19220265D-14  0.26848934D-17
 -0.42251041D-02  0.64712988D-15  0.87570581D-17 -0.23048665D-02  0.77322031D-17
 -0.18414269D-15 -0.11916645D-17 -0.51774418D-03  0.29350356D-14  0.34944107D-17
  0.14554103D-02 -0.23826075D-14  0.80582819D-19  0.97822277D-04 -0.36901427D-18
 -0.88728046D-02 -0.16533165D-01 -0.27961727D-01 -0.42108811D-01 -0.52133439D-01
 -0.44363204D-01 -0.16881018D-01  0.79061007D-04 -0.63992499D-01 -0.11998653D+00
 -0.20413279D+00 -0.31699668D+00 -0.42067303D+00 -0.44333163D+00 -0.27489389D+00
  0.18285952D+00  0.94060413D-01  0.15534229D-01 -0.86642750D-02 -0.31441105D-16
 -0.30198805D-16 -0.21177487D-16 -0.61298772D-16 -0.58876738D-16 -0.41288433D-16
  0.29863742D+00  0.28683767D+00  0.20115037D+00 -0.17157105D-14 -0.39541094D-16
  0.50848839D-01  0.11698286D-14 -0.14271355D-16 -0.13053107D-02 -0.19295076D-14
  0.34270695D-17  0.94715147D-04 -0.32188719D-01 -0.34716406D-01  0.66905124D-01
  0.12087858D-16 -0.12934575D-15 -0.66433171D-16 -0.12929855D-02 -0.22971707D-02
  0.35901562D-02 -0.25057994D-18  0.23350809D-15 -0.82438888D-17  0.66610506D-03
  0.64173337D-03 -0.13078384D-02  0.54518737D-17 -0.47090819D-14 -0.13769291D-16
 -0.43397770D-15  0.67933021D-17  0.95488657D-02  0.60467574D-15  0.53817246D-17
 -0.14606566D-01  0.69725737D-15 -0.25761631D-16 -0.14040031D-01 -0.16521869D-16
  0.69330620D-15  0.16609147D-17 -0.58051072D-03 -0.16511103D-15 -0.21462987D-17
  0.19670016D-02 -0.19148076D-14 -0.28364453D-17 -0.22546940D-03  0.42307739D-17
  0.14825108D-02  0.26737692D-02  0.39424711D-02  0.18398452D-02 -0.60205747D-03
 -0.28207441D-04 -0.54503738D-03  0.13479374D-16  0.17000373D-02  0.61555180D-03
 -0.76217687D-17 -0.15580638D-02  0.10561295D-03  0.25978486D-16 -0.72418160D-04
 -0.27851088D-03 -0.70114546D-04  0.34862543D-03  0.12874483D-16  0.36488993D-03
 -0.48319761D-17  0.58381964D-04  0.29709739D-03 -0.35547936D-03 -0.54608750D-17
  0.27627511D-04  0.41700472D-17  0.14825108D-02  0.26737692D-02  0.39424711D-02
  0.18398452D-02 -0.60205747D-03 -0.28207441D-04  0.54503738D-03  0.15336614D-16
  0.17000373D-02 -0.61555180D-03 -0.20930771D-16 -0.15580638D-02 -0.10561295D-03
 -0.87558431D-17 -0.72418160D-04 -0.27851088D-03 -0.70114546D-04  0.34862543D-03
 -0.11627785D-16 -0.36488993D-03  0.15512220D-16  0.58381964D-04  0.29709739D-03
 -0.35547936D-03 -0.33385859D-17 -0.27627511D-04 -0.82847900D-17 -0.81435708D-02
 -0.15174345D-01 -0.25663622D-01 -0.38647992D-01 -0.47848722D-01 -0.40717103D-01
 -0.15493609D-01  0.72563179D-04 -0.49171506D-01 -0.92197034D-01 -0.15685459D+00
 -0.24357861D+00 -0.32324298D+00 -0.34065373D+00 -0.21122705D+00  0.14050831D+00
  0.71589765D-01  0.29414588D-01  0.26644693D-02 -0.42856938D-15 -0.41163577D-15
 -0.28866741D-15 -0.14023316D-15 -0.13469228D-15 -0.94455521D-16 -0.39210713D+00
 -0.37661421D+00 -0.26410788D+00  0.87838798D-15 -0.38843809D-16 -0.88290699D-01
  0.57772775D-14  0.15233942D-16 -0.41992564D-02  0.91193818D-15 -0.41603686D-18
 -0.16507268D-03 -0.31433251D-01 -0.31328964D-01  0.62762215D-01 -0.68364615D-17
  0.11218315D-14  0.75100763D-16 -0.41889790D-02 -0.39262077D-02  0.81151867D-02
  0.23638597D-17 -0.20192892D-14  0.13270815D-16  0.62437017D-04  0.18596089D-03
 -0.24839791D-03 -0.10899642D-17 -0.11499234D-14 -0.70805620D-17 -0.22022561D-16
  0.70174151D-17 -0.12061346D-01 -0.53973831D-15  0.12336203D-16  0.18535898D-01
  0.60580600D-15 -0.33388448D-16  0.17648141D-01 -0.12168096D-16 -0.10017965D-15
 -0.75105442D-19 -0.13994706D-03  0.21728626D-15  0.63905081D-18  0.38527285D-03
  0.83252695D-16 -0.41373449D-18  0.34568322D-04  0.18554794D-18
MO    5     MO 0.0        OCC NO =    2.0000000  ORB. ENERGY =   -0.812882
 -0.82036746D-02 -0.15293515D-01 -0.25848734D-01 -0.38859114D-01 -0.47742911D-01
 -0.40326521D-01 -0.15209680D-01  0.75273555D-04 -0.39441582D-01 -0.73847087D-01
 -0.12573098D+00 -0.19448671D+00 -0.25613216D+00 -0.26613772D+00 -0.16911857D+00
  0.11333934D+00  0.49190218D-01  0.37679644D-01  0.20649938D-02  0.13226989D-13
  0.12401143D-13  0.88303528D-14 -0.39260773D-15 -0.36809470D-15 -0.26210536D-15
  0.19855114D+00  0.18615432D+00  0.13255296D+00 -0.65836023D-13 -0.76353502D-16
  0.27928032D-01 -0.33151675D-12 -0.31192273D-16  0.51591566D-03 -0.12064727D-13
  0.21046430D-18 -0.70251633D-04 -0.61894660D-02 -0.19192358D-01  0.25381824D-01
 -0.10261966D-15  0.13014805D-13 -0.70817383D-17  0.31352870D-02 -0.40204354D-02
  0.88514833D-03 -0.28579478D-16  0.49618197D-13  0.13687715D-16  0.10279889D-03
 -0.16865971D-04 -0.85932916D-04  0.21415541D-17  0.85383342D-14  0.31905355D-17
 -0.25212929D-15  0.29741642D-17  0.70924536D-02  0.10417473D-14 -0.21784643D-17
 -0.16149169D-01 -0.28535939D-15 -0.67440282D-17 -0.51281913D-02  0.10015747D-16
  0.15208731D-15  0.14564609D-17  0.69122419D-05  0.16275684D-13 -0.27758603D-17
 -0.86669477D-03 -0.16731946D-13 -0.15935223D-17  0.84595805D-03  0.75437727D-17
 -0.21286584D-02 -0.39664415D-02 -0.67082469D-02 -0.10102248D-01 -0.12507239D-01
 -0.10643096D-01 -0.40498942D-02  0.18967382D-04 -0.28459118D-01 -0.53361112D-01
 -0.90783129D-01 -0.14097661D+00 -0.18708417D+00 -0.19716103D+00 -0.12225242D+00
  0.81322354D-01  0.39933928D-01  0.45006550D-01  0.50832776D-02  0.40761538D-14
  0.39150970D-14  0.27455363D-14 -0.22497765D-15 -0.21608834D-15 -0.15153606D-15
 -0.72630230D+00 -0.69760468D+00 -0.48920855D+00 -0.67689910D-14 -0.61869713D-16
 -0.16592258D+00  0.46206992D-13 -0.14565980D-16  0.96111082D-02  0.80898896D-15
 -0.49985650D-18  0.10836911D-02  0.98097608D-03 -0.12578244D-02  0.27684833D-03
  0.21881032D-16  0.13115163D-13  0.11041315D-15 -0.29146461D-02 -0.33551255D-02
  0.62697715D-02 -0.76207367D-17 -0.17107740D-13  0.14553417D-16 -0.64307311D-03
 -0.67950211D-03  0.13225752D-02 -0.41407852D-17 -0.47961772D-13  0.95810910D-17
  0.34696447D-15  0.38497010D-17 -0.18552386D-01  0.12979196D-14 -0.52933157D-17
  0.25305072D-01 -0.23388130D-14 -0.62557872D-17  0.30352086D-01 -0.35783332D-17
  0.53133530D-15  0.46332090D-18 -0.68295312D-04 -0.23985785D-14  0.25147377D-17
  0.69691285D-04  0.80457260D-15 -0.39047004D-17  0.13519465D-03 -0.24698680D-17
  0.95957893D-02  0.17306401D-01  0.25518278D-01  0.35916535D-03 -0.55586701D-02
 -0.16552700D-03 -0.48376213D-02 -0.29526488D-16  0.63337408D-02  0.48845533D-02
  0.34338974D-16 -0.11052201D-02  0.11496344D-02  0.48693032D-17 -0.79862560D-03
 -0.19970982D-02 -0.15009286D-02  0.34980268D-02 -0.36958399D-17 -0.18333706D-02
 -0.56378740D-17 -0.28882295D-03  0.24656963D-03  0.42253321D-04 -0.17588491D-16
  0.48965444D-03  0.53598673D-17  0.95957893D-02  0.17306401D-01  0.25518278D-01
  0.35916535D-03 -0.55586701D-02 -0.16552700D-03  0.48376213D-02 -0.19124428D-16
  0.63337408D-02 -0.48845533D-02  0.80909880D-17 -0.11052201D-02 -0.11496344D-02
  0.98321302D-17 -0.79862560D-03 -0.19970982D-02 -0.15009286D-02  0.34980268D-02
  0.35547201D-17  0.18333706D-02 -0.32364757D-16 -0.28882295D-03  0.24656963D-03
  0.42253321D-04  0.69332425D-17 -0.48965444D-03  0.60568191D-17  0.41635376D-02
  0.77581392D-02  0.13120958D-01  0.19759436D-01  0.24463464D-01  0.20817304D-01
  0.79213681D-02 -0.37099146D-04  0.34877570D-01  0.65395769D-01  0.11125766D+00
  0.17277140D+00  0.22927770D+00  0.24162722D+00  0.14982429D+00 -0.99663176D-01
 -0.53163067D-01 -0.52243009D-01 -0.64248318D-02  0.66731892D-14  0.64095185D-14
  0.44947968D-14  0.13857101D-15  0.13309580D-15  0.93335959D-16  0.18501356D+00
  0.17770331D+00  0.12461783D+00 -0.81821229D-14  0.63681959D-16  0.41679495D-01
  0.48219968D-13 -0.45663336D-17  0.11705876D-01  0.22279842D-14 -0.84586158D-19
  0.23447253D-03  0.13869152D-01  0.13610774D-01 -0.27479926D-01  0.27949230D-17
  0.42909745D-14 -0.17546954D-16  0.50850644D-03  0.11127241D-02 -0.16212305D-02
  0.82468888D-18 -0.88644074D-14 -0.88105002D-17  0.19390229D-03  0.78163557D-04
 -0.27206584D-03  0.19036986D-17 -0.85216823D-14  0.11858283D-17 -0.18516807D-14