 Molden2AIM, Version 4.0.0 (06/02/2016)           Time: Sat Jun 30 02:35:29 2018
GAUSSIAN              8 MOL ORBITALS    204 PRIMITIVES        4 NUCLEI
  H    1    (CENTRE  1)   0.00000000  1.78843302 -1.10299534  CHARGE =  1.0
  H    2    (CENTRE  2)   0.00000000 -1.78843302 -1.10299534  CHARGE =  1.0
  C    3    (CENTRE  3)   0.00000000  0.00000000  0.00843952  CHARGE =  6.0
  O    4    (CENTRE  4)   0.00000000  0.00000000  2.28249247  CHARGE =  8.0
CENTRE ASSIGNMENTS    1  1  1  1  1  1  1  1  1  1  1  1  1  1  1  1  1  1  1  1
CENTRE ASSIGNMENTS    1  1  1  1  1  1  1  2  2  2  2  2  2  2  2  2  2  2  2  2
CENTRE ASSIGNMENTS    2  2  2  2  2  2  2  2  2  2  2  2  2  2  3  3  3  3  3  3
CENTRE ASSIGNMENTS    3  3  3  3  3  3  3  3  3  3  3  3  3  3  3  3  3  3  3  3
CENTRE ASSIGNMENTS    3  3  3  3  3  3  3  3  3  3  3  3  3  3  3  3  3  3  3  3
CENTRE ASSIGNMENTS    3  3  3  3  3  3  3  3  3  3  3  3  3  3  3  3  3  3  3  3
CENTRE ASSIGNMENTS    3  3  3  3  3  3  3  3  3  4  4  4  4  4  4  4  4  4  4  4
CENTRE ASSIGNMENTS    4  4  4  4  4  4  4  4  4  4  4  4  4  4  4  4  4  4  4  4
CENTRE ASSIGNMENTS    4  4  4  4  4  4  4  4  4  4  4  4  4  4  4  4  4  4  4  4
CENTRE ASSIGNMENTS    4  4  4  4  4  4  4  4  4  4  4  4  4  4  4  4  4  4  4  4
CENTRE ASSIGNMENTS    4  4  4  4
TYPE ASSIGNMENTS      1  1  1  1  1  1  2  3  4  2  3  4  2  3  4  5  6  7  8  9
TYPE ASSIGNMENTS     10  5  6  7  8  9 10  1  1  1  1  1  1  2  3  4  2  3  4  2
TYPE ASSIGNMENTS      3  4  5  6  7  8  9 10  5  6  7  8  9 10  1  1  1  1  1  1
TYPE ASSIGNMENTS      1  1  1  1  1  1  1  1  1  1  1  1  1  2  2  2  3  3  3  4
TYPE ASSIGNMENTS      4  4  2  3  4  2  3  4  2  3  4  5  6  7  8  9 10  5  6  7
TYPE ASSIGNMENTS      8  9 10  5  6  7  8  9 10 11 12 13 17 14 15 18 19 16 20 11
TYPE ASSIGNMENTS     12 13 17 14 15 18 19 16 20  1  1  1  1  1  1  1  1  1  1  1
TYPE ASSIGNMENTS      1  1  1  1  1  1  1  1  2  2  2  3  3  3  4  4  4  2  3  4
TYPE ASSIGNMENTS      2  3  4  2  3  4  5  6  7  8  9 10  5  6  7  8  9 10  5  6
TYPE ASSIGNMENTS      7  8  9 10 11 12 13 17 14 15 18 19 16 20 11 12 13 17 14 15
TYPE ASSIGNMENTS     18 19 16 20
EXPONENTS  0.3387000D+02 0.5095000D+01 0.1159000D+01 0.3258000D+00 0.1027000D+00
EXPONENTS  0.2526000D-01 0.1407000D+01 0.1407000D+01 0.1407000D+01 0.3880000D+00
EXPONENTS  0.3880000D+00 0.3880000D+00 0.1020000D+00 0.1020000D+00 0.1020000D+00
EXPONENTS  0.1057000D+01 0.1057000D+01 0.1057000D+01 0.1057000D+01 0.1057000D+01
EXPONENTS  0.1057000D+01 0.2470000D+00 0.2470000D+00 0.2470000D+00 0.2470000D+00
EXPONENTS  0.2470000D+00 0.2470000D+00 0.3387000D+02 0.5095000D+01 0.1159000D+01
EXPONENTS  0.3258000D+00 0.1027000D+00 0.2526000D-01 0.1407000D+01 0.1407000D+01
EXPONENTS  0.1407000D+01 0.3880000D+00 0.3880000D+00 0.3880000D+00 0.1020000D+00
EXPONENTS  0.1020000D+00 0.1020000D+00 0.1057000D+01 0.1057000D+01 0.1057000D+01
EXPONENTS  0.1057000D+01 0.1057000D+01 0.1057000D+01 0.2470000D+00 0.2470000D+00
EXPONENTS  0.2470000D+00 0.2470000D+00 0.2470000D+00 0.2470000D+00 0.8236000D+04
EXPONENTS  0.1235000D+04 0.2808000D+03 0.7927000D+02 0.2559000D+02 0.8997000D+01
EXPONENTS  0.3319000D+01 0.3643000D+00 0.8236000D+04 0.1235000D+04 0.2808000D+03
EXPONENTS  0.7927000D+02 0.2559000D+02 0.8997000D+01 0.3319000D+01 0.3643000D+00
EXPONENTS  0.9059000D+00 0.1285000D+00 0.4402000D-01 0.1871000D+02 0.4133000D+01
EXPONENTS  0.1200000D+01 0.1871000D+02 0.4133000D+01 0.1200000D+01 0.1871000D+02
EXPONENTS  0.4133000D+01 0.1200000D+01 0.3827000D+00 0.3827000D+00 0.3827000D+00
EXPONENTS  0.1209000D+00 0.1209000D+00 0.1209000D+00 0.3569000D-01 0.3569000D-01
EXPONENTS  0.3569000D-01 0.1097000D+01 0.1097000D+01 0.1097000D+01 0.1097000D+01
EXPONENTS  0.1097000D+01 0.1097000D+01 0.3180000D+00 0.3180000D+00 0.3180000D+00
EXPONENTS  0.3180000D+00 0.3180000D+00 0.3180000D+00 0.1000000D+00 0.1000000D+00
EXPONENTS  0.1000000D+00 0.1000000D+00 0.1000000D+00 0.1000000D+00 0.7610000D+00
EXPONENTS  0.7610000D+00 0.7610000D+00 0.7610000D+00 0.7610000D+00 0.7610000D+00
EXPONENTS  0.7610000D+00 0.7610000D+00 0.7610000D+00 0.7610000D+00 0.2680000D+00
EXPONENTS  0.2680000D+00 0.2680000D+00 0.2680000D+00 0.2680000D+00 0.2680000D+00
EXPONENTS  0.2680000D+00 0.2680000D+00 0.2680000D+00 0.2680000D+00 0.1533000D+05
EXPONENTS  0.2299000D+04 0.5224000D+03 0.1473000D+03 0.4755000D+02 0.1676000D+02
EXPONENTS  0.6207000D+01 0.6882000D+00 0.1533000D+05 0.2299000D+04 0.5224000D+03
EXPONENTS  0.1473000D+03 0.4755000D+02 0.1676000D+02 0.6207000D+01 0.6882000D+00
EXPONENTS  0.1752000D+01 0.2384000D+00 0.7376000D-01 0.3446000D+02 0.7749000D+01
EXPONENTS  0.2280000D+01 0.3446000D+02 0.7749000D+01 0.2280000D+01 0.3446000D+02
EXPONENTS  0.7749000D+01 0.2280000D+01 0.7156000D+00 0.7156000D+00 0.7156000D+00
EXPONENTS  0.2140000D+00 0.2140000D+00 0.2140000D+00 0.5974000D-01 0.5974000D-01
EXPONENTS  0.5974000D-01 0.2314000D+01 0.2314000D+01 0.2314000D+01 0.2314000D+01
EXPONENTS  0.2314000D+01 0.2314000D+01 0.6450000D+00 0.6450000D+00 0.6450000D+00
EXPONENTS  0.6450000D+00 0.6450000D+00 0.6450000D+00 0.2140000D+00 0.2140000D+00
EXPONENTS  0.2140000D+00 0.2140000D+00 0.2140000D+00 0.2140000D+00 0.1428000D+01
EXPONENTS  0.1428000D+01 0.1428000D+01 0.1428000D+01 0.1428000D+01 0.1428000D+01
EXPONENTS  0.1428000D+01 0.1428000D+01 0.1428000D+01 0.1428000D+01 0.5000000D+00
EXPONENTS  0.5000000D+00 0.5000000D+00 0.5000000D+00 0.5000000D+00 0.5000000D+00
EXPONENTS  0.5000000D+00 0.5000000D+00 0.5000000D+00 0.5000000D+00
MO    1     MO 0.0        OCC NO =    2.0000000  ORB. ENERGY =  -18.974297
  0.74284861D-04  0.13397581D-03  0.19754725D-03  0.10381673D-02  0.12496044D-03
 -0.87967969D-06 -0.85456542D-16 -0.39403950D-03  0.35811801D-03  0.87431095D-17
 -0.44491323D-03 -0.13818660D-03 -0.16572566D-18 -0.87418644D-04 -0.60620711D-04
  0.12704668D-03  0.22371667D-03 -0.35076335D-03  0.15217194D-17 -0.13654433D-17
 -0.17525342D-03  0.17320431D-04  0.40948216D-04 -0.58268646D-04  0.43138307D-17
 -0.23698729D-17  0.24042822D-04  0.74284861D-04  0.13397581D-03  0.19754725D-03
  0.10381673D-02  0.12496044D-03 -0.87967969D-06 -0.48080733D-17  0.39403950D-03
  0.35811801D-03  0.88197707D-17  0.44491323D-03 -0.13818660D-03  0.96180926D-18
  0.87418644D-04 -0.60620711D-04  0.12704668D-03  0.22371667D-03 -0.35076335D-03
  0.20621965D-17  0.29116524D-17  0.17525342D-03  0.17320431D-04  0.40948216D-04
 -0.58268646D-04  0.24607565D-17  0.14284555D-17 -0.24042822D-04  0.35612013D-03
  0.66388890D-03  0.11220892D-02  0.16868676D-02  0.20725118D-02  0.17505675D-02
  0.66024965D-03 -0.32676124D-05 -0.27996952D-03 -0.52419128D-03 -0.89248051D-03
 -0.13805316D-02 -0.18181116D-02 -0.18891344D-02 -0.12004601D-02  0.80452045D-03
  0.12432090D-02 -0.11778663D-02  0.25935393D-04 -0.12367261D-16 -0.11595093D-16
 -0.82563972D-17 -0.47158346D-15 -0.44213947D-15 -0.31482964D-15  0.11093389D-02
  0.10400757D-02  0.74059589D-03  0.41032788D-17  0.14701947D-14  0.11251455D-02
  0.12247117D-17  0.30968250D-14  0.73709275D-05 -0.50605908D-19  0.18619541D-16
  0.19910849D-05 -0.25014429D-03 -0.34030902D-03  0.59045331D-03 -0.15362015D-16
 -0.38768247D-17  0.25419427D-17  0.45330971D-03  0.17525441D-03 -0.62856411D-03
  0.13579138D-16 -0.23370841D-17 -0.15541521D-14  0.15815627D-04  0.44930789D-04
 -0.60746416D-04  0.30512097D-18 -0.10137569D-18 -0.36235850D-15  0.17821464D-17
  0.20924138D-15 -0.70175282D-03 -0.24403252D-17 -0.32762664D-15  0.53690177D-03
 -0.29061139D-17 -0.30009751D-15  0.15683567D-02  0.65321249D-17 -0.33716774D-18
 -0.48637567D-16 -0.11916723D-03  0.52097196D-18 -0.20490289D-15 -0.69704921D-05
  0.49053125D-18  0.35081559D-15  0.36447217D-03 -0.48899849D-17  0.49762291D+00
  0.92750508D+00  0.15727413D+01  0.23804172D+01  0.29700657D+01  0.25508903D+01
  0.97933639D+00 -0.43806318D-02 -0.33073761D-03 -0.62030658D-03 -0.10574867D-02
 -0.16526459D-02 -0.22099025D-02 -0.23596606D-02 -0.14426502D-02  0.95177301D-03
  0.53567705D-01  0.61172501D-03 -0.11614522D-03 -0.15973271D-16 -0.15488700D-16
 -0.10448586D-16 -0.27520724D-15 -0.26685845D-15 -0.18002113D-15 -0.78373748D-02
 -0.75996172D-02 -0.51266569D-02  0.21264819D-17  0.18470399D-15 -0.22836121D-03
  0.23207717D-18 -0.48928202D-15  0.84898627D-03 -0.16398598D-19  0.77585972D-16
  0.24795175D-04 -0.30652137D-02  0.16004576D-03  0.29051680D-02 -0.23993477D-17
  0.54623378D-17 -0.10100943D-14  0.55773842D-03  0.13634572D-03 -0.69408414D-03
 -0.17521891D-19 -0.22921502D-17 -0.26786079D-15  0.16834582D-03  0.76593824D-04
 -0.24493965D-03  0.96244734D-18 -0.20691302D-18  0.25098890D-15  0.16346651D-17
 -0.20926418D-16 -0.39007505D-03 -0.22765947D-17 -0.63672354D-16  0.87743363D-03
 -0.26274005D-17  0.12645161D-15  0.29279153D-03  0.39955206D-17 -0.54891612D-18
 -0.36427283D-16  0.26975479D-03 -0.16865866D-18  0.89042639D-16 -0.60241594D-03
  0.18154070D-17  0.20239210D-16 -0.20684844D-03 -0.12382013D-17
MO    2     MO 0.0        OCC NO =    2.0000000  ORB. ENERGY =  -10.136480
  0.95395854D-04  0.17205035D-03  0.25368814D-03 -0.30913111D-02 -0.24012598D-02
 -0.52461061D-04 -0.23987463D-15  0.18545614D-02 -0.13324420D-02  0.15608200D-17
  0.26755789D-02 -0.16271951D-02  0.59291748D-18  0.23172138D-03 -0.45346944D-03
  0.13834860D-02 -0.16541412D-02  0.27065522D-03 -0.12125426D-18  0.22190400D-17
  0.41713655D-02  0.18823951D-03 -0.12993226D-03 -0.58307254D-04 -0.68238720D-18
  0.19925375D-18  0.25497436D-03  0.95395854D-04  0.17205035D-03  0.25368814D-03
 -0.30913111D-02 -0.24012598D-02 -0.52461061D-04  0.23922758D-17 -0.18545614D-02
 -0.13324420D-02 -0.42557906D-17 -0.26755789D-02 -0.16271951D-02 -0.10815047D-17
 -0.23172138D-03 -0.45346944D-03  0.13834860D-02 -0.16541412D-02  0.27065522D-03
  0.47321636D-18 -0.92498222D-18 -0.41713655D-02  0.18823951D-03 -0.12993226D-03
 -0.58307254D-04 -0.15124115D-17 -0.23480653D-18 -0.25497436D-03  0.33044027D+00
  0.61601578D+00  0.10411752D+01  0.15652274D+01  0.19230627D+01  0.16243338D+01
  0.61263896D+00 -0.30319844D-02 -0.33793688D-02 -0.63272447D-02 -0.10772675D-01
 -0.16663691D-01 -0.21945495D-01 -0.22802775D-01 -0.14490140D-01  0.97109546D-02
  0.31885556D-01  0.66827250D-02  0.58826115D-03 -0.15743782D-16 -0.14760797D-16
 -0.10510567D-16  0.19992905D-14  0.18744619D-14  0.13347286D-14  0.20794331D-02
  0.19496007D-02  0.13882318D-02  0.49895564D-17 -0.50893026D-14  0.71561741D-03
  0.13179086D-17 -0.48994705D-15 -0.57312482D-03  0.61785070D-19  0.37882590D-17
 -0.41450569D-05 -0.52664255D-02  0.11655323D-02  0.41008932D-02 -0.27792709D-17
  0.37175814D-17  0.96605021D-15 -0.69032138D-03  0.61414387D-03  0.76177510D-04
 -0.33767172D-17  0.13220857D-17  0.23667129D-14 -0.12413894D-04  0.15755498D-03
 -0.14514109D-03 -0.38581501D-18  0.58861554D-19 -0.85180396D-17  0.21198372D-18
 -0.16880225D-15  0.19680182D-02 -0.16634190D-17  0.95226921D-15 -0.17301759D-03
  0.10274678D-17 -0.44586245D-15 -0.57310371D-02 -0.43702274D-17 -0.14049982D-18
 -0.50229270D-16 -0.19723045D-03 -0.31163692D-19  0.17834953D-15  0.11575179D-03
  0.45266314D-18 -0.27661716D-16  0.47593956D-03  0.21898332D-17  0.24990635D-03
  0.46579328D-03  0.78983107D-03  0.11954461D-02  0.14915677D-02  0.12810577D-02
  0.49182298D-03 -0.21999544D-05 -0.24805459D-03 -0.46523252D-03 -0.79311946D-03
 -0.12394913D-02 -0.16574361D-02 -0.17697553D-02 -0.10819937D-02  0.71383373D-03
  0.84937546D-03 -0.27888524D-02 -0.45459984D-03  0.39775971D-18  0.38569312D-18
  0.26018630D-18  0.22349347D-15  0.21671348D-15  0.14619364D-15 -0.27186727D-02
 -0.26361980D-02 -0.17783636D-02 -0.70440106D-18 -0.25340492D-15  0.33049205D-02
 -0.22292754D-17 -0.83883647D-16  0.28492073D-02 -0.16510444D-18  0.88253360D-17
  0.56395963D-04 -0.24338733D-03 -0.97045928D-04  0.34043326D-03  0.12765158D-17
  0.56044030D-18  0.93096328D-15  0.13567158D-02  0.13730302D-02 -0.27297460D-02
 -0.56686394D-18  0.16766464D-17 -0.27361382D-15  0.34580405D-03  0.15829305D-03
 -0.50409710D-03  0.44040708D-18  0.14444930D-17  0.71697200D-16 -0.84294659D-18
 -0.12473739D-15  0.77979592D-03 -0.14280864D-17 -0.24197841D-15 -0.27084557D-03
  0.39569261D-17  0.61619057D-15 -0.20685422D-02  0.27604829D-17  0.58416082D-18
 -0.11399254D-16  0.52751953D-03  0.79079890D-18 -0.18137126D-15 -0.88420168D-03
 -0.25432814D-17  0.21556903D-15 -0.69835692D-03 -0.32545380D-18
MO    3     MO 0.0        OCC NO =    2.0000000  ORB. ENERGY =   -1.031396
  0.34510093D-02  0.62240374D-02  0.91773395D-02 -0.57701598D-02 -0.66938076D-02
 -0.68060522D-04  0.13225273D-15  0.97561318D-03  0.21525761D-02 -0.15117758D-17
  0.51480826D-02 -0.27791878D-02  0.20007714D-16  0.75839762D-03 -0.14274126D-02
  0.43626917D-03 -0.27494733D-02  0.23132041D-02  0.83894985D-16  0.44676652D-16
  0.20723950D-02  0.37531815D-03 -0.63895122D-04 -0.31142303D-03 -0.13759528D-16
 -0.71895684D-18  0.73762339D-03  0.34510093D-02  0.62240374D-02  0.91773395D-02
 -0.57701598D-02 -0.66938076D-02 -0.68060522D-04  0.36024388D-16 -0.97561318D-03
  0.21525761D-02 -0.70664209D-16 -0.51480826D-02 -0.27791878D-02 -0.11539156D-16
 -0.75839762D-03 -0.14274126D-02  0.43626917D-03 -0.27494733D-02  0.23132041D-02
 -0.15113607D-16 -0.86202260D-17 -0.20723950D-02  0.37531815D-03 -0.63895122D-04
 -0.31142303D-03 -0.12713062D-16 -0.14240799D-16 -0.73762339D-03 -0.71302102D-02
 -0.13292333D-01 -0.22466384D-01 -0.33774335D-01 -0.41495672D-01 -0.35049729D-01
 -0.13219468D-01  0.65423886D-04 -0.29062789D-01 -0.54414711D-01 -0.92645701D-01
 -0.14330881D+00 -0.18873266D+00 -0.19610533D+00 -0.12461613D+00  0.83514834D-01
  0.36790244D-01  0.19765775D-01  0.17613585D-03 -0.73443116D-16 -0.68857589D-16
 -0.49030706D-16 -0.21018518D-14 -0.19706197D-14 -0.14031986D-14  0.23209776D+00
  0.21760640D+00  0.15494872D+00 -0.36558789D-16  0.71607261D-14  0.30290488D-01
  0.30525150D-17  0.21570206D-13 -0.32030169D-02 -0.18225305D-17  0.87017213D-16
 -0.40553872D-04 -0.20171509D-01 -0.13889510D-01  0.34061020D-01  0.15415132D-16
  0.90692403D-17 -0.15539886D-14 -0.35731813D-02  0.16761415D-02  0.18970398D-02
 -0.45986627D-16 -0.89113295D-17 -0.20868169D-14  0.51391239D-04  0.42317414D-03
 -0.47456538D-03 -0.66125874D-17 -0.17024943D-17 -0.14183579D-14  0.23065548D-17
 -0.51236673D-15  0.65154718D-02 -0.19686011D-16 -0.14588817D-15 -0.19216708D-02
  0.12766347D-16  0.16829883D-14 -0.17624745D-01 -0.14995191D-16 -0.20107639D-17
 -0.31234486D-15  0.18873892D-04  0.12404080D-16 -0.14091050D-14  0.61768732D-03
 -0.63717880D-17  0.23461396D-14 -0.67430900D-03  0.27280622D-16 -0.87322320D-02
 -0.16275757D-01 -0.27598291D-01 -0.41771299D-01 -0.52118385D-01 -0.44762742D-01
 -0.17185287D-01  0.76870843D-04 -0.87825290D-01 -0.16471851D+00 -0.28080894D+00
 -0.43884972D+00 -0.58682570D+00 -0.62659303D+00 -0.38308669D+00  0.25273733D+00
  0.13608519D+00  0.62413203D-01  0.30730929D-02 -0.24282465D-15 -0.23545823D-15
 -0.15883873D-15 -0.10912076D-14 -0.10581043D-14 -0.71379093D-15 -0.44478035D+00
 -0.43128733D+00 -0.29094388D+00 -0.78554644D-16 -0.78802303D-15 -0.10653042D+00
  0.65071232D-17 -0.70793661D-14 -0.47545036D-02  0.24634303D-17  0.32998208D-15
 -0.59644676D-04 -0.22888500D-01 -0.26424049D-01  0.49312549D-01  0.22658071D-18
  0.36962511D-16 -0.34563401D-14 -0.50736644D-02 -0.93908973D-02  0.14464562D-01
  0.21157009D-17  0.23253029D-16  0.28559839D-14  0.12772672D-03  0.42973114D-03
 -0.55745786D-03  0.37142112D-18 -0.11213002D-16  0.26632311D-14  0.19698331D-16
  0.87097906D-17 -0.11990672D-01 -0.17681714D-16 -0.73935658D-15  0.20877886D-01
 -0.41413279D-16  0.71322721D-15  0.15094130D-01 -0.10949035D-16 -0.42244274D-17
  0.25114864D-15 -0.97915401D-03  0.28733307D-17  0.72847160D-15  0.96461794D-03
  0.97999516D-17 -0.14819175D-14  0.19728441D-02 -0.34265319D-17
MO    4     MO 0.0        OCC NO =    2.0000000  ORB. ENERGY =   -0.605459
  0.27341745D-01  0.49311963D-01  0.72710461D-01  0.37718591D-01 -0.93018184D-03
 -0.15420988D-04  0.87566340D-16 -0.21274129D-01  0.81470436D-02 -0.27204426D-16
 -0.46698762D-02 -0.73746019D-03 -0.90228432D-17  0.11848952D-02 -0.64161945D-03
 -0.26052384D-02  0.47594357D-02 -0.21541973D-02 -0.16672290D-15  0.15835743D-15
 -0.42850139D-02  0.16076111D-03 -0.47556092D-04 -0.11320502D-03  0.11265343D-17
  0.62470878D-17 -0.79608562D-04  0.27341745D-01  0.49311963D-01  0.72710461D-01
  0.37718591D-01 -0.93018184D-03 -0.15420988D-04 -0.15278680D-16  0.21274129D-01
  0.81470436D-02 -0.19773271D-16  0.46698762D-02 -0.73746019D-03  0.68916614D-17
 -0.11848952D-02 -0.64161945D-03 -0.26052384D-02  0.47594357D-02 -0.21541973D-02
 -0.28059162D-16 -0.24515702D-16  0.42850139D-02  0.16076111D-03 -0.47556092D-04
 -0.11320502D-03 -0.22039042D-18  0.12071789D-17  0.79608562D-04 -0.53921298D-02
 -0.10052156D-01 -0.16989914D-01 -0.25541406D-01 -0.31380569D-01 -0.26505907D-01
 -0.99970529D-02  0.49475973D-04 -0.46559473D-01 -0.87174023D-01 -0.14842123D+00
 -0.22958508D+00 -0.30235547D+00 -0.31416671D+00 -0.19963884D+00  0.13379331D+00
  0.62576612D-01  0.42354095D-01  0.26604693D-03 -0.38369795D-15 -0.35974122D-15
 -0.25615718D-15 -0.23473564D-14 -0.22007958D-14 -0.15670977D-14 -0.25582570D+00
 -0.23985286D+00 -0.17078952D+00 -0.10616845D-15 -0.11807026D-13 -0.57030660D-01
 -0.19485064D-16 -0.12158592D-12 -0.58903966D-02  0.19831092D-17 -0.20264816D-14
  0.12142661D-04 -0.10574544D-01  0.17776255D-01 -0.72017113D-02 -0.25282176D-17
 -0.49926350D-16 -0.22649737D-14 -0.22135536D-02  0.37186433D-02 -0.15050897D-02
 -0.24596477D-16  0.28817193D-16  0.12026388D-13 -0.88393208D-04  0.44798019D-04
  0.43595189D-04  0.16328421D-19  0.32842977D-17  0.91815794D-14 -0.52836145D-17
  0.89885184D-15  0.19152103D-02  0.16245971D-16 -0.31054472D-14  0.12995229D-02
 -0.39512794D-18  0.40889171D-15 -0.70451540D-02 -0.16387212D-16  0.92356681D-18
  0.34350190D-14  0.28439236D-03 -0.49824467D-17  0.71213683D-14  0.34007969D-03
  0.22117462D-17 -0.17426425D-13 -0.11932568D-02  0.14085339D-16  0.10578538D-02
  0.19717034D-02  0.33433557D-02  0.50603246D-02  0.63138077D-02  0.54227187D-02
  0.20818872D-02 -0.93124091D-05  0.40844429D-01  0.76604738D-01  0.13059429D+00
  0.20409345D+00  0.27291183D+00  0.29140620D+00  0.17816004D+00 -0.11753917D+00
 -0.67893292D-01 -0.46862381D-01 -0.11718785D-02 -0.22560689D-15 -0.21876279D-15
 -0.14757609D-15  0.63232690D-15  0.61314439D-15  0.41362358D-15 -0.28579653D+00
 -0.27712650D+00 -0.18694790D+00 -0.52425967D-16  0.21192391D-14 -0.60671123D-01
 -0.15966541D-16  0.40955693D-13 -0.65928666D-02 -0.29684748D-17 -0.98146372D-15
 -0.89267915D-04 -0.91376617D-02 -0.45547544D-02  0.13692416D-01 -0.10887921D-16
  0.37226814D-16  0.55507157D-14 -0.22286605D-02  0.55518433D-03  0.16734761D-02
  0.15122775D-16  0.36434664D-16 -0.63314569D-14 -0.41569375D-04 -0.26392643D-03
  0.30549580D-03 -0.39872659D-17  0.33430476D-17 -0.16765073D-13  0.56516598D-17
  0.84548879D-15 -0.13846215D-02  0.10554702D-16  0.36875948D-14  0.13802320D-02
 -0.27509681D-16 -0.62240612D-14  0.27736325D-02  0.80478850D-17  0.10005068D-17
 -0.58712728D-15  0.13828954D-03  0.65619685D-17 -0.20993670D-14 -0.66781905D-03
 -0.95634889D-17  0.38607488D-14  0.25295043D-03 -0.12341464D-16
MO    5     MO 0.0        OCC NO =    2.0000000  ORB. ENERGY =   -0.462140
  0.30307232D-01  0.54660341D-01  0.80596640D-01  0.44754865D-01 -0.34105829D-02
  0.25064511D-03  0.12161842D-16 -0.14923907D-01  0.17366276D-01  0.37932134D-16
  0.44549232D-02  0.63112882D-02 -0.18352596D-16  0.18299845D-02 -0.52956582D-04
 -0.31236201D-02 -0.40242412D-03  0.35260442D-02  0.68593389D-16  0.57398233D-16
 -0.11128911D-01  0.15351904D-03 -0.51126452D-03  0.35774549D-03 -0.14921051D-16
 -0.54381404D-17  0.76816874D-04 -0.30307232D-01 -0.54660341D-01 -0.80596640D-01
 -0.44754865D-01  0.34105829D-02 -0.25064511D-03 -0.81589522D-16 -0.14923907D-01
 -0.17366276D-01  0.10545024D-15  0.44549232D-02 -0.63112882D-02  0.11768191D-16
  0.18299845D-02  0.52956582D-04  0.31236201D-02  0.40242412D-03 -0.35260442D-02
  0.40878376D-16  0.36851810D-16 -0.11128911D-01 -0.15351904D-03  0.51126452D-03
 -0.35774549D-03  0.12882901D-16  0.86463200D-17  0.76816874D-04 -0.97031405D-15
 -0.18088860D-14 -0.30573360D-14 -0.45961775D-14 -0.56469351D-14 -0.47697394D-14
 -0.17989702D-14  0.89032040D-17  0.60414264D-16  0.11311456D-15  0.19258722D-15
  0.29790315D-15  0.39232797D-15  0.40765389D-15  0.25904575D-15 -0.17360644D-15
  0.15175829D-13 -0.23223852D-12 -0.32871049D-13  0.17306830D-15  0.16226253D-15
  0.11554059D-15  0.53311686D+00  0.49983094D+00  0.35590941D+00 -0.45075064D-14
 -0.42260738D-14 -0.30092163D-14  0.23685476D-16  0.12492177D+00  0.94354321D-14
 -0.76024626D-17  0.13953804D-01  0.20893410D-13 -0.18720101D-17 -0.15492430D-03
  0.47057668D-15 -0.49603612D-14  0.19903610D-14  0.29700002D-14 -0.44841952D-16
 -0.13439295D-16 -0.74175316D-02  0.23588805D-13 -0.15367599D-13 -0.82212057D-14
  0.23827714D-16 -0.12186988D-16 -0.97122986D-02  0.22589123D-14 -0.19490941D-14
 -0.30981817D-15  0.22552619D-17 -0.40570544D-18 -0.19079698D-02  0.26951777D-17
 -0.98373599D-03 -0.34598387D-14  0.19823172D-17 -0.31347159D-02 -0.33784826D-14
 -0.10067850D-16  0.60859238D-02  0.13757999D-13  0.31966810D-16  0.18981088D-17
 -0.72323289D-03 -0.41688582D-14 -0.10433731D-16 -0.43572434D-05 -0.24082801D-14
  0.47394049D-17  0.21740559D-02  0.14914855D-13 -0.40705628D-16  0.11996952D-14
  0.22360775D-14  0.37916465D-14  0.57388336D-14  0.71603887D-14  0.61498189D-14
  0.23610351D-14 -0.10561055D-16 -0.62251282D-15 -0.11675382D-14 -0.19903967D-14
 -0.31106026D-14 -0.41594684D-14 -0.44413425D-14 -0.27153497D-14  0.17914228D-14
  0.56450519D-15  0.56473785D-13  0.22156171D-13  0.19335866D-15  0.18749286D-15
  0.12648157D-15  0.77539326D+00  0.75187064D+00  0.50720749D+00 -0.11240428D-16
 -0.10899434D-16 -0.73526940D-17  0.46661799D-16  0.17879658D+00 -0.10469875D-13
  0.10749635D-16  0.25906563D-01 -0.26456706D-13  0.38291774D-17  0.81931731D-03
 -0.13569574D-14 -0.28865613D-14  0.24253047D-14  0.46125658D-15 -0.80677859D-16
  0.35421416D-16 -0.92403562D-01  0.47138334D-15 -0.36085731D-14  0.31371897D-14
 -0.41494561D-16 -0.22177032D-16 -0.28107157D-01 -0.43219701D-15 -0.20025649D-14
  0.24347620D-14  0.33323078D-17  0.91360609D-17 -0.16767412D-02 -0.71194131D-17
 -0.10716530D-01 -0.39045287D-15  0.42038083D-17 -0.65587390D-02  0.36311073D-14
  0.17154431D-16  0.38708328D-01 -0.24597487D-14 -0.25595625D-16 -0.63620270D-18
 -0.69680164D-03 -0.41140887D-15 -0.92610702D-17 -0.12775088D-03 -0.93931836D-15
  0.11169678D-16  0.22181558D-02  0.21735450D-14  0.22900838D-16
MO    6     MO 0.0        OCC NO =    2.0000000  ORB. ENERGY =   -0.417924
  0.13029028D-01  0.23498388D-01  0.34648359D-01  0.22829342D-01  0.28448742D-03
  0.59781996D-04  0.37658724D-16 -0.13307472D-01  0.20552784D-03 -0.16389712D-16
 -0.44144548D-02 -0.20602415D-02  0.60138819D-16  0.20741041D-03 -0.98420444D-03
 -0.11436009D-02  0.52017039D-02 -0.40581031D-02 -0.26735812D-15  0.36501278D-15
 -0.10371615D-02 -0.36919726D-03  0.64412273D-04  0.30478498D-03  0.14036301D-16
  0.34172423D-16  0.32420189D-03  0.13029028D-01  0.23498388D-01  0.34648359D-01
  0.22829342D-01  0.28448742D-03  0.59781996D-04  0.26913383D-15  0.13307472D-01
  0.20552784D-03 -0.12729365D-15  0.44144548D-02 -0.20602415D-02 -0.29130651D-17
 -0.20741041D-03 -0.98420444D-03 -0.11436009D-02  0.52017039D-02 -0.40581031D-02
 -0.30538860D-16 -0.30946498D-16  0.10371615D-02 -0.36919726D-03  0.64412273D-04
  0.30478498D-03  0.18483031D-16 -0.34404399D-17 -0.32420189D-03  0.78426692D-03
  0.14620519D-02  0.24711252D-02  0.37149106D-02  0.45641969D-02  0.38551939D-02
  0.14540373D-02 -0.71961118D-05  0.93517883D-02  0.17509498D-01  0.29811419D-01
  0.46113732D-01  0.60730163D-01  0.63102530D-01  0.40098825D-01 -0.26873300D-01
 -0.15197816D-01  0.73449586D-02 -0.53370188D-03 -0.14999838D-14 -0.14063301D-14
 -0.10013908D-14  0.40207752D-14  0.37697323D-14  0.26842740D-14 -0.44368922D+00
 -0.41598685D+00 -0.29620742D+00 -0.41619096D-15 -0.15761731D-13 -0.92864908D-01
 -0.10877479D-15 -0.33552422D-13 -0.72538053D-02  0.43669638D-17 -0.80550081D-15
 -0.28289861D-04  0.62966328D-02  0.18775807D-01 -0.25072440D-01  0.27660372D-16
 -0.12262611D-15  0.22367764D-14  0.50237398D-03  0.17347528D-02 -0.22371268D-02
  0.52522046D-17  0.54321596D-16  0.82926726D-14 -0.59624606D-04  0.32528716D-03
 -0.26566256D-03 -0.85325977D-17  0.13696380D-16  0.11107610D-14 -0.92231649D-17
  0.34048973D-16 -0.57748383D-02  0.50958624D-16  0.13816812D-14  0.43573766D-02
 -0.23289130D-16 -0.14838281D-14  0.12967138D-01  0.30935525D-16  0.55722088D-17
  0.53379140D-15  0.64595182D-03 -0.71531563D-17  0.23387569D-14 -0.31099964D-03
 -0.95634701D-17 -0.39401311D-14 -0.16268558D-02  0.94773293D-17 -0.56455426D-03
 -0.10522565D-02 -0.17842784D-02 -0.27005884D-02 -0.33695458D-02 -0.28939905D-02
 -0.11110592D-02  0.49698361D-05 -0.38223583D-01 -0.71689277D-01 -0.12221450D+00
 -0.19099748D+00 -0.25540002D+00 -0.27270768D+00 -0.16672813D+00  0.10999709D+00
  0.64736746D-01  0.65674117D-01  0.83899744D-02 -0.32370231D-14 -0.31388235D-14
 -0.21174318D-14 -0.38115353D-14 -0.36959072D-14 -0.24932371D-14  0.14652149D+01
  0.14207656D+01  0.95844007D+00 -0.78645935D-15 -0.15462167D-14  0.32492675D+00
 -0.10191605D-15  0.10778701D-13  0.39281315D-01 -0.76976331D-17  0.23550894D-15
  0.22968408D-03  0.40130052D-01  0.34794055D-01 -0.74924107D-01  0.21145812D-16
  0.18954525D-15  0.28881064D-14  0.90255456D-02  0.71263383D-02 -0.16151884D-01
  0.60792163D-17  0.90329787D-16 -0.25633082D-14  0.13649553D-03  0.88629432D-03
 -0.10227899D-02 -0.12912122D-17 -0.31067532D-17 -0.35902421D-14  0.16327059D-16
 -0.51269651D-15  0.13153088D-01  0.36524341D-16 -0.15153867D-15 -0.17340149D-01
 -0.85505517D-16  0.16896282D-14 -0.22119115D-01 -0.30357805D-16  0.52098296D-17
 -0.11793624D-15  0.14526765D-02 -0.33788374D-17 -0.67003878D-15 -0.14966044D-02
 -0.12250652D-16  0.10238475D-14 -0.28614250D-02  0.12216459D-16
MO    7     MO 0.0        OCC NO =    2.0000000  ORB. ENERGY =   -0.375799
  0.86375653D-16  0.15578205D-15  0.22970054D-15  0.54807770D-15  0.69269036D-15
  0.20572447D-15  0.86029715D-02 -0.14722931D-15  0.18249629D-15  0.92545770D-02
  0.21491644D-15  0.10580041D-16 -0.96964981D-04  0.17797768D-16  0.30626934D-15
 -0.25241851D-15  0.11990683D-15  0.13251168D-15 -0.76442104D-02  0.67123793D-02
 -0.20576218D-16  0.25990991D-16 -0.10521740D-15  0.79226408D-16 -0.21198520D-03
  0.59224774D-03  0.46191960D-16  0.15005872D-15  0.27063709D-15  0.39905422D-15
  0.41613603D-15 -0.11279999D-14 -0.34337899D-15  0.86029715D-02  0.32397003D-15
 -0.90241376D-16  0.92545770D-02  0.38389624D-16 -0.12381753D-15 -0.96964981D-04
 -0.16563162D-15 -0.81007252D-16 -0.11290532D-15  0.31742496D-15 -0.20451964D-15
  0.76442104D-02  0.67123793D-02  0.13663880D-15  0.69873188D-16 -0.72071358D-17
 -0.62666052D-16  0.21198520D-03  0.59224774D-03  0.97657595D-16  0.83346432D-16
  0.15537670D-15  0.26261399D-15  0.39479486D-15  0.48505110D-15  0.40970319D-15
  0.15452497D-15 -0.76475270D-18 -0.66375876D-16 -0.12427658D-15 -0.21159152D-15
 -0.32729990D-15 -0.43104246D-15 -0.44788072D-15 -0.28460809D-15  0.19073773D-15
 -0.44363422D-16 -0.23076410D-15  0.47824521D-15  0.43086206D+00  0.40396057D+00
  0.28764399D+00  0.31161266D-15  0.29215667D-15  0.20803296D-15 -0.16503820D-14
 -0.15473380D-14 -0.11017969D-14  0.10475489D+00  0.13889722D-15 -0.25026793D-15
  0.10175619D-01 -0.81352205D-15 -0.14816418D-15  0.52050092D-04 -0.10487110D-15
 -0.16580625D-16 -0.34776217D-15  0.20057060D-15  0.14719157D-15  0.24282428D-15
  0.60567034D-01 -0.61114379D-15  0.73409972D-16 -0.24105116D-16 -0.49304856D-16
  0.62463344D-15  0.11306704D-01 -0.27922193D-15 -0.16642911D-16 -0.42389024D-16
  0.59031935D-16 -0.85496125D-16 -0.29289528D-03 -0.45793602D-16 -0.43280743D-02
 -0.35215852D-16  0.68614446D-16 -0.28282802D-02 -0.45532431D-16 -0.23574093D-15
  0.15812503D-01  0.15117999D-15  0.29897593D-16 -0.72244023D-15  0.31740435D-03
 -0.41592037D-16 -0.65811540D-16 -0.15421339D-02  0.68069339D-16  0.45532219D-16
  0.58992085D-03  0.56706770D-16  0.15190240D-15  0.27276450D-15 -0.98229604D-16
 -0.18308734D-15 -0.31045547D-15 -0.46988881D-15 -0.58628405D-15 -0.50353981D-15
 -0.19331872D-15  0.86472651D-18 -0.38008240D-16 -0.71285395D-16 -0.12152597D-15
 -0.18992144D-15 -0.25396115D-15 -0.27117130D-15 -0.16578882D-15  0.10937739D-15
  0.33010371D-15  0.49440344D-15 -0.27238288D-15  0.14076287D+01  0.13649263D+01
  0.92077125D+00 -0.19221552D-14 -0.18638440D-14 -0.12573381D-14  0.44715144D-14
  0.43358648D-14  0.29249488D-14  0.33432583D+00 -0.75174856D-15  0.11338371D-14
  0.48582905D-01  0.24322081D-15 -0.11544992D-15  0.91897137D-03  0.73542678D-16
  0.22908685D-16 -0.39771256D-15  0.27607921D-15  0.12163335D-15  0.31574665D-15
 -0.10944711D+00  0.64625204D-17  0.94003885D-16  0.57316744D-16 -0.15132063D-15
 -0.29504678D-15 -0.32363496D-01  0.21724327D-16 -0.44655189D-16  0.14478143D-16
  0.30177046D-16 -0.16084927D-16 -0.27761194D-02 -0.22359739D-15 -0.86870879D-02
  0.15424357D-15  0.46449210D-16 -0.14544115D-01 -0.12735922D-15  0.62941584D-15
  0.40605378D-01 -0.33537150D-15 -0.76876347D-15  0.20265366D-15 -0.75511318D-03
 -0.10143754D-15 -0.64785018D-16 -0.68067553D-03  0.35811695D-16  0.11520352D-15
  0.29460151D-02  0.26850092D-15  0.79151535D-16  0.16663528D-15
MO    8     MO 0.0        OCC NO =    2.0000000  ORB. ENERGY =   -0.236634
 -0.26318308D-01 -0.47466153D-01 -0.69988815D-01 -0.47332685D-01  0.62528976D-02
  0.31440640D-03  0.57072782D-16  0.79909896D-02 -0.27535815D-02 -0.11702241D-15
  0.61690751D-03  0.32885050D-02  0.74910717D-16 -0.26179323D-02  0.19358639D-02
  0.30076088D-03 -0.34274139D-02  0.31266530D-02 -0.16014979D-15  0.14925669D-15
  0.17779306D-02  0.29156409D-03 -0.42518288D-04 -0.24904580D-03 -0.45654100D-16
 -0.76811629D-16  0.43109784D-03  0.26318308D-01  0.47466153D-01  0.69988815D-01
  0.47332685D-01 -0.62528976D-02 -0.31440640D-03  0.74206152D-16  0.79909896D-02
  0.27535815D-02 -0.55324340D-16  0.61690751D-03 -0.32885050D-02 -0.98547358D-17
 -0.26179323D-02 -0.19358639D-02 -0.30076088D-03  0.34274139D-02 -0.31266530D-02
 -0.41670824D-16 -0.22725926D-16  0.17779306D-02 -0.29156409D-03  0.42518288D-04