 Molden2AIM, Version 4.0.0 (06/02/2016)           Time: Sat Jun 30 05:38:24 2018
GAUSSIAN             22 MOL ORBITALS    419 PRIMITIVES        5 NUCLEI
  C    1    (CENTRE  1)   0.00000000  0.00000000 -2.19838832  CHARGE =  6.0
  Br   2    (CENTRE  2)   0.00000000  0.00000000  1.46937356  CHARGE = 35.0
  H    3    (CENTRE  3)   0.00000000  1.96599547 -2.83616333  CHARGE =  1.0
  H    4    (CENTRE  4)   1.70259977 -0.98299774 -2.83616522  CHARGE =  1.0
  H    5    (CENTRE  5)  -1.70259977 -0.98299774 -2.83616522  CHARGE =  1.0
CENTRE ASSIGNMENTS    1  1  1  1  1  1  1  1  1  1  1  1  1  1  1  1  1  1  1  1
CENTRE ASSIGNMENTS    1  1  1  1  1  1  1  1  1  1  1  1  1  1  1  1  1  1  1  1
CENTRE ASSIGNMENTS    1  1  1  1  1  1  1  1  1  1  1  1  1  1  1  1  1  1  1  1
CENTRE ASSIGNMENTS    1  1  1  1  1  1  1  1  1  1  1  1  1  1  1  2  2  2  2  2
CENTRE ASSIGNMENTS    2  2  2  2  2  2  2  2  2  2  2  2  2  2  2  2  2  2  2  2
CENTRE ASSIGNMENTS    2  2  2  2  2  2  2  2  2  2  2  2  2  2  2  2  2  2  2  2
CENTRE ASSIGNMENTS    2  2  2  2  2  2  2  2  2  2  2  2  2  2  2  2  2  2  2  2
CENTRE ASSIGNMENTS    2  2  2  2  2  2  2  2  2  2  2  2  2  2  2  2  2  2  2  2
CENTRE ASSIGNMENTS    2  2  2  2  2  2  2  2  2  2  2  2  2  2  2  2  2  2  2  2
CENTRE ASSIGNMENTS    2  2  2  2  2  2  2  2  2  2  2  2  2  2  2  2  2  2  2  2
CENTRE ASSIGNMENTS    2  2  2  2  2  2  2  2  2  2  2  2  2  2  2  2  2  2  2  2
CENTRE ASSIGNMENTS    2  2  2  2  2  2  2  2  2  2  2  2  2  2  2  2  2  2  2  2
CENTRE ASSIGNMENTS    2  2  2  2  2  2  2  2  2  2  2  2  2  2  2  2  2  2  2  2
CENTRE ASSIGNMENTS    2  2  2  2  2  2  2  2  2  2  2  2  2  2  2  2  2  2  2  2
CENTRE ASSIGNMENTS    2  2  2  2  2  2  2  2  2  2  2  2  2  2  2  2  2  2  2  2
CENTRE ASSIGNMENTS    2  2  2  2  2  2  2  2  2  2  2  2  2  2  2  2  2  2  2  2
CENTRE ASSIGNMENTS    2  2  2  2  2  2  2  2  2  2  2  2  2  2  2  2  2  2  3  3
CENTRE ASSIGNMENTS    3  3  3  3  3  3  3  3  3  3  3  3  3  3  3  3  3  3  3  3
CENTRE ASSIGNMENTS    3  3  3  3  3  4  4  4  4  4  4  4  4  4  4  4  4  4  4  4
CENTRE ASSIGNMENTS    4  4  4  4  4  4  4  4  4  4  4  4  5  5  5  5  5  5  5  5
CENTRE ASSIGNMENTS    5  5  5  5  5  5  5  5  5  5  5  5  5  5  5  5  5  5  5
TYPE ASSIGNMENTS      1  1  1  1  1  1  1  1  1  1  1  1  1  1  1  1  1  1  1  2
TYPE ASSIGNMENTS      2  2  3  3  3  4  4  4  2  3  4  2  3  4  2  3  4  5  6  7
TYPE ASSIGNMENTS      8  9 10  5  6  7  8  9 10  5  6  7  8  9 10 11 12 13 17 14
TYPE ASSIGNMENTS     15 18 19 16 20 11 12 13 17 14 15 18 19 16 20  1  1  1  1  1
TYPE ASSIGNMENTS      1  1  1  1  1  1  1  1  1  1  1  1  1  1  1  1  1  1  1  1
TYPE ASSIGNMENTS      1  1  1  1  1  1  1  1  1  1  1  1  1  1  1  1  1  1  1  1
TYPE ASSIGNMENTS      1  1  1  1  1  1  1  1  1  1  1  1  1  1  1  1  1  1  1  1
TYPE ASSIGNMENTS      1  1  1  1  1  1  1  1  1  1  2  2  2  2  2  2  2  2  2  2
TYPE ASSIGNMENTS      2  3  3  3  3  3  3  3  3  3  3  3  4  4  4  4  4  4  4  4
TYPE ASSIGNMENTS      4  4  4  2  2  2  2  2  2  2  2  2  2  2  3  3  3  3  3  3
TYPE ASSIGNMENTS      3  3  3  3  3  4  4  4  4  4  4  4  4  4  4  4  2  2  2  2
TYPE ASSIGNMENTS      2  2  2  2  2  2  2  3  3  3  3  3  3  3  3  3  3  3  4  4
TYPE ASSIGNMENTS      4  4  4  4  4  4  4  4  4  2  3  4  2  3  4  2  3  4  5  5
TYPE ASSIGNMENTS      5  5  5  5  5  6  6  6  6  6  6  6  7  7  7  7  7  7  7  8
TYPE ASSIGNMENTS      8  8  8  8  8  8  9  9  9  9  9  9  9 10 10 10 10 10 10 10
TYPE ASSIGNMENTS      5  6  7  8  9 10  5  6  7  8  9 10  5  6  7  8  9 10 11 12
TYPE ASSIGNMENTS     13 17 14 15 18 19 16 20 11 12 13 17 14 15 18 19 16 20  1  1
TYPE ASSIGNMENTS      1  1  1  1  2  3  4  2  3  4  2  3  4  5  6  7  8  9 10  5
TYPE ASSIGNMENTS      6  7  8  9 10  1  1  1  1  1  1  2  3  4  2  3  4  2  3  4
TYPE ASSIGNMENTS      5  6  7  8  9 10  5  6  7  8  9 10  1  1  1  1  1  1  2  3
TYPE ASSIGNMENTS      4  2  3  4  2  3  4  5  6  7  8  9 10  5  6  7  8  9 10
EXPONENTS  0.8236000D+04 0.1235000D+04 0.2808000D+03 0.7927000D+02 0.2559000D+02
EXPONENTS  0.8997000D+01 0.3319000D+01 0.3643000D+00 0.8236000D+04 0.1235000D+04
EXPONENTS  0.2808000D+03 0.7927000D+02 0.2559000D+02 0.8997000D+01 0.3319000D+01
EXPONENTS  0.3643000D+00 0.9059000D+00 0.1285000D+00 0.4402000D-01 0.1871000D+02
EXPONENTS  0.4133000D+01 0.1200000D+01 0.1871000D+02 0.4133000D+01 0.1200000D+01
EXPONENTS  0.1871000D+02 0.4133000D+01 0.1200000D+01 0.3827000D+00 0.3827000D+00
EXPONENTS  0.3827000D+00 0.1209000D+00 0.1209000D+00 0.1209000D+00 0.3569000D-01
EXPONENTS  0.3569000D-01 0.3569000D-01 0.1097000D+01 0.1097000D+01 0.1097000D+01
EXPONENTS  0.1097000D+01 0.1097000D+01 0.1097000D+01 0.3180000D+00 0.3180000D+00
EXPONENTS  0.3180000D+00 0.3180000D+00 0.3180000D+00 0.3180000D+00 0.1000000D+00
EXPONENTS  0.1000000D+00 0.1000000D+00 0.1000000D+00 0.1000000D+00 0.1000000D+00
EXPONENTS  0.7610000D+00 0.7610000D+00 0.7610000D+00 0.7610000D+00 0.7610000D+00
EXPONENTS  0.7610000D+00 0.7610000D+00 0.7610000D+00 0.7610000D+00 0.7610000D+00
EXPONENTS  0.2680000D+00 0.2680000D+00 0.2680000D+00 0.2680000D+00 0.2680000D+00
EXPONENTS  0.2680000D+00 0.2680000D+00 0.2680000D+00 0.2680000D+00 0.2680000D+00
EXPONENTS  0.1063900D+08 0.1593400D+07 0.3626100D+06 0.1027000D+06 0.3350100D+05
EXPONENTS  0.1209300D+05 0.4715900D+04 0.1955600D+04 0.8526100D+03 0.3876700D+03
EXPONENTS  0.1826800D+03 0.8824500D+02 0.3926300D+02 0.1923400D+02 0.9405700D+01
EXPONENTS  0.4160100D+01 0.1899500D+01 0.3011400D+00 0.1063900D+08 0.1593400D+07
EXPONENTS  0.3626100D+06 0.1027000D+06 0.3350100D+05 0.1209300D+05 0.4715900D+04
EXPONENTS  0.1955600D+04 0.8526100D+03 0.3876700D+03 0.1826800D+03 0.8824500D+02
EXPONENTS  0.3926300D+02 0.1923400D+02 0.9405700D+01 0.4160100D+01 0.1899500D+01
EXPONENTS  0.3011400D+00 0.1063900D+08 0.1593400D+07 0.3626100D+06 0.1027000D+06
EXPONENTS  0.3350100D+05 0.1209300D+05 0.4715900D+04 0.1955600D+04 0.8526100D+03
EXPONENTS  0.3876700D+03 0.1826800D+03 0.8824500D+02 0.3926300D+02 0.1923400D+02
EXPONENTS  0.9405700D+01 0.4160100D+01 0.1899500D+01 0.3011400D+00 0.1063900D+08
EXPONENTS  0.1593400D+07 0.3626100D+06 0.1027000D+06 0.3350100D+05 0.1209300D+05
EXPONENTS  0.4715900D+04 0.1955600D+04 0.8526100D+03 0.3876700D+03 0.1826800D+03
EXPONENTS  0.8824500D+02 0.3926300D+02 0.1923400D+02 0.9405700D+01 0.4160100D+01
EXPONENTS  0.1899500D+01 0.3011400D+00 0.6047200D+00 0.1251500D+00 0.4559300D-01
EXPONENTS  0.8676500D+04 0.2055900D+04 0.6662300D+03 0.2531000D+03 0.1061200D+03
EXPONENTS  0.4724200D+02 0.2182500D+02 0.9968400D+01 0.4517100D+01 0.1998200D+01
EXPONENTS  0.2814500D+00 0.8676500D+04 0.2055900D+04 0.6662300D+03 0.2531000D+03
EXPONENTS  0.1061200D+03 0.4724200D+02 0.2182500D+02 0.9968400D+01 0.4517100D+01
EXPONENTS  0.1998200D+01 0.2814500D+00 0.8676500D+04 0.2055900D+04 0.6662300D+03
EXPONENTS  0.2531000D+03 0.1061200D+03 0.4724200D+02 0.2182500D+02 0.9968400D+01
EXPONENTS  0.4517100D+01 0.1998200D+01 0.2814500D+00 0.8676500D+04 0.2055900D+04
EXPONENTS  0.6662300D+03 0.2531000D+03 0.1061200D+03 0.4724200D+02 0.2182500D+02
EXPONENTS  0.9968400D+01 0.4517100D+01 0.1998200D+01 0.2814500D+00 0.8676500D+04
EXPONENTS  0.2055900D+04 0.6662300D+03 0.2531000D+03 0.1061200D+03 0.4724200D+02
EXPONENTS  0.2182500D+02 0.9968400D+01 0.4517100D+01 0.1998200D+01 0.2814500D+00
EXPONENTS  0.8676500D+04 0.2055900D+04 0.6662300D+03 0.2531000D+03 0.1061200D+03
EXPONENTS  0.4724200D+02 0.2182500D+02 0.9968400D+01 0.4517100D+01 0.1998200D+01
EXPONENTS  0.2814500D+00 0.8676500D+04 0.2055900D+04 0.6662300D+03 0.2531000D+03
EXPONENTS  0.1061200D+03 0.4724200D+02 0.2182500D+02 0.9968400D+01 0.4517100D+01
EXPONENTS  0.1998200D+01 0.2814500D+00 0.8676500D+04 0.2055900D+04 0.6662300D+03
EXPONENTS  0.2531000D+03 0.1061200D+03 0.4724200D+02 0.2182500D+02 0.9968400D+01
EXPONENTS  0.4517100D+01 0.1998200D+01 0.2814500D+00 0.8676500D+04 0.2055900D+04
EXPONENTS  0.6662300D+03 0.2531000D+03 0.1061200D+03 0.4724200D+02 0.2182500D+02
EXPONENTS  0.9968400D+01 0.4517100D+01 0.1998200D+01 0.2814500D+00 0.7098800D+00
EXPONENTS  0.7098800D+00 0.7098800D+00 0.1020400D+00 0.1020400D+00 0.1020400D+00
EXPONENTS  0.3514200D-01 0.3514200D-01 0.3514200D-01 0.4038300D+03 0.1211700D+03
EXPONENTS  0.4634500D+02 0.1972100D+02 0.8862400D+01 0.3996200D+01 0.1763600D+01
EXPONENTS  0.4038300D+03 0.1211700D+03 0.4634500D+02 0.1972100D+02 0.8862400D+01
EXPONENTS  0.3996200D+01 0.1763600D+01 0.4038300D+03 0.1211700D+03 0.4634500D+02
EXPONENTS  0.1972100D+02 0.8862400D+01 0.3996200D+01 0.1763600D+01 0.4038300D+03
EXPONENTS  0.1211700D+03 0.4634500D+02 0.1972100D+02 0.8862400D+01 0.3996200D+01
EXPONENTS  0.1763600D+01 0.4038300D+03 0.1211700D+03 0.4634500D+02 0.1972100D+02
EXPONENTS  0.8862400D+01 0.3996200D+01 0.1763600D+01 0.4038300D+03 0.1211700D+03
EXPONENTS  0.4634500D+02 0.1972100D+02 0.8862400D+01 0.3996200D+01 0.1763600D+01
EXPONENTS  0.7061900D+00 0.7061900D+00 0.7061900D+00 0.7061900D+00 0.7061900D+00
EXPONENTS  0.7061900D+00 0.2639000D+00 0.2639000D+00 0.2639000D+00 0.2639000D+00
EXPONENTS  0.2639000D+00 0.2639000D+00 0.1047000D+00 0.1047000D+00 0.1047000D+00
EXPONENTS  0.1047000D+00 0.1047000D+00 0.1047000D+00 0.5515000D+00 0.5515000D+00
EXPONENTS  0.5515000D+00 0.5515000D+00 0.5515000D+00 0.5515000D+00 0.5515000D+00
EXPONENTS  0.5515000D+00 0.5515000D+00 0.5515000D+00 0.2580000D+00 0.2580000D+00
EXPONENTS  0.2580000D+00 0.2580000D+00 0.2580000D+00 0.2580000D+00 0.2580000D+00
EXPONENTS  0.2580000D+00 0.2580000D+00 0.2580000D+00 0.3387000D+02 0.5095000D+01
EXPONENTS  0.1159000D+01 0.3258000D+00 0.1027000D+00 0.2526000D-01 0.1407000D+01
EXPONENTS  0.1407000D+01 0.1407000D+01 0.3880000D+00 0.3880000D+00 0.3880000D+00
EXPONENTS  0.1020000D+00 0.1020000D+00 0.1020000D+00 0.1057000D+01 0.1057000D+01
EXPONENTS  0.1057000D+01 0.1057000D+01 0.1057000D+01 0.1057000D+01 0.2470000D+00
EXPONENTS  0.2470000D+00 0.2470000D+00 0.2470000D+00 0.2470000D+00 0.2470000D+00
EXPONENTS  0.3387000D+02 0.5095000D+01 0.1159000D+01 0.3258000D+00 0.1027000D+00
EXPONENTS  0.2526000D-01 0.1407000D+01 0.1407000D+01 0.1407000D+01 0.3880000D+00
EXPONENTS  0.3880000D+00 0.3880000D+00 0.1020000D+00 0.1020000D+00 0.1020000D+00
EXPONENTS  0.1057000D+01 0.1057000D+01 0.1057000D+01 0.1057000D+01 0.1057000D+01
EXPONENTS  0.1057000D+01 0.2470000D+00 0.2470000D+00 0.2470000D+00 0.2470000D+00
EXPONENTS  0.2470000D+00 0.2470000D+00 0.3387000D+02 0.5095000D+01 0.1159000D+01
EXPONENTS  0.3258000D+00 0.1027000D+00 0.2526000D-01 0.1407000D+01 0.1407000D+01
EXPONENTS  0.1407000D+01 0.3880000D+00 0.3880000D+00 0.3880000D+00 0.1020000D+00
EXPONENTS  0.1020000D+00 0.1020000D+00 0.1057000D+01 0.1057000D+01 0.1057000D+01
EXPONENTS  0.1057000D+01 0.1057000D+01 0.1057000D+01 0.2470000D+00 0.2470000D+00
EXPONENTS  0.2470000D+00 0.2470000D+00 0.2470000D+00 0.2470000D+00
MO    1     MO 0.0        OCC NO =    2.0000000  ORB. ENERGY = -482.245293
 -0.34259003D-05 -0.63866570D-05 -0.10794575D-04 -0.16227783D-04 -0.19937706D-04
 -0.16840580D-04 -0.63516472D-05  0.31434656D-07  0.25213715D-05  0.47208030D-05
  0.80375711D-05  0.12432900D-04  0.16373692D-04  0.17013315D-04  0.10811198D-04
 -0.72454135D-05 -0.81480152D-05  0.52727809D-04 -0.98716475D-05  0.21762879D-16
  0.20404083D-16  0.14528922D-16 -0.87041558D-11 -0.81606994D-11 -0.58109041D-11
 -0.14468248D-04 -0.13564902D-04 -0.96590184D-05 -0.11164607D-15  0.92953938D-10
 -0.17710497D-04 -0.82948324D-16 -0.10236925D-10 -0.51469484D-04 -0.26674031D-17
 -0.14354495D-11 -0.11417397D-05  0.92646482D-05  0.92646724D-05 -0.18529321D-04
  0.30724560D-16  0.30009218D-16 -0.43782050D-10 -0.42400687D-05 -0.42399536D-05
  0.84800223D-05  0.51015855D-16  0.18194542D-16  0.60995081D-10  0.18111372D-05
  0.18111572D-05 -0.36222943D-05  0.86908632D-17 -0.14241833D-17  0.12797925D-10
 -0.57676948D-17 -0.19406963D-05  0.49434631D-05 -0.42082966D-19  0.58221145D-05
 -0.74151955D-05  0.17345168D-16 -0.25616718D-10 -0.74151938D-05 -0.20323938D-16
 -0.11075081D-17  0.27575116D-06  0.46679195D-05  0.15659192D-17 -0.82722226D-06
 -0.70018663D-05  0.17566050D-17 -0.31219473D-10 -0.70018923D-05  0.27695643D-18
  0.78327869D+00  0.14734426D+01  0.25506018D+01  0.41809244D+01  0.65494990D+01
  0.98444548D+01  0.14070199D+02  0.18678539D+02  0.21753695D+02  0.19980559D+02
  0.11683418D+02  0.30657874D+01  0.16760540D+00 -0.59989241D-02  0.16765100D-02
 -0.49781238D-03  0.84868393D-04  0.69240935D-05  0.57460655D-04  0.10557303D-03
  0.18256009D-03  0.29896767D-03  0.47071116D-03  0.71081997D-03  0.10375801D-02
  0.14288108D-02  0.18256377D-02  0.19901590D-02  0.16382073D-02  0.44918532D-03
 -0.90603591D-03 -0.88297157D-03 -0.19321905D-03 -0.65093721D-05 -0.22051673D-06
  0.56096611D-09 -0.11249663D-03 -0.22053846D-03 -0.38626765D-03 -0.63103565D-03
 -0.99529521D-03 -0.15018560D-02 -0.22020193D-02 -0.30402520D-02 -0.39417017D-02
 -0.43834043D-02 -0.38072565D-02 -0.11059399D-02  0.27880611D-02  0.40624015D-02
  0.69935694D-03 -0.17061315D-02 -0.81207557D-03  0.39217609D-05  0.39959354D-04
  0.86582272D-04  0.14739259D-03  0.24058439D-03  0.37925769D-03  0.57240939D-03
  0.83924546D-03  0.11601973D-02  0.15058197D-02  0.16822639D-02  0.14694956D-02
  0.43526602D-03 -0.11314416D-02 -0.17405397D-02 -0.30464759D-03  0.96099398D-03
  0.81573856D-03 -0.30434476D-03  0.27759474D-03  0.15761284D-03  0.28692403D-04
  0.76503952D-16  0.10976963D-15  0.14534082D-15  0.16782747D-15  0.15558378D-15
  0.10072778D-15  0.35553207D-16  0.41671424D-17  0.60582538D-19  0.88716383D-20
  0.91214219D-22 -0.24111176D-07 -0.34595269D-07 -0.45805975D-07 -0.52892923D-07
 -0.49034173D-07 -0.31745617D-07 -0.11205037D-07 -0.13133270D-08 -0.19093343D-10
 -0.27960076D-11 -0.28747300D-13  0.21080895D-03  0.30247351D-03  0.40049101D-03
  0.46245365D-03  0.42871581D-03  0.27755843D-03  0.97967932D-04  0.11482686D-04
  0.16693701D-06  0.24446067D-07  0.25134353D-09 -0.30567067D-15 -0.44123912D-15
 -0.58948492D-15 -0.70032617D-15 -0.67866974D-15 -0.47176204D-15 -0.15350684D-15
  0.69090261D-16  0.74640533D-16  0.19215977D-16 -0.18743411D-19 -0.57942981D-08
 -0.83641358D-08 -0.11174286D-07 -0.13275394D-07 -0.12864874D-07 -0.89427288D-08
 -0.29098782D-08  0.13096761D-08  0.14148871D-08  0.36425836D-09 -0.35530040D-12
 -0.16721377D-02 -0.24137500D-02 -0.32247123D-02 -0.38310572D-02 -0.37125880D-02
 -0.25807223D-02 -0.83974227D-03  0.37795066D-03  0.40831281D-03  0.10511888D-03
 -0.10253376D-06  0.20844530D-15  0.30288027D-15  0.40268284D-15  0.48319153D-15
  0.46748994D-15  0.33186343D-15  0.10314399D-15 -0.59218771D-16 -0.68029222D-16
 -0.18065758D-16  0.65181817D-17  0.12036697D-08  0.17489854D-08  0.23252964D-08
  0.27901947D-08  0.26995257D-08  0.19163489D-08  0.59560606D-09 -0.34195943D-09
 -0.39283547D-09 -0.10432091D-09  0.37639310D-10  0.12409813D-02  0.18032009D-02
  0.23973765D-02  0.28766858D-02  0.27832063D-02  0.19757524D-02  0.61406880D-03
 -0.35255957D-03 -0.40501268D-03 -0.10755468D-03  0.38806063D-04 -0.75124646D-17
 -0.13974230D-09 -0.10914579D-04  0.13740595D-17  0.42070743D-11 -0.60510796D-04
 -0.23897538D-18  0.10956655D-11 -0.14636442D-05 -0.19652595D-03 -0.20564323D-03
 -0.17521904D-03 -0.11539498D-03 -0.53182112D-04 -0.15925470D-04 -0.27095836D-05
 -0.19652630D-03 -0.20564360D-03 -0.17521935D-03 -0.11539519D-03 -0.53182208D-04
 -0.15925498D-04 -0.27095885D-05  0.39305225D-03  0.41128683D-03  0.35043839D-03
  0.23079017D-03  0.10636432D-03  0.31850968D-04  0.54191721D-05 -0.36994768D-16
 -0.38711038D-16 -0.32983876D-16 -0.21722376D-16 -0.10011196D-16 -0.29978690D-17
 -0.51006199D-18 -0.12705438D-15 -0.13294872D-15 -0.11327943D-15 -0.74603067D-16
 -0.34382332D-16 -0.10295845D-16 -0.17517507D-17  0.35833342D-09  0.37495731D-09
  0.31948370D-09  0.21040417D-09  0.96969017D-10  0.29037529D-10  0.49404894D-11
  0.11785273D-04  0.11785276D-04 -0.23570549D-04  0.30327243D-17  0.93942487D-17
  0.80829839D-11 -0.16168892D-05 -0.16168886D-05  0.32337778D-05 -0.23129496D-17
 -0.64647476D-17 -0.14271858D-10 -0.40329873D-05 -0.40329855D-05  0.80659728D-05
  0.53204673D-18  0.47671528D-18 -0.45361219D-11  0.94508207D-19 -0.93766361D-06
  0.12042445D-04 -0.65379529D-18  0.28130017D-05 -0.18063671D-04  0.37027067D-18
 -0.10853625D-10 -0.18063663D-04  0.58435803D-17 -0.19753669D-18  0.37745550D-06
 -0.43073512D-05  0.27488096D-20 -0.11323757D-05  0.64610299D-05  0.58986126D-18
  0.92480948D-11  0.64610237D-05 -0.62051827D-18  0.16889165D-05  0.30460304D-05
  0.44913701D-05 -0.22686937D-04 -0.49448491D-04 -0.64577322D-06 -0.17257870D-17
 -0.48241106D-05 -0.24777668D-05 -0.23380256D-17  0.17012788D-04  0.10897419D-04
 -0.62519238D-17  0.65847733D-05 -0.82978102D-05  0.38809896D-06 -0.10500370D-04
  0.10112271D-04 -0.65039816D-17 -0.70369674D-17 -0.52889687D-05  0.41325381D-06
  0.15058509D-05 -0.19191048D-05  0.31833125D-17 -0.37862518D-18 -0.12665367D-06
  0.16889153D-05  0.30460284D-05  0.44913671D-05 -0.22686851D-04 -0.49448315D-04
 -0.64577210D-06 -0.41777319D-05  0.24120135D-05 -0.24778263D-05  0.14733433D-04
 -0.85063018D-05  0.10897559D-04  0.57025565D-05 -0.32923497D-05 -0.82977741D-05
 -0.77782629D-05 -0.23340292D-05  0.10112292D-04  0.94296490D-05 -0.45804049D-05
  0.26445091D-05  0.12327012D-05  0.68639911D-06 -0.19191004D-05 -0.94624998D-06
 -0.10972525D-06  0.63336354D-07  0.16889153D-05  0.30460284D-05  0.44913671D-05
 -0.22686851D-04 -0.49448315D-04 -0.64577210D-06  0.41777319D-05  0.24120135D-05
 -0.24778263D-05 -0.14733433D-04 -0.85063018D-05  0.10897559D-04 -0.57025565D-05
 -0.32923497D-05 -0.82977741D-05 -0.77782629D-05 -0.23340292D-05  0.10112292D-04
 -0.94296490D-05  0.45804049D-05  0.26445091D-05  0.12327012D-05  0.68639911D-06
 -0.19191004D-05  0.94624998D-06  0.10972525D-06  0.63336354D-07
MO    2     MO 0.0        OCC NO =    2.0000000  ORB. ENERGY =  -62.335289
  0.38707458D-04  0.72159503D-04  0.12196227D-03  0.18334924D-03  0.22526573D-03
  0.19027292D-03  0.71763945D-04 -0.35516377D-06 -0.28911234D-04 -0.54130952D-04
 -0.92162578D-04 -0.14256149D-03 -0.18774847D-03 -0.19508269D-03 -0.12396629D-03
  0.83079326D-04  0.11376301D-03 -0.71940058D-03  0.12761807D-03 -0.24295384D-15
 -0.22778466D-15 -0.16219625D-15  0.27012851D-08  0.25326265D-08  0.18033809D-08
  0.17871105D-03  0.16755296D-03  0.11930769D-03  0.44633367D-14 -0.15808210D-07
  0.21680562D-03  0.35827179D-14 -0.32330165D-08  0.68135374D-03  0.50624600D-16
  0.73911940D-10  0.14676986D-04 -0.10683717D-03 -0.10684183D-03  0.21367900D-03
 -0.91152640D-15 -0.96647343D-15  0.71304689D-08  0.43670266D-04  0.43664547D-04
 -0.87334813D-04 -0.30411221D-14 -0.12934992D-14  0.49589924D-09 -0.24294127D-04
 -0.24295034D-04  0.48589160D-04 -0.59967764D-15 -0.33705508D-17 -0.10112981D-08
  0.16283067D-15  0.20282505D-04 -0.57836321D-04  0.51287875D-16 -0.60847500D-04
  0.86754656D-04 -0.53977988D-15 -0.15228793D-10  0.86754307D-04  0.12307401D-14
  0.54572401D-17 -0.64611958D-05 -0.58347687D-04  0.24302499D-17  0.19382597D-04
  0.87521107D-04 -0.18801970D-16  0.99014018D-09  0.87521953D-04  0.41376941D-15
  0.44054583D-03  0.82872037D-03  0.14345558D-02  0.23515115D-02  0.36836883D-02
  0.55368972D-02  0.79136169D-02  0.10505523D-01  0.12235109D-01  0.11237829D-01
  0.65712005D-02  0.17243159D-02  0.94267677D-04 -0.33740239D-05  0.94293321D-06
 -0.27998869D-06  0.47733224D-07  0.38943745D-08 -0.25334301D+00 -0.46546962D+00
 -0.80490424D+00 -0.13181432D+01 -0.20753572D+01 -0.31339927D+01 -0.45746723D+01
 -0.62996017D+01 -0.80492044D+01 -0.87745760D+01 -0.72228271D+01 -0.19804502D+01
  0.39946964D+01  0.38930061D+01  0.85189941D+00  0.28699707D-01  0.97225436D-03
 -0.24732897D-05  0.14200990D-02  0.27839628D-02  0.48760419D-02  0.79658657D-02
  0.12564089D-01  0.18958649D-01  0.27797147D-01  0.38378559D-01  0.49757992D-01
  0.55333816D-01  0.48060825D-01  0.13960810D-01 -0.35195033D-01 -0.51281643D-01
 -0.88283182D-02  0.21537316D-01  0.10251220D-01 -0.49506270D-04 -0.52901937D-03
 -0.11462572D-02 -0.19513211D-02 -0.31850816D-02 -0.50209686D-02 -0.75780918D-02
 -0.11110718D-01 -0.15359778D-01 -0.19935451D-01 -0.22271385D-01 -0.19454559D-01
 -0.57624594D-02  0.14979084D-01  0.23042895D-01  0.40332102D-02 -0.12722539D-01
 -0.10799511D-01  0.40292011D-02 -0.40382247D-02 -0.21032914D-02 -0.37362749D-03
 -0.30406208D-14 -0.43627525D-14 -0.57765163D-14 -0.66702397D-14 -0.61836190D-14
 -0.40033877D-14 -0.14130488D-14 -0.16562151D-15 -0.24078302D-17 -0.35259993D-18
 -0.36252748D-20 -0.72279397D-05 -0.10370814D-04 -0.13731509D-04 -0.15856002D-04
 -0.14699243D-04 -0.95165582D-05 -0.33589956D-05 -0.39370324D-06 -0.57237165D-08
 -0.83817456D-09 -0.86177362D-11 -0.48258416D-01 -0.69242283D-01 -0.91680464D-01
 -0.10586496D+00 -0.98141689D-01 -0.63538718D-01 -0.22426834D-01 -0.26286184D-02
 -0.38215246D-04 -0.55961973D-05 -0.57537600D-07  0.14764252D-13  0.21312368D-13
  0.28472814D-13  0.33826576D-13  0.32780545D-13  0.22786660D-13  0.74145607D-14
 -0.33371407D-14 -0.36052254D-14 -0.92815423D-15  0.90532875D-18  0.13735587D-06
  0.19827478D-06  0.26489037D-06  0.31469789D-06  0.30496638D-06  0.21199053D-06
  0.68979686D-07 -0.31046333D-07 -0.33540397D-07 -0.86348726D-08  0.84225209D-11
  0.21689182D-01  0.31308583D-01  0.41827518D-01  0.49692375D-01  0.48155721D-01
  0.33474369D-01  0.10892238D-01 -0.49023717D-02 -0.52961970D-02 -0.13634897D-02
  0.13299583D-05 -0.10023173D-13 -0.14564115D-13 -0.19363160D-13 -0.23234451D-13
 -0.22479434D-13 -0.15957781D-13 -0.49597184D-14  0.28475574D-14  0.32712114D-14
  0.86869893D-15 -0.31342928D-15 -0.15259076D-07 -0.22172115D-07 -0.29478084D-07
 -0.35371660D-07 -0.34222237D-07 -0.24293804D-07 -0.75505753D-08  0.43350640D-08
  0.49800262D-08  0.13224897D-08 -0.47715842D-09 -0.15854035D-01 -0.23036616D-01
 -0.30627448D-01 -0.36750817D-01 -0.35556578D-01 -0.25241030D-01 -0.78449757D-02
  0.45040902D-02  0.51741997D-02  0.13740542D-02 -0.49576305D-03  0.38011958D-15
  0.29234259D-08  0.15456781D-03 -0.86763548D-17  0.14906606D-09  0.79725737D-03
  0.17126616D-16 -0.52724188D-10  0.19085757D-04  0.15041222D-03  0.15739018D-03
  0.13410486D-03  0.88318187D-04  0.40703223D-04  0.12188646D-04  0.20737948D-05
  0.15015535D-03  0.15712139D-03  0.13387584D-03  0.88167360D-04  0.40633711D-04
  0.12167831D-04  0.20702532D-05 -0.30056757D-03 -0.31451158D-03 -0.26798070D-03
 -0.17648555D-03 -0.81336934D-04 -0.24356477D-04 -0.41440480D-05  0.25115630D-15
  0.26280801D-15  0.22392649D-15  0.14747252D-15  0.67965696D-16  0.20352438D-16
  0.34627947D-17  0.71817221D-14  0.75148984D-14  0.64030957D-14  0.42169226D-14
  0.19434541D-14  0.58197046D-15  0.99017341D-16  0.88572967D-06  0.92682066D-06
  0.78970081D-06  0.52007769D-06  0.23968832D-06  0.71775056D-07  0.12211917D-07
 -0.13639734D-03 -0.13639660D-03  0.27279393D-03 -0.31605758D-16 -0.48940891D-15
 -0.37878230D-08  0.20855904D-04  0.20855876D-04 -0.41711781D-04  0.24353076D-16
  0.30210258D-15  0.54591519D-09  0.53120472D-04  0.53120408D-04 -0.10624088D-03
  0.16746524D-16 -0.29651534D-16  0.45720622D-10 -0.77442111D-17  0.12385237D-04
 -0.15216449D-03 -0.13491320D-16 -0.37156301D-04  0.22824666D-03  0.36723953D-16
  0.58824372D-09  0.22824681D-03 -0.26262658D-16  0.88888048D-17 -0.49220766D-05
  0.55825643D-04  0.11166569D-16  0.14766540D-04 -0.83738483D-04 -0.37832984D-16
 -0.31029589D-09 -0.83738446D-04 -0.20699312D-16 -0.20550307D-04 -0.37063326D-04
 -0.54649852D-04  0.31488248D-03  0.65831623D-03  0.83855137D-05  0.29643992D-16
  0.57528748D-04  0.31820908D-04  0.50913407D-15 -0.21998881D-03 -0.12261075D-03
  0.56174139D-15 -0.87498391D-04  0.11100566D-03 -0.66137399D-05  0.12682234D-03
 -0.12020860D-03 -0.14824264D-15  0.17696128D-15  0.53324556D-04 -0.65460759D-05
 -0.20826626D-04  0.27372702D-04 -0.23773079D-15  0.72258945D-16 -0.42009832D-06
 -0.20549795D-04 -0.37062402D-04 -0.54648490D-04  0.31486601D-03  0.65829630D-03
  0.83853396D-05  0.49817350D-04 -0.28761593D-04  0.31824331D-04 -0.19050182D-03
  0.10998541D-03 -0.12261975D-03 -0.75772748D-04  0.43745912D-04  0.11100201D-03
  0.93458215D-04  0.26747514D-04 -0.12020573D-03 -0.11555435D-03  0.46181833D-04
 -0.26665580D-04 -0.17257127D-04 -0.10115945D-04  0.27373072D-04  0.12370289D-04
 -0.36068006D-06  0.20915854D-06 -0.20549795D-04 -0.37062402D-04 -0.54648490D-04
  0.31486601D-03  0.65829630D-03  0.83853396D-05 -0.49817350D-04 -0.28761593D-04
  0.31824331D-04  0.19050182D-03  0.10998541D-03 -0.12261975D-03  0.75772748D-04
  0.43745912D-04  0.11100201D-03  0.93458215D-04  0.26747514D-04 -0.12020573D-03
  0.11555435D-03 -0.46181833D-04 -0.26665580D-04 -0.17257127D-04 -0.10115945D-04
  0.27373072D-04 -0.12370289D-04  0.36068006D-06  0.20915854D-06
MO    3     MO 0.0        OCC NO =    2.0000000  ORB. ENERGY =  -56.095684
 -0.10940400D-03 -0.20395393D-03 -0.34471807D-03 -0.51822418D-03 -0.63669828D-03
 -0.53779348D-03 -0.20283591D-03  0.10038463D-05  0.82412244D-04  0.15430172D-03
  0.26271189D-03  0.40637534D-03  0.53518203D-03  0.55608841D-03  0.35336922D-03
 -0.23681983D-03 -0.37971820D-03  0.25806689D-02  0.21638158D-03  0.37073112D-15
  0.34758399D-15  0.24750051D-15 -0.11785064D-08 -0.11049246D-08 -0.78677215D-09
 -0.24459848D-03 -0.22932662D-03 -0.16329421D-03 -0.22935659D-14 -0.14169615D-08
  0.12104928D-03 -0.16930832D-14 -0.18924717D-07  0.37343730D-03 -0.25699815D-16
 -0.13546460D-09  0.11878706D-04  0.48583652D-04  0.48584698D-04 -0.97168350D-04
  0.50343629D-15  0.42873763D-15  0.93412677D-08 -0.47922836D-04 -0.47929463D-04
  0.95852299D-04  0.15508372D-14  0.83298843D-15 -0.42352440D-08 -0.14803815D-04
 -0.14807730D-04  0.29611545D-04  0.24499776D-15  0.79579318D-16 -0.39298855D-09
 -0.46480227D-16  0.21686440D-04  0.62600490D-04 -0.70458469D-16 -0.65065186D-04
 -0.93900407D-04  0.20989915D-15  0.58669447D-08 -0.93901062D-04 -0.76408735D-15
  0.49803111D-17  0.53821125D-04  0.49065635D-04 -0.24122384D-16 -0.16145923D-03
 -0.73598710D-04  0.91814505D-17 -0.41420424D-08 -0.73598194D-04 -0.23720167D-15
  0.20568528D-04  0.38691907D-04  0.66977598D-04  0.10978910D-03  0.17198675D-03
  0.25851073D-03  0.36947677D-03  0.49048959D-03  0.57124175D-03  0.52468002D-03
  0.30680104D-03  0.80506129D-04  0.44012387D-05 -0.15752891D-06  0.44024360D-07
 -0.13072318D-07  0.22286039D-08  0.18182342D-09 -0.24814970D-03 -0.45592789D-03
 -0.78840440D-03 -0.12911224D-02 -0.20328142D-02 -0.30697486D-02 -0.44808955D-02
 -0.61704653D-02 -0.78842027D-02 -0.85947048D-02 -0.70747654D-02 -0.19398526D-02
  0.39128086D-02  0.38132028D-02  0.83443621D-03  0.28111388D-04  0.95232399D-06
 -0.24225894D-08  0.54490169D-04  0.10682256D-03  0.18709706D-03  0.30565572D-03
  0.48209269D-03  0.72745634D-03  0.10665955D-02  0.14726116D-02  0.19092482D-02
  0.21231964D-02  0.18441268D-02  0.53568584D-03 -0.13504575D-02 -0.19677117D-02
 -0.33874861D-03  0.82640156D-03  0.39334631D-03 -0.18995895D-05 -0.30197269D-04
 -0.65430189D-04 -0.11138452D-03 -0.18180953D-03 -0.28660489D-03 -0.43256956D-03
 -0.63421747D-03 -0.87676062D-03 -0.11379473D-02 -0.12712862D-02 -0.11104972D-02
 -0.32893036D-03  0.85503000D-03  0.13153251D-02  0.23022206D-03 -0.72622278D-03
 -0.61645331D-03  0.22999322D-03  0.26442514D-03 -0.11811340D-02 -0.15446424D-03
 -0.11361911D-11 -0.16302330D-11 -0.21585152D-11 -0.24924734D-11 -0.23106375D-11
 -0.14959489D-11 -0.52801501D-12 -0.61887912D-13 -0.89973570D-15 -0.13175628D-15
 -0.13546592D-17  0.33029080D-02  0.47390882D-02  0.62748047D-02  0.72456216D-02
  0.67170246D-02  0.43487242D-02  0.15349399D-02  0.17990820D-03  0.26155322D-05
  0.38301557D-06  0.39379949D-08  0.52022159D+02  0.74642588D+02  0.98830754D+02
  0.11412152D+03  0.10579590D+03  0.68494194D+02  0.24175935D+02  0.28336280D+01
  0.41195707D-01  0.60326527D-02  0.62025039D-04 -0.55990777D-14 -0.80823330D-14
 -0.10797804D-13 -0.12828122D-13 -0.12431434D-13 -0.86414321D-14 -0.28118391D-14
  0.12655507D-14  0.13672170D-14  0.35198584D-15 -0.34332969D-18 -0.10626497D-05
 -0.15339470D-05 -0.20493166D-05 -0.24346510D-05 -0.23593634D-05 -0.16400585D-05
 -0.53365931D-06  0.24018904D-06  0.25948430D-06  0.66803438D-07 -0.65160586D-10
 -0.47276316D-01 -0.68243905D-01 -0.91172226D-01 -0.10831540D+00 -0.10496593D+00
 -0.72964709D-01 -0.23742016D-01  0.10685791D-01  0.11544220D-01  0.29720241D-02
 -0.28989351D-05  0.36906126D-14  0.53626238D-14  0.71296705D-14  0.85551111D-14
  0.82771078D-14  0.58757828D-14  0.18262081D-14 -0.10484935D-14 -0.12044862D-14
 -0.31986191D-15  0.11540717D-15  0.87511397D-06  0.12715794D-05  0.16905796D-05
  0.20285785D-05  0.19626587D-05  0.13932591D-05  0.43302844D-06 -0.24861761D-06
 -0.28560644D-06 -0.75845302D-07  0.27365221D-07  0.35259608D-01  0.51233774D-01
  0.68115897D-01  0.81734361D-01  0.79078356D-01  0.56136425D-01  0.17447342D-01
 -0.10017163D-01 -0.11507497D-01 -0.30559169D-02  0.11025843D-02 -0.11450941D-15
 -0.11515813D-06 -0.24680052D-02 -0.39371558D-16 -0.26468276D-08  0.30980563D-03
 -0.49240410D-17  0.21305344D-09  0.61425269D-05  0.32028791D-02  0.33514678D-02
  0.28556300D-02  0.18806482D-02  0.86673478D-03  0.25954513D-03  0.44159404D-04
  0.32028757D-02  0.33514643D-02  0.28556270D-02  0.18806463D-02  0.86673387D-03
  0.25954486D-03  0.44159358D-04 -0.64057548D-02 -0.67029322D-02 -0.57112570D-02
 -0.37612945D-02 -0.17334686D-02 -0.51908999D-03 -0.88318761D-04  0.28400774D-15
  0.29718350D-15  0.25321625D-15  0.16676204D-15  0.76855660D-16  0.23014552D-16
  0.39157309D-17 -0.24355076D-14 -0.25484963D-14 -0.21714553D-14 -0.14300674D-14
 -0.65907551D-15 -0.19736123D-15 -0.33579340D-16 -0.18655565D-05 -0.19521039D-05
 -0.16632970D-05 -0.10954068D-05 -0.50484039D-06 -0.15117527D-06 -0.25721191D-07
 -0.11104270D-03 -0.11104319D-03  0.22208589D-03 -0.12294792D-16  0.18213504D-15
  0.17314158D-07  0.13993168D-03  0.13993205D-03 -0.27986373D-03  0.39544204D-17
 -0.98014891D-16 -0.92781045D-08  0.14327938D-04  0.14328072D-04 -0.28656010D-04
 -0.12907602D-16  0.21504304D-16  0.35641110D-09  0.78842020D-17 -0.20641397D-05
  0.47134710D-04  0.51984240D-17  0.61906900D-05 -0.70701883D-04 -0.28851030D-16
  0.17289466D-08 -0.70702248D-04 -0.82693261D-17 -0.25084835D-17 -0.11589075D-05
  0.31613120D-04 -0.41152676D-18  0.34748465D-05 -0.47419603D-04  0.79369774D-17