 Molden2AIM, Version 4.0.0 (06/02/2016)           Time: Sat Jun 30 00:36:03 2018
GAUSSIAN             11 MOL ORBITALS    306 PRIMITIVES        6 NUCLEI
  C    1    (CENTRE  1)   3.11804811  0.47928368  0.00000000  CHARGE =  6.0
  N    2    (CENTRE  2)   3.11804811 -1.71135299  0.00000000  CHARGE =  7.0
  C    3    (CENTRE  3)   3.11804811  3.22970257  0.00000000  CHARGE =  6.0
  H    4    (CENTRE  4)   1.16908852  3.93690423  0.00000000  CHARGE =  1.0
  H    5    (CENTRE  5)   4.09252885  3.93690423  1.68784668  CHARGE =  1.0
  H    6    (CENTRE  6)   4.09252885  3.93690423 -1.68784668  CHARGE =  1.0
CENTRE ASSIGNMENTS    1  1  1  1  1  1  1  1  1  1  1  1  1  1  1  1  1  1  1  1
CENTRE ASSIGNMENTS    1  1  1  1  1  1  1  1  1  1  1  1  1  1  1  1  1  1  1  1
CENTRE ASSIGNMENTS    1  1  1  1  1  1  1  1  1  1  1  1  1  1  1  1  1  1  1  1
CENTRE ASSIGNMENTS    1  1  1  1  1  1  1  1  1  1  1  1  1  1  1  2  2  2  2  2
CENTRE ASSIGNMENTS    2  2  2  2  2  2  2  2  2  2  2  2  2  2  2  2  2  2  2  2
CENTRE ASSIGNMENTS    2  2  2  2  2  2  2  2  2  2  2  2  2  2  2  2  2  2  2  2
CENTRE ASSIGNMENTS    2  2  2  2  2  2  2  2  2  2  2  2  2  2  2  2  2  2  2  2
CENTRE ASSIGNMENTS    2  2  2  2  2  2  2  2  2  2  3  3  3  3  3  3  3  3  3  3
CENTRE ASSIGNMENTS    3  3  3  3  3  3  3  3  3  3  3  3  3  3  3  3  3  3  3  3
CENTRE ASSIGNMENTS    3  3  3  3  3  3  3  3  3  3  3  3  3  3  3  3  3  3  3  3
CENTRE ASSIGNMENTS    3  3  3  3  3  3  3  3  3  3  3  3  3  3  3  3  3  3  3  3
CENTRE ASSIGNMENTS    3  3  3  3  3  4  4  4  4  4  4  4  4  4  4  4  4  4  4  4
CENTRE ASSIGNMENTS    4  4  4  4  4  4  4  4  4  4  4  4  5  5  5  5  5  5  5  5
CENTRE ASSIGNMENTS    5  5  5  5  5  5  5  5  5  5  5  5  5  5  5  5  5  5  5  6
CENTRE ASSIGNMENTS    6  6  6  6  6  6  6  6  6  6  6  6  6  6  6  6  6  6  6  6
CENTRE ASSIGNMENTS    6  6  6  6  6  6
TYPE ASSIGNMENTS      1  1  1  1  1  1  1  1  1  1  1  1  1  1  1  1  1  1  1  2
TYPE ASSIGNMENTS      2  2  3  3  3  4  4  4  2  3  4  2  3  4  2  3  4  5  6  7
TYPE ASSIGNMENTS      8  9 10  5  6  7  8  9 10  5  6  7  8  9 10 11 12 13 17 14
TYPE ASSIGNMENTS     15 18 19 16 20 11 12 13 17 14 15 18 19 16 20  1  1  1  1  1
TYPE ASSIGNMENTS      1  1  1  1  1  1  1  1  1  1  1  1  1  1  2  2  2  3  3  3
TYPE ASSIGNMENTS      4  4  4  2  3  4  2  3  4  2  3  4  5  6  7  8  9 10  5  6
TYPE ASSIGNMENTS      7  8  9 10  5  6  7  8  9 10 11 12 13 17 14 15 18 19 16 20
TYPE ASSIGNMENTS     11 12 13 17 14 15 18 19 16 20  1  1  1  1  1  1  1  1  1  1
TYPE ASSIGNMENTS      1  1  1  1  1  1  1  1  1  2  2  2  3  3  3  4  4  4  2  3
TYPE ASSIGNMENTS      4  2  3  4  2  3  4  5  6  7  8  9 10  5  6  7  8  9 10  5
TYPE ASSIGNMENTS      6  7  8  9 10 11 12 13 17 14 15 18 19 16 20 11 12 13 17 14
TYPE ASSIGNMENTS     15 18 19 16 20  1  1  1  1  1  1  2  3  4  2  3  4  2  3  4
TYPE ASSIGNMENTS      5  6  7  8  9 10  5  6  7  8  9 10  1  1  1  1  1  1  2  3
TYPE ASSIGNMENTS      4  2  3  4  2  3  4  5  6  7  8  9 10  5  6  7  8  9 10  1
TYPE ASSIGNMENTS      1  1  1  1  1  2  3  4  2  3  4  2  3  4  5  6  7  8  9 10
TYPE ASSIGNMENTS      5  6  7  8  9 10
EXPONENTS  0.8236000D+04 0.1235000D+04 0.2808000D+03 0.7927000D+02 0.2559000D+02
EXPONENTS  0.8997000D+01 0.3319000D+01 0.3643000D+00 0.8236000D+04 0.1235000D+04
EXPONENTS  0.2808000D+03 0.7927000D+02 0.2559000D+02 0.8997000D+01 0.3319000D+01
EXPONENTS  0.3643000D+00 0.9059000D+00 0.1285000D+00 0.4402000D-01 0.1871000D+02
EXPONENTS  0.4133000D+01 0.1200000D+01 0.1871000D+02 0.4133000D+01 0.1200000D+01
EXPONENTS  0.1871000D+02 0.4133000D+01 0.1200000D+01 0.3827000D+00 0.3827000D+00
EXPONENTS  0.3827000D+00 0.1209000D+00 0.1209000D+00 0.1209000D+00 0.3569000D-01
EXPONENTS  0.3569000D-01 0.3569000D-01 0.1097000D+01 0.1097000D+01 0.1097000D+01
EXPONENTS  0.1097000D+01 0.1097000D+01 0.1097000D+01 0.3180000D+00 0.3180000D+00
EXPONENTS  0.3180000D+00 0.3180000D+00 0.3180000D+00 0.3180000D+00 0.1000000D+00
EXPONENTS  0.1000000D+00 0.1000000D+00 0.1000000D+00 0.1000000D+00 0.1000000D+00
EXPONENTS  0.7610000D+00 0.7610000D+00 0.7610000D+00 0.7610000D+00 0.7610000D+00
EXPONENTS  0.7610000D+00 0.7610000D+00 0.7610000D+00 0.7610000D+00 0.7610000D+00
EXPONENTS  0.2680000D+00 0.2680000D+00 0.2680000D+00 0.2680000D+00 0.2680000D+00
EXPONENTS  0.2680000D+00 0.2680000D+00 0.2680000D+00 0.2680000D+00 0.2680000D+00
EXPONENTS  0.1142000D+05 0.1712000D+04 0.3893000D+03 0.1100000D+03 0.3557000D+02
EXPONENTS  0.1254000D+02 0.4644000D+01 0.5118000D+00 0.1142000D+05 0.1712000D+04
EXPONENTS  0.3893000D+03 0.1100000D+03 0.3557000D+02 0.1254000D+02 0.4644000D+01
EXPONENTS  0.5118000D+00 0.1293000D+01 0.1787000D+00 0.5760000D-01 0.2663000D+02
EXPONENTS  0.5948000D+01 0.1742000D+01 0.2663000D+02 0.5948000D+01 0.1742000D+01
EXPONENTS  0.2663000D+02 0.5948000D+01 0.1742000D+01 0.5550000D+00 0.5550000D+00
EXPONENTS  0.5550000D+00 0.1725000D+00 0.1725000D+00 0.1725000D+00 0.4910000D-01
EXPONENTS  0.4910000D-01 0.4910000D-01 0.1654000D+01 0.1654000D+01 0.1654000D+01
EXPONENTS  0.1654000D+01 0.1654000D+01 0.1654000D+01 0.4690000D+00 0.4690000D+00
EXPONENTS  0.4690000D+00 0.4690000D+00 0.4690000D+00 0.4690000D+00 0.1510000D+00
EXPONENTS  0.1510000D+00 0.1510000D+00 0.1510000D+00 0.1510000D+00 0.1510000D+00
EXPONENTS  0.1093000D+01 0.1093000D+01 0.1093000D+01 0.1093000D+01 0.1093000D+01
EXPONENTS  0.1093000D+01 0.1093000D+01 0.1093000D+01 0.1093000D+01 0.1093000D+01
EXPONENTS  0.3640000D+00 0.3640000D+00 0.3640000D+00 0.3640000D+00 0.3640000D+00
EXPONENTS  0.3640000D+00 0.3640000D+00 0.3640000D+00 0.3640000D+00 0.3640000D+00
EXPONENTS  0.8236000D+04 0.1235000D+04 0.2808000D+03 0.7927000D+02 0.2559000D+02
EXPONENTS  0.8997000D+01 0.3319000D+01 0.3643000D+00 0.8236000D+04 0.1235000D+04
EXPONENTS  0.2808000D+03 0.7927000D+02 0.2559000D+02 0.8997000D+01 0.3319000D+01
EXPONENTS  0.3643000D+00 0.9059000D+00 0.1285000D+00 0.4402000D-01 0.1871000D+02
EXPONENTS  0.4133000D+01 0.1200000D+01 0.1871000D+02 0.4133000D+01 0.1200000D+01
EXPONENTS  0.1871000D+02 0.4133000D+01 0.1200000D+01 0.3827000D+00 0.3827000D+00
EXPONENTS  0.3827000D+00 0.1209000D+00 0.1209000D+00 0.1209000D+00 0.3569000D-01
EXPONENTS  0.3569000D-01 0.3569000D-01 0.1097000D+01 0.1097000D+01 0.1097000D+01
EXPONENTS  0.1097000D+01 0.1097000D+01 0.1097000D+01 0.3180000D+00 0.3180000D+00
EXPONENTS  0.3180000D+00 0.3180000D+00 0.3180000D+00 0.3180000D+00 0.1000000D+00
EXPONENTS  0.1000000D+00 0.1000000D+00 0.1000000D+00 0.1000000D+00 0.1000000D+00
EXPONENTS  0.7610000D+00 0.7610000D+00 0.7610000D+00 0.7610000D+00 0.7610000D+00
EXPONENTS  0.7610000D+00 0.7610000D+00 0.7610000D+00 0.7610000D+00 0.7610000D+00
EXPONENTS  0.2680000D+00 0.2680000D+00 0.2680000D+00 0.2680000D+00 0.2680000D+00
EXPONENTS  0.2680000D+00 0.2680000D+00 0.2680000D+00 0.2680000D+00 0.2680000D+00
EXPONENTS  0.3387000D+02 0.5095000D+01 0.1159000D+01 0.3258000D+00 0.1027000D+00
EXPONENTS  0.2526000D-01 0.1407000D+01 0.1407000D+01 0.1407000D+01 0.3880000D+00
EXPONENTS  0.3880000D+00 0.3880000D+00 0.1020000D+00 0.1020000D+00 0.1020000D+00
EXPONENTS  0.1057000D+01 0.1057000D+01 0.1057000D+01 0.1057000D+01 0.1057000D+01
EXPONENTS  0.1057000D+01 0.2470000D+00 0.2470000D+00 0.2470000D+00 0.2470000D+00
EXPONENTS  0.2470000D+00 0.2470000D+00 0.3387000D+02 0.5095000D+01 0.1159000D+01
EXPONENTS  0.3258000D+00 0.1027000D+00 0.2526000D-01 0.1407000D+01 0.1407000D+01
EXPONENTS  0.1407000D+01 0.3880000D+00 0.3880000D+00 0.3880000D+00 0.1020000D+00
EXPONENTS  0.1020000D+00 0.1020000D+00 0.1057000D+01 0.1057000D+01 0.1057000D+01
EXPONENTS  0.1057000D+01 0.1057000D+01 0.1057000D+01 0.2470000D+00 0.2470000D+00
EXPONENTS  0.2470000D+00 0.2470000D+00 0.2470000D+00 0.2470000D+00 0.3387000D+02
EXPONENTS  0.5095000D+01 0.1159000D+01 0.3258000D+00 0.1027000D+00 0.2526000D-01
EXPONENTS  0.1407000D+01 0.1407000D+01 0.1407000D+01 0.3880000D+00 0.3880000D+00
EXPONENTS  0.3880000D+00 0.1020000D+00 0.1020000D+00 0.1020000D+00 0.1057000D+01
EXPONENTS  0.1057000D+01 0.1057000D+01 0.1057000D+01 0.1057000D+01 0.1057000D+01
EXPONENTS  0.2470000D+00 0.2470000D+00 0.2470000D+00 0.2470000D+00 0.2470000D+00
EXPONENTS  0.2470000D+00
MO    1     MO 0.0        OCC NO =    2.0000000  ORB. ENERGY =  -14.150982
 -0.16755690D-03 -0.31236416D-03 -0.52795045D-03 -0.79368246D-03 -0.97513061D-03
 -0.82365369D-03 -0.31065187D-03  0.15374334D-05  0.13981273D-03  0.26177354D-03
  0.44569184D-03  0.68941751D-03  0.90793861D-03  0.94340638D-03  0.59949240D-03
 -0.40176587D-03  0.14520939D-02 -0.61370709D-02 -0.98942096D-03  0.44520599D-09
  0.41740892D-09  0.29722001D-09 -0.33409258D-02 -0.31323303D-02 -0.22304058D-02
  0.71719648D-16  0.67241729D-16  0.47880117D-16 -0.21177055D-08  0.95861124D-02
  0.16109496D-15 -0.11565832D-07  0.13749029D-02 -0.69535397D-17  0.71156113D-09
  0.82989866D-05  0.79172717D-17  0.13536700D-02 -0.27073441D-02  0.13536741D-02
 -0.62432011D-08 -0.14976603D-15  0.19774092D-15  0.90198247D-03 -0.18039633D-02
  0.90198086D-03 -0.23114813D-08  0.59208280D-16 -0.65988610D-16  0.98569702D-04
 -0.19713938D-03  0.98569674D-04 -0.98973630D-09 -0.54155476D-16 -0.23586524D-16
  0.33079123D-04  0.26668853D-02 -0.10631044D-15  0.55268612D-08 -0.40003294D-02
 -0.10036500D-15 -0.99242897D-04 -0.40003263D-02  0.41929630D-15 -0.18135222D-15
  0.15293605D-04  0.38814458D-03 -0.45011757D-16  0.54785898D-09 -0.58221600D-03
 -0.44499147D-16 -0.45881362D-04 -0.58221774D-03  0.17953442D-15  0.24210138D-15
  0.41383941D+00  0.77112880D+00  0.13041721D+01  0.19640110D+01  0.24315730D+01
  0.20691589D+01  0.78735312D+00 -0.36875105D-02 -0.25054291D-02 -0.46977030D-02
 -0.79921905D-02 -0.12411028D-01 -0.16470156D-01 -0.17357283D-01 -0.10762623D-01
  0.71593010D-02  0.41968996D-01  0.65963469D-02  0.84950663D-03  0.11308159D-07
  0.10861351D-07  0.76167292D-08  0.48166459D-02  0.46263308D-02  0.32443025D-02
  0.24739408D-15  0.23761905D-15  0.16663488D-15 -0.43926287D-08  0.77817357D-02
 -0.44882737D-15  0.22970273D-08  0.60335219D-03 -0.10792273D-15 -0.48136337D-09
  0.17879850D-04 -0.95955870D-17 -0.35142652D-02  0.70285096D-02 -0.35142444D-02
 -0.16731800D-07 -0.23690745D-15 -0.53982436D-16 -0.42653965D-03  0.85308059D-03
 -0.42654094D-03 -0.57691821D-09  0.16747362D-15 -0.27596154D-15  0.54727831D-04
 -0.10945532D-03  0.54727488D-04  0.66211956D-09  0.61503365D-16  0.80411636D-17
  0.29989043D-04  0.12696087D-02  0.80706567D-16 -0.53669631D-08 -0.19044161D-02
  0.85570192D-16 -0.89961763D-04 -0.19044099D-02 -0.32768989D-15 -0.30001883D-15
 -0.13180402D-04 -0.77307211D-04 -0.45420653D-17  0.38800278D-09  0.11596129D-03
 -0.61718672D-17  0.39540819D-04  0.11596034D-03  0.19798063D-16  0.15692060D-15
 -0.50570160D-03 -0.94274277D-03 -0.15934014D-02 -0.23954042D-02 -0.29430308D-02
 -0.24858600D-02 -0.93757492D-03  0.46401106D-05  0.37158376D-03  0.69572204D-03
  0.11845263D-02  0.18322821D-02  0.24130510D-02  0.25073146D-02  0.15932859D-02
 -0.10677831D-02 -0.34861076D-03  0.71692555D-02  0.40518044D-03 -0.38029309D-08
 -0.35654894D-08 -0.25388409D-08 -0.62520955D-03 -0.58617369D-03 -0.41739059D-03
 -0.49821014D-15 -0.46710367D-15 -0.33260564D-15  0.54814056D-07  0.32067970D-02
  0.20740016D-14  0.15966958D-07 -0.48498832D-03  0.32695668D-14 -0.93486186D-09
 -0.45510626D-04  0.10172177D-15  0.67950718D-03 -0.13590405D-02  0.67953336D-03
  0.30900368D-07  0.56342772D-16 -0.21017533D-15  0.90049030D-03 -0.18010038D-02
  0.90051355D-03  0.16681413D-08  0.19942251D-14  0.18271161D-14  0.59733930D-05
 -0.11954523D-04  0.59811303D-05 -0.92819004D-08  0.49897541D-15  0.12473503D-15
 -0.17443114D-03  0.64869170D-03  0.11763890D-15 -0.16651339D-07 -0.97303753D-03
  0.97741390D-16  0.52331007D-03 -0.97303756D-03 -0.45065809D-15  0.82397549D-15
 -0.21987117D-03  0.10198521D-03 -0.14900894D-18  0.91286755D-09 -0.15297888D-03
 -0.19472451D-16  0.65961260D-03 -0.15297676D-03  0.19919478D-16  0.70999291D-15
  0.21245652D-04  0.38317408D-04  0.56498996D-04 -0.29128288D-02 -0.88696884D-03
  0.11386578D-04 -0.16300479D-03 -0.67207266D-04  0.94047048D-16 -0.72589488D-03
  0.12628665D-02  0.34747543D-15 -0.14415074D-03  0.18095816D-03  0.32052690D-15
  0.29332379D-04 -0.20685635D-03  0.17752397D-03  0.63441905D-03  0.18062922D-15
 -0.14943624D-15  0.74203462D-05 -0.52160799D-04  0.44740453D-04  0.79174044D-04
  0.12539356D-15 -0.25241096D-16  0.21248025D-04  0.38321689D-04  0.56505308D-04
 -0.29128972D-02 -0.88704201D-03  0.11387516D-04  0.81487847D-04 -0.67215329D-04
  0.14115598D-03  0.36298890D-03  0.12629000D-02  0.62869264D-03  0.72090041D-04
  0.18097946D-03  0.12484192D-03  0.14047779D-03 -0.20684787D-03  0.66370075D-04
 -0.31723425D-03 -0.12834443D-03 -0.54944837D-03  0.35411855D-04 -0.52161065D-04
  0.16749210D-04 -0.39590731D-04 -0.32333780D-04 -0.68574652D-04  0.21248025D-04
  0.38321689D-04  0.56505308D-04 -0.29128972D-02 -0.88704201D-03  0.11387516D-04
  0.81487847D-04 -0.67215329D-04 -0.14115598D-03  0.36298890D-03  0.12629000D-02
 -0.62869264D-03  0.72090041D-04  0.18097946D-03 -0.12484192D-03  0.14047779D-03
 -0.20684787D-03  0.66370075D-04 -0.31723425D-03  0.12834443D-03  0.54944837D-03
  0.35411855D-04 -0.52161065D-04  0.16749210D-04 -0.39590731D-04  0.32333780D-04
  0.68574652D-04
MO    2     MO 0.0        OCC NO =    2.0000000  ORB. ENERGY =  -10.090372
  0.29440737D-02  0.54884228D-02  0.92764014D-02  0.13945470D-01  0.17133621D-01
  0.14472082D-01  0.54583369D-02 -0.27013614D-04 -0.16782146D-03 -0.31421473D-03
 -0.53497746D-03 -0.82752878D-03 -0.10898263D-02 -0.11323993D-02 -0.71958894D-03
  0.48225177D-03  0.99433495D-03 -0.45132942D-04  0.11150982D-02 -0.28006684D-06
 -0.26258047D-06 -0.18697294D-06  0.13182320D-02  0.12359263D-02  0.88005317D-03
 -0.13427308D-14 -0.12588955D-14 -0.89640857D-15  0.40035138D-06 -0.10257273D-02
  0.32170949D-14 -0.76282193D-07 -0.19075617D-02  0.61381324D-14 -0.21346924D-08
  0.21088927D-04  0.33467025D-15  0.10251094D-03 -0.20495747D-03  0.10244654D-03
 -0.21447052D-07 -0.15027081D-14  0.12070016D-14  0.21795321D-03 -0.43596358D-03
  0.21801037D-03  0.17543124D-06  0.17925242D-15 -0.95949899D-15 -0.12883227D-04
  0.25771822D-04 -0.12888595D-04 -0.98897583D-08 -0.72214274D-15  0.27949321D-15
 -0.84562491D-05 -0.99266957D-03 -0.74067525D-15  0.78722642D-06  0.14890825D-02
 -0.67200107D-15  0.24581521D-04  0.14889262D-02  0.28940268D-14 -0.25153475D-14
 -0.32291351D-04 -0.33701658D-03 -0.82613505D-15  0.44388044D-07  0.50549753D-03
 -0.84346605D-15  0.96829666D-04  0.50555221D-03  0.33218712D-14  0.19050946D-14
 -0.69732435D-03 -0.12993612D-02 -0.21975456D-02 -0.33093819D-02 -0.40972295D-02
 -0.34865574D-02 -0.13266994D-02  0.62134993D-05  0.50467113D-03  0.94626309D-03
  0.16098751D-02  0.24999660D-02  0.33176003D-02  0.34962953D-02  0.21679261D-02
 -0.14421053D-02 -0.55795808D-03 -0.17678643D-02 -0.70853454D-03  0.11341711D-06
  0.10893578D-06  0.76393285D-07 -0.77325117D-03 -0.74269851D-03 -0.52083146D-03
  0.41609569D-14  0.39965493D-14  0.28026563D-14 -0.21882051D-06 -0.72736300D-03
 -0.62176729D-14  0.18134033D-07  0.39532863D-03 -0.41341445D-14  0.18333067D-08
 -0.46850517D-04 -0.25413627D-15  0.35989383D-03 -0.71975026D-03  0.35985643D-03
 -0.35635424D-06 -0.15230698D-14  0.75312652D-15  0.30561139D-04 -0.61140707D-04
  0.30579568D-04 -0.18405650D-06  0.10522119D-14 -0.42505179D-14 -0.59761447D-04
  0.11951589D-03 -0.59754445D-04  0.17130720D-07  0.72068668D-15 -0.90831998D-15
 -0.69580840D-04 -0.10059463D-03  0.58344429D-15 -0.49885324D-06  0.15093631D-03
  0.56037767D-15  0.20924137D-03  0.15084757D-03 -0.23107105D-14 -0.36627497D-14
  0.27222474D-04 -0.52006508D-04  0.35518657D-16 -0.13107735D-07  0.78005461D-04
  0.44060167D-16 -0.81654314D-04  0.78014062D-04 -0.15061614D-15  0.15358728D-14
  0.33101361D+00  0.61708462D+00  0.10429817D+01  0.15679432D+01  0.19263993D+01
  0.16271522D+01  0.61370194D+00 -0.30372452D-02 -0.38077810D-02 -0.71293674D-02
 -0.12138358D-01 -0.18776194D-01 -0.24727587D-01 -0.25693547D-01 -0.16327096D-01
  0.10942040D-01  0.32428514D-01 -0.14530172D-02 -0.70702521D-03 -0.23040988D-06
 -0.21602391D-06 -0.15382189D-06 -0.10821180D-02 -0.10145544D-02 -0.72242316D-03
 -0.64851385D-14 -0.60802296D-14 -0.43294857D-14  0.51479194D-06  0.18002189D-03
  0.28182592D-13  0.33468522D-06 -0.30267617D-03  0.32560901D-13  0.50574628D-08
  0.56702582D-04  0.37348683D-15  0.29825086D-03 -0.59686590D-03  0.29861503D-03
 -0.51745005D-07  0.33960846D-14  0.88130239D-15 -0.45073025D-04  0.89864812D-04
 -0.44791787D-04  0.80689292D-06  0.24170105D-13  0.21258812D-13  0.13261980D-04
 -0.26580540D-04  0.13318560D-04 -0.17640948D-07  0.55669528D-14  0.26834891D-14
 -0.12873667D-02 -0.14843133D-02  0.11970395D-14 -0.74066825D-06  0.22266961D-02
  0.13870924D-14  0.38628406D-02  0.22262439D-02 -0.49782109D-14  0.11089346D-13
  0.28683549D-03  0.20112280D-03  0.14600126D-15  0.35038285D-08 -0.30179840D-03
  0.35275468D-16 -0.86050998D-03 -0.30157002D-03 -0.47327924D-15  0.61455362D-14
 -0.41356335D-04 -0.74587853D-04 -0.10997975D-03  0.36017005D-03  0.30102634D-03
 -0.19712259D-04 -0.18964385D-02  0.81711243D-03  0.10257142D-14 -0.19530621D-02
  0.29061182D-03  0.33240500D-14 -0.87848246D-04  0.41363971D-04  0.42651708D-14
 -0.19046536D-02  0.84154102D-03  0.10631125D-02  0.21107870D-02  0.10127230D-14
 -0.99209830D-15 -0.25673793D-03  0.16945482D-03  0.87283107D-04  0.34531193D-03
  0.15661836D-14 -0.87924624D-15 -0.41378819D-04 -0.74628404D-04 -0.11003954D-03
  0.35878023D-03  0.30034418D-03 -0.19722440D-04  0.94829788D-03  0.81724902D-03
  0.16425438D-02  0.97685549D-03  0.29038508D-03  0.16920007D-02  0.43981949D-04
  0.41423248D-04  0.76112067D-04  0.32121165D-03  0.84181114D-03 -0.11630228D-02
 -0.10551905D-02 -0.25703384D-02 -0.18273403D-02  0.12745999D-05  0.16947947D-03
 -0.17075407D-03 -0.17262608D-03 -0.29795682D-03 -0.29903550D-03 -0.41378819D-04
 -0.74628404D-04 -0.11003954D-03  0.35878023D-03  0.30034418D-03 -0.19722440D-04
  0.94829788D-03  0.81724902D-03 -0.16425438D-02  0.97685549D-03  0.29038508D-03
 -0.16920007D-02  0.43981949D-04  0.41423248D-04 -0.76112067D-04  0.32121165D-03
  0.84181114D-03 -0.11630228D-02 -0.10551905D-02  0.25703384D-02  0.18273403D-02
  0.12745999D-05  0.16947947D-03 -0.17075407D-03 -0.17262608D-03  0.29795682D-03
  0.29903550D-03
MO    3     MO 0.0        OCC NO =    2.0000000  ORB. ENERGY =  -10.074203
  0.33005657D+00  0.61530050D+00  0.10399662D+01  0.15634099D+01  0.19208297D+01
  0.16224477D+01  0.61192760D+00 -0.30284638D-02 -0.32486342D-02 -0.60824681D-02
 -0.10355922D-01 -0.16019037D-01 -0.21096509D-01 -0.21920624D-01 -0.13929572D-01
  0.93352755D-02  0.34947633D-01  0.45078336D-02  0.26449557D-02 -0.32118423D-07
 -0.30113063D-07 -0.21442295D-07  0.74075855D-03  0.69450822D-03  0.49453123D-03
  0.10316570D-14  0.96724404D-15  0.68873538D-15  0.67822302D-07 -0.75972996D-02
 -0.20089017D-14  0.96172337D-08 -0.49810217D-03 -0.42959032D-14  0.82619364D-09
  0.12374581D-03 -0.11867608D-15 -0.41058025D-02  0.82116751D-02 -0.41058725D-02
  0.51785969D-07  0.89307096D-15 -0.38132534D-15  0.96957466D-04 -0.19394017D-03
  0.96982700D-04  0.35911065D-07 -0.13089055D-15 -0.63594141D-15  0.33567254D-04
 -0.67131937D-04  0.33564683D-04  0.10789483D-08  0.46608121D-15 -0.28303730D-15
  0.77382662D-04 -0.16475251D-02  0.37817489D-15  0.70924595D-07  0.24712824D-02
  0.36411607D-15 -0.23221891D-03  0.24712929D-02 -0.14986407D-14  0.12262931D-14
  0.26873477D-05  0.12832723D-03  0.51486619D-15  0.72480073D-08 -0.19250416D-03
  0.51797373D-15 -0.80692911D-05 -0.19247754D-03 -0.20625723D-14 -0.10030275D-14
 -0.54644710D-03 -0.10182237D-02 -0.17220716D-02 -0.25933444D-02 -0.32107285D-02
 -0.27321851D-02 -0.10396468D-02  0.48691096D-05  0.24062979D-03  0.45118310D-03
  0.76759670D-03  0.11919966D-02  0.15818489D-02  0.16670516D-02  0.10336783D-02
 -0.68760321D-03  0.11964703D-02 -0.64499508D-02 -0.23616091D-02  0.35552212D-08
  0.34147474D-08  0.23946566D-08  0.29815070D-02  0.28637018D-02  0.20082254D-02
 -0.21774758D-14 -0.20914394D-14 -0.14666617D-14 -0.12584378D-07 -0.66796547D-02
  0.33325110D-14 -0.54152886D-08 -0.43063212D-02  0.22177859D-14 -0.56150998D-09
 -0.29897704D-03  0.67396949D-16  0.64806377D-03 -0.12961087D-02  0.64804489D-03
 -0.20069831D-07  0.58447472D-15  0.39985635D-16  0.18231268D-02 -0.36462694D-02
  0.18231426D-02 -0.15541356D-07 -0.44819719D-15  0.19076419D-14  0.22455118D-03
 -0.44910678D-03  0.22455560D-03 -0.19261906D-08 -0.46066660D-15  0.44565472D-15
  0.57205182D-05 -0.12263507D-02 -0.34561662D-15 -0.19982459D-07  0.18395269D-02
 -0.34315708D-15 -0.17141572D-04  0.18395253D-02  0.13800069D-14  0.22091898D-14
 -0.51146191D-05 -0.43156930D-03  0.21362235D-16 -0.49836422D-08  0.64734883D-03
  0.20215400D-16  0.15348841D-04  0.64735905D-03 -0.84302105D-16 -0.90151183D-15
 -0.26024087D-02 -0.48514816D-02 -0.81998585D-02 -0.12327073D-01 -0.15145234D-01
 -0.12792571D-01 -0.48248872D-02  0.23878636D-04 -0.10991456D-03 -0.20579474D-03
 -0.35038315D-03 -0.54198946D-03 -0.71378106D-03 -0.74166424D-03 -0.47129433D-03
  0.31585050D-03 -0.48907359D-03  0.26736569D-02 -0.16472153D-02 -0.73734145D-08
 -0.69130448D-08 -0.49224997D-08 -0.76059388D-03 -0.71310511D-03 -0.50777332D-03
  0.40169018D-14  0.37661008D-14  0.26816881D-14 -0.16442986D-07 -0.22115779D-02
 -0.18614897D-13  0.39027143D-07 -0.41306137D-03 -0.17167609D-13 -0.55454469D-09
  0.63455390D-04 -0.21140843D-15 -0.10481432D-02  0.20963455D-02 -0.10482023D-02
 -0.69097243D-07 -0.30025325D-14 -0.30696314D-15  0.72312104D-03 -0.14462772D-02
  0.72315617D-03  0.11349657D-06 -0.14295565D-13 -0.14553641D-13  0.11262999D-04
 -0.22537961D-04  0.11274962D-04  0.47602452D-09 -0.28281849D-14 -0.20917371D-14
 -0.12103551D-03  0.46580963D-03 -0.70671133D-15 -0.32520039D-07 -0.69874038D-03
 -0.69133674D-15  0.36313906D-03 -0.69868852D-03  0.28114707D-14 -0.72874937D-14
 -0.26601044D-03  0.25997413D-03 -0.87072215D-16 -0.48743414D-08 -0.38998909D-03
 -0.69486423D-16  0.79803620D-03 -0.38993329D-03  0.33070307D-15 -0.36319979D-14
 -0.55846947D-04 -0.10072227D-03 -0.14851493D-03 -0.11949959D-02 -0.20962117D-03
 -0.10720272D-04 -0.20264742D-03 -0.53920720D-04 -0.39514930D-15  0.48839996D-03
  0.16351364D-02 -0.18040678D-14 -0.32653987D-04  0.24710943D-03 -0.20151414D-14
  0.72230852D-03 -0.78974365D-03  0.67435123D-04  0.91886476D-03 -0.20376945D-15
  0.54593168D-15  0.10654470D-03 -0.25871103D-03  0.15216634D-03  0.11196583D-03
 -0.79442310D-15  0.62071703D-15 -0.55854571D-04 -0.10073602D-03 -0.14853520D-03
 -0.11951346D-02 -0.20976434D-03 -0.10721704D-04  0.10133947D-03 -0.53912752D-04
  0.17555418D-03 -0.24417159D-03  0.16350617D-02 -0.42297026D-03  0.16345351D-04
  0.24712204D-03  0.28293979D-04  0.23111433D-03 -0.78969487D-03  0.55858054D-03
 -0.45943172D-03  0.56721201D-03 -0.79570779D-03  0.14076344D-03 -0.25871693D-03
  0.11795350D-03 -0.55966616D-04 -0.39514741D-04 -0.96950060D-04 -0.55854571D-04
 -0.10073602D-03 -0.14853520D-03 -0.11951346D-02 -0.20976434D-03 -0.10721704D-04
  0.10133947D-03 -0.53912752D-04 -0.17555418D-03 -0.24417159D-03  0.16350617D-02
  0.42297026D-03  0.16345351D-04  0.24712204D-03 -0.28293979D-04  0.23111433D-03
 -0.78969487D-03  0.55858054D-03 -0.45943172D-03 -0.56721201D-03  0.79570779D-03
  0.14076344D-03 -0.25871693D-03  0.11795350D-03 -0.55966616D-04  0.39514741D-04
  0.96950060D-04
MO    4     MO 0.0        OCC NO =    2.0000000  ORB. ENERGY =   -0.874290
 -0.83839845D-02 -0.15629653D-01 -0.26416867D-01 -0.39713205D-01 -0.48792261D-01
 -0.41212864D-01 -0.15543976D-01  0.76928005D-04 -0.40927076D-01 -0.76628400D-01
 -0.13046641D+00 -0.20181169D+00 -0.26577890D+00 -0.27616130D+00 -0.17548811D+00
  0.11760805D+00  0.52499938D-01  0.70411074D-02  0.31620045D-02 -0.19680827D-06
 -0.18452027D-06 -0.13138942D-06 -0.23673797D+00 -0.22195690D+00 -0.15804653D+00
  0.87452175D-15  0.81991973D-15  0.58383169D-15  0.94000898D-06 -0.28371693D-01
  0.68597463D-14 -0.11426514D-05 -0.20608806D-03  0.23614844D-13  0.29127839D-07
  0.25839274D-03  0.19320683D-14 -0.22678844D-01  0.45358925D-01 -0.22680081D-01
  0.69223432D-06 -0.16338819D-14  0.77897428D-14 -0.17794234D-04  0.34521416D-04
 -0.16727182D-04  0.40290136D-06 -0.12847995D-14 -0.12867815D-13  0.29503113D-03
 -0.59013976D-03  0.29510863D-03 -0.13596630D-06 -0.27020435D-14  0.17760659D-14
  0.80371933D-04 -0.48178418D-02 -0.27989649D-14 -0.46465614D-06  0.72262295D-02
 -0.24812407D-14 -0.24065114D-03  0.72272959D-02  0.10878136D-13 -0.93836469D-14
  0.27708270D-04  0.12535691D-02 -0.27418223D-14 -0.32610191D-07 -0.18803537D-02
 -0.27276473D-14 -0.83092201D-04 -0.18803537D-02  0.10953114D-13  0.57307519D-14
 -0.77495836D-02 -0.14440208D-01 -0.24422012D-01 -0.36778196D-01 -0.45533793D-01
 -0.38747203D-01 -0.14744025D-01  0.69052561D-04 -0.62293622D-01 -0.11680112D+00
 -0.19871346D+00 -0.30858103D+00 -0.40950497D+00 -0.43156203D+00 -0.26759599D+00
  0.17800496D+00  0.92322189D-01  0.33792875D-01 -0.27938478D-02  0.21353410D-06
  0.20509695D-06  0.14382814D-06  0.38111394D+00  0.36605539D+00  0.25670330D+00
  0.12691300D-13  0.12189842D-13  0.85483587D-14  0.10574200D-06  0.82782917D-01
 -0.22620936D-13  0.39062389D-06 -0.84915403D-03 -0.16593024D-13 -0.28738260D-07
 -0.60954329D-03 -0.16616643D-14 -0.23420462D-01  0.46840421D-01 -0.23419959D-01
  0.10568653D-06 -0.37886328D-14  0.53769259D-14 -0.22124803D-02  0.44252926D-02
 -0.22128123D-02  0.20239886D-06  0.32099717D-14 -0.18772439D-13  0.29922015D-03
 -0.59835836D-03  0.29913822D-03  0.12063653D-06  0.24134483D-14 -0.44849330D-14
  0.18826616D-04  0.66362127D-02  0.15893462D-14  0.33317965D-06 -0.99546924D-02
  0.17408062D-14 -0.56813026D-04 -0.99539457D-02 -0.65088447D-14 -0.83774873D-14
 -0.19205263D-04  0.33004636D-03  0.51793213D-15 -0.26087186D-07 -0.49487506D-03
  0.46146052D-15  0.57641877D-04 -0.49526402D-03 -0.20152569D-14  0.44531771D-14
 -0.18634398D-02 -0.34738755D-02 -0.58714616D-02 -0.88267300D-02 -0.10844658D-01
 -0.91600470D-02 -0.34548327D-02  0.17098160D-04 -0.10578674D-01 -0.19806616D-01
 -0.33722458D-01 -0.52163515D-01 -0.68697514D-01 -0.71381117D-01 -0.45359496D-01
  0.30398879D-01  0.12520022D-01  0.13740012D-01 -0.35968225D-02 -0.47356385D-06
 -0.44399621D-06 -0.31615175D-06 -0.42983579D-01 -0.40299837D-01 -0.28695885D-01
 -0.16477375D-13 -0.15448586D-13 -0.11000314D-13  0.54187243D-05 -0.56655230D-02
  0.91001111D-13  0.12439566D-05 -0.30278933D-02  0.19460901D-12  0.13475471D-07
  0.19411177D-04  0.73164756D-14 -0.34332713D-02  0.68617949D-02 -0.34285236D-02
 -0.16031429D-06  0.31563858D-14  0.25927426D-15  0.20367904D-02 -0.40739586D-02
  0.20371682D-02  0.25634987D-05  0.87327943D-13  0.69181288D-13  0.53537503D-04
 -0.10704665D-03  0.53509144D-04 -0.49275052D-06  0.30164626D-13  0.12542010D-13
 -0.10797517D-02 -0.76370278D-03  0.39130421D-14  0.43099938D-06  0.11454284D-02
  0.34780969D-14  0.32388241D-02  0.11456799D-02 -0.15217223D-13  0.30035886D-13
 -0.46201445D-03  0.83795903D-03  0.99446026D-15 -0.91518569D-07 -0.12574160D-02
 -0.31103247D-15  0.13861349D-02 -0.12564611D-02 -0.26723483D-14  0.19836034D-13
  0.27178826D-02  0.49018132D-02  0.72277207D-02 -0.11859115D-03  0.14039384D-03
  0.77434565D-04  0.14986494D-02 -0.18155766D-02  0.68878486D-14 -0.48154922D-03
  0.33269442D-02  0.58726373D-14 -0.18351864D-03  0.84183053D-03  0.18812547D-13
  0.39481373D-03 -0.28520553D-03 -0.10960820D-03  0.61006885D-03  0.46005291D-14
 -0.46853309D-14 -0.79498401D-04 -0.28916787D-03  0.36866627D-03  0.60601077D-03
  0.33524871D-14 -0.23457992D-14  0.27179943D-02  0.49020146D-02  0.72280176D-02
 -0.12397173D-03  0.13904875D-03  0.77313491D-04 -0.74972228D-03 -0.18160332D-02
 -0.12982459D-02  0.24323588D-03  0.33266591D-02  0.42251395D-03  0.91891070D-04
  0.84286850D-03  0.15909125D-03  0.15866213D-04 -0.28201699D-03  0.26615078D-03
 -0.30597381D-03  0.43566199D-03 -0.53204942D-03  0.25679202D-03 -0.28920342D-03
  0.32411405D-04 -0.30296911D-03 -0.38843427D-03 -0.52563898D-03  0.27179943D-02
  0.49020146D-02  0.72280176D-02 -0.12397173D-03  0.13904876D-03  0.77313491D-04
 -0.74972228D-03 -0.18160332D-02  0.12982459D-02  0.24323588D-03  0.33266591D-02
 -0.42251395D-03  0.91891069D-04  0.84286850D-03 -0.15909125D-03  0.15866213D-04
 -0.28201699D-03  0.26615078D-03 -0.30597381D-03 -0.43566199D-03  0.53204942D-03
  0.25679202D-03 -0.28920342D-03  0.32411405D-04 -0.30296911D-03  0.38843427D-03
  0.52563898D-03
MO    5     MO 0.0        OCC NO =    2.0000000  ORB. ENERGY =   -0.746357
 -0.17269019D-02 -0.32193377D-02 -0.54412478D-02 -0.81799778D-02 -0.10050048D-01
 -0.84888720D-02 -0.32016902D-02  0.15845344D-04 -0.11167667D-01 -0.20909396D-01
 -0.35600036D-01 -0.55067842D-01 -0.72522411D-01 -0.75355431D-01 -0.47884993D-01
  0.32091409D-01  0.12819174D-01  0.17592535D-01  0.56361368D-02  0.26823023D-06
  0.25148289D-06  0.17907080D-06  0.28362196D+00  0.26591361D+00  0.18934633D+00
  0.73148730D-14  0.68581584D-14  0.48834173D-14  0.25585846D-06  0.52592146D-01
 -0.50837546D-14 -0.19189824D-05  0.24315944D-02  0.39666368D-13  0.13424049D-07
  0.12488306D-03 -0.21434350D-14 -0.18424651D-02  0.36824017D-02 -0.18399366D-02
 -0.12591004D-05  0.34304646D-14  0.12796321D-14 -0.16127535D-02  0.32274270D-02
 -0.16146735D-02 -0.47997921D-05 -0.49595801D-14 -0.19976850D-13 -0.25707053D-03
  0.51366036D-03 -0.25658982D-03 -0.63056571D-06  0.20003125D-14  0.67490613D-14
 -0.18103033D-04  0.50370857D-02 -0.36621268D-15  0.30922350D-05 -0.75541439D-02
  0.34319667D-15  0.51216863D-04 -0.75571131D-02  0.75544136D-15 -0.20334420D-14
 -0.66328565D-05 -0.21304073D-03 -0.40962641D-15 -0.63573766D-06  0.32162603D-03
 -0.28396570D-15  0.20534307D-04  0.31749616D-03  0.15128449D-14 -0.32485989D-14
  0.26659968D-02  0.49676924D-02  0.84016133D-02  0.12652364D-01  0.15664447D-01
  0.13329738D-01  0.50722112D-02 -0.23755329D-04  0.23379727D-01  0.43837207D-01
  0.74580131D-01  0.11581507D+00  0.15369333D+00  0.16197168D+00  0.10043277D+00
 -0.66807919D-01 -0.34777527D-01 -0.21560146D-01 -0.29124802D-02  0.63270834D-06
  0.60770880D-06  0.42616736D-06 -0.11338796D+00 -0.10890778D+00 -0.76373650D-01
  0.41747410D-14  0.40097888D-14  0.28119407D-14 -0.15692857D-05 -0.25801847D-01