 Molden2AIM, Version 4.0.0 (06/02/2016)           Time: Fri Jun 29 23:53:44 2018
GAUSSIAN             13 MOL ORBITALS    287 PRIMITIVES        5 NUCLEI
  C    1    (CENTRE  1)   0.00000000  0.00000189 -2.13185673  CHARGE =  6.0
  Cl   2    (CENTRE  2)   0.00000000  0.00000000  1.24576415  CHARGE = 17.0
  H    3    (CENTRE  3)   0.00000000  1.96262042 -2.78380280  CHARGE =  1.0
  H    4    (CENTRE  4)   1.69967826 -0.98131210 -2.78380469  CHARGE =  1.0
  H    5    (CENTRE  5)  -1.69967826 -0.98131210 -2.78380469  CHARGE =  1.0
CENTRE ASSIGNMENTS    1  1  1  1  1  1  1  1  1  1  1  1  1  1  1  1  1  1  1  1
CENTRE ASSIGNMENTS    1  1  1  1  1  1  1  1  1  1  1  1  1  1  1  1  1  1  1  1
CENTRE ASSIGNMENTS    1  1  1  1  1  1  1  1  1  1  1  1  1  1  1  1  1  1  1  1
CENTRE ASSIGNMENTS    1  1  1  1  1  1  1  1  1  1  1  1  1  1  1  2  2  2  2  2
CENTRE ASSIGNMENTS    2  2  2  2  2  2  2  2  2  2  2  2  2  2  2  2  2  2  2  2
CENTRE ASSIGNMENTS    2  2  2  2  2  2  2  2  2  2  2  2  2  2  2  2  2  2  2  2
CENTRE ASSIGNMENTS    2  2  2  2  2  2  2  2  2  2  2  2  2  2  2  2  2  2  2  2
CENTRE ASSIGNMENTS    2  2  2  2  2  2  2  2  2  2  2  2  2  2  2  2  2  2  2  2
CENTRE ASSIGNMENTS    2  2  2  2  2  2  2  2  2  2  2  2  2  2  2  2  2  2  2  2
CENTRE ASSIGNMENTS    2  2  2  2  2  2  2  2  2  2  2  2  2  2  2  2  2  2  2  2
CENTRE ASSIGNMENTS    2  2  2  2  2  2  3  3  3  3  3  3  3  3  3  3  3  3  3  3
CENTRE ASSIGNMENTS    3  3  3  3  3  3  3  3  3  3  3  3  3  4  4  4  4  4  4  4
CENTRE ASSIGNMENTS    4  4  4  4  4  4  4  4  4  4  4  4  4  4  4  4  4  4  4  4
CENTRE ASSIGNMENTS    5  5  5  5  5  5  5  5  5  5  5  5  5  5  5  5  5  5  5  5
CENTRE ASSIGNMENTS    5  5  5  5  5  5  5
TYPE ASSIGNMENTS      1  1  1  1  1  1  1  1  1  1  1  1  1  1  1  1  1  1  1  2
TYPE ASSIGNMENTS      2  2  3  3  3  4  4  4  2  3  4  2  3  4  2  3  4  5  6  7
TYPE ASSIGNMENTS      8  9 10  5  6  7  8  9 10  5  6  7  8  9 10 11 12 13 17 14
TYPE ASSIGNMENTS     15 18 19 16 20 11 12 13 17 14 15 18 19 16 20  1  1  1  1  1
TYPE ASSIGNMENTS      1  1  1  1  1  1  1  1  1  1  1  1  1  1  1  1  1  1  1  1
TYPE ASSIGNMENTS      1  1  1  1  1  1  1  1  1  1  1  1  1  1  1  1  1  2  2  2
TYPE ASSIGNMENTS      2  2  2  2  3  3  3  3  3  3  3  4  4  4  4  4  4  4  2  2
TYPE ASSIGNMENTS      2  2  2  2  2  3  3  3  3  3  3  3  4  4  4  4  4  4  4  2
TYPE ASSIGNMENTS      3  4  2  3  4  2  3  4  5  6  7  8  9 10  5  6  7  8  9 10
TYPE ASSIGNMENTS      5  6  7  8  9 10 11 12 13 17 14 15 18 19 16 20 11 12 13 17
TYPE ASSIGNMENTS     14 15 18 19 16 20  1  1  1  1  1  1  2  3  4  2  3  4  2  3
TYPE ASSIGNMENTS      4  5  6  7  8  9 10  5  6  7  8  9 10  1  1  1  1  1  1  2
TYPE ASSIGNMENTS      3  4  2  3  4  2  3  4  5  6  7  8  9 10  5  6  7  8  9 10
TYPE ASSIGNMENTS      1  1  1  1  1  1  2  3  4  2  3  4  2  3  4  5  6  7  8  9
TYPE ASSIGNMENTS     10  5  6  7  8  9 10
EXPONENTS  0.8236000D+04 0.1235000D+04 0.2808000D+03 0.7927000D+02 0.2559000D+02
EXPONENTS  0.8997000D+01 0.3319000D+01 0.3643000D+00 0.8236000D+04 0.1235000D+04
EXPONENTS  0.2808000D+03 0.7927000D+02 0.2559000D+02 0.8997000D+01 0.3319000D+01
EXPONENTS  0.3643000D+00 0.9059000D+00 0.1285000D+00 0.4402000D-01 0.1871000D+02
EXPONENTS  0.4133000D+01 0.1200000D+01 0.1871000D+02 0.4133000D+01 0.1200000D+01
EXPONENTS  0.1871000D+02 0.4133000D+01 0.1200000D+01 0.3827000D+00 0.3827000D+00
EXPONENTS  0.3827000D+00 0.1209000D+00 0.1209000D+00 0.1209000D+00 0.3569000D-01
EXPONENTS  0.3569000D-01 0.3569000D-01 0.1097000D+01 0.1097000D+01 0.1097000D+01
EXPONENTS  0.1097000D+01 0.1097000D+01 0.1097000D+01 0.3180000D+00 0.3180000D+00
EXPONENTS  0.3180000D+00 0.3180000D+00 0.3180000D+00 0.3180000D+00 0.1000000D+00
EXPONENTS  0.1000000D+00 0.1000000D+00 0.1000000D+00 0.1000000D+00 0.1000000D+00
EXPONENTS  0.7610000D+00 0.7610000D+00 0.7610000D+00 0.7610000D+00 0.7610000D+00
EXPONENTS  0.7610000D+00 0.7610000D+00 0.7610000D+00 0.7610000D+00 0.7610000D+00
EXPONENTS  0.2680000D+00 0.2680000D+00 0.2680000D+00 0.2680000D+00 0.2680000D+00
EXPONENTS  0.2680000D+00 0.2680000D+00 0.2680000D+00 0.2680000D+00 0.2680000D+00
EXPONENTS  0.4561000D+06 0.6833000D+05 0.1555000D+05 0.4405000D+04 0.1439000D+04
EXPONENTS  0.5204000D+03 0.2031000D+03 0.8396000D+02 0.3620000D+02 0.1583000D+02
EXPONENTS  0.6334000D+01 0.2694000D+01 0.4313000D+00 0.4561000D+06 0.6833000D+05
EXPONENTS  0.1555000D+05 0.4405000D+04 0.1439000D+04 0.5204000D+03 0.2031000D+03
EXPONENTS  0.8396000D+02 0.3620000D+02 0.1583000D+02 0.6334000D+01 0.2694000D+01
EXPONENTS  0.4313000D+00 0.4561000D+06 0.6833000D+05 0.1555000D+05 0.4405000D+04
EXPONENTS  0.1439000D+04 0.5204000D+03 0.2031000D+03 0.8396000D+02 0.3620000D+02
EXPONENTS  0.1583000D+02 0.6334000D+01 0.2694000D+01 0.4313000D+00 0.9768000D+00
EXPONENTS  0.1625000D+00 0.5910000D-01 0.6633000D+03 0.1568000D+03 0.4998000D+02
EXPONENTS  0.1842000D+02 0.7240000D+01 0.2922000D+01 0.3818000D+00 0.6633000D+03
EXPONENTS  0.1568000D+03 0.4998000D+02 0.1842000D+02 0.7240000D+01 0.2922000D+01
EXPONENTS  0.3818000D+00 0.6633000D+03 0.1568000D+03 0.4998000D+02 0.1842000D+02
EXPONENTS  0.7240000D+01 0.2922000D+01 0.3818000D+00 0.6633000D+03 0.1568000D+03
EXPONENTS  0.4998000D+02 0.1842000D+02 0.7240000D+01 0.2922000D+01 0.3818000D+00
EXPONENTS  0.6633000D+03 0.1568000D+03 0.4998000D+02 0.1842000D+02 0.7240000D+01
EXPONENTS  0.2922000D+01 0.3818000D+00 0.6633000D+03 0.1568000D+03 0.4998000D+02
EXPONENTS  0.1842000D+02 0.7240000D+01 0.2922000D+01 0.3818000D+00 0.1022000D+01
EXPONENTS  0.1022000D+01 0.1022000D+01 0.1301000D+00 0.1301000D+00 0.1301000D+00
EXPONENTS  0.4190000D-01 0.4190000D-01 0.4190000D-01 0.1046000D+01 0.1046000D+01
EXPONENTS  0.1046000D+01 0.1046000D+01 0.1046000D+01 0.1046000D+01 0.3440000D+00
EXPONENTS  0.3440000D+00 0.3440000D+00 0.3440000D+00 0.3440000D+00 0.3440000D+00
EXPONENTS  0.1350000D+00 0.1350000D+00 0.1350000D+00 0.1350000D+00 0.1350000D+00
EXPONENTS  0.1350000D+00 0.7060000D+00 0.7060000D+00 0.7060000D+00 0.7060000D+00
EXPONENTS  0.7060000D+00 0.7060000D+00 0.7060000D+00 0.7060000D+00 0.7060000D+00
EXPONENTS  0.7060000D+00 0.3120000D+00 0.3120000D+00 0.3120000D+00 0.3120000D+00
EXPONENTS  0.3120000D+00 0.3120000D+00 0.3120000D+00 0.3120000D+00 0.3120000D+00
EXPONENTS  0.3120000D+00 0.3387000D+02 0.5095000D+01 0.1159000D+01 0.3258000D+00
EXPONENTS  0.1027000D+00 0.2526000D-01 0.1407000D+01 0.1407000D+01 0.1407000D+01
EXPONENTS  0.3880000D+00 0.3880000D+00 0.3880000D+00 0.1020000D+00 0.1020000D+00
EXPONENTS  0.1020000D+00 0.1057000D+01 0.1057000D+01 0.1057000D+01 0.1057000D+01
EXPONENTS  0.1057000D+01 0.1057000D+01 0.2470000D+00 0.2470000D+00 0.2470000D+00
EXPONENTS  0.2470000D+00 0.2470000D+00 0.2470000D+00 0.3387000D+02 0.5095000D+01
EXPONENTS  0.1159000D+01 0.3258000D+00 0.1027000D+00 0.2526000D-01 0.1407000D+01
EXPONENTS  0.1407000D+01 0.1407000D+01 0.3880000D+00 0.3880000D+00 0.3880000D+00
EXPONENTS  0.1020000D+00 0.1020000D+00 0.1020000D+00 0.1057000D+01 0.1057000D+01
EXPONENTS  0.1057000D+01 0.1057000D+01 0.1057000D+01 0.1057000D+01 0.2470000D+00
EXPONENTS  0.2470000D+00 0.2470000D+00 0.2470000D+00 0.2470000D+00 0.2470000D+00
EXPONENTS  0.3387000D+02 0.5095000D+01 0.1159000D+01 0.3258000D+00 0.1027000D+00
EXPONENTS  0.2526000D-01 0.1407000D+01 0.1407000D+01 0.1407000D+01 0.3880000D+00
EXPONENTS  0.3880000D+00 0.3880000D+00 0.1020000D+00 0.1020000D+00 0.1020000D+00
EXPONENTS  0.1057000D+01 0.1057000D+01 0.1057000D+01 0.1057000D+01 0.1057000D+01
EXPONENTS  0.1057000D+01 0.2470000D+00 0.2470000D+00 0.2470000D+00 0.2470000D+00
EXPONENTS  0.2470000D+00 0.2470000D+00
MO    1     MO 0.0        OCC NO =    2.0000000  ORB. ENERGY = -101.198785
 -0.20670508D-04 -0.38534526D-04 -0.65130138D-04 -0.97911931D-04 -0.12029612D-03
 -0.10160930D-03 -0.38323291D-04  0.18966411D-06  0.16213640D-04  0.30357050D-04
  0.51685475D-04  0.79949570D-04  0.10529077D-03  0.10940386D-03  0.69521239D-04
 -0.46591518D-04 -0.15163043D-03  0.19473415D-02  0.17035393D-03 -0.18930255D-15
 -0.17748317D-15 -0.12637859D-15 -0.45075773D-09 -0.42261403D-09 -0.30092636D-09
  0.75359912D-04  0.70654708D-04  0.50310361D-04  0.77822684D-15  0.29286214D-10
  0.22097442D-03  0.71389281D-15 -0.15969880D-08  0.58001522D-03  0.22625155D-16
 -0.15147777D-10  0.14998826D-04 -0.97099629D-04 -0.97101341D-04  0.19420097D-03
 -0.14442525D-15 -0.92316417D-16  0.76752360D-09  0.11634900D-03  0.11634955D-03
 -0.23269855D-03 -0.50490157D-15 -0.32673518D-15 -0.28638110D-09 -0.17038276D-04
 -0.17038086D-04  0.34076362D-04 -0.93287257D-16 -0.20401587D-16  0.25238477D-09
  0.20252477D-16  0.36219273D-04 -0.48474795D-04  0.53401488D-17 -0.10865821D-03
  0.72711737D-04 -0.66097580D-16  0.39070426D-09  0.72712648D-04  0.26403979D-15
  0.39956430D-17  0.60896305D-04 -0.29332349D-04 -0.17203516D-17 -0.18268897D-03
  0.43998079D-04 -0.10266577D-16  0.56855230D-10  0.43998968D-04  0.77494887D-16
  0.61745400D+00  0.11552588D+01  0.19960313D+01  0.32357995D+01  0.49138197D+01
  0.68296315D+01  0.81194466D+01  0.72321785D+01  0.35902700D+01  0.57845001D+00
  0.88807485D-02  0.15869810D-02  0.59303005D-04 -0.14310504D-02 -0.26729966D-02
 -0.46391152D-02 -0.75273987D-02 -0.11651519D-01 -0.16678091D-01 -0.21770119D-01
 -0.23199694D-01 -0.17342242D-01 -0.91546616D-03  0.11763286D-01  0.69887432D-02
 -0.26202547D-04  0.56790652D-03  0.10599157D-02  0.18420402D-02  0.29854052D-02
  0.46368018D-02  0.66423523D-02  0.87706073D-02  0.94836282D-02  0.74352874D-02
  0.36997744D-03 -0.63739212D-02 -0.65981901D-02  0.29857743D-02 -0.36058162D-02
 -0.17915377D-02 -0.47959217D-03 -0.16162119D-15 -0.21289138D-15 -0.23486907D-15
 -0.19508576D-15 -0.10361478D-15 -0.26725276D-16  0.27472675D-19  0.24710979D-07
  0.32549905D-07  0.35910170D-07  0.29827524D-07  0.15842123D-07  0.40861456D-08
 -0.42004187D-11 -0.66408064D-02 -0.87474324D-02 -0.96504672D-02 -0.80158223D-02
 -0.42573979D-02 -0.10981071D-02  0.11288168D-05  0.12574243D-15  0.16509060D-15
  0.18796779D-15  0.15916341D-15  0.91174926D-16  0.20739133D-16 -0.97070554D-17
 -0.12391771D-07 -0.16269487D-07 -0.18524008D-07 -0.15685369D-07 -0.89851834D-08
 -0.20438175D-08  0.95661907D-09  0.56045982D-02  0.73584265D-02  0.83781100D-02
  0.70942394D-02  0.40638535D-02  0.92438568D-03 -0.43266337D-03  0.23927462D-16
 -0.15497548D-08  0.18546282D-03 -0.23379569D-16 -0.85430616D-09  0.83443777D-03
 -0.54349200D-19 -0.29980209D-10  0.20108971D-04 -0.14436242D-03 -0.14436206D-03
  0.28872448D-03  0.93946699D-17 -0.60533247D-16  0.16519448D-10  0.28126141D-04
  0.28125941D-04 -0.56252083D-04 -0.46696658D-17  0.15557475D-16 -0.29152289D-09
  0.57953463D-04  0.57953358D-04 -0.11590682D-03  0.83301393D-17  0.91592644D-17
  0.32525752D-09 -0.11896466D-16  0.48364760D-05 -0.12363199D-03 -0.96016554D-17
 -0.14510274D-04  0.18544785D-03  0.45291054D-16  0.84635041D-09  0.18544813D-03
  0.44302721D-17  0.21350572D-17 -0.49874602D-05  0.52222442D-04  0.16224474D-17
  0.14962539D-04 -0.78333836D-04 -0.80276190D-17 -0.15822792D-09 -0.78333489D-04
 -0.89896538D-17 -0.35108909D-05 -0.63320363D-05 -0.93365839D-05 -0.56770454D-03
  0.21118610D-04  0.61880092D-06  0.35685881D-16  0.10336206D-03  0.42624045D-04
  0.43426655D-16 -0.10551094D-04 -0.31928449D-03  0.57197765D-16  0.10312824D-06
  0.70741587D-05  0.36531997D-04  0.10083685D-03 -0.13736884D-03 -0.89302864D-17
  0.40371228D-16  0.17767505D-03  0.88362998D-05  0.11306490D-04 -0.20142790D-04
 -0.23319734D-16  0.11808160D-16 -0.89547074D-05 -0.35109626D-05 -0.63321656D-05
 -0.93367745D-05 -0.56770365D-03  0.21113921D-04  0.61871836D-06  0.89513653D-04
 -0.51681014D-04  0.42625551D-04 -0.91366952D-05  0.52734422D-05 -0.31928463D-03
  0.90326925D-07 -0.51941841D-07  0.70741573D-05  0.84761685D-04  0.52607292D-04
 -0.13736898D-03 -0.55686892D-04  0.15387304D-03 -0.88838120D-04  0.10688879D-04
  0.94538778D-05 -0.20142757D-04 -0.21394542D-05 -0.77546677D-05  0.44770207D-05
 -0.35109626D-05 -0.63321656D-05 -0.93367745D-05 -0.56770365D-03  0.21113921D-04
  0.61871836D-06 -0.89513653D-04 -0.51681014D-04  0.42625551D-04  0.91366952D-05
  0.52734422D-05 -0.31928463D-03 -0.90326924D-07 -0.51941841D-07  0.70741573D-05
  0.84761685D-04  0.52607292D-04 -0.13736898D-03  0.55686892D-04 -0.15387304D-03
 -0.88838120D-04  0.10688879D-04  0.94538778D-05 -0.20142757D-04  0.21394542D-05
  0.77546677D-05  0.44770207D-05
MO    2     MO 0.0        OCC NO =    2.0000000  ORB. ENERGY =  -10.094613
  0.33065898D+00  0.61642351D+00  0.10418643D+01  0.15662634D+01  0.19243355D+01
  0.16254090D+01  0.61304446D+00 -0.30339912D-02 -0.35044697D-02 -0.65614729D-02
 -0.11171469D-01 -0.17280564D-01 -0.22757895D-01 -0.23646910D-01 -0.15026550D-01
  0.10070444D-01  0.31740030D-01  0.25895741D-02 -0.17976627D-03  0.25603192D-14
  0.24004620D-14  0.17092720D-14 -0.50835571D-06 -0.47661579D-06 -0.33937883D-06
  0.32430164D-02  0.30405340D-02  0.21650413D-02 -0.16128080D-13 -0.36196618D-06
 -0.44033439D-02 -0.24576220D-13  0.30016636D-06 -0.12665928D-02 -0.56093611D-15
  0.16929991D-07 -0.29794628D-04  0.98274349D-03  0.98100652D-03 -0.19637500D-02
  0.18041130D-14  0.52802901D-15 -0.12441802D-05  0.90062261D-03  0.90116335D-03
 -0.18017860D-02  0.10516759D-13  0.79580859D-14 -0.88619464D-06  0.56322469D-04
  0.56334784D-04 -0.11265725D-03  0.34245232D-14  0.65782785D-15 -0.64199570D-07
 -0.45065473D-15  0.15191063D-02  0.90677476D-03  0.27019107D-15 -0.45590190D-02
 -0.13601407D-02  0.10817731D-14  0.17000937D-05 -0.13601836D-02 -0.39216501D-14
 -0.37188337D-15 -0.62401907D-04 -0.21708219D-03  0.10832972D-14  0.18741580D-03
  0.32579611D-03  0.32352917D-16 -0.21008245D-06  0.32545047D-03 -0.16545348D-14
 -0.49217052D-04 -0.92085293D-04 -0.15910299D-03 -0.25792450D-03 -0.39167893D-03
 -0.54438765D-03 -0.64719838D-03 -0.57647454D-03 -0.28617922D-03 -0.46108058D-04
 -0.70788151D-06 -0.12649773D-06 -0.47270228D-08  0.95820980D-04  0.17897983D-03
  0.31062818D-03  0.50402330D-03  0.78016820D-03  0.11167399D-02  0.14576944D-02
  0.15534166D-02  0.11612105D-02  0.61298237D-04 -0.78765192D-03 -0.46795574D-03
  0.17544832D-05 -0.62469235D-04 -0.11658983D-03 -0.20262286D-03 -0.32839204D-03
 -0.51004426D-03 -0.73065312D-03 -0.96475936D-03 -0.10431910D-02 -0.81787531D-03
 -0.40697205D-04  0.70112592D-03  0.72579531D-03 -0.32843264D-03 -0.47787509D-03
  0.30980110D-02  0.92868064D-03  0.17802053D-13  0.23449298D-13  0.25870070D-13
  0.21488066D-13  0.11412834D-13  0.29437028D-14 -0.30260264D-17  0.44313049D-05
  0.58370230D-05  0.64396038D-05  0.53488312D-05  0.28408942D-05  0.73274948D-06
 -0.75324155D-09 -0.31296796D-01 -0.41224904D-01 -0.45480727D-01 -0.37776972D-01
 -0.20064267D-01 -0.51751598D-02  0.53198884D-05 -0.14536102D-13 -0.19084836D-13
 -0.21729490D-13 -0.18399639D-13 -0.10540022D-13 -0.23974893D-14  0.11221569D-14
 -0.38285181D-05 -0.50265635D-05 -0.57231124D-05 -0.48460965D-05 -0.27760307D-05
 -0.63145067D-06  0.29555366D-06  0.28101191D-01  0.36894803D-01  0.42007448D-01
  0.35570182D-01  0.20375970D-01  0.46348262D-02 -0.21693537D-02 -0.17109561D-14
 -0.31435442D-06  0.14241107D-02  0.55024541D-15  0.60711119D-07 -0.12565090D-02
 -0.79040118D-16 -0.52139523D-08 -0.37572704D-04 -0.92047639D-05 -0.93012314D-05
  0.18505995D-04 -0.39977642D-15  0.29749251D-14  0.23589904D-06 -0.39533957D-03
 -0.39526873D-03  0.79060831D-03  0.21937627D-15 -0.13455005D-14 -0.35164181D-06
 -0.53792004D-04 -0.53799720D-04  0.10759172D-03 -0.29656167D-15 -0.17772329D-15
 -0.10815313D-07  0.34732421D-15 -0.33488883D-04 -0.11237211D-03  0.48003652D-15
  0.10032876D-03  0.16856073D-03 -0.15220091D-14  0.13789308D-06  0.16855559D-03
 -0.31142485D-15 -0.96051137D-16  0.15684995D-04 -0.81885328D-04 -0.21328496D-15
 -0.47141355D-04  0.12284923D-03  0.50143838D-15  0.86370843D-07  0.12280676D-03
  0.28804575D-15 -0.20143234D-04 -0.36329152D-04 -0.53567314D-04 -0.29425698D-02
 -0.14043595D-02 -0.19465622D-04 -0.12615686D-14  0.21406565D-02 -0.67397950D-03
 -0.10642776D-14  0.30767632D-02 -0.14513230D-02 -0.28666782D-14  0.34849588D-03
 -0.23381805D-03  0.12642946D-02 -0.21206579D-02  0.85636327D-03 -0.65933597D-15
 -0.14872876D-14  0.25028602D-02  0.15189088D-03 -0.24437323D-03  0.92482341D-04
  0.76816573D-15 -0.60013036D-15  0.43302005D-03 -0.19991706D-04 -0.36055864D-04
 -0.53164351D-04 -0.29417601D-02 -0.14042374D-02 -0.19429914D-04  0.18535943D-02
 -0.10699265D-02 -0.67431987D-03  0.26650641D-02 -0.15384951D-02 -0.14519860D-02
  0.30184939D-03 -0.17434481D-03 -0.23392680D-03 -0.12750332D-02  0.41863422D-03
  0.85639899D-03  0.29320838D-02  0.21690689D-02 -0.12518552D-02 -0.14532332D-03
  0.52881082D-04  0.92442239D-04  0.34332360D-03  0.37516103D-03 -0.21665736D-03
 -0.19991706D-04 -0.36055864D-04 -0.53164351D-04 -0.29417601D-02 -0.14042374D-02
 -0.19429914D-04 -0.18535943D-02 -0.10699265D-02 -0.67431987D-03 -0.26650641D-02
 -0.15384951D-02 -0.14519860D-02 -0.30184939D-03 -0.17434481D-03 -0.23392680D-03
 -0.12750332D-02  0.41863422D-03  0.85639899D-03 -0.29320838D-02 -0.21690689D-02
 -0.12518552D-02 -0.14532332D-03  0.52881082D-04  0.92442239D-04 -0.34332360D-03
 -0.37516103D-03 -0.21665736D-03
MO    3     MO 0.0        OCC NO =    2.0000000  ORB. ENERGY =   -9.368765
  0.14353548D-04  0.26758277D-04  0.45226202D-04  0.67989796D-04  0.83533320D-04
  0.70557243D-04  0.26611596D-04 -0.13170227D-06 -0.23086309D-04 -0.43224855D-04
 -0.73594014D-04 -0.11383875D-03 -0.14992163D-03 -0.15577818D-03 -0.98990037D-04
  0.66340821D-04  0.10303054D-03 -0.13175420D-02 -0.11320824D-03 -0.45490462D-14
 -0.42650199D-14 -0.30369483D-14 -0.14036373D-07 -0.13159992D-07 -0.93706982D-08
  0.63292215D-04  0.59340474D-04  0.42253953D-04  0.19617559D-13  0.71065576D-07
 -0.16242897D-04  0.23851828D-13  0.74248143D-08 -0.57423029D-03  0.11027249D-14
  0.24419126D-09 -0.11670649D-04 -0.64359538D-04 -0.64338931D-04  0.12869847D-03
 -0.28555495D-14 -0.13390858D-14  0.29534903D-07  0.11182087D-04  0.11200802D-04
 -0.22382889D-04 -0.13343933D-13 -0.91353116D-14 -0.38297869D-07  0.19964582D-04
  0.19958873D-04 -0.39923455D-04 -0.28467789D-14 -0.11614564D-14 -0.49781055D-08
  0.38914647D-15 -0.65654246D-05 -0.76108511D-04  0.38469382D-15  0.19678488D-04
  0.11418224D-03 -0.15521332D-14  0.17785577D-07  0.11414330D-03  0.62610075D-14
  0.62184286D-16 -0.23616039D-04  0.60595385D-05  0.46290162D-16  0.70857555D-04
 -0.90953030D-05 -0.23284302D-15 -0.94371694D-08 -0.90833124D-05  0.20714917D-14
 -0.20069676D-02 -0.37550440D-02 -0.64878842D-02 -0.10517617D-01 -0.15971841D-01
 -0.22198980D-01 -0.26391385D-01 -0.23507416D-01 -0.11669785D-01 -0.18801893D-02
 -0.28865915D-04 -0.51583106D-05 -0.19275802D-06 -0.17039059D+00 -0.31826516D+00
 -0.55236462D+00 -0.89626331D+00 -0.13873092D+01 -0.19858070D+01 -0.25920985D+01
 -0.27623134D+01 -0.20648854D+01 -0.10900163D+00  0.14006168D+01  0.83212732D+00
 -0.31198536D-02 -0.41269529D-03 -0.77023630D-03 -0.13386029D-02 -0.21694815D-02
 -0.33695444D-02 -0.48269696D-02 -0.63735636D-02 -0.68917129D-02 -0.54031922D-02
 -0.26886106D-03  0.46319018D-02  0.47948771D-02 -0.21697497D-02  0.65967065D-01
  0.19519630D-02  0.38613570D-03 -0.11727943D-13 -0.15448333D-13 -0.17043131D-13
 -0.14156279D-13 -0.75187437D-14 -0.19393033D-14  0.19935379D-17  0.82468911D-06
  0.10863006D-05  0.11984441D-05  0.99544557D-06  0.52870532D-06  0.13636853D-06
 -0.14018221D-09 -0.62833250D-01 -0.82765492D-01 -0.91309727D-01 -0.75843224D-01
 -0.40282179D-01 -0.10389949D-01  0.10680514D-04  0.86496466D-14  0.11356352D-13
  0.12930042D-13  0.10948629D-13  0.62717960D-14  0.14266160D-14 -0.66773480D-15
 -0.19343799D-06 -0.25396990D-06 -0.28916341D-06 -0.24485170D-06 -0.14026048D-06
 -0.31904393D-07  0.14933012D-07 -0.33013922D-02 -0.43344859D-02 -0.49351311D-02
 -0.41788663D-02 -0.23938155D-02 -0.54450998D-03  0.25486064D-03  0.10819107D-14
 -0.36620007D-07 -0.10388526D-02 -0.35197508D-15  0.88943087D-08 -0.74418813D-03
 -0.53936413D-16  0.37101025D-10 -0.16456596D-04 -0.39559885D-03 -0.39553249D-03
  0.79113134D-03  0.22140640D-15 -0.20075303D-14  0.93433163D-07 -0.81332559D-05
 -0.81457256D-05  0.16278982D-04 -0.13739567D-15  0.70704581D-15 -0.26073844D-07
 -0.50864770D-04 -0.50862215D-04  0.10172698D-03  0.27655428D-15  0.19950006D-15
 -0.17944292D-08 -0.35010214D-15 -0.52089374D-05  0.11330841D-05 -0.34607774D-15
  0.15584971D-04 -0.17408696D-05  0.13963842D-14  0.41840691D-07 -0.16583826D-05
  0.36928700D-15  0.85352008D-16  0.33593834D-05 -0.28560221D-04  0.84542643D-16
 -0.10080547D-04  0.42844729D-04 -0.34059867D-15  0.23970133D-08  0.42835933D-04
 -0.35235428D-15 -0.21834331D-05 -0.39379114D-05 -0.58064481D-05  0.28596194D-03
 -0.12080778D-03 -0.16176781D-05  0.15133142D-14 -0.79621293D-04 -0.40068488D-04
  0.23709613D-15 -0.21451791D-04  0.93734992D-04  0.11161577D-14  0.86329861D-05
 -0.20328850D-04 -0.17845586D-04  0.17055111D-04  0.79047415D-06 -0.47667708D-15
  0.71682400D-15 -0.88549050D-05 -0.59980346D-06  0.46167213D-05 -0.40169179D-05
 -0.17095895D-15  0.38593771D-15  0.24828943D-04 -0.21834333D-05 -0.39379119D-05
 -0.58064488D-05  0.28603517D-03 -0.12078858D-03 -0.16162824D-05 -0.68955664D-04
  0.39815243D-04 -0.40083713D-04 -0.18637205D-04  0.10747734D-04  0.93766072D-04
  0.74660166D-05 -0.43171772D-05 -0.20332341D-04  0.83440077D-05 -0.91253427D-05
  0.78133503D-06 -0.30265256D-04 -0.76819254D-05  0.44380224D-05  0.33163116D-05
  0.70466623D-06 -0.40209778D-05 -0.45168216D-05  0.21500158D-04 -0.12407377D-04
 -0.21834333D-05 -0.39379119D-05 -0.58064488D-05  0.28603517D-03 -0.12078858D-03
 -0.16162824D-05  0.68955664D-04  0.39815243D-04 -0.40083713D-04  0.18637205D-04
  0.10747734D-04  0.93766072D-04 -0.74660166D-05 -0.43171772D-05 -0.20332341D-04
  0.83440077D-05 -0.91253427D-05  0.78133503D-06  0.30265256D-04  0.76819254D-05
  0.44380224D-05  0.33163116D-05  0.70466623D-06 -0.40209778D-05  0.45168216D-05
 -0.21500158D-04 -0.12407377D-04
MO    4     MO 0.0        OCC NO =    2.0000000  ORB. ENERGY =   -7.110618
 -0.87957444D-04 -0.16397267D-03 -0.27714271D-03 -0.41663627D-03 -0.51188579D-03
 -0.43236938D-03 -0.16307382D-03  0.80706145D-06  0.87795699D-04  0.16438125D-03
  0.27987314D-03  0.43292119D-03  0.57014198D-03  0.59241404D-03  0.37645253D-03
 -0.25228973D-03 -0.34243704D-03  0.90504896D-03  0.21962092D-03 -0.14044501D-14
 -0.13167612D-14 -0.93761244D-15  0.30079287D-07  0.28201244D-07  0.20080966D-07
 -0.78572701D-03 -0.73666902D-03 -0.52455223D-03  0.47946573D-14 -0.13560464D-06
 -0.11662586D-03  0.43872421D-14  0.12179075D-07  0.45999808D-03  0.87768314D-16
  0.13539644D-08  0.13320743D-04  0.40122106D-03  0.40120652D-03 -0.80242758D-03
 -0.66169569D-15 -0.46452693D-15 -0.94664268D-07 -0.44748188D-03 -0.44754149D-03
  0.89502337D-03 -0.34238511D-14 -0.21403126D-14  0.10431011D-06 -0.27599401D-04
 -0.27598706D-04  0.55198107D-04 -0.60844799D-15 -0.18453795D-15 -0.20725968D-08
  0.91032025D-16 -0.46520261D-04  0.44176484D-03  0.10707512D-15  0.13964653D-03
 -0.66268712D-03 -0.38017120D-15 -0.85743961D-07 -0.66260742D-03  0.15502096D-14
 -0.15712454D-17 -0.59664849D-04  0.11871943D-03  0.16197258D-16  0.17897195D-03
 -0.17807777D-03 -0.11483521D-16  0.22597423D-07 -0.17808052D-03  0.62396991D-15
 -0.18749705D-04 -0.35080770D-04 -0.60611799D-04 -0.98258795D-04 -0.14921382D-03
 -0.20738966D-03 -0.24655639D-03 -0.21961347D-03 -0.10902270D-03 -0.17565304D-04
 -0.26967420D-06 -0.48190515D-07 -0.18008044D-08 -0.95560907D-03 -0.17849405D-02
 -0.30978509D-02 -0.50265530D-02 -0.77805071D-02 -0.11137089D-01 -0.14537380D-01
 -0.15492004D-01 -0.11580588D-01 -0.61131865D-03  0.78551412D-02  0.46668563D-02
 -0.17497213D-04 -0.31500402D-04 -0.58790962D-04 -0.10217352D-03 -0.16559321D-03
 -0.25719219D-03 -0.36843523D-03 -0.48648439D-03 -0.52603393D-03 -0.41241742D-03
 -0.20521755D-04  0.35354600D-03  0.36598566D-03 -0.16561369D-03  0.73338647D-03
 -0.13829605D-02 -0.41371468D-03  0.53103944D-13  0.69949813D-13  0.77171030D-13
  0.64099411D-13  0.34044754D-13  0.87811353D-14 -0.90267085D-17  0.41175951D-03
  0.54237968D-03  0.59837185D-03  0.49701660D-03  0.26397759D-03  0.68087521D-04
 -0.69991657D-07  0.11533387D+02  0.15192059D+02  0.16760400D+02  0.13921438D+02
  0.73940142D+01  0.19071319D+01 -0.19604668D-02  0.19125150D-14  0.25109920D-14
  0.28589491D-14  0.24208407D-14  0.13867507D-14  0.31543768D-15 -0.14764220D-15
  0.42876440D-06  0.56293622D-06  0.64094430D-06  0.54272531D-06  0.31089395D-06
  0.70717588D-07 -0.33099723D-07 -0.23582245D-01 -0.30961759D-01 -0.35252240D-01
 -0.29850149D-01 -0.17099315D-01 -0.38895009D-02  0.18205005D-02  0.67580545D-15
  0.33665492D-05  0.91571354D-01 -0.55385028D-16  0.62302257D-09  0.60709534D-03
  0.12678283D-16 -0.36969884D-09  0.12732772D-04  0.69038854D-03  0.69046614D-03
 -0.13808547D-02  0.14856436D-15 -0.42227900D-15 -0.67094862D-07  0.16991374D-03
  0.16991459D-03 -0.33982832D-03 -0.81669140D-16  0.13357130D-15  0.57304708D-07
  0.18397419D-04  0.18395883D-04 -0.36793302D-04  0.61702416D-16  0.27898427D-16
 -0.53804719D-09 -0.57537115D-16  0.31731617D-05  0.46225031D-03 -0.47706805D-16
 -0.94595292D-05 -0.69331347D-03  0.22031815D-15 -0.59956049D-07 -0.69343747D-03
 -0.13334875D-16  0.11546667D-16  0.12811956D-05 -0.17201807D-05  0.70812597D-17
 -0.38372143D-05  0.25689077D-05 -0.41721262D-16 -0.63723826D-08  0.25916343D-05
 -0.25844813D-16  0.28785838D-04  0.51916444D-04  0.76550767D-04  0.11886256D-03
  0.89952935D-04 -0.30924824D-05  0.14382092D-15  0.28083367D-04 -0.31506830D-06
  0.43006162D-15  0.18746659D-03  0.54334685D-03  0.46654222D-15 -0.63264125D-05
  0.61951172D-04  0.24204589D-04 -0.27420403D-03  0.24999944D-03 -0.11796355D-15
  0.17587008D-15 -0.32320181D-03 -0.36675724D-04 -0.28484129D-04  0.65159852D-04
 -0.23107901D-15  0.10295101D-15 -0.10167482D-03  0.28786285D-04  0.51917250D-04
  0.76551955D-04  0.11866204D-03  0.89990897D-04 -0.30893740D-05  0.24337993D-04
 -0.14043525D-04 -0.29960484D-06  0.16245528D-03 -0.93795834D-04  0.54332083D-03
 -0.54829221D-05  0.31623600D-05  0.61946770D-04 -0.19964901D-03 -0.50384610D-04
  0.25003362D-03  0.25850141D-03 -0.27993513D-03  0.16159322D-03 -0.30535837D-04
 -0.34633854D-04  0.65169691D-04 -0.70905564D-05 -0.88051264D-04  0.50830873D-04
  0.28786285D-04  0.51917250D-04  0.76551955D-04  0.11866204D-03  0.89990897D-04
 -0.30893740D-05 -0.24337993D-04 -0.14043525D-04 -0.29960484D-06 -0.16245528D-03
 -0.93795834D-04  0.54332083D-03  0.54829221D-05  0.31623600D-05  0.61946770D-04
 -0.19964901D-03 -0.50384610D-04  0.25003362D-03 -0.25850141D-03  0.27993513D-03
  0.16159322D-03 -0.30535837D-04 -0.34633854D-04  0.65169691D-04  0.70905564D-05
  0.88051264D-04  0.50830873D-04
MO    5     MO 0.0        OCC NO =    2.0000000  ORB. ENERGY =   -7.099850
  0.48419680D-08  0.90265292D-08  0.15256425D-07  0.22935403D-07  0.28178793D-07
  0.23801496D-07  0.89770484D-08 -0.44427913D-10 -0.53178806D-08 -0.99567504D-08
 -0.16952219D-07 -0.26222506D-07 -0.34534118D-07 -0.35883160D-07 -0.22802138D-07
  0.15281462D-07  0.40388931D-07 -0.75500478D-07 -0.16762269D-07  0.17891407D-13
  0.16774331D-13  0.11944323D-13 -0.64040983D-04 -0.60042492D-04 -0.42753831D-04
  0.75114588D-07  0.70424701D-07  0.50146582D-07 -0.21090436D-13  0.75764736D-04
 -0.27820591D-07 -0.74991063D-13  0.27017233D-03 -0.10983283D-07 -0.15449011D-14
  0.55969047D-05 -0.47610840D-09  0.44768462D-04 -0.44810062D-04  0.41600132D-07
 -0.25047266D-13 -0.47006323D-13  0.16942413D-03 -0.64419681D-04  0.64457503D-04
 -0.37821965D-07  0.35869567D-13  0.10857554D-13 -0.39244584D-04 -0.19111123D-04
  0.19113695D-04 -0.25720366D-08  0.10625648D-13  0.23053046D-14 -0.82042256D-05
 -0.18473214D-14  0.66044496D-05 -0.18676185D-07 -0.18612126D-14  0.67079018D-05
  0.17381330D-04  0.74031767D-14 -0.26521251D-04 -0.17325301D-04 -0.96624160D-14
 -0.80597104D-15  0.29199833D-05 -0.27048342D-08 -0.83297780D-15  0.28984561D-05
  0.20456841D-04  0.32508909D-14 -0.11658406D-04 -0.20448726D-04 -0.11345453D-13
  0.34163515D-08  0.63920067D-08  0.11043972D-07  0.17903566D-07  0.27187993D-07
  0.37788114D-07  0.44924616D-07  0.40015392D-07  0.19864839D-07  0.32005438D-08
  0.49136873D-10  0.87807109D-11  0.32812147D-12  0.37976591D-07  0.70934819D-07
  0.12311082D-06  0.19975883D-06  0.30920294D-06  0.44259592D-06  0.57772592D-06
  0.61566337D-06  0.46022087D-06  0.24294242D-07 -0.31216895D-06 -0.18546422D-06
  0.69535179D-09  0.71264727D-09  0.13300535D-08  0.23115158D-08  0.37462872D-08
  0.58185705D-08  0.83352702D-08  0.11005948D-07  0.11900694D-07  0.93302984D-08
  0.46427256D-09 -0.79984247D-08 -0.82798524D-08  0.37467503D-08 -0.65381405D-07
  0.68289815D-07  0.15095838D-07 -0.32026084D-08 -0.42185541D-08 -0.46540534D-08
 -0.38657263D-08 -0.20531812D-08 -0.52957531D-09  0.54438542D-12  0.11519404D+02
  0.15173640D+02  0.16740079D+02  0.13904560D+02  0.73850497D+01  0.19048197D+01
 -0.19580899D-02 -0.41385210D-03 -0.54513609D-03 -0.60141281D-03 -0.49954247D-03
 -0.26531914D-03 -0.68433546D-04  0.70347359D-07  0.22370011D-11  0.29370184D-11
  0.33440116D-11  0.28315717D-11  0.16220333D-11  0.36895629D-12 -0.17269185D-12
 -0.80465618D-02 -0.10564546D-01 -0.12028513D-01 -0.10185250D-01 -0.58345036D-02
 -0.13271471D-02  0.62117790D-03  0.13780643D-05  0.18092974D-05  0.20600182D-05
  0.17443388D-05  0.99922441D-06  0.22728889D-06 -0.10638371D-06 -0.25473999D-10
  0.91626918D-01 -0.32012670D-05 -0.17051437D-13  0.61158498D-04 -0.22719239D-07
  0.14151314D-14 -0.51031389D-05 -0.24930888D-09  0.20724581D-05 -0.21302654D-05
  0.57807248D-07 -0.12241725D-14  0.47985891D-12 -0.17258142D-02 -0.32743532D-05
  0.32447935D-05  0.29559682D-07  0.18173289D-14 -0.36443977D-13  0.13109612D-03
  0.30788123D-05 -0.30786374D-05 -0.17486830D-09 -0.17167527D-14 -0.15049825D-14
  0.54824312D-05  0.27253134D-13 -0.98052163D-04 -0.34771141D-07  0.27271062D-13
 -0.97997129D-04  0.13736229D-04 -0.10903047D-12  0.39215362D-03 -0.13631915D-04
 -0.76296078D-14 -0.39180603D-14  0.14101148D-04  0.30432217D-09 -0.39189328D-14
  0.14088758D-04 -0.53960962D-05  0.15673114D-13 -0.56392201D-04  0.53951832D-05
  0.30147249D-14 -0.68798654D-05 -0.12408121D-04 -0.18295767D-04 -0.22524222D-03
 -0.50626471D-03 -0.77506660D-05 -0.58086312D-14  0.52723672D-04 -0.92148937D-04