 Molden2AIM, Version 4.0.0 (06/02/2016)           Time: Sat Jun 30 01:54:51 2018
GAUSSIAN             16 MOL ORBITALS    435 PRIMITIVES        9 NUCLEI
  C    1    (CENTRE  1) -10.29394291  3.63162653 -0.00862471  CHARGE =  6.0
  C    2    (CENTRE  2)  -8.20134713  5.57301210 -0.06043155  CHARGE =  6.0
  H    3    (CENTRE  3)  -9.62226622  1.68286159  0.21270946  CHARGE =  1.0
  H    4    (CENTRE  4) -11.37090350  3.78703005 -1.77339647  CHARGE =  1.0
  H    5    (CENTRE  5) -11.57848803  4.09778795  1.54941669  CHARGE =  1.0
  O    6    (CENTRE  6)  -8.62964222  7.83331730 -0.21743000  CHARGE =  8.0
  N    7    (CENTRE  7)  -5.80119275  4.64931586  0.07167353  CHARGE =  7.0
  H    8    (CENTRE  8)  -5.42650541  2.78994819  0.19575673  CHARGE =  1.0
  H    9    (CENTRE  9)  -4.35450347  5.88952800  0.03032444  CHARGE =  1.0
CENTRE ASSIGNMENTS    1  1  1  1  1  1  1  1  1  1  1  1  1  1  1  1  1  1  1  1
CENTRE ASSIGNMENTS    1  1  1  1  1  1  1  1  1  1  1  1  1  1  1  1  1  1  1  1
CENTRE ASSIGNMENTS    1  1  1  1  1  1  1  1  1  1  1  1  1  1  1  1  1  1  1  1
CENTRE ASSIGNMENTS    1  1  1  1  1  1  1  1  1  1  1  1  1  1  1  2  2  2  2  2
CENTRE ASSIGNMENTS    2  2  2  2  2  2  2  2  2  2  2  2  2  2  2  2  2  2  2  2
CENTRE ASSIGNMENTS    2  2  2  2  2  2  2  2  2  2  2  2  2  2  2  2  2  2  2  2
CENTRE ASSIGNMENTS    2  2  2  2  2  2  2  2  2  2  2  2  2  2  2  2  2  2  2  2
CENTRE ASSIGNMENTS    2  2  2  2  2  2  2  2  2  2  3  3  3  3  3  3  3  3  3  3
CENTRE ASSIGNMENTS    3  3  3  3  3  3  3  3  3  3  3  3  3  3  3  3  3  4  4  4
CENTRE ASSIGNMENTS    4  4  4  4  4  4  4  4  4  4  4  4  4  4  4  4  4  4  4  4
CENTRE ASSIGNMENTS    4  4  4  4  5  5  5  5  5  5  5  5  5  5  5  5  5  5  5  5
CENTRE ASSIGNMENTS    5  5  5  5  5  5  5  5  5  5  5  6  6  6  6  6  6  6  6  6
CENTRE ASSIGNMENTS    6  6  6  6  6  6  6  6  6  6  6  6  6  6  6  6  6  6  6  6
CENTRE ASSIGNMENTS    6  6  6  6  6  6  6  6  6  6  6  6  6  6  6  6  6  6  6  6
CENTRE ASSIGNMENTS    6  6  6  6  6  6  6  6  6  6  6  6  6  6  6  6  6  6  6  6
CENTRE ASSIGNMENTS    6  6  6  6  6  6  7  7  7  7  7  7  7  7  7  7  7  7  7  7
CENTRE ASSIGNMENTS    7  7  7  7  7  7  7  7  7  7  7  7  7  7  7  7  7  7  7  7
CENTRE ASSIGNMENTS    7  7  7  7  7  7  7  7  7  7  7  7  7  7  7  7  7  7  7  7
CENTRE ASSIGNMENTS    7  7  7  7  7  7  7  7  7  7  7  7  7  7  7  7  7  7  7  7
CENTRE ASSIGNMENTS    7  8  8  8  8  8  8  8  8  8  8  8  8  8  8  8  8  8  8  8
CENTRE ASSIGNMENTS    8  8  8  8  8  8  8  8  9  9  9  9  9  9  9  9  9  9  9  9
CENTRE ASSIGNMENTS    9  9  9  9  9  9  9  9  9  9  9  9  9  9  9
TYPE ASSIGNMENTS      1  1  1  1  1  1  1  1  1  1  1  1  1  1  1  1  1  1  1  2
TYPE ASSIGNMENTS      2  2  3  3  3  4  4  4  2  3  4  2  3  4  2  3  4  5  6  7
TYPE ASSIGNMENTS      8  9 10  5  6  7  8  9 10  5  6  7  8  9 10 11 12 13 17 14
TYPE ASSIGNMENTS     15 18 19 16 20 11 12 13 17 14 15 18 19 16 20  1  1  1  1  1
TYPE ASSIGNMENTS      1  1  1  1  1  1  1  1  1  1  1  1  1  1  2  2  2  3  3  3
TYPE ASSIGNMENTS      4  4  4  2  3  4  2  3  4  2  3  4  5  6  7  8  9 10  5  6
TYPE ASSIGNMENTS      7  8  9 10  5  6  7  8  9 10 11 12 13 17 14 15 18 19 16 20
TYPE ASSIGNMENTS     11 12 13 17 14 15 18 19 16 20  1  1  1  1  1  1  2  3  4  2
TYPE ASSIGNMENTS      3  4  2  3  4  5  6  7  8  9 10  5  6  7  8  9 10  1  1  1
TYPE ASSIGNMENTS      1  1  1  2  3  4  2  3  4  2  3  4  5  6  7  8  9 10  5  6
TYPE ASSIGNMENTS      7  8  9 10  1  1  1  1  1  1  2  3  4  2  3  4  2  3  4  5
TYPE ASSIGNMENTS      6  7  8  9 10  5  6  7  8  9 10  1  1  1  1  1  1  1  1  1
TYPE ASSIGNMENTS      1  1  1  1  1  1  1  1  1  1  2  2  2  3  3  3  4  4  4  2
TYPE ASSIGNMENTS      3  4  2  3  4  2  3  4  5  6  7  8  9 10  5  6  7  8  9 10
TYPE ASSIGNMENTS      5  6  7  8  9 10 11 12 13 17 14 15 18 19 16 20 11 12 13 17
TYPE ASSIGNMENTS     14 15 18 19 16 20  1  1  1  1  1  1  1  1  1  1  1  1  1  1
TYPE ASSIGNMENTS      1  1  1  1  1  2  2  2  3  3  3  4  4  4  2  3  4  2  3  4
TYPE ASSIGNMENTS      2  3  4  5  6  7  8  9 10  5  6  7  8  9 10  5  6  7  8  9
TYPE ASSIGNMENTS     10 11 12 13 17 14 15 18 19 16 20 11 12 13 17 14 15 18 19 16
TYPE ASSIGNMENTS     20  1  1  1  1  1  1  2  3  4  2  3  4  2  3  4  5  6  7  8
TYPE ASSIGNMENTS      9 10  5  6  7  8  9 10  1  1  1  1  1  1  2  3  4  2  3  4
TYPE ASSIGNMENTS      2  3  4  5  6  7  8  9 10  5  6  7  8  9 10
EXPONENTS  0.8236000D+04 0.1235000D+04 0.2808000D+03 0.7927000D+02 0.2559000D+02
EXPONENTS  0.8997000D+01 0.3319000D+01 0.3643000D+00 0.8236000D+04 0.1235000D+04
EXPONENTS  0.2808000D+03 0.7927000D+02 0.2559000D+02 0.8997000D+01 0.3319000D+01
EXPONENTS  0.3643000D+00 0.9059000D+00 0.1285000D+00 0.4402000D-01 0.1871000D+02
EXPONENTS  0.4133000D+01 0.1200000D+01 0.1871000D+02 0.4133000D+01 0.1200000D+01
EXPONENTS  0.1871000D+02 0.4133000D+01 0.1200000D+01 0.3827000D+00 0.3827000D+00
EXPONENTS  0.3827000D+00 0.1209000D+00 0.1209000D+00 0.1209000D+00 0.3569000D-01
EXPONENTS  0.3569000D-01 0.3569000D-01 0.1097000D+01 0.1097000D+01 0.1097000D+01
EXPONENTS  0.1097000D+01 0.1097000D+01 0.1097000D+01 0.3180000D+00 0.3180000D+00
EXPONENTS  0.3180000D+00 0.3180000D+00 0.3180000D+00 0.3180000D+00 0.1000000D+00
EXPONENTS  0.1000000D+00 0.1000000D+00 0.1000000D+00 0.1000000D+00 0.1000000D+00
EXPONENTS  0.7610000D+00 0.7610000D+00 0.7610000D+00 0.7610000D+00 0.7610000D+00
EXPONENTS  0.7610000D+00 0.7610000D+00 0.7610000D+00 0.7610000D+00 0.7610000D+00
EXPONENTS  0.2680000D+00 0.2680000D+00 0.2680000D+00 0.2680000D+00 0.2680000D+00
EXPONENTS  0.2680000D+00 0.2680000D+00 0.2680000D+00 0.2680000D+00 0.2680000D+00
EXPONENTS  0.8236000D+04 0.1235000D+04 0.2808000D+03 0.7927000D+02 0.2559000D+02
EXPONENTS  0.8997000D+01 0.3319000D+01 0.3643000D+00 0.8236000D+04 0.1235000D+04
EXPONENTS  0.2808000D+03 0.7927000D+02 0.2559000D+02 0.8997000D+01 0.3319000D+01
EXPONENTS  0.3643000D+00 0.9059000D+00 0.1285000D+00 0.4402000D-01 0.1871000D+02
EXPONENTS  0.4133000D+01 0.1200000D+01 0.1871000D+02 0.4133000D+01 0.1200000D+01
EXPONENTS  0.1871000D+02 0.4133000D+01 0.1200000D+01 0.3827000D+00 0.3827000D+00
EXPONENTS  0.3827000D+00 0.1209000D+00 0.1209000D+00 0.1209000D+00 0.3569000D-01
EXPONENTS  0.3569000D-01 0.3569000D-01 0.1097000D+01 0.1097000D+01 0.1097000D+01
EXPONENTS  0.1097000D+01 0.1097000D+01 0.1097000D+01 0.3180000D+00 0.3180000D+00
EXPONENTS  0.3180000D+00 0.3180000D+00 0.3180000D+00 0.3180000D+00 0.1000000D+00
EXPONENTS  0.1000000D+00 0.1000000D+00 0.1000000D+00 0.1000000D+00 0.1000000D+00
EXPONENTS  0.7610000D+00 0.7610000D+00 0.7610000D+00 0.7610000D+00 0.7610000D+00
EXPONENTS  0.7610000D+00 0.7610000D+00 0.7610000D+00 0.7610000D+00 0.7610000D+00
EXPONENTS  0.2680000D+00 0.2680000D+00 0.2680000D+00 0.2680000D+00 0.2680000D+00
EXPONENTS  0.2680000D+00 0.2680000D+00 0.2680000D+00 0.2680000D+00 0.2680000D+00
EXPONENTS  0.3387000D+02 0.5095000D+01 0.1159000D+01 0.3258000D+00 0.1027000D+00
EXPONENTS  0.2526000D-01 0.1407000D+01 0.1407000D+01 0.1407000D+01 0.3880000D+00
EXPONENTS  0.3880000D+00 0.3880000D+00 0.1020000D+00 0.1020000D+00 0.1020000D+00
EXPONENTS  0.1057000D+01 0.1057000D+01 0.1057000D+01 0.1057000D+01 0.1057000D+01
EXPONENTS  0.1057000D+01 0.2470000D+00 0.2470000D+00 0.2470000D+00 0.2470000D+00
EXPONENTS  0.2470000D+00 0.2470000D+00 0.3387000D+02 0.5095000D+01 0.1159000D+01
EXPONENTS  0.3258000D+00 0.1027000D+00 0.2526000D-01 0.1407000D+01 0.1407000D+01
EXPONENTS  0.1407000D+01 0.3880000D+00 0.3880000D+00 0.3880000D+00 0.1020000D+00
EXPONENTS  0.1020000D+00 0.1020000D+00 0.1057000D+01 0.1057000D+01 0.1057000D+01
EXPONENTS  0.1057000D+01 0.1057000D+01 0.1057000D+01 0.2470000D+00 0.2470000D+00
EXPONENTS  0.2470000D+00 0.2470000D+00 0.2470000D+00 0.2470000D+00 0.3387000D+02
EXPONENTS  0.5095000D+01 0.1159000D+01 0.3258000D+00 0.1027000D+00 0.2526000D-01
EXPONENTS  0.1407000D+01 0.1407000D+01 0.1407000D+01 0.3880000D+00 0.3880000D+00
EXPONENTS  0.3880000D+00 0.1020000D+00 0.1020000D+00 0.1020000D+00 0.1057000D+01
EXPONENTS  0.1057000D+01 0.1057000D+01 0.1057000D+01 0.1057000D+01 0.1057000D+01
EXPONENTS  0.2470000D+00 0.2470000D+00 0.2470000D+00 0.2470000D+00 0.2470000D+00
EXPONENTS  0.2470000D+00 0.1533000D+05 0.2299000D+04 0.5224000D+03 0.1473000D+03
EXPONENTS  0.4755000D+02 0.1676000D+02 0.6207000D+01 0.6882000D+00 0.1533000D+05
EXPONENTS  0.2299000D+04 0.5224000D+03 0.1473000D+03 0.4755000D+02 0.1676000D+02
EXPONENTS  0.6207000D+01 0.6882000D+00 0.1752000D+01 0.2384000D+00 0.7376000D-01
EXPONENTS  0.3446000D+02 0.7749000D+01 0.2280000D+01 0.3446000D+02 0.7749000D+01
EXPONENTS  0.2280000D+01 0.3446000D+02 0.7749000D+01 0.2280000D+01 0.7156000D+00
EXPONENTS  0.7156000D+00 0.7156000D+00 0.2140000D+00 0.2140000D+00 0.2140000D+00
EXPONENTS  0.5974000D-01 0.5974000D-01 0.5974000D-01 0.2314000D+01 0.2314000D+01
EXPONENTS  0.2314000D+01 0.2314000D+01 0.2314000D+01 0.2314000D+01 0.6450000D+00
EXPONENTS  0.6450000D+00 0.6450000D+00 0.6450000D+00 0.6450000D+00 0.6450000D+00
EXPONENTS  0.2140000D+00 0.2140000D+00 0.2140000D+00 0.2140000D+00 0.2140000D+00
EXPONENTS  0.2140000D+00 0.1428000D+01 0.1428000D+01 0.1428000D+01 0.1428000D+01
EXPONENTS  0.1428000D+01 0.1428000D+01 0.1428000D+01 0.1428000D+01 0.1428000D+01
EXPONENTS  0.1428000D+01 0.5000000D+00 0.5000000D+00 0.5000000D+00 0.5000000D+00
EXPONENTS  0.5000000D+00 0.5000000D+00 0.5000000D+00 0.5000000D+00 0.5000000D+00
EXPONENTS  0.5000000D+00 0.1142000D+05 0.1712000D+04 0.3893000D+03 0.1100000D+03
EXPONENTS  0.3557000D+02 0.1254000D+02 0.4644000D+01 0.5118000D+00 0.1142000D+05
EXPONENTS  0.1712000D+04 0.3893000D+03 0.1100000D+03 0.3557000D+02 0.1254000D+02
EXPONENTS  0.4644000D+01 0.5118000D+00 0.1293000D+01 0.1787000D+00 0.5760000D-01
EXPONENTS  0.2663000D+02 0.5948000D+01 0.1742000D+01 0.2663000D+02 0.5948000D+01
EXPONENTS  0.1742000D+01 0.2663000D+02 0.5948000D+01 0.1742000D+01 0.5550000D+00
EXPONENTS  0.5550000D+00 0.5550000D+00 0.1725000D+00 0.1725000D+00 0.1725000D+00
EXPONENTS  0.4910000D-01 0.4910000D-01 0.4910000D-01 0.1654000D+01 0.1654000D+01
EXPONENTS  0.1654000D+01 0.1654000D+01 0.1654000D+01 0.1654000D+01 0.4690000D+00
EXPONENTS  0.4690000D+00 0.4690000D+00 0.4690000D+00 0.4690000D+00 0.4690000D+00
EXPONENTS  0.1510000D+00 0.1510000D+00 0.1510000D+00 0.1510000D+00 0.1510000D+00
EXPONENTS  0.1510000D+00 0.1093000D+01 0.1093000D+01 0.1093000D+01 0.1093000D+01
EXPONENTS  0.1093000D+01 0.1093000D+01 0.1093000D+01 0.1093000D+01 0.1093000D+01
EXPONENTS  0.1093000D+01 0.3640000D+00 0.3640000D+00 0.3640000D+00 0.3640000D+00
EXPONENTS  0.3640000D+00 0.3640000D+00 0.3640000D+00 0.3640000D+00 0.3640000D+00
EXPONENTS  0.3640000D+00 0.3387000D+02 0.5095000D+01 0.1159000D+01 0.3258000D+00
EXPONENTS  0.1027000D+00 0.2526000D-01 0.1407000D+01 0.1407000D+01 0.1407000D+01
EXPONENTS  0.3880000D+00 0.3880000D+00 0.3880000D+00 0.1020000D+00 0.1020000D+00
EXPONENTS  0.1020000D+00 0.1057000D+01 0.1057000D+01 0.1057000D+01 0.1057000D+01
EXPONENTS  0.1057000D+01 0.1057000D+01 0.2470000D+00 0.2470000D+00 0.2470000D+00
EXPONENTS  0.2470000D+00 0.2470000D+00 0.2470000D+00 0.3387000D+02 0.5095000D+01
EXPONENTS  0.1159000D+01 0.3258000D+00 0.1027000D+00 0.2526000D-01 0.1407000D+01
EXPONENTS  0.1407000D+01 0.1407000D+01 0.3880000D+00 0.3880000D+00 0.3880000D+00
EXPONENTS  0.1020000D+00 0.1020000D+00 0.1020000D+00 0.1057000D+01 0.1057000D+01
EXPONENTS  0.1057000D+01 0.1057000D+01 0.1057000D+01 0.1057000D+01 0.2470000D+00
EXPONENTS  0.2470000D+00 0.2470000D+00 0.2470000D+00 0.2470000D+00 0.2470000D+00
MO    1     MO 0.0        OCC NO =    2.0000000  ORB. ENERGY =  -18.912734
  0.29338331D-03  0.54693320D-03  0.92441345D-03  0.13896962D-02  0.17074024D-02
  0.14421743D-02  0.54393507D-03 -0.26919650D-05 -0.21592242D-03 -0.40427490D-03
 -0.68831262D-03 -0.10647150D-02 -0.14021921D-02 -0.14569675D-02 -0.92583741D-03
  0.62047470D-03  0.60938771D-03 -0.53890802D-02  0.12141578D-03 -0.17720976D-03
 -0.16614541D-03 -0.11830543D-03 -0.27760161D-03 -0.26026916D-03 -0.18532714D-03
  0.14192162D-04  0.13306054D-04  0.94747029D-05  0.90188370D-03  0.14461058D-02
 -0.70494730D-04 -0.62923880D-03 -0.60348432D-03  0.42394844D-04  0.79067262D-05
 -0.22496928D-05  0.88385656D-06 -0.11420818D-04  0.22967141D-03 -0.21825060D-03
  0.23324881D-03 -0.30760987D-05 -0.40553543D-04  0.34868911D-03 -0.21455434D-03
 -0.13413477D-03  0.14524725D-02 -0.71028099D-04  0.65425391D-04  0.60255427D-04
 -0.11167587D-03  0.51420440D-04 -0.44230562D-04 -0.15704696D-05  0.32867097D-04
 -0.47027244D-05 -0.44346415D-04  0.34527370D-04 -0.15953529D-03  0.37995293D-03
 -0.45083151D-04  0.17364346D-03 -0.24691368D-03 -0.58498960D-04  0.14603913D-03
 -0.54395125D-04 -0.51521595D-04  0.36300673D-04 -0.17345099D-03  0.34571533D-03
 -0.58695197D-04  0.33663637D-03 -0.19115054D-03 -0.50206822D-04  0.15356899D-03
  0.53540918D-03  0.99812445D-03  0.16870061D-02  0.25361228D-02  0.31159199D-02
  0.26318925D-02  0.99265302D-03 -0.49126952D-05 -0.40770384D-03 -0.76335023D-03
 -0.12996691D-02 -0.20103905D-02 -0.26476135D-02 -0.27510400D-02 -0.17481624D-02
  0.11715778D-02  0.12057033D-02  0.13575749D-02 -0.26881450D-03 -0.28886928D-03
 -0.27083331D-03 -0.19284945D-03  0.71687444D-03  0.67211536D-03  0.47858617D-03
 -0.53618942D-04 -0.50271166D-04 -0.35796065D-04 -0.16705619D-03  0.30230736D-02
 -0.20096861D-03 -0.54349190D-03 -0.87189832D-03  0.24389746D-04  0.29803296D-04
  0.15899526D-04  0.10645632D-06 -0.65122514D-03  0.10327479D-02 -0.38152279D-03
 -0.56125194D-03  0.16917067D-04 -0.20418412D-03  0.42897003D-03 -0.77899289D-03
  0.35002287D-03  0.10460057D-02 -0.57168990D-04  0.18983541D-03  0.28747075D-03
 -0.29745623D-03  0.99854783D-05  0.33470406D-03 -0.18712607D-05  0.50918094D-04
 -0.64816667D-04 -0.40124026D-03 -0.12983653D-04  0.38069311D-03  0.11375338D-02
 -0.64467548D-04 -0.18624311D-03  0.66187042D-04  0.10341851D-03 -0.13290382D-04
 -0.14937820D-03 -0.38831494D-03 -0.15436316D-04  0.52976468D-03  0.98790771D-03
 -0.66107665D-04 -0.81630084D-04  0.17703712D-03  0.11241661D-03 -0.29032837D-04
  0.66482802D-05  0.11990447D-04  0.17679907D-04  0.21318063D-02  0.15929153D-02
 -0.43700666D-05 -0.10193696D-03  0.18006372D-03 -0.20409658D-04  0.41099589D-03
  0.11791052D-02 -0.91680112D-04 -0.11726287D-03  0.24309049D-03 -0.22097894D-04
 -0.21488442D-03  0.32352638D-03 -0.10864196D-03  0.25185637D-03 -0.51656747D-04
 -0.83812020D-04 -0.21684907D-04  0.40936791D-04 -0.19251884D-04 -0.32399133D-04
 -0.26761938D-05 -0.16576238D-04 -0.17420714D-04 -0.31418976D-04 -0.46327261D-04
  0.17237627D-02 -0.49488514D-03  0.16232362D-04 -0.22810435D-05 -0.30262997D-04
  0.20200743D-03  0.61251457D-03  0.17468801D-03  0.30245306D-03  0.97690921D-05
  0.36142352D-04 -0.29860871D-04  0.19848075D-04  0.31551503D-04 -0.51399578D-04
  0.24461795D-03  0.34772257D-03  0.71727574D-05  0.12189935D-04  0.11304119D-04
 -0.23494055D-04  0.70357088D-04  0.60902638D-04  0.17144232D-04 -0.17306963D-04
 -0.31213820D-04 -0.46024760D-04  0.16737397D-02 -0.65911181D-03  0.14717675D-04
  0.22780501D-04 -0.43545373D-04 -0.19123493D-03  0.68824023D-03  0.13772953D-03
 -0.21682110D-03 -0.96863237D-05  0.38951431D-04  0.39346118D-04  0.83004299D-04
  0.24332279D-04 -0.10733658D-03  0.19949504D-03 -0.35718086D-03 -0.40156465D-04
  0.19819859D-04  0.84330279D-05 -0.28252887D-04  0.55233900D-04 -0.71122514D-04
 -0.26959231D-04  0.49799066D+00  0.92819051D+00  0.15739036D+01  0.23821763D+01
  0.29722605D+01  0.25527754D+01  0.98006012D+00 -0.43838691D-02 -0.58856842D-03
 -0.11038746D-02 -0.18818643D-02 -0.29409876D-02 -0.39326608D-02 -0.41991648D-02
 -0.25672870D-02  0.16937401D-02  0.53738669D-01  0.14518626D-02  0.10061706D-02
  0.18331246D-02  0.17775142D-02  0.11991006D-02 -0.78298855D-02 -0.75923551D-02
 -0.51217579D-02  0.55492437D-03  0.53808998D-03  0.36299232D-03 -0.11763360D-03
 -0.65775091D-04 -0.33245585D-05 -0.26420668D-03  0.16410082D-02 -0.11317073D-03
 -0.19500342D-04 -0.44878723D-04  0.17235173D-05  0.18275664D-03  0.24292568D-02
 -0.26120135D-02 -0.11335574D-02  0.24125805D-03 -0.68732234D-03  0.93577516D-04
 -0.97932715D-03  0.88574963D-03  0.61758992D-03 -0.90518571D-04  0.26492055D-03
  0.78674131D-04 -0.38896902D-03  0.31029489D-03  0.15617334D-03 -0.24094493D-04
  0.94537193D-04  0.27053555D-04 -0.48072417D-04 -0.22213231D-04 -0.39493015D-04
 -0.16815200D-03  0.24912688D-04 -0.41667649D-04  0.31236925D-03  0.41727005D-04
 -0.33137202D-04  0.15862750D-04  0.23303770D-03  0.48241278D-04 -0.18075947D-03
 -0.31532663D-04 -0.70287357D-05  0.13317121D-03 -0.66758045D-03 -0.13769510D-03
  0.82019680D-04  0.17680345D-03  0.32944719D-03  0.55717779D-03  0.83907888D-03
  0.10388341D-02  0.88400092D-03  0.33637866D-03 -0.15754048D-05 -0.12248572D-03
 -0.22966186D-03 -0.39072316D-03 -0.60675182D-03 -0.80519495D-03 -0.84856495D-03
 -0.52616440D-03  0.35000476D-03  0.88666640D-04  0.18355091D-03 -0.13004531D-03
  0.42716917D-03  0.41029088D-03  0.28772429D-03 -0.18710278D-03 -0.17970999D-03
 -0.12602505D-03  0.26495925D-04  0.25449019D-04  0.17846609D-04 -0.15270902D-02
  0.85350150D-03 -0.10194799D-03  0.31274885D-03 -0.30281635D-03  0.29521458D-04
  0.28846427D-04 -0.15018747D-04  0.16116636D-05 -0.99663778D-04  0.24123276D-03
 -0.14156898D-03 -0.82230847D-03  0.56830006D-04 -0.75303001D-04  0.61753316D-03
 -0.84758226D-03  0.23004910D-03  0.12441582D-04  0.30297560D-04  0.13956343D-03
  0.14868836D-03 -0.10824323D-03 -0.40445134D-04  0.23699272D-03 -0.57397381D-05
  0.15582803D-04  0.27353723D-04  0.27630402D-03  0.24044682D-04 -0.43481380D-03
 -0.62262696D-03  0.11859617D-04  0.35275264D-03 -0.20628509D-03 -0.83993662D-04
  0.73492367D-04 -0.27224984D-03 -0.83308414D-04 -0.16662869D-04  0.10781846D-02
  0.12992503D-03 -0.11641791D-04 -0.26143511D-03  0.12000021D-03  0.61630400D-04
 -0.15926037D-03 -0.23701146D-04 -0.42745992D-04 -0.63028941D-04  0.75961037D-04
  0.11960182D-02  0.44452822D-05 -0.27237404D-03  0.46020420D-03 -0.37901437D-04
 -0.96192554D-03  0.42246563D-03 -0.49752667D-04 -0.19272224D-03  0.17919782D-03
 -0.14143238D-04  0.13801051D-04  0.28087326D-03 -0.29467431D-03 -0.75775487D-03
  0.66638711D-04 -0.89848429D-04  0.95415857D-06  0.46489348D-04 -0.47443506D-04
 -0.20265266D-03  0.13333311D-04 -0.15733484D-04 -0.69033710D-04 -0.12450514D-03
 -0.18358275D-03 -0.50452868D-03 -0.14076916D-02 -0.24453482D-04 -0.14630544D-03
 -0.70883479D-05 -0.42407553D-05 -0.71864245D-04 -0.46965917D-03  0.15813222D-04
  0.20497469D-03  0.62047198D-04  0.15691583D-07  0.23128625D-03  0.12657012D-03
 -0.35785638D-03  0.17334595D-03  0.24326374D-04 -0.49654595D-04 -0.43248191D-04
  0.78539670D-04 -0.35291480D-04  0.15054065D-03 -0.70962527D-05 -0.90253638D-05
MO    2     MO 0.0        OCC NO =    2.0000000  ORB. ENERGY =  -14.182063
  0.40392106D-04  0.75300070D-04  0.12727038D-03  0.19132907D-03  0.23506987D-03
  0.19855409D-03  0.74887297D-04 -0.37062141D-06 -0.27846640D-04 -0.52137697D-04
 -0.88768890D-04 -0.13731198D-03 -0.18083504D-03 -0.18789919D-03 -0.11940150D-03
  0.80020109D-04 -0.11293883D-03 -0.35810510D-03  0.47871888D-03 -0.11357855D-03
 -0.10648711D-03 -0.75825165D-04  0.13670133D-04  0.12816618D-04  0.91261959D-05
  0.30150820D-06  0.28268311D-06  0.20128721D-06  0.10659505D-02  0.13471688D-03
  0.14891326D-04  0.75959450D-04 -0.25098447D-03  0.23502290D-04  0.19885715D-04
  0.12223811D-04  0.10351219D-05  0.47773398D-03 -0.19298046D-03 -0.28475352D-03
  0.23078713D-03  0.40946900D-04 -0.27005846D-05 -0.59489956D-03  0.94386819D-03
 -0.34896863D-03  0.52874219D-03  0.21723266D-05 -0.20909306D-03  0.14874762D-04
  0.16000461D-04 -0.30875223D-04  0.10339703D-04 -0.63745831D-05 -0.12349579D-04
 -0.13981400D-03 -0.16401480D-04  0.17686619D-04  0.24819145D-03  0.15064780D-03
 -0.52075201D-04  0.17125054D-03 -0.10144336D-03 -0.98465570D-06  0.58893381D-04
 -0.16633961D-03 -0.89645667D-04  0.13657083D-05  0.32311390D-03  0.12338518D-03
 -0.59404926D-04  0.17590492D-03  0.14555182D-03  0.55307801D-04  0.10996906D-04
  0.41296001D-03  0.76985134D-03  0.13011844D-02  0.19561064D-02  0.24033027D-02
  0.20299733D-02  0.76563124D-03 -0.37891517D-05 -0.31925002D-03 -0.59773676D-03
 -0.10176980D-02 -0.15742240D-02 -0.20731977D-02 -0.21541852D-02 -0.13688880D-02
  0.91739689D-03  0.13692934D-02 -0.19812236D-02 -0.10521816D-02  0.86524559D-03
  0.81122274D-03  0.57763892D-03 -0.35869916D-03 -0.33630326D-03 -0.23946795D-03
  0.48427379D-04  0.45403746D-04  0.32330172D-04  0.11421454D-02 -0.16433630D-03
  0.46077240D-04 -0.85169687D-03 -0.11531666D-03  0.16625150D-05  0.22385031D-04
  0.26997252D-04 -0.99886425D-06  0.34120970D-03 -0.19304048D-03 -0.14816922D-03
 -0.47929654D-04  0.35892761D-04  0.50706288D-05 -0.77887319D-03  0.21671528D-03
  0.56215791D-03 -0.29934792D-03 -0.62100575D-04  0.37826693D-04  0.36595931D-04
 -0.72145672D-04  0.35549741D-04  0.25753760D-03 -0.19691251D-04  0.21330938D-04
 -0.39381455D-03 -0.26495667D-03  0.38518122D-04  0.59634066D-03  0.11337239D-02
 -0.14377115D-03  0.58510299D-03 -0.33885388D-03  0.28216778D-04  0.90104363D-04
 -0.46454766D-04 -0.17699606D-03  0.51689102D-05 -0.11756661D-03  0.50457978D-03
 -0.51926498D-04  0.25693091D-03  0.26408397D-04  0.36419767D-04  0.69350996D-04
 -0.38157527D-04 -0.68818671D-04 -0.10147309D-03 -0.16742268D-02  0.14794262D-03
 -0.10770704D-04  0.16390351D-03 -0.14310942D-03  0.80911624D-05  0.55009479D-03
 -0.23884876D-03  0.97753422D-04  0.10854712D-03  0.10409722D-03 -0.42013833D-05
 -0.46820394D-04  0.11082219D-03 -0.64001797D-04  0.51005033D-03 -0.57040754D-04
  0.19469923D-04  0.13553032D-04  0.14861644D-04 -0.28414676D-04  0.49167735D-04
  0.30631489D-05 -0.19739386D-06  0.36599913D-05  0.66009450D-05  0.97330896D-05
  0.76206687D-03 -0.94513138D-04  0.16020322D-04 -0.86867047D-04 -0.26935649D-04
  0.85031261D-04  0.30061335D-03 -0.20546767D-03  0.37201201D-03  0.83222881D-05
  0.11222879D-04 -0.10186614D-04 -0.76463970D-04 -0.52573894D-04  0.12903786D-03
 -0.14230606D-03  0.13117381D-03 -0.64492702D-04 -0.24005812D-04  0.23067072D-04
  0.93873990D-06 -0.11123849D-05  0.10177629D-03  0.23779147D-04  0.62736278D-05
  0.11314746D-04  0.16683587D-04  0.87558423D-03 -0.17704540D-03  0.12514280D-04
 -0.56310151D-04 -0.51307627D-04 -0.83726261D-04  0.35903248D-03 -0.22229175D-03
 -0.37192490D-03  0.70385638D-05  0.25214509D-04  0.13233601D-04 -0.75798573D-04
 -0.30311413D-04  0.10610999D-03 -0.16592048D-03 -0.18054744D-03  0.64359408D-04
 -0.17592442D-04  0.17981004D-04 -0.38856130D-06 -0.23587513D-04 -0.11255835D-03
 -0.37610697D-04  0.20303296D-03  0.37842731D-03  0.64168734D-03  0.97122368D-03
  0.12118036D-02  0.10407777D-02  0.39957478D-03 -0.17873225D-05 -0.14266285D-03
 -0.26756772D-03 -0.45614430D-03 -0.71286475D-03 -0.95323600D-03 -0.10178338D-02
 -0.62228363D-03  0.41054495D-03 -0.13423546D-04  0.95550384D-03  0.64647390D-03
 -0.24577784D-03 -0.23832183D-03 -0.16077050D-03  0.46838937D-04  0.45418014D-04
  0.30638724D-04 -0.10792447D-04 -0.10465044D-04 -0.70596566D-05  0.45664765D-03
 -0.45777275D-03  0.43184625D-04  0.28592324D-03  0.15966404D-03 -0.14395309D-04
 -0.39765601D-04 -0.35856303D-04  0.53703281D-06  0.15845151D-03  0.29212803D-03
 -0.45057954D-03 -0.68911388D-03  0.74741057D-04 -0.12924495D-03 -0.14331897D-03
  0.33879226D-04  0.10943975D-03  0.86688375D-04 -0.17992596D-04  0.20496543D-04
  0.16222187D-04 -0.84212047D-04  0.67989859D-04 -0.42891036D-04  0.14758283D-05
  0.22700404D-04 -0.11618414D-03  0.72972479D-05 -0.40151358D-05  0.19256334D-03
 -0.15064749D-03 -0.11401359D-04  0.15598907D-03  0.12875575D-03  0.23446766D-04
 -0.10735123D-04  0.43462083D-04 -0.29099972D-04  0.10964551D-04 -0.12712683D-03
  0.24738209D-03 -0.10537449D-04 -0.32594194D-05 -0.16008217D-03 -0.22356205D-04
  0.35507535D-04  0.41355902D+00  0.77060633D+00  0.13032885D+01  0.19626803D+01
  0.24299255D+01  0.20677569D+01  0.78681965D+00 -0.36850121D-02 -0.23674759D-02
 -0.44390394D-02 -0.75521267D-02 -0.11727655D-01 -0.15563281D-01 -0.16401562D-01
 -0.10170015D-01  0.67650976D-02  0.41489796D-01  0.51273039D-02  0.98750188D-03
 -0.38030601D-03 -0.36527937D-03 -0.25615911D-03 -0.38750937D-04 -0.37219811D-04
 -0.26101101D-04 -0.28029356D-04 -0.26921862D-04 -0.18879468D-04  0.24016961D-02
 -0.87307281D-03  0.10051682D-03 -0.12207108D-03 -0.32146029D-03  0.19197831D-04
 -0.11133056D-03  0.21093512D-04 -0.43492260D-05  0.13074258D-02  0.28651877D-02
 -0.41726135D-02  0.12409305D-02  0.21800932D-03 -0.85842611D-03 -0.53349338D-03
  0.91551095D-03 -0.38201757D-03  0.86127921D-03 -0.60338714D-04 -0.13468722D-03
 -0.14707111D-03  0.45268586D-04  0.10180252D-03  0.21468610D-03 -0.28214252D-04
  0.12772644D-04 -0.81195064D-03 -0.21726067D-02 -0.78442537D-04  0.42752814D-02
  0.59475928D-02 -0.35001317D-03 -0.18394295D-02  0.57022732D-03  0.58534078D-03
 -0.48908654D-03  0.27071967D-03  0.36636693D-03  0.36060423D-05 -0.93278281D-03
 -0.10671986D-02  0.85907501D-04  0.12062381D-03 -0.31902178D-04 -0.96725628D-04
  0.77852915D-04  0.21206435D-03  0.38246679D-03  0.56394706D-03 -0.23901973D-02
 -0.86147260D-03  0.17450094D-05  0.41808132D-03 -0.25526714D-02  0.17196104D-03
  0.11324752D-02 -0.28931350D-02  0.20544334D-03  0.28916666D-03 -0.16922390D-03
  0.17415113D-04  0.12687663D-02 -0.33083198D-02  0.20395535D-02  0.22028325D-02
 -0.17754011D-03  0.72055219D-03  0.12277748D-04 -0.17795192D-03  0.16567417D-03
  0.23648926D-03 -0.21462152D-04  0.48486433D-04  0.21285128D-03  0.38388605D-03
  0.56603975D-03 -0.19589660D-02 -0.13666177D-02  0.24482080D-05  0.18240354D-02
  0.16785930D-02 -0.57751377D-04  0.23149169D-02  0.17722178D-02 -0.56553192D-04
  0.39943963D-03  0.10194619D-03  0.49793206D-05 -0.14426232D-02 -0.64372456D-03
  0.20863477D-02 -0.48344346D-02  0.12569720D-03  0.22313359D-03 -0.14837132D-03
 -0.12837938D-04  0.16120926D-03 -0.32607194D-03  0.53722964D-05  0.14464208D-04
MO    3     MO 0.0        OCC NO =    2.0000000  ORB. ENERGY =  -10.135280
  0.36401979D-03  0.67861566D-03  0.11469800D-02  0.17242867D-02  0.21184854D-02
  0.17893996D-02  0.67489568D-03 -0.33400964D-05 -0.74958531D-04 -0.14034602D-03
 -0.23895111D-03 -0.36962103D-03 -0.48677790D-03 -0.50579342D-03 -0.32140901D-03
  0.21540084D-03  0.49867136D-03 -0.29881307D-02  0.52041761D-03  0.47657196D-03
  0.44681651D-03  0.31815997D-03  0.48551658D-03  0.45520265D-03  0.32413141D-03
 -0.30761359D-05 -0.28840729D-05 -0.20536318D-05  0.11433879D-02  0.39409148D-03
 -0.24986920D-05 -0.10237577D-02 -0.13935670D-02  0.71625035D-04  0.21852103D-04
  0.31036488D-04 -0.24961935D-05  0.49425496D-03 -0.66712216D-04 -0.42754275D-03
  0.57309540D-03  0.44079881D-04 -0.13436437D-04 -0.88854051D-03  0.38240272D-03
  0.50613779D-03 -0.14770420D-02  0.35666773D-04 -0.10430405D-03  0.11568584D-03
 -0.20347656D-03  0.87790711D-04 -0.19388257D-03  0.10036100D-05  0.47726907D-04
  0.22534685D-03  0.24765297D-03 -0.24141841D-04 -0.12089578D-02 -0.13612524D-02
  0.68212573D-04  0.53291722D-03  0.61829345D-03  0.42129512D-05  0.80816530D-04
 -0.17454410D-03 -0.20883358D-03 -0.62334497D-04  0.23004456D-03 -0.18643421D-03
 -0.17079692D-04  0.29358774D-03  0.81293496D-03  0.20408318D-03 -0.10433766D-03
  0.33098733D+00  0.61703564D+00  0.10428989D+01  0.15678187D+01  0.19262464D+01
  0.16270230D+01  0.61365323D+00 -0.30370041D-02 -0.37699959D-02 -0.70586218D-02
 -0.12017907D-01 -0.18589876D-01 -0.24482212D-01 -0.25438587D-01 -0.16165080D-01
  0.10833461D-01  0.33334463D-01  0.43796429D-02 -0.98414264D-04  0.99764785D-03
  0.93535827D-03  0.66603081D-03  0.11521240D-03  0.10801895D-03  0.76915929D-04
  0.32833524D-04  0.30783516D-04  0.21919697D-04  0.10894458D-02  0.43487129D-02
 -0.26810391D-03 -0.24795823D-02 -0.18868286D-02  0.20151858D-04  0.13277311D-03
 -0.30632550D-05  0.43238990D-05  0.10202797D-02  0.37669909D-02 -0.47872706D-02
 -0.23144295D-02  0.52478088D-03 -0.11491459D-02 -0.22018776D-03  0.23365936D-03
 -0.13471606D-04 -0.95332547D-03  0.30255462D-04 -0.80367060D-04  0.45290269D-03
 -0.50945580D-03  0.56553114D-04  0.72424747D-03 -0.21621171D-04  0.96083722D-04
  0.10236447D-02  0.16589098D-02  0.10101367D-03 -0.28577485D-02 -0.34230241D-02
  0.31557405D-03 -0.21318564D-03 -0.15537054D-02 -0.61861507D-03  0.23852702D-03
 -0.22232642D-03 -0.51814621D-03 -0.19543668D-04  0.34294813D-03  0.10704339D-02
 -0.11578335D-03  0.32403112D-03  0.48400477D-03  0.17441435D-03  0.40582120D-04
 -0.28930603D-05 -0.52177534D-05 -0.76935743D-05 -0.21618829D-02  0.13904534D-02
  0.11924767D-04  0.16465067D-03  0.25688602D-03 -0.30953434D-04 -0.42657987D-03
 -0.64332221D-03  0.46811876D-04 -0.27536589D-03  0.10283601D-03 -0.86354953D-05
  0.68631352D-04 -0.19589565D-03  0.12726429D-03 -0.85045561D-03  0.55986890D-04
 -0.20330054D-04  0.61121984D-05 -0.10302205D-03  0.96909851D-04 -0.31085626D-03
  0.11818574D-04  0.19036400D-04 -0.43165674D-04 -0.77851071D-04 -0.11479136D-03
  0.13335632D-03 -0.21342234D-02  0.25721343D-04 -0.12404006D-03  0.12861421D-03
  0.21339868D-04 -0.42691724D-03 -0.11518886D-02  0.56926770D-03 -0.19728371D-03
 -0.48833769D-04 -0.18704078D-03 -0.45709333D-03 -0.37668013D-04  0.49476134D-03
 -0.57272950D-03 -0.10735564D-03 -0.68892051D-03 -0.13163285D-03  0.81249688D-04
  0.50383158D-04 -0.22768704D-03  0.14842532D-03  0.23101595D-05 -0.40543740D-04
 -0.73122304D-04 -0.10781879D-03  0.20430182D-03 -0.24375186D-02  0.30261446D-04
 -0.10075186D-03  0.11827853D-03 -0.91468667D-04 -0.30916085D-03 -0.12156431D-02
 -0.41714080D-03 -0.24511472D-03 -0.71852725D-05  0.20258048D-03 -0.47208747D-03
  0.95472710D-04  0.37661476D-03 -0.66540699D-03 -0.16752971D-04  0.75699390D-03
 -0.12143022D-03  0.82950646D-04  0.38479577D-04 -0.26366454D-03 -0.15479869D-03
 -0.50226588D-04  0.42865702D-03  0.79896153D-03  0.13547740D-02  0.20505136D-02
  0.25584423D-02  0.21973607D-02  0.84360951D-03 -0.37735171D-05 -0.37207832D-03
 -0.69784211D-03 -0.11896678D-02 -0.18592192D-02 -0.24861303D-02 -0.26546076D-02
 -0.16229750D-02  0.10707403D-02  0.11134796D-02 -0.83039249D-03  0.16933278D-02
  0.34980351D-03  0.33919174D-03  0.22881674D-03 -0.28101088D-02 -0.27248603D-02
 -0.18381747D-02  0.18528115D-03  0.17966039D-03  0.12119784D-03 -0.37850862D-03