 Molden2AIM, Version 4.0.0 (06/02/2016)           Time: Sat Jun 30 04:18:34 2018
GAUSSIAN              9 MOL ORBITALS    231 PRIMITIVES        5 NUCLEI
  C    1    (CENTRE  1)   0.00000000  0.00000378 -1.97335406  CHARGE =  6.0
  F    2    (CENTRE  2)   0.00000000 -0.00000378  0.65209913  CHARGE =  9.0
  H    3    (CENTRE  3)   0.00000000  1.96585563 -2.63875309  CHARGE =  1.0
  H    4    (CENTRE  4)   1.70247694 -0.98292782 -2.63874931  CHARGE =  1.0
  H    5    (CENTRE  5)  -1.70247694 -0.98292782 -2.63874931  CHARGE =  1.0
CENTRE ASSIGNMENTS    1  1  1  1  1  1  1  1  1  1  1  1  1  1  1  1  1  1  1  1
CENTRE ASSIGNMENTS    1  1  1  1  1  1  1  1  1  1  1  1  1  1  1  1  1  1  1  1
CENTRE ASSIGNMENTS    1  1  1  1  1  1  1  1  1  1  1  1  1  1  1  1  1  1  1  1
CENTRE ASSIGNMENTS    1  1  1  1  1  1  1  1  1  1  1  1  1  1  1  2  2  2  2  2
CENTRE ASSIGNMENTS    2  2  2  2  2  2  2  2  2  2  2  2  2  2  2  2  2  2  2  2
CENTRE ASSIGNMENTS    2  2  2  2  2  2  2  2  2  2  2  2  2  2  2  2  2  2  2  2
CENTRE ASSIGNMENTS    2  2  2  2  2  2  2  2  2  2  2  2  2  2  2  2  2  2  2  2
CENTRE ASSIGNMENTS    2  2  2  2  2  2  2  2  2  2  3  3  3  3  3  3  3  3  3  3
CENTRE ASSIGNMENTS    3  3  3  3  3  3  3  3  3  3  3  3  3  3  3  3  3  4  4  4
CENTRE ASSIGNMENTS    4  4  4  4  4  4  4  4  4  4  4  4  4  4  4  4  4  4  4  4
CENTRE ASSIGNMENTS    4  4  4  4  5  5  5  5  5  5  5  5  5  5  5  5  5  5  5  5
CENTRE ASSIGNMENTS    5  5  5  5  5  5  5  5  5  5  5
TYPE ASSIGNMENTS      1  1  1  1  1  1  1  1  1  1  1  1  1  1  1  1  1  1  1  2
TYPE ASSIGNMENTS      2  2  3  3  3  4  4  4  2  3  4  2  3  4  2  3  4  5  6  7
TYPE ASSIGNMENTS      8  9 10  5  6  7  8  9 10  5  6  7  8  9 10 11 12 13 17 14
TYPE ASSIGNMENTS     15 18 19 16 20 11 12 13 17 14 15 18 19 16 20  1  1  1  1  1
TYPE ASSIGNMENTS      1  1  1  1  1  1  1  1  1  1  1  1  1  1  2  2  2  3  3  3
TYPE ASSIGNMENTS      4  4  4  2  3  4  2  3  4  2  3  4  5  6  7  8  9 10  5  6
TYPE ASSIGNMENTS      7  8  9 10  5  6  7  8  9 10 11 12 13 17 14 15 18 19 16 20
TYPE ASSIGNMENTS     11 12 13 17 14 15 18 19 16 20  1  1  1  1  1  1  2  3  4  2
TYPE ASSIGNMENTS      3  4  2  3  4  5  6  7  8  9 10  5  6  7  8  9 10  1  1  1
TYPE ASSIGNMENTS      1  1  1  2  3  4  2  3  4  2  3  4  5  6  7  8  9 10  5  6
TYPE ASSIGNMENTS      7  8  9 10  1  1  1  1  1  1  2  3  4  2  3  4  2  3  4  5
TYPE ASSIGNMENTS      6  7  8  9 10  5  6  7  8  9 10
EXPONENTS  0.8236000D+04 0.1235000D+04 0.2808000D+03 0.7927000D+02 0.2559000D+02
EXPONENTS  0.8997000D+01 0.3319000D+01 0.3643000D+00 0.8236000D+04 0.1235000D+04
EXPONENTS  0.2808000D+03 0.7927000D+02 0.2559000D+02 0.8997000D+01 0.3319000D+01
EXPONENTS  0.3643000D+00 0.9059000D+00 0.1285000D+00 0.4402000D-01 0.1871000D+02
EXPONENTS  0.4133000D+01 0.1200000D+01 0.1871000D+02 0.4133000D+01 0.1200000D+01
EXPONENTS  0.1871000D+02 0.4133000D+01 0.1200000D+01 0.3827000D+00 0.3827000D+00
EXPONENTS  0.3827000D+00 0.1209000D+00 0.1209000D+00 0.1209000D+00 0.3569000D-01
EXPONENTS  0.3569000D-01 0.3569000D-01 0.1097000D+01 0.1097000D+01 0.1097000D+01
EXPONENTS  0.1097000D+01 0.1097000D+01 0.1097000D+01 0.3180000D+00 0.3180000D+00
EXPONENTS  0.3180000D+00 0.3180000D+00 0.3180000D+00 0.3180000D+00 0.1000000D+00
EXPONENTS  0.1000000D+00 0.1000000D+00 0.1000000D+00 0.1000000D+00 0.1000000D+00
EXPONENTS  0.7610000D+00 0.7610000D+00 0.7610000D+00 0.7610000D+00 0.7610000D+00
EXPONENTS  0.7610000D+00 0.7610000D+00 0.7610000D+00 0.7610000D+00 0.7610000D+00
EXPONENTS  0.2680000D+00 0.2680000D+00 0.2680000D+00 0.2680000D+00 0.2680000D+00
EXPONENTS  0.2680000D+00 0.2680000D+00 0.2680000D+00 0.2680000D+00 0.2680000D+00
EXPONENTS  0.1950000D+05 0.2923000D+04 0.6645000D+03 0.1875000D+03 0.6062000D+02
EXPONENTS  0.2142000D+02 0.7950000D+01 0.8815000D+00 0.1950000D+05 0.2923000D+04
EXPONENTS  0.6645000D+03 0.1875000D+03 0.6062000D+02 0.2142000D+02 0.7950000D+01
EXPONENTS  0.8815000D+00 0.2257000D+01 0.3041000D+00 0.9158000D-01 0.4388000D+02
EXPONENTS  0.9926000D+01 0.2930000D+01 0.4388000D+02 0.9926000D+01 0.2930000D+01
EXPONENTS  0.4388000D+02 0.9926000D+01 0.2930000D+01 0.9132000D+00 0.9132000D+00
EXPONENTS  0.9132000D+00 0.2672000D+00 0.2672000D+00 0.2672000D+00 0.7361000D-01
EXPONENTS  0.7361000D-01 0.7361000D-01 0.3107000D+01 0.3107000D+01 0.3107000D+01
EXPONENTS  0.3107000D+01 0.3107000D+01 0.3107000D+01 0.8550000D+00 0.8550000D+00
EXPONENTS  0.8550000D+00 0.8550000D+00 0.8550000D+00 0.8550000D+00 0.2920000D+00
EXPONENTS  0.2920000D+00 0.2920000D+00 0.2920000D+00 0.2920000D+00 0.2920000D+00
EXPONENTS  0.1917000D+01 0.1917000D+01 0.1917000D+01 0.1917000D+01 0.1917000D+01
EXPONENTS  0.1917000D+01 0.1917000D+01 0.1917000D+01 0.1917000D+01 0.1917000D+01
EXPONENTS  0.7240000D+00 0.7240000D+00 0.7240000D+00 0.7240000D+00 0.7240000D+00
EXPONENTS  0.7240000D+00 0.7240000D+00 0.7240000D+00 0.7240000D+00 0.7240000D+00
EXPONENTS  0.3387000D+02 0.5095000D+01 0.1159000D+01 0.3258000D+00 0.1027000D+00
EXPONENTS  0.2526000D-01 0.1407000D+01 0.1407000D+01 0.1407000D+01 0.3880000D+00
EXPONENTS  0.3880000D+00 0.3880000D+00 0.1020000D+00 0.1020000D+00 0.1020000D+00
EXPONENTS  0.1057000D+01 0.1057000D+01 0.1057000D+01 0.1057000D+01 0.1057000D+01
EXPONENTS  0.1057000D+01 0.2470000D+00 0.2470000D+00 0.2470000D+00 0.2470000D+00
EXPONENTS  0.2470000D+00 0.2470000D+00 0.3387000D+02 0.5095000D+01 0.1159000D+01
EXPONENTS  0.3258000D+00 0.1027000D+00 0.2526000D-01 0.1407000D+01 0.1407000D+01
EXPONENTS  0.1407000D+01 0.3880000D+00 0.3880000D+00 0.3880000D+00 0.1020000D+00
EXPONENTS  0.1020000D+00 0.1020000D+00 0.1057000D+01 0.1057000D+01 0.1057000D+01
EXPONENTS  0.1057000D+01 0.1057000D+01 0.1057000D+01 0.2470000D+00 0.2470000D+00
EXPONENTS  0.2470000D+00 0.2470000D+00 0.2470000D+00 0.2470000D+00 0.3387000D+02
EXPONENTS  0.5095000D+01 0.1159000D+01 0.3258000D+00 0.1027000D+00 0.2526000D-01
EXPONENTS  0.1407000D+01 0.1407000D+01 0.1407000D+01 0.3880000D+00 0.3880000D+00
EXPONENTS  0.3880000D+00 0.1020000D+00 0.1020000D+00 0.1020000D+00 0.1057000D+01
EXPONENTS  0.1057000D+01 0.1057000D+01 0.1057000D+01 0.1057000D+01 0.1057000D+01
EXPONENTS  0.2470000D+00 0.2470000D+00 0.2470000D+00 0.2470000D+00 0.2470000D+00
EXPONENTS  0.2470000D+00
MO    1     MO 0.0        OCC NO =    2.0000000  ORB. ENERGY =  -24.462003
  0.15519466D-03  0.28931813D-03  0.48899861D-03  0.73512509D-03  0.90318611D-03
  0.76288506D-03  0.28773217D-03 -0.14240026D-05 -0.10509913D-03 -0.19677873D-03
 -0.33503263D-03 -0.51824453D-03 -0.68250982D-03 -0.70917142D-03 -0.45064660D-03
  0.30201287D-03 -0.35915388D-03  0.66591008D-03  0.17628093D-03 -0.37882855D-15
 -0.35517584D-15 -0.25290636D-15  0.24348361D-07  0.22828137D-07  0.16254993D-07
 -0.68673518D-03 -0.64385789D-03 -0.45846517D-03  0.44457524D-15 -0.64979818D-07
  0.16371658D-02  0.27846644D-15 -0.24638690D-07  0.24311309D-03 -0.39094266D-17
 -0.27919841D-09 -0.62097391D-06 -0.38833083D-03 -0.38834553D-03  0.77667636D-03
 -0.13679405D-16  0.14762679D-15  0.68910438D-08 -0.30656217D-03 -0.30658660D-03
  0.61314876D-03 -0.33910301D-15 -0.63887095D-15 -0.29192492D-07 -0.10429503D-04
 -0.10432445D-04  0.20861948D-04  0.28094824D-16 -0.14471352D-15 -0.29503293D-08
  0.12485465D-16 -0.41784994D-04  0.34656454D-03  0.34407756D-16  0.12538346D-03
 -0.51984257D-03 -0.71864152D-16 -0.28481196D-07 -0.51985106D-03  0.32070767D-15
 -0.35942380D-17 -0.12351483D-04  0.34303701D-04  0.19083346D-16  0.37054577D-04
 -0.51454225D-04 -0.83006317D-17 -0.12857082D-09 -0.51456877D-04  0.10786836D-15
  0.59437115D+00  0.11079336D+01  0.18782198D+01  0.28441783D+01  0.35566550D+01
  0.30619486D+01  0.11771248D+01 -0.51006746D-02  0.18989605D-03  0.35659116D-03
  0.60721324D-03  0.95119595D-03  0.12747145D-02  0.13711273D-02  0.82322302D-03
 -0.54138609D-03  0.64327415D-01 -0.10552534D-02 -0.77826137D-03 -0.16476294D-15
 -0.16113456D-15 -0.10646842D-15  0.53818347D-06  0.52633168D-06  0.34776959D-06
 -0.66892952D-02 -0.65419846D-02 -0.43225658D-02 -0.44592936D-16 -0.81070019D-07
  0.12512556D-02  0.19019984D-15  0.25764176D-07  0.12047053D-02  0.34979420D-16
  0.29156235D-09  0.82413233D-04 -0.11764277D-03 -0.11840875D-03  0.23605152D-03
  0.19749102D-15  0.52936594D-15  0.97679999D-06  0.40864403D-03  0.40869551D-03
 -0.81733954D-03 -0.74363537D-16 -0.21952953D-15 -0.42236033D-07  0.13028728D-03
  0.13028438D-03 -0.26057166D-03  0.17650456D-16 -0.62386836D-16 -0.11012050D-07
  0.49027156D-16 -0.68149501D-05 -0.35688263D-03  0.96956557D-16  0.20542530D-04
  0.53532868D-03 -0.24403802D-15 -0.97679663D-07  0.53531921D-03  0.32033463D-16
 -0.32847467D-16  0.27507511D-05  0.35762125D-03 -0.48714561D-16 -0.82758175D-05
 -0.53643228D-03  0.14725696D-15  0.23564204D-07 -0.53643148D-03 -0.24512845D-18
  0.34914208D-05  0.62969211D-05  0.92848065D-05  0.24733929D-03  0.51829191D-04
 -0.99112316D-05  0.71570603D-16 -0.54939220D-05 -0.30931887D-04 -0.47797441D-16
 -0.14745794D-03  0.21488694D-03 -0.69577881D-16 -0.13748414D-04  0.46453121D-04
 -0.46463735D-06  0.53072659D-04 -0.52608021D-04  0.31160781D-16 -0.35132280D-16
 -0.55739695D-04 -0.13115598D-04  0.60720200D-05  0.70435777D-05 -0.75367192D-17
  0.43539725D-16 -0.68419388D-04  0.34958068D-05  0.63048316D-05  0.92964704D-05
  0.24727818D-03  0.51762979D-04 -0.99125009D-05 -0.47518383D-05  0.27435220D-05
 -0.30920037D-04 -0.12767177D-03  0.73709402D-04  0.21484007D-03 -0.11898902D-04
  0.68669602D-05  0.46442598D-04  0.39684309D-04  0.12937941D-04 -0.52622250D-04
 -0.46341941D-04 -0.48244433D-04  0.27849059D-04  0.12755467D-05 -0.83182839D-05
  0.70427372D-05 -0.16612822D-04 -0.59245783D-04  0.34207251D-04  0.34958068D-05
  0.63048316D-05  0.92964704D-05  0.24727818D-03  0.51762979D-04 -0.99125009D-05
  0.47518383D-05  0.27435220D-05 -0.30920037D-04  0.12767177D-03  0.73709402D-04
  0.21484007D-03  0.11898902D-04  0.68669602D-05  0.46442598D-04  0.39684309D-04
  0.12937941D-04 -0.52622250D-04  0.46341941D-04  0.48244433D-04  0.27849059D-04
  0.12755467D-05 -0.83182839D-05  0.70427372D-05  0.16612822D-04  0.59245783D-04
  0.34207251D-04
MO    2     MO 0.0        OCC NO =    2.0000000  ORB. ENERGY =  -10.105736
  0.33083094D+00  0.61674410D+00  0.10424062D+01  0.15670779D+01  0.19253363D+01
  0.16262543D+01  0.61336329D+00 -0.30355691D-02 -0.36156204D-02 -0.67695823D-02
 -0.11525793D-01 -0.17828649D-01 -0.23479704D-01 -0.24396916D-01 -0.15503145D-01
  0.10389847D-01  0.31522573D-01  0.15252240D-02 -0.34110137D-05  0.17350454D-14
  0.16267153D-14  0.11583182D-14 -0.13337049D-04 -0.12504331D-04 -0.89038285D-05
  0.34456638D-02  0.32305289D-02  0.23003290D-02 -0.69918905D-14  0.13943767D-04
 -0.28684952D-02 -0.14340155D-13  0.27443847D-05 -0.50486556D-03 -0.41954329D-15
  0.32035047D-07  0.18556023D-05  0.46063140D-03  0.46423466D-03 -0.92486606D-03
  0.11764935D-15  0.12231068D-14 -0.33304255D-05  0.47318909D-03  0.47931052D-03
 -0.95249961D-03  0.46685098D-14  0.15721851D-14 -0.23534928D-05  0.24130763D-04
  0.24395121D-04 -0.48525885D-04  0.16678491D-14  0.50867571D-15 -0.88453123D-07
 -0.41544187D-15  0.14014644D-02  0.14655025D-02  0.14045287D-15 -0.42048796D-02
 -0.21974439D-02  0.11058727D-14  0.48622894D-06 -0.21990635D-02 -0.14559017D-14
  0.10563894D-15 -0.13003404D-03 -0.21167537D-03  0.38822871D-15  0.39028394D-03
  0.31801443D-03 -0.70514552D-15 -0.18180594D-06  0.31701166D-03 -0.88300720D-16
  0.37667848D-04  0.70214500D-04  0.11903084D-03  0.18024777D-03  0.22540047D-03
  0.19404881D-03  0.74599447D-04 -0.32325161D-06 -0.51231880D-04 -0.96204398D-04
 -0.16381950D-03 -0.25662227D-03 -0.34390404D-03 -0.36991516D-03 -0.22209658D-03
  0.14606005D-03  0.30134704D-03  0.17438089D-02  0.77024235D-03  0.19144402D-14
  0.18722807D-14  0.12370950D-14  0.35122773D-07  0.34349304D-07  0.22696038D-07
 -0.98704880D-03 -0.96531217D-03 -0.63782256D-03 -0.18895145D-14  0.25834918D-06
 -0.20976471D-03  0.31541450D-14 -0.48694157D-06 -0.33055760D-03 -0.87708720D-16
  0.97599333D-08 -0.63257633D-04 -0.10280921D-02 -0.10276210D-02  0.20557130D-02
 -0.57271243D-15 -0.38249043D-15 -0.26552791D-05  0.50461529D-03  0.50442252D-03
 -0.10090378D-02  0.32754583D-15  0.47219528D-15  0.12410193D-05  0.99110507D-04
  0.99052709D-04 -0.19816322D-03 -0.48847512D-15 -0.18035987D-14  0.38406339D-06
  0.82398057D-15 -0.33185798D-03 -0.66783729D-03  0.11137420D-14  0.99403869D-03
  0.10028063D-02 -0.35856837D-14  0.15352616D-05  0.10007056D-02 -0.25963350D-14
 -0.32588609D-15  0.10570960D-03  0.89586239D-03 -0.43429327D-15 -0.31550967D-03
 -0.13442655D-02  0.14119515D-14 -0.16191326D-05 -0.13433217D-02  0.11778168D-14
 -0.32426015D-04 -0.58481653D-04 -0.86231163D-04 -0.18638312D-02 -0.85997865D-03
 -0.82730293D-05 -0.14169334D-14  0.20974213D-02 -0.68321372D-03  0.61502456D-15
  0.27386783D-02 -0.10321501D-02 -0.10415330D-14  0.27516761D-03 -0.16053051D-03
  0.11674322D-02 -0.20959892D-02  0.92855702D-03 -0.27023616D-15 -0.57460622D-15
  0.22075111D-02  0.13885749D-03 -0.27053475D-03  0.13167726D-03  0.17081975D-15
 -0.42077613D-15  0.37972213D-03 -0.32226531D-04 -0.58121876D-04 -0.85700672D-04
 -0.18471866D-02 -0.85282501D-03 -0.81153429D-05  0.18137960D-02 -0.10472911D-02
 -0.68223068D-03  0.23640023D-02 -0.13639124D-02 -0.10286577D-02  0.23738212D-03
 -0.13692697D-03 -0.16004396D-03 -0.12795623D-02  0.35143809D-03  0.92812420D-03
  0.28239687D-02  0.19111736D-02 -0.11028196D-02 -0.16798843D-03  0.36418409D-04
  0.13157002D-03  0.35383129D-03  0.32832945D-03 -0.18957005D-03 -0.32226531D-04
 -0.58121876D-04 -0.85700672D-04 -0.18471866D-02 -0.85282501D-03 -0.81153429D-05
 -0.18137960D-02 -0.10472911D-02 -0.68223068D-03 -0.23640023D-02 -0.13639124D-02
 -0.10286577D-02 -0.23738212D-03 -0.13692697D-03 -0.16004396D-03 -0.12795623D-02
  0.35143809D-03  0.92812420D-03 -0.28239687D-02 -0.19111736D-02 -0.11028196D-02
 -0.16798843D-03  0.36418409D-04  0.13157002D-03 -0.35383129D-03 -0.32832945D-03
 -0.18957005D-03
MO    3     MO 0.0        OCC NO =    2.0000000  ORB. ENERGY =   -1.153908
 -0.30226384D-02 -0.56348852D-02 -0.95239487D-02 -0.14317615D-01 -0.17590844D-01
 -0.14858280D-01 -0.56039964D-02  0.27734491D-04 -0.14769869D-01 -0.27653855D-01
 -0.47083055D-01 -0.72830326D-01 -0.95914978D-01 -0.99661806D-01 -0.63330604D-01
  0.42442698D-01  0.19731519D-01 -0.15378974D-01 -0.10551035D-02  0.46769293D-15
  0.43849185D-15  0.31223232D-15  0.15836350D-04  0.14847584D-04  0.10572365D-04
  0.11531529D+00  0.10811541D+00  0.76984614D-01  0.16228351D-14  0.30645329D-04
  0.23603472D-01  0.35209504D-14  0.34242229D-05 -0.86699283D-04 -0.38628520D-14
  0.20346960D-06 -0.34734212D-04 -0.10040604D-01 -0.10028312D-01  0.20068916D-01
  0.49299190D-14 -0.40744687D-14 -0.27279436D-04 -0.24304300D-02 -0.24221748D-02
  0.48526048D-02 -0.14416946D-13  0.52606883D-14  0.16848166D-04  0.20144576D-04
  0.20293258D-04 -0.40437834D-04 -0.68337662D-14  0.24118208D-14  0.54714934D-06
  0.27999006D-15  0.49986768D-03  0.38364084D-02  0.70825483D-15 -0.14883814D-02
 -0.57493785D-02 -0.15482250D-14 -0.11221605D-04 -0.57598466D-02  0.87935135D-15
 -0.12974958D-14 -0.63669902D-03  0.11427306D-03  0.19070171D-14  0.19081752D-02
 -0.17489326D-03  0.19854704D-14  0.19218358D-05 -0.16792591D-03  0.68602866D-15
 -0.85927846D-02 -0.16017323D-01 -0.27153300D-01 -0.41118098D-01 -0.51418326D-01
 -0.44266389D-01 -0.17017616D-01  0.73740117D-04 -0.12223021D+00 -0.22952668D+00
 -0.39084436D+00 -0.61225537D+00 -0.82049422D+00 -0.88255216D+00 -0.52988316D+00
  0.34847346D+00  0.20709900D+00  0.10021110D+00  0.32842886D-02 -0.40633647D-14
 -0.39738820D-14 -0.26257118D-14  0.26981658D-04  0.26387472D-04  0.17435319D-04
 -0.31526739D+00 -0.30832463D+00 -0.20372312D+00  0.35165863D-14  0.85487148D-05
 -0.80023342D-01 -0.77807315D-14 -0.38144684D-05 -0.77535162D-02  0.21265592D-14
 -0.14364928D-06 -0.27616954D-04 -0.12818815D-01 -0.12822792D-01  0.25641607D-01
  0.27159727D-14 -0.70095477D-14  0.21632760D-04 -0.81737354D-02 -0.81728165D-02
  0.16346552D-01 -0.19239574D-14  0.41707621D-14 -0.85899101D-05  0.43296897D-04
  0.44857856D-04 -0.88154753D-04  0.19165042D-14  0.21076863D-14  0.16900881D-05
 -0.18502178D-14 -0.32391966D-03 -0.53709369D-02  0.59790847D-15  0.10156175D-02
  0.80332600D-02  0.49527449D-14 -0.43858550D-04  0.80795506D-02  0.53159689D-14
  0.96326434D-15  0.17272073D-03 -0.26795817D-02 -0.87301136D-16 -0.52761439D-03
  0.40252772D-02 -0.28024919D-14  0.94521973D-05  0.40134680D-02 -0.29179206D-14
  0.19518784D-02  0.35202931D-02  0.51906702D-02  0.89504824D-02  0.26746235D-02
  0.43795290D-04 -0.33740020D-15 -0.18488723D-02  0.24763085D-02  0.35116965D-14
 -0.47574315D-03  0.27922521D-02  0.11985789D-13 -0.29261535D-03  0.21024786D-03
 -0.49976788D-03 -0.62476862D-03  0.11245365D-02 -0.17094206D-14 -0.11316095D-14
 -0.26053110D-02  0.14479959D-04 -0.29721290D-03  0.28273294D-03 -0.36529276D-14
  0.18169167D-14  0.33071122D-03  0.19499525D-02  0.35168197D-02  0.51855486D-02
  0.89644642D-02  0.26816197D-02  0.44496152D-04 -0.16069020D-02  0.92945989D-03
  0.24729193D-02 -0.42258380D-03  0.24275796D-03  0.28170355D-02 -0.25404767D-03
  0.14638816D-03  0.21282532D-03 -0.59010121D-03 -0.53504794D-03  0.11251492D-02
  0.97365071D-04 -0.22725723D-02  0.13105504D-02 -0.21974526D-03 -0.65403306D-04
  0.28514857D-03  0.26809358D-03  0.28383196D-03 -0.16274522D-03  0.19499525D-02
  0.35168197D-02  0.51855486D-02  0.89644642D-02  0.26816197D-02  0.44496152D-04
  0.16069020D-02  0.92945989D-03  0.24729193D-02  0.42258380D-03  0.24275796D-03
  0.28170355D-02  0.25404767D-03  0.14638816D-03  0.21282532D-03 -0.59010121D-03
 -0.53504794D-03  0.11251492D-02 -0.97365071D-04  0.22725723D-02  0.13105504D-02
 -0.21974526D-03 -0.65403306D-04  0.28514857D-03 -0.26809358D-03 -0.28383196D-03
 -0.16274522D-03
MO    4     MO 0.0        OCC NO =    2.0000000  ORB. ENERGY =   -0.665492
 -0.71438667D-02 -0.13317792D-01 -0.22509414D-01 -0.33839023D-01 -0.41575149D-01
 -0.35116860D-01 -0.13244787D-01  0.65549192D-04 -0.51843411D-01 -0.97067224D-01
 -0.16526525D+00 -0.25564022D+00 -0.33666917D+00 -0.34982084D+00 -0.22229544D+00
  0.14897723D+00  0.68864766D-01  0.33234099D-01 -0.20975375D-03  0.28065000D-13
  0.26312721D-13  0.18736225D-13  0.11252539D-03  0.10549971D-03  0.75122077D-04
 -0.71192128D-01 -0.66747145D-01 -0.47527944D-01 -0.14165073D-12  0.35297362D-04
 -0.12377645D-01 -0.15987870D-12  0.11449556D-05 -0.22620396D-02  0.37285221D-15
 -0.24973593D-06  0.49737396D-05  0.47255545D-02  0.47437817D-02 -0.94693362D-02
  0.11833485D-13  0.18283536D-13 -0.10784224D-04  0.13467167D-04  0.14346946D-04
 -0.27814112D-04  0.11993242D-12  0.55285798D-13 -0.85797254D-05  0.22198117D-04
  0.25199305D-04 -0.47397422D-04  0.26713527D-13  0.35300595D-14  0.12337269D-05
 -0.35571923D-14  0.18265803D-02  0.28940814D-02 -0.46654264D-14 -0.54704529D-02
 -0.43408972D-02  0.15337003D-13 -0.92878498D-05 -0.43413469D-02 -0.43049072D-13
  0.50473938D-16  0.11203789D-03  0.14770092D-03  0.59737225D-15 -0.34118852D-03
 -0.22008488D-03 -0.74879407D-15  0.50748655D-05 -0.22301788D-03 -0.20866119D-13
  0.92446977D-03  0.17232517D-02  0.29213353D-02  0.44237626D-02  0.55319306D-02
  0.47624770D-02  0.18308700D-02 -0.79334595D-05  0.38408971D-01  0.72125245D-01
  0.12281685D+00  0.19239187D+00  0.25782774D+00  0.27732850D+00  0.16650767D+00
 -0.10950245D+00 -0.69789208D-01 -0.47267423D-01 -0.19200753D-02  0.92238194D-14
  0.90206939D-14  0.59603539D-14  0.11581201D-03  0.11326161D-03  0.74836737D-04
 -0.73662282D+00 -0.72040103D+00 -0.47599942D+00 -0.15112784D-13  0.35696582D-04
 -0.16183343D+00  0.16496074D-13  0.64547799D-06 -0.17244223D-01 -0.44985699D-14
  0.44064245D-07 -0.63407195D-04 -0.16021944D-01 -0.16038659D-01  0.32060603D-01
 -0.29211703D-14 -0.21153007D-14  0.18801242D-04 -0.36141110D-02 -0.36043646D-02
  0.72184756D-02  0.22034537D-14  0.36800187D-14 -0.19133224D-04 -0.26729610D-03
 -0.26689864D-03  0.53419474D-03 -0.27113650D-14 -0.37508938D-14 -0.44090691D-06
 -0.75416138D-16  0.38861274D-03 -0.56307447D-02  0.10629939D-14 -0.11577008D-02
  0.84588715D-02 -0.83674546D-15 -0.81374206D-05  0.84333626D-02 -0.96770069D-14
  0.18227663D-15 -0.15832293D-03 -0.12527432D-02 -0.26859209D-15  0.46763061D-03
  0.18775864D-02 -0.27823781D-15  0.73381723D-05  0.18806432D-02  0.63785331D-14
  0.21390541D-01  0.38578722D-01  0.56884304D-01  0.30093563D-01  0.37264265D-03
  0.51016234D-05 -0.60891557D-15 -0.18712517D-01  0.46828644D-02 -0.23025714D-13
 -0.30402666D-02  0.15332221D-03 -0.27534701D-13  0.76012559D-03 -0.23137350D-03
 -0.18454400D-02  0.33863443D-02 -0.15409043D-02  0.69537780D-14 -0.50357659D-14
 -0.24030323D-02  0.26608718D-03 -0.25185103D-03 -0.14236154D-04  0.12078029D-13
 -0.51967980D-14  0.10877273D-03  0.21385574D-01  0.38569763D-01  0.56871093D-01
  0.30109607D-01  0.39647113D-03  0.43769302D-05 -0.16197243D-01  0.93575645D-02
  0.46833642D-02 -0.26629959D-02  0.15336030D-02  0.14530385D-03  0.65841472D-03
 -0.37545596D-03 -0.22811461D-03  0.20895161D-02 -0.54028500D-03 -0.15492311D-02
 -0.45480147D-02 -0.20767520D-02  0.11936240D-02 -0.12024792D-03  0.13459556D-03
 -0.14347639D-04  0.44114171D-03  0.97159064D-04 -0.53897548D-04  0.21385574D-01
  0.38569763D-01  0.56871093D-01  0.30109607D-01  0.39647113D-03  0.43769302D-05
  0.16197243D-01  0.93575645D-02  0.46833642D-02  0.26629959D-02  0.15336030D-02
  0.14530385D-03 -0.65841472D-03 -0.37545596D-03 -0.22811461D-03  0.20895161D-02
 -0.54028500D-03 -0.15492311D-02  0.45480147D-02  0.20767520D-02  0.11936240D-02
 -0.12024792D-03  0.13459556D-03 -0.14347639D-04 -0.44114171D-03 -0.97159064D-04
 -0.53897548D-04
MO    5     MO 0.0        OCC NO =    2.0000000  ORB. ENERGY =   -0.451118
 -0.69087579D-03 -0.12879495D-02 -0.21768616D-02 -0.32725361D-02 -0.40206887D-02
 -0.33961143D-02 -0.12808894D-02  0.63391930D-05 -0.41841068D-02 -0.78339680D-02
 -0.13338001D-01 -0.20631859D-01 -0.27171433D-01 -0.28232859D-01 -0.17940715D-01
  0.12023450D-01  0.39342129D-02  0.22910237D-01  0.12849407D-02  0.86099198D-13
  0.80723471D-13  0.57479921D-13 -0.92703103D-03 -0.86915051D-03 -0.61888694D-03
 -0.41441700D+00 -0.38854228D+00 -0.27666525D+00 -0.34559135D-12 -0.20829775D-03
 -0.96313154D-01 -0.60628084D-12 -0.12382916D-04 -0.93244410D-02 -0.16050486D-13
 -0.21559005D-06 -0.32436169D-04  0.15965942D-01  0.15905288D-01 -0.31871229D-01
  0.16516575D-13  0.48136480D-13 -0.28658222D-05  0.43247187D-02  0.43215193D-02
 -0.86462380D-02  0.30695655D-12  0.13283902D-12 -0.18113980D-04  0.98122910D-04
  0.10024937D-03 -0.19837228D-03  0.84714562D-13  0.23196382D-13  0.24757075D-05
 -0.98931268D-14  0.14944483D-03 -0.23824956D-02 -0.10764595D-13 -0.47128179D-03
  0.35698064D-02  0.40443975D-13  0.22947291D-04  0.35776803D-02 -0.96839402D-13
  0.86106004D-15  0.63815639D-03 -0.56230935D-03  0.12691885D-14 -0.19100303D-02
  0.84701890D-03 -0.38523686D-14 -0.44388977D-05  0.83990914D-03 -0.46724994D-13
 -0.76003591D-03 -0.14167399D-02 -0.24017224D-02 -0.36369155D-02 -0.45479756D-02
 -0.39153834D-02 -0.15052163D-02  0.65223487D-05 -0.21522831D-01 -0.40416065D-01
 -0.68821588D-01 -0.10780861D+00 -0.14447622D+00 -0.15540366D+00 -0.93304151D-01
  0.61360735D-01  0.41323416D-01  0.39113045D-01  0.53851880D-02  0.99893970D-13
  0.97694121D-13  0.64550636D-13 -0.30866870D-02 -0.30187125D-02 -0.19945910D-02
  0.20734003D+01  0.20277402D+01  0.13398137D+01 -0.29691453D-13 -0.69306331D-03
  0.46583016D+00  0.66608570D-13 -0.10745610D-03  0.61820312D-01 -0.10933343D-13
 -0.21021275D-05  0.87344836D-03  0.27163654D-01  0.27163436D-01 -0.54327090D-01
 -0.10776168D-13 -0.21338658D-13  0.12818062D-03  0.10130637D-01  0.10126971D-01
 -0.20257608D-01  0.86471785D-14  0.18318149D-13  0.71019613D-04  0.91295552D-03
  0.91134539D-03 -0.18243009D-02 -0.11946921D-13 -0.30128838D-13  0.10876928D-04
  0.71960330D-14  0.60935381D-03  0.15996368D-01  0.74754160D-14 -0.18160561D-02
 -0.24009702D-01 -0.29063515D-13 -0.12005317D-04 -0.23979402D-01 -0.44025954D-13
 -0.31591266D-14 -0.21906415D-03  0.40265941D-02 -0.33017472D-14  0.68125903D-03
 -0.60331506D-02  0.12779127D-13 -0.24066580D-04 -0.60466315D-02  0.26430600D-13
  0.13004185D-01  0.23453582D-01  0.34582293D-01  0.15725323D-01 -0.10308576D-02
 -0.63373169D-04 -0.18247762D-13 -0.11451832D-01 -0.49986271D-02 -0.29816160D-13
 -0.14582005D-02 -0.61315828D-02 -0.65536472D-13  0.71286326D-03 -0.29852188D-03
 -0.90551836D-03  0.35865811D-02 -0.26810628D-02  0.18215810D-13 -0.11497852D-13
  0.47791889D-02  0.10148946D-03  0.13433294D-04 -0.11492276D-03  0.21435468D-13
 -0.13614239D-13 -0.30253500D-04  0.13098263D-01  0.23623257D-01  0.34832479D-01
  0.15913018D-01 -0.98045694D-03 -0.63619940D-04 -0.99715170D-02  0.57382097D-02
 -0.49624758D-02 -0.12916675D-02  0.73208262D-03 -0.61291021D-02  0.61503556D-03
 -0.35133006D-03 -0.29348707D-03  0.24812560D-02  0.20582551D-03 -0.26870815D-02
 -0.39151613D-02  0.41300501D-02 -0.23910571D-02  0.36526868D-04  0.81427721D-04
 -0.11795459D-03  0.74533034D-04 -0.26033237D-04  0.11321850D-04  0.13098263D-01
  0.23623257D-01  0.34832479D-01  0.15913018D-01 -0.98045694D-03 -0.63619940D-04
  0.99715170D-02  0.57382097D-02 -0.49624758D-02  0.12916675D-02  0.73208262D-03
 -0.61291021D-02 -0.61503556D-03 -0.35133006D-03 -0.29348707D-03  0.24812560D-02
  0.20582551D-03 -0.26870815D-02  0.39151613D-02 -0.41300501D-02 -0.23910571D-02
  0.36526868D-04  0.81427721D-04 -0.11795459D-03 -0.74533034D-04  0.26033237D-04
  0.11321850D-04
MO    6     MO 0.0        OCC NO =    2.0000000  ORB. ENERGY =   -0.442217
  0.24490489D-05  0.45655839D-05  0.77166411D-05  0.11600639D-04  0.14252726D-04
  0.12038705D-04  0.45405567D-05 -0.22471469D-07 -0.88577595D-05 -0.16584521D-04
 -0.28236565D-04 -0.43677673D-04 -0.57521959D-04 -0.59769000D-04 -0.37980516D-04
  0.25453659D-04  0.13026596D-04  0.53593019D-04  0.23522974D-05  0.18891990D-10
  0.17712442D-10  0.12612314D-10  0.46186667D+00  0.43302936D+00  0.30834270D+00
 -0.85911918D-03 -0.80547884D-03 -0.57354892D-03  0.43655828D-11  0.11042122D+00
 -0.18622448D-03  0.30006900D-13  0.65839241D-02 -0.19783584D-04 -0.10425282D-13
 -0.21203378D-04 -0.12162650D-06 -0.13117429D-01  0.13181917D-01 -0.64487413D-04
 -0.10710896D-11  0.36159362D-12  0.85994858D-02 -0.23129465D-02  0.23348066D-02
 -0.21860106D-04 -0.61054465D-13  0.21769903D-12  0.36994777D-02  0.47850193D-03
 -0.47763447D-03 -0.86745825D-06  0.68602032D-13 -0.18935605D-13 -0.81453616D-03
 -0.94649757D-13 -0.21837384D-02 -0.10217590D-04 -0.92480958D-13 -0.21968264D-02
 -0.92054049D-03  0.37643023D-12  0.87480417D-02  0.95119326D-03 -0.12048159D-12
  0.11143489D-14  0.38181185D-04  0.13811644D-05  0.32930994D-14  0.39323081D-04
 -0.42665290D-04 -0.66361461D-14 -0.15386664D-03  0.38521797D-04 -0.25349240D-13
 -0.14689311D-05 -0.27381513D-05 -0.46418396D-05 -0.70291132D-05 -0.87899307D-05
 -0.75673115D-05 -0.29091508D-05  0.12605827D-07 -0.42070727D-04 -0.79001374D-04
 -0.13452571D-03 -0.21073374D-03 -0.28240800D-03 -0.30376788D-03 -0.18238184D-03
  0.11994197D-03  0.76533574D-04  0.76053278D-04  0.14011271D-04  0.60667405D-10
  0.59331397D-10  0.39202762D-10  0.14858019D+01  0.14530818D+01  0.96011258D+00
  0.44551283D-02  0.43570182D-02  0.28788661D-02  0.13544745D-10  0.33218007D+00
  0.99522342D-03  0.21231342D-11  0.51558311D-01  0.13081261D-03  0.41295011D-13
  0.10898715D-02  0.17650593D-05 -0.14933163D-02  0.16144419D-02 -0.12112562D-03
 -0.13196034D-12 -0.30943429D-11 -0.75347297D-01 -0.14089509D-03  0.18293250D-03
 -0.42037411D-04 -0.91065644D-14 -0.11454912D-11 -0.28419403D-01 -0.42492381D-04
  0.44384604D-04 -0.18922233D-05 -0.84386863D-14 -0.15890165D-12 -0.36493504D-02
 -0.28590427D-12 -0.70268457D-02  0.51746345D-04 -0.29376450D-12 -0.72643292D-02
  0.24644444D-02  0.11514773D-11  0.28344866D-01 -0.26196834D-02  0.18831997D-12
 -0.59716813D-13 -0.14654059D-02  0.87999831D-05 -0.56644785D-13 -0.13629697D-02
 -0.77483774D-03  0.23579523D-12  0.57591874D-02  0.74843779D-03 -0.52331945D-13
  0.31582075D-01  0.56959572D-01  0.83986856D-01  0.53327006D-01  0.12905153D-01
  0.69137664D-04  0.42638781D-12 -0.20634830D-01  0.13885138D-01  0.26386489D-12
 -0.10528890D-03  0.64311706D-03 -0.66482229D-13 -0.23497774D-03  0.75521501D-03
 -0.27209041D-02  0.34611809D-02 -0.74027684D-03 -0.29553792D-12  0.11792410D-12
 -0.66837400D-02  0.59072077D-03 -0.37945803D-03 -0.21126274D-03  0.61533674D-14
  0.37271622D-14  0.11287312D-02 -0.15753301D-01 -0.28411727D-01 -0.41893075D-01
 -0.26635909D-01 -0.64596679D-02 -0.34723582D-04  0.13517898D-01  0.28432025D-02
 -0.69612228D-02  0.29914802D-02  0.50763878D-02 -0.34416760D-03 -0.44761904D-03
 -0.10141653D-02 -0.37888211D-03 -0.37751958D-02  0.34087493D-02  0.36644648D-03
 -0.60457842D-03  0.42196423D-02  0.57807623D-03  0.73402164D-04 -0.18083667D-03
  0.10743451D-03 -0.41649228D-03 -0.37958751D-03  0.46441182D-03 -0.15753301D-01
 -0.28411727D-01 -0.41893075D-01 -0.26635909D-01 -0.64596679D-02 -0.34723582D-04
 -0.13517898D-01  0.28432025D-02 -0.69612228D-02 -0.29914802D-02  0.50763878D-02
 -0.34416760D-03  0.44761904D-03 -0.10141653D-02 -0.37888211D-03 -0.37751958D-02
  0.34087493D-02  0.36644648D-03  0.60457842D-03 -0.42196423D-02  0.57807623D-03
  0.73402164D-04 -0.18083667D-03  0.10743451D-03  0.41649228D-03  0.37958751D-03
  0.46441182D-03
MO    7     MO 0.0        OCC NO =    2.0000000  ORB. ENERGY =   -0.442192
 -0.13616533D-15 -0.25384314D-15 -0.42903963D-15 -0.64498710D-15 -0.79244117D-15
 -0.66934325D-15 -0.25245165D-15  0.12493973D-17  0.75694294D-15  0.14172360D-14
  0.24129656D-14  0.37324908D-14  0.49155591D-14  0.51075808D-14  0.32456383D-14
 -0.21751513D-14 -0.65376182D-13  0.72730576D-12  0.71446114D-13  0.46186080D+00
  0.43302386D+00  0.30833879D+00 -0.18833961D-10 -0.17658035D-10 -0.12573573D-10
  0.69524432D-13  0.65183574D-13  0.46414588D-13  0.11044479D+00 -0.46087955D-11
 -0.72162835D-13  0.65925728D-02 -0.37576797D-12 -0.65185124D-13 -0.21349599D-04
 -0.22737298D-14 -0.14720353D-14  0.54268272D-12 -0.53886083D-12 -0.38218938D-14
 -0.26304163D-01  0.85654177D-02 -0.34317945D-12  0.16316122D-12 -0.10962077D-12
 -0.53540457D-13 -0.46724285D-02  0.36764345D-02 -0.10052049D-12 -0.11074797D-13