 Molden2AIM, Version 4.0.0 (06/02/2016)           Time: Sat Jun 30 06:20:34 2018
GAUSSIAN              9 MOL ORBITALS    285 PRIMITIVES        7 NUCLEI
  N    1    (CENTRE  1)  -1.68566405 -0.09027978 -0.05835852  CHARGE =  7.0
  H    2    (CENTRE  2)   0.18934678 -0.48482436 -0.17307813  CHARGE =  1.0
  H    3    (CENTRE  3)  -2.58501117 -1.78264479  0.04931240  CHARGE =  1.0
  C    4    (CENTRE  4)  -2.22036017  1.43453079  2.17200585  CHARGE =  6.0
  H    5    (CENTRE  5)  -4.25379051  1.84476576  2.24833189  CHARGE =  1.0
  H    6    (CENTRE  6)  -1.67071065  0.57509468  3.99503598  CHARGE =  1.0
  H    7    (CENTRE  7)  -1.24027261  3.25678424  2.00538303  CHARGE =  1.0
CENTRE ASSIGNMENTS    1  1  1  1  1  1  1  1  1  1  1  1  1  1  1  1  1  1  1  1
CENTRE ASSIGNMENTS    1  1  1  1  1  1  1  1  1  1  1  1  1  1  1  1  1  1  1  1
CENTRE ASSIGNMENTS    1  1  1  1  1  1  1  1  1  1  1  1  1  1  1  1  1  1  1  1
CENTRE ASSIGNMENTS    1  1  1  1  1  1  1  1  1  1  1  1  1  1  1  2  2  2  2  2
CENTRE ASSIGNMENTS    2  2  2  2  2  2  2  2  2  2  2  2  2  2  2  2  2  2  2  2
CENTRE ASSIGNMENTS    2  2  3  3  3  3  3  3  3  3  3  3  3  3  3  3  3  3  3  3
CENTRE ASSIGNMENTS    3  3  3  3  3  3  3  3  3  4  4  4  4  4  4  4  4  4  4  4
CENTRE ASSIGNMENTS    4  4  4  4  4  4  4  4  4  4  4  4  4  4  4  4  4  4  4  4
CENTRE ASSIGNMENTS    4  4  4  4  4  4  4  4  4  4  4  4  4  4  4  4  4  4  4  4
CENTRE ASSIGNMENTS    4  4  4  4  4  4  4  4  4  4  4  4  4  4  4  4  4  4  4  4
CENTRE ASSIGNMENTS    4  4  4  4  5  5  5  5  5  5  5  5  5  5  5  5  5  5  5  5
CENTRE ASSIGNMENTS    5  5  5  5  5  5  5  5  5  5  5  6  6  6  6  6  6  6  6  6
CENTRE ASSIGNMENTS    6  6  6  6  6  6  6  6  6  6  6  6  6  6  6  6  6  6  7  7
CENTRE ASSIGNMENTS    7  7  7  7  7  7  7  7  7  7  7  7  7  7  7  7  7  7  7  7
CENTRE ASSIGNMENTS    7  7  7  7  7
TYPE ASSIGNMENTS      1  1  1  1  1  1  1  1  1  1  1  1  1  1  1  1  1  1  1  2
TYPE ASSIGNMENTS      2  2  3  3  3  4  4  4  2  3  4  2  3  4  2  3  4  5  6  7
TYPE ASSIGNMENTS      8  9 10  5  6  7  8  9 10  5  6  7  8  9 10 11 12 13 17 14
TYPE ASSIGNMENTS     15 18 19 16 20 11 12 13 17 14 15 18 19 16 20  1  1  1  1  1
TYPE ASSIGNMENTS      1  2  3  4  2  3  4  2  3  4  5  6  7  8  9 10  5  6  7  8
TYPE ASSIGNMENTS      9 10  1  1  1  1  1  1  2  3  4  2  3  4  2  3  4  5  6  7
TYPE ASSIGNMENTS      8  9 10  5  6  7  8  9 10  1  1  1  1  1  1  1  1  1  1  1
TYPE ASSIGNMENTS      1  1  1  1  1  1  1  1  2  2  2  3  3  3  4  4  4  2  3  4
TYPE ASSIGNMENTS      2  3  4  2  3  4  5  6  7  8  9 10  5  6  7  8  9 10  5  6
TYPE ASSIGNMENTS      7  8  9 10 11 12 13 17 14 15 18 19 16 20 11 12 13 17 14 15
TYPE ASSIGNMENTS     18 19 16 20  1  1  1  1  1  1  2  3  4  2  3  4  2  3  4  5
TYPE ASSIGNMENTS      6  7  8  9 10  5  6  7  8  9 10  1  1  1  1  1  1  2  3  4
TYPE ASSIGNMENTS      2  3  4  2  3  4  5  6  7  8  9 10  5  6  7  8  9 10  1  1
TYPE ASSIGNMENTS      1  1  1  1  2  3  4  2  3  4  2  3  4  5  6  7  8  9 10  5
TYPE ASSIGNMENTS      6  7  8  9 10
EXPONENTS  0.1142000D+05 0.1712000D+04 0.3893000D+03 0.1100000D+03 0.3557000D+02
EXPONENTS  0.1254000D+02 0.4644000D+01 0.5118000D+00 0.1142000D+05 0.1712000D+04
EXPONENTS  0.3893000D+03 0.1100000D+03 0.3557000D+02 0.1254000D+02 0.4644000D+01
EXPONENTS  0.5118000D+00 0.1293000D+01 0.1787000D+00 0.5760000D-01 0.2663000D+02
EXPONENTS  0.5948000D+01 0.1742000D+01 0.2663000D+02 0.5948000D+01 0.1742000D+01
EXPONENTS  0.2663000D+02 0.5948000D+01 0.1742000D+01 0.5550000D+00 0.5550000D+00
EXPONENTS  0.5550000D+00 0.1725000D+00 0.1725000D+00 0.1725000D+00 0.4910000D-01
EXPONENTS  0.4910000D-01 0.4910000D-01 0.1654000D+01 0.1654000D+01 0.1654000D+01
EXPONENTS  0.1654000D+01 0.1654000D+01 0.1654000D+01 0.4690000D+00 0.4690000D+00
EXPONENTS  0.4690000D+00 0.4690000D+00 0.4690000D+00 0.4690000D+00 0.1510000D+00
EXPONENTS  0.1510000D+00 0.1510000D+00 0.1510000D+00 0.1510000D+00 0.1510000D+00
EXPONENTS  0.1093000D+01 0.1093000D+01 0.1093000D+01 0.1093000D+01 0.1093000D+01
EXPONENTS  0.1093000D+01 0.1093000D+01 0.1093000D+01 0.1093000D+01 0.1093000D+01
EXPONENTS  0.3640000D+00 0.3640000D+00 0.3640000D+00 0.3640000D+00 0.3640000D+00
EXPONENTS  0.3640000D+00 0.3640000D+00 0.3640000D+00 0.3640000D+00 0.3640000D+00
EXPONENTS  0.3387000D+02 0.5095000D+01 0.1159000D+01 0.3258000D+00 0.1027000D+00
EXPONENTS  0.2526000D-01 0.1407000D+01 0.1407000D+01 0.1407000D+01 0.3880000D+00
EXPONENTS  0.3880000D+00 0.3880000D+00 0.1020000D+00 0.1020000D+00 0.1020000D+00
EXPONENTS  0.1057000D+01 0.1057000D+01 0.1057000D+01 0.1057000D+01 0.1057000D+01
EXPONENTS  0.1057000D+01 0.2470000D+00 0.2470000D+00 0.2470000D+00 0.2470000D+00
EXPONENTS  0.2470000D+00 0.2470000D+00 0.3387000D+02 0.5095000D+01 0.1159000D+01
EXPONENTS  0.3258000D+00 0.1027000D+00 0.2526000D-01 0.1407000D+01 0.1407000D+01
EXPONENTS  0.1407000D+01 0.3880000D+00 0.3880000D+00 0.3880000D+00 0.1020000D+00
EXPONENTS  0.1020000D+00 0.1020000D+00 0.1057000D+01 0.1057000D+01 0.1057000D+01
EXPONENTS  0.1057000D+01 0.1057000D+01 0.1057000D+01 0.2470000D+00 0.2470000D+00
EXPONENTS  0.2470000D+00 0.2470000D+00 0.2470000D+00 0.2470000D+00 0.8236000D+04
EXPONENTS  0.1235000D+04 0.2808000D+03 0.7927000D+02 0.2559000D+02 0.8997000D+01
EXPONENTS  0.3319000D+01 0.3643000D+00 0.8236000D+04 0.1235000D+04 0.2808000D+03
EXPONENTS  0.7927000D+02 0.2559000D+02 0.8997000D+01 0.3319000D+01 0.3643000D+00
EXPONENTS  0.9059000D+00 0.1285000D+00 0.4402000D-01 0.1871000D+02 0.4133000D+01
EXPONENTS  0.1200000D+01 0.1871000D+02 0.4133000D+01 0.1200000D+01 0.1871000D+02
EXPONENTS  0.4133000D+01 0.1200000D+01 0.3827000D+00 0.3827000D+00 0.3827000D+00
EXPONENTS  0.1209000D+00 0.1209000D+00 0.1209000D+00 0.3569000D-01 0.3569000D-01
EXPONENTS  0.3569000D-01 0.1097000D+01 0.1097000D+01 0.1097000D+01 0.1097000D+01
EXPONENTS  0.1097000D+01 0.1097000D+01 0.3180000D+00 0.3180000D+00 0.3180000D+00
EXPONENTS  0.3180000D+00 0.3180000D+00 0.3180000D+00 0.1000000D+00 0.1000000D+00
EXPONENTS  0.1000000D+00 0.1000000D+00 0.1000000D+00 0.1000000D+00 0.7610000D+00
EXPONENTS  0.7610000D+00 0.7610000D+00 0.7610000D+00 0.7610000D+00 0.7610000D+00
EXPONENTS  0.7610000D+00 0.7610000D+00 0.7610000D+00 0.7610000D+00 0.2680000D+00
EXPONENTS  0.2680000D+00 0.2680000D+00 0.2680000D+00 0.2680000D+00 0.2680000D+00
EXPONENTS  0.2680000D+00 0.2680000D+00 0.2680000D+00 0.2680000D+00 0.3387000D+02
EXPONENTS  0.5095000D+01 0.1159000D+01 0.3258000D+00 0.1027000D+00 0.2526000D-01
EXPONENTS  0.1407000D+01 0.1407000D+01 0.1407000D+01 0.3880000D+00 0.3880000D+00
EXPONENTS  0.3880000D+00 0.1020000D+00 0.1020000D+00 0.1020000D+00 0.1057000D+01
EXPONENTS  0.1057000D+01 0.1057000D+01 0.1057000D+01 0.1057000D+01 0.1057000D+01
EXPONENTS  0.2470000D+00 0.2470000D+00 0.2470000D+00 0.2470000D+00 0.2470000D+00
EXPONENTS  0.2470000D+00 0.3387000D+02 0.5095000D+01 0.1159000D+01 0.3258000D+00
EXPONENTS  0.1027000D+00 0.2526000D-01 0.1407000D+01 0.1407000D+01 0.1407000D+01
EXPONENTS  0.3880000D+00 0.3880000D+00 0.3880000D+00 0.1020000D+00 0.1020000D+00
EXPONENTS  0.1020000D+00 0.1057000D+01 0.1057000D+01 0.1057000D+01 0.1057000D+01
EXPONENTS  0.1057000D+01 0.1057000D+01 0.2470000D+00 0.2470000D+00 0.2470000D+00
EXPONENTS  0.2470000D+00 0.2470000D+00 0.2470000D+00 0.3387000D+02 0.5095000D+01
EXPONENTS  0.1159000D+01 0.3258000D+00 0.1027000D+00 0.2526000D-01 0.1407000D+01
EXPONENTS  0.1407000D+01 0.1407000D+01 0.3880000D+00 0.3880000D+00 0.3880000D+00
EXPONENTS  0.1020000D+00 0.1020000D+00 0.1020000D+00 0.1057000D+01 0.1057000D+01
EXPONENTS  0.1057000D+01 0.1057000D+01 0.1057000D+01 0.1057000D+01 0.2470000D+00
EXPONENTS  0.2470000D+00 0.2470000D+00 0.2470000D+00 0.2470000D+00 0.2470000D+00
MO    1     MO 0.0        OCC NO =    2.0000000  ORB. ENERGY =  -14.133646
  0.41329981D+00  0.77012333D+00  0.13024716D+01  0.19614501D+01  0.24284025D+01
  0.20664609D+01  0.78632649D+00 -0.36827024D-02 -0.21398255D-02 -0.40121928D-02
 -0.68259337D-02 -0.10599954D-01 -0.14066756D-01 -0.14824430D-01 -0.91920922D-02
  0.61145833D-02  0.41229060D-01  0.14129876D-02 -0.80251321D-04  0.11360337D-02
  0.10911468D-02  0.76518747D-03 -0.16898857D-02 -0.16231150D-02 -0.11382403D-02
  0.42968385D-02  0.41270620D-02  0.28941808D-02  0.12942120D-02 -0.27887632D-02
 -0.12195327D-03 -0.71936559D-04  0.50191286D-04 -0.60074140D-03 -0.66308863D-05
  0.84815927D-05 -0.33128011D-04  0.15250172D-02  0.52404512D-03 -0.20490623D-02
  0.13549094D-02 -0.11076937D-02  0.10237897D-02  0.71278440D-03  0.18365256D-03
 -0.89643696D-03  0.53417372D-03  0.14554376D-03 -0.90419812D-03  0.52114648D-05
  0.27553229D-05 -0.79667877D-05 -0.99016349D-05  0.47400338D-04 -0.10440043D-03
  0.19753073D-02 -0.13418549D-03  0.33112797D-04 -0.48708654D-02 -0.19810832D-02
 -0.70352198D-03 -0.10550567D-02  0.23836397D-02  0.60418359D-03  0.38434338D-03
 -0.28501980D-03  0.73652845D-04 -0.11708954D-03  0.67491480D-03  0.35949878D-03
  0.39529053D-03  0.18014461D-03 -0.58045731D-03 -0.44021898D-04  0.18387978D-03
  0.10824439D-03  0.19522321D-03  0.28785651D-03 -0.12281436D-02 -0.67378768D-03
 -0.22445772D-04  0.22673634D-02 -0.36300795D-03 -0.24306352D-03  0.21781889D-02
 -0.58077161D-03 -0.32194206D-03  0.23725425D-03 -0.12370195D-03 -0.48732730D-04
 -0.29702513D-02  0.13062871D-02  0.16639642D-02  0.20886300D-02  0.83717032D-03
 -0.14594164D-03 -0.20063520D-03  0.73022495D-04  0.12761270D-03  0.21595211D-03
  0.69227742D-04 -0.64835436D-04  0.10820587D-03  0.19515374D-03  0.28775408D-03
 -0.12288677D-02 -0.67473444D-03 -0.22470368D-04 -0.11886907D-02 -0.19795191D-02
  0.34016872D-04 -0.97627150D-03 -0.20563610D-02 -0.69249160D-04 -0.62048200D-04
 -0.26380463D-03 -0.24817937D-04  0.55611937D-03 -0.22556747D-02  0.16995554D-02
 -0.38767423D-02  0.11054856D-03  0.25680125D-03  0.69518544D-04 -0.19808572D-03
  0.12856717D-03 -0.23726310D-03  0.35862644D-04 -0.23988795D-04  0.33012493D-03
  0.61542794D-03  0.10401816D-02  0.15637337D-02  0.19212275D-02  0.16227838D-02
  0.61205434D-03 -0.30290911D-05 -0.24506932D-03 -0.45884710D-03 -0.78122644D-03
 -0.12084385D-02 -0.15914710D-02 -0.16536403D-02 -0.10508142D-02  0.70423124D-03
  0.54067001D-03 -0.17783618D-02 -0.68233149D-05  0.78577894D-04  0.73671770D-04
  0.52458689D-04 -0.13536980D-03 -0.12691780D-03 -0.90373032D-04  0.19111389D-03
  0.17918142D-03  0.12758784D-03  0.16278682D-03 -0.74799239D-03 -0.23367895D-02
  0.51726215D-04 -0.18759772D-03 -0.44877923D-03  0.56333368D-05 -0.13125188D-04
 -0.64364820D-05 -0.41834477D-03 -0.19775428D-03  0.61609905D-03 -0.12336352D-03
 -0.38838984D-03  0.11892092D-02  0.28508020D-03  0.26335966D-03 -0.54843986D-03
  0.43561124D-04 -0.17588741D-03  0.81716241D-04  0.75472230D-05  0.27823341D-04
 -0.35370564D-04 -0.15443304D-04 -0.38572470D-04  0.68555470D-04  0.88859574D-04
 -0.17247469D-03 -0.28634199D-04  0.45172206D-04 -0.23431570D-03 -0.22816415D-03
 -0.31175093D-03  0.75173976D-03  0.31406674D-03 -0.40866538D-03  0.19830884D-04
 -0.10452220D-03  0.47637473D-05  0.12079219D-03 -0.79589422D-04 -0.37268653D-04
 -0.18028484D-03  0.39315602D-03  0.22977411D-04  0.32135991D-04 -0.13888727D-04
 -0.25048891D-04 -0.36934575D-04  0.39805828D-03  0.28576930D-03  0.10310414D-04
  0.11186895D-03 -0.96205388D-04 -0.35066302D-04  0.16942171D-03  0.33798842D-03
  0.32799462D-03  0.34794913D-04 -0.25899939D-04 -0.38087714D-04  0.22879457D-03
 -0.11110068D-03 -0.11769389D-03  0.38417343D-03  0.67416767D-03 -0.25303285D-03
  0.45650995D-05  0.36625601D-04 -0.41190700D-04  0.72090416D-04  0.54963967D-04
 -0.47263795D-04  0.37283685D-04  0.67242661D-04  0.99149265D-04  0.21233093D-02
  0.10510052D-02  0.15413727D-04 -0.84577915D-04  0.12239059D-03 -0.34282704D-03
 -0.43725104D-03  0.83829178D-03 -0.53364695D-03 -0.49647041D-04  0.85708321D-04
 -0.11469291D-03  0.11008744D-03  0.17056360D-03 -0.28065104D-03 -0.20493351D-03
  0.44907684D-03 -0.10683058D-02  0.33074295D-04 -0.54677804D-06 -0.32527517D-04
  0.22087862D-04  0.59424203D-04 -0.14996368D-03 -0.13897784D-04 -0.25065227D-04
 -0.36958662D-04  0.39762650D-03  0.28566342D-03  0.10274879D-04 -0.18736387D-05
 -0.14925064D-03 -0.26312070D-04 -0.32057433D-03  0.10757403D-03  0.36954174D-03
 -0.71173995D-05 -0.45535868D-04 -0.34691478D-04  0.17897816D-03 -0.14251731D-03
 -0.36460855D-04  0.29214765D-03 -0.33278354D-03 -0.72163988D-03  0.57528429D-04
 -0.22152975D-04 -0.35375454D-04 -0.28939396D-04 -0.23204467D-04 -0.71804103D-04
MO    2     MO 0.0        OCC NO =    2.0000000  ORB. ENERGY =  -10.046991
  0.23752993D-03  0.44260205D-03  0.74855102D-03  0.11272764D-02  0.13956413D-02
  0.11876277D-02  0.45191426D-03 -0.21165073D-05 -0.19673005D-03 -0.36887068D-03
 -0.62755878D-03 -0.97453252D-03 -0.12932613D-02 -0.13629199D-02 -0.84509730D-03
  0.56215905D-03  0.55894227D-03  0.37514115D-02  0.57679302D-03 -0.34599349D-03
 -0.33232261D-03 -0.23304755D-03  0.85357436D-03  0.81984797D-03  0.57493399D-03
  0.66730741D-03  0.64094079D-03  0.44947192D-03  0.42741228D-03 -0.91379417D-03
 -0.43434142D-05 -0.36789484D-03  0.10864321D-02  0.17538638D-02 -0.30746614D-04
  0.74227282D-04  0.50535827D-04 -0.35892220D-03  0.13565620D-03  0.22326601D-03
 -0.46791724D-03 -0.37442105D-03  0.10315519D-02  0.90214836D-03 -0.13014604D-03
 -0.77200233D-03  0.10081970D-02  0.60135665D-03 -0.19305911D-02  0.17357679D-05
 -0.98690153D-04  0.96954385D-04  0.11103397D-03  0.43739549D-04 -0.68681454D-04
  0.34834829D-03  0.40644624D-03 -0.29982814D-03 -0.13510005D-02  0.12174154D-03
  0.11601506D-02  0.30595558D-03 -0.13410802D-02 -0.26066621D-03  0.16136245D-02
 -0.16385356D-03  0.11869276D-03 -0.25473434D-03  0.35897848D-03  0.30295566D-03
  0.65472579D-03  0.13258218D-03 -0.65903395D-03  0.10947723D-03  0.37198020D-03
  0.49365764D-04  0.89033188D-04  0.13127938D-03 -0.37329636D-03  0.29954295D-03
  0.36491429D-04  0.27190337D-03 -0.14800902D-03 -0.81967933D-04  0.50862793D-03
 -0.72832091D-03 -0.11946307D-02  0.30133615D-05 -0.66419802D-04 -0.41942907D-04
 -0.28457518D-05 -0.75368584D-04  0.78214336D-04  0.96294524D-03  0.12245290D-02
 -0.50789451D-03 -0.43731937D-04  0.30479932D-04  0.13252005D-04  0.12521029D-03
  0.19208995D-03 -0.26571491D-04  0.49474210D-04  0.89228775D-04  0.13156778D-03
 -0.37196066D-03  0.30002178D-03  0.36433252D-04 -0.68989900D-04 -0.30788658D-03
 -0.54710960D-04  0.81317058D-04 -0.93048339D-03 -0.11593707D-02  0.43761248D-04
 -0.47570059D-04 -0.45011794D-04  0.37092076D-03 -0.58314967D-03  0.21222891D-03
  0.55549192D-04 -0.47108810D-03 -0.11994977D-02  0.48030587D-04 -0.84516845D-04
  0.36486258D-04 -0.77042764D-04 -0.10684813D-03 -0.14297902D-03  0.33109221D+00
  0.61723116D+00  0.10432294D+01  0.15683155D+01  0.19268568D+01  0.16275386D+01
  0.61384767D+00 -0.30379664D-02 -0.38345025D-02 -0.71793985D-02 -0.12223540D-01
 -0.18907958D-01 -0.24901116D-01 -0.25873854D-01 -0.16441673D-01  0.11018827D-01
  0.32420531D-01 -0.60117786D-02 -0.65170789D-03  0.32793185D-03  0.30745696D-03
  0.21892767D-03 -0.87524341D-03 -0.82059633D-03 -0.58431347D-03 -0.10356760D-02
 -0.97101207D-03 -0.69141844D-03 -0.61230953D-03  0.14601066D-02  0.90999625D-03
 -0.18964431D-03  0.51034767D-03  0.62448447D-03 -0.18669861D-05  0.11590688D-04
  0.44380634D-04  0.38627664D-03 -0.19232898D-03 -0.19394766D-03  0.57727134D-03
  0.34124700D-03 -0.96798478D-03  0.21164604D-04  0.23857128D-03 -0.25973588D-03
 -0.22756973D-03 -0.15772884D-03  0.25666904D-03  0.20767453D-04 -0.19756942D-04
 -0.10105111D-05  0.35707606D-04  0.43954605D-04 -0.10369626D-03 -0.16107580D-02
  0.64891164D-03  0.17817474D-03  0.29565046D-02  0.18272858D-02  0.15047203D-03
  0.18757695D-02 -0.37740207D-02 -0.68499625D-03 -0.10147555D-02  0.33040557D-03
 -0.14290489D-03 -0.10963245D-03 -0.53146194D-03 -0.31528068D-03  0.29018441D-03
 -0.45975477D-03  0.74399535D-03  0.38712951D-04  0.70170956D-03 -0.46480664D-04
 -0.83829792D-04 -0.12360698D-03  0.48278289D-03  0.32678439D-03  0.84148138D-05
 -0.19542783D-02  0.37649121D-03  0.78000230D-04 -0.24471585D-02  0.18771376D-03
 -0.39907139D-03 -0.13804251D-03  0.47565805D-04  0.33089402D-04 -0.24229586D-02
  0.11498236D-02  0.12731350D-02  0.12448991D-02 -0.12148179D-04  0.27817925D-03
 -0.37561930D-03  0.19019316D-03  0.18542614D-03  0.25328060D-03  0.96250405D-04
  0.12621006D-03 -0.65816712D-05 -0.11870315D-04 -0.17502773D-04  0.15455484D-02
  0.12404054D-03 -0.43858699D-04  0.43747531D-03 -0.64158298D-03  0.16955597D-02
  0.57049032D-03 -0.96840742D-03  0.14460939D-02  0.49323161D-04 -0.88357007D-04
  0.97436979D-04  0.89242617D-03  0.65783255D-03 -0.15502587D-02  0.61403486D-03
 -0.15845709D-02  0.24679547D-02  0.11144836D-03  0.11777737D-03 -0.22922573D-03
  0.46354043D-04 -0.24807085D-03  0.40510710D-03 -0.46428877D-04 -0.83736392D-04
 -0.12346926D-03  0.48445349D-03  0.32934146D-03  0.84817098D-05  0.95542972D-03
  0.17396700D-02 -0.15687549D-03  0.13484880D-02  0.19656453D-02 -0.70492355D-03
  0.54923805D-04  0.13773445D-03  0.17591135D-04  0.30210829D-03 -0.15362661D-02
  0.12341578D-02 -0.32105490D-02  0.25077441D-03  0.96684503D-03  0.66144329D-04
 -0.26420032D-03  0.19805600D-03 -0.50941356D-03 -0.95519629D-04  0.13129277D-03
MO    3     MO 0.0        OCC NO =    2.0000000  ORB. ENERGY =   -0.841001
 -0.81555200D-02 -0.15196611D-01 -0.25701278D-01 -0.38704701D-01 -0.47918931D-01
 -0.40776848D-01 -0.15516343D-01  0.72669653D-04 -0.66702906D-01 -0.12506857D+00
 -0.21277885D+00 -0.33042309D+00 -0.43849066D+00 -0.46210897D+00 -0.28653704D+00
  0.19060455D+00  0.95106088D-01  0.51037620D-01  0.27524997D-02  0.37607494D-01
  0.36121549D-01  0.25330923D-01 -0.54686236D-01 -0.52525476D-01 -0.36834489D-01
  0.15006717D+00  0.14413772D+00  0.10107932D+00  0.98235656D-02 -0.13894639D-01
  0.41652181D-01  0.19358456D-03  0.11244395D-03  0.30652647D-02 -0.25025985D-04
  0.48274629D-04 -0.27149444D-04  0.28251063D-02  0.14997647D-02 -0.43248709D-02
  0.35776628D-02 -0.87004394D-02  0.15717106D-01 -0.93029513D-03  0.91952602D-03
  0.10769111D-04 -0.11154439D-02 -0.38680284D-02  0.86426391D-02 -0.31164658D-03
  0.43164255D-04  0.26848232D-03 -0.41197476D-03  0.46532845D-04  0.13848457D-03
  0.38662356D-02 -0.25027306D-02  0.83997604D-03 -0.65283465D-02 -0.59812034D-02
 -0.59187011D-02 -0.50703602D-02  0.13489395D-01  0.33987730D-02 -0.52048735D-02
 -0.44870782D-04 -0.23585192D-03  0.36684531D-03  0.30100691D-03 -0.24313224D-03
 -0.99770949D-03 -0.16639456D-03  0.95068801D-03 -0.10282642D-03 -0.85676083D-03
  0.19616412D-01  0.35379006D-01  0.52166324D-01  0.22140399D-01 -0.58839783D-03
 -0.29151884D-04 -0.20784554D-01  0.42735594D-02  0.40959102D-02 -0.11664299D-02
  0.13665266D-02  0.30038264D-02  0.65793376D-03 -0.53451626D-04  0.28574936D-03
  0.24885141D-02 -0.12895390D-02 -0.11989750D-02 -0.31360576D-02 -0.37158399D-02
  0.15539448D-02 -0.35664995D-03  0.12093353D-03  0.23571642D-03 -0.76440444D-04
 -0.47620893D-03  0.12093756D-03  0.19615948D-01  0.35378170D-01  0.52165090D-01
  0.22123094D-01 -0.60510517D-03 -0.29940384D-04  0.10412535D-01  0.18861301D-01
  0.15936152D-02  0.78475433D-04  0.19342960D-02  0.29055216D-02 -0.33929939D-03
 -0.52312416D-03  0.36685919D-03 -0.11389527D-02  0.26863781D-02 -0.15474254D-02
  0.36515639D-02  0.93097397D-03  0.29138235D-02 -0.76972773D-04 -0.94412423D-04
  0.17138520D-03 -0.40487635D-03  0.31884839D-03  0.54012894D-03 -0.46400592D-02
 -0.86501254D-02 -0.14620236D-01 -0.21979003D-01 -0.27003745D-01 -0.22808979D-01
 -0.86027079D-02  0.42575281D-04 -0.25163577D-01 -0.47114155D-01 -0.80215881D-01
 -0.12408177D+00 -0.16341133D+00 -0.16979484D+00 -0.10789700D+00  0.72310057D-01
  0.32412076D-01  0.19560552D-03 -0.16816681D-02  0.24707706D-01  0.23165045D-01
  0.16494892D-01 -0.68099824D-01 -0.63847914D-01 -0.45463518D-01 -0.89196146D-01
 -0.83627056D-01 -0.59547446D-01  0.47085691D-02 -0.13031713D-01 -0.17276043D-01
 -0.23039891D-03  0.58870902D-03  0.65448009D-03 -0.24444575D-04  0.63529425D-04
  0.64878166D-04 -0.60534246D-02  0.42494903D-03  0.56284756D-02 -0.54008046D-02
 -0.72142802D-02  0.19766840D-01 -0.43767148D-03  0.31250746D-03  0.12516402D-03
 -0.53424956D-03 -0.12827306D-02  0.29675979D-02  0.11179514D-03 -0.26940649D-04
 -0.84854490D-04  0.16997145D-03 -0.45386823D-04  0.16720679D-04 -0.20643381D-02
  0.15219978D-02  0.52103036D-03  0.27477472D-02  0.31954957D-02  0.17828476D-02
  0.34452671D-02 -0.77614891D-02 -0.33459387D-02  0.28381745D-02  0.22982009D-03
 -0.12233682D-03 -0.32450211D-04 -0.36869266D-03 -0.26680835D-03  0.69150363D-05
 -0.32076762D-03  0.63381881D-03  0.90435598D-04  0.20959392D-03  0.59583390D-02
  0.10746110D-01  0.15845133D-01  0.97938249D-02  0.44599623D-03 -0.43950543D-05
  0.54120549D-02 -0.24465224D-02 -0.20625936D-02  0.23948972D-03 -0.88374701D-03
 -0.11323511D-02 -0.26934793D-03  0.18089557D-03 -0.74078241D-04  0.30052273D-03
 -0.18491291D-03 -0.11560982D-03 -0.22238286D-02 -0.22421772D-02  0.17037116D-02
 -0.32284436D-03  0.21834633D-03  0.10449803D-03  0.23230876D-03  0.27382451D-04
 -0.16331059D-03  0.57751618D-02  0.10415742D-01  0.15358006D-01  0.11105850D-01
  0.15070414D-02  0.87643619D-04 -0.72979524D-03  0.56488740D-03 -0.57634762D-02
  0.16910414D-03 -0.63378381D-03 -0.15703996D-02  0.88952625D-04 -0.14544822D-03
  0.26874189D-03 -0.93122073D-03 -0.95936543D-03  0.18905862D-02  0.15888716D-03
 -0.10931011D-03  0.11986030D-02  0.19393778D-03  0.59913674D-04 -0.25385145D-03
  0.19034731D-03 -0.18848601D-03  0.23101435D-03  0.59578556D-02  0.10745238D-01
  0.15843847D-01  0.97999389D-02  0.45792724D-03 -0.50994406D-05 -0.18150989D-02
 -0.58381137D-02 -0.14799855D-02  0.36539218D-03 -0.81411196D-03 -0.11402491D-02
  0.21237646D-04  0.31640176D-03 -0.97741025D-04 -0.10457973D-02  0.13652069D-02
 -0.31940960D-03  0.45227731D-03  0.34151273D-03  0.25826922D-02  0.12771086D-03
 -0.22072501D-03  0.93014152D-04 -0.49377173D-03  0.13479922D-03 -0.21521134D-04
MO    4     MO 0.0        OCC NO =    2.0000000  ORB. ENERGY =   -0.622771
  0.27619828D-02  0.51465483D-02  0.87041035D-02  0.13107898D-01  0.16228427D-01
  0.13809659D-01  0.52548301D-02 -0.24610611D-04  0.27410345D-01  0.51394653D-01
  0.87437596D-01  0.13578135D+00  0.18018975D+00  0.18989527D+00  0.11774718D+00
 -0.78325469D-01 -0.41744029D-01 -0.24948844D-01  0.16930968D-02 -0.11625613D+00
 -0.11166262D+00 -0.78305536D-01  0.27382363D+00  0.26300432D+00  0.18443678D+00
  0.14823148D+00  0.14237457D+00  0.99842873D-01 -0.27665764D-01  0.64766719D-01
  0.32701247D-01 -0.16661516D-02  0.36910975D-02  0.71009989D-03 -0.10403979D-04
  0.51286971D-04  0.17140090D-03 -0.12751471D-01 -0.54669466D-02  0.18218418D-01
 -0.65075253D-02 -0.41158708D-02  0.19887595D-01 -0.23185066D-02 -0.98289021D-03
  0.33013969D-02 -0.12425175D-02 -0.54977517D-03  0.31870226D-02  0.56742374D-04
  0.18261651D-03 -0.23935889D-03 -0.10361475D-03 -0.22448853D-03  0.37741945D-03
 -0.60072915D-03  0.24775033D-04 -0.88135681D-03  0.17710850D-02  0.41885952D-03
  0.49996241D-03  0.31102411D-04 -0.49318462D-03  0.21441080D-02 -0.24774934D-02
  0.63486302D-04 -0.92053243D-04  0.40591410D-03 -0.18661719D-03 -0.15876881D-03
 -0.66668216D-03 -0.38417131D-05  0.43492853D-03 -0.55106013D-03  0.15456489D-04
 -0.16178491D-01 -0.29178574D-01 -0.43023791D-01 -0.23463763D-01 -0.22900915D-02
  0.75209044D-04  0.16832395D-01  0.10814381D-02  0.17888121D-02  0.25076350D-02
  0.20673808D-02  0.21979497D-02 -0.18675239D-03  0.21999582D-03  0.10703374D-03
 -0.44700790D-02  0.20452740D-02  0.24248050D-02 -0.52108420D-03 -0.13028350D-02
  0.95670206D-03  0.24755127D-03 -0.14537830D-03 -0.10217298D-03 -0.34071640D-03
 -0.47484153D-03  0.37488389D-04 -0.16176801D-01 -0.29175527D-01 -0.43019297D-01
 -0.23445143D-01 -0.22662405D-02  0.75291460D-04 -0.11235479D-01 -0.12040554D-01
  0.40363772D-02 -0.28784589D-02 -0.43536110D-03  0.26293766D-02 -0.32870906D-04
  0.29587261D-03  0.94377266D-04 -0.79559227D-03 -0.13886744D-02  0.21842667D-02
 -0.61561876D-02  0.13228696D-02  0.29040114D-02 -0.11782362D-03  0.27665808D-03
 -0.15883446D-03  0.38788521D-03  0.25657205D-03  0.29480815D-03 -0.69603403D-02
 -0.12975657D-01 -0.21931146D-01 -0.32969696D-01 -0.40507081D-01 -0.34214706D-01
 -0.12904528D-01  0.63865230D-04 -0.46641774D-01 -0.87328117D-01 -0.14868359D+00
 -0.22999091D+00 -0.30288994D+00 -0.31472204D+00 -0.19999173D+00  0.13402981D+00
  0.59799131D-01  0.43283224D-01 -0.82648015D-03 -0.29168640D-01 -0.27347454D-01
 -0.19473017D-01  0.74241293D-01  0.69605931D-01  0.49563570D-01  0.69996695D-01
  0.65626351D-01  0.46729871D-01 -0.67768894D-02  0.17046633D-01  0.14861606D-01
  0.31801076D-04  0.33951087D-03  0.22773307D-02 -0.15695980D-04  0.42732488D-04
  0.54469417D-04  0.38563038D-02 -0.14922051D-02 -0.23640986D-02  0.48275995D-02
  0.49363367D-02 -0.13004101D-01  0.63201276D-03 -0.78593183D-03  0.15391907D-03
  0.14473594D-02  0.88142596D-03 -0.21156619D-02 -0.18954437D-04  0.10662430D-03
 -0.87669858D-04 -0.16245941D-03  0.46182806D-04 -0.11285381D-03 -0.27718673D-02
  0.19990249D-02  0.22249413D-04  0.38819458D-02  0.39741984D-02  0.19905525D-02
  0.44336561D-02 -0.99712731D-02 -0.20573007D-02  0.53941566D-03 -0.20417127D-03
  0.66616096D-04  0.21635231D-03  0.26567405D-03  0.84669702D-04 -0.70192024D-03
  0.34683976D-03 -0.28451799D-03  0.52863303D-04 -0.10895818D-02  0.21301655D-01
  0.38418411D-01  0.56647925D-01  0.27261491D-01 -0.30580613D-03 -0.18976326D-04
  0.18165252D-01 -0.23444729D-02  0.63727241D-03  0.16280912D-02  0.70114762D-03
  0.13331156D-02 -0.10445610D-02  0.12426897D-03  0.19529070D-03  0.33137841D-02
 -0.18195499D-02 -0.14942342D-02 -0.15024153D-02  0.76387434D-04  0.22390203D-04
 -0.27628728D-03  0.18445870D-03  0.91828578D-04  0.82359079D-04 -0.13508289D-03
 -0.24842221D-03  0.19857812D-01  0.35814383D-01  0.52808286D-01  0.23907442D-01
 -0.26689745D-02 -0.72226945D-04 -0.52244968D-02  0.88863235D-02 -0.13188550D-01
 -0.59089234D-03  0.10923958D-02 -0.92975718D-03  0.24992848D-03 -0.28162158D-03
  0.14168371D-02 -0.12267426D-02 -0.32763667D-03  0.15543793D-02 -0.15584284D-02
  0.22213992D-02 -0.36168233D-02  0.14016926D-03 -0.12147472D-03 -0.18694538D-04
  0.34428440D-03 -0.16936340D-03  0.27449991D-03  0.21299175D-01  0.38413939D-01
  0.56641331D-01  0.27237792D-01 -0.34269667D-03 -0.18932270D-04 -0.95904099D-02
 -0.15353291D-01  0.28783570D-02 -0.13757183D-02 -0.70092482D-03  0.15477015D-02
  0.59543109D-03  0.89534864D-03  0.63370139D-04 -0.50472909D-03  0.19158447D-02
 -0.14111156D-02  0.46767005D-02 -0.61228131D-03 -0.10730964D-02  0.76361764D-04
 -0.12965887D-03  0.53297103D-04 -0.42775461D-03  0.31884585D-03  0.30269657D-04
MO    5     MO 0.0        OCC NO =    2.0000000  ORB. ENERGY =   -0.453649
 -0.60097384D-06 -0.11198263D-05 -0.18939070D-05 -0.28521189D-05 -0.35311082D-05
 -0.30048138D-05 -0.11433871D-05  0.53549694D-08  0.14433075D-05  0.27062150D-05
  0.46040769D-05  0.71496454D-05  0.94879952D-05  0.99990446D-05  0.62000455D-05
 -0.41242727D-05 -0.61205373D-05  0.14964273D-04  0.10679941D-04  0.71179253D+00
  0.68366822D+00  0.47943535D+00  0.33304371D+00  0.31988450D+00  0.22432509D+00
 -0.56992065D-01 -0.54740198D-01 -0.38387605D-01  0.15807984D+00  0.73973820D-01
 -0.12654139D-01  0.13311500D-01  0.62280795D-02 -0.10569438D-02 -0.26915373D-04
 -0.12979438D-04  0.31569942D-05  0.22367161D-01 -0.20361156D-01 -0.20060052D-02
 -0.33032394D-01  0.23274265D-01  0.15202928D-01 -0.34071524D-03  0.11016635D-02
 -0.76094825D-03  0.21898012D-02  0.95881355D-02  0.42908487D-02 -0.43056157D-03
  0.44678508D-03 -0.16223513D-04  0.75196726D-03  0.24082740D-03  0.21298461D-04
 -0.12686923D-02 -0.14309188D-02 -0.37851951D-03 -0.12941329D-02  0.31506847D-02
 -0.51820201D-02  0.51002098D-02  0.11420717D-02  0.63175786D-02  0.10205741D-01
 -0.14720224D-03 -0.21197995D-04 -0.48426004D-04 -0.15395365D-03 -0.29933859D-03
  0.52041840D-03  0.59556037D-03  0.36293258D-03 -0.37514039D-03 -0.54917190D-03
  0.31021663D-01  0.55948846D-01  0.82496541D-01  0.63532283D-01  0.86033308D-02
  0.40102122D-04 -0.24314808D-01  0.14910920D-01  0.28168247D-02 -0.80212540D-02
  0.57224255D-02  0.93735081D-04  0.31120655D-03  0.14538085D-03 -0.65603665D-04
  0.82494447D-02 -0.30203805D-02 -0.52290641D-02 -0.88120071D-02 -0.12875937D-02
  0.20259572D-02 -0.20724951D-03  0.16538021D-03  0.41869304D-04 -0.37838073D-03
  0.64553429D-03 -0.15976048D-03 -0.31025880D-01 -0.55956453D-01 -0.82507758D-01
 -0.63553387D-01 -0.86044064D-02 -0.39776911D-04 -0.43600973D-02 -0.28315692D-01
 -0.51186667D-03 -0.71976924D-03 -0.98121896D-02  0.61044243D-03  0.31497058D-03
  0.15142432D-03  0.16128859D-04  0.28998884D-02 -0.80045323D-02  0.51046438D-02
 -0.95460720D-02  0.19451340D-02  0.59167289D-03  0.20504276D-03 -0.95542336D-04
 -0.10950043D-03  0.52446726D-03  0.19132708D-03  0.54050777D-03 -0.14312156D-05
 -0.26681112D-05 -0.45095780D-05 -0.67793729D-05 -0.83292429D-05 -0.70353772D-05
 -0.26534854D-05  0.13132247D-07 -0.18295798D-05 -0.34255507D-05 -0.58322931D-05
 -0.90216706D-05 -0.11881223D-04 -0.12345352D-04 -0.78449167D-05  0.52574807D-05
  0.33136591D-06  0.25807762D-04 -0.46764791D-05  0.25204217D+00  0.23630556D+00
  0.16826363D+00  0.11789183D+00  0.11053108D+00  0.78704715D-01 -0.20189672D-01
 -0.18929101D-01 -0.13478647D-01  0.57165598D-01  0.26736239D-01 -0.45659124D-02
  0.78315019D-02  0.36674276D-02 -0.62318093D-03  0.71201573D-04  0.33780003D-04
 -0.54903279D-05 -0.26913187D-02  0.14507654D-02  0.12405533D-02  0.18071427D-02
 -0.15181012D-01 -0.74675011D-02  0.86318706D-03 -0.12504408D-02  0.38725377D-03
 -0.22420850D-02 -0.48004290D-02 -0.20187381D-02 -0.26582064D-04  0.60695803D-04
 -0.34113739D-04  0.11824466D-03  0.42987329D-03  0.18869014D-03 -0.12187098D-02
  0.98671890D-05 -0.30075853D-03 -0.27935458D-03 -0.12271417D-02 -0.23055837D-02
  0.39354839D-02  0.11975401D-02  0.32078593D-02  0.57887338D-02  0.12575263D-04
  0.99529673D-04  0.22510625D-04  0.16080123D-03 -0.97903824D-04 -0.53848949D-03
 -0.19852702D-03 -0.20068520D-03  0.47095762D-03  0.80599278D-03 -0.15550170D-01
 -0.28045371D-01 -0.41352883D-01 -0.27687453D-01  0.18587727D-02  0.98302824D-04
 -0.10845409D-01  0.74171084D-02  0.16207649D-02 -0.18275873D-02  0.29915294D-02