 Molden2AIM, Version 4.0.0 (06/02/2016)           Time: Sat Jun 30 03:13:28 2018
GAUSSIAN             22 MOL ORBITALS    446 PRIMITIVES        6 NUCLEI
  C    1    (CENTRE  1)  -0.15850267  1.59209804  0.00000000  CHARGE =  6.0
  Se   2    (CENTRE  2)  -0.50045428 -2.08993505  0.00000000  CHARGE = 34.0
  H    3    (CENTRE  3)  -2.08714581  2.34703040  0.00000000  CHARGE =  1.0
  H    4    (CENTRE  4)   0.82352753  2.23473720  1.70346527  CHARGE =  1.0
  H    5    (CENTRE  5)   0.82352753  2.23473720 -1.70346527  CHARGE =  1.0
  H    6    (CENTRE  6)   2.23874342 -2.60081684  0.00000000  CHARGE =  1.0
CENTRE ASSIGNMENTS    1  1  1  1  1  1  1  1  1  1  1  1  1  1  1  1  1  1  1  1
CENTRE ASSIGNMENTS    1  1  1  1  1  1  1  1  1  1  1  1  1  1  1  1  1  1  1  1
CENTRE ASSIGNMENTS    1  1  1  1  1  1  1  1  1  1  1  1  1  1  1  1  1  1  1  1
CENTRE ASSIGNMENTS    1  1  1  1  1  1  1  1  1  1  1  1  1  1  1  2  2  2  2  2
CENTRE ASSIGNMENTS    2  2  2  2  2  2  2  2  2  2  2  2  2  2  2  2  2  2  2  2
CENTRE ASSIGNMENTS    2  2  2  2  2  2  2  2  2  2  2  2  2  2  2  2  2  2  2  2
CENTRE ASSIGNMENTS    2  2  2  2  2  2  2  2  2  2  2  2  2  2  2  2  2  2  2  2
CENTRE ASSIGNMENTS    2  2  2  2  2  2  2  2  2  2  2  2  2  2  2  2  2  2  2  2
CENTRE ASSIGNMENTS    2  2  2  2  2  2  2  2  2  2  2  2  2  2  2  2  2  2  2  2
CENTRE ASSIGNMENTS    2  2  2  2  2  2  2  2  2  2  2  2  2  2  2  2  2  2  2  2
CENTRE ASSIGNMENTS    2  2  2  2  2  2  2  2  2  2  2  2  2  2  2  2  2  2  2  2
CENTRE ASSIGNMENTS    2  2  2  2  2  2  2  2  2  2  2  2  2  2  2  2  2  2  2  2
CENTRE ASSIGNMENTS    2  2  2  2  2  2  2  2  2  2  2  2  2  2  2  2  2  2  2  2
CENTRE ASSIGNMENTS    2  2  2  2  2  2  2  2  2  2  2  2  2  2  2  2  2  2  2  2
CENTRE ASSIGNMENTS    2  2  2  2  2  2  2  2  2  2  2  2  2  2  2  2  2  2  2  2
CENTRE ASSIGNMENTS    2  2  2  2  2  2  2  2  2  2  2  2  2  2  2  2  2  2  2  2
CENTRE ASSIGNMENTS    2  2  2  2  2  2  2  2  2  2  2  2  2  2  2  2  2  2  3  3
CENTRE ASSIGNMENTS    3  3  3  3  3  3  3  3  3  3  3  3  3  3  3  3  3  3  3  3
CENTRE ASSIGNMENTS    3  3  3  3  3  4  4  4  4  4  4  4  4  4  4  4  4  4  4  4
CENTRE ASSIGNMENTS    4  4  4  4  4  4  4  4  4  4  4  4  5  5  5  5  5  5  5  5
CENTRE ASSIGNMENTS    5  5  5  5  5  5  5  5  5  5  5  5  5  5  5  5  5  5  5  6
CENTRE ASSIGNMENTS    6  6  6  6  6  6  6  6  6  6  6  6  6  6  6  6  6  6  6  6
CENTRE ASSIGNMENTS    6  6  6  6  6  6
TYPE ASSIGNMENTS      1  1  1  1  1  1  1  1  1  1  1  1  1  1  1  1  1  1  1  2
TYPE ASSIGNMENTS      2  2  3  3  3  4  4  4  2  3  4  2  3  4  2  3  4  5  6  7
TYPE ASSIGNMENTS      8  9 10  5  6  7  8  9 10  5  6  7  8  9 10 11 12 13 17 14
TYPE ASSIGNMENTS     15 18 19 16 20 11 12 13 17 14 15 18 19 16 20  1  1  1  1  1
TYPE ASSIGNMENTS      1  1  1  1  1  1  1  1  1  1  1  1  1  1  1  1  1  1  1  1
TYPE ASSIGNMENTS      1  1  1  1  1  1  1  1  1  1  1  1  1  1  1  1  1  1  1  1
TYPE ASSIGNMENTS      1  1  1  1  1  1  1  1  1  1  1  1  1  1  1  1  1  1  1  1
TYPE ASSIGNMENTS      1  1  1  1  1  1  1  1  1  1  2  2  2  2  2  2  2  2  2  2
TYPE ASSIGNMENTS      2  3  3  3  3  3  3  3  3  3  3  3  4  4  4  4  4  4  4  4
TYPE ASSIGNMENTS      4  4  4  2  2  2  2  2  2  2  2  2  2  2  3  3  3  3  3  3
TYPE ASSIGNMENTS      3  3  3  3  3  4  4  4  4  4  4  4  4  4  4  4  2  2  2  2
TYPE ASSIGNMENTS      2  2  2  2  2  2  2  3  3  3  3  3  3  3  3  3  3  3  4  4
TYPE ASSIGNMENTS      4  4  4  4  4  4  4  4  4  2  3  4  2  3  4  2  3  4  5  5
TYPE ASSIGNMENTS      5  5  5  5  5  6  6  6  6  6  6  6  7  7  7  7  7  7  7  8
TYPE ASSIGNMENTS      8  8  8  8  8  8  9  9  9  9  9  9  9 10 10 10 10 10 10 10
TYPE ASSIGNMENTS      5  6  7  8  9 10  5  6  7  8  9 10  5  6  7  8  9 10 11 12
TYPE ASSIGNMENTS     13 17 14 15 18 19 16 20 11 12 13 17 14 15 18 19 16 20  1  1
TYPE ASSIGNMENTS      1  1  1  1  2  3  4  2  3  4  2  3  4  5  6  7  8  9 10  5
TYPE ASSIGNMENTS      6  7  8  9 10  1  1  1  1  1  1  2  3  4  2  3  4  2  3  4
TYPE ASSIGNMENTS      5  6  7  8  9 10  5  6  7  8  9 10  1  1  1  1  1  1  2  3
TYPE ASSIGNMENTS      4  2  3  4  2  3  4  5  6  7  8  9 10  5  6  7  8  9 10  1
TYPE ASSIGNMENTS      1  1  1  1  1  2  3  4  2  3  4  2  3  4  5  6  7  8  9 10
TYPE ASSIGNMENTS      5  6  7  8  9 10
EXPONENTS  0.8236000D+04 0.1235000D+04 0.2808000D+03 0.7927000D+02 0.2559000D+02
EXPONENTS  0.8997000D+01 0.3319000D+01 0.3643000D+00 0.8236000D+04 0.1235000D+04
EXPONENTS  0.2808000D+03 0.7927000D+02 0.2559000D+02 0.8997000D+01 0.3319000D+01
EXPONENTS  0.3643000D+00 0.9059000D+00 0.1285000D+00 0.4402000D-01 0.1871000D+02
EXPONENTS  0.4133000D+01 0.1200000D+01 0.1871000D+02 0.4133000D+01 0.1200000D+01
EXPONENTS  0.1871000D+02 0.4133000D+01 0.1200000D+01 0.3827000D+00 0.3827000D+00
EXPONENTS  0.3827000D+00 0.1209000D+00 0.1209000D+00 0.1209000D+00 0.3569000D-01
EXPONENTS  0.3569000D-01 0.3569000D-01 0.1097000D+01 0.1097000D+01 0.1097000D+01
EXPONENTS  0.1097000D+01 0.1097000D+01 0.1097000D+01 0.3180000D+00 0.3180000D+00
EXPONENTS  0.3180000D+00 0.3180000D+00 0.3180000D+00 0.3180000D+00 0.1000000D+00
EXPONENTS  0.1000000D+00 0.1000000D+00 0.1000000D+00 0.1000000D+00 0.1000000D+00
EXPONENTS  0.7610000D+00 0.7610000D+00 0.7610000D+00 0.7610000D+00 0.7610000D+00
EXPONENTS  0.7610000D+00 0.7610000D+00 0.7610000D+00 0.7610000D+00 0.7610000D+00
EXPONENTS  0.2680000D+00 0.2680000D+00 0.2680000D+00 0.2680000D+00 0.2680000D+00
EXPONENTS  0.2680000D+00 0.2680000D+00 0.2680000D+00 0.2680000D+00 0.2680000D+00
EXPONENTS  0.9563600D+07 0.1432100D+07 0.3259100D+06 0.9231200D+05 0.3011600D+05
EXPONENTS  0.1087200D+05 0.4240100D+04 0.1758400D+04 0.7665900D+03 0.3484300D+03
EXPONENTS  0.1640300D+03 0.7914200D+02 0.3552400D+02 0.1730500D+02 0.8378400D+01
EXPONENTS  0.3740500D+01 0.1689000D+01 0.2552000D+00 0.9563600D+07 0.1432100D+07
EXPONENTS  0.3259100D+06 0.9231200D+05 0.3011600D+05 0.1087200D+05 0.4240100D+04
EXPONENTS  0.1758400D+04 0.7665900D+03 0.3484300D+03 0.1640300D+03 0.7914200D+02
EXPONENTS  0.3552400D+02 0.1730500D+02 0.8378400D+01 0.3740500D+01 0.1689000D+01
EXPONENTS  0.2552000D+00 0.9563600D+07 0.1432100D+07 0.3259100D+06 0.9231200D+05
EXPONENTS  0.3011600D+05 0.1087200D+05 0.4240100D+04 0.1758400D+04 0.7665900D+03
EXPONENTS  0.3484300D+03 0.1640300D+03 0.7914200D+02 0.3552400D+02 0.1730500D+02
EXPONENTS  0.8378400D+01 0.3740500D+01 0.1689000D+01 0.2552000D+00 0.9563600D+07
EXPONENTS  0.1432100D+07 0.3259100D+06 0.9231200D+05 0.3011600D+05 0.1087200D+05
EXPONENTS  0.4240100D+04 0.1758400D+04 0.7665900D+03 0.3484300D+03 0.1640300D+03
EXPONENTS  0.7914200D+02 0.3552400D+02 0.1730500D+02 0.8378400D+01 0.3740500D+01
EXPONENTS  0.1689000D+01 0.2552000D+00 0.5092700D+00 0.1065100D+00 0.3920100D-01
EXPONENTS  0.8004300D+04 0.1896900D+04 0.6147100D+03 0.2335000D+03 0.9785600D+02
EXPONENTS  0.4351400D+02 0.2006300D+02 0.9112700D+01 0.4106300D+01 0.1794900D+01
EXPONENTS  0.2461500D+00 0.8004300D+04 0.1896900D+04 0.6147100D+03 0.2335000D+03
EXPONENTS  0.9785600D+02 0.4351400D+02 0.2006300D+02 0.9112700D+01 0.4106300D+01
EXPONENTS  0.1794900D+01 0.2461500D+00 0.8004300D+04 0.1896900D+04 0.6147100D+03
EXPONENTS  0.2335000D+03 0.9785600D+02 0.4351400D+02 0.2006300D+02 0.9112700D+01
EXPONENTS  0.4106300D+01 0.1794900D+01 0.2461500D+00 0.8004300D+04 0.1896900D+04
EXPONENTS  0.6147100D+03 0.2335000D+03 0.9785600D+02 0.4351400D+02 0.2006300D+02
EXPONENTS  0.9112700D+01 0.4106300D+01 0.1794900D+01 0.2461500D+00 0.8004300D+04
EXPONENTS  0.1896900D+04 0.6147100D+03 0.2335000D+03 0.9785600D+02 0.4351400D+02
EXPONENTS  0.2006300D+02 0.9112700D+01 0.4106300D+01 0.1794900D+01 0.2461500D+00
EXPONENTS  0.8004300D+04 0.1896900D+04 0.6147100D+03 0.2335000D+03 0.9785600D+02
EXPONENTS  0.4351400D+02 0.2006300D+02 0.9112700D+01 0.4106300D+01 0.1794900D+01
EXPONENTS  0.2461500D+00 0.8004300D+04 0.1896900D+04 0.6147100D+03 0.2335000D+03
EXPONENTS  0.9785600D+02 0.4351400D+02 0.2006300D+02 0.9112700D+01 0.4106300D+01
EXPONENTS  0.1794900D+01 0.2461500D+00 0.8004300D+04 0.1896900D+04 0.6147100D+03
EXPONENTS  0.2335000D+03 0.9785600D+02 0.4351400D+02 0.2006300D+02 0.9112700D+01
EXPONENTS  0.4106300D+01 0.1794900D+01 0.2461500D+00 0.8004300D+04 0.1896900D+04
EXPONENTS  0.6147100D+03 0.2335000D+03 0.9785600D+02 0.4351400D+02 0.2006300D+02
EXPONENTS  0.9112700D+01 0.4106300D+01 0.1794900D+01 0.2461500D+00 0.6243200D+00
EXPONENTS  0.6243200D+00 0.6243200D+00 0.8891700D-01 0.8891700D-01 0.8891700D-01
EXPONENTS  0.3025100D-01 0.3025100D-01 0.3025100D-01 0.3618500D+03 0.1085500D+03
EXPONENTS  0.4143300D+02 0.1757900D+02 0.7862700D+01 0.3518000D+01 0.1534800D+01
EXPONENTS  0.3618500D+03 0.1085500D+03 0.4143300D+02 0.1757900D+02 0.7862700D+01
EXPONENTS  0.3518000D+01 0.1534800D+01 0.3618500D+03 0.1085500D+03 0.4143300D+02
EXPONENTS  0.1757900D+02 0.7862700D+01 0.3518000D+01 0.1534800D+01 0.3618500D+03
EXPONENTS  0.1085500D+03 0.4143300D+02 0.1757900D+02 0.7862700D+01 0.3518000D+01
EXPONENTS  0.1534800D+01 0.3618500D+03 0.1085500D+03 0.4143300D+02 0.1757900D+02
EXPONENTS  0.7862700D+01 0.3518000D+01 0.1534800D+01 0.3618500D+03 0.1085500D+03
EXPONENTS  0.4143300D+02 0.1757900D+02 0.7862700D+01 0.3518000D+01 0.1534800D+01
EXPONENTS  0.6081300D+00 0.6081300D+00 0.6081300D+00 0.6081300D+00 0.6081300D+00
EXPONENTS  0.6081300D+00 0.2220000D+00 0.2220000D+00 0.2220000D+00 0.2220000D+00
EXPONENTS  0.2220000D+00 0.2220000D+00 0.8370000D-01 0.8370000D-01 0.8370000D-01
EXPONENTS  0.8370000D-01 0.8370000D-01 0.8370000D-01 0.4620000D+00 0.4620000D+00
EXPONENTS  0.4620000D+00 0.4620000D+00 0.4620000D+00 0.4620000D+00 0.4620000D+00
EXPONENTS  0.4620000D+00 0.4620000D+00 0.4620000D+00 0.1880000D+00 0.1880000D+00
EXPONENTS  0.1880000D+00 0.1880000D+00 0.1880000D+00 0.1880000D+00 0.1880000D+00
EXPONENTS  0.1880000D+00 0.1880000D+00 0.1880000D+00 0.3387000D+02 0.5095000D+01
EXPONENTS  0.1159000D+01 0.3258000D+00 0.1027000D+00 0.2526000D-01 0.1407000D+01
EXPONENTS  0.1407000D+01 0.1407000D+01 0.3880000D+00 0.3880000D+00 0.3880000D+00
EXPONENTS  0.1020000D+00 0.1020000D+00 0.1020000D+00 0.1057000D+01 0.1057000D+01
EXPONENTS  0.1057000D+01 0.1057000D+01 0.1057000D+01 0.1057000D+01 0.2470000D+00
EXPONENTS  0.2470000D+00 0.2470000D+00 0.2470000D+00 0.2470000D+00 0.2470000D+00
EXPONENTS  0.3387000D+02 0.5095000D+01 0.1159000D+01 0.3258000D+00 0.1027000D+00
EXPONENTS  0.2526000D-01 0.1407000D+01 0.1407000D+01 0.1407000D+01 0.3880000D+00
EXPONENTS  0.3880000D+00 0.3880000D+00 0.1020000D+00 0.1020000D+00 0.1020000D+00
EXPONENTS  0.1057000D+01 0.1057000D+01 0.1057000D+01 0.1057000D+01 0.1057000D+01
EXPONENTS  0.1057000D+01 0.2470000D+00 0.2470000D+00 0.2470000D+00 0.2470000D+00
EXPONENTS  0.2470000D+00 0.2470000D+00 0.3387000D+02 0.5095000D+01 0.1159000D+01
EXPONENTS  0.3258000D+00 0.1027000D+00 0.2526000D-01 0.1407000D+01 0.1407000D+01
EXPONENTS  0.1407000D+01 0.3880000D+00 0.3880000D+00 0.3880000D+00 0.1020000D+00
EXPONENTS  0.1020000D+00 0.1020000D+00 0.1057000D+01 0.1057000D+01 0.1057000D+01
EXPONENTS  0.1057000D+01 0.1057000D+01 0.1057000D+01 0.2470000D+00 0.2470000D+00
EXPONENTS  0.2470000D+00 0.2470000D+00 0.2470000D+00 0.2470000D+00 0.3387000D+02
EXPONENTS  0.5095000D+01 0.1159000D+01 0.3258000D+00 0.1027000D+00 0.2526000D-01
EXPONENTS  0.1407000D+01 0.1407000D+01 0.1407000D+01 0.3880000D+00 0.3880000D+00
EXPONENTS  0.3880000D+00 0.1020000D+00 0.1020000D+00 0.1020000D+00 0.1057000D+01
EXPONENTS  0.1057000D+01 0.1057000D+01 0.1057000D+01 0.1057000D+01 0.1057000D+01
EXPONENTS  0.2470000D+00 0.2470000D+00 0.2470000D+00 0.2470000D+00 0.2470000D+00
EXPONENTS  0.2470000D+00
MO    1     MO 0.0        OCC NO =    2.0000000  ORB. ENERGY = -453.287618
 -0.11147949D-04 -0.20782312D-04 -0.35125769D-04 -0.52805536D-04 -0.64877703D-04
 -0.54799591D-04 -0.20668390D-04  0.10228901D-06  0.79574916D-05  0.14898935D-04
  0.25366712D-04  0.39238446D-04  0.51675653D-04  0.53694313D-04  0.34120326D-04
 -0.22866649D-04 -0.19381264D-04  0.11136901D-03 -0.65386369D-05  0.37700040D-05
  0.35346184D-05  0.25168588D-05  0.11307202D-04  0.10601220D-04  0.75487004D-05
  0.12949151D-16  0.12140652D-16  0.86448678D-17 -0.10286157D-04  0.23812679D-04
 -0.17739366D-16 -0.93458227D-05  0.31105052D-04 -0.22137857D-16 -0.31654420D-06
  0.10140362D-05  0.37478610D-17  0.14649686D-04 -0.22947525D-04  0.82978391D-05
 -0.40239250D-05  0.88923669D-17  0.94914514D-17 -0.27377402D-05  0.89027485D-05
 -0.61650083D-05 -0.26763725D-05 -0.21133106D-16 -0.26319807D-16  0.40595274D-05
 -0.25612854D-05 -0.14982420D-05 -0.58939883D-06 -0.90008480D-17 -0.56539550D-17
  0.18908921D-05 -0.61156658D-05 -0.18257720D-17 -0.58700764D-05  0.13002187D-04
 -0.13978158D-17  0.19740022D-06  0.53448099D-05  0.68751317D-17 -0.27050624D-16
 -0.23552601D-05 -0.60018433D-05  0.22759294D-17  0.45556242D-07  0.71833607D-05
  0.33941050D-18  0.70202239D-05  0.10822169D-04 -0.71671986D-17 -0.48507746D-17
  0.77213044D+00  0.14426897D+01  0.25021646D+01  0.40991849D+01  0.64189979D+01
  0.96396232D+01  0.13748863D+02  0.18165033D+02  0.20948748D+02  0.18854545D+02
  0.10577869D+02  0.25572564D+01  0.12140586D+00 -0.20776191D-02  0.58434472D-03
 -0.22771821D-03  0.21539543D-04  0.21238443D-05  0.76420195D-04  0.14072898D-03
  0.24427015D-03  0.40006875D-03  0.62968981D-03  0.95043339D-03  0.13854550D-02
  0.19025208D-02  0.24161772D-02  0.26020696D-02  0.20758822D-02  0.46498106D-03
 -0.12433489D-02 -0.11056784D-02 -0.21594347D-03 -0.59820783D-05 -0.43320177D-06
 -0.88471654D-08 -0.14883597D-03 -0.26870956D-03 -0.46777218D-03 -0.76599668D-03
 -0.12076374D-02 -0.18222916D-02 -0.26670593D-02 -0.36748573D-02 -0.47342008D-02
 -0.52108664D-02 -0.43867045D-02 -0.10446313D-02  0.35187200D-02  0.47017475D-02
  0.57761930D-03 -0.20182803D-02 -0.89093945D-03  0.44215723D-05  0.53235899D-04
  0.11533498D-03  0.19634270D-03  0.32050066D-03  0.50528304D-03  0.76250049D-03
  0.11159842D-02  0.15394302D-02  0.19857040D-02  0.21952276D-02  0.18591950D-02
  0.45161082D-03 -0.15668235D-02 -0.22113917D-02 -0.26384948D-03  0.12400319D-02
  0.99122607D-03 -0.37552332D-03  0.28672931D-03  0.15786566D-03  0.30390969D-04
 -0.53663464D-03 -0.76912189D-03 -0.10156550D-02 -0.11674442D-02 -0.10739757D-02
 -0.68705165D-03 -0.23781523D-03 -0.26736118D-04 -0.34014859D-06 -0.58941872D-07
 -0.60232179D-09 -0.20078006D-03 -0.28776440D-03 -0.38000393D-03 -0.43679535D-03
 -0.40182442D-03 -0.25705809D-03 -0.88977776D-04 -0.10003230D-04 -0.12726546D-06
 -0.22052906D-07 -0.22535670D-09 -0.33532976D-16 -0.48060532D-16 -0.63465777D-16
 -0.72950710D-16 -0.67110093D-16 -0.42932165D-16 -0.14860488D-16 -0.16706741D-17
 -0.21255047D-19 -0.36831324D-20 -0.37637605D-22  0.33096980D-02  0.47739787D-02
  0.63583219D-02  0.75248401D-02  0.72310887D-02  0.49703172D-02  0.15648783D-02
 -0.75629157D-03 -0.77613822D-03 -0.19546041D-03  0.21310698D-06  0.15744704D-02
  0.22710496D-02  0.30247442D-02  0.35796735D-02  0.34399318D-02  0.23644506D-02
  0.74443488D-03 -0.35977866D-03 -0.36921999D-03 -0.92983296D-04  0.10137802D-06
 -0.34953546D-15 -0.50417736D-15 -0.67149900D-15 -0.79469437D-15 -0.76367145D-15
 -0.52491257D-15 -0.16526597D-15  0.79871551D-16  0.81967546D-16  0.20642470D-16
 -0.22506115D-19 -0.25186585D-02 -0.36512664D-02 -0.48461430D-02 -0.57834080D-02
 -0.55564822D-02 -0.38892413D-02 -0.11743219D-02  0.71886017D-03  0.77312127D-03
  0.20791760D-03 -0.77504899D-04 -0.11768027D-02 -0.17059956D-02 -0.22642825D-02
 -0.27022045D-02 -0.25961770D-02 -0.18171855D-02 -0.54868302D-03  0.33587586D-03
  0.36122849D-03  0.97146157D-04 -0.36212919D-04  0.23071644D-15  0.33446663D-15
  0.44392080D-15  0.52977700D-15  0.50898993D-15  0.35626582D-15  0.10757130D-15
 -0.65849683D-16 -0.70820158D-16 -0.19045857D-16  0.70996742D-17  0.18746617D-04
  0.10371005D-04 -0.64246298D-17  0.31041154D-04  0.42459725D-04 -0.73991044D-17
  0.30809918D-06  0.15420662D-05 -0.31650386D-18  0.30459229D-03  0.31528213D-03
  0.26378623D-03  0.17021702D-03  0.76463814D-04  0.22326196D-04  0.37665661D-05
  0.27030005D-03  0.27978638D-03  0.23408810D-03  0.15105329D-03  0.67855205D-04
  0.19812622D-04  0.33425107D-05 -0.57489234D-03 -0.59506851D-03 -0.49787433D-03
 -0.32127032D-03 -0.14431902D-03 -0.42138818D-04 -0.71090768D-05 -0.18644178D-03
 -0.19298506D-03 -0.16146428D-03 -0.10419031D-03 -0.46803711D-04 -0.13665926D-04
 -0.23055255D-05 -0.33722219D-16 -0.34905719D-16 -0.29204472D-16 -0.18845177D-16
 -0.84655112D-17 -0.24717923D-17 -0.41700650D-18 -0.38697370D-16 -0.40055475D-16
 -0.33513104D-16 -0.21625469D-16 -0.97144561D-17 -0.28364640D-17 -0.47852886D-18
 -0.16436841D-04 -0.15042884D-04  0.31479725D-04  0.11350505D-04  0.17578499D-17
  0.30019773D-17 -0.12742875D-04  0.92520928D-05  0.34907818D-05  0.14860612D-05
 -0.17892787D-18  0.15570068D-18  0.55019998D-06  0.32528609D-05 -0.38030609D-05
  0.31954884D-05  0.91766070D-18 -0.22301478D-17 -0.10605279D-04 -0.99283125D-05
 -0.38471689D-18  0.85747291D-05  0.20854698D-04 -0.13041964D-17  0.23241108D-04
  0.89302398D-05  0.24583471D-17 -0.24288957D-17 -0.96093782D-07  0.22777296D-05
  0.87532258D-19  0.21832634D-05 -0.41796694D-05  0.71948837D-18 -0.18949821D-05
 -0.26535194D-05 -0.98208514D-18  0.68190633D-18  0.30813108D-05  0.55572709D-05
  0.81941928D-05 -0.66234586D-04 -0.73787755D-04 -0.23770276D-05 -0.63165588D-05
 -0.32728245D-05 -0.49638317D-18 -0.23961450D-04  0.62413866D-05 -0.39524408D-17
 -0.54996138D-05  0.85437752D-05 -0.12797296D-16 -0.12865452D-04  0.70442230D-05
  0.58212287D-05  0.33844696D-05  0.39727885D-17 -0.11567011D-17  0.17156034D-05
 -0.14799356D-05 -0.23566777D-06 -0.15915574D-05 -0.40514462D-17  0.61307160D-17
  0.14211325D-05  0.25630709D-05  0.37792465D-05 -0.42352269D-04 -0.42393284D-04
 -0.66454686D-06  0.76330829D-06 -0.23687120D-05 -0.95095232D-06  0.88517540D-05
 -0.36892303D-05  0.15113076D-04 -0.17170230D-05  0.93001888D-05  0.57615697D-05
 -0.34604291D-06  0.72258304D-05 -0.68797875D-05  0.14156726D-05 -0.11253362D-04
  0.16578022D-05  0.14624511D-06 -0.27286682D-05  0.25824231D-05  0.22934679D-05
  0.25203062D-05  0.68142798D-06  0.14211325D-05  0.25630709D-05  0.37792465D-05
 -0.42352269D-04 -0.42393284D-04 -0.66454686D-06  0.76330829D-06 -0.23687120D-05
  0.95095232D-06  0.88517540D-05 -0.36892303D-05 -0.15113076D-04 -0.17170230D-05
  0.93001888D-05 -0.57615697D-05 -0.34604291D-06  0.72258304D-05 -0.68797875D-05
  0.14156726D-05  0.11253362D-04 -0.16578022D-05  0.14624511D-06 -0.27286682D-05
  0.25824231D-05  0.22934679D-05 -0.25203062D-05 -0.68142798D-06 -0.68983221D-05
 -0.12441408D-04 -0.18344849D-04  0.70173631D-04 -0.53634043D-04 -0.85627084D-06
  0.17361806D-04 -0.37316008D-05  0.57785205D-18 -0.80982924D-04  0.20590272D-04
 -0.87458421D-18  0.20313593D-06 -0.54121949D-05 -0.12483940D-17  0.32027883D-04
 -0.15831557D-04 -0.16196326D-04 -0.17555427D-04  0.35634940D-18 -0.21918761D-18
  0.11304295D-04 -0.61670106D-05 -0.51372844D-05 -0.10488316D-04  0.48038638D-18
 -0.38099417D-18
MO    2     MO 0.0        OCC NO =    2.0000000  ORB. ENERGY =  -57.919313
  0.13303335D-03  0.24800442D-03  0.41917115D-03  0.63015154D-03  0.77421398D-03
  0.65394747D-03  0.24664493D-03 -0.12206595D-05 -0.95871269D-04 -0.17950126D-03
 -0.30561626D-03 -0.47274189D-03 -0.62258443D-03 -0.64690511D-03 -0.41107915D-03
  0.27549569D-03  0.27659053D-03 -0.15494820D-02  0.95359511D-04 -0.51086599D-04
 -0.47896934D-04 -0.34105470D-04 -0.14204724D-03 -0.13317832D-03 -0.94830895D-04
 -0.28222290D-15 -0.26460190D-15 -0.18841232D-15  0.13688621D-03 -0.32369476D-03
  0.78502357D-15  0.13592215D-03 -0.44899949D-03  0.39525152D-15  0.47595754D-05
 -0.14319423D-04  0.22019766D-16 -0.18673750D-03  0.29167493D-03 -0.10493742D-03
  0.45108935D-04  0.22939127D-15  0.39395324D-16  0.23884631D-04 -0.96704486D-04
  0.72819855D-04  0.45194216D-04  0.22890764D-15  0.51353438D-15 -0.58219069D-04
  0.37699892D-04  0.20519178D-04  0.78962360D-05 -0.76688953D-16  0.20507851D-15
 -0.18047831D-04  0.79473589D-04  0.55321358D-19  0.76736221D-04 -0.17389211D-03
 -0.28981950D-16 -0.22592727D-04 -0.64528653D-04  0.28815986D-16  0.28212474D-15
  0.34723029D-04  0.79794908D-04  0.97845283D-17 -0.84032743D-06 -0.97185636D-04
 -0.23383384D-16 -0.10332876D-03 -0.14219909D-03 -0.59702009D-17  0.47735140D-16
  0.59111818D-03  0.11044768D-02  0.19155766D-02  0.31382039D-02  0.49141780D-02
  0.73797849D-02  0.10525686D-01  0.13906564D-01  0.16037687D-01  0.14434432D-01
  0.80980755D-02  0.19577531D-02  0.92944411D-04 -0.15905582D-05  0.44735549D-06
 -0.17433372D-06  0.16489980D-07  0.16259467D-08 -0.24651722D+00 -0.45396529D+00
 -0.78796969D+00 -0.12905468D+01 -0.20312612D+01 -0.30659198D+01 -0.44692180D+01
 -0.61371752D+01 -0.77941344D+01 -0.83937883D+01 -0.66964066D+01 -0.14999417D+01
  0.40108103D+01  0.35667110D+01  0.69659312D+00  0.19297063D-01  0.13974276D-02
  0.28539296D-04  0.20404869D-02  0.36839102D-02  0.64129861D-02  0.10501535D-01
  0.16556269D-01  0.24982954D-01  0.36564412D-01  0.50380955D-01  0.64904169D-01
  0.71439081D-01  0.60140121D-01  0.14321515D-01 -0.48240369D-01 -0.64459246D-01
 -0.79189501D-02  0.27669888D-01  0.12214455D-01 -0.60618145D-04 -0.74972026D-03
 -0.16242606D-02 -0.27650909D-02 -0.45136053D-02 -0.71158924D-02 -0.10738281D-01
 -0.15716386D-01 -0.21679769D-01 -0.27964636D-01 -0.30915353D-01 -0.26183012D-01
 -0.63600275D-02  0.22065548D-01  0.31142991D-01  0.37157877D-02 -0.17463348D-01
 -0.13959420D-01  0.52884885D-02 -0.43323172D-02 -0.23188459D-02 -0.43085955D-03
  0.53198900D-01  0.76246361D-01  0.10068624D+00  0.11573376D+00  0.10646783D+00
  0.68110386D-01  0.23575646D-01  0.26504664D-02  0.33720393D-04  0.58431613D-05
  0.59710750D-07  0.38928194D-01  0.55793130D-01  0.73676969D-01  0.84687962D-01
  0.77907631D-01  0.49839646D-01  0.17251435D-01  0.19394738D-02  0.24674834D-04
  0.42757223D-05  0.43693229D-07 -0.15837255D-13 -0.22698459D-13 -0.29974186D-13
 -0.34453816D-13 -0.31695357D-13 -0.20276388D-13 -0.70184444D-14 -0.78904097D-15
 -0.10038524D-16 -0.17395028D-17 -0.17775826D-19 -0.44286804D-01 -0.63880226D-01
 -0.85080196D-01 -0.10068928D+00 -0.96758619D-01 -0.66507417D-01 -0.20939511D-01
  0.10119877D-01  0.10385443D-01  0.26154400D-02 -0.28515674D-05 -0.21404886D-01
 -0.30874862D-01 -0.41121322D-01 -0.48665572D-01 -0.46765787D-01 -0.32144647D-01
 -0.10120574D-01  0.48911819D-02  0.50195366D-02  0.12641056D-02 -0.13782317D-05
 -0.48258697D-14 -0.69609369D-14 -0.92710673D-14 -0.10971967D-13 -0.10543648D-13
 -0.72472181D-14 -0.22817486D-14  0.11027485D-14  0.11316869D-14  0.28500076D-15
 -0.31073122D-18  0.33566706D-01  0.48661217D-01  0.64585595D-01  0.77076728D-01
  0.74052438D-01  0.51832759D-01  0.15650441D-01 -0.95804047D-02 -0.10303554D-01
 -0.27709628D-02  0.10329245D-02  0.15871457D-01  0.23008645D-01  0.30538222D-01
  0.36444446D-01  0.35014461D-01  0.24508256D-01  0.74000503D-02 -0.45299347D-02
 -0.48718639D-02 -0.13102036D-02  0.48840115D-03  0.33421434D-14  0.48450618D-14
  0.64306078D-14  0.76743152D-14  0.73731950D-14  0.51608435D-14  0.15582708D-14
 -0.95389422D-15 -0.10258962D-14 -0.27589704D-15  0.10284542D-15 -0.25552245D-03
 -0.14893761D-03 -0.10043077D-15 -0.45161694D-03 -0.60071667D-03  0.92962623D-16
 -0.43020667D-05 -0.21692744D-04 -0.53760326D-17 -0.27240539D-02 -0.28196561D-02
 -0.23591139D-02 -0.15222984D-02 -0.68383724D-03 -0.19966941D-03 -0.33685453D-04
 -0.17902417D-02 -0.18530713D-02 -0.15504040D-02 -0.10004509D-02 -0.44941620D-03
 -0.13122226D-03 -0.22137999D-04  0.45142957D-02  0.46727274D-02  0.39095179D-02
  0.25227492D-02  0.11332534D-02  0.33089166D-03  0.55823452D-04  0.83549927D-03
  0.86482158D-03  0.72356789D-03  0.46690676D-03  0.20974090D-03  0.61240948D-04
  0.10331723D-04  0.99905275D-15  0.10341151D-14  0.86521019D-15  0.55830627D-15
  0.25079881D-15  0.73229192D-16  0.12354214D-16  0.98454238D-15  0.10190954D-14
  0.85264377D-15  0.55019735D-15  0.24715617D-15  0.72165602D-16  0.12174779D-16
  0.20976489D-03  0.19639760D-03 -0.40616249D-03 -0.14101273D-03 -0.49000164D-16
 -0.73252621D-16  0.16937904D-03 -0.12725279D-03 -0.42126245D-04 -0.19476821D-04
  0.35598686D-16  0.87000496D-16 -0.85254585D-05 -0.45559054D-04  0.54084513D-04
 -0.44956372D-04  0.47024909D-18  0.11309730D-16  0.13993809D-03  0.13164403D-03
 -0.12368644D-16 -0.11084272D-03 -0.27507548D-03 -0.82046552D-17 -0.30897155D-03
 -0.11985660D-03  0.45310586D-16  0.20007979D-16  0.88820461D-06 -0.31649902D-04
 -0.14010623D-17 -0.29809025D-04  0.57871747D-04  0.43099950D-18  0.27144411D-04
  0.37077960D-04  0.37721873D-17 -0.19228386D-18 -0.40312732D-04 -0.72705673D-04
 -0.10720447D-03  0.93713641D-03  0.10496730D-02  0.34286474D-04  0.92098321D-04
  0.39602804D-04  0.76573208D-16  0.33352037D-03 -0.10098113D-03 -0.89790801D-16
  0.78472483D-04 -0.12367217D-03 -0.16554066D-15  0.17084461D-03 -0.90545398D-04
 -0.80299213D-04 -0.58146855D-04 -0.70103545D-16  0.36813583D-16 -0.24728437D-04
  0.22789420D-04  0.19390168D-05  0.20397327D-04 -0.34543151D-16 -0.52215800D-16
 -0.18547527D-04 -0.33451229D-04 -0.49323818D-04  0.60017918D-03  0.59888097D-03
  0.87753842D-05 -0.13043754D-04  0.32173670D-04  0.82997404D-05 -0.12357566D-03
  0.27755935D-04 -0.21412857D-03  0.23948693D-04 -0.13309295D-03 -0.81842823D-04
  0.38253545D-06 -0.92218477D-04  0.91835942D-04 -0.84387722D-05  0.15385937D-03
 -0.53621103D-05 -0.36801355D-05  0.40230430D-04 -0.36550294D-04 -0.29048374D-04
 -0.33926874D-04 -0.62256116D-05 -0.18547527D-04 -0.33451229D-04 -0.49323818D-04
  0.60017918D-03  0.59888097D-03  0.87753842D-05 -0.13043754D-04  0.32173670D-04
 -0.82997404D-05 -0.12357566D-03  0.27755935D-04  0.21412857D-03  0.23948693D-04
 -0.13309295D-03  0.81842823D-04  0.38253545D-06 -0.92218477D-04  0.91835942D-04
 -0.84387722D-05 -0.15385937D-03  0.53621103D-05 -0.36801355D-05  0.40230430D-04
 -0.36550294D-04 -0.29048374D-04  0.33926874D-04  0.62256116D-05  0.88782478D-04
  0.16012286D-03  0.23610106D-03 -0.92028690D-03  0.80845837D-03  0.12772251D-04
 -0.23181444D-03  0.48149717D-04 -0.19183194D-16  0.10686738D-02 -0.27228365D-03
  0.45246859D-17 -0.14465762D-04  0.78823776D-04 -0.11427900D-16 -0.39082278D-03
  0.19496176D-03  0.19586102D-03  0.21631778D-03 -0.11551389D-17 -0.13137127D-16
 -0.15367266D-03  0.83533845D-04  0.70138817D-04  0.14305471D-03  0.10599122D-16
  0.12522251D-17
MO    3     MO 0.0        OCC NO =    2.0000000  ORB. ENERGY =  -51.912191
  0.92371153D-04  0.17220083D-03  0.29104974D-03  0.43754309D-03  0.53757225D-03
  0.45406570D-03  0.17125688D-03 -0.84755983D-06 -0.69938114D-04 -0.13094622D-03
 -0.22294714D-03 -0.34486532D-03 -0.45417550D-03 -0.47191743D-03 -0.29988234D-03
  0.20097417D-03  0.31867988D-03 -0.22180931D-02 -0.24082152D-03  0.85622569D-05
  0.80276601D-05  0.57161722D-05 -0.20589427D-03 -0.19303897D-03 -0.13745524D-03
 -0.43643484D-16 -0.40918540D-16 -0.29136438D-16 -0.55724966D-04  0.20003652D-03
  0.11198400D-14  0.18488633D-03  0.36263235D-03  0.10563742D-14  0.24979650D-05
  0.19100713D-04 -0.73262154D-18  0.83172667D-05  0.21624313D-04 -0.29941580D-04
  0.35648144D-04  0.22303739D-15  0.22682668D-15  0.40840255D-05 -0.54044727D-04
  0.49960702D-04 -0.26530672D-04  0.87301766D-15  0.43897352D-15  0.12132160D-05
 -0.30365105D-04  0.29151889D-04 -0.19396174D-04  0.18042513D-15  0.41438059D-16
  0.24835226D-04  0.30547243D-04  0.22433629D-16 -0.46273063D-04 -0.27654781D-04
  0.80374429D-16 -0.28232615D-04 -0.63986948D-04 -0.14767532D-15  0.38769919D-15
  0.34655077D-04  0.30023280D-04 -0.80444138D-17  0.64310136D-04 -0.77481593D-04
  0.67263477D-17 -0.16827537D-03 -0.12588246D-04  0.17406894D-16  0.14637038D-15
 -0.90191786D-05 -0.16851915D-04 -0.29227535D-04 -0.47882170D-04 -0.74979675D-04
 -0.11259948D-03 -0.16059909D-03 -0.21218394D-03 -0.24470024D-03 -0.22023806D-03
 -0.12355903D-03 -0.29871056D-04 -0.14181297D-05  0.24268461D-07 -0.68256724D-08
  0.26599537D-08 -0.25160125D-09 -0.24808413D-10  0.41842942D-04  0.77054429D-04
  0.13374713D-03  0.21905275D-03  0.34477894D-03  0.52039816D-03  0.75858894D-03
  0.10417020D-02  0.13229482D-02  0.14247313D-02  0.11366239D-02  0.25459468D-03
 -0.68078046D-03 -0.60540065D-03 -0.11823720D-03 -0.32754137D-05 -0.23719433D-06
 -0.48441571D-08 -0.30834866D-04 -0.55669496D-04 -0.96909991D-04 -0.15869420D-03
 -0.25019044D-03 -0.37753050D-03 -0.55254398D-03 -0.76133299D-03 -0.98080089D-03
 -0.10795534D-02 -0.90880887D-03 -0.21641991D-03  0.72898548D-03  0.97407742D-03
  0.11966740D-03 -0.41813416D-03 -0.18457903D-03  0.91603253D-06  0.15810728D-04
  0.34253767D-04  0.58312550D-04  0.95186684D-04  0.15006589D-03  0.22645786D-03
  0.33144030D-03  0.45720112D-03  0.58974164D-03  0.65196883D-03  0.55216926D-03
  0.13412558D-03 -0.46533674D-03 -0.65676945D-03 -0.78361641D-04  0.36828169D-03
  0.29438793D-03 -0.11152807D-03 -0.14843252D-03  0.75004869D-03  0.15985771D-03
 -0.26903766D+02 -0.38559336D+02 -0.50919082D+02 -0.58528918D+02 -0.53842946D+02
 -0.34444808D+02 -0.11922684D+02 -0.13403948D+01 -0.17053089D-01 -0.29550056D-02
 -0.30196941D-04  0.40512874D+02  0.58064344D+02  0.76676194D+02  0.88135420D+02
  0.81079077D+02  0.51868507D+02  0.17953702D+02  0.20184254D+01  0.25679291D-01
  0.44497774D-02  0.45471882D-04 -0.32245811D-11 -0.46215725D-11 -0.61029639D-11
 -0.70150493D-11 -0.64534068D-11 -0.41284211D-11 -0.14290067D-11 -0.16065452D-12
 -0.20439171D-14 -0.35417551D-15 -0.36192883D-17  0.22025307D-01  0.31769770D-01
  0.42313224D-01  0.50076144D-01  0.48121293D-01  0.33076360D-01  0.10413919D-01
 -0.50329528D-02 -0.51650279D-02 -0.13007457D-02  0.14181797D-05 -0.47862635D-01
 -0.69038080D-01 -0.91949790D-01 -0.10881919D+00 -0.10457116D+00 -0.71877397D-01
 -0.22630222D-01  0.10936982D-01  0.11223991D-01  0.28266174D-02 -0.30818103D-05
  0.62003870D-14  0.89435698D-14  0.11911678D-13  0.14097032D-13  0.13546719D-13
  0.93113904D-14  0.29316424D-14 -0.14168363D-14 -0.14540170D-14 -0.36617545D-15
  0.39923452D-18 -0.15329222D-01 -0.22222573D-01 -0.29494908D-01 -0.35199351D-01
 -0.33818220D-01 -0.23670952D-01 -0.71472335D-02  0.43751732D-02  0.47054206D-02
  0.12654415D-02 -0.47171532D-03  0.33465031D-01  0.48513821D-01  0.64389964D-01
  0.76843261D-01  0.73828132D-01  0.51675757D-01  0.15603036D-01 -0.95513855D-02