 Molden2AIM, Version 4.0.0 (06/02/2016)           Time: Sat Jun 30 05:03:49 2018
GAUSSIAN             21 MOL ORBITALS    337 PRIMITIVES        3 NUCLEI
  O    1    (CENTRE  1)   1.23994569  2.54263973 -0.06619333  CHARGE =  8.0
  Cl   2    (CENTRE  2)   4.47521917  2.61201346 -0.07755247  CHARGE = 17.0
  Cl   3    (CENTRE  3)   0.09525354 -0.44435965  0.42312291  CHARGE = 17.0
CENTRE ASSIGNMENTS    1  1  1  1  1  1  1  1  1  1  1  1  1  1  1  1  1  1  1  1
CENTRE ASSIGNMENTS    1  1  1  1  1  1  1  1  1  1  1  1  1  1  1  1  1  1  1  1
CENTRE ASSIGNMENTS    1  1  1  1  1  1  1  1  1  1  1  1  1  1  1  1  1  1  1  1
CENTRE ASSIGNMENTS    1  1  1  1  1  1  1  1  1  1  1  1  1  1  1  2  2  2  2  2
CENTRE ASSIGNMENTS    2  2  2  2  2  2  2  2  2  2  2  2  2  2  2  2  2  2  2  2
CENTRE ASSIGNMENTS    2  2  2  2  2  2  2  2  2  2  2  2  2  2  2  2  2  2  2  2
CENTRE ASSIGNMENTS    2  2  2  2  2  2  2  2  2  2  2  2  2  2  2  2  2  2  2  2
CENTRE ASSIGNMENTS    2  2  2  2  2  2  2  2  2  2  2  2  2  2  2  2  2  2  2  2
CENTRE ASSIGNMENTS    2  2  2  2  2  2  2  2  2  2  2  2  2  2  2  2  2  2  2  2
CENTRE ASSIGNMENTS    2  2  2  2  2  2  2  2  2  2  2  2  2  2  2  2  2  2  2  2
CENTRE ASSIGNMENTS    2  2  2  2  2  2  3  3  3  3  3  3  3  3  3  3  3  3  3  3
CENTRE ASSIGNMENTS    3  3  3  3  3  3  3  3  3  3  3  3  3  3  3  3  3  3  3  3
CENTRE ASSIGNMENTS    3  3  3  3  3  3  3  3  3  3  3  3  3  3  3  3  3  3  3  3
CENTRE ASSIGNMENTS    3  3  3  3  3  3  3  3  3  3  3  3  3  3  3  3  3  3  3  3
CENTRE ASSIGNMENTS    3  3  3  3  3  3  3  3  3  3  3  3  3  3  3  3  3  3  3  3
CENTRE ASSIGNMENTS    3  3  3  3  3  3  3  3  3  3  3  3  3  3  3  3  3  3  3  3
CENTRE ASSIGNMENTS    3  3  3  3  3  3  3  3  3  3  3  3  3  3  3  3  3
TYPE ASSIGNMENTS      1  1  1  1  1  1  1  1  1  1  1  1  1  1  1  1  1  1  1  2
TYPE ASSIGNMENTS      2  2  3  3  3  4  4  4  2  3  4  2  3  4  2  3  4  5  6  7
TYPE ASSIGNMENTS      8  9 10  5  6  7  8  9 10  5  6  7  8  9 10 11 12 13 17 14
TYPE ASSIGNMENTS     15 18 19 16 20 11 12 13 17 14 15 18 19 16 20  1  1  1  1  1
TYPE ASSIGNMENTS      1  1  1  1  1  1  1  1  1  1  1  1  1  1  1  1  1  1  1  1
TYPE ASSIGNMENTS      1  1  1  1  1  1  1  1  1  1  1  1  1  1  1  1  1  2  2  2
TYPE ASSIGNMENTS      2  2  2  2  3  3  3  3  3  3  3  4  4  4  4  4  4  4  2  2
TYPE ASSIGNMENTS      2  2  2  2  2  3  3  3  3  3  3  3  4  4  4  4  4  4  4  2
TYPE ASSIGNMENTS      3  4  2  3  4  2  3  4  5  6  7  8  9 10  5  6  7  8  9 10
TYPE ASSIGNMENTS      5  6  7  8  9 10 11 12 13 17 14 15 18 19 16 20 11 12 13 17
TYPE ASSIGNMENTS     14 15 18 19 16 20  1  1  1  1  1  1  1  1  1  1  1  1  1  1
TYPE ASSIGNMENTS      1  1  1  1  1  1  1  1  1  1  1  1  1  1  1  1  1  1  1  1
TYPE ASSIGNMENTS      1  1  1  1  1  1  1  1  2  2  2  2  2  2  2  3  3  3  3  3
TYPE ASSIGNMENTS      3  3  4  4  4  4  4  4  4  2  2  2  2  2  2  2  3  3  3  3
TYPE ASSIGNMENTS      3  3  3  4  4  4  4  4  4  4  2  3  4  2  3  4  2  3  4  5
TYPE ASSIGNMENTS      6  7  8  9 10  5  6  7  8  9 10  5  6  7  8  9 10 11 12 13
TYPE ASSIGNMENTS     17 14 15 18 19 16 20 11 12 13 17 14 15 18 19 16 20
EXPONENTS  0.1533000D+05 0.2299000D+04 0.5224000D+03 0.1473000D+03 0.4755000D+02
EXPONENTS  0.1676000D+02 0.6207000D+01 0.6882000D+00 0.1533000D+05 0.2299000D+04
EXPONENTS  0.5224000D+03 0.1473000D+03 0.4755000D+02 0.1676000D+02 0.6207000D+01
EXPONENTS  0.6882000D+00 0.1752000D+01 0.2384000D+00 0.7376000D-01 0.3446000D+02
EXPONENTS  0.7749000D+01 0.2280000D+01 0.3446000D+02 0.7749000D+01 0.2280000D+01
EXPONENTS  0.3446000D+02 0.7749000D+01 0.2280000D+01 0.7156000D+00 0.7156000D+00
EXPONENTS  0.7156000D+00 0.2140000D+00 0.2140000D+00 0.2140000D+00 0.5974000D-01
EXPONENTS  0.5974000D-01 0.5974000D-01 0.2314000D+01 0.2314000D+01 0.2314000D+01
EXPONENTS  0.2314000D+01 0.2314000D+01 0.2314000D+01 0.6450000D+00 0.6450000D+00
EXPONENTS  0.6450000D+00 0.6450000D+00 0.6450000D+00 0.6450000D+00 0.2140000D+00
EXPONENTS  0.2140000D+00 0.2140000D+00 0.2140000D+00 0.2140000D+00 0.2140000D+00
EXPONENTS  0.1428000D+01 0.1428000D+01 0.1428000D+01 0.1428000D+01 0.1428000D+01
EXPONENTS  0.1428000D+01 0.1428000D+01 0.1428000D+01 0.1428000D+01 0.1428000D+01
EXPONENTS  0.5000000D+00 0.5000000D+00 0.5000000D+00 0.5000000D+00 0.5000000D+00
EXPONENTS  0.5000000D+00 0.5000000D+00 0.5000000D+00 0.5000000D+00 0.5000000D+00
EXPONENTS  0.4561000D+06 0.6833000D+05 0.1555000D+05 0.4405000D+04 0.1439000D+04
EXPONENTS  0.5204000D+03 0.2031000D+03 0.8396000D+02 0.3620000D+02 0.1583000D+02
EXPONENTS  0.6334000D+01 0.2694000D+01 0.4313000D+00 0.4561000D+06 0.6833000D+05
EXPONENTS  0.1555000D+05 0.4405000D+04 0.1439000D+04 0.5204000D+03 0.2031000D+03
EXPONENTS  0.8396000D+02 0.3620000D+02 0.1583000D+02 0.6334000D+01 0.2694000D+01
EXPONENTS  0.4313000D+00 0.4561000D+06 0.6833000D+05 0.1555000D+05 0.4405000D+04
EXPONENTS  0.1439000D+04 0.5204000D+03 0.2031000D+03 0.8396000D+02 0.3620000D+02
EXPONENTS  0.1583000D+02 0.6334000D+01 0.2694000D+01 0.4313000D+00 0.9768000D+00
EXPONENTS  0.1625000D+00 0.5910000D-01 0.6633000D+03 0.1568000D+03 0.4998000D+02
EXPONENTS  0.1842000D+02 0.7240000D+01 0.2922000D+01 0.3818000D+00 0.6633000D+03
EXPONENTS  0.1568000D+03 0.4998000D+02 0.1842000D+02 0.7240000D+01 0.2922000D+01
EXPONENTS  0.3818000D+00 0.6633000D+03 0.1568000D+03 0.4998000D+02 0.1842000D+02
EXPONENTS  0.7240000D+01 0.2922000D+01 0.3818000D+00 0.6633000D+03 0.1568000D+03
EXPONENTS  0.4998000D+02 0.1842000D+02 0.7240000D+01 0.2922000D+01 0.3818000D+00
EXPONENTS  0.6633000D+03 0.1568000D+03 0.4998000D+02 0.1842000D+02 0.7240000D+01
EXPONENTS  0.2922000D+01 0.3818000D+00 0.6633000D+03 0.1568000D+03 0.4998000D+02
EXPONENTS  0.1842000D+02 0.7240000D+01 0.2922000D+01 0.3818000D+00 0.1022000D+01
EXPONENTS  0.1022000D+01 0.1022000D+01 0.1301000D+00 0.1301000D+00 0.1301000D+00
EXPONENTS  0.4190000D-01 0.4190000D-01 0.4190000D-01 0.1046000D+01 0.1046000D+01
EXPONENTS  0.1046000D+01 0.1046000D+01 0.1046000D+01 0.1046000D+01 0.3440000D+00
EXPONENTS  0.3440000D+00 0.3440000D+00 0.3440000D+00 0.3440000D+00 0.3440000D+00
EXPONENTS  0.1350000D+00 0.1350000D+00 0.1350000D+00 0.1350000D+00 0.1350000D+00
EXPONENTS  0.1350000D+00 0.7060000D+00 0.7060000D+00 0.7060000D+00 0.7060000D+00
EXPONENTS  0.7060000D+00 0.7060000D+00 0.7060000D+00 0.7060000D+00 0.7060000D+00
EXPONENTS  0.7060000D+00 0.3120000D+00 0.3120000D+00 0.3120000D+00 0.3120000D+00
EXPONENTS  0.3120000D+00 0.3120000D+00 0.3120000D+00 0.3120000D+00 0.3120000D+00
EXPONENTS  0.3120000D+00 0.4561000D+06 0.6833000D+05 0.1555000D+05 0.4405000D+04
EXPONENTS  0.1439000D+04 0.5204000D+03 0.2031000D+03 0.8396000D+02 0.3620000D+02
EXPONENTS  0.1583000D+02 0.6334000D+01 0.2694000D+01 0.4313000D+00 0.4561000D+06
EXPONENTS  0.6833000D+05 0.1555000D+05 0.4405000D+04 0.1439000D+04 0.5204000D+03
EXPONENTS  0.2031000D+03 0.8396000D+02 0.3620000D+02 0.1583000D+02 0.6334000D+01
EXPONENTS  0.2694000D+01 0.4313000D+00 0.4561000D+06 0.6833000D+05 0.1555000D+05
EXPONENTS  0.4405000D+04 0.1439000D+04 0.5204000D+03 0.2031000D+03 0.8396000D+02
EXPONENTS  0.3620000D+02 0.1583000D+02 0.6334000D+01 0.2694000D+01 0.4313000D+00
EXPONENTS  0.9768000D+00 0.1625000D+00 0.5910000D-01 0.6633000D+03 0.1568000D+03
EXPONENTS  0.4998000D+02 0.1842000D+02 0.7240000D+01 0.2922000D+01 0.3818000D+00
EXPONENTS  0.6633000D+03 0.1568000D+03 0.4998000D+02 0.1842000D+02 0.7240000D+01
EXPONENTS  0.2922000D+01 0.3818000D+00 0.6633000D+03 0.1568000D+03 0.4998000D+02
EXPONENTS  0.1842000D+02 0.7240000D+01 0.2922000D+01 0.3818000D+00 0.6633000D+03
EXPONENTS  0.1568000D+03 0.4998000D+02 0.1842000D+02 0.7240000D+01 0.2922000D+01
EXPONENTS  0.3818000D+00 0.6633000D+03 0.1568000D+03 0.4998000D+02 0.1842000D+02
EXPONENTS  0.7240000D+01 0.2922000D+01 0.3818000D+00 0.6633000D+03 0.1568000D+03
EXPONENTS  0.4998000D+02 0.1842000D+02 0.7240000D+01 0.2922000D+01 0.3818000D+00
EXPONENTS  0.1022000D+01 0.1022000D+01 0.1022000D+01 0.1301000D+00 0.1301000D+00
EXPONENTS  0.1301000D+00 0.4190000D-01 0.4190000D-01 0.4190000D-01 0.1046000D+01
EXPONENTS  0.1046000D+01 0.1046000D+01 0.1046000D+01 0.1046000D+01 0.1046000D+01
EXPONENTS  0.3440000D+00 0.3440000D+00 0.3440000D+00 0.3440000D+00 0.3440000D+00
EXPONENTS  0.3440000D+00 0.1350000D+00 0.1350000D+00 0.1350000D+00 0.1350000D+00
EXPONENTS  0.1350000D+00 0.1350000D+00 0.7060000D+00 0.7060000D+00 0.7060000D+00
EXPONENTS  0.7060000D+00 0.7060000D+00 0.7060000D+00 0.7060000D+00 0.7060000D+00
EXPONENTS  0.7060000D+00 0.7060000D+00 0.3120000D+00 0.3120000D+00 0.3120000D+00
EXPONENTS  0.3120000D+00 0.3120000D+00 0.3120000D+00 0.3120000D+00 0.3120000D+00
EXPONENTS  0.3120000D+00 0.3120000D+00
MO    1     MO 0.0        OCC NO =    2.0000000  ORB. ENERGY = -101.275615
  0.34286895D-04  0.63906360D-04  0.10836401D-03  0.16401398D-03  0.20464156D-03
  0.17575981D-03  0.67477608D-04 -0.30183148D-06 -0.25369208D-04 -0.47580577D-04
 -0.81114454D-04 -0.12676610D-03 -0.16951043D-03 -0.18099762D-03 -0.11065840D-03
  0.73005689D-04  0.21644487D-04  0.17751076D-03  0.17046888D-03  0.11443049D-03
  0.11095908D-03  0.74852341D-04 -0.54054352D-04 -0.52414539D-04 -0.35358538D-04
  0.88556580D-05  0.85870094D-05  0.57927458D-05  0.99723276D-04  0.50324018D-04
 -0.82440335D-05  0.50685610D-04  0.30891419D-04 -0.50603192D-05  0.11414167D-04
 -0.11683727D-04  0.19139942D-05  0.37166788D-03 -0.13720288D-03 -0.23446500D-03
  0.11122751D-03 -0.18218464D-04 -0.32743219D-04 -0.96120800D-04  0.18943990D-04
  0.77176811D-04 -0.55401197D-04  0.90749142D-05  0.19604534D-04 -0.48949899D-04
  0.28962573D-04  0.19987325D-04  0.23338566D-04 -0.38233956D-05 -0.30215924D-05
  0.16472062D-03  0.42848592D-04 -0.18746232D-05 -0.18997012D-03 -0.14172194D-03
  0.23215917D-04 -0.30419176D-03  0.13176159D-04 -0.17592048D-04 -0.38457731D-04
 -0.11007633D-03 -0.69072234D-05  0.29654515D-06  0.14919302D-03  0.22812099D-04
 -0.37377985D-05  0.18103598D-03 -0.20904291D-05  0.28481631D-05  0.10720851D-04
  0.61604866D+00  0.11526294D+01  0.19914883D+01  0.32284347D+01  0.49026357D+01
  0.68140871D+01  0.81009666D+01  0.72157179D+01  0.35820984D+01  0.57713345D+00
  0.88605358D-02  0.15833690D-02  0.59168031D-04 -0.11311670D-02 -0.21128576D-02
 -0.36669669D-02 -0.59499970D-02 -0.92098887D-02 -0.13183119D-01 -0.17208088D-01
 -0.18338089D-01 -0.13708094D-01 -0.72362593D-03  0.92982341D-02  0.55242193D-02
 -0.20711681D-04  0.40972773D-03  0.76469776D-03  0.13289774D-02  0.21538814D-02
  0.33453151D-02  0.47922604D-02  0.63277333D-02  0.68421567D-02  0.53643396D-02
  0.26692776D-03 -0.45985953D-02 -0.47603986D-02  0.21541477D-02 -0.33069514D-02
 -0.63120286D-03 -0.10327322D-03 -0.73693446D-02 -0.97070808D-02 -0.10709184D-01
 -0.88952084D-02 -0.47244613D-02 -0.12185764D-02  0.12526551D-05 -0.14363369D-02
 -0.18919781D-02 -0.20872950D-02 -0.17337384D-02 -0.92083060D-03 -0.23750907D-03
  0.24415125D-06  0.23526968D-03  0.30990297D-03  0.34189557D-03  0.28398357D-03
  0.15083057D-03  0.38903605D-04 -0.39991583D-07  0.60699793D-02  0.79694378D-02
  0.90737912D-02  0.76833137D-02  0.44012979D-02  0.10011426D-02 -0.46858983D-03
  0.12256801D-02  0.16092282D-02  0.18322247D-02  0.15514526D-02  0.88873178D-03
  0.20215565D-03 -0.94619968D-04 -0.20077467D-03 -0.26360243D-03 -0.30013076D-03
 -0.25413840D-03 -0.14558026D-03 -0.33114458D-04  0.15499389D-04  0.34308415D-03
  0.90632793D-04 -0.14845870D-04  0.27790815D-03  0.54421887D-04 -0.89147442D-05
  0.56707928D-05  0.26895549D-05 -0.44057855D-06  0.22059149D-03 -0.96517980D-04
 -0.12407351D-03  0.33354453D-04 -0.54625574D-05 -0.92768024D-05  0.10434315D-04
 -0.71795126D-05 -0.32548026D-05  0.24611645D-04 -0.40316362D-05  0.13213581D-05
 -0.52079644D-04  0.20943284D-04  0.31136359D-04 -0.30192592D-04  0.49457514D-05
  0.34316036D-05 -0.15117376D-03  0.16381466D-04 -0.82802098D-05  0.16642700D-03
 -0.97809537D-04  0.16020997D-04  0.28709427D-03  0.48665138D-04  0.88196321D-05
  0.40623673D-04  0.45964856D-04 -0.45930573D-05  0.29322683D-05 -0.45806172D-04
  0.30946042D-04 -0.50689260D-05 -0.92088397D-04 -0.17166871D-04 -0.37278788D-05
 -0.15581393D-04 -0.39086848D-01 -0.73131643D-01 -0.12635528D+00 -0.20483664D+00
 -0.31106078D+00 -0.43233791D+00 -0.51398741D+00 -0.45782045D+00 -0.22727578D+00
 -0.36617769D-01 -0.56218030D-03 -0.10046107D-03 -0.37540733D-05  0.13076442D-03
  0.24424916D-03  0.42390627D-03  0.68782760D-03  0.10646754D-02  0.15239862D-02
  0.19892780D-02  0.21199076D-02  0.15846740D-02  0.83652124D-04 -0.10748883D-02
 -0.63860713D-03  0.23942980D-05 -0.56835279D-04 -0.10607486D-03 -0.18434877D-03
 -0.29877512D-03 -0.46404454D-03 -0.66475720D-03 -0.87774993D-03 -0.94910805D-03
 -0.74411301D-03 -0.37026817D-04  0.63789299D-03  0.66033750D-03 -0.29881206D-03
  0.28271966D-03  0.99519673D-04  0.15236780D-04 -0.14114934D-02 -0.18592536D-02
 -0.20511923D-02 -0.17037510D-02 -0.90490353D-03 -0.23340102D-03  0.23992831D-06
 -0.50350050D-03 -0.66322315D-03 -0.73169051D-03 -0.60775307D-03 -0.32279242D-03
 -0.83257581D-04  0.85585963D-07  0.82479500D-04  0.10864401D-03  0.11985980D-03
  0.99557339D-04  0.52877321D-04  0.13638604D-04 -0.14020021D-07  0.12514312D-02
  0.16430374D-02  0.18707189D-02  0.15840480D-02  0.90740366D-03  0.20640285D-03
 -0.96607894D-04  0.43071000D-03  0.56549066D-03  0.64385272D-03  0.54518804D-03
  0.31230470D-03  0.71038484D-04 -0.33249920D-04 -0.70554630D-04 -0.92633057D-04
 -0.10546955D-03 -0.89307283D-04 -0.51158650D-04 -0.11636818D-04  0.54466713D-05
  0.65102458D-04  0.70660228D-05 -0.11574390D-05  0.83451516D-04  0.55222367D-04
 -0.90461605D-05 -0.55923622D-06 -0.50906129D-06  0.83391277D-07 -0.34409642D-04
  0.65232210D-05  0.27886421D-04 -0.89731259D-04  0.14698862D-04  0.71922273D-05
 -0.41781786D-05  0.15051337D-04 -0.10873158D-04  0.18248513D-04 -0.29892836D-05
 -0.87279795D-05  0.13668856D-04  0.14591898D-05 -0.15128046D-04  0.31493127D-04
 -0.51589999D-05 -0.55843025D-05 -0.20484240D-04  0.33905843D-04 -0.10346974D-04
 -0.27345173D-05 -0.16326706D-03  0.26745566D-04  0.64187237D-04  0.61549527D-04
  0.42953549D-05  0.22529341D-04  0.70148181D-05 -0.60304304D-05  0.55032878D-05
  0.10197560D-04  0.50165760D-04 -0.82178272D-05 -0.31242014D-04 -0.32074469D-04
 -0.82920364D-05 -0.13951008D-04
MO    2     MO 0.0        OCC NO =    2.0000000  ORB. ENERGY = -101.275573
  0.38930543D-04  0.72561523D-04  0.12304030D-03  0.18622723D-03  0.23235720D-03
  0.19956385D-03  0.76616443D-04 -0.34271005D-06 -0.28804944D-04 -0.54024386D-04
 -0.92099735D-04 -0.14393396D-03 -0.19246713D-03 -0.20551002D-03 -0.12564480D-03
  0.82892806D-04  0.24574503D-04  0.20153495D-03  0.19354353D-03  0.28174754D-04
  0.27320034D-04  0.18429934D-04 -0.13237422D-03 -0.12835847D-03 -0.86589864D-04
  0.21685010D-04  0.21027166D-04  0.14184802D-04 -0.69282143D-04 -0.70215662D-04
  0.11502411D-04 -0.40326078D-04 -0.33220299D-04  0.54418843D-05  0.88702201D-05
 -0.16118604D-04  0.26404952D-05  0.41077067D-05  0.25117918D-03 -0.25528689D-03
  0.41788074D-03 -0.68455353D-04 -0.17050900D-03 -0.25250127D-04 -0.60183726D-04
  0.85433854D-04 -0.12143715D-03  0.19893113D-04  0.49024175D-04  0.21953283D-04
 -0.42620602D-04  0.20667319D-04 -0.27603280D-04  0.45218756D-05  0.21307004D-04
  0.48360666D-04 -0.14133120D-03 -0.46113359D-04 -0.19243253D-03  0.16581199D-03
 -0.27163924D-04  0.47350530D-04  0.25818161D-03  0.16550400D-03  0.80724973D-04
 -0.50610280D-04  0.75347368D-04  0.26992396D-04  0.18232589D-03 -0.74511671D-04
  0.12206437D-04 -0.30495049D-04 -0.15153043D-03 -0.93183625D-04 -0.71649042D-04
  0.39018640D-01  0.73004025D-01  0.12613478D+00  0.20447919D+00  0.31051797D+00
  0.43158346D+00  0.51309048D+00  0.45702153D+00  0.22687917D+00  0.36553870D-01
  0.56119927D-03  0.10028576D-03  0.37475223D-05 -0.12174387D-04 -0.22740007D-04
 -0.39466386D-04 -0.64037905D-04 -0.99123071D-04 -0.14188567D-03 -0.18520512D-03
 -0.19736696D-03 -0.14753581D-03 -0.77881533D-05  0.10007390D-03  0.59455397D-04
 -0.22291316D-06 -0.51368706D-05 -0.95872287D-05 -0.16661760D-04 -0.27003811D-04
 -0.41941146D-04 -0.60081902D-04 -0.79332554D-04 -0.85782023D-04 -0.67254218D-04
 -0.33465477D-05  0.57653869D-04  0.59682442D-04 -0.27007150D-04 -0.13596308D-03
  0.19970995D-04  0.22129454D-05  0.21122306D-04  0.27822817D-04  0.30695085D-04
  0.25495796D-04  0.13541437D-04  0.34927316D-05 -0.35904093D-08  0.97184642D-03
  0.12801398D-02  0.14122941D-02  0.11730726D-02  0.62304737D-03  0.16070209D-03
 -0.16519629D-06 -0.15920762D-03 -0.20971216D-03 -0.23136164D-03 -0.19217244D-03
 -0.10206745D-03 -0.26326173D-04  0.27062411D-07 -0.62644193D-04 -0.82247233D-04
 -0.93644525D-04 -0.79294338D-04 -0.45422850D-04 -0.10332122D-04  0.48360019D-05
 -0.87298486D-03 -0.11461651D-02 -0.13049933D-02 -0.11050147D-02 -0.63299499D-03
 -0.14398440D-03  0.67392623D-04  0.14301126D-03  0.18776330D-03  0.21378233D-03
  0.18102210D-03  0.10369643D-03  0.23587340D-04 -0.11040173D-04  0.14991999D-04
 -0.47149681D-04  0.77241691D-05 -0.45847649D-04 -0.52786878D-04  0.86473061D-05
  0.14000764D-05  0.69582485D-06 -0.11398344D-06  0.73813095D-06 -0.12863478D-04
  0.12125347D-04 -0.91334614D-04  0.14962302D-04  0.84128854D-05  0.20845739D-04
 -0.88503948D-05 -0.11995344D-04  0.49704636D-05 -0.81409109D-06 -0.10588173D-05
  0.67288200D-05  0.45466800D-05 -0.11275500D-04  0.28197310D-04 -0.46191324D-05
 -0.53267796D-05 -0.27975887D-04 -0.28162897D-04  0.55254794D-05  0.12611352D-03
  0.11791122D-03 -0.19316071D-04 -0.42185856D-04 -0.33422525D-04  0.27396325D-05
 -0.56660736D-04  0.13458082D-05  0.74617280D-05 -0.26639646D-05 -0.34338509D-04
 -0.38161940D-04  0.62514830D-05  0.30301085D-04  0.15776756D-04  0.17404108D-05
  0.21761986D-04  0.61604434D+00  0.11526213D+01  0.19914743D+01  0.32284121D+01
  0.49026013D+01  0.68140393D+01  0.81009097D+01  0.72156673D+01  0.35820733D+01
  0.57712940D+00  0.88604736D-02  0.15833579D-02  0.59167616D-04 -0.11236539D-02
 -0.20988241D-02 -0.36426109D-02 -0.59104772D-02 -0.91487168D-02 -0.13095557D-01
 -0.17093792D-01 -0.18216288D-01 -0.13617045D-01 -0.71881963D-03  0.92364754D-02
  0.54875276D-02 -0.20574114D-04  0.40580045D-03  0.75736808D-03  0.13162391D-02
  0.21332363D-02  0.33132500D-02  0.47463262D-02  0.62670815D-02  0.67765741D-02
  0.53129219D-02  0.26436924D-03 -0.45545174D-02 -0.47147698D-02  0.21335000D-02
 -0.32976606D-02 -0.62362304D-03 -0.10216619D-03  0.36797572D-02  0.48470660D-02
  0.53474493D-02  0.44416713D-02  0.23590795D-02  0.60847543D-03 -0.62549206D-06
  0.63654279D-02  0.83846972D-02  0.92502852D-02  0.76834252D-02  0.40808538D-02
  0.10525712D-02 -0.10820074D-05 -0.10427621D-02 -0.13735516D-02 -0.15153492D-02
 -0.12586717D-02 -0.66851113D-03 -0.17242852D-03  0.17725066D-06 -0.30607772D-02
 -0.40185761D-02 -0.45754445D-02 -0.38742985D-02 -0.22193473D-02 -0.50482452D-03
  0.23628566D-03 -0.52265961D-02 -0.68621375D-02 -0.78130484D-02 -0.66157685D-02
 -0.37897669D-02 -0.86204049D-03  0.40348239D-03  0.85619096D-03  0.11241160D-02
  0.12798887D-02  0.10837572D-02  0.62081785D-03  0.14121452D-03 -0.66096168D-04
 -0.19427484D-03 -0.29045060D-03  0.47580352D-04 -0.13517189D-03 -0.23533692D-03
  0.38551662D-04 -0.45669917D-05 -0.44797413D-05  0.73384557D-06 -0.54769459D-04
  0.16916631D-03 -0.11439685D-03  0.21253177D-03 -0.34815388D-04 -0.95465864D-04
  0.20063320D-05  0.24514320D-05 -0.44577640D-05  0.32703525D-04 -0.53571285D-05
 -0.23259130D-05  0.47287868D-05 -0.32740450D-04  0.28011663D-04 -0.65147219D-04
  0.10672016D-04  0.20453076D-04 -0.48430502D-04  0.75949192D-04  0.39034439D-04
  0.27301373D-03 -0.68939564D-05  0.11297429D-05 -0.12772222D-03 -0.22095362D-03
 -0.11823306D-03 -0.13491304D-03  0.12783672D-04 -0.22591927D-04 -0.12184959D-04
 -0.79848147D-04 -0.12585244D-05  0.20603960D-06  0.41497131D-04  0.69034305D-04
  0.36348837D-04  0.40852552D-04
MO    3     MO 0.0        OCC NO =    2.0000000  ORB. ENERGY =  -19.096698
  0.49760077D+00  0.92746382D+00  0.15726713D+01  0.23803113D+01  0.29699335D+01
  0.25507768D+01  0.97929282D+00 -0.43804369D-02 -0.25127702D-03 -0.47127628D-03
 -0.80342274D-03 -0.12555934D-02 -0.16789676D-02 -0.17927459D-02 -0.10960497D-02
  0.72310702D-03  0.53250043D-01 -0.19699178D-02 -0.88400397D-03  0.49671889D-02
  0.48165024D-02  0.32491841D-02 -0.69352327D-02 -0.67248428D-02 -0.45365392D-02
  0.11381621D-02  0.11036344D-02  0.74450526D-03 -0.66379454D-03  0.92691678D-03
 -0.15290397D-03 -0.54086172D-03  0.75481352D-03 -0.12333071D-03 -0.36396535D-04
  0.50796482D-04 -0.83126796D-05 -0.17172546D-03 -0.48278873D-03  0.65451419D-03
  0.91010805D-03 -0.14489431D-03  0.36379066D-03 -0.40204201D-03 -0.15483558D-03
  0.55687759D-03 -0.63372687D-03  0.10359737D-03  0.24030434D-03 -0.12171339D-03
 -0.42441622D-04  0.16415502D-03 -0.20577326D-03  0.33954305D-04  0.69545880D-04
  0.16240019D-03 -0.38347851D-04  0.97742525D-05 -0.51941425D-03  0.16008830D-03
 -0.39701815D-04  0.32213683D-04 -0.45044746D-04  0.10379058D-04  0.19050801D-03
 -0.28110759D-03  0.11863346D-03  0.39120207D-04  0.65250725D-03 -0.13591724D-03
  0.23200534D-04  0.19081552D-03 -0.21998314D-03 -0.14056115D-03 -0.15572670D-03
  0.12459227D-04  0.23311262D-04  0.40276697D-04  0.65293223D-04  0.99152967D-04
  0.13781096D-03  0.16383736D-03  0.14593372D-03  0.72445866D-04  0.11672190D-04
  0.17919920D-06  0.32022722D-07  0.11966391D-08 -0.33543910D-05 -0.62655207D-05
 -0.10874115D-04 -0.17644270D-04 -0.27311234D-04 -0.39093550D-04 -0.51029294D-04
 -0.54380228D-04 -0.40650324D-04 -0.21458584D-05  0.27573215D-04  0.16381658D-04
 -0.61418935D-07 -0.11283824D-04 -0.21059631D-04 -0.36599786D-04 -0.59317486D-04
 -0.92129343D-04 -0.13197794D-03 -0.17426457D-03 -0.18843170D-03 -0.14773289D-03
 -0.73511399D-05  0.12664444D-03  0.13110047D-03 -0.59324820D-04 -0.51547940D-03
  0.10501593D-02  0.22646262D-03 -0.18146919D-01 -0.23903565D-01 -0.26371232D-01
 -0.21904340D-01 -0.11633927D-01 -0.30007291D-02  0.30846475D-05 -0.10491316D-03
 -0.13819418D-03 -0.15246056D-03 -0.12663602D-03 -0.67259466D-04 -0.17348178D-04
  0.17833337D-07  0.14291325D-04  0.18824882D-04  0.20768255D-04  0.17250423D-04
  0.91621187D-05  0.23631777D-05 -0.24292663D-08  0.15881700D-01  0.20851507D-01
  0.23740975D-01  0.20102883D-01  0.11515705D-01  0.26194234D-02 -0.12260343D-02
  0.84730931D-04  0.11124550D-03  0.12666119D-03  0.10725149D-03  0.61437784D-04
  0.13974964D-04 -0.65410524D-05 -0.11333091D-04 -0.14879517D-04 -0.16941425D-04
 -0.14345303D-04 -0.82175419D-05 -0.18692057D-05  0.87489114D-06  0.13241133D-02
  0.12112083D-04 -0.17765366D-05 -0.39159240D-03  0.24848562D-05 -0.52109546D-06
 -0.11375717D-04 -0.26872599D-05  0.44114211D-06 -0.14278897D-03  0.64406524D-04
  0.78382441D-04 -0.26416083D-04  0.42245057D-05  0.46857400D-05  0.52153802D-03
 -0.25644571D-03 -0.26509231D-03  0.17984462D-04 -0.26417665D-05 -0.28902302D-05
  0.35670470D-04 -0.19052549D-04 -0.16617921D-04 -0.37204646D-05  0.66561809D-06
  0.82148539D-06 -0.28833346D-03  0.26113487D-06 -0.15085167D-06  0.45224452D-03
 -0.16440817D-05  0.31098620D-06  0.41275585D-03  0.86067710D-06  0.14156883D-06
 -0.13272540D-04 -0.59416714D-04  0.26975480D-05 -0.57885362D-06  0.87722778D-04
 -0.11767821D-04  0.17871172D-05  0.90527364D-04  0.36751768D-05 -0.50556345D-07
  0.91575869D-06  0.12539379D-04  0.23461226D-04  0.40535801D-04  0.65713261D-04
  0.99790829D-04  0.13869752D-03  0.16489134D-03  0.14687252D-03  0.72911918D-04
  0.11747278D-04  0.18035201D-06  0.32228727D-07  0.12043373D-08 -0.34990489D-05
 -0.65357210D-05 -0.11343061D-04 -0.18405178D-04 -0.28489030D-04 -0.40779457D-04
 -0.53229930D-04 -0.56725373D-04 -0.42403368D-04 -0.22383985D-05  0.28762309D-04
  0.17088116D-04 -0.64067624D-07 -0.11203448D-04 -0.20909621D-04 -0.36339081D-04
 -0.58894959D-04 -0.91473093D-04 -0.13103785D-03 -0.17302326D-03 -0.18708947D-03
 -0.14668057D-03 -0.72987768D-05  0.12574234D-03  0.13016663D-03 -0.58902241D-04
 -0.51562163D-03  0.10501817D-02  0.22636750D-03  0.61510806D-02  0.81023536D-02
  0.89387942D-02  0.74246960D-02  0.39434364D-02  0.10171273D-02 -0.10455723D-05
  0.16853774D-01  0.22200202D-01  0.24492024D-01  0.20343441D-01  0.10804896D-01
  0.27868978D-02 -0.28648362D-05 -0.27596191D-02 -0.36350377D-02 -0.40102981D-02
 -0.33310136D-02 -0.17691822D-02 -0.45632370D-03  0.46908525D-06 -0.53766579D-02
 -0.70591577D-02 -0.80373703D-02 -0.68057151D-02 -0.38985756D-02 -0.88679070D-03
  0.41506685D-03 -0.14752603D-01 -0.19369087D-01 -0.22053130D-01 -0.18673685D-01
 -0.10697006D-01 -0.24331977D-02  0.11388704D-02  0.24155944D-02  0.31714983D-02
  0.36109842D-02  0.30576331D-02  0.17515299D-02  0.39841230D-03 -0.18647888D-03
 -0.45293210D-03 -0.12279599D-02  0.20105187D-03  0.12814139D-03  0.36505717D-03
 -0.59802157D-04  0.63540969D-05  0.96826451D-05 -0.15875138D-05  0.32593552D-04
 -0.10637046D-03  0.73776903D-04 -0.14861231D-03  0.24334657D-04  0.60563671D-04
 -0.16405024D-03  0.41128152D-03 -0.24723128D-03  0.49646037D-03 -0.81290745D-04
 -0.22158068D-03 -0.14202401D-04  0.29503501D-04 -0.15301100D-04  0.31074099D-04
 -0.50945619D-05 -0.15089534D-04 -0.12367345D-03  0.17612610D-03  0.60213823D-04
  0.49224119D-03 -0.19062264D-03  0.31239854D-04 -0.12122085D-03 -0.33775566D-03
 -0.21188132D-03 -0.20635699D-03 -0.24778192D-04  0.33561478D-04  0.13091766D-04
  0.10442741D-03 -0.26987514D-04  0.44119216D-05 -0.30092837D-04 -0.73696919D-04
 -0.43687221D-04 -0.45263711D-04
MO    4     MO 0.0        OCC NO =    2.0000000  ORB. ENERGY =   -9.441240
  0.49194299D-04  0.91691844D-04  0.15547899D-03  0.23532469D-03  0.29361650D-03
  0.25217742D-03  0.96815815D-04 -0.43306308D-06 -0.36496272D-04 -0.68449664D-04
 -0.11669167D-03 -0.18236637D-03 -0.24385858D-03 -0.26038411D-03 -0.15919374D-03
  0.10502636D-03 -0.76990586D-04 -0.94490311D-04 -0.20063159D-03 -0.54240013D-04
 -0.52594567D-04 -0.35479984D-04  0.36552883D-04  0.35444001D-04  0.23910314D-04
 -0.59642301D-05 -0.57832969D-05 -0.39013780D-05  0.16326360D-03 -0.29871090D-04
  0.48796142D-05  0.34721435D-04  0.10181257D-04 -0.16683926D-05 -0.16541531D-05
  0.21858141D-04 -0.35808780D-05  0.40718590D-03 -0.23734309D-03 -0.16984281D-03
  0.33127092D-04 -0.53947305D-05  0.22720028D-04  0.30672214D-04  0.46374351D-05
 -0.35309649D-04  0.19212725D-04 -0.31637799D-05 -0.13442596D-04  0.26276898D-04
 -0.19696108D-04 -0.65807899D-05 -0.69600247D-04  0.11405506D-04  0.44144444D-05
  0.37180342D-04 -0.14772148D-05  0.40636675D-05 -0.20174026D-03  0.27673103D-04
 -0.46013102D-05  0.90199234D-04 -0.23241458D-04 -0.75896924D-05  0.98391016D-04
 -0.78069146D-05 -0.15415673D-05 -0.16388604D-05  0.63236181D-04 -0.47186584D-05
  0.78544118D-06 -0.39815437D-04  0.93433603D-05  0.41311399D-05 -0.34711595D-04
 -0.18275545D-02 -0.34193615D-02 -0.59078992D-02 -0.95773936D-02 -0.14544036D-01
 -0.20214500D-01 -0.24032124D-01 -0.21405968D-01 -0.10626563D-01 -0.17121096D-02
 -0.26285443D-04 -0.46971829D-05 -0.17552640D-06 -0.17069793D+00 -0.31883922D+00
 -0.55336093D+00 -0.89787992D+00 -0.13898115D+01 -0.19893889D+01 -0.25967739D+01
 -0.27672959D+01 -0.20686098D+01 -0.10919824D+00  0.14031432D+01  0.83362825D+00
 -0.31254809D-02 -0.25632896D-03 -0.47840107D-03 -0.83141896D-03 -0.13474855D-02
 -0.20928560D-02 -0.29980767D-02 -0.39586809D-02 -0.42805083D-02 -0.33559740D-02
 -0.16699216D-03  0.28769182D-02  0.29781437D-02 -0.13476521D-02  0.65660199D-01
  0.70393769D-03  0.10253852D-04 -0.70403271D-01 -0.92736908D-01 -0.10231053D+00
 -0.84980659D-01 -0.45135292D-01 -0.11641709D-01  0.11967281D-04 -0.16494103D-02
 -0.21726436D-02 -0.23969348D-02 -0.19909299D-02 -0.10574312D-02 -0.27274236D-03
  0.28036987D-06  0.26891911D-03  0.35422682D-03  0.39079516D-03  0.32460030D-03
  0.17240311D-03  0.44467790D-04 -0.45711377D-07 -0.58016086D-02 -0.76170868D-02
 -0.86726137D-02 -0.73436131D-02 -0.42067043D-02 -0.95687929D-03  0.44787217D-03
 -0.10891967D-02 -0.14300354D-02 -0.16282005D-02 -0.13786933D-02 -0.78976863D-03
 -0.17964496D-03  0.84083730D-04  0.17920382D-03  0.23528148D-03  0.26788528D-03
  0.22683425D-03  0.12993939D-03  0.29556704D-04 -0.13834164D-04 -0.16451904D-02
 -0.12393164D-03  0.20413362D-04 -0.15328947D-03 -0.27158003D-04  0.44556802D-05
 -0.26328569D-05 -0.19173352D-05  0.31334841D-06  0.15720166D-02 -0.73572715D-03
 -0.83628944D-03  0.31965411D-03 -0.52193516D-04 -0.33751982D-04 -0.18157556D-03
  0.88495485D-04  0.93080079D-04 -0.66715150D-04  0.10923262D-04  0.15109827D-05
  0.37993015D-04 -0.16121335D-04 -0.21871680D-04  0.17291660D-04 -0.28315131D-05
 -0.19328720D-05  0.16408144D-04 -0.51627428D-06  0.46543911D-05  0.89181969D-05
  0.28591344D-04 -0.47580858D-05 -0.58142629D-04 -0.27042521D-04 -0.92050874D-05
 -0.22349658D-04 -0.27991551D-05 -0.12246733D-05 -0.15603878D-05 -0.87366115D-05
 -0.52668062D-05  0.86536028D-06  0.17134077D-04  0.89408260D-05  0.38158031D-05
  0.87030234D-05  0.32007279D-04  0.59885742D-04  0.10346929D-03  0.16773579D-03
  0.25472019D-03  0.35403110D-03  0.42089191D-03  0.37489814D-03  0.18611066D-03
  0.29985410D-04  0.46035591D-06  0.82265149D-07  0.30741203D-08  0.52561514D-03
  0.98177361D-03  0.17039157D-02  0.27647627D-02  0.42795244D-02  0.61257503D-02
  0.79960176D-02  0.85210910D-02  0.63696885D-02  0.33624454D-03 -0.43205755D-02
 -0.25669182D-02  0.96240189D-05  0.25602951D-04  0.47784219D-04  0.83044767D-04
  0.13459114D-03  0.20904111D-03  0.29945742D-03  0.39540562D-03  0.42755077D-03
  0.33520534D-03  0.16679707D-04 -0.28735573D-03 -0.29746645D-03  0.13460778D-03
 -0.27456188D-03  0.18167466D-05  0.66953962D-04  0.28711102D-03  0.37818965D-03
  0.41723178D-03  0.34655895D-03  0.18406588D-03  0.47475959D-04 -0.48803672D-07
  0.53208043D-03  0.70086934D-03  0.77322307D-03  0.64225064D-03  0.34111492D-03
  0.87983488D-04 -0.90444034D-07 -0.87169331D-04 -0.11482157D-03 -0.12667509D-03
 -0.10521823D-03 -0.55883955D-04 -0.14414102D-04  0.14817207D-07 -0.38765528D-03
 -0.50896297D-03 -0.57949179D-03 -0.49068984D-03 -0.28108603D-03 -0.63937321D-04
  0.29926185D-04 -0.73341955D-03 -0.96292611D-03 -0.10963622D-02 -0.92835449D-03
 -0.53179720D-03 -0.12096541D-03  0.56618470D-04  0.12015371D-03  0.15775301D-03
  0.17961340D-03  0.15208925D-03  0.87122580D-04  0.19817364D-04 -0.92756172D-05