 Molden2AIM, Version 4.0.0 (06/02/2016)           Time: Sat Jun 30 06:16:26 2018
GAUSSIAN             31 MOL ORBITALS    506 PRIMITIVES        6 NUCLEI
  Cl   1    (CENTRE  1)   0.00000000  0.00000000  0.61818422  CHARGE = 17.0
  F    2    (CENTRE  2)   0.00000000  0.00000000 -2.48543961  CHARGE =  9.0
  F    3    (CENTRE  3)   3.21028375  0.00000000  0.39073300  CHARGE =  9.0
  F    4    (CENTRE  4)   0.00000000  3.21028375  0.39073300  CHARGE =  9.0
  F    5    (CENTRE  5)  -3.21028375  0.00000000  0.39073300  CHARGE =  9.0
  F    6    (CENTRE  6)   0.00000000 -3.21028375  0.39073300  CHARGE =  9.0
CENTRE ASSIGNMENTS    1  1  1  1  1  1  1  1  1  1  1  1  1  1  1  1  1  1  1  1
CENTRE ASSIGNMENTS    1  1  1  1  1  1  1  1  1  1  1  1  1  1  1  1  1  1  1  1
CENTRE ASSIGNMENTS    1  1  1  1  1  1  1  1  1  1  1  1  1  1  1  1  1  1  1  1
CENTRE ASSIGNMENTS    1  1  1  1  1  1  1  1  1  1  1  1  1  1  1  1  1  1  1  1
CENTRE ASSIGNMENTS    1  1  1  1  1  1  1  1  1  1  1  1  1  1  1  1  1  1  1  1
CENTRE ASSIGNMENTS    1  1  1  1  1  1  1  1  1  1  1  1  1  1  1  1  1  1  1  1
CENTRE ASSIGNMENTS    1  1  1  1  1  1  1  1  1  1  1  2  2  2  2  2  2  2  2  2
CENTRE ASSIGNMENTS    2  2  2  2  2  2  2  2  2  2  2  2  2  2  2  2  2  2  2  2
CENTRE ASSIGNMENTS    2  2  2  2  2  2  2  2  2  2  2  2  2  2  2  2  2  2  2  2
CENTRE ASSIGNMENTS    2  2  2  2  2  2  2  2  2  2  2  2  2  2  2  2  2  2  2  2
CENTRE ASSIGNMENTS    2  2  2  2  2  2  3  3  3  3  3  3  3  3  3  3  3  3  3  3
CENTRE ASSIGNMENTS    3  3  3  3  3  3  3  3  3  3  3  3  3  3  3  3  3  3  3  3
CENTRE ASSIGNMENTS    3  3  3  3  3  3  3  3  3  3  3  3  3  3  3  3  3  3  3  3
CENTRE ASSIGNMENTS    3  3  3  3  3  3  3  3  3  3  3  3  3  3  3  3  3  3  3  3
CENTRE ASSIGNMENTS    3  4  4  4  4  4  4  4  4  4  4  4  4  4  4  4  4  4  4  4
CENTRE ASSIGNMENTS    4  4  4  4  4  4  4  4  4  4  4  4  4  4  4  4  4  4  4  4
CENTRE ASSIGNMENTS    4  4  4  4  4  4  4  4  4  4  4  4  4  4  4  4  4  4  4  4
CENTRE ASSIGNMENTS    4  4  4  4  4  4  4  4  4  4  4  4  4  4  4  4  5  5  5  5
CENTRE ASSIGNMENTS    5  5  5  5  5  5  5  5  5  5  5  5  5  5  5  5  5  5  5  5
CENTRE ASSIGNMENTS    5  5  5  5  5  5  5  5  5  5  5  5  5  5  5  5  5  5  5  5
CENTRE ASSIGNMENTS    5  5  5  5  5  5  5  5  5  5  5  5  5  5  5  5  5  5  5  5
CENTRE ASSIGNMENTS    5  5  5  5  5  5  5  5  5  5  5  6  6  6  6  6  6  6  6  6
CENTRE ASSIGNMENTS    6  6  6  6  6  6  6  6  6  6  6  6  6  6  6  6  6  6  6  6
CENTRE ASSIGNMENTS    6  6  6  6  6  6  6  6  6  6  6  6  6  6  6  6  6  6  6  6
CENTRE ASSIGNMENTS    6  6  6  6  6  6  6  6  6  6  6  6  6  6  6  6  6  6  6  6
CENTRE ASSIGNMENTS    6  6  6  6  6  6
TYPE ASSIGNMENTS      1  1  1  1  1  1  1  1  1  1  1  1  1  1  1  1  1  1  1  1
TYPE ASSIGNMENTS      1  1  1  1  1  1  1  1  1  1  1  1  1  1  1  1  1  1  1  1
TYPE ASSIGNMENTS      1  1  2  2  2  2  2  2  2  3  3  3  3  3  3  3  4  4  4  4
TYPE ASSIGNMENTS      4  4  4  2  2  2  2  2  2  2  3  3  3  3  3  3  3  4  4  4
TYPE ASSIGNMENTS      4  4  4  4  2  3  4  2  3  4  2  3  4  5  6  7  8  9 10  5
TYPE ASSIGNMENTS      6  7  8  9 10  5  6  7  8  9 10 11 12 13 17 14 15 18 19 16
TYPE ASSIGNMENTS     20 11 12 13 17 14 15 18 19 16 20  1  1  1  1  1  1  1  1  1
TYPE ASSIGNMENTS      1  1  1  1  1  1  1  1  1  1  2  2  2  3  3  3  4  4  4  2
TYPE ASSIGNMENTS      3  4  2  3  4  2  3  4  5  6  7  8  9 10  5  6  7  8  9 10
TYPE ASSIGNMENTS      5  6  7  8  9 10 11 12 13 17 14 15 18 19 16 20 11 12 13 17
TYPE ASSIGNMENTS     14 15 18 19 16 20  1  1  1  1  1  1  1  1  1  1  1  1  1  1
TYPE ASSIGNMENTS      1  1  1  1  1  2  2  2  3  3  3  4  4  4  2  3  4  2  3  4
TYPE ASSIGNMENTS      2  3  4  5  6  7  8  9 10  5  6  7  8  9 10  5  6  7  8  9
TYPE ASSIGNMENTS     10 11 12 13 17 14 15 18 19 16 20 11 12 13 17 14 15 18 19 16
TYPE ASSIGNMENTS     20  1  1  1  1  1  1  1  1  1  1  1  1  1  1  1  1  1  1  1
TYPE ASSIGNMENTS      2  2  2  3  3  3  4  4  4  2  3  4  2  3  4  2  3  4  5  6
TYPE ASSIGNMENTS      7  8  9 10  5  6  7  8  9 10  5  6  7  8  9 10 11 12 13 17
TYPE ASSIGNMENTS     14 15 18 19 16 20 11 12 13 17 14 15 18 19 16 20  1  1  1  1
TYPE ASSIGNMENTS      1  1  1  1  1  1  1  1  1  1  1  1  1  1  1  2  2  2  3  3
TYPE ASSIGNMENTS      3  4  4  4  2  3  4  2  3  4  2  3  4  5  6  7  8  9 10  5
TYPE ASSIGNMENTS      6  7  8  9 10  5  6  7  8  9 10 11 12 13 17 14 15 18 19 16
TYPE ASSIGNMENTS     20 11 12 13 17 14 15 18 19 16 20  1  1  1  1  1  1  1  1  1
TYPE ASSIGNMENTS      1  1  1  1  1  1  1  1  1  1  2  2  2  3  3  3  4  4  4  2
TYPE ASSIGNMENTS      3  4  2  3  4  2  3  4  5  6  7  8  9 10  5  6  7  8  9 10
TYPE ASSIGNMENTS      5  6  7  8  9 10 11 12 13 17 14 15 18 19 16 20 11 12 13 17
TYPE ASSIGNMENTS     14 15 18 19 16 20
EXPONENTS  0.4561000D+06 0.6833000D+05 0.1555000D+05 0.4405000D+04 0.1439000D+04
EXPONENTS  0.5204000D+03 0.2031000D+03 0.8396000D+02 0.3620000D+02 0.1583000D+02
EXPONENTS  0.6334000D+01 0.2694000D+01 0.4313000D+00 0.4561000D+06 0.6833000D+05
EXPONENTS  0.1555000D+05 0.4405000D+04 0.1439000D+04 0.5204000D+03 0.2031000D+03
EXPONENTS  0.8396000D+02 0.3620000D+02 0.1583000D+02 0.6334000D+01 0.2694000D+01
EXPONENTS  0.4313000D+00 0.4561000D+06 0.6833000D+05 0.1555000D+05 0.4405000D+04
EXPONENTS  0.1439000D+04 0.5204000D+03 0.2031000D+03 0.8396000D+02 0.3620000D+02
EXPONENTS  0.1583000D+02 0.6334000D+01 0.2694000D+01 0.4313000D+00 0.9768000D+00
EXPONENTS  0.1625000D+00 0.5910000D-01 0.6633000D+03 0.1568000D+03 0.4998000D+02
EXPONENTS  0.1842000D+02 0.7240000D+01 0.2922000D+01 0.3818000D+00 0.6633000D+03
EXPONENTS  0.1568000D+03 0.4998000D+02 0.1842000D+02 0.7240000D+01 0.2922000D+01
EXPONENTS  0.3818000D+00 0.6633000D+03 0.1568000D+03 0.4998000D+02 0.1842000D+02
EXPONENTS  0.7240000D+01 0.2922000D+01 0.3818000D+00 0.6633000D+03 0.1568000D+03
EXPONENTS  0.4998000D+02 0.1842000D+02 0.7240000D+01 0.2922000D+01 0.3818000D+00
EXPONENTS  0.6633000D+03 0.1568000D+03 0.4998000D+02 0.1842000D+02 0.7240000D+01
EXPONENTS  0.2922000D+01 0.3818000D+00 0.6633000D+03 0.1568000D+03 0.4998000D+02
EXPONENTS  0.1842000D+02 0.7240000D+01 0.2922000D+01 0.3818000D+00 0.1022000D+01
EXPONENTS  0.1022000D+01 0.1022000D+01 0.1301000D+00 0.1301000D+00 0.1301000D+00
EXPONENTS  0.4190000D-01 0.4190000D-01 0.4190000D-01 0.1046000D+01 0.1046000D+01
EXPONENTS  0.1046000D+01 0.1046000D+01 0.1046000D+01 0.1046000D+01 0.3440000D+00
EXPONENTS  0.3440000D+00 0.3440000D+00 0.3440000D+00 0.3440000D+00 0.3440000D+00
EXPONENTS  0.1350000D+00 0.1350000D+00 0.1350000D+00 0.1350000D+00 0.1350000D+00
EXPONENTS  0.1350000D+00 0.7060000D+00 0.7060000D+00 0.7060000D+00 0.7060000D+00
EXPONENTS  0.7060000D+00 0.7060000D+00 0.7060000D+00 0.7060000D+00 0.7060000D+00
EXPONENTS  0.7060000D+00 0.3120000D+00 0.3120000D+00 0.3120000D+00 0.3120000D+00
EXPONENTS  0.3120000D+00 0.3120000D+00 0.3120000D+00 0.3120000D+00 0.3120000D+00
EXPONENTS  0.3120000D+00 0.1950000D+05 0.2923000D+04 0.6645000D+03 0.1875000D+03
EXPONENTS  0.6062000D+02 0.2142000D+02 0.7950000D+01 0.8815000D+00 0.1950000D+05
EXPONENTS  0.2923000D+04 0.6645000D+03 0.1875000D+03 0.6062000D+02 0.2142000D+02
EXPONENTS  0.7950000D+01 0.8815000D+00 0.2257000D+01 0.3041000D+00 0.9158000D-01
EXPONENTS  0.4388000D+02 0.9926000D+01 0.2930000D+01 0.4388000D+02 0.9926000D+01
EXPONENTS  0.2930000D+01 0.4388000D+02 0.9926000D+01 0.2930000D+01 0.9132000D+00
EXPONENTS  0.9132000D+00 0.9132000D+00 0.2672000D+00 0.2672000D+00 0.2672000D+00
EXPONENTS  0.7361000D-01 0.7361000D-01 0.7361000D-01 0.3107000D+01 0.3107000D+01
EXPONENTS  0.3107000D+01 0.3107000D+01 0.3107000D+01 0.3107000D+01 0.8550000D+00
EXPONENTS  0.8550000D+00 0.8550000D+00 0.8550000D+00 0.8550000D+00 0.8550000D+00
EXPONENTS  0.2920000D+00 0.2920000D+00 0.2920000D+00 0.2920000D+00 0.2920000D+00
EXPONENTS  0.2920000D+00 0.1917000D+01 0.1917000D+01 0.1917000D+01 0.1917000D+01
EXPONENTS  0.1917000D+01 0.1917000D+01 0.1917000D+01 0.1917000D+01 0.1917000D+01
EXPONENTS  0.1917000D+01 0.7240000D+00 0.7240000D+00 0.7240000D+00 0.7240000D+00
EXPONENTS  0.7240000D+00 0.7240000D+00 0.7240000D+00 0.7240000D+00 0.7240000D+00
EXPONENTS  0.7240000D+00 0.1950000D+05 0.2923000D+04 0.6645000D+03 0.1875000D+03
EXPONENTS  0.6062000D+02 0.2142000D+02 0.7950000D+01 0.8815000D+00 0.1950000D+05
EXPONENTS  0.2923000D+04 0.6645000D+03 0.1875000D+03 0.6062000D+02 0.2142000D+02
EXPONENTS  0.7950000D+01 0.8815000D+00 0.2257000D+01 0.3041000D+00 0.9158000D-01
EXPONENTS  0.4388000D+02 0.9926000D+01 0.2930000D+01 0.4388000D+02 0.9926000D+01
EXPONENTS  0.2930000D+01 0.4388000D+02 0.9926000D+01 0.2930000D+01 0.9132000D+00
EXPONENTS  0.9132000D+00 0.9132000D+00 0.2672000D+00 0.2672000D+00 0.2672000D+00
EXPONENTS  0.7361000D-01 0.7361000D-01 0.7361000D-01 0.3107000D+01 0.3107000D+01
EXPONENTS  0.3107000D+01 0.3107000D+01 0.3107000D+01 0.3107000D+01 0.8550000D+00
EXPONENTS  0.8550000D+00 0.8550000D+00 0.8550000D+00 0.8550000D+00 0.8550000D+00
EXPONENTS  0.2920000D+00 0.2920000D+00 0.2920000D+00 0.2920000D+00 0.2920000D+00
EXPONENTS  0.2920000D+00 0.1917000D+01 0.1917000D+01 0.1917000D+01 0.1917000D+01
EXPONENTS  0.1917000D+01 0.1917000D+01 0.1917000D+01 0.1917000D+01 0.1917000D+01
EXPONENTS  0.1917000D+01 0.7240000D+00 0.7240000D+00 0.7240000D+00 0.7240000D+00
EXPONENTS  0.7240000D+00 0.7240000D+00 0.7240000D+00 0.7240000D+00 0.7240000D+00
EXPONENTS  0.7240000D+00 0.1950000D+05 0.2923000D+04 0.6645000D+03 0.1875000D+03
EXPONENTS  0.6062000D+02 0.2142000D+02 0.7950000D+01 0.8815000D+00 0.1950000D+05
EXPONENTS  0.2923000D+04 0.6645000D+03 0.1875000D+03 0.6062000D+02 0.2142000D+02
EXPONENTS  0.7950000D+01 0.8815000D+00 0.2257000D+01 0.3041000D+00 0.9158000D-01
EXPONENTS  0.4388000D+02 0.9926000D+01 0.2930000D+01 0.4388000D+02 0.9926000D+01
EXPONENTS  0.2930000D+01 0.4388000D+02 0.9926000D+01 0.2930000D+01 0.9132000D+00
EXPONENTS  0.9132000D+00 0.9132000D+00 0.2672000D+00 0.2672000D+00 0.2672000D+00
EXPONENTS  0.7361000D-01 0.7361000D-01 0.7361000D-01 0.3107000D+01 0.3107000D+01
EXPONENTS  0.3107000D+01 0.3107000D+01 0.3107000D+01 0.3107000D+01 0.8550000D+00
EXPONENTS  0.8550000D+00 0.8550000D+00 0.8550000D+00 0.8550000D+00 0.8550000D+00
EXPONENTS  0.2920000D+00 0.2920000D+00 0.2920000D+00 0.2920000D+00 0.2920000D+00
EXPONENTS  0.2920000D+00 0.1917000D+01 0.1917000D+01 0.1917000D+01 0.1917000D+01
EXPONENTS  0.1917000D+01 0.1917000D+01 0.1917000D+01 0.1917000D+01 0.1917000D+01
EXPONENTS  0.1917000D+01 0.7240000D+00 0.7240000D+00 0.7240000D+00 0.7240000D+00
EXPONENTS  0.7240000D+00 0.7240000D+00 0.7240000D+00 0.7240000D+00 0.7240000D+00
EXPONENTS  0.7240000D+00 0.1950000D+05 0.2923000D+04 0.6645000D+03 0.1875000D+03
EXPONENTS  0.6062000D+02 0.2142000D+02 0.7950000D+01 0.8815000D+00 0.1950000D+05
EXPONENTS  0.2923000D+04 0.6645000D+03 0.1875000D+03 0.6062000D+02 0.2142000D+02
EXPONENTS  0.7950000D+01 0.8815000D+00 0.2257000D+01 0.3041000D+00 0.9158000D-01
EXPONENTS  0.4388000D+02 0.9926000D+01 0.2930000D+01 0.4388000D+02 0.9926000D+01
EXPONENTS  0.2930000D+01 0.4388000D+02 0.9926000D+01 0.2930000D+01 0.9132000D+00
EXPONENTS  0.9132000D+00 0.9132000D+00 0.2672000D+00 0.2672000D+00 0.2672000D+00
EXPONENTS  0.7361000D-01 0.7361000D-01 0.7361000D-01 0.3107000D+01 0.3107000D+01
EXPONENTS  0.3107000D+01 0.3107000D+01 0.3107000D+01 0.3107000D+01 0.8550000D+00
EXPONENTS  0.8550000D+00 0.8550000D+00 0.8550000D+00 0.8550000D+00 0.8550000D+00
EXPONENTS  0.2920000D+00 0.2920000D+00 0.2920000D+00 0.2920000D+00 0.2920000D+00
EXPONENTS  0.2920000D+00 0.1917000D+01 0.1917000D+01 0.1917000D+01 0.1917000D+01
EXPONENTS  0.1917000D+01 0.1917000D+01 0.1917000D+01 0.1917000D+01 0.1917000D+01
EXPONENTS  0.1917000D+01 0.7240000D+00 0.7240000D+00 0.7240000D+00 0.7240000D+00
EXPONENTS  0.7240000D+00 0.7240000D+00 0.7240000D+00 0.7240000D+00 0.7240000D+00
EXPONENTS  0.7240000D+00 0.1950000D+05 0.2923000D+04 0.6645000D+03 0.1875000D+03
EXPONENTS  0.6062000D+02 0.2142000D+02 0.7950000D+01 0.8815000D+00 0.1950000D+05
EXPONENTS  0.2923000D+04 0.6645000D+03 0.1875000D+03 0.6062000D+02 0.2142000D+02
EXPONENTS  0.7950000D+01 0.8815000D+00 0.2257000D+01 0.3041000D+00 0.9158000D-01
EXPONENTS  0.4388000D+02 0.9926000D+01 0.2930000D+01 0.4388000D+02 0.9926000D+01
EXPONENTS  0.2930000D+01 0.4388000D+02 0.9926000D+01 0.2930000D+01 0.9132000D+00
EXPONENTS  0.9132000D+00 0.9132000D+00 0.2672000D+00 0.2672000D+00 0.2672000D+00
EXPONENTS  0.7361000D-01 0.7361000D-01 0.7361000D-01 0.3107000D+01 0.3107000D+01
EXPONENTS  0.3107000D+01 0.3107000D+01 0.3107000D+01 0.3107000D+01 0.8550000D+00
EXPONENTS  0.8550000D+00 0.8550000D+00 0.8550000D+00 0.8550000D+00 0.8550000D+00
EXPONENTS  0.2920000D+00 0.2920000D+00 0.2920000D+00 0.2920000D+00 0.2920000D+00
EXPONENTS  0.2920000D+00 0.1917000D+01 0.1917000D+01 0.1917000D+01 0.1917000D+01
EXPONENTS  0.1917000D+01 0.1917000D+01 0.1917000D+01 0.1917000D+01 0.1917000D+01
EXPONENTS  0.1917000D+01 0.7240000D+00 0.7240000D+00 0.7240000D+00 0.7240000D+00
EXPONENTS  0.7240000D+00 0.7240000D+00 0.7240000D+00 0.7240000D+00 0.7240000D+00
EXPONENTS  0.7240000D+00
MO    1     MO 0.0        OCC NO =    2.0000000  ORB. ENERGY = -101.623363
  0.61754420D+00  0.11554276D+01  0.19963229D+01  0.32362722D+01  0.49145375D+01
  0.68306292D+01  0.81206327D+01  0.72332350D+01  0.35907944D+01  0.57853452D+00
  0.88820459D-02  0.15872129D-02  0.59311669D-04 -0.15766424D-02 -0.29449417D-02
 -0.51110891D-02 -0.82932205D-02 -0.12836920D-01 -0.18374885D-01 -0.23984965D-01
 -0.25559983D-01 -0.19106606D-01 -0.10086038D-02  0.12960058D-01  0.76997634D-02
 -0.28868340D-04  0.65114584D-03  0.12152699D-02  0.21120321D-02  0.34229827D-02
  0.53164281D-02  0.76159367D-02  0.10056135D-01  0.10873665D-01  0.85250940D-02
  0.42420586D-03 -0.73081610D-02 -0.75653014D-02  0.34234059D-02 -0.39459733D-02
 -0.13133025D-02 -0.34094281D-03 -0.18657705D-13 -0.24576384D-13 -0.27113509D-13
 -0.22520886D-13 -0.11961390D-13 -0.30851913D-14  0.31714718D-17  0.26582832D-14
  0.35015556D-14  0.38630361D-14  0.32086956D-14  0.17042162D-14  0.43956706D-15
 -0.45185999D-18 -0.12037181D-01 -0.15855669D-01 -0.17492518D-01 -0.14529547D-01
 -0.77169951D-02 -0.19904381D-02  0.20461027D-05  0.56142156D-14  0.73710536D-14
  0.83924868D-14  0.71064131D-14  0.40708270D-14  0.92597192D-15 -0.43340582D-15
  0.28357690D-14  0.37231568D-14  0.42390880D-14  0.35894856D-14  0.20561955D-14
  0.46771315D-15 -0.21891549D-15  0.95746787D-02  0.12570851D-01  0.14312839D-01
  0.12119524D-01  0.69425300D-02  0.15791847D-02 -0.73914536D-03  0.11722723D-14
 -0.14349051D-15  0.52494634D-03  0.25190847D-15 -0.44954685D-15  0.44337760D-03
  0.18149627D-16  0.83576222D-17  0.14742775D-04  0.60443583D-04  0.60443583D-04
 -0.12088717D-03 -0.66750866D-18 -0.48530351D-16  0.11886725D-16 -0.93145517D-04
 -0.93145517D-04  0.18629103D-03  0.27454707D-18  0.36297100D-16  0.25209492D-16
  0.13215987D-04  0.13215987D-04 -0.26431974D-04 -0.10313904D-18 -0.41356602D-16
  0.15303174D-16 -0.39539559D-16 -0.17588159D-16 -0.10099928D-03  0.63819807D-16
  0.43073870D-16  0.15149892D-03  0.54798870D-16  0.96906064D-17  0.15149892D-03
 -0.19900716D-18  0.19165966D-16 -0.58596066D-16 -0.17461663D-04 -0.34023896D-16
  0.82374134D-16  0.26192494D-04 -0.23474001D-16  0.93414064D-16  0.26192494D-04
  0.73442649D-19 -0.38865793D-04 -0.72447522D-04 -0.12281636D-03 -0.18598017D-03
 -0.23256885D-03 -0.20022012D-03 -0.76971923D-04  0.33353194D-06  0.22790195D-04
  0.42795949D-04  0.72874121D-04  0.11415688D-03  0.15298365D-03  0.16455454D-03
  0.98798330D-04 -0.64973939D-04  0.65290004D-04  0.41043856D-03  0.16914147D-03
 -0.58770779D-16 -0.57476538D-16 -0.37977179D-16  0.53114169D-16  0.51944497D-16
  0.34321926D-16  0.10483031D-03  0.10252176D-03  0.67740458D-04  0.43208855D-16
 -0.33586469D-16  0.93436059D-04 -0.59905998D-16  0.21831460D-16 -0.97070242D-04
 -0.97900621D-17 -0.27075666D-16  0.71087105D-06 -0.31909120D-03 -0.31909120D-03
  0.63818241D-03  0.17127483D-18 -0.89206907D-16  0.74762251D-17  0.98220488D-04
  0.98220488D-04 -0.19644098D-03 -0.67034311D-19  0.30952288D-16 -0.22130244D-17
  0.79550151D-04  0.79550151D-04 -0.15910030D-03  0.40322787D-19 -0.59728128D-17
 -0.23820275D-16  0.26151490D-16 -0.19970973D-16  0.72127407D-03  0.20252378D-15
 -0.14762411D-15 -0.10819111D-02 -0.28097825D-15  0.20753703D-15 -0.10819111D-02
 -0.22017343D-18 -0.14256669D-16  0.92904496D-17 -0.32618979D-03 -0.55712959D-16
  0.42431692D-16  0.48928469D-03  0.98482965D-16 -0.70303041D-16  0.48928469D-03
  0.61197494D-19 -0.10126165D-03 -0.18875610D-03 -0.31998800D-03 -0.48455613D-03
 -0.60593914D-03 -0.52165716D-03 -0.20054406D-03  0.86899023D-06  0.65355888D-04
  0.12272678D-03  0.20898254D-03  0.32736992D-03  0.43871421D-03  0.47189628D-03
  0.28332591D-03 -0.18632704D-03  0.71054947D-04  0.29534141D-03  0.13802571D-03
 -0.78063219D-04 -0.76344123D-04 -0.50443790D-04  0.55346703D-16  0.54127867D-16
  0.35764570D-16 -0.11310211D-03 -0.11061139D-03 -0.73085623D-04  0.53385529D-05
 -0.37348907D-16  0.10941350D-03 -0.18513281D-03  0.28811336D-16 -0.12947386D-03
 -0.77093725D-05 -0.15946286D-16 -0.75638327D-05  0.25051907D-03 -0.16231478D-03
 -0.88204296D-04 -0.47527167D-16 -0.54595659D-04  0.56965076D-17 -0.37311829D-04
  0.30545077D-04  0.67667517D-05  0.19492945D-16 -0.16165262D-04 -0.22753804D-17
 -0.69630788D-05  0.10311111D-05  0.59319677D-05  0.60596249D-17  0.85749370D-04
 -0.12048596D-17 -0.44274519D-03 -0.15536370D-16 -0.12627727D-03  0.73822342D-03
  0.15770386D-15  0.29300393D-03  0.59001214D-03 -0.11109475D-15  0.85827872D-04
 -0.23100494D-16  0.15923763D-03  0.85066957D-17  0.38849816D-04 -0.26095663D-03
 -0.56231662D-16 -0.10742626D-03 -0.21675626D-03  0.30711575D-16 -0.91231918D-05
  0.99287556D-17 -0.10126165D-03 -0.18875610D-03 -0.31998800D-03 -0.48455613D-03
 -0.60593914D-03 -0.52165716D-03 -0.20054406D-03  0.86899023D-06  0.65355888D-04
  0.12272678D-03  0.20898254D-03  0.32736992D-03  0.43871421D-03  0.47189628D-03
  0.28332591D-03 -0.18632704D-03  0.71054947D-04  0.29534141D-03  0.13802571D-03
 -0.45549218D-16 -0.44546140D-16 -0.29433518D-16 -0.78063219D-04 -0.76344123D-04
 -0.50443790D-04 -0.11310211D-03 -0.11061139D-03 -0.73085623D-04  0.33258490D-16
  0.53385529D-05  0.10941350D-03 -0.31845494D-16 -0.18513281D-03 -0.12947386D-03
 -0.72675536D-17 -0.77093725D-05 -0.75638327D-05 -0.16231478D-03  0.25051907D-03
 -0.88204296D-04  0.11637987D-15  0.46245649D-16 -0.54595659D-04  0.30545077D-04
 -0.37311829D-04  0.67667517D-05 -0.43870360D-16 -0.20468898D-16 -0.16165262D-04
  0.10311111D-05 -0.69630788D-05  0.59319677D-05  0.81619218D-17  0.13426093D-16
  0.85749370D-04  0.48277328D-16 -0.44274519D-03 -0.12627727D-03 -0.25069337D-15
  0.73822342D-03  0.85827872D-04  0.10586139D-15  0.59001214D-03  0.29300393D-03
  0.11754155D-15 -0.15377777D-16  0.15923763D-03  0.38849816D-04  0.79113711D-16
 -0.26095663D-03 -0.91231918D-05 -0.32980380D-16 -0.21675626D-03 -0.10742626D-03
 -0.35934314D-16 -0.10126165D-03 -0.18875610D-03 -0.31998800D-03 -0.48455613D-03
 -0.60593914D-03 -0.52165716D-03 -0.20054406D-03  0.86899023D-06  0.65355888D-04
  0.12272678D-03  0.20898254D-03  0.32736992D-03  0.43871421D-03  0.47189628D-03
  0.28332591D-03 -0.18632704D-03  0.71054947D-04  0.29534141D-03  0.13802571D-03
  0.78063219D-04  0.76344123D-04  0.50443790D-04  0.60028010D-16  0.58706082D-16
  0.38789591D-16 -0.11310211D-03 -0.11061139D-03 -0.73085623D-04 -0.53385529D-05
 -0.39273306D-16  0.10941350D-03  0.18513281D-03  0.29539251D-16 -0.12947386D-03
  0.77093725D-05 -0.16794240D-16 -0.75638327D-05  0.25051907D-03 -0.16231478D-03
 -0.88204296D-04  0.45429245D-16  0.54595659D-04  0.61816629D-17 -0.37311829D-04
  0.30545077D-04  0.67667517D-05 -0.18169412D-16  0.16165262D-04 -0.23527363D-17
 -0.69630788D-05  0.10311111D-05  0.59319677D-05 -0.66321584D-17 -0.85749370D-04
 -0.11796120D-17  0.44274519D-03  0.53151152D-18 -0.12627727D-03 -0.73822342D-03
  0.12757544D-15  0.29300393D-03 -0.59001214D-03 -0.12916997D-15  0.85827872D-04
  0.22545380D-16 -0.15923763D-03  0.72958284D-17  0.38849816D-04  0.26095663D-03
 -0.53678890D-16 -0.10742626D-03  0.21675626D-03  0.31791405D-16 -0.91231918D-05
 -0.97266761D-17 -0.10126165D-03 -0.18875610D-03 -0.31998800D-03 -0.48455613D-03
 -0.60593914D-03 -0.52165716D-03 -0.20054406D-03  0.86899023D-06  0.65355888D-04
  0.12272678D-03  0.20898254D-03  0.32736992D-03  0.43871421D-03  0.47189628D-03
  0.28332591D-03 -0.18632704D-03  0.71054947D-04  0.29534141D-03  0.13802571D-03
 -0.51065144D-16 -0.49940596D-16 -0.32997863D-16  0.78063219D-04  0.76344123D-04
  0.50443790D-04 -0.11310211D-03 -0.11061139D-03 -0.73085623D-04  0.35610382D-16
 -0.53385529D-05  0.10941350D-03 -0.32824276D-16  0.18513281D-03 -0.12947386D-03
 -0.64611727D-17  0.77093725D-05 -0.75638327D-05 -0.16231478D-03  0.25051907D-03
 -0.88204296D-04 -0.11440069D-15  0.45784768D-16  0.54595659D-04  0.30545077D-04
 -0.37311829D-04  0.67667517D-05  0.42610732D-16 -0.20379074D-16  0.16165262D-04
  0.10311111D-05 -0.69630788D-05  0.59319677D-05 -0.75956512D-17  0.13422176D-16
 -0.85749370D-04  0.32750453D-16  0.44274519D-03 -0.12627727D-03 -0.22251459D-15
 -0.73822342D-03  0.85827872D-04  0.12426323D-15 -0.59001214D-03  0.29300393D-03
 -0.11847753D-15 -0.14352317D-16 -0.15923763D-03  0.38849816D-04  0.77239518D-16
  0.26095663D-03 -0.91231918D-05 -0.34182567D-16  0.21675626D-03 -0.10742626D-03
  0.36141998D-16
MO    2     MO 0.0        OCC NO =    2.0000000  ORB. ENERGY =  -24.585005
 -0.57569350D-05 -0.10771247D-04 -0.18610329D-04 -0.30169514D-04 -0.45814814D-04
 -0.63677205D-04 -0.75703010D-04 -0.67430419D-04 -0.33474479D-04 -0.53932749D-05
 -0.82801135D-07 -0.14796482D-07 -0.55292143D-09  0.21103442D-04  0.39418199D-04
  0.68412195D-04  0.11100519D-03  0.17182285D-03  0.24594880D-03  0.32104001D-03
  0.34212170D-03  0.25574292D-03  0.13500214D-04 -0.17347105D-03 -0.10306174D-03
  0.38640424D-06 -0.19078223D-04 -0.35606754D-04 -0.61881404D-04 -0.10029155D-03
 -0.15576848D-03 -0.22314285D-03 -0.29463933D-03 -0.31859252D-03 -0.24978067D-03
 -0.12429003D-04  0.21412518D-03  0.22165926D-03 -0.10030395D-03 -0.24710344D-03
  0.51229164D-03  0.16345077D-03  0.61968435D-14  0.81626337D-14  0.90052971D-14
  0.74799344D-14  0.39727749D-14  0.10246945D-14 -0.10533511D-17  0.21322903D-14
  0.28087049D-14  0.30986594D-14  0.25737928D-14  0.13670039D-14  0.35259018D-15
 -0.36245072D-18 -0.11553715D-01 -0.15218836D-01 -0.16789941D-01 -0.13945976D-01
 -0.74070465D-02 -0.19104934D-02  0.19639222D-05 -0.28479595D-15 -0.37391621D-15
 -0.42573111D-15 -0.36049162D-15 -0.20650348D-15 -0.46972377D-16  0.21985658D-16
 -0.58363824D-15 -0.76627422D-15 -0.87245958D-15 -0.73876294D-15 -0.42319185D-15
 -0.96261465D-16  0.45055663D-16  0.98985811D-02  0.12996111D-01  0.14797029D-01
  0.12529516D-01  0.71773894D-02  0.16326071D-02 -0.76414996D-03 -0.26165244D-15
 -0.35739796D-15  0.10306357D-02  0.22309437D-15  0.47071672D-15 -0.45915093D-03
 -0.40183756D-17  0.80218592D-16 -0.89543631D-05  0.16930475D-03  0.16930475D-03
 -0.33860950D-03 -0.47639358D-17  0.21980459D-16  0.16658919D-15 -0.24001937D-03
 -0.24001937D-03  0.48003874D-03  0.25467723D-17 -0.27000799D-16 -0.86467165D-16
 -0.34220511D-04 -0.34220511D-04  0.68441022D-04 -0.34186200D-17  0.43793810D-18
 -0.93082665D-16 -0.12018457D-16 -0.20763899D-16 -0.22714064D-03 -0.16648133D-16
  0.57413448D-16  0.34071096D-03  0.52703503D-16  0.48782485D-17  0.34071096D-03
 -0.75762266D-17  0.22857610D-16  0.45773838D-16 -0.37050247D-04 -0.71361363D-18
 -0.96294993D-16  0.55575371D-04 -0.67859218D-16 -0.41026520D-16  0.55575371D-04
  0.28995642D-17  0.59436128D+00  0.11079152D+01  0.18781886D+01  0.28441311D+01
  0.35565959D+01  0.30618978D+01  0.11771053D+01 -0.51005899D-02  0.20383781D-03
  0.38277131D-03  0.65179352D-03  0.10210307D-02  0.13683013D-02  0.14717925D-02
  0.88366227D-03 -0.58113349D-03  0.64219446D-01 -0.43361398D-03 -0.54347090D-03
 -0.11368811D-13 -0.11118449D-13 -0.73464295D-14  0.53340740D-14  0.52166078D-14
  0.34468334D-14  0.52212113D-02  0.51062306D-02  0.33739024D-02  0.59607196D-15
 -0.16817021D-15 -0.67997955D-03 -0.92985021D-16 -0.13498860D-15 -0.73156732D-03
 -0.19921686D-16 -0.70894344D-16 -0.59689449D-04  0.55248604D-03  0.55248604D-03
 -0.11049721D-02 -0.67896525D-17 -0.14301718D-13  0.66459291D-14  0.19177172D-03
  0.19177172D-03 -0.38354344D-03  0.37657470D-18  0.86962915D-15 -0.29119447D-15
  0.78829924D-04  0.78829924D-04 -0.15765985D-03  0.98444182D-18 -0.12158116D-15
 -0.71305573D-16  0.20333025D-15 -0.16392010D-15  0.34088764D-03  0.78809473D-16
  0.49736208D-16 -0.51133147D-03 -0.68880023D-15  0.44202409D-15 -0.51133147D-03
 -0.79821020D-17 -0.82173204D-17  0.27827736D-16 -0.23442880D-03  0.33116752D-16
 -0.32964136D-16  0.35164320D-03 -0.84647904D-17 -0.50519072D-16  0.35164320D-03
  0.24219980D-17 -0.24233982D-06 -0.45173193D-06 -0.76579668D-06 -0.11596419D-05
 -0.14501362D-05 -0.12484322D-05 -0.47994292D-06  0.20796712D-08 -0.11759680D-05
 -0.22082597D-05 -0.37602854D-05 -0.58904649D-05 -0.78939159D-05 -0.84909709D-05
 -0.50979678D-05  0.33526381D-05 -0.27060153D-04  0.70499768D-04  0.28576449D-04
  0.10848285D-03  0.10609386D-03  0.70100700D-04 -0.71561341D-16 -0.69985429D-16
 -0.46242332D-16  0.10153180D-03  0.99295879D-04  0.65608986D-04 -0.87042977D-04
  0.66563860D-16 -0.10228486D-03 -0.34326016D-04 -0.63630194D-16  0.10840256D-03
 -0.77571622D-05 -0.39257482D-16  0.43874895D-06 -0.63248796D-04 -0.56188986D-04
  0.11943778D-03  0.20353541D-15  0.12047053D-03  0.99967845D-16  0.51055738D-04
 -0.26790408D-05 -0.48376697D-04 -0.10811305D-15 -0.14008815D-05 -0.51247373D-16
  0.89383374D-05  0.41837363D-05 -0.13122074D-04  0.53791504D-16 -0.77334991D-04
  0.36080557D-16  0.43194491D-04 -0.27596361D-16  0.98895273D-04  0.32285522D-03
  0.23332701D-16 -0.37059423D-03 -0.45243869D-03  0.59456383D-16  0.73908413D-04
  0.37649674D-15 -0.26354235D-04  0.51380904D-17 -0.34673480D-04 -0.85877410D-04
 -0.39037276D-18  0.13237739D-03  0.16494011D-03 -0.15023898D-16 -0.28356948D-04
 -0.11577137D-15 -0.24233986D-06 -0.45173200D-06 -0.76579679D-06 -0.11596420D-05
 -0.14501364D-05 -0.12484324D-05 -0.47994299D-06  0.20796715D-08 -0.11759680D-05
 -0.22082597D-05 -0.37602854D-05 -0.58904649D-05 -0.78939159D-05 -0.84909709D-05
 -0.50979678D-05  0.33526381D-05 -0.27060153D-04  0.70499768D-04  0.28576449D-04
 -0.41385534D-16 -0.40474148D-16 -0.26742981D-16  0.10848285D-03  0.10609386D-03
  0.70100700D-04  0.10153180D-03  0.99295879D-04  0.65608986D-04  0.30932144D-16
 -0.87042977D-04 -0.10228486D-03 -0.45321184D-16 -0.34326016D-04  0.10840256D-03
  0.48265172D-17 -0.77571622D-05  0.43874895D-06 -0.56188986D-04 -0.63248796D-04
  0.11943778D-03 -0.44203015D-16 -0.37878136D-17  0.12047053D-03 -0.26790408D-05
  0.51055738D-04 -0.48376697D-04  0.68016975D-17  0.86388020D-17 -0.14008815D-05
  0.41837363D-05  0.89383374D-05 -0.13122074D-04  0.24096374D-16 -0.86962939D-17
 -0.77334991D-04  0.34299965D-16  0.43194491D-04  0.98895273D-04 -0.10594955D-17
  0.32285522D-03  0.73908413D-04 -0.10184040D-15 -0.45243869D-03 -0.37059423D-03
 -0.22874615D-15 -0.68775075D-17 -0.26354235D-04 -0.34673480D-04 -0.82398124D-17
 -0.85877410D-04 -0.28356948D-04  0.28872335D-16  0.16494011D-03  0.13237739D-03
  0.63391274D-16 -0.24233985D-06 -0.45173198D-06 -0.76579676D-06 -0.11596420D-05
 -0.14501364D-05 -0.12484323D-05 -0.47994297D-06  0.20796715D-08 -0.11759680D-05
 -0.22082597D-05 -0.37602854D-05 -0.58904649D-05 -0.78939159D-05 -0.84909709D-05
 -0.50979678D-05  0.33526381D-05 -0.27060153D-04  0.70499768D-04  0.28576449D-04
 -0.10848285D-03 -0.10609386D-03 -0.70100700D-04 -0.11202073D-15 -0.10955382D-15
 -0.72386844D-16  0.10153180D-03  0.99295879D-04  0.65608986D-04  0.87042977D-04
  0.79477016D-16 -0.10228486D-03  0.34326016D-04 -0.71226980D-16  0.10840256D-03
  0.77571622D-05 -0.40881086D-16  0.43874895D-06 -0.63248796D-04 -0.56188986D-04
  0.11943778D-03 -0.22333318D-15 -0.12047053D-03  0.12283147D-15  0.51055738D-04
 -0.26790408D-05 -0.48376697D-04  0.11566954D-15  0.14008815D-05 -0.58351634D-16
  0.89383374D-05  0.41837363D-05 -0.13122074D-04 -0.59074677D-16  0.77334991D-04
  0.37417937D-16 -0.43194491D-04 -0.40246971D-17  0.98895273D-04 -0.32285522D-03
 -0.29355927D-16 -0.37059423D-03  0.45243869D-03  0.41430019D-16  0.73908413D-04
 -0.37277266D-15  0.26354235D-04  0.25227790D-17 -0.34673480D-04  0.85877410D-04
  0.66484869D-17  0.13237739D-03 -0.16494011D-03 -0.14216824D-16 -0.28356948D-04
  0.11733882D-15 -0.24233982D-06 -0.45173192D-06 -0.76579666D-06 -0.11596418D-05
 -0.14501362D-05 -0.12484322D-05 -0.47994290D-06  0.20796712D-08 -0.11759680D-05
 -0.22082597D-05 -0.37602854D-05 -0.58904649D-05 -0.78939159D-05 -0.84909709D-05
 -0.50979678D-05  0.33526381D-05 -0.27060152D-04  0.70499768D-04  0.28576449D-04
 -0.44813362D-16 -0.43826489D-16 -0.28958014D-16 -0.10848285D-03 -0.10609386D-03
 -0.70100700D-04  0.10153180D-03  0.99295879D-04  0.65608986D-04  0.40964615D-16
  0.87042977D-04 -0.10228486D-03 -0.51255271D-16  0.34326016D-04  0.10840256D-03
  0.53522069D-17  0.77571622D-05  0.43874895D-06 -0.56188986D-04 -0.63248796D-04
  0.11943778D-03  0.12670698D-16 -0.26094215D-18 -0.12047053D-03 -0.26790408D-05
  0.51055738D-04 -0.48376697D-04  0.22941901D-17  0.61120254D-17  0.14008815D-05
  0.41837363D-05  0.89383374D-05 -0.13122074D-04 -0.24037317D-16 -0.83418641D-17
  0.77334991D-04  0.27123375D-16 -0.43194491D-04  0.98895273D-04  0.14344396D-17
 -0.32285522D-03  0.73908413D-04 -0.82804564D-16  0.45243869D-03 -0.37059423D-03
  0.22033671D-15 -0.69960956D-17  0.26354235D-04 -0.34673480D-04 -0.56402487D-17
  0.85877410D-04 -0.28356948D-04  0.26628536D-16 -0.16494011D-03  0.13237739D-03
 -0.62734709D-16
MO    3     MO 0.0        OCC NO =    2.0000000  ORB. ENERGY =  -24.534186
 -0.11632421D-10 -0.21764305D-10 -0.37603897D-10 -0.60960302D-10 -0.92573082D-10
 -0.12866570D-09 -0.15296495D-09 -0.13624942D-09 -0.67638290D-10 -0.10897612D-10
 -0.16730737D-12 -0.29897663D-13 -0.11172290D-14  0.23955587D-10  0.44745598D-10
  0.77658155D-10  0.12600763D-09  0.19504484D-09  0.27918897D-09  0.36442881D-09
  0.38835971D-09  0.29030677D-09  0.15324778D-10 -0.19691580D-09 -0.11699061D-09