 Molden2AIM, Version 4.0.0 (06/02/2016)           Time: Sat Jun 30 02:48:01 2018
GAUSSIAN             15 MOL ORBITALS    281 PRIMITIVES        3 NUCLEI
  C    1    (CENTRE  1)   0.00000000  0.00000000  0.26021907  CHARGE =  6.0
  O    2    (CENTRE  2)   0.00000000  0.00000000  2.45181193  CHARGE =  8.0
  S    3    (CENTRE  3)   0.00000000  0.00000000 -2.71203100  CHARGE = 16.0
CENTRE ASSIGNMENTS    1  1  1  1  1  1  1  1  1  1  1  1  1  1  1  1  1  1  1  1
CENTRE ASSIGNMENTS    1  1  1  1  1  1  1  1  1  1  1  1  1  1  1  1  1  1  1  1
CENTRE ASSIGNMENTS    1  1  1  1  1  1  1  1  1  1  1  1  1  1  1  1  1  1  1  1
CENTRE ASSIGNMENTS    1  1  1  1  1  1  1  1  1  1  1  1  1  1  1  2  2  2  2  2
CENTRE ASSIGNMENTS    2  2  2  2  2  2  2  2  2  2  2  2  2  2  2  2  2  2  2  2
CENTRE ASSIGNMENTS    2  2  2  2  2  2  2  2  2  2  2  2  2  2  2  2  2  2  2  2
CENTRE ASSIGNMENTS    2  2  2  2  2  2  2  2  2  2  2  2  2  2  2  2  2  2  2  2
CENTRE ASSIGNMENTS    2  2  2  2  2  2  2  2  2  2  3  3  3  3  3  3  3  3  3  3
CENTRE ASSIGNMENTS    3  3  3  3  3  3  3  3  3  3  3  3  3  3  3  3  3  3  3  3
CENTRE ASSIGNMENTS    3  3  3  3  3  3  3  3  3  3  3  3  3  3  3  3  3  3  3  3
CENTRE ASSIGNMENTS    3  3  3  3  3  3  3  3  3  3  3  3  3  3  3  3  3  3  3  3
CENTRE ASSIGNMENTS    3  3  3  3  3  3  3  3  3  3  3  3  3  3  3  3  3  3  3  3
CENTRE ASSIGNMENTS    3  3  3  3  3  3  3  3  3  3  3  3  3  3  3  3  3  3  3  3
CENTRE ASSIGNMENTS    3  3  3  3  3  3  3  3  3  3  3  3  3  3  3  3  3  3  3  3
CENTRE ASSIGNMENTS    3
TYPE ASSIGNMENTS      1  1  1  1  1  1  1  1  1  1  1  1  1  1  1  1  1  1  1  2
TYPE ASSIGNMENTS      2  2  3  3  3  4  4  4  2  3  4  2  3  4  2  3  4  5  6  7
TYPE ASSIGNMENTS      8  9 10  5  6  7  8  9 10  5  6  7  8  9 10 11 12 13 17 14
TYPE ASSIGNMENTS     15 18 19 16 20 11 12 13 17 14 15 18 19 16 20  1  1  1  1  1
TYPE ASSIGNMENTS      1  1  1  1  1  1  1  1  1  1  1  1  1  1  2  2  2  3  3  3
TYPE ASSIGNMENTS      4  4  4  2  3  4  2  3  4  2  3  4  5  6  7  8  9 10  5  6
TYPE ASSIGNMENTS      7  8  9 10  5  6  7  8  9 10 11 12 13 17 14 15 18 19 16 20
TYPE ASSIGNMENTS     11 12 13 17 14 15 18 19 16 20  1  1  1  1  1  1  1  1  1  1
TYPE ASSIGNMENTS      1  1  1  1  1  1  1  1  1  1  1  1  1  1  1  1  1  1  1  1
TYPE ASSIGNMENTS      1  1  1  1  1  1  1  1  1  1  1  1  2  2  2  2  2  2  2  3
TYPE ASSIGNMENTS      3  3  3  3  3  3  4  4  4  4  4  4  4  2  2  2  2  2  2  2
TYPE ASSIGNMENTS      3  3  3  3  3  3  3  4  4  4  4  4  4  4  2  3  4  2  3  4
TYPE ASSIGNMENTS      2  3  4  5  6  7  8  9 10  5  6  7  8  9 10  5  6  7  8  9
TYPE ASSIGNMENTS     10 11 12 13 17 14 15 18 19 16 20 11 12 13 17 14 15 18 19 16
TYPE ASSIGNMENTS     20
EXPONENTS  0.8236000D+04 0.1235000D+04 0.2808000D+03 0.7927000D+02 0.2559000D+02
EXPONENTS  0.8997000D+01 0.3319000D+01 0.3643000D+00 0.8236000D+04 0.1235000D+04
EXPONENTS  0.2808000D+03 0.7927000D+02 0.2559000D+02 0.8997000D+01 0.3319000D+01
EXPONENTS  0.3643000D+00 0.9059000D+00 0.1285000D+00 0.4402000D-01 0.1871000D+02
EXPONENTS  0.4133000D+01 0.1200000D+01 0.1871000D+02 0.4133000D+01 0.1200000D+01
EXPONENTS  0.1871000D+02 0.4133000D+01 0.1200000D+01 0.3827000D+00 0.3827000D+00
EXPONENTS  0.3827000D+00 0.1209000D+00 0.1209000D+00 0.1209000D+00 0.3569000D-01
EXPONENTS  0.3569000D-01 0.3569000D-01 0.1097000D+01 0.1097000D+01 0.1097000D+01
EXPONENTS  0.1097000D+01 0.1097000D+01 0.1097000D+01 0.3180000D+00 0.3180000D+00
EXPONENTS  0.3180000D+00 0.3180000D+00 0.3180000D+00 0.3180000D+00 0.1000000D+00
EXPONENTS  0.1000000D+00 0.1000000D+00 0.1000000D+00 0.1000000D+00 0.1000000D+00
EXPONENTS  0.7610000D+00 0.7610000D+00 0.7610000D+00 0.7610000D+00 0.7610000D+00
EXPONENTS  0.7610000D+00 0.7610000D+00 0.7610000D+00 0.7610000D+00 0.7610000D+00
EXPONENTS  0.2680000D+00 0.2680000D+00 0.2680000D+00 0.2680000D+00 0.2680000D+00
EXPONENTS  0.2680000D+00 0.2680000D+00 0.2680000D+00 0.2680000D+00 0.2680000D+00
EXPONENTS  0.1533000D+05 0.2299000D+04 0.5224000D+03 0.1473000D+03 0.4755000D+02
EXPONENTS  0.1676000D+02 0.6207000D+01 0.6882000D+00 0.1533000D+05 0.2299000D+04
EXPONENTS  0.5224000D+03 0.1473000D+03 0.4755000D+02 0.1676000D+02 0.6207000D+01
EXPONENTS  0.6882000D+00 0.1752000D+01 0.2384000D+00 0.7376000D-01 0.3446000D+02
EXPONENTS  0.7749000D+01 0.2280000D+01 0.3446000D+02 0.7749000D+01 0.2280000D+01
EXPONENTS  0.3446000D+02 0.7749000D+01 0.2280000D+01 0.7156000D+00 0.7156000D+00
EXPONENTS  0.7156000D+00 0.2140000D+00 0.2140000D+00 0.2140000D+00 0.5974000D-01
EXPONENTS  0.5974000D-01 0.5974000D-01 0.2314000D+01 0.2314000D+01 0.2314000D+01
EXPONENTS  0.2314000D+01 0.2314000D+01 0.2314000D+01 0.6450000D+00 0.6450000D+00
EXPONENTS  0.6450000D+00 0.6450000D+00 0.6450000D+00 0.6450000D+00 0.2140000D+00
EXPONENTS  0.2140000D+00 0.2140000D+00 0.2140000D+00 0.2140000D+00 0.2140000D+00
EXPONENTS  0.1428000D+01 0.1428000D+01 0.1428000D+01 0.1428000D+01 0.1428000D+01
EXPONENTS  0.1428000D+01 0.1428000D+01 0.1428000D+01 0.1428000D+01 0.1428000D+01
EXPONENTS  0.5000000D+00 0.5000000D+00 0.5000000D+00 0.5000000D+00 0.5000000D+00
EXPONENTS  0.5000000D+00 0.5000000D+00 0.5000000D+00 0.5000000D+00 0.5000000D+00
EXPONENTS  0.3741000D+06 0.5605000D+05 0.1276000D+05 0.3615000D+04 0.1183000D+04
EXPONENTS  0.4288000D+03 0.1678000D+03 0.6947000D+02 0.2984000D+02 0.1272000D+02
EXPONENTS  0.5244000D+01 0.2219000D+01 0.3490000D+00 0.3741000D+06 0.5605000D+05
EXPONENTS  0.1276000D+05 0.3615000D+04 0.1183000D+04 0.4288000D+03 0.1678000D+03
EXPONENTS  0.6947000D+02 0.2984000D+02 0.1272000D+02 0.5244000D+01 0.2219000D+01
EXPONENTS  0.3490000D+00 0.3741000D+06 0.5605000D+05 0.1276000D+05 0.3615000D+04
EXPONENTS  0.1183000D+04 0.4288000D+03 0.1678000D+03 0.6947000D+02 0.2984000D+02
EXPONENTS  0.1272000D+02 0.5244000D+01 0.2219000D+01 0.3490000D+00 0.7767000D+00
EXPONENTS  0.1322000D+00 0.4970000D-01 0.5744000D+03 0.1358000D+03 0.4319000D+02
EXPONENTS  0.1587000D+02 0.6208000D+01 0.2483000D+01 0.3229000D+00 0.5744000D+03
EXPONENTS  0.1358000D+03 0.4319000D+02 0.1587000D+02 0.6208000D+01 0.2483000D+01
EXPONENTS  0.3229000D+00 0.5744000D+03 0.1358000D+03 0.4319000D+02 0.1587000D+02
EXPONENTS  0.6208000D+01 0.2483000D+01 0.3229000D+00 0.5744000D+03 0.1358000D+03
EXPONENTS  0.4319000D+02 0.1587000D+02 0.6208000D+01 0.2483000D+01 0.3229000D+00
EXPONENTS  0.5744000D+03 0.1358000D+03 0.4319000D+02 0.1587000D+02 0.6208000D+01
EXPONENTS  0.2483000D+01 0.3229000D+00 0.5744000D+03 0.1358000D+03 0.4319000D+02
EXPONENTS  0.1587000D+02 0.6208000D+01 0.2483000D+01 0.3229000D+00 0.8688000D+00
EXPONENTS  0.8688000D+00 0.8688000D+00 0.1098000D+00 0.1098000D+00 0.1098000D+00
EXPONENTS  0.3510000D-01 0.3510000D-01 0.3510000D-01 0.2690000D+00 0.2690000D+00
EXPONENTS  0.2690000D+00 0.2690000D+00 0.2690000D+00 0.2690000D+00 0.8190000D+00
EXPONENTS  0.8190000D+00 0.8190000D+00 0.8190000D+00 0.8190000D+00 0.8190000D+00
EXPONENTS  0.1010000D+00 0.1010000D+00 0.1010000D+00 0.1010000D+00 0.1010000D+00
EXPONENTS  0.1010000D+00 0.5570000D+00 0.5570000D+00 0.5570000D+00 0.5570000D+00
EXPONENTS  0.5570000D+00 0.5570000D+00 0.5570000D+00 0.5570000D+00 0.5570000D+00
EXPONENTS  0.5570000D+00 0.2180000D+00 0.2180000D+00 0.2180000D+00 0.2180000D+00
EXPONENTS  0.2180000D+00 0.2180000D+00 0.2180000D+00 0.2180000D+00 0.2180000D+00
EXPONENTS  0.2180000D+00
MO    1     MO 0.0        OCC NO =    2.0000000  ORB. ENERGY =  -88.614554
  0.11724057D-03  0.21856307D-03  0.36941010D-03  0.55534438D-03  0.68230474D-03
  0.57631543D-03  0.21736497D-03 -0.10757514D-05 -0.94897450D-04 -0.17767797D-03
 -0.30251194D-03 -0.46793998D-03 -0.61626049D-03 -0.64033412D-03 -0.40690359D-03
  0.27269732D-03  0.51087308D-03  0.61742443D-03 -0.13918782D-04 -0.61904464D-18
 -0.58039370D-18 -0.41327489D-18  0.74110299D-19  0.69483116D-19  0.49476118D-19
 -0.28263373D-03 -0.26498709D-03 -0.18868659D-03  0.18361258D-18  0.20818386D-18
  0.96832947D-03  0.27302418D-18  0.36343559D-18 -0.37406562D-03 -0.11785324D-19
 -0.18016169D-19  0.17849027D-05 -0.12850295D-03 -0.12850295D-03  0.25700589D-03
 -0.29131201D-21  0.40677603D-18  0.65897000D-18  0.18989216D-03  0.18989216D-03
 -0.37978433D-03  0.18800876D-21 -0.77145737D-18 -0.12813478D-17  0.18603174D-04
  0.18603174D-04 -0.37206348D-04 -0.71347787D-22 -0.59615152D-19 -0.84984956D-19
  0.31899007D-19  0.55616228D-19  0.17955328D-03  0.31685113D-19  0.54731070D-19
 -0.26932993D-03 -0.12738213D-18 -0.22157975D-18 -0.26932993D-03  0.86514534D-21
 -0.92028486D-19 -0.13763718D-18  0.31534133D-04 -0.92030692D-19 -0.13756325D-18
 -0.47301200D-04  0.36811615D-18  0.55047480D-18 -0.47301200D-04 -0.28888394D-21
 -0.40170871D-04 -0.74873335D-04 -0.12696037D-03 -0.19216043D-03 -0.23976011D-03
 -0.20592196D-03 -0.79057445D-04  0.35362880D-06  0.24593733D-04  0.46126155D-04
  0.78634982D-04  0.12289117D-03  0.16432891D-03  0.17546496D-03  0.10727584D-03
 -0.70774083D-04  0.95416822D-04  0.24269915D-03  0.19348347D-03  0.40117106D-18
  0.38900098D-18  0.26241776D-18  0.54887955D-18  0.53222853D-18  0.35903822D-18
 -0.31992168D-04 -0.31021642D-04 -0.20927016D-04 -0.38959532D-18 -0.54642748D-18
  0.11673932D-03  0.43919876D-20  0.80208608D-19  0.28028912D-03  0.23681819D-19
  0.37286081D-19 -0.90910485D-05 -0.96200852D-04 -0.96200852D-04  0.19240170D-03
  0.21140619D-20  0.47015608D-18  0.82039720D-18  0.13751847D-03  0.13751847D-03
 -0.27503694D-03 -0.53134420D-21 -0.16121703D-18 -0.31406547D-18  0.47550346D-04
  0.47550346D-04 -0.95100692D-04  0.18131992D-21 -0.11229486D-18 -0.21418796D-18
  0.23674565D-18  0.36997007D-18  0.13849800D-04  0.23591263D-18  0.37127172D-18
 -0.20774700D-04 -0.94614958D-18 -0.14811819D-17 -0.20774700D-04  0.16651372D-20
 -0.91871907D-19 -0.14676738D-18  0.92104409D-04 -0.91720289D-19 -0.14687947D-18
 -0.13815661D-03  0.36733601D-18  0.58718161D-18 -0.13815661D-03 -0.96120842D-22
  0.58525154D+00  0.10940938D+01  0.18909356D+01  0.30585035D+01  0.46227489D+01
  0.63662838D+01  0.74407098D+01  0.64293346D+01  0.29986646D+01  0.40715386D+00
  0.10902577D-02  0.21386350D-02  0.97637620D-04 -0.13977974D-02 -0.26104462D-02
 -0.45282229D-02 -0.73423569D-02 -0.11304394D-01 -0.16099997D-01 -0.20702506D-01
 -0.21731470D-01 -0.15365690D-01  0.34027963D-03  0.11040447D-01  0.60791695D-02
 -0.25708705D-04  0.57663119D-03  0.10760791D-02  0.18690206D-02  0.30273987D-02
  0.46764450D-02  0.66669750D-02  0.86715567D-02  0.92415419D-02  0.68542594D-02
 -0.21334764D-03 -0.62096020D-02 -0.60832667D-02  0.28412463D-02 -0.33255731D-02
 -0.10021561D-02 -0.16383234D-03 -0.99459480D-17 -0.13048542D-16 -0.14312262D-16
 -0.11776356D-16 -0.62087277D-17 -0.16152175D-17  0.17874028D-20 -0.28438736D-16
 -0.37310073D-16 -0.40923463D-16 -0.33672474D-16 -0.17752794D-16 -0.46184380D-17
  0.51107725D-20  0.13268193D-01  0.17407147D-01  0.19092987D-01  0.15710012D-01
  0.82826291D-02  0.21547486D-02 -0.23844490D-05  0.12511370D-16  0.16427505D-16
  0.18482051D-16  0.15572525D-16  0.87110524D-17  0.21681632D-17 -0.99442412D-18
  0.21234019D-16  0.27880396D-16  0.31367325D-16  0.26429343D-16  0.14784204D-16
  0.36797582D-17 -0.16877144D-17 -0.11698343D-01 -0.15359995D-01 -0.17281030D-01
 -0.14560574D-01 -0.81449812D-02 -0.20272692D-02  0.92980335D-03  0.84703124D-18
  0.20648887D-17 -0.30199817D-03 -0.15547766D-18 -0.19300335D-18 -0.49398889D-03
  0.14634110D-20  0.13258938D-20 -0.10838152D-04 -0.33719525D-04 -0.33719525D-04
  0.67439051D-04 -0.21415332D-20 -0.61327875D-18 -0.95199735D-18 -0.25247889D-03
 -0.25247889D-03  0.50495778D-03  0.21208992D-19 -0.26132727D-19 -0.16478128D-20
  0.30467880D-04  0.30467880D-04 -0.60935761D-04  0.14385058D-21 -0.28350823D-19
 -0.34139035D-19  0.11290104D-18  0.18038553D-18  0.15003821D-03  0.11401822D-18
  0.18146343D-18 -0.22505731D-03 -0.45272134D-18 -0.72262001D-18 -0.22505731D-03
 -0.31038997D-20  0.13862597D-19  0.20399127D-19 -0.17262324D-04  0.13786263D-19
  0.20280106D-19  0.25893487D-04 -0.55374052D-19 -0.81477485D-19  0.25893487D-04
  0.27439256D-21
MO    2     MO 0.0        OCC NO =    2.0000000  ORB. ENERGY =  -19.042365
  0.25795025D-03  0.48087792D-03  0.81276840D-03  0.12218571D-02  0.15011927D-02
  0.12679972D-02  0.47824189D-03 -0.23668458D-05 -0.19425673D-03 -0.36370990D-03
 -0.61924722D-03 -0.95788129D-03 -0.12614960D-02 -0.13107751D-02 -0.83293874D-03
  0.55821618D-03  0.98459416D-03 -0.80791500D-04  0.11972091D-03 -0.92825551D-15
 -0.87029854D-15 -0.61970441D-15  0.13771927D-17  0.12912057D-17  0.91941535D-18
  0.19821592D-02  0.18584002D-02  0.13232917D-02 -0.23163051D-16 -0.29360290D-17
 -0.65067209D-03 -0.71248790D-17 -0.10302450D-17 -0.72332064D-03  0.41144474D-19
  0.48042326D-20 -0.10994457D-04  0.22687239D-03  0.22687239D-03 -0.45374478D-03
  0.25235096D-19  0.28206726D-17 -0.79789482D-18  0.22105300D-03  0.22105300D-03
 -0.44210599D-03 -0.62535357D-19 -0.37478131D-17 -0.33784853D-17  0.38477206D-05
  0.38477206D-05 -0.76954412D-05 -0.21810978D-21  0.27589491D-18 -0.89181402D-19
  0.16939438D-18  0.19803906D-18 -0.10252739D-02  0.16405956D-18  0.20751204D-18
  0.15379109D-02 -0.67224270D-18 -0.80162922D-18  0.15379109D-02  0.13251691D-18
  0.13011093D-17  0.17578650D-18 -0.10075722D-03  0.13038992D-17  0.16719581D-18
  0.15113583D-03 -0.52072272D-17 -0.69455531D-18  0.15113583D-03 -0.86096190D-19
  0.49776738D+00  0.92777435D+00  0.15731979D+01  0.23811083D+01  0.29709279D+01
  0.25516309D+01  0.97962071D+00 -0.43819035D-02 -0.42796078D-03 -0.80265106D-03
 -0.13683441D-02 -0.21384555D-02 -0.28595224D-02 -0.30533033D-02 -0.18667298D-02
  0.12315549D-02  0.53457988D-01  0.10636467D-02 -0.22654734D-04 -0.19494441D-16
 -0.18903050D-16 -0.12751886D-16 -0.34701129D-16 -0.33648422D-16 -0.22699027D-16
 -0.83186683D-02 -0.80663100D-02 -0.54414851D-02  0.80923620D-17  0.51216294D-17
 -0.10001622D-02  0.10714562D-16  0.25189090D-17  0.72269046D-03  0.26577142D-18
  0.90092261D-19  0.19150537D-04 -0.17130764D-02 -0.17130764D-02  0.34261527D-02
 -0.53309173D-17  0.14361148D-16  0.13375512D-16  0.16896392D-03  0.16896392D-03
 -0.33792785D-03  0.22538020D-18 -0.46900072D-17 -0.41759042D-17  0.13353705D-03
  0.13353705D-03 -0.26707409D-03  0.36759858D-19 -0.47979036D-17 -0.12317248D-17
  0.18558746D-17  0.20701455D-17 -0.72501001D-03  0.25489254D-17 -0.20915359D-18
  0.10875150D-02 -0.81165490D-17 -0.60012828D-17  0.10875150D-02  0.61839586D-17
 -0.40845631D-19 -0.47395989D-18  0.26691907D-03 -0.88413310D-19 -0.33859430D-18
 -0.40037861D-03  0.21095020D-18  0.17604740D-17 -0.40037861D-03 -0.38505200D-18
 -0.78599661D-04 -0.14693750D-03 -0.25395387D-03 -0.41075900D-03 -0.62083817D-03
 -0.85499603D-03 -0.99929214D-03 -0.86346380D-03 -0.40272259D-03 -0.54681027D-04
 -0.14642232D-06 -0.28722006D-06 -0.13112796D-07  0.15410265D-03  0.28779327D-03
  0.49922196D-03  0.80947114D-03  0.12462730D-02  0.17749726D-02  0.22823844D-02
  0.23958245D-02  0.16940177D-02 -0.37514731D-04 -0.12171736D-02 -0.67020881D-03
  0.28343017D-05 -0.95058323D-04 -0.17739289D-03 -0.30811022D-03 -0.49907020D-03
 -0.77091740D-03 -0.10990586D-02 -0.14295162D-02 -0.15234789D-02 -0.11299326D-02
  0.35170608D-04  0.10236601D-02  0.10028336D-02 -0.46838277D-03 -0.26176680D-04
 -0.39800558D-03 -0.13656121D-03  0.88175704D-16  0.11568172D-15  0.12688522D-15
  0.10440317D-15  0.55043414D-16  0.14319695D-16 -0.15846202D-19  0.14040022D-17
  0.18419744D-17  0.20203651D-17  0.16623885D-17  0.87644407D-18  0.22800932D-18
 -0.25231556D-21 -0.18259930D-02 -0.23956034D-02 -0.26276118D-02 -0.21620407D-02
 -0.11398706D-02 -0.29654045D-03  0.32815224D-06 -0.79337215D-16 -0.10417025D-15
 -0.11719855D-15 -0.98748640D-16 -0.55238605D-16 -0.13748776D-16  0.63058513D-17
 -0.20485335D-17 -0.26897370D-17 -0.30261354D-17 -0.25497479D-17 -0.14262932D-17
 -0.35500148D-18  0.16282078D-18  0.25406987D-02  0.33359529D-02  0.37531719D-02
  0.31623311D-02  0.17689637D-02  0.44029146D-03 -0.20193888D-03 -0.35924998D-17
 -0.23895782D-18 -0.43882873D-03  0.31977261D-17  0.75843508D-19 -0.57397425D-04
 -0.35229921D-19  0.64195554D-21 -0.37941073D-05 -0.22664228D-04 -0.22664228D-04
  0.45328456D-04 -0.29059831D-19  0.56837139D-17 -0.30388125D-18  0.25919797D-03
  0.25919797D-03 -0.51839595D-03  0.23653434D-19  0.37645632D-18  0.12332048D-17
 -0.66815714D-05 -0.66815714D-05  0.13363143D-04 -0.40176002D-21  0.71844545D-18
  0.49510115D-19 -0.39285675D-18  0.34581846D-18 -0.14601957D-03 -0.39176640D-18
  0.34086400D-18  0.21902935D-03  0.15703367D-17 -0.13783194D-17  0.21902935D-03
 -0.21156686D-19 -0.24793550D-18 -0.92170565D-20  0.22567451D-04 -0.24848710D-18
 -0.72762657D-20 -0.33851177D-04  0.99229362D-18  0.34927435D-19 -0.33851177D-04
 -0.12328629D-19
MO    3     MO 0.0        OCC NO =    2.0000000  ORB. ENERGY =  -10.196012
  0.32972438D+00  0.61468122D+00  0.10389195D+01  0.15618364D+01  0.19188965D+01
  0.16208148D+01  0.61131171D+00 -0.30254158D-02 -0.29048747D-02 -0.54388420D-02
 -0.92600939D-02 -0.14323957D-01 -0.18864148D-01 -0.19601058D-01 -0.12455592D-01
  0.83474483D-02  0.33614090D-01  0.56841013D-02  0.10664009D-02  0.19679809D-16
  0.18451072D-16  0.13138263D-16 -0.24691253D-16 -0.23149619D-16 -0.16483908D-16
  0.14028110D-02  0.13152244D-02  0.93651816D-03 -0.66307687D-17  0.51061552D-17
  0.91687047D-02 -0.12301894D-17  0.78560580D-18 -0.86160556D-03 -0.20175801D-19
  0.45607101D-20 -0.57299124D-04 -0.39733676D-02 -0.39733676D-02  0.79467352D-02
 -0.16917644D-17  0.81663117D-18 -0.30528046D-18  0.46742616D-05  0.46742616D-05
 -0.93485232D-05 -0.45006241D-18 -0.15530899D-17  0.85721655D-18  0.35927636D-04
  0.35927636D-04 -0.71855272D-04  0.12151918D-19 -0.15516004D-18  0.10611389D-18
  0.48304818D-20 -0.59691171D-19  0.20882451D-02  0.73327536D-18 -0.10794430D-18
 -0.31323676D-02 -0.74776681D-18  0.28701781D-18 -0.31323676D-02 -0.16531201D-17
  0.26411037D-18 -0.20524047D-18 -0.12639529D-03  0.25141364D-18 -0.20754489D-18
  0.18959293D-03 -0.10437447D-17  0.82326630D-18  0.18959293D-03  0.78757084D-19
  0.29417819D-04  0.54831030D-04  0.92975259D-04  0.14072239D-03  0.17558045D-03
  0.15080019D-03  0.57895125D-04 -0.25896845D-06 -0.12702917D-03 -0.23824636D-03
 -0.40615782D-03 -0.63474561D-03 -0.84877583D-03 -0.90629470D-03 -0.55409081D-03
  0.36555546D-03  0.12128370D-02 -0.61257746D-02 -0.17092022D-02 -0.13920083D-17
 -0.13497798D-17 -0.91055346D-18  0.10418255D-17  0.10102203D-17  0.68148866D-18
 -0.45002884D-02 -0.43637659D-02 -0.29437707D-02  0.16051221D-17 -0.12364237D-17
  0.64297149D-02  0.30781422D-17 -0.21219058D-17  0.55441332D-02  0.13109977D-18
 -0.69164075D-19  0.23610607D-03 -0.40052391D-03 -0.40052391D-03  0.80104783D-03
 -0.25907472D-18  0.26813924D-17 -0.23376386D-17  0.22224319D-02  0.22224319D-02
 -0.44448638D-02  0.25579303D-18 -0.28525742D-17  0.20860228D-17  0.53776244D-03
  0.53776244D-03 -0.10755249D-02  0.97014640D-20 -0.12514977D-17  0.79915451D-18
  0.33347733D-18 -0.34960968D-18  0.68991507D-03  0.37434903D-18 -0.14216267D-18
 -0.10348726D-02 -0.13747810D-17  0.11909917D-17 -0.10348726D-02 -0.10916553D-17
 -0.23509537D-18  0.14527737D-18  0.90661577D-03 -0.25698812D-18  0.14578900D-18
 -0.13599237D-02  0.96227424D-18 -0.58162112D-18 -0.13599237D-02 -0.16371014D-18
  0.26988669D-03  0.50453749D-03  0.87199831D-03  0.14104181D-02  0.21317644D-02
  0.29357894D-02  0.34312572D-02  0.29648651D-02  0.13828236D-02  0.18775757D-03
  0.50276852D-06  0.98622401D-06  0.45025245D-07 -0.51562696D-03 -0.96295532D-03
 -0.16703950D-02 -0.27084877D-02 -0.41700252D-02 -0.59390526D-02 -0.76368506D-02
 -0.80164206D-02 -0.56681775D-02  0.12552416D-03  0.40726588D-02  0.22425164D-02
 -0.94835640D-05  0.29352796D-03  0.54776659D-03  0.95140501D-03  0.15410650D-02
  0.23804944D-02  0.33937525D-02  0.44141634D-02  0.47043083D-02  0.34890877D-02
 -0.10860234D-03 -0.31609317D-02 -0.30966220D-02  0.14463061D-02 -0.67034405D-03
 -0.13859058D-02 -0.12262203D-02  0.21222302D-16  0.27842505D-16  0.30538984D-16
  0.25127960D-16  0.13247957D-16  0.34464924D-17 -0.38138952D-20 -0.17619713D-16
 -0.23116104D-16 -0.25354843D-16 -0.20862367D-16 -0.10999052D-16 -0.28614336D-17
  0.31664680D-20  0.14352996D-01  0.18830349D-01  0.20654022D-01  0.16994457D-01
  0.89598138D-02  0.23309201D-02 -0.25794007D-05 -0.18615538D-16 -0.24442315D-16
 -0.27499252D-16 -0.23170199D-16 -0.12961084D-16 -0.32259875D-17  0.14795933D-17
  0.15725354D-16  0.20647485D-16  0.23229813D-16  0.19572874D-16  0.10948791D-16
  0.27251318D-17 -0.12498767D-17 -0.14100292D-01 -0.18513769D-01 -0.20829238D-01
 -0.17550208D-01 -0.98173403D-02 -0.24435160D-02  0.11207142D-02 -0.10972146D-17
  0.90934128D-18  0.52943865D-03  0.21036356D-18 -0.13924231D-18 -0.99776340D-03
  0.46872503D-20  0.32734734D-20 -0.52706452D-04 -0.45040108D-04 -0.45040108D-04
  0.90080217D-04  0.75861291D-19  0.11669855D-17 -0.94976059D-18 -0.68013843D-03
 -0.68013843D-03  0.13602769D-02 -0.95107442D-19  0.75739537D-19 -0.15658414D-18
  0.35651669D-04  0.35651669D-04 -0.71303337D-04 -0.52085605D-21  0.61093862D-19
 -0.32374748D-19 -0.19321022D-18  0.16747022D-18  0.18288674D-04 -0.20408526D-18
  0.15070487D-18 -0.27433012D-04  0.78371590D-18 -0.65311552D-18 -0.27433012D-04
  0.27580675D-19 -0.48521038D-19  0.35194822D-19  0.76715693D-05 -0.46662212D-19
  0.37278820D-19 -0.11507354D-04  0.19222533D-18 -0.14286329D-18 -0.11507354D-04
  0.53455255D-19
MO    4     MO 0.0        OCC NO =    2.0000000  ORB. ENERGY =   -7.899832
 -0.14681028D-03 -0.27368774D-03 -0.46258050D-03 -0.69541001D-03 -0.85439155D-03
 -0.72167024D-03 -0.27218746D-03  0.13470709D-05  0.61568133D-04  0.11527497D-03
  0.19626550D-03  0.30359289D-03  0.39982115D-03  0.41543979D-03  0.26399333D-03
 -0.17692219D-03 -0.20593479D-03 -0.14617303D-02  0.28908713D-04 -0.15735667D-15
 -0.14753188D-15 -0.10505149D-15  0.34020315D-15  0.31896208D-15  0.22712000D-15
 -0.20021862D-03 -0.18771769D-03 -0.13366617D-03  0.59749451D-16 -0.88752930D-16
 -0.13058808D-03  0.14237175D-17 -0.40633185D-17  0.85471365D-03 -0.11311638D-18
  0.42492586D-18 -0.33255623D-05  0.11091688D-03  0.11091688D-03 -0.22183376D-03
  0.22098274D-18  0.11615957D-16  0.11668988D-16 -0.79077890D-04 -0.79077890D-04
  0.15815578D-03 -0.49409199D-19 -0.10282835D-16  0.14870788D-16 -0.11581172D-04
 -0.11581172D-04  0.23162343D-04  0.13611602D-20 -0.17706592D-17  0.35684795D-17
 -0.14019705D-17 -0.50556768D-18  0.56907503D-04 -0.14609625D-17 -0.44277567D-18
 -0.85361255D-04  0.56668741D-17  0.19594787D-17 -0.85361255D-04 -0.39309599D-18
 -0.44231987D-18  0.14453094D-18 -0.64145814D-05 -0.43724713D-18  0.12799829D-18
  0.96218721D-05  0.17642067D-17 -0.56159111D-18  0.96218721D-05  0.12276342D-18
  0.73335535D-05  0.13668800D-04  0.23177756D-04  0.35080613D-04  0.43770363D-04
  0.37592904D-04  0.14432647D-04 -0.64558115D-07 -0.26856444D-05 -0.50369926D-05
 -0.85869681D-05 -0.13419760D-04 -0.17944776D-04 -0.19160837D-04 -0.11714560D-04
  0.77285551D-05 -0.59857220D-04 -0.52662262D-03 -0.35961074D-03 -0.26079196D-17
 -0.25288048D-17 -0.17059168D-17 -0.18153213D-17 -0.17602510D-17 -0.11874549D-17
 -0.52556293D-04 -0.50961926D-04 -0.34378614D-04 -0.37589782D-17 -0.13611937D-17
  0.19466080D-03  0.59248797D-17 -0.14730859D-16 -0.19658599D-03  0.44478817D-18
 -0.16830286D-17  0.31258697D-04  0.74530193D-04  0.74530193D-04 -0.14906039D-03
  0.43403765D-19  0.16993799D-16 -0.31888209D-16 -0.37784292D-04 -0.37784292D-04
  0.75568584D-04 -0.22072493D-19 -0.15602409D-17  0.22267379D-16 -0.44698468D-04
 -0.44698468D-04  0.89396936D-04 -0.35318094D-19 -0.20056072D-17  0.54556131D-17
  0.49369537D-18 -0.40606992D-17  0.35382215D-04  0.50794986D-18 -0.41113410D-17
 -0.53073322D-04 -0.19890360D-17  0.16293439D-16 -0.53073322D-04 -0.38987376D-18
  0.17524500D-18  0.29380655D-17 -0.61341260D-04  0.17412923D-18  0.29544766D-17
  0.92011889D-04 -0.69986423D-18 -0.11768673D-16  0.92011889D-04  0.59020919D-19
 -0.20668827D-02 -0.38639172D-02 -0.66780552D-02 -0.10801455D-01 -0.16325766D-01
 -0.22483259D-01 -0.26277717D-01 -0.22705930D-01 -0.10590127D-01 -0.14379104D-02
 -0.38503698D-05 -0.75528339D-05 -0.34481842D-06 -0.15871305D+00 -0.29640338D+00
 -0.51415752D+00 -0.83368864D+00 -0.12835586D+01 -0.18280757D+01 -0.23506681D+01
 -0.24675020D+01 -0.17446987D+01  0.38637084D-01  0.12535886D+01  0.69025991D+00
 -0.29190974D-02 -0.54292856D-03 -0.10131850D-02 -0.17597811D-02 -0.28504549D-02
 -0.44031187D-02 -0.62773072D-02 -0.81647262D-02 -0.87013973D-02 -0.64536454D-02
  0.20087802D-03  0.58466665D-02  0.57277152D-02 -0.26751827D-02  0.50804013D-01
  0.23619411D-02  0.18803772D-03  0.67208803D-16  0.88174289D-16  0.96713756D-16
  0.79577611D-16  0.41954890D-16  0.10914679D-16 -0.12078206D-19 -0.63317673D-15
 -0.83069339D-15 -0.91114404D-15 -0.74970375D-15 -0.39525865D-15 -0.10282762D-15
  0.11378924D-18  0.61956329D-01  0.81283330D-01  0.89155424D-01  0.73358495D-01
  0.38676050D-01  0.10061680D-01 -0.11134275D-04  0.61243942D-16  0.80413668D-16
  0.90470799D-16  0.76228488D-16  0.42641148D-16  0.10613295D-16 -0.48677684D-17
 -0.45820563D-16 -0.60162678D-16 -0.67687069D-16 -0.57031473D-16 -0.31902607D-16
 -0.79404938D-17  0.36418931D-17  0.27015841D-02  0.35471963D-02  0.39908351D-02
  0.33625803D-02  0.18809803D-02  0.46817216D-03 -0.21472631D-03  0.66315397D-17
 -0.25153233D-16  0.88638771D-03 -0.43249389D-17  0.61259300D-17  0.77606556D-03
  0.29618795D-18 -0.11297921D-18  0.10369811D-04 -0.18936549D-04 -0.18936549D-04
  0.37873098D-04  0.27714627D-18 -0.66524363D-17  0.47521823D-17 -0.27242791D-03
 -0.27242791D-03  0.54485581D-03 -0.26934425D-17  0.41076784D-17  0.14303991D-17
 -0.38650303D-04 -0.38650303D-04  0.77300605D-04 -0.19056572D-19 -0.35486668D-18
  0.59982574D-18  0.15155691D-17 -0.73911533D-18  0.66067316D-04  0.25096838D-17
 -0.19167305D-17 -0.99100975D-04 -0.70563912D-17  0.41340765D-17 -0.99100975D-04
  0.46766980D-19  0.38533977D-20 -0.55021777D-19  0.89731757D-05 -0.48385863D-19
  0.20893719D-19 -0.13459764D-04  0.36825670D-19  0.14417161D-18 -0.13459764D-04
  0.61818060D-19
MO    5     MO 0.0        OCC NO =    2.0000000  ORB. ENERGY =   -5.841605
 -0.24910782D-03 -0.46439361D-03 -0.78490700D-03 -0.11799723D-02 -0.14497323D-02
 -0.12245307D-02 -0.46184793D-03  0.22857112D-05  0.37601740D-04  0.70402321D-04
  0.11986597D-03  0.18541444D-03  0.24418429D-03  0.25372312D-03  0.16122965D-03
 -0.10805236D-03  0.12382086D-02 -0.58675450D-02 -0.80894147D-03 -0.15284951D-15
 -0.14330614D-15 -0.10204251D-15  0.10848354D-17  0.10171021D-17  0.72423730D-18
 -0.14929360D-02 -0.13997224D-02 -0.99668574D-03  0.73174722D-17 -0.55017773D-16
  0.30290029D-02  0.17688806D-16  0.19152070D-16  0.21415084D-02 -0.21755428D-18
  0.40099488D-18  0.49607951D-04 -0.70621841D-04 -0.70621841D-04  0.14124368D-03
 -0.33262579D-18 -0.80861333D-18 -0.18214253D-17  0.67844152D-03  0.67844152D-03
 -0.13568830D-02 -0.26118018D-20 -0.52326383D-17  0.88108130D-17  0.59692991D-04
  0.59692991D-04 -0.11938598D-03  0.12281822D-19 -0.24589769D-18  0.72838135D-19
  0.56384427D-19  0.25487636D-17  0.35336621D-03  0.59081042D-19  0.25819159D-17
 -0.53004931D-03 -0.22823432D-18 -0.10228207D-16 -0.53004931D-03 -0.30658647D-18
 -0.11230530D-17  0.50606135D-19  0.79781495D-04 -0.11310049D-17  0.41439736D-19
 -0.11967224D-03  0.45001639D-17 -0.19325814D-18 -0.11967224D-03  0.18609508D-19
  0.15604798D-03  0.29085335D-03  0.49319091D-03  0.74646741D-03  0.93137338D-03
  0.79992552D-03  0.30710696D-03 -0.13737083D-05 -0.11023833D-03 -0.20675473D-03
 -0.35247149D-03 -0.55084432D-03 -0.73658382D-03 -0.78649979D-03 -0.48085055D-03
  0.31723599D-03  0.89485948D-04  0.52946964D-04 -0.85100502D-04 -0.17708370D-16
 -0.17171162D-16 -0.11583565D-16 -0.19825010D-17 -0.19223591D-17 -0.12968121D-17
 -0.14872951D-03 -0.14421760D-03 -0.97288338D-04 -0.37778874D-17  0.38272663D-17
  0.22366769D-03 -0.25030530D-17 -0.63776781D-17  0.28506300D-04  0.25096936D-18
 -0.74670370D-18  0.38692962D-04 -0.23919405D-03 -0.23919405D-03  0.47838810D-03
 -0.11537916D-18  0.68624748D-17  0.46423439D-17  0.28633636D-03  0.28633636D-03
 -0.57267272D-03  0.58019542D-19  0.14679258D-17  0.74397687D-18  0.92020082D-05
  0.92020082D-05 -0.18404016D-04 -0.21768521D-19 -0.73010414D-18  0.37920813D-17
  0.18263166D-17 -0.18903226D-17  0.57950436D-04  0.18047599D-17 -0.19741648D-17
 -0.86925654D-04 -0.72837098D-17  0.76451325D-17 -0.86925654D-04 -0.15691706D-18
 -0.81305374D-18  0.12009441D-17  0.11692899D-03 -0.81010260D-18  0.12209479D-17
 -0.17539348D-03  0.32492638D-17 -0.48237801D-17 -0.17539348D-03  0.17686502D-20
  0.16022188D-03  0.29952550D-03  0.51767358D-03  0.83731379D-03  0.12655508D-02
  0.17428711D-02  0.20370122D-02  0.17601322D-02  0.82093194D-03  0.11146482D-03
  0.29847533D-06  0.58548521D-06  0.26729846D-07  0.78091111D-03  0.14583848D-02
  0.25297940D-02  0.41019735D-02  0.63154552D-02  0.89946268D-02  0.11565922D-01
  0.12140777D-01  0.85843896D-02 -0.19010490D-03 -0.61679949D-02 -0.33962654D-02
  0.14362749D-04  0.17617621D-03  0.32877088D-03  0.57103566D-03  0.92495107D-03
  0.14287787D-02  0.20369387D-02  0.26493919D-02  0.28235376D-02  0.20941591D-02
 -0.65183397D-04 -0.18971991D-02 -0.18586003D-02  0.86807656D-03 -0.13084936D-02
  0.55122190D-02  0.11049656D-02 -0.70811875D-16 -0.92901324D-16 -0.10189859D-15
 -0.83843777D-16 -0.44204097D-16 -0.11499817D-16  0.12725720D-19  0.17701752D-14
  0.23223734D-14  0.25472897D-14  0.20959503D-14  0.11050264D-14  0.28747565D-15
 -0.31812112D-18  0.97455694D+01  0.12785656D+02  0.14023916D+02  0.11539101D+02
  0.60836420D+01  0.15826761D+01 -0.17513925D-02  0.95152056D-16  0.12493523D-15
  0.14056056D-15  0.11843290D-15  0.66249702D-16  0.16489416D-16 -0.75628407D-17
 -0.13377795D-15 -0.17565126D-15 -0.19761952D-15 -0.16650938D-15 -0.93143014D-16
 -0.23183107D-16  0.10632890D-16 -0.58510719D-01 -0.76824930D-01 -0.86433226D-01
 -0.72826528D-01 -0.40738139D-01 -0.10139640D-01  0.46505274D-02  0.12071515D-16
 -0.84562004D-17  0.77784524D-01 -0.11908529D-17 -0.26404483D-17  0.17542470D-02
  0.16301679D-18  0.28912823D-19  0.31121316D-04 -0.41546806D-03 -0.41546806D-03
  0.83093613D-03  0.26269860D-18 -0.84229463D-17  0.32331081D-17 -0.10774333D-02
 -0.10774333D-02  0.21548666D-02 -0.17201216D-17 -0.42262341D-17 -0.11313059D-16