 Molden2AIM, Version 4.0.0 (06/02/2016)           Time: Sat Jun 30 02:42:57 2018
GAUSSIAN             19 MOL ORBITALS    337 PRIMITIVES        3 NUCLEI
  C    1    (CENTRE  1)   0.00000000  0.00000000  0.00000000  CHARGE =  6.0
  S    2    (CENTRE  2)   0.00000000  0.00000000  2.95542961  CHARGE = 16.0
  S    3    (CENTRE  3)   0.00000000  0.00000000 -2.95542961  CHARGE = 16.0
CENTRE ASSIGNMENTS    1  1  1  1  1  1  1  1  1  1  1  1  1  1  1  1  1  1  1  1
CENTRE ASSIGNMENTS    1  1  1  1  1  1  1  1  1  1  1  1  1  1  1  1  1  1  1  1
CENTRE ASSIGNMENTS    1  1  1  1  1  1  1  1  1  1  1  1  1  1  1  1  1  1  1  1
CENTRE ASSIGNMENTS    1  1  1  1  1  1  1  1  1  1  1  1  1  1  1  2  2  2  2  2
CENTRE ASSIGNMENTS    2  2  2  2  2  2  2  2  2  2  2  2  2  2  2  2  2  2  2  2
CENTRE ASSIGNMENTS    2  2  2  2  2  2  2  2  2  2  2  2  2  2  2  2  2  2  2  2
CENTRE ASSIGNMENTS    2  2  2  2  2  2  2  2  2  2  2  2  2  2  2  2  2  2  2  2
CENTRE ASSIGNMENTS    2  2  2  2  2  2  2  2  2  2  2  2  2  2  2  2  2  2  2  2
CENTRE ASSIGNMENTS    2  2  2  2  2  2  2  2  2  2  2  2  2  2  2  2  2  2  2  2
CENTRE ASSIGNMENTS    2  2  2  2  2  2  2  2  2  2  2  2  2  2  2  2  2  2  2  2
CENTRE ASSIGNMENTS    2  2  2  2  2  2  3  3  3  3  3  3  3  3  3  3  3  3  3  3
CENTRE ASSIGNMENTS    3  3  3  3  3  3  3  3  3  3  3  3  3  3  3  3  3  3  3  3
CENTRE ASSIGNMENTS    3  3  3  3  3  3  3  3  3  3  3  3  3  3  3  3  3  3  3  3
CENTRE ASSIGNMENTS    3  3  3  3  3  3  3  3  3  3  3  3  3  3  3  3  3  3  3  3
CENTRE ASSIGNMENTS    3  3  3  3  3  3  3  3  3  3  3  3  3  3  3  3  3  3  3  3
CENTRE ASSIGNMENTS    3  3  3  3  3  3  3  3  3  3  3  3  3  3  3  3  3  3  3  3
CENTRE ASSIGNMENTS    3  3  3  3  3  3  3  3  3  3  3  3  3  3  3  3  3
TYPE ASSIGNMENTS      1  1  1  1  1  1  1  1  1  1  1  1  1  1  1  1  1  1  1  2
TYPE ASSIGNMENTS      2  2  3  3  3  4  4  4  2  3  4  2  3  4  2  3  4  5  6  7
TYPE ASSIGNMENTS      8  9 10  5  6  7  8  9 10  5  6  7  8  9 10 11 12 13 17 14
TYPE ASSIGNMENTS     15 18 19 16 20 11 12 13 17 14 15 18 19 16 20  1  1  1  1  1
TYPE ASSIGNMENTS      1  1  1  1  1  1  1  1  1  1  1  1  1  1  1  1  1  1  1  1
TYPE ASSIGNMENTS      1  1  1  1  1  1  1  1  1  1  1  1  1  1  1  1  1  2  2  2
TYPE ASSIGNMENTS      2  2  2  2  3  3  3  3  3  3  3  4  4  4  4  4  4  4  2  2
TYPE ASSIGNMENTS      2  2  2  2  2  3  3  3  3  3  3  3  4  4  4  4  4  4  4  2
TYPE ASSIGNMENTS      3  4  2  3  4  2  3  4  5  6  7  8  9 10  5  6  7  8  9 10
TYPE ASSIGNMENTS      5  6  7  8  9 10 11 12 13 17 14 15 18 19 16 20 11 12 13 17
TYPE ASSIGNMENTS     14 15 18 19 16 20  1  1  1  1  1  1  1  1  1  1  1  1  1  1
TYPE ASSIGNMENTS      1  1  1  1  1  1  1  1  1  1  1  1  1  1  1  1  1  1  1  1
TYPE ASSIGNMENTS      1  1  1  1  1  1  1  1  2  2  2  2  2  2  2  3  3  3  3  3
TYPE ASSIGNMENTS      3  3  4  4  4  4  4  4  4  2  2  2  2  2  2  2  3  3  3  3
TYPE ASSIGNMENTS      3  3  3  4  4  4  4  4  4  4  2  3  4  2  3  4  2  3  4  5
TYPE ASSIGNMENTS      6  7  8  9 10  5  6  7  8  9 10  5  6  7  8  9 10 11 12 13
TYPE ASSIGNMENTS     17 14 15 18 19 16 20 11 12 13 17 14 15 18 19 16 20
EXPONENTS  0.8236000D+04 0.1235000D+04 0.2808000D+03 0.7927000D+02 0.2559000D+02
EXPONENTS  0.8997000D+01 0.3319000D+01 0.3643000D+00 0.8236000D+04 0.1235000D+04
EXPONENTS  0.2808000D+03 0.7927000D+02 0.2559000D+02 0.8997000D+01 0.3319000D+01
EXPONENTS  0.3643000D+00 0.9059000D+00 0.1285000D+00 0.4402000D-01 0.1871000D+02
EXPONENTS  0.4133000D+01 0.1200000D+01 0.1871000D+02 0.4133000D+01 0.1200000D+01
EXPONENTS  0.1871000D+02 0.4133000D+01 0.1200000D+01 0.3827000D+00 0.3827000D+00
EXPONENTS  0.3827000D+00 0.1209000D+00 0.1209000D+00 0.1209000D+00 0.3569000D-01
EXPONENTS  0.3569000D-01 0.3569000D-01 0.1097000D+01 0.1097000D+01 0.1097000D+01
EXPONENTS  0.1097000D+01 0.1097000D+01 0.1097000D+01 0.3180000D+00 0.3180000D+00
EXPONENTS  0.3180000D+00 0.3180000D+00 0.3180000D+00 0.3180000D+00 0.1000000D+00
EXPONENTS  0.1000000D+00 0.1000000D+00 0.1000000D+00 0.1000000D+00 0.1000000D+00
EXPONENTS  0.7610000D+00 0.7610000D+00 0.7610000D+00 0.7610000D+00 0.7610000D+00
EXPONENTS  0.7610000D+00 0.7610000D+00 0.7610000D+00 0.7610000D+00 0.7610000D+00
EXPONENTS  0.2680000D+00 0.2680000D+00 0.2680000D+00 0.2680000D+00 0.2680000D+00
EXPONENTS  0.2680000D+00 0.2680000D+00 0.2680000D+00 0.2680000D+00 0.2680000D+00
EXPONENTS  0.3741000D+06 0.5605000D+05 0.1276000D+05 0.3615000D+04 0.1183000D+04
EXPONENTS  0.4288000D+03 0.1678000D+03 0.6947000D+02 0.2984000D+02 0.1272000D+02
EXPONENTS  0.5244000D+01 0.2219000D+01 0.3490000D+00 0.3741000D+06 0.5605000D+05
EXPONENTS  0.1276000D+05 0.3615000D+04 0.1183000D+04 0.4288000D+03 0.1678000D+03
EXPONENTS  0.6947000D+02 0.2984000D+02 0.1272000D+02 0.5244000D+01 0.2219000D+01
EXPONENTS  0.3490000D+00 0.3741000D+06 0.5605000D+05 0.1276000D+05 0.3615000D+04
EXPONENTS  0.1183000D+04 0.4288000D+03 0.1678000D+03 0.6947000D+02 0.2984000D+02
EXPONENTS  0.1272000D+02 0.5244000D+01 0.2219000D+01 0.3490000D+00 0.7767000D+00
EXPONENTS  0.1322000D+00 0.4970000D-01 0.5744000D+03 0.1358000D+03 0.4319000D+02
EXPONENTS  0.1587000D+02 0.6208000D+01 0.2483000D+01 0.3229000D+00 0.5744000D+03
EXPONENTS  0.1358000D+03 0.4319000D+02 0.1587000D+02 0.6208000D+01 0.2483000D+01
EXPONENTS  0.3229000D+00 0.5744000D+03 0.1358000D+03 0.4319000D+02 0.1587000D+02
EXPONENTS  0.6208000D+01 0.2483000D+01 0.3229000D+00 0.5744000D+03 0.1358000D+03
EXPONENTS  0.4319000D+02 0.1587000D+02 0.6208000D+01 0.2483000D+01 0.3229000D+00
EXPONENTS  0.5744000D+03 0.1358000D+03 0.4319000D+02 0.1587000D+02 0.6208000D+01
EXPONENTS  0.2483000D+01 0.3229000D+00 0.5744000D+03 0.1358000D+03 0.4319000D+02
EXPONENTS  0.1587000D+02 0.6208000D+01 0.2483000D+01 0.3229000D+00 0.8688000D+00
EXPONENTS  0.8688000D+00 0.8688000D+00 0.1098000D+00 0.1098000D+00 0.1098000D+00
EXPONENTS  0.3510000D-01 0.3510000D-01 0.3510000D-01 0.2690000D+00 0.2690000D+00
EXPONENTS  0.2690000D+00 0.2690000D+00 0.2690000D+00 0.2690000D+00 0.8190000D+00
EXPONENTS  0.8190000D+00 0.8190000D+00 0.8190000D+00 0.8190000D+00 0.8190000D+00
EXPONENTS  0.1010000D+00 0.1010000D+00 0.1010000D+00 0.1010000D+00 0.1010000D+00
EXPONENTS  0.1010000D+00 0.5570000D+00 0.5570000D+00 0.5570000D+00 0.5570000D+00
EXPONENTS  0.5570000D+00 0.5570000D+00 0.5570000D+00 0.5570000D+00 0.5570000D+00
EXPONENTS  0.5570000D+00 0.2180000D+00 0.2180000D+00 0.2180000D+00 0.2180000D+00
EXPONENTS  0.2180000D+00 0.2180000D+00 0.2180000D+00 0.2180000D+00 0.2180000D+00
EXPONENTS  0.2180000D+00 0.3741000D+06 0.5605000D+05 0.1276000D+05 0.3615000D+04
EXPONENTS  0.1183000D+04 0.4288000D+03 0.1678000D+03 0.6947000D+02 0.2984000D+02
EXPONENTS  0.1272000D+02 0.5244000D+01 0.2219000D+01 0.3490000D+00 0.3741000D+06
EXPONENTS  0.5605000D+05 0.1276000D+05 0.3615000D+04 0.1183000D+04 0.4288000D+03
EXPONENTS  0.1678000D+03 0.6947000D+02 0.2984000D+02 0.1272000D+02 0.5244000D+01
EXPONENTS  0.2219000D+01 0.3490000D+00 0.3741000D+06 0.5605000D+05 0.1276000D+05
EXPONENTS  0.3615000D+04 0.1183000D+04 0.4288000D+03 0.1678000D+03 0.6947000D+02
EXPONENTS  0.2984000D+02 0.1272000D+02 0.5244000D+01 0.2219000D+01 0.3490000D+00
EXPONENTS  0.7767000D+00 0.1322000D+00 0.4970000D-01 0.5744000D+03 0.1358000D+03
EXPONENTS  0.4319000D+02 0.1587000D+02 0.6208000D+01 0.2483000D+01 0.3229000D+00
EXPONENTS  0.5744000D+03 0.1358000D+03 0.4319000D+02 0.1587000D+02 0.6208000D+01
EXPONENTS  0.2483000D+01 0.3229000D+00 0.5744000D+03 0.1358000D+03 0.4319000D+02
EXPONENTS  0.1587000D+02 0.6208000D+01 0.2483000D+01 0.3229000D+00 0.5744000D+03
EXPONENTS  0.1358000D+03 0.4319000D+02 0.1587000D+02 0.6208000D+01 0.2483000D+01
EXPONENTS  0.3229000D+00 0.5744000D+03 0.1358000D+03 0.4319000D+02 0.1587000D+02
EXPONENTS  0.6208000D+01 0.2483000D+01 0.3229000D+00 0.5744000D+03 0.1358000D+03
EXPONENTS  0.4319000D+02 0.1587000D+02 0.6208000D+01 0.2483000D+01 0.3229000D+00
EXPONENTS  0.8688000D+00 0.8688000D+00 0.8688000D+00 0.1098000D+00 0.1098000D+00
EXPONENTS  0.1098000D+00 0.3510000D-01 0.3510000D-01 0.3510000D-01 0.2690000D+00
EXPONENTS  0.2690000D+00 0.2690000D+00 0.2690000D+00 0.2690000D+00 0.2690000D+00
EXPONENTS  0.8190000D+00 0.8190000D+00 0.8190000D+00 0.8190000D+00 0.8190000D+00
EXPONENTS  0.8190000D+00 0.1010000D+00 0.1010000D+00 0.1010000D+00 0.1010000D+00
EXPONENTS  0.1010000D+00 0.1010000D+00 0.5570000D+00 0.5570000D+00 0.5570000D+00
EXPONENTS  0.5570000D+00 0.5570000D+00 0.5570000D+00 0.5570000D+00 0.5570000D+00
EXPONENTS  0.5570000D+00 0.5570000D+00 0.2180000D+00 0.2180000D+00 0.2180000D+00
EXPONENTS  0.2180000D+00 0.2180000D+00 0.2180000D+00 0.2180000D+00 0.2180000D+00
EXPONENTS  0.2180000D+00 0.2180000D+00
MO    1     MO 0.0        OCC NO =    2.0000000  ORB. ENERGY =  -88.612044
 -0.52121446D-10 -0.97166226D-10 -0.16422804D-09 -0.24688854D-09 -0.30333109D-09
 -0.25621160D-09 -0.96633589D-10  0.47824502D-12  0.26713529D-10  0.50016156D-10
  0.85156785D-10  0.13172460D-09  0.17347666D-09  0.18025336D-09  0.11454292D-09
 -0.76764001D-10  0.36635695D-09  0.13472529D-10 -0.86005020D-10  0.10925410D-15
  0.10243267D-15  0.72938161D-16  0.18955119D-15  0.17771629D-15  0.12654458D-15
 -0.46161449D-03 -0.43279293D-03 -0.30817435D-03  0.17051632D-16 -0.98058961D-16
  0.53580578D-03 -0.48739742D-17  0.34181890D-16 -0.10778545D-02  0.47473510D-21
 -0.61421493D-19 -0.51341203D-06 -0.11672822D-10 -0.11672822D-10  0.23345643D-10
  0.11023635D-22  0.43436438D-18 -0.89630619D-18  0.21809811D-09  0.21809811D-09
 -0.43619622D-09 -0.26556491D-21 -0.47450162D-18  0.15409326D-17  0.26645822D-10
  0.26645822D-10 -0.53291644D-10  0.11746693D-21  0.41292881D-19  0.18172667D-18
 -0.57492826D-19  0.10514788D-18  0.94746931D-04 -0.57765873D-19  0.10423545D-18
 -0.14212040D-03  0.23024435D-18 -0.41967910D-18 -0.14212040D-03 -0.22630195D-20
  0.16082075D-19 -0.41041308D-18  0.47236843D-04  0.16113249D-19 -0.41035725D-18
 -0.70855264D-04 -0.64359473D-19  0.16415965D-17 -0.70855264D-04  0.13952751D-20
 -0.41385415D+00 -0.77367629D+00 -0.13371542D+01 -0.21627869D+01 -0.32689257D+01
 -0.45018472D+01 -0.52616156D+01 -0.45464328D+01 -0.21204725D+01 -0.28791435D+00
 -0.77096370D-03 -0.15123121D-02 -0.69043363D-04  0.10243548D-02  0.19130263D-02
  0.33184400D-02  0.53807358D-02  0.82842553D-02  0.11798640D-01  0.15171520D-01
  0.15925581D-01  0.11260515D-01 -0.24936881D-03 -0.80908252D-02 -0.44550279D-02
  0.18840238D-04 -0.42796865D-03 -0.79865282D-03 -0.13871644D-02 -0.22468985D-02
 -0.34708006D-02 -0.49481477D-02 -0.64359239D-02 -0.68589600D-02 -0.50871480D-02
  0.15834403D-03  0.46086910D-02  0.45149266D-02 -0.21087385D-02  0.22876625D-02
  0.18077005D-02  0.28109956D-03  0.99216900D-17  0.13016717D-16  0.14277354D-16
  0.11747634D-16  0.61935847D-17  0.16112780D-17 -0.17830434D-20 -0.47102396D-16
 -0.61795778D-16 -0.67780550D-16 -0.55770911D-16 -0.29403527D-16 -0.76494080D-17
  0.84648498D-20  0.37535194D-02  0.49244130D-02  0.54013305D-02  0.44443003D-02
  0.23431230D-02  0.60956987D-03 -0.67455120D-06 -0.50131951D-17 -0.65823557D-17
 -0.74055940D-17 -0.62397729D-17 -0.34904415D-17 -0.86876378D-18  0.39845693D-18
  0.38630030D-16  0.50721464D-16  0.57065067D-16  0.48081634D-16  0.26896192D-16
  0.66944074D-17 -0.30703778D-17 -0.33032986D-02 -0.43372511D-02 -0.48797000D-02
 -0.41115162D-02 -0.22999245D-02 -0.57244652D-03  0.26255156D-03 -0.67018054D-18
  0.32896607D-17  0.16074843D-04 -0.38738721D-19 -0.92759081D-18 -0.66525674D-03
 -0.12222565D-20  0.23775023D-19 -0.15449795D-04 -0.88817915D-05 -0.88817915D-05
  0.17763583D-04 -0.64017266D-21 -0.22365226D-18  0.26002676D-17  0.13168241D-03
  0.13168241D-03 -0.26336482D-03 -0.73733880D-21 -0.60538938D-19  0.98882037D-20
 -0.31412818D-04 -0.31412818D-04  0.62825636D-04 -0.61127108D-22  0.14941216D-19
  0.19151127D-18 -0.38002828D-19  0.46890583D-18  0.87462106D-04 -0.37343007D-19
  0.46734565D-18 -0.13119316D-03  0.15135149D-18 -0.18740632D-17 -0.13119316D-03
 -0.66998773D-21 -0.84566329D-20  0.88155734D-19 -0.11963975D-04 -0.85397921D-20
  0.88298716D-19  0.17945962D-04  0.33909691D-19 -0.35276592D-18  0.17945962D-04
  0.53889308D-21  0.41385478D+00  0.77367747D+00  0.13371562D+01  0.21627902D+01
  0.32689307D+01  0.45018540D+01  0.52616236D+01  0.45464398D+01  0.21204757D+01
  0.28791479D+00  0.77096487D-03  0.15123144D-02  0.69043468D-04 -0.10243563D-02
 -0.19130290D-02 -0.33184448D-02 -0.53807436D-02 -0.82842673D-02 -0.11798657D-01
 -0.15171542D-01 -0.15925604D-01 -0.11260531D-01  0.24936917D-03  0.80908369D-02
  0.44550344D-02 -0.18840265D-04  0.42796926D-03  0.79865395D-03  0.13871663D-02
  0.22469017D-02  0.34708055D-02  0.49481547D-02  0.64359330D-02  0.68589697D-02
  0.50871552D-02 -0.15834425D-03 -0.46086976D-02 -0.45149329D-02  0.21087415D-02
 -0.22876661D-02 -0.18077005D-02 -0.28109958D-03 -0.47309673D-17 -0.62067715D-17
 -0.68078823D-17 -0.56016335D-17 -0.29532919D-17 -0.76830698D-18  0.85021000D-21
 -0.24792793D-16 -0.32526794D-16 -0.35676935D-16 -0.29355548D-16 -0.15476825D-16
 -0.40263384D-17  0.44555540D-20  0.37535382D-02  0.49244377D-02  0.54013576D-02
  0.44443226D-02  0.23431348D-02  0.60957292D-03 -0.67455459D-06  0.31018809D-17
  0.40727885D-17  0.45821616D-17  0.38608176D-17  0.21596872D-17  0.53754176D-18
 -0.24654255D-18  0.23954526D-16  0.31452439D-16  0.35386114D-16  0.29815477D-16
  0.16678360D-16  0.41512098D-17 -0.19039448D-17 -0.33033152D-02 -0.43372729D-02
 -0.48797245D-02 -0.41115368D-02 -0.22999361D-02 -0.57244940D-03  0.26255288D-03
  0.35574789D-18  0.17790480D-17  0.16074332D-04  0.95306834D-19 -0.29204783D-18
 -0.66525703D-03  0.29659897D-21  0.48370077D-19 -0.15449801D-04  0.88817486D-05
  0.88817486D-05 -0.17763497D-04  0.28783792D-20 -0.12065333D-18 -0.13695010D-17
 -0.13168269D-03 -0.13168269D-03  0.26336537D-03 -0.22639695D-19  0.10020048D-19
 -0.38864696D-18  0.31412845D-04  0.31412845D-04 -0.62825690D-04 -0.23957083D-21
  0.25105257D-19 -0.53293421D-19  0.51726980D-19  0.24691797D-19  0.87462241D-04
  0.51537706D-19  0.24501004D-19 -0.13119336D-03 -0.20671864D-18 -0.98576394D-19
 -0.13119336D-03 -0.55967689D-21  0.41961819D-20  0.36616821D-19 -0.11964000D-04
  0.41977773D-20  0.36577744D-19  0.17946000D-04 -0.16786323D-19 -0.14642821D-18
  0.17946000D-04  0.45544581D-21
MO    2     MO 0.0        OCC NO =    2.0000000  ORB. ENERGY =  -88.612042
 -0.68288359D-04 -0.12730503D-03 -0.21516792D-03 -0.32346787D-03 -0.39741765D-03
 -0.33568274D-03 -0.12660718D-03  0.62658599D-06  0.34997987D-04  0.65527274D-04
  0.11156579D-03  0.17257531D-03  0.22727562D-03  0.23615393D-03  0.15006522D-03
 -0.10057022D-03  0.48005136D-03  0.17992623D-04 -0.11262843D-03 -0.38803035D-18
 -0.36380312D-18 -0.25904949D-18  0.81819301D-18  0.76710796D-18  0.54622656D-18
  0.35230371D-09  0.33030712D-09  0.23519835D-09  0.28691271D-18 -0.60304325D-18
 -0.40894383D-09  0.28037518D-18 -0.61846458D-18  0.82226859D-09 -0.67941927D-20
  0.13856689D-19  0.37538312D-12 -0.15291057D-04 -0.15291057D-04  0.30582114D-04
 -0.11686273D-20 -0.15872407D-18 -0.15203697D-20  0.28577335D-03  0.28577335D-03
 -0.57154671D-03 -0.16404033D-21  0.15268203D-18 -0.13632607D-19  0.34914952D-04
  0.34914952D-04 -0.69829903D-04  0.28905965D-23 -0.51577368D-19  0.15391660D-19
  0.19169121D-19 -0.41400024D-19 -0.72307250D-10  0.19366247D-19 -0.41430490D-19
  0.10846087D-09 -0.76873610D-19  0.16563056D-18  0.10846087D-09 -0.11497002D-20
 -0.65442979D-19  0.14131362D-18 -0.36054896D-10 -0.65475584D-19  0.14130980D-18
  0.54082343D-10  0.26180452D-18 -0.56525065D-18  0.54082343D-10  0.46583030D-21
  0.41382515D+00  0.77362207D+00  0.13370605D+01  0.21626353D+01  0.32686967D+01
  0.45015317D+01  0.52612469D+01  0.45461142D+01  0.21203239D+01  0.28789417D+00
  0.77090966D-03  0.15122061D-02  0.69038524D-04 -0.96879097D-03 -0.18092584D-02
 -0.31384386D-02 -0.50888697D-02 -0.78348943D-02 -0.11158649D-01 -0.14348575D-01
 -0.15061734D-01 -0.10649713D-01  0.23584235D-03  0.76519564D-02  0.42133749D-02
 -0.17818291D-04  0.39647884D-03  0.73988817D-03  0.12850972D-02  0.20815723D-02
  0.32154201D-02  0.45840644D-02  0.59623704D-02  0.63542797D-02  0.47128371D-02
 -0.14669312D-03 -0.42695849D-02 -0.41827195D-02  0.19535781D-02 -0.23519913D-02
  0.22981934D-05 -0.13153979D-04 -0.13174343D-16 -0.17284021D-16 -0.18957936D-16
 -0.15598891D-16 -0.82240436D-17 -0.21395074D-17  0.23675831D-20  0.20467469D-16
  0.26852205D-16  0.29452776D-16  0.24234211D-16  0.12776755D-16  0.33239078D-17
 -0.36782429D-20 -0.12335720D-01 -0.16183793D-01 -0.17751154D-01 -0.14605931D-01
 -0.77005356D-02 -0.20033154D-02  0.22168727D-05  0.80130336D-17  0.10521162D-16
  0.11837016D-16  0.99735813D-17  0.55790816D-17  0.13886220D-17 -0.63688898D-18
 -0.13179223D-16 -0.17304400D-16 -0.19468617D-16 -0.16403782D-16 -0.91760456D-17
 -0.22838991D-17  0.10475062D-17  0.10888435D-01  0.14296581D-01  0.16084618D-01
  0.13552506D-01  0.75810821D-02  0.18869159D-02 -0.86543055D-03  0.84090578D-18
 -0.12176174D-17  0.33520417D-03  0.13994995D-19  0.13952532D-18  0.18562189D-03
  0.26370006D-20 -0.41400791D-20  0.37696553D-05 -0.28106351D-04 -0.28106351D-04
  0.56212701D-04 -0.88236189D-23  0.30708378D-18 -0.55554426D-18 -0.18143851D-03
 -0.18143851D-03  0.36287701D-03  0.84150640D-21  0.52089071D-19 -0.14833278D-18
  0.17511320D-04  0.17511320D-04 -0.35022639D-04 -0.83221391D-23 -0.17944480D-20
 -0.34117029D-19  0.54814412D-19 -0.86995588D-19 -0.88114483D-04  0.54730957D-19
 -0.86383870D-19  0.13217172D-03 -0.21917419D-18  0.34737063D-18  0.13217172D-03
  0.44600582D-21  0.58615998D-20 -0.11098778D-19  0.16297405D-04  0.58828206D-20
 -0.11146532D-19 -0.24446108D-04 -0.23467620D-19  0.44442865D-19 -0.24446108D-04
  0.56148952D-23  0.41382452D+00  0.77362089D+00  0.13370584D+01  0.21626320D+01
  0.32686917D+01  0.45015248D+01  0.52612388D+01  0.45461073D+01  0.21203206D+01
  0.28789373D+00  0.77090849D-03  0.15122038D-02  0.69038419D-04 -0.96878941D-03
 -0.18092555D-02 -0.31384336D-02 -0.50888615D-02 -0.78348817D-02 -0.11158631D-01
 -0.14348551D-01 -0.15061709D-01 -0.10649696D-01  0.23584197D-03  0.76519440D-02
  0.42133681D-02 -0.17818262D-04  0.39647819D-03  0.73988695D-03  0.12850951D-02
  0.20815689D-02  0.32154148D-02  0.45840569D-02  0.59623606D-02  0.63542692D-02
  0.47128293D-02 -0.14669288D-03 -0.42695778D-02 -0.41827127D-02  0.19535749D-02
 -0.23519878D-02  0.23009518D-05 -0.13153550D-04 -0.63436260D-17 -0.83224919D-17
 -0.91285051D-17 -0.75110787D-17 -0.39599892D-17 -0.10302020D-17  0.11400236D-20
  0.11313529D-16  0.14842734D-16  0.16280216D-16  0.13395620D-16  0.70624358D-17
  0.18373120D-17 -0.20331730D-20  0.12335714D-01  0.16183785D-01  0.17751146D-01
  0.14605924D-01  0.77005321D-02  0.20033145D-02 -0.22168717D-05  0.41615079D-17
  0.54640852D-17  0.61474642D-17  0.51797034D-17  0.28974535D-17  0.72117027D-18
 -0.33076343D-18 -0.11594411D-16 -0.15223533D-16 -0.17127501D-16 -0.14431214D-16
 -0.80726189D-17 -0.20092584D-17  0.92154272D-18 -0.10888430D-01 -0.14296574D-01
 -0.16084610D-01 -0.13552500D-01 -0.75810786D-02 -0.18869150D-02  0.86543015D-03
  0.30907488D-18 -0.67782914D-18 -0.33520420D-03 -0.16028522D-18  0.19844784D-18
 -0.18562088D-03  0.12072674D-20 -0.41490008D-20 -0.37696317D-05 -0.28106364D-04
 -0.28106364D-04  0.56212728D-04  0.21490092D-20 -0.20646516D-18  0.54912423D-18
 -0.18143831D-03 -0.18143831D-03  0.36287661D-03 -0.21570336D-19 -0.80900600D-19
  0.15282753D-18  0.17511272D-04  0.17511272D-04 -0.35022543D-04 -0.15011934D-21
 -0.37047801D-19  0.45979710D-19  0.25206087D-19 -0.82291898D-19  0.88114349D-04
  0.24697308D-19 -0.82662548D-19 -0.13217152D-03 -0.10031557D-18  0.32953824D-18
 -0.13217152D-03 -0.13324796D-20  0.44618223D-20 -0.11641580D-19 -0.16297387D-04
  0.45101100D-20 -0.11642426D-19  0.24446080D-04 -0.17895577D-19  0.46567165D-19
  0.24446080D-04  0.34688302D-21
MO    3     MO 0.0        OCC NO =    2.0000000  ORB. ENERGY =  -10.161196
  0.32781863D+00  0.61112845D+00  0.10329147D+01  0.15528092D+01  0.19078055D+01
  0.16114467D+01  0.60777842D+00 -0.30079293D-02 -0.14183350D-02 -0.26555706D-02
 -0.45213362D-02 -0.69938196D-02 -0.92106144D-02 -0.95704183D-02 -0.60815712D-02
  0.40757276D-02  0.30436438D-01  0.54513192D-02  0.90235529D-03  0.20614317D-17
  0.19327232D-17  0.13762141D-17 -0.52004198D-16 -0.48757241D-16 -0.34718060D-16
 -0.12611685D-13 -0.11824256D-13 -0.84195747D-14 -0.30633760D-19  0.10175883D-16
  0.96609856D-15  0.19973668D-18  0.30393215D-17 -0.10649761D-13 -0.18515175D-20
 -0.58179007D-20 -0.46067556D-15 -0.17559517D-02 -0.17559517D-02  0.35119034D-02
 -0.16561602D-17  0.12492086D-16 -0.34978350D-17 -0.29487772D-03 -0.29487772D-03
  0.58975544D-03 -0.46217706D-18 -0.10243914D-17  0.20390288D-18  0.26736853D-04
  0.26736853D-04 -0.53473705D-04  0.15696037D-19  0.39591285D-19 -0.62488778D-19
 -0.96214038D-20 -0.14138172D-18  0.84653992D-15 -0.25278752D-18  0.35615281D-18
 -0.12670778D-14  0.28165173D-18  0.67992355D-19 -0.12725420D-14 -0.57085392D-18
 -0.45375393D-19 -0.69468657D-18 -0.41747235D-15 -0.44306049D-19 -0.71861947D-18
  0.62596709D-15  0.18043223D-18  0.28026792D-17  0.62644994D-15  0.64465178D-19
  0.49415690D-04  0.92379761D-04  0.15966107D-03  0.25824461D-03  0.39032161D-03
  0.53753691D-03  0.62825602D-03  0.54286060D-03  0.25319212D-03  0.34378020D-04
  0.92055867D-07  0.18057556D-06  0.82440284D-08 -0.12818079D-03 -0.23938309D-03
 -0.41524701D-03 -0.67330867D-03 -0.10366354D-02 -0.14764016D-02 -0.18984608D-02
 -0.19928189D-02 -0.14090642D-02  0.31204316D-04  0.10124308D-02  0.55747189D-03
 -0.23575392D-05  0.83779035D-04  0.15634407D-03  0.27155094D-03  0.43985228D-03
  0.67944304D-03  0.96864814D-03  0.12598948D-02  0.13427083D-02  0.99585879D-03
 -0.30997386D-04 -0.90219619D-03 -0.88384088D-03  0.41280611D-03  0.72011218D-03
 -0.21050638D-02 -0.81218046D-03 -0.54589046D-18 -0.71617855D-18 -0.78553871D-18
 -0.64635370D-18 -0.34077045D-18 -0.88652366D-19  0.98102881D-22 -0.64386533D-16
 -0.84471625D-16 -0.92652498D-16 -0.76235943D-16 -0.40193097D-16 -0.10456344D-16
  0.11571011D-19  0.23689287D-01  0.31079054D-01  0.34088985D-01  0.28048957D-01
  0.14787965D-01  0.38471296D-02 -0.42572411D-05  0.54362320D-18  0.71378058D-18
  0.80305128D-18  0.67663142D-18  0.37849813D-18  0.94207414D-19 -0.43208059D-19
  0.56616021D-16  0.74337180D-16  0.83634340D-16  0.70468255D-16  0.39418954D-16
  0.98112974D-17 -0.44999337D-17 -0.21083416D-01 -0.27682654D-01 -0.31144852D-01
 -0.26241893D-01 -0.14679347D-01 -0.36536596D-02  0.16757443D-02 -0.17059593D-19
  0.31320929D-17 -0.17696786D-02 -0.56248134D-19 -0.10918763D-17  0.11574080D-02
 -0.12407196D-20  0.11963512D-19  0.39147103D-04  0.40239665D-03  0.40239665D-03
 -0.80479330D-03  0.47637003D-19 -0.62051325D-19  0.36865597D-17 -0.47859203D-04
 -0.47859203D-04  0.95718406D-04 -0.47769444D-19  0.41029885D-18 -0.70206454D-19
  0.48041619D-04  0.48041619D-04 -0.96083238D-04 -0.62266313D-20  0.33807544D-20
  0.23015301D-18  0.11588235D-18  0.44873326D-18  0.45431180D-03  0.12618298D-18
  0.44348370D-18 -0.68146770D-03 -0.47383004D-18 -0.17896835D-17 -0.68146770D-03
 -0.17864617D-18 -0.17824318D-19  0.13609040D-18  0.77642925D-04 -0.18947125D-19
  0.13949883D-18 -0.11646439D-03  0.72420078D-19 -0.54777004D-18 -0.11646439D-03
 -0.20926212D-19  0.49415690D-04  0.92379761D-04  0.15966107D-03  0.25824461D-03
  0.39032161D-03  0.53753691D-03  0.62825602D-03  0.54286060D-03  0.25319212D-03
  0.34378020D-04  0.92055867D-07  0.18057556D-06  0.82440284D-08 -0.12818079D-03
 -0.23938309D-03 -0.41524701D-03 -0.67330867D-03 -0.10366354D-02 -0.14764016D-02
 -0.18984608D-02 -0.19928189D-02 -0.14090642D-02  0.31204316D-04  0.10124308D-02
  0.55747189D-03 -0.23575392D-05  0.83779035D-04  0.15634407D-03  0.27155094D-03
  0.43985228D-03  0.67944304D-03  0.96864814D-03  0.12598948D-02  0.13427083D-02
  0.99585879D-03 -0.30997386D-04 -0.90219619D-03 -0.88384088D-03  0.41280611D-03
  0.72011218D-03 -0.21050638D-02 -0.81218046D-03 -0.70105635D-17 -0.91974775D-17
 -0.10088231D-16 -0.83007563D-17 -0.43763229D-17 -0.11385124D-17  0.12598800D-20
 -0.62385081D-16 -0.81845829D-16 -0.89772400D-16 -0.73866153D-16 -0.38943697D-16
 -0.10131309D-16  0.11211327D-19 -0.23689287D-01 -0.31079054D-01 -0.34088985D-01
 -0.28048957D-01 -0.14787965D-01 -0.38471296D-02  0.42572411D-05  0.59562342D-17
  0.78205717D-17  0.87986705D-17  0.74135452D-17  0.41470332D-17  0.10321881D-17
 -0.47341121D-18  0.55459224D-16  0.72818299D-16  0.81925496D-16  0.69028425D-16
  0.38613533D-16  0.96108297D-17 -0.44079896D-17  0.21083416D-01  0.27682654D-01
  0.31144852D-01  0.26241893D-01  0.14679347D-01  0.36536596D-02 -0.16757443D-02
  0.29772861D-18  0.30253848D-17  0.17696786D-02 -0.67295669D-19 -0.12493461D-17
 -0.11574080D-02  0.23908413D-20  0.99311812D-20 -0.39147103D-04  0.40239665D-03
  0.40239665D-03 -0.80479330D-03  0.88689605D-19 -0.39053598D-18 -0.36558465D-17
 -0.47859203D-04 -0.47859203D-04  0.95718406D-04 -0.85925061D-19  0.40380576D-19
 -0.11115399D-18  0.48041619D-04  0.48041619D-04 -0.96083238D-04 -0.38799076D-20
 -0.23167212D-19 -0.25296216D-18 -0.33461613D-19  0.52910373D-18 -0.45431180D-03
 -0.33248016D-19  0.53109945D-18  0.68146770D-03  0.13363286D-18 -0.21184106D-17
  0.68146770D-03  0.15905310D-18  0.23165485D-19  0.12529970D-18 -0.77642925D-04
  0.24282046D-19  0.12690279D-18  0.11646439D-03 -0.93778501D-19 -0.50280191D-18
  0.11646439D-03  0.44132107D-19
MO    4     MO 0.0        OCC NO =    2.0000000  ORB. ENERGY =   -7.897453
 -0.23551965D-09 -0.43906217D-09 -0.74209242D-09 -0.11156080D-08 -0.13706533D-08
 -0.11577358D-08 -0.43665536D-09  0.21610318D-11  0.57697445D-10  0.10802782D-09
  0.18392661D-09  0.28450650D-09  0.37468505D-09  0.38932176D-09  0.24739650D-09
 -0.16579938D-09 -0.25445689D-09 -0.21675767D-08  0.98022575D-10  0.72777917D-16
  0.68233923D-16  0.48586618D-16  0.15710542D-15  0.14729632D-15  0.10488376D-15
 -0.11687224D-03 -0.10957516D-03 -0.78024039D-04  0.38466129D-18 -0.42328018D-17
  0.10344522D-03  0.12170857D-16  0.16498217D-16  0.18703162D-02  0.23219681D-18
 -0.45919664D-18  0.10242500D-04  0.21443284D-09  0.21443173D-09 -0.42886457D-09
  0.10827170D-15  0.21716592D-17  0.23852974D-16 -0.21901717D-09 -0.21901717D-09
  0.43803433D-09 -0.24410695D-16  0.50507788D-18  0.13798623D-17 -0.55403801D-10
 -0.55403801D-10  0.11080760D-09 -0.33759575D-18 -0.13788161D-17 -0.28619331D-17
 -0.82396530D-18 -0.16089190D-17  0.38604180D-04 -0.74253327D-18 -0.13214050D-17
 -0.57906269D-04  0.32144292D-17  0.61481620D-17 -0.57906269D-04 -0.66543003D-18
 -0.21684216D-17 -0.12194114D-17 -0.17012015D-04 -0.21706275D-17 -0.12380724D-17
  0.25518022D-04  0.86758922D-17  0.48963066D-17  0.25518022D-04  0.74029984D-18
  0.15047594D-02  0.28130602D-02  0.48618463D-02  0.78638182D-02  0.11885701D-01
  0.16368560D-01  0.19131052D-01  0.16530672D-01  0.77099644D-02  0.10468466D-02
  0.28031973D-05  0.54987143D-05  0.25103927D-06  0.11214753D+00  0.20944028D+00
  0.36330658D+00  0.58908905D+00  0.90696966D+00  0.12917285D+01  0.16609952D+01
  0.17435507D+01  0.12328139D+01 -0.27301180D-01 -0.88579271D+00 -0.48774151D+00
  0.20626506D-02  0.42914662D-03  0.80085108D-03  0.13909825D-02  0.22530830D-02
  0.34803538D-02  0.49617673D-02  0.64536384D-02  0.68778390D-02  0.51011501D-02
 -0.15877986D-03 -0.46213763D-02 -0.45273537D-02  0.21145427D-02 -0.35907157D-01
 -0.30134011D-02 -0.39134088D-03  0.40998257D-15  0.53787481D-15  0.58996669D-15
  0.48543394D-15  0.25593037D-15  0.66580987D-16 -0.73678650D-19 -0.10801419D-14
 -0.14170873D-14 -0.15543288D-14 -0.12789264D-14 -0.67427526D-15 -0.17541455D-15
  0.19411409D-18  0.40597620D-01  0.53261866D-01  0.58420149D-01  0.48069024D-01
  0.25342940D-01  0.65930353D-02 -0.72958657D-05  0.19992562D-15  0.26250356D-15
  0.29533421D-15  0.24884140D-15  0.13919839D-15  0.34646196D-16 -0.15890415D-16
  0.10431998D-15  0.13697277D-15  0.15410360D-15  0.12984394D-15  0.72632878D-16
  0.18078175D-16 -0.82915223D-17 -0.21880232D-02 -0.28728878D-02 -0.32321924D-02
 -0.27233665D-02 -0.15234130D-02 -0.37917440D-03  0.17390765D-03  0.21211495D-16
 -0.11684153D-16  0.25387513D-03 -0.14425434D-17  0.21690113D-17  0.95683307D-03
 -0.68454699D-19  0.88397090D-19  0.17416770D-04  0.44243971D-04  0.44243971D-04
 -0.88487942D-04 -0.14832372D-17  0.10735793D-16  0.51827884D-17  0.15035951D-03
  0.15035951D-03 -0.30071902D-03  0.17970614D-17  0.54771700D-17  0.46665384D-18
  0.38943722D-04  0.38943722D-04 -0.77887443D-04  0.35084994D-18  0.27335723D-18
 -0.42530631D-18  0.24815074D-17  0.12194174D-17  0.59733877D-04  0.24782523D-17
  0.11559445D-17 -0.89600815D-04 -0.99227744D-17 -0.48141967D-17 -0.89600815D-04
  0.21959507D-17  0.29768685D-18  0.12486928D-18  0.53242094D-05  0.29786614D-18
  0.12879819D-18 -0.79863141D-05 -0.11909267D-17 -0.50340603D-18 -0.79863141D-05
  0.55946937D-22 -0.15047641D-02 -0.28130691D-02 -0.48618617D-02 -0.78638431D-02
 -0.11885738D-01 -0.16368612D-01 -0.19131113D-01 -0.16530725D-01 -0.77099888D-02
 -0.10468499D-02 -0.28032062D-05 -0.54987317D-05 -0.25104007D-06 -0.11214789D+00
 -0.20944096D+00 -0.36330776D+00 -0.58909097D+00 -0.90697261D+00 -0.12917327D+01
 -0.16610006D+01 -0.17435564D+01 -0.12328179D+01  0.27301269D-01  0.88579560D+00
  0.48774310D+00 -0.20626573D-02 -0.42914788D-03 -0.80085343D-03 -0.13909865D-02
 -0.22530896D-02 -0.34803640D-02 -0.49617818D-02 -0.64536574D-02 -0.68778591D-02
 -0.51011651D-02  0.15878033D-03  0.46213898D-02  0.45273670D-02 -0.21145489D-02
  0.35907274D-01  0.30134035D-02  0.39134108D-03 -0.75019515D-15 -0.98421518D-15
 -0.10795340D-14 -0.88825772D-15 -0.46830704D-15 -0.12183136D-15  0.13481882D-18
 -0.61273881D-15 -0.80387995D-15 -0.88173378D-15 -0.72550453D-15 -0.38250034D-15
 -0.99508509D-16  0.11011631D-18  0.40597724D-01  0.53262003D-01  0.58420299D-01
  0.48069148D-01  0.25343006D-01  0.65930522D-02 -0.72958845D-05  0.13528902D-15
  0.17763531D-15  0.19985170D-15  0.16839017D-15  0.94195098D-16  0.23444968D-16
 -0.10752992D-16  0.54047584D-16  0.70964807D-16  0.79840192D-16  0.67271399D-16
  0.37630677D-16  0.93661989D-17 -0.42957901D-17 -0.21880057D-02 -0.28728648D-02
 -0.32321666D-02 -0.27233447D-02 -0.15234009D-02 -0.37917138D-03  0.17390626D-03