 Molden2AIM, Version 4.0.0 (06/02/2016)           Time: Sat Jun 30 04:30:29 2018
GAUSSIAN             16 MOL ORBITALS    300 PRIMITIVES        4 NUCLEI
  O    1    (CENTRE  1)   0.00000000  0.00000000 -0.01225865  CHARGE =  8.0
  C    2    (CENTRE  2)   0.00000000  0.00000000  2.20828293  CHARGE =  6.0
  F    3    (CENTRE  3)   2.01030010  0.00000000  3.67931188  CHARGE =  9.0
  F    4    (CENTRE  4)  -2.01030010  0.00000000  3.67931188  CHARGE =  9.0
CENTRE ASSIGNMENTS    1  1  1  1  1  1  1  1  1  1  1  1  1  1  1  1  1  1  1  1
CENTRE ASSIGNMENTS    1  1  1  1  1  1  1  1  1  1  1  1  1  1  1  1  1  1  1  1
CENTRE ASSIGNMENTS    1  1  1  1  1  1  1  1  1  1  1  1  1  1  1  1  1  1  1  1
CENTRE ASSIGNMENTS    1  1  1  1  1  1  1  1  1  1  1  1  1  1  1  2  2  2  2  2
CENTRE ASSIGNMENTS    2  2  2  2  2  2  2  2  2  2  2  2  2  2  2  2  2  2  2  2
CENTRE ASSIGNMENTS    2  2  2  2  2  2  2  2  2  2  2  2  2  2  2  2  2  2  2  2
CENTRE ASSIGNMENTS    2  2  2  2  2  2  2  2  2  2  2  2  2  2  2  2  2  2  2  2
CENTRE ASSIGNMENTS    2  2  2  2  2  2  2  2  2  2  3  3  3  3  3  3  3  3  3  3
CENTRE ASSIGNMENTS    3  3  3  3  3  3  3  3  3  3  3  3  3  3  3  3  3  3  3  3
CENTRE ASSIGNMENTS    3  3  3  3  3  3  3  3  3  3  3  3  3  3  3  3  3  3  3  3
CENTRE ASSIGNMENTS    3  3  3  3  3  3  3  3  3  3  3  3  3  3  3  3  3  3  3  3
CENTRE ASSIGNMENTS    3  3  3  3  3  4  4  4  4  4  4  4  4  4  4  4  4  4  4  4
CENTRE ASSIGNMENTS    4  4  4  4  4  4  4  4  4  4  4  4  4  4  4  4  4  4  4  4
CENTRE ASSIGNMENTS    4  4  4  4  4  4  4  4  4  4  4  4  4  4  4  4  4  4  4  4
CENTRE ASSIGNMENTS    4  4  4  4  4  4  4  4  4  4  4  4  4  4  4  4  4  4  4  4
TYPE ASSIGNMENTS      1  1  1  1  1  1  1  1  1  1  1  1  1  1  1  1  1  1  1  2
TYPE ASSIGNMENTS      2  2  3  3  3  4  4  4  2  3  4  2  3  4  2  3  4  5  6  7
TYPE ASSIGNMENTS      8  9 10  5  6  7  8  9 10  5  6  7  8  9 10 11 12 13 17 14
TYPE ASSIGNMENTS     15 18 19 16 20 11 12 13 17 14 15 18 19 16 20  1  1  1  1  1
TYPE ASSIGNMENTS      1  1  1  1  1  1  1  1  1  1  1  1  1  1  2  2  2  3  3  3
TYPE ASSIGNMENTS      4  4  4  2  3  4  2  3  4  2  3  4  5  6  7  8  9 10  5  6
TYPE ASSIGNMENTS      7  8  9 10  5  6  7  8  9 10 11 12 13 17 14 15 18 19 16 20
TYPE ASSIGNMENTS     11 12 13 17 14 15 18 19 16 20  1  1  1  1  1  1  1  1  1  1
TYPE ASSIGNMENTS      1  1  1  1  1  1  1  1  1  2  2  2  3  3  3  4  4  4  2  3
TYPE ASSIGNMENTS      4  2  3  4  2  3  4  5  6  7  8  9 10  5  6  7  8  9 10  5
TYPE ASSIGNMENTS      6  7  8  9 10 11 12 13 17 14 15 18 19 16 20 11 12 13 17 14
TYPE ASSIGNMENTS     15 18 19 16 20  1  1  1  1  1  1  1  1  1  1  1  1  1  1  1
TYPE ASSIGNMENTS      1  1  1  1  2  2  2  3  3  3  4  4  4  2  3  4  2  3  4  2
TYPE ASSIGNMENTS      3  4  5  6  7  8  9 10  5  6  7  8  9 10  5  6  7  8  9 10
TYPE ASSIGNMENTS     11 12 13 17 14 15 18 19 16 20 11 12 13 17 14 15 18 19 16 20
EXPONENTS  0.1533000D+05 0.2299000D+04 0.5224000D+03 0.1473000D+03 0.4755000D+02
EXPONENTS  0.1676000D+02 0.6207000D+01 0.6882000D+00 0.1533000D+05 0.2299000D+04
EXPONENTS  0.5224000D+03 0.1473000D+03 0.4755000D+02 0.1676000D+02 0.6207000D+01
EXPONENTS  0.6882000D+00 0.1752000D+01 0.2384000D+00 0.7376000D-01 0.3446000D+02
EXPONENTS  0.7749000D+01 0.2280000D+01 0.3446000D+02 0.7749000D+01 0.2280000D+01
EXPONENTS  0.3446000D+02 0.7749000D+01 0.2280000D+01 0.7156000D+00 0.7156000D+00
EXPONENTS  0.7156000D+00 0.2140000D+00 0.2140000D+00 0.2140000D+00 0.5974000D-01
EXPONENTS  0.5974000D-01 0.5974000D-01 0.2314000D+01 0.2314000D+01 0.2314000D+01
EXPONENTS  0.2314000D+01 0.2314000D+01 0.2314000D+01 0.6450000D+00 0.6450000D+00
EXPONENTS  0.6450000D+00 0.6450000D+00 0.6450000D+00 0.6450000D+00 0.2140000D+00
EXPONENTS  0.2140000D+00 0.2140000D+00 0.2140000D+00 0.2140000D+00 0.2140000D+00
EXPONENTS  0.1428000D+01 0.1428000D+01 0.1428000D+01 0.1428000D+01 0.1428000D+01
EXPONENTS  0.1428000D+01 0.1428000D+01 0.1428000D+01 0.1428000D+01 0.1428000D+01
EXPONENTS  0.5000000D+00 0.5000000D+00 0.5000000D+00 0.5000000D+00 0.5000000D+00
EXPONENTS  0.5000000D+00 0.5000000D+00 0.5000000D+00 0.5000000D+00 0.5000000D+00
EXPONENTS  0.8236000D+04 0.1235000D+04 0.2808000D+03 0.7927000D+02 0.2559000D+02
EXPONENTS  0.8997000D+01 0.3319000D+01 0.3643000D+00 0.8236000D+04 0.1235000D+04
EXPONENTS  0.2808000D+03 0.7927000D+02 0.2559000D+02 0.8997000D+01 0.3319000D+01
EXPONENTS  0.3643000D+00 0.9059000D+00 0.1285000D+00 0.4402000D-01 0.1871000D+02
EXPONENTS  0.4133000D+01 0.1200000D+01 0.1871000D+02 0.4133000D+01 0.1200000D+01
EXPONENTS  0.1871000D+02 0.4133000D+01 0.1200000D+01 0.3827000D+00 0.3827000D+00
EXPONENTS  0.3827000D+00 0.1209000D+00 0.1209000D+00 0.1209000D+00 0.3569000D-01
EXPONENTS  0.3569000D-01 0.3569000D-01 0.1097000D+01 0.1097000D+01 0.1097000D+01
EXPONENTS  0.1097000D+01 0.1097000D+01 0.1097000D+01 0.3180000D+00 0.3180000D+00
EXPONENTS  0.3180000D+00 0.3180000D+00 0.3180000D+00 0.3180000D+00 0.1000000D+00
EXPONENTS  0.1000000D+00 0.1000000D+00 0.1000000D+00 0.1000000D+00 0.1000000D+00
EXPONENTS  0.7610000D+00 0.7610000D+00 0.7610000D+00 0.7610000D+00 0.7610000D+00
EXPONENTS  0.7610000D+00 0.7610000D+00 0.7610000D+00 0.7610000D+00 0.7610000D+00
EXPONENTS  0.2680000D+00 0.2680000D+00 0.2680000D+00 0.2680000D+00 0.2680000D+00
EXPONENTS  0.2680000D+00 0.2680000D+00 0.2680000D+00 0.2680000D+00 0.2680000D+00
EXPONENTS  0.1950000D+05 0.2923000D+04 0.6645000D+03 0.1875000D+03 0.6062000D+02
EXPONENTS  0.2142000D+02 0.7950000D+01 0.8815000D+00 0.1950000D+05 0.2923000D+04
EXPONENTS  0.6645000D+03 0.1875000D+03 0.6062000D+02 0.2142000D+02 0.7950000D+01
EXPONENTS  0.8815000D+00 0.2257000D+01 0.3041000D+00 0.9158000D-01 0.4388000D+02
EXPONENTS  0.9926000D+01 0.2930000D+01 0.4388000D+02 0.9926000D+01 0.2930000D+01
EXPONENTS  0.4388000D+02 0.9926000D+01 0.2930000D+01 0.9132000D+00 0.9132000D+00
EXPONENTS  0.9132000D+00 0.2672000D+00 0.2672000D+00 0.2672000D+00 0.7361000D-01
EXPONENTS  0.7361000D-01 0.7361000D-01 0.3107000D+01 0.3107000D+01 0.3107000D+01
EXPONENTS  0.3107000D+01 0.3107000D+01 0.3107000D+01 0.8550000D+00 0.8550000D+00
EXPONENTS  0.8550000D+00 0.8550000D+00 0.8550000D+00 0.8550000D+00 0.2920000D+00
EXPONENTS  0.2920000D+00 0.2920000D+00 0.2920000D+00 0.2920000D+00 0.2920000D+00
EXPONENTS  0.1917000D+01 0.1917000D+01 0.1917000D+01 0.1917000D+01 0.1917000D+01
EXPONENTS  0.1917000D+01 0.1917000D+01 0.1917000D+01 0.1917000D+01 0.1917000D+01
EXPONENTS  0.7240000D+00 0.7240000D+00 0.7240000D+00 0.7240000D+00 0.7240000D+00
EXPONENTS  0.7240000D+00 0.7240000D+00 0.7240000D+00 0.7240000D+00 0.7240000D+00
EXPONENTS  0.1950000D+05 0.2923000D+04 0.6645000D+03 0.1875000D+03 0.6062000D+02
EXPONENTS  0.2142000D+02 0.7950000D+01 0.8815000D+00 0.1950000D+05 0.2923000D+04
EXPONENTS  0.6645000D+03 0.1875000D+03 0.6062000D+02 0.2142000D+02 0.7950000D+01
EXPONENTS  0.8815000D+00 0.2257000D+01 0.3041000D+00 0.9158000D-01 0.4388000D+02
EXPONENTS  0.9926000D+01 0.2930000D+01 0.4388000D+02 0.9926000D+01 0.2930000D+01
EXPONENTS  0.4388000D+02 0.9926000D+01 0.2930000D+01 0.9132000D+00 0.9132000D+00
EXPONENTS  0.9132000D+00 0.2672000D+00 0.2672000D+00 0.2672000D+00 0.7361000D-01
EXPONENTS  0.7361000D-01 0.7361000D-01 0.3107000D+01 0.3107000D+01 0.3107000D+01
EXPONENTS  0.3107000D+01 0.3107000D+01 0.3107000D+01 0.8550000D+00 0.8550000D+00
EXPONENTS  0.8550000D+00 0.8550000D+00 0.8550000D+00 0.8550000D+00 0.2920000D+00
EXPONENTS  0.2920000D+00 0.2920000D+00 0.2920000D+00 0.2920000D+00 0.2920000D+00
EXPONENTS  0.1917000D+01 0.1917000D+01 0.1917000D+01 0.1917000D+01 0.1917000D+01
EXPONENTS  0.1917000D+01 0.1917000D+01 0.1917000D+01 0.1917000D+01 0.1917000D+01
EXPONENTS  0.7240000D+00 0.7240000D+00 0.7240000D+00 0.7240000D+00 0.7240000D+00
EXPONENTS  0.7240000D+00 0.7240000D+00 0.7240000D+00 0.7240000D+00 0.7240000D+00
MO    1     MO 0.0        OCC NO =    2.0000000  ORB. ENERGY =  -24.562092
  0.55492346D-11  0.10343059D-10  0.17538401D-10  0.26545188D-10  0.33120644D-10
  0.28446216D-10  0.10921055D-10 -0.48850551D-13 -0.36954837D-11 -0.69309713D-11
 -0.11815787D-10 -0.18465775D-10 -0.24692259D-10 -0.26365576D-10 -0.16119396D-10
  0.10634599D-10 -0.66669368D-11  0.42134849D-10  0.10919572D-10 -0.85123595D-04
 -0.82541253D-04 -0.55681841D-04 -0.26022056D-16 -0.25232641D-16 -0.17021791D-16
 -0.27087590D-10 -0.26265851D-10 -0.17718788D-10  0.12298465D-03  0.18147654D-16
  0.45266964D-10  0.18862804D-03  0.59448960D-18  0.30561652D-10 -0.17993357D-05
 -0.28264185D-17  0.15888337D-11  0.99091729D-11 -0.85553443D-11 -0.13538285D-11
  0.45425114D-15  0.34982400D-03 -0.11391662D-15 -0.11990326D-10 -0.68234263D-11
  0.18813753D-10 -0.41408473D-16 -0.23696115D-03 -0.30912696D-16 -0.34662374D-11
 -0.24867111D-11  0.59529485D-11 -0.69999489D-17  0.70478288D-04  0.19588161D-17
 -0.27131119D-04  0.13245381D-17 -0.19583095D-11  0.10501291D-04 -0.12987489D-17
  0.19610787D-10  0.70892065D-04 -0.26748654D-17 -0.13735858D-10  0.17991877D-17
  0.35425942D-04 -0.44827126D-18  0.36662443D-11  0.59454456D-04  0.72652670D-18
 -0.93457001D-11 -0.16573228D-03  0.61828708D-18 -0.16530328D-11 -0.99334321D-18
  0.25855916D-10  0.48201306D-10  0.81468698D-10  0.12247414D-09  0.15047363D-09
  0.12709904D-09  0.47937080D-10 -0.23724329D-12 -0.18322675D-10 -0.34305829D-10
 -0.58408610D-10 -0.90349238D-10 -0.11898677D-09 -0.12363487D-09 -0.78564412D-10
  0.52652042D-10 -0.23243934D-10  0.41535584D-10  0.40053202D-11 -0.49047607D-03
 -0.45985249D-03 -0.32744237D-03  0.85955728D-18  0.80588959D-18  0.57384140D-18
 -0.26816953D-10 -0.25142598D-10 -0.17903028D-10  0.24655743D-02 -0.20752616D-17
  0.14343915D-09  0.17915915D-03 -0.17045893D-17  0.12679278D-10  0.49105163D-05
 -0.10947937D-18  0.22932472D-12  0.57384978D-10 -0.40042763D-10 -0.17342216D-10
  0.70035374D-18  0.21093392D-02 -0.44524238D-17  0.19387206D-10 -0.12993493D-10
 -0.63937127D-11  0.35811018D-17  0.85716904D-03  0.44769697D-18 -0.94471972D-14
 -0.43214049D-12  0.44158769D-12 -0.47331366D-19 -0.32094449D-06 -0.29495690D-18
  0.38428454D-04  0.47455813D-18  0.45721509D-11 -0.70913076D-03 -0.35905800D-17
  0.29970694D-10  0.59384540D-03  0.21669056D-17 -0.43687146D-10  0.54401235D-17
  0.54706613D-04  0.30591570D-18 -0.24674308D-12 -0.48755241D-06 -0.94804179D-18
  0.42104619D-12 -0.16363229D-03  0.30294673D-19  0.31918306D-12 -0.16239344D-18
  0.42032778D+00  0.78350919D+00  0.13282407D+01  0.20113479D+01  0.25151976D+01
  0.21653508D+01  0.83243991D+00 -0.36070984D-02  0.10138200D-03  0.19037744D-03
  0.32417995D-03  0.50782598D-03  0.68054655D-03  0.73201958D-03  0.43950359D-03
 -0.28903605D-03  0.45512144D-01 -0.82234389D-03 -0.41569291D-03 -0.43230576D-02
 -0.42278559D-02 -0.27935232D-02 -0.20620829D-17 -0.20166720D-17 -0.13325005D-17
 -0.31254700D-02 -0.30566414D-02 -0.20196522D-02  0.84663057D-03 -0.10858219D-18
  0.63148160D-03  0.70080146D-03  0.35193579D-18  0.76127946D-03  0.37606953D-04
  0.34751944D-18  0.22733506D-04  0.16645763D-03 -0.46587685D-03  0.29941922D-03
 -0.20283588D-17  0.87258796D-03 -0.90300072D-17 -0.27370893D-03  0.35030461D-03
 -0.76595674D-04 -0.17443587D-17 -0.10562343D-02 -0.20532247D-17 -0.68825786D-04
  0.13150974D-03 -0.62683950D-04  0.70539966D-18 -0.39082906D-03  0.26644443D-18
  0.13397804D-03  0.10508734D-17  0.77238491D-04  0.26682724D-03 -0.21998742D-18
 -0.49799545D-03 -0.66876137D-03 -0.29326327D-17  0.26627998D-03 -0.28002483D-17
 -0.23307164D-04 -0.18194929D-18 -0.10308446D-03 -0.35054716D-03 -0.12715194D-17
  0.59714824D-03  0.42046865D-03  0.18173673D-17 -0.28789486D-03  0.18798237D-17
 -0.42032772D+00 -0.78350908D+00 -0.13282405D+01 -0.20113476D+01 -0.25151972D+01
 -0.21653505D+01 -0.83243979D+00  0.36070979D-02 -0.10138198D-03 -0.19037741D-03
 -0.32417989D-03 -0.50782588D-03 -0.68054642D-03 -0.73201943D-03 -0.43950351D-03
  0.28903600D-03 -0.45512137D-01  0.82234382D-03  0.41569286D-03 -0.43230570D-02
 -0.42278553D-02 -0.27935228D-02  0.20611233D-16  0.20157336D-16  0.13318804D-16
  0.31254695D-02  0.30566409D-02  0.20196519D-02  0.84663046D-03 -0.32513477D-17
 -0.63148153D-03  0.70080138D-03  0.35291693D-17 -0.76127940D-03  0.37606950D-04
  0.39410813D-18 -0.22733504D-04 -0.16645755D-03  0.46587678D-03 -0.29941923D-03
 -0.10098599D-16  0.87258792D-03  0.18647258D-16  0.27370887D-03 -0.35030456D-03
  0.76595683D-04  0.16150387D-17 -0.10562342D-02 -0.39849310D-17  0.68825776D-04
 -0.13150972D-03  0.62683948D-04  0.16790457D-17 -0.39082903D-03 -0.15542076D-17
  0.13397806D-03  0.12867559D-16 -0.77238485D-04  0.26682719D-03  0.92973186D-17
  0.49799540D-03 -0.66876138D-03 -0.47899995D-16 -0.26627994D-03  0.13247779D-16
 -0.23307177D-04 -0.36676814D-17  0.10308445D-03 -0.35054711D-03 -0.12884249D-17
 -0.59714818D-03  0.42046864D-03  0.12291469D-16  0.28789483D-03 -0.75401400D-17
MO    2     MO 0.0        OCC NO =    2.0000000  ORB. ENERGY =  -24.562092
  0.76071677D-04  0.14178782D-03  0.24042516D-03  0.36389468D-03  0.45403431D-03
  0.38995492D-03  0.14971128D-03 -0.66966773D-06 -0.50656541D-04 -0.95007598D-04
 -0.16196713D-03 -0.25312309D-03 -0.33847380D-03 -0.36141111D-03 -0.22095967D-03
  0.14577577D-03 -0.91479191D-04  0.57693252D-03  0.14902528D-03  0.62181527D-11
  0.60295164D-11  0.40674762D-11  0.95937318D-16  0.93026927D-16  0.62755416D-16
 -0.37119079D-03 -0.35993020D-03 -0.24280679D-03 -0.89826604D-11  0.20502286D-16
  0.62043067D-03 -0.13724642D-10  0.78345610D-17  0.41951341D-03  0.12545905D-12
 -0.12242044D-19  0.21700793D-04  0.13622669D-03 -0.11746862D-03 -0.18758073D-04
  0.12899051D-18 -0.25528225D-10 -0.22263620D-17 -0.16459161D-03 -0.93507351D-04
  0.25809896D-03 -0.11023004D-18  0.17280560D-10  0.10966243D-17 -0.47561781D-04
 -0.34197484D-04  0.81759265D-04 -0.82197097D-19 -0.51213459D-11 -0.62596326D-20
  0.19767788D-11 -0.50142952D-18 -0.26871231D-04 -0.73195574D-12  0.45351138D-19
  0.26887840D-03 -0.51983806D-11  0.14589374D-17 -0.18826471D-03  0.35023263D-18
 -0.25827278D-11  0.41451357D-19  0.50319961D-04 -0.43484381D-11 -0.15066912D-18
 -0.12820728D-03  0.12096622D-10  0.26315052D-19 -0.22752603D-04 -0.10046670D-18
  0.35449862D-03  0.66086604D-03  0.11169800D-02  0.16791868D-02  0.20630751D-02
  0.17425967D-02  0.65724336D-03 -0.32527341D-05 -0.25121554D-03 -0.47035475D-03
 -0.80081920D-03 -0.12387455D-02 -0.16313843D-02 -0.16951128D-02 -0.10771681D-02
  0.72189299D-03 -0.31871798D-03  0.56829709D-03  0.54831716D-04  0.35789363D-10
  0.33554802D-10  0.23893018D-10 -0.22668924D-18 -0.21253557D-18 -0.15133799D-18
 -0.36749219D-03 -0.34454729D-03 -0.24533819D-03 -0.17980933D-09  0.11141680D-18
  0.19671121D-02 -0.13185172D-10  0.46604148D-18  0.17275870D-03 -0.35770528D-12
  0.28017339D-19  0.31528380D-05  0.78707019D-03 -0.54917764D-03 -0.23789255D-03
  0.13102936D-17 -0.15379364D-09  0.11892750D-17  0.26566567D-03 -0.17806086D-03
 -0.87604811D-04 -0.12478063D-17 -0.62517240D-10  0.90099283D-18 -0.24023697D-06
 -0.59044832D-05  0.61447202D-05 -0.36745802D-19  0.44600456D-14  0.21564188D-19
 -0.28029218D-11  0.13872121D-18  0.62753078D-04  0.51698705D-10 -0.30467570D-18
  0.41088583D-03 -0.43289940D-10 -0.11148793D-18 -0.59914507D-03 -0.44334011D-19
 -0.39937116D-11 -0.43272545D-19 -0.34278224D-05  0.51462620D-13  0.22937318D-18
  0.57445061D-05  0.11929672D-10 -0.99555548D-19  0.45389611D-05 -0.60942384D-18
  0.42027951D+00  0.78341921D+00  0.13280882D+01  0.20111169D+01  0.25149087D+01
  0.21651022D+01  0.83234431D+00 -0.36066842D-02  0.13508754D-03  0.25367048D-03
  0.43195708D-03  0.67665821D-03  0.90680161D-03  0.97538740D-03  0.58562131D-03
 -0.38512921D-03  0.45489458D-01 -0.53014962D-03 -0.33468219D-03 -0.42482117D-02
 -0.41546583D-02 -0.27451584D-02 -0.95109227D-18 -0.93014747D-18 -0.61458776D-18
 -0.29110595D-02 -0.28469526D-02 -0.18811020D-02  0.75000712D-03 -0.77192696D-19
  0.49968738D-03  0.55772712D-03  0.36868455D-18  0.42137769D-03  0.23363569D-04
 -0.69810420D-19  0.17336909D-04  0.55633407D-03 -0.51734856D-03 -0.38985516D-04
 -0.34883131D-17  0.30428486D-03 -0.11537809D-16 -0.39024441D-03  0.32849286D-03
  0.61751551D-04 -0.41109659D-18 -0.74156218D-03 -0.57515935D-18 -0.68665786D-04
  0.84372771D-04 -0.15706986D-04 -0.18050184D-18 -0.22347454D-03 -0.96918551D-19
 -0.13170770D-03  0.45979576D-18  0.41200001D-04  0.33979993D-03 -0.23408887D-17
 -0.34562982D-03  0.55323179D-04  0.96150141D-18  0.22202982D-03  0.71866495D-17
  0.92403405D-04 -0.58785933D-19 -0.75340795D-04 -0.34107592D-03  0.45358875D-18
  0.43333786D-03  0.63865705D-04 -0.27723095D-18 -0.20731547D-03 -0.38436005D-18
  0.42027957D+00  0.78341932D+00  0.13280884D+01  0.20111172D+01  0.25149091D+01
  0.21651025D+01  0.83234443D+00 -0.36066847D-02  0.13508756D-03  0.25367051D-03
  0.43195713D-03  0.67665829D-03  0.90680171D-03  0.97538750D-03  0.58562138D-03
 -0.38512926D-03  0.45489465D-01 -0.53014974D-03 -0.33468225D-03  0.42482124D-02
  0.41546589D-02  0.27451588D-02 -0.19460057D-16 -0.19031511D-16 -0.12574924D-16
 -0.29110600D-02 -0.28469531D-02 -0.18811023D-02 -0.75000724D-03  0.20621635D-17
  0.49968747D-03 -0.55772722D-03 -0.15555069D-17  0.42137780D-03 -0.23363574D-04
 -0.82963038D-19  0.17336913D-04  0.55633410D-03 -0.51734863D-03 -0.38985472D-04
  0.35172056D-17 -0.30428499D-03 -0.88706316D-17 -0.39024445D-03  0.32849291D-03
  0.61751539D-04  0.25100799D-18  0.74156234D-03  0.69180338D-18 -0.68665796D-04
  0.84372790D-04 -0.15706995D-04 -0.92970234D-18  0.22347459D-03  0.58552359D-18
  0.13170768D-03 -0.36959232D-17  0.41200012D-04 -0.33979996D-03  0.90343692D-17
 -0.34562990D-03 -0.55323082D-04  0.20534004D-17  0.22202986D-03  0.15293095D-17
 -0.92403402D-04  0.28987180D-18 -0.75340810D-04  0.34107597D-03 -0.56957175D-18
  0.43333795D-03 -0.63865766D-04 -0.30004365D-18 -0.20731551D-03 -0.23203753D-18
MO    3     MO 0.0        OCC NO =    2.0000000  ORB. ENERGY =  -19.008310
  0.49788912D+00  0.92800126D+00  0.15735827D+01  0.23816907D+01  0.29716546D+01
  0.25522549D+01  0.97986030D+00 -0.43829753D-02 -0.52113174D-03 -0.97739550D-03
 -0.16662451D-02 -0.26040167D-02 -0.34820665D-02 -0.37180352D-02 -0.22731338D-02
  0.14996756D-02  0.53594062D-01  0.10278144D-02  0.44621442D-04  0.41232967D-16
  0.39982108D-16  0.26971694D-16  0.48661818D-16  0.47185595D-16  0.31831123D-16
  0.87809850D-02  0.85146017D-02  0.57439000D-02 -0.23414825D-16 -0.56726129D-17
  0.55565260D-03  0.18520989D-15 -0.29890286D-18 -0.99993843D-03 -0.44453296D-16
 -0.78021315D-20 -0.10329323D-04 -0.55783038D-03 -0.27509233D-02  0.33087537D-02
 -0.25049713D-16  0.95599267D-17  0.82851774D-17  0.13359070D-03  0.54210273D-03
 -0.67569343D-03  0.12291870D-17 -0.49972815D-16 -0.30838455D-17  0.95910792D-04
  0.19795728D-03 -0.29386808D-03 -0.22386004D-19  0.11149929D-15 -0.17956536D-18
 -0.11403177D-16 -0.15769384D-18  0.46156081D-03  0.22380500D-15  0.14435494D-17
 -0.61407830D-03 -0.18959547D-15 -0.97046787D-18 -0.77060412D-03 -0.27685118D-17
  0.11449976D-16  0.13003374D-18 -0.26137273D-03 -0.71375015D-16  0.21590667D-18
  0.20435117D-03  0.37025086D-16 -0.60600790D-18  0.57976700D-03  0.30564795D-18
  0.35061353D-03  0.65362334D-03  0.11047386D-02  0.16607840D-02  0.20404650D-02
  0.17234989D-02  0.65004037D-03 -0.32170861D-05 -0.28004822D-03 -0.52433864D-03
 -0.89273139D-03 -0.13809197D-02 -0.18186227D-02 -0.18896655D-02 -0.12007976D-02
  0.80474661D-03  0.16087742D-02 -0.14088712D-02 -0.33438510D-04  0.78762860D-16
  0.73845188D-16  0.52582173D-16 -0.63629242D-18 -0.59656459D-18 -0.42478952D-18
 -0.12880064D-02 -0.12075878D-02 -0.85987448D-03  0.23407206D-15  0.13424186D-17
 -0.82829020D-03 -0.62502135D-15  0.13950908D-18  0.34100986D-03  0.15982973D-16
  0.72519917D-20 -0.63745988D-05 -0.10330198D-03 -0.10368402D-03  0.20698600D-03
 -0.10961324D-18  0.27348206D-15 -0.16250662D-17  0.88328882D-04  0.56603637D-03
 -0.65436525D-03  0.10036704D-19 -0.47248217D-16 -0.10518990D-17  0.40542790D-04
  0.25290943D-04 -0.65833732D-04  0.16714989D-19 -0.11914956D-15  0.29177806D-19
 -0.35281281D-17 -0.56261709D-18  0.98415539D-03 -0.10847154D-15 -0.39320744D-18
 -0.22047738D-02  0.11905592D-15  0.20810587D-17 -0.74769238D-03  0.13751863D-18
 -0.90324219D-18 -0.60991960D-19  0.19191312D-03  0.89298856D-16 -0.22365689D-18
 -0.49088907D-03 -0.86589130D-16  0.40663277D-18 -0.84850287D-04  0.16033339D-18
  0.18484311D-03  0.34455556D-03  0.58410638D-03  0.88450921D-03  0.11060819D-02
  0.95223346D-03  0.36607331D-03 -0.15862556D-05 -0.12155870D-03 -0.22826571D-03
 -0.38869714D-03 -0.60889177D-03 -0.81598660D-03 -0.87770361D-03 -0.52697209D-03
  0.34655902D-03 -0.20923328D-03  0.10301471D-02  0.54037645D-04  0.47803771D-03
  0.46751044D-03  0.30890391D-03 -0.12642326D-20 -0.12363918D-20 -0.81693635D-21
  0.55550446D-03  0.54327123D-03  0.35896227D-03 -0.65492828D-03  0.31346551D-19
 -0.64718807D-03 -0.31930358D-03 -0.10216579D-18 -0.25439088D-03 -0.17484145D-04
 -0.32845481D-19  0.27103751D-04  0.11968366D-03 -0.40424201D-03  0.28455834D-03
 -0.35485296D-18 -0.36532293D-03 -0.13003745D-18  0.80880778D-04 -0.28478129D-04
 -0.52402649D-04  0.14117497D-18  0.68441137D-03  0.12406361D-18  0.13425276D-04
  0.34806914D-04 -0.48232190D-04  0.21417573D-18  0.11724502D-03 -0.21462563D-18
 -0.65667884D-04 -0.32080829D-18 -0.38835961D-03  0.10807462D-02  0.19133514D-17
  0.42176702D-03 -0.88374252D-03 -0.95092654D-18  0.74331180D-03 -0.11361734D-17
  0.91915749D-04  0.13911679D-18  0.21044613D-03 -0.31780374D-03 -0.81283167D-18
 -0.45130561D-03  0.42056493D-04  0.39548130D-18 -0.18003278D-03  0.26379250D-18
  0.18484311D-03  0.34455556D-03  0.58410638D-03  0.88450921D-03  0.11060819D-02
  0.95223346D-03  0.36607331D-03 -0.15862556D-05 -0.12155870D-03 -0.22826571D-03
 -0.38869714D-03 -0.60889177D-03 -0.81598660D-03 -0.87770361D-03 -0.52697209D-03
  0.34655902D-03 -0.20923328D-03  0.10301471D-02  0.54037645D-04 -0.47803771D-03
 -0.46751044D-03 -0.30890391D-03 -0.43323995D-19 -0.42369921D-19 -0.27995598D-19
  0.55550446D-03  0.54327123D-03  0.35896227D-03  0.65492828D-03  0.63147235D-19
 -0.64718807D-03  0.31930358D-03  0.10682176D-18 -0.25439088D-03  0.17484145D-04
 -0.15092429D-19  0.27103751D-04  0.11968366D-03 -0.40424201D-03  0.28455834D-03
  0.19932211D-18  0.36532293D-03 -0.10045407D-18  0.80880778D-04 -0.28478129D-04
 -0.52402649D-04 -0.52108836D-19 -0.68441137D-03  0.72594784D-19  0.13425276D-04
  0.34806914D-04 -0.48232190D-04 -0.11099969D-18 -0.11724502D-03 -0.22411693D-18
  0.65667884D-04 -0.46701142D-18 -0.38835961D-03 -0.10807462D-02  0.16697710D-17
  0.42176702D-03  0.88374252D-03 -0.26873677D-18  0.74331180D-03  0.11489158D-17
 -0.91915749D-04  0.17282268D-18  0.21044613D-03  0.31780374D-03 -0.69346253D-18
 -0.45130561D-03 -0.42056493D-04  0.17499450D-18 -0.18003278D-03 -0.31531510D-18
MO    4     MO 0.0        OCC NO =    2.0000000  ORB. ENERGY =  -10.297279
 -0.61024238D-04 -0.11374133D-03 -0.19286761D-03 -0.29191411D-03 -0.36422357D-03
 -0.31281948D-03 -0.12009748D-03  0.53720339D-06 -0.41369029D-04 -0.77588639D-04
 -0.13227162D-03 -0.20671479D-03 -0.27641707D-03 -0.29514898D-03 -0.18044830D-03
  0.11904883D-03  0.80816912D-03 -0.40259417D-02 -0.88009550D-03  0.38983216D-14
  0.37800606D-14  0.25500065D-14 -0.65581444D-15 -0.63591940D-15 -0.42898747D-15
  0.29618201D-02  0.28719692D-02  0.19374134D-02 -0.40196580D-14  0.44020491D-16
 -0.47738541D-02 -0.56043609D-14  0.43189781D-17 -0.33472665D-02  0.64663931D-15
  0.28503192D-18 -0.86155707D-04  0.35558624D-04  0.11605704D-03 -0.15161567D-03
  0.11251892D-17 -0.93323056D-15 -0.43020859D-17  0.15210222D-02  0.14028785D-02
 -0.29239007D-02 -0.44657934D-18 -0.97974659D-15  0.14127858D-16  0.24464953D-03
  0.35022587D-03 -0.59487540D-03 -0.16160824D-18 -0.18167447D-14  0.28330993D-17
  0.51258785D-15 -0.22794991D-17 -0.13150084D-03 -0.15610002D-15 -0.19518331D-17
  0.68941050D-03 -0.13816635D-14  0.87903303D-17 -0.29490800D-03  0.36241815D-17
 -0.15229731D-15 -0.10785362D-17 -0.53488992D-03 -0.11111449D-15 -0.91363026D-18
  0.86658954D-03  0.56800640D-15  0.41492388D-17  0.73808022D-03 -0.86761043D-18
  0.33028875D+00  0.61573332D+00  0.10406978D+01  0.15645097D+01  0.19221809D+01
  0.16235890D+01  0.61235805D+00 -0.30305942D-02 -0.32333199D-02 -0.60537951D-02
 -0.10307104D-01 -0.15943523D-01 -0.20997059D-01 -0.21817289D-01 -0.13863908D-01
  0.92912685D-02  0.32272745D-01  0.23089171D-02  0.21671327D-03 -0.22233921D-14
 -0.20845714D-14 -0.14843390D-14  0.36444296D-16  0.34168844D-16  0.24330253D-16
  0.32052780D-02  0.30051519D-02  0.21398471D-02  0.19782180D-14 -0.15230657D-16
 -0.42992861D-02  0.94443728D-14 -0.24266983D-17 -0.76520445D-04 -0.17947250D-15
 -0.35682341D-19 -0.16851568D-04  0.35338802D-03 -0.52674748D-02  0.49140867D-02
 -0.36249467D-17 -0.77970874D-15  0.58762550D-17 -0.44909099D-03  0.39984497D-05
  0.44509254D-03  0.10395633D-17  0.61665956D-14  0.51310565D-17  0.34387301D-04
  0.33930471D-04 -0.68317772D-04 -0.96384612D-19  0.14243110D-14  0.17960867D-18
 -0.68702363D-15  0.45233968D-17 -0.20180594D-02  0.34916401D-15 -0.19920089D-17
  0.49416377D-02  0.17119069D-14 -0.11578182D-16  0.11125405D-02  0.27920933D-17
 -0.16762079D-14  0.51529339D-18  0.20332678D-03 -0.93909028D-15  0.57739939D-18
 -0.59563417D-03  0.59677139D-14 -0.21232796D-17 -0.14346170D-04 -0.41911400D-18
  0.40177807D-03  0.74893174D-03  0.12696234D-02  0.19225840D-02  0.24041981D-02
  0.20697906D-02  0.79570307D-03 -0.34479116D-05 -0.31255754D-03 -0.58692770D-03
 -0.99943664D-03 -0.15656116D-02 -0.20981037D-02 -0.22567934D-02 -0.13549758D-02
  0.89108910D-03  0.36178274D-03 -0.30443174D-03 -0.41252986D-03 -0.12853305D-02
 -0.12570251D-02 -0.83056966D-03  0.25140940D-18  0.24587290D-18  0.16245862D-18
 -0.11372690D-02 -0.11122242D-02 -0.73489357D-03  0.30800272D-03 -0.14165604D-18
  0.30254698D-03  0.86088712D-03  0.18205552D-17  0.43521579D-03  0.26604974D-04
  0.17084175D-18  0.74088822D-04  0.61898738D-03 -0.10473051D-02  0.42831774D-03
  0.33105386D-17  0.42731484D-02  0.35093814D-18 -0.47805530D-03  0.80183018D-03
 -0.32377488D-03 -0.15842954D-17 -0.29004509D-02 -0.62603791D-18 -0.24385032D-03
  0.22358161D-03  0.20268712D-04 -0.18724702D-17 -0.44776730D-03  0.37017631D-18
  0.24357637D-04  0.73182819D-17  0.18968156D-03  0.29724555D-03 -0.20125518D-16
 -0.94883528D-03 -0.37031847D-03 -0.18293276D-17  0.37979062D-03  0.31430190D-17
 -0.12359084D-03 -0.23268178D-17 -0.40606755D-03 -0.99142551D-03  0.66886716D-17
  0.21594147D-02  0.13621980D-02  0.29178177D-18 -0.94121202D-03  0.23901430D-17
  0.40177807D-03  0.74893174D-03  0.12696234D-02  0.19225840D-02  0.24041981D-02
  0.20697906D-02  0.79570307D-03 -0.34479116D-05 -0.31255754D-03 -0.58692770D-03
 -0.99943664D-03 -0.15656116D-02 -0.20981037D-02 -0.22567934D-02 -0.13549758D-02
  0.89108910D-03  0.36178274D-03 -0.30443174D-03 -0.41252986D-03  0.12853305D-02
  0.12570251D-02  0.83056966D-03  0.35125877D-18  0.34352340D-18  0.22698043D-18
 -0.11372690D-02 -0.11122242D-02 -0.73489357D-03 -0.30800272D-03 -0.62889813D-18
  0.30254698D-03 -0.86088712D-03  0.20387617D-17  0.43521579D-03 -0.26604974D-04
 -0.28225011D-19  0.74088822D-04  0.61898738D-03 -0.10473051D-02  0.42831774D-03
 -0.68642077D-17 -0.42731484D-02  0.28476770D-16 -0.47805530D-03  0.80183018D-03
 -0.32377488D-03  0.29408613D-17  0.29004509D-02 -0.97758629D-17 -0.24385032D-03
  0.22358161D-03  0.20268712D-04  0.17713083D-17  0.44776730D-03  0.71077513D-18
 -0.24357637D-04  0.73886095D-17  0.18968156D-03 -0.29724555D-03 -0.52484727D-17
 -0.94883528D-03  0.37031847D-03 -0.16917356D-16  0.37979062D-03  0.82224579D-17
  0.12359084D-03 -0.30127722D-17 -0.40606755D-03  0.99142551D-03  0.47691557D-17
  0.21594147D-02 -0.13621980D-02  0.42691609D-17 -0.94121202D-03 -0.40777570D-17
MO    5     MO 0.0        OCC NO =    2.0000000  ORB. ENERGY =   -1.308121
 -0.22542608D-02 -0.42016521D-02 -0.71246097D-02 -0.10783429D-01 -0.13454571D-01
 -0.11555682D-01 -0.44364509D-02  0.19844517D-04 -0.11621542D-01 -0.21796491D-01
 -0.37158238D-01 -0.58071093D-01 -0.77652116D-01 -0.82914356D-01 -0.50692212D-01
  0.33443642D-01  0.17830698D-01  0.12683587D-04 -0.24736271D-02  0.58475622D-14
  0.56701683D-14  0.38250621D-14 -0.12576940D-15 -0.12195402D-15 -0.82269459D-16
  0.91173399D-01  0.88407528D-01  0.59639196D-01  0.85849770D-14  0.35636870D-16
  0.16777078D-01  0.43288421D-13 -0.93259746D-17 -0.19092468D-02 -0.17743242D-13
  0.11688521D-16 -0.35060544D-03 -0.54558097D-02 -0.51324621D-02  0.10588272D-01
  0.39723728D-15 -0.22677758D-13 -0.73256985D-15  0.49884735D-03 -0.85376884D-03
  0.35492149D-03 -0.88414992D-16  0.26356131D-13 -0.23252003D-16  0.64682813D-03
 -0.25429370D-04 -0.62139876D-03  0.19605552D-18  0.17933707D-13  0.62761208D-17
 -0.19860412D-14 -0.15223711D-17  0.21224341D-02  0.10605935D-13  0.31404811D-18
 -0.15915136D-02 -0.46478117D-14  0.42530652D-17 -0.47757886D-02 -0.74422018D-17
 -0.18357028D-14 -0.16682785D-17 -0.53677835D-03 -0.75248196D-14 -0.15467710D-17
  0.15256203D-02  0.13031928D-13  0.65516064D-17  0.84714781D-04 -0.25776512D-18
 -0.63990319D-02 -0.11929250D-01 -0.20162535D-01 -0.30310894D-01 -0.37240435D-01
 -0.31455501D-01 -0.11863858D-01  0.58714894D-04 -0.24321448D-01 -0.45537425D-01
 -0.77531363D-01 -0.11992923D+00 -0.15794258D+00 -0.16411245D+00 -0.10428610D+00
  0.69890117D-01  0.32768745D-01  0.47436134D-02  0.75229329D-04  0.85308666D-13
  0.79982297D-13  0.56952160D-13  0.69754803D-16  0.65399562D-16  0.46568384D-16
  0.91472590D-01  0.85761368D-01  0.61067203D-01 -0.52785862D-13  0.36822353D-16
  0.16333584D-01 -0.14589644D-12 -0.15070232D-16 -0.20319288D-02  0.10150240D-13
 -0.27605279D-17  0.16074601D-04  0.12561712D-01 -0.23777796D-01  0.11216084D-01
  0.24910272D-16  0.14606392D-13  0.31673011D-16  0.16921946D-02 -0.31744881D-02
  0.14822935D-02 -0.28435346D-16 -0.20140682D-13 -0.18665879D-16 -0.18694487D-03
  0.13238584D-03  0.54559026D-04  0.16244866D-17 -0.22892839D-13  0.17189603D-17
  0.21130680D-14  0.43415280D-18 -0.38969911D-02  0.74346383D-14  0.11570079D-16
  0.15078902D-01 -0.13773842D-13 -0.12872538D-16 -0.33879289D-02  0.11969483D-16
  0.23357557D-14 -0.16908983D-17 -0.51290874D-03  0.98347676D-14 -0.42685610D-17
  0.19686339D-02 -0.16842035D-13  0.93412559D-17 -0.42990767D-03 -0.12714814D-16