 Molden2AIM, Version 4.0.0 (06/02/2016)           Time: Sat Jun 30 05:23:36 2018
GAUSSIAN             13 MOL ORBITALS    225 PRIMITIVES        3 NUCLEI
  F    1    (CENTRE  1)   0.00633436  0.00000000  0.02565870  CHARGE =  9.0
  O    2    (CENTRE  2)   0.01725887  0.00000000  2.64250986  CHARGE =  8.0
  F    3    (CENTRE  3)   2.56347963  0.00000000  3.24611296  CHARGE =  9.0
CENTRE ASSIGNMENTS    1  1  1  1  1  1  1  1  1  1  1  1  1  1  1  1  1  1  1  1
CENTRE ASSIGNMENTS    1  1  1  1  1  1  1  1  1  1  1  1  1  1  1  1  1  1  1  1
CENTRE ASSIGNMENTS    1  1  1  1  1  1  1  1  1  1  1  1  1  1  1  1  1  1  1  1
CENTRE ASSIGNMENTS    1  1  1  1  1  1  1  1  1  1  1  1  1  1  1  2  2  2  2  2
CENTRE ASSIGNMENTS    2  2  2  2  2  2  2  2  2  2  2  2  2  2  2  2  2  2  2  2
CENTRE ASSIGNMENTS    2  2  2  2  2  2  2  2  2  2  2  2  2  2  2  2  2  2  2  2
CENTRE ASSIGNMENTS    2  2  2  2  2  2  2  2  2  2  2  2  2  2  2  2  2  2  2  2
CENTRE ASSIGNMENTS    2  2  2  2  2  2  2  2  2  2  3  3  3  3  3  3  3  3  3  3
CENTRE ASSIGNMENTS    3  3  3  3  3  3  3  3  3  3  3  3  3  3  3  3  3  3  3  3
CENTRE ASSIGNMENTS    3  3  3  3  3  3  3  3  3  3  3  3  3  3  3  3  3  3  3  3
CENTRE ASSIGNMENTS    3  3  3  3  3  3  3  3  3  3  3  3  3  3  3  3  3  3  3  3
CENTRE ASSIGNMENTS    3  3  3  3  3
TYPE ASSIGNMENTS      1  1  1  1  1  1  1  1  1  1  1  1  1  1  1  1  1  1  1  2
TYPE ASSIGNMENTS      2  2  3  3  3  4  4  4  2  3  4  2  3  4  2  3  4  5  6  7
TYPE ASSIGNMENTS      8  9 10  5  6  7  8  9 10  5  6  7  8  9 10 11 12 13 17 14
TYPE ASSIGNMENTS     15 18 19 16 20 11 12 13 17 14 15 18 19 16 20  1  1  1  1  1
TYPE ASSIGNMENTS      1  1  1  1  1  1  1  1  1  1  1  1  1  1  2  2  2  3  3  3
TYPE ASSIGNMENTS      4  4  4  2  3  4  2  3  4  2  3  4  5  6  7  8  9 10  5  6
TYPE ASSIGNMENTS      7  8  9 10  5  6  7  8  9 10 11 12 13 17 14 15 18 19 16 20
TYPE ASSIGNMENTS     11 12 13 17 14 15 18 19 16 20  1  1  1  1  1  1  1  1  1  1
TYPE ASSIGNMENTS      1  1  1  1  1  1  1  1  1  2  2  2  3  3  3  4  4  4  2  3
TYPE ASSIGNMENTS      4  2  3  4  2  3  4  5  6  7  8  9 10  5  6  7  8  9 10  5
TYPE ASSIGNMENTS      6  7  8  9 10 11 12 13 17 14 15 18 19 16 20 11 12 13 17 14
TYPE ASSIGNMENTS     15 18 19 16 20
EXPONENTS  0.1950000D+05 0.2923000D+04 0.6645000D+03 0.1875000D+03 0.6062000D+02
EXPONENTS  0.2142000D+02 0.7950000D+01 0.8815000D+00 0.1950000D+05 0.2923000D+04
EXPONENTS  0.6645000D+03 0.1875000D+03 0.6062000D+02 0.2142000D+02 0.7950000D+01
EXPONENTS  0.8815000D+00 0.2257000D+01 0.3041000D+00 0.9158000D-01 0.4388000D+02
EXPONENTS  0.9926000D+01 0.2930000D+01 0.4388000D+02 0.9926000D+01 0.2930000D+01
EXPONENTS  0.4388000D+02 0.9926000D+01 0.2930000D+01 0.9132000D+00 0.9132000D+00
EXPONENTS  0.9132000D+00 0.2672000D+00 0.2672000D+00 0.2672000D+00 0.7361000D-01
EXPONENTS  0.7361000D-01 0.7361000D-01 0.3107000D+01 0.3107000D+01 0.3107000D+01
EXPONENTS  0.3107000D+01 0.3107000D+01 0.3107000D+01 0.8550000D+00 0.8550000D+00
EXPONENTS  0.8550000D+00 0.8550000D+00 0.8550000D+00 0.8550000D+00 0.2920000D+00
EXPONENTS  0.2920000D+00 0.2920000D+00 0.2920000D+00 0.2920000D+00 0.2920000D+00
EXPONENTS  0.1917000D+01 0.1917000D+01 0.1917000D+01 0.1917000D+01 0.1917000D+01
EXPONENTS  0.1917000D+01 0.1917000D+01 0.1917000D+01 0.1917000D+01 0.1917000D+01
EXPONENTS  0.7240000D+00 0.7240000D+00 0.7240000D+00 0.7240000D+00 0.7240000D+00
EXPONENTS  0.7240000D+00 0.7240000D+00 0.7240000D+00 0.7240000D+00 0.7240000D+00
EXPONENTS  0.1533000D+05 0.2299000D+04 0.5224000D+03 0.1473000D+03 0.4755000D+02
EXPONENTS  0.1676000D+02 0.6207000D+01 0.6882000D+00 0.1533000D+05 0.2299000D+04
EXPONENTS  0.5224000D+03 0.1473000D+03 0.4755000D+02 0.1676000D+02 0.6207000D+01
EXPONENTS  0.6882000D+00 0.1752000D+01 0.2384000D+00 0.7376000D-01 0.3446000D+02
EXPONENTS  0.7749000D+01 0.2280000D+01 0.3446000D+02 0.7749000D+01 0.2280000D+01
EXPONENTS  0.3446000D+02 0.7749000D+01 0.2280000D+01 0.7156000D+00 0.7156000D+00
EXPONENTS  0.7156000D+00 0.2140000D+00 0.2140000D+00 0.2140000D+00 0.5974000D-01
EXPONENTS  0.5974000D-01 0.5974000D-01 0.2314000D+01 0.2314000D+01 0.2314000D+01
EXPONENTS  0.2314000D+01 0.2314000D+01 0.2314000D+01 0.6450000D+00 0.6450000D+00
EXPONENTS  0.6450000D+00 0.6450000D+00 0.6450000D+00 0.6450000D+00 0.2140000D+00
EXPONENTS  0.2140000D+00 0.2140000D+00 0.2140000D+00 0.2140000D+00 0.2140000D+00
EXPONENTS  0.1428000D+01 0.1428000D+01 0.1428000D+01 0.1428000D+01 0.1428000D+01
EXPONENTS  0.1428000D+01 0.1428000D+01 0.1428000D+01 0.1428000D+01 0.1428000D+01
EXPONENTS  0.5000000D+00 0.5000000D+00 0.5000000D+00 0.5000000D+00 0.5000000D+00
EXPONENTS  0.5000000D+00 0.5000000D+00 0.5000000D+00 0.5000000D+00 0.5000000D+00
EXPONENTS  0.1950000D+05 0.2923000D+04 0.6645000D+03 0.1875000D+03 0.6062000D+02
EXPONENTS  0.2142000D+02 0.7950000D+01 0.8815000D+00 0.1950000D+05 0.2923000D+04
EXPONENTS  0.6645000D+03 0.1875000D+03 0.6062000D+02 0.2142000D+02 0.7950000D+01
EXPONENTS  0.8815000D+00 0.2257000D+01 0.3041000D+00 0.9158000D-01 0.4388000D+02
EXPONENTS  0.9926000D+01 0.2930000D+01 0.4388000D+02 0.9926000D+01 0.2930000D+01
EXPONENTS  0.4388000D+02 0.9926000D+01 0.2930000D+01 0.9132000D+00 0.9132000D+00
EXPONENTS  0.9132000D+00 0.2672000D+00 0.2672000D+00 0.2672000D+00 0.7361000D-01
EXPONENTS  0.7361000D-01 0.7361000D-01 0.3107000D+01 0.3107000D+01 0.3107000D+01
EXPONENTS  0.3107000D+01 0.3107000D+01 0.3107000D+01 0.8550000D+00 0.8550000D+00
EXPONENTS  0.8550000D+00 0.8550000D+00 0.8550000D+00 0.8550000D+00 0.2920000D+00
EXPONENTS  0.2920000D+00 0.2920000D+00 0.2920000D+00 0.2920000D+00 0.2920000D+00
EXPONENTS  0.1917000D+01 0.1917000D+01 0.1917000D+01 0.1917000D+01 0.1917000D+01
EXPONENTS  0.1917000D+01 0.1917000D+01 0.1917000D+01 0.1917000D+01 0.1917000D+01
EXPONENTS  0.7240000D+00 0.7240000D+00 0.7240000D+00 0.7240000D+00 0.7240000D+00
EXPONENTS  0.7240000D+00 0.7240000D+00 0.7240000D+00 0.7240000D+00 0.7240000D+00
MO    1     MO 0.0        OCC NO =    2.0000000  ORB. ENERGY =  -24.564839
  0.10455157D-01  0.19488865D-01  0.33038417D-01  0.50029900D-01  0.62562566D-01
  0.53860542D-01  0.20705959D-01 -0.89722308D-04 -0.19459304D-04 -0.36541127D-04
 -0.62223237D-04 -0.97472333D-04 -0.13062439D-03 -0.14050415D-03 -0.84358505D-04
  0.55477702D-04  0.10992484D-02 -0.12347139D-05 -0.50273199D-04 -0.62911963D-04
 -0.61526525D-04 -0.40653177D-04 -0.90393796D-16 -0.88403159D-16 -0.58411705D-16
  0.87213284D-04  0.85292687D-04  0.56356485D-04  0.67512862D-04  0.20298874D-16
  0.37158836D-04 -0.11113737D-03 -0.58334193D-17 -0.66218237D-04 -0.30294659D-05
 -0.14541978D-19 -0.26608457D-05  0.72186372D-04 -0.92789545D-04  0.20603173D-04
 -0.24595072D-18 -0.39633067D-04 -0.40745654D-17 -0.30480790D-04  0.20766336D-04
  0.97144541D-05  0.56446933D-19  0.68831671D-04  0.15302441D-17  0.34622590D-05
  0.20137364D-04 -0.23599623D-04 -0.10985292D-20 -0.87940880D-04 -0.62641551D-18
 -0.63693357D-04 -0.39160665D-18  0.64237503D-05  0.10425567D-04  0.42722156D-19
  0.21912783D-03  0.18065450D-03  0.11320978D-17 -0.23839908D-03 -0.24103456D-19
  0.77410429D-05  0.54251139D-20  0.79510029D-05 -0.17640635D-05 -0.90338650D-19
 -0.10381074D-03 -0.21459065D-04  0.74063309D-19  0.79957726D-04  0.63388378D-19
 -0.71197231D-04 -0.13270248D-03 -0.22501943D-03 -0.34057739D-03 -0.42494115D-03
 -0.36496777D-03 -0.14011823D-03  0.62675742D-06  0.60773204D-04  0.11398165D-03
  0.19431373D-03  0.30367453D-03  0.40607071D-03  0.43358885D-03  0.26508772D-03
 -0.17488878D-03 -0.35206802D-03  0.13537850D-02  0.37912799D-03 -0.13921037D-02
 -0.13498723D-02 -0.91061587D-03 -0.26256177D-18 -0.25459660D-18 -0.17174936D-18
 -0.27184716D-03 -0.26360030D-03 -0.17782320D-03  0.10167734D-02 -0.15989032D-18
  0.19398904D-03  0.90393597D-03  0.52642684D-18  0.15817443D-03  0.38796353D-04
 -0.28097692D-19  0.39249601D-05 -0.54743481D-03  0.31922959D-03  0.22820522D-03
 -0.56186893D-19 -0.38062017D-03 -0.36705708D-17  0.76789490D-03 -0.43780407D-03
 -0.33009083D-03 -0.19708460D-19  0.56291592D-03  0.11324217D-17  0.13729027D-03
 -0.68417180D-04 -0.68873092D-04  0.46807619D-20  0.15854282D-04 -0.51820909D-18
  0.63511121D-03  0.20861607D-17 -0.29925773D-03 -0.96414189D-03  0.15663578D-17
  0.11769485D-02 -0.94119174D-03 -0.78248398D-17 -0.27917531D-03 -0.50951543D-18
  0.85286089D-04 -0.87974476D-19 -0.12845696D-04 -0.18985600D-03  0.48971995D-19
  0.58938543D-04 -0.66002271D-04  0.21495143D-18 -0.20401454D-04  0.17607360D-18
  0.59433795D+00  0.11078717D+01  0.18781149D+01  0.28440194D+01  0.35564563D+01
  0.30617776D+01  0.11770591D+01 -0.51003897D-02  0.15992299D-03  0.30030705D-03
  0.51137112D-03  0.80105983D-03  0.10735144D-02  0.11547095D-02  0.69328607D-03
 -0.45593409D-03  0.64231548D-01 -0.83816532D-03 -0.58673447D-03 -0.61555721D-02
 -0.60200150D-02 -0.39776785D-02  0.13107808D-16  0.12819150D-16  0.84701546D-17
 -0.15400704D-02 -0.15061552D-02 -0.99518043D-03  0.92691625D-03 -0.17020160D-17
  0.25254383D-03  0.10398407D-02  0.17702595D-18  0.28850598D-03  0.55593103D-04
 -0.21274463D-19  0.13753404D-04 -0.10435821D-02  0.79711776D-03  0.24646430D-03
  0.56332329D-17 -0.72129869D-03  0.62559451D-17 -0.62276293D-03  0.36656531D-03
  0.25619762D-03 -0.32729227D-18 -0.50180816D-03 -0.54180627D-18 -0.21262933D-03
  0.10745990D-03  0.10516943D-03  0.87205989D-20 -0.17690097D-03  0.33049561D-20
 -0.19165567D-03 -0.55105225D-19  0.11175392D-03  0.26506872D-03 -0.15418743D-17
 -0.26805733D-03  0.30989829D-03  0.17071900D-17 -0.67204419D-04 -0.44094339D-17
  0.30279772D-03 -0.64161905D-19 -0.12620932D-03 -0.52144043D-03 -0.65653202D-19
  0.47177129D-03 -0.38695272D-03  0.25813892D-18 -0.93143335D-04  0.15700009D-18
MO    2     MO 0.0        OCC NO =    2.0000000  ORB. ENERGY =  -24.564818
  0.59433703D+00  0.11078700D+01  0.18781120D+01  0.28440150D+01  0.35564508D+01
  0.30617728D+01  0.11770573D+01 -0.51003817D-02  0.16056207D-03  0.30150712D-03
  0.51341463D-03  0.80426098D-03  0.10778043D-02  0.11593239D-02  0.69605654D-03
 -0.45775606D-03  0.64232043D-01 -0.83861824D-03 -0.58532437D-03  0.10844451D-03
  0.10605636D-03  0.70075921D-04 -0.27715025D-18 -0.27104689D-18 -0.17909214D-18
  0.63440209D-02  0.62043139D-02  0.40994525D-02 -0.38668415D-04 -0.33260517D-18
 -0.96134825D-03 -0.41401975D-04  0.66528413D-19 -0.10765400D-02 -0.69492537D-06
 -0.19073720D-20 -0.57206924D-04  0.33665550D-03  0.80028829D-03 -0.11369438D-02
 -0.71193913D-17 -0.79400264D-04  0.52333599D-17  0.32301245D-03  0.36586365D-03
 -0.68887610D-03  0.21599233D-18 -0.64702912D-04 -0.13909852D-18  0.12785324D-03
  0.10684463D-03 -0.23469787D-03 -0.92152237D-20 -0.15326794D-04 -0.29994218D-19
 -0.23142401D-04 -0.19564663D-17  0.21896794D-03  0.12748277D-03 -0.97716127D-18
 -0.41692627D-03 -0.58055563D-04  0.68465601D-17 -0.23997753D-03 -0.28032825D-17
  0.13066291D-04  0.12315826D-18 -0.36090620D-03 -0.27516755D-04  0.10033713D-18
  0.55594332D-03 -0.11682117D-04 -0.46981192D-18  0.52677529D-03  0.19257949D-18
 -0.68799840D-04 -0.12823405D-03 -0.21744246D-03 -0.32910929D-03 -0.41063230D-03
 -0.35267839D-03 -0.13540009D-03  0.60565291D-06  0.58714480D-04  0.11012046D-03
  0.18773125D-03  0.29338740D-03  0.39231486D-03  0.41890080D-03  0.25610774D-03
 -0.16896433D-03 -0.33983175D-03  0.13070584D-02  0.36605699D-03 -0.18840492D-05
 -0.18268940D-05 -0.12324119D-05 -0.77519766D-19 -0.75168096D-19 -0.50707954D-19
  0.14276384D-02  0.13843290D-02  0.93386019D-03  0.58342974D-05  0.62793747D-19
 -0.10414565D-02  0.19023003D-04  0.84595910D-20 -0.92239376D-03  0.36113282D-05
 -0.16106601D-21 -0.38837293D-04  0.29182735D-03  0.30831559D-03 -0.60014294D-03
  0.60479376D-19  0.14231301D-04  0.25484933D-18 -0.42505838D-03 -0.42266251D-03
  0.84772089D-03 -0.26810601D-19  0.74513557D-06 -0.17827513D-18 -0.66651668D-04
 -0.66063404D-04  0.13271507D-03 -0.39457240D-20 -0.77352159D-04  0.33337115D-20
  0.45789617D-06 -0.58312102D-19 -0.77902317D-03  0.87246401D-04 -0.34544059D-19
  0.13247021D-02 -0.88620089D-04  0.20948036D-18  0.10123674D-02 -0.25733959D-19
 -0.72677746D-05 -0.86478780D-20 -0.87627107D-04 -0.16482432D-04 -0.22355235D-19
  0.72480627D-04  0.38285756D-04  0.48298869D-19  0.19040070D-03  0.36009537D-19
 -0.10388391D-01 -0.19364411D-01 -0.32827438D-01 -0.49710416D-01 -0.62163050D-01
 -0.53516595D-01 -0.20573733D-01  0.89149353D-04 -0.25074379D-04 -0.47085243D-04
 -0.80178049D-04 -0.12559844D-03 -0.16831668D-03 -0.18104729D-03 -0.10870055D-03
  0.71486057D-04 -0.11533682D-02  0.28219266D-04 -0.29722340D-04  0.11666121D-03
  0.11409212D-03  0.75385486D-04 -0.23207058D-18 -0.22695996D-18 -0.14996204D-18
  0.95568270D-04  0.93463681D-04  0.61755406D-04 -0.53423555D-04  0.31555626D-19
 -0.83081565D-04  0.28451074D-05  0.68137336D-21  0.11319965D-03 -0.43295468D-07
  0.15600677D-20  0.30718161D-05  0.68588321D-04 -0.12077198D-03  0.52183659D-04
 -0.81167294D-19 -0.32975375D-04 -0.10428405D-18  0.14301730D-04  0.79110146D-05
 -0.22212745D-04 -0.25406703D-20  0.97134286D-04  0.80225244D-20  0.46545689D-05
  0.16385560D-04 -0.21040129D-04 -0.46561029D-20 -0.84700676D-04 -0.66708951D-20
  0.27967314D-04  0.65793897D-20 -0.12820664D-05  0.22531865D-03  0.24224403D-19
 -0.42458042D-04 -0.30922060D-03 -0.43962572D-19  0.46304241D-04 -0.58464903D-19
 -0.17303128D-04 -0.25093101D-20  0.20581533D-04 -0.60034184D-04  0.94364304D-20
 -0.48587082D-04  0.11194357D-03 -0.19085003D-20 -0.13157516D-04  0.46160329D-19
MO    3     MO 0.0        OCC NO =    2.0000000  ORB. ENERGY =  -19.178247
 -0.25229324D-03 -0.47028553D-03 -0.79724960D-03 -0.12072709D-02 -0.15096964D-02
 -0.12997080D-02 -0.49965521D-03  0.21650878D-05  0.18102986D-03  0.33994202D-03
  0.57886264D-03  0.90678489D-03  0.12151984D-02  0.13071098D-02  0.78478698D-03
 -0.51610894D-03 -0.23539075D-03  0.18498916D-02  0.60637474D-03  0.45979544D-04
  0.44966989D-04  0.29711591D-04 -0.14569524D-14 -0.14248676D-14 -0.94147027D-15
 -0.14146146D-02 -0.13834622D-02 -0.91411196D-03 -0.42091579D-04 -0.14659445D-16
  0.10948729D-02  0.27241980D-05  0.17724878D-17  0.13102705D-02  0.27679899D-05
 -0.11010408D-18  0.46848936D-04  0.36549417D-03  0.36678258D-03 -0.73227675D-03
 -0.36576674D-18  0.19136117D-03  0.13738715D-17 -0.49132661D-03 -0.48639341D-03
  0.97772002D-03  0.20137771D-18 -0.16099643D-03 -0.20758307D-17 -0.11460164D-03
 -0.11527577D-03  0.22987742D-03 -0.37668030D-19  0.71089871D-05  0.83960452D-18
  0.27194312D-04  0.61667563D-18  0.98053051D-03  0.32205828D-04  0.12595098D-17
 -0.13696677D-02 -0.11378876D-03 -0.31095367D-17 -0.15719238D-02  0.44815015D-18
  0.16529827D-04  0.34836521D-19  0.59891109D-04  0.48692470D-05 -0.14051880D-18
 -0.13563350D-03 -0.54458727D-04  0.36009235D-19 -0.44039833D-04 -0.81571171D-19
  0.49755226D+00  0.92737340D+00  0.15725180D+01  0.23800793D+01  0.29696440D+01
  0.25505282D+01  0.97919735D+00 -0.43800098D-02 -0.21391733D-03 -0.40120725D-03
 -0.68397041D-03 -0.10689126D-02 -0.14293398D-02 -0.15262017D-02 -0.93308980D-03
  0.61559598D-03  0.53447246D-01 -0.28836258D-02 -0.80422347D-03  0.83787667D-02
  0.81245853D-02  0.54807972D-02  0.25364252D-17  0.24594793D-17  0.16591502D-17
 -0.66509761D-02 -0.64492095D-02 -0.43505986D-02 -0.14937475D-02 -0.25232538D-18
  0.11865728D-02 -0.10520643D-02 -0.67419078D-18  0.83540117D-03 -0.47520149D-04
  0.91722570D-20  0.37741200D-04 -0.66645764D-03  0.10903571D-02 -0.42389942D-03
 -0.10928597D-16  0.10845999D-02 -0.75842716D-18 -0.32189445D-03  0.82364095D-03
 -0.50174650D-03  0.50031636D-18 -0.77188444D-03 -0.12633191D-17 -0.90809966D-04
  0.21377233D-03 -0.12296237D-03 -0.98559641D-19 -0.13800769D-03  0.70907653D-18
 -0.12690041D-03 -0.18199484D-17  0.12039177D-03  0.44123956D-03 -0.11946047D-17
 -0.78018088D-05 -0.60538330D-04  0.66544499D-17 -0.35337351D-03 -0.74585411D-18
 -0.20432319D-03  0.22118670D-19  0.32414528D-03  0.32608260D-03 -0.81689685D-19
 -0.71363286D-03  0.28688697D-03  0.15333674D-19 -0.25880298D-03  0.29525766D-18
 -0.25215843D-03 -0.47003423D-03 -0.79682358D-03 -0.12066257D-02 -0.15088897D-02
 -0.12990135D-02 -0.49938821D-03  0.21639309D-05  0.18093097D-03  0.33975631D-03
  0.57854640D-03  0.90628951D-03  0.12145346D-02  0.13063957D-02  0.78435825D-03
 -0.51582698D-03 -0.23535186D-03  0.18496980D-02  0.60627700D-03  0.13877368D-02
  0.13571763D-02  0.89674376D-03  0.10652278D-17  0.10417695D-17  0.68834119D-18
  0.27562982D-03  0.26955995D-03  0.17810965D-03 -0.10759656D-02 -0.51668215D-18
 -0.20707028D-03 -0.12753248D-02  0.13582260D-18 -0.29931351D-03 -0.44992348D-04
  0.29462676D-20 -0.13308076D-04 -0.71674547D-03  0.36604752D-03  0.35069795D-03
 -0.19472544D-17 -0.31167416D-03 -0.13786114D-17  0.93746405D-03 -0.48620074D-03
 -0.45126332D-03  0.40508827D-18  0.50347344D-03  0.89469567D-18  0.21057038D-03
 -0.11523068D-03 -0.95339697D-04 -0.12587633D-18  0.15822492D-03 -0.42656665D-18
 -0.86160588D-03 -0.65391832D-18  0.26376630D-03  0.15386341D-02  0.10515522D-17
 -0.11165584D-02  0.10461836D-02  0.91020271D-18  0.32525948D-03 -0.12589128D-18
 -0.59891654D-04  0.34447168D-19  0.15771413D-04  0.43642102D-04 -0.33152906D-19
 -0.52360560D-04  0.13603286D-03 -0.70188598D-19  0.50463200D-05 -0.31314017D-18
MO    4     MO 0.0        OCC NO =    2.0000000  ORB. ENERGY =   -1.316467
 -0.43749794D-02 -0.81551511D-02 -0.13824986D-01 -0.20935103D-01 -0.26179420D-01
 -0.22538042D-01 -0.86644463D-02  0.37544464D-04 -0.72522253D-01 -0.13618395D+00
 -0.23189778D+00 -0.36326649D+00 -0.48681984D+00 -0.52364037D+00 -0.31439299D+00
  0.20675806D+00  0.12172947D+00  0.54224431D-01 -0.42122805D-03  0.23475778D-01
  0.22958798D-01  0.15169849D-01  0.17541466D-14  0.17155170D-14  0.11335146D-14
  0.29164955D+00  0.28522689D+00  0.18846146D+00  0.63453332D-02  0.23261755D-15
  0.72304629D-01  0.19984179D-03  0.70279932D-16  0.59692154D-02 -0.88415299D-06
  0.32815840D-17 -0.26628739D-03 -0.14697785D-01 -0.16974613D-01  0.31672398D-01
  0.14292343D-14  0.62005849D-02 -0.11253997D-14 -0.60763624D-02 -0.75167035D-02
  0.13593066D-01 -0.59950914D-16  0.34267963D-02 -0.13551729D-16 -0.26871159D-03
 -0.30157066D-03  0.57028225D-03  0.65928152D-18 -0.12033355D-03  0.94546388D-17
 -0.15121359D-03 -0.14759463D-16  0.37175633D-02 -0.15816506D-02 -0.82144765D-17
 -0.46067752D-02  0.20352914D-02  0.52492866D-16 -0.65459146D-02 -0.10476544D-16
 -0.33412585D-03  0.20441127D-18  0.22815987D-02  0.12386221D-03  0.41209262D-18
 -0.31284617D-02  0.87851533D-03 -0.10253264D-17 -0.37163342D-02 -0.82567848D-17
 -0.35135689D-02 -0.65488403D-02 -0.11104663D-01 -0.16807425D-01 -0.20970759D-01
 -0.18011086D-01 -0.69148060D-02  0.30930351D-04 -0.54666514D-01 -0.10252840D+00
 -0.17478845D+00 -0.27316032D+00 -0.36526740D+00 -0.39002042D+00 -0.23845084D+00
  0.15731538D+00  0.83985847D-01  0.28551037D-01  0.81875691D-03  0.20206422D+00
  0.19593432D+00  0.13217614D+00  0.35044327D-16  0.33981209D-16  0.22923523D-16
 -0.16038272D+00 -0.15551729D+00 -0.10491105D+00  0.50770750D-01  0.35569219D-16
 -0.40309801D-01  0.20941741D-02 -0.12830171D-16 -0.16643951D-02  0.76230171D-05
  0.52946822D-18 -0.60674045D-05  0.12171914D-01 -0.26992332D-01  0.14820417D-01
 -0.69339765D-17  0.11523414D-01 -0.17597993D-16  0.44466685D-02 -0.92680473D-02
  0.48213788D-02  0.33045770D-18  0.15540561D-02 -0.22207232D-16  0.39892296D-04
  0.10795643D-05 -0.40971860D-04  0.80131855D-18 -0.35313736D-03  0.11272680D-16
  0.39681906D-02 -0.22375878D-17 -0.66655593D-02 -0.52415118D-02  0.78164144D-17
  0.15831436D-01 -0.66630601D-02 -0.11036509D-17  0.41652423D-02  0.17753709D-16
  0.78236193D-03  0.46444681D-19 -0.10123495D-02 -0.19536059D-02 -0.72261999D-18
  0.14921813D-02 -0.39347989D-03  0.58328595D-18  0.15448670D-02 -0.37049798D-17
 -0.43717573D-02 -0.81491450D-02 -0.13814804D-01 -0.20919685D-01 -0.26160140D-01
 -0.22521443D-01 -0.86580651D-02  0.37516813D-04 -0.72531602D-01 -0.13620150D+00
 -0.23192767D+00 -0.36331332D+00 -0.48688260D+00 -0.52370788D+00 -0.31443352D+00
  0.20678471D+00  0.12173977D+00  0.54228812D-01 -0.42204353D-03 -0.27873872D+00
 -0.27260038D+00 -0.18011860D+00  0.89985957D-16  0.88004300D-16  0.58148162D-16
 -0.88966657D-01 -0.87007447D-01 -0.57489499D-01 -0.68996441D-01  0.26619719D-16
 -0.22574132D-01 -0.57648445D-02 -0.23336768D-18 -0.15483811D-02  0.25912531D-03
  0.12259260D-17  0.61449140D-04  0.27913079D-01 -0.16957523D-01 -0.10955557D-01
 -0.17369682D-16  0.26019970D-01  0.43925659D-17  0.11831427D-01 -0.75264562D-02
 -0.43049709D-02 -0.43976322D-17  0.11773826D-01 -0.48156525D-18  0.55238131D-03
 -0.29759141D-03 -0.25478989D-03 -0.13048948D-17  0.26480836D-03  0.11602863D-17
 -0.27702377D-02 -0.28283794D-17  0.96755333D-03  0.60324301D-02 -0.11450588D-16
 -0.59540771D-02  0.22782830D-02  0.19935727D-16  0.30514171D-02 -0.49166503D-16
 -0.17667900D-02  0.69104206D-18  0.91674143D-03  0.36522067D-02  0.66942385D-17
 -0.34676549D-02  0.16481634D-02 -0.87673647D-17  0.71743058D-03  0.47294354D-17
MO    5     MO 0.0        OCC NO =    2.0000000  ORB. ENERGY =   -1.204601
 -0.53560258D-02 -0.99838642D-02 -0.16925104D-01 -0.25629596D-01 -0.32049900D-01
 -0.27591978D-01 -0.10607364D-01  0.45963444D-04 -0.90737016D-01 -0.17038805D+00
 -0.29014146D+00 -0.45450487D+00 -0.60909000D+00 -0.65515842D+00 -0.39335626D+00
  0.25868762D+00  0.15570465D+00  0.79139594D-01  0.16813110D-02 -0.22866343D-01
 -0.22362784D-01 -0.14776037D-01  0.92397287D-16  0.90362529D-16  0.59706343D-16
  0.17964719D+00  0.17569103D+00  0.11608649D+00 -0.56154956D-02 -0.29642849D-15
  0.47217599D-01 -0.88711850D-03  0.46511571D-16  0.83680694D-02 -0.78710729D-06
 -0.10665090D-16 -0.53991051D-04 -0.88050842D-02 -0.85913260D-02  0.17396410D-01
 -0.15047509D-14 -0.41806161D-02  0.18685045D-15 -0.51808200D-02 -0.63067173D-02
  0.11487537D-01  0.65836216D-16 -0.23153824D-02 -0.64142768D-16 -0.37799656D-03
 -0.35906111D-03  0.73705767D-03  0.43840031D-17 -0.35730873D-03  0.14256219D-16
  0.31102046D-04 -0.25499099D-16  0.24303919D-02  0.92105343D-03  0.17380732D-18
 -0.53714748D-02 -0.10143596D-02  0.76323490D-16 -0.19197009D-02  0.11037475D-16
  0.23240475D-03  0.56422415D-17  0.17182701D-02  0.18159651D-04 -0.54271120D-18
 -0.16440509D-02 -0.71537391D-03 -0.16384013D-16 -0.35107593D-02 -0.10450787D-16
 -0.66613562D-06 -0.12415911D-05 -0.21053271D-05 -0.31865106D-05 -0.39758349D-05
 -0.34147119D-05 -0.13109743D-05  0.58640685D-08 -0.12534833D-05 -0.23509391D-05
 -0.40078357D-05 -0.62634671D-05 -0.83754490D-05 -0.89430269D-05 -0.54675913D-05
  0.36071846D-05 -0.27120084D-05  0.11551109D-04  0.29285956D-05 -0.22001592D+00
 -0.21334143D+00 -0.14391887D+00  0.87210126D-16  0.84564487D-16  0.57046703D-16
 -0.27706345D+00 -0.26865835D+00 -0.18123534D+00 -0.51931113D-01  0.28953797D-17
 -0.65407976D-01  0.18322471D-02  0.46177360D-17  0.23042057D-02  0.88700572D-04
 -0.12945150D-17  0.11128876D-03 -0.43558960D-01 -0.33201086D-05  0.43562280D-01
  0.65893028D-17 -0.20302745D-01  0.11425546D-18 -0.98374804D-02  0.19541341D-05
  0.98355263D-02 -0.74186985D-17 -0.45694647D-02 -0.51920265D-18  0.11415159D-02
 -0.61189123D-06 -0.11409040D-02  0.28344002D-18  0.53327365D-03 -0.78234451D-18
 -0.52225514D-02 -0.19873279D-16 -0.41703328D-02  0.86000710D-02 -0.85625835D-17
  0.16718412D-02  0.70675834D-02  0.68182421D-16  0.10839157D-01  0.11091605D-16
 -0.47899215D-03  0.22544209D-17 -0.32685147D-03  0.49918054D-03 -0.19859925D-17
  0.35326044D-03  0.93779589D-03 -0.47772700D-17  0.62729396D-03  0.92161499D-18
  0.53531023D-02  0.99784146D-02  0.16915866D-01  0.25615606D-01  0.32032406D-01
  0.27576917D-01  0.10601574D-01 -0.45938355D-04  0.90735935D-01  0.17038602D+00
  0.29013800D+00  0.45449946D+00  0.60908275D+00  0.65515062D+00  0.39335157D+00
 -0.25868454D+00 -0.15569664D+00 -0.79144067D-01 -0.16854617D-02  0.18009613D+00
  0.17613008D+00  0.11637659D+00 -0.99449602D-16 -0.97259539D-16 -0.64263490D-16
  0.18434042D-01  0.18028091D-01  0.11911922D-01  0.47261876D-01 -0.26597986D-16
  0.52365023D-02  0.83543437D-02  0.14658166D-17  0.10281954D-02 -0.51984463D-04
 -0.72178822D-18 -0.12952587D-04 -0.16956128D-01  0.85617067D-02  0.83944214D-02
  0.21023832D-16 -0.78141414D-02 -0.13764999D-16 -0.11147558D-01  0.63187119D-02
  0.48288466D-02  0.34297264D-17 -0.52834727D-02  0.84269101D-18 -0.76000113D-03
  0.35538914D-03  0.40461199D-03 -0.91801394D-18 -0.16937871D-03 -0.35049241D-17
  0.21873679D-02 -0.16126671D-17 -0.11372581D-02 -0.20711053D-02  0.39341601D-18
  0.29817329D-02 -0.44909985D-02  0.44445852D-17  0.43004121D-03  0.45176676D-16
  0.16615245D-02 -0.10599927D-17 -0.15678466D-03 -0.34294712D-02  0.26469825D-17
  0.12395548D-02 -0.15551024D-02  0.53299564D-18 -0.76920083D-03  0.54750051D-18
MO    6     MO 0.0        OCC NO =    2.0000000  ORB. ENERGY =   -0.910919
  0.25318298D-02  0.47194404D-02  0.80006118D-02  0.12115284D-01  0.15150205D-01
  0.13042916D-01  0.50141729D-02 -0.21727232D-04  0.59213000D-01  0.11119153D+00
  0.18933999D+00  0.29659998D+00  0.39747887D+00  0.42754211D+00  0.25669572D+00
 -0.16881391D+00 -0.10590729D+00 -0.68380520D-01 -0.45469254D-02 -0.14260423D-01
 -0.13946382D-01 -0.92149645D-02  0.18486989D-14  0.18079872D-14  0.11946136D-14
  0.50463768D+00  0.49352463D+00  0.32609259D+00 -0.30997784D-02  0.64917785D-15
  0.11002771D+00 -0.14537184D-02  0.10970695D-15  0.31897807D-02  0.25992921D-04
  0.91122992D-17 -0.33314652D-03 -0.18065623D-01 -0.17040952D-01  0.35106575D-01
 -0.14773562D-15 -0.20935039D-02  0.17264531D-14 -0.32670830D-02 -0.17559833D-02
  0.50230664D-02  0.13108857D-16 -0.42059197D-03 -0.68817527D-16  0.15019593D-03
  0.16872790D-03 -0.31892383D-03  0.62138532D-17 -0.54934424D-03  0.28441940D-16
 -0.32178863D-03  0.13145126D-16  0.75672268D-02  0.81084807D-03 -0.30410370D-16
 -0.10829241D-01  0.15451782D-03 -0.90250079D-17 -0.11872439D-01 -0.49123091D-16
 -0.98544846D-04 -0.77534116D-17  0.47501424D-03 -0.26670434D-03  0.35519112D-17
 -0.94909682D-03  0.56233888D-03  0.19708324D-16 -0.47594589D-03 -0.47693813D-17
 -0.30026112D-02 -0.55964810D-02 -0.94897774D-02 -0.14363220D-01 -0.17921105D-01
 -0.15391839D-01 -0.59092264D-02  0.26432332D-04 -0.89180966D-01 -0.16726111D+00
 -0.28514353D+00 -0.44562383D+00 -0.59588397D+00 -0.63626515D+00 -0.38900004D+00
  0.25663860D+00  0.14696196D+00  0.88581498D-01  0.45397139D-02 -0.22702354D-02
 -0.22013647D-02 -0.14850276D-02  0.52259307D-15  0.50673949D-15  0.34184347D-15
  0.18639778D-02  0.18074315D-02  0.12192826D-02  0.84333286D-02  0.13822985D-15
 -0.66619846D-02  0.57866975D-02  0.71332298D-17 -0.45988180D-02  0.13198538D-03
 -0.49200266D-18 -0.10490920D-03 -0.42081844D-03  0.18428475D-02 -0.14220291D-02
  0.37226863D-16 -0.41460961D-02 -0.73196426D-16  0.27568496D-02 -0.65472190D-02
  0.37903694D-02 -0.94842785D-17  0.45086987D-02 -0.37337667D-16  0.48141096D-03
 -0.90911747D-03  0.42770652D-03  0.83557161D-17 -0.23927008D-03  0.57610642D-17
 -0.97078400D-03 -0.29827427D-16  0.12944227D-03  0.58448330D-02 -0.81372864D-17
  0.42365676D-02 -0.29324810D-02  0.97619568D-16 -0.46248944D-02  0.20809084D-16
  0.90278030D-03  0.56968815D-18 -0.13227225D-02 -0.17705148D-02 -0.28625832D-17
  0.25679077D-02 -0.93782608D-03  0.11535187D-17  0.14002598D-02 -0.16010227D-16
  0.25311326D-02  0.47181408D-02  0.79984086D-02  0.12111948D-01  0.15146033D-01
  0.13039324D-01  0.50127921D-02 -0.21721249D-04  0.59211915D-01  0.11118949D+00
  0.18933652D+00  0.29659454D+00  0.39747158D+00  0.42753428D+00  0.25669102D+00
 -0.16881081D+00 -0.10589964D+00 -0.68382764D-01 -0.45469213D-02 -0.49484309D+00
 -0.48394573D+00 -0.31976341D+00  0.99879669D-16  0.97680134D-16  0.64541395D-16
 -0.10047303D+00 -0.98260425D-01 -0.64924817D-01 -0.10787246D+00  0.33016801D-16
 -0.21920873D-01 -0.34354983D-02 -0.17337534D-19  0.69537717D-03  0.33041265D-03
  0.10843292D-17  0.50211255D-04  0.32865524D-01 -0.17054658D-01 -0.15810866D-01
  0.11304056D-17  0.21605390D-01 -0.23216379D-16  0.46789606D-02 -0.17515050D-02
 -0.29274556D-02 -0.11768108D-16  0.32763131D-02 -0.29065380D-17 -0.17429008D-03
  0.16808312D-03  0.62069595D-05  0.58139596D-18 -0.70353292D-03 -0.37560911D-17
 -0.64336584D-02 -0.18635178D-16  0.25317176D-02  0.11756412D-01 -0.80805026D-17
 -0.95072295D-02  0.75445633D-02  0.63986038D-16  0.19120769D-02  0.33330741D-16
 -0.26796210D-03  0.14211831D-17  0.25495721D-03  0.40805479D-03  0.17713492D-16
 -0.11313763D-02  0.39583152D-03 -0.21977041D-16  0.36650467D-03 -0.10581012D-17
MO    7     MO 0.0        OCC NO =    2.0000000  ORB. ENERGY =   -0.595059
  0.33401641D-03  0.62262106D-03  0.10554958D-02  0.15983317D-02  0.19987194D-02
  0.17207112D-02  0.66150420D-03 -0.28664060D-05  0.24615056D-01  0.46222716D-01
  0.78709313D-01  0.12329767D+00  0.16523339D+00  0.17773079D+00  0.10670933D+00
 -0.70176545D-01 -0.45327179D-01 -0.32768927D-01 -0.18720652D-02 -0.31259425D+00
 -0.30571035D+00 -0.20199576D+00  0.83915624D-14  0.82067647D-14  0.54225565D-14
  0.13802500D+01  0.13498544D+01  0.89190586D+00 -0.70953106D-01  0.17479404D-14
  0.31400413D+00 -0.93757021D-02  0.39505784D-15  0.39109440D-01 -0.15374361D-04
 -0.36126082D-18  0.21553805D-03 -0.22245866D-01 -0.21370487D-01  0.43616353D-01
  0.63105145D-15 -0.21969647D-01  0.59060280D-15 -0.57466358D-02 -0.56962792D-02
  0.11442915D-01 -0.26685560D-16 -0.11410972D-01  0.33344710D-15 -0.89646305D-03
 -0.12143666D-02  0.21108297D-02 -0.31208005D-16 -0.78400201D-03 -0.19510926D-16
  0.14938663D-02  0.16451061D-15  0.11121271D-01  0.12765598D-02 -0.58332124D-16
 -0.15618915D-01 -0.57581588D-02 -0.43519970D-15 -0.17744898D-01 -0.10334133D-14
  0.86565729D-03 -0.14315844D-16  0.17373873D-02  0.10589103D-02  0.24862121D-16
 -0.23022694D-02 -0.36558822D-02  0.18085410D-16 -0.29098926D-02 -0.42230675D-16
  0.33854136D-06  0.63099754D-06  0.10699628D-05  0.16194385D-05  0.20205864D-05
  0.17354142D-05  0.66625927D-06 -0.29802186D-08 -0.49169024D-05 -0.92217723D-05
 -0.15721100D-04 -0.24569019D-04 -0.32853460D-04 -0.35079836D-04 -0.21447124D-04
  0.14149510D-04  0.22514544D-05  0.15689214D-04  0.34443705D-06 -0.69270020D+00
 -0.67168619D+00 -0.45311553D+00  0.31604304D-14  0.30645544D-14  0.20673303D-14
 -0.87199931D+00 -0.84554601D+00 -0.57040034D+00 -0.16784010D+00  0.66337342D-15