 Molden2AIM, Version 4.0.0 (06/02/2016)           Time: Sat Jun 30 05:03:18 2018
GAUSSIAN             11 MOL ORBITALS    225 PRIMITIVES        3 NUCLEI
  C    1    (CENTRE  1)   0.00000000  0.00000000  0.00285538  CHARGE =  6.0
  F    2    (CENTRE  2)   0.00000000  0.00000000 -2.39115739  CHARGE =  9.0
  N    3    (CENTRE  3)   0.00000000  0.00000000  2.19366023  CHARGE =  7.0
CENTRE ASSIGNMENTS    1  1  1  1  1  1  1  1  1  1  1  1  1  1  1  1  1  1  1  1
CENTRE ASSIGNMENTS    1  1  1  1  1  1  1  1  1  1  1  1  1  1  1  1  1  1  1  1
CENTRE ASSIGNMENTS    1  1  1  1  1  1  1  1  1  1  1  1  1  1  1  1  1  1  1  1
CENTRE ASSIGNMENTS    1  1  1  1  1  1  1  1  1  1  1  1  1  1  1  2  2  2  2  2
CENTRE ASSIGNMENTS    2  2  2  2  2  2  2  2  2  2  2  2  2  2  2  2  2  2  2  2
CENTRE ASSIGNMENTS    2  2  2  2  2  2  2  2  2  2  2  2  2  2  2  2  2  2  2  2
CENTRE ASSIGNMENTS    2  2  2  2  2  2  2  2  2  2  2  2  2  2  2  2  2  2  2  2
CENTRE ASSIGNMENTS    2  2  2  2  2  2  2  2  2  2  3  3  3  3  3  3  3  3  3  3
CENTRE ASSIGNMENTS    3  3  3  3  3  3  3  3  3  3  3  3  3  3  3  3  3  3  3  3
CENTRE ASSIGNMENTS    3  3  3  3  3  3  3  3  3  3  3  3  3  3  3  3  3  3  3  3
CENTRE ASSIGNMENTS    3  3  3  3  3  3  3  3  3  3  3  3  3  3  3  3  3  3  3  3
CENTRE ASSIGNMENTS    3  3  3  3  3
TYPE ASSIGNMENTS      1  1  1  1  1  1  1  1  1  1  1  1  1  1  1  1  1  1  1  2
TYPE ASSIGNMENTS      2  2  3  3  3  4  4  4  2  3  4  2  3  4  2  3  4  5  6  7
TYPE ASSIGNMENTS      8  9 10  5  6  7  8  9 10  5  6  7  8  9 10 11 12 13 17 14
TYPE ASSIGNMENTS     15 18 19 16 20 11 12 13 17 14 15 18 19 16 20  1  1  1  1  1
TYPE ASSIGNMENTS      1  1  1  1  1  1  1  1  1  1  1  1  1  1  2  2  2  3  3  3
TYPE ASSIGNMENTS      4  4  4  2  3  4  2  3  4  2  3  4  5  6  7  8  9 10  5  6
TYPE ASSIGNMENTS      7  8  9 10  5  6  7  8  9 10 11 12 13 17 14 15 18 19 16 20
TYPE ASSIGNMENTS     11 12 13 17 14 15 18 19 16 20  1  1  1  1  1  1  1  1  1  1
TYPE ASSIGNMENTS      1  1  1  1  1  1  1  1  1  2  2  2  3  3  3  4  4  4  2  3
TYPE ASSIGNMENTS      4  2  3  4  2  3  4  5  6  7  8  9 10  5  6  7  8  9 10  5
TYPE ASSIGNMENTS      6  7  8  9 10 11 12 13 17 14 15 18 19 16 20 11 12 13 17 14
TYPE ASSIGNMENTS     15 18 19 16 20
EXPONENTS  0.8236000D+04 0.1235000D+04 0.2808000D+03 0.7927000D+02 0.2559000D+02
EXPONENTS  0.8997000D+01 0.3319000D+01 0.3643000D+00 0.8236000D+04 0.1235000D+04
EXPONENTS  0.2808000D+03 0.7927000D+02 0.2559000D+02 0.8997000D+01 0.3319000D+01
EXPONENTS  0.3643000D+00 0.9059000D+00 0.1285000D+00 0.4402000D-01 0.1871000D+02
EXPONENTS  0.4133000D+01 0.1200000D+01 0.1871000D+02 0.4133000D+01 0.1200000D+01
EXPONENTS  0.1871000D+02 0.4133000D+01 0.1200000D+01 0.3827000D+00 0.3827000D+00
EXPONENTS  0.3827000D+00 0.1209000D+00 0.1209000D+00 0.1209000D+00 0.3569000D-01
EXPONENTS  0.3569000D-01 0.3569000D-01 0.1097000D+01 0.1097000D+01 0.1097000D+01
EXPONENTS  0.1097000D+01 0.1097000D+01 0.1097000D+01 0.3180000D+00 0.3180000D+00
EXPONENTS  0.3180000D+00 0.3180000D+00 0.3180000D+00 0.3180000D+00 0.1000000D+00
EXPONENTS  0.1000000D+00 0.1000000D+00 0.1000000D+00 0.1000000D+00 0.1000000D+00
EXPONENTS  0.7610000D+00 0.7610000D+00 0.7610000D+00 0.7610000D+00 0.7610000D+00
EXPONENTS  0.7610000D+00 0.7610000D+00 0.7610000D+00 0.7610000D+00 0.7610000D+00
EXPONENTS  0.2680000D+00 0.2680000D+00 0.2680000D+00 0.2680000D+00 0.2680000D+00
EXPONENTS  0.2680000D+00 0.2680000D+00 0.2680000D+00 0.2680000D+00 0.2680000D+00
EXPONENTS  0.1950000D+05 0.2923000D+04 0.6645000D+03 0.1875000D+03 0.6062000D+02
EXPONENTS  0.2142000D+02 0.7950000D+01 0.8815000D+00 0.1950000D+05 0.2923000D+04
EXPONENTS  0.6645000D+03 0.1875000D+03 0.6062000D+02 0.2142000D+02 0.7950000D+01
EXPONENTS  0.8815000D+00 0.2257000D+01 0.3041000D+00 0.9158000D-01 0.4388000D+02
EXPONENTS  0.9926000D+01 0.2930000D+01 0.4388000D+02 0.9926000D+01 0.2930000D+01
EXPONENTS  0.4388000D+02 0.9926000D+01 0.2930000D+01 0.9132000D+00 0.9132000D+00
EXPONENTS  0.9132000D+00 0.2672000D+00 0.2672000D+00 0.2672000D+00 0.7361000D-01
EXPONENTS  0.7361000D-01 0.7361000D-01 0.3107000D+01 0.3107000D+01 0.3107000D+01
EXPONENTS  0.3107000D+01 0.3107000D+01 0.3107000D+01 0.8550000D+00 0.8550000D+00
EXPONENTS  0.8550000D+00 0.8550000D+00 0.8550000D+00 0.8550000D+00 0.2920000D+00
EXPONENTS  0.2920000D+00 0.2920000D+00 0.2920000D+00 0.2920000D+00 0.2920000D+00
EXPONENTS  0.1917000D+01 0.1917000D+01 0.1917000D+01 0.1917000D+01 0.1917000D+01
EXPONENTS  0.1917000D+01 0.1917000D+01 0.1917000D+01 0.1917000D+01 0.1917000D+01
EXPONENTS  0.7240000D+00 0.7240000D+00 0.7240000D+00 0.7240000D+00 0.7240000D+00
EXPONENTS  0.7240000D+00 0.7240000D+00 0.7240000D+00 0.7240000D+00 0.7240000D+00
EXPONENTS  0.1142000D+05 0.1712000D+04 0.3893000D+03 0.1100000D+03 0.3557000D+02
EXPONENTS  0.1254000D+02 0.4644000D+01 0.5118000D+00 0.1142000D+05 0.1712000D+04
EXPONENTS  0.3893000D+03 0.1100000D+03 0.3557000D+02 0.1254000D+02 0.4644000D+01
EXPONENTS  0.5118000D+00 0.1293000D+01 0.1787000D+00 0.5760000D-01 0.2663000D+02
EXPONENTS  0.5948000D+01 0.1742000D+01 0.2663000D+02 0.5948000D+01 0.1742000D+01
EXPONENTS  0.2663000D+02 0.5948000D+01 0.1742000D+01 0.5550000D+00 0.5550000D+00
EXPONENTS  0.5550000D+00 0.1725000D+00 0.1725000D+00 0.1725000D+00 0.4910000D-01
EXPONENTS  0.4910000D-01 0.4910000D-01 0.1654000D+01 0.1654000D+01 0.1654000D+01
EXPONENTS  0.1654000D+01 0.1654000D+01 0.1654000D+01 0.4690000D+00 0.4690000D+00
EXPONENTS  0.4690000D+00 0.4690000D+00 0.4690000D+00 0.4690000D+00 0.1510000D+00
EXPONENTS  0.1510000D+00 0.1510000D+00 0.1510000D+00 0.1510000D+00 0.1510000D+00
EXPONENTS  0.1093000D+01 0.1093000D+01 0.1093000D+01 0.1093000D+01 0.1093000D+01
EXPONENTS  0.1093000D+01 0.1093000D+01 0.1093000D+01 0.1093000D+01 0.1093000D+01
EXPONENTS  0.3640000D+00 0.3640000D+00 0.3640000D+00 0.3640000D+00 0.3640000D+00
EXPONENTS  0.3640000D+00 0.3640000D+00 0.3640000D+00 0.3640000D+00 0.3640000D+00
MO    1     MO 0.0        OCC NO =    2.0000000  ORB. ENERGY =  -24.613612
  0.39850352D-03  0.74290117D-03  0.12556338D-02  0.18876290D-02  0.23191703D-02
  0.19589100D-02  0.73882880D-03 -0.36565049D-05 -0.28790316D-03 -0.53904555D-03
 -0.91777117D-03 -0.14196525D-02 -0.18696323D-02 -0.19426678D-02 -0.12344781D-02
  0.82731855D-03 -0.10149627D-03  0.94895376D-04 -0.55450382D-05  0.35634992D-15
  0.33410070D-15  0.23789960D-15  0.72862850D-18  0.68313553D-18  0.48643320D-18
  0.28259226D-03  0.26494820D-03  0.18865890D-03  0.36651976D-17 -0.26055699D-18
 -0.28516194D-02  0.33028482D-18 -0.69546684D-20 -0.18467579D-03 -0.63124167D-20
  0.49905375D-20 -0.80091929D-05 -0.55522850D-03 -0.55522850D-03  0.11104570D-02
 -0.27630610D-19  0.82356436D-18 -0.31295601D-18 -0.10565625D-03 -0.10565625D-03
  0.21131251D-03  0.10640944D-19 -0.15158293D-17  0.49393527D-18  0.20377292D-05
  0.20377292D-05 -0.40754583D-05  0.48242373D-20 -0.92710448D-19  0.52750511D-19
 -0.10519046D-18 -0.35813397D-19 -0.50968961D-03 -0.10879957D-18 -0.34834883D-19
  0.76453441D-03  0.42437095D-18  0.14227507D-18  0.76453441D-03  0.20276773D-18
 -0.14449318D-18  0.18498743D-19  0.17858586D-04 -0.14585441D-18  0.15569224D-19
 -0.26787879D-04  0.57933394D-18 -0.71065454D-19 -0.26787879D-04 -0.97460537D-20
  0.59435903D+00  0.11079110D+01  0.18781815D+01  0.28441203D+01  0.35565824D+01
  0.30618862D+01  0.11771008D+01 -0.51005706D-02  0.19781362D-03  0.37145894D-03
  0.63253051D-03  0.99085531D-03  0.13278627D-02  0.14282953D-02  0.85754665D-03
 -0.56395876D-03  0.64407695D-01 -0.10731005D-02 -0.45977603D-03  0.14994078D-16
  0.14663881D-16  0.96890462D-17  0.87507504D-17  0.85580428D-17  0.56546607D-17
  0.88634766D-02  0.86682865D-02  0.57275034D-02 -0.53267042D-18 -0.94079262D-18
 -0.19072079D-02 -0.19182385D-17  0.49358530D-18 -0.13141589D-02 -0.83881367D-19
  0.20411047D-19 -0.41088077D-04 -0.41458831D-03 -0.41458831D-03  0.82917661D-03
 -0.21204455D-16  0.21034899D-17 -0.67025800D-17  0.58334199D-03  0.58334199D-03
 -0.11666840D-02  0.13644814D-17  0.11691566D-18  0.45528913D-19  0.16322354D-03
  0.16322354D-03 -0.32644708D-03 -0.10185441D-18 -0.14439290D-17  0.29546981D-18
 -0.58254193D-18  0.13329635D-17  0.15547550D-03 -0.33997521D-17 -0.19722370D-17
 -0.23321325D-03  0.51473779D-17 -0.20266534D-17 -0.23321325D-03 -0.10218366D-17
  0.24635442D-18 -0.87188373D-19 -0.42401446D-03  0.35277487D-18  0.76264494D-19
  0.63602169D-03 -0.10918381D-17  0.18530063D-18  0.63602169D-03  0.10409970D-18
  0.55652460D-04  0.10370016D-03  0.17538298D-03  0.26411704D-03  0.32699403D-03
  0.27825716D-03  0.10588198D-03 -0.49589050D-06 -0.41915438D-04 -0.78591839D-04
 -0.13370810D-03 -0.20763456D-03 -0.27554314D-03 -0.29038465D-03 -0.18005701D-03
  0.11977399D-03  0.64316547D-04  0.77790113D-03  0.13386666D-03  0.77781090D-18
  0.74707807D-18  0.52390271D-18 -0.63729134D-19 -0.61211071D-19 -0.42925428D-19
  0.66362543D-04  0.63740430D-04  0.44699189D-04 -0.89286374D-18  0.11024707D-19
 -0.79955628D-03  0.22222650D-19 -0.20928042D-18 -0.39390490D-03  0.19183501D-19
 -0.17505294D-19 -0.94965534D-05 -0.17554371D-04 -0.17554371D-04  0.35108743D-04
 -0.27096527D-19  0.92389923D-19 -0.49864793D-19 -0.12754241D-03 -0.12754241D-03
  0.25508481D-03  0.89033850D-22  0.24948026D-19  0.17192518D-18 -0.20463382D-04
 -0.20463382D-04  0.40926764D-04 -0.53233116D-20 -0.29482209D-19  0.55630972D-19
 -0.66560699D-19  0.66410104D-19  0.89808991D-04 -0.65090039D-19  0.46842201D-19
 -0.13471349D-03  0.26477214D-18 -0.24607251D-18 -0.13471349D-03  0.87767533D-19
 -0.13036526D-19  0.68027560D-20 -0.13361934D-04 -0.11894136D-19  0.10401884D-19
  0.20042902D-04  0.51003715D-19 -0.30810153D-19  0.20042902D-04  0.12733417D-19
MO    2     MO 0.0        OCC NO =    2.0000000  ORB. ENERGY =  -14.187013
 -0.26660586D-03 -0.49701393D-03 -0.84004110D-03 -0.12628569D-02 -0.15515657D-02
 -0.13105452D-02 -0.49428945D-03  0.24462661D-05  0.20054575D-03  0.37548492D-03
  0.63929520D-03  0.98889247D-03  0.13023366D-02  0.13532111D-02  0.85990494D-03
 -0.57628829D-03  0.13762285D-02 -0.20005903D-02 -0.22432909D-03  0.48417980D-16
  0.45394933D-16  0.32323897D-16 -0.23736886D-15 -0.22254840D-15 -0.15846772D-15
  0.37421543D-02  0.35085075D-02  0.24982664D-02  0.24271235D-16 -0.44359621D-17
 -0.95966544D-02 -0.17349892D-17 -0.72553029D-18 -0.21855003D-02  0.30585825D-20
 -0.90233789D-20 -0.12805206D-04  0.10052446D-02  0.10052446D-02 -0.20104893D-02
  0.10002674D-18 -0.32676193D-17  0.20901521D-17  0.79399559D-03  0.79399559D-03
 -0.15879912D-02 -0.10046391D-18  0.34850619D-17 -0.44861985D-18  0.58168697D-04
  0.58168697D-04 -0.11633739D-03 -0.17033940D-20  0.25447672D-18 -0.21662457D-18
  0.10360405D-17  0.39773561D-18 -0.34311248D-02  0.10081261D-17  0.39789553D-18
  0.51466872D-02 -0.41162477D-17 -0.15911023D-17  0.51466872D-02  0.15245768D-18
  0.30899430D-18  0.13909787D-18 -0.26902415D-03  0.31144325D-18  0.13848888D-18
  0.40353622D-03 -0.12384261D-17 -0.55578250D-18  0.40353622D-03 -0.13515657D-18
 -0.46006702D-03 -0.85758487D-03 -0.14538172D-02 -0.22015077D-02 -0.27529931D-02
 -0.23700706D-02 -0.91114167D-03  0.39481260D-05  0.29900078D-03  0.56147051D-03
  0.95608744D-03  0.14977053D-02  0.20071013D-02  0.21589081D-02  0.12962056D-02
 -0.85243933D-03  0.81505285D-03 -0.26598285D-02 -0.90416490D-03  0.49693658D-17
  0.48599312D-17  0.32111620D-17  0.11400423D-17  0.11149364D-17  0.73668565D-18
  0.29984240D-02  0.29323931D-02  0.19375561D-02 -0.15155207D-17  0.60227663D-18
 -0.40493202D-02  0.55556922D-17  0.12056467D-17 -0.14008499D-02  0.31067093D-18
 -0.59529418D-19 -0.14306176D-03 -0.46406937D-03 -0.46406937D-03  0.92813874D-03
 -0.98157088D-20  0.58037116D-17 -0.45671238D-17  0.12109187D-02  0.12109187D-02
 -0.24218373D-02  0.30990754D-19 -0.29319723D-17  0.22924478D-17  0.13710872D-03
  0.13710872D-03 -0.27421744D-03 -0.64190351D-19  0.46302457D-17  0.67000502D-18
  0.90590100D-18  0.15212248D-17 -0.49087210D-03  0.90296004D-18  0.14164541D-17
  0.73630815D-03 -0.36206630D-17 -0.59801286D-17  0.73630815D-03  0.44078720D-18
 -0.73505024D-18 -0.56451458D-18 -0.54279136D-03 -0.73683209D-18 -0.55446310D-18
  0.81418704D-03  0.29419828D-17  0.22480069D-17  0.81418704D-03 -0.14078551D-18
  0.41376065D+00  0.77098205D+00  0.13039239D+01  0.19636372D+01  0.24311102D+01
  0.20687651D+01  0.78720328D+00 -0.36868088D-02 -0.24478231D-02 -0.45896912D-02
 -0.78084303D-02 -0.12125668D-01 -0.16091466D-01 -0.16958197D-01 -0.10515164D-01
  0.69946910D-02  0.42042137D-01  0.54078069D-02  0.42080033D-03  0.10289493D-16
  0.98829351D-17  0.69305963D-17  0.70738227D-17  0.67943222D-17  0.47646477D-17
 -0.63379796D-02 -0.60875536D-02 -0.42690128D-02  0.11884690D-17 -0.32314670D-18
 -0.75889700D-02  0.74086804D-18  0.20193994D-17 -0.66771013D-04  0.12394608D-19
  0.75600475D-19  0.33802242D-05 -0.37715858D-02 -0.37715858D-02  0.75431715D-02
 -0.43179570D-17 -0.11169802D-16  0.55961171D-17 -0.31424392D-03 -0.31424392D-03
  0.62848784D-03  0.43041226D-18 -0.96368829D-18 -0.15392510D-17  0.93454281D-04
  0.93454281D-04 -0.18690856D-03  0.12055184D-19 -0.36743542D-18 -0.53898639D-18
 -0.18588455D-18 -0.37533802D-19 -0.13204687D-02  0.11650949D-18  0.27239245D-18
  0.19807031D-02  0.44114415D-18 -0.15979104D-18  0.19807031D-02  0.14481454D-17
 -0.79756534D-20 -0.44145965D-19  0.14374443D-03 -0.25925644D-19 -0.55075322D-19
 -0.21561665D-03  0.49852604D-19  0.18751322D-18 -0.21561665D-03 -0.19346067D-18
MO    3     MO 0.0        OCC NO =    2.0000000  ORB. ENERGY =  -10.183699
  0.32987260D+00  0.61495753D+00  0.10393866D+01  0.15625385D+01  0.19197590D+01
  0.16215434D+01  0.61158651D+00 -0.30267758D-02 -0.31117042D-02 -0.58260920D-02
 -0.99194201D-02 -0.15343835D-01 -0.20207290D-01 -0.20996669D-01 -0.13342441D-01
  0.89417934D-02  0.35006264D-01  0.45135345D-02  0.70982163D-03  0.19776436D-16
  0.18541666D-16  0.13202770D-16  0.81176029D-18  0.76107687D-18  0.54193207D-18
 -0.58546906D-02 -0.54891446D-02 -0.39085979D-02 -0.60774384D-17  0.67581173D-18
  0.71878622D-02 -0.14326147D-17 -0.19324133D-18  0.17818160D-02 -0.96119653D-20
 -0.11201637D-19  0.30347722D-04 -0.44332563D-02 -0.44332563D-02  0.88665125D-02
  0.88464121D-18 -0.10932023D-17  0.80848736D-17  0.18218856D-03  0.18218856D-03
 -0.36437712D-03 -0.81650399D-20 -0.46757476D-18 -0.10590416D-17  0.28531441D-04
  0.28531441D-04 -0.57062881D-04  0.51091092D-21 -0.15804538D-18 -0.25056018D-19
  0.84472447D-18 -0.15663040D-18  0.12521418D-02  0.10141635D-18 -0.17313412D-18
 -0.18782127D-02 -0.26355898D-17  0.64302532D-18 -0.18782127D-02  0.18561802D-18
  0.27167741D-18 -0.27601166D-19  0.15498956D-03  0.29932045D-18 -0.19338123D-19
 -0.23248434D-03 -0.11143527D-17  0.10214162D-18 -0.23248434D-03  0.15390839D-20
  0.84483501D-03  0.15748091D-02  0.26696885D-02  0.40426952D-02  0.50554046D-02
  0.43522324D-02  0.16731570D-02 -0.72500633D-05 -0.63348489D-03 -0.11895724D-02
 -0.20256367D-02 -0.31731479D-02 -0.42523915D-02 -0.45740204D-02 -0.27462358D-02
  0.18060402D-02  0.11855262D-03  0.15866181D-02  0.42673707D-03 -0.62796474D-18
 -0.61413580D-18 -0.40578549D-18  0.26891040D-18  0.26298850D-18  0.17376762D-18
  0.41818300D-03  0.40897384D-03  0.27022631D-03  0.35217621D-18 -0.27795705D-18
  0.26068472D-02  0.23234490D-17 -0.48798139D-18 -0.88254731D-03  0.17677689D-19
  0.18546100D-19 -0.30155395D-05 -0.19506010D-02 -0.19506010D-02  0.39012019D-02
  0.14366149D-18 -0.22550839D-17  0.37278268D-18  0.61259962D-03  0.61259962D-03
 -0.12251992D-02 -0.42203607D-19  0.17164389D-17 -0.47825026D-18  0.30390341D-03
  0.30390341D-03 -0.60780682D-03  0.12937273D-19  0.14898137D-17 -0.27451041D-18
  0.59957500D-18  0.48629565D-18  0.18471372D-02  0.28542343D-18  0.99807625D-18
 -0.27707058D-02 -0.20841484D-17 -0.24569632D-17 -0.27707058D-02 -0.65265801D-18
 -0.51688398D-18 -0.84489435D-19 -0.16339251D-02 -0.40409142D-18 -0.16547137D-18
  0.24508876D-02  0.19547434D-17  0.41893968D-18  0.24508876D-02  0.98597225D-19
 -0.86417861D-03 -0.16102696D-02 -0.27233696D-02 -0.41012436D-02 -0.50776057D-02
 -0.43208133D-02 -0.16441492D-02  0.77002520D-05  0.46985478D-03  0.88098211D-03
  0.14988127D-02  0.23274979D-02  0.30887250D-02  0.32550922D-02  0.20183648D-02
 -0.13426171D-02  0.85718461D-03 -0.75307851D-02 -0.18691335D-02 -0.15553273D-17
 -0.14938733D-17 -0.10476071D-17  0.47514866D-18  0.45637461D-18  0.32004138D-18
 -0.26348547D-02 -0.25307465D-02 -0.17747341D-02  0.25908637D-17 -0.42048624D-18
  0.62361201D-02  0.22188328D-17  0.31528406D-18  0.38691695D-02  0.78802659D-19
  0.29229953D-19  0.18635520D-03  0.48869537D-03  0.48869537D-03 -0.97739075D-03
  0.40828151D-19  0.37858314D-18  0.10355304D-17  0.16904672D-02  0.16904672D-02
 -0.33809343D-02 -0.14714658D-19 -0.29765937D-17  0.44134871D-18  0.17448318D-03
  0.17448318D-03 -0.34896637D-03 -0.99736753D-21 -0.53622422D-18 -0.13855254D-18
 -0.22711010D-18  0.62179262D-18  0.85897710D-03 -0.26343085D-18  0.73756423D-18
 -0.12884656D-02  0.94476115D-18 -0.26029421D-17 -0.12884656D-02 -0.18125342D-18
 -0.13789893D-18  0.14721704D-19  0.44384428D-03 -0.14117143D-18  0.74451023D-21
 -0.66576642D-03  0.55486821D-18 -0.44909621D-19 -0.66576642D-03  0.18424075D-19
MO    4     MO 0.0        OCC NO =    2.0000000  ORB. ENERGY =   -1.321110
 -0.48299447D-02 -0.90041150D-02 -0.15218541D-01 -0.22878451D-01 -0.28108821D-01
 -0.23742393D-01 -0.89547570D-02  0.44317592D-04 -0.16380717D-01 -0.30669870D-01
 -0.52218078D-01 -0.80773427D-01 -0.10637576D+00 -0.11053123D+00 -0.70237635D-01
  0.47071630D-01  0.22571537D-01  0.82928825D-02  0.81566305D-03 -0.14695566D-15
 -0.13778027D-15 -0.98107763D-16 -0.45337487D-15 -0.42506776D-15 -0.30267356D-15
 -0.15720721D+00 -0.14739175D+00 -0.10495171D+00 -0.59471792D-16 -0.47105577D-16
 -0.15687633D-01 -0.49327260D-16  0.25333780D-16  0.20259660D-02 -0.13946678D-17
 -0.32362699D-18  0.95858441D-04 -0.17878186D-01 -0.17878186D-01  0.35756372D-01
  0.28170555D-16 -0.28316903D-16 -0.33487291D-16 -0.19522173D-02 -0.19522173D-02
  0.39044345D-02  0.32950278D-17 -0.14866320D-16 -0.20191989D-16  0.13222522D-03
  0.13222522D-03 -0.26445044D-03  0.51538474D-19 -0.36504953D-17 -0.17353904D-17
 -0.12035953D-18  0.41475011D-17 -0.27748785D-02 -0.32573419D-17  0.25725716D-17
  0.41623177D-02  0.36184205D-17 -0.15015075D-16  0.41623177D-02 -0.51262607D-17
  0.19638432D-17 -0.31328968D-17 -0.83721532D-03  0.28781444D-17 -0.37852333D-17
  0.12558230D-02 -0.87696739D-17  0.13183924D-16  0.12558230D-02  0.61469295D-18
 -0.79742210D-02 -0.14864293D-01 -0.25198632D-01 -0.38158155D-01 -0.47716906D-01
 -0.41079812D-01 -0.15792579D-01  0.68431832D-04 -0.12175031D+00 -0.22862553D+00
 -0.38930985D+00 -0.60985157D+00 -0.81727285D+00 -0.87908714D+00 -0.52780277D+00
  0.34710530D+00  0.20521337D+00  0.91511608D-01  0.28648412D-02  0.13644750D-15
  0.13344268D-15  0.88171218D-16  0.11357556D-15  0.11107442D-15  0.73391564D-16
  0.42815556D+00  0.41872678D+00  0.27667049D+00  0.39900801D-16  0.20722825D-16
  0.10880718D+00  0.20878541D-16 -0.15166158D-16  0.10220358D-01  0.65204711D-18
 -0.36755772D-17 -0.82792761D-04 -0.19311368D-01 -0.19311368D-01  0.38622737D-01
  0.93447379D-16  0.53588291D-16 -0.46482048D-16 -0.11184850D-01 -0.11184850D-01
  0.22369699D-01  0.24848693D-16  0.17854377D-16  0.61050846D-17 -0.42677554D-03
 -0.42677554D-03  0.85355109D-03  0.40253883D-17  0.11331000D-16 -0.11918619D-16
  0.62987566D-17 -0.23412731D-16  0.94310891D-02 -0.31829460D-16  0.19166379D-17
 -0.14146634D-01  0.12933190D-16  0.68321556D-16 -0.14146634D-01  0.92189759D-16
 -0.49304898D-17  0.46971364D-17  0.34425715D-02  0.13148593D-16  0.35304290D-17
 -0.51638573D-02  0.16428765D-17 -0.17621838D-16 -0.51638573D-02 -0.15182671D-16
  0.14099235D-03  0.26271848D-03  0.44432282D-03  0.66912554D-03  0.82842083D-03
  0.70494874D-03  0.26824600D-03 -0.12563105D-05 -0.12859334D-02 -0.24111372D-02
 -0.41020618D-02 -0.63700689D-02 -0.84534519D-02 -0.89087779D-02 -0.55240106D-02
  0.36745740D-02  0.40289760D-02 -0.10386327D-01 -0.31043652D-02 -0.68344874D-16
 -0.65644435D-16 -0.46034409D-16  0.46010806D-17  0.44192830D-17  0.30991063D-17
 -0.10854913D-01 -0.10426014D-01 -0.73114409D-02 -0.25284740D-16 -0.29500562D-16
  0.61373589D-02  0.38803496D-16  0.64799828D-17  0.65706219D-02  0.25813997D-17
 -0.61680563D-18  0.31965802D-03  0.11993907D-02  0.11993907D-02 -0.23987815D-02
  0.31635852D-17  0.33168551D-16  0.55585512D-16  0.19158035D-02  0.19158035D-02
 -0.38316070D-02 -0.72877489D-18 -0.17947499D-16 -0.12640257D-16  0.22841720D-03
  0.22841720D-03 -0.45683440D-03 -0.12094142D-18 -0.13572228D-16 -0.47562790D-17
  0.16356061D-17 -0.33478009D-18  0.24122907D-02  0.14978823D-17 -0.26810872D-17
 -0.36184361D-02 -0.64047006D-17  0.36854275D-17 -0.36184361D-02 -0.28554247D-17
 -0.20572055D-18 -0.19928304D-17  0.15283006D-03 -0.26826660D-18 -0.93039990D-18
 -0.22924509D-03  0.88542824D-18  0.69088910D-17 -0.22924509D-03  0.83496123D-18
MO    5     MO 0.0        OCC NO =    2.0000000  ORB. ENERGY =   -0.909909
 -0.73681225D-02 -0.13735856D-01 -0.23216016D-01 -0.34901276D-01 -0.42880251D-01
 -0.36219227D-01 -0.13660560D-01  0.67606872D-04 -0.38079936D-01 -0.71297656D-01
 -0.12139036D+00 -0.18777243D+00 -0.24728968D+00 -0.25694982D+00 -0.16328008D+00
  0.10942651D+00  0.51710556D-01  0.15591100D-01  0.11230508D-02  0.14085473D-15
  0.13206026D-15  0.94034774D-16 -0.27145440D-15 -0.25450575D-15 -0.18122326D-15
  0.31072028D+00  0.29132002D+00  0.20743721D+00  0.40634751D-16 -0.11894702D-15
  0.42626231D-01  0.39900856D-16 -0.72958630D-17 -0.16443315D-02 -0.14222640D-17
 -0.26527617D-17  0.37637851D-04 -0.19433578D-01 -0.19433578D-01  0.38867156D-01
 -0.19994775D-15  0.24548310D-15  0.52439136D-16  0.21758199D-03  0.21758199D-03
 -0.43516398D-03 -0.17567105D-16  0.20390377D-16  0.41005557D-16  0.21053073D-03
  0.21053073D-03 -0.42106145D-03 -0.10990002D-17  0.20380484D-17  0.24878784D-17
  0.24259811D-17  0.41981007D-17  0.62114340D-02 -0.16613293D-16 -0.16493813D-18
 -0.93171510D-02  0.93353491D-17 -0.12429364D-16 -0.93171510D-02  0.18047086D-16
 -0.39574587D-19  0.70832998D-17 -0.84126808D-03  0.32129312D-17  0.96147439D-17
  0.12619021D-02 -0.30942074D-17 -0.30864643D-16  0.12619021D-02 -0.67496075D-17
  0.15708693D-02  0.29281684D-02  0.49639654D-02  0.75169066D-02  0.93999181D-02
  0.80924538D-02  0.31110347D-02 -0.13480623D-04  0.13548420D-01  0.25441533D-01
  0.43322543D-01  0.67864508D-01  0.90946424D-01  0.97825142D-01  0.58734087D-01
 -0.38626006D-01 -0.24887847D-01 -0.20939236D-01 -0.28486840D-02  0.52886914D-15
  0.51722246D-15  0.34175075D-15  0.19143616D-15  0.18722038D-15  0.12370442D-15
  0.11904364D+00  0.11642208D+00  0.76924993D-01  0.11438781D-15  0.38822534D-16
  0.27042674D-01  0.25027413D-16  0.83820789D-16 -0.32772670D-02  0.18117449D-17
  0.81046645D-17 -0.55094548D-03 -0.46137383D-02 -0.46137383D-02  0.92274767D-02
 -0.11873962D-16  0.53809594D-16  0.49430330D-17  0.10913870D-02  0.10913870D-02
 -0.21827740D-02 -0.54543615D-17  0.72893012D-17  0.14480740D-16  0.89034799D-03
  0.89034799D-03 -0.17806960D-02 -0.31210274D-17  0.94006783D-17  0.55302342D-16
 -0.70309048D-17  0.10220188D-16  0.25864554D-02  0.24289846D-17  0.20542573D-16
 -0.38796831D-02  0.18663730D-16 -0.51203138D-16 -0.38796831D-02 -0.12078422D-16
  0.15494930D-17 -0.89001171D-17 -0.23305509D-02 -0.71590660D-18 -0.13675754D-16
  0.34958263D-02 -0.39325725D-17  0.40376105D-16  0.34958263D-02  0.82193035D-18
 -0.86258751D-02 -0.16073048D-01 -0.27183554D-01 -0.40936926D-01 -0.50682570D-01
 -0.43128580D-01 -0.16411220D-01  0.76860745D-04 -0.64251050D-01 -0.12047132D+00
 -0.20495756D+00 -0.31827745D+00 -0.42237269D+00 -0.44512283D+00 -0.27600455D+00
  0.18359834D+00  0.95404689D-01  0.31754920D-01 -0.29642232D-02  0.30659359D-15
  0.29447947D-15  0.20650933D-15  0.54708230D-16  0.52546601D-16  0.36849303D-16
 -0.40678434D+00 -0.39071150D+00 -0.27399387D+00  0.83116600D-16  0.44093588D-16
 -0.88274847D-01 -0.13207078D-17  0.25684455D-16  0.21554831D-02 -0.67183356D-18
  0.10928208D-17  0.48169321D-03 -0.26469093D-01 -0.26469093D-01  0.52938185D-01
  0.10384525D-16 -0.10422814D-15  0.59382773D-16 -0.24311672D-02 -0.24311672D-02
  0.48623344D-02  0.72978515D-17 -0.44192649D-18 -0.16279060D-16  0.44577049D-03
  0.44577049D-03 -0.89154099D-03  0.94279924D-18  0.15631929D-17 -0.36072375D-17
 -0.17550398D-17  0.64336333D-17 -0.78411964D-02 -0.15546445D-16 -0.20200180D-17
  0.11761795D-01  0.20811565D-16 -0.17280882D-16  0.11761795D-01 -0.33235032D-17
 -0.20667811D-17  0.59443001D-18 -0.15155481D-03  0.19141508D-17  0.16826806D-17
  0.22733222D-03  0.42861926D-17 -0.34659707D-17  0.22733222D-03 -0.38580527D-17
MO    6     MO 0.0        OCC NO =    2.0000000  ORB. ENERGY =   -0.654508
 -0.33495033D-02 -0.62442357D-02 -0.10553858D-01 -0.15865906D-01 -0.19493099D-01
 -0.16465038D-01 -0.62100066D-02  0.30733669D-04 -0.24594848D-01 -0.46049316D-01
 -0.78402901D-01 -0.12127737D+00 -0.15971803D+00 -0.16595726D+00 -0.10545839D+00
  0.70675759D-01  0.35135386D-01  0.23520895D-01  0.13987100D-02 -0.53927565D-16
 -0.50560520D-16 -0.36002102D-16 -0.55422257D-15 -0.51961889D-15 -0.36999961D-15
 -0.32953487D+00 -0.30895989D+00 -0.21999785D+00  0.70822156D-16 -0.11976076D-15
 -0.67820913D-01  0.47363739D-16 -0.64515726D-16 -0.23772899D-03  0.73659740D-17
  0.32096258D-17  0.17393949D-03 -0.93356048D-02 -0.93356048D-02  0.18671210D-01
  0.31708863D-15 -0.73903869D-15 -0.14873130D-15 -0.37761242D-02 -0.37761242D-02
  0.75522483D-02  0.46795151D-16  0.20627881D-16  0.51333758D-17 -0.22512377D-03
 -0.22512377D-03  0.45024753D-03  0.42286632D-17  0.94223862D-17 -0.51698058D-17
 -0.12678834D-16  0.82546592D-17 -0.53299508D-02 -0.18916386D-16  0.64423326D-17
  0.79949262D-02  0.56952890D-16 -0.31206310D-16  0.79949262D-02  0.60546453D-17
 -0.34031650D-17  0.39597200D-17 -0.56671355D-03 -0.33314423D-17  0.34231912D-17
  0.85007033D-03  0.13540937D-16 -0.15302351D-16  0.85007033D-03  0.13045471D-17
  0.20177376D-03  0.37611503D-03  0.63760744D-03  0.96552558D-03  0.12073931D-02
  0.10394530D-02  0.39960369D-03 -0.17315482D-05  0.46003289D-01  0.86386030D-01
  0.14710051D+00  0.23043208D+00  0.30880610D+00  0.33216259D+00  0.19942998D+00
 -0.13115355D+00 -0.85609226D-01 -0.75165522D-01 -0.56759656D-02 -0.22378205D-15
 -0.21885395D-15 -0.14460606D-15 -0.15071560D-14 -0.14739657D-14 -0.97391143D-15
  0.21419261D+01  0.20947570D+01  0.13840945D+01 -0.39230501D-16 -0.32678319D-15
  0.47538607D+00 -0.32809316D-16 -0.42605331D-17  0.51012636D-01 -0.51220011D-17
 -0.20718171D-18  0.17726838D-03 -0.40984346D-01 -0.40984346D-01  0.81968693D-01
 -0.14025745D-16  0.13376356D-15 -0.59778748D-16 -0.13138880D-01 -0.13138880D-01
  0.26277761D-01 -0.66857606D-18  0.36059910D-16 -0.31595437D-16 -0.81768739D-03
 -0.81768739D-03  0.16353748D-02 -0.59204540D-17 -0.15124370D-16  0.29006991D-16
 -0.10164393D-16  0.24309482D-16  0.19618299D-01 -0.46352860D-16  0.61071428D-16
 -0.29427448D-01  0.76846038D-16 -0.13399988D-15 -0.29427448D-01 -0.11797673D-15
 -0.50934841D-17  0.55204193D-17  0.45673788D-02  0.10221470D-16 -0.94444258D-17
 -0.68510682D-02  0.50589825D-17 -0.71168320D-17 -0.68510682D-02  0.54791175D-16
  0.13974986D-02  0.26040328D-02  0.44040723D-02  0.66322888D-02  0.82112038D-02
  0.69873638D-02  0.26588208D-02 -0.12452392D-04  0.16211973D-01  0.30397602D-01
  0.51715365D-01  0.80308501D-01  0.10657405D+00  0.11231442D+00  0.69642106D-01
 -0.46325956D-01 -0.24294551D-01 -0.22450741D-01 -0.20531793D-02 -0.18775849D-15
 -0.18033979D-15 -0.12646671D-15 -0.54845390D-15 -0.52678342D-15 -0.36941689D-15
  0.49818590D-01  0.47850160D-01  0.33555835D-01 -0.70322483D-16 -0.98076888D-16
  0.13663600D-01 -0.70818809D-16  0.11751750D-16  0.13221493D-02 -0.90264837D-17
  0.38794614D-17 -0.12461335D-03  0.53377067D-02  0.53377067D-02 -0.10675413D-01
  0.94284446D-17  0.65827630D-16  0.50882518D-16  0.54900789D-03  0.54900789D-03
 -0.10980158D-02  0.21635572D-17  0.68799916D-16 -0.86694269D-17 -0.17496475D-03
 -0.17496475D-03  0.34992949D-03 -0.15142428D-17  0.24298422D-16 -0.38848032D-17
  0.22698778D-16  0.11889787D-16  0.23729266D-02  0.23892791D-16  0.94427040D-17
 -0.35593899D-02 -0.91989124D-16 -0.45112064D-16 -0.35593899D-02 -0.74802257D-18
  0.51730718D-17 -0.16274147D-17 -0.14880686D-04  0.55319513D-17 -0.93005490D-19
  0.22321028D-04 -0.21051167D-16  0.49752495D-17  0.22321028D-04  0.60699085D-17
MO    7     MO 0.0        OCC NO =    2.0000000  ORB. ENERGY =   -0.528154
  0.21944920D-16  0.40910321D-16  0.69145650D-16  0.10394856D-15  0.12771282D-15
  0.10787389D-15  0.40686063D-16 -0.20135759D-18  0.13631814D-17  0.25523056D-17
  0.43455187D-17  0.67218567D-17  0.88524489D-17  0.91982614D-17  0.58450822D-17
 -0.39172382D-17 -0.12093658D-15 -0.21848681D-15  0.12814256D-15 -0.12591366D+00
 -0.11805206D+00 -0.84060099D-01  0.24932543D+00  0.23375843D+00  0.16644993D+00
 -0.80917098D-15 -0.75864923D-15 -0.54020345D-15 -0.33942289D-01  0.67210148D-01
  0.38756297D-15 -0.23345807D-02  0.46227735D-02 -0.15059025D-16 -0.50696347D-04
  0.10038536D-03  0.22947447D-16  0.14227529D-15  0.29722245D-15 -0.43949775D-15
 -0.53815920D-15  0.19144766D-01 -0.37909126D-01 -0.76742124D-17 -0.53041059D-17
  0.12978318D-16  0.16021136D-15  0.16157861D-02 -0.31994667D-02  0.41492904D-16
 -0.52076787D-17 -0.36285226D-16 -0.13168249D-16 -0.30541349D-03  0.60475845D-03
  0.36868193D-02 -0.73003818D-02  0.19368003D-15  0.36890384D-02 -0.73047760D-02
 -0.40088770D-15 -0.14749496D-01  0.29205921D-01 -0.18015239D-15  0.35728539D-16
  0.17885383D-03 -0.35415385D-03  0.31031713D-16  0.17948914D-03 -0.35541185D-03
  0.80676392D-17 -0.71605063D-03  0.14178734D-02 -0.10116278D-15 -0.18458786D-16
 -0.64105729D-16 -0.11949586D-15 -0.20257486D-15 -0.30675803D-15 -0.38360200D-15
 -0.33024559D-15 -0.12695846D-15  0.55013179D-18  0.96318176D-16  0.18086848D-15
  0.30798782D-15  0.48246110D-15  0.64655464D-15  0.69545669D-15  0.41755128D-15
 -0.27459929D-15 -0.91491787D-16  0.55161985D-15  0.23283754D-16 -0.10764449D+01
 -0.10527396D+01 -0.69558957D+00  0.21315009D+01  0.20845614D+01  0.13773578D+01
  0.10250699D-14  0.10024960D-14  0.66239147D-15 -0.24164783D+00  0.47849414D+00