 Molden2AIM, Version 4.0.0 (06/02/2016)           Time: Sat Jun 30 02:36:00 2018
GAUSSIAN             10 MOL ORBITALS    177 PRIMITIVES        3 NUCLEI
  H    1    (CENTRE  1)   0.00000000  0.00000000  0.00000000  CHARGE =  1.0
  F    2    (CENTRE  2)  -2.17030888  0.00000000  0.00000000  CHARGE =  9.0
  F    3    (CENTRE  3)   2.17030888  0.00000000  0.00000000  CHARGE =  9.0
CENTRE ASSIGNMENTS    1  1  1  1  1  1  1  1  1  1  1  1  1  1  1  1  1  1  1  1
CENTRE ASSIGNMENTS    1  1  1  1  1  1  1  2  2  2  2  2  2  2  2  2  2  2  2  2
CENTRE ASSIGNMENTS    2  2  2  2  2  2  2  2  2  2  2  2  2  2  2  2  2  2  2  2
CENTRE ASSIGNMENTS    2  2  2  2  2  2  2  2  2  2  2  2  2  2  2  2  2  2  2  2
CENTRE ASSIGNMENTS    2  2  2  2  2  2  2  2  2  2  2  2  2  2  2  2  2  2  2  2
CENTRE ASSIGNMENTS    2  2  3  3  3  3  3  3  3  3  3  3  3  3  3  3  3  3  3  3
CENTRE ASSIGNMENTS    3  3  3  3  3  3  3  3  3  3  3  3  3  3  3  3  3  3  3  3
CENTRE ASSIGNMENTS    3  3  3  3  3  3  3  3  3  3  3  3  3  3  3  3  3  3  3  3
CENTRE ASSIGNMENTS    3  3  3  3  3  3  3  3  3  3  3  3  3  3  3  3  3
TYPE ASSIGNMENTS      1  1  1  1  1  1  2  3  4  2  3  4  2  3  4  5  6  7  8  9
TYPE ASSIGNMENTS     10  5  6  7  8  9 10  1  1  1  1  1  1  1  1  1  1  1  1  1
TYPE ASSIGNMENTS      1  1  1  1  1  1  2  2  2  3  3  3  4  4  4  2  3  4  2  3
TYPE ASSIGNMENTS      4  2  3  4  5  6  7  8  9 10  5  6  7  8  9 10  5  6  7  8
TYPE ASSIGNMENTS      9 10 11 12 13 17 14 15 18 19 16 20 11 12 13 17 14 15 18 19
TYPE ASSIGNMENTS     16 20  1  1  1  1  1  1  1  1  1  1  1  1  1  1  1  1  1  1
TYPE ASSIGNMENTS      1  2  2  2  3  3  3  4  4  4  2  3  4  2  3  4  2  3  4  5
TYPE ASSIGNMENTS      6  7  8  9 10  5  6  7  8  9 10  5  6  7  8  9 10 11 12 13
TYPE ASSIGNMENTS     17 14 15 18 19 16 20 11 12 13 17 14 15 18 19 16 20
EXPONENTS  0.3387000D+02 0.5095000D+01 0.1159000D+01 0.3258000D+00 0.1027000D+00
EXPONENTS  0.2526000D-01 0.1407000D+01 0.1407000D+01 0.1407000D+01 0.3880000D+00
EXPONENTS  0.3880000D+00 0.3880000D+00 0.1020000D+00 0.1020000D+00 0.1020000D+00
EXPONENTS  0.1057000D+01 0.1057000D+01 0.1057000D+01 0.1057000D+01 0.1057000D+01
EXPONENTS  0.1057000D+01 0.2470000D+00 0.2470000D+00 0.2470000D+00 0.2470000D+00
EXPONENTS  0.2470000D+00 0.2470000D+00 0.1950000D+05 0.2923000D+04 0.6645000D+03
EXPONENTS  0.1875000D+03 0.6062000D+02 0.2142000D+02 0.7950000D+01 0.8815000D+00
EXPONENTS  0.1950000D+05 0.2923000D+04 0.6645000D+03 0.1875000D+03 0.6062000D+02
EXPONENTS  0.2142000D+02 0.7950000D+01 0.8815000D+00 0.2257000D+01 0.3041000D+00
EXPONENTS  0.9158000D-01 0.4388000D+02 0.9926000D+01 0.2930000D+01 0.4388000D+02
EXPONENTS  0.9926000D+01 0.2930000D+01 0.4388000D+02 0.9926000D+01 0.2930000D+01
EXPONENTS  0.9132000D+00 0.9132000D+00 0.9132000D+00 0.2672000D+00 0.2672000D+00
EXPONENTS  0.2672000D+00 0.7361000D-01 0.7361000D-01 0.7361000D-01 0.3107000D+01
EXPONENTS  0.3107000D+01 0.3107000D+01 0.3107000D+01 0.3107000D+01 0.3107000D+01
EXPONENTS  0.8550000D+00 0.8550000D+00 0.8550000D+00 0.8550000D+00 0.8550000D+00
EXPONENTS  0.8550000D+00 0.2920000D+00 0.2920000D+00 0.2920000D+00 0.2920000D+00
EXPONENTS  0.2920000D+00 0.2920000D+00 0.1917000D+01 0.1917000D+01 0.1917000D+01
EXPONENTS  0.1917000D+01 0.1917000D+01 0.1917000D+01 0.1917000D+01 0.1917000D+01
EXPONENTS  0.1917000D+01 0.1917000D+01 0.7240000D+00 0.7240000D+00 0.7240000D+00
EXPONENTS  0.7240000D+00 0.7240000D+00 0.7240000D+00 0.7240000D+00 0.7240000D+00
EXPONENTS  0.7240000D+00 0.7240000D+00 0.1950000D+05 0.2923000D+04 0.6645000D+03
EXPONENTS  0.1875000D+03 0.6062000D+02 0.2142000D+02 0.7950000D+01 0.8815000D+00
EXPONENTS  0.1950000D+05 0.2923000D+04 0.6645000D+03 0.1875000D+03 0.6062000D+02
EXPONENTS  0.2142000D+02 0.7950000D+01 0.8815000D+00 0.2257000D+01 0.3041000D+00
EXPONENTS  0.9158000D-01 0.4388000D+02 0.9926000D+01 0.2930000D+01 0.4388000D+02
EXPONENTS  0.9926000D+01 0.2930000D+01 0.4388000D+02 0.9926000D+01 0.2930000D+01
EXPONENTS  0.9132000D+00 0.9132000D+00 0.9132000D+00 0.2672000D+00 0.2672000D+00
EXPONENTS  0.2672000D+00 0.7361000D-01 0.7361000D-01 0.7361000D-01 0.3107000D+01
EXPONENTS  0.3107000D+01 0.3107000D+01 0.3107000D+01 0.3107000D+01 0.3107000D+01
EXPONENTS  0.8550000D+00 0.8550000D+00 0.8550000D+00 0.8550000D+00 0.8550000D+00
EXPONENTS  0.8550000D+00 0.2920000D+00 0.2920000D+00 0.2920000D+00 0.2920000D+00
EXPONENTS  0.2920000D+00 0.2920000D+00 0.1917000D+01 0.1917000D+01 0.1917000D+01
EXPONENTS  0.1917000D+01 0.1917000D+01 0.1917000D+01 0.1917000D+01 0.1917000D+01
EXPONENTS  0.1917000D+01 0.1917000D+01 0.7240000D+00 0.7240000D+00 0.7240000D+00
EXPONENTS  0.7240000D+00 0.7240000D+00 0.7240000D+00 0.7240000D+00 0.7240000D+00
EXPONENTS  0.7240000D+00 0.7240000D+00
MO    1     MO 0.0        OCC NO =    2.0000000  ORB. ENERGY =  -24.144705
 -0.28287926D-10 -0.51018439D-10 -0.75226658D-10  0.90388891D-09  0.44666062D-09
  0.56502696D-11  0.10264226D-02 -0.11358144D-16  0.12845880D-15  0.20947325D-02
 -0.11143500D-16  0.47998324D-19  0.31548745D-03  0.60921675D-17 -0.67123938D-19
  0.57550605D-09 -0.28775304D-09 -0.28775302D-09 -0.17931022D-15 -0.30863166D-15
 -0.17891151D-15  0.10499640D-09 -0.52498195D-10 -0.52498201D-10 -0.24939346D-17
  0.18210332D-16 -0.10248629D-17 -0.42033260D+00 -0.78351817D+00 -0.13282559D+01
 -0.20113709D+01 -0.25152264D+01 -0.21653756D+01 -0.83244945D+00  0.36071397D-02
 -0.10249098D-03 -0.19245991D-03 -0.32772604D-03 -0.51338090D-03 -0.68799080D-03
 -0.74002687D-03 -0.44431116D-03  0.29219771D-03 -0.45414296D-01  0.72361784D-03
  0.65250840D-03 -0.25645504D-02 -0.25080743D-02 -0.16571907D-02 -0.11351118D-17
 -0.11101145D-17 -0.73349959D-18  0.36151969D-17  0.35355836D-17  0.23361096D-17
  0.71020941D-03  0.20118906D-17 -0.95571793D-18  0.88184590D-03 -0.15282758D-17
  0.15323278D-16  0.66711129D-04  0.27307187D-19 -0.14676850D-18 -0.89669127D-03
  0.44834564D-03  0.44834564D-03  0.16594320D-16  0.66570822D-17  0.14004828D-17
  0.58361303D-03 -0.29180651D-03 -0.29180651D-03  0.18888184D-17  0.24131580D-16
 -0.72877012D-18  0.21186074D-03 -0.10593037D-03 -0.10593037D-03 -0.55833823D-18
  0.78098391D-17  0.12826709D-18 -0.30012740D-03  0.33865205D-17  0.42154434D-17
  0.45019110D-03 -0.10503611D-16 -0.19009304D-16  0.45019110D-03  0.34404990D-18
  0.63629741D-17 -0.58393125D-17  0.25486126D-03 -0.39869742D-18 -0.24487566D-17
 -0.38229188D-03  0.16796355D-17  0.11084598D-16 -0.38229188D-03 -0.48354320D-18
 -0.37383276D-17 -0.15006876D-17  0.42033290D+00  0.78351874D+00  0.13282569D+01
  0.20113724D+01  0.25152282D+01  0.21653772D+01  0.83245005D+00 -0.36071423D-02
  0.10249105D-03  0.19246005D-03  0.32772627D-03  0.51338126D-03  0.68799128D-03
  0.74002738D-03  0.44431147D-03 -0.29219792D-03  0.45414329D-01 -0.72361866D-03
 -0.65250878D-03 -0.25645523D-02 -0.25080762D-02 -0.16571920D-02  0.57871830D-17
  0.56597385D-17  0.37396285D-17 -0.30395451D-16 -0.29726087D-16 -0.19641283D-16
  0.71021001D-03 -0.21324797D-17  0.54820496D-17  0.88184656D-03  0.23491765D-17
 -0.16568249D-16  0.66711166D-04  0.16083092D-19 -0.13952863D-19  0.89669182D-03
 -0.44834591D-03 -0.44834591D-03 -0.45291960D-17  0.91471880D-16  0.41328443D-18
 -0.58361357D-03  0.29180678D-03  0.29180678D-03  0.34054701D-17  0.18520554D-16
 -0.84682850D-18 -0.21186086D-03  0.10593043D-03  0.10593043D-03 -0.14699464D-17
  0.84184181D-17  0.73799556D-19 -0.30012737D-03  0.22177322D-17 -0.93358892D-17
  0.45019106D-03 -0.27419768D-17  0.23817735D-16  0.45019106D-03 -0.39112200D-17
  0.41899327D-17 -0.12877155D-17  0.25486146D-03 -0.10564375D-17  0.41994080D-17
 -0.38229219D-03  0.19962150D-17 -0.18814195D-16 -0.38229219D-03  0.11730975D-17
  0.62159714D-17  0.12462694D-17
MO    2     MO 0.0        OCC NO =    2.0000000  ORB. ENERGY =  -24.144704
 -0.78685447D-04 -0.14191244D-03 -0.20924982D-03  0.25141483D-02  0.12424585D-02
  0.15716629D-04 -0.36902949D-09 -0.39259805D-17  0.42129641D-18 -0.75309038D-09
 -0.47830918D-20 -0.27933774D-19 -0.11338345D-09  0.66239690D-20  0.15112078D-19
  0.16007491D-02 -0.80037456D-03 -0.80037456D-03  0.76264843D-18  0.81524845D-18
  0.26211835D-19  0.29206037D-03 -0.14603018D-03 -0.14603018D-03  0.10278159D-17
  0.82739553D-18 -0.11722010D-20  0.42033686D+00  0.78352612D+00  0.13282694D+01
  0.20113913D+01  0.25152519D+01  0.21653976D+01  0.83245789D+00 -0.36071763D-02
  0.99119563D-04  0.18612898D-03  0.31694556D-03  0.49649334D-03  0.66535949D-03
  0.71568384D-03  0.42969564D-03 -0.28258593D-03  0.45476213D-01 -0.11357165D-02
 -0.52417607D-03  0.26674500D-02  0.26087079D-02  0.17236836D-02  0.30011011D-17
  0.29350113D-17  0.19392861D-17 -0.10993431D-16 -0.10751335D-16 -0.71038618D-17
 -0.83410328D-03 -0.51979027D-18  0.41167624D-18 -0.91818589D-03  0.89825129D-18
  0.66033811D-18 -0.51309274D-04  0.38383976D-20  0.32019349D-20  0.76672399D-03
 -0.38336200D-03 -0.38336200D-03 -0.91483889D-17 -0.15904234D-16 -0.19556702D-17
 -0.75041477D-03  0.37520739D-03  0.37520739D-03  0.36067377D-18  0.89509742D-18
 -0.10952824D-18 -0.16966898D-03  0.84834490D-04  0.84834490D-04  0.52586214D-18
  0.38883725D-18  0.20060479D-20 -0.35686938D-04  0.97784989D-18  0.91607443D-18
  0.53530407D-04 -0.43750230D-17 -0.40381531D-17  0.53530407D-04  0.14414733D-17
  0.12899298D-17  0.30291776D-17 -0.27899447D-03 -0.19566669D-18 -0.17960111D-18
  0.41849170D-03  0.77698940D-18  0.71337435D-18  0.41849170D-03 -0.18998932D-18
 -0.17457102D-18 -0.14512311D-18  0.42033656D+00  0.78352555D+00  0.13282684D+01
  0.20113899D+01  0.25152501D+01  0.21653960D+01  0.83245729D+00 -0.36071737D-02
  0.99119489D-04  0.18612885D-03  0.31694532D-03  0.49649297D-03  0.66535900D-03
  0.71568331D-03  0.42969532D-03 -0.28258572D-03  0.45476181D-01 -0.11357160D-02
 -0.52417561D-03 -0.26674482D-02 -0.26087061D-02 -0.17236824D-02  0.47385456D-17
  0.46341941D-17  0.30620080D-17 -0.12787278D-16 -0.12505678D-16 -0.82630303D-17
  0.83410277D-03 -0.11922808D-18  0.83171430D-18  0.91818525D-03 -0.84907249D-18
 -0.73686738D-18  0.51309226D-04 -0.87187897D-20 -0.88056621D-20  0.76672335D-03
 -0.38336167D-03 -0.38336167D-03  0.41296007D-17 -0.81164878D-17 -0.65775349D-18
 -0.75041435D-03  0.37520718D-03  0.37520718D-03 -0.17656490D-18  0.34346186D-18
 -0.21976487D-18 -0.16966883D-03  0.84834414D-04  0.84834414D-04  0.54738458D-18
  0.42066468D-18  0.16324291D-19  0.35687154D-04  0.13735156D-18 -0.85948332D-18
 -0.53530731D-04 -0.29871552D-18  0.27847934D-17 -0.53530731D-04 -0.11333917D-18
 -0.20634344D-18 -0.13626601D-17  0.27899428D-03  0.95928283D-19  0.12810420D-18
 -0.41849143D-03 -0.41093652D-18 -0.50824491D-18 -0.41849143D-03  0.12315168D-18
  0.12393233D-18  0.15514070D-21
MO    3     MO 0.0        OCC NO =    2.0000000  ORB. ENERGY =   -0.830055
  0.16438892D-01  0.29648219D-01  0.43716281D-01  0.13229629D-01  0.77254887D-03
 -0.12311934D-03  0.89671234D-13 -0.21187781D-15 -0.41916621D-16  0.38145308D-13
 -0.11382455D-15 -0.23319270D-16  0.17659853D-13 -0.26617221D-17  0.45461755D-19
  0.53636066D-02 -0.26818033D-02 -0.26818033D-02 -0.12855369D-17  0.18455384D-16
  0.20283318D-17  0.14402099D-02 -0.72010493D-03 -0.72010493D-03  0.12511275D-16
  0.52853850D-17 -0.88274833D-18 -0.68238061D-02 -0.12719870D-01 -0.21563307D-01
 -0.32653202D-01 -0.40832944D-01 -0.35153361D-01 -0.13514235D-01  0.58559394D-04
 -0.87040655D-01 -0.16344693D+00 -0.27832194D+00 -0.43598967D+00 -0.58427745D+00
 -0.62846918D+00 -0.37733207D+00  0.24814944D+00  0.14885889D+00  0.71648310D-01
  0.23740800D-02  0.14513954D+00  0.14194330D+00  0.93787940D-01 -0.37138231D-15
 -0.36320379D-15 -0.23998410D-15 -0.20464706D-15 -0.20014035D-15 -0.13224119D-15
  0.37172775D-01 -0.10185422D-15 -0.45098324D-16  0.38562282D-02  0.69743720D-17
 -0.90396505D-17 -0.16593065D-05 -0.19114019D-17 -0.99738714D-18  0.12232677D-01
 -0.61163384D-02 -0.61163384D-02 -0.27173263D-16 -0.11065226D-16 -0.96322317D-16
  0.70029291D-02 -0.35014645D-02 -0.35014645D-02 -0.34593515D-16  0.35018430D-16
 -0.21415634D-16  0.44023434D-03 -0.22011717D-03 -0.22011717D-03  0.12747215D-16
 -0.11471542D-16 -0.10345816D-17  0.33093677D-02  0.14352255D-16  0.90652659D-17
 -0.49640516D-02 -0.70473024D-17  0.38202753D-16 -0.49640516D-02 -0.36009464D-16
 -0.65398551D-16  0.14024579D-16  0.69721923D-03 -0.13782291D-17 -0.26918924D-17
 -0.10458289D-02 -0.19968715D-17  0.34334532D-17 -0.10458289D-02  0.61315588D-17
  0.46422241D-17 -0.16371409D-17 -0.68238061D-02 -0.12719870D-01 -0.21563307D-01
 -0.32653202D-01 -0.40832944D-01 -0.35153361D-01 -0.13514235D-01  0.58559394D-04
 -0.87040655D-01 -0.16344693D+00 -0.27832194D+00 -0.43598967D+00 -0.58427745D+00
 -0.62846918D+00 -0.37733207D+00  0.24814944D+00  0.14885889D+00  0.71648310D-01
  0.23740800D-02 -0.14513954D+00 -0.14194330D+00 -0.93787940D-01 -0.12821557D-15
 -0.12539203D-15 -0.82851815D-16 -0.59740661D-15 -0.58425062D-15 -0.38603908D-15
 -0.37172775D-01 -0.37173480D-17 -0.14113901D-15 -0.38562282D-02 -0.93013837D-17
 -0.30923328D-16  0.16593065D-05 -0.21768888D-17  0.15920516D-18  0.12232677D-01
 -0.61163384D-02 -0.61163384D-02  0.22168145D-16  0.20047750D-17 -0.38538660D-16
  0.70029291D-02 -0.35014645D-02 -0.35014645D-02 -0.32422559D-17  0.12633473D-16
 -0.10600266D-16  0.44023434D-03 -0.22011717D-03 -0.22011717D-03  0.85590744D-17
  0.15554419D-16 -0.11175470D-17 -0.33093677D-02  0.58188592D-17  0.13666171D-16
  0.49640516D-02  0.11459005D-16 -0.65166378D-18  0.49640516D-02 -0.28915583D-16
 -0.40346848D-16 -0.10530426D-16 -0.69721923D-03 -0.25923531D-18 -0.19397630D-18
  0.10458289D-02 -0.37388425D-17 -0.50868462D-17  0.10458289D-02  0.45165485D-17
  0.56687751D-17  0.37386725D-17
MO    4     MO 0.0        OCC NO =    2.0000000  ORB. ENERGY =   -0.788077
  0.65099468D-13  0.11740957D-12  0.17312035D-12  0.60115755D-13  0.32617551D-13
 -0.11582110D-14 -0.24634210D-01  0.14104862D-15 -0.52284367D-15 -0.65405627D-02
 -0.88725550D-16  0.97821490D-17  0.20785057D-02  0.60875436D-17  0.64997637D-17
  0.36759533D-13 -0.18596925D-13 -0.18162607D-13  0.23144783D-17 -0.16939761D-15
 -0.21238562D-15  0.11160364D-13 -0.55043461D-14 -0.56560175D-14 -0.33555167D-16
  0.39293870D-16 -0.20730970D-16 -0.64685097D-02 -0.12057582D-01 -0.20440566D-01
 -0.30953041D-01 -0.38706887D-01 -0.33323024D-01 -0.12810587D-01  0.55510371D-04
 -0.92049613D-01 -0.17285287D+00 -0.29433863D+00 -0.46107972D+00 -0.61790107D+00
 -0.66463591D+00 -0.39904653D+00  0.26242978D+00  0.15823339D+00  0.79059066D-01
  0.58822995D-02  0.62572733D-01  0.61194766D-01  0.40433969D-01 -0.73802515D-15
 -0.72177248D-15 -0.47690559D-15 -0.30107046D-15 -0.29444034D-15 -0.19454918D-15
  0.18579211D-01 -0.13120651D-15 -0.91297130D-16  0.91778452D-03 -0.83658695D-16
  0.34269110D-16  0.38865805D-03 -0.47554947D-17 -0.79497617D-17  0.59009016D-02
 -0.29504508D-02 -0.29504508D-02 -0.18083990D-15  0.16949979D-15 -0.17990907D-15
  0.41281853D-02 -0.20640927D-02 -0.20640927D-02  0.34483846D-16 -0.50448104D-16
 -0.21399610D-16 -0.32893478D-03  0.16446739D-03  0.16446739D-03 -0.63960970D-16
  0.59740364D-16 -0.89571095D-17  0.16214034D-02  0.24358752D-17  0.30062215D-16
 -0.24321051D-02  0.54986528D-16 -0.81411078D-16 -0.24321051D-02 -0.62294154D-16
 -0.87755663D-17 -0.12536727D-17  0.29991869D-03 -0.55322339D-17 -0.93085839D-17
 -0.44987804D-03  0.99602038D-17  0.20554948D-16 -0.44987804D-03  0.66364978D-17
  0.73708037D-17 -0.26210345D-17  0.64685097D-02  0.12057582D-01  0.20440566D-01
  0.30953041D-01  0.38706887D-01  0.33323024D-01  0.12810587D-01 -0.55510371D-04
  0.92049613D-01  0.17285287D+00  0.29433863D+00  0.46107972D+00  0.61790107D+00
  0.66463591D+00  0.39904653D+00 -0.26242978D+00 -0.15823339D+00 -0.79059066D-01
 -0.58822995D-02  0.62572733D-01  0.61194766D-01  0.40433969D-01  0.30123075D-16
  0.29459709D-16  0.19465275D-16  0.83421926D-15  0.81584822D-15  0.53906541D-15
  0.18579211D-01 -0.15317988D-16  0.17834709D-15  0.91778452D-03  0.87155148D-17
  0.79647254D-16  0.38865805D-03  0.50640480D-17 -0.15493235D-17 -0.59009016D-02
  0.29504508D-02  0.29504508D-02  0.22602049D-15  0.17245229D-16  0.19600196D-16
 -0.41281853D-02  0.20640927D-02  0.20640927D-02 -0.49326917D-17  0.67755461D-16
 -0.76334640D-17  0.32893478D-03 -0.16446739D-03 -0.16446739D-03  0.36211924D-17
 -0.46388440D-16  0.54841774D-18  0.16214034D-02 -0.14766669D-16  0.17345443D-16
 -0.24321051D-02  0.44084855D-16 -0.25268870D-16 -0.24321051D-02  0.21515250D-18
 -0.26767459D-16  0.30402331D-16  0.29991869D-03  0.13997984D-16  0.67239314D-17
 -0.44987804D-03 -0.38163216D-16 -0.95250783D-17 -0.44987804D-03 -0.38307366D-17
 -0.10646716D-16 -0.14129922D-16
MO    5     MO 0.0        OCC NO =    2.0000000  ORB. ENERGY =   -0.200249
 -0.36965487D-01 -0.66668778D-01 -0.98303074D-01 -0.52484150D-01 -0.22053362D-01
  0.10030934D-03  0.60068262D-13 -0.96379979D-16 -0.13081538D-16 -0.21023468D-11
 -0.17251121D-15  0.33973937D-16 -0.33829796D-11 -0.11358460D-16 -0.13175834D-16
 -0.26560847D-02  0.13280423D-02  0.13280423D-02 -0.75191938D-16  0.20121801D-17
 -0.22085586D-17 -0.49259963D-02  0.24629981D-02  0.24629981D-02  0.19152811D-16
  0.11358353D-16 -0.41497361D-19 -0.56520394D-03 -0.10535646D-02 -0.17860511D-02
 -0.27046077D-02 -0.33821214D-02 -0.29116915D-02 -0.11193605D-02  0.48503724D-05
 -0.22800708D-01 -0.42815692D-01 -0.72907739D-01 -0.11420954D+00 -0.15305422D+00
 -0.16463045D+00 -0.98843907D-01  0.65003912D-01  0.43663982D-01  0.39758333D-01
  0.89222162D-02 -0.14980134D+01 -0.14650244D+01 -0.96800357D+00 -0.26685719D-14
 -0.26098050D-14 -0.17244085D-14 -0.17194424D-14 -0.16815771D-14 -0.11110891D-14
 -0.33412043D+00 -0.61725440D-15 -0.39733227D-15 -0.47793744D-01 -0.71149293D-16
 -0.71676642D-16 -0.82841142D-03 -0.16484561D-16 -0.75814269D-17 -0.34840733D-01
  0.17420367D-01  0.17420367D-01 -0.27125712D-16 -0.88062347D-16 -0.38792537D-16
 -0.12992398D-01  0.64961991D-02  0.64961991D-02 -0.38620609D-16  0.60581315D-16
 -0.94497566D-17 -0.16521687D-02  0.82608436D-03  0.82608436D-03  0.38816510D-17
 -0.31941874D-16 -0.37785597D-18 -0.78396716D-02 -0.34509141D-17  0.22256741D-17
  0.11759507D-01 -0.15576382D-16 -0.18335301D-17  0.11759507D-01  0.25929124D-16
 -0.48434922D-17  0.64140276D-16 -0.19363535D-02  0.54128871D-17  0.30145978D-17
  0.29045303D-02 -0.14235722D-16  0.37732594D-17  0.29045303D-02 -0.20029395D-17
 -0.12817053D-16 -0.17956715D-16 -0.56520394D-03 -0.10535646D-02 -0.17860511D-02
 -0.27046077D-02 -0.33821214D-02 -0.29116915D-02 -0.11193605D-02  0.48503724D-05
 -0.22800708D-01 -0.42815692D-01 -0.72907739D-01 -0.11420954D+00 -0.15305422D+00
 -0.16463045D+00 -0.98843907D-01  0.65003912D-01  0.43663982D-01  0.39758333D-01
  0.89222162D-02  0.14980134D+01  0.14650244D+01  0.96800357D+00 -0.24019097D-14
 -0.23490152D-14 -0.15520937D-14 -0.28382386D-14 -0.27757354D-14 -0.18340457D-14
  0.33412043D+00 -0.53614442D-15 -0.60716205D-15  0.47793744D-01 -0.99908116D-16
 -0.12881705D-15  0.82841142D-03 -0.13280071D-16  0.20250932D-18 -0.34840733D-01
  0.17420367D-01  0.17420367D-01  0.99940578D-16 -0.87670722D-16 -0.31049581D-16
 -0.12992398D-01  0.64961991D-02  0.64961991D-02  0.36877433D-16 -0.23404186D-16
 -0.30003666D-17 -0.16521687D-02  0.82608436D-03  0.82608436D-03  0.18661710D-16
  0.25256463D-16  0.86416354D-18  0.78396716D-02  0.58363793D-17  0.12177532D-16
 -0.11759507D-01 -0.26624072D-16  0.17749875D-16 -0.11759507D-01  0.91149341D-17
 -0.54282469D-16  0.18533575D-16  0.19363535D-02  0.36239120D-17 -0.19870528D-17
 -0.29045303D-02 -0.11851297D-16 -0.57211242D-17 -0.29045303D-02  0.97956058D-18
  0.11682283D-16 -0.10942749D-16
MO    6     MO 0.0        OCC NO =    2.0000000  ORB. ENERGY =   -0.068775
  0.56322681D-17  0.10158028D-16  0.14978006D-16 -0.30856039D-15  0.40745234D-15
 -0.45673175D-16 -0.32722262D-15 -0.13452051D-01  0.15762194D-01  0.36950711D-15
 -0.48311687D-02  0.56608333D-02  0.12906817D-14  0.85567743D-05 -0.10026243D-04
 -0.46224195D-16 -0.11980853D-15  0.16603272D-15 -0.60079639D-13  0.98368827D-13
 -0.25845700D-15  0.12499744D-15 -0.46557570D-16 -0.78439866D-16  0.66516112D-13
  0.18366560D-13  0.47643712D-16 -0.88776464D-16 -0.16548318D-15 -0.28053467D-15
 -0.42481216D-15 -0.53122910D-15 -0.45733877D-15 -0.17581772D-15  0.76184696D-18
  0.13601270D-15  0.25540777D-15  0.43491538D-15  0.68129238D-15  0.91301193D-15
  0.98206744D-15  0.58963200D-15 -0.38776681D-15 -0.12798891D-15  0.26303859D-15
  0.21681186D-14 -0.61098995D-14 -0.59753483D-14 -0.39481652D-14 -0.11423165D+01
 -0.11171606D+01 -0.73815525D+00  0.13384884D+01  0.13090125D+01  0.86491988D+00
 -0.14974637D-14 -0.25335989D+00  0.29686981D+00  0.20444207D-15 -0.43374040D-01
  0.50822736D-01  0.24547225D-15 -0.23096991D-02  0.27063475D-02  0.25882844D-15
  0.63128819D-15 -0.89011663D-15 -0.16029344D-01  0.18782089D-01 -0.26350602D-14
  0.24974132D-15 -0.16192061D-15 -0.87820705D-16 -0.81335657D-02  0.95303565D-02
 -0.14294481D-14 -0.31689019D-16  0.46364338D-16 -0.14675319D-16 -0.14187489D-02
  0.16623930D-02  0.42235971D-16  0.45492344D-15  0.15760072D-02 -0.18466575D-02
 -0.18033234D-14 -0.63264202D-02  0.74128668D-02  0.43855307D-15  0.15983987D-02
 -0.18728943D-02  0.85696207D-15 -0.60321635D-16  0.70015394D-03 -0.82039254D-03
 -0.43052544D-16 -0.27941045D-02  0.32739407D-02  0.22401745D-15  0.69364269D-03
 -0.81276310D-03 -0.64349773D-15 -0.72130809D-16 -0.13445495D-15 -0.22793420D-15
 -0.34515956D-15 -0.43162324D-15 -0.37158740D-15 -0.14285176D-15  0.61900007D-18
 -0.86969990D-17 -0.16331424D-16 -0.27809598D-16 -0.43563571D-16 -0.58380310D-16
 -0.62795895D-16 -0.37702573D-16  0.24794798D-16  0.17040389D-15 -0.54568788D-15
 -0.22726006D-14 -0.82224436D-14 -0.80413703D-14 -0.53132733D-14 -0.11423165D+01
 -0.11171606D+01 -0.73815525D+00  0.13384884D+01  0.13090125D+01  0.86491988D+00
 -0.14283259D-14 -0.25335989D+00  0.29686981D+00  0.10863161D-15 -0.43374040D-01
  0.50822736D-01  0.29780272D-15 -0.23096991D-02  0.27063475D-02  0.46480388D-15
  0.19412709D-14 -0.24060747D-14  0.16029344D-01 -0.18782089D-01 -0.82446764D-15
 -0.97055969D-16 -0.19833007D-15  0.29538604D-15  0.81335657D-02 -0.95303565D-02
 -0.73294225D-15  0.89584225D-16 -0.63486672D-16 -0.26097554D-16  0.14187489D-02
 -0.16623930D-02  0.11547537D-15  0.80668174D-15  0.15760072D-02 -0.18466575D-02
 -0.22574927D-14 -0.63264202D-02  0.74128668D-02 -0.16255248D-15  0.15983987D-02
 -0.18728943D-02 -0.44023338D-14 -0.11690358D-15  0.70015394D-03 -0.82039254D-03
  0.36379655D-15 -0.27941045D-02  0.32739407D-02 -0.13085816D-16  0.69364269D-03
 -0.81276310D-03  0.63708447D-15
MO    7     MO 0.0        OCC NO =    2.0000000  ORB. ENERGY =   -0.068775
 -0.12563826D-15 -0.22659377D-15 -0.33411238D-15 -0.35790659D-17  0.38088675D-16
  0.32853860D-16 -0.11742478D-14  0.15762194D-01  0.13452051D-01 -0.25526851D-15
  0.56608333D-02  0.48311687D-02  0.69560070D-15 -0.10026243D-04 -0.85567743D-05
  0.53082131D-15 -0.39051701D-16 -0.49176961D-15  0.69658736D-13  0.84817012D-13
  0.15247526D-16  0.50930010D-16 -0.76381008D-16  0.25450998D-16 -0.78023606D-13
  0.16216977D-13  0.52460237D-16 -0.11507671D-15 -0.21450798D-15 -0.36364377D-15
 -0.55066383D-15 -0.68860706D-15 -0.59282653D-15 -0.22790416D-15  0.98754604D-18
 -0.76542038D-16 -0.14373239D-15 -0.24475147D-15 -0.38340174D-15 -0.51380343D-15
 -0.55266487D-15 -0.33181926D-15  0.21821831D-15  0.33421582D-15  0.44161166D-15
  0.11623035D-14  0.37603981D-13  0.36775872D-13  0.24299374D-13  0.13384884D+01
  0.13090125D+01  0.86491988D+00  0.11423165D+01  0.11171606D+01  0.73815525D+00
  0.76751565D-14  0.29686981D+00  0.25335989D+00  0.16258735D-14  0.50822736D-01
  0.43374040D-01  0.36579652D-15  0.27063475D-02  0.23096991D-02  0.50586064D-15
 -0.17171567D-15 -0.33414497D-15  0.18782089D-01  0.16029344D-01 -0.52802754D-15
 -0.31347652D-15  0.14031851D-15  0.17315802D-15  0.95303565D-02  0.81335657D-02
 -0.21848665D-15 -0.46861559D-16  0.65285065D-16 -0.18423505D-16  0.16623930D-02
  0.14187489D-02 -0.74436696D-16 -0.37244224D-15 -0.18466575D-02 -0.15760072D-02
  0.75059385D-15  0.74128668D-02  0.63264202D-02  0.36673287D-15 -0.18728943D-02
 -0.15983987D-02 -0.62298729D-16  0.20608570D-16 -0.82039254D-03 -0.70015394D-03
  0.32970520D-15  0.32739407D-02  0.27941045D-02 -0.39153091D-15 -0.81276310D-03
 -0.69364269D-03  0.34524364D-16  0.76636066D-16  0.14285295D-15  0.24217086D-15
  0.36671806D-15  0.45858222D-15  0.39479658D-15  0.15177422D-15 -0.65766253D-18
 -0.66174822D-16 -0.12426460D-15 -0.21160117D-15 -0.33147199D-15 -0.44421146D-15
 -0.47780932D-15 -0.28687609D-15  0.18866178D-15  0.27612208D-16 -0.66732672D-15
 -0.11069969D-14  0.41838682D-13  0.40917317D-13  0.27035802D-13  0.13384884D+01
  0.13090125D+01  0.86491988D+00  0.11423165D+01  0.11171606D+01  0.73815525D+00
  0.95793807D-14  0.29686981D+00  0.25335989D+00  0.19589617D-14  0.50822736D-01
  0.43374040D-01  0.38345206D-15  0.27063475D-02  0.23096991D-02  0.10647447D-14
 -0.54619889D-15 -0.51854577D-15 -0.18782089D-01 -0.16029344D-01  0.21849056D-17
 -0.36030860D-15  0.41241772D-15 -0.52109128D-16 -0.95303565D-02 -0.81335657D-02
 -0.54646646D-16  0.10892530D-15 -0.54729264D-16 -0.54196037D-16 -0.16623930D-02
 -0.14187489D-02  0.28714764D-16  0.73739297D-15 -0.18466575D-02 -0.15760072D-02
 -0.52326133D-15  0.74128668D-02  0.63264202D-02 -0.16889176D-14 -0.18728943D-02
 -0.15983987D-02 -0.20764735D-15 -0.12185237D-15 -0.82039254D-03 -0.70015394D-03
 -0.42228994D-15  0.32739407D-02  0.27941045D-02  0.78784704D-15 -0.81276310D-03
 -0.69364269D-03  0.25653020D-16
MO    8     MO 0.0        OCC NO =    2.0000000  ORB. ENERGY =   -0.049209
 -0.56064872D-13 -0.10111530D-12 -0.14909446D-12  0.15339515D-11  0.78132485D-11
  0.72783588D-13 -0.41288853D-01 -0.26857623D-15 -0.46102266D-15 -0.26002144D-01
 -0.26572954D-15  0.10827479D-17  0.43638319D-02  0.77737622D-16  0.12359791D-16
  0.45943901D-12 -0.22977818D-12 -0.22966083D-12 -0.19863564D-14 -0.35902992D-14
 -0.13014663D-15  0.99505103D-12 -0.49753932D-12 -0.49751171D-12  0.72109195D-15
  0.78746063D-15 -0.14865524D-15  0.12495245D-02  0.23291679D-02  0.39485122D-02
  0.59792111D-02  0.74770245D-02  0.64370216D-02  0.24746261D-02 -0.10722960D-04
 -0.12762794D-02 -0.23966267D-02 -0.40810420D-02 -0.63929281D-02 -0.85672757D-02
 -0.92152602D-02 -0.55328301D-02  0.36386219D-02  0.12773699D-02 -0.47077621D-02
  0.80951555D-02  0.18821870D+01  0.18407378D+01  0.12162533D+01  0.18441618D-12
  0.18035500D-12  0.11916817D-12  0.25658743D-12  0.25093690D-12  0.16580462D-12
  0.41827334D+00  0.40969525D-13  0.56455158D-13  0.65277675D-01  0.76096864D-14
  0.10378996D-13  0.51602291D-02  0.44939947D-15  0.55065713D-15  0.14418381D-01
 -0.72091904D-02 -0.72091904D-02  0.21739334D-14  0.41903012D-14 -0.37440709D-16
  0.45380084D-02 -0.22690042D-02 -0.22690042D-02  0.34336176D-15  0.92244871D-15
 -0.29903374D-16 -0.63484264D-03  0.31742132D-03  0.31742132D-03  0.45542799D-15
  0.62061448D-15 -0.60215505D-17  0.39672444D-02 -0.20993020D-15 -0.74142538D-16
 -0.59508666D-02  0.64377428D-15  0.69128643D-15 -0.59508666D-02 -0.13983673D-16
 -0.46885882D-15 -0.16685707D-15  0.12685300D-02 -0.87720054D-16 -0.16344960D-15
 -0.19027951D-02  0.34272824D-15  0.63169410D-15 -0.19027951D-02 -0.79568076D-16
 -0.14134530D-15  0.14106333D-16 -0.12495245D-02 -0.23291679D-02 -0.39485122D-02
 -0.59792111D-02 -0.74770245D-02 -0.64370216D-02 -0.24746261D-02  0.10722960D-04
  0.12762794D-02  0.23966267D-02  0.40810420D-02  0.63929281D-02  0.85672757D-02
  0.92152602D-02  0.55328301D-02 -0.36386219D-02 -0.12773699D-02  0.47077621D-02
 -0.80951555D-02  0.18821870D+01  0.18407378D+01  0.12162533D+01 -0.25419845D-12
 -0.24860053D-12 -0.16426088D-12 -0.29870528D-12 -0.29212724D-12 -0.19302082D-12
  0.41827334D+00 -0.56023406D-13 -0.66025877D-13  0.65277675D-01 -0.10360133D-13
 -0.12017147D-13  0.51602291D-02 -0.55826969D-15 -0.68416147D-15 -0.14418381D-01
  0.72091904D-02  0.72091904D-02  0.32906261D-14  0.42067937D-14 -0.11110733D-15
 -0.45380084D-02  0.22690042D-02  0.22690042D-02  0.78090559D-15  0.12258495D-14
 -0.28994573D-16  0.63484264D-03 -0.31742132D-03 -0.31742132D-03  0.69544579D-15
  0.70350913D-15  0.27341728D-17  0.39672444D-02 -0.64923081D-16 -0.19548763D-15
 -0.59508666D-02  0.48292454D-15  0.11646199D-14 -0.59508666D-02 -0.28815530D-15
 -0.57815705D-15  0.18974723D-15  0.12685300D-02  0.17254385D-15  0.21031774D-15
 -0.19027951D-02 -0.70561595D-15 -0.94762804D-15 -0.19027951D-02  0.18798439D-15
  0.31667483D-15  0.31031879D-17
MO    9     MO 0.0        OCC NO =    2.0000000  ORB. ENERGY =   -0.045469
  0.92945441D-16  0.16763093D-15  0.24717171D-15  0.34796787D-15  0.25604104D-17
 -0.80112027D-17  0.72811384D-14  0.19308112D-13  0.14587860D-12  0.33438951D-14
  0.57282493D-14  0.43341636D-13 -0.11543640D-14 -0.34878635D-15 -0.12513706D-14
  0.11015324D-15 -0.29959343D-15  0.18944019D-15 -0.22039204D-02 -0.16959347D-01
  0.55066901D-16 -0.90962835D-16  0.37125418D-16  0.53837417D-16  0.72072653D-03
  0.55460496D-02  0.18089695D-19 -0.17912135D-15 -0.33388996D-15 -0.56602557D-15
 -0.85712954D-15 -0.10718435D-14 -0.92275741D-15 -0.35474164D-15  0.15371536D-17
  0.15564538D-15  0.29227446D-15  0.49769300D-15  0.77963314D-15  0.10448001D-14
  0.11238234D-14  0.67474210D-15 -0.44373879D-15 -0.15151125D-15  0.71097592D-15
 -0.23228011D-14 -0.31090095D-12 -0.30405434D-12 -0.20090156D-12  0.23739400D+00
  0.23216615D+00  0.15340199D+00  0.18267662D+01  0.17865375D+01  0.11804409D+01
 -0.69076243D-13  0.52435309D-01  0.40349399D+00 -0.11305532D-13  0.96127283D-02
  0.73970730D-01 -0.87374373D-15  0.54217666D-03  0.41720937D-02 -0.18715216D-14
  0.20469431D-14 -0.17542154D-15  0.23804159D-02  0.18317495D-01 -0.63227287D-15
 -0.97360517D-15  0.14235813D-15  0.83124704D-15  0.80924921D-03  0.62272388D-02
  0.91311106D-17  0.88833833D-16  0.51695940D-16 -0.14052977D-15  0.54027641D-03
  0.41574711D-02  0.61205751D-16 -0.56115521D-15 -0.67706425D-04 -0.52100647D-03
  0.30893933D-14  0.27401743D-03  0.21085865D-02 -0.14059277D-14 -0.70898159D-04
 -0.54556713D-03  0.47250289D-14 -0.19355988D-15 -0.13542630D-03 -0.10421165D-02
 -0.15456277D-15  0.54094627D-03  0.41626258D-02  0.73524241D-15 -0.13466736D-03