 Molden2AIM, Version 4.0.0 (06/02/2016)           Time: Fri Jun 29 23:51:41 2018
GAUSSIAN              5 MOL ORBITALS    129 PRIMITIVES        3 NUCLEI
  O    1    (CENTRE  1)   0.00000000  0.00000000  0.22365098  CHARGE =  8.0
  H    2    (CENTRE  2)   0.00000000  1.43843496 -0.88765160  CHARGE =  1.0
  H    3    (CENTRE  3)   0.00000000 -1.43843496 -0.88765160  CHARGE =  1.0
CENTRE ASSIGNMENTS    1  1  1  1  1  1  1  1  1  1  1  1  1  1  1  1  1  1  1  1
CENTRE ASSIGNMENTS    1  1  1  1  1  1  1  1  1  1  1  1  1  1  1  1  1  1  1  1
CENTRE ASSIGNMENTS    1  1  1  1  1  1  1  1  1  1  1  1  1  1  1  1  1  1  1  1
CENTRE ASSIGNMENTS    1  1  1  1  1  1  1  1  1  1  1  1  1  1  1  2  2  2  2  2
CENTRE ASSIGNMENTS    2  2  2  2  2  2  2  2  2  2  2  2  2  2  2  2  2  2  2  2
CENTRE ASSIGNMENTS    2  2  3  3  3  3  3  3  3  3  3  3  3  3  3  3  3  3  3  3
CENTRE ASSIGNMENTS    3  3  3  3  3  3  3  3  3
TYPE ASSIGNMENTS      1  1  1  1  1  1  1  1  1  1  1  1  1  1  1  1  1  1  1  2
TYPE ASSIGNMENTS      2  2  3  3  3  4  4  4  2  3  4  2  3  4  2  3  4  5  6  7
TYPE ASSIGNMENTS      8  9 10  5  6  7  8  9 10  5  6  7  8  9 10 11 12 13 17 14
TYPE ASSIGNMENTS     15 18 19 16 20 11 12 13 17 14 15 18 19 16 20  1  1  1  1  1
TYPE ASSIGNMENTS      1  2  3  4  2  3  4  2  3  4  5  6  7  8  9 10  5  6  7  8
TYPE ASSIGNMENTS      9 10  1  1  1  1  1  1  2  3  4  2  3  4  2  3  4  5  6  7
TYPE ASSIGNMENTS      8  9 10  5  6  7  8  9 10
EXPONENTS  0.1533000D+05 0.2299000D+04 0.5224000D+03 0.1473000D+03 0.4755000D+02
EXPONENTS  0.1676000D+02 0.6207000D+01 0.6882000D+00 0.1533000D+05 0.2299000D+04
EXPONENTS  0.5224000D+03 0.1473000D+03 0.4755000D+02 0.1676000D+02 0.6207000D+01
EXPONENTS  0.6882000D+00 0.1752000D+01 0.2384000D+00 0.7376000D-01 0.3446000D+02
EXPONENTS  0.7749000D+01 0.2280000D+01 0.3446000D+02 0.7749000D+01 0.2280000D+01
EXPONENTS  0.3446000D+02 0.7749000D+01 0.2280000D+01 0.7156000D+00 0.7156000D+00
EXPONENTS  0.7156000D+00 0.2140000D+00 0.2140000D+00 0.2140000D+00 0.5974000D-01
EXPONENTS  0.5974000D-01 0.5974000D-01 0.2314000D+01 0.2314000D+01 0.2314000D+01
EXPONENTS  0.2314000D+01 0.2314000D+01 0.2314000D+01 0.6450000D+00 0.6450000D+00
EXPONENTS  0.6450000D+00 0.6450000D+00 0.6450000D+00 0.6450000D+00 0.2140000D+00
EXPONENTS  0.2140000D+00 0.2140000D+00 0.2140000D+00 0.2140000D+00 0.2140000D+00
EXPONENTS  0.1428000D+01 0.1428000D+01 0.1428000D+01 0.1428000D+01 0.1428000D+01
EXPONENTS  0.1428000D+01 0.1428000D+01 0.1428000D+01 0.1428000D+01 0.1428000D+01
EXPONENTS  0.5000000D+00 0.5000000D+00 0.5000000D+00 0.5000000D+00 0.5000000D+00
EXPONENTS  0.5000000D+00 0.5000000D+00 0.5000000D+00 0.5000000D+00 0.5000000D+00
EXPONENTS  0.3387000D+02 0.5095000D+01 0.1159000D+01 0.3258000D+00 0.1027000D+00
EXPONENTS  0.2526000D-01 0.1407000D+01 0.1407000D+01 0.1407000D+01 0.3880000D+00
EXPONENTS  0.3880000D+00 0.3880000D+00 0.1020000D+00 0.1020000D+00 0.1020000D+00
EXPONENTS  0.1057000D+01 0.1057000D+01 0.1057000D+01 0.1057000D+01 0.1057000D+01
EXPONENTS  0.1057000D+01 0.2470000D+00 0.2470000D+00 0.2470000D+00 0.2470000D+00
EXPONENTS  0.2470000D+00 0.2470000D+00 0.3387000D+02 0.5095000D+01 0.1159000D+01
EXPONENTS  0.3258000D+00 0.1027000D+00 0.2526000D-01 0.1407000D+01 0.1407000D+01
EXPONENTS  0.1407000D+01 0.3880000D+00 0.3880000D+00 0.3880000D+00 0.1020000D+00
EXPONENTS  0.1020000D+00 0.1020000D+00 0.1057000D+01 0.1057000D+01 0.1057000D+01
EXPONENTS  0.1057000D+01 0.1057000D+01 0.1057000D+01 0.2470000D+00 0.2470000D+00
EXPONENTS  0.2470000D+00 0.2470000D+00 0.2470000D+00 0.2470000D+00
MO    1     MO 0.0        OCC NO =    2.0000000  ORB. ENERGY =  -18.958651
  0.49791004D+00  0.92804026D+00  0.15736488D+01  0.23817907D+01  0.29717794D+01
  0.25523622D+01  0.97990147D+00 -0.43831594D-02 -0.53024085D-03 -0.99447985D-03
 -0.16953701D-02 -0.26495335D-02 -0.35429312D-02 -0.37830245D-02 -0.23128670D-02
  0.15258892D-02  0.53187276D-01  0.11912666D-02  0.81091914D-04 -0.52691594D-16
 -0.51093122D-16 -0.34467118D-16 -0.33013839D-15 -0.32012319D-15 -0.21595321D-15
 -0.76147790D-02 -0.73837742D-02 -0.49810504D-02  0.74000127D-17 -0.38859674D-15
 -0.10043298D-02  0.61375925D-18  0.60358169D-15  0.16200847D-03  0.27922322D-19
 -0.33381119D-16  0.42386652D-05 -0.14876058D-02  0.13478632D-02  0.13974254D-03
 -0.99982547D-17 -0.63777692D-17  0.68726968D-15 -0.11148908D-03  0.17183651D-03
 -0.60347433D-04  0.53941908D-18 -0.23944808D-17 -0.11507447D-15  0.92523988D-04
 -0.64658006D-04 -0.27865983D-04 -0.21594970D-19 -0.30678095D-18 -0.46320479D-15
 -0.25209230D-18 -0.44173875D-16  0.75740701D-03 -0.43968714D-18  0.37682913D-15
  0.19001465D-02  0.11959640D-17 -0.24430751D-15 -0.41723675D-02  0.74321567D-18
 -0.46174736D-18  0.78944523D-17 -0.12912571D-03  0.10321173D-17 -0.26683413D-15
 -0.39406610D-03  0.35312477D-18  0.24315077D-15  0.78144324D-03 -0.25209521D-19
  0.16594920D-03  0.29929621D-03  0.44131209D-03 -0.38873930D-03 -0.18065772D-03
 -0.12211808D-05 -0.61988301D-18  0.69689039D-03 -0.40635236D-03 -0.15497272D-17
  0.64756403D-03 -0.59409145D-03 -0.44143619D-19  0.53304683D-04 -0.51406704D-04
  0.10518883D-02 -0.83778660D-03 -0.21410173D-03  0.31554200D-17 -0.24622692D-17
  0.31040173D-02  0.33024458D-04 -0.17123420D-04 -0.15901038D-04  0.27463196D-18
 -0.22010808D-18  0.12371602D-03  0.16594920D-03  0.29929621D-03  0.44131209D-03
 -0.38873930D-03 -0.18065772D-03 -0.12211808D-05 -0.51079375D-18 -0.69689039D-03
 -0.40635236D-03 -0.14996922D-17 -0.64756403D-03 -0.59409145D-03 -0.50449296D-19
 -0.53304683D-04 -0.51406704D-04  0.10518883D-02 -0.83778660D-03 -0.21410173D-03
 -0.32443440D-17 -0.23216236D-17 -0.31040173D-02  0.33024458D-04 -0.17123420D-04
 -0.15901038D-04 -0.25761056D-18 -0.21400744D-18 -0.12371602D-03
MO    2     MO 0.0        OCC NO =    2.0000000  ORB. ENERGY =   -0.981789
 -0.85861975D-02 -0.16003567D-01 -0.27136748D-01 -0.41072732D-01 -0.51246777D-01
 -0.44014147D-01 -0.16897887D-01  0.75585285D-04 -0.94937682D-01 -0.17805798D+00
 -0.30354982D+00 -0.47438928D+00 -0.63434885D+00 -0.67733668D+00 -0.41411036D+00
  0.27320487D+00  0.14982986D+00  0.72821119D-01  0.40382370D-02 -0.11036944D-14
 -0.10702123D-14 -0.72195890D-15 -0.14528856D-13 -0.14088103D-13 -0.95037510D-14
 -0.30695289D+00 -0.29764105D+00 -0.20078689D+00 -0.20437836D-15  0.26557421D-13
 -0.77322140D-01 -0.16252795D-16  0.51511795D-13 -0.55129082D-02 -0.12019188D-17
  0.34927634D-14 -0.14364001D-03 -0.26093885D-01  0.17495366D-01  0.85985186D-02
  0.89195115D-16  0.30293037D-16  0.16989369D-13 -0.79757973D-02  0.51379807D-02
  0.28378166D-02  0.32354754D-16  0.29707657D-16 -0.40803835D-13  0.32855267D-03
 -0.47141987D-03  0.14286720D-03 -0.34330620D-18  0.12123422D-17 -0.16806410D-13
  0.61198963D-17  0.27081655D-15  0.12065798D-02 -0.13119757D-16 -0.47790053D-14
  0.76449011D-02 -0.52399315D-17  0.39665557D-14 -0.11264641D-01 -0.11930756D-16
  0.14743431D-17 -0.16656386D-14 -0.88007746D-04 -0.54538375D-17 -0.53560362D-14
  0.31270157D-03  0.10308083D-17  0.10352952D-13 -0.48678328D-04 -0.83624248D-17
  0.23419457D-01  0.42237956D-01  0.62279841D-01  0.22687322D-01 -0.21855974D-02
 -0.80512638D-04  0.49088968D-17 -0.24408499D-01  0.15676988D-01  0.38587016D-17
 -0.20963909D-02  0.11177251D-02  0.89304975D-18  0.48686986D-03 -0.38354299D-03
 -0.23262108D-02  0.25971875D-02 -0.27097667D-03  0.64882528D-17  0.17072327D-16
 -0.67248331D-02  0.21735581D-04 -0.50871369D-04  0.29135788D-04 -0.26779317D-19
  0.43022417D-17  0.18911468D-03  0.23419457D-01  0.42237956D-01  0.62279841D-01
  0.22687322D-01 -0.21855974D-02 -0.80512638D-04 -0.76614266D-17  0.24408499D-01
  0.15676988D-01  0.77128225D-17  0.20963909D-02  0.11177251D-02  0.90349966D-18
 -0.48686986D-03 -0.38354299D-03 -0.23262108D-02  0.25971875D-02 -0.27097667D-03
  0.12824573D-16 -0.77994039D-17  0.67248331D-02  0.21735581D-04 -0.50871369D-04
  0.29135788D-04  0.80987506D-17  0.13723034D-17 -0.18911468D-03
MO    3     MO 0.0        OCC NO =    2.0000000  ORB. ENERGY =   -0.496124
  0.92031748D-15  0.17153534D-14  0.29086709D-14  0.44024090D-14  0.54929210D-14
  0.47176866D-14  0.18112116D-14 -0.81016607D-17 -0.62976668D-15 -0.11811430D-14
 -0.20135899D-14 -0.31468491D-14 -0.42079368D-14 -0.44930955D-14 -0.27469905D-14
  0.18122975D-14 -0.32098175D-14  0.81817866D-13  0.35009060D-13  0.12585076D-14
  0.12203291D-14  0.82322678D-15  0.14453763D+01  0.14015288D+01  0.94546304D+00
  0.11763851D-13  0.11406978D-13  0.76950801D-14  0.64999134D-15  0.31344379D+00
 -0.25046567D-13  0.24296690D-16  0.27414943D-01 -0.19947367D-13  0.95988552D-17
  0.35709153D-03 -0.16823243D-14  0.17363295D-14 -0.39826143D-14  0.22462848D-14
 -0.37032272D-14 -0.71461981D-15 -0.12910345D+00 -0.90778195D-14  0.91378539D-14
 -0.60034380D-16  0.26024520D-15  0.12022771D-15 -0.17480048D-01 -0.18014466D-14
  0.20310133D-14 -0.22956673D-15  0.82953956D-17 -0.58130064D-16  0.12926061D-02
  0.10385209D-15  0.64309824D-02  0.28799642D-14  0.20093142D-15 -0.12568168D-01
  0.39246041D-14 -0.51248770D-15 -0.67247790D-02 -0.12564497D-13  0.14114319D-14
 -0.16531342D-17 -0.12037934D-03  0.49830143D-15  0.90748859D-16 -0.83203246D-03
  0.12768286D-14 -0.85789457D-16  0.11931705D-02 -0.27717328D-14 -0.17484729D-15
  0.37103315D-01  0.66917356D-01  0.98669603D-01  0.72601579D-01  0.59123498D-02
 -0.16718077D-03  0.95011087D-16 -0.17239416D-01  0.28693058D-01 -0.99612282D-16
 -0.74504438D-02  0.10783098D-01 -0.63119582D-16  0.59027599D-03 -0.31878466D-04
 -0.67335645D-02  0.29438020D-02  0.37897625D-02 -0.16406743D-15  0.42157833D-16
 -0.18290056D-01  0.14169242D-03 -0.37883664D-03  0.23714422D-03  0.81011770D-16
 -0.31633266D-16 -0.56139665D-03 -0.37103315D-01 -0.66917356D-01 -0.98669603D-01
 -0.72601579D-01 -0.59123498D-02  0.16718077D-03 -0.34552927D-17 -0.17239416D-01
 -0.28693058D-01  0.13380060D-15 -0.74504438D-02 -0.10783098D-01  0.56810465D-16
  0.59027599D-03  0.31878466D-04  0.67335645D-02 -0.29438020D-02 -0.37897625D-02
 -0.10347988D-15  0.77070585D-16 -0.18290056D-01 -0.14169242D-03  0.37883664D-03
 -0.23714422D-03  0.90940349D-16  0.20128656D-16 -0.56139665D-03
MO    4     MO 0.0        OCC NO =    2.0000000  ORB. ENERGY =   -0.353851
  0.57703922D-04  0.10755269D-03  0.18237372D-03  0.27603112D-03  0.34440624D-03
  0.29579903D-03  0.11356300D-03 -0.50797427D-06 -0.38283606D-01 -0.71801851D-01
 -0.12240642D+00 -0.19129740D+00 -0.25580107D+00 -0.27313591D+00 -0.16698994D+00
  0.11016982D+00  0.63081528D-01  0.86252954D-01  0.91190993D-02  0.23104525D-14
  0.22403617D-14  0.15113348D-14 -0.18014318D-13 -0.17467829D-13 -0.11783694D-13
  0.15557098D+01  0.15085152D+01  0.10176355D+01  0.79048933D-15  0.49376055D-13
  0.34515178D+00  0.48340577D-16  0.70674433D-13  0.41788103D-01  0.19815075D-17
  0.63062827D-14  0.81544924D-03  0.34379539D-01  0.69389142D-02 -0.41318454D-01
  0.29869036D-15 -0.38973983D-15  0.13670001D-13  0.19254761D-02  0.97782431D-02
 -0.11703719D-01 -0.47000667D-16 -0.15126840D-16 -0.57391641D-13 -0.58795854D-03
  0.14262123D-02 -0.83825374D-03  0.40523093D-17 -0.16658079D-16 -0.17117465D-13
 -0.81396762D-17  0.56820121D-15  0.24948980D-02  0.21391372D-16 -0.12112373D-13
 -0.13693296D-01  0.30276565D-17  0.10407769D-13  0.62086022D-02  0.51291918D-15
  0.74599227D-18 -0.14197849D-14  0.60243144D-03 -0.31227733D-17 -0.45492272D-14
 -0.41595294D-03  0.88479644D-18  0.88085820D-14 -0.13913414D-02 -0.14399165D-16
 -0.22036931D-01 -0.39744512D-01 -0.58603260D-01 -0.57273834D-01 -0.89385336D-02
 -0.11710573D-03  0.62238784D-16  0.21728874D-01  0.84798861D-02  0.12860026D-16
  0.13292625D-01 -0.26908131D-04 -0.85042815D-18  0.30692479D-03  0.84494510D-03
  0.34777069D-02 -0.73197527D-02  0.38420458D-02 -0.10456096D-15  0.26667563D-16
  0.61293283D-02  0.11584949D-04 -0.19228461D-03  0.18069966D-03  0.14493876D-17
  0.47661271D-17 -0.70479809D-03 -0.22036931D-01 -0.39744512D-01 -0.58603260D-01
 -0.57273834D-01 -0.89385336D-02 -0.11710573D-03  0.28093906D-16 -0.21728874D-01
  0.84798861D-02  0.53624263D-17 -0.13292625D-01 -0.26908131D-04 -0.39428861D-17
 -0.30692479D-03  0.84494510D-03  0.34777069D-02 -0.73197527D-02  0.38420458D-02
 -0.83832052D-17 -0.13258797D-16 -0.61293283D-02  0.11584949D-04 -0.19228461D-03
  0.18069966D-03 -0.12322420D-16 -0.41803686D-17  0.70479809D-03
MO    5     MO 0.0        OCC NO =    2.0000000  ORB. ENERGY =   -0.275532
  0.20485810D-15  0.38182914D-15  0.64745570D-15  0.97995436D-15  0.12226969D-14
  0.10501336D-14  0.40316671D-15 -0.18033894D-17 -0.12976905D-15 -0.24338507D-15
 -0.41491819D-15 -0.64843636D-15 -0.86708297D-15 -0.92584246D-15 -0.56604192D-15
  0.37344008D-15 -0.22504325D-15 -0.66101698D-15  0.46150960D-15  0.17738405D+01
  0.17200286D+01  0.11603211D+01  0.10321910D-14  0.10008781D-14  0.67518646D-15
 -0.22421218D-14 -0.21741039D-14 -0.14666377D-14  0.41152444D+00 -0.11116815D-14
 -0.26909693D-16  0.66986626D-01 -0.87689356D-15  0.40788110D-15  0.19341253D-02
 -0.44506339D-16 -0.84523704D-16 -0.12342925D-14  0.21945534D-14 -0.96026082D-15
 -0.10431573D-13 -0.72941100D-01  0.46820253D-16  0.26001482D-15 -0.10732482D-16
 -0.24928234D-15  0.93052041D-14 -0.19476081D-01  0.27381572D-15  0.11895657D-16
  0.50830813D-16 -0.62726469D-16  0.45976801D-14 -0.16420204D-02  0.19836191D-15
 -0.10803343D-01  0.42888946D-15 -0.15600381D-15  0.22173924D-01 -0.41202072D-15
 -0.20741658D-15  0.10236106D-01 -0.87464765D-15  0.67542802D-15  0.35224055D-14
 -0.32023751D-03  0.10996353D-15  0.58426716D-16  0.46248425D-03 -0.20599334D-15
 -0.23339278D-17  0.49822829D-03 -0.12389727D-15 -0.17294622D-15 -0.10398373D-13
 -0.14794223D-15 -0.26681990D-15 -0.39342579D-15  0.12332086D-14 -0.95799508D-15
  0.50339575D-16  0.30116116D-01 -0.30014302D-15 -0.92697195D-15  0.12568459D-01
 -0.11138000D-15  0.80952639D-15  0.16408229D-02  0.37822300D-15 -0.81652610D-17
 -0.52315760D-15  0.68388458D-15 -0.16072699D-15 -0.12929279D-01  0.97973753D-02
 -0.12819381D-14  0.73616519D-16 -0.18059174D-15  0.10697522D-15 -0.16503708D-02
  0.96821141D-03 -0.10759929D-15  0.35130532D-16  0.63359361D-16  0.93423341D-16
  0.53110881D-16  0.46034246D-15 -0.11512433D-15  0.30116116D-01 -0.26630861D-15
  0.10488752D-14  0.12568459D-01  0.50622427D-15 -0.80737137D-15  0.16408229D-02
  0.28262090D-15 -0.12116331D-15  0.58211958D-16 -0.23889542D-15  0.18068346D-15
  0.12929279D-01  0.97973753D-02 -0.40404283D-15 -0.12381121D-16  0.24144492D-15
 -0.22906380D-15  0.16503708D-02  0.96821141D-03 -0.24680156D-15
END DATA
RHF
