 Molden2AIM, Version 4.0.0 (06/02/2016)           Time: Sat Jun 30 02:21:34 2018
GAUSSIAN             17 MOL ORBITALS    316 PRIMITIVES        4 NUCLEI
  S    1    (CENTRE  1)   0.14114931  1.96162831 -0.54347956  CHARGE = 16.0
  S    2    (CENTRE  2)  -0.14114931 -1.96162831 -0.54347956  CHARGE = 16.0
  H    3    (CENTRE  3)   1.97476947  2.18870158  1.24126283  CHARGE =  1.0
  H    4    (CENTRE  4)  -1.97476947 -2.18870158  1.24126283  CHARGE =  1.0
CENTRE ASSIGNMENTS    1  1  1  1  1  1  1  1  1  1  1  1  1  1  1  1  1  1  1  1
CENTRE ASSIGNMENTS    1  1  1  1  1  1  1  1  1  1  1  1  1  1  1  1  1  1  1  1
CENTRE ASSIGNMENTS    1  1  1  1  1  1  1  1  1  1  1  1  1  1  1  1  1  1  1  1
CENTRE ASSIGNMENTS    1  1  1  1  1  1  1  1  1  1  1  1  1  1  1  1  1  1  1  1
CENTRE ASSIGNMENTS    1  1  1  1  1  1  1  1  1  1  1  1  1  1  1  1  1  1  1  1
CENTRE ASSIGNMENTS    1  1  1  1  1  1  1  1  1  1  1  1  1  1  1  1  1  1  1  1
CENTRE ASSIGNMENTS    1  1  1  1  1  1  1  1  1  1  1  2  2  2  2  2  2  2  2  2
CENTRE ASSIGNMENTS    2  2  2  2  2  2  2  2  2  2  2  2  2  2  2  2  2  2  2  2
CENTRE ASSIGNMENTS    2  2  2  2  2  2  2  2  2  2  2  2  2  2  2  2  2  2  2  2
CENTRE ASSIGNMENTS    2  2  2  2  2  2  2  2  2  2  2  2  2  2  2  2  2  2  2  2
CENTRE ASSIGNMENTS    2  2  2  2  2  2  2  2  2  2  2  2  2  2  2  2  2  2  2  2
CENTRE ASSIGNMENTS    2  2  2  2  2  2  2  2  2  2  2  2  2  2  2  2  2  2  2  2
CENTRE ASSIGNMENTS    2  2  2  2  2  2  2  2  2  2  2  2  2  2  2  2  2  2  2  2
CENTRE ASSIGNMENTS    2  2  3  3  3  3  3  3  3  3  3  3  3  3  3  3  3  3  3  3
CENTRE ASSIGNMENTS    3  3  3  3  3  3  3  3  3  4  4  4  4  4  4  4  4  4  4  4
CENTRE ASSIGNMENTS    4  4  4  4  4  4  4  4  4  4  4  4  4  4  4  4
TYPE ASSIGNMENTS      1  1  1  1  1  1  1  1  1  1  1  1  1  1  1  1  1  1  1  1
TYPE ASSIGNMENTS      1  1  1  1  1  1  1  1  1  1  1  1  1  1  1  1  1  1  1  1
TYPE ASSIGNMENTS      1  1  2  2  2  2  2  2  2  3  3  3  3  3  3  3  4  4  4  4
TYPE ASSIGNMENTS      4  4  4  2  2  2  2  2  2  2  3  3  3  3  3  3  3  4  4  4
TYPE ASSIGNMENTS      4  4  4  4  2  3  4  2  3  4  2  3  4  5  6  7  8  9 10  5
TYPE ASSIGNMENTS      6  7  8  9 10  5  6  7  8  9 10 11 12 13 17 14 15 18 19 16
TYPE ASSIGNMENTS     20 11 12 13 17 14 15 18 19 16 20  1  1  1  1  1  1  1  1  1
TYPE ASSIGNMENTS      1  1  1  1  1  1  1  1  1  1  1  1  1  1  1  1  1  1  1  1
TYPE ASSIGNMENTS      1  1  1  1  1  1  1  1  1  1  1  1  1  2  2  2  2  2  2  2
TYPE ASSIGNMENTS      3  3  3  3  3  3  3  4  4  4  4  4  4  4  2  2  2  2  2  2
TYPE ASSIGNMENTS      2  3  3  3  3  3  3  3  4  4  4  4  4  4  4  2  3  4  2  3
TYPE ASSIGNMENTS      4  2  3  4  5  6  7  8  9 10  5  6  7  8  9 10  5  6  7  8
TYPE ASSIGNMENTS      9 10 11 12 13 17 14 15 18 19 16 20 11 12 13 17 14 15 18 19
TYPE ASSIGNMENTS     16 20  1  1  1  1  1  1  2  3  4  2  3  4  2  3  4  5  6  7
TYPE ASSIGNMENTS      8  9 10  5  6  7  8  9 10  1  1  1  1  1  1  2  3  4  2  3
TYPE ASSIGNMENTS      4  2  3  4  5  6  7  8  9 10  5  6  7  8  9 10
EXPONENTS  0.3741000D+06 0.5605000D+05 0.1276000D+05 0.3615000D+04 0.1183000D+04
EXPONENTS  0.4288000D+03 0.1678000D+03 0.6947000D+02 0.2984000D+02 0.1272000D+02
EXPONENTS  0.5244000D+01 0.2219000D+01 0.3490000D+00 0.3741000D+06 0.5605000D+05
EXPONENTS  0.1276000D+05 0.3615000D+04 0.1183000D+04 0.4288000D+03 0.1678000D+03
EXPONENTS  0.6947000D+02 0.2984000D+02 0.1272000D+02 0.5244000D+01 0.2219000D+01
EXPONENTS  0.3490000D+00 0.3741000D+06 0.5605000D+05 0.1276000D+05 0.3615000D+04
EXPONENTS  0.1183000D+04 0.4288000D+03 0.1678000D+03 0.6947000D+02 0.2984000D+02
EXPONENTS  0.1272000D+02 0.5244000D+01 0.2219000D+01 0.3490000D+00 0.7767000D+00
EXPONENTS  0.1322000D+00 0.4970000D-01 0.5744000D+03 0.1358000D+03 0.4319000D+02
EXPONENTS  0.1587000D+02 0.6208000D+01 0.2483000D+01 0.3229000D+00 0.5744000D+03
EXPONENTS  0.1358000D+03 0.4319000D+02 0.1587000D+02 0.6208000D+01 0.2483000D+01
EXPONENTS  0.3229000D+00 0.5744000D+03 0.1358000D+03 0.4319000D+02 0.1587000D+02
EXPONENTS  0.6208000D+01 0.2483000D+01 0.3229000D+00 0.5744000D+03 0.1358000D+03
EXPONENTS  0.4319000D+02 0.1587000D+02 0.6208000D+01 0.2483000D+01 0.3229000D+00
EXPONENTS  0.5744000D+03 0.1358000D+03 0.4319000D+02 0.1587000D+02 0.6208000D+01
EXPONENTS  0.2483000D+01 0.3229000D+00 0.5744000D+03 0.1358000D+03 0.4319000D+02
EXPONENTS  0.1587000D+02 0.6208000D+01 0.2483000D+01 0.3229000D+00 0.8688000D+00
EXPONENTS  0.8688000D+00 0.8688000D+00 0.1098000D+00 0.1098000D+00 0.1098000D+00
EXPONENTS  0.3510000D-01 0.3510000D-01 0.3510000D-01 0.2690000D+00 0.2690000D+00
EXPONENTS  0.2690000D+00 0.2690000D+00 0.2690000D+00 0.2690000D+00 0.8190000D+00
EXPONENTS  0.8190000D+00 0.8190000D+00 0.8190000D+00 0.8190000D+00 0.8190000D+00
EXPONENTS  0.1010000D+00 0.1010000D+00 0.1010000D+00 0.1010000D+00 0.1010000D+00
EXPONENTS  0.1010000D+00 0.5570000D+00 0.5570000D+00 0.5570000D+00 0.5570000D+00
EXPONENTS  0.5570000D+00 0.5570000D+00 0.5570000D+00 0.5570000D+00 0.5570000D+00
EXPONENTS  0.5570000D+00 0.2180000D+00 0.2180000D+00 0.2180000D+00 0.2180000D+00
EXPONENTS  0.2180000D+00 0.2180000D+00 0.2180000D+00 0.2180000D+00 0.2180000D+00
EXPONENTS  0.2180000D+00 0.3741000D+06 0.5605000D+05 0.1276000D+05 0.3615000D+04
EXPONENTS  0.1183000D+04 0.4288000D+03 0.1678000D+03 0.6947000D+02 0.2984000D+02
EXPONENTS  0.1272000D+02 0.5244000D+01 0.2219000D+01 0.3490000D+00 0.3741000D+06
EXPONENTS  0.5605000D+05 0.1276000D+05 0.3615000D+04 0.1183000D+04 0.4288000D+03
EXPONENTS  0.1678000D+03 0.6947000D+02 0.2984000D+02 0.1272000D+02 0.5244000D+01
EXPONENTS  0.2219000D+01 0.3490000D+00 0.3741000D+06 0.5605000D+05 0.1276000D+05
EXPONENTS  0.3615000D+04 0.1183000D+04 0.4288000D+03 0.1678000D+03 0.6947000D+02
EXPONENTS  0.2984000D+02 0.1272000D+02 0.5244000D+01 0.2219000D+01 0.3490000D+00
EXPONENTS  0.7767000D+00 0.1322000D+00 0.4970000D-01 0.5744000D+03 0.1358000D+03
EXPONENTS  0.4319000D+02 0.1587000D+02 0.6208000D+01 0.2483000D+01 0.3229000D+00
EXPONENTS  0.5744000D+03 0.1358000D+03 0.4319000D+02 0.1587000D+02 0.6208000D+01
EXPONENTS  0.2483000D+01 0.3229000D+00 0.5744000D+03 0.1358000D+03 0.4319000D+02
EXPONENTS  0.1587000D+02 0.6208000D+01 0.2483000D+01 0.3229000D+00 0.5744000D+03
EXPONENTS  0.1358000D+03 0.4319000D+02 0.1587000D+02 0.6208000D+01 0.2483000D+01
EXPONENTS  0.3229000D+00 0.5744000D+03 0.1358000D+03 0.4319000D+02 0.1587000D+02
EXPONENTS  0.6208000D+01 0.2483000D+01 0.3229000D+00 0.5744000D+03 0.1358000D+03
EXPONENTS  0.4319000D+02 0.1587000D+02 0.6208000D+01 0.2483000D+01 0.3229000D+00
EXPONENTS  0.8688000D+00 0.8688000D+00 0.8688000D+00 0.1098000D+00 0.1098000D+00
EXPONENTS  0.1098000D+00 0.3510000D-01 0.3510000D-01 0.3510000D-01 0.2690000D+00
EXPONENTS  0.2690000D+00 0.2690000D+00 0.2690000D+00 0.2690000D+00 0.2690000D+00
EXPONENTS  0.8190000D+00 0.8190000D+00 0.8190000D+00 0.8190000D+00 0.8190000D+00
EXPONENTS  0.8190000D+00 0.1010000D+00 0.1010000D+00 0.1010000D+00 0.1010000D+00
EXPONENTS  0.1010000D+00 0.1010000D+00 0.5570000D+00 0.5570000D+00 0.5570000D+00
EXPONENTS  0.5570000D+00 0.5570000D+00 0.5570000D+00 0.5570000D+00 0.5570000D+00
EXPONENTS  0.5570000D+00 0.5570000D+00 0.2180000D+00 0.2180000D+00 0.2180000D+00
EXPONENTS  0.2180000D+00 0.2180000D+00 0.2180000D+00 0.2180000D+00 0.2180000D+00
EXPONENTS  0.2180000D+00 0.2180000D+00 0.3387000D+02 0.5095000D+01 0.1159000D+01
EXPONENTS  0.3258000D+00 0.1027000D+00 0.2526000D-01 0.1407000D+01 0.1407000D+01
EXPONENTS  0.1407000D+01 0.3880000D+00 0.3880000D+00 0.3880000D+00 0.1020000D+00
EXPONENTS  0.1020000D+00 0.1020000D+00 0.1057000D+01 0.1057000D+01 0.1057000D+01
EXPONENTS  0.1057000D+01 0.1057000D+01 0.1057000D+01 0.2470000D+00 0.2470000D+00
EXPONENTS  0.2470000D+00 0.2470000D+00 0.2470000D+00 0.2470000D+00 0.3387000D+02
EXPONENTS  0.5095000D+01 0.1159000D+01 0.3258000D+00 0.1027000D+00 0.2526000D-01
EXPONENTS  0.1407000D+01 0.1407000D+01 0.1407000D+01 0.3880000D+00 0.3880000D+00
EXPONENTS  0.3880000D+00 0.1020000D+00 0.1020000D+00 0.1020000D+00 0.1057000D+01
EXPONENTS  0.1057000D+01 0.1057000D+01 0.1057000D+01 0.1057000D+01 0.1057000D+01
EXPONENTS  0.2470000D+00 0.2470000D+00 0.2470000D+00 0.2470000D+00 0.2470000D+00
EXPONENTS  0.2470000D+00
MO    1     MO 0.0        OCC NO =    2.0000000  ORB. ENERGY =  -88.611845
 -0.41389805D+00 -0.77375835D+00 -0.13372960D+01 -0.21630163D+01 -0.32692725D+01
 -0.45023246D+01 -0.52621737D+01 -0.45469150D+01 -0.21206974D+01 -0.28794489D+00
 -0.77104547D-03 -0.15124725D-02 -0.69050686D-04  0.11004665D-02  0.20551681D-02
  0.35650071D-02  0.57805357D-02  0.88997928D-02  0.12675304D-01  0.16298796D-01
  0.17108885D-01  0.12097194D-01 -0.26789743D-03 -0.86919905D-02 -0.47860459D-02
  0.20240107D-04 -0.46786698D-03 -0.87310900D-03 -0.15164858D-02 -0.24563706D-02
 -0.37943737D-02 -0.54094498D-02 -0.70359271D-02 -0.74984017D-02 -0.55614086D-02
  0.17310600D-03  0.50383465D-02  0.49358406D-02 -0.23053303D-02  0.24110287D-02
  0.13709666D-02  0.44157365D-03 -0.62743694D-02 -0.82316309D-02 -0.90288445D-02
 -0.74290763D-02 -0.39167559D-02 -0.10189548D-02  0.11275773D-05 -0.14919640D-02
 -0.19573755D-02 -0.21469426D-02 -0.17665384D-02 -0.93135397D-03 -0.24229428D-03
  0.26812333D-06 -0.63428306D-02 -0.83214484D-02 -0.91273605D-02 -0.75101369D-02
 -0.39594927D-02 -0.10300729D-02  0.11398806D-05  0.54939559D-02  0.72135976D-02
  0.81157837D-02  0.68381613D-02  0.38251716D-02  0.95207742D-03 -0.43666858D-03
  0.16246329D-02  0.21331529D-02  0.23999408D-02  0.20221316D-02  0.11311520D-02
  0.28154144D-03 -0.12912847D-03  0.55308514D-02  0.72620415D-02  0.81702864D-02
  0.68840840D-02  0.38508601D-02  0.95847123D-03 -0.43960109D-03  0.21782496D-03
  0.82836195D-04  0.21687982D-03  0.31275892D-04 -0.58363458D-03  0.94032398D-04
 -0.23903911D-06 -0.21462489D-04  0.14307850D-05 -0.92409574D-04  0.19017043D-03
 -0.97760854D-04  0.43537862D-04 -0.12455105D-03 -0.44538636D-05  0.27987343D-05
 -0.21544517D-04  0.18745782D-04 -0.12223753D-03 -0.37545309D-03 -0.36643385D-04
 -0.19476474D-04  0.43736621D-04 -0.24260147D-04  0.12163039D-04  0.27427939D-04
 -0.86338381D-05  0.15294022D-04  0.24036420D-04  0.25258105D-04  0.12907501D-03
 -0.32672454D-04 -0.16603415D-03 -0.17495708D-03 -0.39436807D-04  0.90259833D-04
 -0.37943842D-04  0.13554782D-05 -0.20352965D-04 -0.38269837D-05 -0.20282040D-04
  0.28216265D-04  0.14111476D-04  0.16215605D-04  0.32842630D-04 -0.26305246D-05
  0.34028494D-05  0.41389829D+00  0.77375881D+00  0.13372968D+01  0.21630176D+01
  0.32692744D+01  0.45023273D+01  0.52621768D+01  0.45469177D+01  0.21206986D+01
  0.28794506D+00  0.77104592D-03  0.15124734D-02  0.69050727D-04 -0.11004671D-02
 -0.20551693D-02 -0.35650091D-02 -0.57805389D-02 -0.88997978D-02 -0.12675311D-01
 -0.16298805D-01 -0.17108895D-01 -0.12097201D-01  0.26789758D-03  0.86919953D-02
  0.47860485D-02 -0.20240118D-04  0.46786723D-03  0.87310947D-03  0.15164866D-02
  0.24563719D-02  0.37943757D-02  0.54094527D-02  0.70359309D-02  0.74984058D-02
  0.55614116D-02 -0.17310609D-03 -0.50383492D-02 -0.49358433D-02  0.23053315D-02
 -0.24110302D-02 -0.13709668D-02 -0.44157370D-03 -0.62743739D-02 -0.82316369D-02
 -0.90288510D-02 -0.74290817D-02 -0.39167588D-02 -0.10189555D-02  0.11275782D-05
 -0.14919622D-02 -0.19573732D-02 -0.21469400D-02 -0.17665363D-02 -0.93135287D-03
 -0.24229400D-03  0.26812301D-06  0.63428357D-02  0.83214550D-02  0.91273678D-02
  0.75101429D-02  0.39594958D-02  0.10300737D-02 -0.11398815D-05  0.54939599D-02
  0.72136028D-02  0.81157896D-02  0.68381663D-02  0.38251744D-02  0.95207811D-03
 -0.43666890D-03  0.16246314D-02  0.21331510D-02  0.23999387D-02  0.20221298D-02
  0.11311510D-02  0.28154119D-03 -0.12912836D-03 -0.55308558D-02 -0.72620473D-02
 -0.81702928D-02 -0.68840894D-02 -0.38508631D-02 -0.95847199D-03  0.43960144D-03
  0.21782515D-03  0.82836153D-04 -0.21688003D-03  0.31275948D-04 -0.58363461D-03
 -0.94032465D-04 -0.23903808D-06 -0.21462490D-04 -0.14307868D-05  0.92409609D-04
 -0.19017049D-03  0.97760886D-04 -0.43537856D-04 -0.12455119D-03 -0.44538605D-05
 -0.27987458D-05  0.21544550D-04 -0.18745804D-04  0.12223758D-03 -0.37545330D-03
 -0.36643427D-04  0.19476476D-04 -0.43736624D-04  0.24260148D-04 -0.12163046D-04
  0.27427958D-04 -0.86338374D-05  0.15294036D-04  0.24036437D-04 -0.25258125D-04
  0.12907509D-03 -0.32672482D-04  0.16603428D-03 -0.17495720D-03 -0.39436829D-04
 -0.90259905D-04  0.37943908D-04  0.13554773D-05 -0.20352978D-04  0.38269864D-05
 -0.20282039D-04  0.28216286D-04 -0.14111479D-04  0.16215607D-04  0.32842648D-04
  0.26305196D-05 -0.34028763D-05 -0.25524135D-04 -0.46033829D-04 -0.67876854D-04
  0.29029753D-03 -0.87106706D-04  0.43615475D-05  0.55310756D-05 -0.79990742D-06
  0.20509272D-05 -0.40134049D-03 -0.52858136D-04 -0.38232844D-03 -0.32132238D-04
 -0.72899890D-05 -0.17060541D-04  0.10632811D-03 -0.20526806D-03  0.98939942D-04
  0.37447446D-04  0.48697889D-03  0.70598470D-04  0.22699329D-04 -0.31611760D-04
  0.89124314D-05  0.47175671D-04  0.13542949D-03  0.33896728D-04  0.25524159D-04
  0.46033872D-04  0.67876917D-04 -0.29029790D-03  0.87106894D-04 -0.43615434D-05
  0.55310459D-05 -0.79991556D-06 -0.20509099D-05 -0.40134078D-03 -0.52858221D-04
  0.38232872D-03 -0.32132225D-04 -0.72899867D-05  0.17060535D-04 -0.10632817D-03
  0.20526816D-03 -0.98939986D-04 -0.37447527D-04  0.48697923D-03  0.70598535D-04
 -0.22699348D-04  0.31611798D-04 -0.89124509D-05 -0.47175681D-04  0.13542956D-03
  0.33896748D-04
MO    2     MO 0.0        OCC NO =    2.0000000  ORB. ENERGY =  -88.611842
  0.41386078D+00  0.77368868D+00  0.13371756D+01  0.21628215D+01  0.32689781D+01
  0.45019192D+01  0.52616998D+01  0.45465056D+01  0.21205064D+01  0.28791896D+00
  0.77097604D-03  0.15123363D-02  0.69044468D-04 -0.10297624D-02 -0.19231251D-02
 -0.33359581D-02 -0.54091406D-02 -0.83279878D-02 -0.11860925D-01 -0.15251610D-01
 -0.16009652D-01 -0.11319959D-01  0.25068522D-03  0.81335366D-02  0.44785460D-02
 -0.18939695D-04  0.42769190D-03  0.79813635D-03  0.13862673D-02  0.22454455D-02
  0.34685561D-02  0.49449479D-02  0.64317619D-02  0.68545244D-02  0.50838582D-02
 -0.15824163D-03 -0.46057107D-02 -0.45120069D-02  0.21073748D-02 -0.25078592D-02
 -0.34802125D-03 -0.89358993D-04  0.77187259D-02  0.10126548D-01  0.11107280D-01
  0.91392458D-02  0.48183912D-02  0.12535176D-02 -0.13871451D-05 -0.29874241D-02
 -0.39193378D-02 -0.42989162D-02 -0.35372163D-02 -0.18648904D-02 -0.48515634D-03
  0.53687495D-06  0.85232018D-02  0.11181977D-01  0.12264924D-01  0.10091774D-01
  0.53205827D-02  0.13841642D-02 -0.15317188D-05 -0.67510117D-02 -0.88641194D-02
 -0.99727320D-02 -0.84027808D-02 -0.47003977D-02 -0.11699194D-02  0.53658142D-03
  0.24182053D-02  0.31751183D-02  0.35722222D-02  0.30098673D-02  0.16836776D-02
  0.41906392D-03 -0.19220290D-03 -0.74043250D-02 -0.97219238D-02 -0.10937820D-01
 -0.92159401D-02 -0.51552677D-02 -0.12831356D-02  0.58850783D-03 -0.30917004D-03
  0.70827734D-04 -0.35942332D-03 -0.94484589D-04  0.54547084D-04 -0.11167425D-03
 -0.17371332D-05  0.10015951D-05 -0.31356288D-05  0.58358364D-04 -0.11134130D-03
  0.52982934D-04  0.93573586D-05  0.22739014D-03 -0.53403747D-05 -0.19355697D-04
  0.55606536D-04 -0.36250839D-04  0.95958078D-04  0.34637096D-03  0.70510426D-04
  0.33283593D-05 -0.49213645D-05  0.15930052D-05 -0.11231118D-04 -0.30826223D-04
 -0.11572941D-05 -0.23684941D-04 -0.27991707D-04 -0.33565007D-04 -0.12795327D-03
  0.48041092D-04  0.22204050D-03  0.19900810D-03  0.35934028D-04 -0.12134547D-03
  0.11079122D-03  0.15765683D-05  0.22165263D-04  0.46079527D-05 -0.16974156D-05
 -0.35656928D-04 -0.54851795D-05 -0.30322893D-05 -0.30838861D-04 -0.83386785D-05
 -0.45405649D-04  0.41386053D+00  0.77368822D+00  0.13371748D+01  0.21628202D+01
  0.32689761D+01  0.45019166D+01  0.52616967D+01  0.45465029D+01  0.21205052D+01
  0.28791879D+00  0.77097558D-03  0.15123354D-02  0.69044427D-04 -0.10297617D-02
 -0.19231239D-02 -0.33359559D-02 -0.54091372D-02 -0.83279825D-02 -0.11860918D-01
 -0.15251601D-01 -0.16009642D-01 -0.11319951D-01  0.25068507D-03  0.81335315D-02
  0.44785432D-02 -0.18939683D-04  0.42769162D-03  0.79813583D-03  0.13862664D-02
  0.22454440D-02  0.34685538D-02  0.49449447D-02  0.64317577D-02  0.68545200D-02
  0.50838549D-02 -0.15824153D-03 -0.46057077D-02 -0.45120039D-02  0.21073734D-02
 -0.25078577D-02 -0.34802044D-03 -0.89358732D-04 -0.77187222D-02 -0.10126543D-01
 -0.11107274D-01 -0.91392414D-02 -0.48183888D-02 -0.12535170D-02  0.13871444D-05
  0.29874250D-02  0.39193389D-02  0.42989174D-02  0.35372174D-02  0.18648910D-02
  0.48515649D-03 -0.53687511D-06  0.85231980D-02  0.11181972D-01  0.12264919D-01
  0.10091769D-01  0.53205804D-02  0.13841635D-02 -0.15317181D-05  0.67510084D-02
  0.88641151D-02  0.99727272D-02  0.84027767D-02  0.47003955D-02  0.11699189D-02
 -0.53658116D-03 -0.24182063D-02 -0.31751196D-02 -0.35722236D-02 -0.30098685D-02
 -0.16836782D-02 -0.41906408D-03  0.19220298D-03 -0.74043217D-02 -0.97219195D-02
 -0.10937815D-01 -0.92159360D-02 -0.51552654D-02 -0.12831351D-02  0.58850757D-03
  0.30916991D-03 -0.70827783D-04 -0.35942320D-03  0.94484571D-04 -0.54546738D-04
 -0.11167420D-03  0.17371334D-05 -0.10015824D-05 -0.31356279D-05  0.58358309D-04
 -0.11134118D-03  0.52982876D-04  0.93573844D-05 -0.22739006D-03  0.53403774D-05
 -0.19355695D-04  0.55606523D-04 -0.36250828D-04  0.95958005D-04 -0.34637074D-03
 -0.70510404D-04  0.33283477D-05 -0.49213386D-05  0.15929908D-05 -0.11231111D-04
  0.30826207D-04  0.11572992D-05  0.23684932D-04  0.27991693D-04 -0.33564992D-04
  0.12795320D-03 -0.48041073D-04  0.22204040D-03 -0.19900799D-03 -0.35934005D-04
 -0.12134542D-03  0.11079120D-03 -0.15765691D-05 -0.22165251D-04  0.46079504D-05
  0.16974276D-05  0.35656911D-04 -0.54851711D-05  0.30322797D-05  0.30838841D-04
 -0.83386801D-05 -0.45405647D-04  0.39856483D-04  0.71882809D-04  0.10599116D-03
 -0.62352466D-03  0.31842020D-03  0.70636589D-05  0.50102415D-04  0.13741881D-04
  0.29311698D-04  0.48592355D-03  0.14349288D-03  0.47628424D-03 -0.21689946D-04
 -0.38435721D-05 -0.10035703D-04 -0.10116948D-03  0.17428660D-03 -0.73117119D-04
 -0.13770439D-03 -0.57131385D-03 -0.10920088D-03 -0.31416206D-04  0.64153872D-04
 -0.32737666D-04 -0.16667628D-04 -0.12205183D-03 -0.33915367D-04  0.39856468D-04
  0.71882781D-04  0.10599112D-03 -0.62352449D-03  0.31842015D-03  0.70636615D-05
 -0.50102418D-04 -0.13741881D-04  0.29311699D-04 -0.48592331D-03 -0.14349285D-03
  0.47628401D-03  0.21689966D-04  0.38435764D-05 -0.10035714D-04 -0.10116942D-03
  0.17428648D-03 -0.73117060D-04 -0.13770437D-03  0.57131356D-03  0.10920084D-03
 -0.31416193D-04  0.64153853D-04 -0.32737661D-04 -0.16667600D-04  0.12205175D-03
  0.33915347D-04
MO    3     MO 0.0        OCC NO =    2.0000000  ORB. ENERGY =   -7.894299
 -0.14824519D-02 -0.27713576D-02 -0.47897712D-02 -0.77472400D-02 -0.11709500D-01
 -0.16125902D-01 -0.18847441D-01 -0.16285611D-01 -0.75956670D-02 -0.10313275D-02
 -0.27616409D-05 -0.54171978D-05 -0.24731771D-06 -0.11218388D+00 -0.20950817D+00
 -0.36342434D+00 -0.58928000D+00 -0.90726365D+00 -0.12921472D+01 -0.16615336D+01
 -0.17441159D+01 -0.12332135D+01  0.27310029D-01  0.88607984D+00  0.48789961D+00
 -0.20633192D-02 -0.41315916D-03 -0.77101611D-03 -0.13391627D-02 -0.21691464D-02
 -0.33506964D-02 -0.47769212D-02 -0.62132141D-02 -0.66216114D-02 -0.49111115D-02
  0.15286466D-03  0.44492112D-02  0.43586913D-02 -0.20357673D-02  0.35990392D-01
  0.10917370D-02  0.15020474D-03  0.22052608D-01  0.28931820D-01  0.31733797D-01
  0.26111071D-01  0.13766273D-01  0.35813336D-02 -0.39631108D-05 -0.42099893D-01
 -0.55232768D-01 -0.60581928D-01 -0.49847770D-01 -0.26280730D-01 -0.68370039D-02
  0.75658418D-05  0.26035853D-01  0.34157621D-01  0.37465704D-01  0.30827375D-01
  0.16252802D-01  0.42282108D-02 -0.46789463D-05  0.47805498D-02  0.62768910D-02
  0.70619256D-02  0.59502062D-02  0.33284619D-02  0.82844740D-03 -0.37996589D-03
 -0.25537805D-02 -0.33531293D-02 -0.37724965D-02 -0.31786136D-02 -0.17780719D-02
 -0.44255847D-03  0.20297864D-03  0.53722339D-02  0.70537758D-02  0.79359734D-02
  0.66866576D-02  0.37404225D-02  0.93098355D-03 -0.42699391D-03  0.63593543D-03
 -0.83237412D-03  0.75000196D-03  0.24419638D-03 -0.23163621D-04  0.24716434D-03
  0.33394286D-05 -0.41958166D-06  0.48351917D-05 -0.65461280D-05  0.11454441D-04
 -0.49083128D-05 -0.80265599D-05 -0.11692480D-03  0.18133500D-04 -0.17777231D-03
  0.36349648D-03 -0.18572417D-03  0.16933791D-03  0.46579706D-03  0.18926649D-04
  0.83735670D-06 -0.40576420D-05  0.32202853D-05  0.87707957D-05  0.56442638D-04
  0.22146489D-05  0.15238678D-04 -0.60740980D-05  0.13326534D-04 -0.13923145D-04
 -0.79589261D-06 -0.55429729D-04 -0.31792888D-04  0.19018187D-04  0.15450126D-04
  0.17609393D-05 -0.22026071D-05 -0.13389307D-04 -0.42788660D-05 -0.13475717D-05
  0.23412995D-04  0.12185268D-04  0.79553930D-05  0.16754927D-04  0.65132965D-06
  0.28952177D-04 -0.14824519D-02 -0.27713576D-02 -0.47897713D-02 -0.77472401D-02
 -0.11709500D-01 -0.16125903D-01 -0.18847441D-01 -0.16285611D-01 -0.75956671D-02
 -0.10313275D-02 -0.27616409D-05 -0.54171979D-05 -0.24731771D-06 -0.11218388D+00
 -0.20950817D+00 -0.36342435D+00 -0.58928001D+00 -0.90726366D+00 -0.12921472D+01
 -0.16615336D+01 -0.17441159D+01 -0.12332135D+01  0.27310030D-01  0.88607985D+00
  0.48789962D+00 -0.20633192D-02 -0.41315916D-03 -0.77101612D-03 -0.13391627D-02
 -0.21691465D-02 -0.33506965D-02 -0.47769213D-02 -0.62132142D-02 -0.66216115D-02
 -0.49111115D-02  0.15286467D-03  0.44492112D-02  0.43586914D-02 -0.20357674D-02
  0.35990392D-01  0.10917370D-02  0.15020474D-03 -0.22052608D-01 -0.28931821D-01
 -0.31733797D-01 -0.26111071D-01 -0.13766273D-01 -0.35813336D-02  0.39631108D-05
  0.42099894D-01  0.55232768D-01  0.60581928D-01  0.49847771D-01  0.26280731D-01
  0.68370039D-02 -0.75658419D-05  0.26035853D-01  0.34157621D-01  0.37465704D-01
  0.30827375D-01  0.16252802D-01  0.42282109D-02 -0.46789464D-05 -0.47805498D-02
 -0.62768910D-02 -0.70619256D-02 -0.59502063D-02 -0.33284620D-02 -0.82844741D-03
  0.37996590D-03  0.25537805D-02  0.33531293D-02  0.37724966D-02  0.31786136D-02
  0.17780719D-02  0.44255847D-03 -0.20297864D-03  0.53722339D-02  0.70537759D-02
  0.79359735D-02  0.66866577D-02  0.37404225D-02  0.93098356D-03 -0.42699392D-03
 -0.63593544D-03  0.83237413D-03  0.75000196D-03 -0.24419638D-03  0.23163626D-04
  0.24716434D-03 -0.33394286D-05  0.41958184D-06  0.48351917D-05 -0.65461281D-05
  0.11454441D-04 -0.49083130D-05 -0.80265596D-05  0.11692480D-03 -0.18133500D-04
 -0.17777231D-03  0.36349649D-03 -0.18572417D-03  0.16933791D-03 -0.46579707D-03
 -0.18926650D-04  0.83735658D-06 -0.40576417D-05  0.32202852D-05  0.87707958D-05
 -0.56442639D-04 -0.22146487D-05 -0.15238678D-04  0.60740981D-05  0.13326534D-04
  0.13923144D-04  0.79589242D-06 -0.55429729D-04  0.31792889D-04 -0.19018187D-04
  0.15450125D-04  0.17609401D-05  0.22026071D-05  0.13389307D-04 -0.42788660D-05
  0.13475718D-05 -0.23412995D-04  0.12185268D-04 -0.79553931D-05 -0.16754927D-04
  0.65132959D-06  0.28952177D-04 -0.64785158D-05 -0.11684270D-04 -0.17228449D-04
  0.20701170D-03 -0.80096642D-03 -0.13779610D-04  0.59373941D-04 -0.56393496D-05
  0.74194505D-04 -0.23943466D-03 -0.77827231D-04 -0.23522252D-03  0.90426658D-04
  0.12690135D-04  0.73628720D-04  0.31602469D-04 -0.46416361D-04  0.14813893D-04
  0.74410287D-04  0.15272076D-03  0.38931589D-04  0.21331184D-04 -0.45390305D-04
  0.24059120D-04  0.11966664D-04  0.99599205D-04  0.33900909D-04 -0.64785158D-05
 -0.11684270D-04 -0.17228449D-04  0.20701170D-03 -0.80096643D-03 -0.13779610D-04
 -0.59373942D-04  0.56393497D-05  0.74194506D-04  0.23943467D-03  0.77827231D-04
 -0.23522252D-03 -0.90426659D-04 -0.12690135D-04  0.73628721D-04  0.31602469D-04
 -0.46416362D-04  0.14813893D-04  0.74410288D-04 -0.15272076D-03 -0.38931590D-04
  0.21331184D-04 -0.45390305D-04  0.24059121D-04  0.11966664D-04 -0.99599206D-04
 -0.33900909D-04
MO    4     MO 0.0        OCC NO =    2.0000000  ORB. ENERGY =   -7.894257
 -0.15180922D-02 -0.28379852D-02 -0.49049245D-02 -0.79334954D-02 -0.11991014D-01
 -0.16513593D-01 -0.19300562D-01 -0.16677142D-01 -0.77782784D-02 -0.10561222D-02
 -0.28280349D-05 -0.55474355D-05 -0.25326360D-06 -0.11212046D+00 -0.20938973D+00
 -0.36321889D+00 -0.58894688D+00 -0.90675077D+00 -0.12914168D+01 -0.16605943D+01
 -0.17431299D+01 -0.12325164D+01  0.27294591D-01  0.88557893D+00  0.48762379D+00
 -0.20621528D-02 -0.45034513D-03 -0.84041063D-03 -0.14596927D-02 -0.23643783D-02
 -0.36522725D-02 -0.52068632D-02 -0.67724282D-02 -0.72175828D-02 -0.53531311D-02
  0.16662309D-03  0.48496579D-02  0.47509909D-02 -0.22189945D-02  0.36033416D-01
  0.15660671D-02  0.38669773D-03  0.22666569D-01  0.29737304D-01  0.32617290D-01
  0.26838023D-01  0.14149537D-01  0.36810406D-02 -0.40734468D-05 -0.42469877D-01
 -0.55718166D-01 -0.61114335D-01 -0.50285843D-01 -0.26511691D-01 -0.68970890D-02
  0.76323321D-05  0.26905326D-01  0.35298323D-01  0.38716880D-01  0.31856862D-01
  0.16795568D-01  0.43694129D-02 -0.48352009D-05  0.42507895D-02  0.55813125D-02
  0.62793529D-02  0.52908296D-02  0.29596159D-02  0.73664237D-03 -0.33785968D-03
 -0.22127955D-02 -0.29054139D-02 -0.32687866D-02 -0.27541998D-02 -0.15406608D-02
 -0.38346733D-03  0.17587660D-03  0.46358293D-02  0.60868721D-02  0.68481415D-02
  0.57700770D-02  0.32277002D-02  0.80336800D-03 -0.36846327D-03  0.59599872D-03
 -0.82667874D-03  0.68948634D-03  0.13175061D-03 -0.41815570D-03  0.18473969D-03
  0.26965766D-05 -0.15333122D-04  0.35516914D-05 -0.16769201D-04  0.39844552D-04
 -0.23075351D-04  0.23557946D-04 -0.10306149D-03  0.15490164D-04 -0.12966920D-03
  0.26847470D-03 -0.13880549D-03  0.11336846D-03  0.46234710D-03  0.39617050D-04
 -0.11026921D-04  0.27593421D-04 -0.16566501D-04  0.89219278D-05  0.42789865D-04
 -0.10648190D-04  0.61041555D-05 -0.71014010D-05  0.13892532D-04  0.30469379D-04
  0.15000596D-04 -0.22341148D-04 -0.48781846D-04  0.63036067D-05 -0.19336447D-04
  0.63531592D-04  0.16837167D-06 -0.61573792D-05 -0.26035605D-05 -0.13322445D-04
  0.57531474D-05  0.10467660D-04  0.12817330D-04  0.12718990D-04 -0.26569788D-05
  0.38487763D-06  0.15180922D-02  0.28379852D-02  0.49049245D-02  0.79334953D-02
  0.11991014D-01  0.16513593D-01  0.19300562D-01  0.16677142D-01  0.77782783D-02
  0.10561221D-02  0.28280349D-05  0.55474354D-05  0.25326360D-06  0.11212046D+00
  0.20938973D+00  0.36321889D+00  0.58894687D+00  0.90675075D+00  0.12914167D+01
  0.16605943D+01  0.17431299D+01  0.12325163D+01 -0.27294590D-01 -0.88557892D+00
 -0.48762379D+00  0.20621527D-02  0.45034512D-03  0.84041062D-03  0.14596927D-02
  0.23643782D-02  0.36522724D-02  0.52068631D-02  0.67724281D-02  0.72175828D-02
  0.53531310D-02 -0.16662309D-03 -0.48496579D-02 -0.47509909D-02  0.22189945D-02
 -0.36033415D-01 -0.15660671D-02 -0.38669773D-03  0.22666569D-01  0.29737304D-01
  0.32617290D-01  0.26838023D-01  0.14149536D-01  0.36810406D-02 -0.40734467D-05
 -0.42469876D-01 -0.55718165D-01 -0.61114334D-01 -0.50285843D-01 -0.26511691D-01
 -0.68970889D-02  0.76323320D-05 -0.26905326D-01 -0.35298322D-01 -0.38716880D-01
 -0.31856862D-01 -0.16795568D-01 -0.43694129D-02  0.48352008D-05  0.42507894D-02
  0.55813124D-02  0.62793528D-02  0.52908295D-02  0.29596158D-02  0.73664236D-03
 -0.33785968D-03 -0.22127955D-02 -0.29054139D-02 -0.32687866D-02 -0.27541998D-02
 -0.15406608D-02 -0.38346733D-03  0.17587659D-03 -0.46358292D-02 -0.60868720D-02
 -0.68481414D-02 -0.57700769D-02 -0.32277001D-02 -0.80336799D-03  0.36846327D-03
  0.59599871D-03 -0.82667873D-03 -0.68948633D-03  0.13175061D-03 -0.41815570D-03
 -0.18473969D-03  0.26965765D-05 -0.15333122D-04 -0.35516913D-05  0.16769201D-04
 -0.39844552D-04  0.23075351D-04 -0.23557946D-04 -0.10306149D-03  0.15490164D-04
  0.12966920D-03 -0.26847469D-03  0.13880549D-03 -0.11336846D-03  0.46234709D-03
  0.39617050D-04  0.11026921D-04 -0.27593422D-04  0.16566501D-04 -0.89219277D-05
  0.42789865D-04 -0.10648190D-04  0.61041554D-05 -0.71014009D-05 -0.13892531D-04
  0.30469379D-04  0.15000596D-04  0.22341148D-04 -0.48781845D-04  0.63036064D-05
  0.19336447D-04 -0.63531592D-04  0.16837169D-06 -0.61573790D-05  0.26035604D-05
 -0.13322445D-04  0.57531472D-05 -0.10467660D-04  0.12817330D-04  0.12718990D-04
  0.26569787D-05 -0.38487731D-06 -0.43330274D-05 -0.78147934D-05 -0.11522908D-04
  0.10119531D-03 -0.43639846D-03 -0.80443793D-05  0.10165827D-03 -0.12691191D-04
  0.97214507D-04 -0.24204295D-03 -0.32029667D-04 -0.23070325D-03  0.19261809D-04
  0.46719924D-05  0.35116046D-04  0.27794889D-04 -0.54741272D-04  0.26946383D-04
  0.64490985D-04  0.14027160D-03  0.91797675D-04  0.16942302D-04 -0.20034321D-04
  0.30920189D-05  0.45905304D-04  0.10764056D-03  0.25987055D-04  0.43330274D-05
  0.78147934D-05  0.11522908D-04 -0.10119531D-03  0.43639845D-03  0.80443791D-05
  0.10165827D-03 -0.12691191D-04 -0.97214506D-04 -0.24204295D-03 -0.32029667D-04
  0.23070325D-03  0.19261808D-04  0.46719922D-05 -0.35116045D-04 -0.27794889D-04
  0.54741272D-04 -0.26946383D-04 -0.64490984D-04  0.14027160D-03  0.91797675D-04
 -0.16942302D-04  0.20034321D-04 -0.30920186D-05 -0.45905304D-04  0.10764056D-03
  0.25987055D-04
MO    5     MO 0.0        OCC NO =    2.0000000  ORB. ENERGY =   -5.836906
 -0.64265609D-04 -0.12014082D-03 -0.20764085D-03 -0.33584976D-03 -0.50761724D-03
 -0.69907224D-03 -0.81705337D-03 -0.70599575D-03 -0.32927893D-03 -0.44708966D-04
 -0.11971959D-06 -0.23484035D-06 -0.10721443D-07  0.51416725D-03  0.96022923D-03
  0.16656662D-02  0.27008201D-02  0.41582200D-02  0.59222394D-02  0.76152310D-02
  0.79937265D-02  0.56521311D-02 -0.12516881D-03 -0.40611292D-02 -0.22361680D-02
  0.94567165D-05 -0.39602430D-04 -0.73903993D-04 -0.12836239D-03 -0.20791859D-03
 -0.32117337D-03 -0.45788090D-03 -0.59555348D-03 -0.63469948D-03 -0.47074340D-03
  0.14652494D-04  0.42646900D-03  0.41779242D-03 -0.19513384D-03  0.20609464D-03
 -0.29450861D-03 -0.32266468D-04 -0.22400330D+01 -0.29388013D+01 -0.32234171D+01
 -0.26522787D+01 -0.13983338D+01 -0.36378036D+00  0.40256005D-03 -0.62693844D+01
 -0.82250909D+01 -0.90216710D+01 -0.74231739D+01 -0.39136441D+01 -0.10181452D+01
  0.11266815D-02 -0.16792042D+01 -0.22030244D+01 -0.24163820D+01 -0.19882374D+01