 Molden2AIM, Version 4.0.0 (06/02/2016)           Time: Sat Jun 30 02:56:22 2018
GAUSSIAN             25 MOL ORBITALS    512 PRIMITIVES        8 NUCLEI
  P    1    (CENTRE  1)  -2.31202700  1.30191548 -0.16594630  CHARGE = 15.0
  O    2    (CENTRE  2)   0.66468282  1.98295576  0.09448631  CHARGE =  8.0
  O    3    (CENTRE  3)  -3.23637520  3.40013697 -2.19947302  CHARGE =  8.0
  O    4    (CENTRE  4)  -3.42955434  2.45622066  2.44396201  CHARGE =  8.0
  H    5    (CENTRE  5)   1.64401449  0.92649492 -1.02461328  CHARGE =  1.0
  H    6    (CENTRE  6)  -4.81605774  2.88451575 -2.95197141  CHARGE =  1.0
  H    7    (CENTRE  7)  -3.51618316  1.15061644  3.71497857  CHARGE =  1.0
  O    8    (CENTRE  8)  -2.95069207 -1.38766180 -0.73789648  CHARGE =  8.0
CENTRE ASSIGNMENTS    1  1  1  1  1  1  1  1  1  1  1  1  1  1  1  1  1  1  1  1
CENTRE ASSIGNMENTS    1  1  1  1  1  1  1  1  1  1  1  1  1  1  1  1  1  1  1  1
CENTRE ASSIGNMENTS    1  1  1  1  1  1  1  1  1  1  1  1  1  1  1  1  1  1  1  1
CENTRE ASSIGNMENTS    1  1  1  1  1  1  1  1  1  1  1  1  1  1  1  1  1  1  1  1
CENTRE ASSIGNMENTS    1  1  1  1  1  1  1  1  1  1  1  1  1  1  1  1  1  1  1  1
CENTRE ASSIGNMENTS    1  1  1  1  1  1  1  1  1  1  1  1  1  1  1  1  1  1  1  1
CENTRE ASSIGNMENTS    1  1  1  1  1  1  1  1  1  1  1  2  2  2  2  2  2  2  2  2
CENTRE ASSIGNMENTS    2  2  2  2  2  2  2  2  2  2  2  2  2  2  2  2  2  2  2  2
CENTRE ASSIGNMENTS    2  2  2  2  2  2  2  2  2  2  2  2  2  2  2  2  2  2  2  2
CENTRE ASSIGNMENTS    2  2  2  2  2  2  2  2  2  2  2  2  2  2  2  2  2  2  2  2
CENTRE ASSIGNMENTS    2  2  2  2  2  2  3  3  3  3  3  3  3  3  3  3  3  3  3  3
CENTRE ASSIGNMENTS    3  3  3  3  3  3  3  3  3  3  3  3  3  3  3  3  3  3  3  3
CENTRE ASSIGNMENTS    3  3  3  3  3  3  3  3  3  3  3  3  3  3  3  3  3  3  3  3
CENTRE ASSIGNMENTS    3  3  3  3  3  3  3  3  3  3  3  3  3  3  3  3  3  3  3  3
CENTRE ASSIGNMENTS    3  4  4  4  4  4  4  4  4  4  4  4  4  4  4  4  4  4  4  4
CENTRE ASSIGNMENTS    4  4  4  4  4  4  4  4  4  4  4  4  4  4  4  4  4  4  4  4
CENTRE ASSIGNMENTS    4  4  4  4  4  4  4  4  4  4  4  4  4  4  4  4  4  4  4  4
CENTRE ASSIGNMENTS    4  4  4  4  4  4  4  4  4  4  4  4  4  4  4  4  5  5  5  5
CENTRE ASSIGNMENTS    5  5  5  5  5  5  5  5  5  5  5  5  5  5  5  5  5  5  5  5
CENTRE ASSIGNMENTS    5  5  5  6  6  6  6  6  6  6  6  6  6  6  6  6  6  6  6  6
CENTRE ASSIGNMENTS    6  6  6  6  6  6  6  6  6  6  7  7  7  7  7  7  7  7  7  7
CENTRE ASSIGNMENTS    7  7  7  7  7  7  7  7  7  7  7  7  7  7  7  7  7  8  8  8
CENTRE ASSIGNMENTS    8  8  8  8  8  8  8  8  8  8  8  8  8  8  8  8  8  8  8  8
CENTRE ASSIGNMENTS    8  8  8  8  8  8  8  8  8  8  8  8  8  8  8  8  8  8  8  8
CENTRE ASSIGNMENTS    8  8  8  8  8  8  8  8  8  8  8  8  8  8  8  8  8  8  8  8
CENTRE ASSIGNMENTS    8  8  8  8  8  8  8  8  8  8  8  8
TYPE ASSIGNMENTS      1  1  1  1  1  1  1  1  1  1  1  1  1  1  1  1  1  1  1  1
TYPE ASSIGNMENTS      1  1  1  1  1  1  1  1  1  1  1  1  1  1  1  1  1  1  1  1
TYPE ASSIGNMENTS      1  1  2  2  2  2  2  2  2  3  3  3  3  3  3  3  4  4  4  4
TYPE ASSIGNMENTS      4  4  4  2  2  2  2  2  2  2  3  3  3  3  3  3  3  4  4  4
TYPE ASSIGNMENTS      4  4  4  4  2  3  4  2  3  4  2  3  4  5  6  7  8  9 10  5
TYPE ASSIGNMENTS      6  7  8  9 10  5  6  7  8  9 10 11 12 13 17 14 15 18 19 16
TYPE ASSIGNMENTS     20 11 12 13 17 14 15 18 19 16 20  1  1  1  1  1  1  1  1  1
TYPE ASSIGNMENTS      1  1  1  1  1  1  1  1  1  1  2  2  2  3  3  3  4  4  4  2
TYPE ASSIGNMENTS      3  4  2  3  4  2  3  4  5  6  7  8  9 10  5  6  7  8  9 10
TYPE ASSIGNMENTS      5  6  7  8  9 10 11 12 13 17 14 15 18 19 16 20 11 12 13 17
TYPE ASSIGNMENTS     14 15 18 19 16 20  1  1  1  1  1  1  1  1  1  1  1  1  1  1
TYPE ASSIGNMENTS      1  1  1  1  1  2  2  2  3  3  3  4  4  4  2  3  4  2  3  4
TYPE ASSIGNMENTS      2  3  4  5  6  7  8  9 10  5  6  7  8  9 10  5  6  7  8  9
TYPE ASSIGNMENTS     10 11 12 13 17 14 15 18 19 16 20 11 12 13 17 14 15 18 19 16
TYPE ASSIGNMENTS     20  1  1  1  1  1  1  1  1  1  1  1  1  1  1  1  1  1  1  1
TYPE ASSIGNMENTS      2  2  2  3  3  3  4  4  4  2  3  4  2  3  4  2  3  4  5  6
TYPE ASSIGNMENTS      7  8  9 10  5  6  7  8  9 10  5  6  7  8  9 10 11 12 13 17
TYPE ASSIGNMENTS     14 15 18 19 16 20 11 12 13 17 14 15 18 19 16 20  1  1  1  1
TYPE ASSIGNMENTS      1  1  2  3  4  2  3  4  2  3  4  5  6  7  8  9 10  5  6  7
TYPE ASSIGNMENTS      8  9 10  1  1  1  1  1  1  2  3  4  2  3  4  2  3  4  5  6
TYPE ASSIGNMENTS      7  8  9 10  5  6  7  8  9 10  1  1  1  1  1  1  2  3  4  2
TYPE ASSIGNMENTS      3  4  2  3  4  5  6  7  8  9 10  5  6  7  8  9 10  1  1  1
TYPE ASSIGNMENTS      1  1  1  1  1  1  1  1  1  1  1  1  1  1  1  1  2  2  2  3
TYPE ASSIGNMENTS      3  3  4  4  4  2  3  4  2  3  4  2  3  4  5  6  7  8  9 10
TYPE ASSIGNMENTS      5  6  7  8  9 10  5  6  7  8  9 10 11 12 13 17 14 15 18 19
TYPE ASSIGNMENTS     16 20 11 12 13 17 14 15 18 19 16 20
EXPONENTS  0.3124000D+06 0.4680000D+05 0.1065000D+05 0.3018000D+04 0.9868000D+03
EXPONENTS  0.3574000D+03 0.1396000D+03 0.5763000D+02 0.2460000D+02 0.1012000D+02
EXPONENTS  0.4283000D+01 0.1805000D+01 0.2782000D+00 0.3124000D+06 0.4680000D+05
EXPONENTS  0.1065000D+05 0.3018000D+04 0.9868000D+03 0.3574000D+03 0.1396000D+03
EXPONENTS  0.5763000D+02 0.2460000D+02 0.1012000D+02 0.4283000D+01 0.1805000D+01
EXPONENTS  0.2782000D+00 0.3124000D+06 0.4680000D+05 0.1065000D+05 0.3018000D+04
EXPONENTS  0.9868000D+03 0.3574000D+03 0.1396000D+03 0.5763000D+02 0.2460000D+02
EXPONENTS  0.1012000D+02 0.4283000D+01 0.1805000D+01 0.2782000D+00 0.6158000D+00
EXPONENTS  0.1055000D+00 0.4090000D-01 0.5049000D+03 0.1194000D+03 0.3796000D+02
EXPONENTS  0.1395000D+02 0.5457000D+01 0.2177000D+01 0.2877000D+00 0.5049000D+03
EXPONENTS  0.1194000D+03 0.3796000D+02 0.1395000D+02 0.5457000D+01 0.2177000D+01
EXPONENTS  0.2877000D+00 0.5049000D+03 0.1194000D+03 0.3796000D+02 0.1395000D+02
EXPONENTS  0.5457000D+01 0.2177000D+01 0.2877000D+00 0.5049000D+03 0.1194000D+03
EXPONENTS  0.3796000D+02 0.1395000D+02 0.5457000D+01 0.2177000D+01 0.2877000D+00
EXPONENTS  0.5049000D+03 0.1194000D+03 0.3796000D+02 0.1395000D+02 0.5457000D+01
EXPONENTS  0.2177000D+01 0.2877000D+00 0.5049000D+03 0.1194000D+03 0.3796000D+02
EXPONENTS  0.1395000D+02 0.5457000D+01 0.2177000D+01 0.2877000D+00 0.8010000D+00
EXPONENTS  0.8010000D+00 0.8010000D+00 0.9714000D-01 0.9714000D-01 0.9714000D-01
EXPONENTS  0.3070000D-01 0.3070000D-01 0.3070000D-01 0.2160000D+00 0.2160000D+00
EXPONENTS  0.2160000D+00 0.2160000D+00 0.2160000D+00 0.2160000D+00 0.6520000D+00
EXPONENTS  0.6520000D+00 0.6520000D+00 0.6520000D+00 0.6520000D+00 0.6520000D+00
EXPONENTS  0.7750000D-01 0.7750000D-01 0.7750000D-01 0.7750000D-01 0.7750000D-01
EXPONENTS  0.7750000D-01 0.4520000D+00 0.4520000D+00 0.4520000D+00 0.4520000D+00
EXPONENTS  0.4520000D+00 0.4520000D+00 0.4520000D+00 0.4520000D+00 0.4520000D+00
EXPONENTS  0.4520000D+00 0.1650000D+00 0.1650000D+00 0.1650000D+00 0.1650000D+00
EXPONENTS  0.1650000D+00 0.1650000D+00 0.1650000D+00 0.1650000D+00 0.1650000D+00
EXPONENTS  0.1650000D+00 0.1533000D+05 0.2299000D+04 0.5224000D+03 0.1473000D+03
EXPONENTS  0.4755000D+02 0.1676000D+02 0.6207000D+01 0.6882000D+00 0.1533000D+05
EXPONENTS  0.2299000D+04 0.5224000D+03 0.1473000D+03 0.4755000D+02 0.1676000D+02
EXPONENTS  0.6207000D+01 0.6882000D+00 0.1752000D+01 0.2384000D+00 0.7376000D-01
EXPONENTS  0.3446000D+02 0.7749000D+01 0.2280000D+01 0.3446000D+02 0.7749000D+01
EXPONENTS  0.2280000D+01 0.3446000D+02 0.7749000D+01 0.2280000D+01 0.7156000D+00
EXPONENTS  0.7156000D+00 0.7156000D+00 0.2140000D+00 0.2140000D+00 0.2140000D+00
EXPONENTS  0.5974000D-01 0.5974000D-01 0.5974000D-01 0.2314000D+01 0.2314000D+01
EXPONENTS  0.2314000D+01 0.2314000D+01 0.2314000D+01 0.2314000D+01 0.6450000D+00
EXPONENTS  0.6450000D+00 0.6450000D+00 0.6450000D+00 0.6450000D+00 0.6450000D+00
EXPONENTS  0.2140000D+00 0.2140000D+00 0.2140000D+00 0.2140000D+00 0.2140000D+00
EXPONENTS  0.2140000D+00 0.1428000D+01 0.1428000D+01 0.1428000D+01 0.1428000D+01
EXPONENTS  0.1428000D+01 0.1428000D+01 0.1428000D+01 0.1428000D+01 0.1428000D+01
EXPONENTS  0.1428000D+01 0.5000000D+00 0.5000000D+00 0.5000000D+00 0.5000000D+00
EXPONENTS  0.5000000D+00 0.5000000D+00 0.5000000D+00 0.5000000D+00 0.5000000D+00
EXPONENTS  0.5000000D+00 0.1533000D+05 0.2299000D+04 0.5224000D+03 0.1473000D+03
EXPONENTS  0.4755000D+02 0.1676000D+02 0.6207000D+01 0.6882000D+00 0.1533000D+05
EXPONENTS  0.2299000D+04 0.5224000D+03 0.1473000D+03 0.4755000D+02 0.1676000D+02
EXPONENTS  0.6207000D+01 0.6882000D+00 0.1752000D+01 0.2384000D+00 0.7376000D-01
EXPONENTS  0.3446000D+02 0.7749000D+01 0.2280000D+01 0.3446000D+02 0.7749000D+01
EXPONENTS  0.2280000D+01 0.3446000D+02 0.7749000D+01 0.2280000D+01 0.7156000D+00
EXPONENTS  0.7156000D+00 0.7156000D+00 0.2140000D+00 0.2140000D+00 0.2140000D+00
EXPONENTS  0.5974000D-01 0.5974000D-01 0.5974000D-01 0.2314000D+01 0.2314000D+01
EXPONENTS  0.2314000D+01 0.2314000D+01 0.2314000D+01 0.2314000D+01 0.6450000D+00
EXPONENTS  0.6450000D+00 0.6450000D+00 0.6450000D+00 0.6450000D+00 0.6450000D+00
EXPONENTS  0.2140000D+00 0.2140000D+00 0.2140000D+00 0.2140000D+00 0.2140000D+00
EXPONENTS  0.2140000D+00 0.1428000D+01 0.1428000D+01 0.1428000D+01 0.1428000D+01
EXPONENTS  0.1428000D+01 0.1428000D+01 0.1428000D+01 0.1428000D+01 0.1428000D+01
EXPONENTS  0.1428000D+01 0.5000000D+00 0.5000000D+00 0.5000000D+00 0.5000000D+00
EXPONENTS  0.5000000D+00 0.5000000D+00 0.5000000D+00 0.5000000D+00 0.5000000D+00
EXPONENTS  0.5000000D+00 0.1533000D+05 0.2299000D+04 0.5224000D+03 0.1473000D+03
EXPONENTS  0.4755000D+02 0.1676000D+02 0.6207000D+01 0.6882000D+00 0.1533000D+05
EXPONENTS  0.2299000D+04 0.5224000D+03 0.1473000D+03 0.4755000D+02 0.1676000D+02
EXPONENTS  0.6207000D+01 0.6882000D+00 0.1752000D+01 0.2384000D+00 0.7376000D-01
EXPONENTS  0.3446000D+02 0.7749000D+01 0.2280000D+01 0.3446000D+02 0.7749000D+01
EXPONENTS  0.2280000D+01 0.3446000D+02 0.7749000D+01 0.2280000D+01 0.7156000D+00
EXPONENTS  0.7156000D+00 0.7156000D+00 0.2140000D+00 0.2140000D+00 0.2140000D+00
EXPONENTS  0.5974000D-01 0.5974000D-01 0.5974000D-01 0.2314000D+01 0.2314000D+01
EXPONENTS  0.2314000D+01 0.2314000D+01 0.2314000D+01 0.2314000D+01 0.6450000D+00
EXPONENTS  0.6450000D+00 0.6450000D+00 0.6450000D+00 0.6450000D+00 0.6450000D+00
EXPONENTS  0.2140000D+00 0.2140000D+00 0.2140000D+00 0.2140000D+00 0.2140000D+00
EXPONENTS  0.2140000D+00 0.1428000D+01 0.1428000D+01 0.1428000D+01 0.1428000D+01
EXPONENTS  0.1428000D+01 0.1428000D+01 0.1428000D+01 0.1428000D+01 0.1428000D+01
EXPONENTS  0.1428000D+01 0.5000000D+00 0.5000000D+00 0.5000000D+00 0.5000000D+00
EXPONENTS  0.5000000D+00 0.5000000D+00 0.5000000D+00 0.5000000D+00 0.5000000D+00
EXPONENTS  0.5000000D+00 0.3387000D+02 0.5095000D+01 0.1159000D+01 0.3258000D+00
EXPONENTS  0.1027000D+00 0.2526000D-01 0.1407000D+01 0.1407000D+01 0.1407000D+01
EXPONENTS  0.3880000D+00 0.3880000D+00 0.3880000D+00 0.1020000D+00 0.1020000D+00
EXPONENTS  0.1020000D+00 0.1057000D+01 0.1057000D+01 0.1057000D+01 0.1057000D+01
EXPONENTS  0.1057000D+01 0.1057000D+01 0.2470000D+00 0.2470000D+00 0.2470000D+00
EXPONENTS  0.2470000D+00 0.2470000D+00 0.2470000D+00 0.3387000D+02 0.5095000D+01
EXPONENTS  0.1159000D+01 0.3258000D+00 0.1027000D+00 0.2526000D-01 0.1407000D+01
EXPONENTS  0.1407000D+01 0.1407000D+01 0.3880000D+00 0.3880000D+00 0.3880000D+00
EXPONENTS  0.1020000D+00 0.1020000D+00 0.1020000D+00 0.1057000D+01 0.1057000D+01
EXPONENTS  0.1057000D+01 0.1057000D+01 0.1057000D+01 0.1057000D+01 0.2470000D+00
EXPONENTS  0.2470000D+00 0.2470000D+00 0.2470000D+00 0.2470000D+00 0.2470000D+00
EXPONENTS  0.3387000D+02 0.5095000D+01 0.1159000D+01 0.3258000D+00 0.1027000D+00
EXPONENTS  0.2526000D-01 0.1407000D+01 0.1407000D+01 0.1407000D+01 0.3880000D+00
EXPONENTS  0.3880000D+00 0.3880000D+00 0.1020000D+00 0.1020000D+00 0.1020000D+00
EXPONENTS  0.1057000D+01 0.1057000D+01 0.1057000D+01 0.1057000D+01 0.1057000D+01
EXPONENTS  0.1057000D+01 0.2470000D+00 0.2470000D+00 0.2470000D+00 0.2470000D+00
EXPONENTS  0.2470000D+00 0.2470000D+00 0.1533000D+05 0.2299000D+04 0.5224000D+03
EXPONENTS  0.1473000D+03 0.4755000D+02 0.1676000D+02 0.6207000D+01 0.6882000D+00
EXPONENTS  0.1533000D+05 0.2299000D+04 0.5224000D+03 0.1473000D+03 0.4755000D+02
EXPONENTS  0.1676000D+02 0.6207000D+01 0.6882000D+00 0.1752000D+01 0.2384000D+00
EXPONENTS  0.7376000D-01 0.3446000D+02 0.7749000D+01 0.2280000D+01 0.3446000D+02
EXPONENTS  0.7749000D+01 0.2280000D+01 0.3446000D+02 0.7749000D+01 0.2280000D+01
EXPONENTS  0.7156000D+00 0.7156000D+00 0.7156000D+00 0.2140000D+00 0.2140000D+00
EXPONENTS  0.2140000D+00 0.5974000D-01 0.5974000D-01 0.5974000D-01 0.2314000D+01
EXPONENTS  0.2314000D+01 0.2314000D+01 0.2314000D+01 0.2314000D+01 0.2314000D+01
EXPONENTS  0.6450000D+00 0.6450000D+00 0.6450000D+00 0.6450000D+00 0.6450000D+00
EXPONENTS  0.6450000D+00 0.2140000D+00 0.2140000D+00 0.2140000D+00 0.2140000D+00
EXPONENTS  0.2140000D+00 0.2140000D+00 0.1428000D+01 0.1428000D+01 0.1428000D+01
EXPONENTS  0.1428000D+01 0.1428000D+01 0.1428000D+01 0.1428000D+01 0.1428000D+01
EXPONENTS  0.1428000D+01 0.1428000D+01 0.5000000D+00 0.5000000D+00 0.5000000D+00
EXPONENTS  0.5000000D+00 0.5000000D+00 0.5000000D+00 0.5000000D+00 0.5000000D+00
EXPONENTS  0.5000000D+00 0.5000000D+00
MO    1     MO 0.0        OCC NO =    2.0000000  ORB. ENERGY =  -76.916259
  0.54488851D+00  0.10194782D+01  0.17603377D+01  0.28469158D+01  0.42968409D+01
  0.58868049D+01  0.68029686D+01  0.57170453D+01  0.25111768D+01  0.28702337D+00
 -0.38683986D-02  0.24060358D-02  0.11835286D-03 -0.28608085D-02 -0.53508427D-02
 -0.92646950D-02 -0.15043699D-01 -0.23103606D-01 -0.32858632D-01 -0.41807331D-01
 -0.43327114D-01 -0.28913222D-01  0.28475837D-02  0.21750899D-01  0.11168197D-01
 -0.48988861D-04  0.14232783D-02  0.26597102D-02  0.46120317D-02  0.74789028D-02
  0.11527929D-01  0.16403613D-01  0.21122892D-01  0.22205481D-01  0.15566723D-01
 -0.18074358D-02 -0.14632342D-01 -0.13771022D-01  0.67155659D-02 -0.37116236D-02
 -0.16352163D-02  0.10702467D-03  0.14113192D-03  0.18462748D-03  0.20198893D-03
  0.16638287D-03  0.88961126D-04  0.24580822D-04 -0.20147796D-07  0.55934534D-03
  0.73173046D-03  0.80053876D-03  0.65942198D-03  0.35257788D-03  0.97420690D-04
 -0.79851364D-07  0.11138348D-03  0.14571085D-03  0.15941277D-03  0.13131192D-03
  0.70209490D-04  0.19399563D-04 -0.15900951D-07 -0.24324273D-04 -0.32215218D-04
 -0.35589162D-04 -0.30482226D-04 -0.16629208D-04 -0.51113825D-05  0.22253170D-05
 -0.72987591D-04 -0.96665219D-04 -0.10678910D-03 -0.91465190D-04 -0.49897722D-04
 -0.15337252D-04  0.66773023D-05 -0.86526120D-05 -0.11459573D-04 -0.12659750D-04
 -0.10843114D-04 -0.59153293D-05 -0.18182171D-05  0.79158807D-06 -0.34584210D-04
 -0.14277840D-03 -0.30265183D-04  0.99459152D-05  0.48126450D-04  0.92238995D-05
 -0.47458327D-07 -0.95987022D-07  0.36100325D-07 -0.63971296D-04  0.13092049D-03
 -0.66949190D-04  0.98542458D-04  0.19714239D-04  0.87891526D-04 -0.81303375D-04
  0.16600272D-03 -0.84699349D-04  0.12350105D-03  0.26097969D-04  0.11066521D-03
 -0.28411652D-05  0.56333255D-05 -0.27921603D-05  0.43902974D-05  0.10718447D-05
  0.38321090D-05  0.16901283D-03 -0.15913863D-03  0.58175944D-04 -0.25655765D-03
  0.15220430D-03  0.91230065D-04 -0.25048085D-03  0.32521160D-03 -0.26575790D-03
 -0.32477337D-04 -0.56550670D-04  0.47706876D-04 -0.46485473D-04  0.85148791D-04
 -0.60860818D-04  0.56096865D-04  0.84503218D-04 -0.82259809D-04  0.83359556D-04
 -0.34507281D-04  0.62580863D-04  0.11664268D-03  0.19778733D-03  0.29936034D-03
  0.37351430D-03  0.32079897D-03  0.12316096D-03 -0.55090654D-06 -0.46225988D-04
 -0.86697986D-04 -0.14780106D-03 -0.23098429D-03 -0.30887000D-03 -0.32980115D-03
 -0.20163396D-03  0.13302584D-03  0.72557791D-04  0.58392521D-03 -0.19124599D-03
 -0.32269062D-03 -0.31290135D-03 -0.21108141D-03 -0.41605721D-04 -0.40343554D-04
 -0.27215523D-04 -0.36776845D-04 -0.35661169D-04 -0.24056814D-04  0.20892432D-03
 -0.32681216D-04 -0.20099742D-04  0.42133209D-03 -0.54522297D-04 -0.25722845D-03
  0.27520893D-04  0.80171342D-05  0.42243493D-06  0.42287292D-03 -0.18309277D-03
 -0.23978015D-03  0.47359778D-03  0.18197814D-03  0.12111361D-03 -0.28576481D-03
  0.11804303D-03  0.16772178D-03 -0.35638419D-03 -0.20414447D-03  0.24183555D-04
 -0.21136425D-03  0.56927280D-04  0.15443697D-03 -0.77003155D-04  0.27884485D-05
  0.54045500D-04 -0.21741417D-03  0.85898076D-04  0.40074284D-04  0.12663888D-03
 -0.18455016D-03 -0.18505975D-03  0.52560364D-03 -0.73144072D-04  0.64836898D-04
  0.34289627D-04  0.13766521D-03 -0.48317225D-04 -0.18164324D-04 -0.13478691D-03
  0.19336705D-03  0.99695681D-04 -0.27820872D-03 -0.48415373D-04 -0.45202709D-04
  0.72786416D-04  0.62097108D-04  0.11574102D-03  0.19625842D-03  0.29704626D-03
  0.37062700D-03  0.31831916D-03  0.12220892D-03 -0.54664798D-06 -0.45883095D-04
 -0.86054883D-04 -0.14670471D-03 -0.22927091D-03 -0.30657889D-03 -0.32735477D-03
 -0.20013829D-03  0.13203909D-03  0.71562944D-04  0.59896019D-03 -0.18838079D-03
  0.10035353D-03  0.97309170D-04  0.65644191D-04 -0.19889421D-03 -0.19286048D-03
 -0.13010254D-03  0.23967355D-03  0.23240272D-03  0.15677750D-03 -0.11604262D-03
  0.72560315D-04 -0.16546589D-03 -0.42973633D-03  0.13666211D-03 -0.23819371D-03
 -0.10158454D-04  0.20507992D-04 -0.17226714D-04 -0.20313131D-03  0.19009382D-03
  0.13037492D-04 -0.23434133D-03  0.23406201D-03 -0.74135401D-03  0.19148028D-03
 -0.14508185D-03 -0.46398429D-04  0.21970666D-03 -0.70486167D-04  0.49882004D-03
  0.99502830D-04 -0.38421621D-04 -0.61081210D-04  0.19837128D-03 -0.20334225D-03
  0.20720938D-03 -0.17906430D-03  0.39502934D-04 -0.10783436D-04  0.19282661D-03
  0.11718549D-03 -0.25082584D-03  0.34436629D-03 -0.23569429D-03  0.28317615D-03
 -0.38738368D-03  0.81935154D-04 -0.21539984D-04  0.41757297D-04 -0.11383502D-03
 -0.13116914D-03  0.93928517D-04 -0.13197044D-03  0.19578909D-03 -0.21920041D-03
  0.29910387D-03  0.62423392D-04  0.11634917D-03  0.19728964D-03  0.29860706D-03
  0.37257443D-03  0.31999175D-03  0.12285105D-03 -0.54952030D-06 -0.46105137D-04
 -0.86471326D-04 -0.14741465D-03 -0.23038041D-03 -0.30806251D-03 -0.32893893D-03
 -0.20110681D-03  0.13267806D-03  0.71786404D-04  0.59243659D-03 -0.19088876D-03
  0.14320357D-03  0.13885929D-03  0.93673658D-04 -0.10060710D-03 -0.97555047D-04
 -0.65810058D-04 -0.27769475D-03 -0.26927050D-03 -0.18164829D-03 -0.88920384D-04
 -0.88482133D-05  0.19529952D-03 -0.11111444D-04 -0.11911158D-03  0.49156471D-03
 -0.80789738D-05  0.11120356D-04  0.25167300D-04 -0.19270345D-03 -0.59465877D-04
  0.25216933D-03 -0.27942314D-03 -0.42761043D-03  0.58454482D-03  0.72941931D-04
  0.71407067D-04 -0.14434900D-03  0.17242708D-03  0.28697743D-03 -0.49530902D-03
  0.60982040D-04  0.88018103D-04 -0.14900014D-03 -0.39663157D-04  0.22006670D-03
 -0.19014942D-03 -0.15042926D-03  0.96406533D-04 -0.19676129D-04 -0.82631526D-06
  0.14852580D-03 -0.56903753D-04  0.45211411D-03 -0.43774540D-03  0.11593214D-03
  0.15672184D-03  0.83160096D-04 -0.73763699D-04  0.27150758D-04  0.23305981D-04
 -0.38698852D-04 -0.59451074D-04 -0.27278627D-03  0.25998995D-03 -0.22001200D-04
 -0.23360505D-03  0.11958002D-04  0.21566750D-04  0.31800160D-04 -0.43020134D-03
  0.29227881D-03 -0.56764464D-05  0.19021911D-03  0.68063329D-04 -0.12549961D-03
  0.66295848D-04 -0.15337363D-03  0.38671155D-05 -0.65819776D-04  0.98056788D-06
  0.19011244D-04 -0.32957563D-04 -0.46362327D-05  0.37593796D-04  0.81592991D-04
 -0.54992581D-05 -0.16940862D-03  0.35561566D-04 -0.97587292D-05 -0.25802837D-04
  0.70882194D-04  0.36768559D-04  0.26181751D-04  0.12598696D-04  0.22722267D-04
  0.33503970D-04 -0.45617853D-03  0.28592360D-03 -0.57386024D-05 -0.18632673D-03
  0.14135208D-03 -0.57491792D-04 -0.56166870D-04 -0.99883465D-04 -0.12909934D-03
  0.44439454D-04 -0.30148772D-04  0.41476257D-04 -0.56402873D-05  0.12382078D-04
 -0.67417909D-05 -0.14058104D-03 -0.13944448D-03  0.43595895D-04 -0.28999328D-04
  0.34774650D-04 -0.57753223D-05 -0.70625972D-05  0.10585558D-04 -0.80715051D-04
  0.12296481D-04  0.22177209D-04  0.32700282D-04 -0.44592727D-03  0.29041646D-03
 -0.57889771D-05  0.48121363D-04  0.23651148D-04  0.23301518D-03 -0.10694146D-03
 -0.12403610D-03  0.48887278D-04  0.13863782D-04  0.30466549D-06 -0.66984893D-04
  0.60617118D-04 -0.55822455D-04 -0.47946636D-05  0.21729470D-04  0.13346854D-03
  0.97029195D-04 -0.23468698D-04  0.97312642D-05  0.13737434D-04 -0.37047890D-04
 -0.41917397D-04  0.78754234D-04  0.11071411D-04  0.20635685D-04  0.34991285D-04
  0.52960939D-04  0.66079789D-04  0.56753726D-04  0.21788859D-04 -0.97462903D-07
 -0.13435621D-04 -0.25198840D-04 -0.42958498D-04 -0.67135771D-04 -0.89773317D-04
 -0.95856973D-04 -0.58605074D-04  0.38664068D-04  0.16615330D-03  0.10766744D-03
 -0.15189458D-03  0.97536054D-04  0.94577163D-04  0.63801195D-04  0.40874056D-03
  0.39634085D-03  0.26736920D-03  0.85948240D-04  0.83340881D-04  0.56221266D-04
 -0.89092829D-04 -0.37288351D-03 -0.78469739D-04 -0.16625308D-03 -0.71303836D-03
 -0.15364609D-03 -0.48740862D-05 -0.21009044D-04 -0.44656807D-05 -0.26322927D-03
  0.53494312D-03 -0.27171385D-03  0.39931817D-03  0.85617844D-04  0.35864658D-03
  0.21461958D-03 -0.43658321D-03  0.22196363D-03 -0.32657630D-03 -0.69655360D-04
 -0.29289811D-03  0.90409285D-04 -0.18377702D-03  0.93367740D-04 -0.13734532D-03
 -0.29617519D-04 -0.12415011D-03 -0.15742989D-03  0.14210759D-03 -0.10590268D-03
  0.24660339D-03 -0.16727528D-03  0.76402882D-04  0.22568627D-03 -0.25904749D-03
  0.24130516D-03 -0.45861103D-04  0.76918297D-04 -0.11988234D-03  0.63142001D-04
 -0.20097029D-03  0.16553757D-03 -0.46939461D-05 -0.29784599D-04  0.19410944D-03
 -0.18473206D-03 -0.56637750D-04
MO    2     MO 0.0        OCC NO =    2.0000000  ORB. ENERGY =  -19.007587
  0.88973724D-04  0.16646849D-03  0.28744193D-03  0.46486702D-03  0.70162231D-03
  0.96124427D-03  0.11108428D-02  0.93352458D-03  0.41004490D-03  0.46867455D-04
 -0.63166286D-06  0.39287665D-06  0.19325594D-07 -0.15911530D-03 -0.29760850D-03
 -0.51529303D-03 -0.83671543D-03 -0.12849994D-02 -0.18275641D-02 -0.23252818D-02
 -0.24098105D-02 -0.16081244D-02  0.15837974D-03  0.12097632D-02  0.62116389D-03
 -0.27247112D-05  0.87013318D-04  0.16260362D-03  0.28196044D-03  0.45722902D-03
  0.70476965D-03  0.10028487D-02  0.12913658D-02  0.13575508D-02  0.95168471D-03
 -0.11049911D-03 -0.89456053D-03 -0.84190300D-03  0.41056177D-03 -0.65354115D-03
  0.16759452D-02  0.27310842D-03 -0.71397548D-02 -0.93401619D-02 -0.10218464D-01
 -0.84171814D-02 -0.45004748D-02 -0.12435249D-02  0.10192615D-05  0.82290964D-02
  0.10765229D-01  0.11777537D-01  0.97014252D-02  0.51871307D-02  0.14332545D-02
 -0.11747744D-05  0.16526799D-01  0.21620208D-01  0.23653265D-01  0.19483732D-01
  0.10417507D-01  0.28784582D-02 -0.23593429D-05  0.65403413D-02  0.86620687D-02
  0.95692590D-02  0.81960996D-02  0.44712825D-02  0.13743550D-02 -0.59834604D-03
 -0.75433801D-02 -0.99904995D-02 -0.11036818D-01 -0.94530684D-02 -0.51570065D-02
 -0.15851286D-02  0.69010949D-03 -0.14967973D-01 -0.19823677D-01 -0.21899838D-01
 -0.18757278D-01 -0.10232805D-01 -0.31452959D-02  0.13693517D-02  0.16031621D-03
 -0.17473491D-03 -0.54232089D-03 -0.57309217D-04  0.54698021D-04  0.34935550D-03
 -0.21051101D-05 -0.12391797D-06  0.75047545D-05 -0.14174385D-03 -0.21858614D-03
  0.36032999D-03 -0.22973634D-03 -0.48126192D-03  0.47935750D-03 -0.16583046D-03
 -0.10393235D-03  0.26976281D-03 -0.29048334D-03 -0.46292413D-03  0.54351737D-03
 -0.34699953D-05 -0.10740951D-04  0.14210946D-04 -0.23638083D-05 -0.23773971D-04
  0.23249647D-04  0.68728153D-04 -0.12887991D-03  0.57739635D-04  0.12043919D-03
  0.29120998D-04 -0.10897377D-03 -0.32662365D-03  0.35751873D-03 -0.64245138D-04
 -0.34393182D-03  0.87504695D-05 -0.17215781D-04  0.25523321D-04  0.37409990D-04
  0.98432777D-05 -0.35090491D-04 -0.63661399D-04  0.41804065D-04 -0.41479474D-04
 -0.53151817D-04  0.19151382D-02  0.35695712D-02  0.60528100D-02  0.91612098D-02
  0.11430515D-01  0.98172880D-02  0.37690478D-02 -0.16859182D-04 -0.20843469D-04
 -0.39092443D-04 -0.66644045D-04 -0.10415167D-03 -0.13927063D-03 -0.14870856D-03
 -0.90917499D-04  0.59981844D-04  0.21598407D-03 -0.47583338D-03 -0.92079005D-04
  0.62377725D-04  0.60485411D-04  0.40803101D-04 -0.99379198D-04 -0.96364393D-04
 -0.65006850D-04 -0.86026853D-04 -0.83417110D-04 -0.56272690D-04 -0.13240459D-03
  0.14216747D-03  0.13314108D-03 -0.10507395D-03  0.13448079D-03  0.29329749D-03
 -0.15054294D-04  0.52304241D-05  0.24807849D-04  0.82427556D-04 -0.94363419D-04
  0.11935864D-04 -0.20154458D-03 -0.12035754D-03  0.73215230D-04 -0.38625123D-04
  0.35442070D-04  0.31830531D-05  0.18643121D-03  0.11201601D-03 -0.16171197D-03
  0.74360472D-04 -0.26021681D-04 -0.48338791D-04  0.37303043D-04 -0.35508490D-04
 -0.77088275D-04  0.94765614D-04 -0.50004215D-04 -0.46352366D-04  0.47789955D-04
  0.93483408D-04  0.27194646D-03 -0.33208680D-03  0.56529237D-04 -0.13288936D-03
 -0.27027971D-03 -0.14622962D-04  0.12940245D-04 -0.16045727D-05 -0.69243157D-04
 -0.52285904D-04 -0.80297088D-04  0.11311204D-03  0.13465169D-04  0.85110806D-04
  0.17480898D-04  0.37727367D-03  0.70318958D-03  0.11923765D-02  0.18047174D-02
  0.22517604D-02  0.19339619D-02  0.74248558D-03 -0.33211835D-05 -0.28153572D-04
 -0.52802722D-04 -0.90017066D-04 -0.14067915D-03 -0.18811483D-03 -0.20086278D-03
 -0.12280357D-03  0.81018335D-04  0.10355270D-04 -0.19841527D-03  0.65408248D-04
 -0.81788394D-04 -0.79307230D-04 -0.53500189D-04  0.27167363D-05  0.26343204D-05
  0.17770970D-05 -0.10952486D-03 -0.10620227D-03 -0.71643425D-04  0.11130709D-03
 -0.15298217D-04  0.10585112D-03  0.20396162D-04  0.16504473D-03  0.18164541D-03
  0.17895759D-05 -0.89575804D-06  0.19064181D-04 -0.20064571D-04  0.51401962D-04
 -0.31337390D-04 -0.93246173D-04 -0.46538573D-04  0.30258471D-04 -0.18982765D-04
 -0.32561999D-04  0.51544764D-04  0.23654065D-04 -0.39058157D-04 -0.45243873D-04
 -0.21221769D-04 -0.30833518D-04  0.52055287D-04 -0.28743764D-04 -0.52541487D-05
 -0.10279259D-04  0.64291593D-04 -0.43311050D-05  0.53991231D-04 -0.42622310D-04
  0.48785260D-04 -0.63952023D-04 -0.15025247D-03 -0.35791945D-04 -0.98021669D-04
 -0.23046122D-04 -0.31512167D-04  0.51201687D-05 -0.23047010D-05  0.13668250D-05
  0.34203338D-05  0.18889757D-04  0.93169676D-04 -0.18780840D-04 -0.11975654D-04
  0.38827745D-04  0.49776399D+00  0.92776804D+00  0.15731872D+01  0.23810921D+01
  0.29709077D+01  0.25516135D+01  0.97961404D+00 -0.43818737D-02 -0.43530374D-03
 -0.81642294D-03 -0.13918221D-02 -0.21751471D-02 -0.29085861D-02 -0.31056918D-02
 -0.18987591D-02  0.12526859D-02  0.53493165D-01 -0.19969279D-02 -0.89803368D-03
  0.21644984D-02  0.20988354D-02  0.14158620D-02 -0.69277429D-02 -0.67175803D-02
 -0.45316400D-02 -0.11615657D-02 -0.11263280D-02 -0.75981423D-03 -0.45492007D-03
 -0.69002732D-04  0.14727939D-02 -0.57400916D-03  0.84102847D-03  0.98875098D-03
 -0.41333678D-04  0.34906411D-04  0.80903477D-04 -0.11293671D-02  0.84750050D-04
  0.10446171D-02 -0.12930123D-03 -0.11936661D-02 -0.16661132D-02  0.21132907D-03
  0.27635953D-03 -0.48768861D-03  0.32262096D-03  0.78879525D-03 -0.81570683D-03
  0.11609155D-03  0.20930319D-04 -0.13702187D-03  0.11569087D-03  0.19712606D-03
 -0.60841789D-04  0.11229144D-04  0.23089464D-03 -0.29205010D-03 -0.12997594D-03
  0.11623819D-02 -0.10648213D-02  0.96288507D-04 -0.18550658D-02  0.19409716D-02
  0.58290948D-03  0.64584040D-04 -0.14255205D-03  0.92307973D-04  0.56367800D-04
 -0.27055642D-03  0.17938322D-03 -0.25011992D-03  0.69821258D-03 -0.45630714D-03
 -0.46317308D-03 -0.55680740D-05 -0.10042251D-04 -0.14807293D-04  0.53833721D-03
 -0.36743113D-05  0.37113459D-05 -0.11090040D-03  0.41995690D-05  0.13442711D-03
 -0.20268704D-03  0.10574341D-03  0.12220581D-03  0.28169416D-04  0.18370957D-04
 -0.66249462D-05  0.30456698D-04 -0.51744267D-04  0.21287569D-04 -0.10257560D-03
 -0.10993413D-03  0.15017491D-03 -0.18951276D-04  0.22524785D-05  0.16698797D-04
 -0.54120580D-04 -0.17938764D-04 -0.10043563D-04 -0.74459884D-05 -0.13429147D-04
 -0.19801269D-04  0.25204825D-03 -0.14304068D-04 -0.53003337D-06  0.52360318D-04
 -0.42247932D-08 -0.24678556D-04  0.12548797D-03 -0.11137874D-04  0.25513767D-04
  0.19074557D-05  0.97687324D-05 -0.80909851D-05  0.38769676D-04 -0.12655300D-04
 -0.26114376D-04  0.33067988D-04  0.46987047D-04 -0.66731373D-04  0.15863272D-04
 -0.15795207D-04 -0.68065116D-07 -0.31041980D-05 -0.38141953D-05  0.10302927D-04
  0.18084954D-03  0.32616959D-03  0.48093687D-03  0.27612771D-04 -0.26274835D-03
 -0.39981344D-04 -0.81595323D-04 -0.47385142D-03  0.57798817D-03 -0.17667300D-04
 -0.44058222D-03  0.48519865D-03 -0.12484578D-04 -0.48115052D-04  0.92881876D-04
  0.10521376D-02 -0.49642544D-03 -0.55571211D-03 -0.23747373D-03  0.25024192D-03
  0.30678347D-02  0.30925443D-04 -0.11519462D-04 -0.19405981D-04  0.68366348D-05
  0.17680012D-04  0.90728628D-04  0.15353922D-04  0.28617735D-04  0.48526197D-04
  0.73446660D-04  0.91639987D-04  0.78706527D-04  0.30216966D-04 -0.13516234D-06
 -0.11002958D-04 -0.20636321D-04 -0.35180403D-04 -0.54980121D-04 -0.73518898D-04
 -0.78501043D-04 -0.47993998D-04  0.31663525D-04 -0.26978233D-04 -0.98237140D-04
 -0.34589809D-04  0.10404608D-04  0.10088970D-04  0.68059593D-05 -0.58362991D-04
 -0.56592469D-04 -0.38176945D-04  0.75492514D-05  0.73202345D-05  0.49381869D-05
 -0.23089065D-05  0.21582159D-05 -0.25978108D-04 -0.17783965D-03  0.85247804D-04
  0.22874557D-03 -0.48057109D-05  0.67057548D-05  0.13665881D-04  0.76439871D-04
 -0.99402287D-04  0.22962416D-04  0.12677447D-03 -0.22118893D-04 -0.85019424D-04
 -0.34969411D-04  0.31989082D-04  0.29803286D-05 -0.99084944D-04 -0.97653017D-05
  0.35349189D-04 -0.39241638D-04  0.33237103D-04  0.60045353D-05 -0.33712823D-04
 -0.13642483D-04  0.10505279D-03  0.76533120D-04 -0.56067419D-04  0.20438435D-04
 -0.14025232D-03 -0.18170080D-04 -0.63030847D-04 -0.89347039D-04  0.18637234D-03
  0.17155413D-05 -0.13562203D-03 -0.17704611D-04  0.25101281D-04 -0.72367684D-05
  0.12909258D-04 -0.35297646D-04 -0.21516936D-05  0.40204576D-04 -0.40006198D-04
  0.23861999D-04 -0.30451654D-04