 Molden2AIM, Version 4.0.0 (06/02/2016)           Time: Sat Jun 30 01:59:32 2018
GAUSSIAN             11 MOL ORBITALS    252 PRIMITIVES        4 NUCLEI
  C    1    (CENTRE  1)   0.00000000  0.00000000 -2.43893156  CHARGE =  6.0
  C    2    (CENTRE  2)   0.00000000  0.00000000 -0.16487482  CHARGE =  6.0
  H    3    (CENTRE  3)   0.00000000  0.00000000 -4.45953067  CHARGE =  1.0
  F    4    (CENTRE  4)   0.00000000  0.00000000  2.25075641  CHARGE =  9.0
CENTRE ASSIGNMENTS    1  1  1  1  1  1  1  1  1  1  1  1  1  1  1  1  1  1  1  1
CENTRE ASSIGNMENTS    1  1  1  1  1  1  1  1  1  1  1  1  1  1  1  1  1  1  1  1
CENTRE ASSIGNMENTS    1  1  1  1  1  1  1  1  1  1  1  1  1  1  1  1  1  1  1  1
CENTRE ASSIGNMENTS    1  1  1  1  1  1  1  1  1  1  1  1  1  1  1  2  2  2  2  2
CENTRE ASSIGNMENTS    2  2  2  2  2  2  2  2  2  2  2  2  2  2  2  2  2  2  2  2
CENTRE ASSIGNMENTS    2  2  2  2  2  2  2  2  2  2  2  2  2  2  2  2  2  2  2  2
CENTRE ASSIGNMENTS    2  2  2  2  2  2  2  2  2  2  2  2  2  2  2  2  2  2  2  2
CENTRE ASSIGNMENTS    2  2  2  2  2  2  2  2  2  2  3  3  3  3  3  3  3  3  3  3
CENTRE ASSIGNMENTS    3  3  3  3  3  3  3  3  3  3  3  3  3  3  3  3  3  4  4  4
CENTRE ASSIGNMENTS    4  4  4  4  4  4  4  4  4  4  4  4  4  4  4  4  4  4  4  4
CENTRE ASSIGNMENTS    4  4  4  4  4  4  4  4  4  4  4  4  4  4  4  4  4  4  4  4
CENTRE ASSIGNMENTS    4  4  4  4  4  4  4  4  4  4  4  4  4  4  4  4  4  4  4  4
CENTRE ASSIGNMENTS    4  4  4  4  4  4  4  4  4  4  4  4
TYPE ASSIGNMENTS      1  1  1  1  1  1  1  1  1  1  1  1  1  1  1  1  1  1  1  2
TYPE ASSIGNMENTS      2  2  3  3  3  4  4  4  2  3  4  2  3  4  2  3  4  5  6  7
TYPE ASSIGNMENTS      8  9 10  5  6  7  8  9 10  5  6  7  8  9 10 11 12 13 17 14
TYPE ASSIGNMENTS     15 18 19 16 20 11 12 13 17 14 15 18 19 16 20  1  1  1  1  1
TYPE ASSIGNMENTS      1  1  1  1  1  1  1  1  1  1  1  1  1  1  2  2  2  3  3  3
TYPE ASSIGNMENTS      4  4  4  2  3  4  2  3  4  2  3  4  5  6  7  8  9 10  5  6
TYPE ASSIGNMENTS      7  8  9 10  5  6  7  8  9 10 11 12 13 17 14 15 18 19 16 20
TYPE ASSIGNMENTS     11 12 13 17 14 15 18 19 16 20  1  1  1  1  1  1  2  3  4  2
TYPE ASSIGNMENTS      3  4  2  3  4  5  6  7  8  9 10  5  6  7  8  9 10  1  1  1
TYPE ASSIGNMENTS      1  1  1  1  1  1  1  1  1  1  1  1  1  1  1  1  2  2  2  3
TYPE ASSIGNMENTS      3  3  4  4  4  2  3  4  2  3  4  2  3  4  5  6  7  8  9 10
TYPE ASSIGNMENTS      5  6  7  8  9 10  5  6  7  8  9 10 11 12 13 17 14 15 18 19
TYPE ASSIGNMENTS     16 20 11 12 13 17 14 15 18 19 16 20
EXPONENTS  0.8236000D+04 0.1235000D+04 0.2808000D+03 0.7927000D+02 0.2559000D+02
EXPONENTS  0.8997000D+01 0.3319000D+01 0.3643000D+00 0.8236000D+04 0.1235000D+04
EXPONENTS  0.2808000D+03 0.7927000D+02 0.2559000D+02 0.8997000D+01 0.3319000D+01
EXPONENTS  0.3643000D+00 0.9059000D+00 0.1285000D+00 0.4402000D-01 0.1871000D+02
EXPONENTS  0.4133000D+01 0.1200000D+01 0.1871000D+02 0.4133000D+01 0.1200000D+01
EXPONENTS  0.1871000D+02 0.4133000D+01 0.1200000D+01 0.3827000D+00 0.3827000D+00
EXPONENTS  0.3827000D+00 0.1209000D+00 0.1209000D+00 0.1209000D+00 0.3569000D-01
EXPONENTS  0.3569000D-01 0.3569000D-01 0.1097000D+01 0.1097000D+01 0.1097000D+01
EXPONENTS  0.1097000D+01 0.1097000D+01 0.1097000D+01 0.3180000D+00 0.3180000D+00
EXPONENTS  0.3180000D+00 0.3180000D+00 0.3180000D+00 0.3180000D+00 0.1000000D+00
EXPONENTS  0.1000000D+00 0.1000000D+00 0.1000000D+00 0.1000000D+00 0.1000000D+00
EXPONENTS  0.7610000D+00 0.7610000D+00 0.7610000D+00 0.7610000D+00 0.7610000D+00
EXPONENTS  0.7610000D+00 0.7610000D+00 0.7610000D+00 0.7610000D+00 0.7610000D+00
EXPONENTS  0.2680000D+00 0.2680000D+00 0.2680000D+00 0.2680000D+00 0.2680000D+00
EXPONENTS  0.2680000D+00 0.2680000D+00 0.2680000D+00 0.2680000D+00 0.2680000D+00
EXPONENTS  0.8236000D+04 0.1235000D+04 0.2808000D+03 0.7927000D+02 0.2559000D+02
EXPONENTS  0.8997000D+01 0.3319000D+01 0.3643000D+00 0.8236000D+04 0.1235000D+04
EXPONENTS  0.2808000D+03 0.7927000D+02 0.2559000D+02 0.8997000D+01 0.3319000D+01
EXPONENTS  0.3643000D+00 0.9059000D+00 0.1285000D+00 0.4402000D-01 0.1871000D+02
EXPONENTS  0.4133000D+01 0.1200000D+01 0.1871000D+02 0.4133000D+01 0.1200000D+01
EXPONENTS  0.1871000D+02 0.4133000D+01 0.1200000D+01 0.3827000D+00 0.3827000D+00
EXPONENTS  0.3827000D+00 0.1209000D+00 0.1209000D+00 0.1209000D+00 0.3569000D-01
EXPONENTS  0.3569000D-01 0.3569000D-01 0.1097000D+01 0.1097000D+01 0.1097000D+01
EXPONENTS  0.1097000D+01 0.1097000D+01 0.1097000D+01 0.3180000D+00 0.3180000D+00
EXPONENTS  0.3180000D+00 0.3180000D+00 0.3180000D+00 0.3180000D+00 0.1000000D+00
EXPONENTS  0.1000000D+00 0.1000000D+00 0.1000000D+00 0.1000000D+00 0.1000000D+00
EXPONENTS  0.7610000D+00 0.7610000D+00 0.7610000D+00 0.7610000D+00 0.7610000D+00
EXPONENTS  0.7610000D+00 0.7610000D+00 0.7610000D+00 0.7610000D+00 0.7610000D+00
EXPONENTS  0.2680000D+00 0.2680000D+00 0.2680000D+00 0.2680000D+00 0.2680000D+00
EXPONENTS  0.2680000D+00 0.2680000D+00 0.2680000D+00 0.2680000D+00 0.2680000D+00
EXPONENTS  0.3387000D+02 0.5095000D+01 0.1159000D+01 0.3258000D+00 0.1027000D+00
EXPONENTS  0.2526000D-01 0.1407000D+01 0.1407000D+01 0.1407000D+01 0.3880000D+00
EXPONENTS  0.3880000D+00 0.3880000D+00 0.1020000D+00 0.1020000D+00 0.1020000D+00
EXPONENTS  0.1057000D+01 0.1057000D+01 0.1057000D+01 0.1057000D+01 0.1057000D+01
EXPONENTS  0.1057000D+01 0.2470000D+00 0.2470000D+00 0.2470000D+00 0.2470000D+00
EXPONENTS  0.2470000D+00 0.2470000D+00 0.1950000D+05 0.2923000D+04 0.6645000D+03
EXPONENTS  0.1875000D+03 0.6062000D+02 0.2142000D+02 0.7950000D+01 0.8815000D+00
EXPONENTS  0.1950000D+05 0.2923000D+04 0.6645000D+03 0.1875000D+03 0.6062000D+02
EXPONENTS  0.2142000D+02 0.7950000D+01 0.8815000D+00 0.2257000D+01 0.3041000D+00
EXPONENTS  0.9158000D-01 0.4388000D+02 0.9926000D+01 0.2930000D+01 0.4388000D+02
EXPONENTS  0.9926000D+01 0.2930000D+01 0.4388000D+02 0.9926000D+01 0.2930000D+01
EXPONENTS  0.9132000D+00 0.9132000D+00 0.9132000D+00 0.2672000D+00 0.2672000D+00
EXPONENTS  0.2672000D+00 0.7361000D-01 0.7361000D-01 0.7361000D-01 0.3107000D+01
EXPONENTS  0.3107000D+01 0.3107000D+01 0.3107000D+01 0.3107000D+01 0.3107000D+01
EXPONENTS  0.8550000D+00 0.8550000D+00 0.8550000D+00 0.8550000D+00 0.8550000D+00
EXPONENTS  0.8550000D+00 0.2920000D+00 0.2920000D+00 0.2920000D+00 0.2920000D+00
EXPONENTS  0.2920000D+00 0.2920000D+00 0.1917000D+01 0.1917000D+01 0.1917000D+01
EXPONENTS  0.1917000D+01 0.1917000D+01 0.1917000D+01 0.1917000D+01 0.1917000D+01
EXPONENTS  0.1917000D+01 0.1917000D+01 0.7240000D+00 0.7240000D+00 0.7240000D+00
EXPONENTS  0.7240000D+00 0.7240000D+00 0.7240000D+00 0.7240000D+00 0.7240000D+00
EXPONENTS  0.7240000D+00 0.7240000D+00
MO    1     MO 0.0        OCC NO =    2.0000000  ORB. ENERGY =  -24.566910
  0.70450192D-04  0.13133518D-03  0.22197958D-03  0.33370802D-03  0.40999887D-03
  0.34630959D-03  0.13061523D-03 -0.64642208D-06 -0.48861898D-04 -0.91484890D-04
 -0.15576085D-03 -0.24093835D-03 -0.31730734D-03 -0.32970265D-03 -0.20951123D-03
  0.14040956D-03 -0.98623867D-04  0.40182393D-04 -0.67327409D-03  0.18075220D-15
  0.16946667D-15  0.12067037D-15 -0.41259076D-17 -0.38683006D-17 -0.27544605D-17
  0.40254575D-04  0.37741223D-04  0.26873999D-04 -0.38397410D-16  0.26925394D-17
  0.20129989D-02  0.33507934D-17  0.81179436D-18 -0.10655102D-03  0.68809937D-19
 -0.18904061D-20 -0.77382253D-04 -0.13572123D-03 -0.13572123D-03  0.27144245D-03
  0.37835270D-19 -0.31255066D-17  0.23663026D-18 -0.17749622D-03 -0.17749622D-03
  0.35499244D-03 -0.32193597D-19  0.11084163D-16 -0.41853624D-18 -0.18946762D-04
 -0.18946762D-04  0.37893524D-04  0.47638784D-20  0.75687324D-18  0.86336705D-18
 -0.31744469D-17  0.15138955D-18  0.18570237D-03 -0.31720419D-17  0.15216128D-18
 -0.27855355D-03  0.12695383D-16 -0.60632994D-18 -0.27855355D-03  0.38086087D-19
 -0.11670319D-17 -0.22420288D-18 -0.30786507D-05 -0.11674180D-17 -0.22480301D-18
  0.46179760D-05  0.46685137D-17  0.89741165D-18  0.46179760D-05 -0.15480842D-19
  0.28894426D-03  0.53865779D-03  0.91042657D-03  0.13686693D-02  0.16815684D-02
  0.14203534D-02  0.53570503D-03 -0.26512341D-05 -0.20806189D-03 -0.38955751D-03
 -0.66325500D-03 -0.10259546D-02 -0.13511462D-02 -0.14039274D-02 -0.89213284D-03
  0.59788668D-03 -0.23039703D-03  0.11304885D-02  0.10752826D-02  0.41747884D-18
  0.39141295D-18  0.27870934D-18  0.91958544D-18  0.86216980D-18  0.61391626D-18
 -0.54071289D-03 -0.50695271D-03 -0.36098053D-03 -0.16377927D-16 -0.14685504D-17
  0.42740319D-02 -0.33928486D-17 -0.23070567D-17  0.33973159D-04 -0.37405758D-19
 -0.14474061D-19 -0.36485705D-04 -0.47202229D-03 -0.47202229D-03  0.94404457D-03
  0.87082434D-21  0.97750098D-17 -0.58472867D-18 -0.14295505D-03 -0.14295505D-03
  0.28591009D-03 -0.32765618D-20  0.16970250D-16  0.20048726D-18 -0.13812796D-04
 -0.13812796D-04  0.27625592D-04 -0.80611568D-20  0.36039912D-18  0.16204588D-18
  0.10902726D-17 -0.10155255D-18  0.69381686D-03  0.10841999D-17 -0.98943130D-19
 -0.10407253D-02 -0.43550177D-17  0.40360077D-18 -0.10407253D-02  0.17423525D-18
  0.49052479D-19 -0.18814372D-19 -0.28861679D-04  0.49605049D-19 -0.17889836D-19
  0.43292518D-04 -0.19676248D-18  0.74332953D-19  0.43292518D-04 -0.53928603D-19
  0.25163974D-05  0.45384263D-05  0.66919069D-05  0.14155270D-03 -0.11860698D-03
 -0.76729322D-04 -0.68197264D-17  0.13565649D-17  0.51640837D-04 -0.73249753D-17
 -0.24888829D-17  0.57203810D-03  0.18844287D-18  0.95690498D-18  0.86855570D-04
 -0.12269334D-03 -0.12269334D-03  0.24538667D-03  0.29922181D-19 -0.99529644D-17
  0.45249049D-18 -0.45305615D-04 -0.45305615D-04  0.90611230D-04 -0.10305057D-19
  0.10779761D-19 -0.40900122D-18  0.59446248D+00  0.11081038D+01  0.18785084D+01
  0.28446153D+01  0.35572015D+01  0.30624191D+01  0.11773057D+01 -0.51014583D-02
  0.12470649D-03  0.23417670D-03  0.39876253D-03  0.62465914D-03  0.83711674D-03
  0.90043192D-03  0.54061814D-03 -0.35553323D-03  0.64448656D-01 -0.16274711D-02
 -0.11037494D-02 -0.32375583D-17 -0.31662613D-17 -0.20920827D-17 -0.96955020D-17
 -0.94819892D-17 -0.62651511D-17 -0.88611486D-02 -0.86660098D-02 -0.57259991D-02
  0.27597464D-18  0.93534592D-18  0.20817056D-02 -0.41774066D-17  0.66539242D-18
  0.19177745D-02 -0.30297716D-19  0.14902651D-19  0.10738673D-03 -0.50705954D-03
 -0.50705954D-03  0.10141191D-02  0.35479152D-16 -0.38352772D-17 -0.39740652D-17
  0.70027079D-03  0.70027079D-03 -0.14005416D-02 -0.20299896D-17  0.19990002D-17
  0.84900283D-18  0.23329569D-03  0.23329569D-03 -0.46659138D-03  0.17651685D-18
  0.31186362D-17 -0.70416931D-18 -0.31804310D-17 -0.11619402D-17 -0.23956319D-03
 -0.23071080D-17  0.24472161D-18  0.35934478D-03  0.11848401D-16  0.32410991D-17
  0.35934478D-03  0.52349435D-17  0.11291327D-17  0.76752977D-19  0.51052713D-03
  0.11071874D-17 -0.12295280D-20 -0.76579069D-03 -0.44945854D-17 -0.22902940D-18
 -0.76579069D-03 -0.40247070D-18
MO    2     MO 0.0        OCC NO =    2.0000000  ORB. ENERGY =  -10.134327
  0.28863049D-02  0.53807286D-02  0.90943792D-02  0.13671831D-01  0.16797424D-01
  0.14188110D-01  0.53512330D-02 -0.26483551D-04  0.83666478D-03  0.15665004D-02
  0.26671010D-02  0.41255998D-02  0.54332698D-02  0.56455153D-02  0.35874715D-02
 -0.24042400D-02  0.43410248D-03 -0.57773792D-02  0.25632383D-02  0.63256976D-15
  0.59307436D-15  0.42230428D-15 -0.61194919D-15 -0.57374126D-15 -0.40853796D-15
  0.25389312D-02  0.23804094D-02  0.16949933D-02 -0.13775556D-15 -0.54694634D-16
 -0.12131417D-01  0.28468228D-17 -0.10511699D-16 -0.91691311D-02  0.30690302D-18
 -0.47557530D-18  0.15784894D-03  0.88972776D-03  0.88972776D-03 -0.17794555D-02
  0.37750900D-18 -0.43238771D-17 -0.98951277D-18  0.91290224D-03  0.91290224D-03
 -0.18258045D-02 -0.19803561D-18  0.12336579D-16 -0.66975599D-17  0.95306654D-04
  0.95306654D-04 -0.19061331D-03 -0.80401984D-21  0.87390400D-18 -0.16025293D-17
 -0.47264472D-17  0.25620658D-17 -0.18789590D-02 -0.47252084D-17  0.25418293D-17
  0.28184384D-02  0.18904550D-16 -0.10228027D-16  0.28184384D-02  0.47962604D-18
 -0.22660899D-17  0.11755257D-17 -0.59972640D-03 -0.22678941D-17  0.11752934D-17
  0.89958960D-03  0.90661639D-17 -0.47018704D-17  0.89958960D-03 -0.22032095D-18
  0.33063229D+00  0.61637376D+00  0.10417802D+01  0.15661369D+01  0.19241802D+01
  0.16252778D+01  0.61299497D+00 -0.30337463D-02 -0.36477639D-02 -0.68297649D-02
 -0.11628259D-01 -0.17987149D-01 -0.23688442D-01 -0.24613809D-01 -0.15640971D-01
  0.10482215D-01  0.35684011D-01  0.12385547D-01 -0.33837261D-02 -0.30372653D-16
 -0.28476293D-16 -0.20276817D-16 -0.18019291D-16 -0.16894230D-16 -0.12029698D-16
  0.63498842D-02  0.59534201D-02  0.42391898D-02 -0.19862333D-16  0.15230423D-16
 -0.10194366D-01 -0.25068885D-17  0.10002682D-16 -0.56303067D-02 -0.23321485D-18
  0.46882649D-18  0.16884697D-03 -0.41602545D-02 -0.41602545D-02  0.83205090D-02
 -0.19246931D-17  0.12712610D-16 -0.23952769D-17  0.17575423D-03  0.17575423D-03
 -0.35150847D-03  0.36617630D-18  0.31494163D-16 -0.12379892D-16  0.10974756D-03
  0.10974756D-03 -0.21949512D-03 -0.24693182D-20  0.33008219D-18 -0.18829688D-17
  0.10243013D-17 -0.45373354D-18 -0.13174747D-02  0.14263159D-17 -0.81187675D-18
  0.19762120D-02 -0.44992198D-17  0.21730774D-17  0.19762120D-02  0.14731292D-17
 -0.64226826D-18 -0.68455065D-18 -0.39175863D-03 -0.65396849D-18 -0.67477077D-18
  0.58763794D-03  0.25807733D-17  0.27284227D-17  0.58763794D-03 -0.19174015D-18
 -0.12267086D-03 -0.22124195D-03 -0.32622113D-03 -0.65904402D-02 -0.89279905D-02
  0.12925890D-03 -0.37728616D-17 -0.88513148D-17 -0.22066849D-02 -0.20427241D-16
  0.12776926D-16 -0.28987220D-02 -0.24255453D-18  0.11197844D-17 -0.16675689D-02
  0.73109013D-03  0.73109013D-03 -0.14621803D-02  0.41007370D-19 -0.17676049D-16
  0.79497167D-17  0.14477960D-03  0.14477960D-03 -0.28955921D-03 -0.76818267D-19
 -0.18852568D-17  0.24262630D-17  0.62910807D-03  0.11726847D-02  0.19879889D-02
  0.30104010D-02  0.37645170D-02  0.32408985D-02  0.12459197D-02 -0.53987740D-05
 -0.47552247D-03 -0.89294698D-03 -0.15205347D-02 -0.23819086D-02 -0.31920378D-02
 -0.34334670D-02 -0.20614491D-02  0.13556956D-02 -0.43383986D-04  0.46519451D-02
  0.43622755D-02  0.37236053D-18  0.36416047D-18  0.24061622D-18  0.25638053D-17
  0.25073456D-17  0.16567092D-17  0.57610020D-03  0.56341341D-03  0.37227106D-03
 -0.46828145D-19 -0.59699287D-18 -0.35192770D-02 -0.14211769D-16  0.49552975D-18
 -0.36482034D-03  0.17528334D-18 -0.38949004D-19 -0.38789027D-03 -0.14180080D-02
 -0.14180080D-02  0.28360160D-02  0.36288119D-18 -0.94124096D-17 -0.45589510D-17
  0.17544563D-03  0.17544563D-03 -0.35089126D-03 -0.21060291D-18  0.55170241D-17
  0.18021389D-17  0.26316078D-03  0.26316078D-03 -0.52632155D-03  0.62277716D-19
  0.99125420D-17 -0.69704701D-18 -0.54664856D-17  0.11665481D-17 -0.17149351D-02
 -0.59064648D-17  0.86851633D-18  0.25724026D-02  0.22305922D-16 -0.43681606D-17
  0.25724026D-02  0.10608102D-17  0.26663866D-17 -0.42379643D-18  0.14098238D-02
  0.27154223D-17 -0.40038581D-18 -0.21147356D-02 -0.10714582D-16  0.16717751D-17
 -0.21147356D-02  0.25255950D-20
MO    3     MO 0.0        OCC NO =    2.0000000  ORB. ENERGY =  -10.045787
  0.33060023D+00  0.61631400D+00  0.10416792D+01  0.15659851D+01  0.19239936D+01
  0.16251202D+01  0.61293554D+00 -0.30334522D-02 -0.36065265D-02 -0.67525555D-02
 -0.11496804D-01 -0.17783807D-01 -0.23420648D-01 -0.24335554D-01 -0.15464152D-01
  0.10363715D-01  0.35135547D-01  0.98198954D-02 -0.69052045D-03  0.44808393D-17
  0.42010717D-17  0.29914133D-17  0.24948146D-16  0.23390473D-16  0.16655410D-16
  0.12815010D-02  0.12014886D-02  0.85553148D-03 -0.64477227D-17 -0.52982706D-17
  0.52899222D-02 -0.45698091D-17 -0.98242978D-18  0.57169769D-02 -0.67224915D-19
 -0.11198286D-19  0.70430010D-04 -0.40681112D-02 -0.40681112D-02  0.81362224D-02
  0.26481288D-18 -0.41981977D-17 -0.38728170D-17  0.10830505D-03  0.10830505D-03
 -0.21661010D-03  0.45918391D-19 -0.39977234D-17 -0.13309588D-17  0.61248717D-04
  0.61248717D-04 -0.12249743D-03 -0.34733702D-20 -0.13539107D-17 -0.47014003D-18
  0.17307229D-17  0.79573611D-18  0.16567646D-03  0.44372113D-18  0.36957916D-18
 -0.24851469D-03 -0.56358900D-17 -0.27567875D-17 -0.24851469D-03  0.10104049D-17
  0.30325539D-18  0.75718420D-19  0.29215264D-03  0.35421700D-18  0.89953580D-19
 -0.43822896D-03 -0.12639832D-17 -0.31710884D-18 -0.43822896D-03 -0.79949042D-19
 -0.52641645D-02 -0.98135994D-02 -0.16586712D-01 -0.24935261D-01 -0.30635849D-01
 -0.25876872D-01 -0.97598041D-02  0.48301815D-04  0.72159631D-03  0.13510560D-02
  0.23002884D-02  0.35581963D-02  0.46860194D-02  0.48690743D-02  0.30940782D-02
 -0.20735792D-02  0.35679736D-03 -0.12501242D-01 -0.11248015D-03 -0.23952987D-17
 -0.22457448D-17 -0.15991041D-17 -0.15594982D-17 -0.14621287D-17 -0.10411227D-17
 -0.28198455D-02 -0.26437844D-02 -0.18825320D-02  0.63461950D-17  0.29897663D-17
  0.75870850D-02  0.56768616D-17  0.20157948D-17  0.65029287D-02  0.48134993D-19
  0.74763351D-20 -0.45282335D-04  0.45977553D-03  0.45977553D-03 -0.91955107D-03
 -0.93918331D-19 -0.23104681D-17 -0.13699701D-17  0.11735642D-02  0.11735642D-02
 -0.23471285D-02  0.15661928D-19 -0.43759988D-17 -0.13034124D-17  0.90364435D-04
  0.90364435D-04 -0.18072887D-03  0.49371286D-20 -0.97892947D-18 -0.16709116D-18
 -0.96863676D-18 -0.39451554D-18  0.18200391D-02 -0.86936948D-18 -0.29873789D-18
 -0.27300586D-02  0.37752798D-17  0.14822845D-17 -0.27300586D-02  0.38109987D-18
 -0.36598218D-18 -0.25217505D-18  0.52246927D-03 -0.37734967D-18 -0.25726204D-18
 -0.78370390D-03  0.14752962D-17  0.10137872D-17 -0.78370390D-03 -0.86758533D-21
  0.20849793D-03  0.37603459D-03  0.55446279D-03  0.20792402D-02  0.52090098D-02
  0.13482848D-03  0.92442779D-19  0.33973288D-18 -0.83438868D-03  0.26037606D-17
  0.95487626D-18 -0.17042286D-02 -0.93760489D-18 -0.47706589D-18  0.37278451D-03
  0.14878983D-02  0.14878983D-02 -0.29757966D-02  0.73627408D-19  0.33859541D-17
  0.18076806D-17  0.18120485D-03  0.18120485D-03 -0.36240970D-03 -0.31300473D-19
  0.27974968D-18  0.12574423D-18 -0.26338734D-03 -0.49096542D-03 -0.83230708D-03
 -0.12603582D-02 -0.15760824D-02 -0.13568601D-02 -0.52162657D-03  0.22602933D-05
  0.17380588D-03  0.32637666D-03  0.55576316D-03  0.87059970D-03  0.11667060D-02
  0.12549496D-02  0.75347011D-03 -0.49551364D-03  0.42409373D-03 -0.25400807D-02
 -0.21554825D-02  0.72233595D-18  0.70642878D-18  0.46676736D-18  0.15052743D-19
  0.14721254D-19  0.97269547D-20 -0.16858976D-02 -0.16487710D-02 -0.10894127D-02
 -0.46159972D-18 -0.52702942D-19  0.22136609D-02 -0.15668206D-17 -0.16157263D-17
  0.36799284D-03  0.23599038D-18 -0.17809403D-19  0.35834280D-03 -0.53105822D-03
 -0.53105822D-03  0.10621164D-02 -0.12022606D-18 -0.15820535D-17 -0.12378326D-17
  0.77348289D-03  0.77348289D-03 -0.15469658D-02  0.34492711D-19  0.11526466D-17
  0.82528216D-18 -0.12911294D-05 -0.12911294D-05  0.25822587D-05 -0.18202531D-19
  0.84213778D-18  0.77791020D-18 -0.40229145D-19  0.25645261D-19 -0.39571892D-03
 -0.89980922D-19 -0.42669153D-19  0.59357838D-03  0.21066836D-18 -0.34266629D-19
  0.59357838D-03 -0.10916093D-19  0.26354487D-18  0.17255823D-18  0.56132542D-03
  0.27075569D-18  0.18947976D-18 -0.84198813D-03 -0.10613903D-17 -0.70715445D-18
 -0.84198813D-03  0.96945982D-19
MO    4     MO 0.0        OCC NO =    2.0000000  ORB. ENERGY =   -1.271330
 -0.41219562D-03 -0.76842635D-03 -0.12987759D-02 -0.19524856D-02 -0.23988542D-02
 -0.20262158D-02 -0.76421406D-03  0.37821380D-05 -0.40521481D-03 -0.75868998D-03
 -0.12917346D-02 -0.19981170D-02 -0.26314498D-02 -0.27342449D-02 -0.17374899D-02
  0.11644253D-02  0.38661931D-02 -0.25873573D-01  0.44017728D-02 -0.64349746D-16
 -0.60331977D-16 -0.42959962D-16  0.27212137D-15  0.25513108D-15  0.18166853D-15
  0.77089740D-02  0.72276531D-02  0.51465196D-02 -0.88951915D-16  0.19337807D-16
 -0.15786710D-01 -0.41621082D-18  0.34461610D-16 -0.13976369D-01  0.12482024D-17
  0.38816341D-17  0.32492873D-03  0.10421535D-02  0.10421535D-02 -0.20843070D-02
 -0.11228782D-15 -0.64645025D-16  0.51394320D-15  0.18175518D-02  0.18175518D-02
 -0.36351036D-02  0.30583452D-16 -0.13642009D-16  0.54290755D-16  0.22618613D-03
  0.22618613D-03 -0.45237226D-03  0.16920538D-17 -0.76195238D-17 -0.21098253D-17
  0.48052213D-17 -0.53937023D-17 -0.29079316D-02  0.46194664D-17 -0.64743702D-17
  0.43618974D-02 -0.19035130D-16  0.22655477D-16  0.43618974D-02 -0.11786517D-16
 -0.30638609D-17 -0.22733895D-17  0.10971159D-04 -0.28724118D-17 -0.20874785D-17
 -0.16456738D-04  0.12063994D-16  0.89076471D-17 -0.16456738D-04  0.48832562D-17
 -0.43597467D-02 -0.81275592D-02 -0.13737007D-01 -0.20651221D-01 -0.25372411D-01
 -0.21431057D-01 -0.80830062D-02  0.40003249D-04 -0.15928714D-01 -0.29823579D-01
 -0.50777195D-01 -0.78544600D-01 -0.10344047D+00 -0.10748128D+00 -0.68299528D-01
  0.45772755D-01  0.22208414D-01  0.30616283D-01 -0.67157129D-02 -0.31535680D-16
 -0.29566704D-16 -0.21053255D-16  0.13355960D-15  0.12522061D-15  0.89164535D-16
  0.15221787D+00  0.14271393D+00  0.10162082D+00 -0.18076285D-16 -0.27425314D-16
  0.10565915D-01  0.33495164D-16 -0.19362081D-17 -0.11183287D-01 -0.27111543D-19
 -0.34027792D-18  0.33965955D-03 -0.17127230D-01 -0.17127230D-01  0.34254460D-01
  0.21587712D-16 -0.90144271D-17 -0.80398387D-16 -0.23925718D-02 -0.23925718D-02
  0.47851436D-02 -0.72264144D-17 -0.13345540D-17  0.17554353D-16  0.15215702D-03
  0.15215702D-03 -0.30431404D-03 -0.12227184D-17 -0.68787041D-17 -0.74596702D-18
 -0.36856330D-17  0.10839419D-16  0.24103328D-02 -0.11195528D-17  0.98515023D-17
 -0.36154992D-02  0.12176452D-16 -0.42369760D-16 -0.36154992D-02 -0.43200043D-16
 -0.30104663D-17  0.29032401D-18  0.80706605D-03 -0.34711420D-17  0.37501249D-18
 -0.12105991D-02  0.12502541D-16 -0.12459845D-17 -0.12105991D-02  0.10258412D-16
  0.46068930D-05  0.83087212D-05  0.12251205D-04 -0.20103666D-02 -0.94010485D-02
  0.36930814D-03  0.17706883D-16 -0.16000650D-17 -0.25110775D-02 -0.34877005D-16
 -0.13448682D-16 -0.31712049D-02 -0.63467115D-17 -0.83434820D-17 -0.19328254D-02
  0.11098645D-02  0.11098645D-02 -0.22197291D-02  0.15028324D-19  0.15025483D-17
 -0.21285453D-16  0.23828437D-03  0.23828437D-03 -0.47656873D-03 -0.29498808D-17
 -0.21003617D-17 -0.27320516D-17 -0.83031325D-02 -0.15477399D-01 -0.26237996D-01
 -0.39732058D-01 -0.49685078D-01 -0.42774224D-01 -0.16443973D-01  0.71254429D-04
 -0.12194246D+00 -0.22898635D+00 -0.38992426D+00 -0.61081405D+00 -0.81856268D+00
 -0.88047453D+00 -0.52863575D+00  0.34765311D+00  0.20570832D+00  0.94422136D-01
  0.10046590D-01 -0.12676407D-15 -0.12397249D-15 -0.81913865D-16 -0.12868117D-15
 -0.12584738D-15 -0.83152682D-16 -0.40897266D+00 -0.39996633D+00 -0.26427467D+00
 -0.66596194D-16 -0.58522251D-16 -0.10463844D+00 -0.19518757D-16  0.59682894D-17
 -0.10511494D-01  0.23830308D-17  0.17848154D-17 -0.85325386D-03 -0.17724087D-01
 -0.17724087D-01  0.35448174D-01 -0.22811756D-15 -0.49211368D-15  0.37661959D-15
 -0.11302963D-01 -0.11302963D-01  0.22605927D-01 -0.25215527D-16  0.91724900D-16
 -0.19141558D-16 -0.33162707D-03 -0.33162707D-03  0.66325415D-03  0.36226323D-17
  0.91816288D-17 -0.42057863D-17 -0.22213883D-16  0.23654350D-16 -0.91306496D-02
  0.25795239D-16  0.35451566D-16  0.13695974D-01  0.40846409D-16 -0.10641462D-15
  0.13695974D-01 -0.55598036D-16  0.11488773D-16 -0.47843401D-17 -0.35266790D-02
 -0.45900138D-17 -0.10811779D-16  0.52900184D-02 -0.29876305D-16  0.25164800D-16
  0.52900184D-02 -0.45194088D-17
MO    5     MO 0.0        OCC NO =    2.0000000  ORB. ENERGY =   -0.739377
 -0.88765086D-02 -0.16547830D-01 -0.27968748D-01 -0.42046190D-01 -0.51658602D-01
 -0.43633948D-01 -0.16457120D-01  0.81447204D-04 -0.44922117D-01 -0.84108376D-01
 -0.14320171D+00 -0.22151127D+00 -0.29172254D+00 -0.30311841D+00 -0.19261814D+00
  0.12908820D+00  0.56422813D-01  0.37580290D-01  0.51050550D-02  0.44521331D-15
  0.41741578D-15  0.29722490D-15  0.76086728D-15  0.71336144D-15  0.50795584D-15
  0.21711389D+00  0.20355807D+00  0.14494547D+00  0.37332432D-15  0.16751728D-15
  0.18726825D-01  0.10365016D-15  0.30567366D-16 -0.17018362D-02 -0.13997018D-17
 -0.61533816D-18  0.54989193D-03 -0.20073473D-01 -0.20073473D-01  0.40146946D-01
 -0.16034394D-15  0.96536245D-16 -0.49135489D-16 -0.29293291D-02 -0.29293291D-02
  0.58586581D-02 -0.12042016D-16 -0.31957800D-16 -0.31651958D-18  0.84500132D-05
  0.84500132D-05 -0.16900026D-04 -0.23896473D-17  0.98267242D-17 -0.27359894D-17
  0.11487621D-16 -0.56108102D-17  0.26650224D-02 -0.15250580D-17 -0.79541223D-17
 -0.39975336D-02 -0.32937806D-16  0.24786553D-16 -0.39975336D-02  0.54075547D-17
  0.12638339D-16  0.31982130D-18 -0.63303227D-03  0.14640869D-16 -0.92238495D-18
  0.94954840D-03 -0.52555886D-16 -0.37078964D-19  0.94954840D-03 -0.13101654D-16
 -0.78793321D-02 -0.14688866D-01 -0.24826772D-01 -0.37322770D-01 -0.45855336D-01
 -0.38732162D-01 -0.14608346D-01  0.72297521D-04 -0.44301651D-01 -0.82946669D-01
 -0.14122380D+00 -0.21845175D+00 -0.28769327D+00 -0.29893173D+00 -0.18995770D+00
  0.12730523D+00  0.60621899D-01  0.10944199D-01 -0.75648839D-02  0.61366248D-15
  0.57534758D-15  0.40968175D-15  0.83132134D-16  0.77941660D-16  0.55499105D-16
 -0.24961628D+00 -0.23403113D+00 -0.16664411D+00  0.24027041D-15  0.15848019D-16
 -0.30298492D-01 -0.39898088D-16 -0.73956232D-17 -0.17659441D-02 -0.93759143D-18
 -0.34764791D-18  0.26561726D-03 -0.15283460D-01 -0.15283460D-01  0.30566921D-01
 -0.95105858D-17 -0.89989407D-16 -0.31254858D-16 -0.81121731D-03 -0.81121731D-03
  0.16224346D-02  0.12598692D-16 -0.17168995D-15  0.17761884D-16  0.29368416D-03
  0.29368416D-03 -0.58736833D-03  0.13608815D-17  0.10693523D-16  0.36282857D-17
 -0.12564736D-16 -0.28386805D-17 -0.29137205D-02 -0.13648906D-16 -0.79538993D-17
  0.43705807D-02  0.51343114D-16  0.16469941D-16  0.43705807D-02  0.30957781D-16
  0.79135771D-17  0.83428701D-18 -0.23979780D-03  0.76577968D-17  0.38499247D-17
  0.35969670D-03 -0.31398528D-16 -0.63527858D-17  0.35969670D-03 -0.12470534D-16
  0.10724682D-01  0.19342405D-01  0.28520365D-01 -0.65572174D-02 -0.83551180D-02
  0.56207262D-03  0.12343487D-16  0.15273506D-16  0.69516400D-02  0.15894254D-15
  0.13289796D-16 -0.11750440D-01  0.12972695D-16 -0.80157347D-17 -0.25157085D-02
  0.22794527D-02  0.22794527D-02 -0.45589055D-02 -0.50948251D-17  0.74788743D-16
  0.13504392D-16  0.69466550D-03  0.69466550D-03 -0.13893310D-02 -0.17380448D-17
  0.24795136D-16 -0.11121083D-17  0.14122090D-02  0.26324187D-02  0.44625968D-02
  0.67576868D-02  0.84505110D-02  0.72751028D-02  0.27968151D-02 -0.12119058D-04
  0.22407764D-01  0.42077813D-01  0.71651259D-01  0.11224127D+00  0.15041651D+00
  0.16179324D+00  0.97140447D-01 -0.63883645D-01 -0.41433934D-01 -0.29523102D-01
  0.23400172D-02  0.66715908D-15  0.65246701D-15  0.43111254D-15 -0.42474213D-16
 -0.41538852D-16 -0.27446476D-16 -0.44941528D+00 -0.43951833D+00 -0.29040834D+00
  0.16283484D-15 -0.39158330D-17 -0.99549490D-01  0.11097472D-15 -0.10104658D-16
 -0.52206041D-02 -0.33410882D-17 -0.11761343D-17 -0.24152780D-04 -0.11085998D-01
 -0.11085998D-01  0.22171997D-01  0.19738710D-16  0.69395766D-16 -0.49292316D-16
 -0.12533569D-02 -0.12533569D-02  0.25067138D-02  0.10982308D-16 -0.65747587D-16
  0.11794638D-16  0.83588393D-03  0.83588393D-03 -0.16717679D-02 -0.11366191D-17
 -0.57021446D-16  0.79928508D-17  0.13729169D-16 -0.76384101D-17 -0.53272808D-02
 -0.11692558D-17  0.35682917D-17  0.79909212D-02 -0.40018251D-16  0.19346938D-16
  0.79909212D-02  0.29178761D-16 -0.86991567D-17  0.48117289D-17  0.11985825D-02
 -0.59054469D-17 -0.20059927D-17 -0.17978737D-02  0.32002917D-16 -0.12429194D-16
 -0.17978737D-02  0.81467335D-18
MO    6     MO 0.0        OCC NO =    2.0000000  ORB. ENERGY =   -0.601328
  0.31892738D-02  0.59455315D-02  0.10048996D-01  0.15106932D-01  0.18560612D-01
  0.15677404D-01  0.59129398D-02 -0.29263469D-04  0.22988635D-01  0.43041977D-01
  0.73282649D-01  0.11335712D+00  0.14928733D+00  0.15511910D+00  0.98571225D-01
 -0.66060143D-01 -0.27876472D-01 -0.61267120D-01 -0.87751668D-03 -0.38905655D-15
 -0.36476524D-15 -0.25973458D-15 -0.44811044D-15 -0.42013202D-15 -0.29915902D-15
 -0.46031676D-03 -0.43157622D-03 -0.30730798D-03 -0.14113512D-15 -0.19861918D-15
 -0.47024699D-02  0.67606944D-17 -0.18773904D-15 -0.14033934D-01  0.60756950D-17
 -0.11147193D-17  0.38723678D-04  0.86382682D-02  0.86382682D-02 -0.17276536D-01
  0.26145994D-15  0.53972449D-16 -0.73270514D-15  0.23630902D-02  0.23630902D-02
 -0.47261804D-02 -0.64459552D-16 -0.20702861D-16 -0.20089712D-16  0.34464811D-03
  0.34464811D-03 -0.68929622D-03  0.12409142D-17 -0.12966372D-16 -0.56025078D-16
  0.14660896D-17  0.10777299D-16 -0.21781992D-02  0.95765618D-17  0.98346293D-17
  0.32672988D-02 -0.13974831D-16 -0.42166527D-16  0.32672988D-02 -0.17595263D-17
 -0.60686730D-17  0.81524998D-18  0.46648769D-03 -0.66983979D-17  0.15515869D-17
 -0.69973153D-03  0.24904417D-16 -0.39973368D-17 -0.69973153D-03 -0.39089114D-18
 -0.21479733D-02 -0.40043106D-02 -0.67679904D-02 -0.10174506D-01 -0.12500557D-01
 -0.10558719D-01 -0.39823601D-02  0.19708923D-04 -0.18037202D-01 -0.33771334D-01
 -0.57498585D-01 -0.88941568D-01 -0.11713292D+00 -0.12170860D+00 -0.77340354D-01
  0.51831707D-01  0.25833565D-01  0.63433906D-01  0.72347471D-03 -0.44238123D-15
 -0.41476052D-15 -0.29533420D-15 -0.52201787D-15 -0.48942493D-15 -0.34849971D-15
  0.35101582D+00  0.32909965D+00  0.23433855D+00 -0.12662429D-15 -0.65467572D-16
  0.62643339D-01  0.23330503D-16  0.20469441D-15 -0.11071143D-01 -0.58110820D-17
  0.92767455D-20  0.15076944D-04 -0.91706196D-02 -0.91706196D-02  0.18341239D-01
  0.12474227D-16 -0.25643322D-16  0.11340779D-16 -0.46265351D-02 -0.46265351D-02
  0.92530702D-02  0.56085866D-17  0.16451625D-16 -0.87622827D-17 -0.38956703D-03
 -0.38956703D-03  0.77913405D-03 -0.52570162D-18  0.97955109D-18 -0.48722736D-16
  0.71428766D-17  0.82165126D-17  0.42264265D-02  0.10781477D-16  0.92980183D-17
 -0.63396398D-02 -0.32210107D-16 -0.33947556D-16 -0.63396398D-02  0.61682121D-17
 -0.67798845D-17 -0.99494802D-17  0.10271125D-02 -0.70975254D-17 -0.97899363D-17
 -0.15406688D-02  0.27437179D-16  0.39638377D-16 -0.15406688D-02 -0.56211372D-17
 -0.12278857D-01 -0.22145424D-01 -0.32653415D-01 -0.10639706D-01 -0.70685862D-02