 Molden2AIM, Version 4.0.0 (06/02/2016)           Time: Sat Jun 30 00:42:28 2018
GAUSSIAN             11 MOL ORBITALS    252 PRIMITIVES        4 NUCLEI
  C    1    (CENTRE  1)   0.00000000  0.00000000 -2.22380325  CHARGE =  6.0
  H    2    (CENTRE  2)   0.00000000  0.00000000 -4.24128620  CHARGE =  1.0
  N    3    (CENTRE  3)   0.00000000  0.00000000 -0.02701741  CHARGE =  7.0
  O    4    (CENTRE  4)   0.00000000  0.00000000  2.23637371  CHARGE =  8.0
CENTRE ASSIGNMENTS    1  1  1  1  1  1  1  1  1  1  1  1  1  1  1  1  1  1  1  1
CENTRE ASSIGNMENTS    1  1  1  1  1  1  1  1  1  1  1  1  1  1  1  1  1  1  1  1
CENTRE ASSIGNMENTS    1  1  1  1  1  1  1  1  1  1  1  1  1  1  1  1  1  1  1  1
CENTRE ASSIGNMENTS    1  1  1  1  1  1  1  1  1  1  1  1  1  1  1  2  2  2  2  2
CENTRE ASSIGNMENTS    2  2  2  2  2  2  2  2  2  2  2  2  2  2  2  2  2  2  2  2
CENTRE ASSIGNMENTS    2  2  3  3  3  3  3  3  3  3  3  3  3  3  3  3  3  3  3  3
CENTRE ASSIGNMENTS    3  3  3  3  3  3  3  3  3  3  3  3  3  3  3  3  3  3  3  3
CENTRE ASSIGNMENTS    3  3  3  3  3  3  3  3  3  3  3  3  3  3  3  3  3  3  3  3
CENTRE ASSIGNMENTS    3  3  3  3  3  3  3  3  3  3  3  3  3  3  3  3  3  4  4  4
CENTRE ASSIGNMENTS    4  4  4  4  4  4  4  4  4  4  4  4  4  4  4  4  4  4  4  4
CENTRE ASSIGNMENTS    4  4  4  4  4  4  4  4  4  4  4  4  4  4  4  4  4  4  4  4
CENTRE ASSIGNMENTS    4  4  4  4  4  4  4  4  4  4  4  4  4  4  4  4  4  4  4  4
CENTRE ASSIGNMENTS    4  4  4  4  4  4  4  4  4  4  4  4
TYPE ASSIGNMENTS      1  1  1  1  1  1  1  1  1  1  1  1  1  1  1  1  1  1  1  2
TYPE ASSIGNMENTS      2  2  3  3  3  4  4  4  2  3  4  2  3  4  2  3  4  5  6  7
TYPE ASSIGNMENTS      8  9 10  5  6  7  8  9 10  5  6  7  8  9 10 11 12 13 17 14
TYPE ASSIGNMENTS     15 18 19 16 20 11 12 13 17 14 15 18 19 16 20  1  1  1  1  1
TYPE ASSIGNMENTS      1  2  3  4  2  3  4  2  3  4  5  6  7  8  9 10  5  6  7  8
TYPE ASSIGNMENTS      9 10  1  1  1  1  1  1  1  1  1  1  1  1  1  1  1  1  1  1
TYPE ASSIGNMENTS      1  2  2  2  3  3  3  4  4  4  2  3  4  2  3  4  2  3  4  5
TYPE ASSIGNMENTS      6  7  8  9 10  5  6  7  8  9 10  5  6  7  8  9 10 11 12 13
TYPE ASSIGNMENTS     17 14 15 18 19 16 20 11 12 13 17 14 15 18 19 16 20  1  1  1
TYPE ASSIGNMENTS      1  1  1  1  1  1  1  1  1  1  1  1  1  1  1  1  2  2  2  3
TYPE ASSIGNMENTS      3  3  4  4  4  2  3  4  2  3  4  2  3  4  5  6  7  8  9 10
TYPE ASSIGNMENTS      5  6  7  8  9 10  5  6  7  8  9 10 11 12 13 17 14 15 18 19
TYPE ASSIGNMENTS     16 20 11 12 13 17 14 15 18 19 16 20
EXPONENTS  0.8236000D+04 0.1235000D+04 0.2808000D+03 0.7927000D+02 0.2559000D+02
EXPONENTS  0.8997000D+01 0.3319000D+01 0.3643000D+00 0.8236000D+04 0.1235000D+04
EXPONENTS  0.2808000D+03 0.7927000D+02 0.2559000D+02 0.8997000D+01 0.3319000D+01
EXPONENTS  0.3643000D+00 0.9059000D+00 0.1285000D+00 0.4402000D-01 0.1871000D+02
EXPONENTS  0.4133000D+01 0.1200000D+01 0.1871000D+02 0.4133000D+01 0.1200000D+01
EXPONENTS  0.1871000D+02 0.4133000D+01 0.1200000D+01 0.3827000D+00 0.3827000D+00
EXPONENTS  0.3827000D+00 0.1209000D+00 0.1209000D+00 0.1209000D+00 0.3569000D-01
EXPONENTS  0.3569000D-01 0.3569000D-01 0.1097000D+01 0.1097000D+01 0.1097000D+01
EXPONENTS  0.1097000D+01 0.1097000D+01 0.1097000D+01 0.3180000D+00 0.3180000D+00
EXPONENTS  0.3180000D+00 0.3180000D+00 0.3180000D+00 0.3180000D+00 0.1000000D+00
EXPONENTS  0.1000000D+00 0.1000000D+00 0.1000000D+00 0.1000000D+00 0.1000000D+00
EXPONENTS  0.7610000D+00 0.7610000D+00 0.7610000D+00 0.7610000D+00 0.7610000D+00
EXPONENTS  0.7610000D+00 0.7610000D+00 0.7610000D+00 0.7610000D+00 0.7610000D+00
EXPONENTS  0.2680000D+00 0.2680000D+00 0.2680000D+00 0.2680000D+00 0.2680000D+00
EXPONENTS  0.2680000D+00 0.2680000D+00 0.2680000D+00 0.2680000D+00 0.2680000D+00
EXPONENTS  0.3387000D+02 0.5095000D+01 0.1159000D+01 0.3258000D+00 0.1027000D+00
EXPONENTS  0.2526000D-01 0.1407000D+01 0.1407000D+01 0.1407000D+01 0.3880000D+00
EXPONENTS  0.3880000D+00 0.3880000D+00 0.1020000D+00 0.1020000D+00 0.1020000D+00
EXPONENTS  0.1057000D+01 0.1057000D+01 0.1057000D+01 0.1057000D+01 0.1057000D+01
EXPONENTS  0.1057000D+01 0.2470000D+00 0.2470000D+00 0.2470000D+00 0.2470000D+00
EXPONENTS  0.2470000D+00 0.2470000D+00 0.1142000D+05 0.1712000D+04 0.3893000D+03
EXPONENTS  0.1100000D+03 0.3557000D+02 0.1254000D+02 0.4644000D+01 0.5118000D+00
EXPONENTS  0.1142000D+05 0.1712000D+04 0.3893000D+03 0.1100000D+03 0.3557000D+02
EXPONENTS  0.1254000D+02 0.4644000D+01 0.5118000D+00 0.1293000D+01 0.1787000D+00
EXPONENTS  0.5760000D-01 0.2663000D+02 0.5948000D+01 0.1742000D+01 0.2663000D+02
EXPONENTS  0.5948000D+01 0.1742000D+01 0.2663000D+02 0.5948000D+01 0.1742000D+01
EXPONENTS  0.5550000D+00 0.5550000D+00 0.5550000D+00 0.1725000D+00 0.1725000D+00
EXPONENTS  0.1725000D+00 0.4910000D-01 0.4910000D-01 0.4910000D-01 0.1654000D+01
EXPONENTS  0.1654000D+01 0.1654000D+01 0.1654000D+01 0.1654000D+01 0.1654000D+01
EXPONENTS  0.4690000D+00 0.4690000D+00 0.4690000D+00 0.4690000D+00 0.4690000D+00
EXPONENTS  0.4690000D+00 0.1510000D+00 0.1510000D+00 0.1510000D+00 0.1510000D+00
EXPONENTS  0.1510000D+00 0.1510000D+00 0.1093000D+01 0.1093000D+01 0.1093000D+01
EXPONENTS  0.1093000D+01 0.1093000D+01 0.1093000D+01 0.1093000D+01 0.1093000D+01
EXPONENTS  0.1093000D+01 0.1093000D+01 0.3640000D+00 0.3640000D+00 0.3640000D+00
EXPONENTS  0.3640000D+00 0.3640000D+00 0.3640000D+00 0.3640000D+00 0.3640000D+00
EXPONENTS  0.3640000D+00 0.3640000D+00 0.1533000D+05 0.2299000D+04 0.5224000D+03
EXPONENTS  0.1473000D+03 0.4755000D+02 0.1676000D+02 0.6207000D+01 0.6882000D+00
EXPONENTS  0.1533000D+05 0.2299000D+04 0.5224000D+03 0.1473000D+03 0.4755000D+02
EXPONENTS  0.1676000D+02 0.6207000D+01 0.6882000D+00 0.1752000D+01 0.2384000D+00
EXPONENTS  0.7376000D-01 0.3446000D+02 0.7749000D+01 0.2280000D+01 0.3446000D+02
EXPONENTS  0.7749000D+01 0.2280000D+01 0.3446000D+02 0.7749000D+01 0.2280000D+01
EXPONENTS  0.7156000D+00 0.7156000D+00 0.7156000D+00 0.2140000D+00 0.2140000D+00
EXPONENTS  0.2140000D+00 0.5974000D-01 0.5974000D-01 0.5974000D-01 0.2314000D+01
EXPONENTS  0.2314000D+01 0.2314000D+01 0.2314000D+01 0.2314000D+01 0.2314000D+01
EXPONENTS  0.6450000D+00 0.6450000D+00 0.6450000D+00 0.6450000D+00 0.6450000D+00
EXPONENTS  0.6450000D+00 0.2140000D+00 0.2140000D+00 0.2140000D+00 0.2140000D+00
EXPONENTS  0.2140000D+00 0.2140000D+00 0.1428000D+01 0.1428000D+01 0.1428000D+01
EXPONENTS  0.1428000D+01 0.1428000D+01 0.1428000D+01 0.1428000D+01 0.1428000D+01
EXPONENTS  0.1428000D+01 0.1428000D+01 0.5000000D+00 0.5000000D+00 0.5000000D+00
EXPONENTS  0.5000000D+00 0.5000000D+00 0.5000000D+00 0.5000000D+00 0.5000000D+00
EXPONENTS  0.5000000D+00 0.5000000D+00
MO    1     MO 0.0        OCC NO =    2.0000000  ORB. ENERGY =  -19.000430
 -0.36554997D-03 -0.68146825D-03 -0.11518014D-02 -0.17315348D-02 -0.21273905D-02
 -0.17969214D-02 -0.67773264D-03  0.33541367D-05  0.28306822D-03  0.52999302D-03
  0.90235847D-03  0.13958113D-02  0.18382344D-02  0.19100433D-02  0.12137468D-02
 -0.81342487D-03 -0.17477191D-02  0.20082023D-02  0.10387964D-03 -0.15554799D-15
 -0.14583613D-15 -0.10384401D-15 -0.13389439D-15 -0.12553451D-15 -0.89388046D-16
 -0.90629706D-03 -0.84971110D-03 -0.60504492D-03  0.57244181D-16  0.54631217D-16
  0.25013366D-02 -0.16148765D-17 -0.27639544D-17 -0.65941231D-03  0.15023291D-20
 -0.19476857D-18 -0.36890666D-04 -0.23641457D-03 -0.23641457D-03  0.47282914D-03
  0.18827089D-19 -0.33232227D-17  0.57667041D-17 -0.49254408D-03 -0.49254408D-03
  0.98508816D-03 -0.55365757D-19  0.65434922D-17  0.82980182D-18 -0.54352569D-04
 -0.54352569D-04  0.10870514D-03 -0.23849066D-20  0.49819773D-19 -0.37284154D-18
 -0.28816637D-18  0.83507023D-18  0.54361004D-03 -0.28761575D-18  0.85652368D-18
 -0.81541507D-03  0.11521149D-17 -0.33617344D-17 -0.81541507D-03 -0.59595381D-19
 -0.11004443D-18  0.52496316D-18 -0.87928387D-04 -0.11045423D-18  0.52197671D-18
  0.13189258D-03  0.44058752D-18 -0.20968662D-17  0.13189258D-03 -0.39972534D-19
  0.11899750D-04  0.21461690D-04  0.31645249D-04 -0.11337368D-02 -0.16327104D-02
 -0.57821554D-04 -0.43146903D-17 -0.18472715D-18  0.21540362D-03  0.55086192D-17
  0.64954897D-17  0.53812941D-03  0.10140135D-17  0.68509589D-18 -0.64208579D-04
 -0.25742407D-03 -0.25742407D-03  0.51484814D-03 -0.38726422D-19 -0.27101081D-17
  0.41519782D-17 -0.66013991D-04 -0.66013991D-04  0.13202798D-03 -0.75379439D-20
  0.38489700D-17  0.18489570D-17  0.25433619D-03  0.47391804D-03  0.80151422D-03
  0.12070360D-02  0.14943889D-02  0.12716575D-02  0.48388913D-03 -0.22662592D-05
 -0.19170192D-03 -0.35944289D-03 -0.61151929D-03 -0.94962490D-03 -0.12602075D-02
 -0.13280857D-02 -0.82349785D-03  0.54779109D-03  0.25562543D-03  0.38793737D-03
  0.10236654D-02  0.27178775D-17  0.26104888D-17  0.18306550D-17 -0.85209016D-18
 -0.81842242D-18 -0.57393429D-18  0.31371332D-04  0.30131790D-04  0.21130491D-04
 -0.47529246D-17  0.34888881D-17  0.54568702D-02  0.32830821D-18  0.32628385D-17
 -0.73261471D-03  0.65163052D-19  0.43498569D-18  0.90594773D-05 -0.64244179D-03
 -0.64244179D-03  0.12848836D-02 -0.30828653D-19  0.57766157D-17 -0.57688777D-17
  0.16323074D-03  0.16323074D-03 -0.32646147D-03  0.16962439D-19  0.55566202D-17
 -0.28644541D-18 -0.52381712D-05 -0.52381712D-05  0.10476342D-04  0.18401253D-19
 -0.15682498D-18 -0.63667464D-18 -0.10167587D-17  0.41774787D-18  0.50546181D-03
 -0.10214630D-17  0.38499129D-18 -0.75819272D-03  0.40717391D-17 -0.16382349D-17
 -0.75819272D-03 -0.31435115D-19 -0.11639538D-18  0.35198255D-18 -0.57496544D-03
 -0.11458743D-18  0.35831596D-18  0.86244816D-03  0.46377356D-18 -0.14142636D-17
  0.86244816D-03 -0.10879335D-18  0.49799773D+00  0.92820370D+00  0.15739259D+01
  0.23822102D+01  0.29723028D+01  0.25528117D+01  0.98007405D+00 -0.43839314D-02
 -0.57914179D-03 -0.10861948D-02 -0.18517240D-02 -0.28938842D-02 -0.38696745D-02
 -0.41319102D-02 -0.25261689D-02  0.16666128D-02  0.53879173D-01 -0.67335084D-03
 -0.11204148D-02  0.22017677D-16  0.21349740D-16  0.14402409D-16 -0.74719080D-17
 -0.72452373D-17 -0.48875943D-17 -0.11160661D-01 -0.10822087D-01 -0.73005162D-02
 -0.47310893D-17  0.14298381D-17  0.11997630D-02 -0.22694370D-18 -0.44924708D-18
  0.16620555D-02 -0.12237957D-19 -0.11977862D-18  0.11335895D-03 -0.98522055D-03
 -0.98522055D-03  0.19704411D-02 -0.68627876D-17 -0.59534464D-17  0.54450969D-17
  0.87749168D-03  0.87749168D-03 -0.17549834D-02  0.49673946D-18  0.36509154D-17
 -0.13828755D-17  0.18790708D-03  0.18790708D-03 -0.37581416D-03 -0.28306025D-19
  0.20250097D-18  0.28081993D-18 -0.25775119D-18 -0.11639829D-17  0.41701378D-03
 -0.11420470D-18 -0.67955804D-18 -0.62552067D-03  0.88745826D-18  0.41715068D-17
 -0.62552067D-03 -0.14476487D-17  0.12648241D-18  0.14042417D-18  0.38345027D-03
  0.11647436D-18  0.11118530D-18 -0.57517540D-03 -0.49592161D-18 -0.53245782D-18
 -0.57517540D-03  0.33894469D-20
MO    2     MO 0.0        OCC NO =    2.0000000  ORB. ENERGY =  -14.314589
 -0.24697773D-03 -0.46042265D-03 -0.77819539D-03 -0.11698826D-02 -0.14373359D-02
 -0.12140600D-02 -0.45789875D-03  0.22661665D-05  0.19349903D-03  0.36229124D-03
  0.61683184D-03  0.95414507D-03  0.12565755D-02  0.13056624D-02  0.82968986D-03
 -0.55603885D-03  0.13329095D-02  0.15100119D-02  0.13358771D-03  0.48882166D-15
  0.45830138D-15  0.32633788D-15  0.23925750D-15  0.22431912D-15  0.15972857D-15
  0.29499873D-02  0.27658006D-02  0.19694148D-02 -0.49013263D-17 -0.13343632D-18
 -0.81296340D-02 -0.44906441D-18 -0.41447009D-18 -0.53860805D-02  0.44350542D-20
 -0.44077027D-19  0.46848753D-05  0.11647130D-02  0.11647130D-02 -0.23294259D-02
  0.17313909D-18 -0.49902138D-17 -0.23699994D-17  0.92119939D-03  0.92119939D-03
 -0.18423988D-02 -0.22537722D-18  0.26884365D-17 -0.13834552D-17  0.11814614D-03
  0.11814614D-03 -0.23629228D-03  0.47404436D-20  0.41147977D-18 -0.15721009D-18
  0.80223184D-18  0.23286215D-18 -0.27132969D-02  0.76210968D-18  0.23505142D-18
  0.40699454D-02 -0.31688052D-17 -0.93363788D-18  0.40699454D-02  0.29311220D-18
 -0.90158259D-20 -0.53911048D-19 -0.35273428D-03  0.34557687D-20 -0.54335132D-19
  0.52910141D-03  0.23591709D-19  0.21606828D-18  0.52910141D-03 -0.27665399D-18
 -0.30174148D-03 -0.54420318D-03 -0.80242727D-03 -0.31984673D-02 -0.55615756D-02
 -0.13925464D-04 -0.32014661D-17  0.37572590D-18 -0.28457160D-02  0.41674540D-17
 -0.11282244D-17 -0.11424776D-02  0.79972831D-18 -0.19707563D-18 -0.12132913D-02
  0.47388620D-03  0.47388620D-03 -0.94777240D-03  0.18617095D-19  0.15676201D-17
  0.57464525D-18  0.45763843D-04  0.45763843D-04 -0.91527687D-04 -0.11012749D-18
  0.15759889D-17 -0.28966281D-18  0.41411308D+00  0.77163875D+00  0.13050346D+01
  0.19653097D+01  0.24331810D+01  0.20705272D+01  0.78787379D+00 -0.36899491D-02
 -0.27460894D-02 -0.51489432D-02 -0.87598845D-02 -0.13603176D-01 -0.18052205D-01
 -0.19024546D-01 -0.11796432D-01  0.78469914D-02  0.42715265D-01  0.85035177D-02
 -0.54268538D-03  0.41249380D-17  0.39619537D-17  0.27783954D-17 -0.42208695D-16
 -0.40540947D-16 -0.28430110D-16  0.31000513D-02  0.29775622D-02  0.20880722D-02
  0.20945469D-18  0.62296973D-17 -0.80853057D-02 -0.13932546D-17  0.25060973D-17
 -0.11550119D-02 -0.91551329D-19  0.20003519D-18  0.17315709D-04 -0.40110275D-02
 -0.40110275D-02  0.80220549D-02 -0.17253904D-16 -0.31082815D-17 -0.68422314D-17
 -0.30125013D-04 -0.30125013D-04  0.60250026D-04  0.94084757D-18 -0.45181127D-18
  0.33366003D-17  0.39727652D-03  0.39727652D-03 -0.79455304D-03  0.59022397D-20
 -0.48646293D-18  0.33656877D-18 -0.10399332D-17 -0.13287318D-17 -0.15109806D-02
  0.15488670D-17 -0.17435642D-17  0.22664710D-02  0.15709326D-17  0.57297596D-17
  0.22664710D-02  0.11488109D-17 -0.29711686D-18 -0.58088982D-18 -0.14395366D-04
 -0.40070957D-18 -0.56126545D-18  0.21593048D-04  0.12920601D-17  0.23039349D-17
  0.21593048D-04 -0.46168451D-18  0.31687310D-03  0.59061069D-03  0.10014800D-02
  0.15157867D-02  0.18912592D-02  0.16243394D-02  0.62361549D-03 -0.27894704D-05
 -0.25337120D-03 -0.47520396D-03 -0.81011857D-03 -0.12660576D-02 -0.16929603D-02
 -0.18076869D-02 -0.11051843D-02  0.72913349D-03  0.54843078D-04  0.26680030D-02
  0.54820412D-03  0.17072478D-17  0.16554561D-17  0.11167609D-17  0.21978903D-17
  0.21312143D-17  0.14377046D-17 -0.31085064D-03 -0.30142056D-03 -0.20333653D-03
 -0.10006226D-17 -0.18501969D-17 -0.19179575D-02  0.11202684D-17 -0.29288448D-17
  0.59254136D-03  0.50210101D-19 -0.14430679D-18 -0.43015286D-04 -0.10039121D-02
 -0.10039121D-02  0.20078242D-02 -0.15266060D-18 -0.15973206D-17  0.16940211D-17
  0.11233091D-03  0.11233091D-03 -0.22466183D-03  0.13040463D-18  0.11982087D-17
  0.29305804D-17  0.13316805D-03  0.13316805D-03 -0.26633610D-03  0.18704003D-19
 -0.51272632D-18  0.14160126D-17  0.30568257D-17  0.10990780D-17  0.44162103D-03
  0.29604027D-17  0.11546068D-17 -0.66243155D-03 -0.12130880D-16 -0.44518407D-17
 -0.66243155D-03 -0.24259813D-19 -0.29613068D-18  0.27436279D-18  0.31041623D-03
 -0.27153596D-18  0.26438783D-18 -0.46562434D-03  0.11599280D-17 -0.10874762D-17
 -0.46562434D-03 -0.62917577D-19
MO    3     MO 0.0        OCC NO =    2.0000000  ORB. ENERGY =  -10.093886
  0.33056267D+00  0.61624397D+00  0.10415609D+01  0.15658072D+01  0.19237750D+01
  0.16249355D+01  0.61286590D+00 -0.30331075D-02 -0.35889522D-02 -0.67196510D-02
 -0.11440781D-01 -0.17697148D-01 -0.23306522D-01 -0.24216969D-01 -0.15388797D-01
  0.10313214D-01  0.35868853D-01  0.70092135D-02  0.11229315D-02 -0.19813051D-16
 -0.18575995D-16 -0.13227215D-16 -0.19611806D-16 -0.18387315D-16 -0.13092864D-16
  0.37539702D-02  0.35195857D-02  0.25061547D-02  0.68787521D-17  0.38160779D-17
  0.20595991D-02  0.13673296D-17  0.57227377D-18  0.24798879D-02  0.46706949D-19
  0.19489747D-19  0.10992623D-03 -0.38482667D-02 -0.38482667D-02  0.76965335D-02
  0.16949227D-17  0.34527322D-17 -0.34206312D-17  0.82635049D-04  0.82635049D-04
 -0.16527010D-03 -0.27780581D-19  0.21335806D-17  0.75652990D-18  0.25998739D-04
  0.25998739D-04 -0.51997477D-04  0.22311180D-20  0.34533781D-18  0.18162216D-18
 -0.10821442D-17 -0.29487043D-19 -0.11832707D-03 -0.55858224D-18 -0.89481096D-18
  0.17749060D-03  0.38050149D-17  0.98327209D-18  0.17749060D-03  0.30151045D-19
 -0.23249207D-18 -0.12622893D-18  0.69391171D-04 -0.24822654D-18 -0.10192368D-18
 -0.10408676D-03  0.94570274D-18  0.48061048D-18 -0.10408676D-03  0.75033849D-19
  0.18078559D-03  0.32605425D-03  0.48076680D-03 -0.11561022D-02  0.65490015D-03
  0.30674075D-04 -0.75187275D-19  0.15659184D-18 -0.13317257D-02 -0.21309115D-17
 -0.13662344D-17 -0.30388642D-02  0.99285060D-19  0.87254836D-19 -0.26747769D-03
  0.16842144D-02  0.16842144D-02 -0.33684288D-02 -0.86562095D-19 -0.25372096D-17
 -0.15367793D-17  0.20643523D-03  0.20643523D-03 -0.41287045D-03  0.41176470D-19
 -0.33880153D-18 -0.28284947D-18 -0.27962347D-03 -0.52103716D-03 -0.88120446D-03
 -0.13270451D-02 -0.16429679D-02 -0.13980915D-02 -0.53199962D-03  0.24915812D-05
  0.33458376D-04  0.62734767D-04  0.10673051D-03  0.16574121D-03  0.21994822D-03
  0.23179523D-03  0.14372783D-03 -0.95607808D-04  0.16710723D-02 -0.10199414D-01
 -0.35951988D-02  0.19561489D-17  0.18788577D-17  0.13175847D-17  0.84848256D-18
  0.81495736D-18  0.57150435D-18 -0.23718707D-02 -0.22781535D-02 -0.15975985D-02
 -0.29286264D-17 -0.11233477D-17  0.15593886D-02 -0.29700106D-17 -0.14131304D-17
  0.57917249D-02 -0.18901287D-18 -0.75868133D-19  0.13979892D-03 -0.29164745D-03
 -0.29164745D-03  0.58329490D-03  0.26121656D-18 -0.12106046D-17 -0.10462646D-17
  0.18950842D-02  0.18950842D-02 -0.37901684D-02 -0.79240293D-19  0.49644654D-17
  0.18842329D-17  0.10919356D-03  0.10919356D-03 -0.21838712D-03 -0.28512529D-20
  0.60196086D-18  0.28807594D-18  0.29912797D-18 -0.20808853D-18 -0.67003003D-04
  0.32388394D-18 -0.79866783D-19  0.10050450D-03 -0.12212679D-17  0.70413237D-18
  0.10050450D-03 -0.83705707D-19  0.23065218D-18  0.12161154D-18  0.99160780D-03
  0.23079245D-18  0.12020924D-18 -0.14874117D-02 -0.92274899D-18 -0.48504385D-18
 -0.14874117D-02  0.11135900D-18 -0.50651890D-03 -0.94408606D-03 -0.16008572D-02
 -0.24229719D-02 -0.30231615D-02 -0.25964925D-02 -0.99684396D-03  0.44589442D-05
  0.36503769D-03  0.68463723D-03  0.11671564D-02  0.18240383D-02  0.24390867D-02
  0.26043759D-02  0.15922644D-02 -0.10504793D-02 -0.50350884D-03 -0.77212163D-03
  0.12688165D-02 -0.31326364D-19 -0.30376035D-19 -0.20491494D-19 -0.22152091D-18
 -0.21480076D-18 -0.14490333D-18  0.89938468D-03  0.87210061D-03  0.58831392D-03
  0.18194578D-18  0.24322802D-18 -0.98460882D-03 -0.34362251D-19  0.96999907D-21
 -0.99027704D-03  0.65326146D-19  0.18126707D-19 -0.15137748D-03  0.69816781D-04
  0.69816781D-04 -0.13963356D-03  0.43814136D-19 -0.13468816D-17 -0.21504319D-18
 -0.38733041D-03 -0.38733041D-03  0.77466082D-03 -0.38902399D-19  0.85090554D-18
  0.24408420D-18 -0.15867675D-03 -0.15867675D-03  0.31735350D-03 -0.13806391D-19
 -0.95460791D-19 -0.39323824D-19 -0.41386566D-19  0.91570326D-19 -0.13427530D-03
  0.16330173D-19  0.14958486D-18  0.20141295D-03  0.10782952D-18 -0.42429584D-18
  0.20141295D-03 -0.10519329D-18  0.10030893D-18  0.41778685D-19  0.23953329D-04
  0.92005322D-19  0.30791431D-19 -0.35929993D-04 -0.39293211D-18 -0.15612749D-18
 -0.35929993D-04  0.88458958D-19
MO    4     MO 0.0        OCC NO =    2.0000000  ORB. ENERGY =   -1.136894
 -0.18391720D-02 -0.34286347D-02 -0.57949966D-02 -0.87117781D-02 -0.10703426D-01
 -0.90407544D-02 -0.34098399D-02  0.16875488D-04 -0.95899323D-02 -0.17955379D-01
 -0.30570569D-01 -0.47288022D-01 -0.62276662D-01 -0.64709441D-01 -0.41119945D-01
  0.27557631D-01  0.13234318D-01  0.24176304D-01  0.36509131D-02 -0.37311482D-15
 -0.34981886D-15 -0.24909187D-15 -0.22810300D-15 -0.21386106D-15 -0.15228182D-15
  0.81154517D-01  0.76087518D-01  0.54178846D-01 -0.72072965D-17 -0.66706877D-16
  0.15398756D-01 -0.63528200D-16 -0.21721497D-16 -0.11686837D-01 -0.24525162D-17
  0.48097987D-17  0.18177198D-03 -0.79997791D-02 -0.79997791D-02  0.15999558D-01
 -0.20564438D-15  0.24506214D-16 -0.18664035D-15  0.14111245D-03  0.14111245D-03
 -0.28222490D-03  0.50042232D-17 -0.52963793D-16 -0.69147845D-17  0.20018640D-03
  0.20018640D-03 -0.40037280D-03  0.60447441D-18 -0.14872471D-16  0.12048215D-17
  0.84446267D-17 -0.98221074D-18  0.11266069D-02  0.98165639D-17 -0.10556776D-17
 -0.16899103D-02 -0.35150444D-16  0.40023098D-17 -0.16899103D-02  0.34109058D-17
  0.49009532D-17  0.26852377D-17 -0.11096920D-02  0.45499559D-17  0.14773811D-17
  0.16645380D-02 -0.19252816D-16 -0.95330943D-17  0.16645380D-02  0.24559759D-17
  0.48730909D-03  0.87888202D-03  0.12959110D-02 -0.65493768D-02 -0.18180860D-01
 -0.14151981D-03 -0.81210972D-17 -0.11198290D-16 -0.14041711D-02  0.32443604D-16
  0.19820721D-16  0.69221821D-03 -0.11039136D-16  0.49088588D-17 -0.35859317D-02
  0.72647880D-03  0.72647880D-03 -0.14529576D-02 -0.40995420D-17  0.19719704D-16
  0.19522049D-17 -0.83686850D-04 -0.83686850D-04  0.16737370D-03  0.24699046D-17
  0.26193099D-17  0.43223209D-17 -0.70182996D-02 -0.13077568D-01 -0.22117446D-01
 -0.33307648D-01 -0.41237029D-01 -0.35090850D-01 -0.13352716D-01  0.62536465D-04
 -0.54707407D-01 -0.10257690D+00 -0.17451383D+00 -0.27100155D+00 -0.35963481D+00
 -0.37900573D+00 -0.23500773D+00  0.15632723D+00  0.84004869D-01  0.13944501D-01
 -0.87065489D-02  0.85924357D-16  0.82529318D-16  0.57875254D-16 -0.42054388D-15
 -0.40392737D-15 -0.28326175D-15  0.26501500D+00  0.25454374D+00  0.17850364D+00
  0.49393119D-16 -0.11107010D-15  0.51819911D-01  0.84222305D-16 -0.13881984D-17
  0.17274987D-02  0.48552828D-17 -0.67120762D-19  0.18620347D-03 -0.31378979D-01
 -0.31378979D-01  0.62757959D-01 -0.19482325D-16  0.43980216D-16  0.14024234D-16
 -0.12815524D-02 -0.12815524D-02  0.25631049D-02  0.76005229D-18 -0.68346485D-16
 -0.53998900D-17  0.13067212D-02  0.13067212D-02 -0.26134423D-02  0.62323894D-18
 -0.27597516D-16  0.45952290D-17 -0.82923174D-17  0.18868861D-16  0.10572546D-01
  0.37527820D-17  0.93057202D-17 -0.15858819D-01  0.21124170D-16 -0.65912305D-16
 -0.15858819D-01 -0.15984645D-16 -0.24803067D-17  0.29064640D-17 -0.17378344D-03
 -0.42190056D-17  0.53791837D-17  0.26067516D-03  0.11659926D-16 -0.14098576D-16
  0.26067516D-03  0.97960122D-17 -0.75321715D-02 -0.14038998D-01 -0.23805490D-01
 -0.36030718D-01 -0.44955816D-01 -0.38611050D-01 -0.14823533D-01  0.66306572D-04
 -0.72539451D-01 -0.13604954D+00 -0.23193464D+00 -0.36246869D+00 -0.48468971D+00
 -0.51753560D+00 -0.31641112D+00  0.20874884D+00  0.11104886D+00  0.59994438D-01
  0.46426836D-02  0.13372387D-15  0.12966717D-15  0.87472707D-16 -0.21400089D-15
 -0.20750888D-15 -0.13998426D-15 -0.46881611D+00 -0.45459392D+00 -0.30666637D+00
  0.42513224D-16 -0.36537259D-16 -0.11747454D+00  0.11648350D-16 -0.11768997D-16
 -0.89613347D-02  0.12820196D-17  0.35018374D-18 -0.24883651D-03 -0.31502853D-01
 -0.31502853D-01  0.63005706D-01  0.65800986D-16 -0.49103890D-16  0.79186109D-16
 -0.93605310D-02 -0.93605310D-02  0.18721062D-01  0.49980861D-17 -0.28883160D-16
  0.14926546D-16  0.80159299D-04  0.80159299D-04 -0.16031860D-03 -0.40998586D-18
 -0.51408894D-17  0.30454061D-17 -0.32660058D-17  0.44009943D-17 -0.16734045D-01
 -0.15268880D-16  0.67381396D-17  0.25101068D-01  0.25066898D-16 -0.19941122D-16
  0.25101068D-01 -0.16718469D-16 -0.43186586D-17  0.19127218D-17 -0.13355284D-02
 -0.96807691D-18  0.94086755D-18  0.20032926D-02  0.13924053D-16 -0.66790329D-17
  0.20032926D-02  0.31024323D-17
MO    5     MO 0.0        OCC NO =    2.0000000  ORB. ENERGY =   -0.887395
 -0.82367944D-02 -0.15355257D-01 -0.25953090D-01 -0.39015996D-01 -0.47935659D-01
 -0.40489327D-01 -0.15271084D-01  0.75577449D-04 -0.38785184D-01 -0.72618102D-01
 -0.12363853D+00 -0.19125001D+00 -0.25186953D+00 -0.26170858D+00 -0.16630405D+00
  0.11145311D+00  0.47400202D-01  0.36814718D-01  0.40382550D-02 -0.67494525D-15
 -0.63280408D-15 -0.45059420D-15 -0.63405187D-15 -0.59446393D-15 -0.42329373D-15
  0.26956086D+00  0.25273044D+00  0.17995913D+00 -0.11299653D-15 -0.13693425D-15
  0.40193844D-01 -0.26029633D-16  0.22989681D-17 -0.71185949D-02  0.11396724D-17
 -0.18173851D-17  0.12039192D-03 -0.24037491D-01 -0.24037491D-01  0.48074982D-01
  0.16276517D-15 -0.87292816D-16  0.10497704D-15 -0.22505733D-02 -0.22505733D-02
  0.45011466D-02  0.69511869D-17  0.55591343D-17 -0.39140949D-17  0.19486010D-03
  0.19486010D-03 -0.38972021D-03  0.17303118D-18  0.27509263D-17  0.41336221D-18
  0.47785669D-17  0.96370860D-17  0.76158487D-02  0.98890002D-17  0.92619417D-17
 -0.11423773D-01 -0.24224701D-16 -0.38173200D-16 -0.11423773D-01  0.28067237D-17
  0.70307378D-18 -0.17378742D-17 -0.99489153D-03  0.76878649D-18 -0.49142113D-17
  0.14923373D-02 -0.28780078D-17  0.10127834D-16  0.14923373D-02 -0.36695067D-17
  0.54043422D-02  0.97469536D-02  0.14371877D-01 -0.98963436D-02 -0.15786808D-01
 -0.23613956D-03 -0.19081108D-16 -0.18938109D-17  0.46569627D-02  0.25194768D-16
 -0.29179984D-16 -0.72356655D-02  0.10012156D-16 -0.85921868D-18 -0.36971843D-02
  0.20135008D-02  0.20135008D-02 -0.40270015D-02 -0.50651805D-17 -0.32373841D-17
 -0.41907846D-17  0.37036126D-03  0.37036126D-03 -0.74072252D-03 -0.35638767D-17
  0.16504242D-16 -0.36645378D-17 -0.44985203D-02 -0.83823301D-02 -0.14176622D-01
 -0.21349207D-01 -0.26431703D-01 -0.22492186D-01 -0.85586918D-02  0.40084005D-04
 -0.44567662D-01 -0.83564782D-01 -0.14216856D+00 -0.22077276D+00 -0.29297829D+00
 -0.30875890D+00 -0.19145022D+00  0.12735276D+00  0.67035312D-01  0.27475845D-01
 -0.76217182D-02 -0.20668062D-15 -0.19851426D-15 -0.13921190D-15 -0.44247529D-15
 -0.42499222D-15 -0.29803388D-15 -0.67087177D+00 -0.64436431D+00 -0.45187273D+00
 -0.53821332D-16 -0.13581443D-15 -0.13186131D+00 -0.17329995D-17 -0.32988812D-17
  0.14016274D-02 -0.12548281D-17 -0.36194908D-18  0.74400275D-03 -0.91135290D-02
 -0.91135290D-02  0.18227058D-01  0.10388524D-16  0.17280570D-16  0.14828864D-15
 -0.45879849D-03 -0.45879849D-03  0.91759699D-03  0.10353938D-16 -0.17452805D-16
  0.39864623D-16  0.60084783D-03  0.60084783D-03 -0.12016957D-02 -0.64792124D-19
 -0.71172780D-17  0.26022660D-18  0.50961319D-17 -0.11624091D-17 -0.13444134D-01
  0.26960864D-16 -0.83259944D-18  0.20166201D-01 -0.42249260D-16  0.43198266D-17
  0.20166201D-01 -0.40625437D-16  0.17934144D-17 -0.57361998D-17 -0.52186592D-03
 -0.41420249D-17 -0.49178117D-17  0.78279888D-03 -0.12382183D-17  0.22126411D-16
  0.78279888D-03  0.58109673D-17  0.37947376D-02  0.70729027D-02  0.11993299D-01
  0.18152417D-01  0.22648917D-01  0.19452399D-01  0.74681542D-02 -0.33405512D-04
  0.44284732D-01  0.83057113D-01  0.14159417D+00  0.22128413D+00  0.29589904D+00
  0.31595119D+00  0.19316636D+00 -0.12743943D+00 -0.70674294D-01 -0.40877577D-01
  0.89857312D-03 -0.21541513D-15 -0.20888021D-15 -0.14090936D-15  0.31771961D-16
  0.30808115D-16  0.20782972D-16  0.11626111D+00  0.11273416D+00  0.76049801D-01
 -0.62400786D-16 -0.10558983D-16  0.30062102D-01  0.93294698D-17 -0.68248512D-17
  0.57070632D-02  0.91625717D-18 -0.53674588D-18 -0.44190533D-03  0.72517366D-02
  0.72517366D-02 -0.14503473D-01 -0.31758578D-16  0.47381443D-16 -0.12943121D-16
  0.31271517D-02  0.31271517D-02 -0.62543034D-02 -0.10096929D-16 -0.26941537D-17
  0.14780674D-16  0.10618951D-03  0.10618951D-03 -0.21237901D-03 -0.22104961D-17
 -0.31578285D-17  0.22807332D-17 -0.29044112D-18  0.53294673D-17  0.71936672D-02
 -0.20962249D-17  0.20633023D-17 -0.10790501D-01  0.29675483D-17 -0.18051704D-16
 -0.10790501D-01 -0.41176246D-17 -0.17052820D-17 -0.14316530D-17  0.63821143D-03
 -0.18504673D-19 -0.82229066D-18 -0.95731714D-03  0.51343506D-17  0.51172497D-17
 -0.95731714D-03  0.96742787D-17
MO    6     MO 0.0        OCC NO =    2.0000000  ORB. ENERGY =   -0.570905
 -0.44624513D-02 -0.83190239D-02 -0.14060616D-01 -0.21137711D-01 -0.25970121D-01
 -0.21935918D-01 -0.82734214D-02  0.40945624D-04 -0.35458954D-01 -0.66390350D-01
 -0.11303525D+00 -0.17484835D+00 -0.23026912D+00 -0.23926437D+00 -0.15204176D+00
  0.10189485D+00  0.44705203D-01  0.50125113D-01  0.23846929D-02  0.31608694D-15
  0.29635160D-15  0.21101999D-15 -0.67715508D-16 -0.63487593D-16 -0.45206949D-16
 -0.39629184D+00 -0.37154879D+00 -0.26456487D+00  0.17378331D-15  0.24112368D-16
 -0.71023984D-01  0.33956814D-16 -0.41398070D-16 -0.11217381D-01 -0.68191694D-17
 -0.16781852D-17 -0.89174812D-04 -0.32989266D-02 -0.32989266D-02  0.65978531D-02
 -0.89841948D-16  0.63376132D-16 -0.33833075D-15 -0.16967967D-02 -0.16967967D-02
  0.33935933D-02  0.17750962D-16  0.27755179D-16 -0.35546243D-16 -0.31312792D-03
 -0.31312792D-03  0.62625585D-03  0.23036300D-17  0.45408518D-17 -0.81621602D-17
 -0.63314590D-17  0.73535062D-18 -0.23054055D-02 -0.78498873D-17 -0.85967733D-17
  0.34581083D-02  0.26844264D-16  0.63907214D-17  0.34581083D-02  0.25142590D-16
 -0.89064769D-18  0.20740527D-17 -0.45090550D-03  0.29963988D-18  0.42202656D-17
  0.67635825D-03  0.23723032D-17 -0.10442424D-16  0.67635825D-03  0.90633650D-17
  0.44770851D-01  0.80746073D-01  0.11906004D+00  0.65802870D-01 -0.97159401D-02
 -0.32430804D-03  0.48984401D-17 -0.22680340D-16  0.35866491D-01  0.14181758D-16
 -0.10372905D-16  0.93916746D-02  0.11159208D-16 -0.67801059D-17 -0.16272954D-02
 -0.56489825D-02 -0.56489825D-02  0.11297965D-01 -0.17645422D-16 -0.16500957D-17
 -0.13050656D-16 -0.25433744D-03 -0.25433744D-03  0.50867487D-03  0.83467025D-17
  0.92355511D-17 -0.52362127D-17  0.45818618D-03  0.85376247D-03  0.14439264D-02
  0.21744731D-02  0.26921388D-02  0.22908886D-02  0.87172537D-03 -0.40826618D-05
  0.26887009D-01  0.50413392D-01  0.85768180D-01  0.13318893D+00  0.17674945D+00
  0.18626966D+00  0.11549907D+00 -0.76830028D-01 -0.42829574D-01 -0.30562119D-01
 -0.63477823D-03  0.12346343D-14  0.11858515D-14  0.83160091D-15  0.36930592D-16
  0.35471392D-16  0.24874988D-16  0.31396086D-01  0.30155565D-01  0.21147164D-01
  0.30322508D-15  0.39895610D-16  0.88775435D-02  0.23231754D-16  0.41918392D-16
  0.16102541D-02  0.57401449D-17  0.80458677D-17 -0.14508330D-03  0.48986719D-02
  0.48986719D-02 -0.97973439D-02  0.22227390D-16  0.61625653D-19  0.23988134D-16
  0.77705749D-03  0.77705749D-03 -0.15541150D-02 -0.19263751D-16  0.30346310D-17
 -0.15614147D-18  0.29755990D-03  0.29755990D-03 -0.59511980D-03  0.27179851D-18