 Molden2AIM, Version 4.0.0 (06/02/2016)           Time: Sat Jun 30 01:53:31 2018
GAUSSIAN             11 MOL ORBITALS    252 PRIMITIVES        4 NUCLEI
  H    1    (CENTRE  1)  -0.01616661  0.00000000 -0.00887226  CHARGE =  1.0
  N    2    (CENTRE  2)   0.01599086  0.00000000  1.92183068  CHARGE =  7.0
  N    3    (CENTRE  3)   2.22828568  0.00000000  2.67681784  CHARGE =  7.0
  N    4    (CENTRE  4)   4.13523477  0.00000000  3.65178802  CHARGE =  7.0
CENTRE ASSIGNMENTS    1  1  1  1  1  1  1  1  1  1  1  1  1  1  1  1  1  1  1  1
CENTRE ASSIGNMENTS    1  1  1  1  1  1  1  2  2  2  2  2  2  2  2  2  2  2  2  2
CENTRE ASSIGNMENTS    2  2  2  2  2  2  2  2  2  2  2  2  2  2  2  2  2  2  2  2
CENTRE ASSIGNMENTS    2  2  2  2  2  2  2  2  2  2  2  2  2  2  2  2  2  2  2  2
CENTRE ASSIGNMENTS    2  2  2  2  2  2  2  2  2  2  2  2  2  2  2  2  2  2  2  2
CENTRE ASSIGNMENTS    2  2  3  3  3  3  3  3  3  3  3  3  3  3  3  3  3  3  3  3
CENTRE ASSIGNMENTS    3  3  3  3  3  3  3  3  3  3  3  3  3  3  3  3  3  3  3  3
CENTRE ASSIGNMENTS    3  3  3  3  3  3  3  3  3  3  3  3  3  3  3  3  3  3  3  3
CENTRE ASSIGNMENTS    3  3  3  3  3  3  3  3  3  3  3  3  3  3  3  3  3  4  4  4
CENTRE ASSIGNMENTS    4  4  4  4  4  4  4  4  4  4  4  4  4  4  4  4  4  4  4  4
CENTRE ASSIGNMENTS    4  4  4  4  4  4  4  4  4  4  4  4  4  4  4  4  4  4  4  4
CENTRE ASSIGNMENTS    4  4  4  4  4  4  4  4  4  4  4  4  4  4  4  4  4  4  4  4
CENTRE ASSIGNMENTS    4  4  4  4  4  4  4  4  4  4  4  4
TYPE ASSIGNMENTS      1  1  1  1  1  1  2  3  4  2  3  4  2  3  4  5  6  7  8  9
TYPE ASSIGNMENTS     10  5  6  7  8  9 10  1  1  1  1  1  1  1  1  1  1  1  1  1
TYPE ASSIGNMENTS      1  1  1  1  1  1  2  2  2  3  3  3  4  4  4  2  3  4  2  3
TYPE ASSIGNMENTS      4  2  3  4  5  6  7  8  9 10  5  6  7  8  9 10  5  6  7  8
TYPE ASSIGNMENTS      9 10 11 12 13 17 14 15 18 19 16 20 11 12 13 17 14 15 18 19
TYPE ASSIGNMENTS     16 20  1  1  1  1  1  1  1  1  1  1  1  1  1  1  1  1  1  1
TYPE ASSIGNMENTS      1  2  2  2  3  3  3  4  4  4  2  3  4  2  3  4  2  3  4  5
TYPE ASSIGNMENTS      6  7  8  9 10  5  6  7  8  9 10  5  6  7  8  9 10 11 12 13
TYPE ASSIGNMENTS     17 14 15 18 19 16 20 11 12 13 17 14 15 18 19 16 20  1  1  1
TYPE ASSIGNMENTS      1  1  1  1  1  1  1  1  1  1  1  1  1  1  1  1  2  2  2  3
TYPE ASSIGNMENTS      3  3  4  4  4  2  3  4  2  3  4  2  3  4  5  6  7  8  9 10
TYPE ASSIGNMENTS      5  6  7  8  9 10  5  6  7  8  9 10 11 12 13 17 14 15 18 19
TYPE ASSIGNMENTS     16 20 11 12 13 17 14 15 18 19 16 20
EXPONENTS  0.3387000D+02 0.5095000D+01 0.1159000D+01 0.3258000D+00 0.1027000D+00
EXPONENTS  0.2526000D-01 0.1407000D+01 0.1407000D+01 0.1407000D+01 0.3880000D+00
EXPONENTS  0.3880000D+00 0.3880000D+00 0.1020000D+00 0.1020000D+00 0.1020000D+00
EXPONENTS  0.1057000D+01 0.1057000D+01 0.1057000D+01 0.1057000D+01 0.1057000D+01
EXPONENTS  0.1057000D+01 0.2470000D+00 0.2470000D+00 0.2470000D+00 0.2470000D+00
EXPONENTS  0.2470000D+00 0.2470000D+00 0.1142000D+05 0.1712000D+04 0.3893000D+03
EXPONENTS  0.1100000D+03 0.3557000D+02 0.1254000D+02 0.4644000D+01 0.5118000D+00
EXPONENTS  0.1142000D+05 0.1712000D+04 0.3893000D+03 0.1100000D+03 0.3557000D+02
EXPONENTS  0.1254000D+02 0.4644000D+01 0.5118000D+00 0.1293000D+01 0.1787000D+00
EXPONENTS  0.5760000D-01 0.2663000D+02 0.5948000D+01 0.1742000D+01 0.2663000D+02
EXPONENTS  0.5948000D+01 0.1742000D+01 0.2663000D+02 0.5948000D+01 0.1742000D+01
EXPONENTS  0.5550000D+00 0.5550000D+00 0.5550000D+00 0.1725000D+00 0.1725000D+00
EXPONENTS  0.1725000D+00 0.4910000D-01 0.4910000D-01 0.4910000D-01 0.1654000D+01
EXPONENTS  0.1654000D+01 0.1654000D+01 0.1654000D+01 0.1654000D+01 0.1654000D+01
EXPONENTS  0.4690000D+00 0.4690000D+00 0.4690000D+00 0.4690000D+00 0.4690000D+00
EXPONENTS  0.4690000D+00 0.1510000D+00 0.1510000D+00 0.1510000D+00 0.1510000D+00
EXPONENTS  0.1510000D+00 0.1510000D+00 0.1093000D+01 0.1093000D+01 0.1093000D+01
EXPONENTS  0.1093000D+01 0.1093000D+01 0.1093000D+01 0.1093000D+01 0.1093000D+01
EXPONENTS  0.1093000D+01 0.1093000D+01 0.3640000D+00 0.3640000D+00 0.3640000D+00
EXPONENTS  0.3640000D+00 0.3640000D+00 0.3640000D+00 0.3640000D+00 0.3640000D+00
EXPONENTS  0.3640000D+00 0.3640000D+00 0.1142000D+05 0.1712000D+04 0.3893000D+03
EXPONENTS  0.1100000D+03 0.3557000D+02 0.1254000D+02 0.4644000D+01 0.5118000D+00
EXPONENTS  0.1142000D+05 0.1712000D+04 0.3893000D+03 0.1100000D+03 0.3557000D+02
EXPONENTS  0.1254000D+02 0.4644000D+01 0.5118000D+00 0.1293000D+01 0.1787000D+00
EXPONENTS  0.5760000D-01 0.2663000D+02 0.5948000D+01 0.1742000D+01 0.2663000D+02
EXPONENTS  0.5948000D+01 0.1742000D+01 0.2663000D+02 0.5948000D+01 0.1742000D+01
EXPONENTS  0.5550000D+00 0.5550000D+00 0.5550000D+00 0.1725000D+00 0.1725000D+00
EXPONENTS  0.1725000D+00 0.4910000D-01 0.4910000D-01 0.4910000D-01 0.1654000D+01
EXPONENTS  0.1654000D+01 0.1654000D+01 0.1654000D+01 0.1654000D+01 0.1654000D+01
EXPONENTS  0.4690000D+00 0.4690000D+00 0.4690000D+00 0.4690000D+00 0.4690000D+00
EXPONENTS  0.4690000D+00 0.1510000D+00 0.1510000D+00 0.1510000D+00 0.1510000D+00
EXPONENTS  0.1510000D+00 0.1510000D+00 0.1093000D+01 0.1093000D+01 0.1093000D+01
EXPONENTS  0.1093000D+01 0.1093000D+01 0.1093000D+01 0.1093000D+01 0.1093000D+01
EXPONENTS  0.1093000D+01 0.1093000D+01 0.3640000D+00 0.3640000D+00 0.3640000D+00
EXPONENTS  0.3640000D+00 0.3640000D+00 0.3640000D+00 0.3640000D+00 0.3640000D+00
EXPONENTS  0.3640000D+00 0.3640000D+00 0.1142000D+05 0.1712000D+04 0.3893000D+03
EXPONENTS  0.1100000D+03 0.3557000D+02 0.1254000D+02 0.4644000D+01 0.5118000D+00
EXPONENTS  0.1142000D+05 0.1712000D+04 0.3893000D+03 0.1100000D+03 0.3557000D+02
EXPONENTS  0.1254000D+02 0.4644000D+01 0.5118000D+00 0.1293000D+01 0.1787000D+00
EXPONENTS  0.5760000D-01 0.2663000D+02 0.5948000D+01 0.1742000D+01 0.2663000D+02
EXPONENTS  0.5948000D+01 0.1742000D+01 0.2663000D+02 0.5948000D+01 0.1742000D+01
EXPONENTS  0.5550000D+00 0.5550000D+00 0.5550000D+00 0.1725000D+00 0.1725000D+00
EXPONENTS  0.1725000D+00 0.4910000D-01 0.4910000D-01 0.4910000D-01 0.1654000D+01
EXPONENTS  0.1654000D+01 0.1654000D+01 0.1654000D+01 0.1654000D+01 0.1654000D+01
EXPONENTS  0.4690000D+00 0.4690000D+00 0.4690000D+00 0.4690000D+00 0.4690000D+00
EXPONENTS  0.4690000D+00 0.1510000D+00 0.1510000D+00 0.1510000D+00 0.1510000D+00
EXPONENTS  0.1510000D+00 0.1510000D+00 0.1093000D+01 0.1093000D+01 0.1093000D+01
EXPONENTS  0.1093000D+01 0.1093000D+01 0.1093000D+01 0.1093000D+01 0.1093000D+01
EXPONENTS  0.1093000D+01 0.1093000D+01 0.3640000D+00 0.3640000D+00 0.3640000D+00
EXPONENTS  0.3640000D+00 0.3640000D+00 0.3640000D+00 0.3640000D+00 0.3640000D+00
EXPONENTS  0.3640000D+00 0.3640000D+00
MO    1     MO 0.0        OCC NO =    2.0000000  ORB. ENERGY =  -14.336574
 -0.80574416D-06 -0.14531928D-05 -0.21427319D-05  0.91135418D-03 -0.31825788D-03
  0.32651351D-04 -0.42317420D-03  0.11396674D-15  0.74594852D-04 -0.90903279D-03
  0.15458661D-17  0.26377721D-03 -0.11065780D-03 -0.11399184D-17 -0.81996828D-04
 -0.81921378D-04 -0.10128937D-03  0.18321075D-03 -0.10221070D-16 -0.14568514D-02
 -0.92255837D-18 -0.75405460D-04  0.58635535D-04  0.16769925D-04 -0.11942789D-18
 -0.20767600D-03 -0.21155251D-18  0.80158613D-03  0.14936377D-02  0.25261158D-02
  0.38041905D-02  0.47098346D-02  0.40078567D-02  0.15250634D-02 -0.71425226D-05
 -0.18687576D-03 -0.35039380D-03 -0.59612411D-03 -0.92571780D-03 -0.12284814D-02
 -0.12946507D-02 -0.80276604D-03  0.53400028D-03  0.48604096D-03 -0.10482429D-02
  0.72644807D-03  0.12188191D-02  0.11706612D-02  0.82094843D-03 -0.18021004D-17
 -0.17308959D-17 -0.12138237D-17  0.31453151D-03  0.30210375D-03  0.21185601D-03
  0.28837632D-03 -0.90765451D-18  0.41831407D-03 -0.63525484D-03  0.40483402D-17
  0.49716646D-03  0.57957576D-04  0.44269373D-18  0.57464282D-04  0.11406877D-02
 -0.58958675D-03 -0.55110098D-03 -0.20251369D-17  0.18592345D-02 -0.11091011D-16
 -0.57658307D-03  0.39049258D-03  0.18609049D-03  0.16852488D-17 -0.14881921D-02
  0.25284092D-17 -0.90509273D-04  0.41617943D-04  0.48891330D-04  0.97092421D-18
  0.25656405D-04 -0.12861674D-18 -0.61333144D-03 -0.21301195D-17  0.36196643D-03
  0.10545585D-02 -0.13586364D-17 -0.16143165D-02  0.78543584D-03  0.77489950D-17
  0.52841722D-03 -0.32138542D-17 -0.19558099D-03 -0.22716016D-18  0.11910668D-03
  0.78363936D-04  0.32567602D-18 -0.35387767D-03  0.50837903D-03  0.35580446D-18
 -0.34423670D-05 -0.17682668D-18  0.41326747D+00  0.77006308D+00  0.13023697D+01
  0.19612966D+01  0.24282125D+01  0.20662992D+01  0.78626497D+00 -0.36824143D-02
 -0.21655470D-02 -0.40604208D-02 -0.69079840D-02 -0.10727370D-01 -0.14235844D-01
 -0.15002625D-01 -0.93025845D-02  0.61880828D-02  0.42263269D-01  0.42066561D-02
 -0.53556308D-03 -0.13739786D-02 -0.13196900D-02 -0.92545774D-03  0.15987128D-16
  0.15355445D-16  0.10768298D-16  0.17826837D-03  0.17122464D-03  0.12007453D-03
  0.43313856D-02 -0.25341986D-17  0.23304117D-02 -0.23650245D-04 -0.36060508D-17
 -0.56374677D-03  0.11594020D-03 -0.61238744D-19 -0.17379988D-04  0.59653297D-02
 -0.42682135D-02 -0.16971162D-02  0.60736593D-17  0.92259723D-02  0.31643555D-17
  0.15252744D-03 -0.17997431D-04 -0.13453000D-03 -0.27239652D-17  0.45920228D-03
 -0.28612933D-17 -0.27943767D-03  0.98158109D-04  0.18127956D-03  0.15870688D-17
 -0.10574143D-04  0.49641332D-19  0.39261212D-03  0.57186893D-18 -0.53237660D-03
 -0.18301511D-02 -0.12432290D-17  0.28026908D-02  0.65231477D-03 -0.47237783D-18
 -0.12055610D-02  0.66808209D-18  0.57622706D-04  0.60865371D-18  0.56580038D-04
 -0.44483324D-04 -0.22008442D-18 -0.26578356D-03 -0.12838479D-03 -0.16058767D-17
  0.96043452D-04 -0.38059587D-17  0.15206911D-02  0.28335840D-02  0.47923009D-02
  0.72169396D-02  0.89350393D-02  0.76033152D-02  0.28932017D-02 -0.13550098D-04
  0.22111946D-03  0.41460106D-03  0.70535976D-03  0.10953492D-02  0.14535921D-02
  0.15318866D-02  0.94986740D-03 -0.63185216D-03  0.15807046D-02 -0.25412917D-02
 -0.54048028D-03 -0.26983350D-02 -0.25917185D-02 -0.18174919D-02 -0.48790821D-17
 -0.46863000D-17 -0.32863570D-17 -0.16134745D-02 -0.15497230D-02 -0.10867727D-02
  0.37813509D-02  0.39943859D-17  0.22466487D-02  0.20236720D-02 -0.12613557D-18
  0.75054555D-03  0.28649779D-04 -0.15149743D-19  0.40599355D-04 -0.10680670D-02
  0.70735657D-03  0.36071043D-03  0.10607446D-16 -0.17855508D-02 -0.77532791D-17
 -0.18350461D-02  0.13932923D-02  0.44175386D-03 -0.69447572D-17 -0.32865474D-02
  0.17035489D-17 -0.17770769D-03  0.12712389D-03  0.50583799D-04 -0.17168009D-18
 -0.29592754D-03  0.19233072D-18  0.98106087D-03  0.14297376D-18 -0.90241121D-03
 -0.27923199D-02 -0.57970547D-18  0.40230957D-02 -0.15086272D-03  0.15078419D-18
 -0.13158621D-02  0.42927723D-17  0.13996791D-03 -0.31878717D-18 -0.14604536D-03
 -0.47990768D-03  0.11184892D-17  0.71549773D-03  0.60003953D-04 -0.16212768D-18
 -0.27736165D-03 -0.18561599D-17
MO    2     MO 0.0        OCC NO =    2.0000000  ORB. ENERGY =  -14.230297
 -0.79235782D-05 -0.14290500D-04 -0.21071333D-04 -0.10629181D-02 -0.60566625D-03
  0.82353167D-05 -0.25623319D-03  0.91216835D-16 -0.96027335D-04 -0.21338134D-03
  0.20146415D-17 -0.71367859D-03 -0.31502421D-04 -0.16542641D-17 -0.11180378D-03
  0.69476876D-04  0.39490880D-04 -0.10896776D-03  0.37207619D-16 -0.40811453D-03
 -0.15825819D-15 -0.59298809D-04  0.48700292D-04  0.10598517D-04 -0.10522119D-17
  0.44730941D-04  0.18969195D-17 -0.58573848D-03 -0.10914374D-02 -0.18458943D-02
 -0.27798145D-02 -0.34415907D-02 -0.29286384D-02 -0.11144009D-02  0.52192150D-05
  0.26032623D-03  0.48811412D-03  0.83042735D-03  0.12895660D-02  0.17113291D-02
  0.18035059D-02  0.11182887D-02 -0.74388610D-03 -0.41470824D-03  0.12376793D-02
  0.89359405D-03 -0.32087055D-03 -0.30819233D-03 -0.21612573D-03  0.10505254D-17
  0.10090171D-17  0.70759244D-18 -0.32333006D-03 -0.31055466D-03 -0.21778236D-03
 -0.86183734D-04 -0.50941493D-17  0.36953253D-03  0.26591517D-03 -0.32758946D-17
 -0.98454210D-04  0.88505913D-04 -0.18696144D-19  0.37696334D-04 -0.71616166D-03
  0.59134063D-03  0.12482103D-03 -0.37781410D-17 -0.46918254D-03  0.95571586D-17
 -0.30292923D-03 -0.23833216D-03  0.54126139D-03  0.24176679D-18  0.56611296D-03
  0.10272394D-16  0.56438530D-04 -0.62878584D-04  0.64400542D-05 -0.30204916D-18
  0.11210530D-03  0.32332072D-18 -0.79009045D-03 -0.15469119D-17  0.17377636D-04
  0.10562960D-02 -0.33053553D-19 -0.17635157D-03  0.13139754D-02  0.46737893D-17
  0.12421866D-03 -0.96841490D-17 -0.43099955D-04  0.10046625D-17  0.31612708D-06
  0.40074469D-04  0.12305356D-17 -0.11497649D-03  0.89225395D-04 -0.42445231D-17
  0.11402811D-03 -0.11440695D-18 -0.20882100D-02 -0.38910719D-02 -0.65807781D-02
 -0.99102872D-02 -0.12269578D-01 -0.10440857D-01 -0.39729389D-02  0.18606968D-04
  0.72995748D-04  0.13686771D-03  0.23285270D-03  0.36159566D-03  0.47985847D-03
  0.50570495D-03  0.31356933D-03 -0.20858644D-03  0.17741565D-02 -0.96906886D-02
 -0.19923790D-02  0.35734121D-02  0.34322196D-02  0.24069093D-02 -0.10312069D-17
 -0.99046192D-18 -0.69458026D-18  0.21300055D-02  0.20458448D-02  0.14346876D-02
 -0.49850778D-02  0.24379553D-18 -0.26818672D-02 -0.45355809D-02  0.46686673D-17
 -0.28048367D-02 -0.45225145D-04  0.12759939D-18 -0.53872436D-04 -0.96015706D-04
  0.17234538D-03 -0.76329675D-04 -0.39385962D-17 -0.10085981D-02 -0.19474332D-17
 -0.28606592D-02  0.19910224D-02  0.86963682D-03  0.52747442D-17 -0.43045652D-02
  0.31764527D-17 -0.32136458D-03  0.20476602D-03  0.11659857D-03  0.48844093D-18
 -0.48905914D-03  0.27471713D-18 -0.10169484D-02  0.18669782D-18  0.12188403D-02
  0.31275849D-02  0.23434528D-17 -0.51687657D-02 -0.76739712D-04 -0.29035462D-17
  0.15122448D-02  0.29283412D-17 -0.18555209D-03 -0.41008090D-18  0.35188927D-03
  0.93437761D-03  0.13065198D-17 -0.16816027D-02 -0.37772133D-03 -0.76277100D-19
  0.62593491D-03  0.18984414D-17  0.41349650D+00  0.77048985D+00  0.13030915D+01
  0.19623836D+01  0.24295582D+01  0.20674444D+01  0.78670072D+00 -0.36844551D-02
 -0.22816821D-02 -0.42781753D-02 -0.72784492D-02 -0.11302663D-01 -0.14999291D-01
 -0.15807194D-01 -0.98014687D-02  0.65199408D-02  0.42277792D-01  0.97312109D-02
  0.97944791D-03 -0.64228460D-02 -0.61690668D-02 -0.43261754D-02  0.15928432D-16
  0.15299068D-16  0.10728763D-16 -0.34913564D-02 -0.33534060D-02 -0.23516398D-02
 -0.63960225D-02 -0.47721473D-17 -0.28732196D-02 -0.19502672D-02 -0.32626425D-17
 -0.91799670D-03 -0.43416317D-04 -0.49531044D-19 -0.12389710D-04  0.47859859D-02
 -0.31553317D-02 -0.16306542D-02 -0.48229688D-17  0.84901611D-02  0.39804772D-18
  0.56627572D-03 -0.38454873D-03 -0.18172699D-03  0.43760047D-17  0.89447492D-03
  0.25549109D-17 -0.17407911D-04  0.26447286D-04 -0.90393750D-05  0.62883963D-18
 -0.53670480D-04  0.37533892D-18 -0.65678329D-03  0.13617546D-17  0.69618868D-03
  0.20171485D-02 -0.30344969D-17 -0.31312117D-02 -0.46798638D-04 -0.10507670D-17
  0.10426456D-02 -0.33729598D-17  0.63722343D-04  0.81151565D-19 -0.41100771D-04
 -0.16848142D-03 -0.37191007D-18  0.20995412D-03 -0.22685607D-04  0.12845538D-18
 -0.86651811D-04 -0.89767785D-18
MO    3     MO 0.0        OCC NO =    2.0000000  ORB. ENERGY =  -14.211200
  0.11911895D-03  0.21483593D-03  0.31677546D-03 -0.17986775D-02 -0.67106980D-03
 -0.94827011D-05 -0.15067178D-03  0.14967314D-16 -0.19031500D-02  0.31627558D-03
 -0.33268066D-18 -0.23536784D-02  0.37922966D-04 -0.11960044D-18 -0.22391346D-03
  0.15466343D-02  0.15280366D-02 -0.30746709D-02  0.50128351D-19  0.44470962D-04
  0.31694708D-18  0.10272393D-03  0.12274730D-03 -0.22547123D-03 -0.12039944D-19
  0.50777195D-04 -0.17418224D-18  0.41316836D+00  0.76987839D+00  0.13020574D+01
  0.19608263D+01  0.24276301D+01  0.20658037D+01  0.78607640D+00 -0.36815311D-02
 -0.20447940D-02 -0.38340080D-02 -0.65227883D-02 -0.10129201D-01 -0.13442040D-01
 -0.14166064D-01 -0.87838637D-02  0.58430295D-02  0.41590214D-01  0.49161681D-02
  0.46165921D-03  0.69027401D-02  0.66299993D-02  0.46494132D-02  0.21496751D-16
  0.20647372D-16  0.14479363D-16 -0.15708369D-02 -0.15087701D-02 -0.10580537D-02
  0.24193637D-02 -0.30856659D-17 -0.14093369D-02  0.22503061D-03  0.26049891D-17
  0.41651325D-03 -0.89687673D-05  0.76234888D-19 -0.37789421D-05  0.13247725D-02
 -0.30624908D-02  0.17377184D-02  0.17788750D-17  0.22856179D-02 -0.20491861D-17
 -0.39000996D-03 -0.20311847D-03  0.59312842D-03 -0.12838192D-18  0.67093301D-03
 -0.17633375D-18 -0.91934261D-04  0.67885794D-04  0.24048467D-04  0.64327024D-18
  0.41282092D-04  0.80403053D-19  0.47892984D-03  0.39259823D-18 -0.15910472D-02
 -0.10253162D-02 -0.60733474D-18  0.34504303D-02 -0.41147330D-03 -0.57045995D-18
  0.13227114D-02 -0.17093126D-17 -0.93636805D-04 -0.97102807D-19  0.17882756D-03
  0.23723492D-03  0.20078004D-18 -0.41599719D-03  0.43675492D-04  0.90528383D-19
 -0.12048548D-03  0.18443134D-18 -0.32970927D-03 -0.61436467D-03 -0.10390447D-02
 -0.15647437D-02 -0.19372542D-02 -0.16485159D-02 -0.62729072D-03  0.29378700D-05
 -0.21185363D-03 -0.39722753D-03 -0.67580222D-03 -0.10494495D-02 -0.13926805D-02
 -0.14676941D-02 -0.91006396D-03  0.60537490D-03  0.10976718D-02 -0.30545687D-02
 -0.40737064D-03 -0.23080368D-02 -0.22168417D-02 -0.15546025D-02 -0.11412902D-18
 -0.10961956D-18 -0.76872802D-19 -0.33797502D-03 -0.32462096D-03 -0.22764663D-03
  0.72171326D-03 -0.31923762D-18 -0.72673875D-04  0.31766570D-02 -0.14310269D-17
  0.42922183D-03  0.91108215D-04 -0.10470215D-18  0.37929789D-04  0.77259651D-03
 -0.39571857D-03 -0.37687794D-03  0.65647540D-18  0.66506647D-03  0.45618850D-18
 -0.15082942D-02  0.92301573D-03  0.58527850D-03 -0.11347824D-17 -0.17373071D-02
 -0.63887051D-18 -0.17853398D-03  0.85324470D-04  0.93209508D-04  0.10138145D-17
 -0.27408739D-04  0.42761088D-18  0.95190848D-03 -0.10285919D-19 -0.55718876D-03
 -0.15848123D-02 -0.34361031D-19  0.21509652D-02 -0.12709132D-02  0.65218788D-19
 -0.47939889D-03 -0.58295141D-18  0.57219353D-03  0.14724787D-19 -0.21515061D-03
 -0.97985507D-03 -0.40459518D-19  0.82297624D-03 -0.73672551D-03 -0.37148440D-20
 -0.17752440D-03  0.15945709D-19 -0.11598416D-03 -0.21611940D-03 -0.36551208D-03
 -0.55044094D-03 -0.68148159D-03 -0.57991007D-03 -0.22066648D-03  0.10334753D-05
  0.26021805D-03  0.48791128D-03  0.83008226D-03  0.12890301D-02  0.17106179D-02
  0.18027565D-02  0.11178240D-02 -0.74357696D-03 -0.53106374D-03 -0.60423590D-03
 -0.21054548D-04  0.10132984D-02  0.97326103D-03  0.68251781D-03 -0.82992117D-18
 -0.79712936D-18 -0.55900213D-18 -0.70551759D-04 -0.67764121D-04 -0.47520879D-04
 -0.93280418D-03  0.86585321D-18  0.71106916D-03 -0.23816922D-03 -0.74092720D-18
  0.64491027D-04 -0.23345088D-04  0.24398267D-19 -0.11203003D-04 -0.60777919D-04
  0.16525104D-03 -0.10447312D-03  0.46052226D-18 -0.11042790D-02  0.13763580D-18
  0.34962712D-03 -0.38664536D-04 -0.31096258D-03 -0.71065185D-18  0.55463674D-04
 -0.33253070D-18  0.75344345D-04 -0.42234018D-04 -0.33110327D-04  0.14284850D-19
  0.53932867D-04  0.24473788D-19 -0.54278125D-04 -0.35541049D-20 -0.12709180D-03
 -0.44794443D-03  0.54313111D-19  0.73845546D-03  0.61077880D-03 -0.43650797D-19
 -0.35718006D-03  0.38461121D-18  0.29068355D-04 -0.97767196D-19  0.35986127D-05
 -0.49870444D-04  0.29544796D-18  0.27012004D-04 -0.37334621D-04 -0.21463731D-20
 -0.37807842D-04  0.28174819D-18
MO    4     MO 0.0        OCC NO =    2.0000000  ORB. ENERGY =   -1.118982
  0.51231125D-02  0.92397444D-02  0.13623998D-01  0.54360521D-02 -0.11163940D-02
  0.22649037D-03  0.27841533D-02  0.59165050D-15  0.56257784D-02  0.11903505D-02
 -0.49378716D-16 -0.89173060D-03 -0.40492713D-04  0.45419497D-16 -0.52881883D-03
  0.51840860D-03 -0.32427609D-04 -0.48598099D-03  0.52128318D-15  0.26006058D-02
 -0.11289800D-15  0.19493284D-04  0.27771468D-03 -0.29720796D-03 -0.40369960D-16
  0.24585747D-03  0.53691228D-16 -0.41447818D-02 -0.77231907D-02 -0.13061852D-01
 -0.19670425D-01 -0.24353262D-01 -0.20723527D-01 -0.78856842D-02  0.36932023D-04
 -0.27585734D-01 -0.51723509D-01 -0.87997079D-01 -0.13665017D+00 -0.18134273D+00
 -0.19111034D+00 -0.11850060D+00  0.78826647D-01  0.38657452D-01  0.27435027D-01
  0.85362042D-02  0.18972103D+00  0.18222478D+00  0.12778859D+00  0.41970707D-15
  0.40312362D-15  0.28269811D-15  0.37748880D-01  0.36257348D-01  0.25426155D-01
  0.47420291D-01  0.76005169D-16  0.61586724D-02  0.55795502D-02 -0.64245395D-16
  0.32726736D-02  0.68470478D-03  0.14089254D-17  0.44077245D-03  0.25745388D-01
 -0.18429309D-01 -0.73160794D-02  0.48041346D-16  0.28196539D-01 -0.18528175D-15
  0.41413731D-02 -0.31654542D-02 -0.97591890D-03  0.37906546D-16  0.45241318D-02
  0.74670735D-16  0.10513135D-03  0.74273433D-04 -0.17940479D-03 -0.13381353D-16
  0.38974567D-03  0.12053609D-16  0.48035741D-02 -0.29783232D-16 -0.37857493D-02
 -0.83842558D-02  0.13855810D-16  0.12184345D-01 -0.60264665D-02  0.75493885D-16
 -0.82709702D-03 -0.58240884D-16 -0.91179202D-04  0.10035809D-16  0.24911061D-03
  0.19358878D-03  0.11487718D-16 -0.74835158D-03  0.79948824D-04 -0.41595145D-16
  0.10197616D-05 -0.25585196D-16 -0.92111456D-02 -0.17163613D-01 -0.29027973D-01
 -0.43714519D-01 -0.54121411D-01 -0.46054878D-01 -0.17524731D-01  0.82075790D-04
 -0.66718945D-01 -0.12509865D+00 -0.21283002D+00 -0.33050255D+00 -0.43859610D+00
 -0.46222008D+00 -0.28660594D+00  0.19065038D+00  0.99707985D-01  0.70328117D-03
 -0.15520886D-01  0.12087167D+00  0.11609579D+00  0.81414385D-01  0.50133075D-15
  0.48152219D-15  0.33767660D-15  0.85673052D-01  0.82287942D-01  0.57705985D-01
  0.14869897D-01  0.13494961D-15  0.13954559D-01  0.22037739D-02  0.57405195D-16
 -0.59500079D-04  0.53027548D-03  0.41824043D-17 -0.11024615D-03  0.54398743D-01
 -0.37378202D-01 -0.17020541D-01 -0.35525730D-16  0.83000955D-01  0.38961667D-17
  0.68627923D-03 -0.12138559D-02  0.52757663D-03  0.47912512D-18  0.29414612D-02
  0.17280902D-16 -0.17818547D-02  0.81342207D-03  0.96843262D-03 -0.20580063D-17
 -0.11428153D-02  0.45238171D-17 -0.80225571D-03 -0.16023562D-16 -0.15677634D-02
 -0.33049650D-02  0.34422526D-16  0.82837397D-02  0.57117321D-02  0.13648160D-16
 -0.35804495D-02  0.57224923D-16 -0.15149010D-03  0.14373957D-17  0.21269637D-03
  0.67874803D-04  0.10476665D-16 -0.65999241D-03  0.38659549D-03 -0.14788852D-16
  0.21903296D-04 -0.33276138D-16 -0.69202411D-02 -0.12894850D-01 -0.21808425D-01
 -0.32842279D-01 -0.40660872D-01 -0.34600567D-01 -0.13166154D-01  0.61662716D-04
 -0.41361151D-01 -0.77552545D-01 -0.13193995D+00 -0.20488882D+00 -0.27189938D+00
 -0.28654462D+00 -0.17767594D+00  0.11819011D+00  0.59853094D-01  0.27609824D-01
  0.48066752D-02 -0.30347536D+00 -0.29148446D+00 -0.20440902D+00  0.15677437D-15
  0.15057991D-15  0.10559703D-15 -0.15236474D+00 -0.14634451D+00 -0.10262687D+00
 -0.69567948D-01  0.55037537D-16 -0.36084140D-01 -0.34705466D-02 -0.17694839D-16
 -0.37263200D-02 -0.40601967D-03 -0.25227055D-17 -0.10368868D-03  0.38999927D-01
 -0.28332104D-01 -0.10667823D-01 -0.52174289D-16  0.68739895D-01 -0.45529291D-16
  0.44420225D-02 -0.37209061D-02 -0.72111640D-03 -0.25765317D-16  0.97295698D-02
  0.15618366D-16 -0.20096667D-03  0.10781225D-03  0.93154421D-04  0.70504167D-17
  0.20488687D-05  0.42082255D-17 -0.36048592D-02  0.48250629D-17  0.46234891D-02
  0.13405553D-01  0.50725629D-17 -0.21417203D-01 -0.25909750D-02 -0.19547752D-16
  0.75467351D-02 -0.20000048D-17  0.41483675D-04  0.55311318D-18  0.19070757D-04
 -0.40121240D-04 -0.16892656D-17 -0.26573872D-04 -0.84329785D-04  0.29926098D-19
 -0.30638398D-04 -0.99182902D-17
MO    5     MO 0.0        OCC NO =    2.0000000  ORB. ENERGY =   -0.949105
  0.13573051D-01  0.24479557D-01  0.36095093D-01  0.12701137D-01 -0.17990533D-02
 -0.11588800D-03  0.55653078D-02  0.57324679D-15  0.15013852D-01  0.52112859D-02
 -0.10463907D-15 -0.89568504D-03  0.27190228D-03  0.29276096D-16 -0.87120807D-03
  0.22383337D-03 -0.92434780D-03  0.70051443D-03  0.11650633D-15  0.82622516D-02
 -0.78426761D-16  0.28448846D-03  0.23066169D-03 -0.51515015D-03 -0.17425200D-16
  0.10115834D-02  0.17418712D-16 -0.75858453D-02 -0.14135106D-01 -0.23906007D-01
 -0.36001122D-01 -0.44571725D-01 -0.37928526D-01 -0.14432504D-01  0.67593573D-04
 -0.53289401D-01 -0.99918126D-01 -0.16999046D+00 -0.26397724D+00 -0.35031315D+00
 -0.36918197D+00 -0.22891637D+00  0.15227526D+00  0.77512762D-01  0.35726976D-01
 -0.11366678D-03  0.27928758D+00  0.26825238D+00  0.18811709D+00 -0.48554811D-16
 -0.46636316D-16 -0.32704604D-16 -0.31500186D-02 -0.30255552D-02 -0.21217281D-02
  0.62724414D-01  0.11740539D-16 -0.66760373D-02  0.36393206D-02 -0.60987433D-16
  0.14627805D-03 -0.25286920D-03  0.17339213D-17 -0.10118692D-03  0.28033384D-01
 -0.24202085D-01 -0.38312993D-02  0.10223372D-15  0.25074031D-01  0.50349362D-16
  0.43071661D-02 -0.45709886D-02  0.26382255D-03  0.23497614D-17  0.92715396D-02
  0.90605855D-17  0.10614975D-03  0.14560569D-03 -0.25175544D-03  0.29218544D-17
  0.24628545D-03  0.20810865D-16  0.68748486D-02 -0.69791349D-17 -0.63156595D-02
 -0.12852790D-01  0.40011114D-17  0.21182314D-01 -0.77717560D-02  0.16936293D-16
 -0.22353357D-02  0.28115852D-16  0.47635973D-03  0.74467732D-18 -0.18411600D-03
  0.33724748D-04 -0.26949000D-17  0.56085129D-03 -0.14628040D-02  0.46086804D-18
 -0.85032889D-05 -0.87272472D-17 -0.93301514D-04 -0.17385363D-03 -0.29403008D-03
 -0.44279301D-03 -0.54820647D-03 -0.46649896D-03 -0.17751146D-03  0.83136190D-06
 -0.55994453D-02 -0.10499012D-01 -0.17861944D-01 -0.27737712D-01 -0.36809558D-01
 -0.38792221D-01 -0.24053652D-01  0.16000498D-01  0.77486814D-02  0.85258790D-02
  0.32306105D-02 -0.66855787D+00 -0.64214184D+00 -0.45031418D+00 -0.41093690D-16
 -0.39469998D-16 -0.27679087D-16 -0.30313326D+00 -0.29115588D+00 -0.20417860D+00
 -0.14209986D+00  0.81147654D-17 -0.64222900D-01  0.21838345D-03  0.28891179D-17
  0.78583156D-03  0.35911373D-03  0.29474781D-18  0.20674304D-03  0.45958045D-02
  0.25248917D-03 -0.48482937D-02 -0.51983829D-16 -0.96919485D-02 -0.21784427D-16
  0.14308555D-02 -0.14291214D-02 -0.17341307D-05 -0.74589418D-16  0.38599464D-02
 -0.25268500D-16  0.21296477D-03 -0.28106110D-03  0.68096327D-04  0.14423166D-16
  0.82372573D-03 -0.46357131D-18 -0.12556204D-01 -0.10926887D-16  0.94158634D-02
  0.31728212D-01  0.50680817D-17 -0.42491018D-01  0.59404010D-02  0.27712579D-16
  0.14243428D-01  0.31221747D-16 -0.52394131D-04  0.20393588D-17 -0.74105872D-04
 -0.10335908D-04  0.65674279D-17  0.40335227D-03  0.16751830D-03 -0.12685504D-16
 -0.18103465D-03 -0.26617180D-16  0.63237173D-02  0.11783316D-01  0.19928541D-01
  0.30011279D-01  0.37155910D-01  0.31618003D-01  0.12031233D-01 -0.56347398D-04
  0.39790767D-01  0.74608060D-01  0.12693051D+00  0.19710968D+00  0.26157601D+00
  0.27566520D+00  0.17093001D+00 -0.11370271D+00 -0.58925832D-01 -0.29008871D-01
 -0.20708290D-02  0.24512690D+00  0.23544145D+00  0.16510780D+00 -0.10546892D-15
 -0.10130163D-15 -0.71039698D-16  0.13050806D+00  0.12535143D+00  0.87905075D-01
  0.52488131D-01 -0.84029690D-17  0.26570600D-01  0.45744215D-02 -0.12487646D-16
  0.15570872D-02 -0.84053684D-05 -0.18315413D-17 -0.23299169D-04 -0.27834766D-01
  0.20343061D-01  0.74917047D-02  0.72603602D-16 -0.49711839D-01  0.19911587D-17
 -0.32998375D-02  0.21356821D-02  0.11641554D-02 -0.19299669D-16 -0.39467159D-02
  0.66872848D-17  0.11757126D-04 -0.74272620D-04  0.62515495D-04  0.28454651D-17
  0.20359519D-03  0.84638644D-17  0.43892473D-02  0.31883331D-17 -0.40750422D-02
 -0.11721285D-01 -0.17658423D-16  0.17650290D-01 -0.14464572D-02  0.80934239D-17
 -0.54251631D-02  0.93926730D-17  0.67870209D-04  0.50997751D-18 -0.45453476D-05
  0.11202070D-05  0.54257559D-17 -0.69131113D-04 -0.20473083D-03 -0.69556884D-17
  0.82767156D-04 -0.88644081D-17
MO    6     MO 0.0        OCC NO =    2.0000000  ORB. ENERGY =   -0.596842
  0.39878521D-01  0.71922555D-01  0.10604977D+00  0.68971699D-01  0.16770608D-02
 -0.53822856D-04 -0.59902937D-02 -0.16887867D-15  0.37515186D-01 -0.23556767D-02
 -0.13417384D-16  0.10914527D-01 -0.24010970D-03 -0.59101239D-16 -0.84697484D-03
 -0.56506100D-02 -0.67351967D-02  0.12385807D-01 -0.36002745D-15 -0.40800983D-02
 -0.19765267D-15 -0.19211375D-03  0.12799264D-03  0.64121118D-04 -0.12723378D-16
 -0.68234125D-03 -0.42847413D-17 -0.23391228D-02 -0.43586109D-02 -0.73715037D-02
 -0.11101076D-01 -0.13743852D-01 -0.11695398D-01 -0.44503148D-02  0.20842723D-04
 -0.31079156D-01 -0.58273708D-01 -0.99140915D-01 -0.15395537D+00 -0.20430774D+00
 -0.21531231D+00 -0.13350737D+00  0.88809152D-01  0.47793441D-01  0.35785070D-01
  0.57403383D-02 -0.40074238D+00 -0.38490826D+00 -0.26992424D+00 -0.53621921D-15
 -0.51503215D-15 -0.36117609D-15 -0.64253125D+00 -0.61714359D+00 -0.43278368D+00
 -0.83278541D-01 -0.10908621D-15 -0.14432085D+00 -0.69245948D-02  0.11839416D-18
 -0.11365277D-01  0.29750899D-03 -0.52387229D-17 -0.13053933D-04 -0.43518122D-01
  0.43973174D-02  0.39120805D-01 -0.11779406D-15 -0.52185330D-01  0.70790575D-17
 -0.41071525D-02  0.42742832D-03  0.36797242D-02 -0.42874578D-16 -0.11358669D-01
 -0.22930973D-16 -0.40805676D-03  0.25153447D-03  0.15652229D-03 -0.14106366D-16
 -0.24938278D-03 -0.16261242D-16 -0.26968307D-02  0.22529983D-16  0.28264300D-02
  0.96631341D-02 -0.18750817D-17 -0.15935706D-01 -0.15726422D-02 -0.65714868D-16
  0.74564156D-02 -0.53437098D-16 -0.33491516D-03 -0.15624434D-17 -0.45197587D-04
 -0.15796911D-03 -0.13452961D-16 -0.20368897D-03  0.11627146D-02  0.18140292D-16
  0.33928174D-03  0.23007104D-16  0.77846896D-03  0.14505623D-02  0.24532645D-02
  0.36944803D-02  0.45740063D-02  0.38922729D-02  0.14810817D-02 -0.69365373D-05
  0.29445401D-01  0.55210403D-01  0.93929322D-01  0.14586232D+00  0.19356778D+00
  0.20399387D+00  0.12648921D+00 -0.84140674D-01 -0.45102431D-01 -0.37521035D-01
 -0.65234458D-02  0.44950210D+00  0.43174139D+00  0.30276686D+00 -0.11159017D-14
 -0.10718102D-14 -0.75162730D-15 -0.97596008D-01 -0.93739799D-01 -0.65736817D-01
  0.11139749D+00 -0.29242267D-15 -0.27669498D-01  0.38441128D-02 -0.19516535D-16
 -0.54868071D-02  0.33400054D-03  0.29612742D-17  0.13745543D-03 -0.11322802D-01
  0.18301198D-02  0.94926818D-02  0.34187837D-16  0.18232471D-01 -0.52009026D-16
 -0.19770785D-02  0.98071569D-03  0.99636283D-03  0.55114874D-16  0.10620759D-02
 -0.71307201D-17 -0.12753222D-02  0.46565538D-03  0.80966681D-03 -0.23765471D-16