 Molden2AIM, Version 4.0.0 (06/02/2016)           Time: Sat Jun 30 04:21:36 2018
GAUSSIAN             11 MOL ORBITALS    252 PRIMITIVES        4 NUCLEI
  C    1    (CENTRE  1)  -0.00299144  0.33196819  0.00000000  CHARGE =  6.0
  N    2    (CENTRE  2)   0.09887047  2.52609329  0.00000000  CHARGE =  7.0
  O    3    (CENTRE  3)  -0.26093716 -2.10423083  0.00000000  CHARGE =  8.0
  H    4    (CENTRE  4)   1.37976274 -2.91107018  0.00000000  CHARGE =  1.0
CENTRE ASSIGNMENTS    1  1  1  1  1  1  1  1  1  1  1  1  1  1  1  1  1  1  1  1
CENTRE ASSIGNMENTS    1  1  1  1  1  1  1  1  1  1  1  1  1  1  1  1  1  1  1  1
CENTRE ASSIGNMENTS    1  1  1  1  1  1  1  1  1  1  1  1  1  1  1  1  1  1  1  1
CENTRE ASSIGNMENTS    1  1  1  1  1  1  1  1  1  1  1  1  1  1  1  2  2  2  2  2
CENTRE ASSIGNMENTS    2  2  2  2  2  2  2  2  2  2  2  2  2  2  2  2  2  2  2  2
CENTRE ASSIGNMENTS    2  2  2  2  2  2  2  2  2  2  2  2  2  2  2  2  2  2  2  2
CENTRE ASSIGNMENTS    2  2  2  2  2  2  2  2  2  2  2  2  2  2  2  2  2  2  2  2
CENTRE ASSIGNMENTS    2  2  2  2  2  2  2  2  2  2  3  3  3  3  3  3  3  3  3  3
CENTRE ASSIGNMENTS    3  3  3  3  3  3  3  3  3  3  3  3  3  3  3  3  3  3  3  3
CENTRE ASSIGNMENTS    3  3  3  3  3  3  3  3  3  3  3  3  3  3  3  3  3  3  3  3
CENTRE ASSIGNMENTS    3  3  3  3  3  3  3  3  3  3  3  3  3  3  3  3  3  3  3  3
CENTRE ASSIGNMENTS    3  3  3  3  3  4  4  4  4  4  4  4  4  4  4  4  4  4  4  4
CENTRE ASSIGNMENTS    4  4  4  4  4  4  4  4  4  4  4  4
TYPE ASSIGNMENTS      1  1  1  1  1  1  1  1  1  1  1  1  1  1  1  1  1  1  1  2
TYPE ASSIGNMENTS      2  2  3  3  3  4  4  4  2  3  4  2  3  4  2  3  4  5  6  7
TYPE ASSIGNMENTS      8  9 10  5  6  7  8  9 10  5  6  7  8  9 10 11 12 13 17 14
TYPE ASSIGNMENTS     15 18 19 16 20 11 12 13 17 14 15 18 19 16 20  1  1  1  1  1
TYPE ASSIGNMENTS      1  1  1  1  1  1  1  1  1  1  1  1  1  1  2  2  2  3  3  3
TYPE ASSIGNMENTS      4  4  4  2  3  4  2  3  4  2  3  4  5  6  7  8  9 10  5  6
TYPE ASSIGNMENTS      7  8  9 10  5  6  7  8  9 10 11 12 13 17 14 15 18 19 16 20
TYPE ASSIGNMENTS     11 12 13 17 14 15 18 19 16 20  1  1  1  1  1  1  1  1  1  1
TYPE ASSIGNMENTS      1  1  1  1  1  1  1  1  1  2  2  2  3  3  3  4  4  4  2  3
TYPE ASSIGNMENTS      4  2  3  4  2  3  4  5  6  7  8  9 10  5  6  7  8  9 10  5
TYPE ASSIGNMENTS      6  7  8  9 10 11 12 13 17 14 15 18 19 16 20 11 12 13 17 14
TYPE ASSIGNMENTS     15 18 19 16 20  1  1  1  1  1  1  2  3  4  2  3  4  2  3  4
TYPE ASSIGNMENTS      5  6  7  8  9 10  5  6  7  8  9 10
EXPONENTS  0.8236000D+04 0.1235000D+04 0.2808000D+03 0.7927000D+02 0.2559000D+02
EXPONENTS  0.8997000D+01 0.3319000D+01 0.3643000D+00 0.8236000D+04 0.1235000D+04
EXPONENTS  0.2808000D+03 0.7927000D+02 0.2559000D+02 0.8997000D+01 0.3319000D+01
EXPONENTS  0.3643000D+00 0.9059000D+00 0.1285000D+00 0.4402000D-01 0.1871000D+02
EXPONENTS  0.4133000D+01 0.1200000D+01 0.1871000D+02 0.4133000D+01 0.1200000D+01
EXPONENTS  0.1871000D+02 0.4133000D+01 0.1200000D+01 0.3827000D+00 0.3827000D+00
EXPONENTS  0.3827000D+00 0.1209000D+00 0.1209000D+00 0.1209000D+00 0.3569000D-01
EXPONENTS  0.3569000D-01 0.3569000D-01 0.1097000D+01 0.1097000D+01 0.1097000D+01
EXPONENTS  0.1097000D+01 0.1097000D+01 0.1097000D+01 0.3180000D+00 0.3180000D+00
EXPONENTS  0.3180000D+00 0.3180000D+00 0.3180000D+00 0.3180000D+00 0.1000000D+00
EXPONENTS  0.1000000D+00 0.1000000D+00 0.1000000D+00 0.1000000D+00 0.1000000D+00
EXPONENTS  0.7610000D+00 0.7610000D+00 0.7610000D+00 0.7610000D+00 0.7610000D+00
EXPONENTS  0.7610000D+00 0.7610000D+00 0.7610000D+00 0.7610000D+00 0.7610000D+00
EXPONENTS  0.2680000D+00 0.2680000D+00 0.2680000D+00 0.2680000D+00 0.2680000D+00
EXPONENTS  0.2680000D+00 0.2680000D+00 0.2680000D+00 0.2680000D+00 0.2680000D+00
EXPONENTS  0.1142000D+05 0.1712000D+04 0.3893000D+03 0.1100000D+03 0.3557000D+02
EXPONENTS  0.1254000D+02 0.4644000D+01 0.5118000D+00 0.1142000D+05 0.1712000D+04
EXPONENTS  0.3893000D+03 0.1100000D+03 0.3557000D+02 0.1254000D+02 0.4644000D+01
EXPONENTS  0.5118000D+00 0.1293000D+01 0.1787000D+00 0.5760000D-01 0.2663000D+02
EXPONENTS  0.5948000D+01 0.1742000D+01 0.2663000D+02 0.5948000D+01 0.1742000D+01
EXPONENTS  0.2663000D+02 0.5948000D+01 0.1742000D+01 0.5550000D+00 0.5550000D+00
EXPONENTS  0.5550000D+00 0.1725000D+00 0.1725000D+00 0.1725000D+00 0.4910000D-01
EXPONENTS  0.4910000D-01 0.4910000D-01 0.1654000D+01 0.1654000D+01 0.1654000D+01
EXPONENTS  0.1654000D+01 0.1654000D+01 0.1654000D+01 0.4690000D+00 0.4690000D+00
EXPONENTS  0.4690000D+00 0.4690000D+00 0.4690000D+00 0.4690000D+00 0.1510000D+00
EXPONENTS  0.1510000D+00 0.1510000D+00 0.1510000D+00 0.1510000D+00 0.1510000D+00
EXPONENTS  0.1093000D+01 0.1093000D+01 0.1093000D+01 0.1093000D+01 0.1093000D+01
EXPONENTS  0.1093000D+01 0.1093000D+01 0.1093000D+01 0.1093000D+01 0.1093000D+01
EXPONENTS  0.3640000D+00 0.3640000D+00 0.3640000D+00 0.3640000D+00 0.3640000D+00
EXPONENTS  0.3640000D+00 0.3640000D+00 0.3640000D+00 0.3640000D+00 0.3640000D+00
EXPONENTS  0.1533000D+05 0.2299000D+04 0.5224000D+03 0.1473000D+03 0.4755000D+02
EXPONENTS  0.1676000D+02 0.6207000D+01 0.6882000D+00 0.1533000D+05 0.2299000D+04
EXPONENTS  0.5224000D+03 0.1473000D+03 0.4755000D+02 0.1676000D+02 0.6207000D+01
EXPONENTS  0.6882000D+00 0.1752000D+01 0.2384000D+00 0.7376000D-01 0.3446000D+02
EXPONENTS  0.7749000D+01 0.2280000D+01 0.3446000D+02 0.7749000D+01 0.2280000D+01
EXPONENTS  0.3446000D+02 0.7749000D+01 0.2280000D+01 0.7156000D+00 0.7156000D+00
EXPONENTS  0.7156000D+00 0.2140000D+00 0.2140000D+00 0.2140000D+00 0.5974000D-01
EXPONENTS  0.5974000D-01 0.5974000D-01 0.2314000D+01 0.2314000D+01 0.2314000D+01
EXPONENTS  0.2314000D+01 0.2314000D+01 0.2314000D+01 0.6450000D+00 0.6450000D+00
EXPONENTS  0.6450000D+00 0.6450000D+00 0.6450000D+00 0.6450000D+00 0.2140000D+00
EXPONENTS  0.2140000D+00 0.2140000D+00 0.2140000D+00 0.2140000D+00 0.2140000D+00
EXPONENTS  0.1428000D+01 0.1428000D+01 0.1428000D+01 0.1428000D+01 0.1428000D+01
EXPONENTS  0.1428000D+01 0.1428000D+01 0.1428000D+01 0.1428000D+01 0.1428000D+01
EXPONENTS  0.5000000D+00 0.5000000D+00 0.5000000D+00 0.5000000D+00 0.5000000D+00
EXPONENTS  0.5000000D+00 0.5000000D+00 0.5000000D+00 0.5000000D+00 0.5000000D+00
EXPONENTS  0.3387000D+02 0.5095000D+01 0.1159000D+01 0.3258000D+00 0.1027000D+00
EXPONENTS  0.2526000D-01 0.1407000D+01 0.1407000D+01 0.1407000D+01 0.3880000D+00
EXPONENTS  0.3880000D+00 0.3880000D+00 0.1020000D+00 0.1020000D+00 0.1020000D+00
EXPONENTS  0.1057000D+01 0.1057000D+01 0.1057000D+01 0.1057000D+01 0.1057000D+01
EXPONENTS  0.1057000D+01 0.2470000D+00 0.2470000D+00 0.2470000D+00 0.2470000D+00
EXPONENTS  0.2470000D+00 0.2470000D+00
MO    1     MO 0.0        OCC NO =    2.0000000  ORB. ENERGY =  -19.074293
  0.48203905D-03  0.89863038D-03  0.15188437D-02  0.22833195D-02  0.28053219D-02
  0.23695428D-02  0.89370435D-03 -0.44229927D-05 -0.35191022D-03 -0.65888697D-03
 -0.11218114D-02 -0.17352717D-02 -0.22852918D-02 -0.23745646D-02 -0.15089292D-02
  0.10112493D-02  0.22236885D-03  0.26621915D-03  0.14649418D-03 -0.21274747D-03
 -0.19946428D-03 -0.14203045D-03 -0.45050328D-03 -0.42237546D-03 -0.30075649D-03
  0.72036417D-18  0.67538720D-18  0.48091592D-18 -0.14857681D-03 -0.21480348D-02
 -0.11577331D-17  0.23874984D-04 -0.48754761D-04 -0.71377300D-20  0.26701063D-07
 -0.20030541D-04  0.25478103D-19 -0.53567968D-03  0.10200230D-02 -0.48434330D-03
  0.53467881D-03  0.31743587D-19 -0.24011786D-18 -0.49763243D-04  0.11125844D-03
 -0.61495201D-04 -0.17938496D-03 -0.82747311D-19 -0.13115697D-17  0.28783293D-05
  0.17446925D-05 -0.46230218D-05 -0.23947773D-04 -0.39707428D-20 -0.11355532D-19
 -0.25033821D-04 -0.82094230D-06  0.76293317D-19  0.20649959D-03  0.75277876D-04
  0.19901049D-19 -0.13139813D-03 -0.72815049D-04 -0.24878100D-18 -0.24788510D-18
 -0.19074127D-04  0.71652758D-04  0.90254061D-20  0.87072656D-04 -0.64840029D-04
  0.29058475D-19 -0.29850274D-04 -0.15011824D-03 -0.56134693D-19  0.84607405D-19
 -0.18336902D-03 -0.34168118D-03 -0.57786853D-03 -0.87023798D-03 -0.10774111D-02
 -0.91682820D-03 -0.34887004D-03  0.16339072D-05  0.12991720D-03  0.24359596D-03
  0.41442920D-03  0.64356479D-03  0.85404790D-03  0.90004926D-03  0.55808796D-03
 -0.37124032D-03 -0.89378624D-04  0.60329491D-03  0.81187615D-04  0.97789867D-04
  0.93925998D-04  0.65867393D-04  0.38845936D-03  0.37311057D-03  0.26165088D-03
 -0.10184629D-17 -0.97822142D-18 -0.68599638D-18 -0.14390924D-03 -0.38261501D-03
  0.92205411D-18  0.47011656D-04 -0.46572439D-03  0.54785282D-18  0.45213558D-05
 -0.60111359D-06 -0.30131888D-19  0.26420934D-03 -0.38795336D-03  0.12374402D-03
  0.27565501D-03  0.24375030D-18  0.30959253D-17 -0.14494943D-03  0.20026243D-03
 -0.55313000D-04 -0.25621011D-04 -0.14042106D-18 -0.15135833D-17 -0.36198943D-04
  0.53686071D-04 -0.17487127D-04 -0.13871040D-04 -0.17856365D-19 -0.13726737D-18
  0.54313089D-04  0.16069231D-03  0.11741884D-18 -0.20191324D-03 -0.27312200D-03
  0.53075221D-18  0.38973972D-04 -0.20895493D-03 -0.88300872D-18 -0.21147129D-18
 -0.12725526D-04 -0.47887417D-06 -0.78519429D-19  0.44179184D-04  0.39186361D-04
 -0.14846581D-18 -0.60026076D-05 -0.37749739D-04  0.38402409D-18  0.77373126D-19
  0.49782586D+00  0.92788335D+00  0.15733827D+01  0.23813880D+01  0.29712770D+01
  0.25519307D+01  0.97973580D+00 -0.43824184D-02 -0.47654650D-03 -0.89377477D-03
 -0.15236900D-02 -0.23812309D-02 -0.31841595D-02 -0.33999400D-02 -0.20786566D-02
  0.13713714D-02  0.53481000D-01 -0.44078210D-03 -0.38030630D-03  0.66150284D-02
  0.64143524D-02  0.43270842D-02  0.58918968D-02  0.57131580D-02  0.38540626D-02
  0.18626484D-16  0.18061424D-16  0.12184130D-16  0.59668828D-03 -0.16407442D-02
 -0.22017986D-17 -0.30211018D-03 -0.11052542D-02 -0.28612005D-19 -0.33004178D-05
 -0.34429825D-04 -0.34260443D-19  0.53576007D-03  0.83330995D-03 -0.13690700D-02
 -0.14547516D-02  0.56986322D-17  0.50718563D-17  0.58899400D-03 -0.97796608D-03
  0.38897208D-03 -0.70100431D-03 -0.67080743D-18 -0.20554784D-18  0.69293815D-04
 -0.23244854D-03  0.16315473D-03 -0.22786135D-04  0.51919233D-19 -0.19819109D-18
  0.54608572D-03  0.58793238D-03 -0.39333263D-20 -0.14743330D-03 -0.25139381D-02
  0.33640352D-18 -0.14908238D-02  0.75014098D-03 -0.32460354D-18  0.50127779D-18
 -0.28623420D-04 -0.33926208D-03  0.13177865D-18 -0.25410960D-03  0.81883076D-03
 -0.10539203D-18  0.33997986D-03  0.19895548D-03 -0.28994392D-18 -0.85907425D-20
  0.17099380D-03  0.30839437D-03  0.45472731D-03 -0.42747303D-03 -0.28035435D-03
 -0.29499942D-04  0.75225449D-03 -0.50090315D-03  0.16013877D-18  0.78553668D-03
 -0.41183378D-03  0.11180415D-18  0.63315479D-04 -0.72242397D-04 -0.78696535D-20
 -0.15068720D-02  0.40987294D-03  0.10969991D-02  0.26197612D-02 -0.62654480D-18
  0.37805429D-18 -0.40904058D-04  0.56186160D-05  0.35285442D-04  0.10260347D-03
 -0.17856627D-19  0.33736954D-19
MO    2     MO 0.0        OCC NO =    2.0000000  ORB. ENERGY =  -14.157569
 -0.18658784D-03 -0.34784216D-03 -0.58791453D-03 -0.88382812D-03 -0.10858850D-02
 -0.91720344D-03 -0.34593539D-03  0.17120536D-05  0.14155325D-03  0.26503235D-03
  0.45124025D-03  0.69800005D-03  0.91924151D-03  0.95515081D-03  0.60695546D-03
 -0.40676744D-03  0.14789930D-02 -0.22180385D-02 -0.10313938D-04  0.16219761D-03
  0.15207057D-03  0.10828330D-03  0.36628640D-02  0.34341678D-02  0.24453320D-02
  0.11914305D-14  0.11170418D-14  0.79540029D-15 -0.61304021D-03 -0.10068701D-01
  0.19566892D-16 -0.11633258D-03 -0.22083233D-02  0.10781743D-17  0.87405601D-05
 -0.37855816D-04 -0.17115078D-18  0.92443148D-03 -0.18502401D-02  0.92580858D-03
 -0.13093363D-03 -0.36084829D-18  0.23212742D-17  0.80985655D-03 -0.16487516D-02
  0.83889502D-03 -0.29137054D-03  0.55088695D-18  0.94440995D-17  0.58952631D-04
 -0.11737683D-03  0.58424201D-04 -0.18117710D-04  0.96258998D-19  0.53785936D-18
  0.30919343D-03 -0.34157340D-02 -0.37214333D-17 -0.12013725D-02  0.51440996D-02
 -0.29069019D-17  0.27379216D-03  0.51031023D-02  0.14071202D-16  0.41703129D-17
  0.10596419D-04 -0.29479241D-03 -0.53796147D-18 -0.44436918D-04  0.46313004D-03
 -0.64467726D-18  0.12647662D-04  0.42124719D-03  0.22585617D-17 -0.16537947D-18
  0.41384594D+00  0.77114097D+00  0.13041927D+01  0.19640419D+01  0.24316113D+01
  0.20691915D+01  0.78736554D+00 -0.36875687D-02 -0.25097616D-02 -0.47058264D-02
 -0.80060109D-02 -0.12432490D-01 -0.16498637D-01 -0.17387298D-01 -0.10781234D-01
  0.71716812D-02  0.42042369D-01  0.56891779D-02  0.39034377D-03 -0.23367360D-03
 -0.22444070D-03 -0.15739331D-03 -0.59695099D-02 -0.57336429D-02 -0.40208261D-02
  0.20506851D-16  0.19696586D-16  0.13812605D-16 -0.36893892D-03 -0.78468416D-02
 -0.13825512D-16  0.22624862D-04 -0.20165833D-03 -0.63673058D-17 -0.69123843D-05
  0.19937727D-04  0.96642971D-19 -0.37754277D-02  0.74307369D-02 -0.36553092D-02
  0.10943625D-02 -0.29925100D-18 -0.15403923D-16 -0.38785799D-03  0.73902661D-03
 -0.35116862D-03 -0.92406949D-05  0.10490187D-17  0.16060028D-16  0.83451808D-04
 -0.17306015D-03  0.89608342D-04 -0.31167214D-04  0.59511947D-19  0.12612933D-17
  0.61435412D-04 -0.12991303D-02  0.11938374D-17 -0.25362616D-03  0.19688546D-02
 -0.19434216D-17  0.69319919D-04  0.19285363D-02 -0.16380905D-17  0.74106258D-18
 -0.14982484D-04  0.12641795D-03  0.59445789D-18  0.63071142D-04 -0.17532024D-03
  0.10605443D-17 -0.18123690D-04 -0.20393359D-03 -0.28439180D-17 -0.31713878D-18
 -0.53802463D-03 -0.10028087D-02 -0.17004313D-02 -0.25736819D-02 -0.32112036D-02
 -0.27579956D-02 -0.10588482D-02  0.47362928D-05  0.36126401D-03  0.67755961D-03
  0.11550906D-02  0.18051818D-02  0.24138720D-02  0.25774525D-02  0.15758039D-02
 -0.10396197D-02  0.71419571D-03 -0.21176672D-02 -0.93246709D-03  0.12680464D-03
  0.12295785D-03  0.82946636D-04  0.22671371D-02  0.21983604D-02  0.14830009D-02
  0.49303843D-17  0.47808143D-17  0.32251091D-17 -0.39976200D-04 -0.41930536D-02
 -0.33573308D-17 -0.19720890D-03 -0.11091316D-02 -0.38096512D-19 -0.28156102D-04
 -0.83079841D-04  0.37508176D-18  0.35380114D-03 -0.47386792D-03  0.12006678D-03
  0.29797918D-04 -0.21554816D-17  0.18838763D-16  0.11864265D-02 -0.21147116D-02
  0.92828508D-03 -0.13071270D-02  0.92060468D-18 -0.96108964D-17  0.91737025D-04
 -0.19335715D-03  0.10162012D-03 -0.25316464D-04 -0.41651616D-18  0.11645692D-17
  0.47880286D-03 -0.69957164D-03  0.84639071D-18 -0.11595006D-02  0.45662343D-03
 -0.23529654D-17 -0.27690800D-03  0.16420915D-02 -0.18620676D-18 -0.10916980D-17
  0.99233957D-04 -0.32156592D-03 -0.16717772D-18 -0.41828233D-03  0.54090639D-03
  0.67493901D-18  0.12058046D-03  0.42379136D-03 -0.17340585D-18 -0.12547680D-18
  0.21096277D-05  0.38048004D-05  0.56101760D-05 -0.40551697D-03  0.15707304D-03
 -0.32184845D-04  0.29933033D-03 -0.50815953D-03 -0.38981558D-18  0.30692975D-03
 -0.25556708D-03  0.36552522D-19 -0.15771738D-04 -0.35893504D-04 -0.49040862D-19
 -0.18363338D-03 -0.42351637D-04  0.22598502D-03  0.76629835D-03  0.11043695D-17
  0.13015632D-19 -0.31763696D-04  0.34218715D-04 -0.24550195D-05  0.10085098D-03
  0.10132961D-18 -0.28837822D-18
MO    3     MO 0.0        OCC NO =    2.0000000  ORB. ENERGY =  -10.136384
  0.33008447D+00  0.61535250D+00  0.10400541D+01  0.15635420D+01  0.19209921D+01
  0.16225849D+01  0.61197932D+00 -0.30287198D-02 -0.32622112D-02 -0.61078887D-02
 -0.10399203D-01 -0.16085986D-01 -0.21184678D-01 -0.22012237D-01 -0.13987788D-01
  0.93742905D-02  0.35109357D-01  0.52326558D-02  0.10231719D-02 -0.33588355D-03
 -0.31491218D-03 -0.22423623D-03 -0.39195402D-02 -0.36748180D-02 -0.26166894D-02
  0.72795420D-17  0.68250333D-17  0.48598303D-17 -0.86036460D-05  0.54406390D-02
 -0.25833325D-17  0.10311631D-04  0.13091082D-02 -0.58699332D-18  0.11818694D-04
  0.93908351D-06  0.33700722D-21 -0.41772426D-02  0.85560480D-02 -0.43788054D-02
  0.13480101D-02  0.35068296D-17  0.33301123D-17  0.15139859D-03 -0.38898009D-03
  0.23758150D-03  0.20939221D-03 -0.36422830D-18 -0.25358225D-17  0.24659673D-04
 -0.48751639D-04  0.24091966D-04 -0.36418699D-06 -0.83590350D-20 -0.26742874D-18
  0.14746447D-04  0.10813213D-02  0.42363941D-18 -0.12139720D-03 -0.14878135D-02
 -0.28534890D-19  0.77157861D-04 -0.17561503D-02 -0.12423833D-17  0.18930626D-18
 -0.33063864D-05  0.97253754D-04  0.38638874D-19  0.31806191D-04 -0.10066792D-03
  0.59612153D-19 -0.21887032D-04 -0.19109335D-03 -0.17552877D-18  0.14474067D-18
 -0.60857971D-03 -0.11339987D-02 -0.19178761D-02 -0.28882151D-02 -0.35757976D-02
 -0.30428424D-02 -0.11578577D-02  0.54227414D-05  0.29007162D-03  0.54388700D-03
  0.92531362D-03  0.14369143D-02  0.19068689D-02  0.20095781D-02  0.12460666D-02
 -0.82888399D-03  0.97567245D-03 -0.68053334D-02 -0.18193020D-02 -0.70767529D-04
 -0.67971365D-04 -0.47666213D-04 -0.26898701D-02 -0.25835881D-02 -0.18117903D-02
 -0.66959649D-18 -0.64313942D-18 -0.45101376D-18  0.23365867D-03  0.55654519D-02
  0.10993570D-17  0.12599609D-03  0.36332232D-02  0.18938028D-17 -0.39536907D-05
  0.18916894D-03  0.60860170D-19  0.47662907D-03 -0.88110268D-03  0.40447361D-03
 -0.35387182D-03  0.41031732D-18  0.32616662D-17  0.15477110D-02 -0.31848012D-02
  0.16370902D-02 -0.43747083D-03 -0.29674404D-18 -0.28467282D-17  0.16192808D-03
 -0.33176937D-03  0.16984129D-03 -0.17826396D-04 -0.30799074D-19 -0.43328976D-18
 -0.12602828D-03  0.96645770D-03 -0.67918643D-19  0.53991843D-03 -0.13643551D-02
  0.10680001D-18 -0.16183359D-03 -0.15350180D-02  0.96955924D-19  0.35073855D-18
 -0.24216161D-04  0.41661862D-03 -0.16522338D-18  0.89850764D-04 -0.60502736D-03
 -0.16650538D-18 -0.17202282D-04 -0.64482849D-03  0.66217552D-18  0.14492950D-18
  0.76439668D-03  0.14247371D-02  0.24158820D-02  0.36565499D-02  0.45623067D-02
  0.39184130D-02  0.15043549D-02 -0.67290720D-05 -0.58181323D-03 -0.10912051D-02
 -0.18602655D-02 -0.29072329D-02 -0.38875244D-02 -0.41509697D-02 -0.25378215D-02
  0.16743005D-02  0.48832156D-03 -0.57642768D-03 -0.83534093D-03  0.40710194D-03
  0.39475194D-03  0.26629733D-03  0.73192361D-03  0.70971970D-03  0.47877272D-03
 -0.30610255D-18 -0.29681650D-18 -0.20023066D-18 -0.50317167D-03  0.23665436D-02
  0.23416746D-18  0.19183725D-03 -0.17176457D-02 -0.81360908D-18 -0.87503463D-05
 -0.86723498D-04 -0.72006454D-19 -0.21280943D-02  0.36840115D-02 -0.15559172D-02
  0.36693649D-03  0.46928894D-18 -0.16264843D-18  0.88771914D-03 -0.17491753D-02
  0.86145614D-03  0.55993809D-03 -0.25543554D-18  0.31113082D-18  0.38129930D-03
 -0.57429547D-03  0.19299618D-03 -0.14812825D-03 -0.29452195D-19 -0.35246280D-18
 -0.37121539D-04 -0.51599701D-03 -0.42956318D-18 -0.26294602D-03  0.10839212D-02
  0.46014779D-19  0.37431063D-03  0.46406987D-03  0.12426748D-17  0.15827856D-18
  0.25336216D-03 -0.79084833D-03  0.73504970D-19 -0.71169862D-03  0.12831713D-02
 -0.16949956D-18 -0.48387874D-04  0.10893737D-02 -0.51015347D-19  0.27413604D-18
  0.29268263D-04  0.52786518D-04  0.77833689D-04 -0.98854743D-04  0.50843346D-03
 -0.47792030D-04 -0.51270117D-03 -0.10515799D-02  0.63900242D-19 -0.84916938D-03
  0.18334613D-03  0.32557836D-18 -0.13024856D-03  0.76259614D-04 -0.83422226D-20
  0.78621743D-03 -0.63651042D-03 -0.14970701D-03 -0.32103340D-04 -0.39234309D-18
  0.15669247D-18  0.75268659D-04  0.40175370D-04 -0.11544403D-03 -0.15167307D-03
 -0.56256011D-19  0.11625636D-18
MO    4     MO 0.0        OCC NO =    2.0000000  ORB. ENERGY =   -1.120362
 -0.51035463D-02 -0.95141707D-02 -0.16080624D-01 -0.24174446D-01 -0.29701100D-01
 -0.25087327D-01 -0.94620167D-02  0.46828049D-04 -0.20492679D-01 -0.38368761D-01
 -0.65326099D-01 -0.10104954D+00 -0.13307869D+00 -0.13827728D+00 -0.87869007D-01
  0.58887765D-01  0.28227238D-01  0.87677795D-02  0.10580499D-02 -0.79702010D-02
 -0.74725701D-02 -0.53209150D-02 -0.15872947D+00 -0.14881897D+00 -0.10596797D+00
  0.58067686D-15  0.54442147D-15  0.38766052D-15 -0.12205393D-02 -0.21780057D-01
 -0.66033051D-16 -0.75282829D-04  0.27935779D-02 -0.16728626D-16 -0.13107477D-04
  0.98719830D-04 -0.16004067D-17 -0.16532195D-01  0.33933824D-01 -0.17401629D-01
  0.51757976D-02  0.31999658D-16 -0.55819380D-16 -0.13513449D-02  0.30387592D-02
 -0.16874142D-02  0.76825328D-03  0.46906277D-17 -0.69892853D-17  0.11255959D-03
 -0.20421846D-03  0.91658868D-04 -0.53752993D-04 -0.69632591D-19 -0.11855725D-17
  0.30389479D-03 -0.28182866D-02 -0.15988655D-16 -0.11106324D-02  0.38604731D-02
 -0.16841381D-16  0.19894801D-03  0.45943865D-02  0.64807347D-16  0.11560043D-16
  0.59878343D-04 -0.33699683D-03 -0.17275165D-17 -0.26113636D-03  0.62528644D-03
 -0.41113699D-17  0.81501327D-04  0.38570404D-03  0.92939195D-17 -0.22308842D-18
 -0.50656693D-03 -0.94391289D-03 -0.15963933D-02 -0.24040799D-02 -0.29764069D-02
 -0.25327879D-02 -0.96377253D-03  0.45137579D-05 -0.35479879D-02 -0.66525105D-02
 -0.11317900D-01 -0.17575503D-01 -0.23323715D-01 -0.24579994D-01 -0.15241164D-01
  0.10138428D-01  0.68302426D-02 -0.84006317D-02 -0.30441374D-02 -0.12165346D-02
 -0.11684669D-02 -0.81940967D-03 -0.27776626D-01 -0.26679118D-01 -0.18709239D-01
 -0.10353494D-15 -0.99444076D-16 -0.69737050D-16  0.88427648D-04 -0.22616306D-03
 -0.55990234D-16  0.37758808D-03  0.50290570D-02 -0.12271223D-16  0.32371614D-04
  0.29674947D-03  0.24673389D-17 -0.29419311D-03  0.93685405D-03 -0.64266094D-03
 -0.12073558D-03  0.31767007D-17  0.58482006D-16  0.13033070D-02 -0.28540585D-02
  0.15507515D-02 -0.37621505D-03  0.22054815D-17  0.39521287D-16  0.14335511D-03
 -0.35852712D-03  0.21517201D-03 -0.57964028D-04 -0.16582973D-18 -0.46301345D-18
 -0.14681854D-03  0.14521815D-02  0.50301128D-18  0.54860204D-03 -0.23129428D-02
 -0.29228553D-17 -0.10814643D-03 -0.20436018D-02  0.14138215D-17 -0.74170014D-17
  0.11318290D-05  0.26399960D-03  0.16702340D-17  0.18609025D-04 -0.28678872D-03
  0.23834600D-17 -0.22004512D-04 -0.50521010D-03 -0.73941621D-17  0.11306498D-17
 -0.83087957D-02 -0.15486526D-01 -0.26260017D-01 -0.39745759D-01 -0.49591102D-01
 -0.42592143D-01 -0.16351952D-01  0.73143284D-04 -0.92441077D-01 -0.17337553D+00
 -0.29556727D+00 -0.46191411D+00 -0.61766718D+00 -0.65952455D+00 -0.40322038D+00
  0.26602031D+00  0.14298325D+00  0.67948215D-01  0.22556189D-02  0.23460543D+00
  0.22748835D+00  0.15346230D+00  0.22455296D+00  0.21774083D+00  0.14688668D+00
  0.16350016D-15  0.15854015D-15  0.10695025D-15  0.59501533D-01  0.60514380D-01
  0.96914291D-17  0.40459904D-02  0.26105007D-02 -0.27161605D-16  0.11157878D-03
 -0.23615816D-03  0.17939321D-18  0.39964761D-02  0.24097138D-01 -0.28093614D-01
 -0.51441384D-02  0.61152122D-16  0.22745320D-16 -0.19909304D-02  0.12279995D-01
 -0.10289064D-01  0.32573323D-03 -0.73251663D-17 -0.21785004D-16  0.27895234D-04
 -0.26831564D-03  0.24042041D-03 -0.31607383D-04 -0.89164411D-17 -0.72253495D-17
  0.23303697D-03  0.95733356D-02 -0.12323604D-16  0.54508015D-02 -0.16399579D-01
 -0.12802285D-16 -0.61499124D-02 -0.12320428D-01  0.49773097D-16  0.23245712D-16
 -0.58287764D-03  0.95688935D-03  0.60106117D-17  0.22624561D-02 -0.15752918D-02
  0.41236452D-17 -0.51382322D-03 -0.12953762D-02 -0.22155480D-16 -0.16178365D-16
  0.20303666D-01  0.36618498D-01  0.53993954D-01  0.18638771D-01 -0.15459058D-02
 -0.74611014D-04 -0.22093056D-01  0.15411759D-01 -0.68174409D-17 -0.16331327D-02
  0.42357331D-02  0.12960258D-16  0.39395688D-03  0.11915430D-03  0.23065413D-17
  0.14857482D-02  0.43208861D-03 -0.19178368D-02 -0.81922617D-02  0.62632184D-20
  0.61820725D-17 -0.24114901D-03  0.40271552D-03 -0.16156651D-03 -0.44304108D-03
 -0.18701609D-17  0.22544350D-17
MO    5     MO 0.0        OCC NO =    2.0000000  ORB. ENERGY =   -0.879006
 -0.69590653D-02 -0.12973280D-01 -0.21927129D-01 -0.32963657D-01 -0.40499661D-01
 -0.34208438D-01 -0.12902164D-01  0.63853531D-04 -0.36660334D-01 -0.68639712D-01
 -0.11686498D+00 -0.18077236D+00 -0.23807084D+00 -0.24737085D+00 -0.15719307D+00
  0.10534714D+00  0.49773065D-01  0.14014513D-01  0.23049395D-02  0.12791285D-01
  0.11992643D-01  0.85394762D-02  0.31658590D+00  0.29681941D+00  0.21135310D+00
  0.70605165D-15  0.66196830D-15  0.47136086D-15  0.23211397D-03  0.39294544D-01
  0.37815672D-16 -0.63061352D-03 -0.16792006D-02  0.49650341D-16  0.52545522D-04
 -0.12527432D-03 -0.22596418D-17 -0.18073615D-01  0.37378751D-01 -0.19305135D-01
  0.59414807D-02 -0.78542169D-16 -0.67499566D-16  0.10471167D-02 -0.18657445D-02
  0.81862789D-03  0.83477272D-03 -0.10655439D-16 -0.48336516D-16  0.17221260D-03
 -0.36542072D-03  0.19320812D-03 -0.24593067D-04  0.78807703D-18 -0.33567360D-17
  0.15837759D-04  0.52158603D-02  0.56228102D-17 -0.19517347D-03 -0.85801123D-02
  0.62659563D-17  0.14766019D-03 -0.70674687D-02 -0.23134387D-16 -0.15278794D-17
  0.14336286D-03 -0.58884391D-03 -0.44358406D-17 -0.59857841D-03  0.10782952D-02
 -0.29359258D-17  0.16848983D-03  0.68823649D-03  0.16243448D-16  0.50715926D-17
 -0.83771908D-02 -0.15609661D-01 -0.26399851D-01 -0.39756713D-01 -0.49221389D-01
 -0.41885181D-01 -0.15938084D-01  0.74644847D-04 -0.64432133D-01 -0.12081085D+00
 -0.20553521D+00 -0.31917447D+00 -0.42356309D+00 -0.44637735D+00 -0.27678244D+00
  0.18411578D+00  0.95151701D-01  0.35914436D-01 -0.22976512D-02 -0.18787974D-01
 -0.18045624D-01 -0.12654837D-01 -0.39995981D+00 -0.38415662D+00 -0.26939714D+00
  0.16733753D-15  0.16072570D-15  0.11271196D-15 -0.36151036D-02 -0.90325592D-01
  0.44953139D-16  0.26197996D-03 -0.25145594D-03  0.58850525D-17 -0.30978723D-04
  0.47492430D-03 -0.18908326D-17 -0.25775958D-01  0.52471675D-01 -0.26695717D-01
  0.65980126D-02  0.46742676D-17 -0.69540476D-16 -0.29767283D-02  0.58871834D-02
 -0.29104551D-02  0.45110443D-03  0.77295940D-19 -0.48343043D-16  0.29887217D-03
 -0.67539118D-03  0.37651901D-03 -0.51983833D-04 -0.11317300D-17  0.15012123D-17
  0.27055781D-03 -0.80193636D-02 -0.86338738D-17 -0.11703145D-02  0.11690802D-01
  0.13227676D-16  0.35864104D-03  0.12367288D-01  0.12673945D-16  0.34299870D-17
  0.56576221D-04 -0.21238021D-03 -0.42361522D-17 -0.18683510D-03  0.40828499D-03
 -0.64635862D-17  0.17106440D-04  0.22885565D-03  0.19172043D-16  0.46042235D-18
  0.18264930D-02  0.34043480D-02  0.57726462D-02  0.87371689D-02  0.10901436D-01
  0.93628794D-02  0.35945915D-02 -0.16078828D-04  0.14303315D-01  0.26826222D-01
  0.45732827D-01  0.71471506D-01  0.95571022D-01  0.10204757D+00  0.62389883D-01
 -0.41161056D-01 -0.22789865D-01 -0.20603985D-01 -0.54593659D-02 -0.68414449D-01
 -0.66339002D-01 -0.44751899D-01  0.83457796D-01  0.80925989D-01  0.54592194D-01
  0.11813457D-15  0.11455080D-15  0.77275292D-16 -0.17986207D-01  0.19098398D-01
  0.29527292D-16 -0.59352993D-03 -0.72908763D-02 -0.34971781D-16 -0.11241215D-03
 -0.57204789D-03 -0.27919744D-17 -0.80345391D-02  0.81653975D-02 -0.13085843D-03
  0.72730504D-02  0.58399658D-17  0.39662876D-16  0.39862859D-03 -0.35895043D-02
  0.31908757D-02  0.13612379D-02 -0.32536962D-17 -0.18260811D-16  0.11704044D-02
 -0.18523109D-02  0.68190643D-03 -0.11088204D-02  0.14048273D-17 -0.26619782D-16
 -0.24518394D-03 -0.92776955D-03 -0.11954428D-16 -0.98540053D-03  0.32244405D-02
  0.88548491D-17  0.17209524D-02 -0.44113186D-03  0.27008434D-16  0.40591832D-18
  0.97464679D-04 -0.16383798D-02  0.81036917D-18 -0.41146136D-03  0.20788178D-02
 -0.16831205D-17  0.11906732D-03  0.28363216D-02 -0.74798702D-18 -0.43327841D-17
 -0.56125115D-02 -0.10122396D-01 -0.14925466D-01 -0.87959626D-02  0.23145086D-02
 -0.21182097D-03  0.55679382D-02 -0.36150655D-02  0.57369344D-17  0.22007881D-03
  0.23241207D-02 -0.46087325D-17 -0.44462524D-03  0.53561821D-03 -0.21295137D-17
 -0.89216637D-03  0.70421946D-03  0.18794691D-03  0.37464473D-03 -0.22433018D-17
 -0.49313873D-18 -0.23599207D-04  0.52816265D-03 -0.50456345D-03 -0.50283156D-03
  0.33455799D-17  0.17392645D-17
MO    6     MO 0.0        OCC NO =    2.0000000  ORB. ENERGY =   -0.642892
 -0.31018327D-02 -0.57825214D-02 -0.97734798D-02 -0.14692742D-01 -0.18051731D-01
 -0.15247572D-01 -0.57508233D-02  0.28461145D-04 -0.22130133D-01 -0.41434591D-01
 -0.70545936D-01 -0.10912384D+00 -0.14371225D+00 -0.14932624D+00 -0.94890120D-01
  0.63593152D-01  0.32038017D-01  0.11046090D-01  0.18069601D-03 -0.98361465D-01
 -0.92220125D-01 -0.65666223D-01 -0.29728932D+00 -0.27872763D+00 -0.19847068D+00
  0.25251143D-15  0.23674552D-15  0.16857691D-15 -0.25747496D-01 -0.56242102D-01
  0.22072936D-15 -0.14718900D-02  0.23023803D-02 -0.57379578D-16  0.56150149D-04
  0.98757024D-04  0.66013221D-17 -0.65492514D-02  0.15657836D-01 -0.91085846D-02
  0.23483930D-01  0.83883638D-15 -0.42997679D-15 -0.13218593D-02  0.28394564D-02
 -0.15175972D-02  0.45681457D-02  0.37845928D-16  0.19283017D-18 -0.10810793D-03
  0.87870000D-04  0.20237930D-04  0.24022346D-03 -0.38439827D-17  0.21290066D-17
  0.30627141D-02 -0.58739304D-02 -0.20820547D-16 -0.12648476D-01  0.70260234D-02
 -0.20479367D-16  0.34603339D-02  0.10595768D-01  0.82941008D-16  0.17118964D-16
  0.16765219D-03  0.14572611D-03  0.43435875D-17 -0.60740190D-03 -0.26913093D-03
 -0.22722116D-18  0.10444532D-03 -0.16804740D-03 -0.12803541D-16 -0.11113419D-16
  0.16740366D-02  0.31193207D-02  0.52755533D-02  0.79446909D-02  0.98360427D-02
  0.83700284D-02  0.31849502D-02 -0.14916481D-04  0.15703470D-01  0.29444154D-01
  0.50093266D-01  0.77789553D-01  0.10323126D+00  0.10879158D+00  0.67457719D-01
 -0.44872901D-01 -0.23048940D-01 -0.18906297D-01 -0.13921706D-02 -0.28023143D-01
 -0.26915894D-01 -0.18875283D-01  0.52052540D-01  0.49995842D-01  0.35060535D-01
  0.20824811D-15  0.20001982D-15  0.14026770D-15 -0.44039252D-02  0.12511149D-01
  0.46426507D-16 -0.56970012D-03  0.14912976D-02  0.30318781D-16 -0.72830148D-04
  0.91686492D-05 -0.24911093D-17  0.44455626D-02 -0.86916763D-02  0.42461137D-02
  0.44222804D-02 -0.22437431D-16  0.12900047D-15  0.98136359D-03 -0.19816057D-02
  0.10002421D-02 -0.95044453D-03  0.10020098D-16 -0.79654182D-17  0.91874191D-05
  0.94349037D-04 -0.10353646D-03  0.89337330D-04  0.12079687D-17 -0.94581605D-17
 -0.19912769D-03  0.21220622D-02  0.20034636D-16  0.93079478D-03 -0.33763655D-02
 -0.31107764D-16 -0.33341170D-03 -0.29898211D-02 -0.28996145D-16  0.88090089D-18
 -0.11701070D-03  0.30332974D-03  0.12413069D-17  0.39207116D-03 -0.51906762D-03
  0.49877093D-17 -0.41039055D-04 -0.39092160D-03 -0.87116300D-17 -0.34734799D-17
  0.64245669D-03  0.11974566D-02  0.20304897D-02  0.30732407D-02  0.38345071D-02