 Molden2AIM, Version 4.0.0 (06/02/2016)           Time: Sat Jun 30 04:54:54 2018
GAUSSIAN              9 MOL ORBITALS    177 PRIMITIVES        3 NUCLEI
  H    1    (CENTRE  1)  -0.00633058  0.00000000 -0.00500022  CHARGE =  1.0
  O    2    (CENTRE  2)   0.02572484  0.00000000  1.82968953  CHARGE =  8.0
  F    3    (CENTRE  3)   2.66694213  0.00000000  2.19511531  CHARGE =  9.0
CENTRE ASSIGNMENTS    1  1  1  1  1  1  1  1  1  1  1  1  1  1  1  1  1  1  1  1
CENTRE ASSIGNMENTS    1  1  1  1  1  1  1  2  2  2  2  2  2  2  2  2  2  2  2  2
CENTRE ASSIGNMENTS    2  2  2  2  2  2  2  2  2  2  2  2  2  2  2  2  2  2  2  2
CENTRE ASSIGNMENTS    2  2  2  2  2  2  2  2  2  2  2  2  2  2  2  2  2  2  2  2
CENTRE ASSIGNMENTS    2  2  2  2  2  2  2  2  2  2  2  2  2  2  2  2  2  2  2  2
CENTRE ASSIGNMENTS    2  2  3  3  3  3  3  3  3  3  3  3  3  3  3  3  3  3  3  3
CENTRE ASSIGNMENTS    3  3  3  3  3  3  3  3  3  3  3  3  3  3  3  3  3  3  3  3
CENTRE ASSIGNMENTS    3  3  3  3  3  3  3  3  3  3  3  3  3  3  3  3  3  3  3  3
CENTRE ASSIGNMENTS    3  3  3  3  3  3  3  3  3  3  3  3  3  3  3  3  3
TYPE ASSIGNMENTS      1  1  1  1  1  1  2  3  4  2  3  4  2  3  4  5  6  7  8  9
TYPE ASSIGNMENTS     10  5  6  7  8  9 10  1  1  1  1  1  1  1  1  1  1  1  1  1
TYPE ASSIGNMENTS      1  1  1  1  1  1  2  2  2  3  3  3  4  4  4  2  3  4  2  3
TYPE ASSIGNMENTS      4  2  3  4  5  6  7  8  9 10  5  6  7  8  9 10  5  6  7  8
TYPE ASSIGNMENTS      9 10 11 12 13 17 14 15 18 19 16 20 11 12 13 17 14 15 18 19
TYPE ASSIGNMENTS     16 20  1  1  1  1  1  1  1  1  1  1  1  1  1  1  1  1  1  1
TYPE ASSIGNMENTS      1  2  2  2  3  3  3  4  4  4  2  3  4  2  3  4  2  3  4  5
TYPE ASSIGNMENTS      6  7  8  9 10  5  6  7  8  9 10  5  6  7  8  9 10 11 12 13
TYPE ASSIGNMENTS     17 14 15 18 19 16 20 11 12 13 17 14 15 18 19 16 20
EXPONENTS  0.3387000D+02 0.5095000D+01 0.1159000D+01 0.3258000D+00 0.1027000D+00
EXPONENTS  0.2526000D-01 0.1407000D+01 0.1407000D+01 0.1407000D+01 0.3880000D+00
EXPONENTS  0.3880000D+00 0.3880000D+00 0.1020000D+00 0.1020000D+00 0.1020000D+00
EXPONENTS  0.1057000D+01 0.1057000D+01 0.1057000D+01 0.1057000D+01 0.1057000D+01
EXPONENTS  0.1057000D+01 0.2470000D+00 0.2470000D+00 0.2470000D+00 0.2470000D+00
EXPONENTS  0.2470000D+00 0.2470000D+00 0.1533000D+05 0.2299000D+04 0.5224000D+03
EXPONENTS  0.1473000D+03 0.4755000D+02 0.1676000D+02 0.6207000D+01 0.6882000D+00
EXPONENTS  0.1533000D+05 0.2299000D+04 0.5224000D+03 0.1473000D+03 0.4755000D+02
EXPONENTS  0.1676000D+02 0.6207000D+01 0.6882000D+00 0.1752000D+01 0.2384000D+00
EXPONENTS  0.7376000D-01 0.3446000D+02 0.7749000D+01 0.2280000D+01 0.3446000D+02
EXPONENTS  0.7749000D+01 0.2280000D+01 0.3446000D+02 0.7749000D+01 0.2280000D+01
EXPONENTS  0.7156000D+00 0.7156000D+00 0.7156000D+00 0.2140000D+00 0.2140000D+00
EXPONENTS  0.2140000D+00 0.5974000D-01 0.5974000D-01 0.5974000D-01 0.2314000D+01
EXPONENTS  0.2314000D+01 0.2314000D+01 0.2314000D+01 0.2314000D+01 0.2314000D+01
EXPONENTS  0.6450000D+00 0.6450000D+00 0.6450000D+00 0.6450000D+00 0.6450000D+00
EXPONENTS  0.6450000D+00 0.2140000D+00 0.2140000D+00 0.2140000D+00 0.2140000D+00
EXPONENTS  0.2140000D+00 0.2140000D+00 0.1428000D+01 0.1428000D+01 0.1428000D+01
EXPONENTS  0.1428000D+01 0.1428000D+01 0.1428000D+01 0.1428000D+01 0.1428000D+01
EXPONENTS  0.1428000D+01 0.1428000D+01 0.5000000D+00 0.5000000D+00 0.5000000D+00
EXPONENTS  0.5000000D+00 0.5000000D+00 0.5000000D+00 0.5000000D+00 0.5000000D+00
EXPONENTS  0.5000000D+00 0.5000000D+00 0.1950000D+05 0.2923000D+04 0.6645000D+03
EXPONENTS  0.1875000D+03 0.6062000D+02 0.2142000D+02 0.7950000D+01 0.8815000D+00
EXPONENTS  0.1950000D+05 0.2923000D+04 0.6645000D+03 0.1875000D+03 0.6062000D+02
EXPONENTS  0.2142000D+02 0.7950000D+01 0.8815000D+00 0.2257000D+01 0.3041000D+00
EXPONENTS  0.9158000D-01 0.4388000D+02 0.9926000D+01 0.2930000D+01 0.4388000D+02
EXPONENTS  0.9926000D+01 0.2930000D+01 0.4388000D+02 0.9926000D+01 0.2930000D+01
EXPONENTS  0.9132000D+00 0.9132000D+00 0.9132000D+00 0.2672000D+00 0.2672000D+00
EXPONENTS  0.2672000D+00 0.7361000D-01 0.7361000D-01 0.7361000D-01 0.3107000D+01
EXPONENTS  0.3107000D+01 0.3107000D+01 0.3107000D+01 0.3107000D+01 0.3107000D+01
EXPONENTS  0.8550000D+00 0.8550000D+00 0.8550000D+00 0.8550000D+00 0.8550000D+00
EXPONENTS  0.8550000D+00 0.2920000D+00 0.2920000D+00 0.2920000D+00 0.2920000D+00
EXPONENTS  0.2920000D+00 0.2920000D+00 0.1917000D+01 0.1917000D+01 0.1917000D+01
EXPONENTS  0.1917000D+01 0.1917000D+01 0.1917000D+01 0.1917000D+01 0.1917000D+01
EXPONENTS  0.1917000D+01 0.1917000D+01 0.7240000D+00 0.7240000D+00 0.7240000D+00
EXPONENTS  0.7240000D+00 0.7240000D+00 0.7240000D+00 0.7240000D+00 0.7240000D+00
EXPONENTS  0.7240000D+00 0.7240000D+00
MO    1     MO 0.0        OCC NO =    2.0000000  ORB. ENERGY =  -24.522332
  0.18792565D-04  0.33893165D-04  0.49975452D-04 -0.56180917D-04 -0.17999096D-04
 -0.25487837D-05  0.91190031D-04 -0.51142838D-16  0.11427893D-03 -0.59686458D-04
 -0.36197556D-17 -0.69536088D-04 -0.11705659D-05 -0.11539470D-17  0.26972663D-05
 -0.11959699D-03  0.73189551D-04  0.46407438D-04  0.34386581D-18  0.38814947D-04
  0.42746314D-17 -0.16851082D-05  0.35521876D-05 -0.18670794D-05 -0.20742239D-18
  0.87337175D-05 -0.18959991D-17 -0.10331174D-03 -0.19255979D-03 -0.32651760D-03
 -0.49419960D-03 -0.61661681D-03 -0.52959160D-03 -0.20332051D-03  0.90946513D-06
  0.82137784D-04  0.15405145D-03  0.26262395D-03  0.41043011D-03  0.54882326D-03
  0.58601529D-03  0.35827826D-03 -0.23637023D-03 -0.29607675D-03  0.12134281D-02
  0.35337081D-03 -0.13577644D-02 -0.13165747D-02 -0.88815355D-03 -0.47689254D-17
 -0.46242534D-17 -0.31194940D-17 -0.17937542D-03 -0.17393382D-03 -0.11733472D-03
  0.89768736D-03  0.24113321D-17  0.12353867D-03  0.80869026D-03  0.22926605D-17
  0.75767566D-04  0.36550021D-04  0.61683057D-18  0.21131948D-05 -0.77312596D-03
  0.42176573D-03  0.35136023D-03 -0.37486981D-18 -0.32044241D-03 -0.35363330D-17
  0.80612447D-03 -0.40432862D-03 -0.40179584D-03  0.53111491D-18  0.34014104D-03
  0.37279967D-17  0.13070953D-03 -0.69012550D-04 -0.61696982D-04  0.53045291D-18
  0.24094800D-04 -0.17901226D-17  0.64437529D-03  0.17530053D-17 -0.10647740D-03
 -0.93426085D-03 -0.11815365D-17  0.57211311D-03 -0.99886502D-03 -0.40774794D-17
 -0.25268093D-03 -0.75833128D-19  0.11532753D-03  0.99328301D-19 -0.91292308D-05
 -0.19321819D-03  0.13601579D-17  0.32765847D-04 -0.15276439D-03 -0.16581428D-17
 -0.53781547D-05  0.47180112D-18  0.59439731D+00  0.11079823D+01  0.18783025D+01
  0.28443035D+01  0.35568115D+01  0.30620834D+01  0.11771766D+01 -0.51008991D-02
  0.18165420D-03  0.34111441D-03  0.58085901D-03  0.90991221D-03  0.12193894D-02
  0.13116177D-02  0.78749355D-03 -0.51788889D-03  0.64239969D-01 -0.67959499D-03
 -0.55634718D-03 -0.61988669D-02 -0.60623564D-02 -0.40056552D-02 -0.16089715D-16
 -0.15735390D-16 -0.10397038D-16 -0.12502157D-02 -0.12226837D-02 -0.80787881D-03
  0.91216848D-03  0.22995073D-17  0.17803240D-03  0.97404359D-03 -0.11774035D-17
  0.15747510D-03  0.56181571D-04  0.13694163D-19  0.82402643D-05 -0.13993743D-02
  0.74723547D-03  0.65213878D-03 -0.22394539D-16 -0.60067670D-03 -0.62959087D-17
 -0.60033692D-03  0.32507013D-03  0.27526679D-03  0.17256725D-17 -0.30292332D-03
  0.69526317D-18 -0.21060440D-03  0.10463180D-03  0.10597260D-03  0.61264565D-18
 -0.10063060D-03 -0.88605425D-19 -0.21201464D-03  0.34889211D-17  0.61492044D-04
  0.27678244D-03  0.81452094D-17 -0.14839077D-03  0.35926148D-03 -0.18611973D-16
 -0.36085364D-04 -0.59829802D-17  0.31544245D-03 -0.58467841D-18 -0.76814001D-04
 -0.48705821D-03 -0.17773870D-17  0.28446714D-03 -0.45926913D-03  0.35314223D-17
 -0.54025136D-04  0.10715270D-17
MO    2     MO 0.0        OCC NO =    2.0000000  ORB. ENERGY =  -19.067883
  0.16123763D-03  0.29079870D-03  0.42878251D-03 -0.13704982D-03 -0.17418518D-03
  0.48561728D-05 -0.52176504D-04  0.76507450D-17 -0.76491156D-03 -0.57259859D-04
 -0.61127101D-18 -0.77171651D-03 -0.29475023D-04 -0.25001369D-19 -0.85284854D-04
  0.10980750D-02  0.99703947D-03 -0.20951145D-02 -0.63978865D-21 -0.14224847D-03
 -0.12797531D-17  0.24287326D-04  0.48679864D-04 -0.72967190D-04  0.65905386D-21
 -0.40629369D-04 -0.13483556D-18  0.49769303D+00  0.92763577D+00  0.15729629D+01
  0.23807526D+01  0.29704842D+01  0.25512497D+01  0.97947438D+00 -0.43812490D-02
 -0.35178889D-03 -0.65978879D-03 -0.11247952D-02 -0.17578360D-02 -0.23505617D-02
 -0.25098519D-02 -0.15344742D-02  0.10123529D-02  0.53358026D-01 -0.89711968D-03
 -0.40492731D-03  0.76772104D-02  0.74443116D-02  0.50218886D-02 -0.23183282D-16
 -0.22479985D-16 -0.15164865D-16 -0.54846351D-02 -0.53182511D-02 -0.35876608D-02
 -0.14339074D-02  0.22452121D-17 -0.94656177D-03 -0.10200233D-02 -0.18724172D-19
  0.45756782D-04 -0.39123287D-04  0.14560121D-19  0.66073808D-05 -0.14308438D-02
 -0.28744259D-03  0.17182864D-02  0.16410074D-16 -0.53145597D-04  0.71016137D-17
 -0.88709874D-03  0.37229439D-03  0.51480435D-03 -0.59544873D-18 -0.34883766D-03
 -0.11104607D-17 -0.13918798D-03  0.15766205D-03 -0.18474068D-04 -0.15691341D-19
 -0.84139768D-04 -0.99540228D-19 -0.16225648D-03 -0.64464829D-18 -0.11372853D-02
  0.29883995D-03  0.30328130D-17  0.18817977D-02  0.18792948D-03 -0.10988681D-17
  0.15300584D-02  0.12391939D-17 -0.22450737D-03 -0.43047496D-19  0.25792233D-03
  0.34594484D-03 -0.27169438D-18 -0.49451846D-03  0.32757727D-03  0.40083687D-18
 -0.27924852D-03 -0.90091887D-19 -0.33537983D-03 -0.62516252D-03 -0.10598042D-02
 -0.16048559D-02 -0.20068779D-02 -0.17277349D-02 -0.66420438D-03  0.28781063D-05
  0.23775954D-03  0.44647030D-03  0.76026192D-03  0.11909458D-02  0.15960075D-02
  0.17167212D-02  0.10307172D-02 -0.67784298D-03 -0.19068977D-03  0.17896021D-02
  0.62611227D-03  0.13444121D-02  0.13148057D-02  0.86874771D-03  0.12452099D-19
  0.12177881D-19  0.80464408D-20  0.77851749D-04  0.76137310D-04  0.50307140D-04
 -0.88052989D-03 -0.61205014D-20  0.22915932D-06 -0.13088763D-02  0.94189776D-19
 -0.23998590D-03 -0.58355078D-04 -0.42992918D-20 -0.18136816D-04 -0.10250099D-02
  0.54478889D-03  0.48022101D-03 -0.14876276D-18 -0.49404909D-03  0.82018732D-19
  0.10070794D-02 -0.50865494D-03 -0.49842448D-03 -0.30763353D-19  0.33766044D-03
 -0.36277539D-19  0.22586237D-03 -0.13639861D-03 -0.89463756D-04 -0.69243845D-19
  0.14090239D-03  0.10343270D-19 -0.93229003D-03 -0.10737816D-18  0.14135898D-03
  0.12593105D-02  0.25061657D-18 -0.36950577D-03  0.15375596D-02  0.71517907D-19
 -0.54571178D-04  0.21956203D-18 -0.98486970D-04  0.28358963D-19  0.26097513D-04
  0.21723309D-03 -0.68581418D-19 -0.18705241D-03  0.78227819D-04 -0.16495472D-19
  0.10875987D-03 -0.84816655D-19
MO    3     MO 0.0        OCC NO =    2.0000000  ORB. ENERGY =   -1.220671
  0.89968441D-02  0.16226179D-01  0.23925491D-01  0.38597967D-02 -0.37432337D-02
 -0.75561871D-04  0.38538439D-02 -0.20032367D-15  0.11479509D-01  0.15493546D-02
  0.55256237D-16  0.46527051D-03 -0.65933131D-04 -0.11131629D-16 -0.70330134D-03
 -0.96815647D-03 -0.44141479D-03  0.14095713D-02 -0.62343231D-16  0.23224956D-02
  0.52236618D-16 -0.21436178D-03 -0.62057659D-04  0.27641944D-03 -0.19545198D-16
  0.23525858D-03 -0.39120201D-16 -0.38755446D-02 -0.72235164D-02 -0.12248690D-01
 -0.18538963D-01 -0.23131214D-01 -0.19866628D-01 -0.76271846D-02  0.34116865D-04
 -0.46589659D-01 -0.87380060D-01 -0.14896385D+00 -0.23280150D+00 -0.31129996D+00
 -0.33239578D+00 -0.20322026D+00  0.13407239D+00  0.71355381D-01  0.27836228D-01
  0.18809264D-02  0.25333681D+00  0.24565149D+00  0.16571504D+00  0.39867211D-15
  0.38657784D-15  0.26078313D-15 -0.51471331D-01 -0.49909877D-01 -0.33668908D-01
  0.63588989D-01  0.35269562D-16 -0.13062142D-01 -0.74572145D-03  0.88587377D-16
 -0.41665163D-02 -0.57456221D-04 -0.30958863D-18 -0.18475744D-03  0.27929994D-01
 -0.21673484D-01 -0.62565107D-02 -0.40388902D-16  0.98431339D-02 -0.62868724D-16
  0.85760030D-02 -0.71688258D-02 -0.14071771D-02 -0.34867164D-16  0.19223117D-02
 -0.70942071D-17 -0.85767762D-03  0.16507879D-03  0.69259883D-03  0.58430681D-17
 -0.26233537D-03 -0.46338954D-16  0.53437936D-02  0.14853230D-16 -0.30822191D-02
 -0.90476021D-02  0.34427919D-17  0.85122056D-02 -0.69837788D-02 -0.48002481D-16
  0.73445177D-03  0.84231257D-16  0.94015931D-03 -0.57531790D-17 -0.20427818D-03
 -0.13043996D-02 -0.34870779D-17  0.78428746D-04 -0.15160783D-02  0.20746615D-16
  0.53440580D-03 -0.74794200D-17 -0.70122036D-02 -0.13071051D-01 -0.22158646D-01
 -0.33554720D-01 -0.41960295D-01 -0.36123905D-01 -0.13887348D-01  0.60176152D-04
 -0.10942656D+00 -0.20548370D+00 -0.34990330D+00 -0.54812145D+00 -0.73454722D+00
 -0.79010458D+00 -0.47437775D+00  0.31197077D+00  0.18582369D+00  0.90278496D-01
  0.13162384D-02 -0.32170134D+00 -0.31461688D+00 -0.20788067D+00 -0.29627241D-15
 -0.28974794D-15 -0.19144872D-15 -0.66508201D-01 -0.65043568D-01 -0.42977036D-01
 -0.81723062D-01 -0.74826429D-16 -0.16565159D-01 -0.96910776D-02 -0.16969193D-16
 -0.22690223D-02  0.14414671D-03 -0.13834904D-17 -0.15074608D-04  0.31564646D-01
 -0.16870672D-01 -0.14693973D-01 -0.41031310D-18  0.17128661D-01  0.11528898D-15
  0.16508733D-01 -0.90832268D-02 -0.74255063D-02  0.53310547D-16  0.88853620D-02
 -0.14793174D-16  0.67219770D-03 -0.50676152D-03 -0.16543618D-03  0.44650528D-17
  0.45078756D-03  0.24275982D-17 -0.35538958D-02  0.14682305D-16  0.12347717D-02
  0.52175309D-02  0.21282030D-16 -0.44415934D-02  0.54441564D-02 -0.65328946D-16
  0.73727821D-03 -0.18352029D-16 -0.23737832D-02 -0.94678668D-18  0.47101197D-03
  0.45945302D-02 -0.20173291D-16 -0.23797040D-02  0.25268193D-02  0.23013651D-16
  0.96666808D-03  0.91433206D-17
MO    4     MO 0.0        OCC NO =    2.0000000  ORB. ENERGY =   -0.943301
  0.25072190D-01  0.45218727D-01  0.66674987D-01  0.26638189D-01 -0.30434139D-02
 -0.11138381D-03 -0.68909650D-03  0.72689155D-16  0.30589487D-01 -0.62434708D-03
  0.11957014D-16  0.42910561D-02 -0.60902111D-04 -0.34155762D-17 -0.77921964D-03
 -0.30313595D-02 -0.35604843D-02  0.65918438D-02  0.10067418D-15 -0.20611247D-03
  0.17526701D-16 -0.16726998D-03 -0.11448127D-05  0.16841479D-03  0.11974801D-16
  0.22089103D-03 -0.18358783D-16 -0.58045126D-02 -0.10818865D-01 -0.18345210D-01
 -0.27766329D-01 -0.34644272D-01 -0.29754809D-01 -0.11423450D-01  0.51097792D-04
 -0.87004577D-01 -0.16317924D+00 -0.27818483D+00 -0.43474874D+00 -0.58134191D+00
 -0.62073762D+00 -0.37950681D+00  0.25037554D+00  0.14123546D+00  0.74441996D-01
  0.42511775D-02 -0.64901753D-01 -0.62932869D-01 -0.42454142D-01 -0.63773679D-15
 -0.61839016D-15 -0.41716235D-15 -0.32363064D+00 -0.31381286D+00 -0.21169630D+00
 -0.71089293D-02 -0.17948307D-15 -0.75483688D-01  0.20767393D-02 -0.63687269D-17
 -0.58492174D-02  0.10438096D-03  0.19794713D-17 -0.15294879D-03 -0.23300463D-01
 -0.10494230D-01  0.33794693D-01  0.16332853D-16 -0.65326705D-02  0.57327175D-16
 -0.50176704D-03 -0.61216948D-02  0.66234618D-02 -0.18912193D-16  0.10066892D-02
 -0.20256781D-16  0.36905812D-03 -0.13008645D-03 -0.23897167D-03 -0.32311399D-18
 -0.11567975D-03  0.20897706D-17 -0.25545936D-02  0.75931775D-17 -0.37226533D-02
  0.55554154D-02 -0.62375908D-17  0.52658182D-02  0.21083654D-02 -0.16541942D-16
  0.59021417D-02 -0.79130742D-17  0.56567950D-03  0.32782427D-17 -0.36874534D-03
 -0.10598852D-02  0.11047777D-17  0.77529695D-03 -0.63715327D-03 -0.10939506D-16
  0.33093908D-03 -0.89826157D-17  0.30953397D-02  0.57698473D-02  0.97813097D-02
  0.14811786D-01  0.18522190D-01  0.15945880D-01  0.61301785D-02 -0.26563067D-04
  0.70360916D-01  0.13212534D+00  0.22498667D+00  0.35244028D+00  0.47231144D+00
  0.50803464D+00  0.30502333D+00 -0.20059617D+00 -0.12451803D+00 -0.71993025D-01
 -0.35079425D-02 -0.33534200D+00 -0.32795715D+00 -0.21669516D+00  0.29491798D-15
  0.28842334D-15  0.19057349D-15 -0.80227673D-01 -0.78460912D-01 -0.51842442D-01
 -0.72216909D-01  0.64793757D-16 -0.17721744D-01 -0.19746843D-02  0.10831537D-16
 -0.48105893D-03  0.19475355D-03  0.19478143D-17  0.17573694D-04  0.24754163D-01
 -0.13917115D-01 -0.10837048D-01  0.11933739D-16  0.18426037D-01 -0.11640035D-15
  0.14485816D-02 -0.64976509D-03 -0.79881652D-03 -0.20094388D-16  0.35901188D-02
  0.26021643D-16 -0.22366416D-03  0.82653995D-04  0.14101016D-03 -0.31222368D-17
 -0.23949093D-03 -0.32108229D-17 -0.58564712D-02  0.54009574D-17  0.18872981D-02
  0.10582029D-01 -0.52008223D-16 -0.77657166D-02  0.69873843D-02  0.35805351D-16
  0.21038224D-02  0.86676665D-17  0.43451214D-03 -0.21026228D-17  0.95054903D-04
 -0.86743287D-03  0.14587604D-16 -0.35439563D-03 -0.43610355D-03 -0.82797358D-17
  0.69230926D-04 -0.14750458D-16
MO    5     MO 0.0        OCC NO =    2.0000000  ORB. ENERGY =   -0.541531
  0.30437375D-01  0.54895060D-01  0.80942734D-01  0.67727064D-01  0.52555564D-02
  0.10553721D-04 -0.92542979D-02  0.67989796D-16  0.23506589D-01 -0.30426849D-02
 -0.95757974D-16  0.12661696D-01 -0.10169503D-03  0.38667240D-16 -0.27994106D-03
 -0.33292708D-02 -0.55376398D-02  0.88669106D-02 -0.35153557D-16 -0.78980742D-02
 -0.33292377D-15 -0.10905925D-03  0.27761029D-03 -0.16855104D-03  0.24730024D-16
 -0.82601376D-03  0.42107341D-16 -0.12077901D-02 -0.22511654D-02 -0.38172306D-02
 -0.57775563D-02 -0.72087034D-02 -0.61913149D-02 -0.23769662D-02  0.10632315D-04
  0.10210259D-01  0.19149594D-01  0.32645860D-01  0.51019125D-01  0.68222291D-01
  0.72845502D-01  0.44536311D-01 -0.29382353D-01 -0.14684701D-01 -0.23711996D-01
 -0.12144731D-02 -0.67303776D+00 -0.65262023D+00 -0.44025375D+00 -0.46657576D-14
 -0.45242154D-14 -0.30520090D-14 -0.10241924D+01 -0.99312209D+00 -0.66995430D+00
 -0.16373617D+00 -0.96672299D-15 -0.22864072D+00 -0.15858651D-01 -0.26719582D-15
 -0.16422050D-01 -0.10507344D-03 -0.10296937D-16 -0.16997657D-03 -0.51906805D-01
 -0.55649328D-02  0.57471738D-01 -0.17193496D-15 -0.25004948D-01  0.34022718D-15
 -0.14142929D-01  0.35375860D-02  0.10605344D-01 -0.37198491D-17 -0.13110516D-01
  0.13636815D-15  0.39286281D-05  0.78724733D-03 -0.79117596D-03 -0.11349027D-16
  0.65607990D-03  0.98127039D-16 -0.27550771D-02  0.86663008D-17 -0.97592979D-03
  0.75501385D-02 -0.10052455D-15 -0.10689753D-01  0.71509290D-03  0.74525649D-16
  0.13617543D-01 -0.18347565D-16 -0.16710179D-02  0.15342263D-16  0.63809847D-03
  0.22521445D-02 -0.22641976D-17 -0.21694403D-02  0.27609091D-02 -0.43762590D-16
  0.25514489D-03  0.79250590D-17 -0.68717333D-03 -0.12809209D-02 -0.21714758D-02
 -0.32882543D-02 -0.41119735D-02 -0.35400262D-02 -0.13609153D-02  0.58970688D-05
 -0.22464587D-01 -0.42184515D-01 -0.71832954D-01 -0.11252590D+00 -0.15079794D+00
 -0.16220352D+00 -0.97386779D-01  0.64045643D-01  0.41642185D-01  0.32623693D-01
  0.30404718D-02  0.15739621D+01  0.15393005D+01  0.10170810D+01 -0.37324634D-14
 -0.36502676D-14 -0.24118862D-14 -0.36504589D+00 -0.35700691D+00 -0.23588956D+00
  0.35736499D+00 -0.83472143D-15 -0.81342511D-01  0.45175945D-01 -0.10873345D-15
 -0.13706416D-01  0.33054928D-03 -0.43103798D-17 -0.92025159D-04 -0.48674210D-01
  0.20824660D-01  0.27849550D-01  0.17124845D-15  0.16078659D-01  0.11375324D-15
 -0.14275568D-01  0.58942226D-02  0.83813458D-02  0.67440615D-16  0.93078963D-02
  0.22421159D-16 -0.24251605D-02  0.90093341D-03  0.15242271D-02 -0.42040325D-17
  0.94240039D-03 -0.87544836D-18  0.11504349D-01  0.78015779D-17  0.35334991D-03
 -0.15246603D-01 -0.41204353D-16 -0.25504013D-02 -0.19266442D-01  0.17799620D-16
  0.14903516D-02 -0.10364912D-15  0.28504731D-02  0.65245949D-17  0.27803588D-03
 -0.41792345D-02 -0.65338842D-17 -0.12059534D-02 -0.43721849D-02 -0.13039900D-16
  0.37184575D-03  0.54665429D-17
MO    6     MO 0.0        OCC NO =    2.0000000  ORB. ENERGY =   -0.468054
 -0.14873236D-01 -0.26824494D-01 -0.39552701D-01 -0.50583813D-01 -0.53876200D-02
 -0.17022214D-04 -0.15368491D-01 -0.63037467D-16 -0.10228956D-01 -0.55073564D-02
  0.45208446D-16 -0.13744050D-01 -0.18273656D-03  0.31201851D-16 -0.47587156D-04
  0.27694927D-02  0.38729181D-02 -0.66424108D-02  0.52374568D-16 -0.64588928D-02
 -0.17929997D-15  0.82203820D-03 -0.43973597D-03 -0.38230224D-03  0.22735397D-16
 -0.37374958D-03  0.11282985D-15 -0.48912031D-03 -0.91165733D-03 -0.15458688D-02
 -0.23397444D-02 -0.29193178D-02 -0.25073047D-02 -0.96260303D-03  0.43057824D-05
 -0.32821829D-01 -0.61558154D-01 -0.10494316D+00 -0.16400573D+00 -0.21930691D+00
 -0.23416865D+00 -0.14316612D+00  0.94452311D-01  0.55453217D-01  0.71308771D-01
  0.68665084D-02 -0.89069167D+00 -0.86367131D+00 -0.58262756D+00 -0.39532175D-14
 -0.38332912D-14 -0.25859156D-14  0.77921999D+00  0.75558127D+00  0.50971066D+00
 -0.20949961D+00 -0.65267666D-15  0.16772901D+00 -0.22526739D-01 -0.10694631D-15
  0.11887506D-01 -0.26769244D-04  0.21863577D-19  0.12483934D-03 -0.19954923D-01
  0.26479144D-01 -0.65242210D-02  0.41316255D-16  0.49854772D-01 -0.94652254D-16
 -0.79709909D-02  0.24364370D-02  0.55345538D-02  0.24034874D-16  0.25024820D-01
  0.47105721D-16 -0.12109025D-02 -0.19192181D-03  0.14028244D-02 -0.10599156D-16
 -0.16125144D-03  0.31629528D-16 -0.66879050D-02  0.13774560D-16 -0.56073247D-03
  0.12829905D-01  0.55103852D-17  0.10891322D-01  0.72338099D-02 -0.46834064D-16
 -0.92091244D-02 -0.81525886D-16 -0.62233535D-03  0.12531190D-16 -0.11951742D-02
  0.16981922D-02  0.50946654D-17  0.39151204D-02  0.16881389D-03 -0.42688235D-16
 -0.32959783D-03 -0.28174039D-16  0.23847351D-03  0.44452496D-03  0.75357909D-03
  0.11411408D-02  0.14270006D-02  0.12285146D-02  0.47228586D-03 -0.20464920D-05
 -0.99536257D-02 -0.18691146D-01 -0.31827798D-01 -0.49858058D-01 -0.66815663D-01
 -0.71869254D-01 -0.43150206D-01  0.28377391D-01  0.18202432D-01  0.11278235D-01
 -0.26088363D-02  0.99233895D+00  0.97048582D+00  0.64124101D+00  0.82532155D-15
  0.80714645D-15  0.53331578D-15  0.14132303D+01  0.13821084D+01  0.91321743D+00
  0.22831469D+00  0.20809812D-15  0.31622734D+00  0.35749952D-01  0.41517910D-16
  0.48584945D-01  0.84316651D-03  0.21824845D-17  0.82685759D-03 -0.12575586D-01
  0.13069812D-01 -0.49422654D-03 -0.10030959D-17 -0.66617175D-01 -0.15786178D-15
 -0.46393589D-02  0.44993054D-02  0.14005348D-03 -0.16898713D-16 -0.24486612D-01
 -0.91779008D-17 -0.21962971D-02  0.19246574D-02  0.27163963D-03 -0.13921825D-16
 -0.47108102D-02 -0.13786643D-16  0.27108072D-02 -0.22226243D-17 -0.60648122D-02
 -0.84954365D-02 -0.30957976D-16  0.24650354D-01  0.36301487D-03  0.37625849D-16
 -0.64559176D-02  0.61716831D-17  0.95929727D-03 -0.46993334D-17 -0.13182232D-02
 -0.32921633D-02  0.18786572D-16  0.64050054D-02  0.41427150D-03 -0.46885716D-17
 -0.24503359D-02  0.36582681D-16
MO    7     MO 0.0        OCC NO =    2.0000000  ORB. ENERGY =   -0.433073
  0.16231135D-15  0.29273520D-15  0.43163789D-15 -0.57220279D-16  0.90279579D-16
  0.38131904D-16  0.19625832D-15  0.15690597D-01  0.16007950D-15 -0.93866843D-16
  0.77261784D-02 -0.44693691D-15  0.12504152D-15  0.54310917D-03  0.28383968D-16
  0.12055915D-15  0.81194016D-16 -0.20175317D-15 -0.20101029D-03  0.28882272D-16
  0.97888731D-02  0.41022733D-16  0.18283917D-16 -0.59306649D-16  0.55604279D-03
  0.48069137D-16  0.12219802D-02  0.10557086D-15  0.19677049D-15  0.33365756D-15
  0.50500625D-15  0.63010036D-15  0.54117217D-15  0.20776652D-15 -0.92935240D-18
  0.18915137D-16  0.35475809D-16  0.60478477D-16  0.94516087D-16  0.12638602D-15
  0.13495080D-15  0.82506274D-16 -0.54432628D-16 -0.20971418D-15 -0.19289735D-15
 -0.36922170D-15 -0.74366105D-15 -0.72110106D-15 -0.48645052D-15  0.99040705D+00
  0.96036168D+00  0.64785432D+00 -0.45175236D-14 -0.43804783D-14 -0.29550448D-14
 -0.53547035D-15  0.23261571D+00 -0.15904373D-14 -0.33398835D-15  0.30988768D-01
 -0.32237947D-15 -0.33870445D-16  0.34601824D-03 -0.22486752D-16 -0.71206637D-16
 -0.17561590D-15  0.24682253D-15  0.64402602D-01 -0.14423229D-15 -0.26785231D-01
 -0.28611973D-15 -0.22858224D-16  0.30897796D-15  0.25437707D-01  0.23586493D-16
 -0.52373794D-02  0.32253145D-16  0.44099703D-17 -0.36663115D-16 -0.38323001D-03
  0.24703772D-16 -0.56114031D-03 -0.90885634D-16 -0.12032463D-01 -0.20104222D-15
  0.87642724D-16  0.30823443D-01  0.58514777D-15  0.18501418D-15  0.52739476D-02
  0.17978874D-16  0.11189462D-01  0.11603396D-15 -0.74057103D-03  0.28024088D-16
 -0.80442621D-16  0.32241171D-02 -0.12059627D-15 -0.26765927D-15 -0.10024040D-02
  0.36524011D-16 -0.13195743D-03 -0.73379509D-16 -0.13678258D-15 -0.23188011D-15
 -0.35113482D-15 -0.43909532D-15 -0.37802017D-15 -0.14532476D-15  0.62971595D-18
  0.21338503D-16  0.40069930D-16  0.68232180D-16  0.10688531D-15  0.14323888D-15
  0.15407273D-15  0.92505066D-16 -0.60835223D-16  0.13330559D-16  0.15990144D-15
  0.35305080D-15  0.28185785D-14  0.27565082D-14  0.18213415D-14  0.21231036D+01
  0.20763490D+01  0.13719315D+01  0.47719956D-14  0.46669075D-14  0.30836231D-14
  0.96424016D-15  0.47464196D+00  0.13404525D-14 -0.27525898D-15  0.70858266D-01
  0.34905265D-15 -0.65557080D-16  0.12554411D-02  0.30201658D-16 -0.31335113D-15
  0.25184016D-16  0.28816712D-15 -0.73766314D-01  0.81671604D-15 -0.14984383D-01
 -0.23479076D-15  0.27860800D-15 -0.43817245D-16 -0.30755443D-01  0.74393133D-16
 -0.60527156D-02  0.20151597D-15 -0.81194415D-16 -0.12032155D-15 -0.28984865D-02
 -0.42991761D-16 -0.12390527D-02  0.22062304D-15 -0.71780424D-02  0.26342767D-15
  0.11101813D-14  0.29087047D-01  0.13795426D-15 -0.17720504D-14 -0.75529196D-02
 -0.92823726D-15  0.10506667D-01 -0.23246006D-15 -0.26056801D-02 -0.50725689D-16
  0.24847574D-15  0.86322927D-02  0.43248626D-16  0.44890442D-15 -0.81525237D-03
  0.10892844D-15  0.44016430D-02
MO    8     MO 0.0        OCC NO =    2.0000000  ORB. ENERGY =   -0.344039
  0.23336638D-01  0.42088588D-01  0.62059599D-01  0.47828132D-01  0.69844835D-02
  0.94471979D-04  0.22782160D-02 -0.60719358D-16  0.12756680D-01  0.14483673D-02
 -0.18148151D-16  0.77040738D-02 -0.22653525D-03 -0.16015767D-16 -0.38489487D-03
 -0.28349048D-02 -0.36951239D-02  0.65300287D-02 -0.11970552D-15  0.42580633D-02
  0.51451025D-16  0.30618513D-03 -0.41147386D-03  0.10528873D-03 -0.39379674D-16
  0.84746819D-03  0.14740334D-15 -0.27899383D-03 -0.52000860D-03 -0.88176229D-03
 -0.13345883D-02 -0.16651765D-02 -0.14301646D-02 -0.54906798D-03  0.24560148D-05
  0.21730765D-01  0.40756589D-01  0.69481049D-01  0.10858535D+00  0.14519931D+00
  0.15503901D+00  0.94787811D-01 -0.62535240D-01 -0.37177326D-01 -0.46294189D-01
 -0.55811621D-02  0.37289447D+00  0.36158220D+00  0.24392122D+00 -0.46282768D-15
 -0.44878716D-15 -0.30274917D-15 -0.85033673D+00 -0.82454059D+00 -0.55623021D+00
  0.86515306D-01 -0.12437206D-15 -0.18626634D+00  0.76319115D-02 -0.49870126D-16
 -0.27501682D-01  0.21779839D-03  0.27576690D-16 -0.66300283D-03 -0.13114381D-01
 -0.21971698D-01  0.35086080D-01 -0.19950470D-15  0.16258830D-01  0.68039669D-16
 -0.50721799D-02 -0.29448973D-02  0.80170771D-02 -0.14449353D-15  0.10044612D-01
  0.18364444D-15 -0.11610750D-02  0.29692305D-03  0.86415193D-03  0.19522726D-16
 -0.12093931D-02  0.22058253D-16  0.10156411D-02  0.29271468D-16 -0.65587016D-02
 -0.51472462D-02 -0.95725408D-16  0.14121111D-01  0.21003228D-02  0.79110035D-17
  0.55549939D-02  0.12728758D-15 -0.17096403D-03  0.99838086D-17 -0.89074851D-03
  0.81535215D-03 -0.30681014D-17  0.22242328D-02 -0.30246005D-03 -0.26883324D-16
  0.44801270D-03 -0.62275774D-17  0.14048665D-04  0.26187320D-04  0.44393946D-04
  0.67225518D-04  0.84065747D-04  0.72372777D-04  0.27822738D-04 -0.12056048D-06
 -0.14188363D-02 -0.26643233D-02 -0.45368831D-02 -0.71070006D-02 -0.95242169D-02
 -0.10244579D-01 -0.61508320D-02  0.40450459D-02  0.26836509D-02  0.69491829D-02
  0.17378841D-02 -0.61341654D+00 -0.59990797D+00 -0.39638456D+00 -0.96410776D-14
 -0.94287633D-14 -0.62299826D-14  0.22452800D+01  0.21958348D+01  0.14508809D+01
 -0.13954725D+00 -0.21411000D-14  0.49604392D+00 -0.25690913D-01 -0.32272791D-15
  0.81565047D-01 -0.85105518D-03 -0.79837071D-17  0.23369800D-02  0.58898017D-02
  0.72628734D-05 -0.58970645D-02  0.19774985D-15 -0.20004586D-01 -0.58098281D-16
  0.22434047D-02 -0.80006906D-03 -0.14433356D-02  0.87077959D-16 -0.30070505D-02
 -0.11864107D-16  0.16576523D-02 -0.20691636D-04 -0.16369606D-02  0.11021627D-16
 -0.25497007D-02 -0.39129459D-17 -0.29867579D-02  0.19618238D-16 -0.38752469D-02
  0.40234570D-02 -0.13189792D-15  0.12871735D-01  0.49368168D-02  0.73043211D-16
 -0.12459941D-02  0.90817317D-16 -0.11235415D-02  0.12583364D-16 -0.36931032D-03
  0.89886192D-04 -0.29195106D-16  0.35558760D-02  0.32807382D-02 -0.85549868D-17
 -0.24479450D-02 -0.13548115D-16
MO    9     MO 0.0        OCC NO =    2.0000000  ORB. ENERGY =   -0.278242
 -0.19563078D-16 -0.35282817D-16 -0.52024493D-16  0.22976968D-15  0.15661602D-15
  0.36951331D-16 -0.24515022D-15  0.25645019D-01  0.35279299D-15 -0.14243049D-16
  0.10755049D-01 -0.47937123D-17  0.20998227D-15  0.12060322D-02 -0.14867490D-16
 -0.27377887D-17 -0.10577717D-15  0.10851496D-15 -0.94414967D-04 -0.48781925D-15
  0.14026556D-01  0.17187325D-16  0.17883579D-16 -0.35070904D-16 -0.43929075D-03
  0.15161221D-15  0.16983785D-02 -0.10224895D-15 -0.19057889D-15 -0.32315866D-15
 -0.48911568D-15 -0.61027356D-15 -0.52414360D-15 -0.20122892D-15  0.90010931D-18
  0.12952261D-16  0.24292286D-16  0.41413022D-16  0.64720492D-16  0.86543630D-16
  0.92408420D-16  0.56496696D-16 -0.37273089D-16  0.34980354D-15  0.12924628D-15
 -0.22055341D-15 -0.42663420D-14 -0.41369166D-14 -0.27907395D-14  0.16022530D+01
  0.15536464D+01  0.10480807D+01  0.11567158D-14  0.11216252D-14  0.75664173D-15
 -0.66657148D-15  0.37144056D+00  0.39193304D-15 -0.52359795D-15  0.61870798D-01
 -0.52811381D-16 -0.46433518D-16  0.18915749D-02  0.15862246D-16  0.61076158D-15
 -0.27149801D-15 -0.33926357D-15  0.88813951D-02  0.26389446D-15 -0.56585127D-01
 -0.44804102D-16 -0.78945804D-17  0.52698682D-16 -0.11915513D-02 -0.40919609D-15
 -0.16037026D-01 -0.14929833D-16  0.45510219D-16 -0.30580386D-16  0.53310768D-03
 -0.12835580D-15 -0.11443381D-02 -0.11690751D-15 -0.88443160D-02  0.48515154D-16
  0.22195553D-17  0.85275971D-02 -0.15376021D-15  0.34850298D-15  0.18005351D-01
  0.82147530D-17  0.57284365D-02 -0.16875258D-16 -0.26345699D-03  0.43982831D-16
  0.11453142D-15  0.31595912D-03 -0.14120620D-15 -0.63905644D-16  0.47441186D-03