 Molden2AIM, Version 4.0.0 (06/02/2016)           Time: Sat Jun 30 06:20:14 2018
GAUSSIAN             11 MOL ORBITALS    252 PRIMITIVES        4 NUCLEI
  H    1    (CENTRE  1)   1.65684195 -2.62112761  0.00000000  CHARGE =  1.0
  O    2    (CENTRE  2)  -0.08382447 -2.04867288  0.00000000  CHARGE =  8.0
  N    3    (CENTRE  3)   0.02457778  0.44175561  0.00000000  CHARGE =  7.0
  C    4    (CENTRE  4)  -0.18662368  2.66047738  0.00000000  CHARGE =  6.0
CENTRE ASSIGNMENTS    1  1  1  1  1  1  1  1  1  1  1  1  1  1  1  1  1  1  1  1
CENTRE ASSIGNMENTS    1  1  1  1  1  1  1  2  2  2  2  2  2  2  2  2  2  2  2  2
CENTRE ASSIGNMENTS    2  2  2  2  2  2  2  2  2  2  2  2  2  2  2  2  2  2  2  2
CENTRE ASSIGNMENTS    2  2  2  2  2  2  2  2  2  2  2  2  2  2  2  2  2  2  2  2
CENTRE ASSIGNMENTS    2  2  2  2  2  2  2  2  2  2  2  2  2  2  2  2  2  2  2  2
CENTRE ASSIGNMENTS    2  2  3  3  3  3  3  3  3  3  3  3  3  3  3  3  3  3  3  3
CENTRE ASSIGNMENTS    3  3  3  3  3  3  3  3  3  3  3  3  3  3  3  3  3  3  3  3
CENTRE ASSIGNMENTS    3  3  3  3  3  3  3  3  3  3  3  3  3  3  3  3  3  3  3  3
CENTRE ASSIGNMENTS    3  3  3  3  3  3  3  3  3  3  3  3  3  3  3  3  3  4  4  4
CENTRE ASSIGNMENTS    4  4  4  4  4  4  4  4  4  4  4  4  4  4  4  4  4  4  4  4
CENTRE ASSIGNMENTS    4  4  4  4  4  4  4  4  4  4  4  4  4  4  4  4  4  4  4  4
CENTRE ASSIGNMENTS    4  4  4  4  4  4  4  4  4  4  4  4  4  4  4  4  4  4  4  4
CENTRE ASSIGNMENTS    4  4  4  4  4  4  4  4  4  4  4  4
TYPE ASSIGNMENTS      1  1  1  1  1  1  2  3  4  2  3  4  2  3  4  5  6  7  8  9
TYPE ASSIGNMENTS     10  5  6  7  8  9 10  1  1  1  1  1  1  1  1  1  1  1  1  1
TYPE ASSIGNMENTS      1  1  1  1  1  1  2  2  2  3  3  3  4  4  4  2  3  4  2  3
TYPE ASSIGNMENTS      4  2  3  4  5  6  7  8  9 10  5  6  7  8  9 10  5  6  7  8
TYPE ASSIGNMENTS      9 10 11 12 13 17 14 15 18 19 16 20 11 12 13 17 14 15 18 19
TYPE ASSIGNMENTS     16 20  1  1  1  1  1  1  1  1  1  1  1  1  1  1  1  1  1  1
TYPE ASSIGNMENTS      1  2  2  2  3  3  3  4  4  4  2  3  4  2  3  4  2  3  4  5
TYPE ASSIGNMENTS      6  7  8  9 10  5  6  7  8  9 10  5  6  7  8  9 10 11 12 13
TYPE ASSIGNMENTS     17 14 15 18 19 16 20 11 12 13 17 14 15 18 19 16 20  1  1  1
TYPE ASSIGNMENTS      1  1  1  1  1  1  1  1  1  1  1  1  1  1  1  1  2  2  2  3
TYPE ASSIGNMENTS      3  3  4  4  4  2  3  4  2  3  4  2  3  4  5  6  7  8  9 10
TYPE ASSIGNMENTS      5  6  7  8  9 10  5  6  7  8  9 10 11 12 13 17 14 15 18 19
TYPE ASSIGNMENTS     16 20 11 12 13 17 14 15 18 19 16 20
EXPONENTS  0.3387000D+02 0.5095000D+01 0.1159000D+01 0.3258000D+00 0.1027000D+00
EXPONENTS  0.2526000D-01 0.1407000D+01 0.1407000D+01 0.1407000D+01 0.3880000D+00
EXPONENTS  0.3880000D+00 0.3880000D+00 0.1020000D+00 0.1020000D+00 0.1020000D+00
EXPONENTS  0.1057000D+01 0.1057000D+01 0.1057000D+01 0.1057000D+01 0.1057000D+01
EXPONENTS  0.1057000D+01 0.2470000D+00 0.2470000D+00 0.2470000D+00 0.2470000D+00
EXPONENTS  0.2470000D+00 0.2470000D+00 0.1533000D+05 0.2299000D+04 0.5224000D+03
EXPONENTS  0.1473000D+03 0.4755000D+02 0.1676000D+02 0.6207000D+01 0.6882000D+00
EXPONENTS  0.1533000D+05 0.2299000D+04 0.5224000D+03 0.1473000D+03 0.4755000D+02
EXPONENTS  0.1676000D+02 0.6207000D+01 0.6882000D+00 0.1752000D+01 0.2384000D+00
EXPONENTS  0.7376000D-01 0.3446000D+02 0.7749000D+01 0.2280000D+01 0.3446000D+02
EXPONENTS  0.7749000D+01 0.2280000D+01 0.3446000D+02 0.7749000D+01 0.2280000D+01
EXPONENTS  0.7156000D+00 0.7156000D+00 0.7156000D+00 0.2140000D+00 0.2140000D+00
EXPONENTS  0.2140000D+00 0.5974000D-01 0.5974000D-01 0.5974000D-01 0.2314000D+01
EXPONENTS  0.2314000D+01 0.2314000D+01 0.2314000D+01 0.2314000D+01 0.2314000D+01
EXPONENTS  0.6450000D+00 0.6450000D+00 0.6450000D+00 0.6450000D+00 0.6450000D+00
EXPONENTS  0.6450000D+00 0.2140000D+00 0.2140000D+00 0.2140000D+00 0.2140000D+00
EXPONENTS  0.2140000D+00 0.2140000D+00 0.1428000D+01 0.1428000D+01 0.1428000D+01
EXPONENTS  0.1428000D+01 0.1428000D+01 0.1428000D+01 0.1428000D+01 0.1428000D+01
EXPONENTS  0.1428000D+01 0.1428000D+01 0.5000000D+00 0.5000000D+00 0.5000000D+00
EXPONENTS  0.5000000D+00 0.5000000D+00 0.5000000D+00 0.5000000D+00 0.5000000D+00
EXPONENTS  0.5000000D+00 0.5000000D+00 0.1142000D+05 0.1712000D+04 0.3893000D+03
EXPONENTS  0.1100000D+03 0.3557000D+02 0.1254000D+02 0.4644000D+01 0.5118000D+00
EXPONENTS  0.1142000D+05 0.1712000D+04 0.3893000D+03 0.1100000D+03 0.3557000D+02
EXPONENTS  0.1254000D+02 0.4644000D+01 0.5118000D+00 0.1293000D+01 0.1787000D+00
EXPONENTS  0.5760000D-01 0.2663000D+02 0.5948000D+01 0.1742000D+01 0.2663000D+02
EXPONENTS  0.5948000D+01 0.1742000D+01 0.2663000D+02 0.5948000D+01 0.1742000D+01
EXPONENTS  0.5550000D+00 0.5550000D+00 0.5550000D+00 0.1725000D+00 0.1725000D+00
EXPONENTS  0.1725000D+00 0.4910000D-01 0.4910000D-01 0.4910000D-01 0.1654000D+01
EXPONENTS  0.1654000D+01 0.1654000D+01 0.1654000D+01 0.1654000D+01 0.1654000D+01
EXPONENTS  0.4690000D+00 0.4690000D+00 0.4690000D+00 0.4690000D+00 0.4690000D+00
EXPONENTS  0.4690000D+00 0.1510000D+00 0.1510000D+00 0.1510000D+00 0.1510000D+00
EXPONENTS  0.1510000D+00 0.1510000D+00 0.1093000D+01 0.1093000D+01 0.1093000D+01
EXPONENTS  0.1093000D+01 0.1093000D+01 0.1093000D+01 0.1093000D+01 0.1093000D+01
EXPONENTS  0.1093000D+01 0.1093000D+01 0.3640000D+00 0.3640000D+00 0.3640000D+00
EXPONENTS  0.3640000D+00 0.3640000D+00 0.3640000D+00 0.3640000D+00 0.3640000D+00
EXPONENTS  0.3640000D+00 0.3640000D+00 0.8236000D+04 0.1235000D+04 0.2808000D+03
EXPONENTS  0.7927000D+02 0.2559000D+02 0.8997000D+01 0.3319000D+01 0.3643000D+00
EXPONENTS  0.8236000D+04 0.1235000D+04 0.2808000D+03 0.7927000D+02 0.2559000D+02
EXPONENTS  0.8997000D+01 0.3319000D+01 0.3643000D+00 0.9059000D+00 0.1285000D+00
EXPONENTS  0.4402000D-01 0.1871000D+02 0.4133000D+01 0.1200000D+01 0.1871000D+02
EXPONENTS  0.4133000D+01 0.1200000D+01 0.1871000D+02 0.4133000D+01 0.1200000D+01
EXPONENTS  0.3827000D+00 0.3827000D+00 0.3827000D+00 0.1209000D+00 0.1209000D+00
EXPONENTS  0.1209000D+00 0.3569000D-01 0.3569000D-01 0.3569000D-01 0.1097000D+01
EXPONENTS  0.1097000D+01 0.1097000D+01 0.1097000D+01 0.1097000D+01 0.1097000D+01
EXPONENTS  0.3180000D+00 0.3180000D+00 0.3180000D+00 0.3180000D+00 0.3180000D+00
EXPONENTS  0.3180000D+00 0.1000000D+00 0.1000000D+00 0.1000000D+00 0.1000000D+00
EXPONENTS  0.1000000D+00 0.1000000D+00 0.7610000D+00 0.7610000D+00 0.7610000D+00
EXPONENTS  0.7610000D+00 0.7610000D+00 0.7610000D+00 0.7610000D+00 0.7610000D+00
EXPONENTS  0.7610000D+00 0.7610000D+00 0.2680000D+00 0.2680000D+00 0.2680000D+00
EXPONENTS  0.2680000D+00 0.2680000D+00 0.2680000D+00 0.2680000D+00 0.2680000D+00
EXPONENTS  0.2680000D+00 0.2680000D+00
MO    1     MO 0.0        OCC NO =    2.0000000  ORB. ENERGY =  -19.087362
  0.16144705D-03  0.29117640D-03  0.42933943D-03 -0.38091829D-03 -0.72353835D-04
 -0.28694726D-04  0.80046692D-03 -0.47897304D-03 -0.10591024D-17  0.64801370D-03
 -0.28129015D-03 -0.39884708D-18  0.33177482D-04 -0.45861994D-04 -0.40942085D-21
 -0.17286324D-02  0.70379576D-03  0.10248366D-02  0.20114079D-02  0.11737167D-17
 -0.28939792D-18 -0.27651381D-04  0.11086403D-04  0.16564978D-04  0.84139667D-04
  0.21200027D-19 -0.36708703D-19  0.49805610D+00  0.92831249D+00  0.15741104D+01
  0.23824894D+01  0.29726512D+01  0.25531109D+01  0.98018892D+00 -0.43844452D-02
 -0.62464477D-03 -0.11715367D-02 -0.19972133D-02 -0.31212557D-02 -0.41737136D-02
 -0.44565530D-02 -0.27246491D-02  0.17975580D-02  0.53651068D-01 -0.14255178D-02
 -0.10947253D-02  0.66486570D-02  0.64469608D-02  0.43490817D-02  0.81460455D-02
  0.78989239D-02  0.53285674D-02 -0.17586520D-16 -0.17053009D-16 -0.11503859D-16
  0.52721162D-03 -0.19068219D-02  0.26855830D-17 -0.11704375D-03 -0.16638028D-02
 -0.75020276D-18 -0.62335805D-05 -0.95224626D-04  0.51893410D-20  0.75715755D-03
  0.36060117D-03 -0.11177587D-02 -0.14269826D-02 -0.45992931D-17  0.15871597D-16
  0.98031033D-03 -0.17181625D-02  0.73785215D-03 -0.37218873D-03  0.79274173D-18
 -0.62166170D-18  0.12903214D-03 -0.34906045D-03  0.22002831D-03  0.53344608D-04
  0.27248122D-19 -0.29305519D-18  0.88615886D-03  0.42182178D-04 -0.34300215D-18
 -0.12439032D-02 -0.13423171D-02 -0.21056450D-17 -0.14145733D-02  0.12157706D-02
  0.31346514D-17  0.15163235D-17 -0.97387806D-04 -0.49323070D-03 -0.15723379D-19
 -0.13158130D-04  0.10006220D-02  0.41500565D-18  0.30532155D-03  0.47907009D-03
 -0.36783552D-18 -0.25905299D-18  0.11952284D-03  0.22271321D-03  0.37666387D-03
  0.56723491D-03  0.70227362D-03  0.59760316D-03  0.22739903D-03 -0.10650067D-05
 -0.77325761D-04 -0.14498653D-03 -0.24666522D-03 -0.38304504D-03 -0.50832305D-03
 -0.53570271D-03 -0.33216986D-03  0.22095952D-03 -0.48985025D-03  0.27833839D-02
  0.87437789D-03 -0.16893968D-03 -0.16226454D-03 -0.11379110D-03  0.12601685D-02
  0.12103767D-02  0.84879972D-03 -0.18907541D-18 -0.18160467D-18 -0.12735373D-18
  0.10097577D-03 -0.43323923D-02  0.32715382D-18  0.13537556D-03  0.34186060D-03
  0.43873182D-18  0.75501086D-05 -0.62958232D-04 -0.17591524D-19 -0.32959892D-03
  0.60317281D-03 -0.27357389D-03  0.50466993D-03  0.91275997D-19 -0.42527777D-18
 -0.43527777D-03  0.86871569D-03 -0.43343792D-03  0.30949225D-03 -0.56355327D-19
  0.43952544D-19 -0.45811987D-04  0.10453249D-03 -0.58720498D-04  0.48837352D-04
 -0.81385436D-20 -0.24869446D-18  0.21952787D-04 -0.99822760D-03  0.23057779D-18
 -0.16835880D-04  0.14058034D-02  0.25860748D-18 -0.49022480D-04  0.15888794D-02
 -0.95034084D-18  0.54152793D-19 -0.39741048D-04  0.28935327D-03 -0.34206454D-19
  0.17177592D-03 -0.37120247D-03 -0.53922730D-19 -0.52552772D-04 -0.49685734D-03
  0.15654209D-18 -0.84387697D-20 -0.25166506D-03 -0.46916089D-03 -0.79296456D-03
 -0.11920855D-02 -0.14646147D-02 -0.12371013D-02 -0.46658909D-03  0.23091754D-05
  0.18397166D-03  0.34445300D-03  0.58646070D-03  0.90716554D-03  0.11947051D-02
  0.12413751D-02  0.78883816D-03 -0.52866099D-03 -0.92575004D-03 -0.64225206D-03
 -0.64728881D-04  0.39968085D-04  0.37472621D-04  0.26682738D-04  0.56824872D-03
  0.53276929D-03  0.37936348D-03  0.13141915D-19  0.12321381D-19  0.87735573D-20
 -0.41319347D-03 -0.58714418D-03 -0.87765404D-19 -0.11690165D-03  0.28683528D-04
  0.56128478D-19 -0.99261177D-06  0.10404715D-04  0.33281376D-20 -0.36844300D-03
  0.74529013D-03 -0.37684713D-03  0.97387051D-04 -0.15470819D-19 -0.19754602D-18
 -0.24885985D-03  0.39512279D-03 -0.14626294D-03  0.13538408D-03  0.13821984D-21
  0.17146526D-18 -0.66479112D-05  0.98012223D-05 -0.31533111D-05  0.16138521D-04
  0.34855974D-20  0.98900206D-20 -0.18879419D-04 -0.28360075D-03 -0.30758800D-19
  0.65371561D-04  0.48705590D-03 -0.33327515D-19 -0.87333048D-05  0.36374634D-03
  0.12560391D-18 -0.23071928D-19 -0.41224104D-05 -0.36717535D-04  0.18191846D-19
  0.67364612D-05  0.73632045D-04  0.22564564D-19  0.56307702D-05  0.36520559D-04
 -0.77140101D-19  0.63754920D-20
MO    2     MO 0.0        OCC NO =    2.0000000  ORB. ENERGY =  -14.257683
  0.11361875D-04  0.20491610D-04  0.30214866D-04  0.36321833D-03  0.48490663D-03
 -0.21429787D-04 -0.45805080D-04 -0.34793590D-03  0.29103299D-15 -0.23172957D-03
 -0.56321895D-03 -0.78749814D-16 -0.13115995D-03 -0.10266107D-03  0.52954010D-17
  0.31439793D-03 -0.38792082D-03  0.73522890D-04  0.59744715D-03  0.16852209D-16
 -0.52584643D-17  0.57305767D-04 -0.85105592D-04  0.27799826D-04  0.63314977D-04
 -0.12929691D-16  0.47189912D-17  0.12740093D-03  0.23745894D-03  0.40265168D-03
  0.60943207D-03  0.76039329D-03  0.65307642D-03  0.25072874D-03 -0.11215250D-05
 -0.91298418D-04 -0.17123245D-03 -0.29191378D-03 -0.45620442D-03 -0.61003223D-03
 -0.65137220D-03 -0.39823619D-03  0.26273205D-03 -0.41101960D-03  0.20667635D-03
 -0.92465847D-03  0.96422695D-04  0.93497579D-04  0.63072915D-04 -0.86056573D-03
 -0.83445928D-03 -0.56292130D-03 -0.86379798D-17 -0.83759348D-17 -0.56503561D-17
 -0.18885783D-03  0.15735721D-02 -0.21440539D-17 -0.15453013D-03  0.19699808D-03
 -0.25417577D-16 -0.64541431D-04  0.41769393D-04 -0.94691935D-18 -0.97528234D-03
  0.16653542D-02 -0.69007189D-03 -0.69037649D-04 -0.20562178D-16 -0.14734796D-18
 -0.78416047D-04  0.32519249D-03 -0.24677644D-03  0.21970122D-03  0.70742443D-17
  0.18729599D-18  0.39801521D-05 -0.34057470D-04  0.30077318D-04  0.19903365D-03
 -0.15824611D-16  0.31370652D-17  0.35560799D-04  0.45742782D-03 -0.69524408D-17
 -0.19518527D-04 -0.90444832D-03  0.38290099D-16 -0.87163870D-04 -0.46783513D-03
 -0.17432777D-16 -0.23369382D-16  0.69503708D-04 -0.18139753D-03  0.17226747D-17
 -0.17981221D-03  0.51042227D-03 -0.44704852D-17 -0.28698910D-04  0.33770318D-04
 -0.69753882D-18  0.23232562D-17  0.41299102D+00  0.76954795D+00  0.13014985D+01
  0.19599846D+01  0.24265881D+01  0.20649170D+01  0.78573900D+00 -0.36799510D-02
 -0.19656958D-02 -0.36856981D-02 -0.62704691D-02 -0.97373764D-02 -0.12922065D-01
 -0.13618083D-01 -0.84440799D-02  0.56170052D-02  0.42154739D-01  0.34974572D-02
 -0.30390308D-03 -0.41770577D-03 -0.40120140D-03 -0.28135011D-03 -0.62513807D-02
 -0.60043764D-02 -0.42106832D-02 -0.11623018D-17 -0.11163770D-17 -0.78288059D-18
 -0.51988269D-03  0.79129702D-02  0.29894855D-17  0.37130573D-03 -0.88636372D-03
  0.23881910D-17  0.75306421D-04 -0.24639027D-03  0.65252532D-19 -0.25673791D-02
  0.54346258D-02 -0.28672467D-02 -0.14814211D-02 -0.13418221D-16  0.14368370D-17
 -0.94286277D-04  0.97674682D-04 -0.33884044D-05  0.67953557D-05  0.42059751D-17
 -0.32234984D-18  0.18548004D-03 -0.33829001D-03  0.15280997D-03  0.15168275D-03
  0.12585112D-17  0.10043372D-18  0.21083783D-03  0.19277634D-02 -0.65696905D-18
 -0.97774601D-03 -0.26411452D-02  0.46845254D-17  0.34523253D-03 -0.31421451D-02
 -0.27136182D-17  0.80197871D-19 -0.88928177D-04 -0.19564509D-03  0.57655390D-18
  0.39946410D-03  0.27219159D-03 -0.22857921D-17 -0.13267957D-03  0.31474367D-03
  0.55613045D-18  0.42323598D-17 -0.30882058D-03 -0.57571178D-03 -0.97305433D-03
 -0.14628194D-02 -0.17972426D-02 -0.15180587D-02 -0.57255590D-03  0.28336111D-05
  0.23394853D-03  0.43802546D-03  0.74577582D-03  0.11536018D-02  0.15192530D-02
  0.15786012D-02  0.10031302D-02 -0.67227451D-03  0.16905232D-02 -0.14392238D-02
  0.25980357D-03  0.21565301D-03  0.20218840D-03  0.14397019D-03 -0.17294477D-02
 -0.16214671D-02 -0.11545812D-02 -0.59275431D-18 -0.55574484D-18 -0.39572344D-18
 -0.77248441D-03  0.45149087D-02 -0.80004195D-18 -0.27497333D-03  0.13465789D-02
 -0.84621682D-18 -0.11223649D-04  0.92205170D-05 -0.25920595D-19  0.14899606D-02
 -0.29930677D-02  0.15031071D-02  0.10397751D-02 -0.91197067D-18 -0.59758376D-17
  0.90220364D-03 -0.18885738D-02  0.98637013D-03  0.77788351D-03 -0.23470859D-17
  0.19787546D-17  0.54374287D-04 -0.11896582D-03  0.64591532D-04  0.58821898D-04
 -0.27431383D-18  0.15877921D-18  0.23621671D-03  0.14730534D-02 -0.96951235D-19
 -0.95669820D-03 -0.21556346D-02  0.10891857D-19  0.24804808D-03 -0.22635257D-02
  0.27996185D-18 -0.81080181D-18  0.30158226D-04  0.18193441D-03  0.88379956D-19
 -0.12900038D-03 -0.25132716D-03 -0.39697964D-20  0.38525705D-04 -0.29447606D-03
 -0.26117007D-18  0.27078259D-17
MO    3     MO 0.0        OCC NO =    2.0000000  ORB. ENERGY =  -10.081912
 -0.11930451D-04 -0.21517061D-04 -0.31726893D-04 -0.45072202D-03 -0.56657891D-03
 -0.70015078D-04  0.28511284D-03  0.29233361D-04  0.20922039D-15  0.54059365D-03
 -0.94936936D-03 -0.50105937D-16  0.80297532D-04 -0.16375585D-03  0.12891362D-16
 -0.15512585D-03  0.63790244D-05  0.14874682D-03  0.63519222D-03  0.44953882D-17
  0.17648425D-15  0.53808125D-05 -0.11839217D-03  0.11301136D-03  0.94594231D-05
 -0.39627886D-17  0.96670110D-18 -0.43361586D-03 -0.80820418D-03 -0.13704465D-02
 -0.20742346D-02 -0.25880392D-02 -0.22227805D-02 -0.85336866D-03  0.38171704D-05
  0.31406557D-03  0.58903776D-03  0.10041802D-02  0.15693383D-02  0.20985043D-02
  0.22407133D-02  0.13699282D-02 -0.90379541D-03 -0.46365902D-03 -0.14239284D-02
  0.45299982D-03 -0.22380354D-04 -0.21701415D-04 -0.14639646D-04 -0.41406685D-03
 -0.40150556D-03 -0.27085328D-03 -0.39228908D-18 -0.38038845D-18 -0.25660780D-18
  0.14365736D-03 -0.18861048D-03  0.55057477D-18 -0.22402207D-03  0.61979961D-03
 -0.10246159D-16 -0.11780292D-04  0.11020753D-03  0.43121559D-19  0.15330727D-03
 -0.61067355D-03  0.45736628D-03  0.59597174D-03  0.16944072D-16  0.97443941D-17
 -0.30247808D-04  0.60139655D-03 -0.57114874D-03 -0.83178904D-03  0.24746800D-17
 -0.52612785D-17 -0.23087847D-03  0.44074996D-03 -0.20987150D-03  0.37377848D-04
 -0.45209350D-17  0.72918829D-18  0.23926335D-03 -0.53134111D-04 -0.27825473D-17
 -0.72484467D-03 -0.57644616D-03 -0.16361583D-16  0.70546371D-05  0.73584849D-03
  0.24709225D-16 -0.19087129D-16  0.69644284D-04  0.14218773D-03  0.21709896D-18
 -0.12875797D-03 -0.43527413D-04  0.66661211D-18 -0.80174878D-04 -0.38303579D-03
 -0.13179090D-17 -0.43267471D-18 -0.21968302D-03 -0.40934695D-03 -0.69230832D-03
 -0.10425780D-02 -0.12907792D-02 -0.10983948D-02 -0.41795949D-03  0.19574826D-05
  0.83343848D-05  0.15627049D-04  0.26586261D-04  0.41285656D-04  0.54788467D-04
  0.57739523D-04  0.35802188D-04 -0.23815629D-04  0.18466063D-02 -0.13131415D-01
 -0.34562410D-02 -0.54491347D-03 -0.52338287D-03 -0.36703220D-03  0.27688225D-02
  0.26594209D-02  0.18649695D-02 -0.36026214D-17 -0.34602748D-17 -0.24265835D-17
  0.57518876D-03 -0.31012689D-02 -0.12063344D-18  0.13426873D-02 -0.86384249D-02
 -0.32045079D-17  0.80785188D-04 -0.33437003D-03 -0.17877576D-18 -0.23247709D-03
  0.52964583D-03 -0.29716873D-03  0.12138944D-03 -0.52646870D-17  0.10029086D-16
  0.21763098D-02 -0.45052628D-02  0.23289530D-02  0.10343369D-02  0.10553391D-17
 -0.75363378D-17  0.14856537D-03 -0.23852881D-03  0.89963450D-04  0.10263809D-03
  0.56620354D-18 -0.27629782D-17 -0.17851685D-03 -0.38685156D-03 -0.19765297D-17
  0.47975857D-03  0.90329027D-03  0.25444005D-17  0.55791986D-04  0.25726443D-03
  0.33851887D-17  0.58499131D-17 -0.21437907D-03 -0.10425039D-02  0.32803772D-18
  0.94242140D-03  0.14569993D-02 -0.32924370D-18 -0.29928420D-03  0.16705125D-02
 -0.65486947D-18  0.10690574D-17  0.33034648D+00  0.61584094D+00  0.10408797D+01
  0.15647831D+01  0.19225168D+01  0.16238728D+01  0.61246508D+00 -0.30311239D-02
 -0.32866163D-02 -0.61535828D-02 -0.10477001D-01 -0.16206328D-01 -0.21343164D-01
 -0.22176914D-01 -0.14092433D-01  0.94444211D-02  0.34580167D-01  0.10507689D-01
  0.16757886D-02  0.94614022D-03  0.88706660D-03  0.63164426D-03 -0.80537610D-02
 -0.75509129D-02 -0.53766998D-02 -0.46533364D-17 -0.43627987D-17 -0.31065725D-17
  0.28072266D-03 -0.71548346D-02  0.65489710D-17  0.83871240D-04 -0.24649924D-02
  0.28782200D-17  0.27490797D-06 -0.85828181D-04  0.16784123D-19 -0.28808871D-02
  0.58299858D-02 -0.29490987D-02 -0.14375746D-02 -0.52710994D-17  0.17190816D-17
 -0.12086094D-03  0.20014860D-03 -0.79287653D-04  0.16917572D-03  0.50505088D-18
 -0.53047107D-17 -0.34063180D-04  0.56951424D-04 -0.22888244D-04  0.63329886D-05
  0.71776857D-19 -0.35404346D-18 -0.10013630D-03 -0.92391240D-03  0.21471516D-18
  0.40083809D-03  0.13227849D-02 -0.59724417D-18 -0.10042918D-03  0.14489523D-02
 -0.46901324D-19  0.57186682D-17  0.17430805D-04  0.14162632D-03 -0.11157836D-18
 -0.83138706D-04 -0.19149453D-03 -0.33862645D-19  0.30846292D-04 -0.23338444D-03
  0.36859773D-18  0.16234919D-18
MO    4     MO 0.0        OCC NO =    2.0000000  ORB. ENERGY =   -1.145306
  0.17953087D-01  0.32379132D-01  0.47743010D-01  0.19185136D-01 -0.28058095D-03
 -0.18453682D-03 -0.21652937D-01  0.12324052D-01 -0.20067730D-15 -0.24783690D-02
  0.50045772D-02  0.25139168D-15  0.16851300D-03  0.15470312D-03  0.13460809D-18
  0.14567603D-02  0.39579436D-03 -0.18525546D-02 -0.85232486D-02 -0.16057733D-16
 -0.18428276D-15 -0.26549840D-03  0.35879761D-03 -0.93299208D-04 -0.74555169D-03
  0.69317678D-16 -0.13924097D-16 -0.72772803D-02 -0.13563914D-01 -0.22999904D-01
 -0.34811426D-01 -0.43434496D-01 -0.37304440D-01 -0.14321900D-01  0.64062736D-04
 -0.85346313D-01 -0.16006913D+00 -0.27288277D+00 -0.42646265D+00 -0.57026182D+00
 -0.60890667D+00 -0.37227360D+00  0.24560351D+00  0.13269589D+00  0.68828590D-01
  0.15193293D-02  0.19923516D+00  0.19319109D+00  0.13032557D+00  0.27987960D+00
  0.27138907D+00  0.18307746D+00  0.13586864D-14  0.13174688D-14  0.88875666D-15
  0.49747915D-01  0.74449976D-01  0.27810897D-15  0.23126825D-02  0.68376387D-02
  0.18878635D-15  0.27823047D-04  0.59944548D-04 -0.19457432D-17  0.18239921D-02
  0.27579692D-01 -0.29403684D-01 -0.22078969D-02  0.23826622D-15  0.25450055D-16
 -0.30237540D-02  0.12830868D-01 -0.98071138D-02 -0.34472607D-03  0.23656389D-16
 -0.11047983D-16 -0.42210559D-03  0.92286225D-04  0.32981937D-03  0.29181414D-03
  0.90125951D-16 -0.15470876D-16  0.14724263D-02  0.12607425D-01  0.13133403D-16
  0.89609870D-03 -0.22035288D-01 -0.77490224D-16 -0.53133777D-02 -0.15786987D-01
  0.38090015D-16  0.58206671D-16 -0.70821037D-03  0.91689530D-03 -0.10510298D-16
  0.21222559D-02 -0.17765565D-02  0.25796637D-16  0.23752081D-05 -0.97412945D-03
  0.57342569D-17 -0.26713067D-16 -0.58902145D-02 -0.10975547D-01 -0.18562402D-01
 -0.27953949D-01 -0.34608802D-01 -0.29450529D-01 -0.11206470D-01  0.52484678D-04
 -0.37659433D-01 -0.70611789D-01 -0.12013166D+00 -0.18655179D+00 -0.24756507D+00
 -0.26089960D+00 -0.16177440D+00  0.10761239D+00  0.55528212D-01  0.72619927D-02
 -0.62598691D-02 -0.18328379D-02 -0.17604189D-02 -0.12345273D-02 -0.20966754D+00
 -0.20138316D+00 -0.14122377D+00  0.24300374D-15  0.23340218D-15  0.16367772D-15
 -0.37169682D-03 -0.52826250D-01  0.65370032D-16 -0.62753699D-03  0.29862884D-02
 -0.13472057D-16  0.65866992D-04 -0.70054229D-03 -0.40801117D-18 -0.22443484D-01
  0.45516300D-01 -0.23072817D-01 -0.33076146D-02  0.24297667D-16 -0.96892428D-16
 -0.17385747D-02  0.42874047D-02 -0.25488300D-02 -0.10958008D-02 -0.48254078D-17
 -0.26703612D-17  0.81274147D-03 -0.15025036D-02  0.68976209D-03  0.51029623D-05
 -0.53672496D-17  0.39089136D-17  0.20157745D-03 -0.79021756D-02 -0.59268407D-18
 -0.54741060D-03  0.10892256D-01 -0.44506024D-16 -0.57321744D-04  0.12814271D-01
  0.46284076D-16 -0.48407308D-16  0.14497728D-03 -0.43211353D-04 -0.37799749D-17
 -0.69492134D-03  0.11037238D-03  0.15714593D-16  0.25998951D-03  0.19261684D-04
 -0.43746680D-17 -0.10827648D-16 -0.12148773D-02 -0.22648074D-02 -0.38279236D-02
 -0.57546230D-02 -0.70702192D-02 -0.59719304D-02 -0.22523924D-02  0.11147216D-04
 -0.55759409D-02 -0.10439921D-01 -0.17774858D-01 -0.27495003D-01 -0.36209952D-01
 -0.37624459D-01 -0.23908655D-01  0.16023025D-01  0.72405740D-02  0.33445409D-02
  0.29746803D-02  0.34745757D-02  0.32576355D-02  0.23196306D-02 -0.49988041D-01
 -0.46866966D-01 -0.33372072D-01  0.15888729D-16  0.14896693D-16  0.10607333D-16
  0.21008977D-02 -0.10466193D-01  0.11355048D-16  0.25283948D-03  0.88274801D-03
 -0.76610545D-18  0.17231829D-04 -0.15171511D-03  0.77940528D-18 -0.49712492D-02
  0.10173016D-01 -0.52017663D-02 -0.40638432D-02 -0.51050450D-17  0.34853865D-17
 -0.44158378D-03  0.83057675D-03 -0.38899297D-03 -0.89318069D-03  0.90912141D-17
  0.26903856D-18  0.81753164D-04 -0.17704369D-03  0.95290530D-04  0.11595819D-04
  0.11450171D-17 -0.18976197D-17 -0.40959690D-03 -0.94561267D-03  0.24843622D-17
  0.16883912D-02  0.11559768D-02  0.11258183D-17 -0.45960046D-03  0.16808612D-02
 -0.85789048D-17 -0.27537100D-17 -0.12669514D-06  0.15890574D-04  0.12084533D-18
 -0.59946913D-06  0.19697821D-04 -0.30825204D-19  0.97955454D-06 -0.67369543D-04
 -0.33171078D-18 -0.71132924D-17
MO    5     MO 0.0        OCC NO =    2.0000000  ORB. ENERGY =   -0.887769
 -0.13997964D-01 -0.25245905D-01 -0.37225071D-01 -0.16326206D-01  0.11760119D-02
 -0.25662356D-03  0.16023205D-01 -0.31826494D-02 -0.28743660D-15  0.22965732D-02
 -0.80580391D-03 -0.68613932D-16 -0.46314354D-03 -0.20658421D-03 -0.54832612D-17
 -0.31843879D-02  0.14340266D-02  0.17503614D-02  0.29018396D-02  0.19111848D-15
  0.11604695D-16  0.19774486D-03 -0.30562751D-03  0.10788265D-03 -0.20968023D-03
 -0.17759937D-16  0.22964079D-16  0.26302841D-02  0.49025112D-02  0.83130346D-02
  0.12582165D-01  0.15698868D-01  0.13483234D-01  0.51764758D-02 -0.23154694D-04
  0.37950610D-01  0.71177309D-01  0.12134171D+00  0.18963347D+00  0.25357608D+00
  0.27076014D+00  0.16553744D+00 -0.10921155D+00 -0.62627860D-01 -0.38290493D-01
 -0.29734876D-02 -0.18743926D+00 -0.18175303D+00 -0.12260952D+00  0.19863137D+00
  0.19260561D+00  0.12993061D+00  0.27083465D-15  0.26261850D-15  0.17716089D-15
 -0.44527929D-01  0.44879103D-01  0.74553267D-16 -0.30926749D-02 -0.46546551D-03
  0.61304313D-16 -0.20384511D-03  0.31489128D-03 -0.24954581D-18 -0.21530924D-01
  0.20064403D-01  0.14665209D-02  0.11015340D-01 -0.53008113D-17  0.83689021D-16
 -0.41174738D-02  0.25896711D-02  0.15278027D-02  0.38416645D-02 -0.15411099D-16
  0.73282210D-17  0.13224853D-03 -0.12544217D-03 -0.68063581D-05  0.10002569D-03
  0.34381097D-16 -0.59391715D-17 -0.99472885D-03  0.10931203D-02  0.33964414D-16
 -0.40662404D-03  0.94003772D-03 -0.62094744D-16  0.33908106D-02 -0.42193987D-02
 -0.39798498D-16  0.37886514D-16 -0.11934248D-03 -0.25445389D-03 -0.71627071D-17
  0.42324386D-03  0.67315548D-03  0.93375689D-17 -0.65216410D-04  0.90206206D-04
  0.12150552D-16 -0.61641873D-17 -0.72430425D-02 -0.13496343D-01 -0.22825700D-01
 -0.34374239D-01 -0.42557538D-01 -0.36214544D-01 -0.13780302D-01  0.64539033D-04
 -0.59389715D-01 -0.11135627D+00 -0.18945015D+00 -0.29419608D+00 -0.39041530D+00
 -0.41144414D+00 -0.25512161D+00  0.16970700D+00  0.88106138D-01  0.25589831D-01
 -0.10568210D-01 -0.48102399D-01 -0.46201779D-01 -0.32399877D-01  0.42366961D+00
  0.40692959D+00  0.28536712D+00  0.28364154D-15  0.27243431D-15  0.19104974D-15
 -0.10576042D-01  0.79518887D-01  0.99875854D-16  0.13818916D-02 -0.85529781D-02
  0.18239769D-16  0.35070486D-03 -0.16622349D-02 -0.13384973D-17 -0.15480713D-01
  0.31449208D-01 -0.15968496D-01 -0.79153868D-02 -0.17729452D-16 -0.38903331D-16
 -0.41080133D-03  0.13724365D-02 -0.96163517D-03  0.10753494D-02  0.69679331D-17
  0.40277755D-16  0.74586580D-03 -0.13686472D-02  0.62278144D-03  0.47517529D-03
  0.34315443D-17  0.87968580D-18  0.12293896D-02  0.93551555D-02 -0.42705094D-17
 -0.53716823D-02 -0.13470362D-01 -0.84019857D-17  0.16835136D-02 -0.14595105D-01
  0.21213514D-16 -0.83064850D-16  0.88286087D-05  0.50731307D-04 -0.48934127D-17
  0.80487282D-04 -0.27837479D-03  0.27905201D-17 -0.10697311D-03  0.12618086D-03
  0.11889718D-16  0.17385613D-16 -0.77121305D-02 -0.14377165D-01 -0.24299941D-01
 -0.36530771D-01 -0.44882273D-01 -0.37910255D-01 -0.14298353D-01  0.70763348D-04
 -0.33337709D-01 -0.62418710D-01 -0.10627320D+00 -0.16438847D+00 -0.21649384D+00
 -0.22495096D+00 -0.14294624D+00  0.95799245D-01  0.43998483D-01  0.23551796D-01
  0.59182025D-02  0.24689563D-01  0.23148035D-01  0.16482780D-01 -0.26849577D+00
 -0.25173185D+00 -0.17924807D+00  0.54519009D-16  0.51115037D-16  0.36396951D-16
  0.43532412D-02 -0.54901751D-01  0.35149001D-17 -0.12786357D-03 -0.24126960D-02
 -0.69997284D-17 -0.11219293D-04 -0.22286842D-03  0.13243672D-17 -0.21856915D-01
  0.43596162D-01 -0.21739247D-01 -0.12346019D-01 -0.83099670D-19  0.53079639D-17
 -0.15007777D-02  0.27893648D-02 -0.12885871D-02 -0.17281603D-03 -0.79658409D-17
  0.25105971D-16  0.11259057D-03 -0.25722466D-03  0.14463410D-03  0.13033083D-03
 -0.34094476D-19 -0.27262747D-17 -0.10738267D-02 -0.69941577D-02  0.68554172D-17
  0.41925855D-02  0.10217267D-01 -0.17508436D-17 -0.97110551D-03  0.10765206D-01
 -0.18815408D-16 -0.37928103D-17  0.72514961D-04  0.32319410D-03  0.61535533D-18
 -0.30497679D-03 -0.42201994D-03  0.10091168D-17  0.87431911D-04 -0.54756237D-03
 -0.28551828D-17  0.32434228D-17
MO    6     MO 0.0        OCC NO =    2.0000000  ORB. ENERGY =   -0.650637
 -0.32471862D-01 -0.58564340D-01 -0.86353085D-01 -0.56209592D-01 -0.11815889D-02
  0.32618003D-03  0.31183481D-01  0.31657643D-02 -0.28147825D-15  0.11699424D-01
  0.36813707D-02  0.28658799D-15 -0.25458861D-03  0.84989380D-03  0.14725199D-16
 -0.12086215D-01  0.67403970D-02  0.53458175D-02 -0.10207444D-02 -0.26356939D-15
 -0.16314462D-18 -0.63319982D-03  0.76288484D-03 -0.12968502D-03 -0.10684872D-02
  0.98990895D-16 -0.50786057D-16  0.13229896D-02  0.24658824D-02  0.41813195D-02
  0.63286218D-02  0.78962722D-02  0.67818447D-02  0.26036821D-02 -0.11646430D-04
  0.15314730D-01  0.28723155D-01  0.48966683D-01  0.76525394D-01  0.10232903D+00
  0.10926355D+00  0.66801592D-01 -0.44071633D-01 -0.27304174D-01 -0.52626249D-02
  0.19899984D-02 -0.65053653D+00 -0.63080161D+00 -0.42553504D+00  0.10895487D+01
  0.10564957D+01  0.71270578D+00  0.37532961D-14  0.36394347D-14  0.24551411D-14
 -0.14345177D+00  0.24890991D+00  0.74383012D-15 -0.13066086D-01  0.27977542D-01
  0.30009856D-15 -0.20597591D-03  0.75735540D-04 -0.13124596D-16 -0.59668737D-01
  0.66739956D-01 -0.70712186D-02  0.40379497D-01  0.29632494D-14  0.57823133D-15
 -0.14605602D-01  0.17398285D-01 -0.27926833D-02  0.39916193D-02 -0.23710633D-15
 -0.66044705D-16 -0.82726770D-03  0.16908532D-02 -0.86358545D-03 -0.12755866D-02
  0.10906405D-15 -0.18368938D-16 -0.57548003D-03  0.13722252D-01 -0.76047632D-16
 -0.54287759D-02 -0.14235629D-01  0.29457025D-15  0.71552160D-02 -0.26931127D-01
 -0.66427352D-16  0.15273932D-14 -0.10492715D-02  0.12322888D-02  0.43054202D-17
  0.23003094D-02 -0.27956592D-02 -0.33664631D-16  0.84750515D-03 -0.90120732D-03
  0.20748371D-16 -0.17288792D-15 -0.50650927D-03 -0.94380545D-03 -0.15962116D-02
 -0.24038062D-02 -0.29760681D-02 -0.25324996D-02 -0.96366282D-03  0.45132441D-05
 -0.15178283D-01 -0.28459422D-01 -0.48417944D-01 -0.75187955D-01 -0.99778789D-01
 -0.10515315D+00 -0.65201660D-01  0.43372169D-01  0.24905614D-01  0.44615922D-02
  0.35333793D-02 -0.95187722D-01 -0.91426669D-01 -0.64114691D-01 -0.64728399D+00
 -0.62170854D+00 -0.43598494D+00  0.68624746D-15  0.65913249D-15  0.46222920D-15
 -0.25501076D-01 -0.15517092D+00  0.19716477D-15 -0.27870773D-02  0.15888364D-03
  0.27294479D-16 -0.15534284D-03  0.12208908D-02  0.10443996D-16 -0.29253114D-02
  0.61938959D-02 -0.32685845D-02  0.27954077D-01  0.27860516D-16 -0.12570165D-15
 -0.38201854D-03  0.12834369D-02 -0.90141840D-03  0.54691374D-02 -0.74091748D-17
 -0.54125743D-16 -0.52782806D-03  0.80587951D-03 -0.27805145D-03 -0.10378494D-02