 Molden2AIM, Version 4.0.0 (06/02/2016)           Time: Sat Jun 30 06:27:57 2018
GAUSSIAN             12 MOL ORBITALS    252 PRIMITIVES        4 NUCLEI
  O    1    (CENTRE  1)   0.00000000  0.45234563 -1.99322642  CHARGE =  8.0
  N    2    (CENTRE  2)   0.00000000 -0.92568423 -0.26396639  CHARGE =  7.0
  O    3    (CENTRE  3)   0.00000000  0.41221730  2.01426097  CHARGE =  8.0
  H    4    (CENTRE  4)   0.00000000 -0.91794580  3.27167906  CHARGE =  1.0
CENTRE ASSIGNMENTS    1  1  1  1  1  1  1  1  1  1  1  1  1  1  1  1  1  1  1  1
CENTRE ASSIGNMENTS    1  1  1  1  1  1  1  1  1  1  1  1  1  1  1  1  1  1  1  1
CENTRE ASSIGNMENTS    1  1  1  1  1  1  1  1  1  1  1  1  1  1  1  1  1  1  1  1
CENTRE ASSIGNMENTS    1  1  1  1  1  1  1  1  1  1  1  1  1  1  1  2  2  2  2  2
CENTRE ASSIGNMENTS    2  2  2  2  2  2  2  2  2  2  2  2  2  2  2  2  2  2  2  2
CENTRE ASSIGNMENTS    2  2  2  2  2  2  2  2  2  2  2  2  2  2  2  2  2  2  2  2
CENTRE ASSIGNMENTS    2  2  2  2  2  2  2  2  2  2  2  2  2  2  2  2  2  2  2  2
CENTRE ASSIGNMENTS    2  2  2  2  2  2  2  2  2  2  3  3  3  3  3  3  3  3  3  3
CENTRE ASSIGNMENTS    3  3  3  3  3  3  3  3  3  3  3  3  3  3  3  3  3  3  3  3
CENTRE ASSIGNMENTS    3  3  3  3  3  3  3  3  3  3  3  3  3  3  3  3  3  3  3  3
CENTRE ASSIGNMENTS    3  3  3  3  3  3  3  3  3  3  3  3  3  3  3  3  3  3  3  3
CENTRE ASSIGNMENTS    3  3  3  3  3  4  4  4  4  4  4  4  4  4  4  4  4  4  4  4
CENTRE ASSIGNMENTS    4  4  4  4  4  4  4  4  4  4  4  4
TYPE ASSIGNMENTS      1  1  1  1  1  1  1  1  1  1  1  1  1  1  1  1  1  1  1  2
TYPE ASSIGNMENTS      2  2  3  3  3  4  4  4  2  3  4  2  3  4  2  3  4  5  6  7
TYPE ASSIGNMENTS      8  9 10  5  6  7  8  9 10  5  6  7  8  9 10 11 12 13 17 14
TYPE ASSIGNMENTS     15 18 19 16 20 11 12 13 17 14 15 18 19 16 20  1  1  1  1  1
TYPE ASSIGNMENTS      1  1  1  1  1  1  1  1  1  1  1  1  1  1  2  2  2  3  3  3
TYPE ASSIGNMENTS      4  4  4  2  3  4  2  3  4  2  3  4  5  6  7  8  9 10  5  6
TYPE ASSIGNMENTS      7  8  9 10  5  6  7  8  9 10 11 12 13 17 14 15 18 19 16 20
TYPE ASSIGNMENTS     11 12 13 17 14 15 18 19 16 20  1  1  1  1  1  1  1  1  1  1
TYPE ASSIGNMENTS      1  1  1  1  1  1  1  1  1  2  2  2  3  3  3  4  4  4  2  3
TYPE ASSIGNMENTS      4  2  3  4  2  3  4  5  6  7  8  9 10  5  6  7  8  9 10  5
TYPE ASSIGNMENTS      6  7  8  9 10 11 12 13 17 14 15 18 19 16 20 11 12 13 17 14
TYPE ASSIGNMENTS     15 18 19 16 20  1  1  1  1  1  1  2  3  4  2  3  4  2  3  4
TYPE ASSIGNMENTS      5  6  7  8  9 10  5  6  7  8  9 10
EXPONENTS  0.1533000D+05 0.2299000D+04 0.5224000D+03 0.1473000D+03 0.4755000D+02
EXPONENTS  0.1676000D+02 0.6207000D+01 0.6882000D+00 0.1533000D+05 0.2299000D+04
EXPONENTS  0.5224000D+03 0.1473000D+03 0.4755000D+02 0.1676000D+02 0.6207000D+01
EXPONENTS  0.6882000D+00 0.1752000D+01 0.2384000D+00 0.7376000D-01 0.3446000D+02
EXPONENTS  0.7749000D+01 0.2280000D+01 0.3446000D+02 0.7749000D+01 0.2280000D+01
EXPONENTS  0.3446000D+02 0.7749000D+01 0.2280000D+01 0.7156000D+00 0.7156000D+00
EXPONENTS  0.7156000D+00 0.2140000D+00 0.2140000D+00 0.2140000D+00 0.5974000D-01
EXPONENTS  0.5974000D-01 0.5974000D-01 0.2314000D+01 0.2314000D+01 0.2314000D+01
EXPONENTS  0.2314000D+01 0.2314000D+01 0.2314000D+01 0.6450000D+00 0.6450000D+00
EXPONENTS  0.6450000D+00 0.6450000D+00 0.6450000D+00 0.6450000D+00 0.2140000D+00
EXPONENTS  0.2140000D+00 0.2140000D+00 0.2140000D+00 0.2140000D+00 0.2140000D+00
EXPONENTS  0.1428000D+01 0.1428000D+01 0.1428000D+01 0.1428000D+01 0.1428000D+01
EXPONENTS  0.1428000D+01 0.1428000D+01 0.1428000D+01 0.1428000D+01 0.1428000D+01
EXPONENTS  0.5000000D+00 0.5000000D+00 0.5000000D+00 0.5000000D+00 0.5000000D+00
EXPONENTS  0.5000000D+00 0.5000000D+00 0.5000000D+00 0.5000000D+00 0.5000000D+00
EXPONENTS  0.1142000D+05 0.1712000D+04 0.3893000D+03 0.1100000D+03 0.3557000D+02
EXPONENTS  0.1254000D+02 0.4644000D+01 0.5118000D+00 0.1142000D+05 0.1712000D+04
EXPONENTS  0.3893000D+03 0.1100000D+03 0.3557000D+02 0.1254000D+02 0.4644000D+01
EXPONENTS  0.5118000D+00 0.1293000D+01 0.1787000D+00 0.5760000D-01 0.2663000D+02
EXPONENTS  0.5948000D+01 0.1742000D+01 0.2663000D+02 0.5948000D+01 0.1742000D+01
EXPONENTS  0.2663000D+02 0.5948000D+01 0.1742000D+01 0.5550000D+00 0.5550000D+00
EXPONENTS  0.5550000D+00 0.1725000D+00 0.1725000D+00 0.1725000D+00 0.4910000D-01
EXPONENTS  0.4910000D-01 0.4910000D-01 0.1654000D+01 0.1654000D+01 0.1654000D+01
EXPONENTS  0.1654000D+01 0.1654000D+01 0.1654000D+01 0.4690000D+00 0.4690000D+00
EXPONENTS  0.4690000D+00 0.4690000D+00 0.4690000D+00 0.4690000D+00 0.1510000D+00
EXPONENTS  0.1510000D+00 0.1510000D+00 0.1510000D+00 0.1510000D+00 0.1510000D+00
EXPONENTS  0.1093000D+01 0.1093000D+01 0.1093000D+01 0.1093000D+01 0.1093000D+01
EXPONENTS  0.1093000D+01 0.1093000D+01 0.1093000D+01 0.1093000D+01 0.1093000D+01
EXPONENTS  0.3640000D+00 0.3640000D+00 0.3640000D+00 0.3640000D+00 0.3640000D+00
EXPONENTS  0.3640000D+00 0.3640000D+00 0.3640000D+00 0.3640000D+00 0.3640000D+00
EXPONENTS  0.1533000D+05 0.2299000D+04 0.5224000D+03 0.1473000D+03 0.4755000D+02
EXPONENTS  0.1676000D+02 0.6207000D+01 0.6882000D+00 0.1533000D+05 0.2299000D+04
EXPONENTS  0.5224000D+03 0.1473000D+03 0.4755000D+02 0.1676000D+02 0.6207000D+01
EXPONENTS  0.6882000D+00 0.1752000D+01 0.2384000D+00 0.7376000D-01 0.3446000D+02
EXPONENTS  0.7749000D+01 0.2280000D+01 0.3446000D+02 0.7749000D+01 0.2280000D+01
EXPONENTS  0.3446000D+02 0.7749000D+01 0.2280000D+01 0.7156000D+00 0.7156000D+00
EXPONENTS  0.7156000D+00 0.2140000D+00 0.2140000D+00 0.2140000D+00 0.5974000D-01
EXPONENTS  0.5974000D-01 0.5974000D-01 0.2314000D+01 0.2314000D+01 0.2314000D+01
EXPONENTS  0.2314000D+01 0.2314000D+01 0.2314000D+01 0.6450000D+00 0.6450000D+00
EXPONENTS  0.6450000D+00 0.6450000D+00 0.6450000D+00 0.6450000D+00 0.2140000D+00
EXPONENTS  0.2140000D+00 0.2140000D+00 0.2140000D+00 0.2140000D+00 0.2140000D+00
EXPONENTS  0.1428000D+01 0.1428000D+01 0.1428000D+01 0.1428000D+01 0.1428000D+01
EXPONENTS  0.1428000D+01 0.1428000D+01 0.1428000D+01 0.1428000D+01 0.1428000D+01
EXPONENTS  0.5000000D+00 0.5000000D+00 0.5000000D+00 0.5000000D+00 0.5000000D+00
EXPONENTS  0.5000000D+00 0.5000000D+00 0.5000000D+00 0.5000000D+00 0.5000000D+00
EXPONENTS  0.3387000D+02 0.5095000D+01 0.1159000D+01 0.3258000D+00 0.1027000D+00
EXPONENTS  0.2526000D-01 0.1407000D+01 0.1407000D+01 0.1407000D+01 0.3880000D+00
EXPONENTS  0.3880000D+00 0.3880000D+00 0.1020000D+00 0.1020000D+00 0.1020000D+00
EXPONENTS  0.1057000D+01 0.1057000D+01 0.1057000D+01 0.1057000D+01 0.1057000D+01
EXPONENTS  0.1057000D+01 0.2470000D+00 0.2470000D+00 0.2470000D+00 0.2470000D+00
EXPONENTS  0.2470000D+00 0.2470000D+00
MO    1     MO 0.0        OCC NO =    2.0000000  ORB. ENERGY =  -19.035102
  0.49776748D+00  0.92777453D+00  0.15731982D+01  0.23811088D+01  0.29709285D+01
  0.25516314D+01  0.97962090D+00 -0.43819044D-02 -0.43335058D-03 -0.81275975D-03
 -0.13855772D-02 -0.21653874D-02 -0.28955356D-02 -0.30917570D-02 -0.18902396D-02
  0.12470653D-02  0.53548562D-01 -0.33023975D-03 -0.56991525D-03 -0.38951046D-16
 -0.37769412D-16 -0.25479022D-16 -0.49334053D-02 -0.47837436D-02 -0.32270852D-02
  0.73031917D-02  0.70816393D-02  0.47772320D-02  0.50137764D-17 -0.35265373D-03
  0.20458107D-03 -0.43305015D-18  0.61433573D-03 -0.83134479D-03  0.90180546D-20
  0.26982954D-04 -0.45258236D-04 -0.29736899D-02  0.11112175D-02  0.18624724D-02
  0.78560607D-17  0.31578594D-17 -0.27599807D-02  0.52089912D-03 -0.40806672D-04
 -0.48009245D-03 -0.17767175D-17  0.14225472D-17  0.58628425D-03  0.12318553D-03
 -0.25757957D-04 -0.97427577D-04  0.53280103D-19 -0.32582068D-19  0.33462418D-03
  0.63762042D-18  0.40047919D-04 -0.45395889D-04 -0.22476819D-17  0.60908377D-03
 -0.46386295D-03  0.33482059D-18 -0.72922753D-03  0.60005061D-03  0.40730273D-19
 -0.15344253D-18 -0.43472606D-04 -0.66570938D-04  0.23520344D-18 -0.32834130D-03
  0.39080603D-03  0.22512416D-18  0.45875912D-03 -0.19109322D-03 -0.65628186D-18
  0.47066577D-03  0.87701636D-03  0.14832545D-02  0.22336991D-02  0.27654644D-02
  0.23532854D-02  0.89546852D-03 -0.41938611D-05 -0.34612789D-03 -0.64899303D-03
 -0.11041302D-02 -0.17145977D-02 -0.22753709D-02 -0.23979286D-02 -0.14868687D-02
  0.98906562D-03  0.62924871D-03  0.55785189D-03  0.24621004D-03  0.80010121D-18
  0.76848765D-18  0.53891659D-18  0.73652751D-03  0.70742587D-03  0.49609585D-03
 -0.99898324D-03 -0.95951146D-03 -0.67287567D-03 -0.90881610D-18  0.47797263D-03
 -0.50629955D-03  0.20806343D-18  0.14077493D-03 -0.11613991D-03  0.27720502D-20
  0.17899291D-04 -0.12013321D-04 -0.52636011D-03 -0.35269077D-03  0.87905088D-03
 -0.47491332D-19 -0.75907389D-18 -0.21806196D-02  0.30710619D-03  0.37251744D-03
 -0.67962363D-03 -0.74139841D-18  0.15280588D-17  0.12924378D-02  0.11864028D-04
  0.39784805D-04 -0.51648834D-04  0.97765292D-19 -0.64734867D-19  0.87260394D-04
  0.46599256D-18  0.39174436D-03 -0.39584635D-04 -0.59676474D-18  0.86384965D-03
 -0.10873582D-02 -0.80121295D-18 -0.20390827D-02  0.12061121D-02  0.25821544D-17
  0.61640577D-19  0.11168728D-03 -0.10405131D-03 -0.31868596D-19  0.54507482D-04
 -0.10470743D-03 -0.15305314D-18 -0.38956931D-03  0.41686136D-03  0.52504751D-18
  0.47618964D-03  0.88755622D-03  0.15050013D-02  0.22778895D-02  0.28421411D-02
  0.24410201D-02  0.93715509D-03 -0.41919522D-05 -0.22380568D-04 -0.41975310D-04
 -0.71558701D-04 -0.11183232D-03 -0.14954112D-03 -0.15967505D-03 -0.97622197D-04
  0.64405196D-04  0.11928564D-03 -0.26933509D-03 -0.36523751D-04  0.10538789D-18
  0.10219080D-18  0.68937311D-19  0.28944387D-03  0.28066319D-03  0.18933373D-03
 -0.33581490D-05 -0.32562749D-05 -0.21966638D-05 -0.75467641D-19 -0.20692697D-03
 -0.10895578D-03 -0.23112818D-18 -0.21087220D-03 -0.16315114D-03 -0.18174879D-19
 -0.80999283D-06 -0.14054539D-04 -0.17312792D-03 -0.68403691D-03  0.85716483D-03
 -0.29338898D-18 -0.39389717D-18 -0.11659890D-02  0.12183471D-03  0.46219420D-03
 -0.58402891D-03  0.17561693D-18  0.27887181D-18  0.91011318D-03  0.54271974D-05
  0.69278602D-04 -0.74705799D-04  0.75487732D-19  0.12994660D-18  0.20489121D-03
  0.57673519D-19 -0.33732634D-04  0.15604833D-03  0.79613215D-19  0.20541453D-03
 -0.22389938D-03 -0.25263377D-18 -0.10421663D-03 -0.24424560D-03  0.47194915D-18
  0.13368075D-19 -0.39124246D-04  0.11499006D-03 -0.24123059D-19  0.18178787D-05
  0.90031247D-04 -0.15981167D-19  0.11555486D-03 -0.43500144D-03 -0.36251983D-18
  0.62460770D-04  0.11265057D-03  0.16610320D-03  0.51455431D-03  0.11158727D-03
  0.41873280D-05 -0.20311883D-18  0.19160541D-03 -0.12741869D-03  0.70964045D-19
  0.29274193D-03  0.18105889D-04  0.51493992D-19  0.17120435D-04  0.43265721D-05
  0.52214767D-04  0.19929673D-03 -0.25151150D-03 -0.17345393D-19  0.25017250D-19
 -0.15993451D-03  0.72973192D-05  0.68641589D-05 -0.14161478D-04 -0.51476228D-19
 -0.12387166D-18 -0.25136561D-04
MO    2     MO 0.0        OCC NO =    2.0000000  ORB. ENERGY =  -19.034400
 -0.42707733D-03 -0.79601719D-03 -0.13497814D-02 -0.20429570D-02 -0.25490139D-02
 -0.21892630D-02 -0.84050063D-03  0.37596109D-05 -0.15122895D-04 -0.28363365D-04
 -0.48353319D-04 -0.75566826D-04 -0.10104725D-03 -0.10789490D-03 -0.65964826D-04
  0.43519586D-04 -0.25469625D-04 -0.10890208D-03 -0.87708797D-04  0.19996714D-15
  0.19390086D-15  0.13080437D-15  0.16110963D-03  0.15622214D-03  0.10538654D-03
  0.14966346D-03  0.14512321D-03  0.97899262D-04 -0.11346272D-15 -0.14419404D-03
 -0.10542805D-03  0.27056092D-16 -0.93655648D-04 -0.12904334D-03 -0.87984937D-18
 -0.35458897D-05 -0.85384255D-05  0.38678515D-04 -0.10695156D-03  0.68273046D-04
  0.13676588D-16 -0.17630898D-17  0.31258681D-03 -0.35984496D-06  0.10040829D-03
 -0.10004845D-03 -0.77584258D-17  0.37458923D-17 -0.16344704D-03  0.18104937D-05
  0.25071537D-04 -0.26882031D-04  0.27595332D-17 -0.14224019D-17 -0.25011252D-04
 -0.25510350D-17 -0.10356564D-03 -0.19124305D-03  0.76855866D-17  0.10411308D-03
  0.31254130D-03 -0.32481473D-19  0.20658385D-03  0.26118784D-03 -0.13091025D-16
 -0.29247835D-19  0.30632112D-04 -0.12781525D-05 -0.85724680D-18 -0.70519423D-05
 -0.59521452D-04  0.94499031D-18 -0.84844394D-04  0.63355909D-04 -0.84455382D-18
  0.19731852D-03  0.36767401D-03  0.62182892D-03  0.93643990D-03  0.11593733D-02
  0.98657439D-03  0.37540976D-03 -0.17582040D-05 -0.12968145D-03 -0.24315393D-03
 -0.41367718D-03 -0.64239697D-03 -0.85249815D-03 -0.89841603D-03 -0.55707525D-03
  0.37056667D-03 -0.43661611D-03  0.19773998D-02  0.54903208D-03 -0.12398224D-16
 -0.11908346D-16 -0.83509540D-17 -0.61576279D-03 -0.59143280D-03 -0.41475351D-03
 -0.84595511D-03 -0.81252977D-03 -0.56980196D-03 -0.94474186D-18  0.93590596D-03
  0.14640722D-02  0.45413127D-17  0.54747417D-03  0.86483954D-03  0.46938398D-18
  0.28359855D-04  0.46052229D-04 -0.28009710D-03 -0.80472882D-04  0.36056999D-03
  0.10414155D-16 -0.14427718D-16  0.12559522D-02 -0.33907913D-03  0.16004011D-04
  0.32307512D-03 -0.31217148D-18  0.49829690D-17  0.71819364D-03 -0.49831147D-04
  0.10902060D-04  0.38929086D-04  0.11630360D-17 -0.22636102D-17  0.61217770D-04
  0.32752732D-17 -0.17487901D-03  0.10491635D-03  0.42610518D-17 -0.29135446D-03
 -0.43870003D-03 -0.14086871D-16  0.81599148D-03  0.12395099D-03  0.26554355D-16
 -0.77486115D-18  0.24760248D-04  0.44001638D-04  0.75920769D-18 -0.11342807D-04
 -0.50983960D-04  0.15653758D-17 -0.62937936D-04 -0.81020953D-04 -0.51085665D-19
  0.49775960D+00  0.92775986D+00  0.15731733D+01  0.23810711D+01  0.29708815D+01
  0.25515910D+01  0.97960540D+00 -0.43818351D-02 -0.41930757D-03 -0.78642173D-03
 -0.13406767D-02 -0.20952166D-02 -0.28017039D-02 -0.29915665D-02 -0.18289851D-02
  0.12066533D-02  0.53448779D-01 -0.13926270D-02 -0.71587595D-03  0.18370842D-17
  0.17813537D-17  0.12016907D-17 -0.75213360D-02 -0.72931659D-02 -0.49199266D-02
 -0.92458054D-03 -0.89653212D-03 -0.60479527D-03 -0.22290301D-17 -0.20596357D-04
  0.13382151D-02 -0.97257147D-18  0.75208747D-03  0.10685623D-02 -0.12091300D-19
  0.35523745D-04  0.54886154D-04 -0.15687407D-02  0.64022319D-03  0.92851749D-03
 -0.28546570D-17 -0.13890901D-17 -0.14702957D-02  0.47178606D-03  0.14560772D-03
 -0.61739378D-03  0.43727731D-17 -0.94558967D-19 -0.13183379D-02  0.14500934D-03
 -0.11103529D-05 -0.14389899D-03 -0.32912665D-18  0.13516122D-17 -0.14296414D-03
  0.61830604D-18  0.88047074D-04 -0.26523427D-03 -0.57659813D-18  0.10559760D-02
 -0.11523985D-02 -0.12783200D-17 -0.13201172D-02  0.19481013D-02 -0.45941868D-17
  0.20764508D-18 -0.13470031D-03  0.11609045D-03 -0.42780378D-18 -0.41609258D-03
 -0.11770421D-03 -0.19513146D-18  0.82019352D-03 -0.23056715D-03 -0.11240953D-18
  0.16973674D-03  0.30612720D-03  0.45138437D-03 -0.25704196D-03 -0.26481731D-03
 -0.22806427D-04  0.11218579D-17 -0.49245466D-03  0.56551761D-03  0.12065727D-17
 -0.46738959D-03  0.59043513D-03  0.11714876D-20 -0.36565653D-04  0.98594012D-04
  0.97858042D-03 -0.47460653D-03 -0.50397389D-03  0.52049312D-17  0.51861464D-18
  0.31393497D-02  0.49181788D-04 -0.59893678D-05 -0.43192420D-04 -0.94837509D-18
 -0.11695695D-17  0.46933185D-04
MO    3     MO 0.0        OCC NO =    2.0000000  ORB. ENERGY =  -14.343057
  0.35449495D-03  0.66073298D-03  0.11203842D-02  0.16957537D-02  0.21158055D-02
  0.18171947D-02  0.69765639D-03 -0.31206599D-05 -0.29944558D-03 -0.56161760D-03
 -0.95743488D-03 -0.14962844D-02 -0.20008173D-02 -0.21364064D-02 -0.13061570D-02
  0.86172304D-03  0.10256070D-02 -0.15472830D-02 -0.69203456D-03 -0.11841963D-15
 -0.11482721D-15 -0.77461756D-16 -0.20368623D-02 -0.19750712D-02 -0.13323714D-02
  0.26588046D-02  0.25781461D-02  0.17392021D-02  0.43891212D-16  0.13178281D-02
 -0.19046076D-02 -0.26805276D-17  0.14395709D-02 -0.14419904D-02 -0.40707484D-18
  0.51294085D-04 -0.63749172D-04 -0.73141350D-03  0.11483902D-03  0.61657448D-03
  0.98686891D-17 -0.89669995D-17 -0.26869857D-02  0.13610991D-02 -0.19816012D-03
 -0.11629390D-02 -0.71521313D-17  0.89405144D-17  0.43480241D-02  0.23070516D-03
 -0.64182700D-04 -0.16652246D-03  0.43184812D-18 -0.11684381D-17  0.65788492D-03
 -0.23779406D-17 -0.69056547D-03  0.94808240D-04  0.66914058D-18 -0.16402654D-02
  0.17334697D-02  0.64646811D-17  0.37119618D-02 -0.20178944D-02 -0.13136971D-16
 -0.53627805D-18 -0.22136252D-03 -0.16424880D-04  0.11357054D-17 -0.64725106D-03
  0.82695296D-03  0.47312876D-18  0.13113386D-02 -0.77767831D-03 -0.20079850D-17
  0.41288280D+00  0.76934629D+00  0.13011575D+01  0.19594710D+01  0.24259522D+01
  0.20643759D+01  0.78553310D+00 -0.36789867D-02 -0.17749967D-02 -0.33281354D-02
 -0.56621485D-02 -0.87927187D-02 -0.11668449D-01 -0.12296944D-01 -0.76248896D-02
  0.50720795D-02  0.41348982D-01  0.21646573D-04 -0.16835080D-03  0.11759021D-16
  0.11294399D-16  0.79204121D-17  0.88183125D-02  0.84698837D-02  0.59396671D-02
  0.15751000D-03  0.15128647D-03  0.10609252D-03 -0.44920717D-17  0.17438824D-02
 -0.33336510D-02  0.20475694D-17 -0.10317091D-02 -0.59551774D-03  0.18223456D-18
 -0.24489797D-04 -0.44482671D-04 -0.41959309D-02  0.15113166D-02  0.26846143D-02
  0.62716598D-17 -0.11905179D-16 -0.55337827D-02  0.33457778D-03 -0.24870727D-03
 -0.85870510D-04 -0.40690630D-17  0.64105910D-17 -0.12679014D-02  0.12911250D-03
 -0.86206968D-04 -0.42905535D-04  0.10982378D-17 -0.61239997D-18 -0.19793564D-04
  0.29544248D-17 -0.48428906D-03 -0.52589237D-05 -0.27217408D-17 -0.16350371D-02
  0.15884013D-02 -0.61415336D-17  0.30879042D-02 -0.15726245D-02  0.19970890D-16
  0.31536173D-18  0.89185214D-04  0.48801414D-04 -0.46417438D-19  0.36750449D-03
 -0.77989084D-04 -0.89966775D-18 -0.63506013D-03 -0.68415157D-04  0.11167624D-17
  0.16114785D-03  0.30035887D-03  0.50930912D-03  0.77086307D-03  0.96181204D-03
  0.82606827D-03  0.31714367D-03 -0.14186031D-05 -0.11653540D-03 -0.21856503D-03
 -0.37260546D-03 -0.58230980D-03 -0.77865916D-03 -0.83142644D-03 -0.50831782D-03
  0.33535723D-03 -0.13232714D-03  0.14094874D-02  0.47363313D-03  0.14332467D-17
  0.13897671D-17  0.93752870D-18  0.31024510D-03  0.30083339D-03  0.20294042D-03
  0.39046459D-03  0.37861931D-03  0.25541435D-03 -0.12763622D-17 -0.76139555D-03
 -0.11764317D-02 -0.37814819D-17  0.10769403D-03 -0.13854592D-02 -0.16652015D-18
  0.10619530D-04 -0.69074637D-04 -0.63785166D-03 -0.29667070D-03  0.93452236D-03
 -0.40071919D-17  0.98563818D-18  0.22032237D-02 -0.16347106D-04  0.13501488D-03
 -0.11866777D-03  0.22047550D-17 -0.65606522D-18 -0.10955575D-03  0.18533250D-04
 -0.80341109D-04  0.61807859D-04  0.10558238D-17 -0.19428889D-18  0.94858469D-04
 -0.11235344D-17 -0.35530888D-04 -0.57435467D-04  0.18010564D-17  0.33498357D-03
  0.98458882D-04  0.15695468D-17 -0.22839090D-03  0.73847518D-04 -0.37307602D-17
  0.40407135D-18 -0.17866104D-03 -0.87222129D-04 -0.44061143D-18 -0.23842346D-03
 -0.18221500D-03 -0.77160263D-18  0.77440657D-03  0.44388139D-03  0.72693852D-18
 -0.29364237D-04 -0.52959610D-04 -0.78088915D-04  0.76492504D-03  0.92596593D-04
  0.22601504D-04 -0.33727087D-17  0.14978453D-03  0.33688892D-03  0.44834638D-17
  0.51698631D-03  0.34681142D-03  0.89288858D-18  0.65135378D-05  0.63733380D-04
 -0.54831072D-04  0.52730120D-03 -0.47247012D-03  0.41271116D-18  0.99193573D-18
 -0.77149015D-04  0.36372502D-04  0.64604126D-04 -0.10097663D-03  0.11518724D-17
 -0.21478274D-17  0.18008083D-04
MO    4     MO 0.0        OCC NO =    2.0000000  ORB. ENERGY =   -1.201166
 -0.71047545D-02 -0.13242348D-01 -0.22454635D-01 -0.33986136D-01 -0.42404775D-01
 -0.36420046D-01 -0.13982364D-01  0.62543971D-04 -0.67618111D-01 -0.12681944D+00
 -0.21619935D+00 -0.33787750D+00 -0.45180660D+00 -0.48242411D+00 -0.29494464D+00
  0.19458656D+00  0.10330268D+00  0.44694094D-01 -0.77448657D-03  0.93398474D-15
  0.90565103D-15  0.61094683D-15 -0.26717677D+00 -0.25907160D+00 -0.17476817D+00
  0.37824124D+00  0.36676677D+00  0.24741869D+00 -0.17215586D-15 -0.61747557D-01
  0.87717246D-01 -0.59973597D-16 -0.31117053D-02  0.47568753D-02 -0.19377751D-17
  0.17634812D-03 -0.26172435D-03 -0.31005230D-01  0.12585048D-03  0.30879379D-01
  0.29771133D-15 -0.14844835D-16 -0.91678483D-01 -0.57022544D-02 -0.85488075D-03
  0.65571351D-02  0.23582995D-16 -0.16177975D-16 -0.22565752D-01  0.64187494D-04
  0.16467952D-04 -0.80655446D-04  0.12270189D-16 -0.11785068D-16  0.55577749D-03
 -0.44281869D-17  0.56015782D-02  0.19029894D-02  0.80715965D-18  0.14858255D-01
 -0.20780879D-01  0.12477401D-16 -0.31662990D-01  0.15071911D-01  0.92981247D-17
  0.62997820D-17  0.46641437D-03 -0.17825542D-03 -0.68640106D-17  0.62898517D-03
 -0.51845873D-03 -0.12035335D-16 -0.20282283D-02  0.10532250D-02  0.13607781D-16
 -0.77316748D-02 -0.14406838D-01 -0.24365574D-01 -0.36693204D-01 -0.45428567D-01
 -0.38657661D-01 -0.14709953D-01  0.68892986D-04 -0.49067012D-01 -0.92001107D-01
 -0.15652126D+00 -0.24306098D+00 -0.32255606D+00 -0.33992981D+00 -0.21077817D+00
  0.14020972D+00  0.73765866D-01  0.10016378D-01 -0.29781441D-03  0.14256151D-16
  0.13692863D-16  0.96023805D-17  0.26960921D+00  0.25895642D+00  0.18159812D+00
 -0.17333823D+00 -0.16648930D+00 -0.11675379D+00  0.17656769D-16  0.61151285D-01
 -0.28829851D-01  0.24804184D-16 -0.16522493D-02 -0.31933508D-03  0.10608730D-17
 -0.11283573D-03 -0.13466826D-04 -0.33044022D-01  0.74623320D-02  0.25581690D-01
  0.53237781D-16 -0.42953566D-16 -0.61709200D-01 -0.35204827D-02  0.99776887D-03
  0.25227139D-02  0.30384301D-17 -0.28677338D-16 -0.59013608D-02  0.41144259D-03
 -0.95543182D-04 -0.31589941D-03  0.53915397D-17 -0.10486106D-16 -0.49271828D-04
  0.23079171D-17 -0.49786437D-02  0.31199565D-02 -0.21320934D-16 -0.15483416D-01
  0.47265157D-02  0.14397183D-16  0.30419347D-01 -0.14086385D-01 -0.97316962D-17
 -0.26575164D-17  0.13046387D-03  0.14121755D-03  0.75160224D-18  0.23287975D-03
 -0.20459869D-03  0.72209471D-17 -0.62427135D-03 -0.21905395D-03 -0.19652016D-17
 -0.30372569D-02 -0.56610560D-02 -0.95992753D-02 -0.14528950D-01 -0.18127888D-01
 -0.15569438D-01 -0.59774101D-02  0.26737322D-04 -0.33959675D-01 -0.63692212D-01
 -0.10858126D+00 -0.16969137D+00 -0.22690970D+00 -0.24228665D+00 -0.14812931D+00
  0.97726721D-01  0.51700207D-01  0.25806055D-01  0.85357408D-03 -0.65967840D-16
 -0.63966614D-16 -0.43151500D-16 -0.11058698D+00 -0.10723217D+00 -0.72338190D-01
 -0.12722715D+00 -0.12336754D+00 -0.83223013D-01 -0.11613617D-16 -0.28220902D-01
 -0.31609181D-01  0.28823965D-17 -0.17371665D-02 -0.24814095D-02 -0.63295804D-18
  0.11262183D-03 -0.19925308D-04 -0.14379109D-01 -0.10883557D-02  0.15467464D-01
  0.19373361D-16  0.67994771D-17  0.16500840D-01 -0.37567733D-02 -0.15194768D-02
  0.52762501D-02 -0.74217413D-17 -0.44480991D-18  0.22616698D-02  0.10127008D-03
 -0.19293300D-03  0.91662917D-04 -0.98728802D-18 -0.26944679D-17  0.35597566D-04
  0.17768991D-17  0.16025690D-02 -0.36632332D-02  0.41198655D-18  0.35660967D-02
  0.59291698D-02 -0.57426839D-17 -0.83738036D-02  0.50605300D-02 -0.41901790D-16
 -0.13651365D-17  0.22157364D-03 -0.78051733D-05  0.11214949D-17 -0.16112000D-03
 -0.42193216D-03  0.29739146D-17 -0.50360093D-03  0.44534768D-03  0.14439146D-16
  0.58606693D-02  0.10569958D-01  0.15585398D-01  0.43956456D-02 -0.52324260D-03
  0.13146783D-04 -0.45312060D-18  0.38904149D-02 -0.68921209D-02  0.13063926D-17
 -0.23643518D-03 -0.88392950D-03  0.12570506D-17 -0.14245369D-03  0.20660648D-03
 -0.59798627D-03 -0.61023004D-03  0.12082163D-02 -0.28886543D-17  0.72394855D-17
 -0.15383963D-02  0.26562328D-04 -0.79372186D-04  0.52809858D-04 -0.86005604D-19
 -0.11790369D-17 -0.21790786D-03
MO    5     MO 0.0        OCC NO =    2.0000000  ORB. ENERGY =   -1.039379
  0.34992391D-02  0.65221314D-02  0.11059374D-01  0.16738877D-01  0.20885232D-01
  0.17937629D-01  0.68866045D-02 -0.30804204D-04  0.43620255D-01  0.81810869D-01
  0.13946960D+00  0.21796383D+00  0.29145917D+00  0.31121045D+00  0.19026796D+00
 -0.12552725D+00 -0.67912842D-01 -0.36805803D-01 -0.96953051D-03  0.39214002D-15
  0.38024391D-15  0.25651029D-15  0.16600890D+00  0.16097279D+00  0.10859129D+00
 -0.13830549D+00 -0.13410980D+00 -0.90469681D-01 -0.66556390D-16  0.41370468D-01
 -0.33280812D-01 -0.36499156D-16  0.47465740D-02 -0.15979749D-02 -0.74474087D-17
 -0.17395453D-04  0.34428878D-04  0.12898014D-01 -0.78412920D-02 -0.50567223D-02
 -0.12188912D-14  0.33290715D-15  0.48976264D-01  0.27147051D-02 -0.23242246D-02
 -0.39048053D-03  0.11563680D-15 -0.59887759D-18  0.13976215D-01 -0.72321997D-05
 -0.34077009D-03  0.34800229D-03  0.81608083D-17 -0.17849978D-16 -0.20521530D-03
 -0.26848058D-17 -0.20881033D-02  0.28169068D-02 -0.49241654D-17 -0.99076188D-02
  0.85805777D-02  0.12978583D-16  0.16171929D-01 -0.17031298D-01  0.55759391D-17
  0.58618833D-17 -0.16049561D-03 -0.65424074D-04 -0.42232242D-17 -0.35717622D-03
  0.81427025D-03 -0.13362426D-16  0.83866305D-03 -0.61799803D-03  0.20779071D-16
  0.86005979D-03  0.16025948D-02  0.27103895D-02  0.40816965D-02  0.50534050D-02
  0.43002196D-02  0.16363129D-02 -0.76635513D-05 -0.12925383D-02 -0.24235215D-02
 -0.41231311D-02 -0.64027873D-02 -0.84968711D-02 -0.89545358D-02 -0.55523835D-02
  0.36934476D-02  0.39784469D-03  0.40851008D-02  0.75063884D-03 -0.16788544D-15
 -0.16125196D-15 -0.11308100D-15 -0.40819491D-01 -0.39206633D-01 -0.27494398D-01
  0.37894862D+00  0.36397562D+00  0.25524483D+00 -0.13803169D-16 -0.47994247D-02
  0.80549194D-01  0.16508886D-16 -0.12530117D-03 -0.10151353D-02  0.34135532D-17
  0.24037980D-04 -0.41511568D-04 -0.38182289D-04 -0.71357409D-02  0.71739232D-02
 -0.38554321D-16  0.11294783D-15  0.83731035D-01 -0.12763349D-02 -0.14762263D-02
  0.27525612D-02  0.29047313D-16 -0.37523637D-16  0.12652876D-01 -0.23155362D-03
 -0.24077069D-03  0.47232431D-03  0.31027893D-17 -0.45770226D-17 -0.81003523D-03
  0.60150968D-17  0.66993954D-03  0.12844986D-02 -0.20243683D-16  0.37811509D-03
 -0.11304115D-01  0.21983929D-17 -0.23879337D-02  0.74506186D-02  0.10135873D-17
 -0.44777670D-17 -0.31742631D-03 -0.41899088D-03  0.10324746D-16 -0.35692369D-03
  0.12604226D-03  0.31085548D-17  0.13092026D-02  0.11309304D-02 -0.14679484D-16
 -0.68762476D-02 -0.12816441D-01 -0.21732437D-01 -0.32893056D-01 -0.41040930D-01
 -0.35248685D-01 -0.13532656D-01  0.60532399D-04 -0.85234525D-01 -0.15985946D+00
 -0.27252534D+00 -0.42590406D+00 -0.56951488D+00 -0.60810912D+00 -0.37178599D+00
  0.24528182D+00  0.13368785D+00  0.65099517D-01  0.22729472D-02 -0.25644769D-15
 -0.24866799D-15 -0.16774996D-15 -0.27993311D+00 -0.27144095D+00 -0.18311246D+00
  0.35625245D-02  0.34544504D-02  0.23303519D-02 -0.56657445D-16 -0.70498603D-01
 -0.28141963D-02  0.94506649D-17 -0.39478011D-02 -0.22975579D-02  0.11690316D-17
 -0.61326169D-04  0.10120539D-03 -0.20261169D-01  0.11157658D-01  0.91035113D-02
  0.52088437D-16  0.24210716D-16 -0.87456982D-02 -0.67455465D-02  0.13677424D-02
  0.53778041D-02 -0.10495457D-16 -0.81159285D-17  0.60732412D-02  0.16476451D-03
 -0.36816856D-03  0.20340405D-03 -0.15601978D-17 -0.31390488D-17  0.10626808D-02
  0.10186688D-16  0.30165455D-02 -0.15763957D-02 -0.83353778D-17  0.92646229D-02
  0.52985967D-02 -0.22224687D-16 -0.18314259D-01 -0.56940971D-03 -0.70507278D-16
 -0.28527736D-17  0.67618293D-03  0.28634255D-03  0.92895240D-18  0.51899300D-03
  0.92241910D-03  0.76293684D-17 -0.25475418D-02 -0.17814467D-02  0.29805975D-16
  0.21124927D-01  0.38099676D-01  0.56177949D-01  0.24585360D-01 -0.27100889D-02
 -0.11304780D-03 -0.37889289D-19  0.17731161D-01 -0.21899181D-01 -0.22716678D-17
  0.12901889D-02 -0.53647790D-02 -0.67807144D-17 -0.43293099D-03  0.48426156D-03
 -0.24148524D-02 -0.86688961D-03  0.32817420D-02 -0.51840479D-18 -0.21528661D-17
 -0.73448121D-02  0.39210838D-04 -0.43739640D-03  0.39818556D-03 -0.28905862D-17
  0.67642455D-17 -0.12544273D-03
MO    6     MO 0.0        OCC NO =    2.0000000  ORB. ENERGY =   -0.662068
  0.14705253D-02  0.27408700D-02  0.46476074D-02  0.70343702D-02  0.87768402D-02
  0.75381352D-02  0.28940367D-02 -0.12945204D-04  0.54701226D-01  0.10259350D+00
  0.17489943D+00  0.27333377D+00  0.36549933D+00  0.39026808D+00  0.23860225D+00
 -0.15741527D+00 -0.89852250D-01 -0.71636193D-01 -0.39054186D-02 -0.38168491D-15
 -0.37010597D-15 -0.24967130D-15 -0.18337088D+00 -0.17780807D+00 -0.11994827D+00
  0.39613408D+00  0.38411681D+00  0.25912293D+00 -0.28245238D-15 -0.35071191D-01
  0.83479825D-01  0.98112421D-18 -0.14949983D-02  0.63633929D-02 -0.60575820D-17
 -0.15961982D-04 -0.12074984D-03 -0.15232462D-01 -0.60581609D-02  0.21290623D-01
 -0.60942932D-15 -0.16858089D-15 -0.30045126D-01 -0.37399673D-02 -0.20281515D-02
  0.57681188D-02 -0.36398344D-16 -0.66843443D-16 -0.31533668D-02 -0.29792310D-05
 -0.38141012D-03  0.38438935D-03  0.18834191D-16 -0.72855522D-17 -0.13204458D-02
  0.10501459D-15  0.30890730D-02  0.32073460D-02 -0.46690788D-16 -0.68257379D-03
 -0.27841302D-02 -0.26835299D-15 -0.85846453D-02 -0.68379079D-02  0.45300421D-15
 -0.63187615D-17  0.47369293D-03  0.22782408D-03 -0.15312939D-16  0.25201943D-03
 -0.59803914D-03  0.34269224D-16 -0.16730982D-02 -0.85433087D-04 -0.50293075D-17
 -0.16724410D-02 -0.31163475D-02 -0.52705249D-02 -0.79371184D-02 -0.98266675D-02
 -0.83620505D-02 -0.31819145D-02  0.14902263D-04 -0.53695389D-01 -0.10067936D+00
 -0.17128554D+00 -0.26598836D+00 -0.35298202D+00 -0.37199460D+00 -0.23066038D+00
  0.15343537D+00  0.84460296D-01  0.52251703D-01  0.32359180D-02  0.12636289D-16
  0.12137005D-16  0.85113054D-17  0.37762328D-01  0.36270264D-01  0.25435213D-01
  0.28949697D+00  0.27805838D+00  0.19499373D+00  0.21103038D-17  0.16093984D-01
  0.66742850D-01  0.16618823D-16  0.31919362D-02  0.37823261D-02 -0.38943875D-17
  0.69291081D-04  0.18539097D-03  0.72897401D-03  0.30061490D-02 -0.37351230D-02
  0.16000644D-15 -0.11425299D-15  0.38082475D-01 -0.54415901D-03 -0.52209642D-03
  0.10662554D-02 -0.56829388D-16  0.32486894D-16  0.89721779D-02 -0.70922971D-03
  0.55172531D-04  0.65405718D-03  0.54858283D-17 -0.11609353D-16 -0.49860014D-03
 -0.54101499D-16 -0.12882619D-02  0.15645347D-02  0.87255446D-16 -0.66828574D-02
 -0.47013158D-02  0.75049049D-16  0.10547643D-01  0.77115885D-05 -0.14181564D-15
  0.75236710D-17  0.11698032D-03 -0.12319268D-03 -0.22479714D-16 -0.45044339D-03
 -0.48164692D-03 -0.91298659D-19  0.99502436D-04  0.85122497D-03  0.47570919D-16
  0.15419667D-02  0.28740275D-02  0.48733984D-02  0.73761155D-02  0.92032385D-02