 Molden2AIM, Version 4.0.0 (06/02/2016)           Time: Sat Jun 30 06:14:46 2018
GAUSSIAN             12 MOL ORBITALS    252 PRIMITIVES        4 NUCLEI
  O    1    (CENTRE  1)  -0.00947131  0.00000000  0.00640995  CHARGE =  8.0
  N    2    (CENTRE  2)   0.01225298  0.00000000  2.24022119  CHARGE =  7.0
  O    3    (CENTRE  3)   2.38356447  0.00000000  3.25311817  CHARGE =  8.0
  H    4    (CENTRE  4)   3.55613386  0.00000000  1.82081915  CHARGE =  1.0
CENTRE ASSIGNMENTS    1  1  1  1  1  1  1  1  1  1  1  1  1  1  1  1  1  1  1  1
CENTRE ASSIGNMENTS    1  1  1  1  1  1  1  1  1  1  1  1  1  1  1  1  1  1  1  1
CENTRE ASSIGNMENTS    1  1  1  1  1  1  1  1  1  1  1  1  1  1  1  1  1  1  1  1
CENTRE ASSIGNMENTS    1  1  1  1  1  1  1  1  1  1  1  1  1  1  1  2  2  2  2  2
CENTRE ASSIGNMENTS    2  2  2  2  2  2  2  2  2  2  2  2  2  2  2  2  2  2  2  2
CENTRE ASSIGNMENTS    2  2  2  2  2  2  2  2  2  2  2  2  2  2  2  2  2  2  2  2
CENTRE ASSIGNMENTS    2  2  2  2  2  2  2  2  2  2  2  2  2  2  2  2  2  2  2  2
CENTRE ASSIGNMENTS    2  2  2  2  2  2  2  2  2  2  3  3  3  3  3  3  3  3  3  3
CENTRE ASSIGNMENTS    3  3  3  3  3  3  3  3  3  3  3  3  3  3  3  3  3  3  3  3
CENTRE ASSIGNMENTS    3  3  3  3  3  3  3  3  3  3  3  3  3  3  3  3  3  3  3  3
CENTRE ASSIGNMENTS    3  3  3  3  3  3  3  3  3  3  3  3  3  3  3  3  3  3  3  3
CENTRE ASSIGNMENTS    3  3  3  3  3  4  4  4  4  4  4  4  4  4  4  4  4  4  4  4
CENTRE ASSIGNMENTS    4  4  4  4  4  4  4  4  4  4  4  4
TYPE ASSIGNMENTS      1  1  1  1  1  1  1  1  1  1  1  1  1  1  1  1  1  1  1  2
TYPE ASSIGNMENTS      2  2  3  3  3  4  4  4  2  3  4  2  3  4  2  3  4  5  6  7
TYPE ASSIGNMENTS      8  9 10  5  6  7  8  9 10  5  6  7  8  9 10 11 12 13 17 14
TYPE ASSIGNMENTS     15 18 19 16 20 11 12 13 17 14 15 18 19 16 20  1  1  1  1  1
TYPE ASSIGNMENTS      1  1  1  1  1  1  1  1  1  1  1  1  1  1  2  2  2  3  3  3
TYPE ASSIGNMENTS      4  4  4  2  3  4  2  3  4  2  3  4  5  6  7  8  9 10  5  6
TYPE ASSIGNMENTS      7  8  9 10  5  6  7  8  9 10 11 12 13 17 14 15 18 19 16 20
TYPE ASSIGNMENTS     11 12 13 17 14 15 18 19 16 20  1  1  1  1  1  1  1  1  1  1
TYPE ASSIGNMENTS      1  1  1  1  1  1  1  1  1  2  2  2  3  3  3  4  4  4  2  3
TYPE ASSIGNMENTS      4  2  3  4  2  3  4  5  6  7  8  9 10  5  6  7  8  9 10  5
TYPE ASSIGNMENTS      6  7  8  9 10 11 12 13 17 14 15 18 19 16 20 11 12 13 17 14
TYPE ASSIGNMENTS     15 18 19 16 20  1  1  1  1  1  1  2  3  4  2  3  4  2  3  4
TYPE ASSIGNMENTS      5  6  7  8  9 10  5  6  7  8  9 10
EXPONENTS  0.1533000D+05 0.2299000D+04 0.5224000D+03 0.1473000D+03 0.4755000D+02
EXPONENTS  0.1676000D+02 0.6207000D+01 0.6882000D+00 0.1533000D+05 0.2299000D+04
EXPONENTS  0.5224000D+03 0.1473000D+03 0.4755000D+02 0.1676000D+02 0.6207000D+01
EXPONENTS  0.6882000D+00 0.1752000D+01 0.2384000D+00 0.7376000D-01 0.3446000D+02
EXPONENTS  0.7749000D+01 0.2280000D+01 0.3446000D+02 0.7749000D+01 0.2280000D+01
EXPONENTS  0.3446000D+02 0.7749000D+01 0.2280000D+01 0.7156000D+00 0.7156000D+00
EXPONENTS  0.7156000D+00 0.2140000D+00 0.2140000D+00 0.2140000D+00 0.5974000D-01
EXPONENTS  0.5974000D-01 0.5974000D-01 0.2314000D+01 0.2314000D+01 0.2314000D+01
EXPONENTS  0.2314000D+01 0.2314000D+01 0.2314000D+01 0.6450000D+00 0.6450000D+00
EXPONENTS  0.6450000D+00 0.6450000D+00 0.6450000D+00 0.6450000D+00 0.2140000D+00
EXPONENTS  0.2140000D+00 0.2140000D+00 0.2140000D+00 0.2140000D+00 0.2140000D+00
EXPONENTS  0.1428000D+01 0.1428000D+01 0.1428000D+01 0.1428000D+01 0.1428000D+01
EXPONENTS  0.1428000D+01 0.1428000D+01 0.1428000D+01 0.1428000D+01 0.1428000D+01
EXPONENTS  0.5000000D+00 0.5000000D+00 0.5000000D+00 0.5000000D+00 0.5000000D+00
EXPONENTS  0.5000000D+00 0.5000000D+00 0.5000000D+00 0.5000000D+00 0.5000000D+00
EXPONENTS  0.1142000D+05 0.1712000D+04 0.3893000D+03 0.1100000D+03 0.3557000D+02
EXPONENTS  0.1254000D+02 0.4644000D+01 0.5118000D+00 0.1142000D+05 0.1712000D+04
EXPONENTS  0.3893000D+03 0.1100000D+03 0.3557000D+02 0.1254000D+02 0.4644000D+01
EXPONENTS  0.5118000D+00 0.1293000D+01 0.1787000D+00 0.5760000D-01 0.2663000D+02
EXPONENTS  0.5948000D+01 0.1742000D+01 0.2663000D+02 0.5948000D+01 0.1742000D+01
EXPONENTS  0.2663000D+02 0.5948000D+01 0.1742000D+01 0.5550000D+00 0.5550000D+00
EXPONENTS  0.5550000D+00 0.1725000D+00 0.1725000D+00 0.1725000D+00 0.4910000D-01
EXPONENTS  0.4910000D-01 0.4910000D-01 0.1654000D+01 0.1654000D+01 0.1654000D+01
EXPONENTS  0.1654000D+01 0.1654000D+01 0.1654000D+01 0.4690000D+00 0.4690000D+00
EXPONENTS  0.4690000D+00 0.4690000D+00 0.4690000D+00 0.4690000D+00 0.1510000D+00
EXPONENTS  0.1510000D+00 0.1510000D+00 0.1510000D+00 0.1510000D+00 0.1510000D+00
EXPONENTS  0.1093000D+01 0.1093000D+01 0.1093000D+01 0.1093000D+01 0.1093000D+01
EXPONENTS  0.1093000D+01 0.1093000D+01 0.1093000D+01 0.1093000D+01 0.1093000D+01
EXPONENTS  0.3640000D+00 0.3640000D+00 0.3640000D+00 0.3640000D+00 0.3640000D+00
EXPONENTS  0.3640000D+00 0.3640000D+00 0.3640000D+00 0.3640000D+00 0.3640000D+00
EXPONENTS  0.1533000D+05 0.2299000D+04 0.5224000D+03 0.1473000D+03 0.4755000D+02
EXPONENTS  0.1676000D+02 0.6207000D+01 0.6882000D+00 0.1533000D+05 0.2299000D+04
EXPONENTS  0.5224000D+03 0.1473000D+03 0.4755000D+02 0.1676000D+02 0.6207000D+01
EXPONENTS  0.6882000D+00 0.1752000D+01 0.2384000D+00 0.7376000D-01 0.3446000D+02
EXPONENTS  0.7749000D+01 0.2280000D+01 0.3446000D+02 0.7749000D+01 0.2280000D+01
EXPONENTS  0.3446000D+02 0.7749000D+01 0.2280000D+01 0.7156000D+00 0.7156000D+00
EXPONENTS  0.7156000D+00 0.2140000D+00 0.2140000D+00 0.2140000D+00 0.5974000D-01
EXPONENTS  0.5974000D-01 0.5974000D-01 0.2314000D+01 0.2314000D+01 0.2314000D+01
EXPONENTS  0.2314000D+01 0.2314000D+01 0.2314000D+01 0.6450000D+00 0.6450000D+00
EXPONENTS  0.6450000D+00 0.6450000D+00 0.6450000D+00 0.6450000D+00 0.2140000D+00
EXPONENTS  0.2140000D+00 0.2140000D+00 0.2140000D+00 0.2140000D+00 0.2140000D+00
EXPONENTS  0.1428000D+01 0.1428000D+01 0.1428000D+01 0.1428000D+01 0.1428000D+01
EXPONENTS  0.1428000D+01 0.1428000D+01 0.1428000D+01 0.1428000D+01 0.1428000D+01
EXPONENTS  0.5000000D+00 0.5000000D+00 0.5000000D+00 0.5000000D+00 0.5000000D+00
EXPONENTS  0.5000000D+00 0.5000000D+00 0.5000000D+00 0.5000000D+00 0.5000000D+00
EXPONENTS  0.3387000D+02 0.5095000D+01 0.1159000D+01 0.3258000D+00 0.1027000D+00
EXPONENTS  0.2526000D-01 0.1407000D+01 0.1407000D+01 0.1407000D+01 0.3880000D+00
EXPONENTS  0.3880000D+00 0.3880000D+00 0.1020000D+00 0.1020000D+00 0.1020000D+00
EXPONENTS  0.1057000D+01 0.1057000D+01 0.1057000D+01 0.1057000D+01 0.1057000D+01
EXPONENTS  0.1057000D+01 0.2470000D+00 0.2470000D+00 0.2470000D+00 0.2470000D+00
EXPONENTS  0.2470000D+00 0.2470000D+00
MO    1     MO 0.0        OCC NO =    2.0000000  ORB. ENERGY =  -19.045996
  0.11204203D-03  0.20883192D-03  0.35410975D-03  0.53596160D-03  0.66872359D-03
  0.57434438D-03  0.22050198D-03 -0.98631887D-06 -0.36621939D-04 -0.68685354D-04
 -0.11709347D-03 -0.18299430D-03 -0.24469825D-03 -0.26128068D-03 -0.15974189D-03
  0.10538799D-03 -0.10301929D-04 -0.25354674D-03 -0.13614867D-03  0.17123826D-03
  0.16604351D-03  0.11201197D-03  0.44747476D-15  0.43389999D-15  0.29270637D-15
 -0.64715525D-04 -0.62752290D-04 -0.42332324D-04 -0.97587953D-04 -0.11298907D-15
  0.19714099D-03 -0.41062775D-04 -0.46972624D-17  0.14800067D-05 -0.51085068D-05
  0.48009535D-20 -0.28659781D-05  0.22462528D-03 -0.95765155D-04 -0.12886012D-03
  0.10508156D-17  0.15977829D-03 -0.37033285D-17 -0.20612675D-03  0.17330720D-04
  0.18879603D-03 -0.49968437D-18 -0.17751889D-03  0.17761477D-17 -0.29292258D-04
 -0.92757800D-06  0.30219836D-04 -0.27537193D-19  0.13278512D-04 -0.15085559D-18
  0.83641610D-04  0.14854117D-18 -0.25084903D-05  0.42496673D-03  0.54587453D-18
 -0.71656629D-04 -0.67589156D-03 -0.99149803D-18  0.79182100D-04  0.91751257D-18
  0.17030892D-04 -0.91169208D-19  0.62388977D-04 -0.78619757D-04 -0.26474257D-18
 -0.18943667D-03  0.27527079D-04  0.53825019D-18  0.22697362D-05 -0.55844996D-18
  0.20722995D-03  0.38614249D-03  0.65306375D-03  0.98347783D-03  0.12176093D-02
  0.10361306D-02  0.39426681D-03 -0.18465197D-05 -0.14040459D-03 -0.26325992D-03
 -0.44788345D-03 -0.69551571D-03 -0.92298980D-03 -0.97270455D-03 -0.60313888D-03
  0.40120821D-03 -0.34895894D-03  0.19302319D-02  0.61680833D-03 -0.86832653D-03
 -0.83401725D-03 -0.58487047D-03  0.40431060D-18  0.38833549D-18  0.27232765D-18
 -0.36765293D-03 -0.35312624D-03 -0.24763650D-03  0.17332707D-02 -0.29660215D-18
  0.10778377D-02  0.81214770D-03  0.51577777D-18 -0.58206628D-05  0.56599043D-04
  0.30137920D-19 -0.87999664D-06  0.61125895D-03 -0.30692080D-03 -0.30433815D-03
 -0.17245402D-17  0.15231734D-02  0.80185052D-17  0.57402002D-03 -0.30534049D-03
 -0.26867953D-03  0.17757316D-17  0.33140806D-03  0.14825031D-17  0.50083158D-04
 -0.54541508D-04  0.44583498D-05  0.45177347D-19 -0.72772210D-05 -0.26329210D-18
  0.99296363D-04  0.32729934D-19 -0.79702361D-04 -0.43733357D-03  0.14623732D-17
  0.60702591D-03  0.13944449D-03 -0.15605630D-17 -0.36791883D-03  0.23471758D-17
  0.27287284D-04 -0.32540788D-19  0.99817503D-05 -0.10715724D-04  0.45900191D-18
 -0.15116114D-03 -0.71146128D-04 -0.36137954D-18  0.12121589D-03 -0.15134630D-18
  0.49774647D+00  0.92773537D+00  0.15731318D+01  0.23810082D+01  0.29708031D+01
  0.25515237D+01  0.97957955D+00 -0.43817194D-02 -0.41131295D-03 -0.77142764D-03
 -0.13151150D-02 -0.20552688D-02 -0.27482860D-02 -0.29345287D-02 -0.17941133D-02
  0.11836470D-02  0.53477999D-01 -0.14178686D-02 -0.81042758D-03 -0.21125076D-02
 -0.20484217D-02 -0.13818532D-02 -0.12843463D-16 -0.12453839D-16 -0.84012864D-17
 -0.74906080D-02 -0.72633700D-02 -0.48998265D-02  0.13143284D-02  0.75178388D-18
  0.58692913D-04  0.10057209D-02 -0.99623616D-19  0.82565199D-03  0.64823713D-04
  0.32288981D-19  0.38474134D-04  0.70926687D-03 -0.15068434D-02  0.79757650D-03
 -0.71198718D-17 -0.84244485D-03  0.13914843D-18 -0.71045204D-03  0.49986760D-03
  0.21058444D-03  0.33135232D-17 -0.13358498D-02  0.58557437D-18 -0.16954004D-03
  0.17483453D-03 -0.52944817D-05  0.10575855D-18 -0.11820622D-03  0.13991554D-18
 -0.31869106D-03  0.30741115D-18 -0.31078874D-04 -0.10703235D-02  0.15989980D-17
 -0.97396787D-03  0.20263966D-02 -0.25212315D-17  0.10672045D-02  0.41144056D-17
  0.17847386D-03 -0.11926439D-18 -0.13745618D-03 -0.14968509D-03 -0.67039157D-18
  0.82613410D-03 -0.38573650D-03  0.10281847D-17 -0.41376555D-03 -0.27138025D-17
  0.16566247D-03  0.29877909D-03  0.44054959D-03  0.83643651D-06 -0.16020142D-03
 -0.25163110D-04  0.45307404D-03 -0.72857391D-18 -0.38991942D-03  0.48280358D-03
 -0.94838014D-18 -0.40210315D-03  0.73310887D-04 -0.37774599D-19 -0.46497142D-04
 -0.28791276D-03  0.94370126D-03 -0.65578850D-03  0.60914136D-18  0.28282899D-02
 -0.12513325D-17 -0.29269846D-04  0.35506441D-04 -0.62365952D-05  0.69749979D-19
  0.85013390D-04 -0.11103598D-18
MO    2     MO 0.0        OCC NO =    2.0000000  ORB. ENERGY =  -19.037205
  0.49770869D+00  0.92766497D+00  0.15730124D+01  0.23808276D+01  0.29705777D+01
  0.25513300D+01  0.97950521D+00 -0.43813869D-02 -0.39017314D-03 -0.73177940D-03
 -0.12475235D-02 -0.19496363D-02 -0.26070353D-02 -0.27837058D-02 -0.17019032D-02
  0.11228123D-02  0.53548396D-01 -0.62843291D-03 -0.62380579D-03  0.10723524D-02
  0.10398211D-02  0.70145719D-03  0.83318838D-16  0.80791246D-16  0.54501297D-16
  0.86232386D-02  0.83616407D-02  0.56407134D-02 -0.20218217D-03 -0.11410706D-16
  0.15353427D-03 -0.55727194D-04 -0.45846611D-18 -0.11445611D-02 -0.34091893D-05
 -0.38381850D-19 -0.55880573D-04  0.12694418D-03 -0.28119597D-02  0.26850155D-02
  0.66299182D-17  0.30955161D-03  0.21458244D-16  0.96448536D-04  0.55179959D-03
 -0.64824813D-03 -0.47153993D-18 -0.33590074D-03 -0.74331298D-17  0.12179912D-03
  0.12007251D-03 -0.24187163D-03  0.60167408D-19 -0.69305529D-06 -0.37328411D-18
 -0.32429137D-05 -0.32470046D-18  0.38824326D-03  0.25540826D-03  0.21941555D-17
 -0.54300260D-03 -0.24567952D-03 -0.12200541D-17 -0.62172719D-03 -0.47088341D-18
  0.37173880D-04  0.46730676D-18 -0.25877283D-03 -0.24770391D-04  0.49815477D-18
  0.27585682D-03 -0.86751249D-04 -0.19000750D-17  0.50046167D-03  0.11681972D-18
  0.46164793D-03  0.86021294D-03  0.14548357D-02  0.21909020D-02  0.27124788D-02
  0.23081970D-02  0.87831156D-03 -0.41135077D-05 -0.33881902D-03 -0.63528883D-03
 -0.10808153D-02 -0.16783921D-02 -0.22273239D-02 -0.23472936D-02 -0.14554718D-02
  0.96818040D-03  0.54801966D-03  0.84039967D-03  0.25743042D-03  0.23018537D-04
  0.22109029D-04  0.15504377D-04 -0.26200559D-17 -0.25165324D-17 -0.17647662D-17
 -0.10249982D-02 -0.98449848D-03 -0.69039829D-03 -0.12911919D-03  0.29317768D-17
 -0.97706255D-03  0.76053768D-04  0.49832552D-18 -0.38078437D-03  0.31459329D-05
 -0.25338164D-20 -0.31489334D-04 -0.10111180D-02 -0.53804253D-03  0.15491606D-02
  0.96045994D-18  0.76108435D-03  0.19650282D-17  0.46571864D-03  0.25955086D-03
 -0.72526949D-03 -0.79315930D-18 -0.85161416D-03 -0.52801733D-17  0.47774006D-04
  0.11894875D-04 -0.59668881D-04 -0.56803508D-19 -0.95012093D-04 -0.12328170D-18
 -0.19979615D-04 -0.11739684D-17  0.93505395D-03 -0.14095771D-04 -0.17171064D-17
 -0.15737243D-02  0.74034614D-04  0.52390114D-17 -0.12314376D-02 -0.42725778D-18
  0.64527801D-04 -0.27313012D-18  0.18834900D-03 -0.25914690D-04 -0.52075164D-18
 -0.47590700D-03 -0.16766871D-03  0.13401420D-17 -0.89139996D-04 -0.85332764D-19
 -0.33452691D-04 -0.62351512D-04 -0.10572751D-03 -0.16002350D-03 -0.19966261D-03
 -0.17148355D-03 -0.65835871D-04  0.29448789D-06 -0.15981871D-04 -0.29974395D-04
 -0.51099772D-04 -0.79858997D-04 -0.10678670D-03 -0.11402329D-03 -0.69711607D-04
  0.45991484D-04 -0.79714622D-04  0.61852329D-03  0.17339810D-03  0.17056656D-03
  0.16539219D-03  0.11157259D-03 -0.33755474D-18 -0.32731455D-18 -0.22080446D-18
 -0.20410205D-03 -0.19791033D-03 -0.13350914D-03 -0.26302622D-03  0.29423522D-18
  0.80603568D-04 -0.75511739D-04  0.20589826D-18  0.12310302D-03 -0.11845437D-04
  0.14948919D-19  0.26430467D-05 -0.68071999D-03  0.94096465D-04  0.58662353D-03
  0.16129402D-17  0.13367884D-02  0.14135584D-18  0.56771487D-03 -0.11877766D-03
 -0.44893721D-03 -0.11373161D-17 -0.79082938D-03 -0.15463381D-18  0.91230055D-04
 -0.30296605D-04 -0.60933451D-04 -0.13391806D-18 -0.13052907D-03 -0.11284931D-18
 -0.18702365D-03 -0.23840097D-18  0.16369673D-03  0.17707370D-03  0.41833642D-18
 -0.53365370D-04  0.38399726D-03  0.29686648D-18 -0.43772483D-03 -0.89460201D-18
 -0.12169841D-03  0.57682106D-19  0.20678006D-04 -0.64468204D-04  0.12107128D-18
 -0.13689480D-03  0.42956342D-03 -0.29411760D-18  0.74860778D-04  0.10088311D-17
 -0.50649880D-04 -0.91349145D-04 -0.13469426D-03 -0.44012610D-03 -0.21241661D-03
 -0.52246973D-05 -0.37848950D-04  0.54161776D-18 -0.26117264D-03  0.10030005D-03
  0.16244286D-18 -0.18560662D-03  0.44610663D-04 -0.27871004D-19 -0.28782828D-04
  0.17534573D-03 -0.22803958D-04 -0.15254177D-03 -0.46038603D-18 -0.94150277D-04
  0.47130529D-18 -0.10641646D-04  0.20096618D-04 -0.94549723D-05  0.69043993D-19
 -0.22885093D-04  0.61160044D-19
MO    3     MO 0.0        OCC NO =    2.0000000  ORB. ENERGY =  -14.348262
  0.35944208D-03  0.66995378D-03  0.11360196D-02  0.17194186D-02  0.21453324D-02
  0.18425545D-02  0.70739248D-03 -0.31642100D-05 -0.29816838D-03 -0.55922219D-03
 -0.95335123D-03 -0.14899024D-02 -0.19922834D-02 -0.21272942D-02 -0.13005860D-02
  0.85804762D-03  0.90811749D-03 -0.14362741D-02 -0.65937613D-03  0.58483918D-04
  0.56709728D-04  0.38256047D-04  0.57786724D-15  0.56033684D-15  0.37799992D-15
  0.30506805D-02  0.29581339D-02  0.19955396D-02 -0.10116846D-03 -0.13997987D-16
 -0.18977053D-02  0.48801715D-03  0.22944368D-17 -0.18122062D-02  0.14259907D-04
  0.10862178D-18 -0.81655680D-04 -0.94925097D-03 -0.82158004D-03  0.17708310D-02
 -0.57795932D-18 -0.44546028D-03  0.10124649D-17  0.13376613D-02  0.12451693D-02
 -0.25828306D-02 -0.14773447D-18  0.26748088D-03 -0.50025695D-17  0.19706805D-03
  0.20674007D-03 -0.40380812D-03  0.96037918D-19  0.15968468D-03  0.11850313D-17
  0.22172703D-04  0.24082574D-17 -0.16220150D-02  0.37746295D-04  0.18994642D-17
  0.27336470D-02 -0.10426440D-03 -0.91242363D-17  0.21323979D-02 -0.12252337D-17
 -0.16226020D-04 -0.12376055D-18 -0.65434635D-03 -0.66473893D-04  0.42927422D-19
  0.97191574D-03  0.11515195D-03  0.32835422D-18  0.99112331D-03  0.37732421D-18
  0.41281869D+00  0.76922684D+00  0.13009554D+01  0.19591668D+01  0.24255756D+01
  0.20640553D+01  0.78541113D+00 -0.36784154D-02 -0.17262519D-02 -0.32367385D-02
 -0.55066553D-02 -0.85512542D-02 -0.11348012D-01 -0.11959247D-01 -0.74154958D-02
  0.49327907D-02  0.41290312D-01  0.44033635D-03  0.71968562D-04  0.73788156D-02
  0.70872642D-02  0.49700788D-02  0.37054596D-16  0.35590496D-16  0.24958513D-16
 -0.54226996D-02 -0.52084382D-02 -0.36525164D-02 -0.57125277D-03 -0.36928562D-17
 -0.29420437D-02 -0.11976023D-02 -0.11135623D-17  0.28268596D-03 -0.32448676D-04
 -0.10362757D-18 -0.12280781D-04 -0.24388797D-03 -0.41372335D-02  0.43811215D-02
  0.37825669D-17 -0.30944397D-05  0.87639450D-18 -0.74650326D-03  0.35598023D-03
  0.39052304D-03 -0.15713204D-17  0.31487162D-03 -0.28664683D-17 -0.90266078D-04
  0.11620711D-03 -0.25941029D-04  0.20371141D-19  0.15311045D-03  0.73629077D-18
  0.14037790D-03 -0.15442859D-17 -0.13853691D-02 -0.36854484D-03 -0.31948678D-17
  0.23461957D-02 -0.52588858D-04  0.78277255D-17  0.18099117D-02  0.49100472D-18
 -0.13352145D-03 -0.16012890D-18  0.18426509D-03  0.29339955D-03 -0.18940458D-18
 -0.35796772D-03  0.10716481D-03  0.66979127D-18 -0.19482756D-03 -0.18961849D-18
  0.16932059D-03  0.31559179D-03  0.53513910D-03  0.80995796D-03  0.10105910D-02
  0.86796293D-03  0.33322785D-03 -0.14905486D-05 -0.12623684D-03 -0.23676032D-03
 -0.40362444D-03 -0.63078643D-03 -0.84348164D-03 -0.90064174D-03 -0.55063470D-03
  0.36327533D-03 -0.60414285D-04  0.13365193D-02  0.37475243D-04  0.10077851D-03
  0.97721257D-04  0.65922183D-04  0.24569963D-18  0.23824600D-18  0.16071934D-18
  0.20595246D-03  0.19970461D-03  0.13471955D-03 -0.12178295D-02 -0.79875906D-20
 -0.47618524D-03  0.10678545D-03  0.87171599D-18 -0.10234385D-02  0.76111434D-05
  0.58225899D-19 -0.23174368D-05  0.18413540D-02 -0.63231688D-03 -0.12090372D-02
 -0.25502123D-18  0.15528607D-02  0.42997110D-18 -0.59747172D-03  0.13909463D-04
  0.58356226D-03 -0.90018450D-18 -0.31083360D-04 -0.10655671D-17 -0.24415971D-03
 -0.16202820D-04  0.26036253D-03 -0.60575685D-19  0.40722935D-04 -0.31459320D-18
 -0.14436957D-03 -0.13431171D-17 -0.64927983D-04  0.71057465D-04 -0.97157693D-18
  0.31144761D-03  0.36205124D-03  0.50009283D-17 -0.11666366D-03  0.41749480D-17
  0.19742811D-03 -0.39929295D-19 -0.27977988D-03 -0.43774643D-03  0.70694060D-18
  0.77526286D-03 -0.15453789D-03 -0.58715272D-18  0.64076797D-04  0.30705629D-18
  0.11689829D-04  0.21083089D-04  0.31087002D-04 -0.77304388D-03  0.34915513D-03
  0.10291860D-04  0.60262169D-03  0.12363601D-17  0.78583334D-04  0.41817364D-03
 -0.98585387D-18  0.37018150D-03 -0.73462180D-04 -0.20393469D-18  0.47724062D-04
 -0.62347783D-03  0.45081372D-04  0.57839645D-03  0.60546655D-19 -0.26292753D-04
  0.16682844D-18  0.19952830D-04 -0.36946298D-04  0.16993468D-04  0.40058459D-18
 -0.46030237D-04 -0.17357759D-18
MO    4     MO 0.0        OCC NO =    2.0000000  ORB. ENERGY =   -1.208659
 -0.67709326D-02 -0.12620147D-01 -0.21399588D-01 -0.32389273D-01 -0.40412356D-01
 -0.34708825D-01 -0.13325393D-01  0.59605299D-04 -0.63530350D-01 -0.11915275D+00
 -0.20312931D+00 -0.31745157D+00 -0.42449324D+00 -0.45325981D+00 -0.27711416D+00
  0.18282309D+00  0.96940713D-01  0.40656844D-01 -0.59526563D-03  0.41256687D-01
  0.40005108D-01  0.26987210D-01  0.64399518D-15  0.62445870D-15  0.42125615D-15
  0.43131069D+00  0.41822629D+00  0.28213298D+00  0.10065384D-01  0.19667784D-15
  0.99890404D-01  0.11971940D-02 -0.37474820D-16  0.50894270D-02  0.15378252D-04
 -0.45131951D-17 -0.26540608D-03 -0.29472954D-01 -0.28825374D-01  0.58298329D-01
 -0.67035844D-16  0.12997242D-01  0.34654206D-15 -0.81581166D-02 -0.54752780D-02
  0.13633395D-01  0.32488369D-17  0.38710085D-02  0.56463591D-16  0.33226037D-03
 -0.10292333D-04 -0.32196804D-03  0.61224520D-17  0.23388472D-03 -0.12761179D-16
 -0.12893607D-02 -0.19221913D-16  0.14910462D-01 -0.15763691D-02  0.58653490D-17
 -0.21195586D-01  0.54444513D-02  0.51800389D-16 -0.23535799D-01  0.85295014D-17
 -0.52316320D-04  0.87433993D-18  0.81337037D-03 -0.66751426D-04 -0.13565400D-17
 -0.15754019D-02  0.22370039D-03 -0.12664798D-17 -0.86470925D-03 -0.21968486D-17
 -0.75186521D-02 -0.14009901D-01 -0.23694255D-01 -0.35682235D-01 -0.44176922D-01
 -0.37592567D-01 -0.14304665D-01  0.66994849D-04 -0.48643248D-01 -0.91206544D-01
 -0.15516947D+00 -0.24096180D+00 -0.31977033D+00 -0.33699403D+00 -0.20895780D+00
  0.13899881D+00  0.72860418D-01  0.12475191D-01 -0.18351318D-04  0.12622422D+00
  0.12123686D+00  0.85019653D-01  0.16334938D-15  0.15689512D-15  0.11002569D-15
 -0.27287603D+00 -0.26209417D+00 -0.18379852D+00  0.35269594D-01  0.47663370D-16
 -0.55016083D-01 -0.51020495D-03  0.10856999D-16 -0.22954349D-03 -0.81473472D-04
  0.19857301D-17  0.28255984D-04 -0.90553287D-02 -0.32909921D-01  0.41965250D-01
 -0.31086822D-16  0.66931004D-02 -0.80029242D-16 -0.37228312D-03 -0.40651538D-02
  0.44374369D-02 -0.17121213D-17  0.12108423D-02 -0.12379559D-16 -0.13545639D-03
  0.29810520D-03 -0.16264881D-03 -0.33641909D-17 -0.32047801D-03 -0.73978364D-17
  0.31778334D-02 -0.17746187D-17 -0.12695306D-01 -0.10264373D-01 -0.29562758D-18
  0.26194028D-01  0.73087289D-03  0.56194838D-17  0.11891889D-01  0.10759540D-16
 -0.94006687D-04  0.14689903D-17  0.90287260D-04 -0.55234493D-04 -0.96425717D-18
 -0.11964704D-03  0.33725456D-03 -0.34427138D-17 -0.15121474D-03 -0.32122200D-17
 -0.36054289D-02 -0.67200557D-02 -0.11394988D-01 -0.17246845D-01 -0.21519027D-01
 -0.18481974D-01 -0.70955892D-02  0.31739006D-04 -0.40186097D-01 -0.75370022D-01
 -0.12848936D+00 -0.20080387D+00 -0.26851303D+00 -0.28670931D+00 -0.17528845D+00
  0.11564467D+00  0.61640381D-01  0.26024203D-01  0.65669949D-03 -0.13097578D+00
 -0.12700245D+00 -0.85675103D-01 -0.16606671D-16 -0.16102885D-16 -0.10862911D-16
 -0.16704452D+00 -0.16197700D+00 -0.10926873D+00 -0.32468462D-01 -0.10393249D-17
 -0.41410093D-01 -0.14936114D-02  0.55180012D-17 -0.18408198D-02  0.14750893D-03
 -0.14903686D-18  0.16783813D-04  0.14422715D-01 -0.17406266D-01  0.29835509D-02
 -0.10639663D-16  0.19817612D-01 -0.21032138D-17  0.26528881D-02 -0.37654899D-02
  0.11126018D-02 -0.17306206D-17  0.84141174D-02  0.68762715D-17 -0.16521286D-03
  0.24729460D-03 -0.82081734D-04 -0.82051039D-17  0.29461934D-03 -0.33702463D-17
 -0.13170379D-02  0.66015174D-17  0.16526997D-02  0.62472532D-02 -0.15610011D-16
 -0.11344360D-01 -0.22961394D-02 -0.41945409D-17  0.63862613D-02  0.86677814D-17
  0.50995802D-03 -0.22336421D-17  0.21041596D-03 -0.29658327D-03  0.75474572D-17
 -0.70438075D-03 -0.12332908D-02 -0.84653087D-18  0.73132861D-04  0.48252403D-17
  0.80920965D-02  0.14594429D-01  0.21519478D-01  0.94484123D-02 -0.91725259D-03
 -0.23351976D-04 -0.97186153D-02 -0.18464102D-17  0.68257036D-02 -0.31501490D-02
  0.29575280D-18  0.88774631D-03  0.10076798D-03  0.81471184D-18 -0.24255687D-03
  0.15391722D-02 -0.10292839D-02 -0.50988834D-03 -0.22558332D-17 -0.32556511D-02
  0.51567187D-17  0.35133860D-03 -0.55671140D-04 -0.29566746D-03 -0.38426753D-18
 -0.27782205D-03  0.42700627D-17
MO    5     MO 0.0        OCC NO =    2.0000000  ORB. ENERGY =   -1.044015
  0.41964448D-02  0.78216332D-02  0.13262898D-01  0.20074014D-01  0.25046509D-01
  0.21511611D-01  0.82587257D-02 -0.36941787D-04  0.50866990D-01  0.95402301D-01
  0.16264001D+00  0.25417467D+00  0.33987997D+00  0.36291257D+00  0.22187763D+00
 -0.14638138D+00 -0.79025869D-01 -0.42846517D-01 -0.11460117D-02  0.43814613D-01
  0.42485436D-01  0.28660424D-01 -0.60423861D-15 -0.58590820D-15 -0.39525021D-15
 -0.24608007D+00 -0.23861489D+00 -0.16096819D+00  0.11428933D-01 -0.16741137D-15
 -0.61068697D-01  0.15867243D-02 -0.23827990D-16 -0.53067971D-02 -0.78969616D-04
 -0.88306118D-17  0.63115789D-04  0.19957244D-01  0.14544648D-01 -0.34501892D-01
  0.28358955D-15  0.14239276D-01  0.10544453D-14  0.63756932D-02  0.33644033D-02
 -0.97400965D-02  0.65436634D-16  0.43846387D-02 -0.85238733D-17 -0.16993858D-03
  0.41257998D-04  0.12868058D-03  0.12168099D-16  0.27551226D-03 -0.14118414D-16
 -0.16761313D-02  0.89658744D-17 -0.11087913D-01 -0.27511566D-02 -0.15624214D-16
  0.18099689D-01  0.77795504D-02 -0.11273409D-16  0.15164051D-01 -0.17481742D-18
 -0.91135064D-04  0.46820219D-17 -0.65943049D-03  0.38348212D-03  0.95630045D-17
  0.94740928D-03 -0.11007692D-03 -0.23609070D-16  0.10308822D-02  0.10015566D-16
  0.11238266D-02  0.20940853D-02  0.35416233D-02  0.53334884D-02  0.66032046D-02
  0.56190291D-02  0.21381442D-02 -0.10013842D-04  0.20277260D-02  0.38020052D-02
  0.64683421D-02  0.10044652D-01  0.13329838D-01  0.14047819D-01  0.87105441D-02
 -0.57942573D-02 -0.43572605D-02  0.16482118D-03  0.94059405D-03  0.22367722D+00
  0.21483930D+00  0.15066015D+00 -0.49507217D-16 -0.47551090D-16 -0.33346107D-16
  0.34262699D+00  0.32908913D+00  0.23078001D+00  0.48402939D-01 -0.13886892D-17
  0.68355459D-01 -0.10272570D-02  0.62335732D-17 -0.19904461D-02  0.52428330D-04
  0.15736562D-17 -0.70446806D-04  0.44911770D-01  0.10331426D-02 -0.45944912D-01
  0.36841160D-16  0.29415951D-01  0.95624441D-16  0.69968469D-02 -0.99557095D-03
 -0.60012760D-02  0.44127267D-17  0.47693065D-02 -0.28962997D-16 -0.33369244D-03
 -0.13619808D-03  0.46989052D-03 -0.88200245D-17 -0.34917042D-04 -0.50313214D-17
  0.33777644D-02 -0.70670037D-17  0.41686604D-02 -0.68171474D-02  0.20797659D-16
 -0.37145346D-02 -0.33161459D-02  0.40335201D-18 -0.87914467D-02  0.61711869D-17
  0.56741935D-03  0.96432912D-18 -0.15331512D-03 -0.27964166D-03 -0.74804109D-17
  0.28733838D-03 -0.14226164D-02  0.45874235D-17  0.17260697D-03 -0.11086114D-17
 -0.64124615D-02 -0.11952003D-01 -0.20266637D-01 -0.30674499D-01 -0.38272819D-01
 -0.32871247D-01 -0.12619911D-01  0.56449636D-04 -0.82807881D-01 -0.15530823D+00
 -0.26476649D+00 -0.41377849D+00 -0.55330068D+00 -0.59079613D+00 -0.36120117D+00
  0.23829859D+00  0.12926006D+00  0.67128759D-01  0.94487368D-03 -0.59368304D-01
 -0.57567284D-01 -0.38834550D-01 -0.77475964D-16 -0.75125624D-16 -0.50679302D-16
 -0.22075336D+00 -0.21405650D+00 -0.14440125D+00 -0.17637877D-01 -0.11049377D-17
 -0.57137646D-01 -0.49615577D-02  0.13829076D-16 -0.29501197D-02  0.19100516D-03
 -0.37635435D-19  0.28273728D-04  0.14001573D-01 -0.19168780D-01  0.51672064D-02
 -0.23566999D-16 -0.10048023D-01 -0.25887749D-17  0.92321699D-02 -0.71366273D-02
 -0.20955427D-02 -0.44576337D-17  0.20338228D-02  0.15766944D-16  0.76837314D-03
  0.44599818D-04 -0.81297296D-03 -0.12458183D-16  0.11492382D-02 -0.10278473D-16
 -0.57376395D-02  0.14350866D-16  0.32705239D-02  0.81891542D-02 -0.24853557D-16
 -0.17375525D-01  0.90237642D-02 -0.18199040D-16  0.75639530D-02 -0.11154909D-16
 -0.28500495D-03 -0.41304596D-17  0.10703183D-02  0.11654845D-02  0.10669496D-16
 -0.35486768D-02 -0.31046962D-03  0.17218829D-17  0.33772180D-03  0.22603000D-16
  0.18345765D-01  0.33087342D-01  0.48787267D-01  0.20465989D-01 -0.77530849D-03
 -0.87579533D-04 -0.17781049D-01  0.39837368D-17  0.17084698D-01 -0.38331876D-02
  0.18062364D-17  0.58904284D-03 -0.16481065D-04 -0.33409873D-18 -0.49083042D-03
  0.24019305D-02 -0.16585361D-02 -0.74339440D-03 -0.10186520D-16 -0.66740160D-02
  0.15513270D-16  0.28930204D-03  0.14299274D-03 -0.43229478D-03 -0.31685726D-18
 -0.10099871D-03  0.43088416D-17
MO    6     MO 0.0        OCC NO =    2.0000000  ORB. ENERGY =   -0.687425
  0.11711388D-02  0.21828521D-02  0.37013939D-02  0.56022321D-02  0.69899499D-02
  0.60034348D-02  0.23048353D-02 -0.10309670D-04  0.45363138D-01  0.85079690D-01
  0.14504222D+00  0.22667276D+00  0.30310467D+00  0.32364512D+00  0.19787028D+00
 -0.13054279D+00 -0.74054337D-01 -0.62008293D-01 -0.44300191D-02  0.38115070D-02
  0.36958797D-02  0.24932186D-02 -0.12895495D-14 -0.12504292D-14 -0.84353217D-15
  0.32108378D+00  0.31134326D+00  0.21003032D+00  0.20430985D-02 -0.26539044D-15
  0.64146880D-01 -0.15218655D-02 -0.12095587D-15  0.25749031D-02 -0.25756054D-04
 -0.12973915D-16 -0.10097488D-03 -0.94317437D-02 -0.10236623D-01  0.19668367D-01
 -0.12201328D-14  0.64625803D-02 -0.14045589D-15 -0.93324614D-03 -0.25185538D-02
  0.34518000D-02 -0.19625987D-15  0.35257766D-02 -0.16445219D-15 -0.48516127D-03
 -0.35974125D-04  0.52113539D-03 -0.29693066D-16 -0.57438191D-05 -0.39181550D-16
 -0.17884235D-02  0.95230884D-17  0.11548701D-02 -0.12251671D-02 -0.24947168D-16
 -0.35231933D-02  0.65904377D-02 -0.36220967D-17  0.58583066D-04 -0.49278251D-16
 -0.17809769D-03  0.44557780D-17  0.49872931D-03  0.15287019D-03  0.49717756D-17
 -0.71151712D-03  0.38142289D-03 -0.18339110D-16 -0.78467079D-03 -0.63425129D-17
 -0.18528327D-02 -0.34524810D-02 -0.58390108D-02 -0.87932268D-02 -0.10886585D-01
 -0.92639927D-02 -0.35251201D-02  0.16509641D-04 -0.53897275D-01 -0.10105789D+00
 -0.17192955D+00 -0.26698843D+00 -0.35430918D+00 -0.37339324D+00 -0.23152763D+00
  0.15401227D+00  0.84651026D-01  0.49964775D-01  0.37586060D-02  0.15881242D+00
  0.15253743D+00  0.10696978D+00 -0.46342997D-15 -0.44511894D-15 -0.31214813D-15
  0.26358397D+00  0.25316925D+00  0.17753975D+00  0.39973771D-01 -0.76507994D-16
  0.57875511D-01  0.32701737D-02  0.39547954D-16 -0.10813173D-02  0.17421763D-03
  0.83300282D-17 -0.21265159D-03  0.12333381D-01  0.77368426D-03 -0.13107065D-01
 -0.22120854D-16  0.28117644D-01  0.19278244D-15  0.11632203D-02 -0.69097603D-03
 -0.47224424D-03 -0.50943813D-17  0.99455104D-02  0.28515391D-16  0.56196187D-04
 -0.46499100D-03  0.40879481D-03  0.13451034D-16 -0.53458339D-03 -0.14586238D-16
  0.11201169D-02  0.21922715D-16 -0.33967981D-02 -0.72571943D-02 -0.48848078D-17
  0.12188259D-01  0.38968437D-02 -0.60883336D-16 -0.19978646D-02  0.13099378D-16
  0.25247726D-03 -0.56461845D-17 -0.30624660D-03 -0.54933735D-03  0.84087880D-17
  0.94468061D-03 -0.20809444D-03  0.85297654D-17 -0.25940800D-04  0.75721180D-17
  0.15547989D-02  0.28979451D-02  0.49139547D-02  0.74374994D-02  0.92798277D-02