 Molden2AIM, Version 4.0.0 (06/02/2016)           Time: Sat Jun 30 05:03:39 2018
GAUSSIAN             42 MOL ORBITALS    676 PRIMITIVES        4 NUCLEI
  Br   1    (CENTRE  1)  -0.98879919  0.00000000 -1.07702295  CHARGE = 35.0
  N    2    (CENTRE  2)  -0.17791205  0.00000000  2.56502920  CHARGE =  7.0
  N    3    (CENTRE  3)   1.89754959  0.00000000  3.39516132  CHARGE =  7.0
  Br   4    (CENTRE  4)   4.99672122  0.00000000  1.31685943  CHARGE = 35.0
CENTRE ASSIGNMENTS    1  1  1  1  1  1  1  1  1  1  1  1  1  1  1  1  1  1  1  1
CENTRE ASSIGNMENTS    1  1  1  1  1  1  1  1  1  1  1  1  1  1  1  1  1  1  1  1
CENTRE ASSIGNMENTS    1  1  1  1  1  1  1  1  1  1  1  1  1  1  1  1  1  1  1  1
CENTRE ASSIGNMENTS    1  1  1  1  1  1  1  1  1  1  1  1  1  1  1  1  1  1  1  1
CENTRE ASSIGNMENTS    1  1  1  1  1  1  1  1  1  1  1  1  1  1  1  1  1  1  1  1
CENTRE ASSIGNMENTS    1  1  1  1  1  1  1  1  1  1  1  1  1  1  1  1  1  1  1  1
CENTRE ASSIGNMENTS    1  1  1  1  1  1  1  1  1  1  1  1  1  1  1  1  1  1  1  1
CENTRE ASSIGNMENTS    1  1  1  1  1  1  1  1  1  1  1  1  1  1  1  1  1  1  1  1
CENTRE ASSIGNMENTS    1  1  1  1  1  1  1  1  1  1  1  1  1  1  1  1  1  1  1  1
CENTRE ASSIGNMENTS    1  1  1  1  1  1  1  1  1  1  1  1  1  1  1  1  1  1  1  1
CENTRE ASSIGNMENTS    1  1  1  1  1  1  1  1  1  1  1  1  1  1  1  1  1  1  1  1
CENTRE ASSIGNMENTS    1  1  1  1  1  1  1  1  1  1  1  1  1  1  1  1  1  1  1  1
CENTRE ASSIGNMENTS    1  1  1  1  1  1  1  1  1  1  1  1  1  1  1  1  1  1  1  1
CENTRE ASSIGNMENTS    1  1  1  2  2  2  2  2  2  2  2  2  2  2  2  2  2  2  2  2
CENTRE ASSIGNMENTS    2  2  2  2  2  2  2  2  2  2  2  2  2  2  2  2  2  2  2  2
CENTRE ASSIGNMENTS    2  2  2  2  2  2  2  2  2  2  2  2  2  2  2  2  2  2  2  2
CENTRE ASSIGNMENTS    2  2  2  2  2  2  2  2  2  2  2  2  2  2  2  2  2  2  3  3
CENTRE ASSIGNMENTS    3  3  3  3  3  3  3  3  3  3  3  3  3  3  3  3  3  3  3  3
CENTRE ASSIGNMENTS    3  3  3  3  3  3  3  3  3  3  3  3  3  3  3  3  3  3  3  3
CENTRE ASSIGNMENTS    3  3  3  3  3  3  3  3  3  3  3  3  3  3  3  3  3  3  3  3
CENTRE ASSIGNMENTS    3  3  3  3  3  3  3  3  3  3  3  3  3  4  4  4  4  4  4  4
CENTRE ASSIGNMENTS    4  4  4  4  4  4  4  4  4  4  4  4  4  4  4  4  4  4  4  4
CENTRE ASSIGNMENTS    4  4  4  4  4  4  4  4  4  4  4  4  4  4  4  4  4  4  4  4
CENTRE ASSIGNMENTS    4  4  4  4  4  4  4  4  4  4  4  4  4  4  4  4  4  4  4  4
CENTRE ASSIGNMENTS    4  4  4  4  4  4  4  4  4  4  4  4  4  4  4  4  4  4  4  4
CENTRE ASSIGNMENTS    4  4  4  4  4  4  4  4  4  4  4  4  4  4  4  4  4  4  4  4
CENTRE ASSIGNMENTS    4  4  4  4  4  4  4  4  4  4  4  4  4  4  4  4  4  4  4  4
CENTRE ASSIGNMENTS    4  4  4  4  4  4  4  4  4  4  4  4  4  4  4  4  4  4  4  4
CENTRE ASSIGNMENTS    4  4  4  4  4  4  4  4  4  4  4  4  4  4  4  4  4  4  4  4
CENTRE ASSIGNMENTS    4  4  4  4  4  4  4  4  4  4  4  4  4  4  4  4  4  4  4  4
CENTRE ASSIGNMENTS    4  4  4  4  4  4  4  4  4  4  4  4  4  4  4  4  4  4  4  4
CENTRE ASSIGNMENTS    4  4  4  4  4  4  4  4  4  4  4  4  4  4  4  4  4  4  4  4
CENTRE ASSIGNMENTS    4  4  4  4  4  4  4  4  4  4  4  4  4  4  4  4  4  4  4  4
CENTRE ASSIGNMENTS    4  4  4  4  4  4  4  4  4  4  4  4  4  4  4  4
TYPE ASSIGNMENTS      1  1  1  1  1  1  1  1  1  1  1  1  1  1  1  1  1  1  1  1
TYPE ASSIGNMENTS      1  1  1  1  1  1  1  1  1  1  1  1  1  1  1  1  1  1  1  1
TYPE ASSIGNMENTS      1  1  1  1  1  1  1  1  1  1  1  1  1  1  1  1  1  1  1  1
TYPE ASSIGNMENTS      1  1  1  1  1  1  1  1  1  1  1  1  1  1  1  2  2  2  2  2
TYPE ASSIGNMENTS      2  2  2  2  2  2  3  3  3  3  3  3  3  3  3  3  3  4  4  4
TYPE ASSIGNMENTS      4  4  4  4  4  4  4  4  2  2  2  2  2  2  2  2  2  2  2  3
TYPE ASSIGNMENTS      3  3  3  3  3  3  3  3  3  3  4  4  4  4  4  4  4  4  4  4
TYPE ASSIGNMENTS      4  2  2  2  2  2  2  2  2  2  2  2  3  3  3  3  3  3  3  3
TYPE ASSIGNMENTS      3  3  3  4  4  4  4  4  4  4  4  4  4  4  2  3  4  2  3  4
TYPE ASSIGNMENTS      2  3  4  5  5  5  5  5  5  5  6  6  6  6  6  6  6  7  7  7
TYPE ASSIGNMENTS      7  7  7  7  8  8  8  8  8  8  8  9  9  9  9  9  9  9 10 10
TYPE ASSIGNMENTS     10 10 10 10 10  5  6  7  8  9 10  5  6  7  8  9 10  5  6  7
TYPE ASSIGNMENTS      8  9 10 11 12 13 17 14 15 18 19 16 20 11 12 13 17 14 15 18
TYPE ASSIGNMENTS     19 16 20  1  1  1  1  1  1  1  1  1  1  1  1  1  1  1  1  1
TYPE ASSIGNMENTS      1  1  2  2  2  3  3  3  4  4  4  2  3  4  2  3  4  2  3  4
TYPE ASSIGNMENTS      5  6  7  8  9 10  5  6  7  8  9 10  5  6  7  8  9 10 11 12
TYPE ASSIGNMENTS     13 17 14 15 18 19 16 20 11 12 13 17 14 15 18 19 16 20  1  1
TYPE ASSIGNMENTS      1  1  1  1  1  1  1  1  1  1  1  1  1  1  1  1  1  2  2  2
TYPE ASSIGNMENTS      3  3  3  4  4  4  2  3  4  2  3  4  2  3  4  5  6  7  8  9
TYPE ASSIGNMENTS     10  5  6  7  8  9 10  5  6  7  8  9 10 11 12 13 17 14 15 18
TYPE ASSIGNMENTS     19 16 20 11 12 13 17 14 15 18 19 16 20  1  1  1  1  1  1  1
TYPE ASSIGNMENTS      1  1  1  1  1  1  1  1  1  1  1  1  1  1  1  1  1  1  1  1
TYPE ASSIGNMENTS      1  1  1  1  1  1  1  1  1  1  1  1  1  1  1  1  1  1  1  1
TYPE ASSIGNMENTS      1  1  1  1  1  1  1  1  1  1  1  1  1  1  1  1  1  1  1  1
TYPE ASSIGNMENTS      1  1  1  1  1  1  1  1  2  2  2  2  2  2  2  2  2  2  2  3
TYPE ASSIGNMENTS      3  3  3  3  3  3  3  3  3  3  4  4  4  4  4  4  4  4  4  4
TYPE ASSIGNMENTS      4  2  2  2  2  2  2  2  2  2  2  2  3  3  3  3  3  3  3  3
TYPE ASSIGNMENTS      3  3  3  4  4  4  4  4  4  4  4  4  4  4  2  2  2  2  2  2
TYPE ASSIGNMENTS      2  2  2  2  2  3  3  3  3  3  3  3  3  3  3  3  4  4  4  4
TYPE ASSIGNMENTS      4  4  4  4  4  4  4  2  3  4  2  3  4  2  3  4  5  5  5  5
TYPE ASSIGNMENTS      5  5  5  6  6  6  6  6  6  6  7  7  7  7  7  7  7  8  8  8
TYPE ASSIGNMENTS      8  8  8  8  9  9  9  9  9  9  9 10 10 10 10 10 10 10  5  6
TYPE ASSIGNMENTS      7  8  9 10  5  6  7  8  9 10  5  6  7  8  9 10 11 12 13 17
TYPE ASSIGNMENTS     14 15 18 19 16 20 11 12 13 17 14 15 18 19 16 20
EXPONENTS  0.1063900D+08 0.1593400D+07 0.3626100D+06 0.1027000D+06 0.3350100D+05
EXPONENTS  0.1209300D+05 0.4715900D+04 0.1955600D+04 0.8526100D+03 0.3876700D+03
EXPONENTS  0.1826800D+03 0.8824500D+02 0.3926300D+02 0.1923400D+02 0.9405700D+01
EXPONENTS  0.4160100D+01 0.1899500D+01 0.3011400D+00 0.1063900D+08 0.1593400D+07
EXPONENTS  0.3626100D+06 0.1027000D+06 0.3350100D+05 0.1209300D+05 0.4715900D+04
EXPONENTS  0.1955600D+04 0.8526100D+03 0.3876700D+03 0.1826800D+03 0.8824500D+02
EXPONENTS  0.3926300D+02 0.1923400D+02 0.9405700D+01 0.4160100D+01 0.1899500D+01
EXPONENTS  0.3011400D+00 0.1063900D+08 0.1593400D+07 0.3626100D+06 0.1027000D+06
EXPONENTS  0.3350100D+05 0.1209300D+05 0.4715900D+04 0.1955600D+04 0.8526100D+03
EXPONENTS  0.3876700D+03 0.1826800D+03 0.8824500D+02 0.3926300D+02 0.1923400D+02
EXPONENTS  0.9405700D+01 0.4160100D+01 0.1899500D+01 0.3011400D+00 0.1063900D+08
EXPONENTS  0.1593400D+07 0.3626100D+06 0.1027000D+06 0.3350100D+05 0.1209300D+05
EXPONENTS  0.4715900D+04 0.1955600D+04 0.8526100D+03 0.3876700D+03 0.1826800D+03
EXPONENTS  0.8824500D+02 0.3926300D+02 0.1923400D+02 0.9405700D+01 0.4160100D+01
EXPONENTS  0.1899500D+01 0.3011400D+00 0.6047200D+00 0.1251500D+00 0.4559300D-01
EXPONENTS  0.8676500D+04 0.2055900D+04 0.6662300D+03 0.2531000D+03 0.1061200D+03
EXPONENTS  0.4724200D+02 0.2182500D+02 0.9968400D+01 0.4517100D+01 0.1998200D+01
EXPONENTS  0.2814500D+00 0.8676500D+04 0.2055900D+04 0.6662300D+03 0.2531000D+03
EXPONENTS  0.1061200D+03 0.4724200D+02 0.2182500D+02 0.9968400D+01 0.4517100D+01
EXPONENTS  0.1998200D+01 0.2814500D+00 0.8676500D+04 0.2055900D+04 0.6662300D+03
EXPONENTS  0.2531000D+03 0.1061200D+03 0.4724200D+02 0.2182500D+02 0.9968400D+01
EXPONENTS  0.4517100D+01 0.1998200D+01 0.2814500D+00 0.8676500D+04 0.2055900D+04
EXPONENTS  0.6662300D+03 0.2531000D+03 0.1061200D+03 0.4724200D+02 0.2182500D+02
EXPONENTS  0.9968400D+01 0.4517100D+01 0.1998200D+01 0.2814500D+00 0.8676500D+04
EXPONENTS  0.2055900D+04 0.6662300D+03 0.2531000D+03 0.1061200D+03 0.4724200D+02
EXPONENTS  0.2182500D+02 0.9968400D+01 0.4517100D+01 0.1998200D+01 0.2814500D+00
EXPONENTS  0.8676500D+04 0.2055900D+04 0.6662300D+03 0.2531000D+03 0.1061200D+03
EXPONENTS  0.4724200D+02 0.2182500D+02 0.9968400D+01 0.4517100D+01 0.1998200D+01
EXPONENTS  0.2814500D+00 0.8676500D+04 0.2055900D+04 0.6662300D+03 0.2531000D+03
EXPONENTS  0.1061200D+03 0.4724200D+02 0.2182500D+02 0.9968400D+01 0.4517100D+01
EXPONENTS  0.1998200D+01 0.2814500D+00 0.8676500D+04 0.2055900D+04 0.6662300D+03
EXPONENTS  0.2531000D+03 0.1061200D+03 0.4724200D+02 0.2182500D+02 0.9968400D+01
EXPONENTS  0.4517100D+01 0.1998200D+01 0.2814500D+00 0.8676500D+04 0.2055900D+04
EXPONENTS  0.6662300D+03 0.2531000D+03 0.1061200D+03 0.4724200D+02 0.2182500D+02
EXPONENTS  0.9968400D+01 0.4517100D+01 0.1998200D+01 0.2814500D+00 0.7098800D+00
EXPONENTS  0.7098800D+00 0.7098800D+00 0.1020400D+00 0.1020400D+00 0.1020400D+00
EXPONENTS  0.3514200D-01 0.3514200D-01 0.3514200D-01 0.4038300D+03 0.1211700D+03
EXPONENTS  0.4634500D+02 0.1972100D+02 0.8862400D+01 0.3996200D+01 0.1763600D+01
EXPONENTS  0.4038300D+03 0.1211700D+03 0.4634500D+02 0.1972100D+02 0.8862400D+01
EXPONENTS  0.3996200D+01 0.1763600D+01 0.4038300D+03 0.1211700D+03 0.4634500D+02
EXPONENTS  0.1972100D+02 0.8862400D+01 0.3996200D+01 0.1763600D+01 0.4038300D+03
EXPONENTS  0.1211700D+03 0.4634500D+02 0.1972100D+02 0.8862400D+01 0.3996200D+01
EXPONENTS  0.1763600D+01 0.4038300D+03 0.1211700D+03 0.4634500D+02 0.1972100D+02
EXPONENTS  0.8862400D+01 0.3996200D+01 0.1763600D+01 0.4038300D+03 0.1211700D+03
EXPONENTS  0.4634500D+02 0.1972100D+02 0.8862400D+01 0.3996200D+01 0.1763600D+01
EXPONENTS  0.7061900D+00 0.7061900D+00 0.7061900D+00 0.7061900D+00 0.7061900D+00
EXPONENTS  0.7061900D+00 0.2639000D+00 0.2639000D+00 0.2639000D+00 0.2639000D+00
EXPONENTS  0.2639000D+00 0.2639000D+00 0.1047000D+00 0.1047000D+00 0.1047000D+00
EXPONENTS  0.1047000D+00 0.1047000D+00 0.1047000D+00 0.5515000D+00 0.5515000D+00
EXPONENTS  0.5515000D+00 0.5515000D+00 0.5515000D+00 0.5515000D+00 0.5515000D+00
EXPONENTS  0.5515000D+00 0.5515000D+00 0.5515000D+00 0.2580000D+00 0.2580000D+00
EXPONENTS  0.2580000D+00 0.2580000D+00 0.2580000D+00 0.2580000D+00 0.2580000D+00
EXPONENTS  0.2580000D+00 0.2580000D+00 0.2580000D+00 0.1142000D+05 0.1712000D+04
EXPONENTS  0.3893000D+03 0.1100000D+03 0.3557000D+02 0.1254000D+02 0.4644000D+01
EXPONENTS  0.5118000D+00 0.1142000D+05 0.1712000D+04 0.3893000D+03 0.1100000D+03
EXPONENTS  0.3557000D+02 0.1254000D+02 0.4644000D+01 0.5118000D+00 0.1293000D+01
EXPONENTS  0.1787000D+00 0.5760000D-01 0.2663000D+02 0.5948000D+01 0.1742000D+01
EXPONENTS  0.2663000D+02 0.5948000D+01 0.1742000D+01 0.2663000D+02 0.5948000D+01
EXPONENTS  0.1742000D+01 0.5550000D+00 0.5550000D+00 0.5550000D+00 0.1725000D+00
EXPONENTS  0.1725000D+00 0.1725000D+00 0.4910000D-01 0.4910000D-01 0.4910000D-01
EXPONENTS  0.1654000D+01 0.1654000D+01 0.1654000D+01 0.1654000D+01 0.1654000D+01
EXPONENTS  0.1654000D+01 0.4690000D+00 0.4690000D+00 0.4690000D+00 0.4690000D+00
EXPONENTS  0.4690000D+00 0.4690000D+00 0.1510000D+00 0.1510000D+00 0.1510000D+00
EXPONENTS  0.1510000D+00 0.1510000D+00 0.1510000D+00 0.1093000D+01 0.1093000D+01
EXPONENTS  0.1093000D+01 0.1093000D+01 0.1093000D+01 0.1093000D+01 0.1093000D+01
EXPONENTS  0.1093000D+01 0.1093000D+01 0.1093000D+01 0.3640000D+00 0.3640000D+00
EXPONENTS  0.3640000D+00 0.3640000D+00 0.3640000D+00 0.3640000D+00 0.3640000D+00
EXPONENTS  0.3640000D+00 0.3640000D+00 0.3640000D+00 0.1142000D+05 0.1712000D+04
EXPONENTS  0.3893000D+03 0.1100000D+03 0.3557000D+02 0.1254000D+02 0.4644000D+01
EXPONENTS  0.5118000D+00 0.1142000D+05 0.1712000D+04 0.3893000D+03 0.1100000D+03
EXPONENTS  0.3557000D+02 0.1254000D+02 0.4644000D+01 0.5118000D+00 0.1293000D+01
EXPONENTS  0.1787000D+00 0.5760000D-01 0.2663000D+02 0.5948000D+01 0.1742000D+01
EXPONENTS  0.2663000D+02 0.5948000D+01 0.1742000D+01 0.2663000D+02 0.5948000D+01
EXPONENTS  0.1742000D+01 0.5550000D+00 0.5550000D+00 0.5550000D+00 0.1725000D+00
EXPONENTS  0.1725000D+00 0.1725000D+00 0.4910000D-01 0.4910000D-01 0.4910000D-01
EXPONENTS  0.1654000D+01 0.1654000D+01 0.1654000D+01 0.1654000D+01 0.1654000D+01
EXPONENTS  0.1654000D+01 0.4690000D+00 0.4690000D+00 0.4690000D+00 0.4690000D+00
EXPONENTS  0.4690000D+00 0.4690000D+00 0.1510000D+00 0.1510000D+00 0.1510000D+00
EXPONENTS  0.1510000D+00 0.1510000D+00 0.1510000D+00 0.1093000D+01 0.1093000D+01
EXPONENTS  0.1093000D+01 0.1093000D+01 0.1093000D+01 0.1093000D+01 0.1093000D+01
EXPONENTS  0.1093000D+01 0.1093000D+01 0.1093000D+01 0.3640000D+00 0.3640000D+00
EXPONENTS  0.3640000D+00 0.3640000D+00 0.3640000D+00 0.3640000D+00 0.3640000D+00
EXPONENTS  0.3640000D+00 0.3640000D+00 0.3640000D+00 0.1063900D+08 0.1593400D+07
EXPONENTS  0.3626100D+06 0.1027000D+06 0.3350100D+05 0.1209300D+05 0.4715900D+04
EXPONENTS  0.1955600D+04 0.8526100D+03 0.3876700D+03 0.1826800D+03 0.8824500D+02
EXPONENTS  0.3926300D+02 0.1923400D+02 0.9405700D+01 0.4160100D+01 0.1899500D+01
EXPONENTS  0.3011400D+00 0.1063900D+08 0.1593400D+07 0.3626100D+06 0.1027000D+06
EXPONENTS  0.3350100D+05 0.1209300D+05 0.4715900D+04 0.1955600D+04 0.8526100D+03
EXPONENTS  0.3876700D+03 0.1826800D+03 0.8824500D+02 0.3926300D+02 0.1923400D+02
EXPONENTS  0.9405700D+01 0.4160100D+01 0.1899500D+01 0.3011400D+00 0.1063900D+08
EXPONENTS  0.1593400D+07 0.3626100D+06 0.1027000D+06 0.3350100D+05 0.1209300D+05
EXPONENTS  0.4715900D+04 0.1955600D+04 0.8526100D+03 0.3876700D+03 0.1826800D+03
EXPONENTS  0.8824500D+02 0.3926300D+02 0.1923400D+02 0.9405700D+01 0.4160100D+01
EXPONENTS  0.1899500D+01 0.3011400D+00 0.1063900D+08 0.1593400D+07 0.3626100D+06
EXPONENTS  0.1027000D+06 0.3350100D+05 0.1209300D+05 0.4715900D+04 0.1955600D+04
EXPONENTS  0.8526100D+03 0.3876700D+03 0.1826800D+03 0.8824500D+02 0.3926300D+02
EXPONENTS  0.1923400D+02 0.9405700D+01 0.4160100D+01 0.1899500D+01 0.3011400D+00
EXPONENTS  0.6047200D+00 0.1251500D+00 0.4559300D-01 0.8676500D+04 0.2055900D+04
EXPONENTS  0.6662300D+03 0.2531000D+03 0.1061200D+03 0.4724200D+02 0.2182500D+02
EXPONENTS  0.9968400D+01 0.4517100D+01 0.1998200D+01 0.2814500D+00 0.8676500D+04
EXPONENTS  0.2055900D+04 0.6662300D+03 0.2531000D+03 0.1061200D+03 0.4724200D+02
EXPONENTS  0.2182500D+02 0.9968400D+01 0.4517100D+01 0.1998200D+01 0.2814500D+00
EXPONENTS  0.8676500D+04 0.2055900D+04 0.6662300D+03 0.2531000D+03 0.1061200D+03
EXPONENTS  0.4724200D+02 0.2182500D+02 0.9968400D+01 0.4517100D+01 0.1998200D+01
EXPONENTS  0.2814500D+00 0.8676500D+04 0.2055900D+04 0.6662300D+03 0.2531000D+03
EXPONENTS  0.1061200D+03 0.4724200D+02 0.2182500D+02 0.9968400D+01 0.4517100D+01
EXPONENTS  0.1998200D+01 0.2814500D+00 0.8676500D+04 0.2055900D+04 0.6662300D+03
EXPONENTS  0.2531000D+03 0.1061200D+03 0.4724200D+02 0.2182500D+02 0.9968400D+01
EXPONENTS  0.4517100D+01 0.1998200D+01 0.2814500D+00 0.8676500D+04 0.2055900D+04
EXPONENTS  0.6662300D+03 0.2531000D+03 0.1061200D+03 0.4724200D+02 0.2182500D+02
EXPONENTS  0.9968400D+01 0.4517100D+01 0.1998200D+01 0.2814500D+00 0.8676500D+04
EXPONENTS  0.2055900D+04 0.6662300D+03 0.2531000D+03 0.1061200D+03 0.4724200D+02
EXPONENTS  0.2182500D+02 0.9968400D+01 0.4517100D+01 0.1998200D+01 0.2814500D+00
EXPONENTS  0.8676500D+04 0.2055900D+04 0.6662300D+03 0.2531000D+03 0.1061200D+03
EXPONENTS  0.4724200D+02 0.2182500D+02 0.9968400D+01 0.4517100D+01 0.1998200D+01
EXPONENTS  0.2814500D+00 0.8676500D+04 0.2055900D+04 0.6662300D+03 0.2531000D+03
EXPONENTS  0.1061200D+03 0.4724200D+02 0.2182500D+02 0.9968400D+01 0.4517100D+01
EXPONENTS  0.1998200D+01 0.2814500D+00 0.7098800D+00 0.7098800D+00 0.7098800D+00
EXPONENTS  0.1020400D+00 0.1020400D+00 0.1020400D+00 0.3514200D-01 0.3514200D-01
EXPONENTS  0.3514200D-01 0.4038300D+03 0.1211700D+03 0.4634500D+02 0.1972100D+02
EXPONENTS  0.8862400D+01 0.3996200D+01 0.1763600D+01 0.4038300D+03 0.1211700D+03
EXPONENTS  0.4634500D+02 0.1972100D+02 0.8862400D+01 0.3996200D+01 0.1763600D+01
EXPONENTS  0.4038300D+03 0.1211700D+03 0.4634500D+02 0.1972100D+02 0.8862400D+01
EXPONENTS  0.3996200D+01 0.1763600D+01 0.4038300D+03 0.1211700D+03 0.4634500D+02
EXPONENTS  0.1972100D+02 0.8862400D+01 0.3996200D+01 0.1763600D+01 0.4038300D+03
EXPONENTS  0.1211700D+03 0.4634500D+02 0.1972100D+02 0.8862400D+01 0.3996200D+01
EXPONENTS  0.1763600D+01 0.4038300D+03 0.1211700D+03 0.4634500D+02 0.1972100D+02
EXPONENTS  0.8862400D+01 0.3996200D+01 0.1763600D+01 0.7061900D+00 0.7061900D+00
EXPONENTS  0.7061900D+00 0.7061900D+00 0.7061900D+00 0.7061900D+00 0.2639000D+00
EXPONENTS  0.2639000D+00 0.2639000D+00 0.2639000D+00 0.2639000D+00 0.2639000D+00
EXPONENTS  0.1047000D+00 0.1047000D+00 0.1047000D+00 0.1047000D+00 0.1047000D+00
EXPONENTS  0.1047000D+00 0.5515000D+00 0.5515000D+00 0.5515000D+00 0.5515000D+00
EXPONENTS  0.5515000D+00 0.5515000D+00 0.5515000D+00 0.5515000D+00 0.5515000D+00
EXPONENTS  0.5515000D+00 0.2580000D+00 0.2580000D+00 0.2580000D+00 0.2580000D+00
EXPONENTS  0.2580000D+00 0.2580000D+00 0.2580000D+00 0.2580000D+00 0.2580000D+00
EXPONENTS  0.2580000D+00
MO    1     MO 0.0        OCC NO =    2.0000000  ORB. ENERGY = -482.292021
  0.78326621D+00  0.14734191D+01  0.25505612D+01  0.41808578D+01  0.65493947D+01
  0.98442980D+01  0.14069975D+02  0.18678241D+02  0.21753349D+02  0.19980240D+02
  0.11683232D+02  0.30657386D+01  0.16760273D+00 -0.59988286D-02  0.16764833D-02
 -0.49780446D-03  0.84867042D-04  0.69239833D-05  0.47010544D-04  0.86372935D-04
  0.14935871D-03  0.24459576D-03  0.38510504D-03  0.58154634D-03  0.84888006D-03
  0.11689594D-02  0.14936172D-02  0.16282177D-02  0.13402739D-02  0.36749400D-03
 -0.74125923D-03 -0.72238950D-03 -0.15807917D-03 -0.53255418D-05 -0.18041234D-06
  0.45894572D-09 -0.98831565D-04 -0.19374946D-03 -0.33934737D-03 -0.55438318D-03
 -0.87439581D-03 -0.13194242D-02 -0.19345381D-02 -0.26709498D-02 -0.34628997D-02
 -0.38509482D-02 -0.33447856D-02 -0.97160040D-03  0.24493928D-02  0.35689379D-02
  0.61440542D-03 -0.14988862D-02 -0.71343202D-03  0.34453811D-05  0.33439086D-04
  0.72454424D-04  0.12334217D-03  0.20132763D-03  0.31737326D-03  0.47900791D-03
  0.70230366D-03  0.97088495D-03  0.12601113D-02  0.14077646D-02  0.12297143D-02
  0.36424257D-03 -0.94682144D-03 -0.14565314D-02 -0.25493747D-03  0.80418617D-03
  0.68263244D-03 -0.25468406D-03  0.27440091D-03  0.57170994D-04  0.57771382D-05
 -0.19794462D-03 -0.28401549D-03 -0.37605160D-03 -0.43423305D-03 -0.40255402D-03
 -0.26062081D-03 -0.91989575D-04 -0.10781971D-04 -0.15674991D-06 -0.22954279D-07
 -0.23600564D-09 -0.57665785D-16 -0.82740191D-16 -0.10955241D-15 -0.12650200D-15
 -0.11727317D-15 -0.75924788D-16 -0.26798662D-16 -0.31410343D-17 -0.45664825D-19
 -0.66871052D-20 -0.68753827D-22 -0.49202930D-03 -0.70597493D-03 -0.93474834D-03
 -0.10793695D-02 -0.10006252D-02 -0.64782298D-03 -0.22865772D-03 -0.26800657D-04
 -0.38963194D-06 -0.57057261D-07 -0.58663725D-09  0.94329055D-03  0.13616507D-02
  0.18191328D-02  0.21611856D-02  0.20943545D-02  0.14558436D-02  0.47371753D-03
 -0.21321048D-03 -0.23033845D-03 -0.59299930D-04  0.57841606D-07 -0.25388250D-16
 -0.36648230D-16 -0.48961159D-16 -0.58167359D-16 -0.56368630D-16 -0.39183388D-16
 -0.12749899D-16  0.57384662D-17  0.61994580D-17  0.15960315D-17 -0.15567813D-20
  0.25747853D-02  0.37167321D-02  0.49654653D-02  0.58991251D-02  0.57167044D-02
  0.39738388D-02  0.12930490D-02 -0.58197467D-03 -0.62872681D-03 -0.16186379D-03
  0.15788318D-06 -0.68220823D-03 -0.99127882D-03 -0.13179167D-02 -0.15814088D-02
 -0.15300200D-02 -0.10861361D-02 -0.33757381D-03  0.19381359D-03  0.22264879D-03
  0.59126343D-04 -0.21332969D-04  0.83942570D-17  0.12197228D-16  0.16216356D-16
  0.19458504D-16  0.18826189D-16  0.13364402D-16  0.41536898D-17 -0.23847867D-17
 -0.27395905D-17 -0.72752233D-18  0.26249232D-18 -0.18774793D-02 -0.27280607D-02
 -0.36269883D-02 -0.43521349D-02 -0.42107098D-02 -0.29891137D-02 -0.92902404D-03
  0.53338700D-03  0.61274325D-03  0.16271936D-03 -0.58709651D-04  0.13571935D-04
 -0.71653442D-18  0.33603632D-04  0.79961016D-05 -0.27344524D-19  0.17943194D-04
  0.38252044D-06  0.29970510D-20  0.34954163D-06 -0.89473089D-04 -0.93623947D-04
 -0.79772614D-04 -0.52536297D-04 -0.24212415D-04 -0.72504469D-05 -0.12336021D-05
 -0.22251600D-03 -0.23283902D-03 -0.19839131D-03 -0.13065568D-03 -0.60215311D-04
 -0.18031572D-04 -0.30679192D-05  0.31198909D-03  0.32646297D-03  0.27816392D-03
  0.18319197D-03  0.84427726D-04  0.25282019D-04  0.43015212D-05  0.20977596D-17
  0.21950794D-17  0.18703251D-17  0.12317505D-17  0.56767712D-18  0.16999183D-18
  0.28922669D-19  0.26472498D-03  0.27700616D-03  0.23602408D-03  0.15543970D-03
  0.71637529D-04  0.21451974D-04  0.36498715D-05 -0.67845149D-17 -0.70992639D-17
 -0.60489528D-17 -0.39836927D-17 -0.18359654D-17 -0.54978280D-18 -0.93540882D-19
  0.43376040D-05  0.11619339D-04 -0.15956943D-04 -0.22974564D-19 -0.13709884D-04
 -0.19900142D-19  0.32466592D-05  0.24347444D-05 -0.56814036D-05  0.14016836D-19
 -0.48773192D-05  0.52370052D-19 -0.64580563D-06 -0.20612354D-05  0.27070410D-05
 -0.49271425D-21  0.32598025D-05  0.20147420D-20  0.18474628D-05 -0.61321284D-20
 -0.10260287D-04  0.97531332D-05  0.52071674D-20  0.78990756D-05 -0.15295522D-04
  0.13189218D-19  0.22881784D-04  0.18125204D-19 -0.13797750D-06 -0.38650132D-20
  0.20891076D-05 -0.32241647D-05 -0.64364916D-20 -0.39266620D-06  0.36380973D-05
  0.18031531D-19 -0.58746567D-05  0.57766815D-20  0.18917355D-05  0.35249706D-05
  0.59616090D-05  0.89778528D-05  0.11115164D-04  0.94585030D-05  0.35991349D-05
 -0.16856284D-07 -0.10730207D-05 -0.20119239D-05 -0.34228811D-05 -0.53153730D-05
 -0.70538091D-05 -0.74337465D-05 -0.46093971D-05  0.30661727D-05 -0.25388264D-05
 -0.54237012D-04 -0.36535046D-04 -0.48752679D-05 -0.46826366D-05 -0.32837880D-05
 -0.18245401D-20 -0.17524490D-20 -0.12289382D-20 -0.18992083D-06 -0.18241669D-06
 -0.12792317D-06  0.19217176D-04  0.10029079D-19  0.23911720D-04 -0.20789446D-04
 -0.35219567D-19 -0.32361735D-04 -0.25459056D-05  0.98576805D-21 -0.60640166D-06
  0.13897126D-04  0.17529632D-04 -0.31426758D-04 -0.17244980D-19 -0.28654550D-04
 -0.60948141D-19 -0.14048633D-05 -0.68507178D-05  0.82555811D-05  0.31253055D-20
  0.20986527D-04  0.64696811D-21 -0.35295765D-05 -0.24637105D-05  0.59932870D-05
  0.34844868D-20 -0.36751688D-05  0.22200565D-19 -0.84327518D-05 -0.56658138D-19
  0.10608864D-04  0.34746087D-05 -0.15456789D-19  0.44238872D-05  0.21823647D-04
  0.18543120D-18 -0.36250479D-04  0.68375912D-19  0.37925137D-05  0.20414229D-19
 -0.10223289D-04  0.17593593D-05  0.14817171D-19  0.12782755D-04 -0.13136900D-04
 -0.76059859D-19  0.17887113D-04 -0.47075189D-19 -0.38975898D-05 -0.72625847D-05
 -0.12282851D-04 -0.18497294D-04 -0.22900850D-04 -0.19487589D-04 -0.74153873D-05
  0.34729422D-07  0.28327208D-05  0.53113780D-05  0.90362343D-05  0.14032318D-04
  0.18621702D-04  0.19624717D-04  0.12168577D-04 -0.80945420D-05 -0.45047334D-05
  0.50254250D-04  0.22075378D-04 -0.67035041D-05 -0.64386356D-05 -0.45152157D-05
 -0.10278864D-21 -0.98727258D-22 -0.69234368D-22  0.10707859D-04  0.10284770D-04
  0.72123908D-05  0.20763770D-04  0.17158774D-20 -0.71297294D-05 -0.28908611D-04
  0.14930025D-19  0.95696404D-05 -0.30685455D-05 -0.14967007D-20  0.10416365D-06
  0.60329897D-06  0.32392939D-05 -0.38425929D-05  0.44477701D-19  0.95203636D-05
 -0.50611521D-19 -0.68824164D-05 -0.26968332D-05  0.95792496D-05 -0.32298501D-19
 -0.99004982D-05  0.41852750D-19  0.17225337D-05  0.23313246D-05 -0.40538583D-05
  0.64354332D-20  0.28632483D-05 -0.10192391D-19  0.81075997D-05  0.27379733D-19
 -0.33283880D-05 -0.75029535D-05 -0.40656963D-19 -0.10034609D-04 -0.16819846D-04
 -0.41482237D-19  0.20019773D-04  0.33585840D-19 -0.57689478D-06 -0.10760877D-19
 -0.13097719D-05  0.48484764D-05  0.25135444D-19  0.11243393D-04 -0.31177920D-05
  0.71471863D-20 -0.73140769D-05 -0.40430143D-19 -0.52153852D-02 -0.98107747D-02
 -0.16982935D-01 -0.27838279D-01 -0.43609204D-01 -0.65548347D-01 -0.93685054D-01
 -0.12436924D+00 -0.14484487D+00 -0.13303861D+00 -0.77792909D-01 -0.20413248D-01
 -0.11159843D-02  0.39943255D-04 -0.11162879D-04  0.33146355D-05 -0.56508796D-06
 -0.46103405D-07 -0.77971856D-05 -0.14325846D-04 -0.24772689D-04 -0.40568741D-04
 -0.63873659D-04 -0.96455484D-04 -0.14079555D-03 -0.19388403D-03 -0.24773188D-03
 -0.27005678D-03 -0.22229831D-03 -0.60952687D-04  0.12294552D-03  0.11981578D-03
  0.26219068D-04  0.88329627D-06  0.29923255D-07 -0.76120902D-10  0.10214154D-04
  0.20023833D-04  0.35071248D-04  0.57295007D-04  0.90368027D-04  0.13636132D-03
  0.19993278D-03  0.27604028D-03  0.35788759D-03  0.39799207D-03  0.34568061D-03
  0.10041403D-03 -0.25314256D-03 -0.36884655D-03 -0.63498252D-04  0.15490855D-03
  0.73732563D-04 -0.35607706D-06 -0.46668910D-05 -0.10112026D-04 -0.17214120D-04
 -0.28098080D-04 -0.44293866D-04 -0.66852237D-04 -0.98016275D-04 -0.13550054D-03
 -0.17586611D-03 -0.19647320D-03 -0.17162379D-03 -0.50835132D-04  0.13214214D-03
  0.20327928D-03  0.35580081D-04 -0.11223540D-03 -0.95270881D-04  0.35544714D-04
 -0.19989702D-04 -0.22093621D-05  0.37194771D-06 -0.23163625D-03 -0.33235701D-03
 -0.44005835D-03 -0.50814272D-03 -0.47107168D-03 -0.30498039D-03 -0.10764688D-03
 -0.12617142D-04 -0.18342990D-06 -0.26861267D-07 -0.27617554D-09 -0.30535499D-18
 -0.43813035D-18 -0.58010787D-18 -0.66986023D-18 -0.62099125D-18 -0.40204106D-18
 -0.14190573D-18 -0.16632575D-19 -0.24180686D-21 -0.35409922D-22 -0.36406899D-24
  0.57974160D-04  0.83182656D-04  0.11013826D-03  0.12717848D-03  0.11790030D-03
  0.76330807D-04  0.26941972D-04  0.31578314D-05  0.45909024D-07  0.67228655D-08
  0.69121498D-10  0.95803928D-03  0.13829407D-02  0.18475757D-02  0.21949766D-02
  0.21271006D-02  0.14786063D-02  0.48112430D-03 -0.21654411D-03 -0.23393989D-03
 -0.60227108D-04  0.58745983D-07  0.10175531D-17  0.14688496D-17  0.19623479D-17
  0.23313296D-17  0.22592371D-17  0.15704579D-17  0.51101195D-18 -0.22999593D-18
 -0.24847234D-18 -0.63968443D-19  0.62395309D-22 -0.24713386D-03 -0.35674056D-03
 -0.47659687D-03 -0.56621170D-03 -0.54870254D-03 -0.38141826D-03 -0.12410984D-03
  0.55859278D-04  0.60346657D-04  0.15536062D-04 -0.15153994D-07 -0.71231692D-03
 -0.10350281D-02 -0.13760818D-02 -0.16512030D-02 -0.15975462D-02 -0.11340718D-02
 -0.35247235D-03  0.20236739D-03  0.23247521D-03  0.61735835D-04 -0.22274482D-04
 -0.70940164D-18 -0.10307921D-17 -0.13704500D-17 -0.16444451D-17 -0.15910079D-17
 -0.11294304D-17 -0.35102980D-18  0.20153917D-18  0.23152376D-18  0.61483170D-19
 -0.22183319D-19  0.19075165D-03  0.27717061D-03  0.36850154D-03  0.44217634D-03
  0.42780756D-03  0.30369356D-03  0.94388720D-04 -0.54192049D-04 -0.62254634D-04
 -0.16532265D-04  0.59648929D-05  0.95952162D-05  0.24881015D-19 -0.91812606D-06
  0.51075465D-05 -0.14394373D-20  0.73599868D-06  0.13957046D-08 -0.10881684D-21
  0.23367071D-06 -0.82000710D-04 -0.85804908D-04 -0.73110374D-04 -0.48148708D-04
 -0.22190306D-04 -0.66449231D-05 -0.11305773D-05  0.83345710D-04  0.87212305D-04
  0.74309552D-04  0.48938458D-04  0.22554278D-04  0.67539151D-05  0.11491214D-05
 -0.13449996D-05 -0.14073971D-05 -0.11991777D-05 -0.78974917D-06 -0.36397188D-06
 -0.10899197D-06 -0.18544059D-07  0.11049507D-18  0.11562119D-18  0.98515441D-19
  0.64879866D-19  0.29901198D-19  0.89539623D-20  0.15234408D-20  0.48352647D-04
  0.50595835D-04  0.43110360D-04  0.28391431D-04  0.13084765D-04  0.39182541D-05
  0.66665772D-06 -0.12763194D-18 -0.13355308D-18 -0.11379437D-18 -0.74942194D-19
 -0.34538626D-19 -0.10342647D-19 -0.17597138D-20  0.49956706D-05 -0.50556570D-05
  0.59986408D-07 -0.14167177D-19 -0.35092822D-05  0.11355319D-19  0.17738001D-05
 -0.75679513D-06 -0.10170050D-05  0.18670687D-19 -0.40897511D-05 -0.12037470D-19
 -0.11286872D-05  0.69127454D-06  0.43741267D-06 -0.61971171D-21 -0.34299001D-06
 -0.54463183D-21 -0.24756730D-05  0.51128689D-20  0.73692288D-06  0.74426629D-05
 -0.12740673D-19 -0.23753043D-05 -0.15643832D-07 -0.25979335D-20  0.16453566D-06
 -0.25324883D-20  0.10360530D-05  0.21883678D-21 -0.51666882D-06 -0.25937284D-05
 -0.26265899D-21  0.21407235D-05 -0.51443066D-06 -0.39385135D-21 -0.59071702D-06
  0.10634112D-19
MO    2     MO 0.0        OCC NO =    2.0000000  ORB. ENERGY = -482.291974
  0.52224260D-02  0.98240195D-02  0.17005862D-01  0.27875862D-01  0.43668077D-01
  0.65636839D-01  0.93811530D-01  0.12453714D+00  0.14504041D+00  0.13321822D+00
  0.77897930D-01  0.20440807D-01  0.11174909D-02 -0.39997179D-04  0.11177949D-04
 -0.33191103D-05  0.56585084D-06  0.46165646D-07 -0.71723400D-05 -0.13177811D-04
 -0.22787472D-04 -0.37317670D-04 -0.58754995D-04 -0.88725799D-04 -0.12951257D-03
 -0.17834668D-03 -0.22787931D-03 -0.24841515D-03 -0.20448392D-03 -0.56068101D-04
  0.11309300D-03  0.11021406D-03  0.24117942D-04  0.81251127D-06  0.27525286D-07
 -0.70020776D-10  0.88993080D-05  0.17446208D-04  0.30556602D-04  0.49919544D-04
  0.78735145D-04  0.11880782D-03  0.17419587D-03  0.24050621D-03  0.31181749D-03
  0.34675940D-03  0.30118189D-03  0.87487951D-04 -0.22055606D-03 -0.32136573D-03
 -0.55324259D-04  0.13496750D-03  0.64241129D-04 -0.31024003D-06 -0.42223864D-05
 -0.91488918D-05 -0.15574537D-04 -0.25421839D-04 -0.40075035D-04 -0.60484802D-04
 -0.88680578D-04 -0.12259460D-03 -0.15911550D-03 -0.17775983D-03 -0.15527724D-03
 -0.45993269D-04  0.11955608D-03  0.18391766D-03  0.32191207D-04 -0.10154538D-03
 -0.86196673D-04  0.32159208D-04 -0.16330089D-04 -0.14607331D-05  0.44604046D-06
  0.12510606D-03  0.17950505D-03  0.23767423D-03  0.27444640D-03  0.25442444D-03
  0.16471902D-03  0.58139764D-04  0.68144817D-05  0.99069951D-07  0.14507692D-07
  0.14916160D-09 -0.54536817D-18 -0.78250677D-18 -0.10360806D-17 -0.11963795D-17
 -0.11090988D-17 -0.71805080D-18 -0.25344556D-18 -0.29706006D-19 -0.43187034D-21
 -0.63242604D-22 -0.65023218D-24  0.19507480D-03  0.27989779D-03  0.37059956D-03
  0.42793749D-03  0.39671774D-03  0.25684230D-03  0.90655899D-04  0.10625653D-04
  0.15447733D-06  0.22621485D-07  0.23258400D-09 -0.51070849D-03 -0.73721357D-03
 -0.98489971D-03 -0.11700911D-02 -0.11339079D-02 -0.78821066D-03 -0.25647619D-03
  0.11543464D-03  0.12470792D-03  0.32105673D-04 -0.31316119D-07 -0.68045812D-18