 Molden2AIM, Version 4.0.0 (06/02/2016)           Time: Sat Jun 30 05:33:42 2018
GAUSSIAN             16 MOL ORBITALS    300 PRIMITIVES        4 NUCLEI
  F    1    (CENTRE  1)  -0.20474238  0.00000000 -0.37321902  CHARGE =  9.0
  N    2    (CENTRE  2)  -0.07225179  0.00000000  2.21709283  CHARGE =  7.0
  N    3    (CENTRE  3)   2.06100901  0.00000000  3.07032874  CHARGE =  7.0
  F    4    (CENTRE  4)   3.94354473  0.00000000  1.28582446  CHARGE =  9.0
CENTRE ASSIGNMENTS    1  1  1  1  1  1  1  1  1  1  1  1  1  1  1  1  1  1  1  1
CENTRE ASSIGNMENTS    1  1  1  1  1  1  1  1  1  1  1  1  1  1  1  1  1  1  1  1
CENTRE ASSIGNMENTS    1  1  1  1  1  1  1  1  1  1  1  1  1  1  1  1  1  1  1  1
CENTRE ASSIGNMENTS    1  1  1  1  1  1  1  1  1  1  1  1  1  1  1  2  2  2  2  2
CENTRE ASSIGNMENTS    2  2  2  2  2  2  2  2  2  2  2  2  2  2  2  2  2  2  2  2
CENTRE ASSIGNMENTS    2  2  2  2  2  2  2  2  2  2  2  2  2  2  2  2  2  2  2  2
CENTRE ASSIGNMENTS    2  2  2  2  2  2  2  2  2  2  2  2  2  2  2  2  2  2  2  2
CENTRE ASSIGNMENTS    2  2  2  2  2  2  2  2  2  2  3  3  3  3  3  3  3  3  3  3
CENTRE ASSIGNMENTS    3  3  3  3  3  3  3  3  3  3  3  3  3  3  3  3  3  3  3  3
CENTRE ASSIGNMENTS    3  3  3  3  3  3  3  3  3  3  3  3  3  3  3  3  3  3  3  3
CENTRE ASSIGNMENTS    3  3  3  3  3  3  3  3  3  3  3  3  3  3  3  3  3  3  3  3
CENTRE ASSIGNMENTS    3  3  3  3  3  4  4  4  4  4  4  4  4  4  4  4  4  4  4  4
CENTRE ASSIGNMENTS    4  4  4  4  4  4  4  4  4  4  4  4  4  4  4  4  4  4  4  4
CENTRE ASSIGNMENTS    4  4  4  4  4  4  4  4  4  4  4  4  4  4  4  4  4  4  4  4
CENTRE ASSIGNMENTS    4  4  4  4  4  4  4  4  4  4  4  4  4  4  4  4  4  4  4  4
TYPE ASSIGNMENTS      1  1  1  1  1  1  1  1  1  1  1  1  1  1  1  1  1  1  1  2
TYPE ASSIGNMENTS      2  2  3  3  3  4  4  4  2  3  4  2  3  4  2  3  4  5  6  7
TYPE ASSIGNMENTS      8  9 10  5  6  7  8  9 10  5  6  7  8  9 10 11 12 13 17 14
TYPE ASSIGNMENTS     15 18 19 16 20 11 12 13 17 14 15 18 19 16 20  1  1  1  1  1
TYPE ASSIGNMENTS      1  1  1  1  1  1  1  1  1  1  1  1  1  1  2  2  2  3  3  3
TYPE ASSIGNMENTS      4  4  4  2  3  4  2  3  4  2  3  4  5  6  7  8  9 10  5  6
TYPE ASSIGNMENTS      7  8  9 10  5  6  7  8  9 10 11 12 13 17 14 15 18 19 16 20
TYPE ASSIGNMENTS     11 12 13 17 14 15 18 19 16 20  1  1  1  1  1  1  1  1  1  1
TYPE ASSIGNMENTS      1  1  1  1  1  1  1  1  1  2  2  2  3  3  3  4  4  4  2  3
TYPE ASSIGNMENTS      4  2  3  4  2  3  4  5  6  7  8  9 10  5  6  7  8  9 10  5
TYPE ASSIGNMENTS      6  7  8  9 10 11 12 13 17 14 15 18 19 16 20 11 12 13 17 14
TYPE ASSIGNMENTS     15 18 19 16 20  1  1  1  1  1  1  1  1  1  1  1  1  1  1  1
TYPE ASSIGNMENTS      1  1  1  1  2  2  2  3  3  3  4  4  4  2  3  4  2  3  4  2
TYPE ASSIGNMENTS      3  4  5  6  7  8  9 10  5  6  7  8  9 10  5  6  7  8  9 10
TYPE ASSIGNMENTS     11 12 13 17 14 15 18 19 16 20 11 12 13 17 14 15 18 19 16 20
EXPONENTS  0.1950000D+05 0.2923000D+04 0.6645000D+03 0.1875000D+03 0.6062000D+02
EXPONENTS  0.2142000D+02 0.7950000D+01 0.8815000D+00 0.1950000D+05 0.2923000D+04
EXPONENTS  0.6645000D+03 0.1875000D+03 0.6062000D+02 0.2142000D+02 0.7950000D+01
EXPONENTS  0.8815000D+00 0.2257000D+01 0.3041000D+00 0.9158000D-01 0.4388000D+02
EXPONENTS  0.9926000D+01 0.2930000D+01 0.4388000D+02 0.9926000D+01 0.2930000D+01
EXPONENTS  0.4388000D+02 0.9926000D+01 0.2930000D+01 0.9132000D+00 0.9132000D+00
EXPONENTS  0.9132000D+00 0.2672000D+00 0.2672000D+00 0.2672000D+00 0.7361000D-01
EXPONENTS  0.7361000D-01 0.7361000D-01 0.3107000D+01 0.3107000D+01 0.3107000D+01
EXPONENTS  0.3107000D+01 0.3107000D+01 0.3107000D+01 0.8550000D+00 0.8550000D+00
EXPONENTS  0.8550000D+00 0.8550000D+00 0.8550000D+00 0.8550000D+00 0.2920000D+00
EXPONENTS  0.2920000D+00 0.2920000D+00 0.2920000D+00 0.2920000D+00 0.2920000D+00
EXPONENTS  0.1917000D+01 0.1917000D+01 0.1917000D+01 0.1917000D+01 0.1917000D+01
EXPONENTS  0.1917000D+01 0.1917000D+01 0.1917000D+01 0.1917000D+01 0.1917000D+01
EXPONENTS  0.7240000D+00 0.7240000D+00 0.7240000D+00 0.7240000D+00 0.7240000D+00
EXPONENTS  0.7240000D+00 0.7240000D+00 0.7240000D+00 0.7240000D+00 0.7240000D+00
EXPONENTS  0.1142000D+05 0.1712000D+04 0.3893000D+03 0.1100000D+03 0.3557000D+02
EXPONENTS  0.1254000D+02 0.4644000D+01 0.5118000D+00 0.1142000D+05 0.1712000D+04
EXPONENTS  0.3893000D+03 0.1100000D+03 0.3557000D+02 0.1254000D+02 0.4644000D+01
EXPONENTS  0.5118000D+00 0.1293000D+01 0.1787000D+00 0.5760000D-01 0.2663000D+02
EXPONENTS  0.5948000D+01 0.1742000D+01 0.2663000D+02 0.5948000D+01 0.1742000D+01
EXPONENTS  0.2663000D+02 0.5948000D+01 0.1742000D+01 0.5550000D+00 0.5550000D+00
EXPONENTS  0.5550000D+00 0.1725000D+00 0.1725000D+00 0.1725000D+00 0.4910000D-01
EXPONENTS  0.4910000D-01 0.4910000D-01 0.1654000D+01 0.1654000D+01 0.1654000D+01
EXPONENTS  0.1654000D+01 0.1654000D+01 0.1654000D+01 0.4690000D+00 0.4690000D+00
EXPONENTS  0.4690000D+00 0.4690000D+00 0.4690000D+00 0.4690000D+00 0.1510000D+00
EXPONENTS  0.1510000D+00 0.1510000D+00 0.1510000D+00 0.1510000D+00 0.1510000D+00
EXPONENTS  0.1093000D+01 0.1093000D+01 0.1093000D+01 0.1093000D+01 0.1093000D+01
EXPONENTS  0.1093000D+01 0.1093000D+01 0.1093000D+01 0.1093000D+01 0.1093000D+01
EXPONENTS  0.3640000D+00 0.3640000D+00 0.3640000D+00 0.3640000D+00 0.3640000D+00
EXPONENTS  0.3640000D+00 0.3640000D+00 0.3640000D+00 0.3640000D+00 0.3640000D+00
EXPONENTS  0.1142000D+05 0.1712000D+04 0.3893000D+03 0.1100000D+03 0.3557000D+02
EXPONENTS  0.1254000D+02 0.4644000D+01 0.5118000D+00 0.1142000D+05 0.1712000D+04
EXPONENTS  0.3893000D+03 0.1100000D+03 0.3557000D+02 0.1254000D+02 0.4644000D+01
EXPONENTS  0.5118000D+00 0.1293000D+01 0.1787000D+00 0.5760000D-01 0.2663000D+02
EXPONENTS  0.5948000D+01 0.1742000D+01 0.2663000D+02 0.5948000D+01 0.1742000D+01
EXPONENTS  0.2663000D+02 0.5948000D+01 0.1742000D+01 0.5550000D+00 0.5550000D+00
EXPONENTS  0.5550000D+00 0.1725000D+00 0.1725000D+00 0.1725000D+00 0.4910000D-01
EXPONENTS  0.4910000D-01 0.4910000D-01 0.1654000D+01 0.1654000D+01 0.1654000D+01
EXPONENTS  0.1654000D+01 0.1654000D+01 0.1654000D+01 0.4690000D+00 0.4690000D+00
EXPONENTS  0.4690000D+00 0.4690000D+00 0.4690000D+00 0.4690000D+00 0.1510000D+00
EXPONENTS  0.1510000D+00 0.1510000D+00 0.1510000D+00 0.1510000D+00 0.1510000D+00
EXPONENTS  0.1093000D+01 0.1093000D+01 0.1093000D+01 0.1093000D+01 0.1093000D+01
EXPONENTS  0.1093000D+01 0.1093000D+01 0.1093000D+01 0.1093000D+01 0.1093000D+01
EXPONENTS  0.3640000D+00 0.3640000D+00 0.3640000D+00 0.3640000D+00 0.3640000D+00
EXPONENTS  0.3640000D+00 0.3640000D+00 0.3640000D+00 0.3640000D+00 0.3640000D+00
EXPONENTS  0.1950000D+05 0.2923000D+04 0.6645000D+03 0.1875000D+03 0.6062000D+02
EXPONENTS  0.2142000D+02 0.7950000D+01 0.8815000D+00 0.1950000D+05 0.2923000D+04
EXPONENTS  0.6645000D+03 0.1875000D+03 0.6062000D+02 0.2142000D+02 0.7950000D+01
EXPONENTS  0.8815000D+00 0.2257000D+01 0.3041000D+00 0.9158000D-01 0.4388000D+02
EXPONENTS  0.9926000D+01 0.2930000D+01 0.4388000D+02 0.9926000D+01 0.2930000D+01
EXPONENTS  0.4388000D+02 0.9926000D+01 0.2930000D+01 0.9132000D+00 0.9132000D+00
EXPONENTS  0.9132000D+00 0.2672000D+00 0.2672000D+00 0.2672000D+00 0.7361000D-01
EXPONENTS  0.7361000D-01 0.7361000D-01 0.3107000D+01 0.3107000D+01 0.3107000D+01
EXPONENTS  0.3107000D+01 0.3107000D+01 0.3107000D+01 0.8550000D+00 0.8550000D+00
EXPONENTS  0.8550000D+00 0.8550000D+00 0.8550000D+00 0.8550000D+00 0.2920000D+00
EXPONENTS  0.2920000D+00 0.2920000D+00 0.2920000D+00 0.2920000D+00 0.2920000D+00
EXPONENTS  0.1917000D+01 0.1917000D+01 0.1917000D+01 0.1917000D+01 0.1917000D+01
EXPONENTS  0.1917000D+01 0.1917000D+01 0.1917000D+01 0.1917000D+01 0.1917000D+01
EXPONENTS  0.7240000D+00 0.7240000D+00 0.7240000D+00 0.7240000D+00 0.7240000D+00
EXPONENTS  0.7240000D+00 0.7240000D+00 0.7240000D+00 0.7240000D+00 0.7240000D+00
MO    1     MO 0.0        OCC NO =    2.0000000  ORB. ENERGY =  -24.554028
 -0.17955077D-01 -0.33469042D-01 -0.56738255D-01 -0.85918440D-01 -0.10744131D+00
 -0.92496960D-01 -0.35559208D-01  0.15408387D-03  0.12218868D-04  0.22944871D-04
  0.39071158D-04  0.61204738D-04  0.82021549D-04  0.88225235D-04  0.52970315D-04
 -0.34835508D-04 -0.19762323D-02  0.16537819D-03  0.11996961D-03 -0.13395047D-03
 -0.13100063D-03 -0.86557658D-04  0.19307912D-14  0.18882716D-14  0.12476609D-14
 -0.32082540D-03 -0.31376023D-03 -0.20731465D-03  0.93028125D-04 -0.59439160D-15
  0.10211054D-03  0.10868356D-03 -0.89373864D-17  0.18814470D-03  0.25277629D-05
  0.36111384D-18  0.81379615D-05  0.69204544D-04  0.53888901D-04 -0.12309344D-03
 -0.35308356D-18 -0.24124184D-03 -0.10656444D-16 -0.46389209D-04 -0.62754378D-04
  0.10914359D-03  0.23379848D-18  0.16452179D-03  0.54049552D-17 -0.46402506D-04
 -0.14719079D-04  0.61121586D-04 -0.43504804D-18  0.62534204D-04 -0.33348512D-17
  0.18430622D-03 -0.16168934D-17 -0.11054469D-03 -0.20471119D-03  0.19102923D-17
  0.37616298D-03 -0.34820746D-03  0.29403880D-17 -0.44528895D-04  0.66473519D-17
 -0.68963300D-04  0.66702618D-18  0.74436313D-04  0.41394162D-04 -0.36928408D-18
 -0.17337030D-03  0.16549574D-03 -0.16317945D-17 -0.49938642D-04 -0.20447891D-17
  0.15721832D-04  0.29295319D-04  0.49545728D-04  0.74613121D-04  0.92375884D-04
  0.78607708D-04  0.29911683D-04 -0.14008917D-06 -0.11318752D-04 -0.21222766D-04
 -0.36106239D-04 -0.56069177D-04 -0.74407058D-04 -0.78414826D-04 -0.48622194D-04
  0.32343502D-04  0.52739507D-04 -0.12420738D-02 -0.35651040D-03 -0.29274460D-04
 -0.28117769D-04 -0.19718120D-04  0.13139001D-17  0.12619854D-17  0.88499126D-18
 -0.62566704D-04 -0.60094572D-04 -0.42142462D-04  0.66318384D-04  0.59551712D-18
  0.13684740D-04 -0.48457304D-03  0.36453357D-17 -0.40758108D-04 -0.26985132D-04
 -0.23742921D-18  0.98303414D-05 -0.79689912D-04 -0.43800574D-04  0.12349049D-03
 -0.41157508D-17 -0.24661736D-03  0.22158765D-17  0.17923193D-03  0.10408744D-03
 -0.28331937D-03  0.39889229D-17 -0.63161155D-04  0.10582281D-17 -0.25111792D-04
  0.18349269D-04  0.67625232D-05  0.36995449D-18  0.12165149D-04 -0.14528714D-17
 -0.29128995D-04  0.16269490D-17  0.11665995D-03  0.92981767D-04  0.11782978D-17
 -0.14836273D-03 -0.55947805D-05 -0.60591448D-17 -0.20161713D-03  0.21677172D-17
  0.55358417D-04 -0.45195065D-18 -0.18532719D-04  0.12151112D-04  0.14302787D-17
  0.15012149D-04 -0.17822636D-03 -0.74426738D-19  0.40586007D-04  0.10283822D-18
  0.90698528D-04  0.16900335D-03  0.28582704D-03  0.43043968D-03  0.53291224D-03
  0.45348427D-03  0.17255913D-03 -0.80816802D-06 -0.51049535D-04 -0.95718355D-04
 -0.16284540D-03 -0.25288171D-03 -0.33558874D-03 -0.35366447D-03 -0.21929453D-03
  0.14587481D-03 -0.51381798D-03  0.22386039D-02  0.51122053D-03 -0.84010414D-03
 -0.80690998D-03 -0.56586098D-03  0.29562369D-17  0.28394302D-17  0.19912044D-17
  0.76377828D-03  0.73359990D-03  0.51445089D-03  0.10757335D-02 -0.32807160D-17
 -0.79527113D-03 -0.94824379D-04 -0.14387107D-17 -0.67308274D-03 -0.42409232D-05
  0.13811118D-18 -0.39092038D-04  0.58642729D-05 -0.42423453D-04  0.36559180D-04
 -0.55830749D-17 -0.52921957D-03 -0.82225640D-17  0.32883666D-03 -0.44503516D-03
  0.11619850D-03  0.39724525D-17 -0.12549726D-02  0.31451817D-17  0.15279115D-04
 -0.44339836D-04  0.29060721D-04 -0.33677910D-18 -0.62712078D-05  0.53828096D-18
 -0.14768536D-03  0.51152708D-18  0.18326241D-03 -0.72206500D-03 -0.42863142D-18
 -0.11927831D-02  0.11651211D-02 -0.11059498D-17  0.64299584D-03 -0.33626520D-17
 -0.47904268D-04  0.55039950D-19 -0.34299387D-04  0.24614805D-04 -0.50934565D-18
  0.44539693D-04  0.11909800D-03  0.34422580D-18  0.58358468D-04 -0.40990655D-18
  0.59415017D+00  0.11075217D+01  0.18775215D+01  0.28431209D+01  0.35553326D+01
  0.30608102D+01  0.11766872D+01 -0.50987782D-02  0.16128314D-03  0.30286117D-03
  0.51572034D-03  0.80787287D-03  0.10826447D-02  0.11645303D-02  0.69918248D-03
 -0.45981182D-03  0.64278249D-01 -0.87412966D-03 -0.61869875D-03 -0.52576147D-02
 -0.51418323D-02 -0.33974260D-02 -0.59999540D-17 -0.58678240D-17 -0.38771194D-17
  0.44001390D-02  0.43032399D-02  0.28433325D-02  0.90909081D-03 -0.20085968D-17
 -0.75680539D-03  0.91194896D-03  0.14323209D-17 -0.67828874D-03  0.39887348D-04
 -0.62447473D-19 -0.32440699D-04  0.19269256D-03 -0.42246176D-03  0.22976920D-03
 -0.11309503D-16  0.55257645D-03  0.63701612D-17 -0.33833265D-03  0.50354708D-03
 -0.16521443D-03  0.14403902D-17  0.12975223D-02 -0.42813019D-18 -0.10469263D-03
  0.11359321D-03 -0.89005795D-05 -0.14444029D-18  0.39051078D-03 -0.27092724D-19
  0.86806257D-04 -0.18811360D-18 -0.12634237D-03  0.77152667D-04 -0.39174746D-18
  0.65802625D-03 -0.33757144D-03  0.95608825D-18 -0.27899913D-03 -0.32051843D-17
 -0.57642833D-04 -0.47488226D-20  0.11705098D-03 -0.39472527D-03  0.14743304D-18
 -0.76282059D-03  0.56765377D-03 -0.13318657D-18  0.41166764D-03  0.86962265D-18
MO    2     MO 0.0        OCC NO =    2.0000000  ORB. ENERGY =  -24.554003
  0.59414869D+00  0.11075189D+01  0.18775168D+01  0.28431138D+01  0.35553238D+01
  0.30608026D+01  0.11766843D+01 -0.50987656D-02  0.16230445D-03  0.30477901D-03
  0.51898609D-03  0.81298863D-03  0.10895004D-02  0.11719046D-02  0.70360998D-03
 -0.46272352D-03  0.64276624D-01 -0.86591809D-03 -0.61264273D-03  0.76247147D-03
  0.74568045D-03  0.49270260D-03  0.10125142D-15  0.99021673D-16  0.65427806D-16
  0.68056851D-02  0.66558114D-02  0.43977760D-02 -0.13042383D-03 -0.23508820D-16
 -0.11710583D-02 -0.18657900D-03  0.80488048D-18 -0.11110318D-02 -0.63752837D-05
 -0.28304281D-20 -0.50603009D-04  0.49130977D-03 -0.42236101D-03 -0.68948758D-04
 -0.37093027D-17 -0.75481190D-04 -0.51232050D-17  0.39009965D-03  0.50082993D-03
 -0.89092958D-03  0.28498168D-18 -0.22666583D-03  0.72138835D-19  0.13333862D-03
  0.11296566D-03 -0.24630428D-03  0.90371315D-20 -0.11124351D-03  0.34804692D-18
 -0.10272411D-03  0.70094142D-18  0.26648862D-03  0.12369113D-03  0.17816666D-17
 -0.53755958D-03  0.18448119D-03 -0.38844909D-17 -0.26190626D-03 -0.45629102D-17
  0.59829896D-04 -0.12263273D-18 -0.40102859D-03  0.45279574D-05 -0.19902429D-18
  0.63429215D-03 -0.18401764D-03  0.56692248D-18  0.56879362D-03  0.49303827D-18
  0.92021721D-04  0.17146893D-03  0.28999694D-03  0.43671933D-03  0.54068686D-03
  0.46010011D-03  0.17507658D-03 -0.81995832D-06 -0.51976672D-04 -0.97456745D-04
 -0.16580292D-03 -0.25747443D-03 -0.34168354D-03 -0.36008755D-03 -0.22327725D-03
  0.14852411D-03 -0.51159266D-03  0.21678873D-02  0.49056774D-03  0.79961145D-04
  0.76801723D-04  0.53858670D-04  0.83004190D-19  0.79724532D-19  0.55908345D-19
  0.11308160D-02  0.10861353D-02  0.76167302D-03 -0.22703423D-03 -0.10690445D-18
 -0.13202846D-02  0.50474167D-03 -0.29099689D-18 -0.42525296D-03  0.28455188D-04
  0.16277305D-20 -0.24837304D-04 -0.24974841D-03 -0.45634130D-04  0.29538254D-03
  0.97319047D-19 -0.19411303D-04  0.43638414D-20 -0.38882925D-03 -0.43952794D-03
  0.82835719D-03 -0.42560924D-19  0.26979885D-03  0.34944635D-18  0.17255765D-04
 -0.43299090D-04  0.26043325D-04 -0.24307472D-19 -0.12794429D-04  0.14043353D-18
  0.24388064D-04 -0.10453703D-18 -0.70833712D-03  0.85188855D-04 -0.44138869D-19
  0.11717502D-02 -0.15835305D-03  0.35774997D-18  0.95326114D-03 -0.98039816D-19
 -0.24379598D-04  0.47580369D-19 -0.26142411D-04 -0.57455133D-04  0.84222105D-20
  0.50692512D-04  0.13059393D-03 -0.15116332D-18  0.27734720D-04  0.74458456D-19
  0.21261721D-04  0.39618086D-04  0.67004116D-04  0.10090449D-03  0.12492630D-03
  0.10630664D-03  0.40451639D-04 -0.18945228D-06 -0.14446243D-04 -0.27086840D-04
 -0.46082774D-04 -0.71561683D-04 -0.94966516D-04 -0.10008167D-03 -0.62057021D-04
  0.41280354D-04  0.21798048D-04 -0.11090067D-02 -0.32618358D-03  0.13754187D-04
  0.13210732D-04  0.92642773D-05 -0.19694606D-19 -0.18916433D-19 -0.13265509D-19
  0.20834288D-04  0.20011085D-04  0.14033154D-04  0.72052870D-05  0.49096974D-20
 -0.83784190D-04  0.37409397D-03  0.12185875D-18  0.26453677D-03  0.12526552D-04
  0.11429640D-20  0.23407600D-04 -0.10608999D-03 -0.46381014D-04  0.15247100D-03
 -0.11794473D-18 -0.22313331D-03 -0.15988075D-18 -0.52334219D-04  0.77324528D-04
 -0.24990309D-04  0.58138072D-19  0.38984169D-03 -0.53026589D-19 -0.29484794D-05
  0.15683663D-04 -0.12735183D-04  0.11460975D-19 -0.32921425D-04 -0.77166811D-19
  0.19339649D-04 -0.30726664D-19  0.15909409D-04  0.28223075D-04  0.49314153D-19
  0.12413427D-03 -0.86242022D-04  0.42865841D-19 -0.17186249D-03 -0.70467129D-20
  0.38165845D-04 -0.11883564D-19  0.42445398D-04 -0.35382568D-04 -0.11405145D-19
 -0.15196588D-03 -0.79114966D-04  0.47055836D-19  0.24629684D-04 -0.81316067D-20
  0.17909577D-01  0.33384228D-01  0.56594474D-01  0.85700713D-01  0.10716904D+00
  0.92262563D-01  0.35469097D-01 -0.15369341D-03  0.22000150D-04  0.41312385D-04
  0.70347867D-04  0.11019952D-03  0.14768032D-03  0.15885009D-03  0.95373388D-04
 -0.62721553D-04  0.19037954D-02  0.11248176D-03  0.82720781D-04  0.10211455D-05
  0.99865798D-06  0.65985555D-06 -0.41474560D-18 -0.40561214D-18 -0.26800509D-18
  0.12580991D-03  0.12303935D-03  0.81297298D-04 -0.82847081D-04  0.12514613D-18
 -0.36054421D-04 -0.15367093D-03 -0.13542555D-18  0.20290712D-04 -0.50456341D-05
 -0.60520157D-20  0.21925417D-05 -0.13132041D-03  0.28393107D-04  0.10292730D-03
 -0.14326378D-18  0.23754263D-03  0.17075417D-18  0.89489531D-04 -0.32391155D-04
 -0.57098377D-04 -0.58975943D-19 -0.85157160D-04  0.38241419D-20  0.29737819D-04
 -0.78979890D-05 -0.21839830D-04  0.90247352D-19 -0.87016909D-04 -0.56772487D-19
 -0.44600640D-04 -0.13237205D-18  0.14572389D-03  0.18367581D-03  0.32588405D-18
 -0.52943911D-03 -0.49873893D-04  0.71232093D-19  0.92267444D-04 -0.20704240D-18
  0.39503651D-05  0.45161558D-19 -0.61738704D-04 -0.19277646D-04 -0.11872378D-18
  0.22517673D-03  0.74265511D-05 -0.16760892D-19 -0.39960620D-04  0.94731146D-19
MO    3     MO 0.0        OCC NO =    2.0000000  ORB. ENERGY =  -14.341662
  0.60622967D-04  0.11300384D-03  0.19156928D-03  0.29009235D-03  0.36276151D-03
  0.31230387D-03  0.12006101D-03 -0.52024400D-06 -0.42900377D-04 -0.80559311D-04
 -0.13717861D-03 -0.21488949D-03 -0.28797719D-03 -0.30975830D-03 -0.18597847D-03
  0.12230727D-03 -0.13269396D-03  0.11658388D-02  0.29868557D-03  0.30275903D-03
  0.29609172D-03  0.19564032D-03  0.20963114D-14  0.20501468D-14  0.13546187D-14
 -0.53480144D-03 -0.52302413D-03 -0.34558415D-03 -0.17587416D-03 -0.54166976D-16
  0.10069739D-02 -0.31522511D-04 -0.13285464D-16  0.61930528D-03  0.64646602D-05
 -0.29218658D-18  0.82291568D-05 -0.15358383D-03 -0.55608962D-03  0.70967345D-03
 -0.16898676D-14  0.16159006D-02  0.13478957D-15 -0.23974913D-03 -0.34845998D-04
  0.27459513D-03 -0.44667766D-17 -0.77986098D-03  0.42403617D-17 -0.16596247D-04
 -0.14130871D-04  0.30727118D-04 -0.19746600D-17  0.26022028D-04 -0.30694093D-17
 -0.24325153D-03 -0.26425173D-17  0.79873831D-03  0.37117436D-03 -0.21562383D-17
 -0.81973907D-03  0.35858022D-03  0.10083790D-16 -0.15764759D-02  0.54839092D-17
  0.17424953D-03  0.65624094D-18 -0.28279105D-03 -0.34627020D-04  0.32297508D-18
  0.22745574D-03 -0.48812158D-03 -0.22916979D-17  0.62091740D-03 -0.17624054D-17
  0.27920738D+00  0.52026183D+00  0.87989319D+00  0.13250704D+01  0.16405231D+01
  0.13960111D+01  0.53120798D+00 -0.24878736D-02 -0.11680096D-02 -0.21900289D-02
 -0.37258908D-02 -0.57859150D-02 -0.76782457D-02 -0.80918170D-02 -0.50174427D-02
  0.33376048D-02  0.28978284D-01 -0.83505842D-03 -0.21259806D-03  0.57608153D-02
  0.55331943D-02  0.38802577D-02 -0.22357892D-17 -0.21474488D-17 -0.15059393D-17
 -0.33590438D-02 -0.32263214D-02 -0.22625193D-02  0.61779455D-03  0.37972787D-17
  0.10951415D-02 -0.10590087D-02  0.22443357D-17  0.71777049D-04 -0.39738493D-04
 -0.72187289D-19 -0.36625574D-05  0.21861832D-02 -0.24324862D-02  0.24630296D-03
 -0.67386166D-17  0.32480198D-02  0.18595990D-17 -0.88675214D-03  0.10572837D-02
 -0.17053160D-03  0.56574725D-17 -0.18092996D-02 -0.53999135D-18 -0.14958693D-03
  0.14685185D-03  0.27350818D-05 -0.45820043D-18 -0.25452184D-03 -0.18822350D-17
 -0.35025148D-03 -0.80325966D-18  0.17796654D-03  0.58300741D-03  0.51936589D-17
 -0.97967695D-03  0.46774702D-03 -0.27838799D-17  0.44577733D-03  0.97927541D-17
 -0.24945027D-03 -0.33540873D-18  0.26158480D-03  0.46889533D-03  0.71575835D-18
 -0.82455156D-03  0.27945549D-03  0.29046783D-18  0.39797170D-04 -0.10594357D-17
  0.30394755D+00  0.56636151D+00  0.95785929D+00  0.14424830D+01  0.17858876D+01
  0.15197097D+01  0.57827758D+00 -0.27083206D-02 -0.12714761D-02 -0.23840296D-02
 -0.40559437D-02 -0.62984523D-02 -0.83584125D-02 -0.88086194D-02 -0.54619060D-02
  0.36332620D-02  0.31384382D-01 -0.73413378D-03 -0.23689677D-03 -0.17127773D-02
 -0.16451021D-02 -0.11536592D-02  0.20618807D-16  0.19804118D-16  0.13888014D-16
 -0.68528199D-02 -0.65820516D-02 -0.46157889D-02 -0.15946241D-02 -0.62527451D-17
  0.26344545D-03  0.67851568D-03  0.14761247D-18  0.83358051D-03  0.31865167D-04
  0.60350254D-19  0.28020202D-04  0.30313495D-02 -0.26529748D-02 -0.37837471D-03
 -0.53561952D-17  0.19899427D-02  0.45659731D-17 -0.12770924D-02  0.10152194D-02
  0.26187305D-03  0.32145374D-17 -0.42391525D-03  0.18064314D-17 -0.19445458D-03
  0.14850408D-03  0.45950499D-04 -0.31050767D-18 -0.14066617D-03  0.87336044D-18
  0.16364802D-03 -0.64331924D-18 -0.23059360D-03 -0.50575845D-03 -0.31112308D-17
  0.69662047D-03  0.14814379D-04  0.50411885D-17 -0.48396546D-05 -0.71241447D-17
  0.21312019D-03  0.43952036D-18 -0.18253718D-03 -0.35618813D-03 -0.45098101D-18
  0.85267100D-03 -0.28317243D-03 -0.86758006D-18 -0.30505947D-03 -0.17312453D-17
  0.60164189D-04  0.11214866D-03  0.19011954D-03  0.28789702D-03  0.36001623D-03
  0.30994044D-03  0.11915242D-03 -0.51630694D-06 -0.42750423D-04 -0.80277723D-04
 -0.13669912D-03 -0.21413836D-03 -0.28697059D-03 -0.30867556D-03 -0.18532840D-03
  0.12187975D-03 -0.14097059D-03  0.12084985D-02  0.31189332D-03  0.18143275D-03
  0.17743727D-03  0.11724030D-03  0.12521128D-17  0.12245390D-17  0.80910467D-18
 -0.60667565D-03 -0.59331554D-03 -0.39202866D-03 -0.61202278D-03 -0.28697942D-17
  0.89500762D-03 -0.47092413D-03  0.17281453D-17  0.42205886D-03 -0.11647685D-04
  0.25842969D-20 -0.68082120D-06  0.98118707D-03 -0.59146576D-03 -0.38972131D-03
 -0.65357889D-18 -0.10438351D-02  0.13591062D-17 -0.32570106D-03 -0.40972373D-04
  0.36667344D-03  0.17530968D-17 -0.50081311D-03 -0.56938137D-18  0.47204905D-04
 -0.16470021D-04 -0.30734884D-04 -0.88460937D-18 -0.29756464D-04  0.58229670D-18
  0.61851707D-04  0.21072054D-18 -0.20455884D-04  0.86083646D-03  0.13021304D-17
  0.15363024D-02 -0.10463916D-02 -0.19342920D-17 -0.14749347D-02  0.37770888D-18
  0.72976037D-04 -0.27623778D-19  0.76861212D-04 -0.41456845D-03 -0.23495694D-18
 -0.74827579D-03  0.19564034D-03  0.31782827D-18  0.51769215D-03 -0.20100809D-18
MO    4     MO 0.0        OCC NO =    2.0000000  ORB. ENERGY =  -14.341241
 -0.69447033D-06 -0.12945228D-05 -0.21945344D-05 -0.33231718D-05 -0.41556380D-05
 -0.35776172D-05 -0.13753667D-05  0.59596889D-08 -0.17032049D-05 -0.31983171D-05
 -0.54461824D-05 -0.85314126D-05 -0.11433097D-04 -0.12297837D-04 -0.73836051D-05
  0.48557694D-05 -0.10038047D-03  0.54889048D-03  0.16486058D-03 -0.16713257D-03
 -0.16345201D-03 -0.10799965D-03  0.20758259D-14  0.20301124D-14  0.13413811D-14
 -0.35841277D-03 -0.35051986D-03 -0.23160329D-03  0.84286242D-05  0.22204597D-15
  0.78445834D-03  0.96225613D-03 -0.43781521D-16  0.14980527D-03  0.29086241D-04
  0.10492831D-16 -0.83675775D-05 -0.47481225D-03 -0.45107772D-03  0.92588997D-03
  0.54206061D-15 -0.22378711D-02  0.27104645D-15 -0.83262156D-04 -0.68402718D-04
  0.15166487D-03  0.40940380D-17  0.12922850D-02  0.52716701D-17  0.14113509D-03
 -0.27195452D-04 -0.11393964D-03  0.14911730D-17  0.63068877D-03 -0.39279275D-18
  0.36122168D-03 -0.10291746D-17  0.98715748D-03  0.28810931D-03 -0.94420949D-19
 -0.18966774D-02 -0.13717743D-02  0.31819448D-17 -0.10647951D-02  0.28121989D-17
 -0.27527371D-03 -0.21094175D-18 -0.49542144D-03 -0.26443334D-03 -0.58307646D-18
  0.98337256D-03  0.10902545D-02  0.12159017D-17  0.50289175D-03 -0.68905566D-18
  0.30401857D+00  0.56649384D+00  0.95808311D+00  0.14428201D+01  0.17863048D+01
  0.15200648D+01  0.57841270D+00 -0.27089534D-02 -0.12681806D-02 -0.23778505D-02
 -0.40454312D-02 -0.62821275D-02 -0.83367485D-02 -0.87857886D-02 -0.54477494D-02
  0.36238450D-02  0.29651730D-01  0.10986856D-02 -0.30059493D-03  0.27128511D-02
  0.26056610D-02  0.18272694D-02  0.88577639D-18  0.85077764D-18  0.59662400D-18
 -0.51331100D-02 -0.49302908D-02 -0.34574603D-02  0.41636620D-02  0.48808826D-18
  0.23359809D-02 -0.15681553D-03  0.37492078D-17  0.75490969D-03 -0.33546114D-04
 -0.71349455D-19  0.23030008D-04  0.26146988D-02 -0.26943737D-02  0.79674817D-04
 -0.29396317D-17  0.80198467D-03 -0.35848515D-18  0.14731781D-02 -0.44412737D-03
 -0.10290508D-02  0.28553795D-17  0.33804404D-02  0.14437036D-17 -0.17593649D-04
  0.26543188D-04 -0.89495393D-05  0.13923246D-17  0.24099321D-03  0.30323888D-18
  0.12268956D-02  0.25292593D-17 -0.99271633D-03 -0.24630129D-02  0.22713674D-17
  0.41241854D-02 -0.12176740D-02 -0.98591454D-17 -0.11460364D-02  0.21793320D-18
  0.19497988D-03 -0.24530913D-18 -0.44737861D-04  0.14126257D-04  0.12766515D-17
  0.31212135D-03 -0.59906590D-03 -0.54072412D-18 -0.17790777D-03  0.50775656D-18
 -0.27928494D+00 -0.52040636D+00 -0.88013762D+00 -0.13254385D+01 -0.16409788D+01
 -0.13963989D+01 -0.53135555D+00  0.24885647D-02  0.11645586D-02  0.21835583D-02
  0.37148824D-02  0.57688201D-02  0.76555598D-02  0.80679092D-02  0.50026184D-02
 -0.33277437D-02 -0.27091557D-01 -0.11651902D-02  0.28158084D-03 -0.17278942D-02
 -0.16596217D-02 -0.11638413D-02 -0.14025565D-16 -0.13471387D-16 -0.94470667D-17
  0.50241785D-02  0.48256634D-02  0.33840883D-02  0.45085459D-02  0.87898739D-18
  0.12066030D-02  0.46618715D-03 -0.41911684D-17 -0.58630622D-03 -0.57378573D-05
 -0.12766161D-18 -0.37577465D-04 -0.15595376D-02  0.24785429D-02 -0.91900529D-03
 -0.13115391D-17 -0.23371710D-02 -0.44202181D-17 -0.20867794D-02  0.53202654D-03
  0.15547528D-02  0.37101388D-17 -0.23787972D-02  0.15651615D-17 -0.12374881D-03
 -0.14022814D-04  0.13777163D-03  0.50887796D-18  0.85599920D-05  0.93118040D-18
  0.12314529D-02  0.10395007D-17 -0.11050580D-02 -0.26280155D-02 -0.21183163D-18
  0.41871918D-02 -0.10663433D-02 -0.29066706D-17 -0.87201772D-03 -0.14133420D-17
 -0.16090026D-04  0.14957039D-18 -0.25955592D-03 -0.14305476D-03 -0.80025446D-18
  0.66556641D-03  0.19132484D-03  0.35154330D-18  0.11310134D-03 -0.81221951D-18
  0.60735644D-05  0.11321387D-04  0.19192535D-04  0.29063154D-04  0.36343576D-04
  0.31288433D-04  0.12028416D-04 -0.52121096D-07 -0.21134164D-05 -0.39686217D-05
 -0.67578784D-05 -0.10586176D-04 -0.14186722D-04 -0.15259732D-04 -0.91619231D-05
  0.60252661D-05  0.88830288D-04 -0.44833308D-03 -0.13910082D-03 -0.35427009D-03
 -0.34646841D-03 -0.22892633D-03  0.44061276D-17  0.43090966D-17  0.28472023D-17
  0.93858945D-04  0.91791998D-04  0.60650854D-04  0.49662997D-03 -0.86799190D-18
 -0.48824379D-03  0.76318915D-03  0.86832775D-18  0.59250919D-03  0.14372843D-04
  0.99514864D-19  0.26139570D-04  0.10130726D-02  0.40157193D-03 -0.14146445D-02
 -0.63397265D-17  0.12039188D-02  0.26493688D-18 -0.70384336D-03  0.65500873D-04
  0.63834249D-03  0.25820563D-17  0.25703677D-03 -0.35080057D-18 -0.33200952D-03
  0.25990294D-04  0.30601922D-03 -0.71345760D-18 -0.22709995D-03 -0.52196846D-19
 -0.69512087D-03 -0.12347349D-18 -0.10115160D-03 -0.45424623D-03 -0.19360504D-17
 -0.54461453D-03  0.25396088D-02  0.23064709D-17  0.84806932D-03 -0.21035984D-17
  0.47200640D-03  0.97978806D-19  0.16049161D-03  0.12009457D-03  0.26681726D-18
  0.22583653D-04 -0.15361138D-02 -0.56075368D-18 -0.50405847D-03  0.13280843D-17
MO    5     MO 0.0        OCC NO =    2.0000000  ORB. ENERGY =   -1.284634
 -0.51479416D-02 -0.95959862D-02 -0.16267556D-01 -0.24633874D-01 -0.30804746D-01
 -0.26520016D-01 -0.10195263D-01  0.44177741D-04 -0.75010444D-01 -0.14085633D+00
 -0.23985404D+00 -0.37572993D+00 -0.50352231D+00 -0.54160613D+00 -0.32517961D+00
  0.21385179D+00  0.12644233D+00  0.61689802D-01  0.15751271D-02  0.47136347D-01
  0.46098318D-01  0.30459108D-01 -0.87757400D-16 -0.85824820D-16 -0.56708087D-16
  0.26170968D+00  0.25594635D+00  0.16911457D+00  0.11875352D-01 -0.23929279D-16
  0.65646896D-01  0.15286397D-02  0.15069233D-15  0.77923948D-02 -0.73897448D-05
 -0.50362620D-17 -0.66374334D-04 -0.12101749D-01 -0.12131516D-01  0.24233265D-01
  0.47717322D-15  0.98635035D-02 -0.11038944D-14 -0.58153355D-02 -0.63692483D-02
  0.12184584D-01  0.17780073D-15  0.55945646D-02  0.18963693D-16 -0.19082549D-03
 -0.22403575D-03  0.41486124D-03 -0.25057119D-16  0.53618214D-03  0.38817786D-16
 -0.23255220D-03  0.68596487D-17  0.54315695D-02 -0.18302861D-02 -0.54056383D-17
 -0.78547831D-02  0.25279427D-02 -0.15173308D-16 -0.84399254D-02  0.41310892D-16
 -0.56476859D-03 -0.46457342D-19  0.15989566D-02 -0.35751691D-03 -0.26196580D-17
 -0.19605875D-02  0.20518227D-02  0.27590300D-17 -0.28362822D-02 -0.80578745D-17
 -0.43682051D-02 -0.81395070D-02 -0.13765947D-01 -0.20730753D-01 -0.25666017D-01
 -0.21840622D-01 -0.83107597D-02  0.38922833D-04 -0.27799372D-01 -0.52124082D-01
 -0.88678572D-01 -0.13770846D+00 -0.18274713D+00 -0.19259039D+00 -0.11941833D+00
  0.79437120D-01  0.40053122D-01  0.53959775D-02 -0.48644242D-03  0.11569364D+00
  0.11112236D+00  0.77926666D-01  0.17136700D-15  0.16459595D-15  0.11542604D-15
 -0.10457230D+00 -0.10044045D+00 -0.70435774D-01  0.27316042D-01  0.50210885D-16
 -0.27574745D-01  0.80521049D-03  0.45876996D-17  0.15838667D-02 -0.30759402D-04
 -0.26348234D-17  0.58121420D-04  0.79115461D-02 -0.21033677D-01  0.13122131D-01
  0.85439457D-18  0.11450960D-01  0.26450371D-16  0.79073640D-03 -0.28316777D-02
  0.20409413D-02  0.18394790D-16  0.15562463D-03 -0.28020249D-16  0.13804147D-03
  0.17845214D-03 -0.31649360D-03  0.25795397D-17  0.22486308D-04  0.28200513D-17
  0.41268603D-02 -0.17171858D-16 -0.57429226D-02 -0.67267483D-02  0.51234740D-17
  0.10353771D-01 -0.56538327D-02  0.46392101D-16  0.68749972D-02  0.42999747D-16
 -0.16512736D-03 -0.27334299D-17 -0.20038916D-03  0.10413082D-03  0.14943573D-17
  0.54912987D-03  0.39125125D-03  0.67059323D-17  0.52037595D-04 -0.47608449D-17