 Molden2AIM, Version 4.0.0 (06/02/2016)           Time: Sat Jun 30 05:33:10 2018
GAUSSIAN             25 MOL ORBITALS    450 PRIMITIVES        6 NUCLEI
  N    1    (CENTRE  1)   0.06173924  1.37308256 -0.51139768  CHARGE =  7.0
  N    2    (CENTRE  2)  -0.06173924 -1.37308256 -0.51139768  CHARGE =  7.0
  F    3    (CENTRE  3)   0.93883484  2.12504427  1.81017243  CHARGE =  9.0
  F    4    (CENTRE  4)  -2.44494089  1.98936571 -0.41792994  CHARGE =  9.0
  F    5    (CENTRE  5)  -0.93883484 -2.12504427  1.81017243  CHARGE =  9.0
  F    6    (CENTRE  6)   2.44494089 -1.98936571 -0.41792994  CHARGE =  9.0
CENTRE ASSIGNMENTS    1  1  1  1  1  1  1  1  1  1  1  1  1  1  1  1  1  1  1  1
CENTRE ASSIGNMENTS    1  1  1  1  1  1  1  1  1  1  1  1  1  1  1  1  1  1  1  1
CENTRE ASSIGNMENTS    1  1  1  1  1  1  1  1  1  1  1  1  1  1  1  1  1  1  1  1
CENTRE ASSIGNMENTS    1  1  1  1  1  1  1  1  1  1  1  1  1  1  1  2  2  2  2  2
CENTRE ASSIGNMENTS    2  2  2  2  2  2  2  2  2  2  2  2  2  2  2  2  2  2  2  2
CENTRE ASSIGNMENTS    2  2  2  2  2  2  2  2  2  2  2  2  2  2  2  2  2  2  2  2
CENTRE ASSIGNMENTS    2  2  2  2  2  2  2  2  2  2  2  2  2  2  2  2  2  2  2  2
CENTRE ASSIGNMENTS    2  2  2  2  2  2  2  2  2  2  3  3  3  3  3  3  3  3  3  3
CENTRE ASSIGNMENTS    3  3  3  3  3  3  3  3  3  3  3  3  3  3  3  3  3  3  3  3
CENTRE ASSIGNMENTS    3  3  3  3  3  3  3  3  3  3  3  3  3  3  3  3  3  3  3  3
CENTRE ASSIGNMENTS    3  3  3  3  3  3  3  3  3  3  3  3  3  3  3  3  3  3  3  3
CENTRE ASSIGNMENTS    3  3  3  3  3  4  4  4  4  4  4  4  4  4  4  4  4  4  4  4
CENTRE ASSIGNMENTS    4  4  4  4  4  4  4  4  4  4  4  4  4  4  4  4  4  4  4  4
CENTRE ASSIGNMENTS    4  4  4  4  4  4  4  4  4  4  4  4  4  4  4  4  4  4  4  4
CENTRE ASSIGNMENTS    4  4  4  4  4  4  4  4  4  4  4  4  4  4  4  4  4  4  4  4
CENTRE ASSIGNMENTS    5  5  5  5  5  5  5  5  5  5  5  5  5  5  5  5  5  5  5  5
CENTRE ASSIGNMENTS    5  5  5  5  5  5  5  5  5  5  5  5  5  5  5  5  5  5  5  5
CENTRE ASSIGNMENTS    5  5  5  5  5  5  5  5  5  5  5  5  5  5  5  5  5  5  5  5
CENTRE ASSIGNMENTS    5  5  5  5  5  5  5  5  5  5  5  5  5  5  5  6  6  6  6  6
CENTRE ASSIGNMENTS    6  6  6  6  6  6  6  6  6  6  6  6  6  6  6  6  6  6  6  6
CENTRE ASSIGNMENTS    6  6  6  6  6  6  6  6  6  6  6  6  6  6  6  6  6  6  6  6
CENTRE ASSIGNMENTS    6  6  6  6  6  6  6  6  6  6  6  6  6  6  6  6  6  6  6  6
CENTRE ASSIGNMENTS    6  6  6  6  6  6  6  6  6  6
TYPE ASSIGNMENTS      1  1  1  1  1  1  1  1  1  1  1  1  1  1  1  1  1  1  1  2
TYPE ASSIGNMENTS      2  2  3  3  3  4  4  4  2  3  4  2  3  4  2  3  4  5  6  7
TYPE ASSIGNMENTS      8  9 10  5  6  7  8  9 10  5  6  7  8  9 10 11 12 13 17 14
TYPE ASSIGNMENTS     15 18 19 16 20 11 12 13 17 14 15 18 19 16 20  1  1  1  1  1
TYPE ASSIGNMENTS      1  1  1  1  1  1  1  1  1  1  1  1  1  1  2  2  2  3  3  3
TYPE ASSIGNMENTS      4  4  4  2  3  4  2  3  4  2  3  4  5  6  7  8  9 10  5  6
TYPE ASSIGNMENTS      7  8  9 10  5  6  7  8  9 10 11 12 13 17 14 15 18 19 16 20
TYPE ASSIGNMENTS     11 12 13 17 14 15 18 19 16 20  1  1  1  1  1  1  1  1  1  1
TYPE ASSIGNMENTS      1  1  1  1  1  1  1  1  1  2  2  2  3  3  3  4  4  4  2  3
TYPE ASSIGNMENTS      4  2  3  4  2  3  4  5  6  7  8  9 10  5  6  7  8  9 10  5
TYPE ASSIGNMENTS      6  7  8  9 10 11 12 13 17 14 15 18 19 16 20 11 12 13 17 14
TYPE ASSIGNMENTS     15 18 19 16 20  1  1  1  1  1  1  1  1  1  1  1  1  1  1  1
TYPE ASSIGNMENTS      1  1  1  1  2  2  2  3  3  3  4  4  4  2  3  4  2  3  4  2
TYPE ASSIGNMENTS      3  4  5  6  7  8  9 10  5  6  7  8  9 10  5  6  7  8  9 10
TYPE ASSIGNMENTS     11 12 13 17 14 15 18 19 16 20 11 12 13 17 14 15 18 19 16 20
TYPE ASSIGNMENTS      1  1  1  1  1  1  1  1  1  1  1  1  1  1  1  1  1  1  1  2
TYPE ASSIGNMENTS      2  2  3  3  3  4  4  4  2  3  4  2  3  4  2  3  4  5  6  7
TYPE ASSIGNMENTS      8  9 10  5  6  7  8  9 10  5  6  7  8  9 10 11 12 13 17 14
TYPE ASSIGNMENTS     15 18 19 16 20 11 12 13 17 14 15 18 19 16 20  1  1  1  1  1
TYPE ASSIGNMENTS      1  1  1  1  1  1  1  1  1  1  1  1  1  1  2  2  2  3  3  3
TYPE ASSIGNMENTS      4  4  4  2  3  4  2  3  4  2  3  4  5  6  7  8  9 10  5  6
TYPE ASSIGNMENTS      7  8  9 10  5  6  7  8  9 10 11 12 13 17 14 15 18 19 16 20
TYPE ASSIGNMENTS     11 12 13 17 14 15 18 19 16 20
EXPONENTS  0.1142000D+05 0.1712000D+04 0.3893000D+03 0.1100000D+03 0.3557000D+02
EXPONENTS  0.1254000D+02 0.4644000D+01 0.5118000D+00 0.1142000D+05 0.1712000D+04
EXPONENTS  0.3893000D+03 0.1100000D+03 0.3557000D+02 0.1254000D+02 0.4644000D+01
EXPONENTS  0.5118000D+00 0.1293000D+01 0.1787000D+00 0.5760000D-01 0.2663000D+02
EXPONENTS  0.5948000D+01 0.1742000D+01 0.2663000D+02 0.5948000D+01 0.1742000D+01
EXPONENTS  0.2663000D+02 0.5948000D+01 0.1742000D+01 0.5550000D+00 0.5550000D+00
EXPONENTS  0.5550000D+00 0.1725000D+00 0.1725000D+00 0.1725000D+00 0.4910000D-01
EXPONENTS  0.4910000D-01 0.4910000D-01 0.1654000D+01 0.1654000D+01 0.1654000D+01
EXPONENTS  0.1654000D+01 0.1654000D+01 0.1654000D+01 0.4690000D+00 0.4690000D+00
EXPONENTS  0.4690000D+00 0.4690000D+00 0.4690000D+00 0.4690000D+00 0.1510000D+00
EXPONENTS  0.1510000D+00 0.1510000D+00 0.1510000D+00 0.1510000D+00 0.1510000D+00
EXPONENTS  0.1093000D+01 0.1093000D+01 0.1093000D+01 0.1093000D+01 0.1093000D+01
EXPONENTS  0.1093000D+01 0.1093000D+01 0.1093000D+01 0.1093000D+01 0.1093000D+01
EXPONENTS  0.3640000D+00 0.3640000D+00 0.3640000D+00 0.3640000D+00 0.3640000D+00
EXPONENTS  0.3640000D+00 0.3640000D+00 0.3640000D+00 0.3640000D+00 0.3640000D+00
EXPONENTS  0.1142000D+05 0.1712000D+04 0.3893000D+03 0.1100000D+03 0.3557000D+02
EXPONENTS  0.1254000D+02 0.4644000D+01 0.5118000D+00 0.1142000D+05 0.1712000D+04
EXPONENTS  0.3893000D+03 0.1100000D+03 0.3557000D+02 0.1254000D+02 0.4644000D+01
EXPONENTS  0.5118000D+00 0.1293000D+01 0.1787000D+00 0.5760000D-01 0.2663000D+02
EXPONENTS  0.5948000D+01 0.1742000D+01 0.2663000D+02 0.5948000D+01 0.1742000D+01
EXPONENTS  0.2663000D+02 0.5948000D+01 0.1742000D+01 0.5550000D+00 0.5550000D+00
EXPONENTS  0.5550000D+00 0.1725000D+00 0.1725000D+00 0.1725000D+00 0.4910000D-01
EXPONENTS  0.4910000D-01 0.4910000D-01 0.1654000D+01 0.1654000D+01 0.1654000D+01
EXPONENTS  0.1654000D+01 0.1654000D+01 0.1654000D+01 0.4690000D+00 0.4690000D+00
EXPONENTS  0.4690000D+00 0.4690000D+00 0.4690000D+00 0.4690000D+00 0.1510000D+00
EXPONENTS  0.1510000D+00 0.1510000D+00 0.1510000D+00 0.1510000D+00 0.1510000D+00
EXPONENTS  0.1093000D+01 0.1093000D+01 0.1093000D+01 0.1093000D+01 0.1093000D+01
EXPONENTS  0.1093000D+01 0.1093000D+01 0.1093000D+01 0.1093000D+01 0.1093000D+01
EXPONENTS  0.3640000D+00 0.3640000D+00 0.3640000D+00 0.3640000D+00 0.3640000D+00
EXPONENTS  0.3640000D+00 0.3640000D+00 0.3640000D+00 0.3640000D+00 0.3640000D+00
EXPONENTS  0.1950000D+05 0.2923000D+04 0.6645000D+03 0.1875000D+03 0.6062000D+02
EXPONENTS  0.2142000D+02 0.7950000D+01 0.8815000D+00 0.1950000D+05 0.2923000D+04
EXPONENTS  0.6645000D+03 0.1875000D+03 0.6062000D+02 0.2142000D+02 0.7950000D+01
EXPONENTS  0.8815000D+00 0.2257000D+01 0.3041000D+00 0.9158000D-01 0.4388000D+02
EXPONENTS  0.9926000D+01 0.2930000D+01 0.4388000D+02 0.9926000D+01 0.2930000D+01
EXPONENTS  0.4388000D+02 0.9926000D+01 0.2930000D+01 0.9132000D+00 0.9132000D+00
EXPONENTS  0.9132000D+00 0.2672000D+00 0.2672000D+00 0.2672000D+00 0.7361000D-01
EXPONENTS  0.7361000D-01 0.7361000D-01 0.3107000D+01 0.3107000D+01 0.3107000D+01
EXPONENTS  0.3107000D+01 0.3107000D+01 0.3107000D+01 0.8550000D+00 0.8550000D+00
EXPONENTS  0.8550000D+00 0.8550000D+00 0.8550000D+00 0.8550000D+00 0.2920000D+00
EXPONENTS  0.2920000D+00 0.2920000D+00 0.2920000D+00 0.2920000D+00 0.2920000D+00
EXPONENTS  0.1917000D+01 0.1917000D+01 0.1917000D+01 0.1917000D+01 0.1917000D+01
EXPONENTS  0.1917000D+01 0.1917000D+01 0.1917000D+01 0.1917000D+01 0.1917000D+01
EXPONENTS  0.7240000D+00 0.7240000D+00 0.7240000D+00 0.7240000D+00 0.7240000D+00
EXPONENTS  0.7240000D+00 0.7240000D+00 0.7240000D+00 0.7240000D+00 0.7240000D+00
EXPONENTS  0.1950000D+05 0.2923000D+04 0.6645000D+03 0.1875000D+03 0.6062000D+02
EXPONENTS  0.2142000D+02 0.7950000D+01 0.8815000D+00 0.1950000D+05 0.2923000D+04
EXPONENTS  0.6645000D+03 0.1875000D+03 0.6062000D+02 0.2142000D+02 0.7950000D+01
EXPONENTS  0.8815000D+00 0.2257000D+01 0.3041000D+00 0.9158000D-01 0.4388000D+02
EXPONENTS  0.9926000D+01 0.2930000D+01 0.4388000D+02 0.9926000D+01 0.2930000D+01
EXPONENTS  0.4388000D+02 0.9926000D+01 0.2930000D+01 0.9132000D+00 0.9132000D+00
EXPONENTS  0.9132000D+00 0.2672000D+00 0.2672000D+00 0.2672000D+00 0.7361000D-01
EXPONENTS  0.7361000D-01 0.7361000D-01 0.3107000D+01 0.3107000D+01 0.3107000D+01
EXPONENTS  0.3107000D+01 0.3107000D+01 0.3107000D+01 0.8550000D+00 0.8550000D+00
EXPONENTS  0.8550000D+00 0.8550000D+00 0.8550000D+00 0.8550000D+00 0.2920000D+00
EXPONENTS  0.2920000D+00 0.2920000D+00 0.2920000D+00 0.2920000D+00 0.2920000D+00
EXPONENTS  0.1917000D+01 0.1917000D+01 0.1917000D+01 0.1917000D+01 0.1917000D+01
EXPONENTS  0.1917000D+01 0.1917000D+01 0.1917000D+01 0.1917000D+01 0.1917000D+01
EXPONENTS  0.7240000D+00 0.7240000D+00 0.7240000D+00 0.7240000D+00 0.7240000D+00
EXPONENTS  0.7240000D+00 0.7240000D+00 0.7240000D+00 0.7240000D+00 0.7240000D+00
EXPONENTS  0.1950000D+05 0.2923000D+04 0.6645000D+03 0.1875000D+03 0.6062000D+02
EXPONENTS  0.2142000D+02 0.7950000D+01 0.8815000D+00 0.1950000D+05 0.2923000D+04
EXPONENTS  0.6645000D+03 0.1875000D+03 0.6062000D+02 0.2142000D+02 0.7950000D+01
EXPONENTS  0.8815000D+00 0.2257000D+01 0.3041000D+00 0.9158000D-01 0.4388000D+02
EXPONENTS  0.9926000D+01 0.2930000D+01 0.4388000D+02 0.9926000D+01 0.2930000D+01
EXPONENTS  0.4388000D+02 0.9926000D+01 0.2930000D+01 0.9132000D+00 0.9132000D+00
EXPONENTS  0.9132000D+00 0.2672000D+00 0.2672000D+00 0.2672000D+00 0.7361000D-01
EXPONENTS  0.7361000D-01 0.7361000D-01 0.3107000D+01 0.3107000D+01 0.3107000D+01
EXPONENTS  0.3107000D+01 0.3107000D+01 0.3107000D+01 0.8550000D+00 0.8550000D+00
EXPONENTS  0.8550000D+00 0.8550000D+00 0.8550000D+00 0.8550000D+00 0.2920000D+00
EXPONENTS  0.2920000D+00 0.2920000D+00 0.2920000D+00 0.2920000D+00 0.2920000D+00
EXPONENTS  0.1917000D+01 0.1917000D+01 0.1917000D+01 0.1917000D+01 0.1917000D+01
EXPONENTS  0.1917000D+01 0.1917000D+01 0.1917000D+01 0.1917000D+01 0.1917000D+01
EXPONENTS  0.7240000D+00 0.7240000D+00 0.7240000D+00 0.7240000D+00 0.7240000D+00
EXPONENTS  0.7240000D+00 0.7240000D+00 0.7240000D+00 0.7240000D+00 0.7240000D+00
EXPONENTS  0.1950000D+05 0.2923000D+04 0.6645000D+03 0.1875000D+03 0.6062000D+02
EXPONENTS  0.2142000D+02 0.7950000D+01 0.8815000D+00 0.1950000D+05 0.2923000D+04
EXPONENTS  0.6645000D+03 0.1875000D+03 0.6062000D+02 0.2142000D+02 0.7950000D+01
EXPONENTS  0.8815000D+00 0.2257000D+01 0.3041000D+00 0.9158000D-01 0.4388000D+02
EXPONENTS  0.9926000D+01 0.2930000D+01 0.4388000D+02 0.9926000D+01 0.2930000D+01
EXPONENTS  0.4388000D+02 0.9926000D+01 0.2930000D+01 0.9132000D+00 0.9132000D+00
EXPONENTS  0.9132000D+00 0.2672000D+00 0.2672000D+00 0.2672000D+00 0.7361000D-01
EXPONENTS  0.7361000D-01 0.7361000D-01 0.3107000D+01 0.3107000D+01 0.3107000D+01
EXPONENTS  0.3107000D+01 0.3107000D+01 0.3107000D+01 0.8550000D+00 0.8550000D+00
EXPONENTS  0.8550000D+00 0.8550000D+00 0.8550000D+00 0.8550000D+00 0.2920000D+00
EXPONENTS  0.2920000D+00 0.2920000D+00 0.2920000D+00 0.2920000D+00 0.2920000D+00
EXPONENTS  0.1917000D+01 0.1917000D+01 0.1917000D+01 0.1917000D+01 0.1917000D+01
EXPONENTS  0.1917000D+01 0.1917000D+01 0.1917000D+01 0.1917000D+01 0.1917000D+01
EXPONENTS  0.7240000D+00 0.7240000D+00 0.7240000D+00 0.7240000D+00 0.7240000D+00
EXPONENTS  0.7240000D+00 0.7240000D+00 0.7240000D+00 0.7240000D+00 0.7240000D+00
MO    1     MO 0.0        OCC NO =    2.0000000  ORB. ENERGY =  -24.563582
 -0.52819517D-05 -0.98421393D-05 -0.16645525D-04 -0.25067238D-04 -0.31034867D-04
 -0.26409271D-04 -0.10049215D-04  0.47064760D-07 -0.47240813D-05 -0.88576965D-05
 -0.15069577D-04 -0.23401462D-04 -0.31055102D-04 -0.32727814D-04 -0.20293333D-04
  0.13499133D-04  0.37434241D-03 -0.19421619D-02 -0.45610818D-03 -0.79530139D-03
 -0.76387748D-03 -0.53568362D-03  0.12023579D-03  0.11548504D-03  0.80986083D-04
  0.35662386D-04  0.34253296D-04  0.24020775D-04  0.91397306D-03 -0.20007220D-03
 -0.33867956D-04  0.48767341D-03  0.30799070D-03 -0.26804625D-03  0.18632521D-04
  0.20154531D-04 -0.11029807D-04 -0.25697079D-03  0.19213140D-03  0.64839392D-04
  0.19077340D-03  0.39730478D-04  0.19317064D-03 -0.40556996D-03  0.12051893D-03
  0.28505103D-03  0.33814076D-03  0.25053544D-04 -0.18872146D-03 -0.13438733D-04
 -0.62128820D-05  0.19651615D-04 -0.98793908D-05  0.28735217D-04  0.16634654D-04
  0.38785424D-03  0.20954473D-03  0.19149066D-04 -0.57557323D-03 -0.68076348D-03
 -0.11297449D-03 -0.58798949D-03  0.52129293D-04  0.55527290D-04  0.11472349D-03
  0.28512135D-04  0.16401337D-04 -0.67163192D-05 -0.19060583D-04  0.12855173D-04
  0.11127885D-05 -0.66475821D-04 -0.62059184D-04  0.19036169D-04 -0.20401346D-04
  0.52819683D-05  0.98421701D-05  0.16645577D-04  0.25067317D-04  0.31034964D-04
  0.26409354D-04  0.10049246D-04 -0.47064908D-07  0.47240712D-05  0.88576777D-05
  0.15069545D-04  0.23401413D-04  0.31055036D-04  0.32727745D-04  0.20293289D-04
 -0.13499104D-04 -0.37434247D-03  0.19421621D-02  0.45610822D-03 -0.79530156D-03
 -0.76387764D-03 -0.53568373D-03  0.12023585D-03  0.11548510D-03  0.80986123D-04
 -0.35662396D-04 -0.34253305D-04 -0.24020782D-04  0.91397326D-03 -0.20007226D-03
  0.33867961D-04  0.48767355D-03  0.30799068D-03  0.26804627D-03  0.18632527D-04
  0.20154532D-04  0.11029809D-04  0.25697086D-03 -0.19213143D-03 -0.64839430D-04
 -0.19077344D-03  0.39730472D-04  0.19317065D-03  0.40557004D-03 -0.12051897D-03
 -0.28505108D-03 -0.33814084D-03  0.25053564D-04 -0.18872147D-03  0.13438742D-04
  0.62128771D-05 -0.19651619D-04  0.98793961D-05  0.28735229D-04  0.16634654D-04
  0.38785432D-03  0.20954476D-03 -0.19149071D-04 -0.57557333D-03 -0.68076362D-03
  0.11297451D-03 -0.58798964D-03  0.52129353D-04 -0.55527297D-04 -0.11472349D-03
  0.28512138D-04  0.16401343D-04  0.67163192D-05 -0.19060589D-04  0.12855160D-04
 -0.11127872D-05 -0.66475824D-04 -0.62059188D-04 -0.19036170D-04  0.20401328D-04
 -0.12497802D-03 -0.23296444D-03 -0.39493200D-03 -0.59804345D-03 -0.74785543D-03
 -0.64383386D-03 -0.24751324D-03  0.10725154D-05  0.29132714D-04  0.54706076D-04
  0.93155014D-04  0.14592678D-03  0.19555905D-03  0.21035012D-03  0.12629394D-03
 -0.83056208D-04 -0.78888258D-05  0.30684437D-03  0.95311242D-04 -0.93753414D-04
 -0.91688791D-04 -0.60582661D-04  0.77061383D-04  0.75364349D-04  0.49796412D-04
  0.97631006D-04  0.95480991D-04  0.63088328D-04  0.10253310D-03 -0.65577089D-04
 -0.52461537D-04 -0.18314699D-03 -0.73466578D-05 -0.14685673D-03 -0.50666462D-05
  0.12823621D-05 -0.50942617D-05  0.48036804D-05  0.33506550D-04 -0.38310230D-04
  0.20357621D-03 -0.57317321D-04  0.19940606D-04 -0.27545563D-04  0.29829680D-05
  0.24562595D-04 -0.10363440D-03 -0.15977790D-04 -0.18860272D-05  0.36848026D-04
 -0.53172420D-04  0.16324394D-04  0.39700142D-04  0.71337895D-04 -0.69668926D-05
  0.17679564D-04 -0.11003946D-03 -0.10414080D-04  0.23469140D-04  0.28343738D-03
  0.28194623D-03 -0.76507833D-04  0.46680995D-04 -0.25070399D-03 -0.11090459D-03
 -0.13896120D-04  0.35002164D-04 -0.71416053D-05  0.30910678D-04 -0.80171392D-04
 -0.92887105D-04  0.10777681D-04 -0.24835101D-04  0.11431192D-03  0.79134898D-04
 -0.42032901D+00 -0.78351148D+00 -0.13282446D+01 -0.20113538D+01 -0.25152049D+01
 -0.21653572D+01 -0.83244234D+00  0.36071089D-02 -0.10446642D-03 -0.19616944D-03
 -0.33404272D-03 -0.52327594D-03 -0.70125132D-03 -0.75429034D-03 -0.45287493D-03
  0.29782961D-03 -0.45487841D-01  0.81028538D-03  0.45260397D-03 -0.48551552D-02
 -0.47482358D-02 -0.31373601D-02  0.14575041D-02  0.14254072D-02  0.94182678D-03
  0.97341027D-04  0.95197398D-04  0.62900946D-04  0.87028208D-03 -0.27116390D-03
 -0.29108892D-04  0.77898214D-03 -0.27214491D-03  0.23319548D-04  0.32403280D-04
 -0.91125661D-05  0.16716700D-05  0.19458113D-03 -0.15120244D-03 -0.43378690D-04
 -0.13191591D-03 -0.12326881D-04  0.23222052D-03  0.54553185D-03 -0.21744432D-03
 -0.32808753D-03 -0.48243494D-03 -0.37809998D-04  0.22043199D-05  0.13701258D-03
 -0.64472249D-04 -0.72540330D-04 -0.12566394D-03 -0.10343466D-04 -0.48319065D-05
 -0.14224835D-03 -0.10861400D-03 -0.48656545D-04  0.25914069D-03  0.82537382D-04
  0.13822118D-03  0.16760437D-03  0.24330463D-03  0.77484514D-05  0.52628175D-04
  0.21865333D-03  0.99764665D-04  0.24364789D-04 -0.28968961D-03 -0.31485290D-03
 -0.77785440D-04 -0.36627037D-03  0.15558904D-04  0.46910734D-05  0.12919582D-04
  0.12497803D-03  0.23296447D-03  0.39493205D-03  0.59804352D-03  0.74785552D-03
  0.64383394D-03  0.24751327D-03 -0.10725155D-05 -0.29132719D-04 -0.54706087D-04
 -0.93155031D-04 -0.14592680D-03 -0.19555909D-03 -0.21035016D-03 -0.12629396D-03
  0.83056223D-04  0.78888220D-05 -0.30684437D-03 -0.95311251D-04 -0.93753419D-04
 -0.91688796D-04 -0.60582664D-04  0.77061370D-04  0.75364337D-04  0.49796404D-04
 -0.97631004D-04 -0.95480989D-04 -0.63088327D-04  0.10253311D-03 -0.65577076D-04
  0.52461527D-04 -0.18314702D-03 -0.73466692D-05  0.14685673D-03 -0.50666467D-05
  0.12823613D-05  0.50942595D-05 -0.48036588D-05 -0.33506574D-04  0.38310233D-04
 -0.20357621D-03 -0.57317346D-04  0.19940593D-04  0.27545555D-04 -0.29829597D-05
 -0.24562596D-04  0.10363440D-03 -0.15977789D-04 -0.18860256D-05 -0.36848030D-04
  0.53172416D-04 -0.16324386D-04 -0.39700144D-04  0.71337903D-04 -0.69668866D-05
  0.17679593D-04 -0.11003945D-03  0.10414111D-04  0.23469084D-04  0.28343736D-03
 -0.28194626D-03 -0.76507862D-04  0.46680987D-04  0.25070393D-03  0.11090463D-03
 -0.13896130D-04  0.35002163D-04  0.71415946D-05  0.30910696D-04 -0.80171384D-04
  0.92887120D-04  0.10777693D-04 -0.24835105D-04 -0.11431190D-03 -0.79134910D-04
  0.42032910D+00  0.78351165D+00  0.13282449D+01  0.20113542D+01  0.25152055D+01
  0.21653576D+01  0.83244252D+00 -0.36071097D-02  0.10446644D-03  0.19616947D-03
  0.33404277D-03  0.52327603D-03  0.70125144D-03  0.75429047D-03  0.45287501D-03
 -0.29782966D-03  0.45487850D-01 -0.81028556D-03 -0.45260407D-03 -0.48551563D-02
 -0.47482368D-02 -0.31373608D-02  0.14575044D-02  0.14254074D-02  0.94182696D-03
 -0.97341045D-04 -0.95197416D-04 -0.62900958D-04  0.87028226D-03 -0.27116394D-03
  0.29108897D-04  0.77898231D-03 -0.27214495D-03 -0.23319556D-04  0.32403288D-04
 -0.91125694D-05 -0.16716715D-05 -0.19458115D-03  0.15120246D-03  0.43378691D-04
  0.13191596D-03 -0.12326894D-04  0.23222058D-03 -0.54553197D-03  0.21744437D-03
  0.32808760D-03  0.48243502D-03 -0.37810001D-04  0.22043165D-05 -0.13701261D-03
  0.64472266D-04  0.72540344D-04  0.12566397D-03 -0.10343464D-04 -0.48319042D-05
 -0.14224837D-03 -0.10861402D-03  0.48656545D-04  0.25914070D-03  0.82537429D-04
 -0.13822119D-03  0.16760440D-03  0.24330463D-03 -0.77484489D-05 -0.52628159D-04
  0.21865337D-03  0.99764685D-04 -0.24364791D-04 -0.28968966D-03 -0.31485297D-03
  0.77785446D-04 -0.36627045D-03  0.15558919D-04 -0.46910747D-05 -0.12919593D-04
MO    2     MO 0.0        OCC NO =    2.0000000  ORB. ENERGY =  -24.563582
  0.77785226D-04  0.14494132D-03  0.24513210D-03  0.36915536D-03  0.45703828D-03
  0.38891895D-03  0.14799084D-03 -0.69310422D-06 -0.47306116D-04 -0.88699409D-04
 -0.15090409D-03 -0.23433811D-03 -0.31098030D-03 -0.32773055D-03 -0.20321385D-03
  0.13517793D-03 -0.31733990D-03  0.94315111D-03  0.19390656D-03  0.79544132D-03
  0.76401188D-03  0.53577786D-03 -0.27926503D-03 -0.26823072D-03 -0.18810190D-03
 -0.44492572D-04 -0.42734584D-04 -0.29968440D-04 -0.91105155D-03  0.31911632D-03
  0.23921707D-04 -0.68354806D-03  0.82732020D-04  0.87114233D-04 -0.28640416D-04
 -0.66350141D-05  0.10568858D-04  0.31547853D-03 -0.13686477D-03 -0.17861376D-03
 -0.17469867D-03  0.31112500D-04 -0.19294801D-04  0.41429535D-03 -0.19287797D-03
 -0.22141737D-03 -0.39005199D-03 -0.93925283D-04  0.80576785D-05  0.38546714D-04
 -0.23153254D-04 -0.15393459D-04  0.24704886D-04 -0.54202299D-04  0.17848305D-05
 -0.40452809D-03 -0.12863104D-03 -0.23429346D-04  0.50024497D-03  0.66814978D-03
  0.10592452D-03  0.71333931D-03 -0.28225667D-03 -0.35636485D-04 -0.31601173D-04
 -0.13282440D-04 -0.26378332D-04  0.77426070D-08  0.25281850D-04  0.60867212D-04
  0.61210513D-05  0.14565470D-04  0.18267785D-04 -0.61442791D-05 -0.84080387D-04
  0.77785225D-04  0.14494131D-03  0.24513210D-03  0.36915536D-03  0.45703828D-03
  0.38891895D-03  0.14799083D-03 -0.69310421D-06 -0.47306117D-04 -0.88699411D-04
 -0.15090409D-03 -0.23433812D-03 -0.31098031D-03 -0.32773056D-03 -0.20321385D-03
  0.13517793D-03 -0.31733983D-03  0.94315070D-03  0.19390646D-03 -0.79544115D-03
 -0.76401171D-03 -0.53577775D-03  0.27926501D-03  0.26823070D-03  0.18810188D-03
 -0.44492565D-04 -0.42734576D-04 -0.29968435D-04  0.91105135D-03 -0.31911627D-03
  0.23921700D-04  0.68354796D-03 -0.82732086D-04  0.87114176D-04  0.28640412D-04
  0.66350098D-05  0.10568855D-04  0.31547848D-03 -0.13686473D-03 -0.17861374D-03
 -0.17469863D-03 -0.31112508D-04  0.19294760D-04  0.41429526D-03 -0.19287795D-03
 -0.22141731D-03 -0.39005192D-03  0.93925277D-04 -0.80576383D-05  0.38546711D-04
 -0.23153256D-04 -0.15393455D-04  0.24704884D-04  0.54202293D-04 -0.17848341D-05
  0.40452801D-03  0.12863099D-03 -0.23429342D-04 -0.50024485D-03 -0.66814963D-03
  0.10592450D-03 -0.71333919D-03  0.28225666D-03 -0.35636473D-04 -0.31601148D-04
  0.13282434D-04  0.26378329D-04  0.77411762D-08 -0.25281846D-04 -0.60867215D-04
  0.61210515D-05 -0.14565456D-04 -0.18267771D-04 -0.61442751D-05 -0.84080391D-04
  0.67975069D-04  0.12670847D-03  0.21480201D-03  0.32527355D-03  0.40675572D-03
  0.35017879D-03  0.13462151D-03 -0.58333704D-06 -0.25341439D-04 -0.47586735D-04
 -0.81032003D-04 -0.12693615D-03 -0.17010938D-03 -0.18297557D-03 -0.10985829D-03
  0.72247435D-04 -0.17532552D-04 -0.28277889D-04 -0.46340763D-04  0.25318222D-04
  0.24760669D-04  0.16360421D-04  0.60970308D-04  0.59627629D-04  0.39398496D-04
  0.10766194D-04  0.10529102D-04  0.69570232D-05 -0.59621683D-04 -0.63430991D-04
 -0.44813013D-04  0.12464945D-03  0.53276377D-04  0.44233515D-05  0.24019556D-05
  0.36450147D-05 -0.10627513D-04  0.10148108D-03 -0.11496539D-03  0.13484306D-04
 -0.59981099D-06  0.11656346D-03  0.59891576D-04 -0.36372693D-04  0.38663181D-04
 -0.22904876D-05  0.38975249D-05 -0.55316428D-05 -0.76114812D-05 -0.17301221D-04
 -0.17999967D-04  0.35301189D-04 -0.10575144D-04 -0.33374152D-04 -0.28214706D-04
 -0.13463052D-03 -0.41651324D-04  0.14779154D-03  0.26568968D-03  0.84567078D-04
 -0.17138718D-03  0.13820187D-03  0.40386894D-04 -0.27198744D-03  0.21184679D-03
  0.46930525D-04  0.59502022D-05 -0.50189727D-04 -0.85831943D-04 -0.35411197D-04
  0.72527567D-04 -0.54959632D-04  0.17560590D-04  0.78041614D-04 -0.59201206D-04
  0.42036014D+00  0.78356952D+00  0.13283430D+01  0.20115027D+01  0.25153912D+01
  0.21655175D+01  0.83250400D+00 -0.36073761D-02  0.84277581D-04  0.15825837D-03
  0.26948671D-03  0.42214934D-03  0.56572978D-03  0.60851865D-03  0.36535380D-03
 -0.24027203D-03  0.45458135D-01 -0.84777642D-03 -0.50929997D-03  0.48109296D-02
  0.47049841D-02  0.31087819D-02 -0.13543767D-02 -0.13245509D-02 -0.87518677D-03
 -0.85171596D-04 -0.83295961D-04 -0.55037163D-04 -0.81577152D-03  0.18584644D-03
  0.22057413D-04 -0.80965915D-03  0.21391524D-03 -0.35950442D-04 -0.37473476D-04
  0.15604898D-04 -0.67361736D-05 -0.11148664D-03  0.10571392D-03  0.57727220D-05
  0.26061958D-03  0.60271850D-04 -0.26859341D-03 -0.58315191D-03  0.25085524D-03
  0.33229668D-03  0.38028186D-03  0.14023755D-04  0.16126583D-04 -0.14507357D-03
  0.79747586D-04  0.65325984D-04  0.12351593D-03 -0.95418571D-05 -0.10795102D-04
  0.70817121D-04  0.80689902D-04  0.42175466D-05 -0.47625982D-04 -0.22534140D-03
 -0.24539572D-04 -0.16482538D-03 -0.16728310D-04  0.11886932D-04  0.74535414D-04
 -0.21105327D-03 -0.94374723D-04 -0.84339906D-05  0.26578330D-03  0.35409062D-03
  0.31235509D-04  0.36737651D-03 -0.70966453D-04 -0.59335368D-05 -0.49828478D-04
  0.67975042D-04  0.12670842D-03  0.21480193D-03  0.32527343D-03  0.40675556D-03
  0.35017865D-03  0.13462146D-03 -0.58333681D-06 -0.25341433D-04 -0.47586723D-04
 -0.81031983D-04 -0.12693612D-03 -0.17010934D-03 -0.18297553D-03 -0.10985827D-03
  0.72247418D-04 -0.17532554D-04 -0.28277824D-04 -0.46340743D-04 -0.25318202D-04
 -0.24760649D-04 -0.16360408D-04 -0.60970324D-04 -0.59627645D-04 -0.39398506D-04
  0.10766215D-04  0.10529123D-04  0.69570366D-05  0.59621661D-04  0.63431005D-04
 -0.44813024D-04 -0.12464941D-03 -0.53276375D-04  0.44233202D-05 -0.24019546D-05
 -0.36450150D-05 -0.10627514D-04  0.10148108D-03 -0.11496538D-03  0.13484297D-04
 -0.59976766D-06 -0.11656345D-03 -0.59891580D-04 -0.36372699D-04  0.38663181D-04
 -0.22904824D-05  0.38975029D-05  0.55316462D-05  0.76114816D-05 -0.17301213D-04
 -0.17999979D-04  0.35301192D-04 -0.10575136D-04  0.33374137D-04  0.28214707D-04
  0.13463051D-03  0.41651347D-04  0.14779154D-03 -0.26568969D-03 -0.84567138D-04
 -0.17138712D-03 -0.13820185D-03 -0.40386904D-04 -0.27198750D-03  0.21184677D-03
 -0.46930522D-04 -0.59502097D-05 -0.50189728D-04  0.85831936D-04  0.35411214D-04
  0.72527547D-04  0.54959630D-04 -0.17560585D-04  0.78041638D-04 -0.59201190D-04
  0.42036005D+00  0.78356935D+00  0.13283427D+01  0.20115023D+01  0.25153907D+01
  0.21655171D+01  0.83250383D+00 -0.36073754D-02  0.84277558D-04  0.15825833D-03
  0.26948664D-03  0.42214923D-03  0.56572963D-03  0.60851849D-03  0.36535370D-03
 -0.24027197D-03  0.45458125D-01 -0.84777625D-03 -0.50929987D-03 -0.48109286D-02
 -0.47049831D-02 -0.31087812D-02  0.13543764D-02  0.13245506D-02  0.87518657D-03
 -0.85171576D-04 -0.83295941D-04 -0.55037150D-04  0.81577133D-03 -0.18584639D-03
  0.22057407D-04  0.80965898D-03 -0.21391519D-03 -0.35950437D-04  0.37473469D-04
 -0.15604896D-04 -0.67361732D-05 -0.11148660D-03  0.10571388D-03  0.57727128D-05
  0.26061955D-03 -0.60271847D-04  0.26859336D-03 -0.58315180D-03  0.25085519D-03
  0.33229661D-03  0.38028176D-03 -0.14023747D-04 -0.16126584D-04 -0.14507354D-03
  0.79747573D-04  0.65325968D-04  0.12351590D-03  0.95418593D-05  0.10795103D-04
 -0.70817091D-04 -0.80689879D-04  0.42175363D-05  0.47625927D-04  0.22534138D-03
 -0.24539543D-04  0.16482535D-03  0.16728258D-04  0.11886934D-04  0.74535425D-04
  0.21105322D-03  0.94374702D-04 -0.84339854D-05 -0.26578324D-03 -0.35409055D-03
  0.31235492D-04 -0.36737643D-03  0.70966449D-04 -0.59335358D-05 -0.49828475D-04
MO    3     MO 0.0        OCC NO =    2.0000000  ORB. ENERGY =  -24.557959
 -0.19388733D-05 -0.36128049D-05 -0.61101588D-05 -0.92015605D-05 -0.11392129D-04
 -0.96941875D-05 -0.36888172D-05  0.17276305D-07 -0.68519804D-05 -0.12847527D-04
 -0.21857466D-04 -0.33942338D-04 -0.45043456D-04 -0.47469620D-04 -0.29434192D-04
  0.19579636D-04  0.37683215D-03 -0.19882255D-02 -0.59439652D-03  0.25714292D-03
  0.24698270D-03  0.17320132D-03  0.16823359D-03  0.16158635D-03  0.11331550D-03
  0.72014441D-03  0.69169010D-03  0.48506084D-03 -0.30707078D-03 -0.22749999D-03
 -0.81183804D-03 -0.43393664D-04  0.20669514D-03 -0.80742302D-03  0.21817564D-05
  0.26063538D-04 -0.41032444D-04  0.47098717D-05  0.18526955D-03 -0.18997942D-03
 -0.11344612D-03 -0.31486181D-03 -0.14914613D-04  0.23262695D-03  0.87052260D-04
 -0.31967921D-03 -0.13989268D-03 -0.42125776D-03 -0.63034641D-03  0.33798733D-04
  0.91605200D-05 -0.42959253D-04 -0.54569963D-05 -0.87424953D-05  0.29709524D-04
  0.16484250D-03  0.23562381D-03 -0.24812861D-03  0.20920594D-03  0.27767208D-04
  0.26270803D-03 -0.70373345D-03 -0.73463862D-03  0.48167781D-03 -0.71256164D-03
  0.17519094D-04  0.30840368D-04 -0.24851390D-04 -0.15331356D-04 -0.23839887D-04
  0.71476783D-05 -0.37225926D-04 -0.68681217D-04  0.67406491D-04 -0.20251882D-04
  0.19388882D-05  0.36128327D-05  0.61102058D-05  0.92016314D-05  0.11392217D-04
  0.96942621D-05  0.36888456D-05 -0.17276438D-07  0.68519713D-05  0.12847510D-04
  0.21857438D-04  0.33942293D-04  0.45043397D-04  0.47469557D-04  0.29434154D-04
 -0.19579610D-04 -0.37683221D-03  0.19882257D-02  0.59439655D-03  0.25714297D-03
  0.24698275D-03  0.17320135D-03  0.16823366D-03  0.16158642D-03  0.11331555D-03
 -0.72014456D-03 -0.69169024D-03 -0.48506094D-03 -0.30707083D-03 -0.22750007D-03
  0.81183821D-03 -0.43393701D-04  0.20669513D-03  0.80742311D-03  0.21817554D-05
  0.26063539D-04  0.41032448D-04 -0.47098874D-05 -0.18526958D-03  0.18997946D-03
  0.11344614D-03 -0.31486186D-03 -0.14914640D-04 -0.23262699D-03 -0.87052294D-04
  0.31967928D-03  0.13989271D-03 -0.42125784D-03 -0.63034649D-03 -0.33798738D-04
 -0.91605217D-05  0.42959260D-04  0.54569953D-05 -0.87424981D-05  0.29709523D-04
  0.16484254D-03  0.23562384D-03  0.24812865D-03  0.20920597D-03  0.27767232D-04
 -0.26270808D-03 -0.70373360D-03 -0.73463875D-03 -0.48167789D-03  0.71256177D-03
  0.17519096D-04  0.30840371D-04  0.24851391D-04 -0.15331356D-04 -0.23839884D-04
 -0.71476817D-05 -0.37225932D-04 -0.68681228D-04 -0.67406492D-04  0.20251870D-04
 -0.42036302D+00 -0.78357489D+00 -0.13283521D+01 -0.20115165D+01 -0.25154085D+01
 -0.21655324D+01 -0.83250971D+00  0.36074009D-02 -0.81411778D-04 -0.15287690D-03
 -0.26032300D-03 -0.40779443D-03 -0.54649251D-03 -0.58782638D-03 -0.35293019D-03
  0.23210174D-03 -0.45484615D-01  0.10688249D-02  0.55982404D-03  0.17699787D-02
  0.17310005D-02  0.11437452D-02  0.17432163D-02  0.17048275D-02  0.11264516D-02
  0.43266831D-02  0.42314016D-02  0.27958659D-02 -0.32901584D-03 -0.37564215D-03
 -0.77687378D-03 -0.39459647D-03 -0.25805453D-03 -0.84199123D-03 -0.21965394D-04
 -0.10117405D-04 -0.36642728D-04  0.59667049D-05 -0.99779731D-04  0.93813026D-04
 -0.18320846D-03  0.80094617D-06  0.38601034D-03 -0.22430490D-03 -0.18655721D-03
  0.41086211D-03  0.22681299D-03  0.65678608D-03  0.43584061D-03 -0.19039487D-04
 -0.12640145D-03  0.14544094D-03  0.49179686D-04  0.17155796D-03  0.14106579D-03
  0.47307413D-04 -0.25526231D-03  0.11650990D-03 -0.38269519D-03  0.35915456D-03
 -0.84015796D-04  0.24077295D-03  0.40663237D-03 -0.26551390D-03  0.11322069D-03
  0.80113616D-04  0.15609721D-03 -0.13983751D-03  0.19030079D-03 -0.76727782D-04