 Molden2AIM, Version 4.0.0 (06/02/2016)           Time: Sat Jun 30 05:39:06 2018
GAUSSIAN             23 MOL ORBITALS    450 PRIMITIVES        6 NUCLEI
  N    1    (CENTRE  1)  -0.38236340  1.60509180  0.29350281  CHARGE =  7.0
  N    2    (CENTRE  2)   0.38236340 -1.60508991  0.29359352  CHARGE =  7.0
  O    3    (CENTRE  3)   1.42834760  2.92228004  0.29508073  CHARGE =  8.0
  O    4    (CENTRE  4)  -2.59214299  1.96631483  0.29229906  CHARGE =  8.0
  O    5    (CENTRE  5)  -1.42834760 -2.92227815  0.29501837  CHARGE =  8.0
  O    6    (CENTRE  6)   2.59214488 -1.96631672  0.29219134  CHARGE =  8.0
CENTRE ASSIGNMENTS    1  1  1  1  1  1  1  1  1  1  1  1  1  1  1  1  1  1  1  1
CENTRE ASSIGNMENTS    1  1  1  1  1  1  1  1  1  1  1  1  1  1  1  1  1  1  1  1
CENTRE ASSIGNMENTS    1  1  1  1  1  1  1  1  1  1  1  1  1  1  1  1  1  1  1  1
CENTRE ASSIGNMENTS    1  1  1  1  1  1  1  1  1  1  1  1  1  1  1  2  2  2  2  2
CENTRE ASSIGNMENTS    2  2  2  2  2  2  2  2  2  2  2  2  2  2  2  2  2  2  2  2
CENTRE ASSIGNMENTS    2  2  2  2  2  2  2  2  2  2  2  2  2  2  2  2  2  2  2  2
CENTRE ASSIGNMENTS    2  2  2  2  2  2  2  2  2  2  2  2  2  2  2  2  2  2  2  2
CENTRE ASSIGNMENTS    2  2  2  2  2  2  2  2  2  2  3  3  3  3  3  3  3  3  3  3
CENTRE ASSIGNMENTS    3  3  3  3  3  3  3  3  3  3  3  3  3  3  3  3  3  3  3  3
CENTRE ASSIGNMENTS    3  3  3  3  3  3  3  3  3  3  3  3  3  3  3  3  3  3  3  3
CENTRE ASSIGNMENTS    3  3  3  3  3  3  3  3  3  3  3  3  3  3  3  3  3  3  3  3
CENTRE ASSIGNMENTS    3  3  3  3  3  4  4  4  4  4  4  4  4  4  4  4  4  4  4  4
CENTRE ASSIGNMENTS    4  4  4  4  4  4  4  4  4  4  4  4  4  4  4  4  4  4  4  4
CENTRE ASSIGNMENTS    4  4  4  4  4  4  4  4  4  4  4  4  4  4  4  4  4  4  4  4
CENTRE ASSIGNMENTS    4  4  4  4  4  4  4  4  4  4  4  4  4  4  4  4  4  4  4  4
CENTRE ASSIGNMENTS    5  5  5  5  5  5  5  5  5  5  5  5  5  5  5  5  5  5  5  5
CENTRE ASSIGNMENTS    5  5  5  5  5  5  5  5  5  5  5  5  5  5  5  5  5  5  5  5
CENTRE ASSIGNMENTS    5  5  5  5  5  5  5  5  5  5  5  5  5  5  5  5  5  5  5  5
CENTRE ASSIGNMENTS    5  5  5  5  5  5  5  5  5  5  5  5  5  5  5  6  6  6  6  6
CENTRE ASSIGNMENTS    6  6  6  6  6  6  6  6  6  6  6  6  6  6  6  6  6  6  6  6
CENTRE ASSIGNMENTS    6  6  6  6  6  6  6  6  6  6  6  6  6  6  6  6  6  6  6  6
CENTRE ASSIGNMENTS    6  6  6  6  6  6  6  6  6  6  6  6  6  6  6  6  6  6  6  6
CENTRE ASSIGNMENTS    6  6  6  6  6  6  6  6  6  6
TYPE ASSIGNMENTS      1  1  1  1  1  1  1  1  1  1  1  1  1  1  1  1  1  1  1  2
TYPE ASSIGNMENTS      2  2  3  3  3  4  4  4  2  3  4  2  3  4  2  3  4  5  6  7
TYPE ASSIGNMENTS      8  9 10  5  6  7  8  9 10  5  6  7  8  9 10 11 12 13 17 14
TYPE ASSIGNMENTS     15 18 19 16 20 11 12 13 17 14 15 18 19 16 20  1  1  1  1  1
TYPE ASSIGNMENTS      1  1  1  1  1  1  1  1  1  1  1  1  1  1  2  2  2  3  3  3
TYPE ASSIGNMENTS      4  4  4  2  3  4  2  3  4  2  3  4  5  6  7  8  9 10  5  6
TYPE ASSIGNMENTS      7  8  9 10  5  6  7  8  9 10 11 12 13 17 14 15 18 19 16 20
TYPE ASSIGNMENTS     11 12 13 17 14 15 18 19 16 20  1  1  1  1  1  1  1  1  1  1
TYPE ASSIGNMENTS      1  1  1  1  1  1  1  1  1  2  2  2  3  3  3  4  4  4  2  3
TYPE ASSIGNMENTS      4  2  3  4  2  3  4  5  6  7  8  9 10  5  6  7  8  9 10  5
TYPE ASSIGNMENTS      6  7  8  9 10 11 12 13 17 14 15 18 19 16 20 11 12 13 17 14
TYPE ASSIGNMENTS     15 18 19 16 20  1  1  1  1  1  1  1  1  1  1  1  1  1  1  1
TYPE ASSIGNMENTS      1  1  1  1  2  2  2  3  3  3  4  4  4  2  3  4  2  3  4  2
TYPE ASSIGNMENTS      3  4  5  6  7  8  9 10  5  6  7  8  9 10  5  6  7  8  9 10
TYPE ASSIGNMENTS     11 12 13 17 14 15 18 19 16 20 11 12 13 17 14 15 18 19 16 20
TYPE ASSIGNMENTS      1  1  1  1  1  1  1  1  1  1  1  1  1  1  1  1  1  1  1  2
TYPE ASSIGNMENTS      2  2  3  3  3  4  4  4  2  3  4  2  3  4  2  3  4  5  6  7
TYPE ASSIGNMENTS      8  9 10  5  6  7  8  9 10  5  6  7  8  9 10 11 12 13 17 14
TYPE ASSIGNMENTS     15 18 19 16 20 11 12 13 17 14 15 18 19 16 20  1  1  1  1  1
TYPE ASSIGNMENTS      1  1  1  1  1  1  1  1  1  1  1  1  1  1  2  2  2  3  3  3
TYPE ASSIGNMENTS      4  4  4  2  3  4  2  3  4  2  3  4  5  6  7  8  9 10  5  6
TYPE ASSIGNMENTS      7  8  9 10  5  6  7  8  9 10 11 12 13 17 14 15 18 19 16 20
TYPE ASSIGNMENTS     11 12 13 17 14 15 18 19 16 20
EXPONENTS  0.1142000D+05 0.1712000D+04 0.3893000D+03 0.1100000D+03 0.3557000D+02
EXPONENTS  0.1254000D+02 0.4644000D+01 0.5118000D+00 0.1142000D+05 0.1712000D+04
EXPONENTS  0.3893000D+03 0.1100000D+03 0.3557000D+02 0.1254000D+02 0.4644000D+01
EXPONENTS  0.5118000D+00 0.1293000D+01 0.1787000D+00 0.5760000D-01 0.2663000D+02
EXPONENTS  0.5948000D+01 0.1742000D+01 0.2663000D+02 0.5948000D+01 0.1742000D+01
EXPONENTS  0.2663000D+02 0.5948000D+01 0.1742000D+01 0.5550000D+00 0.5550000D+00
EXPONENTS  0.5550000D+00 0.1725000D+00 0.1725000D+00 0.1725000D+00 0.4910000D-01
EXPONENTS  0.4910000D-01 0.4910000D-01 0.1654000D+01 0.1654000D+01 0.1654000D+01
EXPONENTS  0.1654000D+01 0.1654000D+01 0.1654000D+01 0.4690000D+00 0.4690000D+00
EXPONENTS  0.4690000D+00 0.4690000D+00 0.4690000D+00 0.4690000D+00 0.1510000D+00
EXPONENTS  0.1510000D+00 0.1510000D+00 0.1510000D+00 0.1510000D+00 0.1510000D+00
EXPONENTS  0.1093000D+01 0.1093000D+01 0.1093000D+01 0.1093000D+01 0.1093000D+01
EXPONENTS  0.1093000D+01 0.1093000D+01 0.1093000D+01 0.1093000D+01 0.1093000D+01
EXPONENTS  0.3640000D+00 0.3640000D+00 0.3640000D+00 0.3640000D+00 0.3640000D+00
EXPONENTS  0.3640000D+00 0.3640000D+00 0.3640000D+00 0.3640000D+00 0.3640000D+00
EXPONENTS  0.1142000D+05 0.1712000D+04 0.3893000D+03 0.1100000D+03 0.3557000D+02
EXPONENTS  0.1254000D+02 0.4644000D+01 0.5118000D+00 0.1142000D+05 0.1712000D+04
EXPONENTS  0.3893000D+03 0.1100000D+03 0.3557000D+02 0.1254000D+02 0.4644000D+01
EXPONENTS  0.5118000D+00 0.1293000D+01 0.1787000D+00 0.5760000D-01 0.2663000D+02
EXPONENTS  0.5948000D+01 0.1742000D+01 0.2663000D+02 0.5948000D+01 0.1742000D+01
EXPONENTS  0.2663000D+02 0.5948000D+01 0.1742000D+01 0.5550000D+00 0.5550000D+00
EXPONENTS  0.5550000D+00 0.1725000D+00 0.1725000D+00 0.1725000D+00 0.4910000D-01
EXPONENTS  0.4910000D-01 0.4910000D-01 0.1654000D+01 0.1654000D+01 0.1654000D+01
EXPONENTS  0.1654000D+01 0.1654000D+01 0.1654000D+01 0.4690000D+00 0.4690000D+00
EXPONENTS  0.4690000D+00 0.4690000D+00 0.4690000D+00 0.4690000D+00 0.1510000D+00
EXPONENTS  0.1510000D+00 0.1510000D+00 0.1510000D+00 0.1510000D+00 0.1510000D+00
EXPONENTS  0.1093000D+01 0.1093000D+01 0.1093000D+01 0.1093000D+01 0.1093000D+01
EXPONENTS  0.1093000D+01 0.1093000D+01 0.1093000D+01 0.1093000D+01 0.1093000D+01
EXPONENTS  0.3640000D+00 0.3640000D+00 0.3640000D+00 0.3640000D+00 0.3640000D+00
EXPONENTS  0.3640000D+00 0.3640000D+00 0.3640000D+00 0.3640000D+00 0.3640000D+00
EXPONENTS  0.1533000D+05 0.2299000D+04 0.5224000D+03 0.1473000D+03 0.4755000D+02
EXPONENTS  0.1676000D+02 0.6207000D+01 0.6882000D+00 0.1533000D+05 0.2299000D+04
EXPONENTS  0.5224000D+03 0.1473000D+03 0.4755000D+02 0.1676000D+02 0.6207000D+01
EXPONENTS  0.6882000D+00 0.1752000D+01 0.2384000D+00 0.7376000D-01 0.3446000D+02
EXPONENTS  0.7749000D+01 0.2280000D+01 0.3446000D+02 0.7749000D+01 0.2280000D+01
EXPONENTS  0.3446000D+02 0.7749000D+01 0.2280000D+01 0.7156000D+00 0.7156000D+00
EXPONENTS  0.7156000D+00 0.2140000D+00 0.2140000D+00 0.2140000D+00 0.5974000D-01
EXPONENTS  0.5974000D-01 0.5974000D-01 0.2314000D+01 0.2314000D+01 0.2314000D+01
EXPONENTS  0.2314000D+01 0.2314000D+01 0.2314000D+01 0.6450000D+00 0.6450000D+00
EXPONENTS  0.6450000D+00 0.6450000D+00 0.6450000D+00 0.6450000D+00 0.2140000D+00
EXPONENTS  0.2140000D+00 0.2140000D+00 0.2140000D+00 0.2140000D+00 0.2140000D+00
EXPONENTS  0.1428000D+01 0.1428000D+01 0.1428000D+01 0.1428000D+01 0.1428000D+01
EXPONENTS  0.1428000D+01 0.1428000D+01 0.1428000D+01 0.1428000D+01 0.1428000D+01
EXPONENTS  0.5000000D+00 0.5000000D+00 0.5000000D+00 0.5000000D+00 0.5000000D+00
EXPONENTS  0.5000000D+00 0.5000000D+00 0.5000000D+00 0.5000000D+00 0.5000000D+00
EXPONENTS  0.1533000D+05 0.2299000D+04 0.5224000D+03 0.1473000D+03 0.4755000D+02
EXPONENTS  0.1676000D+02 0.6207000D+01 0.6882000D+00 0.1533000D+05 0.2299000D+04
EXPONENTS  0.5224000D+03 0.1473000D+03 0.4755000D+02 0.1676000D+02 0.6207000D+01
EXPONENTS  0.6882000D+00 0.1752000D+01 0.2384000D+00 0.7376000D-01 0.3446000D+02
EXPONENTS  0.7749000D+01 0.2280000D+01 0.3446000D+02 0.7749000D+01 0.2280000D+01
EXPONENTS  0.3446000D+02 0.7749000D+01 0.2280000D+01 0.7156000D+00 0.7156000D+00
EXPONENTS  0.7156000D+00 0.2140000D+00 0.2140000D+00 0.2140000D+00 0.5974000D-01
EXPONENTS  0.5974000D-01 0.5974000D-01 0.2314000D+01 0.2314000D+01 0.2314000D+01
EXPONENTS  0.2314000D+01 0.2314000D+01 0.2314000D+01 0.6450000D+00 0.6450000D+00
EXPONENTS  0.6450000D+00 0.6450000D+00 0.6450000D+00 0.6450000D+00 0.2140000D+00
EXPONENTS  0.2140000D+00 0.2140000D+00 0.2140000D+00 0.2140000D+00 0.2140000D+00
EXPONENTS  0.1428000D+01 0.1428000D+01 0.1428000D+01 0.1428000D+01 0.1428000D+01
EXPONENTS  0.1428000D+01 0.1428000D+01 0.1428000D+01 0.1428000D+01 0.1428000D+01
EXPONENTS  0.5000000D+00 0.5000000D+00 0.5000000D+00 0.5000000D+00 0.5000000D+00
EXPONENTS  0.5000000D+00 0.5000000D+00 0.5000000D+00 0.5000000D+00 0.5000000D+00
EXPONENTS  0.1533000D+05 0.2299000D+04 0.5224000D+03 0.1473000D+03 0.4755000D+02
EXPONENTS  0.1676000D+02 0.6207000D+01 0.6882000D+00 0.1533000D+05 0.2299000D+04
EXPONENTS  0.5224000D+03 0.1473000D+03 0.4755000D+02 0.1676000D+02 0.6207000D+01
EXPONENTS  0.6882000D+00 0.1752000D+01 0.2384000D+00 0.7376000D-01 0.3446000D+02
EXPONENTS  0.7749000D+01 0.2280000D+01 0.3446000D+02 0.7749000D+01 0.2280000D+01
EXPONENTS  0.3446000D+02 0.7749000D+01 0.2280000D+01 0.7156000D+00 0.7156000D+00
EXPONENTS  0.7156000D+00 0.2140000D+00 0.2140000D+00 0.2140000D+00 0.5974000D-01
EXPONENTS  0.5974000D-01 0.5974000D-01 0.2314000D+01 0.2314000D+01 0.2314000D+01
EXPONENTS  0.2314000D+01 0.2314000D+01 0.2314000D+01 0.6450000D+00 0.6450000D+00
EXPONENTS  0.6450000D+00 0.6450000D+00 0.6450000D+00 0.6450000D+00 0.2140000D+00
EXPONENTS  0.2140000D+00 0.2140000D+00 0.2140000D+00 0.2140000D+00 0.2140000D+00
EXPONENTS  0.1428000D+01 0.1428000D+01 0.1428000D+01 0.1428000D+01 0.1428000D+01
EXPONENTS  0.1428000D+01 0.1428000D+01 0.1428000D+01 0.1428000D+01 0.1428000D+01
EXPONENTS  0.5000000D+00 0.5000000D+00 0.5000000D+00 0.5000000D+00 0.5000000D+00
EXPONENTS  0.5000000D+00 0.5000000D+00 0.5000000D+00 0.5000000D+00 0.5000000D+00
EXPONENTS  0.1533000D+05 0.2299000D+04 0.5224000D+03 0.1473000D+03 0.4755000D+02
EXPONENTS  0.1676000D+02 0.6207000D+01 0.6882000D+00 0.1533000D+05 0.2299000D+04
EXPONENTS  0.5224000D+03 0.1473000D+03 0.4755000D+02 0.1676000D+02 0.6207000D+01
EXPONENTS  0.6882000D+00 0.1752000D+01 0.2384000D+00 0.7376000D-01 0.3446000D+02
EXPONENTS  0.7749000D+01 0.2280000D+01 0.3446000D+02 0.7749000D+01 0.2280000D+01
EXPONENTS  0.3446000D+02 0.7749000D+01 0.2280000D+01 0.7156000D+00 0.7156000D+00
EXPONENTS  0.7156000D+00 0.2140000D+00 0.2140000D+00 0.2140000D+00 0.5974000D-01
EXPONENTS  0.5974000D-01 0.5974000D-01 0.2314000D+01 0.2314000D+01 0.2314000D+01
EXPONENTS  0.2314000D+01 0.2314000D+01 0.2314000D+01 0.6450000D+00 0.6450000D+00
EXPONENTS  0.6450000D+00 0.6450000D+00 0.6450000D+00 0.6450000D+00 0.2140000D+00
EXPONENTS  0.2140000D+00 0.2140000D+00 0.2140000D+00 0.2140000D+00 0.2140000D+00
EXPONENTS  0.1428000D+01 0.1428000D+01 0.1428000D+01 0.1428000D+01 0.1428000D+01
EXPONENTS  0.1428000D+01 0.1428000D+01 0.1428000D+01 0.1428000D+01 0.1428000D+01
EXPONENTS  0.5000000D+00 0.5000000D+00 0.5000000D+00 0.5000000D+00 0.5000000D+00
EXPONENTS  0.5000000D+00 0.5000000D+00 0.5000000D+00 0.5000000D+00 0.5000000D+00
MO    1     MO 0.0        OCC NO =    2.0000000  ORB. ENERGY =  -19.061759
 -0.17701172D-03 -0.32983527D-03 -0.55783414D-03 -0.84006730D-03 -0.10400578D-02
 -0.88504226D-03 -0.33677491D-03  0.15772606D-05  0.13689374D-03  0.25667705D-03
  0.43668402D-03  0.67812418D-03  0.89991023D-03  0.94838185D-03  0.58805725D-03
 -0.39117591D-03 -0.38128296D-03 -0.48786586D-04  0.30158542D-03 -0.13888187D-03
 -0.13339438D-03 -0.93545344D-04  0.19028872D-03  0.18277004D-03  0.12817097D-03
  0.36447696D-07  0.35007577D-07  0.24549729D-07  0.62017050D-03 -0.77114813D-03
  0.69962508D-07  0.12093060D-03  0.17608190D-02 -0.65696743D-06 -0.47678362D-08
 -0.12524828D-04 -0.16503480D-08 -0.24635706D-03 -0.60555362D-04  0.30691242D-03
 -0.59000075D-03 -0.16466192D-05  0.26499286D-06 -0.23887756D-03  0.43252449D-03
 -0.19364692D-03  0.36901666D-03  0.38959159D-06 -0.26529146D-06  0.21390588D-03
 -0.14166857D-03 -0.72237309D-04  0.63391216D-05 -0.23044282D-07 -0.39144440D-07
  0.28755291D-04  0.11798771D-04 -0.67814974D-07 -0.15268420D-04 -0.29240729D-03
 -0.15087151D-06 -0.70997453D-04  0.25701098D-03  0.35431643D-06  0.87450820D-07
 -0.12119938D-03 -0.27891686D-03  0.10638880D-06  0.34186887D-03  0.11002293D-02
 -0.37608911D-06  0.21729267D-04 -0.26347877D-03  0.56922716D-07 -0.14774078D-06
  0.67555640D-03  0.12587999D-02  0.21289462D-02  0.32060750D-02  0.39693288D-02
  0.33777197D-02  0.12852846D-02 -0.60195363D-05 -0.50281148D-03 -0.94277623D-03
 -0.16039429D-02 -0.24907539D-02 -0.33053753D-02 -0.34834119D-02 -0.21599376D-02
  0.14367913D-02  0.95003216D-03 -0.36812555D-03 -0.16554011D-03  0.61964766D-03
  0.59516417D-03  0.41737020D-03 -0.32586985D-03 -0.31299409D-03 -0.21949306D-03
 -0.42008069D-06 -0.40348248D-06 -0.28294977D-06  0.17128595D-02 -0.35329759D-03
 -0.10674708D-05 -0.36276418D-03  0.17505856D-02 -0.14548526D-06  0.53742593D-04
 -0.22542151D-04 -0.30777767D-07  0.18004900D-02 -0.67605762D-03 -0.11244323D-02
 -0.51726097D-03 -0.39221120D-05 -0.15951145D-06 -0.72762304D-03  0.11068228D-03
  0.61694075D-03 -0.75173866D-03  0.18873933D-05  0.89232284D-06 -0.16847293D-03
  0.70260574D-04  0.98212352D-04 -0.48581308D-03  0.16731957D-06  0.26663406D-06
 -0.39790852D-03 -0.22148335D-03 -0.27640459D-06  0.70538044D-03  0.79108705D-03
  0.12507186D-05  0.48834513D-03 -0.12663700D-03 -0.42150484D-06 -0.14885911D-05
 -0.61965140D-03 -0.21814437D-03 -0.16298226D-06  0.15760024D-02  0.87137539D-03
  0.12560640D-05  0.28295183D-03 -0.21694229D-03 -0.76711724D-06 -0.13987030D-05
 -0.32000824D-01 -0.59645418D-01 -0.10113887D+00 -0.15307838D+00 -0.19099713D+00
 -0.16404106D+00 -0.62978553D-01  0.28170693D-03  0.26990162D-03  0.50620718D-03
  0.86297226D-03  0.13486577D-02  0.18034123D-02  0.19256239D-02  0.11772887D-02
 -0.77670356D-03 -0.35687191D-02 -0.14072057D-02 -0.77014033D-04  0.28722203D-03
  0.27850875D-03  0.18788036D-03  0.60697737D-03  0.58856388D-03  0.39704171D-03
 -0.39809380D-06 -0.38601708D-06 -0.26040484D-06  0.69383067D-03  0.91530089D-04
  0.14991460D-05  0.14888363D-03 -0.37530283D-04  0.13192622D-05 -0.79525527D-05
  0.19763052D-05  0.21106584D-07 -0.11356204D-03 -0.42742093D-03  0.54098297D-03
 -0.20652904D-03  0.42359504D-06 -0.50425588D-06 -0.79022954D-04  0.34508055D-03
 -0.26605760D-03 -0.21558154D-04 -0.10117430D-05 -0.12145919D-06 -0.44683292D-05
  0.55908207D-04 -0.51439878D-04  0.50067270D-04 -0.27218631D-06 -0.13477722D-06
 -0.31143399D-05 -0.22021538D-04 -0.13076825D-06 -0.35546610D-04 -0.10321724D-03
 -0.82609760D-07  0.44889630D-04  0.16928186D-03  0.47491452D-06 -0.49693257D-06
 -0.22657236D-04 -0.74023148D-04  0.14402136D-06 -0.57670460D-04  0.11462310D-03
  0.44989314D-07  0.12564217D-03  0.10744635D-03 -0.47705338D-06  0.15915880D-06
 -0.85724459D-01 -0.15977936D+00 -0.27093286D+00 -0.41006950D+00 -0.51164701D+00
 -0.43943654D+00 -0.16870823D+00  0.75464228D-03  0.13993364D-03  0.26244901D-03
  0.44741802D-03  0.69922728D-03  0.93500010D-03  0.99836212D-03  0.61037902D-03
 -0.40269101D-03 -0.93786060D-02 -0.69689288D-03 -0.38545493D-04 -0.17930480D-02
 -0.17386534D-02 -0.11728853D-02  0.75676856D-03  0.73381094D-03  0.49502452D-03
 -0.12218461D-05 -0.11847797D-05 -0.79924536D-06  0.39555111D-04 -0.65689883D-03
  0.19440056D-06  0.19110858D-03 -0.63153251D-03  0.20138629D-07 -0.25651100D-05
 -0.10575612D-04 -0.55890342D-08 -0.37766934D-03 -0.14696969D-03  0.52463903D-03
  0.57489139D-03 -0.13833082D-05  0.15034951D-05  0.24342683D-03  0.55148238D-04
 -0.29857506D-03 -0.72402335D-03  0.87698460D-06 -0.11927917D-05  0.41968385D-04
  0.40665401D-04 -0.82633786D-04 -0.22737095D-03  0.12601236D-06 -0.35008687D-06
  0.40754133D-04  0.68062954D-04  0.68246351D-07 -0.86391921D-04 -0.18212738D-03
  0.63333659D-06 -0.35870480D-04 -0.22061487D-04 -0.83807564D-06  0.81297306D-06
  0.55137579D-04 -0.17781518D-04 -0.19660503D-06  0.27373271D-04  0.30581186D-05
  0.23877876D-06 -0.19278601D-03  0.50286434D-04  0.35103634D-06 -0.10080164D-05
  0.43705498D-01  0.81461425D-01  0.13813159D+00  0.20906859D+00  0.26085656D+00
  0.22404099D+00  0.86013694D-01 -0.38474453D-03 -0.37703150D-03 -0.70713192D-03
 -0.12055049D-02 -0.18839695D-02 -0.25192262D-02 -0.26899463D-02 -0.16445804D-02
  0.10849943D-02  0.46811401D-02  0.22991157D-02  0.32522271D-03 -0.12599182D-03
 -0.12216969D-03 -0.82414948D-04  0.84830067D-03  0.82256630D-03  0.55489837D-03
 -0.10362584D-06 -0.10048220D-06 -0.67784701D-07  0.18419439D-02  0.18712752D-04
 -0.12332076D-05  0.72876677D-03 -0.49697666D-03 -0.72107370D-06  0.12554419D-04
  0.59442035D-05 -0.19478272D-07  0.31877200D-03  0.70097788D-03 -0.10197499D-02
  0.30774835D-03 -0.15453974D-05 -0.11355631D-05  0.40682401D-03 -0.68304086D-03
  0.27621686D-03  0.39275938D-03 -0.43912537D-06  0.23660270D-06  0.10492624D-03
 -0.19278272D-03  0.87856484D-04 -0.33597050D-04 -0.12698194D-06  0.13932702D-06
  0.24780258D-03  0.67489107D-04  0.27485452D-06 -0.53007730D-03 -0.10673259D-03
 -0.56253724D-06 -0.21333042D-03 -0.95734734D-04 -0.26202632D-06  0.26559117D-06
 -0.13429816D-03 -0.17530649D-03 -0.26455638D-06  0.12143603D-03  0.31441764D-03
  0.43683367D-06  0.28145844D-03  0.21150183D-03  0.35683548D-06 -0.50022879D-07
  0.48781686D+00  0.90922787D+00  0.15417492D+01  0.23335092D+01  0.29115382D+01
  0.25006230D+01  0.96003780D+00 -0.42943080D-02 -0.70165154D-03 -0.13159649D-02
 -0.22434316D-02 -0.35060469D-02 -0.46882527D-02 -0.50059609D-02 -0.30605463D-02
  0.20191626D-02  0.52639196D-01  0.57182411D-03 -0.52063717D-03 -0.96155593D-02
 -0.93238581D-02 -0.62898196D-02  0.15336482D-02  0.14871228D-02  0.10032043D-02
  0.60957553D-05  0.59108321D-05  0.39874124D-05 -0.26021052D-03  0.85290245D-05
  0.25924292D-06  0.10539773D-02  0.10072847D-03 -0.29244630D-06  0.45862850D-04
  0.90100390D-05 -0.18699932D-07  0.24566481D-02  0.19562371D-03 -0.26522718D-02
 -0.12734589D-03 -0.64273756D-05 -0.87780981D-06 -0.94621310D-03  0.52410834D-04
  0.89380226D-03 -0.90209319D-05  0.21752912D-05  0.14759622D-06 -0.25781244D-03
  0.83559023D-04  0.17425342D-03  0.59233079D-04  0.43382934D-06 -0.42709559D-07
  0.28428592D-05  0.49957399D-04 -0.23421343D-06 -0.17837642D-03 -0.18599111D-03
  0.21276748D-06  0.16984784D-03  0.36118912D-04  0.48987280D-06  0.25171971D-06
  0.23721560D-03 -0.40715462D-04  0.45046930D-06 -0.63479990D-04  0.41639759D-04
 -0.12442171D-05 -0.64816682D-03  0.80506627D-04 -0.10719076D-06  0.56789351D-07
MO    2     MO 0.0        OCC NO =    2.0000000  ORB. ENERGY =  -19.061752
  0.65372009D-03  0.12181111D-02  0.20601313D-02  0.31024436D-02  0.38410264D-02
  0.32685401D-02  0.12437398D-02 -0.58249641D-05 -0.48469859D-03 -0.90881438D-03
 -0.15461637D-02 -0.24010289D-02 -0.31863050D-02 -0.33579281D-02 -0.20821297D-02
  0.13850334D-02  0.87148150D-03 -0.40877253D-03 -0.66824780D-04 -0.71426668D-03
 -0.68604460D-03 -0.48110183D-03  0.41368428D-03  0.39733881D-03  0.27864140D-03
 -0.32708831D-06 -0.31416442D-06 -0.22031377D-06 -0.15978151D-02  0.95930954D-04
 -0.98787837D-06  0.43989974D-03 -0.12205489D-02 -0.30814634D-06 -0.57496034D-04
  0.19326778D-04 -0.35836732D-07  0.18285893D-02 -0.74494727D-03 -0.10836420D-02
 -0.78183215D-03  0.31854571D-05  0.34780346D-06 -0.86208422D-03  0.27664357D-03
  0.58544065D-03 -0.65486692D-03 -0.18666405D-05 -0.95047111D-06 -0.10034622D-03
  0.22124645D-04  0.78221576D-04 -0.51897900D-03 -0.15798590D-06 -0.30742947D-06
  0.43360578D-03  0.24012271D-03 -0.17696966D-06 -0.75290578D-03 -0.94706505D-03
  0.93720877D-06 -0.54791156D-03  0.22669690D-03 -0.40629980D-06 -0.16126061D-05
  0.61871398D-03  0.12801419D-03 -0.14690736D-06 -0.15609325D-02 -0.51866233D-03
  0.10639969D-05 -0.29520942D-03  0.13461975D-03 -0.62327483D-06 -0.14368984D-05
  0.56229105D-04  0.10477466D-03  0.17720021D-03  0.26685370D-03  0.33038219D-03
  0.28114033D-03  0.10697908D-03 -0.50102869D-06 -0.36384663D-04 -0.68221584D-04
 -0.11606521D-03 -0.18023702D-03 -0.23918501D-03 -0.25206817D-03 -0.15629834D-03
  0.10396972D-03 -0.61531362D-04 -0.18497147D-03  0.26055568D-03  0.38342312D-03
  0.36827332D-03  0.25825867D-03 -0.31720142D-03 -0.30466818D-03 -0.21365436D-03
 -0.12476955D-06 -0.11983966D-06 -0.84039845D-07 -0.90590891D-05  0.69876938D-03
 -0.26383581D-06 -0.26227872D-03 -0.12383217D-02 -0.56690721D-06  0.20454097D-04
  0.53980170D-05 -0.20083035D-07  0.39779549D-03 -0.31725247D-03 -0.80543023D-04
 -0.84737022D-03  0.37060431D-06 -0.16028630D-06 -0.51653756D-03  0.49917256D-03
  0.17365005D-04  0.11866202D-03  0.28752894D-06  0.36609460D-06  0.16818690D-03
 -0.12695545D-03 -0.41231445D-04 -0.17628504D-03  0.81100980D-07  0.16111919D-06
 -0.17737984D-03 -0.92716791D-04 -0.13783973D-06  0.27061450D-03  0.59474284D-03
  0.36519843D-06  0.26152502D-03 -0.31659247D-03  0.48320769D-07 -0.50005935D-06
 -0.10137160D-03  0.22119366D-03  0.13760284D-07  0.21984871D-03 -0.86625718D-03
  0.18834864D-06  0.84266097D-04  0.20267621D-03 -0.22962949D-06 -0.47727827D-06
  0.33819561D-01  0.63035311D-01  0.10688700D+00  0.16177846D+00  0.20185228D+00
  0.17336419D+00  0.66557882D-01 -0.29771749D-03 -0.30036017D-03 -0.56333294D-03
 -0.96035916D-03 -0.15008544D-02 -0.20069284D-02 -0.21429316D-02 -0.13101464D-02
  0.86435499D-03  0.35703984D-02  0.19323621D-02  0.32035512D-03  0.25652407D-03
  0.24874206D-03  0.16779992D-03 -0.67352239D-03 -0.65309015D-03 -0.44057076D-03
 -0.20018688D-06 -0.19411393D-06 -0.13094811D-06 -0.17072330D-02  0.21175275D-04
 -0.96368805D-06 -0.72631406D-03  0.52148853D-03 -0.48731605D-06 -0.16587377D-04
 -0.55574961D-05 -0.14986879D-07  0.29151575D-03  0.59010687D-03 -0.88162262D-03
  0.24993092D-03  0.12492167D-05  0.16270312D-05  0.40793928D-03 -0.60327540D-03
  0.19533613D-03  0.40728803D-03  0.55091831D-06 -0.55801239D-06  0.11133742D-03
 -0.18609828D-03  0.74760861D-04 -0.17515152D-04  0.11091821D-06 -0.23890724D-06
 -0.26550480D-03 -0.80369807D-04  0.31898024D-06  0.55342506D-03  0.76112892D-04
 -0.50600807D-06  0.24308934D-03  0.16499653D-03 -0.45093264D-06  0.19246752D-06
  0.13459454D-03  0.15953338D-03 -0.26253763D-06 -0.15088233D-03 -0.29304779D-03
  0.29700231D-06 -0.25290129D-03 -0.18555235D-03  0.49061058D-06  0.25240917D-07
  0.48831600D+00  0.91015820D+00  0.15433267D+01  0.23358969D+01  0.29145173D+01
  0.25031817D+01  0.96102012D+00 -0.42987020D-02 -0.69746158D-03 -0.13081065D-02
 -0.22300348D-02 -0.34851103D-02 -0.46602565D-02 -0.49760675D-02 -0.30422701D-02
  0.20071050D-02  0.52646693D-01  0.35694872D-03 -0.56975135D-03  0.95879851D-02
  0.92971203D-02  0.62717824D-02 -0.13545977D-02 -0.13135041D-02 -0.88608210D-03
  0.51371397D-05  0.49812975D-05  0.33603538D-05  0.29330985D-03 -0.25427660D-03
  0.19149997D-06 -0.10527510D-02 -0.34437498D-03 -0.31692840D-06 -0.49967259D-04
 -0.13604663D-04 -0.14548050D-07  0.24792899D-02  0.15502815D-03 -0.26343181D-02
  0.76095905D-04  0.58837414D-05  0.17654255D-05 -0.91931092D-03  0.75772877D-04
  0.84353804D-03 -0.27812165D-03 -0.18911155D-05 -0.64852612D-06 -0.25963859D-03
  0.10441028D-03  0.15522831D-03 -0.21648407D-04 -0.36560966D-06 -0.72467629D-07
  0.11463281D-04 -0.26953451D-04 -0.17276117D-06  0.15794156D-03  0.12896229D-03
  0.40978202D-06 -0.19233140D-03 -0.48101933D-04  0.10850150D-06  0.54551497D-06
 -0.23235697D-03  0.36520495D-04  0.34813474D-06  0.77396238D-04 -0.42264552D-04
 -0.10859021D-05  0.61967468D-03 -0.67296932D-04  0.41497873D-07 -0.35468265D-06
 -0.22818559D-01 -0.42530857D-01 -0.72118242D-01 -0.10915432D+00 -0.13619272D+00
 -0.11697138D+00 -0.44907588D-01  0.20087440D-03  0.15441304D-03  0.28960548D-03
  0.49371386D-03  0.77157866D-03  0.10317477D-02  0.11016660D-02  0.67353698D-03
 -0.44435879D-03 -0.25980901D-02 -0.64747098D-03  0.44829551D-04 -0.43421933D-03
 -0.42104668D-03 -0.28403561D-03 -0.38759411D-03 -0.37583591D-03 -0.25353668D-03
 -0.21319524D-06 -0.20672767D-06 -0.13945726D-06 -0.55150255D-04 -0.94144388D-04
  0.81736142D-06  0.12385145D-03 -0.14330512D-03  0.91925380D-06  0.13669174D-04
  0.21312319D-06  0.16547629D-07 -0.23060375D-04 -0.20071649D-03  0.22377687D-03
 -0.12434538D-03 -0.67547224D-06  0.12581526D-06  0.75701607D-04  0.11366905D-03
 -0.18937065D-03  0.12984279D-03  0.59812208D-06  0.10607285D-06  0.36289281D-04
 -0.12586240D-04 -0.23703040D-04  0.43722306D-04  0.19631774D-06  0.15411266D-06
  0.94804568D-04  0.48082302D-04  0.13111810D-07 -0.15906789D-03  0.71480351D-04
 -0.31711317D-06 -0.12534582D-03 -0.21572726D-03  0.27777773D-06 -0.42811375D-06
 -0.24200046D-04  0.13739879D-04  0.44279587D-07  0.10705061D-03 -0.19894376D-05
  0.17369001D-06 -0.34450477D-04 -0.39230201D-04 -0.30652877D-06  0.83641224D-07
  0.89951458D-01  0.16765794D+00  0.28429232D+00  0.43028967D+00  0.53687588D+00
  0.46110478D+00  0.17702709D+00 -0.79185304D-03 -0.10905911D-03 -0.20454306D-03
 -0.34870107D-03 -0.54495190D-03 -0.72870453D-03 -0.77808655D-03 -0.47570686D-03
  0.31384249D-03  0.95705084D-02 -0.54977395D-03 -0.23826635D-03 -0.16689994D-02
 -0.16183680D-02 -0.10917415D-02 -0.24286617D-03 -0.23549849D-03 -0.15886589D-03
  0.89340847D-06  0.86630569D-06  0.58440470D-06 -0.12357317D-03  0.71145976D-03
  0.15145314D-06  0.19304553D-03  0.71880360D-03 -0.23249965D-06  0.19990786D-04
  0.14653159D-04 -0.12923004D-07  0.50771999D-03 -0.88219694D-04 -0.41950030D-03
  0.56939325D-03 -0.96449312D-06 -0.20993594D-05 -0.96644321D-04  0.84061576D-04
  0.12582745D-04 -0.78101157D-03 -0.25501057D-07  0.14207108D-05 -0.51724420D-04
  0.75681693D-04 -0.23957274D-04 -0.22286597D-03  0.47242680D-07  0.37996483D-06
 -0.41692588D-04 -0.56167974D-04  0.47155473D-07  0.26537130D-04  0.13116025D-03
  0.70155324D-06  0.98540635D-04  0.37343673D-04 -0.84301966D-06  0.10690279D-05
  0.29798097D-04  0.48353118D-05 -0.71162244D-07 -0.56672117D-04  0.96498440D-05
 -0.17433238D-06 -0.32722173D-04 -0.24155779D-04  0.38781912D-06 -0.11256340D-05
MO    3     MO 0.0        OCC NO =    2.0000000  ORB. ENERGY =  -19.061677
  0.30290231D-04  0.56441385D-04  0.95456532D-04  0.14375225D-03  0.17797461D-03
  0.15144836D-03  0.57628894D-04 -0.26990070D-06 -0.17775245D-04 -0.33328750D-04
 -0.56702121D-04 -0.88052407D-04 -0.11685066D-03 -0.12314456D-03 -0.76357484D-04
  0.50793028D-04 -0.80232065D-04 -0.15185232D-03  0.23163499D-03  0.89960605D-04
  0.86406086D-04  0.60593912D-04  0.36328845D-03  0.34893421D-03  0.24469675D-03
  0.64730526D-07  0.62172897D-07  0.43599927D-07 -0.18120003D-03 -0.67389779D-03
 -0.85493021D-07 -0.85895391D-03  0.86735712D-03  0.68195840D-06  0.90427034D-05
  0.66826715D-06  0.14005246D-07 -0.69256884D-04  0.10836046D-03 -0.39103580D-04
  0.72235243D-03 -0.23737955D-06 -0.87200896D-06 -0.14946743D-03  0.15154912D-03
 -0.20816908D-05 -0.97852630D-03 -0.31783027D-06  0.33161268D-06  0.45457164D-04
 -0.69226015D-05 -0.38534562D-04  0.27846718D-03 -0.96985865D-07  0.86642678D-07
  0.14384564D-03  0.19521224D-04  0.13081747D-06 -0.41981150D-03 -0.37730791D-03
 -0.35287965D-07 -0.11725424D-04  0.31874424D-03 -0.35716445D-06 -0.34594467D-06
 -0.27122806D-03  0.42929809D-04 -0.84283502D-07  0.70324968D-03  0.11271518D-04
  0.40316853D-06  0.11043449D-03 -0.14006095D-03 -0.15031802D-06 -0.30334093D-06
  0.57443859D-03  0.10703817D-02  0.18102838D-02  0.27261872D-02  0.33751966D-02
  0.28721399D-02  0.10929022D-02 -0.51185274D-05 -0.42605450D-03 -0.79885616D-03
 -0.13590920D-02 -0.21105264D-02 -0.28007913D-02 -0.29516496D-02 -0.18302110D-02
  0.12174571D-02  0.76926504D-03 -0.35283744D-03 -0.66475704D-04 -0.52018501D-03
 -0.49963148D-03 -0.35037608D-03 -0.62611310D-03 -0.60137415D-03 -0.42172506D-03
  0.51469409D-06  0.49435752D-06  0.34667762D-06 -0.17244204D-02 -0.85006988D-03
  0.13062924D-05 -0.27688642D-03  0.11354487D-02  0.16444665D-06 -0.49396586D-04
 -0.40964738D-04  0.38333408D-07  0.79560300D-03  0.15658616D-03 -0.95218916D-03
  0.25242042D-02 -0.28425806D-05 -0.16254667D-05 -0.82511864D-03  0.31017145D-03
  0.51494719D-03 -0.25514493D-03  0.18190400D-05 -0.66701580D-07 -0.26556944D-03
  0.19551609D-03  0.70053350D-04  0.23155256D-03  0.23440374D-06 -0.22538958D-06
 -0.78055325D-04 -0.20816098D-03  0.32244156D-06  0.69476479D-03  0.10372602D-02
 -0.51442834D-06 -0.46059882D-03 -0.41277725D-03 -0.45289633D-06 -0.21610607D-05
  0.22609688D-04 -0.46416434D-03  0.20604110D-06  0.15990255D-03  0.16326976D-02
 -0.55703276D-06 -0.22773162D-03 -0.24020459D-03 -0.61090543D-07 -0.23406061D-05
  0.14809926D-01  0.27603796D-01  0.46806891D-01  0.70844411D-01  0.88393140D-01
  0.75917919D-01  0.29146365D-01 -0.13037348D-03 -0.63767561D-04 -0.11959764D-03
 -0.20388776D-03 -0.31863688D-03 -0.42607822D-03 -0.45495221D-03 -0.27814886D-03
  0.18350572D-03  0.14749021D-02 -0.22538256D-03 -0.10663077D-03 -0.27096616D-03
 -0.26274602D-03 -0.17724692D-03  0.27948705D-03  0.27100842D-03  0.18282068D-03
  0.25954378D-06  0.25167016D-06  0.16977520D-06 -0.26785056D-04 -0.68791900D-03
 -0.51552925D-06  0.23494746D-03 -0.56913345D-03 -0.12270190D-06  0.16645966D-04
 -0.71090614D-05  0.31857843D-08  0.32778957D-03 -0.18849163D-03 -0.13929794D-03
 -0.12650363D-03  0.91907686D-06 -0.19377947D-05 -0.19525959D-03  0.27193416D-03
 -0.76674577D-04  0.49855953D-03 -0.83692439D-07  0.16766356D-05 -0.76431600D-04
  0.11460655D-03 -0.38174947D-04  0.73258723D-04 -0.95988948D-07  0.41628961D-06
  0.93531592D-05  0.29209611D-04 -0.33510328D-07 -0.11776406D-03 -0.76487690D-04
 -0.88941300D-06  0.89704586D-04 -0.11141144D-04  0.98994399D-06 -0.52093375D-06
  0.18407915D-05  0.15434533D-05  0.11496768D-06 -0.13974905D-04 -0.38011559D-04