 Molden2AIM, Version 4.0.0 (06/02/2016)           Time: Sat Jun 30 03:12:27 2018
GAUSSIAN             15 MOL ORBITALS    281 PRIMITIVES        3 NUCLEI
  N    1    (CENTRE  1)   0.00000000  0.00000000 -2.52602715  CHARGE =  7.0
  N    2    (CENTRE  2)   0.00000000  0.00000000 -0.39400601  CHARGE =  7.0
  S    3    (CENTRE  3)   0.00000000  0.00000000  2.62096510  CHARGE = 16.0
CENTRE ASSIGNMENTS    1  1  1  1  1  1  1  1  1  1  1  1  1  1  1  1  1  1  1  1
CENTRE ASSIGNMENTS    1  1  1  1  1  1  1  1  1  1  1  1  1  1  1  1  1  1  1  1
CENTRE ASSIGNMENTS    1  1  1  1  1  1  1  1  1  1  1  1  1  1  1  1  1  1  1  1
CENTRE ASSIGNMENTS    1  1  1  1  1  1  1  1  1  1  1  1  1  1  1  2  2  2  2  2
CENTRE ASSIGNMENTS    2  2  2  2  2  2  2  2  2  2  2  2  2  2  2  2  2  2  2  2
CENTRE ASSIGNMENTS    2  2  2  2  2  2  2  2  2  2  2  2  2  2  2  2  2  2  2  2
CENTRE ASSIGNMENTS    2  2  2  2  2  2  2  2  2  2  2  2  2  2  2  2  2  2  2  2
CENTRE ASSIGNMENTS    2  2  2  2  2  2  2  2  2  2  3  3  3  3  3  3  3  3  3  3
CENTRE ASSIGNMENTS    3  3  3  3  3  3  3  3  3  3  3  3  3  3  3  3  3  3  3  3
CENTRE ASSIGNMENTS    3  3  3  3  3  3  3  3  3  3  3  3  3  3  3  3  3  3  3  3
CENTRE ASSIGNMENTS    3  3  3  3  3  3  3  3  3  3  3  3  3  3  3  3  3  3  3  3
CENTRE ASSIGNMENTS    3  3  3  3  3  3  3  3  3  3  3  3  3  3  3  3  3  3  3  3
CENTRE ASSIGNMENTS    3  3  3  3  3  3  3  3  3  3  3  3  3  3  3  3  3  3  3  3
CENTRE ASSIGNMENTS    3  3  3  3  3  3  3  3  3  3  3  3  3  3  3  3  3  3  3  3
CENTRE ASSIGNMENTS    3
TYPE ASSIGNMENTS      1  1  1  1  1  1  1  1  1  1  1  1  1  1  1  1  1  1  1  2
TYPE ASSIGNMENTS      2  2  3  3  3  4  4  4  2  3  4  2  3  4  2  3  4  5  6  7
TYPE ASSIGNMENTS      8  9 10  5  6  7  8  9 10  5  6  7  8  9 10 11 12 13 17 14
TYPE ASSIGNMENTS     15 18 19 16 20 11 12 13 17 14 15 18 19 16 20  1  1  1  1  1
TYPE ASSIGNMENTS      1  1  1  1  1  1  1  1  1  1  1  1  1  1  2  2  2  3  3  3
TYPE ASSIGNMENTS      4  4  4  2  3  4  2  3  4  2  3  4  5  6  7  8  9 10  5  6
TYPE ASSIGNMENTS      7  8  9 10  5  6  7  8  9 10 11 12 13 17 14 15 18 19 16 20
TYPE ASSIGNMENTS     11 12 13 17 14 15 18 19 16 20  1  1  1  1  1  1  1  1  1  1
TYPE ASSIGNMENTS      1  1  1  1  1  1  1  1  1  1  1  1  1  1  1  1  1  1  1  1
TYPE ASSIGNMENTS      1  1  1  1  1  1  1  1  1  1  1  1  2  2  2  2  2  2  2  3
TYPE ASSIGNMENTS      3  3  3  3  3  3  4  4  4  4  4  4  4  2  2  2  2  2  2  2
TYPE ASSIGNMENTS      3  3  3  3  3  3  3  4  4  4  4  4  4  4  2  3  4  2  3  4
TYPE ASSIGNMENTS      2  3  4  5  6  7  8  9 10  5  6  7  8  9 10  5  6  7  8  9
TYPE ASSIGNMENTS     10 11 12 13 17 14 15 18 19 16 20 11 12 13 17 14 15 18 19 16
TYPE ASSIGNMENTS     20
EXPONENTS  0.1142000D+05 0.1712000D+04 0.3893000D+03 0.1100000D+03 0.3557000D+02
EXPONENTS  0.1254000D+02 0.4644000D+01 0.5118000D+00 0.1142000D+05 0.1712000D+04
EXPONENTS  0.3893000D+03 0.1100000D+03 0.3557000D+02 0.1254000D+02 0.4644000D+01
EXPONENTS  0.5118000D+00 0.1293000D+01 0.1787000D+00 0.5760000D-01 0.2663000D+02
EXPONENTS  0.5948000D+01 0.1742000D+01 0.2663000D+02 0.5948000D+01 0.1742000D+01
EXPONENTS  0.2663000D+02 0.5948000D+01 0.1742000D+01 0.5550000D+00 0.5550000D+00
EXPONENTS  0.5550000D+00 0.1725000D+00 0.1725000D+00 0.1725000D+00 0.4910000D-01
EXPONENTS  0.4910000D-01 0.4910000D-01 0.1654000D+01 0.1654000D+01 0.1654000D+01
EXPONENTS  0.1654000D+01 0.1654000D+01 0.1654000D+01 0.4690000D+00 0.4690000D+00
EXPONENTS  0.4690000D+00 0.4690000D+00 0.4690000D+00 0.4690000D+00 0.1510000D+00
EXPONENTS  0.1510000D+00 0.1510000D+00 0.1510000D+00 0.1510000D+00 0.1510000D+00
EXPONENTS  0.1093000D+01 0.1093000D+01 0.1093000D+01 0.1093000D+01 0.1093000D+01
EXPONENTS  0.1093000D+01 0.1093000D+01 0.1093000D+01 0.1093000D+01 0.1093000D+01
EXPONENTS  0.3640000D+00 0.3640000D+00 0.3640000D+00 0.3640000D+00 0.3640000D+00
EXPONENTS  0.3640000D+00 0.3640000D+00 0.3640000D+00 0.3640000D+00 0.3640000D+00
EXPONENTS  0.1142000D+05 0.1712000D+04 0.3893000D+03 0.1100000D+03 0.3557000D+02
EXPONENTS  0.1254000D+02 0.4644000D+01 0.5118000D+00 0.1142000D+05 0.1712000D+04
EXPONENTS  0.3893000D+03 0.1100000D+03 0.3557000D+02 0.1254000D+02 0.4644000D+01
EXPONENTS  0.5118000D+00 0.1293000D+01 0.1787000D+00 0.5760000D-01 0.2663000D+02
EXPONENTS  0.5948000D+01 0.1742000D+01 0.2663000D+02 0.5948000D+01 0.1742000D+01
EXPONENTS  0.2663000D+02 0.5948000D+01 0.1742000D+01 0.5550000D+00 0.5550000D+00
EXPONENTS  0.5550000D+00 0.1725000D+00 0.1725000D+00 0.1725000D+00 0.4910000D-01
EXPONENTS  0.4910000D-01 0.4910000D-01 0.1654000D+01 0.1654000D+01 0.1654000D+01
EXPONENTS  0.1654000D+01 0.1654000D+01 0.1654000D+01 0.4690000D+00 0.4690000D+00
EXPONENTS  0.4690000D+00 0.4690000D+00 0.4690000D+00 0.4690000D+00 0.1510000D+00
EXPONENTS  0.1510000D+00 0.1510000D+00 0.1510000D+00 0.1510000D+00 0.1510000D+00
EXPONENTS  0.1093000D+01 0.1093000D+01 0.1093000D+01 0.1093000D+01 0.1093000D+01
EXPONENTS  0.1093000D+01 0.1093000D+01 0.1093000D+01 0.1093000D+01 0.1093000D+01
EXPONENTS  0.3640000D+00 0.3640000D+00 0.3640000D+00 0.3640000D+00 0.3640000D+00
EXPONENTS  0.3640000D+00 0.3640000D+00 0.3640000D+00 0.3640000D+00 0.3640000D+00
EXPONENTS  0.3741000D+06 0.5605000D+05 0.1276000D+05 0.3615000D+04 0.1183000D+04
EXPONENTS  0.4288000D+03 0.1678000D+03 0.6947000D+02 0.2984000D+02 0.1272000D+02
EXPONENTS  0.5244000D+01 0.2219000D+01 0.3490000D+00 0.3741000D+06 0.5605000D+05
EXPONENTS  0.1276000D+05 0.3615000D+04 0.1183000D+04 0.4288000D+03 0.1678000D+03
EXPONENTS  0.6947000D+02 0.2984000D+02 0.1272000D+02 0.5244000D+01 0.2219000D+01
EXPONENTS  0.3490000D+00 0.3741000D+06 0.5605000D+05 0.1276000D+05 0.3615000D+04
EXPONENTS  0.1183000D+04 0.4288000D+03 0.1678000D+03 0.6947000D+02 0.2984000D+02
EXPONENTS  0.1272000D+02 0.5244000D+01 0.2219000D+01 0.3490000D+00 0.7767000D+00
EXPONENTS  0.1322000D+00 0.4970000D-01 0.5744000D+03 0.1358000D+03 0.4319000D+02
EXPONENTS  0.1587000D+02 0.6208000D+01 0.2483000D+01 0.3229000D+00 0.5744000D+03
EXPONENTS  0.1358000D+03 0.4319000D+02 0.1587000D+02 0.6208000D+01 0.2483000D+01
EXPONENTS  0.3229000D+00 0.5744000D+03 0.1358000D+03 0.4319000D+02 0.1587000D+02
EXPONENTS  0.6208000D+01 0.2483000D+01 0.3229000D+00 0.5744000D+03 0.1358000D+03
EXPONENTS  0.4319000D+02 0.1587000D+02 0.6208000D+01 0.2483000D+01 0.3229000D+00
EXPONENTS  0.5744000D+03 0.1358000D+03 0.4319000D+02 0.1587000D+02 0.6208000D+01
EXPONENTS  0.2483000D+01 0.3229000D+00 0.5744000D+03 0.1358000D+03 0.4319000D+02
EXPONENTS  0.1587000D+02 0.6208000D+01 0.2483000D+01 0.3229000D+00 0.8688000D+00
EXPONENTS  0.8688000D+00 0.8688000D+00 0.1098000D+00 0.1098000D+00 0.1098000D+00
EXPONENTS  0.3510000D-01 0.3510000D-01 0.3510000D-01 0.2690000D+00 0.2690000D+00
EXPONENTS  0.2690000D+00 0.2690000D+00 0.2690000D+00 0.2690000D+00 0.8190000D+00
EXPONENTS  0.8190000D+00 0.8190000D+00 0.8190000D+00 0.8190000D+00 0.8190000D+00
EXPONENTS  0.1010000D+00 0.1010000D+00 0.1010000D+00 0.1010000D+00 0.1010000D+00
EXPONENTS  0.1010000D+00 0.5570000D+00 0.5570000D+00 0.5570000D+00 0.5570000D+00
EXPONENTS  0.5570000D+00 0.5570000D+00 0.5570000D+00 0.5570000D+00 0.5570000D+00
EXPONENTS  0.5570000D+00 0.2180000D+00 0.2180000D+00 0.2180000D+00 0.2180000D+00
EXPONENTS  0.2180000D+00 0.2180000D+00 0.2180000D+00 0.2180000D+00 0.2180000D+00
EXPONENTS  0.2180000D+00
MO    1     MO 0.0        OCC NO =    2.0000000  ORB. ENERGY =  -88.626267
  0.69565619D-04  0.12962529D-03  0.21922886D-03  0.33014651D-03  0.40874280D-03
  0.34782168D-03  0.13235256D-03 -0.61986352D-06 -0.45009751D-04 -0.84393703D-04
 -0.14357880D-03 -0.22296272D-03 -0.29588449D-03 -0.31182164D-03 -0.19334931D-03
  0.12861603D-03 -0.11820490D-03  0.34805877D-03 -0.24763423D-03 -0.75969884D-15
 -0.72968165D-15 -0.51170314D-15 -0.59515880D-17 -0.57164291D-17 -0.40087547D-17
 -0.13208109D-03 -0.12686230D-03 -0.88964605D-04 -0.31848261D-17  0.39980979D-17
  0.46910067D-03 -0.82060335D-18 -0.19212972D-18 -0.19027355D-04 -0.39743698D-19
 -0.42348068D-20 -0.14564168D-06 -0.13267552D-03 -0.13267552D-03  0.26535105D-03
  0.13493974D-21  0.11238878D-17  0.12937827D-18 -0.17746688D-04 -0.17746688D-04
  0.35493376D-04 -0.33664538D-21 -0.26890412D-17  0.20829676D-17 -0.70683901D-05
 -0.70683901D-05  0.14136780D-04 -0.71248932D-22 -0.30910284D-18  0.63626458D-19
  0.23720169D-18 -0.39178703D-18 -0.12549277D-03  0.23806819D-18 -0.39341646D-18
  0.18823915D-03 -0.94967328D-18  0.15687776D-17  0.18823915D-03 -0.38132264D-21
  0.12500929D-18 -0.95746361D-19  0.52489970D-05  0.12498556D-18 -0.95652135D-19
 -0.78734955D-05 -0.50001342D-18  0.38289122D-18 -0.78734955D-05 -0.27118552D-21
  0.13038457D-03  0.24295245D-03  0.41089350D-03  0.61878285D-03  0.76609331D-03
  0.65191083D-03  0.24806410D-03 -0.11617900D-05 -0.96186731D-04 -0.18035102D-03
 -0.30683075D-03 -0.47647575D-03 -0.63231104D-03 -0.66636903D-03 -0.41319131D-03
  0.27485502D-03  0.25430862D-03 -0.75733219D-03 -0.14019917D-03 -0.14394089D-17
 -0.13825350D-17 -0.96952901D-18  0.13394922D-17  0.12865662D-17  0.90222903D-18
  0.24319700D-03  0.23358781D-03  0.16380790D-03  0.15221936D-17 -0.14451623D-17
  0.67500073D-04  0.24746477D-17 -0.79949539D-18 -0.65461040D-03  0.82280167D-19
  0.33820820D-19 -0.95284101D-04 -0.24421434D-03 -0.24421434D-03  0.48842868D-03
 -0.37492321D-21  0.58549337D-18  0.31348796D-19  0.31995524D-03  0.31995524D-03
 -0.63991047D-03  0.41352995D-21 -0.18576364D-17  0.20626193D-17  0.81656022D-04
  0.81656022D-04 -0.16331204D-03  0.82209763D-22  0.34889686D-18 -0.25314109D-18
  0.41680672D-18  0.33877109D-18  0.12609075D-03  0.41651252D-18  0.34149889D-18
 -0.18913613D-03 -0.16669327D-17 -0.13578122D-17 -0.18913613D-03  0.81395704D-21
 -0.45601834D-18  0.18364125D-18 -0.14185946D-03 -0.45595537D-18  0.18350495D-18
  0.21278919D-03  0.18240104D-17 -0.73442869D-18  0.21278919D-03 -0.38577327D-21
  0.58522657D+00  0.10940471D+01  0.18908549D+01  0.30583730D+01  0.46225517D+01
  0.63660122D+01  0.74403923D+01  0.64290603D+01  0.29985366D+01  0.40713649D+00
  0.10902112D-02  0.21385437D-02  0.97633454D-04 -0.13540216D-02 -0.25286931D-02
 -0.43864094D-02 -0.71124112D-02 -0.10950367D-01 -0.15595782D-01 -0.20054151D-01
 -0.21050891D-01 -0.14884472D-01  0.32962286D-03  0.10694685D-01  0.58887840D-02
 -0.24903568D-04  0.55499201D-03  0.10356972D-02  0.17988821D-02  0.29137898D-02
  0.45009525D-02  0.64167841D-02  0.83461400D-02  0.88947355D-02  0.65970403D-02
 -0.20534137D-03 -0.59765749D-02 -0.58549806D-02  0.27346232D-02 -0.32708801D-02
  0.25501988D-03  0.19714500D-03 -0.36603688D-16 -0.48022045D-16 -0.52672864D-16
 -0.43340067D-16 -0.22849741D-16 -0.59444226D-17  0.65781096D-20  0.17420334D-16
  0.22854529D-16  0.25067935D-16  0.20626294D-16  0.10874590D-16  0.28290544D-17
 -0.31306371D-20 -0.19162680D-01 -0.25140392D-01 -0.27575178D-01 -0.22689294D-01
 -0.11962244D-01 -0.31120106D-02  0.34437570D-05  0.22636596D-16  0.29721989D-16
  0.33439242D-16  0.28175089D-16  0.15760750D-16  0.39228186D-17 -0.17991936D-17
 -0.10143915D-16 -0.13319022D-16 -0.14984798D-16 -0.12625825D-16 -0.70627094D-17
 -0.17578940D-17  0.80625489D-18  0.16780861D-01  0.22033373D-01  0.24789030D-01
  0.20886632D-01  0.11683689D-01  0.29080465D-02 -0.13337702D-02  0.26528084D-17
 -0.11504437D-17  0.51947341D-03 -0.52398970D-18  0.15064630D-18  0.43889834D-04
 -0.12409064D-19 -0.93448956D-20 -0.33570031D-05 -0.59184110D-04 -0.59184110D-04
  0.11836822D-03 -0.14544155D-20  0.13172400D-17 -0.33876116D-18 -0.26226955D-03
 -0.26226955D-03  0.52453909D-03  0.15555260D-19 -0.52509966D-18 -0.49627067D-18
  0.17555140D-04  0.17555140D-04 -0.35110280D-04  0.99531855D-22  0.16294610D-18
 -0.63182226D-19  0.19868869D-18 -0.43652017D-19 -0.16562592D-03  0.19870515D-18
 -0.43526421D-19  0.24843888D-03 -0.79477122D-18  0.17448247D-18  0.24843888D-03
 -0.89944933D-21  0.57765306D-19 -0.75893576D-20  0.27318110D-04  0.57772417D-19
 -0.76252208D-20 -0.40977165D-04 -0.23106834D-18  0.30393294D-19 -0.40977165D-04
  0.15342208D-21
MO    2     MO 0.0        OCC NO =    2.0000000  ORB. ENERGY =  -14.332572
  0.24536496D-02  0.45720147D-02  0.77324231D-02  0.11644601D-01  0.14416771D-01
  0.12268022D-01  0.46682085D-02 -0.21863212D-04  0.26701188D-03  0.50064977D-03
  0.85175422D-03  0.13226844D-02  0.17552791D-02  0.18498232D-02  0.11470084D-02
 -0.76299043D-03  0.20344341D-02 -0.21857298D-02 -0.76013144D-03  0.25014489D-15
  0.24026118D-15  0.16848772D-15  0.91164874D-15  0.87562772D-15  0.61405060D-15
  0.34968955D-02  0.33587263D-02  0.23553707D-02 -0.14455226D-15  0.14606228D-16
 -0.54198975D-02  0.18855675D-17 -0.46991560D-17 -0.22477536D-02  0.37877822D-18
  0.92384079D-23 -0.53766054D-04  0.10145386D-02  0.10145386D-02 -0.20290772D-02
  0.24515258D-18 -0.18054368D-17  0.31737166D-17  0.16172086D-02  0.16172086D-02
 -0.32344172D-02 -0.10359261D-18 -0.51820023D-19  0.66669245D-17  0.13953782D-03
  0.13953782D-03 -0.27907565D-03 -0.55336644D-20  0.78891572D-18 -0.84215101D-18
  0.94468085D-19 -0.20936680D-17 -0.23019295D-02  0.92349915D-19 -0.20862583D-17
  0.34528942D-02 -0.37575417D-18  0.83672623D-17  0.34528942D-02  0.46038768D-18
 -0.73953291D-19 -0.14619214D-18 -0.41025128D-03 -0.76049122D-19 -0.14467503D-18
  0.61537693D-03  0.29790899D-18  0.58325144D-18  0.61537693D-03 -0.93203915D-19
  0.41306200D+00  0.76968022D+00  0.13017222D+01  0.19603215D+01  0.24270052D+01
  0.20652719D+01  0.78587405D+00 -0.36805835D-02 -0.20072932D-02 -0.37636935D-02
 -0.64031625D-02 -0.99434352D-02 -0.13195517D-01 -0.13906263D-01 -0.86227705D-02
  0.57358702D-02  0.42152124D-01  0.29010788D-02 -0.82613815D-04  0.96521096D-17
  0.92707359D-17  0.65012799D-17 -0.76836161D-18 -0.73800215D-18 -0.51753805D-18
  0.49338550D-03  0.47389087D-03  0.33232499D-03 -0.73108892D-18 -0.46304316D-17
 -0.81335520D-02 -0.28067111D-17 -0.59149091D-18  0.69891123D-03 -0.66569558D-18
  0.42858293D-19 -0.12000074D-03 -0.38206472D-02 -0.38206472D-02  0.76412944D-02
 -0.25905707D-17  0.82403565D-17  0.57074401D-18 -0.10714199D-03 -0.10714199D-03
  0.21428398D-03  0.21816516D-18 -0.23324134D-17  0.66308303D-17  0.11002645D-03
  0.11002645D-03 -0.22005289D-03 -0.66361883D-20  0.47189368D-18 -0.26632188D-17
  0.60399137D-18 -0.62672059D-18 -0.21273030D-02  0.15012403D-18 -0.17768320D-18
  0.31909545D-02 -0.19620981D-17  0.20578450D-17  0.31909545D-02  0.13701886D-17
  0.29072614D-19  0.87304960D-18  0.21935637D-03  0.48926879D-19  0.85292822D-18
 -0.32903455D-03 -0.13614472D-18 -0.34720770D-17 -0.32903455D-03 -0.14719788D-18
  0.91716090D-04  0.17145790D-03  0.29633278D-03  0.47930498D-03  0.72444141D-03
  0.99767470D-03  0.11660504D-02  0.10075555D-02  0.46992749D-03  0.63806001D-04
  0.17085675D-06  0.33515031D-06  0.15301012D-07 -0.15079634D-03 -0.28161860D-03
 -0.48851103D-03 -0.79210374D-03 -0.12195339D-02 -0.17368902D-02 -0.22334153D-02
 -0.23444215D-02 -0.16576721D-02  0.36709843D-04  0.11910588D-02  0.65582932D-03
 -0.27734911D-05  0.74190091D-04  0.13844969D-03  0.24047053D-03  0.38950891D-03
  0.60167727D-03  0.85778135D-03  0.11156933D-02  0.11890284D-02  0.88187761D-03
 -0.27449575D-04 -0.79893517D-03 -0.78268072D-03  0.36555831D-03 -0.74444008D-03
  0.57854548D-04  0.40911616D-03 -0.59865892D-17 -0.78540790D-17 -0.86147276D-17
 -0.70883344D-17 -0.37371101D-17 -0.97221941D-18  0.10758599D-20  0.44000864D-16
  0.57726737D-16  0.63317432D-16  0.52098587D-16  0.27467405D-16  0.71457206D-17
 -0.79074683D-20 -0.50179118D-02 -0.65832270D-02 -0.72207966D-02 -0.59413859D-02
 -0.31324161D-02 -0.81490663D-03  0.90177727D-06 -0.26993287D-18 -0.35442350D-18
 -0.39875034D-18 -0.33597731D-18 -0.18794100D-18 -0.46778131D-19  0.21454705D-19
 -0.39057584D-16 -0.51282846D-16 -0.57696659D-16 -0.48613798D-16 -0.27193877D-16
 -0.67685006D-17  0.31043605D-17  0.49395412D-02  0.64856477D-02  0.72967909D-02
  0.61480980D-02  0.34391598D-02  0.85599988D-03 -0.39260279D-03  0.40866000D-19
 -0.16320616D-17  0.54409148D-03  0.51799348D-18  0.14403031D-17 -0.47743779D-04
  0.15280081D-18 -0.38902682D-19 -0.23782068D-04 -0.10928093D-03 -0.10928093D-03
  0.21856186D-03  0.13617079D-19  0.55452123D-18 -0.25780285D-17 -0.21868809D-03
 -0.21868809D-03  0.43737617D-03  0.33625319D-20  0.49708265D-18 -0.31341249D-18
  0.12536573D-05  0.12536573D-05 -0.25073147D-05  0.14190557D-20 -0.48575788D-18
 -0.34278740D-18 -0.44877818D-18 -0.72166084D-19 -0.21809105D-03 -0.44846289D-18
 -0.74328938D-19  0.32713657D-03  0.17947974D-17  0.29082719D-18  0.32713657D-03
 -0.18558655D-19 -0.10375982D-18 -0.84085283D-19 -0.27606815D-04 -0.10458763D-18
 -0.83011632D-19  0.41410223D-04  0.41586708D-18  0.33526748D-18  0.41410223D-04
 -0.85963381D-20
MO    3     MO 0.0        OCC NO =    2.0000000  ORB. ENERGY =  -14.259334
  0.41350607D+00  0.77050767D+00  0.13031216D+01  0.19624290D+01  0.24296144D+01
  0.20674922D+01  0.78671891D+00 -0.36845403D-02 -0.22967895D-02 -0.43065017D-02
 -0.73266407D-02 -0.11377499D-01 -0.15098603D-01 -0.15911856D-01 -0.98663655D-02
  0.65631101D-02  0.42573782D-01  0.13927276D-01  0.14695897D-02  0.37727117D-16
  0.36236445D-16  0.25411496D-16 -0.71634731D-17 -0.68804303D-17 -0.48250327D-17
  0.68809208D-02  0.66090422D-02  0.46347166D-02 -0.72145606D-17 -0.79585787D-18
  0.72002214D-02  0.98940611D-18 -0.49103371D-18  0.35008966D-02 -0.24404242D-19
  0.26126204D-20  0.65333680D-04 -0.34145630D-02 -0.34145630D-02  0.68291260D-02
  0.95509506D-17 -0.10724979D-16 -0.63241854D-17 -0.29234610D-03 -0.29234610D-03
  0.58469220D-03 -0.59483754D-18 -0.24468395D-17 -0.55740610D-18 -0.40972058D-05
 -0.40972058D-05  0.81944115D-05  0.12289697D-19  0.16659260D-18 -0.11227590D-18
  0.12393056D-17  0.43510452D-18  0.14651727D-02  0.92374056D-18  0.28891097D-18
 -0.21977590D-02 -0.46416573D-17 -0.15942245D-17 -0.21977590D-02  0.19856687D-17
  0.22982848D-19 -0.84971597D-21 -0.18241297D-03  0.27531526D-19  0.11484824D-19
  0.27361946D-03 -0.96480071D-19 -0.89356757D-20  0.27361946D-03 -0.15869807D-18
 -0.32296761D-02 -0.60180259D-02 -0.10177991D-01 -0.15327490D-01 -0.18976427D-01
 -0.16148083D-01 -0.61446433D-02  0.28777986D-04  0.16034668D-03  0.30065152D-03
  0.51149769D-03  0.79430191D-03  0.10540848D-02  0.11108607D-02  0.68880451D-03
 -0.45819303D-03  0.19323780D-02 -0.12620928D-01 -0.15685119D-02 -0.19760988D-17
 -0.18980193D-17 -0.13310221D-17 -0.31148467D-18 -0.29917730D-18 -0.20980378D-18
 -0.34211395D-02 -0.32859636D-02 -0.23043445D-02  0.19516177D-17  0.33641830D-18
  0.40212650D-02  0.95894586D-18  0.58714467D-18  0.83064534D-02  0.57093971D-19
 -0.11503657D-19  0.18641293D-03  0.31307924D-03  0.31307924D-03 -0.62615849D-03
 -0.26587903D-18 -0.61561013D-18 -0.53600738D-18  0.21394315D-02  0.21394315D-02
 -0.42788629D-02  0.15470629D-18 -0.25722041D-17 -0.53033190D-18  0.23314249D-03
  0.23314249D-03 -0.46628499D-03  0.35490277D-20  0.86209509D-18 -0.14496615D-18
 -0.28685772D-18 -0.22285804D-18  0.17415476D-02 -0.33348091D-18 -0.47099153D-19
 -0.26123214D-02  0.11940541D-17  0.71567328D-18 -0.26123214D-02  0.73818809D-18
 -0.46667534D-18 -0.12326898D-18  0.89922336D-03 -0.45847778D-18 -0.13581457D-18
 -0.13488350D-02  0.18585038D-17  0.50562150D-18 -0.13488350D-02 -0.22129728D-18
 -0.17373995D-03 -0.32479674D-03 -0.56135018D-03 -0.90795872D-03 -0.13723264D-02
 -0.18899187D-02 -0.22088768D-02 -0.19086362D-02 -0.89019472D-03 -0.12086921D-03
 -0.32365797D-06 -0.63488313D-06 -0.28985067D-07  0.35148468D-03  0.65641261D-03
  0.11386492D-02  0.18462804D-02  0.28425588D-02  0.40484423D-02  0.52057712D-02
  0.54645107D-02  0.38637963D-02 -0.85565387D-04 -0.27761876D-02 -0.15286442D-02
  0.64646105D-05 -0.22058023D-03 -0.41163534D-03 -0.71496131D-03 -0.11580787D-02
 -0.17888927D-02 -0.25503353D-02 -0.33171531D-02 -0.35351910D-02 -0.26219777D-02
  0.81612429D-04  0.23753752D-02  0.23270478D-02 -0.10868693D-02 -0.81016659D-03
 -0.72762345D-03 -0.67182491D-04 -0.19104804D-16 -0.25064462D-16 -0.27491895D-16
 -0.22620767D-16 -0.11926116D-16 -0.31026116D-17  0.34333561D-20 -0.31803751D-17
 -0.41724789D-17 -0.45765734D-17 -0.37656771D-17 -0.19853394D-17 -0.51649149D-18
  0.57155049D-21  0.47191101D-02  0.61912155D-02  0.67908198D-02  0.55875941D-02
  0.29458901D-02  0.76638137D-03 -0.84807912D-06  0.16890785D-16  0.22177704D-16
  0.24951412D-16  0.21023451D-16  0.11760224D-16  0.29270958D-17 -0.13425072D-17
  0.30977236D-17  0.40673300D-17  0.45760205D-17  0.38556432D-17  0.21567928D-17
  0.53682133D-18 -0.24621213D-18 -0.54408297D-02 -0.71438425D-02 -0.80373045D-02
 -0.67720367D-02 -0.37881824D-02 -0.94287088D-03  0.43244602D-03  0.87227030D-18
  0.10256087D-18  0.11994209D-02 -0.64373533D-18  0.18449208D-19  0.12994431D-03
 -0.31100587D-20  0.27614936D-20 -0.11686862D-04 -0.17368208D-03 -0.17368208D-03
  0.34736416D-03  0.31293318D-19  0.11612925D-17  0.16297071D-18  0.18919300D-03
  0.18919300D-03 -0.37838600D-03 -0.71966082D-20  0.16539951D-18  0.34538871D-18
 -0.43735502D-05 -0.43735502D-05  0.87471004D-05 -0.13779139D-20  0.16868802D-18
 -0.59449914D-20  0.13271325D-18  0.54981690D-19 -0.70021162D-04  0.13414681D-18
  0.66923601D-19  0.10503174D-03 -0.53228658D-18 -0.23186867D-18  0.10503174D-03
 -0.76716659D-19  0.43544247D-19  0.33465898D-20 -0.78355217D-04  0.42602740D-19
  0.38205456D-20  0.11753283D-03 -0.17323548D-18 -0.13860315D-19  0.11753283D-03
 -0.98685999D-20
MO    4     MO 0.0        OCC NO =    2.0000000  ORB. ENERGY =   -7.908392
 -0.38508180D-04 -0.71754324D-04 -0.12135455D-03 -0.18275323D-03 -0.22626035D-03
 -0.19253735D-03 -0.73264013D-04  0.34312663D-06  0.26565600D-04  0.49810749D-04
  0.84742904D-04  0.13159678D-03  0.17463658D-03  0.18404299D-03  0.11411839D-03
 -0.75911599D-04  0.77101362D-04  0.23328555D-03  0.47355800D-03 -0.17599196D-16
 -0.16903817D-16 -0.11854123D-16 -0.22006049D-15 -0.21136547D-15 -0.14822406D-15
  0.34726547D-04  0.33354433D-04  0.23390431D-04  0.85259282D-16  0.62353194D-16
 -0.19464552D-03 -0.13832698D-16 -0.74816837D-17  0.27266537D-03  0.28518905D-17
  0.76737362D-17  0.22264386D-04  0.14188398D-03  0.14188398D-03 -0.28376796D-03
  0.36891590D-15  0.49878588D-17 -0.15726847D-17  0.12425228D-04  0.12425228D-04
 -0.24850457D-04 -0.18627698D-17 -0.38258263D-17  0.89818171D-17 -0.12990685D-05
 -0.12990685D-05  0.25981371D-05  0.38639429D-18  0.18631506D-17  0.48424280D-17
  0.30196843D-17 -0.22745840D-17 -0.11487859D-04  0.30769297D-17 -0.22102946D-17
  0.17231789D-04 -0.12135983D-16  0.90340467D-17  0.17231789D-04  0.57557452D-17
 -0.76893217D-19 -0.32690920D-18 -0.22536489D-04 -0.98220030D-19 -0.34810105D-18
  0.33804733D-04  0.32889968D-18  0.13288286D-17  0.33804733D-04 -0.39657632D-17
 -0.36882517D-04 -0.68725140D-04 -0.11623144D-03 -0.17503811D-03 -0.21670853D-03
 -0.18440918D-03 -0.70171096D-04  0.32864118D-06 -0.27561191D-05 -0.51677490D-05
 -0.87918787D-05 -0.13652859D-04 -0.18118138D-04 -0.19094031D-04 -0.11839517D-04
  0.78756514D-05  0.90928559D-04 -0.44947607D-03 -0.17509324D-03  0.23739325D-17
  0.22801338D-17  0.15989872D-17  0.14503384D-17  0.13930327D-17  0.97689067D-18
  0.44133334D-03  0.42389539D-03  0.29726471D-03  0.46886877D-17 -0.21834586D-17
 -0.20567507D-03 -0.81435326D-17 -0.66295480D-17  0.57161635D-03 -0.49276865D-18
  0.73740314D-18  0.98194210D-04 -0.88479778D-04 -0.88479778D-04  0.17695956D-03
 -0.41098647D-17 -0.69334253D-18  0.81766684D-17 -0.23286237D-04 -0.23286237D-04
  0.46572475D-04  0.36822413D-17 -0.84121807D-17  0.10462422D-16 -0.64139459D-04
 -0.64139459D-04  0.12827892D-03  0.38035827D-18 -0.28742455D-18  0.12979971D-16
 -0.24953214D-17  0.15234461D-17 -0.38556862D-03 -0.25240202D-17  0.14632939D-17
  0.57835292D-03  0.10009985D-16 -0.60336323D-17  0.57835292D-03  0.13187474D-16
  0.94362322D-18  0.37985145D-18  0.61406210D-04  0.98382362D-18  0.42503023D-18
 -0.92109315D-04 -0.38146933D-17 -0.15645846D-17 -0.92109315D-04 -0.59254456D-17
 -0.19595937D-02 -0.36633466D-02 -0.63314068D-02 -0.10240766D-01 -0.15478319D-01
 -0.21316185D-01 -0.24913678D-01 -0.21527297D-01 -0.10040408D-01 -0.13632705D-02
 -0.36505025D-05 -0.71607769D-05 -0.32691938D-06 -0.15889660D+00 -0.29674617D+00
 -0.51475215D+00 -0.83465281D+00 -0.12850430D+01 -0.18301899D+01 -0.23533866D+01
 -0.24703557D+01 -0.17467165D+01  0.38681769D-01  0.12550384D+01  0.69105820D+00
 -0.29224734D-02 -0.45235350D-03 -0.84415855D-03 -0.14662024D-02 -0.23749225D-02
 -0.36685602D-02 -0.52300838D-02 -0.68026307D-02 -0.72497706D-02 -0.53770041D-02
  0.16736617D-03  0.48712856D-02  0.47721785D-02 -0.22288904D-02  0.50590676D-01
  0.35978175D-03 -0.17286517D-03 -0.38582781D-16 -0.50618508D-16 -0.55520788D-16
 -0.45683384D-16 -0.24085183D-16 -0.62658264D-17  0.69337757D-20 -0.95896235D-15
 -0.12581064D-14 -0.13799509D-14 -0.11354455D-14 -0.59862932D-15 -0.15573506D-15
  0.17233672D-18 -0.76626523D-01 -0.10052983D+00 -0.11026590D+00 -0.90728526D-01
 -0.47833873D-01 -0.12444113D-01  0.13770680D-04 -0.11620679D-15 -0.15258022D-15
 -0.17166304D-15 -0.14463909D-15 -0.80909078D-16 -0.20138105D-16  0.92363052D-17
  0.13163527D-15  0.17283791D-15  0.19445430D-15  0.16384245D-15  0.91651169D-16
  0.22811789D-16 -0.10462586D-16 -0.10814695D-01 -0.14199760D-01 -0.15975687D-01
 -0.13460724D-01 -0.75297405D-02 -0.18741371D-02  0.85956956D-03 -0.10208529D-16
  0.58502410D-17 -0.19604923D-02  0.46281001D-18 -0.68738332D-17 -0.12203739D-03
  0.20280283D-18 -0.11836339D-18  0.12450366D-05  0.53570332D-04  0.53570332D-04
 -0.10714066D-03 -0.13712449D-19 -0.48053988D-17  0.88549096D-17 -0.47815242D-03
 -0.47815242D-03  0.95630483D-03  0.32691856D-17  0.15676411D-17 -0.24798104D-17
 -0.19634776D-04 -0.19634776D-04  0.39269553D-04  0.90553195D-19 -0.25003435D-18
  0.22176065D-17 -0.92767550D-18  0.77158768D-18 -0.36309014D-04 -0.15803391D-17
  0.20479542D-18  0.54463521D-04  0.43633656D-17 -0.25195585D-17  0.54463521D-04
  0.11754251D-17 -0.15767672D-18  0.51963814D-18 -0.13042883D-04 -0.11736688D-18
  0.55116401D-18  0.19564324D-04  0.59039705D-18 -0.21100784D-17  0.19564324D-04
 -0.18385866D-18
MO    5     MO 0.0        OCC NO =    2.0000000  ORB. ENERGY =   -5.854558
 -0.12483088D-03 -0.23260396D-03 -0.39339160D-03 -0.59242596D-03 -0.73346176D-03
 -0.62414286D-03 -0.23749787D-03  0.11123039D-05  0.84780994D-04  0.15896516D-03
  0.27044703D-03  0.41997568D-03  0.55733216D-03  0.58735159D-03  0.36419545D-03
 -0.24226296D-03  0.10901899D-03  0.18824298D-02 -0.25358801D-03  0.34104935D-16
  0.32757383D-16  0.22971738D-16  0.27162258D-15  0.26089024D-15  0.18295424D-15
  0.79737598D-04  0.76587010D-04  0.53708098D-04 -0.33511267D-16 -0.10777014D-15
 -0.68082512D-03  0.21162168D-17  0.28849667D-17  0.51942354D-03  0.94613016D-18
  0.12602388D-17 -0.79158964D-04 -0.12121129D-05 -0.12121129D-05  0.24242257D-05
 -0.60636169D-17  0.24313838D-17 -0.47157657D-16  0.87291471D-04  0.87291471D-04
 -0.17458294D-03 -0.80767060D-18  0.20679520D-17 -0.26413591D-17  0.32729743D-05
  0.32729743D-05 -0.65459486D-05  0.25391544D-18 -0.17719289D-17 -0.31427453D-18
 -0.37117870D-17  0.24695742D-17  0.26065806D-03 -0.37481079D-17  0.26090499D-17
 -0.39098709D-03  0.14883469D-16 -0.10017773D-16 -0.39098709D-03  0.24379135D-17
  0.69042044D-18 -0.12524313D-17 -0.14796594D-04  0.71337562D-18 -0.12425983D-17
  0.22194891D-04 -0.27846369D-17  0.49998923D-17  0.22194891D-04 -0.16952440D-17
 -0.59962986D-04 -0.11173220D-03 -0.18896715D-03 -0.28457406D-03 -0.35232115D-03
 -0.29980940D-03 -0.11408301D-03  0.53429939D-06  0.15107086D-03  0.28325928D-03
  0.48190832D-03  0.74835273D-03  0.99310760D-03  0.10465991D-02  0.64895820D-03
 -0.43168725D-03 -0.97373716D-03  0.31686408D-02  0.20383257D-02  0.77369455D-18
  0.74312437D-18  0.52113010D-18 -0.16601557D-16 -0.15945597D-16 -0.11182153D-16
 -0.20111741D-02 -0.19317087D-02 -0.13546475D-02 -0.14484326D-17 -0.40816694D-17
  0.51612312D-03  0.80370972D-17  0.14828920D-16  0.38029640D-02  0.21817164D-18
 -0.15522071D-19  0.21873168D-03  0.56054996D-03  0.56054996D-03 -0.11210999D-02
 -0.20096815D-17  0.51551399D-17 -0.49200882D-16 -0.88308766D-03 -0.88308766D-03
  0.17661753D-02  0.17315252D-17  0.35439418D-17  0.17141793D-16 -0.81100772D-04
 -0.81100772D-04  0.16220154D-03  0.13534251D-18  0.26148078D-17  0.15064379D-17
  0.29094434D-17  0.13203019D-17  0.32521018D-03  0.29622594D-17  0.11873479D-17
 -0.48781527D-03 -0.11690590D-16 -0.51482536D-17 -0.48781527D-03  0.56783290D-17
 -0.20090671D-18 -0.60333643D-17  0.28247771D-03 -0.27107969D-18 -0.60859226D-17
 -0.42371656D-03  0.87379983D-18  0.24186015D-16 -0.42371656D-03 -0.24770357D-17
 -0.20005392D-03 -0.37398918D-03 -0.64637006D-03 -0.10454746D-02 -0.15801736D-02
 -0.21761583D-02 -0.25434246D-02 -0.21977107D-02 -0.10250201D-02 -0.13917559D-03
 -0.37267793D-06 -0.73104003D-06 -0.33375031D-07 -0.10971691D-02 -0.20490100D-02
 -0.35543250D-02 -0.57632150D-02 -0.88731257D-02 -0.12637324D-01 -0.16249958D-01
 -0.17057621D-01 -0.12060947D-01  0.26709471D-03  0.86659460D-02  0.47717050D-02
 -0.20179460D-04 -0.25761002D-03 -0.48073841D-03 -0.83498508D-03 -0.13524906D-02
 -0.20892021D-02 -0.29784715D-02 -0.38740185D-02 -0.41286595D-02 -0.30621409D-02
  0.95313074D-04  0.27741401D-02  0.27176998D-02 -0.12693270D-02  0.11032208D-02
 -0.39655322D-02 -0.11848304D-02  0.91039070D-13  0.11943830D-12  0.13100561D-12
  0.10779349D-12  0.56830862D-13  0.14784704D-13 -0.16360783D-16 -0.38162560D-12
 -0.50067200D-12 -0.54916087D-12 -0.45185827D-12 -0.23822862D-12 -0.61975826D-13
  0.68582570D-16  0.97417543D+01  0.12780651D+02  0.14018426D+02  0.11534583D+02
  0.60812605D+01  0.15820565D+01 -0.17507069D-02 -0.28553242D-16 -0.37490581D-16
 -0.42179431D-16 -0.35539360D-16 -0.19880220D-16 -0.49481462D-17  0.22694583D-17
  0.74616471D-15  0.97971881D-15  0.11022497D-14  0.92872872D-15  0.51951783D-15
  0.12930693D-15 -0.59306388D-16 -0.55402566D-01 -0.72743907D-01 -0.81841800D-01
 -0.68957905D-01 -0.38574085D-01 -0.96010112D-02  0.44034864D-02  0.74752278D-15
 -0.30611285D-14  0.78245306D-01 -0.18298044D-17 -0.29412681D-17  0.13934356D-02
  0.37813464D-19 -0.17038941D-18  0.46219415D-04  0.35352251D-03  0.35352251D-03
 -0.70704501D-03  0.36424622D-21  0.61072462D-17  0.10507691D-16  0.12858332D-02
  0.12858332D-02 -0.25716663D-02  0.15253704D-17 -0.15264793D-16  0.63569486D-16