 Molden2AIM, Version 4.0.0 (06/02/2016)           Time: Sat Jun 30 06:18:34 2018
GAUSSIAN             39 MOL ORBITALS    674 PRIMITIVES        6 NUCLEI
  N    1    (CENTRE  1)  -0.48709203  2.04675481  0.29298314  CHARGE =  7.0
  N    2    (CENTRE  2)   0.48709203 -2.04675481  0.29371068  CHARGE =  7.0
  S    3    (CENTRE  3)   2.06751345  3.55793477  0.29390721  CHARGE = 16.0
  S    4    (CENTRE  4)  -3.44856876  2.24531967  0.29392422  CHARGE = 16.0
  S    5    (CENTRE  5)  -2.06751345 -3.55793477  0.29360486  CHARGE = 16.0
  S    6    (CENTRE  6)   3.44856876 -2.24531778  0.29355762  CHARGE = 16.0
CENTRE ASSIGNMENTS    1  1  1  1  1  1  1  1  1  1  1  1  1  1  1  1  1  1  1  1
CENTRE ASSIGNMENTS    1  1  1  1  1  1  1  1  1  1  1  1  1  1  1  1  1  1  1  1
CENTRE ASSIGNMENTS    1  1  1  1  1  1  1  1  1  1  1  1  1  1  1  1  1  1  1  1
CENTRE ASSIGNMENTS    1  1  1  1  1  1  1  1  1  1  1  1  1  1  1  2  2  2  2  2
CENTRE ASSIGNMENTS    2  2  2  2  2  2  2  2  2  2  2  2  2  2  2  2  2  2  2  2
CENTRE ASSIGNMENTS    2  2  2  2  2  2  2  2  2  2  2  2  2  2  2  2  2  2  2  2
CENTRE ASSIGNMENTS    2  2  2  2  2  2  2  2  2  2  2  2  2  2  2  2  2  2  2  2
CENTRE ASSIGNMENTS    2  2  2  2  2  2  2  2  2  2  3  3  3  3  3  3  3  3  3  3
CENTRE ASSIGNMENTS    3  3  3  3  3  3  3  3  3  3  3  3  3  3  3  3  3  3  3  3
CENTRE ASSIGNMENTS    3  3  3  3  3  3  3  3  3  3  3  3  3  3  3  3  3  3  3  3
CENTRE ASSIGNMENTS    3  3  3  3  3  3  3  3  3  3  3  3  3  3  3  3  3  3  3  3
CENTRE ASSIGNMENTS    3  3  3  3  3  3  3  3  3  3  3  3  3  3  3  3  3  3  3  3
CENTRE ASSIGNMENTS    3  3  3  3  3  3  3  3  3  3  3  3  3  3  3  3  3  3  3  3
CENTRE ASSIGNMENTS    3  3  3  3  3  3  3  3  3  3  3  3  3  3  3  3  3  3  3  3
CENTRE ASSIGNMENTS    3  4  4  4  4  4  4  4  4  4  4  4  4  4  4  4  4  4  4  4
CENTRE ASSIGNMENTS    4  4  4  4  4  4  4  4  4  4  4  4  4  4  4  4  4  4  4  4
CENTRE ASSIGNMENTS    4  4  4  4  4  4  4  4  4  4  4  4  4  4  4  4  4  4  4  4
CENTRE ASSIGNMENTS    4  4  4  4  4  4  4  4  4  4  4  4  4  4  4  4  4  4  4  4
CENTRE ASSIGNMENTS    4  4  4  4  4  4  4  4  4  4  4  4  4  4  4  4  4  4  4  4
CENTRE ASSIGNMENTS    4  4  4  4  4  4  4  4  4  4  4  4  4  4  4  4  4  4  4  4
CENTRE ASSIGNMENTS    4  4  4  4  4  4  4  4  4  4  4  4  5  5  5  5  5  5  5  5
CENTRE ASSIGNMENTS    5  5  5  5  5  5  5  5  5  5  5  5  5  5  5  5  5  5  5  5
CENTRE ASSIGNMENTS    5  5  5  5  5  5  5  5  5  5  5  5  5  5  5  5  5  5  5  5
CENTRE ASSIGNMENTS    5  5  5  5  5  5  5  5  5  5  5  5  5  5  5  5  5  5  5  5
CENTRE ASSIGNMENTS    5  5  5  5  5  5  5  5  5  5  5  5  5  5  5  5  5  5  5  5
CENTRE ASSIGNMENTS    5  5  5  5  5  5  5  5  5  5  5  5  5  5  5  5  5  5  5  5
CENTRE ASSIGNMENTS    5  5  5  5  5  5  5  5  5  5  5  5  5  5  5  5  5  5  5  5
CENTRE ASSIGNMENTS    5  5  5  6  6  6  6  6  6  6  6  6  6  6  6  6  6  6  6  6
CENTRE ASSIGNMENTS    6  6  6  6  6  6  6  6  6  6  6  6  6  6  6  6  6  6  6  6
CENTRE ASSIGNMENTS    6  6  6  6  6  6  6  6  6  6  6  6  6  6  6  6  6  6  6  6
CENTRE ASSIGNMENTS    6  6  6  6  6  6  6  6  6  6  6  6  6  6  6  6  6  6  6  6
CENTRE ASSIGNMENTS    6  6  6  6  6  6  6  6  6  6  6  6  6  6  6  6  6  6  6  6
CENTRE ASSIGNMENTS    6  6  6  6  6  6  6  6  6  6  6  6  6  6  6  6  6  6  6  6
CENTRE ASSIGNMENTS    6  6  6  6  6  6  6  6  6  6  6  6  6  6
TYPE ASSIGNMENTS      1  1  1  1  1  1  1  1  1  1  1  1  1  1  1  1  1  1  1  2
TYPE ASSIGNMENTS      2  2  3  3  3  4  4  4  2  3  4  2  3  4  2  3  4  5  6  7
TYPE ASSIGNMENTS      8  9 10  5  6  7  8  9 10  5  6  7  8  9 10 11 12 13 17 14
TYPE ASSIGNMENTS     15 18 19 16 20 11 12 13 17 14 15 18 19 16 20  1  1  1  1  1
TYPE ASSIGNMENTS      1  1  1  1  1  1  1  1  1  1  1  1  1  1  2  2  2  3  3  3
TYPE ASSIGNMENTS      4  4  4  2  3  4  2  3  4  2  3  4  5  6  7  8  9 10  5  6
TYPE ASSIGNMENTS      7  8  9 10  5  6  7  8  9 10 11 12 13 17 14 15 18 19 16 20
TYPE ASSIGNMENTS     11 12 13 17 14 15 18 19 16 20  1  1  1  1  1  1  1  1  1  1
TYPE ASSIGNMENTS      1  1  1  1  1  1  1  1  1  1  1  1  1  1  1  1  1  1  1  1
TYPE ASSIGNMENTS      1  1  1  1  1  1  1  1  1  1  1  1  2  2  2  2  2  2  2  3
TYPE ASSIGNMENTS      3  3  3  3  3  3  4  4  4  4  4  4  4  2  2  2  2  2  2  2
TYPE ASSIGNMENTS      3  3  3  3  3  3  3  4  4  4  4  4  4  4  2  3  4  2  3  4
TYPE ASSIGNMENTS      2  3  4  5  6  7  8  9 10  5  6  7  8  9 10  5  6  7  8  9
TYPE ASSIGNMENTS     10 11 12 13 17 14 15 18 19 16 20 11 12 13 17 14 15 18 19 16
TYPE ASSIGNMENTS     20  1  1  1  1  1  1  1  1  1  1  1  1  1  1  1  1  1  1  1
TYPE ASSIGNMENTS      1  1  1  1  1  1  1  1  1  1  1  1  1  1  1  1  1  1  1  1
TYPE ASSIGNMENTS      1  1  1  2  2  2  2  2  2  2  3  3  3  3  3  3  3  4  4  4
TYPE ASSIGNMENTS      4  4  4  4  2  2  2  2  2  2  2  3  3  3  3  3  3  3  4  4
TYPE ASSIGNMENTS      4  4  4  4  4  2  3  4  2  3  4  2  3  4  5  6  7  8  9 10
TYPE ASSIGNMENTS      5  6  7  8  9 10  5  6  7  8  9 10 11 12 13 17 14 15 18 19
TYPE ASSIGNMENTS     16 20 11 12 13 17 14 15 18 19 16 20  1  1  1  1  1  1  1  1
TYPE ASSIGNMENTS      1  1  1  1  1  1  1  1  1  1  1  1  1  1  1  1  1  1  1  1
TYPE ASSIGNMENTS      1  1  1  1  1  1  1  1  1  1  1  1  1  1  2  2  2  2  2  2
TYPE ASSIGNMENTS      2  3  3  3  3  3  3  3  4  4  4  4  4  4  4  2  2  2  2  2
TYPE ASSIGNMENTS      2  2  3  3  3  3  3  3  3  4  4  4  4  4  4  4  2  3  4  2
TYPE ASSIGNMENTS      3  4  2  3  4  5  6  7  8  9 10  5  6  7  8  9 10  5  6  7
TYPE ASSIGNMENTS      8  9 10 11 12 13 17 14 15 18 19 16 20 11 12 13 17 14 15 18
TYPE ASSIGNMENTS     19 16 20  1  1  1  1  1  1  1  1  1  1  1  1  1  1  1  1  1
TYPE ASSIGNMENTS      1  1  1  1  1  1  1  1  1  1  1  1  1  1  1  1  1  1  1  1
TYPE ASSIGNMENTS      1  1  1  1  1  2  2  2  2  2  2  2  3  3  3  3  3  3  3  4
TYPE ASSIGNMENTS      4  4  4  4  4  4  2  2  2  2  2  2  2  3  3  3  3  3  3  3
TYPE ASSIGNMENTS      4  4  4  4  4  4  4  2  3  4  2  3  4  2  3  4  5  6  7  8
TYPE ASSIGNMENTS      9 10  5  6  7  8  9 10  5  6  7  8  9 10 11 12 13 17 14 15
TYPE ASSIGNMENTS     18 19 16 20 11 12 13 17 14 15 18 19 16 20
EXPONENTS  0.1142000D+05 0.1712000D+04 0.3893000D+03 0.1100000D+03 0.3557000D+02
EXPONENTS  0.1254000D+02 0.4644000D+01 0.5118000D+00 0.1142000D+05 0.1712000D+04
EXPONENTS  0.3893000D+03 0.1100000D+03 0.3557000D+02 0.1254000D+02 0.4644000D+01
EXPONENTS  0.5118000D+00 0.1293000D+01 0.1787000D+00 0.5760000D-01 0.2663000D+02
EXPONENTS  0.5948000D+01 0.1742000D+01 0.2663000D+02 0.5948000D+01 0.1742000D+01
EXPONENTS  0.2663000D+02 0.5948000D+01 0.1742000D+01 0.5550000D+00 0.5550000D+00
EXPONENTS  0.5550000D+00 0.1725000D+00 0.1725000D+00 0.1725000D+00 0.4910000D-01
EXPONENTS  0.4910000D-01 0.4910000D-01 0.1654000D+01 0.1654000D+01 0.1654000D+01
EXPONENTS  0.1654000D+01 0.1654000D+01 0.1654000D+01 0.4690000D+00 0.4690000D+00
EXPONENTS  0.4690000D+00 0.4690000D+00 0.4690000D+00 0.4690000D+00 0.1510000D+00
EXPONENTS  0.1510000D+00 0.1510000D+00 0.1510000D+00 0.1510000D+00 0.1510000D+00
EXPONENTS  0.1093000D+01 0.1093000D+01 0.1093000D+01 0.1093000D+01 0.1093000D+01
EXPONENTS  0.1093000D+01 0.1093000D+01 0.1093000D+01 0.1093000D+01 0.1093000D+01
EXPONENTS  0.3640000D+00 0.3640000D+00 0.3640000D+00 0.3640000D+00 0.3640000D+00
EXPONENTS  0.3640000D+00 0.3640000D+00 0.3640000D+00 0.3640000D+00 0.3640000D+00
EXPONENTS  0.1142000D+05 0.1712000D+04 0.3893000D+03 0.1100000D+03 0.3557000D+02
EXPONENTS  0.1254000D+02 0.4644000D+01 0.5118000D+00 0.1142000D+05 0.1712000D+04
EXPONENTS  0.3893000D+03 0.1100000D+03 0.3557000D+02 0.1254000D+02 0.4644000D+01
EXPONENTS  0.5118000D+00 0.1293000D+01 0.1787000D+00 0.5760000D-01 0.2663000D+02
EXPONENTS  0.5948000D+01 0.1742000D+01 0.2663000D+02 0.5948000D+01 0.1742000D+01
EXPONENTS  0.2663000D+02 0.5948000D+01 0.1742000D+01 0.5550000D+00 0.5550000D+00
EXPONENTS  0.5550000D+00 0.1725000D+00 0.1725000D+00 0.1725000D+00 0.4910000D-01
EXPONENTS  0.4910000D-01 0.4910000D-01 0.1654000D+01 0.1654000D+01 0.1654000D+01
EXPONENTS  0.1654000D+01 0.1654000D+01 0.1654000D+01 0.4690000D+00 0.4690000D+00
EXPONENTS  0.4690000D+00 0.4690000D+00 0.4690000D+00 0.4690000D+00 0.1510000D+00
EXPONENTS  0.1510000D+00 0.1510000D+00 0.1510000D+00 0.1510000D+00 0.1510000D+00
EXPONENTS  0.1093000D+01 0.1093000D+01 0.1093000D+01 0.1093000D+01 0.1093000D+01
EXPONENTS  0.1093000D+01 0.1093000D+01 0.1093000D+01 0.1093000D+01 0.1093000D+01
EXPONENTS  0.3640000D+00 0.3640000D+00 0.3640000D+00 0.3640000D+00 0.3640000D+00
EXPONENTS  0.3640000D+00 0.3640000D+00 0.3640000D+00 0.3640000D+00 0.3640000D+00
EXPONENTS  0.3741000D+06 0.5605000D+05 0.1276000D+05 0.3615000D+04 0.1183000D+04
EXPONENTS  0.4288000D+03 0.1678000D+03 0.6947000D+02 0.2984000D+02 0.1272000D+02
EXPONENTS  0.5244000D+01 0.2219000D+01 0.3490000D+00 0.3741000D+06 0.5605000D+05
EXPONENTS  0.1276000D+05 0.3615000D+04 0.1183000D+04 0.4288000D+03 0.1678000D+03
EXPONENTS  0.6947000D+02 0.2984000D+02 0.1272000D+02 0.5244000D+01 0.2219000D+01
EXPONENTS  0.3490000D+00 0.3741000D+06 0.5605000D+05 0.1276000D+05 0.3615000D+04
EXPONENTS  0.1183000D+04 0.4288000D+03 0.1678000D+03 0.6947000D+02 0.2984000D+02
EXPONENTS  0.1272000D+02 0.5244000D+01 0.2219000D+01 0.3490000D+00 0.7767000D+00
EXPONENTS  0.1322000D+00 0.4970000D-01 0.5744000D+03 0.1358000D+03 0.4319000D+02
EXPONENTS  0.1587000D+02 0.6208000D+01 0.2483000D+01 0.3229000D+00 0.5744000D+03
EXPONENTS  0.1358000D+03 0.4319000D+02 0.1587000D+02 0.6208000D+01 0.2483000D+01
EXPONENTS  0.3229000D+00 0.5744000D+03 0.1358000D+03 0.4319000D+02 0.1587000D+02
EXPONENTS  0.6208000D+01 0.2483000D+01 0.3229000D+00 0.5744000D+03 0.1358000D+03
EXPONENTS  0.4319000D+02 0.1587000D+02 0.6208000D+01 0.2483000D+01 0.3229000D+00
EXPONENTS  0.5744000D+03 0.1358000D+03 0.4319000D+02 0.1587000D+02 0.6208000D+01
EXPONENTS  0.2483000D+01 0.3229000D+00 0.5744000D+03 0.1358000D+03 0.4319000D+02
EXPONENTS  0.1587000D+02 0.6208000D+01 0.2483000D+01 0.3229000D+00 0.8688000D+00
EXPONENTS  0.8688000D+00 0.8688000D+00 0.1098000D+00 0.1098000D+00 0.1098000D+00
EXPONENTS  0.3510000D-01 0.3510000D-01 0.3510000D-01 0.2690000D+00 0.2690000D+00
EXPONENTS  0.2690000D+00 0.2690000D+00 0.2690000D+00 0.2690000D+00 0.8190000D+00
EXPONENTS  0.8190000D+00 0.8190000D+00 0.8190000D+00 0.8190000D+00 0.8190000D+00
EXPONENTS  0.1010000D+00 0.1010000D+00 0.1010000D+00 0.1010000D+00 0.1010000D+00
EXPONENTS  0.1010000D+00 0.5570000D+00 0.5570000D+00 0.5570000D+00 0.5570000D+00
EXPONENTS  0.5570000D+00 0.5570000D+00 0.5570000D+00 0.5570000D+00 0.5570000D+00
EXPONENTS  0.5570000D+00 0.2180000D+00 0.2180000D+00 0.2180000D+00 0.2180000D+00
EXPONENTS  0.2180000D+00 0.2180000D+00 0.2180000D+00 0.2180000D+00 0.2180000D+00
EXPONENTS  0.2180000D+00 0.3741000D+06 0.5605000D+05 0.1276000D+05 0.3615000D+04
EXPONENTS  0.1183000D+04 0.4288000D+03 0.1678000D+03 0.6947000D+02 0.2984000D+02
EXPONENTS  0.1272000D+02 0.5244000D+01 0.2219000D+01 0.3490000D+00 0.3741000D+06
EXPONENTS  0.5605000D+05 0.1276000D+05 0.3615000D+04 0.1183000D+04 0.4288000D+03
EXPONENTS  0.1678000D+03 0.6947000D+02 0.2984000D+02 0.1272000D+02 0.5244000D+01
EXPONENTS  0.2219000D+01 0.3490000D+00 0.3741000D+06 0.5605000D+05 0.1276000D+05
EXPONENTS  0.3615000D+04 0.1183000D+04 0.4288000D+03 0.1678000D+03 0.6947000D+02
EXPONENTS  0.2984000D+02 0.1272000D+02 0.5244000D+01 0.2219000D+01 0.3490000D+00
EXPONENTS  0.7767000D+00 0.1322000D+00 0.4970000D-01 0.5744000D+03 0.1358000D+03
EXPONENTS  0.4319000D+02 0.1587000D+02 0.6208000D+01 0.2483000D+01 0.3229000D+00
EXPONENTS  0.5744000D+03 0.1358000D+03 0.4319000D+02 0.1587000D+02 0.6208000D+01
EXPONENTS  0.2483000D+01 0.3229000D+00 0.5744000D+03 0.1358000D+03 0.4319000D+02
EXPONENTS  0.1587000D+02 0.6208000D+01 0.2483000D+01 0.3229000D+00 0.5744000D+03
EXPONENTS  0.1358000D+03 0.4319000D+02 0.1587000D+02 0.6208000D+01 0.2483000D+01
EXPONENTS  0.3229000D+00 0.5744000D+03 0.1358000D+03 0.4319000D+02 0.1587000D+02
EXPONENTS  0.6208000D+01 0.2483000D+01 0.3229000D+00 0.5744000D+03 0.1358000D+03
EXPONENTS  0.4319000D+02 0.1587000D+02 0.6208000D+01 0.2483000D+01 0.3229000D+00
EXPONENTS  0.8688000D+00 0.8688000D+00 0.8688000D+00 0.1098000D+00 0.1098000D+00
EXPONENTS  0.1098000D+00 0.3510000D-01 0.3510000D-01 0.3510000D-01 0.2690000D+00
EXPONENTS  0.2690000D+00 0.2690000D+00 0.2690000D+00 0.2690000D+00 0.2690000D+00
EXPONENTS  0.8190000D+00 0.8190000D+00 0.8190000D+00 0.8190000D+00 0.8190000D+00
EXPONENTS  0.8190000D+00 0.1010000D+00 0.1010000D+00 0.1010000D+00 0.1010000D+00
EXPONENTS  0.1010000D+00 0.1010000D+00 0.5570000D+00 0.5570000D+00 0.5570000D+00
EXPONENTS  0.5570000D+00 0.5570000D+00 0.5570000D+00 0.5570000D+00 0.5570000D+00
EXPONENTS  0.5570000D+00 0.5570000D+00 0.2180000D+00 0.2180000D+00 0.2180000D+00
EXPONENTS  0.2180000D+00 0.2180000D+00 0.2180000D+00 0.2180000D+00 0.2180000D+00
EXPONENTS  0.2180000D+00 0.2180000D+00 0.3741000D+06 0.5605000D+05 0.1276000D+05
EXPONENTS  0.3615000D+04 0.1183000D+04 0.4288000D+03 0.1678000D+03 0.6947000D+02
EXPONENTS  0.2984000D+02 0.1272000D+02 0.5244000D+01 0.2219000D+01 0.3490000D+00
EXPONENTS  0.3741000D+06 0.5605000D+05 0.1276000D+05 0.3615000D+04 0.1183000D+04
EXPONENTS  0.4288000D+03 0.1678000D+03 0.6947000D+02 0.2984000D+02 0.1272000D+02
EXPONENTS  0.5244000D+01 0.2219000D+01 0.3490000D+00 0.3741000D+06 0.5605000D+05
EXPONENTS  0.1276000D+05 0.3615000D+04 0.1183000D+04 0.4288000D+03 0.1678000D+03
EXPONENTS  0.6947000D+02 0.2984000D+02 0.1272000D+02 0.5244000D+01 0.2219000D+01
EXPONENTS  0.3490000D+00 0.7767000D+00 0.1322000D+00 0.4970000D-01 0.5744000D+03
EXPONENTS  0.1358000D+03 0.4319000D+02 0.1587000D+02 0.6208000D+01 0.2483000D+01
EXPONENTS  0.3229000D+00 0.5744000D+03 0.1358000D+03 0.4319000D+02 0.1587000D+02
EXPONENTS  0.6208000D+01 0.2483000D+01 0.3229000D+00 0.5744000D+03 0.1358000D+03
EXPONENTS  0.4319000D+02 0.1587000D+02 0.6208000D+01 0.2483000D+01 0.3229000D+00
EXPONENTS  0.5744000D+03 0.1358000D+03 0.4319000D+02 0.1587000D+02 0.6208000D+01
EXPONENTS  0.2483000D+01 0.3229000D+00 0.5744000D+03 0.1358000D+03 0.4319000D+02
EXPONENTS  0.1587000D+02 0.6208000D+01 0.2483000D+01 0.3229000D+00 0.5744000D+03
EXPONENTS  0.1358000D+03 0.4319000D+02 0.1587000D+02 0.6208000D+01 0.2483000D+01
EXPONENTS  0.3229000D+00 0.8688000D+00 0.8688000D+00 0.8688000D+00 0.1098000D+00
EXPONENTS  0.1098000D+00 0.1098000D+00 0.3510000D-01 0.3510000D-01 0.3510000D-01
EXPONENTS  0.2690000D+00 0.2690000D+00 0.2690000D+00 0.2690000D+00 0.2690000D+00
EXPONENTS  0.2690000D+00 0.8190000D+00 0.8190000D+00 0.8190000D+00 0.8190000D+00
EXPONENTS  0.8190000D+00 0.8190000D+00 0.1010000D+00 0.1010000D+00 0.1010000D+00
EXPONENTS  0.1010000D+00 0.1010000D+00 0.1010000D+00 0.5570000D+00 0.5570000D+00
EXPONENTS  0.5570000D+00 0.5570000D+00 0.5570000D+00 0.5570000D+00 0.5570000D+00
EXPONENTS  0.5570000D+00 0.5570000D+00 0.5570000D+00 0.2180000D+00 0.2180000D+00
EXPONENTS  0.2180000D+00 0.2180000D+00 0.2180000D+00 0.2180000D+00 0.2180000D+00
EXPONENTS  0.2180000D+00 0.2180000D+00 0.2180000D+00 0.3741000D+06 0.5605000D+05
EXPONENTS  0.1276000D+05 0.3615000D+04 0.1183000D+04 0.4288000D+03 0.1678000D+03
EXPONENTS  0.6947000D+02 0.2984000D+02 0.1272000D+02 0.5244000D+01 0.2219000D+01
EXPONENTS  0.3490000D+00 0.3741000D+06 0.5605000D+05 0.1276000D+05 0.3615000D+04
EXPONENTS  0.1183000D+04 0.4288000D+03 0.1678000D+03 0.6947000D+02 0.2984000D+02
EXPONENTS  0.1272000D+02 0.5244000D+01 0.2219000D+01 0.3490000D+00 0.3741000D+06
EXPONENTS  0.5605000D+05 0.1276000D+05 0.3615000D+04 0.1183000D+04 0.4288000D+03
EXPONENTS  0.1678000D+03 0.6947000D+02 0.2984000D+02 0.1272000D+02 0.5244000D+01
EXPONENTS  0.2219000D+01 0.3490000D+00 0.7767000D+00 0.1322000D+00 0.4970000D-01
EXPONENTS  0.5744000D+03 0.1358000D+03 0.4319000D+02 0.1587000D+02 0.6208000D+01
EXPONENTS  0.2483000D+01 0.3229000D+00 0.5744000D+03 0.1358000D+03 0.4319000D+02
EXPONENTS  0.1587000D+02 0.6208000D+01 0.2483000D+01 0.3229000D+00 0.5744000D+03
EXPONENTS  0.1358000D+03 0.4319000D+02 0.1587000D+02 0.6208000D+01 0.2483000D+01
EXPONENTS  0.3229000D+00 0.5744000D+03 0.1358000D+03 0.4319000D+02 0.1587000D+02
EXPONENTS  0.6208000D+01 0.2483000D+01 0.3229000D+00 0.5744000D+03 0.1358000D+03
EXPONENTS  0.4319000D+02 0.1587000D+02 0.6208000D+01 0.2483000D+01 0.3229000D+00
EXPONENTS  0.5744000D+03 0.1358000D+03 0.4319000D+02 0.1587000D+02 0.6208000D+01
EXPONENTS  0.2483000D+01 0.3229000D+00 0.8688000D+00 0.8688000D+00 0.8688000D+00
EXPONENTS  0.1098000D+00 0.1098000D+00 0.1098000D+00 0.3510000D-01 0.3510000D-01
EXPONENTS  0.3510000D-01 0.2690000D+00 0.2690000D+00 0.2690000D+00 0.2690000D+00
EXPONENTS  0.2690000D+00 0.2690000D+00 0.8190000D+00 0.8190000D+00 0.8190000D+00
EXPONENTS  0.8190000D+00 0.8190000D+00 0.8190000D+00 0.1010000D+00 0.1010000D+00
EXPONENTS  0.1010000D+00 0.1010000D+00 0.1010000D+00 0.1010000D+00 0.5570000D+00
EXPONENTS  0.5570000D+00 0.5570000D+00 0.5570000D+00 0.5570000D+00 0.5570000D+00
EXPONENTS  0.5570000D+00 0.5570000D+00 0.5570000D+00 0.5570000D+00 0.2180000D+00
EXPONENTS  0.2180000D+00 0.2180000D+00 0.2180000D+00 0.2180000D+00 0.2180000D+00
EXPONENTS  0.2180000D+00 0.2180000D+00 0.2180000D+00 0.2180000D+00
MO    1     MO 0.0        OCC NO =    2.0000000  ORB. ENERGY =  -88.626693
  0.20515699D-03  0.38227983D-03  0.64653104D-03  0.97363991D-03  0.12054294D-02
  0.10257660D-02  0.39032288D-03 -0.18280486D-05 -0.14725925D-03 -0.27611247D-03
 -0.46974946D-03 -0.72947132D-03 -0.96805087D-03 -0.10201927D-02 -0.63258458D-03
  0.42079550D-03  0.22750179D-03 -0.52976709D-03 -0.45029037D-03  0.24056253D-04
  0.23105743D-04  0.16203342D-04  0.42478612D-04  0.40800199D-04  0.28611916D-04
  0.28385889D-06  0.27264307D-06  0.19119614D-06 -0.31769297D-04  0.11114551D-03
 -0.18599881D-06  0.67402940D-04 -0.85755864D-03 -0.81767377D-07 -0.29745236D-04
  0.55708699D-04 -0.50765999D-08  0.39668200D-03 -0.71210871D-04 -0.32547113D-03
  0.27527010D-03 -0.57289134D-07  0.33360762D-06 -0.41713225D-03  0.10884426D-03
  0.30828799D-03 -0.31118789D-03  0.23887579D-07 -0.23918152D-06 -0.31528839D-03
  0.22352493D-03  0.91763461D-04 -0.29348999D-03  0.80554903D-08 -0.10535766D-06
 -0.20814515D-04 -0.13665647D-04  0.69914374D-07  0.61231558D-04  0.11850150D-03
 -0.28461106D-07  0.12119865D-05 -0.77504563D-04 -0.18128202D-06  0.71491794D-07
  0.78784618D-04  0.74922401D-04  0.39476399D-07 -0.23459702D-03 -0.35550525D-03
 -0.17672540D-06 -0.17568383D-05  0.13073805D-03  0.58296199D-07 -0.12827834D-06
 -0.15693609D-03 -0.29242729D-03 -0.49456786D-03 -0.74479179D-03 -0.92210056D-03
 -0.78466596D-03 -0.29857987D-03  0.13983769D-05  0.11250795D-03  0.21095346D-03
  0.35889461D-03  0.55732543D-03  0.73960326D-03  0.77944031D-03  0.48330272D-03
 -0.32149315D-03 -0.16462012D-03  0.30035821D-03  0.43869705D-03  0.47778296D-05
  0.45890482D-05  0.32181574D-05 -0.14332600D-04 -0.13766291D-04 -0.96538734D-05
  0.77580465D-07  0.74515109D-07  0.52255138D-07 -0.39198501D-04  0.14112990D-03
 -0.77330961D-07  0.20763445D-03 -0.79756554D-03  0.12975105D-06 -0.20507065D-05
  0.55148954D-04 -0.19363125D-07 -0.29878903D-03  0.62612621D-04  0.23617641D-03
 -0.16513089D-03 -0.24875596D-07  0.13944127D-06  0.30360388D-03 -0.84512866D-04
 -0.21909102D-03  0.18628023D-03  0.63376754D-08 -0.58699402D-07  0.27683752D-03
 -0.20063251D-03 -0.76205013D-04  0.24375112D-03 -0.16524797D-07  0.86294967D-07
 -0.36351799D-04 -0.27554001D-04  0.71022835D-07  0.93528395D-04  0.11715915D-03
 -0.13239774D-06  0.15527001D-04 -0.34497150D-04 -0.80670763D-07 -0.37734710D-07
  0.82882800D-04  0.62865951D-04 -0.25812546D-07 -0.22107400D-03 -0.28401509D-03
  0.71179334D-07 -0.27574401D-04  0.95417237D-04  0.62583033D-08  0.42361382D-07
  0.36179157D+00  0.67634832D+00  0.11689411D+01  0.18907097D+01  0.28576970D+01
  0.39355177D+01  0.45997078D+01  0.39744945D+01  0.18537184D+01  0.25169491D+00
  0.67397696D-03  0.13220642D-02  0.60357753D-04 -0.10625254D-02 -0.19843115D-02
 -0.34420954D-02 -0.55812386D-02 -0.85929522D-02 -0.12238294D-01 -0.15736858D-01
 -0.16519018D-01 -0.11680116D-01  0.25866106D-03  0.83923143D-02  0.46210360D-02
 -0.19542283D-04  0.46667360D-03  0.87088197D-03  0.15126177D-02  0.24501051D-02
  0.37846954D-02  0.53956519D-02  0.70179807D-02  0.74792756D-02  0.55472232D-02
 -0.17266446D-03 -0.50254952D-02 -0.49232508D-02  0.22994501D-02 -0.21719571D-02
  0.44799518D-03 -0.94864019D-05 -0.13023248D-01 -0.17085792D-01 -0.18740510D-01
 -0.15419988D-01 -0.81297228D-02 -0.21149696D-02  0.23404295D-05 -0.77835909D-02
 -0.10211647D-01 -0.11200621D-01 -0.92160483D-02 -0.48588829D-02 -0.12640517D-02
  0.13988021D-05 -0.79951129D-05 -0.10489153D-04 -0.11505002D-04 -0.94664978D-05
 -0.49909249D-05 -0.12984028D-05  0.14368150D-08  0.11659453D-01  0.15308932D-01
  0.17223581D-01  0.14512169D-01  0.81179040D-02  0.20205298D-02 -0.92671231D-03
  0.69137377D-02  0.90777796D-02  0.10213114D-01  0.86053209D-02  0.48136958D-02
  0.11981191D-02 -0.54951515D-03  0.69318980D-05  0.91016243D-05  0.10239941D-04
  0.86279245D-05  0.48263400D-05  0.12012662D-05 -0.55095856D-06  0.24023828D-03
  0.17774673D-03  0.33449635D-06  0.38579306D-04 -0.16806666D-04 -0.71555356D-07
  0.39752516D-05 -0.88989201D-06  0.52003972D-09  0.57294910D-04 -0.71112714D-04
  0.13817805D-04  0.92452807D-04  0.16971296D-06  0.82244299D-07  0.29420231D-03
 -0.28963199D-04 -0.26523911D-03  0.40867994D-03  0.30899404D-06  0.54348231D-07
 -0.16644193D-04 -0.21259988D-05  0.18770192D-04 -0.70249482D-05 -0.20939901D-07
  0.19185690D-07 -0.51909637D-04  0.37823389D-04  0.56436299D-07  0.64554197D-04
 -0.15997607D-03 -0.28866246D-06  0.91174713D-04  0.46505901D-04  0.11935356D-06
 -0.75599461D-07  0.66913043D-05  0.11446200D-04 -0.13973295D-07  0.87352783D-05
  0.54257138D-06  0.41762197D-07 -0.28809191D-04 -0.34881171D-04  0.15768873D-09
 -0.10768633D-07  0.30257116D+00  0.56563921D+00  0.97760115D+00  0.15812260D+01
  0.23899305D+01  0.32913265D+01  0.38467976D+01  0.33239233D+01  0.15502897D+01
  0.21049585D+00  0.56365601D-03  0.11056601D-02  0.50478001D-04 -0.91041772D-03
 -0.17002439D-02 -0.29493361D-02 -0.47822465D-02 -0.73628128D-02 -0.10486299D-01
 -0.13484020D-01 -0.14154208D-01 -0.10008028D-01  0.22163198D-03  0.71908976D-02
  0.39595034D-02 -0.16744673D-04  0.40215664D-03  0.75048379D-03  0.13035005D-02
  0.21113816D-02  0.32614667D-02  0.46497108D-02  0.60477549D-02  0.64452765D-02
  0.47803275D-02 -0.14879385D-03 -0.43307277D-02 -0.42426184D-02  0.19815544D-02
 -0.18351391D-02  0.35168259D-03 -0.68679395D-04  0.12537304D-01  0.16448260D-01
  0.18041234D-01  0.14844613D-01  0.78263736D-02  0.20360525D-02 -0.22530997D-05
 -0.70944621D-03 -0.93075480D-03 -0.10208961D-02 -0.84000953D-03 -0.44286964D-03
 -0.11521375D-03  0.12749576D-06 -0.72006987D-05 -0.94469246D-05 -0.10361836D-04
 -0.85258832D-05 -0.44950142D-05 -0.11693902D-05  0.12940495D-08 -0.11221286D-01
 -0.14733617D-01 -0.16576313D-01 -0.13966797D-01 -0.78128302D-02 -0.19445975D-02
  0.89188613D-03  0.57615385D-03  0.75649351D-03  0.85110621D-03  0.71712133D-03
  0.40114762D-03  0.99844825D-04 -0.45793648D-04  0.62143408D-05  0.81594673D-05
  0.91799509D-05  0.77348027D-05  0.43267402D-05  0.10769168D-05 -0.49392595D-06
 -0.23378933D-03  0.47333954D-04  0.32723526D-06 -0.47773714D-04 -0.41028352D-04
 -0.61380412D-07 -0.47452051D-05 -0.24448582D-05  0.25999084D-08  0.53493606D-04
 -0.74515406D-04  0.21021799D-04  0.60979947D-04 -0.16058661D-06 -0.70884303D-08
  0.33992436D-03 -0.10840809D-03 -0.23151627D-03  0.54235247D-04 -0.23133420D-06
 -0.12065744D-06 -0.15305957D-04 -0.14183024D-05  0.16724259D-04 -0.97762730D-05
  0.10078017D-07  0.28908061D-07  0.66936358D-04 -0.22464419D-04  0.43577243D-07
 -0.12966870D-03  0.74065851D-04 -0.19935251D-06 -0.71140374D-04 -0.66725947D-05
  0.68620787D-07 -0.33450257D-06 -0.45677175D-05  0.36472926D-05 -0.13206597D-07
 -0.20761468D-04  0.63819346D-05  0.27351978D-07  0.34464620D-04 -0.17323812D-04
  0.12267812D-07  0.43799841D-07 -0.24567629D+00 -0.45927755D+00 -0.79377500D+00
 -0.12838955D+01 -0.19405328D+01 -0.26724321D+01 -0.31234535D+01 -0.26988995D+01
 -0.12587763D+01 -0.17091463D+00 -0.45766727D-03 -0.89775400D-03 -0.40986220D-04
  0.77154626D-03  0.14408955D-02  0.24994562D-02  0.40527818D-02  0.62397190D-02
  0.88867614D-02  0.11427222D-01  0.11995182D-01  0.84814439D-02 -0.18782513D-03
 -0.60940270D-02 -0.33555367D-02  0.14190508D-04 -0.34439466D-03 -0.64269139D-03
 -0.11162780D-02 -0.18081227D-02 -0.27930204D-02 -0.39818703D-02 -0.51791125D-02
 -0.55195379D-02 -0.40937264D-02  0.12742250D-03  0.37087029D-02  0.36332488D-02
 -0.16969427D-02  0.15027002D-02 -0.35780309D-03  0.50099404D-04 -0.94616059D-02
 -0.12413112D-01 -0.13615292D-01 -0.11202878D-01 -0.59063787D-02 -0.15365606D-02
  0.17003609D-05 -0.52573274D-02 -0.68973273D-02 -0.75653167D-02 -0.62248625D-02
 -0.32818706D-02 -0.85378762D-03  0.94480304D-06 -0.20070050D-05 -0.26330813D-05
 -0.28880889D-05 -0.23763653D-05 -0.12528668D-05 -0.32593672D-06  0.36068221D-09
  0.84938149D-02  0.11152431D-01  0.12547236D-01  0.10571995D-01  0.59138260D-02
  0.14719392D-02 -0.67510226D-03  0.46895325D-02  0.61573848D-02  0.69274730D-02
  0.58369198D-02  0.32650911D-02  0.81267453D-03 -0.37273170D-03  0.17443084D-05
  0.22902876D-05  0.25767280D-05  0.21710881D-05  0.12144763D-05  0.30228067D-06
 -0.13864048D-06  0.16025240D-03  0.10018231D-03  0.10012497D-06  0.33250791D-04
 -0.48265493D-05  0.10127734D-07  0.42331984D-05  0.11968123D-06  0.24920489D-08
 -0.49441762D-04  0.73631282D-04 -0.24189520D-04 -0.44367445D-04 -0.43852356D-07
 -0.53811405D-07 -0.21502592D-03  0.13589467D-04  0.20143645D-03 -0.26793980D-03
 -0.80923023D-07 -0.10002227D-08  0.11877779D-04  0.29984033D-05 -0.14876182D-04
  0.33094447D-05  0.83252394D-08 -0.36218242D-08 -0.43461033D-04  0.26282426D-04
  0.23518387D-07  0.82741699D-04 -0.98716013D-04 -0.76365428D-07  0.47641401D-04
  0.19868734D-04  0.58102662D-08 -0.38107322D-07  0.40166726D-05  0.11879737D-04
 -0.25442622D-08  0.85684658D-05 -0.59563360D-05  0.14165320D-07 -0.20618484D-04
 -0.29682876D-04 -0.65325332D-08 -0.19119739D-07 -0.24487320D+00 -0.45777621D+00
 -0.79118022D+00 -0.12796985D+01 -0.19341893D+01 -0.26636961D+01 -0.31132432D+01
 -0.26900770D+01 -0.12546615D+01 -0.17035593D+00 -0.45617120D-03 -0.89481931D-03
 -0.40852239D-04  0.77851565D-03  0.14539111D-02  0.25220338D-02  0.40893907D-02
  0.62960825D-02  0.89670357D-02  0.11530444D-01  0.12103535D-01  0.85580569D-02
 -0.18952175D-03 -0.61490745D-02 -0.33858473D-02  0.14318691D-04 -0.34850361D-03
 -0.65035930D-03 -0.11295963D-02 -0.18296953D-02 -0.28263438D-02 -0.40293777D-02
 -0.52409042D-02 -0.55853912D-02 -0.41425685D-02  0.12894277D-03  0.37529512D-02
  0.36765969D-02 -0.17171888D-02  0.15057363D-02 -0.37655989D-03  0.18535639D-04
  0.11051774D-01  0.14499326D-01  0.15903550D-01  0.13085693D-01  0.68990363D-02
  0.17948032D-02 -0.19861327D-05 -0.71928045D-03 -0.94365678D-03 -0.10350477D-02
 -0.85165361D-03 -0.44900863D-03 -0.11681082D-03  0.12926308D-06 -0.23572133D-05
 -0.30925355D-05 -0.33920400D-05 -0.27910243D-05 -0.14714832D-05 -0.38281038D-06
  0.42361871D-09 -0.99213612D-02 -0.13026808D-01 -0.14656037D-01 -0.12348819D-01
 -0.69077563D-02 -0.17193265D-02  0.78856597D-03  0.61397083D-03  0.80614744D-03
  0.90697022D-03  0.76419099D-03  0.42747772D-03  0.10639834D-03 -0.48799403D-04
  0.20510610D-05  0.26930556D-05  0.30298691D-05  0.25528938D-05  0.14280530D-05
  0.35543949D-06 -0.16302168D-06 -0.18472363D-03  0.30749878D-04  0.11420243D-06
 -0.24308116D-04 -0.16911994D-04 -0.18943675D-08 -0.30662370D-05 -0.15440908D-05
  0.19827924D-08 -0.44102664D-04  0.66754381D-04 -0.22651717D-04 -0.66542740D-04
  0.76736072D-07 -0.28509030D-07 -0.28076423D-03  0.74994425D-04  0.20576980D-03
 -0.16517157D-04  0.77162304D-07  0.34042695D-07  0.11621369D-04  0.43553513D-05
 -0.15976721D-04  0.47142782D-05 -0.34605303D-08 -0.81564413D-08  0.49065338D-04
 -0.25963534D-04  0.24999349D-07 -0.92877776D-04  0.77337940D-04 -0.79235056D-07
 -0.54318237D-04  0.55266286D-06  0.42370087D-08 -0.43312456D-07 -0.34658059D-05
  0.46934697D-05 -0.26831150D-08 -0.22507684D-04  0.47858799D-05  0.10176276D-08
  0.32905102D-04 -0.18866289D-04  0.70317175D-08  0.28544825D-07
MO    2     MO 0.0        OCC NO =    2.0000000  ORB. ENERGY =  -88.626685
 -0.90952487D-06 -0.16947657D-05 -0.28662736D-05 -0.43164492D-05 -0.53440442D-05
 -0.45475404D-05 -0.17304230D-05  0.81043092D-08  0.61096115D-06  0.11455579D-05
  0.19489348D-05  0.30264899D-05  0.40163281D-05  0.42326585D-05  0.26245183D-05
 -0.17458306D-05  0.18323205D-05 -0.29343580D-04  0.30451745D-04  0.38389604D-03
  0.36872756D-03  0.25857721D-03  0.10434778D-03  0.10022480D-03  0.70284545D-04
  0.12671612D-08  0.12170932D-08  0.85350977D-09 -0.20599917D-04 -0.23439636D-04
 -0.94075034D-09 -0.17132871D-02 -0.34986741D-03 -0.18332567D-07 -0.26292191D-03
 -0.65141636D-04  0.55018793D-09 -0.11799249D-03  0.12041063D-03 -0.24181407D-05
  0.47883379D-03  0.25551813D-06  0.50672465D-07  0.12057131D-03 -0.12425830D-03
  0.36869914D-05 -0.50343570D-03 -0.40399579D-06 -0.91824227D-07  0.60681384D-04
 -0.58459451D-04 -0.22219329D-05 -0.18522095D-03 -0.19065814D-06 -0.42500158D-07
  0.12594074D-03 -0.30364594D-04 -0.30042430D-08 -0.13159865D-03  0.15577830D-03
  0.36913026D-07 -0.24622358D-03 -0.64684517D-04 -0.27900297D-07 -0.12175994D-06
 -0.19651990D-03  0.59230751D-04  0.19613328D-08  0.21732898D-03 -0.26519006D-03
  0.18740904D-07  0.37223072D-03  0.87497805D-04 -0.24624902D-07 -0.10494276D-06
  0.26395193D-04  0.49183555D-04  0.83181722D-04  0.12526706D-03  0.15508875D-03
  0.13197353D-03  0.50218362D-04 -0.23519401D-06 -0.18977602D-04 -0.35583181D-04
 -0.60537578D-04 -0.94008466D-04 -0.12475470D-03 -0.13147433D-03 -0.81522473D-04
  0.54228780D-04  0.31400488D-04 -0.91933176D-04 -0.36574971D-04 -0.20447575D-03
 -0.19639651D-03 -0.13772679D-03 -0.63249768D-04 -0.60750646D-04 -0.42602546D-04
 -0.70747382D-08 -0.67952015D-08 -0.47652643D-08 -0.29715782D-04 -0.88429978D-05
  0.70721668D-08  0.10844640D-02  0.32999756D-03 -0.69638703D-08  0.23760627D-03
  0.50188799D-04  0.26012607D-09 -0.41576941D-04  0.86349217D-04 -0.44772276D-04