 Molden2AIM, Version 4.0.0 (06/02/2016)           Time: Sat Jun 30 05:09:56 2018
GAUSSIAN             33 MOL ORBITALS    618 PRIMITIVES        6 NUCLEI
  N    1    (CENTRE  1)  -1.94560911  4.01880874  0.00000000  CHARGE =  7.0
  P    2    (CENTRE  2)  -3.74099632  1.46428830  0.00000000  CHARGE = 15.0
  N    3    (CENTRE  3)  -2.05390364 -1.16297903  0.00000000  CHARGE =  7.0
  P    4    (CENTRE  4)   1.17319300  4.16626974  0.00000000  CHARGE = 15.0
  P    5    (CENTRE  5)   1.05604510 -1.44057602  0.00000000  CHARGE = 15.0
  N    6    (CENTRE  6)   2.48768838  1.33414097  0.00000000  CHARGE =  7.0
CENTRE ASSIGNMENTS    1  1  1  1  1  1  1  1  1  1  1  1  1  1  1  1  1  1  1  1
CENTRE ASSIGNMENTS    1  1  1  1  1  1  1  1  1  1  1  1  1  1  1  1  1  1  1  1
CENTRE ASSIGNMENTS    1  1  1  1  1  1  1  1  1  1  1  1  1  1  1  1  1  1  1  1
CENTRE ASSIGNMENTS    1  1  1  1  1  1  1  1  1  1  1  1  1  1  1  2  2  2  2  2
CENTRE ASSIGNMENTS    2  2  2  2  2  2  2  2  2  2  2  2  2  2  2  2  2  2  2  2
CENTRE ASSIGNMENTS    2  2  2  2  2  2  2  2  2  2  2  2  2  2  2  2  2  2  2  2
CENTRE ASSIGNMENTS    2  2  2  2  2  2  2  2  2  2  2  2  2  2  2  2  2  2  2  2
CENTRE ASSIGNMENTS    2  2  2  2  2  2  2  2  2  2  2  2  2  2  2  2  2  2  2  2
CENTRE ASSIGNMENTS    2  2  2  2  2  2  2  2  2  2  2  2  2  2  2  2  2  2  2  2
CENTRE ASSIGNMENTS    2  2  2  2  2  2  2  2  2  2  2  2  2  2  2  2  2  2  2  2
CENTRE ASSIGNMENTS    2  2  2  2  2  2  3  3  3  3  3  3  3  3  3  3  3  3  3  3
CENTRE ASSIGNMENTS    3  3  3  3  3  3  3  3  3  3  3  3  3  3  3  3  3  3  3  3
CENTRE ASSIGNMENTS    3  3  3  3  3  3  3  3  3  3  3  3  3  3  3  3  3  3  3  3
CENTRE ASSIGNMENTS    3  3  3  3  3  3  3  3  3  3  3  3  3  3  3  3  3  3  3  3
CENTRE ASSIGNMENTS    3  4  4  4  4  4  4  4  4  4  4  4  4  4  4  4  4  4  4  4
CENTRE ASSIGNMENTS    4  4  4  4  4  4  4  4  4  4  4  4  4  4  4  4  4  4  4  4
CENTRE ASSIGNMENTS    4  4  4  4  4  4  4  4  4  4  4  4  4  4  4  4  4  4  4  4
CENTRE ASSIGNMENTS    4  4  4  4  4  4  4  4  4  4  4  4  4  4  4  4  4  4  4  4
CENTRE ASSIGNMENTS    4  4  4  4  4  4  4  4  4  4  4  4  4  4  4  4  4  4  4  4
CENTRE ASSIGNMENTS    4  4  4  4  4  4  4  4  4  4  4  4  4  4  4  4  4  4  4  4
CENTRE ASSIGNMENTS    4  4  4  4  4  4  4  4  4  4  4  4  5  5  5  5  5  5  5  5
CENTRE ASSIGNMENTS    5  5  5  5  5  5  5  5  5  5  5  5  5  5  5  5  5  5  5  5
CENTRE ASSIGNMENTS    5  5  5  5  5  5  5  5  5  5  5  5  5  5  5  5  5  5  5  5
CENTRE ASSIGNMENTS    5  5  5  5  5  5  5  5  5  5  5  5  5  5  5  5  5  5  5  5
CENTRE ASSIGNMENTS    5  5  5  5  5  5  5  5  5  5  5  5  5  5  5  5  5  5  5  5
CENTRE ASSIGNMENTS    5  5  5  5  5  5  5  5  5  5  5  5  5  5  5  5  5  5  5  5
CENTRE ASSIGNMENTS    5  5  5  5  5  5  5  5  5  5  5  5  5  5  5  5  5  5  5  5
CENTRE ASSIGNMENTS    5  5  5  6  6  6  6  6  6  6  6  6  6  6  6  6  6  6  6  6
CENTRE ASSIGNMENTS    6  6  6  6  6  6  6  6  6  6  6  6  6  6  6  6  6  6  6  6
CENTRE ASSIGNMENTS    6  6  6  6  6  6  6  6  6  6  6  6  6  6  6  6  6  6  6  6
CENTRE ASSIGNMENTS    6  6  6  6  6  6  6  6  6  6  6  6  6  6  6  6  6  6
TYPE ASSIGNMENTS      1  1  1  1  1  1  1  1  1  1  1  1  1  1  1  1  1  1  1  2
TYPE ASSIGNMENTS      2  2  3  3  3  4  4  4  2  3  4  2  3  4  2  3  4  5  6  7
TYPE ASSIGNMENTS      8  9 10  5  6  7  8  9 10  5  6  7  8  9 10 11 12 13 17 14
TYPE ASSIGNMENTS     15 18 19 16 20 11 12 13 17 14 15 18 19 16 20  1  1  1  1  1
TYPE ASSIGNMENTS      1  1  1  1  1  1  1  1  1  1  1  1  1  1  1  1  1  1  1  1
TYPE ASSIGNMENTS      1  1  1  1  1  1  1  1  1  1  1  1  1  1  1  1  1  2  2  2
TYPE ASSIGNMENTS      2  2  2  2  3  3  3  3  3  3  3  4  4  4  4  4  4  4  2  2
TYPE ASSIGNMENTS      2  2  2  2  2  3  3  3  3  3  3  3  4  4  4  4  4  4  4  2
TYPE ASSIGNMENTS      3  4  2  3  4  2  3  4  5  6  7  8  9 10  5  6  7  8  9 10
TYPE ASSIGNMENTS      5  6  7  8  9 10 11 12 13 17 14 15 18 19 16 20 11 12 13 17
TYPE ASSIGNMENTS     14 15 18 19 16 20  1  1  1  1  1  1  1  1  1  1  1  1  1  1
TYPE ASSIGNMENTS      1  1  1  1  1  2  2  2  3  3  3  4  4  4  2  3  4  2  3  4
TYPE ASSIGNMENTS      2  3  4  5  6  7  8  9 10  5  6  7  8  9 10  5  6  7  8  9
TYPE ASSIGNMENTS     10 11 12 13 17 14 15 18 19 16 20 11 12 13 17 14 15 18 19 16
TYPE ASSIGNMENTS     20  1  1  1  1  1  1  1  1  1  1  1  1  1  1  1  1  1  1  1
TYPE ASSIGNMENTS      1  1  1  1  1  1  1  1  1  1  1  1  1  1  1  1  1  1  1  1
TYPE ASSIGNMENTS      1  1  1  2  2  2  2  2  2  2  3  3  3  3  3  3  3  4  4  4
TYPE ASSIGNMENTS      4  4  4  4  2  2  2  2  2  2  2  3  3  3  3  3  3  3  4  4
TYPE ASSIGNMENTS      4  4  4  4  4  2  3  4  2  3  4  2  3  4  5  6  7  8  9 10
TYPE ASSIGNMENTS      5  6  7  8  9 10  5  6  7  8  9 10 11 12 13 17 14 15 18 19
TYPE ASSIGNMENTS     16 20 11 12 13 17 14 15 18 19 16 20  1  1  1  1  1  1  1  1
TYPE ASSIGNMENTS      1  1  1  1  1  1  1  1  1  1  1  1  1  1  1  1  1  1  1  1
TYPE ASSIGNMENTS      1  1  1  1  1  1  1  1  1  1  1  1  1  1  2  2  2  2  2  2
TYPE ASSIGNMENTS      2  3  3  3  3  3  3  3  4  4  4  4  4  4  4  2  2  2  2  2
TYPE ASSIGNMENTS      2  2  3  3  3  3  3  3  3  4  4  4  4  4  4  4  2  3  4  2
TYPE ASSIGNMENTS      3  4  2  3  4  5  6  7  8  9 10  5  6  7  8  9 10  5  6  7
TYPE ASSIGNMENTS      8  9 10 11 12 13 17 14 15 18 19 16 20 11 12 13 17 14 15 18
TYPE ASSIGNMENTS     19 16 20  1  1  1  1  1  1  1  1  1  1  1  1  1  1  1  1  1
TYPE ASSIGNMENTS      1  1  2  2  2  3  3  3  4  4  4  2  3  4  2  3  4  2  3  4
TYPE ASSIGNMENTS      5  6  7  8  9 10  5  6  7  8  9 10  5  6  7  8  9 10 11 12
TYPE ASSIGNMENTS     13 17 14 15 18 19 16 20 11 12 13 17 14 15 18 19 16 20
EXPONENTS  0.1142000D+05 0.1712000D+04 0.3893000D+03 0.1100000D+03 0.3557000D+02
EXPONENTS  0.1254000D+02 0.4644000D+01 0.5118000D+00 0.1142000D+05 0.1712000D+04
EXPONENTS  0.3893000D+03 0.1100000D+03 0.3557000D+02 0.1254000D+02 0.4644000D+01
EXPONENTS  0.5118000D+00 0.1293000D+01 0.1787000D+00 0.5760000D-01 0.2663000D+02
EXPONENTS  0.5948000D+01 0.1742000D+01 0.2663000D+02 0.5948000D+01 0.1742000D+01
EXPONENTS  0.2663000D+02 0.5948000D+01 0.1742000D+01 0.5550000D+00 0.5550000D+00
EXPONENTS  0.5550000D+00 0.1725000D+00 0.1725000D+00 0.1725000D+00 0.4910000D-01
EXPONENTS  0.4910000D-01 0.4910000D-01 0.1654000D+01 0.1654000D+01 0.1654000D+01
EXPONENTS  0.1654000D+01 0.1654000D+01 0.1654000D+01 0.4690000D+00 0.4690000D+00
EXPONENTS  0.4690000D+00 0.4690000D+00 0.4690000D+00 0.4690000D+00 0.1510000D+00
EXPONENTS  0.1510000D+00 0.1510000D+00 0.1510000D+00 0.1510000D+00 0.1510000D+00
EXPONENTS  0.1093000D+01 0.1093000D+01 0.1093000D+01 0.1093000D+01 0.1093000D+01
EXPONENTS  0.1093000D+01 0.1093000D+01 0.1093000D+01 0.1093000D+01 0.1093000D+01
EXPONENTS  0.3640000D+00 0.3640000D+00 0.3640000D+00 0.3640000D+00 0.3640000D+00
EXPONENTS  0.3640000D+00 0.3640000D+00 0.3640000D+00 0.3640000D+00 0.3640000D+00
EXPONENTS  0.3124000D+06 0.4680000D+05 0.1065000D+05 0.3018000D+04 0.9868000D+03
EXPONENTS  0.3574000D+03 0.1396000D+03 0.5763000D+02 0.2460000D+02 0.1012000D+02
EXPONENTS  0.4283000D+01 0.1805000D+01 0.2782000D+00 0.3124000D+06 0.4680000D+05
EXPONENTS  0.1065000D+05 0.3018000D+04 0.9868000D+03 0.3574000D+03 0.1396000D+03
EXPONENTS  0.5763000D+02 0.2460000D+02 0.1012000D+02 0.4283000D+01 0.1805000D+01
EXPONENTS  0.2782000D+00 0.3124000D+06 0.4680000D+05 0.1065000D+05 0.3018000D+04
EXPONENTS  0.9868000D+03 0.3574000D+03 0.1396000D+03 0.5763000D+02 0.2460000D+02
EXPONENTS  0.1012000D+02 0.4283000D+01 0.1805000D+01 0.2782000D+00 0.6158000D+00
EXPONENTS  0.1055000D+00 0.4090000D-01 0.5049000D+03 0.1194000D+03 0.3796000D+02
EXPONENTS  0.1395000D+02 0.5457000D+01 0.2177000D+01 0.2877000D+00 0.5049000D+03
EXPONENTS  0.1194000D+03 0.3796000D+02 0.1395000D+02 0.5457000D+01 0.2177000D+01
EXPONENTS  0.2877000D+00 0.5049000D+03 0.1194000D+03 0.3796000D+02 0.1395000D+02
EXPONENTS  0.5457000D+01 0.2177000D+01 0.2877000D+00 0.5049000D+03 0.1194000D+03
EXPONENTS  0.3796000D+02 0.1395000D+02 0.5457000D+01 0.2177000D+01 0.2877000D+00
EXPONENTS  0.5049000D+03 0.1194000D+03 0.3796000D+02 0.1395000D+02 0.5457000D+01
EXPONENTS  0.2177000D+01 0.2877000D+00 0.5049000D+03 0.1194000D+03 0.3796000D+02
EXPONENTS  0.1395000D+02 0.5457000D+01 0.2177000D+01 0.2877000D+00 0.8010000D+00
EXPONENTS  0.8010000D+00 0.8010000D+00 0.9714000D-01 0.9714000D-01 0.9714000D-01
EXPONENTS  0.3070000D-01 0.3070000D-01 0.3070000D-01 0.2160000D+00 0.2160000D+00
EXPONENTS  0.2160000D+00 0.2160000D+00 0.2160000D+00 0.2160000D+00 0.6520000D+00
EXPONENTS  0.6520000D+00 0.6520000D+00 0.6520000D+00 0.6520000D+00 0.6520000D+00
EXPONENTS  0.7750000D-01 0.7750000D-01 0.7750000D-01 0.7750000D-01 0.7750000D-01
EXPONENTS  0.7750000D-01 0.4520000D+00 0.4520000D+00 0.4520000D+00 0.4520000D+00
EXPONENTS  0.4520000D+00 0.4520000D+00 0.4520000D+00 0.4520000D+00 0.4520000D+00
EXPONENTS  0.4520000D+00 0.1650000D+00 0.1650000D+00 0.1650000D+00 0.1650000D+00
EXPONENTS  0.1650000D+00 0.1650000D+00 0.1650000D+00 0.1650000D+00 0.1650000D+00
EXPONENTS  0.1650000D+00 0.1142000D+05 0.1712000D+04 0.3893000D+03 0.1100000D+03
EXPONENTS  0.3557000D+02 0.1254000D+02 0.4644000D+01 0.5118000D+00 0.1142000D+05
EXPONENTS  0.1712000D+04 0.3893000D+03 0.1100000D+03 0.3557000D+02 0.1254000D+02
EXPONENTS  0.4644000D+01 0.5118000D+00 0.1293000D+01 0.1787000D+00 0.5760000D-01
EXPONENTS  0.2663000D+02 0.5948000D+01 0.1742000D+01 0.2663000D+02 0.5948000D+01
EXPONENTS  0.1742000D+01 0.2663000D+02 0.5948000D+01 0.1742000D+01 0.5550000D+00
EXPONENTS  0.5550000D+00 0.5550000D+00 0.1725000D+00 0.1725000D+00 0.1725000D+00
EXPONENTS  0.4910000D-01 0.4910000D-01 0.4910000D-01 0.1654000D+01 0.1654000D+01
EXPONENTS  0.1654000D+01 0.1654000D+01 0.1654000D+01 0.1654000D+01 0.4690000D+00
EXPONENTS  0.4690000D+00 0.4690000D+00 0.4690000D+00 0.4690000D+00 0.4690000D+00
EXPONENTS  0.1510000D+00 0.1510000D+00 0.1510000D+00 0.1510000D+00 0.1510000D+00
EXPONENTS  0.1510000D+00 0.1093000D+01 0.1093000D+01 0.1093000D+01 0.1093000D+01
EXPONENTS  0.1093000D+01 0.1093000D+01 0.1093000D+01 0.1093000D+01 0.1093000D+01
EXPONENTS  0.1093000D+01 0.3640000D+00 0.3640000D+00 0.3640000D+00 0.3640000D+00
EXPONENTS  0.3640000D+00 0.3640000D+00 0.3640000D+00 0.3640000D+00 0.3640000D+00
EXPONENTS  0.3640000D+00 0.3124000D+06 0.4680000D+05 0.1065000D+05 0.3018000D+04
EXPONENTS  0.9868000D+03 0.3574000D+03 0.1396000D+03 0.5763000D+02 0.2460000D+02
EXPONENTS  0.1012000D+02 0.4283000D+01 0.1805000D+01 0.2782000D+00 0.3124000D+06
EXPONENTS  0.4680000D+05 0.1065000D+05 0.3018000D+04 0.9868000D+03 0.3574000D+03
EXPONENTS  0.1396000D+03 0.5763000D+02 0.2460000D+02 0.1012000D+02 0.4283000D+01
EXPONENTS  0.1805000D+01 0.2782000D+00 0.3124000D+06 0.4680000D+05 0.1065000D+05
EXPONENTS  0.3018000D+04 0.9868000D+03 0.3574000D+03 0.1396000D+03 0.5763000D+02
EXPONENTS  0.2460000D+02 0.1012000D+02 0.4283000D+01 0.1805000D+01 0.2782000D+00
EXPONENTS  0.6158000D+00 0.1055000D+00 0.4090000D-01 0.5049000D+03 0.1194000D+03
EXPONENTS  0.3796000D+02 0.1395000D+02 0.5457000D+01 0.2177000D+01 0.2877000D+00
EXPONENTS  0.5049000D+03 0.1194000D+03 0.3796000D+02 0.1395000D+02 0.5457000D+01
EXPONENTS  0.2177000D+01 0.2877000D+00 0.5049000D+03 0.1194000D+03 0.3796000D+02
EXPONENTS  0.1395000D+02 0.5457000D+01 0.2177000D+01 0.2877000D+00 0.5049000D+03
EXPONENTS  0.1194000D+03 0.3796000D+02 0.1395000D+02 0.5457000D+01 0.2177000D+01
EXPONENTS  0.2877000D+00 0.5049000D+03 0.1194000D+03 0.3796000D+02 0.1395000D+02
EXPONENTS  0.5457000D+01 0.2177000D+01 0.2877000D+00 0.5049000D+03 0.1194000D+03
EXPONENTS  0.3796000D+02 0.1395000D+02 0.5457000D+01 0.2177000D+01 0.2877000D+00
EXPONENTS  0.8010000D+00 0.8010000D+00 0.8010000D+00 0.9714000D-01 0.9714000D-01
EXPONENTS  0.9714000D-01 0.3070000D-01 0.3070000D-01 0.3070000D-01 0.2160000D+00
EXPONENTS  0.2160000D+00 0.2160000D+00 0.2160000D+00 0.2160000D+00 0.2160000D+00
EXPONENTS  0.6520000D+00 0.6520000D+00 0.6520000D+00 0.6520000D+00 0.6520000D+00
EXPONENTS  0.6520000D+00 0.7750000D-01 0.7750000D-01 0.7750000D-01 0.7750000D-01
EXPONENTS  0.7750000D-01 0.7750000D-01 0.4520000D+00 0.4520000D+00 0.4520000D+00
EXPONENTS  0.4520000D+00 0.4520000D+00 0.4520000D+00 0.4520000D+00 0.4520000D+00
EXPONENTS  0.4520000D+00 0.4520000D+00 0.1650000D+00 0.1650000D+00 0.1650000D+00
EXPONENTS  0.1650000D+00 0.1650000D+00 0.1650000D+00 0.1650000D+00 0.1650000D+00
EXPONENTS  0.1650000D+00 0.1650000D+00 0.3124000D+06 0.4680000D+05 0.1065000D+05
EXPONENTS  0.3018000D+04 0.9868000D+03 0.3574000D+03 0.1396000D+03 0.5763000D+02
EXPONENTS  0.2460000D+02 0.1012000D+02 0.4283000D+01 0.1805000D+01 0.2782000D+00
EXPONENTS  0.3124000D+06 0.4680000D+05 0.1065000D+05 0.3018000D+04 0.9868000D+03
EXPONENTS  0.3574000D+03 0.1396000D+03 0.5763000D+02 0.2460000D+02 0.1012000D+02
EXPONENTS  0.4283000D+01 0.1805000D+01 0.2782000D+00 0.3124000D+06 0.4680000D+05
EXPONENTS  0.1065000D+05 0.3018000D+04 0.9868000D+03 0.3574000D+03 0.1396000D+03
EXPONENTS  0.5763000D+02 0.2460000D+02 0.1012000D+02 0.4283000D+01 0.1805000D+01
EXPONENTS  0.2782000D+00 0.6158000D+00 0.1055000D+00 0.4090000D-01 0.5049000D+03
EXPONENTS  0.1194000D+03 0.3796000D+02 0.1395000D+02 0.5457000D+01 0.2177000D+01
EXPONENTS  0.2877000D+00 0.5049000D+03 0.1194000D+03 0.3796000D+02 0.1395000D+02
EXPONENTS  0.5457000D+01 0.2177000D+01 0.2877000D+00 0.5049000D+03 0.1194000D+03
EXPONENTS  0.3796000D+02 0.1395000D+02 0.5457000D+01 0.2177000D+01 0.2877000D+00
EXPONENTS  0.5049000D+03 0.1194000D+03 0.3796000D+02 0.1395000D+02 0.5457000D+01
EXPONENTS  0.2177000D+01 0.2877000D+00 0.5049000D+03 0.1194000D+03 0.3796000D+02
EXPONENTS  0.1395000D+02 0.5457000D+01 0.2177000D+01 0.2877000D+00 0.5049000D+03
EXPONENTS  0.1194000D+03 0.3796000D+02 0.1395000D+02 0.5457000D+01 0.2177000D+01
EXPONENTS  0.2877000D+00 0.8010000D+00 0.8010000D+00 0.8010000D+00 0.9714000D-01
EXPONENTS  0.9714000D-01 0.9714000D-01 0.3070000D-01 0.3070000D-01 0.3070000D-01
EXPONENTS  0.2160000D+00 0.2160000D+00 0.2160000D+00 0.2160000D+00 0.2160000D+00
EXPONENTS  0.2160000D+00 0.6520000D+00 0.6520000D+00 0.6520000D+00 0.6520000D+00
EXPONENTS  0.6520000D+00 0.6520000D+00 0.7750000D-01 0.7750000D-01 0.7750000D-01
EXPONENTS  0.7750000D-01 0.7750000D-01 0.7750000D-01 0.4520000D+00 0.4520000D+00
EXPONENTS  0.4520000D+00 0.4520000D+00 0.4520000D+00 0.4520000D+00 0.4520000D+00
EXPONENTS  0.4520000D+00 0.4520000D+00 0.4520000D+00 0.1650000D+00 0.1650000D+00
EXPONENTS  0.1650000D+00 0.1650000D+00 0.1650000D+00 0.1650000D+00 0.1650000D+00
EXPONENTS  0.1650000D+00 0.1650000D+00 0.1650000D+00 0.1142000D+05 0.1712000D+04
EXPONENTS  0.3893000D+03 0.1100000D+03 0.3557000D+02 0.1254000D+02 0.4644000D+01
EXPONENTS  0.5118000D+00 0.1142000D+05 0.1712000D+04 0.3893000D+03 0.1100000D+03
EXPONENTS  0.3557000D+02 0.1254000D+02 0.4644000D+01 0.5118000D+00 0.1293000D+01
EXPONENTS  0.1787000D+00 0.5760000D-01 0.2663000D+02 0.5948000D+01 0.1742000D+01
EXPONENTS  0.2663000D+02 0.5948000D+01 0.1742000D+01 0.2663000D+02 0.5948000D+01
EXPONENTS  0.1742000D+01 0.5550000D+00 0.5550000D+00 0.5550000D+00 0.1725000D+00
EXPONENTS  0.1725000D+00 0.1725000D+00 0.4910000D-01 0.4910000D-01 0.4910000D-01
EXPONENTS  0.1654000D+01 0.1654000D+01 0.1654000D+01 0.1654000D+01 0.1654000D+01
EXPONENTS  0.1654000D+01 0.4690000D+00 0.4690000D+00 0.4690000D+00 0.4690000D+00
EXPONENTS  0.4690000D+00 0.4690000D+00 0.1510000D+00 0.1510000D+00 0.1510000D+00
EXPONENTS  0.1510000D+00 0.1510000D+00 0.1510000D+00 0.1093000D+01 0.1093000D+01
EXPONENTS  0.1093000D+01 0.1093000D+01 0.1093000D+01 0.1093000D+01 0.1093000D+01
EXPONENTS  0.1093000D+01 0.1093000D+01 0.1093000D+01 0.3640000D+00 0.3640000D+00
EXPONENTS  0.3640000D+00 0.3640000D+00 0.3640000D+00 0.3640000D+00 0.3640000D+00
EXPONENTS  0.3640000D+00 0.3640000D+00 0.3640000D+00
MO    1     MO 0.0        OCC NO =    2.0000000  ORB. ENERGY =  -76.848677
  0.73469028D-05  0.13689872D-04  0.23153005D-04  0.34867142D-04  0.43167784D-04
  0.36733836D-04  0.13977902D-04 -0.65464480D-07 -0.62048178D-05 -0.11634091D-04
 -0.19793051D-04 -0.30736519D-04 -0.40789148D-04 -0.42986163D-04 -0.26654163D-04
  0.17730360D-04  0.41844206D-04  0.11386693D-03 -0.11329724D-04  0.31139986D-04
  0.29909585D-04  0.20974665D-04 -0.58673165D-04 -0.56354874D-04 -0.39519927D-04
 -0.15088853D-15 -0.14492663D-15 -0.10163256D-15 -0.27541930D-04  0.51102371D-04
  0.10861944D-15 -0.32737586D-04  0.66163584D-04 -0.45034927D-16  0.33044091D-05
 -0.61218406D-05  0.10346822D-16  0.25429912D-05  0.44415567D-04 -0.46958558D-04
 -0.62744281D-04 -0.85182132D-18  0.47640764D-16 -0.29924724D-04 -0.24411457D-04
  0.54336181D-04 -0.11894133D-04  0.56820927D-18 -0.83949328D-19 -0.14018598D-05
 -0.77249294D-05  0.91267893D-05  0.86035763D-05  0.37431279D-18 -0.29879814D-18
 -0.26990067D-04  0.21857991D-05  0.49734191D-18  0.72424584D-04  0.83600442D-05
 -0.11129853D-17  0.85456176D-05 -0.14917441D-04 -0.37904043D-18  0.66455622D-18
 -0.23190012D-05  0.16185047D-05 -0.23625136D-18  0.36687206D-05  0.22814813D-05
  0.60546502D-18  0.32882828D-05 -0.71369953D-05  0.10328905D-18 -0.61938421D-19
 -0.13840212D-01 -0.25894828D-01 -0.44712721D-01 -0.72311891D-01 -0.10914011D+00
 -0.14952532D+00 -0.17279595D+00 -0.14521341D+00 -0.63784094D-01 -0.72904168D-02
  0.98257639D-04 -0.61113505D-04 -0.30061721D-05  0.52742323D-04  0.98648991D-04
  0.17080540D-03  0.27734804D-03  0.42594178D-03  0.60578699D-03  0.77076664D-03
  0.79878559D-03  0.53304878D-03 -0.52498508D-04 -0.40100306D-03 -0.20589866D-03
  0.90316647D-06 -0.23819315D-04 -0.44511655D-04 -0.77184788D-04 -0.12516339D-03
 -0.19292599D-03 -0.27452314D-03 -0.35350276D-03 -0.37162046D-03 -0.26051734D-03
  0.30248394D-04  0.24487997D-03  0.23046533D-03 -0.11238854D-03  0.81085947D-04
 -0.10861911D-03  0.79183624D-04 -0.68563255D-03 -0.89693823D-03 -0.98128185D-03
 -0.80830416D-03 -0.43218179D-03 -0.11941602D-03  0.97879950D-07  0.19726330D-02
  0.25805804D-02  0.28232454D-02  0.23255714D-02  0.12434300D-02  0.34357177D-03
 -0.28161035D-06 -0.64704131D-17 -0.84645352D-17 -0.92604981D-17 -0.76280828D-17
 -0.40785618D-17 -0.11269462D-17  0.92370718D-21  0.54889247D-03  0.72695661D-03
  0.80309177D-03  0.68785055D-03  0.37524850D-03  0.11534155D-03 -0.50215673D-04
 -0.16917840D-02 -0.22406092D-02 -0.24752713D-02 -0.21200774D-02 -0.11565825D-02
 -0.35550312D-03  0.15477361D-03  0.51800754D-17  0.68605241D-17  0.75790361D-17
  0.64914676D-17  0.35413412D-17  0.10885154D-17 -0.47390151D-18  0.47608328D-04
 -0.98925079D-04  0.47266538D-18 -0.51043058D-04 -0.19473271D-04 -0.33066808D-18
  0.65775724D-05  0.12849447D-05 -0.54817094D-19  0.30944499D-04 -0.20446781D-04
 -0.10497718D-04  0.11473649D-04 -0.35210627D-18 -0.17577135D-18 -0.48608192D-04
  0.43089471D-04  0.55187214D-05 -0.72230134D-05  0.80916303D-19 -0.21743972D-18
  0.10992355D-05 -0.16139492D-05  0.51471371D-06  0.78157593D-05 -0.68203940D-19
 -0.87365291D-19 -0.23630843D-04  0.11779395D-04  0.57616535D-20  0.98653053D-04
  0.97035395D-06 -0.54247119D-19 -0.27760524D-04 -0.36308538D-04  0.36962158D-19
  0.67115047D-19  0.84786681D-05 -0.14873885D-05  0.39150403D-19 -0.20508851D-04
 -0.72790869D-05 -0.60699858D-19 -0.49271529D-05  0.11741252D-04 -0.56751350D-19
 -0.11350510D-18  0.16629334D-03  0.30986315D-03  0.52405627D-03  0.78919970D-03
  0.97708043D-03  0.83145135D-03  0.31638258D-03 -0.14817546D-05 -0.11752250D-03
 -0.22035579D-03 -0.37489077D-03 -0.58216578D-03 -0.77256785D-03 -0.81418047D-03
 -0.50484383D-03  0.33582231D-03  0.15041986D-03 -0.74451990D-03 -0.15163972D-03
  0.39691764D-03  0.38123465D-03  0.26734805D-03  0.80839720D-04  0.77645585D-04
  0.54450444D-04  0.84261751D-19  0.80932404D-19  0.56755388D-19 -0.22935610D-03
 -0.92770846D-04 -0.72645619D-19 -0.97330275D-03  0.26196284D-03  0.25676682D-18
 -0.33479948D-05 -0.35151226D-04  0.10045277D-19  0.46956341D-03 -0.22959101D-03
 -0.23997240D-03 -0.21239546D-03  0.22198221D-18 -0.16503480D-18 -0.46055528D-03
  0.21842114D-03  0.24213414D-03  0.18361286D-03 -0.42421267D-19  0.16846172D-18
 -0.17067240D-03  0.96159767D-04  0.74512630D-04  0.30760560D-04  0.73271449D-19
 -0.46327248D-20 -0.11596960D-04 -0.97380039D-05  0.18670574D-19  0.11450811D-03
 -0.17827056D-04 -0.32941117D-18 -0.79717233D-04  0.47041068D-04  0.27339945D-18
  0.11637787D-18 -0.11076510D-03 -0.19486379D-04 -0.76218235D-20  0.15151745D-03
  0.87746174D-04  0.38905518D-19  0.18077786D-03 -0.29287036D-04 -0.16040048D-19
 -0.37584172D-19 -0.15683209D-01 -0.29343048D-01 -0.50666778D-01 -0.81941122D-01
 -0.12367347D+00 -0.16943648D+00 -0.19580589D+00 -0.16455039D+00 -0.72277742D-01
 -0.82612268D-02  0.11134187D-03 -0.69251531D-04 -0.34064815D-05  0.59388779D-04
  0.11108049D-03  0.19232987D-03  0.31229875D-03  0.47961790D-03  0.68212676D-03
  0.86789674D-03  0.89944657D-03  0.60022226D-03 -0.59114240D-04 -0.45153647D-03
 -0.23184550D-03  0.10169813D-05 -0.26881802D-04 -0.50234589D-04 -0.87108558D-04
 -0.14125585D-03 -0.21773079D-03 -0.30981901D-03 -0.39895317D-03 -0.41940029D-03
 -0.29401246D-03  0.34137478D-04  0.27636458D-03  0.26009662D-03 -0.12683852D-03
  0.93120411D-04 -0.11178462D-03  0.79995386D-04 -0.12612185D-02 -0.16499145D-02
 -0.18050642D-02 -0.14868724D-02 -0.79499677D-03 -0.21966532D-03  0.18004980D-06
  0.16856740D-02  0.22051833D-02  0.24125479D-02  0.19872705D-02  0.10625482D-02
  0.29359238D-03 -0.24064448D-06 -0.11108942D-16 -0.14532616D-16 -0.15899192D-16
 -0.13096525D-16 -0.70024133D-17 -0.19348348D-17  0.15858971D-20  0.11025538D-02
  0.14602291D-02  0.16131608D-02  0.13816772D-02  0.75375719D-03  0.23168520D-03
 -0.10086762D-03 -0.14127745D-02 -0.18710873D-02 -0.20670488D-02 -0.17704336D-02
 -0.96583854D-03 -0.29687344D-03  0.12924830D-03  0.79960770D-17  0.10590054D-16
  0.11699165D-16  0.10020370D-16  0.54664913D-17  0.16802561D-17 -0.73152467D-18
  0.56819082D-04 -0.94589026D-04  0.72975020D-18  0.43927891D-04  0.33001264D-04
 -0.38382722D-18 -0.46227507D-05 -0.48962748D-05  0.35464896D-20 -0.96283137D-06
  0.11124319D-04 -0.10161488D-04  0.52392324D-04  0.10966079D-17  0.15848773D-18
  0.12520282D-04 -0.19630817D-04  0.71105350D-05 -0.85275239D-04 -0.26760175D-18
 -0.40406808D-18  0.27416554D-05 -0.32020323D-05  0.46037691D-06  0.56669222D-05
  0.90155791D-19 -0.30579568D-19 -0.40942703D-04 -0.73957761D-05  0.11892379D-18
  0.77613359D-04  0.18503587D-04 -0.14789908D-18  0.45214750D-04  0.36837409D-05
 -0.20887230D-18 -0.84754523D-19  0.91646027D-05 -0.31546222D-05  0.29556793D-19
 -0.20297488D-04 -0.10454008D-05 -0.12514430D-18 -0.71963200D-05  0.10509268D-04
  0.36473924D-19 -0.10443056D-18  0.54401658D+00  0.10178468D+01  0.17575208D+01
  0.28423601D+01  0.42899651D+01  0.58773849D+01  0.67920825D+01  0.57078969D+01
  0.25071584D+01  0.28656407D+00 -0.38622084D-02  0.24021857D-02  0.11816347D-03
 -0.19625250D-02 -0.36706974D-02 -0.63556142D-02 -0.10320032D-01 -0.15849157D-01
 -0.22541140D-01 -0.28679980D-01 -0.29722556D-01 -0.19834575D-01  0.19534527D-02
  0.14921196D-01  0.76614234D-02 -0.33606536D-04  0.90512938D-03  0.16914343D-02
  0.29330071D-02  0.47561847D-02  0.73311504D-02  0.10431826D-01  0.13433037D-01
  0.14121506D-01  0.98996086D-02 -0.11494331D-02 -0.93053918D-02 -0.87576380D-02
  0.42707431D-02 -0.35627114D-02  0.83957124D-03 -0.16981638D-03 -0.86653010D-02
 -0.11335867D-01 -0.12401836D-01 -0.10215674D-01 -0.54620880D-02 -0.15092279D-02
  0.12370463D-05  0.15774642D-01  0.20636242D-01  0.22576772D-01  0.18597000D-01
  0.99433916D-02  0.27474556D-02 -0.22519659D-05 -0.84198126D-17 -0.11014722D-16
 -0.12050492D-16 -0.99262639D-17 -0.53073468D-17 -0.14664714D-17  0.12020007D-20
  0.74747472D-02  0.98996017D-02  0.10936401D-01  0.93670605D-02  0.51100859D-02
  0.15707064D-02 -0.68383058D-03 -0.13607540D-01 -0.18021910D-01 -0.19909370D-01
 -0.17052436D-01 -0.93027491D-02 -0.28594211D-02  0.12448918D-02  0.32421675D-17
  0.42939467D-17  0.47436577D-17  0.40629573D-17  0.22164969D-17  0.68129304D-18
 -0.29661114D-18  0.23798089D-03 -0.43346709D-03  0.78220949D-18 -0.23690680D-04
  0.42942697D-04  0.75179785D-19  0.18974153D-05 -0.34406903D-05  0.25981426D-19
  0.13671309D-03 -0.25886705D-04 -0.11082638D-03  0.25638176D-03  0.98457168D-19
  0.10731805D-19  0.33052303D-03  0.14778241D-03 -0.47830544D-03  0.28802792D-03
  0.33322979D-19  0.21354857D-18 -0.18589954D-04  0.11935717D-05  0.17396382D-04
 -0.31133558D-04  0.31084011D-19  0.46477735D-19 -0.15673372D-03  0.25276740D-04
 -0.30942129D-20  0.39566167D-03  0.59997429D-04  0.66348449D-19  0.74539494D-04
 -0.13582765D-03 -0.57065810D-19  0.84851024D-19  0.11638243D-04 -0.43864419D-05
 -0.28064321D-20 -0.24086540D-04 -0.66164362D-05 -0.31159366D-19 -0.10828188D-04
  0.19775762D-04  0.39578662D-19  0.63818749D-20  0.16577228D-03  0.30889223D-03
  0.52241420D-03  0.78672683D-03  0.97401885D-03  0.82884609D-03  0.31539123D-03
 -0.14771117D-05 -0.11715759D-03 -0.21967158D-03 -0.37372672D-03 -0.58035813D-03
 -0.77016899D-03 -0.81165240D-03 -0.50327627D-03  0.33477957D-03  0.15006895D-03
 -0.74173949D-03 -0.15119604D-03 -0.28024120D-03 -0.26916833D-03 -0.18875941D-03
 -0.29285904D-03 -0.28128761D-03 -0.19725829D-03 -0.71236481D-19 -0.68421789D-19
 -0.47982081D-19  0.20076493D-03  0.14448114D-03  0.34608558D-18  0.29963447D-03
  0.96548243D-03 -0.33387984D-18  0.31348866D-04 -0.16051542D-04 -0.10919531D-18
 -0.12433928D-03  0.36367948D-03 -0.23934020D-03  0.54367798D-03 -0.37958877D-18
  0.20472615D-18  0.10613589D-03 -0.34766170D-03  0.24152580D-03 -0.53771620D-03
  0.12000051D-18 -0.76220136D-19  0.33319488D-04 -0.10762021D-03  0.74300720D-04
 -0.22903772D-03 -0.37483742D-20 -0.70863719D-19 -0.31739303D-04 -0.29172111D-04
 -0.10196901D-18  0.92280892D-04 -0.53226696D-05 -0.22678681D-18  0.29370159D-05
  0.92839002D-04  0.53269384D-18 -0.77123333D-19 -0.50216549D-04  0.60727513D-04
  0.37949340D-19  0.22258136D-03 -0.13266055D-04  0.42526890D-19 -0.71931715D-04
 -0.16891648D-03 -0.15637491D-18  0.91846536D-19
MO    2     MO 0.0        OCC NO =    2.0000000  ORB. ENERGY =  -76.848656
  0.13022302D-03  0.24265142D-03  0.41038438D-03  0.61801614D-03  0.76514407D-03
  0.65110308D-03  0.24775673D-03 -0.11603505D-05 -0.92076752D-04 -0.17264477D-03
 -0.29372012D-03 -0.45611634D-03 -0.60529291D-03 -0.63789564D-03 -0.39553599D-03
  0.26311069D-03  0.11938952D-03 -0.57645193D-03 -0.11896989D-03  0.40860659D-03
  0.39246175D-03  0.27522127D-03 -0.23672226D-04 -0.22736890D-04 -0.15944677D-04
 -0.44017832D-15 -0.42278601D-15 -0.29648674D-15 -0.22703379D-03  0.54812792D-04
  0.17753018D-15 -0.10951370D-02 -0.34867238D-03 -0.35777331D-16  0.38408459D-05
  0.30103528D-04  0.75188610D-17  0.45726935D-03 -0.26770883D-03 -0.18956052D-03
  0.98189127D-05 -0.44080449D-18  0.12016483D-16 -0.44983910D-03  0.25824660D-03
  0.19159250D-03  0.69655080D-05 -0.78733615D-19 -0.12782433D-18 -0.17001015D-03
  0.11139459D-03  0.58615564D-04  0.39509848D-04  0.12569172D-18  0.21849571D-18
 -0.16429523D-05  0.67296451D-05  0.78193031D-19  0.99409425D-04  0.31705155D-04
 -0.12109737D-17 -0.94480568D-04 -0.51894090D-04  0.97639457D-18  0.11639982D-17
 -0.10386454D-03  0.11032989D-04  0.27031732D-19  0.11231847D-03 -0.81123348D-04
  0.16556295D-18  0.19927515D-03  0.48024381D-04 -0.24665814D-18 -0.22822314D-18
 -0.11844128D+00 -0.22160184D+00 -0.38264094D+00 -0.61882814D+00 -0.93399533D+00
 -0.12796025D+01 -0.14787471D+01 -0.12427022D+01 -0.54584926D+00 -0.62389670D-01
  0.84086574D-03 -0.52299499D-03 -0.25726113D-04  0.43013222D-03  0.80451727D-03
  0.13929782D-02  0.22618709D-02  0.34737052D-02  0.49404062D-02  0.62858734D-02
  0.65143778D-02  0.43472005D-02 -0.42814382D-03 -0.32703212D-02 -0.16791761D-02
  0.73656406D-05 -0.19786336D-03 -0.36975142D-03 -0.64116207D-03 -0.10397129D-02
 -0.16026063D-02 -0.22804211D-02 -0.29364926D-02 -0.30869935D-02 -0.21640771D-02
  0.25126872D-03  0.20341800D-02  0.19144397D-02 -0.93359421D-03  0.76593944D-03
 -0.27161129D-03  0.11319947D-03 -0.42288624D-02 -0.55321591D-02 -0.60523759D-02
 -0.49854796D-02 -0.26656222D-02 -0.73653727D-03  0.60370651D-06 -0.17273613D-02
 -0.22597182D-02 -0.24722109D-02 -0.20364163D-02 -0.10888253D-02 -0.30085300D-03
  0.24659569D-06  0.57116047D-18  0.74718690D-18  0.81744865D-18  0.67335103D-18
  0.36002543D-18  0.99478520D-19 -0.81538075D-22  0.36042346D-02  0.47734707D-02
  0.52734028D-02  0.45166856D-02  0.24640229D-02  0.75737604D-03 -0.32973501D-03
  0.14826794D-02  0.19636698D-02  0.21693277D-02  0.18580358D-02  0.10136288D-02
  0.31156292D-03 -0.13564359D-03 -0.44774933D-17 -0.59300199D-17 -0.65510790D-17
 -0.56110192D-17 -0.30610233D-17 -0.94087830D-18  0.40962547D-18  0.14727280D-03
  0.87721156D-04 -0.22873247D-18 -0.60540320D-04  0.20317005D-04  0.21724227D-18
  0.73921513D-05 -0.14736545D-05  0.19781875D-19  0.49413083D-04 -0.59984483D-04
  0.10571400D-04 -0.17204262D-04  0.13004635D-18  0.27126080D-18 -0.62218842D-04
 -0.35140385D-04  0.97359227D-04  0.11383450D-04  0.18636254D-18 -0.56085510D-18
 -0.10702974D-05  0.38828945D-05 -0.28125971D-05 -0.71422503D-05  0.51421305D-19
  0.20677145D-19 -0.48083346D-05 -0.13075944D-04  0.19449836D-19  0.11477482D-04
  0.50857820D-05  0.25903045D-18  0.29475217D-05  0.34142051D-04 -0.31737996D-18
 -0.36926560D-18  0.82382576D-05  0.20887235D-05 -0.78019568D-20 -0.14902623D-04
  0.43202481D-05 -0.29049729D-19 -0.98121502D-05 -0.10586419D-04  0.52455600D-19
  0.86174085D-19 -0.17144303D-04 -0.31945885D-04 -0.54028500D-04 -0.81363927D-04
 -0.10073382D-03 -0.85719934D-04 -0.32618016D-04  0.15276409D-06  0.11131601D-04
  0.20871856D-04  0.35509236D-04  0.55142095D-04  0.73176767D-04  0.77118268D-04
  0.47818246D-04 -0.31808715D-04  0.18715993D-04  0.21943718D-03  0.11123497D-04
  0.72335861D-04  0.69477730D-04  0.48722580D-04 -0.15223216D-04 -0.14621717D-04
 -0.10253757D-04  0.64269914D-19  0.61730484D-19  0.43289677D-19 -0.43942424D-04
 -0.55377410D-05 -0.13777599D-20 -0.21007481D-03  0.91201515D-04 -0.13129674D-18
  0.89873018D-05  0.78946992D-05 -0.52985900D-19  0.25092618D-04 -0.14481622D-04
 -0.10610996D-04  0.18785147D-03 -0.55876132D-18 -0.13249438D-19 -0.49149570D-04
  0.31682195D-04  0.17467375D-04 -0.10667694D-03  0.15132628D-18  0.12107016D-19