 Molden2AIM, Version 4.0.0 (06/02/2016)           Time: Sat Jun 30 05:37:16 2018
GAUSSIAN             26 MOL ORBITALS    450 PRIMITIVES        6 NUCLEI
  N    1    (CENTRE  1)   0.00049322  0.00000000  0.00000000  CHARGE =  7.0
  F    2    (CENTRE  2)  -1.29186402  2.23061004  0.00000000  CHARGE =  9.0
  F    3    (CENTRE  3)  -1.29186402 -2.23061004  0.00000000  CHARGE =  9.0
  F    4    (CENTRE  4)   2.58003363  0.00000000  0.00000000  CHARGE =  9.0
  F    5    (CENTRE  5)   0.00160060  0.00000000  2.97491836  CHARGE =  9.0
  F    6    (CENTRE  6)   0.00160060  0.00000000 -2.97491836  CHARGE =  9.0
CENTRE ASSIGNMENTS    1  1  1  1  1  1  1  1  1  1  1  1  1  1  1  1  1  1  1  1
CENTRE ASSIGNMENTS    1  1  1  1  1  1  1  1  1  1  1  1  1  1  1  1  1  1  1  1
CENTRE ASSIGNMENTS    1  1  1  1  1  1  1  1  1  1  1  1  1  1  1  1  1  1  1  1
CENTRE ASSIGNMENTS    1  1  1  1  1  1  1  1  1  1  1  1  1  1  1  2  2  2  2  2
CENTRE ASSIGNMENTS    2  2  2  2  2  2  2  2  2  2  2  2  2  2  2  2  2  2  2  2
CENTRE ASSIGNMENTS    2  2  2  2  2  2  2  2  2  2  2  2  2  2  2  2  2  2  2  2
CENTRE ASSIGNMENTS    2  2  2  2  2  2  2  2  2  2  2  2  2  2  2  2  2  2  2  2
CENTRE ASSIGNMENTS    2  2  2  2  2  2  2  2  2  2  3  3  3  3  3  3  3  3  3  3
CENTRE ASSIGNMENTS    3  3  3  3  3  3  3  3  3  3  3  3  3  3  3  3  3  3  3  3
CENTRE ASSIGNMENTS    3  3  3  3  3  3  3  3  3  3  3  3  3  3  3  3  3  3  3  3
CENTRE ASSIGNMENTS    3  3  3  3  3  3  3  3  3  3  3  3  3  3  3  3  3  3  3  3
CENTRE ASSIGNMENTS    3  3  3  3  3  4  4  4  4  4  4  4  4  4  4  4  4  4  4  4
CENTRE ASSIGNMENTS    4  4  4  4  4  4  4  4  4  4  4  4  4  4  4  4  4  4  4  4
CENTRE ASSIGNMENTS    4  4  4  4  4  4  4  4  4  4  4  4  4  4  4  4  4  4  4  4
CENTRE ASSIGNMENTS    4  4  4  4  4  4  4  4  4  4  4  4  4  4  4  4  4  4  4  4
CENTRE ASSIGNMENTS    5  5  5  5  5  5  5  5  5  5  5  5  5  5  5  5  5  5  5  5
CENTRE ASSIGNMENTS    5  5  5  5  5  5  5  5  5  5  5  5  5  5  5  5  5  5  5  5
CENTRE ASSIGNMENTS    5  5  5  5  5  5  5  5  5  5  5  5  5  5  5  5  5  5  5  5
CENTRE ASSIGNMENTS    5  5  5  5  5  5  5  5  5  5  5  5  5  5  5  6  6  6  6  6
CENTRE ASSIGNMENTS    6  6  6  6  6  6  6  6  6  6  6  6  6  6  6  6  6  6  6  6
CENTRE ASSIGNMENTS    6  6  6  6  6  6  6  6  6  6  6  6  6  6  6  6  6  6  6  6
CENTRE ASSIGNMENTS    6  6  6  6  6  6  6  6  6  6  6  6  6  6  6  6  6  6  6  6
CENTRE ASSIGNMENTS    6  6  6  6  6  6  6  6  6  6
TYPE ASSIGNMENTS      1  1  1  1  1  1  1  1  1  1  1  1  1  1  1  1  1  1  1  2
TYPE ASSIGNMENTS      2  2  3  3  3  4  4  4  2  3  4  2  3  4  2  3  4  5  6  7
TYPE ASSIGNMENTS      8  9 10  5  6  7  8  9 10  5  6  7  8  9 10 11 12 13 17 14
TYPE ASSIGNMENTS     15 18 19 16 20 11 12 13 17 14 15 18 19 16 20  1  1  1  1  1
TYPE ASSIGNMENTS      1  1  1  1  1  1  1  1  1  1  1  1  1  1  2  2  2  3  3  3
TYPE ASSIGNMENTS      4  4  4  2  3  4  2  3  4  2  3  4  5  6  7  8  9 10  5  6
TYPE ASSIGNMENTS      7  8  9 10  5  6  7  8  9 10 11 12 13 17 14 15 18 19 16 20
TYPE ASSIGNMENTS     11 12 13 17 14 15 18 19 16 20  1  1  1  1  1  1  1  1  1  1
TYPE ASSIGNMENTS      1  1  1  1  1  1  1  1  1  2  2  2  3  3  3  4  4  4  2  3
TYPE ASSIGNMENTS      4  2  3  4  2  3  4  5  6  7  8  9 10  5  6  7  8  9 10  5
TYPE ASSIGNMENTS      6  7  8  9 10 11 12 13 17 14 15 18 19 16 20 11 12 13 17 14
TYPE ASSIGNMENTS     15 18 19 16 20  1  1  1  1  1  1  1  1  1  1  1  1  1  1  1
TYPE ASSIGNMENTS      1  1  1  1  2  2  2  3  3  3  4  4  4  2  3  4  2  3  4  2
TYPE ASSIGNMENTS      3  4  5  6  7  8  9 10  5  6  7  8  9 10  5  6  7  8  9 10
TYPE ASSIGNMENTS     11 12 13 17 14 15 18 19 16 20 11 12 13 17 14 15 18 19 16 20
TYPE ASSIGNMENTS      1  1  1  1  1  1  1  1  1  1  1  1  1  1  1  1  1  1  1  2
TYPE ASSIGNMENTS      2  2  3  3  3  4  4  4  2  3  4  2  3  4  2  3  4  5  6  7
TYPE ASSIGNMENTS      8  9 10  5  6  7  8  9 10  5  6  7  8  9 10 11 12 13 17 14
TYPE ASSIGNMENTS     15 18 19 16 20 11 12 13 17 14 15 18 19 16 20  1  1  1  1  1
TYPE ASSIGNMENTS      1  1  1  1  1  1  1  1  1  1  1  1  1  1  2  2  2  3  3  3
TYPE ASSIGNMENTS      4  4  4  2  3  4  2  3  4  2  3  4  5  6  7  8  9 10  5  6
TYPE ASSIGNMENTS      7  8  9 10  5  6  7  8  9 10 11 12 13 17 14 15 18 19 16 20
TYPE ASSIGNMENTS     11 12 13 17 14 15 18 19 16 20
EXPONENTS  0.1142000D+05 0.1712000D+04 0.3893000D+03 0.1100000D+03 0.3557000D+02
EXPONENTS  0.1254000D+02 0.4644000D+01 0.5118000D+00 0.1142000D+05 0.1712000D+04
EXPONENTS  0.3893000D+03 0.1100000D+03 0.3557000D+02 0.1254000D+02 0.4644000D+01
EXPONENTS  0.5118000D+00 0.1293000D+01 0.1787000D+00 0.5760000D-01 0.2663000D+02
EXPONENTS  0.5948000D+01 0.1742000D+01 0.2663000D+02 0.5948000D+01 0.1742000D+01
EXPONENTS  0.2663000D+02 0.5948000D+01 0.1742000D+01 0.5550000D+00 0.5550000D+00
EXPONENTS  0.5550000D+00 0.1725000D+00 0.1725000D+00 0.1725000D+00 0.4910000D-01
EXPONENTS  0.4910000D-01 0.4910000D-01 0.1654000D+01 0.1654000D+01 0.1654000D+01
EXPONENTS  0.1654000D+01 0.1654000D+01 0.1654000D+01 0.4690000D+00 0.4690000D+00
EXPONENTS  0.4690000D+00 0.4690000D+00 0.4690000D+00 0.4690000D+00 0.1510000D+00
EXPONENTS  0.1510000D+00 0.1510000D+00 0.1510000D+00 0.1510000D+00 0.1510000D+00
EXPONENTS  0.1093000D+01 0.1093000D+01 0.1093000D+01 0.1093000D+01 0.1093000D+01
EXPONENTS  0.1093000D+01 0.1093000D+01 0.1093000D+01 0.1093000D+01 0.1093000D+01
EXPONENTS  0.3640000D+00 0.3640000D+00 0.3640000D+00 0.3640000D+00 0.3640000D+00
EXPONENTS  0.3640000D+00 0.3640000D+00 0.3640000D+00 0.3640000D+00 0.3640000D+00
EXPONENTS  0.1950000D+05 0.2923000D+04 0.6645000D+03 0.1875000D+03 0.6062000D+02
EXPONENTS  0.2142000D+02 0.7950000D+01 0.8815000D+00 0.1950000D+05 0.2923000D+04
EXPONENTS  0.6645000D+03 0.1875000D+03 0.6062000D+02 0.2142000D+02 0.7950000D+01
EXPONENTS  0.8815000D+00 0.2257000D+01 0.3041000D+00 0.9158000D-01 0.4388000D+02
EXPONENTS  0.9926000D+01 0.2930000D+01 0.4388000D+02 0.9926000D+01 0.2930000D+01
EXPONENTS  0.4388000D+02 0.9926000D+01 0.2930000D+01 0.9132000D+00 0.9132000D+00
EXPONENTS  0.9132000D+00 0.2672000D+00 0.2672000D+00 0.2672000D+00 0.7361000D-01
EXPONENTS  0.7361000D-01 0.7361000D-01 0.3107000D+01 0.3107000D+01 0.3107000D+01
EXPONENTS  0.3107000D+01 0.3107000D+01 0.3107000D+01 0.8550000D+00 0.8550000D+00
EXPONENTS  0.8550000D+00 0.8550000D+00 0.8550000D+00 0.8550000D+00 0.2920000D+00
EXPONENTS  0.2920000D+00 0.2920000D+00 0.2920000D+00 0.2920000D+00 0.2920000D+00
EXPONENTS  0.1917000D+01 0.1917000D+01 0.1917000D+01 0.1917000D+01 0.1917000D+01
EXPONENTS  0.1917000D+01 0.1917000D+01 0.1917000D+01 0.1917000D+01 0.1917000D+01
EXPONENTS  0.7240000D+00 0.7240000D+00 0.7240000D+00 0.7240000D+00 0.7240000D+00
EXPONENTS  0.7240000D+00 0.7240000D+00 0.7240000D+00 0.7240000D+00 0.7240000D+00
EXPONENTS  0.1950000D+05 0.2923000D+04 0.6645000D+03 0.1875000D+03 0.6062000D+02
EXPONENTS  0.2142000D+02 0.7950000D+01 0.8815000D+00 0.1950000D+05 0.2923000D+04
EXPONENTS  0.6645000D+03 0.1875000D+03 0.6062000D+02 0.2142000D+02 0.7950000D+01
EXPONENTS  0.8815000D+00 0.2257000D+01 0.3041000D+00 0.9158000D-01 0.4388000D+02
EXPONENTS  0.9926000D+01 0.2930000D+01 0.4388000D+02 0.9926000D+01 0.2930000D+01
EXPONENTS  0.4388000D+02 0.9926000D+01 0.2930000D+01 0.9132000D+00 0.9132000D+00
EXPONENTS  0.9132000D+00 0.2672000D+00 0.2672000D+00 0.2672000D+00 0.7361000D-01
EXPONENTS  0.7361000D-01 0.7361000D-01 0.3107000D+01 0.3107000D+01 0.3107000D+01
EXPONENTS  0.3107000D+01 0.3107000D+01 0.3107000D+01 0.8550000D+00 0.8550000D+00
EXPONENTS  0.8550000D+00 0.8550000D+00 0.8550000D+00 0.8550000D+00 0.2920000D+00
EXPONENTS  0.2920000D+00 0.2920000D+00 0.2920000D+00 0.2920000D+00 0.2920000D+00
EXPONENTS  0.1917000D+01 0.1917000D+01 0.1917000D+01 0.1917000D+01 0.1917000D+01
EXPONENTS  0.1917000D+01 0.1917000D+01 0.1917000D+01 0.1917000D+01 0.1917000D+01
EXPONENTS  0.7240000D+00 0.7240000D+00 0.7240000D+00 0.7240000D+00 0.7240000D+00
EXPONENTS  0.7240000D+00 0.7240000D+00 0.7240000D+00 0.7240000D+00 0.7240000D+00
EXPONENTS  0.1950000D+05 0.2923000D+04 0.6645000D+03 0.1875000D+03 0.6062000D+02
EXPONENTS  0.2142000D+02 0.7950000D+01 0.8815000D+00 0.1950000D+05 0.2923000D+04
EXPONENTS  0.6645000D+03 0.1875000D+03 0.6062000D+02 0.2142000D+02 0.7950000D+01
EXPONENTS  0.8815000D+00 0.2257000D+01 0.3041000D+00 0.9158000D-01 0.4388000D+02
EXPONENTS  0.9926000D+01 0.2930000D+01 0.4388000D+02 0.9926000D+01 0.2930000D+01
EXPONENTS  0.4388000D+02 0.9926000D+01 0.2930000D+01 0.9132000D+00 0.9132000D+00
EXPONENTS  0.9132000D+00 0.2672000D+00 0.2672000D+00 0.2672000D+00 0.7361000D-01
EXPONENTS  0.7361000D-01 0.7361000D-01 0.3107000D+01 0.3107000D+01 0.3107000D+01
EXPONENTS  0.3107000D+01 0.3107000D+01 0.3107000D+01 0.8550000D+00 0.8550000D+00
EXPONENTS  0.8550000D+00 0.8550000D+00 0.8550000D+00 0.8550000D+00 0.2920000D+00
EXPONENTS  0.2920000D+00 0.2920000D+00 0.2920000D+00 0.2920000D+00 0.2920000D+00
EXPONENTS  0.1917000D+01 0.1917000D+01 0.1917000D+01 0.1917000D+01 0.1917000D+01
EXPONENTS  0.1917000D+01 0.1917000D+01 0.1917000D+01 0.1917000D+01 0.1917000D+01
EXPONENTS  0.7240000D+00 0.7240000D+00 0.7240000D+00 0.7240000D+00 0.7240000D+00
EXPONENTS  0.7240000D+00 0.7240000D+00 0.7240000D+00 0.7240000D+00 0.7240000D+00
EXPONENTS  0.1950000D+05 0.2923000D+04 0.6645000D+03 0.1875000D+03 0.6062000D+02
EXPONENTS  0.2142000D+02 0.7950000D+01 0.8815000D+00 0.1950000D+05 0.2923000D+04
EXPONENTS  0.6645000D+03 0.1875000D+03 0.6062000D+02 0.2142000D+02 0.7950000D+01
EXPONENTS  0.8815000D+00 0.2257000D+01 0.3041000D+00 0.9158000D-01 0.4388000D+02
EXPONENTS  0.9926000D+01 0.2930000D+01 0.4388000D+02 0.9926000D+01 0.2930000D+01
EXPONENTS  0.4388000D+02 0.9926000D+01 0.2930000D+01 0.9132000D+00 0.9132000D+00
EXPONENTS  0.9132000D+00 0.2672000D+00 0.2672000D+00 0.2672000D+00 0.7361000D-01
EXPONENTS  0.7361000D-01 0.7361000D-01 0.3107000D+01 0.3107000D+01 0.3107000D+01
EXPONENTS  0.3107000D+01 0.3107000D+01 0.3107000D+01 0.8550000D+00 0.8550000D+00
EXPONENTS  0.8550000D+00 0.8550000D+00 0.8550000D+00 0.8550000D+00 0.2920000D+00
EXPONENTS  0.2920000D+00 0.2920000D+00 0.2920000D+00 0.2920000D+00 0.2920000D+00
EXPONENTS  0.1917000D+01 0.1917000D+01 0.1917000D+01 0.1917000D+01 0.1917000D+01
EXPONENTS  0.1917000D+01 0.1917000D+01 0.1917000D+01 0.1917000D+01 0.1917000D+01
EXPONENTS  0.7240000D+00 0.7240000D+00 0.7240000D+00 0.7240000D+00 0.7240000D+00
EXPONENTS  0.7240000D+00 0.7240000D+00 0.7240000D+00 0.7240000D+00 0.7240000D+00
EXPONENTS  0.1950000D+05 0.2923000D+04 0.6645000D+03 0.1875000D+03 0.6062000D+02
EXPONENTS  0.2142000D+02 0.7950000D+01 0.8815000D+00 0.1950000D+05 0.2923000D+04
EXPONENTS  0.6645000D+03 0.1875000D+03 0.6062000D+02 0.2142000D+02 0.7950000D+01
EXPONENTS  0.8815000D+00 0.2257000D+01 0.3041000D+00 0.9158000D-01 0.4388000D+02
EXPONENTS  0.9926000D+01 0.2930000D+01 0.4388000D+02 0.9926000D+01 0.2930000D+01
EXPONENTS  0.4388000D+02 0.9926000D+01 0.2930000D+01 0.9132000D+00 0.9132000D+00
EXPONENTS  0.9132000D+00 0.2672000D+00 0.2672000D+00 0.2672000D+00 0.7361000D-01
EXPONENTS  0.7361000D-01 0.7361000D-01 0.3107000D+01 0.3107000D+01 0.3107000D+01
EXPONENTS  0.3107000D+01 0.3107000D+01 0.3107000D+01 0.8550000D+00 0.8550000D+00
EXPONENTS  0.8550000D+00 0.8550000D+00 0.8550000D+00 0.8550000D+00 0.2920000D+00
EXPONENTS  0.2920000D+00 0.2920000D+00 0.2920000D+00 0.2920000D+00 0.2920000D+00
EXPONENTS  0.1917000D+01 0.1917000D+01 0.1917000D+01 0.1917000D+01 0.1917000D+01
EXPONENTS  0.1917000D+01 0.1917000D+01 0.1917000D+01 0.1917000D+01 0.1917000D+01
EXPONENTS  0.7240000D+00 0.7240000D+00 0.7240000D+00 0.7240000D+00 0.7240000D+00
EXPONENTS  0.7240000D+00 0.7240000D+00 0.7240000D+00 0.7240000D+00 0.7240000D+00
MO    1     MO 0.0        OCC NO =    2.0000000  ORB. ENERGY =  -24.607306
  0.15516822D-10  0.28913313D-10  0.48899660D-10  0.73640179D-10  0.91171318D-10
  0.77582677D-10  0.29521640D-10 -0.13826243D-12 -0.84915002D-11 -0.15921642D-10
 -0.27087451D-10 -0.42063951D-10 -0.55821310D-10 -0.58827998D-10 -0.36477112D-10
  0.24264589D-10 -0.97612230D-10  0.39430079D-09  0.63153658D-10  0.10047486D-09
  0.96504904D-10  0.67675900D-10 -0.12698546D-02 -0.12196802D-02 -0.85532393D-03
 -0.33910407D-15 -0.32570540D-15 -0.22840711D-15 -0.11168543D-09  0.14119129D-02
  0.17064960D-15 -0.79768783D-10  0.10032647D-02  0.89420821D-15 -0.67633116D-12
  0.82385317D-05  0.26814971D-16 -0.23264448D-10  0.24669779D-10 -0.14053309D-11
 -0.60527082D-03 -0.32543367D-15  0.57103842D-15  0.54539477D-11  0.10634576D-09
 -0.11179971D-09 -0.12947501D-02  0.30998528D-16 -0.55009175D-15 -0.70935034D-11
  0.60527344D-11  0.10407690D-11 -0.16759638D-03  0.59156771D-18 -0.14567907D-16
  0.51064191D-10  0.40724391D-03 -0.22184973D-16 -0.28278704D-09  0.41757048D-03
  0.39761864D-16  0.12959446D-09 -0.16393022D-02  0.26793056D-16  0.88764927D-14
  0.17209882D-10 -0.76635212D-04  0.11757525D-15 -0.27195492D-10 -0.79710696D-04
 -0.17905784D-15 -0.24434154D-10  0.30961633D-03 -0.17366791D-15  0.36766256D-15
  0.42033692D+00  0.78352623D+00  0.13282696D+01  0.20113916D+01  0.25152523D+01
  0.21653979D+01  0.83245801D+00 -0.36071768D-02  0.95924031D-04  0.18012834D-03
  0.30672750D-03  0.48048682D-03  0.64390886D-03  0.69261080D-03  0.41584261D-03
 -0.27347560D-03  0.45518422D-01 -0.81007131D-03 -0.40648481D-03  0.25001959D-02
  0.24451369D-02  0.16156054D-02 -0.44525701D-02 -0.43545163D-02 -0.28772130D-02
 -0.17825081D-13 -0.17432540D-13 -0.11518416D-13 -0.41247010D-03  0.82143133D-03
  0.85847916D-15 -0.31091141D-03  0.57539896D-03 -0.20194417D-16 -0.17359817D-04
  0.40674132D-04  0.25477611D-16 -0.43718692D-03 -0.33206370D-03  0.76925062D-03
  0.27118639D-03 -0.13336662D-13  0.22991212D-13  0.22777806D-03 -0.40756015D-03
  0.17978209D-03  0.80579817D-03  0.84591938D-15 -0.15083065D-14  0.10613679D-04
 -0.76839235D-04  0.66225556D-04  0.14907420D-03 -0.30188147D-16  0.20931106D-16
 -0.12451301D-03  0.62437903D-05  0.53122890D-15  0.38213209D-03 -0.59558336D-04
  0.19922310D-16 -0.85930754D-05  0.40826965D-04 -0.16136090D-14  0.24634224D-14
  0.15629845D-03  0.72398240D-04 -0.87914312D-16 -0.57849582D-03  0.27024937D-04
 -0.35071513D-16  0.10960048D-03 -0.24421966D-03  0.29881445D-15 -0.42975135D-15
 -0.42033680D+00 -0.78352601D+00 -0.13282692D+01 -0.20113911D+01 -0.25152516D+01
 -0.21653973D+01 -0.83245778D+00  0.36071759D-02 -0.95924012D-04 -0.18012831D-03
 -0.30672744D-03 -0.48048672D-03 -0.64390873D-03 -0.69261066D-03 -0.41584253D-03
  0.27347554D-03 -0.45518410D-01  0.81007100D-03  0.40648465D-03 -0.25001951D-02
 -0.24451362D-02 -0.16156049D-02 -0.44525689D-02 -0.43545151D-02 -0.28772123D-02
  0.17704711D-13  0.17314820D-13  0.11440634D-13  0.41246995D-03  0.82143111D-03
 -0.72130368D-15  0.31091126D-03  0.57539871D-03 -0.69684574D-16  0.17359810D-04
  0.40674121D-04  0.49091112D-17  0.43718688D-03  0.33206357D-03 -0.76925045D-03
  0.27118638D-03  0.13170374D-13  0.22681641D-13 -0.22777804D-03  0.40756006D-03
 -0.17978202D-03  0.80579790D-03 -0.75591816D-15 -0.13368784D-14 -0.10613673D-04
  0.76839201D-04 -0.66225528D-04  0.14907413D-03  0.30507724D-16  0.22577710D-16
  0.12451302D-03  0.62438021D-05 -0.57420325D-15 -0.38213210D-03 -0.59558341D-04
  0.30835177D-15  0.85930528D-05  0.40826935D-04  0.14142580D-14  0.19181134D-14
 -0.15629842D-03  0.72398222D-04  0.77629872D-16  0.57849568D-03  0.27024905D-04
 -0.10855478D-17 -0.10960042D-03 -0.24421957D-03 -0.23180407D-15 -0.23800388D-15
 -0.58556070D-10 -0.10915105D-09 -0.18503787D-09 -0.28020186D-09 -0.35039341D-09
 -0.30165609D-09 -0.11596761D-09  0.50250665D-12 -0.35478488D-11 -0.66622316D-11
 -0.11344631D-10 -0.17771298D-10 -0.23815630D-10 -0.25616921D-10 -0.15380366D-10
  0.10114776D-10 -0.91734978D-11 -0.42981305D-10 -0.22897219D-10 -0.31478326D-11
 -0.30785115D-11 -0.20341027D-11 -0.13857952D-03 -0.13552774D-03 -0.89548911D-04
 -0.56504979D-16 -0.55260635D-16 -0.36513038D-16  0.10502983D-10  0.11045547D-03
  0.52213742D-16  0.55431140D-10  0.44566817D-04 -0.33489444D-16  0.26491804D-12
  0.10660654D-04  0.14957690D-16  0.80708312D-11  0.90469075D-11 -0.17117739D-10
  0.45686556D-03  0.16544160D-15  0.16260660D-15 -0.10716027D-10 -0.54920382D-12
  0.11265231D-10 -0.30664813D-03 -0.89971327D-16 -0.59227926D-16 -0.10895355D-10
  0.61423266D-11  0.47530289D-11 -0.75186752D-05 -0.10008653D-16 -0.30125830D-16
  0.16210189D-10 -0.33889722D-04 -0.15367638D-16 -0.61586945D-10  0.69943752D-04
 -0.19988734D-15  0.12956378D-10  0.31725414D-04  0.24599025D-15 -0.51816295D-15
  0.70563793D-13 -0.12543731D-04 -0.43594433D-17  0.14720873D-10  0.94365966D-04
  0.71402867D-16 -0.14932564D-10 -0.56734772D-04 -0.58324537D-16  0.17663198D-15
  0.82973364D-11  0.15466595D-10  0.26219680D-10  0.39704323D-10  0.49650396D-10
  0.42744366D-10  0.16432495D-10 -0.71204689D-13 -0.52729296D-11 -0.99016280D-11
 -0.16860765D-10 -0.26412288D-10 -0.35395573D-10 -0.38072712D-10 -0.22858806D-10
  0.15032913D-10 -0.70331010D-11 -0.35681191D-10 -0.53106495D-11 -0.58312024D-11
 -0.57027886D-11 -0.37680736D-11  0.74825134D-04  0.73177347D-04  0.48351367D-04
  0.69780831D-11  0.68244129D-11  0.45091781D-11 -0.16092874D-11  0.19342245D-04
 -0.68870977D-11  0.20862081D-10 -0.26266962D-03  0.10286882D-10 -0.60384208D-12
  0.77466002D-05 -0.14735355D-11  0.10044850D-11  0.12149065D-10 -0.13153550D-10
 -0.14397949D-03  0.62962944D-10 -0.79729287D-03 -0.41945362D-11 -0.73652063D-11
  0.11559743D-10  0.41236938D-04 -0.25557946D-10  0.32405972D-03 -0.14057692D-11
 -0.32131731D-11  0.46189423D-11  0.22963635D-04 -0.15423039D-10  0.19436987D-03
  0.12246107D-11 -0.12153060D-03  0.29505211D-10  0.34765837D-10 -0.12189783D-03
 -0.45834107D-10 -0.38439669D-10  0.48648963D-03 -0.42681526D-10 -0.39995774D-04
 -0.47538213D-11  0.81336956D-04 -0.15876178D-10 -0.11447040D-10  0.81371792D-04
  0.20621529D-10  0.25708504D-10 -0.32538266D-03  0.27007005D-10 -0.82107855D-04
  0.82951211D-11  0.15462465D-10  0.26212680D-10  0.39693723D-10  0.49637139D-10
  0.42732953D-10  0.16428107D-10 -0.71185678D-13 -0.52727497D-11 -0.99012901D-11
 -0.16860189D-10 -0.26411387D-10 -0.35394366D-10 -0.38071413D-10 -0.22858026D-10
  0.15032400D-10 -0.70331292D-11 -0.35680004D-10 -0.53098117D-11 -0.58311394D-11
 -0.57027270D-11 -0.37680328D-11  0.74825134D-04  0.73177347D-04  0.48351367D-04
 -0.69777585D-11 -0.68240954D-11 -0.45089684D-11 -0.16093342D-11  0.19342245D-04
  0.68868698D-11  0.20862108D-10 -0.26266962D-03 -0.10285716D-10 -0.60384156D-12
  0.77466002D-05  0.14736212D-11  0.10047948D-11  0.12149361D-10 -0.13154155D-10
 -0.14397949D-03 -0.62962901D-10  0.79729287D-03 -0.41946850D-11 -0.73653651D-11
  0.11560050D-10  0.41236938D-04  0.25557898D-10 -0.32405972D-03 -0.14058547D-11
 -0.32132576D-11  0.46191123D-11  0.22963635D-04  0.15423060D-10 -0.19436987D-03
  0.12246205D-11 -0.12153060D-03 -0.29505446D-10  0.34765870D-10 -0.12189783D-03
  0.45834432D-10 -0.38439732D-10  0.48648963D-03  0.42681905D-10  0.39995774D-04
 -0.47538216D-11  0.81336956D-04  0.15876291D-10 -0.11447058D-10  0.81371792D-04
 -0.20621693D-10  0.25708523D-10 -0.32538266D-03 -0.27007181D-10  0.82107855D-04
MO    2     MO 0.0        OCC NO =    2.0000000  ORB. ENERGY =  -24.607306
  0.11361018D-03  0.21169585D-03  0.35803075D-03  0.53917447D-03  0.66753297D-03
  0.56804043D-03  0.21614986D-03 -0.10123220D-05 -0.62165198D-04 -0.11656033D-03
 -0.19830380D-03 -0.30794486D-03 -0.40866074D-03 -0.43067233D-03 -0.26704432D-03
  0.17763798D-03 -0.71501226D-03  0.28886025D-02  0.46266347D-03  0.73595395D-03
  0.70687497D-03  0.49570952D-03  0.17337061D-09  0.16652040D-09  0.11677560D-09
  0.41186446D-15  0.39559089D-15  0.27741564D-15 -0.81808357D-03 -0.19276515D-09
 -0.41669785D-15 -0.58433328D-03 -0.13695413D-09  0.72109736D-15 -0.49533171D-05
 -0.11283611D-11  0.23612719D-15 -0.17041179D-03  0.18062950D-03 -0.10217715D-04
  0.82647942D-10 -0.49618012D-15 -0.38012864D-16  0.39945446D-04  0.77900129D-03
 -0.81894673D-03  0.17676410D-09  0.35868608D-15  0.11989936D-16 -0.51936984D-04
  0.44361706D-04  0.75752782D-05  0.22878547D-10  0.22337460D-16  0.12992369D-16
  0.37401690D-03 -0.55600920D-10 -0.57953800D-16 -0.20712790D-02 -0.57010793D-10
  0.23283606D-15  0.94922834D-03  0.22381355D-09 -0.58974661D-16  0.14943868D-16
  0.12607671D-03  0.10465368D-10  0.66311885D-16 -0.19926128D-03  0.10877135D-10
  0.17019096D-16 -0.17896884D-03 -0.42273241D-10 -0.21595475D-15  0.75273416D-17
  0.42037694D+00  0.78360082D+00  0.13283960D+01  0.20115831D+01  0.25154917D+01
  0.21656041D+01  0.83253727D+00 -0.36075203D-02  0.69341385D-04  0.13021084D-03
  0.22172661D-03  0.34733342D-03  0.46546764D-03  0.50067320D-03  0.30060353D-03
 -0.19768953D-03  0.45500908D-01 -0.11286140D-02 -0.57462487D-03  0.26333410D-02
  0.25753499D-02  0.17016426D-02 -0.44063990D-02 -0.43093620D-02 -0.28473776D-02
 -0.17701798D-13 -0.17311972D-13 -0.11438752D-13 -0.54619986D-03  0.83079019D-03
  0.82242501D-15 -0.54924456D-03  0.90760518D-03 -0.20181744D-15 -0.27474047D-04
  0.36898922D-04 -0.14791700D-15 -0.17868102D-03 -0.46484880D-03  0.64352982D-03
  0.56733466D-04 -0.13434332D-13  0.22718733D-13  0.73800622D-04 -0.33598452D-03
  0.26218389D-03  0.10199756D-02  0.90148241D-15 -0.14529698D-14  0.22158347D-04
 -0.12328060D-03  0.10112226D-03  0.25832412D-03 -0.11791307D-15  0.23160941D-15
  0.39210860D-04 -0.42988804D-04  0.36328132D-15 -0.35159805D-04  0.18041940D-04
 -0.23199349D-15 -0.82472775D-04  0.11092447D-03 -0.85785047D-15  0.19524583D-14
  0.10249567D-03  0.64835332D-04 -0.22202360D-16 -0.52059882D-03  0.11758180D-03
  0.47452382D-16  0.21311181D-03 -0.31208779D-03  0.19154698D-16 -0.20621611D-15
  0.42037705D+00  0.78360104D+00  0.13283964D+01  0.20115837D+01  0.25154924D+01
  0.21656047D+01  0.83253749D+00 -0.36075212D-02  0.69341412D-04  0.13021089D-03
  0.22172669D-03  0.34733355D-03  0.46546782D-03  0.50067339D-03  0.30060365D-03
 -0.19768961D-03  0.45500921D-01 -0.11286142D-02 -0.57462499D-03  0.26333416D-02
  0.25753506D-02  0.17016430D-02  0.44064002D-02  0.43093631D-02  0.28473784D-02
 -0.17798557D-13 -0.17406600D-13 -0.11501276D-13 -0.54619997D-03 -0.83079041D-03
  0.87990109D-15 -0.54924464D-03 -0.90760534D-03 -0.22863017D-15 -0.27474051D-04
 -0.36898933D-04 -0.14699697D-15 -0.17868113D-03 -0.46484889D-03  0.64353003D-03
 -0.56733540D-04 -0.13385839D-13 -0.22797691D-13  0.73800684D-04 -0.33598463D-03
  0.26218394D-03 -0.10199758D-02  0.90630502D-15  0.14887720D-14  0.22158349D-04
 -0.12328063D-03  0.10112228D-03 -0.25832416D-03 -0.12893569D-15 -0.26419715D-15
  0.39210826D-04  0.42988802D-04  0.38551518D-15 -0.35159701D-04 -0.18041924D-04
 -0.34030455D-15 -0.82472778D-04 -0.11092448D-03 -0.81624099D-15 -0.17259111D-14
  0.10249571D-03 -0.64835352D-04 -0.28589655D-16 -0.52059898D-03 -0.11758180D-03
  0.82709802D-16  0.21311184D-03  0.31208786D-03  0.30591625D-17  0.13594208D-15
 -0.43329111D-03 -0.80767340D-03 -0.13692050D-02 -0.20733799D-02 -0.25927688D-02
 -0.22321324D-02 -0.85811320D-03  0.37183450D-05 -0.25993069D-04 -0.48810379D-04
 -0.83115658D-04 -0.13020019D-03 -0.17448357D-03 -0.18768060D-03 -0.11268319D-03
  0.74105205D-04 -0.67662121D-04 -0.31495521D-03 -0.16779095D-03 -0.23046334D-04
 -0.22538811D-04 -0.14892346D-04  0.18914247D-10  0.18497720D-10  0.12222226D-10
  0.26401590D-16  0.25820178D-16  0.17060484D-16  0.76966650D-04 -0.15075787D-10
  0.49888931D-16  0.40607838D-03 -0.60842445D-11 -0.27784456D-15  0.19448055D-05
 -0.14530494D-11 -0.11729998D-15  0.59165732D-04  0.66212619D-04 -0.12537835D-03
 -0.62372863D-10 -0.23496774D-15 -0.17043655D-16 -0.78515533D-04 -0.39957418D-05
  0.82511275D-04  0.41863424D-10  0.78978309D-16  0.69895841D-17 -0.79806445D-04
  0.44983018D-04  0.34823426D-04  0.10245882D-11  0.21515432D-15 -0.62235705D-17
  0.11874250D-03  0.46287270D-11 -0.15570599D-15 -0.45113660D-03 -0.95536524D-11
  0.50962964D-15  0.94909106D-04 -0.43325287D-11 -0.42511661D-16 -0.30698315D-16
  0.51345275D-06  0.17113747D-11  0.68675566D-16  0.10783297D-03 -0.12879954D-10
 -0.26796873D-15 -0.10937333D-03  0.77458295D-11  0.61942027D-16  0.13421664D-16
  0.60763143D-04  0.11326513D-03  0.19201224D-03  0.29076313D-03  0.36360031D-03
  0.31302600D-03  0.12033862D-03 -0.52144695D-06 -0.38618363D-04 -0.72518447D-04
 -0.12348641D-03 -0.19344073D-03 -0.25923333D-03 -0.27884040D-03 -0.16741541D-03
  0.11009942D-03 -0.51515270D-04 -0.26129795D-03 -0.38825547D-04 -0.42716395D-04
 -0.41775701D-04 -0.27602972D-04 -0.10216509D-10 -0.99915223D-11 -0.66018212D-11
  0.51122871D-04  0.49997051D-04  0.33035166D-04 -0.11782225D-04 -0.26402797D-11
 -0.50451241D-04  0.15280459D-03  0.35860940D-10  0.75342848D-04 -0.44252547D-05
 -0.10558970D-11 -0.10806255D-04  0.73754533D-05  0.89013956D-04 -0.96389409D-04
  0.19652899D-10  0.46117840D-03  0.10885254D-09 -0.30732757D-04 -0.53961575D-04
  0.84694332D-04 -0.56280948D-11 -0.18720194D-03 -0.44243136D-10 -0.10292878D-04
 -0.23527837D-04  0.33820715D-04 -0.31359196D-11 -0.11296617D-03 -0.26537056D-10
  0.89673455D-05  0.16592068D-10  0.21609441D-03  0.25464758D-03  0.16643207D-10
 -0.33570790D-03 -0.28154962D-03 -0.66419411D-10 -0.31257532D-03  0.54599403D-11
 -0.34818820D-04 -0.11104886D-10 -0.11628448D-03 -0.83844756D-04 -0.11109764D-10
  0.15104710D-03  0.18830122D-03  0.44424423D-10  0.19780633D-03  0.11210471D-10
  0.60763143D-04  0.11326513D-03  0.19201224D-03  0.29076313D-03  0.36360031D-03
  0.31302600D-03  0.12033862D-03 -0.52144695D-06 -0.38618363D-04 -0.72518447D-04
 -0.12348641D-03 -0.19344073D-03 -0.25923333D-03 -0.27884040D-03 -0.16741541D-03
  0.11009942D-03 -0.51515270D-04 -0.26129795D-03 -0.38825547D-04 -0.42716395D-04
 -0.41775701D-04 -0.27602972D-04 -0.10216307D-10 -0.99913253D-11 -0.66016910D-11
 -0.51122871D-04 -0.49997051D-04 -0.33035166D-04 -0.11782225D-04 -0.26404022D-11
  0.50451241D-04  0.15280459D-03  0.35861013D-10 -0.75342848D-04 -0.44252547D-05
 -0.10558969D-11  0.10806255D-04  0.73754533D-05  0.89013956D-04 -0.96389409D-04
  0.19652838D-10 -0.46117840D-03 -0.10885241D-09 -0.30732757D-04 -0.53961575D-04
  0.84694332D-04 -0.56280662D-11  0.18720194D-03  0.44243074D-10 -0.10292878D-04
 -0.23527837D-04  0.33820715D-04 -0.31359327D-11  0.11296617D-03  0.26537108D-10
  0.89673455D-05  0.16592116D-10 -0.21609441D-03  0.25464758D-03  0.16643254D-10
  0.33570790D-03 -0.28154962D-03 -0.66419602D-10  0.31257532D-03 -0.54598491D-11
 -0.34818820D-04 -0.11104903D-10  0.11628448D-03 -0.83844756D-04 -0.11109780D-10
 -0.15104710D-03  0.18830122D-03  0.44424488D-10 -0.19780633D-03 -0.11210502D-10
MO    3     MO 0.0        OCC NO =    2.0000000  ORB. ENERGY =  -24.607041
  0.78458544D-04  0.14619594D-03  0.24725399D-03  0.37235081D-03  0.46099446D-03
  0.39228548D-03  0.14927186D-03 -0.69910381D-06 -0.42590063D-04 -0.79856767D-04
 -0.13586012D-03 -0.21097642D-03 -0.27997798D-03 -0.29505836D-03 -0.18295501D-03
  0.12170174D-03 -0.50651067D-03  0.20488585D-02  0.32827886D-03 -0.10363732D-02
 -0.99542409D-03 -0.69806008D-03  0.11431254D-14  0.10979583D-14  0.76996412D-15
 -0.53431900D-16 -0.51320701D-16 -0.35989618D-16  0.11491699D-02 -0.10342479D-14
 -0.14728439D-15  0.81620236D-03 -0.87738261D-15  0.99963851D-15  0.66942908D-05
 -0.78338348D-17 -0.79035359D-16  0.24171745D-03 -0.24036753D-03 -0.13499136D-05
  0.45736879D-15  0.85140624D-15 -0.11198223D-16  0.81966960D-03 -0.23738384D-03
 -0.58228576D-03  0.13213953D-14 -0.56492892D-15  0.63084702D-17  0.65614982D-04
 -0.70793209D-04  0.51782267D-05  0.22668261D-15 -0.71482391D-16  0.40277634D-17
  0.76755304D-03 -0.36504244D-15 -0.19994247D-16 -0.96433397D-03 -0.50224438D-15
 -0.14751266D-15 -0.13383252D-02  0.15973717D-14  0.20749540D-15  0.66130398D-17
 -0.51832385D-05  0.12443237D-15  0.15579519D-15 -0.23733184D-03 -0.35595170D-16
 -0.39780935D-15  0.25288155D-03 -0.33770193D-15 -0.69576229D-16 -0.42159740D-17
  0.36194657D-03  0.67468408D-03  0.11437554D-02  0.17319827D-02  0.21658505D-02
  0.18645955D-02  0.71681860D-03 -0.31060923D-05 -0.18306178D-04 -0.34375760D-04
 -0.58535990D-04 -0.91696282D-04 -0.12288381D-03 -0.13217810D-03 -0.79359559D-04
  0.52190185D-04  0.24473790D-04 -0.22878000D-03 -0.12055833D-03 -0.71408190D-04
 -0.69835650D-04 -0.46143366D-04 -0.70876198D-04 -0.69315373D-04 -0.45799598D-04
 -0.31444350D-17 -0.30751887D-17 -0.20319072D-17  0.38197077D-04  0.88599141D-04
  0.12498983D-16 -0.11838413D-03  0.26638720D-03 -0.12145762D-15  0.57934403D-05
  0.50163337D-05  0.82392281D-16 -0.94380145D-04  0.18223578D-03 -0.87855639D-04
  0.16598061D-03  0.31543828D-15 -0.25244745D-15  0.77837980D-04 -0.13683423D-03
  0.58996253D-04 -0.60301185D-04 -0.14615241D-15  0.12638579D-15  0.11733246D-04
 -0.36405361D-04  0.24672116D-04  0.74047310D-04 -0.47900690D-17 -0.29127868D-16
  0.10519079D-03  0.73997922D-06 -0.41207340D-17 -0.30223333D-03 -0.71342074D-04
  0.27093600D-15 -0.13339029D-04  0.69122137D-04 -0.25857380D-15  0.13410220D-15
 -0.20057685D-04  0.40742017D-04  0.66361346D-17  0.56124915D-04 -0.34751477D-04
 -0.92254638D-16  0.40481397D-05 -0.87474575D-04  0.72346235D-16  0.50602609D-16
  0.36194657D-03  0.67468408D-03  0.11437554D-02  0.17319827D-02  0.21658505D-02
  0.18645955D-02  0.71681860D-03 -0.31060923D-05 -0.18306178D-04 -0.34375760D-04
 -0.58535990D-04 -0.91696282D-04 -0.12288381D-03 -0.13217810D-03 -0.79359559D-04
  0.52190185D-04  0.24473790D-04 -0.22878000D-03 -0.12055833D-03 -0.71408190D-04
 -0.69835650D-04 -0.46143366D-04  0.70876198D-04  0.69315373D-04  0.45799598D-04
 -0.15334712D-16 -0.14997013D-16 -0.99091605D-17  0.38197077D-04 -0.88599141D-04
  0.17539033D-16 -0.11838413D-03 -0.26638720D-03 -0.11595024D-15  0.57934403D-05
 -0.50163337D-05  0.82061601D-16 -0.94380145D-04  0.18223578D-03 -0.87855639D-04
 -0.16598061D-03  0.31692681D-15  0.25054265D-15  0.77837980D-04 -0.13683423D-03
  0.58996253D-04  0.60301185D-04 -0.14484305D-15 -0.12132247D-15  0.11733246D-04
 -0.36405361D-04  0.24672116D-04 -0.74047310D-04 -0.46917985D-17  0.29418135D-16
  0.10519079D-03 -0.73997922D-06 -0.22662983D-17 -0.30223333D-03  0.71342074D-04
  0.27369553D-15 -0.13339029D-04 -0.69122137D-04 -0.26689664D-15 -0.13030659D-15
 -0.20057685D-04 -0.40742017D-04  0.56282481D-17  0.56124915D-04  0.34751477D-04