 Molden2AIM, Version 4.0.0 (06/02/2016)           Time: Sat Jun 30 02:45:33 2018
GAUSSIAN              6 MOL ORBITALS    206 PRIMITIVES        4 NUCLEI
  N    1    (CENTRE  1)   0.20261832 -0.11674917 -0.52613755  CHARGE =  7.0
  H    2    (CENTRE  2)   0.46735195 -2.02070871 -0.44359998  CHARGE =  1.0
  H    3    (CENTRE  3)   1.98407259  0.60538510 -0.44365100  CHARGE =  1.0
  Li   4    (CENTRE  4)  -2.65404286  1.53226175 -0.74996994  CHARGE =  3.0
CENTRE ASSIGNMENTS    1  1  1  1  1  1  1  1  1  1  1  1  1  1  1  1  1  1  1  1
CENTRE ASSIGNMENTS    1  1  1  1  1  1  1  1  1  1  1  1  1  1  1  1  1  1  1  1
CENTRE ASSIGNMENTS    1  1  1  1  1  1  1  1  1  1  1  1  1  1  1  1  1  1  1  1
CENTRE ASSIGNMENTS    1  1  1  1  1  1  1  1  1  1  1  1  1  1  1  2  2  2  2  2
CENTRE ASSIGNMENTS    2  2  2  2  2  2  2  2  2  2  2  2  2  2  2  2  2  2  2  2
CENTRE ASSIGNMENTS    2  2  3  3  3  3  3  3  3  3  3  3  3  3  3  3  3  3  3  3
CENTRE ASSIGNMENTS    3  3  3  3  3  3  3  3  3  4  4  4  4  4  4  4  4  4  4  4
CENTRE ASSIGNMENTS    4  4  4  4  4  4  4  4  4  4  4  4  4  4  4  4  4  4  4  4
CENTRE ASSIGNMENTS    4  4  4  4  4  4  4  4  4  4  4  4  4  4  4  4  4  4  4  4
CENTRE ASSIGNMENTS    4  4  4  4  4  4  4  4  4  4  4  4  4  4  4  4  4  4  4  4
CENTRE ASSIGNMENTS    4  4  4  4  4  4
TYPE ASSIGNMENTS      1  1  1  1  1  1  1  1  1  1  1  1  1  1  1  1  1  1  1  2
TYPE ASSIGNMENTS      2  2  3  3  3  4  4  4  2  3  4  2  3  4  2  3  4  5  6  7
TYPE ASSIGNMENTS      8  9 10  5  6  7  8  9 10  5  6  7  8  9 10 11 12 13 17 14
TYPE ASSIGNMENTS     15 18 19 16 20 11 12 13 17 14 15 18 19 16 20  1  1  1  1  1
TYPE ASSIGNMENTS      1  2  3  4  2  3  4  2  3  4  5  6  7  8  9 10  5  6  7  8
TYPE ASSIGNMENTS      9 10  1  1  1  1  1  1  2  3  4  2  3  4  2  3  4  5  6  7
TYPE ASSIGNMENTS      8  9 10  5  6  7  8  9 10  1  1  1  1  1  1  1  1  1  1  1
TYPE ASSIGNMENTS      1  1  1  1  1  1  1  1  1  1  2  2  2  3  3  3  4  4  4  2
TYPE ASSIGNMENTS      3  4  2  3  4  2  3  4  5  6  7  8  9 10  5  6  7  8  9 10
TYPE ASSIGNMENTS      5  6  7  8  9 10 11 12 13 17 14 15 18 19 16 20 11 12 13 17
TYPE ASSIGNMENTS     14 15 18 19 16 20
EXPONENTS  0.1142000D+05 0.1712000D+04 0.3893000D+03 0.1100000D+03 0.3557000D+02
EXPONENTS  0.1254000D+02 0.4644000D+01 0.5118000D+00 0.1142000D+05 0.1712000D+04
EXPONENTS  0.3893000D+03 0.1100000D+03 0.3557000D+02 0.1254000D+02 0.4644000D+01
EXPONENTS  0.5118000D+00 0.1293000D+01 0.1787000D+00 0.5760000D-01 0.2663000D+02
EXPONENTS  0.5948000D+01 0.1742000D+01 0.2663000D+02 0.5948000D+01 0.1742000D+01
EXPONENTS  0.2663000D+02 0.5948000D+01 0.1742000D+01 0.5550000D+00 0.5550000D+00
EXPONENTS  0.5550000D+00 0.1725000D+00 0.1725000D+00 0.1725000D+00 0.4910000D-01
EXPONENTS  0.4910000D-01 0.4910000D-01 0.1654000D+01 0.1654000D+01 0.1654000D+01
EXPONENTS  0.1654000D+01 0.1654000D+01 0.1654000D+01 0.4690000D+00 0.4690000D+00
EXPONENTS  0.4690000D+00 0.4690000D+00 0.4690000D+00 0.4690000D+00 0.1510000D+00
EXPONENTS  0.1510000D+00 0.1510000D+00 0.1510000D+00 0.1510000D+00 0.1510000D+00
EXPONENTS  0.1093000D+01 0.1093000D+01 0.1093000D+01 0.1093000D+01 0.1093000D+01
EXPONENTS  0.1093000D+01 0.1093000D+01 0.1093000D+01 0.1093000D+01 0.1093000D+01
EXPONENTS  0.3640000D+00 0.3640000D+00 0.3640000D+00 0.3640000D+00 0.3640000D+00
EXPONENTS  0.3640000D+00 0.3640000D+00 0.3640000D+00 0.3640000D+00 0.3640000D+00
EXPONENTS  0.3387000D+02 0.5095000D+01 0.1159000D+01 0.3258000D+00 0.1027000D+00
EXPONENTS  0.2526000D-01 0.1407000D+01 0.1407000D+01 0.1407000D+01 0.3880000D+00
EXPONENTS  0.3880000D+00 0.3880000D+00 0.1020000D+00 0.1020000D+00 0.1020000D+00
EXPONENTS  0.1057000D+01 0.1057000D+01 0.1057000D+01 0.1057000D+01 0.1057000D+01
EXPONENTS  0.1057000D+01 0.2470000D+00 0.2470000D+00 0.2470000D+00 0.2470000D+00
EXPONENTS  0.2470000D+00 0.2470000D+00 0.3387000D+02 0.5095000D+01 0.1159000D+01
EXPONENTS  0.3258000D+00 0.1027000D+00 0.2526000D-01 0.1407000D+01 0.1407000D+01
EXPONENTS  0.1407000D+01 0.3880000D+00 0.3880000D+00 0.3880000D+00 0.1020000D+00
EXPONENTS  0.1020000D+00 0.1020000D+00 0.1057000D+01 0.1057000D+01 0.1057000D+01
EXPONENTS  0.1057000D+01 0.1057000D+01 0.1057000D+01 0.2470000D+00 0.2470000D+00
EXPONENTS  0.2470000D+00 0.2470000D+00 0.2470000D+00 0.2470000D+00 0.5988000D+04
EXPONENTS  0.8989000D+03 0.2059000D+03 0.5924000D+02 0.1987000D+02 0.7406000D+01
EXPONENTS  0.2930000D+01 0.1189000D+01 0.4798000D+00 0.5988000D+04 0.8989000D+03
EXPONENTS  0.2059000D+03 0.5924000D+02 0.1987000D+02 0.7406000D+01 0.2930000D+01
EXPONENTS  0.1189000D+01 0.4798000D+00 0.7509000D-01 0.2832000D-01 0.7600000D-02
EXPONENTS  0.3266000D+01 0.6511000D+00 0.1696000D+00 0.3266000D+01 0.6511000D+00
EXPONENTS  0.1696000D+00 0.3266000D+01 0.6511000D+00 0.1696000D+00 0.5578000D-01
EXPONENTS  0.5578000D-01 0.5578000D-01 0.2050000D-01 0.2050000D-01 0.2050000D-01
EXPONENTS  0.9100000D-02 0.9100000D-02 0.9100000D-02 0.1874000D+00 0.1874000D+00
EXPONENTS  0.1874000D+00 0.1874000D+00 0.1874000D+00 0.1874000D+00 0.8010000D-01
EXPONENTS  0.8010000D-01 0.8010000D-01 0.8010000D-01 0.8010000D-01 0.8010000D-01
EXPONENTS  0.3710000D-01 0.3710000D-01 0.3710000D-01 0.3710000D-01 0.3710000D-01
EXPONENTS  0.3710000D-01 0.1829000D+00 0.1829000D+00 0.1829000D+00 0.1829000D+00
EXPONENTS  0.1829000D+00 0.1829000D+00 0.1829000D+00 0.1829000D+00 0.1829000D+00
EXPONENTS  0.1829000D+00 0.8160000D-01 0.8160000D-01 0.8160000D-01 0.8160000D-01
EXPONENTS  0.8160000D-01 0.8160000D-01 0.8160000D-01 0.8160000D-01 0.8160000D-01
EXPONENTS  0.8160000D-01
MO    1     MO 0.0        OCC NO =    2.0000000  ORB. ENERGY =  -14.031138
  0.41277734D+00  0.76914979D+00  0.13008251D+01  0.19589705D+01  0.24253326D+01
  0.20638486D+01  0.78533246D+00 -0.36780470D-02 -0.17447240D-02 -0.32713739D-02
 -0.55655803D-02 -0.86427586D-02 -0.11469443D-01 -0.12087219D-01 -0.74948468D-02
  0.49855750D-02  0.40838274D-01  0.33476164D-02  0.24599193D-03  0.25424239D-02
  0.24419678D-02  0.17124763D-02 -0.14690881D-02 -0.14110416D-02 -0.98951976D-03
  0.20676365D-03  0.19859402D-03  0.13926783D-03  0.32936399D-02 -0.19011515D-02
  0.26565915D-03  0.33107060D-03 -0.19123158D-03  0.25707340D-04 -0.11427948D-04
  0.65976225D-05 -0.10670569D-05  0.11605074D-02  0.18851125D-02 -0.30456199D-02
  0.12585237D-02  0.46509387D-03 -0.26673994D-03  0.98230235D-04  0.44819677D-03
 -0.54642701D-03  0.60733961D-03  0.57397036D-04 -0.33199389D-04 -0.34508973D-04
 -0.72892308D-05  0.41798204D-04  0.47353132D-04 -0.10786319D-04  0.62403256D-05
  0.48016525D-03 -0.19140613D-02 -0.15605556D-03  0.47630134D-03  0.46356634D-02
  0.16085907D-03 -0.19167971D-02  0.11065205D-02  0.30730761D-03  0.25563402D-03
 -0.40805442D-04  0.20452840D-03  0.13249347D-04 -0.40472374D-04 -0.51956849D-03
 -0.93664513D-05  0.16288870D-03 -0.94016706D-04 -0.30381590D-04 -0.36476824D-04
  0.12920948D-03  0.23303462D-03  0.34360941D-03 -0.22191050D-02 -0.94517623D-03
 -0.32419771D-04  0.14258255D-03 -0.21215072D-02  0.82508745D-04  0.45878497D-03
 -0.26412242D-02  0.12016840D-03  0.12775922D-03 -0.27338662D-03  0.17338897D-04
  0.15563646D-02 -0.32221634D-02  0.16657987D-02  0.15166338D-02 -0.66953178D-04
  0.43371434D-03  0.75646516D-04 -0.21330126D-03  0.13765474D-03  0.17921606D-03
 -0.13830685D-04  0.35552680D-04  0.12918975D-03  0.23299903D-03  0.34355693D-03
 -0.22200440D-02 -0.94553845D-03 -0.32434859D-04  0.19095729D-02  0.93692739D-03
  0.82381567D-04  0.25177289D-02  0.92294167D-03  0.12015586D-03  0.30072203D-03
  0.26043696D-04  0.17336198D-04 -0.26856524D-02  0.10196312D-02  0.16660212D-02
 -0.33784632D-02 -0.40876738D-03 -0.15855588D-03 -0.21878087D-03  0.81093015D-04
  0.13768786D-03 -0.16053686D-03 -0.37704559D-04 -0.57961299D-05 -0.59472913D-04
 -0.11053852D-03 -0.18824519D-03 -0.29357292D-03 -0.41013808D-03 -0.48889213D-03
 -0.46346814D-03 -0.29434912D-03 -0.72283485D-04  0.43187560D-04  0.79852302D-04
  0.13465861D-03  0.21456633D-03  0.29908931D-03  0.38108843D-03  0.37846015D-03
  0.34137998D-03  0.19539952D-03  0.20843472D-03  0.49672606D-04  0.30291725D-05
  0.19560542D-03  0.14353255D-03  0.11786360D-03 -0.11269481D-03 -0.82693886D-04
 -0.67905149D-04  0.15492181D-04  0.11367948D-04  0.93349364D-05  0.69420464D-04
 -0.40072369D-04  0.56003158D-05 -0.56775721D-06  0.32776601D-06 -0.36366179D-07
  0.73090016D-06 -0.42188307D-06  0.57140565D-07  0.19883949D-04 -0.26713104D-04
  0.68291554D-05 -0.80425906D-04  0.44831244D-05 -0.25742372D-05  0.87651439D-05
  0.58945659D-05 -0.14659710D-04 -0.49787736D-05  0.29698600D-05 -0.17176384D-05
  0.81504018D-06 -0.68435800D-06 -0.13068218D-06 -0.25943378D-05  0.21125267D-06
 -0.12159300D-06 -0.20901397D-05  0.11539947D-04  0.62085559D-06 -0.21317679D-05
 -0.29766786D-04 -0.27593989D-06  0.84021868D-05 -0.48530558D-05 -0.15866269D-05
 -0.22631615D-05  0.76286081D-06 -0.12407598D-05 -0.24002963D-06  0.76344726D-06
  0.19606784D-05  0.43208511D-06 -0.30520297D-05  0.17616010D-05  0.28800379D-06
 -0.25033114D-06
MO    2     MO 0.0        OCC NO =    2.0000000  ORB. ENERGY =   -1.897385
 -0.66886054D-03 -0.12463231D-02 -0.21078449D-02 -0.31742976D-02 -0.39299863D-02
 -0.33442410D-02 -0.12725454D-02  0.59598729D-05 -0.35577481D-03 -0.66708109D-03
 -0.11349034D-02 -0.17623852D-02 -0.23387876D-02 -0.24647611D-02 -0.15283091D-02
  0.10166318D-02  0.78442451D-04  0.84925053D-02  0.59452114D-02 -0.65062084D-02
 -0.62491354D-02 -0.43823251D-02  0.37557070D-02  0.36073117D-02  0.25296960D-02
 -0.50879134D-03 -0.48868800D-03 -0.34270176D-03  0.49508946D-04 -0.28251269D-04
  0.61697643D-05 -0.85314419D-02  0.49197270D-02 -0.67808184D-03 -0.55658998D-03
  0.32193553D-03 -0.43404896D-04  0.10504406D-03 -0.52958492D-04 -0.52085567D-04
 -0.29905517D-03  0.29757582D-04 -0.18613562D-04  0.99962855D-03  0.21436325D-03
 -0.12139918D-02 -0.13341885D-02  0.30864328D-03 -0.17583691D-03  0.57536642D-03
 -0.28284774D-03 -0.29251868D-03 -0.14697361D-02  0.15792021D-03 -0.89958701D-04
 -0.41883000D-04 -0.62212216D-03  0.14638887D-04 -0.35203426D-04  0.19626478D-02
 -0.10022429D-03  0.16085243D-03 -0.96281287D-04  0.56307633D-04  0.27828697D-03
 -0.24821376D-03 -0.25970540D-03  0.80105584D-04 -0.25724490D-03  0.13555944D-02
 -0.20899770D-03  0.10018862D-02 -0.57647823D-03 -0.31319048D-04  0.31238475D-03
 -0.14140689D-03 -0.25503315D-03 -0.37604623D-03  0.10349062D-02  0.23564639D-02
  0.35617904D-03 -0.27718642D-03 -0.21908822D-03 -0.64448188D-05  0.12701385D-02
 -0.65388350D-03  0.98376114D-04 -0.41958053D-03  0.36309433D-03 -0.37907332D-04
  0.73829165D-03 -0.35947102D-03 -0.37882062D-03  0.60611333D-03  0.10720741D-03
  0.37372871D-04  0.65102630D-04 -0.18843655D-03  0.12333392D-03  0.51339593D-03
 -0.28101958D-04  0.52630474D-04 -0.14212389D-03 -0.25632628D-03 -0.37795295D-03
  0.10155208D-02  0.23438865D-02  0.35701394D-03  0.60230703D-04  0.34746393D-03
 -0.64093450D-05  0.11927164D-02 -0.75199654D-03  0.94390540D-04 -0.52570014D-03
  0.18511784D-03 -0.38784052D-04 -0.34197740D-03  0.72454583D-03 -0.38256843D-03
 -0.65867196D-03  0.26082199D-04 -0.11126496D-03 -0.34656249D-03  0.22462069D-03
  0.12194180D-03  0.32731730D-04 -0.58895579D-04 -0.17961368D-05  0.65438457D-01
  0.12162629D+00  0.20712748D+00  0.32302031D+00  0.45127776D+00  0.53793138D+00
  0.50995719D+00  0.32387437D+00  0.79534018D-01 -0.90890911D-03 -0.16805415D-02
 -0.28339745D-02 -0.45156820D-02 -0.62945208D-02 -0.80202434D-02 -0.79649296D-02
 -0.71845544D-02 -0.41123046D-02 -0.92962750D-02 -0.17166406D-02 -0.70714322D-06
 -0.97316614D-02 -0.71409583D-02 -0.58638898D-02  0.56316644D-02  0.41324373D-02
  0.33934041D-02 -0.75232004D-03 -0.55204202D-03 -0.45331641D-03 -0.16531644D-02
  0.95453180D-03 -0.12912175D-03 -0.39132633D-04  0.22403828D-04 -0.32341884D-05
 -0.27493789D-05  0.16058884D-05 -0.19752899D-06 -0.77884286D-03  0.21068362D-03
  0.56815924D-03  0.17261214D-02 -0.20808849D-03  0.12298406D-03 -0.17387324D-03
  0.16464657D-04  0.15740858D-03  0.32978178D-03 -0.51150803D-04  0.28983840D-04
 -0.17224078D-04  0.23694517D-05  0.14854626D-04  0.33787784D-04 -0.48983231D-05
  0.28887745D-05 -0.30226025D-04 -0.59880968D-04  0.93108681D-05 -0.31944421D-04
  0.25086991D-03 -0.27718972D-04  0.12262249D-03 -0.71227007D-04 -0.21363205D-06
  0.46056915D-04 -0.69250044D-05 -0.25798129D-05  0.22247616D-05 -0.68607803D-05
  0.23662798D-04 -0.53740723D-05  0.27635794D-04 -0.15923359D-04 -0.13002124D-05
  0.72269582D-05
MO    3     MO 0.0        OCC NO =    2.0000000  ORB. ENERGY =   -0.687672
 -0.89950559D-02 -0.16760962D-01 -0.28346989D-01 -0.42688995D-01 -0.52851745D-01
 -0.44974450D-01 -0.17113608D-01  0.80150326D-04 -0.71886001D-01 -0.13478692D+00
 -0.22931266D+00 -0.35609835D+00 -0.47256322D+00 -0.49801677D+00 -0.30880217D+00
  0.20541532D+00  0.10482209D+00  0.54199050D-01 -0.38530728D-02  0.16529759D+00
  0.15876636D+00  0.11133793D+00 -0.95463544D-01 -0.91691593D-01 -0.64300474D-01
  0.13389367D-01  0.12860327D-01  0.90185487D-02  0.43046600D-01 -0.24869034D-01
  0.34939139D-02  0.49319121D-02 -0.28566215D-02  0.39629513D-03  0.61720223D-03
 -0.35596795D-03  0.48036226D-04  0.77686859D-02  0.10917981D-01 -0.18686667D-01
  0.54856158D-02  0.30217124D-02 -0.17285825D-02  0.28638933D-02  0.30552399D-02
 -0.59191332D-02  0.29632876D-03  0.10470974D-02 -0.61046151D-03 -0.93481437D-04
 -0.21779818D-03  0.31127962D-03 -0.21982631D-03 -0.41108433D-04  0.25317399D-04
  0.72380996D-03 -0.22785151D-02 -0.23720950D-03  0.70237296D-03  0.51785418D-02
  0.31414077D-03 -0.28738028D-02  0.16570036D-02  0.39748773D-03  0.15580507D-03
 -0.25141865D-04 -0.25563433D-03  0.64344165D-05 -0.77485644D-05  0.81312084D-03
 -0.43448217D-04  0.83174158D-04 -0.46217848D-04  0.24144968D-04  0.11127280D-03
  0.25583773D-01  0.46141389D-01  0.68035451D-01  0.27969752D-01 -0.27965192D-04
 -0.52555825D-03 -0.13494221D-02  0.27095504D-01 -0.10280915D-02  0.25663238D-03
  0.16954609D-03  0.10998868D-04  0.38836738D-04 -0.86132572D-03  0.32340597D-04
 -0.21459654D-02  0.47905996D-02 -0.26446343D-02 -0.10243495D-02  0.97021993D-04
 -0.58037215D-03  0.26346604D-03 -0.46077952D-03  0.19731348D-03  0.96963691D-04
  0.54561732D-05  0.50795472D-04  0.25585916D-01  0.46145254D-01  0.68041150D-01
  0.28005151D-01 -0.74774208D-05 -0.52519951D-03 -0.24145940D-01 -0.12375269D-01
 -0.10234777D-02 -0.23741639D-04 -0.33857060D-03  0.94705016D-05  0.76224112D-03
  0.38836770D-03  0.32730001D-04  0.34959223D-02 -0.85390113D-03 -0.26420211D-02
  0.55069539D-02  0.55074716D-03  0.20721268D-03 -0.32282384D-03  0.12619043D-03
  0.19663341D-03 -0.57044956D-03 -0.42952034D-04 -0.30608293D-04 -0.13992706D-02
 -0.26007351D-02 -0.44290071D-02 -0.69071435D-02 -0.96496726D-02 -0.11502587D-01
 -0.10904415D-01 -0.69254057D-02 -0.17006759D-02 -0.10521862D-02 -0.19454558D-02
 -0.32807117D-02 -0.52275175D-02 -0.72867659D-02 -0.92845251D-02 -0.92204917D-02
 -0.83171010D-02 -0.47605532D-02  0.78001495D-02  0.16819348D-02  0.25156640D-04
  0.71109595D-02  0.52179235D-02  0.42847650D-02 -0.41072238D-02 -0.30138239D-02
 -0.24748403D-02  0.55626719D-03  0.40818115D-03  0.33518321D-03  0.13405729D-02
 -0.77306064D-03  0.10502357D-03  0.37928945D-04 -0.21948936D-04  0.31878301D-05
  0.66004669D-05 -0.38081840D-05  0.49728626D-06  0.83516264D-03 -0.13460088D-03
 -0.70056176D-03 -0.16814608D-02  0.23773243D-03 -0.13827520D-03  0.45291475D-04
 -0.26689812D-04 -0.18601663D-04 -0.12273408D-03  0.11430616D-04 -0.67912410D-05
  0.16929876D-04 -0.51278860D-05 -0.11801990D-04 -0.38231781D-04  0.47938544D-05
 -0.27736122D-05  0.53733082D-04  0.51150622D-04 -0.17092030D-04  0.53505616D-04
 -0.27801623D-03  0.44510801D-04 -0.21470486D-03  0.12456436D-03  0.67652875D-05
 -0.65543038D-04 -0.31437241D-05  0.30425031D-05  0.10179299D-05 -0.33513893D-05
 -0.16522346D-05 -0.20752306D-05  0.12782562D-04 -0.74752747D-05 -0.97855922D-06
  0.16458715D-05
MO    4     MO 0.0        OCC NO =    2.0000000  ORB. ENERGY =   -0.333777
 -0.52435441D-06 -0.97705723D-06 -0.16524487D-05 -0.24884962D-05 -0.30809197D-05
 -0.26217237D-05 -0.99761422D-06  0.46722530D-08  0.17470503D-05  0.32757357D-05
  0.55730010D-05  0.86542821D-05  0.11484736D-04  0.12103335D-04  0.75048398D-05
 -0.49922223D-05 -0.30705149D-05  0.20338996D-05  0.79821841D-05  0.43999483D+00
  0.42260977D+00  0.29636314D+00  0.76161915D+00  0.73152609D+00  0.51299659D+00
  0.13414249D-04  0.12884226D-04  0.90353086D-05  0.97709131D-01  0.16914914D+00
 -0.12832296D-05  0.11095071D-01  0.19176722D-01  0.55117891D-05  0.35571167D-03
  0.61613913D-03  0.35600078D-06  0.33546588D-01 -0.33544578D-01 -0.20105463D-05
  0.38709589D-01  0.27151127D-02  0.47005049D-02  0.19921499D-02 -0.19924383D-02
  0.28843773D-06  0.22841339D-02  0.16848288D-03  0.27973105D-03  0.19293398D-03
 -0.19432887D-03  0.13948965D-05  0.22657695D-03  0.14127617D-04  0.25417367D-04
 -0.11848032D-02  0.88150069D-03  0.73896699D-06  0.56033838D-02  0.90704502D-03
 -0.13006657D-04 -0.20489741D-02 -0.35515471D-02  0.10789756D-04 -0.16757143D-05
  0.12918789D-02  0.11162897D-03 -0.75296388D-06 -0.36199859D-02  0.10225764D-03
  0.26197752D-03 -0.25565098D-03 -0.43714455D-03 -0.25971863D-03  0.29848981D-03
 -0.37181790D-01 -0.67058890D-01 -0.98878294D-01 -0.69600174D-01 -0.13380003D-01
  0.41805224D-04  0.14684249D-01 -0.26776219D-01  0.18255844D-02  0.86515846D-02
 -0.65707692D-02  0.74288522D-03  0.84083379D-03 -0.10504045D-03  0.52903458D-04
  0.35032047D-02 -0.97986615D-02  0.62954568D-02  0.10119527D-01 -0.69923861D-03
  0.17300274D-02 -0.29645999D-03  0.27543563D-03  0.21024359D-04  0.97686924D-03
 -0.71930995D-04  0.42231827D-04  0.37186572D-01  0.67067515D-01  0.98891011D-01
  0.69609379D-01  0.13361804D-01 -0.41934472D-04 -0.30528740D-01 -0.66737550D-03
 -0.18180708D-02 -0.10023294D-01  0.42222860D-02 -0.75398510D-03 -0.50951411D-03
  0.67515614D-03 -0.52213825D-04  0.10859336D-01 -0.45677845D-02 -0.62915519D-02
  0.64491004D-02  0.18545473D-02  0.25889675D-03  0.29478456D-03 -0.27109447D-03
 -0.23690096D-04 -0.98685992D-03  0.73338039D-04 -0.39637577D-04 -0.85579236D-06
 -0.15906067D-05 -0.27087759D-05 -0.42244015D-05 -0.59017293D-05 -0.70349698D-05
 -0.66691284D-05 -0.42355707D-05 -0.10401316D-05  0.26229948D-05  0.48498265D-05
  0.81784858D-05  0.13031677D-04  0.18165178D-04  0.23145391D-04  0.22985762D-04
  0.20733700D-04  0.11867582D-04 -0.10355405D-05 -0.55457700D-06 -0.11513808D-07
  0.31435863D-02  0.23067201D-02  0.18941929D-02  0.54564604D-02  0.40038750D-02
  0.32878335D-02 -0.61735904D-05 -0.45300951D-05 -0.37199459D-05 -0.34028429D-04
 -0.59817124D-04 -0.58883716D-06 -0.14606270D-04 -0.25086684D-04 -0.78815076D-07
  0.23030594D-05  0.39624827D-05  0.72231198D-08  0.10632553D-02 -0.10653003D-02
  0.20450125D-05  0.12308440D-02  0.85718945D-04  0.14736160D-03 -0.84483949D-04
  0.84787620D-04 -0.30367175D-06 -0.98014918D-04 -0.73797892D-05 -0.11384486D-04
 -0.57147940D-05  0.57267629D-05 -0.11968902D-07 -0.65973804D-05 -0.43302833D-06
 -0.76060023D-06  0.18479790D-03  0.17990427D-04  0.22631636D-06 -0.51436088D-03
  0.18256855D-04  0.37912257D-04 -0.40032816D-04 -0.72228138D-04 -0.38591206D-04
  0.43376334D-04 -0.22426748D-04 -0.62862892D-05 -0.27803827D-07  0.52907439D-04
 -0.63019235D-05 -0.56144653D-05  0.14372806D-04  0.25160791D-04  0.56978768D-05
 -0.62326000D-05
MO    5     MO 0.0        OCC NO =    2.0000000  ORB. ENERGY =   -0.226320
 -0.84175185D-03 -0.15684806D-02 -0.26526939D-02 -0.39948101D-02 -0.49458340D-02
 -0.42086816D-02 -0.16014810D-02  0.75004186D-05 -0.26459629D-01 -0.49612051D-01
 -0.84404860D-01 -0.13107184D+00 -0.17393995D+00 -0.18330883D+00 -0.11366317D+00
  0.75608783D-01  0.36898798D-01  0.28076882D-01 -0.21970035D-01 -0.81246098D+00
 -0.78035905D+00 -0.54724163D+00  0.46933607D+00  0.45079168D+00  0.31612625D+00
 -0.65065028D-01 -0.62494182D-01 -0.43825234D-01 -0.19247551D+00  0.11121202D+00
 -0.15406258D-01 -0.17728977D-01  0.10216100D-01 -0.14347992D-02  0.18499961D-02
 -0.10677910D-02  0.14320496D-03 -0.12608994D-01 -0.53272784D-02  0.17936273D-01
  0.12693386D-01 -0.41888697D-02  0.24221256D-02  0.28442132D-03  0.14060533D-02
 -0.16904746D-02  0.19129097D-02  0.15476885D-03 -0.96787454D-04 -0.82095044D-04
  0.33749415D-03 -0.25539911D-03  0.71967129D-03 -0.82218958D-05  0.25016303D-05
 -0.17800570D-02 -0.74378225D-03  0.57130602D-03 -0.18438306D-02  0.64045021D-02
 -0.13831520D-02  0.71840015D-02 -0.41731553D-02 -0.33076608D-03  0.18661628D-02
 -0.27457995D-03 -0.49796238D-03  0.88530055D-04 -0.23963892D-03  0.20987353D-02
 -0.26390299D-03  0.10633788D-02 -0.60484818D-03 -0.16871758D-05  0.43183979D-03
 -0.21321428D-01 -0.38454073D-01 -0.56700508D-01 -0.49849033D-01 -0.87499449D-02
 -0.19174257D-02 -0.14847553D-01 -0.15808008D-01 -0.33640957D-03 -0.82997157D-02
 -0.29004073D-02 -0.39522560D-03 -0.14098181D-02  0.10997552D-02 -0.12240104D-03
  0.37088009D-02 -0.65276014D-02  0.28188004D-02 -0.64294723D-02  0.33703879D-03
  0.26462284D-03 -0.47052694D-03  0.99538605D-03 -0.52485911D-03 -0.16641547D-02
  0.71262960D-04 -0.20394175D-03 -0.21309233D-01 -0.38432079D-01 -0.56668078D-01
 -0.49775861D-01 -0.86922317D-02 -0.19174370D-02  0.62751765D-02  0.20759508D-01
 -0.34139183D-03 -0.16228389D-02  0.85961704D-02 -0.38040397D-03 -0.16642639D-02
  0.65899750D-03 -0.12063344D-03 -0.12007475D-02 -0.16223238D-02  0.28230714D-02
 -0.12083639D-01 -0.66095976D-04 -0.43659549D-03  0.13436942D-02 -0.82031967D-03
 -0.52337455D-03  0.44180435D-03  0.20906662D-03  0.42120204D-04 -0.25351271D-02
 -0.47118793D-02 -0.80242493D-02 -0.12514011D-01 -0.17482785D-01 -0.20839801D-01
 -0.19756063D-01 -0.12547097D-01 -0.30811980D-02 -0.46913791D-02 -0.86741973D-02
 -0.14627698D-01 -0.23307915D-01 -0.32489479D-01 -0.41396881D-01 -0.41111376D-01
 -0.37083431D-01 -0.21225862D-01  0.38004162D-01  0.84897465D-02  0.13938681D-04
  0.34343674D-01  0.25200912D-01  0.20694053D-01 -0.19825454D-01 -0.14547643D-01
 -0.11945985D-01  0.26739749D-02  0.19621257D-02  0.16112248D-02  0.66679493D-02
 -0.38488274D-02  0.51931631D-03  0.18152928D-03 -0.10462735D-03  0.15050003D-04
  0.19732466D-04 -0.11413341D-04  0.14619721D-05  0.30664535D-02 -0.77178854D-03
 -0.22946650D-02 -0.66475277D-02  0.84632929D-03 -0.49735353D-03  0.29042105D-03
 -0.17686389D-03 -0.11355716D-03 -0.80718491D-03  0.74411082D-04 -0.41649465D-04
  0.74956086D-04 -0.17511125D-04 -0.57444961D-04 -0.16002858D-03  0.21174217D-04
 -0.12487929D-04  0.17587306D-03  0.28624033D-03 -0.54952667D-04  0.17561416D-03
 -0.12657575D-02  0.15643885D-03 -0.70323336D-03  0.40703655D-03  0.84191528D-05
 -0.25304909D-03 -0.46317445D-05  0.19521645D-04  0.13795090D-05 -0.49743487D-05
 -0.47487963D-04 -0.13872457D-05  0.18869582D-04 -0.11076973D-04 -0.27512813D-05
 -0.29547630D-05
MO    6     MO 0.0        OCC NO =    2.0000000  ORB. ENERGY =   -0.129208
  0.17707096D-05  0.32994565D-05  0.55802082D-05  0.84034843D-05  0.10404059D-04
  0.88533844D-05  0.33688761D-05 -0.15777884D-07  0.20448379D-04  0.38340902D-04
  0.65229282D-04  0.10129419D-03  0.13442328D-03  0.14166368D-03  0.87840522D-04
 -0.58431549D-04 -0.33051894D-04 -0.11882836D-03 -0.86113156D-04 -0.61653251D-01
 -0.59217210D-01 -0.41527195D-01  0.35656703D-01  0.34247837D-01  0.24016947D-01
  0.10251362D+01  0.98463105D+00  0.69049126D+00 -0.15289432D-01  0.88301870D-02
  0.25379661D+00 -0.29844320D-02  0.17168389D-02  0.50177961D-01 -0.20437217D-03
  0.11922861D-03  0.35937696D-02 -0.15016553D-02 -0.50232312D-03  0.20039785D-02
  0.17376436D-02  0.24691274D-01 -0.14256700D-01 -0.15405726D-03 -0.68818674D-04
  0.22287593D-03  0.15447317D-03  0.25687374D-02 -0.14899357D-02 -0.58450856D-04
 -0.23145053D-04  0.81595909D-04  0.64495461D-04  0.10087609D-02 -0.57940776D-03
 -0.50933528D-03  0.34953047D-03 -0.61031712D-02 -0.49745941D-03  0.12110312D-03
  0.82748209D-02  0.20254652D-02 -0.11696945D-02  0.10034693D-01  0.30747194D-02
 -0.87102501D-04  0.14192139D-04 -0.60009337D-03 -0.91383209D-04  0.15951266D-03
  0.14963751D-02  0.35269071D-03 -0.20208908D-03  0.30390506D-03 -0.20834574D-02
  0.59015306D-05  0.10643653D-04  0.15694061D-04  0.20065503D-04  0.27505274D-05
 -0.46352325D-05 -0.16073905D-02  0.93639041D-03  0.26718698D-01 -0.70112656D-03
  0.39558730D-03  0.11208580D-01 -0.89561343D-04  0.49764333D-04  0.14063489D-02
  0.14342486D-03  0.42724985D-03 -0.57067471D-03 -0.84458092D-03 -0.24320706D-02
  0.12243098D-01  0.52482858D-04  0.52408785D-04 -0.10489164D-03 -0.12526265D-03
 -0.91381813D-03  0.14489423D-02  0.70441205D-05  0.12704361D-04  0.18732573D-04
  0.23125789D-04  0.25933863D-04 -0.59609579D-05 -0.16144576D-02  0.92236357D-03
  0.26721676D-01 -0.70288042D-03  0.41646391D-03  0.11216350D-01 -0.94895612D-04
  0.55352480D-04  0.14069729D-02  0.72888956D-03 -0.15487182D-03 -0.57401774D-03
 -0.17190076D-03 -0.11822557D-01 -0.40175439D-02  0.10734154D-03 -0.21690244D-05
 -0.10517252D-03 -0.65790444D-04 -0.17163857D-02  0.63358774D-04 -0.21435505D-05
 -0.39840808D-05 -0.67848210D-05 -0.10581092D-04 -0.14782388D-04 -0.17620878D-04
 -0.16704535D-04 -0.10609068D-04 -0.26052751D-05 -0.96049728D-05 -0.17759262D-04
 -0.29948261D-04 -0.47719846D-04 -0.66517874D-04 -0.84754591D-04 -0.84170057D-04
 -0.75923377D-04 -0.43457122D-04  0.10000761D-03  0.30563829D-04 -0.18697673D-06
 -0.11500839D-02 -0.84391560D-03 -0.69299216D-03  0.63811632D-03  0.46824091D-03
  0.38450205D-03  0.20116973D-01  0.14761556D-01  0.12121642D-01 -0.16031407D-03
  0.89965516D-04  0.29789164D-02  0.60724723D-05 -0.37718636D-05 -0.96239921D-04
 -0.21309645D-05  0.12780764D-05  0.37268975D-04 -0.25605268D-03 -0.93671997D-04
  0.34972468D-03  0.29831729D-03  0.44447949D-02 -0.25625121D-02 -0.26654152D-04
 -0.78523464D-05  0.34506498D-04  0.27617162D-04  0.44429964D-03 -0.25656451D-03
 -0.13139127D-05 -0.65070917D-06  0.19646219D-05  0.13389811D-05  0.23920886D-04
 -0.13813632D-04 -0.32648855D-04  0.12841570D-05 -0.20320106D-03 -0.33259823D-04
  0.74704935D-04  0.57430179D-03  0.13120639D-03 -0.78557406D-04  0.35301384D-04
 -0.93047076D-03  0.59295873D-06 -0.59116363D-06  0.11233967D-04  0.95628658D-06
 -0.29275701D-07 -0.13898450D-04 -0.27351628D-05  0.18027666D-05 -0.19803450D-04
 -0.10523345D-04
END DATA
RHF
