 Molden2AIM, Version 4.0.0 (06/02/2016)           Time: Sat Jun 30 03:54:53 2018
GAUSSIAN              5 MOL ORBITALS    183 PRIMITIVES        5 NUCLEI
  H    1    (CENTRE  1)  -1.82523355 -3.17727401  0.00000000  CHARGE =  1.0
  N    2    (CENTRE  2)  -0.00078046 -2.52738019  0.00000000  CHARGE =  7.0
  H    3    (CENTRE  3)  -0.00532903 -0.59063957  0.00000000  CHARGE =  1.0
  H    4    (CENTRE  4)   0.91369203 -3.17084516  1.58134550  CHARGE =  1.0
  H    5    (CENTRE  5)   0.91369203 -3.17084516 -1.58134550  CHARGE =  1.0
CENTRE ASSIGNMENTS    1  1  1  1  1  1  1  1  1  1  1  1  1  1  1  1  1  1  1  1
CENTRE ASSIGNMENTS    1  1  1  1  1  1  1  2  2  2  2  2  2  2  2  2  2  2  2  2
CENTRE ASSIGNMENTS    2  2  2  2  2  2  2  2  2  2  2  2  2  2  2  2  2  2  2  2
CENTRE ASSIGNMENTS    2  2  2  2  2  2  2  2  2  2  2  2  2  2  2  2  2  2  2  2
CENTRE ASSIGNMENTS    2  2  2  2  2  2  2  2  2  2  2  2  2  2  2  2  2  2  2  2
CENTRE ASSIGNMENTS    2  2  3  3  3  3  3  3  3  3  3  3  3  3  3  3  3  3  3  3
CENTRE ASSIGNMENTS    3  3  3  3  3  3  3  3  3  4  4  4  4  4  4  4  4  4  4  4
CENTRE ASSIGNMENTS    4  4  4  4  4  4  4  4  4  4  4  4  4  4  4  4  5  5  5  5
CENTRE ASSIGNMENTS    5  5  5  5  5  5  5  5  5  5  5  5  5  5  5  5  5  5  5  5
CENTRE ASSIGNMENTS    5  5  5
TYPE ASSIGNMENTS      1  1  1  1  1  1  2  3  4  2  3  4  2  3  4  5  6  7  8  9
TYPE ASSIGNMENTS     10  5  6  7  8  9 10  1  1  1  1  1  1  1  1  1  1  1  1  1
TYPE ASSIGNMENTS      1  1  1  1  1  1  2  2  2  3  3  3  4  4  4  2  3  4  2  3
TYPE ASSIGNMENTS      4  2  3  4  5  6  7  8  9 10  5  6  7  8  9 10  5  6  7  8
TYPE ASSIGNMENTS      9 10 11 12 13 17 14 15 18 19 16 20 11 12 13 17 14 15 18 19
TYPE ASSIGNMENTS     16 20  1  1  1  1  1  1  2  3  4  2  3  4  2  3  4  5  6  7
TYPE ASSIGNMENTS      8  9 10  5  6  7  8  9 10  1  1  1  1  1  1  2  3  4  2  3
TYPE ASSIGNMENTS      4  2  3  4  5  6  7  8  9 10  5  6  7  8  9 10  1  1  1  1
TYPE ASSIGNMENTS      1  1  2  3  4  2  3  4  2  3  4  5  6  7  8  9 10  5  6  7
TYPE ASSIGNMENTS      8  9 10
EXPONENTS  0.3387000D+02 0.5095000D+01 0.1159000D+01 0.3258000D+00 0.1027000D+00
EXPONENTS  0.2526000D-01 0.1407000D+01 0.1407000D+01 0.1407000D+01 0.3880000D+00
EXPONENTS  0.3880000D+00 0.3880000D+00 0.1020000D+00 0.1020000D+00 0.1020000D+00
EXPONENTS  0.1057000D+01 0.1057000D+01 0.1057000D+01 0.1057000D+01 0.1057000D+01
EXPONENTS  0.1057000D+01 0.2470000D+00 0.2470000D+00 0.2470000D+00 0.2470000D+00
EXPONENTS  0.2470000D+00 0.2470000D+00 0.1142000D+05 0.1712000D+04 0.3893000D+03
EXPONENTS  0.1100000D+03 0.3557000D+02 0.1254000D+02 0.4644000D+01 0.5118000D+00
EXPONENTS  0.1142000D+05 0.1712000D+04 0.3893000D+03 0.1100000D+03 0.3557000D+02
EXPONENTS  0.1254000D+02 0.4644000D+01 0.5118000D+00 0.1293000D+01 0.1787000D+00
EXPONENTS  0.5760000D-01 0.2663000D+02 0.5948000D+01 0.1742000D+01 0.2663000D+02
EXPONENTS  0.5948000D+01 0.1742000D+01 0.2663000D+02 0.5948000D+01 0.1742000D+01
EXPONENTS  0.5550000D+00 0.5550000D+00 0.5550000D+00 0.1725000D+00 0.1725000D+00
EXPONENTS  0.1725000D+00 0.4910000D-01 0.4910000D-01 0.4910000D-01 0.1654000D+01
EXPONENTS  0.1654000D+01 0.1654000D+01 0.1654000D+01 0.1654000D+01 0.1654000D+01
EXPONENTS  0.4690000D+00 0.4690000D+00 0.4690000D+00 0.4690000D+00 0.4690000D+00
EXPONENTS  0.4690000D+00 0.1510000D+00 0.1510000D+00 0.1510000D+00 0.1510000D+00
EXPONENTS  0.1510000D+00 0.1510000D+00 0.1093000D+01 0.1093000D+01 0.1093000D+01
EXPONENTS  0.1093000D+01 0.1093000D+01 0.1093000D+01 0.1093000D+01 0.1093000D+01
EXPONENTS  0.1093000D+01 0.1093000D+01 0.3640000D+00 0.3640000D+00 0.3640000D+00
EXPONENTS  0.3640000D+00 0.3640000D+00 0.3640000D+00 0.3640000D+00 0.3640000D+00
EXPONENTS  0.3640000D+00 0.3640000D+00 0.3387000D+02 0.5095000D+01 0.1159000D+01
EXPONENTS  0.3258000D+00 0.1027000D+00 0.2526000D-01 0.1407000D+01 0.1407000D+01
EXPONENTS  0.1407000D+01 0.3880000D+00 0.3880000D+00 0.3880000D+00 0.1020000D+00
EXPONENTS  0.1020000D+00 0.1020000D+00 0.1057000D+01 0.1057000D+01 0.1057000D+01
EXPONENTS  0.1057000D+01 0.1057000D+01 0.1057000D+01 0.2470000D+00 0.2470000D+00
EXPONENTS  0.2470000D+00 0.2470000D+00 0.2470000D+00 0.2470000D+00 0.3387000D+02
EXPONENTS  0.5095000D+01 0.1159000D+01 0.3258000D+00 0.1027000D+00 0.2526000D-01
EXPONENTS  0.1407000D+01 0.1407000D+01 0.1407000D+01 0.3880000D+00 0.3880000D+00
EXPONENTS  0.3880000D+00 0.1020000D+00 0.1020000D+00 0.1020000D+00 0.1057000D+01
EXPONENTS  0.1057000D+01 0.1057000D+01 0.1057000D+01 0.1057000D+01 0.1057000D+01
EXPONENTS  0.2470000D+00 0.2470000D+00 0.2470000D+00 0.2470000D+00 0.2470000D+00
EXPONENTS  0.2470000D+00 0.3387000D+02 0.5095000D+01 0.1159000D+01 0.3258000D+00
EXPONENTS  0.1027000D+00 0.2526000D-01 0.1407000D+01 0.1407000D+01 0.1407000D+01
EXPONENTS  0.3880000D+00 0.3880000D+00 0.3880000D+00 0.1020000D+00 0.1020000D+00
EXPONENTS  0.1020000D+00 0.1057000D+01 0.1057000D+01 0.1057000D+01 0.1057000D+01
EXPONENTS  0.1057000D+01 0.1057000D+01 0.2470000D+00 0.2470000D+00 0.2470000D+00
EXPONENTS  0.2470000D+00 0.2470000D+00 0.2470000D+00
MO    1     MO 0.0        OCC NO =    2.0000000  ORB. ENERGY =  -14.526600
  0.66215715D-04  0.11942277D-03  0.17608880D-03  0.20098633D-02  0.81713139D-04
 -0.14571823D-05 -0.22333631D-02 -0.79558532D-03  0.13007749D-15 -0.39524796D-03
 -0.14081888D-03  0.15552645D-15 -0.64325410D-04 -0.22909852D-04  0.30310186D-15
 -0.21903626D-02  0.87255149D-03  0.13178111D-02 -0.24993539D-02 -0.15226932D-16
  0.12367607D-15 -0.16869109D-03  0.67196275D-04  0.10149481D-03 -0.19245697D-03
  0.75170792D-16  0.13915265D-15  0.41408027D+00  0.77157761D+00  0.13049312D+01
  0.19651540D+01  0.24329882D+01  0.20703631D+01  0.78781137D+00 -0.36896567D-02
 -0.27314703D-02 -0.51215324D-02 -0.87132505D-02 -0.13530758D-01 -0.17956103D-01
 -0.18923268D-01 -0.11733633D-01  0.78052172D-02  0.41368550D-01 -0.46168679D-02
 -0.12692988D-03  0.43908075D-06  0.42173181D-06  0.29574746D-06  0.16728767D-06
  0.16067781D-06  0.11267837D-06  0.45590898D-15  0.43789513D-15  0.30708229D-15
 -0.28633605D-06  0.14867767D-06 -0.22839529D-15 -0.11709859D-07  0.18624969D-06
  0.18431649D-14  0.70520494D-09  0.39192831D-08 -0.55493274D-16 -0.10376825D-05
  0.12356014D-05 -0.19791891D-06  0.59931760D-06 -0.36022273D-15  0.58881414D-15
  0.27449751D-07  0.83008078D-07 -0.11045783D-06  0.14219714D-07  0.32584149D-15
 -0.59843025D-15 -0.24348612D-08  0.17923318D-07 -0.15488457D-07 -0.12182153D-07
  0.46956389D-15 -0.36342322D-15 -0.21425556D-02  0.30458225D-02 -0.78764796D-16
 -0.42773075D-04 -0.45833701D-02  0.16835393D-15  0.64704400D-02 -0.45540973D-02
  0.67940461D-16 -0.33797828D-15  0.40987216D-03 -0.58261041D-03  0.10305310D-15
  0.82273398D-05  0.87676106D-03 -0.30455900D-15 -0.12378438D-02  0.87107018D-03
 -0.46003093D-17 -0.15805570D-15  0.66225778D-04  0.11944092D-03  0.17611556D-03
  0.20095781D-02  0.81601343D-04 -0.14593027D-05 -0.55893803D-05  0.23713288D-02
  0.22436865D-15 -0.98628808D-06  0.41963440D-03 -0.11004814D-15 -0.16175624D-06
  0.68286439D-04  0.28138306D-15  0.13178455D-02 -0.26357466D-02  0.13179011D-02
  0.18614195D-04  0.14382383D-15 -0.35412481D-16  0.10147335D-03 -0.20294198D-03
  0.10146863D-03  0.14347857D-05 -0.89282942D-16 -0.47139264D-16  0.66221865D-04
  0.11943386D-03  0.17610516D-03  0.20100238D-02  0.81807955D-04 -0.14554482D-05
  0.11194904D-02 -0.78769878D-03  0.19358910D-02  0.19805189D-03 -0.13934280D-03
  0.34247987D-03  0.32225575D-04 -0.22672798D-04  0.55732875D-04  0.43645390D-03
  0.88140081D-03 -0.13178547D-02  0.12403562D-02 -0.30483194D-02  0.21448065D-02
  0.33607064D-04  0.67862356D-04 -0.10146942D-03  0.95515374D-04 -0.23473625D-03
  0.16514321D-03  0.66221865D-04  0.11943386D-03  0.17610516D-03  0.20100238D-02
  0.81807955D-04 -0.14554482D-05  0.11194904D-02 -0.78769878D-03 -0.19358910D-02
  0.19805189D-03 -0.13934280D-03 -0.34247987D-03  0.32225575D-04 -0.22672798D-04
 -0.55732875D-04  0.43645390D-03  0.88140081D-03 -0.13178547D-02  0.12403562D-02
  0.30483194D-02 -0.21448065D-02  0.33607064D-04  0.67862356D-04 -0.10146942D-03
  0.95515374D-04  0.23473625D-03 -0.16514321D-03
MO    2     MO 0.0        OCC NO =    2.0000000  ORB. ENERGY =   -1.212916
  0.18983365D-01  0.34237280D-01  0.50482850D-01  0.25961577D-01 -0.72255897D-03
 -0.39252383D-04  0.20362861D-01  0.72465682D-02 -0.58921240D-14  0.55901056D-02
  0.19993247D-02  0.20357060D-14 -0.22191464D-03 -0.78959748D-04  0.16566287D-14
  0.32488878D-02 -0.12947700D-02 -0.19541178D-02  0.37079768D-02 -0.71365079D-14
 -0.19697365D-14 -0.56959881D-04  0.24677407D-04  0.32282474D-04 -0.64196968D-04
  0.17303438D-14 -0.17479297D-14 -0.80260108D-02 -0.14955289D-01 -0.25293143D-01
 -0.38090072D-01 -0.47157981D-01 -0.40129313D-01 -0.15269944D-01  0.71515662D-04
 -0.75695486D-01 -0.14192974D+00 -0.24146472D+00 -0.37496922D+00 -0.49760596D+00
 -0.52440838D+00 -0.32516665D+00  0.21630098D+00  0.10996830D+00  0.34912320D-01
  0.16455165D-02 -0.97228876D-05 -0.93387173D-05 -0.65489532D-05  0.40092983D-05
  0.38508831D-05  0.27005050D-05  0.32239422D-13  0.30965580D-13  0.21715202D-13
  0.10169507D-05 -0.84194873D-05 -0.72186213D-13  0.19579633D-05 -0.59093015D-05
 -0.54657774D-13 -0.18633139D-06 -0.21348754D-06 -0.25847866D-14 -0.41830203D-05
  0.47891774D-05 -0.60615710D-06 -0.45104732D-06 -0.11289355D-14 -0.17132195D-14
  0.75263043D-06 -0.35340058D-05  0.27813754D-05  0.29560647D-05 -0.56843498D-13
  0.42491790D-13 -0.39895918D-06 -0.11809994D-05  0.15799586D-05 -0.87561858D-06
 -0.95116442D-14  0.72117144D-14 -0.31098123D-02  0.44183263D-02 -0.39369779D-14
 -0.66835704D-04 -0.66453575D-02 -0.27309667D-14  0.93962727D-02 -0.66096215D-02
  0.14541900D-13  0.48120722D-13  0.67769132D-04 -0.96024747D-04  0.44221281D-15
  0.23176099D-05  0.14145270D-03 -0.19754732D-14 -0.20562500D-03  0.14662154D-03
  0.64883475D-15  0.91265319D-14  0.18983760D-01  0.34237993D-01  0.50483901D-01
  0.25970847D-01 -0.71898500D-03 -0.38869483D-04  0.46287689D-04 -0.21615385D-01
 -0.48622189D-14  0.15745668D-04 -0.59420091D-02  0.76896365D-15  0.40243790D-06
  0.23525845D-03  0.11402902D-14 -0.19544958D-02  0.39098384D-02 -0.19553426D-02
 -0.23846772D-04 -0.10589004D-14  0.85268000D-14  0.34694926D-04 -0.67245211D-04
  0.32550285D-04 -0.16850134D-05  0.19891947D-14 -0.42498576D-15  0.18984513D-01
  0.34239351D-01  0.50485903D-01  0.25952967D-01 -0.72711038D-03 -0.39012366D-04
 -0.10204483D-01  0.71822138D-02 -0.17645467D-01 -0.28040688D-02  0.19690628D-02
 -0.48460865D-02  0.11194817D-03 -0.78591559D-04  0.19270322D-03 -0.64616253D-03
 -0.13084398D-02  0.19546023D-02 -0.18387584D-02  0.45217422D-02 -0.31779259D-02
  0.10875006D-04  0.23324093D-04 -0.34199099D-04  0.32367089D-04 -0.78152847D-04
  0.54475222D-04  0.18984513D-01  0.34239351D-01  0.50485903D-01  0.25952967D-01
 -0.72711038D-03 -0.39012366D-04 -0.10204483D-01  0.71822138D-02  0.17645467D-01
 -0.28040688D-02  0.19690628D-02  0.48460865D-02  0.11194817D-03 -0.78591559D-04
 -0.19270322D-03 -0.64616253D-03 -0.13084398D-02  0.19546023D-02 -0.18387584D-02
 -0.45217422D-02  0.31779259D-02  0.10875006D-04  0.23324093D-04 -0.34199099D-04
  0.32367089D-04  0.78152847D-04 -0.54475222D-04
MO    3     MO 0.0        OCC NO =    2.0000000  ORB. ENERGY =   -0.784890
 -0.11650554D-01 -0.21012254D-01 -0.30982556D-01 -0.23938078D-01 -0.18737452D-02
  0.95548914D-05 -0.15618238D-01  0.12065816D-01 -0.19983414D-11 -0.71399416D-02
  0.62338184D-02 -0.99794586D-12 -0.60708870D-05  0.12997586D-03 -0.22623000D-13
 -0.62017269D-02  0.43353446D-02  0.18663822D-02  0.29692575D-02 -0.10343912D-11
 -0.32495424D-12 -0.20650367D-03  0.48302446D-03 -0.27652079D-03  0.68527937D-03
 -0.13094889D-12  0.10936347D-13 -0.16203602D-05 -0.30193026D-05 -0.51063977D-05
 -0.76899520D-05 -0.95206594D-05 -0.81016515D-05 -0.30828278D-05  0.14438198D-07
  0.16074228D-05  0.30139328D-05  0.51275965D-05  0.79626159D-05  0.10566854D-04
  0.11136014D-04  0.69050391D-05 -0.45932347D-05 -0.26592831D-05 -0.11516486D-05
 -0.47313999D-07 -0.74279648D-01 -0.71344714D-01 -0.50031838D-01  0.97709662D+00
  0.93848962D+00  0.65813370D+00 -0.11367368D-09 -0.10918222D-09 -0.76566106D-10
 -0.16776590D-01  0.22047930D+00 -0.25693216D-10 -0.11161301D-02  0.14857770D-01
 -0.17763099D-11  0.24068629D-05 -0.25309063D-04  0.40080845D-14 -0.13888958D-01
  0.31024819D-01 -0.17135860D-01  0.20682636D-02 -0.51023084D-11  0.35964106D-11
  0.29879016D-03 -0.66841511D-03  0.36962495D-03 -0.27802321D-04  0.67166248D-13
 -0.50519153D-13  0.36649998D-03 -0.82153713D-03  0.45503715D-03 -0.53207096D-04
  0.12193834D-12 -0.86976681D-13 -0.27823178D-02 -0.32343732D-02  0.13907224D-12
 -0.31222589D-03  0.54614393D-02  0.14297373D-12  0.86591793D-02  0.42416802D-02
 -0.56019043D-12 -0.19688609D-11  0.15801756D-03  0.18442435D-03 -0.88736061D-14
  0.21906566D-04 -0.31023422D-03 -0.95882699D-14 -0.49595923D-03 -0.24303882D-03
  0.36209088D-13  0.12173133D-12  0.44148577D-01  0.79623778D-01  0.11740521D+00
  0.90743414D-01  0.71223791D-02 -0.35161337D-04 -0.11683641D-02 -0.40404571D-01
 -0.19993934D-11 -0.60460116D-03 -0.17529062D-01 -0.99898746D-12 -0.11005929D-04
  0.14305535D-03 -0.23314052D-13 -0.76955976D-02  0.15415098D-01 -0.77195005D-02
  0.59168486D-03 -0.44054575D-13  0.10863952D-11  0.18819061D-03 -0.33961343D-03
  0.15142282D-03  0.76869703D-04 -0.54856321D-13  0.12003777D-12 -0.16250096D-01
 -0.29307717D-01 -0.43214212D-01 -0.33403167D-01 -0.26237746D-02  0.12819936D-04
  0.87026507D-02  0.10119642D-01  0.17302571D-01  0.38788375D-02  0.53566827D-02
  0.78282147D-02 -0.12287407D-04  0.13011250D-03 -0.48674289D-05  0.39600474D-03
  0.47371647D-02 -0.51331695D-02 -0.80410625D-03 -0.84523655D-02 -0.10198089D-02
 -0.22442314D-03  0.44938280D-03 -0.22495967D-03 -0.34906970D-03  0.14453261D-03
 -0.61252409D-03 -0.16250096D-01 -0.29307717D-01 -0.43214212D-01 -0.33403167D-01
 -0.26237746D-02  0.12819936D-04  0.87026507D-02  0.10119642D-01 -0.17302571D-01
  0.38788375D-02  0.53566827D-02 -0.78282147D-02 -0.12287407D-04  0.13011250D-03
  0.48674289D-05  0.39600474D-03  0.47371647D-02 -0.51331695D-02 -0.80410625D-03
  0.84523655D-02  0.10198089D-02 -0.22442314D-03  0.44938280D-03 -0.22495967D-03
 -0.34906970D-03 -0.14453261D-03  0.61252409D-03
MO    4     MO 0.0        OCC NO =    2.0000000  ORB. ENERGY =   -0.784882
  0.15284748D-14  0.27566672D-14  0.40647041D-14 -0.36522744D-12 -0.92542797D-13
 -0.13069688D-14 -0.70974788D-12  0.19392503D-11  0.17221450D-01 -0.48687499D-12
  0.91493200D-12  0.85612971D-02 -0.16393269D-13 -0.48089238D-14  0.12919659D-03
 -0.37411053D-12  0.37905532D-12 -0.49447953D-14  0.81344305D-12  0.88744875D-02
  0.28010026D-02 -0.29043684D-13  0.62499668D-13 -0.33455985D-13  0.75343975D-13
  0.11107439D-02 -0.11614956D-03 -0.48743788D-14 -0.90826872D-14 -0.15361101D-13
 -0.23132967D-13 -0.28640114D-13 -0.24371444D-13 -0.92737842D-14  0.43433088D-16
  0.45445063D-14  0.85209918D-14  0.14496742D-13  0.22511910D-13  0.29874614D-13
  0.31483742D-13  0.19521929D-13 -0.12985995D-13 -0.75675554D-13  0.91105943D-12
  0.63352980D-13 -0.39554226D-10 -0.37991362D-10 -0.26642165D-10  0.11104342D-09
  0.10665588D-09  0.74794463D-10  0.97990247D+00  0.94118461D+00  0.66002361D+00
 -0.88925919D-11  0.24955453D-10  0.22114301D+00 -0.57329179D-12  0.15682801D-11
  0.14906724D-01  0.13147138D-14 -0.31609090D-14 -0.25876698D-04 -0.88715089D-12
  0.35351529D-11 -0.26480020D-11  0.12276304D-11  0.44054615D-01 -0.31013622D-01
  0.37067423D-13 -0.13585884D-12  0.98791417D-13 -0.45796819D-13 -0.92724401D-03
  0.65925615D-03  0.30091571D-13 -0.11259096D-12  0.82499388D-13 -0.37045804D-13
 -0.11695421D-02  0.81813980D-03 -0.29088042D-12 -0.36979904D-12 -0.12156526D-02
 -0.19440021D-12  0.90572176D-12 -0.12462763D-02  0.10670415D-11  0.20367535D-12
  0.48932341D-02  0.17157673D-01 -0.88384991D-14  0.49504818D-13  0.71595144D-04
  0.10337686D-13 -0.91478790D-13  0.69393122D-04  0.16177811D-13 -0.57035664D-13
 -0.28417855D-03 -0.98237529D-03  0.50185365D-11  0.90511373D-11  0.13345897D-10
  0.10145112D-10  0.96641108D-12 -0.17776685D-14 -0.67913283D-12 -0.46083849D-11
  0.17215696D-01 -0.33791100D-12 -0.19325570D-11  0.85725856D-02 -0.18573119D-14
 -0.20795748D-13  0.13057068D-03 -0.87169299D-12  0.17563811D-11 -0.88468816D-12
  0.35755848D-12  0.37332790D-03 -0.93014958D-02  0.24375294D-13 -0.28834188D-13
  0.44588942D-14  0.38802844D-13  0.48813497D-03 -0.10052183D-02  0.36146124D-01
  0.65191023D-01  0.96124126D-01  0.74271522D-01  0.58207309D-02 -0.28677156D-04
 -0.22251566D-01  0.15660976D-01 -0.21269968D-01 -0.10068757D-01  0.70805874D-02
 -0.88458974D-02  0.68099036D-05 -0.46932661D-05  0.14182055D-03 -0.40524239D-03
 -0.33367209D-02  0.37419633D-02 -0.81505606D-02  0.16126717D-01 -0.11343032D-01
  0.21324945D-03  0.24737350D-03 -0.46062295D-03  0.93431329D-04 -0.54788308D-04
  0.43146612D-04 -0.36146124D-01 -0.65191023D-01 -0.96124126D-01 -0.74271522D-01
 -0.58207309D-02  0.28677156D-04  0.22251566D-01 -0.15660976D-01 -0.21269968D-01
  0.10068757D-01 -0.70805874D-02 -0.88458974D-02 -0.68099036D-05  0.46932661D-05
  0.14182055D-03  0.40524239D-03  0.33367209D-02 -0.37419633D-02  0.81505606D-02
  0.16126717D-01 -0.11343032D-01 -0.21324945D-03 -0.24737350D-03  0.46062295D-03
 -0.93431329D-04 -0.54788308D-04  0.43146612D-04
MO    5     MO 0.0        OCC NO =    2.0000000  ORB. ENERGY =   -0.784878
 -0.42707787D-01 -0.77025253D-01 -0.11357369D+00 -0.87795549D-01 -0.68890461D-02
  0.34045538D-04 -0.35295678D-01 -0.17377446D-01  0.54276184D-12 -0.15223087D-01
 -0.78125141D-02  0.28396108D-12  0.14180069D-03  0.13744504D-04  0.22525876D-13
 -0.11624136D-01  0.41236588D-02  0.75004776D-02 -0.16000833D-01  0.28606598D-12
  0.90881126D-13  0.34943349D-03 -0.25056110D-03 -0.98872387D-04  0.14792589D-03
  0.43013326D-13  0.74965381D-16 -0.14812916D-05 -0.27601689D-05 -0.46681375D-05
 -0.70299565D-05 -0.87035421D-05 -0.74063216D-05 -0.28182420D-05  0.13199030D-07
  0.58153863D-06  0.10903904D-05  0.18550785D-05  0.28807410D-05  0.38229108D-05
  0.40288232D-05  0.24981274D-05 -0.16617553D-05 -0.20907722D-05  0.25119178D-04
 -0.18675330D-05  0.97708355D+00  0.93847707D+00  0.65812490D+00  0.74299404D-01
  0.71363689D-01  0.50045145D-01  0.30999782D-10  0.29774921D-10  0.20880229D-10
  0.22047945D+00  0.16763659D-01  0.70460684D-11  0.14862247D-01  0.11246942D-02
  0.51814160D-12 -0.25322230D-04 -0.18407095D-05 -0.63470891D-14 -0.22997474D-01
  0.22116244D-02  0.20785850D-01 -0.31129142D-01  0.13880863D-11 -0.97689022D-12
  0.49571089D-03 -0.51238334D-04 -0.44447256D-03  0.66552144D-03  0.16645933D-13
 -0.12428875D-13  0.60897170D-03 -0.58186340D-04 -0.55078536D-03  0.82301981D-03
 -0.20829284D-13  0.14305324D-13 -0.14071010D-02 -0.23243466D-03 -0.36286089D-13
  0.48162161D-02 -0.82380699D-02 -0.39200585D-13 -0.59491318D-03  0.89353739D-02
  0.14805885D-12  0.52366464D-12  0.80778036D-04  0.14818538D-04  0.26984591D-14
 -0.28051268D-03  0.46677420D-03  0.15860897D-14  0.38178567D-04 -0.51122981D-03
 -0.96814670D-14 -0.43106614D-13  0.32524342D-02  0.58658990D-02  0.86492647D-02
  0.66840151D-02  0.53339104D-03 -0.25419382D-05  0.17175082D-01 -0.29355009D-02
  0.54415547D-12  0.85553980D-02 -0.12780185D-02  0.27846321D-12  0.12885075D-03
  0.92555175D-05  0.20420907D-13 -0.72236924D-03  0.11171446D-02 -0.39477537D-03
 -0.92763589D-02  0.13878994D-13 -0.29881020D-12 -0.22499061D-03 -0.27985667D-04
  0.25297627D-03 -0.10040921D-02  0.14169971D-13 -0.37630044D-13  0.19727689D-01
  0.35579699D-01  0.52462246D-01  0.40531636D-01  0.31788822D-02 -0.15694217D-04
  0.50215947D-02  0.98524452D-02 -0.21002543D-01  0.30365907D-02  0.45142930D-02
 -0.95063338D-02  0.13200047D-03  0.66938754D-05  0.63166218D-05 -0.46627170D-02
 -0.15789167D-02  0.62416337D-02 -0.20306103D-02  0.35879831D-02 -0.82548939D-02
 -0.44802479D-03  0.17450251D-03  0.27352227D-03 -0.93313571D-04 -0.66285035D-03
  0.46774198D-04  0.19727689D-01  0.35579699D-01  0.52462246D-01  0.40531636D-01
  0.31788822D-02 -0.15694217D-04  0.50215947D-02  0.98524452D-02  0.21002543D-01
  0.30365907D-02  0.45142930D-02  0.95063338D-02  0.13200047D-03  0.66938754D-05
 -0.63166217D-05 -0.46627170D-02 -0.15789167D-02  0.62416337D-02 -0.20306103D-02
 -0.35879831D-02  0.82548939D-02 -0.44802479D-03  0.17450251D-03  0.27352227D-03
 -0.93313571D-04  0.66285035D-03 -0.46774198D-04
END DATA
RHF
