 Molden2AIM, Version 4.0.0 (06/02/2016)           Time: Sat Jun 30 05:10:17 2018
GAUSSIAN             16 MOL ORBITALS    327 PRIMITIVES        5 NUCLEI
  N    1    (CENTRE  1)   0.14902191 -0.00401945 -0.00013228  CHARGE =  7.0
  O    2    (CENTRE  2)   0.65988291  2.21929058  0.00004724  CHARGE =  8.0
  O    3    (CENTRE  3)   1.50381192 -1.80540277  0.00006047  CHARGE =  8.0
  O    4    (CENTRE  4)  -2.40351242 -0.58782577  0.00000378  CHARGE =  8.0
  H    5    (CENTRE  5)  -3.21055398  1.06102642  0.00002079  CHARGE =  1.0
CENTRE ASSIGNMENTS    1  1  1  1  1  1  1  1  1  1  1  1  1  1  1  1  1  1  1  1
CENTRE ASSIGNMENTS    1  1  1  1  1  1  1  1  1  1  1  1  1  1  1  1  1  1  1  1
CENTRE ASSIGNMENTS    1  1  1  1  1  1  1  1  1  1  1  1  1  1  1  1  1  1  1  1
CENTRE ASSIGNMENTS    1  1  1  1  1  1  1  1  1  1  1  1  1  1  1  2  2  2  2  2
CENTRE ASSIGNMENTS    2  2  2  2  2  2  2  2  2  2  2  2  2  2  2  2  2  2  2  2
CENTRE ASSIGNMENTS    2  2  2  2  2  2  2  2  2  2  2  2  2  2  2  2  2  2  2  2
CENTRE ASSIGNMENTS    2  2  2  2  2  2  2  2  2  2  2  2  2  2  2  2  2  2  2  2
CENTRE ASSIGNMENTS    2  2  2  2  2  2  2  2  2  2  3  3  3  3  3  3  3  3  3  3
CENTRE ASSIGNMENTS    3  3  3  3  3  3  3  3  3  3  3  3  3  3  3  3  3  3  3  3
CENTRE ASSIGNMENTS    3  3  3  3  3  3  3  3  3  3  3  3  3  3  3  3  3  3  3  3
CENTRE ASSIGNMENTS    3  3  3  3  3  3  3  3  3  3  3  3  3  3  3  3  3  3  3  3
CENTRE ASSIGNMENTS    3  3  3  3  3  4  4  4  4  4  4  4  4  4  4  4  4  4  4  4
CENTRE ASSIGNMENTS    4  4  4  4  4  4  4  4  4  4  4  4  4  4  4  4  4  4  4  4
CENTRE ASSIGNMENTS    4  4  4  4  4  4  4  4  4  4  4  4  4  4  4  4  4  4  4  4
CENTRE ASSIGNMENTS    4  4  4  4  4  4  4  4  4  4  4  4  4  4  4  4  4  4  4  4
CENTRE ASSIGNMENTS    5  5  5  5  5  5  5  5  5  5  5  5  5  5  5  5  5  5  5  5
CENTRE ASSIGNMENTS    5  5  5  5  5  5  5
TYPE ASSIGNMENTS      1  1  1  1  1  1  1  1  1  1  1  1  1  1  1  1  1  1  1  2
TYPE ASSIGNMENTS      2  2  3  3  3  4  4  4  2  3  4  2  3  4  2  3  4  5  6  7
TYPE ASSIGNMENTS      8  9 10  5  6  7  8  9 10  5  6  7  8  9 10 11 12 13 17 14
TYPE ASSIGNMENTS     15 18 19 16 20 11 12 13 17 14 15 18 19 16 20  1  1  1  1  1
TYPE ASSIGNMENTS      1  1  1  1  1  1  1  1  1  1  1  1  1  1  2  2  2  3  3  3
TYPE ASSIGNMENTS      4  4  4  2  3  4  2  3  4  2  3  4  5  6  7  8  9 10  5  6
TYPE ASSIGNMENTS      7  8  9 10  5  6  7  8  9 10 11 12 13 17 14 15 18 19 16 20
TYPE ASSIGNMENTS     11 12 13 17 14 15 18 19 16 20  1  1  1  1  1  1  1  1  1  1
TYPE ASSIGNMENTS      1  1  1  1  1  1  1  1  1  2  2  2  3  3  3  4  4  4  2  3
TYPE ASSIGNMENTS      4  2  3  4  2  3  4  5  6  7  8  9 10  5  6  7  8  9 10  5
TYPE ASSIGNMENTS      6  7  8  9 10 11 12 13 17 14 15 18 19 16 20 11 12 13 17 14
TYPE ASSIGNMENTS     15 18 19 16 20  1  1  1  1  1  1  1  1  1  1  1  1  1  1  1
TYPE ASSIGNMENTS      1  1  1  1  2  2  2  3  3  3  4  4  4  2  3  4  2  3  4  2
TYPE ASSIGNMENTS      3  4  5  6  7  8  9 10  5  6  7  8  9 10  5  6  7  8  9 10
TYPE ASSIGNMENTS     11 12 13 17 14 15 18 19 16 20 11 12 13 17 14 15 18 19 16 20
TYPE ASSIGNMENTS      1  1  1  1  1  1  2  3  4  2  3  4  2  3  4  5  6  7  8  9
TYPE ASSIGNMENTS     10  5  6  7  8  9 10
EXPONENTS  0.1142000D+05 0.1712000D+04 0.3893000D+03 0.1100000D+03 0.3557000D+02
EXPONENTS  0.1254000D+02 0.4644000D+01 0.5118000D+00 0.1142000D+05 0.1712000D+04
EXPONENTS  0.3893000D+03 0.1100000D+03 0.3557000D+02 0.1254000D+02 0.4644000D+01
EXPONENTS  0.5118000D+00 0.1293000D+01 0.1787000D+00 0.5760000D-01 0.2663000D+02
EXPONENTS  0.5948000D+01 0.1742000D+01 0.2663000D+02 0.5948000D+01 0.1742000D+01
EXPONENTS  0.2663000D+02 0.5948000D+01 0.1742000D+01 0.5550000D+00 0.5550000D+00
EXPONENTS  0.5550000D+00 0.1725000D+00 0.1725000D+00 0.1725000D+00 0.4910000D-01
EXPONENTS  0.4910000D-01 0.4910000D-01 0.1654000D+01 0.1654000D+01 0.1654000D+01
EXPONENTS  0.1654000D+01 0.1654000D+01 0.1654000D+01 0.4690000D+00 0.4690000D+00
EXPONENTS  0.4690000D+00 0.4690000D+00 0.4690000D+00 0.4690000D+00 0.1510000D+00
EXPONENTS  0.1510000D+00 0.1510000D+00 0.1510000D+00 0.1510000D+00 0.1510000D+00
EXPONENTS  0.1093000D+01 0.1093000D+01 0.1093000D+01 0.1093000D+01 0.1093000D+01
EXPONENTS  0.1093000D+01 0.1093000D+01 0.1093000D+01 0.1093000D+01 0.1093000D+01
EXPONENTS  0.3640000D+00 0.3640000D+00 0.3640000D+00 0.3640000D+00 0.3640000D+00
EXPONENTS  0.3640000D+00 0.3640000D+00 0.3640000D+00 0.3640000D+00 0.3640000D+00
EXPONENTS  0.1533000D+05 0.2299000D+04 0.5224000D+03 0.1473000D+03 0.4755000D+02
EXPONENTS  0.1676000D+02 0.6207000D+01 0.6882000D+00 0.1533000D+05 0.2299000D+04
EXPONENTS  0.5224000D+03 0.1473000D+03 0.4755000D+02 0.1676000D+02 0.6207000D+01
EXPONENTS  0.6882000D+00 0.1752000D+01 0.2384000D+00 0.7376000D-01 0.3446000D+02
EXPONENTS  0.7749000D+01 0.2280000D+01 0.3446000D+02 0.7749000D+01 0.2280000D+01
EXPONENTS  0.3446000D+02 0.7749000D+01 0.2280000D+01 0.7156000D+00 0.7156000D+00
EXPONENTS  0.7156000D+00 0.2140000D+00 0.2140000D+00 0.2140000D+00 0.5974000D-01
EXPONENTS  0.5974000D-01 0.5974000D-01 0.2314000D+01 0.2314000D+01 0.2314000D+01
EXPONENTS  0.2314000D+01 0.2314000D+01 0.2314000D+01 0.6450000D+00 0.6450000D+00
EXPONENTS  0.6450000D+00 0.6450000D+00 0.6450000D+00 0.6450000D+00 0.2140000D+00
EXPONENTS  0.2140000D+00 0.2140000D+00 0.2140000D+00 0.2140000D+00 0.2140000D+00
EXPONENTS  0.1428000D+01 0.1428000D+01 0.1428000D+01 0.1428000D+01 0.1428000D+01
EXPONENTS  0.1428000D+01 0.1428000D+01 0.1428000D+01 0.1428000D+01 0.1428000D+01
EXPONENTS  0.5000000D+00 0.5000000D+00 0.5000000D+00 0.5000000D+00 0.5000000D+00
EXPONENTS  0.5000000D+00 0.5000000D+00 0.5000000D+00 0.5000000D+00 0.5000000D+00
EXPONENTS  0.1533000D+05 0.2299000D+04 0.5224000D+03 0.1473000D+03 0.4755000D+02
EXPONENTS  0.1676000D+02 0.6207000D+01 0.6882000D+00 0.1533000D+05 0.2299000D+04
EXPONENTS  0.5224000D+03 0.1473000D+03 0.4755000D+02 0.1676000D+02 0.6207000D+01
EXPONENTS  0.6882000D+00 0.1752000D+01 0.2384000D+00 0.7376000D-01 0.3446000D+02
EXPONENTS  0.7749000D+01 0.2280000D+01 0.3446000D+02 0.7749000D+01 0.2280000D+01
EXPONENTS  0.3446000D+02 0.7749000D+01 0.2280000D+01 0.7156000D+00 0.7156000D+00
EXPONENTS  0.7156000D+00 0.2140000D+00 0.2140000D+00 0.2140000D+00 0.5974000D-01
EXPONENTS  0.5974000D-01 0.5974000D-01 0.2314000D+01 0.2314000D+01 0.2314000D+01
EXPONENTS  0.2314000D+01 0.2314000D+01 0.2314000D+01 0.6450000D+00 0.6450000D+00
EXPONENTS  0.6450000D+00 0.6450000D+00 0.6450000D+00 0.6450000D+00 0.2140000D+00
EXPONENTS  0.2140000D+00 0.2140000D+00 0.2140000D+00 0.2140000D+00 0.2140000D+00
EXPONENTS  0.1428000D+01 0.1428000D+01 0.1428000D+01 0.1428000D+01 0.1428000D+01
EXPONENTS  0.1428000D+01 0.1428000D+01 0.1428000D+01 0.1428000D+01 0.1428000D+01
EXPONENTS  0.5000000D+00 0.5000000D+00 0.5000000D+00 0.5000000D+00 0.5000000D+00
EXPONENTS  0.5000000D+00 0.5000000D+00 0.5000000D+00 0.5000000D+00 0.5000000D+00
EXPONENTS  0.1533000D+05 0.2299000D+04 0.5224000D+03 0.1473000D+03 0.4755000D+02
EXPONENTS  0.1676000D+02 0.6207000D+01 0.6882000D+00 0.1533000D+05 0.2299000D+04
EXPONENTS  0.5224000D+03 0.1473000D+03 0.4755000D+02 0.1676000D+02 0.6207000D+01
EXPONENTS  0.6882000D+00 0.1752000D+01 0.2384000D+00 0.7376000D-01 0.3446000D+02
EXPONENTS  0.7749000D+01 0.2280000D+01 0.3446000D+02 0.7749000D+01 0.2280000D+01
EXPONENTS  0.3446000D+02 0.7749000D+01 0.2280000D+01 0.7156000D+00 0.7156000D+00
EXPONENTS  0.7156000D+00 0.2140000D+00 0.2140000D+00 0.2140000D+00 0.5974000D-01
EXPONENTS  0.5974000D-01 0.5974000D-01 0.2314000D+01 0.2314000D+01 0.2314000D+01
EXPONENTS  0.2314000D+01 0.2314000D+01 0.2314000D+01 0.6450000D+00 0.6450000D+00
EXPONENTS  0.6450000D+00 0.6450000D+00 0.6450000D+00 0.6450000D+00 0.2140000D+00
EXPONENTS  0.2140000D+00 0.2140000D+00 0.2140000D+00 0.2140000D+00 0.2140000D+00
EXPONENTS  0.1428000D+01 0.1428000D+01 0.1428000D+01 0.1428000D+01 0.1428000D+01
EXPONENTS  0.1428000D+01 0.1428000D+01 0.1428000D+01 0.1428000D+01 0.1428000D+01
EXPONENTS  0.5000000D+00 0.5000000D+00 0.5000000D+00 0.5000000D+00 0.5000000D+00
EXPONENTS  0.5000000D+00 0.5000000D+00 0.5000000D+00 0.5000000D+00 0.5000000D+00
EXPONENTS  0.3387000D+02 0.5095000D+01 0.1159000D+01 0.3258000D+00 0.1027000D+00
EXPONENTS  0.2526000D-01 0.1407000D+01 0.1407000D+01 0.1407000D+01 0.3880000D+00
EXPONENTS  0.3880000D+00 0.3880000D+00 0.1020000D+00 0.1020000D+00 0.1020000D+00
EXPONENTS  0.1057000D+01 0.1057000D+01 0.1057000D+01 0.1057000D+01 0.1057000D+01
EXPONENTS  0.1057000D+01 0.2470000D+00 0.2470000D+00 0.2470000D+00 0.2470000D+00
EXPONENTS  0.2470000D+00 0.2470000D+00
MO    1     MO 0.0        OCC NO =    2.0000000  ORB. ENERGY =  -19.062854
  0.19159188D-03  0.35700325D-03  0.60378200D-03  0.90926223D-03  0.11257256D-02
  0.95794171D-03  0.36451449D-03 -0.17071769D-05 -0.12626544D-03 -0.23674888D-03
 -0.40278028D-03 -0.62547525D-03 -0.83004204D-03 -0.87475037D-03 -0.54240103D-03
  0.36080538D-03 -0.45394813D-03  0.22528954D-02  0.76978279D-03  0.10506550D-02
  0.10091415D-02  0.70767970D-03  0.34183009D-03  0.32832371D-03  0.23024325D-03
 -0.84854548D-07 -0.81501779D-07 -0.57154673D-07 -0.17827581D-02 -0.81886853D-03
  0.77441934D-07 -0.10606293D-02  0.13319006D-03  0.78736460D-07 -0.65395770D-04
  0.11465275D-04  0.50290293D-08  0.71977157D-03 -0.42766358D-03 -0.29210799D-03
  0.74601027D-03 -0.75577624D-07 -0.14452123D-07  0.67013134D-03 -0.29590821D-03
 -0.37422312D-03  0.32093513D-03 -0.13904947D-06 -0.11699971D-06  0.71580237D-04
 -0.74304515D-05 -0.64149786D-04  0.96057761D-04 -0.29207582D-07 -0.16652631D-07
 -0.40685969D-03  0.11733389D-03 -0.30144591D-07  0.61735362D-03 -0.74570708D-03
  0.12728449D-06  0.60322544D-03  0.39370540D-03 -0.36850716D-07  0.52601135D-08
  0.45224990D-04 -0.10410603D-03 -0.17666193D-07 -0.17053144D-03  0.45254719D-03
  0.89322520D-08  0.34856469D-04 -0.14022909D-03  0.44066328D-07 -0.83138825D-07
  0.22025120D-03  0.41051989D-03  0.69610572D-03  0.10535884D-02  0.13145707D-02
  0.11290409D-02  0.43346077D-03 -0.19388966D-05 -0.12742564D-03 -0.23898995D-03
 -0.40742548D-03 -0.63672672D-03 -0.85142494D-03 -0.90912333D-03 -0.55582018D-03
  0.36669640D-03  0.27485794D-05 -0.36370812D-03 -0.23080510D-03 -0.48877218D-04
 -0.47394460D-04 -0.31972023D-04  0.19335992D-04  0.18749408D-04  0.12648240D-04
  0.62781821D-07  0.60877248D-07  0.41067432D-07 -0.78246755D-04 -0.21340974D-03
 -0.76094453D-07 -0.18341356D-04  0.11051271D-03  0.63269088D-07  0.11669040D-04
  0.89063437D-05  0.28664802D-08  0.38313968D-03 -0.13169157D-03 -0.25144811D-03
 -0.20522622D-03 -0.10120318D-06  0.82014914D-07 -0.24464163D-03  0.12681002D-03
  0.11783162D-03  0.23606108D-03  0.67775390D-07 -0.22746408D-07 -0.40403969D-04
  0.17924439D-04  0.22479530D-04  0.36871950D-04  0.17006750D-07 -0.28913213D-07
 -0.70050600D-04  0.27997572D-04  0.49537991D-07  0.43830550D-03 -0.10240158D-03
 -0.38858872D-07 -0.22815370D-03  0.18408867D-04 -0.10975510D-06  0.19832443D-06
  0.69427914D-04 -0.63957724D-04 -0.22598631D-07 -0.23292983D-03  0.27079257D-03
  0.13648430D-07  0.24646093D-04 -0.78919399D-04  0.54147462D-07 -0.11430891D-06
  0.21169170D-03  0.39456609D-03  0.66905335D-03  0.10126434D-02  0.12634833D-02
  0.10851637D-02  0.41661543D-03 -0.18635464D-05 -0.12182107D-03 -0.22847844D-03
 -0.38950564D-03 -0.60872150D-03 -0.81397664D-03 -0.86913728D-03 -0.53137349D-03
  0.35056795D-03  0.60661646D-04  0.11630191D-03 -0.90462895D-04 -0.27983212D-03
 -0.27134302D-03 -0.18304640D-03 -0.84727287D-04 -0.82156967D-04 -0.55422605D-04
  0.13073604D-06  0.12676998D-06  0.85518279D-07  0.16608420D-03  0.23807818D-03
 -0.15878294D-06  0.17334566D-03 -0.22208584D-04 -0.36344829D-07  0.12329983D-04
 -0.70458327D-05 -0.81479551D-09  0.17517041D-03 -0.95493153D-04 -0.79677257D-04
  0.19584588D-03 -0.38715978D-07  0.96646933D-07 -0.15643901D-03  0.76469232D-04
  0.79969773D-04  0.17579878D-04  0.46879095D-07 -0.10158380D-06 -0.42616841D-04
  0.26994247D-05  0.39917416D-04  0.26726234D-04  0.95243988D-08  0.23109047D-08
  0.40309113D-05  0.14421180D-03  0.40025169D-07  0.31178202D-03 -0.38225391D-03
  0.54008653D-08 -0.32387475D-03 -0.50381503D-04 -0.12547637D-06 -0.66504689D-07
  0.47035341D-04 -0.33297689D-04 -0.12141968D-07 -0.18105682D-03  0.29339282D-04
  0.16525942D-08  0.39950796D-04  0.70553786D-04  0.34773310D-07  0.42367758D-07
  0.49787547D+00  0.92797581D+00  0.15735395D+01  0.23816253D+01  0.29715730D+01
  0.25521849D+01  0.97983342D+00 -0.43828550D-02 -0.50215346D-03 -0.94180126D-03
 -0.16055647D-02 -0.25091851D-02 -0.33552586D-02 -0.35826339D-02 -0.21903521D-02
  0.14450613D-02  0.53486893D-01 -0.14626358D-02 -0.83581993D-03  0.45453977D-02
  0.44075068D-02  0.29732781D-02  0.73423850D-02  0.71196436D-02  0.48028695D-02
 -0.57203537D-06 -0.55468189D-06 -0.37418512D-06 -0.14407143D-02  0.35258538D-03
  0.93424981D-07 -0.12920210D-02 -0.46225909D-03  0.41014782D-07 -0.74349040D-04
 -0.27966762D-04  0.28483122D-08  0.10613652D-03  0.11984486D-02 -0.13045851D-02
 -0.11649575D-02  0.21260345D-06  0.77073501D-07 -0.94598597D-03  0.42216331D-03
  0.52382266D-03 -0.10125635D-02  0.10606362D-06  0.51404617D-07 -0.17463495D-03
  0.21494373D-04  0.15314057D-03 -0.81983569D-04  0.27210955D-07  0.15572776D-08
  0.31845992D-03  0.57544551D-03 -0.26534050D-07 -0.19955136D-02 -0.42715462D-03
  0.39827513D-07  0.10401338D-02 -0.12991819D-02  0.39774636D-07  0.27564490D-07
 -0.27811976D-03 -0.94909466D-05 -0.18203956D-07  0.57855736D-03 -0.36155709D-03
  0.70507435D-07  0.25580194D-03  0.39002993D-03 -0.15895568D-07  0.53233799D-07
  0.17537491D-03  0.31629586D-03  0.46637807D-03 -0.41997965D-03 -0.22992801D-03
 -0.30974042D-04 -0.31947764D-03  0.65653844D-03 -0.83588900D-08 -0.51642883D-03
  0.71464947D-03  0.18204766D-07 -0.73204777D-04  0.81948584D-04  0.56814136D-08
  0.38881882D-03 -0.14159840D-02  0.10271651D-02  0.25086633D-02  0.18079415D-07
 -0.42028116D-07 -0.28725952D-04 -0.15434005D-04  0.44159957D-04  0.10602193D-03
  0.92754871D-08  0.37517644D-09
MO    2     MO 0.0        OCC NO =    2.0000000  ORB. ENERGY =  -19.024953
  0.61510113D-03  0.11461504D-02  0.19384276D-02  0.29191646D-02  0.36141151D-02
  0.30754489D-02  0.11702650D-02 -0.54808504D-05 -0.45554276D-03 -0.85414693D-03
 -0.14531581D-02 -0.22566011D-02 -0.29946408D-02 -0.31559404D-02 -0.19568844D-02
  0.13017202D-02  0.76797705D-03 -0.87145308D-03 -0.28131874D-04  0.46023055D-03
  0.44204594D-03  0.30999313D-03 -0.27311790D-03 -0.26232647D-03 -0.18396143D-03
  0.70568513D-07  0.67780213D-07  0.47532164D-07  0.10459342D-02 -0.18174530D-02
  0.10162856D-06 -0.16800510D-03 -0.35688146D-03  0.27591244D-07  0.38007055D-04
 -0.23940069D-04 -0.43786118D-08  0.25745358D-03  0.84163926D-03 -0.10990928D-02
 -0.28257235D-02  0.28616706D-06 -0.28187211D-06  0.45618024D-04 -0.60792296D-03
  0.56230494D-03  0.72067203D-03 -0.18919730D-08 -0.63662310D-07  0.32109980D-04
 -0.80187951D-04  0.48077970D-04  0.45028926D-04 -0.30569539D-08 -0.21133184D-07
  0.33170817D-03 -0.13195103D-03  0.94658800D-07 -0.12755194D-02  0.65465035D-03
 -0.41743605D-07  0.28039486D-03 -0.25879728D-03 -0.24223280D-06  0.25369986D-06
  0.41252509D-03 -0.80583719D-04 -0.80382451D-08 -0.14303081D-02  0.42549207D-03
  0.87111163D-07  0.19273281D-03 -0.18374092D-03 -0.62996428D-07  0.31310687D-06
  0.74696890D-02  0.13922539D-01  0.23608013D-01  0.35731828D-01  0.44582889D-01
  0.38290755D-01  0.14700566D-01 -0.65756532D-04 -0.32155995D-03 -0.60309366D-03
 -0.10281425D-02 -0.16067866D-02 -0.21485798D-02 -0.22941823D-02 -0.14026181D-02
  0.92536222D-03  0.71109549D-03  0.12155143D-02  0.21557556D-03 -0.36640491D-03
 -0.35528951D-03 -0.23967620D-03  0.34677391D-03  0.33625405D-03  0.22683499D-03
  0.13981259D-06  0.13557119D-06  0.91455520D-07  0.33489880D-03 -0.13287316D-02
 -0.21885640D-06  0.94568414D-04 -0.43086759D-03 -0.55503376D-07 -0.10137918D-04
 -0.15675586D-04  0.28334485D-08  0.49314996D-03  0.27384449D-03 -0.76699445D-03
 -0.32232957D-03  0.59777002D-06 -0.14909332D-06 -0.55354793D-03  0.37134740D-03
  0.18220053D-03  0.19186985D-03 -0.30716656D-06  0.24894174D-06 -0.83561404D-04
  0.56711049D-04  0.26850355D-04 -0.62729041D-05 -0.37753935D-07  0.15164722D-07
 -0.15051178D-03 -0.82185788D-04  0.78068338D-07  0.33028628D-03  0.78474342D-05
 -0.17853893D-06  0.12124905D-03  0.23870993D-03 -0.55666089D-07 -0.23466085D-06
  0.15859795D-03 -0.33161529D-04 -0.27717100D-07 -0.43020159D-03  0.30291507D-03
  0.15256870D-06 -0.45592253D-04 -0.20343048D-03 -0.69417395D-07  0.24684018D-06
  0.49800237D+00  0.92821234D+00  0.15739406D+01  0.23822324D+01  0.29723305D+01
  0.25528355D+01  0.98008317D+00 -0.43839722D-02 -0.62920382D-03 -0.11800874D-02
 -0.20117902D-02 -0.31440365D-02 -0.42041759D-02 -0.44890797D-02 -0.27445353D-02
  0.18106777D-02  0.53720651D-01 -0.20933268D-03 -0.54586679D-03 -0.60869569D-02
 -0.59023007D-02 -0.39816572D-02  0.80883349D-02  0.78429641D-02  0.52908172D-02
 -0.10121126D-05 -0.98140876D-06 -0.66205255D-06 -0.47397053D-04 -0.49393865D-04
 -0.37652244D-07  0.54244768D-03 -0.98375233D-03  0.14492276D-07  0.22564155D-04
 -0.39733973D-04  0.56292774D-08  0.88964126D-03  0.16615220D-02 -0.25511632D-02
 -0.16763846D-02  0.30446256D-06 -0.21232084D-06 -0.18164923D-03 -0.66289474D-03
  0.84454397D-03  0.89731818D-03 -0.95501985D-07  0.10255909D-06  0.70634352D-05
 -0.15618676D-03  0.14912332D-03  0.31961729D-03 -0.23590633D-07  0.43415185D-07
 -0.47133775D-04  0.88586389D-04  0.28644370D-07  0.18885941D-03 -0.12168953D-03
 -0.45578541D-07 -0.47458083D-04 -0.14406964D-03 -0.40354568D-07 -0.51929680D-07
  0.54566616D-06 -0.12383727D-03 -0.46307928D-07  0.33743216D-03 -0.14317454D-03
  0.51608378D-07 -0.33906915D-03  0.51468636D-03  0.87315405D-07 -0.13388920D-06
  0.21240376D-03  0.39589328D-03  0.67130383D-03  0.10160496D-02  0.12677333D-02
  0.10888138D-02  0.41801679D-03 -0.18698148D-05 -0.17358786D-03 -0.32556834D-03
 -0.55502265D-03 -0.86739237D-03 -0.11598689D-02 -0.12384695D-02 -0.75717599D-03
  0.49953873D-03  0.70321888D-05  0.20312671D-03  0.24600846D-03 -0.35111884D-03
 -0.34046717D-03 -0.22967714D-03 -0.29646758D-03 -0.28747383D-03 -0.19392814D-03
  0.17026198D-06  0.16509685D-06  0.11137336D-06  0.77109996D-03  0.30692519D-03
 -0.17767508D-06  0.20401673D-03  0.35534532D-03 -0.33214173D-07  0.23154178D-04
  0.54513219D-06  0.17629442D-08  0.27742324D-03  0.18918320D-03 -0.46660644D-03
 -0.14135423D-02  0.30682817D-06 -0.83784878D-07  0.67389852D-05 -0.21523342D-03
  0.20849443D-03  0.12387144D-02 -0.27455201D-06  0.24739342D-07 -0.11098727D-04
  0.20070124D-04 -0.89713968D-05  0.16489318D-03 -0.42569327D-07  0.23578182D-07
 -0.17806768D-03 -0.41586826D-04  0.83865101D-07  0.66821593D-03  0.19543673D-03
 -0.91701503D-07 -0.13401287D-03 -0.70676255D-04 -0.15989380D-06 -0.15958533D-06
 -0.17207948D-04 -0.15846340D-03 -0.23391244D-07 -0.46225024D-04  0.42053600D-03
 -0.57740470D-07  0.97848868D-04  0.54854197D-04  0.12791420D-06 -0.38890718D-07
  0.83690093D-04  0.15093853D-03  0.22255877D-03 -0.66670321D-04 -0.55312259D-04
  0.86786737D-05  0.42947580D-03 -0.22854683D-03 -0.80258299D-07 -0.19542444D-03
 -0.11020557D-03 -0.64195084D-07 -0.30565078D-04  0.18181662D-04 -0.77742866D-08
 -0.23855908D-03  0.13135326D-03  0.10720582D-03 -0.23847412D-03 -0.39996114D-07
  0.12051051D-06 -0.28809772D-04  0.48887878D-04 -0.20078107D-04  0.35649765D-04
  0.52925366D-08  0.12655058D-07
MO    3     MO 0.0        OCC NO =    2.0000000  ORB. ENERGY =  -19.024470
  0.57807243D-03  0.10771529D-02  0.18217355D-02  0.27434327D-02  0.33965477D-02
  0.28903088D-02  0.10998158D-02 -0.51509067D-05 -0.42689795D-03 -0.80043764D-03
 -0.13617826D-02 -0.21147046D-02 -0.28063360D-02 -0.29574929D-02 -0.18338343D-02
  0.12198673D-02  0.63956468D-03 -0.48191514D-03  0.18229024D-03  0.17104646D-03
  0.16428808D-03  0.11521014D-03  0.26915430D-03  0.25851948D-03  0.18129171D-03
  0.37256719D-07  0.35784634D-07  0.25094655D-07  0.43245626D-03  0.22418567D-02
  0.10731661D-06 -0.46476344D-03  0.51671757D-03  0.71113922D-07  0.77534324D-05
  0.56936785D-04  0.22600070D-08 -0.71325593D-03  0.17754319D-02 -0.10621760D-02
  0.14822995D-02  0.10714898D-06  0.37905075D-06  0.23857790D-05 -0.48574684D-03
  0.48336106D-03  0.17761976D-03  0.24362085D-07  0.56384085D-07 -0.38555234D-05
 -0.46097428D-04  0.49952951D-04  0.18183566D-03 -0.91407480D-09 -0.19521199D-08
  0.25449513D-03 -0.28540906D-03  0.68719519D-07 -0.83343464D-03  0.62382887D-03
  0.29345678D-08  0.69949260D-04  0.23239832D-03 -0.20909313D-06 -0.95502250D-08
  0.19560157D-03 -0.48382626D-03 -0.12727689D-07 -0.71927555D-03  0.12423214D-02
  0.16547655D-06  0.13247083D-03  0.20915736D-03 -0.12729348D-06 -0.12055774D-06
  0.49794726D+00  0.92810962D+00  0.15737664D+01  0.23819688D+01  0.29720015D+01
  0.25525530D+01  0.97997472D+00 -0.43834870D-02 -0.58951959D-03 -0.11056586D-02
 -0.18849055D-02 -0.29457404D-02 -0.39390162D-02 -0.42059510D-02 -0.25714360D-02
  0.16964773D-02  0.53725002D-01 -0.71991554D-03 -0.70900635D-03 -0.24910768D-02
 -0.24155065D-02 -0.16294864D-02 -0.96083463D-02 -0.93168638D-02 -0.62851013D-02
 -0.92359997D-06 -0.89558129D-06 -0.60415385D-06 -0.12105808D-04  0.26506329D-03
 -0.20954520D-07  0.22754631D-04  0.12862995D-02  0.53869215D-07  0.11434726D-04
  0.52621932D-04  0.57619181D-08  0.44720646D-03  0.19240079D-02 -0.23712144D-02
  0.43613105D-03  0.13777649D-06  0.23524266D-06  0.11613719D-03 -0.99113929D-03
  0.87500210D-03 -0.23214203D-03 -0.23581991D-07 -0.15782842D-06  0.11642978D-03
 -0.25568745D-03  0.13925767D-03 -0.88713641D-04  0.21241019D-09 -0.52776476D-07
 -0.36300354D-04  0.80966453D-04  0.12670641D-07  0.21929349D-03 -0.21326002D-03
 -0.38055347D-07 -0.11039243D-03 -0.29639338D-04  0.43423582D-10  0.36003086D-07
 -0.80909452D-05  0.22518389D-03 -0.41388418D-07  0.13554882D-03 -0.88366546D-04
 -0.66712779D-08 -0.11127598D-03 -0.58718513D-03  0.13083653D-06  0.45649941D-07
 -0.65729569D-02 -0.12251146D-01 -0.20773884D-01 -0.31442241D-01 -0.39230737D-01
 -0.33693971D-01 -0.12935771D-01  0.57862496D-04 -0.30141271D-03 -0.56530701D-03
 -0.96372452D-03 -0.15061138D-02 -0.20139612D-02 -0.21504410D-02 -0.13147375D-02
  0.86738392D-03 -0.77071265D-03  0.15396546D-02  0.22966609D-03 -0.90451440D-04
 -0.87707471D-04 -0.59166942D-04 -0.73004754D-03 -0.70790054D-03 -0.47754552D-03
  0.16353418D-06  0.15857314D-06  0.10697250D-06 -0.13050254D-03  0.14478871D-02
 -0.23207630D-06  0.65007299D-04  0.56420365D-03 -0.14960997D-06 -0.82203001D-05
  0.28642324D-05 -0.32248302D-08  0.37068201D-03  0.31759957D-03 -0.68828157D-03
  0.33469155D-03  0.48624519D-06  0.43661698D-06 -0.41783810D-03  0.25030387D-03
  0.16753423D-03 -0.73446733D-03 -0.17807869D-06 -0.41602237D-06 -0.87791807D-04
  0.56105578D-04  0.31686228D-04 -0.57353393D-04 -0.20004799D-07 -0.62233116D-07
 -0.36935755D-04  0.15149674D-03  0.74392932D-07 -0.17661058D-04 -0.28689962D-03
 -0.25305808D-06  0.12846832D-03 -0.16759059D-03  0.29879280D-07  0.58538730D-07
  0.13862929D-03 -0.13509853D-03 -0.22193334D-07 -0.31864048D-03  0.24702629D-03
  0.21710593D-06 -0.97247401D-04  0.15826929D-03 -0.15052592D-06  0.22757379D-07
  0.17860054D-03  0.33288843D-03  0.56446847D-03  0.85434933D-03  0.10659785D-02
  0.91553338D-03  0.35149107D-03 -0.15722411D-05 -0.14460005D-03 -0.27120097D-03
 -0.46233821D-03 -0.72254462D-03 -0.96617983D-03 -0.10316548D-02 -0.63073352D-03
  0.41611967D-03 -0.10943798D-03  0.87957191D-03  0.17919766D-03 -0.35281719D-03
 -0.34211400D-03 -0.23078808D-03  0.16469489D-03  0.15969865D-03  0.10773176D-03
  0.14304833D-06  0.13870877D-06  0.93572114D-07  0.78617320D-03 -0.62055374D-04
 -0.15432030D-06 -0.13794052D-03  0.33316263D-03 -0.22783414D-07 -0.39361366D-05
 -0.95915286D-05 -0.24168560D-08 -0.37901093D-03  0.58359689D-03 -0.20458596D-03
  0.14341275D-02  0.28659075D-06  0.39746979D-07  0.50910650D-03 -0.51030040D-03
  0.11939041D-05 -0.79471927D-03 -0.26317231D-06 -0.86623749D-08  0.74696981D-04
 -0.41080143D-05 -0.70588967D-04 -0.20588666D-03 -0.28195382D-07 -0.63317024D-08
 -0.12001293D-04 -0.11817868D-03  0.77485312D-07  0.42073442D-03 -0.23491001D-03
 -0.18230266D-06 -0.38473054D-03  0.58944604D-03 -0.50153273D-07  0.22774203D-06
  0.16208649D-03 -0.43961642D-04 -0.24277286D-07 -0.73460594D-03  0.24772476D-03
 -0.40551547D-08  0.24834646D-03 -0.11583983D-03  0.76887011D-07 -0.21559963D-06
 -0.10831265D-04 -0.19534632D-04 -0.28803803D-04 -0.10401319D-02 -0.19282264D-03
 -0.80437495D-05  0.42647457D-03  0.13998009D-03 -0.63282075D-07 -0.30078843D-04
  0.40717453D-03 -0.59503796D-07 -0.59817562D-05  0.49490511D-04  0.22892201D-08
  0.13699605D-03 -0.15019339D-03  0.13197340D-04 -0.57289619D-03  0.20965222D-07
  0.14609265D-06 -0.33354195D-04  0.14075430D-04  0.19278766D-04 -0.60766460D-04
  0.11112964D-08  0.12019420D-07
MO    4     MO 0.0        OCC NO =    2.0000000  ORB. ENERGY =  -14.467254
  0.41369194D+00  0.77085401D+00  0.13037074D+01  0.19633111D+01  0.24307065D+01
  0.20684215D+01  0.78707254D+00 -0.36861965D-02 -0.23319257D-02 -0.43723825D-02
 -0.74387235D-02 -0.11551552D-01 -0.15329582D-01 -0.16155275D-01 -0.10017301D-01
  0.66635125D-02  0.41133995D-01  0.45289210D-04  0.12762231D-03 -0.11748109D-02
 -0.11283918D-02 -0.79130624D-03 -0.15187826D-03 -0.14587726D-03 -0.10229920D-03
  0.35368648D-06  0.33971164D-06  0.23822925D-06  0.25928072D-02 -0.17066509D-03
  0.55796567D-06  0.15431031D-03  0.18473460D-03 -0.73219479D-07  0.26889503D-04
  0.26023354D-04  0.46096492D-08  0.35161614D-03  0.46499204D-02 -0.50015366D-02
 -0.26278525D-02  0.55602378D-06 -0.11909536D-07 -0.60290001D-03  0.26902815D-03
  0.33387186D-03 -0.25733624D-03  0.21668769D-06 -0.68560332D-07 -0.10248637D-03
 -0.68685686D-04  0.17117206D-03  0.29416794D-03 -0.32606932D-08 -0.14238968D-07
 -0.10627173D-02  0.10289506D-02 -0.36263372D-06  0.46885564D-02 -0.31664209D-02
  0.12879924D-06 -0.15004045D-02  0.79569110D-04  0.95910193D-06 -0.53721859D-06
  0.29195137D-03 -0.31193300D-03  0.34501346D-07 -0.96100760D-03  0.10346853D-02
 -0.59248629D-07  0.85153501D-04 -0.98886329D-04 -0.44255410D-07 -0.21712036D-07
  0.51990635D-03  0.96903855D-03  0.16431683D-02  0.24870118D-02  0.31030645D-02
  0.26651186D-02  0.10231909D-02 -0.45767955D-05 -0.40277824D-03 -0.75542058D-03
 -0.12878265D-02 -0.20126221D-02 -0.26912593D-02 -0.28736374D-02 -0.17568856D-02
  0.11590864D-02  0.83319453D-03 -0.88132555D-03 -0.49651161D-03 -0.62333006D-03
 -0.60442048D-03 -0.40773849D-03 -0.22872267D-02 -0.22178406D-02 -0.14961421D-02
 -0.74159434D-07 -0.71909705D-07 -0.48509862D-07  0.37116331D-03  0.91091708D-03
 -0.33046050D-07  0.87985831D-04  0.11641210D-02  0.10732102D-06  0.12133784D-04
  0.48708365D-04  0.55828681D-08 -0.60953289D-04  0.10750431D-02 -0.10140898D-02
  0.43907862D-03  0.72396548D-07  0.21885690D-06  0.54170989D-03 -0.17559232D-02
  0.12142133D-02 -0.93311931D-03 -0.80492727D-07 -0.32611068D-06  0.91839429D-04
 -0.21788912D-03  0.12604969D-03 -0.16148141D-03  0.80182552D-09 -0.74431181D-07
 -0.45909140D-03  0.14769475D-02 -0.75426973D-07  0.16114183D-02 -0.25696125D-02
 -0.27022506D-06 -0.23414407D-03 -0.18612300D-02  0.49650597D-06  0.19391997D-06
 -0.68094380D-04  0.38499873D-03 -0.75625841D-07  0.39330175D-03 -0.30485704D-03
  0.20590527D-07 -0.18901861D-03 -0.85013913D-03  0.20628700D-06  0.43475951D-07
  0.50358734D-03  0.93862200D-03  0.15915919D-02  0.24089485D-02  0.30056644D-02
  0.25814648D-02  0.99107455D-03 -0.44331373D-05 -0.39592594D-03 -0.74256891D-03
 -0.12659172D-02 -0.19783822D-02 -0.26454739D-02 -0.28247494D-02 -0.17269964D-02
  0.11393673D-02  0.95437017D-03 -0.30770624D-03 -0.41203529D-03 -0.17084446D-02
 -0.16566166D-02 -0.11175438D-02  0.19559616D-02  0.18966248D-02  0.12794519D-02
 -0.85182156D-07 -0.82598038D-07 -0.55720148D-07  0.10548173D-02 -0.79314343D-03
 -0.37997821D-07  0.11807134D-02 -0.87357403D-03 -0.13368489D-08  0.44025305D-04
 -0.40252529D-04  0.98546487D-10  0.41715219D-03  0.45477031D-03 -0.87192250D-03
 -0.14426606D-02  0.15583018D-06  0.19320363D-07 -0.36585376D-03 -0.92559350D-03
  0.12914473D-02  0.30982945D-02 -0.26372735D-06  0.20105038D-06 -0.11372460D-03
 -0.71704689D-04  0.18542929D-03  0.50833097D-03 -0.44021384D-07  0.34592922D-07
 -0.93149029D-03 -0.17933421D-03 -0.11657826D-06  0.39057302D-02 -0.11673658D-02
 -0.74601727D-07 -0.11112594D-02  0.17053684D-02  0.42433651D-06 -0.84077450D-06
 -0.10575347D-03 -0.77539907D-04 -0.74252917D-07  0.86902240D-03 -0.53193954D-03
  0.10295216D-06 -0.55176197D-03  0.76455926D-03  0.11980659D-06 -0.21059492D-06
  0.28093600D-03  0.52362855D-03  0.88790053D-03  0.13438788D-02  0.16767684D-02
  0.14401204D-02  0.55289023D-03 -0.24731119D-05 -0.20327576D-03 -0.38124873D-03
 -0.64994550D-03 -0.10157383D-02 -0.13582357D-02 -0.14502790D-02 -0.88667215D-03
  0.58497243D-03 -0.43100453D-04  0.15384234D-02  0.12655800D-03 -0.13496528D-03
 -0.13087093D-03 -0.88284753D-04 -0.19078882D-03 -0.18500097D-03 -0.12480056D-03
  0.33751879D-07  0.32727969D-07  0.22078094D-07  0.13738467D-02  0.41284909D-03
 -0.97838770D-07  0.62659581D-03  0.59961915D-03  0.14343212D-07  0.23241105D-04
 -0.35712550D-04  0.58482172D-09  0.16190738D-02 -0.82533035D-03 -0.79374346D-03
  0.93768608D-03 -0.23738618D-06 -0.89947190D-07 -0.33356199D-03  0.22811527D-03
  0.10544671D-03 -0.22584457D-04  0.25940111D-07  0.26839969D-07 -0.41523068D-04
  0.10113981D-03 -0.59616744D-04  0.11998952D-03  0.26877970D-07  0.47440671D-08
 -0.21781873D-03  0.19799378D-03  0.22605480D-07  0.39844005D-03 -0.71750054D-03
  0.56863164D-08  0.25501616D-03  0.12351921D-03 -0.73502757D-07  0.10804822D-07
 -0.16520199D-03  0.16715010D-03 -0.35288034D-07  0.11289690D-03 -0.48561355D-03
  0.79307003D-07  0.38270905D-03 -0.15836741D-04  0.26557101D-07  0.52961975D-07
  0.62397134D-05  0.11253580D-04  0.16593397D-04 -0.69562094D-03  0.27623703D-03
  0.99119811D-05 -0.26200502D-03  0.99129262D-04 -0.13055884D-08 -0.76076390D-03
 -0.76223494D-04  0.76811832D-08 -0.17045304D-04 -0.52339020D-05 -0.74790790D-08
 -0.49729952D-03  0.45888110D-03  0.38418414D-04  0.47605140D-03  0.68682218D-07
  0.17296246D-07 -0.88580942D-04  0.68308650D-04  0.20272292D-04  0.81093584D-04