 Molden2AIM, Version 4.0.0 (06/02/2016)           Time: Sat Jun 30 01:40:03 2018
GAUSSIAN             16 MOL ORBITALS    300 PRIMITIVES        4 NUCLEI
  N    1    (CENTRE  1)   0.00003779  0.00000000  0.00000000  CHARGE =  7.0
  O    2    (CENTRE  2)  -1.18261140  2.04823635  0.00000000  CHARGE =  8.0
  O    3    (CENTRE  3)  -1.18261140 -2.04823635  0.00000000  CHARGE =  8.0
  O    4    (CENTRE  4)   2.36518500  0.00000000  0.00000000  CHARGE =  8.0
CENTRE ASSIGNMENTS    1  1  1  1  1  1  1  1  1  1  1  1  1  1  1  1  1  1  1  1
CENTRE ASSIGNMENTS    1  1  1  1  1  1  1  1  1  1  1  1  1  1  1  1  1  1  1  1
CENTRE ASSIGNMENTS    1  1  1  1  1  1  1  1  1  1  1  1  1  1  1  1  1  1  1  1
CENTRE ASSIGNMENTS    1  1  1  1  1  1  1  1  1  1  1  1  1  1  1  2  2  2  2  2
CENTRE ASSIGNMENTS    2  2  2  2  2  2  2  2  2  2  2  2  2  2  2  2  2  2  2  2
CENTRE ASSIGNMENTS    2  2  2  2  2  2  2  2  2  2  2  2  2  2  2  2  2  2  2  2
CENTRE ASSIGNMENTS    2  2  2  2  2  2  2  2  2  2  2  2  2  2  2  2  2  2  2  2
CENTRE ASSIGNMENTS    2  2  2  2  2  2  2  2  2  2  3  3  3  3  3  3  3  3  3  3
CENTRE ASSIGNMENTS    3  3  3  3  3  3  3  3  3  3  3  3  3  3  3  3  3  3  3  3
CENTRE ASSIGNMENTS    3  3  3  3  3  3  3  3  3  3  3  3  3  3  3  3  3  3  3  3
CENTRE ASSIGNMENTS    3  3  3  3  3  3  3  3  3  3  3  3  3  3  3  3  3  3  3  3
CENTRE ASSIGNMENTS    3  3  3  3  3  4  4  4  4  4  4  4  4  4  4  4  4  4  4  4
CENTRE ASSIGNMENTS    4  4  4  4  4  4  4  4  4  4  4  4  4  4  4  4  4  4  4  4
CENTRE ASSIGNMENTS    4  4  4  4  4  4  4  4  4  4  4  4  4  4  4  4  4  4  4  4
CENTRE ASSIGNMENTS    4  4  4  4  4  4  4  4  4  4  4  4  4  4  4  4  4  4  4  4
TYPE ASSIGNMENTS      1  1  1  1  1  1  1  1  1  1  1  1  1  1  1  1  1  1  1  2
TYPE ASSIGNMENTS      2  2  3  3  3  4  4  4  2  3  4  2  3  4  2  3  4  5  6  7
TYPE ASSIGNMENTS      8  9 10  5  6  7  8  9 10  5  6  7  8  9 10 11 12 13 17 14
TYPE ASSIGNMENTS     15 18 19 16 20 11 12 13 17 14 15 18 19 16 20  1  1  1  1  1
TYPE ASSIGNMENTS      1  1  1  1  1  1  1  1  1  1  1  1  1  1  2  2  2  3  3  3
TYPE ASSIGNMENTS      4  4  4  2  3  4  2  3  4  2  3  4  5  6  7  8  9 10  5  6
TYPE ASSIGNMENTS      7  8  9 10  5  6  7  8  9 10 11 12 13 17 14 15 18 19 16 20
TYPE ASSIGNMENTS     11 12 13 17 14 15 18 19 16 20  1  1  1  1  1  1  1  1  1  1
TYPE ASSIGNMENTS      1  1  1  1  1  1  1  1  1  2  2  2  3  3  3  4  4  4  2  3
TYPE ASSIGNMENTS      4  2  3  4  2  3  4  5  6  7  8  9 10  5  6  7  8  9 10  5
TYPE ASSIGNMENTS      6  7  8  9 10 11 12 13 17 14 15 18 19 16 20 11 12 13 17 14
TYPE ASSIGNMENTS     15 18 19 16 20  1  1  1  1  1  1  1  1  1  1  1  1  1  1  1
TYPE ASSIGNMENTS      1  1  1  1  2  2  2  3  3  3  4  4  4  2  3  4  2  3  4  2
TYPE ASSIGNMENTS      3  4  5  6  7  8  9 10  5  6  7  8  9 10  5  6  7  8  9 10
TYPE ASSIGNMENTS     11 12 13 17 14 15 18 19 16 20 11 12 13 17 14 15 18 19 16 20
EXPONENTS  0.1142000D+05 0.1712000D+04 0.3893000D+03 0.1100000D+03 0.3557000D+02
EXPONENTS  0.1254000D+02 0.4644000D+01 0.5118000D+00 0.1142000D+05 0.1712000D+04
EXPONENTS  0.3893000D+03 0.1100000D+03 0.3557000D+02 0.1254000D+02 0.4644000D+01
EXPONENTS  0.5118000D+00 0.1293000D+01 0.1787000D+00 0.5760000D-01 0.2663000D+02
EXPONENTS  0.5948000D+01 0.1742000D+01 0.2663000D+02 0.5948000D+01 0.1742000D+01
EXPONENTS  0.2663000D+02 0.5948000D+01 0.1742000D+01 0.5550000D+00 0.5550000D+00
EXPONENTS  0.5550000D+00 0.1725000D+00 0.1725000D+00 0.1725000D+00 0.4910000D-01
EXPONENTS  0.4910000D-01 0.4910000D-01 0.1654000D+01 0.1654000D+01 0.1654000D+01
EXPONENTS  0.1654000D+01 0.1654000D+01 0.1654000D+01 0.4690000D+00 0.4690000D+00
EXPONENTS  0.4690000D+00 0.4690000D+00 0.4690000D+00 0.4690000D+00 0.1510000D+00
EXPONENTS  0.1510000D+00 0.1510000D+00 0.1510000D+00 0.1510000D+00 0.1510000D+00
EXPONENTS  0.1093000D+01 0.1093000D+01 0.1093000D+01 0.1093000D+01 0.1093000D+01
EXPONENTS  0.1093000D+01 0.1093000D+01 0.1093000D+01 0.1093000D+01 0.1093000D+01
EXPONENTS  0.3640000D+00 0.3640000D+00 0.3640000D+00 0.3640000D+00 0.3640000D+00
EXPONENTS  0.3640000D+00 0.3640000D+00 0.3640000D+00 0.3640000D+00 0.3640000D+00
EXPONENTS  0.1533000D+05 0.2299000D+04 0.5224000D+03 0.1473000D+03 0.4755000D+02
EXPONENTS  0.1676000D+02 0.6207000D+01 0.6882000D+00 0.1533000D+05 0.2299000D+04
EXPONENTS  0.5224000D+03 0.1473000D+03 0.4755000D+02 0.1676000D+02 0.6207000D+01
EXPONENTS  0.6882000D+00 0.1752000D+01 0.2384000D+00 0.7376000D-01 0.3446000D+02
EXPONENTS  0.7749000D+01 0.2280000D+01 0.3446000D+02 0.7749000D+01 0.2280000D+01
EXPONENTS  0.3446000D+02 0.7749000D+01 0.2280000D+01 0.7156000D+00 0.7156000D+00
EXPONENTS  0.7156000D+00 0.2140000D+00 0.2140000D+00 0.2140000D+00 0.5974000D-01
EXPONENTS  0.5974000D-01 0.5974000D-01 0.2314000D+01 0.2314000D+01 0.2314000D+01
EXPONENTS  0.2314000D+01 0.2314000D+01 0.2314000D+01 0.6450000D+00 0.6450000D+00
EXPONENTS  0.6450000D+00 0.6450000D+00 0.6450000D+00 0.6450000D+00 0.2140000D+00
EXPONENTS  0.2140000D+00 0.2140000D+00 0.2140000D+00 0.2140000D+00 0.2140000D+00
EXPONENTS  0.1428000D+01 0.1428000D+01 0.1428000D+01 0.1428000D+01 0.1428000D+01
EXPONENTS  0.1428000D+01 0.1428000D+01 0.1428000D+01 0.1428000D+01 0.1428000D+01
EXPONENTS  0.5000000D+00 0.5000000D+00 0.5000000D+00 0.5000000D+00 0.5000000D+00
EXPONENTS  0.5000000D+00 0.5000000D+00 0.5000000D+00 0.5000000D+00 0.5000000D+00
EXPONENTS  0.1533000D+05 0.2299000D+04 0.5224000D+03 0.1473000D+03 0.4755000D+02
EXPONENTS  0.1676000D+02 0.6207000D+01 0.6882000D+00 0.1533000D+05 0.2299000D+04
EXPONENTS  0.5224000D+03 0.1473000D+03 0.4755000D+02 0.1676000D+02 0.6207000D+01
EXPONENTS  0.6882000D+00 0.1752000D+01 0.2384000D+00 0.7376000D-01 0.3446000D+02
EXPONENTS  0.7749000D+01 0.2280000D+01 0.3446000D+02 0.7749000D+01 0.2280000D+01
EXPONENTS  0.3446000D+02 0.7749000D+01 0.2280000D+01 0.7156000D+00 0.7156000D+00
EXPONENTS  0.7156000D+00 0.2140000D+00 0.2140000D+00 0.2140000D+00 0.5974000D-01
EXPONENTS  0.5974000D-01 0.5974000D-01 0.2314000D+01 0.2314000D+01 0.2314000D+01
EXPONENTS  0.2314000D+01 0.2314000D+01 0.2314000D+01 0.6450000D+00 0.6450000D+00
EXPONENTS  0.6450000D+00 0.6450000D+00 0.6450000D+00 0.6450000D+00 0.2140000D+00
EXPONENTS  0.2140000D+00 0.2140000D+00 0.2140000D+00 0.2140000D+00 0.2140000D+00
EXPONENTS  0.1428000D+01 0.1428000D+01 0.1428000D+01 0.1428000D+01 0.1428000D+01
EXPONENTS  0.1428000D+01 0.1428000D+01 0.1428000D+01 0.1428000D+01 0.1428000D+01
EXPONENTS  0.5000000D+00 0.5000000D+00 0.5000000D+00 0.5000000D+00 0.5000000D+00
EXPONENTS  0.5000000D+00 0.5000000D+00 0.5000000D+00 0.5000000D+00 0.5000000D+00
EXPONENTS  0.1533000D+05 0.2299000D+04 0.5224000D+03 0.1473000D+03 0.4755000D+02
EXPONENTS  0.1676000D+02 0.6207000D+01 0.6882000D+00 0.1533000D+05 0.2299000D+04
EXPONENTS  0.5224000D+03 0.1473000D+03 0.4755000D+02 0.1676000D+02 0.6207000D+01
EXPONENTS  0.6882000D+00 0.1752000D+01 0.2384000D+00 0.7376000D-01 0.3446000D+02
EXPONENTS  0.7749000D+01 0.2280000D+01 0.3446000D+02 0.7749000D+01 0.2280000D+01
EXPONENTS  0.3446000D+02 0.7749000D+01 0.2280000D+01 0.7156000D+00 0.7156000D+00
EXPONENTS  0.7156000D+00 0.2140000D+00 0.2140000D+00 0.2140000D+00 0.5974000D-01
EXPONENTS  0.5974000D-01 0.5974000D-01 0.2314000D+01 0.2314000D+01 0.2314000D+01
EXPONENTS  0.2314000D+01 0.2314000D+01 0.2314000D+01 0.6450000D+00 0.6450000D+00
EXPONENTS  0.6450000D+00 0.6450000D+00 0.6450000D+00 0.6450000D+00 0.2140000D+00
EXPONENTS  0.2140000D+00 0.2140000D+00 0.2140000D+00 0.2140000D+00 0.2140000D+00
EXPONENTS  0.1428000D+01 0.1428000D+01 0.1428000D+01 0.1428000D+01 0.1428000D+01
EXPONENTS  0.1428000D+01 0.1428000D+01 0.1428000D+01 0.1428000D+01 0.1428000D+01
EXPONENTS  0.5000000D+00 0.5000000D+00 0.5000000D+00 0.5000000D+00 0.5000000D+00
EXPONENTS  0.5000000D+00 0.5000000D+00 0.5000000D+00 0.5000000D+00 0.5000000D+00
MO    1     MO 0.0        OCC NO =    2.0000000  ORB. ENERGY =  -18.742135
  0.52155864D-03  0.97184772D-03  0.16436381D-02  0.24752280D-02  0.30644928D-02
  0.26077451D-02  0.99229510D-03 -0.46473413D-05 -0.37936253D-03 -0.71130829D-03
 -0.12101470D-02 -0.18792306D-02 -0.24938483D-02 -0.26281737D-02 -0.16296354D-02
  0.10840341D-02  0.27681535D-03  0.34966758D-04  0.20891446D-03 -0.23472926D-03
 -0.22545465D-03 -0.15810436D-03  0.12631529D-14  0.12132432D-14  0.85080989D-15
 -0.92234218D-16 -0.88589863D-16 -0.62125327D-16  0.21935073D-02 -0.39973888D-13
  0.30514844D-16  0.71738255D-03 -0.86435918D-14  0.13361089D-19  0.41526037D-04
 -0.43502923D-15  0.14727242D-19  0.18769048D-02 -0.84186921D-03 -0.10350355D-02
  0.58862438D-13 -0.14445059D-17  0.19974395D-18 -0.15344913D-03 -0.11058087D-03
  0.26403000D-03 -0.77201016D-14  0.22573974D-17 -0.44553415D-18  0.34057024D-05
 -0.17766233D-04  0.14360531D-04 -0.28490428D-15 -0.65403605D-19  0.26185943D-19
 -0.14957171D-03 -0.14897268D-15 -0.58466686D-18  0.53645914D-03  0.48463193D-15
  0.25878297D-17 -0.87743994D-04 -0.37713883D-16 -0.83382912D-18  0.52390861D-18
 -0.38047455D-03  0.26406007D-15 -0.14284211D-18  0.10311166D-02  0.18259869D-14
  0.78822595D-18  0.11030702D-03 -0.26181671D-14 -0.35969960D-18  0.90147943D-19
  0.13317848D-01  0.24822755D-01  0.42091167D-01  0.63706942D-01  0.79487663D-01
  0.68269302D-01  0.26209913D-01 -0.11723855D-03 -0.26246130D-03 -0.49225268D-03
 -0.83918290D-03 -0.13114795D-02 -0.17536980D-02 -0.18725406D-02 -0.11448346D-02
  0.75529235D-03  0.13666102D-02  0.58558670D-03  0.10079889D-03  0.16352724D-03
  0.15856641D-03  0.10696797D-03  0.73384061D-04  0.71157854D-04  0.48002668D-04
 -0.51542064D-18 -0.49978464D-18 -0.33715177D-18  0.28972941D-03 -0.69561909D-03
  0.48780912D-18  0.23164760D-04 -0.22766551D-03  0.10420784D-18 -0.71067565D-06
 -0.83142749D-05 -0.16038641D-19  0.61359266D-03 -0.30010801D-04 -0.58358186D-03
  0.19372585D-03 -0.46136323D-19 -0.11050551D-17 -0.38589360D-03  0.20257764D-03
  0.18331596D-03 -0.40146159D-03  0.45058498D-18 -0.34138229D-18 -0.46415346D-04
  0.29889512D-04  0.16525835D-04 -0.35391606D-04  0.81765279D-19 -0.61861948D-19
  0.24136585D-04 -0.13778496D-03 -0.58134832D-19 -0.24728340D-03  0.17184661D-03
  0.10787608D-17  0.17487365D-03  0.24150828D-03 -0.90435632D-18  0.30313727D-18
 -0.13828292D-03 -0.96105279D-05  0.17379116D-19  0.37450655D-03  0.16662278D-03
 -0.34240460D-18  0.40342191D-04 -0.13779120D-03  0.29026725D-18 -0.58145923D-18
  0.13317848D-01  0.24822755D-01  0.42091167D-01  0.63706942D-01  0.79487664D-01
  0.68269302D-01  0.26209913D-01 -0.11723855D-03 -0.26246130D-03 -0.49225268D-03
 -0.83918290D-03 -0.13114795D-02 -0.17536980D-02 -0.18725406D-02 -0.11448346D-02
  0.75529235D-03  0.13666102D-02  0.58558670D-03  0.10079889D-03  0.16352724D-03
  0.15856641D-03  0.10696797D-03 -0.73384061D-04 -0.71157854D-04 -0.48002668D-04
  0.15436384D-17  0.14968100D-17  0.10097392D-17  0.28972941D-03  0.69561909D-03
  0.28445596D-18  0.23164760D-04  0.22766551D-03  0.17899498D-20 -0.71067565D-06
  0.83142749D-05 -0.20462559D-19  0.61359266D-03 -0.30010801D-04 -0.58358186D-03
 -0.19372585D-03  0.19064302D-17  0.19733009D-18 -0.38589360D-03  0.20257764D-03
  0.18331596D-03  0.40146159D-03 -0.79702471D-19 -0.27430439D-19 -0.46415346D-04
  0.29889512D-04  0.16525835D-04  0.35391606D-04  0.80043489D-19 -0.10423084D-18
  0.24136585D-04  0.13778496D-03 -0.40068753D-18 -0.24728340D-03 -0.17184661D-03
  0.45924626D-18  0.17487365D-03 -0.24150828D-03  0.74281633D-18  0.42138688D-18
 -0.13828292D-03  0.96105279D-05  0.59616085D-19  0.37450655D-03 -0.16662278D-03
  0.61588232D-19  0.40342191D-04  0.13779120D-03 -0.24043649D-18  0.18803036D-18
  0.49737473D+00  0.92704251D+00  0.15719569D+01  0.23792300D+01  0.29685844D+01
  0.25496181D+01  0.97884797D+00 -0.43784470D-02 -0.38577664D-03 -0.72353365D-03
 -0.12334663D-02 -0.19276677D-02 -0.25776590D-02 -0.27523388D-02 -0.16827260D-02
  0.11101604D-02  0.53617242D-01 -0.10629491D-02 -0.64092967D-03 -0.87486762D-02
 -0.84832730D-02 -0.57227659D-02 -0.40854121D-14 -0.39614755D-14 -0.26723880D-14
  0.50613222D-16  0.49077800D-16  0.33107594D-16  0.55292717D-03  0.22114937D-14
 -0.65164874D-17  0.11786127D-02  0.17971491D-14  0.29084387D-18  0.50753257D-04
  0.38620978D-16 -0.32517756D-19  0.12752078D-02  0.53944072D-03 -0.18146485D-02
  0.13006917D-13 -0.59307282D-17 -0.10241942D-16 -0.90753621D-03  0.14817116D-03
  0.75936505D-03 -0.85173581D-14  0.34171139D-17  0.72948973D-18 -0.21069824D-03
  0.94697426D-04  0.11600081D-03 -0.75774405D-15 -0.48320377D-19 -0.53503513D-19
  0.14418529D-03 -0.23757592D-15  0.13810817D-17 -0.31776670D-03  0.77382317D-14
 -0.44158590D-17 -0.11478918D-03 -0.70255040D-14  0.27261391D-18 -0.35732496D-18
  0.21772314D-03 -0.13736759D-14  0.79481034D-19 -0.12305955D-03  0.32976671D-14
 -0.47652109D-18 -0.53010987D-03  0.82336073D-15  0.23807799D-18 -0.27696247D-19
MO    2     MO 0.0        OCC NO =    2.0000000  ORB. ENERGY =  -18.741935
  0.68397140D-03  0.12744800D-02  0.21554652D-02  0.32460111D-02  0.40187723D-02
  0.34197939D-02  0.13012947D-02 -0.60945180D-05 -0.49753475D-03 -0.93288231D-03
 -0.15871104D-02 -0.24646148D-02 -0.32706872D-02 -0.34468554D-02 -0.21372702D-02
  0.14217130D-02  0.36463631D-03  0.49708469D-04  0.27421490D-03  0.17805656D-03
  0.17102119D-03  0.11993187D-03  0.20634660D-11  0.19819344D-11  0.13898692D-11
  0.82114637D-16  0.78870127D-16  0.55309177D-16 -0.16755765D-02 -0.20224810D-10
 -0.25007124D-16 -0.55250249D-03 -0.65446539D-11 -0.25612577D-17 -0.31737439D-04
 -0.37521754D-12  0.20668504D-19 -0.36128450D-03  0.17187719D-02 -0.13574874D-02
  0.25365285D-10 -0.10413392D-18  0.62830004D-18 -0.15493149D-03 -0.19251579D-03
  0.34744727D-03 -0.62087406D-12 -0.24632387D-18 -0.39561160D-18 -0.17537442D-04
 -0.12933952D-05  0.18830837D-04  0.18299902D-12 -0.96056215D-21  0.22519567D-19
 -0.24096485D-03 -0.18866948D-12  0.14405881D-18  0.65817010D-03 -0.17101661D-12
 -0.56238825D-18  0.64724440D-04  0.73702503D-12  0.13021182D-18  0.45936084D-18
 -0.44301239D-03  0.24852633D-12  0.16295596D-18  0.14131468D-02  0.28797046D-12
  0.15321938D-19 -0.84109675D-04 -0.10335495D-11 -0.50418981D-18  0.75821096D-18
  0.35192936D+00  0.65595105D+00  0.11122756D+01  0.16834810D+01  0.21004927D+01
  0.18040431D+01  0.69260724D+00 -0.30980747D-02 -0.43378567D-03 -0.81357577D-03
 -0.13869683D-02 -0.21675615D-02 -0.28984428D-02 -0.30948611D-02 -0.18921374D-02
  0.12483173D-02  0.37892594D-01 -0.37856403D-03 -0.38161382D-03  0.29093319D-02
  0.28210733D-02  0.19030794D-02 -0.53121700D-02 -0.51510180D-02 -0.34748463D-02
 -0.13860519D-16 -0.13440041D-16 -0.90665722D-17  0.10765843D-03 -0.36820853D-04
  0.20703607D-17 -0.28128019D-03  0.63290672D-03  0.37501131D-18 -0.12326473D-04
  0.28612322D-04  0.12080746D-19  0.62135268D-03  0.10254010D-02 -0.16467537D-02
  0.54814232D-04 -0.34408002D-17 -0.11583374D-16 -0.13453938D-03 -0.50588041D-03
  0.64041980D-03  0.16533934D-03  0.12592488D-17 -0.13557151D-18  0.13165603D-04
 -0.10386423D-03  0.90698627D-04  0.12787237D-03  0.11561158D-18 -0.25192983D-18
  0.17001163D-03  0.85989744D-04 -0.25345062D-18 -0.32808518D-03 -0.15076152D-03
  0.52689001D-18 -0.18194972D-03 -0.10720772D-03  0.23346186D-18 -0.46939736D-18
 -0.83252608D-04  0.12889080D-03 -0.44319993D-19  0.13676143D-06 -0.66552200D-05
  0.48383656D-19  0.24962106D-03 -0.38001719D-03  0.84576323D-19 -0.36128925D-18
  0.35192937D+00  0.65595106D+00  0.11122757D+01  0.16834810D+01  0.21004928D+01
  0.18040432D+01  0.69260725D+00 -0.30980747D-02 -0.43378567D-03 -0.81357577D-03
 -0.13869683D-02 -0.21675615D-02 -0.28984428D-02 -0.30948611D-02 -0.18921374D-02
  0.12483173D-02  0.37892595D-01 -0.37856404D-03 -0.38161383D-03  0.29093320D-02
  0.28210734D-02  0.19030794D-02  0.53121701D-02  0.51510181D-02  0.34748464D-02
 -0.16994898D-17 -0.16479334D-17 -0.11116862D-17  0.10765842D-03  0.36820842D-04
 -0.83820642D-18 -0.28128020D-03 -0.63290673D-03  0.52007644D-18 -0.12326474D-04
 -0.28612322D-04 -0.18292861D-20  0.62135269D-03  0.10254010D-02 -0.16467537D-02
 -0.54814219D-04 -0.57477382D-17  0.20393803D-17 -0.13453939D-03 -0.50588042D-03
  0.64041980D-03 -0.16533935D-03  0.94991139D-18 -0.27604656D-18  0.13165603D-04
 -0.10386423D-03  0.90698628D-04 -0.12787237D-03  0.14391806D-18  0.18973348D-18
  0.17001163D-03 -0.85989743D-04  0.47964056D-18 -0.32808518D-03  0.15076151D-03
 -0.48413323D-18 -0.18194971D-03  0.10720772D-03 -0.95478844D-18 -0.27939676D-17
 -0.83252606D-04 -0.12889080D-03 -0.81490881D-19  0.13675415D-06  0.66552176D-05
  0.24959113D-18  0.24962106D-03  0.38001720D-03 -0.51184882D-20  0.56385372D-18
 -0.17812012D-01 -0.33199298D-01 -0.56295010D-01 -0.85205120D-01 -0.10631111D+00
 -0.91307067D-01 -0.35054558D-01  0.15680119D-03 -0.33568308D-03 -0.62958194D-03
 -0.10732992D-02 -0.16773577D-02 -0.22429469D-02 -0.23949443D-02 -0.14642220D-02
  0.96600474D-03 -0.20151143D-02  0.89009214D-03  0.18637552D-03  0.61141971D-03
  0.59287145D-03  0.39994758D-03 -0.19291490D-11 -0.18706256D-11 -0.12619130D-11
 -0.29744076D-17 -0.28841748D-17 -0.19456473D-17 -0.10747118D-02  0.10500654D-11
 -0.15955103D-19 -0.37477728D-03  0.10013384D-11  0.48071187D-18 -0.13207903D-04
  0.49225493D-13  0.37607501D-21 -0.27227312D-04  0.70211381D-03 -0.67488650D-03
  0.50182179D-11  0.39884566D-17  0.12890432D-17  0.38282644D-03 -0.58206699D-03
  0.19924055D-03 -0.33644503D-11 -0.79183716D-18 -0.52754425D-18  0.51397338D-04
 -0.65996059D-04  0.14598721D-04 -0.51288746D-12 -0.21417438D-18 -0.63749983D-19
  0.41806244D-04 -0.98790579D-13 -0.19629429D-18 -0.30164672D-03  0.32401488D-11
 -0.16255346D-18  0.17622799D-03 -0.29437771D-11  0.75143633D-18 -0.83136575D-18
 -0.14506156D-03 -0.56935783D-12 -0.13345915D-18  0.59005499D-03  0.13422241D-11
  0.46606670D-18 -0.15487032D-03  0.36584941D-12 -0.65689255D-19  0.56126569D-18
MO    3     MO 0.0        OCC NO =    2.0000000  ORB. ENERGY =  -18.741925
  0.50625060D-11  0.94332346D-11  0.15953965D-10  0.24025787D-10  0.29745482D-10
  0.25312063D-10  0.96317069D-11 -0.45109393D-13 -0.36842931D-11 -0.69080840D-11
 -0.11752706D-10 -0.18250712D-10 -0.24219756D-10 -0.25524298D-10 -0.15826693D-10
  0.10527922D-10  0.27619303D-11 -0.38180974D-12  0.18340754D-11  0.12474944D-11
  0.11982034D-11  0.84026294D-12 -0.29285946D-03 -0.28128801D-03 -0.19725857D-03
 -0.20352795D-16 -0.19548616D-16 -0.13708839D-16 -0.12246999D-10  0.27600186D-02
 -0.99522975D-17 -0.38749286D-11  0.90915474D-03 -0.11044205D-17 -0.21891630D-12
  0.52311936D-04  0.25661378D-18 -0.25947169D-11  0.12717144D-10 -0.10122427D-10
 -0.34262259D-02  0.96043761D-16  0.12385646D-15 -0.11786382D-11 -0.14833130D-11
  0.26619512D-11  0.59321196D-04 -0.63114756D-17 -0.30265492D-17 -0.14208601D-12
 -0.13559597D-13  0.15564561D-12 -0.27233706D-04 -0.86138416D-19 -0.11769988D-17
 -0.18186523D-11  0.26674221D-04  0.17683034D-17  0.49812210D-11  0.26749427D-04
 -0.54547188D-17  0.47473580D-12 -0.10677209D-03  0.14980855D-18  0.30158947D-17
 -0.32993460D-11 -0.34613097D-04 -0.15845341D-18  0.10533921D-10 -0.34973373D-04
 -0.65311452D-18 -0.63588292D-12  0.13881266D-03  0.11284747D-17  0.19384625D-17
  0.35167542D+00  0.65547773D+00  0.11114731D+01  0.16822662D+01  0.20989771D+01
  0.18027414D+01  0.69210747D+00 -0.30958392D-02 -0.93502063D-04 -0.17536544D-03
 -0.29895963D-03 -0.46721570D-03 -0.62475642D-03 -0.66709420D-03 -0.40784831D-03
  0.26907354D-03  0.37957572D-01 -0.12071849D-02 -0.54038075D-03  0.32842295D-02
  0.31845979D-02  0.21483109D-02 -0.54255496D-02 -0.52609581D-02 -0.35490112D-02
 -0.13265626D-16 -0.12863195D-16 -0.86774352D-17 -0.53254248D-03  0.77891954D-03
  0.12639669D-17 -0.56541863D-03  0.84198297D-03  0.69086298D-18 -0.23995742D-04
  0.34637556D-04  0.73217333D-19  0.38916469D-03  0.53665251D-03 -0.92581720D-03
 -0.88304949D-03 -0.70515797D-18  0.48071677D-17  0.35046039D-06 -0.42003579D-03
  0.41968533D-03  0.11786005D-02 -0.26268897D-18 -0.32966978D-17  0.16633344D-04
 -0.89061013D-04  0.72427668D-04  0.25396489D-03  0.28354018D-18  0.16616735D-18
 -0.26696399D-04 -0.44747587D-04 -0.21236734D-17 -0.17480456D-03  0.18185074D-03
  0.29527587D-18  0.25489376D-03 -0.47607977D-04  0.60757445D-17 -0.89659708D-17
  0.12478234D-03  0.32622451D-04  0.12388947D-18 -0.49515705D-03  0.16097574D-03
  0.53705486D-19  0.12081003D-03 -0.25884310D-03 -0.42537391D-18  0.96602327D-18
 -0.35167542D+00 -0.65547772D+00 -0.11114730D+01 -0.16822662D+01 -0.20989771D+01
 -0.18027414D+01 -0.69210746D+00  0.30958392D-02  0.93502057D-04  0.17536542D-03
  0.29895961D-03  0.46721567D-03  0.62475637D-03  0.66709415D-03  0.40784828D-03
 -0.26907353D-03 -0.37957572D-01  0.12071849D-02  0.54038074D-03 -0.32842295D-02
 -0.31845978D-02 -0.21483109D-02 -0.54255496D-02 -0.52609580D-02 -0.35490112D-02
  0.12538335D-17  0.12157967D-17  0.82016930D-18  0.53254248D-03  0.77891954D-03
 -0.59629959D-18  0.56541862D-03  0.84198296D-03 -0.36795932D-17  0.23995742D-04
  0.34637556D-04 -0.14277459D-18 -0.38916468D-03 -0.53665249D-03  0.92581717D-03
 -0.88304950D-03 -0.87989901D-17  0.29045004D-17 -0.35046242D-06  0.42003578D-03
 -0.41968532D-03  0.11786005D-02  0.77360458D-20 -0.39610545D-17 -0.16633344D-04
  0.89061011D-04 -0.72427667D-04  0.25396489D-03 -0.11700163D-17 -0.16539538D-17
  0.26696401D-04 -0.44747588D-04  0.26414440D-17  0.17480456D-03  0.18185074D-03
 -0.72224106D-17 -0.25489376D-03 -0.47607975D-04 -0.70192151D-18 -0.69966620D-17
 -0.12478234D-03  0.32622449D-04  0.16099429D-18  0.49515705D-03  0.16097574D-03
  0.48659555D-18 -0.12081002D-03 -0.25884309D-03 -0.96957842D-18 -0.15488035D-17
 -0.12334610D-09 -0.22990126D-09 -0.38983636D-09 -0.59003549D-09 -0.73619202D-09
 -0.63229076D-09 -0.24274872D-09  0.10858299D-11 -0.25001503D-11 -0.46890938D-11
 -0.79938770D-11 -0.12492874D-10 -0.16705353D-10 -0.17837422D-10 -0.10905450D-10
  0.71947535D-11 -0.13999814D-10  0.66289304D-11  0.13821037D-11  0.43956257D-11
  0.42622783D-11  0.28753078D-11  0.26046612D-03  0.25256453D-03  0.17037854D-03
  0.14411775D-16  0.13974574D-16  0.94271651D-17 -0.79967322D-11 -0.14202658D-03
 -0.54371387D-18 -0.27811938D-11 -0.13724587D-03  0.60655798D-18 -0.99138649D-13
 -0.69081503D-05 -0.96908173D-19 -0.15664221D-12  0.52220643D-11 -0.50654221D-11
 -0.67251710D-03  0.36085505D-16 -0.17751969D-17  0.28213243D-11 -0.43225365D-11
  0.15012123D-11  0.45110692D-03 -0.90726599D-17  0.17842036D-18  0.38258630D-12
 -0.48922617D-12  0.10663987D-12  0.70795737D-04  0.34429607D-18  0.19536111D-18
  0.30926072D-12  0.13329885D-04 -0.36392666D-17 -0.22383675D-11 -0.43724279D-03
 -0.31959224D-17  0.13105853D-11  0.39725314D-03  0.14113722D-16  0.24997619D-17
 -0.10688896D-11  0.76644709D-04 -0.53967059D-18  0.43724748D-11 -0.18030938D-03
  0.32893286D-17 -0.11658060D-11 -0.49624742D-04 -0.16703169D-17 -0.98474950D-18
MO    4     MO 0.0        OCC NO =    2.0000000  ORB. ENERGY =  -14.190528
  0.41356667D+00  0.77062059D+00  0.13033126D+01  0.19627166D+01  0.24299704D+01
  0.20677952D+01  0.78683421D+00 -0.36850803D-02 -0.22204653D-02 -0.41633932D-02
 -0.70831705D-02 -0.10999416D-01 -0.14596865D-01 -0.15383092D-01 -0.95384982D-02
  0.63450127D-02  0.40771605D-01  0.12151371D-03  0.13262167D-03 -0.32066563D-05
 -0.30799551D-05 -0.21598771D-05 -0.87448477D-14 -0.83993217D-14 -0.58901841D-14
  0.67366159D-18  0.64704391D-18  0.45375185D-18  0.27444578D-05  0.19781584D-13
 -0.15014626D-18  0.28340377D-06  0.17840366D-13 -0.12981815D-17  0.32428968D-07
  0.14293757D-14  0.17181606D-19  0.23697919D-02  0.23667944D-02 -0.47365864D-02
 -0.11297230D-14 -0.56052127D-17  0.27705239D-17 -0.13208489D-03 -0.13326909D-03
  0.26535398D-03 -0.17724058D-13  0.40229735D-18 -0.46784652D-18 -0.75043612D-04
 -0.75080034D-04  0.15012365D-03 -0.24591482D-14  0.10497728D-18 -0.71733454D-20
  0.17473722D-02  0.10823727D-14 -0.43796039D-18 -0.52387681D-02  0.24514283D-14
  0.15500543D-18 -0.33484108D-05 -0.56985464D-14  0.11588757D-17 -0.31917401D-17
 -0.42253642D-03 -0.55795353D-15  0.20924330D-18  0.12674603D-02  0.21793321D-14
 -0.20477467D-18  0.14898626D-06 -0.50547149D-15 -0.42295522D-18  0.16096566D-18
  0.52592511D-03  0.98025674D-03  0.16621906D-02  0.25158029D-02  0.31389875D-02
  0.26959717D-02  0.10350359D-02 -0.46297793D-05 -0.39670564D-03 -0.74403126D-03
 -0.12684102D-02 -0.19822782D-02 -0.26506837D-02 -0.28303122D-02 -0.17303974D-02
  0.11416111D-02  0.59473682D-03 -0.10307282D-03 -0.18938283D-03  0.90990022D-03
  0.88229714D-03  0.59519244D-03 -0.15758374D-02 -0.15280322D-02 -0.10308015D-02
  0.22289921D-18  0.21613726D-18  0.14580492D-18 -0.93136870D-04  0.16149306D-03
 -0.14380831D-19 -0.35158314D-03  0.60912413D-03  0.77958870D-18 -0.16853770D-04
  0.29179286D-04  0.31138156D-20  0.11781491D-03  0.99531858D-03 -0.11131335D-02
 -0.15200553D-02 -0.23079296D-19 -0.27532165D-18 -0.90436232D-05 -0.92238222D-03
  0.93142584D-03  0.15821264D-02  0.17938697D-18 -0.11882663D-18  0.26391872D-04
 -0.12256848D-03  0.96176612D-04  0.25794033D-03  0.17139427D-18 -0.34013198D-18
  0.75002829D-03  0.31622029D-03  0.17104915D-18 -0.29811730D-02  0.31719262D-03
  0.21294513D-20  0.73108815D-03 -0.12658535D-02 -0.51527691D-18  0.97834312D-18
  0.91251992D-04  0.17306050D-03 -0.29690165D-19 -0.67349449D-03  0.17316016D-03
  0.40681373D-19  0.39973851D-03 -0.69234168D-03  0.48389122D-19 -0.17784235D-18
  0.52592511D-03  0.98025674D-03  0.16621906D-02  0.25158029D-02  0.31389875D-02
  0.26959717D-02  0.10350359D-02 -0.46297793D-05 -0.39670564D-03 -0.74403126D-03
 -0.12684102D-02 -0.19822782D-02 -0.26506837D-02 -0.28303122D-02 -0.17303974D-02
  0.11416111D-02  0.59473682D-03 -0.10307282D-03 -0.18938283D-03  0.90990022D-03
  0.88229714D-03  0.59519244D-03  0.15758374D-02  0.15280322D-02  0.10308015D-02
  0.21821862D-18  0.21159866D-18  0.14274320D-18 -0.93136870D-04 -0.16149306D-03
 -0.15150817D-18 -0.35158314D-03 -0.60912413D-03  0.68315206D-18 -0.16853770D-04
 -0.29179286D-04  0.72303998D-20  0.11781491D-03  0.99531858D-03 -0.11131335D-02
  0.15200553D-02 -0.32417062D-18 -0.63066596D-19 -0.90436232D-05 -0.92238222D-03
  0.93142584D-03 -0.15821264D-02  0.17309325D-18  0.10541821D-18  0.26391872D-04
 -0.12256848D-03  0.96176612D-04 -0.25794033D-03  0.15353265D-18  0.31325859D-18
  0.75002829D-03 -0.31622029D-03  0.22315176D-18 -0.29811730D-02 -0.31719262D-03
 -0.44341752D-18  0.73108815D-03  0.12658535D-02 -0.22603776D-18 -0.26751193D-18
  0.91251992D-04 -0.17306050D-03 -0.10400106D-18 -0.67349449D-03 -0.17316016D-03
  0.10535069D-18  0.39973851D-03  0.69234168D-03  0.20665249D-18  0.17176492D-18
  0.52582872D-03  0.98007707D-03  0.16618860D-02  0.25153418D-02  0.31384122D-02
  0.26954775D-02  0.10348462D-02 -0.46289307D-05 -0.39664530D-03 -0.74391810D-03
 -0.12682173D-02 -0.19819767D-02 -0.26502806D-02 -0.28298817D-02 -0.17301342D-02
  0.11414375D-02  0.59525946D-03 -0.10460624D-03 -0.18978582D-03 -0.18211817D-02
 -0.17659336D-02 -0.11912884D-02 -0.30291744D-16 -0.29372802D-16 -0.19814719D-16
  0.24699135D-19  0.23949852D-19  0.16156429D-19  0.18848504D-03 -0.67367023D-16
 -0.40116449D-19  0.70426940D-03 -0.51882681D-15  0.38153503D-18  0.33717259D-04
 -0.29671097D-15 -0.81143467D-20  0.14336550D-02 -0.32090127D-03 -0.11127538D-02
  0.39541005D-14  0.68860094D-18  0.14328548D-20 -0.13803102D-02  0.44836227D-03
  0.93194791D-03 -0.27804962D-14 -0.27122977D-18  0.26582443D-19 -0.19714904D-03
  0.10091693D-03  0.96232108D-04  0.76222848D-15 -0.19391935D-18  0.37928399D-21
  0.12991919D-02 -0.20864873D-15  0.72042195D-19 -0.24341978D-02  0.27094535D-15
 -0.20032542D-18 -0.14633780D-02  0.35500084D-15 -0.15801169D-19 -0.25386909D-18
  0.39113474D-03 -0.16162078D-15 -0.73086207D-19 -0.37389777D-03  0.81936881D-15
  0.20055710D-18 -0.79950645D-03 -0.33450648D-15  0.18701525D-19 -0.78147410D-19
MO    5     MO 0.0        OCC NO =    2.0000000  ORB. ENERGY =   -0.982102
 -0.76013205D-02 -0.14163941D-01 -0.23954776D-01 -0.36074565D-01 -0.44662652D-01
 -0.38005901D-01 -0.14461946D-01  0.67731465D-04 -0.60345834D-01 -0.11314900D+00
 -0.19250012D+00 -0.29893236D+00 -0.39670063D+00 -0.41806801D+00 -0.25922884D+00
  0.17243912D+00  0.91338069D-01  0.17244583D-01  0.52194929D-03  0.26647420D-04
  0.25594529D-04  0.17948650D-04  0.10666351D-12  0.10244903D-12  0.71844329D-13
  0.30007026D-15  0.28821390D-15  0.20211548D-15 -0.16352041D-04 -0.40183730D-12
  0.99658151D-16  0.40623580D-05 -0.49983905D-12 -0.10931218D-16 -0.20230044D-06
 -0.35379072D-13  0.95623326D-18  0.17004617D-01  0.17001248D-01 -0.34005865D-01
  0.83206332D-14 -0.20885530D-17 -0.11608757D-16  0.25762968D-02  0.25805645D-02
 -0.51568613D-02  0.32291080D-12  0.16888328D-16  0.21543968D-17 -0.96541264D-04
 -0.99908431D-04  0.19644969D-03  0.23165270D-13  0.11661407D-17 -0.72097161D-18
  0.15287453D-01 -0.14295500D-13 -0.23919146D-17 -0.45884392D-01 -0.27800362D-13
  0.14735415D-16  0.22033715D-04  0.70686864D-13 -0.75596708D-17 -0.13186584D-16
 -0.12341787D-03  0.88596638D-14  0.89487377D-18  0.36618374D-03 -0.44658270D-13
 -0.35449940D-17  0.40698592D-05  0.18079278D-13  0.86037273D-18  0.56095960D-17
 -0.45964365D-02 -0.85671663D-02 -0.14527075D-01 -0.21987405D-01 -0.27433862D-01
 -0.23562029D-01 -0.90459210D-02  0.40462960D-04 -0.38050309D-01 -0.71364298D-01
 -0.12166048D+00 -0.19013165D+00 -0.25424225D+00 -0.27147145D+00 -0.16597232D+00
  0.10949846D+00  0.58101668D-01  0.23054731D-01 -0.35652087D-03  0.13773822D+00
  0.13355974D+00  0.90098612D-01 -0.23863871D+00 -0.23139928D+00 -0.15610059D+00
 -0.38409189D-16 -0.37243993D-16 -0.25124578D-16  0.31863981D-01 -0.55171729D-01
 -0.17826227D-16  0.14346309D-02 -0.24820160D-02  0.43240970D-17 -0.79186645D-04
  0.13727402D-03 -0.21995927D-18 -0.44781261D-02  0.22049034D-01 -0.17570908D-01
 -0.45844451D-01  0.38233442D-16 -0.15183963D-16 -0.14939267D-02  0.51790479D-02
 -0.36851212D-02 -0.11582858D-01  0.16981846D-16  0.15139976D-16 -0.29699453D-04
 -0.96587611D-04  0.12628706D-03  0.11825995D-03 -0.26509194D-18 -0.46419967D-17
 -0.22097785D-02 -0.26503886D-02 -0.67016393D-17  0.12726818D-01 -0.26470577D-02
  0.28059229D-16 -0.60974824D-02  0.10598224D-01 -0.79543111D-17 -0.69234279D-16
 -0.40221465D-03 -0.10937850D-03  0.22855875D-17  0.14638804D-02 -0.10785374D-03
 -0.67871387D-17 -0.25723642D-03  0.43598924D-03 -0.69623842D-19  0.86101729D-17