 Molden2AIM, Version 4.0.0 (06/02/2016)           Time: Sat Jun 30 05:03:01 2018
GAUSSIAN             16 MOL ORBITALS    327 PRIMITIVES        5 NUCLEI
  N    1    (CENTRE  1)   0.14934884 -0.00324466  0.00000000  CHARGE =  7.0
  O    2    (CENTRE  2)   0.65940670  2.22034505  0.00000000  CHARGE =  8.0
  O    3    (CENTRE  3)   1.50538040 -1.80385886  0.00000000  CHARGE =  8.0
  O    4    (CENTRE  4)  -2.40382990 -0.58936400  0.00000000  CHARGE =  8.0
  H    5    (CENTRE  5)  -3.21167837  1.05904031  0.00000000  CHARGE =  1.0
CENTRE ASSIGNMENTS    1  1  1  1  1  1  1  1  1  1  1  1  1  1  1  1  1  1  1  1
CENTRE ASSIGNMENTS    1  1  1  1  1  1  1  1  1  1  1  1  1  1  1  1  1  1  1  1
CENTRE ASSIGNMENTS    1  1  1  1  1  1  1  1  1  1  1  1  1  1  1  1  1  1  1  1
CENTRE ASSIGNMENTS    1  1  1  1  1  1  1  1  1  1  1  1  1  1  1  2  2  2  2  2
CENTRE ASSIGNMENTS    2  2  2  2  2  2  2  2  2  2  2  2  2  2  2  2  2  2  2  2
CENTRE ASSIGNMENTS    2  2  2  2  2  2  2  2  2  2  2  2  2  2  2  2  2  2  2  2
CENTRE ASSIGNMENTS    2  2  2  2  2  2  2  2  2  2  2  2  2  2  2  2  2  2  2  2
CENTRE ASSIGNMENTS    2  2  2  2  2  2  2  2  2  2  3  3  3  3  3  3  3  3  3  3
CENTRE ASSIGNMENTS    3  3  3  3  3  3  3  3  3  3  3  3  3  3  3  3  3  3  3  3
CENTRE ASSIGNMENTS    3  3  3  3  3  3  3  3  3  3  3  3  3  3  3  3  3  3  3  3
CENTRE ASSIGNMENTS    3  3  3  3  3  3  3  3  3  3  3  3  3  3  3  3  3  3  3  3
CENTRE ASSIGNMENTS    3  3  3  3  3  4  4  4  4  4  4  4  4  4  4  4  4  4  4  4
CENTRE ASSIGNMENTS    4  4  4  4  4  4  4  4  4  4  4  4  4  4  4  4  4  4  4  4
CENTRE ASSIGNMENTS    4  4  4  4  4  4  4  4  4  4  4  4  4  4  4  4  4  4  4  4
CENTRE ASSIGNMENTS    4  4  4  4  4  4  4  4  4  4  4  4  4  4  4  4  4  4  4  4
CENTRE ASSIGNMENTS    5  5  5  5  5  5  5  5  5  5  5  5  5  5  5  5  5  5  5  5
CENTRE ASSIGNMENTS    5  5  5  5  5  5  5
TYPE ASSIGNMENTS      1  1  1  1  1  1  1  1  1  1  1  1  1  1  1  1  1  1  1  2
TYPE ASSIGNMENTS      2  2  3  3  3  4  4  4  2  3  4  2  3  4  2  3  4  5  6  7
TYPE ASSIGNMENTS      8  9 10  5  6  7  8  9 10  5  6  7  8  9 10 11 12 13 17 14
TYPE ASSIGNMENTS     15 18 19 16 20 11 12 13 17 14 15 18 19 16 20  1  1  1  1  1
TYPE ASSIGNMENTS      1  1  1  1  1  1  1  1  1  1  1  1  1  1  2  2  2  3  3  3
TYPE ASSIGNMENTS      4  4  4  2  3  4  2  3  4  2  3  4  5  6  7  8  9 10  5  6
TYPE ASSIGNMENTS      7  8  9 10  5  6  7  8  9 10 11 12 13 17 14 15 18 19 16 20
TYPE ASSIGNMENTS     11 12 13 17 14 15 18 19 16 20  1  1  1  1  1  1  1  1  1  1
TYPE ASSIGNMENTS      1  1  1  1  1  1  1  1  1  2  2  2  3  3  3  4  4  4  2  3
TYPE ASSIGNMENTS      4  2  3  4  2  3  4  5  6  7  8  9 10  5  6  7  8  9 10  5
TYPE ASSIGNMENTS      6  7  8  9 10 11 12 13 17 14 15 18 19 16 20 11 12 13 17 14
TYPE ASSIGNMENTS     15 18 19 16 20  1  1  1  1  1  1  1  1  1  1  1  1  1  1  1
TYPE ASSIGNMENTS      1  1  1  1  2  2  2  3  3  3  4  4  4  2  3  4  2  3  4  2
TYPE ASSIGNMENTS      3  4  5  6  7  8  9 10  5  6  7  8  9 10  5  6  7  8  9 10
TYPE ASSIGNMENTS     11 12 13 17 14 15 18 19 16 20 11 12 13 17 14 15 18 19 16 20
TYPE ASSIGNMENTS      1  1  1  1  1  1  2  3  4  2  3  4  2  3  4  5  6  7  8  9
TYPE ASSIGNMENTS     10  5  6  7  8  9 10
EXPONENTS  0.1142000D+05 0.1712000D+04 0.3893000D+03 0.1100000D+03 0.3557000D+02
EXPONENTS  0.1254000D+02 0.4644000D+01 0.5118000D+00 0.1142000D+05 0.1712000D+04
EXPONENTS  0.3893000D+03 0.1100000D+03 0.3557000D+02 0.1254000D+02 0.4644000D+01
EXPONENTS  0.5118000D+00 0.1293000D+01 0.1787000D+00 0.5760000D-01 0.2663000D+02
EXPONENTS  0.5948000D+01 0.1742000D+01 0.2663000D+02 0.5948000D+01 0.1742000D+01
EXPONENTS  0.2663000D+02 0.5948000D+01 0.1742000D+01 0.5550000D+00 0.5550000D+00
EXPONENTS  0.5550000D+00 0.1725000D+00 0.1725000D+00 0.1725000D+00 0.4910000D-01
EXPONENTS  0.4910000D-01 0.4910000D-01 0.1654000D+01 0.1654000D+01 0.1654000D+01
EXPONENTS  0.1654000D+01 0.1654000D+01 0.1654000D+01 0.4690000D+00 0.4690000D+00
EXPONENTS  0.4690000D+00 0.4690000D+00 0.4690000D+00 0.4690000D+00 0.1510000D+00
EXPONENTS  0.1510000D+00 0.1510000D+00 0.1510000D+00 0.1510000D+00 0.1510000D+00
EXPONENTS  0.1093000D+01 0.1093000D+01 0.1093000D+01 0.1093000D+01 0.1093000D+01
EXPONENTS  0.1093000D+01 0.1093000D+01 0.1093000D+01 0.1093000D+01 0.1093000D+01
EXPONENTS  0.3640000D+00 0.3640000D+00 0.3640000D+00 0.3640000D+00 0.3640000D+00
EXPONENTS  0.3640000D+00 0.3640000D+00 0.3640000D+00 0.3640000D+00 0.3640000D+00
EXPONENTS  0.1533000D+05 0.2299000D+04 0.5224000D+03 0.1473000D+03 0.4755000D+02
EXPONENTS  0.1676000D+02 0.6207000D+01 0.6882000D+00 0.1533000D+05 0.2299000D+04
EXPONENTS  0.5224000D+03 0.1473000D+03 0.4755000D+02 0.1676000D+02 0.6207000D+01
EXPONENTS  0.6882000D+00 0.1752000D+01 0.2384000D+00 0.7376000D-01 0.3446000D+02
EXPONENTS  0.7749000D+01 0.2280000D+01 0.3446000D+02 0.7749000D+01 0.2280000D+01
EXPONENTS  0.3446000D+02 0.7749000D+01 0.2280000D+01 0.7156000D+00 0.7156000D+00
EXPONENTS  0.7156000D+00 0.2140000D+00 0.2140000D+00 0.2140000D+00 0.5974000D-01
EXPONENTS  0.5974000D-01 0.5974000D-01 0.2314000D+01 0.2314000D+01 0.2314000D+01
EXPONENTS  0.2314000D+01 0.2314000D+01 0.2314000D+01 0.6450000D+00 0.6450000D+00
EXPONENTS  0.6450000D+00 0.6450000D+00 0.6450000D+00 0.6450000D+00 0.2140000D+00
EXPONENTS  0.2140000D+00 0.2140000D+00 0.2140000D+00 0.2140000D+00 0.2140000D+00
EXPONENTS  0.1428000D+01 0.1428000D+01 0.1428000D+01 0.1428000D+01 0.1428000D+01
EXPONENTS  0.1428000D+01 0.1428000D+01 0.1428000D+01 0.1428000D+01 0.1428000D+01
EXPONENTS  0.5000000D+00 0.5000000D+00 0.5000000D+00 0.5000000D+00 0.5000000D+00
EXPONENTS  0.5000000D+00 0.5000000D+00 0.5000000D+00 0.5000000D+00 0.5000000D+00
EXPONENTS  0.1533000D+05 0.2299000D+04 0.5224000D+03 0.1473000D+03 0.4755000D+02
EXPONENTS  0.1676000D+02 0.6207000D+01 0.6882000D+00 0.1533000D+05 0.2299000D+04
EXPONENTS  0.5224000D+03 0.1473000D+03 0.4755000D+02 0.1676000D+02 0.6207000D+01
EXPONENTS  0.6882000D+00 0.1752000D+01 0.2384000D+00 0.7376000D-01 0.3446000D+02
EXPONENTS  0.7749000D+01 0.2280000D+01 0.3446000D+02 0.7749000D+01 0.2280000D+01
EXPONENTS  0.3446000D+02 0.7749000D+01 0.2280000D+01 0.7156000D+00 0.7156000D+00
EXPONENTS  0.7156000D+00 0.2140000D+00 0.2140000D+00 0.2140000D+00 0.5974000D-01
EXPONENTS  0.5974000D-01 0.5974000D-01 0.2314000D+01 0.2314000D+01 0.2314000D+01
EXPONENTS  0.2314000D+01 0.2314000D+01 0.2314000D+01 0.6450000D+00 0.6450000D+00
EXPONENTS  0.6450000D+00 0.6450000D+00 0.6450000D+00 0.6450000D+00 0.2140000D+00
EXPONENTS  0.2140000D+00 0.2140000D+00 0.2140000D+00 0.2140000D+00 0.2140000D+00
EXPONENTS  0.1428000D+01 0.1428000D+01 0.1428000D+01 0.1428000D+01 0.1428000D+01
EXPONENTS  0.1428000D+01 0.1428000D+01 0.1428000D+01 0.1428000D+01 0.1428000D+01
EXPONENTS  0.5000000D+00 0.5000000D+00 0.5000000D+00 0.5000000D+00 0.5000000D+00
EXPONENTS  0.5000000D+00 0.5000000D+00 0.5000000D+00 0.5000000D+00 0.5000000D+00
EXPONENTS  0.1533000D+05 0.2299000D+04 0.5224000D+03 0.1473000D+03 0.4755000D+02
EXPONENTS  0.1676000D+02 0.6207000D+01 0.6882000D+00 0.1533000D+05 0.2299000D+04
EXPONENTS  0.5224000D+03 0.1473000D+03 0.4755000D+02 0.1676000D+02 0.6207000D+01
EXPONENTS  0.6882000D+00 0.1752000D+01 0.2384000D+00 0.7376000D-01 0.3446000D+02
EXPONENTS  0.7749000D+01 0.2280000D+01 0.3446000D+02 0.7749000D+01 0.2280000D+01
EXPONENTS  0.3446000D+02 0.7749000D+01 0.2280000D+01 0.7156000D+00 0.7156000D+00
EXPONENTS  0.7156000D+00 0.2140000D+00 0.2140000D+00 0.2140000D+00 0.5974000D-01
EXPONENTS  0.5974000D-01 0.5974000D-01 0.2314000D+01 0.2314000D+01 0.2314000D+01
EXPONENTS  0.2314000D+01 0.2314000D+01 0.2314000D+01 0.6450000D+00 0.6450000D+00
EXPONENTS  0.6450000D+00 0.6450000D+00 0.6450000D+00 0.6450000D+00 0.2140000D+00
EXPONENTS  0.2140000D+00 0.2140000D+00 0.2140000D+00 0.2140000D+00 0.2140000D+00
EXPONENTS  0.1428000D+01 0.1428000D+01 0.1428000D+01 0.1428000D+01 0.1428000D+01
EXPONENTS  0.1428000D+01 0.1428000D+01 0.1428000D+01 0.1428000D+01 0.1428000D+01
EXPONENTS  0.5000000D+00 0.5000000D+00 0.5000000D+00 0.5000000D+00 0.5000000D+00
EXPONENTS  0.5000000D+00 0.5000000D+00 0.5000000D+00 0.5000000D+00 0.5000000D+00
EXPONENTS  0.3387000D+02 0.5095000D+01 0.1159000D+01 0.3258000D+00 0.1027000D+00
EXPONENTS  0.2526000D-01 0.1407000D+01 0.1407000D+01 0.1407000D+01 0.3880000D+00
EXPONENTS  0.3880000D+00 0.3880000D+00 0.1020000D+00 0.1020000D+00 0.1020000D+00
EXPONENTS  0.1057000D+01 0.1057000D+01 0.1057000D+01 0.1057000D+01 0.1057000D+01
EXPONENTS  0.1057000D+01 0.2470000D+00 0.2470000D+00 0.2470000D+00 0.2470000D+00
EXPONENTS  0.2470000D+00 0.2470000D+00
MO    1     MO 0.0        OCC NO =    2.0000000  ORB. ENERGY =  -19.062824
  0.19038763D-03  0.35475931D-03  0.59998693D-03  0.90354707D-03  0.11186499D-02
  0.95192057D-03  0.36222334D-03 -0.16964464D-05 -0.12536368D-03 -0.23505806D-03
 -0.39990371D-03 -0.62100823D-03 -0.82411404D-03 -0.86850307D-03 -0.53852731D-03
  0.35822858D-03 -0.45534574D-03  0.22565757D-02  0.77048305D-03  0.10522620D-02
  0.10106851D-02  0.70876217D-03  0.34317738D-03  0.32961777D-03  0.23115074D-03
 -0.10995484D-14 -0.10561031D-14 -0.74061236D-15 -0.17790775D-02 -0.81913564D-03
  0.40502872D-15 -0.10600441D-02  0.13167766D-03 -0.85816877D-17 -0.65445257D-04
  0.11406904D-04 -0.11254136D-17  0.71405639D-03 -0.42464907D-03 -0.28940732D-03
  0.74295983D-03 -0.90879120D-18 -0.60631646D-20  0.67199582D-03 -0.29640640D-03
 -0.37558942D-03  0.32549637D-03 -0.56058708D-17 -0.19929127D-17  0.71762437D-04
 -0.74548316D-05 -0.64307606D-04  0.96454694D-04 -0.17633984D-17  0.10523664D-18
 -0.40781163D-03  0.11881709D-03  0.41704019D-17  0.61870126D-03 -0.75087987D-03
 -0.24263441D-17  0.60473363D-03  0.39442860D-03 -0.10084862D-16  0.30344991D-17
  0.44282712D-04 -0.10394757D-03  0.37562378D-17 -0.16794813D-03  0.45179265D-03
 -0.18301272D-17  0.35099992D-04 -0.13994994D-03 -0.94385861D-17  0.58994699D-17
  0.21985495D-03  0.40978134D-03  0.69485337D-03  0.10516929D-02  0.13122057D-02
  0.11270097D-02  0.43268094D-03 -0.19354084D-05 -0.12714635D-03 -0.23846614D-03
 -0.40653249D-03 -0.63533115D-03 -0.84955880D-03 -0.90713073D-03 -0.55460194D-03
  0.36589268D-03  0.25724118D-05 -0.36526189D-03 -0.23136545D-03 -0.46918988D-04
 -0.45495636D-04 -0.30691087D-04  0.18745871D-04  0.18177189D-04  0.12262224D-04
  0.47459359D-17  0.46019614D-17  0.31044560D-17 -0.80059192D-04 -0.21176293D-03
  0.13455508D-16 -0.19156992D-04  0.11172507D-03  0.12369151D-16  0.11686606D-04
  0.89669210D-05  0.30703800D-18  0.38231371D-03 -0.13149615D-03 -0.25081756D-03
 -0.20695298D-03  0.10378417D-16  0.31128508D-17 -0.24339555D-03  0.12574889D-03
  0.11764666D-03  0.23816159D-03 -0.94624364D-17 -0.18217547D-16 -0.40273923D-04
  0.17711804D-04  0.22562119D-04  0.36960082D-04 -0.21844383D-17 -0.72769974D-17
 -0.70015581D-04  0.28965179D-04  0.64432082D-17  0.43678422D-03 -0.10534133D-03
  0.96693606D-17 -0.22673748D-03  0.18445791D-04 -0.28998985D-16 -0.14535276D-16
  0.69437613D-04 -0.63839894D-04 -0.42201498D-17 -0.23277858D-03  0.27042940D-03
  0.64075519D-18  0.24465737D-04 -0.78909718D-04  0.12019694D-16  0.12066291D-16
  0.21114678D-03  0.39355043D-03  0.66733114D-03  0.10100368D-02  0.12602310D-02
  0.10823703D-02  0.41554302D-03 -0.18587494D-05 -0.12146924D-03 -0.22781856D-03
 -0.38838071D-03 -0.60696344D-03 -0.81162578D-03 -0.86662711D-03 -0.52983882D-03
  0.34955547D-03  0.60515217D-04  0.11446691D-03 -0.90903412D-04 -0.27919423D-03
 -0.27072448D-03 -0.18262914D-03 -0.84403264D-04 -0.81842774D-04 -0.55210652D-04
 -0.14029193D-17 -0.13603598D-17 -0.91769068D-18  0.16573632D-03  0.23717868D-03
  0.16782979D-16  0.17335883D-03 -0.22848659D-04  0.13161881D-16  0.12363430D-04
 -0.70630507D-05  0.25232178D-18  0.17424742D-03 -0.95167734D-04 -0.79079685D-04
  0.19634886D-03  0.16660300D-16  0.65630745D-17 -0.15555024D-03  0.75811434D-04
  0.79738807D-04  0.17399648D-04 -0.19094480D-16  0.15785629D-16 -0.42555676D-04
  0.26547476D-05  0.39900928D-04  0.26686091D-04 -0.39408396D-17  0.55649450D-17
  0.39627568D-05  0.14378277D-03  0.88889709D-18  0.31171310D-03 -0.38162768D-03
 -0.13952496D-17 -0.32360137D-03 -0.49720620D-04 -0.12714417D-17  0.14753964D-16
  0.46854089D-04 -0.33452390D-04 -0.22638696D-17 -0.18046827D-03  0.29894116D-04
  0.29062401D-17  0.39906006D-04  0.70463054D-04  0.38853686D-17 -0.12643370D-16
  0.49787517D+00  0.92797526D+00  0.15735386D+01  0.23816239D+01  0.29715713D+01
  0.25521834D+01  0.97983284D+00 -0.43828524D-02 -0.50181878D-03 -0.94117355D-03
 -0.16044946D-02 -0.25075127D-02 -0.33530223D-02 -0.35802461D-02 -0.21888922D-02
  0.14440982D-02  0.53486003D-01 -0.14624872D-02 -0.83586472D-03  0.45346967D-02
  0.43971305D-02  0.29662782D-02  0.73457465D-02  0.71229031D-02  0.48050684D-02
 -0.16665591D-17 -0.16160017D-17 -0.10901452D-17 -0.14413468D-02  0.35216195D-03
  0.58874661D-17 -0.12915135D-02 -0.46282060D-03  0.40157321D-17 -0.74335271D-04
 -0.28018784D-04  0.12616834D-18  0.10467296D-03  0.11974743D-02 -0.13021473D-02
 -0.11691285D-02  0.17781571D-16 -0.27379614D-17 -0.94534041D-03  0.42215818D-03
  0.52318223D-03 -0.10141561D-02  0.10391051D-16  0.38946636D-17 -0.17459564D-03
  0.21487612D-04  0.15310803D-03 -0.82047601D-04  0.27261042D-17  0.12897828D-17
  0.31884461D-03  0.57469069D-03  0.28620736D-17 -0.19979348D-02 -0.42529583D-03
  0.16579466D-17  0.10414009D-02 -0.12987762D-02 -0.10244167D-16 -0.45145414D-17
 -0.27782404D-03 -0.90050105D-05 -0.25470999D-17  0.57843105D-03 -0.36310573D-03
  0.52154445D-17  0.25504109D-03  0.39012076D-03  0.24258552D-17  0.46507447D-17
  0.17534156D-03  0.31623573D-03  0.46628939D-03 -0.42009067D-03 -0.22999207D-03
 -0.30989233D-04 -0.32023434D-03  0.65698411D-03  0.65860969D-18 -0.51737874D-03
  0.71433746D-03 -0.17583265D-17 -0.73314167D-04  0.81878568D-04 -0.45217278D-18
  0.38752673D-03 -0.14148419D-02  0.10273151D-02  0.25116052D-02  0.17193232D-17
  0.19241532D-17 -0.28820642D-04 -0.15369302D-04  0.44189944D-04  0.10606367D-03
 -0.17080542D-17 -0.26388543D-18
MO    2     MO 0.0        OCC NO =    2.0000000  ORB. ENERGY =  -19.025001
  0.61598193D-03  0.11477916D-02  0.19412034D-02  0.29233447D-02  0.36192904D-02
  0.30798528D-02  0.11719408D-02 -0.54886988D-05 -0.45616935D-03 -0.85532179D-03
 -0.14551569D-02 -0.22597050D-02 -0.29987599D-02 -0.31602813D-02 -0.19595760D-02
  0.13035107D-02  0.76786703D-03 -0.86837715D-03 -0.27727448D-04  0.46062913D-03
  0.44242877D-03  0.31026159D-03 -0.27175160D-03 -0.26101416D-03 -0.18304115D-03
  0.46472542D-16  0.44636321D-16  0.31302069D-16  0.10462743D-02 -0.18132778D-02
  0.93994025D-16 -0.16720901D-03 -0.35699006D-03 -0.97659944D-16  0.38076531D-04
 -0.23867223D-04  0.20539472D-16  0.25794998D-03  0.84267564D-03 -0.11006256D-02
 -0.28241347D-02  0.56753283D-17 -0.53793840D-16  0.46372564D-04 -0.60865171D-03
  0.56227914D-03  0.72016360D-03 -0.65872924D-17  0.14428676D-17  0.32162300D-04
 -0.80207646D-04  0.48045346D-04  0.44891174D-04 -0.11343046D-17 -0.36597527D-18
  0.33075366D-03 -0.13321324D-03  0.94344248D-18 -0.12733669D-02  0.65770237D-03
  0.15150331D-17  0.28110591D-03 -0.25806265D-03 -0.43453605D-17  0.16852382D-17
  0.41222407D-03 -0.82196078D-04  0.14782086D-17 -0.14291855D-02  0.42955700D-03
 -0.73256809D-18  0.19251333D-03 -0.18296877D-03 -0.37020576D-17  0.17955825D-17
  0.81755895D-02  0.15238247D-01  0.25839018D-01  0.39108557D-01  0.48796061D-01
  0.41909308D-01  0.16089798D-01 -0.71970655D-04 -0.32246239D-03 -0.60478621D-03
 -0.10310279D-02 -0.16112959D-02 -0.21546097D-02 -0.23006208D-02 -0.14065544D-02
  0.92795919D-03  0.78716339D-03  0.12140264D-02  0.21469267D-03 -0.36840457D-03
 -0.35722851D-03 -0.24098424D-03  0.33266620D-03  0.32257431D-03  0.21760672D-03
 -0.10396833D-16 -0.10081431D-16 -0.68008737D-17  0.33338419D-03 -0.13278326D-02
  0.20246770D-17  0.94121715D-04 -0.42849205D-03  0.60465029D-17 -0.10137536D-04
 -0.15610825D-04 -0.44120154D-19  0.49376460D-03  0.27652695D-03 -0.77029155D-03
 -0.32241059D-03  0.36121110D-17  0.14067360D-16 -0.55299662D-03  0.36961411D-03
  0.18338251D-03  0.19241459D-03 -0.28515213D-17 -0.77173844D-17 -0.83241213D-04
  0.56187294D-04  0.27053919D-04 -0.63514330D-05 -0.40494835D-18 -0.27412636D-17
 -0.15027489D-03 -0.81474356D-04 -0.25973225D-17  0.32928584D-03  0.58824981D-05
  0.42548075D-17  0.12153882D-03  0.23854057D-03  0.35371600D-17  0.33582311D-17
  0.15844715D-03 -0.33025666D-04 -0.35188965D-18 -0.42964086D-03  0.30331596D-03
 -0.10881935D-17 -0.45700602D-04 -0.20423896D-03  0.21438624D-17  0.26198607D-18
  0.49799179D+00  0.92819263D+00  0.15739071D+01  0.23821818D+01  0.29722673D+01
  0.25527812D+01  0.98006236D+00 -0.43838791D-02 -0.62904242D-03 -0.11797846D-02
 -0.20112742D-02 -0.31432300D-02 -0.42030975D-02 -0.44879282D-02 -0.27438313D-02
  0.18102132D-02  0.53718927D-01 -0.21010235D-03 -0.54588416D-03 -0.60916074D-02
 -0.59068101D-02 -0.39846992D-02  0.80822054D-02  0.78370205D-02  0.52868077D-02
 -0.30816342D-16 -0.29881486D-16 -0.20157874D-16 -0.46731673D-04 -0.48571568D-04
  0.43063363D-17  0.54286675D-03 -0.98298547D-03  0.63924231D-17  0.22565355D-04
 -0.39733235D-04 -0.10053413D-19  0.89016824D-03  0.16608575D-02 -0.25510257D-02
 -0.16750760D-02  0.19130834D-16 -0.13971449D-16 -0.18238733D-03 -0.66215448D-03
  0.84454181D-03  0.89664084D-03 -0.77480466D-17  0.56935528D-17  0.68348037D-05
 -0.15588865D-03  0.14905384D-03  0.31952498D-03 -0.15490872D-17  0.31019873D-17
 -0.47142713D-04  0.88908289D-04  0.16138814D-17  0.18868642D-03 -0.12266365D-03
 -0.23526383D-17 -0.47258277D-04 -0.14406122D-03 -0.24890058D-17  0.68924218D-17
  0.77300072D-06 -0.12383298D-03 -0.10080575D-17  0.33705874D-03 -0.14303784D-03
  0.11698602D-17 -0.33937774D-03  0.51453678D-03  0.18543122D-17 -0.35459626D-17
  0.21225221D-03  0.39561080D-03  0.67082484D-03  0.10153246D-02  0.12668287D-02
  0.10880369D-02  0.41771853D-03 -0.18684806D-05 -0.17346894D-03 -0.32534530D-03
 -0.55464242D-03 -0.86679813D-03 -0.11590743D-02 -0.12376211D-02 -0.75665726D-03
  0.49919651D-03  0.65744628D-05  0.20365501D-03  0.24664531D-03 -0.35142900D-03
 -0.34076792D-03 -0.22988002D-03 -0.29620530D-03 -0.28721951D-03 -0.19375658D-03
 -0.37101847D-17 -0.35976311D-17 -0.24269407D-17  0.77113165D-03  0.30688554D-03
 -0.57430253D-18  0.20260108D-03  0.35515993D-03  0.83838525D-18  0.23144914D-04
  0.61128555D-06 -0.18886832D-18  0.27809159D-03  0.18801112D-03 -0.46610270D-03
 -0.14112756D-02 -0.93004598D-17 -0.10215504D-17  0.61316053D-05 -0.21412729D-03
  0.20799568D-03  0.12362735D-02 -0.98903479D-19 -0.33884578D-18 -0.11173932D-04
  0.20188849D-04 -0.90149168D-05  0.16412592D-03  0.74895551D-18  0.57105648D-18
 -0.17788206D-03 -0.40548932D-04  0.24924332D-17  0.66844521D-03  0.19170677D-03
 -0.75820035D-18 -0.13479904D-03 -0.70059968D-04 -0.67190993D-17 -0.20650487D-17
 -0.17472134D-04 -0.15837021D-03 -0.50838042D-18 -0.45828612D-04  0.42047976D-03
 -0.12394095D-19  0.98245012D-04  0.54630881D-04  0.15375354D-17  0.59126015D-18
  0.83629150D-04  0.15082862D-03  0.22239671D-03 -0.68231203D-04 -0.56436738D-04
  0.86605252D-05  0.42951019D-03 -0.22744968D-03  0.12958834D-17 -0.19522223D-03
 -0.10972466D-03 -0.88520103D-18 -0.30665374D-04  0.18277191D-04  0.17845723D-18
 -0.23830816D-03  0.13092934D-03  0.10737882D-03 -0.23880308D-03  0.63644689D-18
  0.44727719D-18 -0.28867322D-04  0.48871505D-04 -0.20004183D-04  0.35248193D-04
 -0.26773447D-18 -0.58565209D-18
MO    3     MO 0.0        OCC NO =    2.0000000  ORB. ENERGY =  -19.024563
  0.57738982D-03  0.10758809D-02  0.18195844D-02  0.27401932D-02  0.33925369D-02
  0.28868958D-02  0.10985171D-02 -0.51448243D-05 -0.42637646D-03 -0.79945985D-03
 -0.13601191D-02 -0.21121213D-02 -0.28029078D-02 -0.29538801D-02 -0.18315941D-02
  0.12183771D-02  0.63803386D-03 -0.47903704D-03  0.18228157D-03  0.17035383D-03
  0.16362282D-03  0.11474362D-03  0.26883023D-03  0.25820822D-03  0.18107343D-03
  0.58151731D-15  0.55854043D-15  0.39168710D-15  0.42829110D-03  0.22448734D-02
 -0.33157435D-15 -0.46345287D-03  0.51781919D-03  0.12813650D-15  0.76818406D-05
  0.56975286D-04 -0.25635739D-16 -0.71384491D-03  0.17746947D-02 -0.10608498D-02
  0.14836324D-02 -0.65176989D-17 -0.41668466D-16  0.25233919D-05 -0.48479827D-03
  0.48227487D-03  0.17916035D-03  0.11266517D-16  0.11686393D-18 -0.39550673D-05
 -0.45844611D-04  0.49799679D-04  0.18142194D-03  0.24177070D-17  0.93577347D-19
  0.25358296D-03 -0.28471589D-03 -0.35669320D-17 -0.83056368D-03  0.62199122D-03
 -0.72834514D-18  0.69814787D-04  0.23215645D-03  0.11429141D-16 -0.27520936D-17
  0.19463290D-03 -0.48339812D-03 -0.33368254D-17 -0.71551653D-03  0.12407702D-02
  0.12347279D-17  0.13161782D-03  0.20942415D-03  0.87757482D-17 -0.49014221D-17
  0.49793565D+00  0.92808798D+00  0.15737297D+01  0.23819132D+01  0.29719322D+01
  0.25524934D+01  0.97995186D+00 -0.43833848D-02 -0.58862333D-03 -0.11039776D-02
 -0.18820399D-02 -0.29412620D-02 -0.39330277D-02 -0.41995566D-02 -0.25675266D-02
  0.16938981D-02  0.53723305D-01 -0.72304039D-03 -0.70922613D-03 -0.24878203D-02
 -0.24123489D-02 -0.16273563D-02 -0.96088683D-02 -0.93173700D-02 -0.62854428D-02
  0.28145239D-16  0.27291414D-16  0.18410627D-16 -0.12191465D-04  0.26799111D-03
 -0.11605920D-16  0.22435110D-04  0.12869517D-02 -0.12087136D-16  0.11418901D-04
  0.52635254D-04 -0.11730460D-18  0.44554697D-03  0.19233861D-02 -0.23689331D-02
  0.43266781D-03 -0.13341764D-17 -0.19499328D-16  0.11743514D-03 -0.99182188D-03
  0.87438674D-03 -0.23157696D-03  0.76444058D-17  0.18549462D-16  0.11656502D-03
 -0.25573282D-03  0.13916780D-03 -0.88440783D-04  0.14208897D-17  0.64940118D-17
 -0.36317769D-04  0.81266980D-04 -0.47091676D-18  0.21933304D-03 -0.21360799D-03
 -0.84427553D-17 -0.11037974D-03 -0.30192950D-04  0.98555056D-17  0.26408117D-17
 -0.83141676D-05  0.22530476D-03  0.25573771D-17  0.13585214D-03 -0.89184250D-04
  0.80670197D-18 -0.11090964D-03 -0.58673003D-03 -0.84788334D-17 -0.64030039D-17
 -0.72787377D-02 -0.13566631D-01 -0.23004510D-01 -0.34818398D-01 -0.43443194D-01
 -0.37311910D-01 -0.14324768D-01  0.64075566D-04 -0.30058322D-03 -0.56375129D-03
 -0.96107236D-03 -0.15019690D-02 -0.20084188D-02 -0.21445230D-02 -0.13111193D-02
  0.86499689D-03 -0.84699611D-03  0.15390334D-02  0.23042309D-03 -0.79790620D-04
 -0.77370061D-04 -0.52193386D-04 -0.74061155D-03 -0.71814408D-03 -0.48445575D-03
  0.10362989D-16  0.10048614D-16  0.67787354D-17 -0.13350306D-03  0.14467307D-02
 -0.11214398D-16  0.62509743D-04  0.56490848D-03 -0.14119120D-16 -0.82653923D-05
  0.29207116D-05 -0.15260895D-18  0.36897408D-03  0.31587441D-03 -0.68484848D-03
  0.33814861D-03 -0.21673324D-16  0.84084726D-17 -0.41616266D-03  0.24985371D-03
  0.16630895D-03 -0.73787548D-03  0.17594638D-16 -0.13893111D-16 -0.87519779D-04
  0.56090907D-04  0.31428872D-04 -0.58246053D-04  0.38473474D-17 -0.63257417D-17
 -0.37058827D-04  0.15072190D-03 -0.24398469D-17 -0.18154713D-04 -0.28519617D-03
  0.34549953D-17  0.12933119D-03 -0.16696952D-03  0.38645455D-17 -0.15301502D-16
  0.13859677D-03 -0.13514953D-03  0.23336184D-17 -0.31879490D-03  0.24802849D-03
 -0.28326288D-17 -0.96995420D-04  0.15742009D-03 -0.41682265D-17  0.10794927D-16
  0.17823935D-03  0.33221521D-03  0.56332692D-03  0.85262153D-03  0.10638227D-02
  0.91368185D-03  0.35078023D-03 -0.15690615D-05 -0.14429636D-03 -0.27063139D-03
 -0.46136720D-03 -0.72102713D-03 -0.96415065D-03 -0.10294881D-02 -0.62940885D-03
  0.41524573D-03 -0.10964828D-03  0.87690730D-03  0.17883410D-03 -0.35323950D-03
 -0.34252349D-03 -0.23106432D-03  0.16300083D-03  0.15805597D-03  0.10662363D-03
  0.24021313D-17  0.23292594D-17  0.15713046D-17  0.78526699D-03 -0.59945755D-04
 -0.20868725D-17 -0.13847257D-03  0.33158594D-03 -0.17314199D-17 -0.39348145D-05
 -0.95937168D-05  0.15778789D-18 -0.37956935D-03  0.58395474D-03 -0.20438539D-03
  0.14301740D-02  0.34632707D-17  0.15874847D-17  0.50864921D-03 -0.50977056D-03
  0.11213492D-05 -0.79037076D-03 -0.48501586D-17 -0.87570464D-18  0.74682810D-04
 -0.43676724D-05 -0.70315138D-04 -0.20578759D-03 -0.17367460D-17 -0.92839086D-18
 -0.12219929D-04 -0.11789744D-03 -0.31817609D-17  0.42283652D-03 -0.23335826D-03
 -0.28724004D-17 -0.38617673D-03  0.58705059D-03  0.12417683D-16  0.46531669D-17
  0.16161166D-03 -0.44517216D-04  0.14816174D-17 -0.73328061D-03  0.24853753D-03
 -0.16877007D-17  0.24844562D-03 -0.11498588D-03 -0.27571514D-17 -0.27608385D-17
 -0.10799105D-04 -0.19476631D-04 -0.28718281D-04 -0.10367359D-02 -0.19271843D-03
 -0.80452872D-05  0.42638495D-03  0.14001975D-03 -0.14908397D-17 -0.29089748D-04
  0.40599892D-03  0.11075044D-17 -0.60144292D-05  0.49400487D-04  0.32383415D-20
  0.13759493D-03 -0.15052177D-03  0.12926838D-04 -0.57188998D-03 -0.18976943D-17
 -0.93202149D-18 -0.33288669D-04  0.14027665D-04  0.19261004D-04 -0.60954151D-04
  0.10994769D-17  0.87738107D-18
MO    4     MO 0.0        OCC NO =    2.0000000  ORB. ENERGY =  -14.467241
  0.41369083D+00  0.77085194D+00  0.13037039D+01  0.19633058D+01  0.24306999D+01
  0.20684160D+01  0.78707043D+00 -0.36861866D-02 -0.23309598D-02 -0.43705714D-02
 -0.74356423D-02 -0.11546767D-01 -0.15323232D-01 -0.16148583D-01 -0.10013152D-01
  0.66607524D-02  0.41133045D-01  0.40201009D-04  0.12575296D-03 -0.11722308D-02
 -0.11259136D-02 -0.78956836D-03 -0.15179509D-03 -0.14579737D-03 -0.10224318D-03
 -0.31106407D-16 -0.29877332D-16 -0.20952048D-16  0.25971061D-02 -0.16773246D-03
  0.61611485D-17  0.15546313D-03  0.18422977D-03  0.22773584D-17  0.27026169D-04
  0.26016657D-04  0.12496027D-20  0.35100751D-03  0.46479440D-02 -0.49989515D-02
 -0.26309781D-02  0.76975337D-17 -0.89824769D-18 -0.60466245D-03  0.27002385D-03
  0.33463860D-03 -0.25987576D-03  0.76681495D-18  0.71759311D-18 -0.10282508D-03
 -0.68431075D-04  0.17125616D-03  0.29407044D-03  0.11212592D-18  0.11784307D-18
 -0.10588787D-02  0.10308131D-02 -0.40580874D-18  0.46795358D-02 -0.31697997D-02
  0.11290749D-17 -0.15028997D-02  0.77360360D-04  0.88351374D-19  0.32845229D-17
  0.29142603D-03 -0.31264512D-03 -0.42435698D-18 -0.95943153D-03  0.10365124D-02
  0.20292412D-18  0.85153439D-04 -0.98577056D-04  0.10701468D-17 -0.26497880D-18
  0.52026072D-03  0.96969905D-03  0.16442883D-02  0.24887069D-02  0.31051796D-02
  0.26669352D-02  0.10238883D-02 -0.45799150D-05 -0.40301532D-03 -0.75586522D-03
 -0.12885845D-02 -0.20138068D-02 -0.26928433D-02 -0.28753289D-02 -0.17579197D-02
  0.11597686D-02  0.83302784D-03 -0.88051345D-03 -0.49594049D-03 -0.62216840D-03
 -0.60329406D-03 -0.40697861D-03 -0.22874944D-02 -0.22181001D-02 -0.14963172D-02
  0.96892813D-18  0.93953435D-18  0.63380432D-18  0.37002863D-03  0.91054958D-03
 -0.88093039D-18  0.87854451D-04  0.11637495D-02 -0.18092715D-17  0.12100598D-04
  0.48669000D-04 -0.21328538D-19 -0.61081448D-04  0.10759375D-02 -0.10148560D-02
  0.43987859D-03 -0.11658793D-17 -0.36495208D-17  0.54181420D-03 -0.17560438D-02
  0.12142296D-02 -0.93209217D-03  0.82839149D-18  0.27868370D-17  0.91835481D-04
 -0.21792359D-03  0.12608811D-03 -0.16141114D-03  0.21717531D-18  0.82708954D-18
 -0.45846937D-03  0.14770418D-02 -0.70268550D-19  0.16083368D-02 -0.25703725D-02
 -0.19143942D-18 -0.23292864D-03 -0.18607530D-02  0.40224507D-18  0.94877446D-18
 -0.67937513D-04  0.38507015D-03  0.36010315D-18  0.39290363D-03 -0.30486819D-03
  0.21405084D-18 -0.18909109D-03 -0.85034227D-03 -0.12943603D-17 -0.87787194D-18
  0.50369707D-03  0.93882654D-03  0.15919387D-02  0.24094734D-02  0.30063194D-02
  0.25820274D-02  0.99129052D-03 -0.44341033D-05 -0.39598832D-03 -0.74268590D-03
 -0.12661166D-02 -0.19786939D-02 -0.26458907D-02 -0.28251944D-02 -0.17272685D-02
  0.11395468D-02  0.95408201D-03 -0.30745839D-03 -0.41170838D-03 -0.17097219D-02
 -0.16578551D-02 -0.11183793D-02  0.19543642D-02  0.18950758D-02  0.12784070D-02
  0.98511277D-18  0.95522801D-18  0.64439117D-18  0.10549521D-02 -0.79151020D-03
 -0.82966076D-18  0.11814628D-02 -0.87219741D-03 -0.13970915D-17  0.44016790D-04
 -0.40198369D-04 -0.85357512D-20  0.41866501D-03  0.45404940D-03 -0.87271441D-03
 -0.14448159D-02 -0.27362613D-17  0.18801277D-17 -0.36843388D-03 -0.92285005D-03
  0.12912839D-02  0.30984735D-02  0.17350832D-17 -0.15240670D-17 -0.11414660D-03
 -0.71264828D-04  0.18541143D-03  0.50823415D-03  0.38971716D-18 -0.54983486D-18
 -0.93018115D-03 -0.17657628D-03 -0.23652859D-18  0.39026289D-02 -0.11739629D-02
  0.46466166D-18 -0.11120855D-02  0.17036917D-02  0.24492410D-18 -0.14653677D-17
 -0.10533823D-03 -0.76909252D-04  0.32857835D-18  0.86833275D-03 -0.53350544D-03
 -0.44704980D-18 -0.55231807D-03  0.76423319D-03 -0.53868526D-18  0.14057789D-17
  0.27982668D-03  0.52156092D-03  0.88439450D-03  0.13385723D-02  0.16701474D-02
  0.14344339D-02  0.55070705D-03 -0.24633464D-05 -0.20242036D-03 -0.37964440D-03
 -0.64721047D-03 -0.10114640D-02 -0.13525201D-02 -0.14441761D-02 -0.88294096D-03
  0.58251082D-03 -0.45202424D-04  0.15437498D-02  0.12873590D-03 -0.14079901D-03
 -0.13652768D-03 -0.92100768D-04 -0.19269396D-03 -0.18684832D-03 -0.12604677D-03
  0.17471063D-18  0.16941054D-18  0.11428335D-18  0.13759574D-02  0.41541851D-03
  0.40133447D-19  0.62914332D-03  0.60169730D-03 -0.75711688D-18  0.23437401D-04
 -0.35607466D-04 -0.42112177D-20  0.16133399D-02 -0.82155909D-03 -0.79178076D-03
  0.93976607D-03  0.17823327D-17  0.48350867D-18 -0.32819814D-03  0.22535995D-03
  0.10283820D-03 -0.20983085D-04 -0.78749065D-18 -0.27673935D-18 -0.40975699D-04
  0.10101413D-03 -0.60038432D-04  0.12024681D-03 -0.37441887D-18 -0.21124875D-18
 -0.21381688D-03  0.19663033D-03 -0.39952334D-18  0.39173031D-03 -0.71305571D-03
  0.47124074D-18  0.24972034D-03  0.12316473D-03  0.72732929D-18  0.97848776D-18
 -0.16402784D-03  0.16658803D-03  0.30287452D-18  0.11050722D-03 -0.48389847D-03
 -0.71147962D-18  0.38157629D-03 -0.15865626D-04 -0.19714394D-18 -0.39735971D-18
  0.62392098D-05  0.11252672D-04  0.16592058D-04 -0.69720918D-03  0.27618873D-03
  0.99821561D-05 -0.26079368D-03  0.99316243D-04 -0.12031235D-18 -0.75973987D-03
 -0.75236624D-04  0.32934809D-18 -0.16873257D-04 -0.51996916D-05  0.28573522D-19
 -0.49604415D-03  0.45746734D-03  0.38576806D-04  0.47310678D-03  0.60960766D-19
 -0.26114889D-18 -0.88417543D-04  0.68217730D-04  0.20199813D-04  0.80930412D-04