 Molden2AIM, Version 4.0.0 (06/02/2016)           Time: Sat Jun 30 02:59:09 2018
GAUSSIAN             15 MOL ORBITALS    300 PRIMITIVES        4 NUCLEI
  O    1    (CENTRE  1)   1.79065345  0.00000000  0.00001701  CHARGE =  8.0
  O    2    (CENTRE  2)   0.00000000 -1.79065345 -0.00001701  CHARGE =  8.0
  O    3    (CENTRE  3)  -1.79065345  0.00000000  0.00001701  CHARGE =  8.0
  O    4    (CENTRE  4)   0.00000000  1.79065345 -0.00001701  CHARGE =  8.0
CENTRE ASSIGNMENTS    1  1  1  1  1  1  1  1  1  1  1  1  1  1  1  1  1  1  1  1
CENTRE ASSIGNMENTS    1  1  1  1  1  1  1  1  1  1  1  1  1  1  1  1  1  1  1  1
CENTRE ASSIGNMENTS    1  1  1  1  1  1  1  1  1  1  1  1  1  1  1  1  1  1  1  1
CENTRE ASSIGNMENTS    1  1  1  1  1  1  1  1  1  1  1  1  1  1  1  2  2  2  2  2
CENTRE ASSIGNMENTS    2  2  2  2  2  2  2  2  2  2  2  2  2  2  2  2  2  2  2  2
CENTRE ASSIGNMENTS    2  2  2  2  2  2  2  2  2  2  2  2  2  2  2  2  2  2  2  2
CENTRE ASSIGNMENTS    2  2  2  2  2  2  2  2  2  2  2  2  2  2  2  2  2  2  2  2
CENTRE ASSIGNMENTS    2  2  2  2  2  2  2  2  2  2  3  3  3  3  3  3  3  3  3  3
CENTRE ASSIGNMENTS    3  3  3  3  3  3  3  3  3  3  3  3  3  3  3  3  3  3  3  3
CENTRE ASSIGNMENTS    3  3  3  3  3  3  3  3  3  3  3  3  3  3  3  3  3  3  3  3
CENTRE ASSIGNMENTS    3  3  3  3  3  3  3  3  3  3  3  3  3  3  3  3  3  3  3  3
CENTRE ASSIGNMENTS    3  3  3  3  3  4  4  4  4  4  4  4  4  4  4  4  4  4  4  4
CENTRE ASSIGNMENTS    4  4  4  4  4  4  4  4  4  4  4  4  4  4  4  4  4  4  4  4
CENTRE ASSIGNMENTS    4  4  4  4  4  4  4  4  4  4  4  4  4  4  4  4  4  4  4  4
CENTRE ASSIGNMENTS    4  4  4  4  4  4  4  4  4  4  4  4  4  4  4  4  4  4  4  4
TYPE ASSIGNMENTS      1  1  1  1  1  1  1  1  1  1  1  1  1  1  1  1  1  1  1  2
TYPE ASSIGNMENTS      2  2  3  3  3  4  4  4  2  3  4  2  3  4  2  3  4  5  6  7
TYPE ASSIGNMENTS      8  9 10  5  6  7  8  9 10  5  6  7  8  9 10 11 12 13 17 14
TYPE ASSIGNMENTS     15 18 19 16 20 11 12 13 17 14 15 18 19 16 20  1  1  1  1  1
TYPE ASSIGNMENTS      1  1  1  1  1  1  1  1  1  1  1  1  1  1  2  2  2  3  3  3
TYPE ASSIGNMENTS      4  4  4  2  3  4  2  3  4  2  3  4  5  6  7  8  9 10  5  6
TYPE ASSIGNMENTS      7  8  9 10  5  6  7  8  9 10 11 12 13 17 14 15 18 19 16 20
TYPE ASSIGNMENTS     11 12 13 17 14 15 18 19 16 20  1  1  1  1  1  1  1  1  1  1
TYPE ASSIGNMENTS      1  1  1  1  1  1  1  1  1  2  2  2  3  3  3  4  4  4  2  3
TYPE ASSIGNMENTS      4  2  3  4  2  3  4  5  6  7  8  9 10  5  6  7  8  9 10  5
TYPE ASSIGNMENTS      6  7  8  9 10 11 12 13 17 14 15 18 19 16 20 11 12 13 17 14
TYPE ASSIGNMENTS     15 18 19 16 20  1  1  1  1  1  1  1  1  1  1  1  1  1  1  1
TYPE ASSIGNMENTS      1  1  1  1  2  2  2  3  3  3  4  4  4  2  3  4  2  3  4  2
TYPE ASSIGNMENTS      3  4  5  6  7  8  9 10  5  6  7  8  9 10  5  6  7  8  9 10
TYPE ASSIGNMENTS     11 12 13 17 14 15 18 19 16 20 11 12 13 17 14 15 18 19 16 20
EXPONENTS  0.1533000D+05 0.2299000D+04 0.5224000D+03 0.1473000D+03 0.4755000D+02
EXPONENTS  0.1676000D+02 0.6207000D+01 0.6882000D+00 0.1533000D+05 0.2299000D+04
EXPONENTS  0.5224000D+03 0.1473000D+03 0.4755000D+02 0.1676000D+02 0.6207000D+01
EXPONENTS  0.6882000D+00 0.1752000D+01 0.2384000D+00 0.7376000D-01 0.3446000D+02
EXPONENTS  0.7749000D+01 0.2280000D+01 0.3446000D+02 0.7749000D+01 0.2280000D+01
EXPONENTS  0.3446000D+02 0.7749000D+01 0.2280000D+01 0.7156000D+00 0.7156000D+00
EXPONENTS  0.7156000D+00 0.2140000D+00 0.2140000D+00 0.2140000D+00 0.5974000D-01
EXPONENTS  0.5974000D-01 0.5974000D-01 0.2314000D+01 0.2314000D+01 0.2314000D+01
EXPONENTS  0.2314000D+01 0.2314000D+01 0.2314000D+01 0.6450000D+00 0.6450000D+00
EXPONENTS  0.6450000D+00 0.6450000D+00 0.6450000D+00 0.6450000D+00 0.2140000D+00
EXPONENTS  0.2140000D+00 0.2140000D+00 0.2140000D+00 0.2140000D+00 0.2140000D+00
EXPONENTS  0.1428000D+01 0.1428000D+01 0.1428000D+01 0.1428000D+01 0.1428000D+01
EXPONENTS  0.1428000D+01 0.1428000D+01 0.1428000D+01 0.1428000D+01 0.1428000D+01
EXPONENTS  0.5000000D+00 0.5000000D+00 0.5000000D+00 0.5000000D+00 0.5000000D+00
EXPONENTS  0.5000000D+00 0.5000000D+00 0.5000000D+00 0.5000000D+00 0.5000000D+00
EXPONENTS  0.1533000D+05 0.2299000D+04 0.5224000D+03 0.1473000D+03 0.4755000D+02
EXPONENTS  0.1676000D+02 0.6207000D+01 0.6882000D+00 0.1533000D+05 0.2299000D+04
EXPONENTS  0.5224000D+03 0.1473000D+03 0.4755000D+02 0.1676000D+02 0.6207000D+01
EXPONENTS  0.6882000D+00 0.1752000D+01 0.2384000D+00 0.7376000D-01 0.3446000D+02
EXPONENTS  0.7749000D+01 0.2280000D+01 0.3446000D+02 0.7749000D+01 0.2280000D+01
EXPONENTS  0.3446000D+02 0.7749000D+01 0.2280000D+01 0.7156000D+00 0.7156000D+00
EXPONENTS  0.7156000D+00 0.2140000D+00 0.2140000D+00 0.2140000D+00 0.5974000D-01
EXPONENTS  0.5974000D-01 0.5974000D-01 0.2314000D+01 0.2314000D+01 0.2314000D+01
EXPONENTS  0.2314000D+01 0.2314000D+01 0.2314000D+01 0.6450000D+00 0.6450000D+00
EXPONENTS  0.6450000D+00 0.6450000D+00 0.6450000D+00 0.6450000D+00 0.2140000D+00
EXPONENTS  0.2140000D+00 0.2140000D+00 0.2140000D+00 0.2140000D+00 0.2140000D+00
EXPONENTS  0.1428000D+01 0.1428000D+01 0.1428000D+01 0.1428000D+01 0.1428000D+01
EXPONENTS  0.1428000D+01 0.1428000D+01 0.1428000D+01 0.1428000D+01 0.1428000D+01
EXPONENTS  0.5000000D+00 0.5000000D+00 0.5000000D+00 0.5000000D+00 0.5000000D+00
EXPONENTS  0.5000000D+00 0.5000000D+00 0.5000000D+00 0.5000000D+00 0.5000000D+00
EXPONENTS  0.1533000D+05 0.2299000D+04 0.5224000D+03 0.1473000D+03 0.4755000D+02
EXPONENTS  0.1676000D+02 0.6207000D+01 0.6882000D+00 0.1533000D+05 0.2299000D+04
EXPONENTS  0.5224000D+03 0.1473000D+03 0.4755000D+02 0.1676000D+02 0.6207000D+01
EXPONENTS  0.6882000D+00 0.1752000D+01 0.2384000D+00 0.7376000D-01 0.3446000D+02
EXPONENTS  0.7749000D+01 0.2280000D+01 0.3446000D+02 0.7749000D+01 0.2280000D+01
EXPONENTS  0.3446000D+02 0.7749000D+01 0.2280000D+01 0.7156000D+00 0.7156000D+00
EXPONENTS  0.7156000D+00 0.2140000D+00 0.2140000D+00 0.2140000D+00 0.5974000D-01
EXPONENTS  0.5974000D-01 0.5974000D-01 0.2314000D+01 0.2314000D+01 0.2314000D+01
EXPONENTS  0.2314000D+01 0.2314000D+01 0.2314000D+01 0.6450000D+00 0.6450000D+00
EXPONENTS  0.6450000D+00 0.6450000D+00 0.6450000D+00 0.6450000D+00 0.2140000D+00
EXPONENTS  0.2140000D+00 0.2140000D+00 0.2140000D+00 0.2140000D+00 0.2140000D+00
EXPONENTS  0.1428000D+01 0.1428000D+01 0.1428000D+01 0.1428000D+01 0.1428000D+01
EXPONENTS  0.1428000D+01 0.1428000D+01 0.1428000D+01 0.1428000D+01 0.1428000D+01
EXPONENTS  0.5000000D+00 0.5000000D+00 0.5000000D+00 0.5000000D+00 0.5000000D+00
EXPONENTS  0.5000000D+00 0.5000000D+00 0.5000000D+00 0.5000000D+00 0.5000000D+00
EXPONENTS  0.1533000D+05 0.2299000D+04 0.5224000D+03 0.1473000D+03 0.4755000D+02
EXPONENTS  0.1676000D+02 0.6207000D+01 0.6882000D+00 0.1533000D+05 0.2299000D+04
EXPONENTS  0.5224000D+03 0.1473000D+03 0.4755000D+02 0.1676000D+02 0.6207000D+01
EXPONENTS  0.6882000D+00 0.1752000D+01 0.2384000D+00 0.7376000D-01 0.3446000D+02
EXPONENTS  0.7749000D+01 0.2280000D+01 0.3446000D+02 0.7749000D+01 0.2280000D+01
EXPONENTS  0.3446000D+02 0.7749000D+01 0.2280000D+01 0.7156000D+00 0.7156000D+00
EXPONENTS  0.7156000D+00 0.2140000D+00 0.2140000D+00 0.2140000D+00 0.5974000D-01
EXPONENTS  0.5974000D-01 0.5974000D-01 0.2314000D+01 0.2314000D+01 0.2314000D+01
EXPONENTS  0.2314000D+01 0.2314000D+01 0.2314000D+01 0.6450000D+00 0.6450000D+00
EXPONENTS  0.6450000D+00 0.6450000D+00 0.6450000D+00 0.6450000D+00 0.2140000D+00
EXPONENTS  0.2140000D+00 0.2140000D+00 0.2140000D+00 0.2140000D+00 0.2140000D+00
EXPONENTS  0.1428000D+01 0.1428000D+01 0.1428000D+01 0.1428000D+01 0.1428000D+01
EXPONENTS  0.1428000D+01 0.1428000D+01 0.1428000D+01 0.1428000D+01 0.1428000D+01
EXPONENTS  0.5000000D+00 0.5000000D+00 0.5000000D+00 0.5000000D+00 0.5000000D+00
EXPONENTS  0.5000000D+00 0.5000000D+00 0.5000000D+00 0.5000000D+00 0.5000000D+00
MO    1     MO 0.0        OCC NO =    2.0000000  ORB. ENERGY =  -19.920876
  0.24884899D+00  0.46382250D+00  0.78648929D+00  0.11903882D+01  0.14852569D+01
  0.12756376D+01  0.48974207D+00 -0.21906463D-02 -0.13269221D-03 -0.24886753D-03
 -0.42426458D-03 -0.66304295D-03 -0.88661476D-03 -0.94669786D-03 -0.57879251D-03
  0.38185214D-03  0.26246894D-01  0.16997040D-03 -0.23288074D-04 -0.56091097D-02
 -0.54389496D-02 -0.36690833D-02  0.17142295D-07  0.16622260D-07  0.11213278D-07
 -0.10151433D-06 -0.98434753D-07 -0.66403503D-07  0.19655108D-03 -0.23625643D-07
  0.35958963D-08  0.84681525D-04 -0.12039960D-07 -0.11122480D-07  0.48865307D-05
 -0.49119919D-09 -0.34950392D-10  0.43977932D-03  0.41697196D-04 -0.48147652D-03
  0.22448789D-07 -0.22706679D-07  0.31107532D-12 -0.14982903D-03  0.70099449D-04
  0.79729582D-04  0.18718817D-07  0.23432196D-08  0.48104885D-12  0.68799426D-05
 -0.35292759D-04  0.28412816D-04  0.18779741D-08  0.47294562D-08  0.61210369D-13
  0.31662065D-03  0.48029569D-08  0.32761906D-08 -0.94190978D-03 -0.25277158D-07
  0.22136964D-07 -0.79521567D-05  0.10868288D-07 -0.31965536D-07 -0.14359843D-11
 -0.99290148D-04 -0.12040556D-08 -0.35551327D-08  0.43138286D-03  0.39394452D-08
 -0.34245403D-08 -0.13351241D-03 -0.32727840D-09  0.14089938D-07  0.85016157D-13
  0.24885237D+00  0.46382881D+00  0.78649997D+00  0.11904043D+01  0.14852771D+01
  0.12756549D+01  0.48974872D+00 -0.21906761D-02 -0.13269595D-03 -0.24887454D-03
 -0.42427654D-03 -0.66306164D-03 -0.88663976D-03 -0.94672455D-03 -0.57880882D-03
  0.38186291D-03  0.26247254D-01  0.16994822D-03 -0.23295641D-04 -0.38668955D-08
 -0.37495879D-08 -0.25294498D-08  0.56091943D-02  0.54390317D-02  0.36691386D-02
  0.10151586D-06  0.98436238D-07  0.66404505D-07  0.53293281D-08 -0.19656048D-03
 -0.35961312D-08  0.27172638D-08 -0.84694234D-04  0.11122313D-07  0.11086006D-09
 -0.48871305D-05  0.34943248D-10  0.41694699D-04  0.43979194D-03 -0.48148664D-03
  0.50633009D-08  0.70152776D-13 -0.22707072D-07  0.70095655D-04 -0.14983295D-03
  0.79737293D-04  0.42228847D-08  0.10852313D-12  0.23429700D-08 -0.35293580D-04
  0.68789783D-05  0.28414602D-04  0.42403776D-09  0.13814718D-13  0.47294001D-08
 -0.10834689D-08 -0.31661821D-03 -0.32760723D-08  0.57019158D-08  0.94190259D-03
  0.31965467D-07 -0.24515092D-08  0.79520324D-05 -0.22137251D-07  0.32390902D-12
  0.27161383D-09  0.99289853D-04  0.35551894D-08 -0.88854752D-09 -0.43138754D-03
 -0.14090068D-07  0.73706034D-10  0.13351798D-03  0.34244999D-08 -0.19168165D-13
  0.24884695D+00  0.46381869D+00  0.78648282D+00  0.11903784D+01  0.14852447D+01
  0.12756271D+01  0.48973805D+00 -0.21906283D-02 -0.13268996D-03 -0.24886332D-03
 -0.42425740D-03 -0.66303173D-03 -0.88659975D-03 -0.94668183D-03 -0.57878271D-03
  0.38184568D-03  0.26246676D-01  0.16998489D-03 -0.23283083D-04  0.56090581D-02
  0.54388995D-02  0.36690495D-02  0.17142417D-07  0.16622378D-07  0.11213358D-07
 -0.10151340D-06 -0.98433849D-07 -0.66402893D-07 -0.19654484D-03 -0.23625743D-07
  0.35957480D-08 -0.84673285D-04 -0.12042094D-07 -0.11122590D-07 -0.48861379D-05
 -0.49128802D-09 -0.34955346D-10  0.43977177D-03  0.41698760D-04 -0.48147053D-03
 -0.22448160D-07  0.22706443D-07  0.31104582D-12 -0.14982653D-03  0.70101760D-04
  0.79724772D-04 -0.18719462D-07 -0.23433808D-08  0.48106361D-12  0.68805943D-05
 -0.35292313D-04  0.28411718D-04 -0.18786072D-08 -0.47294948D-08  0.61225899D-13
 -0.31662203D-03  0.48030598D-08  0.32762649D-08  0.94191432D-03 -0.25277391D-07
  0.22136792D-07  0.79517851D-05  0.10868212D-07 -0.31965587D-07  0.14359719D-11
  0.99290318D-04 -0.12040841D-08 -0.35550977D-08 -0.43138006D-03  0.39393639D-08
 -0.34245689D-08  0.13350911D-03 -0.32711154D-09  0.14089862D-07 -0.84999329D-13
  0.24884331D+00  0.46381191D+00  0.78647132D+00  0.11903610D+01  0.14852229D+01
  0.12756084D+01  0.48973088D+00 -0.21905963D-02 -0.13268600D-03 -0.24885587D-03
 -0.42424471D-03 -0.66301190D-03 -0.88657324D-03 -0.94665353D-03 -0.57876540D-03
  0.38183426D-03  0.26246288D-01  0.17001245D-03 -0.23273515D-04 -0.38667758D-08
 -0.37494718D-08 -0.25293716D-08 -0.56089653D-02 -0.54388096D-02 -0.36689888D-02
  0.10151173D-06  0.98432233D-07  0.66401803D-07  0.53292313D-08  0.19653279D-03
 -0.35954736D-08  0.27151280D-08  0.84657706D-04  0.11122802D-07  0.11077120D-09
  0.48853892D-05  0.34965242D-10  0.41701634D-04  0.43975843D-03 -0.48146007D-03
 -0.50639343D-08  0.70169298D-13  0.22706026D-07  0.70105898D-04 -0.14982187D-03
  0.79715969D-04 -0.42222388D-08  0.10850652D-12 -0.23436847D-08 -0.35291602D-04
  0.68818673D-05  0.28409734D-04 -0.42340364D-09  0.13804717D-13 -0.47295708D-08
 -0.10833662D-08  0.31662436D-03 -0.32764016D-08  0.57016852D-08 -0.94192269D-03
  0.31965694D-07 -0.24515867D-08 -0.79503852D-05 -0.22136489D-07 -0.32392961D-12
  0.27158540D-09 -0.99290605D-04  0.35550344D-08 -0.88863014D-09  0.43137514D-03
 -0.14089730D-07  0.73873947D-10 -0.13350333D-03  0.34246269D-08  0.19178272D-13
MO    2     MO 0.0        OCC NO =    2.0000000  ORB. ENERGY =  -19.920864
 -0.35220327D+00 -0.65646158D+00 -0.11131413D+01 -0.16847912D+01 -0.21021276D+01
 -0.18054472D+01 -0.69314630D+00  0.31004859D-02  0.38675059D-03  0.72536031D-03
  0.12365803D-02  0.19325343D-02  0.25841666D-02  0.27592875D-02  0.16869743D-02
 -0.11129632D-02 -0.37541080D-01  0.24951357D-02  0.85963555D-03  0.88976345D-02
  0.86277125D-02  0.58202039D-02 -0.97994056D-06 -0.95021271D-06 -0.64100788D-06
  0.16047842D-06  0.15561009D-06  0.10497365D-06 -0.10755417D-02  0.13505095D-05
 -0.25550152D-07 -0.14191744D-02  0.68829042D-06 -0.18977906D-07 -0.67653803D-04
  0.28080361D-07 -0.85452554D-09 -0.13018759D-02  0.26944177D-03  0.10324342D-02
 -0.12831934D-05  0.40660099D-07 -0.17780156D-10  0.43050687D-03  0.39794395D-03
 -0.82845081D-03 -0.10700357D-05  0.27766448D-07 -0.27498473D-10  0.11224505D-03
  0.76858760D-04 -0.18910381D-03 -0.10736589D-06  0.66338893D-08 -0.34993677D-11
  0.23897886D-03 -0.27455212D-06  0.12796314D-07 -0.78093967D-03  0.14449172D-05
 -0.29600805D-07  0.64003087D-04 -0.62126087D-06 -0.87881373D-08  0.82084342D-10
 -0.29232316D-04  0.68827753D-07  0.60247876D-08 -0.48156660D-03 -0.22518695D-06
 -0.49348629D-08  0.56926354D-03  0.18703690D-07 -0.13139500D-07 -0.48592311D-11
 -0.25787079D-03 -0.48063797D-03 -0.81500275D-03 -0.12335446D-02 -0.15391035D-02
 -0.13218847D-02 -0.50749723D-03  0.22700662D-05  0.28368893D-06  0.53206563D-06
  0.90705525D-06  0.14175508D-05  0.18955355D-05  0.20239900D-05  0.12374278D-05
 -0.81637971D-06 -0.27485964D-04  0.18256269D-05  0.62845121D-06  0.13320715D-02
  0.12916613D-02  0.87134709D-03 -0.65135563D-05 -0.63159586D-05 -0.42607084D-05
 -0.11749907D-09 -0.11393458D-09 -0.76859592D-10 -0.18357987D-02  0.78552524D-06
  0.18708957D-10 -0.93561835D-03  0.10382163D-05  0.13906809D-10 -0.38170662D-04
  0.49467282D-07  0.62339135D-12  0.19760460D-06 -0.95506667D-06  0.75746207D-06
 -0.17442926D-02 -0.24169238D-07  0.29799890D-10  0.29228512D-06  0.31481958D-06
 -0.60710470D-06 -0.14545399D-02 -0.37379710D-07  0.20328115D-10  0.56651481D-07
  0.81995416D-07 -0.13864690D-06 -0.14594627D-03 -0.47568167D-08  0.48554828D-11
  0.37320901D-03 -0.17695041D-06 -0.93876580D-11 -0.19641305D-02  0.57496041D-06
  0.64828212D-11  0.84450345D-03 -0.44109169D-07  0.21680153D-10 -0.11158036D-06
 -0.93560137D-04  0.21808026D-07 -0.44091736D-11  0.30610509D-03  0.35254280D-06
  0.96214015D-11 -0.25424677D-04 -0.41796688D-06  0.36061194D-11  0.66053407D-08
  0.35220371D+00  0.65646240D+00  0.11131427D+01  0.16847934D+01  0.21021302D+01
  0.18054495D+01  0.69314716D+00 -0.31004898D-02 -0.38675049D-03 -0.72536012D-03
 -0.12365800D-02 -0.19325338D-02 -0.25841659D-02 -0.27592868D-02 -0.16869738D-02
  0.11129629D-02  0.37541123D-01 -0.24951139D-02 -0.85962794D-03  0.88976358D-02
  0.86277138D-02  0.58202047D-02 -0.97994249D-06 -0.95021458D-06 -0.64100914D-06
 -0.16047849D-06 -0.15561015D-06 -0.10497369D-06 -0.10755326D-02  0.13505097D-05
  0.25550019D-07 -0.14191638D-02  0.68828913D-06  0.18977668D-07 -0.67653256D-04
  0.28080305D-07  0.85451465D-09  0.13018757D-02 -0.26944006D-03 -0.10324357D-02
  0.12831926D-05  0.40660140D-07 -0.17780143D-10 -0.43050485D-03 -0.39794221D-03
  0.82844705D-03  0.10700356D-05  0.27766224D-07 -0.27498469D-10 -0.11224381D-03
 -0.76859391D-04  0.18910320D-03  0.10736551D-06  0.66337847D-08 -0.34993576D-11
  0.23897746D-03 -0.27455204D-06 -0.12796224D-07 -0.78092962D-03  0.14449171D-05
  0.29600871D-07  0.63997234D-04 -0.62126099D-06  0.87878007D-08 -0.82084363D-10
 -0.29231766D-04  0.68827717D-07 -0.60247830D-08 -0.48156818D-03 -0.22518692D-06
  0.49347746D-08  0.56926347D-03  0.18703770D-07  0.13139575D-07  0.48592390D-11
  0.26032785D-03  0.48521762D-03  0.82276831D-03  0.12452982D-02  0.15537685D-02
  0.13344799D-02  0.51233280D-03 -0.22916960D-05 -0.28533892D-06 -0.53516021D-06
 -0.91233084D-06 -0.14257955D-05 -0.19065603D-05 -0.20357619D-05 -0.12446249D-05
  0.82112792D-06  0.27748434D-04 -0.18454617D-05 -0.63632890D-06  0.13320715D-02
  0.12916613D-02  0.87134709D-03 -0.65775759D-05 -0.63780360D-05 -0.43025854D-05
  0.11861363D-09  0.11501532D-09  0.77588655D-10 -0.18357987D-02  0.79691762D-06
 -0.18883002D-10 -0.93561835D-03  0.10498137D-05 -0.14015297D-10 -0.38170662D-04
  0.50071666D-07 -0.63386810D-12 -0.19882508D-06  0.96038928D-06 -0.76156420D-06
  0.17442926D-02 -0.24169238D-07  0.30023541D-10 -0.29321038D-06 -0.31858568D-06
  0.61179606D-06  0.14545399D-02 -0.37379710D-07  0.20524621D-10 -0.56431634D-07
 -0.83150330D-07  0.13958196D-06  0.14594627D-03 -0.47568167D-08  0.49049123D-11
  0.37320901D-03 -0.17465926D-06  0.94395544D-11 -0.19641305D-02  0.57403234D-06
 -0.64469595D-11  0.84450345D-03 -0.50054563D-07 -0.21871704D-10  0.11158036D-06
 -0.93560137D-04  0.21201209D-07  0.44551206D-11  0.30610509D-03  0.35598954D-06
 -0.97108609D-11 -0.25424677D-04 -0.41959317D-06 -0.36545008D-11 -0.66053407D-08
MO    3     MO 0.0        OCC NO =    2.0000000  ORB. ENERGY =  -19.920864
  0.26454227D-03  0.49307276D-03  0.83608803D-03  0.12654582D-02  0.15789223D-02
  0.13560837D-02  0.52062690D-03 -0.23287961D-05 -0.28817207D-06 -0.54047386D-06
 -0.92138945D-06 -0.14399524D-05 -0.19254907D-05 -0.20559751D-05 -0.12569829D-05
  0.82928096D-06  0.28198659D-04 -0.18796753D-05 -0.64990958D-06 -0.66874611D-05
 -0.64845877D-05 -0.43744646D-05 -0.13320715D-02 -0.12916613D-02 -0.87134709D-03
 -0.12052688D-09 -0.11687053D-09 -0.78840167D-10  0.81654252D-06  0.18357987D-02
  0.19182748D-10  0.10698021D-05  0.93561835D-03  0.14203306D-10  0.51113319D-07
  0.38170662D-04  0.65193301D-12  0.96952756D-06 -0.20093302D-06 -0.76859454D-06
 -0.17442926D-02 -0.30407664D-10 -0.24169238D-07 -0.32506581D-06 -0.29481188D-06
  0.61987769D-06 -0.14545399D-02 -0.20863570D-10 -0.37379710D-07 -0.85142191D-07
 -0.56049487D-07  0.14119168D-06 -0.14594627D-03 -0.49905347D-11 -0.47568167D-08
 -0.17073686D-06 -0.37320901D-03 -0.95293234D-11  0.57251520D-06  0.19641305D-02
  0.22200026D-10 -0.60304607D-07 -0.84450345D-03  0.63879444D-11  0.11158036D-06
  0.20163709D-07  0.93560137D-04 -0.45340234D-11  0.36189426D-06 -0.30610509D-03
  0.37382110D-11 -0.42238539D-06  0.25424678D-04  0.98638592D-11 -0.66053407D-08
 -0.35220253D+00 -0.65646020D+00 -0.11131390D+01 -0.16847877D+01 -0.21021231D+01
 -0.18054434D+01 -0.69314484D+00  0.31004794D-02  0.38675078D-03  0.72536067D-03
  0.12365809D-02  0.19325353D-02  0.25841679D-02  0.27592889D-02  0.16869751D-02
 -0.11129637D-02 -0.37541007D-01  0.24951733D-02  0.85964867D-03 -0.97994173D-06
 -0.95021384D-06 -0.64100864D-06 -0.88976327D-02 -0.86277107D-02 -0.58202027D-02
 -0.16047831D-06 -0.15560998D-06 -0.10497358D-06  0.13505096D-05  0.10755574D-02
  0.25550380D-07  0.68828906D-06  0.14191927D-02  0.18978316D-07  0.28080303D-07
  0.67654748D-04  0.85454430D-09  0.26944471D-03 -0.13018763D-02  0.10324316D-02
  0.12831931D-05  0.17780168D-10  0.40660030D-07  0.39794694D-03  0.43051036D-03
 -0.82845731D-03  0.10700355D-05  0.27498459D-10  0.27766833D-07  0.76857675D-04
  0.11224718D-03 -0.18910485D-03  0.10736549D-06  0.34993596D-11  0.66340691D-08
 -0.27455205D-06 -0.23898124D-03 -0.12796469D-07  0.14449171D-05  0.78095691D-03
  0.87887146D-08 -0.62126097D-06 -0.64013178D-04  0.29600693D-07  0.82084364D-10
  0.68827724D-07  0.29233255D-04 -0.60247957D-08 -0.22518695D-06  0.48156391D-03
  0.13139372D-07  0.18703781D-07 -0.56926368D-03  0.49350148D-08 -0.48592369D-11
 -0.25365638D-03 -0.47278286D-03 -0.80168307D-03 -0.12133847D-02 -0.15139498D-02
 -0.13002810D-02 -0.49920315D-03  0.22329663D-05  0.28085580D-06  0.52675201D-06
  0.89799670D-06  0.14033940D-05  0.18766052D-05  0.20037769D-05  0.12250699D-05
 -0.80822671D-06 -0.27035741D-04  0.17914134D-05  0.61487056D-06 -0.64036714D-05
 -0.62094072D-05 -0.41888294D-05 -0.13320715D-02 -0.12916613D-02 -0.87134709D-03
  0.11558637D-09  0.11207990D-09  0.75608440D-10  0.76590038D-06  0.18357987D-02
 -0.18409196D-10  0.10182280D-05  0.93561835D-03 -0.13718801D-10  0.48425632D-07
  0.38170662D-04 -0.60532659D-12 -0.94592844D-06  0.19549667D-06  0.75043177D-06
  0.17442926D-02 -0.29416249D-10 -0.24169238D-07  0.30833946D-06  0.29068364D-06
 -0.59902310D-06  0.14545399D-02 -0.19989118D-10 -0.37379710D-07  0.80003560D-07
  0.57033631D-07 -0.13703719D-06  0.14594627D-03 -0.47698548D-11 -0.47568167D-08
 -0.18087282D-06 -0.37320901D-03  0.92978858D-11  0.57647759D-06  0.19641305D-02
 -0.21351827D-10 -0.33859125D-07 -0.84450345D-03 -0.65418302D-11 -0.11158036D-06
  0.22845527D-07  0.93560137D-04  0.43302736D-11  0.34663810D-06 -0.30610509D-03
 -0.35224139D-11 -0.41517468D-06  0.25424677D-04 -0.94684068D-11  0.66053407D-08
  0.35220445D+00  0.65646378D+00  0.11131451D+01  0.16847969D+01  0.21021346D+01
  0.18054533D+01  0.69314862D+00 -0.31004963D-02 -0.38675029D-03 -0.72535976D-03
 -0.12365794D-02 -0.19325329D-02 -0.25841647D-02 -0.27592854D-02 -0.16869730D-02
  0.11129623D-02  0.37541195D-01 -0.24950763D-02 -0.85961483D-03 -0.97994137D-06
 -0.95021350D-06 -0.64100841D-06 -0.88976376D-02 -0.86277155D-02 -0.58202059D-02
  0.16047860D-06  0.15561026D-06  0.10497376D-06  0.13505097D-05  0.10755169D-02
 -0.25549791D-07  0.68829053D-06  0.14191455D-02 -0.18977259D-07  0.28080365D-07
  0.67652312D-04 -0.85449589D-09 -0.26943713D-03  0.13018753D-02 -0.10324382D-02
 -0.12831930D-05  0.17780102D-10  0.40660208D-07 -0.39793921D-03 -0.43050135D-03
  0.82844056D-03 -0.10700359D-05  0.27498493D-10  0.27765838D-07 -0.76860476D-04
 -0.11224168D-03  0.18910216D-03 -0.10736591D-06  0.34993615D-11  0.66336049D-08
 -0.27455213D-06 -0.23897508D-03  0.12796069D-07  0.14449173D-05  0.78091239D-03
 -0.87872233D-08 -0.62126093D-06 -0.63987142D-04 -0.29600984D-07 -0.82084296D-10
  0.68827749D-07  0.29230826D-04  0.60247749D-08 -0.22518693D-06  0.48157086D-03
 -0.13139702D-07  0.18703680D-07 -0.56926334D-03 -0.49346227D-08  0.48592325D-11
MO    4     MO 0.0        OCC NO =    2.0000000  ORB. ENERGY =  -19.920849
 -0.24894739D+00 -0.46400591D+00 -0.78680028D+00 -0.11908589D+01 -0.14858442D+01
 -0.12761420D+01 -0.48993572D+00  0.21915126D-02  0.21671204D-03  0.40644880D-03
  0.69290610D-03  0.10828774D-02  0.14480134D-02  0.15461407D-02  0.94528010D-03
 -0.62363839D-03 -0.27076469D-01  0.51455546D-02  0.19129962D-02  0.77453677D-02
  0.75104013D-02  0.50664723D-02 -0.11988115D-07 -0.11624439D-07 -0.78417778D-08
  0.12928393D-06  0.12536192D-06  0.84568414D-07 -0.25320031D-02  0.16522303D-07
 -0.37827993D-07 -0.27436871D-02  0.84205725D-08 -0.42813422D-07 -0.14230588D-03
  0.34353646D-09 -0.26388144D-08 -0.68219294D-03  0.36157070D-03  0.32062224D-03
 -0.15699210D-07  0.22582037D-07 -0.21754858D-12  0.71490820D-03  0.32951261D-03
 -0.10444208D-02 -0.13090963D-07  0.51925471D-07 -0.33642106D-12  0.29526472D-03
 -0.10511421D-03 -0.19015051D-03 -0.13135094D-08  0.19019709D-07 -0.42811948D-13
 -0.11041232D-03 -0.33589369D-08  0.17537869D-07 -0.11263368D-02  0.17677456D-07
 -0.15468743D-07  0.14575738D-02 -0.76006452D-08 -0.37144863D-07  0.10042372D-11
  0.70324185D-05  0.84205086D-09  0.62358919D-08 -0.23077447D-03 -0.27549807D-08
 -0.16882591D-07  0.20967721D-03  0.22882814D-09 -0.18250845D-08 -0.59447641D-13
  0.24894507D+00  0.46400158D+00  0.78679293D+00  0.11908478D+01  0.14858303D+01
  0.12761301D+01  0.48993115D+00 -0.21914921D-02 -0.21670941D-03 -0.40644388D-03
 -0.69289771D-03 -0.10828642D-02 -0.14479958D-02 -0.15461219D-02 -0.94526864D-03
  0.62363084D-03  0.27076221D-01 -0.51455372D-02 -0.19129902D-02 -0.27042726D-08
 -0.26222347D-08 -0.17689441D-08  0.77453086D-02  0.75103440D-02  0.50664337D-02
  0.12928287D-06  0.12536089D-06  0.84567717D-07  0.37271068D-08 -0.25319957D-02
 -0.37827816D-07  0.18994130D-08 -0.27436772D-02 -0.42813284D-07  0.77491037D-10
 -0.14230541D-03 -0.26388084D-08 -0.36156880D-03  0.68218410D-03 -0.32061529D-03
  0.35415025D-08  0.49071687D-13 -0.22581765D-07 -0.32950980D-03 -0.71490528D-03
  0.10444151D-02  0.29530011D-08  0.75890329D-13 -0.51925276D-07  0.10511472D-03
 -0.29526393D-03  0.19014921D-03  0.29626331D-09  0.96555544D-14 -0.19019661D-07
 -0.75770708D-09 -0.11041415D-03  0.17537778D-07  0.39876993D-08 -0.11263309D-02
 -0.37144785D-07 -0.17145781D-08  0.14575733D-02 -0.15468548D-07  0.22654400D-12
  0.18995062D-09  0.70326742D-05  0.62358518D-08 -0.62149227D-09 -0.23077134D-03
 -0.18250002D-08  0.51640393D-10  0.20967331D-03 -0.16882555D-07 -0.13413263D-13
 -0.24894882D+00 -0.46400858D+00 -0.78680480D+00 -0.11908657D+01 -0.14858527D+01
 -0.12761493D+01 -0.48993854D+00  0.21915251D-02  0.21671361D-03  0.40645175D-03
  0.69291112D-03  0.10828852D-02  0.14480239D-02  0.15461519D-02  0.94528695D-03
 -0.62364291D-03 -0.27076622D-01  0.51455648D-02  0.19129997D-02 -0.77454038D-02
 -0.75104363D-02 -0.50664960D-02 -0.11988143D-07 -0.11624466D-07 -0.78417960D-08
  0.12928458D-06  0.12536256D-06  0.84568840D-07  0.25320075D-02  0.16522350D-07
 -0.37828096D-07  0.27436928D-02  0.84206771D-08 -0.42813499D-07  0.14230615D-03
  0.34353971D-09 -0.26388179D-08 -0.68219823D-03  0.36157180D-03  0.32062643D-03
  0.15699232D-07 -0.22582202D-07 -0.21754450D-12  0.71490995D-03  0.32951423D-03
 -0.10444242D-02  0.13090992D-07 -0.51925584D-07 -0.33641835D-12  0.29526517D-03
 -0.10511389D-03 -0.19015128D-03  0.13135274D-08 -0.19019736D-07 -0.42812481D-13
  0.11041135D-03 -0.33589499D-08  0.17537921D-07  0.11263400D-02  0.17677527D-07
 -0.15468863D-07 -0.14575740D-02 -0.76006771D-08 -0.37144899D-07 -0.10042335D-11
 -0.70322998D-05  0.84205505D-09  0.62359164D-08  0.23077642D-03 -0.27550011D-08
 -0.16882611D-07 -0.20967952D-03  0.22883593D-09 -0.18251378D-08  0.59449793D-13
  0.24895141D+00  0.46401339D+00  0.78681297D+00  0.11908781D+01  0.14858681D+01
  0.12761626D+01  0.48994363D+00 -0.21915479D-02 -0.21671637D-03 -0.40645693D-03
 -0.69291996D-03 -0.10828990D-02 -0.14480423D-02 -0.15461716D-02 -0.94529901D-03
  0.62365087D-03  0.27076897D-01 -0.51455821D-02 -0.19130057D-02 -0.27042575D-08
 -0.26222201D-08 -0.17689342D-08 -0.77454688D-02 -0.75104993D-02 -0.50665384D-02
  0.12928575D-06  0.12536369D-06  0.84569606D-07  0.37270688D-08  0.25320151D-02
 -0.37828276D-07  0.18995496D-08  0.27437028D-02 -0.42813625D-07  0.77495937D-10
  0.14230663D-03 -0.26388238D-08 -0.36157365D-03  0.68220753D-03 -0.32063388D-03
 -0.35414097D-08  0.49060731D-13  0.22582497D-07 -0.32951697D-03 -0.71491303D-03
  0.10444300D-02 -0.29530418D-08  0.75892867D-13  0.51925776D-07  0.10511334D-03
 -0.29526595D-03  0.19015261D-03 -0.29631606D-09  0.96567062D-14  0.19019780D-07
 -0.75770705D-09  0.11040985D-03  0.17538008D-07  0.39876579D-08  0.11263449D-02
 -0.37144943D-07 -0.17145368D-08 -0.14575745D-02 -0.15469081D-07 -0.22655598D-12
  0.18995076D-09 -0.70321480D-05  0.62359603D-08 -0.62146565D-09  0.23078000D-03
 -0.18252368D-08  0.51613367D-10 -0.20968356D-03 -0.16882644D-07  0.13408306D-13
MO    5     MO 0.0        OCC NO =    2.0000000  ORB. ENERGY =   -2.139229
 -0.30464516D-02 -0.56781938D-02 -0.96283353D-02 -0.14572934D-01 -0.18182767D-01
 -0.15616572D-01 -0.59955055D-02  0.26818264D-04 -0.46735232D-01 -0.87653086D-01
 -0.14942930D+00 -0.23352890D+00 -0.31227264D+00 -0.33343438D+00 -0.20385524D+00
  0.13449131D+00  0.71233922D-01  0.20173757D-01 -0.15042706D-03 -0.32041116D+00
 -0.31069105D+00 -0.20959035D+00 -0.78673958D-10 -0.76287275D-10 -0.51462945D-10
 -0.46699162D-05 -0.45282478D-05 -0.30547292D-05 -0.80680293D-01 -0.19442741D-10
 -0.11260405D-05 -0.42265853D-02  0.90171323D-13 -0.31454974D-06  0.80609673D-04
  0.31385130D-14  0.14052980D-08  0.25757484D-01  0.23576828D-02 -0.28115167D-01
  0.26218105D-10  0.12564441D-05  0.56334379D-15  0.96681691D-02 -0.71347304D-03
 -0.89546961D-02  0.73557294D-11  0.69778524D-06  0.11076434D-15  0.36579435D-03
  0.16547106D-04 -0.38234146D-03 -0.17066226D-12  0.14291989D-06 -0.11540910D-16
 -0.16931212D-02  0.98497927D-12  0.19100942D-06 -0.10727923D-01 -0.69009299D-11
 -0.25628037D-06  0.15807287D-01  0.39459921D-11 -0.31674790D-06 -0.43674716D-15
 -0.30750854D-03  0.21009547D-12  0.65817404D-07 -0.15704369D-02 -0.79809516D-12
 -0.20890496D-06  0.24929626D-02  0.16780876D-12  0.11452743D-07 -0.14090009D-16
 -0.30464516D-02 -0.56781938D-02 -0.96283353D-02 -0.14572934D-01 -0.18182767D-01
 -0.15616572D-01 -0.59955055D-02  0.26818264D-04 -0.46735232D-01 -0.87653086D-01
 -0.14942930D+00 -0.23352890D+00 -0.31227264D+00 -0.33343438D+00 -0.20385524D+00
  0.13449131D+00  0.71233922D-01  0.20173757D-01 -0.15042706D-03  0.17751073D-10
  0.17212570D-10  0.11611498D-10  0.32041116D+00  0.31069105D+00  0.20959035D+00
  0.46699162D-05  0.45282478D-05  0.30547292D-05  0.43643014D-11  0.80680293D-01
  0.11260405D-05  0.47106856D-12  0.42265853D-02  0.31454974D-06  0.11583986D-13
 -0.80609673D-04 -0.14052980D-08  0.23576828D-02  0.25757484D-01 -0.28115167D-01
  0.57358052D-11  0.10411978D-15  0.12564441D-05 -0.71347304D-03  0.96681691D-02
 -0.89546961D-02  0.18200458D-11  0.59981670D-16  0.69778524D-06  0.16547106D-04
  0.36579435D-03 -0.38234146D-03  0.11934394D-12 -0.34490984D-17  0.14291989D-06
 -0.24180370D-12  0.16931212D-02 -0.19100942D-06  0.15644231D-11  0.10727923D-01
  0.31674790D-06 -0.83901199D-12 -0.15807287D-01  0.25628037D-06  0.14893522D-15
 -0.37225500D-13  0.30750854D-03 -0.65817404D-07  0.21095266D-12  0.15704370D-02
 -0.11452743D-07 -0.99276158D-13 -0.24929626D-02  0.20890496D-06  0.13816172D-16