 Molden2AIM, Version 4.0.0 (06/02/2016)           Time: Sat Jun 30 02:18:18 2018
GAUSSIAN             17 MOL ORBITALS    370 PRIMITIVES        6 NUCLEI
  P    1    (CENTRE  1)   0.14696211  2.11214500 -0.64584036  CHARGE = 15.0
  P    2    (CENTRE  2)  -0.14696211 -2.11214500 -0.64584036  CHARGE = 15.0
  H    3    (CENTRE  3)   0.55721976  2.52506528  1.99855923  CHARGE =  1.0
  H    4    (CENTRE  4)  -2.52544511  2.50673493 -0.47187406  CHARGE =  1.0
  H    5    (CENTRE  5)  -0.55721976 -2.52506528  1.99855923  CHARGE =  1.0
  H    6    (CENTRE  6)   2.52544511 -2.50673493 -0.47187406  CHARGE =  1.0
CENTRE ASSIGNMENTS    1  1  1  1  1  1  1  1  1  1  1  1  1  1  1  1  1  1  1  1
CENTRE ASSIGNMENTS    1  1  1  1  1  1  1  1  1  1  1  1  1  1  1  1  1  1  1  1
CENTRE ASSIGNMENTS    1  1  1  1  1  1  1  1  1  1  1  1  1  1  1  1  1  1  1  1
CENTRE ASSIGNMENTS    1  1  1  1  1  1  1  1  1  1  1  1  1  1  1  1  1  1  1  1
CENTRE ASSIGNMENTS    1  1  1  1  1  1  1  1  1  1  1  1  1  1  1  1  1  1  1  1
CENTRE ASSIGNMENTS    1  1  1  1  1  1  1  1  1  1  1  1  1  1  1  1  1  1  1  1
CENTRE ASSIGNMENTS    1  1  1  1  1  1  1  1  1  1  1  2  2  2  2  2  2  2  2  2
CENTRE ASSIGNMENTS    2  2  2  2  2  2  2  2  2  2  2  2  2  2  2  2  2  2  2  2
CENTRE ASSIGNMENTS    2  2  2  2  2  2  2  2  2  2  2  2  2  2  2  2  2  2  2  2
CENTRE ASSIGNMENTS    2  2  2  2  2  2  2  2  2  2  2  2  2  2  2  2  2  2  2  2
CENTRE ASSIGNMENTS    2  2  2  2  2  2  2  2  2  2  2  2  2  2  2  2  2  2  2  2
CENTRE ASSIGNMENTS    2  2  2  2  2  2  2  2  2  2  2  2  2  2  2  2  2  2  2  2
CENTRE ASSIGNMENTS    2  2  2  2  2  2  2  2  2  2  2  2  2  2  2  2  2  2  2  2
CENTRE ASSIGNMENTS    2  2  3  3  3  3  3  3  3  3  3  3  3  3  3  3  3  3  3  3
CENTRE ASSIGNMENTS    3  3  3  3  3  3  3  3  3  4  4  4  4  4  4  4  4  4  4  4
CENTRE ASSIGNMENTS    4  4  4  4  4  4  4  4  4  4  4  4  4  4  4  4  5  5  5  5
CENTRE ASSIGNMENTS    5  5  5  5  5  5  5  5  5  5  5  5  5  5  5  5  5  5  5  5
CENTRE ASSIGNMENTS    5  5  5  6  6  6  6  6  6  6  6  6  6  6  6  6  6  6  6  6
CENTRE ASSIGNMENTS    6  6  6  6  6  6  6  6  6  6
TYPE ASSIGNMENTS      1  1  1  1  1  1  1  1  1  1  1  1  1  1  1  1  1  1  1  1
TYPE ASSIGNMENTS      1  1  1  1  1  1  1  1  1  1  1  1  1  1  1  1  1  1  1  1
TYPE ASSIGNMENTS      1  1  2  2  2  2  2  2  2  3  3  3  3  3  3  3  4  4  4  4
TYPE ASSIGNMENTS      4  4  4  2  2  2  2  2  2  2  3  3  3  3  3  3  3  4  4  4
TYPE ASSIGNMENTS      4  4  4  4  2  3  4  2  3  4  2  3  4  5  6  7  8  9 10  5
TYPE ASSIGNMENTS      6  7  8  9 10  5  6  7  8  9 10 11 12 13 17 14 15 18 19 16
TYPE ASSIGNMENTS     20 11 12 13 17 14 15 18 19 16 20  1  1  1  1  1  1  1  1  1
TYPE ASSIGNMENTS      1  1  1  1  1  1  1  1  1  1  1  1  1  1  1  1  1  1  1  1
TYPE ASSIGNMENTS      1  1  1  1  1  1  1  1  1  1  1  1  1  2  2  2  2  2  2  2
TYPE ASSIGNMENTS      3  3  3  3  3  3  3  4  4  4  4  4  4  4  2  2  2  2  2  2
TYPE ASSIGNMENTS      2  3  3  3  3  3  3  3  4  4  4  4  4  4  4  2  3  4  2  3
TYPE ASSIGNMENTS      4  2  3  4  5  6  7  8  9 10  5  6  7  8  9 10  5  6  7  8
TYPE ASSIGNMENTS      9 10 11 12 13 17 14 15 18 19 16 20 11 12 13 17 14 15 18 19
TYPE ASSIGNMENTS     16 20  1  1  1  1  1  1  2  3  4  2  3  4  2  3  4  5  6  7
TYPE ASSIGNMENTS      8  9 10  5  6  7  8  9 10  1  1  1  1  1  1  2  3  4  2  3
TYPE ASSIGNMENTS      4  2  3  4  5  6  7  8  9 10  5  6  7  8  9 10  1  1  1  1
TYPE ASSIGNMENTS      1  1  2  3  4  2  3  4  2  3  4  5  6  7  8  9 10  5  6  7
TYPE ASSIGNMENTS      8  9 10  1  1  1  1  1  1  2  3  4  2  3  4  2  3  4  5  6
TYPE ASSIGNMENTS      7  8  9 10  5  6  7  8  9 10
EXPONENTS  0.3124000D+06 0.4680000D+05 0.1065000D+05 0.3018000D+04 0.9868000D+03
EXPONENTS  0.3574000D+03 0.1396000D+03 0.5763000D+02 0.2460000D+02 0.1012000D+02
EXPONENTS  0.4283000D+01 0.1805000D+01 0.2782000D+00 0.3124000D+06 0.4680000D+05
EXPONENTS  0.1065000D+05 0.3018000D+04 0.9868000D+03 0.3574000D+03 0.1396000D+03
EXPONENTS  0.5763000D+02 0.2460000D+02 0.1012000D+02 0.4283000D+01 0.1805000D+01
EXPONENTS  0.2782000D+00 0.3124000D+06 0.4680000D+05 0.1065000D+05 0.3018000D+04
EXPONENTS  0.9868000D+03 0.3574000D+03 0.1396000D+03 0.5763000D+02 0.2460000D+02
EXPONENTS  0.1012000D+02 0.4283000D+01 0.1805000D+01 0.2782000D+00 0.6158000D+00
EXPONENTS  0.1055000D+00 0.4090000D-01 0.5049000D+03 0.1194000D+03 0.3796000D+02
EXPONENTS  0.1395000D+02 0.5457000D+01 0.2177000D+01 0.2877000D+00 0.5049000D+03
EXPONENTS  0.1194000D+03 0.3796000D+02 0.1395000D+02 0.5457000D+01 0.2177000D+01
EXPONENTS  0.2877000D+00 0.5049000D+03 0.1194000D+03 0.3796000D+02 0.1395000D+02
EXPONENTS  0.5457000D+01 0.2177000D+01 0.2877000D+00 0.5049000D+03 0.1194000D+03
EXPONENTS  0.3796000D+02 0.1395000D+02 0.5457000D+01 0.2177000D+01 0.2877000D+00
EXPONENTS  0.5049000D+03 0.1194000D+03 0.3796000D+02 0.1395000D+02 0.5457000D+01
EXPONENTS  0.2177000D+01 0.2877000D+00 0.5049000D+03 0.1194000D+03 0.3796000D+02
EXPONENTS  0.1395000D+02 0.5457000D+01 0.2177000D+01 0.2877000D+00 0.8010000D+00
EXPONENTS  0.8010000D+00 0.8010000D+00 0.9714000D-01 0.9714000D-01 0.9714000D-01
EXPONENTS  0.3070000D-01 0.3070000D-01 0.3070000D-01 0.2160000D+00 0.2160000D+00
EXPONENTS  0.2160000D+00 0.2160000D+00 0.2160000D+00 0.2160000D+00 0.6520000D+00
EXPONENTS  0.6520000D+00 0.6520000D+00 0.6520000D+00 0.6520000D+00 0.6520000D+00
EXPONENTS  0.7750000D-01 0.7750000D-01 0.7750000D-01 0.7750000D-01 0.7750000D-01
EXPONENTS  0.7750000D-01 0.4520000D+00 0.4520000D+00 0.4520000D+00 0.4520000D+00
EXPONENTS  0.4520000D+00 0.4520000D+00 0.4520000D+00 0.4520000D+00 0.4520000D+00
EXPONENTS  0.4520000D+00 0.1650000D+00 0.1650000D+00 0.1650000D+00 0.1650000D+00
EXPONENTS  0.1650000D+00 0.1650000D+00 0.1650000D+00 0.1650000D+00 0.1650000D+00
EXPONENTS  0.1650000D+00 0.3124000D+06 0.4680000D+05 0.1065000D+05 0.3018000D+04
EXPONENTS  0.9868000D+03 0.3574000D+03 0.1396000D+03 0.5763000D+02 0.2460000D+02
EXPONENTS  0.1012000D+02 0.4283000D+01 0.1805000D+01 0.2782000D+00 0.3124000D+06
EXPONENTS  0.4680000D+05 0.1065000D+05 0.3018000D+04 0.9868000D+03 0.3574000D+03
EXPONENTS  0.1396000D+03 0.5763000D+02 0.2460000D+02 0.1012000D+02 0.4283000D+01
EXPONENTS  0.1805000D+01 0.2782000D+00 0.3124000D+06 0.4680000D+05 0.1065000D+05
EXPONENTS  0.3018000D+04 0.9868000D+03 0.3574000D+03 0.1396000D+03 0.5763000D+02
EXPONENTS  0.2460000D+02 0.1012000D+02 0.4283000D+01 0.1805000D+01 0.2782000D+00
EXPONENTS  0.6158000D+00 0.1055000D+00 0.4090000D-01 0.5049000D+03 0.1194000D+03
EXPONENTS  0.3796000D+02 0.1395000D+02 0.5457000D+01 0.2177000D+01 0.2877000D+00
EXPONENTS  0.5049000D+03 0.1194000D+03 0.3796000D+02 0.1395000D+02 0.5457000D+01
EXPONENTS  0.2177000D+01 0.2877000D+00 0.5049000D+03 0.1194000D+03 0.3796000D+02
EXPONENTS  0.1395000D+02 0.5457000D+01 0.2177000D+01 0.2877000D+00 0.5049000D+03
EXPONENTS  0.1194000D+03 0.3796000D+02 0.1395000D+02 0.5457000D+01 0.2177000D+01
EXPONENTS  0.2877000D+00 0.5049000D+03 0.1194000D+03 0.3796000D+02 0.1395000D+02
EXPONENTS  0.5457000D+01 0.2177000D+01 0.2877000D+00 0.5049000D+03 0.1194000D+03
EXPONENTS  0.3796000D+02 0.1395000D+02 0.5457000D+01 0.2177000D+01 0.2877000D+00
EXPONENTS  0.8010000D+00 0.8010000D+00 0.8010000D+00 0.9714000D-01 0.9714000D-01
EXPONENTS  0.9714000D-01 0.3070000D-01 0.3070000D-01 0.3070000D-01 0.2160000D+00
EXPONENTS  0.2160000D+00 0.2160000D+00 0.2160000D+00 0.2160000D+00 0.2160000D+00
EXPONENTS  0.6520000D+00 0.6520000D+00 0.6520000D+00 0.6520000D+00 0.6520000D+00
EXPONENTS  0.6520000D+00 0.7750000D-01 0.7750000D-01 0.7750000D-01 0.7750000D-01
EXPONENTS  0.7750000D-01 0.7750000D-01 0.4520000D+00 0.4520000D+00 0.4520000D+00
EXPONENTS  0.4520000D+00 0.4520000D+00 0.4520000D+00 0.4520000D+00 0.4520000D+00
EXPONENTS  0.4520000D+00 0.4520000D+00 0.1650000D+00 0.1650000D+00 0.1650000D+00
EXPONENTS  0.1650000D+00 0.1650000D+00 0.1650000D+00 0.1650000D+00 0.1650000D+00
EXPONENTS  0.1650000D+00 0.1650000D+00 0.3387000D+02 0.5095000D+01 0.1159000D+01
EXPONENTS  0.3258000D+00 0.1027000D+00 0.2526000D-01 0.1407000D+01 0.1407000D+01
EXPONENTS  0.1407000D+01 0.3880000D+00 0.3880000D+00 0.3880000D+00 0.1020000D+00
EXPONENTS  0.1020000D+00 0.1020000D+00 0.1057000D+01 0.1057000D+01 0.1057000D+01
EXPONENTS  0.1057000D+01 0.1057000D+01 0.1057000D+01 0.2470000D+00 0.2470000D+00
EXPONENTS  0.2470000D+00 0.2470000D+00 0.2470000D+00 0.2470000D+00 0.3387000D+02
EXPONENTS  0.5095000D+01 0.1159000D+01 0.3258000D+00 0.1027000D+00 0.2526000D-01
EXPONENTS  0.1407000D+01 0.1407000D+01 0.1407000D+01 0.3880000D+00 0.3880000D+00
EXPONENTS  0.3880000D+00 0.1020000D+00 0.1020000D+00 0.1020000D+00 0.1057000D+01
EXPONENTS  0.1057000D+01 0.1057000D+01 0.1057000D+01 0.1057000D+01 0.1057000D+01
EXPONENTS  0.2470000D+00 0.2470000D+00 0.2470000D+00 0.2470000D+00 0.2470000D+00
EXPONENTS  0.2470000D+00 0.3387000D+02 0.5095000D+01 0.1159000D+01 0.3258000D+00
EXPONENTS  0.1027000D+00 0.2526000D-01 0.1407000D+01 0.1407000D+01 0.1407000D+01
EXPONENTS  0.3880000D+00 0.3880000D+00 0.3880000D+00 0.1020000D+00 0.1020000D+00
EXPONENTS  0.1020000D+00 0.1057000D+01 0.1057000D+01 0.1057000D+01 0.1057000D+01
EXPONENTS  0.1057000D+01 0.1057000D+01 0.2470000D+00 0.2470000D+00 0.2470000D+00
EXPONENTS  0.2470000D+00 0.2470000D+00 0.2470000D+00 0.3387000D+02 0.5095000D+01
EXPONENTS  0.1159000D+01 0.3258000D+00 0.1027000D+00 0.2526000D-01 0.1407000D+01
EXPONENTS  0.1407000D+01 0.1407000D+01 0.3880000D+00 0.3880000D+00 0.3880000D+00
EXPONENTS  0.1020000D+00 0.1020000D+00 0.1020000D+00 0.1057000D+01 0.1057000D+01
EXPONENTS  0.1057000D+01 0.1057000D+01 0.1057000D+01 0.1057000D+01 0.2470000D+00
EXPONENTS  0.2470000D+00 0.2470000D+00 0.2470000D+00 0.2470000D+00 0.2470000D+00
MO    1     MO 0.0        OCC NO =    2.0000000  ORB. ENERGY =  -76.775989
  0.38504435D+00  0.72041217D+00  0.12439391D+01  0.20117672D+01  0.30363538D+01
  0.41598987D+01  0.48073039D+01  0.40399384D+01  0.17745180D+01  0.20282448D+00
 -0.27335960D-02  0.17002203D-02  0.83633804D-04 -0.15405067D-02 -0.28813564D-02
 -0.49889129D-02 -0.81008284D-02 -0.12440979D-01 -0.17693929D-01 -0.22512682D-01
 -0.23331064D-01 -0.15569379D-01  0.15333853D-02  0.11712565D-01  0.60139229D-02
 -0.26379839D-04  0.72120824D-03  0.13477370D-02  0.23370238D-02  0.37897340D-02
  0.58414699D-02  0.83120926D-02  0.10703461D-01  0.11252034D-01  0.78880207D-02
 -0.91586980D-03 -0.74145480D-02 -0.69780971D-02  0.34029335D-02 -0.25681661D-02
 -0.22621587D-02 -0.47304605D-03 -0.69764503D-02 -0.91265284D-02 -0.99847419D-02
 -0.82246588D-02 -0.43975374D-02 -0.12150823D-02  0.99594834D-06  0.25552273D-02
  0.33427249D-02  0.36570582D-02  0.30124020D-02  0.16106626D-02  0.44504170D-03
 -0.36478069D-06  0.91258748D-02  0.11938386D-01  0.13061013D-01  0.10758653D-01
  0.57524062D-02  0.15894457D-02 -0.13027972D-05  0.60362258D-02  0.79944150D-02
  0.88316811D-02  0.75643618D-02  0.41266456D-02  0.12684227D-02 -0.55222681D-03
 -0.24287551D-02 -0.32166583D-02 -0.35535434D-02 -0.30436207D-02 -0.16604103D-02
 -0.51036659D-03  0.22219574D-03 -0.78980127D-02 -0.10460177D-01 -0.11555686D-01
 -0.98974801D-02 -0.53994499D-02 -0.16596493D-02  0.72255321D-03  0.21817609D-03
 -0.89349536D-04 -0.28977738D-03  0.25279849D-03  0.60999299D-03 -0.31979352D-03
  0.41706647D-05  0.25292680D-04 -0.36010074D-05  0.92533255D-04 -0.17819202D-03
  0.85658761D-04 -0.27507718D-04 -0.34835906D-05  0.30785902D-04  0.89882184D-04
 -0.16293805D-03  0.73055867D-04 -0.11213529D-03  0.91768016D-04  0.11188280D-03
  0.11693363D-04 -0.17311198D-04  0.56178350D-05 -0.93956644D-05  0.11853326D-04
  0.13619604D-04 -0.95508341D-04 -0.45341583D-04  0.61147924D-04  0.94709516D-04
  0.72830238D-04 -0.74180277D-04  0.19181551D-03  0.63194509D-04 -0.10926349D-03
  0.84233176D-05  0.90996968D-05  0.16281423D-04 -0.73308105D-05 -0.68415050D-05
 -0.26911557D-04  0.13347777D-04 -0.20457585D-04 -0.21932712D-04  0.86446545D-05
 -0.72141951D-05 -0.38504412D+00 -0.72041173D+00 -0.12439383D+01 -0.20117660D+01
 -0.30363520D+01 -0.41598962D+01 -0.48073009D+01 -0.40399360D+01 -0.17745169D+01
 -0.20282435D+00  0.27335943D-02 -0.17002193D-02 -0.83633753D-04  0.15405058D-02
  0.28813548D-02  0.49889101D-02  0.81008238D-02  0.12440972D-01  0.17693919D-01
  0.22512670D-01  0.23331051D-01  0.15569370D-01 -0.15333844D-02 -0.11712559D-01
 -0.60139195D-02  0.26379824D-04 -0.72120784D-03 -0.13477363D-02 -0.23370225D-02
 -0.37897320D-02 -0.58414667D-02 -0.83120880D-02 -0.10703455D-01 -0.11252028D-01
 -0.78880164D-02  0.91586929D-03  0.74145439D-02  0.69780933D-02 -0.34029316D-02
  0.25681644D-02  0.22621584D-02  0.47304600D-03 -0.69764453D-02 -0.91265219D-02
 -0.99847348D-02 -0.82246530D-02 -0.43975343D-02 -0.12150814D-02  0.99594764D-06
  0.25552287D-02  0.33427268D-02  0.36570603D-02  0.30124037D-02  0.16106635D-02
  0.44504196D-03 -0.36478090D-06 -0.91258686D-02 -0.11938378D-01 -0.13061004D-01
 -0.10758646D-01 -0.57524023D-02 -0.15894446D-02  0.13027963D-05  0.60362216D-02
  0.79944094D-02  0.88316748D-02  0.75643564D-02  0.41266427D-02  0.12684218D-02
 -0.55222642D-03 -0.24287562D-02 -0.32166599D-02 -0.35535451D-02 -0.30436222D-02
 -0.16604111D-02 -0.51036683D-03  0.22219585D-03  0.78980073D-02  0.10460170D-01
  0.11555678D-01  0.98974734D-02  0.53994463D-02  0.16596482D-02 -0.72255272D-03
  0.21817590D-03 -0.89349584D-04  0.28977714D-03  0.25279842D-03  0.60999294D-03
  0.31979345D-03  0.41706633D-05  0.25292679D-04  0.36010060D-05 -0.92533210D-04
  0.17819193D-03 -0.85658717D-04  0.27507680D-04 -0.34835992D-05  0.30785890D-04
 -0.89882151D-04  0.16293800D-03 -0.73055848D-04  0.11213525D-03  0.91767962D-04
  0.11188271D-03 -0.11693363D-04  0.17311196D-04 -0.56178335D-05  0.93956617D-05
  0.11853324D-04  0.13619605D-04 -0.95508268D-04 -0.45341560D-04 -0.61147875D-04
  0.94709442D-04  0.72830202D-04  0.74180217D-04  0.19181536D-03  0.63194477D-04
  0.10926341D-03 -0.84233067D-05  0.90996969D-05  0.16281413D-04  0.73308110D-05
 -0.68415129D-05 -0.26911544D-04 -0.13347774D-04 -0.20457578D-04 -0.21932694D-04
 -0.86446595D-05  0.72141925D-05  0.25076513D-04  0.45226525D-04  0.66686484D-04
 -0.23694645D-03  0.37181453D-03 -0.55391018D-05 -0.23821639D-04 -0.36752327D-04
 -0.13112196D-03  0.10892132D-03  0.97387024D-04  0.63609203D-03 -0.44624268D-04
 -0.17193947D-04  0.21107627D-04  0.11196291D-03  0.19287673D-03 -0.30483964D-03
 -0.74104401D-04 -0.13102685D-03 -0.97992758D-04  0.64500463D-04  0.44947412D-04
 -0.10944788D-03  0.15318384D-04 -0.55877065D-04 -0.77003360D-04  0.27457555D-04
  0.49520832D-04  0.73018437D-04 -0.27525890D-03  0.39461200D-03  0.16565996D-05
  0.13462867D-03 -0.36387511D-04  0.78162901D-05 -0.65398645D-03  0.99283714D-04
  0.17263991D-04 -0.15271925D-05 -0.24165721D-04  0.25158215D-04 -0.31251256D-03
  0.17961985D-03  0.13289270D-03  0.10191334D-03  0.53172479D-04 -0.92631013D-07
 -0.11421390D-03  0.47526876D-04  0.66687021D-04  0.71766642D-04  0.14675648D-04
 -0.12859182D-04 -0.25076483D-04 -0.45226469D-04 -0.66686402D-04  0.23694607D-03
 -0.37181443D-03  0.55391047D-05 -0.23821620D-04 -0.36752336D-04  0.13112190D-03
  0.10892124D-03  0.97386928D-04 -0.63609158D-03 -0.44624266D-04 -0.17193945D-04
 -0.21107616D-04 -0.11196281D-03 -0.19287664D-03  0.30483946D-03  0.74104396D-04
 -0.13102675D-03 -0.97992595D-04 -0.64500445D-04 -0.44947368D-04  0.10944781D-03
 -0.15318393D-04 -0.55877038D-04 -0.77003330D-04 -0.27457525D-04 -0.49520776D-04
 -0.73018356D-04  0.27525851D-03 -0.39461188D-03 -0.16565962D-05  0.13462860D-03
 -0.36387548D-04 -0.78162966D-05 -0.65398599D-03  0.99283653D-04 -0.17263964D-04
 -0.15271812D-05 -0.24165713D-04 -0.25158205D-04  0.31251236D-03 -0.17961975D-03
 -0.13289261D-03 -0.10191321D-03  0.53172443D-04 -0.92626511D-07  0.11421383D-03
 -0.47526829D-04 -0.66687003D-04 -0.71766617D-04  0.14675636D-04 -0.12859176D-04
MO    2     MO 0.0        OCC NO =    2.0000000  ORB. ENERGY =  -76.775984
  0.38498389D+00  0.72029905D+00  0.12437437D+01  0.20114513D+01  0.30358771D+01
  0.41592455D+01  0.48065490D+01  0.40393041D+01  0.17742393D+01  0.20279263D+00
 -0.27331668D-02  0.16999533D-02  0.83620672D-04 -0.14242362D-02 -0.26638847D-02
 -0.46123725D-02 -0.74894147D-02 -0.11501991D-01 -0.16358472D-01 -0.20813528D-01
 -0.21570142D-01 -0.14394273D-01  0.14176524D-02  0.10828554D-01  0.55600194D-02
 -0.24388809D-04  0.65435366D-03  0.12228045D-02  0.21203863D-02  0.34384332D-02
  0.52999772D-02  0.75415780D-02  0.97112711D-02  0.10208993D-01  0.71568168D-02
 -0.83097047D-03 -0.67272340D-02 -0.63312413D-02  0.30874883D-02 -0.27341302D-02
 -0.44380971D-03 -0.80818028D-04 -0.81163128D-02 -0.10617686D-01 -0.11616121D-01
 -0.95684627D-02 -0.51160387D-02 -0.14136111D-02  0.11586735D-05 -0.23789535D-02
 -0.31121252D-02 -0.34047740D-02 -0.28045898D-02 -0.14995501D-02 -0.41434026D-03
  0.33961610D-06  0.10211958D-01  0.13359190D-01  0.14615422D-01  0.12039055D-01
  0.64370080D-02  0.17786078D-02 -0.14578449D-05  0.69973878D-02  0.92673840D-02
  0.10237970D-01  0.87688523D-02  0.47837408D-02  0.14703965D-02 -0.64015915D-03
  0.19034985D-02  0.25210052D-02  0.27850336D-02  0.23853898D-02  0.13013204D-02
  0.39999176D-03 -0.17414241D-03 -0.87858840D-02 -0.11636079D-01 -0.12854742D-01
 -0.11010126D-01 -0.60064402D-02 -0.18462222D-02  0.80378051D-03  0.30571813D-03
  0.80241303D-04 -0.40040928D-03  0.11858806D-03  0.90052587D-04 -0.11705098D-03
  0.23857140D-05  0.18825075D-05 -0.22883201D-05  0.74682482D-04 -0.14662155D-03
  0.71939072D-04 -0.62927608D-04  0.14202086D-04  0.18953016D-04  0.53752418D-04
 -0.84908121D-04  0.31155703D-04 -0.71918214D-04  0.89347176D-04  0.15587468D-03
  0.39827385D-06 -0.29355511D-05  0.25372772D-05 -0.44720274D-05  0.26931946D-05
 -0.15714872D-05 -0.11937355D-03 -0.37651378D-04  0.79883862D-04  0.12171232D-03
  0.59876201D-04 -0.99216751D-04  0.23640831D-03  0.53077934D-04 -0.14043483D-03
  0.17914582D-04 -0.15788219D-06  0.16967923D-04  0.83978413D-06  0.12945319D-04
 -0.21320509D-04  0.56655692D-05 -0.12471673D-04 -0.29583261D-04 -0.81849215D-05
 -0.42587229D-05  0.38498413D+00  0.72029949D+00  0.12437445D+01  0.20114526D+01
  0.30358789D+01  0.41592480D+01  0.48065520D+01  0.40393065D+01  0.17742404D+01
  0.20279275D+00 -0.27331684D-02  0.16999544D-02  0.83620723D-04 -0.14242372D-02
 -0.26638865D-02 -0.46123755D-02 -0.74894197D-02 -0.11501999D-01 -0.16358482D-01
 -0.20813541D-01 -0.21570156D-01 -0.14394282D-01  0.14176533D-02  0.10828561D-01
  0.55600231D-02 -0.24388825D-04  0.65435410D-03  0.12228053D-02  0.21203877D-02
  0.34384355D-02  0.52999807D-02  0.75415830D-02  0.97112777D-02  0.10208999D-01
  0.71568216D-02 -0.83097103D-03 -0.67272385D-02 -0.63312455D-02  0.30874903D-02
 -0.27341318D-02 -0.44381109D-03 -0.80818316D-04  0.81163171D-02  0.10617692D-01
  0.11616127D-01  0.95684677D-02  0.51160413D-02  0.14136119D-02 -0.11586741D-05
  0.23789519D-02  0.31121232D-02  0.34047718D-02  0.28045879D-02  0.14995492D-02
  0.41433998D-03 -0.33961587D-06  0.10211963D-01  0.13359197D-01  0.14615429D-01
  0.12039061D-01  0.64370115D-02  0.17786087D-02 -0.14578457D-05 -0.69973915D-02
 -0.92673888D-02 -0.10237975D-01 -0.87688569D-02 -0.47837433D-02 -0.14703973D-02
  0.64015948D-03 -0.19034970D-02 -0.25210033D-02 -0.27850314D-02 -0.23853879D-02
 -0.13013194D-02 -0.39999145D-03  0.17414227D-03 -0.87858888D-02 -0.11636086D-01
 -0.12854749D-01 -0.11010132D-01 -0.60064435D-02 -0.18462232D-02  0.80378095D-03
 -0.30571827D-03 -0.80241249D-04 -0.40040945D-03 -0.11858822D-03 -0.90052959D-04
 -0.11705118D-03 -0.23857166D-05 -0.18825229D-05 -0.22883223D-05  0.74682539D-04
 -0.14662166D-03  0.71939124D-04 -0.62927625D-04 -0.14202084D-04 -0.18953034D-04
  0.53752472D-04 -0.84908220D-04  0.31155748D-04 -0.71918283D-04 -0.89347232D-04
 -0.15587475D-03  0.39828097D-06 -0.29355616D-05  0.25372806D-05 -0.44720331D-05
 -0.26932018D-05  0.15714789D-05  0.11937360D-03  0.37651406D-04  0.79883899D-04
 -0.12171238D-03 -0.59876245D-04 -0.99216796D-04 -0.23640843D-03 -0.53077973D-04
 -0.14043490D-03  0.17914587D-04  0.15787664D-06 -0.16967933D-04  0.83977966D-06
 -0.12945315D-04  0.21320525D-04  0.56655773D-05  0.12471685D-04  0.29583274D-04
 -0.81849163D-05 -0.42587273D-05  0.50691825D-04  0.91424793D-04  0.13480580D-03
 -0.62483087D-03  0.16375077D-03  0.47100839D-05 -0.31716699D-04  0.14482641D-04
 -0.10130554D-03  0.13454403D-03  0.15729335D-03  0.73645354D-03 -0.26579113D-05
 -0.25243050D-05  0.18497581D-04  0.15396582D-03  0.14822842D-03 -0.30219424D-03
 -0.88623956D-05 -0.16250191D-03 -0.26713967D-03  0.28919391D-04  0.73594665D-04
 -0.10251406D-03 -0.15529793D-04 -0.44101177D-04 -0.50528076D-04  0.50279931D-04
  0.90681926D-04  0.13371045D-03 -0.64923067D-03  0.18932151D-03  0.55473927D-05
  0.10143305D-03  0.60905440D-04 -0.10754065D-04 -0.75213019D-03  0.10116331D-03
  0.44013842D-04 -0.18628510D-04 -0.14095328D-04  0.17162074D-04 -0.31861879D-03
  0.16270423D-03  0.15591455D-03  0.21272570D-03  0.59107515D-04 -0.73885191D-05
 -0.10812639D-03  0.78311176D-04  0.29815210D-04  0.41213037D-04  0.19283506D-04
 -0.94065637D-05  0.50691840D-04  0.91424821D-04  0.13480584D-03 -0.62483102D-03
  0.16375100D-03  0.47100806D-05  0.31716714D-04 -0.14482619D-04 -0.10130562D-03
 -0.13454410D-03 -0.15729341D-03  0.73645393D-03  0.26579385D-05  0.25243155D-05
  0.18497593D-04  0.15396589D-03  0.14822854D-03 -0.30219442D-03 -0.88624407D-05
  0.16250199D-03  0.26713973D-03  0.28919430D-04  0.73594692D-04 -0.10251412D-03
 -0.15529783D-04  0.44101211D-04  0.50528123D-04  0.50279948D-04  0.90681957D-04
  0.13371049D-03 -0.64923083D-03  0.18932175D-03  0.55473938D-05 -0.10143313D-03
 -0.60905418D-04 -0.10754060D-04  0.75213059D-03 -0.10116337D-03  0.44013853D-04
  0.18628511D-04  0.14095342D-04  0.17162090D-04 -0.31861898D-03  0.16270434D-03
  0.15591464D-03  0.21272576D-03 -0.59107547D-04  0.73885192D-05 -0.10812646D-03
  0.78311205D-04  0.29815251D-04  0.41213081D-04 -0.19283515D-04  0.94065715D-05
MO    3     MO 0.0        OCC NO =    2.0000000  ORB. ENERGY =   -6.490997
 -0.16545052D-02 -0.30955542D-02 -0.53451080D-02 -0.86444049D-02 -0.13046973D-01
 -0.17874756D-01 -0.20656605D-01 -0.17359297D-01 -0.76249636D-02 -0.87152077D-03
  0.11746046D-04 -0.73057125D-05 -0.35936785D-06 -0.10195809D+00 -0.19070192D+00
 -0.33019007D+00 -0.53615149D+00 -0.82340341D+00 -0.11710687D+01 -0.14899968D+01
 -0.15441612D+01 -0.10304558D+01  0.10148676D+00  0.77519347D+00  0.39803013D+00
 -0.17459437D-02 -0.68070897D-03 -0.12720552D-02 -0.22057888D-02 -0.35769225D-02
 -0.55134436D-02 -0.78453290D-02 -0.10102411D-01 -0.10620179D-01 -0.74450709D-02
  0.86443935D-03  0.69981859D-02  0.65862438D-02 -0.32118426D-02  0.28106466D-01
  0.98107568D-03  0.88325785D-04 -0.16858279D-01 -0.22053846D-01 -0.24127681D-01
 -0.19874519D-01 -0.10626452D-01 -0.29361918D-02  0.24066645D-05 -0.19711733D-01
 -0.25786709D-01 -0.28211563D-01 -0.23238506D-01 -0.12425099D-01 -0.34331753D-02
  0.28140196D-05  0.21367237D-01  0.27952423D-01  0.30580931D-01  0.25190208D-01
  0.13468629D-01  0.37215130D-02 -0.30503570D-05 -0.77845187D-02 -0.10309865D-01
 -0.11389631D-01 -0.97552540D-02 -0.53218602D-02 -0.16358003D-02  0.71217017D-03
 -0.25533754D-02 -0.33817063D-02 -0.37358770D-02 -0.31997900D-02 -0.17456065D-02
 -0.53655368D-03  0.23359669D-03  0.95414702D-02  0.12636783D-01  0.13960250D-01
  0.11956997D-01  0.65229942D-02  0.20049974D-02 -0.87290566D-03 -0.88440596D-03
 -0.64999606D-03  0.10947921D-02 -0.19576601D-03 -0.69724938D-04  0.18341010D-03
 -0.34342106D-05 -0.84278684D-06  0.21477205D-05 -0.59183316D-04  0.12329531D-03
 -0.64111999D-04  0.37619813D-04  0.22142051D-04 -0.22919436D-04 -0.73639892D-04
  0.16009620D-03 -0.86456306D-04  0.14211165D-04  0.54556049D-04 -0.16630064D-04
  0.24684405D-05 -0.13802638D-05 -0.10881766D-05  0.63120695D-05 -0.49475489D-05
  0.59513817D-06  0.68780977D-04  0.10066730D-04 -0.49587304D-04 -0.73225183D-04
 -0.55556136D-05  0.51298280D-04 -0.13311775D-03 -0.24644577D-04  0.97463631D-04
  0.30486928D-04  0.18521922D-06 -0.15615831D-04 -0.11882110D-05 -0.13115543D-04
  0.22729393D-04 -0.65562274D-05  0.12559886D-04  0.24118100D-04  0.10120861D-04
  0.72054863D-05 -0.16545052D-02 -0.30955542D-02 -0.53451079D-02 -0.86444048D-02
 -0.13046972D-01 -0.17874756D-01 -0.20656605D-01 -0.17359296D-01 -0.76249635D-02
 -0.87152075D-03  0.11746046D-04 -0.73057124D-05 -0.35936785D-06 -0.10195808D+00
 -0.19070192D+00 -0.33019007D+00 -0.53615148D+00 -0.82340339D+00 -0.11710686D+01
 -0.14899968D+01 -0.15441612D+01 -0.10304558D+01  0.10148676D+00  0.77519346D+00
  0.39803012D+00 -0.17459436D-02 -0.68070895D-03 -0.12720552D-02 -0.22057887D-02
 -0.35769224D-02 -0.55134435D-02 -0.78453289D-02 -0.10102410D-01 -0.10620178D-01
 -0.74450707D-02  0.86443933D-03  0.69981857D-02  0.65862436D-02 -0.32118425D-02
  0.28106465D-01  0.98107562D-03  0.88325775D-04  0.16858279D-01  0.22053846D-01
  0.24127680D-01  0.19874519D-01  0.10626452D-01  0.29361917D-02 -0.24066644D-05
  0.19711732D-01  0.25786708D-01  0.28211562D-01  0.23238505D-01  0.12425098D-01
  0.34331752D-02 -0.28140195D-05  0.21367236D-01  0.27952423D-01  0.30580930D-01
  0.25190207D-01  0.13468629D-01  0.37215129D-02 -0.30503569D-05  0.77845186D-02
  0.10309865D-01  0.11389631D-01  0.97552538D-02  0.53218601D-02  0.16358003D-02
 -0.71217016D-03  0.25533754D-02  0.33817063D-02  0.37358770D-02  0.31997901D-02
  0.17456066D-02  0.53655369D-03 -0.23359669D-03  0.95414701D-02  0.12636782D-01
  0.13960250D-01  0.11956997D-01  0.65229941D-02  0.20049974D-02 -0.87290564D-03
  0.88440594D-03  0.64999605D-03  0.10947921D-02  0.19576600D-03  0.69724924D-04
  0.18341009D-03  0.34342106D-05  0.84278622D-06  0.21477204D-05 -0.59183314D-04
  0.12329531D-03 -0.64111997D-04  0.37619812D-04 -0.22142051D-04  0.22919436D-04
 -0.73639891D-04  0.16009619D-03 -0.86456304D-04  0.14211164D-04 -0.54556048D-04
  0.16630064D-04  0.24684408D-05 -0.13802643D-05 -0.10881765D-05  0.63120692D-05
  0.49475486D-05 -0.59513851D-06 -0.68780976D-04 -0.10066730D-04 -0.49587303D-04
  0.73225181D-04  0.55556135D-05  0.51298279D-04  0.13311775D-03  0.24644578D-04
  0.97463630D-04  0.30486927D-04 -0.18521935D-06  0.15615831D-04 -0.11882111D-05
  0.13115543D-04 -0.22729393D-04 -0.65562272D-05 -0.12559885D-04 -0.24118100D-04
  0.10120861D-04  0.72054861D-05 -0.40653866D-04 -0.73320921D-04 -0.10811166D-03
  0.59558162D-03 -0.34513960D-03 -0.49980376D-05  0.48232083D-04 -0.16434441D-04
  0.18380191D-03 -0.17186361D-03 -0.12995003D-03 -0.69744972D-03  0.88121513D-05
  0.14808785D-04  0.15617564D-04 -0.16419063D-03 -0.18066554D-03  0.34485617D-03
  0.17424902D-04  0.26840908D-03  0.27289767D-03 -0.23159045D-04 -0.71947056D-04
  0.95106102D-04  0.19244218D-04  0.60638396D-04  0.50766822D-04 -0.42504348D-04
 -0.76658342D-04 -0.11303268D-03  0.60425277D-03 -0.39265359D-03 -0.75840640D-05
 -0.19676091D-03  0.31831862D-05  0.53501724D-05  0.72346275D-03 -0.13467726D-03
  0.93822618D-05 -0.16716852D-04  0.13509845D-04 -0.15341567D-04  0.38047636D-03
 -0.18969330D-03 -0.19078306D-03 -0.24610531D-03  0.18050508D-04 -0.69527888D-05
  0.10268682D-03 -0.68403163D-04 -0.34283656D-04 -0.57440652D-04  0.23257297D-05
  0.15606774D-04 -0.40653866D-04 -0.73320921D-04 -0.10811165D-03  0.59558161D-03
 -0.34513959D-03 -0.49980379D-05 -0.48232082D-04  0.16434442D-04  0.18380191D-03
  0.17186361D-03  0.12995002D-03 -0.69744971D-03 -0.88121504D-05 -0.14808784D-04
  0.15617564D-04 -0.16419063D-03 -0.18066553D-03  0.34485616D-03  0.17424901D-04
 -0.26840907D-03 -0.27289766D-03 -0.23159044D-04 -0.71947056D-04  0.95106100D-04
  0.19244219D-04 -0.60638395D-04 -0.50766820D-04 -0.42504348D-04 -0.76658341D-04
 -0.11303268D-03  0.60425276D-03 -0.39265358D-03 -0.75840641D-05  0.19676090D-03
 -0.31831860D-05  0.53501725D-05 -0.72346274D-03  0.13467726D-03  0.93822614D-05
  0.16716851D-04 -0.13509845D-04 -0.15341566D-04  0.38047636D-03 -0.18969330D-03
 -0.19078306D-03 -0.24610530D-03 -0.18050508D-04  0.69527888D-05  0.10268682D-03
 -0.68403162D-04 -0.34283655D-04 -0.57440651D-04 -0.23257296D-05 -0.15606773D-04
MO    4     MO 0.0        OCC NO =    2.0000000  ORB. ENERGY =   -6.490954
  0.17059920D-02  0.31918853D-02  0.55114432D-02  0.89134115D-02  0.13452984D-01
  0.18431004D-01  0.21299421D-01  0.17899503D-01  0.78622461D-02  0.89864176D-03
 -0.12111573D-04  0.75330601D-05  0.37055108D-06  0.10185851D+00  0.19051568D+00
  0.32986760D+00  0.53562788D+00  0.82259926D+00  0.11699250D+01  0.14885416D+01
  0.15426532D+01  0.10294494D+01 -0.10138764D+00 -0.77443640D+00 -0.39764141D+00
  0.17442385D-02  0.74183232D-03  0.13862777D-02  0.24038546D-02  0.38981074D-02
  0.60085159D-02  0.85497899D-02  0.11009543D-01  0.11573803D-01  0.81135911D-02
 -0.94206053D-03 -0.76265787D-02 -0.71776468D-02  0.35002457D-02 -0.27956529D-01
 -0.26090725D-02 -0.46460935D-03  0.17933519D-01  0.23460465D-01  0.25666571D-01
  0.21142138D-01  0.11304219D-01  0.31234653D-02 -0.25601642D-05  0.23798909D-01
  0.31133515D-01  0.34061157D-01  0.28056949D-01  0.15001410D-01  0.41450353D-02
 -0.33974992D-05 -0.22077200D-01 -0.28881191D-01 -0.31597035D-01 -0.26027196D-01
 -0.13916148D-01 -0.38451667D-02  0.31517104D-05  0.68723060D-02  0.91017248D-02
  0.10054961D-01  0.86121047D-02  0.46982290D-02  0.14441124D-02 -0.62871598D-03
 -0.10342534D-02 -0.13697716D-02 -0.15132297D-02 -0.12960858D-02 -0.70706386D-03
 -0.21733289D-03  0.94619131D-04 -0.89415693D-02 -0.11842270D-01 -0.13082527D-01
 -0.11205224D-01 -0.61128740D-02 -0.18789372D-02  0.81802346D-03  0.80633121D-03
  0.46071655D-03 -0.10312211D-02  0.25900715D-03  0.64457197D-03 -0.36132309D-03
  0.37902599D-05  0.25087058D-04 -0.47085121D-05  0.93901008D-04 -0.17690767D-03
  0.83006664D-04 -0.35063512D-04 -0.30212924D-04  0.41006172D-05  0.63938740D-04
 -0.15821740D-03  0.94278663D-04 -0.23372370D-04 -0.55132895D-04 -0.77684116D-05
  0.14620202D-04 -0.18377953D-04  0.37577511D-05 -0.14127686D-04  0.13495633D-04
  0.16429766D-04 -0.58572266D-04  0.24119526D-05  0.31983072D-04  0.76468961D-04
  0.87551428D-05 -0.38579688D-04  0.99247836D-04 -0.15991001D-04 -0.57369528D-04
 -0.44578036D-04  0.65411303D-05  0.13616728D-04 -0.64827857D-05 -0.27372162D-05