 Molden2AIM, Version 4.0.0 (06/02/2016)           Time: Sat Jun 30 04:17:41 2018
GAUSSIAN             34 MOL ORBITALS    525 PRIMITIVES        3 NUCLEI
  Se   1    (CENTRE  1)   0.00000000  0.00000000  1.21074186  CHARGE = 34.0
  Cl   2    (CENTRE  2)   0.00000000  3.17372700 -1.38119893  CHARGE = 17.0
  Cl   3    (CENTRE  3)   0.00000000 -3.17372700 -1.38119893  CHARGE = 17.0
CENTRE ASSIGNMENTS    1  1  1  1  1  1  1  1  1  1  1  1  1  1  1  1  1  1  1  1
CENTRE ASSIGNMENTS    1  1  1  1  1  1  1  1  1  1  1  1  1  1  1  1  1  1  1  1
CENTRE ASSIGNMENTS    1  1  1  1  1  1  1  1  1  1  1  1  1  1  1  1  1  1  1  1
CENTRE ASSIGNMENTS    1  1  1  1  1  1  1  1  1  1  1  1  1  1  1  1  1  1  1  1
CENTRE ASSIGNMENTS    1  1  1  1  1  1  1  1  1  1  1  1  1  1  1  1  1  1  1  1
CENTRE ASSIGNMENTS    1  1  1  1  1  1  1  1  1  1  1  1  1  1  1  1  1  1  1  1
CENTRE ASSIGNMENTS    1  1  1  1  1  1  1  1  1  1  1  1  1  1  1  1  1  1  1  1
CENTRE ASSIGNMENTS    1  1  1  1  1  1  1  1  1  1  1  1  1  1  1  1  1  1  1  1
CENTRE ASSIGNMENTS    1  1  1  1  1  1  1  1  1  1  1  1  1  1  1  1  1  1  1  1
CENTRE ASSIGNMENTS    1  1  1  1  1  1  1  1  1  1  1  1  1  1  1  1  1  1  1  1
CENTRE ASSIGNMENTS    1  1  1  1  1  1  1  1  1  1  1  1  1  1  1  1  1  1  1  1
CENTRE ASSIGNMENTS    1  1  1  1  1  1  1  1  1  1  1  1  1  1  1  1  1  1  1  1
CENTRE ASSIGNMENTS    1  1  1  1  1  1  1  1  1  1  1  1  1  1  1  1  1  1  1  1
CENTRE ASSIGNMENTS    1  1  1  2  2  2  2  2  2  2  2  2  2  2  2  2  2  2  2  2
CENTRE ASSIGNMENTS    2  2  2  2  2  2  2  2  2  2  2  2  2  2  2  2  2  2  2  2
CENTRE ASSIGNMENTS    2  2  2  2  2  2  2  2  2  2  2  2  2  2  2  2  2  2  2  2
CENTRE ASSIGNMENTS    2  2  2  2  2  2  2  2  2  2  2  2  2  2  2  2  2  2  2  2
CENTRE ASSIGNMENTS    2  2  2  2  2  2  2  2  2  2  2  2  2  2  2  2  2  2  2  2
CENTRE ASSIGNMENTS    2  2  2  2  2  2  2  2  2  2  2  2  2  2  2  2  2  2  2  2
CENTRE ASSIGNMENTS    2  2  2  2  2  2  2  2  2  2  2  2  2  2  3  3  3  3  3  3
CENTRE ASSIGNMENTS    3  3  3  3  3  3  3  3  3  3  3  3  3  3  3  3  3  3  3  3
CENTRE ASSIGNMENTS    3  3  3  3  3  3  3  3  3  3  3  3  3  3  3  3  3  3  3  3
CENTRE ASSIGNMENTS    3  3  3  3  3  3  3  3  3  3  3  3  3  3  3  3  3  3  3  3
CENTRE ASSIGNMENTS    3  3  3  3  3  3  3  3  3  3  3  3  3  3  3  3  3  3  3  3
CENTRE ASSIGNMENTS    3  3  3  3  3  3  3  3  3  3  3  3  3  3  3  3  3  3  3  3
CENTRE ASSIGNMENTS    3  3  3  3  3  3  3  3  3  3  3  3  3  3  3  3  3  3  3  3
CENTRE ASSIGNMENTS    3  3  3  3  3
TYPE ASSIGNMENTS      1  1  1  1  1  1  1  1  1  1  1  1  1  1  1  1  1  1  1  1
TYPE ASSIGNMENTS      1  1  1  1  1  1  1  1  1  1  1  1  1  1  1  1  1  1  1  1
TYPE ASSIGNMENTS      1  1  1  1  1  1  1  1  1  1  1  1  1  1  1  1  1  1  1  1
TYPE ASSIGNMENTS      1  1  1  1  1  1  1  1  1  1  1  1  1  1  1  2  2  2  2  2
TYPE ASSIGNMENTS      2  2  2  2  2  2  3  3  3  3  3  3  3  3  3  3  3  4  4  4
TYPE ASSIGNMENTS      4  4  4  4  4  4  4  4  2  2  2  2  2  2  2  2  2  2  2  3
TYPE ASSIGNMENTS      3  3  3  3  3  3  3  3  3  3  4  4  4  4  4  4  4  4  4  4
TYPE ASSIGNMENTS      4  2  2  2  2  2  2  2  2  2  2  2  3  3  3  3  3  3  3  3
TYPE ASSIGNMENTS      3  3  3  4  4  4  4  4  4  4  4  4  4  4  2  3  4  2  3  4
TYPE ASSIGNMENTS      2  3  4  5  5  5  5  5  5  5  6  6  6  6  6  6  6  7  7  7
TYPE ASSIGNMENTS      7  7  7  7  8  8  8  8  8  8  8  9  9  9  9  9  9  9 10 10
TYPE ASSIGNMENTS     10 10 10 10 10  5  6  7  8  9 10  5  6  7  8  9 10  5  6  7
TYPE ASSIGNMENTS      8  9 10 11 12 13 17 14 15 18 19 16 20 11 12 13 17 14 15 18
TYPE ASSIGNMENTS     19 16 20  1  1  1  1  1  1  1  1  1  1  1  1  1  1  1  1  1
TYPE ASSIGNMENTS      1  1  1  1  1  1  1  1  1  1  1  1  1  1  1  1  1  1  1  1
TYPE ASSIGNMENTS      1  1  1  1  1  2  2  2  2  2  2  2  3  3  3  3  3  3  3  4
TYPE ASSIGNMENTS      4  4  4  4  4  4  2  2  2  2  2  2  2  3  3  3  3  3  3  3
TYPE ASSIGNMENTS      4  4  4  4  4  4  4  2  3  4  2  3  4  2  3  4  5  6  7  8
TYPE ASSIGNMENTS      9 10  5  6  7  8  9 10  5  6  7  8  9 10 11 12 13 17 14 15
TYPE ASSIGNMENTS     18 19 16 20 11 12 13 17 14 15 18 19 16 20  1  1  1  1  1  1
TYPE ASSIGNMENTS      1  1  1  1  1  1  1  1  1  1  1  1  1  1  1  1  1  1  1  1
TYPE ASSIGNMENTS      1  1  1  1  1  1  1  1  1  1  1  1  1  1  1  1  2  2  2  2
TYPE ASSIGNMENTS      2  2  2  3  3  3  3  3  3  3  4  4  4  4  4  4  4  2  2  2
TYPE ASSIGNMENTS      2  2  2  2  3  3  3  3  3  3  3  4  4  4  4  4  4  4  2  3
TYPE ASSIGNMENTS      4  2  3  4  2  3  4  5  6  7  8  9 10  5  6  7  8  9 10  5
TYPE ASSIGNMENTS      6  7  8  9 10 11 12 13 17 14 15 18 19 16 20 11 12 13 17 14
TYPE ASSIGNMENTS     15 18 19 16 20
EXPONENTS  0.9563600D+07 0.1432100D+07 0.3259100D+06 0.9231200D+05 0.3011600D+05
EXPONENTS  0.1087200D+05 0.4240100D+04 0.1758400D+04 0.7665900D+03 0.3484300D+03
EXPONENTS  0.1640300D+03 0.7914200D+02 0.3552400D+02 0.1730500D+02 0.8378400D+01
EXPONENTS  0.3740500D+01 0.1689000D+01 0.2552000D+00 0.9563600D+07 0.1432100D+07
EXPONENTS  0.3259100D+06 0.9231200D+05 0.3011600D+05 0.1087200D+05 0.4240100D+04
EXPONENTS  0.1758400D+04 0.7665900D+03 0.3484300D+03 0.1640300D+03 0.7914200D+02
EXPONENTS  0.3552400D+02 0.1730500D+02 0.8378400D+01 0.3740500D+01 0.1689000D+01
EXPONENTS  0.2552000D+00 0.9563600D+07 0.1432100D+07 0.3259100D+06 0.9231200D+05
EXPONENTS  0.3011600D+05 0.1087200D+05 0.4240100D+04 0.1758400D+04 0.7665900D+03
EXPONENTS  0.3484300D+03 0.1640300D+03 0.7914200D+02 0.3552400D+02 0.1730500D+02
EXPONENTS  0.8378400D+01 0.3740500D+01 0.1689000D+01 0.2552000D+00 0.9563600D+07
EXPONENTS  0.1432100D+07 0.3259100D+06 0.9231200D+05 0.3011600D+05 0.1087200D+05
EXPONENTS  0.4240100D+04 0.1758400D+04 0.7665900D+03 0.3484300D+03 0.1640300D+03
EXPONENTS  0.7914200D+02 0.3552400D+02 0.1730500D+02 0.8378400D+01 0.3740500D+01
EXPONENTS  0.1689000D+01 0.2552000D+00 0.5092700D+00 0.1065100D+00 0.3920100D-01
EXPONENTS  0.8004300D+04 0.1896900D+04 0.6147100D+03 0.2335000D+03 0.9785600D+02
EXPONENTS  0.4351400D+02 0.2006300D+02 0.9112700D+01 0.4106300D+01 0.1794900D+01
EXPONENTS  0.2461500D+00 0.8004300D+04 0.1896900D+04 0.6147100D+03 0.2335000D+03
EXPONENTS  0.9785600D+02 0.4351400D+02 0.2006300D+02 0.9112700D+01 0.4106300D+01
EXPONENTS  0.1794900D+01 0.2461500D+00 0.8004300D+04 0.1896900D+04 0.6147100D+03
EXPONENTS  0.2335000D+03 0.9785600D+02 0.4351400D+02 0.2006300D+02 0.9112700D+01
EXPONENTS  0.4106300D+01 0.1794900D+01 0.2461500D+00 0.8004300D+04 0.1896900D+04
EXPONENTS  0.6147100D+03 0.2335000D+03 0.9785600D+02 0.4351400D+02 0.2006300D+02
EXPONENTS  0.9112700D+01 0.4106300D+01 0.1794900D+01 0.2461500D+00 0.8004300D+04
EXPONENTS  0.1896900D+04 0.6147100D+03 0.2335000D+03 0.9785600D+02 0.4351400D+02
EXPONENTS  0.2006300D+02 0.9112700D+01 0.4106300D+01 0.1794900D+01 0.2461500D+00
EXPONENTS  0.8004300D+04 0.1896900D+04 0.6147100D+03 0.2335000D+03 0.9785600D+02
EXPONENTS  0.4351400D+02 0.2006300D+02 0.9112700D+01 0.4106300D+01 0.1794900D+01
EXPONENTS  0.2461500D+00 0.8004300D+04 0.1896900D+04 0.6147100D+03 0.2335000D+03
EXPONENTS  0.9785600D+02 0.4351400D+02 0.2006300D+02 0.9112700D+01 0.4106300D+01
EXPONENTS  0.1794900D+01 0.2461500D+00 0.8004300D+04 0.1896900D+04 0.6147100D+03
EXPONENTS  0.2335000D+03 0.9785600D+02 0.4351400D+02 0.2006300D+02 0.9112700D+01
EXPONENTS  0.4106300D+01 0.1794900D+01 0.2461500D+00 0.8004300D+04 0.1896900D+04
EXPONENTS  0.6147100D+03 0.2335000D+03 0.9785600D+02 0.4351400D+02 0.2006300D+02
EXPONENTS  0.9112700D+01 0.4106300D+01 0.1794900D+01 0.2461500D+00 0.6243200D+00
EXPONENTS  0.6243200D+00 0.6243200D+00 0.8891700D-01 0.8891700D-01 0.8891700D-01
EXPONENTS  0.3025100D-01 0.3025100D-01 0.3025100D-01 0.3618500D+03 0.1085500D+03
EXPONENTS  0.4143300D+02 0.1757900D+02 0.7862700D+01 0.3518000D+01 0.1534800D+01
EXPONENTS  0.3618500D+03 0.1085500D+03 0.4143300D+02 0.1757900D+02 0.7862700D+01
EXPONENTS  0.3518000D+01 0.1534800D+01 0.3618500D+03 0.1085500D+03 0.4143300D+02
EXPONENTS  0.1757900D+02 0.7862700D+01 0.3518000D+01 0.1534800D+01 0.3618500D+03
EXPONENTS  0.1085500D+03 0.4143300D+02 0.1757900D+02 0.7862700D+01 0.3518000D+01
EXPONENTS  0.1534800D+01 0.3618500D+03 0.1085500D+03 0.4143300D+02 0.1757900D+02
EXPONENTS  0.7862700D+01 0.3518000D+01 0.1534800D+01 0.3618500D+03 0.1085500D+03
EXPONENTS  0.4143300D+02 0.1757900D+02 0.7862700D+01 0.3518000D+01 0.1534800D+01
EXPONENTS  0.6081300D+00 0.6081300D+00 0.6081300D+00 0.6081300D+00 0.6081300D+00
EXPONENTS  0.6081300D+00 0.2220000D+00 0.2220000D+00 0.2220000D+00 0.2220000D+00
EXPONENTS  0.2220000D+00 0.2220000D+00 0.8370000D-01 0.8370000D-01 0.8370000D-01
EXPONENTS  0.8370000D-01 0.8370000D-01 0.8370000D-01 0.4620000D+00 0.4620000D+00
EXPONENTS  0.4620000D+00 0.4620000D+00 0.4620000D+00 0.4620000D+00 0.4620000D+00
EXPONENTS  0.4620000D+00 0.4620000D+00 0.4620000D+00 0.1880000D+00 0.1880000D+00
EXPONENTS  0.1880000D+00 0.1880000D+00 0.1880000D+00 0.1880000D+00 0.1880000D+00
EXPONENTS  0.1880000D+00 0.1880000D+00 0.1880000D+00 0.4561000D+06 0.6833000D+05
EXPONENTS  0.1555000D+05 0.4405000D+04 0.1439000D+04 0.5204000D+03 0.2031000D+03
EXPONENTS  0.8396000D+02 0.3620000D+02 0.1583000D+02 0.6334000D+01 0.2694000D+01
EXPONENTS  0.4313000D+00 0.4561000D+06 0.6833000D+05 0.1555000D+05 0.4405000D+04
EXPONENTS  0.1439000D+04 0.5204000D+03 0.2031000D+03 0.8396000D+02 0.3620000D+02
EXPONENTS  0.1583000D+02 0.6334000D+01 0.2694000D+01 0.4313000D+00 0.4561000D+06
EXPONENTS  0.6833000D+05 0.1555000D+05 0.4405000D+04 0.1439000D+04 0.5204000D+03
EXPONENTS  0.2031000D+03 0.8396000D+02 0.3620000D+02 0.1583000D+02 0.6334000D+01
EXPONENTS  0.2694000D+01 0.4313000D+00 0.9768000D+00 0.1625000D+00 0.5910000D-01
EXPONENTS  0.6633000D+03 0.1568000D+03 0.4998000D+02 0.1842000D+02 0.7240000D+01
EXPONENTS  0.2922000D+01 0.3818000D+00 0.6633000D+03 0.1568000D+03 0.4998000D+02
EXPONENTS  0.1842000D+02 0.7240000D+01 0.2922000D+01 0.3818000D+00 0.6633000D+03
EXPONENTS  0.1568000D+03 0.4998000D+02 0.1842000D+02 0.7240000D+01 0.2922000D+01
EXPONENTS  0.3818000D+00 0.6633000D+03 0.1568000D+03 0.4998000D+02 0.1842000D+02
EXPONENTS  0.7240000D+01 0.2922000D+01 0.3818000D+00 0.6633000D+03 0.1568000D+03
EXPONENTS  0.4998000D+02 0.1842000D+02 0.7240000D+01 0.2922000D+01 0.3818000D+00
EXPONENTS  0.6633000D+03 0.1568000D+03 0.4998000D+02 0.1842000D+02 0.7240000D+01
EXPONENTS  0.2922000D+01 0.3818000D+00 0.1022000D+01 0.1022000D+01 0.1022000D+01
EXPONENTS  0.1301000D+00 0.1301000D+00 0.1301000D+00 0.4190000D-01 0.4190000D-01
EXPONENTS  0.4190000D-01 0.1046000D+01 0.1046000D+01 0.1046000D+01 0.1046000D+01
EXPONENTS  0.1046000D+01 0.1046000D+01 0.3440000D+00 0.3440000D+00 0.3440000D+00
EXPONENTS  0.3440000D+00 0.3440000D+00 0.3440000D+00 0.1350000D+00 0.1350000D+00
EXPONENTS  0.1350000D+00 0.1350000D+00 0.1350000D+00 0.1350000D+00 0.7060000D+00
EXPONENTS  0.7060000D+00 0.7060000D+00 0.7060000D+00 0.7060000D+00 0.7060000D+00
EXPONENTS  0.7060000D+00 0.7060000D+00 0.7060000D+00 0.7060000D+00 0.3120000D+00
EXPONENTS  0.3120000D+00 0.3120000D+00 0.3120000D+00 0.3120000D+00 0.3120000D+00
EXPONENTS  0.3120000D+00 0.3120000D+00 0.3120000D+00 0.3120000D+00 0.4561000D+06
EXPONENTS  0.6833000D+05 0.1555000D+05 0.4405000D+04 0.1439000D+04 0.5204000D+03
EXPONENTS  0.2031000D+03 0.8396000D+02 0.3620000D+02 0.1583000D+02 0.6334000D+01
EXPONENTS  0.2694000D+01 0.4313000D+00 0.4561000D+06 0.6833000D+05 0.1555000D+05
EXPONENTS  0.4405000D+04 0.1439000D+04 0.5204000D+03 0.2031000D+03 0.8396000D+02
EXPONENTS  0.3620000D+02 0.1583000D+02 0.6334000D+01 0.2694000D+01 0.4313000D+00
EXPONENTS  0.4561000D+06 0.6833000D+05 0.1555000D+05 0.4405000D+04 0.1439000D+04
EXPONENTS  0.5204000D+03 0.2031000D+03 0.8396000D+02 0.3620000D+02 0.1583000D+02
EXPONENTS  0.6334000D+01 0.2694000D+01 0.4313000D+00 0.9768000D+00 0.1625000D+00
EXPONENTS  0.5910000D-01 0.6633000D+03 0.1568000D+03 0.4998000D+02 0.1842000D+02
EXPONENTS  0.7240000D+01 0.2922000D+01 0.3818000D+00 0.6633000D+03 0.1568000D+03
EXPONENTS  0.4998000D+02 0.1842000D+02 0.7240000D+01 0.2922000D+01 0.3818000D+00
EXPONENTS  0.6633000D+03 0.1568000D+03 0.4998000D+02 0.1842000D+02 0.7240000D+01
EXPONENTS  0.2922000D+01 0.3818000D+00 0.6633000D+03 0.1568000D+03 0.4998000D+02
EXPONENTS  0.1842000D+02 0.7240000D+01 0.2922000D+01 0.3818000D+00 0.6633000D+03
EXPONENTS  0.1568000D+03 0.4998000D+02 0.1842000D+02 0.7240000D+01 0.2922000D+01
EXPONENTS  0.3818000D+00 0.6633000D+03 0.1568000D+03 0.4998000D+02 0.1842000D+02
EXPONENTS  0.7240000D+01 0.2922000D+01 0.3818000D+00 0.1022000D+01 0.1022000D+01
EXPONENTS  0.1022000D+01 0.1301000D+00 0.1301000D+00 0.1301000D+00 0.4190000D-01
EXPONENTS  0.4190000D-01 0.4190000D-01 0.1046000D+01 0.1046000D+01 0.1046000D+01
EXPONENTS  0.1046000D+01 0.1046000D+01 0.1046000D+01 0.3440000D+00 0.3440000D+00
EXPONENTS  0.3440000D+00 0.3440000D+00 0.3440000D+00 0.3440000D+00 0.1350000D+00
EXPONENTS  0.1350000D+00 0.1350000D+00 0.1350000D+00 0.1350000D+00 0.1350000D+00
EXPONENTS  0.7060000D+00 0.7060000D+00 0.7060000D+00 0.7060000D+00 0.7060000D+00
EXPONENTS  0.7060000D+00 0.7060000D+00 0.7060000D+00 0.7060000D+00 0.7060000D+00
EXPONENTS  0.3120000D+00 0.3120000D+00 0.3120000D+00 0.3120000D+00 0.3120000D+00
EXPONENTS  0.3120000D+00 0.3120000D+00 0.3120000D+00 0.3120000D+00 0.3120000D+00
MO    1     MO 0.0        OCC NO =    2.0000000  ORB. ENERGY = -453.385361
  0.77214319D+00  0.14427136D+01  0.25022059D+01  0.40992526D+01  0.64191040D+01
  0.96397824D+01  0.13749090D+02  0.18165333D+02  0.20949094D+02  0.18854857D+02
  0.10578043D+02  0.25572986D+01  0.12140786D+00 -0.20776534D-02  0.58435437D-03
 -0.22772197D-03  0.21539898D-04  0.21238793D-05  0.49612551D-04  0.91362284D-04
  0.15858197D-03  0.25972756D-03  0.40879923D-03  0.61702832D-03  0.89944755D-03
  0.12351304D-02  0.15685999D-02  0.16892826D-02  0.13476779D-02  0.30186911D-03
 -0.80719120D-03 -0.71781449D-03 -0.14019208D-03 -0.38836091D-05 -0.28123776D-06
 -0.57436445D-08 -0.10960808D-03 -0.19788724D-03 -0.34448400D-03 -0.56410709D-03
 -0.88934695D-03 -0.13420001D-02 -0.19641170D-02 -0.27062951D-02 -0.34864332D-02
 -0.38374666D-02 -0.32305246D-02 -0.76930351D-03  0.25913100D-02  0.34625334D-02
  0.42537931D-03 -0.14863331D-02 -0.65611937D-03  0.32562024D-05  0.35881328D-04
  0.77736498D-04  0.13233620D-03  0.21601944D-03  0.34056392D-03  0.51393009D-03
  0.75218029D-03  0.10375856D-02  0.13383769D-02  0.14795971D-02  0.12531090D-02
  0.30438851D-03 -0.10560488D-02 -0.14904918D-02 -0.17783620D-03  0.83578921D-03
  0.66809255D-03 -0.25310506D-03  0.24278303D-03  0.11414935D-03  0.18108708D-04
  0.17597483D-16  0.25221274D-16  0.33305660D-16  0.38283177D-16  0.35218129D-16
  0.22530002D-16  0.77985076D-17  0.87673873D-18  0.11154254D-19  0.19328394D-20
  0.19751515D-22  0.30472402D-15  0.43674019D-15  0.57673218D-15  0.66292457D-15
  0.60984916D-15  0.39013722D-15  0.13504162D-15  0.15181907D-16  0.19315087D-18
  0.33469708D-19  0.34202399D-21 -0.80596906D-04 -0.11551406D-03 -0.15254075D-03
 -0.17533790D-03 -0.16129990D-03 -0.10318797D-03 -0.35717358D-04 -0.40154851D-05
 -0.51086758D-07 -0.88524524D-08 -0.90462430D-10  0.39555261D-17  0.57055348D-17
  0.75990341D-17  0.89931773D-17  0.86421057D-17  0.59401853D-17  0.18702362D-17
 -0.90386827D-18 -0.92758763D-18 -0.23360099D-18  0.25469097D-21 -0.13521799D-14
 -0.19504130D-14 -0.25976977D-14 -0.30742797D-14 -0.29542673D-14 -0.20306273D-14
 -0.63933235D-15  0.30898355D-15  0.31709192D-15  0.79855512D-16 -0.87065033D-19
 -0.11364337D-02 -0.16392160D-02 -0.21832236D-02 -0.25837649D-02 -0.24829010D-02
 -0.17066318D-02 -0.53732406D-03  0.25968387D-03  0.26649851D-03  0.67114215D-04
 -0.73173424D-07 -0.13523515D-17 -0.19604864D-17 -0.26020554D-17 -0.31053042D-17
 -0.29834601D-17 -0.20882630D-17 -0.63053247D-18  0.38597994D-18  0.41511453D-18
  0.11163788D-18 -0.41614958D-19  0.97613234D-15  0.14150864D-14  0.18781732D-14
  0.22414201D-14  0.21534726D-14  0.15073160D-14  0.45512068D-15 -0.27860175D-15
 -0.29963121D-15 -0.80580632D-16  0.30037831D-16  0.80948070D-03  0.11734936D-02
  0.15575193D-02  0.18587503D-02  0.17858178D-02  0.12499772D-02  0.37741952D-03
 -0.23103705D-03 -0.24847622D-03 -0.66823384D-04  0.24909578D-04  0.10251338D-18
 -0.23419156D-16 -0.13773026D-04  0.46961686D-20  0.25368503D-16 -0.29055679D-04
 -0.78705830D-21  0.10373530D-17 -0.72183888D-06 -0.30476727D-03 -0.31546325D-03
 -0.26393777D-03 -0.17031481D-03 -0.76507740D-04 -0.22339022D-04 -0.37687299D-05
  0.23504780D-03  0.24329694D-03  0.20355858D-03  0.13135308D-03  0.59005601D-04
  0.17228681D-04  0.29065840D-05  0.69719469D-04  0.72166313D-04  0.60379190D-04
  0.38961723D-04  0.17502139D-04  0.51103412D-05  0.86214588D-06  0.18302779D-17
  0.18945125D-17  0.15850766D-17  0.10228245D-17  0.45946674D-18  0.13415685D-18
  0.22633083D-19  0.51798665D-18  0.53616567D-18  0.44859226D-18  0.28946939D-18
  0.13003361D-18  0.37967709D-19  0.64053852D-20 -0.66375222D-16 -0.68704697D-16
 -0.57482970D-16 -0.37092839D-16 -0.16662610D-16 -0.48652125D-17 -0.82079116D-18
  0.14760792D-04 -0.11602507D-04 -0.31582855D-05 -0.88006259D-20 -0.12065022D-19
  0.83943304D-17 -0.32567240D-05  0.25876901D-05  0.66903386D-06  0.11987079D-20
  0.77376093D-20 -0.22088762D-16 -0.26635993D-05  0.14116129D-05  0.12519864D-05
 -0.49587998D-22 -0.12741231D-21 -0.43964897D-17  0.14326587D-20  0.20144303D-19
 -0.22095647D-05 -0.23512301D-20 -0.30007999D-17 -0.13060861D-04 -0.19467461D-20
  0.29403670D-17  0.19689555D-04  0.43517072D-23  0.47153704D-21 -0.24544600D-18
  0.64053025D-06 -0.10963404D-20 -0.13255779D-17  0.40340481D-05 -0.31827074D-21
  0.20619159D-17 -0.59556389D-05 -0.14402157D-21  0.29234504D-05  0.54697870D-05
  0.94505802D-05  0.15320493D-04  0.23265390D-04  0.32336157D-04  0.38443025D-04
  0.34242090D-04  0.16998799D-04  0.27387788D-05  0.42047551D-07  0.75138560D-08
  0.28078107D-09 -0.48765247D-05 -0.91086478D-05 -0.15808500D-04 -0.25650771D-04
 -0.39704347D-04 -0.56833166D-04 -0.74185034D-04 -0.79056533D-04 -0.59096363D-04
 -0.31195920D-05  0.40085209D-04  0.23815220D-04 -0.89289219D-07  0.23637692D-05
  0.44116347D-05  0.76670328D-05  0.12426005D-04  0.19299531D-04  0.27647135D-04
  0.36505465D-04  0.39473236D-04  0.30947529D-04  0.15399388D-05 -0.26529857D-04
 -0.27463320D-04  0.12427541D-04 -0.95551862D-05 -0.31889344D-04 -0.23895511D-04
  0.13513041D-19  0.17799708D-19  0.19637248D-19  0.16310992D-19  0.86631639D-20
  0.22344827D-20 -0.22969722D-23 -0.11013753D-03 -0.14507585D-03 -0.16005265D-03
 -0.13294212D-03 -0.70608791D-04 -0.18212067D-04  0.18721386D-07  0.18815369D-04
  0.24784064D-04  0.27342628D-04  0.22711196D-04  0.12062468D-04  0.31112623D-05
 -0.31982719D-08 -0.79794058D-20 -0.10476375D-19 -0.11928124D-19 -0.10100245D-19
 -0.57858093D-20 -0.13160709D-20  0.61599360D-21  0.80002105D-04  0.10503690D-03
  0.11959224D-03  0.10126579D-03  0.58008946D-04  0.13195023D-04 -0.61759968D-05
 -0.44343121D-05 -0.58219267D-05 -0.66286919D-05 -0.56129040D-05 -0.32152875D-05
 -0.73136637D-06  0.34231971D-06 -0.31911275D-20  0.17912616D-04 -0.96841590D-05
  0.13562930D-20  0.15539857D-04 -0.83062504D-05  0.23730626D-21  0.10748560D-05
 -0.82199429D-06  0.55403076D-05 -0.54931714D-05 -0.47136180D-07  0.10390579D-19
 -0.57175667D-20  0.20896926D-04 -0.22117076D-05  0.26685013D-05 -0.45679373D-06
 -0.39814836D-20  0.20154276D-20 -0.80781557D-05  0.36231948D-06 -0.83541097D-06
  0.47309149D-06 -0.91101803D-21  0.11287413D-20  0.41502970D-06  0.41641301D-20
  0.79675945D-07  0.14896215D-05 -0.79002680D-20 -0.59225056D-05  0.27663049D-05
 -0.45921223D-20  0.56834777D-05 -0.72351693D-05  0.19303096D-19 -0.18834763D-20
 -0.69070156D-07 -0.14107778D-05  0.37168676D-20  0.46856047D-05 -0.33273041D-05
  0.19335611D-20 -0.44783943D-05  0.75596376D-05 -0.87545084D-20  0.29234504D-05
  0.54697870D-05  0.94505802D-05  0.15320493D-04  0.23265390D-04  0.32336157D-04
  0.38443025D-04  0.34242090D-04  0.16998799D-04  0.27387788D-05  0.42047551D-07
  0.75138560D-08  0.28078107D-09 -0.48765247D-05 -0.91086478D-05 -0.15808500D-04
 -0.25650771D-04 -0.39704347D-04 -0.56833166D-04 -0.74185034D-04 -0.79056533D-04
 -0.59096363D-04 -0.31195920D-05  0.40085209D-04  0.23815220D-04 -0.89289219D-07
  0.23637692D-05  0.44116347D-05  0.76670328D-05  0.12426005D-04  0.19299531D-04
  0.27647135D-04  0.36505465D-04  0.39473236D-04  0.30947529D-04  0.15399388D-05
 -0.26529857D-04 -0.27463320D-04  0.12427541D-04 -0.95551862D-05 -0.31889344D-04
 -0.23895511D-04  0.15657839D-19  0.20624888D-19  0.22754084D-19  0.18899882D-19
  0.10038186D-19  0.25891411D-20 -0.26615490D-23  0.11013753D-03  0.14507585D-03
  0.16005265D-03  0.13294212D-03  0.70608791D-04  0.18212067D-04 -0.18721386D-07
  0.18815369D-04  0.24784064D-04  0.27342628D-04  0.22711196D-04  0.12062468D-04
  0.31112623D-05 -0.31982719D-08 -0.97044662D-20 -0.12741253D-19 -0.14506854D-19
 -0.12283808D-19 -0.70366380D-20 -0.16005910D-20  0.74916469D-21 -0.80002105D-04
 -0.10503690D-03 -0.11959224D-03 -0.10126579D-03 -0.58008946D-04 -0.13195023D-04
  0.61759968D-05 -0.44343121D-05 -0.58219267D-05 -0.66286919D-05 -0.56129040D-05
 -0.32152875D-05 -0.73136637D-06  0.34231971D-06 -0.34515376D-20 -0.17912616D-04
 -0.96841590D-05  0.15923373D-20 -0.15539857D-04 -0.83062504D-05  0.21557770D-21
 -0.10748560D-05 -0.82199429D-06  0.55403076D-05 -0.54931714D-05 -0.47136180D-07
 -0.10716597D-19 -0.62043705D-20 -0.20896926D-04 -0.22117076D-05  0.26685013D-05
 -0.45679373D-06  0.42854619D-20  0.23736657D-20  0.80781557D-05  0.36231948D-06
 -0.83541097D-06  0.47309149D-06  0.10253993D-20  0.12080911D-20 -0.41502970D-06
  0.42329400D-20 -0.79675945D-07  0.14896215D-05 -0.79172174D-20  0.59225056D-05
  0.27663049D-05 -0.47816025D-20 -0.56834777D-05 -0.72351693D-05 -0.19940759D-19
 -0.19418569D-20  0.69070156D-07 -0.14107778D-05  0.37713325D-20 -0.46856047D-05
 -0.33273041D-05  0.20542380D-20  0.44783943D-05  0.75596376D-05  0.91527287D-20
MO    2     MO 0.0        OCC NO =    2.0000000  ORB. ENERGY = -101.242405
 -0.14306870D-13 -0.26731719D-13 -0.46362819D-13 -0.75954141D-13 -0.11893815D-12
 -0.17861339D-12 -0.25475383D-12 -0.33658142D-12 -0.38816112D-12 -0.34935746D-12
 -0.19599822D-12 -0.47383618D-13 -0.22495393D-14  0.38496379D-16 -0.10827373D-16
  0.42194098D-17 -0.39910800D-18 -0.39352889D-19  0.30520257D-13  0.56203528D-13
  0.97555205D-13  0.15977715D-12  0.25148189D-12  0.37957861D-12  0.55331504D-12
  0.75981779D-12  0.96495892D-12  0.10391995D-11  0.82905387D-12  0.18570145D-12
 -0.49656151D-12 -0.44157945D-12 -0.86242257D-13 -0.23890880D-14 -0.17300963D-15
 -0.35333299D-17 -0.45428737D-13 -0.82017378D-13 -0.14277664D-12 -0.23380277D-12
 -0.36860338D-12 -0.55621236D-12 -0.81405818D-12 -0.11216652D-11 -0.14450053D-11
 -0.15904965D-11 -0.13389401D-11 -0.31884955D-12  0.10740079D-11  0.14350997D-11
  0.17630493D-12 -0.61603338D-12 -0.27193866D-12  0.13495827D-14  0.20696141D-13
  0.44837959D-13  0.76330751D-13  0.12459875D-12  0.19643528D-12  0.29643188D-12
  0.43385320D-12  0.59847330D-12  0.77196800D-12  0.85342298D-12  0.72278598D-12
  0.17556952D-12 -0.60912279D-12 -0.85970696D-12 -0.10257488D-12  0.48207834D-12
  0.38535189D-12 -0.14598952D-12 -0.78280685D-13  0.53501854D-12  0.98930218D-13
  0.31273504D-15  0.44822185D-15  0.59189415D-15  0.68035248D-15  0.62588175D-15
  0.40039370D-15  0.13859179D-15  0.15581031D-16  0.19822870D-18  0.34349607D-19
  0.35101561D-21 -0.49713683D-02 -0.71251237D-02 -0.94089992D-02 -0.10815170D-01
 -0.99492805D-02 -0.63648273D-02 -0.22031136D-02 -0.24768265D-03 -0.31511270D-05
 -0.54603586D-06 -0.55798923D-08 -0.18175300D-11 -0.26049420D-11 -0.34399259D-11
 -0.39540214D-11 -0.36374525D-11 -0.23269780D-11 -0.80545735D-12 -0.90552666D-13
 -0.11520506D-14 -0.19963047D-15 -0.20400061D-17  0.67742986D-15  0.97713920D-15
  0.13014230D-14  0.15401862D-14  0.14800611D-14  0.10173258D-14  0.32029970D-15
 -0.15479796D-15 -0.15886017D-15 -0.40006887D-16  0.43618791D-19  0.20887798D-01
  0.30129002D-01  0.40127933D-01  0.47489933D-01  0.45636042D-01  0.31368113D-01
  0.98760858D-02 -0.47730231D-02 -0.48982771D-02 -0.12335679D-02  0.13449370D-05
  0.75943905D-11  0.10954310D-10  0.14589723D-10  0.17266401D-10  0.16592363D-10
  0.11404826D-10  0.35907496D-11 -0.17353769D-11 -0.17809167D-11 -0.44850093D-12
  0.48899252D-15 -0.11290789D-15 -0.16368110D-15 -0.21724572D-15 -0.25926198D-15
 -0.24908922D-15 -0.17434917D-15 -0.52643184D-16  0.32225482D-16  0.34657930D-16
  0.93206511D-17 -0.34744347D-17 -0.15241436D-01 -0.22095311D-01 -0.29326000D-01
 -0.34997775D-01 -0.33624553D-01 -0.23535395D-01 -0.71063034D-02  0.43501178D-02
  0.46784740D-02  0.12581947D-02 -0.46901394D-03 -0.54787884D-11 -0.79425283D-11
 -0.10541720D-10 -0.12580534D-10 -0.12086907D-10 -0.84601904D-11 -0.25544793D-11
  0.15637224D-11  0.16817556D-11  0.45227908D-12 -0.16859489D-12  0.20685099D-16
  0.34171463D-03  0.13637923D-12 -0.12898378D-19 -0.37316633D-03 -0.13371665D-12
  0.30562000D-20 -0.57716056D-05 -0.37001664D-14 -0.17484285D-12 -0.18097906D-12
 -0.15141925D-12 -0.97708414D-13 -0.43891955D-13 -0.12815741D-13 -0.21620940D-14
  0.13804813D-12  0.14289300D-12  0.11955390D-12  0.77146211D-13  0.34655133D-13
  0.10118738D-13  0.17070931D-14  0.36794725D-13  0.38086056D-13  0.31865355D-13
  0.20562203D-13  0.92368226D-14  0.26970027D-14  0.45500089D-15  0.66929372D-18
  0.69278295D-18  0.57962880D-18  0.37402517D-18  0.16801722D-18  0.49058309D-19
  0.82764374D-20  0.66972874D-18  0.69323324D-18  0.58000555D-18  0.37426828D-18
  0.16812643D-18  0.49090196D-19  0.82818169D-20  0.14396212D-03  0.14901455D-03
  0.12467559D-03  0.80451158D-04  0.36139760D-04  0.10552225D-04  0.17802250D-05
  0.18743316D-13 -0.15065538D-13 -0.36777783D-14 -0.53372239D-19 -0.45925480D-20
 -0.55416352D-04 -0.50305855D-13  0.40750696D-13  0.95551594D-14  0.44138115D-20
  0.17573588D-19  0.32460584D-03 -0.88775066D-14  0.41396114D-14  0.47378953D-14
 -0.21738915D-19  0.18400796D-19  0.65375779D-04 -0.22329703D-19  0.88459588D-05
  0.92056555D-14  0.37599404D-19  0.22188629D-04  0.86034803D-14  0.29389704D-19
 -0.48726505D-04 -0.36220447D-13 -0.88790173D-19  0.73228895D-20 -0.36546277D-05
  0.10785794D-14 -0.13576841D-19  0.27428007D-04  0.99476268D-14 -0.83918278D-20
 -0.16464124D-04 -0.13183365D-13  0.18115311D-19 -0.43651823D+00 -0.81672728D+00
 -0.14111238D+01 -0.22875963D+01 -0.34738974D+01 -0.48283089D+01 -0.57401628D+01
 -0.51128955D+01 -0.25381944D+01 -0.40894379D+00 -0.62783764D-02 -0.11219397D-02
 -0.41925136D-04  0.85990932D-03  0.16061871D-02  0.27876157D-02  0.45231674D-02
  0.70013259D-02  0.10021762D-01  0.13081530D-01  0.13940553D-01  0.10420846D-01
  0.55009796D-03 -0.70684858D-02 -0.41994927D-02  0.15744949D-04 -0.32259834D-03
 -0.60208333D-03 -0.10463678D-02 -0.16958544D-02 -0.26339274D-02 -0.37731771D-02
 -0.49821288D-02 -0.53871590D-02 -0.42236025D-02 -0.21016506D-03  0.36206952D-02
  0.37480908D-02 -0.16960641D-02  0.23189241D-02  0.93790020D-03  0.25780646D-03
 -0.12832187D-15 -0.16902870D-15 -0.18647825D-15 -0.15489162D-15 -0.82266704D-16
 -0.21218983D-16  0.21812393D-19  0.13864685D-02  0.18262902D-02  0.20148259D-02
  0.16735445D-02  0.88886014D-03  0.22926296D-03 -0.23567453D-06 -0.11651376D-02
 -0.15347478D-02 -0.16931863D-02 -0.14063859D-02 -0.74696570D-03 -0.19266424D-03
  0.19805229D-06  0.23992172D-16  0.31499963D-16  0.35865026D-16  0.30369031D-16
  0.17396550D-16  0.39571116D-17 -0.18521460D-17 -0.10378474D-02 -0.13626176D-02
 -0.15514404D-02 -0.13136960D-02 -0.75253565D-03 -0.17117575D-03  0.80119672D-04
  0.87414978D-03  0.11476946D-02  0.13067347D-02  0.11064893D-02  0.63383966D-03
  0.14417653D-03 -0.67482552D-04  0.79917170D-17 -0.29157036D-04  0.22992152D-04
  0.31866500D-18 -0.31268712D-03  0.27390428D-03 -0.14241302D-19 -0.10657657D-04
  0.89463877D-05  0.10726833D-03 -0.83030966D-04 -0.24237367D-04 -0.52483041D-19
  0.12654021D-18  0.26904104D-03 -0.58387405D-04  0.45304482D-04  0.13082923D-04
  0.51678399D-19 -0.66144176D-19 -0.15588093D-03 -0.26290793D-04  0.18604150D-04
  0.76866429D-05 -0.47993785D-19  0.42081219D-19 -0.83290201D-04  0.37561867D-19
  0.10756927D-04  0.14669408D-04 -0.75829352D-19 -0.95023386D-04  0.48298512D-04
 -0.36856251D-19  0.62752606D-04 -0.92306735D-04  0.21682739D-18 -0.13043154D-19
 -0.27161691D-05 -0.13615984D-04  0.24919083D-19  0.61773690D-04 -0.42263703D-04
  0.14210377D-19 -0.53625183D-04  0.83111654D-04 -0.60963453D-19  0.43651823D+00
  0.81672728D+00  0.14111238D+01  0.22875963D+01  0.34738974D+01  0.48283089D+01
  0.57401628D+01  0.51128955D+01  0.25381944D+01  0.40894379D+00  0.62783764D-02
  0.11219397D-02  0.41925136D-04 -0.85990933D-03 -0.16061871D-02 -0.27876157D-02
 -0.45231674D-02 -0.70013259D-02 -0.10021762D-01 -0.13081530D-01 -0.13940553D-01
 -0.10420846D-01 -0.55009796D-03  0.70684858D-02  0.41994927D-02 -0.15744949D-04
  0.32259834D-03  0.60208333D-03  0.10463678D-02  0.16958544D-02  0.26339274D-02
  0.37731771D-02  0.49821288D-02  0.53871590D-02  0.42236025D-02  0.21016506D-03
 -0.36206952D-02 -0.37480908D-02  0.16960641D-02 -0.23189241D-02 -0.93790020D-03
 -0.25780646D-03 -0.16384409D-16 -0.21581944D-16 -0.23809941D-16 -0.19776893D-16
 -0.10503988D-16 -0.27092849D-17  0.27850528D-20  0.13864685D-02  0.18262902D-02
  0.20148259D-02  0.16735445D-02  0.88886014D-03  0.22926296D-03 -0.23567453D-06
  0.11651376D-02  0.15347478D-02  0.16931863D-02  0.14063859D-02  0.74696570D-03
  0.19266424D-03 -0.19805229D-06  0.14697883D-17  0.19297243D-17  0.21971331D-17
  0.18604421D-17  0.10657329D-17  0.24241725D-18 -0.11346462D-18 -0.10378474D-02
 -0.13626176D-02 -0.15514404D-02 -0.13136960D-02 -0.75253565D-03 -0.17117575D-03
  0.80119672D-04 -0.87414978D-03 -0.11476946D-02 -0.13067347D-02 -0.11064893D-02
 -0.63383966D-03 -0.14417653D-03  0.67482552D-04  0.86715393D-18 -0.29157036D-04
 -0.22992152D-04  0.21146532D-19 -0.31268712D-03 -0.27390428D-03 -0.10754682D-20
 -0.10657657D-04 -0.89463877D-05 -0.10726833D-03  0.83030966D-04  0.24237367D-04
  0.35787621D-19 -0.99112882D-19  0.26904104D-03  0.58387405D-04 -0.45304482D-04
 -0.13082923D-04  0.38371175D-20  0.40272123D-19 -0.15588093D-03  0.26290793D-04