 Molden2AIM, Version 4.0.0 (06/02/2016)           Time: Sat Jun 30 05:59:57 2018
GAUSSIAN             18 MOL ORBITALS    317 PRIMITIVES        3 NUCLEI
  Se   1    (CENTRE  1)   0.00000000  0.00000000  0.78221622  CHARGE = 34.0
  H    2    (CENTRE  2)   0.00000000  1.98715284 -1.16693612  CHARGE =  1.0
  H    3    (CENTRE  3)   0.00000000 -1.98715284 -1.16693612  CHARGE =  1.0
CENTRE ASSIGNMENTS    1  1  1  1  1  1  1  1  1  1  1  1  1  1  1  1  1  1  1  1
CENTRE ASSIGNMENTS    1  1  1  1  1  1  1  1  1  1  1  1  1  1  1  1  1  1  1  1
CENTRE ASSIGNMENTS    1  1  1  1  1  1  1  1  1  1  1  1  1  1  1  1  1  1  1  1
CENTRE ASSIGNMENTS    1  1  1  1  1  1  1  1  1  1  1  1  1  1  1  1  1  1  1  1
CENTRE ASSIGNMENTS    1  1  1  1  1  1  1  1  1  1  1  1  1  1  1  1  1  1  1  1
CENTRE ASSIGNMENTS    1  1  1  1  1  1  1  1  1  1  1  1  1  1  1  1  1  1  1  1
CENTRE ASSIGNMENTS    1  1  1  1  1  1  1  1  1  1  1  1  1  1  1  1  1  1  1  1
CENTRE ASSIGNMENTS    1  1  1  1  1  1  1  1  1  1  1  1  1  1  1  1  1  1  1  1
CENTRE ASSIGNMENTS    1  1  1  1  1  1  1  1  1  1  1  1  1  1  1  1  1  1  1  1
CENTRE ASSIGNMENTS    1  1  1  1  1  1  1  1  1  1  1  1  1  1  1  1  1  1  1  1
CENTRE ASSIGNMENTS    1  1  1  1  1  1  1  1  1  1  1  1  1  1  1  1  1  1  1  1
CENTRE ASSIGNMENTS    1  1  1  1  1  1  1  1  1  1  1  1  1  1  1  1  1  1  1  1
CENTRE ASSIGNMENTS    1  1  1  1  1  1  1  1  1  1  1  1  1  1  1  1  1  1  1  1
CENTRE ASSIGNMENTS    1  1  1  2  2  2  2  2  2  2  2  2  2  2  2  2  2  2  2  2
CENTRE ASSIGNMENTS    2  2  2  2  2  2  2  2  2  2  3  3  3  3  3  3  3  3  3  3
CENTRE ASSIGNMENTS    3  3  3  3  3  3  3  3  3  3  3  3  3  3  3  3  3
TYPE ASSIGNMENTS      1  1  1  1  1  1  1  1  1  1  1  1  1  1  1  1  1  1  1  1
TYPE ASSIGNMENTS      1  1  1  1  1  1  1  1  1  1  1  1  1  1  1  1  1  1  1  1
TYPE ASSIGNMENTS      1  1  1  1  1  1  1  1  1  1  1  1  1  1  1  1  1  1  1  1
TYPE ASSIGNMENTS      1  1  1  1  1  1  1  1  1  1  1  1  1  1  1  2  2  2  2  2
TYPE ASSIGNMENTS      2  2  2  2  2  2  3  3  3  3  3  3  3  3  3  3  3  4  4  4
TYPE ASSIGNMENTS      4  4  4  4  4  4  4  4  2  2  2  2  2  2  2  2  2  2  2  3
TYPE ASSIGNMENTS      3  3  3  3  3  3  3  3  3  3  4  4  4  4  4  4  4  4  4  4
TYPE ASSIGNMENTS      4  2  2  2  2  2  2  2  2  2  2  2  3  3  3  3  3  3  3  3
TYPE ASSIGNMENTS      3  3  3  4  4  4  4  4  4  4  4  4  4  4  2  3  4  2  3  4
TYPE ASSIGNMENTS      2  3  4  5  5  5  5  5  5  5  6  6  6  6  6  6  6  7  7  7
TYPE ASSIGNMENTS      7  7  7  7  8  8  8  8  8  8  8  9  9  9  9  9  9  9 10 10
TYPE ASSIGNMENTS     10 10 10 10 10  5  6  7  8  9 10  5  6  7  8  9 10  5  6  7
TYPE ASSIGNMENTS      8  9 10 11 12 13 17 14 15 18 19 16 20 11 12 13 17 14 15 18
TYPE ASSIGNMENTS     19 16 20  1  1  1  1  1  1  2  3  4  2  3  4  2  3  4  5  6
TYPE ASSIGNMENTS      7  8  9 10  5  6  7  8  9 10  1  1  1  1  1  1  2  3  4  2
TYPE ASSIGNMENTS      3  4  2  3  4  5  6  7  8  9 10  5  6  7  8  9 10
EXPONENTS  0.9563600D+07 0.1432100D+07 0.3259100D+06 0.9231200D+05 0.3011600D+05
EXPONENTS  0.1087200D+05 0.4240100D+04 0.1758400D+04 0.7665900D+03 0.3484300D+03
EXPONENTS  0.1640300D+03 0.7914200D+02 0.3552400D+02 0.1730500D+02 0.8378400D+01
EXPONENTS  0.3740500D+01 0.1689000D+01 0.2552000D+00 0.9563600D+07 0.1432100D+07
EXPONENTS  0.3259100D+06 0.9231200D+05 0.3011600D+05 0.1087200D+05 0.4240100D+04
EXPONENTS  0.1758400D+04 0.7665900D+03 0.3484300D+03 0.1640300D+03 0.7914200D+02
EXPONENTS  0.3552400D+02 0.1730500D+02 0.8378400D+01 0.3740500D+01 0.1689000D+01
EXPONENTS  0.2552000D+00 0.9563600D+07 0.1432100D+07 0.3259100D+06 0.9231200D+05
EXPONENTS  0.3011600D+05 0.1087200D+05 0.4240100D+04 0.1758400D+04 0.7665900D+03
EXPONENTS  0.3484300D+03 0.1640300D+03 0.7914200D+02 0.3552400D+02 0.1730500D+02
EXPONENTS  0.8378400D+01 0.3740500D+01 0.1689000D+01 0.2552000D+00 0.9563600D+07
EXPONENTS  0.1432100D+07 0.3259100D+06 0.9231200D+05 0.3011600D+05 0.1087200D+05
EXPONENTS  0.4240100D+04 0.1758400D+04 0.7665900D+03 0.3484300D+03 0.1640300D+03
EXPONENTS  0.7914200D+02 0.3552400D+02 0.1730500D+02 0.8378400D+01 0.3740500D+01
EXPONENTS  0.1689000D+01 0.2552000D+00 0.5092700D+00 0.1065100D+00 0.3920100D-01
EXPONENTS  0.8004300D+04 0.1896900D+04 0.6147100D+03 0.2335000D+03 0.9785600D+02
EXPONENTS  0.4351400D+02 0.2006300D+02 0.9112700D+01 0.4106300D+01 0.1794900D+01
EXPONENTS  0.2461500D+00 0.8004300D+04 0.1896900D+04 0.6147100D+03 0.2335000D+03
EXPONENTS  0.9785600D+02 0.4351400D+02 0.2006300D+02 0.9112700D+01 0.4106300D+01
EXPONENTS  0.1794900D+01 0.2461500D+00 0.8004300D+04 0.1896900D+04 0.6147100D+03
EXPONENTS  0.2335000D+03 0.9785600D+02 0.4351400D+02 0.2006300D+02 0.9112700D+01
EXPONENTS  0.4106300D+01 0.1794900D+01 0.2461500D+00 0.8004300D+04 0.1896900D+04
EXPONENTS  0.6147100D+03 0.2335000D+03 0.9785600D+02 0.4351400D+02 0.2006300D+02
EXPONENTS  0.9112700D+01 0.4106300D+01 0.1794900D+01 0.2461500D+00 0.8004300D+04
EXPONENTS  0.1896900D+04 0.6147100D+03 0.2335000D+03 0.9785600D+02 0.4351400D+02
EXPONENTS  0.2006300D+02 0.9112700D+01 0.4106300D+01 0.1794900D+01 0.2461500D+00
EXPONENTS  0.8004300D+04 0.1896900D+04 0.6147100D+03 0.2335000D+03 0.9785600D+02
EXPONENTS  0.4351400D+02 0.2006300D+02 0.9112700D+01 0.4106300D+01 0.1794900D+01
EXPONENTS  0.2461500D+00 0.8004300D+04 0.1896900D+04 0.6147100D+03 0.2335000D+03
EXPONENTS  0.9785600D+02 0.4351400D+02 0.2006300D+02 0.9112700D+01 0.4106300D+01
EXPONENTS  0.1794900D+01 0.2461500D+00 0.8004300D+04 0.1896900D+04 0.6147100D+03
EXPONENTS  0.2335000D+03 0.9785600D+02 0.4351400D+02 0.2006300D+02 0.9112700D+01
EXPONENTS  0.4106300D+01 0.1794900D+01 0.2461500D+00 0.8004300D+04 0.1896900D+04
EXPONENTS  0.6147100D+03 0.2335000D+03 0.9785600D+02 0.4351400D+02 0.2006300D+02
EXPONENTS  0.9112700D+01 0.4106300D+01 0.1794900D+01 0.2461500D+00 0.6243200D+00
EXPONENTS  0.6243200D+00 0.6243200D+00 0.8891700D-01 0.8891700D-01 0.8891700D-01
EXPONENTS  0.3025100D-01 0.3025100D-01 0.3025100D-01 0.3618500D+03 0.1085500D+03
EXPONENTS  0.4143300D+02 0.1757900D+02 0.7862700D+01 0.3518000D+01 0.1534800D+01
EXPONENTS  0.3618500D+03 0.1085500D+03 0.4143300D+02 0.1757900D+02 0.7862700D+01
EXPONENTS  0.3518000D+01 0.1534800D+01 0.3618500D+03 0.1085500D+03 0.4143300D+02
EXPONENTS  0.1757900D+02 0.7862700D+01 0.3518000D+01 0.1534800D+01 0.3618500D+03
EXPONENTS  0.1085500D+03 0.4143300D+02 0.1757900D+02 0.7862700D+01 0.3518000D+01
EXPONENTS  0.1534800D+01 0.3618500D+03 0.1085500D+03 0.4143300D+02 0.1757900D+02
EXPONENTS  0.7862700D+01 0.3518000D+01 0.1534800D+01 0.3618500D+03 0.1085500D+03
EXPONENTS  0.4143300D+02 0.1757900D+02 0.7862700D+01 0.3518000D+01 0.1534800D+01
EXPONENTS  0.6081300D+00 0.6081300D+00 0.6081300D+00 0.6081300D+00 0.6081300D+00
EXPONENTS  0.6081300D+00 0.2220000D+00 0.2220000D+00 0.2220000D+00 0.2220000D+00
EXPONENTS  0.2220000D+00 0.2220000D+00 0.8370000D-01 0.8370000D-01 0.8370000D-01
EXPONENTS  0.8370000D-01 0.8370000D-01 0.8370000D-01 0.4620000D+00 0.4620000D+00
EXPONENTS  0.4620000D+00 0.4620000D+00 0.4620000D+00 0.4620000D+00 0.4620000D+00
EXPONENTS  0.4620000D+00 0.4620000D+00 0.4620000D+00 0.1880000D+00 0.1880000D+00
EXPONENTS  0.1880000D+00 0.1880000D+00 0.1880000D+00 0.1880000D+00 0.1880000D+00
EXPONENTS  0.1880000D+00 0.1880000D+00 0.1880000D+00 0.3387000D+02 0.5095000D+01
EXPONENTS  0.1159000D+01 0.3258000D+00 0.1027000D+00 0.2526000D-01 0.1407000D+01
EXPONENTS  0.1407000D+01 0.1407000D+01 0.3880000D+00 0.3880000D+00 0.3880000D+00
EXPONENTS  0.1020000D+00 0.1020000D+00 0.1020000D+00 0.1057000D+01 0.1057000D+01
EXPONENTS  0.1057000D+01 0.1057000D+01 0.1057000D+01 0.1057000D+01 0.2470000D+00
EXPONENTS  0.2470000D+00 0.2470000D+00 0.2470000D+00 0.2470000D+00 0.2470000D+00
EXPONENTS  0.3387000D+02 0.5095000D+01 0.1159000D+01 0.3258000D+00 0.1027000D+00
EXPONENTS  0.2526000D-01 0.1407000D+01 0.1407000D+01 0.1407000D+01 0.3880000D+00
EXPONENTS  0.3880000D+00 0.3880000D+00 0.1020000D+00 0.1020000D+00 0.1020000D+00
EXPONENTS  0.1057000D+01 0.1057000D+01 0.1057000D+01 0.1057000D+01 0.1057000D+01
EXPONENTS  0.1057000D+01 0.2470000D+00 0.2470000D+00 0.2470000D+00 0.2470000D+00
EXPONENTS  0.2470000D+00 0.2470000D+00
MO    1     MO 0.0        OCC NO =    2.0000000  ORB. ENERGY = -453.299660
  0.77213222D+00  0.14426931D+01  0.25021704D+01  0.40991944D+01  0.64190128D+01
  0.96396455D+01  0.13748895D+02  0.18165075D+02  0.20948797D+02  0.18854589D+02
  0.10577893D+02  0.25572623D+01  0.12140614D+00 -0.20776239D-02  0.58434608D-03
 -0.22771873D-03  0.21539592D-04  0.21238492D-05  0.72590119D-04  0.13367583D-03
  0.23202766D-03  0.38001785D-03  0.59813061D-03  0.90279895D-03  0.13160179D-02
  0.18071690D-02  0.22950817D-02  0.24716574D-02  0.19718418D-02  0.44167683D-03
 -0.11810339D-02 -0.10502633D-02 -0.20512067D-03 -0.56822646D-05 -0.41149028D-06
 -0.84037574D-08 -0.14346141D-03 -0.25900629D-03 -0.45088063D-03 -0.73833605D-03
 -0.11640288D-02 -0.17564875D-02 -0.25707501D-02 -0.35421559D-02 -0.45632459D-02
 -0.50226988D-02 -0.42282979D-02 -0.10069090D-02  0.33916568D-02  0.45319645D-02
  0.55676110D-03 -0.19453989D-02 -0.85876707D-03  0.42619065D-05  0.50948722D-04
  0.11037984D-03  0.18790722D-03  0.30673097D-03  0.48357453D-03  0.72974113D-03
  0.10680381D-02  0.14732916D-02  0.19003921D-02  0.21009139D-02  0.17793183D-02
  0.43220824D-03 -0.14995079D-02 -0.21163835D-02 -0.25251370D-03  0.11867563D-02
  0.94863996D-03 -0.35938969D-03  0.28307607D-03  0.15211463D-03  0.91880527D-05
  0.18076839D-16  0.25908303D-16  0.34212908D-16  0.39326013D-16  0.36177474D-16
  0.23143721D-16  0.80109395D-17  0.90062116D-18  0.11458096D-19  0.19854901D-20
  0.20289548D-22 -0.17757562D-14 -0.25450705D-14 -0.33608632D-14 -0.38631428D-14
 -0.35538499D-14 -0.22734951D-14 -0.78694484D-15 -0.88471418D-16 -0.11255721D-17
 -0.19504219D-18 -0.19931189D-20  0.53024302D-03  0.75996122D-03  0.10035579D-02
  0.11535393D-02  0.10611840D-02  0.67886849D-03  0.23498271D-03  0.26417676D-04
  0.33609723D-06  0.58239842D-07  0.59514781D-09  0.22000763D-17  0.31734367D-17
  0.42266071D-17  0.50020341D-17  0.48067669D-17  0.33039501D-17  0.10402314D-17
 -0.50273443D-18 -0.51592722D-18 -0.12992962D-18  0.14165993D-21  0.76277801D-14
  0.11002472D-13  0.14653869D-13  0.17342315D-13  0.16665313D-13  0.11454969D-13
  0.36065368D-14 -0.17430067D-14 -0.17887468D-14 -0.45047281D-15  0.49114243D-18
 -0.34931070D-02 -0.50385316D-02 -0.67106722D-02 -0.79418337D-02 -0.76318040D-02
 -0.52457504D-02 -0.16515970D-02  0.79820193D-03  0.81914839D-03  0.20629196D-03
 -0.22491643D-06 -0.52438455D-19 -0.76019346D-19 -0.10089667D-18 -0.12041052D-18
 -0.11568593D-18 -0.80973982D-19 -0.24449374D-19  0.14966665D-19  0.16096380D-19
  0.43288432D-20 -0.16136515D-20 -0.57523346D-14 -0.83390847D-14 -0.11068049D-13
 -0.13208658D-13 -0.12690385D-13 -0.88825928D-14 -0.26820200D-14  0.16417963D-14
  0.17657226D-14  0.47486057D-15 -0.17701253D-15  0.26805480D-02  0.38859555D-02
  0.51576341D-02  0.61551429D-02  0.59136311D-02  0.41392265D-02  0.12498027D-02
 -0.76506568D-03 -0.82281448D-03 -0.22128173D-03  0.82486610D-04  0.39554944D-19
  0.64048376D-16 -0.14501001D-04  0.18564491D-20 -0.20404561D-15 -0.37795035D-04
 -0.76570178D-23 -0.21464507D-17  0.91513271D-07 -0.59477449D-03 -0.61564843D-03
 -0.51509287D-03 -0.33238117D-03 -0.14931017D-03 -0.43596152D-04 -0.73549380D-05
  0.34385535D-03  0.35592315D-03  0.29778924D-03  0.19215862D-03  0.86320280D-04
  0.25204125D-04  0.42520903D-05  0.25091913D-03  0.25972528D-03  0.21730363D-03
  0.14022255D-03  0.62989886D-04  0.18392027D-04  0.31028477D-05 -0.38158632D-17
 -0.39497831D-17 -0.33046541D-17 -0.21324403D-17 -0.95792134D-18 -0.27969753D-18
 -0.47186687D-19 -0.45083054D-17 -0.46665269D-17 -0.39043302D-17 -0.25194017D-17
 -0.11317497D-17 -0.33045259D-18 -0.55749377D-19 -0.47776871D-15 -0.49453627D-15
 -0.41376230D-15 -0.26699418D-15 -0.11993743D-15 -0.35019790D-16 -0.59080531D-17
  0.33064657D-04 -0.19723777D-04 -0.13340880D-04  0.17975856D-19  0.22066931D-19
  0.32901331D-16  0.61774216D-05 -0.30931172D-07 -0.61464904D-05 -0.21914152D-20
 -0.56069004D-20  0.12584939D-15 -0.28534010D-05  0.57022180D-06  0.22831792D-05
  0.10334316D-21 -0.12526558D-21  0.34778506D-16 -0.50431347D-21  0.51367147D-17
 -0.24490939D-05  0.89082916D-21  0.16763496D-16 -0.28947586D-04  0.62211126D-21
 -0.32173640D-16  0.36294868D-04 -0.39107542D-21 -0.24468688D-21  0.13608392D-17
  0.29732427D-06  0.27549069D-21  0.10531532D-16  0.24548072D-05  0.45856994D-21
 -0.14614050D-16 -0.33467800D-05  0.17707204D-21 -0.67987364D-05 -0.12261801D-04
 -0.18080019D-04  0.55960521D-04 -0.63014000D-04 -0.61215981D-06  0.51082310D-20
  0.16475487D-04 -0.65800978D-05 -0.39185204D-20 -0.56518480D-04  0.44319246D-04
 -0.11425011D-20  0.59522488D-05 -0.17208299D-05 -0.15347877D-04  0.83453281D-05
  0.70025491D-05  0.77121954D-21 -0.10952784D-20 -0.44780042D-04 -0.55200941D-05
  0.41412021D-05  0.13788920D-05  0.22516082D-20 -0.16133542D-20 -0.14635802D-04
 -0.67987364D-05 -0.12261801D-04 -0.18080019D-04  0.55960521D-04 -0.63014000D-04
 -0.61215981D-06  0.65401211D-20 -0.16475487D-04 -0.65800978D-05 -0.50827951D-20
  0.56518480D-04  0.44319246D-04 -0.12823157D-20 -0.59522488D-05 -0.17208299D-05
 -0.15347877D-04  0.83453281D-05  0.70025491D-05  0.33447327D-20  0.38156183D-20
  0.44780042D-04 -0.55200941D-05  0.41412021D-05  0.13788920D-05 -0.24165382D-20
 -0.21282189D-20  0.14635802D-04
MO    2     MO 0.0        OCC NO =    2.0000000  ORB. ENERGY =  -57.932034
  0.56664523D-03  0.10587502D-02  0.18362696D-02  0.30082787D-02  0.47107255D-02
  0.70742535D-02  0.10089911D-01  0.13330817D-01  0.15373708D-01  0.13836831D-01
  0.77628061D-02  0.18766999D-02  0.89096408D-04 -0.15247073D-05  0.42883447D-06
 -0.16711611D-06  0.15807276D-07  0.15586307D-08 -0.24646589D+00 -0.45387076D+00
 -0.78780562D+00 -0.12902780D+01 -0.20308383D+01 -0.30652815D+01 -0.44682875D+01
 -0.61358974D+01 -0.77925116D+01 -0.83920406D+01 -0.66950123D+01 -0.14996294D+01
  0.40099752D+01  0.35659683D+01  0.69644808D+00  0.19293045D-01  0.13971367D-02
  0.28533354D-04  0.19674082D-02  0.35519733D-02  0.61833091D-02  0.10125430D-01
  0.15963316D-01  0.24088205D-01  0.35254881D-01  0.48576593D-01  0.62579668D-01
  0.68880536D-01  0.57986241D-01  0.13808599D-01 -0.46512671D-01 -0.62150679D-01
 -0.76353380D-02  0.26678908D-01  0.11777002D-01 -0.58447145D-04 -0.71844194D-03
 -0.15564965D-02 -0.26497313D-02 -0.43252977D-02 -0.68190174D-02 -0.10290280D-01
 -0.15060699D-01 -0.20775290D-01 -0.26797952D-01 -0.29625565D-01 -0.25090657D-01
 -0.60946872D-02  0.21144974D-01  0.29843706D-01  0.35607651D-02 -0.16734777D-01
 -0.13377033D-01  0.50678528D-02 -0.42836569D-02 -0.22537978D-02 -0.13280239D-03
  0.27434666D-14  0.39320238D-14  0.51923883D-14  0.59683886D-14  0.54905444D-14
  0.35124517D-14  0.12157958D-14  0.13668452D-15  0.17389602D-17  0.30133175D-18
  0.30792826D-20  0.21203174D-13  0.30389065D-13  0.40129926D-13  0.46127327D-13
  0.42434257D-13  0.27146357D-13  0.93964071D-14  0.10563808D-14  0.13439739D-16
  0.23288746D-17  0.23798564D-19 -0.59632365D-01 -0.85467008D-01 -0.11286246D+00
 -0.12972971D+00 -0.11934323D+00 -0.76347131D-01 -0.26426703D-01 -0.29709934D-02
 -0.37798277D-04 -0.65497883D-05 -0.66931708D-07  0.32275218D-16  0.46554460D-16
  0.62004517D-16  0.73380065D-16  0.70515486D-16  0.48469097D-16  0.15260241D-16
 -0.73751367D-17 -0.75686755D-17 -0.19060734D-17  0.20781576D-20 -0.11886754D-12
 -0.17145706D-12 -0.22835862D-12 -0.27025403D-12 -0.25970398D-12 -0.17850855D-12
 -0.56202480D-13  0.27162151D-13  0.27874942D-13  0.70199449D-14 -0.76537200D-17
  0.46565158D-01  0.67166571D-01  0.89457182D-01  0.10586928D+00  0.10173641D+00
  0.69928919D-01  0.22016753D-01 -0.10640498D-01 -0.10919727D-01 -0.27499924D-02
  0.29982674D-05  0.80828237D-17  0.11717564D-16  0.15552136D-16  0.18559987D-16
  0.17831741D-16  0.12481268D-16  0.37686080D-17 -0.23069503D-17 -0.24810839D-17
 -0.66724461D-18  0.24872703D-18  0.89434860D-13  0.12965255D-12  0.17208134D-12
  0.20536261D-12  0.19730472D-12  0.13810279D-12  0.41698909D-13 -0.25525953D-13
 -0.27452707D-13 -0.73829308D-14  0.27521158D-14 -0.35606814D-01 -0.51618736D-01
 -0.68510962D-01 -0.81761278D-01 -0.78553178D-01 -0.54983037D-01 -0.16601640D-01
  0.10162680D-01  0.10929781D-01  0.29393756D-02 -0.10957034D-02  0.13189954D-18
 -0.10598527D-14  0.19707927D-03  0.34181763D-19  0.35911283D-14  0.54861046D-03
  0.23444012D-20  0.47978048D-16 -0.13435923D-05  0.49262226D-02  0.50991111D-02
  0.42662592D-02  0.27529487D-02  0.12366622D-02  0.36108534D-03  0.60917310D-04
 -0.23218684D-02 -0.24033556D-02 -0.20108089D-02 -0.12975428D-02 -0.58287395D-03
 -0.17018976D-03 -0.28712055D-04 -0.26043542D-02 -0.26957555D-02 -0.22554503D-02
 -0.14554059D-02 -0.65378823D-03 -0.19089558D-03 -0.32205255D-04  0.54448795D-16
  0.56359706D-16  0.47154319D-16  0.30427926D-16  0.13668640D-16  0.39910218D-17
  0.67330983D-18 -0.50697283D-16 -0.52476532D-16 -0.43905396D-16 -0.28331448D-16
 -0.12726874D-16 -0.37160411D-17 -0.62691891D-18  0.44151630D-14  0.45701156D-14
  0.38236660D-14  0.24673504D-14  0.11083675D-14  0.32362538D-15  0.54597585D-16
 -0.42698229D-03  0.25340523D-03  0.17357706D-03 -0.19086743D-18  0.27051114D-18
 -0.34191380D-15 -0.78449793D-04 -0.22002864D-05  0.80650079D-04  0.25425444D-19
 -0.16002080D-18 -0.20049052D-14  0.40908053D-04 -0.82690694D-05 -0.32638984D-04
 -0.19701213D-20 -0.82525070D-20 -0.62553810D-15 -0.23676875D-19 -0.79011261D-16
  0.31287548D-04  0.40779144D-19 -0.19006901D-15  0.38682037D-03  0.30251480D-19
  0.42710279D-15 -0.48068302D-03 -0.59933514D-19 -0.93062699D-20 -0.18025432D-16
 -0.40260436D-05  0.11540506D-19 -0.18990391D-15 -0.35287086D-04  0.16378304D-19
  0.24398021D-15  0.47365217D-04  0.22588518D-20  0.87752143D-04  0.15826460D-03
  0.23336107D-03 -0.73202897D-03  0.93394245D-03  0.90744593D-05  0.21186408D-18
 -0.21847540D-03  0.88272873D-04 -0.19644990D-18  0.74685710D-03 -0.58304480D-03
 -0.44046851D-19 -0.91715937D-04  0.30989156D-04  0.18520521D-03 -0.10196795D-03
 -0.83237264D-04 -0.22088961D-19  0.20850819D-19  0.54792755D-03  0.75203886D-04
 -0.56416077D-04 -0.18787809D-04  0.94053565D-19 -0.81077922D-19  0.19876641D-03
  0.87752143D-04  0.15826460D-03  0.23336107D-03 -0.73202897D-03  0.93394245D-03
  0.90744593D-05  0.20986920D-18  0.21847540D-03  0.88272873D-04 -0.17668613D-18
 -0.74685710D-03 -0.58304480D-03 -0.45889792D-19  0.91715937D-04  0.30989156D-04
  0.18520521D-03 -0.10196795D-03 -0.83237264D-04  0.22994522D-19  0.36130286D-19
 -0.54792755D-03  0.75203886D-04 -0.56416077D-04 -0.18787809D-04 -0.88794581D-19
 -0.75608690D-19 -0.19876641D-03
MO    3     MO 0.0        OCC NO =    2.0000000  ORB. ENERGY =  -51.924716
 -0.11775806D-16 -0.22002544D-16 -0.38160657D-16 -0.62516906D-16 -0.97896509D-16
 -0.14701445D-15 -0.20968470D-15 -0.27703597D-15 -0.31949057D-15 -0.28755176D-15
 -0.16132369D-15 -0.39000865D-16 -0.18515677D-17  0.31685889D-19 -0.89118752D-20
  0.34729436D-20 -0.32850081D-21 -0.32390872D-22  0.81927737D-17  0.15087120D-16
  0.26187450D-16  0.42890138D-16  0.67507104D-16  0.10189303D-15  0.14853036D-15
  0.20396339D-15  0.25903091D-15  0.27895986D-15  0.22254893D-15  0.49849186D-16
 -0.13329560D-15 -0.11853637D-15 -0.23150634D-16 -0.64132018D-18 -0.46442227D-19
 -0.94847733D-21 -0.34166959D-16 -0.61685281D-16 -0.10738233D-15 -0.17584309D-15
 -0.27722665D-15 -0.41832739D-15 -0.61225326D-15 -0.84360454D-15 -0.10867887D-14
 -0.11962126D-14 -0.10070170D-14 -0.23980679D-15  0.80776147D-15  0.10793387D-14
  0.13259896D-15 -0.46331878D-15 -0.20452510D-15  0.10150213D-17  0.79698528D-17
  0.17266598D-16  0.29394120D-16  0.47981589D-16  0.75645035D-16  0.11415261D-15
  0.16707203D-15  0.23046539D-15  0.29727626D-15  0.32864366D-15  0.27833682D-15
  0.67609862D-16 -0.23456639D-15 -0.33106355D-15 -0.39500442D-16  0.18564299D-15
  0.14839471D-15 -0.56218936D-16  0.28077371D-15 -0.14134072D-14 -0.13740108D-15
 -0.18191741D-09 -0.26072983D-09 -0.34430375D-09 -0.39575980D-09 -0.36407428D-09
 -0.23290829D-09 -0.80618593D-10 -0.90634576D-11 -0.11530927D-12 -0.19981104D-13
 -0.20418514D-15  0.48628988D+02  0.69696617D+02  0.92037057D+02  0.10579196D+03
  0.97321987D+02  0.62259542D+02  0.21550442D+02  0.24227850D+01  0.30823731D-01
  0.53412199D-02  0.54581455D-04 -0.31100426D-13 -0.44574124D-13 -0.58861840D-13
 -0.67658718D-13 -0.62241791D-13 -0.39817779D-13 -0.13782478D-13 -0.15494801D-14
 -0.19713163D-16 -0.34159505D-17 -0.34907297D-19  0.72556125D-13  0.10465649D-12
  0.13938891D-12  0.16496165D-12  0.15852195D-12  0.10896068D-12  0.34305700D-13
 -0.16579635D-13 -0.17014719D-13 -0.42849376D-14  0.46717906D-17 -0.38211708D-01
 -0.55117379D-01 -0.73409217D-01 -0.86877108D-01 -0.83485638D-01 -0.57384181D-01
 -0.18067109D-01  0.87316705D-02  0.89608075D-02  0.22566639D-02 -0.24604001D-05
 -0.59786297D-14 -0.86237023D-14 -0.11485656D-13 -0.13592851D-13 -0.13062219D-13
 -0.89783678D-14 -0.28267920D-14  0.13661631D-14  0.14020140D-14  0.35307916D-15
 -0.38495587D-18 -0.51006830D-13 -0.73943938D-13 -0.98142084D-13 -0.11712319D-12
 -0.11252758D-12 -0.78763307D-13 -0.23781881D-13  0.14558059D-13  0.15656932D-13
  0.42106612D-14 -0.15695972D-14  0.26488462D-01  0.38399979D-01  0.50966368D-01
  0.60823484D-01  0.58436929D-01  0.40902735D-01  0.12350217D-01 -0.75601755D-02
 -0.81308338D-02 -0.21866472D-02  0.81511073D-03  0.92405870D-14  0.13395959D-13
  0.17779785D-13  0.21218472D-13  0.20385915D-13  0.14269054D-13  0.43084140D-14
 -0.26373921D-14 -0.28364681D-14 -0.76281905D-15  0.28435406D-15  0.60408880D-14
 -0.19915573D-02 -0.26834871D-16  0.13188844D-15  0.14957326D-03  0.29929594D-15
 -0.22482218D-16  0.50452719D-05  0.10909147D-17 -0.47916989D-14 -0.49598663D-14
 -0.41497576D-14 -0.26777721D-14 -0.12028918D-14 -0.35122494D-15 -0.59253800D-16
  0.20853269D-13  0.21585126D-13  0.18059568D-13  0.11653549D-13  0.52349337D-14
  0.15285159D-14  0.25787000D-15 -0.16061570D-13 -0.16625260D-13 -0.13909810D-13
 -0.89757774D-14 -0.40320419D-14 -0.11772910D-14 -0.19861620D-15  0.14124806D-15
  0.14620524D-15  0.12232514D-15  0.78934450D-16  0.35458434D-16  0.10353289D-16
  0.17466633D-17  0.32056868D-13  0.33181922D-13  0.27762227D-13  0.17914520D-13
  0.80474473D-14  0.23497244D-14  0.39641290D-15 -0.11088532D-01 -0.11477690D-01
 -0.96030074D-02 -0.61966667D-02 -0.27836274D-02 -0.81277415D-03 -0.13711998D-03
  0.21896862D-15 -0.15151728D-15 -0.67451339D-16 -0.71058938D-18 -0.27047021D-15
  0.25638125D-03  0.55522404D-16 -0.59788900D-16  0.42664961D-17 -0.70788127D-20
  0.31464959D-15 -0.40472677D-03  0.15941631D-16 -0.13001967D-17 -0.14641435D-16
 -0.13593435D-20  0.74013474D-17 -0.26768738D-04  0.57594085D-16  0.31061915D-05
 -0.10785440D-15 -0.93514719D-16 -0.87373100D-04 -0.57148216D-16 -0.79267537D-16
  0.78054526D-04  0.38071143D-15  0.16160748D-18  0.17442612D-16 -0.67904107D-05
  0.62411961D-17 -0.22176326D-16 -0.26321404D-04 -0.15492327D-16 -0.30151509D-16
  0.46692636D-04 -0.32312611D-17  0.25665885D-20  0.15260569D-04  0.27523064D-04
  0.40582742D-04 -0.54421315D-03 -0.38017840D-03 -0.18227846D-04 -0.40224361D-15
 -0.28906697D-04  0.11262287D-03  0.43045784D-15  0.19342681D-03 -0.25214648D-03
  0.62768016D-16  0.38762886D-04 -0.59171134D-04 -0.77632897D-04  0.19151277D-04
  0.58481620D-04  0.17779917D-15 -0.22210417D-15 -0.23168929D-03 -0.15213374D-04
  0.30417899D-04 -0.15204525D-04 -0.18528166D-15  0.16288257D-15  0.22675795D-04
 -0.15260569D-04 -0.27523064D-04 -0.40582742D-04  0.54421315D-03  0.38017840D-03
  0.18227846D-04 -0.40185571D-15 -0.28906697D-04 -0.11262287D-03  0.43028167D-15
  0.19342681D-03  0.25214648D-03  0.62736117D-16  0.38762886D-04  0.59171134D-04
  0.77632897D-04 -0.19151277D-04 -0.58481620D-04 -0.17749571D-15 -0.22231693D-15
 -0.23168929D-03  0.15213374D-04 -0.30417899D-04  0.15204525D-04  0.18506059D-15
  0.16280655D-15  0.22675795D-04
MO    4     MO 0.0        OCC NO =    2.0000000  ORB. ENERGY =  -51.923690
  0.19160250D-04  0.35800035D-04  0.62090676D-04  0.10172039D-03  0.15928605D-03
  0.23920517D-03  0.34117507D-03  0.45076138D-03  0.51983867D-03  0.46787148D-03
  0.26248753D-03  0.63457766D-04  0.30126601D-05 -0.51555670D-07  0.14500388D-07
 -0.56507782D-08  0.53449911D-09  0.52702738D-10 -0.27992288D-03 -0.51548233D-03
 -0.89474782D-03 -0.14654293D-02 -0.23065183D-02 -0.34813840D-02 -0.50748438D-02
 -0.69688267D-02 -0.88503211D-02 -0.95312344D-02 -0.76038397D-02 -0.17031994D-02
  0.45543170D-02  0.40500376D-02  0.79098877D-03  0.21912016D-04  0.15867937D-05
  0.32406669D-07  0.48369028D-04  0.87325801D-04  0.15201759D-03  0.24893522D-03
  0.39246055D-03  0.59221218D-03  0.86674659D-03  0.11942629D-02  0.15385306D-02
  0.16934384D-02  0.14256005D-02  0.33948650D-03 -0.11435211D-02 -0.15279839D-02
 -0.18771594D-03  0.65590500D-03  0.28953939D-03 -0.14369319D-05 -0.23706987D-04
 -0.51360924D-04 -0.87435244D-04 -0.14272521D-03 -0.22501242D-03 -0.33955638D-03
 -0.49696958D-03 -0.68553838D-03 -0.88427284D-03 -0.97757778D-03 -0.82793590D-03
 -0.20111113D-03  0.69773714D-03  0.98477595D-03  0.11749733D-03 -0.55221044D-03
 -0.44141235D-03  0.16722788D-03  0.11856027D-03 -0.66788639D-03 -0.40139402D-04
 -0.29679009D-11 -0.42536903D-11 -0.56171612D-11 -0.64566436D-11 -0.59397085D-11
 -0.37997943D-11 -0.13152562D-11 -0.14786624D-12 -0.18812191D-14 -0.32598275D-15
 -0.33311890D-17  0.31877864D-13  0.45688372D-13  0.60333248D-13  0.69350027D-13
  0.63797690D-13  0.40813130D-13  0.14127007D-13  0.15882134D-14  0.20205946D-16
  0.35013412D-17  0.35779897D-19  0.48626770D+02  0.69693438D+02  0.92032859D+02
  0.10578713D+03  0.97317548D+02  0.62256702D+02  0.21549459D+02  0.24226745D+01
  0.30822325D-01  0.53409763D-02  0.54578965D-04  0.11644443D-14  0.16796192D-14
  0.22370354D-14  0.26474491D-14  0.25440992D-14  0.17486966D-14  0.55056794D-15
 -0.26608452D-15 -0.27306712D-15 -0.68768435D-16  0.74976992D-19  0.68321131D-15
  0.98547849D-15  0.13125298D-14  0.15533308D-14  0.14926926D-14  0.10260081D-14
  0.32303327D-15 -0.15611906D-15 -0.16021595D-15 -0.40348321D-16  0.43991051D-19
 -0.28851935D-01 -0.41616644D-01 -0.55427985D-01 -0.65596981D-01 -0.63036235D-01
 -0.43328204D-01 -0.13641658D-01  0.65928901D-02  0.67659011D-02  0.17039050D-02
 -0.18577371D-05 -0.81955825D-15 -0.11881029D-14 -0.15769095D-14 -0.18818906D-14
 -0.18080501D-14 -0.12655387D-14 -0.38211817D-15  0.23391333D-15  0.25156961D-15
  0.67655296D-16 -0.25219687D-16 -0.49874637D-15 -0.72302613D-15 -0.95963636D-15
 -0.11452342D-14 -0.11002982D-14 -0.77015007D-15 -0.23253997D-15  0.14234915D-15
  0.15309397D-15  0.41171977D-16 -0.15347570D-16  0.19728686D-01  0.28600419D-01
  0.37959903D-01  0.45301513D-01  0.43524000D-01  0.30464480D-01  0.91984789D-02
 -0.56308414D-02 -0.60558693D-02 -0.16286213D-02  0.60709691D-03  0.98398702D-16
 -0.54310718D-17 -0.18505057D-02  0.14221805D-17 -0.41809806D-16  0.96869666D-04
 -0.22585515D-18  0.19349180D-18  0.20905987D-05  0.39943734D-02  0.41345582D-02
  0.34592494D-02  0.22321982D-02  0.10027339D-02  0.29278208D-03  0.49394131D-04
  0.22527721D-02  0.23318344D-02  0.19509694D-02  0.12589293D-02  0.56552825D-03
  0.16512510D-03  0.27857616D-04 -0.62471455D-02 -0.64663926D-02 -0.54102188D-02
 -0.34911275D-02 -0.15682622D-02 -0.45790717D-03 -0.77251747D-04 -0.20992819D-15
 -0.21729574D-15 -0.18180422D-15 -0.11731535D-15 -0.52699659D-16 -0.15387448D-16
 -0.25959567D-17  0.59278442D-15  0.61358852D-15  0.51336942D-15  0.33126905D-15
  0.14881059D-15  0.43450283D-16  0.73303291D-17 -0.12648279D-14 -0.13092178D-14
 -0.10953796D-14 -0.70683091D-15 -0.31751811D-15 -0.92710149D-16 -0.15640770D-16
 -0.90854861D-04  0.54456685D-05  0.85409192D-04  0.59304332D-18 -0.50094365D-17
  0.73458601D-17  0.81204873D-04  0.11019741D-04 -0.92224614D-04 -0.64171221D-19
  0.55486248D-17  0.32100686D-17  0.55596697D-05 -0.27378508D-05 -0.28218189D-05
  0.27123421D-20  0.13608600D-18  0.72164257D-17  0.10099028D-17 -0.22112972D-17
  0.12696893D-04 -0.16396477D-17 -0.65272639D-17 -0.38761387D-04 -0.13900608D-17
  0.13161156D-16  0.67070900D-06 -0.17192572D-19  0.30759677D-18 -0.11154517D-17
  0.22744952D-05 -0.39027220D-18  0.23615418D-17 -0.22367541D-04 -0.53251811D-18
  0.98481337D-18  0.15544055D-04  0.53996951D-20 -0.10668542D-04 -0.19241155D-04
 -0.28371072D-04  0.27758641D-03  0.28214782D-03  0.62943586D-05 -0.71221062D-17
  0.13865766D-03 -0.25630211D-06  0.75391425D-17 -0.19897310D-03  0.25964490D-04
  0.11286600D-17 -0.46715451D-04  0.32229565D-04  0.71063215D-04 -0.27271906D-04
 -0.43791309D-04  0.30300392D-17 -0.38082261D-17  0.29832553D-03 -0.10616909D-05
  0.25576812D-04 -0.24515121D-04 -0.32624376D-17  0.28685231D-17  0.11755390D-04
 -0.10668542D-04 -0.19241155D-04 -0.28371072D-04  0.27758641D-03  0.28214782D-03
  0.62943586D-05 -0.70644128D-17 -0.13865766D-03 -0.25630211D-06  0.75031603D-17
  0.19897310D-03  0.25964490D-04  0.11231224D-17  0.46715451D-04  0.32229565D-04
  0.71063215D-04 -0.27271906D-04 -0.43791309D-04 -0.28967142D-17 -0.36577898D-17
 -0.29832553D-03 -0.10616909D-05  0.25576812D-04 -0.24515121D-04  0.32519769D-17
  0.28511988D-17 -0.11755390D-04
MO    5     MO 0.0        OCC NO =    2.0000000  ORB. ENERGY =  -51.921315
  0.93577360D-16  0.17484493D-15  0.30324664D-15  0.49679546D-15  0.77794224D-15
  0.11682618D-14  0.16662758D-14  0.22014879D-14  0.25388567D-14  0.22850525D-14
  0.12819713D-14  0.30992341D-15  0.14713627D-16 -0.25179439D-18  0.70818911D-19
 -0.27598017D-19  0.26104573D-20  0.25739659D-21 -0.21168031D-15 -0.38981258D-15
 -0.67661671D-15 -0.11081714D-14 -0.17442108D-14 -0.26326553D-14 -0.38376446D-14
 -0.52698922D-14 -0.66926960D-14 -0.72076090D-14 -0.57500950D-14 -0.12879754D-14
  0.34440173D-14  0.30626765D-14  0.59815314D-15  0.16570073D-16  0.11999483D-17
  0.24506227D-19  0.29313322D-15  0.52922488D-15  0.92127974D-15  0.15086345D-14
  0.23784481D-14  0.35890128D-14  0.52527873D-14  0.72376507D-14  0.93240333D-14
  0.10262829D-13  0.86396375D-14  0.20574069D-14 -0.69301374D-14 -0.92601163D-14
 -0.11376242D-14  0.39750136D-14  0.17547099D-14 -0.87083097D-17 -0.13112879D-15
 -0.28408907D-15 -0.48362442D-15 -0.78944593D-15 -0.12445954D-14 -0.18781644D-14