 Molden2AIM, Version 4.0.0 (06/02/2016)           Time: Sat Jun 30 06:15:42 2018
GAUSSIAN             17 MOL ORBITALS    424 PRIMITIVES        8 NUCLEI
  Si   1    (CENTRE  1)   0.00000000  0.00000189  2.21922066  CHARGE = 14.0
  Si   2    (CENTRE  2)   0.00000000 -0.00000189 -2.21922066  CHARGE = 14.0
  H    3    (CENTRE  3)   0.00000000  2.65808688  3.19919861  CHARGE =  1.0
  H    4    (CENTRE  4)  -2.30197177 -1.32904060  3.19919106  CHARGE =  1.0
  H    5    (CENTRE  5)   2.30197177 -1.32904060  3.19919106  CHARGE =  1.0
  H    6    (CENTRE  6)   0.00000000 -2.65808688 -3.19919861  CHARGE =  1.0
  H    7    (CENTRE  7)  -2.30197177  1.32904060 -3.19919106  CHARGE =  1.0
  H    8    (CENTRE  8)   2.30197177  1.32904060 -3.19919106  CHARGE =  1.0
CENTRE ASSIGNMENTS    1  1  1  1  1  1  1  1  1  1  1  1  1  1  1  1  1  1  1  1
CENTRE ASSIGNMENTS    1  1  1  1  1  1  1  1  1  1  1  1  1  1  1  1  1  1  1  1
CENTRE ASSIGNMENTS    1  1  1  1  1  1  1  1  1  1  1  1  1  1  1  1  1  1  1  1
CENTRE ASSIGNMENTS    1  1  1  1  1  1  1  1  1  1  1  1  1  1  1  1  1  1  1  1
CENTRE ASSIGNMENTS    1  1  1  1  1  1  1  1  1  1  1  1  1  1  1  1  1  1  1  1
CENTRE ASSIGNMENTS    1  1  1  1  1  1  1  1  1  1  1  1  1  1  1  1  1  1  1  1
CENTRE ASSIGNMENTS    1  1  1  1  1  1  1  1  1  1  1  2  2  2  2  2  2  2  2  2
CENTRE ASSIGNMENTS    2  2  2  2  2  2  2  2  2  2  2  2  2  2  2  2  2  2  2  2
CENTRE ASSIGNMENTS    2  2  2  2  2  2  2  2  2  2  2  2  2  2  2  2  2  2  2  2
CENTRE ASSIGNMENTS    2  2  2  2  2  2  2  2  2  2  2  2  2  2  2  2  2  2  2  2
CENTRE ASSIGNMENTS    2  2  2  2  2  2  2  2  2  2  2  2  2  2  2  2  2  2  2  2
CENTRE ASSIGNMENTS    2  2  2  2  2  2  2  2  2  2  2  2  2  2  2  2  2  2  2  2
CENTRE ASSIGNMENTS    2  2  2  2  2  2  2  2  2  2  2  2  2  2  2  2  2  2  2  2
CENTRE ASSIGNMENTS    2  2  3  3  3  3  3  3  3  3  3  3  3  3  3  3  3  3  3  3
CENTRE ASSIGNMENTS    3  3  3  3  3  3  3  3  3  4  4  4  4  4  4  4  4  4  4  4
CENTRE ASSIGNMENTS    4  4  4  4  4  4  4  4  4  4  4  4  4  4  4  4  5  5  5  5
CENTRE ASSIGNMENTS    5  5  5  5  5  5  5  5  5  5  5  5  5  5  5  5  5  5  5  5
CENTRE ASSIGNMENTS    5  5  5  6  6  6  6  6  6  6  6  6  6  6  6  6  6  6  6  6
CENTRE ASSIGNMENTS    6  6  6  6  6  6  6  6  6  6  7  7  7  7  7  7  7  7  7  7
CENTRE ASSIGNMENTS    7  7  7  7  7  7  7  7  7  7  7  7  7  7  7  7  7  8  8  8
CENTRE ASSIGNMENTS    8  8  8  8  8  8  8  8  8  8  8  8  8  8  8  8  8  8  8  8
CENTRE ASSIGNMENTS    8  8  8  8
TYPE ASSIGNMENTS      1  1  1  1  1  1  1  1  1  1  1  1  1  1  1  1  1  1  1  1
TYPE ASSIGNMENTS      1  1  1  1  1  1  1  1  1  1  1  1  1  1  1  1  1  1  1  1
TYPE ASSIGNMENTS      1  1  2  2  2  2  2  2  2  3  3  3  3  3  3  3  4  4  4  4
TYPE ASSIGNMENTS      4  4  4  2  2  2  2  2  2  2  3  3  3  3  3  3  3  4  4  4
TYPE ASSIGNMENTS      4  4  4  4  2  3  4  2  3  4  2  3  4  5  6  7  8  9 10  5
TYPE ASSIGNMENTS      6  7  8  9 10  5  6  7  8  9 10 11 12 13 17 14 15 18 19 16
TYPE ASSIGNMENTS     20 11 12 13 17 14 15 18 19 16 20  1  1  1  1  1  1  1  1  1
TYPE ASSIGNMENTS      1  1  1  1  1  1  1  1  1  1  1  1  1  1  1  1  1  1  1  1
TYPE ASSIGNMENTS      1  1  1  1  1  1  1  1  1  1  1  1  1  2  2  2  2  2  2  2
TYPE ASSIGNMENTS      3  3  3  3  3  3  3  4  4  4  4  4  4  4  2  2  2  2  2  2
TYPE ASSIGNMENTS      2  3  3  3  3  3  3  3  4  4  4  4  4  4  4  2  3  4  2  3
TYPE ASSIGNMENTS      4  2  3  4  5  6  7  8  9 10  5  6  7  8  9 10  5  6  7  8
TYPE ASSIGNMENTS      9 10 11 12 13 17 14 15 18 19 16 20 11 12 13 17 14 15 18 19
TYPE ASSIGNMENTS     16 20  1  1  1  1  1  1  2  3  4  2  3  4  2  3  4  5  6  7
TYPE ASSIGNMENTS      8  9 10  5  6  7  8  9 10  1  1  1  1  1  1  2  3  4  2  3
TYPE ASSIGNMENTS      4  2  3  4  5  6  7  8  9 10  5  6  7  8  9 10  1  1  1  1
TYPE ASSIGNMENTS      1  1  2  3  4  2  3  4  2  3  4  5  6  7  8  9 10  5  6  7
TYPE ASSIGNMENTS      8  9 10  1  1  1  1  1  1  2  3  4  2  3  4  2  3  4  5  6
TYPE ASSIGNMENTS      7  8  9 10  5  6  7  8  9 10  1  1  1  1  1  1  2  3  4  2
TYPE ASSIGNMENTS      3  4  2  3  4  5  6  7  8  9 10  5  6  7  8  9 10  1  1  1
TYPE ASSIGNMENTS      1  1  1  2  3  4  2  3  4  2  3  4  5  6  7  8  9 10  5  6
TYPE ASSIGNMENTS      7  8  9 10
EXPONENTS  0.2549000D+06 0.3819000D+05 0.8690000D+04 0.2462000D+04 0.8048000D+03
EXPONENTS  0.2913000D+03 0.1136000D+03 0.4675000D+02 0.1982000D+02 0.7708000D+01
EXPONENTS  0.3340000D+01 0.1402000D+01 0.2070000D+00 0.2549000D+06 0.3819000D+05
EXPONENTS  0.8690000D+04 0.2462000D+04 0.8048000D+03 0.2913000D+03 0.1136000D+03
EXPONENTS  0.4675000D+02 0.1982000D+02 0.7708000D+01 0.3340000D+01 0.1402000D+01
EXPONENTS  0.2070000D+00 0.2549000D+06 0.3819000D+05 0.8690000D+04 0.2462000D+04
EXPONENTS  0.8048000D+03 0.2913000D+03 0.1136000D+03 0.4675000D+02 0.1982000D+02
EXPONENTS  0.7708000D+01 0.3340000D+01 0.1402000D+01 0.2070000D+00 0.4387000D+00
EXPONENTS  0.7944000D-01 0.3300000D-01 0.4815000D+03 0.1139000D+03 0.3623000D+02
EXPONENTS  0.1334000D+02 0.5252000D+01 0.2120000D+01 0.2528000D+00 0.4815000D+03
EXPONENTS  0.1139000D+03 0.3623000D+02 0.1334000D+02 0.5252000D+01 0.2120000D+01
EXPONENTS  0.2528000D+00 0.4815000D+03 0.1139000D+03 0.3623000D+02 0.1334000D+02
EXPONENTS  0.5252000D+01 0.2120000D+01 0.2528000D+00 0.4815000D+03 0.1139000D+03
EXPONENTS  0.3623000D+02 0.1334000D+02 0.5252000D+01 0.2120000D+01 0.2528000D+00
EXPONENTS  0.4815000D+03 0.1139000D+03 0.3623000D+02 0.1334000D+02 0.5252000D+01
EXPONENTS  0.2120000D+01 0.2528000D+00 0.4815000D+03 0.1139000D+03 0.3623000D+02
EXPONENTS  0.1334000D+02 0.5252000D+01 0.2120000D+01 0.2528000D+00 0.8561000D+00
EXPONENTS  0.8561000D+00 0.8561000D+00 0.7889000D-01 0.7889000D-01 0.7889000D-01
EXPONENTS  0.2370000D-01 0.2370000D-01 0.2370000D-01 0.1590000D+00 0.1590000D+00
EXPONENTS  0.1590000D+00 0.1590000D+00 0.1590000D+00 0.1590000D+00 0.4810000D+00
EXPONENTS  0.4810000D+00 0.4810000D+00 0.4810000D+00 0.4810000D+00 0.4810000D+00
EXPONENTS  0.5560000D-01 0.5560000D-01 0.5560000D-01 0.5560000D-01 0.5560000D-01
EXPONENTS  0.5560000D-01 0.3360000D+00 0.3360000D+00 0.3360000D+00 0.3360000D+00
EXPONENTS  0.3360000D+00 0.3360000D+00 0.3360000D+00 0.3360000D+00 0.3360000D+00
EXPONENTS  0.3360000D+00 0.1250000D+00 0.1250000D+00 0.1250000D+00 0.1250000D+00
EXPONENTS  0.1250000D+00 0.1250000D+00 0.1250000D+00 0.1250000D+00 0.1250000D+00
EXPONENTS  0.1250000D+00 0.2549000D+06 0.3819000D+05 0.8690000D+04 0.2462000D+04
EXPONENTS  0.8048000D+03 0.2913000D+03 0.1136000D+03 0.4675000D+02 0.1982000D+02
EXPONENTS  0.7708000D+01 0.3340000D+01 0.1402000D+01 0.2070000D+00 0.2549000D+06
EXPONENTS  0.3819000D+05 0.8690000D+04 0.2462000D+04 0.8048000D+03 0.2913000D+03
EXPONENTS  0.1136000D+03 0.4675000D+02 0.1982000D+02 0.7708000D+01 0.3340000D+01
EXPONENTS  0.1402000D+01 0.2070000D+00 0.2549000D+06 0.3819000D+05 0.8690000D+04
EXPONENTS  0.2462000D+04 0.8048000D+03 0.2913000D+03 0.1136000D+03 0.4675000D+02
EXPONENTS  0.1982000D+02 0.7708000D+01 0.3340000D+01 0.1402000D+01 0.2070000D+00
EXPONENTS  0.4387000D+00 0.7944000D-01 0.3300000D-01 0.4815000D+03 0.1139000D+03
EXPONENTS  0.3623000D+02 0.1334000D+02 0.5252000D+01 0.2120000D+01 0.2528000D+00
EXPONENTS  0.4815000D+03 0.1139000D+03 0.3623000D+02 0.1334000D+02 0.5252000D+01
EXPONENTS  0.2120000D+01 0.2528000D+00 0.4815000D+03 0.1139000D+03 0.3623000D+02
EXPONENTS  0.1334000D+02 0.5252000D+01 0.2120000D+01 0.2528000D+00 0.4815000D+03
EXPONENTS  0.1139000D+03 0.3623000D+02 0.1334000D+02 0.5252000D+01 0.2120000D+01
EXPONENTS  0.2528000D+00 0.4815000D+03 0.1139000D+03 0.3623000D+02 0.1334000D+02
EXPONENTS  0.5252000D+01 0.2120000D+01 0.2528000D+00 0.4815000D+03 0.1139000D+03
EXPONENTS  0.3623000D+02 0.1334000D+02 0.5252000D+01 0.2120000D+01 0.2528000D+00
EXPONENTS  0.8561000D+00 0.8561000D+00 0.8561000D+00 0.7889000D-01 0.7889000D-01
EXPONENTS  0.7889000D-01 0.2370000D-01 0.2370000D-01 0.2370000D-01 0.1590000D+00
EXPONENTS  0.1590000D+00 0.1590000D+00 0.1590000D+00 0.1590000D+00 0.1590000D+00
EXPONENTS  0.4810000D+00 0.4810000D+00 0.4810000D+00 0.4810000D+00 0.4810000D+00
EXPONENTS  0.4810000D+00 0.5560000D-01 0.5560000D-01 0.5560000D-01 0.5560000D-01
EXPONENTS  0.5560000D-01 0.5560000D-01 0.3360000D+00 0.3360000D+00 0.3360000D+00
EXPONENTS  0.3360000D+00 0.3360000D+00 0.3360000D+00 0.3360000D+00 0.3360000D+00
EXPONENTS  0.3360000D+00 0.3360000D+00 0.1250000D+00 0.1250000D+00 0.1250000D+00
EXPONENTS  0.1250000D+00 0.1250000D+00 0.1250000D+00 0.1250000D+00 0.1250000D+00
EXPONENTS  0.1250000D+00 0.1250000D+00 0.3387000D+02 0.5095000D+01 0.1159000D+01
EXPONENTS  0.3258000D+00 0.1027000D+00 0.2526000D-01 0.1407000D+01 0.1407000D+01
EXPONENTS  0.1407000D+01 0.3880000D+00 0.3880000D+00 0.3880000D+00 0.1020000D+00
EXPONENTS  0.1020000D+00 0.1020000D+00 0.1057000D+01 0.1057000D+01 0.1057000D+01
EXPONENTS  0.1057000D+01 0.1057000D+01 0.1057000D+01 0.2470000D+00 0.2470000D+00
EXPONENTS  0.2470000D+00 0.2470000D+00 0.2470000D+00 0.2470000D+00 0.3387000D+02
EXPONENTS  0.5095000D+01 0.1159000D+01 0.3258000D+00 0.1027000D+00 0.2526000D-01
EXPONENTS  0.1407000D+01 0.1407000D+01 0.1407000D+01 0.3880000D+00 0.3880000D+00
EXPONENTS  0.3880000D+00 0.1020000D+00 0.1020000D+00 0.1020000D+00 0.1057000D+01
EXPONENTS  0.1057000D+01 0.1057000D+01 0.1057000D+01 0.1057000D+01 0.1057000D+01
EXPONENTS  0.2470000D+00 0.2470000D+00 0.2470000D+00 0.2470000D+00 0.2470000D+00
EXPONENTS  0.2470000D+00 0.3387000D+02 0.5095000D+01 0.1159000D+01 0.3258000D+00
EXPONENTS  0.1027000D+00 0.2526000D-01 0.1407000D+01 0.1407000D+01 0.1407000D+01
EXPONENTS  0.3880000D+00 0.3880000D+00 0.3880000D+00 0.1020000D+00 0.1020000D+00
EXPONENTS  0.1020000D+00 0.1057000D+01 0.1057000D+01 0.1057000D+01 0.1057000D+01
EXPONENTS  0.1057000D+01 0.1057000D+01 0.2470000D+00 0.2470000D+00 0.2470000D+00
EXPONENTS  0.2470000D+00 0.2470000D+00 0.2470000D+00 0.3387000D+02 0.5095000D+01
EXPONENTS  0.1159000D+01 0.3258000D+00 0.1027000D+00 0.2526000D-01 0.1407000D+01
EXPONENTS  0.1407000D+01 0.1407000D+01 0.3880000D+00 0.3880000D+00 0.3880000D+00
EXPONENTS  0.1020000D+00 0.1020000D+00 0.1020000D+00 0.1057000D+01 0.1057000D+01
EXPONENTS  0.1057000D+01 0.1057000D+01 0.1057000D+01 0.1057000D+01 0.2470000D+00
EXPONENTS  0.2470000D+00 0.2470000D+00 0.2470000D+00 0.2470000D+00 0.2470000D+00
EXPONENTS  0.3387000D+02 0.5095000D+01 0.1159000D+01 0.3258000D+00 0.1027000D+00
EXPONENTS  0.2526000D-01 0.1407000D+01 0.1407000D+01 0.1407000D+01 0.3880000D+00
EXPONENTS  0.3880000D+00 0.3880000D+00 0.1020000D+00 0.1020000D+00 0.1020000D+00
EXPONENTS  0.1057000D+01 0.1057000D+01 0.1057000D+01 0.1057000D+01 0.1057000D+01
EXPONENTS  0.1057000D+01 0.2470000D+00 0.2470000D+00 0.2470000D+00 0.2470000D+00
EXPONENTS  0.2470000D+00 0.2470000D+00 0.3387000D+02 0.5095000D+01 0.1159000D+01
EXPONENTS  0.3258000D+00 0.1027000D+00 0.2526000D-01 0.1407000D+01 0.1407000D+01
EXPONENTS  0.1407000D+01 0.3880000D+00 0.3880000D+00 0.3880000D+00 0.1020000D+00
EXPONENTS  0.1020000D+00 0.1020000D+00 0.1057000D+01 0.1057000D+01 0.1057000D+01
EXPONENTS  0.1057000D+01 0.1057000D+01 0.1057000D+01 0.2470000D+00 0.2470000D+00
EXPONENTS  0.2470000D+00 0.2470000D+00 0.2470000D+00 0.2470000D+00
MO    1     MO 0.0        OCC NO =    2.0000000  ORB. ENERGY =  -65.830615
  0.35843880D+00  0.67048078D+00  0.11578902D+01  0.18702945D+01  0.28166250D+01
  0.38305967D+01  0.43607460D+01  0.35328022D+01  0.14340342D+01  0.13076420D+00
 -0.50252971D-02  0.16804232D-02  0.94301539D-04 -0.20791244D-02 -0.38915485D-02
 -0.67305827D-02 -0.10939346D-01 -0.16737109D-01 -0.23751115D-01 -0.29793801D-01
 -0.30377362D-01 -0.18664455D-01  0.40677653D-02  0.14899622D-01  0.68145627D-02
 -0.36172072D-04  0.10603039D-02  0.19831385D-02  0.34342586D-02  0.55760246D-02
  0.85590850D-02  0.12157798D-01  0.15424096D-01  0.15968107D-01  0.10285401D-01
 -0.25297479D-02 -0.10312031D-01 -0.89938852D-02  0.45837521D-02 -0.20598796D-02
 -0.88964567D-02  0.21887701D-03 -0.53312913D-14 -0.70322480D-14 -0.78111001D-14
 -0.66852007D-14 -0.38198700D-14 -0.12396311D-14 -0.87286002D-18 -0.63574615D-06
 -0.83858194D-06 -0.93145854D-06 -0.79719722D-06 -0.45551209D-06 -0.14782360D-06
 -0.10408686D-09  0.54491484D-02  0.71877076D-02  0.79837775D-02  0.68329882D-02
  0.39043145D-02  0.12670352D-02  0.89215604D-06  0.45978119D-14  0.62874486D-14
  0.68350900D-14  0.62742552D-14  0.34197239D-14  0.14430578D-14 -0.49769313D-15
  0.26919355D-06  0.36811872D-06  0.40018213D-06  0.36734627D-06  0.20021863D-06
  0.84488418D-07 -0.29139031D-07 -0.47908049D-02 -0.65513641D-02 -0.71219927D-02
 -0.65376169D-02 -0.35632667D-02 -0.15036301D-02  0.51858379D-03  0.23182180D-15
  0.47882169D-07 -0.10828461D-03 -0.10086109D-14 -0.39396729D-08  0.48452561D-03
 -0.52047858D-17 -0.16155057D-09  0.12881820D-04  0.60094024D-04  0.60089962D-04
 -0.12018399D-03  0.26791424D-15 -0.28319138D-15 -0.30935085D-08  0.80972330D-04
  0.80961480D-04 -0.16193381D-03  0.10208015D-15 -0.11614421D-15 -0.43010031D-08
  0.55968672D-05  0.55968897D-05 -0.11193757D-04  0.11149342D-16  0.90852086D-17
 -0.75992875D-10 -0.21545690D-16  0.10609187D-03 -0.10539903D-03 -0.39132687D-17
 -0.31827836D-03  0.15809986D-03  0.68550340D-16  0.27579903D-08  0.15809723D-03
  0.21656236D-15 -0.17994260D-17 -0.26635289D-04  0.31623247D-04  0.13309356D-16
  0.79905501D-04 -0.47435095D-04 -0.79110775D-17  0.36585210D-09 -0.47434645D-04
  0.16200747D-16 -0.35843880D+00 -0.67048078D+00 -0.11578902D+01 -0.18702945D+01
 -0.28166250D+01 -0.38305967D+01 -0.43607459D+01 -0.35328022D+01 -0.14340342D+01
 -0.13076420D+00  0.50252971D-02 -0.16804232D-02 -0.94301539D-04  0.20791244D-02
  0.38915484D-02  0.67305827D-02  0.10939346D-01  0.16737109D-01  0.23751115D-01
  0.29793801D-01  0.30377362D-01  0.18664455D-01 -0.40677653D-02 -0.14899622D-01
 -0.68145627D-02  0.36172072D-04 -0.10603039D-02 -0.19831385D-02 -0.34342586D-02
 -0.55760246D-02 -0.85590850D-02 -0.12157798D-01 -0.15424096D-01 -0.15968107D-01
 -0.10285401D-01  0.25297479D-02  0.10312031D-01  0.89938852D-02 -0.45837521D-02
  0.20598796D-02  0.88964567D-02 -0.21887701D-03  0.88052010D-14  0.11614514D-13
  0.12900872D-13  0.11041328D-13  0.63089260D-14  0.20473840D-14  0.14416222D-17
 -0.63574610D-06 -0.83858187D-06 -0.93145846D-06 -0.79719715D-06 -0.45551205D-06
 -0.14782359D-06 -0.10408686D-09  0.54491484D-02  0.71877076D-02  0.79837775D-02
  0.68329882D-02  0.39043145D-02  0.12670352D-02  0.89215604D-06 -0.75569663D-14
 -0.10334054D-13 -0.11234158D-13 -0.10312369D-13 -0.56206601D-14 -0.23718106D-14
  0.81800872D-15  0.26919351D-06  0.36811866D-06  0.40018207D-06  0.36734621D-06
  0.20021860D-06  0.84488404D-07 -0.29139026D-07 -0.47908049D-02 -0.65513641D-02
 -0.71219927D-02 -0.65376169D-02 -0.35632667D-02 -0.15036301D-02  0.51858379D-03
 -0.40311688D-15  0.47882166D-07 -0.10828461D-03  0.11336665D-14 -0.39396667D-08
  0.48452561D-03  0.25182910D-16 -0.16155023D-09  0.12881820D-04 -0.60094024D-04
 -0.60089962D-04  0.12018399D-03  0.48939559D-15 -0.28340189D-15  0.30935066D-08
 -0.80972330D-04 -0.80961480D-04  0.16193381D-03  0.28926240D-15 -0.25049107D-15
  0.43010018D-08 -0.55968672D-05 -0.55968897D-05  0.11193757D-04  0.45650681D-16
  0.10527193D-16  0.75993008D-10  0.30020936D-16  0.10609187D-03 -0.10539903D-03
  0.81464675D-17 -0.31827836D-03  0.15809986D-03 -0.98209275D-16  0.27579898D-08
  0.15809723D-03 -0.35810474D-15  0.31174809D-17 -0.26635289D-04  0.31623247D-04
 -0.47048648D-17  0.79905501D-04 -0.47435095D-04 -0.46475778D-17  0.36585203D-09
 -0.47434645D-04 -0.23138176D-16  0.29527718D-04  0.53254455D-04  0.78523663D-04
 -0.41144814D-03  0.23312368D-02 -0.46911105D-04  0.12691644D-15 -0.17004173D-03
  0.64702814D-05 -0.14542801D-15  0.61884661D-03  0.19004673D-03  0.10363982D-15
 -0.31000551D-03 -0.14586681D-03  0.12499767D-03 -0.20195811D-03  0.76960445D-04
  0.15777836D-15 -0.75985844D-16 -0.22167724D-03  0.42886466D-04 -0.80755660D-04
  0.37869193D-04 -0.27113239D-16  0.48878796D-16 -0.11178849D-03  0.29530627D-04
  0.53259702D-04  0.78531400D-04 -0.41147390D-03  0.23312151D-02 -0.46913005D-04
  0.14727454D-03  0.85026069D-04  0.64623213D-05 -0.53596145D-03 -0.30943502D-03
  0.19005831D-03  0.26847000D-03  0.15500153D-03 -0.14585991D-03 -0.12022649D-03
  0.43260608D-04  0.76965881D-04 -0.28315901D-03  0.19198306D-03  0.11084135D-03
 -0.49846149D-04  0.11976678D-04  0.37869471D-04 -0.10707807D-03  0.96815573D-04
  0.55896133D-04  0.29530627D-04  0.53259702D-04  0.78531400D-04 -0.41147390D-03
  0.23312151D-02 -0.46913005D-04 -0.14727454D-03  0.85026069D-04  0.64623213D-05
  0.53596145D-03 -0.30943502D-03  0.19005831D-03 -0.26847000D-03  0.15500153D-03
 -0.14585991D-03 -0.12022649D-03  0.43260608D-04  0.76965881D-04  0.28315901D-03
 -0.19198306D-03  0.11084135D-03 -0.49846149D-04  0.11976678D-04  0.37869471D-04
  0.10707807D-03 -0.96815573D-04  0.55896133D-04 -0.29527718D-04 -0.53254455D-04
 -0.78523663D-04  0.41144813D-03 -0.23312368D-02  0.46911105D-04 -0.21895730D-15
 -0.17004173D-03  0.64702820D-05  0.25624529D-15  0.61884661D-03  0.19004673D-03
 -0.17256171D-16 -0.31000551D-03 -0.14586681D-03 -0.12499767D-03  0.20195811D-03
 -0.76960445D-04  0.10980237D-15 -0.66238540D-16  0.22167724D-03 -0.42886466D-04
  0.80755659D-04 -0.37869193D-04  0.60710919D-16  0.55407165D-16  0.11178849D-03
 -0.29530627D-04 -0.53259702D-04 -0.78531400D-04  0.41147390D-03 -0.23312151D-02
  0.46913005D-04 -0.14727454D-03  0.85026068D-04  0.64623219D-05  0.53596144D-03
 -0.30943502D-03  0.19005831D-03 -0.26847000D-03  0.15500153D-03 -0.14585991D-03
  0.12022649D-03 -0.43260608D-04 -0.76965881D-04 -0.28315901D-03  0.19198306D-03
 -0.11084135D-03  0.49846149D-04 -0.11976678D-04 -0.37869471D-04 -0.10707807D-03
  0.96815573D-04 -0.55896133D-04 -0.29530627D-04 -0.53259702D-04 -0.78531400D-04
  0.41147390D-03 -0.23312151D-02  0.46913005D-04  0.14727454D-03  0.85026068D-04
  0.64623219D-05 -0.53596144D-03 -0.30943502D-03  0.19005831D-03  0.26847000D-03
  0.15500153D-03 -0.14585991D-03  0.12022649D-03 -0.43260608D-04 -0.76965881D-04
  0.28315901D-03 -0.19198306D-03 -0.11084135D-03  0.49846149D-04 -0.11976678D-04
 -0.37869471D-04  0.10707807D-03 -0.96815573D-04 -0.55896133D-04
MO    2     MO 0.0        OCC NO =    2.0000000  ORB. ENERGY =  -65.830601
  0.35830866D+00  0.67023734D+00  0.11574698D+01  0.18696154D+01  0.28156023D+01
  0.38292058D+01  0.43591626D+01  0.35315195D+01  0.14335135D+01  0.13071672D+00
 -0.50234725D-02  0.16798130D-02  0.94267300D-04 -0.18221341D-02 -0.34105334D-02
 -0.58986487D-02 -0.95871872D-02 -0.14668318D-01 -0.20815357D-01 -0.26111137D-01
 -0.26622566D-01 -0.16357434D-01  0.35649689D-02  0.13057954D-01  0.59722483D-02
 -0.31701021D-04  0.91105613D-03  0.17039930D-02  0.29508542D-02  0.47911464D-02
  0.73543128D-02  0.10446473D-01  0.13253008D-01  0.13720444D-01  0.88376334D-02
 -0.21736619D-02 -0.88605150D-02 -0.77279108D-02  0.39385456D-02 -0.23523846D-02
 -0.18457386D-02  0.99344539D-04 -0.27424014D-14 -0.36173688D-14 -0.40180081D-14
 -0.34388486D-14 -0.19649304D-14 -0.63766276D-15 -0.44899676D-18 -0.71382236D-06
 -0.94156849D-06 -0.10458513D-05 -0.89510129D-06 -0.51145369D-06 -0.16597787D-06
 -0.11686981D-09  0.53522733D-03  0.70599243D-03  0.78418416D-03  0.67115111D-03
  0.38349035D-03  0.12445098D-03  0.87629527D-07  0.21084517D-14  0.28832806D-14
  0.31344164D-14  0.28772304D-14  0.15682074D-14  0.66175339D-15 -0.22823072D-15
  0.33895869D-06  0.46352164D-06  0.50389471D-06  0.46254900D-06  0.25210799D-06
  0.10638473D-06 -0.36690803D-07 -0.62561297D-03 -0.85551769D-03 -0.93003390D-03
 -0.85372249D-03 -0.46531342D-03 -0.19635333D-03  0.67719881D-04  0.19830874D-15
  0.47800057D-07  0.31231384D-04 -0.46628383D-15  0.23657814D-09 -0.15720472D-03
 -0.46653743D-16 -0.19609959D-09  0.30210393D-06  0.69377709D-04  0.69370652D-04
 -0.13874836D-03  0.22964576D-15 -0.57005176D-16 -0.84567606D-08  0.80406861D-04
  0.80390784D-04 -0.16079765D-03  0.16059239D-16  0.40220684D-16 -0.35950069D-08
  0.32026447D-06  0.31983990D-06 -0.64010437D-06  0.63328776D-16 -0.28123899D-16
 -0.65298238D-09  0.15456316D-17  0.13806023D-03 -0.70559908D-04  0.12759197D-16
 -0.41418585D-03  0.10584240D-03 -0.17396092D-16  0.51459960D-08  0.10583732D-03
  0.38776728D-16 -0.29506054D-17 -0.61740719D-05  0.23136267D-04  0.90990488D-17
  0.18520597D-04 -0.34704170D-04 -0.24723254D-18  0.16190281D-08 -0.34704631D-04
  0.54482889D-16  0.35830866D+00  0.67023734D+00  0.11574698D+01  0.18696154D+01
  0.28156023D+01  0.38292059D+01  0.43591626D+01  0.35315195D+01  0.14335135D+01
  0.13071672D+00 -0.50234725D-02  0.16798130D-02  0.94267300D-04 -0.18221341D-02
 -0.34105334D-02 -0.58986487D-02 -0.95871872D-02 -0.14668318D-01 -0.20815357D-01
 -0.26111137D-01 -0.26622566D-01 -0.16357434D-01  0.35649689D-02  0.13057954D-01
  0.59722483D-02 -0.31701021D-04  0.91105614D-03  0.17039930D-02  0.29508542D-02
  0.47911464D-02  0.73543128D-02  0.10446473D-01  0.13253008D-01  0.13720445D-01
  0.88376335D-02 -0.21736619D-02 -0.88605151D-02 -0.77279108D-02  0.39385457D-02
 -0.23523846D-02 -0.18457386D-02  0.99344540D-04 -0.81105592D-14 -0.10698246D-13
 -0.11883123D-13 -0.10170278D-13 -0.58112152D-14 -0.18858660D-14 -0.13278927D-17
  0.71382235D-06  0.94156847D-06  0.10458513D-05  0.89510128D-06  0.51145368D-06
  0.16597787D-06  0.11686981D-09 -0.53522735D-03 -0.70599246D-03 -0.78418419D-03
 -0.67115114D-03 -0.38349037D-03 -0.12445098D-03 -0.87629530D-07  0.68908379D-14
  0.94231323D-14  0.10243894D-13  0.94033589D-14  0.51252125D-14  0.21627412D-14
 -0.74590322D-15 -0.33895868D-06 -0.46352163D-06 -0.50389470D-06 -0.46254899D-06
 -0.25210798D-06 -0.10638473D-06  0.36690802D-07  0.62561299D-03  0.85551771D-03
  0.93003393D-03  0.85372251D-03  0.46531344D-03  0.19635333D-03 -0.67719883D-04
  0.41345410D-15 -0.47800056D-07 -0.31231384D-04 -0.80522255D-15 -0.23657865D-09
  0.15720472D-03 -0.32503991D-16  0.19609956D-09 -0.30210400D-06  0.69377709D-04
  0.69370652D-04 -0.13874836D-03 -0.38616651D-15  0.28537379D-15 -0.84567604D-08
  0.80406862D-04  0.80390784D-04 -0.16079765D-03 -0.25888357D-15  0.98106764D-16
 -0.35950065D-08  0.32026450D-06  0.31983993D-06 -0.64010443D-06 -0.64953458D-16
  0.32030369D-16 -0.65298236D-09 -0.14217619D-16 -0.13806023D-03  0.70559909D-04
  0.64226877D-17  0.41418585D-03 -0.10584240D-03  0.36230169D-16 -0.51459960D-08
 -0.10583733D-03  0.23133129D-15 -0.26909232D-17  0.61740720D-05 -0.23136267D-04
 -0.89548522D-18 -0.18520597D-04  0.34704170D-04  0.89682548D-17 -0.16190281D-08
  0.34704632D-04  0.58612818D-16  0.57239428D-04  0.10323367D-03  0.15221798D-03
 -0.73395903D-03  0.56778952D-03 -0.12762569D-04  0.17386024D-15 -0.18329205D-03
 -0.15594990D-03 -0.17398348D-15  0.67600031D-03  0.40810249D-03 -0.83290568D-16
 -0.63020743D-04  0.40207062D-04  0.15266755D-03 -0.13106242D-03 -0.21605131D-04
 -0.43421087D-16  0.58223425D-16 -0.34564242D-03  0.40407196D-04 -0.57867190D-04
  0.17459994D-04  0.62717617D-16 -0.63473591D-17 -0.10278571D-03  0.57242128D-04
  0.10323854D-03  0.15222516D-03 -0.73399474D-03  0.56775488D-03 -0.12765513D-04
  0.15875301D-03  0.91656523D-04 -0.15595668D-03 -0.58546622D-03 -0.33801879D-03
  0.40811534D-03  0.54573151D-04  0.31506340D-04  0.40214294D-04 -0.60140082D-04
  0.81736351D-04 -0.21596269D-04 -0.24572423D-03  0.29933670D-03  0.17282149D-03
 -0.33300170D-04  0.15838763D-04  0.17461407D-04 -0.85111728D-04  0.89023675D-04
  0.51396678D-04  0.57242128D-04  0.10323854D-03  0.15222516D-03 -0.73399474D-03
  0.56775488D-03 -0.12765513D-04 -0.15875301D-03  0.91656523D-04 -0.15595668D-03
  0.58546622D-03 -0.33801879D-03  0.40811534D-03 -0.54573151D-04  0.31506340D-04
  0.40214294D-04 -0.60140082D-04  0.81736351D-04 -0.21596269D-04  0.24572423D-03
 -0.29933670D-03  0.17282149D-03 -0.33300170D-04  0.15838763D-04  0.17461407D-04
  0.85111728D-04 -0.89023675D-04  0.51396678D-04  0.57239429D-04  0.10323367D-03
  0.15221798D-03 -0.73395903D-03  0.56778953D-03 -0.12762569D-04  0.17425078D-15
  0.18329205D-03  0.15594990D-03 -0.19674758D-15 -0.67600031D-03 -0.40810249D-03
 -0.31092245D-16  0.63020744D-04 -0.40207061D-04  0.15266755D-03 -0.13106242D-03
 -0.21605131D-04  0.25696779D-17 -0.60783067D-16 -0.34564242D-03  0.40407196D-04
 -0.57867190D-04  0.17459994D-04 -0.63963312D-16 -0.33352933D-19 -0.10278571D-03
  0.57242128D-04  0.10323854D-03  0.15222516D-03 -0.73399474D-03  0.56775489D-03
 -0.12765513D-04  0.15875302D-03 -0.91656523D-04  0.15595668D-03 -0.58546622D-03
  0.33801879D-03 -0.40811534D-03  0.54573152D-04 -0.31506341D-04 -0.40214294D-04
 -0.60140083D-04  0.81736351D-04 -0.21596269D-04  0.24572423D-03 -0.29933670D-03
  0.17282149D-03 -0.33300170D-04  0.15838763D-04  0.17461407D-04  0.85111728D-04
 -0.89023675D-04  0.51396678D-04  0.57242128D-04  0.10323854D-03  0.15222516D-03
 -0.73399474D-03  0.56775489D-03 -0.12765513D-04 -0.15875302D-03 -0.91656523D-04
  0.15595668D-03  0.58546622D-03  0.33801879D-03 -0.40811534D-03 -0.54573152D-04
 -0.31506341D-04 -0.40214294D-04 -0.60140083D-04  0.81736351D-04 -0.21596269D-04
 -0.24572423D-03  0.29933670D-03  0.17282149D-03 -0.33300170D-04  0.15838763D-04
  0.17461407D-04 -0.85111728D-04  0.89023675D-04  0.51396678D-04
MO    3     MO 0.0        OCC NO =    2.0000000  ORB. ENERGY =   -5.213643
 -0.19295783D-02 -0.36093892D-02 -0.62332530D-02 -0.10068328D-01 -0.15162695D-01
 -0.20621194D-01 -0.23475139D-01 -0.19018082D-01 -0.77198151D-02 -0.70394095D-03
  0.27052607D-04 -0.90461971D-05 -0.50765208D-06 -0.92081760D-01 -0.17235170D+00
 -0.29808889D+00 -0.48448962D+00 -0.74126516D+00 -0.10519065D+01 -0.13195293D+01
 -0.13453745D+01 -0.82662482D+00  0.18015612D+00  0.65988520D+00  0.30180826D+00
 -0.16020148D-02 -0.11210486D-02 -0.20967522D-02 -0.36310066D-02 -0.58954740D-02
 -0.90494334D-02 -0.12854316D-01 -0.16307739D-01 -0.16882916D-01 -0.10874650D-01
  0.26746766D-02  0.10902805D-01  0.95091432D-02 -0.48463544D-02  0.19213902D-01
  0.28883315D-02 -0.24511572D-03  0.16199171D-12  0.21367541D-12  0.23734089D-12
  0.20313035D-12  0.11606705D-12  0.37666287D-13  0.26521920D-16 -0.66025755D-04
 -0.87091374D-04 -0.96737122D-04 -0.82793341D-04 -0.47307450D-04 -0.15352299D-04
 -0.10809997D-07 -0.19806397D-02 -0.26125658D-02 -0.29019188D-02 -0.24836335D-02
 -0.14191282D-02 -0.46053804D-03 -0.32427813D-06 -0.13799941D-12 -0.18871242D-12
 -0.20514941D-12 -0.18831643D-12 -0.10264010D-12 -0.43312151D-13  0.14937836D-13
  0.25127848D-04  0.34362009D-04  0.37354965D-04  0.34289904D-04  0.18689390D-04
  0.78865637D-05 -0.27199802D-05  0.12298110D-02  0.16817507D-02  0.18282324D-02
  0.16782218D-02  0.91469900D-03  0.38598541D-03 -0.13312169D-03 -0.10670233D-13
 -0.49483414D-05 -0.96121848D-04  0.11533475D-13 -0.12752000D-05  0.23304318D-03
 -0.65144409D-16 -0.18441493D-07 -0.27975681D-07 -0.60613738D-04 -0.61051065D-04
  0.12166480D-03 -0.86709978D-14  0.89328383D-14 -0.16685287D-06 -0.94509834D-04
 -0.97099736D-04  0.19160957D-03 -0.69478303D-14  0.91923269D-15 -0.18651238D-05
  0.18676899D-05  0.18582213D-05 -0.37259112D-05 -0.15946474D-14  0.19179771D-14
  0.49278014D-07 -0.12114088D-15 -0.11714566D-03  0.58253044D-04 -0.54579405D-17
  0.35063891D-03 -0.87051513D-04  0.36888057D-15  0.79807027D-06 -0.87707618D-04
 -0.67049992D-14  0.17969683D-15  0.85219516D-05 -0.24100540D-04 -0.46044897D-15
 -0.25512963D-04  0.36158013D-04 -0.78641511D-16 -0.52892207D-07  0.36143608D-04
 -0.27718594D-14 -0.19295783D-02 -0.36093892D-02 -0.62332530D-02 -0.10068328D-01
 -0.15162695D-01 -0.20621194D-01 -0.23475139D-01 -0.19018082D-01 -0.77198151D-02
 -0.70394095D-03  0.27052607D-04 -0.90461971D-05 -0.50765208D-06 -0.92081760D-01
 -0.17235170D+00 -0.29808889D+00 -0.48448962D+00 -0.74126516D+00 -0.10519065D+01
 -0.13195293D+01 -0.13453745D+01 -0.82662483D+00  0.18015612D+00  0.65988520D+00
  0.30180826D+00 -0.16020148D-02 -0.11210486D-02 -0.20967522D-02 -0.36310066D-02
 -0.58954740D-02 -0.90494334D-02 -0.12854316D-01 -0.16307739D-01 -0.16882916D-01
 -0.10874650D-01  0.26746767D-02  0.10902805D-01  0.95091432D-02 -0.48463544D-02
  0.19213902D-01  0.28883315D-02 -0.24511572D-03  0.24120811D-12  0.31816593D-12
  0.35340419D-12  0.30246418D-12  0.17282560D-12  0.56085674D-13  0.39491542D-16
  0.66025755D-04  0.87091373D-04  0.96737121D-04  0.82793341D-04  0.47307450D-04
  0.15352299D-04  0.10809997D-07  0.19806397D-02  0.26125658D-02  0.29019188D-02
  0.24836335D-02  0.14191282D-02  0.46053805D-03  0.32427813D-06 -0.20336974D-12
 -0.27810550D-12 -0.30232869D-12 -0.27752193D-12 -0.15126072D-12 -0.63829120D-13
  0.22013889D-13 -0.25127847D-04 -0.34362008D-04 -0.37354964D-04 -0.34289904D-04
 -0.18689390D-04 -0.78865636D-05  0.27199801D-05 -0.12298110D-02 -0.16817507D-02
 -0.18282324D-02 -0.16782218D-02 -0.91469901D-03 -0.38598541D-03  0.13312169D-03
 -0.11518831D-13  0.49483414D-05  0.96121847D-04  0.32364842D-13  0.12751999D-05
 -0.23304318D-03  0.26384569D-14  0.18441489D-07  0.27975791D-07 -0.60613739D-04
 -0.61051065D-04  0.12166480D-03  0.14935415D-13 -0.73869426D-14 -0.16685285D-06
 -0.94509834D-04 -0.97099736D-04  0.19160957D-03  0.72258437D-14 -0.36213557D-14
 -0.18651238D-05  0.18676899D-05  0.18582213D-05 -0.37259112D-05  0.30690036D-14
 -0.76271066D-15  0.49278017D-07 -0.53613105D-16  0.11714566D-03 -0.58253044D-04
 -0.78504150D-16 -0.35063891D-03  0.87051513D-04  0.23934346D-15 -0.79807027D-06
  0.87707618D-04 -0.79494639D-14 -0.14314976D-15 -0.85219516D-05  0.24100540D-04
  0.21298673D-15  0.25512963D-04 -0.36158013D-04  0.21646256D-15  0.52892207D-07
 -0.36143608D-04 -0.29243446D-14 -0.61478118D-04 -0.11087832D-03 -0.16349001D-03
  0.80022306D-03 -0.83330414D-03  0.30081919D-04 -0.55856733D-14  0.22151171D-03
  0.11952329D-03  0.69599010D-14 -0.76322550D-03 -0.38814380D-03  0.22480209D-14
  0.10243001D-03 -0.23607845D-04 -0.30829073D-03  0.42622120D-03 -0.11793047D-03
 -0.90445133D-15 -0.13286792D-14  0.62934482D-03 -0.34062179D-04  0.58162316D-04
 -0.24100137D-04 -0.14154875D-14  0.29475105D-16  0.90527986D-04 -0.60861260D-04
 -0.10976579D-03 -0.16184959D-03  0.79636319D-03 -0.83724453D-03  0.29962628D-04
 -0.18942962D-03 -0.10973988D-03  0.11928329D-03  0.65678188D-03  0.37923512D-03