 Molden2AIM, Version 4.0.0 (06/02/2016)           Time: Sat Jun 30 05:33:24 2018
GAUSSIAN             41 MOL ORBITALS    657 PRIMITIVES        3 NUCLEI
  Si   1    (CENTRE  1)   0.00000000  0.00000000  0.00000000  CHARGE = 14.0
  Se   2    (CENTRE  2)   0.00000000  0.00000000  3.90870952  CHARGE = 34.0
  Se   3    (CENTRE  3)   0.00000000  0.00000000 -3.90870952  CHARGE = 34.0
CENTRE ASSIGNMENTS    1  1  1  1  1  1  1  1  1  1  1  1  1  1  1  1  1  1  1  1
CENTRE ASSIGNMENTS    1  1  1  1  1  1  1  1  1  1  1  1  1  1  1  1  1  1  1  1
CENTRE ASSIGNMENTS    1  1  1  1  1  1  1  1  1  1  1  1  1  1  1  1  1  1  1  1
CENTRE ASSIGNMENTS    1  1  1  1  1  1  1  1  1  1  1  1  1  1  1  1  1  1  1  1
CENTRE ASSIGNMENTS    1  1  1  1  1  1  1  1  1  1  1  1  1  1  1  1  1  1  1  1
CENTRE ASSIGNMENTS    1  1  1  1  1  1  1  1  1  1  1  1  1  1  1  1  1  1  1  1
CENTRE ASSIGNMENTS    1  1  1  1  1  1  1  1  1  1  1  2  2  2  2  2  2  2  2  2
CENTRE ASSIGNMENTS    2  2  2  2  2  2  2  2  2  2  2  2  2  2  2  2  2  2  2  2
CENTRE ASSIGNMENTS    2  2  2  2  2  2  2  2  2  2  2  2  2  2  2  2  2  2  2  2
CENTRE ASSIGNMENTS    2  2  2  2  2  2  2  2  2  2  2  2  2  2  2  2  2  2  2  2
CENTRE ASSIGNMENTS    2  2  2  2  2  2  2  2  2  2  2  2  2  2  2  2  2  2  2  2
CENTRE ASSIGNMENTS    2  2  2  2  2  2  2  2  2  2  2  2  2  2  2  2  2  2  2  2
CENTRE ASSIGNMENTS    2  2  2  2  2  2  2  2  2  2  2  2  2  2  2  2  2  2  2  2
CENTRE ASSIGNMENTS    2  2  2  2  2  2  2  2  2  2  2  2  2  2  2  2  2  2  2  2
CENTRE ASSIGNMENTS    2  2  2  2  2  2  2  2  2  2  2  2  2  2  2  2  2  2  2  2
CENTRE ASSIGNMENTS    2  2  2  2  2  2  2  2  2  2  2  2  2  2  2  2  2  2  2  2
CENTRE ASSIGNMENTS    2  2  2  2  2  2  2  2  2  2  2  2  2  2  2  2  2  2  2  2
CENTRE ASSIGNMENTS    2  2  2  2  2  2  2  2  2  2  2  2  2  2  2  2  2  2  2  2
CENTRE ASSIGNMENTS    2  2  2  2  2  2  2  2  2  2  2  2  2  2  2  2  2  2  2  2
CENTRE ASSIGNMENTS    2  2  2  2  2  2  2  2  2  2  2  2  2  2  3  3  3  3  3  3
CENTRE ASSIGNMENTS    3  3  3  3  3  3  3  3  3  3  3  3  3  3  3  3  3  3  3  3
CENTRE ASSIGNMENTS    3  3  3  3  3  3  3  3  3  3  3  3  3  3  3  3  3  3  3  3
CENTRE ASSIGNMENTS    3  3  3  3  3  3  3  3  3  3  3  3  3  3  3  3  3  3  3  3
CENTRE ASSIGNMENTS    3  3  3  3  3  3  3  3  3  3  3  3  3  3  3  3  3  3  3  3
CENTRE ASSIGNMENTS    3  3  3  3  3  3  3  3  3  3  3  3  3  3  3  3  3  3  3  3
CENTRE ASSIGNMENTS    3  3  3  3  3  3  3  3  3  3  3  3  3  3  3  3  3  3  3  3
CENTRE ASSIGNMENTS    3  3  3  3  3  3  3  3  3  3  3  3  3  3  3  3  3  3  3  3
CENTRE ASSIGNMENTS    3  3  3  3  3  3  3  3  3  3  3  3  3  3  3  3  3  3  3  3
CENTRE ASSIGNMENTS    3  3  3  3  3  3  3  3  3  3  3  3  3  3  3  3  3  3  3  3
CENTRE ASSIGNMENTS    3  3  3  3  3  3  3  3  3  3  3  3  3  3  3  3  3  3  3  3
CENTRE ASSIGNMENTS    3  3  3  3  3  3  3  3  3  3  3  3  3  3  3  3  3  3  3  3
CENTRE ASSIGNMENTS    3  3  3  3  3  3  3  3  3  3  3  3  3  3  3  3  3  3  3  3
CENTRE ASSIGNMENTS    3  3  3  3  3  3  3  3  3  3  3  3  3  3  3  3  3
TYPE ASSIGNMENTS      1  1  1  1  1  1  1  1  1  1  1  1  1  1  1  1  1  1  1  1
TYPE ASSIGNMENTS      1  1  1  1  1  1  1  1  1  1  1  1  1  1  1  1  1  1  1  1
TYPE ASSIGNMENTS      1  1  2  2  2  2  2  2  2  3  3  3  3  3  3  3  4  4  4  4
TYPE ASSIGNMENTS      4  4  4  2  2  2  2  2  2  2  3  3  3  3  3  3  3  4  4  4
TYPE ASSIGNMENTS      4  4  4  4  2  3  4  2  3  4  2  3  4  5  6  7  8  9 10  5
TYPE ASSIGNMENTS      6  7  8  9 10  5  6  7  8  9 10 11 12 13 17 14 15 18 19 16
TYPE ASSIGNMENTS     20 11 12 13 17 14 15 18 19 16 20  1  1  1  1  1  1  1  1  1
TYPE ASSIGNMENTS      1  1  1  1  1  1  1  1  1  1  1  1  1  1  1  1  1  1  1  1
TYPE ASSIGNMENTS      1  1  1  1  1  1  1  1  1  1  1  1  1  1  1  1  1  1  1  1
TYPE ASSIGNMENTS      1  1  1  1  1  1  1  1  1  1  1  1  1  1  1  1  1  1  1  1
TYPE ASSIGNMENTS      1  1  1  1  1  1  2  2  2  2  2  2  2  2  2  2  2  3  3  3
TYPE ASSIGNMENTS      3  3  3  3  3  3  3  3  4  4  4  4  4  4  4  4  4  4  4  2
TYPE ASSIGNMENTS      2  2  2  2  2  2  2  2  2  2  3  3  3  3  3  3  3  3  3  3
TYPE ASSIGNMENTS      3  4  4  4  4  4  4  4  4  4  4  4  2  2  2  2  2  2  2  2
TYPE ASSIGNMENTS      2  2  2  3  3  3  3  3  3  3  3  3  3  3  4  4  4  4  4  4
TYPE ASSIGNMENTS      4  4  4  4  4  2  3  4  2  3  4  2  3  4  5  5  5  5  5  5
TYPE ASSIGNMENTS      5  6  6  6  6  6  6  6  7  7  7  7  7  7  7  8  8  8  8  8
TYPE ASSIGNMENTS      8  8  9  9  9  9  9  9  9 10 10 10 10 10 10 10  5  6  7  8
TYPE ASSIGNMENTS      9 10  5  6  7  8  9 10  5  6  7  8  9 10 11 12 13 17 14 15
TYPE ASSIGNMENTS     18 19 16 20 11 12 13 17 14 15 18 19 16 20  1  1  1  1  1  1
TYPE ASSIGNMENTS      1  1  1  1  1  1  1  1  1  1  1  1  1  1  1  1  1  1  1  1
TYPE ASSIGNMENTS      1  1  1  1  1  1  1  1  1  1  1  1  1  1  1  1  1  1  1  1
TYPE ASSIGNMENTS      1  1  1  1  1  1  1  1  1  1  1  1  1  1  1  1  1  1  1  1
TYPE ASSIGNMENTS      1  1  1  1  1  1  1  1  1  2  2  2  2  2  2  2  2  2  2  2
TYPE ASSIGNMENTS      3  3  3  3  3  3  3  3  3  3  3  4  4  4  4  4  4  4  4  4
TYPE ASSIGNMENTS      4  4  2  2  2  2  2  2  2  2  2  2  2  3  3  3  3  3  3  3
TYPE ASSIGNMENTS      3  3  3  3  4  4  4  4  4  4  4  4  4  4  4  2  2  2  2  2
TYPE ASSIGNMENTS      2  2  2  2  2  2  3  3  3  3  3  3  3  3  3  3  3  4  4  4
TYPE ASSIGNMENTS      4  4  4  4  4  4  4  4  2  3  4  2  3  4  2  3  4  5  5  5
TYPE ASSIGNMENTS      5  5  5  5  6  6  6  6  6  6  6  7  7  7  7  7  7  7  8  8
TYPE ASSIGNMENTS      8  8  8  8  8  9  9  9  9  9  9  9 10 10 10 10 10 10 10  5
TYPE ASSIGNMENTS      6  7  8  9 10  5  6  7  8  9 10  5  6  7  8  9 10 11 12 13
TYPE ASSIGNMENTS     17 14 15 18 19 16 20 11 12 13 17 14 15 18 19 16 20
EXPONENTS  0.2549000D+06 0.3819000D+05 0.8690000D+04 0.2462000D+04 0.8048000D+03
EXPONENTS  0.2913000D+03 0.1136000D+03 0.4675000D+02 0.1982000D+02 0.7708000D+01
EXPONENTS  0.3340000D+01 0.1402000D+01 0.2070000D+00 0.2549000D+06 0.3819000D+05
EXPONENTS  0.8690000D+04 0.2462000D+04 0.8048000D+03 0.2913000D+03 0.1136000D+03
EXPONENTS  0.4675000D+02 0.1982000D+02 0.7708000D+01 0.3340000D+01 0.1402000D+01
EXPONENTS  0.2070000D+00 0.2549000D+06 0.3819000D+05 0.8690000D+04 0.2462000D+04
EXPONENTS  0.8048000D+03 0.2913000D+03 0.1136000D+03 0.4675000D+02 0.1982000D+02
EXPONENTS  0.7708000D+01 0.3340000D+01 0.1402000D+01 0.2070000D+00 0.4387000D+00
EXPONENTS  0.7944000D-01 0.3300000D-01 0.4815000D+03 0.1139000D+03 0.3623000D+02
EXPONENTS  0.1334000D+02 0.5252000D+01 0.2120000D+01 0.2528000D+00 0.4815000D+03
EXPONENTS  0.1139000D+03 0.3623000D+02 0.1334000D+02 0.5252000D+01 0.2120000D+01
EXPONENTS  0.2528000D+00 0.4815000D+03 0.1139000D+03 0.3623000D+02 0.1334000D+02
EXPONENTS  0.5252000D+01 0.2120000D+01 0.2528000D+00 0.4815000D+03 0.1139000D+03
EXPONENTS  0.3623000D+02 0.1334000D+02 0.5252000D+01 0.2120000D+01 0.2528000D+00
EXPONENTS  0.4815000D+03 0.1139000D+03 0.3623000D+02 0.1334000D+02 0.5252000D+01
EXPONENTS  0.2120000D+01 0.2528000D+00 0.4815000D+03 0.1139000D+03 0.3623000D+02
EXPONENTS  0.1334000D+02 0.5252000D+01 0.2120000D+01 0.2528000D+00 0.8561000D+00
EXPONENTS  0.8561000D+00 0.8561000D+00 0.7889000D-01 0.7889000D-01 0.7889000D-01
EXPONENTS  0.2370000D-01 0.2370000D-01 0.2370000D-01 0.1590000D+00 0.1590000D+00
EXPONENTS  0.1590000D+00 0.1590000D+00 0.1590000D+00 0.1590000D+00 0.4810000D+00
EXPONENTS  0.4810000D+00 0.4810000D+00 0.4810000D+00 0.4810000D+00 0.4810000D+00
EXPONENTS  0.5560000D-01 0.5560000D-01 0.5560000D-01 0.5560000D-01 0.5560000D-01
EXPONENTS  0.5560000D-01 0.3360000D+00 0.3360000D+00 0.3360000D+00 0.3360000D+00
EXPONENTS  0.3360000D+00 0.3360000D+00 0.3360000D+00 0.3360000D+00 0.3360000D+00
EXPONENTS  0.3360000D+00 0.1250000D+00 0.1250000D+00 0.1250000D+00 0.1250000D+00
EXPONENTS  0.1250000D+00 0.1250000D+00 0.1250000D+00 0.1250000D+00 0.1250000D+00
EXPONENTS  0.1250000D+00 0.9563600D+07 0.1432100D+07 0.3259100D+06 0.9231200D+05
EXPONENTS  0.3011600D+05 0.1087200D+05 0.4240100D+04 0.1758400D+04 0.7665900D+03
EXPONENTS  0.3484300D+03 0.1640300D+03 0.7914200D+02 0.3552400D+02 0.1730500D+02
EXPONENTS  0.8378400D+01 0.3740500D+01 0.1689000D+01 0.2552000D+00 0.9563600D+07
EXPONENTS  0.1432100D+07 0.3259100D+06 0.9231200D+05 0.3011600D+05 0.1087200D+05
EXPONENTS  0.4240100D+04 0.1758400D+04 0.7665900D+03 0.3484300D+03 0.1640300D+03
EXPONENTS  0.7914200D+02 0.3552400D+02 0.1730500D+02 0.8378400D+01 0.3740500D+01
EXPONENTS  0.1689000D+01 0.2552000D+00 0.9563600D+07 0.1432100D+07 0.3259100D+06
EXPONENTS  0.9231200D+05 0.3011600D+05 0.1087200D+05 0.4240100D+04 0.1758400D+04
EXPONENTS  0.7665900D+03 0.3484300D+03 0.1640300D+03 0.7914200D+02 0.3552400D+02
EXPONENTS  0.1730500D+02 0.8378400D+01 0.3740500D+01 0.1689000D+01 0.2552000D+00
EXPONENTS  0.9563600D+07 0.1432100D+07 0.3259100D+06 0.9231200D+05 0.3011600D+05
EXPONENTS  0.1087200D+05 0.4240100D+04 0.1758400D+04 0.7665900D+03 0.3484300D+03
EXPONENTS  0.1640300D+03 0.7914200D+02 0.3552400D+02 0.1730500D+02 0.8378400D+01
EXPONENTS  0.3740500D+01 0.1689000D+01 0.2552000D+00 0.5092700D+00 0.1065100D+00
EXPONENTS  0.3920100D-01 0.8004300D+04 0.1896900D+04 0.6147100D+03 0.2335000D+03
EXPONENTS  0.9785600D+02 0.4351400D+02 0.2006300D+02 0.9112700D+01 0.4106300D+01
EXPONENTS  0.1794900D+01 0.2461500D+00 0.8004300D+04 0.1896900D+04 0.6147100D+03
EXPONENTS  0.2335000D+03 0.9785600D+02 0.4351400D+02 0.2006300D+02 0.9112700D+01
EXPONENTS  0.4106300D+01 0.1794900D+01 0.2461500D+00 0.8004300D+04 0.1896900D+04
EXPONENTS  0.6147100D+03 0.2335000D+03 0.9785600D+02 0.4351400D+02 0.2006300D+02
EXPONENTS  0.9112700D+01 0.4106300D+01 0.1794900D+01 0.2461500D+00 0.8004300D+04
EXPONENTS  0.1896900D+04 0.6147100D+03 0.2335000D+03 0.9785600D+02 0.4351400D+02
EXPONENTS  0.2006300D+02 0.9112700D+01 0.4106300D+01 0.1794900D+01 0.2461500D+00
EXPONENTS  0.8004300D+04 0.1896900D+04 0.6147100D+03 0.2335000D+03 0.9785600D+02
EXPONENTS  0.4351400D+02 0.2006300D+02 0.9112700D+01 0.4106300D+01 0.1794900D+01
EXPONENTS  0.2461500D+00 0.8004300D+04 0.1896900D+04 0.6147100D+03 0.2335000D+03
EXPONENTS  0.9785600D+02 0.4351400D+02 0.2006300D+02 0.9112700D+01 0.4106300D+01
EXPONENTS  0.1794900D+01 0.2461500D+00 0.8004300D+04 0.1896900D+04 0.6147100D+03
EXPONENTS  0.2335000D+03 0.9785600D+02 0.4351400D+02 0.2006300D+02 0.9112700D+01
EXPONENTS  0.4106300D+01 0.1794900D+01 0.2461500D+00 0.8004300D+04 0.1896900D+04
EXPONENTS  0.6147100D+03 0.2335000D+03 0.9785600D+02 0.4351400D+02 0.2006300D+02
EXPONENTS  0.9112700D+01 0.4106300D+01 0.1794900D+01 0.2461500D+00 0.8004300D+04
EXPONENTS  0.1896900D+04 0.6147100D+03 0.2335000D+03 0.9785600D+02 0.4351400D+02
EXPONENTS  0.2006300D+02 0.9112700D+01 0.4106300D+01 0.1794900D+01 0.2461500D+00
EXPONENTS  0.6243200D+00 0.6243200D+00 0.6243200D+00 0.8891700D-01 0.8891700D-01
EXPONENTS  0.8891700D-01 0.3025100D-01 0.3025100D-01 0.3025100D-01 0.3618500D+03
EXPONENTS  0.1085500D+03 0.4143300D+02 0.1757900D+02 0.7862700D+01 0.3518000D+01
EXPONENTS  0.1534800D+01 0.3618500D+03 0.1085500D+03 0.4143300D+02 0.1757900D+02
EXPONENTS  0.7862700D+01 0.3518000D+01 0.1534800D+01 0.3618500D+03 0.1085500D+03
EXPONENTS  0.4143300D+02 0.1757900D+02 0.7862700D+01 0.3518000D+01 0.1534800D+01
EXPONENTS  0.3618500D+03 0.1085500D+03 0.4143300D+02 0.1757900D+02 0.7862700D+01
EXPONENTS  0.3518000D+01 0.1534800D+01 0.3618500D+03 0.1085500D+03 0.4143300D+02
EXPONENTS  0.1757900D+02 0.7862700D+01 0.3518000D+01 0.1534800D+01 0.3618500D+03
EXPONENTS  0.1085500D+03 0.4143300D+02 0.1757900D+02 0.7862700D+01 0.3518000D+01
EXPONENTS  0.1534800D+01 0.6081300D+00 0.6081300D+00 0.6081300D+00 0.6081300D+00
EXPONENTS  0.6081300D+00 0.6081300D+00 0.2220000D+00 0.2220000D+00 0.2220000D+00
EXPONENTS  0.2220000D+00 0.2220000D+00 0.2220000D+00 0.8370000D-01 0.8370000D-01
EXPONENTS  0.8370000D-01 0.8370000D-01 0.8370000D-01 0.8370000D-01 0.4620000D+00
EXPONENTS  0.4620000D+00 0.4620000D+00 0.4620000D+00 0.4620000D+00 0.4620000D+00
EXPONENTS  0.4620000D+00 0.4620000D+00 0.4620000D+00 0.4620000D+00 0.1880000D+00
EXPONENTS  0.1880000D+00 0.1880000D+00 0.1880000D+00 0.1880000D+00 0.1880000D+00
EXPONENTS  0.1880000D+00 0.1880000D+00 0.1880000D+00 0.1880000D+00 0.9563600D+07
EXPONENTS  0.1432100D+07 0.3259100D+06 0.9231200D+05 0.3011600D+05 0.1087200D+05
EXPONENTS  0.4240100D+04 0.1758400D+04 0.7665900D+03 0.3484300D+03 0.1640300D+03
EXPONENTS  0.7914200D+02 0.3552400D+02 0.1730500D+02 0.8378400D+01 0.3740500D+01
EXPONENTS  0.1689000D+01 0.2552000D+00 0.9563600D+07 0.1432100D+07 0.3259100D+06
EXPONENTS  0.9231200D+05 0.3011600D+05 0.1087200D+05 0.4240100D+04 0.1758400D+04
EXPONENTS  0.7665900D+03 0.3484300D+03 0.1640300D+03 0.7914200D+02 0.3552400D+02
EXPONENTS  0.1730500D+02 0.8378400D+01 0.3740500D+01 0.1689000D+01 0.2552000D+00
EXPONENTS  0.9563600D+07 0.1432100D+07 0.3259100D+06 0.9231200D+05 0.3011600D+05
EXPONENTS  0.1087200D+05 0.4240100D+04 0.1758400D+04 0.7665900D+03 0.3484300D+03
EXPONENTS  0.1640300D+03 0.7914200D+02 0.3552400D+02 0.1730500D+02 0.8378400D+01
EXPONENTS  0.3740500D+01 0.1689000D+01 0.2552000D+00 0.9563600D+07 0.1432100D+07
EXPONENTS  0.3259100D+06 0.9231200D+05 0.3011600D+05 0.1087200D+05 0.4240100D+04
EXPONENTS  0.1758400D+04 0.7665900D+03 0.3484300D+03 0.1640300D+03 0.7914200D+02
EXPONENTS  0.3552400D+02 0.1730500D+02 0.8378400D+01 0.3740500D+01 0.1689000D+01
EXPONENTS  0.2552000D+00 0.5092700D+00 0.1065100D+00 0.3920100D-01 0.8004300D+04
EXPONENTS  0.1896900D+04 0.6147100D+03 0.2335000D+03 0.9785600D+02 0.4351400D+02
EXPONENTS  0.2006300D+02 0.9112700D+01 0.4106300D+01 0.1794900D+01 0.2461500D+00
EXPONENTS  0.8004300D+04 0.1896900D+04 0.6147100D+03 0.2335000D+03 0.9785600D+02
EXPONENTS  0.4351400D+02 0.2006300D+02 0.9112700D+01 0.4106300D+01 0.1794900D+01
EXPONENTS  0.2461500D+00 0.8004300D+04 0.1896900D+04 0.6147100D+03 0.2335000D+03
EXPONENTS  0.9785600D+02 0.4351400D+02 0.2006300D+02 0.9112700D+01 0.4106300D+01
EXPONENTS  0.1794900D+01 0.2461500D+00 0.8004300D+04 0.1896900D+04 0.6147100D+03
EXPONENTS  0.2335000D+03 0.9785600D+02 0.4351400D+02 0.2006300D+02 0.9112700D+01
EXPONENTS  0.4106300D+01 0.1794900D+01 0.2461500D+00 0.8004300D+04 0.1896900D+04
EXPONENTS  0.6147100D+03 0.2335000D+03 0.9785600D+02 0.4351400D+02 0.2006300D+02
EXPONENTS  0.9112700D+01 0.4106300D+01 0.1794900D+01 0.2461500D+00 0.8004300D+04
EXPONENTS  0.1896900D+04 0.6147100D+03 0.2335000D+03 0.9785600D+02 0.4351400D+02
EXPONENTS  0.2006300D+02 0.9112700D+01 0.4106300D+01 0.1794900D+01 0.2461500D+00
EXPONENTS  0.8004300D+04 0.1896900D+04 0.6147100D+03 0.2335000D+03 0.9785600D+02
EXPONENTS  0.4351400D+02 0.2006300D+02 0.9112700D+01 0.4106300D+01 0.1794900D+01
EXPONENTS  0.2461500D+00 0.8004300D+04 0.1896900D+04 0.6147100D+03 0.2335000D+03
EXPONENTS  0.9785600D+02 0.4351400D+02 0.2006300D+02 0.9112700D+01 0.4106300D+01
EXPONENTS  0.1794900D+01 0.2461500D+00 0.8004300D+04 0.1896900D+04 0.6147100D+03
EXPONENTS  0.2335000D+03 0.9785600D+02 0.4351400D+02 0.2006300D+02 0.9112700D+01
EXPONENTS  0.4106300D+01 0.1794900D+01 0.2461500D+00 0.6243200D+00 0.6243200D+00
EXPONENTS  0.6243200D+00 0.8891700D-01 0.8891700D-01 0.8891700D-01 0.3025100D-01
EXPONENTS  0.3025100D-01 0.3025100D-01 0.3618500D+03 0.1085500D+03 0.4143300D+02
EXPONENTS  0.1757900D+02 0.7862700D+01 0.3518000D+01 0.1534800D+01 0.3618500D+03
EXPONENTS  0.1085500D+03 0.4143300D+02 0.1757900D+02 0.7862700D+01 0.3518000D+01
EXPONENTS  0.1534800D+01 0.3618500D+03 0.1085500D+03 0.4143300D+02 0.1757900D+02
EXPONENTS  0.7862700D+01 0.3518000D+01 0.1534800D+01 0.3618500D+03 0.1085500D+03
EXPONENTS  0.4143300D+02 0.1757900D+02 0.7862700D+01 0.3518000D+01 0.1534800D+01
EXPONENTS  0.3618500D+03 0.1085500D+03 0.4143300D+02 0.1757900D+02 0.7862700D+01
EXPONENTS  0.3518000D+01 0.1534800D+01 0.3618500D+03 0.1085500D+03 0.4143300D+02
EXPONENTS  0.1757900D+02 0.7862700D+01 0.3518000D+01 0.1534800D+01 0.6081300D+00
EXPONENTS  0.6081300D+00 0.6081300D+00 0.6081300D+00 0.6081300D+00 0.6081300D+00
EXPONENTS  0.2220000D+00 0.2220000D+00 0.2220000D+00 0.2220000D+00 0.2220000D+00
EXPONENTS  0.2220000D+00 0.8370000D-01 0.8370000D-01 0.8370000D-01 0.8370000D-01
EXPONENTS  0.8370000D-01 0.8370000D-01 0.4620000D+00 0.4620000D+00 0.4620000D+00
EXPONENTS  0.4620000D+00 0.4620000D+00 0.4620000D+00 0.4620000D+00 0.4620000D+00
EXPONENTS  0.4620000D+00 0.4620000D+00 0.1880000D+00 0.1880000D+00 0.1880000D+00
EXPONENTS  0.1880000D+00 0.1880000D+00 0.1880000D+00 0.1880000D+00 0.1880000D+00
EXPONENTS  0.1880000D+00 0.1880000D+00
MO    1     MO 0.0        OCC NO =    2.0000000  ORB. ENERGY = -453.309238
  0.67827691D-10  0.12687567D-09  0.21910858D-09  0.35391747D-09  0.53299243D-09
  0.72486719D-09  0.82518780D-09  0.66851528D-09  0.27136356D-09  0.24744624D-10
 -0.95094141D-12  0.31798796D-12  0.17844763D-13 -0.65285328D-10 -0.12219616D-09
 -0.21134296D-09 -0.34349977D-09 -0.52555185D-09 -0.74579440D-09 -0.93553714D-09
 -0.95386116D-09 -0.58607126D-09  0.12772944D-09  0.46785403D-09  0.21397996D-09
 -0.11358174D-11 -0.39964056D-11 -0.74746737D-11 -0.12944110D-10 -0.21016668D-10
 -0.32260161D-10 -0.45824119D-10 -0.58135164D-10 -0.60185602D-10 -0.38766841D-10
  0.95349062D-11  0.38867212D-10  0.33898972D-10 -0.17276681D-10 -0.16482741D-08
 -0.37376631D-07 -0.13328935D-07 -0.57907005D-15 -0.76382324D-15 -0.84841998D-15
 -0.72612792D-15 -0.41490366D-15 -0.13464528D-15 -0.94807629D-19 -0.32182085D-15
 -0.42449828D-15 -0.47151331D-15 -0.40354893D-15 -0.23058462D-15 -0.74829735D-16
 -0.52689776D-19  0.26446243D-03  0.34883958D-03  0.38747508D-03  0.33162405D-03
  0.18948732D-03  0.61492766D-04  0.43298831D-07  0.22908899D-15  0.31327625D-15
  0.34056283D-15  0.31261887D-15  0.17038998D-15  0.71901299D-16 -0.24797886D-16
  0.26781679D-15  0.36623602D-15  0.39813544D-15  0.36546751D-15  0.19919464D-15
  0.84056311D-16 -0.28990002D-16 -0.25616885D-03 -0.35030761D-03 -0.38081965D-03
 -0.34957253D-03 -0.19053122D-03 -0.80400517D-04  0.27729163D-04 -0.87698963D-18
 -0.91569218D-19  0.25986007D-04 -0.85039882D-19 -0.15867107D-20  0.20068602D-04
  0.22060585D-21 -0.46564051D-21  0.83985269D-06  0.78604038D-09  0.78604038D-09
 -0.15720808D-08  0.72959306D-22  0.19535069D-20  0.31597689D-20 -0.71695969D-09
 -0.71695969D-09  0.14339194D-08 -0.84420600D-22  0.26268233D-20  0.87154738D-20
  0.36573669D-09  0.36573669D-09 -0.73147337D-09 -0.25974915D-22 -0.33019538D-20
 -0.25600752D-20  0.57758394D-20  0.22136735D-21 -0.60667507D-05  0.57808816D-20
  0.22376338D-21  0.91001261D-05 -0.23108400D-19 -0.88786542D-21  0.91001261D-05
  0.18945635D-21  0.50390803D-20 -0.24505123D-21 -0.32583718D-05  0.50387054D-20
 -0.24552109D-21  0.48875576D-05 -0.20155946D-19  0.98067477D-21  0.48875576D-05
  0.42051647D-22 -0.54585177D+00 -0.10198986D+01 -0.17688863D+01 -0.28978877D+01
 -0.45378620D+01 -0.68146587D+01 -0.97196545D+01 -0.12841633D+02 -0.14809559D+02
 -0.13329078D+02 -0.74779443D+01 -0.18078330D+01 -0.85826951D-01  0.14687571D-02
 -0.41309808D-03  0.16098366D-03 -0.15227217D-04 -0.15014356D-05 -0.50130433D-04
 -0.92315972D-04 -0.16023734D-03 -0.26243874D-03 -0.41306650D-03 -0.62346919D-03
 -0.90883647D-03 -0.12480234D-02 -0.15849738D-02 -0.17069163D-02 -0.13617457D-02
 -0.30502018D-03  0.81561710D-03  0.72530742D-03  0.14165548D-03  0.39241483D-05
  0.28417347D-06  0.58035998D-08  0.99604551D-04  0.17982679D-03  0.31304421D-03
  0.51262310D-03  0.80817951D-03  0.12195206D-02  0.17848592D-02  0.24593014D-02
  0.31682392D-02  0.34872351D-02  0.29356865D-02  0.69909200D-03 -0.23548106D-02
 -0.31465207D-02 -0.38655650D-03  0.13506809D-02  0.59623776D-03 -0.29590208D-05
 -0.35092389D-04 -0.76027271D-04 -0.12942647D-03 -0.21126972D-03 -0.33307579D-03
 -0.50263008D-03 -0.73564177D-03 -0.10147717D-02 -0.13089494D-02 -0.14470645D-02
 -0.12255564D-02 -0.29769578D-03  0.10328290D-02  0.14577197D-02  0.17392603D-03
 -0.81741234D-03 -0.65340290D-03  0.24753993D-03 -0.18607306D-03 -0.88786417D-04
 -0.26004955D-04  0.30108007D-17  0.43151757D-17  0.56983551D-17  0.65499719D-17
  0.60255647D-17  0.38547188D-17  0.13342677D-17  0.15000359D-18  0.19084113D-20
  0.33069471D-21  0.33793400D-23 -0.36816942D-16 -0.52767217D-16 -0.69681134D-16
 -0.80094951D-16 -0.73682348D-16 -0.47136617D-16 -0.16315811D-16 -0.18342873D-17
 -0.23336606D-19 -0.40438305D-20 -0.41323547D-22 -0.37889404D-03 -0.54304302D-03
 -0.71710915D-03 -0.82428081D-03 -0.75828682D-03 -0.48509686D-03 -0.16791084D-03
 -0.18877193D-04 -0.24016391D-06 -0.41616255D-07 -0.42527284D-09 -0.35771559D-17
 -0.51597655D-17 -0.68721401D-17 -0.81329250D-17 -0.78154355D-17 -0.53719703D-17
 -0.16913367D-17  0.81740775D-18  0.83885821D-18  0.21125563D-18 -0.23032822D-21
 -0.21820342D-17 -0.31474124D-17 -0.41919460D-17 -0.49610139D-17 -0.47673481D-17
 -0.32768554D-17 -0.10317008D-17  0.49861166D-18  0.51169626D-18  0.12886411D-18
 -0.14049822D-21  0.21707245D-02  0.31310991D-02  0.41702189D-02  0.49353007D-02
  0.47426386D-02  0.32598713D-02  0.10263534D-02 -0.49602732D-03 -0.50904410D-03
 -0.12819620D-03  0.13977001D-06  0.24026925D-17  0.34831520D-17  0.46230132D-17
  0.55171239D-17  0.53006464D-17  0.37101699D-17  0.11202528D-17 -0.68576186D-18
 -0.73752463D-18 -0.19834450D-18  0.73936359D-19 -0.55737572D-18 -0.80802034D-18
 -0.10724449D-17 -0.12798604D-17 -0.12296420D-17 -0.86068386D-18 -0.25987584D-18
  0.15908279D-18  0.17109070D-18  0.46011884D-19 -0.17151730D-19 -0.16195192D-02
 -0.23477959D-02 -0.31161118D-02 -0.37187814D-02 -0.35728661D-02 -0.25008158D-02
 -0.75509911D-03  0.46223330D-03  0.49712366D-03  0.13369281D-03 -0.49836320D-04
 -0.11135816D-18 -0.38409184D-19  0.16458265D-04  0.46051079D-19  0.57611277D-20
  0.42460893D-04  0.14542819D-20  0.11854860D-20  0.14335608D-05  0.19995375D-03
  0.20697124D-03  0.17316605D-03  0.11174128D-03  0.50195709D-04  0.14656335D-04
  0.24726135D-05  0.19995375D-03  0.20697124D-03  0.17316605D-03  0.11174128D-03
  0.50195709D-04  0.14656335D-04  0.24726135D-05 -0.39990750D-03 -0.41394247D-03
 -0.34633211D-03 -0.22348255D-03 -0.10039142D-03 -0.29312669D-04 -0.49452270D-05
 -0.29807741D-17 -0.30853860D-17 -0.25814414D-17 -0.16657628D-17 -0.74828340D-18
 -0.21848664D-18 -0.36860036D-19  0.26368497D-17  0.27293914D-17  0.22835924D-17
  0.14735656D-17  0.66194580D-18  0.19327746D-18  0.32607092D-19 -0.18767261D-17
 -0.19425908D-17 -0.16253021D-17 -0.10487814D-17 -0.47112693D-18 -0.13756144D-18
 -0.23207458D-19 -0.11249797D-04 -0.11249797D-04  0.22499594D-04  0.13282315D-19
  0.54462092D-19  0.44120705D-19  0.25923356D-05  0.25923356D-05 -0.51846711D-05
 -0.14068625D-20 -0.46027265D-19  0.90951599D-20  0.22456867D-05  0.22456867D-05
 -0.44913735D-05  0.95288187D-22 -0.10811281D-19 -0.20764410D-20 -0.14701804D-20
 -0.54081773D-20 -0.38707805D-05 -0.14503932D-20 -0.53677613D-20  0.58061707D-05
  0.58609343D-20  0.21592293D-19  0.58061707D-05 -0.11417593D-21 -0.16330910D-20
  0.81048449D-21  0.16656506D-05 -0.16347724D-20  0.80730331D-21 -0.24984758D-05
  0.65340453D-20 -0.32387568D-20 -0.24984758D-05  0.68315927D-22  0.54610919D+00
  0.10203796D+01  0.17697205D+01  0.28992544D+01  0.45400021D+01  0.68178725D+01
  0.97242382D+01  0.12847689D+02  0.14816543D+02  0.13335364D+02  0.74814709D+01
  0.18086856D+01  0.85867427D-01 -0.14694498D-02  0.41329290D-03 -0.16105958D-03
  0.15234398D-04  0.15021437D-05  0.50147230D-04  0.92346904D-04  0.16029103D-03
  0.26252667D-03  0.41320490D-03  0.62367809D-03  0.90914098D-03  0.12484416D-02
  0.15855049D-02  0.17074882D-02  0.13622020D-02  0.30512238D-03 -0.81589038D-03
 -0.72555044D-03 -0.14170294D-03 -0.39254631D-05 -0.28426869D-06 -0.58055444D-08
 -0.99641601D-04 -0.17989368D-03 -0.31316065D-03 -0.51281378D-03 -0.80848012D-03
 -0.12199743D-02 -0.17855231D-02 -0.24602162D-02 -0.31694177D-02 -0.34885322D-02
 -0.29367784D-02 -0.69935204D-03  0.23556866D-02  0.31476911D-02  0.38670028D-03
 -0.13511833D-02 -0.59645954D-03  0.29601214D-05  0.35104558D-04  0.76053634D-04
  0.12947135D-03  0.21134298D-03  0.33319128D-03  0.50280436D-03  0.73589685D-03
  0.10151236D-02  0.13094033D-02  0.14475663D-02  0.12259813D-02  0.29779901D-03
 -0.10331871D-02 -0.14582251D-02 -0.17398634D-03  0.81769578D-03  0.65362947D-03
 -0.24762576D-03  0.18615201D-03  0.88848247D-04  0.26024598D-04 -0.18181612D-16
 -0.26058466D-16 -0.34411204D-16 -0.39553945D-16 -0.36387156D-16 -0.23277861D-16
 -0.80573705D-17 -0.90584111D-18 -0.11524507D-19 -0.19969979D-20 -0.20407145D-22
  0.27898065D-17  0.39984396D-17  0.52800930D-17  0.60692007D-17  0.55832852D-17
  0.35717805D-17  0.12363318D-17  0.13899325D-18  0.17683330D-20  0.30642155D-21
  0.31312948D-23 -0.37888221D-03 -0.54302608D-03 -0.71708678D-03 -0.82425510D-03
 -0.75826316D-03 -0.48508172D-03 -0.16790560D-03 -0.18876604D-04 -0.24015642D-06
 -0.41614957D-07 -0.42525957D-09 -0.88943092D-17 -0.12829340D-16 -0.17087021D-16
 -0.20221861D-16 -0.19432449D-16 -0.13356970D-16 -0.42053720D-17  0.20324183D-17
  0.20857532D-17  0.52527006D-18 -0.57269252D-21  0.78077975D-18  0.11262133D-17
  0.14999704D-17  0.17751598D-17  0.17058619D-17  0.11725309D-17  0.36916519D-18
 -0.17841420D-18 -0.18309616D-18 -0.46110408D-19  0.50273351D-22  0.21709236D-02
  0.31313862D-02  0.41706013D-02  0.49357532D-02  0.47430735D-02  0.32601702D-02
  0.10264475D-02 -0.49607281D-03 -0.50909078D-03 -0.12820795D-03  0.13978283D-06
  0.41116123D-17  0.59605509D-17  0.79111406D-17  0.94411894D-17  0.90707417D-17
  0.63490357D-17  0.19170349D-17 -0.11735114D-17 -0.12620905D-17 -0.33941742D-18
  0.12652374D-18  0.33458187D-18  0.48503899D-18  0.64376795D-18  0.76827545D-18
  0.73813033D-18  0.51665188D-18  0.15599844D-18 -0.95494321D-19 -0.10270244D-18
 -0.27620044D-19  0.10295852D-19 -0.16196547D-02 -0.23479924D-02 -0.31163727D-02
 -0.37190927D-02 -0.35731652D-02 -0.25010251D-02 -0.75516232D-03  0.46227200D-03
  0.49716528D-03  0.13370400D-03 -0.49840492D-04 -0.23986975D-18 -0.29198230D-19
  0.16461814D-04  0.23574767D-19 -0.87060740D-20  0.42479198D-04  0.13021790D-21
 -0.25773078D-21  0.14345176D-05 -0.20000692D-03 -0.20702627D-03 -0.17321210D-03
 -0.11177099D-03 -0.50209057D-04 -0.14660232D-04 -0.24732710D-05 -0.20000692D-03
 -0.20702627D-03 -0.17321210D-03 -0.11177099D-03 -0.50209057D-04 -0.14660232D-04
 -0.24732710D-05  0.40001384D-03  0.41405255D-03  0.34642420D-03  0.22354198D-03
  0.10041811D-03  0.29320464D-04  0.49465420D-05 -0.36809713D-18 -0.38101570D-18
 -0.31878336D-18 -0.20570579D-18 -0.92405852D-19 -0.26981013D-19 -0.45518623D-20
  0.26689539D-17  0.27626223D-17  0.23113956D-17  0.14915065D-17  0.67000512D-18
  0.19563065D-18  0.33004090D-19  0.48542279D-18  0.50245897D-18  0.42039096D-18
  0.27127155D-18  0.12185889D-18  0.35580823D-19  0.60027029D-20  0.11252596D-04
  0.11252596D-04 -0.22505191D-04  0.23319809D-20 -0.92735157D-19  0.26105633D-19
 -0.25939154D-05 -0.25939154D-05  0.51878307D-05 -0.36389531D-21  0.61234795D-19
 -0.26177434D-20 -0.22464243D-05 -0.22464243D-05  0.44928487D-05  0.66311602D-22
  0.61449712D-20 -0.22546022D-20 -0.36307420D-20 -0.16151327D-19 -0.38722389D-05
 -0.36491951D-20 -0.16216240D-19  0.58083583D-05  0.14541421D-19  0.64670220D-19
  0.58083583D-05 -0.17927502D-21 -0.13780600D-20  0.96927642D-21  0.16663621D-05
 -0.13761613D-20  0.97611462D-21 -0.24995432D-05  0.55103412D-20 -0.38839439D-20
 -0.24995432D-05  0.70577543D-22
MO    2     MO 0.0        OCC NO =    2.0000000  ORB. ENERGY = -453.309237
  0.28776015D-06  0.53827222D-06  0.92957193D-06  0.15015010D-05  0.22612296D-05
  0.30752615D-05  0.35008735D-05  0.28361876D-05  0.11512646D-05  0.10497949D-06
 -0.40343853D-08  0.13490694D-08  0.75706717D-10 -0.27700467D-06 -0.51847647D-06
 -0.89672499D-06 -0.14574644D-05 -0.22299086D-05 -0.31643944D-05 -0.39694700D-05
 -0.40472186D-05 -0.24866916D-05  0.54195408D-06  0.19850976D-05  0.90791376D-06
 -0.48192560D-08 -0.16919470D-07 -0.31645316D-07 -0.54801112D-07 -0.88977677D-07
 -0.13657893D-06 -0.19400428D-06 -0.24612521D-06 -0.25480609D-06 -0.16412608D-06
  0.40367664D-07  0.16455102D-06  0.14351712D-06 -0.73143797D-07 -0.69922849D-05
 -0.15854748D-03 -0.56539451D-04  0.48435207D-19  0.63888534D-19  0.70964467D-19
  0.60735581D-19  0.34703823D-19  0.11262147D-19  0.79300028D-23  0.55253330D-19
  0.72881989D-19  0.80953987D-19  0.69285202D-19  0.39589008D-19  0.12847496D-19
  0.90462928D-23 -0.62344487D-07 -0.82235591D-07 -0.91343540D-07 -0.78177195D-07
 -0.44669821D-07 -0.14496331D-07 -0.10207285D-10  0.49568161D-20  0.67783823D-20
  0.73687843D-20  0.67641587D-20  0.36867411D-20  0.15557340D-20 -0.53655377D-21
 -0.90929917D-19 -0.12434549D-18 -0.13517608D-18 -0.12408457D-18 -0.67631129D-19
 -0.28539037D-19  0.98427678D-20  0.60389332D-07  0.82581635D-07  0.89774555D-07
  0.82408347D-07  0.44915896D-07  0.18953645D-07 -0.65368824D-08  0.14899684D-19
  0.13074134D-19 -0.61259330D-08 -0.19310124D-19 -0.17608034D-19 -0.47312260D-08
 -0.24530789D-22 -0.19056998D-22 -0.19799359D-09  0.33342103D-05  0.33342103D-05
 -0.66684206D-05 -0.78713218D-22 -0.39797714D-20  0.27366050D-20 -0.30413261D-05
 -0.30413261D-05  0.60826523D-05  0.43257340D-21  0.88476822D-20 -0.45657340D-21
  0.15514139D-05  0.15514139D-05 -0.31028279D-05  0.16654051D-22 -0.94300743D-20
  0.10625524D-20  0.12358914D-20  0.14264695D-20  0.14301814D-08  0.12379968D-20
  0.14321034D-20 -0.21452721D-08 -0.49456710D-20 -0.57115119D-20 -0.21452721D-08
 -0.74738217D-23  0.14493534D-20  0.13027028D-20  0.76812331D-09  0.14492205D-20
  0.13008305D-20 -0.11521850D-08 -0.57972808D-20 -0.52089388D-20 -0.11521850D-08
 -0.14527263D-21  0.54611604D+00  0.10203924D+01  0.17697427D+01  0.28992907D+01
  0.45400590D+01  0.68179579D+01  0.97243602D+01  0.12847850D+02  0.14816729D+02
  0.13335531D+02  0.74815647D+01  0.18087083D+01  0.85868503D-01 -0.14694682D-02
  0.41329808D-03 -0.16106160D-03  0.15234589D-04  0.15021625D-05  0.35637175D-04
  0.65626412D-04  0.11391096D-03  0.18656482D-03  0.29364444D-03  0.44321741D-03
  0.64608188D-03  0.88720615D-03  0.11267405D-02  0.12134280D-02  0.96805009D-03
  0.21683550D-03 -0.57981325D-03 -0.51561309D-03 -0.10070133D-03 -0.27896340D-05
 -0.20201580D-06 -0.41257154D-08 -0.78605550D-04 -0.14191504D-03 -0.24704707D-03
 -0.40455000D-03 -0.63779611D-03 -0.96241678D-03 -0.14085686D-02 -0.19408224D-02