 Molden2AIM, Version 4.0.0 (06/02/2016)           Time: Mon Jul  2 17:09:44 2018
GAUSSIAN             21 MOL ORBITALS    612 PRIMITIVES       12 NUCLEI
  C    1    (CENTRE  1)   0.00000000 -2.63628322  0.00000000  CHARGE =  6.0
  C    2    (CENTRE  2)   2.28308774 -1.31814066  0.00000000  CHARGE =  6.0
  C    3    (CENTRE  3)   2.28308774  1.31814066  0.00000000  CHARGE =  6.0
  C    4    (CENTRE  4)   0.00000000  2.63628322  0.00000000  CHARGE =  6.0
  C    5    (CENTRE  5)  -2.28308774  1.31814066  0.00000000  CHARGE =  6.0
  C    6    (CENTRE  6)  -2.28308774 -1.31814066  0.00000000  CHARGE =  6.0
  H    7    (CENTRE  7)   0.00000000 -4.69678767  0.00000000  CHARGE =  1.0
  H    8    (CENTRE  8)   4.06753722 -2.34839289  0.00000000  CHARGE =  1.0
  H    9    (CENTRE  9)   4.06753722  2.34839289  0.00000000  CHARGE =  1.0
  H   10    (CENTRE 10)   0.00000000  4.69678767  0.00000000  CHARGE =  1.0
  H   11    (CENTRE 11)  -4.06753722  2.34839289  0.00000000  CHARGE =  1.0
  H   12    (CENTRE 12)  -4.06753722 -2.34839289  0.00000000  CHARGE =  1.0
CENTRE ASSIGNMENTS    1  1  1  1  1  1  1  1  1  1  1  1  1  1  1  1  1  1  1  1
CENTRE ASSIGNMENTS    1  1  1  1  1  1  1  1  1  1  1  1  1  1  1  1  1  1  1  1
CENTRE ASSIGNMENTS    1  1  1  1  1  1  1  1  1  1  1  1  1  1  1  1  1  1  1  1
CENTRE ASSIGNMENTS    1  1  1  1  1  1  1  1  1  1  1  1  1  1  1  2  2  2  2  2
CENTRE ASSIGNMENTS    2  2  2  2  2  2  2  2  2  2  2  2  2  2  2  2  2  2  2  2
CENTRE ASSIGNMENTS    2  2  2  2  2  2  2  2  2  2  2  2  2  2  2  2  2  2  2  2
CENTRE ASSIGNMENTS    2  2  2  2  2  2  2  2  2  2  2  2  2  2  2  2  2  2  2  2
CENTRE ASSIGNMENTS    2  2  2  2  2  2  2  2  2  2  3  3  3  3  3  3  3  3  3  3
CENTRE ASSIGNMENTS    3  3  3  3  3  3  3  3  3  3  3  3  3  3  3  3  3  3  3  3
CENTRE ASSIGNMENTS    3  3  3  3  3  3  3  3  3  3  3  3  3  3  3  3  3  3  3  3
CENTRE ASSIGNMENTS    3  3  3  3  3  3  3  3  3  3  3  3  3  3  3  3  3  3  3  3
CENTRE ASSIGNMENTS    3  3  3  3  3  4  4  4  4  4  4  4  4  4  4  4  4  4  4  4
CENTRE ASSIGNMENTS    4  4  4  4  4  4  4  4  4  4  4  4  4  4  4  4  4  4  4  4
CENTRE ASSIGNMENTS    4  4  4  4  4  4  4  4  4  4  4  4  4  4  4  4  4  4  4  4
CENTRE ASSIGNMENTS    4  4  4  4  4  4  4  4  4  4  4  4  4  4  4  4  4  4  4  4
CENTRE ASSIGNMENTS    5  5  5  5  5  5  5  5  5  5  5  5  5  5  5  5  5  5  5  5
CENTRE ASSIGNMENTS    5  5  5  5  5  5  5  5  5  5  5  5  5  5  5  5  5  5  5  5
CENTRE ASSIGNMENTS    5  5  5  5  5  5  5  5  5  5  5  5  5  5  5  5  5  5  5  5
CENTRE ASSIGNMENTS    5  5  5  5  5  5  5  5  5  5  5  5  5  5  5  6  6  6  6  6
CENTRE ASSIGNMENTS    6  6  6  6  6  6  6  6  6  6  6  6  6  6  6  6  6  6  6  6
CENTRE ASSIGNMENTS    6  6  6  6  6  6  6  6  6  6  6  6  6  6  6  6  6  6  6  6
CENTRE ASSIGNMENTS    6  6  6  6  6  6  6  6  6  6  6  6  6  6  6  6  6  6  6  6
CENTRE ASSIGNMENTS    6  6  6  6  6  6  6  6  6  6  7  7  7  7  7  7  7  7  7  7
CENTRE ASSIGNMENTS    7  7  7  7  7  7  7  7  7  7  7  7  7  7  7  7  7  8  8  8
CENTRE ASSIGNMENTS    8  8  8  8  8  8  8  8  8  8  8  8  8  8  8  8  8  8  8  8
CENTRE ASSIGNMENTS    8  8  8  8  9  9  9  9  9  9  9  9  9  9  9  9  9  9  9  9
CENTRE ASSIGNMENTS    9  9  9  9  9  9  9  9  9  9  9 10 10 10 10 10 10 10 10 10
CENTRE ASSIGNMENTS   10 10 10 10 10 10 10 10 10 10 10 10 10 10 10 10 10 10 11 11
CENTRE ASSIGNMENTS   11 11 11 11 11 11 11 11 11 11 11 11 11 11 11 11 11 11 11 11
CENTRE ASSIGNMENTS   11 11 11 11 11 12 12 12 12 12 12 12 12 12 12 12 12 12 12 12
CENTRE ASSIGNMENTS   12 12 12 12 12 12 12 12 12 12 12 12
TYPE ASSIGNMENTS      1  1  1  1  1  1  1  1  1  1  1  1  1  1  1  1  1  1  1  2
TYPE ASSIGNMENTS      2  2  3  3  3  4  4  4  2  3  4  2  3  4  2  3  4  5  6  7
TYPE ASSIGNMENTS      8  9 10  5  6  7  8  9 10  5  6  7  8  9 10 11 12 13 17 14
TYPE ASSIGNMENTS     15 18 19 16 20 11 12 13 17 14 15 18 19 16 20  1  1  1  1  1
TYPE ASSIGNMENTS      1  1  1  1  1  1  1  1  1  1  1  1  1  1  2  2  2  3  3  3
TYPE ASSIGNMENTS      4  4  4  2  3  4  2  3  4  2  3  4  5  6  7  8  9 10  5  6
TYPE ASSIGNMENTS      7  8  9 10  5  6  7  8  9 10 11 12 13 17 14 15 18 19 16 20
TYPE ASSIGNMENTS     11 12 13 17 14 15 18 19 16 20  1  1  1  1  1  1  1  1  1  1
TYPE ASSIGNMENTS      1  1  1  1  1  1  1  1  1  2  2  2  3  3  3  4  4  4  2  3
TYPE ASSIGNMENTS      4  2  3  4  2  3  4  5  6  7  8  9 10  5  6  7  8  9 10  5
TYPE ASSIGNMENTS      6  7  8  9 10 11 12 13 17 14 15 18 19 16 20 11 12 13 17 14
TYPE ASSIGNMENTS     15 18 19 16 20  1  1  1  1  1  1  1  1  1  1  1  1  1  1  1
TYPE ASSIGNMENTS      1  1  1  1  2  2  2  3  3  3  4  4  4  2  3  4  2  3  4  2
TYPE ASSIGNMENTS      3  4  5  6  7  8  9 10  5  6  7  8  9 10  5  6  7  8  9 10
TYPE ASSIGNMENTS     11 12 13 17 14 15 18 19 16 20 11 12 13 17 14 15 18 19 16 20
TYPE ASSIGNMENTS      1  1  1  1  1  1  1  1  1  1  1  1  1  1  1  1  1  1  1  2
TYPE ASSIGNMENTS      2  2  3  3  3  4  4  4  2  3  4  2  3  4  2  3  4  5  6  7
TYPE ASSIGNMENTS      8  9 10  5  6  7  8  9 10  5  6  7  8  9 10 11 12 13 17 14
TYPE ASSIGNMENTS     15 18 19 16 20 11 12 13 17 14 15 18 19 16 20  1  1  1  1  1
TYPE ASSIGNMENTS      1  1  1  1  1  1  1  1  1  1  1  1  1  1  2  2  2  3  3  3
TYPE ASSIGNMENTS      4  4  4  2  3  4  2  3  4  2  3  4  5  6  7  8  9 10  5  6
TYPE ASSIGNMENTS      7  8  9 10  5  6  7  8  9 10 11 12 13 17 14 15 18 19 16 20
TYPE ASSIGNMENTS     11 12 13 17 14 15 18 19 16 20  1  1  1  1  1  1  2  3  4  2
TYPE ASSIGNMENTS      3  4  2  3  4  5  6  7  8  9 10  5  6  7  8  9 10  1  1  1
TYPE ASSIGNMENTS      1  1  1  2  3  4  2  3  4  2  3  4  5  6  7  8  9 10  5  6
TYPE ASSIGNMENTS      7  8  9 10  1  1  1  1  1  1  2  3  4  2  3  4  2  3  4  5
TYPE ASSIGNMENTS      6  7  8  9 10  5  6  7  8  9 10  1  1  1  1  1  1  2  3  4
TYPE ASSIGNMENTS      2  3  4  2  3  4  5  6  7  8  9 10  5  6  7  8  9 10  1  1
TYPE ASSIGNMENTS      1  1  1  1  2  3  4  2  3  4  2  3  4  5  6  7  8  9 10  5
TYPE ASSIGNMENTS      6  7  8  9 10  1  1  1  1  1  1  2  3  4  2  3  4  2  3  4
TYPE ASSIGNMENTS      5  6  7  8  9 10  5  6  7  8  9 10
EXPONENTS  0.8236000D+04 0.1235000D+04 0.2808000D+03 0.7927000D+02 0.2559000D+02
EXPONENTS  0.8997000D+01 0.3319000D+01 0.3643000D+00 0.8236000D+04 0.1235000D+04
EXPONENTS  0.2808000D+03 0.7927000D+02 0.2559000D+02 0.8997000D+01 0.3319000D+01
EXPONENTS  0.3643000D+00 0.9059000D+00 0.1285000D+00 0.4402000D-01 0.1871000D+02
EXPONENTS  0.4133000D+01 0.1200000D+01 0.1871000D+02 0.4133000D+01 0.1200000D+01
EXPONENTS  0.1871000D+02 0.4133000D+01 0.1200000D+01 0.3827000D+00 0.3827000D+00
EXPONENTS  0.3827000D+00 0.1209000D+00 0.1209000D+00 0.1209000D+00 0.3569000D-01
EXPONENTS  0.3569000D-01 0.3569000D-01 0.1097000D+01 0.1097000D+01 0.1097000D+01
EXPONENTS  0.1097000D+01 0.1097000D+01 0.1097000D+01 0.3180000D+00 0.3180000D+00
EXPONENTS  0.3180000D+00 0.3180000D+00 0.3180000D+00 0.3180000D+00 0.1000000D+00
EXPONENTS  0.1000000D+00 0.1000000D+00 0.1000000D+00 0.1000000D+00 0.1000000D+00
EXPONENTS  0.7610000D+00 0.7610000D+00 0.7610000D+00 0.7610000D+00 0.7610000D+00
EXPONENTS  0.7610000D+00 0.7610000D+00 0.7610000D+00 0.7610000D+00 0.7610000D+00
EXPONENTS  0.2680000D+00 0.2680000D+00 0.2680000D+00 0.2680000D+00 0.2680000D+00
EXPONENTS  0.2680000D+00 0.2680000D+00 0.2680000D+00 0.2680000D+00 0.2680000D+00
EXPONENTS  0.8236000D+04 0.1235000D+04 0.2808000D+03 0.7927000D+02 0.2559000D+02
EXPONENTS  0.8997000D+01 0.3319000D+01 0.3643000D+00 0.8236000D+04 0.1235000D+04
EXPONENTS  0.2808000D+03 0.7927000D+02 0.2559000D+02 0.8997000D+01 0.3319000D+01
EXPONENTS  0.3643000D+00 0.9059000D+00 0.1285000D+00 0.4402000D-01 0.1871000D+02
EXPONENTS  0.4133000D+01 0.1200000D+01 0.1871000D+02 0.4133000D+01 0.1200000D+01
EXPONENTS  0.1871000D+02 0.4133000D+01 0.1200000D+01 0.3827000D+00 0.3827000D+00
EXPONENTS  0.3827000D+00 0.1209000D+00 0.1209000D+00 0.1209000D+00 0.3569000D-01
EXPONENTS  0.3569000D-01 0.3569000D-01 0.1097000D+01 0.1097000D+01 0.1097000D+01
EXPONENTS  0.1097000D+01 0.1097000D+01 0.1097000D+01 0.3180000D+00 0.3180000D+00
EXPONENTS  0.3180000D+00 0.3180000D+00 0.3180000D+00 0.3180000D+00 0.1000000D+00
EXPONENTS  0.1000000D+00 0.1000000D+00 0.1000000D+00 0.1000000D+00 0.1000000D+00
EXPONENTS  0.7610000D+00 0.7610000D+00 0.7610000D+00 0.7610000D+00 0.7610000D+00
EXPONENTS  0.7610000D+00 0.7610000D+00 0.7610000D+00 0.7610000D+00 0.7610000D+00
EXPONENTS  0.2680000D+00 0.2680000D+00 0.2680000D+00 0.2680000D+00 0.2680000D+00
EXPONENTS  0.2680000D+00 0.2680000D+00 0.2680000D+00 0.2680000D+00 0.2680000D+00
EXPONENTS  0.8236000D+04 0.1235000D+04 0.2808000D+03 0.7927000D+02 0.2559000D+02
EXPONENTS  0.8997000D+01 0.3319000D+01 0.3643000D+00 0.8236000D+04 0.1235000D+04
EXPONENTS  0.2808000D+03 0.7927000D+02 0.2559000D+02 0.8997000D+01 0.3319000D+01
EXPONENTS  0.3643000D+00 0.9059000D+00 0.1285000D+00 0.4402000D-01 0.1871000D+02
EXPONENTS  0.4133000D+01 0.1200000D+01 0.1871000D+02 0.4133000D+01 0.1200000D+01
EXPONENTS  0.1871000D+02 0.4133000D+01 0.1200000D+01 0.3827000D+00 0.3827000D+00
EXPONENTS  0.3827000D+00 0.1209000D+00 0.1209000D+00 0.1209000D+00 0.3569000D-01
EXPONENTS  0.3569000D-01 0.3569000D-01 0.1097000D+01 0.1097000D+01 0.1097000D+01
EXPONENTS  0.1097000D+01 0.1097000D+01 0.1097000D+01 0.3180000D+00 0.3180000D+00
EXPONENTS  0.3180000D+00 0.3180000D+00 0.3180000D+00 0.3180000D+00 0.1000000D+00
EXPONENTS  0.1000000D+00 0.1000000D+00 0.1000000D+00 0.1000000D+00 0.1000000D+00
EXPONENTS  0.7610000D+00 0.7610000D+00 0.7610000D+00 0.7610000D+00 0.7610000D+00
EXPONENTS  0.7610000D+00 0.7610000D+00 0.7610000D+00 0.7610000D+00 0.7610000D+00
EXPONENTS  0.2680000D+00 0.2680000D+00 0.2680000D+00 0.2680000D+00 0.2680000D+00
EXPONENTS  0.2680000D+00 0.2680000D+00 0.2680000D+00 0.2680000D+00 0.2680000D+00
EXPONENTS  0.8236000D+04 0.1235000D+04 0.2808000D+03 0.7927000D+02 0.2559000D+02
EXPONENTS  0.8997000D+01 0.3319000D+01 0.3643000D+00 0.8236000D+04 0.1235000D+04
EXPONENTS  0.2808000D+03 0.7927000D+02 0.2559000D+02 0.8997000D+01 0.3319000D+01
EXPONENTS  0.3643000D+00 0.9059000D+00 0.1285000D+00 0.4402000D-01 0.1871000D+02
EXPONENTS  0.4133000D+01 0.1200000D+01 0.1871000D+02 0.4133000D+01 0.1200000D+01
EXPONENTS  0.1871000D+02 0.4133000D+01 0.1200000D+01 0.3827000D+00 0.3827000D+00
EXPONENTS  0.3827000D+00 0.1209000D+00 0.1209000D+00 0.1209000D+00 0.3569000D-01
EXPONENTS  0.3569000D-01 0.3569000D-01 0.1097000D+01 0.1097000D+01 0.1097000D+01
EXPONENTS  0.1097000D+01 0.1097000D+01 0.1097000D+01 0.3180000D+00 0.3180000D+00
EXPONENTS  0.3180000D+00 0.3180000D+00 0.3180000D+00 0.3180000D+00 0.1000000D+00
EXPONENTS  0.1000000D+00 0.1000000D+00 0.1000000D+00 0.1000000D+00 0.1000000D+00
EXPONENTS  0.7610000D+00 0.7610000D+00 0.7610000D+00 0.7610000D+00 0.7610000D+00
EXPONENTS  0.7610000D+00 0.7610000D+00 0.7610000D+00 0.7610000D+00 0.7610000D+00
EXPONENTS  0.2680000D+00 0.2680000D+00 0.2680000D+00 0.2680000D+00 0.2680000D+00
EXPONENTS  0.2680000D+00 0.2680000D+00 0.2680000D+00 0.2680000D+00 0.2680000D+00
EXPONENTS  0.8236000D+04 0.1235000D+04 0.2808000D+03 0.7927000D+02 0.2559000D+02
EXPONENTS  0.8997000D+01 0.3319000D+01 0.3643000D+00 0.8236000D+04 0.1235000D+04
EXPONENTS  0.2808000D+03 0.7927000D+02 0.2559000D+02 0.8997000D+01 0.3319000D+01
EXPONENTS  0.3643000D+00 0.9059000D+00 0.1285000D+00 0.4402000D-01 0.1871000D+02
EXPONENTS  0.4133000D+01 0.1200000D+01 0.1871000D+02 0.4133000D+01 0.1200000D+01
EXPONENTS  0.1871000D+02 0.4133000D+01 0.1200000D+01 0.3827000D+00 0.3827000D+00
EXPONENTS  0.3827000D+00 0.1209000D+00 0.1209000D+00 0.1209000D+00 0.3569000D-01
EXPONENTS  0.3569000D-01 0.3569000D-01 0.1097000D+01 0.1097000D+01 0.1097000D+01
EXPONENTS  0.1097000D+01 0.1097000D+01 0.1097000D+01 0.3180000D+00 0.3180000D+00
EXPONENTS  0.3180000D+00 0.3180000D+00 0.3180000D+00 0.3180000D+00 0.1000000D+00
EXPONENTS  0.1000000D+00 0.1000000D+00 0.1000000D+00 0.1000000D+00 0.1000000D+00
EXPONENTS  0.7610000D+00 0.7610000D+00 0.7610000D+00 0.7610000D+00 0.7610000D+00
EXPONENTS  0.7610000D+00 0.7610000D+00 0.7610000D+00 0.7610000D+00 0.7610000D+00
EXPONENTS  0.2680000D+00 0.2680000D+00 0.2680000D+00 0.2680000D+00 0.2680000D+00
EXPONENTS  0.2680000D+00 0.2680000D+00 0.2680000D+00 0.2680000D+00 0.2680000D+00
EXPONENTS  0.8236000D+04 0.1235000D+04 0.2808000D+03 0.7927000D+02 0.2559000D+02
EXPONENTS  0.8997000D+01 0.3319000D+01 0.3643000D+00 0.8236000D+04 0.1235000D+04
EXPONENTS  0.2808000D+03 0.7927000D+02 0.2559000D+02 0.8997000D+01 0.3319000D+01
EXPONENTS  0.3643000D+00 0.9059000D+00 0.1285000D+00 0.4402000D-01 0.1871000D+02
EXPONENTS  0.4133000D+01 0.1200000D+01 0.1871000D+02 0.4133000D+01 0.1200000D+01
EXPONENTS  0.1871000D+02 0.4133000D+01 0.1200000D+01 0.3827000D+00 0.3827000D+00
EXPONENTS  0.3827000D+00 0.1209000D+00 0.1209000D+00 0.1209000D+00 0.3569000D-01
EXPONENTS  0.3569000D-01 0.3569000D-01 0.1097000D+01 0.1097000D+01 0.1097000D+01
EXPONENTS  0.1097000D+01 0.1097000D+01 0.1097000D+01 0.3180000D+00 0.3180000D+00
EXPONENTS  0.3180000D+00 0.3180000D+00 0.3180000D+00 0.3180000D+00 0.1000000D+00
EXPONENTS  0.1000000D+00 0.1000000D+00 0.1000000D+00 0.1000000D+00 0.1000000D+00
EXPONENTS  0.7610000D+00 0.7610000D+00 0.7610000D+00 0.7610000D+00 0.7610000D+00
EXPONENTS  0.7610000D+00 0.7610000D+00 0.7610000D+00 0.7610000D+00 0.7610000D+00
EXPONENTS  0.2680000D+00 0.2680000D+00 0.2680000D+00 0.2680000D+00 0.2680000D+00
EXPONENTS  0.2680000D+00 0.2680000D+00 0.2680000D+00 0.2680000D+00 0.2680000D+00
EXPONENTS  0.3387000D+02 0.5095000D+01 0.1159000D+01 0.3258000D+00 0.1027000D+00
EXPONENTS  0.2526000D-01 0.1407000D+01 0.1407000D+01 0.1407000D+01 0.3880000D+00
EXPONENTS  0.3880000D+00 0.3880000D+00 0.1020000D+00 0.1020000D+00 0.1020000D+00
EXPONENTS  0.1057000D+01 0.1057000D+01 0.1057000D+01 0.1057000D+01 0.1057000D+01
EXPONENTS  0.1057000D+01 0.2470000D+00 0.2470000D+00 0.2470000D+00 0.2470000D+00
EXPONENTS  0.2470000D+00 0.2470000D+00 0.3387000D+02 0.5095000D+01 0.1159000D+01
EXPONENTS  0.3258000D+00 0.1027000D+00 0.2526000D-01 0.1407000D+01 0.1407000D+01
EXPONENTS  0.1407000D+01 0.3880000D+00 0.3880000D+00 0.3880000D+00 0.1020000D+00
EXPONENTS  0.1020000D+00 0.1020000D+00 0.1057000D+01 0.1057000D+01 0.1057000D+01
EXPONENTS  0.1057000D+01 0.1057000D+01 0.1057000D+01 0.2470000D+00 0.2470000D+00
EXPONENTS  0.2470000D+00 0.2470000D+00 0.2470000D+00 0.2470000D+00 0.3387000D+02
EXPONENTS  0.5095000D+01 0.1159000D+01 0.3258000D+00 0.1027000D+00 0.2526000D-01
EXPONENTS  0.1407000D+01 0.1407000D+01 0.1407000D+01 0.3880000D+00 0.3880000D+00
EXPONENTS  0.3880000D+00 0.1020000D+00 0.1020000D+00 0.1020000D+00 0.1057000D+01
EXPONENTS  0.1057000D+01 0.1057000D+01 0.1057000D+01 0.1057000D+01 0.1057000D+01
EXPONENTS  0.2470000D+00 0.2470000D+00 0.2470000D+00 0.2470000D+00 0.2470000D+00
EXPONENTS  0.2470000D+00 0.3387000D+02 0.5095000D+01 0.1159000D+01 0.3258000D+00
EXPONENTS  0.1027000D+00 0.2526000D-01 0.1407000D+01 0.1407000D+01 0.1407000D+01
EXPONENTS  0.3880000D+00 0.3880000D+00 0.3880000D+00 0.1020000D+00 0.1020000D+00
EXPONENTS  0.1020000D+00 0.1057000D+01 0.1057000D+01 0.1057000D+01 0.1057000D+01
EXPONENTS  0.1057000D+01 0.1057000D+01 0.2470000D+00 0.2470000D+00 0.2470000D+00
EXPONENTS  0.2470000D+00 0.2470000D+00 0.2470000D+00 0.3387000D+02 0.5095000D+01
EXPONENTS  0.1159000D+01 0.3258000D+00 0.1027000D+00 0.2526000D-01 0.1407000D+01
EXPONENTS  0.1407000D+01 0.1407000D+01 0.3880000D+00 0.3880000D+00 0.3880000D+00
EXPONENTS  0.1020000D+00 0.1020000D+00 0.1020000D+00 0.1057000D+01 0.1057000D+01
EXPONENTS  0.1057000D+01 0.1057000D+01 0.1057000D+01 0.1057000D+01 0.2470000D+00
EXPONENTS  0.2470000D+00 0.2470000D+00 0.2470000D+00 0.2470000D+00 0.2470000D+00
EXPONENTS  0.3387000D+02 0.5095000D+01 0.1159000D+01 0.3258000D+00 0.1027000D+00
EXPONENTS  0.2526000D-01 0.1407000D+01 0.1407000D+01 0.1407000D+01 0.3880000D+00
EXPONENTS  0.3880000D+00 0.3880000D+00 0.1020000D+00 0.1020000D+00 0.1020000D+00
EXPONENTS  0.1057000D+01 0.1057000D+01 0.1057000D+01 0.1057000D+01 0.1057000D+01
EXPONENTS  0.1057000D+01 0.2470000D+00 0.2470000D+00 0.2470000D+00 0.2470000D+00
EXPONENTS  0.2470000D+00 0.2470000D+00
MO    1     MO 0.0        OCC NO =    2.0000000  ORB. ENERGY =   -9.893021
  0.13528908D+00  0.25220961D+00  0.42627868D+00  0.64083648D+00  0.78734166D+00
  0.66503590D+00  0.25082707D+00 -0.12413572D-02 -0.19572060D-02 -0.36645072D-02
 -0.62391371D-02 -0.96509964D-02 -0.12710023D-01 -0.13206528D-01 -0.83921555D-02
  0.56242275D-02  0.17874030D-01 -0.58282085D-02 -0.51846525D-03 -0.10438038D-12
 -0.97863238D-13 -0.69684456D-13  0.59580386D-03  0.55860399D-03  0.39775932D-03
  0.68043030D-15  0.63794666D-15  0.45425602D-15  0.44970919D-10  0.14396101D-02
  0.23198125D-16 -0.23906554D-10  0.17728521D-02  0.11196524D-16  0.20732540D-11
  0.26335156D-04 -0.12930715D-17  0.70819053D-03  0.16237019D-02 -0.23318924D-02
  0.10465744D-10  0.41502545D-16 -0.35788011D-16 -0.43750228D-03 -0.12989711D-02
  0.17364733D-02  0.58304217D-11 -0.66054983D-17  0.71123426D-17  0.10352798D-03
 -0.19938403D-03  0.95856050D-04  0.31188008D-12 -0.32750316D-17  0.14949986D-18
  0.13714523D-11 -0.89193008D-04 -0.20472100D-17 -0.61939988D-11 -0.53598954D-03
  0.51702154D-17  0.20796420D-11  0.80356857D-03  0.97141462D-18 -0.41344432D-17
  0.94869105D-13  0.43761974D-03 -0.65961816D-18 -0.47809943D-11 -0.12777531D-02
  0.27946455D-17  0.44963869D-11 -0.35106139D-04 -0.81579097D-18 -0.35372699D-17
  0.13534270D+00  0.25230956D+00  0.42644761D+00  0.64109044D+00  0.78765368D+00
  0.66529945D+00  0.25092647D+00 -0.12418491D-02 -0.19576775D-02 -0.36653899D-02
 -0.62406400D-02 -0.96533211D-02 -0.12713084D-01 -0.13209709D-01 -0.83941770D-02
  0.56255822D-02  0.17879626D-01 -0.58248930D-02 -0.51809986D-03 -0.51581120D-03
 -0.48360578D-03 -0.34435613D-03  0.29804891D-03  0.27943979D-03  0.19897778D-03
  0.25538585D-17  0.23944047D-17  0.17049588D-17 -0.12464296D-02  0.71953011D-03
 -0.11243536D-17 -0.15357120D-02  0.88613192D-03 -0.33878113D-17 -0.22852770D-04
  0.13202884D-04 -0.56000173D-18  0.13953226D-02  0.93736638D-03 -0.23326890D-02
 -0.79301563D-03 -0.24972111D-17 -0.51572316D-17 -0.10832620D-02 -0.65298241D-03
  0.17362444D-02  0.74608298D-03 -0.46825632D-19  0.77873246D-17 -0.12368766D-03
  0.27832834D-04  0.95854830D-04  0.26253326D-03 -0.25445924D-17 -0.21354044D-17
  0.17398518D-03 -0.21182083D-03 -0.99444100D-18  0.17390791D-03  0.23347694D-03
 -0.21602327D-17 -0.69586344D-03  0.40198556D-03  0.51435557D-17  0.45887079D-17
 -0.75899251D-05 -0.42449264D-03  0.67085581D-18 -0.76434269D-05  0.12909941D-02
 -0.91799374D-18  0.30413202D-04 -0.17516198D-04 -0.10945737D-17 -0.13822664D-17
  0.13534270D+00  0.25230956D+00  0.42644761D+00  0.64109044D+00  0.78765368D+00
  0.66529945D+00  0.25092647D+00 -0.12418491D-02 -0.19576775D-02 -0.36653899D-02
 -0.62406400D-02 -0.96533211D-02 -0.12713084D-01 -0.13209709D-01 -0.83941770D-02
  0.56255822D-02  0.17879626D-01 -0.58248930D-02 -0.51809988D-03 -0.51581120D-03
 -0.48360578D-03 -0.34435613D-03 -0.29804890D-03 -0.27943979D-03 -0.19897778D-03
  0.56299018D-17  0.52783908D-17  0.37585287D-17 -0.12464296D-02 -0.71953013D-03
 -0.48693829D-17 -0.15357120D-02 -0.88613195D-03 -0.31682689D-17 -0.22852768D-04
 -0.13202886D-04  0.42773978D-18  0.13953226D-02  0.93736638D-03 -0.23326890D-02
  0.79301563D-03 -0.20005917D-17  0.94449199D-18 -0.10832620D-02 -0.65298241D-03
  0.17362444D-02 -0.74608299D-03  0.39071286D-17  0.65566316D-18 -0.12368765D-03
  0.27832824D-04  0.95854827D-04 -0.26253321D-03  0.35442069D-17 -0.24141716D-17
  0.17398518D-03  0.21182083D-03 -0.25963710D-19  0.17390791D-03 -0.23347694D-03
  0.88143604D-18 -0.69586344D-03 -0.40198556D-03 -0.80354491D-18  0.17453228D-17
 -0.75899261D-05  0.42449264D-03  0.24950680D-18 -0.76434248D-05 -0.12909941D-02
  0.74652213D-18  0.30413203D-04  0.17516198D-04 -0.14950425D-17 -0.39157370D-18
  0.13528908D+00  0.25220961D+00  0.42627867D+00  0.64083648D+00  0.78734166D+00
  0.66503590D+00  0.25082707D+00 -0.12413572D-02 -0.19572060D-02 -0.36645072D-02
 -0.62391371D-02 -0.96509964D-02 -0.12710023D-01 -0.13206528D-01 -0.83921555D-02
  0.56242275D-02  0.17874029D-01 -0.58282084D-02 -0.51846522D-03 -0.14613658D-12
 -0.13701233D-12 -0.97560940D-13 -0.59580386D-03 -0.55860399D-03 -0.39775932D-03
  0.10094879D-16  0.94645908D-17  0.67393525D-17  0.43409850D-10 -0.14396101D-02
 -0.85294993D-17 -0.65007490D-11 -0.17728521D-02  0.44427940D-17  0.35597855D-11
 -0.26335157D-04 -0.35972622D-18  0.70819053D-03  0.16237019D-02 -0.23318924D-02
 -0.10112291D-10 -0.24835091D-17 -0.38757594D-18 -0.43750228D-03 -0.12989711D-02
  0.17364733D-02 -0.47138777D-11  0.65700779D-17  0.33178969D-17  0.10352801D-03
 -0.19938406D-03  0.95856053D-04 -0.33129503D-11  0.34876515D-17 -0.20218721D-17
  0.14059020D-11  0.89193008D-04  0.58252240D-18 -0.62439144D-11  0.53598954D-03
 -0.93703859D-18  0.20262083D-11 -0.80356856D-03 -0.81052860D-18 -0.11452672D-17
  0.29009075D-12 -0.43761974D-03 -0.64002731D-18 -0.51254021D-11  0.12777531D-02
  0.11527427D-17  0.42551299D-11  0.35106138D-04  0.76733920D-18 -0.23989770D-17
  0.13534270D+00  0.25230956D+00  0.42644760D+00  0.64109043D+00  0.78765367D+00
  0.66529944D+00  0.25092647D+00 -0.12418491D-02 -0.19576774D-02 -0.36653899D-02
 -0.62406399D-02 -0.96533209D-02 -0.12713084D-01 -0.13209709D-01 -0.83941769D-02
  0.56255821D-02  0.17879626D-01 -0.58248929D-02 -0.51809984D-03  0.51581119D-03
  0.48360578D-03  0.34435612D-03 -0.29804890D-03 -0.27943979D-03 -0.19897778D-03
 -0.23042620D-17 -0.21603921D-17 -0.15383278D-17  0.12464297D-02 -0.71953009D-03
 -0.34488924D-17  0.15357120D-02 -0.88613193D-03 -0.11108293D-17  0.22852770D-04
 -0.13202882D-04  0.44074759D-18  0.13953226D-02  0.93736637D-03 -0.23326889D-02
 -0.79301563D-03  0.15017797D-17 -0.40683121D-17 -0.10832620D-02 -0.65298239D-03
  0.17362444D-02  0.74608301D-03 -0.40335680D-18  0.10185450D-16 -0.12368764D-03
  0.27832819D-04  0.95854826D-04  0.26253320D-03  0.98644133D-18  0.32906143D-17
 -0.17398518D-03  0.21182083D-03  0.29381655D-18 -0.17390790D-03 -0.23347694D-03
 -0.15342105D-18  0.69586343D-03 -0.40198555D-03 -0.72802861D-18 -0.22738879D-17
  0.75899236D-05  0.42449263D-03 -0.20728239D-18  0.76434288D-05 -0.12909941D-02
  0.37401126D-17 -0.30413200D-04  0.17516200D-04 -0.31182654D-17  0.37334819D-17
  0.13534270D+00  0.25230956D+00  0.42644760D+00  0.64109043D+00  0.78765367D+00
  0.66529944D+00  0.25092647D+00 -0.12418491D-02 -0.19576774D-02 -0.36653899D-02
 -0.62406399D-02 -0.96533210D-02 -0.12713084D-01 -0.13209709D-01 -0.83941769D-02
  0.56255822D-02  0.17879626D-01 -0.58248929D-02 -0.51809981D-03  0.51581119D-03
  0.48360578D-03  0.34435612D-03  0.29804890D-03  0.27943979D-03  0.19897778D-03
 -0.79471892D-17 -0.74509950D-17 -0.53055523D-17  0.12464297D-02  0.71953008D-03
 -0.25066499D-17  0.15357120D-02  0.88613194D-03 -0.27530164D-17  0.22852771D-04
  0.13202883D-04 -0.43743028D-18  0.13953226D-02  0.93736637D-03 -0.23326889D-02
  0.79301563D-03 -0.96775407D-19 -0.69000130D-17 -0.10832620D-02 -0.65298240D-03
  0.17362444D-02 -0.74608300D-03 -0.84113673D-17  0.16029354D-16 -0.12368766D-03
  0.27832832D-04  0.95854829D-04 -0.26253325D-03 -0.24313952D-17  0.29202518D-17
 -0.17398518D-03 -0.21182083D-03  0.61923308D-18 -0.17390790D-03  0.23347694D-03
 -0.32532145D-17  0.69586343D-03  0.40198555D-03  0.13955153D-17  0.25590090D-17
  0.75899233D-05 -0.42449263D-03  0.87161987D-18  0.76434289D-05  0.12909941D-02
 -0.46989362D-17 -0.30413199D-04 -0.17516201D-04  0.20840766D-17  0.63715565D-17
  0.13295995D-03  0.23979875D-03  0.35358312D-03  0.48281032D-02  0.36462736D-02
  0.71894935D-04 -0.72589400D-12 -0.40720169D-04 -0.45344581D-18  0.77545397D-11
  0.23108772D-03  0.26878537D-17 -0.28558155D-12  0.24434438D-03 -0.27614297D-18
  0.37033221D-03 -0.12778628D-02  0.90753056D-03  0.26065756D-11 -0.45562864D-18
  0.10838554D-17 -0.46777928D-04 -0.19629642D-03  0.24307435D-03 -0.15118890D-11
 -0.52253757D-18  0.10624137D-17  0.13297797D-03  0.23983124D-03  0.35363103D-03
  0.48270378D-02  0.36466413D-02  0.71938433D-04  0.35704190D-04 -0.20590938D-04
 -0.24010636D-17 -0.19938886D-03  0.11490154D-03  0.51742182D-17 -0.21156846D-03
  0.12207731D-03  0.25959079D-17 -0.86620379D-03 -0.41676727D-04  0.90788051D-03
  0.14284714D-02 -0.83003516D-18  0.81832444D-18 -0.15894258D-03 -0.84180237D-04
  0.24312281D-03  0.12963614D-03 -0.18221906D-17  0.13579899D-17  0.13297797D-03
  0.23983124D-03  0.35363102D-03  0.48270378D-02  0.36466410D-02  0.71938432D-04
  0.35704189D-04  0.20590937D-04  0.94249260D-18 -0.19938886D-03 -0.11490155D-03
 -0.68913748D-18 -0.21156844D-03 -0.12207730D-03 -0.22516528D-17 -0.86620379D-03
 -0.41676727D-04  0.90788051D-03 -0.14284714D-02  0.44855047D-18 -0.22916494D-17
 -0.15894257D-03 -0.84180237D-04  0.24312281D-03 -0.12963614D-03 -0.18986903D-18
  0.14306333D-17  0.13295995D-03  0.23979875D-03  0.35358312D-03  0.48281032D-02
  0.36462739D-02  0.71894936D-04 -0.59632612D-12  0.40720169D-04  0.20808914D-17
  0.76146289D-11 -0.23108772D-03 -0.32388874D-17  0.82170264D-12 -0.24434440D-03
  0.22147237D-17  0.37033221D-03 -0.12778628D-02  0.90753056D-03 -0.26762744D-11
  0.68215746D-18  0.19031079D-17 -0.46777928D-04 -0.19629642D-03  0.24307435D-03
  0.13781318D-11  0.15791238D-18 -0.17266193D-18  0.13297797D-03  0.23983124D-03
  0.35363102D-03  0.48270377D-02  0.36466409D-02  0.71938433D-04 -0.35704186D-04
  0.20590935D-04  0.54778779D-18  0.19938888D-03 -0.11490155D-03 -0.30443348D-17
  0.21156844D-03 -0.12207729D-03 -0.14425430D-17 -0.86620377D-03 -0.41676728D-04
  0.90788050D-03  0.14284714D-02 -0.13793018D-17  0.17301076D-17 -0.15894257D-03
 -0.84180234D-04  0.24312281D-03  0.12963614D-03 -0.49550880D-19  0.18066101D-17
  0.13297797D-03  0.23983124D-03  0.35363102D-03  0.48270377D-02  0.36466412D-02
  0.71938434D-04 -0.35704187D-04 -0.20590935D-04 -0.89294755D-18  0.19938887D-03
  0.11490154D-03  0.15717974D-17  0.21156846D-03  0.12207731D-03 -0.29185436D-18
 -0.86620377D-03 -0.41676728D-04  0.90788050D-03 -0.14284714D-02  0.20761421D-18
 -0.16840209D-18 -0.15894257D-03 -0.84180235D-04  0.24312281D-03 -0.12963614D-03
 -0.89943729D-18  0.16910772D-17
MO    2     MO 0.0        OCC NO =    2.0000000  ORB. ENERGY =   -9.892826
 -0.31899176D-07 -0.59467317D-07 -0.10051024D-06 -0.15109982D-06 -0.18564358D-06
 -0.15680568D-06 -0.59141334D-07  0.29269376D-09  0.48715594D-09  0.91210962D-09
  0.15529447D-08  0.24021693D-08  0.31635724D-08  0.32871544D-08  0.20888390D-08
 -0.13998914D-08 -0.42734176D-08  0.21872309D-08  0.73488748D-09  0.41338887D-04
  0.38757834D-04  0.27597887D-04 -0.13131042D-09 -0.12311186D-09 -0.87662980D-10
  0.45938425D-15  0.43070193D-15  0.30668544D-15 -0.81565489D-02  0.92638604D-10
  0.59077298D-16  0.23664854D-02 -0.61101637D-09 -0.59593012D-17 -0.50223111D-03
 -0.58847722D-11 -0.43518758D-18 -0.24360997D-09 -0.21321953D-09  0.45682950D-09
 -0.19172376D-02  0.12682016D-15  0.25854075D-16  0.39770695D-09 -0.98848651D-11
 -0.38782208D-09 -0.90020445D-03 -0.31605477D-18  0.16201232D-16 -0.90899190D-10
  0.11142933D-09 -0.20530141D-10 -0.31806998D-03  0.38923133D-17 -0.66763019D-17
 -0.25991269D-03  0.74138033D-10 -0.10959920D-16  0.11621593D-02  0.71964298D-12
  0.11036233D-16 -0.38242126D-03 -0.22313374D-09  0.21843529D-16 -0.51183589D-16
 -0.65259605D-04 -0.17860692D-09  0.36998579D-17  0.98725500D-03  0.51099336D-09
 -0.74648739D-17 -0.79147619D-03  0.24827411D-10 -0.36346998D-17 -0.12193612D-16
 -0.16593026D+00 -0.30933172D+00 -0.52282511D+00 -0.78597739D+00 -0.96566404D+00
 -0.81565765D+00 -0.30763606D+00  0.15225080D-02  0.25209819D-02  0.47200736D-02
  0.80363292D-02  0.12430979D-01  0.16371162D-01  0.17010686D-01  0.10809528D-01
 -0.72442940D-02 -0.22176329D-01  0.11115946D-01  0.37387357D-02  0.59521724D-03
  0.55805399D-03  0.39736769D-03 -0.31980110D-03 -0.29983386D-03 -0.21349957D-03
  0.29067908D-17  0.27253012D-17  0.19405768D-17 -0.24183198D-02 -0.33129663D-02
 -0.33708528D-17  0.32887880D-02 -0.53248956D-03  0.91846440D-17 -0.10007947D-03
 -0.23218277D-03  0.12645738D-19 -0.74908325D-03 -0.16394004D-02  0.23884836D-02
  0.37517548D-03 -0.40113167D-17  0.86852323D-17  0.68388722D-03  0.13116645D-02
 -0.19955517D-02  0.19875174D-02  0.74458609D-17 -0.31075899D-17  0.38768868D-03
 -0.27982781D-03 -0.10786088D-03 -0.83810540D-03  0.15062144D-17  0.31707822D-17
 -0.46879599D-04  0.84683826D-04  0.43977593D-18 -0.75791386D-03  0.48552054D-03
  0.49395438D-17  0.89855265D-03 -0.73957202D-03 -0.62588716D-17  0.12314500D-17
  0.20831417D-03  0.95076787D-03 -0.52345834D-18 -0.31794242D-03 -0.25725904D-02
 -0.10041611D-17 -0.30700010D-03 -0.27971317D-03  0.25745361D-17 -0.33556063D-18
 -0.16593022D+00 -0.30933166D+00 -0.52282500D+00 -0.78597723D+00 -0.96566384D+00
 -0.81565749D+00 -0.30763599D+00  0.15225077D-02  0.25209814D-02  0.47200727D-02
  0.80363276D-02  0.12430977D-01  0.16371159D-01  0.17010683D-01  0.10809525D-01
 -0.72442926D-02 -0.22176324D-01  0.11115943D-01  0.37387349D-02  0.59521713D-03
  0.55805389D-03  0.39736761D-03  0.31980102D-03  0.29983378D-03  0.21349952D-03
  0.15579710D-17  0.14606968D-17  0.10401032D-17 -0.24183210D-02  0.33129684D-02
 -0.34046070D-17  0.32887878D-02  0.53248864D-03  0.12908402D-16 -0.10007955D-03
  0.23218289D-03  0.14344069D-17 -0.74908277D-03 -0.16394004D-02  0.23884831D-02
 -0.37517579D-03  0.76815278D-17  0.61488738D-18  0.68388724D-03  0.13116641D-02
 -0.19955513D-02 -0.19875172D-02  0.17105210D-17  0.12039885D-17  0.38768866D-03
 -0.27982780D-03 -0.10786085D-03  0.83810517D-03 -0.51663734D-17  0.53434363D-17
 -0.46879429D-04 -0.84683843D-04 -0.58304755D-18 -0.75791411D-03 -0.48552048D-03
 -0.26895592D-17  0.89855240D-03  0.73957201D-03  0.44387018D-17 -0.71665121D-18
  0.20831428D-03 -0.95076775D-03 -0.54342919D-18 -0.31794263D-03  0.25725899D-02
  0.37927750D-17 -0.30700019D-03  0.27971339D-03 -0.21624874D-17  0.29791354D-17
  0.33958490D-07  0.63306346D-07  0.10699888D-06  0.16085436D-06  0.19762817D-06
  0.16692858D-06  0.62959319D-07 -0.31158918D-09 -0.51360043D-09 -0.96162205D-09
 -0.16372438D-08 -0.25325672D-08 -0.33353020D-08 -0.34655924D-08 -0.22022284D-08
  0.14758823D-08  0.45291278D-08 -0.22229523D-08 -0.73151832D-09  0.41338888D-04