 Molden2AIM, Version 4.0.0 (06/02/2016)           Time: Mon Jul  2 16:29:45 2018
GAUSSIAN             15 MOL ORBITALS    462 PRIMITIVES       10 NUCLEI
  H    1    (CENTRE  1)   2.03302028 -4.84295421  0.00000000  CHARGE =  1.0
  H    2    (CENTRE  2)  -2.03302028  4.84295421  0.00000000  CHARGE =  1.0
  H    3    (CENTRE  3)   3.98315528 -1.91439839  0.00000000  CHARGE =  1.0
  H    4    (CENTRE  4)  -3.98315528  1.91439839  0.00000000  CHARGE =  1.0
  H    5    (CENTRE  5)  -1.84097497 -2.30590618  0.00000000  CHARGE =  1.0
  H    6    (CENTRE  6)   1.84097497  2.30590618  0.00000000  CHARGE =  1.0
  C    7    (CENTRE  7)  -0.00596587  1.37458300  0.00000000  CHARGE =  6.0
  C    8    (CENTRE  8)   0.00596587 -1.37458300  0.00000000  CHARGE =  6.0
  C    9    (CENTRE  9)   2.11204106 -2.78476089  0.00000000  CHARGE =  6.0
  C   10    (CENTRE 10)  -2.11204106  2.78476089  0.00000000  CHARGE =  6.0
CENTRE ASSIGNMENTS    1  1  1  1  1  1  1  1  1  1  1  1  1  1  1  1  1  1  1  1
CENTRE ASSIGNMENTS    1  1  1  1  1  1  1  2  2  2  2  2  2  2  2  2  2  2  2  2
CENTRE ASSIGNMENTS    2  2  2  2  2  2  2  2  2  2  2  2  2  2  3  3  3  3  3  3
CENTRE ASSIGNMENTS    3  3  3  3  3  3  3  3  3  3  3  3  3  3  3  3  3  3  3  3
CENTRE ASSIGNMENTS    3  4  4  4  4  4  4  4  4  4  4  4  4  4  4  4  4  4  4  4
CENTRE ASSIGNMENTS    4  4  4  4  4  4  4  4  5  5  5  5  5  5  5  5  5  5  5  5
CENTRE ASSIGNMENTS    5  5  5  5  5  5  5  5  5  5  5  5  5  5  5  6  6  6  6  6
CENTRE ASSIGNMENTS    6  6  6  6  6  6  6  6  6  6  6  6  6  6  6  6  6  6  6  6
CENTRE ASSIGNMENTS    6  6  7  7  7  7  7  7  7  7  7  7  7  7  7  7  7  7  7  7
CENTRE ASSIGNMENTS    7  7  7  7  7  7  7  7  7  7  7  7  7  7  7  7  7  7  7  7
CENTRE ASSIGNMENTS    7  7  7  7  7  7  7  7  7  7  7  7  7  7  7  7  7  7  7  7
CENTRE ASSIGNMENTS    7  7  7  7  7  7  7  7  7  7  7  7  7  7  7  7  7  8  8  8
CENTRE ASSIGNMENTS    8  8  8  8  8  8  8  8  8  8  8  8  8  8  8  8  8  8  8  8
CENTRE ASSIGNMENTS    8  8  8  8  8  8  8  8  8  8  8  8  8  8  8  8  8  8  8  8
CENTRE ASSIGNMENTS    8  8  8  8  8  8  8  8  8  8  8  8  8  8  8  8  8  8  8  8
CENTRE ASSIGNMENTS    8  8  8  8  8  8  8  8  8  8  8  8  9  9  9  9  9  9  9  9
CENTRE ASSIGNMENTS    9  9  9  9  9  9  9  9  9  9  9  9  9  9  9  9  9  9  9  9
CENTRE ASSIGNMENTS    9  9  9  9  9  9  9  9  9  9  9  9  9  9  9  9  9  9  9  9
CENTRE ASSIGNMENTS    9  9  9  9  9  9  9  9  9  9  9  9  9  9  9  9  9  9  9  9
CENTRE ASSIGNMENTS    9  9  9  9  9  9  9 10 10 10 10 10 10 10 10 10 10 10 10 10
CENTRE ASSIGNMENTS   10 10 10 10 10 10 10 10 10 10 10 10 10 10 10 10 10 10 10 10
CENTRE ASSIGNMENTS   10 10 10 10 10 10 10 10 10 10 10 10 10 10 10 10 10 10 10 10
CENTRE ASSIGNMENTS   10 10 10 10 10 10 10 10 10 10 10 10 10 10 10 10 10 10 10 10
CENTRE ASSIGNMENTS   10 10
TYPE ASSIGNMENTS      1  1  1  1  1  1  2  3  4  2  3  4  2  3  4  5  6  7  8  9
TYPE ASSIGNMENTS     10  5  6  7  8  9 10  1  1  1  1  1  1  2  3  4  2  3  4  2
TYPE ASSIGNMENTS      3  4  5  6  7  8  9 10  5  6  7  8  9 10  1  1  1  1  1  1
TYPE ASSIGNMENTS      2  3  4  2  3  4  2  3  4  5  6  7  8  9 10  5  6  7  8  9
TYPE ASSIGNMENTS     10  1  1  1  1  1  1  2  3  4  2  3  4  2  3  4  5  6  7  8
TYPE ASSIGNMENTS      9 10  5  6  7  8  9 10  1  1  1  1  1  1  2  3  4  2  3  4
TYPE ASSIGNMENTS      2  3  4  5  6  7  8  9 10  5  6  7  8  9 10  1  1  1  1  1
TYPE ASSIGNMENTS      1  2  3  4  2  3  4  2  3  4  5  6  7  8  9 10  5  6  7  8
TYPE ASSIGNMENTS      9 10  1  1  1  1  1  1  1  1  1  1  1  1  1  1  1  1  1  1
TYPE ASSIGNMENTS      1  2  2  2  3  3  3  4  4  4  2  3  4  2  3  4  2  3  4  5
TYPE ASSIGNMENTS      6  7  8  9 10  5  6  7  8  9 10  5  6  7  8  9 10 11 12 13
TYPE ASSIGNMENTS     17 14 15 18 19 16 20 11 12 13 17 14 15 18 19 16 20  1  1  1
TYPE ASSIGNMENTS      1  1  1  1  1  1  1  1  1  1  1  1  1  1  1  1  2  2  2  3
TYPE ASSIGNMENTS      3  3  4  4  4  2  3  4  2  3  4  2  3  4  5  6  7  8  9 10
TYPE ASSIGNMENTS      5  6  7  8  9 10  5  6  7  8  9 10 11 12 13 17 14 15 18 19
TYPE ASSIGNMENTS     16 20 11 12 13 17 14 15 18 19 16 20  1  1  1  1  1  1  1  1
TYPE ASSIGNMENTS      1  1  1  1  1  1  1  1  1  1  1  2  2  2  3  3  3  4  4  4
TYPE ASSIGNMENTS      2  3  4  2  3  4  2  3  4  5  6  7  8  9 10  5  6  7  8  9
TYPE ASSIGNMENTS     10  5  6  7  8  9 10 11 12 13 17 14 15 18 19 16 20 11 12 13
TYPE ASSIGNMENTS     17 14 15 18 19 16 20  1  1  1  1  1  1  1  1  1  1  1  1  1
TYPE ASSIGNMENTS      1  1  1  1  1  1  2  2  2  3  3  3  4  4  4  2  3  4  2  3
TYPE ASSIGNMENTS      4  2  3  4  5  6  7  8  9 10  5  6  7  8  9 10  5  6  7  8
TYPE ASSIGNMENTS      9 10 11 12 13 17 14 15 18 19 16 20 11 12 13 17 14 15 18 19
TYPE ASSIGNMENTS     16 20
EXPONENTS  0.3387000D+02 0.5095000D+01 0.1159000D+01 0.3258000D+00 0.1027000D+00
EXPONENTS  0.2526000D-01 0.1407000D+01 0.1407000D+01 0.1407000D+01 0.3880000D+00
EXPONENTS  0.3880000D+00 0.3880000D+00 0.1020000D+00 0.1020000D+00 0.1020000D+00
EXPONENTS  0.1057000D+01 0.1057000D+01 0.1057000D+01 0.1057000D+01 0.1057000D+01
EXPONENTS  0.1057000D+01 0.2470000D+00 0.2470000D+00 0.2470000D+00 0.2470000D+00
EXPONENTS  0.2470000D+00 0.2470000D+00 0.3387000D+02 0.5095000D+01 0.1159000D+01
EXPONENTS  0.3258000D+00 0.1027000D+00 0.2526000D-01 0.1407000D+01 0.1407000D+01
EXPONENTS  0.1407000D+01 0.3880000D+00 0.3880000D+00 0.3880000D+00 0.1020000D+00
EXPONENTS  0.1020000D+00 0.1020000D+00 0.1057000D+01 0.1057000D+01 0.1057000D+01
EXPONENTS  0.1057000D+01 0.1057000D+01 0.1057000D+01 0.2470000D+00 0.2470000D+00
EXPONENTS  0.2470000D+00 0.2470000D+00 0.2470000D+00 0.2470000D+00 0.3387000D+02
EXPONENTS  0.5095000D+01 0.1159000D+01 0.3258000D+00 0.1027000D+00 0.2526000D-01
EXPONENTS  0.1407000D+01 0.1407000D+01 0.1407000D+01 0.3880000D+00 0.3880000D+00
EXPONENTS  0.3880000D+00 0.1020000D+00 0.1020000D+00 0.1020000D+00 0.1057000D+01
EXPONENTS  0.1057000D+01 0.1057000D+01 0.1057000D+01 0.1057000D+01 0.1057000D+01
EXPONENTS  0.2470000D+00 0.2470000D+00 0.2470000D+00 0.2470000D+00 0.2470000D+00
EXPONENTS  0.2470000D+00 0.3387000D+02 0.5095000D+01 0.1159000D+01 0.3258000D+00
EXPONENTS  0.1027000D+00 0.2526000D-01 0.1407000D+01 0.1407000D+01 0.1407000D+01
EXPONENTS  0.3880000D+00 0.3880000D+00 0.3880000D+00 0.1020000D+00 0.1020000D+00
EXPONENTS  0.1020000D+00 0.1057000D+01 0.1057000D+01 0.1057000D+01 0.1057000D+01
EXPONENTS  0.1057000D+01 0.1057000D+01 0.2470000D+00 0.2470000D+00 0.2470000D+00
EXPONENTS  0.2470000D+00 0.2470000D+00 0.2470000D+00 0.3387000D+02 0.5095000D+01
EXPONENTS  0.1159000D+01 0.3258000D+00 0.1027000D+00 0.2526000D-01 0.1407000D+01
EXPONENTS  0.1407000D+01 0.1407000D+01 0.3880000D+00 0.3880000D+00 0.3880000D+00
EXPONENTS  0.1020000D+00 0.1020000D+00 0.1020000D+00 0.1057000D+01 0.1057000D+01
EXPONENTS  0.1057000D+01 0.1057000D+01 0.1057000D+01 0.1057000D+01 0.2470000D+00
EXPONENTS  0.2470000D+00 0.2470000D+00 0.2470000D+00 0.2470000D+00 0.2470000D+00
EXPONENTS  0.3387000D+02 0.5095000D+01 0.1159000D+01 0.3258000D+00 0.1027000D+00
EXPONENTS  0.2526000D-01 0.1407000D+01 0.1407000D+01 0.1407000D+01 0.3880000D+00
EXPONENTS  0.3880000D+00 0.3880000D+00 0.1020000D+00 0.1020000D+00 0.1020000D+00
EXPONENTS  0.1057000D+01 0.1057000D+01 0.1057000D+01 0.1057000D+01 0.1057000D+01
EXPONENTS  0.1057000D+01 0.2470000D+00 0.2470000D+00 0.2470000D+00 0.2470000D+00
EXPONENTS  0.2470000D+00 0.2470000D+00 0.8236000D+04 0.1235000D+04 0.2808000D+03
EXPONENTS  0.7927000D+02 0.2559000D+02 0.8997000D+01 0.3319000D+01 0.3643000D+00
EXPONENTS  0.8236000D+04 0.1235000D+04 0.2808000D+03 0.7927000D+02 0.2559000D+02
EXPONENTS  0.8997000D+01 0.3319000D+01 0.3643000D+00 0.9059000D+00 0.1285000D+00
EXPONENTS  0.4402000D-01 0.1871000D+02 0.4133000D+01 0.1200000D+01 0.1871000D+02
EXPONENTS  0.4133000D+01 0.1200000D+01 0.1871000D+02 0.4133000D+01 0.1200000D+01
EXPONENTS  0.3827000D+00 0.3827000D+00 0.3827000D+00 0.1209000D+00 0.1209000D+00
EXPONENTS  0.1209000D+00 0.3569000D-01 0.3569000D-01 0.3569000D-01 0.1097000D+01
EXPONENTS  0.1097000D+01 0.1097000D+01 0.1097000D+01 0.1097000D+01 0.1097000D+01
EXPONENTS  0.3180000D+00 0.3180000D+00 0.3180000D+00 0.3180000D+00 0.3180000D+00
EXPONENTS  0.3180000D+00 0.1000000D+00 0.1000000D+00 0.1000000D+00 0.1000000D+00
EXPONENTS  0.1000000D+00 0.1000000D+00 0.7610000D+00 0.7610000D+00 0.7610000D+00
EXPONENTS  0.7610000D+00 0.7610000D+00 0.7610000D+00 0.7610000D+00 0.7610000D+00
EXPONENTS  0.7610000D+00 0.7610000D+00 0.2680000D+00 0.2680000D+00 0.2680000D+00
EXPONENTS  0.2680000D+00 0.2680000D+00 0.2680000D+00 0.2680000D+00 0.2680000D+00
EXPONENTS  0.2680000D+00 0.2680000D+00 0.8236000D+04 0.1235000D+04 0.2808000D+03
EXPONENTS  0.7927000D+02 0.2559000D+02 0.8997000D+01 0.3319000D+01 0.3643000D+00
EXPONENTS  0.8236000D+04 0.1235000D+04 0.2808000D+03 0.7927000D+02 0.2559000D+02
EXPONENTS  0.8997000D+01 0.3319000D+01 0.3643000D+00 0.9059000D+00 0.1285000D+00
EXPONENTS  0.4402000D-01 0.1871000D+02 0.4133000D+01 0.1200000D+01 0.1871000D+02
EXPONENTS  0.4133000D+01 0.1200000D+01 0.1871000D+02 0.4133000D+01 0.1200000D+01
EXPONENTS  0.3827000D+00 0.3827000D+00 0.3827000D+00 0.1209000D+00 0.1209000D+00
EXPONENTS  0.1209000D+00 0.3569000D-01 0.3569000D-01 0.3569000D-01 0.1097000D+01
EXPONENTS  0.1097000D+01 0.1097000D+01 0.1097000D+01 0.1097000D+01 0.1097000D+01
EXPONENTS  0.3180000D+00 0.3180000D+00 0.3180000D+00 0.3180000D+00 0.3180000D+00
EXPONENTS  0.3180000D+00 0.1000000D+00 0.1000000D+00 0.1000000D+00 0.1000000D+00
EXPONENTS  0.1000000D+00 0.1000000D+00 0.7610000D+00 0.7610000D+00 0.7610000D+00
EXPONENTS  0.7610000D+00 0.7610000D+00 0.7610000D+00 0.7610000D+00 0.7610000D+00
EXPONENTS  0.7610000D+00 0.7610000D+00 0.2680000D+00 0.2680000D+00 0.2680000D+00
EXPONENTS  0.2680000D+00 0.2680000D+00 0.2680000D+00 0.2680000D+00 0.2680000D+00
EXPONENTS  0.2680000D+00 0.2680000D+00 0.8236000D+04 0.1235000D+04 0.2808000D+03
EXPONENTS  0.7927000D+02 0.2559000D+02 0.8997000D+01 0.3319000D+01 0.3643000D+00
EXPONENTS  0.8236000D+04 0.1235000D+04 0.2808000D+03 0.7927000D+02 0.2559000D+02
EXPONENTS  0.8997000D+01 0.3319000D+01 0.3643000D+00 0.9059000D+00 0.1285000D+00
EXPONENTS  0.4402000D-01 0.1871000D+02 0.4133000D+01 0.1200000D+01 0.1871000D+02
EXPONENTS  0.4133000D+01 0.1200000D+01 0.1871000D+02 0.4133000D+01 0.1200000D+01
EXPONENTS  0.3827000D+00 0.3827000D+00 0.3827000D+00 0.1209000D+00 0.1209000D+00
EXPONENTS  0.1209000D+00 0.3569000D-01 0.3569000D-01 0.3569000D-01 0.1097000D+01
EXPONENTS  0.1097000D+01 0.1097000D+01 0.1097000D+01 0.1097000D+01 0.1097000D+01
EXPONENTS  0.3180000D+00 0.3180000D+00 0.3180000D+00 0.3180000D+00 0.3180000D+00
EXPONENTS  0.3180000D+00 0.1000000D+00 0.1000000D+00 0.1000000D+00 0.1000000D+00
EXPONENTS  0.1000000D+00 0.1000000D+00 0.7610000D+00 0.7610000D+00 0.7610000D+00
EXPONENTS  0.7610000D+00 0.7610000D+00 0.7610000D+00 0.7610000D+00 0.7610000D+00
EXPONENTS  0.7610000D+00 0.7610000D+00 0.2680000D+00 0.2680000D+00 0.2680000D+00
EXPONENTS  0.2680000D+00 0.2680000D+00 0.2680000D+00 0.2680000D+00 0.2680000D+00
EXPONENTS  0.2680000D+00 0.2680000D+00 0.8236000D+04 0.1235000D+04 0.2808000D+03
EXPONENTS  0.7927000D+02 0.2559000D+02 0.8997000D+01 0.3319000D+01 0.3643000D+00
EXPONENTS  0.8236000D+04 0.1235000D+04 0.2808000D+03 0.7927000D+02 0.2559000D+02
EXPONENTS  0.8997000D+01 0.3319000D+01 0.3643000D+00 0.9059000D+00 0.1285000D+00
EXPONENTS  0.4402000D-01 0.1871000D+02 0.4133000D+01 0.1200000D+01 0.1871000D+02
EXPONENTS  0.4133000D+01 0.1200000D+01 0.1871000D+02 0.4133000D+01 0.1200000D+01
EXPONENTS  0.3827000D+00 0.3827000D+00 0.3827000D+00 0.1209000D+00 0.1209000D+00
EXPONENTS  0.1209000D+00 0.3569000D-01 0.3569000D-01 0.3569000D-01 0.1097000D+01
EXPONENTS  0.1097000D+01 0.1097000D+01 0.1097000D+01 0.1097000D+01 0.1097000D+01
EXPONENTS  0.3180000D+00 0.3180000D+00 0.3180000D+00 0.3180000D+00 0.3180000D+00
EXPONENTS  0.3180000D+00 0.1000000D+00 0.1000000D+00 0.1000000D+00 0.1000000D+00
EXPONENTS  0.1000000D+00 0.1000000D+00 0.7610000D+00 0.7610000D+00 0.7610000D+00
EXPONENTS  0.7610000D+00 0.7610000D+00 0.7610000D+00 0.7610000D+00 0.7610000D+00
EXPONENTS  0.7610000D+00 0.7610000D+00 0.2680000D+00 0.2680000D+00 0.2680000D+00
EXPONENTS  0.2680000D+00 0.2680000D+00 0.2680000D+00 0.2680000D+00 0.2680000D+00
EXPONENTS  0.2680000D+00 0.2680000D+00
MO    1     MO 0.0        OCC NO =    2.0000000  ORB. ENERGY =   -9.897776
  0.24499028D-04  0.44185006D-04  0.65150765D-04  0.49596015D-02 -0.75624940D-02
  0.69126040D-04  0.66677639D-04  0.86143931D-03  0.38524674D-16 -0.56708129D-03
  0.33774632D-02  0.44902423D-16  0.32740825D-04 -0.75999274D-03 -0.14469847D-17
 -0.50802985D-03  0.87713543D-03 -0.36910558D-03 -0.11096180D-03  0.53036037D-16
  0.20514522D-17 -0.20145229D-03  0.24771565D-03 -0.46263356D-04  0.23255973D-03
 -0.11227836D-17  0.84737140D-17  0.24499028D-04  0.44185006D-04  0.65150765D-04
  0.49596015D-02 -0.75624940D-02  0.69126040D-04 -0.66677639D-04 -0.86143931D-03
  0.16414710D-17  0.56708129D-03 -0.33774632D-02 -0.12526433D-17 -0.32740825D-04
  0.75999274D-03 -0.31229660D-18 -0.50802985D-03  0.87713543D-03 -0.36910558D-03
 -0.11096179D-03  0.90022640D-19 -0.26894580D-18 -0.20145229D-03  0.24771565D-03
 -0.46263356D-04  0.23255973D-03  0.22043090D-18  0.64886157D-18  0.13569455D-05
  0.24473071D-05  0.36085529D-05  0.12263709D-02  0.18301380D-02  0.60762144D-05
 -0.59432611D-03 -0.10852646D-03 -0.84841835D-17 -0.13164772D-02 -0.67812815D-03
  0.70506253D-17 -0.14499778D-03 -0.54693066D-03  0.29308927D-17  0.42404523D-03
  0.13899252D-04 -0.43794449D-03  0.56780898D-03  0.15918403D-17  0.19755363D-17
  0.27101434D-04 -0.22826887D-04 -0.42745472D-05  0.30048828D-03 -0.23313145D-17
  0.41741880D-18  0.13569455D-05  0.24473071D-05  0.36085530D-05  0.12263709D-02
  0.18301380D-02  0.60762144D-05  0.59432611D-03  0.10852646D-03 -0.40268777D-18
  0.13164772D-02  0.67812815D-03  0.99430302D-18  0.14499778D-03  0.54693066D-03
 -0.90897369D-19  0.42404523D-03  0.13899252D-04 -0.43794449D-03  0.56780898D-03
  0.10104739D-18  0.36887414D-18  0.27101434D-04 -0.22826887D-04 -0.42745472D-05
  0.30048828D-03  0.32122820D-18 -0.41596384D-18  0.21889637D-03  0.39478862D-03
  0.58211559D-03  0.24358441D-02  0.16470059D-01 -0.38497128D-04 -0.69194893D-03
 -0.23931104D-03  0.70972728D-18 -0.23261364D-02 -0.11191894D-02 -0.50032913D-17
  0.15007246D-02  0.50558956D-03  0.16479630D-17 -0.17823863D-02  0.25355535D-03
  0.15288309D-02 -0.30156875D-02 -0.23404230D-17 -0.50924204D-18 -0.21445550D-03
 -0.27079596D-03  0.48525146D-03 -0.28013261D-03  0.11452265D-20  0.20546358D-18
  0.21889637D-03  0.39478862D-03  0.58211559D-03  0.24358441D-02  0.16470059D-01
 -0.38497128D-04  0.69194893D-03  0.23931104D-03 -0.54071591D-18  0.23261364D-02
  0.11191894D-02  0.97980082D-18 -0.15007246D-02 -0.50558956D-03 -0.45322721D-18
 -0.17823863D-02  0.25355535D-03  0.15288309D-02 -0.30156875D-02 -0.90589207D-18
 -0.10647420D-17 -0.21445550D-03 -0.27079596D-03  0.48525146D-03 -0.28013261D-03
 -0.80307412D-19 -0.36001725D-18  0.23403619D+00  0.43629666D+00  0.73741822D+00
  0.11085811D+01  0.13620200D+01  0.11504436D+01  0.43390501D+00 -0.21474201D-02
 -0.31902691D-02 -0.59731903D-02 -0.10169868D-01 -0.15731239D-01 -0.20717488D-01
 -0.21526797D-01 -0.13679313D-01  0.91675576D-02  0.29035841D-01 -0.56022772D-02
 -0.20773334D-02  0.29954768D-04  0.28084499D-04  0.19997836D-04 -0.41685757D-03
 -0.39083047D-03 -0.27829458D-03  0.66807735D-17  0.62636498D-17  0.44600918D-17
  0.71019633D-03 -0.32069047D-02 -0.20517585D-17 -0.42946333D-02  0.19044301D-02
 -0.27697379D-17  0.18460771D-03 -0.12918066D-03 -0.21803755D-18  0.19199827D-02
  0.18147436D-02 -0.37347263D-02 -0.12024012D-02  0.17054047D-17  0.15072637D-17
  0.95157655D-04 -0.16887045D-02  0.15935469D-02  0.36139939D-02 -0.20929869D-17
 -0.56029223D-18 -0.52845673D-03  0.50269803D-03  0.25758697D-04 -0.25430988D-02
  0.18590815D-18  0.50025714D-18  0.29244920D-03 -0.14663096D-03  0.82534554D-18
 -0.22810962D-03  0.15849514D-02 -0.13007458D-17 -0.64923799D-03 -0.11450585D-02
 -0.11752908D-17  0.23005584D-17 -0.15874333D-03  0.99934420D-03 -0.18931072D-18
  0.17120218D-03 -0.25548857D-02 -0.15417452D-18  0.30502780D-03 -0.44314688D-03
  0.72210666D-18  0.86219395D-18  0.23403619D+00  0.43629666D+00  0.73741822D+00
  0.11085811D+01  0.13620200D+01  0.11504436D+01  0.43390501D+00 -0.21474201D-02
 -0.31902691D-02 -0.59731903D-02 -0.10169868D-01 -0.15731239D-01 -0.20717488D-01
 -0.21526797D-01 -0.13679313D-01  0.91675576D-02  0.29035841D-01 -0.56022772D-02
 -0.20773334D-02 -0.29954768D-04 -0.28084499D-04 -0.19997836D-04  0.41685757D-03
  0.39083047D-03  0.27829458D-03  0.13413744D-16  0.12576237D-16  0.89550301D-17
 -0.71019633D-03  0.32069047D-02 -0.80927884D-17  0.42946333D-02 -0.19044302D-02
  0.27121069D-17 -0.18460771D-03  0.12918066D-03  0.31414118D-18  0.19199827D-02
  0.18147436D-02 -0.37347263D-02 -0.12024012D-02  0.10063419D-18 -0.31971890D-18
  0.95157655D-04 -0.16887045D-02  0.15935469D-02  0.36139939D-02 -0.48126344D-17
  0.37498394D-17 -0.52845672D-03  0.50269803D-03  0.25758697D-04 -0.25430988D-02
  0.13529115D-17  0.15056443D-17 -0.29244920D-03  0.14663096D-03  0.14568504D-17
  0.22810962D-03 -0.15849514D-02 -0.34394515D-17  0.64923799D-03  0.11450585D-02
 -0.93109969D-18  0.35614203D-17  0.15874333D-03 -0.99934420D-03 -0.37921196D-18
 -0.17120218D-03  0.25548857D-02  0.11412822D-17 -0.30502780D-03  0.44314688D-03
 -0.36462895D-20  0.51986106D-17  0.89579755D-02  0.16699703D-01  0.28225440D-01
  0.42432082D-01  0.52132716D-01  0.44034412D-01  0.16608160D-01 -0.82194712D-04
 -0.62532779D-03 -0.11708109D-02 -0.19934058D-02 -0.30834956D-02 -0.40608553D-02
 -0.42194887D-02 -0.26812957D-02  0.17969420D-02  0.37383596D-02 -0.13069338D-01
  0.17778453D-02 -0.65472544D-03 -0.61384671D-03 -0.43709543D-03  0.23807228D-03
  0.22320789D-03  0.15893732D-03  0.14607637D-16  0.13695589D-16  0.97520750D-17
 -0.36164248D-02  0.39423631D-02 -0.10837034D-17  0.40978448D-02 -0.21479736D-02
 -0.40960591D-17 -0.66907076D-04  0.39226954D-04 -0.18132656D-18 -0.23353447D-03
  0.18893039D-03  0.44604081D-04 -0.62695429D-03  0.17744921D-17  0.36889649D-18
  0.44140907D-03 -0.22237673D-02  0.17823582D-02 -0.54605727D-04 -0.79895152D-17
  0.73983323D-17 -0.44652944D-03  0.51056140D-03 -0.64031953D-04  0.87405768D-04
 -0.10566963D-17 -0.18303791D-17 -0.13438497D-03  0.83450730D-03 -0.41889114D-17
  0.12368615D-02 -0.28851346D-02  0.94582340D-17 -0.83370659D-03  0.38161270D-03
  0.31085001D-17 -0.33325760D-17 -0.42768813D-04 -0.16264718D-03  0.11128847D-17
  0.55657330D-03  0.26148314D-03  0.11824541D-17 -0.42826686D-03  0.22645840D-03
 -0.45211083D-17 -0.20351150D-17  0.89579755D-02  0.16699703D-01  0.28225440D-01
  0.42432082D-01  0.52132716D-01  0.44034412D-01  0.16608160D-01 -0.82194712D-04
 -0.62532779D-03 -0.11708109D-02 -0.19934058D-02 -0.30834956D-02 -0.40608553D-02
 -0.42194887D-02 -0.26812957D-02  0.17969420D-02  0.37383596D-02 -0.13069338D-01
  0.17778453D-02  0.65472544D-03  0.61384671D-03  0.43709543D-03 -0.23807228D-03
 -0.22320789D-03 -0.15893732D-03 -0.55715021D-18 -0.52236374D-18 -0.37195410D-18
  0.36164248D-02 -0.39423631D-02  0.61252872D-18 -0.40978448D-02  0.21479736D-02
  0.11682229D-17  0.66907076D-04 -0.39226954D-04  0.29029506D-20 -0.23353447D-03
  0.18893039D-03  0.44604081D-04 -0.62695429D-03  0.23942475D-18 -0.64380681D-18
  0.44140907D-03 -0.22237673D-02  0.17823582D-02 -0.54605726D-04  0.86272589D-18
  0.39478790D-18 -0.44652944D-03  0.51056140D-03 -0.64031953D-04  0.87405767D-04
 -0.58403320D-20  0.37336876D-19  0.13438497D-03 -0.83450730D-03 -0.40048168D-18
 -0.12368615D-02  0.28851346D-02  0.65340464D-18  0.83370659D-03 -0.38161270D-03
  0.54804039D-18  0.48499409D-18  0.42768813D-04  0.16264718D-03  0.63318825D-19
 -0.55657330D-03 -0.26148314D-03 -0.55315206D-19  0.42826686D-03 -0.22645839D-03
 -0.13464127D-18 -0.88413331D-18
MO    2     MO 0.0        OCC NO =    2.0000000  ORB. ENERGY =   -9.897512
  0.13926173D-03  0.25116426D-03  0.37034156D-03  0.62087589D-02  0.87447421D-02
 -0.23944169D-03 -0.14488841D-03  0.71271280D-03  0.11152801D-15  0.15439067D-02
  0.25008332D-03 -0.17957067D-18  0.16248345D-03  0.81489880D-03 -0.42893714D-17
 -0.35269775D-03 -0.21506306D-03  0.56776081D-03  0.13318807D-02  0.36452161D-17
  0.28350859D-15 -0.21884240D-04 -0.22645333D-03  0.24833757D-03  0.31573769D-03
  0.73322993D-18 -0.36808855D-16 -0.13926173D-03 -0.25116426D-03 -0.37034156D-03
 -0.62087589D-02 -0.87447421D-02  0.23944169D-03 -0.14488841D-03  0.71271280D-03
  0.17354608D-17  0.15439067D-02  0.25008332D-03 -0.75409129D-18  0.16248345D-03
  0.81489880D-03  0.27716108D-19  0.35269775D-03  0.21506306D-03 -0.56776081D-03
 -0.13318807D-02 -0.12419258D-19 -0.49790232D-18  0.21884240D-04  0.22645333D-03
 -0.24833757D-03 -0.31573769D-03 -0.24368628D-21  0.43094227D-18  0.15224738D-03
  0.27458443D-03  0.40487458D-03  0.23492374D-02  0.34635808D-02 -0.13197867D-03
 -0.93601317D-03  0.29486153D-04  0.33463060D-17  0.21165797D-02 -0.99387697D-03
 -0.11928773D-17 -0.20811716D-03 -0.14249563D-04  0.92283735D-18 -0.72220281D-03
  0.34991142D-04  0.68721167D-03  0.74288036D-03 -0.26310539D-17 -0.36916364D-17
 -0.36870832D-03  0.10241672D-03  0.26629160D-03  0.70989508D-04 -0.47773882D-18
 -0.81139847D-19 -0.15224738D-03 -0.27458443D-03 -0.40487458D-03 -0.23492374D-02
 -0.34635808D-02  0.13197867D-03 -0.93601317D-03  0.29486153D-04 -0.83707920D-19
  0.21165797D-02 -0.99387697D-03  0.57042440D-18 -0.20811716D-03 -0.14249563D-04
  0.32249055D-18  0.72220281D-03 -0.34991142D-04 -0.68721167D-03 -0.74288036D-03
  0.85794825D-18 -0.52269033D-18  0.36870832D-03 -0.10241672D-03 -0.26629160D-03
 -0.70989508D-04  0.51715704D-18 -0.23332992D-18  0.64237707D-04  0.11585535D-03
  0.17082865D-03 -0.42514633D-02 -0.42179567D-02  0.10554902D-03 -0.13883399D-02
 -0.58070314D-03 -0.37466227D-18 -0.26651705D-02 -0.57499003D-03  0.20449385D-17
 -0.82620600D-03  0.12550919D-03 -0.91334762D-18 -0.19121871D-02  0.88274571D-03
  0.10294413D-02 -0.26318600D-02  0.20745293D-17  0.15711499D-17 -0.24635167D-03
  0.16402214D-03  0.82329536D-04 -0.86294313D-04  0.30102521D-18 -0.49540718D-18
 -0.64237707D-04 -0.11585535D-03 -0.17082865D-03  0.42514633D-02  0.42179567D-02
 -0.10554902D-03 -0.13883399D-02 -0.58070314D-03 -0.20379565D-17 -0.26651705D-02
 -0.57499003D-03  0.34548804D-17 -0.82620600D-03  0.12550919D-03 -0.10844340D-17
  0.19121871D-02 -0.88274571D-03 -0.10294413D-02  0.26318600D-02 -0.12087514D-17
 -0.51424473D-18  0.24635167D-03 -0.16402214D-03 -0.82329536D-04  0.86294313D-04
 -0.79340031D-18  0.34450498D-18 -0.23333497D+00 -0.43498944D+00 -0.73520878D+00
 -0.11052596D+01 -0.13579391D+01 -0.11469967D+01 -0.43260495D+00  0.21409860D-02
  0.26373476D-02  0.49379468D-02  0.84072770D-02  0.13004779D-01  0.17126837D-01
  0.17795880D-01  0.11308483D-01 -0.75786824D-02 -0.27037739D-01 -0.68932137D-02
 -0.31273986D-02 -0.81948295D-03 -0.76831735D-03 -0.54708773D-03  0.93199999D-03
  0.87380923D-03  0.62220423D-03 -0.86198134D-17 -0.80816230D-17 -0.57545970D-17
  0.56415126D-02 -0.72634272D-02  0.29112453D-17 -0.44730850D-02  0.68206561D-02
 -0.17966598D-17  0.44243094D-03 -0.42003476D-03  0.16939156D-19 -0.25859527D-02
 -0.64194398D-03  0.32278967D-02  0.14044461D-02 -0.19048226D-18  0.61987786D-17
 -0.16044697D-02  0.20241051D-02 -0.41963540D-03 -0.81514272D-03  0.11715057D-17
 -0.85369247D-17  0.31048147D-03 -0.27955385D-03 -0.30927613D-04 -0.10187394D-02
  0.15256900D-17 -0.59861405D-18 -0.18143614D-03  0.78899364D-03 -0.11000914D-18
  0.76546715D-03 -0.33843224D-02  0.95705127D-21 -0.22115873D-03  0.10173415D-02
  0.32907038D-18  0.44285367D-18  0.25534019D-03  0.30601383D-03 -0.21583824D-19
 -0.14432041D-02 -0.31769266D-03 -0.10773461D-17  0.67718356D-03 -0.60034884D-03
  0.11420976D-17 -0.99474099D-18  0.23333497D+00  0.43498944D+00  0.73520878D+00
  0.11052596D+01  0.13579391D+01  0.11469967D+01  0.43260495D+00 -0.21409860D-02
 -0.26373476D-02 -0.49379468D-02 -0.84072770D-02 -0.13004779D-01 -0.17126837D-01
 -0.17795880D-01 -0.11308483D-01  0.75786824D-02  0.27037739D-01  0.68932137D-02
  0.31273986D-02 -0.81948295D-03 -0.76831735D-03 -0.54708773D-03  0.93199999D-03
  0.87380923D-03  0.62220423D-03  0.22083778D-17  0.20704946D-17  0.14743155D-17
  0.56415126D-02 -0.72634272D-02 -0.71422104D-19 -0.44730850D-02  0.68206561D-02
 -0.20275193D-17  0.44243094D-03 -0.42003476D-03  0.46965285D-19  0.25859527D-02
  0.64194398D-03 -0.32278967D-02 -0.14044461D-02 -0.33132636D-17  0.11156200D-16
  0.16044697D-02 -0.20241051D-02  0.41963541D-03  0.81514272D-03  0.57364947D-17
 -0.88297154D-17 -0.31048147D-03  0.27955385D-03  0.30927613D-04  0.10187394D-02
 -0.11671592D-17  0.36236232D-18 -0.18143614D-03  0.78899364D-03  0.24986898D-18
  0.76546715D-03 -0.33843224D-02 -0.12079324D-17 -0.22115873D-03  0.10173415D-02
  0.45832549D-18 -0.43152085D-17  0.25534019D-03  0.30601383D-03  0.56474592D-19
 -0.14432041D-02 -0.31769266D-03  0.13720716D-17  0.67718356D-03 -0.60034884D-03
 -0.15414954D-17 -0.35302254D-17  0.86757615D-02  0.16173592D-01  0.27336220D-01
  0.41095293D-01  0.50490315D-01  0.42647143D-01  0.16084933D-01 -0.79605231D-04
 -0.44251617D-03 -0.82852989D-03 -0.14106430D-02 -0.21820503D-02 -0.28736834D-02
 -0.29859412D-02 -0.18974316D-02  0.12716145D-02  0.37781264D-02 -0.19276420D-02
 -0.67618128D-02 -0.11659972D-02 -0.10931965D-02 -0.77842102D-03  0.10188861D-02
  0.95527045D-03  0.68020947D-03 -0.98666400D-17 -0.92506022D-17 -0.65869798D-17
  0.25307889D-02 -0.28484824D-02 -0.46711367D-17 -0.37295350D-02  0.29536865D-02
 -0.55068272D-18  0.24951665D-03 -0.25576865D-03 -0.33250694D-19 -0.28200068D-03
  0.12268292D-03  0.15931776D-03  0.12369993D-02 -0.32006429D-18 -0.92548329D-17
 -0.38743128D-03 -0.11141540D-02  0.15015853D-02  0.57794972D-02  0.33875737D-17
 -0.66768355D-17  0.20966836D-03 -0.48070793D-03  0.27103958D-03 -0.23276957D-03
 -0.63688413D-18  0.49374938D-18  0.19097388D-03  0.53275288D-03 -0.67955866D-18
  0.92429579D-03 -0.24035240D-02 -0.11182931D-16 -0.14972174D-02  0.80526532D-03
  0.13221607D-16  0.14602452D-17 -0.28377833D-03  0.85141232D-03 -0.19403783D-18
  0.65663374D-03 -0.22405900D-02  0.12929923D-18  0.19470126D-03 -0.31364695D-03
  0.45281427D-18  0.16723139D-17 -0.86757615D-02 -0.16173592D-01 -0.27336220D-01
 -0.41095293D-01 -0.50490315D-01 -0.42647143D-01 -0.16084933D-01  0.79605231D-04
  0.44251617D-03  0.82852989D-03  0.14106430D-02  0.21820503D-02  0.28736834D-02
  0.29859412D-02  0.18974316D-02 -0.12716145D-02 -0.37781264D-02  0.19276420D-02
  0.67618128D-02 -0.11659972D-02 -0.10931965D-02 -0.77842102D-03  0.10188861D-02
  0.95527045D-03  0.68020947D-03  0.16909375D-17  0.15853614D-17  0.11288718D-17
  0.25307889D-02 -0.28484824D-02  0.38134141D-18 -0.37295350D-02  0.29536865D-02
  0.36210595D-17  0.24951665D-03 -0.25576865D-03 -0.63642271D-19  0.28200068D-03
 -0.12268292D-03 -0.15931776D-03 -0.12369993D-02 -0.56469473D-18  0.35393058D-18
  0.38743128D-03  0.11141540D-02 -0.15015853D-02 -0.57794972D-02  0.22571293D-17
 -0.75997711D-18 -0.20966836D-03  0.48070793D-03 -0.27103958D-03  0.23276957D-03
  0.53779126D-18 -0.21499791D-18  0.19097388D-03  0.53275288D-03 -0.19976928D-18
  0.92429579D-03 -0.24035240D-02  0.48029239D-18 -0.14972174D-02  0.80526532D-03
  0.11901546D-18 -0.32511773D-19 -0.28377833D-03  0.85141232D-03 -0.35724619D-19
  0.65663374D-03 -0.22405900D-02  0.47427855D-18  0.19470126D-03 -0.31364695D-03
 -0.36710469D-18 -0.97771229D-18
MO    3     MO 0.0        OCC NO =    2.0000000  ORB. ENERGY =   -9.887967
  0.10838609D-03  0.19547878D-03  0.28823335D-03  0.52058752D-02  0.93759720D-02
 -0.70020230D-04 -0.15004666D-04 -0.14428406D-02 -0.30056724D-16  0.19090216D-03
 -0.37435289D-03 -0.55900260D-17 -0.12551660D-03  0.86409688D-03 -0.18923649D-17
  0.11611281D-02 -0.26151894D-02  0.14540613D-02 -0.67560220D-04 -0.61807235D-16
 -0.77495945D-16  0.71081573D-04 -0.30733084D-03  0.23624926D-03 -0.21346585D-04
 -0.16451775D-17 -0.35971724D-17 -0.10838609D-03 -0.19547877D-03 -0.28823334D-03
 -0.52058752D-02 -0.93759721D-02  0.70020232D-04 -0.15004660D-04 -0.14428405D-02
  0.14637073D-17  0.19090217D-03 -0.37435281D-03 -0.15650187D-17 -0.12551658D-03
  0.86409690D-03  0.23557877D-18 -0.11611280D-02  0.26151893D-02 -0.14540612D-02
  0.67560216D-04 -0.11966807D-18 -0.33032025D-18 -0.71081576D-04  0.30733083D-03
 -0.23624925D-03  0.21346580D-04  0.26969511D-18  0.28550263D-19  0.14032733D-03
  0.25308612D-03  0.37317533D-03 -0.16073012D-02  0.93593665D-03 -0.41665728D-04
  0.97680106D-03  0.64301760D-03  0.88488995D-17  0.25993098D-02  0.14195025D-02
 -0.40115907D-17 -0.72660394D-04  0.50161957D-03 -0.12937439D-17 -0.18090738D-02
  0.38720431D-03  0.14218694D-02 -0.28982157D-02 -0.49060090D-17 -0.50852481D-17
 -0.13934316D-03 -0.11513973D-03  0.25448289D-03 -0.30590613D-03  0.82901014D-18
  0.70365863D-19 -0.14032733D-03 -0.25308611D-03 -0.37317532D-03  0.16073013D-02
 -0.93593643D-03  0.41665727D-04  0.97680101D-03  0.64301758D-03  0.89416644D-19
  0.25993098D-02  0.14195025D-02 -0.93353790D-19 -0.72660371D-04  0.50161957D-03
  0.47229896D-18  0.18090737D-02 -0.38720429D-03 -0.14218694D-02  0.28982156D-02
 -0.41487722D-19 -0.27879505D-18  0.13934316D-03  0.11513972D-03 -0.25448288D-03
  0.30590613D-03 -0.18745487D-18  0.47091085D-18  0.17437470D-03  0.31449196D-03
  0.46371821D-03  0.91500355D-04 -0.64224379D-03 -0.11924513D-04  0.73520138D-03
  0.12432426D-03 -0.26993839D-17 -0.26093799D-02 -0.37034884D-03  0.78714838D-17
 -0.76680602D-03  0.71885512D-03 -0.27930887D-17 -0.48912923D-03 -0.31865431D-03
  0.80778354D-03  0.12905096D-03  0.17692652D-17  0.57181042D-18 -0.41794654D-03
  0.14901174D-03  0.26893480D-03  0.55135462D-04  0.64385390D-18 -0.85900745D-19
 -0.17437470D-03 -0.31449195D-03 -0.46371820D-03 -0.91500415D-04  0.64224387D-03
  0.11924513D-04  0.73520137D-03  0.12432423D-03 -0.55975910D-18 -0.26093798D-02
 -0.37034880D-03  0.27956391D-17 -0.76680602D-03  0.71885509D-03 -0.85752801D-18
  0.48912922D-03  0.31865433D-03 -0.80778354D-03 -0.12905093D-03 -0.54812003D-18
  0.68122133D-18  0.41794653D-03 -0.14901174D-03 -0.26893479D-03 -0.55135450D-04