 Molden2AIM, Version 4.0.0 (06/02/2016)           Time: Mon Jul  2 17:13:49 2018
GAUSSIAN             10 MOL ORBITALS    306 PRIMITIVES        6 NUCLEI
  C    1    (CENTRE  1)   1.49267766  0.00000000  0.00000000  CHARGE =  6.0
  C    2    (CENTRE  2)  -0.74632844  1.29270684  0.00000000  CHARGE =  6.0
  C    3    (CENTRE  3)  -0.74632844 -1.29270684  0.00000000  CHARGE =  6.0
  H    4    (CENTRE  4)   3.55203505  0.00000000  0.00000000  CHARGE =  1.0
  H    5    (CENTRE  5)  -1.77602886  3.07616044  0.00000000  CHARGE =  1.0
  H    6    (CENTRE  6)  -1.77602886 -3.07616044  0.00000000  CHARGE =  1.0
CENTRE ASSIGNMENTS    1  1  1  1  1  1  1  1  1  1  1  1  1  1  1  1  1  1  1  1
CENTRE ASSIGNMENTS    1  1  1  1  1  1  1  1  1  1  1  1  1  1  1  1  1  1  1  1
CENTRE ASSIGNMENTS    1  1  1  1  1  1  1  1  1  1  1  1  1  1  1  1  1  1  1  1
CENTRE ASSIGNMENTS    1  1  1  1  1  1  1  1  1  1  1  1  1  1  1  2  2  2  2  2
CENTRE ASSIGNMENTS    2  2  2  2  2  2  2  2  2  2  2  2  2  2  2  2  2  2  2  2
CENTRE ASSIGNMENTS    2  2  2  2  2  2  2  2  2  2  2  2  2  2  2  2  2  2  2  2
CENTRE ASSIGNMENTS    2  2  2  2  2  2  2  2  2  2  2  2  2  2  2  2  2  2  2  2
CENTRE ASSIGNMENTS    2  2  2  2  2  2  2  2  2  2  3  3  3  3  3  3  3  3  3  3
CENTRE ASSIGNMENTS    3  3  3  3  3  3  3  3  3  3  3  3  3  3  3  3  3  3  3  3
CENTRE ASSIGNMENTS    3  3  3  3  3  3  3  3  3  3  3  3  3  3  3  3  3  3  3  3
CENTRE ASSIGNMENTS    3  3  3  3  3  3  3  3  3  3  3  3  3  3  3  3  3  3  3  3
CENTRE ASSIGNMENTS    3  3  3  3  3  4  4  4  4  4  4  4  4  4  4  4  4  4  4  4
CENTRE ASSIGNMENTS    4  4  4  4  4  4  4  4  4  4  4  4  5  5  5  5  5  5  5  5
CENTRE ASSIGNMENTS    5  5  5  5  5  5  5  5  5  5  5  5  5  5  5  5  5  5  5  6
CENTRE ASSIGNMENTS    6  6  6  6  6  6  6  6  6  6  6  6  6  6  6  6  6  6  6  6
CENTRE ASSIGNMENTS    6  6  6  6  6  6
TYPE ASSIGNMENTS      1  1  1  1  1  1  1  1  1  1  1  1  1  1  1  1  1  1  1  2
TYPE ASSIGNMENTS      2  2  3  3  3  4  4  4  2  3  4  2  3  4  2  3  4  5  6  7
TYPE ASSIGNMENTS      8  9 10  5  6  7  8  9 10  5  6  7  8  9 10 11 12 13 17 14
TYPE ASSIGNMENTS     15 18 19 16 20 11 12 13 17 14 15 18 19 16 20  1  1  1  1  1
TYPE ASSIGNMENTS      1  1  1  1  1  1  1  1  1  1  1  1  1  1  2  2  2  3  3  3
TYPE ASSIGNMENTS      4  4  4  2  3  4  2  3  4  2  3  4  5  6  7  8  9 10  5  6
TYPE ASSIGNMENTS      7  8  9 10  5  6  7  8  9 10 11 12 13 17 14 15 18 19 16 20
TYPE ASSIGNMENTS     11 12 13 17 14 15 18 19 16 20  1  1  1  1  1  1  1  1  1  1
TYPE ASSIGNMENTS      1  1  1  1  1  1  1  1  1  2  2  2  3  3  3  4  4  4  2  3
TYPE ASSIGNMENTS      4  2  3  4  2  3  4  5  6  7  8  9 10  5  6  7  8  9 10  5
TYPE ASSIGNMENTS      6  7  8  9 10 11 12 13 17 14 15 18 19 16 20 11 12 13 17 14
TYPE ASSIGNMENTS     15 18 19 16 20  1  1  1  1  1  1  2  3  4  2  3  4  2  3  4
TYPE ASSIGNMENTS      5  6  7  8  9 10  5  6  7  8  9 10  1  1  1  1  1  1  2  3
TYPE ASSIGNMENTS      4  2  3  4  2  3  4  5  6  7  8  9 10  5  6  7  8  9 10  1
TYPE ASSIGNMENTS      1  1  1  1  1  2  3  4  2  3  4  2  3  4  5  6  7  8  9 10
TYPE ASSIGNMENTS      5  6  7  8  9 10
EXPONENTS  0.8236000D+04 0.1235000D+04 0.2808000D+03 0.7927000D+02 0.2559000D+02
EXPONENTS  0.8997000D+01 0.3319000D+01 0.3643000D+00 0.8236000D+04 0.1235000D+04
EXPONENTS  0.2808000D+03 0.7927000D+02 0.2559000D+02 0.8997000D+01 0.3319000D+01
EXPONENTS  0.3643000D+00 0.9059000D+00 0.1285000D+00 0.4402000D-01 0.1871000D+02
EXPONENTS  0.4133000D+01 0.1200000D+01 0.1871000D+02 0.4133000D+01 0.1200000D+01
EXPONENTS  0.1871000D+02 0.4133000D+01 0.1200000D+01 0.3827000D+00 0.3827000D+00
EXPONENTS  0.3827000D+00 0.1209000D+00 0.1209000D+00 0.1209000D+00 0.3569000D-01
EXPONENTS  0.3569000D-01 0.3569000D-01 0.1097000D+01 0.1097000D+01 0.1097000D+01
EXPONENTS  0.1097000D+01 0.1097000D+01 0.1097000D+01 0.3180000D+00 0.3180000D+00
EXPONENTS  0.3180000D+00 0.3180000D+00 0.3180000D+00 0.3180000D+00 0.1000000D+00
EXPONENTS  0.1000000D+00 0.1000000D+00 0.1000000D+00 0.1000000D+00 0.1000000D+00
EXPONENTS  0.7610000D+00 0.7610000D+00 0.7610000D+00 0.7610000D+00 0.7610000D+00
EXPONENTS  0.7610000D+00 0.7610000D+00 0.7610000D+00 0.7610000D+00 0.7610000D+00
EXPONENTS  0.2680000D+00 0.2680000D+00 0.2680000D+00 0.2680000D+00 0.2680000D+00
EXPONENTS  0.2680000D+00 0.2680000D+00 0.2680000D+00 0.2680000D+00 0.2680000D+00
EXPONENTS  0.8236000D+04 0.1235000D+04 0.2808000D+03 0.7927000D+02 0.2559000D+02
EXPONENTS  0.8997000D+01 0.3319000D+01 0.3643000D+00 0.8236000D+04 0.1235000D+04
EXPONENTS  0.2808000D+03 0.7927000D+02 0.2559000D+02 0.8997000D+01 0.3319000D+01
EXPONENTS  0.3643000D+00 0.9059000D+00 0.1285000D+00 0.4402000D-01 0.1871000D+02
EXPONENTS  0.4133000D+01 0.1200000D+01 0.1871000D+02 0.4133000D+01 0.1200000D+01
EXPONENTS  0.1871000D+02 0.4133000D+01 0.1200000D+01 0.3827000D+00 0.3827000D+00
EXPONENTS  0.3827000D+00 0.1209000D+00 0.1209000D+00 0.1209000D+00 0.3569000D-01
EXPONENTS  0.3569000D-01 0.3569000D-01 0.1097000D+01 0.1097000D+01 0.1097000D+01
EXPONENTS  0.1097000D+01 0.1097000D+01 0.1097000D+01 0.3180000D+00 0.3180000D+00
EXPONENTS  0.3180000D+00 0.3180000D+00 0.3180000D+00 0.3180000D+00 0.1000000D+00
EXPONENTS  0.1000000D+00 0.1000000D+00 0.1000000D+00 0.1000000D+00 0.1000000D+00
EXPONENTS  0.7610000D+00 0.7610000D+00 0.7610000D+00 0.7610000D+00 0.7610000D+00
EXPONENTS  0.7610000D+00 0.7610000D+00 0.7610000D+00 0.7610000D+00 0.7610000D+00
EXPONENTS  0.2680000D+00 0.2680000D+00 0.2680000D+00 0.2680000D+00 0.2680000D+00
EXPONENTS  0.2680000D+00 0.2680000D+00 0.2680000D+00 0.2680000D+00 0.2680000D+00
EXPONENTS  0.8236000D+04 0.1235000D+04 0.2808000D+03 0.7927000D+02 0.2559000D+02
EXPONENTS  0.8997000D+01 0.3319000D+01 0.3643000D+00 0.8236000D+04 0.1235000D+04
EXPONENTS  0.2808000D+03 0.7927000D+02 0.2559000D+02 0.8997000D+01 0.3319000D+01
EXPONENTS  0.3643000D+00 0.9059000D+00 0.1285000D+00 0.4402000D-01 0.1871000D+02
EXPONENTS  0.4133000D+01 0.1200000D+01 0.1871000D+02 0.4133000D+01 0.1200000D+01
EXPONENTS  0.1871000D+02 0.4133000D+01 0.1200000D+01 0.3827000D+00 0.3827000D+00
EXPONENTS  0.3827000D+00 0.1209000D+00 0.1209000D+00 0.1209000D+00 0.3569000D-01
EXPONENTS  0.3569000D-01 0.3569000D-01 0.1097000D+01 0.1097000D+01 0.1097000D+01
EXPONENTS  0.1097000D+01 0.1097000D+01 0.1097000D+01 0.3180000D+00 0.3180000D+00
EXPONENTS  0.3180000D+00 0.3180000D+00 0.3180000D+00 0.3180000D+00 0.1000000D+00
EXPONENTS  0.1000000D+00 0.1000000D+00 0.1000000D+00 0.1000000D+00 0.1000000D+00
EXPONENTS  0.7610000D+00 0.7610000D+00 0.7610000D+00 0.7610000D+00 0.7610000D+00
EXPONENTS  0.7610000D+00 0.7610000D+00 0.7610000D+00 0.7610000D+00 0.7610000D+00
EXPONENTS  0.2680000D+00 0.2680000D+00 0.2680000D+00 0.2680000D+00 0.2680000D+00
EXPONENTS  0.2680000D+00 0.2680000D+00 0.2680000D+00 0.2680000D+00 0.2680000D+00
EXPONENTS  0.3387000D+02 0.5095000D+01 0.1159000D+01 0.3258000D+00 0.1027000D+00
EXPONENTS  0.2526000D-01 0.1407000D+01 0.1407000D+01 0.1407000D+01 0.3880000D+00
EXPONENTS  0.3880000D+00 0.3880000D+00 0.1020000D+00 0.1020000D+00 0.1020000D+00
EXPONENTS  0.1057000D+01 0.1057000D+01 0.1057000D+01 0.1057000D+01 0.1057000D+01
EXPONENTS  0.1057000D+01 0.2470000D+00 0.2470000D+00 0.2470000D+00 0.2470000D+00
EXPONENTS  0.2470000D+00 0.2470000D+00 0.3387000D+02 0.5095000D+01 0.1159000D+01
EXPONENTS  0.3258000D+00 0.1027000D+00 0.2526000D-01 0.1407000D+01 0.1407000D+01
EXPONENTS  0.1407000D+01 0.3880000D+00 0.3880000D+00 0.3880000D+00 0.1020000D+00
EXPONENTS  0.1020000D+00 0.1020000D+00 0.1057000D+01 0.1057000D+01 0.1057000D+01
EXPONENTS  0.1057000D+01 0.1057000D+01 0.1057000D+01 0.2470000D+00 0.2470000D+00
EXPONENTS  0.2470000D+00 0.2470000D+00 0.2470000D+00 0.2470000D+00 0.3387000D+02
EXPONENTS  0.5095000D+01 0.1159000D+01 0.3258000D+00 0.1027000D+00 0.2526000D-01
EXPONENTS  0.1407000D+01 0.1407000D+01 0.1407000D+01 0.3880000D+00 0.3880000D+00
EXPONENTS  0.3880000D+00 0.1020000D+00 0.1020000D+00 0.1020000D+00 0.1057000D+01
EXPONENTS  0.1057000D+01 0.1057000D+01 0.1057000D+01 0.1057000D+01 0.1057000D+01
EXPONENTS  0.2470000D+00 0.2470000D+00 0.2470000D+00 0.2470000D+00 0.2470000D+00
EXPONENTS  0.2470000D+00
MO    1     MO 0.0        OCC NO =    2.0000000  ORB. ENERGY =  -10.226001
  0.18990915D+00  0.35403383D+00  0.59837955D+00  0.89956046D+00  0.11052140D+01
  0.93352988D+00  0.35209312D+00 -0.17425285D-02 -0.18922561D-02 -0.35429005D-02
 -0.60320913D-02 -0.93307280D-02 -0.12288241D-01 -0.12768269D-01 -0.81136618D-02
  0.54375874D-02  0.23394087D-01 -0.23900047D-02 -0.39840343D-03 -0.32456678D-02
 -0.30430199D-02 -0.21668114D-02 -0.37614049D-13 -0.35265562D-13 -0.25111181D-13
  0.11524275D-16  0.10804741D-16  0.76936190D-17 -0.39526782D-03  0.16194911D-12
 -0.24280784D-17 -0.14117033D-03 -0.91080481D-13 -0.17167625D-17 -0.34631418D-06
  0.81769743D-14 -0.18739715D-18  0.50153237D-02 -0.20226792D-02 -0.29926446D-02
 -0.55827583D-13  0.63088792D-17 -0.39235537D-17 -0.22328281D-02  0.81050848D-03
  0.14223196D-02 -0.13070341D-12 -0.44555071D-17  0.59251775D-17 -0.19957069D-03
  0.83768809D-04  0.11580188D-03  0.59848520D-13  0.71387504D-18 -0.10067678D-18
  0.68000833D-03  0.50262225D-14  0.30249680D-18 -0.20987974D-03 -0.40622097D-13
 -0.10494786D-17 -0.18301452D-02  0.25543429D-13  0.14198816D-18 -0.41608642D-17
 -0.26497780D-03  0.23829187D-13 -0.11006994D-18  0.92228522D-03 -0.75906565D-13
  0.53944510D-18 -0.12735182D-03  0.44190034D-14 -0.20923529D-18 -0.24721812D-17
  0.19031237D+00  0.35478552D+00  0.59965004D+00  0.90147043D+00  0.11075606D+01
  0.93551196D+00  0.35284069D+00 -0.17462283D-02 -0.18967675D-02 -0.35513472D-02
 -0.60464724D-02 -0.93529734D-02 -0.12317537D-01 -0.12798710D-01 -0.81330056D-02
  0.54505512D-02  0.23440368D-01 -0.23811738D-02 -0.40354137D-03  0.16223924D-02
  0.15210960D-02  0.10831110D-02 -0.28119325D-02 -0.26363655D-02 -0.18772493D-02
 -0.93028040D-17 -0.87219701D-17 -0.62105623D-17  0.19799129D-03 -0.34701140D-03
  0.18672825D-17  0.77363924D-04 -0.13067958D-03  0.18025630D-17  0.79518422D-08
 -0.73473579D-07  0.13001293D-18 -0.26245313D-03  0.32610548D-02 -0.29986017D-02
 -0.61005308D-02  0.40862133D-17  0.25598044D-17  0.48022212D-04 -0.14711097D-02
  0.14230875D-02  0.26304669D-02 -0.74356951D-17 -0.76540399D-18  0.13225106D-04
 -0.12926378D-03  0.11603867D-03  0.24531783D-03  0.56621369D-20  0.16469971D-19
 -0.53387704D-05  0.39754305D-03 -0.72172092D-18 -0.89803574D-03  0.39307960D-03
 -0.31270132D-18  0.91405206D-03 -0.15857087D-02  0.24778641D-17 -0.38885362D-17
 -0.31346585D-03  0.27906951D-04  0.55899306D-20  0.87752026D-03  0.26065207D-04
 -0.16277930D-17  0.62877297D-04 -0.10978606D-03  0.16110232D-17  0.26633625D-17
  0.19031237D+00  0.35478552D+00  0.59965004D+00  0.90147043D+00  0.11075606D+01
  0.93551196D+00  0.35284069D+00 -0.17462283D-02 -0.18967675D-02 -0.35513472D-02
 -0.60464724D-02 -0.93529734D-02 -0.12317537D-01 -0.12798710D-01 -0.81330056D-02
  0.54505512D-02  0.23440368D-01 -0.23811738D-02 -0.40354137D-03  0.16223924D-02
  0.15210960D-02  0.10831110D-02  0.28119325D-02  0.26363655D-02  0.18772493D-02
 -0.15004440D-16 -0.14067616D-16 -0.10016980D-16  0.19799129D-03  0.34701141D-03
  0.28592435D-18  0.77363923D-04  0.13067958D-03 -0.33123749D-19  0.79518796D-08
  0.73473695D-07  0.62820576D-19 -0.26245313D-03  0.32610548D-02 -0.29986017D-02
  0.61005308D-02 -0.12114667D-17  0.17315752D-17  0.48022212D-04 -0.14711097D-02
  0.14230875D-02 -0.26304669D-02  0.32084990D-17 -0.51998431D-17  0.13225106D-04
 -0.12926378D-03  0.11603867D-03 -0.24531783D-03  0.41946860D-18  0.17016077D-18
 -0.53387704D-05 -0.39754305D-03 -0.17260407D-17 -0.89803574D-03 -0.39307960D-03
  0.32503279D-17  0.91405205D-03  0.15857087D-02  0.19277941D-17  0.93527443D-18
 -0.31346585D-03 -0.27906951D-04  0.14520604D-18  0.87752026D-03 -0.26065207D-04
  0.13927951D-17  0.62877297D-04  0.10978606D-03 -0.18284132D-17  0.24077231D-17
  0.18676223D-03  0.33683337D-03  0.49666060D-03  0.33530774D-02  0.12665416D-02
  0.47236694D-04  0.96641415D-03 -0.36702151D-13 -0.20640829D-17  0.72005083D-03
  0.17196012D-12  0.19926339D-17  0.15261086D-03 -0.31401855D-13 -0.38734032D-18
 -0.27591174D-02  0.99254495D-03  0.17665725D-02 -0.95361388D-13  0.31367631D-17
  0.13029946D-18 -0.28924628D-03 -0.29165733D-04  0.31841201D-03 -0.25275796D-13
 -0.18547100D-17  0.61100580D-18  0.18701708D-03  0.33729300D-03  0.49733833D-03
  0.33557253D-02  0.12804978D-02  0.47079359D-04 -0.48358194D-03  0.83808192D-03
  0.13193700D-17 -0.36458574D-03  0.62597550D-03 -0.33172132D-17 -0.75080449D-04
  0.13097279D-03 -0.48605160D-18  0.53984937D-04 -0.18227406D-02  0.17687557D-02
  0.32563794D-02 -0.19100279D-17  0.23342321D-17 -0.94239199D-04 -0.22453261D-03
  0.31877181D-03  0.22604888D-03 -0.14052749D-17  0.42605133D-18  0.18701708D-03
  0.33729300D-03  0.49733833D-03  0.33557253D-02  0.12804978D-02  0.47079360D-04
 -0.48358194D-03 -0.83808192D-03  0.11875409D-18 -0.36458574D-03 -0.62597550D-03
 -0.17329842D-17 -0.75080449D-04 -0.13097279D-03  0.38200891D-18  0.53984937D-04
 -0.18227406D-02  0.17687556D-02 -0.32563794D-02 -0.71811843D-18 -0.17953282D-17
 -0.94239199D-04 -0.22453261D-03  0.31877181D-03 -0.22604888D-03  0.70957201D-18
 -0.43268743D-18
MO    2     MO 0.0        OCC NO =    2.0000000  ORB. ENERGY =  -10.225240
 -0.23903287D-08 -0.44561162D-08 -0.75316214D-08 -0.11322494D-07 -0.13910992D-07
 -0.11750057D-07 -0.44316890D-08  0.21932676D-10  0.27091492D-10  0.50723820D-10
  0.86361644D-10  0.13358833D-09  0.17593113D-09  0.18280372D-09  0.11616356D-09
 -0.77850114D-10 -0.27540355D-09 -0.50498154D-10  0.31761183D-10  0.47271531D-11
  0.44320065D-11  0.31558527D-11  0.10782184D-02  0.10108982D-02  0.71981977D-03
  0.46125517D-16  0.43245604D-16  0.30793446D-16  0.24889286D-10  0.24365372D-02
 -0.18721031D-16  0.64208679D-10 -0.19478381D-02  0.10248316D-16 -0.17306740D-11
  0.37959676D-04 -0.16882695D-18 -0.38801460D-10  0.30475365D-11  0.35753923D-10
 -0.14684913D-02 -0.23813024D-15  0.12028497D-15 -0.14343852D-10  0.19223832D-10
 -0.48799794D-11  0.46492612D-03  0.19754436D-16 -0.21491800D-16  0.18278947D-11
 -0.37395314D-12 -0.14539416D-11  0.87489281D-03  0.19635205D-17  0.65737618D-18
 -0.44928535D-11  0.97155279D-03 -0.21652425D-17  0.12250379D-10 -0.43995184D-02
  0.40355136D-17  0.12281810D-11  0.14848600D-02  0.24602140D-17 -0.38656835D-17
  0.69424199D-11  0.40770220D-03 -0.58674615D-18 -0.15768089D-10 -0.17444806D-02
 -0.18187416D-17 -0.50591707D-11  0.52137403D-03  0.35789801D-17 -0.15066333D-17
  0.23350441D+00  0.43530532D+00  0.73574267D+00  0.11060622D+01  0.13589252D+01
  0.11478296D+01  0.43291910D+00 -0.21425408D-02 -0.26484082D-02 -0.49586557D-02
 -0.84425356D-02 -0.13059319D-01 -0.17198664D-01 -0.17870513D-01 -0.11355909D-01
  0.76104660D-02  0.26914267D-01  0.48767027D-02 -0.31840546D-02  0.69652208D-03
  0.65303372D-03  0.46499891D-03 -0.12849432D-03 -0.12047159D-03 -0.85782949D-04
 -0.85177923D-17 -0.79859717D-17 -0.56864876D-17  0.22687138D-02 -0.14919586D-02
  0.52822423D-17  0.23087216D-02 -0.59463077D-02  0.35717170D-17 -0.71258732D-04
  0.16138680D-03 -0.22869110D-18  0.10465431D-02  0.24458012D-02 -0.34923443D-02
 -0.38929030D-02  0.80576583D-17  0.45306372D-17 -0.11655102D-02  0.67977136D-03
  0.48573888D-03 -0.27319423D-02 -0.17177280D-16  0.31178705D-17 -0.20670650D-03
  0.62882735D-04  0.14382377D-03  0.40791449D-03 -0.19560676D-17 -0.20046752D-18
  0.23228508D-03 -0.73765243D-03 -0.22811325D-17 -0.14007753D-02  0.19475084D-02
 -0.17917110D-16  0.70392008D-03  0.26544885D-03  0.24760507D-16  0.18104317D-16
 -0.55145020D-03 -0.40921453D-03 -0.18025149D-18  0.16772447D-02  0.66665681D-03
 -0.24010447D-17 -0.22894098D-04  0.56098678D-03  0.29417991D-17 -0.61494638D-17
 -0.23350441D+00 -0.43530531D+00 -0.73574266D+00 -0.11060622D+01 -0.13589252D+01
 -0.11478296D+01 -0.43291909D+00  0.21425408D-02  0.26484081D-02  0.49586557D-02
  0.84425356D-02  0.13059319D-01  0.17198663D-01  0.17870513D-01  0.11355909D-01
 -0.76104660D-02 -0.26914267D-01 -0.48767026D-02  0.31840546D-02 -0.69652209D-03
 -0.65303373D-03 -0.46499892D-03 -0.12849431D-03 -0.12047158D-03 -0.85782941D-04
  0.37114328D-16  0.34797042D-16  0.24777567D-16 -0.22687138D-02 -0.14919586D-02
 -0.17540865D-16 -0.23087215D-02 -0.59463077D-02 -0.31127065D-17  0.71258730D-04
  0.16138680D-03  0.48315826D-19 -0.10465431D-02 -0.24458012D-02  0.34923443D-02
 -0.38929030D-02  0.46888452D-18  0.42033036D-17  0.11655102D-02 -0.67977136D-03
 -0.48573887D-03 -0.27319423D-02 -0.80272387D-17 -0.79675611D-17  0.20670651D-03
 -0.62882742D-04 -0.14382377D-03  0.40791450D-03 -0.37802405D-18 -0.11553077D-17
 -0.23228507D-03 -0.73765246D-03  0.62937132D-17  0.14007753D-02  0.19475085D-02
 -0.10294972D-16 -0.70392010D-03  0.26544886D-03 -0.85861677D-17 -0.89202912D-17
  0.55145020D-03 -0.40921454D-03  0.23683504D-18 -0.16772447D-02  0.66665684D-03
  0.27718373D-18  0.22894088D-04  0.56098678D-03 -0.98768884D-18 -0.95475399D-18
 -0.15441496D-11 -0.27849373D-11 -0.41063884D-11 -0.17064001D-10 -0.84878699D-10
  0.98388767D-12 -0.72533270D-11 -0.30589091D-03 -0.11444274D-16 -0.26149787D-10
  0.32904998D-02  0.17788230D-16  0.99862570D-11 -0.54342710D-03 -0.29674608D-17
  0.27088585D-10 -0.13791715D-10 -0.13296870D-10 -0.33862470D-02 -0.82806548D-17
  0.19624219D-17  0.36067550D-11 -0.13916533D-11 -0.22151017D-11 -0.22289558D-03
 -0.26826550D-17 -0.18438960D-18  0.15018169D-03  0.27085886D-03  0.39938124D-03
  0.16998615D-02  0.83746258D-02 -0.10193004D-03 -0.48602665D-03  0.53583955D-03
  0.78933085D-17  0.15076973D-03  0.30290109D-02 -0.18030940D-16  0.25827979D-03
 -0.99073598D-03 -0.22332154D-17  0.10816916D-02 -0.23791112D-02  0.12974197D-02
  0.26086376D-02 -0.33279937D-17  0.10853020D-16  0.62561911D-04 -0.27878456D-03
  0.21622265D-03  0.36833073D-03 -0.75725951D-18  0.66953619D-17 -0.15018169D-03
 -0.27085886D-03 -0.39938123D-03 -0.16998615D-02 -0.83746257D-02  0.10193003D-03
  0.48602665D-03  0.53583954D-03 -0.11710777D-16 -0.15076979D-03  0.30290109D-02
  0.98751909D-18 -0.25827977D-03 -0.99073597D-03 -0.10177381D-17 -0.10816916D-02
  0.23791112D-02 -0.12974197D-02  0.26086376D-02 -0.38417083D-18  0.12340800D-17
 -0.62561913D-04  0.27878456D-03 -0.21622265D-03  0.36833072D-03  0.13856493D-18
 -0.10112085D-17
MO    3     MO 0.0        OCC NO =    2.0000000  ORB. ENERGY =  -10.225238
  0.26981725D+00  0.50300070D+00  0.85015980D+00  0.12780687D+01  0.15702550D+01
  0.13263314D+01  0.50024340D+00 -0.24757325D-02 -0.30600671D-02 -0.57294111D-02
 -0.97548126D-02 -0.15089212D-01 -0.19871961D-01 -0.20648241D-01 -0.13121030D-01
  0.87934091D-02  0.31101293D-01  0.56293445D-02 -0.36770004D-02 -0.53379352D-03
 -0.50046535D-03 -0.35636115D-03  0.95935518D-11  0.89945646D-11  0.64046659D-11
 -0.13457739D-15 -0.12617486D-15 -0.89844016D-16 -0.28025448D-02  0.21398266D-10
  0.41404197D-17 -0.72797181D-02 -0.17373912D-10 -0.31097730D-18  0.20252403D-03
  0.33087485D-12  0.87843818D-19  0.43717926D-02 -0.33608231D-03 -0.40357103D-02
 -0.12947535D-10 -0.52217050D-17  0.35088286D-18  0.16159989D-02 -0.21782469D-02
  0.56224806D-03  0.42947853D-11  0.35970588D-17 -0.35450997D-17 -0.20936755D-03
  0.43189947D-04  0.16617760D-03  0.77636732D-11 -0.35518251D-19  0.11513552D-18
  0.50734632D-03  0.86122246D-11 -0.65925263D-18 -0.13793762D-02 -0.38986630D-10
  0.18075649D-17 -0.14266280D-03  0.13149957D-10  0.17019302D-18  0.31578453D-17
 -0.78717712D-03  0.35935879D-11  0.73394242D-19  0.17874336D-02 -0.15396610D-10
 -0.36468591D-18  0.57409773D-03  0.46158464D-11  0.14450319D-18  0.14106481D-17
 -0.13462411D+00 -0.25096995D+00 -0.42418342D+00 -0.63768663D+00 -0.78347170D+00
 -0.66176710D+00 -0.24959420D+00  0.12352556D-02  0.15271524D-02  0.28593112D-02
  0.48682219D-02  0.75303991D-02  0.99172707D-02  0.10304680D-01  0.65481612D-02
 -0.43884254D-02 -0.15515474D-01 -0.28182165D-02  0.18378976D-02  0.67758967D-03
  0.63528339D-03  0.45235962D-03  0.69367355D-03  0.65036305D-03  0.46309723D-03
  0.63716058D-17  0.59737854D-17  0.42536911D-17  0.11272428D-02  0.22682116D-02
 -0.11188474D-17 -0.32807313D-02  0.23086663D-02  0.24827349D-18  0.79099859D-04
 -0.71258910D-04 -0.47642125D-19  0.12985059D-03 -0.21431863D-02  0.20133357D-02
  0.13936787D-02 -0.32127871D-17 -0.12657608D-17  0.44067341D-03 -0.16171347D-03
 -0.27895994D-03  0.18481112D-02  0.46129198D-17  0.38254870D-18 -0.31807126D-03
  0.40098454D-03 -0.82913279D-04  0.26981742D-03  0.19026726D-18 -0.40114969D-18
 -0.50532393D-03 -0.13383882D-02  0.58508856D-18  0.43664217D-03  0.33128607D-02
 -0.26076175D-18  0.10793296D-02  0.70230387D-03 -0.14945039D-17  0.34500670D-17
  0.18771516D-03 -0.46016722D-03 -0.15552095D-18 -0.10977842D-02  0.14035091D-02
  0.10451215D-17  0.53463874D-03 -0.23007420D-04 -0.57855862D-18 -0.23332978D-17
 -0.13462411D+00 -0.25096995D+00 -0.42418343D+00 -0.63768665D+00 -0.78347173D+00
 -0.66176712D+00 -0.24959421D+00  0.12352557D-02  0.15271525D-02  0.28593113D-02
  0.48682221D-02  0.75303993D-02  0.99172710D-02  0.10304680D-01  0.65481614D-02
 -0.43884255D-02 -0.15515474D-01 -0.28182166D-02  0.18378977D-02  0.67758966D-03
  0.63528337D-03  0.45235961D-03 -0.69367356D-03 -0.65036305D-03 -0.46309724D-03
  0.11197049D-16  0.10497946D-16  0.74751626D-17  0.11272428D-02 -0.22682116D-02
 -0.11458832D-17 -0.32807314D-02 -0.23086664D-02  0.10625860D-18  0.79099860D-04
  0.71258912D-04 -0.42309318D-19  0.12985057D-03 -0.21431864D-02  0.20133358D-02
 -0.13936787D-02 -0.16528549D-18 -0.12235743D-17  0.44067343D-03 -0.16171348D-03
 -0.27895995D-03 -0.18481112D-02 -0.19830233D-17  0.27685676D-17 -0.31807126D-03
  0.40098454D-03 -0.82913281D-04 -0.26981741D-03 -0.89475756D-19 -0.13871312D-18
 -0.50532393D-03  0.13383882D-02  0.14688360D-17  0.43664220D-03 -0.33128607D-02
 -0.26059890D-17  0.10793296D-02 -0.70230387D-03 -0.18005190D-17 -0.15874883D-17
  0.18771517D-03  0.46016722D-03 -0.11723797D-18 -0.10977842D-02 -0.14035091D-02
 -0.85506421D-18  0.53463874D-03  0.23007430D-04  0.12067781D-17 -0.16310308D-17
  0.17359699D-03  0.31308932D-03  0.46165002D-03  0.19662559D-02  0.96717505D-02
 -0.11764718D-03  0.81743855D-03 -0.26769146D-11  0.13972422D-17  0.29426292D-02
  0.29006735D-10 -0.19871678D-17 -0.11397508D-02 -0.48360165D-11 -0.78129448D-19
 -0.30551573D-02  0.15552922D-02  0.14998652D-02 -0.29932915D-10 -0.14161045D-17
  0.10725095D-18 -0.40781611D-03  0.15783390D-03  0.24998221D-03 -0.19475093D-11
  0.15051219D-17 -0.42426466D-18 -0.86530658D-04 -0.15606160D-03 -0.23011275D-03
 -0.97814546D-03 -0.48339911D-02  0.58893736D-04 -0.25838170D-04 -0.48507058D-03
 -0.18576290D-18  0.32028521D-02  0.15149615D-03  0.82316351D-18 -0.69259134D-03
  0.25843456D-03  0.56242968D-18  0.10685801D-02 -0.32128605D-03 -0.74729403D-03
 -0.34576830D-02  0.70290730D-18 -0.12418356D-17  0.75246770D-04  0.49274515D-04
 -0.12452129D-03 -0.34112266D-03  0.86678194D-18 -0.13280908D-18 -0.86530660D-04
 -0.15606161D-03 -0.23011275D-03 -0.97814549D-03 -0.48339913D-02  0.58893737D-04
 -0.25838161D-04  0.48507059D-03  0.20849580D-18  0.32028521D-02 -0.15149610D-03
  0.10319899D-17 -0.69259135D-03 -0.25843458D-03 -0.17743261D-18  0.10685801D-02
 -0.32128601D-03 -0.74729406D-03  0.34576831D-02  0.80072575D-18  0.13631132D-17
  0.75246769D-04  0.49274520D-04 -0.12452129D-03  0.34112267D-03 -0.59056723D-18
  0.33723938D-18
MO    4     MO 0.0        OCC NO =    2.0000000  ORB. ENERGY =   -1.140821
 -0.90112088D-02 -0.16798942D-01 -0.28393171D-01 -0.42684237D-01 -0.52442517D-01
 -0.44296089D-01 -0.16706855D-01  0.82683158D-04 -0.33254803D-01 -0.62263484D-01
 -0.10600891D+00 -0.16397966D+00 -0.21595545D+00 -0.22439154D+00 -0.14259075D+00
  0.95561006D-01  0.42679257D-01  0.12163162D-01 -0.63432574D-03 -0.23353754D+00
 -0.21895629D+00 -0.15590992D+00 -0.42356259D-13 -0.39711685D-13 -0.28277086D-13
  0.22977896D-15  0.21543238D-15  0.15340069D-15 -0.31826930D-01  0.67621002D-13
  0.11907804D-15 -0.12642943D-02 -0.25446584D-12 -0.22848162D-16 -0.55027975D-04
  0.44606265D-13 -0.13641611D-17  0.31834441D-01 -0.12563746D-01 -0.19270696D-01
  0.11134287D-12  0.20849879D-16  0.13170329D-19  0.52350611D-02 -0.22738815D-02
 -0.29611796D-02 -0.63478438D-13  0.15526695D-16 -0.12235656D-16 -0.17862406D-03
  0.10316801D-03  0.75456052D-04  0.21816577D-12  0.70718263D-17  0.19771576D-18
 -0.26213418D-02  0.19634123D-13  0.61648257D-17  0.56146621D-03 -0.93170498D-13
 -0.19978959D-16  0.73025591D-02  0.34268130D-13  0.14844820D-17  0.16513234D-16
 -0.23193868D-03  0.16349731D-14  0.23861071D-17  0.48252365D-03  0.78349866D-14
 -0.77443701D-17  0.21329238D-03 -0.12739906D-13  0.58604896D-18  0.34716470D-17
 -0.90111327D-02 -0.16798800D-01 -0.28392932D-01 -0.42683877D-01 -0.52442074D-01
 -0.44295715D-01 -0.16706714D-01  0.82682460D-04 -0.33254392D-01 -0.62262714D-01
 -0.10600760D+00 -0.16397764D+00 -0.21595278D+00 -0.22438877D+00 -0.14258899D+00
  0.95559825D-01  0.42678774D-01  0.12163208D-01 -0.63428549D-03  0.11676845D+00
  0.10947784D+00  0.77954744D-01 -0.20224733D+00 -0.18961972D+00 -0.13502054D+00
 -0.51068780D-16 -0.47880227D-16 -0.34093574D-16  0.15913699D-01 -0.27563222D-01
 -0.12763150D-16  0.63215428D-03 -0.10948428D-02  0.14634538D-16  0.27515423D-04
 -0.47653299D-04  0.26205736D-18 -0.14641911D-02  0.20734541D-01 -0.19270350D-01
 -0.38450213D-01 -0.15260268D-16  0.23403103D-16 -0.39648711D-03  0.33576196D-02
 -0.29611325D-02 -0.65026839D-02  0.30707988D-16 -0.10416453D-16  0.32732101D-04
 -0.10818726D-03  0.75455159D-04  0.24405913D-03  0.26873343D-17 -0.43332955D-17
  0.11699995D-03 -0.15811198D-02  0.49187463D-17  0.33002790D-02 -0.15809759D-02
  0.66560807D-17 -0.36512788D-02  0.63243353D-02 -0.21412320D-16  0.10245374D-16
 -0.15192600D-03 -0.46178605D-04 -0.14611887D-17  0.56240105D-03 -0.46155116D-04
  0.52746132D-17 -0.10662305D-03  0.18469093D-03 -0.89104698D-18 -0.10033816D-16
 -0.90111327D-02 -0.16798800D-01 -0.28392932D-01 -0.42683877D-01 -0.52442074D-01
 -0.44295715D-01 -0.16706714D-01  0.82682460D-04 -0.33254392D-01 -0.62262714D-01
 -0.10600760D+00 -0.16397764D+00 -0.21595278D+00 -0.22438877D+00 -0.14258899D+00
  0.95559825D-01  0.42678774D-01  0.12163208D-01 -0.63428549D-03  0.11676845D+00
  0.10947784D+00  0.77954744D-01  0.20224733D+00  0.18961972D+00  0.13502054D+00
 -0.43478161D-16 -0.40763539D-16 -0.29026068D-16  0.15913699D-01  0.27563222D-01
 -0.16929796D-16  0.63215428D-03  0.10948428D-02  0.72332336D-17  0.27515423D-04
  0.47653299D-04  0.40870586D-18 -0.14641911D-02  0.20734541D-01 -0.19270350D-01
  0.38450213D-01 -0.73374212D-17 -0.26346946D-16 -0.39648711D-03  0.33576196D-02
 -0.29611325D-02  0.65026839D-02  0.19684522D-17  0.26602657D-17  0.32732101D-04
 -0.10818726D-03  0.75455159D-04 -0.24405913D-03  0.34831263D-17  0.30923793D-17
  0.11699995D-03  0.15811198D-02  0.55651409D-17  0.33002790D-02  0.15809759D-02
 -0.70775230D-17 -0.36512788D-02 -0.63243353D-02 -0.96178998D-17 -0.72898100D-17
 -0.15192600D-03  0.46178605D-04 -0.64672479D-18  0.56240105D-03  0.46155116D-04
  0.12823449D-18 -0.10662305D-03 -0.18469093D-03  0.18119399D-17 -0.18886721D-17
  0.38058661D-02  0.68640363D-02  0.10121018D-01 -0.48693056D-02 -0.12081309D-02
  0.11734754D-03 -0.27576748D-02  0.35960802D-13  0.43242179D-17  0.76189679D-02
 -0.13607294D-13  0.26725073D-16  0.10389374D-02 -0.16768445D-12  0.94779842D-18
 -0.33573800D-02  0.20668268D-02  0.12905532D-02 -0.47538932D-13 -0.21514380D-16
 -0.78656389D-18 -0.82736401D-03  0.30928480D-03  0.51807920D-03 -0.28115721D-14
 -0.14179974D-16  0.31678235D-18  0.38057942D-02  0.68639065D-02  0.10120826D-01
 -0.48688720D-02 -0.12080734D-02  0.11734643D-03  0.13789042D-02 -0.23883112D-02
 -0.30716748D-17 -0.38092168D-02  0.65978318D-02  0.80720774D-17 -0.51944938D-03
  0.89973191D-03  0.47470795D-17  0.71075186D-03 -0.20012623D-02  0.12905105D-02
  0.46973055D-02  0.64791409D-17 -0.73559521D-17  0.25121194D-04 -0.54318006D-03
  0.51805886D-03  0.98432867D-03  0.38940969D-17 -0.23593014D-17  0.38057942D-02
  0.68639065D-02  0.10120826D-01 -0.48688720D-02 -0.12080734D-02  0.11734643D-03
  0.13789042D-02  0.23883112D-02  0.87292464D-19 -0.38092168D-02 -0.65978318D-02
  0.45250725D-17 -0.51944938D-03 -0.89973191D-03  0.42606688D-17  0.71075186D-03
 -0.20012623D-02  0.12905105D-02 -0.46973055D-02 -0.15207701D-17  0.69692720D-18
  0.25121194D-04 -0.54318006D-03  0.51805886D-03 -0.98432867D-03  0.95752148D-18
  0.20559381D-17
MO    5     MO 0.0        OCC NO =    2.0000000  ORB. ENERGY =   -0.798192
  0.74223157D-11  0.13836884D-10  0.23386772D-10  0.35157978D-10  0.43195639D-10
  0.36485622D-10  0.13761034D-10 -0.68104127D-13  0.45865233D-10  0.85874187D-10
  0.14620815D-09  0.22616178D-09  0.29784711D-09  0.30948222D-09  0.19666206D-09
 -0.13179834D-09 -0.59707699D-10 -0.82292332D-10 -0.16394273D-10 -0.21786645D-09
 -0.20426365D-09 -0.14544789D-09  0.21850508D+00  0.20486240D+00  0.14587424D+00
  0.36428322D-15  0.34153868D-15  0.24319588D-15 -0.44632025D-10  0.42506868D-01
 -0.69161763D-16  0.12482995D-11  0.33754673D-02 -0.40081998D-16  0.11204884D-11
 -0.14957550D-03 -0.13102628D-17 -0.94225949D-11  0.33837856D-11  0.60388092D-11
 -0.30133179D-01  0.10337103D-15 -0.40668744D-15 -0.88117799D-11  0.35414124D-11
  0.52703674D-11 -0.56066225D-02  0.90097404D-16  0.11278408D-16 -0.15234274D-11
  0.76408419D-12  0.75934323D-12 -0.26029765D-03 -0.34448915D-16 -0.11928125D-16
 -0.19191001D-11 -0.11475552D-02 -0.69098334D-16  0.74307705D-11  0.59120975D-02
  0.30732665D-15 -0.16734703D-11 -0.24694319D-02 -0.10003165D-15 -0.44289785D-16
 -0.10292564D-11 -0.30545736D-03  0.13753982D-16  0.18910970D-11  0.16427293D-02
 -0.58002611D-16  0.11966721D-11 -0.72635718D-03  0.16740664D-16  0.24141492D-17
 -0.57940470D-02 -0.10801421D-01 -0.18256304D-01 -0.27445205D-01 -0.33719606D-01
 -0.28481598D-01 -0.10742211D-01  0.53163800D-04 -0.35805745D-01 -0.67039652D-01
 -0.11414074D+00 -0.17655837D+00 -0.23252117D+00 -0.24160439D+00 -0.15352874D+00
  0.10289139D+00  0.46702637D-01  0.62992382D-01  0.11423060D-01  0.95548128D-02
  0.89582443D-02  0.63788036D-02  0.20195197D+00  0.18934280D+00  0.13482336D+00
  0.49616105D-15  0.46518252D-15  0.33123767D-15  0.11394143D-02  0.40532437D-01