 Molden2AIM, Version 4.0.0 (06/02/2016)           Time: Mon Jul  2 17:07:23 2018
GAUSSIAN             18 MOL ORBITALS    456 PRIMITIVES        8 NUCLEI
  N    1    (CENTRE  1)   2.13175280  0.58758766  0.00000000  CHARGE =  7.0
  O    2    (CENTRE  2)   0.00844519  2.09096117  0.00000000  CHARGE =  8.0
  C    3    (CENTRE  3)  -2.05432127  0.62765552  0.00000000  CHARGE =  6.0
  C    4    (CENTRE  4)  -1.38476863 -1.85421628  0.00000000  CHARGE =  6.0
  C    5    (CENTRE  5)   1.29914703 -1.74362762  0.00000000  CHARGE =  6.0
  H    6    (CENTRE  6)  -3.85665890  1.60686625  0.00000000  CHARGE =  1.0
  H    7    (CENTRE  7)  -2.60400669 -3.49928712  0.00000000  CHARGE =  1.0
  H    8    (CENTRE  8)   2.65901851 -3.28365614  0.00000000  CHARGE =  1.0
CENTRE ASSIGNMENTS    1  1  1  1  1  1  1  1  1  1  1  1  1  1  1  1  1  1  1  1
CENTRE ASSIGNMENTS    1  1  1  1  1  1  1  1  1  1  1  1  1  1  1  1  1  1  1  1
CENTRE ASSIGNMENTS    1  1  1  1  1  1  1  1  1  1  1  1  1  1  1  1  1  1  1  1
CENTRE ASSIGNMENTS    1  1  1  1  1  1  1  1  1  1  1  1  1  1  1  2  2  2  2  2
CENTRE ASSIGNMENTS    2  2  2  2  2  2  2  2  2  2  2  2  2  2  2  2  2  2  2  2
CENTRE ASSIGNMENTS    2  2  2  2  2  2  2  2  2  2  2  2  2  2  2  2  2  2  2  2
CENTRE ASSIGNMENTS    2  2  2  2  2  2  2  2  2  2  2  2  2  2  2  2  2  2  2  2
CENTRE ASSIGNMENTS    2  2  2  2  2  2  2  2  2  2  3  3  3  3  3  3  3  3  3  3
CENTRE ASSIGNMENTS    3  3  3  3  3  3  3  3  3  3  3  3  3  3  3  3  3  3  3  3
CENTRE ASSIGNMENTS    3  3  3  3  3  3  3  3  3  3  3  3  3  3  3  3  3  3  3  3
CENTRE ASSIGNMENTS    3  3  3  3  3  3  3  3  3  3  3  3  3  3  3  3  3  3  3  3
CENTRE ASSIGNMENTS    3  3  3  3  3  4  4  4  4  4  4  4  4  4  4  4  4  4  4  4
CENTRE ASSIGNMENTS    4  4  4  4  4  4  4  4  4  4  4  4  4  4  4  4  4  4  4  4
CENTRE ASSIGNMENTS    4  4  4  4  4  4  4  4  4  4  4  4  4  4  4  4  4  4  4  4
CENTRE ASSIGNMENTS    4  4  4  4  4  4  4  4  4  4  4  4  4  4  4  4  4  4  4  4
CENTRE ASSIGNMENTS    5  5  5  5  5  5  5  5  5  5  5  5  5  5  5  5  5  5  5  5
CENTRE ASSIGNMENTS    5  5  5  5  5  5  5  5  5  5  5  5  5  5  5  5  5  5  5  5
CENTRE ASSIGNMENTS    5  5  5  5  5  5  5  5  5  5  5  5  5  5  5  5  5  5  5  5
CENTRE ASSIGNMENTS    5  5  5  5  5  5  5  5  5  5  5  5  5  5  5  6  6  6  6  6
CENTRE ASSIGNMENTS    6  6  6  6  6  6  6  6  6  6  6  6  6  6  6  6  6  6  6  6
CENTRE ASSIGNMENTS    6  6  7  7  7  7  7  7  7  7  7  7  7  7  7  7  7  7  7  7
CENTRE ASSIGNMENTS    7  7  7  7  7  7  7  7  7  8  8  8  8  8  8  8  8  8  8  8
CENTRE ASSIGNMENTS    8  8  8  8  8  8  8  8  8  8  8  8  8  8  8  8
TYPE ASSIGNMENTS      1  1  1  1  1  1  1  1  1  1  1  1  1  1  1  1  1  1  1  2
TYPE ASSIGNMENTS      2  2  3  3  3  4  4  4  2  3  4  2  3  4  2  3  4  5  6  7
TYPE ASSIGNMENTS      8  9 10  5  6  7  8  9 10  5  6  7  8  9 10 11 12 13 17 14
TYPE ASSIGNMENTS     15 18 19 16 20 11 12 13 17 14 15 18 19 16 20  1  1  1  1  1
TYPE ASSIGNMENTS      1  1  1  1  1  1  1  1  1  1  1  1  1  1  2  2  2  3  3  3
TYPE ASSIGNMENTS      4  4  4  2  3  4  2  3  4  2  3  4  5  6  7  8  9 10  5  6
TYPE ASSIGNMENTS      7  8  9 10  5  6  7  8  9 10 11 12 13 17 14 15 18 19 16 20
TYPE ASSIGNMENTS     11 12 13 17 14 15 18 19 16 20  1  1  1  1  1  1  1  1  1  1
TYPE ASSIGNMENTS      1  1  1  1  1  1  1  1  1  2  2  2  3  3  3  4  4  4  2  3
TYPE ASSIGNMENTS      4  2  3  4  2  3  4  5  6  7  8  9 10  5  6  7  8  9 10  5
TYPE ASSIGNMENTS      6  7  8  9 10 11 12 13 17 14 15 18 19 16 20 11 12 13 17 14
TYPE ASSIGNMENTS     15 18 19 16 20  1  1  1  1  1  1  1  1  1  1  1  1  1  1  1
TYPE ASSIGNMENTS      1  1  1  1  2  2  2  3  3  3  4  4  4  2  3  4  2  3  4  2
TYPE ASSIGNMENTS      3  4  5  6  7  8  9 10  5  6  7  8  9 10  5  6  7  8  9 10
TYPE ASSIGNMENTS     11 12 13 17 14 15 18 19 16 20 11 12 13 17 14 15 18 19 16 20
TYPE ASSIGNMENTS      1  1  1  1  1  1  1  1  1  1  1  1  1  1  1  1  1  1  1  2
TYPE ASSIGNMENTS      2  2  3  3  3  4  4  4  2  3  4  2  3  4  2  3  4  5  6  7
TYPE ASSIGNMENTS      8  9 10  5  6  7  8  9 10  5  6  7  8  9 10 11 12 13 17 14
TYPE ASSIGNMENTS     15 18 19 16 20 11 12 13 17 14 15 18 19 16 20  1  1  1  1  1
TYPE ASSIGNMENTS      1  2  3  4  2  3  4  2  3  4  5  6  7  8  9 10  5  6  7  8
TYPE ASSIGNMENTS      9 10  1  1  1  1  1  1  2  3  4  2  3  4  2  3  4  5  6  7
TYPE ASSIGNMENTS      8  9 10  5  6  7  8  9 10  1  1  1  1  1  1  2  3  4  2  3
TYPE ASSIGNMENTS      4  2  3  4  5  6  7  8  9 10  5  6  7  8  9 10
EXPONENTS  0.1142000D+05 0.1712000D+04 0.3893000D+03 0.1100000D+03 0.3557000D+02
EXPONENTS  0.1254000D+02 0.4644000D+01 0.5118000D+00 0.1142000D+05 0.1712000D+04
EXPONENTS  0.3893000D+03 0.1100000D+03 0.3557000D+02 0.1254000D+02 0.4644000D+01
EXPONENTS  0.5118000D+00 0.1293000D+01 0.1787000D+00 0.5760000D-01 0.2663000D+02
EXPONENTS  0.5948000D+01 0.1742000D+01 0.2663000D+02 0.5948000D+01 0.1742000D+01
EXPONENTS  0.2663000D+02 0.5948000D+01 0.1742000D+01 0.5550000D+00 0.5550000D+00
EXPONENTS  0.5550000D+00 0.1725000D+00 0.1725000D+00 0.1725000D+00 0.4910000D-01
EXPONENTS  0.4910000D-01 0.4910000D-01 0.1654000D+01 0.1654000D+01 0.1654000D+01
EXPONENTS  0.1654000D+01 0.1654000D+01 0.1654000D+01 0.4690000D+00 0.4690000D+00
EXPONENTS  0.4690000D+00 0.4690000D+00 0.4690000D+00 0.4690000D+00 0.1510000D+00
EXPONENTS  0.1510000D+00 0.1510000D+00 0.1510000D+00 0.1510000D+00 0.1510000D+00
EXPONENTS  0.1093000D+01 0.1093000D+01 0.1093000D+01 0.1093000D+01 0.1093000D+01
EXPONENTS  0.1093000D+01 0.1093000D+01 0.1093000D+01 0.1093000D+01 0.1093000D+01
EXPONENTS  0.3640000D+00 0.3640000D+00 0.3640000D+00 0.3640000D+00 0.3640000D+00
EXPONENTS  0.3640000D+00 0.3640000D+00 0.3640000D+00 0.3640000D+00 0.3640000D+00
EXPONENTS  0.1533000D+05 0.2299000D+04 0.5224000D+03 0.1473000D+03 0.4755000D+02
EXPONENTS  0.1676000D+02 0.6207000D+01 0.6882000D+00 0.1533000D+05 0.2299000D+04
EXPONENTS  0.5224000D+03 0.1473000D+03 0.4755000D+02 0.1676000D+02 0.6207000D+01
EXPONENTS  0.6882000D+00 0.1752000D+01 0.2384000D+00 0.7376000D-01 0.3446000D+02
EXPONENTS  0.7749000D+01 0.2280000D+01 0.3446000D+02 0.7749000D+01 0.2280000D+01
EXPONENTS  0.3446000D+02 0.7749000D+01 0.2280000D+01 0.7156000D+00 0.7156000D+00
EXPONENTS  0.7156000D+00 0.2140000D+00 0.2140000D+00 0.2140000D+00 0.5974000D-01
EXPONENTS  0.5974000D-01 0.5974000D-01 0.2314000D+01 0.2314000D+01 0.2314000D+01
EXPONENTS  0.2314000D+01 0.2314000D+01 0.2314000D+01 0.6450000D+00 0.6450000D+00
EXPONENTS  0.6450000D+00 0.6450000D+00 0.6450000D+00 0.6450000D+00 0.2140000D+00
EXPONENTS  0.2140000D+00 0.2140000D+00 0.2140000D+00 0.2140000D+00 0.2140000D+00
EXPONENTS  0.1428000D+01 0.1428000D+01 0.1428000D+01 0.1428000D+01 0.1428000D+01
EXPONENTS  0.1428000D+01 0.1428000D+01 0.1428000D+01 0.1428000D+01 0.1428000D+01
EXPONENTS  0.5000000D+00 0.5000000D+00 0.5000000D+00 0.5000000D+00 0.5000000D+00
EXPONENTS  0.5000000D+00 0.5000000D+00 0.5000000D+00 0.5000000D+00 0.5000000D+00
EXPONENTS  0.8236000D+04 0.1235000D+04 0.2808000D+03 0.7927000D+02 0.2559000D+02
EXPONENTS  0.8997000D+01 0.3319000D+01 0.3643000D+00 0.8236000D+04 0.1235000D+04
EXPONENTS  0.2808000D+03 0.7927000D+02 0.2559000D+02 0.8997000D+01 0.3319000D+01
EXPONENTS  0.3643000D+00 0.9059000D+00 0.1285000D+00 0.4402000D-01 0.1871000D+02
EXPONENTS  0.4133000D+01 0.1200000D+01 0.1871000D+02 0.4133000D+01 0.1200000D+01
EXPONENTS  0.1871000D+02 0.4133000D+01 0.1200000D+01 0.3827000D+00 0.3827000D+00
EXPONENTS  0.3827000D+00 0.1209000D+00 0.1209000D+00 0.1209000D+00 0.3569000D-01
EXPONENTS  0.3569000D-01 0.3569000D-01 0.1097000D+01 0.1097000D+01 0.1097000D+01
EXPONENTS  0.1097000D+01 0.1097000D+01 0.1097000D+01 0.3180000D+00 0.3180000D+00
EXPONENTS  0.3180000D+00 0.3180000D+00 0.3180000D+00 0.3180000D+00 0.1000000D+00
EXPONENTS  0.1000000D+00 0.1000000D+00 0.1000000D+00 0.1000000D+00 0.1000000D+00
EXPONENTS  0.7610000D+00 0.7610000D+00 0.7610000D+00 0.7610000D+00 0.7610000D+00
EXPONENTS  0.7610000D+00 0.7610000D+00 0.7610000D+00 0.7610000D+00 0.7610000D+00
EXPONENTS  0.2680000D+00 0.2680000D+00 0.2680000D+00 0.2680000D+00 0.2680000D+00
EXPONENTS  0.2680000D+00 0.2680000D+00 0.2680000D+00 0.2680000D+00 0.2680000D+00
EXPONENTS  0.8236000D+04 0.1235000D+04 0.2808000D+03 0.7927000D+02 0.2559000D+02
EXPONENTS  0.8997000D+01 0.3319000D+01 0.3643000D+00 0.8236000D+04 0.1235000D+04
EXPONENTS  0.2808000D+03 0.7927000D+02 0.2559000D+02 0.8997000D+01 0.3319000D+01
EXPONENTS  0.3643000D+00 0.9059000D+00 0.1285000D+00 0.4402000D-01 0.1871000D+02
EXPONENTS  0.4133000D+01 0.1200000D+01 0.1871000D+02 0.4133000D+01 0.1200000D+01
EXPONENTS  0.1871000D+02 0.4133000D+01 0.1200000D+01 0.3827000D+00 0.3827000D+00
EXPONENTS  0.3827000D+00 0.1209000D+00 0.1209000D+00 0.1209000D+00 0.3569000D-01
EXPONENTS  0.3569000D-01 0.3569000D-01 0.1097000D+01 0.1097000D+01 0.1097000D+01
EXPONENTS  0.1097000D+01 0.1097000D+01 0.1097000D+01 0.3180000D+00 0.3180000D+00
EXPONENTS  0.3180000D+00 0.3180000D+00 0.3180000D+00 0.3180000D+00 0.1000000D+00
EXPONENTS  0.1000000D+00 0.1000000D+00 0.1000000D+00 0.1000000D+00 0.1000000D+00
EXPONENTS  0.7610000D+00 0.7610000D+00 0.7610000D+00 0.7610000D+00 0.7610000D+00
EXPONENTS  0.7610000D+00 0.7610000D+00 0.7610000D+00 0.7610000D+00 0.7610000D+00
EXPONENTS  0.2680000D+00 0.2680000D+00 0.2680000D+00 0.2680000D+00 0.2680000D+00
EXPONENTS  0.2680000D+00 0.2680000D+00 0.2680000D+00 0.2680000D+00 0.2680000D+00
EXPONENTS  0.8236000D+04 0.1235000D+04 0.2808000D+03 0.7927000D+02 0.2559000D+02
EXPONENTS  0.8997000D+01 0.3319000D+01 0.3643000D+00 0.8236000D+04 0.1235000D+04
EXPONENTS  0.2808000D+03 0.7927000D+02 0.2559000D+02 0.8997000D+01 0.3319000D+01
EXPONENTS  0.3643000D+00 0.9059000D+00 0.1285000D+00 0.4402000D-01 0.1871000D+02
EXPONENTS  0.4133000D+01 0.1200000D+01 0.1871000D+02 0.4133000D+01 0.1200000D+01
EXPONENTS  0.1871000D+02 0.4133000D+01 0.1200000D+01 0.3827000D+00 0.3827000D+00
EXPONENTS  0.3827000D+00 0.1209000D+00 0.1209000D+00 0.1209000D+00 0.3569000D-01
EXPONENTS  0.3569000D-01 0.3569000D-01 0.1097000D+01 0.1097000D+01 0.1097000D+01
EXPONENTS  0.1097000D+01 0.1097000D+01 0.1097000D+01 0.3180000D+00 0.3180000D+00
EXPONENTS  0.3180000D+00 0.3180000D+00 0.3180000D+00 0.3180000D+00 0.1000000D+00
EXPONENTS  0.1000000D+00 0.1000000D+00 0.1000000D+00 0.1000000D+00 0.1000000D+00
EXPONENTS  0.7610000D+00 0.7610000D+00 0.7610000D+00 0.7610000D+00 0.7610000D+00
EXPONENTS  0.7610000D+00 0.7610000D+00 0.7610000D+00 0.7610000D+00 0.7610000D+00
EXPONENTS  0.2680000D+00 0.2680000D+00 0.2680000D+00 0.2680000D+00 0.2680000D+00
EXPONENTS  0.2680000D+00 0.2680000D+00 0.2680000D+00 0.2680000D+00 0.2680000D+00
EXPONENTS  0.3387000D+02 0.5095000D+01 0.1159000D+01 0.3258000D+00 0.1027000D+00
EXPONENTS  0.2526000D-01 0.1407000D+01 0.1407000D+01 0.1407000D+01 0.3880000D+00
EXPONENTS  0.3880000D+00 0.3880000D+00 0.1020000D+00 0.1020000D+00 0.1020000D+00
EXPONENTS  0.1057000D+01 0.1057000D+01 0.1057000D+01 0.1057000D+01 0.1057000D+01
EXPONENTS  0.1057000D+01 0.2470000D+00 0.2470000D+00 0.2470000D+00 0.2470000D+00
EXPONENTS  0.2470000D+00 0.2470000D+00 0.3387000D+02 0.5095000D+01 0.1159000D+01
EXPONENTS  0.3258000D+00 0.1027000D+00 0.2526000D-01 0.1407000D+01 0.1407000D+01
EXPONENTS  0.1407000D+01 0.3880000D+00 0.3880000D+00 0.3880000D+00 0.1020000D+00
EXPONENTS  0.1020000D+00 0.1020000D+00 0.1057000D+01 0.1057000D+01 0.1057000D+01
EXPONENTS  0.1057000D+01 0.1057000D+01 0.1057000D+01 0.2470000D+00 0.2470000D+00
EXPONENTS  0.2470000D+00 0.2470000D+00 0.2470000D+00 0.2470000D+00 0.3387000D+02
EXPONENTS  0.5095000D+01 0.1159000D+01 0.3258000D+00 0.1027000D+00 0.2526000D-01
EXPONENTS  0.1407000D+01 0.1407000D+01 0.1407000D+01 0.3880000D+00 0.3880000D+00
EXPONENTS  0.3880000D+00 0.1020000D+00 0.1020000D+00 0.1020000D+00 0.1057000D+01
EXPONENTS  0.1057000D+01 0.1057000D+01 0.1057000D+01 0.1057000D+01 0.1057000D+01
EXPONENTS  0.2470000D+00 0.2470000D+00 0.2470000D+00 0.2470000D+00 0.2470000D+00
EXPONENTS  0.2470000D+00
MO    1     MO 0.0        OCC NO =    2.0000000  ORB. ENERGY =  -18.855070
  0.31311898D-03  0.58345110D-03  0.98676209D-03  0.14860090D-02  0.18397756D-02
  0.15655660D-02  0.59572674D-03 -0.27900425D-05 -0.20690305D-03 -0.38794516D-03
 -0.66001014D-03 -0.10249261D-02 -0.13601365D-02 -0.14333972D-02 -0.88879768D-03
  0.59122856D-03 -0.67468379D-03  0.65910268D-02  0.13970991D-02  0.11189678D-02
  0.10747552D-02  0.75369255D-03 -0.92207909D-03 -0.88564594D-03 -0.62107607D-03
  0.37518197D-15  0.36035779D-15  0.25270776D-15 -0.20438016D-02  0.15147874D-02
  0.26408056D-17 -0.26996527D-02 -0.25451775D-03  0.96640541D-18 -0.19571025D-03
  0.43985267D-04  0.17664487D-19  0.44956864D-03 -0.29161396D-03 -0.15795468D-03
 -0.12387498D-02 -0.12922156D-17  0.58935108D-18  0.42690667D-03  0.34736694D-03
 -0.77427362D-03 -0.19488621D-02  0.76981387D-18 -0.11895230D-17  0.17882259D-03
 -0.56692054D-04 -0.12213054D-03  0.13564255D-03 -0.32351124D-18  0.24216738D-18
  0.14673177D-04 -0.28919069D-03  0.30301777D-18 -0.81139469D-03  0.15449667D-02
 -0.55849930D-18  0.76737516D-03 -0.67739459D-03 -0.35055402D-18  0.34934967D-17
 -0.22006557D-04 -0.52326690D-04  0.75093782D-20 -0.15390576D-04  0.13709823D-03
 -0.24138884D-18  0.81410247D-04  0.19881837D-04  0.21886071D-18 -0.75489578D-18
  0.49671373D+00  0.92581049D+00  0.15698678D+01  0.23760681D+01  0.29646392D+01
  0.25462297D+01  0.97754710D+00 -0.43726282D-02 -0.29990551D-04 -0.56248022D-04
 -0.95890547D-04 -0.14985826D-03 -0.20038905D-03 -0.21396878D-03 -0.13081632D-03
  0.86304662D-04  0.57094597D-01 -0.45475387D-02 -0.82922490D-03 -0.10135961D-03
 -0.98284724D-04 -0.66302294D-04 -0.89506774D-02 -0.86791462D-02 -0.58549008D-02
 -0.51449889D-16 -0.49889086D-16 -0.33654883D-16 -0.25189420D-03  0.16241493D-02
  0.55809841D-17 -0.15812849D-02  0.38838962D-02 -0.13218368D-17 -0.11832954D-03
  0.67896971D-04 -0.53794831D-19  0.32405342D-02  0.41395489D-04 -0.32819297D-02
 -0.49198643D-03 -0.30970319D-17 -0.20806419D-17 -0.15975571D-02 -0.10617547D-03
  0.17037326D-02  0.54832429D-03  0.19595483D-19 -0.48349851D-18 -0.47120950D-04
 -0.41687721D-03  0.46399816D-03  0.26310600D-03 -0.81291167D-18  0.40399026D-18
  0.24327870D-04 -0.25581660D-03 -0.35586875D-18 -0.30607592D-03  0.63685979D-03
 -0.10748373D-17  0.23309231D-03  0.13059000D-03  0.21424436D-17  0.90997696D-18
 -0.21525924D-04 -0.20158027D-03 -0.50875339D-19 -0.19939492D-04  0.14425085D-02
  0.73381786D-18  0.84517263D-04 -0.83776769D-03 -0.58119184D-18 -0.18555759D-18
  0.39118014D-03  0.72924872D-03  0.12325588D-02  0.18529396D-02  0.22765504D-02
  0.19229108D-02  0.72525119D-03 -0.35893086D-05 -0.28720345D-03 -0.53773547D-03
 -0.91554065D-03 -0.14162022D-02 -0.18650884D-02 -0.19379464D-02 -0.12314779D-02
  0.82530786D-03 -0.23361927D-04  0.29083560D-02 -0.36362631D-03 -0.29595748D-03
 -0.27747895D-03 -0.19758154D-03 -0.69916848D-04 -0.65551489D-04 -0.46676565D-04
  0.54733127D-18  0.51315786D-18  0.36539896D-18  0.25521157D-02  0.25939300D-02
 -0.85601289D-18  0.79766363D-03 -0.20791405D-02  0.12871271D-18 -0.23372363D-04
 -0.27786249D-04  0.15415788D-19  0.55968832D-03  0.70393426D-04 -0.63008175D-03
  0.25162205D-02 -0.61785805D-18 -0.32992246D-18  0.73937600D-03 -0.58183466D-03
 -0.15754134D-03 -0.18848331D-03 -0.25978282D-18  0.58075504D-18 -0.16800930D-03
  0.14609076D-03  0.21918545D-04 -0.46692637D-03  0.51829297D-18 -0.16277289D-18
 -0.81430656D-04  0.23164190D-03  0.30874205D-18  0.63474381D-03 -0.45085045D-03
 -0.92879783D-18 -0.39045184D-03 -0.24407524D-03  0.25716870D-20 -0.65371065D-18
  0.47444479D-04  0.45054358D-04 -0.71072819D-19 -0.12836254D-03 -0.29769653D-03
  0.66282457D-18 -0.13970895D-04  0.16253346D-03 -0.44960611D-18 -0.12741364D-17
  0.48736211D-04  0.90855379D-04  0.15356160D-03  0.23085338D-03  0.28363005D-03
  0.23957092D-03  0.90357336D-04 -0.44718350D-06 -0.33668452D-04 -0.63037965D-04
 -0.10732753D-03 -0.16601937D-03 -0.21864167D-03 -0.22718270D-03 -0.14436441D-03
  0.96749668D-04 -0.34935958D-04 -0.15970389D-02  0.17464086D-02  0.19403778D-03
  0.18192275D-03  0.12953984D-03  0.50159381D-04  0.47027608D-04  0.33486459D-04
  0.81101944D-18  0.76038227D-18  0.54143748D-18 -0.50542639D-04  0.65473912D-03
 -0.85174930D-18  0.12132565D-02 -0.12084086D-02  0.30831495D-18  0.11602512D-03
 -0.40800212D-05  0.17781808D-19 -0.64597630D-04  0.35888665D-04  0.28708964D-04
  0.17185321D-03  0.13997598D-17  0.22516195D-18  0.17622363D-03 -0.15452464D-03
 -0.21698995D-04 -0.21032621D-02 -0.19039367D-17 -0.39038029D-18  0.26832756D-03
 -0.16427168D-03 -0.10405589D-03  0.10323193D-03 -0.11903655D-18 -0.45978490D-19
  0.15863903D-03 -0.14474528D-03  0.20835153D-18 -0.71435132D-03  0.31627049D-03
 -0.25312273D-18  0.23843422D-03  0.11796535D-03 -0.37193185D-18 -0.10769300D-18
  0.15265356D-03  0.10367335D-03 -0.43141230D-21 -0.46229742D-03 -0.35619963D-03
 -0.14107131D-18  0.43367460D-05  0.45179597D-04  0.14236554D-18 -0.15136234D-17
 -0.77399359D-04 -0.14429000D-03 -0.24387552D-03 -0.36662480D-03 -0.45044092D-03
 -0.38046937D-03 -0.14349905D-03  0.71018479D-06  0.55799602D-04  0.10447446D-03
  0.17787671D-03  0.27514822D-03  0.36236053D-03  0.37651580D-03  0.23925889D-03
 -0.16034574D-03 -0.11937508D-03 -0.57693609D-02 -0.16421881D-02 -0.34000599D-04
 -0.31877722D-04 -0.22698837D-04  0.38344327D-04  0.35950244D-04  0.25598716D-04
 -0.52351930D-18 -0.49083262D-18 -0.34950206D-18  0.76584309D-03 -0.56621903D-03
  0.91999113D-18  0.10540313D-02 -0.35767234D-03 -0.39805509D-19  0.15892085D-03
 -0.38702104D-05 -0.13239235D-19  0.47900356D-04 -0.44624558D-04 -0.32757979D-05
  0.15874659D-03  0.16316589D-17 -0.34701758D-18 -0.11841917D-03  0.16264028D-03
 -0.44221104D-04 -0.18525904D-02 -0.17374583D-17  0.46084093D-18  0.27353374D-04
 -0.47083729D-04  0.19730355D-04  0.74511263D-04  0.49551227D-18 -0.38422788D-18
 -0.79257013D-04 -0.11685770D-03  0.23928399D-18  0.37381944D-03  0.58696542D-04
  0.55183165D-19 -0.13604840D-03  0.29187657D-03 -0.77303514D-18 -0.66307254D-18
  0.56576896D-04  0.18241580D-04  0.40246195D-19 -0.28191467D-03  0.73025235D-04
  0.19779379D-18  0.11218398D-03 -0.12774998D-03 -0.31853237D-18 -0.97808961D-18
  0.48332448D-04  0.87169561D-04  0.12853147D-03  0.23377557D-03  0.87318888D-03
  0.37831661D-04  0.43357809D-03 -0.27101017D-03  0.85931685D-18 -0.21701672D-03
  0.26581203D-03 -0.18513893D-17 -0.53721040D-05 -0.39847359D-03  0.56641666D-18
 -0.91941930D-05 -0.85648283D-04  0.94842476D-04 -0.26176713D-03 -0.45453312D-18
  0.18293283D-18 -0.38906378D-04  0.22438351D-04  0.16468027D-04  0.35933631D-04
 -0.11003492D-18  0.38712588D-19 -0.34471877D-04 -0.62171450D-04 -0.91671766D-04
  0.51964011D-03 -0.42864690D-03  0.50718756D-04 -0.20876392D-03 -0.14487978D-03
 -0.53357350D-20  0.50420159D-03  0.61404423D-03  0.43062770D-18  0.24254941D-03
 -0.69056543D-04 -0.10653836D-18 -0.68330403D-04  0.13303104D-03 -0.64700638D-04
 -0.78200731D-04  0.39971021D-18 -0.10415566D-18  0.10225129D-04  0.30629756D-04
 -0.40854885D-04  0.50828950D-04 -0.16714043D-18  0.11838003D-18 -0.34305103D-05
 -0.61870666D-05 -0.91228261D-05 -0.81994728D-03  0.67754169D-04 -0.98743492D-04
  0.14888163D-03 -0.36708786D-05  0.59669854D-19  0.50464893D-03 -0.77705143D-03
 -0.12791761D-18 -0.22788380D-04 -0.11224919D-03 -0.73771924D-18 -0.45833201D-04
  0.38845709D-05  0.41948630D-04  0.52513672D-03 -0.80442550D-19 -0.88545144D-18
 -0.84541129D-05 -0.14119964D-04  0.22574077D-04  0.10900092D-03 -0.94549665D-19
 -0.15053042D-18
MO    2     MO 0.0        OCC NO =    2.0000000  ORB. ENERGY =  -14.038927
  0.41162459D+00  0.76700181D+00  0.12971923D+01  0.19534998D+01  0.24185595D+01
  0.20580850D+01  0.78313929D+00 -0.36677754D-02 -0.13909538D-02 -0.26080514D-02
 -0.44370715D-02 -0.68903035D-02 -0.91438335D-02 -0.96363453D-02 -0.59751488D-02
  0.39746713D-02  0.45973513D-01  0.23978939D-02  0.37016269D-03 -0.81922226D-02
 -0.78685319D-02 -0.55179577D-02 -0.59610567D-03 -0.57255237D-03 -0.40151324D-03
 -0.99961686D-16 -0.96012005D-16 -0.67330245D-16 -0.46474776D-03 -0.37158001D-02
  0.16097979D-16  0.14544345D-02  0.28727949D-03  0.68620417D-18  0.93206843D-05
  0.56283620D-05 -0.88508890D-19  0.10397633D-02  0.24488261D-02 -0.34885894D-02
 -0.49884636D-03  0.76791060D-17 -0.39222440D-17 -0.12835836D-02 -0.84826597D-05
  0.12920663D-02  0.12682297D-02 -0.47670623D-17 -0.35575565D-17 -0.18119683D-03
 -0.79089908D-04  0.26028673D-03 -0.41334592D-04 -0.17387875D-18  0.11054654D-19
  0.30699566D-03 -0.15899476D-03 -0.15979752D-17 -0.45534533D-03 -0.12038058D-03
  0.15461620D-17 -0.46564165D-03  0.59736486D-03  0.32477637D-17 -0.55964906D-18
  0.15457113D-03  0.23417882D-03 -0.27945896D-18  0.92707883D-05 -0.27020846D-03
  0.21267243D-19 -0.47298418D-03 -0.43232800D-03  0.81710963D-18  0.18624493D-19
  0.34091393D-03  0.63541970D-03  0.10774613D-02  0.16307878D-02  0.20347471D-02
  0.17475764D-02  0.67092854D-03 -0.30011045D-05 -0.23910213D-03 -0.44844197D-03
 -0.76449525D-03 -0.11947573D-02 -0.15976181D-02 -0.17058837D-02 -0.10429438D-02
  0.68807099D-03 -0.29962765D-03  0.24837392D-02  0.56231914D-03 -0.89558261D-03
 -0.86841388D-03 -0.58582687D-03  0.65306891D-03  0.63325717D-03  0.42719154D-03
  0.82956816D-18  0.80440207D-18  0.54264488D-18  0.17099797D-02 -0.13145292D-02
 -0.14974479D-18  0.19124018D-03 -0.10838703D-02 -0.10336570D-17 -0.24976462D-04
 -0.46245234D-04  0.90868097D-19  0.12090006D-02 -0.49225192D-03 -0.71674866D-03
 -0.17185866D-02  0.52743257D-17 -0.33984942D-17 -0.10115583D-03  0.31233885D-03
 -0.21118302D-03 -0.10547725D-02 -0.27826541D-17  0.17421198D-17 -0.30163727D-03
  0.25149331D-03  0.50143964D-04  0.16437256D-03 -0.83099257D-18  0.46527568D-18
  0.10254070D-03  0.30781885D-03 -0.58846379D-18  0.60561964D-03 -0.11079037D-02
  0.90754240D-18 -0.91324173D-03  0.18444716D-03  0.85784896D-18 -0.23159576D-17
 -0.19261057D-04 -0.22844747D-03  0.63302688D-18 -0.27723727D-03  0.74334812D-03
 -0.11656148D-17  0.33502044D-03 -0.58005718D-04 -0.73346582D-18  0.32513088D-17
 -0.19496018D-03 -0.36345010D-03 -0.61429470D-03 -0.92348615D-03 -0.11346094D-02
 -0.95835904D-03 -0.36145777D-03  0.17888747D-05  0.13921249D-03  0.26064971D-03
  0.44377843D-03  0.68645775D-03  0.90404071D-03  0.93935621D-03  0.59691870D-03
 -0.40004103D-03 -0.31740872D-03 -0.20065704D-02 -0.36514857D-03  0.97780291D-04
  0.91675238D-04  0.65278231D-04 -0.10067184D-03 -0.94386246D-04 -0.67208630D-04
  0.59790124D-18  0.56057042D-18  0.39915953D-18 -0.39737028D-03  0.21051078D-02
 -0.15073919D-17 -0.59627399D-04  0.10839634D-02  0.45172360D-18  0.98153738D-05
  0.75275225D-05 -0.16190251D-20  0.14496218D-03 -0.44595736D-04 -0.10036645D-03
  0.33003577D-03 -0.63005624D-18  0.48458796D-20  0.49015015D-03 -0.40657700D-03
 -0.83573155D-04 -0.16154696D-02 -0.98192388D-18  0.11744371D-17  0.72138599D-05
  0.12897195D-04 -0.20111055D-04 -0.21369963D-03  0.12178003D-18 -0.20982695D-18
 -0.49139988D-03 -0.25297877D-04  0.47811233D-19  0.12575536D-02  0.14124056D-04
 -0.82398488D-20  0.21664601D-03  0.61769576D-04 -0.13519385D-18 -0.64084064D-18
 -0.81152846D-04  0.51734377D-04 -0.12325852D-18  0.28843553D-03 -0.21538172D-03
  0.45243475D-18 -0.44976988D-04  0.60178590D-04 -0.82659189D-19 -0.70584464D-18
  0.28936018D-04  0.53943317D-04  0.91173709D-04  0.13706395D-03  0.16839890D-03
  0.14223979D-03  0.53647616D-04 -0.26550504D-06 -0.25531891D-04 -0.47803756D-04
 -0.81389985D-04 -0.12589793D-03 -0.16580315D-03 -0.17228009D-03 -0.10947626D-03
  0.73368445D-04  0.20833007D-03 -0.52399608D-02  0.14706561D-02  0.53770063D-04
  0.50412852D-04  0.35896954D-04  0.38986864D-03  0.36552663D-03  0.26027674D-03
  0.41107120D-18  0.38540538D-18  0.27443159D-18  0.15058839D-02 -0.91295705D-03
 -0.11114936D-17 -0.20790388D-02  0.11107514D-03  0.61423609D-19  0.60743082D-04
  0.42008147D-04 -0.37863279D-20  0.34274407D-03 -0.23342507D-03 -0.10931901D-03
  0.12174480D-02  0.88145422D-18 -0.66513164D-18  0.62859837D-03 -0.95970661D-03
  0.33110824D-03 -0.62545206D-02 -0.26644195D-17  0.12845106D-19 -0.10191252D-03
  0.17483428D-03 -0.72921759D-04 -0.58789663D-03  0.12647881D-19 -0.26638782D-18
  0.22945941D-03  0.30595329D-03  0.17260964D-18 -0.76722203D-03 -0.11961956D-02
 -0.44206715D-18  0.78843788D-04  0.27833576D-03 -0.75761784D-19  0.46218264D-18
  0.18877902D-03  0.17043159D-03 -0.16690536D-18 -0.58257401D-03 -0.29324421D-03
 -0.45073304D-18  0.16236950D-04 -0.21805055D-03  0.95144911D-18 -0.48181798D-18
  0.55063409D-03  0.10265071D-02  0.17349779D-02  0.26082401D-02  0.32045243D-02
  0.27067331D-02  0.10208801D-02 -0.50523927D-05 -0.42382878D-03 -0.79354119D-03
 -0.13510718D-02 -0.20899026D-02 -0.27523282D-02 -0.28598453D-02 -0.18173033D-02
  0.12179144D-02  0.18347086D-02 -0.14304152D-02 -0.16240364D-02  0.54583724D-03
  0.51175711D-03  0.36440155D-03  0.10184655D-02  0.95487617D-03  0.67992871D-03
  0.86235991D-18  0.80851723D-18  0.57571244D-18  0.15401908D-02  0.14493424D-03
 -0.91418201D-18 -0.36897508D-02  0.15087153D-02 -0.16149653D-18  0.59069531D-04
 -0.17835725D-04  0.21621809D-19 -0.33657584D-03  0.60174075D-03 -0.26516490D-03
  0.13473704D-02  0.29579923D-18 -0.46220381D-18  0.55624129D-03 -0.13440713D-02
  0.78782997D-03 -0.46220286D-02 -0.25070560D-17 -0.38664601D-17  0.38751902D-03
 -0.44812788D-03  0.60608865D-04 -0.32922637D-03  0.16027523D-18  0.15914771D-18
  0.63475701D-03 -0.84817278D-03  0.83500720D-18 -0.22635111D-02  0.15989663D-02
  0.92001007D-18  0.35924009D-03  0.94555200D-03 -0.34250317D-17 -0.21272624D-17
  0.32221515D-03 -0.55549456D-03  0.16278840D-18 -0.11988819D-02  0.16517871D-02
  0.85575798D-18  0.23223642D-03  0.14696596D-04 -0.13441232D-17 -0.11778778D-17
  0.15657138D-04  0.28238294D-04  0.41637348D-04 -0.15193198D-02 -0.18458026D-02
  0.17794231D-04  0.32226314D-04  0.10939276D-03  0.72492136D-18 -0.87539503D-03
  0.92518615D-03 -0.19443774D-17 -0.32183565D-03  0.52646417D-04  0.13355905D-18
  0.27795803D-04 -0.12462570D-03  0.96829897D-04  0.79837112D-03 -0.11664097D-17
  0.35491477D-18 -0.29383780D-04  0.13609723D-04  0.15774057D-04  0.15150053D-03
 -0.22441804D-18  0.14137101D-18 -0.24426605D-04 -0.44054387D-04 -0.64958168D-04
  0.39732106D-02  0.71487607D-03  0.46759577D-04 -0.23293721D-03 -0.23596312D-03
  0.56343151D-18  0.16140139D-02  0.17499983D-02 -0.13286562D-17 -0.15520233D-03
  0.20535581D-03 -0.27447288D-18  0.19863077D-03 -0.10398539D-03 -0.94645386D-04
  0.86779682D-04 -0.92313174D-18 -0.54256165D-18  0.10491938D-04  0.59807985D-04
 -0.70299924D-04  0.42102491D-04 -0.40883784D-18  0.97714938D-19  0.15071655D-03
  0.27182350D-03  0.40080360D-03  0.14596925D-02  0.38397781D-02  0.25027014D-05
 -0.90143622D-03  0.68667167D-03  0.46151481D-18  0.11850565D-02 -0.10637645D-02
 -0.86302042D-18 -0.82847663D-03  0.86118559D-05 -0.70099493D-19  0.52067405D-04
 -0.50064798D-03  0.44858058D-03 -0.23582439D-03 -0.38432737D-18 -0.33941976D-18
 -0.30477178D-05 -0.22393935D-03  0.22698707D-03  0.83379300D-04 -0.36993039D-18
 -0.69173843D-18
MO    3     MO 0.0        OCC NO =    2.0000000  ORB. ENERGY =   -9.959176
 -0.30998595D-03 -0.57761317D-03 -0.97688867D-03 -0.14711402D-02 -0.18213670D-02
 -0.15499011D-02 -0.58976597D-03  0.27621256D-05  0.21840024D-03  0.40950249D-03
  0.69668557D-03  0.10818791D-02  0.14357165D-02  0.15130482D-02  0.93818638D-03
 -0.62408194D-03  0.35027368D-04 -0.71030564D-02 -0.78489954D-03 -0.71563044D-03
 -0.68735448D-03 -0.48202041D-03 -0.33376744D-03 -0.32057963D-03 -0.22481257D-03
 -0.37169991D-15 -0.35701332D-15 -0.25036238D-15  0.12785289D-02  0.12453296D-02
 -0.13996527D-16  0.40967453D-02  0.47294652D-03 -0.15833841D-17  0.16884127D-03
 -0.12008119D-03 -0.22216717D-17  0.28875305D-03 -0.28502367D-03 -0.37293829D-05
 -0.66717719D-03  0.21607840D-15  0.27305718D-15 -0.56602929D-03  0.24005150D-03
  0.32597780D-03  0.15789336D-03  0.24438908D-16 -0.97021020D-16 -0.42153154D-03
  0.25392014D-03  0.16761140D-03 -0.19778267D-03  0.35390368D-17  0.86812136D-18
  0.44072837D-03 -0.15989660D-03  0.18724465D-17 -0.10119904D-02  0.20911429D-03
  0.72471108D-17 -0.31019470D-03  0.27057552D-03 -0.12864450D-16  0.49020360D-17
  0.20171099D-04 -0.65777138D-06  0.12269478D-17 -0.11761018D-03 -0.46719306D-04
 -0.51442843D-17  0.57096881D-04  0.48692620D-04  0.14634408D-17 -0.21465386D-17
  0.55488541D-03  0.10342350D-02  0.17537199D-02  0.26543367D-02  0.33118372D-02
  0.28444265D-02  0.10920306D-02 -0.48847201D-05 -0.42610639D-03 -0.79917310D-03
 -0.13624149D-02 -0.21291894D-02 -0.28471319D-02 -0.30400731D-02 -0.18586411D-02
  0.12262185D-02  0.55155441D-03  0.44921676D-02  0.21914037D-03 -0.68475637D-03
 -0.66398334D-03 -0.44791924D-03 -0.50768327D-03 -0.49228200D-03 -0.33209053D-03
  0.88182527D-17  0.85507388D-17  0.57682779D-17 -0.12980784D-02 -0.68007245D-03
 -0.27026149D-17  0.39527880D-02 -0.32247578D-02  0.10697039D-16  0.10869816D-03
  0.30232637D-04  0.15445157D-17  0.18822560D-02 -0.58385535D-03 -0.12984007D-02
  0.34731149D-02 -0.62396370D-17  0.10722272D-17 -0.12383073D-02  0.37587826D-03
  0.86242906D-03 -0.20548008D-02  0.89271171D-17 -0.46300840D-17 -0.92541168D-03
  0.74721120D-03  0.17820048D-03 -0.94239774D-03  0.33282880D-18 -0.45517274D-17
  0.36966206D-04 -0.30446670D-03  0.39954174D-17  0.21324146D-03  0.16397077D-02
 -0.33651010D-17 -0.32414008D-03 -0.72630755D-03 -0.86211513D-17  0.12670313D-16
  0.17068210D-03 -0.28634358D-03 -0.14505908D-17  0.73821853D-03  0.12996563D-02
  0.14320167D-17 -0.12502648D-02 -0.44062561D-03  0.29197558D-17 -0.34898433D-17
  0.33063846D+00  0.61638527D+00  0.10417997D+01  0.15661662D+01  0.19242161D+01
  0.16253081D+01  0.61300642D+00 -0.30338030D-02 -0.40854650D-02 -0.76492795D-02
 -0.13023553D-01 -0.20145456D-01 -0.26530857D-01 -0.27567260D-01 -0.17517756D-01
  0.11739993D-01  0.39005014D-01  0.41824424D-02  0.69482461D-03  0.21923277D-02
  0.20554465D-02  0.14636004D-02  0.21211756D-02  0.19887370D-02  0.14160992D-02
 -0.12610718D-16 -0.11823350D-16 -0.84189297D-17  0.40771045D-03 -0.41744669D-02
  0.39374051D-17  0.39201199D-02 -0.92578343D-03 -0.40040960D-17  0.16194606D-03
 -0.49488402D-04 -0.15831656D-18  0.30151665D-02  0.25293130D-02 -0.55444795D-02