 Molden2AIM, Version 4.0.0 (06/02/2016)           Time: Mon Jul  2 17:17:02 2018
GAUSSIAN             21 MOL ORBITALS    558 PRIMITIVES       10 NUCLEI
  H    1    (CENTRE  1)   0.00000000  4.55007689 -0.29307196  CHARGE =  1.0
  H    2    (CENTRE  2)   0.00000000 -4.55007689 -0.29307196  CHARGE =  1.0
  H    3    (CENTRE  3)   0.00000000  2.40741282  3.97138795  CHARGE =  1.0
  H    4    (CENTRE  4)   0.00000000 -2.40741282  3.97138795  CHARGE =  1.0
  C    5    (CENTRE  5)   0.00000000  2.49439502 -0.12568946  CHARGE =  6.0
  C    6    (CENTRE  6)   0.00000000 -2.49439502 -0.12568946  CHARGE =  6.0
  C    7    (CENTRE  7)   0.00000000  1.30637523  2.23048154  CHARGE =  6.0
  C    8    (CENTRE  8)   0.00000000 -1.30637523  2.23048154  CHARGE =  6.0
  N    9    (CENTRE  9)   0.00000000  1.25097413 -2.31686470  CHARGE =  7.0
  N   10    (CENTRE 10)   0.00000000 -1.25097413 -2.31686470  CHARGE =  7.0
CENTRE ASSIGNMENTS    1  1  1  1  1  1  1  1  1  1  1  1  1  1  1  1  1  1  1  1
CENTRE ASSIGNMENTS    1  1  1  1  1  1  1  2  2  2  2  2  2  2  2  2  2  2  2  2
CENTRE ASSIGNMENTS    2  2  2  2  2  2  2  2  2  2  2  2  2  2  3  3  3  3  3  3
CENTRE ASSIGNMENTS    3  3  3  3  3  3  3  3  3  3  3  3  3  3  3  3  3  3  3  3
CENTRE ASSIGNMENTS    3  4  4  4  4  4  4  4  4  4  4  4  4  4  4  4  4  4  4  4
CENTRE ASSIGNMENTS    4  4  4  4  4  4  4  4  5  5  5  5  5  5  5  5  5  5  5  5
CENTRE ASSIGNMENTS    5  5  5  5  5  5  5  5  5  5  5  5  5  5  5  5  5  5  5  5
CENTRE ASSIGNMENTS    5  5  5  5  5  5  5  5  5  5  5  5  5  5  5  5  5  5  5  5
CENTRE ASSIGNMENTS    5  5  5  5  5  5  5  5  5  5  5  5  5  5  5  5  5  5  5  5
CENTRE ASSIGNMENTS    5  5  5  6  6  6  6  6  6  6  6  6  6  6  6  6  6  6  6  6
CENTRE ASSIGNMENTS    6  6  6  6  6  6  6  6  6  6  6  6  6  6  6  6  6  6  6  6
CENTRE ASSIGNMENTS    6  6  6  6  6  6  6  6  6  6  6  6  6  6  6  6  6  6  6  6
CENTRE ASSIGNMENTS    6  6  6  6  6  6  6  6  6  6  6  6  6  6  6  6  6  6  7  7
CENTRE ASSIGNMENTS    7  7  7  7  7  7  7  7  7  7  7  7  7  7  7  7  7  7  7  7
CENTRE ASSIGNMENTS    7  7  7  7  7  7  7  7  7  7  7  7  7  7  7  7  7  7  7  7
CENTRE ASSIGNMENTS    7  7  7  7  7  7  7  7  7  7  7  7  7  7  7  7  7  7  7  7
CENTRE ASSIGNMENTS    7  7  7  7  7  7  7  7  7  7  7  7  7  8  8  8  8  8  8  8
CENTRE ASSIGNMENTS    8  8  8  8  8  8  8  8  8  8  8  8  8  8  8  8  8  8  8  8
CENTRE ASSIGNMENTS    8  8  8  8  8  8  8  8  8  8  8  8  8  8  8  8  8  8  8  8
CENTRE ASSIGNMENTS    8  8  8  8  8  8  8  8  8  8  8  8  8  8  8  8  8  8  8  8
CENTRE ASSIGNMENTS    8  8  8  8  8  8  8  8  9  9  9  9  9  9  9  9  9  9  9  9
CENTRE ASSIGNMENTS    9  9  9  9  9  9  9  9  9  9  9  9  9  9  9  9  9  9  9  9
CENTRE ASSIGNMENTS    9  9  9  9  9  9  9  9  9  9  9  9  9  9  9  9  9  9  9  9
CENTRE ASSIGNMENTS    9  9  9  9  9  9  9  9  9  9  9  9  9  9  9  9  9  9  9  9
CENTRE ASSIGNMENTS    9  9  9 10 10 10 10 10 10 10 10 10 10 10 10 10 10 10 10 10
CENTRE ASSIGNMENTS   10 10 10 10 10 10 10 10 10 10 10 10 10 10 10 10 10 10 10 10
CENTRE ASSIGNMENTS   10 10 10 10 10 10 10 10 10 10 10 10 10 10 10 10 10 10 10 10
CENTRE ASSIGNMENTS   10 10 10 10 10 10 10 10 10 10 10 10 10 10 10 10 10 10
TYPE ASSIGNMENTS      1  1  1  1  1  1  2  3  4  2  3  4  2  3  4  5  6  7  8  9
TYPE ASSIGNMENTS     10  5  6  7  8  9 10  1  1  1  1  1  1  2  3  4  2  3  4  2
TYPE ASSIGNMENTS      3  4  5  6  7  8  9 10  5  6  7  8  9 10  1  1  1  1  1  1
TYPE ASSIGNMENTS      2  3  4  2  3  4  2  3  4  5  6  7  8  9 10  5  6  7  8  9
TYPE ASSIGNMENTS     10  1  1  1  1  1  1  2  3  4  2  3  4  2  3  4  5  6  7  8
TYPE ASSIGNMENTS      9 10  5  6  7  8  9 10  1  1  1  1  1  1  1  1  1  1  1  1
TYPE ASSIGNMENTS      1  1  1  1  1  1  1  2  2  2  3  3  3  4  4  4  2  3  4  2
TYPE ASSIGNMENTS      3  4  2  3  4  5  6  7  8  9 10  5  6  7  8  9 10  5  6  7
TYPE ASSIGNMENTS      8  9 10 11 12 13 17 14 15 18 19 16 20 11 12 13 17 14 15 18
TYPE ASSIGNMENTS     19 16 20  1  1  1  1  1  1  1  1  1  1  1  1  1  1  1  1  1
TYPE ASSIGNMENTS      1  1  2  2  2  3  3  3  4  4  4  2  3  4  2  3  4  2  3  4
TYPE ASSIGNMENTS      5  6  7  8  9 10  5  6  7  8  9 10  5  6  7  8  9 10 11 12
TYPE ASSIGNMENTS     13 17 14 15 18 19 16 20 11 12 13 17 14 15 18 19 16 20  1  1
TYPE ASSIGNMENTS      1  1  1  1  1  1  1  1  1  1  1  1  1  1  1  1  1  2  2  2
TYPE ASSIGNMENTS      3  3  3  4  4  4  2  3  4  2  3  4  2  3  4  5  6  7  8  9
TYPE ASSIGNMENTS     10  5  6  7  8  9 10  5  6  7  8  9 10 11 12 13 17 14 15 18
TYPE ASSIGNMENTS     19 16 20 11 12 13 17 14 15 18 19 16 20  1  1  1  1  1  1  1
TYPE ASSIGNMENTS      1  1  1  1  1  1  1  1  1  1  1  1  2  2  2  3  3  3  4  4
TYPE ASSIGNMENTS      4  2  3  4  2  3  4  2  3  4  5  6  7  8  9 10  5  6  7  8
TYPE ASSIGNMENTS      9 10  5  6  7  8  9 10 11 12 13 17 14 15 18 19 16 20 11 12
TYPE ASSIGNMENTS     13 17 14 15 18 19 16 20  1  1  1  1  1  1  1  1  1  1  1  1
TYPE ASSIGNMENTS      1  1  1  1  1  1  1  2  2  2  3  3  3  4  4  4  2  3  4  2
TYPE ASSIGNMENTS      3  4  2  3  4  5  6  7  8  9 10  5  6  7  8  9 10  5  6  7
TYPE ASSIGNMENTS      8  9 10 11 12 13 17 14 15 18 19 16 20 11 12 13 17 14 15 18
TYPE ASSIGNMENTS     19 16 20  1  1  1  1  1  1  1  1  1  1  1  1  1  1  1  1  1
TYPE ASSIGNMENTS      1  1  2  2  2  3  3  3  4  4  4  2  3  4  2  3  4  2  3  4
TYPE ASSIGNMENTS      5  6  7  8  9 10  5  6  7  8  9 10  5  6  7  8  9 10 11 12
TYPE ASSIGNMENTS     13 17 14 15 18 19 16 20 11 12 13 17 14 15 18 19 16 20
EXPONENTS  0.3387000D+02 0.5095000D+01 0.1159000D+01 0.3258000D+00 0.1027000D+00
EXPONENTS  0.2526000D-01 0.1407000D+01 0.1407000D+01 0.1407000D+01 0.3880000D+00
EXPONENTS  0.3880000D+00 0.3880000D+00 0.1020000D+00 0.1020000D+00 0.1020000D+00
EXPONENTS  0.1057000D+01 0.1057000D+01 0.1057000D+01 0.1057000D+01 0.1057000D+01
EXPONENTS  0.1057000D+01 0.2470000D+00 0.2470000D+00 0.2470000D+00 0.2470000D+00
EXPONENTS  0.2470000D+00 0.2470000D+00 0.3387000D+02 0.5095000D+01 0.1159000D+01
EXPONENTS  0.3258000D+00 0.1027000D+00 0.2526000D-01 0.1407000D+01 0.1407000D+01
EXPONENTS  0.1407000D+01 0.3880000D+00 0.3880000D+00 0.3880000D+00 0.1020000D+00
EXPONENTS  0.1020000D+00 0.1020000D+00 0.1057000D+01 0.1057000D+01 0.1057000D+01
EXPONENTS  0.1057000D+01 0.1057000D+01 0.1057000D+01 0.2470000D+00 0.2470000D+00
EXPONENTS  0.2470000D+00 0.2470000D+00 0.2470000D+00 0.2470000D+00 0.3387000D+02
EXPONENTS  0.5095000D+01 0.1159000D+01 0.3258000D+00 0.1027000D+00 0.2526000D-01
EXPONENTS  0.1407000D+01 0.1407000D+01 0.1407000D+01 0.3880000D+00 0.3880000D+00
EXPONENTS  0.3880000D+00 0.1020000D+00 0.1020000D+00 0.1020000D+00 0.1057000D+01
EXPONENTS  0.1057000D+01 0.1057000D+01 0.1057000D+01 0.1057000D+01 0.1057000D+01
EXPONENTS  0.2470000D+00 0.2470000D+00 0.2470000D+00 0.2470000D+00 0.2470000D+00
EXPONENTS  0.2470000D+00 0.3387000D+02 0.5095000D+01 0.1159000D+01 0.3258000D+00
EXPONENTS  0.1027000D+00 0.2526000D-01 0.1407000D+01 0.1407000D+01 0.1407000D+01
EXPONENTS  0.3880000D+00 0.3880000D+00 0.3880000D+00 0.1020000D+00 0.1020000D+00
EXPONENTS  0.1020000D+00 0.1057000D+01 0.1057000D+01 0.1057000D+01 0.1057000D+01
EXPONENTS  0.1057000D+01 0.1057000D+01 0.2470000D+00 0.2470000D+00 0.2470000D+00
EXPONENTS  0.2470000D+00 0.2470000D+00 0.2470000D+00 0.8236000D+04 0.1235000D+04
EXPONENTS  0.2808000D+03 0.7927000D+02 0.2559000D+02 0.8997000D+01 0.3319000D+01
EXPONENTS  0.3643000D+00 0.8236000D+04 0.1235000D+04 0.2808000D+03 0.7927000D+02
EXPONENTS  0.2559000D+02 0.8997000D+01 0.3319000D+01 0.3643000D+00 0.9059000D+00
EXPONENTS  0.1285000D+00 0.4402000D-01 0.1871000D+02 0.4133000D+01 0.1200000D+01
EXPONENTS  0.1871000D+02 0.4133000D+01 0.1200000D+01 0.1871000D+02 0.4133000D+01
EXPONENTS  0.1200000D+01 0.3827000D+00 0.3827000D+00 0.3827000D+00 0.1209000D+00
EXPONENTS  0.1209000D+00 0.1209000D+00 0.3569000D-01 0.3569000D-01 0.3569000D-01
EXPONENTS  0.1097000D+01 0.1097000D+01 0.1097000D+01 0.1097000D+01 0.1097000D+01
EXPONENTS  0.1097000D+01 0.3180000D+00 0.3180000D+00 0.3180000D+00 0.3180000D+00
EXPONENTS  0.3180000D+00 0.3180000D+00 0.1000000D+00 0.1000000D+00 0.1000000D+00
EXPONENTS  0.1000000D+00 0.1000000D+00 0.1000000D+00 0.7610000D+00 0.7610000D+00
EXPONENTS  0.7610000D+00 0.7610000D+00 0.7610000D+00 0.7610000D+00 0.7610000D+00
EXPONENTS  0.7610000D+00 0.7610000D+00 0.7610000D+00 0.2680000D+00 0.2680000D+00
EXPONENTS  0.2680000D+00 0.2680000D+00 0.2680000D+00 0.2680000D+00 0.2680000D+00
EXPONENTS  0.2680000D+00 0.2680000D+00 0.2680000D+00 0.8236000D+04 0.1235000D+04
EXPONENTS  0.2808000D+03 0.7927000D+02 0.2559000D+02 0.8997000D+01 0.3319000D+01
EXPONENTS  0.3643000D+00 0.8236000D+04 0.1235000D+04 0.2808000D+03 0.7927000D+02
EXPONENTS  0.2559000D+02 0.8997000D+01 0.3319000D+01 0.3643000D+00 0.9059000D+00
EXPONENTS  0.1285000D+00 0.4402000D-01 0.1871000D+02 0.4133000D+01 0.1200000D+01
EXPONENTS  0.1871000D+02 0.4133000D+01 0.1200000D+01 0.1871000D+02 0.4133000D+01
EXPONENTS  0.1200000D+01 0.3827000D+00 0.3827000D+00 0.3827000D+00 0.1209000D+00
EXPONENTS  0.1209000D+00 0.1209000D+00 0.3569000D-01 0.3569000D-01 0.3569000D-01
EXPONENTS  0.1097000D+01 0.1097000D+01 0.1097000D+01 0.1097000D+01 0.1097000D+01
EXPONENTS  0.1097000D+01 0.3180000D+00 0.3180000D+00 0.3180000D+00 0.3180000D+00
EXPONENTS  0.3180000D+00 0.3180000D+00 0.1000000D+00 0.1000000D+00 0.1000000D+00
EXPONENTS  0.1000000D+00 0.1000000D+00 0.1000000D+00 0.7610000D+00 0.7610000D+00
EXPONENTS  0.7610000D+00 0.7610000D+00 0.7610000D+00 0.7610000D+00 0.7610000D+00
EXPONENTS  0.7610000D+00 0.7610000D+00 0.7610000D+00 0.2680000D+00 0.2680000D+00
EXPONENTS  0.2680000D+00 0.2680000D+00 0.2680000D+00 0.2680000D+00 0.2680000D+00
EXPONENTS  0.2680000D+00 0.2680000D+00 0.2680000D+00 0.8236000D+04 0.1235000D+04
EXPONENTS  0.2808000D+03 0.7927000D+02 0.2559000D+02 0.8997000D+01 0.3319000D+01
EXPONENTS  0.3643000D+00 0.8236000D+04 0.1235000D+04 0.2808000D+03 0.7927000D+02
EXPONENTS  0.2559000D+02 0.8997000D+01 0.3319000D+01 0.3643000D+00 0.9059000D+00
EXPONENTS  0.1285000D+00 0.4402000D-01 0.1871000D+02 0.4133000D+01 0.1200000D+01
EXPONENTS  0.1871000D+02 0.4133000D+01 0.1200000D+01 0.1871000D+02 0.4133000D+01
EXPONENTS  0.1200000D+01 0.3827000D+00 0.3827000D+00 0.3827000D+00 0.1209000D+00
EXPONENTS  0.1209000D+00 0.1209000D+00 0.3569000D-01 0.3569000D-01 0.3569000D-01
EXPONENTS  0.1097000D+01 0.1097000D+01 0.1097000D+01 0.1097000D+01 0.1097000D+01
EXPONENTS  0.1097000D+01 0.3180000D+00 0.3180000D+00 0.3180000D+00 0.3180000D+00
EXPONENTS  0.3180000D+00 0.3180000D+00 0.1000000D+00 0.1000000D+00 0.1000000D+00
EXPONENTS  0.1000000D+00 0.1000000D+00 0.1000000D+00 0.7610000D+00 0.7610000D+00
EXPONENTS  0.7610000D+00 0.7610000D+00 0.7610000D+00 0.7610000D+00 0.7610000D+00
EXPONENTS  0.7610000D+00 0.7610000D+00 0.7610000D+00 0.2680000D+00 0.2680000D+00
EXPONENTS  0.2680000D+00 0.2680000D+00 0.2680000D+00 0.2680000D+00 0.2680000D+00
EXPONENTS  0.2680000D+00 0.2680000D+00 0.2680000D+00 0.8236000D+04 0.1235000D+04
EXPONENTS  0.2808000D+03 0.7927000D+02 0.2559000D+02 0.8997000D+01 0.3319000D+01
EXPONENTS  0.3643000D+00 0.8236000D+04 0.1235000D+04 0.2808000D+03 0.7927000D+02
EXPONENTS  0.2559000D+02 0.8997000D+01 0.3319000D+01 0.3643000D+00 0.9059000D+00
EXPONENTS  0.1285000D+00 0.4402000D-01 0.1871000D+02 0.4133000D+01 0.1200000D+01
EXPONENTS  0.1871000D+02 0.4133000D+01 0.1200000D+01 0.1871000D+02 0.4133000D+01
EXPONENTS  0.1200000D+01 0.3827000D+00 0.3827000D+00 0.3827000D+00 0.1209000D+00
EXPONENTS  0.1209000D+00 0.1209000D+00 0.3569000D-01 0.3569000D-01 0.3569000D-01
EXPONENTS  0.1097000D+01 0.1097000D+01 0.1097000D+01 0.1097000D+01 0.1097000D+01
EXPONENTS  0.1097000D+01 0.3180000D+00 0.3180000D+00 0.3180000D+00 0.3180000D+00
EXPONENTS  0.3180000D+00 0.3180000D+00 0.1000000D+00 0.1000000D+00 0.1000000D+00
EXPONENTS  0.1000000D+00 0.1000000D+00 0.1000000D+00 0.7610000D+00 0.7610000D+00
EXPONENTS  0.7610000D+00 0.7610000D+00 0.7610000D+00 0.7610000D+00 0.7610000D+00
EXPONENTS  0.7610000D+00 0.7610000D+00 0.7610000D+00 0.2680000D+00 0.2680000D+00
EXPONENTS  0.2680000D+00 0.2680000D+00 0.2680000D+00 0.2680000D+00 0.2680000D+00
EXPONENTS  0.2680000D+00 0.2680000D+00 0.2680000D+00 0.1142000D+05 0.1712000D+04
EXPONENTS  0.3893000D+03 0.1100000D+03 0.3557000D+02 0.1254000D+02 0.4644000D+01
EXPONENTS  0.5118000D+00 0.1142000D+05 0.1712000D+04 0.3893000D+03 0.1100000D+03
EXPONENTS  0.3557000D+02 0.1254000D+02 0.4644000D+01 0.5118000D+00 0.1293000D+01
EXPONENTS  0.1787000D+00 0.5760000D-01 0.2663000D+02 0.5948000D+01 0.1742000D+01
EXPONENTS  0.2663000D+02 0.5948000D+01 0.1742000D+01 0.2663000D+02 0.5948000D+01
EXPONENTS  0.1742000D+01 0.5550000D+00 0.5550000D+00 0.5550000D+00 0.1725000D+00
EXPONENTS  0.1725000D+00 0.1725000D+00 0.4910000D-01 0.4910000D-01 0.4910000D-01
EXPONENTS  0.1654000D+01 0.1654000D+01 0.1654000D+01 0.1654000D+01 0.1654000D+01
EXPONENTS  0.1654000D+01 0.4690000D+00 0.4690000D+00 0.4690000D+00 0.4690000D+00
EXPONENTS  0.4690000D+00 0.4690000D+00 0.1510000D+00 0.1510000D+00 0.1510000D+00
EXPONENTS  0.1510000D+00 0.1510000D+00 0.1510000D+00 0.1093000D+01 0.1093000D+01
EXPONENTS  0.1093000D+01 0.1093000D+01 0.1093000D+01 0.1093000D+01 0.1093000D+01
EXPONENTS  0.1093000D+01 0.1093000D+01 0.1093000D+01 0.3640000D+00 0.3640000D+00
EXPONENTS  0.3640000D+00 0.3640000D+00 0.3640000D+00 0.3640000D+00 0.3640000D+00
EXPONENTS  0.3640000D+00 0.3640000D+00 0.3640000D+00 0.1142000D+05 0.1712000D+04
EXPONENTS  0.3893000D+03 0.1100000D+03 0.3557000D+02 0.1254000D+02 0.4644000D+01
EXPONENTS  0.5118000D+00 0.1142000D+05 0.1712000D+04 0.3893000D+03 0.1100000D+03
EXPONENTS  0.3557000D+02 0.1254000D+02 0.4644000D+01 0.5118000D+00 0.1293000D+01
EXPONENTS  0.1787000D+00 0.5760000D-01 0.2663000D+02 0.5948000D+01 0.1742000D+01
EXPONENTS  0.2663000D+02 0.5948000D+01 0.1742000D+01 0.2663000D+02 0.5948000D+01
EXPONENTS  0.1742000D+01 0.5550000D+00 0.5550000D+00 0.5550000D+00 0.1725000D+00
EXPONENTS  0.1725000D+00 0.1725000D+00 0.4910000D-01 0.4910000D-01 0.4910000D-01
EXPONENTS  0.1654000D+01 0.1654000D+01 0.1654000D+01 0.1654000D+01 0.1654000D+01
EXPONENTS  0.1654000D+01 0.4690000D+00 0.4690000D+00 0.4690000D+00 0.4690000D+00
EXPONENTS  0.4690000D+00 0.4690000D+00 0.1510000D+00 0.1510000D+00 0.1510000D+00
EXPONENTS  0.1510000D+00 0.1510000D+00 0.1510000D+00 0.1093000D+01 0.1093000D+01
EXPONENTS  0.1093000D+01 0.1093000D+01 0.1093000D+01 0.1093000D+01 0.1093000D+01
EXPONENTS  0.1093000D+01 0.1093000D+01 0.1093000D+01 0.3640000D+00 0.3640000D+00
EXPONENTS  0.3640000D+00 0.3640000D+00 0.3640000D+00 0.3640000D+00 0.3640000D+00
EXPONENTS  0.3640000D+00 0.3640000D+00 0.3640000D+00
MO    1     MO 0.0        OCC NO =    2.0000000  ORB. ENERGY =  -14.023965
  0.92917118D-04  0.16757985D-03  0.24709639D-03  0.98708407D-03  0.19705957D-02
 -0.22174577D-04 -0.62473254D-16 -0.45671941D-03  0.80031483D-04  0.10786134D-16
  0.13935928D-02 -0.50678125D-03 -0.16712782D-17 -0.26577348D-03  0.26193084D-03
  0.49751146D-03 -0.48670764D-03 -0.10803813D-04 -0.93679249D-16 -0.49789868D-17
  0.40374004D-04  0.14955570D-03 -0.19701073D-03  0.47455028D-04  0.11129657D-16
 -0.15434749D-16 -0.38518260D-04  0.92917118D-04  0.16757985D-03  0.24709639D-03
  0.98708407D-03  0.19705957D-02 -0.22174577D-04 -0.79049805D-18  0.45671941D-03
  0.80031484D-04  0.42033825D-18 -0.13935928D-02 -0.50678125D-03  0.52857599D-18
  0.26577348D-03  0.26193084D-03  0.49751146D-03 -0.48670764D-03 -0.10803813D-04
 -0.37086955D-18 -0.12217814D-17 -0.40374003D-04  0.14955570D-03 -0.19701073D-03
  0.47455028D-04 -0.20889917D-18 -0.23970776D-18  0.38518260D-04 -0.16716278D-04
 -0.30148496D-04 -0.44453940D-04  0.72165032D-03 -0.78287850D-03  0.33270209D-04
  0.35865699D-18 -0.61270659D-04  0.11713018D-03  0.29614981D-17  0.19148718D-03
 -0.17572952D-02  0.60134763D-18 -0.42513855D-04  0.12395086D-03 -0.25627281D-03
 -0.22064840D-03  0.47692121D-03  0.17393953D-18  0.26860985D-18 -0.60646375D-04
 -0.69465981D-04 -0.62535973D-04  0.13200195D-03 -0.10588495D-18 -0.11560920D-17
  0.16234708D-03 -0.16716278D-04 -0.30148496D-04 -0.44453940D-04  0.72165032D-03
 -0.78287850D-03  0.33270209D-04 -0.33005329D-18  0.61270659D-04  0.11713018D-03
  0.12217934D-17 -0.19148718D-03 -0.17572952D-02  0.84329870D-18  0.42513855D-04
  0.12395086D-03 -0.25627281D-03 -0.22064840D-03  0.47692121D-03  0.35503182D-18
 -0.34444198D-18  0.60646375D-04 -0.69465981D-04 -0.62535973D-04  0.13200195D-03
  0.64597676D-18 -0.54857522D-19 -0.16234708D-03  0.48614798D-03  0.90629037D-03
  0.15317904D-02  0.23027827D-02  0.28292346D-02  0.23897409D-02  0.90132235D-03
 -0.44606946D-05 -0.37544737D-03 -0.70295595D-03 -0.11968426D-02 -0.18513336D-02
 -0.24381412D-02 -0.25333849D-02 -0.16098524D-02  0.10788856D-02  0.13031417D-02
 -0.25952725D-02 -0.15072713D-02  0.15012041D-17  0.14074742D-17  0.10022055D-17
 -0.64712120D-03 -0.60671726D-03 -0.43201883D-03 -0.24099936D-03 -0.22595221D-03
 -0.16089144D-03  0.99038336D-18  0.11472948D-02 -0.36789589D-02  0.21536946D-17
 -0.22446688D-02  0.74850230D-03 -0.56463322D-19  0.32991186D-04 -0.85273478D-04
 -0.43007049D-03 -0.12354117D-03  0.55361166D-03 -0.42943878D-18 -0.47895978D-18
  0.12830620D-02  0.52071347D-03  0.81152621D-03 -0.13322397D-02  0.74346389D-17
 -0.25195019D-17 -0.31949451D-03  0.59360379D-04  0.78973976D-04 -0.13833435D-03
  0.80606576D-18  0.33718481D-18 -0.57418611D-03  0.87957007D-18 -0.31764412D-04
 -0.31824931D-03 -0.27229866D-17 -0.78400029D-03 -0.71237099D-04  0.84276374D-19
  0.87929352D-03  0.10259850D-02  0.85852896D-18 -0.20590066D-18 -0.37614916D-03
 -0.75895923D-04  0.20402576D-17  0.19749428D-03 -0.35709496D-03 -0.14225557D-17
  0.93095320D-03  0.58478273D-03 -0.25087455D-18  0.48614798D-03  0.90629037D-03
  0.15317904D-02  0.23027827D-02  0.28292346D-02  0.23897409D-02  0.90132235D-03
 -0.44606946D-05 -0.37544737D-03 -0.70295595D-03 -0.11968426D-02 -0.18513336D-02
 -0.24381412D-02 -0.25333849D-02 -0.16098524D-02  0.10788856D-02  0.13031417D-02
 -0.25952725D-02 -0.15072713D-02 -0.15615907D-17 -0.14640906D-17 -0.10425197D-17
  0.64712120D-03  0.60671726D-03  0.43201883D-03 -0.24099936D-03 -0.22595221D-03
 -0.16089144D-03  0.33882932D-17 -0.11472948D-02 -0.36789589D-02 -0.44590306D-18
  0.22446688D-02  0.74850230D-03  0.22434669D-18 -0.32991186D-04 -0.85273478D-04
 -0.43007049D-03 -0.12354117D-03  0.55361166D-03  0.41047341D-17  0.38640727D-18
 -0.12830620D-02  0.52071347D-03  0.81152621D-03 -0.13322397D-02 -0.57906565D-18
 -0.21326052D-17  0.31949451D-03  0.59360379D-04  0.78973976D-04 -0.13833435D-03
  0.69930534D-18 -0.58547321D-18  0.57418611D-03 -0.29626096D-18  0.31764413D-04
 -0.31824931D-03  0.21560709D-18  0.78400029D-03 -0.71237099D-04  0.67317580D-18
 -0.87929353D-03  0.10259850D-02 -0.26278482D-17  0.27229736D-19  0.37614916D-03
 -0.75895923D-04 -0.20516693D-18 -0.19749428D-03 -0.35709496D-03  0.12347772D-18
 -0.93095320D-03  0.58478273D-03 -0.15983658D-17 -0.98372184D-04 -0.18338812D-03
 -0.30995823D-03 -0.46596874D-03 -0.57249644D-03 -0.48356476D-03 -0.18238284D-03
  0.90262284D-06  0.77455185D-04  0.14502055D-03  0.24690989D-03  0.38193205D-03
  0.50299107D-03  0.52263994D-03  0.33211422D-03 -0.22257523D-03 -0.55775275D-03
 -0.17977429D-02  0.14803808D-02 -0.18632725D-17 -0.17469364D-17 -0.12439228D-17
 -0.73480164D-04 -0.68892324D-04 -0.49055439D-04  0.40622792D-03  0.38086449D-03
  0.27119821D-03  0.69333857D-18  0.13690383D-02 -0.28273400D-02  0.55855139D-18
  0.75899618D-03  0.10755347D-02  0.75772885D-19  0.45297828D-04 -0.63222790D-04
 -0.18194171D-03 -0.26911371D-03  0.45105542D-03 -0.13071075D-17  0.31092178D-18
 -0.18514961D-04 -0.10048990D-03  0.16904820D-03 -0.68558300D-04  0.24745869D-17
 -0.25799309D-17 -0.26511627D-02 -0.11146675D-03  0.30181742D-03 -0.19035067D-03
 -0.83630091D-18  0.59587792D-18 -0.18494613D-03 -0.11589312D-18 -0.83167772D-04
  0.14752797D-03 -0.41004883D-18  0.17108557D-04  0.21345928D-03  0.75772818D-18
  0.23239476D-03 -0.65604320D-03  0.15764207D-17  0.62102359D-19 -0.28845447D-03
  0.18359206D-03 -0.16874948D-18  0.13229254D-03 -0.15880135D-03 -0.17557602D-19
  0.73307086D-03 -0.39197483D-03 -0.38707126D-17 -0.98372184D-04 -0.18338812D-03
 -0.30995822D-03 -0.46596874D-03 -0.57249644D-03 -0.48356476D-03 -0.18238284D-03
  0.90262284D-06  0.77455185D-04  0.14502054D-03  0.24690989D-03  0.38193205D-03
  0.50299107D-03  0.52263994D-03  0.33211422D-03 -0.22257523D-03 -0.55775275D-03
 -0.17977430D-02  0.14803808D-02 -0.56767619D-18 -0.53223251D-18 -0.37898126D-18
  0.73480164D-04  0.68892324D-04  0.49055439D-04  0.40622792D-03  0.38086449D-03
  0.27119821D-03  0.22855216D-17 -0.13690383D-02 -0.28273400D-02 -0.14937317D-17
 -0.75899618D-03  0.10755347D-02 -0.25211507D-18 -0.45297828D-04 -0.63222789D-04
 -0.18194171D-03 -0.26911371D-03  0.45105542D-03 -0.21684342D-17  0.11492428D-17
  0.18514960D-04 -0.10048990D-03  0.16904820D-03 -0.68558300D-04  0.12534038D-17
 -0.29945200D-17  0.26511627D-02 -0.11146675D-03  0.30181742D-03 -0.19035067D-03
 -0.73960804D-18 -0.89998501D-18  0.18494613D-03 -0.30581447D-18  0.83167772D-04
  0.14752797D-03  0.20226598D-18 -0.17108556D-04  0.21345928D-03  0.71517743D-18
 -0.23239476D-03 -0.65604320D-03  0.16778258D-17  0.24626110D-18  0.28845447D-03
  0.18359206D-03 -0.21626039D-18 -0.13229254D-03 -0.15880135D-03 -0.52252291D-18
 -0.73307086D-03 -0.39197483D-03 -0.14546674D-17  0.29141063D+00  0.54300080D+00
  0.91835048D+00  0.13829849D+01  0.17122251D+01  0.14570263D+01  0.55442537D+00
 -0.25966105D-02 -0.12525249D-02 -0.23484958D-02 -0.39954901D-02 -0.62045743D-02
 -0.82338310D-02 -0.86773276D-02 -0.53804967D-02  0.35791085D-02  0.32896066D-01
  0.22269948D-02  0.93655219D-04  0.74106323D-17  0.71178237D-17  0.49915093D-17
 -0.32602319D-02 -0.31314138D-02 -0.21959635D-02  0.45109228D-02  0.43326875D-02
  0.30383795D-02 -0.27207803D-17 -0.14025269D-02  0.64653698D-03  0.18935936D-17
  0.98281956D-03 -0.73421331D-03  0.17312800D-18 -0.44212715D-04  0.19834823D-04
 -0.28832013D-02  0.33196298D-02 -0.43642853D-03 -0.28491753D-17  0.12583801D-17
  0.25646985D-02  0.11382126D-02 -0.11578181D-02  0.19605425D-04  0.17171917D-17
  0.14042264D-18 -0.93197536D-03  0.23794767D-03 -0.25687780D-03  0.18930134D-04
  0.35455788D-18  0.73566616D-18 -0.17865694D-03  0.14486053D-17  0.21415521D-03
  0.14487412D-03 -0.27109028D-17 -0.19485054D-03  0.14070228D-03 -0.16349130D-17
 -0.44761509D-03 -0.57532464D-03 -0.87103638D-18 -0.30688364D-18  0.44957384D-03
 -0.30016146D-04  0.14096480D-18 -0.46860513D-03  0.28215090D-03  0.77968613D-18
 -0.88011639D-03 -0.19210246D-03  0.54331207D-18  0.29141063D+00  0.54300080D+00
  0.91835048D+00  0.13829849D+01  0.17122251D+01  0.14570263D+01  0.55442537D+00
 -0.25966105D-02 -0.12525249D-02 -0.23484958D-02 -0.39954901D-02 -0.62045743D-02
 -0.82338310D-02 -0.86773276D-02 -0.53804967D-02  0.35791085D-02  0.32896066D-01
  0.22269949D-02  0.93655220D-04  0.94489677D-17  0.90756205D-17  0.63644515D-17
  0.32602319D-02  0.31314138D-02  0.21959635D-02  0.45109228D-02  0.43326875D-02
  0.30383795D-02 -0.20379594D-17  0.14025269D-02  0.64653698D-03 -0.21315832D-17
 -0.98281955D-03 -0.73421331D-03 -0.40356980D-18  0.44212715D-04  0.19834823D-04
 -0.28832013D-02  0.33196298D-02 -0.43642853D-03 -0.52143643D-18  0.38866070D-17
 -0.25646985D-02  0.11382126D-02 -0.11578181D-02  0.19605425D-04  0.21454677D-17
 -0.27866183D-17  0.93197536D-03  0.23794767D-03 -0.25687780D-03  0.18930133D-04
  0.25078567D-18 -0.93814188D-18  0.17865694D-03 -0.67138659D-18 -0.21415521D-03
  0.14487412D-03  0.10197420D-17  0.19485054D-03  0.14070228D-03  0.99441775D-18
  0.44761509D-03 -0.57532464D-03 -0.26528553D-18  0.24834556D-18 -0.44957384D-03
 -0.30016146D-04  0.57507320D-18  0.46860513D-03  0.28215090D-03 -0.13201099D-17
  0.88011639D-03 -0.19210247D-03  0.58903641D-18
MO    2     MO 0.0        OCC NO =    2.0000000  ORB. ENERGY =  -14.023826
  0.10372372D-03  0.18707000D-03  0.27583461D-03  0.15035319D-03 -0.15362320D-02
 -0.15826922D-04  0.24382930D-16 -0.28047144D-03  0.33365886D-03 -0.36410042D-16
  0.17156277D-02  0.26519667D-03  0.11148080D-16  0.42495823D-04  0.28372209D-03
  0.47220244D-03 -0.33919136D-03 -0.13301108D-03  0.36722663D-17  0.36616429D-16
 -0.11897938D-02  0.18616737D-03 -0.12816545D-03 -0.58001916D-04  0.83221097D-17
  0.35966121D-17 -0.12798974D-03 -0.10372372D-03 -0.18707000D-03 -0.27583461D-03
 -0.15035319D-03  0.15362320D-02  0.15826922D-04 -0.54869418D-18 -0.28047144D-03
 -0.33365886D-03  0.49938233D-18  0.17156277D-02 -0.26519667D-03 -0.21339110D-18
  0.42495823D-04 -0.28372209D-03 -0.47220244D-03  0.33919136D-03  0.13301108D-03
 -0.17218295D-17 -0.32380736D-18 -0.11897938D-02 -0.18616737D-03  0.12816545D-03
  0.58001916D-04  0.63925577D-18 -0.36947269D-19 -0.12798974D-03 -0.38079554D-04
 -0.68678043D-04 -0.10126573D-03  0.63184087D-02  0.67327509D-02 -0.51365769D-04
  0.12326630D-17 -0.17271409D-03 -0.26797130D-04  0.12311146D-17 -0.16746730D-02
 -0.37559165D-02 -0.95714410D-18 -0.51987817D-03 -0.57640114D-03 -0.44792947D-03
 -0.12295677D-03  0.57088624D-03 -0.71889939D-18 -0.93665570D-18  0.67649223D-03
 -0.13435930D-03 -0.74097823D-05  0.14176908D-03  0.26481417D-18 -0.16444117D-18
  0.15620788D-03  0.38079554D-04  0.68678043D-04  0.10126573D-03 -0.63184087D-02
 -0.67327509D-02  0.51365769D-04 -0.23565456D-18 -0.17271409D-03  0.26797130D-04
 -0.27011014D-19 -0.16746730D-02  0.37559165D-02  0.20087789D-17 -0.51987817D-03
  0.57640114D-03  0.44792947D-03  0.12295677D-03 -0.57088624D-03 -0.11378708D-17
  0.76642238D-18  0.67649223D-03  0.13435930D-03  0.74097823D-05 -0.14176908D-03
  0.79252698D-18 -0.31966991D-18  0.15620788D-03  0.32450264D-03  0.60494670D-03
  0.10224665D-02  0.15371021D-02  0.18885075D-02  0.15951465D-02  0.60163056D-03
 -0.29775032D-05 -0.24946107D-03 -0.46706984D-03 -0.79522637D-03 -0.12300943D-02
 -0.16199909D-02 -0.16832743D-02 -0.10696453D-02  0.71685137D-03  0.91159550D-03
  0.50473255D-02 -0.13661790D-02  0.15854899D-18  0.14864976D-18  0.10584748D-18
 -0.34495391D-03 -0.32341622D-03 -0.23029162D-03 -0.37380661D-03 -0.35046746D-03
 -0.24955371D-03 -0.31236441D-17  0.12386078D-02 -0.31549137D-02  0.30524006D-17
 -0.32890466D-02 -0.60983203D-04 -0.13149167D-19  0.45109781D-04 -0.82185467D-04
 -0.24830080D-03 -0.35088805D-03  0.59918885D-03 -0.95798537D-17  0.33119432D-17
  0.11312231D-02  0.25100815D-03  0.17186941D-02 -0.19697023D-02  0.33404619D-18
 -0.15138674D-17 -0.22505089D-02 -0.50047676D-04  0.42966459D-03 -0.37961692D-03
  0.15681016D-18 -0.97569955D-19 -0.61000688D-03  0.87756035D-18 -0.32337024D-03
  0.21129844D-03 -0.30592744D-17 -0.23280105D-03 -0.41341299D-03  0.42659334D-18
  0.12029118D-02 -0.22048234D-03  0.12415154D-17  0.21463699D-18 -0.60977869D-03
 -0.17515899D-03 -0.81740897D-18  0.23248201D-04 -0.20417465D-03  0.17349802D-18
  0.18060879D-02  0.72965160D-03  0.34964212D-18 -0.32450264D-03 -0.60494670D-03
 -0.10224665D-02 -0.15371021D-02 -0.18885075D-02 -0.15951465D-02 -0.60163056D-03
  0.29775032D-05  0.24946107D-03  0.46706984D-03  0.79522637D-03  0.12300943D-02
  0.16199909D-02  0.16832743D-02  0.10696453D-02 -0.71685137D-03 -0.91159550D-03
 -0.50473255D-02  0.13661790D-02 -0.11585690D-17 -0.10862320D-17 -0.77346192D-18
 -0.34495391D-03 -0.32341622D-03 -0.23029161D-03  0.37380661D-03  0.35046746D-03
  0.24955371D-03  0.12040161D-17  0.12386078D-02  0.31549137D-02 -0.52110543D-17
 -0.32890466D-02  0.60983203D-04 -0.12819435D-18  0.45109781D-04  0.82185467D-04
  0.24830080D-03  0.35088805D-03 -0.59918885D-03  0.26031174D-18 -0.15367373D-17
  0.11312231D-02 -0.25100814D-03 -0.17186941D-02  0.19697023D-02  0.74156581D-18
  0.64296145D-18 -0.22505089D-02  0.50047676D-04 -0.42966459D-03  0.37961692D-03
 -0.88805697D-18 -0.56391742D-19 -0.61000688D-03 -0.54556646D-18 -0.32337024D-03
 -0.21129844D-03  0.51030340D-18 -0.23280105D-03  0.41341299D-03  0.11263960D-17
  0.12029118D-02  0.22048234D-03 -0.26637157D-17  0.34042019D-18 -0.60977869D-03
  0.17515899D-03  0.24368702D-18  0.23248201D-04  0.20417465D-03 -0.12649476D-17
  0.18060879D-02 -0.72965160D-03  0.28833701D-18  0.59463065D-03  0.11085267D-02
  0.18736055D-02  0.28166427D-02  0.34605710D-02  0.29230055D-02  0.11024501D-02
 -0.54560871D-05 -0.44237476D-03 -0.82826513D-03 -0.14101923D-02 -0.21813530D-02
 -0.28727651D-02 -0.29849870D-02 -0.18968252D-02  0.12712082D-02  0.16435335D-02
 -0.70867571D-02  0.40099574D-03 -0.14292721D-18 -0.13400335D-18 -0.95418365D-19
 -0.37342933D-03 -0.35011373D-03 -0.24930184D-03 -0.86163970D-04 -0.80784199D-04
 -0.57523162D-04 -0.50291354D-18  0.13130052D-03 -0.27271164D-02 -0.13605378D-17
 -0.20918951D-03  0.21930414D-02 -0.73927872D-19  0.79439511D-04  0.64279698D-05
  0.70478809D-04 -0.49544858D-03  0.42496977D-03 -0.87468915D-18  0.10049178D-17
  0.34488165D-03  0.98649694D-03  0.40903085D-03 -0.13955278D-02  0.68946171D-18
 -0.14791848D-17 -0.69976282D-02  0.85340362D-04  0.37114286D-03 -0.45648322D-03
  0.23485565D-18  0.11835898D-17 -0.11239560D-02 -0.53747501D-18  0.28238828D-03
 -0.14475766D-04  0.84228794D-18 -0.43625034D-03 -0.82301551D-04  0.77013710D-18
 -0.41091451D-03  0.12572885D-03  0.15211557D-17  0.17990293D-18 -0.33981230D-03
 -0.60090407D-04 -0.37842148D-18  0.28254718D-03  0.91943683D-04 -0.16128731D-18
  0.73688971D-03  0.88327539D-04 -0.16841629D-17 -0.59463065D-03 -0.11085267D-02
 -0.18736055D-02 -0.28166427D-02 -0.34605710D-02 -0.29230055D-02 -0.11024501D-02
  0.54560871D-05  0.44237476D-03  0.82826513D-03  0.14101923D-02  0.21813530D-02
  0.28727651D-02  0.29849870D-02  0.18968252D-02 -0.12712082D-02 -0.16435335D-02
  0.70867571D-02 -0.40099574D-03 -0.57248073D-18 -0.53673708D-18 -0.38218877D-18
 -0.37342933D-03 -0.35011373D-03 -0.24930184D-03  0.86163970D-04  0.80784199D-04
  0.57523162D-04  0.57725590D-18  0.13130051D-03  0.27271164D-02  0.25040382D-17
 -0.20918951D-03 -0.21930414D-02  0.16219443D-18  0.79439511D-04 -0.64279698D-05
 -0.70478809D-04  0.49544858D-03 -0.42496977D-03 -0.16030898D-17 -0.10595238D-17
  0.34488165D-03 -0.98649694D-03 -0.40903085D-03  0.13955278D-02 -0.20400599D-18
 -0.62202101D-18 -0.69976282D-02 -0.85340362D-04 -0.37114286D-03  0.45648322D-03
  0.42686707D-18 -0.20105510D-17 -0.11239560D-02  0.29658636D-18  0.28238828D-03