 Molden2AIM, Version 4.0.0 (06/02/2016)           Time: Wed Jun 27 22:27:46 2018
GAUSSIAN              8 MOL ORBITALS    312 PRIMITIVES        8 NUCLEI
  B    1    (CENTRE  1)   1.66655703  0.00000000  0.00000000  CHARGE =  5.0
  B    2    (CENTRE  2)  -1.66655703  0.00000000  0.00000000  CHARGE =  5.0
  H    3    (CENTRE  3)   0.00000000  0.00000000  1.87025061  CHARGE =  1.0
  H    4    (CENTRE  4)   0.00000000  0.00000000 -1.87025061  CHARGE =  1.0
  H    5    (CENTRE  5)   2.76718833  1.98238507  0.00000000  CHARGE =  1.0
  H    6    (CENTRE  6)   2.76718833 -1.98238507  0.00000000  CHARGE =  1.0
  H    7    (CENTRE  7)  -2.76718833  1.98238507  0.00000000  CHARGE =  1.0
  H    8    (CENTRE  8)  -2.76718833 -1.98238507  0.00000000  CHARGE =  1.0
CENTRE ASSIGNMENTS    1  1  1  1  1  1  1  1  1  1  1  1  1  1  1  1  1  1  1  1
CENTRE ASSIGNMENTS    1  1  1  1  1  1  1  1  1  1  1  1  1  1  1  1  1  1  1  1
CENTRE ASSIGNMENTS    1  1  1  1  1  1  1  1  1  1  1  1  1  1  1  1  1  1  1  1
CENTRE ASSIGNMENTS    1  1  1  1  1  1  1  1  1  1  1  1  1  1  1  2  2  2  2  2
CENTRE ASSIGNMENTS    2  2  2  2  2  2  2  2  2  2  2  2  2  2  2  2  2  2  2  2
CENTRE ASSIGNMENTS    2  2  2  2  2  2  2  2  2  2  2  2  2  2  2  2  2  2  2  2
CENTRE ASSIGNMENTS    2  2  2  2  2  2  2  2  2  2  2  2  2  2  2  2  2  2  2  2
CENTRE ASSIGNMENTS    2  2  2  2  2  2  2  2  2  2  3  3  3  3  3  3  3  3  3  3
CENTRE ASSIGNMENTS    3  3  3  3  3  3  3  3  3  3  3  3  3  3  3  3  3  4  4  4
CENTRE ASSIGNMENTS    4  4  4  4  4  4  4  4  4  4  4  4  4  4  4  4  4  4  4  4
CENTRE ASSIGNMENTS    4  4  4  4  5  5  5  5  5  5  5  5  5  5  5  5  5  5  5  5
CENTRE ASSIGNMENTS    5  5  5  5  5  5  5  5  5  5  5  6  6  6  6  6  6  6  6  6
CENTRE ASSIGNMENTS    6  6  6  6  6  6  6  6  6  6  6  6  6  6  6  6  6  6  7  7
CENTRE ASSIGNMENTS    7  7  7  7  7  7  7  7  7  7  7  7  7  7  7  7  7  7  7  7
CENTRE ASSIGNMENTS    7  7  7  7  7  8  8  8  8  8  8  8  8  8  8  8  8  8  8  8
CENTRE ASSIGNMENTS    8  8  8  8  8  8  8  8  8  8  8  8
TYPE ASSIGNMENTS      1  1  1  1  1  1  1  1  1  1  1  1  1  1  1  1  1  1  1  2
TYPE ASSIGNMENTS      2  2  3  3  3  4  4  4  2  3  4  2  3  4  2  3  4  5  6  7
TYPE ASSIGNMENTS      8  9 10  5  6  7  8  9 10  5  6  7  8  9 10 11 12 13 17 14
TYPE ASSIGNMENTS     15 18 19 16 20 11 12 13 17 14 15 18 19 16 20  1  1  1  1  1
TYPE ASSIGNMENTS      1  1  1  1  1  1  1  1  1  1  1  1  1  1  2  2  2  3  3  3
TYPE ASSIGNMENTS      4  4  4  2  3  4  2  3  4  2  3  4  5  6  7  8  9 10  5  6
TYPE ASSIGNMENTS      7  8  9 10  5  6  7  8  9 10 11 12 13 17 14 15 18 19 16 20
TYPE ASSIGNMENTS     11 12 13 17 14 15 18 19 16 20  1  1  1  1  1  1  2  3  4  2
TYPE ASSIGNMENTS      3  4  2  3  4  5  6  7  8  9 10  5  6  7  8  9 10  1  1  1
TYPE ASSIGNMENTS      1  1  1  2  3  4  2  3  4  2  3  4  5  6  7  8  9 10  5  6
TYPE ASSIGNMENTS      7  8  9 10  1  1  1  1  1  1  2  3  4  2  3  4  2  3  4  5
TYPE ASSIGNMENTS      6  7  8  9 10  5  6  7  8  9 10  1  1  1  1  1  1  2  3  4
TYPE ASSIGNMENTS      2  3  4  2  3  4  5  6  7  8  9 10  5  6  7  8  9 10  1  1
TYPE ASSIGNMENTS      1  1  1  1  2  3  4  2  3  4  2  3  4  5  6  7  8  9 10  5
TYPE ASSIGNMENTS      6  7  8  9 10  1  1  1  1  1  1  2  3  4  2  3  4  2  3  4
TYPE ASSIGNMENTS      5  6  7  8  9 10  5  6  7  8  9 10
EXPONENTS  0.5473000D+04 0.8209000D+03 0.1868000D+03 0.5283000D+02 0.1708000D+02
EXPONENTS  0.5999000D+01 0.2208000D+01 0.2415000D+00 0.5473000D+04 0.8209000D+03
EXPONENTS  0.1868000D+03 0.5283000D+02 0.1708000D+02 0.5999000D+01 0.2208000D+01
EXPONENTS  0.2415000D+00 0.5879000D+00 0.8610000D-01 0.2914000D-01 0.1205000D+02
EXPONENTS  0.2613000D+01 0.7475000D+00 0.1205000D+02 0.2613000D+01 0.7475000D+00
EXPONENTS  0.1205000D+02 0.2613000D+01 0.7475000D+00 0.2385000D+00 0.2385000D+00
EXPONENTS  0.2385000D+00 0.7698000D-01 0.7698000D-01 0.7698000D-01 0.2096000D-01
EXPONENTS  0.2096000D-01 0.2096000D-01 0.6610000D+00 0.6610000D+00 0.6610000D+00
EXPONENTS  0.6610000D+00 0.6610000D+00 0.6610000D+00 0.1990000D+00 0.1990000D+00
EXPONENTS  0.1990000D+00 0.1990000D+00 0.1990000D+00 0.1990000D+00 0.6040000D-01
EXPONENTS  0.6040000D-01 0.6040000D-01 0.6040000D-01 0.6040000D-01 0.6040000D-01
EXPONENTS  0.4900000D+00 0.4900000D+00 0.4900000D+00 0.4900000D+00 0.4900000D+00
EXPONENTS  0.4900000D+00 0.4900000D+00 0.4900000D+00 0.4900000D+00 0.4900000D+00
EXPONENTS  0.1630000D+00 0.1630000D+00 0.1630000D+00 0.1630000D+00 0.1630000D+00
EXPONENTS  0.1630000D+00 0.1630000D+00 0.1630000D+00 0.1630000D+00 0.1630000D+00
EXPONENTS  0.5473000D+04 0.8209000D+03 0.1868000D+03 0.5283000D+02 0.1708000D+02
EXPONENTS  0.5999000D+01 0.2208000D+01 0.2415000D+00 0.5473000D+04 0.8209000D+03
EXPONENTS  0.1868000D+03 0.5283000D+02 0.1708000D+02 0.5999000D+01 0.2208000D+01
EXPONENTS  0.2415000D+00 0.5879000D+00 0.8610000D-01 0.2914000D-01 0.1205000D+02
EXPONENTS  0.2613000D+01 0.7475000D+00 0.1205000D+02 0.2613000D+01 0.7475000D+00
EXPONENTS  0.1205000D+02 0.2613000D+01 0.7475000D+00 0.2385000D+00 0.2385000D+00
EXPONENTS  0.2385000D+00 0.7698000D-01 0.7698000D-01 0.7698000D-01 0.2096000D-01
EXPONENTS  0.2096000D-01 0.2096000D-01 0.6610000D+00 0.6610000D+00 0.6610000D+00
EXPONENTS  0.6610000D+00 0.6610000D+00 0.6610000D+00 0.1990000D+00 0.1990000D+00
EXPONENTS  0.1990000D+00 0.1990000D+00 0.1990000D+00 0.1990000D+00 0.6040000D-01
EXPONENTS  0.6040000D-01 0.6040000D-01 0.6040000D-01 0.6040000D-01 0.6040000D-01
EXPONENTS  0.4900000D+00 0.4900000D+00 0.4900000D+00 0.4900000D+00 0.4900000D+00
EXPONENTS  0.4900000D+00 0.4900000D+00 0.4900000D+00 0.4900000D+00 0.4900000D+00
EXPONENTS  0.1630000D+00 0.1630000D+00 0.1630000D+00 0.1630000D+00 0.1630000D+00
EXPONENTS  0.1630000D+00 0.1630000D+00 0.1630000D+00 0.1630000D+00 0.1630000D+00
EXPONENTS  0.3387000D+02 0.5095000D+01 0.1159000D+01 0.3258000D+00 0.1027000D+00
EXPONENTS  0.2526000D-01 0.1407000D+01 0.1407000D+01 0.1407000D+01 0.3880000D+00
EXPONENTS  0.3880000D+00 0.3880000D+00 0.1020000D+00 0.1020000D+00 0.1020000D+00
EXPONENTS  0.1057000D+01 0.1057000D+01 0.1057000D+01 0.1057000D+01 0.1057000D+01
EXPONENTS  0.1057000D+01 0.2470000D+00 0.2470000D+00 0.2470000D+00 0.2470000D+00
EXPONENTS  0.2470000D+00 0.2470000D+00 0.3387000D+02 0.5095000D+01 0.1159000D+01
EXPONENTS  0.3258000D+00 0.1027000D+00 0.2526000D-01 0.1407000D+01 0.1407000D+01
EXPONENTS  0.1407000D+01 0.3880000D+00 0.3880000D+00 0.3880000D+00 0.1020000D+00
EXPONENTS  0.1020000D+00 0.1020000D+00 0.1057000D+01 0.1057000D+01 0.1057000D+01
EXPONENTS  0.1057000D+01 0.1057000D+01 0.1057000D+01 0.2470000D+00 0.2470000D+00
EXPONENTS  0.2470000D+00 0.2470000D+00 0.2470000D+00 0.2470000D+00 0.3387000D+02
EXPONENTS  0.5095000D+01 0.1159000D+01 0.3258000D+00 0.1027000D+00 0.2526000D-01
EXPONENTS  0.1407000D+01 0.1407000D+01 0.1407000D+01 0.3880000D+00 0.3880000D+00
EXPONENTS  0.3880000D+00 0.1020000D+00 0.1020000D+00 0.1020000D+00 0.1057000D+01
EXPONENTS  0.1057000D+01 0.1057000D+01 0.1057000D+01 0.1057000D+01 0.1057000D+01
EXPONENTS  0.2470000D+00 0.2470000D+00 0.2470000D+00 0.2470000D+00 0.2470000D+00
EXPONENTS  0.2470000D+00 0.3387000D+02 0.5095000D+01 0.1159000D+01 0.3258000D+00
EXPONENTS  0.1027000D+00 0.2526000D-01 0.1407000D+01 0.1407000D+01 0.1407000D+01
EXPONENTS  0.3880000D+00 0.3880000D+00 0.3880000D+00 0.1020000D+00 0.1020000D+00
EXPONENTS  0.1020000D+00 0.1057000D+01 0.1057000D+01 0.1057000D+01 0.1057000D+01
EXPONENTS  0.1057000D+01 0.1057000D+01 0.2470000D+00 0.2470000D+00 0.2470000D+00
EXPONENTS  0.2470000D+00 0.2470000D+00 0.2470000D+00 0.3387000D+02 0.5095000D+01
EXPONENTS  0.1159000D+01 0.3258000D+00 0.1027000D+00 0.2526000D-01 0.1407000D+01
EXPONENTS  0.1407000D+01 0.1407000D+01 0.3880000D+00 0.3880000D+00 0.3880000D+00
EXPONENTS  0.1020000D+00 0.1020000D+00 0.1020000D+00 0.1057000D+01 0.1057000D+01
EXPONENTS  0.1057000D+01 0.1057000D+01 0.1057000D+01 0.1057000D+01 0.2470000D+00
EXPONENTS  0.2470000D+00 0.2470000D+00 0.2470000D+00 0.2470000D+00 0.2470000D+00
EXPONENTS  0.3387000D+02 0.5095000D+01 0.1159000D+01 0.3258000D+00 0.1027000D+00
EXPONENTS  0.2526000D-01 0.1407000D+01 0.1407000D+01 0.1407000D+01 0.3880000D+00
EXPONENTS  0.3880000D+00 0.3880000D+00 0.1020000D+00 0.1020000D+00 0.1020000D+00
EXPONENTS  0.1057000D+01 0.1057000D+01 0.1057000D+01 0.1057000D+01 0.1057000D+01
EXPONENTS  0.1057000D+01 0.2470000D+00 0.2470000D+00 0.2470000D+00 0.2470000D+00
EXPONENTS  0.2470000D+00 0.2470000D+00
MO    1     MO 0.0        OCC NO =    2.0000000  ORB. ENERGY =   -7.619649
  0.17819728D+00  0.33205897D+00  0.55961120D+00  0.83493532D+00  0.10113397D+01
  0.84151001D+00  0.31254119D+00 -0.16592155D-02 -0.41159309D-03 -0.76880887D-03
 -0.13085166D-02 -0.20012317D-02 -0.26027206D-02 -0.26345432D-02 -0.17347131D-02
  0.11857721D-02  0.14215329D-01 -0.86344296D-02  0.12381537D-04 -0.21486954D-02
 -0.19365233D-02 -0.14060415D-02  0.38076497D-15  0.34316647D-15  0.24916111D-15
 -0.50359944D-14 -0.45387169D-14 -0.32954028D-14 -0.24683339D-03  0.74164600D-14
  0.29900337D-13  0.62392576D-03 -0.38876134D-13  0.23654974D-13  0.31262842D-05
  0.40500765D-14  0.10077765D-14  0.27392246D-03 -0.18499998D-03 -0.88922482D-04
  0.63706534D-14 -0.16783674D-13 -0.14051479D-16  0.78949062D-04 -0.49716586D-04
 -0.29232476D-04 -0.12414017D-13 -0.45904791D-14 -0.63553626D-16 -0.12684617D-04
  0.86963768D-05  0.39882402D-05  0.44719728D-14 -0.14030396D-14  0.30288774D-17
  0.46120333D-04 -0.96961316D-15 -0.74139899D-15  0.16890772D-03  0.21450155D-14
  0.44767623D-14 -0.30726872D-03  0.76382401D-15 -0.22525653D-14 -0.66279296D-16
  0.40166278D-05 -0.11954095D-14  0.40139572D-15 -0.10889341D-03  0.18840770D-14
 -0.13091129D-14  0.96843522D-04  0.17021515D-14  0.10492570D-15  0.18772943D-16
  0.17819728D+00  0.33205897D+00  0.55961120D+00  0.83493532D+00  0.10113397D+01
  0.84151001D+00  0.31254119D+00 -0.16592155D-02 -0.41159309D-03 -0.76880887D-03
 -0.13085166D-02 -0.20012317D-02 -0.26027206D-02 -0.26345432D-02 -0.17347131D-02
  0.11857721D-02  0.14215329D-01 -0.86344296D-02  0.12381538D-04  0.21486954D-02
  0.19365233D-02  0.14060415D-02 -0.24852581D-15 -0.22398522D-15 -0.16262779D-15
 -0.63333359D-14 -0.57079530D-14 -0.41443440D-14  0.24683339D-03  0.83964971D-14
  0.32121168D-13 -0.62392575D-03  0.46895943D-13  0.45446649D-14 -0.31262842D-05
 -0.42501756D-14  0.90109976D-15  0.27392246D-03 -0.18499998D-03 -0.88922482D-04
 -0.81040528D-15  0.18091674D-13 -0.21314630D-16  0.78949062D-04 -0.49716586D-04
 -0.29232476D-04 -0.14412380D-13  0.87016459D-14  0.10184653D-16 -0.12684617D-04
  0.86963768D-05  0.39882402D-05  0.44077905D-14  0.39964034D-15 -0.41466585D-17
 -0.46120333D-04  0.14021782D-14 -0.24668036D-15 -0.16890772D-03 -0.26326741D-14
  0.43068710D-14  0.30726872D-03 -0.15738604D-14 -0.35668299D-14  0.30412695D-16
 -0.40166278D-05  0.12231037D-14  0.15801265D-15  0.10889341D-03 -0.16567210D-14
  0.10051915D-17 -0.96843522D-04 -0.20125902D-14 -0.47504313D-15  0.25923614D-16
  0.13153446D-03  0.23722781D-03  0.34979227D-03  0.21790491D-03  0.59438012D-02
  0.15336107D-04 -0.34803928D-13  0.32195974D-17 -0.21081379D-03  0.92167395D-13
 -0.45820822D-15  0.61867782D-03  0.28490539D-12 -0.10995675D-14 -0.55534508D-03
 -0.30607846D-03  0.35527073D-03 -0.49192267D-04 -0.90382051D-15 -0.52966729D-13
  0.66696092D-16  0.91193535D-04  0.74683682D-04 -0.16587722D-03 -0.39997022D-14
 -0.72854441D-14  0.70224450D-15  0.13153446D-03  0.23722781D-03  0.34979227D-03
  0.21790491D-03  0.59438012D-02  0.15336107D-04 -0.34512769D-13 -0.57865803D-17
  0.21081379D-03  0.89188877D-13 -0.44556835D-15 -0.61867782D-03  0.30006985D-12
 -0.10778746D-14  0.55534508D-03 -0.30607846D-03  0.35527073D-03 -0.49192267D-04
 -0.92495804D-15  0.48802155D-13 -0.27516335D-16  0.91193535D-04  0.74683682D-04
 -0.16587722D-03 -0.40242059D-14  0.86164514D-14 -0.67897687D-15  0.32088803D-04
  0.57873478D-04  0.85334410D-04  0.60426480D-03  0.24512428D-02 -0.11118327D-04
 -0.17170670D-03 -0.18404194D-03 -0.16657158D-16  0.69118709D-04  0.50362298D-04
 -0.12450746D-14 -0.25800637D-03 -0.25233691D-03 -0.30707186D-14 -0.96972900D-04
  0.21602467D-03 -0.11905178D-03  0.46179480D-03  0.13771657D-15  0.16134902D-14
  0.13698217D-04 -0.52985911D-04  0.39287694D-04 -0.77625911D-04  0.11867903D-14
  0.69988755D-15  0.32088803D-04  0.57873478D-04  0.85334410D-04  0.60426480D-03
  0.24512428D-02 -0.11118327D-04 -0.17170670D-03  0.18404194D-03  0.67681849D-16
  0.69118709D-04 -0.50362298D-04 -0.13614107D-14 -0.25800637D-03  0.25233691D-03
 -0.30675472D-14 -0.96972900D-04  0.21602467D-03 -0.11905178D-03 -0.46179480D-03
  0.10198611D-15 -0.16958869D-14  0.13698217D-04 -0.52985911D-04  0.39287694D-04
  0.77625911D-04  0.12465170D-14 -0.72559806D-15  0.32088803D-04  0.57873478D-04
  0.85334410D-04  0.60426480D-03  0.24512428D-02 -0.11118327D-04  0.17170670D-03
 -0.18404194D-03 -0.80339238D-16 -0.69118709D-04  0.50362298D-04 -0.40018891D-15
  0.25800637D-03 -0.25233691D-03 -0.76042111D-15 -0.96972900D-04  0.21602467D-03
 -0.11905178D-03 -0.46179480D-03 -0.18265500D-15  0.96973190D-15  0.13698217D-04
 -0.52985911D-04  0.39287694D-04  0.77625911D-04 -0.73279376D-15  0.72355331D-15
  0.32088803D-04  0.57873478D-04  0.85334410D-04  0.60426480D-03  0.24512428D-02
 -0.11118327D-04  0.17170670D-03  0.18404194D-03 -0.31314454D-16 -0.69118709D-04
 -0.50362298D-04 -0.46426159D-15  0.25800637D-03  0.25233691D-03 -0.81602281D-15
 -0.96972900D-04  0.21602467D-03 -0.11905178D-03  0.46179480D-03 -0.17680190D-15
 -0.97162917D-15  0.13698217D-04 -0.52985911D-04  0.39287694D-04 -0.77625911D-04
 -0.73033544D-15 -0.76133329D-15
MO    2     MO 0.0        OCC NO =    2.0000000  ORB. ENERGY =   -7.619055
 -0.17820254D+00 -0.33206876D+00 -0.55962770D+00 -0.83495993D+00 -0.10113695D+01
 -0.84153482D+00 -0.31255041D+00  0.16592644D-02  0.37607800D-03  0.70247073D-03
  0.11956087D-02  0.18285516D-02  0.23781399D-02  0.24072166D-02  0.15850301D-02
 -0.10834555D-02 -0.13847687D-01 -0.72557345D-03  0.80338855D-04  0.18406769D-02
  0.16589199D-02  0.12044834D-02 -0.71472537D-15 -0.64415008D-15 -0.46769473D-15
 -0.19711559D-14 -0.17765148D-14 -0.12898650D-14 -0.11969429D-02 -0.39854022D-13
  0.12489846D-13  0.19138216D-03 -0.59700793D-13 -0.27967252D-14  0.41045126D-05
  0.12743806D-14  0.28653807D-15 -0.14065864D-03 -0.46106474D-04  0.18676511D-03
 -0.13376469D-13 -0.88741033D-14  0.13411089D-17  0.11373914D-03 -0.17689098D-03
  0.63151838D-04 -0.28589008D-13 -0.48940967D-14  0.10785734D-16 -0.46211818D-05
  0.18010391D-04 -0.13389209D-04  0.42919865D-14  0.10716986D-15 -0.69951547D-19
  0.11778799D-03 -0.28682090D-14 -0.36200457D-15 -0.82287150D-03  0.13356054D-14
  0.28089926D-14  0.46950753D-03  0.72690217D-14 -0.17229789D-14 -0.46953706D-17
 -0.19567843D-04 -0.18218904D-14 -0.49722068D-16  0.10238339D-03  0.26688879D-14
  0.42233129D-15 -0.43679865D-04  0.27967833D-14 -0.27316508D-15 -0.39976742D-17
  0.17820254D+00  0.33206876D+00  0.55962770D+00  0.83495993D+00  0.10113695D+01
  0.84153482D+00  0.31255041D+00 -0.16592644D-02 -0.37607800D-03 -0.70247073D-03
 -0.11956087D-02 -0.18285516D-02 -0.23781399D-02 -0.24072166D-02 -0.15850301D-02
  0.10834555D-02  0.13847687D-01  0.72557345D-03 -0.80338855D-04  0.18406769D-02
  0.16589199D-02  0.12044834D-02  0.36637919D-15  0.33020121D-15  0.23974749D-15
 -0.19456127D-14 -0.17534939D-14 -0.12731503D-14 -0.11969429D-02  0.75264338D-15
  0.14826668D-13  0.19138216D-03  0.50838590D-13  0.13869031D-13  0.41045126D-05
 -0.20412659D-14  0.39594025D-15  0.14065864D-03  0.46106474D-04 -0.18676511D-03
  0.17307434D-14  0.10321416D-13  0.18692712D-17 -0.11373914D-03  0.17689098D-03
 -0.63151838D-04 -0.20502941D-13  0.39193302D-14 -0.61256080D-17  0.46211818D-05
 -0.18010391D-04  0.13389209D-04  0.47205094D-14  0.83124820D-15  0.26213558D-18
  0.11778799D-03  0.88901887D-15 -0.66327020D-15 -0.82287150D-03 -0.50753217D-15
  0.36416174D-14  0.46950753D-03 -0.21595244D-14 -0.16518067D-14  0.39567363D-17
 -0.19567843D-04  0.13301279D-14  0.13901939D-15  0.10238339D-03 -0.19015893D-14
 -0.49517411D-15 -0.43679865D-04 -0.20887945D-14  0.78115956D-16 -0.16563011D-17
  0.10021698D-14  0.18074546D-14  0.26650907D-14  0.61652479D-13  0.27884391D-12
  0.13811238D-13  0.21334093D-03 -0.83971710D-16 -0.10376966D-13  0.33531053D-03
 -0.71663205D-15 -0.83045712D-14  0.22188816D-03  0.77097669D-16 -0.22322568D-13
  0.15071795D-14 -0.57010062D-14  0.41938267D-14 -0.76459489D-15 -0.78223131D-03
  0.11648740D-14  0.50891060D-14  0.30778628D-14 -0.81669688D-14 -0.47735543D-14
 -0.31682619D-03 -0.97676258D-15 -0.76596134D-15 -0.13814428D-14 -0.20369366D-14
  0.94982811D-13  0.33862836D-12  0.26095059D-13  0.21334093D-03 -0.91553193D-16
  0.26498273D-14  0.33531053D-03 -0.70184597D-15  0.35142575D-13  0.22188816D-03
  0.83090094D-16  0.27981459D-13  0.15217332D-14 -0.11999803D-13  0.10478070D-13
 -0.76406040D-15  0.78223131D-03 -0.11624839D-14  0.63463772D-14  0.14965650D-14
 -0.78429422D-14 -0.47626492D-14  0.31682619D-03  0.98270227D-15 -0.29038553D-04
 -0.52372227D-04 -0.77222818D-04  0.46388916D-03 -0.19184016D-03 -0.40101474D-04
 -0.21069597D-05 -0.18089174D-04 -0.59518925D-16 -0.17701289D-03 -0.51540187D-03
  0.21849108D-19 -0.14893395D-04 -0.75341956D-04  0.18883145D-15 -0.12656063D-03
 -0.44678386D-04  0.17123901D-03 -0.28066482D-03  0.18208883D-16  0.30352494D-15
 -0.41880343D-04  0.95279842D-04 -0.53399499D-04  0.16860244D-04  0.22571619D-15
  0.28053153D-15 -0.29038553D-04 -0.52372227D-04 -0.77222818D-04  0.46388916D-03
 -0.19184016D-03 -0.40101474D-04 -0.21069597D-05  0.18089174D-04 -0.64697923D-16
 -0.17701289D-03  0.51540187D-03  0.34331751D-17 -0.14893395D-04  0.75341956D-04
  0.18590420D-15 -0.12656063D-03 -0.44678386D-04  0.17123901D-03  0.28066482D-03
  0.18378787D-16 -0.30707691D-15 -0.41880343D-04  0.95279842D-04 -0.53399499D-04
 -0.16860244D-04  0.22024488D-15 -0.28219173D-15  0.29038553D-04  0.52372227D-04
  0.77222818D-04 -0.46388916D-03  0.19184016D-03  0.40101474D-04 -0.21069597D-05
  0.18089174D-04 -0.55063199D-16 -0.17701289D-03  0.51540187D-03 -0.37109515D-15
 -0.14893395D-04  0.75341956D-04 -0.15915484D-14  0.12656063D-03  0.44678386D-04
 -0.17123901D-03 -0.28066482D-03  0.12226311D-15  0.72954537D-15  0.41880343D-04
 -0.95279842D-04  0.53399499D-04  0.16860244D-04 -0.70546123D-15  0.19702282D-15
  0.29038553D-04  0.52372227D-04  0.77222818D-04 -0.46388916D-03  0.19184016D-03
  0.40101474D-04 -0.21069597D-05 -0.18089174D-04 -0.54273190D-16 -0.17701289D-03
 -0.51540187D-03 -0.37562654D-15 -0.14893395D-04 -0.75341956D-04 -0.15910066D-14
  0.12656063D-03  0.44678386D-04 -0.17123901D-03  0.28066482D-03  0.11930299D-15
 -0.73384240D-15  0.41880343D-04 -0.95279842D-04  0.53399499D-04 -0.16860244D-04
 -0.70692602D-15 -0.19726218D-15
MO    3     MO 0.0        OCC NO =    2.0000000  ORB. ENERGY =   -0.883381
 -0.32527917D-02 -0.60613644D-02 -0.10215075D-01 -0.15240809D-01 -0.18460874D-01
 -0.15360822D-01 -0.57050893D-02  0.30287119D-04 -0.26927190D-01 -0.50296914D-01
 -0.85605601D-01 -0.13092432D+00 -0.17027485D+00 -0.17235674D+00 -0.11348818D+00
  0.77575430D-01  0.20932345D-01 -0.20193371D-01 -0.31642362D-03 -0.74179967D-01
 -0.66855093D-01 -0.48541133D-01 -0.18177850D-14 -0.16382885D-14 -0.11895037D-14
 -0.58153935D-14 -0.52411546D-14 -0.38054181D-14 -0.14570988D-01 -0.14945585D-12
  0.83152945D-13  0.82120675D-03 -0.10828805D-11  0.10504780D-12 -0.37250136D-04
  0.80292114D-13  0.55793207D-14  0.80965814D-02 -0.52788222D-02 -0.28177591D-02
 -0.13032729D-13 -0.38828731D-13  0.16921397D-15  0.14812355D-02 -0.17831865D-02
  0.30195095D-03 -0.31794711D-12 -0.64246084D-14 -0.40376360D-15  0.60317997D-04
 -0.73153053D-04  0.12835056D-04  0.10689683D-12 -0.61896681D-14  0.24274525D-15
 -0.11909303D-02 -0.22786758D-13 -0.26191429D-14  0.93139129D-02  0.27140451D-13
  0.91541799D-14 -0.57411221D-02  0.41219822D-13 -0.12967512D-14 -0.65421585D-15
 -0.10689878D-03 -0.25435407D-13  0.52717430D-15  0.15181068D-03  0.38456171D-13
 -0.46042707D-14  0.16888566D-03  0.37850048D-13  0.30227479D-14  0.47158766D-15
 -0.32527917D-02 -0.60613644D-02 -0.10215075D-01 -0.15240809D-01 -0.18460874D-01
 -0.15360822D-01 -0.57050893D-02  0.30287119D-04 -0.26927190D-01 -0.50296914D-01
 -0.85605601D-01 -0.13092432D+00 -0.17027485D+00 -0.17235674D+00 -0.11348818D+00
  0.77575430D-01  0.20932345D-01 -0.20193371D-01 -0.31642362D-03  0.74179967D-01
  0.66855093D-01  0.48541133D-01 -0.48389844D-14 -0.43611606D-14 -0.31664854D-14
 -0.93803448D-14 -0.84540861D-14 -0.61382148D-14  0.14570988D-01  0.27645857D-12
  0.55044154D-13 -0.82120676D-03  0.11402206D-11 -0.22096504D-13  0.37250136D-04
 -0.83229832D-13  0.49446340D-14  0.80965814D-02 -0.52788222D-02 -0.28177591D-02
 -0.54832480D-13  0.31626789D-13 -0.18226394D-15  0.14812355D-02 -0.17831865D-02
  0.30195095D-03 -0.33671790D-12  0.20317649D-13 -0.11942302D-14  0.60317997D-04
 -0.73153053D-04  0.12835056D-04  0.10843304D-12 -0.21241291D-15 -0.32247245D-15
  0.11909303D-02  0.28141348D-13 -0.73928148D-15 -0.93139129D-02 -0.31633781D-13
  0.97008830D-14  0.57411221D-02 -0.52790262D-13 -0.74830385D-14  0.73904848D-15
  0.10689878D-03  0.27362179D-13  0.31363030D-15 -0.15181068D-03 -0.41292776D-13
  0.78632095D-15 -0.16888566D-03 -0.40793762D-13 -0.17272118D-14  0.70469687D-15
  0.25311454D-01  0.45650250D-01  0.67311268D-01  0.35384894D-01  0.17842008D-01
 -0.13857041D-03  0.10711667D-12 -0.13054384D-14 -0.17736072D-01 -0.48854120D-12
  0.30151256D-14 -0.23219812D-02 -0.18287829D-11 -0.66922918D-14 -0.14342301D-02
 -0.23651058D-03 -0.25619137D-02  0.27984243D-02 -0.85961990D-14  0.26926281D-12
 -0.10244682D-14 -0.76125090D-03  0.42257474D-03  0.33867617D-03 -0.74533848D-13
  0.63267069D-13  0.38853781D-14  0.25311454D-01  0.45650250D-01  0.67311268D-01
  0.35384894D-01  0.17842008D-01 -0.13857041D-03  0.97857909D-13 -0.14706718D-14
  0.17736072D-01 -0.47876788D-12  0.29992663D-14  0.23219812D-02 -0.17347287D-11
 -0.61282939D-14  0.14342301D-02 -0.23651058D-03 -0.25619137D-02  0.27984243D-02
 -0.87785216D-14 -0.27740619D-12  0.13954037D-14 -0.76125090D-03  0.42257474D-03
  0.33867617D-03 -0.74452086D-13 -0.44609949D-13 -0.34332240D-14  0.92832032D-02
  0.16742639D-01  0.24687012D-01  0.12779401D-01  0.10686422D-01  0.19052015D-03
 -0.50231954D-02 -0.54802592D-02  0.12258461D-14 -0.12452783D-02  0.19642237D-02
 -0.80708636D-14 -0.13154995D-02 -0.56862414D-03 -0.12941528D-13  0.14293121D-02
 -0.32070991D-03 -0.11086022D-02  0.34929122D-02  0.42915401D-14  0.53560369D-14
  0.37712448D-03 -0.52414233D-03  0.14701785D-03 -0.71935088D-03  0.18962228D-14
  0.15207027D-14  0.92832032D-02  0.16742639D-01  0.24687012D-01  0.12779401D-01
  0.10686422D-01  0.19052015D-03 -0.50231954D-02  0.54802592D-02  0.15452163D-14
 -0.12452783D-02 -0.19642237D-02 -0.85315268D-14 -0.13154994D-02  0.56862414D-03
 -0.11868323D-13  0.14293121D-02 -0.32070991D-03 -0.11086022D-02 -0.34929122D-02
  0.37588521D-14 -0.58700893D-14  0.37712448D-03 -0.52414233D-03  0.14701785D-03
  0.71935088D-03  0.27267091D-14 -0.15353077D-14  0.92832032D-02  0.16742639D-01
  0.24687012D-01  0.12779401D-01  0.10686422D-01  0.19052015D-03  0.50231954D-02
 -0.54802592D-02 -0.33198263D-14  0.12452783D-02  0.19642237D-02  0.50129660D-14
  0.13154995D-02 -0.56862414D-03  0.82175461D-14  0.14293121D-02 -0.32070991D-03
 -0.11086022D-02 -0.34929122D-02 -0.20331557D-14  0.27725184D-14  0.37712448D-03
 -0.52414233D-03  0.14701785D-03  0.71935088D-03  0.22093614D-14 -0.21551069D-14
  0.92832032D-02  0.16742639D-01  0.24687012D-01  0.12779401D-01  0.10686422D-01
  0.19052015D-03  0.50231954D-02  0.54802592D-02 -0.18841200D-14  0.12452783D-02
 -0.19642237D-02  0.20951136D-14  0.13154995D-02  0.56862414D-03  0.49979442D-14
  0.14293121D-02 -0.32070991D-03 -0.11086022D-02  0.34929122D-02 -0.18078002D-14
 -0.24408166D-14  0.37712448D-03 -0.52414233D-03  0.14701785D-03 -0.71935088D-03
  0.16279875D-14  0.32326770D-15
MO    4     MO 0.0        OCC NO =    2.0000000  ORB. ENERGY =   -0.635191
  0.14989807D-02  0.27932523D-02  0.47074027D-02  0.70234063D-02  0.85073055D-02
  0.70787120D-02  0.26290705D-02 -0.13957182D-04  0.25770664D-01  0.48136657D-01
  0.81928832D-01  0.12530111D+00  0.16296152D+00  0.16495400D+00  0.10861385D+00
 -0.74243557D-01 -0.22524084D-01 -0.46906077D-02 -0.29216731D-05 -0.91163174D-01
 -0.82161300D-01 -0.59654432D-01  0.24729947D-15  0.22287997D-15  0.16182531D-15
 -0.20642008D-13 -0.18603721D-13 -0.13507508D-13 -0.18590829D-01 -0.17030631D-12
  0.14111271D-12  0.24452209D-03 -0.13195189D-12  0.19274996D-12 -0.19878512D-05
 -0.76352203D-13  0.10110579D-13  0.44072412D-02 -0.12621992D-01  0.82147513D-02
 -0.53028640D-13 -0.62424204D-13 -0.25952589D-15  0.39533075D-03 -0.23210505D-02
  0.19257197D-02 -0.25705279D-12 -0.24438044D-13  0.14660457D-14  0.20498768D-04
 -0.56549127D-04  0.36050359D-04 -0.17918194D-13 -0.12501786D-13  0.12857786D-15
  0.15425699D-02 -0.11159271D-13 -0.31825127D-14 -0.62456068D-02 -0.11750933D-13
  0.20732856D-13  0.16178971D-02  0.45228746D-13 -0.11185318D-13 -0.22229078D-15
  0.15572955D-03 -0.99334416D-14  0.23123322D-14 -0.27197355D-03  0.12379557D-13
 -0.85984722D-14 -0.19521511D-03  0.17420768D-13  0.16614755D-14 -0.20503892D-15
 -0.14989807D-02 -0.27932523D-02 -0.47074027D-02 -0.70234063D-02 -0.85073055D-02
 -0.70787120D-02 -0.26290705D-02  0.13957182D-04 -0.25770664D-01 -0.48136657D-01
 -0.81928832D-01 -0.12530111D+00 -0.16296152D+00 -0.16495400D+00 -0.10861385D+00
  0.74243557D-01  0.22524084D-01  0.46906077D-02  0.29216739D-05 -0.91163174D-01
 -0.82161300D-01 -0.59654432D-01  0.77809142D-14  0.70125907D-14  0.50915956D-14
 -0.27291246D-13 -0.24596382D-13 -0.17858568D-13 -0.18590829D-01  0.20607041D-13
  0.13681957D-12  0.24452209D-03  0.12734880D-12 -0.11304985D-13 -0.19878512D-05
  0.59549390D-13  0.84007966D-14 -0.44072412D-02  0.12621992D-01 -0.82147513D-02
 -0.16679067D-14  0.61548796D-13  0.93695540D-16 -0.39533075D-03  0.23210505D-02
 -0.19257197D-02 -0.18974484D-12  0.47539049D-13 -0.62241583D-16 -0.20498768D-04
  0.56549127D-04 -0.36050359D-04 -0.87863540D-14  0.54774737D-15  0.37949682D-16
  0.15425699D-02  0.37760381D-14 -0.31722259D-15 -0.62456068D-02  0.70495941D-14
  0.17689489D-13  0.16178971D-02 -0.18377708D-13 -0.16737822D-13  0.30394626D-15
  0.15572955D-03  0.82749803D-14  0.31392265D-15 -0.27197355D-03 -0.13685068D-13
  0.19369399D-14 -0.19521511D-03 -0.11139873D-13 -0.28787079D-14  0.98641637D-16
 -0.15954821D-13 -0.28775177D-13 -0.42428982D-13  0.44359371D-12  0.10724280D-10
 -0.34348235D-12 -0.76948255D-02  0.38821561D-14 -0.25233295D-13 -0.36614066D-02
 -0.14300684D-13 -0.94846376D-13 -0.21798352D-04 -0.26275982D-13 -0.11997417D-11
 -0.19021378D-13 -0.31176621D-13  0.50197999D-13 -0.12111963D-13  0.57983098D-02
  0.28404517D-14  0.84949378D-13  0.13370288D-13 -0.98319666D-13 -0.33139625D-13
 -0.13240706D-02  0.27523076D-14 -0.22871222D-13 -0.41249190D-13 -0.60821906D-13
  0.61647128D-12  0.11682104D-10 -0.27976796D-13 -0.76948255D-02  0.30209487D-14
 -0.35026406D-13 -0.36614066D-02 -0.12568341D-13  0.30793379D-12 -0.21798352D-04
 -0.24272174D-13  0.12974463D-11 -0.22071187D-13 -0.61632142D-13  0.83703329D-13
 -0.12176273D-13 -0.57983098D-02 -0.32700734D-14  0.11381361D-12 -0.14345119D-13
 -0.99468487D-13 -0.32364142D-13  0.13240706D-02 -0.15834898D-14 -0.22208124D-01
 -0.40053266D-01 -0.59058518D-01 -0.34612221D-01 -0.12191726D-01 -0.78298959D-04
  0.42582487D-02  0.11366969D-01 -0.18122114D-15  0.18654600D-03  0.22531905D-02
 -0.34683834D-14  0.34756785D-03  0.12772268D-02 -0.21313719D-13  0.10105098D-02
 -0.20246671D-02  0.10141573D-02 -0.85070684D-03  0.30758923D-16  0.58958542D-14
 -0.17929818D-04 -0.27447639D-04  0.45377456D-04 -0.16603541D-04  0.55868083D-14
  0.14482929D-14 -0.22208124D-01 -0.40053266D-01 -0.59058518D-01 -0.34612221D-01
 -0.12191726D-01 -0.78298960D-04  0.42582487D-02 -0.11366969D-01 -0.63075575D-15
  0.18654600D-03 -0.22531905D-02 -0.24459655D-14  0.34756785D-03 -0.12772268D-02
 -0.20812837D-13  0.10105098D-02 -0.20246671D-02  0.10141573D-02  0.85070684D-03
 -0.18259962D-15 -0.60486849D-14 -0.17929818D-04 -0.27447639D-04  0.45377456D-04
  0.16603541D-04  0.51812187D-14 -0.10799072D-14  0.22208124D-01  0.40053266D-01
  0.59058518D-01  0.34612221D-01  0.12191726D-01  0.78298959D-04  0.42582487D-02
 -0.11366969D-01 -0.16840322D-14  0.18654600D-03 -0.22531905D-02  0.28904609D-14
  0.34756785D-03 -0.12772268D-02  0.18068990D-14 -0.10105098D-02  0.20246671D-02
 -0.10141573D-02 -0.85070685D-03 -0.81972651D-15  0.23493123D-14  0.17929818D-04
  0.27447638D-04 -0.45377456D-04 -0.16603541D-04 -0.10432820D-14  0.13888673D-14
  0.22208124D-01  0.40053266D-01  0.59058518D-01  0.34612221D-01  0.12191726D-01
  0.78298959D-04  0.42582487D-02  0.11366969D-01 -0.14888976D-14  0.18654600D-03
  0.22531905D-02  0.23967917D-14  0.34756785D-03  0.12772268D-02  0.15091276D-14
 -0.10105098D-02  0.20246671D-02 -0.10141573D-02  0.85070685D-03 -0.58521661D-15
 -0.26376178D-14  0.17929818D-04  0.27447638D-04 -0.45377456D-04  0.16603541D-04
 -0.11791031D-14 -0.14356067D-14
MO    5     MO 0.0        OCC NO =    2.0000000  ORB. ENERGY =   -0.558092
  0.62885296D-13  0.11718263D-12  0.19748514D-12  0.29464621D-12  0.35689881D-12
  0.29696640D-12  0.11029487D-12 -0.58553225D-15 -0.51363052D-13 -0.95940313D-13
 -0.16329090D-12 -0.24973541D-12 -0.32479571D-12 -0.32876689D-12 -0.21647632D-12
  0.14797351D-12  0.79965425D-12 -0.36944062D-10  0.50706968D-13 -0.14727563D-12
 -0.13273295D-12 -0.96372727D-13  0.43064572D-14  0.38812177D-14  0.28180157D-14
 -0.16885044D+00 -0.15217737D+00 -0.11049064D+00  0.52453741D-12 -0.44994648D-13
 -0.37936939D-01  0.25277520D-11  0.41300622D-13 -0.18285906D-02 -0.25752051D-14
 -0.18916651D-13 -0.61875218D-04 -0.31696633D-13 -0.40661863D-13  0.72358497D-13
 -0.14687890D-13  0.44165188D-01 -0.88798808D-15  0.11213415D-12 -0.11525401D-12
  0.31198645D-14 -0.31287394D-13  0.71712231D-02 -0.14542473D-13 -0.38923407D-13
  0.27109676D-13  0.11813730D-13 -0.10958554D-13  0.51923170D-04 -0.21159017D-14
  0.54194178D-13 -0.23489303D-14  0.16851268D-03 -0.32632588D-12 -0.27188605D-14