 Molden2AIM, Version 4.0.0 (06/02/2016)           Time: Wed Jun 27 22:19:10 2018
GAUSSIAN             37 MOL ORBITALS    603 PRIMITIVES        3 NUCLEI
  Be   1    (CENTRE  1)   0.00000000 -0.00003213 -0.51713678  CHARGE =  4.0
  Br   2    (CENTRE  2)   0.00000000  3.68563869 -0.50499718  CHARGE = 35.0
  Br   3    (CENTRE  3)   0.00000000 -3.68560656 -0.52952016  CHARGE = 35.0
CENTRE ASSIGNMENTS    1  1  1  1  1  1  1  1  1  1  1  1  1  1  1  1  1  1  1  1
CENTRE ASSIGNMENTS    1  1  1  1  1  1  1  1  1  1  1  1  1  1  1  1  1  1  1  1
CENTRE ASSIGNMENTS    1  1  1  1  1  1  1  1  1  1  1  1  1  1  1  1  1  1  1  1
CENTRE ASSIGNMENTS    1  1  1  1  1  1  1  1  1  1  1  1  1  1  1  1  1  2  2  2
CENTRE ASSIGNMENTS    2  2  2  2  2  2  2  2  2  2  2  2  2  2  2  2  2  2  2  2
CENTRE ASSIGNMENTS    2  2  2  2  2  2  2  2  2  2  2  2  2  2  2  2  2  2  2  2
CENTRE ASSIGNMENTS    2  2  2  2  2  2  2  2  2  2  2  2  2  2  2  2  2  2  2  2
CENTRE ASSIGNMENTS    2  2  2  2  2  2  2  2  2  2  2  2  2  2  2  2  2  2  2  2
CENTRE ASSIGNMENTS    2  2  2  2  2  2  2  2  2  2  2  2  2  2  2  2  2  2  2  2
CENTRE ASSIGNMENTS    2  2  2  2  2  2  2  2  2  2  2  2  2  2  2  2  2  2  2  2
CENTRE ASSIGNMENTS    2  2  2  2  2  2  2  2  2  2  2  2  2  2  2  2  2  2  2  2
CENTRE ASSIGNMENTS    2  2  2  2  2  2  2  2  2  2  2  2  2  2  2  2  2  2  2  2
CENTRE ASSIGNMENTS    2  2  2  2  2  2  2  2  2  2  2  2  2  2  2  2  2  2  2  2
CENTRE ASSIGNMENTS    2  2  2  2  2  2  2  2  2  2  2  2  2  2  2  2  2  2  2  2
CENTRE ASSIGNMENTS    2  2  2  2  2  2  2  2  2  2  2  2  2  2  2  2  2  2  2  2
CENTRE ASSIGNMENTS    2  2  2  2  2  2  2  2  2  2  2  2  2  2  2  2  2  2  2  2
CENTRE ASSIGNMENTS    2  2  2  2  2  2  2  2  2  2  2  2  2  2  2  2  2  2  2  2
CENTRE ASSIGNMENTS    3  3  3  3  3  3  3  3  3  3  3  3  3  3  3  3  3  3  3  3
CENTRE ASSIGNMENTS    3  3  3  3  3  3  3  3  3  3  3  3  3  3  3  3  3  3  3  3
CENTRE ASSIGNMENTS    3  3  3  3  3  3  3  3  3  3  3  3  3  3  3  3  3  3  3  3
CENTRE ASSIGNMENTS    3  3  3  3  3  3  3  3  3  3  3  3  3  3  3  3  3  3  3  3
CENTRE ASSIGNMENTS    3  3  3  3  3  3  3  3  3  3  3  3  3  3  3  3  3  3  3  3
CENTRE ASSIGNMENTS    3  3  3  3  3  3  3  3  3  3  3  3  3  3  3  3  3  3  3  3
CENTRE ASSIGNMENTS    3  3  3  3  3  3  3  3  3  3  3  3  3  3  3  3  3  3  3  3
CENTRE ASSIGNMENTS    3  3  3  3  3  3  3  3  3  3  3  3  3  3  3  3  3  3  3  3
CENTRE ASSIGNMENTS    3  3  3  3  3  3  3  3  3  3  3  3  3  3  3  3  3  3  3  3
CENTRE ASSIGNMENTS    3  3  3  3  3  3  3  3  3  3  3  3  3  3  3  3  3  3  3  3
CENTRE ASSIGNMENTS    3  3  3  3  3  3  3  3  3  3  3  3  3  3  3  3  3  3  3  3
CENTRE ASSIGNMENTS    3  3  3  3  3  3  3  3  3  3  3  3  3  3  3  3  3  3  3  3
CENTRE ASSIGNMENTS    3  3  3  3  3  3  3  3  3  3  3  3  3  3  3  3  3  3  3  3
CENTRE ASSIGNMENTS    3  3  3
TYPE ASSIGNMENTS      1  1  1  1  1  1  1  1  1  1  1  1  1  1  1  1  1  1  1  1
TYPE ASSIGNMENTS      1  2  2  2  3  3  3  4  4  4  2  3  4  2  3  4  2  3  4  5
TYPE ASSIGNMENTS      6  7  8  9 10  5  6  7  8  9 10  5  6  7  8  9 10 11 12 13
TYPE ASSIGNMENTS     17 14 15 18 19 16 20 11 12 13 17 14 15 18 19 16 20  1  1  1
TYPE ASSIGNMENTS      1  1  1  1  1  1  1  1  1  1  1  1  1  1  1  1  1  1  1  1
TYPE ASSIGNMENTS      1  1  1  1  1  1  1  1  1  1  1  1  1  1  1  1  1  1  1  1
TYPE ASSIGNMENTS      1  1  1  1  1  1  1  1  1  1  1  1  1  1  1  1  1  1  1  1
TYPE ASSIGNMENTS      1  1  1  1  1  1  1  1  1  1  1  1  2  2  2  2  2  2  2  2
TYPE ASSIGNMENTS      2  2  2  3  3  3  3  3  3  3  3  3  3  3  4  4  4  4  4  4
TYPE ASSIGNMENTS      4  4  4  4  4  2  2  2  2  2  2  2  2  2  2  2  3  3  3  3
TYPE ASSIGNMENTS      3  3  3  3  3  3  3  4  4  4  4  4  4  4  4  4  4  4  2  2
TYPE ASSIGNMENTS      2  2  2  2  2  2  2  2  2  3  3  3  3  3  3  3  3  3  3  3
TYPE ASSIGNMENTS      4  4  4  4  4  4  4  4  4  4  4  2  3  4  2  3  4  2  3  4
TYPE ASSIGNMENTS      5  5  5  5  5  5  5  6  6  6  6  6  6  6  7  7  7  7  7  7
TYPE ASSIGNMENTS      7  8  8  8  8  8  8  8  9  9  9  9  9  9  9 10 10 10 10 10
TYPE ASSIGNMENTS     10 10  5  6  7  8  9 10  5  6  7  8  9 10  5  6  7  8  9 10
TYPE ASSIGNMENTS     11 12 13 17 14 15 18 19 16 20 11 12 13 17 14 15 18 19 16 20
TYPE ASSIGNMENTS      1  1  1  1  1  1  1  1  1  1  1  1  1  1  1  1  1  1  1  1
TYPE ASSIGNMENTS      1  1  1  1  1  1  1  1  1  1  1  1  1  1  1  1  1  1  1  1
TYPE ASSIGNMENTS      1  1  1  1  1  1  1  1  1  1  1  1  1  1  1  1  1  1  1  1
TYPE ASSIGNMENTS      1  1  1  1  1  1  1  1  1  1  1  1  1  1  1  2  2  2  2  2
TYPE ASSIGNMENTS      2  2  2  2  2  2  3  3  3  3  3  3  3  3  3  3  3  4  4  4
TYPE ASSIGNMENTS      4  4  4  4  4  4  4  4  2  2  2  2  2  2  2  2  2  2  2  3
TYPE ASSIGNMENTS      3  3  3  3  3  3  3  3  3  3  4  4  4  4  4  4  4  4  4  4
TYPE ASSIGNMENTS      4  2  2  2  2  2  2  2  2  2  2  2  3  3  3  3  3  3  3  3
TYPE ASSIGNMENTS      3  3  3  4  4  4  4  4  4  4  4  4  4  4  2  3  4  2  3  4
TYPE ASSIGNMENTS      2  3  4  5  5  5  5  5  5  5  6  6  6  6  6  6  6  7  7  7
TYPE ASSIGNMENTS      7  7  7  7  8  8  8  8  8  8  8  9  9  9  9  9  9  9 10 10
TYPE ASSIGNMENTS     10 10 10 10 10  5  6  7  8  9 10  5  6  7  8  9 10  5  6  7
TYPE ASSIGNMENTS      8  9 10 11 12 13 17 14 15 18 19 16 20 11 12 13 17 14 15 18
TYPE ASSIGNMENTS     19 16 20
EXPONENTS  0.6863000D+04 0.1030000D+04 0.2347000D+03 0.6656000D+02 0.2169000D+02
EXPONENTS  0.7734000D+01 0.2916000D+01 0.1130000D+01 0.1101000D+00 0.6863000D+04
EXPONENTS  0.1030000D+04 0.2347000D+03 0.6656000D+02 0.2169000D+02 0.7734000D+01
EXPONENTS  0.2916000D+01 0.1130000D+01 0.1101000D+00 0.2577000D+00 0.4409000D-01
EXPONENTS  0.1503000D-01 0.7436000D+01 0.1577000D+01 0.4352000D+00 0.7436000D+01
EXPONENTS  0.1577000D+01 0.4352000D+00 0.7436000D+01 0.1577000D+01 0.4352000D+00
EXPONENTS  0.1438000D+00 0.1438000D+00 0.1438000D+00 0.4994000D-01 0.4994000D-01
EXPONENTS  0.4994000D-01 0.7060000D-02 0.7060000D-02 0.7060000D-02 0.3480000D+00
EXPONENTS  0.3480000D+00 0.3480000D+00 0.3480000D+00 0.3480000D+00 0.3480000D+00
EXPONENTS  0.1803000D+00 0.1803000D+00 0.1803000D+00 0.1803000D+00 0.1803000D+00
EXPONENTS  0.1803000D+00 0.6540000D-01 0.6540000D-01 0.6540000D-01 0.6540000D-01
EXPONENTS  0.6540000D-01 0.6540000D-01 0.3250000D+00 0.3250000D+00 0.3250000D+00
EXPONENTS  0.3250000D+00 0.3250000D+00 0.3250000D+00 0.3250000D+00 0.3250000D+00
EXPONENTS  0.3250000D+00 0.3250000D+00 0.1533000D+00 0.1533000D+00 0.1533000D+00
EXPONENTS  0.1533000D+00 0.1533000D+00 0.1533000D+00 0.1533000D+00 0.1533000D+00
EXPONENTS  0.1533000D+00 0.1533000D+00 0.1063900D+08 0.1593400D+07 0.3626100D+06
EXPONENTS  0.1027000D+06 0.3350100D+05 0.1209300D+05 0.4715900D+04 0.1955600D+04
EXPONENTS  0.8526100D+03 0.3876700D+03 0.1826800D+03 0.8824500D+02 0.3926300D+02
EXPONENTS  0.1923400D+02 0.9405700D+01 0.4160100D+01 0.1899500D+01 0.3011400D+00
EXPONENTS  0.1063900D+08 0.1593400D+07 0.3626100D+06 0.1027000D+06 0.3350100D+05
EXPONENTS  0.1209300D+05 0.4715900D+04 0.1955600D+04 0.8526100D+03 0.3876700D+03
EXPONENTS  0.1826800D+03 0.8824500D+02 0.3926300D+02 0.1923400D+02 0.9405700D+01
EXPONENTS  0.4160100D+01 0.1899500D+01 0.3011400D+00 0.1063900D+08 0.1593400D+07
EXPONENTS  0.3626100D+06 0.1027000D+06 0.3350100D+05 0.1209300D+05 0.4715900D+04
EXPONENTS  0.1955600D+04 0.8526100D+03 0.3876700D+03 0.1826800D+03 0.8824500D+02
EXPONENTS  0.3926300D+02 0.1923400D+02 0.9405700D+01 0.4160100D+01 0.1899500D+01
EXPONENTS  0.3011400D+00 0.1063900D+08 0.1593400D+07 0.3626100D+06 0.1027000D+06
EXPONENTS  0.3350100D+05 0.1209300D+05 0.4715900D+04 0.1955600D+04 0.8526100D+03
EXPONENTS  0.3876700D+03 0.1826800D+03 0.8824500D+02 0.3926300D+02 0.1923400D+02
EXPONENTS  0.9405700D+01 0.4160100D+01 0.1899500D+01 0.3011400D+00 0.6047200D+00
EXPONENTS  0.1251500D+00 0.4559300D-01 0.8676500D+04 0.2055900D+04 0.6662300D+03
EXPONENTS  0.2531000D+03 0.1061200D+03 0.4724200D+02 0.2182500D+02 0.9968400D+01
EXPONENTS  0.4517100D+01 0.1998200D+01 0.2814500D+00 0.8676500D+04 0.2055900D+04
EXPONENTS  0.6662300D+03 0.2531000D+03 0.1061200D+03 0.4724200D+02 0.2182500D+02
EXPONENTS  0.9968400D+01 0.4517100D+01 0.1998200D+01 0.2814500D+00 0.8676500D+04
EXPONENTS  0.2055900D+04 0.6662300D+03 0.2531000D+03 0.1061200D+03 0.4724200D+02
EXPONENTS  0.2182500D+02 0.9968400D+01 0.4517100D+01 0.1998200D+01 0.2814500D+00
EXPONENTS  0.8676500D+04 0.2055900D+04 0.6662300D+03 0.2531000D+03 0.1061200D+03
EXPONENTS  0.4724200D+02 0.2182500D+02 0.9968400D+01 0.4517100D+01 0.1998200D+01
EXPONENTS  0.2814500D+00 0.8676500D+04 0.2055900D+04 0.6662300D+03 0.2531000D+03
EXPONENTS  0.1061200D+03 0.4724200D+02 0.2182500D+02 0.9968400D+01 0.4517100D+01
EXPONENTS  0.1998200D+01 0.2814500D+00 0.8676500D+04 0.2055900D+04 0.6662300D+03
EXPONENTS  0.2531000D+03 0.1061200D+03 0.4724200D+02 0.2182500D+02 0.9968400D+01
EXPONENTS  0.4517100D+01 0.1998200D+01 0.2814500D+00 0.8676500D+04 0.2055900D+04
EXPONENTS  0.6662300D+03 0.2531000D+03 0.1061200D+03 0.4724200D+02 0.2182500D+02
EXPONENTS  0.9968400D+01 0.4517100D+01 0.1998200D+01 0.2814500D+00 0.8676500D+04
EXPONENTS  0.2055900D+04 0.6662300D+03 0.2531000D+03 0.1061200D+03 0.4724200D+02
EXPONENTS  0.2182500D+02 0.9968400D+01 0.4517100D+01 0.1998200D+01 0.2814500D+00
EXPONENTS  0.8676500D+04 0.2055900D+04 0.6662300D+03 0.2531000D+03 0.1061200D+03
EXPONENTS  0.4724200D+02 0.2182500D+02 0.9968400D+01 0.4517100D+01 0.1998200D+01
EXPONENTS  0.2814500D+00 0.7098800D+00 0.7098800D+00 0.7098800D+00 0.1020400D+00
EXPONENTS  0.1020400D+00 0.1020400D+00 0.3514200D-01 0.3514200D-01 0.3514200D-01
EXPONENTS  0.4038300D+03 0.1211700D+03 0.4634500D+02 0.1972100D+02 0.8862400D+01
EXPONENTS  0.3996200D+01 0.1763600D+01 0.4038300D+03 0.1211700D+03 0.4634500D+02
EXPONENTS  0.1972100D+02 0.8862400D+01 0.3996200D+01 0.1763600D+01 0.4038300D+03
EXPONENTS  0.1211700D+03 0.4634500D+02 0.1972100D+02 0.8862400D+01 0.3996200D+01
EXPONENTS  0.1763600D+01 0.4038300D+03 0.1211700D+03 0.4634500D+02 0.1972100D+02
EXPONENTS  0.8862400D+01 0.3996200D+01 0.1763600D+01 0.4038300D+03 0.1211700D+03
EXPONENTS  0.4634500D+02 0.1972100D+02 0.8862400D+01 0.3996200D+01 0.1763600D+01
EXPONENTS  0.4038300D+03 0.1211700D+03 0.4634500D+02 0.1972100D+02 0.8862400D+01
EXPONENTS  0.3996200D+01 0.1763600D+01 0.7061900D+00 0.7061900D+00 0.7061900D+00
EXPONENTS  0.7061900D+00 0.7061900D+00 0.7061900D+00 0.2639000D+00 0.2639000D+00
EXPONENTS  0.2639000D+00 0.2639000D+00 0.2639000D+00 0.2639000D+00 0.1047000D+00
EXPONENTS  0.1047000D+00 0.1047000D+00 0.1047000D+00 0.1047000D+00 0.1047000D+00
EXPONENTS  0.5515000D+00 0.5515000D+00 0.5515000D+00 0.5515000D+00 0.5515000D+00
EXPONENTS  0.5515000D+00 0.5515000D+00 0.5515000D+00 0.5515000D+00 0.5515000D+00
EXPONENTS  0.2580000D+00 0.2580000D+00 0.2580000D+00 0.2580000D+00 0.2580000D+00
EXPONENTS  0.2580000D+00 0.2580000D+00 0.2580000D+00 0.2580000D+00 0.2580000D+00
EXPONENTS  0.1063900D+08 0.1593400D+07 0.3626100D+06 0.1027000D+06 0.3350100D+05
EXPONENTS  0.1209300D+05 0.4715900D+04 0.1955600D+04 0.8526100D+03 0.3876700D+03
EXPONENTS  0.1826800D+03 0.8824500D+02 0.3926300D+02 0.1923400D+02 0.9405700D+01
EXPONENTS  0.4160100D+01 0.1899500D+01 0.3011400D+00 0.1063900D+08 0.1593400D+07
EXPONENTS  0.3626100D+06 0.1027000D+06 0.3350100D+05 0.1209300D+05 0.4715900D+04
EXPONENTS  0.1955600D+04 0.8526100D+03 0.3876700D+03 0.1826800D+03 0.8824500D+02
EXPONENTS  0.3926300D+02 0.1923400D+02 0.9405700D+01 0.4160100D+01 0.1899500D+01
EXPONENTS  0.3011400D+00 0.1063900D+08 0.1593400D+07 0.3626100D+06 0.1027000D+06
EXPONENTS  0.3350100D+05 0.1209300D+05 0.4715900D+04 0.1955600D+04 0.8526100D+03
EXPONENTS  0.3876700D+03 0.1826800D+03 0.8824500D+02 0.3926300D+02 0.1923400D+02
EXPONENTS  0.9405700D+01 0.4160100D+01 0.1899500D+01 0.3011400D+00 0.1063900D+08
EXPONENTS  0.1593400D+07 0.3626100D+06 0.1027000D+06 0.3350100D+05 0.1209300D+05
EXPONENTS  0.4715900D+04 0.1955600D+04 0.8526100D+03 0.3876700D+03 0.1826800D+03
EXPONENTS  0.8824500D+02 0.3926300D+02 0.1923400D+02 0.9405700D+01 0.4160100D+01
EXPONENTS  0.1899500D+01 0.3011400D+00 0.6047200D+00 0.1251500D+00 0.4559300D-01
EXPONENTS  0.8676500D+04 0.2055900D+04 0.6662300D+03 0.2531000D+03 0.1061200D+03
EXPONENTS  0.4724200D+02 0.2182500D+02 0.9968400D+01 0.4517100D+01 0.1998200D+01
EXPONENTS  0.2814500D+00 0.8676500D+04 0.2055900D+04 0.6662300D+03 0.2531000D+03
EXPONENTS  0.1061200D+03 0.4724200D+02 0.2182500D+02 0.9968400D+01 0.4517100D+01
EXPONENTS  0.1998200D+01 0.2814500D+00 0.8676500D+04 0.2055900D+04 0.6662300D+03
EXPONENTS  0.2531000D+03 0.1061200D+03 0.4724200D+02 0.2182500D+02 0.9968400D+01
EXPONENTS  0.4517100D+01 0.1998200D+01 0.2814500D+00 0.8676500D+04 0.2055900D+04
EXPONENTS  0.6662300D+03 0.2531000D+03 0.1061200D+03 0.4724200D+02 0.2182500D+02
EXPONENTS  0.9968400D+01 0.4517100D+01 0.1998200D+01 0.2814500D+00 0.8676500D+04
EXPONENTS  0.2055900D+04 0.6662300D+03 0.2531000D+03 0.1061200D+03 0.4724200D+02
EXPONENTS  0.2182500D+02 0.9968400D+01 0.4517100D+01 0.1998200D+01 0.2814500D+00
EXPONENTS  0.8676500D+04 0.2055900D+04 0.6662300D+03 0.2531000D+03 0.1061200D+03
EXPONENTS  0.4724200D+02 0.2182500D+02 0.9968400D+01 0.4517100D+01 0.1998200D+01
EXPONENTS  0.2814500D+00 0.8676500D+04 0.2055900D+04 0.6662300D+03 0.2531000D+03
EXPONENTS  0.1061200D+03 0.4724200D+02 0.2182500D+02 0.9968400D+01 0.4517100D+01
EXPONENTS  0.1998200D+01 0.2814500D+00 0.8676500D+04 0.2055900D+04 0.6662300D+03
EXPONENTS  0.2531000D+03 0.1061200D+03 0.4724200D+02 0.2182500D+02 0.9968400D+01
EXPONENTS  0.4517100D+01 0.1998200D+01 0.2814500D+00 0.8676500D+04 0.2055900D+04
EXPONENTS  0.6662300D+03 0.2531000D+03 0.1061200D+03 0.4724200D+02 0.2182500D+02
EXPONENTS  0.9968400D+01 0.4517100D+01 0.1998200D+01 0.2814500D+00 0.7098800D+00
EXPONENTS  0.7098800D+00 0.7098800D+00 0.1020400D+00 0.1020400D+00 0.1020400D+00
EXPONENTS  0.3514200D-01 0.3514200D-01 0.3514200D-01 0.4038300D+03 0.1211700D+03
EXPONENTS  0.4634500D+02 0.1972100D+02 0.8862400D+01 0.3996200D+01 0.1763600D+01
EXPONENTS  0.4038300D+03 0.1211700D+03 0.4634500D+02 0.1972100D+02 0.8862400D+01
EXPONENTS  0.3996200D+01 0.1763600D+01 0.4038300D+03 0.1211700D+03 0.4634500D+02
EXPONENTS  0.1972100D+02 0.8862400D+01 0.3996200D+01 0.1763600D+01 0.4038300D+03
EXPONENTS  0.1211700D+03 0.4634500D+02 0.1972100D+02 0.8862400D+01 0.3996200D+01
EXPONENTS  0.1763600D+01 0.4038300D+03 0.1211700D+03 0.4634500D+02 0.1972100D+02
EXPONENTS  0.8862400D+01 0.3996200D+01 0.1763600D+01 0.4038300D+03 0.1211700D+03
EXPONENTS  0.4634500D+02 0.1972100D+02 0.8862400D+01 0.3996200D+01 0.1763600D+01
EXPONENTS  0.7061900D+00 0.7061900D+00 0.7061900D+00 0.7061900D+00 0.7061900D+00
EXPONENTS  0.7061900D+00 0.2639000D+00 0.2639000D+00 0.2639000D+00 0.2639000D+00
EXPONENTS  0.2639000D+00 0.2639000D+00 0.1047000D+00 0.1047000D+00 0.1047000D+00
EXPONENTS  0.1047000D+00 0.1047000D+00 0.1047000D+00 0.5515000D+00 0.5515000D+00
EXPONENTS  0.5515000D+00 0.5515000D+00 0.5515000D+00 0.5515000D+00 0.5515000D+00
EXPONENTS  0.5515000D+00 0.5515000D+00 0.5515000D+00 0.2580000D+00 0.2580000D+00
EXPONENTS  0.2580000D+00 0.2580000D+00 0.2580000D+00 0.2580000D+00 0.2580000D+00
EXPONENTS  0.2580000D+00 0.2580000D+00 0.2580000D+00
MO    1     MO 0.0        OCC NO =    2.0000000  ORB. ENERGY = -490.027745
 -0.23629788D-07 -0.44085016D-07 -0.75261149D-07 -0.11745302D-06 -0.16010745D-06
 -0.17376566D-06 -0.12664602D-06 -0.38753099D-07  0.18464426D-09  0.19627894D-07
  0.36651512D-07  0.63016501D-07  0.98917160D-07  0.14070675D-06  0.16322360D-06
  0.15474913D-06  0.90172394D-07 -0.66814058D-07 -0.93863896D-07  0.17071242D-05
 -0.17448961D-07 -0.22406006D-16 -0.18878620D-16 -0.14909930D-16  0.11845944D-06
  0.99810328D-07  0.78828059D-07  0.38069909D-09  0.32076550D-09  0.25333372D-09
  0.56379403D-19 -0.10642848D-05 -0.35164394D-08 -0.70485363D-21 -0.18779326D-06
 -0.62880753D-09 -0.13264178D-21  0.26582447D-09  0.92474752D-12  0.23853435D-07
 -0.47706044D-07  0.23852609D-07  0.42262919D-19  0.27362989D-21 -0.48623491D-09
  0.31287188D-08 -0.62574439D-08  0.31287252D-08 -0.57609796D-19 -0.20941239D-21
 -0.29124108D-10 -0.49344432D-07  0.98687198D-07 -0.49342765D-07 -0.87820704D-20
 -0.14237545D-22  0.99356896D-09  0.11466923D-19 -0.92097451D-07  0.45876300D-09
 -0.26987818D-19  0.13814998D-06  0.45877143D-09 -0.74129518D-20  0.13814237D-06
 -0.18350604D-08 -0.21501324D-21 -0.14928195D-20  0.23748436D-07 -0.12000351D-09
  0.47103022D-20 -0.35623664D-07 -0.12000578D-09 -0.23184376D-21 -0.35621643D-07
  0.48001632D-09  0.14243310D-21 -0.20592965D-03 -0.38737875D-03 -0.67057171D-03
 -0.10991953D-02 -0.17219108D-02 -0.25881786D-02 -0.36991573D-02 -0.49107233D-02
 -0.57192042D-02 -0.52530338D-02 -0.30716554D-02 -0.80601775D-03 -0.44064676D-04
  0.15771607D-05 -0.44076663D-06  0.13087849D-06 -0.22312516D-07 -0.18203944D-08
 -0.94962252D-08 -0.17447508D-07 -0.30170762D-07 -0.49408840D-07 -0.77791999D-07
 -0.11747354D-06 -0.17147549D-06 -0.23613217D-06 -0.30171370D-06 -0.32890328D-06
 -0.27073805D-06 -0.74234534D-07  0.14973587D-06  0.14592414D-06  0.31932314D-07
  0.10757702D-08  0.36443659D-10 -0.92707967D-13  0.10585347D-07  0.20751520D-07
  0.36345774D-07  0.59377167D-07  0.93652095D-07  0.14131683D-06  0.20719855D-06
  0.28607187D-06  0.37089360D-06  0.41245551D-06  0.35824300D-06  0.10406318D-06
 -0.26234203D-06 -0.38225082D-06 -0.65805845D-07  0.16053809D-06  0.76412081D-07
 -0.36901728D-09 -0.38191434D-08 -0.82751615D-08 -0.14087150D-07 -0.22994023D-07
 -0.36247821D-07 -0.54708430D-07 -0.80211475D-07 -0.11088667D-06 -0.14391977D-06
 -0.16078355D-06 -0.14044807D-06 -0.41600856D-07  0.10813833D-06  0.16635330D-06
  0.29116908D-07 -0.91847676D-07 -0.77964787D-07  0.29087965D-07 -0.16318827D-06
 -0.15548789D-06 -0.19456549D-06 -0.15949061D-18 -0.22884079D-18 -0.30299737D-18
 -0.34987612D-18 -0.32435126D-18 -0.20999092D-18 -0.74119082D-19 -0.86873955D-20
 -0.12629865D-21 -0.18495032D-22 -0.19015765D-24 -0.24225399D-05 -0.34759158D-05
 -0.46022973D-05 -0.53143494D-05 -0.49266464D-05 -0.31896007D-05 -0.11258119D-05
 -0.13195486D-06 -0.19183795D-08 -0.28092532D-09 -0.28883486D-11 -0.79024029D-08
 -0.11338549D-07 -0.15012842D-07 -0.17335579D-07 -0.16070879D-07 -0.10404580D-07
 -0.36724346D-08 -0.43044100D-09 -0.62578155D-11 -0.91638742D-12 -0.94218858D-14
  0.14675936D-17  0.21184882D-17  0.28302496D-17  0.33624234D-17  0.32584460D-17
  0.22650356D-17  0.73702086D-18 -0.33171787D-18 -0.35836598D-18 -0.92260223D-19
  0.89991329D-22  0.10104134D-04  0.14585434D-04  0.19485791D-04  0.23149717D-04
  0.22433851D-04  0.15594388D-04  0.50742642D-05 -0.22838216D-05 -0.24672893D-05
 -0.63519606D-06  0.61957511D-09  0.32982087D-07  0.47610021D-07  0.63605850D-07
  0.75565702D-07  0.73228957D-07  0.50903466D-07  0.16563500D-07 -0.74548893D-08
 -0.80537676D-08 -0.20734178D-08  0.20224276D-11 -0.16784359D-17 -0.24388418D-17
 -0.32424684D-17 -0.38907377D-17 -0.37643059D-17 -0.26722189D-17 -0.83053235D-18
  0.47683928D-18  0.54778248D-18  0.14546845D-18 -0.52485471D-19 -0.74895317D-05
 -0.10882622D-04 -0.14468572D-04 -0.17361285D-04 -0.16797120D-04 -0.11923999D-04
 -0.37060089D-05  0.21277565D-05  0.24443199D-05  0.64911064D-06 -0.23420114D-06
 -0.24471300D-07 -0.35557885D-07 -0.47274620D-07 -0.56726272D-07 -0.54882919D-07
 -0.38960482D-07 -0.12109016D-07  0.69522330D-08  0.79865724D-08  0.21209045D-08
 -0.76522895D-09  0.51864639D-19  0.13330823D-06  0.42984584D-09  0.18065793D-19
 -0.28276284D-06 -0.98022705D-09  0.31806080D-20  0.10220938D-07  0.31228509D-10
  0.41262321D-06  0.43176573D-06  0.36788751D-06  0.24228174D-06  0.11166044D-06
  0.33436899D-07  0.56890050D-08 -0.82523402D-06 -0.86351848D-06 -0.73576396D-06
 -0.48455619D-06 -0.22331752D-06 -0.66872794D-07 -0.11377839D-07  0.41261081D-06
  0.43175275D-06  0.36787645D-06  0.24227446D-06  0.11165708D-06  0.33435894D-07
  0.56888340D-08  0.78587944D-18  0.82233816D-18  0.70067613D-18  0.46144820D-18
  0.21266774D-18  0.63683698D-19  0.10835241D-19  0.50201305D-20  0.52530256D-20
  0.44758590D-20  0.29476915D-20  0.13585033D-20  0.40680600D-21  0.69214592D-22
 -0.78455075D-08 -0.82094783D-08 -0.69949149D-08 -0.46066803D-08 -0.21230818D-08
 -0.63576028D-09 -0.10816922D-09 -0.13593183D-07  0.27185989D-07 -0.13592806D-07
  0.10084229D-19  0.62943332D-24  0.24910792D-09 -0.53857299D-07  0.10771279D-06
 -0.53855495D-07 -0.17547944D-20  0.10197787D-22  0.10797100D-08 -0.30162183D-07
  0.60323343D-07 -0.30161160D-07 -0.70036432D-20 -0.57121341D-22  0.60895527D-09
  0.14024328D-20 -0.11234143D-07  0.51403874D-10 -0.28687815D-20  0.16851605D-07
  0.51404663D-10 -0.13385170D-20  0.16850823D-07 -0.20561628D-09 -0.29789609D-21
 -0.12316011D-20 -0.21441924D-07  0.10779793D-09  0.53927834D-20  0.32163788D-07
  0.10779994D-09 -0.16979801D-20  0.32161983D-07 -0.43119374D-09  0.13220769D-21
  0.78331753D+00  0.14735157D+01  0.25507283D+01  0.41811317D+01  0.65498238D+01
  0.98449430D+01  0.14070897D+02  0.18679465D+02  0.21754774D+02  0.19981549D+02
  0.11683998D+02  0.30659395D+01  0.16761372D+00 -0.59992216D-02  0.16765931D-02
 -0.49783707D-03  0.84872602D-04  0.69244369D-05 -0.77420946D-06 -0.14224627D-05
 -0.24597658D-05 -0.40282103D-05 -0.63422360D-05 -0.95773978D-05 -0.13980076D-04
 -0.19251414D-04 -0.24598153D-04 -0.26814869D-04 -0.22072766D-04 -0.60522026D-05
  0.12207685D-04  0.11896922D-04  0.26033818D-05  0.87705535D-07  0.29711833D-08
 -0.75583070D-11  0.68562653D-06  0.13441026D-05  0.23541624D-05  0.38459354D-05
  0.60659665D-05  0.91532725D-05  0.13420516D-04  0.18529243D-04  0.24023255D-04
  0.26715273D-04  0.23203859D-04  0.67403061D-05 -0.16992230D-04 -0.24758876D-04
 -0.42623291D-05  0.10398258D-04  0.49493087D-05 -0.23901723D-07 -0.34945327D-06
 -0.75718085D-06 -0.12889803D-05 -0.21039630D-05 -0.33166912D-05 -0.50058450D-05
 -0.73393846D-05 -0.10146178D-04 -0.13168721D-04 -0.14711765D-04 -0.12851059D-04
 -0.38064963D-05  0.98947038D-05  0.15221399D-04  0.26642096D-05 -0.84041020D-05
 -0.71338116D-05  0.26615613D-05 -0.18750274D-04 -0.37033324D-05 -0.92270859D-06
  0.93935714D-17  0.13478112D-16  0.17845737D-16  0.20606770D-16  0.19103423D-16
  0.12367905D-16  0.43654161D-17  0.51166441D-18  0.74386535D-20  0.10893080D-20
  0.11199778D-22  0.13261677D-03  0.19028159D-03  0.25194294D-03  0.29092271D-03
  0.26969873D-03  0.17460788D-03  0.61630169D-04  0.72235872D-05  0.10501759D-06
  0.15378657D-07  0.15811647D-09  0.44782310D-06  0.64254685D-06  0.85076619D-06
  0.98239391D-06  0.91072435D-06  0.58961954D-06  0.20811405D-06  0.24392761D-07
  0.35462559D-09  0.51930971D-10  0.53393103D-12 -0.20112137D-18 -0.29032101D-18
 -0.38786193D-18 -0.46079187D-18 -0.44654264D-18 -0.31040410D-18 -0.10100252D-18
  0.45459147D-19  0.49111046D-19  0.12643488D-19 -0.12332555D-22  0.38201014D-04
  0.55143603D-04  0.73670536D-04  0.87522857D-04  0.84816357D-04  0.58958187D-04
  0.19184429D-04 -0.86345153D-05 -0.93281573D-05 -0.24015055D-05  0.23424469D-08
  0.12883064D-06  0.18596852D-06  0.24844949D-06  0.29516562D-06  0.28603811D-06
  0.19883297D-06  0.64698342D-07 -0.29119388D-07 -0.31458655D-07 -0.80989343D-08
  0.78997626D-11  0.17376311D-17  0.25248551D-17  0.33568241D-17  0.40279566D-17
  0.38970658D-17  0.27664630D-17  0.85982365D-18 -0.49365650D-18 -0.56710173D-18
 -0.15059885D-18  0.54336534D-19 -0.66557340D-05 -0.96710767D-05 -0.12857809D-04
 -0.15428480D-04 -0.14927123D-04 -0.10596519D-04 -0.32934248D-05  0.18908768D-05
  0.21721976D-05  0.57684618D-06 -0.20812790D-06 -0.22431138D-07 -0.32593438D-07
 -0.43333354D-07 -0.51997025D-07 -0.50307351D-07 -0.35712362D-07 -0.11099492D-07
  0.63726280D-08  0.73207349D-08  0.19440855D-08 -0.70143211D-09 -0.10068438D-18
  0.85668852D-06  0.28896752D-08 -0.62957615D-19 -0.66457608D-06 -0.22382703D-08
  0.11918883D-20 -0.55461756D-07 -0.18705032D-09 -0.69566364D-05 -0.72793704D-05
 -0.62024132D-05 -0.40847580D-05 -0.18825433D-05 -0.56373065D-06 -0.95913991D-07
  0.13913033D-04  0.14558490D-04  0.12404613D-04  0.81693753D-05  0.37650218D-05
  0.11274419D-05  0.19182468D-06 -0.69563967D-05 -0.72791196D-05 -0.62021995D-05
 -0.40846173D-05 -0.18824785D-05 -0.56371123D-06 -0.95910687D-07  0.51332987D-17
  0.53714439D-17  0.45767577D-17  0.30141410D-17  0.13891278D-17  0.41597658D-18
  0.70774888D-19  0.11094639D-17  0.11609344D-17  0.98917824D-18  0.65144865D-18
  0.30023329D-18  0.89905344D-19  0.15296632D-19  0.14145475D-06  0.14801716D-06
  0.12611854D-06  0.83058594D-07  0.38279233D-07  0.11462778D-07  0.19502945D-08
  0.22439656D-08 -0.44878136D-08  0.22438480D-08 -0.87670302D-19 -0.13481193D-19
 -0.57959520D-10  0.68406612D-07 -0.13681090D-06  0.68404286D-07 -0.29035722D-20
  0.11757903D-20 -0.13816767D-08  0.20996892D-07 -0.41993066D-07  0.20996174D-07
 -0.23376325D-19 -0.16644911D-21 -0.42539282D-09 -0.17245530D-19  0.68878975D-08
 -0.33256373D-10  0.57575970D-19 -0.10332113D-07 -0.33256945D-10 -0.58393791D-20
 -0.10331579D-07  0.13302606D-09  0.19971100D-20  0.69292859D-20 -0.15844341D-07
  0.80447515D-10 -0.25139043D-19  0.23767192D-07  0.80449052D-10  0.43511855D-20
  0.23765830D-07 -0.32179160D-09 -0.17268676D-21
MO    2     MO 0.0        OCC NO =    2.0000000  ORB. ENERGY = -490.027740
 -0.23663825D-07 -0.44148518D-07 -0.75369558D-07 -0.11762220D-06 -0.16033807D-06
 -0.17401596D-06 -0.12682844D-06 -0.38808920D-07  0.18491022D-09  0.19653829D-07
  0.36699942D-07  0.63099767D-07  0.99047864D-07  0.14089267D-06  0.16343928D-06
  0.15495361D-06  0.90291543D-07 -0.66902343D-07 -0.93996534D-07  0.17081017D-05
 -0.17458648D-07 -0.36270445D-16 -0.30560376D-16 -0.24135930D-16 -0.11828940D-06
 -0.99667055D-07 -0.78714905D-07 -0.40693384D-09 -0.34287010D-09 -0.27079146D-09
  0.18136560D-16  0.10634663D-05  0.35622702D-08  0.17348384D-20  0.18764014D-06
  0.62019831D-09  0.13512023D-21 -0.26566493D-09 -0.84340988D-12  0.23880182D-07
 -0.47759604D-07  0.23879423D-07 -0.21813429D-19  0.82107034D-22 -0.46657051D-09
  0.31173316D-08 -0.62344482D-08  0.31171166D-08  0.43653120D-19  0.95419770D-22
 -0.95535143D-10 -0.49373508D-07  0.98745405D-07 -0.49371897D-07  0.86436044D-20
  0.46390286D-22  0.97692909D-09 -0.12725050D-19  0.92015469D-07 -0.46001878D-09
  0.32016268D-19 -0.13802704D-06 -0.46002730D-09  0.61588833D-20 -0.13801937D-06
  0.18400837D-08  0.17491860D-21  0.50207521D-21 -0.23740435D-07  0.11698016D-09
 -0.73319330D-21  0.35611614D-07  0.11698227D-09 -0.77303235D-21  0.35609693D-07
 -0.46792276D-09 -0.10791319D-21  0.78331753D+00  0.14735157D+01  0.25507283D+01
  0.41811317D+01  0.65498238D+01  0.98449430D+01  0.14070897D+02  0.18679465D+02
  0.21754774D+02  0.19981549D+02  0.11683998D+02  0.30659395D+01  0.16761372D+00
 -0.59992216D-02  0.16765931D-02 -0.49783707D-03  0.84872602D-04  0.69244369D-05
 -0.77422667D-06 -0.14224943D-05 -0.24598205D-05 -0.40282998D-05 -0.63423770D-05
 -0.95776108D-05 -0.13980387D-04 -0.19251842D-04 -0.24598700D-04 -0.26815465D-04
 -0.22073257D-04 -0.60523371D-05  0.12207957D-04  0.11897187D-04  0.26034396D-05
  0.87707485D-07  0.29712493D-08 -0.75584750D-11  0.68569260D-06  0.13442322D-05
  0.23543893D-05  0.38463060D-05  0.60665510D-05  0.91541546D-05  0.13421809D-04
  0.18531028D-04  0.24025570D-04  0.26717848D-04  0.23206095D-04  0.67409557D-05
 -0.16993867D-04 -0.24761262D-04 -0.42627398D-05  0.10399260D-04  0.49497856D-05
 -0.23904026D-07 -0.34947847D-06 -0.75723546D-06 -0.12890733D-05 -0.21041147D-05
 -0.33169304D-05 -0.50062060D-05 -0.73399139D-05 -0.10146910D-04 -0.13169671D-04
 -0.14712826D-04 -0.12851986D-04 -0.38067708D-05  0.98954174D-05  0.15222497D-04
  0.26644018D-05 -0.84047081D-05 -0.71343261D-05  0.26617533D-05 -0.18750517D-04
 -0.37032683D-05 -0.92272822D-06  0.21802500D-16  0.31282728D-16  0.41419995D-16
  0.47828359D-16  0.44339089D-16  0.28705934D-16  0.10132141D-16  0.11875743D-17
  0.17265132D-19  0.25282863D-20  0.25994710D-22 -0.13262964D-03 -0.19030005D-03
 -0.25196738D-03 -0.29095093D-03 -0.26972490D-03 -0.17462482D-03 -0.61636147D-04
 -0.72242879D-05 -0.10502778D-06 -0.15380149D-07 -0.15813181D-09 -0.43460970D-06
 -0.62358797D-06 -0.82566362D-06 -0.95340755D-06 -0.88385266D-06 -0.57222232D-06
 -0.20197347D-06 -0.23673032D-07 -0.34416207D-09 -0.50398704D-10 -0.51817694D-12
  0.12478375D-17  0.18012678D-17  0.24064507D-17  0.28589373D-17  0.27705294D-17
  0.19258713D-17  0.62666005D-18 -0.28204675D-18 -0.30470459D-18 -0.78445265D-19
  0.76516113D-22 -0.38189446D-04 -0.55126905D-04 -0.73648227D-04 -0.87496353D-04
 -0.84790673D-04 -0.58940333D-04 -0.19178619D-04  0.86319006D-05  0.93253325D-05
  0.24007783D-05 -0.23417376D-08 -0.12530937D-06 -0.18088551D-06 -0.24165872D-06
 -0.28709798D-06 -0.27821995D-06 -0.19339835D-06 -0.62929969D-07  0.28323480D-07
  0.30598808D-07  0.78775695D-08 -0.76838416D-11  0.13899794D-18  0.20197017D-18
  0.26852168D-18  0.32220743D-18  0.31173712D-18  0.22129705D-18  0.68779681D-19
 -0.39488954D-19 -0.45364042D-19 -0.12046820D-19  0.43465302D-20  0.66463771D-05
  0.96574808D-05  0.12839733D-04  0.15406790D-04  0.14906138D-04  0.10581622D-04
  0.32887948D-05 -0.18882185D-05 -0.21691439D-05 -0.57603523D-06  0.20783531D-06
  0.21823569D-07  0.31710613D-07  0.42159628D-07  0.50588635D-07  0.48944729D-07
  0.34745058D-07  0.10798851D-07 -0.62000193D-08 -0.71224458D-08 -0.18914281D-08
  0.68243315D-09 -0.59837880D-19 -0.85659350D-06 -0.28101613D-08 -0.21155273D-19
  0.66439962D-06  0.21830040D-08 -0.33374587D-20  0.55463976D-07  0.18198081D-09
 -0.69572475D-05 -0.72800099D-05 -0.62029581D-05 -0.40851169D-05 -0.18827087D-05
 -0.56378018D-06 -0.95922417D-07  0.13914273D-04  0.14559787D-04  0.12405718D-04
  0.81701031D-05  0.37653573D-05  0.11275423D-05  0.19184177D-06 -0.69570251D-05
 -0.72797772D-05 -0.62027598D-05 -0.40849863D-05 -0.18826485D-05 -0.56376215D-06
 -0.95919351D-07 -0.99057436D-18 -0.10365293D-17 -0.88317847D-18 -0.58163979D-18
 -0.26806046D-18 -0.80271140D-19 -0.13657454D-19  0.14010234D-17  0.14660200D-17
  0.12491275D-17  0.82264490D-18  0.37913254D-18  0.11353185D-18  0.19316482D-19
  0.13627806D-06  0.14260031D-06  0.12150309D-06  0.80018972D-07  0.36878362D-07
  0.11043285D-07  0.18789213D-08  0.22247259D-08 -0.44494224D-08  0.22246965D-08