 Molden2AIM, Version 4.0.0 (06/02/2016)           Time: Wed Jun 27 22:25:12 2018
GAUSSIAN              5 MOL ORBITALS    231 PRIMITIVES        3 NUCLEI
  Be   1    (CENTRE  1)   0.00000000  0.00000000 -0.00000189  CHARGE =  4.0
  Li   2    (CENTRE  2)   0.00000000  0.00000000  4.77851077  CHARGE =  3.0
  Li   3    (CENTRE  3)   0.00000000  0.00000000 -4.77851077  CHARGE =  3.0
CENTRE ASSIGNMENTS    1  1  1  1  1  1  1  1  1  1  1  1  1  1  1  1  1  1  1  1
CENTRE ASSIGNMENTS    1  1  1  1  1  1  1  1  1  1  1  1  1  1  1  1  1  1  1  1
CENTRE ASSIGNMENTS    1  1  1  1  1  1  1  1  1  1  1  1  1  1  1  1  1  1  1  1
CENTRE ASSIGNMENTS    1  1  1  1  1  1  1  1  1  1  1  1  1  1  1  1  1  2  2  2
CENTRE ASSIGNMENTS    2  2  2  2  2  2  2  2  2  2  2  2  2  2  2  2  2  2  2  2
CENTRE ASSIGNMENTS    2  2  2  2  2  2  2  2  2  2  2  2  2  2  2  2  2  2  2  2
CENTRE ASSIGNMENTS    2  2  2  2  2  2  2  2  2  2  2  2  2  2  2  2  2  2  2  2
CENTRE ASSIGNMENTS    2  2  2  2  2  2  2  2  2  2  2  2  2  2  3  3  3  3  3  3
CENTRE ASSIGNMENTS    3  3  3  3  3  3  3  3  3  3  3  3  3  3  3  3  3  3  3  3
CENTRE ASSIGNMENTS    3  3  3  3  3  3  3  3  3  3  3  3  3  3  3  3  3  3  3  3
CENTRE ASSIGNMENTS    3  3  3  3  3  3  3  3  3  3  3  3  3  3  3  3  3  3  3  3
CENTRE ASSIGNMENTS    3  3  3  3  3  3  3  3  3  3  3
TYPE ASSIGNMENTS      1  1  1  1  1  1  1  1  1  1  1  1  1  1  1  1  1  1  1  1
TYPE ASSIGNMENTS      1  2  2  2  3  3  3  4  4  4  2  3  4  2  3  4  2  3  4  5
TYPE ASSIGNMENTS      6  7  8  9 10  5  6  7  8  9 10  5  6  7  8  9 10 11 12 13
TYPE ASSIGNMENTS     17 14 15 18 19 16 20 11 12 13 17 14 15 18 19 16 20  1  1  1
TYPE ASSIGNMENTS      1  1  1  1  1  1  1  1  1  1  1  1  1  1  1  1  1  1  2  2
TYPE ASSIGNMENTS      2  3  3  3  4  4  4  2  3  4  2  3  4  2  3  4  5  6  7  8
TYPE ASSIGNMENTS      9 10  5  6  7  8  9 10  5  6  7  8  9 10 11 12 13 17 14 15
TYPE ASSIGNMENTS     18 19 16 20 11 12 13 17 14 15 18 19 16 20  1  1  1  1  1  1
TYPE ASSIGNMENTS      1  1  1  1  1  1  1  1  1  1  1  1  1  1  1  2  2  2  3  3
TYPE ASSIGNMENTS      3  4  4  4  2  3  4  2  3  4  2  3  4  5  6  7  8  9 10  5
TYPE ASSIGNMENTS      6  7  8  9 10  5  6  7  8  9 10 11 12 13 17 14 15 18 19 16
TYPE ASSIGNMENTS     20 11 12 13 17 14 15 18 19 16 20
EXPONENTS  0.6863000D+04 0.1030000D+04 0.2347000D+03 0.6656000D+02 0.2169000D+02
EXPONENTS  0.7734000D+01 0.2916000D+01 0.1130000D+01 0.1101000D+00 0.6863000D+04
EXPONENTS  0.1030000D+04 0.2347000D+03 0.6656000D+02 0.2169000D+02 0.7734000D+01
EXPONENTS  0.2916000D+01 0.1130000D+01 0.1101000D+00 0.2577000D+00 0.4409000D-01
EXPONENTS  0.1503000D-01 0.7436000D+01 0.1577000D+01 0.4352000D+00 0.7436000D+01
EXPONENTS  0.1577000D+01 0.4352000D+00 0.7436000D+01 0.1577000D+01 0.4352000D+00
EXPONENTS  0.1438000D+00 0.1438000D+00 0.1438000D+00 0.4994000D-01 0.4994000D-01
EXPONENTS  0.4994000D-01 0.7060000D-02 0.7060000D-02 0.7060000D-02 0.3480000D+00
EXPONENTS  0.3480000D+00 0.3480000D+00 0.3480000D+00 0.3480000D+00 0.3480000D+00
EXPONENTS  0.1803000D+00 0.1803000D+00 0.1803000D+00 0.1803000D+00 0.1803000D+00
EXPONENTS  0.1803000D+00 0.6540000D-01 0.6540000D-01 0.6540000D-01 0.6540000D-01
EXPONENTS  0.6540000D-01 0.6540000D-01 0.3250000D+00 0.3250000D+00 0.3250000D+00
EXPONENTS  0.3250000D+00 0.3250000D+00 0.3250000D+00 0.3250000D+00 0.3250000D+00
EXPONENTS  0.3250000D+00 0.3250000D+00 0.1533000D+00 0.1533000D+00 0.1533000D+00
EXPONENTS  0.1533000D+00 0.1533000D+00 0.1533000D+00 0.1533000D+00 0.1533000D+00
EXPONENTS  0.1533000D+00 0.1533000D+00 0.5988000D+04 0.8989000D+03 0.2059000D+03
EXPONENTS  0.5924000D+02 0.1987000D+02 0.7406000D+01 0.2930000D+01 0.1189000D+01
EXPONENTS  0.4798000D+00 0.5988000D+04 0.8989000D+03 0.2059000D+03 0.5924000D+02
EXPONENTS  0.1987000D+02 0.7406000D+01 0.2930000D+01 0.1189000D+01 0.4798000D+00
EXPONENTS  0.7509000D-01 0.2832000D-01 0.7600000D-02 0.3266000D+01 0.6511000D+00
EXPONENTS  0.1696000D+00 0.3266000D+01 0.6511000D+00 0.1696000D+00 0.3266000D+01
EXPONENTS  0.6511000D+00 0.1696000D+00 0.5578000D-01 0.5578000D-01 0.5578000D-01
EXPONENTS  0.2050000D-01 0.2050000D-01 0.2050000D-01 0.9100000D-02 0.9100000D-02
EXPONENTS  0.9100000D-02 0.1874000D+00 0.1874000D+00 0.1874000D+00 0.1874000D+00
EXPONENTS  0.1874000D+00 0.1874000D+00 0.8010000D-01 0.8010000D-01 0.8010000D-01
EXPONENTS  0.8010000D-01 0.8010000D-01 0.8010000D-01 0.3710000D-01 0.3710000D-01
EXPONENTS  0.3710000D-01 0.3710000D-01 0.3710000D-01 0.3710000D-01 0.1829000D+00
EXPONENTS  0.1829000D+00 0.1829000D+00 0.1829000D+00 0.1829000D+00 0.1829000D+00
EXPONENTS  0.1829000D+00 0.1829000D+00 0.1829000D+00 0.1829000D+00 0.8160000D-01
EXPONENTS  0.8160000D-01 0.8160000D-01 0.8160000D-01 0.8160000D-01 0.8160000D-01
EXPONENTS  0.8160000D-01 0.8160000D-01 0.8160000D-01 0.8160000D-01 0.5988000D+04
EXPONENTS  0.8989000D+03 0.2059000D+03 0.5924000D+02 0.1987000D+02 0.7406000D+01
EXPONENTS  0.2930000D+01 0.1189000D+01 0.4798000D+00 0.5988000D+04 0.8989000D+03
EXPONENTS  0.2059000D+03 0.5924000D+02 0.1987000D+02 0.7406000D+01 0.2930000D+01
EXPONENTS  0.1189000D+01 0.4798000D+00 0.7509000D-01 0.2832000D-01 0.7600000D-02
EXPONENTS  0.3266000D+01 0.6511000D+00 0.1696000D+00 0.3266000D+01 0.6511000D+00
EXPONENTS  0.1696000D+00 0.3266000D+01 0.6511000D+00 0.1696000D+00 0.5578000D-01
EXPONENTS  0.5578000D-01 0.5578000D-01 0.2050000D-01 0.2050000D-01 0.2050000D-01
EXPONENTS  0.9100000D-02 0.9100000D-02 0.9100000D-02 0.1874000D+00 0.1874000D+00
EXPONENTS  0.1874000D+00 0.1874000D+00 0.1874000D+00 0.1874000D+00 0.8010000D-01
EXPONENTS  0.8010000D-01 0.8010000D-01 0.8010000D-01 0.8010000D-01 0.8010000D-01
EXPONENTS  0.3710000D-01 0.3710000D-01 0.3710000D-01 0.3710000D-01 0.3710000D-01
EXPONENTS  0.3710000D-01 0.1829000D+00 0.1829000D+00 0.1829000D+00 0.1829000D+00
EXPONENTS  0.1829000D+00 0.1829000D+00 0.1829000D+00 0.1829000D+00 0.1829000D+00
EXPONENTS  0.1829000D+00 0.8160000D-01 0.8160000D-01 0.8160000D-01 0.8160000D-01
EXPONENTS  0.8160000D-01 0.8160000D-01 0.8160000D-01 0.8160000D-01 0.8160000D-01
EXPONENTS  0.8160000D-01
MO    1     MO 0.0        OCC NO =    2.0000000  ORB. ENERGY =   -4.658682
  0.12683194D+00  0.23662456D+00  0.40396120D+00  0.63042436D+00  0.85937030D+00
  0.93268023D+00  0.67976741D+00  0.20800570D+00 -0.99107063D-03 -0.61601062D-04
 -0.11502875D-03 -0.19777381D-03 -0.31044605D-03 -0.44160037D-03 -0.51226827D-03
 -0.48567162D-03 -0.28300108D-03  0.20969223D-03  0.51644229D-02 -0.48294980D-05
 -0.12274391D-04  0.62528292D-17  0.52684440D-17  0.41609043D-17 -0.10979610D-17
 -0.92510859D-18 -0.73063095D-18  0.23409208D-08  0.19723888D-08  0.15577504D-08
 -0.13572666D-17  0.29164240D-18 -0.17602872D-08 -0.22358568D-18  0.50448707D-19
  0.17424423D-09 -0.26846439D-20  0.64007849D-21 -0.81592573D-10 -0.17653400D-04
 -0.17653400D-04  0.35306800D-04  0.60235670D-22  0.31005836D-20  0.15797757D-18
 -0.45182671D-04 -0.45182671D-04  0.90365342D-04 -0.41346152D-22 -0.70601350D-19
 -0.18080866D-18  0.18762693D-04  0.18762693D-04 -0.37525386D-04  0.99811712D-23
 -0.12829685D-20 -0.44399346D-21 -0.54922418D-19  0.88342998D-20 -0.77070064D-10
 -0.54922418D-19  0.88342992D-20  0.11560510D-09  0.21968967D-18 -0.35337199D-19
  0.11560510D-09  0.65611068D-19  0.52713313D-19 -0.11068769D-19 -0.82402166D-11
  0.52713313D-19 -0.11068769D-19  0.12360325D-10 -0.21085325D-18  0.44275075D-19
  0.12360325D-10 -0.10310797D-19 -0.15592910D-04 -0.28981548D-04 -0.49355078D-04
 -0.76970437D-04 -0.10753208D-03 -0.12818022D-03 -0.12151443D-03 -0.77173944D-04
 -0.18951651D-04  0.90854558D-05  0.16798693D-04  0.28328410D-04  0.45138759D-04
  0.62920032D-04  0.80170356D-04  0.79617439D-04  0.71816808D-04  0.41106598D-04
  0.26759348D-03 -0.40427555D-04  0.11916827D-05  0.16423886D-18  0.12051620D-18
  0.98963431D-19 -0.29120725D-19 -0.21368385D-19 -0.17546924D-19 -0.37760767D-04
 -0.27708327D-04 -0.22753050D-04  0.20771252D-18 -0.42541290D-19 -0.98156595D-05
 -0.73731934D-20  0.83946696D-21  0.83727667D-05  0.33758145D-20 -0.71068133D-21
 -0.12446314D-05  0.16077142D-04  0.16077142D-04 -0.32154284D-04 -0.31177320D-21
 -0.16293394D-18  0.30410157D-19  0.24841194D-05  0.24841194D-05 -0.49682389D-05
  0.24197298D-20 -0.13585614D-18  0.24098024D-19  0.56445017D-06  0.56445017D-06
 -0.11289003D-05  0.18509135D-22 -0.60252730D-20  0.18651436D-20 -0.19391354D-19
  0.37109478D-20  0.13065739D-04 -0.19391354D-19  0.37109452D-20 -0.19598608D-04
  0.77565417D-19 -0.14843789D-19 -0.19598608D-04 -0.78893141D-22 -0.61594355D-20
  0.10569800D-20  0.44610310D-06 -0.61594355D-20  0.10569792D-20 -0.66915464D-06
  0.24637742D-19 -0.42279192D-20 -0.66915464D-06 -0.11300508D-20 -0.15593111D-04
 -0.28981921D-04 -0.49355714D-04 -0.76971427D-04 -0.10753347D-03 -0.12818187D-03
 -0.12151599D-03 -0.77174937D-04 -0.18951895D-04  0.90856176D-05  0.16798992D-04
  0.28328914D-04  0.45139563D-04  0.62921153D-04  0.80171784D-04  0.79618857D-04
  0.71818087D-04  0.41107331D-04  0.26759340D-03 -0.40428322D-04  0.11898601D-05
  0.16726873D-18  0.12273948D-18  0.10078910D-18 -0.36107676D-19 -0.26495312D-19
 -0.21756967D-19  0.37759876D-04  0.27707674D-04  0.22752513D-04  0.20273491D-18
 -0.50237955D-19  0.98149527D-05 -0.64815432D-20  0.24549868D-20 -0.83728271D-05
  0.32854917D-20 -0.87904012D-21  0.12445805D-05  0.16077299D-04  0.16077299D-04
 -0.32154598D-04  0.92456278D-21  0.16068010D-18 -0.39283629D-19  0.24842031D-05
  0.24842031D-05 -0.49684061D-05 -0.26839404D-20  0.13122230D-18 -0.35795341D-19
  0.56446603D-06  0.56446603D-06 -0.11289321D-05  0.12530759D-22  0.63664261D-20
 -0.95307327D-21 -0.18895798D-19  0.51192828D-20 -0.13065750D-04 -0.18895798D-19
  0.51192868D-20  0.19598625D-04  0.75583193D-19 -0.20477135D-19  0.19598625D-04
  0.37111861D-21 -0.59065597D-20  0.16317593D-20 -0.44613066D-06 -0.59065597D-20
  0.16317608D-20  0.66919599D-06  0.23626239D-19 -0.65270387D-20  0.66919599D-06
 -0.11546991D-20
MO    2     MO 0.0        OCC NO =    2.0000000  ORB. ENERGY =   -2.431071
 -0.40205822D-07 -0.75010168D-07 -0.12805601D-06 -0.19984501D-06 -0.27242105D-06
 -0.29566036D-06 -0.21548680D-06 -0.65937969D-07  0.31417016D-09 -0.32076615D-07
 -0.59897229D-07 -0.10298385D-06 -0.16165401D-06 -0.22994807D-06 -0.26674592D-06
 -0.25289664D-06 -0.14736299D-06  0.10918995D-06 -0.22057092D-05  0.42753619D-05
 -0.70618327D-07  0.22883352D-16  0.19280818D-16  0.15227577D-16 -0.83445319D-17
 -0.70308493D-17 -0.55528142D-17 -0.12789428D-02 -0.10775984D-02 -0.85106415D-03
 -0.35797616D-17 -0.14308981D-17  0.16909213D-02 -0.95663626D-18 -0.22938794D-19
  0.11980457D-02  0.24243198D-19  0.16407510D-19 -0.96450572D-04  0.38723357D-06
  0.38723357D-06 -0.77446713D-06 -0.11870072D-16  0.26056983D-17 -0.45444341D-19
 -0.66770442D-06 -0.66770442D-06  0.13354088D-05 -0.28758680D-18 -0.21961672D-17
  0.25818915D-19 -0.15703864D-06 -0.15703864D-06  0.31407729D-06  0.32670343D-19
  0.14058868D-17 -0.17542838D-18 -0.60980302D-19 -0.12192431D-18  0.78316377D-04
 -0.60980301D-19 -0.12192420D-18 -0.11747456D-03  0.24392121D-18  0.48769714D-18
 -0.11747456D-03  0.97379763D-20  0.10954684D-18  0.14192558D-18  0.15511245D-03
  0.10954684D-18  0.14192555D-18 -0.23266867D-03 -0.43818737D-18 -0.56770228D-18
 -0.23266867D-03 -0.47515167D-20  0.45587235D-01  0.84730090D-01  0.14429389D+00
  0.22502980D+00  0.31437944D+00  0.37474607D+00  0.35525805D+00  0.22562477D+00
  0.55406807D-01  0.78103233D-04  0.14441017D-03  0.24352552D-03  0.38803590D-03
  0.54089283D-03  0.68918545D-03  0.68443229D-03  0.61737407D-03  0.35337338D-03
 -0.21286801D-02 -0.42691575D-03  0.11372243D-02  0.12439661D-17  0.91280510D-18
  0.74956166D-18  0.15957733D-17  0.11709563D-17  0.96154583D-18  0.28086406D-02
  0.20609415D-02  0.16923687D-02 -0.15519622D-17  0.49444800D-18  0.21390085D-03
 -0.15190357D-19 -0.11972861D-18  0.20718668D-04 -0.14585726D-19 -0.22099646D-20
 -0.38411056D-04  0.21910798D-03  0.21910798D-03 -0.43821596D-03  0.38505879D-20
 -0.10289899D-17 -0.23813545D-18 -0.23088813D-04 -0.23088813D-04  0.46177625D-04
 -0.15262686D-19  0.36516011D-18 -0.49670448D-18 -0.19512338D-05 -0.19512338D-05
  0.39024676D-05  0.43711837D-20  0.19339075D-18  0.71906599D-19 -0.14741136D-18
 -0.87749068D-19  0.74364006D-04 -0.14741136D-18 -0.87749061D-19 -0.11154601D-03
  0.58964544D-18  0.35099627D-18 -0.11154601D-03 -0.16743013D-19  0.29595732D-19
 -0.53951991D-20 -0.16011043D-04  0.29595732D-19 -0.53951995D-20  0.24016565D-04
 -0.11838293D-18  0.21580797D-19  0.24016565D-04  0.17153790D-20 -0.45434214D-01
 -0.84445680D-01 -0.14380954D+00 -0.22427445D+00 -0.31332417D+00 -0.37348817D+00
 -0.35406557D+00 -0.22486743D+00 -0.55220825D-01 -0.77702497D-04 -0.14366923D-03
 -0.24227603D-03 -0.38604495D-03 -0.53811760D-03 -0.68564935D-03 -0.68092058D-03
 -0.61420643D-03 -0.35156028D-03  0.21221046D-02  0.42655033D-03 -0.11372081D-02
 -0.54255353D-19 -0.39811826D-19 -0.32691993D-19  0.15858241D-17  0.11636557D-17
  0.95555088D-18  0.28003686D-02  0.20548717D-02  0.16873843D-02  0.16360623D-17
 -0.10661579D-18  0.21341251D-03 -0.41827096D-19  0.25276969D-19  0.20711911D-04
  0.15134871D-19 -0.40356416D-20 -0.38409263D-04 -0.21856035D-03 -0.21856035D-03
  0.43712070D-03 -0.20967552D-18 -0.24304542D-18  0.84552041D-18  0.23017547D-04
  0.23017547D-04 -0.46035094D-04  0.84726886D-19  0.75095632D-18  0.92861842D-19
  0.19504870D-05  0.19504870D-05 -0.39009740D-05 -0.15145005D-19  0.28716517D-19
  0.95033754D-20 -0.33910854D-20 -0.54505336D-19  0.74252402D-04 -0.33910854D-20
 -0.54505324D-19 -0.11137860D-03  0.13564342D-19  0.21802133D-18 -0.11137860D-03
  0.47786202D-19 -0.11903707D-19 -0.12212998D-19 -0.15976447D-04 -0.11903707D-19
 -0.12212999D-19  0.23964671D-04  0.47614827D-19  0.48851992D-19  0.23964671D-04
 -0.20263886D-19
MO    3     MO 0.0        OCC NO =    2.0000000  ORB. ENERGY =   -2.431068
 -0.23397156D-04 -0.43651006D-04 -0.74520214D-04 -0.11629671D-03 -0.15853121D-03
 -0.17205497D-03 -0.12539921D-03 -0.38371580D-04  0.18282646D-06 -0.19506374D-04
 -0.36424595D-04 -0.62626353D-04 -0.98304743D-04 -0.13983561D-03 -0.16221305D-03
 -0.15379105D-03 -0.89614118D-04  0.66400399D-04 -0.13105895D-02  0.25492559D-02
 -0.41307348D-04 -0.67369454D-16 -0.56763457D-16 -0.44830562D-16  0.25979728D-16
  0.21889730D-16  0.17288040D-16  0.21532360D-05  0.18142513D-05  0.14328568D-05
 -0.33799456D-17  0.34540117D-17 -0.28512247D-05 -0.54274321D-18 -0.54149335D-18
 -0.20193597D-05  0.69207968D-20  0.78764270D-20  0.16250991D-06  0.22973963D-03
  0.22973963D-03 -0.45947926D-03 -0.25798383D-19 -0.24535872D-18  0.23444586D-17
 -0.39701242D-03 -0.39701242D-03  0.79402483D-03  0.74850013D-21 -0.47927657D-19
 -0.17140006D-17 -0.93451625D-04 -0.93451625D-04  0.18690325D-03 -0.21449211D-21
 -0.11205145D-17  0.27967753D-18 -0.16163967D-18 -0.74676883D-19 -0.13229852D-06
 -0.16163967D-18 -0.74676885D-19  0.19844779D-06  0.64655869D-18  0.29870753D-18
  0.19844779D-06 -0.74528618D-19  0.16960692D-18  0.22703646D-19 -0.26105900D-06
  0.16960692D-18  0.22703646D-19  0.39158850D-06 -0.67842768D-18 -0.90814583D-19
  0.39158850D-06  0.15678252D-19  0.45380972D-01  0.84346722D-01  0.14364102D+00
  0.22401163D+00  0.31295700D+00  0.37305050D+00  0.35365065D+00  0.22460391D+00
  0.55156114D-01  0.11890510D-03  0.21985141D-03  0.37074555D-03  0.59074951D-03
  0.82346035D-03  0.10492224D-02  0.10419862D-02  0.93989612D-03  0.53797897D-03
 -0.19543943D-02 -0.10974226D-03  0.28383493D-05  0.35308595D-18  0.25908957D-18
  0.21275474D-18  0.12168637D-17  0.89291771D-18  0.73323087D-18  0.24543516D-02
  0.18009692D-02  0.14788890D-02  0.20558571D-17 -0.18156650D-18  0.14580219D-03
 -0.27146394D-19  0.23309382D-19  0.20469394D-05  0.92167528D-20 -0.10284174D-19
 -0.44749466D-06  0.16243659D-03  0.16243659D-03 -0.32487318D-03 -0.25783565D-19
  0.33295297D-19 -0.11493222D-18 -0.21117121D-04 -0.21117121D-04  0.42234243D-04
  0.34065253D-20 -0.12354038D-17 -0.11535406D-18 -0.20800063D-06 -0.20800063D-06
  0.41600126D-06 -0.50523561D-21 -0.54897604D-19  0.24406226D-19 -0.30280931D-19
 -0.27002462D-19  0.33056550D-04 -0.30280931D-19 -0.27002455D-19 -0.49584825D-04
  0.12112372D-18  0.10800984D-18 -0.49584825D-04 -0.10466163D-20 -0.55888395D-19
 -0.10652452D-19 -0.10252708D-04 -0.55888395D-19 -0.10652452D-19  0.15379061D-04
  0.22355358D-18  0.42609807D-19  0.15379061D-04  0.46413100D-21  0.45534171D-01
  0.84631463D-01  0.14412593D+00  0.22476786D+00  0.31401350D+00  0.37430986D+00
  0.35484452D+00  0.22536214D+00  0.55342313D-01  0.11916772D-03  0.22033698D-03
  0.37156439D-03  0.59205426D-03  0.82527907D-03  0.10515398D-02  0.10442875D-02
  0.94197200D-03  0.53916716D-03 -0.19615603D-02 -0.11118376D-03  0.66705926D-05
  0.91094461D-19  0.66843853D-19  0.54889690D-19 -0.69524443D-18 -0.51016073D-18
 -0.41892505D-18 -0.24637973D-02 -0.18079003D-02 -0.14845806D-02 -0.47969488D-18
  0.38207202D-18 -0.14652412D-03 -0.22604300D-19 -0.10691679D-19 -0.21170306D-05
 -0.11454818D-19 -0.40651067D-20  0.57694648D-06  0.16317375D-03  0.16317375D-03
 -0.32634751D-03  0.26995980D-19  0.10641570D-17 -0.43740981D-18 -0.21194720D-04
 -0.21194720D-04  0.42389440D-04 -0.37068764D-20 -0.31419786D-18  0.97839551D-19
 -0.21452534D-06 -0.21452534D-06  0.42905068D-06  0.62629932D-21 -0.51848399D-19
  0.40123060D-19 -0.99840706D-19  0.25490325D-19 -0.33306752D-04 -0.99840706D-19
  0.25490313D-19  0.49960129D-04  0.39936282D-18 -0.10196129D-18  0.49960129D-04
 -0.14016809D-20  0.48164913D-20  0.13258240D-19  0.10306547D-04  0.48164913D-20
  0.13258240D-19 -0.15459820D-04 -0.19265965D-19 -0.53032959D-19 -0.15459820D-04
  0.61898557D-21
MO    4     MO 0.0        OCC NO =    2.0000000  ORB. ENERGY =   -0.290562
 -0.99217887D-03 -0.18510629D-02 -0.31601013D-02 -0.49316737D-02 -0.67226685D-02
 -0.72961562D-02 -0.53176738D-02 -0.16271837D-02  0.77529317D-05 -0.18820826D-01
 -0.35144461D-01 -0.60425364D-01 -0.94849846D-01 -0.13492112D+00 -0.15651211D+00
 -0.14838610D+00 -0.86464651D-01  0.64066772D-01  0.41562681D-01 -0.61440652D-02
 -0.20435402D-02 -0.88991483D-17 -0.74981522D-17 -0.59218800D-17 -0.23132934D-16
 -0.19491108D-16 -0.15393660D-16 -0.73955304D-07 -0.62312494D-07 -0.49213073D-07
 -0.52709454D-17  0.13198112D-17 -0.14957251D-07 -0.68915250D-17  0.21997729D-17
  0.95366619D-08 -0.73577921D-19  0.64562103D-20 -0.11142232D-08 -0.94715239D-03
 -0.94715239D-03  0.18943048D-02  0.15931897D-20 -0.74540375D-17 -0.75799267D-17
 -0.40855984D-03 -0.40855984D-03  0.81711969D-03  0.22478606D-20  0.29797451D-17
  0.40716966D-17  0.27191341D-03  0.27191341D-03 -0.54382683D-03 -0.31129471D-20
  0.87791234D-18 -0.15457373D-17 -0.53265908D-17  0.97328547D-18 -0.19011510D-09
 -0.53265908D-17  0.97328565D-18  0.28517271D-09  0.21306363D-16 -0.38931421D-17
  0.28517259D-09 -0.97389680D-16  0.74899708D-18 -0.23432299D-18  0.23915067D-09
  0.74899708D-18 -0.23432309D-18 -0.35872601D-09 -0.29959883D-17  0.93729207D-18
 -0.35872599D-09  0.15737563D-16 -0.47059970D-03 -0.87467368D-03 -0.14895542D-02
 -0.23229958D-02 -0.32453574D-02 -0.38685256D-02 -0.36673496D-02 -0.23291377D-02
 -0.57196772D-03 -0.37169658D-02 -0.68725409D-02 -0.11589482D-01 -0.18466792D-01
 -0.25741318D-01 -0.32798626D-01 -0.32572421D-01 -0.29381092D-01 -0.16817188D-01
  0.22478449D-01  0.81114692D-02  0.14671735D-03  0.27865826D-18  0.20447557D-18
  0.16790775D-18 -0.13600586D-17 -0.99799217D-18 -0.81951411D-18 -0.14031133D-01
 -0.10295851D-01 -0.84545702D-02  0.75366370D-18 -0.27396284D-18 -0.40555849D-02
  0.14989699D-18  0.28068552D-20 -0.26536455D-03  0.26298809D-19 -0.99940087D-20
 -0.59997957D-05 -0.43524544D-03 -0.43524544D-03  0.87049088D-03 -0.28706777D-18
  0.61746648D-18 -0.29925830D-18 -0.64669550D-04 -0.64669550D-04  0.12933910D-03
 -0.13292364D-17  0.11167882D-19  0.45224729D-18 -0.34898886D-04 -0.34898886D-04
  0.69797771D-04  0.11038835D-18 -0.25351727D-18 -0.12700010D-19  0.35469590D-18
 -0.29309075D-19 -0.61317129D-04  0.35469591D-18 -0.29309101D-19  0.91975693D-04
 -0.14187836D-17  0.11723633D-18  0.91975693D-04  0.55695500D-18 -0.35203278D-19
  0.41646038D-19  0.15571064D-04 -0.35203278D-19  0.41645793D-19 -0.23356595D-04
  0.14081311D-18 -0.16658391D-18 -0.23356595D-04  0.55160677D-18 -0.47060101D-03
 -0.87467612D-03 -0.14895584D-02 -0.23230023D-02 -0.32453664D-02 -0.38685364D-02
 -0.36673599D-02 -0.23291442D-02 -0.57196931D-03 -0.37169751D-02 -0.68725581D-02
 -0.11589511D-01 -0.18466838D-01 -0.25741382D-01 -0.32798708D-01 -0.32572503D-01
 -0.29381166D-01 -0.16817230D-01  0.22478519D-01  0.81114917D-02  0.14669149D-03
  0.14621645D-17  0.10729161D-17  0.88103883D-18  0.62958361D-18  0.46197972D-18
  0.37936059D-18  0.14031176D-01  0.10295882D-01  0.84545961D-02  0.35053159D-17
 -0.17806561D-17  0.40555951D-02  0.20612188D-18  0.51957364D-19  0.26536572D-03
  0.46447897D-19 -0.11665702D-19  0.59989082D-05 -0.43524712D-03 -0.43524712D-03
  0.87049423D-03  0.35001752D-18 -0.16230831D-17  0.11722343D-18 -0.64669215D-04
 -0.64669215D-04  0.12933843D-03  0.12949977D-17  0.20034945D-17 -0.68751149D-18
 -0.34898960D-04 -0.34898960D-04  0.69797920D-04 -0.10667696D-18  0.39244631D-18
 -0.13776946D-18  0.37310094D-18 -0.13866161D-19  0.61317629D-04  0.37310094D-18
 -0.13866073D-19 -0.91976444D-04 -0.14924038D-17  0.55464555D-19 -0.91976444D-04
  0.59031848D-18 -0.10338386D-18 -0.14056892D-19 -0.15571238D-04 -0.10338386D-18
 -0.14056559D-19  0.23356856D-04  0.41353543D-18  0.56227236D-19  0.23356856D-04
  0.55710322D-18
MO    5     MO 0.0        OCC NO =    2.0000000  ORB. ENERGY =   -0.165006
 -0.65925994D-09 -0.12299512D-08 -0.20997506D-08 -0.32768838D-08 -0.44669224D-08
 -0.48479802D-08 -0.35333642D-08 -0.10811932D-08  0.51514877D-11  0.37780936D-08
  0.70549007D-08  0.12129790D-07  0.19040162D-07  0.27084071D-07  0.31418248D-07
  0.29787032D-07  0.17356918D-07 -0.12860767D-07 -0.57340408D-08 -0.53653135D-07
 -0.57012632D-08  0.22481239D-16  0.18942009D-16  0.14959993D-16  0.51761170D-16
  0.43612390D-16  0.34444132D-16 -0.99280416D-01 -0.83650665D-01 -0.66065503D-01
 -0.29995846D-16  0.53231535D-17 -0.26290363D-01 -0.15663042D-16  0.21369485D-16
 -0.34228328D-02  0.78836695D-18 -0.22246735D-18  0.24057404D-03  0.10072171D-08
  0.10072170D-08 -0.20144341D-08  0.63878186D-17 -0.11338817D-16 -0.24988089D-16
  0.68097915D-09  0.68097919D-09 -0.13619583D-08 -0.51950062D-17 -0.17105450D-16
  0.86011750D-17  0.63557256D-09  0.63557256D-09 -0.12711451D-08 -0.12654736D-17
  0.58907246D-17  0.71451372D-17 -0.10228575D-17  0.15521406D-17  0.15131289D-03
 -0.10228579D-17  0.15515889D-17 -0.22696933D-03  0.40914303D-17 -0.62080107D-17
 -0.22696933D-03  0.12232531D-18  0.11132690D-17 -0.10603866D-17  0.16048190D-03
  0.11132687D-17 -0.10602553D-17 -0.24072284D-03 -0.44530757D-17  0.42414152D-17
 -0.24072284D-03 -0.95348398D-19  0.21736823D-03  0.40400849D-03  0.68801950D-03
  0.10729830D-02  0.14990184D-02  0.17868574D-02  0.16939350D-02  0.10758200D-02
  0.26418974D-03  0.64210180D-02  0.11872240D-01  0.20020705D-01  0.31901182D-01
  0.44467847D-01  0.56659270D-01  0.56268504D-01  0.50755518D-01  0.29051510D-01
 -0.29377436D-01 -0.15931079D-01 -0.31182480D-02  0.12762946D-17  0.93652725D-18
  0.76904141D-18  0.77387069D-17  0.56785559D-17  0.46630192D-17  0.15835185D-01
  0.11619639D-01  0.95416163D-02 -0.36849832D-17 -0.12094104D-16  0.37035914D-02
 -0.38886318D-17  0.67385020D-18  0.24179271D-03  0.97748574D-18  0.35057854D-19
  0.90801431D-04  0.53799295D-03  0.53799295D-03 -0.10759859D-02 -0.38485631D-17
  0.36363972D-18  0.36102846D-17  0.10425301D-03  0.10425301D-03 -0.20850601D-03
  0.25630724D-17 -0.44356303D-17  0.45336520D-17  0.14221793D-04  0.14221793D-04
 -0.28443585D-04 -0.10594368D-17  0.20669697D-17  0.10712027D-17 -0.36946383D-18
  0.38192714D-18  0.18157756D-03 -0.36946385D-18  0.38194557D-18 -0.27236634D-03
  0.14778553D-17 -0.15277270D-17 -0.27236634D-03 -0.42546631D-18 -0.12341286D-18
  0.26445759D-18 -0.11076333D-04 -0.12341286D-18  0.26445913D-18  0.16614500D-04
  0.49365145D-18 -0.10578319D-17  0.16614500D-04  0.25568866D-18 -0.21736775D-03
 -0.40400759D-03 -0.68801797D-03 -0.10729806D-02 -0.14990150D-02 -0.17868535D-02
 -0.16939312D-02 -0.10758176D-02 -0.26418915D-03 -0.64210165D-02 -0.11872237D-01
 -0.20020700D-01 -0.31901175D-01 -0.44467837D-01 -0.56659258D-01 -0.56268492D-01
 -0.50755507D-01 -0.29051503D-01  0.29377455D-01  0.15931084D-01  0.31182484D-02
 -0.68331613D-17 -0.50140790D-17 -0.41173755D-17  0.32566913D-18  0.23897149D-18
  0.19623452D-18  0.15835199D-01  0.11619649D-01  0.95416246D-02  0.85690865D-17
 -0.18947425D-17  0.37035983D-02 -0.29615006D-17  0.12440976D-17  0.24179314D-03
  0.10851505D-17 -0.37027837D-18  0.90801315D-04 -0.53799385D-03 -0.53799385D-03
  0.10759877D-02 -0.12526143D-18  0.29281390D-17 -0.70145695D-17 -0.10425282D-03
 -0.10425282D-03  0.20850563D-03  0.75112760D-18  0.36113010D-17  0.37511112D-18
 -0.14221877D-04 -0.14221877D-04  0.28443755D-04 -0.78614128D-18 -0.74656852D-18
  0.66334801D-18 -0.24606311D-18  0.41868581D-18  0.18157770D-03 -0.24606314D-18
  0.41865700D-18 -0.27236655D-03  0.98425248D-18 -0.16747144D-17 -0.27236655D-03
 -0.28622280D-18 -0.92617006D-19  0.20424460D-19 -0.11076421D-04 -0.92617004D-19
  0.20440006D-19  0.16614631D-04  0.37046802D-18 -0.81713388D-19  0.16614631D-04
  0.52283614D-19
END DATA
RHF
