 Molden2AIM, Version 4.0.0 (06/02/2016)           Time: Wed Jun 27 21:54:38 2018
GAUSSIAN              4 MOL ORBITALS    156 PRIMITIVES        4 NUCLEI
  B    1    (CENTRE  1)   0.00000000 -0.00000756  0.00000000  CHARGE =  5.0
  H    2    (CENTRE  2)   0.00000000  2.27297014  0.00000000  CHARGE =  1.0
  H    3    (CENTRE  3)   1.96846723 -1.13648129  0.00000000  CHARGE =  1.0
  H    4    (CENTRE  4)  -1.96846723 -1.13648129  0.00000000  CHARGE =  1.0
CENTRE ASSIGNMENTS    1  1  1  1  1  1  1  1  1  1  1  1  1  1  1  1  1  1  1  1
CENTRE ASSIGNMENTS    1  1  1  1  1  1  1  1  1  1  1  1  1  1  1  1  1  1  1  1
CENTRE ASSIGNMENTS    1  1  1  1  1  1  1  1  1  1  1  1  1  1  1  1  1  1  1  1
CENTRE ASSIGNMENTS    1  1  1  1  1  1  1  1  1  1  1  1  1  1  1  2  2  2  2  2
CENTRE ASSIGNMENTS    2  2  2  2  2  2  2  2  2  2  2  2  2  2  2  2  2  2  2  2
CENTRE ASSIGNMENTS    2  2  3  3  3  3  3  3  3  3  3  3  3  3  3  3  3  3  3  3
CENTRE ASSIGNMENTS    3  3  3  3  3  3  3  3  3  4  4  4  4  4  4  4  4  4  4  4
CENTRE ASSIGNMENTS    4  4  4  4  4  4  4  4  4  4  4  4  4  4  4  4
TYPE ASSIGNMENTS      1  1  1  1  1  1  1  1  1  1  1  1  1  1  1  1  1  1  1  2
TYPE ASSIGNMENTS      2  2  3  3  3  4  4  4  2  3  4  2  3  4  2  3  4  5  6  7
TYPE ASSIGNMENTS      8  9 10  5  6  7  8  9 10  5  6  7  8  9 10 11 12 13 17 14
TYPE ASSIGNMENTS     15 18 19 16 20 11 12 13 17 14 15 18 19 16 20  1  1  1  1  1
TYPE ASSIGNMENTS      1  2  3  4  2  3  4  2  3  4  5  6  7  8  9 10  5  6  7  8
TYPE ASSIGNMENTS      9 10  1  1  1  1  1  1  2  3  4  2  3  4  2  3  4  5  6  7
TYPE ASSIGNMENTS      8  9 10  5  6  7  8  9 10  1  1  1  1  1  1  2  3  4  2  3
TYPE ASSIGNMENTS      4  2  3  4  5  6  7  8  9 10  5  6  7  8  9 10
EXPONENTS  0.5473000D+04 0.8209000D+03 0.1868000D+03 0.5283000D+02 0.1708000D+02
EXPONENTS  0.5999000D+01 0.2208000D+01 0.2415000D+00 0.5473000D+04 0.8209000D+03
EXPONENTS  0.1868000D+03 0.5283000D+02 0.1708000D+02 0.5999000D+01 0.2208000D+01
EXPONENTS  0.2415000D+00 0.5879000D+00 0.8610000D-01 0.2914000D-01 0.1205000D+02
EXPONENTS  0.2613000D+01 0.7475000D+00 0.1205000D+02 0.2613000D+01 0.7475000D+00
EXPONENTS  0.1205000D+02 0.2613000D+01 0.7475000D+00 0.2385000D+00 0.2385000D+00
EXPONENTS  0.2385000D+00 0.7698000D-01 0.7698000D-01 0.7698000D-01 0.2096000D-01
EXPONENTS  0.2096000D-01 0.2096000D-01 0.6610000D+00 0.6610000D+00 0.6610000D+00
EXPONENTS  0.6610000D+00 0.6610000D+00 0.6610000D+00 0.1990000D+00 0.1990000D+00
EXPONENTS  0.1990000D+00 0.1990000D+00 0.1990000D+00 0.1990000D+00 0.6040000D-01
EXPONENTS  0.6040000D-01 0.6040000D-01 0.6040000D-01 0.6040000D-01 0.6040000D-01
EXPONENTS  0.4900000D+00 0.4900000D+00 0.4900000D+00 0.4900000D+00 0.4900000D+00
EXPONENTS  0.4900000D+00 0.4900000D+00 0.4900000D+00 0.4900000D+00 0.4900000D+00
EXPONENTS  0.1630000D+00 0.1630000D+00 0.1630000D+00 0.1630000D+00 0.1630000D+00
EXPONENTS  0.1630000D+00 0.1630000D+00 0.1630000D+00 0.1630000D+00 0.1630000D+00
EXPONENTS  0.3387000D+02 0.5095000D+01 0.1159000D+01 0.3258000D+00 0.1027000D+00
EXPONENTS  0.2526000D-01 0.1407000D+01 0.1407000D+01 0.1407000D+01 0.3880000D+00
EXPONENTS  0.3880000D+00 0.3880000D+00 0.1020000D+00 0.1020000D+00 0.1020000D+00
EXPONENTS  0.1057000D+01 0.1057000D+01 0.1057000D+01 0.1057000D+01 0.1057000D+01
EXPONENTS  0.1057000D+01 0.2470000D+00 0.2470000D+00 0.2470000D+00 0.2470000D+00
EXPONENTS  0.2470000D+00 0.2470000D+00 0.3387000D+02 0.5095000D+01 0.1159000D+01
EXPONENTS  0.3258000D+00 0.1027000D+00 0.2526000D-01 0.1407000D+01 0.1407000D+01
EXPONENTS  0.1407000D+01 0.3880000D+00 0.3880000D+00 0.3880000D+00 0.1020000D+00
EXPONENTS  0.1020000D+00 0.1020000D+00 0.1057000D+01 0.1057000D+01 0.1057000D+01
EXPONENTS  0.1057000D+01 0.1057000D+01 0.1057000D+01 0.2470000D+00 0.2470000D+00
EXPONENTS  0.2470000D+00 0.2470000D+00 0.2470000D+00 0.2470000D+00 0.3387000D+02
EXPONENTS  0.5095000D+01 0.1159000D+01 0.3258000D+00 0.1027000D+00 0.2526000D-01
EXPONENTS  0.1407000D+01 0.1407000D+01 0.1407000D+01 0.3880000D+00 0.3880000D+00
EXPONENTS  0.3880000D+00 0.1020000D+00 0.1020000D+00 0.1020000D+00 0.1057000D+01
EXPONENTS  0.1057000D+01 0.1057000D+01 0.1057000D+01 0.1057000D+01 0.1057000D+01
EXPONENTS  0.2470000D+00 0.2470000D+00 0.2470000D+00 0.2470000D+00 0.2470000D+00
EXPONENTS  0.2470000D+00
MO    1     MO 0.0        OCC NO =    2.0000000  ORB. ENERGY =   -7.616529
  0.25174432D+00  0.46910905D+00  0.79057849D+00  0.11795366D+01  0.14287481D+01
  0.11888249D+01  0.44153574D+00 -0.23440204D-02 -0.31638391D-03 -0.59096900D-03
 -0.10058322D-02 -0.15383094D-02 -0.20006626D-02 -0.20251241D-02 -0.13334415D-02
  0.91148086D-03  0.19569224D-01  0.54291280D-03 -0.21438284D-03 -0.22240159D-15
 -0.20044063D-15 -0.14553289D-15 -0.22013709D-07 -0.19839973D-07 -0.14405107D-07
  0.58070160D-18  0.52336043D-18  0.37999361D-18 -0.14043128D-13 -0.42986208D-08
 -0.11602931D-18 -0.31304441D-14  0.23908128D-09 -0.91437295D-20 -0.15493830D-15
 -0.59984792D-10 -0.41712296D-21  0.36422565D-03  0.36420440D-03 -0.72843005D-03
  0.75564245D-14 -0.25122484D-18  0.36765093D-18 -0.37639162D-04 -0.37625694D-04
  0.75264856D-04  0.44842897D-14  0.21139011D-19 -0.30302862D-19 -0.27707917D-05
 -0.27703306D-05  0.55411222D-05  0.29439333D-15 -0.87773323D-21 -0.57895736D-21
 -0.63131386D-15  0.11320380D-03  0.12329165D-19 -0.29132583D-15 -0.33961215D-03
 -0.51325772D-19  0.21852674D-14  0.75280921D-09  0.14338276D-19 -0.78100683D-19
 -0.45592665D-16 -0.16688492D-04  0.22086783D-20 -0.60900267D-16  0.50065349D-04
 -0.30731170D-20  0.19767826D-15  0.12624859D-09 -0.35529178D-20  0.48587802D-20
  0.69634666D-04  0.12558899D-03  0.18518089D-03  0.29014191D-03 -0.15548801D-03
  0.44177453D-04  0.10742458D-15 -0.22233440D-03 -0.72471036D-19 -0.28042764D-15
  0.37287004D-03 -0.58642623D-19 -0.32345291D-15  0.10097029D-03  0.10387238D-19
 -0.20972828D-04  0.15607400D-03 -0.13510118D-03 -0.25242227D-15  0.15903556D-18
  0.28932648D-18  0.60556160D-04 -0.12478309D-03  0.64226930D-04 -0.11308216D-15
 -0.11780023D-19  0.88188992D-20  0.69634934D-04  0.12558947D-03  0.18518160D-03
  0.29014849D-03 -0.15548257D-03  0.44177475D-04 -0.19254581D-03  0.11115726D-03
  0.32164174D-18  0.32292922D-03 -0.18642795D-03  0.58212598D-19  0.87444902D-04
 -0.50483240D-04  0.21886246D-20  0.11180091D-03  0.23291349D-04 -0.13509226D-03
 -0.15330619D-03 -0.63888809D-18  0.27996934D-18 -0.78452739D-04  0.14223701D-04
  0.64229038D-04  0.16050696D-03 -0.11077605D-19  0.16010132D-19  0.69634934D-04
  0.12558947D-03  0.18518160D-03  0.29014849D-03 -0.15548257D-03  0.44177475D-04
  0.19254581D-03  0.11115726D-03  0.12153165D-18 -0.32292922D-03 -0.18642795D-03
  0.73638605D-19 -0.87444902D-04 -0.50483240D-04  0.13040364D-19  0.11180091D-03
  0.23291349D-04 -0.13509226D-03  0.15330619D-03  0.26769903D-18 -0.90259496D-19
 -0.78452739D-04  0.14223701D-04  0.64229038D-04 -0.16050696D-03  0.21418202D-19
  0.19095334D-19
MO    2     MO 0.0        OCC NO =    2.0000000  ORB. ENERGY =   -0.701540
 -0.31337170D-02 -0.58394764D-02 -0.98411328D-02 -0.14682889D-01 -0.17785078D-01
 -0.14798510D-01 -0.54962434D-02  0.29178401D-04 -0.39942554D-01 -0.74608128D-01
 -0.12698341D+00 -0.19420711D+00 -0.25257787D+00 -0.25566606D+00 -0.16834314D+00
  0.11507182D+00  0.35372520D-01  0.22934773D-01 -0.21119606D-02  0.15196827D-15
  0.13696222D-15  0.99443454D-16  0.12718805D-05  0.11462891D-05  0.83228022D-06
 -0.79504636D-17 -0.71653980D-17 -0.52025436D-17 -0.17196344D-15  0.27592304D-06
  0.39695510D-17 -0.58960173D-15 -0.51710573D-09  0.40471649D-18 -0.12665560D-14
 -0.96229520D-09 -0.42499931D-19  0.83233187D-02  0.83229971D-02 -0.16646316D-01
  0.37130599D-15  0.39233722D-18  0.34290300D-17  0.14633001D-02  0.14632750D-02
 -0.29265751D-02  0.19618508D-14  0.49214722D-18 -0.11946621D-17  0.10175060D-04
  0.10176279D-04 -0.20351339D-04  0.77611162D-15 -0.13797393D-18 -0.13472761D-18
 -0.26171284D-15  0.34617846D-02 -0.52279232D-19  0.60294348D-15 -0.10385330D-01
  0.16534162D-17  0.18219505D-15 -0.23840583D-07 -0.14965785D-17 -0.16465139D-17
 -0.69327596D-16  0.22765395D-03  0.41880080D-19  0.13390528D-15 -0.68296187D-03
  0.21433932D-18  0.74077509D-16  0.28223639D-10 -0.33997956D-18  0.23946516D-18
  0.24225539D-01  0.43691758D-01  0.64423471D-01  0.34792381D-01  0.42473688D-02
  0.46007855D-03  0.12118407D-15 -0.14558318D-01  0.15577952D-17 -0.10293394D-14
 -0.57225353D-03  0.93415253D-18 -0.23535175D-14  0.20099552D-03 -0.35545825D-18
 -0.72882983D-03  0.22219925D-02 -0.14931627D-02  0.34571205D-15  0.29663456D-17
 -0.16758871D-17  0.30880266D-03 -0.34435979D-03  0.35557133D-04  0.87858128D-15
 -0.25951021D-18 -0.15293198D-18  0.24225393D-01  0.43691493D-01  0.64423081D-01
  0.34792230D-01  0.42473409D-02  0.46007334D-03 -0.12607758D-01  0.72790303D-02
  0.61545473D-17 -0.49557122D-03  0.28618668D-03 -0.13986961D-17  0.17407174D-03
 -0.10048846D-03 -0.80568848D-18  0.14842568D-02  0.89060283D-05 -0.14931628D-02
 -0.25554605D-02 -0.12069431D-16  0.29446700D-17 -0.18107744D-03  0.14551943D-03
  0.35558007D-04  0.56565498D-03  0.54860800D-18  0.12605030D-18  0.24225393D-01
  0.43691493D-01  0.64423081D-01  0.34792230D-01  0.42473409D-02  0.46007334D-03
  0.12607758D-01  0.72790303D-02  0.25351848D-17  0.49557122D-03  0.28618668D-03
 -0.29297923D-18 -0.17407174D-03 -0.10048846D-03  0.18041513D-18  0.14842568D-02
  0.89060283D-05 -0.14931628D-02  0.25554605D-02  0.65675267D-17 -0.25359691D-17
 -0.18107744D-03  0.14551943D-03  0.35558007D-04 -0.56565498D-03  0.20462392D-18
 -0.39212030D-18
MO    3     MO 0.0        OCC NO =    2.0000000  ORB. ENERGY =   -0.496177
  0.10355149D-14  0.19296142D-14  0.32519336D-14  0.48518583D-14  0.58769547D-14
  0.48900642D-14  0.18161953D-14 -0.96417988D-17 -0.81933087D-15 -0.15304165D-14
 -0.26047765D-14 -0.39837182D-14 -0.51810619D-14 -0.52444091D-14 -0.34531775D-14
  0.23604373D-14  0.82990908D-14  0.48198560D-13 -0.96435683D-16  0.28196549D+00
  0.25412291D+00  0.18450971D+00  0.25746507D-09  0.23204177D-09  0.16847737D-09
  0.39026720D-15  0.35173041D-15  0.25537909D-15  0.64944506D-01  0.59294738D-10
  0.30511887D-16  0.18533095D-02  0.16868279D-11  0.39882162D-16 -0.39425626D-05
 -0.38030468D-14 -0.80726271D-17 -0.18160683D-10  0.18157806D-10  0.28770172D-14
 -0.39776425D-01 -0.13915797D-15  0.18288673D-15 -0.31530890D-11  0.31515676D-11
  0.15213886D-14 -0.69071191D-02  0.31933333D-16 -0.40119086D-16 -0.65437427D-13
  0.65496183D-13 -0.58756469D-16 -0.14396483D-03  0.47361052D-17  0.88360082D-17
  0.51588623D-03  0.46906356D-12  0.18308982D-16  0.51560838D-03  0.47627207D-12
  0.30666961D-16 -0.20632671D-02 -0.18834628D-11 -0.85593906D-16 -0.22263382D-16
  0.25868927D-04  0.22904434D-13 -0.33172274D-17  0.25848159D-04  0.25552839D-13
  0.31428734D-17 -0.10345494D-03 -0.94266143D-13  0.68088089D-17  0.15181672D-16
  0.38283664D-10  0.69046164D-10  0.10180853D-09  0.66908349D-10  0.28044629D-10
  0.40247041D-12  0.74456623D-02 -0.16367079D-10 -0.54001449D-16  0.42111147D-02
 -0.53843258D-11  0.55048448D-16  0.88497746D-03 -0.27122071D-11 -0.20684457D-16
 -0.13530174D-11  0.11489015D-11  0.20411584D-12 -0.83062466D-02  0.29413472D-15
 -0.16197468D-15 -0.46735546D-12  0.83950785D-12 -0.37215240D-12 -0.11515257D-03
 -0.24050473D-16  0.84051581D-17  0.36310130D-01  0.65486815D-01  0.96560270D-01
  0.63439726D-01  0.26603363D-01  0.37986068D-03 -0.11579796D-01  0.10984047D-01
  0.10293100D-15 -0.33660193D-02  0.43744848D-02 -0.10533893D-15 -0.20100302D-02
  0.16714015D-02 -0.46437519D-16 -0.13033657D-02  0.11085272D-02  0.19483851D-03
 -0.41283351D-02  0.69067954D-16  0.10452660D-15  0.46210219D-03 -0.10811428D-03
 -0.35398790D-03 -0.11027530D-02  0.32802046D-16 -0.22041883D-16 -0.36310130D-01
 -0.65486815D-01 -0.96560270D-01 -0.63439726D-01 -0.26603363D-01 -0.37986068D-03
 -0.11579796D-01 -0.10984047D-01 -0.42426557D-16 -0.33660193D-02 -0.43744848D-02
 -0.50429056D-16 -0.20100302D-02 -0.16714015D-02  0.25291193D-16  0.13033657D-02
 -0.11085271D-02 -0.19483851D-03 -0.41283351D-02 -0.31723762D-16 -0.23963135D-15
 -0.46210219D-03  0.10811428D-03  0.35398791D-03 -0.11027530D-02  0.22406071D-17
  0.21773324D-16
MO    4     MO 0.0        OCC NO =    2.0000000  ORB. ENERGY =   -0.496175
 -0.35328257D-09 -0.65831894D-09 -0.11094495D-08 -0.16552895D-08 -0.20050177D-08
 -0.16683241D-08 -0.61962424D-09  0.32894548D-11  0.15680937D-06  0.29290199D-06
  0.49852067D-06  0.76243235D-06  0.99158850D-06  0.10037123D-05  0.66089368D-06
 -0.45175729D-06 -0.11362849D-06 -0.21197346D-06 -0.14809075D-07 -0.25746577D-09
 -0.23204240D-09 -0.16847783D-09  0.28196540D+00  0.25412283D+00  0.18450965D+00
 -0.18053041D-15 -0.16270400D-15 -0.11813366D-15 -0.59307130D-10  0.64944870D-01
 -0.56289518D-16 -0.17082691D-11  0.18534169D-02 -0.13757245D-16  0.92394173D-15
 -0.39414826D-05  0.42141539D-17 -0.19888654D-01  0.19888628D-01  0.26250689D-07
  0.36321177D-10  0.22183569D-16 -0.18226466D-17 -0.34536625D-02  0.34536508D-02
  0.11672015D-07  0.63159471D-11 -0.98210153D-18 -0.62687095D-17 -0.71985639D-04
  0.71984192D-04  0.14473067D-08  0.13407086D-12 -0.15259407D-17 -0.19110039D-17
 -0.47007977D-12  0.51580736D-03 -0.38111809D-19 -0.47274704D-12  0.51586811D-03
 -0.41940636D-17  0.18829864D-11 -0.20632902D-02  0.43083991D-17  0.11247937D-16
 -0.23469475D-13  0.25862022D-04 -0.32004279D-19 -0.24027924D-13  0.25869702D-04
  0.29674323D-17  0.94436349D-13 -0.10345577D-03 -0.28714194D-17  0.25114327D-17
  0.41927307D-01  0.75617626D-01  0.11149814D+00  0.73253608D-01  0.30718971D-01
  0.43862428D-03 -0.67965731D-11 -0.17921201D-01 -0.65989695D-17 -0.38482468D-11
 -0.58914183D-02  0.33305789D-17 -0.81256597D-12 -0.29750089D-02  0.68281765D-17
 -0.14803172D-02  0.12552830D-02  0.22503413D-03  0.75816198D-11  0.47689453D-18
 -0.26024969D-17 -0.51159694D-03  0.92035261D-03 -0.40875567D-03  0.10853134D-12
 -0.11380375D-17  0.59799808D-17 -0.20963673D-01 -0.37808848D-01 -0.55749124D-01
 -0.36626833D-01 -0.15359469D-01 -0.21930860D-03  0.10984101D-01  0.11040645D-02
 -0.10085877D-16  0.43745005D-02  0.16854974D-02  0.12795770D-16  0.16714381D-02
 -0.80003956D-04  0.28410112D-17 -0.34004942D-02  0.35130080D-02 -0.11251381D-03
 -0.24122765D-02  0.85165490D-18 -0.14294597D-16 -0.32436878D-03  0.11998446D-03
  0.20438432D-03  0.57018459D-03 -0.14040809D-16  0.34410574D-18 -0.20963673D-01
 -0.37808848D-01 -0.55749124D-01 -0.36626833D-01 -0.15359469D-01 -0.21930860D-03
 -0.10984101D-01  0.11040646D-02 -0.14898264D-16 -0.43745005D-02  0.16854974D-02
 -0.10317564D-16 -0.16714381D-02 -0.80003953D-04 -0.15684498D-16 -0.34004942D-02
  0.35130080D-02 -0.11251381D-03  0.24122765D-02 -0.10755462D-16 -0.15480835D-17
 -0.32436878D-03  0.11998446D-03  0.20438432D-03 -0.57018459D-03 -0.42548592D-17
 -0.60338748D-17
END DATA
RHF
