 Molden2AIM, Version 4.0.0 (06/02/2016)           Time: Wed Jun 27 23:15:09 2018
GAUSSIAN             47 MOL ORBITALS    751 PRIMITIVES        5 NUCLEI
  Br   1    (CENTRE  1)  -9.97508942 -3.35231178  0.67267069  CHARGE = 35.0
  O    2    (CENTRE  2)  -6.56375015 -3.08510451  0.01725887  CHARGE =  8.0
  Br   3    (CENTRE  3)  -5.42450041  0.23079414 -0.33996929  CHARGE = 35.0
  O    4    (CENTRE  4)  -3.72171356  4.49279174 -0.84197125  CHARGE =  8.0
  O    5    (CENTRE  5)  -1.51468163  4.73004307 -1.26265641  CHARGE =  8.0
CENTRE ASSIGNMENTS    1  1  1  1  1  1  1  1  1  1  1  1  1  1  1  1  1  1  1  1
CENTRE ASSIGNMENTS    1  1  1  1  1  1  1  1  1  1  1  1  1  1  1  1  1  1  1  1
CENTRE ASSIGNMENTS    1  1  1  1  1  1  1  1  1  1  1  1  1  1  1  1  1  1  1  1
CENTRE ASSIGNMENTS    1  1  1  1  1  1  1  1  1  1  1  1  1  1  1  1  1  1  1  1
CENTRE ASSIGNMENTS    1  1  1  1  1  1  1  1  1  1  1  1  1  1  1  1  1  1  1  1
CENTRE ASSIGNMENTS    1  1  1  1  1  1  1  1  1  1  1  1  1  1  1  1  1  1  1  1
CENTRE ASSIGNMENTS    1  1  1  1  1  1  1  1  1  1  1  1  1  1  1  1  1  1  1  1
CENTRE ASSIGNMENTS    1  1  1  1  1  1  1  1  1  1  1  1  1  1  1  1  1  1  1  1
CENTRE ASSIGNMENTS    1  1  1  1  1  1  1  1  1  1  1  1  1  1  1  1  1  1  1  1
CENTRE ASSIGNMENTS    1  1  1  1  1  1  1  1  1  1  1  1  1  1  1  1  1  1  1  1
CENTRE ASSIGNMENTS    1  1  1  1  1  1  1  1  1  1  1  1  1  1  1  1  1  1  1  1
CENTRE ASSIGNMENTS    1  1  1  1  1  1  1  1  1  1  1  1  1  1  1  1  1  1  1  1
CENTRE ASSIGNMENTS    1  1  1  1  1  1  1  1  1  1  1  1  1  1  1  1  1  1  1  1
CENTRE ASSIGNMENTS    1  1  1  2  2  2  2  2  2  2  2  2  2  2  2  2  2  2  2  2
CENTRE ASSIGNMENTS    2  2  2  2  2  2  2  2  2  2  2  2  2  2  2  2  2  2  2  2
CENTRE ASSIGNMENTS    2  2  2  2  2  2  2  2  2  2  2  2  2  2  2  2  2  2  2  2
CENTRE ASSIGNMENTS    2  2  2  2  2  2  2  2  2  2  2  2  2  2  2  2  2  2  3  3
CENTRE ASSIGNMENTS    3  3  3  3  3  3  3  3  3  3  3  3  3  3  3  3  3  3  3  3
CENTRE ASSIGNMENTS    3  3  3  3  3  3  3  3  3  3  3  3  3  3  3  3  3  3  3  3
CENTRE ASSIGNMENTS    3  3  3  3  3  3  3  3  3  3  3  3  3  3  3  3  3  3  3  3
CENTRE ASSIGNMENTS    3  3  3  3  3  3  3  3  3  3  3  3  3  3  3  3  3  3  3  3
CENTRE ASSIGNMENTS    3  3  3  3  3  3  3  3  3  3  3  3  3  3  3  3  3  3  3  3
CENTRE ASSIGNMENTS    3  3  3  3  3  3  3  3  3  3  3  3  3  3  3  3  3  3  3  3
CENTRE ASSIGNMENTS    3  3  3  3  3  3  3  3  3  3  3  3  3  3  3  3  3  3  3  3
CENTRE ASSIGNMENTS    3  3  3  3  3  3  3  3  3  3  3  3  3  3  3  3  3  3  3  3
CENTRE ASSIGNMENTS    3  3  3  3  3  3  3  3  3  3  3  3  3  3  3  3  3  3  3  3
CENTRE ASSIGNMENTS    3  3  3  3  3  3  3  3  3  3  3  3  3  3  3  3  3  3  3  3
CENTRE ASSIGNMENTS    3  3  3  3  3  3  3  3  3  3  3  3  3  3  3  3  3  3  3  3
CENTRE ASSIGNMENTS    3  3  3  3  3  3  3  3  3  3  3  3  3  3  3  3  3  3  3  3
CENTRE ASSIGNMENTS    3  3  3  3  3  3  3  3  3  3  3  3  3  3  3  3  3  3  3  3
CENTRE ASSIGNMENTS    3  4  4  4  4  4  4  4  4  4  4  4  4  4  4  4  4  4  4  4
CENTRE ASSIGNMENTS    4  4  4  4  4  4  4  4  4  4  4  4  4  4  4  4  4  4  4  4
CENTRE ASSIGNMENTS    4  4  4  4  4  4  4  4  4  4  4  4  4  4  4  4  4  4  4  4
CENTRE ASSIGNMENTS    4  4  4  4  4  4  4  4  4  4  4  4  4  4  4  4  5  5  5  5
CENTRE ASSIGNMENTS    5  5  5  5  5  5  5  5  5  5  5  5  5  5  5  5  5  5  5  5
CENTRE ASSIGNMENTS    5  5  5  5  5  5  5  5  5  5  5  5  5  5  5  5  5  5  5  5
CENTRE ASSIGNMENTS    5  5  5  5  5  5  5  5  5  5  5  5  5  5  5  5  5  5  5  5
CENTRE ASSIGNMENTS    5  5  5  5  5  5  5  5  5  5  5
TYPE ASSIGNMENTS      1  1  1  1  1  1  1  1  1  1  1  1  1  1  1  1  1  1  1  1
TYPE ASSIGNMENTS      1  1  1  1  1  1  1  1  1  1  1  1  1  1  1  1  1  1  1  1
TYPE ASSIGNMENTS      1  1  1  1  1  1  1  1  1  1  1  1  1  1  1  1  1  1  1  1
TYPE ASSIGNMENTS      1  1  1  1  1  1  1  1  1  1  1  1  1  1  1  2  2  2  2  2
TYPE ASSIGNMENTS      2  2  2  2  2  2  3  3  3  3  3  3  3  3  3  3  3  4  4  4
TYPE ASSIGNMENTS      4  4  4  4  4  4  4  4  2  2  2  2  2  2  2  2  2  2  2  3
TYPE ASSIGNMENTS      3  3  3  3  3  3  3  3  3  3  4  4  4  4  4  4  4  4  4  4
TYPE ASSIGNMENTS      4  2  2  2  2  2  2  2  2  2  2  2  3  3  3  3  3  3  3  3
TYPE ASSIGNMENTS      3  3  3  4  4  4  4  4  4  4  4  4  4  4  2  3  4  2  3  4
TYPE ASSIGNMENTS      2  3  4  5  5  5  5  5  5  5  6  6  6  6  6  6  6  7  7  7
TYPE ASSIGNMENTS      7  7  7  7  8  8  8  8  8  8  8  9  9  9  9  9  9  9 10 10
TYPE ASSIGNMENTS     10 10 10 10 10  5  6  7  8  9 10  5  6  7  8  9 10  5  6  7
TYPE ASSIGNMENTS      8  9 10 11 12 13 17 14 15 18 19 16 20 11 12 13 17 14 15 18
TYPE ASSIGNMENTS     19 16 20  1  1  1  1  1  1  1  1  1  1  1  1  1  1  1  1  1
TYPE ASSIGNMENTS      1  1  2  2  2  3  3  3  4  4  4  2  3  4  2  3  4  2  3  4
TYPE ASSIGNMENTS      5  6  7  8  9 10  5  6  7  8  9 10  5  6  7  8  9 10 11 12
TYPE ASSIGNMENTS     13 17 14 15 18 19 16 20 11 12 13 17 14 15 18 19 16 20  1  1
TYPE ASSIGNMENTS      1  1  1  1  1  1  1  1  1  1  1  1  1  1  1  1  1  1  1  1
TYPE ASSIGNMENTS      1  1  1  1  1  1  1  1  1  1  1  1  1  1  1  1  1  1  1  1
TYPE ASSIGNMENTS      1  1  1  1  1  1  1  1  1  1  1  1  1  1  1  1  1  1  1  1
TYPE ASSIGNMENTS      1  1  1  1  1  1  1  1  1  1  1  1  1  2  2  2  2  2  2  2
TYPE ASSIGNMENTS      2  2  2  2  3  3  3  3  3  3  3  3  3  3  3  4  4  4  4  4
TYPE ASSIGNMENTS      4  4  4  4  4  4  2  2  2  2  2  2  2  2  2  2  2  3  3  3
TYPE ASSIGNMENTS      3  3  3  3  3  3  3  3  4  4  4  4  4  4  4  4  4  4  4  2
TYPE ASSIGNMENTS      2  2  2  2  2  2  2  2  2  2  3  3  3  3  3  3  3  3  3  3
TYPE ASSIGNMENTS      3  4  4  4  4  4  4  4  4  4  4  4  2  3  4  2  3  4  2  3
TYPE ASSIGNMENTS      4  5  5  5  5  5  5  5  6  6  6  6  6  6  6  7  7  7  7  7
TYPE ASSIGNMENTS      7  7  8  8  8  8  8  8  8  9  9  9  9  9  9  9 10 10 10 10
TYPE ASSIGNMENTS     10 10 10  5  6  7  8  9 10  5  6  7  8  9 10  5  6  7  8  9
TYPE ASSIGNMENTS     10 11 12 13 17 14 15 18 19 16 20 11 12 13 17 14 15 18 19 16
TYPE ASSIGNMENTS     20  1  1  1  1  1  1  1  1  1  1  1  1  1  1  1  1  1  1  1
TYPE ASSIGNMENTS      2  2  2  3  3  3  4  4  4  2  3  4  2  3  4  2  3  4  5  6
TYPE ASSIGNMENTS      7  8  9 10  5  6  7  8  9 10  5  6  7  8  9 10 11 12 13 17
TYPE ASSIGNMENTS     14 15 18 19 16 20 11 12 13 17 14 15 18 19 16 20  1  1  1  1
TYPE ASSIGNMENTS      1  1  1  1  1  1  1  1  1  1  1  1  1  1  1  2  2  2  3  3
TYPE ASSIGNMENTS      3  4  4  4  2  3  4  2  3  4  2  3  4  5  6  7  8  9 10  5
TYPE ASSIGNMENTS      6  7  8  9 10  5  6  7  8  9 10 11 12 13 17 14 15 18 19 16
TYPE ASSIGNMENTS     20 11 12 13 17 14 15 18 19 16 20
EXPONENTS  0.1063900D+08 0.1593400D+07 0.3626100D+06 0.1027000D+06 0.3350100D+05
EXPONENTS  0.1209300D+05 0.4715900D+04 0.1955600D+04 0.8526100D+03 0.3876700D+03
EXPONENTS  0.1826800D+03 0.8824500D+02 0.3926300D+02 0.1923400D+02 0.9405700D+01
EXPONENTS  0.4160100D+01 0.1899500D+01 0.3011400D+00 0.1063900D+08 0.1593400D+07
EXPONENTS  0.3626100D+06 0.1027000D+06 0.3350100D+05 0.1209300D+05 0.4715900D+04
EXPONENTS  0.1955600D+04 0.8526100D+03 0.3876700D+03 0.1826800D+03 0.8824500D+02
EXPONENTS  0.3926300D+02 0.1923400D+02 0.9405700D+01 0.4160100D+01 0.1899500D+01
EXPONENTS  0.3011400D+00 0.1063900D+08 0.1593400D+07 0.3626100D+06 0.1027000D+06
EXPONENTS  0.3350100D+05 0.1209300D+05 0.4715900D+04 0.1955600D+04 0.8526100D+03
EXPONENTS  0.3876700D+03 0.1826800D+03 0.8824500D+02 0.3926300D+02 0.1923400D+02
EXPONENTS  0.9405700D+01 0.4160100D+01 0.1899500D+01 0.3011400D+00 0.1063900D+08
EXPONENTS  0.1593400D+07 0.3626100D+06 0.1027000D+06 0.3350100D+05 0.1209300D+05
EXPONENTS  0.4715900D+04 0.1955600D+04 0.8526100D+03 0.3876700D+03 0.1826800D+03
EXPONENTS  0.8824500D+02 0.3926300D+02 0.1923400D+02 0.9405700D+01 0.4160100D+01
EXPONENTS  0.1899500D+01 0.3011400D+00 0.6047200D+00 0.1251500D+00 0.4559300D-01
EXPONENTS  0.8676500D+04 0.2055900D+04 0.6662300D+03 0.2531000D+03 0.1061200D+03
EXPONENTS  0.4724200D+02 0.2182500D+02 0.9968400D+01 0.4517100D+01 0.1998200D+01
EXPONENTS  0.2814500D+00 0.8676500D+04 0.2055900D+04 0.6662300D+03 0.2531000D+03
EXPONENTS  0.1061200D+03 0.4724200D+02 0.2182500D+02 0.9968400D+01 0.4517100D+01
EXPONENTS  0.1998200D+01 0.2814500D+00 0.8676500D+04 0.2055900D+04 0.6662300D+03
EXPONENTS  0.2531000D+03 0.1061200D+03 0.4724200D+02 0.2182500D+02 0.9968400D+01
EXPONENTS  0.4517100D+01 0.1998200D+01 0.2814500D+00 0.8676500D+04 0.2055900D+04
EXPONENTS  0.6662300D+03 0.2531000D+03 0.1061200D+03 0.4724200D+02 0.2182500D+02
EXPONENTS  0.9968400D+01 0.4517100D+01 0.1998200D+01 0.2814500D+00 0.8676500D+04
EXPONENTS  0.2055900D+04 0.6662300D+03 0.2531000D+03 0.1061200D+03 0.4724200D+02
EXPONENTS  0.2182500D+02 0.9968400D+01 0.4517100D+01 0.1998200D+01 0.2814500D+00
EXPONENTS  0.8676500D+04 0.2055900D+04 0.6662300D+03 0.2531000D+03 0.1061200D+03
EXPONENTS  0.4724200D+02 0.2182500D+02 0.9968400D+01 0.4517100D+01 0.1998200D+01
EXPONENTS  0.2814500D+00 0.8676500D+04 0.2055900D+04 0.6662300D+03 0.2531000D+03
EXPONENTS  0.1061200D+03 0.4724200D+02 0.2182500D+02 0.9968400D+01 0.4517100D+01
EXPONENTS  0.1998200D+01 0.2814500D+00 0.8676500D+04 0.2055900D+04 0.6662300D+03
EXPONENTS  0.2531000D+03 0.1061200D+03 0.4724200D+02 0.2182500D+02 0.9968400D+01
EXPONENTS  0.4517100D+01 0.1998200D+01 0.2814500D+00 0.8676500D+04 0.2055900D+04
EXPONENTS  0.6662300D+03 0.2531000D+03 0.1061200D+03 0.4724200D+02 0.2182500D+02
EXPONENTS  0.9968400D+01 0.4517100D+01 0.1998200D+01 0.2814500D+00 0.7098800D+00
EXPONENTS  0.7098800D+00 0.7098800D+00 0.1020400D+00 0.1020400D+00 0.1020400D+00
EXPONENTS  0.3514200D-01 0.3514200D-01 0.3514200D-01 0.4038300D+03 0.1211700D+03
EXPONENTS  0.4634500D+02 0.1972100D+02 0.8862400D+01 0.3996200D+01 0.1763600D+01
EXPONENTS  0.4038300D+03 0.1211700D+03 0.4634500D+02 0.1972100D+02 0.8862400D+01
EXPONENTS  0.3996200D+01 0.1763600D+01 0.4038300D+03 0.1211700D+03 0.4634500D+02
EXPONENTS  0.1972100D+02 0.8862400D+01 0.3996200D+01 0.1763600D+01 0.4038300D+03
EXPONENTS  0.1211700D+03 0.4634500D+02 0.1972100D+02 0.8862400D+01 0.3996200D+01
EXPONENTS  0.1763600D+01 0.4038300D+03 0.1211700D+03 0.4634500D+02 0.1972100D+02
EXPONENTS  0.8862400D+01 0.3996200D+01 0.1763600D+01 0.4038300D+03 0.1211700D+03
EXPONENTS  0.4634500D+02 0.1972100D+02 0.8862400D+01 0.3996200D+01 0.1763600D+01
EXPONENTS  0.7061900D+00 0.7061900D+00 0.7061900D+00 0.7061900D+00 0.7061900D+00
EXPONENTS  0.7061900D+00 0.2639000D+00 0.2639000D+00 0.2639000D+00 0.2639000D+00
EXPONENTS  0.2639000D+00 0.2639000D+00 0.1047000D+00 0.1047000D+00 0.1047000D+00
EXPONENTS  0.1047000D+00 0.1047000D+00 0.1047000D+00 0.5515000D+00 0.5515000D+00
EXPONENTS  0.5515000D+00 0.5515000D+00 0.5515000D+00 0.5515000D+00 0.5515000D+00
EXPONENTS  0.5515000D+00 0.5515000D+00 0.5515000D+00 0.2580000D+00 0.2580000D+00
EXPONENTS  0.2580000D+00 0.2580000D+00 0.2580000D+00 0.2580000D+00 0.2580000D+00
EXPONENTS  0.2580000D+00 0.2580000D+00 0.2580000D+00 0.1533000D+05 0.2299000D+04
EXPONENTS  0.5224000D+03 0.1473000D+03 0.4755000D+02 0.1676000D+02 0.6207000D+01
EXPONENTS  0.6882000D+00 0.1533000D+05 0.2299000D+04 0.5224000D+03 0.1473000D+03
EXPONENTS  0.4755000D+02 0.1676000D+02 0.6207000D+01 0.6882000D+00 0.1752000D+01
EXPONENTS  0.2384000D+00 0.7376000D-01 0.3446000D+02 0.7749000D+01 0.2280000D+01
EXPONENTS  0.3446000D+02 0.7749000D+01 0.2280000D+01 0.3446000D+02 0.7749000D+01
EXPONENTS  0.2280000D+01 0.7156000D+00 0.7156000D+00 0.7156000D+00 0.2140000D+00
EXPONENTS  0.2140000D+00 0.2140000D+00 0.5974000D-01 0.5974000D-01 0.5974000D-01
EXPONENTS  0.2314000D+01 0.2314000D+01 0.2314000D+01 0.2314000D+01 0.2314000D+01
EXPONENTS  0.2314000D+01 0.6450000D+00 0.6450000D+00 0.6450000D+00 0.6450000D+00
EXPONENTS  0.6450000D+00 0.6450000D+00 0.2140000D+00 0.2140000D+00 0.2140000D+00
EXPONENTS  0.2140000D+00 0.2140000D+00 0.2140000D+00 0.1428000D+01 0.1428000D+01
EXPONENTS  0.1428000D+01 0.1428000D+01 0.1428000D+01 0.1428000D+01 0.1428000D+01
EXPONENTS  0.1428000D+01 0.1428000D+01 0.1428000D+01 0.5000000D+00 0.5000000D+00
EXPONENTS  0.5000000D+00 0.5000000D+00 0.5000000D+00 0.5000000D+00 0.5000000D+00
EXPONENTS  0.5000000D+00 0.5000000D+00 0.5000000D+00 0.1063900D+08 0.1593400D+07
EXPONENTS  0.3626100D+06 0.1027000D+06 0.3350100D+05 0.1209300D+05 0.4715900D+04
EXPONENTS  0.1955600D+04 0.8526100D+03 0.3876700D+03 0.1826800D+03 0.8824500D+02
EXPONENTS  0.3926300D+02 0.1923400D+02 0.9405700D+01 0.4160100D+01 0.1899500D+01
EXPONENTS  0.3011400D+00 0.1063900D+08 0.1593400D+07 0.3626100D+06 0.1027000D+06
EXPONENTS  0.3350100D+05 0.1209300D+05 0.4715900D+04 0.1955600D+04 0.8526100D+03
EXPONENTS  0.3876700D+03 0.1826800D+03 0.8824500D+02 0.3926300D+02 0.1923400D+02
EXPONENTS  0.9405700D+01 0.4160100D+01 0.1899500D+01 0.3011400D+00 0.1063900D+08
EXPONENTS  0.1593400D+07 0.3626100D+06 0.1027000D+06 0.3350100D+05 0.1209300D+05
EXPONENTS  0.4715900D+04 0.1955600D+04 0.8526100D+03 0.3876700D+03 0.1826800D+03
EXPONENTS  0.8824500D+02 0.3926300D+02 0.1923400D+02 0.9405700D+01 0.4160100D+01
EXPONENTS  0.1899500D+01 0.3011400D+00 0.1063900D+08 0.1593400D+07 0.3626100D+06
EXPONENTS  0.1027000D+06 0.3350100D+05 0.1209300D+05 0.4715900D+04 0.1955600D+04
EXPONENTS  0.8526100D+03 0.3876700D+03 0.1826800D+03 0.8824500D+02 0.3926300D+02
EXPONENTS  0.1923400D+02 0.9405700D+01 0.4160100D+01 0.1899500D+01 0.3011400D+00
EXPONENTS  0.6047200D+00 0.1251500D+00 0.4559300D-01 0.8676500D+04 0.2055900D+04
EXPONENTS  0.6662300D+03 0.2531000D+03 0.1061200D+03 0.4724200D+02 0.2182500D+02
EXPONENTS  0.9968400D+01 0.4517100D+01 0.1998200D+01 0.2814500D+00 0.8676500D+04
EXPONENTS  0.2055900D+04 0.6662300D+03 0.2531000D+03 0.1061200D+03 0.4724200D+02
EXPONENTS  0.2182500D+02 0.9968400D+01 0.4517100D+01 0.1998200D+01 0.2814500D+00
EXPONENTS  0.8676500D+04 0.2055900D+04 0.6662300D+03 0.2531000D+03 0.1061200D+03
EXPONENTS  0.4724200D+02 0.2182500D+02 0.9968400D+01 0.4517100D+01 0.1998200D+01
EXPONENTS  0.2814500D+00 0.8676500D+04 0.2055900D+04 0.6662300D+03 0.2531000D+03
EXPONENTS  0.1061200D+03 0.4724200D+02 0.2182500D+02 0.9968400D+01 0.4517100D+01
EXPONENTS  0.1998200D+01 0.2814500D+00 0.8676500D+04 0.2055900D+04 0.6662300D+03
EXPONENTS  0.2531000D+03 0.1061200D+03 0.4724200D+02 0.2182500D+02 0.9968400D+01
EXPONENTS  0.4517100D+01 0.1998200D+01 0.2814500D+00 0.8676500D+04 0.2055900D+04
EXPONENTS  0.6662300D+03 0.2531000D+03 0.1061200D+03 0.4724200D+02 0.2182500D+02
EXPONENTS  0.9968400D+01 0.4517100D+01 0.1998200D+01 0.2814500D+00 0.8676500D+04
EXPONENTS  0.2055900D+04 0.6662300D+03 0.2531000D+03 0.1061200D+03 0.4724200D+02
EXPONENTS  0.2182500D+02 0.9968400D+01 0.4517100D+01 0.1998200D+01 0.2814500D+00
EXPONENTS  0.8676500D+04 0.2055900D+04 0.6662300D+03 0.2531000D+03 0.1061200D+03
EXPONENTS  0.4724200D+02 0.2182500D+02 0.9968400D+01 0.4517100D+01 0.1998200D+01
EXPONENTS  0.2814500D+00 0.8676500D+04 0.2055900D+04 0.6662300D+03 0.2531000D+03
EXPONENTS  0.1061200D+03 0.4724200D+02 0.2182500D+02 0.9968400D+01 0.4517100D+01
EXPONENTS  0.1998200D+01 0.2814500D+00 0.7098800D+00 0.7098800D+00 0.7098800D+00
EXPONENTS  0.1020400D+00 0.1020400D+00 0.1020400D+00 0.3514200D-01 0.3514200D-01
EXPONENTS  0.3514200D-01 0.4038300D+03 0.1211700D+03 0.4634500D+02 0.1972100D+02
EXPONENTS  0.8862400D+01 0.3996200D+01 0.1763600D+01 0.4038300D+03 0.1211700D+03
EXPONENTS  0.4634500D+02 0.1972100D+02 0.8862400D+01 0.3996200D+01 0.1763600D+01
EXPONENTS  0.4038300D+03 0.1211700D+03 0.4634500D+02 0.1972100D+02 0.8862400D+01
EXPONENTS  0.3996200D+01 0.1763600D+01 0.4038300D+03 0.1211700D+03 0.4634500D+02
EXPONENTS  0.1972100D+02 0.8862400D+01 0.3996200D+01 0.1763600D+01 0.4038300D+03
EXPONENTS  0.1211700D+03 0.4634500D+02 0.1972100D+02 0.8862400D+01 0.3996200D+01
EXPONENTS  0.1763600D+01 0.4038300D+03 0.1211700D+03 0.4634500D+02 0.1972100D+02
EXPONENTS  0.8862400D+01 0.3996200D+01 0.1763600D+01 0.7061900D+00 0.7061900D+00
EXPONENTS  0.7061900D+00 0.7061900D+00 0.7061900D+00 0.7061900D+00 0.2639000D+00
EXPONENTS  0.2639000D+00 0.2639000D+00 0.2639000D+00 0.2639000D+00 0.2639000D+00
EXPONENTS  0.1047000D+00 0.1047000D+00 0.1047000D+00 0.1047000D+00 0.1047000D+00
EXPONENTS  0.1047000D+00 0.5515000D+00 0.5515000D+00 0.5515000D+00 0.5515000D+00
EXPONENTS  0.5515000D+00 0.5515000D+00 0.5515000D+00 0.5515000D+00 0.5515000D+00
EXPONENTS  0.5515000D+00 0.2580000D+00 0.2580000D+00 0.2580000D+00 0.2580000D+00
EXPONENTS  0.2580000D+00 0.2580000D+00 0.2580000D+00 0.2580000D+00 0.2580000D+00
EXPONENTS  0.2580000D+00 0.1533000D+05 0.2299000D+04 0.5224000D+03 0.1473000D+03
EXPONENTS  0.4755000D+02 0.1676000D+02 0.6207000D+01 0.6882000D+00 0.1533000D+05
EXPONENTS  0.2299000D+04 0.5224000D+03 0.1473000D+03 0.4755000D+02 0.1676000D+02
EXPONENTS  0.6207000D+01 0.6882000D+00 0.1752000D+01 0.2384000D+00 0.7376000D-01
EXPONENTS  0.3446000D+02 0.7749000D+01 0.2280000D+01 0.3446000D+02 0.7749000D+01
EXPONENTS  0.2280000D+01 0.3446000D+02 0.7749000D+01 0.2280000D+01 0.7156000D+00
EXPONENTS  0.7156000D+00 0.7156000D+00 0.2140000D+00 0.2140000D+00 0.2140000D+00
EXPONENTS  0.5974000D-01 0.5974000D-01 0.5974000D-01 0.2314000D+01 0.2314000D+01
EXPONENTS  0.2314000D+01 0.2314000D+01 0.2314000D+01 0.2314000D+01 0.6450000D+00
EXPONENTS  0.6450000D+00 0.6450000D+00 0.6450000D+00 0.6450000D+00 0.6450000D+00
EXPONENTS  0.2140000D+00 0.2140000D+00 0.2140000D+00 0.2140000D+00 0.2140000D+00
EXPONENTS  0.2140000D+00 0.1428000D+01 0.1428000D+01 0.1428000D+01 0.1428000D+01
EXPONENTS  0.1428000D+01 0.1428000D+01 0.1428000D+01 0.1428000D+01 0.1428000D+01
EXPONENTS  0.1428000D+01 0.5000000D+00 0.5000000D+00 0.5000000D+00 0.5000000D+00
EXPONENTS  0.5000000D+00 0.5000000D+00 0.5000000D+00 0.5000000D+00 0.5000000D+00
EXPONENTS  0.5000000D+00 0.1533000D+05 0.2299000D+04 0.5224000D+03 0.1473000D+03
EXPONENTS  0.4755000D+02 0.1676000D+02 0.6207000D+01 0.6882000D+00 0.1533000D+05
EXPONENTS  0.2299000D+04 0.5224000D+03 0.1473000D+03 0.4755000D+02 0.1676000D+02
EXPONENTS  0.6207000D+01 0.6882000D+00 0.1752000D+01 0.2384000D+00 0.7376000D-01
EXPONENTS  0.3446000D+02 0.7749000D+01 0.2280000D+01 0.3446000D+02 0.7749000D+01
EXPONENTS  0.2280000D+01 0.3446000D+02 0.7749000D+01 0.2280000D+01 0.7156000D+00
EXPONENTS  0.7156000D+00 0.7156000D+00 0.2140000D+00 0.2140000D+00 0.2140000D+00
EXPONENTS  0.5974000D-01 0.5974000D-01 0.5974000D-01 0.2314000D+01 0.2314000D+01
EXPONENTS  0.2314000D+01 0.2314000D+01 0.2314000D+01 0.2314000D+01 0.6450000D+00
EXPONENTS  0.6450000D+00 0.6450000D+00 0.6450000D+00 0.6450000D+00 0.6450000D+00
EXPONENTS  0.2140000D+00 0.2140000D+00 0.2140000D+00 0.2140000D+00 0.2140000D+00
EXPONENTS  0.2140000D+00 0.1428000D+01 0.1428000D+01 0.1428000D+01 0.1428000D+01
EXPONENTS  0.1428000D+01 0.1428000D+01 0.1428000D+01 0.1428000D+01 0.1428000D+01
EXPONENTS  0.1428000D+01 0.5000000D+00 0.5000000D+00 0.5000000D+00 0.5000000D+00
EXPONENTS  0.5000000D+00 0.5000000D+00 0.5000000D+00 0.5000000D+00 0.5000000D+00
EXPONENTS  0.5000000D+00
MO    1     MO 0.0        OCC NO =    2.0000000  ORB. ENERGY = -490.082775
 -0.30630752D-06 -0.57620175D-06 -0.99743364D-06 -0.16349846D-05 -0.25612350D-05
 -0.38497543D-05 -0.55022660D-05 -0.73043949D-05 -0.85069599D-05 -0.78135604D-05
 -0.45688961D-05 -0.11989012D-05 -0.65543460D-07  0.23459282D-08 -0.65561290D-09
  0.19467359D-09 -0.33188477D-10 -0.27077233D-11  0.63995917D-07  0.11758033D-06
  0.20332349D-06  0.33297063D-06  0.52424729D-06  0.79166477D-06  0.11555888D-05
  0.15913160D-05  0.20332758D-05  0.22165089D-05  0.18245281D-05  0.50027321D-06
 -0.10090835D-05 -0.98339595D-06 -0.21519474D-06 -0.72497126D-08 -0.24559710D-09
  0.62476734D-12 -0.84431196D-07 -0.16551896D-06 -0.28990236D-06 -0.47360613D-06
 -0.74699094D-06 -0.11271760D-05 -0.16526639D-05 -0.22817759D-05 -0.29583338D-05
 -0.32898413D-05 -0.28574297D-05 -0.83003222D-06  0.20925011D-05  0.30489216D-05
  0.52488276D-06 -0.12804892D-05 -0.60948057D-06  0.29433678D-08  0.41492807D-07
  0.89904893D-07  0.15304882D-06  0.24981689D-06  0.39381182D-06  0.59437578D-06
  0.87145177D-06  0.12047202D-05  0.15636059D-05  0.17468213D-05  0.15258879D-05
  0.45196949D-06 -0.11748610D-05 -0.18073334D-05 -0.31633853D-06  0.99787242D-06
  0.84704278D-06 -0.31602409D-06  0.57600037D-08  0.25384781D-06  0.15304711D-06
  0.46786663D-06  0.67130578D-06  0.88884454D-06  0.10263636D-05  0.95148628D-06
  0.61600956D-06  0.21742875D-06  0.25484525D-07  0.37049782D-09  0.54255282D-10
  0.55782856D-12  0.83728245D-06  0.12013521D-05  0.15906540D-05  0.18367547D-05
  0.17027561D-05  0.11023953D-05  0.38910507D-06  0.45606470D-07  0.66303366D-09
  0.97093899D-10  0.99827607D-12 -0.12433935D-06 -0.17840496D-06 -0.23621765D-06
 -0.27276445D-06 -0.25286520D-06 -0.16370954D-06 -0.57783455D-07 -0.67727192D-08
 -0.98462802D-10 -0.14418781D-10 -0.14824746D-12 -0.15018874D-05 -0.21679917D-05
 -0.28963851D-05 -0.34409944D-05 -0.33345873D-05 -0.23179635D-05 -0.75424310D-06
  0.33946925D-06  0.36674005D-06  0.94416102D-07 -0.92094189D-10 -0.31489694D-05
 -0.45455735D-05 -0.60727775D-05 -0.72146460D-05 -0.69915450D-05 -0.48600156D-05
 -0.15814025D-05  0.71175661D-06  0.76893460D-06  0.19795986D-06 -0.19309156D-09
  0.41901847D-06  0.60485797D-06  0.80807579D-06  0.96001883D-06  0.93033183D-06
  0.64669930D-06  0.21042975D-06 -0.94710086D-07 -0.10231849D-06 -0.26341582D-07
  0.25693781D-10  0.62592400D-06  0.90949534D-06  0.12091846D-05  0.14509378D-05
  0.14037888D-05  0.99652657D-06  0.30972296D-06 -0.17782339D-06 -0.20427960D-06
 -0.54248242D-07  0.19572935D-07  0.19682257D-05  0.28599193D-05  0.38022959D-05
  0.45624919D-05  0.44142311D-05  0.31335901D-05  0.97392767D-06 -0.55916783D-06
 -0.64235971D-06 -0.17058427D-06  0.61547335D-07 -0.20291222D-06 -0.29484046D-06
 -0.39199381D-06 -0.47036544D-06 -0.45508064D-06 -0.32305427D-06 -0.10040608D-06
  0.57646836D-07  0.66223418D-07  0.17586211D-07 -0.63451596D-08 -0.15427542D-06
 -0.13321232D-06  0.34843549D-07  0.15653431D-06  0.87182770D-07 -0.33319609D-07
  0.90274245D-08  0.31337530D-09 -0.17162137D-08  0.83345558D-06  0.87212146D-06
  0.74309416D-06  0.48938368D-06  0.22554237D-06  0.67539027D-07  0.11491193D-07
 -0.19575970D-06 -0.20484144D-06 -0.17453587D-06 -0.11494506D-06 -0.52974758D-07
 -0.15863377D-07 -0.26990191D-08 -0.63769587D-06 -0.66728002D-06 -0.56855829D-06
 -0.37443862D-06 -0.17256761D-06 -0.51675650D-07 -0.87921738D-08  0.15182844D-05
  0.15887210D-05  0.13536753D-05  0.89149753D-06  0.41086467D-06  0.12303409D-06
  0.20933207D-07 -0.64628458D-06 -0.67626718D-06 -0.57621583D-06 -0.37948169D-06
 -0.17489181D-06 -0.52371636D-07 -0.89105899D-08 -0.32931478D-06 -0.34459243D-06
 -0.29361120D-06 -0.19336517D-06 -0.89116250D-07 -0.26686005D-07 -0.45403976D-08
 -0.78481008D-07  0.13218743D-07  0.65262265D-07 -0.17011316D-06  0.64166935D-07
  0.37109785D-07  0.45218598D-07 -0.15752323D-08 -0.43643366D-07  0.13978329D-06
 -0.41295938D-07 -0.30366159D-07  0.16461695D-07  0.63745274D-10 -0.16525440D-07
  0.31747089D-07 -0.14406153D-07 -0.75568689D-08 -0.54768014D-08  0.12839425D-07
 -0.77047973D-08 -0.30143468D-07  0.30298908D-08  0.22705747D-07  0.46573873D-07
 -0.41548166D-07  0.40864498D-09 -0.99981399D-08  0.45814183D-08 -0.15526239D-07
  0.10040043D-07  0.33399012D-07  0.49135457D-07 -0.25315150D-07 -0.47143267D-07
 -0.25567410D-08 -0.48049805D-08 -0.28323415D-07 -0.67908940D-07 -0.12657353D-06
 -0.21462676D-06 -0.32484760D-06 -0.40531496D-06 -0.34811150D-06 -0.13364677D-06
  0.59781021D-09  0.38360757D-07  0.71946551D-07  0.12265310D-06  0.19168292D-06
  0.25631658D-06  0.27368635D-06  0.16732647D-06 -0.11039184D-06  0.15773602D-06
  0.25502347D-06  0.47564763D-06  0.10484260D-06  0.10166206D-06  0.68580624D-07
  0.38473398D-06  0.37306254D-06  0.25166579D-06 -0.36473974D-07 -0.35367486D-07
 -0.23858697D-07 -0.75344992D-07 -0.13342868D-06  0.20084620D-07  0.20287434D-06
  0.48416546D-07 -0.40498851D-07  0.37978400D-07  0.73212182D-07 -0.10320609D-07
  0.32937558D-06 -0.55586381D-06  0.22648822D-06 -0.42148443D-06 -0.20515311D-07
  0.14664371D-06 -0.90907577D-07  0.78901760D-07  0.12005816D-07 -0.61436609D-07
  0.43179404D-07  0.62900388D-08  0.30277334D-07 -0.78159099D-07  0.47881765D-07
  0.49800654D-07  0.45559354D-08  0.13528024D-08  0.13400843D-06 -0.53702757D-07
 -0.28610163D-08 -0.49328049D-06  0.43352946D-06 -0.66604318D-07  0.91255200D-07
 -0.27242119D-06  0.75187367D-07 -0.22374007D-06 -0.25888671D-07  0.21285555D-07
  0.30339779D-08  0.11134946D-06 -0.13078159D-06  0.85129591D-08 -0.33683449D-07
  0.66924925D-07 -0.17614893D-07  0.64119530D-07  0.78331763D+00  0.14735159D+01
  0.25507286D+01  0.41811323D+01  0.65498247D+01  0.98449443D+01  0.14070898D+02
  0.18679467D+02  0.21754777D+02  0.19981552D+02  0.11683999D+02  0.30659399D+01
  0.16761374D+00 -0.59992224D-02  0.16765933D-02 -0.49783714D-03  0.84872613D-04
  0.69244378D-05 -0.49437811D-06 -0.90832577D-06 -0.15707046D-05 -0.25722483D-05
 -0.40498894D-05 -0.61157298D-05 -0.89270978D-05 -0.12293156D-04 -0.15707362D-04
 -0.17122865D-04 -0.14094755D-04 -0.38646860D-05  0.77953223D-05  0.75968821D-05
  0.16624118D-05  0.56005124D-07  0.18972746D-08 -0.48264219D-11  0.93230352D-06
  0.18276883D-05  0.32011508D-05  0.52296388D-05  0.82484000D-05  0.12446467D-04
  0.18248994D-04  0.25195755D-04  0.32666421D-04  0.36326983D-04  0.31552221D-04
  0.91653559D-05 -0.23105751D-04 -0.33666707D-04 -0.57958440D-05  0.14139378D-04
  0.67299873D-05 -0.32501164D-07 -0.37790037D-06 -0.81881885D-06 -0.13939092D-05
 -0.22752353D-05 -0.35866851D-05 -0.54133438D-05 -0.79368442D-05 -0.10972124D-04
 -0.14240716D-04 -0.15909370D-04 -0.13897195D-04 -0.41163626D-05  0.10700178D-04
  0.16460491D-04  0.28810885D-05 -0.90882345D-05 -0.77145366D-05  0.28782247D-05
 -0.20343786D-04 -0.19647488D-05 -0.37657580D-06 -0.97553381D-04 -0.13997183D-03
 -0.18533014D-03 -0.21400381D-03 -0.19839137D-03 -0.12844219D-03 -0.45335377D-04
 -0.53136971D-05 -0.77251321D-07 -0.11312596D-07 -0.11631106D-09 -0.25311012D-03
 -0.36316821D-03 -0.48085402D-03 -0.55525016D-03 -0.51474244D-03 -0.33325364D-03
 -0.11762630D-03 -0.13786816D-04 -0.20043479D-06 -0.29351444D-07 -0.30177843D-09
  0.29216523D-04  0.41920538D-04  0.55505021D-04  0.64092573D-04  0.59416763D-04
  0.38467496D-04  0.13577613D-04  0.15914134D-05  0.23136205D-07  0.33880396D-08
  0.34834309D-10 -0.21764916D-04 -0.31417906D-04 -0.41973571D-04 -0.49865891D-04
 -0.48323870D-04 -0.33591254D-04 -0.10930272D-04  0.49194897D-05  0.53146902D-05
  0.13682507D-05 -0.13346022D-08 -0.64719679D-04 -0.93423600D-04 -0.12481170D-03
 -0.14828012D-03 -0.14369481D-03 -0.99886220D-04 -0.32502018D-04  0.14628487D-04
  0.15803647D-04  0.40686005D-05 -0.39685441D-08  0.68494885D-05  0.98873154D-05
  0.13209217D-04  0.15692955D-04  0.15207676D-04  0.10571275D-04  0.34397915D-05
 -0.15481791D-05 -0.16725500D-05 -0.43059287D-06  0.42000359D-09  0.30269808D-05
  0.43983373D-05  0.58476405D-05  0.70167638D-05  0.67887500D-05  0.48192220D-05
  0.14978263D-05 -0.85995739D-06 -0.98790013D-06 -0.26234556D-06  0.94655097D-07
  0.13989034D-04  0.20326687D-04  0.27024566D-04  0.32427609D-04  0.31373855D-04
  0.22271784D-04  0.69221264D-05 -0.39742483D-05 -0.45655291D-05 -0.12124164D-05
  0.43744361D-06 -0.11541007D-05 -0.16769596D-05 -0.22295372D-05 -0.26752903D-05
 -0.25883552D-05 -0.18374308D-05 -0.57107812D-06  0.32787703D-06  0.37665792D-06
  0.10002482D-06 -0.36089268D-07 -0.64423880D-06 -0.17944659D-05  0.19760478D-06
  0.14391060D-06  0.29503614D-06 -0.39843517D-07  0.62727595D-08  0.12329237D-07
 -0.17179137D-08 -0.31199848D-04 -0.32647279D-04 -0.27817229D-04 -0.18319749D-04
 -0.84430267D-05 -0.25282780D-05 -0.43016507D-06  0.80844894D-04  0.84595470D-04
  0.72079869D-04  0.47470043D-04  0.21877529D-04  0.65512616D-05  0.11146416D-05
 -0.49645045D-04 -0.51948191D-04 -0.44262639D-04 -0.29150294D-04 -0.13434503D-04
 -0.40229836D-05 -0.68447655D-06  0.10518538D-03  0.11006517D-03  0.93781414D-04
  0.61762151D-04  0.28464337D-04  0.85236917D-05  0.14502339D-05 -0.12156217D-04
 -0.12720172D-04 -0.10838267D-04 -0.71378182D-05 -0.32896079D-05 -0.98507841D-06
 -0.16760274D-06 -0.31175710D-04 -0.32622021D-04 -0.27795708D-04 -0.18305575D-04
 -0.84364946D-05 -0.25263220D-05 -0.42983226D-06  0.38581802D-06 -0.10314002D-05
  0.64558218D-06 -0.14513004D-05  0.16945684D-06  0.41912892D-06 -0.91307828D-07
  0.30845388D-06 -0.21714605D-06  0.53261854D-06 -0.73952080D-07 -0.14607262D-06
  0.24095108D-07 -0.98896814D-07  0.74801706D-07 -0.16275280D-06  0.27403609D-07
  0.45820524D-07  0.14806570D-07 -0.40365154D-07 -0.19450555D-07 -0.11280877D-06
  0.31174940D-08  0.21023948D-07  0.68389058D-07  0.11797797D-06  0.37327718D-07
  0.63473054D-07 -0.22842087D-07  0.37944175D-07  0.12731743D-07  0.11232337D-06
 -0.25253341D-07 -0.41808927D-08 -0.43797109D-07 -0.88579184D-07 -0.34014336D-07
 -0.39882335D-07  0.22862634D-07  0.42613008D-07  0.72257541D-07  0.10936515D-06
  0.13645578D-06  0.11719732D-06  0.44994329D-07 -0.20126240D-09 -0.10683317D-07
 -0.20036827D-07 -0.34158397D-07 -0.53382926D-07 -0.71383143D-07 -0.76220554D-07
 -0.46599752D-07  0.30743686D-07 -0.10895815D-06  0.45699796D-06  0.32737848D-06
  0.44380241D-06  0.43033906D-06  0.29030418D-06  0.38962859D-06  0.37780867D-06
  0.25486749D-06 -0.99590106D-07 -0.96568902D-07 -0.65144811D-07 -0.51435887D-06
 -0.43024450D-06  0.11442483D-06  0.52382062D-06  0.45601082D-06 -0.11722761D-06
  0.85854374D-08 -0.33955088D-07 -0.12481582D-09 -0.13475473D-06  0.28570161D-06
 -0.15094688D-06  0.25800367D-06 -0.18413009D-07 -0.85765181D-07 -0.70924808D-07
  0.75799318D-07 -0.48745096D-08  0.19403933D-06  0.16268715D-07 -0.43210447D-07
  0.13589307D-06 -0.18138621D-06  0.45493135D-07 -0.46734325D-07 -0.32421566D-07
  0.28246747D-07  0.25434362D-06 -0.66926388D-06 -0.18657440D-06 -0.13393789D-05
  0.42003874D-06  0.77963562D-07  0.57634800D-06  0.15877529D-05  0.48175962D-06
  0.63970307D-06 -0.83497481D-07  0.18014833D-06  0.55020102D-07  0.42370791D-06
 -0.86837712D-07 -0.21055170D-07 -0.17321546D-06 -0.45360726D-06 -0.14400514D-06
 -0.20017575D-06  0.48857865D-07  0.91064775D-07  0.15441568D-06  0.23371533D-06
  0.29160850D-06  0.25045281D-06  0.96153703D-07 -0.43010141D-09 -0.33872209D-07