 Molden2AIM, Version 4.0.0 (06/02/2016)           Time: Wed Jun 27 23:08:54 2018
GAUSSIAN             32 MOL ORBITALS    562 PRIMITIVES        6 NUCLEI
  C    1    (CENTRE  1)  -5.59760311  2.37469410 -0.02475541  CHARGE =  6.0
  C    2    (CENTRE  2)  -3.07641177  2.40343683  0.02486691  CHARGE =  6.0
  Cl   3    (CENTRE  3)  -7.46135306  3.71070590  2.23948042  CHARGE = 17.0
  F    4    (CENTRE  4)  -6.84945596  1.26896999 -1.89823745  CHARGE =  9.0
  F    5    (CENTRE  5)  -1.82457026  3.50903055  1.89842831  CHARGE =  9.0
  Cl   6    (CENTRE  6)  -1.21264292  1.06815257 -2.23978277  CHARGE = 17.0
CENTRE ASSIGNMENTS    1  1  1  1  1  1  1  1  1  1  1  1  1  1  1  1  1  1  1  1
CENTRE ASSIGNMENTS    1  1  1  1  1  1  1  1  1  1  1  1  1  1  1  1  1  1  1  1
CENTRE ASSIGNMENTS    1  1  1  1  1  1  1  1  1  1  1  1  1  1  1  1  1  1  1  1
CENTRE ASSIGNMENTS    1  1  1  1  1  1  1  1  1  1  1  1  1  1  1  2  2  2  2  2
CENTRE ASSIGNMENTS    2  2  2  2  2  2  2  2  2  2  2  2  2  2  2  2  2  2  2  2
CENTRE ASSIGNMENTS    2  2  2  2  2  2  2  2  2  2  2  2  2  2  2  2  2  2  2  2
CENTRE ASSIGNMENTS    2  2  2  2  2  2  2  2  2  2  2  2  2  2  2  2  2  2  2  2
CENTRE ASSIGNMENTS    2  2  2  2  2  2  2  2  2  2  3  3  3  3  3  3  3  3  3  3
CENTRE ASSIGNMENTS    3  3  3  3  3  3  3  3  3  3  3  3  3  3  3  3  3  3  3  3
CENTRE ASSIGNMENTS    3  3  3  3  3  3  3  3  3  3  3  3  3  3  3  3  3  3  3  3
CENTRE ASSIGNMENTS    3  3  3  3  3  3  3  3  3  3  3  3  3  3  3  3  3  3  3  3
CENTRE ASSIGNMENTS    3  3  3  3  3  3  3  3  3  3  3  3  3  3  3  3  3  3  3  3
CENTRE ASSIGNMENTS    3  3  3  3  3  3  3  3  3  3  3  3  3  3  3  3  3  3  3  3
CENTRE ASSIGNMENTS    3  3  3  3  3  3  3  3  3  3  3  3  3  3  3  3  3  3  3  3
CENTRE ASSIGNMENTS    3  4  4  4  4  4  4  4  4  4  4  4  4  4  4  4  4  4  4  4
CENTRE ASSIGNMENTS    4  4  4  4  4  4  4  4  4  4  4  4  4  4  4  4  4  4  4  4
CENTRE ASSIGNMENTS    4  4  4  4  4  4  4  4  4  4  4  4  4  4  4  4  4  4  4  4
CENTRE ASSIGNMENTS    4  4  4  4  4  4  4  4  4  4  4  4  4  4  4  4  5  5  5  5
CENTRE ASSIGNMENTS    5  5  5  5  5  5  5  5  5  5  5  5  5  5  5  5  5  5  5  5
CENTRE ASSIGNMENTS    5  5  5  5  5  5  5  5  5  5  5  5  5  5  5  5  5  5  5  5
CENTRE ASSIGNMENTS    5  5  5  5  5  5  5  5  5  5  5  5  5  5  5  5  5  5  5  5
CENTRE ASSIGNMENTS    5  5  5  5  5  5  5  5  5  5  5  6  6  6  6  6  6  6  6  6
CENTRE ASSIGNMENTS    6  6  6  6  6  6  6  6  6  6  6  6  6  6  6  6  6  6  6  6
CENTRE ASSIGNMENTS    6  6  6  6  6  6  6  6  6  6  6  6  6  6  6  6  6  6  6  6
CENTRE ASSIGNMENTS    6  6  6  6  6  6  6  6  6  6  6  6  6  6  6  6  6  6  6  6
CENTRE ASSIGNMENTS    6  6  6  6  6  6  6  6  6  6  6  6  6  6  6  6  6  6  6  6
CENTRE ASSIGNMENTS    6  6  6  6  6  6  6  6  6  6  6  6  6  6  6  6  6  6  6  6
CENTRE ASSIGNMENTS    6  6  6  6  6  6  6  6  6  6  6  6  6  6  6  6  6  6  6  6
CENTRE ASSIGNMENTS    6  6
TYPE ASSIGNMENTS      1  1  1  1  1  1  1  1  1  1  1  1  1  1  1  1  1  1  1  2
TYPE ASSIGNMENTS      2  2  3  3  3  4  4  4  2  3  4  2  3  4  2  3  4  5  6  7
TYPE ASSIGNMENTS      8  9 10  5  6  7  8  9 10  5  6  7  8  9 10 11 12 13 17 14
TYPE ASSIGNMENTS     15 18 19 16 20 11 12 13 17 14 15 18 19 16 20  1  1  1  1  1
TYPE ASSIGNMENTS      1  1  1  1  1  1  1  1  1  1  1  1  1  1  2  2  2  3  3  3
TYPE ASSIGNMENTS      4  4  4  2  3  4  2  3  4  2  3  4  5  6  7  8  9 10  5  6
TYPE ASSIGNMENTS      7  8  9 10  5  6  7  8  9 10 11 12 13 17 14 15 18 19 16 20
TYPE ASSIGNMENTS     11 12 13 17 14 15 18 19 16 20  1  1  1  1  1  1  1  1  1  1
TYPE ASSIGNMENTS      1  1  1  1  1  1  1  1  1  1  1  1  1  1  1  1  1  1  1  1
TYPE ASSIGNMENTS      1  1  1  1  1  1  1  1  1  1  1  1  2  2  2  2  2  2  2  3
TYPE ASSIGNMENTS      3  3  3  3  3  3  4  4  4  4  4  4  4  2  2  2  2  2  2  2
TYPE ASSIGNMENTS      3  3  3  3  3  3  3  4  4  4  4  4  4  4  2  3  4  2  3  4
TYPE ASSIGNMENTS      2  3  4  5  6  7  8  9 10  5  6  7  8  9 10  5  6  7  8  9
TYPE ASSIGNMENTS     10 11 12 13 17 14 15 18 19 16 20 11 12 13 17 14 15 18 19 16
TYPE ASSIGNMENTS     20  1  1  1  1  1  1  1  1  1  1  1  1  1  1  1  1  1  1  1
TYPE ASSIGNMENTS      2  2  2  3  3  3  4  4  4  2  3  4  2  3  4  2  3  4  5  6
TYPE ASSIGNMENTS      7  8  9 10  5  6  7  8  9 10  5  6  7  8  9 10 11 12 13 17
TYPE ASSIGNMENTS     14 15 18 19 16 20 11 12 13 17 14 15 18 19 16 20  1  1  1  1
TYPE ASSIGNMENTS      1  1  1  1  1  1  1  1  1  1  1  1  1  1  1  2  2  2  3  3
TYPE ASSIGNMENTS      3  4  4  4  2  3  4  2  3  4  2  3  4  5  6  7  8  9 10  5
TYPE ASSIGNMENTS      6  7  8  9 10  5  6  7  8  9 10 11 12 13 17 14 15 18 19 16
TYPE ASSIGNMENTS     20 11 12 13 17 14 15 18 19 16 20  1  1  1  1  1  1  1  1  1
TYPE ASSIGNMENTS      1  1  1  1  1  1  1  1  1  1  1  1  1  1  1  1  1  1  1  1
TYPE ASSIGNMENTS      1  1  1  1  1  1  1  1  1  1  1  1  1  2  2  2  2  2  2  2
TYPE ASSIGNMENTS      3  3  3  3  3  3  3  4  4  4  4  4  4  4  2  2  2  2  2  2
TYPE ASSIGNMENTS      2  3  3  3  3  3  3  3  4  4  4  4  4  4  4  2  3  4  2  3
TYPE ASSIGNMENTS      4  2  3  4  5  6  7  8  9 10  5  6  7  8  9 10  5  6  7  8
TYPE ASSIGNMENTS      9 10 11 12 13 17 14 15 18 19 16 20 11 12 13 17 14 15 18 19
TYPE ASSIGNMENTS     16 20
EXPONENTS  0.8236000D+04 0.1235000D+04 0.2808000D+03 0.7927000D+02 0.2559000D+02
EXPONENTS  0.8997000D+01 0.3319000D+01 0.3643000D+00 0.8236000D+04 0.1235000D+04
EXPONENTS  0.2808000D+03 0.7927000D+02 0.2559000D+02 0.8997000D+01 0.3319000D+01
EXPONENTS  0.3643000D+00 0.9059000D+00 0.1285000D+00 0.4402000D-01 0.1871000D+02
EXPONENTS  0.4133000D+01 0.1200000D+01 0.1871000D+02 0.4133000D+01 0.1200000D+01
EXPONENTS  0.1871000D+02 0.4133000D+01 0.1200000D+01 0.3827000D+00 0.3827000D+00
EXPONENTS  0.3827000D+00 0.1209000D+00 0.1209000D+00 0.1209000D+00 0.3569000D-01
EXPONENTS  0.3569000D-01 0.3569000D-01 0.1097000D+01 0.1097000D+01 0.1097000D+01
EXPONENTS  0.1097000D+01 0.1097000D+01 0.1097000D+01 0.3180000D+00 0.3180000D+00
EXPONENTS  0.3180000D+00 0.3180000D+00 0.3180000D+00 0.3180000D+00 0.1000000D+00
EXPONENTS  0.1000000D+00 0.1000000D+00 0.1000000D+00 0.1000000D+00 0.1000000D+00
EXPONENTS  0.7610000D+00 0.7610000D+00 0.7610000D+00 0.7610000D+00 0.7610000D+00
EXPONENTS  0.7610000D+00 0.7610000D+00 0.7610000D+00 0.7610000D+00 0.7610000D+00
EXPONENTS  0.2680000D+00 0.2680000D+00 0.2680000D+00 0.2680000D+00 0.2680000D+00
EXPONENTS  0.2680000D+00 0.2680000D+00 0.2680000D+00 0.2680000D+00 0.2680000D+00
EXPONENTS  0.8236000D+04 0.1235000D+04 0.2808000D+03 0.7927000D+02 0.2559000D+02
EXPONENTS  0.8997000D+01 0.3319000D+01 0.3643000D+00 0.8236000D+04 0.1235000D+04
EXPONENTS  0.2808000D+03 0.7927000D+02 0.2559000D+02 0.8997000D+01 0.3319000D+01
EXPONENTS  0.3643000D+00 0.9059000D+00 0.1285000D+00 0.4402000D-01 0.1871000D+02
EXPONENTS  0.4133000D+01 0.1200000D+01 0.1871000D+02 0.4133000D+01 0.1200000D+01
EXPONENTS  0.1871000D+02 0.4133000D+01 0.1200000D+01 0.3827000D+00 0.3827000D+00
EXPONENTS  0.3827000D+00 0.1209000D+00 0.1209000D+00 0.1209000D+00 0.3569000D-01
EXPONENTS  0.3569000D-01 0.3569000D-01 0.1097000D+01 0.1097000D+01 0.1097000D+01
EXPONENTS  0.1097000D+01 0.1097000D+01 0.1097000D+01 0.3180000D+00 0.3180000D+00
EXPONENTS  0.3180000D+00 0.3180000D+00 0.3180000D+00 0.3180000D+00 0.1000000D+00
EXPONENTS  0.1000000D+00 0.1000000D+00 0.1000000D+00 0.1000000D+00 0.1000000D+00
EXPONENTS  0.7610000D+00 0.7610000D+00 0.7610000D+00 0.7610000D+00 0.7610000D+00
EXPONENTS  0.7610000D+00 0.7610000D+00 0.7610000D+00 0.7610000D+00 0.7610000D+00
EXPONENTS  0.2680000D+00 0.2680000D+00 0.2680000D+00 0.2680000D+00 0.2680000D+00
EXPONENTS  0.2680000D+00 0.2680000D+00 0.2680000D+00 0.2680000D+00 0.2680000D+00
EXPONENTS  0.4561000D+06 0.6833000D+05 0.1555000D+05 0.4405000D+04 0.1439000D+04
EXPONENTS  0.5204000D+03 0.2031000D+03 0.8396000D+02 0.3620000D+02 0.1583000D+02
EXPONENTS  0.6334000D+01 0.2694000D+01 0.4313000D+00 0.4561000D+06 0.6833000D+05
EXPONENTS  0.1555000D+05 0.4405000D+04 0.1439000D+04 0.5204000D+03 0.2031000D+03
EXPONENTS  0.8396000D+02 0.3620000D+02 0.1583000D+02 0.6334000D+01 0.2694000D+01
EXPONENTS  0.4313000D+00 0.4561000D+06 0.6833000D+05 0.1555000D+05 0.4405000D+04
EXPONENTS  0.1439000D+04 0.5204000D+03 0.2031000D+03 0.8396000D+02 0.3620000D+02
EXPONENTS  0.1583000D+02 0.6334000D+01 0.2694000D+01 0.4313000D+00 0.9768000D+00
EXPONENTS  0.1625000D+00 0.5910000D-01 0.6633000D+03 0.1568000D+03 0.4998000D+02
EXPONENTS  0.1842000D+02 0.7240000D+01 0.2922000D+01 0.3818000D+00 0.6633000D+03
EXPONENTS  0.1568000D+03 0.4998000D+02 0.1842000D+02 0.7240000D+01 0.2922000D+01
EXPONENTS  0.3818000D+00 0.6633000D+03 0.1568000D+03 0.4998000D+02 0.1842000D+02
EXPONENTS  0.7240000D+01 0.2922000D+01 0.3818000D+00 0.6633000D+03 0.1568000D+03
EXPONENTS  0.4998000D+02 0.1842000D+02 0.7240000D+01 0.2922000D+01 0.3818000D+00
EXPONENTS  0.6633000D+03 0.1568000D+03 0.4998000D+02 0.1842000D+02 0.7240000D+01
EXPONENTS  0.2922000D+01 0.3818000D+00 0.6633000D+03 0.1568000D+03 0.4998000D+02
EXPONENTS  0.1842000D+02 0.7240000D+01 0.2922000D+01 0.3818000D+00 0.1022000D+01
EXPONENTS  0.1022000D+01 0.1022000D+01 0.1301000D+00 0.1301000D+00 0.1301000D+00
EXPONENTS  0.4190000D-01 0.4190000D-01 0.4190000D-01 0.1046000D+01 0.1046000D+01
EXPONENTS  0.1046000D+01 0.1046000D+01 0.1046000D+01 0.1046000D+01 0.3440000D+00
EXPONENTS  0.3440000D+00 0.3440000D+00 0.3440000D+00 0.3440000D+00 0.3440000D+00
EXPONENTS  0.1350000D+00 0.1350000D+00 0.1350000D+00 0.1350000D+00 0.1350000D+00
EXPONENTS  0.1350000D+00 0.7060000D+00 0.7060000D+00 0.7060000D+00 0.7060000D+00
EXPONENTS  0.7060000D+00 0.7060000D+00 0.7060000D+00 0.7060000D+00 0.7060000D+00
EXPONENTS  0.7060000D+00 0.3120000D+00 0.3120000D+00 0.3120000D+00 0.3120000D+00
EXPONENTS  0.3120000D+00 0.3120000D+00 0.3120000D+00 0.3120000D+00 0.3120000D+00
EXPONENTS  0.3120000D+00 0.1950000D+05 0.2923000D+04 0.6645000D+03 0.1875000D+03
EXPONENTS  0.6062000D+02 0.2142000D+02 0.7950000D+01 0.8815000D+00 0.1950000D+05
EXPONENTS  0.2923000D+04 0.6645000D+03 0.1875000D+03 0.6062000D+02 0.2142000D+02
EXPONENTS  0.7950000D+01 0.8815000D+00 0.2257000D+01 0.3041000D+00 0.9158000D-01
EXPONENTS  0.4388000D+02 0.9926000D+01 0.2930000D+01 0.4388000D+02 0.9926000D+01
EXPONENTS  0.2930000D+01 0.4388000D+02 0.9926000D+01 0.2930000D+01 0.9132000D+00
EXPONENTS  0.9132000D+00 0.9132000D+00 0.2672000D+00 0.2672000D+00 0.2672000D+00
EXPONENTS  0.7361000D-01 0.7361000D-01 0.7361000D-01 0.3107000D+01 0.3107000D+01
EXPONENTS  0.3107000D+01 0.3107000D+01 0.3107000D+01 0.3107000D+01 0.8550000D+00
EXPONENTS  0.8550000D+00 0.8550000D+00 0.8550000D+00 0.8550000D+00 0.8550000D+00
EXPONENTS  0.2920000D+00 0.2920000D+00 0.2920000D+00 0.2920000D+00 0.2920000D+00
EXPONENTS  0.2920000D+00 0.1917000D+01 0.1917000D+01 0.1917000D+01 0.1917000D+01
EXPONENTS  0.1917000D+01 0.1917000D+01 0.1917000D+01 0.1917000D+01 0.1917000D+01
EXPONENTS  0.1917000D+01 0.7240000D+00 0.7240000D+00 0.7240000D+00 0.7240000D+00
EXPONENTS  0.7240000D+00 0.7240000D+00 0.7240000D+00 0.7240000D+00 0.7240000D+00
EXPONENTS  0.7240000D+00 0.1950000D+05 0.2923000D+04 0.6645000D+03 0.1875000D+03
EXPONENTS  0.6062000D+02 0.2142000D+02 0.7950000D+01 0.8815000D+00 0.1950000D+05
EXPONENTS  0.2923000D+04 0.6645000D+03 0.1875000D+03 0.6062000D+02 0.2142000D+02
EXPONENTS  0.7950000D+01 0.8815000D+00 0.2257000D+01 0.3041000D+00 0.9158000D-01
EXPONENTS  0.4388000D+02 0.9926000D+01 0.2930000D+01 0.4388000D+02 0.9926000D+01
EXPONENTS  0.2930000D+01 0.4388000D+02 0.9926000D+01 0.2930000D+01 0.9132000D+00
EXPONENTS  0.9132000D+00 0.9132000D+00 0.2672000D+00 0.2672000D+00 0.2672000D+00
EXPONENTS  0.7361000D-01 0.7361000D-01 0.7361000D-01 0.3107000D+01 0.3107000D+01
EXPONENTS  0.3107000D+01 0.3107000D+01 0.3107000D+01 0.3107000D+01 0.8550000D+00
EXPONENTS  0.8550000D+00 0.8550000D+00 0.8550000D+00 0.8550000D+00 0.8550000D+00
EXPONENTS  0.2920000D+00 0.2920000D+00 0.2920000D+00 0.2920000D+00 0.2920000D+00
EXPONENTS  0.2920000D+00 0.1917000D+01 0.1917000D+01 0.1917000D+01 0.1917000D+01
EXPONENTS  0.1917000D+01 0.1917000D+01 0.1917000D+01 0.1917000D+01 0.1917000D+01
EXPONENTS  0.1917000D+01 0.7240000D+00 0.7240000D+00 0.7240000D+00 0.7240000D+00
EXPONENTS  0.7240000D+00 0.7240000D+00 0.7240000D+00 0.7240000D+00 0.7240000D+00
EXPONENTS  0.7240000D+00 0.4561000D+06 0.6833000D+05 0.1555000D+05 0.4405000D+04
EXPONENTS  0.1439000D+04 0.5204000D+03 0.2031000D+03 0.8396000D+02 0.3620000D+02
EXPONENTS  0.1583000D+02 0.6334000D+01 0.2694000D+01 0.4313000D+00 0.4561000D+06
EXPONENTS  0.6833000D+05 0.1555000D+05 0.4405000D+04 0.1439000D+04 0.5204000D+03
EXPONENTS  0.2031000D+03 0.8396000D+02 0.3620000D+02 0.1583000D+02 0.6334000D+01
EXPONENTS  0.2694000D+01 0.4313000D+00 0.4561000D+06 0.6833000D+05 0.1555000D+05
EXPONENTS  0.4405000D+04 0.1439000D+04 0.5204000D+03 0.2031000D+03 0.8396000D+02
EXPONENTS  0.3620000D+02 0.1583000D+02 0.6334000D+01 0.2694000D+01 0.4313000D+00
EXPONENTS  0.9768000D+00 0.1625000D+00 0.5910000D-01 0.6633000D+03 0.1568000D+03
EXPONENTS  0.4998000D+02 0.1842000D+02 0.7240000D+01 0.2922000D+01 0.3818000D+00
EXPONENTS  0.6633000D+03 0.1568000D+03 0.4998000D+02 0.1842000D+02 0.7240000D+01
EXPONENTS  0.2922000D+01 0.3818000D+00 0.6633000D+03 0.1568000D+03 0.4998000D+02
EXPONENTS  0.1842000D+02 0.7240000D+01 0.2922000D+01 0.3818000D+00 0.6633000D+03
EXPONENTS  0.1568000D+03 0.4998000D+02 0.1842000D+02 0.7240000D+01 0.2922000D+01
EXPONENTS  0.3818000D+00 0.6633000D+03 0.1568000D+03 0.4998000D+02 0.1842000D+02
EXPONENTS  0.7240000D+01 0.2922000D+01 0.3818000D+00 0.6633000D+03 0.1568000D+03
EXPONENTS  0.4998000D+02 0.1842000D+02 0.7240000D+01 0.2922000D+01 0.3818000D+00
EXPONENTS  0.1022000D+01 0.1022000D+01 0.1022000D+01 0.1301000D+00 0.1301000D+00
EXPONENTS  0.1301000D+00 0.4190000D-01 0.4190000D-01 0.4190000D-01 0.1046000D+01
EXPONENTS  0.1046000D+01 0.1046000D+01 0.1046000D+01 0.1046000D+01 0.1046000D+01
EXPONENTS  0.3440000D+00 0.3440000D+00 0.3440000D+00 0.3440000D+00 0.3440000D+00
EXPONENTS  0.3440000D+00 0.1350000D+00 0.1350000D+00 0.1350000D+00 0.1350000D+00
EXPONENTS  0.1350000D+00 0.1350000D+00 0.7060000D+00 0.7060000D+00 0.7060000D+00
EXPONENTS  0.7060000D+00 0.7060000D+00 0.7060000D+00 0.7060000D+00 0.7060000D+00
EXPONENTS  0.7060000D+00 0.7060000D+00 0.3120000D+00 0.3120000D+00 0.3120000D+00
EXPONENTS  0.3120000D+00 0.3120000D+00 0.3120000D+00 0.3120000D+00 0.3120000D+00
EXPONENTS  0.3120000D+00 0.3120000D+00
MO    1     MO 0.0        OCC NO =    2.0000000  ORB. ENERGY = -104.886532
  0.21282713D-05  0.39675816D-05  0.67059119D-05  0.10081182D-04  0.12385897D-04
  0.10461870D-04  0.39458325D-05 -0.19528145D-07 -0.15822161D-05 -0.29624077D-05
 -0.50437526D-05 -0.78019184D-05 -0.10274852D-04 -0.10676229D-04 -0.67842646D-05
  0.45466563D-05  0.49218771D-05  0.26867419D-04  0.19435219D-05  0.20610589D-05
  0.19323737D-05  0.13759652D-05 -0.48881260D-06 -0.45829288D-06 -0.32633183D-06
 -0.83383530D-06 -0.78177360D-06 -0.55666937D-06 -0.21459894D-05  0.93885129D-05
  0.15926219D-04  0.29326178D-04 -0.15548013D-04 -0.26357499D-04  0.46171869D-06
 -0.47272838D-06 -0.80097922D-06  0.25697703D-05 -0.11499509D-06 -0.24547752D-05
 -0.74599697D-05 -0.12649442D-04 -0.42344355D-05 -0.70894172D-05  0.22264165D-05
  0.48630007D-05  0.28407987D-04  0.48170376D-04  0.47526933D-05  0.24238973D-05
 -0.70793802D-06 -0.17159592D-05 -0.34481471D-05 -0.58429124D-05 -0.18230116D-05
 -0.54036900D-07 -0.25844130D-06 -0.10828339D-05  0.96303158D-06  0.25760768D-05
  0.43724554D-05 -0.80092088D-06 -0.18007529D-05 -0.11239538D-05 -0.32049636D-05
 -0.19229105D-05  0.51398979D-06 -0.39042595D-05  0.70848281D-06  0.94042343D-05
  0.15938519D-04  0.50602486D-05 -0.10946204D-04 -0.42257403D-05  0.78820637D-05
  0.42170537D-05  0.78615470D-05  0.13287399D-04  0.19975314D-04  0.24541981D-04
  0.20729626D-04  0.78184523D-05 -0.38693957D-07 -0.31931120D-05 -0.59785132D-05
 -0.10178930D-04 -0.15745257D-04 -0.20735950D-04 -0.21545980D-04 -0.13691503D-04
  0.91757271D-05  0.19509191D-04 -0.95126102D-04 -0.47121710D-05  0.11033935D-04
  0.10345016D-04  0.73662675D-05 -0.53376936D-05 -0.50044270D-05 -0.35634502D-05
 -0.90613559D-05 -0.84955971D-05 -0.60493712D-05 -0.23817533D-04 -0.60017653D-05
 -0.10163363D-04  0.13281536D-04  0.15823996D-04  0.26840600D-04 -0.20656655D-06
  0.46925012D-06  0.79495977D-06  0.33560983D-05 -0.13872307D-05 -0.19688676D-05
 -0.65517576D-05 -0.11100944D-04 -0.10461025D-05 -0.18577738D-05  0.62110451D-05
 -0.43532714D-05  0.39825281D-04  0.67527351D-04 -0.19124944D-04  0.58328323D-06
 -0.29378306D-07 -0.55390492D-06 -0.36928313D-05 -0.62610117D-05 -0.94503928D-06
  0.36433529D-05 -0.19030111D-05  0.61826632D-06  0.55566592D-07 -0.16066283D-05
 -0.27261900D-05 -0.10985625D-04  0.73156617D-05  0.87139101D-06 -0.19940680D-04
  0.12179741D-05 -0.13111949D-05  0.21035169D-05 -0.69151098D-06 -0.51308215D-05
 -0.87000202D-05 -0.29624112D-05  0.90644062D-05  0.23894695D-05 -0.40851609D-05
  0.80560370D-01  0.15072876D+00  0.26042591D+00  0.42218077D+00  0.64111518D+00
  0.89107471D+00  0.10593593D+01  0.94359577D+00  0.46842919D+00  0.75471448D-01
  0.11586878D-02  0.20705636D-03  0.77373733D-05 -0.46445315D-05 -0.86753179D-05
 -0.15056435D-04 -0.24430475D-04 -0.37815474D-04 -0.54129416D-04 -0.70655796D-04
 -0.75295540D-04 -0.56284945D-04 -0.29711822D-05  0.38178217D-04  0.22682247D-04
 -0.85041422D-07  0.22176799D-05  0.41389800D-05  0.71931830D-05  0.11658034D-04
  0.18106751D-04  0.25938444D-04  0.34249298D-04  0.37033651D-04  0.29034862D-04
  0.14447651D-05 -0.24890218D-04 -0.25765990D-04  0.11659475D-04 -0.45744798D-04
  0.21543290D-04  0.29275593D-05  0.42012768D-03  0.55340245D-03  0.61053254D-03
  0.50711746D-03  0.26934240D-03  0.69471262D-04 -0.71414095D-07 -0.15910800D-03
 -0.20958094D-03 -0.23121688D-03 -0.19205219D-03 -0.10200359D-03 -0.26309700D-04
  0.27045477D-07 -0.26961256D-03 -0.35514025D-03 -0.39180290D-03 -0.32543734D-03
 -0.17284768D-03 -0.44582458D-04  0.45829251D-07 -0.32428227D-03 -0.42575884D-03
 -0.48475776D-03 -0.41047296D-03 -0.23513472D-03 -0.53484991D-04  0.25033919D-04
  0.10672760D-03  0.14012552D-03  0.15954321D-03  0.13509464D-03  0.77387411D-04
  0.17602951D-04 -0.82391500D-05  0.18084460D-03  0.23743570D-03  0.27033801D-03
  0.22891112D-03  0.13112910D-03  0.29827322D-04 -0.13960828D-04 -0.19630042D-04
  0.75104139D-05  0.12726089D-04  0.11073524D-04 -0.13128921D-05 -0.22226517D-05
 -0.50878840D-07  0.66966620D-07  0.11341378D-06 -0.18506495D-05 -0.41643207D-06
  0.22670815D-05 -0.18201371D-05 -0.30857503D-05  0.48572373D-05  0.50890768D-05
 -0.28207075D-05 -0.22683693D-05 -0.62994745D-05 -0.10673939D-04  0.10016365D-05
  0.86927937D-06 -0.41616063D-06 -0.45311874D-06 -0.95030085D-06 -0.16109325D-05
 -0.66098525D-07 -0.39607703D-06  0.35300973D-06  0.23263812D-06 -0.48884032D-06
 -0.53680707D-06 -0.90526558D-06  0.16770714D-05 -0.52222213D-06  0.20735123D-06
  0.39218403D-05 -0.52434179D-07  0.29740305D-06  0.58939919D-06 -0.17140019D-06
 -0.13935278D-05 -0.23631450D-05  0.32870272D-06  0.50131861D-06  0.59494746D-06
  0.90568302D-06  0.25133672D-05  0.46850253D-05  0.79422697D-05  0.12026937D-04
  0.15039727D-04  0.12947804D-04  0.49776086D-05 -0.21568793D-07 -0.16878924D-05
 -0.31695630D-05 -0.53972192D-05 -0.84547119D-05 -0.11330309D-04 -0.12187275D-04
 -0.73172236D-05  0.48121141D-05 -0.47950825D-06 -0.23249083D-04  0.13686891D-04
  0.53887330D-05  0.52700632D-05  0.34821536D-05  0.35172533D-05  0.34397969D-05
  0.22728192D-05  0.59573484D-05  0.58261566D-05  0.38495880D-05 -0.48019895D-05
 -0.41458142D-05 -0.70253227D-05 -0.29145541D-04 -0.30889285D-07 -0.27200328D-07
  0.68291278D-06  0.57466256D-06  0.97345073D-06  0.46830846D-05 -0.16991210D-06
 -0.45131725D-05  0.71675870D-06  0.12074432D-05 -0.78392941D-05 -0.19447943D-05
  0.56213861D-06  0.13826557D-05 -0.19150576D-05 -0.32425440D-05  0.14747612D-05
 -0.51569924D-05  0.23304225D-05  0.28265699D-05 -0.37967039D-05 -0.64187573D-05
  0.88625327D-06 -0.39995653D-07 -0.17527868D-05 -0.17039536D-05  0.37396558D-05
  0.39793595D-05  0.67121452D-05 -0.36196688D-05  0.12790010D-05 -0.16002844D-05
 -0.13255896D-04 -0.48536761D-06  0.19433569D-06  0.65032399D-06 -0.58924202D-06
 -0.15507506D-05 -0.26172256D-05  0.20453449D-05  0.96774356D-06  0.66625361D-06
  0.47437426D-05 -0.89460948D-06 -0.16675908D-05 -0.28269764D-05 -0.42808754D-05
 -0.53532498D-05 -0.46086494D-05 -0.17717331D-05  0.76772095D-08  0.58617835D-06
  0.11007391D-05  0.18743689D-05  0.29361878D-05  0.39348370D-05  0.42324478D-05
  0.25411561D-05 -0.16711712D-05  0.18530484D-06 -0.16864701D-04  0.10598064D-04
  0.28997856D-07  0.28359270D-07  0.18738169D-07 -0.38888066D-05 -0.38031679D-05
 -0.25129138D-05 -0.65854494D-05 -0.64404256D-05 -0.42554615D-05  0.15764246D-05
  0.42394236D-05  0.71818850D-05  0.96090294D-05  0.40300953D-06  0.67748844D-06
 -0.24608935D-07 -0.53045411D-06 -0.89770790D-06 -0.15205147D-05  0.35064143D-05
 -0.19858997D-05 -0.14256882D-05 -0.24228098D-05 -0.99296485D-05  0.12942288D-05
 -0.15928387D-05  0.29860992D-06  0.11954333D-05  0.20273073D-05  0.34194113D-05
 -0.12348070D-05  0.59652762D-06  0.63827940D-06 -0.32821588D-06 -0.54557200D-06
  0.76690323D-07  0.16270644D-05 -0.28559255D-05 -0.15120582D-05  0.19641773D-06
  0.34023790D-05  0.58182672D-05 -0.50776110D-05  0.51653975D-05 -0.12820926D-05
 -0.95845720D-05  0.15841487D-06  0.18319310D-05  0.64709268D-06  0.10761659D-06
 -0.14165666D-05 -0.24184824D-05 -0.58286119D-06 -0.40792264D-05  0.47720433D-06
 -0.12374570D-05  0.61135817D+00  0.11438535D+01  0.19763254D+01  0.32038540D+01
  0.48653079D+01  0.67622059D+01  0.80392873D+01  0.71607787D+01  0.35548250D+01
  0.57273926D+00  0.87930732D-02  0.15713135D-02  0.58717536D-04 -0.19777094D-04
 -0.36940771D-04 -0.64112500D-04 -0.10402853D-03 -0.16102381D-03 -0.23049096D-03
 -0.30086270D-03 -0.32061941D-03 -0.23966952D-03 -0.12651728D-04  0.16256843D-03
  0.96584322D-04 -0.36211880D-06  0.87287763D-05  0.16291003D-04  0.28312330D-04
  0.45885958D-04  0.71268077D-04  0.10209358D-03  0.13480505D-03  0.14576425D-03
  0.11428106D-03  0.56865879D-05 -0.97967765D-04 -0.10141480D-03  0.45891631D-04
 -0.31324195D-03  0.12079009D-04  0.94619709D-06 -0.12344749D-02 -0.16260805D-02
 -0.17939477D-02 -0.14900798D-02 -0.79141758D-03 -0.20412968D-03  0.20983837D-06
  0.77644915D-03  0.10227578D-02  0.11283414D-02  0.93721726D-03  0.49777885D-03
  0.12839169D-03 -0.13198229D-06  0.13169646D-02  0.17347379D-02  0.19138223D-02
  0.15896494D-02  0.84430142D-03  0.21776996D-03 -0.22386012D-06  0.70047845D-03
  0.91967686D-03  0.10471198D-02  0.88665801D-03  0.50791184D-03  0.11553232D-03
 -0.54075486D-04 -0.41259102D-03 -0.54170176D-03 -0.61676730D-03 -0.52225322D-03
 -0.29916675D-03 -0.68050057D-04  0.31851172D-04 -0.69977003D-03 -0.91874675D-03
 -0.10460608D-02 -0.88576130D-03 -0.50739817D-03 -0.11541548D-03  0.54020797D-04
  0.74378290D-04 -0.47682192D-04 -0.80877837D-04 -0.92435645D-05 -0.14532770D-06
 -0.25087182D-06  0.21571824D-06 -0.10145936D-06 -0.17176560D-06 -0.16118498D-05
 -0.20575672D-05  0.36694170D-05 -0.63462265D-05 -0.10761237D-04  0.10348333D-04
  0.38446996D-05 -0.57974335D-05  0.19527339D-05 -0.15766793D-04 -0.26743065D-04
  0.14011598D-04  0.10649073D-05 -0.33925604D-06 -0.72565126D-06 -0.47734123D-06
 -0.80984319D-06 -0.69709897D-06  0.23600467D-05 -0.31495843D-05 -0.12836066D-05
  0.17297850D-05  0.28731950D-05  0.48668842D-05 -0.88099252D-05  0.65755577D-05
 -0.10160645D-05 -0.19052050D-04  0.46993677D-06 -0.60177360D-06 -0.62750619D-06
  0.12281630D-06  0.14622960D-05  0.24838332D-05 -0.15326266D-05  0.34302477D-06
 -0.60131461D-06 -0.29913723D-05
MO    2     MO 0.0        OCC NO =    2.0000000  ORB. ENERGY = -104.886532
  0.37953437D-05  0.70753836D-05  0.11958645D-04  0.17977760D-04  0.22087756D-04
  0.18656641D-04  0.70365984D-05 -0.34824518D-07 -0.28816502D-05 -0.53953584D-05
 -0.91860594D-05 -0.14209437D-04 -0.18713329D-04 -0.19444347D-04 -0.12356010D-04
  0.82807105D-05  0.18878731D-04 -0.10569439D-03 -0.54002666D-05 -0.11976500D-04
 -0.11228730D-04 -0.79955248D-05  0.56649184D-05  0.53112211D-05  0.37819058D-05
  0.96008514D-05  0.90014084D-05  0.64095390D-05  0.25234653D-04  0.36880386D-05
  0.62558222D-05 -0.21616076D-04 -0.12214628D-04 -0.20719710D-04  0.90025684D-07
 -0.35906247D-06 -0.60822910D-06  0.27853919D-05 -0.14053119D-05 -0.13800800D-05
 -0.47832229D-05 -0.81003907D-05  0.52752138D-07 -0.21855023D-07  0.58270793D-05
 -0.58052243D-05  0.33623350D-04  0.56988594D-04 -0.21082805D-04 -0.46196861D-07
  0.15938908D-06 -0.11319222D-06 -0.28994645D-05 -0.49147415D-05 -0.48961079D-06
 -0.37577243D-05  0.20397574D-05 -0.34766162D-06 -0.30811385D-06  0.97165509D-06
  0.16507207D-05  0.11581287D-04 -0.70909274D-05 -0.60773586D-06  0.21513266D-04
 -0.74529024D-06  0.12192297D-05 -0.11293430D-05  0.52854987D-06  0.27917365D-05
  0.47319197D-05  0.17073209D-05 -0.64494257D-05 -0.13438908D-05  0.21184611D-05
  0.10723941D-05  0.19991864D-05  0.33789771D-05  0.50797094D-05  0.62410099D-05
  0.52715306D-05  0.19882274D-05 -0.98398483D-08 -0.78168369D-06 -0.14635585D-05
 -0.24918336D-05 -0.38544876D-05 -0.50762246D-05 -0.52745225D-05 -0.33517223D-05
  0.22462463D-05 -0.13667130D-06  0.53330123D-04  0.32763221D-05 -0.50931075D-05
 -0.47751120D-05 -0.34001642D-05  0.19412856D-05  0.18200787D-05  0.12960044D-05
  0.32913296D-05  0.30858307D-05  0.21972953D-05  0.86095567D-05 -0.81168644D-05
 -0.13759616D-04 -0.33924647D-04  0.11855796D-04  0.20089239D-04 -0.42265272D-06
  0.36366236D-06  0.61603376D-06  0.17605880D-05  0.25214484D-06 -0.20127329D-05
 -0.59682918D-05 -0.10117874D-04 -0.41046089D-05 -0.68417646D-05  0.64164954D-06
  0.62001151D-05  0.18736278D-04  0.31758697D-04  0.10052811D-04  0.23531564D-05
 -0.72505995D-06 -0.16280965D-05 -0.25790492D-05 -0.43705760D-05 -0.16339349D-05
 -0.92126681D-06  0.77834251D-06  0.95514901D-06 -0.10094823D-05 -0.22377690D-05
 -0.37947866D-05  0.37732827D-05 -0.97258514D-07  0.92933962D-06  0.86687551D-05
  0.16642430D-05 -0.18073518D-06  0.34779921D-05 -0.54701950D-06 -0.83595293D-05
 -0.14169057D-04 -0.44457095D-05  0.89017349D-05  0.37350808D-05 -0.70638516D-05
  0.61135786D+00  0.11438529D+01  0.19763244D+01  0.32038524D+01  0.48653054D+01
  0.67622024D+01  0.80392831D+01  0.71607750D+01  0.35548231D+01  0.57273896D+00
  0.87930687D-02  0.15713127D-02  0.58717505D-04 -0.19230435D-04 -0.35919691D-04
 -0.62340366D-04 -0.10115308D-03 -0.15657295D-03 -0.22411996D-03 -0.29254655D-03
 -0.31175717D-03 -0.23304481D-03 -0.12302022D-04  0.15807487D-03  0.93914635D-04
 -0.35210947D-06  0.84425108D-05  0.15756730D-04  0.27383810D-04  0.44381100D-04
  0.68930796D-04  0.98745355D-04  0.13038404D-03  0.14098382D-03  0.11053315D-03
  0.55000928D-05 -0.94754852D-04 -0.98088838D-04  0.44386587D-04 -0.31204351D-03
  0.67284298D-05  0.19452442D-06  0.11654133D-02  0.15351109D-02  0.16935870D-02
  0.14067186D-02  0.74714245D-03  0.19270983D-03 -0.19809916D-06 -0.76174382D-03
 -0.10033876D-02 -0.11069715D-02 -0.91946711D-03 -0.48835132D-03 -0.12596005D-03
  0.12948265D-06 -0.12909018D-02 -0.17004074D-02 -0.18759477D-02 -0.15581902D-02
 -0.82759266D-03 -0.21346029D-03  0.21942992D-06 -0.63825719D-03 -0.83798490D-03
 -0.95410746D-03 -0.80789901D-03 -0.46279566D-03 -0.10526996D-03  0.49272133D-04
  0.39882416D-03  0.52362688D-03  0.59618773D-03  0.50482728D-03  0.28918450D-03
  0.65779442D-04 -0.30788399D-04  0.67584432D-03  0.88733404D-03  0.10102951D-02
  0.85547639D-03  0.49004981D-03  0.11146933D-03 -0.52173781D-04 -0.71741330D-04
  0.47386051D-04  0.80304344D-04  0.66004090D-05  0.50132473D-06  0.85646715D-06
 -0.20969634D-06  0.87088492D-07  0.14741424D-06 -0.11725595D-05 -0.20154547D-05
  0.31880142D-05 -0.60845121D-05 -0.10312594D-04  0.94149822D-05  0.26154380D-05
 -0.52400059D-05  0.26245679D-05 -0.14646117D-04 -0.24818565D-04  0.14244669D-04
  0.86939024D-06 -0.23971072D-06 -0.62967952D-06 -0.24019150D-06 -0.40595951D-06
 -0.70410141D-06 -0.23372496D-05  0.31662990D-05  0.12688131D-05 -0.16540330D-05
 -0.28311734D-05 -0.47955489D-05  0.86657816D-05 -0.66677235D-05  0.98910961D-06
  0.18679874D-04 -0.47251694D-06  0.54370799D-06  0.49171893D-06 -0.79255091D-07
 -0.11419920D-05 -0.19367120D-05  0.14968059D-05 -0.48913198D-06  0.46155519D-06
  0.28563026D-05 -0.16002956D-05 -0.29830204D-05 -0.50569529D-05 -0.76577171D-05
 -0.95760021D-05 -0.82440458D-05 -0.31693122D-05  0.13733148D-07  0.10595769D-05
  0.19896978D-05  0.33881122D-05  0.53074577D-05  0.71126178D-05  0.76505794D-05
  0.45933978D-05 -0.30208117D-05  0.32045527D-06 -0.11225018D-04  0.73018993D-05
 -0.14753487D-05 -0.14428589D-05 -0.95335785D-06  0.30826705D-05  0.30147844D-05
  0.19919955D-05  0.52205758D-05  0.51056091D-05  0.33734918D-05 -0.34419415D-06
 -0.32772047D-05 -0.55515588D-05 -0.21320078D-05 -0.41188567D-06 -0.69208774D-06
 -0.15767739D-06  0.39508481D-06  0.66834883D-06 -0.28302591D-05  0.36748514D-05
 -0.84459231D-06 -0.16670339D-05 -0.28330187D-05 -0.81790716D-05  0.18615688D-05
 -0.17996738D-05 -0.61895000D-07  0.17506226D-05  0.29689642D-05  0.31449103D-05
  0.10454468D-06 -0.85656036D-08 -0.95979078D-07  0.67859090D-06  0.11565716D-05
 -0.15953371D-06 -0.16736650D-05  0.34288837D-05  0.20203869D-05 -0.12031299D-05
 -0.45973766D-05 -0.78192515D-05  0.62241248D-05 -0.56892743D-05  0.17580908D-05
  0.13482180D-04 -0.33899716D-07 -0.19494143D-05 -0.84373464D-06  0.45761348D-07
  0.18849952D-05  0.32043352D-05  0.55937802D-07  0.39632477D-05 -0.67313126D-06
  0.79960469D-08  0.28420543D-05  0.52977123D-05  0.89809248D-05  0.13599767D-04
  0.17006556D-04  0.14641061D-04  0.56285583D-05 -0.24389465D-07 -0.19047107D-05
 -0.35767094D-05 -0.60905193D-05 -0.95407625D-05 -0.12785744D-04 -0.13752792D-04
 -0.82571581D-05  0.54302546D-05 -0.54609760D-06 -0.19548098D-04  0.11328189D-04
 -0.55871569D-05 -0.54641174D-05 -0.36103734D-05 -0.25982459D-05 -0.25410278D-05
 -0.16789645D-05 -0.44019168D-05 -0.43049785D-05 -0.28444813D-05  0.45490960D-05
  0.31555876D-05  0.53473720D-05  0.27598483D-04 -0.82697856D-07 -0.14945809D-06
 -0.70043854D-06 -0.45273100D-06 -0.76707603D-06  0.52563659D-05 -0.11190613D-05