 Molden2AIM, Version 4.0.0 (06/02/2016)           Time: Wed Jun 27 20:29:34 2018
GAUSSIAN             50 MOL ORBITALS    826 PRIMITIVES        6 NUCLEI
  C    1    (CENTRE  1)  -5.59621794  2.26962722 -0.20443057  CHARGE =  6.0
  C    2    (CENTRE  2)  -3.06893979  2.29528970 -0.16118041  CHARGE =  6.0
  Br   3    (CENTRE  3)  -7.72812758  3.68468248  2.19933885  CHARGE = 35.0
  F    4    (CENTRE  4)  -6.78454576  1.13986390 -2.11576949  CHARGE =  9.0
  Br   5    (CENTRE  5)  -1.05051009  3.75399197  2.31343296  CHARGE = 35.0
  F    6    (CENTRE  6)  -1.79369969  1.19153279 -2.03139133  CHARGE =  9.0
CENTRE ASSIGNMENTS    1  1  1  1  1  1  1  1  1  1  1  1  1  1  1  1  1  1  1  1
CENTRE ASSIGNMENTS    1  1  1  1  1  1  1  1  1  1  1  1  1  1  1  1  1  1  1  1
CENTRE ASSIGNMENTS    1  1  1  1  1  1  1  1  1  1  1  1  1  1  1  1  1  1  1  1
CENTRE ASSIGNMENTS    1  1  1  1  1  1  1  1  1  1  1  1  1  1  1  2  2  2  2  2
CENTRE ASSIGNMENTS    2  2  2  2  2  2  2  2  2  2  2  2  2  2  2  2  2  2  2  2
CENTRE ASSIGNMENTS    2  2  2  2  2  2  2  2  2  2  2  2  2  2  2  2  2  2  2  2
CENTRE ASSIGNMENTS    2  2  2  2  2  2  2  2  2  2  2  2  2  2  2  2  2  2  2  2
CENTRE ASSIGNMENTS    2  2  2  2  2  2  2  2  2  2  3  3  3  3  3  3  3  3  3  3
CENTRE ASSIGNMENTS    3  3  3  3  3  3  3  3  3  3  3  3  3  3  3  3  3  3  3  3
CENTRE ASSIGNMENTS    3  3  3  3  3  3  3  3  3  3  3  3  3  3  3  3  3  3  3  3
CENTRE ASSIGNMENTS    3  3  3  3  3  3  3  3  3  3  3  3  3  3  3  3  3  3  3  3
CENTRE ASSIGNMENTS    3  3  3  3  3  3  3  3  3  3  3  3  3  3  3  3  3  3  3  3
CENTRE ASSIGNMENTS    3  3  3  3  3  3  3  3  3  3  3  3  3  3  3  3  3  3  3  3
CENTRE ASSIGNMENTS    3  3  3  3  3  3  3  3  3  3  3  3  3  3  3  3  3  3  3  3
CENTRE ASSIGNMENTS    3  3  3  3  3  3  3  3  3  3  3  3  3  3  3  3  3  3  3  3
CENTRE ASSIGNMENTS    3  3  3  3  3  3  3  3  3  3  3  3  3  3  3  3  3  3  3  3
CENTRE ASSIGNMENTS    3  3  3  3  3  3  3  3  3  3  3  3  3  3  3  3  3  3  3  3
CENTRE ASSIGNMENTS    3  3  3  3  3  3  3  3  3  3  3  3  3  3  3  3  3  3  3  3
CENTRE ASSIGNMENTS    3  3  3  3  3  3  3  3  3  3  3  3  3  3  3  3  3  3  3  3
CENTRE ASSIGNMENTS    3  3  3  3  3  3  3  3  3  3  3  3  3  3  3  3  3  3  3  3
CENTRE ASSIGNMENTS    3  3  3  3  3  3  3  3  3  3  3  3  3  4  4  4  4  4  4  4
CENTRE ASSIGNMENTS    4  4  4  4  4  4  4  4  4  4  4  4  4  4  4  4  4  4  4  4
CENTRE ASSIGNMENTS    4  4  4  4  4  4  4  4  4  4  4  4  4  4  4  4  4  4  4  4
CENTRE ASSIGNMENTS    4  4  4  4  4  4  4  4  4  4  4  4  4  4  4  4  4  4  4  4
CENTRE ASSIGNMENTS    4  4  4  4  4  4  4  4  5  5  5  5  5  5  5  5  5  5  5  5
CENTRE ASSIGNMENTS    5  5  5  5  5  5  5  5  5  5  5  5  5  5  5  5  5  5  5  5
CENTRE ASSIGNMENTS    5  5  5  5  5  5  5  5  5  5  5  5  5  5  5  5  5  5  5  5
CENTRE ASSIGNMENTS    5  5  5  5  5  5  5  5  5  5  5  5  5  5  5  5  5  5  5  5
CENTRE ASSIGNMENTS    5  5  5  5  5  5  5  5  5  5  5  5  5  5  5  5  5  5  5  5
CENTRE ASSIGNMENTS    5  5  5  5  5  5  5  5  5  5  5  5  5  5  5  5  5  5  5  5
CENTRE ASSIGNMENTS    5  5  5  5  5  5  5  5  5  5  5  5  5  5  5  5  5  5  5  5
CENTRE ASSIGNMENTS    5  5  5  5  5  5  5  5  5  5  5  5  5  5  5  5  5  5  5  5
CENTRE ASSIGNMENTS    5  5  5  5  5  5  5  5  5  5  5  5  5  5  5  5  5  5  5  5
CENTRE ASSIGNMENTS    5  5  5  5  5  5  5  5  5  5  5  5  5  5  5  5  5  5  5  5
CENTRE ASSIGNMENTS    5  5  5  5  5  5  5  5  5  5  5  5  5  5  5  5  5  5  5  5
CENTRE ASSIGNMENTS    5  5  5  5  5  5  5  5  5  5  5  5  5  5  5  5  5  5  5  5
CENTRE ASSIGNMENTS    5  5  5  5  5  5  5  5  5  5  5  5  5  5  5  5  5  5  5  5
CENTRE ASSIGNMENTS    5  5  5  5  5  5  5  5  5  5  5  6  6  6  6  6  6  6  6  6
CENTRE ASSIGNMENTS    6  6  6  6  6  6  6  6  6  6  6  6  6  6  6  6  6  6  6  6
CENTRE ASSIGNMENTS    6  6  6  6  6  6  6  6  6  6  6  6  6  6  6  6  6  6  6  6
CENTRE ASSIGNMENTS    6  6  6  6  6  6  6  6  6  6  6  6  6  6  6  6  6  6  6  6
CENTRE ASSIGNMENTS    6  6  6  6  6  6
TYPE ASSIGNMENTS      1  1  1  1  1  1  1  1  1  1  1  1  1  1  1  1  1  1  1  2
TYPE ASSIGNMENTS      2  2  3  3  3  4  4  4  2  3  4  2  3  4  2  3  4  5  6  7
TYPE ASSIGNMENTS      8  9 10  5  6  7  8  9 10  5  6  7  8  9 10 11 12 13 17 14
TYPE ASSIGNMENTS     15 18 19 16 20 11 12 13 17 14 15 18 19 16 20  1  1  1  1  1
TYPE ASSIGNMENTS      1  1  1  1  1  1  1  1  1  1  1  1  1  1  2  2  2  3  3  3
TYPE ASSIGNMENTS      4  4  4  2  3  4  2  3  4  2  3  4  5  6  7  8  9 10  5  6
TYPE ASSIGNMENTS      7  8  9 10  5  6  7  8  9 10 11 12 13 17 14 15 18 19 16 20
TYPE ASSIGNMENTS     11 12 13 17 14 15 18 19 16 20  1  1  1  1  1  1  1  1  1  1
TYPE ASSIGNMENTS      1  1  1  1  1  1  1  1  1  1  1  1  1  1  1  1  1  1  1  1
TYPE ASSIGNMENTS      1  1  1  1  1  1  1  1  1  1  1  1  1  1  1  1  1  1  1  1
TYPE ASSIGNMENTS      1  1  1  1  1  1  1  1  1  1  1  1  1  1  1  1  1  1  1  1
TYPE ASSIGNMENTS      1  1  1  1  1  2  2  2  2  2  2  2  2  2  2  2  3  3  3  3
TYPE ASSIGNMENTS      3  3  3  3  3  3  3  4  4  4  4  4  4  4  4  4  4  4  2  2
TYPE ASSIGNMENTS      2  2  2  2  2  2  2  2  2  3  3  3  3  3  3  3  3  3  3  3
TYPE ASSIGNMENTS      4  4  4  4  4  4  4  4  4  4  4  2  2  2  2  2  2  2  2  2
TYPE ASSIGNMENTS      2  2  3  3  3  3  3  3  3  3  3  3  3  4  4  4  4  4  4  4
TYPE ASSIGNMENTS      4  4  4  4  2  3  4  2  3  4  2  3  4  5  5  5  5  5  5  5
TYPE ASSIGNMENTS      6  6  6  6  6  6  6  7  7  7  7  7  7  7  8  8  8  8  8  8
TYPE ASSIGNMENTS      8  9  9  9  9  9  9  9 10 10 10 10 10 10 10  5  6  7  8  9
TYPE ASSIGNMENTS     10  5  6  7  8  9 10  5  6  7  8  9 10 11 12 13 17 14 15 18
TYPE ASSIGNMENTS     19 16 20 11 12 13 17 14 15 18 19 16 20  1  1  1  1  1  1  1
TYPE ASSIGNMENTS      1  1  1  1  1  1  1  1  1  1  1  1  2  2  2  3  3  3  4  4
TYPE ASSIGNMENTS      4  2  3  4  2  3  4  2  3  4  5  6  7  8  9 10  5  6  7  8
TYPE ASSIGNMENTS      9 10  5  6  7  8  9 10 11 12 13 17 14 15 18 19 16 20 11 12
TYPE ASSIGNMENTS     13 17 14 15 18 19 16 20  1  1  1  1  1  1  1  1  1  1  1  1
TYPE ASSIGNMENTS      1  1  1  1  1  1  1  1  1  1  1  1  1  1  1  1  1  1  1  1
TYPE ASSIGNMENTS      1  1  1  1  1  1  1  1  1  1  1  1  1  1  1  1  1  1  1  1
TYPE ASSIGNMENTS      1  1  1  1  1  1  1  1  1  1  1  1  1  1  1  1  1  1  1  1
TYPE ASSIGNMENTS      1  1  1  2  2  2  2  2  2  2  2  2  2  2  3  3  3  3  3  3
TYPE ASSIGNMENTS      3  3  3  3  3  4  4  4  4  4  4  4  4  4  4  4  2  2  2  2
TYPE ASSIGNMENTS      2  2  2  2  2  2  2  3  3  3  3  3  3  3  3  3  3  3  4  4
TYPE ASSIGNMENTS      4  4  4  4  4  4  4  4  4  2  2  2  2  2  2  2  2  2  2  2
TYPE ASSIGNMENTS      3  3  3  3  3  3  3  3  3  3  3  4  4  4  4  4  4  4  4  4
TYPE ASSIGNMENTS      4  4  2  3  4  2  3  4  2  3  4  5  5  5  5  5  5  5  6  6
TYPE ASSIGNMENTS      6  6  6  6  6  7  7  7  7  7  7  7  8  8  8  8  8  8  8  9
TYPE ASSIGNMENTS      9  9  9  9  9  9 10 10 10 10 10 10 10  5  6  7  8  9 10  5
TYPE ASSIGNMENTS      6  7  8  9 10  5  6  7  8  9 10 11 12 13 17 14 15 18 19 16
TYPE ASSIGNMENTS     20 11 12 13 17 14 15 18 19 16 20  1  1  1  1  1  1  1  1  1
TYPE ASSIGNMENTS      1  1  1  1  1  1  1  1  1  1  2  2  2  3  3  3  4  4  4  2
TYPE ASSIGNMENTS      3  4  2  3  4  2  3  4  5  6  7  8  9 10  5  6  7  8  9 10
TYPE ASSIGNMENTS      5  6  7  8  9 10 11 12 13 17 14 15 18 19 16 20 11 12 13 17
TYPE ASSIGNMENTS     14 15 18 19 16 20
EXPONENTS  0.8236000D+04 0.1235000D+04 0.2808000D+03 0.7927000D+02 0.2559000D+02
EXPONENTS  0.8997000D+01 0.3319000D+01 0.3643000D+00 0.8236000D+04 0.1235000D+04
EXPONENTS  0.2808000D+03 0.7927000D+02 0.2559000D+02 0.8997000D+01 0.3319000D+01
EXPONENTS  0.3643000D+00 0.9059000D+00 0.1285000D+00 0.4402000D-01 0.1871000D+02
EXPONENTS  0.4133000D+01 0.1200000D+01 0.1871000D+02 0.4133000D+01 0.1200000D+01
EXPONENTS  0.1871000D+02 0.4133000D+01 0.1200000D+01 0.3827000D+00 0.3827000D+00
EXPONENTS  0.3827000D+00 0.1209000D+00 0.1209000D+00 0.1209000D+00 0.3569000D-01
EXPONENTS  0.3569000D-01 0.3569000D-01 0.1097000D+01 0.1097000D+01 0.1097000D+01
EXPONENTS  0.1097000D+01 0.1097000D+01 0.1097000D+01 0.3180000D+00 0.3180000D+00
EXPONENTS  0.3180000D+00 0.3180000D+00 0.3180000D+00 0.3180000D+00 0.1000000D+00
EXPONENTS  0.1000000D+00 0.1000000D+00 0.1000000D+00 0.1000000D+00 0.1000000D+00
EXPONENTS  0.7610000D+00 0.7610000D+00 0.7610000D+00 0.7610000D+00 0.7610000D+00
EXPONENTS  0.7610000D+00 0.7610000D+00 0.7610000D+00 0.7610000D+00 0.7610000D+00
EXPONENTS  0.2680000D+00 0.2680000D+00 0.2680000D+00 0.2680000D+00 0.2680000D+00
EXPONENTS  0.2680000D+00 0.2680000D+00 0.2680000D+00 0.2680000D+00 0.2680000D+00
EXPONENTS  0.8236000D+04 0.1235000D+04 0.2808000D+03 0.7927000D+02 0.2559000D+02
EXPONENTS  0.8997000D+01 0.3319000D+01 0.3643000D+00 0.8236000D+04 0.1235000D+04
EXPONENTS  0.2808000D+03 0.7927000D+02 0.2559000D+02 0.8997000D+01 0.3319000D+01
EXPONENTS  0.3643000D+00 0.9059000D+00 0.1285000D+00 0.4402000D-01 0.1871000D+02
EXPONENTS  0.4133000D+01 0.1200000D+01 0.1871000D+02 0.4133000D+01 0.1200000D+01
EXPONENTS  0.1871000D+02 0.4133000D+01 0.1200000D+01 0.3827000D+00 0.3827000D+00
EXPONENTS  0.3827000D+00 0.1209000D+00 0.1209000D+00 0.1209000D+00 0.3569000D-01
EXPONENTS  0.3569000D-01 0.3569000D-01 0.1097000D+01 0.1097000D+01 0.1097000D+01
EXPONENTS  0.1097000D+01 0.1097000D+01 0.1097000D+01 0.3180000D+00 0.3180000D+00
EXPONENTS  0.3180000D+00 0.3180000D+00 0.3180000D+00 0.3180000D+00 0.1000000D+00
EXPONENTS  0.1000000D+00 0.1000000D+00 0.1000000D+00 0.1000000D+00 0.1000000D+00
EXPONENTS  0.7610000D+00 0.7610000D+00 0.7610000D+00 0.7610000D+00 0.7610000D+00
EXPONENTS  0.7610000D+00 0.7610000D+00 0.7610000D+00 0.7610000D+00 0.7610000D+00
EXPONENTS  0.2680000D+00 0.2680000D+00 0.2680000D+00 0.2680000D+00 0.2680000D+00
EXPONENTS  0.2680000D+00 0.2680000D+00 0.2680000D+00 0.2680000D+00 0.2680000D+00
EXPONENTS  0.1063900D+08 0.1593400D+07 0.3626100D+06 0.1027000D+06 0.3350100D+05
EXPONENTS  0.1209300D+05 0.4715900D+04 0.1955600D+04 0.8526100D+03 0.3876700D+03
EXPONENTS  0.1826800D+03 0.8824500D+02 0.3926300D+02 0.1923400D+02 0.9405700D+01
EXPONENTS  0.4160100D+01 0.1899500D+01 0.3011400D+00 0.1063900D+08 0.1593400D+07
EXPONENTS  0.3626100D+06 0.1027000D+06 0.3350100D+05 0.1209300D+05 0.4715900D+04
EXPONENTS  0.1955600D+04 0.8526100D+03 0.3876700D+03 0.1826800D+03 0.8824500D+02
EXPONENTS  0.3926300D+02 0.1923400D+02 0.9405700D+01 0.4160100D+01 0.1899500D+01
EXPONENTS  0.3011400D+00 0.1063900D+08 0.1593400D+07 0.3626100D+06 0.1027000D+06
EXPONENTS  0.3350100D+05 0.1209300D+05 0.4715900D+04 0.1955600D+04 0.8526100D+03
EXPONENTS  0.3876700D+03 0.1826800D+03 0.8824500D+02 0.3926300D+02 0.1923400D+02
EXPONENTS  0.9405700D+01 0.4160100D+01 0.1899500D+01 0.3011400D+00 0.1063900D+08
EXPONENTS  0.1593400D+07 0.3626100D+06 0.1027000D+06 0.3350100D+05 0.1209300D+05
EXPONENTS  0.4715900D+04 0.1955600D+04 0.8526100D+03 0.3876700D+03 0.1826800D+03
EXPONENTS  0.8824500D+02 0.3926300D+02 0.1923400D+02 0.9405700D+01 0.4160100D+01
EXPONENTS  0.1899500D+01 0.3011400D+00 0.6047200D+00 0.1251500D+00 0.4559300D-01
EXPONENTS  0.8676500D+04 0.2055900D+04 0.6662300D+03 0.2531000D+03 0.1061200D+03
EXPONENTS  0.4724200D+02 0.2182500D+02 0.9968400D+01 0.4517100D+01 0.1998200D+01
EXPONENTS  0.2814500D+00 0.8676500D+04 0.2055900D+04 0.6662300D+03 0.2531000D+03
EXPONENTS  0.1061200D+03 0.4724200D+02 0.2182500D+02 0.9968400D+01 0.4517100D+01
EXPONENTS  0.1998200D+01 0.2814500D+00 0.8676500D+04 0.2055900D+04 0.6662300D+03
EXPONENTS  0.2531000D+03 0.1061200D+03 0.4724200D+02 0.2182500D+02 0.9968400D+01
EXPONENTS  0.4517100D+01 0.1998200D+01 0.2814500D+00 0.8676500D+04 0.2055900D+04
EXPONENTS  0.6662300D+03 0.2531000D+03 0.1061200D+03 0.4724200D+02 0.2182500D+02
EXPONENTS  0.9968400D+01 0.4517100D+01 0.1998200D+01 0.2814500D+00 0.8676500D+04
EXPONENTS  0.2055900D+04 0.6662300D+03 0.2531000D+03 0.1061200D+03 0.4724200D+02
EXPONENTS  0.2182500D+02 0.9968400D+01 0.4517100D+01 0.1998200D+01 0.2814500D+00
EXPONENTS  0.8676500D+04 0.2055900D+04 0.6662300D+03 0.2531000D+03 0.1061200D+03
EXPONENTS  0.4724200D+02 0.2182500D+02 0.9968400D+01 0.4517100D+01 0.1998200D+01
EXPONENTS  0.2814500D+00 0.8676500D+04 0.2055900D+04 0.6662300D+03 0.2531000D+03
EXPONENTS  0.1061200D+03 0.4724200D+02 0.2182500D+02 0.9968400D+01 0.4517100D+01
EXPONENTS  0.1998200D+01 0.2814500D+00 0.8676500D+04 0.2055900D+04 0.6662300D+03
EXPONENTS  0.2531000D+03 0.1061200D+03 0.4724200D+02 0.2182500D+02 0.9968400D+01
EXPONENTS  0.4517100D+01 0.1998200D+01 0.2814500D+00 0.8676500D+04 0.2055900D+04
EXPONENTS  0.6662300D+03 0.2531000D+03 0.1061200D+03 0.4724200D+02 0.2182500D+02
EXPONENTS  0.9968400D+01 0.4517100D+01 0.1998200D+01 0.2814500D+00 0.7098800D+00
EXPONENTS  0.7098800D+00 0.7098800D+00 0.1020400D+00 0.1020400D+00 0.1020400D+00
EXPONENTS  0.3514200D-01 0.3514200D-01 0.3514200D-01 0.4038300D+03 0.1211700D+03
EXPONENTS  0.4634500D+02 0.1972100D+02 0.8862400D+01 0.3996200D+01 0.1763600D+01
EXPONENTS  0.4038300D+03 0.1211700D+03 0.4634500D+02 0.1972100D+02 0.8862400D+01
EXPONENTS  0.3996200D+01 0.1763600D+01 0.4038300D+03 0.1211700D+03 0.4634500D+02
EXPONENTS  0.1972100D+02 0.8862400D+01 0.3996200D+01 0.1763600D+01 0.4038300D+03
EXPONENTS  0.1211700D+03 0.4634500D+02 0.1972100D+02 0.8862400D+01 0.3996200D+01
EXPONENTS  0.1763600D+01 0.4038300D+03 0.1211700D+03 0.4634500D+02 0.1972100D+02
EXPONENTS  0.8862400D+01 0.3996200D+01 0.1763600D+01 0.4038300D+03 0.1211700D+03
EXPONENTS  0.4634500D+02 0.1972100D+02 0.8862400D+01 0.3996200D+01 0.1763600D+01
EXPONENTS  0.7061900D+00 0.7061900D+00 0.7061900D+00 0.7061900D+00 0.7061900D+00
EXPONENTS  0.7061900D+00 0.2639000D+00 0.2639000D+00 0.2639000D+00 0.2639000D+00
EXPONENTS  0.2639000D+00 0.2639000D+00 0.1047000D+00 0.1047000D+00 0.1047000D+00
EXPONENTS  0.1047000D+00 0.1047000D+00 0.1047000D+00 0.5515000D+00 0.5515000D+00
EXPONENTS  0.5515000D+00 0.5515000D+00 0.5515000D+00 0.5515000D+00 0.5515000D+00
EXPONENTS  0.5515000D+00 0.5515000D+00 0.5515000D+00 0.2580000D+00 0.2580000D+00
EXPONENTS  0.2580000D+00 0.2580000D+00 0.2580000D+00 0.2580000D+00 0.2580000D+00
EXPONENTS  0.2580000D+00 0.2580000D+00 0.2580000D+00 0.1950000D+05 0.2923000D+04
EXPONENTS  0.6645000D+03 0.1875000D+03 0.6062000D+02 0.2142000D+02 0.7950000D+01
EXPONENTS  0.8815000D+00 0.1950000D+05 0.2923000D+04 0.6645000D+03 0.1875000D+03
EXPONENTS  0.6062000D+02 0.2142000D+02 0.7950000D+01 0.8815000D+00 0.2257000D+01
EXPONENTS  0.3041000D+00 0.9158000D-01 0.4388000D+02 0.9926000D+01 0.2930000D+01
EXPONENTS  0.4388000D+02 0.9926000D+01 0.2930000D+01 0.4388000D+02 0.9926000D+01
EXPONENTS  0.2930000D+01 0.9132000D+00 0.9132000D+00 0.9132000D+00 0.2672000D+00
EXPONENTS  0.2672000D+00 0.2672000D+00 0.7361000D-01 0.7361000D-01 0.7361000D-01
EXPONENTS  0.3107000D+01 0.3107000D+01 0.3107000D+01 0.3107000D+01 0.3107000D+01
EXPONENTS  0.3107000D+01 0.8550000D+00 0.8550000D+00 0.8550000D+00 0.8550000D+00
EXPONENTS  0.8550000D+00 0.8550000D+00 0.2920000D+00 0.2920000D+00 0.2920000D+00
EXPONENTS  0.2920000D+00 0.2920000D+00 0.2920000D+00 0.1917000D+01 0.1917000D+01
EXPONENTS  0.1917000D+01 0.1917000D+01 0.1917000D+01 0.1917000D+01 0.1917000D+01
EXPONENTS  0.1917000D+01 0.1917000D+01 0.1917000D+01 0.7240000D+00 0.7240000D+00
EXPONENTS  0.7240000D+00 0.7240000D+00 0.7240000D+00 0.7240000D+00 0.7240000D+00
EXPONENTS  0.7240000D+00 0.7240000D+00 0.7240000D+00 0.1063900D+08 0.1593400D+07
EXPONENTS  0.3626100D+06 0.1027000D+06 0.3350100D+05 0.1209300D+05 0.4715900D+04
EXPONENTS  0.1955600D+04 0.8526100D+03 0.3876700D+03 0.1826800D+03 0.8824500D+02
EXPONENTS  0.3926300D+02 0.1923400D+02 0.9405700D+01 0.4160100D+01 0.1899500D+01
EXPONENTS  0.3011400D+00 0.1063900D+08 0.1593400D+07 0.3626100D+06 0.1027000D+06
EXPONENTS  0.3350100D+05 0.1209300D+05 0.4715900D+04 0.1955600D+04 0.8526100D+03
EXPONENTS  0.3876700D+03 0.1826800D+03 0.8824500D+02 0.3926300D+02 0.1923400D+02
EXPONENTS  0.9405700D+01 0.4160100D+01 0.1899500D+01 0.3011400D+00 0.1063900D+08
EXPONENTS  0.1593400D+07 0.3626100D+06 0.1027000D+06 0.3350100D+05 0.1209300D+05
EXPONENTS  0.4715900D+04 0.1955600D+04 0.8526100D+03 0.3876700D+03 0.1826800D+03
EXPONENTS  0.8824500D+02 0.3926300D+02 0.1923400D+02 0.9405700D+01 0.4160100D+01
EXPONENTS  0.1899500D+01 0.3011400D+00 0.1063900D+08 0.1593400D+07 0.3626100D+06
EXPONENTS  0.1027000D+06 0.3350100D+05 0.1209300D+05 0.4715900D+04 0.1955600D+04
EXPONENTS  0.8526100D+03 0.3876700D+03 0.1826800D+03 0.8824500D+02 0.3926300D+02
EXPONENTS  0.1923400D+02 0.9405700D+01 0.4160100D+01 0.1899500D+01 0.3011400D+00
EXPONENTS  0.6047200D+00 0.1251500D+00 0.4559300D-01 0.8676500D+04 0.2055900D+04
EXPONENTS  0.6662300D+03 0.2531000D+03 0.1061200D+03 0.4724200D+02 0.2182500D+02
EXPONENTS  0.9968400D+01 0.4517100D+01 0.1998200D+01 0.2814500D+00 0.8676500D+04
EXPONENTS  0.2055900D+04 0.6662300D+03 0.2531000D+03 0.1061200D+03 0.4724200D+02
EXPONENTS  0.2182500D+02 0.9968400D+01 0.4517100D+01 0.1998200D+01 0.2814500D+00
EXPONENTS  0.8676500D+04 0.2055900D+04 0.6662300D+03 0.2531000D+03 0.1061200D+03
EXPONENTS  0.4724200D+02 0.2182500D+02 0.9968400D+01 0.4517100D+01 0.1998200D+01
EXPONENTS  0.2814500D+00 0.8676500D+04 0.2055900D+04 0.6662300D+03 0.2531000D+03
EXPONENTS  0.1061200D+03 0.4724200D+02 0.2182500D+02 0.9968400D+01 0.4517100D+01
EXPONENTS  0.1998200D+01 0.2814500D+00 0.8676500D+04 0.2055900D+04 0.6662300D+03
EXPONENTS  0.2531000D+03 0.1061200D+03 0.4724200D+02 0.2182500D+02 0.9968400D+01
EXPONENTS  0.4517100D+01 0.1998200D+01 0.2814500D+00 0.8676500D+04 0.2055900D+04
EXPONENTS  0.6662300D+03 0.2531000D+03 0.1061200D+03 0.4724200D+02 0.2182500D+02
EXPONENTS  0.9968400D+01 0.4517100D+01 0.1998200D+01 0.2814500D+00 0.8676500D+04
EXPONENTS  0.2055900D+04 0.6662300D+03 0.2531000D+03 0.1061200D+03 0.4724200D+02
EXPONENTS  0.2182500D+02 0.9968400D+01 0.4517100D+01 0.1998200D+01 0.2814500D+00
EXPONENTS  0.8676500D+04 0.2055900D+04 0.6662300D+03 0.2531000D+03 0.1061200D+03
EXPONENTS  0.4724200D+02 0.2182500D+02 0.9968400D+01 0.4517100D+01 0.1998200D+01
EXPONENTS  0.2814500D+00 0.8676500D+04 0.2055900D+04 0.6662300D+03 0.2531000D+03
EXPONENTS  0.1061200D+03 0.4724200D+02 0.2182500D+02 0.9968400D+01 0.4517100D+01
EXPONENTS  0.1998200D+01 0.2814500D+00 0.7098800D+00 0.7098800D+00 0.7098800D+00
EXPONENTS  0.1020400D+00 0.1020400D+00 0.1020400D+00 0.3514200D-01 0.3514200D-01
EXPONENTS  0.3514200D-01 0.4038300D+03 0.1211700D+03 0.4634500D+02 0.1972100D+02
EXPONENTS  0.8862400D+01 0.3996200D+01 0.1763600D+01 0.4038300D+03 0.1211700D+03
EXPONENTS  0.4634500D+02 0.1972100D+02 0.8862400D+01 0.3996200D+01 0.1763600D+01
EXPONENTS  0.4038300D+03 0.1211700D+03 0.4634500D+02 0.1972100D+02 0.8862400D+01
EXPONENTS  0.3996200D+01 0.1763600D+01 0.4038300D+03 0.1211700D+03 0.4634500D+02
EXPONENTS  0.1972100D+02 0.8862400D+01 0.3996200D+01 0.1763600D+01 0.4038300D+03
EXPONENTS  0.1211700D+03 0.4634500D+02 0.1972100D+02 0.8862400D+01 0.3996200D+01
EXPONENTS  0.1763600D+01 0.4038300D+03 0.1211700D+03 0.4634500D+02 0.1972100D+02
EXPONENTS  0.8862400D+01 0.3996200D+01 0.1763600D+01 0.7061900D+00 0.7061900D+00
EXPONENTS  0.7061900D+00 0.7061900D+00 0.7061900D+00 0.7061900D+00 0.2639000D+00
EXPONENTS  0.2639000D+00 0.2639000D+00 0.2639000D+00 0.2639000D+00 0.2639000D+00
EXPONENTS  0.1047000D+00 0.1047000D+00 0.1047000D+00 0.1047000D+00 0.1047000D+00
EXPONENTS  0.1047000D+00 0.5515000D+00 0.5515000D+00 0.5515000D+00 0.5515000D+00
EXPONENTS  0.5515000D+00 0.5515000D+00 0.5515000D+00 0.5515000D+00 0.5515000D+00
EXPONENTS  0.5515000D+00 0.2580000D+00 0.2580000D+00 0.2580000D+00 0.2580000D+00
EXPONENTS  0.2580000D+00 0.2580000D+00 0.2580000D+00 0.2580000D+00 0.2580000D+00
EXPONENTS  0.2580000D+00 0.1950000D+05 0.2923000D+04 0.6645000D+03 0.1875000D+03
EXPONENTS  0.6062000D+02 0.2142000D+02 0.7950000D+01 0.8815000D+00 0.1950000D+05
EXPONENTS  0.2923000D+04 0.6645000D+03 0.1875000D+03 0.6062000D+02 0.2142000D+02
EXPONENTS  0.7950000D+01 0.8815000D+00 0.2257000D+01 0.3041000D+00 0.9158000D-01
EXPONENTS  0.4388000D+02 0.9926000D+01 0.2930000D+01 0.4388000D+02 0.9926000D+01
EXPONENTS  0.2930000D+01 0.4388000D+02 0.9926000D+01 0.2930000D+01 0.9132000D+00
EXPONENTS  0.9132000D+00 0.9132000D+00 0.2672000D+00 0.2672000D+00 0.2672000D+00
EXPONENTS  0.7361000D-01 0.7361000D-01 0.7361000D-01 0.3107000D+01 0.3107000D+01
EXPONENTS  0.3107000D+01 0.3107000D+01 0.3107000D+01 0.3107000D+01 0.8550000D+00
EXPONENTS  0.8550000D+00 0.8550000D+00 0.8550000D+00 0.8550000D+00 0.8550000D+00
EXPONENTS  0.2920000D+00 0.2920000D+00 0.2920000D+00 0.2920000D+00 0.2920000D+00
EXPONENTS  0.2920000D+00 0.1917000D+01 0.1917000D+01 0.1917000D+01 0.1917000D+01
EXPONENTS  0.1917000D+01 0.1917000D+01 0.1917000D+01 0.1917000D+01 0.1917000D+01
EXPONENTS  0.1917000D+01 0.7240000D+00 0.7240000D+00 0.7240000D+00 0.7240000D+00
EXPONENTS  0.7240000D+00 0.7240000D+00 0.7240000D+00 0.7240000D+00 0.7240000D+00
EXPONENTS  0.7240000D+00
MO    1     MO 0.0        OCC NO =    2.0000000  ORB. ENERGY = -490.066490
 -0.35512088D-06 -0.66202606D-06 -0.11189407D-05 -0.16821343D-05 -0.20666964D-05
 -0.17456555D-05 -0.65839702D-06  0.32584436D-08  0.25034723D-06  0.46872901D-06
  0.79805125D-06  0.12344639D-05  0.16257456D-05  0.16892538D-05  0.10734449D-05
 -0.71939784D-06 -0.34311039D-06  0.57751787D-05 -0.13871441D-05 -0.10559604D-06
 -0.99002999D-07 -0.70496033D-07  0.23547967D-07  0.22077716D-07  0.15720649D-07
  0.39499680D-07  0.37033461D-07  0.26370030D-07 -0.96717587D-06 -0.98894462D-08
 -0.15581683D-07  0.26755171D-05 -0.19384666D-06 -0.33066234D-06  0.73139830D-08
 -0.14828243D-07 -0.25123610D-07  0.44962298D-07  0.33359612D-07 -0.78321910D-07
 -0.97003864D-07 -0.16471476D-06 -0.20203926D-06 -0.36809505D-06 -0.26128875D-07
  0.39422392D-06  0.35631507D-06  0.60427429D-06  0.76118001D-06  0.75372357D-07
  0.23072871D-07 -0.98445227D-07  0.15262486D-06  0.25883224D-06 -0.21929332D-06
  0.13311421D-06  0.14410772D-08 -0.21420660D-07 -0.11302803D-06  0.51540955D-07
  0.88150569D-07 -0.28631461D-06 -0.55864187D-07 -0.23888590D-07 -0.31466618D-06
 -0.12547349D-06  0.74236814D-09 -0.96996613D-07 -0.45020638D-08  0.23272490D-06
  0.39423372D-06  0.38092252D-06 -0.23495201D-06 -0.10324388D-06  0.69764676D-06
 -0.13782038D-06 -0.25692853D-06 -0.43425448D-06 -0.65282673D-06 -0.80207307D-06
 -0.67747893D-06 -0.25552012D-06  0.12645834D-08  0.99626371D-07  0.18653200D-06
  0.31758669D-06  0.49125832D-06  0.64696993D-06  0.67224320D-06  0.42718037D-06
 -0.28628635D-06 -0.12366644D-06 -0.14719674D-05  0.12587732D-05  0.45276432D-07
  0.42449533D-07  0.30226597D-07 -0.37180920D-07 -0.34859476D-07 -0.24822024D-07
 -0.63198949D-07 -0.59253032D-07 -0.42191689D-07 -0.91528982D-06 -0.24211968D-06
 -0.41053242D-06  0.39290340D-05  0.88405223D-06  0.15001830D-05 -0.60273832D-07
  0.58056664D-08  0.98171226D-08 -0.15687572D-06  0.22582012D-06 -0.68944399D-07
 -0.40435454D-06 -0.68580190D-06 -0.53246163D-06  0.34247317D-06 -0.16856429D-06
 -0.17390888D-06  0.71095465D-06  0.12053918D-05 -0.10638454D-07 -0.22408657D-06
  0.12861258D-07  0.21122532D-06  0.20354521D-06  0.34507176D-06  0.35839753D-06
 -0.19734502D-07 -0.20042819D-07  0.12308983D-07  0.91980399D-07 -0.30599568D-07
 -0.52460320D-07 -0.32776894D-07  0.90728027D-07  0.15533371D-07 -0.22702047D-06
 -0.19219323D-06 -0.65482789D-07  0.24476743D-07 -0.23244110D-08 -0.63067155D-07
 -0.10683345D-06  0.57890409D-06  0.25951552D-06  0.33403222D-07  0.10514223D-05
 -0.40841031D-04 -0.76826954D-04 -0.13299125D-03 -0.21799810D-03 -0.34149824D-03
 -0.51330094D-03 -0.73363598D-03 -0.97392000D-03 -0.11342621D-02 -0.10418088D-02
 -0.60918657D-03 -0.15985360D-03 -0.87391341D-05  0.31279065D-06 -0.87415115D-07
  0.25956497D-07 -0.44251334D-08 -0.36103002D-09  0.82926253D-07  0.15236122D-06
  0.26346767D-06  0.43146513D-06  0.67932245D-06  0.10258435D-05  0.14974182D-05
  0.20620358D-05  0.26347297D-05  0.28721641D-05  0.23642333D-05  0.64825671D-06
 -0.13075758D-05 -0.12742898D-05 -0.27885050D-06 -0.93942166D-08 -0.31824604D-09
  0.80957687D-12 -0.10309137D-06 -0.20210038D-06 -0.35397380D-06 -0.57827800D-06
 -0.91208370D-06 -0.13762936D-05 -0.20179198D-05 -0.27860721D-05 -0.36121563D-05
 -0.40169304D-05 -0.34889514D-05 -0.10134780D-05  0.25549657D-05  0.37227650D-05
  0.64088731D-06 -0.15634906D-05 -0.74418211D-06  0.35938827D-08  0.45443038D-07
  0.98464091D-07  0.16761950D-06  0.27360016D-06  0.43130381D-06  0.65096202D-06
  0.95441641D-06  0.13194129D-05  0.17124656D-05  0.19131235D-05  0.16711567D-05
  0.49499825D-06 -0.12867111D-05 -0.19793966D-05 -0.34645485D-06  0.10928727D-05
  0.92768362D-06 -0.34611047D-06  0.21732531D-06  0.24050246D-05  0.64236893D-06
  0.45636398D-05  0.65480151D-05  0.86699201D-05  0.10011301D-04  0.92809368D-05
  0.60086477D-05  0.21208320D-05  0.24857979D-06  0.36138901D-08  0.52921398D-09
  0.54411416D-11 -0.17188154D-05 -0.24661957D-05 -0.32653742D-05 -0.37705821D-05
 -0.34955030D-05 -0.22630524D-05 -0.79877439D-06 -0.93623246D-07 -0.13611087D-08
 -0.19931922D-09 -0.20493111D-11 -0.29255771D-05 -0.41976852D-05 -0.55579583D-05
 -0.64178671D-05 -0.59496581D-05 -0.38519171D-05 -0.13595853D-05 -0.15935512D-06
 -0.23167285D-08 -0.33925910D-09 -0.34881104D-11 -0.19136179D-04 -0.27623294D-04
 -0.36904061D-04 -0.43843157D-04 -0.42487379D-04 -0.29534148D-04 -0.96101286D-05
  0.43253205D-05  0.46727892D-05  0.12029953D-05 -0.11734108D-08  0.72602348D-05
  0.10480232D-04  0.14001340D-04  0.16634021D-04  0.16119642D-04  0.11205207D-04
  0.36460670D-05 -0.16410195D-05 -0.17728485D-05 -0.45641443D-06  0.44519013D-09
  0.12356963D-04  0.17837419D-04  0.23830365D-04  0.28311205D-04  0.27435727D-04
  0.19071330D-04  0.62056279D-05 -0.27930250D-05 -0.30173989D-05 -0.77682010D-06
  0.75771628D-09  0.14414004D-04  0.20944187D-04  0.27845539D-04  0.33412719D-04
  0.32326954D-04  0.22948373D-04  0.71324120D-05 -0.40949810D-05 -0.47042242D-05
 -0.12492481D-05  0.45073260D-06 -0.55165974D-05 -0.80158607D-05 -0.10657180D-04
 -0.12787878D-04 -0.12372329D-04 -0.87829127D-05 -0.27297513D-05  0.15672510D-05
  0.18004235D-05  0.47811829D-06 -0.17250657D-06 -0.93888219D-05 -0.13642375D-04
 -0.18137695D-04 -0.21763979D-04 -0.21056746D-04 -0.14947838D-04 -0.46458256D-05
  0.26673400D-05  0.30641815D-05  0.81372033D-06 -0.29359283D-06 -0.38100460D-07
 -0.85070817D-08 -0.14213601D-07  0.41993655D-06 -0.24268196D-06 -0.41275521D-06
  0.19511566D-07 -0.12308595D-07 -0.20932251D-07  0.25824562D-07  0.27022622D-07
  0.23024720D-07  0.15163519D-07  0.69884144D-08  0.20926920D-08  0.35605380D-09
  0.18180562D-06  0.19023999D-06  0.16209465D-06  0.10675158D-06  0.49198626D-07
  0.14732608D-07  0.25066284D-08 -0.20763018D-06 -0.21726261D-06 -0.18511937D-06
 -0.12191510D-06 -0.56187041D-07 -0.16825300D-07 -0.28626822D-08  0.15886267D-05
  0.16623267D-05  0.14163913D-05  0.93280076D-06  0.42990010D-06  0.12873428D-06
  0.21903046D-07  0.26987849D-05  0.28239876D-05  0.24061886D-05  0.15846571D-05
  0.73032128D-06  0.21869589D-06  0.37209251D-07 -0.69894361D-06 -0.73136918D-06
 -0.62316568D-06 -0.41040171D-06 -0.18914193D-06 -0.56638857D-07 -0.96366214D-08
  0.12652306D-07 -0.32915980D-07  0.20263674D-07 -0.13605860D-06 -0.23107609D-06
  0.95693110D-07  0.73428855D-07 -0.24986493D-07 -0.48442363D-07 -0.54275678D-07
 -0.92641767D-07 -0.42695194D-07  0.71490253D-08 -0.10350953D-07  0.32019277D-08
 -0.22778865D-07 -0.38786155D-07  0.24275748D-07 -0.44369549D-07  0.18346320D-07
  0.26110243D-07  0.32277392D-07 -0.61266114D-07 -0.10407666D-06  0.10083126D-06
  0.62271529D-08  0.25745930D-07  0.12326187D-06  0.20329505D-07 -0.10545184D-07
  0.14985493D-08 -0.12131302D-07 -0.42343675D-08 -0.72437388D-08 -0.48857212D-07
  0.35869919D-07  0.27480909D-08 -0.66455709D-07  0.76785598D-07  0.14313168D-06
  0.24264339D-06  0.36743360D-06  0.45947701D-06  0.39556690D-06  0.15207036D-06
 -0.65894576D-09 -0.53567076D-07 -0.10058948D-06 -0.17128654D-06 -0.26831935D-06
 -0.35957950D-06 -0.38677623D-06 -0.23221994D-06  0.15271760D-06  0.41294092D-07
 -0.18136114D-06  0.22283497D-07  0.49951090D-06  0.48851075D-06  0.32277970D-06
  0.62182788D-07  0.60813409D-07  0.40181990D-07  0.10453311D-06  0.10223110D-06
  0.67548411D-07 -0.38440684D-06 -0.65033270D-07 -0.10962953D-06 -0.84103602D-06
  0.61799343D-09  0.18239430D-08 -0.39269258D-08 -0.17367923D-07 -0.29654099D-07
  0.41672398D-06 -0.22799217D-06 -0.18873181D-06  0.13709691D-06  0.22802248D-06
  0.70304146D-07 -0.20478247D-06  0.13651925D-06  0.68263220D-07 -0.15198392D-06
 -0.25572571D-06 -0.12372371D-06 -0.11339853D-06  0.50639828D-07  0.62758705D-07
 -0.19314073D-06 -0.32582525D-06  0.21657575D-07 -0.10995732D-06 -0.63219465D-07
 -0.53564929D-07  0.11769495D-06  0.12835597D-06  0.21167949D-06  0.21217700D-06
  0.61302422D-07 -0.50984699D-07  0.18022555D-06  0.38102319D-07  0.34160303D-07
  0.37349588D-07 -0.20578235D-07 -0.88791104D-07 -0.14837659D-06 -0.93728721D-07
 -0.13689805D-07  0.36327822D-07 -0.13575806D-06  0.78331753D+00  0.14735157D+01
  0.25507283D+01  0.41811317D+01  0.65498238D+01  0.98449430D+01  0.14070897D+02
  0.18679465D+02  0.21754774D+02  0.19981550D+02  0.11683998D+02  0.30659395D+01
  0.16761372D+00 -0.59992217D-02  0.16765931D-02 -0.49783708D-03  0.84872602D-04
  0.69244370D-05 -0.58292331D-06 -0.10710107D-05 -0.18520244D-05 -0.30329488D-05
 -0.47752416D-05 -0.72110827D-05 -0.10525979D-04 -0.14494912D-04 -0.18520617D-04
 -0.20189642D-04 -0.16619184D-04 -0.45568675D-05  0.91914973D-05  0.89575156D-05
  0.19601568D-05  0.66035877D-07  0.22370845D-08 -0.56908544D-11  0.63278799D-06
  0.12405179D-05  0.21727364D-05  0.35495443D-05  0.55984863D-05  0.84478659D-05
  0.12386250D-04  0.17101267D-04  0.22171877D-04  0.24656432D-04  0.21415629D-04
  0.62208573D-05 -0.15682706D-04 -0.22850807D-04 -0.39338482D-05  0.95969052D-05
  0.45678849D-05 -0.22059711D-07 -0.29589406D-06 -0.64113097D-06 -0.10914238D-05
 -0.17814976D-05 -0.28083561D-05 -0.42386205D-05 -0.62145084D-05 -0.85911167D-05
 -0.11150408D-04 -0.12456955D-04 -0.10881432D-04 -0.32230908D-05  0.83781847D-05
  0.12888480D-04  0.22558776D-05 -0.71160411D-05 -0.60404427D-05  0.22536352D-05
 -0.18856334D-04 -0.73219695D-05 -0.53796709D-06 -0.13766979D-03 -0.19753178D-03