 Molden2AIM, Version 4.0.0 (06/02/2016)           Time: Thu Jun 28 00:16:34 2018
GAUSSIAN             15 MOL ORBITALS    300 PRIMITIVES        4 NUCLEI
  C    1    (CENTRE  1)   0.00000000  0.00000000 -1.12839704  CHARGE =  6.0
  C    2    (CENTRE  2)   0.00000000  0.00000000  1.12839704  CHARGE =  6.0
  F    3    (CENTRE  3)   0.00000000  0.00000000 -3.55679905  CHARGE =  9.0
  F    4    (CENTRE  4)   0.00000000  0.00000000  3.55679905  CHARGE =  9.0
CENTRE ASSIGNMENTS    1  1  1  1  1  1  1  1  1  1  1  1  1  1  1  1  1  1  1  1
CENTRE ASSIGNMENTS    1  1  1  1  1  1  1  1  1  1  1  1  1  1  1  1  1  1  1  1
CENTRE ASSIGNMENTS    1  1  1  1  1  1  1  1  1  1  1  1  1  1  1  1  1  1  1  1
CENTRE ASSIGNMENTS    1  1  1  1  1  1  1  1  1  1  1  1  1  1  1  2  2  2  2  2
CENTRE ASSIGNMENTS    2  2  2  2  2  2  2  2  2  2  2  2  2  2  2  2  2  2  2  2
CENTRE ASSIGNMENTS    2  2  2  2  2  2  2  2  2  2  2  2  2  2  2  2  2  2  2  2
CENTRE ASSIGNMENTS    2  2  2  2  2  2  2  2  2  2  2  2  2  2  2  2  2  2  2  2
CENTRE ASSIGNMENTS    2  2  2  2  2  2  2  2  2  2  3  3  3  3  3  3  3  3  3  3
CENTRE ASSIGNMENTS    3  3  3  3  3  3  3  3  3  3  3  3  3  3  3  3  3  3  3  3
CENTRE ASSIGNMENTS    3  3  3  3  3  3  3  3  3  3  3  3  3  3  3  3  3  3  3  3
CENTRE ASSIGNMENTS    3  3  3  3  3  3  3  3  3  3  3  3  3  3  3  3  3  3  3  3
CENTRE ASSIGNMENTS    3  3  3  3  3  4  4  4  4  4  4  4  4  4  4  4  4  4  4  4
CENTRE ASSIGNMENTS    4  4  4  4  4  4  4  4  4  4  4  4  4  4  4  4  4  4  4  4
CENTRE ASSIGNMENTS    4  4  4  4  4  4  4  4  4  4  4  4  4  4  4  4  4  4  4  4
CENTRE ASSIGNMENTS    4  4  4  4  4  4  4  4  4  4  4  4  4  4  4  4  4  4  4  4
TYPE ASSIGNMENTS      1  1  1  1  1  1  1  1  1  1  1  1  1  1  1  1  1  1  1  2
TYPE ASSIGNMENTS      2  2  3  3  3  4  4  4  2  3  4  2  3  4  2  3  4  5  6  7
TYPE ASSIGNMENTS      8  9 10  5  6  7  8  9 10  5  6  7  8  9 10 11 12 13 17 14
TYPE ASSIGNMENTS     15 18 19 16 20 11 12 13 17 14 15 18 19 16 20  1  1  1  1  1
TYPE ASSIGNMENTS      1  1  1  1  1  1  1  1  1  1  1  1  1  1  2  2  2  3  3  3
TYPE ASSIGNMENTS      4  4  4  2  3  4  2  3  4  2  3  4  5  6  7  8  9 10  5  6
TYPE ASSIGNMENTS      7  8  9 10  5  6  7  8  9 10 11 12 13 17 14 15 18 19 16 20
TYPE ASSIGNMENTS     11 12 13 17 14 15 18 19 16 20  1  1  1  1  1  1  1  1  1  1
TYPE ASSIGNMENTS      1  1  1  1  1  1  1  1  1  2  2  2  3  3  3  4  4  4  2  3
TYPE ASSIGNMENTS      4  2  3  4  2  3  4  5  6  7  8  9 10  5  6  7  8  9 10  5
TYPE ASSIGNMENTS      6  7  8  9 10 11 12 13 17 14 15 18 19 16 20 11 12 13 17 14
TYPE ASSIGNMENTS     15 18 19 16 20  1  1  1  1  1  1  1  1  1  1  1  1  1  1  1
TYPE ASSIGNMENTS      1  1  1  1  2  2  2  3  3  3  4  4  4  2  3  4  2  3  4  2
TYPE ASSIGNMENTS      3  4  5  6  7  8  9 10  5  6  7  8  9 10  5  6  7  8  9 10
TYPE ASSIGNMENTS     11 12 13 17 14 15 18 19 16 20 11 12 13 17 14 15 18 19 16 20
EXPONENTS  0.8236000D+04 0.1235000D+04 0.2808000D+03 0.7927000D+02 0.2559000D+02
EXPONENTS  0.8997000D+01 0.3319000D+01 0.3643000D+00 0.8236000D+04 0.1235000D+04
EXPONENTS  0.2808000D+03 0.7927000D+02 0.2559000D+02 0.8997000D+01 0.3319000D+01
EXPONENTS  0.3643000D+00 0.9059000D+00 0.1285000D+00 0.4402000D-01 0.1871000D+02
EXPONENTS  0.4133000D+01 0.1200000D+01 0.1871000D+02 0.4133000D+01 0.1200000D+01
EXPONENTS  0.1871000D+02 0.4133000D+01 0.1200000D+01 0.3827000D+00 0.3827000D+00
EXPONENTS  0.3827000D+00 0.1209000D+00 0.1209000D+00 0.1209000D+00 0.3569000D-01
EXPONENTS  0.3569000D-01 0.3569000D-01 0.1097000D+01 0.1097000D+01 0.1097000D+01
EXPONENTS  0.1097000D+01 0.1097000D+01 0.1097000D+01 0.3180000D+00 0.3180000D+00
EXPONENTS  0.3180000D+00 0.3180000D+00 0.3180000D+00 0.3180000D+00 0.1000000D+00
EXPONENTS  0.1000000D+00 0.1000000D+00 0.1000000D+00 0.1000000D+00 0.1000000D+00
EXPONENTS  0.7610000D+00 0.7610000D+00 0.7610000D+00 0.7610000D+00 0.7610000D+00
EXPONENTS  0.7610000D+00 0.7610000D+00 0.7610000D+00 0.7610000D+00 0.7610000D+00
EXPONENTS  0.2680000D+00 0.2680000D+00 0.2680000D+00 0.2680000D+00 0.2680000D+00
EXPONENTS  0.2680000D+00 0.2680000D+00 0.2680000D+00 0.2680000D+00 0.2680000D+00
EXPONENTS  0.8236000D+04 0.1235000D+04 0.2808000D+03 0.7927000D+02 0.2559000D+02
EXPONENTS  0.8997000D+01 0.3319000D+01 0.3643000D+00 0.8236000D+04 0.1235000D+04
EXPONENTS  0.2808000D+03 0.7927000D+02 0.2559000D+02 0.8997000D+01 0.3319000D+01
EXPONENTS  0.3643000D+00 0.9059000D+00 0.1285000D+00 0.4402000D-01 0.1871000D+02
EXPONENTS  0.4133000D+01 0.1200000D+01 0.1871000D+02 0.4133000D+01 0.1200000D+01
EXPONENTS  0.1871000D+02 0.4133000D+01 0.1200000D+01 0.3827000D+00 0.3827000D+00
EXPONENTS  0.3827000D+00 0.1209000D+00 0.1209000D+00 0.1209000D+00 0.3569000D-01
EXPONENTS  0.3569000D-01 0.3569000D-01 0.1097000D+01 0.1097000D+01 0.1097000D+01
EXPONENTS  0.1097000D+01 0.1097000D+01 0.1097000D+01 0.3180000D+00 0.3180000D+00
EXPONENTS  0.3180000D+00 0.3180000D+00 0.3180000D+00 0.3180000D+00 0.1000000D+00
EXPONENTS  0.1000000D+00 0.1000000D+00 0.1000000D+00 0.1000000D+00 0.1000000D+00
EXPONENTS  0.7610000D+00 0.7610000D+00 0.7610000D+00 0.7610000D+00 0.7610000D+00
EXPONENTS  0.7610000D+00 0.7610000D+00 0.7610000D+00 0.7610000D+00 0.7610000D+00
EXPONENTS  0.2680000D+00 0.2680000D+00 0.2680000D+00 0.2680000D+00 0.2680000D+00
EXPONENTS  0.2680000D+00 0.2680000D+00 0.2680000D+00 0.2680000D+00 0.2680000D+00
EXPONENTS  0.1950000D+05 0.2923000D+04 0.6645000D+03 0.1875000D+03 0.6062000D+02
EXPONENTS  0.2142000D+02 0.7950000D+01 0.8815000D+00 0.1950000D+05 0.2923000D+04
EXPONENTS  0.6645000D+03 0.1875000D+03 0.6062000D+02 0.2142000D+02 0.7950000D+01
EXPONENTS  0.8815000D+00 0.2257000D+01 0.3041000D+00 0.9158000D-01 0.4388000D+02
EXPONENTS  0.9926000D+01 0.2930000D+01 0.4388000D+02 0.9926000D+01 0.2930000D+01
EXPONENTS  0.4388000D+02 0.9926000D+01 0.2930000D+01 0.9132000D+00 0.9132000D+00
EXPONENTS  0.9132000D+00 0.2672000D+00 0.2672000D+00 0.2672000D+00 0.7361000D-01
EXPONENTS  0.7361000D-01 0.7361000D-01 0.3107000D+01 0.3107000D+01 0.3107000D+01
EXPONENTS  0.3107000D+01 0.3107000D+01 0.3107000D+01 0.8550000D+00 0.8550000D+00
EXPONENTS  0.8550000D+00 0.8550000D+00 0.8550000D+00 0.8550000D+00 0.2920000D+00
EXPONENTS  0.2920000D+00 0.2920000D+00 0.2920000D+00 0.2920000D+00 0.2920000D+00
EXPONENTS  0.1917000D+01 0.1917000D+01 0.1917000D+01 0.1917000D+01 0.1917000D+01
EXPONENTS  0.1917000D+01 0.1917000D+01 0.1917000D+01 0.1917000D+01 0.1917000D+01
EXPONENTS  0.7240000D+00 0.7240000D+00 0.7240000D+00 0.7240000D+00 0.7240000D+00
EXPONENTS  0.7240000D+00 0.7240000D+00 0.7240000D+00 0.7240000D+00 0.7240000D+00
EXPONENTS  0.1950000D+05 0.2923000D+04 0.6645000D+03 0.1875000D+03 0.6062000D+02
EXPONENTS  0.2142000D+02 0.7950000D+01 0.8815000D+00 0.1950000D+05 0.2923000D+04
EXPONENTS  0.6645000D+03 0.1875000D+03 0.6062000D+02 0.2142000D+02 0.7950000D+01
EXPONENTS  0.8815000D+00 0.2257000D+01 0.3041000D+00 0.9158000D-01 0.4388000D+02
EXPONENTS  0.9926000D+01 0.2930000D+01 0.4388000D+02 0.9926000D+01 0.2930000D+01
EXPONENTS  0.4388000D+02 0.9926000D+01 0.2930000D+01 0.9132000D+00 0.9132000D+00
EXPONENTS  0.9132000D+00 0.2672000D+00 0.2672000D+00 0.2672000D+00 0.7361000D-01
EXPONENTS  0.7361000D-01 0.7361000D-01 0.3107000D+01 0.3107000D+01 0.3107000D+01
EXPONENTS  0.3107000D+01 0.3107000D+01 0.3107000D+01 0.8550000D+00 0.8550000D+00
EXPONENTS  0.8550000D+00 0.8550000D+00 0.8550000D+00 0.8550000D+00 0.2920000D+00
EXPONENTS  0.2920000D+00 0.2920000D+00 0.2920000D+00 0.2920000D+00 0.2920000D+00
EXPONENTS  0.1917000D+01 0.1917000D+01 0.1917000D+01 0.1917000D+01 0.1917000D+01
EXPONENTS  0.1917000D+01 0.1917000D+01 0.1917000D+01 0.1917000D+01 0.1917000D+01
EXPONENTS  0.7240000D+00 0.7240000D+00 0.7240000D+00 0.7240000D+00 0.7240000D+00
EXPONENTS  0.7240000D+00 0.7240000D+00 0.7240000D+00 0.7240000D+00 0.7240000D+00
MO    1     MO 0.0        OCC NO =    2.0000000  ORB. ENERGY =  -26.388043
  0.14008958D-03  0.26115884D-03  0.44140444D-03  0.66357546D-03  0.81527912D-03
  0.68863355D-03  0.25972724D-03 -0.12854046D-05 -0.11293274D-03 -0.21144571D-03
 -0.36000442D-03 -0.55687210D-03 -0.73338096D-03 -0.76202979D-03 -0.48423573D-03
  0.32452352D-03  0.10563682D-03 -0.84382892D-04 -0.99519322D-05 -0.40805928D-17
 -0.38258152D-17 -0.27242083D-17  0.11014629D-16  0.10326915D-16  0.73533786D-17
  0.64192185D-03  0.60184253D-03  0.42854774D-03  0.72655096D-17  0.56078430D-17
 -0.48337198D-03 -0.82061682D-17  0.42290794D-18 -0.44160997D-04  0.18140327D-17
 -0.53973534D-19 -0.92522394D-05 -0.37518602D-03 -0.37518602D-03  0.75037204D-03
 -0.50905104D-19  0.17004781D-17  0.43066058D-18 -0.30878750D-04 -0.30878750D-04
  0.61757500D-04 -0.93551201D-20 -0.13387972D-17 -0.77253820D-17  0.59389724D-05
  0.59389724D-05 -0.11877945D-04 -0.28275805D-20 -0.36368571D-18 -0.22819012D-18
  0.12438709D-17  0.59611476D-18 -0.40853626D-03  0.12586202D-17  0.64307190D-18
  0.61280440D-03 -0.49902329D-17 -0.24314162D-17  0.61280440D-03 -0.36274869D-19
  0.67727326D-19 -0.46146052D-18 -0.34689910D-04  0.57830900D-19 -0.45448754D-18
  0.52034865D-04 -0.26101288D-18  0.18388691D-17  0.52034865D-04 -0.11462969D-19
  0.14008959D-03  0.26115884D-03  0.44140445D-03  0.66357548D-03  0.81527914D-03
  0.68863357D-03  0.25972725D-03 -0.12854046D-05 -0.11293274D-03 -0.21144572D-03
 -0.36000443D-03 -0.55687211D-03 -0.73338098D-03 -0.76202981D-03 -0.48423574D-03
  0.32452353D-03  0.10563683D-03 -0.84382931D-04 -0.99519365D-05 -0.62122190D-18
 -0.58243501D-18 -0.41472843D-18 -0.17651677D-17 -0.16549569D-17 -0.11784279D-17
 -0.64192184D-03 -0.60184253D-03 -0.42854774D-03  0.23060740D-17  0.20198895D-17
  0.48337195D-03  0.10407233D-17  0.90382400D-18  0.44161004D-04 -0.31794438D-19
  0.90460865D-20  0.92522396D-05 -0.37518601D-03 -0.37518601D-03  0.75037203D-03
 -0.15906230D-19 -0.16988796D-17  0.34611784D-17 -0.30878748D-04 -0.30878748D-04
  0.61757495D-04  0.75203466D-20 -0.19626525D-17 -0.33332667D-17  0.59389725D-05
  0.59389725D-05 -0.11877945D-04  0.32473214D-20 -0.10292928D-18 -0.62540881D-19
 -0.48110371D-18 -0.95436908D-18  0.40853625D-03 -0.50421164D-18 -0.98925582D-18
 -0.61280438D-03  0.19475228D-17  0.38523631D-17 -0.61280438D-03 -0.22399199D-21
 -0.70892909D-19 -0.28289175D-18  0.34689908D-04 -0.62628509D-19 -0.28813288D-18
 -0.52034862D-04  0.27530724D-18  0.11368081D-17 -0.52034862D-04 -0.79311782D-20
  0.42111189D+00  0.78497081D+00  0.13307185D+01  0.20151000D+01  0.25198896D+01
  0.21693902D+01  0.83399281D+00 -0.36138274D-02  0.30463970D-03  0.57205941D-03
  0.97411852D-03  0.15259509D-02  0.20449537D-02  0.21996234D-02  0.13206510D-02
 -0.86851568D-03  0.40759894D-01  0.55780246D-03  0.37727109D-04 -0.22770452D-16
 -0.22269005D-16 -0.14714073D-16  0.55940478D-17  0.54708565D-17  0.36148262D-17
  0.78054767D-02  0.76335857D-02  0.50438328D-02  0.19917466D-17 -0.72580448D-18
 -0.17113233D-02 -0.12362711D-19 -0.62373729D-17  0.15688004D-03 -0.32995194D-18
 -0.11747385D-18  0.12233131D-04 -0.85705218D-04 -0.85705218D-04  0.17141044D-03
 -0.58220244D-17 -0.90884217D-17  0.96308307D-18  0.32863854D-03  0.32863854D-03
 -0.65727708D-03  0.31559789D-18  0.37192575D-17  0.10087027D-17 -0.32869067D-04
 -0.32869067D-04  0.65738134D-04 -0.40966709D-20 -0.78004244D-19 -0.45882330D-17
  0.26574088D-17 -0.20133851D-17 -0.32629184D-03  0.16672012D-18 -0.15247178D-17
  0.48943776D-03 -0.81389466D-17  0.75648730D-17  0.48943776D-03  0.18411795D-17
 -0.89116131D-18  0.73012098D-18 -0.31745713D-04 -0.89264360D-18  0.81884829D-18
  0.47618570D-04  0.35661275D-17 -0.30092112D-17  0.47618570D-04  0.19041726D-18
  0.42111188D+00  0.78497079D+00  0.13307185D+01  0.20151000D+01  0.25198896D+01
  0.21693902D+01  0.83399279D+00 -0.36138273D-02  0.30463970D-03  0.57205940D-03
  0.97411850D-03  0.15259509D-02  0.20449537D-02  0.21996234D-02  0.13206510D-02
 -0.86851566D-03  0.40759893D-01  0.55780246D-03  0.37727111D-04 -0.31824488D-17
 -0.31123654D-17 -0.20564714D-17  0.11887507D-16  0.11625722D-16  0.76816063D-17
 -0.78054765D-02 -0.76335855D-02 -0.50438327D-02  0.41972445D-18 -0.36980657D-17
  0.17113232D-02  0.70275026D-19 -0.52235613D-18 -0.15688005D-03  0.11606523D-19
 -0.65296050D-20 -0.12233131D-04 -0.85705218D-04 -0.85705218D-04  0.17141044D-03
  0.28139860D-17  0.34389143D-17 -0.23219414D-17  0.32863853D-03  0.32863853D-03
 -0.65727707D-03  0.80564659D-18  0.15095165D-18  0.27395945D-17 -0.32869067D-04
 -0.32869067D-04  0.65738134D-04 -0.23764384D-19  0.22498837D-20  0.13155046D-18
  0.31937077D-18 -0.18444140D-17  0.32629184D-03 -0.85680074D-18 -0.45097323D-17
 -0.48943776D-03 -0.10131156D-18  0.10042974D-16 -0.48943776D-03 -0.71492572D-18
 -0.27335001D-19  0.76518818D-18  0.31745712D-04  0.12758039D-20  0.81512048D-18
 -0.47618568D-04  0.80729200D-19 -0.31106850D-17 -0.47618568D-04 -0.58118238D-19
MO    2     MO 0.0        OCC NO =    2.0000000  ORB. ENERGY =  -26.388042
  0.13857716D-03  0.25833934D-03  0.43663899D-03  0.65641143D-03  0.80647728D-03
  0.68119899D-03  0.25692320D-03 -0.12715272D-05 -0.97300510D-04 -0.18217726D-03
 -0.31017237D-03 -0.47978949D-03 -0.63186587D-03 -0.65654912D-03 -0.41720749D-03
  0.27960276D-03  0.54740598D-03 -0.15730430D-02 -0.16760579D-03 -0.10065121D-16
 -0.94366906D-17 -0.67194859D-17  0.97536942D-16  0.91447083D-16  0.65115771D-16
 -0.74226280D-04 -0.69591855D-04 -0.49553547D-04  0.10891956D-16 -0.30918583D-16
  0.11447825D-02 -0.97465326D-17  0.15566068D-16 -0.31109535D-03  0.17754338D-17
 -0.35418093D-17 -0.70167254D-05  0.16899674D-03  0.16899674D-03 -0.33799348D-03
 -0.26783966D-17 -0.12387314D-17  0.12627220D-18  0.10014759D-03  0.10014759D-03
 -0.20029518D-03 -0.45956367D-19  0.11121400D-17 -0.75555955D-17  0.18003020D-05
  0.18003020D-05 -0.36006040D-05 -0.11712703D-20 -0.20931647D-18 -0.33195189D-18
 -0.73268718D-18  0.81874605D-18  0.43573230D-03 -0.73581281D-18  0.78332865D-18
 -0.65359845D-03  0.29338744D-17 -0.32395668D-17 -0.65359845D-03  0.97324670D-19
  0.38032627D-18 -0.32457194D-18  0.92497643D-04  0.38732266D-18 -0.33031046D-18
 -0.13874646D-03 -0.15283015D-17  0.13040263D-17 -0.13874646D-03 -0.10179517D-19
 -0.13857716D-03 -0.25833933D-03 -0.43663898D-03 -0.65641141D-03 -0.80647726D-03
 -0.68119897D-03 -0.25692319D-03  0.12715272D-05  0.97300508D-04  0.18217725D-03
  0.31017236D-03  0.47978947D-03  0.63186586D-03  0.65654910D-03  0.41720748D-03
 -0.27960275D-03 -0.54740597D-03  0.15730430D-02  0.16760579D-03 -0.17405672D-18
 -0.16318924D-18 -0.11620046D-18 -0.18524470D-17 -0.17367868D-17 -0.12366957D-17
 -0.74226295D-04 -0.69591870D-04 -0.49553557D-04  0.14263259D-17  0.28113678D-17
  0.11447825D-02  0.11403605D-17  0.12690426D-17 -0.31109535D-03 -0.85430653D-21
  0.25718139D-19 -0.70167252D-05 -0.16899675D-03 -0.16899675D-03  0.33799350D-03
 -0.34710034D-19  0.29670293D-17  0.31786782D-17 -0.10014759D-03 -0.10014759D-03
  0.20029518D-03  0.12504122D-19 -0.13208598D-17 -0.39866921D-17 -0.18003019D-05
 -0.18003019D-05  0.36006037D-05  0.22659130D-20 -0.17586212D-18 -0.11361514D-18
  0.24509082D-18 -0.10272047D-17  0.43573231D-03  0.23056659D-18 -0.10572119D-17
 -0.65359846D-03 -0.96583906D-18  0.41388260D-17 -0.65359846D-03  0.43992246D-19
  0.67900120D-19 -0.23803030D-18  0.92497644D-04  0.64608314D-19 -0.23547116D-18
 -0.13874647D-03 -0.26830868D-18  0.94956205D-18 -0.13874647D-03 -0.11392210D-19
 -0.42109849D+00 -0.78494582D+00 -0.13306761D+01 -0.20150359D+01 -0.25198094D+01
 -0.21693212D+01 -0.83396626D+00  0.36137123D-02 -0.31334445D-03 -0.58840538D-03
 -0.10019529D-02 -0.15695533D-02 -0.21033860D-02 -0.22624753D-02 -0.13583872D-02
  0.89333256D-03 -0.40785254D-01  0.24468527D-04  0.10301452D-03  0.17878619D-16
  0.17484899D-16  0.11553012D-16 -0.77818857D-17 -0.76105143D-17 -0.50285886D-17
 -0.79309182D-02 -0.77562648D-02 -0.51248921D-02 -0.20471350D-17  0.35327106D-17
  0.19238024D-02  0.34641261D-17 -0.54382080D-17  0.17424959D-03 -0.38667550D-19
 -0.11784399D-18  0.10214201D-04  0.10102425D-04  0.10102425D-04 -0.20204849D-04
  0.59716838D-17  0.18100179D-16 -0.32159104D-17 -0.32422977D-03 -0.32422977D-03
  0.64845954D-03 -0.35481076D-18 -0.55209997D-17  0.16154821D-17 -0.46237630D-05
 -0.46237630D-05  0.92475260D-05  0.89435422D-20  0.24300471D-17 -0.39064111D-17
 -0.13381283D-17 -0.16293479D-17  0.22926585D-03  0.11508726D-17 -0.20984456D-17
 -0.34389878D-03  0.28635123D-17  0.69864895D-17 -0.34389878D-03 -0.21753264D-17
  0.22098988D-19  0.65577634D-18  0.41111886D-04  0.24419178D-19  0.56250819D-18
 -0.61667829D-04 -0.90716142D-19 -0.25298372D-17 -0.61667829D-04 -0.15030760D-18
  0.42109850D+00  0.78494584D+00  0.13306762D+01  0.20150359D+01  0.25198095D+01
  0.21693212D+01  0.83396628D+00 -0.36137124D-02  0.31334446D-03  0.58840540D-03
  0.10019529D-02  0.15695533D-02  0.21033861D-02  0.22624753D-02  0.13583872D-02
 -0.89333259D-03  0.40785255D-01 -0.24468513D-04 -0.10301452D-03 -0.33279921D-17
 -0.32547036D-17 -0.21505203D-17  0.11855864D-16  0.11594776D-16  0.76611588D-17
 -0.79309184D-02 -0.77562650D-02 -0.51248922D-02  0.77937768D-18 -0.37106059D-17
  0.19238024D-02  0.70074201D-18 -0.23768901D-18  0.17424959D-03  0.25663034D-19
 -0.30027369D-20  0.10214201D-04 -0.10102427D-04 -0.10102427D-04  0.20204853D-04
  0.28395856D-17  0.19611432D-17 -0.14879161D-17  0.32422978D-03  0.32422978D-03
 -0.64845956D-03  0.79397726D-18  0.14378118D-18  0.25350209D-17  0.46237622D-05
  0.46237622D-05 -0.92475244D-05 -0.19769055D-19 -0.46174462D-18 -0.39874907D-19
 -0.44340568D-19 -0.17156589D-17  0.22926586D-03 -0.12715298D-17 -0.43417609D-17
 -0.34389879D-03  0.14045515D-17  0.94887375D-17 -0.34389879D-03 -0.71823495D-18
  0.80714940D-19  0.74768559D-18  0.41111887D-04  0.12243057D-18  0.78818613D-18
 -0.61667830D-04 -0.36457539D-18 -0.30312429D-17 -0.61667830D-04 -0.53870481D-19
MO    3     MO 0.0        OCC NO =    2.0000000  ORB. ENERGY =  -11.351855
  0.23113332D+00  0.43088505D+00  0.72827165D+00  0.10948308D+01  0.13451262D+01
  0.11361741D+01  0.42852307D+00 -0.21207846D-02 -0.15735539D-03 -0.29461893D-03
 -0.50161394D-03 -0.77592049D-03 -0.10218600D-02 -0.10617780D-02 -0.67471224D-03
  0.45217646D-03  0.20266726D-01 -0.52558194D-03 -0.62661271D-04  0.14365029D-15
  0.13468127D-15  0.95901091D-16  0.40272458D-15  0.37757989D-15  0.26885938D-15
 -0.42774302D-02 -0.40103627D-02 -0.28556172D-02 -0.13203291D-16 -0.86704480D-17
  0.18861069D-02  0.32912872D-17  0.30951850D-17 -0.28182665D-04  0.15724068D-18
  0.73348348D-19  0.62661580D-05 -0.80762222D-03 -0.80762222D-03  0.16152444D-02
  0.20504614D-19 -0.23495840D-17 -0.20176544D-17  0.44840726D-03  0.44840726D-03
 -0.89681452D-03 -0.23891337D-18  0.13039578D-16  0.11056406D-17  0.17478500D-04
  0.17478500D-04 -0.34957001D-04  0.46884000D-20  0.40399506D-18  0.23993830D-18
 -0.39571831D-17 -0.44850412D-18  0.44882238D-03 -0.45815859D-17 -0.36829388D-18
 -0.67323358D-03  0.16453135D-16  0.17138062D-17 -0.67323358D-03 -0.34673564D-18
 -0.43153676D-18 -0.76162396D-18 -0.97101540D-05 -0.47961248D-18 -0.74511603D-18
  0.14565231D-04  0.17742228D-17  0.30299879D-17  0.14565231D-04 -0.66624817D-19
  0.23113332D+00  0.43088505D+00  0.72827165D+00  0.10948308D+01  0.13451262D+01
  0.11361741D+01  0.42852307D+00 -0.21207846D-02 -0.15735539D-03 -0.29461893D-03
 -0.50161394D-03 -0.77592049D-03 -0.10218600D-02 -0.10617780D-02 -0.67471224D-03
  0.45217645D-03  0.20266726D-01 -0.52558195D-03 -0.62661270D-04  0.12941242D-16
  0.12133237D-16  0.86395876D-17  0.31820269D-17  0.29833524D-17  0.21243247D-17
  0.42774302D-02  0.40103627D-02  0.28556172D-02 -0.12348161D-16 -0.26968865D-17
 -0.18861069D-02 -0.28014551D-17 -0.13518457D-17  0.28182668D-04 -0.10646123D-18
 -0.77717518D-19 -0.62661581D-05 -0.80762222D-03 -0.80762222D-03  0.16152444D-02
  0.44939253D-18  0.37405550D-17 -0.39886554D-17  0.44840726D-03  0.44840726D-03
 -0.89681452D-03  0.12798820D-18  0.16176988D-16  0.67433862D-17  0.17478500D-04
  0.17478500D-04 -0.34957001D-04  0.28013518D-20  0.80384724D-18  0.49246862D-18
  0.13319738D-17 -0.97168512D-18 -0.44882238D-03  0.56470718D-18 -0.67284296D-18
  0.67323357D-03 -0.45606287D-17  0.35878983D-17  0.67323357D-03 -0.45403971D-18
  0.37036944D-18 -0.23484178D-18  0.97101540D-05  0.38093080D-18 -0.23195692D-18
 -0.14565231D-04 -0.14920391D-17  0.93648225D-18 -0.14565231D-04 -0.41390045D-19
  0.66297484D-04  0.12358138D-03  0.20950082D-03  0.31724599D-03  0.39671723D-03
  0.34153658D-03  0.13129913D-03 -0.56894062D-06 -0.10774050D-03 -0.20231758D-03
 -0.34451194D-03 -0.53967592D-03 -0.72322922D-03 -0.77793054D-03 -0.46706848D-03
  0.30716388D-03 -0.92998944D-06  0.16572014D-02  0.27101393D-03 -0.84904804D-17
 -0.83035043D-17 -0.54864764D-17  0.16086975D-17  0.15732710D-17  0.10395267D-17
  0.61063323D-03  0.59718597D-03  0.39458602D-03 -0.59466234D-17  0.15094610D-18
  0.16479877D-02 -0.24073868D-18 -0.51828501D-17  0.72243628D-03  0.18181805D-18
 -0.10060008D-18 -0.47887012D-05 -0.51363691D-03 -0.51363691D-03  0.10272738D-02
  0.33507759D-18  0.37100052D-17  0.29546512D-18 -0.71783061D-04 -0.71783061D-04
  0.14356612D-03  0.14706383D-18 -0.66513066D-17  0.15062591D-17 -0.10928420D-04
 -0.10928420D-04  0.21856839D-04 -0.37106706D-19  0.12844381D-17 -0.32336113D-17
 -0.61422304D-17 -0.15241688D-17  0.82434425D-03 -0.65359406D-17 -0.11999894D-17
 -0.12365164D-02  0.24962632D-16  0.57724959D-17 -0.12365164D-02  0.56309106D-18
  0.21513781D-17  0.24330032D-18 -0.39447522D-03  0.22461831D-17  0.10423394D-18
  0.59171283D-03 -0.87003174D-17 -0.83413489D-18  0.59171283D-03 -0.80685510D-19
  0.66297484D-04  0.12358138D-03  0.20950082D-03  0.31724599D-03  0.39671723D-03
  0.34153658D-03  0.13129913D-03 -0.56894062D-06 -0.10774050D-03 -0.20231758D-03
 -0.34451194D-03 -0.53967592D-03 -0.72322922D-03 -0.77793054D-03 -0.46706848D-03
  0.30716388D-03 -0.92998945D-06  0.16572014D-02  0.27101393D-03 -0.63507034D-17
 -0.62108492D-17 -0.41037707D-17  0.24205152D-17  0.23672110D-17  0.15641164D-17
 -0.61063323D-03 -0.59718597D-03 -0.39458602D-03 -0.50286842D-18  0.62872605D-18
 -0.16479877D-02 -0.40790468D-17 -0.41944476D-17 -0.72243628D-03 -0.58067839D-19
 -0.95806093D-19  0.47887014D-05 -0.51363691D-03 -0.51363691D-03  0.10272738D-02
  0.21223002D-18  0.31822043D-18 -0.76773237D-17 -0.71783061D-04 -0.71783061D-04
  0.14356612D-03  0.16124467D-19  0.42436293D-18  0.26372938D-17 -0.10928420D-04
 -0.10928420D-04  0.21856839D-04  0.50889651D-20  0.32291236D-17  0.26432447D-17
 -0.29886748D-17 -0.13527041D-17 -0.82434425D-03 -0.30051191D-17 -0.10960065D-17
  0.12365164D-02  0.11971144D-16  0.51541189D-17  0.12365164D-02 -0.13571058D-18
  0.11241935D-17  0.76507070D-18  0.39447522D-03  0.11629688D-17  0.72027571D-18
 -0.59171283D-03 -0.45355493D-17 -0.30154878D-17 -0.59171283D-03 -0.54385309D-19
MO    4     MO 0.0        OCC NO =    2.0000000  ORB. ENERGY =  -11.347994
 -0.23180194D+00 -0.43213151D+00 -0.73037838D+00 -0.10979980D+01 -0.13490174D+01
 -0.11394608D+01 -0.42976269D+00  0.21269196D-02  0.47446632D-03  0.88835066D-03
  0.15124930D-02  0.23395967D-02  0.30811666D-02  0.32015294D-02  0.20344282D-02
 -0.13634265D-02 -0.20431260D-01 -0.22858936D-02  0.11074889D-02  0.14875734D-15
  0.13946946D-15  0.99310567D-16  0.21377268D-15  0.20042548D-15  0.14271488D-15
  0.42650419D-02  0.39987478D-02  0.28473467D-02 -0.19318456D-16 -0.30316232D-18
 -0.23219952D-02  0.37282733D-18  0.68142841D-17 -0.22176240D-02  0.17422566D-18
  0.54646191D-19  0.51402545D-04  0.11616475D-02  0.11616475D-02 -0.23232949D-02
 -0.10540495D-18 -0.20248418D-17  0.18252959D-17 -0.11889049D-03 -0.11889049D-03
  0.23778097D-03  0.12963801D-18  0.11442291D-16  0.31391461D-17 -0.18490524D-04
 -0.18490524D-04  0.36981048D-04 -0.12648382D-20 -0.34855459D-20  0.76374994D-18
 -0.35801484D-17 -0.16617243D-17 -0.16620145D-03 -0.32348622D-17 -0.18240089D-17
  0.24930218D-03  0.13975307D-16  0.68091817D-17  0.24930218D-03  0.12706830D-18
 -0.74594864D-19 -0.12624753D-17 -0.27379284D-03 -0.64120823D-19 -0.12669945D-17
  0.41068925D-03  0.28790541D-18  0.50544205D-17  0.41068925D-03  0.27470945D-19
  0.23180194D+00  0.43213151D+00  0.73037838D+00  0.10979980D+01  0.13490174D+01
  0.11394608D+01  0.42976269D+00 -0.21269196D-02 -0.47446632D-03 -0.88835066D-03
 -0.15124930D-02 -0.23395967D-02 -0.30811666D-02 -0.32015294D-02 -0.20344282D-02
  0.13634265D-02  0.20431260D-01  0.22858936D-02 -0.11074889D-02  0.11675272D-16
  0.10946309D-16  0.77944244D-17  0.61478816D-17  0.57640298D-17  0.41043326D-17
  0.42650419D-02  0.39987478D-02  0.28473467D-02 -0.79712954D-17 -0.87333033D-17
 -0.23219952D-02 -0.45151796D-18 -0.43285027D-17 -0.22176240D-02 -0.12592773D-18
 -0.55777344D-19  0.51402545D-04 -0.11616475D-02 -0.11616475D-02  0.23232949D-02
  0.55616943D-18  0.20358273D-17 -0.20590383D-17  0.11889049D-03  0.11889049D-03
 -0.23778097D-03 -0.44675757D-20  0.12379193D-16  0.12039353D-16  0.18490524D-04
  0.18490524D-04 -0.36981048D-04 -0.62023115D-21  0.27105736D-18  0.11421797D-17
  0.91993332D-18 -0.29318117D-18 -0.16620145D-03  0.42251620D-18 -0.10232955D-18
  0.24930218D-03 -0.31823162D-17  0.98187305D-18  0.24930218D-03 -0.30912161D-18
  0.26107233D-18 -0.10264461D-18 -0.27379284D-03  0.26379356D-18 -0.10340120D-18
  0.41068925D-03 -0.10470106D-17  0.41133503D-18  0.41068925D-03  0.74951103D-19
 -0.11495033D-03 -0.21427240D-03 -0.36324439D-03 -0.55005907D-03 -0.68785079D-03
 -0.59217546D-03 -0.22765387D-03  0.98646147D-06  0.14782477D-03  0.27758873D-03
  0.47268574D-03  0.74045941D-03  0.99230272D-03  0.10673554D-02  0.64083876D-03
 -0.42144253D-03 -0.76660907D-04 -0.26115171D-02 -0.16391365D-02 -0.85977825D-17
 -0.84084435D-17 -0.55558141D-17  0.22255482D-17  0.21765375D-17  0.14381304D-17
 -0.10299679D-02 -0.10072861D-02 -0.66555650D-03 -0.53966613D-17 -0.45576631D-18
 -0.14472030D-02  0.24188447D-17 -0.87971130D-17 -0.56190749D-03  0.89124461D-19
  0.19417601D-19 -0.16532349D-03  0.55518478D-03  0.55518478D-03 -0.11103696D-02
 -0.36873731D-18  0.71608763D-18  0.37835246D-17 -0.25165189D-04 -0.25165189D-04
  0.50330379D-04 -0.15666594D-18 -0.44374191D-17 -0.13197050D-17 -0.46058563D-04
 -0.46058563D-04  0.92117126D-04  0.48523435D-20  0.28166571D-17 -0.53719799D-17
 -0.59437199D-17 -0.18968443D-17 -0.31112997D-03 -0.58199279D-17 -0.20146233D-17
  0.46669495D-03  0.23651088D-16  0.77051561D-17  0.46669495D-03 -0.36330800D-18
  0.16833944D-17  0.83933094D-18  0.34532808D-03  0.16749556D-17  0.89997929D-18
 -0.51799212D-03 -0.67251387D-17 -0.34179721D-17 -0.51799212D-03 -0.42859684D-19
  0.11495033D-03  0.21427240D-03  0.36324439D-03  0.55005907D-03  0.68785079D-03
  0.59217546D-03  0.22765387D-03 -0.98646147D-06 -0.14782477D-03 -0.27758873D-03
 -0.47268574D-03 -0.74045941D-03 -0.99230272D-03 -0.10673554D-02 -0.64083876D-03
  0.42144253D-03  0.76660907D-04  0.26115171D-02  0.16391365D-02 -0.57796626D-17
 -0.56523838D-17 -0.37347690D-17  0.15742770D-17  0.15396086D-17  0.10172845D-17
 -0.10299679D-02 -0.10072861D-02 -0.66555650D-03 -0.86542491D-18  0.11472252D-17
 -0.14472030D-02 -0.36650623D-17 -0.48378801D-17 -0.56190749D-03  0.12708629D-18
 -0.31632163D-18 -0.16532349D-03 -0.55518478D-03 -0.55518478D-03  0.11103696D-02
  0.22918546D-18  0.47519394D-18 -0.72223121D-17  0.25165189D-04  0.25165189D-04
 -0.50330379D-04  0.49366942D-19  0.51314111D-18  0.21236882D-17  0.46058563D-04
  0.46058563D-04 -0.92117126D-04 -0.31795766D-19  0.28596374D-17  0.32108953D-17
 -0.24976088D-17 -0.20118626D-17 -0.31112997D-03 -0.24932825D-17 -0.19058288D-17
  0.46669495D-03  0.99861089D-17  0.79414166D-17  0.46669495D-03 -0.46250025D-18
  0.10132526D-17  0.86136824D-18  0.34532808D-03  0.10278826D-17  0.84472837D-18
 -0.51799212D-03 -0.40676403D-17 -0.34288331D-17 -0.51799212D-03  0.56577081D-19
MO    5     MO 0.0        OCC NO =    2.0000000  ORB. ENERGY =   -1.705902
 -0.22606857D-02 -0.42144322D-02 -0.71231329D-02 -0.10708402D-01 -0.13156509D-01
 -0.11112775D-01 -0.41913299D-02  0.20743126D-04 -0.11537328D-01 -0.21601518D-01
 -0.36778432D-01 -0.56890642D-01 -0.74922974D-01 -0.77849769D-01 -0.49470034D-01
  0.33153666D-01  0.16697194D-01  0.94146988D-03 -0.61310868D-03  0.40131199D-15
  0.37625550D-15  0.26791633D-15 -0.27336807D-15 -0.25629994D-15 -0.18250083D-15
 -0.86727181D-01 -0.81312245D-01 -0.57899162D-01  0.75934981D-16 -0.32805415D-16
 -0.19089895D-01 -0.14446263D-16  0.17686138D-16 -0.19112632D-02 -0.38798422D-18
 -0.71637322D-17 -0.67780035D-04 -0.12228452D-01 -0.12228452D-01  0.24456904D-01
  0.14406228D-16  0.52852835D-16  0.73801074D-17 -0.69095117D-03 -0.69095117D-03
  0.13819023D-02 -0.77711528D-17  0.77163513D-17 -0.14529751D-16  0.21134526D-03
  0.21134526D-03 -0.42269051D-03  0.25793273D-18 -0.22393082D-17 -0.93774984D-18
 -0.53201467D-17 -0.80937090D-18 -0.43457657D-02 -0.46145206D-17  0.23857969D-17
  0.65186485D-02  0.20574961D-16  0.42315803D-19  0.65186485D-02 -0.30127564D-17
 -0.37943522D-18  0.54247477D-18 -0.60821676D-03 -0.17592719D-17  0.14367612D-17
  0.91232514D-03  0.28975776D-17 -0.30641855D-17  0.91232514D-03  0.16244454D-17
 -0.22606857D-02 -0.42144322D-02 -0.71231329D-02 -0.10708402D-01 -0.13156509D-01
 -0.11112775D-01 -0.41913299D-02  0.20743126D-04 -0.11537328D-01 -0.21601518D-01
 -0.36778432D-01 -0.56890642D-01 -0.74922974D-01 -0.77849769D-01 -0.49470034D-01
  0.33153666D-01  0.16697194D-01  0.94146988D-03 -0.61310869D-03  0.37302664D-16
  0.34973618D-16  0.24903300D-16 -0.33810452D-16 -0.31699448D-16 -0.22571895D-16
  0.86727181D-01  0.81312245D-01  0.57899162D-01 -0.28082658D-16  0.11941887D-16
  0.19089895D-01  0.36980919D-17  0.73162143D-18  0.19112632D-02  0.20225346D-17
 -0.49473322D-19  0.67780035D-04 -0.12228452D-01 -0.12228452D-01  0.24456904D-01
  0.43775381D-17 -0.28462101D-16  0.26731205D-16 -0.69095117D-03 -0.69095117D-03
  0.13819023D-02 -0.52298366D-17 -0.18786388D-18 -0.28982283D-16  0.21134526D-03
  0.21134526D-03 -0.42269051D-03  0.83434186D-18 -0.54412246D-17  0.16649507D-18
  0.42033878D-17  0.38634085D-17  0.43457657D-02  0.16357531D-17  0.25404462D-17
 -0.65186485D-02 -0.14245917D-16 -0.14130672D-16 -0.65186485D-02 -0.32181360D-17
  0.69117195D-18 -0.15610182D-17  0.60821676D-03  0.14619957D-17 -0.19996515D-17
 -0.91232514D-03 -0.35355115D-17  0.66827061D-17 -0.91232514D-03  0.26445348D-17