 Molden2AIM, Version 4.0.0 (06/02/2016)           Time: Wed Jun 27 23:30:23 2018
GAUSSIAN             46 MOL ORBITALS    788 PRIMITIVES        8 NUCLEI
  C    1    (CENTRE  1)   1.97636251  1.55327551  0.00000000  CHARGE =  6.0
  C    2    (CENTRE  2)   0.62338852 -1.04520563  0.00000000  CHARGE =  6.0
  F    3    (CENTRE  3)   1.35676667  2.87220608  2.05293988  CHARGE =  9.0
  F    4    (CENTRE  4)   4.47290237  1.17576492  0.00000000  CHARGE =  9.0
  F    5    (CENTRE  5)   1.35676667  2.87220608 -2.05293988  CHARGE =  9.0
  F    6    (CENTRE  6)   1.35420420 -2.33007578  2.05459339  CHARGE =  9.0
  F    7    (CENTRE  7)   1.35420420 -2.33007578 -2.05459339  CHARGE =  9.0
  Br   8    (CENTRE  8)  -3.00233262 -0.67616668  0.00000000  CHARGE = 35.0
CENTRE ASSIGNMENTS    1  1  1  1  1  1  1  1  1  1  1  1  1  1  1  1  1  1  1  1
CENTRE ASSIGNMENTS    1  1  1  1  1  1  1  1  1  1  1  1  1  1  1  1  1  1  1  1
CENTRE ASSIGNMENTS    1  1  1  1  1  1  1  1  1  1  1  1  1  1  1  1  1  1  1  1
CENTRE ASSIGNMENTS    1  1  1  1  1  1  1  1  1  1  1  1  1  1  1  2  2  2  2  2
CENTRE ASSIGNMENTS    2  2  2  2  2  2  2  2  2  2  2  2  2  2  2  2  2  2  2  2
CENTRE ASSIGNMENTS    2  2  2  2  2  2  2  2  2  2  2  2  2  2  2  2  2  2  2  2
CENTRE ASSIGNMENTS    2  2  2  2  2  2  2  2  2  2  2  2  2  2  2  2  2  2  2  2
CENTRE ASSIGNMENTS    2  2  2  2  2  2  2  2  2  2  3  3  3  3  3  3  3  3  3  3
CENTRE ASSIGNMENTS    3  3  3  3  3  3  3  3  3  3  3  3  3  3  3  3  3  3  3  3
CENTRE ASSIGNMENTS    3  3  3  3  3  3  3  3  3  3  3  3  3  3  3  3  3  3  3  3
CENTRE ASSIGNMENTS    3  3  3  3  3  3  3  3  3  3  3  3  3  3  3  3  3  3  3  3
CENTRE ASSIGNMENTS    3  3  3  3  3  4  4  4  4  4  4  4  4  4  4  4  4  4  4  4
CENTRE ASSIGNMENTS    4  4  4  4  4  4  4  4  4  4  4  4  4  4  4  4  4  4  4  4
CENTRE ASSIGNMENTS    4  4  4  4  4  4  4  4  4  4  4  4  4  4  4  4  4  4  4  4
CENTRE ASSIGNMENTS    4  4  4  4  4  4  4  4  4  4  4  4  4  4  4  4  4  4  4  4
CENTRE ASSIGNMENTS    5  5  5  5  5  5  5  5  5  5  5  5  5  5  5  5  5  5  5  5
CENTRE ASSIGNMENTS    5  5  5  5  5  5  5  5  5  5  5  5  5  5  5  5  5  5  5  5
CENTRE ASSIGNMENTS    5  5  5  5  5  5  5  5  5  5  5  5  5  5  5  5  5  5  5  5
CENTRE ASSIGNMENTS    5  5  5  5  5  5  5  5  5  5  5  5  5  5  5  6  6  6  6  6
CENTRE ASSIGNMENTS    6  6  6  6  6  6  6  6  6  6  6  6  6  6  6  6  6  6  6  6
CENTRE ASSIGNMENTS    6  6  6  6  6  6  6  6  6  6  6  6  6  6  6  6  6  6  6  6
CENTRE ASSIGNMENTS    6  6  6  6  6  6  6  6  6  6  6  6  6  6  6  6  6  6  6  6
CENTRE ASSIGNMENTS    6  6  6  6  6  6  6  6  6  6  7  7  7  7  7  7  7  7  7  7
CENTRE ASSIGNMENTS    7  7  7  7  7  7  7  7  7  7  7  7  7  7  7  7  7  7  7  7
CENTRE ASSIGNMENTS    7  7  7  7  7  7  7  7  7  7  7  7  7  7  7  7  7  7  7  7
CENTRE ASSIGNMENTS    7  7  7  7  7  7  7  7  7  7  7  7  7  7  7  7  7  7  7  7
CENTRE ASSIGNMENTS    7  7  7  7  7  8  8  8  8  8  8  8  8  8  8  8  8  8  8  8
CENTRE ASSIGNMENTS    8  8  8  8  8  8  8  8  8  8  8  8  8  8  8  8  8  8  8  8
CENTRE ASSIGNMENTS    8  8  8  8  8  8  8  8  8  8  8  8  8  8  8  8  8  8  8  8
CENTRE ASSIGNMENTS    8  8  8  8  8  8  8  8  8  8  8  8  8  8  8  8  8  8  8  8
CENTRE ASSIGNMENTS    8  8  8  8  8  8  8  8  8  8  8  8  8  8  8  8  8  8  8  8
CENTRE ASSIGNMENTS    8  8  8  8  8  8  8  8  8  8  8  8  8  8  8  8  8  8  8  8
CENTRE ASSIGNMENTS    8  8  8  8  8  8  8  8  8  8  8  8  8  8  8  8  8  8  8  8
CENTRE ASSIGNMENTS    8  8  8  8  8  8  8  8  8  8  8  8  8  8  8  8  8  8  8  8
CENTRE ASSIGNMENTS    8  8  8  8  8  8  8  8  8  8  8  8  8  8  8  8  8  8  8  8
CENTRE ASSIGNMENTS    8  8  8  8  8  8  8  8  8  8  8  8  8  8  8  8  8  8  8  8
CENTRE ASSIGNMENTS    8  8  8  8  8  8  8  8  8  8  8  8  8  8  8  8  8  8  8  8
CENTRE ASSIGNMENTS    8  8  8  8  8  8  8  8  8  8  8  8  8  8  8  8  8  8  8  8
CENTRE ASSIGNMENTS    8  8  8  8  8  8  8  8  8  8  8  8  8  8  8  8  8  8  8  8
CENTRE ASSIGNMENTS    8  8  8  8  8  8  8  8
TYPE ASSIGNMENTS      1  1  1  1  1  1  1  1  1  1  1  1  1  1  1  1  1  1  1  2
TYPE ASSIGNMENTS      2  2  3  3  3  4  4  4  2  3  4  2  3  4  2  3  4  5  6  7
TYPE ASSIGNMENTS      8  9 10  5  6  7  8  9 10  5  6  7  8  9 10 11 12 13 17 14
TYPE ASSIGNMENTS     15 18 19 16 20 11 12 13 17 14 15 18 19 16 20  1  1  1  1  1
TYPE ASSIGNMENTS      1  1  1  1  1  1  1  1  1  1  1  1  1  1  2  2  2  3  3  3
TYPE ASSIGNMENTS      4  4  4  2  3  4  2  3  4  2  3  4  5  6  7  8  9 10  5  6
TYPE ASSIGNMENTS      7  8  9 10  5  6  7  8  9 10 11 12 13 17 14 15 18 19 16 20
TYPE ASSIGNMENTS     11 12 13 17 14 15 18 19 16 20  1  1  1  1  1  1  1  1  1  1
TYPE ASSIGNMENTS      1  1  1  1  1  1  1  1  1  2  2  2  3  3  3  4  4  4  2  3
TYPE ASSIGNMENTS      4  2  3  4  2  3  4  5  6  7  8  9 10  5  6  7  8  9 10  5
TYPE ASSIGNMENTS      6  7  8  9 10 11 12 13 17 14 15 18 19 16 20 11 12 13 17 14
TYPE ASSIGNMENTS     15 18 19 16 20  1  1  1  1  1  1  1  1  1  1  1  1  1  1  1
TYPE ASSIGNMENTS      1  1  1  1  2  2  2  3  3  3  4  4  4  2  3  4  2  3  4  2
TYPE ASSIGNMENTS      3  4  5  6  7  8  9 10  5  6  7  8  9 10  5  6  7  8  9 10
TYPE ASSIGNMENTS     11 12 13 17 14 15 18 19 16 20 11 12 13 17 14 15 18 19 16 20
TYPE ASSIGNMENTS      1  1  1  1  1  1  1  1  1  1  1  1  1  1  1  1  1  1  1  2
TYPE ASSIGNMENTS      2  2  3  3  3  4  4  4  2  3  4  2  3  4  2  3  4  5  6  7
TYPE ASSIGNMENTS      8  9 10  5  6  7  8  9 10  5  6  7  8  9 10 11 12 13 17 14
TYPE ASSIGNMENTS     15 18 19 16 20 11 12 13 17 14 15 18 19 16 20  1  1  1  1  1
TYPE ASSIGNMENTS      1  1  1  1  1  1  1  1  1  1  1  1  1  1  2  2  2  3  3  3
TYPE ASSIGNMENTS      4  4  4  2  3  4  2  3  4  2  3  4  5  6  7  8  9 10  5  6
TYPE ASSIGNMENTS      7  8  9 10  5  6  7  8  9 10 11 12 13 17 14 15 18 19 16 20
TYPE ASSIGNMENTS     11 12 13 17 14 15 18 19 16 20  1  1  1  1  1  1  1  1  1  1
TYPE ASSIGNMENTS      1  1  1  1  1  1  1  1  1  2  2  2  3  3  3  4  4  4  2  3
TYPE ASSIGNMENTS      4  2  3  4  2  3  4  5  6  7  8  9 10  5  6  7  8  9 10  5
TYPE ASSIGNMENTS      6  7  8  9 10 11 12 13 17 14 15 18 19 16 20 11 12 13 17 14
TYPE ASSIGNMENTS     15 18 19 16 20  1  1  1  1  1  1  1  1  1  1  1  1  1  1  1
TYPE ASSIGNMENTS      1  1  1  1  1  1  1  1  1  1  1  1  1  1  1  1  1  1  1  1
TYPE ASSIGNMENTS      1  1  1  1  1  1  1  1  1  1  1  1  1  1  1  1  1  1  1  1
TYPE ASSIGNMENTS      1  1  1  1  1  1  1  1  1  1  1  1  1  1  1  1  1  1  1  1
TYPE ASSIGNMENTS      2  2  2  2  2  2  2  2  2  2  2  3  3  3  3  3  3  3  3  3
TYPE ASSIGNMENTS      3  3  4  4  4  4  4  4  4  4  4  4  4  2  2  2  2  2  2  2
TYPE ASSIGNMENTS      2  2  2  2  3  3  3  3  3  3  3  3  3  3  3  4  4  4  4  4
TYPE ASSIGNMENTS      4  4  4  4  4  4  2  2  2  2  2  2  2  2  2  2  2  3  3  3
TYPE ASSIGNMENTS      3  3  3  3  3  3  3  3  4  4  4  4  4  4  4  4  4  4  4  2
TYPE ASSIGNMENTS      3  4  2  3  4  2  3  4  5  5  5  5  5  5  5  6  6  6  6  6
TYPE ASSIGNMENTS      6  6  7  7  7  7  7  7  7  8  8  8  8  8  8  8  9  9  9  9
TYPE ASSIGNMENTS      9  9  9 10 10 10 10 10 10 10  5  6  7  8  9 10  5  6  7  8
TYPE ASSIGNMENTS      9 10  5  6  7  8  9 10 11 12 13 17 14 15 18 19 16 20 11 12
TYPE ASSIGNMENTS     13 17 14 15 18 19 16 20
EXPONENTS  0.8236000D+04 0.1235000D+04 0.2808000D+03 0.7927000D+02 0.2559000D+02
EXPONENTS  0.8997000D+01 0.3319000D+01 0.3643000D+00 0.8236000D+04 0.1235000D+04
EXPONENTS  0.2808000D+03 0.7927000D+02 0.2559000D+02 0.8997000D+01 0.3319000D+01
EXPONENTS  0.3643000D+00 0.9059000D+00 0.1285000D+00 0.4402000D-01 0.1871000D+02
EXPONENTS  0.4133000D+01 0.1200000D+01 0.1871000D+02 0.4133000D+01 0.1200000D+01
EXPONENTS  0.1871000D+02 0.4133000D+01 0.1200000D+01 0.3827000D+00 0.3827000D+00
EXPONENTS  0.3827000D+00 0.1209000D+00 0.1209000D+00 0.1209000D+00 0.3569000D-01
EXPONENTS  0.3569000D-01 0.3569000D-01 0.1097000D+01 0.1097000D+01 0.1097000D+01
EXPONENTS  0.1097000D+01 0.1097000D+01 0.1097000D+01 0.3180000D+00 0.3180000D+00
EXPONENTS  0.3180000D+00 0.3180000D+00 0.3180000D+00 0.3180000D+00 0.1000000D+00
EXPONENTS  0.1000000D+00 0.1000000D+00 0.1000000D+00 0.1000000D+00 0.1000000D+00
EXPONENTS  0.7610000D+00 0.7610000D+00 0.7610000D+00 0.7610000D+00 0.7610000D+00
EXPONENTS  0.7610000D+00 0.7610000D+00 0.7610000D+00 0.7610000D+00 0.7610000D+00
EXPONENTS  0.2680000D+00 0.2680000D+00 0.2680000D+00 0.2680000D+00 0.2680000D+00
EXPONENTS  0.2680000D+00 0.2680000D+00 0.2680000D+00 0.2680000D+00 0.2680000D+00
EXPONENTS  0.8236000D+04 0.1235000D+04 0.2808000D+03 0.7927000D+02 0.2559000D+02
EXPONENTS  0.8997000D+01 0.3319000D+01 0.3643000D+00 0.8236000D+04 0.1235000D+04
EXPONENTS  0.2808000D+03 0.7927000D+02 0.2559000D+02 0.8997000D+01 0.3319000D+01
EXPONENTS  0.3643000D+00 0.9059000D+00 0.1285000D+00 0.4402000D-01 0.1871000D+02
EXPONENTS  0.4133000D+01 0.1200000D+01 0.1871000D+02 0.4133000D+01 0.1200000D+01
EXPONENTS  0.1871000D+02 0.4133000D+01 0.1200000D+01 0.3827000D+00 0.3827000D+00
EXPONENTS  0.3827000D+00 0.1209000D+00 0.1209000D+00 0.1209000D+00 0.3569000D-01
EXPONENTS  0.3569000D-01 0.3569000D-01 0.1097000D+01 0.1097000D+01 0.1097000D+01
EXPONENTS  0.1097000D+01 0.1097000D+01 0.1097000D+01 0.3180000D+00 0.3180000D+00
EXPONENTS  0.3180000D+00 0.3180000D+00 0.3180000D+00 0.3180000D+00 0.1000000D+00
EXPONENTS  0.1000000D+00 0.1000000D+00 0.1000000D+00 0.1000000D+00 0.1000000D+00
EXPONENTS  0.7610000D+00 0.7610000D+00 0.7610000D+00 0.7610000D+00 0.7610000D+00
EXPONENTS  0.7610000D+00 0.7610000D+00 0.7610000D+00 0.7610000D+00 0.7610000D+00
EXPONENTS  0.2680000D+00 0.2680000D+00 0.2680000D+00 0.2680000D+00 0.2680000D+00
EXPONENTS  0.2680000D+00 0.2680000D+00 0.2680000D+00 0.2680000D+00 0.2680000D+00
EXPONENTS  0.1950000D+05 0.2923000D+04 0.6645000D+03 0.1875000D+03 0.6062000D+02
EXPONENTS  0.2142000D+02 0.7950000D+01 0.8815000D+00 0.1950000D+05 0.2923000D+04
EXPONENTS  0.6645000D+03 0.1875000D+03 0.6062000D+02 0.2142000D+02 0.7950000D+01
EXPONENTS  0.8815000D+00 0.2257000D+01 0.3041000D+00 0.9158000D-01 0.4388000D+02
EXPONENTS  0.9926000D+01 0.2930000D+01 0.4388000D+02 0.9926000D+01 0.2930000D+01
EXPONENTS  0.4388000D+02 0.9926000D+01 0.2930000D+01 0.9132000D+00 0.9132000D+00
EXPONENTS  0.9132000D+00 0.2672000D+00 0.2672000D+00 0.2672000D+00 0.7361000D-01
EXPONENTS  0.7361000D-01 0.7361000D-01 0.3107000D+01 0.3107000D+01 0.3107000D+01
EXPONENTS  0.3107000D+01 0.3107000D+01 0.3107000D+01 0.8550000D+00 0.8550000D+00
EXPONENTS  0.8550000D+00 0.8550000D+00 0.8550000D+00 0.8550000D+00 0.2920000D+00
EXPONENTS  0.2920000D+00 0.2920000D+00 0.2920000D+00 0.2920000D+00 0.2920000D+00
EXPONENTS  0.1917000D+01 0.1917000D+01 0.1917000D+01 0.1917000D+01 0.1917000D+01
EXPONENTS  0.1917000D+01 0.1917000D+01 0.1917000D+01 0.1917000D+01 0.1917000D+01
EXPONENTS  0.7240000D+00 0.7240000D+00 0.7240000D+00 0.7240000D+00 0.7240000D+00
EXPONENTS  0.7240000D+00 0.7240000D+00 0.7240000D+00 0.7240000D+00 0.7240000D+00
EXPONENTS  0.1950000D+05 0.2923000D+04 0.6645000D+03 0.1875000D+03 0.6062000D+02
EXPONENTS  0.2142000D+02 0.7950000D+01 0.8815000D+00 0.1950000D+05 0.2923000D+04
EXPONENTS  0.6645000D+03 0.1875000D+03 0.6062000D+02 0.2142000D+02 0.7950000D+01
EXPONENTS  0.8815000D+00 0.2257000D+01 0.3041000D+00 0.9158000D-01 0.4388000D+02
EXPONENTS  0.9926000D+01 0.2930000D+01 0.4388000D+02 0.9926000D+01 0.2930000D+01
EXPONENTS  0.4388000D+02 0.9926000D+01 0.2930000D+01 0.9132000D+00 0.9132000D+00
EXPONENTS  0.9132000D+00 0.2672000D+00 0.2672000D+00 0.2672000D+00 0.7361000D-01
EXPONENTS  0.7361000D-01 0.7361000D-01 0.3107000D+01 0.3107000D+01 0.3107000D+01
EXPONENTS  0.3107000D+01 0.3107000D+01 0.3107000D+01 0.8550000D+00 0.8550000D+00
EXPONENTS  0.8550000D+00 0.8550000D+00 0.8550000D+00 0.8550000D+00 0.2920000D+00
EXPONENTS  0.2920000D+00 0.2920000D+00 0.2920000D+00 0.2920000D+00 0.2920000D+00
EXPONENTS  0.1917000D+01 0.1917000D+01 0.1917000D+01 0.1917000D+01 0.1917000D+01
EXPONENTS  0.1917000D+01 0.1917000D+01 0.1917000D+01 0.1917000D+01 0.1917000D+01
EXPONENTS  0.7240000D+00 0.7240000D+00 0.7240000D+00 0.7240000D+00 0.7240000D+00
EXPONENTS  0.7240000D+00 0.7240000D+00 0.7240000D+00 0.7240000D+00 0.7240000D+00
EXPONENTS  0.1950000D+05 0.2923000D+04 0.6645000D+03 0.1875000D+03 0.6062000D+02
EXPONENTS  0.2142000D+02 0.7950000D+01 0.8815000D+00 0.1950000D+05 0.2923000D+04
EXPONENTS  0.6645000D+03 0.1875000D+03 0.6062000D+02 0.2142000D+02 0.7950000D+01
EXPONENTS  0.8815000D+00 0.2257000D+01 0.3041000D+00 0.9158000D-01 0.4388000D+02
EXPONENTS  0.9926000D+01 0.2930000D+01 0.4388000D+02 0.9926000D+01 0.2930000D+01
EXPONENTS  0.4388000D+02 0.9926000D+01 0.2930000D+01 0.9132000D+00 0.9132000D+00
EXPONENTS  0.9132000D+00 0.2672000D+00 0.2672000D+00 0.2672000D+00 0.7361000D-01
EXPONENTS  0.7361000D-01 0.7361000D-01 0.3107000D+01 0.3107000D+01 0.3107000D+01
EXPONENTS  0.3107000D+01 0.3107000D+01 0.3107000D+01 0.8550000D+00 0.8550000D+00
EXPONENTS  0.8550000D+00 0.8550000D+00 0.8550000D+00 0.8550000D+00 0.2920000D+00
EXPONENTS  0.2920000D+00 0.2920000D+00 0.2920000D+00 0.2920000D+00 0.2920000D+00
EXPONENTS  0.1917000D+01 0.1917000D+01 0.1917000D+01 0.1917000D+01 0.1917000D+01
EXPONENTS  0.1917000D+01 0.1917000D+01 0.1917000D+01 0.1917000D+01 0.1917000D+01
EXPONENTS  0.7240000D+00 0.7240000D+00 0.7240000D+00 0.7240000D+00 0.7240000D+00
EXPONENTS  0.7240000D+00 0.7240000D+00 0.7240000D+00 0.7240000D+00 0.7240000D+00
EXPONENTS  0.1950000D+05 0.2923000D+04 0.6645000D+03 0.1875000D+03 0.6062000D+02
EXPONENTS  0.2142000D+02 0.7950000D+01 0.8815000D+00 0.1950000D+05 0.2923000D+04
EXPONENTS  0.6645000D+03 0.1875000D+03 0.6062000D+02 0.2142000D+02 0.7950000D+01
EXPONENTS  0.8815000D+00 0.2257000D+01 0.3041000D+00 0.9158000D-01 0.4388000D+02
EXPONENTS  0.9926000D+01 0.2930000D+01 0.4388000D+02 0.9926000D+01 0.2930000D+01
EXPONENTS  0.4388000D+02 0.9926000D+01 0.2930000D+01 0.9132000D+00 0.9132000D+00
EXPONENTS  0.9132000D+00 0.2672000D+00 0.2672000D+00 0.2672000D+00 0.7361000D-01
EXPONENTS  0.7361000D-01 0.7361000D-01 0.3107000D+01 0.3107000D+01 0.3107000D+01
EXPONENTS  0.3107000D+01 0.3107000D+01 0.3107000D+01 0.8550000D+00 0.8550000D+00
EXPONENTS  0.8550000D+00 0.8550000D+00 0.8550000D+00 0.8550000D+00 0.2920000D+00
EXPONENTS  0.2920000D+00 0.2920000D+00 0.2920000D+00 0.2920000D+00 0.2920000D+00
EXPONENTS  0.1917000D+01 0.1917000D+01 0.1917000D+01 0.1917000D+01 0.1917000D+01
EXPONENTS  0.1917000D+01 0.1917000D+01 0.1917000D+01 0.1917000D+01 0.1917000D+01
EXPONENTS  0.7240000D+00 0.7240000D+00 0.7240000D+00 0.7240000D+00 0.7240000D+00
EXPONENTS  0.7240000D+00 0.7240000D+00 0.7240000D+00 0.7240000D+00 0.7240000D+00
EXPONENTS  0.1950000D+05 0.2923000D+04 0.6645000D+03 0.1875000D+03 0.6062000D+02
EXPONENTS  0.2142000D+02 0.7950000D+01 0.8815000D+00 0.1950000D+05 0.2923000D+04
EXPONENTS  0.6645000D+03 0.1875000D+03 0.6062000D+02 0.2142000D+02 0.7950000D+01
EXPONENTS  0.8815000D+00 0.2257000D+01 0.3041000D+00 0.9158000D-01 0.4388000D+02
EXPONENTS  0.9926000D+01 0.2930000D+01 0.4388000D+02 0.9926000D+01 0.2930000D+01
EXPONENTS  0.4388000D+02 0.9926000D+01 0.2930000D+01 0.9132000D+00 0.9132000D+00
EXPONENTS  0.9132000D+00 0.2672000D+00 0.2672000D+00 0.2672000D+00 0.7361000D-01
EXPONENTS  0.7361000D-01 0.7361000D-01 0.3107000D+01 0.3107000D+01 0.3107000D+01
EXPONENTS  0.3107000D+01 0.3107000D+01 0.3107000D+01 0.8550000D+00 0.8550000D+00
EXPONENTS  0.8550000D+00 0.8550000D+00 0.8550000D+00 0.8550000D+00 0.2920000D+00
EXPONENTS  0.2920000D+00 0.2920000D+00 0.2920000D+00 0.2920000D+00 0.2920000D+00
EXPONENTS  0.1917000D+01 0.1917000D+01 0.1917000D+01 0.1917000D+01 0.1917000D+01
EXPONENTS  0.1917000D+01 0.1917000D+01 0.1917000D+01 0.1917000D+01 0.1917000D+01
EXPONENTS  0.7240000D+00 0.7240000D+00 0.7240000D+00 0.7240000D+00 0.7240000D+00
EXPONENTS  0.7240000D+00 0.7240000D+00 0.7240000D+00 0.7240000D+00 0.7240000D+00
EXPONENTS  0.1063900D+08 0.1593400D+07 0.3626100D+06 0.1027000D+06 0.3350100D+05
EXPONENTS  0.1209300D+05 0.4715900D+04 0.1955600D+04 0.8526100D+03 0.3876700D+03
EXPONENTS  0.1826800D+03 0.8824500D+02 0.3926300D+02 0.1923400D+02 0.9405700D+01
EXPONENTS  0.4160100D+01 0.1899500D+01 0.3011400D+00 0.1063900D+08 0.1593400D+07
EXPONENTS  0.3626100D+06 0.1027000D+06 0.3350100D+05 0.1209300D+05 0.4715900D+04
EXPONENTS  0.1955600D+04 0.8526100D+03 0.3876700D+03 0.1826800D+03 0.8824500D+02
EXPONENTS  0.3926300D+02 0.1923400D+02 0.9405700D+01 0.4160100D+01 0.1899500D+01
EXPONENTS  0.3011400D+00 0.1063900D+08 0.1593400D+07 0.3626100D+06 0.1027000D+06
EXPONENTS  0.3350100D+05 0.1209300D+05 0.4715900D+04 0.1955600D+04 0.8526100D+03
EXPONENTS  0.3876700D+03 0.1826800D+03 0.8824500D+02 0.3926300D+02 0.1923400D+02
EXPONENTS  0.9405700D+01 0.4160100D+01 0.1899500D+01 0.3011400D+00 0.1063900D+08
EXPONENTS  0.1593400D+07 0.3626100D+06 0.1027000D+06 0.3350100D+05 0.1209300D+05
EXPONENTS  0.4715900D+04 0.1955600D+04 0.8526100D+03 0.3876700D+03 0.1826800D+03
EXPONENTS  0.8824500D+02 0.3926300D+02 0.1923400D+02 0.9405700D+01 0.4160100D+01
EXPONENTS  0.1899500D+01 0.3011400D+00 0.6047200D+00 0.1251500D+00 0.4559300D-01
EXPONENTS  0.8676500D+04 0.2055900D+04 0.6662300D+03 0.2531000D+03 0.1061200D+03
EXPONENTS  0.4724200D+02 0.2182500D+02 0.9968400D+01 0.4517100D+01 0.1998200D+01
EXPONENTS  0.2814500D+00 0.8676500D+04 0.2055900D+04 0.6662300D+03 0.2531000D+03
EXPONENTS  0.1061200D+03 0.4724200D+02 0.2182500D+02 0.9968400D+01 0.4517100D+01
EXPONENTS  0.1998200D+01 0.2814500D+00 0.8676500D+04 0.2055900D+04 0.6662300D+03
EXPONENTS  0.2531000D+03 0.1061200D+03 0.4724200D+02 0.2182500D+02 0.9968400D+01
EXPONENTS  0.4517100D+01 0.1998200D+01 0.2814500D+00 0.8676500D+04 0.2055900D+04
EXPONENTS  0.6662300D+03 0.2531000D+03 0.1061200D+03 0.4724200D+02 0.2182500D+02
EXPONENTS  0.9968400D+01 0.4517100D+01 0.1998200D+01 0.2814500D+00 0.8676500D+04
EXPONENTS  0.2055900D+04 0.6662300D+03 0.2531000D+03 0.1061200D+03 0.4724200D+02
EXPONENTS  0.2182500D+02 0.9968400D+01 0.4517100D+01 0.1998200D+01 0.2814500D+00
EXPONENTS  0.8676500D+04 0.2055900D+04 0.6662300D+03 0.2531000D+03 0.1061200D+03
EXPONENTS  0.4724200D+02 0.2182500D+02 0.9968400D+01 0.4517100D+01 0.1998200D+01
EXPONENTS  0.2814500D+00 0.8676500D+04 0.2055900D+04 0.6662300D+03 0.2531000D+03
EXPONENTS  0.1061200D+03 0.4724200D+02 0.2182500D+02 0.9968400D+01 0.4517100D+01
EXPONENTS  0.1998200D+01 0.2814500D+00 0.8676500D+04 0.2055900D+04 0.6662300D+03
EXPONENTS  0.2531000D+03 0.1061200D+03 0.4724200D+02 0.2182500D+02 0.9968400D+01
EXPONENTS  0.4517100D+01 0.1998200D+01 0.2814500D+00 0.8676500D+04 0.2055900D+04
EXPONENTS  0.6662300D+03 0.2531000D+03 0.1061200D+03 0.4724200D+02 0.2182500D+02
EXPONENTS  0.9968400D+01 0.4517100D+01 0.1998200D+01 0.2814500D+00 0.7098800D+00
EXPONENTS  0.7098800D+00 0.7098800D+00 0.1020400D+00 0.1020400D+00 0.1020400D+00
EXPONENTS  0.3514200D-01 0.3514200D-01 0.3514200D-01 0.4038300D+03 0.1211700D+03
EXPONENTS  0.4634500D+02 0.1972100D+02 0.8862400D+01 0.3996200D+01 0.1763600D+01
EXPONENTS  0.4038300D+03 0.1211700D+03 0.4634500D+02 0.1972100D+02 0.8862400D+01
EXPONENTS  0.3996200D+01 0.1763600D+01 0.4038300D+03 0.1211700D+03 0.4634500D+02
EXPONENTS  0.1972100D+02 0.8862400D+01 0.3996200D+01 0.1763600D+01 0.4038300D+03
EXPONENTS  0.1211700D+03 0.4634500D+02 0.1972100D+02 0.8862400D+01 0.3996200D+01
EXPONENTS  0.1763600D+01 0.4038300D+03 0.1211700D+03 0.4634500D+02 0.1972100D+02
EXPONENTS  0.8862400D+01 0.3996200D+01 0.1763600D+01 0.4038300D+03 0.1211700D+03
EXPONENTS  0.4634500D+02 0.1972100D+02 0.8862400D+01 0.3996200D+01 0.1763600D+01
EXPONENTS  0.7061900D+00 0.7061900D+00 0.7061900D+00 0.7061900D+00 0.7061900D+00
EXPONENTS  0.7061900D+00 0.2639000D+00 0.2639000D+00 0.2639000D+00 0.2639000D+00
EXPONENTS  0.2639000D+00 0.2639000D+00 0.1047000D+00 0.1047000D+00 0.1047000D+00
EXPONENTS  0.1047000D+00 0.1047000D+00 0.1047000D+00 0.5515000D+00 0.5515000D+00
EXPONENTS  0.5515000D+00 0.5515000D+00 0.5515000D+00 0.5515000D+00 0.5515000D+00
EXPONENTS  0.5515000D+00 0.5515000D+00 0.5515000D+00 0.2580000D+00 0.2580000D+00
EXPONENTS  0.2580000D+00 0.2580000D+00 0.2580000D+00 0.2580000D+00 0.2580000D+00
EXPONENTS  0.2580000D+00 0.2580000D+00 0.2580000D+00
MO    1     MO 0.0        OCC NO =    2.0000000  ORB. ENERGY = -490.068574
 -0.11192324D-06 -0.20865037D-06 -0.35265587D-06 -0.53015730D-06 -0.65135949D-06
 -0.55017722D-06 -0.20750660D-06  0.10269618D-08  0.78092478D-07  0.14621376D-06
  0.24894143D-06  0.38507455D-06  0.50712963D-06  0.52694017D-06  0.33484682D-06
 -0.22440655D-06 -0.98474566D-07  0.16283696D-05 -0.20159287D-06  0.63087463D-07
  0.59148506D-07  0.42117260D-07 -0.20666866D-07 -0.19376500D-07 -0.13797222D-07
 -0.38133595D-17 -0.35752669D-17 -0.25458030D-17 -0.13574559D-06  0.18263436D-06
  0.33607814D-17  0.63796967D-08 -0.59152067D-06  0.14529245D-16 -0.14677701D-07
  0.22482304D-07 -0.68027034D-18 -0.98220166D-07  0.40422012D-07  0.57798155D-07
 -0.14985641D-07  0.59020698D-17  0.22989660D-17  0.10892278D-06 -0.10246922D-06
 -0.64535563D-08  0.31883795D-06 -0.22231699D-17 -0.19107662D-16  0.35750890D-07
 -0.43846756D-08 -0.31366214D-07  0.25100706D-07 -0.55509132D-19 -0.12807626D-17
  0.17993082D-07  0.41477093D-07  0.49430793D-18 -0.18922479D-06 -0.20020428D-06
 -0.10908848D-17  0.13524555D-06  0.75773006D-07 -0.39203901D-18  0.14734042D-16
 -0.11457582D-07 -0.20519354D-07 -0.32736576D-17  0.26070729D-07 -0.25339491D-07
  0.32686108D-17  0.83020172D-08  0.86897552D-07  0.65523621D-17 -0.33245679D-17
 -0.14592245D-06 -0.27203262D-06 -0.45978306D-06 -0.69120454D-06 -0.84922464D-06
 -0.71730597D-06 -0.27054142D-06  0.13389246D-08  0.95612517D-07  0.17901680D-06
  0.30479142D-06  0.47146598D-06  0.62090411D-06  0.64515914D-06  0.40996967D-06
 -0.27475214D-06  0.74965280D-07  0.50083624D-06  0.23139025D-06 -0.17119310D-07
 -0.16050441D-07 -0.11428870D-07  0.13183917D-07  0.12360761D-07  0.88015979D-08
 -0.20484655D-16 -0.19205666D-16 -0.13675578D-16  0.18683543D-06 -0.17024462D-06
  0.58853027D-16 -0.16014620D-05 -0.30311154D-06  0.13586380D-16  0.46518103D-07
 -0.69391741D-09 -0.10019312D-17 -0.62393957D-06  0.26116389D-06  0.36277568D-06
  0.48122907D-07  0.29381250D-16 -0.74808968D-17  0.51210885D-06 -0.19392919D-06
 -0.31817966D-06 -0.23681696D-06 -0.13965661D-16 -0.55966038D-16  0.13946657D-06
 -0.70826803D-07 -0.68639769D-07 -0.47335824D-07 -0.68038101D-17 -0.76027645D-17
 -0.46400061D-07 -0.10838776D-06  0.10577234D-17 -0.47459727D-07  0.11540629D-06
 -0.11398609D-16  0.18665991D-06  0.20975700D-06  0.82254387D-17 -0.21602606D-16
 -0.10744540D-06 -0.44374989D-07  0.21095672D-17  0.20321948D-06 -0.22544077D-07
 -0.99334606D-17  0.11911674D-06  0.15566904D-06  0.36047592D-17 -0.94761774D-18
  0.49906911D-07  0.93028644D-07  0.15770642D-06  0.23881400D-06  0.29863775D-06
  0.25709928D-06  0.98838350D-07 -0.42828275D-09 -0.33198010D-07 -0.62339983D-07
 -0.10615424D-06 -0.16628999D-06 -0.22284815D-06 -0.23970323D-06 -0.14391750D-06
  0.94646206D-07 -0.15162154D-07 -0.24948218D-06  0.38519692D-06 -0.86270356D-07
 -0.84370524D-07 -0.55747173D-07 -0.67754872D-07 -0.66262785D-07 -0.43782623D-07
 -0.14125045D-06 -0.13813985D-06 -0.91274842D-07  0.76148438D-07  0.30529843D-07
  0.98492593D-07 -0.12566702D-06  0.13217525D-06 -0.19329895D-07  0.10199995D-07
 -0.42214069D-07 -0.27263855D-07  0.14273714D-06  0.56143827D-07 -0.19888097D-06
  0.36014786D-06 -0.18853051D-06 -0.18325839D-07 -0.54364343D-07 -0.17893003D-07
  0.72257346D-07 -0.15282794D-06  0.69075024D-07 -0.39258607D-08 -0.12470956D-07
  0.10218396D-08  0.11449116D-07  0.93088782D-07  0.48190779D-07 -0.85341180D-07
  0.47270150D-07 -0.17568055D-07  0.46371862D-07 -0.36135999D-07  0.35579257D-06
 -0.10942506D-06 -0.10567445D-06 -0.30308840D-06 -0.29690522D-07  0.56672273D-06
 -0.72073992D-08 -0.98437739D-08 -0.25480225D-07  0.28037799D-07 -0.68319456D-07
  0.66120085D-07 -0.64156010D-08  0.97850778D-07  0.10320590D-07 -0.17944057D-06
  0.19081986D-07  0.35569648D-07  0.60299298D-07  0.91310908D-07  0.11418461D-06
  0.98302314D-07  0.37790998D-07 -0.16375458D-09 -0.13251726D-07 -0.24884395D-07
 -0.42373833D-07 -0.66378359D-07 -0.88954810D-07 -0.95682892D-07 -0.57447883D-07
  0.37780145D-07  0.81339303D-08 -0.34887476D-06 -0.42567698D-06 -0.12241957D-06
 -0.11972367D-06 -0.79106489D-07 -0.15291983D-06 -0.14955226D-06 -0.98815499D-07
  0.19568556D-18  0.19137620D-18  0.12645035D-18  0.13219659D-06  0.12440370D-06
  0.10709158D-18  0.63813451D-08 -0.15063760D-06 -0.56879215D-17  0.43057679D-07
  0.18584806D-07  0.23658173D-18 -0.14453104D-07  0.72804625D-08  0.71726417D-08
 -0.46970517D-07  0.39433517D-17 -0.32104217D-16 -0.26514842D-07  0.39333933D-08
  0.22581448D-07 -0.28163819D-08 -0.57502435D-18  0.10643405D-16  0.53507929D-07
 -0.13235478D-07 -0.40272451D-07  0.13793306D-06  0.37859876D-17 -0.13052748D-17
  0.81106373D-07 -0.64943860D-07 -0.39829280D-17  0.76453734D-07  0.41562369D-06
  0.16099650D-16 -0.31977285D-06 -0.22079211D-06 -0.41508657D-17  0.16956794D-16
 -0.36948348D-07  0.28656423D-07  0.12791989D-17 -0.11301692D-07 -0.14632754D-06
 -0.56255811D-17  0.12214674D-06  0.60358271D-07  0.17879844D-17 -0.61427623D-17
  0.49906911D-07  0.93028644D-07  0.15770642D-06  0.23881400D-06  0.29863775D-06
  0.25709928D-06  0.98838350D-07 -0.42828275D-09 -0.33198010D-07 -0.62339983D-07
 -0.10615424D-06 -0.16628999D-06 -0.22284815D-06 -0.23970323D-06 -0.14391750D-06
  0.94646206D-07 -0.15162154D-07 -0.24948218D-06  0.38519692D-06 -0.86270356D-07
 -0.84370524D-07 -0.55747173D-07 -0.67754872D-07 -0.66262785D-07 -0.43782623D-07
  0.14125045D-06  0.13813985D-06  0.91274842D-07  0.76148438D-07  0.30529843D-07
 -0.98492593D-07 -0.12566702D-06  0.13217525D-06  0.19329895D-07  0.10199995D-07
 -0.42214069D-07  0.27263855D-07  0.14273714D-06  0.56143827D-07 -0.19888097D-06
  0.36014786D-06  0.18853051D-06  0.18325839D-07 -0.54364343D-07 -0.17893003D-07
  0.72257346D-07 -0.15282794D-06 -0.69075024D-07  0.39258607D-08 -0.12470956D-07
  0.10218395D-08  0.11449116D-07  0.93088782D-07 -0.48190779D-07  0.85341180D-07
  0.47270150D-07 -0.17568055D-07 -0.46371862D-07 -0.36135999D-07  0.35579257D-06
  0.10942506D-06 -0.10567445D-06 -0.30308840D-06  0.29690522D-07 -0.56672273D-06
 -0.72073992D-08 -0.98437739D-08  0.25480225D-07  0.28037799D-07 -0.68319456D-07
 -0.66120085D-07 -0.64156010D-08  0.97850778D-07 -0.10320590D-07  0.17944057D-06
  0.16873986D-07  0.31453841D-07  0.53321994D-07  0.80745214D-07  0.10097217D-06
  0.86927636D-07  0.33418157D-07 -0.14480634D-09 -0.98546830D-08 -0.18505349D-07
 -0.31511419D-07 -0.49362451D-07 -0.66151491D-07 -0.71154848D-07 -0.42721277D-07
  0.28095309D-07 -0.24043687D-07  0.23175365D-06  0.40192198D-06  0.41216034D-06
  0.40308381D-06  0.26633451D-06 -0.24796502D-07 -0.24250438D-07 -0.16023290D-07
  0.20935372D-07  0.20474336D-07  0.13528260D-07 -0.23922184D-06  0.30776906D-07
 -0.72540134D-07 -0.13022004D-06  0.12840040D-06  0.71758059D-07 -0.69446231D-07
  0.43221846D-07 -0.25721460D-07 -0.41863463D-06  0.52071168D-07  0.36656346D-06
  0.19503555D-06 -0.58439622D-06  0.11782015D-06  0.14344024D-06 -0.14569028D-07
 -0.12887121D-06 -0.10733717D-06  0.28769165D-06 -0.76587481D-07  0.81842020D-07
 -0.55016391D-08 -0.76340381D-07 -0.80063140D-07  0.54634930D-07  0.92795132D-08
  0.22144541D-08  0.93310301D-07 -0.22056496D-06  0.13793409D-06 -0.29505547D-06
  0.76262355D-06 -0.14457745D-06  0.15124565D-07 -0.10092868D-06  0.11376494D-06
  0.25022234D-08 -0.37218466D-07  0.10504719D-06 -0.30600992D-07  0.15723016D-06
 -0.33709347D-06  0.23094322D-07 -0.45574765D-07  0.21951891D-07  0.57593992D-07
  0.16873986D-07  0.31453841D-07  0.53321994D-07  0.80745214D-07  0.10097217D-06
  0.86927636D-07  0.33418157D-07 -0.14480634D-09 -0.98546830D-08 -0.18505349D-07
 -0.31511419D-07 -0.49362451D-07 -0.66151491D-07 -0.71154848D-07 -0.42721277D-07
  0.28095309D-07 -0.24043687D-07  0.23175365D-06  0.40192198D-06  0.41216034D-06
  0.40308381D-06  0.26633451D-06 -0.24796502D-07 -0.24250438D-07 -0.16023290D-07
 -0.20935372D-07 -0.20474336D-07 -0.13528260D-07 -0.23922184D-06  0.30776906D-07
  0.72540134D-07 -0.13022004D-06  0.12840040D-06 -0.71758059D-07 -0.69446231D-07
  0.43221846D-07  0.25721460D-07 -0.41863463D-06  0.52071168D-07  0.36656346D-06
  0.19503555D-06  0.58439622D-06 -0.11782015D-06  0.14344024D-06 -0.14569028D-07
 -0.12887121D-06 -0.10733717D-06 -0.28769165D-06  0.76587481D-07  0.81842020D-07
 -0.55016391D-08 -0.76340381D-07 -0.80063140D-07 -0.54634930D-07 -0.92795131D-08
  0.22144541D-08  0.93310301D-07  0.22056496D-06  0.13793409D-06 -0.29505547D-06
 -0.76262355D-06 -0.14457745D-06  0.15124565D-07  0.10092868D-06 -0.11376494D-06
  0.25022234D-08 -0.37218466D-07 -0.10504719D-06 -0.30600992D-07  0.15723016D-06
  0.33709347D-06  0.23094322D-07 -0.45574765D-07 -0.21951891D-07 -0.57593992D-07
  0.78331757D+00  0.14735158D+01  0.25507284D+01  0.41811319D+01  0.65498241D+01
  0.98449435D+01  0.14070897D+02  0.18679466D+02  0.21754775D+02  0.19981550D+02
  0.11683998D+02  0.30659396D+01  0.16761372D+00 -0.59992219D-02  0.16765932D-02
 -0.49783710D-03  0.84872606D-04  0.69244373D-05 -0.67182382D-06 -0.12343485D-05
 -0.21344731D-05 -0.34954980D-05 -0.55035045D-05 -0.83108310D-05 -0.12131275D-04
 -0.16705503D-04 -0.21345160D-04 -0.23268726D-04 -0.19153744D-04 -0.52518266D-05
  0.10593275D-04  0.10323609D-04  0.22590965D-05  0.76106881D-07  0.25782579D-08
 -0.65587556D-11  0.73200920D-06  0.14350313D-05  0.25134217D-05  0.41061132D-05
  0.64763295D-05  0.97724920D-05  0.14328415D-04  0.19782747D-04  0.25648430D-04
  0.28522563D-04  0.24773602D-04  0.71962883D-05 -0.18141755D-04 -0.26433816D-04
 -0.45506759D-05  0.11101701D-04  0.52841297D-05 -0.25518676D-07 -0.34737782D-06
 -0.75268385D-06 -0.12813249D-05 -0.20914673D-05 -0.32969930D-05 -0.49761146D-05
 -0.72957950D-05 -0.10085919D-04 -0.13090510D-04 -0.14624389D-04 -0.12774735D-04
 -0.37838890D-05  0.98359378D-05  0.15130997D-04  0.26483865D-05 -0.83541889D-05
 -0.70914429D-05  0.26457540D-05 -0.18959780D-04 -0.45824170D-05 -0.11450825D-06
  0.21387686D-03  0.30687543D-03  0.40631938D-03  0.46918377D-03  0.43495494D-03
  0.28159775D-03  0.99393666D-04  0.11649795D-04  0.16936645D-06  0.24801832D-07
  0.25500135D-09 -0.14347835D-04 -0.20586603D-04 -0.27257757D-04 -0.31474987D-04