 Molden2AIM, Version 4.0.0 (06/02/2016)           Time: Thu Jun 28 00:01:43 2018
GAUSSIAN             33 MOL ORBITALS    600 PRIMITIVES        8 NUCLEI
  C    1    (CENTRE  1)  -1.46016681 -0.03828396  0.03469915  CHARGE =  6.0
  C    2    (CENTRE  2)   1.46016681  0.03828396 -0.03469915  CHARGE =  6.0
  F    3    (CENTRE  3)  -2.31828955  1.58999666  1.75442551  CHARGE =  9.0
  F    4    (CENTRE  4)   2.31828955 -1.58999666 -1.75442551  CHARGE =  9.0
  F    5    (CENTRE  5)  -2.38476256  0.58634800 -2.22397332  CHARGE =  9.0
  F    6    (CENTRE  6)   2.38476256 -0.58634800  2.22397332  CHARGE =  9.0
  F    7    (CENTRE  7)  -2.23833524 -2.35791711  0.63473066  CHARGE =  9.0
  F    8    (CENTRE  8)   2.23833524  2.35791711 -0.63473066  CHARGE =  9.0
CENTRE ASSIGNMENTS    1  1  1  1  1  1  1  1  1  1  1  1  1  1  1  1  1  1  1  1
CENTRE ASSIGNMENTS    1  1  1  1  1  1  1  1  1  1  1  1  1  1  1  1  1  1  1  1
CENTRE ASSIGNMENTS    1  1  1  1  1  1  1  1  1  1  1  1  1  1  1  1  1  1  1  1
CENTRE ASSIGNMENTS    1  1  1  1  1  1  1  1  1  1  1  1  1  1  1  2  2  2  2  2
CENTRE ASSIGNMENTS    2  2  2  2  2  2  2  2  2  2  2  2  2  2  2  2  2  2  2  2
CENTRE ASSIGNMENTS    2  2  2  2  2  2  2  2  2  2  2  2  2  2  2  2  2  2  2  2
CENTRE ASSIGNMENTS    2  2  2  2  2  2  2  2  2  2  2  2  2  2  2  2  2  2  2  2
CENTRE ASSIGNMENTS    2  2  2  2  2  2  2  2  2  2  3  3  3  3  3  3  3  3  3  3
CENTRE ASSIGNMENTS    3  3  3  3  3  3  3  3  3  3  3  3  3  3  3  3  3  3  3  3
CENTRE ASSIGNMENTS    3  3  3  3  3  3  3  3  3  3  3  3  3  3  3  3  3  3  3  3
CENTRE ASSIGNMENTS    3  3  3  3  3  3  3  3  3  3  3  3  3  3  3  3  3  3  3  3
CENTRE ASSIGNMENTS    3  3  3  3  3  4  4  4  4  4  4  4  4  4  4  4  4  4  4  4
CENTRE ASSIGNMENTS    4  4  4  4  4  4  4  4  4  4  4  4  4  4  4  4  4  4  4  4
CENTRE ASSIGNMENTS    4  4  4  4  4  4  4  4  4  4  4  4  4  4  4  4  4  4  4  4
CENTRE ASSIGNMENTS    4  4  4  4  4  4  4  4  4  4  4  4  4  4  4  4  4  4  4  4
CENTRE ASSIGNMENTS    5  5  5  5  5  5  5  5  5  5  5  5  5  5  5  5  5  5  5  5
CENTRE ASSIGNMENTS    5  5  5  5  5  5  5  5  5  5  5  5  5  5  5  5  5  5  5  5
CENTRE ASSIGNMENTS    5  5  5  5  5  5  5  5  5  5  5  5  5  5  5  5  5  5  5  5
CENTRE ASSIGNMENTS    5  5  5  5  5  5  5  5  5  5  5  5  5  5  5  6  6  6  6  6
CENTRE ASSIGNMENTS    6  6  6  6  6  6  6  6  6  6  6  6  6  6  6  6  6  6  6  6
CENTRE ASSIGNMENTS    6  6  6  6  6  6  6  6  6  6  6  6  6  6  6  6  6  6  6  6
CENTRE ASSIGNMENTS    6  6  6  6  6  6  6  6  6  6  6  6  6  6  6  6  6  6  6  6
CENTRE ASSIGNMENTS    6  6  6  6  6  6  6  6  6  6  7  7  7  7  7  7  7  7  7  7
CENTRE ASSIGNMENTS    7  7  7  7  7  7  7  7  7  7  7  7  7  7  7  7  7  7  7  7
CENTRE ASSIGNMENTS    7  7  7  7  7  7  7  7  7  7  7  7  7  7  7  7  7  7  7  7
CENTRE ASSIGNMENTS    7  7  7  7  7  7  7  7  7  7  7  7  7  7  7  7  7  7  7  7
CENTRE ASSIGNMENTS    7  7  7  7  7  8  8  8  8  8  8  8  8  8  8  8  8  8  8  8
CENTRE ASSIGNMENTS    8  8  8  8  8  8  8  8  8  8  8  8  8  8  8  8  8  8  8  8
CENTRE ASSIGNMENTS    8  8  8  8  8  8  8  8  8  8  8  8  8  8  8  8  8  8  8  8
CENTRE ASSIGNMENTS    8  8  8  8  8  8  8  8  8  8  8  8  8  8  8  8  8  8  8  8
TYPE ASSIGNMENTS      1  1  1  1  1  1  1  1  1  1  1  1  1  1  1  1  1  1  1  2
TYPE ASSIGNMENTS      2  2  3  3  3  4  4  4  2  3  4  2  3  4  2  3  4  5  6  7
TYPE ASSIGNMENTS      8  9 10  5  6  7  8  9 10  5  6  7  8  9 10 11 12 13 17 14
TYPE ASSIGNMENTS     15 18 19 16 20 11 12 13 17 14 15 18 19 16 20  1  1  1  1  1
TYPE ASSIGNMENTS      1  1  1  1  1  1  1  1  1  1  1  1  1  1  2  2  2  3  3  3
TYPE ASSIGNMENTS      4  4  4  2  3  4  2  3  4  2  3  4  5  6  7  8  9 10  5  6
TYPE ASSIGNMENTS      7  8  9 10  5  6  7  8  9 10 11 12 13 17 14 15 18 19 16 20
TYPE ASSIGNMENTS     11 12 13 17 14 15 18 19 16 20  1  1  1  1  1  1  1  1  1  1
TYPE ASSIGNMENTS      1  1  1  1  1  1  1  1  1  2  2  2  3  3  3  4  4  4  2  3
TYPE ASSIGNMENTS      4  2  3  4  2  3  4  5  6  7  8  9 10  5  6  7  8  9 10  5
TYPE ASSIGNMENTS      6  7  8  9 10 11 12 13 17 14 15 18 19 16 20 11 12 13 17 14
TYPE ASSIGNMENTS     15 18 19 16 20  1  1  1  1  1  1  1  1  1  1  1  1  1  1  1
TYPE ASSIGNMENTS      1  1  1  1  2  2  2  3  3  3  4  4  4  2  3  4  2  3  4  2
TYPE ASSIGNMENTS      3  4  5  6  7  8  9 10  5  6  7  8  9 10  5  6  7  8  9 10
TYPE ASSIGNMENTS     11 12 13 17 14 15 18 19 16 20 11 12 13 17 14 15 18 19 16 20
TYPE ASSIGNMENTS      1  1  1  1  1  1  1  1  1  1  1  1  1  1  1  1  1  1  1  2
TYPE ASSIGNMENTS      2  2  3  3  3  4  4  4  2  3  4  2  3  4  2  3  4  5  6  7
TYPE ASSIGNMENTS      8  9 10  5  6  7  8  9 10  5  6  7  8  9 10 11 12 13 17 14
TYPE ASSIGNMENTS     15 18 19 16 20 11 12 13 17 14 15 18 19 16 20  1  1  1  1  1
TYPE ASSIGNMENTS      1  1  1  1  1  1  1  1  1  1  1  1  1  1  2  2  2  3  3  3
TYPE ASSIGNMENTS      4  4  4  2  3  4  2  3  4  2  3  4  5  6  7  8  9 10  5  6
TYPE ASSIGNMENTS      7  8  9 10  5  6  7  8  9 10 11 12 13 17 14 15 18 19 16 20
TYPE ASSIGNMENTS     11 12 13 17 14 15 18 19 16 20  1  1  1  1  1  1  1  1  1  1
TYPE ASSIGNMENTS      1  1  1  1  1  1  1  1  1  2  2  2  3  3  3  4  4  4  2  3
TYPE ASSIGNMENTS      4  2  3  4  2  3  4  5  6  7  8  9 10  5  6  7  8  9 10  5
TYPE ASSIGNMENTS      6  7  8  9 10 11 12 13 17 14 15 18 19 16 20 11 12 13 17 14
TYPE ASSIGNMENTS     15 18 19 16 20  1  1  1  1  1  1  1  1  1  1  1  1  1  1  1
TYPE ASSIGNMENTS      1  1  1  1  2  2  2  3  3  3  4  4  4  2  3  4  2  3  4  2
TYPE ASSIGNMENTS      3  4  5  6  7  8  9 10  5  6  7  8  9 10  5  6  7  8  9 10
TYPE ASSIGNMENTS     11 12 13 17 14 15 18 19 16 20 11 12 13 17 14 15 18 19 16 20
EXPONENTS  0.8236000D+04 0.1235000D+04 0.2808000D+03 0.7927000D+02 0.2559000D+02
EXPONENTS  0.8997000D+01 0.3319000D+01 0.3643000D+00 0.8236000D+04 0.1235000D+04
EXPONENTS  0.2808000D+03 0.7927000D+02 0.2559000D+02 0.8997000D+01 0.3319000D+01
EXPONENTS  0.3643000D+00 0.9059000D+00 0.1285000D+00 0.4402000D-01 0.1871000D+02
EXPONENTS  0.4133000D+01 0.1200000D+01 0.1871000D+02 0.4133000D+01 0.1200000D+01
EXPONENTS  0.1871000D+02 0.4133000D+01 0.1200000D+01 0.3827000D+00 0.3827000D+00
EXPONENTS  0.3827000D+00 0.1209000D+00 0.1209000D+00 0.1209000D+00 0.3569000D-01
EXPONENTS  0.3569000D-01 0.3569000D-01 0.1097000D+01 0.1097000D+01 0.1097000D+01
EXPONENTS  0.1097000D+01 0.1097000D+01 0.1097000D+01 0.3180000D+00 0.3180000D+00
EXPONENTS  0.3180000D+00 0.3180000D+00 0.3180000D+00 0.3180000D+00 0.1000000D+00
EXPONENTS  0.1000000D+00 0.1000000D+00 0.1000000D+00 0.1000000D+00 0.1000000D+00
EXPONENTS  0.7610000D+00 0.7610000D+00 0.7610000D+00 0.7610000D+00 0.7610000D+00
EXPONENTS  0.7610000D+00 0.7610000D+00 0.7610000D+00 0.7610000D+00 0.7610000D+00
EXPONENTS  0.2680000D+00 0.2680000D+00 0.2680000D+00 0.2680000D+00 0.2680000D+00
EXPONENTS  0.2680000D+00 0.2680000D+00 0.2680000D+00 0.2680000D+00 0.2680000D+00
EXPONENTS  0.8236000D+04 0.1235000D+04 0.2808000D+03 0.7927000D+02 0.2559000D+02
EXPONENTS  0.8997000D+01 0.3319000D+01 0.3643000D+00 0.8236000D+04 0.1235000D+04
EXPONENTS  0.2808000D+03 0.7927000D+02 0.2559000D+02 0.8997000D+01 0.3319000D+01
EXPONENTS  0.3643000D+00 0.9059000D+00 0.1285000D+00 0.4402000D-01 0.1871000D+02
EXPONENTS  0.4133000D+01 0.1200000D+01 0.1871000D+02 0.4133000D+01 0.1200000D+01
EXPONENTS  0.1871000D+02 0.4133000D+01 0.1200000D+01 0.3827000D+00 0.3827000D+00
EXPONENTS  0.3827000D+00 0.1209000D+00 0.1209000D+00 0.1209000D+00 0.3569000D-01
EXPONENTS  0.3569000D-01 0.3569000D-01 0.1097000D+01 0.1097000D+01 0.1097000D+01
EXPONENTS  0.1097000D+01 0.1097000D+01 0.1097000D+01 0.3180000D+00 0.3180000D+00
EXPONENTS  0.3180000D+00 0.3180000D+00 0.3180000D+00 0.3180000D+00 0.1000000D+00
EXPONENTS  0.1000000D+00 0.1000000D+00 0.1000000D+00 0.1000000D+00 0.1000000D+00
EXPONENTS  0.7610000D+00 0.7610000D+00 0.7610000D+00 0.7610000D+00 0.7610000D+00
EXPONENTS  0.7610000D+00 0.7610000D+00 0.7610000D+00 0.7610000D+00 0.7610000D+00
EXPONENTS  0.2680000D+00 0.2680000D+00 0.2680000D+00 0.2680000D+00 0.2680000D+00
EXPONENTS  0.2680000D+00 0.2680000D+00 0.2680000D+00 0.2680000D+00 0.2680000D+00
EXPONENTS  0.1950000D+05 0.2923000D+04 0.6645000D+03 0.1875000D+03 0.6062000D+02
EXPONENTS  0.2142000D+02 0.7950000D+01 0.8815000D+00 0.1950000D+05 0.2923000D+04
EXPONENTS  0.6645000D+03 0.1875000D+03 0.6062000D+02 0.2142000D+02 0.7950000D+01
EXPONENTS  0.8815000D+00 0.2257000D+01 0.3041000D+00 0.9158000D-01 0.4388000D+02
EXPONENTS  0.9926000D+01 0.2930000D+01 0.4388000D+02 0.9926000D+01 0.2930000D+01
EXPONENTS  0.4388000D+02 0.9926000D+01 0.2930000D+01 0.9132000D+00 0.9132000D+00
EXPONENTS  0.9132000D+00 0.2672000D+00 0.2672000D+00 0.2672000D+00 0.7361000D-01
EXPONENTS  0.7361000D-01 0.7361000D-01 0.3107000D+01 0.3107000D+01 0.3107000D+01
EXPONENTS  0.3107000D+01 0.3107000D+01 0.3107000D+01 0.8550000D+00 0.8550000D+00
EXPONENTS  0.8550000D+00 0.8550000D+00 0.8550000D+00 0.8550000D+00 0.2920000D+00
EXPONENTS  0.2920000D+00 0.2920000D+00 0.2920000D+00 0.2920000D+00 0.2920000D+00
EXPONENTS  0.1917000D+01 0.1917000D+01 0.1917000D+01 0.1917000D+01 0.1917000D+01
EXPONENTS  0.1917000D+01 0.1917000D+01 0.1917000D+01 0.1917000D+01 0.1917000D+01
EXPONENTS  0.7240000D+00 0.7240000D+00 0.7240000D+00 0.7240000D+00 0.7240000D+00
EXPONENTS  0.7240000D+00 0.7240000D+00 0.7240000D+00 0.7240000D+00 0.7240000D+00
EXPONENTS  0.1950000D+05 0.2923000D+04 0.6645000D+03 0.1875000D+03 0.6062000D+02
EXPONENTS  0.2142000D+02 0.7950000D+01 0.8815000D+00 0.1950000D+05 0.2923000D+04
EXPONENTS  0.6645000D+03 0.1875000D+03 0.6062000D+02 0.2142000D+02 0.7950000D+01
EXPONENTS  0.8815000D+00 0.2257000D+01 0.3041000D+00 0.9158000D-01 0.4388000D+02
EXPONENTS  0.9926000D+01 0.2930000D+01 0.4388000D+02 0.9926000D+01 0.2930000D+01
EXPONENTS  0.4388000D+02 0.9926000D+01 0.2930000D+01 0.9132000D+00 0.9132000D+00
EXPONENTS  0.9132000D+00 0.2672000D+00 0.2672000D+00 0.2672000D+00 0.7361000D-01
EXPONENTS  0.7361000D-01 0.7361000D-01 0.3107000D+01 0.3107000D+01 0.3107000D+01
EXPONENTS  0.3107000D+01 0.3107000D+01 0.3107000D+01 0.8550000D+00 0.8550000D+00
EXPONENTS  0.8550000D+00 0.8550000D+00 0.8550000D+00 0.8550000D+00 0.2920000D+00
EXPONENTS  0.2920000D+00 0.2920000D+00 0.2920000D+00 0.2920000D+00 0.2920000D+00
EXPONENTS  0.1917000D+01 0.1917000D+01 0.1917000D+01 0.1917000D+01 0.1917000D+01
EXPONENTS  0.1917000D+01 0.1917000D+01 0.1917000D+01 0.1917000D+01 0.1917000D+01
EXPONENTS  0.7240000D+00 0.7240000D+00 0.7240000D+00 0.7240000D+00 0.7240000D+00
EXPONENTS  0.7240000D+00 0.7240000D+00 0.7240000D+00 0.7240000D+00 0.7240000D+00
EXPONENTS  0.1950000D+05 0.2923000D+04 0.6645000D+03 0.1875000D+03 0.6062000D+02
EXPONENTS  0.2142000D+02 0.7950000D+01 0.8815000D+00 0.1950000D+05 0.2923000D+04
EXPONENTS  0.6645000D+03 0.1875000D+03 0.6062000D+02 0.2142000D+02 0.7950000D+01
EXPONENTS  0.8815000D+00 0.2257000D+01 0.3041000D+00 0.9158000D-01 0.4388000D+02
EXPONENTS  0.9926000D+01 0.2930000D+01 0.4388000D+02 0.9926000D+01 0.2930000D+01
EXPONENTS  0.4388000D+02 0.9926000D+01 0.2930000D+01 0.9132000D+00 0.9132000D+00
EXPONENTS  0.9132000D+00 0.2672000D+00 0.2672000D+00 0.2672000D+00 0.7361000D-01
EXPONENTS  0.7361000D-01 0.7361000D-01 0.3107000D+01 0.3107000D+01 0.3107000D+01
EXPONENTS  0.3107000D+01 0.3107000D+01 0.3107000D+01 0.8550000D+00 0.8550000D+00
EXPONENTS  0.8550000D+00 0.8550000D+00 0.8550000D+00 0.8550000D+00 0.2920000D+00
EXPONENTS  0.2920000D+00 0.2920000D+00 0.2920000D+00 0.2920000D+00 0.2920000D+00
EXPONENTS  0.1917000D+01 0.1917000D+01 0.1917000D+01 0.1917000D+01 0.1917000D+01
EXPONENTS  0.1917000D+01 0.1917000D+01 0.1917000D+01 0.1917000D+01 0.1917000D+01
EXPONENTS  0.7240000D+00 0.7240000D+00 0.7240000D+00 0.7240000D+00 0.7240000D+00
EXPONENTS  0.7240000D+00 0.7240000D+00 0.7240000D+00 0.7240000D+00 0.7240000D+00
EXPONENTS  0.1950000D+05 0.2923000D+04 0.6645000D+03 0.1875000D+03 0.6062000D+02
EXPONENTS  0.2142000D+02 0.7950000D+01 0.8815000D+00 0.1950000D+05 0.2923000D+04
EXPONENTS  0.6645000D+03 0.1875000D+03 0.6062000D+02 0.2142000D+02 0.7950000D+01
EXPONENTS  0.8815000D+00 0.2257000D+01 0.3041000D+00 0.9158000D-01 0.4388000D+02
EXPONENTS  0.9926000D+01 0.2930000D+01 0.4388000D+02 0.9926000D+01 0.2930000D+01
EXPONENTS  0.4388000D+02 0.9926000D+01 0.2930000D+01 0.9132000D+00 0.9132000D+00
EXPONENTS  0.9132000D+00 0.2672000D+00 0.2672000D+00 0.2672000D+00 0.7361000D-01
EXPONENTS  0.7361000D-01 0.7361000D-01 0.3107000D+01 0.3107000D+01 0.3107000D+01
EXPONENTS  0.3107000D+01 0.3107000D+01 0.3107000D+01 0.8550000D+00 0.8550000D+00
EXPONENTS  0.8550000D+00 0.8550000D+00 0.8550000D+00 0.8550000D+00 0.2920000D+00
EXPONENTS  0.2920000D+00 0.2920000D+00 0.2920000D+00 0.2920000D+00 0.2920000D+00
EXPONENTS  0.1917000D+01 0.1917000D+01 0.1917000D+01 0.1917000D+01 0.1917000D+01
EXPONENTS  0.1917000D+01 0.1917000D+01 0.1917000D+01 0.1917000D+01 0.1917000D+01
EXPONENTS  0.7240000D+00 0.7240000D+00 0.7240000D+00 0.7240000D+00 0.7240000D+00
EXPONENTS  0.7240000D+00 0.7240000D+00 0.7240000D+00 0.7240000D+00 0.7240000D+00
EXPONENTS  0.1950000D+05 0.2923000D+04 0.6645000D+03 0.1875000D+03 0.6062000D+02
EXPONENTS  0.2142000D+02 0.7950000D+01 0.8815000D+00 0.1950000D+05 0.2923000D+04
EXPONENTS  0.6645000D+03 0.1875000D+03 0.6062000D+02 0.2142000D+02 0.7950000D+01
EXPONENTS  0.8815000D+00 0.2257000D+01 0.3041000D+00 0.9158000D-01 0.4388000D+02
EXPONENTS  0.9926000D+01 0.2930000D+01 0.4388000D+02 0.9926000D+01 0.2930000D+01
EXPONENTS  0.4388000D+02 0.9926000D+01 0.2930000D+01 0.9132000D+00 0.9132000D+00
EXPONENTS  0.9132000D+00 0.2672000D+00 0.2672000D+00 0.2672000D+00 0.7361000D-01
EXPONENTS  0.7361000D-01 0.7361000D-01 0.3107000D+01 0.3107000D+01 0.3107000D+01
EXPONENTS  0.3107000D+01 0.3107000D+01 0.3107000D+01 0.8550000D+00 0.8550000D+00
EXPONENTS  0.8550000D+00 0.8550000D+00 0.8550000D+00 0.8550000D+00 0.2920000D+00
EXPONENTS  0.2920000D+00 0.2920000D+00 0.2920000D+00 0.2920000D+00 0.2920000D+00
EXPONENTS  0.1917000D+01 0.1917000D+01 0.1917000D+01 0.1917000D+01 0.1917000D+01
EXPONENTS  0.1917000D+01 0.1917000D+01 0.1917000D+01 0.1917000D+01 0.1917000D+01
EXPONENTS  0.7240000D+00 0.7240000D+00 0.7240000D+00 0.7240000D+00 0.7240000D+00
EXPONENTS  0.7240000D+00 0.7240000D+00 0.7240000D+00 0.7240000D+00 0.7240000D+00
EXPONENTS  0.1950000D+05 0.2923000D+04 0.6645000D+03 0.1875000D+03 0.6062000D+02
EXPONENTS  0.2142000D+02 0.7950000D+01 0.8815000D+00 0.1950000D+05 0.2923000D+04
EXPONENTS  0.6645000D+03 0.1875000D+03 0.6062000D+02 0.2142000D+02 0.7950000D+01
EXPONENTS  0.8815000D+00 0.2257000D+01 0.3041000D+00 0.9158000D-01 0.4388000D+02
EXPONENTS  0.9926000D+01 0.2930000D+01 0.4388000D+02 0.9926000D+01 0.2930000D+01
EXPONENTS  0.4388000D+02 0.9926000D+01 0.2930000D+01 0.9132000D+00 0.9132000D+00
EXPONENTS  0.9132000D+00 0.2672000D+00 0.2672000D+00 0.2672000D+00 0.7361000D-01
EXPONENTS  0.7361000D-01 0.7361000D-01 0.3107000D+01 0.3107000D+01 0.3107000D+01
EXPONENTS  0.3107000D+01 0.3107000D+01 0.3107000D+01 0.8550000D+00 0.8550000D+00
EXPONENTS  0.8550000D+00 0.8550000D+00 0.8550000D+00 0.8550000D+00 0.2920000D+00
EXPONENTS  0.2920000D+00 0.2920000D+00 0.2920000D+00 0.2920000D+00 0.2920000D+00
EXPONENTS  0.1917000D+01 0.1917000D+01 0.1917000D+01 0.1917000D+01 0.1917000D+01
EXPONENTS  0.1917000D+01 0.1917000D+01 0.1917000D+01 0.1917000D+01 0.1917000D+01
EXPONENTS  0.7240000D+00 0.7240000D+00 0.7240000D+00 0.7240000D+00 0.7240000D+00
EXPONENTS  0.7240000D+00 0.7240000D+00 0.7240000D+00 0.7240000D+00 0.7240000D+00
MO    1     MO 0.0        OCC NO =    2.0000000  ORB. ENERGY =  -26.379100
  0.26879520D-04  0.50109536D-04  0.84693944D-04  0.12732274D-03  0.15643070D-03
  0.13213073D-03  0.49834850D-04 -0.24663545D-06 -0.19843606D-04 -0.37153492D-04
 -0.63256999D-04 -0.97848959D-04 -0.12886364D-03 -0.13389757D-03 -0.85085896D-04
  0.57022589D-04 -0.58810937D-04 -0.86742367D-04  0.13450082D-05  0.43338236D-05
  0.40632351D-05  0.28932654D-05  0.18074808D-03  0.16946282D-03  0.12066762D-03
 -0.41879377D-04 -0.39264578D-04 -0.27958719D-04  0.19671364D-04 -0.34640834D-03
  0.79579560D-04 -0.26710168D-04  0.36935278D-03 -0.85282427D-04 -0.40104223D-06
 -0.54531650D-05  0.12873560D-05 -0.33390704D-04  0.18638697D-03 -0.15299627D-03
  0.25250007D-03 -0.62946701D-04 -0.19681999D-03 -0.36491773D-04  0.32187764D-03
 -0.28538586D-03  0.55929887D-03 -0.13830267D-03 -0.35429155D-03 -0.20700030D-05
 -0.10324830D-04  0.12394833D-04  0.31492814D-04 -0.67765355D-05  0.12250657D-04
  0.19888832D-04 -0.11497526D-03 -0.17394953D-04 -0.33734548D-03  0.32898122D-03
 -0.67347844D-04  0.27767899D-03  0.15944553D-04  0.11953270D-03  0.33926376D-03
 -0.19048983D-05 -0.27707393D-04 -0.11014628D-05 -0.10601055D-03  0.93906049D-04
 -0.17626264D-04  0.11172524D-03 -0.10783870D-04  0.20930653D-04  0.11987735D-03
  0.26879519D-04  0.50109536D-04  0.84693943D-04  0.12732274D-03  0.15643069D-03
  0.13213073D-03  0.49834850D-04 -0.24663545D-06 -0.19843606D-04 -0.37153491D-04
 -0.63256998D-04 -0.97848957D-04 -0.12886363D-03 -0.13389757D-03 -0.85085895D-04
  0.57022588D-04 -0.58810937D-04 -0.86742363D-04  0.13450082D-05 -0.43338233D-05
 -0.40632348D-05 -0.28932653D-05 -0.18074808D-03 -0.16946281D-03 -0.12066762D-03
  0.41879376D-04  0.39264577D-04  0.27958718D-04 -0.19671365D-04  0.34640833D-03
 -0.79579559D-04  0.26710167D-04 -0.36935277D-03  0.85282426D-04  0.40104223D-06
  0.54531650D-05 -0.12873560D-05 -0.33390703D-04  0.18638697D-03 -0.15299626D-03
  0.25250007D-03 -0.62946700D-04 -0.19681998D-03 -0.36491773D-04  0.32187763D-03
 -0.28538586D-03  0.55929886D-03 -0.13830267D-03 -0.35429155D-03 -0.20700030D-05
 -0.10324829D-04  0.12394832D-04  0.31492815D-04 -0.67765355D-05  0.12250657D-04
 -0.19888831D-04  0.11497526D-03  0.17394952D-04  0.33734548D-03 -0.32898122D-03
  0.67347844D-04 -0.27767899D-03 -0.15944551D-04 -0.11953270D-03 -0.33926376D-03
  0.19048982D-05  0.27707393D-04  0.11014628D-05  0.10601055D-03 -0.93906049D-04
  0.17626264D-04 -0.11172524D-03  0.10783870D-04 -0.20930653D-04 -0.11987735D-03
 -0.12347341D+00 -0.23015979D+00 -0.39017743D+00 -0.59084362D+00 -0.73885203D+00
 -0.63608277D+00 -0.24453344D+00  0.10596034D-02 -0.10188565D-03 -0.19132321D-03
 -0.32579042D-03 -0.51034877D-03 -0.68392739D-03 -0.73565612D-03 -0.44168697D-03
  0.29047193D-03 -0.11966020D-01 -0.73478729D-04 -0.46816101D-04 -0.68818479D-03
 -0.67302969D-03 -0.44469917D-03  0.14019323D-02  0.13710592D-02  0.90591677D-03
  0.13027887D-02  0.12740989D-02  0.84185098D-03  0.13511994D-03 -0.36289608D-03
 -0.27984500D-03 -0.24401653D-05 -0.20443336D-03  0.67893565D-04 -0.61663238D-05
  0.74216758D-05 -0.23629646D-05  0.30162240D-04 -0.12425768D-03  0.94095445D-04
  0.57218273D-04 -0.14739398D-03  0.38528244D-05 -0.67597350D-04  0.10594213D-03
 -0.38344777D-04 -0.12454190D-03 -0.23247435D-05  0.18239530D-03 -0.10561810D-04
  0.61763329D-04 -0.51201518D-04  0.75697900D-05 -0.32456795D-04  0.33028779D-04
  0.33276328D-04 -0.32078227D-04 -0.37596033D-04 -0.43751760D-04 -0.21452676D-04
  0.21467269D-03 -0.56077225D-04  0.11768736D-03 -0.10188459D-03  0.16909032D-03
 -0.19620867D-04 -0.10698861D-04  0.36436960D-04  0.45086307D-04  0.38959832D-04
 -0.63383030D-04  0.13776294D-04 -0.68632478D-05 -0.45927850D-04 -0.28589604D-04
 -0.12347341D+00 -0.23015979D+00 -0.39017743D+00 -0.59084362D+00 -0.73885202D+00
 -0.63608277D+00 -0.24453344D+00  0.10596034D-02 -0.10188565D-03 -0.19132320D-03
 -0.32579042D-03 -0.51034876D-03 -0.68392738D-03 -0.73565612D-03 -0.44168697D-03
  0.29047193D-03 -0.11966020D-01 -0.73478729D-04 -0.46816100D-04  0.68818478D-03
  0.67302969D-03  0.44469917D-03 -0.14019323D-02 -0.13710592D-02 -0.90591676D-03
 -0.13027887D-02 -0.12740988D-02 -0.84185098D-03 -0.13511994D-03  0.36289608D-03
  0.27984500D-03  0.24401649D-05  0.20443336D-03 -0.67893564D-04  0.61663238D-05
 -0.74216757D-05  0.23629645D-05  0.30162240D-04 -0.12425768D-03  0.94095444D-04
  0.57218273D-04 -0.14739398D-03  0.38528249D-05 -0.67597350D-04  0.10594213D-03
 -0.38344777D-04 -0.12454190D-03 -0.23247433D-05  0.18239530D-03 -0.10561810D-04
  0.61763328D-04 -0.51201518D-04  0.75697901D-05 -0.32456795D-04  0.33028779D-04
 -0.33276328D-04  0.32078226D-04  0.37596034D-04  0.43751759D-04  0.21452677D-04
 -0.21467269D-03  0.56077225D-04 -0.11768736D-03  0.10188459D-03 -0.16909032D-03
  0.19620867D-04  0.10698861D-04 -0.36436960D-04 -0.45086307D-04 -0.38959832D-04
  0.63383031D-04 -0.13776294D-04  0.68632481D-05  0.45927850D-04  0.28589604D-04
 -0.11188299D+00 -0.20855473D+00 -0.35355154D+00 -0.53538123D+00 -0.66949611D+00
 -0.57637379D+00 -0.22157913D+00  0.96013863D-03 -0.92066208D-04 -0.17288403D-03
 -0.29439169D-03 -0.46116284D-03 -0.61801246D-03 -0.66475573D-03 -0.39911847D-03
  0.26247710D-03 -0.10842836D-01 -0.61740732D-04 -0.43769018D-04 -0.66786130D-03
 -0.65315377D-03 -0.43156631D-03  0.57819603D-03  0.56546309D-03  0.37362537D-03
 -0.16207001D-02 -0.15850093D-02 -0.10472827D-02  0.13096132D-03 -0.17846551D-03
  0.37504625D-03 -0.85278504D-06 -0.21470508D-03  0.32331555D-04 -0.56981906D-05
  0.77927214D-05 -0.96326549D-06  0.32482388D-04 -0.77570972D-04  0.45088585D-04
  0.12758429D-03  0.10070854D-03  0.18115401D-03 -0.61496283D-04  0.34452782D-05
  0.58051005D-04 -0.11306740D-03  0.57258160D-04 -0.21274298D-03 -0.89526192D-05
  0.23319990D-04 -0.14367371D-04  0.19970232D-04  0.23916476D-04 -0.11487399D-03
  0.25784053D-04  0.46237753D-04  0.39330396D-05 -0.10268784D-03 -0.13363311D-03
 -0.17590229D-03  0.25335684D-04 -0.50801508D-05  0.16410317D-03 -0.84527622D-04
 -0.16792221D-04  0.29986165D-05 -0.13273369D-04  0.47295284D-04  0.67767370D-04
  0.39263632D-04  0.30813802D-05 -0.76763219D-04  0.55647383D-06 -0.20769816D-04
 -0.11188298D+00 -0.20855473D+00 -0.35355154D+00 -0.53538123D+00 -0.66949611D+00
 -0.57637379D+00 -0.22157913D+00  0.96013862D-03 -0.92066207D-04 -0.17288403D-03
 -0.29439169D-03 -0.46116284D-03 -0.61801246D-03 -0.66475572D-03 -0.39911846D-03
  0.26247709D-03 -0.10842836D-01 -0.61740731D-04 -0.43769017D-04  0.66786129D-03
  0.65315376D-03  0.43156630D-03 -0.57819602D-03 -0.56546308D-03 -0.37362537D-03
  0.16207001D-02  0.15850093D-02  0.10472827D-02 -0.13096132D-03  0.17846551D-03
 -0.37504624D-03  0.85278452D-06  0.21470507D-03 -0.32331555D-04  0.56981906D-05
 -0.77927214D-05  0.96326544D-06  0.32482387D-04 -0.77570972D-04  0.45088584D-04
  0.12758429D-03  0.10070854D-03  0.18115401D-03 -0.61496282D-04  0.34452784D-05
  0.58051004D-04 -0.11306740D-03  0.57258160D-04 -0.21274298D-03 -0.89526189D-05
  0.23319989D-04 -0.14367370D-04  0.19970232D-04  0.23916476D-04 -0.11487399D-03
 -0.25784053D-04 -0.46237754D-04 -0.39330397D-05  0.10268784D-03  0.13363311D-03
  0.17590229D-03 -0.25335684D-04  0.50801504D-05 -0.16410317D-03  0.84527622D-04
  0.16792221D-04 -0.29986162D-05  0.13273369D-04 -0.47295283D-04 -0.67767370D-04
 -0.39263633D-04 -0.30813800D-05  0.76763219D-04 -0.55647349D-06  0.20769816D-04
  0.38666314D+00  0.72075685D+00  0.12218600D+01  0.18502562D+01  0.23137519D+01
  0.19919249D+01  0.76576864D+00 -0.33182009D-02  0.32233526D-03  0.60528854D-03
  0.10307020D-02  0.16145886D-02  0.21637386D-02  0.23273926D-02  0.13973635D-02
 -0.91896502D-03  0.37457906D-01  0.48987918D-03  0.10908738D-03  0.20382182D-02
  0.19933329D-02  0.13170793D-02  0.57075477D-02  0.55818570D-02  0.36881689D-02
 -0.14771744D-02 -0.14446443D-02 -0.95453757D-03 -0.45140333D-03 -0.12724759D-02
  0.32811173D-03  0.10149620D-03 -0.65702184D-04  0.97639316D-05  0.14719247D-04
  0.11213392D-04 -0.29395393D-05 -0.44272918D-04 -0.66320669D-05  0.50904985D-04
 -0.14893971D-03  0.44795788D-04  0.40646042D-04  0.17329582D-03 -0.32059178D-03
  0.14729596D-03 -0.29127860D-03  0.71736217D-04  0.25457680D-03  0.22261839D-04
 -0.24934943D-04  0.26731039D-05  0.17896472D-04 -0.45093733D-05  0.11329377D-04
 -0.17032914D-04 -0.40738317D-04 -0.57380059D-05 -0.13118951D-03  0.11386467D-03
 -0.25091096D-04  0.18228825D-03  0.83502790D-05  0.42305113D-04  0.16659602D-03
  0.28586845D-04 -0.19342609D-04 -0.12151388D-04 -0.34643489D-04  0.15928209D-04
 -0.55034468D-05 -0.51117045D-04  0.42099618D-04  0.41957610D-04 -0.84330161D-05
  0.38666314D+00  0.72075684D+00  0.12218600D+01  0.18502562D+01  0.23137519D+01
  0.19919248D+01  0.76576863D+00 -0.33182008D-02  0.32233526D-03  0.60528853D-03
  0.10307020D-02  0.16145886D-02  0.21637386D-02  0.23273926D-02  0.13973635D-02
 -0.91896501D-03  0.37457905D-01  0.48987917D-03  0.10908737D-03 -0.20382182D-02
 -0.19933328D-02 -0.13170793D-02 -0.57075477D-02 -0.55818570D-02 -0.36881689D-02
  0.14771744D-02  0.14446443D-02  0.95453757D-03  0.45140333D-03  0.12724759D-02
 -0.32811173D-03 -0.10149620D-03  0.65702184D-04 -0.97639316D-05 -0.14719247D-04
 -0.11213392D-04  0.29395392D-05 -0.44272918D-04 -0.66320671D-05  0.50904985D-04
 -0.14893971D-03  0.44795787D-04  0.40646042D-04  0.17329581D-03 -0.32059178D-03
  0.14729596D-03 -0.29127860D-03  0.71736216D-04  0.25457680D-03  0.22261838D-04
 -0.24934942D-04  0.26731040D-05  0.17896472D-04 -0.45093733D-05  0.11329377D-04
  0.17032913D-04  0.40738316D-04  0.57380058D-05  0.13118951D-03 -0.11386467D-03
  0.25091096D-04 -0.18228825D-03 -0.83502789D-05 -0.42305113D-04 -0.16659602D-03
 -0.28586844D-04  0.19342609D-04  0.12151388D-04  0.34643488D-04 -0.15928208D-04
  0.55034467D-05  0.51117044D-04 -0.42099618D-04 -0.41957609D-04  0.84330161D-05
MO    2     MO 0.0        OCC NO =    2.0000000  ORB. ENERGY =  -26.379097
 -0.33092461D-04 -0.61691872D-04 -0.10427013D-03 -0.15675216D-03 -0.19258814D-03
 -0.16267147D-03 -0.61353695D-04  0.30364286D-06  0.25124493D-04  0.47040978D-04
  0.80091291D-04  0.12388905D-03  0.16315752D-03  0.16953111D-03  0.10772941D-03
 -0.72197746D-04  0.40947627D-04  0.48492876D-03 -0.29200561D-05 -0.26233092D-04
 -0.24595191D-04 -0.17513241D-04 -0.27237152D-03 -0.25536561D-03 -0.18183553D-03
  0.63817063D-04  0.59832553D-04  0.42604342D-04  0.98320234D-04  0.53982582D-03
 -0.12767906D-03  0.86885404D-04 -0.22466240D-03  0.51115335D-04 -0.22277534D-06
  0.22071776D-05 -0.51425129D-06  0.47528896D-04 -0.22491911D-03  0.17739022D-03
 -0.24994794D-03  0.62818672D-04  0.23175775D-03  0.71513190D-04 -0.27565499D-03
  0.20414180D-03 -0.16683860D-03  0.43588190D-04  0.27409984D-03  0.36797830D-05
  0.16486418D-04 -0.20166201D-04  0.89832362D-05 -0.29443964D-05 -0.20813849D-04
 -0.36450150D-04  0.59160777D-04  0.42336479D-04  0.40722536D-03 -0.66245541D-04
  0.65976868D-05 -0.29787491D-03 -0.11123679D-03 -0.13360712D-03 -0.40289046D-03
  0.13540750D-04  0.15307896D-04  0.31185426D-06  0.10010283D-03 -0.58176047D-04
  0.78076431D-05 -0.14072508D-03  0.12252359D-04 -0.87432058D-05 -0.13354050D-03
  0.33092461D-04  0.61691872D-04  0.10427013D-03  0.15675216D-03  0.19258814D-03
  0.16267147D-03  0.61353695D-04 -0.30364286D-06 -0.25124493D-04 -0.47040979D-04
 -0.80091291D-04 -0.12388905D-03 -0.16315752D-03 -0.16953111D-03 -0.10772941D-03
  0.72197747D-04 -0.40947627D-04 -0.48492876D-03  0.29200561D-05 -0.26233092D-04
 -0.24595191D-04 -0.17513241D-04 -0.27237152D-03 -0.25536562D-03 -0.18183553D-03
  0.63817064D-04  0.59832554D-04  0.42604343D-04  0.98320234D-04  0.53982583D-03
 -0.12767906D-03  0.86885404D-04 -0.22466240D-03  0.51115336D-04 -0.22277533D-06
  0.22071776D-05 -0.51425131D-06 -0.47528896D-04  0.22491911D-03 -0.17739022D-03
  0.24994794D-03 -0.62818673D-04 -0.23175775D-03 -0.71513191D-04  0.27565499D-03
 -0.20414180D-03  0.16683860D-03 -0.43588192D-04 -0.27409984D-03 -0.36797830D-05
 -0.16486418D-04  0.20166201D-04 -0.89832359D-05  0.29443963D-05  0.20813849D-04
 -0.36450151D-04  0.59160778D-04  0.42336479D-04  0.40722537D-03 -0.66245544D-04
  0.65976875D-05 -0.29787492D-03 -0.11123679D-03 -0.13360712D-03 -0.40289046D-03
  0.13540750D-04  0.15307896D-04  0.31185427D-06  0.10010283D-03 -0.58176048D-04
  0.78076432D-05 -0.14072508D-03  0.12252360D-04 -0.87432060D-05 -0.13354050D-03
  0.11744083D+00  0.21891479D+00  0.37111439D+00  0.56197657D+00  0.70275367D+00
  0.60500545D+00  0.23258618D+00 -0.10078340D-02  0.10592922D-03  0.19891632D-03
  0.33872019D-03  0.53060317D-03  0.71107067D-03  0.76485238D-03  0.45921637D-03
 -0.30200000D-03  0.11393538D-01  0.59898302D-04  0.85594638D-04  0.68845853D-03
  0.67329741D-03  0.44487606D-03 -0.12934988D-02 -0.12650135D-02 -0.83584793D-03
 -0.12777964D-02 -0.12496570D-02 -0.82570118D-03 -0.17209716D-03  0.29506619D-03
  0.30307735D-03  0.56017068D-04  0.21730664D-03 -0.12071961D-03  0.22171669D-05
 -0.12044311D-04  0.16749105D-06 -0.17763767D-04  0.13013216D-03 -0.11236840D-03
  0.47056990D-04  0.11508772D-03  0.61208277D-04  0.46261832D-04 -0.95751821D-04
  0.49489989D-04  0.53907268D-04  0.36146665D-04 -0.18957232D-03  0.26882609D-04
 -0.81365874D-04  0.54483265D-04  0.14511876D-04 -0.22235687D-04 -0.16682507D-04
 -0.65201177D-04  0.62269770D-04 -0.26297906D-04  0.99306304D-04 -0.18264913D-03
  0.11756572D-03  0.96297227D-04 -0.41601841D-05 -0.38672001D-04 -0.49129528D-04
  0.24453702D-04  0.49044973D-05 -0.18352452D-04 -0.54498718D-04  0.11800320D-04
 -0.43302121D-04 -0.18862389D-04 -0.26513812D-04  0.98359478D-04  0.12769033D-04
 -0.11744083D+00 -0.21891480D+00 -0.37111440D+00 -0.56197657D+00 -0.70275368D+00
 -0.60500545D+00 -0.23258618D+00  0.10078340D-02 -0.10592922D-03 -0.19891632D-03
 -0.33872019D-03 -0.53060318D-03 -0.71107068D-03 -0.76485239D-03 -0.45921637D-03
  0.30200001D-03 -0.11393538D-01 -0.59898303D-04 -0.85594638D-04  0.68845854D-03
  0.67329741D-03  0.44487607D-03 -0.12934988D-02 -0.12650135D-02 -0.83584793D-03
 -0.12777964D-02 -0.12496570D-02 -0.82570119D-03 -0.17209716D-03  0.29506619D-03
  0.30307735D-03  0.56017069D-04  0.21730665D-03 -0.12071961D-03  0.22171669D-05
 -0.12044311D-04  0.16749107D-06  0.17763768D-04 -0.13013216D-03  0.11236840D-03
 -0.47056990D-04 -0.11508772D-03 -0.61208277D-04 -0.46261833D-04  0.95751822D-04
 -0.49489990D-04 -0.53907269D-04 -0.36146665D-04  0.18957232D-03 -0.26882609D-04
  0.81365875D-04 -0.54483266D-04 -0.14511876D-04  0.22235686D-04  0.16682508D-04
 -0.65201177D-04  0.62269771D-04 -0.26297906D-04  0.99306305D-04 -0.18264913D-03
  0.11756572D-03  0.96297228D-04 -0.41601852D-05 -0.38672000D-04 -0.49129529D-04
  0.24453702D-04  0.49044974D-05 -0.18352453D-04 -0.54498718D-04  0.11800320D-04