 Molden2AIM, Version 4.0.0 (06/02/2016)           Time: Wed Jun 27 22:10:00 2018
GAUSSIAN             21 MOL ORBITALS    504 PRIMITIVES        8 NUCLEI
  H    1    (CENTRE  1)   0.00000000  0.00000000 -4.44085072  CHARGE =  1.0
  H    2    (CENTRE  2)   0.00000000  0.00000000  4.44085072  CHARGE =  1.0
  C    3    (CENTRE  3)   0.00000000  0.00000000  2.38117964  CHARGE =  6.0
  C    4    (CENTRE  4)   0.00000000  0.00000000 -2.38117964  CHARGE =  6.0
  N    5    (CENTRE  5)   0.00000000  2.25199229  1.24185053  CHARGE =  7.0
  N    6    (CENTRE  6)   0.00000000 -2.25199229  1.24185053  CHARGE =  7.0
  N    7    (CENTRE  7)   0.00000000  2.25199229 -1.24185053  CHARGE =  7.0
  N    8    (CENTRE  8)   0.00000000 -2.25199229 -1.24185053  CHARGE =  7.0
CENTRE ASSIGNMENTS    1  1  1  1  1  1  1  1  1  1  1  1  1  1  1  1  1  1  1  1
CENTRE ASSIGNMENTS    1  1  1  1  1  1  1  2  2  2  2  2  2  2  2  2  2  2  2  2
CENTRE ASSIGNMENTS    2  2  2  2  2  2  2  2  2  2  2  2  2  2  3  3  3  3  3  3
CENTRE ASSIGNMENTS    3  3  3  3  3  3  3  3  3  3  3  3  3  3  3  3  3  3  3  3
CENTRE ASSIGNMENTS    3  3  3  3  3  3  3  3  3  3  3  3  3  3  3  3  3  3  3  3
CENTRE ASSIGNMENTS    3  3  3  3  3  3  3  3  3  3  3  3  3  3  3  3  3  3  3  3
CENTRE ASSIGNMENTS    3  3  3  3  3  3  3  3  3  4  4  4  4  4  4  4  4  4  4  4
CENTRE ASSIGNMENTS    4  4  4  4  4  4  4  4  4  4  4  4  4  4  4  4  4  4  4  4
CENTRE ASSIGNMENTS    4  4  4  4  4  4  4  4  4  4  4  4  4  4  4  4  4  4  4  4
CENTRE ASSIGNMENTS    4  4  4  4  4  4  4  4  4  4  4  4  4  4  4  4  4  4  4  4
CENTRE ASSIGNMENTS    4  4  4  4  5  5  5  5  5  5  5  5  5  5  5  5  5  5  5  5
CENTRE ASSIGNMENTS    5  5  5  5  5  5  5  5  5  5  5  5  5  5  5  5  5  5  5  5
CENTRE ASSIGNMENTS    5  5  5  5  5  5  5  5  5  5  5  5  5  5  5  5  5  5  5  5
CENTRE ASSIGNMENTS    5  5  5  5  5  5  5  5  5  5  5  5  5  5  5  5  5  5  5  6
CENTRE ASSIGNMENTS    6  6  6  6  6  6  6  6  6  6  6  6  6  6  6  6  6  6  6  6
CENTRE ASSIGNMENTS    6  6  6  6  6  6  6  6  6  6  6  6  6  6  6  6  6  6  6  6
CENTRE ASSIGNMENTS    6  6  6  6  6  6  6  6  6  6  6  6  6  6  6  6  6  6  6  6
CENTRE ASSIGNMENTS    6  6  6  6  6  6  6  6  6  6  6  6  6  6  7  7  7  7  7  7
CENTRE ASSIGNMENTS    7  7  7  7  7  7  7  7  7  7  7  7  7  7  7  7  7  7  7  7
CENTRE ASSIGNMENTS    7  7  7  7  7  7  7  7  7  7  7  7  7  7  7  7  7  7  7  7
CENTRE ASSIGNMENTS    7  7  7  7  7  7  7  7  7  7  7  7  7  7  7  7  7  7  7  7
CENTRE ASSIGNMENTS    7  7  7  7  7  7  7  7  7  8  8  8  8  8  8  8  8  8  8  8
CENTRE ASSIGNMENTS    8  8  8  8  8  8  8  8  8  8  8  8  8  8  8  8  8  8  8  8
CENTRE ASSIGNMENTS    8  8  8  8  8  8  8  8  8  8  8  8  8  8  8  8  8  8  8  8
CENTRE ASSIGNMENTS    8  8  8  8  8  8  8  8  8  8  8  8  8  8  8  8  8  8  8  8
CENTRE ASSIGNMENTS    8  8  8  8
TYPE ASSIGNMENTS      1  1  1  1  1  1  2  3  4  2  3  4  2  3  4  5  6  7  8  9
TYPE ASSIGNMENTS     10  5  6  7  8  9 10  1  1  1  1  1  1  2  3  4  2  3  4  2
TYPE ASSIGNMENTS      3  4  5  6  7  8  9 10  5  6  7  8  9 10  1  1  1  1  1  1
TYPE ASSIGNMENTS      1  1  1  1  1  1  1  1  1  1  1  1  1  2  2  2  3  3  3  4
TYPE ASSIGNMENTS      4  4  2  3  4  2  3  4  2  3  4  5  6  7  8  9 10  5  6  7
TYPE ASSIGNMENTS      8  9 10  5  6  7  8  9 10 11 12 13 17 14 15 18 19 16 20 11
TYPE ASSIGNMENTS     12 13 17 14 15 18 19 16 20  1  1  1  1  1  1  1  1  1  1  1
TYPE ASSIGNMENTS      1  1  1  1  1  1  1  1  2  2  2  3  3  3  4  4  4  2  3  4
TYPE ASSIGNMENTS      2  3  4  2  3  4  5  6  7  8  9 10  5  6  7  8  9 10  5  6
TYPE ASSIGNMENTS      7  8  9 10 11 12 13 17 14 15 18 19 16 20 11 12 13 17 14 15
TYPE ASSIGNMENTS     18 19 16 20  1  1  1  1  1  1  1  1  1  1  1  1  1  1  1  1
TYPE ASSIGNMENTS      1  1  1  2  2  2  3  3  3  4  4  4  2  3  4  2  3  4  2  3
TYPE ASSIGNMENTS      4  5  6  7  8  9 10  5  6  7  8  9 10  5  6  7  8  9 10 11
TYPE ASSIGNMENTS     12 13 17 14 15 18 19 16 20 11 12 13 17 14 15 18 19 16 20  1
TYPE ASSIGNMENTS      1  1  1  1  1  1  1  1  1  1  1  1  1  1  1  1  1  1  2  2
TYPE ASSIGNMENTS      2  3  3  3  4  4  4  2  3  4  2  3  4  2  3  4  5  6  7  8
TYPE ASSIGNMENTS      9 10  5  6  7  8  9 10  5  6  7  8  9 10 11 12 13 17 14 15
TYPE ASSIGNMENTS     18 19 16 20 11 12 13 17 14 15 18 19 16 20  1  1  1  1  1  1
TYPE ASSIGNMENTS      1  1  1  1  1  1  1  1  1  1  1  1  1  2  2  2  3  3  3  4
TYPE ASSIGNMENTS      4  4  2  3  4  2  3  4  2  3  4  5  6  7  8  9 10  5  6  7
TYPE ASSIGNMENTS      8  9 10  5  6  7  8  9 10 11 12 13 17 14 15 18 19 16 20 11
TYPE ASSIGNMENTS     12 13 17 14 15 18 19 16 20  1  1  1  1  1  1  1  1  1  1  1
TYPE ASSIGNMENTS      1  1  1  1  1  1  1  1  2  2  2  3  3  3  4  4  4  2  3  4
TYPE ASSIGNMENTS      2  3  4  2  3  4  5  6  7  8  9 10  5  6  7  8  9 10  5  6
TYPE ASSIGNMENTS      7  8  9 10 11 12 13 17 14 15 18 19 16 20 11 12 13 17 14 15
TYPE ASSIGNMENTS     18 19 16 20
EXPONENTS  0.3387000D+02 0.5095000D+01 0.1159000D+01 0.3258000D+00 0.1027000D+00
EXPONENTS  0.2526000D-01 0.1407000D+01 0.1407000D+01 0.1407000D+01 0.3880000D+00
EXPONENTS  0.3880000D+00 0.3880000D+00 0.1020000D+00 0.1020000D+00 0.1020000D+00
EXPONENTS  0.1057000D+01 0.1057000D+01 0.1057000D+01 0.1057000D+01 0.1057000D+01
EXPONENTS  0.1057000D+01 0.2470000D+00 0.2470000D+00 0.2470000D+00 0.2470000D+00
EXPONENTS  0.2470000D+00 0.2470000D+00 0.3387000D+02 0.5095000D+01 0.1159000D+01
EXPONENTS  0.3258000D+00 0.1027000D+00 0.2526000D-01 0.1407000D+01 0.1407000D+01
EXPONENTS  0.1407000D+01 0.3880000D+00 0.3880000D+00 0.3880000D+00 0.1020000D+00
EXPONENTS  0.1020000D+00 0.1020000D+00 0.1057000D+01 0.1057000D+01 0.1057000D+01
EXPONENTS  0.1057000D+01 0.1057000D+01 0.1057000D+01 0.2470000D+00 0.2470000D+00
EXPONENTS  0.2470000D+00 0.2470000D+00 0.2470000D+00 0.2470000D+00 0.8236000D+04
EXPONENTS  0.1235000D+04 0.2808000D+03 0.7927000D+02 0.2559000D+02 0.8997000D+01
EXPONENTS  0.3319000D+01 0.3643000D+00 0.8236000D+04 0.1235000D+04 0.2808000D+03
EXPONENTS  0.7927000D+02 0.2559000D+02 0.8997000D+01 0.3319000D+01 0.3643000D+00
EXPONENTS  0.9059000D+00 0.1285000D+00 0.4402000D-01 0.1871000D+02 0.4133000D+01
EXPONENTS  0.1200000D+01 0.1871000D+02 0.4133000D+01 0.1200000D+01 0.1871000D+02
EXPONENTS  0.4133000D+01 0.1200000D+01 0.3827000D+00 0.3827000D+00 0.3827000D+00
EXPONENTS  0.1209000D+00 0.1209000D+00 0.1209000D+00 0.3569000D-01 0.3569000D-01
EXPONENTS  0.3569000D-01 0.1097000D+01 0.1097000D+01 0.1097000D+01 0.1097000D+01
EXPONENTS  0.1097000D+01 0.1097000D+01 0.3180000D+00 0.3180000D+00 0.3180000D+00
EXPONENTS  0.3180000D+00 0.3180000D+00 0.3180000D+00 0.1000000D+00 0.1000000D+00
EXPONENTS  0.1000000D+00 0.1000000D+00 0.1000000D+00 0.1000000D+00 0.7610000D+00
EXPONENTS  0.7610000D+00 0.7610000D+00 0.7610000D+00 0.7610000D+00 0.7610000D+00
EXPONENTS  0.7610000D+00 0.7610000D+00 0.7610000D+00 0.7610000D+00 0.2680000D+00
EXPONENTS  0.2680000D+00 0.2680000D+00 0.2680000D+00 0.2680000D+00 0.2680000D+00
EXPONENTS  0.2680000D+00 0.2680000D+00 0.2680000D+00 0.2680000D+00 0.8236000D+04
EXPONENTS  0.1235000D+04 0.2808000D+03 0.7927000D+02 0.2559000D+02 0.8997000D+01
EXPONENTS  0.3319000D+01 0.3643000D+00 0.8236000D+04 0.1235000D+04 0.2808000D+03
EXPONENTS  0.7927000D+02 0.2559000D+02 0.8997000D+01 0.3319000D+01 0.3643000D+00
EXPONENTS  0.9059000D+00 0.1285000D+00 0.4402000D-01 0.1871000D+02 0.4133000D+01
EXPONENTS  0.1200000D+01 0.1871000D+02 0.4133000D+01 0.1200000D+01 0.1871000D+02
EXPONENTS  0.4133000D+01 0.1200000D+01 0.3827000D+00 0.3827000D+00 0.3827000D+00
EXPONENTS  0.1209000D+00 0.1209000D+00 0.1209000D+00 0.3569000D-01 0.3569000D-01
EXPONENTS  0.3569000D-01 0.1097000D+01 0.1097000D+01 0.1097000D+01 0.1097000D+01
EXPONENTS  0.1097000D+01 0.1097000D+01 0.3180000D+00 0.3180000D+00 0.3180000D+00
EXPONENTS  0.3180000D+00 0.3180000D+00 0.3180000D+00 0.1000000D+00 0.1000000D+00
EXPONENTS  0.1000000D+00 0.1000000D+00 0.1000000D+00 0.1000000D+00 0.7610000D+00
EXPONENTS  0.7610000D+00 0.7610000D+00 0.7610000D+00 0.7610000D+00 0.7610000D+00
EXPONENTS  0.7610000D+00 0.7610000D+00 0.7610000D+00 0.7610000D+00 0.2680000D+00
EXPONENTS  0.2680000D+00 0.2680000D+00 0.2680000D+00 0.2680000D+00 0.2680000D+00
EXPONENTS  0.2680000D+00 0.2680000D+00 0.2680000D+00 0.2680000D+00 0.1142000D+05
EXPONENTS  0.1712000D+04 0.3893000D+03 0.1100000D+03 0.3557000D+02 0.1254000D+02
EXPONENTS  0.4644000D+01 0.5118000D+00 0.1142000D+05 0.1712000D+04 0.3893000D+03
EXPONENTS  0.1100000D+03 0.3557000D+02 0.1254000D+02 0.4644000D+01 0.5118000D+00
EXPONENTS  0.1293000D+01 0.1787000D+00 0.5760000D-01 0.2663000D+02 0.5948000D+01
EXPONENTS  0.1742000D+01 0.2663000D+02 0.5948000D+01 0.1742000D+01 0.2663000D+02
EXPONENTS  0.5948000D+01 0.1742000D+01 0.5550000D+00 0.5550000D+00 0.5550000D+00
EXPONENTS  0.1725000D+00 0.1725000D+00 0.1725000D+00 0.4910000D-01 0.4910000D-01
EXPONENTS  0.4910000D-01 0.1654000D+01 0.1654000D+01 0.1654000D+01 0.1654000D+01
EXPONENTS  0.1654000D+01 0.1654000D+01 0.4690000D+00 0.4690000D+00 0.4690000D+00
EXPONENTS  0.4690000D+00 0.4690000D+00 0.4690000D+00 0.1510000D+00 0.1510000D+00
EXPONENTS  0.1510000D+00 0.1510000D+00 0.1510000D+00 0.1510000D+00 0.1093000D+01
EXPONENTS  0.1093000D+01 0.1093000D+01 0.1093000D+01 0.1093000D+01 0.1093000D+01
EXPONENTS  0.1093000D+01 0.1093000D+01 0.1093000D+01 0.1093000D+01 0.3640000D+00
EXPONENTS  0.3640000D+00 0.3640000D+00 0.3640000D+00 0.3640000D+00 0.3640000D+00
EXPONENTS  0.3640000D+00 0.3640000D+00 0.3640000D+00 0.3640000D+00 0.1142000D+05
EXPONENTS  0.1712000D+04 0.3893000D+03 0.1100000D+03 0.3557000D+02 0.1254000D+02
EXPONENTS  0.4644000D+01 0.5118000D+00 0.1142000D+05 0.1712000D+04 0.3893000D+03
EXPONENTS  0.1100000D+03 0.3557000D+02 0.1254000D+02 0.4644000D+01 0.5118000D+00
EXPONENTS  0.1293000D+01 0.1787000D+00 0.5760000D-01 0.2663000D+02 0.5948000D+01
EXPONENTS  0.1742000D+01 0.2663000D+02 0.5948000D+01 0.1742000D+01 0.2663000D+02
EXPONENTS  0.5948000D+01 0.1742000D+01 0.5550000D+00 0.5550000D+00 0.5550000D+00
EXPONENTS  0.1725000D+00 0.1725000D+00 0.1725000D+00 0.4910000D-01 0.4910000D-01
EXPONENTS  0.4910000D-01 0.1654000D+01 0.1654000D+01 0.1654000D+01 0.1654000D+01
EXPONENTS  0.1654000D+01 0.1654000D+01 0.4690000D+00 0.4690000D+00 0.4690000D+00
EXPONENTS  0.4690000D+00 0.4690000D+00 0.4690000D+00 0.1510000D+00 0.1510000D+00
EXPONENTS  0.1510000D+00 0.1510000D+00 0.1510000D+00 0.1510000D+00 0.1093000D+01
EXPONENTS  0.1093000D+01 0.1093000D+01 0.1093000D+01 0.1093000D+01 0.1093000D+01
EXPONENTS  0.1093000D+01 0.1093000D+01 0.1093000D+01 0.1093000D+01 0.3640000D+00
EXPONENTS  0.3640000D+00 0.3640000D+00 0.3640000D+00 0.3640000D+00 0.3640000D+00
EXPONENTS  0.3640000D+00 0.3640000D+00 0.3640000D+00 0.3640000D+00 0.1142000D+05
EXPONENTS  0.1712000D+04 0.3893000D+03 0.1100000D+03 0.3557000D+02 0.1254000D+02
EXPONENTS  0.4644000D+01 0.5118000D+00 0.1142000D+05 0.1712000D+04 0.3893000D+03
EXPONENTS  0.1100000D+03 0.3557000D+02 0.1254000D+02 0.4644000D+01 0.5118000D+00
EXPONENTS  0.1293000D+01 0.1787000D+00 0.5760000D-01 0.2663000D+02 0.5948000D+01
EXPONENTS  0.1742000D+01 0.2663000D+02 0.5948000D+01 0.1742000D+01 0.2663000D+02
EXPONENTS  0.5948000D+01 0.1742000D+01 0.5550000D+00 0.5550000D+00 0.5550000D+00
EXPONENTS  0.1725000D+00 0.1725000D+00 0.1725000D+00 0.4910000D-01 0.4910000D-01
EXPONENTS  0.4910000D-01 0.1654000D+01 0.1654000D+01 0.1654000D+01 0.1654000D+01
EXPONENTS  0.1654000D+01 0.1654000D+01 0.4690000D+00 0.4690000D+00 0.4690000D+00
EXPONENTS  0.4690000D+00 0.4690000D+00 0.4690000D+00 0.1510000D+00 0.1510000D+00
EXPONENTS  0.1510000D+00 0.1510000D+00 0.1510000D+00 0.1510000D+00 0.1093000D+01
EXPONENTS  0.1093000D+01 0.1093000D+01 0.1093000D+01 0.1093000D+01 0.1093000D+01
EXPONENTS  0.1093000D+01 0.1093000D+01 0.1093000D+01 0.1093000D+01 0.3640000D+00
EXPONENTS  0.3640000D+00 0.3640000D+00 0.3640000D+00 0.3640000D+00 0.3640000D+00
EXPONENTS  0.3640000D+00 0.3640000D+00 0.3640000D+00 0.3640000D+00 0.1142000D+05
EXPONENTS  0.1712000D+04 0.3893000D+03 0.1100000D+03 0.3557000D+02 0.1254000D+02
EXPONENTS  0.4644000D+01 0.5118000D+00 0.1142000D+05 0.1712000D+04 0.3893000D+03
EXPONENTS  0.1100000D+03 0.3557000D+02 0.1254000D+02 0.4644000D+01 0.5118000D+00
EXPONENTS  0.1293000D+01 0.1787000D+00 0.5760000D-01 0.2663000D+02 0.5948000D+01
EXPONENTS  0.1742000D+01 0.2663000D+02 0.5948000D+01 0.1742000D+01 0.2663000D+02
EXPONENTS  0.5948000D+01 0.1742000D+01 0.5550000D+00 0.5550000D+00 0.5550000D+00
EXPONENTS  0.1725000D+00 0.1725000D+00 0.1725000D+00 0.4910000D-01 0.4910000D-01
EXPONENTS  0.4910000D-01 0.1654000D+01 0.1654000D+01 0.1654000D+01 0.1654000D+01
EXPONENTS  0.1654000D+01 0.1654000D+01 0.4690000D+00 0.4690000D+00 0.4690000D+00
EXPONENTS  0.4690000D+00 0.4690000D+00 0.4690000D+00 0.1510000D+00 0.1510000D+00
EXPONENTS  0.1510000D+00 0.1510000D+00 0.1510000D+00 0.1510000D+00 0.1093000D+01
EXPONENTS  0.1093000D+01 0.1093000D+01 0.1093000D+01 0.1093000D+01 0.1093000D+01
EXPONENTS  0.1093000D+01 0.1093000D+01 0.1093000D+01 0.1093000D+01 0.3640000D+00
EXPONENTS  0.3640000D+00 0.3640000D+00 0.3640000D+00 0.3640000D+00 0.3640000D+00
EXPONENTS  0.3640000D+00 0.3640000D+00 0.3640000D+00 0.3640000D+00
MO    1     MO 0.0        OCC NO =    2.0000000  ORB. ENERGY =  -15.662643
  0.41643554D-14  0.75105864D-14  0.11074355D-13 -0.17723103D-12 -0.20146399D-12
  0.19996489D-13 -0.13412907D-15 -0.53578407D-04 -0.74793934D-14  0.54222945D-16
  0.13897845D-03 -0.10825826D-12 -0.12523215D-16  0.21311253D-04 -0.35361812D-13
  0.12540476D-13  0.22141725D-13 -0.34682201D-13  0.24895856D-15 -0.71456257D-16
  0.14528999D-03  0.53337679D-14  0.90213349D-14 -0.14355103D-13 -0.36044199D-16
  0.11092816D-16  0.39252469D-04  0.34455907D-14  0.62142648D-14  0.91629297D-14
 -0.23740375D-12 -0.23357784D-12  0.22812823D-13 -0.93923798D-16 -0.53578407D-04
  0.13429356D-13 -0.33036659D-17  0.13897845D-03  0.13124214D-12  0.45815212D-17
  0.21311253D-04  0.51818614D-13  0.15831804D-13  0.29857604D-13 -0.45689407D-13
 -0.15806914D-16 -0.19180193D-15 -0.14528999D-03  0.42870479D-14  0.12592252D-13
 -0.16879300D-13  0.18600710D-16  0.55623312D-17 -0.39252469D-04 -0.14343221D-14
 -0.26739024D-14 -0.45193662D-14 -0.67940877D-14 -0.83473217D-14 -0.70506476D-14
 -0.26592449D-14  0.13160751D-16 -0.39800871D-15 -0.74519788D-15 -0.12687631D-14
 -0.19625837D-14 -0.25846537D-14 -0.26856207D-14 -0.17065914D-14  0.11437179D-14
  0.42082120D-13 -0.55240009D-12 -0.26986849D-12  0.16659021D-17  0.15618892D-17
  0.11121581D-17 -0.38510727D-03 -0.36106255D-03 -0.25709804D-03 -0.98374084D-13
 -0.92231957D-13 -0.65674648D-13  0.21003326D-17 -0.11236386D-02  0.19548377D-12
  0.15557618D-17  0.24665719D-03  0.23124518D-12  0.40113137D-19 -0.89768221D-05
 -0.93960076D-14 -0.28713058D-13  0.12458361D-14  0.27467222D-13  0.69227133D-18
  0.83432928D-17  0.65242128D-03  0.29609717D-13 -0.10313906D-12  0.73529341D-13
  0.30280133D-18  0.37601474D-17  0.49288929D-03  0.86997209D-14 -0.16795849D-13
  0.80961282D-14 -0.11668535D-18  0.95784572D-18 -0.44185285D-04 -0.83686954D-18
 -0.10930151D-04 -0.31243160D-14 -0.19812441D-17  0.20334722D-04 -0.42597133D-13
  0.44918527D-17  0.12455731D-04  0.51970081D-13  0.27107454D-17 -0.16325614D-18
  0.64719590D-04  0.12979169D-13 -0.29070996D-20 -0.51078792D-04 -0.86617415D-14
  0.49267551D-18 -0.14307998D-03 -0.30275767D-13  0.84312601D-18  0.46574538D-14
  0.86825528D-14  0.14675044D-13  0.22061398D-13  0.27104976D-13  0.22894485D-13
  0.86349576D-14 -0.42734887D-16 -0.48744815D-14 -0.91265673D-14 -0.15538762D-13
 -0.24036102D-13 -0.31654700D-13 -0.32891261D-13 -0.20900920D-13  0.14007311D-13
  0.55283790D-13 -0.45576551D-12 -0.28761631D-12  0.33175632D-17  0.31104264D-17
  0.22148089D-17 -0.38510727D-03 -0.36106255D-03 -0.25709804D-03  0.94464549D-13
  0.88566519D-13  0.63064638D-13 -0.13572392D-17 -0.11236386D-02 -0.16841062D-12
  0.30614270D-17  0.24665718D-03 -0.12693588D-12  0.22895020D-19 -0.89768218D-05
  0.32597061D-14 -0.26647782D-13  0.11305642D-13  0.15342140D-13 -0.11980819D-17
 -0.42842351D-17 -0.65242128D-03  0.32502732D-13 -0.10191052D-12  0.69407788D-13
 -0.80560694D-19  0.10904509D-17 -0.49288928D-03  0.52753971D-14 -0.24124627D-13
  0.18849229D-13 -0.85055489D-18 -0.35219825D-18  0.44185284D-04  0.34902803D-18
 -0.10930151D-04  0.11470530D-13 -0.61462818D-18  0.20334721D-04  0.40132643D-13
 -0.43245592D-18  0.12455731D-04 -0.74544232D-13 -0.99718799D-17  0.64901274D-19
  0.64719590D-04 -0.55092503D-14 -0.53131674D-19 -0.51078792D-04  0.55742616D-14
 -0.14157215D-18 -0.14307998D-03  0.10953489D-13 -0.35225304D-17 -0.20576938D+00
 -0.38342095D+00 -0.64846095D+00 -0.97654625D+00 -0.12090276D+01 -0.10288279D+01
 -0.39148801D+00  0.18335054D-02  0.34627937D-05  0.64927706D-05  0.11046135D-04
  0.17153481D-04  0.22763667D-04  0.23989780D-04  0.14875194D-04 -0.98949848D-05
 -0.18429260D-01 -0.46431878D-03  0.61248526D-04  0.53624951D-18  0.51506124D-18
  0.36119650D-18  0.41129077D-02  0.39503987D-02  0.27702922D-02  0.29800396D-02
  0.28622925D-02  0.20072370D-02  0.16649476D-17 -0.10950652D-02  0.12621061D-03
  0.12553484D-20 -0.84780258D-04 -0.19975054D-03 -0.63092384D-19  0.16265843D-05
  0.12448578D-04  0.83476973D-03 -0.92876895D-04 -0.74189283D-03 -0.84408443D-18
 -0.23829488D-17  0.35197471D-03 -0.17721952D-03  0.17614694D-03  0.10725803D-05
 -0.70411309D-18  0.13837454D-18 -0.26508386D-03 -0.23235876D-04  0.50679367D-05
  0.18167940D-04 -0.71296275D-18 -0.13912088D-19 -0.17046649D-04 -0.52078029D-18
 -0.32003584D-04 -0.65846894D-05  0.10848377D-17  0.89226583D-04  0.12554643D-03
  0.47750320D-18  0.67841679D-05 -0.10579236D-03 -0.11589515D-17  0.21593195D-18
 -0.10574853D-04 -0.92818635D-04  0.19022500D-18 -0.15894219D-04  0.77135984D-04
 -0.83802084D-18  0.47618777D-04  0.20131992D-03  0.78912881D-18  0.20576938D+00
  0.38342095D+00  0.64846095D+00  0.97654625D+00  0.12090276D+01  0.10288279D+01
  0.39148801D+00 -0.18335054D-02 -0.34627937D-05 -0.64927706D-05 -0.11046135D-04
 -0.17153481D-04 -0.22763667D-04 -0.23989780D-04 -0.14875194D-04  0.98949847D-05
  0.18429260D-01  0.46431878D-03 -0.61248526D-04  0.80232028D-17  0.77061904D-17
  0.54041126D-17  0.41129077D-02  0.39503987D-02  0.27702922D-02 -0.29800396D-02
 -0.28622925D-02 -0.20072370D-02 -0.43451264D-17 -0.10950652D-02 -0.12621061D-03
 -0.48777691D-18 -0.84780257D-04  0.19975054D-03 -0.17474598D-19  0.16265843D-05
 -0.12448578D-04 -0.83476973D-03  0.92876895D-04  0.74189283D-03 -0.12404358D-17
 -0.53378339D-17  0.35197471D-03  0.17721952D-03 -0.17614694D-03 -0.10725804D-05
  0.92994378D-18  0.41731603D-17 -0.26508386D-03  0.23235876D-04 -0.50679367D-05
 -0.18167940D-04  0.42627173D-18  0.18080981D-18 -0.17046649D-04  0.47123997D-18
 -0.32003584D-04  0.65846894D-05  0.46827557D-19  0.89226583D-04 -0.12554643D-03
 -0.14605475D-17  0.67841679D-05  0.10579236D-03 -0.13706533D-17  0.47016516D-19
 -0.10574853D-04  0.92818635D-04  0.59141764D-19 -0.15894219D-04 -0.77135984D-04
 -0.20019131D-18  0.47618777D-04 -0.20131992D-03 -0.46099811D-18 -0.20576938D+00
 -0.38342095D+00 -0.64846095D+00 -0.97654625D+00 -0.12090276D+01 -0.10288279D+01
 -0.39148801D+00  0.18335054D-02  0.34627937D-05  0.64927706D-05  0.11046135D-04
  0.17153481D-04  0.22763667D-04  0.23989780D-04  0.14875194D-04 -0.98949848D-05
 -0.18429260D-01 -0.46431878D-03  0.61248529D-04  0.30004196D-17  0.28818672D-17
  0.20209642D-17  0.41129077D-02  0.39503987D-02  0.27702922D-02 -0.29800396D-02
 -0.28622925D-02 -0.20072370D-02  0.74786715D-18 -0.10950652D-02 -0.12621061D-03
  0.16607867D-17 -0.84780259D-04  0.19975054D-03  0.24391051D-18  0.16265845D-05
 -0.12448577D-04  0.83476973D-03 -0.92876895D-04 -0.74189283D-03  0.12274519D-17
  0.53268853D-17 -0.35197471D-03 -0.17721952D-03  0.17614694D-03  0.10725803D-05
 -0.20990414D-17 -0.41772349D-18  0.26508386D-03 -0.23235876D-04  0.50679369D-05
  0.18167939D-04  0.39668313D-18  0.91381191D-18  0.17046650D-04 -0.17990252D-18
 -0.32003584D-04  0.65846895D-05 -0.15067403D-17  0.89226583D-04 -0.12554643D-03
  0.20464478D-17  0.67841682D-05  0.10579236D-03  0.92140707D-19  0.19779938D-18
 -0.10574852D-04  0.92818635D-04  0.45610208D-18 -0.15894219D-04 -0.77135984D-04
 -0.10495002D-17  0.47618777D-04 -0.20131992D-03  0.34569056D-18  0.20576938D+00
  0.38342095D+00  0.64846095D+00  0.97654625D+00  0.12090276D+01  0.10288279D+01
  0.39148801D+00 -0.18335054D-02 -0.34627937D-05 -0.64927706D-05 -0.11046135D-04
 -0.17153481D-04 -0.22763667D-04 -0.23989780D-04 -0.14875194D-04  0.98949847D-05
  0.18429260D-01  0.46431878D-03 -0.61248529D-04  0.44189294D-17  0.42443289D-17
  0.29764164D-17  0.41129077D-02  0.39503987D-02  0.27702922D-02  0.29800396D-02
  0.28622925D-02  0.20072370D-02  0.10064500D-18 -0.10950652D-02  0.12621061D-03
 -0.96832897D-18 -0.84780258D-04 -0.19975054D-03 -0.22260442D-18  0.16265845D-05
  0.12448577D-04 -0.83476973D-03  0.92876895D-04  0.74189283D-03  0.39449779D-17
  0.62102715D-18 -0.35197471D-03  0.17721952D-03 -0.17614694D-03 -0.10725803D-05
 -0.17955347D-17  0.91612296D-18  0.26508386D-03  0.23235876D-04 -0.50679369D-05
 -0.18167939D-04 -0.81033421D-18  0.29288438D-18  0.17046650D-04  0.73494702D-18
 -0.32003584D-04 -0.65846894D-05  0.38184958D-18  0.89226583D-04  0.12554643D-03
 -0.25866906D-17  0.67841681D-05 -0.10579236D-03  0.75206605D-17 -0.63367054D-18
 -0.10574852D-04 -0.92818635D-04 -0.12229461D-17 -0.15894219D-04  0.77135984D-04
  0.31239577D-17  0.47618777D-04  0.20131992D-03 -0.28367078D-17
MO    2     MO 0.0        OCC NO =    2.0000000  ORB. ENERGY =  -15.662604
  0.12194538D-04  0.21993351D-04  0.32429183D-04  0.63708167D-03  0.41821624D-03
  0.81037032D-05  0.31989408D-16  0.23107372D-13  0.12709612D-03 -0.18462405D-16
 -0.40174339D-13  0.17602629D-03  0.46496045D-17 -0.30393409D-13  0.49174934D-04
  0.29942958D-04 -0.29258372D-04 -0.68458679D-06 -0.88482955D-16  0.95829521D-16
 -0.35115322D-14 -0.98127246D-05  0.22562931D-04 -0.12750207D-04  0.60746887D-16
  0.12300432D-18 -0.22610075D-13  0.12194537D-04  0.21993350D-04  0.32429182D-04
  0.63708166D-03  0.41821623D-03  0.81037032D-05 -0.27965857D-18  0.16554373D-13
 -0.12709612D-03  0.13231894D-17 -0.46308288D-13 -0.17602629D-03  0.33775711D-18
 -0.17673201D-13 -0.49174934D-04  0.29942958D-04 -0.29258371D-04 -0.68458686D-06
 -0.54839506D-19  0.77098724D-19  0.22355148D-13 -0.98127247D-05  0.22562932D-04
 -0.12750207D-04 -0.37899760D-18 -0.35024949D-18  0.20455302D-13  0.19677403D-03
  0.36683154D-03  0.62000992D-03  0.93207800D-03  0.11451655D-02  0.96727535D-03
  0.36482067D-03 -0.18055179D-05 -0.14844215D-03 -0.27793055D-03 -0.47320053D-03
 -0.73196927D-03 -0.96397778D-03 -0.10016347D-02 -0.63649386D-03  0.42656339D-03
  0.29847965D-03 -0.10366079D-02 -0.40480311D-04 -0.11798297D-17 -0.11061653D-17
 -0.78765560D-18  0.96055006D-13  0.90057673D-13  0.64126428D-13 -0.25446676D-03
 -0.23857876D-03 -0.16988229D-03  0.20953343D-17 -0.44996161D-13 -0.37159547D-03
  0.83991600D-18 -0.10421155D-12 -0.11416322D-03  0.60293389D-19  0.37854669D-14
 -0.32973238D-05 -0.21070250D-03  0.29707742D-03 -0.86374922D-04  0.22587011D-17
 -0.10800943D-17 -0.24585472D-13  0.95693640D-04  0.12831609D-03 -0.22400973D-03
  0.15631450D-17 -0.61093479D-18  0.48751335D-13  0.14410026D-04 -0.14980984D-05
 -0.12911928D-04 -0.25438860D-18 -0.22114178D-18  0.16233639D-13 -0.32706864D-18
 -0.12311475D-13 -0.31132206D-04  0.10653025D-17  0.35187534D-13 -0.17093479D-03
 -0.84096549D-19  0.17468896D-14  0.26433140D-03 -0.24371549D-17 -0.72757801D-20
 -0.64824259D-14 -0.14607198D-04  0.88088465D-18  0.54028665D-14  0.87511720D-04
 -0.85905731D-18  0.14044411D-13 -0.43690128D-04  0.54292184D-18  0.19677403D-03
  0.36683154D-03  0.62000992D-03  0.93207800D-03  0.11451655D-02  0.96727535D-03
  0.36482067D-03 -0.18055179D-05 -0.14844215D-03 -0.27793055D-03 -0.47320053D-03
 -0.73196927D-03 -0.96397778D-03 -0.10016347D-02 -0.63649386D-03  0.42656339D-03
  0.29847965D-03 -0.10366079D-02 -0.40480301D-04  0.57752895D-17  0.54147010D-17
  0.38555897D-17  0.84293646D-13  0.79030651D-13  0.56274532D-13  0.25446676D-03
  0.23857876D-03  0.16988229D-03 -0.32751273D-17 -0.82023934D-13  0.37159547D-03
  0.95017394D-18 -0.69115899D-13  0.11416322D-03 -0.93088575D-19 -0.38057198D-14
  0.32973242D-05 -0.21070250D-03  0.29707742D-03 -0.86374922D-04 -0.14081189D-17
 -0.25623509D-17  0.67114274D-14  0.95693640D-04  0.12831610D-03 -0.22400974D-03
  0.83451020D-18  0.20259045D-17 -0.66052654D-13  0.14410027D-04 -0.14980975D-05
 -0.12911929D-04 -0.18817381D-18 -0.10405536D-17 -0.23421069D-13  0.28925121D-17
 -0.68785852D-14  0.31132206D-04 -0.87801406D-18  0.43276430D-13  0.17093479D-03
 -0.77995223D-17 -0.22640674D-13 -0.26433140D-03 -0.85627405D-17  0.11132166D-18
 -0.17571972D-14  0.14607198D-04 -0.76769444D-19 -0.24946291D-15 -0.87511721D-04
 -0.25719552D-18  0.55210545D-14  0.43690126D-04  0.38836675D-18  0.20575821D+00
  0.38340013D+00  0.64842574D+00  0.97649323D+00  0.12089620D+01  0.10287721D+01
  0.39146675D+00 -0.18334058D-02  0.69122664D-05  0.12960564D-04  0.22049776D-04
  0.34240974D-04  0.45439763D-04  0.47887273D-04  0.29693164D-04 -0.19751904D-04
  0.18332813D-01  0.54520894D-03 -0.18041977D-04  0.16221951D-17  0.15580990D-17
  0.10926466D-17 -0.38027208D-02 -0.36524679D-02 -0.25613626D-02 -0.29490761D-02
 -0.28325523D-02 -0.19863812D-02 -0.22319549D-17  0.62374704D-03 -0.12445832D-03
 -0.29868926D-17 -0.12056122D-03  0.10643620D-03 -0.57349758D-19  0.17655587D-05
 -0.62674248D-06 -0.96450811D-03  0.17882873D-03  0.78567938D-03 -0.30944625D-17
  0.21103825D-17 -0.30011739D-03  0.13688883D-03 -0.12570792D-04 -0.12431803D-03
  0.24068212D-17 -0.11313644D-17  0.18385508D-03  0.20965802D-05  0.14815174D-04
 -0.16911754D-04 -0.30902297D-18  0.34577196D-18  0.18646384D-04  0.12000998D-17
 -0.17469568D-04  0.13467986D-04 -0.38206871D-17  0.37131033D-06 -0.15083319D-03
  0.22038755D-18  0.52037393D-04  0.11042923D-03 -0.10819868D-16  0.19886545D-18
  0.14008303D-04  0.66210858D-04 -0.11318675D-18 -0.22366328D-04 -0.59177923D-04
 -0.48340960D-18 -0.19658581D-04 -0.13945465D-03  0.45164856D-17  0.20575821D+00
  0.38340013D+00  0.64842574D+00  0.97649323D+00  0.12089620D+01  0.10287721D+01
  0.39146675D+00 -0.18334058D-02  0.69122664D-05  0.12960564D-04  0.22049776D-04
  0.34240973D-04  0.45439763D-04  0.47887273D-04  0.29693164D-04 -0.19751904D-04
  0.18332813D-01  0.54520894D-03 -0.18041977D-04  0.70942225D-17  0.68139159D-17
  0.47783881D-17  0.38027208D-02  0.36524679D-02  0.25613626D-02 -0.29490761D-02
 -0.28325523D-02 -0.19863812D-02 -0.31910476D-17 -0.62374704D-03 -0.12445832D-03
 -0.30270009D-17  0.12056122D-03  0.10643620D-03 -0.19946722D-18 -0.17655587D-05
 -0.62674246D-06 -0.96450811D-03  0.17882873D-03  0.78567938D-03 -0.36990594D-17
 -0.50742107D-17  0.30011739D-03  0.13688883D-03 -0.12570792D-04 -0.12431803D-03
  0.11422544D-17  0.28219101D-17 -0.18385508D-03  0.20965802D-05  0.14815174D-04
 -0.16911754D-04 -0.20059928D-18 -0.26766887D-18 -0.18646384D-04  0.95831731D-18
  0.17469568D-04  0.13467986D-04 -0.14166843D-19 -0.37131033D-06 -0.15083319D-03
 -0.28607851D-17 -0.52037393D-04  0.11042923D-03  0.11966616D-17  0.35610117D-19
 -0.14008303D-04  0.66210858D-04  0.59544954D-20  0.22366328D-04 -0.59177923D-04
 -0.11278485D-18  0.19658581D-04 -0.13945465D-03 -0.12681250D-17  0.20575821D+00
  0.38340013D+00  0.64842574D+00  0.97649323D+00  0.12089620D+01  0.10287721D+01
  0.39146675D+00 -0.18334058D-02  0.69122663D-05  0.12960564D-04  0.22049775D-04
  0.34240973D-04  0.45439763D-04  0.47887272D-04  0.29693164D-04 -0.19751904D-04
  0.18332813D-01  0.54520895D-03 -0.18041985D-04 -0.11595915D-17 -0.11137738D-17
 -0.78105506D-18 -0.38027208D-02 -0.36524679D-02 -0.25613626D-02  0.29490761D-02
  0.28325523D-02  0.19863812D-02 -0.68647140D-18  0.62374704D-03  0.12445832D-03
  0.25340615D-17 -0.12056122D-03 -0.10643619D-03  0.25953050D-18  0.17655599D-05
  0.62674320D-06 -0.96450811D-03  0.17882873D-03  0.78567938D-03  0.10603252D-17
  0.24989302D-18  0.30011739D-03  0.13688883D-03 -0.12570791D-04 -0.12431803D-03
 -0.67143280D-19 -0.12445425D-17 -0.18385508D-03  0.20965800D-05  0.14815174D-04
 -0.16911754D-04  0.24983170D-18  0.15310621D-17 -0.18646385D-04 -0.90506494D-18
 -0.17469568D-04 -0.13467987D-04  0.37769595D-17  0.37131095D-06  0.15083319D-03
 -0.10617646D-17  0.52037392D-04 -0.11042923D-03 -0.17882002D-17 -0.29404947D-18
  0.14008303D-04 -0.66210858D-04 -0.31133928D-18 -0.22366329D-04  0.59177922D-04
  0.11934877D-17 -0.19658579D-04  0.13945465D-03  0.96116982D-18  0.20575821D+00
  0.38340013D+00  0.64842574D+00  0.97649323D+00  0.12089620D+01  0.10287721D+01
  0.39146675D+00 -0.18334058D-02  0.69122663D-05  0.12960564D-04  0.22049775D-04
  0.34240973D-04  0.45439763D-04  0.47887272D-04  0.29693164D-04 -0.19751904D-04
  0.18332813D-01  0.54520895D-03 -0.18041985D-04  0.86250341D-18  0.82842422D-18
  0.58094824D-18  0.38027208D-02  0.36524679D-02  0.25613626D-02  0.29490761D-02
  0.28325523D-02  0.19863812D-02  0.22795453D-17 -0.62374704D-03  0.12445832D-03
  0.15138509D-17  0.12056122D-03 -0.10643619D-03  0.79722270D-19 -0.17655599D-05
  0.62674322D-06 -0.96450811D-03  0.17882873D-03  0.78567938D-03  0.28478000D-17
 -0.37367301D-18 -0.30011739D-03  0.13688883D-03 -0.12570791D-04 -0.12431803D-03
  0.80234297D-18  0.28176141D-18  0.18385508D-03  0.20965800D-05  0.14815174D-04
 -0.16911754D-04  0.86393857D-19  0.13621656D-17  0.18646385D-04  0.29889779D-18
  0.17469568D-04 -0.13467987D-04 -0.19633629D-18 -0.37131095D-06  0.15083319D-03
 -0.70035706D-18 -0.52037392D-04 -0.11042923D-03  0.43614540D-17 -0.38526336D-18
 -0.14008303D-04 -0.66210858D-04 -0.49159079D-18  0.22366329D-04  0.59177922D-04
  0.16473809D-17  0.19658579D-04  0.13945465D-03 -0.13865221D-17
MO    3     MO 0.0        OCC NO =    2.0000000  ORB. ENERGY =  -15.661721
  0.24044353D-14  0.43364981D-14  0.63941639D-14  0.18872120D-11  0.26342822D-11
  0.27416793D-13  0.61503289D-16 -0.18492139D-04  0.13164472D-12 -0.35419334D-16
 -0.54300326D-03  0.63956312D-12  0.70821595D-17 -0.82471484D-04  0.13916435D-12
  0.18309408D-13 -0.11739148D-12  0.99082069D-13  0.26848533D-16  0.24950037D-15