 Molden2AIM, Version 4.0.0 (06/02/2016)           Time: Wed Jun 27 22:19:25 2018
GAUSSIAN              7 MOL ORBITALS    204 PRIMITIVES        4 NUCLEI
  C    1    (CENTRE  1)   0.00000000  0.00000000  1.14227519  CHARGE =  6.0
  C    2    (CENTRE  2)   0.00000000  0.00000000 -1.14227519  CHARGE =  6.0
  H    3    (CENTRE  3)   0.00000000  0.00000000  3.16775924  CHARGE =  1.0
  H    4    (CENTRE  4)   0.00000000  0.00000000 -3.16775924  CHARGE =  1.0
CENTRE ASSIGNMENTS    1  1  1  1  1  1  1  1  1  1  1  1  1  1  1  1  1  1  1  1
CENTRE ASSIGNMENTS    1  1  1  1  1  1  1  1  1  1  1  1  1  1  1  1  1  1  1  1
CENTRE ASSIGNMENTS    1  1  1  1  1  1  1  1  1  1  1  1  1  1  1  1  1  1  1  1
CENTRE ASSIGNMENTS    1  1  1  1  1  1  1  1  1  1  1  1  1  1  1  2  2  2  2  2
CENTRE ASSIGNMENTS    2  2  2  2  2  2  2  2  2  2  2  2  2  2  2  2  2  2  2  2
CENTRE ASSIGNMENTS    2  2  2  2  2  2  2  2  2  2  2  2  2  2  2  2  2  2  2  2
CENTRE ASSIGNMENTS    2  2  2  2  2  2  2  2  2  2  2  2  2  2  2  2  2  2  2  2
CENTRE ASSIGNMENTS    2  2  2  2  2  2  2  2  2  2  3  3  3  3  3  3  3  3  3  3
CENTRE ASSIGNMENTS    3  3  3  3  3  3  3  3  3  3  3  3  3  3  3  3  3  4  4  4
CENTRE ASSIGNMENTS    4  4  4  4  4  4  4  4  4  4  4  4  4  4  4  4  4  4  4  4
CENTRE ASSIGNMENTS    4  4  4  4
TYPE ASSIGNMENTS      1  1  1  1  1  1  1  1  1  1  1  1  1  1  1  1  1  1  1  2
TYPE ASSIGNMENTS      2  2  3  3  3  4  4  4  2  3  4  2  3  4  2  3  4  5  6  7
TYPE ASSIGNMENTS      8  9 10  5  6  7  8  9 10  5  6  7  8  9 10 11 12 13 17 14
TYPE ASSIGNMENTS     15 18 19 16 20 11 12 13 17 14 15 18 19 16 20  1  1  1  1  1
TYPE ASSIGNMENTS      1  1  1  1  1  1  1  1  1  1  1  1  1  1  2  2  2  3  3  3
TYPE ASSIGNMENTS      4  4  4  2  3  4  2  3  4  2  3  4  5  6  7  8  9 10  5  6
TYPE ASSIGNMENTS      7  8  9 10  5  6  7  8  9 10 11 12 13 17 14 15 18 19 16 20
TYPE ASSIGNMENTS     11 12 13 17 14 15 18 19 16 20  1  1  1  1  1  1  2  3  4  2
TYPE ASSIGNMENTS      3  4  2  3  4  5  6  7  8  9 10  5  6  7  8  9 10  1  1  1
TYPE ASSIGNMENTS      1  1  1  2  3  4  2  3  4  2  3  4  5  6  7  8  9 10  5  6
TYPE ASSIGNMENTS      7  8  9 10
EXPONENTS  0.8236000D+04 0.1235000D+04 0.2808000D+03 0.7927000D+02 0.2559000D+02
EXPONENTS  0.8997000D+01 0.3319000D+01 0.3643000D+00 0.8236000D+04 0.1235000D+04
EXPONENTS  0.2808000D+03 0.7927000D+02 0.2559000D+02 0.8997000D+01 0.3319000D+01
EXPONENTS  0.3643000D+00 0.9059000D+00 0.1285000D+00 0.4402000D-01 0.1871000D+02
EXPONENTS  0.4133000D+01 0.1200000D+01 0.1871000D+02 0.4133000D+01 0.1200000D+01
EXPONENTS  0.1871000D+02 0.4133000D+01 0.1200000D+01 0.3827000D+00 0.3827000D+00
EXPONENTS  0.3827000D+00 0.1209000D+00 0.1209000D+00 0.1209000D+00 0.3569000D-01
EXPONENTS  0.3569000D-01 0.3569000D-01 0.1097000D+01 0.1097000D+01 0.1097000D+01
EXPONENTS  0.1097000D+01 0.1097000D+01 0.1097000D+01 0.3180000D+00 0.3180000D+00
EXPONENTS  0.3180000D+00 0.3180000D+00 0.3180000D+00 0.3180000D+00 0.1000000D+00
EXPONENTS  0.1000000D+00 0.1000000D+00 0.1000000D+00 0.1000000D+00 0.1000000D+00
EXPONENTS  0.7610000D+00 0.7610000D+00 0.7610000D+00 0.7610000D+00 0.7610000D+00
EXPONENTS  0.7610000D+00 0.7610000D+00 0.7610000D+00 0.7610000D+00 0.7610000D+00
EXPONENTS  0.2680000D+00 0.2680000D+00 0.2680000D+00 0.2680000D+00 0.2680000D+00
EXPONENTS  0.2680000D+00 0.2680000D+00 0.2680000D+00 0.2680000D+00 0.2680000D+00
EXPONENTS  0.8236000D+04 0.1235000D+04 0.2808000D+03 0.7927000D+02 0.2559000D+02
EXPONENTS  0.8997000D+01 0.3319000D+01 0.3643000D+00 0.8236000D+04 0.1235000D+04
EXPONENTS  0.2808000D+03 0.7927000D+02 0.2559000D+02 0.8997000D+01 0.3319000D+01
EXPONENTS  0.3643000D+00 0.9059000D+00 0.1285000D+00 0.4402000D-01 0.1871000D+02
EXPONENTS  0.4133000D+01 0.1200000D+01 0.1871000D+02 0.4133000D+01 0.1200000D+01
EXPONENTS  0.1871000D+02 0.4133000D+01 0.1200000D+01 0.3827000D+00 0.3827000D+00
EXPONENTS  0.3827000D+00 0.1209000D+00 0.1209000D+00 0.1209000D+00 0.3569000D-01
EXPONENTS  0.3569000D-01 0.3569000D-01 0.1097000D+01 0.1097000D+01 0.1097000D+01
EXPONENTS  0.1097000D+01 0.1097000D+01 0.1097000D+01 0.3180000D+00 0.3180000D+00
EXPONENTS  0.3180000D+00 0.3180000D+00 0.3180000D+00 0.3180000D+00 0.1000000D+00
EXPONENTS  0.1000000D+00 0.1000000D+00 0.1000000D+00 0.1000000D+00 0.1000000D+00
EXPONENTS  0.7610000D+00 0.7610000D+00 0.7610000D+00 0.7610000D+00 0.7610000D+00
EXPONENTS  0.7610000D+00 0.7610000D+00 0.7610000D+00 0.7610000D+00 0.7610000D+00
EXPONENTS  0.2680000D+00 0.2680000D+00 0.2680000D+00 0.2680000D+00 0.2680000D+00
EXPONENTS  0.2680000D+00 0.2680000D+00 0.2680000D+00 0.2680000D+00 0.2680000D+00
EXPONENTS  0.3387000D+02 0.5095000D+01 0.1159000D+01 0.3258000D+00 0.1027000D+00
EXPONENTS  0.2526000D-01 0.1407000D+01 0.1407000D+01 0.1407000D+01 0.3880000D+00
EXPONENTS  0.3880000D+00 0.3880000D+00 0.1020000D+00 0.1020000D+00 0.1020000D+00
EXPONENTS  0.1057000D+01 0.1057000D+01 0.1057000D+01 0.1057000D+01 0.1057000D+01
EXPONENTS  0.1057000D+01 0.2470000D+00 0.2470000D+00 0.2470000D+00 0.2470000D+00
EXPONENTS  0.2470000D+00 0.2470000D+00 0.3387000D+02 0.5095000D+01 0.1159000D+01
EXPONENTS  0.3258000D+00 0.1027000D+00 0.2526000D-01 0.1407000D+01 0.1407000D+01
EXPONENTS  0.1407000D+01 0.3880000D+00 0.3880000D+00 0.3880000D+00 0.1020000D+00
EXPONENTS  0.1020000D+00 0.1020000D+00 0.1057000D+01 0.1057000D+01 0.1057000D+01
EXPONENTS  0.1057000D+01 0.1057000D+01 0.1057000D+01 0.2470000D+00 0.2470000D+00
EXPONENTS  0.2470000D+00 0.2470000D+00 0.2470000D+00 0.2470000D+00
MO    1     MO 0.0        OCC NO =    2.0000000  ORB. ENERGY =  -11.246695
  0.23109102D+00  0.43080621D+00  0.72813838D+00  0.10946305D+01  0.13448800D+01
  0.11359662D+01  0.42844465D+00 -0.21203965D-02 -0.12613005D-03 -0.23615525D-03
 -0.40207453D-03 -0.62194816D-03 -0.81908384D-03 -0.85108058D-03 -0.54082350D-03
  0.36244733D-03  0.20344073D-01  0.28268759D-03 -0.55252971D-04 -0.21427113D-15
 -0.20089281D-15 -0.14304765D-15 -0.70826106D-17 -0.66403976D-17 -0.47283587D-17
  0.69777724D-03  0.65421052D-03  0.46583686D-03 -0.18916071D-16  0.76097398D-17
 -0.15519027D-02 -0.38499770D-17  0.54378258D-17  0.40146437D-03 -0.72675597D-19
  0.93716951D-19  0.45959411D-05 -0.84172496D-03 -0.84172496D-03  0.16834499D-02
 -0.25021224D-17 -0.10398652D-17  0.10441737D-17  0.44559264D-03  0.44559264D-03
 -0.89118528D-03  0.12571538D-18  0.60258139D-17 -0.41671644D-17  0.25828330D-04
  0.25828330D-04 -0.51656660D-04 -0.10365359D-19  0.49973434D-18 -0.13212992D-17
  0.13702662D-17 -0.19926754D-17 -0.11292111D-03  0.13233546D-17 -0.18786758D-17
  0.16938166D-03 -0.54341532D-17  0.78567021D-17  0.16938166D-03  0.22798842D-18
  0.55496498D-18 -0.32247377D-18  0.37399056D-04  0.58691431D-18 -0.35560898D-18
 -0.56098584D-04 -0.22518092D-17  0.13230303D-17 -0.56098584D-04 -0.69877964D-19
  0.23109102D+00  0.43080621D+00  0.72813838D+00  0.10946305D+01  0.13448800D+01
  0.11359662D+01  0.42844465D+00 -0.21203965D-02 -0.12613005D-03 -0.23615525D-03
 -0.40207453D-03 -0.62194815D-03 -0.81908384D-03 -0.85108057D-03 -0.54082350D-03
  0.36244733D-03  0.20344073D-01  0.28268758D-03 -0.55252969D-04 -0.30178913D-17
 -0.28294649D-17 -0.20147476D-17 -0.57767972D-17 -0.54161146D-17 -0.38565963D-17
 -0.69777724D-03 -0.65421052D-03 -0.46583686D-03  0.99746936D-17 -0.23222230D-17
  0.15519027D-02  0.38698570D-17 -0.38046243D-17 -0.40146438D-03  0.88364298D-19
 -0.78593742D-19 -0.45959409D-05 -0.84172496D-03 -0.84172496D-03  0.16834499D-02
 -0.75074661D-18  0.14461657D-18  0.39955039D-18  0.44559264D-03  0.44559264D-03
 -0.89118529D-03 -0.29324306D-19  0.82416335D-17 -0.81669105D-17  0.25828330D-04
  0.25828330D-04 -0.51656660D-04  0.42265254D-20  0.60467388D-18 -0.14852128D-17
 -0.47277817D-18  0.41225371D-18  0.11292110D-03 -0.29309038D-18  0.30073177D-18
 -0.16938166D-03  0.17114249D-17 -0.15374929D-17 -0.16938166D-03 -0.17887223D-18
 -0.44429987D-18  0.10397707D-18 -0.37399056D-04 -0.44331396D-18  0.76593374D-19
  0.56098584D-04  0.17762136D-17 -0.38852457D-18  0.56098584D-04 -0.97789940D-19
  0.89866550D-04  0.16207802D-03  0.23898395D-03  0.16870291D-02 -0.25951824D-03
  0.52986160D-05 -0.17743694D-17 -0.75112688D-18  0.10210912D-03  0.54003240D-17
 -0.27384241D-17 -0.89890219D-03  0.34436633D-19  0.69762925D-18  0.10336205D-03
  0.18242432D-03  0.18242432D-03 -0.36484864D-03 -0.38603805D-19 -0.32864175D-17
  0.34064812D-17  0.46932990D-05  0.46932990D-05 -0.93865979D-05  0.21298439D-19
 -0.40405399D-18  0.95797560D-18  0.89866550D-04  0.16207802D-03  0.23898395D-03
  0.16870291D-02 -0.25951825D-03  0.52986161D-05 -0.18958051D-18  0.25994555D-17
 -0.10210912D-03 -0.10073415D-19 -0.40391962D-17  0.89890219D-03 -0.19490958D-18
 -0.17857839D-17 -0.10336205D-03  0.18242432D-03  0.18242432D-03 -0.36484865D-03
 -0.58428626D-19 -0.15887054D-18 -0.13853878D-18  0.46932990D-05  0.46932990D-05
 -0.93865980D-05 -0.26997280D-19 -0.11184871D-18 -0.21694226D-17
MO    2     MO 0.0        OCC NO =    2.0000000  ORB. ENERGY =  -11.243025
  0.23163950D+00  0.43182869D+00  0.72986656D+00  0.10972285D+01  0.13480720D+01
  0.11386623D+01  0.42946153D+00 -0.21254291D-02 -0.36074629D-03 -0.67543088D-03
 -0.11499789D-02 -0.17788424D-02 -0.23426729D-02 -0.24341872D-02 -0.15468167D-02
  0.10366406D-02  0.20226429D-01  0.36718530D-02 -0.12320015D-02  0.35642177D-15
  0.33416807D-15  0.23794757D-15 -0.24955573D-15 -0.23397436D-15 -0.16660368D-15
  0.19791420D-02  0.18555715D-02  0.13212774D-02  0.93535128D-17  0.40583102D-17
 -0.40214322D-02  0.24399445D-17 -0.20828488D-17 -0.40477138D-02  0.51931344D-19
 -0.33511089D-19  0.72008134D-04 -0.12189539D-02 -0.12189539D-02  0.24379078D-02
 -0.22715922D-17  0.11943971D-17 -0.21703766D-17  0.77713591D-04  0.77713591D-04
 -0.15542718D-03  0.91104886D-19 -0.39404274D-17 -0.28709694D-18 -0.26145267D-05
 -0.26145267D-05  0.52290534D-05 -0.37465630D-20 -0.16690532D-18  0.54341732D-18
 -0.70942220D-18  0.49509160D-18 -0.47038844D-03 -0.76928281D-18  0.56856002D-18
  0.70558266D-03  0.28975494D-17 -0.20538348D-17  0.70558266D-03  0.27834783D-18
 -0.37639170D-18 -0.12069412D-18 -0.26397644D-03 -0.36143571D-18 -0.13836680D-18
  0.39596465D-03  0.14906108D-17  0.50044916D-18  0.39596465D-03 -0.58533286D-19
 -0.23163950D+00 -0.43182869D+00 -0.72986656D+00 -0.10972285D+01 -0.13480720D+01
 -0.11386623D+01 -0.42946153D+00  0.21254291D-02  0.36074629D-03  0.67543088D-03
  0.11499789D-02  0.17788424D-02  0.23426729D-02  0.24341872D-02  0.15468167D-02
 -0.10366406D-02 -0.20226429D-01 -0.36718530D-02  0.12320015D-02  0.16531759D-17
  0.15499575D-17  0.11036621D-17  0.87554175D-17  0.82087605D-17  0.58451265D-17
  0.19791420D-02  0.18555715D-02  0.13212774D-02 -0.70872484D-17 -0.45004567D-17
 -0.40214322D-02 -0.25084705D-17  0.53545812D-18 -0.40477138D-02 -0.71040976D-19
  0.27232278D-19  0.72008134D-04  0.12189539D-02  0.12189539D-02 -0.24379078D-02
  0.44938185D-18  0.47070386D-18 -0.15828769D-17 -0.77713591D-04 -0.77713591D-04
  0.15542718D-03 -0.12056564D-18 -0.52840922D-17  0.13047587D-17  0.26145267D-05
  0.26145267D-05 -0.52290534D-05  0.11698591D-20 -0.32923415D-18  0.83091105D-18
  0.15751526D-18  0.29076582D-18 -0.47038844D-03  0.40903264D-19  0.36942160D-18
  0.70558266D-03 -0.51344906D-18 -0.12417191D-17  0.70558266D-03  0.59159167D-19
  0.36314101D-18  0.12082435D-18 -0.26397644D-03  0.35778813D-18  0.13528449D-18
  0.39596465D-03 -0.14472111D-17 -0.49775756D-18  0.39596465D-03 -0.49256319D-19
  0.12228154D-03  0.22053979D-03  0.32518579D-03  0.37267805D-02  0.42196192D-02
 -0.44888308D-04  0.14021991D-17  0.12349609D-17 -0.39652841D-03 -0.39413144D-17
 -0.11596568D-17 -0.11282931D-02 -0.18472913D-18 -0.38022088D-18 -0.65742253D-03
  0.11318410D-03  0.11318410D-03 -0.22636820D-03 -0.26248500D-19  0.18409068D-17
  0.10003020D-17 -0.14295815D-04 -0.14295815D-04  0.28591631D-04  0.14615834D-19
  0.20848023D-18 -0.42196161D-18 -0.12228154D-03 -0.22053979D-03 -0.32518579D-03
 -0.37267805D-02 -0.42196192D-02  0.44888308D-04 -0.22752313D-18 -0.17326595D-17
 -0.39652841D-03  0.44544014D-18  0.32741355D-17 -0.11282931D-02  0.38198350D-18
  0.13621467D-17 -0.65742253D-03 -0.11318410D-03 -0.11318410D-03  0.22636820D-03
 -0.46789189D-20  0.40291848D-19  0.61922713D-18  0.14295815D-04  0.14295815D-04
 -0.28591631D-04 -0.21574324D-19  0.37926535D-18  0.15468217D-17
MO    3     MO 0.0        OCC NO =    2.0000000  ORB. ENERGY =   -1.028521
 -0.54297121D-02 -0.10122218D-01 -0.17108331D-01 -0.25719426D-01 -0.31599287D-01
 -0.26690649D-01 -0.10066731D-01  0.49820813D-04 -0.46720329D-01 -0.87475196D-01
 -0.14893401D+00 -0.23037826D+00 -0.30340007D+00 -0.31525210D+00 -0.20032856D+00
  0.13425554D+00  0.52669246D-01  0.29571823D-01 -0.79870247D-03 -0.12783926D-15
 -0.11985743D-15 -0.85345630D-16 -0.64179757D-15 -0.60172602D-15 -0.42846477D-15
 -0.21198029D+00 -0.19874500D+00 -0.14151828D+00 -0.42540110D-16 -0.10518711D-15
 -0.15374786D-01  0.13388351D-16 -0.34725189D-16  0.15857281D-03  0.50957588D-18
 -0.11234112D-17 -0.18463630D-03 -0.22113879D-01 -0.22113879D-01  0.44227759D-01
 -0.12444008D-16  0.13103682D-16  0.30013836D-18 -0.42767427D-02 -0.42767427D-02
  0.85534853D-02  0.24402821D-17 -0.69224510D-17  0.34476564D-16  0.81966388D-04
  0.81966388D-04 -0.16393278D-03 -0.83688421D-18  0.75300343D-17  0.65975347D-17
 -0.88120532D-19  0.62713838D-17 -0.56498503D-03 -0.19831407D-17  0.10931934D-16
  0.84747755D-03  0.22475023D-17 -0.29746086D-16  0.84747755D-03  0.27486133D-17
 -0.16763407D-17  0.20900612D-17  0.15403124D-03 -0.26944036D-18  0.49366745D-18
 -0.23104687D-03  0.52984624D-17 -0.67638510D-17 -0.23104687D-03 -0.19215904D-17
 -0.54297121D-02 -0.10122218D-01 -0.17108331D-01 -0.25719426D-01 -0.31599287D-01
 -0.26690649D-01 -0.10066731D-01  0.49820813D-04 -0.46720329D-01 -0.87475196D-01
 -0.14893401D+00 -0.23037826D+00 -0.30340007D+00 -0.31525210D+00 -0.20032856D+00
  0.13425554D+00  0.52669246D-01  0.29571823D-01 -0.79870247D-03 -0.71885435D-18
 -0.67397165D-18 -0.47990797D-18 -0.75166411D-16 -0.70473288D-16 -0.50181180D-16
  0.21198029D+00  0.19874500D+00  0.14151828D+00 -0.65601851D-17 -0.30753773D-17
  0.15374786D-01  0.20359333D-16  0.36565460D-16 -0.15857279D-03  0.31678815D-18
  0.16112024D-17  0.18463630D-03 -0.22113879D-01 -0.22113879D-01  0.44227759D-01
 -0.73509147D-17 -0.10634739D-17 -0.27759735D-16 -0.42767427D-02 -0.42767427D-02
  0.85534853D-02 -0.15252095D-17 -0.19865125D-16  0.28426995D-16  0.81966388D-04
  0.81966388D-04 -0.16393278D-03  0.70335773D-18 -0.24042104D-17  0.10675467D-16
 -0.44954946D-18  0.84531236D-18  0.56498503D-03  0.10377741D-17  0.31201874D-17
 -0.84747755D-03  0.31087427D-18 -0.56561245D-17 -0.84747755D-03 -0.35200884D-17
 -0.15686645D-17 -0.20312359D-17 -0.15403124D-03 -0.13866425D-17 -0.36326696D-17
  0.23104687D-03  0.60926360D-17  0.97263773D-17  0.23104687D-03 -0.25102644D-17
  0.11131558D-01  0.20076223D-01  0.29602380D-01 -0.79967083D-02 -0.44790664D-02
  0.21327526D-03 -0.69320062D-17 -0.17215857D-16 -0.71556546D-02 -0.56999981D-17
  0.67410739D-17  0.15884710D-01 -0.14580760D-16  0.29298110D-17  0.22417972D-02
  0.31713200D-02  0.31713200D-02 -0.63426400D-02 -0.16412665D-17  0.73243701D-17
 -0.92888629D-17  0.94288588D-03  0.94288588D-03 -0.18857718D-02  0.11060887D-17
  0.32330261D-17 -0.60063009D-17  0.11131558D-01  0.20076223D-01  0.29602380D-01
 -0.79967083D-02 -0.44790664D-02  0.21327526D-03  0.91664919D-17 -0.13608889D-17
  0.71556546D-02 -0.22783248D-16 -0.29084806D-17 -0.15884710D-01 -0.10655556D-16
  0.54036817D-17 -0.22417972D-02  0.31713200D-02  0.31713200D-02 -0.63426400D-02
 -0.22778813D-17 -0.17516735D-17 -0.81202100D-18  0.94288588D-03  0.94288588D-03
 -0.18857718D-02 -0.36034350D-18 -0.12799906D-16 -0.13117973D-18
MO    4     MO 0.0        OCC NO =    2.0000000  ORB. ENERGY =   -0.764911
  0.12162008D-02  0.22672748D-02  0.38320938D-02  0.57608923D-02  0.70779218D-02
  0.59784364D-02  0.22548463D-02 -0.11159360D-04  0.32014623D-01  0.59941475D-01
  0.10205549D+00  0.15786432D+00  0.20790176D+00  0.21602325D+00  0.13727308D+00
 -0.91997224D-01 -0.34982977D-01 -0.93096283D-01 -0.21413499D-01 -0.12514229D-15
 -0.11732885D-15 -0.83545133D-16  0.63910760D-15  0.59920400D-15  0.42666894D-15
 -0.24207514D+00 -0.22696083D+00 -0.16160963D+00  0.81490776D-17 -0.42788081D-16
 -0.48121835D-01  0.24169544D-16 -0.49784728D-17  0.34944418D-02  0.15969507D-17
 -0.71003819D-18  0.14297499D-02  0.12693672D-01  0.12693672D-01 -0.25387344D-01
  0.64724934D-17  0.21764694D-16 -0.28424485D-16  0.57991216D-02  0.57991216D-02
 -0.11598243D-01 -0.22314363D-17 -0.17466190D-16  0.30257886D-16  0.72341756D-03
  0.72341756D-03 -0.14468351D-02  0.17968110D-18  0.18221256D-16  0.42383856D-17
 -0.45660636D-17 -0.69164984D-18  0.33696235D-03 -0.32855818D-17 -0.31357030D-17
 -0.50544352D-03  0.16983773D-16  0.52106525D-17 -0.50544352D-03 -0.15827749D-17
 -0.26559846D-17 -0.18816401D-17 -0.13001496D-02 -0.29135761D-17 -0.15896077D-17
  0.19502243D-02  0.10881530D-16  0.72345280D-17  0.19502243D-02 -0.22620676D-18
 -0.12162008D-02 -0.22672748D-02 -0.38320938D-02 -0.57608923D-02 -0.70779218D-02
 -0.59784364D-02 -0.22548463D-02  0.11159360D-04 -0.32014623D-01 -0.59941475D-01
 -0.10205549D+00 -0.15786432D+00 -0.20790176D+00 -0.21602325D+00 -0.13727308D+00
  0.91997224D-01  0.34982977D-01  0.93096283D-01  0.21413499D-01  0.39343137D-16
  0.36886692D-16  0.26265522D-16  0.39705087D-15  0.37226043D-15  0.26507160D-15
 -0.24207514D+00 -0.22696083D+00 -0.16160963D+00 -0.21440140D-16  0.96999413D-16
 -0.48121835D-01  0.43959226D-16  0.64297145D-16  0.34944418D-02  0.12034103D-17
  0.36381921D-17  0.14297499D-02 -0.12693672D-01 -0.12693672D-01  0.25387344D-01
  0.73702729D-18  0.88381453D-18  0.60319308D-16 -0.57991216D-02 -0.57991216D-02
  0.11598243D-01  0.25231378D-18 -0.42149360D-16  0.11515418D-16 -0.72341756D-03
 -0.72341756D-03  0.14468351D-02  0.90504516D-19  0.11020904D-17  0.13389620D-16
 -0.36930649D-18 -0.19729238D-17  0.33696235D-03 -0.11571740D-18 -0.82347665D-18
 -0.50544352D-03  0.12236369D-17  0.67422480D-17 -0.50544352D-03  0.12516794D-17
 -0.20252920D-17 -0.53788007D-17 -0.13001496D-02 -0.19745100D-17 -0.57357807D-17
  0.19502243D-02  0.80503861D-17  0.21872183D-16  0.19502243D-02  0.43394995D-18
 -0.32888470D-01 -0.59315710D-01 -0.87460980D-01 -0.31304804D-01  0.95118730D-02
 -0.12061228D-02 -0.39751247D-17 -0.11598313D-16  0.28687419D-01 -0.12737350D-16
 -0.26830472D-16 -0.25872104D-03 -0.31885770D-16  0.18461147D-16 -0.93659568D-03
  0.28750631D-02  0.28750631D-02 -0.57501261D-02  0.10418675D-17  0.14763487D-16
  0.33674371D-17  0.74429668D-04  0.74429668D-04 -0.14885934D-03 -0.14268814D-18
  0.86460718D-17 -0.75428221D-17  0.32888470D-01  0.59315710D-01  0.87460980D-01
  0.31304804D-01 -0.95118730D-02  0.12061228D-02  0.19283847D-16  0.16345287D-16
  0.28687419D-01 -0.42957382D-16 -0.34342655D-16 -0.25872104D-03 -0.98696071D-17
  0.63399238D-18 -0.93659568D-03 -0.28750631D-02 -0.28750631D-02  0.57501261D-02
 -0.34036619D-17 -0.46108305D-17 -0.16048482D-16 -0.74429668D-04 -0.74429668D-04
  0.14885934D-03  0.96297705D-18 -0.18427706D-16 -0.14486003D-16
MO    5     MO 0.0        OCC NO =    2.0000000  ORB. ENERGY =   -0.678127
 -0.47042865D-03 -0.87698596D-03 -0.14822608D-02 -0.22283235D-02 -0.27377528D-02
 -0.23124699D-02 -0.87217857D-03  0.43164604D-05  0.16378343D-02  0.30665425D-02
  0.52210510D-02  0.80761720D-02  0.10636034D-01  0.11051521D-01  0.70227455D-02
 -0.47064807D-02 -0.10518086D-02 -0.29938115D-01 -0.10163907D-02  0.24933675D-15
  0.23376906D-15  0.16645749D-15 -0.27544552D-15 -0.25824768D-15 -0.18388774D-15
 -0.47488439D+00 -0.44523430D+00 -0.31703335D+00  0.12911156D-15 -0.16839025D-15
 -0.10054983D+00 -0.27840445D-16 -0.32790863D-16 -0.17148922D-01  0.60590868D-18
 -0.10510242D-16 -0.44476094D-04 -0.29128206D-02 -0.29128206D-02  0.58256412D-02
 -0.82041111D-16  0.12563141D-15  0.13015850D-14  0.20054270D-02  0.20054270D-02
 -0.40108541D-02  0.17915862D-16  0.21054940D-16 -0.34667076D-17 -0.19879075D-04
 -0.19879075D-04  0.39758150D-04  0.41869214D-19  0.15490966D-16 -0.95061953D-17
 -0.40661751D-17  0.11409038D-16 -0.47972335D-02 -0.39311124D-17  0.10706150D-16
  0.71958503D-02  0.16129638D-16 -0.44933265D-16  0.71958503D-02  0.60774895D-17
  0.30321026D-17 -0.25663944D-17 -0.72609266D-03  0.30455496D-17 -0.26030933D-17
  0.10891390D-02 -0.12141857D-16  0.10302276D-16  0.10891390D-02 -0.17656215D-17
 -0.47042865D-03 -0.87698596D-03 -0.14822608D-02 -0.22283235D-02 -0.27377528D-02
 -0.23124699D-02 -0.87217857D-03  0.43164604D-05  0.16378343D-02  0.30665425D-02
  0.52210510D-02  0.80761720D-02  0.10636034D-01  0.11051521D-01  0.70227455D-02
 -0.47064807D-02 -0.10518086D-02 -0.29938115D-01 -0.10163907D-02  0.66160241D-16
  0.62029432D-16  0.44168651D-16 -0.22911863D-15 -0.21481328D-15 -0.15295985D-15
  0.47488439D+00  0.44523430D+00  0.31703335D+00  0.31887616D-16 -0.84631378D-16
  0.10054983D+00  0.33817120D-16  0.10177596D-16  0.17148922D-01 -0.59501202D-18
  0.36823585D-17  0.44476094D-04 -0.29128206D-02 -0.29128206D-02  0.58256412D-02
 -0.59439563D-17 -0.30729552D-16 -0.51853071D-17  0.20054270D-02  0.20054270D-02
 -0.40108541D-02  0.29216618D-17  0.16382801D-16 -0.27890323D-16 -0.19879075D-04
 -0.19879075D-04  0.39758150D-04  0.27276648D-18  0.43946140D-17  0.72244783D-17
  0.42922143D-18  0.65393258D-17  0.47972335D-02  0.21312143D-18  0.65077249D-17
 -0.71958503D-02 -0.15007857D-17 -0.26125702D-16 -0.71958503D-02  0.84357303D-17
  0.94126465D-18 -0.47565844D-17  0.72609266D-03  0.92161005D-18 -0.46888154D-17
 -0.10891390D-02 -0.37454040D-17  0.18958569D-16 -0.10891390D-02 -0.46022283D-17
 -0.32824490D-01 -0.59200320D-01 -0.87290837D-01 -0.48674629D-01  0.90470967D-02
  0.14430488D-03  0.10430841D-18 -0.12667918D-16  0.26662212D-01  0.31203551D-16
 -0.94489510D-17  0.65444354D-02 -0.25591943D-16  0.24292100D-16 -0.23489004D-02
  0.43924046D-02  0.43924046D-02 -0.87848092D-02 -0.17415756D-17 -0.27778623D-16
 -0.50678422D-16  0.32500739D-03  0.32500739D-03 -0.65001478D-03  0.30226344D-17
  0.51413002D-17 -0.45866463D-17 -0.32824490D-01 -0.59200320D-01 -0.87290837D-01
 -0.48674629D-01  0.90470967D-02  0.14430488D-03 -0.54340125D-17 -0.21764245D-16
 -0.26662212D-01  0.26127585D-17 -0.18214327D-16 -0.65444354D-02  0.30873143D-17
 -0.99128255D-17  0.23489004D-02  0.43924046D-02  0.43924046D-02 -0.87848092D-02
  0.72362508D-17 -0.65693226D-17  0.36765586D-16  0.32500739D-03  0.32500739D-03
 -0.65001478D-03 -0.70337660D-17  0.16090884D-17 -0.41052664D-17
MO    6     MO 0.0        OCC NO =    2.0000000  ORB. ENERGY =   -0.409627
 -0.19024280D-15 -0.35465583D-15 -0.59943083D-15 -0.90114088D-15 -0.11071557D-14
 -0.93516997D-15 -0.35271171D-15  0.17455899D-17  0.60252949D-16  0.11281253D-15
  0.19207299D-15  0.29710771D-15  0.39128040D-15  0.40656540D-15  0.25835406D-15
 -0.17314288D-15 -0.37678081D-15  0.57736507D-14  0.95654495D-15  0.11949443D+00
  0.11203362D+00  0.79774612D-01  0.45824681D+00  0.42963551D+00  0.30592608D+00
  0.26955406D-15  0.25272407D-15  0.17995459D-15  0.31743389D-01  0.12173209D+00
 -0.63769195D-16  0.48980920D-02  0.18783596D-01 -0.76002151D-15  0.73175440D-04
  0.28061905D-03 -0.12898209D-16 -0.43977501D-16  0.65931457D-15 -0.61533707D-15
 -0.19133873D-15 -0.14040356D-01 -0.53843084D-01 -0.17203536D-15 -0.30001308D-15
  0.47204844D-15 -0.50390540D-16 -0.21790619D-02 -0.83564412D-02 -0.43891220D-16
 -0.43168947D-16  0.87060167D-16 -0.32618926D-19  0.13526826D-03  0.51873758D-03
 -0.11845846D-02 -0.45427398D-02 -0.23174881D-15 -0.11845846D-02 -0.45427398D-02
  0.74963961D-15  0.47383382D-02  0.18170959D-01 -0.54393180D-16  0.40634157D-15
  0.46281815D-04  0.17748522D-03  0.10704112D-15  0.46281815D-04  0.17748522D-03
 -0.27205162D-15 -0.18512726D-03 -0.70994087D-03 -0.49071749D-16 -0.24925299D-16
 -0.14703241D-15 -0.27410184D-15 -0.46328040D-15 -0.69646219D-15 -0.85568428D-15
 -0.72276216D-15 -0.27259930D-15  0.13491091D-17  0.13658817D-15  0.25573614D-15
  0.43541267D-15  0.67351719D-15  0.88699845D-15  0.92164820D-15  0.58566606D-15
 -0.39249977D-15 -0.11617486D-15 -0.32355639D-14 -0.69722247D-15  0.11949443D+00
  0.11203362D+00  0.79774612D-01  0.45824681D+00  0.42963551D+00  0.30592608D+00
 -0.68025773D-15 -0.63778486D-15 -0.45414081D-15  0.31743389D-01  0.12173209D+00
  0.85187148D-15  0.48980920D-02  0.18783596D-01 -0.17180736D-14  0.73175440D-04
  0.28061905D-03 -0.72289243D-16  0.85241014D-15 -0.60520310D-15 -0.24720704D-15
  0.14125867D-15  0.14040356D-01  0.53843084D-01  0.38124320D-16  0.29494660D-15
 -0.33307092D-15 -0.15719893D-16  0.21790619D-02  0.83564412D-02  0.63178470D-16
  0.79108513D-16 -0.14228698D-15 -0.84254105D-17 -0.13526826D-03 -0.51873758D-03
 -0.11845846D-02 -0.45427398D-02  0.31266351D-15 -0.11845846D-02 -0.45427398D-02
 -0.22189737D-15  0.47383382D-02  0.18170959D-01 -0.71609317D-15  0.18930020D-16
  0.46281815D-04  0.17748522D-03  0.72655612D-16  0.46281815D-04  0.17748522D-03
 -0.17701797D-15 -0.18512726D-03 -0.70994087D-03 -0.40948862D-16 -0.12881492D-16
  0.41713467D-16  0.75231955D-16  0.11092947D-15 -0.14560930D-14 -0.65041009D-15
 -0.93270205D-17  0.20523564D-02  0.78705408D-02 -0.13293372D-15  0.17609472D-02
  0.67530215D-02  0.92863970D-16 -0.18937343D-03 -0.72622440D-03 -0.81272996D-16
 -0.19353370D-15 -0.67034027D-16  0.26056772D-15 -0.37746042D-16 -0.53097506D-03
 -0.20362257D-02 -0.12167115D-17 -0.66288978D-16  0.67505689D-16 -0.37651541D-17
 -0.16352197D-04 -0.62708717D-04  0.34216742D-16  0.61711304D-16  0.90993281D-16
  0.14624104D-14 -0.14559765D-14 -0.78565612D-16  0.20523564D-02  0.78705408D-02
  0.59149538D-15  0.17609472D-02  0.67530215D-02  0.68535006D-15 -0.18937343D-03
 -0.72622440D-03 -0.50046221D-15 -0.68583726D-15  0.29237146D-15  0.39346581D-15
 -0.81950579D-16  0.53097506D-03  0.20362257D-02  0.43868256D-17 -0.43868256D-17
  0.00000000D+00  0.10892987D-16  0.16352197D-04  0.62708717D-04
MO    7     MO 0.0        OCC NO =    2.0000000  ORB. ENERGY =   -0.409627
  0.99416879D-16  0.18533567D-15  0.31324993D-15  0.47091725D-15  0.57857625D-15
  0.48870014D-15  0.18431971D-15 -0.91220853D-18 -0.51079417D-16 -0.95636784D-16
 -0.16282981D-15 -0.25187295D-15 -0.33170782D-15 -0.34466567D-15 -0.21901956D-15
  0.14678182D-15 -0.58815940D-16  0.21626662D-14  0.32882950D-14  0.45824681D+00
  0.42963551D+00  0.30592608D+00 -0.11949443D+00 -0.11203362D+00 -0.79774612D-01
  0.77507724D-15  0.72668418D-15  0.51744243D-15  0.12173209D+00 -0.31743389D-01
 -0.24250376D-14  0.18783596D-01 -0.48980920D-02 -0.19002792D-15  0.28061905D-03
 -0.73175440D-04 -0.24836419D-15  0.10798497D-15 -0.11903949D-15  0.11054516D-16
  0.24319275D-15 -0.53843084D-01  0.14040356D-01 -0.85914049D-16 -0.36552194D-16
  0.12246624D-15  0.14990504D-16 -0.83564412D-02  0.21790619D-02 -0.22657175D-16
 -0.24499152D-16  0.47156327D-16  0.31639394D-17  0.51873758D-03 -0.13526826D-03
 -0.45427398D-02  0.11845846D-02 -0.43298439D-15 -0.45427398D-02  0.11845846D-02
  0.82048239D-15  0.18170959D-01 -0.47383382D-02  0.47847079D-15 -0.39088648D-15
  0.17748522D-03 -0.46281815D-04  0.16818869D-16  0.17748522D-03 -0.46281815D-04
 -0.28740862D-16 -0.70994087D-03  0.18512726D-03 -0.21715744D-16  0.75832238D-17
 -0.19085910D-15 -0.35580477D-15 -0.60137273D-15 -0.90406020D-15 -0.11107424D-14
 -0.93819954D-15 -0.35385435D-15  0.17512449D-17  0.10998874D-15  0.20593362D-15
  0.35061961D-15  0.54235522D-15  0.71426275D-15  0.74216475D-15  0.47161238D-15
 -0.31606365D-15  0.20504255D-15 -0.27838554D-14 -0.31816286D-14  0.45824681D+00
  0.42963551D+00  0.30592608D+00 -0.11949443D+00 -0.11203362D+00 -0.79774612D-01
 -0.62469782D-15 -0.58569391D-15 -0.41704896D-15  0.12173209D+00 -0.31743389D-01
 -0.10351044D-14  0.18783596D-01 -0.48980920D-02 -0.20450568D-15  0.28061905D-03
 -0.73175440D-04 -0.31426058D-15  0.15971026D-15  0.18018915D-15 -0.33989942D-15
 -0.59740474D-16  0.53843084D-01 -0.14040356D-01  0.25818491D-15  0.27948689D-15
 -0.53767180D-15 -0.75200164D-16  0.83564412D-02 -0.21790619D-02  0.35647651D-16
  0.24919623D-16 -0.60567274D-16 -0.38170060D-17 -0.51873758D-03  0.13526826D-03
 -0.45427398D-02  0.11845846D-02 -0.94738722D-16 -0.45427398D-02  0.11845846D-02
  0.56606863D-16  0.18170959D-01 -0.47383382D-02  0.22760930D-15 -0.80624292D-16
  0.17748522D-03 -0.46281815D-04  0.26528406D-16  0.17748522D-03 -0.46281815D-04
 -0.33045169D-16 -0.70994087D-03  0.18512726D-03 -0.46540050D-16  0.20535568D-16
  0.61965130D-16  0.11175666D-15  0.16478513D-15  0.77824574D-15 -0.93212792D-15
  0.33616997D-15  0.78705408D-02 -0.20523564D-02 -0.85433133D-15  0.67530215D-02
 -0.17609472D-02 -0.75464826D-15 -0.72622440D-03  0.18937343D-03  0.35772262D-16
 -0.27979447D-15 -0.36025117D-15  0.64004564D-15  0.67828653D-16 -0.20362257D-02
  0.53097506D-03  0.24395370D-17 -0.29347216D-16  0.26907679D-16 -0.15859627D-16
 -0.62708717D-04  0.16352197D-04  0.13242039D-15  0.23882563D-15  0.35214825D-15
  0.59051053D-15  0.10562779D-14 -0.37151701D-15  0.78705408D-02 -0.20523564D-02
  0.76701997D-15  0.67530215D-02 -0.17609472D-02 -0.65912284D-17 -0.72622440D-03
  0.18937343D-03  0.11443186D-15 -0.45447904D-17  0.24653095D-15 -0.24198616D-15
 -0.20941616D-16  0.20362257D-02 -0.53097506D-03  0.47809958D-16  0.39196806D-16
 -0.87006764D-16  0.16308492D-17  0.62708717D-04 -0.16352197D-04
END DATA
RHF
