 Molden2AIM, Version 4.0.0 (06/02/2016)           Time: Wed Jun 27 22:10:22 2018
GAUSSIAN             16 MOL ORBITALS    354 PRIMITIVES        6 NUCLEI
  C    1    (CENTRE  1)  -5.42847829  0.68208531  0.00657436  CHARGE =  6.0
  C    2    (CENTRE  2)  -2.92480849  0.80881412 -0.00645908  CHARGE =  6.0
  H    3    (CENTRE  3)  -6.70096884  2.28917265  0.18758366  CHARGE =  1.0
  F    4    (CENTRE  4)  -6.58906304 -1.56773758 -0.21570657  CHARGE =  9.0
  F    5    (CENTRE  5)  -1.76422563  3.05866346  0.21557429  CHARGE =  9.0
  H    6    (CENTRE  6)  -1.65231983 -0.79826378 -0.18756855  CHARGE =  1.0
CENTRE ASSIGNMENTS    1  1  1  1  1  1  1  1  1  1  1  1  1  1  1  1  1  1  1  1
CENTRE ASSIGNMENTS    1  1  1  1  1  1  1  1  1  1  1  1  1  1  1  1  1  1  1  1
CENTRE ASSIGNMENTS    1  1  1  1  1  1  1  1  1  1  1  1  1  1  1  1  1  1  1  1
CENTRE ASSIGNMENTS    1  1  1  1  1  1  1  1  1  1  1  1  1  1  1  2  2  2  2  2
CENTRE ASSIGNMENTS    2  2  2  2  2  2  2  2  2  2  2  2  2  2  2  2  2  2  2  2
CENTRE ASSIGNMENTS    2  2  2  2  2  2  2  2  2  2  2  2  2  2  2  2  2  2  2  2
CENTRE ASSIGNMENTS    2  2  2  2  2  2  2  2  2  2  2  2  2  2  2  2  2  2  2  2
CENTRE ASSIGNMENTS    2  2  2  2  2  2  2  2  2  2  3  3  3  3  3  3  3  3  3  3
CENTRE ASSIGNMENTS    3  3  3  3  3  3  3  3  3  3  3  3  3  3  3  3  3  4  4  4
CENTRE ASSIGNMENTS    4  4  4  4  4  4  4  4  4  4  4  4  4  4  4  4  4  4  4  4
CENTRE ASSIGNMENTS    4  4  4  4  4  4  4  4  4  4  4  4  4  4  4  4  4  4  4  4
CENTRE ASSIGNMENTS    4  4  4  4  4  4  4  4  4  4  4  4  4  4  4  4  4  4  4  4
CENTRE ASSIGNMENTS    4  4  4  4  4  4  4  4  4  4  4  4  5  5  5  5  5  5  5  5
CENTRE ASSIGNMENTS    5  5  5  5  5  5  5  5  5  5  5  5  5  5  5  5  5  5  5  5
CENTRE ASSIGNMENTS    5  5  5  5  5  5  5  5  5  5  5  5  5  5  5  5  5  5  5  5
CENTRE ASSIGNMENTS    5  5  5  5  5  5  5  5  5  5  5  5  5  5  5  5  5  5  5  5
CENTRE ASSIGNMENTS    5  5  5  5  5  5  5  6  6  6  6  6  6  6  6  6  6  6  6  6
CENTRE ASSIGNMENTS    6  6  6  6  6  6  6  6  6  6  6  6  6  6
TYPE ASSIGNMENTS      1  1  1  1  1  1  1  1  1  1  1  1  1  1  1  1  1  1  1  2
TYPE ASSIGNMENTS      2  2  3  3  3  4  4  4  2  3  4  2  3  4  2  3  4  5  6  7
TYPE ASSIGNMENTS      8  9 10  5  6  7  8  9 10  5  6  7  8  9 10 11 12 13 17 14
TYPE ASSIGNMENTS     15 18 19 16 20 11 12 13 17 14 15 18 19 16 20  1  1  1  1  1
TYPE ASSIGNMENTS      1  1  1  1  1  1  1  1  1  1  1  1  1  1  2  2  2  3  3  3
TYPE ASSIGNMENTS      4  4  4  2  3  4  2  3  4  2  3  4  5  6  7  8  9 10  5  6
TYPE ASSIGNMENTS      7  8  9 10  5  6  7  8  9 10 11 12 13 17 14 15 18 19 16 20
TYPE ASSIGNMENTS     11 12 13 17 14 15 18 19 16 20  1  1  1  1  1  1  2  3  4  2
TYPE ASSIGNMENTS      3  4  2  3  4  5  6  7  8  9 10  5  6  7  8  9 10  1  1  1
TYPE ASSIGNMENTS      1  1  1  1  1  1  1  1  1  1  1  1  1  1  1  1  2  2  2  3
TYPE ASSIGNMENTS      3  3  4  4  4  2  3  4  2  3  4  2  3  4  5  6  7  8  9 10
TYPE ASSIGNMENTS      5  6  7  8  9 10  5  6  7  8  9 10 11 12 13 17 14 15 18 19
TYPE ASSIGNMENTS     16 20 11 12 13 17 14 15 18 19 16 20  1  1  1  1  1  1  1  1
TYPE ASSIGNMENTS      1  1  1  1  1  1  1  1  1  1  1  2  2  2  3  3  3  4  4  4
TYPE ASSIGNMENTS      2  3  4  2  3  4  2  3  4  5  6  7  8  9 10  5  6  7  8  9
TYPE ASSIGNMENTS     10  5  6  7  8  9 10 11 12 13 17 14 15 18 19 16 20 11 12 13
TYPE ASSIGNMENTS     17 14 15 18 19 16 20  1  1  1  1  1  1  2  3  4  2  3  4  2
TYPE ASSIGNMENTS      3  4  5  6  7  8  9 10  5  6  7  8  9 10
EXPONENTS  0.8236000D+04 0.1235000D+04 0.2808000D+03 0.7927000D+02 0.2559000D+02
EXPONENTS  0.8997000D+01 0.3319000D+01 0.3643000D+00 0.8236000D+04 0.1235000D+04
EXPONENTS  0.2808000D+03 0.7927000D+02 0.2559000D+02 0.8997000D+01 0.3319000D+01
EXPONENTS  0.3643000D+00 0.9059000D+00 0.1285000D+00 0.4402000D-01 0.1871000D+02
EXPONENTS  0.4133000D+01 0.1200000D+01 0.1871000D+02 0.4133000D+01 0.1200000D+01
EXPONENTS  0.1871000D+02 0.4133000D+01 0.1200000D+01 0.3827000D+00 0.3827000D+00
EXPONENTS  0.3827000D+00 0.1209000D+00 0.1209000D+00 0.1209000D+00 0.3569000D-01
EXPONENTS  0.3569000D-01 0.3569000D-01 0.1097000D+01 0.1097000D+01 0.1097000D+01
EXPONENTS  0.1097000D+01 0.1097000D+01 0.1097000D+01 0.3180000D+00 0.3180000D+00
EXPONENTS  0.3180000D+00 0.3180000D+00 0.3180000D+00 0.3180000D+00 0.1000000D+00
EXPONENTS  0.1000000D+00 0.1000000D+00 0.1000000D+00 0.1000000D+00 0.1000000D+00
EXPONENTS  0.7610000D+00 0.7610000D+00 0.7610000D+00 0.7610000D+00 0.7610000D+00
EXPONENTS  0.7610000D+00 0.7610000D+00 0.7610000D+00 0.7610000D+00 0.7610000D+00
EXPONENTS  0.2680000D+00 0.2680000D+00 0.2680000D+00 0.2680000D+00 0.2680000D+00
EXPONENTS  0.2680000D+00 0.2680000D+00 0.2680000D+00 0.2680000D+00 0.2680000D+00
EXPONENTS  0.8236000D+04 0.1235000D+04 0.2808000D+03 0.7927000D+02 0.2559000D+02
EXPONENTS  0.8997000D+01 0.3319000D+01 0.3643000D+00 0.8236000D+04 0.1235000D+04
EXPONENTS  0.2808000D+03 0.7927000D+02 0.2559000D+02 0.8997000D+01 0.3319000D+01
EXPONENTS  0.3643000D+00 0.9059000D+00 0.1285000D+00 0.4402000D-01 0.1871000D+02
EXPONENTS  0.4133000D+01 0.1200000D+01 0.1871000D+02 0.4133000D+01 0.1200000D+01
EXPONENTS  0.1871000D+02 0.4133000D+01 0.1200000D+01 0.3827000D+00 0.3827000D+00
EXPONENTS  0.3827000D+00 0.1209000D+00 0.1209000D+00 0.1209000D+00 0.3569000D-01
EXPONENTS  0.3569000D-01 0.3569000D-01 0.1097000D+01 0.1097000D+01 0.1097000D+01
EXPONENTS  0.1097000D+01 0.1097000D+01 0.1097000D+01 0.3180000D+00 0.3180000D+00
EXPONENTS  0.3180000D+00 0.3180000D+00 0.3180000D+00 0.3180000D+00 0.1000000D+00
EXPONENTS  0.1000000D+00 0.1000000D+00 0.1000000D+00 0.1000000D+00 0.1000000D+00
EXPONENTS  0.7610000D+00 0.7610000D+00 0.7610000D+00 0.7610000D+00 0.7610000D+00
EXPONENTS  0.7610000D+00 0.7610000D+00 0.7610000D+00 0.7610000D+00 0.7610000D+00
EXPONENTS  0.2680000D+00 0.2680000D+00 0.2680000D+00 0.2680000D+00 0.2680000D+00
EXPONENTS  0.2680000D+00 0.2680000D+00 0.2680000D+00 0.2680000D+00 0.2680000D+00
EXPONENTS  0.3387000D+02 0.5095000D+01 0.1159000D+01 0.3258000D+00 0.1027000D+00
EXPONENTS  0.2526000D-01 0.1407000D+01 0.1407000D+01 0.1407000D+01 0.3880000D+00
EXPONENTS  0.3880000D+00 0.3880000D+00 0.1020000D+00 0.1020000D+00 0.1020000D+00
EXPONENTS  0.1057000D+01 0.1057000D+01 0.1057000D+01 0.1057000D+01 0.1057000D+01
EXPONENTS  0.1057000D+01 0.2470000D+00 0.2470000D+00 0.2470000D+00 0.2470000D+00
EXPONENTS  0.2470000D+00 0.2470000D+00 0.1950000D+05 0.2923000D+04 0.6645000D+03
EXPONENTS  0.1875000D+03 0.6062000D+02 0.2142000D+02 0.7950000D+01 0.8815000D+00
EXPONENTS  0.1950000D+05 0.2923000D+04 0.6645000D+03 0.1875000D+03 0.6062000D+02
EXPONENTS  0.2142000D+02 0.7950000D+01 0.8815000D+00 0.2257000D+01 0.3041000D+00
EXPONENTS  0.9158000D-01 0.4388000D+02 0.9926000D+01 0.2930000D+01 0.4388000D+02
EXPONENTS  0.9926000D+01 0.2930000D+01 0.4388000D+02 0.9926000D+01 0.2930000D+01
EXPONENTS  0.9132000D+00 0.9132000D+00 0.9132000D+00 0.2672000D+00 0.2672000D+00
EXPONENTS  0.2672000D+00 0.7361000D-01 0.7361000D-01 0.7361000D-01 0.3107000D+01
EXPONENTS  0.3107000D+01 0.3107000D+01 0.3107000D+01 0.3107000D+01 0.3107000D+01
EXPONENTS  0.8550000D+00 0.8550000D+00 0.8550000D+00 0.8550000D+00 0.8550000D+00
EXPONENTS  0.8550000D+00 0.2920000D+00 0.2920000D+00 0.2920000D+00 0.2920000D+00
EXPONENTS  0.2920000D+00 0.2920000D+00 0.1917000D+01 0.1917000D+01 0.1917000D+01
EXPONENTS  0.1917000D+01 0.1917000D+01 0.1917000D+01 0.1917000D+01 0.1917000D+01
EXPONENTS  0.1917000D+01 0.1917000D+01 0.7240000D+00 0.7240000D+00 0.7240000D+00
EXPONENTS  0.7240000D+00 0.7240000D+00 0.7240000D+00 0.7240000D+00 0.7240000D+00
EXPONENTS  0.7240000D+00 0.7240000D+00 0.1950000D+05 0.2923000D+04 0.6645000D+03
EXPONENTS  0.1875000D+03 0.6062000D+02 0.2142000D+02 0.7950000D+01 0.8815000D+00
EXPONENTS  0.1950000D+05 0.2923000D+04 0.6645000D+03 0.1875000D+03 0.6062000D+02
EXPONENTS  0.2142000D+02 0.7950000D+01 0.8815000D+00 0.2257000D+01 0.3041000D+00
EXPONENTS  0.9158000D-01 0.4388000D+02 0.9926000D+01 0.2930000D+01 0.4388000D+02
EXPONENTS  0.9926000D+01 0.2930000D+01 0.4388000D+02 0.9926000D+01 0.2930000D+01
EXPONENTS  0.9132000D+00 0.9132000D+00 0.9132000D+00 0.2672000D+00 0.2672000D+00
EXPONENTS  0.2672000D+00 0.7361000D-01 0.7361000D-01 0.7361000D-01 0.3107000D+01
EXPONENTS  0.3107000D+01 0.3107000D+01 0.3107000D+01 0.3107000D+01 0.3107000D+01
EXPONENTS  0.8550000D+00 0.8550000D+00 0.8550000D+00 0.8550000D+00 0.8550000D+00
EXPONENTS  0.8550000D+00 0.2920000D+00 0.2920000D+00 0.2920000D+00 0.2920000D+00
EXPONENTS  0.2920000D+00 0.2920000D+00 0.1917000D+01 0.1917000D+01 0.1917000D+01
EXPONENTS  0.1917000D+01 0.1917000D+01 0.1917000D+01 0.1917000D+01 0.1917000D+01
EXPONENTS  0.1917000D+01 0.1917000D+01 0.7240000D+00 0.7240000D+00 0.7240000D+00
EXPONENTS  0.7240000D+00 0.7240000D+00 0.7240000D+00 0.7240000D+00 0.7240000D+00
EXPONENTS  0.7240000D+00 0.7240000D+00 0.3387000D+02 0.5095000D+01 0.1159000D+01
EXPONENTS  0.3258000D+00 0.1027000D+00 0.2526000D-01 0.1407000D+01 0.1407000D+01
EXPONENTS  0.1407000D+01 0.3880000D+00 0.3880000D+00 0.3880000D+00 0.1020000D+00
EXPONENTS  0.1020000D+00 0.1020000D+00 0.1057000D+01 0.1057000D+01 0.1057000D+01
EXPONENTS  0.1057000D+01 0.1057000D+01 0.1057000D+01 0.2470000D+00 0.2470000D+00
EXPONENTS  0.2470000D+00 0.2470000D+00 0.2470000D+00 0.2470000D+00
MO    1     MO 0.0        OCC NO =    2.0000000  ORB. ENERGY =  -26.325036
 -0.42146396D-04 -0.78570466D-04 -0.13279793D-03 -0.19963879D-03 -0.24527931D-03
 -0.20717759D-03 -0.78139765D-04  0.38671806D-06  0.29828956D-04  0.55849217D-04
  0.95088071D-04  0.14708679D-03  0.19370812D-03  0.20127515D-03  0.12790132D-03
 -0.85716491D-04 -0.26701966D-03 -0.98792071D-04  0.34676452D-05 -0.19284672D-04
 -0.18080606D-04 -0.12874468D-04  0.88405923D-04  0.82886173D-04  0.59019893D-04
  0.94318648D-05  0.88429727D-05  0.62967234D-05 -0.15988408D-04 -0.11575056D-04
 -0.10934788D-05  0.11054632D-04  0.14435828D-03  0.14932695D-04 -0.44498420D-05
 -0.42905503D-05 -0.39951164D-06 -0.74300135D-04  0.23912472D-03 -0.16482458D-03
  0.35067956D-03  0.34551474D-04  0.81368577D-04 -0.38257252D-04  0.99892183D-04
 -0.61634931D-04  0.38923495D-03  0.39953879D-04  0.29846878D-04  0.54020597D-05
 -0.72689338D-05  0.18668741D-05  0.42588223D-04  0.43660689D-05 -0.23860877D-05
  0.93338469D-04 -0.73550109D-04  0.25905525D-04 -0.37358516D-03 -0.30980248D-04
 -0.41512909D-05  0.93569749D-04  0.25163057D-03 -0.73565283D-04 -0.92205912D-04
  0.26854869D-04 -0.20588252D-04  0.41196649D-05 -0.90054455D-04  0.22343781D-04
  0.16900400D-05  0.94898460D-05  0.39420975D-04 -0.14049035D-04 -0.20586252D-04
 -0.44238556D-04 -0.82470726D-04 -0.13939006D-03 -0.20954891D-03 -0.25745505D-03
 -0.21746195D-03 -0.82018645D-04  0.40591485D-06  0.31435038D-04  0.58856310D-04
  0.10020790D-03  0.15500639D-03  0.20413796D-03  0.21211242D-03  0.13478792D-03
 -0.90331729D-04 -0.26261793D-03 -0.10262570D-03  0.64332908D-05  0.24811590D-04
  0.23262443D-04  0.16564245D-04 -0.83170459D-04 -0.77977592D-04 -0.55524691D-04
 -0.89493764D-05 -0.83906092D-05 -0.59746136D-05  0.11746560D-04 -0.12115993D-05
 -0.19735391D-06 -0.10339771D-04 -0.13763858D-03 -0.14236955D-04  0.43740300D-05
  0.42490161D-05  0.39590814D-06 -0.73562493D-04  0.23156975D-03 -0.15800726D-03
  0.33750699D-03  0.33291311D-04  0.78377834D-04 -0.36044690D-04  0.96719880D-04
 -0.60675190D-04  0.38826126D-03  0.39828362D-04  0.28996815D-04  0.47992775D-05
 -0.61926783D-05  0.13934008D-05  0.44124584D-04  0.45261342D-05 -0.20620286D-05
 -0.88848987D-04  0.71197712D-04 -0.24913832D-04  0.35325458D-03  0.28328692D-04
  0.38711399D-05 -0.86707622D-04 -0.24192183D-03  0.70870355D-04  0.86591036D-04
 -0.25890868D-04  0.19200792D-04 -0.42073982D-05  0.87129868D-04 -0.17377255D-04
 -0.11841990D-05 -0.94572633D-05 -0.40225122D-04  0.13806394D-04  0.19798508D-04
 -0.87123361D-05 -0.15713057D-04 -0.23168893D-04  0.69337977D-04  0.90995681D-04
 -0.12507085D-05 -0.72196748D-04 -0.30195661D-04 -0.23627410D-05  0.15623348D-05
 -0.10559031D-03 -0.11099520D-04  0.25348634D-05  0.76590629D-05  0.76599223D-06
 -0.30452940D-04  0.74930370D-04 -0.44477430D-04  0.64977832D-04  0.64016481D-05
  0.24512476D-04  0.96403958D-05  0.23731026D-05 -0.12013498D-04  0.21235389D-04
  0.17402274D-05  0.28086950D-05  0.42828985D+00  0.79835084D+00  0.13534009D+01
  0.20494479D+01  0.25628418D+01  0.22063680D+01  0.84820843D+00 -0.36754260D-02
  0.31157680D-03  0.58508604D-03  0.99630063D-03  0.15606990D-02  0.20915203D-02
  0.22497121D-02  0.13507242D-02 -0.88829306D-03  0.41397934D-01  0.70169807D-03
 -0.33880260D-04  0.31785000D-02  0.31085035D-02  0.20539197D-02  0.57225346D-02
  0.55965139D-02  0.36978533D-02  0.56303414D-03  0.55063509D-03  0.36382789D-03
 -0.68751339D-03 -0.11482184D-02 -0.11244731D-03  0.16615782D-03  0.16506000D-03
  0.15420461D-04  0.15781223D-04 -0.39713487D-05 -0.58181772D-06  0.11985432D-04
 -0.10221308D-03  0.90227646D-04 -0.21553434D-03 -0.20743151D-04 -0.38225136D-04
  0.77090297D-04 -0.23990260D-03  0.16281231D-03 -0.45938175D-03 -0.46017198D-04
 -0.79943705D-04  0.13296338D-04  0.35707984D-04 -0.49004322D-04  0.10089616D-03
  0.91720869D-05  0.16755896D-04  0.39849079D-05 -0.82099013D-04  0.43526149D-04
 -0.29609683D-03 -0.18958955D-03 -0.13773821D-04  0.28414211D-03  0.43588659D-03
 -0.11680463D-03 -0.10840129D-03  0.14643515D-04  0.10712760D-04 -0.99925322D-05
  0.31269687D-04  0.69044072D-04  0.51215637D-05 -0.75200231D-04 -0.10118235D-03
  0.24856033D-04  0.18669161D-04  0.41380322D+00  0.77134712D+00  0.13076230D+01
  0.19801266D+01  0.24761553D+01  0.21317390D+01  0.81951831D+00 -0.35511070D-02
  0.30086766D-03  0.56497618D-03  0.96205700D-03  0.15070566D-02  0.20196331D-02
  0.21723878D-02  0.13042988D-02 -0.85776173D-03  0.39997080D-01  0.67053257D-03
 -0.41222757D-04 -0.30738233D-02 -0.30061321D-02 -0.19862786D-02 -0.55296203D-02
 -0.54078479D-02 -0.35731938D-02 -0.54328240D-03 -0.53131832D-03 -0.35106448D-03
  0.66654400D-03  0.11104259D-02  0.10859605D-03 -0.16732375D-03 -0.15704079D-03
 -0.14586156D-04 -0.15765129D-04  0.45293812D-05  0.63415553D-06  0.14202536D-04
 -0.10012521D-03  0.85922678D-04 -0.21314933D-03 -0.20626694D-04 -0.36844330D-04
  0.73490945D-04 -0.23090083D-03  0.15740989D-03 -0.44086339D-03 -0.44043952D-04
 -0.76991849D-04  0.14105202D-04  0.33497863D-04 -0.47603065D-04  0.10137907D-03
  0.92260999D-05  0.15985130D-04 -0.71552539D-05  0.76321176D-04 -0.41595721D-04
  0.29468075D-03  0.18810430D-03  0.13932554D-04 -0.27321498D-03 -0.41706783D-03
  0.11085461D-03  0.10612422D-03 -0.12403423D-04 -0.97755236D-05  0.96302691D-05
 -0.35355732D-04 -0.68257037D-04 -0.51607703D-05  0.72566002D-04  0.97583608D-04
 -0.23730037D-04 -0.19053955D-04 -0.79628996D-05 -0.14361417D-04 -0.21175901D-04
  0.75934114D-04  0.97688191D-04 -0.13422542D-05  0.69489646D-04  0.31910087D-04
  0.25648721D-05  0.33878830D-06  0.10549702D-03  0.11043133D-04 -0.19116517D-05
 -0.54906530D-05 -0.53248315D-06 -0.29905512D-04  0.73283566D-04 -0.43378054D-04
  0.63311172D-04  0.62454090D-05  0.23920515D-04  0.94841789D-05  0.21946723D-05
 -0.11678851D-04  0.20669373D-04  0.16815776D-05  0.27019861D-05
MO    2     MO 0.0        OCC NO =    2.0000000  ORB. ENERGY =  -26.325033
 -0.61546100D-04 -0.11473592D-03 -0.19392392D-03 -0.29153118D-03 -0.35817974D-03
 -0.30254005D-03 -0.11410697D-03  0.56472179D-06  0.47203214D-04  0.88379311D-04
  0.15047334D-03  0.23275937D-03  0.30653591D-03  0.31851044D-03  0.20239909D-03
 -0.13564316D-03  0.12336506D-03 -0.11310541D-03  0.86276668D-04 -0.16101396D-03
 -0.15096082D-03 -0.10749310D-03 -0.15067368D-03 -0.14126616D-03 -0.10058992D-03
 -0.14012349D-04 -0.13137468D-04 -0.93546599D-05  0.12298862D-03  0.37152456D-03
  0.37392144D-04 -0.20562361D-04 -0.19289404D-03 -0.19897337D-04  0.21275790D-05
  0.11337007D-05  0.96381576D-07  0.20164068D-04 -0.21580914D-03  0.19564508D-03
 -0.37692214D-03 -0.35529895D-04 -0.82649211D-04  0.63649377D-04 -0.90454208D-04
  0.26804831D-04 -0.21589869D-04 -0.30708601D-05 -0.24481113D-04 -0.17429240D-04
  0.31204972D-04 -0.13775732D-04  0.45388634D-04  0.48021670D-05  0.89778872D-05
 -0.12891479D-03  0.67337540D-04 -0.27580427D-04  0.58506457D-03  0.76552801D-04
  0.76840047D-05 -0.19832019D-03 -0.27856542D-03  0.75057277D-04  0.15719637D-03
 -0.27561252D-04  0.39995438D-04  0.24992327D-05  0.83609730D-04 -0.14407002D-03
 -0.14189654D-04 -0.92597370D-06  0.24083706D-04  0.66919559D-05  0.21378228D-04
  0.60059754D-04  0.11196504D-03  0.18924064D-03  0.28449066D-03  0.34952965D-03
  0.29523367D-03  0.11135128D-03 -0.55108368D-06 -0.46149083D-04 -0.86405644D-04
 -0.14711300D-03 -0.22756144D-03 -0.29969042D-03 -0.31139754D-03 -0.19787916D-03
  0.13261401D-03 -0.13247646D-03  0.10964027D-03 -0.86106422D-04 -0.16025556D-03
 -0.15024977D-03 -0.10698679D-03 -0.15362422D-03 -0.14403247D-03 -0.10255970D-03
 -0.14340797D-04 -0.13445409D-04 -0.95739319D-05  0.12346588D-03  0.37169701D-03
  0.37452397D-04 -0.20930516D-04 -0.19774510D-03 -0.20405675D-04  0.22793618D-05
  0.12807671D-05  0.10865033D-06 -0.22707967D-04  0.22391519D-03 -0.20120722D-03
  0.38876272D-03  0.36659333D-04  0.85308354D-04 -0.64928772D-04  0.93843332D-04
 -0.28914560D-04  0.34977123D-04  0.43160839D-05  0.25426716D-04  0.17604709D-04
 -0.31436797D-04  0.13832088D-04 -0.43896737D-04 -0.46506508D-05 -0.90521381D-05
 -0.13204860D-03  0.69838067D-04 -0.28433586D-04  0.59758018D-03  0.77568181D-04
  0.78568398D-05 -0.20143438D-03 -0.28708238D-03  0.77443919D-04  0.16014909D-03
 -0.28468314D-04  0.40684998D-04  0.23615407D-05  0.86659180D-04 -0.14475663D-03
 -0.14207531D-04 -0.12542368D-05  0.22701637D-04  0.71229089D-05  0.22055641D-04
  0.21640634D-04  0.39029774D-04  0.57549380D-04  0.19296649D-03  0.19616202D-03
 -0.26825640D-05  0.77461787D-04 -0.50356952D-04 -0.60501787D-05 -0.55272011D-04
  0.99519402D-06  0.58519277D-06 -0.18068037D-04 -0.62952432D-04 -0.63641007D-05
  0.15379516D-04 -0.46689763D-04  0.31310248D-04 -0.47306701D-04 -0.46289848D-05
 -0.15858852D-04 -0.43738366D-05 -0.51625002D-05  0.95363368D-05 -0.16116826D-04
 -0.13849707D-05 -0.29133206D-05 -0.41379521D+00 -0.77133220D+00 -0.13075977D+01
 -0.19800883D+01 -0.24761074D+01 -0.21316978D+01 -0.81950246D+00  0.35510383D-02
 -0.30598025D-03 -0.57457672D-03 -0.97840506D-03 -0.15326657D-02 -0.20539524D-02
 -0.22093027D-02 -0.13264625D-02  0.87233752D-03 -0.40014191D-01 -0.89401501D-03
 -0.21405011D-03 -0.29882745D-02 -0.29224672D-02 -0.19309976D-02 -0.55122056D-02
 -0.53908167D-02 -0.35619405D-02 -0.54311079D-03 -0.53115049D-03 -0.35095359D-03
  0.59775140D-03  0.10793390D-02  0.10621597D-03  0.36737369D-04 -0.23027174D-03
 -0.24401783D-04 -0.19747244D-06 -0.16275061D-04 -0.16975768D-05  0.64655127D-04
  0.59147064D-04 -0.12380219D-03  0.65683089D-04  0.29142448D-05  0.37881709D-04
 -0.10333770D-03  0.25790469D-03 -0.15456699D-03  0.53067204D-03  0.54130327D-04
  0.81211608D-04  0.23746169D-04 -0.63654509D-04  0.39908341D-04  0.15741987D-04
  0.19961943D-05 -0.21992901D-04  0.92233989D-04  0.16675868D-03 -0.54601809D-04
  0.36428955D-04  0.39933812D-04 -0.53422947D-05 -0.31313092D-03 -0.54020986D-03
  0.16914772D-03  0.60769636D-04 -0.64870481D-04 -0.27086322D-04  0.10259631D-04
  0.11927094D-03 -0.21700445D-04  0.13334172D-05  0.75340507D-04  0.10295941D-03
 -0.32112310D-04  0.12002862D-04  0.42828212D+00  0.79833642D+00  0.13533765D+01
  0.20494109D+01  0.25627955D+01  0.22063282D+01  0.84819311D+00 -0.36753596D-02
  0.31651632D-03  0.59436159D-03  0.10120953D-02  0.15854413D-02  0.21246778D-02
  0.22853775D-02  0.13721376D-02 -0.90237543D-03  0.41414465D-01  0.91762361D-03
  0.21275843D-03 -0.30958268D-02 -0.30276510D-02 -0.20004970D-02 -0.57058581D-02
 -0.55802046D-02 -0.36870771D-02 -0.56137664D-03 -0.54901409D-03 -0.36275682D-03
  0.62104370D-03  0.11182100D-02  0.10986620D-03  0.31000812D-04 -0.23582463D-03
 -0.24811429D-04 -0.74014911D-06 -0.16129463D-04 -0.16708753D-05 -0.64202516D-04
 -0.62642909D-04  0.12684542D-03 -0.73075004D-04 -0.34683455D-05 -0.39045120D-04
  0.10592821D-03 -0.26601284D-03  0.16008463D-03 -0.54616038D-03 -0.55653342D-04
 -0.83823164D-04 -0.23274985D-04  0.64851330D-04 -0.41576345D-04 -0.12260445D-04
 -0.16999333D-05  0.22497107D-04  0.92042255D-04  0.16950709D-03 -0.55990677D-04
  0.46611752D-04  0.46430400D-04 -0.48763272D-05 -0.32273852D-03 -0.55495168D-03
  0.17284836D-03  0.64251917D-04 -0.65335568D-04 -0.27443826D-04  0.10578054D-04
  0.11812021D-03 -0.24063088D-04  0.11680366D-05  0.77886494D-04  0.10639457D-03
 -0.32902198D-04  0.11398757D-04 -0.21927499D-04 -0.39547147D-04 -0.58312245D-04
 -0.19046781D-03 -0.19291634D-03  0.26379703D-05  0.79898752D-04 -0.49285654D-04
 -0.59971693D-05 -0.55292566D-04  0.46241337D-05  0.98791008D-06 -0.18144393D-04
 -0.63179453D-04 -0.63791095D-05 -0.16418066D-04  0.49242095D-04 -0.32824029D-04
  0.49515711D-04  0.48261108D-05  0.16667370D-04  0.47025183D-05  0.52417980D-05
 -0.99443163D-05  0.16840379D-04  0.14173242D-05  0.30014165D-05
MO    3     MO 0.0        OCC NO =    2.0000000  ORB. ENERGY =  -11.338659
  0.23144079D+00  0.43145826D+00  0.72924046D+00  0.10962873D+01  0.13469156D+01
  0.11376855D+01  0.42909313D+00 -0.21236058D-02 -0.29876896D-03 -0.55938977D-03
 -0.95240895D-03 -0.14732318D-02 -0.19401945D-02 -0.20159863D-02 -0.12810688D-02
  0.85854253D-03  0.19944942D-01 -0.83764577D-03 -0.62424797D-04 -0.11862920D-02
 -0.11122242D-02 -0.79196988D-03 -0.26540398D-02 -0.24883310D-02 -0.17718399D-02
 -0.26386380D-03 -0.24738908D-03 -0.17615577D-03  0.54985487D-03  0.10181176D-02
  0.10035183D-03  0.23836116D-03  0.18036514D-03  0.16220345D-04 -0.93196439D-06
 -0.88534070D-05 -0.91438920D-06  0.52977371D-03  0.48475261D-03 -0.10145263D-02
 -0.12524578D-03 -0.45951649D-04  0.31741769D-03 -0.18142958D-03 -0.17399666D-03
  0.35542624D-03  0.29018991D-04  0.14502994D-04 -0.11186405D-03  0.21277125D-04
 -0.28257563D-04  0.69804383D-05 -0.22076092D-04 -0.26042936D-05 -0.71862654D-05
  0.24133141D-03 -0.14305599D-03 -0.15997648D-04 -0.88827351D-03  0.56338274D-03
  0.54906103D-04  0.16427928D-03 -0.13421477D-03 -0.69131594D-05 -0.23690112D-03
 -0.11660021D-03 -0.20406476D-04 -0.43764889D-05  0.36570955D-03  0.10523220D-03
  0.14229316D-04 -0.15908912D-04 -0.44012771D-04 -0.10998492D-05  0.77264247D-04
  0.23143906D+00  0.43145503D+00  0.72923501D+00  0.10962791D+01  0.13469055D+01
  0.11376770D+01  0.42908992D+00 -0.21235900D-02 -0.29876657D-03 -0.55938529D-03
 -0.95240132D-03 -0.14732200D-02 -0.19401789D-02 -0.20159702D-02 -0.12810586D-02
  0.85853566D-03  0.19944798D-01 -0.83767404D-03 -0.62425535D-04  0.11862752D-02
  0.11122084D-02  0.79195867D-03  0.26540147D-02  0.24883075D-02  0.17718232D-02
  0.26390412D-03  0.24742689D-03  0.17618268D-03 -0.54983715D-03 -0.10181049D-02
 -0.10041863D-03 -0.23835076D-03 -0.18036635D-03 -0.16201584D-04  0.93197964D-06
  0.88534250D-05  0.91438535D-06  0.52976279D-03  0.48475660D-03 -0.10145194D-02
 -0.12523473D-03 -0.46086776D-04  0.31736315D-03 -0.18143537D-03 -0.17399250D-03
  0.35542786D-03  0.29016079D-04  0.14529821D-04 -0.11185523D-03  0.21276473D-04
 -0.28256564D-04  0.69800911D-05 -0.22076498D-04 -0.26016777D-05 -0.71906043D-05
 -0.24132663D-03  0.14306418D-03  0.16032996D-04  0.88826080D-03 -0.56337719D-03
 -0.54925634D-04 -0.16428090D-03  0.13418466D-03  0.68266463D-05  0.23689444D-03
  0.11660025D-03  0.20407304D-04  0.43758526D-05 -0.36571836D-03 -0.10523326D-03
 -0.14224967D-04  0.15917626D-04  0.44011347D-04  0.10974096D-05 -0.77177091D-04
  0.45233670D-04  0.81580786D-04  0.12029082D-03  0.59320713D-03 -0.97905531D-04
  0.85792704D-05 -0.25644910D-03  0.34684346D-03  0.38845062D-04 -0.56338326D-06
  0.22686990D-03  0.23719272D-04 -0.11217738D-04  0.62541524D-04  0.66386715D-05
 -0.52789716D-04 -0.12323793D-03  0.17602765D-03  0.64790705D-03  0.72476041D-04
 -0.70112209D-04 -0.46038162D-04 -0.25685367D-04  0.71723529D-04  0.25392202D-04
  0.51526550D-05 -0.20821746D-04  0.15256217D-04  0.28438250D-04  0.48209825D-04
  0.73003884D-04  0.91291613D-04  0.78593575D-04  0.30214240D-04 -0.13092325D-06
 -0.60796261D-04 -0.11416461D-03 -0.19440264D-03 -0.30453059D-03 -0.40810682D-03
 -0.43897391D-03 -0.26355936D-03  0.17332772D-03  0.90006782D-04  0.11288797D-02
  0.45105408D-03  0.48195257D-03  0.47133908D-03  0.31143366D-03  0.10356979D-02
  0.10128899D-02  0.66925918D-03  0.10288649D-03  0.10062074D-03  0.66484379D-04
  0.34456749D-03  0.55618632D-03  0.54335957D-04 -0.10043744D-03  0.48554204D-03
  0.51696433D-04  0.31792141D-04  0.35505666D-04  0.33685376D-05 -0.13210253D-03
  0.50061617D-03 -0.36851364D-03  0.12594224D-02  0.12609644D-03  0.16963723D-03
  0.53674615D-05 -0.48499502D-04  0.43132041D-04 -0.26936384D-03 -0.27252152D-04
 -0.16419271D-04 -0.11826144D-03  0.83022993D-04  0.35238444D-04 -0.58227689D-04
 -0.28312271D-05  0.10705291D-04 -0.43800108D-05 -0.15964318D-04 -0.16636017D-04
  0.94736681D-04  0.21278548D-03  0.20542970D-04 -0.81596649D-04 -0.16489253D-03
  0.29365082D-04  0.28857377D-04  0.88672964D-04 -0.31321459D-04  0.26979630D-04
 -0.43763471D-03 -0.17674814D-03 -0.17472750D-04  0.17161582D-03  0.27071251D-03
 -0.63466140D-04 -0.11855303D-03  0.15256222D-04  0.28438258D-04  0.48209839D-04
  0.73003904D-04  0.91291638D-04  0.78593597D-04  0.30214248D-04 -0.13092328D-06
 -0.60795747D-04 -0.11416364D-03 -0.19440100D-03 -0.30452801D-03 -0.40810336D-03
 -0.43897019D-03 -0.26355713D-03  0.17332626D-03  0.90005464D-04  0.11288746D-02
  0.45105100D-03 -0.48194617D-03 -0.47133282D-03 -0.31142952D-03 -0.10356996D-02
 -0.10128916D-02 -0.66926032D-03 -0.10276571D-03 -0.10050262D-03 -0.66406328D-04
 -0.34456485D-03 -0.55618983D-03 -0.54271733D-04  0.10044154D-03 -0.48555239D-03
 -0.51593546D-04 -0.31791708D-04 -0.35506385D-04 -0.33603113D-05 -0.13210104D-03
  0.50062417D-03 -0.36852313D-03  0.12594242D-02  0.12600310D-03  0.16951031D-03
  0.53665051D-05 -0.48495141D-04  0.43128636D-04 -0.26936182D-03 -0.27255235D-04
 -0.16442026D-04 -0.11826218D-03  0.83027135D-04  0.35235042D-04 -0.58228019D-04
 -0.28403912D-05  0.10672896D-04  0.43804935D-05  0.15967483D-04  0.16621021D-04
 -0.94725715D-04 -0.21279536D-03 -0.20479802D-04  0.81584235D-04  0.16489291D-03
 -0.29383260D-04 -0.28943766D-04 -0.88672201D-04  0.31325111D-04 -0.26956489D-04
  0.43763666D-03  0.17675098D-03  0.17448798D-04 -0.17162006D-03 -0.27072632D-03
  0.63420668D-04  0.11848601D-03  0.45233608D-04  0.81580676D-04  0.12029066D-03
  0.59320412D-03 -0.97908369D-04  0.85793121D-05  0.25644484D-03 -0.34683406D-03
 -0.38913578D-04  0.56601834D-06 -0.22688229D-03 -0.23602759D-04  0.11218624D-04
 -0.62541179D-04 -0.66395055D-05 -0.52789076D-04 -0.12323662D-03  0.17602569D-03
  0.64790343D-03  0.72471892D-04 -0.70131397D-04 -0.46038599D-04 -0.25685572D-04
  0.71724170D-04  0.25393564D-04  0.51438422D-05 -0.20815980D-04
MO    4     MO 0.0        OCC NO =    2.0000000  ORB. ENERGY =  -11.336879
 -0.23157718D+00 -0.43171251D+00 -0.72967020D+00 -0.10969333D+01 -0.13477093D+01
 -0.11383560D+01 -0.42934599D+00  0.21248573D-02  0.30267511D-03  0.56670331D-03
  0.96486087D-03  0.14924931D-02  0.19655609D-02  0.20423436D-02  0.12978177D-02
 -0.86976724D-03 -0.19233780D-01 -0.37926219D-02 -0.71288563D-05  0.23842895D-02
  0.22354230D-02  0.15917544D-02  0.26726954D-02  0.25058218D-02  0.17842944D-02
  0.25314564D-03  0.23734012D-03  0.16900031D-03 -0.26974448D-02 -0.93537728D-03
 -0.69064691D-04 -0.13633473D-02 -0.13216065D-03  0.49910360D-06  0.49518573D-05
 -0.37717005D-05 -0.44544752D-06 -0.12400394D-02 -0.62870300D-04  0.13029097D-02
 -0.18130150D-03  0.34839979D-04 -0.28599801D-03 -0.85066097D-03  0.70308222D-03
  0.14757874D-03  0.10167204D-05  0.21002388D-04  0.11701540D-03 -0.91193898D-04
  0.73499420D-04  0.17694478D-04 -0.97289182D-05  0.12615115D-05  0.11862789D-04
 -0.62995298D-03  0.84612367D-04  0.67370084D-05  0.14474652D-02 -0.36002159D-03
 -0.86766090D-05  0.44239372D-03  0.10618449D-03 -0.11534416D-04  0.22191550D-03
 -0.30489303D-06 -0.67725269D-04  0.12738692D-05 -0.55488705D-04  0.18688050D-03
  0.20715562D-04  0.56403384D-04  0.16295312D-04 -0.24537169D-04 -0.27226649D-04
  0.23157891D+00  0.43171573D+00  0.72967564D+00  0.10969415D+01  0.13477194D+01
  0.11383645D+01  0.42934919D+00 -0.21248731D-02 -0.30267716D-03 -0.56670715D-03
 -0.96486741D-03 -0.14925032D-02 -0.19655742D-02 -0.20423575D-02 -0.12978265D-02
  0.86977314D-03  0.19233928D-01  0.37926166D-02  0.71284044D-05  0.23842996D-02
  0.22354324D-02  0.15917610D-02  0.26727036D-02  0.25058295D-02  0.17842999D-02
  0.25325047D-03  0.23743841D-03  0.16907029D-03 -0.26974506D-02 -0.93537272D-03
 -0.69199671D-04 -0.13633484D-02 -0.13216804D-03  0.55063708D-06  0.49518619D-05
 -0.37716837D-05 -0.44521272D-06  0.12400421D-02  0.62885791D-04 -0.13029279D-02
  0.18131049D-03 -0.34966683D-04  0.28587549D-03  0.85066189D-03 -0.70309127D-03
 -0.14757062D-03 -0.10360656D-05 -0.20790496D-04 -0.11694300D-03  0.91193846D-04
 -0.73499869D-04 -0.17693977D-04  0.97298745D-05 -0.12682491D-05 -0.11859473D-04
 -0.62995524D-03  0.84619205D-04  0.67743770D-05  0.14474692D-02 -0.36001945D-03
 -0.87323350D-05  0.44239650D-03  0.10616183D-03 -0.11590796D-04  0.22193094D-03
 -0.30456823D-06 -0.67733010D-04  0.12671750D-05 -0.55490433D-04  0.18688462D-03
  0.20658141D-04  0.56404138D-04  0.16314408D-04 -0.24459666D-04 -0.27230518D-04
 -0.23666636D-04 -0.42683753D-04 -0.62937169D-04 -0.41864352D-03 -0.34185104D-03
  0.12918475D-04  0.36541603D-03 -0.30735034D-03 -0.35924864D-04 -0.13877873D-03
  0.98966984D-04  0.11815355D-04 -0.11437376D-03 -0.41062901D-04 -0.30664506D-05
  0.52166402D-04 -0.96134801D-05 -0.42552922D-04 -0.42153614D-03 -0.45977301D-04
  0.11479006D-04 -0.44693094D-04  0.51863791D-04 -0.71706973D-05  0.58891998D-04
  0.69229509D-05  0.11808518D-04  0.36657547D-04  0.68331256D-04  0.11583828D-03
  0.17541329D-03  0.21935494D-03  0.18884417D-03  0.72598593D-04 -0.31458159D-06
  0.27907598D-04  0.52405526D-04  0.89237573D-04  0.13979013D-03  0.18733522D-03
  0.20150429D-03  0.12098291D-03 -0.79563451D-04 -0.98368963D-04 -0.82417569D-03
 -0.46590853D-03 -0.49777084D-03 -0.48680901D-03 -0.32165529D-03 -0.10584980D-02