 Molden2AIM, Version 4.0.0 (06/02/2016)           Time: Wed Jun 27 23:37:44 2018
GAUSSIAN             11 MOL ORBITALS    279 PRIMITIVES        5 NUCLEI
  C    1    (CENTRE  1)   0.00000000 -1.20102300  0.88144952  CHARGE =  6.0
  C    2    (CENTRE  2)   0.00000000  1.20102300  0.88144952  CHARGE =  6.0
  H    3    (CENTRE  3)   0.00000000  3.13892580  1.51330024  CHARGE =  1.0
  H    4    (CENTRE  4)   0.00000000 -3.13892580  1.51330024  CHARGE =  1.0
  O    5    (CENTRE  5)   0.00000000  0.00000000 -1.66590129  CHARGE =  8.0
CENTRE ASSIGNMENTS    1  1  1  1  1  1  1  1  1  1  1  1  1  1  1  1  1  1  1  1
CENTRE ASSIGNMENTS    1  1  1  1  1  1  1  1  1  1  1  1  1  1  1  1  1  1  1  1
CENTRE ASSIGNMENTS    1  1  1  1  1  1  1  1  1  1  1  1  1  1  1  1  1  1  1  1
CENTRE ASSIGNMENTS    1  1  1  1  1  1  1  1  1  1  1  1  1  1  1  2  2  2  2  2
CENTRE ASSIGNMENTS    2  2  2  2  2  2  2  2  2  2  2  2  2  2  2  2  2  2  2  2
CENTRE ASSIGNMENTS    2  2  2  2  2  2  2  2  2  2  2  2  2  2  2  2  2  2  2  2
CENTRE ASSIGNMENTS    2  2  2  2  2  2  2  2  2  2  2  2  2  2  2  2  2  2  2  2
CENTRE ASSIGNMENTS    2  2  2  2  2  2  2  2  2  2  3  3  3  3  3  3  3  3  3  3
CENTRE ASSIGNMENTS    3  3  3  3  3  3  3  3  3  3  3  3  3  3  3  3  3  4  4  4
CENTRE ASSIGNMENTS    4  4  4  4  4  4  4  4  4  4  4  4  4  4  4  4  4  4  4  4
CENTRE ASSIGNMENTS    4  4  4  4  5  5  5  5  5  5  5  5  5  5  5  5  5  5  5  5
CENTRE ASSIGNMENTS    5  5  5  5  5  5  5  5  5  5  5  5  5  5  5  5  5  5  5  5
CENTRE ASSIGNMENTS    5  5  5  5  5  5  5  5  5  5  5  5  5  5  5  5  5  5  5  5
CENTRE ASSIGNMENTS    5  5  5  5  5  5  5  5  5  5  5  5  5  5  5  5  5  5  5
TYPE ASSIGNMENTS      1  1  1  1  1  1  1  1  1  1  1  1  1  1  1  1  1  1  1  2
TYPE ASSIGNMENTS      2  2  3  3  3  4  4  4  2  3  4  2  3  4  2  3  4  5  6  7
TYPE ASSIGNMENTS      8  9 10  5  6  7  8  9 10  5  6  7  8  9 10 11 12 13 17 14
TYPE ASSIGNMENTS     15 18 19 16 20 11 12 13 17 14 15 18 19 16 20  1  1  1  1  1
TYPE ASSIGNMENTS      1  1  1  1  1  1  1  1  1  1  1  1  1  1  2  2  2  3  3  3
TYPE ASSIGNMENTS      4  4  4  2  3  4  2  3  4  2  3  4  5  6  7  8  9 10  5  6
TYPE ASSIGNMENTS      7  8  9 10  5  6  7  8  9 10 11 12 13 17 14 15 18 19 16 20
TYPE ASSIGNMENTS     11 12 13 17 14 15 18 19 16 20  1  1  1  1  1  1  2  3  4  2
TYPE ASSIGNMENTS      3  4  2  3  4  5  6  7  8  9 10  5  6  7  8  9 10  1  1  1
TYPE ASSIGNMENTS      1  1  1  2  3  4  2  3  4  2  3  4  5  6  7  8  9 10  5  6
TYPE ASSIGNMENTS      7  8  9 10  1  1  1  1  1  1  1  1  1  1  1  1  1  1  1  1
TYPE ASSIGNMENTS      1  1  1  2  2  2  3  3  3  4  4  4  2  3  4  2  3  4  2  3
TYPE ASSIGNMENTS      4  5  6  7  8  9 10  5  6  7  8  9 10  5  6  7  8  9 10 11
TYPE ASSIGNMENTS     12 13 17 14 15 18 19 16 20 11 12 13 17 14 15 18 19 16 20
EXPONENTS  0.8236000D+04 0.1235000D+04 0.2808000D+03 0.7927000D+02 0.2559000D+02
EXPONENTS  0.8997000D+01 0.3319000D+01 0.3643000D+00 0.8236000D+04 0.1235000D+04
EXPONENTS  0.2808000D+03 0.7927000D+02 0.2559000D+02 0.8997000D+01 0.3319000D+01
EXPONENTS  0.3643000D+00 0.9059000D+00 0.1285000D+00 0.4402000D-01 0.1871000D+02
EXPONENTS  0.4133000D+01 0.1200000D+01 0.1871000D+02 0.4133000D+01 0.1200000D+01
EXPONENTS  0.1871000D+02 0.4133000D+01 0.1200000D+01 0.3827000D+00 0.3827000D+00
EXPONENTS  0.3827000D+00 0.1209000D+00 0.1209000D+00 0.1209000D+00 0.3569000D-01
EXPONENTS  0.3569000D-01 0.3569000D-01 0.1097000D+01 0.1097000D+01 0.1097000D+01
EXPONENTS  0.1097000D+01 0.1097000D+01 0.1097000D+01 0.3180000D+00 0.3180000D+00
EXPONENTS  0.3180000D+00 0.3180000D+00 0.3180000D+00 0.3180000D+00 0.1000000D+00
EXPONENTS  0.1000000D+00 0.1000000D+00 0.1000000D+00 0.1000000D+00 0.1000000D+00
EXPONENTS  0.7610000D+00 0.7610000D+00 0.7610000D+00 0.7610000D+00 0.7610000D+00
EXPONENTS  0.7610000D+00 0.7610000D+00 0.7610000D+00 0.7610000D+00 0.7610000D+00
EXPONENTS  0.2680000D+00 0.2680000D+00 0.2680000D+00 0.2680000D+00 0.2680000D+00
EXPONENTS  0.2680000D+00 0.2680000D+00 0.2680000D+00 0.2680000D+00 0.2680000D+00
EXPONENTS  0.8236000D+04 0.1235000D+04 0.2808000D+03 0.7927000D+02 0.2559000D+02
EXPONENTS  0.8997000D+01 0.3319000D+01 0.3643000D+00 0.8236000D+04 0.1235000D+04
EXPONENTS  0.2808000D+03 0.7927000D+02 0.2559000D+02 0.8997000D+01 0.3319000D+01
EXPONENTS  0.3643000D+00 0.9059000D+00 0.1285000D+00 0.4402000D-01 0.1871000D+02
EXPONENTS  0.4133000D+01 0.1200000D+01 0.1871000D+02 0.4133000D+01 0.1200000D+01
EXPONENTS  0.1871000D+02 0.4133000D+01 0.1200000D+01 0.3827000D+00 0.3827000D+00
EXPONENTS  0.3827000D+00 0.1209000D+00 0.1209000D+00 0.1209000D+00 0.3569000D-01
EXPONENTS  0.3569000D-01 0.3569000D-01 0.1097000D+01 0.1097000D+01 0.1097000D+01
EXPONENTS  0.1097000D+01 0.1097000D+01 0.1097000D+01 0.3180000D+00 0.3180000D+00
EXPONENTS  0.3180000D+00 0.3180000D+00 0.3180000D+00 0.3180000D+00 0.1000000D+00
EXPONENTS  0.1000000D+00 0.1000000D+00 0.1000000D+00 0.1000000D+00 0.1000000D+00
EXPONENTS  0.7610000D+00 0.7610000D+00 0.7610000D+00 0.7610000D+00 0.7610000D+00
EXPONENTS  0.7610000D+00 0.7610000D+00 0.7610000D+00 0.7610000D+00 0.7610000D+00
EXPONENTS  0.2680000D+00 0.2680000D+00 0.2680000D+00 0.2680000D+00 0.2680000D+00
EXPONENTS  0.2680000D+00 0.2680000D+00 0.2680000D+00 0.2680000D+00 0.2680000D+00
EXPONENTS  0.3387000D+02 0.5095000D+01 0.1159000D+01 0.3258000D+00 0.1027000D+00
EXPONENTS  0.2526000D-01 0.1407000D+01 0.1407000D+01 0.1407000D+01 0.3880000D+00
EXPONENTS  0.3880000D+00 0.3880000D+00 0.1020000D+00 0.1020000D+00 0.1020000D+00
EXPONENTS  0.1057000D+01 0.1057000D+01 0.1057000D+01 0.1057000D+01 0.1057000D+01
EXPONENTS  0.1057000D+01 0.2470000D+00 0.2470000D+00 0.2470000D+00 0.2470000D+00
EXPONENTS  0.2470000D+00 0.2470000D+00 0.3387000D+02 0.5095000D+01 0.1159000D+01
EXPONENTS  0.3258000D+00 0.1027000D+00 0.2526000D-01 0.1407000D+01 0.1407000D+01
EXPONENTS  0.1407000D+01 0.3880000D+00 0.3880000D+00 0.3880000D+00 0.1020000D+00
EXPONENTS  0.1020000D+00 0.1020000D+00 0.1057000D+01 0.1057000D+01 0.1057000D+01
EXPONENTS  0.1057000D+01 0.1057000D+01 0.1057000D+01 0.2470000D+00 0.2470000D+00
EXPONENTS  0.2470000D+00 0.2470000D+00 0.2470000D+00 0.2470000D+00 0.1533000D+05
EXPONENTS  0.2299000D+04 0.5224000D+03 0.1473000D+03 0.4755000D+02 0.1676000D+02
EXPONENTS  0.6207000D+01 0.6882000D+00 0.1533000D+05 0.2299000D+04 0.5224000D+03
EXPONENTS  0.1473000D+03 0.4755000D+02 0.1676000D+02 0.6207000D+01 0.6882000D+00
EXPONENTS  0.1752000D+01 0.2384000D+00 0.7376000D-01 0.3446000D+02 0.7749000D+01
EXPONENTS  0.2280000D+01 0.3446000D+02 0.7749000D+01 0.2280000D+01 0.3446000D+02
EXPONENTS  0.7749000D+01 0.2280000D+01 0.7156000D+00 0.7156000D+00 0.7156000D+00
EXPONENTS  0.2140000D+00 0.2140000D+00 0.2140000D+00 0.5974000D-01 0.5974000D-01
EXPONENTS  0.5974000D-01 0.2314000D+01 0.2314000D+01 0.2314000D+01 0.2314000D+01
EXPONENTS  0.2314000D+01 0.2314000D+01 0.6450000D+00 0.6450000D+00 0.6450000D+00
EXPONENTS  0.6450000D+00 0.6450000D+00 0.6450000D+00 0.2140000D+00 0.2140000D+00
EXPONENTS  0.2140000D+00 0.2140000D+00 0.2140000D+00 0.2140000D+00 0.1428000D+01
EXPONENTS  0.1428000D+01 0.1428000D+01 0.1428000D+01 0.1428000D+01 0.1428000D+01
EXPONENTS  0.1428000D+01 0.1428000D+01 0.1428000D+01 0.1428000D+01 0.5000000D+00
EXPONENTS  0.5000000D+00 0.5000000D+00 0.5000000D+00 0.5000000D+00 0.5000000D+00
EXPONENTS  0.5000000D+00 0.5000000D+00 0.5000000D+00 0.5000000D+00
MO    1     MO 0.0        OCC NO =    2.0000000  ORB. ENERGY =  -20.570491
  0.39642807D-04  0.73903206D-04  0.12490944D-03  0.18777980D-03  0.23070918D-03
  0.19487079D-03  0.73498090D-04 -0.36374615D-06 -0.27021073D-04 -0.50591974D-04
 -0.86137165D-04 -0.13324110D-03 -0.17547384D-03 -0.18232856D-03 -0.11586161D-03
  0.77647759D-04 -0.24745041D-03  0.63006657D-04  0.13751834D-04  0.35197674D-17
  0.33000056D-17  0.23498006D-17 -0.18107318D-03 -0.16976761D-03 -0.12088465D-03
  0.27950840D-03  0.26205689D-03  0.18660012D-03  0.48859581D-17  0.39338761D-03
 -0.39119017D-03  0.18660705D-17 -0.30563888D-04 -0.32974390D-04  0.52519203D-19
  0.52147056D-06 -0.10994445D-05 -0.21369760D-03 -0.14325704D-03  0.35695464D-03
 -0.39124801D-18  0.71462689D-18 -0.19748016D-03 -0.56249663D-04 -0.90755476D-04
  0.14700514D-03  0.44292496D-17 -0.73985896D-18 -0.23934661D-03  0.16958802D-05
 -0.66308046D-06 -0.10327998D-05  0.47843521D-18 -0.82623735D-19  0.51511853D-05
 -0.24169683D-17 -0.12305553D-03 -0.15117041D-03  0.71981125D-17 -0.19097202D-03
  0.43516920D-03  0.52792436D-19  0.56013861D-03  0.18342044D-04 -0.31854689D-17
 -0.16482118D-18 -0.12969595D-04 -0.95269385D-05  0.50949072D-18 -0.10283477D-04
  0.30343741D-04 -0.15027180D-19  0.49192264D-04 -0.17629254D-05 -0.35325717D-18
  0.39642807D-04  0.73903206D-04  0.12490944D-03  0.18777980D-03  0.23070918D-03
  0.19487079D-03  0.73498090D-04 -0.36374615D-06 -0.27021073D-04 -0.50591974D-04
 -0.86137165D-04 -0.13324110D-03 -0.17547384D-03 -0.18232856D-03 -0.11586161D-03
  0.77647759D-04 -0.24745041D-03  0.63006656D-04  0.13751834D-04  0.32942423D-17
  0.30885615D-17  0.21992398D-17  0.18107318D-03  0.16976761D-03  0.12088465D-03
  0.27950840D-03  0.26205689D-03  0.18660012D-03 -0.37711298D-17 -0.39338761D-03
 -0.39119017D-03 -0.23149824D-17  0.30563888D-04 -0.32974390D-04 -0.69258493D-19
 -0.52147056D-06 -0.10994445D-05 -0.21369760D-03 -0.14325704D-03  0.35695464D-03
 -0.53416354D-18 -0.64295594D-18  0.19748016D-03 -0.56249663D-04 -0.90755476D-04
  0.14700514D-03  0.45911967D-17 -0.33573243D-19  0.23934661D-03  0.16958802D-05
 -0.66308046D-06 -0.10327998D-05  0.51617769D-18  0.80932840D-19 -0.51511853D-05
  0.17951836D-18  0.12305553D-03 -0.15117041D-03 -0.18928034D-17  0.19097202D-03
  0.43516920D-03  0.13542484D-17 -0.56013861D-03  0.18342044D-04  0.16257130D-18
  0.38790091D-18  0.12969595D-04 -0.95269385D-05 -0.14964152D-17  0.10283477D-04
  0.30343741D-04  0.33271251D-18 -0.49192264D-04 -0.17629254D-05 -0.46809356D-19
 -0.18756995D-04 -0.33829014D-04 -0.49880861D-04  0.18455894D-03 -0.61306151D-05
 -0.61117817D-06  0.32046448D-18  0.81642618D-05  0.92445046D-04  0.12083080D-18
 -0.19797602D-03 -0.10267954D-03 -0.12171410D-18 -0.55370292D-05  0.55460769D-05
 -0.12127709D-03  0.11498003D-03  0.62970650D-05 -0.14277931D-17 -0.35848988D-18
 -0.34240224D-04 -0.18165673D-04  0.12063339D-04  0.61023337D-05  0.11650822D-18
 -0.36332065D-19  0.29407673D-04 -0.18756995D-04 -0.33829014D-04 -0.49880861D-04
  0.18455894D-03 -0.61306151D-05 -0.61117817D-06 -0.79835902D-18 -0.81642619D-05
  0.92445046D-04 -0.11635229D-17  0.19797602D-03 -0.10267954D-03  0.40691824D-18
  0.55370292D-05  0.55460769D-05 -0.12127709D-03  0.11498003D-03  0.62970650D-05
 -0.39640412D-17  0.33628823D-17  0.34240224D-04 -0.18165673D-04  0.12063339D-04
  0.61023337D-05  0.10404133D-18  0.15877806D-19 -0.29407673D-04  0.49826883D+00
  0.92870898D+00  0.15747827D+01  0.23835070D+01  0.29739208D+01  0.25542014D+01
  0.98060757D+00 -0.43863178D-02  0.31269403D-03  0.58646540D-03  0.99979494D-03
  0.15624849D-02  0.20893400D-02  0.22309280D-02  0.13639456D-02 -0.89984850D-03
  0.47093092D-01  0.40429990D-03 -0.10113741D-03 -0.37864580D-16 -0.36715906D-16
 -0.24768333D-16 -0.90093959D-15 -0.87360834D-15 -0.58933102D-15  0.10779147D-01
  0.10452146D-01  0.70509561D-02 -0.48446910D-17  0.92702411D-15 -0.22198068D-02
 -0.84402680D-18  0.75495810D-14 -0.38796973D-05  0.35854131D-19  0.25818972D-15
 -0.57086251D-05  0.53186721D-03 -0.79506678D-03  0.26319957D-03 -0.21002808D-17
  0.81132994D-17 -0.40977177D-14  0.45097985D-03  0.20178437D-03 -0.65276422D-03
  0.90735605D-18 -0.38066198D-17  0.36335047D-14 -0.15939521D-04 -0.10313606D-04
  0.26253127D-04  0.14412259D-18 -0.91104048D-19  0.29673896D-14 -0.11412051D-17
  0.40961807D-15 -0.25153444D-03 -0.44375857D-18 -0.40271954D-15  0.57949913D-03
  0.38673740D-17 -0.82613468D-15  0.17510419D-03  0.82607761D-17  0.40166779D-18
 -0.48750119D-15 -0.20660109D-04  0.20702881D-18 -0.16648906D-15  0.12020512D-04
 -0.14120322D-17  0.16289926D-14  0.49959815D-04  0.48131457D-18
MO    2     MO 0.0        OCC NO =    2.0000000  ORB. ENERGY =  -11.314678
  0.23129437D+00  0.43118529D+00  0.72877910D+00  0.10955937D+01  0.13460635D+01
  0.11369658D+01  0.42882166D+00 -0.21222623D-02 -0.22275575D-03 -0.41706905D-03
 -0.71009575D-03 -0.10984102D-02 -0.14465675D-02 -0.15030763D-02 -0.95513753D-03
  0.64011096D-03  0.20134404D-01 -0.44844876D-03 -0.37559545D-04 -0.34239825D-16
 -0.32102012D-16 -0.22858545D-16  0.55987140D-03  0.52491502D-03  0.37377077D-03
 -0.18723168D-02 -0.17554160D-02 -0.12499608D-02  0.94138588D-17  0.73451603D-03
  0.43292161D-03  0.34950263D-17 -0.37100947D-04  0.18791691D-04  0.18555117D-18
 -0.35678801D-05  0.12622428D-05 -0.10159660D-02  0.14809442D-02 -0.46497822D-03
  0.38824437D-18 -0.27097969D-17 -0.11563594D-02  0.40613566D-03 -0.50004853D-03
  0.93912868D-04  0.33199392D-17  0.27368897D-17  0.49482806D-03  0.19784848D-04
 -0.33741257D-04  0.13956409D-04 -0.12796997D-17  0.35814892D-18 -0.10529019D-06
 -0.31733422D-17 -0.10324866D-03 -0.10901456D-03  0.10029818D-16  0.17489364D-03
 -0.45780305D-04 -0.50979180D-18  0.13485235D-03  0.37282398D-03 -0.63365545D-17
  0.73904029D-18 -0.10327082D-04  0.79132555D-04 -0.13870051D-17  0.30260787D-04
  0.20887728D-04 -0.83011575D-18  0.72046027D-06 -0.25828539D-03  0.57265384D-17
  0.23129437D+00  0.43118529D+00  0.72877910D+00  0.10955937D+01  0.13460635D+01
  0.11369658D+01  0.42882166D+00 -0.21222623D-02 -0.22275575D-03 -0.41706905D-03
 -0.71009575D-03 -0.10984102D-02 -0.14465675D-02 -0.15030763D-02 -0.95513753D-03
  0.64011096D-03  0.20134404D-01 -0.44844876D-03 -0.37559541D-04  0.77299244D-18
  0.72472955D-18  0.51605061D-18 -0.55987140D-03 -0.52491502D-03 -0.37377077D-03
 -0.18723168D-02 -0.17554160D-02 -0.12499608D-02 -0.40596212D-17 -0.73451603D-03
  0.43292161D-03 -0.58343416D-18  0.37100950D-04  0.18791691D-04 -0.17273992D-18
  0.35678798D-05  0.12622428D-05 -0.10159660D-02  0.14809442D-02 -0.46497822D-03
  0.55082340D-18  0.67168266D-18  0.11563594D-02  0.40613566D-03 -0.50004853D-03
  0.93912868D-04  0.69495103D-17 -0.14322597D-17 -0.49482806D-03  0.19784848D-04
 -0.33741257D-04  0.13956409D-04  0.10960903D-17 -0.10362014D-19  0.10529031D-06
 -0.15769053D-18  0.10324866D-03 -0.10901456D-03  0.33707120D-18 -0.17489364D-03
 -0.45780305D-04  0.13600037D-18 -0.13485235D-03  0.37282398D-03 -0.17716042D-17
  0.97319625D-18  0.10327082D-04  0.79132555D-04 -0.35729406D-17 -0.30260787D-04
  0.20887728D-04  0.65335190D-18 -0.72046026D-06 -0.25828539D-03  0.30585886D-17
  0.67509239D-04  0.12175569D-03  0.17952870D-03  0.13261790D-02  0.12851618D-03
  0.70794338D-06  0.20935944D-17  0.33671215D-03  0.32643346D-04 -0.34242727D-17
 -0.35232847D-03  0.95982351D-04 -0.46470705D-18  0.33258324D-04 -0.22477268D-04
  0.26557594D-03 -0.40546140D-03  0.13988546D-03  0.26248675D-18  0.34460369D-18
 -0.38808753D-03  0.51512158D-04 -0.41187134D-04 -0.10325024D-04  0.15031410D-17
 -0.65433959D-18  0.33378546D-05  0.67509239D-04  0.12175569D-03  0.17952870D-03
  0.13261790D-02  0.12851619D-03  0.70794309D-06 -0.12574927D-17 -0.33671215D-03
  0.32643345D-04  0.34931701D-17  0.35232847D-03  0.95982351D-04 -0.29496405D-17
 -0.33258323D-04 -0.22477268D-04  0.26557594D-03 -0.40546140D-03  0.13988546D-03
 -0.48129785D-17  0.38265488D-17  0.38808753D-03  0.51512158D-04 -0.41187134D-04
 -0.10325024D-04 -0.67154805D-18  0.35422472D-17 -0.33378546D-05  0.63983520D-04
  0.11925705D-03  0.20222044D-03  0.30607006D-03  0.38188607D-03  0.32798920D-03
  0.12592143D-03 -0.56325429D-06 -0.96558785D-04 -0.18109839D-03 -0.30873306D-03
 -0.48248968D-03 -0.64518064D-03 -0.68890250D-03 -0.42118148D-03  0.27786996D-03
 -0.13693666D-04  0.86395338D-03 -0.19766355D-05  0.10110159D-16  0.98034538D-17
  0.66133520D-17  0.39267784D-13  0.38076541D-13  0.25686210D-13  0.84021427D-03
  0.81472521D-03  0.54960881D-03  0.18057368D-17 -0.37258111D-13  0.88363122D-03
  0.26944499D-17 -0.61682347D-14  0.22440203D-03  0.81198541D-19 -0.57295022D-13
 -0.12722979D-04 -0.63658708D-03 -0.33360526D-03  0.97019233D-03  0.26476848D-17
 -0.30608410D-16  0.76633311D-13 -0.28780951D-04  0.54018714D-04 -0.25237764D-04
 -0.34664994D-18  0.36136311D-17 -0.52261664D-13 -0.22589788D-05  0.35921103D-04
 -0.33662124D-04  0.11843251D-18  0.14269868D-17 -0.25493495D-13  0.11846453D-17
  0.13279878D-13  0.93462962D-04  0.37190506D-19 -0.76145493D-13 -0.28068814D-04
 -0.35911263D-17  0.36305859D-13 -0.25232007D-03 -0.11443794D-17 -0.40074524D-18
 -0.27346184D-14 -0.10356412D-03 -0.16339184D-18  0.25428379D-13  0.21580780D-03
  0.13656275D-17 -0.17224524D-13  0.94884564D-04  0.66071924D-18
MO    3     MO 0.0        OCC NO =    2.0000000  ORB. ENERGY =  -11.312221
 -0.23158610D+00 -0.43172915D+00 -0.72969832D+00 -0.10969756D+01 -0.13477613D+01
 -0.11383998D+01 -0.42936254D+00  0.21249392D-02  0.31351078D-03  0.58699109D-03
  0.99940256D-03  0.15459238D-02  0.20359273D-02  0.21154588D-02  0.13442791D-02
 -0.90090461D-03 -0.19746916D-01 -0.26316323D-02  0.13368778D-03 -0.98409609D-16
 -0.92265264D-16 -0.65698364D-16  0.82531853D-03  0.77378858D-03  0.55098357D-03
  0.22368167D-02  0.20971578D-02  0.14933013D-02  0.41543669D-16 -0.23926717D-02
 -0.82185524D-03  0.49055019D-17 -0.19579518D-02 -0.21515390D-03  0.20383399D-18
  0.31615894D-06 -0.11338030D-04  0.12285177D-02 -0.19001244D-02  0.67160662D-03
 -0.75568558D-18 -0.12639743D-17  0.71277453D-03 -0.92987615D-04 -0.13357883D-03
  0.22656645D-03  0.50159569D-17  0.24778456D-17 -0.10118608D-02  0.23906094D-05
 -0.49387946D-04  0.46997336D-04 -0.10308825D-17  0.30369164D-18 -0.12910238D-03
 -0.36880864D-17 -0.43816238D-03  0.24276658D-03  0.11990198D-16  0.46531080D-03
  0.21982930D-03 -0.92593906D-18  0.84917635D-03 -0.94812903D-03 -0.68490132D-17
  0.57038095D-18 -0.17848194D-03 -0.10539977D-04 -0.85627908D-18  0.17702689D-03
  0.37370614D-04 -0.85486376D-18  0.35841892D-03 -0.57506841D-05  0.54491786D-17
  0.23158610D+00  0.43172915D+00  0.72969832D+00  0.10969756D+01  0.13477613D+01
  0.11383998D+01  0.42936254D+00 -0.21249392D-02 -0.31351078D-03 -0.58699109D-03
 -0.99940256D-03 -0.15459238D-02 -0.20359273D-02 -0.21154588D-02 -0.13442791D-02
  0.90090461D-03  0.19746916D-01  0.26316323D-02 -0.13368778D-03  0.19032849D-17
  0.17844506D-17  0.12706351D-17  0.82531853D-03  0.77378858D-03  0.55098357D-03
 -0.22368167D-02 -0.20971578D-02 -0.14933013D-02 -0.60287600D-17 -0.23926717D-02
  0.82185524D-03 -0.15130137D-17 -0.19579518D-02  0.21515390D-03 -0.18376450D-18
  0.31615894D-06  0.11338030D-04 -0.12285177D-02  0.19001244D-02 -0.67160662D-03
  0.93342415D-18  0.66815465D-18  0.71277453D-03  0.92987615D-04  0.13357883D-03
 -0.22656645D-03  0.89951024D-17 -0.13981468D-17 -0.10118608D-02 -0.23906094D-05
  0.49387946D-04 -0.46997336D-04  0.13141822D-17  0.18694701D-19 -0.12910238D-03
  0.17084956D-18 -0.43816238D-03 -0.24276658D-03 -0.10144910D-17  0.46531080D-03
 -0.21982930D-03  0.50194233D-18  0.84917635D-03  0.94812903D-03 -0.20982901D-17
  0.10536734D-17 -0.17848194D-03  0.10539977D-04 -0.39407284D-17  0.17702689D-03
 -0.37370614D-04  0.77970822D-18  0.35841892D-03  0.57506842D-05  0.30503842D-17
  0.75077167D-04  0.13540476D-03  0.19965424D-03  0.17645974D-02  0.16169706D-02
  0.60287808D-05  0.24221498D-17  0.12276655D-03 -0.76795846D-04 -0.34681651D-17
 -0.34074062D-03 -0.62727173D-03 -0.62846743D-18 -0.26356538D-03  0.97679253D-05
  0.11826847D-03 -0.48413048D-03  0.36586200D-03 -0.18663190D-18  0.26739588D-19
  0.38184716D-03  0.10035140D-05  0.80994215D-05 -0.91029354D-05  0.16872691D-17
 -0.65426072D-18 -0.71175050D-05 -0.75077167D-04 -0.13540476D-03 -0.19965424D-03
 -0.17645974D-02 -0.16169706D-02 -0.60287808D-05 -0.96444633D-18  0.12276655D-03
  0.76795846D-04  0.24110690D-17 -0.34074062D-03  0.62727173D-03 -0.28359357D-17
 -0.26356538D-03 -0.97679253D-05 -0.11826847D-03  0.48413048D-03 -0.36586200D-03
 -0.57902735D-17  0.42992283D-17  0.38184716D-03 -0.10035140D-05 -0.80994215D-05
  0.91029355D-05 -0.82034736D-18  0.35908716D-17 -0.71175050D-05 -0.13719113D-13
 -0.25570661D-13 -0.43359368D-13 -0.65626424D-13 -0.81882616D-13 -0.70326247D-13
 -0.26999614D-13  0.12077093D-15  0.94874475D-14  0.17793943D-13  0.30334772D-13
  0.47407344D-13  0.63392651D-13  0.67688572D-13  0.41383466D-13 -0.27302297D-13
 -0.56479647D-14 -0.13825247D-13 -0.25065576D-13  0.99540666D-17  0.96520962D-17
  0.65112471D-17  0.28206835D-03  0.27351142D-03  0.18450919D-03  0.92808656D-15
  0.89993177D-15  0.60708866D-15  0.17328455D-17  0.90614959D-03 -0.10257903D-13
  0.22910954D-17  0.78456683D-04  0.22056055D-13  0.64503693D-19  0.19051566D-04
 -0.44760261D-15  0.22205100D-13 -0.11559065D-13 -0.10646035D-13  0.26300579D-17
 -0.29859945D-16  0.10045465D-02 -0.15806777D-13  0.69707141D-14  0.88360625D-14
 -0.18561370D-18  0.31076759D-17  0.49943082D-03 -0.59291957D-14 -0.26877283D-14
  0.86169239D-14  0.13556537D-18  0.11976707D-17 -0.25179010D-04  0.10670974D-17
  0.14432663D-03 -0.33185165D-14 -0.81001463D-19 -0.26699320D-03  0.23348044D-13
 -0.31202909D-17 -0.16598668D-03 -0.13392494D-13 -0.47203118D-18 -0.28373916D-18
 -0.48635788D-04  0.20385400D-14 -0.84580823D-19  0.18959689D-03 -0.20377350D-13
  0.93579829D-18 -0.43689525D-04  0.14261730D-13  0.81554099D-18
MO    4     MO 0.0        OCC NO =    2.0000000  ORB. ENERGY =   -1.383490
 -0.36265965D-02 -0.67608004D-02 -0.11426944D-01 -0.17178439D-01 -0.21105697D-01
 -0.17827135D-01 -0.67237396D-02  0.33276163D-04 -0.23489569D-01 -0.43979884D-01
 -0.74879515D-01 -0.11582722D+00 -0.15254038D+00 -0.15849923D+00 -0.10071914D+00
  0.67499627D-01  0.26167607D-01  0.10788976D-01 -0.24221942D-03  0.67717060D-15
  0.63489048D-15  0.45207985D-15  0.11820502D+00  0.11082472D+00  0.78913805D-01
 -0.90927245D-01 -0.85250072D-01 -0.60703130D-01 -0.22286880D-15  0.17883905D-01
 -0.21533720D-01  0.33891587D-16 -0.10597922D-02 -0.59354170D-03  0.15505818D-17
  0.31984635D-04  0.14934727D-04 -0.19129253D-01  0.13935133D-01  0.51941199D-02
 -0.28321011D-16  0.50810696D-17 -0.28818628D-01 -0.27109453D-02  0.54032067D-03
  0.21706246D-02  0.30899604D-16 -0.85203216D-17 -0.54874908D-02  0.14114791D-03
 -0.55849612D-04 -0.85298302D-04 -0.57575409D-17  0.11653562D-17  0.49708703D-03
 -0.11267869D-16  0.19677400D-03 -0.18494226D-02  0.27011516D-16 -0.43714712D-02
  0.58650650D-02  0.67920901D-17  0.37811492D-02 -0.31679711D-03 -0.19107505D-16
 -0.11572021D-16 -0.18356041D-03 -0.23676676D-03  0.38771589D-16  0.11249932D-03
  0.22624346D-03 -0.40555276D-17  0.43818190D-03  0.48405682D-03 -0.27794682D-16
 -0.36265965D-02 -0.67608004D-02 -0.11426944D-01 -0.17178439D-01 -0.21105697D-01
 -0.17827135D-01 -0.67237396D-02  0.33276163D-04 -0.23489569D-01 -0.43979884D-01
 -0.74879515D-01 -0.11582722D+00 -0.15254038D+00 -0.15849923D+00 -0.10071914D+00
  0.67499627D-01  0.26167607D-01  0.10788976D-01 -0.24221941D-03 -0.51187088D-16
 -0.47991148D-16 -0.34172557D-16 -0.11820502D+00 -0.11082472D+00 -0.78913805D-01
 -0.90927245D-01 -0.85250072D-01 -0.60703130D-01 -0.90769362D-16 -0.17883905D-01
 -0.21533720D-01  0.23409622D-16  0.10597922D-02 -0.59354170D-03 -0.95753805D-18
 -0.31984636D-04  0.14934727D-04 -0.19129253D-01  0.13935133D-01  0.51941199D-02
  0.11359270D-16 -0.60651929D-17  0.28818628D-01 -0.27109453D-02  0.54032067D-03
  0.21706246D-02  0.95871011D-16  0.96398227D-17  0.54874908D-02  0.14114791D-03
 -0.55849612D-04 -0.85298301D-04 -0.17340476D-16 -0.31941484D-17 -0.49708703D-03
  0.43734590D-17 -0.19677400D-03 -0.18494226D-02 -0.20216822D-16  0.43714712D-02
  0.58650650D-02  0.70964452D-17 -0.37811492D-02 -0.31679711D-03 -0.85175820D-18
 -0.35861149D-17  0.18356041D-03 -0.23676676D-03  0.54780452D-17 -0.11249933D-03
  0.22624346D-03  0.52802994D-17 -0.43818190D-03  0.48405682D-03  0.91502667D-17
  0.26361709D-02  0.47544428D-02  0.70104231D-02 -0.31865562D-02 -0.28353323D-02
  0.14500792D-04  0.24688106D-16 -0.17983471D-02 -0.70320097D-03 -0.51158290D-16
  0.45757516D-02  0.30488051D-03  0.16011721D-16  0.98442661D-03  0.76284258D-03
  0.91223123D-03 -0.24071880D-02  0.14949568D-02  0.41327483D-17  0.37155698D-17
 -0.24225077D-02  0.30563327D-03 -0.66680403D-03  0.36117076D-03  0.19621124D-16
 -0.10894584D-17 -0.41767342D-03  0.26361709D-02  0.47544428D-02  0.70104231D-02
 -0.31865562D-02 -0.28353323D-02  0.14500792D-04  0.29039505D-16  0.17983471D-02
 -0.70320097D-03 -0.11245355D-15 -0.45757516D-02  0.30488051D-03 -0.10237115D-16
 -0.98442660D-03  0.76284258D-03  0.91223123D-03 -0.24071880D-02  0.14949568D-02
 -0.40425748D-16  0.12012154D-16  0.24225077D-02  0.30563327D-03 -0.66680403D-03
  0.36117076D-03 -0.22107691D-16  0.45654688D-17  0.41767342D-03 -0.33043346D-02
 -0.61588545D-02 -0.10443377D-01 -0.15806537D-01 -0.19721943D-01 -0.16938519D-01
 -0.65030267D-02  0.29088438D-04 -0.83131812D-01 -0.15591577D+00 -0.26580221D+00
 -0.41539712D+00 -0.55546510D+00 -0.59310723D+00 -0.36261413D+00  0.23923078D+00
  0.12040422D+00  0.56319344D-01 -0.34533800D-03  0.81593309D-16  0.79118063D-16
  0.53372578D-16  0.77194921D-13  0.74853107D-13  0.50495464D-13  0.25639469D+00
  0.24861660D+00  0.16771529D+00  0.25233368D-16 -0.12050202D-12  0.72171296D-01
 -0.33959807D-16  0.19857656D-12  0.16815331D-02  0.13861646D-18 -0.11260512D-12
 -0.32229493D-03 -0.18321138D-01 -0.10998209D-01  0.29319347D-01 -0.38094805D-16
  0.50493213D-16  0.24372793D-13 -0.81710318D-02 -0.33564977D-02  0.11527529D-01
  0.10417323D-16 -0.38524529D-16 -0.28052351D-13  0.51296488D-03  0.15352151D-03
 -0.66648639D-03  0.13377293D-17 -0.18760467D-16  0.31669117D-13 -0.10825401D-16
  0.96120802D-14  0.85459761D-02 -0.12135400D-16 -0.50740109D-13 -0.23068575D-01
  0.44611602D-16  0.21903869D-13 -0.25693534D-02  0.63387005D-17  0.60665287D-17
 -0.77695586D-16  0.10190345D-02  0.55464797D-17  0.58643339D-14 -0.26030382D-02
 -0.23746066D-16 -0.56312471D-14 -0.45406519D-03  0.15788671D-16
MO    5     MO 0.0        OCC NO =    2.0000000  ORB. ENERGY =   -0.963857
  0.33516864D-02  0.62483054D-02  0.10560737D-01  0.15876247D-01  0.19505804D-01
  0.16475769D-01  0.62140540D-02 -0.30753700D-04  0.37700849D-01  0.70587885D-01
  0.12018191D+00  0.18590315D+00  0.24482790D+00  0.25439187D+00  0.16165462D+00
 -0.10833716D+00 -0.43239089D-01 -0.22609317D-01 -0.24442095D-03 -0.79466336D-16
 -0.74504741D-16 -0.53051814D-16 -0.15338800D+00 -0.14381100D+00 -0.10240200D+00
 -0.11004323D+00 -0.10317252D+00 -0.73464982D-01 -0.21469637D-15 -0.20249727D-01
 -0.27151390D-01  0.45024825D-16 -0.13674793D-02 -0.25923042D-02  0.21733098D-17
 -0.45949214D-04 -0.18234639D-04  0.13882513D-01 -0.38570416D-01  0.24687903D-01
  0.16502555D-15 -0.22726374D-16 -0.44351635D-02  0.28114801D-02 -0.71479706D-02
  0.43364905D-02  0.95537671D-17  0.18445487D-16  0.23627781D-02  0.41451294D-04
 -0.31371503D-03  0.27226374D-03 -0.16185542D-16  0.43078313D-17 -0.93577378D-04
 -0.13980069D-17 -0.24176357D-02  0.66839320D-03  0.85980475D-17  0.27734550D-02
  0.17880288D-02 -0.44040270D-17  0.44794521D-02 -0.37932084D-02 -0.66966013D-17
 -0.52994303D-17 -0.41567881D-05 -0.77482974D-04  0.17478087D-16 -0.13383030D-03
  0.15918927D-03 -0.15797959D-17  0.14630066D-03  0.73259656D-04 -0.52439077D-17
  0.33516864D-02  0.62483054D-02  0.10560737D-01  0.15876247D-01  0.19505804D-01
  0.16475769D-01  0.62140540D-02 -0.30753700D-04  0.37700849D-01  0.70587885D-01
  0.12018191D+00  0.18590315D+00  0.24482790D+00  0.25439187D+00  0.16165462D+00
 -0.10833716D+00 -0.43239089D-01 -0.22609317D-01 -0.24442097D-03 -0.46361870D-16
 -0.43467200D-16 -0.30951236D-16  0.15338800D+00  0.14381100D+00  0.10240200D+00
 -0.11004323D+00 -0.10317252D+00 -0.73464982D-01 -0.46552260D-16  0.20249727D-01
 -0.27151390D-01  0.44941222D-16  0.13674793D-02 -0.25923042D-02  0.54119749D-19
  0.45949216D-04 -0.18234638D-04  0.13882513D-01 -0.38570416D-01  0.24687903D-01
  0.17761282D-16 -0.12507843D-16  0.44351635D-02  0.28114801D-02 -0.71479706D-02
  0.43364905D-02  0.54567499D-16  0.37448757D-17 -0.23627781D-02  0.41451294D-04
 -0.31371503D-03  0.27226374D-03 -0.12380064D-16 -0.28352496D-17  0.93577378D-04
  0.92094242D-17  0.24176357D-02  0.66839320D-03 -0.32900139D-16 -0.27734550D-02
  0.17880288D-02  0.52718668D-17 -0.44794521D-02 -0.37932084D-02 -0.93946994D-17
 -0.39197722D-17  0.41567879D-05 -0.77482974D-04  0.10360652D-16  0.13383030D-03
  0.15918927D-03  0.13986644D-17 -0.14630066D-03  0.73259655D-04  0.17820229D-16
 -0.11935920D-01 -0.21526923D-01 -0.31741435D-01 -0.44595216D-02  0.35852604D-02
  0.11348244D-04  0.22713435D-16  0.96170054D-02  0.17294610D-02 -0.54237102D-16
 -0.67365215D-02 -0.29823765D-02  0.49801556D-17 -0.10327049D-02 -0.41545027D-03
 -0.92927496D-03  0.15632449D-02 -0.63396992D-03 -0.13732900D-16 -0.17993741D-16
  0.27541481D-02 -0.53981129D-03  0.87975595D-03 -0.33994466D-03  0.18988224D-16
 -0.21728067D-17  0.57682329D-03 -0.11935920D-01 -0.21526923D-01 -0.31741435D-01
 -0.44595216D-02  0.35852604D-02  0.11348245D-04  0.30832195D-16 -0.96170054D-02
  0.17294610D-02 -0.61325781D-16  0.67365215D-02 -0.29823765D-02 -0.33033042D-16
  0.10327049D-02 -0.41545027D-03 -0.92927496D-03  0.15632449D-02 -0.63396992D-03
 -0.77785491D-17  0.34417475D-17 -0.27541481D-02 -0.53981129D-03  0.87975595D-03
 -0.33994466D-03 -0.27338371D-16  0.10510744D-16 -0.57682329D-03 -0.39517743D-03
 -0.73655989D-03 -0.12489615D-02 -0.18903614D-02 -0.23586191D-02 -0.20257393D-02
 -0.77772070D-03  0.34787924D-05 -0.60744487D-01 -0.11392779D+00 -0.19422191D+00
 -0.30353104D+00 -0.40587883D+00 -0.43338396D+00 -0.26496246D+00  0.17480614D+00
  0.94283078D-01  0.65371661D-01  0.14361654D-02  0.21717562D-15  0.21058730D-15
  0.14206095D-15 -0.12503937D-12 -0.12124613D-12 -0.81791923D-13 -0.33648064D+00
 -0.32627303D+00 -0.22010186D+00  0.53648276D-16  0.18312942D-12 -0.74352338D-01
 -0.51861909D-17  0.35701205D-12 -0.34056533D-02 -0.73714714D-18  0.24430026D-12
  0.81971414D-04  0.15836803D-01  0.11928096D-01 -0.27764899D-01 -0.18652065D-16
 -0.29289231D-16 -0.12406842D-12  0.23020318D-02  0.22854275D-02 -0.45874593D-02
 -0.89972478D-18 -0.24727875D-16  0.15916881D-12 -0.15511084D-03 -0.73675301D-03
  0.89186385D-03  0.14209769D-17 -0.74843317D-17  0.23645018D-12 -0.20715572D-17