 Molden2AIM, Version 4.0.0 (06/02/2016)           Time: Wed Jun 27 22:40:25 2018
GAUSSIAN             16 MOL ORBITALS    381 PRIMITIVES        7 NUCLEI
  C    1    (CENTRE  1) -13.39520836 -3.82994195  2.55737959  CHARGE =  6.0
  C    2    (CENTRE  2) -10.92768714 -2.62042086  3.16012097  CHARGE =  6.0
  H    3    (CENTRE  3) -14.57947327 -2.48733878  1.50999889  CHARGE =  1.0
  H    4    (CENTRE  4) -14.38411905 -4.28344032  4.32360834  CHARGE =  1.0
  H    5    (CENTRE  5) -13.07879262 -5.54134974  1.44491861  CHARGE =  1.0
  O    6    (CENTRE  6)  -8.85106899 -3.27078522  2.62567807  CHARGE =  8.0
  F    7    (CENTRE  7) -11.28986826 -0.46427169  4.52958281  CHARGE =  9.0
CENTRE ASSIGNMENTS    1  1  1  1  1  1  1  1  1  1  1  1  1  1  1  1  1  1  1  1
CENTRE ASSIGNMENTS    1  1  1  1  1  1  1  1  1  1  1  1  1  1  1  1  1  1  1  1
CENTRE ASSIGNMENTS    1  1  1  1  1  1  1  1  1  1  1  1  1  1  1  1  1  1  1  1
CENTRE ASSIGNMENTS    1  1  1  1  1  1  1  1  1  1  1  1  1  1  1  2  2  2  2  2
CENTRE ASSIGNMENTS    2  2  2  2  2  2  2  2  2  2  2  2  2  2  2  2  2  2  2  2
CENTRE ASSIGNMENTS    2  2  2  2  2  2  2  2  2  2  2  2  2  2  2  2  2  2  2  2
CENTRE ASSIGNMENTS    2  2  2  2  2  2  2  2  2  2  2  2  2  2  2  2  2  2  2  2
CENTRE ASSIGNMENTS    2  2  2  2  2  2  2  2  2  2  3  3  3  3  3  3  3  3  3  3
CENTRE ASSIGNMENTS    3  3  3  3  3  3  3  3  3  3  3  3  3  3  3  3  3  4  4  4
CENTRE ASSIGNMENTS    4  4  4  4  4  4  4  4  4  4  4  4  4  4  4  4  4  4  4  4
CENTRE ASSIGNMENTS    4  4  4  4  5  5  5  5  5  5  5  5  5  5  5  5  5  5  5  5
CENTRE ASSIGNMENTS    5  5  5  5  5  5  5  5  5  5  5  6  6  6  6  6  6  6  6  6
CENTRE ASSIGNMENTS    6  6  6  6  6  6  6  6  6  6  6  6  6  6  6  6  6  6  6  6
CENTRE ASSIGNMENTS    6  6  6  6  6  6  6  6  6  6  6  6  6  6  6  6  6  6  6  6
CENTRE ASSIGNMENTS    6  6  6  6  6  6  6  6  6  6  6  6  6  6  6  6  6  6  6  6
CENTRE ASSIGNMENTS    6  6  6  6  6  6  7  7  7  7  7  7  7  7  7  7  7  7  7  7
CENTRE ASSIGNMENTS    7  7  7  7  7  7  7  7  7  7  7  7  7  7  7  7  7  7  7  7
CENTRE ASSIGNMENTS    7  7  7  7  7  7  7  7  7  7  7  7  7  7  7  7  7  7  7  7
CENTRE ASSIGNMENTS    7  7  7  7  7  7  7  7  7  7  7  7  7  7  7  7  7  7  7  7
CENTRE ASSIGNMENTS    7
TYPE ASSIGNMENTS      1  1  1  1  1  1  1  1  1  1  1  1  1  1  1  1  1  1  1  2
TYPE ASSIGNMENTS      2  2  3  3  3  4  4  4  2  3  4  2  3  4  2  3  4  5  6  7
TYPE ASSIGNMENTS      8  9 10  5  6  7  8  9 10  5  6  7  8  9 10 11 12 13 17 14
TYPE ASSIGNMENTS     15 18 19 16 20 11 12 13 17 14 15 18 19 16 20  1  1  1  1  1
TYPE ASSIGNMENTS      1  1  1  1  1  1  1  1  1  1  1  1  1  1  2  2  2  3  3  3
TYPE ASSIGNMENTS      4  4  4  2  3  4  2  3  4  2  3  4  5  6  7  8  9 10  5  6
TYPE ASSIGNMENTS      7  8  9 10  5  6  7  8  9 10 11 12 13 17 14 15 18 19 16 20
TYPE ASSIGNMENTS     11 12 13 17 14 15 18 19 16 20  1  1  1  1  1  1  2  3  4  2
TYPE ASSIGNMENTS      3  4  2  3  4  5  6  7  8  9 10  5  6  7  8  9 10  1  1  1
TYPE ASSIGNMENTS      1  1  1  2  3  4  2  3  4  2  3  4  5  6  7  8  9 10  5  6
TYPE ASSIGNMENTS      7  8  9 10  1  1  1  1  1  1  2  3  4  2  3  4  2  3  4  5
TYPE ASSIGNMENTS      6  7  8  9 10  5  6  7  8  9 10  1  1  1  1  1  1  1  1  1
TYPE ASSIGNMENTS      1  1  1  1  1  1  1  1  1  1  2  2  2  3  3  3  4  4  4  2
TYPE ASSIGNMENTS      3  4  2  3  4  2  3  4  5  6  7  8  9 10  5  6  7  8  9 10
TYPE ASSIGNMENTS      5  6  7  8  9 10 11 12 13 17 14 15 18 19 16 20 11 12 13 17
TYPE ASSIGNMENTS     14 15 18 19 16 20  1  1  1  1  1  1  1  1  1  1  1  1  1  1
TYPE ASSIGNMENTS      1  1  1  1  1  2  2  2  3  3  3  4  4  4  2  3  4  2  3  4
TYPE ASSIGNMENTS      2  3  4  5  6  7  8  9 10  5  6  7  8  9 10  5  6  7  8  9
TYPE ASSIGNMENTS     10 11 12 13 17 14 15 18 19 16 20 11 12 13 17 14 15 18 19 16
TYPE ASSIGNMENTS     20
EXPONENTS  0.8236000D+04 0.1235000D+04 0.2808000D+03 0.7927000D+02 0.2559000D+02
EXPONENTS  0.8997000D+01 0.3319000D+01 0.3643000D+00 0.8236000D+04 0.1235000D+04
EXPONENTS  0.2808000D+03 0.7927000D+02 0.2559000D+02 0.8997000D+01 0.3319000D+01
EXPONENTS  0.3643000D+00 0.9059000D+00 0.1285000D+00 0.4402000D-01 0.1871000D+02
EXPONENTS  0.4133000D+01 0.1200000D+01 0.1871000D+02 0.4133000D+01 0.1200000D+01
EXPONENTS  0.1871000D+02 0.4133000D+01 0.1200000D+01 0.3827000D+00 0.3827000D+00
EXPONENTS  0.3827000D+00 0.1209000D+00 0.1209000D+00 0.1209000D+00 0.3569000D-01
EXPONENTS  0.3569000D-01 0.3569000D-01 0.1097000D+01 0.1097000D+01 0.1097000D+01
EXPONENTS  0.1097000D+01 0.1097000D+01 0.1097000D+01 0.3180000D+00 0.3180000D+00
EXPONENTS  0.3180000D+00 0.3180000D+00 0.3180000D+00 0.3180000D+00 0.1000000D+00
EXPONENTS  0.1000000D+00 0.1000000D+00 0.1000000D+00 0.1000000D+00 0.1000000D+00
EXPONENTS  0.7610000D+00 0.7610000D+00 0.7610000D+00 0.7610000D+00 0.7610000D+00
EXPONENTS  0.7610000D+00 0.7610000D+00 0.7610000D+00 0.7610000D+00 0.7610000D+00
EXPONENTS  0.2680000D+00 0.2680000D+00 0.2680000D+00 0.2680000D+00 0.2680000D+00
EXPONENTS  0.2680000D+00 0.2680000D+00 0.2680000D+00 0.2680000D+00 0.2680000D+00
EXPONENTS  0.8236000D+04 0.1235000D+04 0.2808000D+03 0.7927000D+02 0.2559000D+02
EXPONENTS  0.8997000D+01 0.3319000D+01 0.3643000D+00 0.8236000D+04 0.1235000D+04
EXPONENTS  0.2808000D+03 0.7927000D+02 0.2559000D+02 0.8997000D+01 0.3319000D+01
EXPONENTS  0.3643000D+00 0.9059000D+00 0.1285000D+00 0.4402000D-01 0.1871000D+02
EXPONENTS  0.4133000D+01 0.1200000D+01 0.1871000D+02 0.4133000D+01 0.1200000D+01
EXPONENTS  0.1871000D+02 0.4133000D+01 0.1200000D+01 0.3827000D+00 0.3827000D+00
EXPONENTS  0.3827000D+00 0.1209000D+00 0.1209000D+00 0.1209000D+00 0.3569000D-01
EXPONENTS  0.3569000D-01 0.3569000D-01 0.1097000D+01 0.1097000D+01 0.1097000D+01
EXPONENTS  0.1097000D+01 0.1097000D+01 0.1097000D+01 0.3180000D+00 0.3180000D+00
EXPONENTS  0.3180000D+00 0.3180000D+00 0.3180000D+00 0.3180000D+00 0.1000000D+00
EXPONENTS  0.1000000D+00 0.1000000D+00 0.1000000D+00 0.1000000D+00 0.1000000D+00
EXPONENTS  0.7610000D+00 0.7610000D+00 0.7610000D+00 0.7610000D+00 0.7610000D+00
EXPONENTS  0.7610000D+00 0.7610000D+00 0.7610000D+00 0.7610000D+00 0.7610000D+00
EXPONENTS  0.2680000D+00 0.2680000D+00 0.2680000D+00 0.2680000D+00 0.2680000D+00
EXPONENTS  0.2680000D+00 0.2680000D+00 0.2680000D+00 0.2680000D+00 0.2680000D+00
EXPONENTS  0.3387000D+02 0.5095000D+01 0.1159000D+01 0.3258000D+00 0.1027000D+00
EXPONENTS  0.2526000D-01 0.1407000D+01 0.1407000D+01 0.1407000D+01 0.3880000D+00
EXPONENTS  0.3880000D+00 0.3880000D+00 0.1020000D+00 0.1020000D+00 0.1020000D+00
EXPONENTS  0.1057000D+01 0.1057000D+01 0.1057000D+01 0.1057000D+01 0.1057000D+01
EXPONENTS  0.1057000D+01 0.2470000D+00 0.2470000D+00 0.2470000D+00 0.2470000D+00
EXPONENTS  0.2470000D+00 0.2470000D+00 0.3387000D+02 0.5095000D+01 0.1159000D+01
EXPONENTS  0.3258000D+00 0.1027000D+00 0.2526000D-01 0.1407000D+01 0.1407000D+01
EXPONENTS  0.1407000D+01 0.3880000D+00 0.3880000D+00 0.3880000D+00 0.1020000D+00
EXPONENTS  0.1020000D+00 0.1020000D+00 0.1057000D+01 0.1057000D+01 0.1057000D+01
EXPONENTS  0.1057000D+01 0.1057000D+01 0.1057000D+01 0.2470000D+00 0.2470000D+00
EXPONENTS  0.2470000D+00 0.2470000D+00 0.2470000D+00 0.2470000D+00 0.3387000D+02
EXPONENTS  0.5095000D+01 0.1159000D+01 0.3258000D+00 0.1027000D+00 0.2526000D-01
EXPONENTS  0.1407000D+01 0.1407000D+01 0.1407000D+01 0.3880000D+00 0.3880000D+00
EXPONENTS  0.3880000D+00 0.1020000D+00 0.1020000D+00 0.1020000D+00 0.1057000D+01
EXPONENTS  0.1057000D+01 0.1057000D+01 0.1057000D+01 0.1057000D+01 0.1057000D+01
EXPONENTS  0.2470000D+00 0.2470000D+00 0.2470000D+00 0.2470000D+00 0.2470000D+00
EXPONENTS  0.2470000D+00 0.1533000D+05 0.2299000D+04 0.5224000D+03 0.1473000D+03
EXPONENTS  0.4755000D+02 0.1676000D+02 0.6207000D+01 0.6882000D+00 0.1533000D+05
EXPONENTS  0.2299000D+04 0.5224000D+03 0.1473000D+03 0.4755000D+02 0.1676000D+02
EXPONENTS  0.6207000D+01 0.6882000D+00 0.1752000D+01 0.2384000D+00 0.7376000D-01
EXPONENTS  0.3446000D+02 0.7749000D+01 0.2280000D+01 0.3446000D+02 0.7749000D+01
EXPONENTS  0.2280000D+01 0.3446000D+02 0.7749000D+01 0.2280000D+01 0.7156000D+00
EXPONENTS  0.7156000D+00 0.7156000D+00 0.2140000D+00 0.2140000D+00 0.2140000D+00
EXPONENTS  0.5974000D-01 0.5974000D-01 0.5974000D-01 0.2314000D+01 0.2314000D+01
EXPONENTS  0.2314000D+01 0.2314000D+01 0.2314000D+01 0.2314000D+01 0.6450000D+00
EXPONENTS  0.6450000D+00 0.6450000D+00 0.6450000D+00 0.6450000D+00 0.6450000D+00
EXPONENTS  0.2140000D+00 0.2140000D+00 0.2140000D+00 0.2140000D+00 0.2140000D+00
EXPONENTS  0.2140000D+00 0.1428000D+01 0.1428000D+01 0.1428000D+01 0.1428000D+01
EXPONENTS  0.1428000D+01 0.1428000D+01 0.1428000D+01 0.1428000D+01 0.1428000D+01
EXPONENTS  0.1428000D+01 0.5000000D+00 0.5000000D+00 0.5000000D+00 0.5000000D+00
EXPONENTS  0.5000000D+00 0.5000000D+00 0.5000000D+00 0.5000000D+00 0.5000000D+00
EXPONENTS  0.5000000D+00 0.1950000D+05 0.2923000D+04 0.6645000D+03 0.1875000D+03
EXPONENTS  0.6062000D+02 0.2142000D+02 0.7950000D+01 0.8815000D+00 0.1950000D+05
EXPONENTS  0.2923000D+04 0.6645000D+03 0.1875000D+03 0.6062000D+02 0.2142000D+02
EXPONENTS  0.7950000D+01 0.8815000D+00 0.2257000D+01 0.3041000D+00 0.9158000D-01
EXPONENTS  0.4388000D+02 0.9926000D+01 0.2930000D+01 0.4388000D+02 0.9926000D+01
EXPONENTS  0.2930000D+01 0.4388000D+02 0.9926000D+01 0.2930000D+01 0.9132000D+00
EXPONENTS  0.9132000D+00 0.9132000D+00 0.2672000D+00 0.2672000D+00 0.2672000D+00
EXPONENTS  0.7361000D-01 0.7361000D-01 0.7361000D-01 0.3107000D+01 0.3107000D+01
EXPONENTS  0.3107000D+01 0.3107000D+01 0.3107000D+01 0.3107000D+01 0.8550000D+00
EXPONENTS  0.8550000D+00 0.8550000D+00 0.8550000D+00 0.8550000D+00 0.8550000D+00
EXPONENTS  0.2920000D+00 0.2920000D+00 0.2920000D+00 0.2920000D+00 0.2920000D+00
EXPONENTS  0.2920000D+00 0.1917000D+01 0.1917000D+01 0.1917000D+01 0.1917000D+01
EXPONENTS  0.1917000D+01 0.1917000D+01 0.1917000D+01 0.1917000D+01 0.1917000D+01
EXPONENTS  0.1917000D+01 0.7240000D+00 0.7240000D+00 0.7240000D+00 0.7240000D+00
EXPONENTS  0.7240000D+00 0.7240000D+00 0.7240000D+00 0.7240000D+00 0.7240000D+00
EXPONENTS  0.7240000D+00
MO    1     MO 0.0        OCC NO =    2.0000000  ORB. ENERGY =  -26.327558
 -0.63405552D-04 -0.11820237D-03 -0.19978282D-03 -0.30033902D-03 -0.36900119D-03
 -0.31168049D-03 -0.11755441D-03  0.58178336D-06  0.47745806D-04  0.89395214D-04
  0.15220300D-03  0.23543490D-03  0.31005948D-03  0.32217166D-03  0.20472563D-03
 -0.13720235D-03 -0.14074684D-03  0.12981969D-02  0.72166377D-04  0.54621146D-04
  0.51210797D-04  0.36465138D-04 -0.38094323D-04 -0.35715850D-04 -0.25431813D-04
 -0.26799451D-04 -0.25126189D-04 -0.17891344D-04 -0.15251117D-03  0.59902628D-04
  0.44144106D-04  0.17991790D-03  0.11392944D-03  0.58901356D-04  0.46718750D-05
 -0.10077563D-05 -0.83681138D-06 -0.27098320D-04  0.20820270D-04  0.62780503D-05
  0.29395744D-04  0.22253649D-04  0.21830408D-04 -0.14432935D-03  0.10942184D-03
  0.34907511D-04  0.19073725D-04  0.30487760D-04  0.15121967D-03 -0.10342885D-04
  0.95280426D-05  0.81484256D-06  0.31480263D-04  0.21786241D-04  0.12710250D-04
 -0.46606383D-04  0.13112521D-04 -0.10395613D-04  0.10855819D-03 -0.52203458D-04
 -0.26279773D-04  0.31260960D-04  0.12865895D-04  0.57466612D-04  0.16423190D-03
  0.26728803D-05 -0.17953281D-05  0.29945422D-04  0.82070120D-05  0.24139562D-04
  0.93533559D-05 -0.16225653D-04 -0.18753578D-04 -0.99189621D-04  0.64696570D-04
  0.17673742D-04  0.32947873D-04  0.55687710D-04  0.83716870D-04  0.10285585D-03
  0.86878206D-04  0.32767263D-04 -0.16216701D-06 -0.14873114D-04 -0.27847162D-04
 -0.47412176D-04 -0.73339427D-04 -0.96585445D-04 -0.10035846D-03 -0.63773299D-04
  0.42739382D-04 -0.21085277D-03 -0.10014244D-02 -0.74188888D-04  0.62241574D-04
  0.58355432D-04  0.41552544D-04 -0.16491248D-03 -0.15461593D-03 -0.11009575D-03
 -0.10637941D-03 -0.99737459D-04 -0.71019012D-04 -0.78134612D-04  0.10845187D-03
  0.72184918D-04  0.38778796D-03 -0.44291958D-04 -0.53731911D-04 -0.14081962D-05
  0.57908663D-05  0.36649029D-05 -0.74222265D-04  0.15448370D-03 -0.80261438D-04
 -0.10854492D-03 -0.88571512D-04  0.49804543D-03 -0.14573176D-03  0.11187776D-03
  0.33854001D-04 -0.67598642D-04 -0.26311507D-04  0.16757024D-03 -0.29642894D-05
 -0.50665625D-05  0.80308520D-05 -0.13219120D-04 -0.57836999D-05 -0.24789739D-04
  0.48647166D-04  0.69842582D-04 -0.11807131D-03 -0.14165275D-03 -0.36978521D-03
 -0.23059595D-03 -0.42887472D-05  0.16025746D-03  0.58480988D-03 -0.27810366D-03
  0.51148956D-04  0.19068293D-04  0.18227877D-05 -0.12547893D-03 -0.92259147D-04
 -0.64264477D-04 -0.27967934D-04  0.35054269D-04  0.58796114D-04 -0.17607403D-03
 -0.60860045D-05 -0.10976360D-04 -0.16184636D-04 -0.26904184D-03 -0.17186528D-04
  0.35940080D-06 -0.49993022D-04  0.86862851D-05 -0.41067550D-04 -0.45439951D-04
 -0.14347108D-04 -0.35930900D-05 -0.17305822D-04  0.14219689D-05  0.11646250D-04
 -0.10986118D-04 -0.61693210D-05  0.17155439D-04 -0.13925819D-04  0.25758449D-04
  0.23490707D-04  0.18284589D-05 -0.62917911D-06 -0.11992798D-05  0.11763431D-04
  0.10382151D-04 -0.27844241D-06 -0.60456700D-05 -0.10903615D-04 -0.16077374D-04
 -0.26579252D-03 -0.84810472D-05  0.17834185D-06 -0.45445153D-04 -0.35470616D-04
  0.29824886D-04 -0.42316612D-04 -0.21314889D-04 -0.99606805D-05 -0.17893353D-04
  0.10420799D-04 -0.32460318D-05 -0.11958949D-04  0.19476306D-04 -0.75173570D-05
  0.63229140D-05 -0.26041521D-04 -0.35552073D-05  0.17888119D-05 -0.73006672D-06
 -0.10587452D-05  0.14391279D-04  0.57116800D-05 -0.10158661D-05 -0.16378914D-05
 -0.29540045D-05 -0.43556779D-05 -0.52347512D-03 -0.79660935D-04 -0.10162255D-05
 -0.39618173D-04 -0.21412938D-04 -0.89059015D-05  0.44798355D-04 -0.10337517D-03
 -0.76610638D-04  0.50415285D-04 -0.90173700D-06 -0.47257362D-05 -0.11613049D-04
  0.26642571D-05  0.89487921D-05 -0.51917238D-04 -0.31107103D-04 -0.14534372D-04
 -0.90720576D-05  0.47921399D-05  0.42799177D-05  0.85742815D-05  0.72325839D-05
 -0.17169050D-05 -0.75007606D-04 -0.13980453D-03 -0.23706215D-03 -0.35880461D-03
 -0.44768339D-03 -0.38450033D-03 -0.14761715D-03  0.66030059D-06  0.52708115D-04
  0.98855376D-04  0.16852674D-03  0.26337450D-03  0.35218189D-03  0.37604815D-03
  0.22990846D-03 -0.15167964D-03 -0.23300576D-04 -0.82542832D-05 -0.69987838D-04
  0.95040751D-04  0.92157559D-04  0.62168945D-04 -0.82338409D-04 -0.79840559D-04
 -0.53859970D-04 -0.57288379D-04 -0.55550457D-04 -0.37474010D-04  0.34357316D-05
  0.91108023D-05  0.54645776D-05 -0.14768062D-03 -0.24815520D-04 -0.56385316D-05
  0.13780018D-04 -0.75490061D-05 -0.55460586D-05 -0.48038597D-04 -0.14468403D-04
  0.62507000D-04 -0.53614084D-04 -0.13586757D-04 -0.15065588D-03 -0.13532697D-04
  0.39025093D-04 -0.25492396D-04  0.39557935D-04  0.17983344D-04  0.12692256D-03
  0.24408107D-04 -0.28199010D-06 -0.24126117D-04  0.20614926D-04  0.48297332D-05
  0.46315757D-04  0.54181239D-04 -0.19717204D-04 -0.34168629D-04 -0.11154997D-03
  0.57988341D-04  0.27000677D-04 -0.50993744D-04  0.11632697D-05  0.75505209D-04
 -0.16619798D-03 -0.53304656D-05  0.20042758D-04  0.79958452D-05 -0.14635431D-04
 -0.85923820D-04 -0.46559853D-04  0.30626828D-04  0.25795547D-04  0.22572317D-04
 -0.65621151D-04  0.59550278D+00  0.11100430D+01  0.18817957D+01  0.28495934D+01
  0.35634265D+01  0.30677783D+01  0.11793660D+01 -0.51103858D-02  0.45935582D-03
  0.86258888D-03  0.14688401D-02  0.23009293D-02  0.30835160D-02  0.33167372D-02
  0.19913647D-02 -0.13096052D-02  0.57557952D-01  0.12839795D-02  0.12682591D-03
  0.88946386D-03  0.86987622D-03  0.57476400D-03 -0.68005734D-02 -0.66508123D-02
 -0.43944729D-02 -0.43020305D-02 -0.42072919D-02 -0.27799356D-02 -0.16762451D-03
  0.13882726D-02  0.87712787D-03  0.12025360D-03 -0.31177176D-03 -0.20086544D-03
  0.12322734D-04 -0.12042133D-04 -0.83044784D-05  0.81127096D-04 -0.56287916D-04
 -0.24839180D-04  0.10749417D-03  0.58191702D-04 -0.76554378D-04  0.27601562D-03
 -0.26943539D-03 -0.65802275D-05  0.15272650D-03  0.82435584D-04 -0.55964011D-03
 -0.11198921D-04  0.37570331D-04 -0.26371410D-04 -0.62575198D-04 -0.46511810D-04
  0.13880166D-03 -0.95037191D-05 -0.75528615D-04 -0.28866725D-03  0.14857732D-04
  0.18501710D-03  0.13380655D-03  0.13653425D-04  0.41568750D-04  0.73219520D-03
 -0.25064764D-03  0.11351564D-04  0.37032716D-04  0.72957093D-04 -0.26354484D-04
 -0.12542318D-03 -0.84797512D-04 -0.77002089D-05  0.14325037D-04 -0.13407377D-03
  0.44959626D-04
MO    2     MO 0.0        OCC NO =    2.0000000  ORB. ENERGY =  -20.584510
  0.23377563D-04  0.43581092D-04  0.73659723D-04  0.11073469D-03  0.13605036D-03
  0.11491628D-03  0.43342193D-04 -0.21450293D-06 -0.15253055D-04 -0.28558532D-04
 -0.48623345D-04 -0.75212921D-04 -0.99052771D-04 -0.10292217D-03 -0.65402421D-04
  0.43831182D-04 -0.64457268D-04 -0.33255383D-03  0.44902937D-04 -0.13236721D-03
 -0.12410267D-03 -0.88368496D-04 -0.58152761D-04 -0.54521910D-04 -0.38822848D-04
 -0.28644421D-04 -0.26855965D-04 -0.19123047D-04  0.22705327D-03  0.17802114D-03
  0.98260214D-04 -0.35319645D-04 -0.32969298D-04 -0.17568485D-04  0.40690138D-05
 -0.22212164D-05 -0.16655871D-05  0.90393838D-04 -0.47401203D-04 -0.42992635D-04
  0.70104025D-04  0.27824523D-04 -0.21163018D-04  0.10871327D-03 -0.64166012D-04
 -0.44547258D-04  0.14816384D-03  0.79718497D-04 -0.62554210D-04 -0.19839728D-05
  0.88940382D-05 -0.69100654D-05 -0.48100756D-05 -0.52754710D-05  0.34070473D-04
  0.53547174D-04 -0.17601979D-04 -0.20011638D-05 -0.85066294D-04  0.70952414D-04
  0.25314919D-04 -0.75575229D-04 -0.18146478D-04 -0.19311428D-04 -0.39044300D-04
 -0.15875298D-06 -0.70942749D-05 -0.11495425D-04 -0.10497493D-04  0.22795567D-04
  0.18485921D-04  0.10973752D-04 -0.15127426D-05  0.16000356D-04 -0.56655049D-04
  0.21289490D-03  0.39688450D-03  0.67080473D-03  0.10084392D-02  0.12389841D-02
  0.10465201D-02  0.39470890D-03 -0.19534364D-05 -0.17270706D-03 -0.32336212D-03
 -0.55055167D-03 -0.85161972D-03 -0.11215532D-02 -0.11653656D-02 -0.74053754D-03
  0.49629104D-03  0.19898141D-03  0.43038205D-05 -0.76571131D-04  0.50701989D-03
  0.47536338D-03  0.33848704D-03 -0.14974071D-03 -0.14039143D-03 -0.99967064D-04
 -0.12438494D-03 -0.11661879D-03 -0.83039525D-04  0.13220828D-02 -0.33996453D-03
 -0.29446301D-03 -0.21764688D-03 -0.81290557D-04 -0.36312059D-04  0.51472440D-05
  0.13602451D-05  0.57480398D-06  0.63212285D-03 -0.31659187D-03 -0.31553098D-03
 -0.68994542D-03 -0.55452623D-03  0.10198282D-03  0.20344408D-03 -0.12759324D-03
 -0.75850847D-04 -0.32040648D-03 -0.23129532D-03 -0.57044913D-04 -0.23426782D-04
  0.13796875D-04  0.96299062D-05  0.53798439D-04  0.37818567D-04  0.43388445D-06
  0.19466940D-04 -0.28098221D-04  0.12995506D-04  0.30504562D-04  0.13808385D-03
  0.63191122D-04 -0.88905382D-04 -0.53789188D-04 -0.10217764D-03  0.21766650D-03
 -0.44578041D-05  0.12980065D-04  0.13045984D-04  0.24619977D-04 -0.44991938D-04
 -0.32333933D-04 -0.11246565D-04  0.60517421D-05 -0.68040197D-05  0.92121981D-04
  0.59814998D-05  0.10787881D-04  0.15906725D-04  0.74954532D-04  0.87557841D-04
  0.51118086D-05  0.93722952D-05 -0.20381699D-05 -0.81586476D-06 -0.11309213D-04
  0.88918072D-05 -0.94508659D-05  0.51717944D-05 -0.82191697D-05 -0.10393789D-04
 -0.31452321D-04  0.26684339D-04  0.47679816D-05  0.16930237D-04 -0.29082255D-04
  0.61411768D-05 -0.93672560D-05  0.47828538D-05  0.45844022D-05 -0.75392917D-06
  0.12670216D-04  0.62115449D-05  0.60790138D-05  0.10963752D-04  0.16166046D-04
  0.77463615D-04  0.82992943D-04  0.49562694D-05  0.93244692D-05 -0.21116915D-05
 -0.23673016D-05 -0.12807258D-04 -0.87085678D-06  0.11277413D-04  0.46815512D-05
 -0.12157019D-04 -0.30891903D-05 -0.29417085D-04  0.10853022D-04  0.18564063D-04
 -0.20827057D-04  0.36481828D-04  0.23510256D-04 -0.10635641D-04  0.76742239D-05
  0.29614169D-05  0.93509383D-05 -0.41948086D-05  0.24370981D-05 -0.63325111D-05
 -0.11420945D-04 -0.16840176D-04  0.24756827D-03 -0.21305906D-03 -0.81672236D-05
 -0.46640745D-04 -0.13888611D-04 -0.63776457D-05  0.10485908D-03  0.15584392D-03
  0.95286910D-04  0.38302962D-05 -0.61238438D-05 -0.45017687D-05 -0.39272737D-06
  0.23970938D-04 -0.23578211D-04  0.89592669D-04  0.51243373D-04  0.92457346D-04
 -0.57475172D-05  0.86432954D-05 -0.28957782D-05  0.22744546D-04  0.14397538D-04
  0.21827777D-04  0.49801031D+00  0.92822714D+00  0.15739657D+01  0.23822704D+01
  0.29723778D+01  0.25528762D+01  0.98009880D+00 -0.43840421D-02  0.43040140D-03
  0.80722850D-03  0.13761476D-02  0.21506509D-02  0.28758300D-02  0.30707160D-02
  0.18773755D-02 -0.12385784D-02  0.47401319D-01  0.64374025D-03  0.10641929D-03
 -0.89947798D-02 -0.87219108D-02 -0.58837495D-02  0.29205095D-02  0.28319118D-02
  0.19103910D-02  0.23811091D-02  0.23088748D-02  0.15575533D-02  0.19169977D-02
 -0.57634524D-03 -0.47903703D-03  0.17712742D-03  0.41920690D-04  0.13767912D-04
 -0.47757713D-05  0.46591760D-06  0.50515541D-06  0.13082120D-02 -0.36941633D-03
 -0.93879565D-03 -0.80319210D-03 -0.83323321D-03  0.13044040D-02 -0.48279152D-03
  0.25429295D-03  0.22849857D-03  0.53322988D-03  0.42463838D-03 -0.28637677D-04
 -0.39697142D-04  0.17779731D-04  0.21917411D-04 -0.55253717D-05  0.50834154D-05
 -0.83534820D-05  0.71947114D-04  0.23136148D-04  0.45170036D-04 -0.44282733D-04
 -0.65402928D-04 -0.88066038D-04 -0.17155861D-03 -0.40055166D-05 -0.47444069D-04
  0.30879953D-03  0.41508999D-04  0.26588103D-04  0.25274174D-04 -0.56520593D-04
 -0.10097452D-03 -0.82845675D-04 -0.68006405D-04  0.21210210D-04  0.70231529D-05
  0.65785171D-04  0.34960336D-05  0.65167581D-05  0.11047507D-04  0.16729182D-04
  0.20919900D-04  0.18010086D-04  0.69237344D-05 -0.30001675D-07  0.18144602D-05
  0.34072349D-05  0.58019334D-05  0.90886943D-05  0.12179920D-04  0.13101146D-04
  0.78659107D-05 -0.51729538D-05 -0.47340104D-04  0.22949513D-03  0.19135307D-04
 -0.95976030D-04 -0.93862461D-04 -0.62018897D-04  0.22671721D-03  0.22172448D-03
  0.14650274D-03  0.14739484D-03  0.14414893D-03  0.95245293D-04  0.65835620D-04
 -0.17893791D-03 -0.11566376D-03 -0.38893036D-04 -0.10953110D-03 -0.66924573D-04
 -0.22528321D-04 -0.16993544D-06  0.12834855D-05  0.15842108D-03 -0.95140114D-04
 -0.63280963D-04 -0.16335860D-03 -0.12831071D-03 -0.41084408D-04 -0.95075029D-04
  0.81275027D-04  0.13800002D-04  0.26719026D-04  0.25031792D-04  0.13419106D-03
 -0.39092448D-05  0.97385323D-05 -0.58292875D-05  0.18217265D-04  0.10081139D-04
  0.30514469D-04 -0.39655054D-04  0.59267684D-04  0.10809590D-03  0.17830179D-03
 -0.17255417D-03 -0.13436399D-03 -0.59336626D-04 -0.52488791D-05 -0.18992370D-03
  0.60631007D-03  0.13308193D-04 -0.31903632D-04 -0.25328373D-04 -0.59611188D-04
  0.11413037D-03  0.80437369D-04  0.19686607D-04 -0.18419473D-04 -0.44522494D-05
 -0.20831638D-03
MO    3     MO 0.0        OCC NO =    2.0000000  ORB. ENERGY =  -11.428004
  0.73146867D-03  0.13636239D-02  0.23047646D-02  0.34648162D-02  0.42569270D-02
  0.35956554D-02  0.13561489D-02 -0.67116567D-05 -0.27692672D-04 -0.51849420D-04
 -0.88278075D-04 -0.13655276D-03 -0.17983518D-03 -0.18686027D-03 -0.11874131D-03
  0.79577667D-04  0.33273540D-03 -0.16588328D-02  0.21058472D-05  0.53820473D-03
  0.50460115D-03  0.35930608D-03  0.26453330D-03  0.24801678D-03  0.17660273D-03
  0.13243929D-03  0.12417026D-03  0.88416620D-04  0.14820480D-03  0.84978054D-04
  0.42429210D-04 -0.66077311D-03 -0.58713378D-03 -0.33174213D-03  0.15468865D-05
 -0.76588472D-05 -0.50448481D-05  0.10528981D-03 -0.61225043D-04 -0.44064771D-04
  0.10486159D-04 -0.12320713D-04 -0.42751548D-04 -0.35452467D-03  0.15673649D-03
  0.19778817D-03 -0.31981350D-03 -0.12657044D-03 -0.39929213D-04 -0.34812550D-04
  0.27076277D-04  0.77362725D-05 -0.57651879D-04 -0.33041598D-04  0.48966354D-04
 -0.14154925D-03  0.14688268D-03  0.68600565D-04  0.14270365D-03 -0.59666855D-03
 -0.30986957D-03  0.28194410D-03  0.15602051D-03  0.10406788D-03 -0.86640055D-04
 -0.44111666D-04  0.83861947D-05  0.65207265D-04  0.18716007D-04 -0.56189913D-05
  0.23099890D-04  0.11361899D-03 -0.19539593D-04 -0.21872168D-03 -0.13832651D-03
  0.32741734D+00  0.61038037D+00  0.10316503D+01  0.15509084D+01  0.19054702D+01
  0.16094742D+01  0.60703444D+00 -0.30042473D-02 -0.37299980D-03 -0.69837331D-03
 -0.11890403D-02 -0.18392646D-02 -0.24222467D-02 -0.25168695D-02 -0.15993576D-02
  0.10718523D-02  0.27384712D-01  0.18958368D-02 -0.30243486D-04  0.94685502D-04
  0.88773676D-04  0.63212146D-04  0.31591593D-02  0.29619127D-02  0.21090583D-02
  0.19685212D-02  0.18456138D-02  0.13141870D-02  0.59466045D-03 -0.14944069D-02
 -0.96935970D-03 -0.12068084D-02 -0.61455747D-03 -0.30811048D-03  0.39205937D-06
  0.41854597D-05  0.26980888D-05  0.13642708D-02 -0.30229864D-03 -0.10619721D-02
 -0.78967616D-03 -0.86146144D-03  0.16903940D-02  0.20051077D-03 -0.17401767D-03
 -0.26493100D-04 -0.30082868D-04 -0.33545370D-04 -0.29640514D-03  0.85757873D-05
 -0.38194344D-05 -0.47563529D-05  0.11643386D-03  0.72171430D-04 -0.14878555D-04
  0.21524034D-03  0.37150145D-03  0.18565716D-03 -0.42239589D-03 -0.15174106D-02
 -0.10256992D-02 -0.22332513D-03  0.40290627D-03  0.46872774D-03  0.81994658D-04
 -0.43330358D-04 -0.70424216D-04  0.10096717D-04  0.46494771D-04  0.30083301D-03
  0.21328928D-03  0.83496303D-04 -0.89560357D-04 -0.24357943D-03 -0.14288984D-03
 -0.64823545D-05 -0.11691193D-04 -0.17238658D-04  0.10072568D-03 -0.44462801D-04
  0.76416180D-05  0.17620550D-04  0.32190649D-04  0.88614641D-04 -0.23246192D-03
 -0.32267723D-03 -0.10328604D-03 -0.29071921D-04 -0.28990942D-04 -0.36815955D-04
 -0.17307862D-03  0.14993188D-03  0.23146739D-04 -0.53879700D-04 -0.10923555D-03
 -0.12182126D-03 -0.59448202D-04  0.43012834D-04  0.16435368D-04 -0.61281599D-04
 -0.31455081D-04  0.12780794D-04 -0.72039578D-05 -0.12992635D-04 -0.19157632D-04
  0.11103970D-03 -0.38997153D-04  0.77262781D-05  0.95452758D-05  0.91366174D-04
 -0.88548227D-05 -0.24262048D-03 -0.23753633D-03 -0.22878087D-03 -0.26774642D-04
 -0.46562626D-04 -0.81496383D-05 -0.16067220D-03 -0.91873239D-05  0.16985952D-03
 -0.13424945D-03  0.62609938D-04  0.31538778D-04 -0.58298754D-04  0.21844795D-04
  0.36453959D-04 -0.60898227D-04 -0.25137734D-04  0.31665888D-04 -0.19373711D-04
 -0.34941286D-04 -0.51520905D-04 -0.41658249D-03 -0.10175322D-02 -0.18345780D-04
 -0.38273465D-04 -0.22347916D-04 -0.10078963D-04 -0.78277415D-04  0.36190578D-04
  0.28851772D-04 -0.95159987D-06 -0.10642780D-03 -0.68544488D-04  0.10408951D-04
  0.10525965D-04 -0.20934916D-04 -0.23207702D-03 -0.15626979D-03  0.11173776D-03
 -0.47600558D-04  0.23725623D-04  0.23874935D-04 -0.61110373D-04 -0.28511033D-04
  0.83188725D-05 -0.66223998D-04 -0.12343301D-03 -0.20930149D-03 -0.31678755D-03
 -0.39525837D-03 -0.33947423D-03 -0.13033076D-03  0.58297747D-06 -0.12439281D-03
 -0.23330180D-03 -0.39772842D-03 -0.62157211D-03 -0.83116034D-03 -0.88748547D-03
 -0.54259121D-03  0.35796873D-03  0.26082344D-03  0.11203288D-03  0.21670924D-03
 -0.18390485D-02 -0.17832584D-02 -0.12029756D-02  0.51115255D-03  0.49564603D-03
  0.33435988D-03  0.43313444D-03  0.41999471D-03  0.28332595D-03  0.30191124D-03
 -0.15033766D-03 -0.11318589D-03  0.65704853D-03 -0.56774122D-04 -0.78325251D-04
 -0.13236432D-04 -0.12557995D-04 -0.72482316D-05  0.25696946D-03 -0.17447816D-03
 -0.82491299D-04 -0.40202114D-04 -0.61838800D-04 -0.17744952D-03 -0.46017504D-03
  0.23526082D-03  0.22491422D-03  0.16550903D-03  0.19109184D-03 -0.99711460D-05
 -0.15386074D-03  0.66054752D-04  0.87805990D-04  0.58462835D-04  0.69528697D-04
 -0.54822743D-04 -0.31831927D-03 -0.21612117D-03 -0.17009227D-03  0.34719799D-03
  0.81927200D-03  0.68363672D-03  0.60775983D-03 -0.17090848D-03 -0.17335992D-03
 -0.84814285D-03  0.11741596D-03  0.26329460D-04  0.70693530D-05 -0.16874588D-03
 -0.11163339D-03 -0.11795024D-03 -0.18350201D-03  0.32645013D-04  0.96742176D-04
  0.62118136D-04 -0.29186915D-04 -0.54405674D-04 -0.92230992D-04 -0.13966490D-03
 -0.17465145D-03 -0.15035863D-03 -0.57803347D-04  0.25047137D-06 -0.45618606D-04
 -0.85663662D-04 -0.14587044D-03 -0.22850519D-03 -0.30622383D-03 -0.32938502D-03
 -0.19776233D-03  0.13005683D-03  0.11996513D-03  0.12231015D-02  0.39669910D-03
  0.26045976D-03  0.25472396D-03  0.16830689D-03 -0.12516539D-02 -0.12240902D-02
 -0.80880814D-03 -0.79761046D-03 -0.78004561D-03 -0.51540911D-03  0.46914707D-04
 -0.67711789D-03 -0.42639358D-03  0.45138482D-03 -0.40329244D-03 -0.27957513D-03
 -0.16850507D-04 -0.34417683D-04 -0.20566498D-04 -0.56788727D-03  0.62164663D-03
 -0.53759359D-04 -0.36166482D-03 -0.21752496D-03  0.14354288D-02  0.67572376D-04
 -0.88063458D-04  0.20491082D-04  0.49784934D-04  0.33887165D-04 -0.22958427D-03
 -0.15386051D-04  0.12501577D-04  0.28844740D-05 -0.17783038D-03 -0.11084198D-03
  0.44532222D-04  0.58085837D-04 -0.40360043D-04  0.21820600D-04 -0.96589326D-04
  0.17818292D-03  0.90202807D-04 -0.77668184D-04 -0.57102794D-04 -0.15566461D-03
 -0.73640612D-04  0.42407575D-04  0.69230076D-04 -0.10385439D-03 -0.12151464D-03
 -0.35746025D-03 -0.22205349D-03 -0.57080820D-05  0.14977003D-03  0.53361665D-03
 -0.22459691D-03
MO    4     MO 0.0        OCC NO =    2.0000000  ORB. ENERGY =  -11.270537
  0.32738092D+00  0.61031247D+00  0.10315356D+01  0.15507359D+01  0.19052582D+01
  0.16092951D+01  0.60696691D+00 -0.30039131D-02 -0.47092552D-03 -0.88172117D-03
 -0.15012057D-02 -0.23221370D-02 -0.30581727D-02 -0.31776374D-02 -0.20192459D-02
  0.13532516D-02  0.28052177D-01 -0.11414947D-02  0.35152776D-04  0.65519635D-03
  0.61428822D-03  0.43740981D-03  0.49201868D-03  0.46129879D-03  0.32847222D-03
  0.27504578D-03  0.25787291D-03  0.18362087D-03  0.22512105D-03  0.14150204D-03
  0.74126019D-04 -0.26106025D-03  0.69386090D-04  0.57789037D-04 -0.48921261D-05
  0.13314433D-05  0.10429313D-05 -0.35283819D-04  0.46065130D-04 -0.10781311D-04
 -0.27060779D-03 -0.17224868D-03  0.16027700D-03 -0.74272949D-05 -0.10335975D-04
  0.17763269D-04  0.28693234D-03  0.18434318D-03 -0.10214748D-03 -0.26697560D-04
  0.89668690D-05  0.17730691D-04  0.10051521D-04  0.14378041D-04 -0.22118664D-04
  0.23479716D-03 -0.13051698D-03  0.28709424D-03  0.80527202D-05  0.81539532D-03
  0.29833053D-03 -0.71244419D-03 -0.42384439D-03 -0.11596133D-02  0.15618636D-02
 -0.51822587D-04  0.32210862D-05 -0.79506393D-04 -0.13328098D-04 -0.83680000D-04