 Molden2AIM, Version 4.0.0 (06/02/2016)           Time: Wed Jun 27 20:20:04 2018
GAUSSIAN             16 MOL ORBITALS    362 PRIMITIVES        6 NUCLEI
  C    1    (CENTRE  1)  -0.00000567  0.11833087  1.40141522  CHARGE =  6.0
  C    2    (CENTRE  2)  -0.00000189  0.20382397 -1.10691275  CHARGE =  6.0
  H    3    (CENTRE  3)  -0.00000189  1.88006018  2.46851144  CHARGE =  1.0
  H    4    (CENTRE  4)   0.00000567 -1.66104470  2.43547336  CHARGE =  1.0
  H    5    (CENTRE  5)   0.00000567  1.94416535 -2.20750058  CHARGE =  1.0
  Cl   6    (CENTRE  6)  -0.00000189 -2.48533567 -2.99098670  CHARGE = 17.0
CENTRE ASSIGNMENTS    1  1  1  1  1  1  1  1  1  1  1  1  1  1  1  1  1  1  1  1
CENTRE ASSIGNMENTS    1  1  1  1  1  1  1  1  1  1  1  1  1  1  1  1  1  1  1  1
CENTRE ASSIGNMENTS    1  1  1  1  1  1  1  1  1  1  1  1  1  1  1  1  1  1  1  1
CENTRE ASSIGNMENTS    1  1  1  1  1  1  1  1  1  1  1  1  1  1  1  2  2  2  2  2
CENTRE ASSIGNMENTS    2  2  2  2  2  2  2  2  2  2  2  2  2  2  2  2  2  2  2  2
CENTRE ASSIGNMENTS    2  2  2  2  2  2  2  2  2  2  2  2  2  2  2  2  2  2  2  2
CENTRE ASSIGNMENTS    2  2  2  2  2  2  2  2  2  2  2  2  2  2  2  2  2  2  2  2
CENTRE ASSIGNMENTS    2  2  2  2  2  2  2  2  2  2  3  3  3  3  3  3  3  3  3  3
CENTRE ASSIGNMENTS    3  3  3  3  3  3  3  3  3  3  3  3  3  3  3  3  3  4  4  4
CENTRE ASSIGNMENTS    4  4  4  4  4  4  4  4  4  4  4  4  4  4  4  4  4  4  4  4
CENTRE ASSIGNMENTS    4  4  4  4  5  5  5  5  5  5  5  5  5  5  5  5  5  5  5  5
CENTRE ASSIGNMENTS    5  5  5  5  5  5  5  5  5  5  5  6  6  6  6  6  6  6  6  6
CENTRE ASSIGNMENTS    6  6  6  6  6  6  6  6  6  6  6  6  6  6  6  6  6  6  6  6
CENTRE ASSIGNMENTS    6  6  6  6  6  6  6  6  6  6  6  6  6  6  6  6  6  6  6  6
CENTRE ASSIGNMENTS    6  6  6  6  6  6  6  6  6  6  6  6  6  6  6  6  6  6  6  6
CENTRE ASSIGNMENTS    6  6  6  6  6  6  6  6  6  6  6  6  6  6  6  6  6  6  6  6
CENTRE ASSIGNMENTS    6  6  6  6  6  6  6  6  6  6  6  6  6  6  6  6  6  6  6  6
CENTRE ASSIGNMENTS    6  6  6  6  6  6  6  6  6  6  6  6  6  6  6  6  6  6  6  6
CENTRE ASSIGNMENTS    6  6
TYPE ASSIGNMENTS      1  1  1  1  1  1  1  1  1  1  1  1  1  1  1  1  1  1  1  2
TYPE ASSIGNMENTS      2  2  3  3  3  4  4  4  2  3  4  2  3  4  2  3  4  5  6  7
TYPE ASSIGNMENTS      8  9 10  5  6  7  8  9 10  5  6  7  8  9 10 11 12 13 17 14
TYPE ASSIGNMENTS     15 18 19 16 20 11 12 13 17 14 15 18 19 16 20  1  1  1  1  1
TYPE ASSIGNMENTS      1  1  1  1  1  1  1  1  1  1  1  1  1  1  2  2  2  3  3  3
TYPE ASSIGNMENTS      4  4  4  2  3  4  2  3  4  2  3  4  5  6  7  8  9 10  5  6
TYPE ASSIGNMENTS      7  8  9 10  5  6  7  8  9 10 11 12 13 17 14 15 18 19 16 20
TYPE ASSIGNMENTS     11 12 13 17 14 15 18 19 16 20  1  1  1  1  1  1  2  3  4  2
TYPE ASSIGNMENTS      3  4  2  3  4  5  6  7  8  9 10  5  6  7  8  9 10  1  1  1
TYPE ASSIGNMENTS      1  1  1  2  3  4  2  3  4  2  3  4  5  6  7  8  9 10  5  6
TYPE ASSIGNMENTS      7  8  9 10  1  1  1  1  1  1  2  3  4  2  3  4  2  3  4  5
TYPE ASSIGNMENTS      6  7  8  9 10  5  6  7  8  9 10  1  1  1  1  1  1  1  1  1
TYPE ASSIGNMENTS      1  1  1  1  1  1  1  1  1  1  1  1  1  1  1  1  1  1  1  1
TYPE ASSIGNMENTS      1  1  1  1  1  1  1  1  1  1  1  1  1  2  2  2  2  2  2  2
TYPE ASSIGNMENTS      3  3  3  3  3  3  3  4  4  4  4  4  4  4  2  2  2  2  2  2
TYPE ASSIGNMENTS      2  3  3  3  3  3  3  3  4  4  4  4  4  4  4  2  3  4  2  3
TYPE ASSIGNMENTS      4  2  3  4  5  6  7  8  9 10  5  6  7  8  9 10  5  6  7  8
TYPE ASSIGNMENTS      9 10 11 12 13 17 14 15 18 19 16 20 11 12 13 17 14 15 18 19
TYPE ASSIGNMENTS     16 20
EXPONENTS  0.8236000D+04 0.1235000D+04 0.2808000D+03 0.7927000D+02 0.2559000D+02
EXPONENTS  0.8997000D+01 0.3319000D+01 0.3643000D+00 0.8236000D+04 0.1235000D+04
EXPONENTS  0.2808000D+03 0.7927000D+02 0.2559000D+02 0.8997000D+01 0.3319000D+01
EXPONENTS  0.3643000D+00 0.9059000D+00 0.1285000D+00 0.4402000D-01 0.1871000D+02
EXPONENTS  0.4133000D+01 0.1200000D+01 0.1871000D+02 0.4133000D+01 0.1200000D+01
EXPONENTS  0.1871000D+02 0.4133000D+01 0.1200000D+01 0.3827000D+00 0.3827000D+00
EXPONENTS  0.3827000D+00 0.1209000D+00 0.1209000D+00 0.1209000D+00 0.3569000D-01
EXPONENTS  0.3569000D-01 0.3569000D-01 0.1097000D+01 0.1097000D+01 0.1097000D+01
EXPONENTS  0.1097000D+01 0.1097000D+01 0.1097000D+01 0.3180000D+00 0.3180000D+00
EXPONENTS  0.3180000D+00 0.3180000D+00 0.3180000D+00 0.3180000D+00 0.1000000D+00
EXPONENTS  0.1000000D+00 0.1000000D+00 0.1000000D+00 0.1000000D+00 0.1000000D+00
EXPONENTS  0.7610000D+00 0.7610000D+00 0.7610000D+00 0.7610000D+00 0.7610000D+00
EXPONENTS  0.7610000D+00 0.7610000D+00 0.7610000D+00 0.7610000D+00 0.7610000D+00
EXPONENTS  0.2680000D+00 0.2680000D+00 0.2680000D+00 0.2680000D+00 0.2680000D+00
EXPONENTS  0.2680000D+00 0.2680000D+00 0.2680000D+00 0.2680000D+00 0.2680000D+00
EXPONENTS  0.8236000D+04 0.1235000D+04 0.2808000D+03 0.7927000D+02 0.2559000D+02
EXPONENTS  0.8997000D+01 0.3319000D+01 0.3643000D+00 0.8236000D+04 0.1235000D+04
EXPONENTS  0.2808000D+03 0.7927000D+02 0.2559000D+02 0.8997000D+01 0.3319000D+01
EXPONENTS  0.3643000D+00 0.9059000D+00 0.1285000D+00 0.4402000D-01 0.1871000D+02
EXPONENTS  0.4133000D+01 0.1200000D+01 0.1871000D+02 0.4133000D+01 0.1200000D+01
EXPONENTS  0.1871000D+02 0.4133000D+01 0.1200000D+01 0.3827000D+00 0.3827000D+00
EXPONENTS  0.3827000D+00 0.1209000D+00 0.1209000D+00 0.1209000D+00 0.3569000D-01
EXPONENTS  0.3569000D-01 0.3569000D-01 0.1097000D+01 0.1097000D+01 0.1097000D+01
EXPONENTS  0.1097000D+01 0.1097000D+01 0.1097000D+01 0.3180000D+00 0.3180000D+00
EXPONENTS  0.3180000D+00 0.3180000D+00 0.3180000D+00 0.3180000D+00 0.1000000D+00
EXPONENTS  0.1000000D+00 0.1000000D+00 0.1000000D+00 0.1000000D+00 0.1000000D+00
EXPONENTS  0.7610000D+00 0.7610000D+00 0.7610000D+00 0.7610000D+00 0.7610000D+00
EXPONENTS  0.7610000D+00 0.7610000D+00 0.7610000D+00 0.7610000D+00 0.7610000D+00
EXPONENTS  0.2680000D+00 0.2680000D+00 0.2680000D+00 0.2680000D+00 0.2680000D+00
EXPONENTS  0.2680000D+00 0.2680000D+00 0.2680000D+00 0.2680000D+00 0.2680000D+00
EXPONENTS  0.3387000D+02 0.5095000D+01 0.1159000D+01 0.3258000D+00 0.1027000D+00
EXPONENTS  0.2526000D-01 0.1407000D+01 0.1407000D+01 0.1407000D+01 0.3880000D+00
EXPONENTS  0.3880000D+00 0.3880000D+00 0.1020000D+00 0.1020000D+00 0.1020000D+00
EXPONENTS  0.1057000D+01 0.1057000D+01 0.1057000D+01 0.1057000D+01 0.1057000D+01
EXPONENTS  0.1057000D+01 0.2470000D+00 0.2470000D+00 0.2470000D+00 0.2470000D+00
EXPONENTS  0.2470000D+00 0.2470000D+00 0.3387000D+02 0.5095000D+01 0.1159000D+01
EXPONENTS  0.3258000D+00 0.1027000D+00 0.2526000D-01 0.1407000D+01 0.1407000D+01
EXPONENTS  0.1407000D+01 0.3880000D+00 0.3880000D+00 0.3880000D+00 0.1020000D+00
EXPONENTS  0.1020000D+00 0.1020000D+00 0.1057000D+01 0.1057000D+01 0.1057000D+01
EXPONENTS  0.1057000D+01 0.1057000D+01 0.1057000D+01 0.2470000D+00 0.2470000D+00
EXPONENTS  0.2470000D+00 0.2470000D+00 0.2470000D+00 0.2470000D+00 0.3387000D+02
EXPONENTS  0.5095000D+01 0.1159000D+01 0.3258000D+00 0.1027000D+00 0.2526000D-01
EXPONENTS  0.1407000D+01 0.1407000D+01 0.1407000D+01 0.3880000D+00 0.3880000D+00
EXPONENTS  0.3880000D+00 0.1020000D+00 0.1020000D+00 0.1020000D+00 0.1057000D+01
EXPONENTS  0.1057000D+01 0.1057000D+01 0.1057000D+01 0.1057000D+01 0.1057000D+01
EXPONENTS  0.2470000D+00 0.2470000D+00 0.2470000D+00 0.2470000D+00 0.2470000D+00
EXPONENTS  0.2470000D+00 0.4561000D+06 0.6833000D+05 0.1555000D+05 0.4405000D+04
EXPONENTS  0.1439000D+04 0.5204000D+03 0.2031000D+03 0.8396000D+02 0.3620000D+02
EXPONENTS  0.1583000D+02 0.6334000D+01 0.2694000D+01 0.4313000D+00 0.4561000D+06
EXPONENTS  0.6833000D+05 0.1555000D+05 0.4405000D+04 0.1439000D+04 0.5204000D+03
EXPONENTS  0.2031000D+03 0.8396000D+02 0.3620000D+02 0.1583000D+02 0.6334000D+01
EXPONENTS  0.2694000D+01 0.4313000D+00 0.4561000D+06 0.6833000D+05 0.1555000D+05
EXPONENTS  0.4405000D+04 0.1439000D+04 0.5204000D+03 0.2031000D+03 0.8396000D+02
EXPONENTS  0.3620000D+02 0.1583000D+02 0.6334000D+01 0.2694000D+01 0.4313000D+00
EXPONENTS  0.9768000D+00 0.1625000D+00 0.5910000D-01 0.6633000D+03 0.1568000D+03
EXPONENTS  0.4998000D+02 0.1842000D+02 0.7240000D+01 0.2922000D+01 0.3818000D+00
EXPONENTS  0.6633000D+03 0.1568000D+03 0.4998000D+02 0.1842000D+02 0.7240000D+01
EXPONENTS  0.2922000D+01 0.3818000D+00 0.6633000D+03 0.1568000D+03 0.4998000D+02
EXPONENTS  0.1842000D+02 0.7240000D+01 0.2922000D+01 0.3818000D+00 0.6633000D+03
EXPONENTS  0.1568000D+03 0.4998000D+02 0.1842000D+02 0.7240000D+01 0.2922000D+01
EXPONENTS  0.3818000D+00 0.6633000D+03 0.1568000D+03 0.4998000D+02 0.1842000D+02
EXPONENTS  0.7240000D+01 0.2922000D+01 0.3818000D+00 0.6633000D+03 0.1568000D+03
EXPONENTS  0.4998000D+02 0.1842000D+02 0.7240000D+01 0.2922000D+01 0.3818000D+00
EXPONENTS  0.1022000D+01 0.1022000D+01 0.1022000D+01 0.1301000D+00 0.1301000D+00
EXPONENTS  0.1301000D+00 0.4190000D-01 0.4190000D-01 0.4190000D-01 0.1046000D+01
EXPONENTS  0.1046000D+01 0.1046000D+01 0.1046000D+01 0.1046000D+01 0.1046000D+01
EXPONENTS  0.3440000D+00 0.3440000D+00 0.3440000D+00 0.3440000D+00 0.3440000D+00
EXPONENTS  0.3440000D+00 0.1350000D+00 0.1350000D+00 0.1350000D+00 0.1350000D+00
EXPONENTS  0.1350000D+00 0.1350000D+00 0.7060000D+00 0.7060000D+00 0.7060000D+00
EXPONENTS  0.7060000D+00 0.7060000D+00 0.7060000D+00 0.7060000D+00 0.7060000D+00
EXPONENTS  0.7060000D+00 0.7060000D+00 0.3120000D+00 0.3120000D+00 0.3120000D+00
EXPONENTS  0.3120000D+00 0.3120000D+00 0.3120000D+00 0.3120000D+00 0.3120000D+00
EXPONENTS  0.3120000D+00 0.3120000D+00
MO    1     MO 0.0        OCC NO =    2.0000000  ORB. ENERGY = -104.842867
  0.27532362D-05  0.51326582D-05  0.86750966D-05  0.13041512D-04  0.16023004D-04
  0.13533988D-04  0.51045225D-05 -0.25262567D-07 -0.20067473D-05 -0.37572641D-05
 -0.63970636D-05 -0.98952847D-05 -0.13031742D-04 -0.13540815D-04 -0.86045798D-05
  0.57665893D-05  0.40072593D-05  0.25783731D-04  0.69682174D-05 -0.27685523D-10
 -0.25956938D-10 -0.18482886D-10  0.19112756D-05  0.17919424D-05  0.12759697D-05
 -0.12213358D-05 -0.11450799D-05 -0.81536514D-06  0.49978734D-10 -0.55706513D-05
 -0.59782005D-05 -0.32961623D-10 -0.58712330D-05 -0.11296869D-04 -0.65941941D-12
 -0.22320698D-06 -0.68111730D-06  0.39506533D-06 -0.14339252D-05  0.10388599D-05
 -0.16516761D-10  0.18291828D-11  0.49630387D-05  0.52532583D-06  0.11119080D-05
 -0.16372338D-05 -0.26577909D-10  0.17700658D-10 -0.42812303D-04 -0.65474226D-07
 -0.81800564D-06  0.88347986D-06  0.11496664D-10 -0.20090469D-11  0.65685403D-05
  0.49028165D-12 -0.28695037D-05 -0.11977452D-06  0.18512301D-10  0.23547289D-05
  0.32115961D-06 -0.19983146D-10  0.62537822D-05  0.38163961D-07 -0.41234747D-10
 -0.12922960D-11 -0.28949848D-05  0.69889897D-06  0.83434971D-11  0.22336166D-05
 -0.25485773D-06 -0.44666092D-11  0.64513380D-05 -0.18418392D-05 -0.14360403D-10
  0.47762722D-05  0.89040572D-05  0.15049425D-04  0.22624216D-04  0.27796463D-04
  0.23478557D-04  0.88552478D-05 -0.43825115D-07 -0.35600196D-05 -0.66654799D-05
 -0.11348550D-04 -0.17554481D-04 -0.23118634D-04 -0.24021741D-04 -0.15264738D-04
  0.10230073D-04  0.16039786D-04 -0.73078272D-04 -0.92204490D-05 -0.28357165D-10
 -0.26586645D-10 -0.18931275D-10 -0.12216728D-04 -0.11453959D-04 -0.81559014D-05
 -0.84737241D-05 -0.79446550D-05 -0.56570677D-05  0.32654238D-10  0.47429708D-05
  0.82473439D-05 -0.12607537D-11  0.10655842D-04 -0.59708909D-05  0.66853690D-12
  0.22628036D-06 -0.54970718D-06 -0.28238021D-05  0.13553338D-05  0.14684683D-05
 -0.11081608D-10 -0.18534485D-10  0.93602316D-05  0.98058707D-05 -0.67793049D-05
 -0.30265658D-05  0.49503029D-10  0.19517947D-10 -0.53405051D-04  0.47851810D-06
 -0.20058919D-06 -0.27792891D-06 -0.22380934D-10  0.11629180D-10  0.84576361D-05
  0.30060780D-11  0.26541981D-05 -0.28629542D-05  0.19368826D-11 -0.69628325D-05
 -0.61441273D-05 -0.10955117D-10 -0.99976174D-06  0.14732990D-04  0.24050467D-10
 -0.17474887D-11  0.26127400D-05 -0.22309334D-05 -0.11627116D-10 -0.33573029D-05
 -0.54251068D-06  0.16869582D-10 -0.44809171D-05  0.72353109D-05  0.38229134D-10
  0.41674921D-06  0.75162437D-06  0.11082697D-05  0.32820129D-04 -0.27312500D-04
  0.68277701D-06 -0.67377586D-11 -0.23709627D-05 -0.67236984D-06 -0.70879632D-10
 -0.10437270D-04 -0.98602978D-05 -0.10747731D-11  0.35275418D-05 -0.34444454D-07
 -0.87004101D-08  0.86750098D-06 -0.85880057D-06  0.58066021D-10  0.37609638D-10
  0.30240716D-05 -0.77218035D-07  0.10769351D-05 -0.99971705D-06 -0.48719189D-11
  0.19905695D-10  0.11100274D-05 -0.13951523D-06 -0.25162147D-06 -0.37101571D-06
 -0.28784493D-04  0.34359985D-04  0.19647084D-06 -0.37604165D-10 -0.26968698D-05
 -0.16445995D-05  0.19616513D-09 -0.83860566D-05  0.13279950D-04 -0.29713416D-10
  0.34750830D-05 -0.11181294D-05  0.72558430D-06  0.83002753D-06 -0.15556118D-05
  0.10380092D-09 -0.83047081D-10  0.36142015D-05  0.40239537D-06 -0.74272775D-06
  0.34033238D-06  0.11734785D-10 -0.44841275D-10 -0.12178324D-06 -0.25439252D-06
 -0.45880739D-06 -0.67651123D-06 -0.74771465D-05  0.34370280D-04 -0.37564876D-06
 -0.36422295D-10 -0.16693626D-06  0.23795632D-05  0.83464745D-10  0.54136464D-05
 -0.43566961D-05 -0.16427869D-10 -0.32605804D-05 -0.32468191D-06 -0.17878237D-05
  0.15587448D-05  0.22907897D-06 -0.13482417D-10  0.74768901D-11  0.12336865D-05
  0.10906650D-05 -0.12832245D-05  0.19255951D-06 -0.82089373D-11  0.17110420D-10
 -0.10660833D-05  0.61664372D+00  0.11537428D+01  0.19934119D+01  0.32315532D+01
  0.49073713D+01  0.68206691D+01  0.81087916D+01  0.72226878D+01  0.35855585D+01
  0.57769092D+00  0.88690945D-02  0.15848985D-02  0.59225183D-04 -0.21435038D-04
 -0.40037572D-04 -0.69487149D-04 -0.11274940D-03 -0.17452268D-03 -0.24981337D-03
 -0.32608448D-03 -0.34749742D-03 -0.25976138D-03 -0.13712342D-04  0.17619678D-03
  0.10468113D-03 -0.39247577D-06  0.94488009D-05  0.17634825D-04  0.30647775D-04
  0.49671027D-04  0.77146881D-04  0.11051513D-03  0.14592494D-03  0.15778814D-03
  0.12370795D-03  0.61556666D-05 -0.10604899D-03 -0.10978036D-03  0.49677168D-04
 -0.31462320D-03 -0.99190908D-05 -0.38283980D-05  0.39289818D-09  0.51753508D-09
  0.57096243D-09  0.47424993D-09  0.25188566D-09  0.64968659D-10 -0.66785572D-13
  0.13325957D-02  0.17553275D-02  0.19365375D-02  0.16085170D-02  0.85432245D-03
  0.22035468D-03 -0.22651712D-06  0.10251886D-02  0.13504035D-02  0.14898114D-02
  0.12374596D-02  0.65724487D-03  0.16952262D-03 -0.17426349D-06 -0.86379120D-10
 -0.11340945D-09 -0.12912500D-09 -0.10933775D-09 -0.62632873D-10 -0.14246806D-10
  0.66682891D-11 -0.68861027D-03 -0.90409480D-03 -0.10293784D-02 -0.87163539D-03
 -0.49930631D-03 -0.11357486D-03  0.53159286D-04 -0.55565570D-03 -0.72953520D-03
 -0.83062949D-03 -0.70334294D-03 -0.40290192D-03 -0.91646208D-04  0.42895469D-04
 -0.29595260D-10 -0.82586636D-04 -0.62827145D-04 -0.12843140D-10 -0.36613379D-05
  0.18899373D-05  0.86887674D-13 -0.24201227D-06 -0.13789517D-06 -0.46394634D-05
  0.50284885D-05 -0.38902502D-06 -0.35421182D-11 -0.80656123D-11  0.10582977D-04
 -0.74546995D-05  0.61092202D-05  0.13454793D-05 -0.43800088D-11  0.96760753D-11
  0.24597133D-04  0.30209628D-07 -0.50719519D-06  0.47698556D-06 -0.29262385D-11
 -0.11744161D-11 -0.10480147D-06  0.44380070D-11  0.52164441D-06 -0.17183772D-05
 -0.24570231D-11 -0.62016022D-05 -0.63214876D-05 -0.10856998D-10  0.46366689D-05
  0.11476619D-04 -0.10165150D-11 -0.18503623D-11 -0.11121154D-06 -0.76037037D-06
 -0.38055545D-11 -0.12818574D-05 -0.35062489D-06  0.93566415D-11  0.16154920D-05
  0.26317360D-05  0.45865427D-11
MO    2     MO 0.0        OCC NO =    2.0000000  ORB. ENERGY =  -11.305825
  0.51820996D-02  0.96606119D-02  0.16328136D-01  0.24546537D-01  0.30158256D-01
  0.25473469D-01  0.96076552D-02 -0.47548822D-04 -0.26837237D-04 -0.50247775D-04
 -0.85551136D-04 -0.13233460D-03 -0.17428001D-03 -0.18108809D-03 -0.11507335D-03
  0.77119487D-04  0.10036485D-02 -0.37021842D-02 -0.56042389D-03  0.10369285D-08
  0.97218639D-09  0.69225463D-09  0.25655071D-04  0.24053260D-04  0.17127354D-04
 -0.90296253D-03 -0.84658477D-03 -0.60281879D-03  0.26663849D-10 -0.78806279D-04
  0.15838201D-02 -0.16641163D-08  0.44619979D-04  0.10781897D-02 -0.31077813D-10
  0.11104262D-04  0.38688286D-04  0.11194513D-03  0.36297568D-03 -0.47492080D-03
 -0.13001202D-08  0.46126749D-08  0.26278939D-04  0.38514997D-03  0.43642583D-03
 -0.82157580D-03 -0.11595156D-08  0.44867698D-08 -0.10617065D-03  0.33752161D-04
  0.24656686D-04 -0.58408847D-04  0.81190630D-10  0.49891894D-09 -0.46725599D-04
  0.56528225D-10  0.47493677D-04  0.22304347D-03  0.29856775D-08  0.82309281D-04
 -0.42288422D-03 -0.31552622D-08 -0.22479031D-03 -0.24624619D-03 -0.16310194D-08
 -0.76473106D-10  0.29243211D-04  0.94800314D-04  0.13345025D-08  0.13739756D-04
 -0.42904221D-04 -0.11050832D-08 -0.10146939D-03 -0.24149672D-03  0.18266983D-08
  0.32729814D+00  0.61015815D+00  0.10312748D+01  0.15503438D+01  0.19047764D+01
  0.16088882D+01  0.60681344D+00 -0.30031536D-02 -0.37690269D-03 -0.70568076D-03
 -0.12014819D-02 -0.18585098D-02 -0.24475920D-02 -0.25432049D-02 -0.16160925D-02
  0.10830676D-02  0.27803795D-01  0.26880380D-02  0.44322637D-03 -0.67353272D-08
 -0.63147974D-08 -0.44965119D-08 -0.25824947D-02 -0.24212530D-02 -0.17240764D-02
 -0.28496942D-02 -0.26717694D-02 -0.19024590D-02  0.87004831D-12  0.12081265D-02
  0.28268451D-02 -0.56355543D-09  0.66685223D-04  0.12775129D-02 -0.66324408D-10
 -0.47821683D-05  0.46929415D-04 -0.13838516D-02  0.10006108D-03  0.12837905D-02
  0.73676250D-08 -0.10250820D-07 -0.64430554D-03  0.15262956D-03 -0.63936982D-03
  0.48674026D-03  0.26355033D-09 -0.40333311D-09 -0.66407937D-03 -0.15456374D-04
 -0.47958866D-04  0.63415240D-04 -0.20743244D-09 -0.66165793D-11 -0.79247931D-04
 -0.46627840D-09  0.66397835D-04  0.53547421D-03  0.45718047D-08 -0.46439356D-03
 -0.45153991D-03 -0.31729695D-08  0.26520005D-03 -0.11548827D-02 -0.68634932D-08
 -0.10324991D-09  0.29098929D-04 -0.78398136D-04 -0.48424817D-09 -0.10059387D-04
 -0.14501783D-04  0.79399790D-09 -0.77237401D-04  0.24969619D-03  0.18549028D-08
  0.81895778D-05  0.14770241D-04  0.21778711D-04  0.37372782D-03  0.27844368D-04
 -0.43262467D-04  0.14721420D-08  0.70071940D-04 -0.81597117D-04 -0.44054130D-08
 -0.16057816D-03  0.45693007D-03 -0.46961886D-09 -0.75572167D-05  0.68135883D-04
  0.28206165D-04  0.61119905D-04 -0.89326070D-04  0.20704799D-08  0.77804852D-09
 -0.21358939D-03  0.35202541D-04  0.36010369D-04 -0.71212909D-04  0.51694940D-09
  0.74530855D-11 -0.53492448D-04  0.16310790D-04  0.29417182D-04  0.43375618D-04
  0.10646440D-03 -0.35574274D-03  0.54878064D-07  0.82736805D-09 -0.64200002D-04
 -0.10871367D-03 -0.15234340D-08 -0.21520011D-03  0.31721390D-03  0.11607773D-10
 -0.55962092D-04  0.69825339D-04  0.11342640D-03 -0.93399185D-04 -0.20027213D-04
  0.16476934D-08  0.87442624D-09  0.20093209D-03  0.60883053D-04  0.22359960D-04
 -0.83243012D-04  0.50900770D-09  0.38143209D-09  0.74880380D-04  0.63370003D-04
  0.11429041D-03  0.16852114D-03  0.44543911D-03 -0.29165825D-04  0.38570781D-04
  0.26328280D-08  0.41418511D-03 -0.30210887D-03 -0.11222909D-08  0.14139606D-03
  0.15883857D-04  0.27022746D-09  0.53400144D-04  0.56895245D-04  0.19014483D-03
 -0.21132650D-03  0.21181669D-04 -0.32579693D-08  0.25098576D-08  0.71235485D-03
  0.46550322D-04 -0.43211965D-04 -0.33383575D-05 -0.14144189D-09 -0.10149958D-09
 -0.23786389D-04  0.38076645D-05  0.71241550D-05  0.12308962D-04  0.19954262D-04
  0.30302139D-04  0.42116410D-04  0.50070336D-04  0.44598804D-04  0.22140182D-04
  0.35671380D-05  0.54765070D-07  0.97864642D-08  0.36570490D-09 -0.32496657D-04
 -0.60699088D-04 -0.10534621D-03 -0.17093409D-03 -0.26458567D-03 -0.37873035D-03
 -0.49436141D-03 -0.52682457D-03 -0.39381206D-03 -0.20788639D-04  0.26712369D-03
  0.15870216D-03 -0.59501413D-06 -0.18500818D-07 -0.34529112D-07 -0.60008557D-07
 -0.97256217D-07 -0.15105413D-06 -0.21638940D-06 -0.28572204D-06 -0.30895028D-06
 -0.24222103D-06 -0.12052838D-07  0.20764466D-06  0.21495072D-06 -0.97268241D-07
 -0.38839563D-03  0.13231202D-02  0.32300449D-03 -0.10171568D-07 -0.13398238D-07
 -0.14781396D-07 -0.12277648D-07 -0.65209571D-08 -0.16819451D-08  0.17289823D-11
  0.13375580D-01  0.17618640D-01  0.19437487D-01  0.16145068D-01  0.85750376D-02
  0.22117523D-02 -0.22736062D-05  0.11222871D-01  0.14783040D-01  0.16309157D-01
  0.13546629D-01  0.71949438D-02  0.18557859D-02 -0.19076848D-05  0.86660321D-08
  0.11377865D-07  0.12954536D-07  0.10969369D-07  0.62836770D-08  0.14293185D-08
 -0.66899973D-09 -0.12614795D-01 -0.16562301D-01 -0.18857399D-01 -0.15967671D-01
 -0.91468966D-02 -0.20806016D-02  0.97383607D-03 -0.10521890D-01 -0.13814471D-01
 -0.15728791D-01 -0.13318494D-01 -0.76293464D-02 -0.17354116D-02  0.81226814D-03
  0.68957221D-09 -0.56649364D-03 -0.47398740D-03 -0.31013368D-09  0.40701834D-03
  0.35053145D-03  0.21740182D-11  0.94588326D-05  0.66014571D-05 -0.10004353D-03
  0.84803847D-04  0.15239679D-04  0.10580453D-08 -0.25884364D-09  0.75211470D-04
 -0.21507429D-03  0.16793018D-03  0.47144109D-04 -0.10068606D-08  0.33016707D-10
  0.81271673D-03 -0.27630724D-04  0.21510395D-04  0.61203288D-05 -0.64915548D-10
 -0.78235761D-10  0.77875156D-04  0.72774804D-10  0.77112498D-05 -0.37023058D-04
  0.14275221D-09 -0.14051831D-03 -0.84768457D-04 -0.36107662D-09  0.11738456D-03
  0.19583763D-03  0.57331829D-09  0.23509657D-10 -0.12162660D-04 -0.33096415D-04
 -0.36590160D-09 -0.59684972D-04 -0.59110866D-04  0.29537263D-09  0.96172953D-04
  0.15840011D-03 -0.32406335D-09
MO    3     MO 0.0        OCC NO =    2.0000000  ORB. ENERGY =  -11.250875
  0.32725370D+00  0.61007530D+00  0.10311347D+01  0.15501332D+01  0.19045178D+01
  0.16086697D+01  0.60673104D+00 -0.30027458D-02 -0.39516160D-03 -0.73986720D-03
 -0.12596872D-02 -0.19485446D-02 -0.25661647D-02 -0.26664095D-02 -0.16943835D-02
  0.11355364D-02  0.27912088D-01  0.26839067D-02  0.24098320D-03 -0.55624777D-08
 -0.52151764D-08 -0.37135163D-08  0.55143959D-04  0.51700967D-04  0.36814168D-04
  0.67119356D-03  0.62928663D-03  0.44808957D-03  0.90132343D-08  0.29873075D-04
 -0.17378542D-02 -0.19316950D-08 -0.62680433D-04 -0.14628259D-02 -0.75283181D-10
 -0.34284660D-05 -0.24424174D-04 -0.18341925D-02  0.55861076D-03  0.12755817D-02
 -0.75984643D-08  0.36730731D-08 -0.12311987D-03  0.12844120D-03 -0.46018504D-03
  0.33174384D-03  0.56155026D-09 -0.66859643D-08 -0.34297616D-04 -0.45490120D-05
 -0.10940533D-03  0.11395434D-03  0.57927467D-09  0.77248939D-09 -0.10906472D-03
 -0.41398765D-08 -0.47362725D-04 -0.68275212D-03  0.66311448D-08 -0.85584124D-05
  0.88529881D-04  0.57884845D-08  0.15064659D-03  0.19597265D-02 -0.68845329D-08
  0.28440103D-09 -0.39337626D-05  0.12960252D-03 -0.23003400D-08  0.41120051D-05
  0.44036367D-04  0.14471369D-08  0.76892826D-05 -0.43284391D-03  0.29347337D-08
 -0.52593420D-02 -0.98046093D-02 -0.16571517D-01 -0.24912418D-01 -0.30607784D-01
 -0.25853167D-01 -0.97508633D-02  0.48257566D-04 -0.55744179D-04 -0.10437069D-03
 -0.17770003D-03 -0.27487493D-03 -0.36200062D-03 -0.37614183D-03 -0.23902125D-03
  0.16018648D-03  0.23140371D-03 -0.42254486D-02 -0.33129700D-03  0.26449847D-08
  0.24798413D-08  0.17657947D-08  0.42586157D-04  0.39927229D-04  0.28430566D-04
  0.89287357D-03  0.83712572D-03  0.59608338D-03 -0.40350994D-08 -0.14363691D-03
 -0.93750433D-03  0.65837334D-08 -0.11974662D-05 -0.12848892D-02  0.18624201D-09
  0.71050432D-05 -0.20232708D-04  0.20109435D-03  0.27505598D-03 -0.47615033D-03
 -0.94838537D-09  0.24992525D-08  0.97326791D-04  0.44506137D-03  0.21494118D-03
 -0.66000255D-03  0.16744292D-08 -0.20213720D-08  0.18210806D-03  0.19109421D-04
  0.57713444D-04 -0.76822865D-04 -0.25455525D-09  0.86557496D-09 -0.37103066D-04
  0.31273459D-09 -0.13990003D-04 -0.36452707D-03 -0.17393674D-08  0.31999561D-04
  0.41612933D-03  0.80116359D-09  0.99704475D-05  0.67745188D-03 -0.15840270D-08
 -0.50847947D-09 -0.26058771D-05 -0.63781139D-04  0.18988670D-08 -0.26793191D-05
  0.64163973D-04 -0.37342857D-09  0.10496950D-04  0.12717944D-03  0.25421841D-08
  0.64668899D-04  0.11663302D-03  0.17197532D-03  0.11846278D-02  0.11746242D-02
  0.19958194D-04  0.23076398D-08  0.52998321D-03  0.31151021D-03 -0.25182491D-08
 -0.14808226D-04 -0.12925703D-03 -0.13650190D-08 -0.27135419D-04 -0.13109775D-03
  0.26092026D-03 -0.34738724D-03  0.86466971D-04 -0.18509837D-08 -0.14462575D-08
 -0.82929397D-03  0.68859437D-04 -0.55350068D-04 -0.13509369D-04  0.73906133D-09
 -0.85452340D-09  0.47658591D-04  0.67787762D-04  0.12225802D-03  0.18026938D-03
  0.11065986D-02  0.16051730D-03  0.10102205D-04  0.36387400D-08 -0.54928778D-03
  0.31119371D-03 -0.20469971D-08  0.58698148D-04 -0.48409547D-04  0.34314828D-10
 -0.84286262D-04 -0.13072714D-03  0.26672250D-03 -0.32467524D-03  0.57952739D-04
  0.61468314D-08 -0.49509383D-08  0.85842068D-03  0.63364180D-04 -0.37040911D-04
 -0.26323269D-04  0.36073681D-09 -0.21880083D-09 -0.46907014D-04  0.18615174D-04
  0.33573232D-04  0.49503711D-04  0.54961669D-03 -0.58027920D-03 -0.21330028D-04
  0.12869931D-08 -0.76537319D-04  0.17043994D-03 -0.46444287D-08 -0.21817557D-03
 -0.13785283D-03  0.54554458D-09  0.27091736D-04 -0.10486335D-03  0.25818900D-04
  0.66981604D-04 -0.92800503D-04  0.16782941D-08 -0.19830917D-08 -0.25392624D-04
  0.30412482D-04  0.41871669D-04 -0.72284151D-04  0.23807622D-09 -0.66298225D-09
  0.41914092D-04  0.40463605D-04  0.75707560D-04  0.13080589D-03  0.21205161D-03
  0.32201728D-03  0.44756616D-03  0.53209159D-03  0.47394626D-03  0.23528112D-03
  0.37907558D-04  0.58198198D-06  0.10399961D-06  0.38863031D-08 -0.69070175D-04
 -0.12901317D-03 -0.22390861D-03 -0.36331268D-03 -0.56236489D-03 -0.80497424D-03
 -0.10507428D-02 -0.11197418D-02 -0.83702974D-03 -0.44185313D-04  0.56775934D-03
  0.33731428D-03 -0.12646757D-05  0.38223288D-04  0.71338260D-04  0.12397962D-03
  0.20093449D-03  0.31208272D-03  0.44706750D-03  0.59031097D-03  0.63830126D-03
  0.50043647D-03  0.24901553D-04 -0.42900058D-03 -0.44409513D-03  0.20095933D-03
 -0.76728575D-04 -0.15614528D-04  0.38773213D-04 -0.34258517D-07 -0.45126155D-07
 -0.49784721D-07 -0.41351933D-07 -0.21963016D-07 -0.56649025D-08  0.58233272D-11
  0.19258817D-02  0.25368184D-02  0.27987049D-02  0.23246462D-02  0.12346760D-02
  0.31845897D-03 -0.32736499D-06  0.12625690D-02  0.16630868D-02  0.18347743D-02
  0.15239910D-02  0.80942863D-03  0.20877525D-03 -0.21461386D-06  0.29658458D-07
  0.38939381D-07  0.44335350D-07  0.37541354D-07  0.21505133D-07  0.48916716D-08
 -0.22895715D-08 -0.17385559D-02 -0.22825964D-02 -0.25989040D-02 -0.22006451D-02
 -0.12606143D-02 -0.28674601D-03  0.13421291D-03 -0.11587387D-02 -0.15213390D-02
 -0.17321564D-02 -0.14667189D-02 -0.84019306D-03 -0.19111477D-03  0.89452231D-04
  0.22993761D-08 -0.60893723D-04  0.96713937D-05 -0.10307668D-08  0.36929839D-04
 -0.46658785D-04 -0.41790145D-10  0.36807571D-05 -0.39212001D-06 -0.65939836D-04
 -0.41012021D-04  0.10695186D-03  0.20526944D-08  0.88128725D-09  0.43672905D-04
  0.14180957D-04  0.54918719D-04 -0.69099675D-04 -0.21366883D-08 -0.13548813D-08
  0.24970444D-04 -0.18623850D-05  0.88807276D-05 -0.70183426D-05 -0.25604318D-09
 -0.42287627D-09 -0.74335959D-05 -0.55877828D-10  0.31440390D-05  0.10209807D-04
  0.25626579D-09 -0.28222175D-04 -0.17655332D-04 -0.88632309D-10  0.18790058D-04
 -0.12974090D-04  0.12272124D-08  0.17810450D-09  0.14245174D-04 -0.19500944D-04
 -0.41163591D-09  0.10107468D-04  0.24995936D-04 -0.12267758D-09 -0.52842990D-04
  0.33506896D-04 -0.12637045D-08
MO    4     MO 0.0        OCC NO =    2.0000000  ORB. ENERGY =  -10.566948
  0.90693263D-05  0.16907286D-04  0.28576292D-04  0.42959528D-04  0.52780743D-04
  0.44581775D-04  0.16814605D-04 -0.83216421D-07 -0.22197614D-05 -0.41560937D-05
 -0.70761051D-05 -0.10945659D-04 -0.14415047D-04 -0.14978158D-04 -0.95179468D-05
  0.63787066D-05 -0.46465067D-05 -0.69093679D-03  0.31718825D-04  0.74021494D-09
  0.69399856D-09  0.49416832D-09 -0.11949233D-04 -0.11203166D-04 -0.79773216D-05
  0.64139063D-05  0.60134448D-05  0.42819310D-05 -0.14084797D-08  0.48742643D-04
 -0.19928851D-03  0.73487673D-09 -0.50815580D-04  0.35541528D-03  0.22107748D-10
  0.41765473D-05  0.60972107D-05 -0.15608333D-04 -0.22764718D-05  0.17884805D-04
  0.69973208D-09 -0.52609845D-09  0.24252857D-04  0.20982026D-04 -0.12636418D-03
  0.10538215D-03  0.60405183D-09 -0.65239113D-09  0.26539337D-03 -0.98737794D-05
  0.24855578D-04 -0.14981798D-04 -0.31788186D-09  0.27329862D-10 -0.78840209D-04
  0.33863016D-09  0.13559709D-04  0.47665955D-05 -0.11353514D-08 -0.44203537D-04
 -0.10125955D-04  0.11946091D-09  0.35244107D-05 -0.41738312D-05  0.79243017D-09
  0.48888261D-10  0.13758935D-04 -0.31101793D-04 -0.35929195D-09 -0.57121506D-05
 -0.21391002D-04  0.21262716D-09 -0.35564654D-04  0.11469638D-03 -0.10697283D-09
 -0.84716198D-04 -0.15793025D-03 -0.26692995D-03 -0.40128315D-03 -0.49302272D-03
 -0.41643650D-03 -0.15706453D-03  0.77732111D-06 -0.97079222D-05 -0.18176293D-04
 -0.30946695D-04 -0.47869831D-04 -0.63042883D-04 -0.65505594D-04 -0.41625864D-04
  0.27896686D-04 -0.16479342D-03  0.95686809D-03  0.17263812D-04  0.16632248D-09
  0.15593790D-09  0.11103707D-09 -0.47009649D-04 -0.44074534D-04 -0.31383694D-04
  0.13882047D-04  0.13015301D-04  0.92676697D-05  0.43483163D-09 -0.25789847D-03
 -0.55579853D-03 -0.63374955D-09 -0.27786714D-04  0.39747143D-03  0.49877033D-12
 -0.79384150D-05 -0.54951383D-06 -0.11207459D-03  0.13806174D-03 -0.25987156D-04
  0.64042077D-09  0.21206104D-09  0.29549364D-03 -0.99111385D-04  0.13196036D-03
 -0.32848975D-04 -0.29514973D-09 -0.42399370D-09  0.39906611D-03  0.58753068D-05
 -0.33554731D-04  0.27679424D-04  0.32132954D-09 -0.32081250D-09 -0.14009957D-03
 -0.25083896D-09 -0.19421735D-04  0.77246625D-05  0.15310812D-09  0.47677517D-04
  0.74510434D-04  0.59940878D-09  0.10587689D-04 -0.97684422D-04 -0.58354673D-09
  0.67315543D-10 -0.34211571D-04 -0.10512264D-04 -0.15660243D-09  0.20738343D-04
 -0.31454192D-04 -0.45344197D-10  0.81896369D-04  0.62990983D-04 -0.49308206D-09
 -0.54110236D-05 -0.97590040D-05 -0.14389646D-04 -0.23833030D-03  0.35652761D-03
 -0.68228458D-05  0.22441792D-09  0.33148573D-04  0.12300211D-04  0.85690495D-09