 Molden2AIM, Version 4.0.0 (06/02/2016)           Time: Wed Jun 27 21:50:45 2018
GAUSSIAN              8 MOL ORBITALS    258 PRIMITIVES        6 NUCLEI
  C    1    (CENTRE  1)   0.00000000  0.00000000  1.25931727  CHARGE =  6.0
  C    2    (CENTRE  2)   0.00000000  0.00000000 -1.25931727  CHARGE =  6.0
  H    3    (CENTRE  3)   0.00000000  1.75719774  2.33996282  CHARGE =  1.0
  H    4    (CENTRE  4)   0.00000000 -1.75719774  2.33996282  CHARGE =  1.0
  H    5    (CENTRE  5)   0.00000000  1.75719774 -2.33996282  CHARGE =  1.0
  H    6    (CENTRE  6)   0.00000000 -1.75719774 -2.33996282  CHARGE =  1.0
CENTRE ASSIGNMENTS    1  1  1  1  1  1  1  1  1  1  1  1  1  1  1  1  1  1  1  1
CENTRE ASSIGNMENTS    1  1  1  1  1  1  1  1  1  1  1  1  1  1  1  1  1  1  1  1
CENTRE ASSIGNMENTS    1  1  1  1  1  1  1  1  1  1  1  1  1  1  1  1  1  1  1  1
CENTRE ASSIGNMENTS    1  1  1  1  1  1  1  1  1  1  1  1  1  1  1  2  2  2  2  2
CENTRE ASSIGNMENTS    2  2  2  2  2  2  2  2  2  2  2  2  2  2  2  2  2  2  2  2
CENTRE ASSIGNMENTS    2  2  2  2  2  2  2  2  2  2  2  2  2  2  2  2  2  2  2  2
CENTRE ASSIGNMENTS    2  2  2  2  2  2  2  2  2  2  2  2  2  2  2  2  2  2  2  2
CENTRE ASSIGNMENTS    2  2  2  2  2  2  2  2  2  2  3  3  3  3  3  3  3  3  3  3
CENTRE ASSIGNMENTS    3  3  3  3  3  3  3  3  3  3  3  3  3  3  3  3  3  4  4  4
CENTRE ASSIGNMENTS    4  4  4  4  4  4  4  4  4  4  4  4  4  4  4  4  4  4  4  4
CENTRE ASSIGNMENTS    4  4  4  4  5  5  5  5  5  5  5  5  5  5  5  5  5  5  5  5
CENTRE ASSIGNMENTS    5  5  5  5  5  5  5  5  5  5  5  6  6  6  6  6  6  6  6  6
CENTRE ASSIGNMENTS    6  6  6  6  6  6  6  6  6  6  6  6  6  6  6  6  6  6
TYPE ASSIGNMENTS      1  1  1  1  1  1  1  1  1  1  1  1  1  1  1  1  1  1  1  2
TYPE ASSIGNMENTS      2  2  3  3  3  4  4  4  2  3  4  2  3  4  2  3  4  5  6  7
TYPE ASSIGNMENTS      8  9 10  5  6  7  8  9 10  5  6  7  8  9 10 11 12 13 17 14
TYPE ASSIGNMENTS     15 18 19 16 20 11 12 13 17 14 15 18 19 16 20  1  1  1  1  1
TYPE ASSIGNMENTS      1  1  1  1  1  1  1  1  1  1  1  1  1  1  2  2  2  3  3  3
TYPE ASSIGNMENTS      4  4  4  2  3  4  2  3  4  2  3  4  5  6  7  8  9 10  5  6
TYPE ASSIGNMENTS      7  8  9 10  5  6  7  8  9 10 11 12 13 17 14 15 18 19 16 20
TYPE ASSIGNMENTS     11 12 13 17 14 15 18 19 16 20  1  1  1  1  1  1  2  3  4  2
TYPE ASSIGNMENTS      3  4  2  3  4  5  6  7  8  9 10  5  6  7  8  9 10  1  1  1
TYPE ASSIGNMENTS      1  1  1  2  3  4  2  3  4  2  3  4  5  6  7  8  9 10  5  6
TYPE ASSIGNMENTS      7  8  9 10  1  1  1  1  1  1  2  3  4  2  3  4  2  3  4  5
TYPE ASSIGNMENTS      6  7  8  9 10  5  6  7  8  9 10  1  1  1  1  1  1  2  3  4
TYPE ASSIGNMENTS      2  3  4  2  3  4  5  6  7  8  9 10  5  6  7  8  9 10
EXPONENTS  0.8236000D+04 0.1235000D+04 0.2808000D+03 0.7927000D+02 0.2559000D+02
EXPONENTS  0.8997000D+01 0.3319000D+01 0.3643000D+00 0.8236000D+04 0.1235000D+04
EXPONENTS  0.2808000D+03 0.7927000D+02 0.2559000D+02 0.8997000D+01 0.3319000D+01
EXPONENTS  0.3643000D+00 0.9059000D+00 0.1285000D+00 0.4402000D-01 0.1871000D+02
EXPONENTS  0.4133000D+01 0.1200000D+01 0.1871000D+02 0.4133000D+01 0.1200000D+01
EXPONENTS  0.1871000D+02 0.4133000D+01 0.1200000D+01 0.3827000D+00 0.3827000D+00
EXPONENTS  0.3827000D+00 0.1209000D+00 0.1209000D+00 0.1209000D+00 0.3569000D-01
EXPONENTS  0.3569000D-01 0.3569000D-01 0.1097000D+01 0.1097000D+01 0.1097000D+01
EXPONENTS  0.1097000D+01 0.1097000D+01 0.1097000D+01 0.3180000D+00 0.3180000D+00
EXPONENTS  0.3180000D+00 0.3180000D+00 0.3180000D+00 0.3180000D+00 0.1000000D+00
EXPONENTS  0.1000000D+00 0.1000000D+00 0.1000000D+00 0.1000000D+00 0.1000000D+00
EXPONENTS  0.7610000D+00 0.7610000D+00 0.7610000D+00 0.7610000D+00 0.7610000D+00
EXPONENTS  0.7610000D+00 0.7610000D+00 0.7610000D+00 0.7610000D+00 0.7610000D+00
EXPONENTS  0.2680000D+00 0.2680000D+00 0.2680000D+00 0.2680000D+00 0.2680000D+00
EXPONENTS  0.2680000D+00 0.2680000D+00 0.2680000D+00 0.2680000D+00 0.2680000D+00
EXPONENTS  0.8236000D+04 0.1235000D+04 0.2808000D+03 0.7927000D+02 0.2559000D+02
EXPONENTS  0.8997000D+01 0.3319000D+01 0.3643000D+00 0.8236000D+04 0.1235000D+04
EXPONENTS  0.2808000D+03 0.7927000D+02 0.2559000D+02 0.8997000D+01 0.3319000D+01
EXPONENTS  0.3643000D+00 0.9059000D+00 0.1285000D+00 0.4402000D-01 0.1871000D+02
EXPONENTS  0.4133000D+01 0.1200000D+01 0.1871000D+02 0.4133000D+01 0.1200000D+01
EXPONENTS  0.1871000D+02 0.4133000D+01 0.1200000D+01 0.3827000D+00 0.3827000D+00
EXPONENTS  0.3827000D+00 0.1209000D+00 0.1209000D+00 0.1209000D+00 0.3569000D-01
EXPONENTS  0.3569000D-01 0.3569000D-01 0.1097000D+01 0.1097000D+01 0.1097000D+01
EXPONENTS  0.1097000D+01 0.1097000D+01 0.1097000D+01 0.3180000D+00 0.3180000D+00
EXPONENTS  0.3180000D+00 0.3180000D+00 0.3180000D+00 0.3180000D+00 0.1000000D+00
EXPONENTS  0.1000000D+00 0.1000000D+00 0.1000000D+00 0.1000000D+00 0.1000000D+00
EXPONENTS  0.7610000D+00 0.7610000D+00 0.7610000D+00 0.7610000D+00 0.7610000D+00
EXPONENTS  0.7610000D+00 0.7610000D+00 0.7610000D+00 0.7610000D+00 0.7610000D+00
EXPONENTS  0.2680000D+00 0.2680000D+00 0.2680000D+00 0.2680000D+00 0.2680000D+00
EXPONENTS  0.2680000D+00 0.2680000D+00 0.2680000D+00 0.2680000D+00 0.2680000D+00
EXPONENTS  0.3387000D+02 0.5095000D+01 0.1159000D+01 0.3258000D+00 0.1027000D+00
EXPONENTS  0.2526000D-01 0.1407000D+01 0.1407000D+01 0.1407000D+01 0.3880000D+00
EXPONENTS  0.3880000D+00 0.3880000D+00 0.1020000D+00 0.1020000D+00 0.1020000D+00
EXPONENTS  0.1057000D+01 0.1057000D+01 0.1057000D+01 0.1057000D+01 0.1057000D+01
EXPONENTS  0.1057000D+01 0.2470000D+00 0.2470000D+00 0.2470000D+00 0.2470000D+00
EXPONENTS  0.2470000D+00 0.2470000D+00 0.3387000D+02 0.5095000D+01 0.1159000D+01
EXPONENTS  0.3258000D+00 0.1027000D+00 0.2526000D-01 0.1407000D+01 0.1407000D+01
EXPONENTS  0.1407000D+01 0.3880000D+00 0.3880000D+00 0.3880000D+00 0.1020000D+00
EXPONENTS  0.1020000D+00 0.1020000D+00 0.1057000D+01 0.1057000D+01 0.1057000D+01
EXPONENTS  0.1057000D+01 0.1057000D+01 0.1057000D+01 0.2470000D+00 0.2470000D+00
EXPONENTS  0.2470000D+00 0.2470000D+00 0.2470000D+00 0.2470000D+00 0.3387000D+02
EXPONENTS  0.5095000D+01 0.1159000D+01 0.3258000D+00 0.1027000D+00 0.2526000D-01
EXPONENTS  0.1407000D+01 0.1407000D+01 0.1407000D+01 0.3880000D+00 0.3880000D+00
EXPONENTS  0.3880000D+00 0.1020000D+00 0.1020000D+00 0.1020000D+00 0.1057000D+01
EXPONENTS  0.1057000D+01 0.1057000D+01 0.1057000D+01 0.1057000D+01 0.1057000D+01
EXPONENTS  0.2470000D+00 0.2470000D+00 0.2470000D+00 0.2470000D+00 0.2470000D+00
EXPONENTS  0.2470000D+00 0.3387000D+02 0.5095000D+01 0.1159000D+01 0.3258000D+00
EXPONENTS  0.1027000D+00 0.2526000D-01 0.1407000D+01 0.1407000D+01 0.1407000D+01
EXPONENTS  0.3880000D+00 0.3880000D+00 0.3880000D+00 0.1020000D+00 0.1020000D+00
EXPONENTS  0.1020000D+00 0.1057000D+01 0.1057000D+01 0.1057000D+01 0.1057000D+01
EXPONENTS  0.1057000D+01 0.1057000D+01 0.2470000D+00 0.2470000D+00 0.2470000D+00
EXPONENTS  0.2470000D+00 0.2470000D+00 0.2470000D+00
MO    1     MO 0.0        OCC NO =    2.0000000  ORB. ENERGY =  -11.234346
  0.23140875D+00  0.43139853D+00  0.72913952D+00  0.10961355D+01  0.13467291D+01
  0.11375281D+01  0.42903373D+00 -0.21233119D-02 -0.30333041D-03 -0.56793024D-03
 -0.96694982D-03 -0.14957243D-02 -0.19698163D-02 -0.20467654D-02 -0.13006275D-02
  0.87165031D-03  0.20178918D-01 -0.12402499D-02 -0.26578356D-04  0.11436710D-15
  0.10722643D-15  0.76351603D-16 -0.47657982D-14 -0.44682388D-14 -0.31816522D-14
  0.18873537D-03  0.17695141D-03  0.12599994D-03  0.71305374D-17  0.22908279D-13
 -0.68361690D-03  0.27251751D-18 -0.78445506D-14 -0.18648353D-03 -0.23712612D-19
 -0.35831375D-16 -0.40732925D-06 -0.11458192D-02  0.57709040D-03  0.56872879D-03
  0.21160651D-17  0.34578117D-17  0.17085209D-14  0.40972272D-03 -0.17383531D-03
 -0.23588741D-03 -0.67887543D-18 -0.25113463D-17  0.28368632D-13  0.64579645D-05
 -0.47806787D-04  0.41348823D-04 -0.13002129D-18  0.24337539D-18 -0.12778073D-13
 -0.72445207D-18  0.95275631D-15 -0.23175608D-03  0.64937780D-18 -0.51858449D-14
 -0.19929411D-03  0.15239784D-17  0.23275759D-14  0.89456234D-03  0.37215608D-19
 -0.19511305D-18 -0.22327095D-15  0.13871949D-03 -0.29823953D-18 -0.19944332D-15
 -0.12205088D-04  0.88357867D-18  0.86925616D-15 -0.40395337D-03  0.16009187D-18
  0.23140875D+00  0.43139853D+00  0.72913952D+00  0.10961355D+01  0.13467291D+01
  0.11375281D+01  0.42903373D+00 -0.21233119D-02 -0.30333041D-03 -0.56793024D-03
 -0.96694982D-03 -0.14957243D-02 -0.19698164D-02 -0.20467654D-02 -0.13006275D-02
  0.87165031D-03  0.20178918D-01 -0.12402499D-02 -0.26578356D-04  0.39335444D-17
  0.36879479D-17  0.26260386D-17  0.33331031D-14  0.31249960D-14  0.22251833D-14
 -0.18873537D-03 -0.17695141D-03 -0.12599994D-03 -0.47954948D-17 -0.15975188D-13
  0.68361690D-03  0.24511603D-18  0.27756564D-13  0.18648354D-03  0.15866392D-19
  0.53886422D-15  0.40732940D-06 -0.11458192D-02  0.57709040D-03  0.56872879D-03
 -0.10096193D-17  0.45322718D-17  0.28494549D-14  0.40972272D-03 -0.17383531D-03
 -0.23588741D-03  0.71381811D-19 -0.45375377D-17  0.16078885D-13  0.64579645D-05
 -0.47806787D-04  0.41348823D-04  0.14886179D-18  0.30036028D-18 -0.15752247D-13
  0.95673415D-19 -0.79406370D-15  0.23175608D-03  0.26894079D-18  0.41761735D-14
  0.19929411D-03 -0.55596104D-18 -0.17939824D-14 -0.89456234D-03 -0.37224618D-18
  0.74788812D-19 -0.37501634D-15 -0.13871949D-03  0.60105449D-18 -0.12442787D-14
  0.12205088D-04 -0.82542092D-18  0.23693277D-14  0.40395337D-03  0.30141891D-18
  0.61103587D-04  0.11020284D-03  0.16249402D-03  0.11320691D-02  0.29090073D-03
  0.63296622D-06  0.13404700D-18  0.32922522D-03  0.11928895D-03 -0.53910175D-18
 -0.15155281D-03  0.53337338D-04 -0.22510601D-18  0.25450959D-04 -0.59556677D-04
  0.20319536D-03 -0.17136796D-03 -0.31827398D-04 -0.26255196D-18  0.69644484D-18
 -0.64454381D-03  0.67600634D-04 -0.63653940D-05 -0.61235240D-04  0.80713040D-18
 -0.14642838D-18  0.56695129D-05  0.61103587D-04  0.11020284D-03  0.16249402D-03
  0.11320691D-02  0.29090073D-03  0.63296622D-06  0.10057409D-17 -0.32922522D-03
  0.11928895D-03 -0.14585705D-17  0.15155281D-03  0.53337338D-04 -0.37620755D-18
 -0.25450959D-04 -0.59556677D-04  0.20319536D-03 -0.17136796D-03 -0.31827398D-04
 -0.22843861D-19 -0.97444966D-19  0.64454381D-03  0.67600634D-04 -0.63653940D-05
 -0.61235240D-04 -0.56824433D-18  0.27707280D-18 -0.56695129D-05  0.61103587D-04
  0.11020284D-03  0.16249402D-03  0.11320691D-02  0.29090073D-03  0.63296638D-06
  0.47729572D-18  0.32922522D-03 -0.11928895D-03 -0.84520138D-18 -0.15155281D-03
 -0.53337339D-04 -0.90738910D-21  0.25450959D-04  0.59556678D-04  0.20319536D-03
 -0.17136796D-03 -0.31827399D-04  0.42106952D-18  0.31269867D-18  0.64454381D-03
  0.67600634D-04 -0.63653941D-05 -0.61235240D-04 -0.11959990D-18 -0.61471963D-18
 -0.56695130D-05  0.61103587D-04  0.11020284D-03  0.16249402D-03  0.11320691D-02
  0.29090073D-03  0.63296638D-06  0.76811853D-18 -0.32922522D-03 -0.11928895D-03
 -0.12868660D-17  0.15155281D-03 -0.53337339D-04  0.29722469D-18 -0.25450959D-04
  0.59556678D-04  0.20319536D-03 -0.17136796D-03 -0.31827399D-04 -0.41460393D-18
  0.22716481D-18 -0.64454382D-03  0.67600634D-04 -0.63653941D-05 -0.61235240D-04
 -0.30744516D-19 -0.47527837D-18  0.56695130D-05
MO    2     MO 0.0        OCC NO =    2.0000000  ORB. ENERGY =  -11.232629
 -0.23145116D+00 -0.43147759D+00 -0.72927314D+00 -0.10963364D+01 -0.13469760D+01
 -0.11377365D+01 -0.42911236D+00  0.21237010D-02  0.23825105D-03  0.44608114D-03
  0.75949131D-03  0.11748176D-02  0.15471934D-02  0.16076331D-02  0.10215786D-02
 -0.68463825D-03 -0.19218983D-01 -0.48179122D-02 -0.40764207D-03  0.12024284D-15
  0.11273530D-15  0.80274253D-16  0.51790035D-14  0.48556450D-14  0.34575085D-14
 -0.13500146D-02 -0.12657245D-02 -0.90127123D-03  0.53601800D-17 -0.18327031D-13
  0.19273885D-02  0.35614467D-18 -0.16935744D-12  0.19641410D-02 -0.22549519D-19
  0.54210609D-14  0.35076134D-04  0.14147301D-02 -0.17022528D-03 -0.12445048D-02
 -0.41993688D-18 -0.23021164D-17  0.23738874D-14  0.22588952D-03  0.51973044D-03
 -0.74561996D-03 -0.81513342D-18 -0.27735757D-17 -0.12479382D-12  0.20127204D-04
  0.11319024D-03 -0.13331745D-03 -0.13758072D-18  0.25139083D-18 -0.20686386D-12
 -0.63235407D-18 -0.73533348D-14  0.73503241D-03  0.36446112D-18  0.10149375D-14
 -0.32717813D-03  0.15326011D-17  0.21045067D-13 -0.18779191D-02 -0.26499221D-18
 -0.20938072D-18 -0.14895471D-13 -0.43417807D-04 -0.30786218D-18  0.12311954D-13
 -0.79210819D-04  0.93600434D-18  0.32374459D-13  0.20946424D-03  0.28352624D-18
  0.23145116D+00  0.43147759D+00  0.72927314D+00  0.10963364D+01  0.13469760D+01
  0.11377365D+01  0.42911236D+00 -0.21237010D-02 -0.23825105D-03 -0.44608114D-03
 -0.75949131D-03 -0.11748176D-02 -0.15471934D-02 -0.16076331D-02 -0.10215786D-02
  0.68463825D-03  0.19218983D-01  0.48179122D-02  0.40764207D-03  0.51070356D-17
  0.47881705D-17  0.34094626D-17 -0.72247872D-15 -0.67736973D-15 -0.48232760D-15
 -0.13500146D-02 -0.12657245D-02 -0.90127123D-03 -0.45968844D-17  0.88475626D-15
  0.19273885D-02  0.17931233D-18  0.16692559D-12  0.19641410D-02  0.17323899D-19
 -0.53337585D-14  0.35076134D-04 -0.14147301D-02  0.17022528D-03  0.12445048D-02
 -0.92267780D-18  0.57353636D-17  0.11603708D-13 -0.22588952D-03 -0.51973044D-03
  0.74561996D-03  0.13508339D-18 -0.47842062D-17 -0.11474458D-12 -0.20127204D-04
 -0.11319024D-03  0.13331745D-03  0.15556021D-18  0.29851368D-18 -0.20647913D-12
  0.46341009D-20  0.66030391D-14  0.73503241D-03  0.17813310D-18  0.20030318D-14
 -0.32717813D-03 -0.19203540D-18 -0.21812149D-13 -0.18779191D-02 -0.10974858D-18
  0.85775633D-19  0.15391288D-13 -0.43417807D-04  0.64596125D-18 -0.11852255D-13
 -0.79210819D-04 -0.90328815D-18 -0.34321609D-13  0.20946424D-03  0.38357323D-18
 -0.32923396D-04 -0.59378701D-04 -0.87553859D-04 -0.55920245D-03 -0.73072845D-03
 -0.21364522D-04  0.32465066D-18 -0.40939844D-03 -0.34840636D-03 -0.56199472D-18
 -0.74174414D-04  0.24564871D-03 -0.25346607D-18 -0.81016530D-05  0.15737006D-03
 -0.16957032D-03  0.27172910D-03 -0.10215878D-03 -0.28866364D-18  0.51840389D-18
  0.59157789D-03 -0.23104592D-04  0.61919821D-04 -0.38815229D-04  0.84724417D-18
 -0.15694524D-18 -0.67644374D-04 -0.32923396D-04 -0.59378701D-04 -0.87553859D-04
 -0.55920245D-03 -0.73072845D-03 -0.21364522D-04  0.14718050D-17  0.40939844D-03
 -0.34840636D-03 -0.13812824D-17  0.74174414D-04  0.24564871D-03 -0.40280900D-18
  0.81016527D-05  0.15737006D-03 -0.16957032D-03  0.27172910D-03 -0.10215878D-03
  0.51173304D-18 -0.50698829D-18 -0.59157789D-03 -0.23104592D-04  0.61919821D-04
 -0.38815229D-04 -0.57715408D-18  0.33008657D-18  0.67644374D-04  0.32923396D-04
  0.59378701D-04  0.87553859D-04  0.55920245D-03  0.73072845D-03  0.21364522D-04
  0.49179619D-18  0.40939844D-03 -0.34840636D-03 -0.87721769D-18  0.74174415D-04
  0.24564871D-03  0.28276655D-20  0.81016530D-05  0.15737006D-03  0.16957032D-03
 -0.27172910D-03  0.10215878D-03  0.40719185D-18  0.34105636D-18  0.59157789D-03
  0.23104592D-04 -0.61919821D-04  0.38815229D-04 -0.11079718D-18 -0.66900646D-18
 -0.67644374D-04  0.32923396D-04  0.59378701D-04  0.87553859D-04  0.55920245D-03
  0.73072845D-03  0.21364522D-04  0.79649138D-18 -0.40939844D-03 -0.34840636D-03
 -0.14500742D-17 -0.74174415D-04  0.24564871D-03  0.31824056D-18 -0.81016527D-05
  0.15737006D-03  0.16957032D-03 -0.27172910D-03  0.10215878D-03 -0.57110302D-18
  0.25783848D-18 -0.59157789D-03  0.23104592D-04 -0.61919821D-04  0.38815229D-04
 -0.46830406D-19 -0.51039396D-18  0.67644374D-04
MO    3     MO 0.0        OCC NO =    2.0000000  ORB. ENERGY =   -1.032997
 -0.41297966D-02 -0.76988799D-02 -0.13012463D-01 -0.19561995D-01 -0.24034171D-01
 -0.20300699D-01 -0.76566768D-02  0.37893321D-04 -0.43908043D-01 -0.82209710D-01
 -0.13996907D+00 -0.21651086D+00 -0.28513719D+00 -0.29627580D+00 -0.18826997D+00
  0.12617416D+00  0.48044356D-01  0.26866029D-01 -0.17869933D-03 -0.45661054D-15
 -0.42810141D-15 -0.30483370D-15 -0.23134536D-13 -0.21690098D-13 -0.15444642D-13
 -0.14065198D+00 -0.13187017D+00 -0.93899416D-01 -0.16274215D-15  0.11499043D-12
 -0.20624481D-01  0.37480439D-17  0.15326260D-11 -0.68868308D-03 -0.10788220D-18
 -0.47514147D-13 -0.15297078D-04 -0.21761289D-01 -0.19900043D-02  0.23751293D-01
  0.38894703D-17  0.30518675D-16 -0.52238140D-13 -0.41802084D-02  0.17850234D-02
  0.23951850D-02 -0.13471110D-17 -0.59194360D-17  0.89487938D-12  0.79552982D-04
 -0.19236639D-03  0.11281340D-03 -0.14288885D-17 -0.58512925D-17  0.18284217D-11
  0.26318520D-17  0.39213771D-13 -0.56555517D-02 -0.72004978D-17 -0.97954073D-14
  0.24250843D-02 -0.69505811D-18 -0.10784590D-12  0.14541571D-01  0.81334769D-17
  0.15189443D-18  0.10725184D-12 -0.19917653D-03  0.10126823D-17 -0.92033272D-13
 -0.35661772D-03 -0.14683656D-17 -0.22972224D-12  0.95414731D-03 -0.24905311D-17
 -0.41297966D-02 -0.76988799D-02 -0.13012463D-01 -0.19561995D-01 -0.24034171D-01
 -0.20300699D-01 -0.76566768D-02  0.37893321D-04 -0.43908043D-01 -0.82209710D-01
 -0.13996907D+00 -0.21651086D+00 -0.28513719D+00 -0.29627580D+00 -0.18826997D+00
  0.12617416D+00  0.48044356D-01  0.26866029D-01 -0.17869933D-03 -0.11906351D-15
 -0.11162961D-15 -0.79486933D-16  0.25900745D-13  0.24283595D-13  0.17291366D-13
  0.14065198D+00  0.13187017D+00  0.93899416D-01 -0.26057957D-16 -0.89429677D-13
  0.20624481D-01 -0.91606033D-17 -0.13243427D-11  0.68868307D-03  0.41849386D-18
  0.52730698D-13  0.15297078D-04 -0.21761289D-01 -0.19900043D-02  0.23751293D-01
 -0.12325975D-16 -0.35311011D-16 -0.27666294D-13 -0.41802084D-02  0.17850234D-02
  0.23951850D-02  0.47175004D-17 -0.81806583D-17  0.83457492D-12  0.79552982D-04
 -0.19236639D-03  0.11281340D-03  0.28071495D-17 -0.16500208D-17  0.17861444D-11
  0.45570462D-17 -0.38468898D-13  0.56555517D-02  0.80470601D-17  0.26621716D-14
 -0.24250843D-02 -0.21718199D-16  0.11274452D-12 -0.14541571D-01 -0.16193739D-16
 -0.85303477D-19 -0.10679137D-12  0.19917653D-03  0.29044928D-18  0.84640593D-13
  0.35661772D-03 -0.34538848D-19  0.23573352D-12 -0.95414731D-03 -0.11456435D-17
  0.12495032D-01  0.22535304D-01  0.33228293D-01  0.91033106D-02 -0.15800236D-02
  0.38993374D-05 -0.70788179D-17 -0.79116948D-02 -0.70007253D-02  0.25651697D-17
  0.35183478D-02  0.19561738D-02  0.84386928D-17  0.10109596D-02  0.47357949D-03
 -0.53012536D-03 -0.81374338D-03  0.13438687D-02  0.56307535D-17  0.20625000D-17
 -0.16408754D-04  0.47191671D-03 -0.35804814D-03 -0.11386857D-03 -0.86549115D-17
  0.19935033D-17 -0.12214640D-02  0.12495032D-01  0.22535304D-01  0.33228293D-01
  0.91033107D-02 -0.15800236D-02  0.38993373D-05 -0.83044107D-17  0.79116948D-02
 -0.70007253D-02  0.18070706D-17 -0.35183478D-02  0.19561738D-02  0.45012150D-17
 -0.10109596D-02  0.47357949D-03 -0.53012536D-03 -0.81374338D-03  0.13438687D-02
 -0.45953832D-17  0.57596157D-17  0.16408754D-04  0.47191671D-03 -0.35804814D-03
 -0.11386857D-03  0.50051745D-17 -0.18633439D-17  0.12214640D-02  0.12495032D-01
  0.22535304D-01  0.33228293D-01  0.91033107D-02 -0.15800236D-02  0.38993371D-05
  0.16949050D-17 -0.79116948D-02  0.70007253D-02 -0.62252615D-17  0.35183478D-02
 -0.19561738D-02 -0.65892319D-17  0.10109596D-02 -0.47357949D-03 -0.53012536D-03
 -0.81374338D-03  0.13438687D-02  0.48995343D-17 -0.12919649D-17  0.16408753D-04
  0.47191671D-03 -0.35804814D-03 -0.11386857D-03  0.71953965D-18 -0.35484497D-17
  0.12214640D-02  0.12495032D-01  0.22535304D-01  0.33228293D-01  0.91033107D-02
 -0.15800236D-02  0.38993371D-05 -0.80592663D-18  0.79116948D-02  0.70007253D-02
  0.73811541D-17 -0.35183478D-02 -0.19561738D-02  0.41209613D-19 -0.10109596D-02
 -0.47357949D-03 -0.53012536D-03 -0.81374338D-03  0.13438687D-02  0.50074399D-17
 -0.90005866D-18 -0.16408753D-04  0.47191671D-03 -0.35804814D-03 -0.11386857D-03
  0.66038545D-18  0.19058565D-17 -0.12214640D-02
MO    4     MO 0.0        OCC NO =    2.0000000  ORB. ENERGY =   -0.789914
  0.16520065D-02  0.30797158D-02  0.52052622D-02  0.78252141D-02  0.96141797D-02
  0.81207117D-02  0.30628337D-02 -0.15158135D-04  0.34820733D-01  0.65195399D-01
  0.11100074D+00  0.17170127D+00  0.22612454D+00  0.23495788D+00  0.14930518D+00
 -0.10006086D+00 -0.39289606D-01 -0.43540369D-01 -0.28282546D-02 -0.78980916D-16
 -0.74049629D-16 -0.52727747D-16 -0.29395810D-13 -0.27560440D-13 -0.19624675D-13
 -0.19288218D+00 -0.18083931D+00 -0.12876836D+00 -0.69675032D-16  0.11597528D-12
 -0.44840145D-01  0.20708717D-16 -0.57839847D-12 -0.74638261D-02  0.44556981D-18
  0.24886208D-13  0.40483425D-04  0.13967085D-01 -0.16617402D-01  0.26503174D-02
 -0.79234046D-16  0.27289665D-16  0.13884403D-13  0.44448239D-02 -0.37385021D-02
 -0.70632181D-03  0.83016787D-17 -0.28612050D-16 -0.33464800D-13  0.26885243D-03
 -0.36283842D-03  0.93985987D-04 -0.28434806D-17 -0.75020527D-17 -0.87699207D-12
  0.42995140D-17  0.10435511D-15  0.19671469D-02 -0.16516371D-16 -0.21984241D-13
  0.16575030D-02  0.36178291D-17  0.21671175D-13 -0.75589436D-02  0.77446828D-17
 -0.28943971D-18 -0.27923909D-13  0.84562345D-03  0.17954089D-17  0.20022674D-13
  0.53827711D-03 -0.92708971D-18  0.63749052D-13 -0.30751475D-02  0.17366074D-17
 -0.16520065D-02 -0.30797158D-02 -0.52052622D-02 -0.78252141D-02 -0.96141797D-02
 -0.81207117D-02 -0.30628337D-02  0.15158135D-04 -0.34820733D-01 -0.65195399D-01
 -0.11100074D+00 -0.17170127D+00 -0.22612454D+00 -0.23495788D+00 -0.14930518D+00
  0.10006086D+00  0.39289606D-01  0.43540369D-01  0.28282546D-02 -0.72881235D-17
 -0.68330791D-17 -0.48655594D-17  0.32099770D-13  0.30095575D-13  0.21429842D-13
 -0.19288218D+00 -0.18083931D+00 -0.12876836D+00  0.62566046D-17 -0.16240984D-12
 -0.44840145D-01 -0.15924697D-16  0.43482648D-12 -0.74638261D-02  0.77060659D-18
 -0.30723423D-13  0.40483425D-04 -0.13967085D-01  0.16617402D-01 -0.26503174D-02
 -0.78107902D-17 -0.20807489D-17  0.10001803D-13 -0.44448239D-02  0.37385021D-02
  0.70632181D-03  0.76154039D-17 -0.12712552D-16  0.20564108D-13 -0.26885243D-03
  0.36283842D-03 -0.93985987D-04  0.50676792D-17 -0.93082725D-18 -0.84581193D-12
  0.22658429D-17 -0.16338864D-14  0.19671469D-02  0.81183076D-17  0.32402697D-13
  0.16575030D-02 -0.14915836D-16 -0.27501038D-13 -0.75589436D-02 -0.10646956D-16
 -0.17298662D-18  0.28410959D-13  0.84562345D-03  0.16152456D-17 -0.15980082D-13
  0.53827711D-03 -0.10962857D-17 -0.69252795D-13 -0.30751475D-02  0.12485270D-18
 -0.22236259D-01 -0.40104008D-01 -0.59133337D-01 -0.25289809D-01  0.50735471D-02
  0.11063908D-03  0.56377186D-17  0.17420966D-01  0.73431941D-02  0.87872800D-17
  0.14437947D-02 -0.43846668D-03  0.11355123D-16 -0.10589953D-02 -0.69677712D-03
  0.19301865D-02 -0.29644201D-02  0.10342337D-02  0.21048876D-17 -0.10059681D-16
 -0.35912238D-02  0.18186783D-03  0.17518849D-05 -0.18361972D-03 -0.13428932D-16
  0.47019638D-17  0.37255606D-03 -0.22236259D-01 -0.40104008D-01 -0.59133337D-01
 -0.25289809D-01  0.50735471D-02  0.11063908D-03  0.34064451D-18 -0.17420966D-01
  0.73431941D-02  0.24669980D-16 -0.14437947D-02 -0.43846668D-03  0.74370690D-17
  0.10589953D-02 -0.69677712D-03  0.19301865D-02 -0.29644201D-02  0.10342337D-02
  0.75591563D-17 -0.57674843D-17  0.35912238D-02  0.18186783D-03  0.17518850D-05
 -0.18361972D-03  0.15097415D-16 -0.34635886D-17 -0.37255606D-03  0.22236259D-01
  0.40104008D-01  0.59133337D-01  0.25289809D-01 -0.50735471D-02 -0.11063908D-03
  0.46388487D-17 -0.17420966D-01  0.73431941D-02 -0.80616446D-17 -0.14437947D-02
 -0.43846668D-03 -0.80795132D-17  0.10589953D-02 -0.69677712D-03 -0.19301865D-02
  0.29644201D-02 -0.10342337D-02  0.55969283D-17  0.21321523D-17 -0.35912238D-02
 -0.18186783D-03 -0.17518849D-05  0.18361972D-03  0.88067133D-18 -0.78646922D-17
  0.37255606D-03  0.22236259D-01  0.40104008D-01  0.59133337D-01  0.25289809D-01
 -0.50735471D-02 -0.11063908D-03  0.22687783D-17  0.17420966D-01  0.73431941D-02
  0.58333150D-17  0.14437947D-02 -0.43846668D-03  0.48418898D-17 -0.10589953D-02
 -0.69677712D-03 -0.19301865D-02  0.29644201D-02 -0.10342337D-02  0.17290948D-17
  0.34357267D-18  0.35912238D-02 -0.18186783D-03 -0.17518850D-05  0.18361972D-03
  0.17642846D-17 -0.10870785D-17 -0.37255606D-03
MO    5     MO 0.0        OCC NO =    2.0000000  ORB. ENERGY =   -0.640507
  0.90559112D-14  0.16882277D-13  0.28534023D-13  0.42895983D-13  0.52702672D-13
  0.44515831D-13  0.16789734D-13 -0.83093329D-16 -0.70986857D-14 -0.13290979D-13
 -0.22629030D-13 -0.35003668D-13 -0.46098599D-13 -0.47899397D-13 -0.30437917D-13
  0.20398784D-13  0.64945997D-13 -0.49752067D-12 -0.27120956D-12 -0.21272314D-15
 -0.19944146D-15 -0.14201420D-15  0.37766884D+00  0.35408855D+00  0.25213214D+00
  0.12562273D-13  0.11777929D-13  0.83865873D-14 -0.92469541D-16  0.99522300D-01
 -0.62577255D-13 -0.41599819D-16  0.15785020D-01 -0.33436951D-13  0.70244122D-17
  0.89427572D-04  0.21192715D-13 -0.56650218D-14 -0.11051628D-14  0.67701845D-14
 -0.21917154D-15 -0.19005495D-15  0.17521129D-01  0.61779324D-13 -0.51485439D-13
 -0.10293885D-13  0.22830892D-16 -0.84495853D-17  0.86333170D-02  0.69284747D-14
 -0.18764493D-13  0.11836019D-13  0.19463822D-16 -0.41776156D-16  0.13899255D-02
 -0.13385473D-17 -0.15053595D-02  0.10065549D-13 -0.78907072D-16 -0.59339600D-02
  0.71932932D-14  0.82922714D-16  0.10450039D-01 -0.37389939D-13 -0.15002308D-15
 -0.64690090D-17  0.10011269D-04  0.13426726D-13  0.56743372D-17 -0.52959158D-03
 -0.70093744D-15  0.13732690D-16  0.49955777D-03 -0.39579240D-13  0.25256265D-16
  0.50026857D-14  0.93261435D-14  0.15762825D-13  0.23696690D-13  0.29114122D-13
  0.24591530D-13  0.92750203D-14 -0.45902593D-16 -0.42415522D-14 -0.79415241D-14
 -0.13521124D-13 -0.20915123D-13 -0.27544482D-13 -0.28620481D-13 -0.18187031D-13
  0.12188525D-13  0.62169351D-13 -0.40188729D-12  0.21138550D-12 -0.38016092D-15
 -0.35642502D-15 -0.25379585D-15  0.37766884D+00  0.35408855D+00  0.25213214D+00
 -0.39940607D-13 -0.37446858D-13 -0.26664393D-13 -0.16422734D-15  0.99522300D-01
  0.15965719D-12 -0.74273092D-16  0.15785020D-01  0.91939090D-13 -0.53366683D-17
  0.89427572D-04  0.22261772D-13 -0.81668427D-14 -0.99549819D-14  0.18121825D-13
 -0.31506510D-16 -0.96501860D-16 -0.17521129D-01  0.61642322D-13 -0.72063489D-13
  0.10421168D-13  0.39641304D-16 -0.45648463D-16 -0.86333170D-02 -0.14579361D-14
 -0.72901603D-14  0.87480964D-14 -0.15549224D-16 -0.78016343D-17 -0.13899255D-02
  0.10840181D-16 -0.15053595D-02 -0.66324379D-14 -0.14712327D-16 -0.59339600D-02
 -0.17675585D-13 -0.17808216D-16  0.10450039D-01  0.37572899D-13 -0.17196365D-16
 -0.64187352D-18  0.10011269D-04 -0.11937952D-13  0.37793485D-17 -0.52959158D-03
 -0.62237934D-14 -0.18537280D-17  0.49955777D-03  0.42037649D-13  0.20660304D-16
  0.23918152D-01  0.43137373D-01  0.63606031D-01  0.33277582D-01 -0.62776377D-02
 -0.12806860D-03 -0.25840418D-16 -0.12798923D-01 -0.13813492D-01  0.12333164D-16
  0.26784085D-02 -0.19770638D-02 -0.26842552D-16  0.17213426D-02  0.35875971D-03
 -0.17641925D-02 -0.70845542D-03  0.24726479D-02 -0.37676314D-17  0.23714413D-17
  0.70956609D-02  0.57589857D-04 -0.37879643D-03  0.32120658D-03 -0.47084035D-18
 -0.44929220D-18 -0.34290139D-03 -0.23918152D-01 -0.43137373D-01 -0.63606031D-01
 -0.33277582D-01  0.62776377D-02  0.12806860D-03 -0.23451809D-16 -0.12798923D-01
  0.13813492D-01  0.45253756D-16  0.26784085D-02  0.19770638D-02  0.53078180D-16
  0.17213426D-02 -0.35875971D-03  0.17641925D-02  0.70845542D-03 -0.24726479D-02
 -0.14652361D-16 -0.12567546D-16  0.70956609D-02 -0.57589857D-04  0.37879643D-03
 -0.32120658D-03  0.43946357D-16 -0.75799600D-17 -0.34290139D-03  0.23918152D-01
  0.43137373D-01  0.63606031D-01  0.33277582D-01 -0.62776377D-02 -0.12806860D-03
  0.41992208D-17 -0.12798923D-01  0.13813492D-01 -0.97822633D-17  0.26784085D-02
  0.19770638D-02  0.10705377D-16  0.17213426D-02 -0.35875971D-03 -0.17641925D-02
 -0.70845542D-03  0.24726479D-02 -0.14372079D-16 -0.95368441D-18 -0.70956609D-02
  0.57589857D-04 -0.37879643D-03  0.32120658D-03 -0.57395687D-18 -0.90623628D-17
  0.34290139D-03 -0.23918152D-01 -0.43137373D-01 -0.63606031D-01 -0.33277582D-01
  0.62776377D-02  0.12806860D-03 -0.10394691D-17 -0.12798923D-01 -0.13813492D-01
  0.32606342D-18  0.26784085D-02 -0.19770638D-02 -0.12926556D-16  0.17213426D-02
  0.35875971D-03  0.17641925D-02  0.70845542D-03 -0.24726479D-02 -0.32159838D-16
 -0.82010538D-17 -0.70956609D-02 -0.57589857D-04  0.37879643D-03 -0.32120658D-03
  0.80721199D-17  0.18105305D-16  0.34290139D-03
MO    6     MO 0.0        OCC NO =    2.0000000  ORB. ENERGY =   -0.587509
  0.70921004D-05  0.13221288D-04  0.22346305D-04  0.33593817D-04  0.41273885D-04
  0.34862394D-04  0.13148812D-04 -0.65074206D-07  0.33152136D-02  0.62071259D-02
  0.10568163D-01  0.16347341D-01  0.21528873D-01  0.22369878D-01  0.14215053D-01
 -0.95265982D-02 -0.44393869D-02  0.24231329D-01  0.11913175D-02 -0.43783600D-15
 -0.41049908D-15 -0.29229980D-15 -0.36813572D-14 -0.34515064D-14 -0.24576782D-14
  0.49535002D+00  0.46442213D+00  0.33069622D+00 -0.18535163D-15 -0.96924391D-14
  0.11412520D+00 -0.28691243D-16 -0.30821584D-12  0.15472059D-01 -0.30930308D-17
  0.44153453D-13  0.12547179D-03  0.22489556D-02  0.27759610D-01 -0.30008566D-01
  0.30982738D-15  0.31179139D-15  0.18597923D-13 -0.18275109D-02  0.59144647D-02
 -0.40869538D-02  0.42696517D-16 -0.45380158D-16 -0.33279955D-12 -0.34165584D-04
  0.79243481D-03 -0.75826923D-03 -0.30972226D-17  0.28699596D-17 -0.67750798D-12
  0.27782205D-17 -0.15957957D-13  0.45476300D-02  0.26119850D-17  0.33629252D-14
 -0.82218240D-02 -0.10946647D-16  0.44510947D-13 -0.54210658D-02 -0.15150691D-16
 -0.13085543D-17 -0.47366081D-13 -0.31933453D-03 -0.62908964D-17  0.23802142D-13
 -0.48369160D-03  0.10216559D-16  0.11829610D-12  0.14416952D-02 -0.30218310D-17
  0.70921005D-05  0.13221288D-04  0.22346306D-04  0.33593817D-04  0.41273886D-04
  0.34862395D-04  0.13148813D-04 -0.65074207D-07  0.33152136D-02  0.62071259D-02
  0.10568163D-01  0.16347341D-01  0.21528873D-01  0.22369878D-01  0.14215053D-01
 -0.95265982D-02 -0.44393869D-02  0.24231329D-01  0.11913174D-02 -0.25542402D-15
 -0.23947626D-15 -0.17052136D-15 -0.38178022D-13 -0.35794323D-13 -0.25487690D-13
 -0.49535002D+00 -0.46442213D+00 -0.33069622D+00 -0.10093894D-15  0.14633298D-12