 Molden2AIM, Version 4.0.0 (06/02/2016)           Time: Wed Jun 27 23:32:24 2018
GAUSSIAN             25 MOL ORBITALS    521 PRIMITIVES        7 NUCLEI
  C    1    (CENTRE  1)  -0.01093018 -0.00000378 -0.17302710  CHARGE =  6.0
  Se   2    (CENTRE  2)   0.17952776  0.00000000  3.14565700  CHARGE = 34.0
  H    3    (CENTRE  3)   1.76078066  0.00000378 -1.25305283  CHARGE =  1.0
  C    4    (CENTRE  4)  -2.35885630  0.00000000 -1.70638679  CHARGE =  6.0
  H    5    (CENTRE  5)  -4.06019185  0.00000189 -0.52807452  CHARGE =  1.0
  H    6    (CENTRE  6)  -2.37338263  1.66296844 -2.96310757  CHARGE =  1.0
  H    7    (CENTRE  7)  -2.37338641 -1.66297033 -2.96310568  CHARGE =  1.0
CENTRE ASSIGNMENTS    1  1  1  1  1  1  1  1  1  1  1  1  1  1  1  1  1  1  1  1
CENTRE ASSIGNMENTS    1  1  1  1  1  1  1  1  1  1  1  1  1  1  1  1  1  1  1  1
CENTRE ASSIGNMENTS    1  1  1  1  1  1  1  1  1  1  1  1  1  1  1  1  1  1  1  1
CENTRE ASSIGNMENTS    1  1  1  1  1  1  1  1  1  1  1  1  1  1  1  2  2  2  2  2
CENTRE ASSIGNMENTS    2  2  2  2  2  2  2  2  2  2  2  2  2  2  2  2  2  2  2  2
CENTRE ASSIGNMENTS    2  2  2  2  2  2  2  2  2  2  2  2  2  2  2  2  2  2  2  2
CENTRE ASSIGNMENTS    2  2  2  2  2  2  2  2  2  2  2  2  2  2  2  2  2  2  2  2
CENTRE ASSIGNMENTS    2  2  2  2  2  2  2  2  2  2  2  2  2  2  2  2  2  2  2  2
CENTRE ASSIGNMENTS    2  2  2  2  2  2  2  2  2  2  2  2  2  2  2  2  2  2  2  2
CENTRE ASSIGNMENTS    2  2  2  2  2  2  2  2  2  2  2  2  2  2  2  2  2  2  2  2
CENTRE ASSIGNMENTS    2  2  2  2  2  2  2  2  2  2  2  2  2  2  2  2  2  2  2  2
CENTRE ASSIGNMENTS    2  2  2  2  2  2  2  2  2  2  2  2  2  2  2  2  2  2  2  2
CENTRE ASSIGNMENTS    2  2  2  2  2  2  2  2  2  2  2  2  2  2  2  2  2  2  2  2
CENTRE ASSIGNMENTS    2  2  2  2  2  2  2  2  2  2  2  2  2  2  2  2  2  2  2  2
CENTRE ASSIGNMENTS    2  2  2  2  2  2  2  2  2  2  2  2  2  2  2  2  2  2  2  2
CENTRE ASSIGNMENTS    2  2  2  2  2  2  2  2  2  2  2  2  2  2  2  2  2  2  2  2
CENTRE ASSIGNMENTS    2  2  2  2  2  2  2  2  2  2  2  2  2  2  2  2  2  2  3  3
CENTRE ASSIGNMENTS    3  3  3  3  3  3  3  3  3  3  3  3  3  3  3  3  3  3  3  3
CENTRE ASSIGNMENTS    3  3  3  3  3  4  4  4  4  4  4  4  4  4  4  4  4  4  4  4
CENTRE ASSIGNMENTS    4  4  4  4  4  4  4  4  4  4  4  4  4  4  4  4  4  4  4  4
CENTRE ASSIGNMENTS    4  4  4  4  4  4  4  4  4  4  4  4  4  4  4  4  4  4  4  4
CENTRE ASSIGNMENTS    4  4  4  4  4  4  4  4  4  4  4  4  4  4  4  4  4  4  4  4
CENTRE ASSIGNMENTS    5  5  5  5  5  5  5  5  5  5  5  5  5  5  5  5  5  5  5  5
CENTRE ASSIGNMENTS    5  5  5  5  5  5  5  6  6  6  6  6  6  6  6  6  6  6  6  6
CENTRE ASSIGNMENTS    6  6  6  6  6  6  6  6  6  6  6  6  6  6  7  7  7  7  7  7
CENTRE ASSIGNMENTS    7  7  7  7  7  7  7  7  7  7  7  7  7  7  7  7  7  7  7  7
CENTRE ASSIGNMENTS    7
TYPE ASSIGNMENTS      1  1  1  1  1  1  1  1  1  1  1  1  1  1  1  1  1  1  1  2
TYPE ASSIGNMENTS      2  2  3  3  3  4  4  4  2  3  4  2  3  4  2  3  4  5  6  7
TYPE ASSIGNMENTS      8  9 10  5  6  7  8  9 10  5  6  7  8  9 10 11 12 13 17 14
TYPE ASSIGNMENTS     15 18 19 16 20 11 12 13 17 14 15 18 19 16 20  1  1  1  1  1
TYPE ASSIGNMENTS      1  1  1  1  1  1  1  1  1  1  1  1  1  1  1  1  1  1  1  1
TYPE ASSIGNMENTS      1  1  1  1  1  1  1  1  1  1  1  1  1  1  1  1  1  1  1  1
TYPE ASSIGNMENTS      1  1  1  1  1  1  1  1  1  1  1  1  1  1  1  1  1  1  1  1
TYPE ASSIGNMENTS      1  1  1  1  1  1  1  1  1  1  2  2  2  2  2  2  2  2  2  2
TYPE ASSIGNMENTS      2  3  3  3  3  3  3  3  3  3  3  3  4  4  4  4  4  4  4  4
TYPE ASSIGNMENTS      4  4  4  2  2  2  2  2  2  2  2  2  2  2  3  3  3  3  3  3
TYPE ASSIGNMENTS      3  3  3  3  3  4  4  4  4  4  4  4  4  4  4  4  2  2  2  2
TYPE ASSIGNMENTS      2  2  2  2  2  2  2  3  3  3  3  3  3  3  3  3  3  3  4  4
TYPE ASSIGNMENTS      4  4  4  4  4  4  4  4  4  2  3  4  2  3  4  2  3  4  5  5
TYPE ASSIGNMENTS      5  5  5  5  5  6  6  6  6  6  6  6  7  7  7  7  7  7  7  8
TYPE ASSIGNMENTS      8  8  8  8  8  8  9  9  9  9  9  9  9 10 10 10 10 10 10 10
TYPE ASSIGNMENTS      5  6  7  8  9 10  5  6  7  8  9 10  5  6  7  8  9 10 11 12
TYPE ASSIGNMENTS     13 17 14 15 18 19 16 20 11 12 13 17 14 15 18 19 16 20  1  1
TYPE ASSIGNMENTS      1  1  1  1  2  3  4  2  3  4  2  3  4  5  6  7  8  9 10  5
TYPE ASSIGNMENTS      6  7  8  9 10  1  1  1  1  1  1  1  1  1  1  1  1  1  1  1
TYPE ASSIGNMENTS      1  1  1  1  2  2  2  3  3  3  4  4  4  2  3  4  2  3  4  2
TYPE ASSIGNMENTS      3  4  5  6  7  8  9 10  5  6  7  8  9 10  5  6  7  8  9 10
TYPE ASSIGNMENTS     11 12 13 17 14 15 18 19 16 20 11 12 13 17 14 15 18 19 16 20
TYPE ASSIGNMENTS      1  1  1  1  1  1  2  3  4  2  3  4  2  3  4  5  6  7  8  9
TYPE ASSIGNMENTS     10  5  6  7  8  9 10  1  1  1  1  1  1  2  3  4  2  3  4  2
TYPE ASSIGNMENTS      3  4  5  6  7  8  9 10  5  6  7  8  9 10  1  1  1  1  1  1
TYPE ASSIGNMENTS      2  3  4  2  3  4  2  3  4  5  6  7  8  9 10  5  6  7  8  9
TYPE ASSIGNMENTS     10
EXPONENTS  0.8236000D+04 0.1235000D+04 0.2808000D+03 0.7927000D+02 0.2559000D+02
EXPONENTS  0.8997000D+01 0.3319000D+01 0.3643000D+00 0.8236000D+04 0.1235000D+04
EXPONENTS  0.2808000D+03 0.7927000D+02 0.2559000D+02 0.8997000D+01 0.3319000D+01
EXPONENTS  0.3643000D+00 0.9059000D+00 0.1285000D+00 0.4402000D-01 0.1871000D+02
EXPONENTS  0.4133000D+01 0.1200000D+01 0.1871000D+02 0.4133000D+01 0.1200000D+01
EXPONENTS  0.1871000D+02 0.4133000D+01 0.1200000D+01 0.3827000D+00 0.3827000D+00
EXPONENTS  0.3827000D+00 0.1209000D+00 0.1209000D+00 0.1209000D+00 0.3569000D-01
EXPONENTS  0.3569000D-01 0.3569000D-01 0.1097000D+01 0.1097000D+01 0.1097000D+01
EXPONENTS  0.1097000D+01 0.1097000D+01 0.1097000D+01 0.3180000D+00 0.3180000D+00
EXPONENTS  0.3180000D+00 0.3180000D+00 0.3180000D+00 0.3180000D+00 0.1000000D+00
EXPONENTS  0.1000000D+00 0.1000000D+00 0.1000000D+00 0.1000000D+00 0.1000000D+00
EXPONENTS  0.7610000D+00 0.7610000D+00 0.7610000D+00 0.7610000D+00 0.7610000D+00
EXPONENTS  0.7610000D+00 0.7610000D+00 0.7610000D+00 0.7610000D+00 0.7610000D+00
EXPONENTS  0.2680000D+00 0.2680000D+00 0.2680000D+00 0.2680000D+00 0.2680000D+00
EXPONENTS  0.2680000D+00 0.2680000D+00 0.2680000D+00 0.2680000D+00 0.2680000D+00
EXPONENTS  0.9563600D+07 0.1432100D+07 0.3259100D+06 0.9231200D+05 0.3011600D+05
EXPONENTS  0.1087200D+05 0.4240100D+04 0.1758400D+04 0.7665900D+03 0.3484300D+03
EXPONENTS  0.1640300D+03 0.7914200D+02 0.3552400D+02 0.1730500D+02 0.8378400D+01
EXPONENTS  0.3740500D+01 0.1689000D+01 0.2552000D+00 0.9563600D+07 0.1432100D+07
EXPONENTS  0.3259100D+06 0.9231200D+05 0.3011600D+05 0.1087200D+05 0.4240100D+04
EXPONENTS  0.1758400D+04 0.7665900D+03 0.3484300D+03 0.1640300D+03 0.7914200D+02
EXPONENTS  0.3552400D+02 0.1730500D+02 0.8378400D+01 0.3740500D+01 0.1689000D+01
EXPONENTS  0.2552000D+00 0.9563600D+07 0.1432100D+07 0.3259100D+06 0.9231200D+05
EXPONENTS  0.3011600D+05 0.1087200D+05 0.4240100D+04 0.1758400D+04 0.7665900D+03
EXPONENTS  0.3484300D+03 0.1640300D+03 0.7914200D+02 0.3552400D+02 0.1730500D+02
EXPONENTS  0.8378400D+01 0.3740500D+01 0.1689000D+01 0.2552000D+00 0.9563600D+07
EXPONENTS  0.1432100D+07 0.3259100D+06 0.9231200D+05 0.3011600D+05 0.1087200D+05
EXPONENTS  0.4240100D+04 0.1758400D+04 0.7665900D+03 0.3484300D+03 0.1640300D+03
EXPONENTS  0.7914200D+02 0.3552400D+02 0.1730500D+02 0.8378400D+01 0.3740500D+01
EXPONENTS  0.1689000D+01 0.2552000D+00 0.5092700D+00 0.1065100D+00 0.3920100D-01
EXPONENTS  0.8004300D+04 0.1896900D+04 0.6147100D+03 0.2335000D+03 0.9785600D+02
EXPONENTS  0.4351400D+02 0.2006300D+02 0.9112700D+01 0.4106300D+01 0.1794900D+01
EXPONENTS  0.2461500D+00 0.8004300D+04 0.1896900D+04 0.6147100D+03 0.2335000D+03
EXPONENTS  0.9785600D+02 0.4351400D+02 0.2006300D+02 0.9112700D+01 0.4106300D+01
EXPONENTS  0.1794900D+01 0.2461500D+00 0.8004300D+04 0.1896900D+04 0.6147100D+03
EXPONENTS  0.2335000D+03 0.9785600D+02 0.4351400D+02 0.2006300D+02 0.9112700D+01
EXPONENTS  0.4106300D+01 0.1794900D+01 0.2461500D+00 0.8004300D+04 0.1896900D+04
EXPONENTS  0.6147100D+03 0.2335000D+03 0.9785600D+02 0.4351400D+02 0.2006300D+02
EXPONENTS  0.9112700D+01 0.4106300D+01 0.1794900D+01 0.2461500D+00 0.8004300D+04
EXPONENTS  0.1896900D+04 0.6147100D+03 0.2335000D+03 0.9785600D+02 0.4351400D+02
EXPONENTS  0.2006300D+02 0.9112700D+01 0.4106300D+01 0.1794900D+01 0.2461500D+00
EXPONENTS  0.8004300D+04 0.1896900D+04 0.6147100D+03 0.2335000D+03 0.9785600D+02
EXPONENTS  0.4351400D+02 0.2006300D+02 0.9112700D+01 0.4106300D+01 0.1794900D+01
EXPONENTS  0.2461500D+00 0.8004300D+04 0.1896900D+04 0.6147100D+03 0.2335000D+03
EXPONENTS  0.9785600D+02 0.4351400D+02 0.2006300D+02 0.9112700D+01 0.4106300D+01
EXPONENTS  0.1794900D+01 0.2461500D+00 0.8004300D+04 0.1896900D+04 0.6147100D+03
EXPONENTS  0.2335000D+03 0.9785600D+02 0.4351400D+02 0.2006300D+02 0.9112700D+01
EXPONENTS  0.4106300D+01 0.1794900D+01 0.2461500D+00 0.8004300D+04 0.1896900D+04
EXPONENTS  0.6147100D+03 0.2335000D+03 0.9785600D+02 0.4351400D+02 0.2006300D+02
EXPONENTS  0.9112700D+01 0.4106300D+01 0.1794900D+01 0.2461500D+00 0.6243200D+00
EXPONENTS  0.6243200D+00 0.6243200D+00 0.8891700D-01 0.8891700D-01 0.8891700D-01
EXPONENTS  0.3025100D-01 0.3025100D-01 0.3025100D-01 0.3618500D+03 0.1085500D+03
EXPONENTS  0.4143300D+02 0.1757900D+02 0.7862700D+01 0.3518000D+01 0.1534800D+01
EXPONENTS  0.3618500D+03 0.1085500D+03 0.4143300D+02 0.1757900D+02 0.7862700D+01
EXPONENTS  0.3518000D+01 0.1534800D+01 0.3618500D+03 0.1085500D+03 0.4143300D+02
EXPONENTS  0.1757900D+02 0.7862700D+01 0.3518000D+01 0.1534800D+01 0.3618500D+03
EXPONENTS  0.1085500D+03 0.4143300D+02 0.1757900D+02 0.7862700D+01 0.3518000D+01
EXPONENTS  0.1534800D+01 0.3618500D+03 0.1085500D+03 0.4143300D+02 0.1757900D+02
EXPONENTS  0.7862700D+01 0.3518000D+01 0.1534800D+01 0.3618500D+03 0.1085500D+03
EXPONENTS  0.4143300D+02 0.1757900D+02 0.7862700D+01 0.3518000D+01 0.1534800D+01
EXPONENTS  0.6081300D+00 0.6081300D+00 0.6081300D+00 0.6081300D+00 0.6081300D+00
EXPONENTS  0.6081300D+00 0.2220000D+00 0.2220000D+00 0.2220000D+00 0.2220000D+00
EXPONENTS  0.2220000D+00 0.2220000D+00 0.8370000D-01 0.8370000D-01 0.8370000D-01
EXPONENTS  0.8370000D-01 0.8370000D-01 0.8370000D-01 0.4620000D+00 0.4620000D+00
EXPONENTS  0.4620000D+00 0.4620000D+00 0.4620000D+00 0.4620000D+00 0.4620000D+00
EXPONENTS  0.4620000D+00 0.4620000D+00 0.4620000D+00 0.1880000D+00 0.1880000D+00
EXPONENTS  0.1880000D+00 0.1880000D+00 0.1880000D+00 0.1880000D+00 0.1880000D+00
EXPONENTS  0.1880000D+00 0.1880000D+00 0.1880000D+00 0.3387000D+02 0.5095000D+01
EXPONENTS  0.1159000D+01 0.3258000D+00 0.1027000D+00 0.2526000D-01 0.1407000D+01
EXPONENTS  0.1407000D+01 0.1407000D+01 0.3880000D+00 0.3880000D+00 0.3880000D+00
EXPONENTS  0.1020000D+00 0.1020000D+00 0.1020000D+00 0.1057000D+01 0.1057000D+01
EXPONENTS  0.1057000D+01 0.1057000D+01 0.1057000D+01 0.1057000D+01 0.2470000D+00
EXPONENTS  0.2470000D+00 0.2470000D+00 0.2470000D+00 0.2470000D+00 0.2470000D+00
EXPONENTS  0.8236000D+04 0.1235000D+04 0.2808000D+03 0.7927000D+02 0.2559000D+02
EXPONENTS  0.8997000D+01 0.3319000D+01 0.3643000D+00 0.8236000D+04 0.1235000D+04
EXPONENTS  0.2808000D+03 0.7927000D+02 0.2559000D+02 0.8997000D+01 0.3319000D+01
EXPONENTS  0.3643000D+00 0.9059000D+00 0.1285000D+00 0.4402000D-01 0.1871000D+02
EXPONENTS  0.4133000D+01 0.1200000D+01 0.1871000D+02 0.4133000D+01 0.1200000D+01
EXPONENTS  0.1871000D+02 0.4133000D+01 0.1200000D+01 0.3827000D+00 0.3827000D+00
EXPONENTS  0.3827000D+00 0.1209000D+00 0.1209000D+00 0.1209000D+00 0.3569000D-01
EXPONENTS  0.3569000D-01 0.3569000D-01 0.1097000D+01 0.1097000D+01 0.1097000D+01
EXPONENTS  0.1097000D+01 0.1097000D+01 0.1097000D+01 0.3180000D+00 0.3180000D+00
EXPONENTS  0.3180000D+00 0.3180000D+00 0.3180000D+00 0.3180000D+00 0.1000000D+00
EXPONENTS  0.1000000D+00 0.1000000D+00 0.1000000D+00 0.1000000D+00 0.1000000D+00
EXPONENTS  0.7610000D+00 0.7610000D+00 0.7610000D+00 0.7610000D+00 0.7610000D+00
EXPONENTS  0.7610000D+00 0.7610000D+00 0.7610000D+00 0.7610000D+00 0.7610000D+00
EXPONENTS  0.2680000D+00 0.2680000D+00 0.2680000D+00 0.2680000D+00 0.2680000D+00
EXPONENTS  0.2680000D+00 0.2680000D+00 0.2680000D+00 0.2680000D+00 0.2680000D+00
EXPONENTS  0.3387000D+02 0.5095000D+01 0.1159000D+01 0.3258000D+00 0.1027000D+00
EXPONENTS  0.2526000D-01 0.1407000D+01 0.1407000D+01 0.1407000D+01 0.3880000D+00
EXPONENTS  0.3880000D+00 0.3880000D+00 0.1020000D+00 0.1020000D+00 0.1020000D+00
EXPONENTS  0.1057000D+01 0.1057000D+01 0.1057000D+01 0.1057000D+01 0.1057000D+01
EXPONENTS  0.1057000D+01 0.2470000D+00 0.2470000D+00 0.2470000D+00 0.2470000D+00
EXPONENTS  0.2470000D+00 0.2470000D+00 0.3387000D+02 0.5095000D+01 0.1159000D+01
EXPONENTS  0.3258000D+00 0.1027000D+00 0.2526000D-01 0.1407000D+01 0.1407000D+01
EXPONENTS  0.1407000D+01 0.3880000D+00 0.3880000D+00 0.3880000D+00 0.1020000D+00
EXPONENTS  0.1020000D+00 0.1020000D+00 0.1057000D+01 0.1057000D+01 0.1057000D+01
EXPONENTS  0.1057000D+01 0.1057000D+01 0.1057000D+01 0.2470000D+00 0.2470000D+00
EXPONENTS  0.2470000D+00 0.2470000D+00 0.2470000D+00 0.2470000D+00 0.3387000D+02
EXPONENTS  0.5095000D+01 0.1159000D+01 0.3258000D+00 0.1027000D+00 0.2526000D-01
EXPONENTS  0.1407000D+01 0.1407000D+01 0.1407000D+01 0.3880000D+00 0.3880000D+00
EXPONENTS  0.3880000D+00 0.1020000D+00 0.1020000D+00 0.1020000D+00 0.1057000D+01
EXPONENTS  0.1057000D+01 0.1057000D+01 0.1057000D+01 0.1057000D+01 0.1057000D+01
EXPONENTS  0.2470000D+00 0.2470000D+00 0.2470000D+00 0.2470000D+00 0.2470000D+00
EXPONENTS  0.2470000D+00
MO    1     MO 0.0        OCC NO =    2.0000000  ORB. ENERGY = -460.813428
 -0.15540673D-06 -0.28971349D-06 -0.48966683D-06 -0.73612964D-06 -0.90442032D-06
 -0.76392754D-06 -0.28812536D-06  0.14259485D-08  0.11377583D-06  0.21302425D-06
  0.36269202D-06  0.56102941D-06  0.73885599D-06  0.76771870D-06  0.48785077D-06
 -0.32694624D-06 -0.49622263D-06  0.25090982D-05  0.14135521D-05  0.41300644D-07
  0.38721979D-07  0.27572356D-07 -0.44552373D-12 -0.41770682D-12 -0.29743214D-12
 -0.39881999D-06 -0.37391909D-06 -0.26625267D-06 -0.15363113D-06 -0.59411235D-14
  0.43831158D-06  0.11431101D-06  0.25402037D-11  0.18116067D-05 -0.78681744D-07
  0.29176845D-13  0.23535642D-07  0.22247497D-07  0.24708884D-06 -0.26933633D-06
 -0.11613480D-11 -0.71092693D-07  0.24786367D-12 -0.24868815D-06 -0.38299867D-06
  0.63168683D-06  0.67209464D-12  0.26073988D-06  0.10928728D-11 -0.16464007D-06
 -0.66849108D-07  0.23148918D-06 -0.10347218D-11 -0.30170992D-07 -0.35692324D-12
  0.11703904D-07  0.35088801D-13  0.10292671D-06  0.38912294D-07 -0.13196527D-11
 -0.22281350D-06 -0.74024006D-07  0.12143863D-11 -0.85966636D-07  0.13085611D-12
 -0.10458911D-07 -0.95199637D-13  0.15059824D-06 -0.49633212D-07 -0.25701103D-12
 -0.29726190D-06  0.81009944D-07  0.54260994D-12 -0.15453282D-06 -0.24570549D-12
  0.77217651D+00  0.14427758D+01  0.25023139D+01  0.40994295D+01  0.64193809D+01
  0.96401983D+01  0.13749683D+02  0.18166117D+02  0.20949998D+02  0.18855670D+02
  0.10578500D+02  0.25574089D+01  0.12141310D+00 -0.20777431D-02  0.58437959D-03
 -0.22773179D-03  0.21540828D-04  0.21239710D-05 -0.39544132D-07 -0.72821135D-07
 -0.12639920D-06 -0.20701821D-06 -0.32583713D-06 -0.49180800D-06 -0.71691281D-06
 -0.98447189D-06 -0.12502668D-05 -0.13464580D-05 -0.10741789D-05 -0.24060750D-06
  0.64337905D-06  0.57214053D-06  0.11174137D-06  0.30954657D-08  0.22416310D-09
  0.45780238D-11 -0.26553126D-06 -0.47939210D-06 -0.83453037D-06 -0.13665787D-05
 -0.21544891D-05 -0.32510648D-05 -0.47581753D-05 -0.65561403D-05 -0.84460654D-05
 -0.92964621D-05 -0.78261135D-05 -0.18636777D-05  0.62775830D-05  0.83881669D-05
  0.10305035D-05 -0.36007191D-05 -0.15894832D-05  0.78883194D-08  0.89105919D-07
  0.19304698D-06  0.32863720D-06  0.53645202D-06  0.84573962D-06  0.12762686D-05
  0.18679274D-05  0.25766888D-05  0.33236591D-05  0.36743584D-05  0.31119091D-05
  0.75590340D-06 -0.26225395D-05 -0.37014137D-05 -0.44162963D-06  0.20755577D-05
  0.16591081D-05 -0.62854861D-06 -0.44824351D-05 -0.41723608D-05 -0.45909112D-06
 -0.11838852D-04 -0.16967820D-04 -0.22406657D-04 -0.25755323D-04 -0.23693287D-04
 -0.15157245D-04 -0.52465103D-05 -0.58983321D-06 -0.75041162D-08 -0.13003337D-08
 -0.13287995D-10 -0.47801871D-09 -0.68511167D-09 -0.90471625D-09 -0.10399257D-08
 -0.95666665D-09 -0.61200587D-09 -0.21183897D-09 -0.23815765D-10 -0.30299459D-12
 -0.52503726D-13 -0.53653094D-15 -0.14828905D-03 -0.21253260D-03 -0.28065746D-03
 -0.32260160D-03 -0.29677330D-03 -0.18985401D-03 -0.65715837D-04 -0.73880315D-05
 -0.93993769D-07 -0.16287496D-07 -0.16644048D-09 -0.58619612D-05 -0.84554172D-05
 -0.11261522D-04 -0.13327597D-04 -0.12807320D-04 -0.88031616D-05 -0.27716293D-05
  0.13395034D-05  0.13746547D-05  0.34618908D-06 -0.37744374D-09 -0.26171365D-09
 -0.37750132D-09 -0.50278291D-09 -0.59502508D-09 -0.57179676D-09 -0.39302675D-09
 -0.12374241D-09  0.59803590D-10  0.61372960D-10  0.15455989D-10 -0.16851387D-13
 -0.13597280D-03 -0.19613006D-03 -0.26121986D-03 -0.30914409D-03 -0.29707587D-03
 -0.20419626D-03 -0.64290123D-04  0.31070836D-04  0.31886199D-04  0.80301282D-05
 -0.87551047D-08  0.24288930D-05  0.35211347D-05  0.46734256D-05  0.55772863D-05
  0.53584482D-05  0.37506281D-05  0.11324688D-05 -0.69323986D-06 -0.74556709D-06
 -0.20050738D-06  0.74742610D-07  0.12465733D-09  0.18071411D-09  0.23985278D-09
  0.28624135D-09  0.27500998D-09  0.19249233D-09  0.58121348D-10 -0.35578936D-10
 -0.38264510D-10 -0.10290578D-10  0.38359919D-11  0.73345472D-04  0.10632798D-03
  0.14112380D-03  0.16841775D-03  0.16180948D-03  0.11325801D-03  0.34197249D-04
 -0.20933818D-04 -0.22513948D-04 -0.60547369D-05  0.22570084D-05 -0.71947385D-07
 -0.40282929D-11 -0.16981574D-05  0.91312838D-07  0.17952374D-11  0.88591610D-06
  0.72313814D-08  0.15181343D-13  0.18263251D-07 -0.42661640D-04 -0.44158874D-04
 -0.36946283D-04 -0.23840844D-04 -0.10709633D-04 -0.31270396D-05 -0.52755074D-06
  0.20308801D-04  0.21021549D-04  0.17588042D-04  0.11349281D-04  0.50982523D-05
  0.14886071D-05  0.25113715D-06  0.22352840D-04  0.23137325D-04  0.19358242D-04
  0.12491563D-04  0.56113809D-05  0.16384324D-05  0.27641359D-06 -0.84560208D-10
 -0.87527896D-10 -0.73231723D-10 -0.47255257D-10 -0.21227707D-10 -0.61981470D-11
 -0.10456654D-11  0.58346394D-05  0.60394093D-05  0.50529760D-05  0.32606044D-05
  0.14647081D-05  0.42767105D-06  0.72150726D-07  0.25349096D-09  0.26238737D-09
  0.21953091D-09  0.14165978D-09  0.63635509D-10  0.18580539D-10  0.31346508D-11
  0.44895048D-06 -0.13582620D-07 -0.43536786D-06  0.20724360D-12 -0.58914785D-07
 -0.24538202D-11  0.17807374D-06  0.18247730D-06 -0.36055104D-06  0.17788763D-12
 -0.27645637D-07 -0.19062215D-11  0.29085179D-07  0.21746893D-07 -0.50832072D-07
 -0.18812637D-13 -0.16036083D-07 -0.31487780D-12 -0.41466602D-08 -0.35932398D-12
  0.14109332D-06 -0.52575143D-08 -0.23902821D-12 -0.22491855D-06  0.17697495D-07
  0.13170001D-11 -0.19836140D-06  0.78310988D-13 -0.81903738D-09 -0.10433253D-13
  0.89404453D-08  0.33538139D-08 -0.90959598D-13 -0.18165194D-07 -0.89670177D-09
  0.12225936D-12 -0.86561424D-08 -0.76701329D-13 -0.13658310D-07 -0.24633324D-07
 -0.36321822D-07 -0.42747431D-06  0.95685014D-06  0.72177248D-07  0.31709236D-07
  0.30016790D-12  0.39533150D-07  0.17312822D-07  0.10836893D-11  0.82313644D-07
 -0.43041741D-07 -0.68214743D-13  0.30343414D-06  0.19664509D-07 -0.68966931D-07
  0.49302422D-07  0.18476887D-12 -0.29158666D-07  0.11720492D-11 -0.18771383D-07
 -0.28138163D-07  0.46909546D-07  0.14729786D-12 -0.76593436D-07 -0.16704116D-12
 -0.10338355D-07 -0.19273043D-07 -0.32574839D-07 -0.48970653D-07 -0.60166105D-07
 -0.50819894D-07 -0.19167394D-07  0.94860503D-10  0.73538750D-08  0.13768774D-07
  0.23442516D-07  0.36262008D-07  0.47755789D-07  0.49621324D-07  0.31532124D-07
 -0.21132096D-07  0.21397107D-08  0.24051114D-06 -0.80548933D-06  0.88848769D-08
  0.83301368D-08  0.59315537D-08  0.35154963D-12  0.32960012D-12  0.23469492D-12
  0.33021430D-07  0.30959690D-07  0.22045143D-07 -0.35656459D-06 -0.11869233D-11
 -0.26727185D-06  0.65407788D-06 -0.33315521D-11 -0.33185877D-06 -0.28935107D-07
  0.21636661D-12 -0.48862329D-07 -0.11840136D-07  0.29894808D-07 -0.18054672D-07
  0.72284420D-12 -0.23069270D-06  0.16122466D-12 -0.18922625D-06  0.95513997D-07
  0.93712255D-07  0.49493149D-12  0.71673515D-08  0.29894985D-11 -0.70971626D-07
  0.75513091D-07 -0.45414648D-08 -0.10672022D-11  0.10560240D-06 -0.64356322D-12
 -0.12239044D-07 -0.27559845D-12  0.78579835D-08  0.64208145D-07  0.97758215D-12
  0.50951847D-07 -0.27491012D-07 -0.15078678D-12 -0.74525798D-07  0.11446962D-11
  0.37634113D-07  0.30872236D-12  0.60049352D-07 -0.14440615D-06 -0.26215527D-12
 -0.14298556D-06  0.31503813D-07 -0.66401182D-12 -0.37162501D-07  0.10467038D-11
  0.15534190D-07  0.28016552D-07  0.41310389D-07  0.52907989D-06  0.20664083D-05
  0.25389256D-07  0.71425220D-07 -0.29013294D-12  0.34112769D-07 -0.18819901D-06
  0.62473645D-12 -0.16989469D-06  0.17570928D-06 -0.10040821D-11 -0.14707685D-06
 -0.92141601D-07  0.67584335D-07  0.24557265D-07  0.41442828D-12 -0.58105776D-08
 -0.36589658D-12 -0.41575200D-07  0.67127636D-08  0.34862437D-07  0.17680702D-12
  0.52228477D-07  0.38975158D-12  0.10872510D-08  0.19609019D-08  0.28913487D-08
 -0.20448183D-06 -0.69816697D-06 -0.36638403D-07  0.17344352D-08  0.28390248D-07
 -0.50524959D-08  0.10861903D-06  0.69524011D-07 -0.10659502D-06 -0.19621437D-07
  0.39529727D-07 -0.10367257D-06  0.96136232D-08 -0.19860137D-07  0.10246514D-07
 -0.33898349D-07  0.90721083D-07  0.78381716D-07 -0.47337002D-08  0.11089516D-07
 -0.63558153D-08  0.18699343D-07  0.33397968D-07  0.32108091D-07  0.10872882D-08
  0.19609690D-08  0.28914476D-08 -0.20448913D-06 -0.69816567D-06 -0.36637839D-07
  0.17346041D-08 -0.28390409D-07 -0.50533046D-08  0.10861742D-06 -0.69528252D-07
 -0.10659503D-06 -0.19623857D-07 -0.39530310D-07 -0.10367227D-06  0.96138140D-08
 -0.19860922D-07  0.10247108D-07  0.33897892D-07  0.90719955D-07 -0.78382859D-07
 -0.47336542D-08  0.11089215D-07 -0.63555611D-08 -0.18699821D-07  0.33397801D-07
 -0.32108357D-07
MO    2     MO 0.0        OCC NO =    2.0000000  ORB. ENERGY =  -60.615684
 -0.22594228D-05 -0.42120778D-05 -0.71191536D-05 -0.10702420D-04 -0.13149159D-04
 -0.11106567D-04 -0.41889884D-05  0.20731538D-07  0.19658780D-05  0.36807439D-05
  0.62667814D-05  0.96937579D-05  0.12766338D-04  0.13265043D-04  0.84293394D-05
 -0.56491472D-05 -0.96306553D-06 -0.41840487D-05 -0.23605125D-05  0.86213418D-06
  0.80830560D-06  0.57556174D-06  0.10816511D-10  0.10141167D-10  0.72211149D-11
 -0.36031791D-05 -0.33782095D-05 -0.24054864D-05 -0.43651151D-05 -0.32490094D-10
 -0.91738927D-05 -0.11563882D-05 -0.15602008D-10 -0.10958668D-04 -0.12420173D-06
  0.51988068D-12 -0.88387460D-06  0.12534476D-05  0.20092705D-05 -0.32627181D-05
 -0.28456563D-10 -0.74376888D-06  0.21940014D-11  0.30073409D-05  0.18237897D-06
 -0.31897199D-05  0.13330446D-10  0.10631500D-05 -0.22382676D-11  0.12928911D-05
  0.40996649D-06 -0.17028576D-05  0.18733400D-10  0.21642754D-05 -0.73232062D-11
 -0.73354750D-06 -0.47031587D-12  0.10229016D-05  0.84424818D-06  0.11586651D-10
 -0.68755768D-06  0.13563943D-05 -0.10175704D-10 -0.23811472D-05  0.89975327D-11
  0.14089094D-06  0.20874563D-11  0.14586717D-05 -0.39747566D-06 -0.26030388D-10
 -0.39832929D-05 -0.25197160D-07  0.19768019D-10 -0.39272221D-06 -0.38929911D-11
  0.28372619D-05  0.53012916D-05  0.91944262D-05  0.15062819D-04  0.23587178D-04
  0.35421652D-04  0.50521418D-04  0.66749028D-04  0.76978037D-04  0.69282702D-04
  0.38869319D-04  0.93968658D-05  0.44611660D-06 -0.76343960D-08  0.21472266D-08
 -0.83677079D-09  0.79148963D-10  0.78042545D-11 -0.24514278D+00 -0.45143424D+00
 -0.78357643D+00 -0.12833514D+01 -0.20199361D+01 -0.30488261D+01 -0.44443003D+01
 -0.61029580D+01 -0.77506789D+01 -0.83469895D+01 -0.66590714D+01 -0.14915789D+01
  0.39884484D+01  0.35468251D+01  0.69270932D+00  0.19189473D-01  0.13896364D-02
  0.28380178D-04  0.11756635D-04  0.21225515D-04  0.36949581D-04  0.60506498D-04
  0.95391939D-04  0.14394381D-03  0.21067248D-03  0.29027899D-03  0.37395712D-03
  0.41160920D-03  0.34650820D-03  0.82516002D-04 -0.27794562D-03 -0.37139362D-03
 -0.45626465D-04  0.15942507D-03  0.70375796D-04 -0.34926242D-06 -0.36270953D-05
 -0.78580617D-05 -0.13377321D-04 -0.21836513D-04 -0.34426200D-04 -0.51951071D-04
 -0.76034800D-04 -0.10488524D-03 -0.13529100D-03 -0.14956636D-03 -0.12667162D-03
 -0.30769378D-04  0.10675161D-03  0.15066766D-03  0.17976727D-04 -0.84486481D-04
 -0.67534718D-04  0.25585346D-04 -0.12147356D-03  0.46615376D-05  0.45653443D-05
 -0.14970246D-02 -0.21455834D-02 -0.28333252D-02 -0.32567645D-02 -0.29960198D-02
 -0.19166359D-02 -0.66342203D-03 -0.74584500D-04 -0.94889664D-06 -0.16442739D-06
 -0.16802690D-08 -0.82904064D-07 -0.11882075D-06 -0.15690736D-06 -0.18035710D-06
 -0.16591726D-06 -0.10614182D-06 -0.36739799D-07 -0.41304319D-08 -0.52549162D-10
 -0.91058617D-11 -0.93051997D-13 -0.17761779D-01 -0.25456748D-01 -0.33616613D-01
 -0.38640602D-01 -0.35546938D-01 -0.22740350D-01 -0.78713172D-02 -0.88492427D-03
 -0.11258394D-04 -0.19508851D-05 -0.19935923D-07  0.15797040D-03  0.22785985D-03
  0.30347984D-03  0.35915723D-03  0.34513661D-03  0.23723100D-03  0.74690937D-04
 -0.36097456D-04 -0.37044727D-04 -0.93292371D-05  0.10171500D-07  0.38236063D-08
  0.55152509D-08  0.73456006D-08  0.86932481D-08  0.83538849D-08  0.57420756D-08
  0.18078624D-08 -0.87372358D-09 -0.89665189D-09 -0.22581022D-09  0.24619683D-12
  0.16560087D-02  0.23886620D-02  0.31813888D-02  0.37650566D-02  0.36180780D-02
  0.24869001D-02  0.78298746D-03 -0.37841077D-03 -0.38834105D-03 -0.97798688D-04
  0.10662816D-06 -0.70111379D-04 -0.10163955D-03 -0.13490109D-03 -0.16099154D-03
 -0.15467465D-03 -0.10826401D-03 -0.32689357D-04  0.20010763D-04  0.21521218D-04
  0.57877595D-05 -0.21574880D-05 -0.11556517D-08 -0.16753333D-08 -0.22235859D-08
 -0.26536371D-08 -0.25495153D-08 -0.17845248D-08 -0.53882140D-09  0.32983908D-09
  0.35473604D-09  0.95400125D-10 -0.35562055D-10 -0.59819228D-03 -0.86719156D-03
 -0.11509799D-02 -0.13735844D-02 -0.13196885D-02 -0.92371163D-03 -0.27890652D-03
  0.17073240D-03  0.18361964D-03  0.49381328D-04 -0.18407748D-04  0.31367609D-05
  0.71511002D-10  0.33916633D-04 -0.10843388D-05 -0.48924877D-11 -0.15911628D-05
  0.58658935D-08 -0.41760802D-12 -0.15580765D-06 -0.26151124D-02 -0.27068912D-02
 -0.22647672D-02 -0.14614180D-02 -0.65648894D-03 -0.19168414D-03 -0.32338290D-04
  0.17802386D-02  0.18427170D-02  0.15417410D-02  0.99486072D-03  0.44690504D-03
  0.13048904D-03  0.22014300D-04  0.83487387D-03  0.86417423D-03  0.72302627D-03
  0.46655726D-03  0.20958390D-03  0.61195106D-04  0.10323989D-04 -0.66283876D-08
 -0.68610145D-08 -0.57403861D-08 -0.37041791D-08 -0.16639679D-08 -0.48585169D-09
 -0.81966159D-10  0.30005342D-03  0.31058396D-03  0.25985543D-03  0.16768054D-03
  0.75324391D-04  0.21993503D-04  0.37104388D-05  0.15781862D-07  0.16335735D-07
  0.13667574D-07  0.88194666D-08  0.39618249D-08  0.11567888D-08  0.19515735D-09
  0.65980451D-05 -0.26951125D-05 -0.39029326D-05  0.13550409D-10 -0.85890128D-06
 -0.40311690D-10 -0.25366345D-05 -0.86132307D-06  0.33979575D-05 -0.19996617D-11
  0.74003080D-06  0.27450021D-10  0.90157322D-08  0.81736985D-07 -0.90752717D-07
 -0.80758442D-13  0.13694444D-06  0.45999643D-12 -0.17095038D-06  0.20618030D-11
 -0.39006628D-06  0.49649956D-06  0.12036583D-11 -0.16891480D-05  0.16351582D-07
 -0.73890673D-11  0.28593469D-05 -0.79837548D-11  0.40378402D-07  0.90380697D-12
 -0.14740159D-06 -0.13596331D-06  0.84805236D-12  0.50916559D-06  0.14828108D-07
 -0.35594733D-11 -0.66960812D-07  0.59371826D-12 -0.61961079D-06 -0.11174936D-05
 -0.16477436D-05 -0.45955296D-05  0.19220886D-05 -0.20814022D-06  0.81010465D-06
 -0.85580768D-11 -0.11351149D-05 -0.22431373D-05  0.37145952D-10  0.10634109D-05
 -0.13298081D-05 -0.22091891D-10 -0.21478395D-05  0.84100787D-06 -0.24999167D-05
  0.16589089D-05  0.19559980D-10 -0.97663728D-06  0.24841356D-10  0.56743388D-07
 -0.75916548D-06  0.70242209D-06  0.13355808D-10  0.44256120D-06  0.17763704D-10
 -0.14936089D-05 -0.27844265D-05 -0.47061714D-05 -0.70749171D-05 -0.86923531D-05
 -0.73420818D-05 -0.27691631D-05  0.13704743D-07  0.10467363D-05  0.19598205D-05
  0.33367622D-05  0.51614637D-05  0.67974661D-05  0.70630027D-05  0.44882211D-05
 -0.30079014D-05 -0.14636323D-05 -0.11238304D-04 -0.23575834D-05  0.64166761D-06
  0.60160417D-06  0.42837801D-06  0.19568727D-11  0.18346926D-11  0.13064104D-11
 -0.35098498D-06 -0.32907073D-06 -0.23431796D-06 -0.61217059D-05 -0.14458697D-10
 -0.32638758D-05  0.11481779D-06  0.59267756D-11 -0.99176764D-07 -0.34518187D-06
 -0.67179346D-12  0.13085072D-06 -0.10533911D-05  0.24822571D-05 -0.14288660D-05
  0.77275204D-11 -0.20808118D-05 -0.31991331D-11  0.10348905D-06 -0.18449643D-05
  0.17414752D-05  0.82365559D-11 -0.45162235D-05  0.56120754D-10 -0.40703271D-06
 -0.88809100D-06  0.12951237D-05  0.30756636D-11 -0.26219437D-06  0.21412119D-10
  0.29717141D-06 -0.34258711D-11  0.55101724D-06  0.18130327D-06  0.19543843D-10
 -0.85308918D-07 -0.10728175D-05 -0.92662302D-11 -0.15677428D-05  0.12187704D-10
  0.76364532D-06  0.25533152D-11  0.26081108D-06 -0.75392780D-06 -0.15437830D-10
 -0.66509361D-06 -0.15370082D-05  0.77778843D-11 -0.11733962D-06  0.40456852D-10
  0.10079609D-06  0.18178991D-06  0.26804911D-06 -0.61020211D-05  0.27575625D-05
 -0.43304674D-06 -0.12609825D-05 -0.84564224D-11  0.59034082D-06 -0.43241318D-05
  0.35896486D-10 -0.24191415D-05  0.26803567D-06 -0.64382805D-11 -0.15799399D-05
 -0.17481829D-05  0.55397813D-06  0.11942048D-05  0.11733236D-10 -0.15406814D-05
 -0.46128803D-11  0.13697276D-06 -0.48336054D-06  0.34638778D-06 -0.11528407D-11
  0.11587249D-05 -0.67669071D-11  0.14189871D-07  0.25592017D-07  0.37735414D-07
  0.89013532D-07 -0.20411768D-06 -0.15439006D-07  0.67531607D-06  0.21863026D-06
  0.26917725D-06 -0.10653118D-06  0.12492853D-05  0.11842178D-06 -0.10768119D-06
  0.12093409D-05  0.80712880D-06 -0.67801483D-06 -0.49947705D-06  0.11774919D-05
  0.64371081D-06  0.55803895D-06  0.14307087D-05  0.31556069D-06 -0.21492444D-06