 Molden2AIM, Version 4.0.0 (06/02/2016)           Time: Wed Jun 27 21:08:19 2018
GAUSSIAN             21 MOL ORBITALS    518 PRIMITIVES       10 NUCLEI
  C    1    (CENTRE  1)  -5.94748779  5.31484339  0.80794863  CHARGE =  6.0
  C    2    (CENTRE  2) -11.46882533  5.27454687 -2.25794871  CHARGE =  6.0
  O    3    (CENTRE  3) -10.99190192  5.77979349  0.33875797  CHARGE =  8.0
  H    4    (CENTRE  4)  -9.76981036  5.57910836 -3.42113183  CHARGE =  1.0
  H    5    (CENTRE  5) -12.93529060  6.62197451 -2.83907918  CHARGE =  1.0
  H    6    (CENTRE  6) -12.15389829  3.33198022 -2.53715385  CHARGE =  1.0
  S    7    (CENTRE  7)  -8.87316366  3.79798479  1.67971519  CHARGE = 16.0
  H    8    (CENTRE  8)  -4.45504068  4.21524955  1.74705558  CHARGE =  1.0
  H    9    (CENTRE  9)  -5.89951520  7.26357432  1.51248577  CHARGE =  1.0
  H   10    (CENTRE 10)  -5.61902882  5.25995629 -1.23889311  CHARGE =  1.0
CENTRE ASSIGNMENTS    1  1  1  1  1  1  1  1  1  1  1  1  1  1  1  1  1  1  1  1
CENTRE ASSIGNMENTS    1  1  1  1  1  1  1  1  1  1  1  1  1  1  1  1  1  1  1  1
CENTRE ASSIGNMENTS    1  1  1  1  1  1  1  1  1  1  1  1  1  1  1  1  1  1  1  1
CENTRE ASSIGNMENTS    1  1  1  1  1  1  1  1  1  1  1  1  1  1  1  2  2  2  2  2
CENTRE ASSIGNMENTS    2  2  2  2  2  2  2  2  2  2  2  2  2  2  2  2  2  2  2  2
CENTRE ASSIGNMENTS    2  2  2  2  2  2  2  2  2  2  2  2  2  2  2  2  2  2  2  2
CENTRE ASSIGNMENTS    2  2  2  2  2  2  2  2  2  2  2  2  2  2  2  2  2  2  2  2
CENTRE ASSIGNMENTS    2  2  2  2  2  2  2  2  2  2  3  3  3  3  3  3  3  3  3  3
CENTRE ASSIGNMENTS    3  3  3  3  3  3  3  3  3  3  3  3  3  3  3  3  3  3  3  3
CENTRE ASSIGNMENTS    3  3  3  3  3  3  3  3  3  3  3  3  3  3  3  3  3  3  3  3
CENTRE ASSIGNMENTS    3  3  3  3  3  3  3  3  3  3  3  3  3  3  3  3  3  3  3  3
CENTRE ASSIGNMENTS    3  3  3  3  3  4  4  4  4  4  4  4  4  4  4  4  4  4  4  4
CENTRE ASSIGNMENTS    4  4  4  4  4  4  4  4  4  4  4  4  5  5  5  5  5  5  5  5
CENTRE ASSIGNMENTS    5  5  5  5  5  5  5  5  5  5  5  5  5  5  5  5  5  5  5  6
CENTRE ASSIGNMENTS    6  6  6  6  6  6  6  6  6  6  6  6  6  6  6  6  6  6  6  6
CENTRE ASSIGNMENTS    6  6  6  6  6  6  7  7  7  7  7  7  7  7  7  7  7  7  7  7
CENTRE ASSIGNMENTS    7  7  7  7  7  7  7  7  7  7  7  7  7  7  7  7  7  7  7  7
CENTRE ASSIGNMENTS    7  7  7  7  7  7  7  7  7  7  7  7  7  7  7  7  7  7  7  7
CENTRE ASSIGNMENTS    7  7  7  7  7  7  7  7  7  7  7  7  7  7  7  7  7  7  7  7
CENTRE ASSIGNMENTS    7  7  7  7  7  7  7  7  7  7  7  7  7  7  7  7  7  7  7  7
CENTRE ASSIGNMENTS    7  7  7  7  7  7  7  7  7  7  7  7  7  7  7  7  7  7  7  7
CENTRE ASSIGNMENTS    7  7  7  7  7  7  7  7  7  7  7  7  7  7  7  7  7  8  8  8
CENTRE ASSIGNMENTS    8  8  8  8  8  8  8  8  8  8  8  8  8  8  8  8  8  8  8  8
CENTRE ASSIGNMENTS    8  8  8  8  9  9  9  9  9  9  9  9  9  9  9  9  9  9  9  9
CENTRE ASSIGNMENTS    9  9  9  9  9  9  9  9  9  9  9 10 10 10 10 10 10 10 10 10
CENTRE ASSIGNMENTS   10 10 10 10 10 10 10 10 10 10 10 10 10 10 10 10 10 10
TYPE ASSIGNMENTS      1  1  1  1  1  1  1  1  1  1  1  1  1  1  1  1  1  1  1  2
TYPE ASSIGNMENTS      2  2  3  3  3  4  4  4  2  3  4  2  3  4  2  3  4  5  6  7
TYPE ASSIGNMENTS      8  9 10  5  6  7  8  9 10  5  6  7  8  9 10 11 12 13 17 14
TYPE ASSIGNMENTS     15 18 19 16 20 11 12 13 17 14 15 18 19 16 20  1  1  1  1  1
TYPE ASSIGNMENTS      1  1  1  1  1  1  1  1  1  1  1  1  1  1  2  2  2  3  3  3
TYPE ASSIGNMENTS      4  4  4  2  3  4  2  3  4  2  3  4  5  6  7  8  9 10  5  6
TYPE ASSIGNMENTS      7  8  9 10  5  6  7  8  9 10 11 12 13 17 14 15 18 19 16 20
TYPE ASSIGNMENTS     11 12 13 17 14 15 18 19 16 20  1  1  1  1  1  1  1  1  1  1
TYPE ASSIGNMENTS      1  1  1  1  1  1  1  1  1  2  2  2  3  3  3  4  4  4  2  3
TYPE ASSIGNMENTS      4  2  3  4  2  3  4  5  6  7  8  9 10  5  6  7  8  9 10  5
TYPE ASSIGNMENTS      6  7  8  9 10 11 12 13 17 14 15 18 19 16 20 11 12 13 17 14
TYPE ASSIGNMENTS     15 18 19 16 20  1  1  1  1  1  1  2  3  4  2  3  4  2  3  4
TYPE ASSIGNMENTS      5  6  7  8  9 10  5  6  7  8  9 10  1  1  1  1  1  1  2  3
TYPE ASSIGNMENTS      4  2  3  4  2  3  4  5  6  7  8  9 10  5  6  7  8  9 10  1
TYPE ASSIGNMENTS      1  1  1  1  1  2  3  4  2  3  4  2  3  4  5  6  7  8  9 10
TYPE ASSIGNMENTS      5  6  7  8  9 10  1  1  1  1  1  1  1  1  1  1  1  1  1  1
TYPE ASSIGNMENTS      1  1  1  1  1  1  1  1  1  1  1  1  1  1  1  1  1  1  1  1
TYPE ASSIGNMENTS      1  1  1  1  1  1  1  1  2  2  2  2  2  2  2  3  3  3  3  3
TYPE ASSIGNMENTS      3  3  4  4  4  4  4  4  4  2  2  2  2  2  2  2  3  3  3  3
TYPE ASSIGNMENTS      3  3  3  4  4  4  4  4  4  4  2  3  4  2  3  4  2  3  4  5
TYPE ASSIGNMENTS      6  7  8  9 10  5  6  7  8  9 10  5  6  7  8  9 10 11 12 13
TYPE ASSIGNMENTS     17 14 15 18 19 16 20 11 12 13 17 14 15 18 19 16 20  1  1  1
TYPE ASSIGNMENTS      1  1  1  2  3  4  2  3  4  2  3  4  5  6  7  8  9 10  5  6
TYPE ASSIGNMENTS      7  8  9 10  1  1  1  1  1  1  2  3  4  2  3  4  2  3  4  5
TYPE ASSIGNMENTS      6  7  8  9 10  5  6  7  8  9 10  1  1  1  1  1  1  2  3  4
TYPE ASSIGNMENTS      2  3  4  2  3  4  5  6  7  8  9 10  5  6  7  8  9 10
EXPONENTS  0.8236000D+04 0.1235000D+04 0.2808000D+03 0.7927000D+02 0.2559000D+02
EXPONENTS  0.8997000D+01 0.3319000D+01 0.3643000D+00 0.8236000D+04 0.1235000D+04
EXPONENTS  0.2808000D+03 0.7927000D+02 0.2559000D+02 0.8997000D+01 0.3319000D+01
EXPONENTS  0.3643000D+00 0.9059000D+00 0.1285000D+00 0.4402000D-01 0.1871000D+02
EXPONENTS  0.4133000D+01 0.1200000D+01 0.1871000D+02 0.4133000D+01 0.1200000D+01
EXPONENTS  0.1871000D+02 0.4133000D+01 0.1200000D+01 0.3827000D+00 0.3827000D+00
EXPONENTS  0.3827000D+00 0.1209000D+00 0.1209000D+00 0.1209000D+00 0.3569000D-01
EXPONENTS  0.3569000D-01 0.3569000D-01 0.1097000D+01 0.1097000D+01 0.1097000D+01
EXPONENTS  0.1097000D+01 0.1097000D+01 0.1097000D+01 0.3180000D+00 0.3180000D+00
EXPONENTS  0.3180000D+00 0.3180000D+00 0.3180000D+00 0.3180000D+00 0.1000000D+00
EXPONENTS  0.1000000D+00 0.1000000D+00 0.1000000D+00 0.1000000D+00 0.1000000D+00
EXPONENTS  0.7610000D+00 0.7610000D+00 0.7610000D+00 0.7610000D+00 0.7610000D+00
EXPONENTS  0.7610000D+00 0.7610000D+00 0.7610000D+00 0.7610000D+00 0.7610000D+00
EXPONENTS  0.2680000D+00 0.2680000D+00 0.2680000D+00 0.2680000D+00 0.2680000D+00
EXPONENTS  0.2680000D+00 0.2680000D+00 0.2680000D+00 0.2680000D+00 0.2680000D+00
EXPONENTS  0.8236000D+04 0.1235000D+04 0.2808000D+03 0.7927000D+02 0.2559000D+02
EXPONENTS  0.8997000D+01 0.3319000D+01 0.3643000D+00 0.8236000D+04 0.1235000D+04
EXPONENTS  0.2808000D+03 0.7927000D+02 0.2559000D+02 0.8997000D+01 0.3319000D+01
EXPONENTS  0.3643000D+00 0.9059000D+00 0.1285000D+00 0.4402000D-01 0.1871000D+02
EXPONENTS  0.4133000D+01 0.1200000D+01 0.1871000D+02 0.4133000D+01 0.1200000D+01
EXPONENTS  0.1871000D+02 0.4133000D+01 0.1200000D+01 0.3827000D+00 0.3827000D+00
EXPONENTS  0.3827000D+00 0.1209000D+00 0.1209000D+00 0.1209000D+00 0.3569000D-01
EXPONENTS  0.3569000D-01 0.3569000D-01 0.1097000D+01 0.1097000D+01 0.1097000D+01
EXPONENTS  0.1097000D+01 0.1097000D+01 0.1097000D+01 0.3180000D+00 0.3180000D+00
EXPONENTS  0.3180000D+00 0.3180000D+00 0.3180000D+00 0.3180000D+00 0.1000000D+00
EXPONENTS  0.1000000D+00 0.1000000D+00 0.1000000D+00 0.1000000D+00 0.1000000D+00
EXPONENTS  0.7610000D+00 0.7610000D+00 0.7610000D+00 0.7610000D+00 0.7610000D+00
EXPONENTS  0.7610000D+00 0.7610000D+00 0.7610000D+00 0.7610000D+00 0.7610000D+00
EXPONENTS  0.2680000D+00 0.2680000D+00 0.2680000D+00 0.2680000D+00 0.2680000D+00
EXPONENTS  0.2680000D+00 0.2680000D+00 0.2680000D+00 0.2680000D+00 0.2680000D+00
EXPONENTS  0.1533000D+05 0.2299000D+04 0.5224000D+03 0.1473000D+03 0.4755000D+02
EXPONENTS  0.1676000D+02 0.6207000D+01 0.6882000D+00 0.1533000D+05 0.2299000D+04
EXPONENTS  0.5224000D+03 0.1473000D+03 0.4755000D+02 0.1676000D+02 0.6207000D+01
EXPONENTS  0.6882000D+00 0.1752000D+01 0.2384000D+00 0.7376000D-01 0.3446000D+02
EXPONENTS  0.7749000D+01 0.2280000D+01 0.3446000D+02 0.7749000D+01 0.2280000D+01
EXPONENTS  0.3446000D+02 0.7749000D+01 0.2280000D+01 0.7156000D+00 0.7156000D+00
EXPONENTS  0.7156000D+00 0.2140000D+00 0.2140000D+00 0.2140000D+00 0.5974000D-01
EXPONENTS  0.5974000D-01 0.5974000D-01 0.2314000D+01 0.2314000D+01 0.2314000D+01
EXPONENTS  0.2314000D+01 0.2314000D+01 0.2314000D+01 0.6450000D+00 0.6450000D+00
EXPONENTS  0.6450000D+00 0.6450000D+00 0.6450000D+00 0.6450000D+00 0.2140000D+00
EXPONENTS  0.2140000D+00 0.2140000D+00 0.2140000D+00 0.2140000D+00 0.2140000D+00
EXPONENTS  0.1428000D+01 0.1428000D+01 0.1428000D+01 0.1428000D+01 0.1428000D+01
EXPONENTS  0.1428000D+01 0.1428000D+01 0.1428000D+01 0.1428000D+01 0.1428000D+01
EXPONENTS  0.5000000D+00 0.5000000D+00 0.5000000D+00 0.5000000D+00 0.5000000D+00
EXPONENTS  0.5000000D+00 0.5000000D+00 0.5000000D+00 0.5000000D+00 0.5000000D+00
EXPONENTS  0.3387000D+02 0.5095000D+01 0.1159000D+01 0.3258000D+00 0.1027000D+00
EXPONENTS  0.2526000D-01 0.1407000D+01 0.1407000D+01 0.1407000D+01 0.3880000D+00
EXPONENTS  0.3880000D+00 0.3880000D+00 0.1020000D+00 0.1020000D+00 0.1020000D+00
EXPONENTS  0.1057000D+01 0.1057000D+01 0.1057000D+01 0.1057000D+01 0.1057000D+01
EXPONENTS  0.1057000D+01 0.2470000D+00 0.2470000D+00 0.2470000D+00 0.2470000D+00
EXPONENTS  0.2470000D+00 0.2470000D+00 0.3387000D+02 0.5095000D+01 0.1159000D+01
EXPONENTS  0.3258000D+00 0.1027000D+00 0.2526000D-01 0.1407000D+01 0.1407000D+01
EXPONENTS  0.1407000D+01 0.3880000D+00 0.3880000D+00 0.3880000D+00 0.1020000D+00
EXPONENTS  0.1020000D+00 0.1020000D+00 0.1057000D+01 0.1057000D+01 0.1057000D+01
EXPONENTS  0.1057000D+01 0.1057000D+01 0.1057000D+01 0.2470000D+00 0.2470000D+00
EXPONENTS  0.2470000D+00 0.2470000D+00 0.2470000D+00 0.2470000D+00 0.3387000D+02
EXPONENTS  0.5095000D+01 0.1159000D+01 0.3258000D+00 0.1027000D+00 0.2526000D-01
EXPONENTS  0.1407000D+01 0.1407000D+01 0.1407000D+01 0.3880000D+00 0.3880000D+00
EXPONENTS  0.3880000D+00 0.1020000D+00 0.1020000D+00 0.1020000D+00 0.1057000D+01
EXPONENTS  0.1057000D+01 0.1057000D+01 0.1057000D+01 0.1057000D+01 0.1057000D+01
EXPONENTS  0.2470000D+00 0.2470000D+00 0.2470000D+00 0.2470000D+00 0.2470000D+00
EXPONENTS  0.2470000D+00 0.3741000D+06 0.5605000D+05 0.1276000D+05 0.3615000D+04
EXPONENTS  0.1183000D+04 0.4288000D+03 0.1678000D+03 0.6947000D+02 0.2984000D+02
EXPONENTS  0.1272000D+02 0.5244000D+01 0.2219000D+01 0.3490000D+00 0.3741000D+06
EXPONENTS  0.5605000D+05 0.1276000D+05 0.3615000D+04 0.1183000D+04 0.4288000D+03
EXPONENTS  0.1678000D+03 0.6947000D+02 0.2984000D+02 0.1272000D+02 0.5244000D+01
EXPONENTS  0.2219000D+01 0.3490000D+00 0.3741000D+06 0.5605000D+05 0.1276000D+05
EXPONENTS  0.3615000D+04 0.1183000D+04 0.4288000D+03 0.1678000D+03 0.6947000D+02
EXPONENTS  0.2984000D+02 0.1272000D+02 0.5244000D+01 0.2219000D+01 0.3490000D+00
EXPONENTS  0.7767000D+00 0.1322000D+00 0.4970000D-01 0.5744000D+03 0.1358000D+03
EXPONENTS  0.4319000D+02 0.1587000D+02 0.6208000D+01 0.2483000D+01 0.3229000D+00
EXPONENTS  0.5744000D+03 0.1358000D+03 0.4319000D+02 0.1587000D+02 0.6208000D+01
EXPONENTS  0.2483000D+01 0.3229000D+00 0.5744000D+03 0.1358000D+03 0.4319000D+02
EXPONENTS  0.1587000D+02 0.6208000D+01 0.2483000D+01 0.3229000D+00 0.5744000D+03
EXPONENTS  0.1358000D+03 0.4319000D+02 0.1587000D+02 0.6208000D+01 0.2483000D+01
EXPONENTS  0.3229000D+00 0.5744000D+03 0.1358000D+03 0.4319000D+02 0.1587000D+02
EXPONENTS  0.6208000D+01 0.2483000D+01 0.3229000D+00 0.5744000D+03 0.1358000D+03
EXPONENTS  0.4319000D+02 0.1587000D+02 0.6208000D+01 0.2483000D+01 0.3229000D+00
EXPONENTS  0.8688000D+00 0.8688000D+00 0.8688000D+00 0.1098000D+00 0.1098000D+00
EXPONENTS  0.1098000D+00 0.3510000D-01 0.3510000D-01 0.3510000D-01 0.2690000D+00
EXPONENTS  0.2690000D+00 0.2690000D+00 0.2690000D+00 0.2690000D+00 0.2690000D+00
EXPONENTS  0.8190000D+00 0.8190000D+00 0.8190000D+00 0.8190000D+00 0.8190000D+00
EXPONENTS  0.8190000D+00 0.1010000D+00 0.1010000D+00 0.1010000D+00 0.1010000D+00
EXPONENTS  0.1010000D+00 0.1010000D+00 0.5570000D+00 0.5570000D+00 0.5570000D+00
EXPONENTS  0.5570000D+00 0.5570000D+00 0.5570000D+00 0.5570000D+00 0.5570000D+00
EXPONENTS  0.5570000D+00 0.5570000D+00 0.2180000D+00 0.2180000D+00 0.2180000D+00
EXPONENTS  0.2180000D+00 0.2180000D+00 0.2180000D+00 0.2180000D+00 0.2180000D+00
EXPONENTS  0.2180000D+00 0.2180000D+00 0.3387000D+02 0.5095000D+01 0.1159000D+01
EXPONENTS  0.3258000D+00 0.1027000D+00 0.2526000D-01 0.1407000D+01 0.1407000D+01
EXPONENTS  0.1407000D+01 0.3880000D+00 0.3880000D+00 0.3880000D+00 0.1020000D+00
EXPONENTS  0.1020000D+00 0.1020000D+00 0.1057000D+01 0.1057000D+01 0.1057000D+01
EXPONENTS  0.1057000D+01 0.1057000D+01 0.1057000D+01 0.2470000D+00 0.2470000D+00
EXPONENTS  0.2470000D+00 0.2470000D+00 0.2470000D+00 0.2470000D+00 0.3387000D+02
EXPONENTS  0.5095000D+01 0.1159000D+01 0.3258000D+00 0.1027000D+00 0.2526000D-01
EXPONENTS  0.1407000D+01 0.1407000D+01 0.1407000D+01 0.3880000D+00 0.3880000D+00
EXPONENTS  0.3880000D+00 0.1020000D+00 0.1020000D+00 0.1020000D+00 0.1057000D+01
EXPONENTS  0.1057000D+01 0.1057000D+01 0.1057000D+01 0.1057000D+01 0.1057000D+01
EXPONENTS  0.2470000D+00 0.2470000D+00 0.2470000D+00 0.2470000D+00 0.2470000D+00
EXPONENTS  0.2470000D+00 0.3387000D+02 0.5095000D+01 0.1159000D+01 0.3258000D+00
EXPONENTS  0.1027000D+00 0.2526000D-01 0.1407000D+01 0.1407000D+01 0.1407000D+01
EXPONENTS  0.3880000D+00 0.3880000D+00 0.3880000D+00 0.1020000D+00 0.1020000D+00
EXPONENTS  0.1020000D+00 0.1057000D+01 0.1057000D+01 0.1057000D+01 0.1057000D+01
EXPONENTS  0.1057000D+01 0.1057000D+01 0.2470000D+00 0.2470000D+00 0.2470000D+00
EXPONENTS  0.2470000D+00 0.2470000D+00 0.2470000D+00
MO    1     MO 0.0        OCC NO =    2.0000000  ORB. ENERGY =  -91.995409
  0.40584728D-05  0.75659161D-05  0.12787731D-04  0.19224148D-04  0.23619088D-04
  0.19950095D-04  0.75244419D-05 -0.37238883D-07 -0.29939667D-05 -0.56056503D-05
 -0.95440993D-05 -0.14763270D-04 -0.19442708D-04 -0.20202219D-04 -0.12837603D-04
  0.86034631D-05  0.17681369D-04 -0.92473130D-04 -0.89327832D-05 -0.12335308D-04
 -0.11565136D-04 -0.82350655D-05 -0.70389645D-05 -0.65994766D-05 -0.46992205D-05
  0.34813946D-05  0.32640287D-05  0.23241829D-05  0.14282545D-04  0.57163008D-05
 -0.44707900D-06  0.38061520D-05  0.11366410D-04 -0.72550314D-05  0.43765869D-06
  0.46051022D-06 -0.23525376D-06  0.59356759D-06  0.15202868D-07 -0.60877046D-06
 -0.40097083D-05  0.20989685D-05 -0.16688161D-05 -0.62269543D-05  0.24527855D-05
  0.37741689D-05 -0.72333988D-05  0.54757809D-05  0.49140103D-05 -0.43189152D-06
 -0.16836115D-06  0.60025267D-06 -0.64948318D-06  0.25233839D-06  0.17697520D-05
  0.15266770D-05 -0.22472352D-05  0.14945489D-05  0.44226709D-06  0.82870016D-05
 -0.35177184D-05 -0.50222982D-05 -0.15452958D-05 -0.96592832D-06 -0.66072995D-05
  0.83085983D-06 -0.15167689D-05  0.24939503D-05 -0.74115920D-06  0.46613285D-05
 -0.42315430D-05 -0.17514203D-05 -0.11102163D-06 -0.32503079D-05  0.40721655D-05
 -0.40904519D-05 -0.76255323D-05 -0.12888493D-04 -0.19375627D-04 -0.23805196D-04
 -0.20107294D-04 -0.75837314D-05  0.37532310D-07  0.29703970D-05  0.55615205D-05
  0.94689644D-05  0.14647048D-04  0.19289647D-04  0.20043179D-04  0.12736541D-04
 -0.85357333D-05 -0.58158296D-05  0.83049975D-05  0.47994436D-06 -0.34617628D-06
 -0.32456227D-06 -0.23110767D-06  0.98613884D-06  0.92456784D-06  0.65834738D-06
 -0.54877490D-07 -0.51451135D-07 -0.36636273D-07 -0.87576971D-05  0.37421517D-05
 -0.11466383D-04  0.63816398D-05 -0.89852163D-05 -0.38420576D-05  0.32810864D-06
 -0.34058228D-06 -0.22987129D-06 -0.12524464D-05  0.17944209D-05 -0.54197444D-06
 -0.10802265D-05 -0.69174438D-05  0.45445331D-05  0.22643212D-05 -0.81544464D-06
 -0.14488766D-05 -0.85004233D-05  0.14095278D-04 -0.11701022D-04 -0.30000805D-06
  0.43608179D-06 -0.13607374D-06 -0.10770240D-06 -0.57354906D-06  0.25746439D-06
 -0.16594300D-05  0.18346129D-05 -0.49578963D-07 -0.56742659D-06 -0.59107632D-06
  0.24711626D-05  0.55457166D-05 -0.49127623D-05 -0.23224257D-05 -0.19747083D-05
  0.31263541D-06 -0.12424950D-08  0.83332612D-06 -0.33014990D-05  0.10463934D-05
 -0.30672796D-06  0.23635928D-05 -0.10426659D-05 -0.21932504D-05 -0.23734960D-06
  0.92487960D-05  0.17238566D-04  0.29230896D-04  0.44242322D-04  0.55201501D-04
  0.47410727D-04  0.18201900D-04 -0.81418216D-07 -0.62301635D-05 -0.11684826D-04
 -0.19920067D-04 -0.31131187D-04 -0.41628329D-04 -0.44449350D-04 -0.27175461D-04
  0.17928719D-04  0.30254824D-05 -0.40474374D-04 -0.15008489D-04  0.41625926D-05
  0.40363146D-05  0.27228740D-05 -0.45887731D-05 -0.44495663D-05 -0.30016511D-05
 -0.19552849D-05 -0.18959687D-05 -0.12790093D-05 -0.20986531D-05  0.45933576D-05
  0.36787212D-05 -0.39717037D-04  0.36518485D-04 -0.27414018D-04 -0.18104055D-05
  0.16526574D-05 -0.16446869D-06  0.22605842D-05  0.21830602D-05 -0.44436444D-05
 -0.18514693D-04  0.37256830D-05  0.14733421D-05 -0.24738584D-05 -0.18127940D-05
  0.42866524D-05  0.24259146D-04 -0.12932816D-04  0.93919568D-05 -0.34914033D-05
 -0.39279890D-05  0.74193924D-05  0.15735189D-04 -0.46668989D-06  0.32953153D-05
 -0.13758169D-05  0.52117569D-06  0.92345906D-05 -0.43488663D-05 -0.11728293D-05
 -0.84136549D-05  0.84763171D-05 -0.39069777D-06 -0.19290117D-04  0.31019430D-04
  0.22828362D-05 -0.25778079D-05 -0.74059693D-06 -0.24273439D-05  0.64630102D-05
 -0.26668742D-05 -0.44211648D-05  0.12704135D-05  0.48886650D-05  0.38953844D-05
  0.17657195D-06  0.31845479D-06  0.46956140D-06 -0.16662533D-05 -0.66796497D-05
 -0.58614982D-06 -0.13246502D-05 -0.55516696D-06 -0.25064150D-05 -0.19063024D-05
  0.43642108D-06  0.12298263D-05  0.17648592D-05  0.88608081D-06  0.38543013D-06
 -0.59926656D-06  0.15430963D-05 -0.94382970D-06  0.11500099D-05 -0.52529590D-05
  0.17988666D-05 -0.11678739D-06 -0.40641994D-06  0.52320733D-06  0.66471062D-06
  0.96244938D-06 -0.39476800D-06 -0.11004238D-06 -0.19846597D-06 -0.29263795D-06
 -0.22969504D-04  0.14407150D-04  0.58991200D-06  0.10424883D-05  0.49262161D-06
  0.76595657D-06 -0.11034489D-04  0.67467934D-05 -0.29813765D-05  0.12934850D-05
 -0.18104443D-05  0.59891433D-06 -0.11716327D-05  0.19231105D-06  0.97932167D-06
  0.23406909D-05 -0.14363263D-05  0.11985094D-06 -0.33233318D-06 -0.15978409D-06
  0.49211727D-06  0.14392244D-05 -0.53153869D-06  0.60007647D-06  0.10094292D-06
  0.18205472D-06  0.26843958D-06 -0.51970069D-05 -0.95893629D-05 -0.27582061D-06
 -0.21337330D-07 -0.52341327D-06 -0.25537072D-05  0.13307729D-05  0.90519250D-06
  0.21431006D-05 -0.15924054D-05 -0.71612267D-06  0.63500246D-06  0.12745170D-05
 -0.25338367D-06 -0.10211333D-05  0.29162288D-05 -0.16166483D-05  0.29094109D-05
 -0.24999931D-07  0.94501093D-07 -0.69501162D-07  0.23925807D-06  0.77274725D-06
  0.56799686D-07  0.58448497D+00  0.10926607D+01  0.18884588D+01  0.30544974D+01
  0.46166939D+01  0.63579451D+01  0.74309638D+01  0.64209133D+01  0.29947369D+01
  0.40662057D+00  0.10888297D-02  0.21358337D-02  0.97509732D-04 -0.24504815D-04
 -0.45763786D-04 -0.79384368D-04 -0.12871901D-03 -0.19817757D-03 -0.28224937D-03
 -0.36293605D-03 -0.38097485D-03 -0.26937622D-03  0.59654491D-05  0.19355029D-03
  0.10657404D-03 -0.45069983D-06  0.11927098D-04  0.22257729D-04  0.38659012D-04
  0.62619022D-04  0.96728062D-04  0.13790039D-03  0.17936336D-03  0.19115299D-03
  0.14177420D-03 -0.44129043D-05 -0.12844004D-03 -0.12582691D-03  0.58768628D-04
 -0.43082940D-03  0.54210402D-04  0.10852314D-04 -0.75554006D-04 -0.99122741D-04
 -0.10872254D-03 -0.89458628D-04 -0.47164358D-04 -0.12269937D-04  0.13577936D-07
  0.18595635D-02  0.24396460D-02  0.26759198D-02  0.22017892D-02  0.11608268D-02
  0.30199227D-03 -0.33418524D-06 -0.13387005D-02 -0.17563021D-02 -0.19263958D-02
 -0.15850690D-02 -0.83567970D-03 -0.21740436D-03  0.24058009D-06  0.87042409D-04
  0.11428721D-03  0.12858082D-03  0.10833906D-03  0.60603353D-04  0.15084051D-04
 -0.69182726D-05 -0.92316661D-03 -0.12121234D-02 -0.13637205D-02 -0.11490377D-02
 -0.64275556D-03 -0.15998055D-03  0.73374788D-04  0.68234493D-03  0.89592305D-03
  0.10079738D-02  0.84929417D-03  0.47508325D-03  0.11824725D-03 -0.54233888D-04
  0.82472298D-06 -0.11338740D-03  0.81335286D-04  0.28037589D-05  0.57885758D-05
 -0.47857566D-05  0.21762637D-06  0.68445996D-07 -0.11835925D-08  0.73985258D-05
 -0.93607475D-06 -0.64624511D-05 -0.58318232D-05  0.78268757D-05 -0.17904046D-04
  0.64409706D-05 -0.79010179D-06 -0.56508688D-05 -0.77212338D-05  0.61497913D-05
 -0.13320370D-04  0.64230514D-06 -0.37891430D-06 -0.26339083D-06  0.21254754D-06
  0.50428157D-07  0.22900575D-06  0.37601944D-05 -0.40965387D-05  0.35170131D-05
 -0.58634426D-05  0.14034580D-04 -0.75379633D-05 -0.54171408D-05 -0.17449641D-05
 -0.30130760D-05  0.82416499D-05  0.79989910D-07 -0.19569581D-06  0.51576703D-06
 -0.10984225D-06  0.70078553D-06 -0.10606378D-05 -0.13012748D-06 -0.11369809D-06
 -0.48666325D-06  0.10978031D-05 -0.70554048D-06 -0.12724713D-05 -0.18762582D-05
  0.32534721D-04  0.26649942D-04  0.48738495D-06 -0.29912918D-05  0.17809575D-05
 -0.11240309D-05 -0.32277661D-05  0.16998952D-05 -0.20515692D-05 -0.28572845D-05
  0.11236496D-05 -0.15256311D-05  0.31941519D-05 -0.14200504D-05 -0.17741015D-05
  0.29301062D-05 -0.10891094D-05 -0.76537333D-06 -0.11412991D-05  0.66399950D-06
  0.47729955D-06  0.22732147D-05 -0.13321181D-05  0.22552636D-06 -0.89080467D-06
 -0.16066029D-05 -0.23689350D-05  0.21197586D-04  0.50273966D-05 -0.16454112D-06
  0.24669771D-05 -0.47777617D-06 -0.15102532D-05 -0.33922985D-05 -0.54691815D-05
 -0.15054198D-05 -0.10653535D-05  0.64385275D-07 -0.13445933D-05  0.52211706D-06
  0.20696147D-05 -0.25917318D-05  0.75070009D-05 -0.24933664D-05  0.20617572D-05
  0.12744807D-05 -0.13210444D-05  0.46563631D-07  0.75449552D-06 -0.95751370D-06
 -0.57283078D-06 -0.88009874D-06 -0.15872943D-05 -0.23404645D-05  0.26016198D-04
  0.42460540D-05 -0.90669396D-07  0.22565989D-05  0.91977385D-06  0.79565828D-06
 -0.30414865D-05  0.12381162D-05  0.74211777D-05 -0.63187070D-06  0.10252243D-05
  0.61361344D-06  0.37998573D-06 -0.25218467D-05  0.21418610D-05  0.39467026D-05
 -0.39797529D-05 -0.74354148D-06  0.59935141D-06  0.37817564D-06 -0.97752705D-06
  0.15381403D-05  0.78931327D-07  0.81066298D-06
MO    2     MO 0.0        OCC NO =    2.0000000  ORB. ENERGY =  -20.585743
  0.15241016D-05  0.28412718D-05  0.48022500D-05  0.72193547D-05  0.88698114D-05
  0.74919737D-05  0.28256968D-05 -0.13984531D-07  0.13747865D-06  0.25740341D-06
  0.43825133D-06  0.67790817D-06  0.89278122D-06  0.92765687D-06  0.58948430D-06
 -0.39505867D-06 -0.61432623D-05 -0.11498031D-03  0.10821469D-04  0.70180482D-04
  0.65798663D-04  0.46852568D-04 -0.16526048D-04 -0.15494220D-04 -0.11032808D-04
  0.16404911D-04  0.15380646D-04  0.10951937D-04 -0.18103682D-03  0.28687700D-04
 -0.44302700D-04  0.25841674D-04  0.34716747D-04 -0.24702698D-04  0.21207669D-05
  0.13088771D-05  0.10642192D-05  0.90961230D-05  0.89216823D-07 -0.91853398D-05
  0.64642837D-04 -0.67284436D-04 -0.21697423D-04  0.59389362D-04 -0.33516167D-04
 -0.25873196D-04  0.23742206D-04  0.14471711D-04  0.57619259D-04  0.47427294D-05
 -0.70065889D-05  0.22638595D-05 -0.95762629D-06 -0.77050487D-05  0.21941699D-04
 -0.28271635D-04 -0.17997521D-04  0.14318150D-04  0.36936292D-04  0.55704782D-04
 -0.46072636D-04  0.47878613D-04 -0.17122177D-05  0.31181864D-05  0.52616690D-04
  0.14983276D-04  0.68947624D-05  0.25392402D-05 -0.15359979D-05 -0.34240501D-04
  0.29531671D-04 -0.43413830D-04  0.13556214D-04 -0.37149392D-04 -0.35686997D-04
  0.12216307D-03  0.22773973D-03  0.38492027D-03  0.57866125D-03  0.71095220D-03
  0.60051279D-03  0.22649133D-03 -0.11209182D-05 -0.91489922D-04 -0.17129800D-03
 -0.29164950D-03 -0.45113743D-03 -0.59413213D-03 -0.61734134D-03 -0.39229271D-03
  0.26290545D-03 -0.10384419D-03 -0.12610430D-02  0.43400742D-04 -0.95112638D-04
 -0.89174143D-04 -0.63497302D-04 -0.28561852D-04 -0.26778551D-04 -0.19067924D-04
 -0.30783097D-03 -0.28861110D-03 -0.20550830D-03  0.30033440D-03  0.54134690D-04
  0.85632271D-03  0.13039323D-04 -0.11082063D-04  0.93446525D-04 -0.18610967D-06
  0.89475942D-06  0.20330247D-05 -0.18920481D-03 -0.20560987D-03  0.39481469D-03
  0.50582664D-04  0.25832157D-03  0.23163644D-03 -0.27409462D-03 -0.28174496D-03
  0.55583958D-03  0.16500688D-03  0.27686536D-03  0.28435325D-03 -0.68048701D-05
 -0.46969971D-05  0.11501867D-04  0.14920053D-04  0.10259272D-04 -0.14778542D-05
 -0.11464415D-03 -0.34710274D-04  0.22030643D-03  0.15876644D-04 -0.13474368D-03
 -0.28502884D-03  0.32805581D-03  0.23887450D-03 -0.37589046D-03  0.83064864D-04
 -0.49211446D-04  0.23520781D-04  0.30635948D-04  0.14055088D-03 -0.11631960D-03
 -0.85984513D-06  0.70834533D-05  0.45757262D-04 -0.91047999D-04  0.36815388D-04
  0.49817030D+00  0.92852533D+00  0.15744713D+01  0.23830357D+01  0.29733327D+01
  0.25536963D+01  0.98041366D+00 -0.43854505D-02  0.34018503D-03  0.63802545D-03
  0.10876935D-02  0.16998533D-02  0.22730277D-02  0.24270637D-02  0.14838591D-02
 -0.97896013D-03  0.47303697D-01  0.29404416D-03 -0.14291710D-03  0.38280394D-02
  0.37119105D-02  0.25040329D-02 -0.63775106D-02 -0.61840400D-02 -0.41717169D-02
 -0.51206520D-02 -0.49653100D-02 -0.33495688D-02 -0.48793956D-03  0.10452277D-02
  0.13550409D-02  0.79689976D-04 -0.10086887D-04  0.13140435D-03  0.12087408D-04
 -0.93867077D-07  0.37361530D-04 -0.12614509D-03 -0.14112996D-03  0.26727505D-03
  0.33094780D-03  0.51157821D-04  0.20963770D-03  0.21312309D-03  0.25091755D-03
 -0.46404064D-03  0.32850970D-03 -0.55677528D-03 -0.13328718D-03  0.20109583D-04
  0.14680244D-04 -0.34789827D-04 -0.38299920D-04 -0.14668203D-04 -0.33415341D-04
 -0.94735150D-04  0.90715311D-05  0.81917128D-04  0.41317625D-04 -0.94460251D-04
 -0.68730842D-04  0.24288783D-03  0.67245658D-04 -0.17702054D-03 -0.99526263D-04
  0.20685193D-04 -0.41456191D-04  0.55223980D-04 -0.55204005D-04  0.30416339D-04
 -0.11793158D-03 -0.68515740D-05  0.93952233D-04 -0.47740356D-04  0.14295772D-03
  0.10740977D-05  0.19371795D-05  0.28563700D-05  0.60407512D-03  0.28648306D-03
  0.31034271D-05 -0.29814176D-04  0.87694540D-06  0.16511393D-04  0.37974384D-05
  0.50776518D-05  0.32276228D-03 -0.31913487D-04 -0.16425888D-04  0.58043075D-04
 -0.65770019D-04 -0.15527191D-04  0.81297211D-04 -0.44064568D-04 -0.52272312D-04
 -0.47413084D-04 -0.25696170D-04 -0.12999319D-04  0.38695489D-04  0.73184341D-05
 -0.67569698D-06  0.74584837D-05  0.22876049D-05  0.41257897D-05  0.60834745D-05
  0.87592264D-03  0.33338010D-03 -0.10556180D-05  0.37451831D-04 -0.51484558D-04
 -0.27220898D-04  0.23681118D-03 -0.11310516D-03  0.37891169D-03  0.38071082D-04
 -0.24128107D-04  0.58500743D-04  0.18314471D-04 -0.11929636D-04 -0.63848345D-05
 -0.47342649D-04  0.11554553D-03 -0.10108142D-03 -0.63517596D-05 -0.14774600D-04
  0.21126359D-04 -0.62380931D-05  0.37858986D-04 -0.13109617D-04  0.18377201D-05
  0.33144039D-05  0.48870866D-05  0.63884078D-03  0.19991779D-03 -0.55439797D-06
  0.14774796D-04  0.42002843D-04 -0.19313899D-05  0.99696864D-04  0.14119130D-03
  0.29262851D-03  0.26059322D-04  0.33609202D-04  0.30010824D-04  0.71971442D-05
 -0.17739826D-04  0.10542682D-04  0.15063903D-04  0.94168049D-04  0.12570853D-03
 -0.10548656D-04 -0.11142225D-04  0.21690882D-04  0.11758175D-04  0.22893738D-04
  0.35413297D-04  0.21399845D-04  0.40005767D-04  0.69142456D-04  0.11183482D-03
  0.16903178D-03  0.23278450D-03  0.27207111D-03  0.23508997D-03  0.10964680D-03
  0.14887666D-04  0.39865502D-07  0.78199636D-07  0.35701400D-08 -0.32520413D-04
 -0.60733255D-04 -0.10535123D-03 -0.17082337D-03 -0.26300203D-03 -0.37457397D-03
 -0.48165350D-03 -0.50559285D-03 -0.35748997D-03  0.79167651D-05  0.25686117D-03
  0.14143473D-03 -0.59812507D-06  0.16186114D-04  0.30205684D-04  0.52463658D-04
  0.84979485D-04  0.13126843D-03  0.18714288D-03  0.24341175D-03  0.25941131D-03
  0.19239998D-03 -0.59886968D-05 -0.17430436D-03 -0.17075811D-03  0.79754164D-04
 -0.18912601D-03  0.39020211D-04 -0.71348556D-04 -0.23059641D-02 -0.30252993D-02
 -0.33182922D-02 -0.27303434D-02 -0.14394910D-02 -0.37448753D-03  0.41440864D-06
  0.20296550D-02  0.26627969D-02  0.29206823D-02  0.24031837D-02  0.12670060D-02
  0.32961507D-03 -0.36475268D-06 -0.52618774D-03 -0.69032966D-03 -0.75718642D-03
 -0.62302499D-03 -0.32847109D-03 -0.85452654D-04  0.94562073D-07  0.22557721D-02
  0.29618425D-02  0.33322725D-02  0.28076915D-02  0.15705833D-02  0.39091498D-03
 -0.17929245D-03 -0.20549599D-02 -0.26981748D-02 -0.30356286D-02 -0.25577466D-02
 -0.14307676D-02 -0.35611514D-03  0.16333156D-03  0.63452087D-03  0.83312976D-03
  0.93732716D-03  0.78976900D-03  0.44178571D-03  0.10995956D-03 -0.50432754D-04
  0.20521024D-03 -0.15648018D-03  0.58155772D-04  0.14961358D-04 -0.48997223D-04
  0.42431144D-05  0.16281276D-05 -0.50323568D-05  0.58210865D-06  0.20127661D-04
  0.97018290D-05 -0.29829490D-04 -0.19965169D-03  0.11925770D-03 -0.66581746D-04
  0.20466915D-04  0.29532477D-04 -0.49999392D-04 -0.77995639D-04  0.86857656D-05
 -0.97345627D-04  0.10279136D-05 -0.53607913D-05  0.43328777D-05 -0.18308648D-05
  0.24655768D-05  0.30904286D-05  0.29958814D-04 -0.39557882D-04  0.67288780D-04
 -0.15016922D-03  0.16563692D-03 -0.10396304D-03  0.60292773D-04 -0.46963275D-04
 -0.97903299D-04  0.36280996D-03  0.14588363D-04  0.23328566D-05 -0.14617517D-05
 -0.25007747D-04 -0.13324450D-04  0.10501648D-04 -0.18757342D-04  0.63258801D-05
 -0.61163925D-05  0.27017173D-04 -0.88517745D-05 -0.15964540D-04 -0.23539705D-04
  0.93919415D-04  0.96408358D-04 -0.40406979D-05  0.14045177D-04  0.35975981D-04
 -0.36851731D-04 -0.17228990D-03 -0.82856715D-05  0.22918396D-04 -0.26597445D-04
 -0.84356029D-05  0.21247573D-06  0.44284322D-04 -0.17494178D-04 -0.26790144D-04
 -0.56109618D-04  0.38029855D-04 -0.39304817D-04  0.57612455D-05 -0.43972749D-05
 -0.13639707D-05 -0.15662121D-04  0.16798425D-04  0.11328131D-04 -0.27158302D-05
 -0.48981116D-05 -0.72222627D-05  0.65784602D-04  0.22365132D-04 -0.11081874D-05
  0.23326857D-04  0.93593809D-05 -0.10652541D-04 -0.63074764D-05 -0.43010856D-04
  0.30726288D-06 -0.10515073D-04 -0.22439011D-06 -0.19827792D-04  0.92272682D-05
  0.34446297D-05 -0.12671898D-04 -0.12019918D-05  0.36534993D-04  0.33863892D-04
  0.77731494D-05 -0.17512393D-05 -0.60219101D-05  0.25003320D-05  0.12269918D-04