 Molden2AIM, Version 4.0.0 (06/02/2016)           Time: Wed Jun 27 21:59:36 2018
GAUSSIAN             30 MOL ORBITALS    650 PRIMITIVES       10 NUCLEI
  N    1    (CENTRE  1)  -1.75653823  0.70194633  0.00000000  CHARGE =  7.0
  Br   2    (CENTRE  2)   1.24225871 -1.34437573  0.00000000  CHARGE = 35.0
  C    3    (CENTRE  3)  -1.74049067  2.25287479  2.27228795  CHARGE =  6.0
  H    4    (CENTRE  4)  -3.51638159  3.33492252  2.27219157  CHARGE =  1.0
  H    5    (CENTRE  5)  -1.71263044  1.03875410  3.94817834  CHARGE =  1.0
  H    6    (CENTRE  6)  -0.13957706  3.59129033  2.36040399  CHARGE =  1.0
  C    7    (CENTRE  7)  -1.74049067  2.25287479 -2.27228795  CHARGE =  6.0
  H    8    (CENTRE  8)  -1.71263044  1.03875410 -3.94817834  CHARGE =  1.0
  H    9    (CENTRE  9)  -3.51638159  3.33492252 -2.27219157  CHARGE =  1.0
  H   10    (CENTRE 10)  -0.13957706  3.59129033 -2.36040399  CHARGE =  1.0
CENTRE ASSIGNMENTS    1  1  1  1  1  1  1  1  1  1  1  1  1  1  1  1  1  1  1  1
CENTRE ASSIGNMENTS    1  1  1  1  1  1  1  1  1  1  1  1  1  1  1  1  1  1  1  1
CENTRE ASSIGNMENTS    1  1  1  1  1  1  1  1  1  1  1  1  1  1  1  1  1  1  1  1
CENTRE ASSIGNMENTS    1  1  1  1  1  1  1  1  1  1  1  1  1  1  1  2  2  2  2  2
CENTRE ASSIGNMENTS    2  2  2  2  2  2  2  2  2  2  2  2  2  2  2  2  2  2  2  2
CENTRE ASSIGNMENTS    2  2  2  2  2  2  2  2  2  2  2  2  2  2  2  2  2  2  2  2
CENTRE ASSIGNMENTS    2  2  2  2  2  2  2  2  2  2  2  2  2  2  2  2  2  2  2  2
CENTRE ASSIGNMENTS    2  2  2  2  2  2  2  2  2  2  2  2  2  2  2  2  2  2  2  2
CENTRE ASSIGNMENTS    2  2  2  2  2  2  2  2  2  2  2  2  2  2  2  2  2  2  2  2
CENTRE ASSIGNMENTS    2  2  2  2  2  2  2  2  2  2  2  2  2  2  2  2  2  2  2  2
CENTRE ASSIGNMENTS    2  2  2  2  2  2  2  2  2  2  2  2  2  2  2  2  2  2  2  2
CENTRE ASSIGNMENTS    2  2  2  2  2  2  2  2  2  2  2  2  2  2  2  2  2  2  2  2
CENTRE ASSIGNMENTS    2  2  2  2  2  2  2  2  2  2  2  2  2  2  2  2  2  2  2  2
CENTRE ASSIGNMENTS    2  2  2  2  2  2  2  2  2  2  2  2  2  2  2  2  2  2  2  2
CENTRE ASSIGNMENTS    2  2  2  2  2  2  2  2  2  2  2  2  2  2  2  2  2  2  2  2
CENTRE ASSIGNMENTS    2  2  2  2  2  2  2  2  2  2  2  2  2  2  2  2  2  2  2  2
CENTRE ASSIGNMENTS    2  2  2  2  2  2  2  2  2  2  2  2  2  2  2  2  2  2  3  3
CENTRE ASSIGNMENTS    3  3  3  3  3  3  3  3  3  3  3  3  3  3  3  3  3  3  3  3
CENTRE ASSIGNMENTS    3  3  3  3  3  3  3  3  3  3  3  3  3  3  3  3  3  3  3  3
CENTRE ASSIGNMENTS    3  3  3  3  3  3  3  3  3  3  3  3  3  3  3  3  3  3  3  3
CENTRE ASSIGNMENTS    3  3  3  3  3  3  3  3  3  3  3  3  3  4  4  4  4  4  4  4
CENTRE ASSIGNMENTS    4  4  4  4  4  4  4  4  4  4  4  4  4  4  4  4  4  4  4  4
CENTRE ASSIGNMENTS    5  5  5  5  5  5  5  5  5  5  5  5  5  5  5  5  5  5  5  5
CENTRE ASSIGNMENTS    5  5  5  5  5  5  5  6  6  6  6  6  6  6  6  6  6  6  6  6
CENTRE ASSIGNMENTS    6  6  6  6  6  6  6  6  6  6  6  6  6  6  7  7  7  7  7  7
CENTRE ASSIGNMENTS    7  7  7  7  7  7  7  7  7  7  7  7  7  7  7  7  7  7  7  7
CENTRE ASSIGNMENTS    7  7  7  7  7  7  7  7  7  7  7  7  7  7  7  7  7  7  7  7
CENTRE ASSIGNMENTS    7  7  7  7  7  7  7  7  7  7  7  7  7  7  7  7  7  7  7  7
CENTRE ASSIGNMENTS    7  7  7  7  7  7  7  7  7  8  8  8  8  8  8  8  8  8  8  8
CENTRE ASSIGNMENTS    8  8  8  8  8  8  8  8  8  8  8  8  8  8  8  8  9  9  9  9
CENTRE ASSIGNMENTS    9  9  9  9  9  9  9  9  9  9  9  9  9  9  9  9  9  9  9  9
CENTRE ASSIGNMENTS    9  9  9 10 10 10 10 10 10 10 10 10 10 10 10 10 10 10 10 10
CENTRE ASSIGNMENTS   10 10 10 10 10 10 10 10 10 10
TYPE ASSIGNMENTS      1  1  1  1  1  1  1  1  1  1  1  1  1  1  1  1  1  1  1  2
TYPE ASSIGNMENTS      2  2  3  3  3  4  4  4  2  3  4  2  3  4  2  3  4  5  6  7
TYPE ASSIGNMENTS      8  9 10  5  6  7  8  9 10  5  6  7  8  9 10 11 12 13 17 14
TYPE ASSIGNMENTS     15 18 19 16 20 11 12 13 17 14 15 18 19 16 20  1  1  1  1  1
TYPE ASSIGNMENTS      1  1  1  1  1  1  1  1  1  1  1  1  1  1  1  1  1  1  1  1
TYPE ASSIGNMENTS      1  1  1  1  1  1  1  1  1  1  1  1  1  1  1  1  1  1  1  1
TYPE ASSIGNMENTS      1  1  1  1  1  1  1  1  1  1  1  1  1  1  1  1  1  1  1  1
TYPE ASSIGNMENTS      1  1  1  1  1  1  1  1  1  1  2  2  2  2  2  2  2  2  2  2
TYPE ASSIGNMENTS      2  3  3  3  3  3  3  3  3  3  3  3  4  4  4  4  4  4  4  4
TYPE ASSIGNMENTS      4  4  4  2  2  2  2  2  2  2  2  2  2  2  3  3  3  3  3  3
TYPE ASSIGNMENTS      3  3  3  3  3  4  4  4  4  4  4  4  4  4  4  4  2  2  2  2
TYPE ASSIGNMENTS      2  2  2  2  2  2  2  3  3  3  3  3  3  3  3  3  3  3  4  4
TYPE ASSIGNMENTS      4  4  4  4  4  4  4  4  4  2  3  4  2  3  4  2  3  4  5  5
TYPE ASSIGNMENTS      5  5  5  5  5  6  6  6  6  6  6  6  7  7  7  7  7  7  7  8
TYPE ASSIGNMENTS      8  8  8  8  8  8  9  9  9  9  9  9  9 10 10 10 10 10 10 10
TYPE ASSIGNMENTS      5  6  7  8  9 10  5  6  7  8  9 10  5  6  7  8  9 10 11 12
TYPE ASSIGNMENTS     13 17 14 15 18 19 16 20 11 12 13 17 14 15 18 19 16 20  1  1
TYPE ASSIGNMENTS      1  1  1  1  1  1  1  1  1  1  1  1  1  1  1  1  1  2  2  2
TYPE ASSIGNMENTS      3  3  3  4  4  4  2  3  4  2  3  4  2  3  4  5  6  7  8  9
TYPE ASSIGNMENTS     10  5  6  7  8  9 10  5  6  7  8  9 10 11 12 13 17 14 15 18
TYPE ASSIGNMENTS     19 16 20 11 12 13 17 14 15 18 19 16 20  1  1  1  1  1  1  2
TYPE ASSIGNMENTS      3  4  2  3  4  2  3  4  5  6  7  8  9 10  5  6  7  8  9 10
TYPE ASSIGNMENTS      1  1  1  1  1  1  2  3  4  2  3  4  2  3  4  5  6  7  8  9
TYPE ASSIGNMENTS     10  5  6  7  8  9 10  1  1  1  1  1  1  2  3  4  2  3  4  2
TYPE ASSIGNMENTS      3  4  5  6  7  8  9 10  5  6  7  8  9 10  1  1  1  1  1  1
TYPE ASSIGNMENTS      1  1  1  1  1  1  1  1  1  1  1  1  1  2  2  2  3  3  3  4
TYPE ASSIGNMENTS      4  4  2  3  4  2  3  4  2  3  4  5  6  7  8  9 10  5  6  7
TYPE ASSIGNMENTS      8  9 10  5  6  7  8  9 10 11 12 13 17 14 15 18 19 16 20 11
TYPE ASSIGNMENTS     12 13 17 14 15 18 19 16 20  1  1  1  1  1  1  2  3  4  2  3
TYPE ASSIGNMENTS      4  2  3  4  5  6  7  8  9 10  5  6  7  8  9 10  1  1  1  1
TYPE ASSIGNMENTS      1  1  2  3  4  2  3  4  2  3  4  5  6  7  8  9 10  5  6  7
TYPE ASSIGNMENTS      8  9 10  1  1  1  1  1  1  2  3  4  2  3  4  2  3  4  5  6
TYPE ASSIGNMENTS      7  8  9 10  5  6  7  8  9 10
EXPONENTS  0.1142000D+05 0.1712000D+04 0.3893000D+03 0.1100000D+03 0.3557000D+02
EXPONENTS  0.1254000D+02 0.4644000D+01 0.5118000D+00 0.1142000D+05 0.1712000D+04
EXPONENTS  0.3893000D+03 0.1100000D+03 0.3557000D+02 0.1254000D+02 0.4644000D+01
EXPONENTS  0.5118000D+00 0.1293000D+01 0.1787000D+00 0.5760000D-01 0.2663000D+02
EXPONENTS  0.5948000D+01 0.1742000D+01 0.2663000D+02 0.5948000D+01 0.1742000D+01
EXPONENTS  0.2663000D+02 0.5948000D+01 0.1742000D+01 0.5550000D+00 0.5550000D+00
EXPONENTS  0.5550000D+00 0.1725000D+00 0.1725000D+00 0.1725000D+00 0.4910000D-01
EXPONENTS  0.4910000D-01 0.4910000D-01 0.1654000D+01 0.1654000D+01 0.1654000D+01
EXPONENTS  0.1654000D+01 0.1654000D+01 0.1654000D+01 0.4690000D+00 0.4690000D+00
EXPONENTS  0.4690000D+00 0.4690000D+00 0.4690000D+00 0.4690000D+00 0.1510000D+00
EXPONENTS  0.1510000D+00 0.1510000D+00 0.1510000D+00 0.1510000D+00 0.1510000D+00
EXPONENTS  0.1093000D+01 0.1093000D+01 0.1093000D+01 0.1093000D+01 0.1093000D+01
EXPONENTS  0.1093000D+01 0.1093000D+01 0.1093000D+01 0.1093000D+01 0.1093000D+01
EXPONENTS  0.3640000D+00 0.3640000D+00 0.3640000D+00 0.3640000D+00 0.3640000D+00
EXPONENTS  0.3640000D+00 0.3640000D+00 0.3640000D+00 0.3640000D+00 0.3640000D+00
EXPONENTS  0.1063900D+08 0.1593400D+07 0.3626100D+06 0.1027000D+06 0.3350100D+05
EXPONENTS  0.1209300D+05 0.4715900D+04 0.1955600D+04 0.8526100D+03 0.3876700D+03
EXPONENTS  0.1826800D+03 0.8824500D+02 0.3926300D+02 0.1923400D+02 0.9405700D+01
EXPONENTS  0.4160100D+01 0.1899500D+01 0.3011400D+00 0.1063900D+08 0.1593400D+07
EXPONENTS  0.3626100D+06 0.1027000D+06 0.3350100D+05 0.1209300D+05 0.4715900D+04
EXPONENTS  0.1955600D+04 0.8526100D+03 0.3876700D+03 0.1826800D+03 0.8824500D+02
EXPONENTS  0.3926300D+02 0.1923400D+02 0.9405700D+01 0.4160100D+01 0.1899500D+01
EXPONENTS  0.3011400D+00 0.1063900D+08 0.1593400D+07 0.3626100D+06 0.1027000D+06
EXPONENTS  0.3350100D+05 0.1209300D+05 0.4715900D+04 0.1955600D+04 0.8526100D+03
EXPONENTS  0.3876700D+03 0.1826800D+03 0.8824500D+02 0.3926300D+02 0.1923400D+02
EXPONENTS  0.9405700D+01 0.4160100D+01 0.1899500D+01 0.3011400D+00 0.1063900D+08
EXPONENTS  0.1593400D+07 0.3626100D+06 0.1027000D+06 0.3350100D+05 0.1209300D+05
EXPONENTS  0.4715900D+04 0.1955600D+04 0.8526100D+03 0.3876700D+03 0.1826800D+03
EXPONENTS  0.8824500D+02 0.3926300D+02 0.1923400D+02 0.9405700D+01 0.4160100D+01
EXPONENTS  0.1899500D+01 0.3011400D+00 0.6047200D+00 0.1251500D+00 0.4559300D-01
EXPONENTS  0.8676500D+04 0.2055900D+04 0.6662300D+03 0.2531000D+03 0.1061200D+03
EXPONENTS  0.4724200D+02 0.2182500D+02 0.9968400D+01 0.4517100D+01 0.1998200D+01
EXPONENTS  0.2814500D+00 0.8676500D+04 0.2055900D+04 0.6662300D+03 0.2531000D+03
EXPONENTS  0.1061200D+03 0.4724200D+02 0.2182500D+02 0.9968400D+01 0.4517100D+01
EXPONENTS  0.1998200D+01 0.2814500D+00 0.8676500D+04 0.2055900D+04 0.6662300D+03
EXPONENTS  0.2531000D+03 0.1061200D+03 0.4724200D+02 0.2182500D+02 0.9968400D+01
EXPONENTS  0.4517100D+01 0.1998200D+01 0.2814500D+00 0.8676500D+04 0.2055900D+04
EXPONENTS  0.6662300D+03 0.2531000D+03 0.1061200D+03 0.4724200D+02 0.2182500D+02
EXPONENTS  0.9968400D+01 0.4517100D+01 0.1998200D+01 0.2814500D+00 0.8676500D+04
EXPONENTS  0.2055900D+04 0.6662300D+03 0.2531000D+03 0.1061200D+03 0.4724200D+02
EXPONENTS  0.2182500D+02 0.9968400D+01 0.4517100D+01 0.1998200D+01 0.2814500D+00
EXPONENTS  0.8676500D+04 0.2055900D+04 0.6662300D+03 0.2531000D+03 0.1061200D+03
EXPONENTS  0.4724200D+02 0.2182500D+02 0.9968400D+01 0.4517100D+01 0.1998200D+01
EXPONENTS  0.2814500D+00 0.8676500D+04 0.2055900D+04 0.6662300D+03 0.2531000D+03
EXPONENTS  0.1061200D+03 0.4724200D+02 0.2182500D+02 0.9968400D+01 0.4517100D+01
EXPONENTS  0.1998200D+01 0.2814500D+00 0.8676500D+04 0.2055900D+04 0.6662300D+03
EXPONENTS  0.2531000D+03 0.1061200D+03 0.4724200D+02 0.2182500D+02 0.9968400D+01
EXPONENTS  0.4517100D+01 0.1998200D+01 0.2814500D+00 0.8676500D+04 0.2055900D+04
EXPONENTS  0.6662300D+03 0.2531000D+03 0.1061200D+03 0.4724200D+02 0.2182500D+02
EXPONENTS  0.9968400D+01 0.4517100D+01 0.1998200D+01 0.2814500D+00 0.7098800D+00
EXPONENTS  0.7098800D+00 0.7098800D+00 0.1020400D+00 0.1020400D+00 0.1020400D+00
EXPONENTS  0.3514200D-01 0.3514200D-01 0.3514200D-01 0.4038300D+03 0.1211700D+03
EXPONENTS  0.4634500D+02 0.1972100D+02 0.8862400D+01 0.3996200D+01 0.1763600D+01
EXPONENTS  0.4038300D+03 0.1211700D+03 0.4634500D+02 0.1972100D+02 0.8862400D+01
EXPONENTS  0.3996200D+01 0.1763600D+01 0.4038300D+03 0.1211700D+03 0.4634500D+02
EXPONENTS  0.1972100D+02 0.8862400D+01 0.3996200D+01 0.1763600D+01 0.4038300D+03
EXPONENTS  0.1211700D+03 0.4634500D+02 0.1972100D+02 0.8862400D+01 0.3996200D+01
EXPONENTS  0.1763600D+01 0.4038300D+03 0.1211700D+03 0.4634500D+02 0.1972100D+02
EXPONENTS  0.8862400D+01 0.3996200D+01 0.1763600D+01 0.4038300D+03 0.1211700D+03
EXPONENTS  0.4634500D+02 0.1972100D+02 0.8862400D+01 0.3996200D+01 0.1763600D+01
EXPONENTS  0.7061900D+00 0.7061900D+00 0.7061900D+00 0.7061900D+00 0.7061900D+00
EXPONENTS  0.7061900D+00 0.2639000D+00 0.2639000D+00 0.2639000D+00 0.2639000D+00
EXPONENTS  0.2639000D+00 0.2639000D+00 0.1047000D+00 0.1047000D+00 0.1047000D+00
EXPONENTS  0.1047000D+00 0.1047000D+00 0.1047000D+00 0.5515000D+00 0.5515000D+00
EXPONENTS  0.5515000D+00 0.5515000D+00 0.5515000D+00 0.5515000D+00 0.5515000D+00
EXPONENTS  0.5515000D+00 0.5515000D+00 0.5515000D+00 0.2580000D+00 0.2580000D+00
EXPONENTS  0.2580000D+00 0.2580000D+00 0.2580000D+00 0.2580000D+00 0.2580000D+00
EXPONENTS  0.2580000D+00 0.2580000D+00 0.2580000D+00 0.8236000D+04 0.1235000D+04
EXPONENTS  0.2808000D+03 0.7927000D+02 0.2559000D+02 0.8997000D+01 0.3319000D+01
EXPONENTS  0.3643000D+00 0.8236000D+04 0.1235000D+04 0.2808000D+03 0.7927000D+02
EXPONENTS  0.2559000D+02 0.8997000D+01 0.3319000D+01 0.3643000D+00 0.9059000D+00
EXPONENTS  0.1285000D+00 0.4402000D-01 0.1871000D+02 0.4133000D+01 0.1200000D+01
EXPONENTS  0.1871000D+02 0.4133000D+01 0.1200000D+01 0.1871000D+02 0.4133000D+01
EXPONENTS  0.1200000D+01 0.3827000D+00 0.3827000D+00 0.3827000D+00 0.1209000D+00
EXPONENTS  0.1209000D+00 0.1209000D+00 0.3569000D-01 0.3569000D-01 0.3569000D-01
EXPONENTS  0.1097000D+01 0.1097000D+01 0.1097000D+01 0.1097000D+01 0.1097000D+01
EXPONENTS  0.1097000D+01 0.3180000D+00 0.3180000D+00 0.3180000D+00 0.3180000D+00
EXPONENTS  0.3180000D+00 0.3180000D+00 0.1000000D+00 0.1000000D+00 0.1000000D+00
EXPONENTS  0.1000000D+00 0.1000000D+00 0.1000000D+00 0.7610000D+00 0.7610000D+00
EXPONENTS  0.7610000D+00 0.7610000D+00 0.7610000D+00 0.7610000D+00 0.7610000D+00
EXPONENTS  0.7610000D+00 0.7610000D+00 0.7610000D+00 0.2680000D+00 0.2680000D+00
EXPONENTS  0.2680000D+00 0.2680000D+00 0.2680000D+00 0.2680000D+00 0.2680000D+00
EXPONENTS  0.2680000D+00 0.2680000D+00 0.2680000D+00 0.3387000D+02 0.5095000D+01
EXPONENTS  0.1159000D+01 0.3258000D+00 0.1027000D+00 0.2526000D-01 0.1407000D+01
EXPONENTS  0.1407000D+01 0.1407000D+01 0.3880000D+00 0.3880000D+00 0.3880000D+00
EXPONENTS  0.1020000D+00 0.1020000D+00 0.1020000D+00 0.1057000D+01 0.1057000D+01
EXPONENTS  0.1057000D+01 0.1057000D+01 0.1057000D+01 0.1057000D+01 0.2470000D+00
EXPONENTS  0.2470000D+00 0.2470000D+00 0.2470000D+00 0.2470000D+00 0.2470000D+00
EXPONENTS  0.3387000D+02 0.5095000D+01 0.1159000D+01 0.3258000D+00 0.1027000D+00
EXPONENTS  0.2526000D-01 0.1407000D+01 0.1407000D+01 0.1407000D+01 0.3880000D+00
EXPONENTS  0.3880000D+00 0.3880000D+00 0.1020000D+00 0.1020000D+00 0.1020000D+00
EXPONENTS  0.1057000D+01 0.1057000D+01 0.1057000D+01 0.1057000D+01 0.1057000D+01
EXPONENTS  0.1057000D+01 0.2470000D+00 0.2470000D+00 0.2470000D+00 0.2470000D+00
EXPONENTS  0.2470000D+00 0.2470000D+00 0.3387000D+02 0.5095000D+01 0.1159000D+01
EXPONENTS  0.3258000D+00 0.1027000D+00 0.2526000D-01 0.1407000D+01 0.1407000D+01
EXPONENTS  0.1407000D+01 0.3880000D+00 0.3880000D+00 0.3880000D+00 0.1020000D+00
EXPONENTS  0.1020000D+00 0.1020000D+00 0.1057000D+01 0.1057000D+01 0.1057000D+01
EXPONENTS  0.1057000D+01 0.1057000D+01 0.1057000D+01 0.2470000D+00 0.2470000D+00
EXPONENTS  0.2470000D+00 0.2470000D+00 0.2470000D+00 0.2470000D+00 0.8236000D+04
EXPONENTS  0.1235000D+04 0.2808000D+03 0.7927000D+02 0.2559000D+02 0.8997000D+01
EXPONENTS  0.3319000D+01 0.3643000D+00 0.8236000D+04 0.1235000D+04 0.2808000D+03
EXPONENTS  0.7927000D+02 0.2559000D+02 0.8997000D+01 0.3319000D+01 0.3643000D+00
EXPONENTS  0.9059000D+00 0.1285000D+00 0.4402000D-01 0.1871000D+02 0.4133000D+01
EXPONENTS  0.1200000D+01 0.1871000D+02 0.4133000D+01 0.1200000D+01 0.1871000D+02
EXPONENTS  0.4133000D+01 0.1200000D+01 0.3827000D+00 0.3827000D+00 0.3827000D+00
EXPONENTS  0.1209000D+00 0.1209000D+00 0.1209000D+00 0.3569000D-01 0.3569000D-01
EXPONENTS  0.3569000D-01 0.1097000D+01 0.1097000D+01 0.1097000D+01 0.1097000D+01
EXPONENTS  0.1097000D+01 0.1097000D+01 0.3180000D+00 0.3180000D+00 0.3180000D+00
EXPONENTS  0.3180000D+00 0.3180000D+00 0.3180000D+00 0.1000000D+00 0.1000000D+00
EXPONENTS  0.1000000D+00 0.1000000D+00 0.1000000D+00 0.1000000D+00 0.7610000D+00
EXPONENTS  0.7610000D+00 0.7610000D+00 0.7610000D+00 0.7610000D+00 0.7610000D+00
EXPONENTS  0.7610000D+00 0.7610000D+00 0.7610000D+00 0.7610000D+00 0.2680000D+00
EXPONENTS  0.2680000D+00 0.2680000D+00 0.2680000D+00 0.2680000D+00 0.2680000D+00
EXPONENTS  0.2680000D+00 0.2680000D+00 0.2680000D+00 0.2680000D+00 0.3387000D+02
EXPONENTS  0.5095000D+01 0.1159000D+01 0.3258000D+00 0.1027000D+00 0.2526000D-01
EXPONENTS  0.1407000D+01 0.1407000D+01 0.1407000D+01 0.3880000D+00 0.3880000D+00
EXPONENTS  0.3880000D+00 0.1020000D+00 0.1020000D+00 0.1020000D+00 0.1057000D+01
EXPONENTS  0.1057000D+01 0.1057000D+01 0.1057000D+01 0.1057000D+01 0.1057000D+01
EXPONENTS  0.2470000D+00 0.2470000D+00 0.2470000D+00 0.2470000D+00 0.2470000D+00
EXPONENTS  0.2470000D+00 0.3387000D+02 0.5095000D+01 0.1159000D+01 0.3258000D+00
EXPONENTS  0.1027000D+00 0.2526000D-01 0.1407000D+01 0.1407000D+01 0.1407000D+01
EXPONENTS  0.3880000D+00 0.3880000D+00 0.3880000D+00 0.1020000D+00 0.1020000D+00
EXPONENTS  0.1020000D+00 0.1057000D+01 0.1057000D+01 0.1057000D+01 0.1057000D+01
EXPONENTS  0.1057000D+01 0.1057000D+01 0.2470000D+00 0.2470000D+00 0.2470000D+00
EXPONENTS  0.2470000D+00 0.2470000D+00 0.2470000D+00 0.3387000D+02 0.5095000D+01
EXPONENTS  0.1159000D+01 0.3258000D+00 0.1027000D+00 0.2526000D-01 0.1407000D+01
EXPONENTS  0.1407000D+01 0.1407000D+01 0.3880000D+00 0.3880000D+00 0.3880000D+00
EXPONENTS  0.1020000D+00 0.1020000D+00 0.1020000D+00 0.1057000D+01 0.1057000D+01
EXPONENTS  0.1057000D+01 0.1057000D+01 0.1057000D+01 0.1057000D+01 0.2470000D+00
EXPONENTS  0.2470000D+00 0.2470000D+00 0.2470000D+00 0.2470000D+00 0.2470000D+00
MO    1     MO 0.0        OCC NO =    2.0000000  ORB. ENERGY = -490.028017
  0.41222177D-07  0.76811457D-07  0.12990743D-06  0.19563339D-06  0.24220683D-06
  0.20610708D-06  0.78427546D-07 -0.36730966D-09 -0.31965160D-07 -0.59934975D-07
 -0.10196722D-06 -0.15834433D-06 -0.21013214D-06 -0.22145043D-06 -0.13731339D-06
  0.91340923D-07  0.12523539D-06 -0.15476575D-05  0.20873789D-05  0.24225694D-06
  0.23268490D-06  0.16317471D-06 -0.70782134D-07 -0.67985393D-07 -0.47676051D-07
  0.22258494D-16  0.21379017D-16  0.14992442D-16 -0.20286488D-06  0.14059613D-06
 -0.93758178D-16  0.28302794D-06 -0.13303538D-05  0.62101338D-15  0.16291373D-06
  0.82281304D-07 -0.10541765D-16 -0.40220112D-06 -0.39478444D-07  0.44167956D-06
  0.10278631D-05 -0.69681032D-17 -0.11872972D-15  0.18469603D-06  0.99378684D-08
 -0.19463390D-06 -0.28532217D-06  0.10150997D-16  0.94269643D-16  0.13415422D-06
  0.10120905D-06 -0.23536327D-06 -0.56495723D-06  0.35723921D-16  0.86343957D-16
 -0.84835867D-07 -0.10424409D-06 -0.25080174D-16 -0.14499833D-06  0.83747576D-06
  0.32130655D-17  0.39950594D-06 -0.52474349D-06  0.72027456D-16 -0.36456788D-16
  0.84809005D-07  0.10618359D-06  0.30215573D-16  0.75148676D-07 -0.37752752D-06
 -0.51634058D-16 -0.32957569D-06  0.58976749D-07 -0.39012662D-16  0.23859858D-16
  0.78331764D+00  0.14735159D+01  0.25507286D+01  0.41811323D+01  0.65498247D+01
  0.98449443D+01  0.14070898D+02  0.18679468D+02  0.21754777D+02  0.19981552D+02
  0.11683999D+02  0.30659399D+01  0.16761374D+00 -0.59992225D-02  0.16765934D-02
 -0.49783714D-03  0.84872613D-04  0.69244379D-05 -0.72917892D-06 -0.13397276D-05
 -0.23166978D-05 -0.37939165D-05 -0.59733510D-05 -0.90203453D-05 -0.13166949D-04
 -0.18131689D-04 -0.23167445D-04 -0.25255229D-04 -0.20788942D-04 -0.57001868D-05
  0.11497646D-04  0.11204959D-04  0.24519606D-05  0.82604296D-07  0.27983696D-08
 -0.71186913D-11  0.92722563D-06  0.18177337D-05  0.31837154D-05  0.52011550D-05
  0.82034743D-05  0.12378676D-04  0.18149599D-04  0.25058524D-04  0.32488500D-04
  0.36129124D-04  0.31380369D-04  0.91154358D-05 -0.22979903D-04 -0.33483338D-04
 -0.57642764D-05  0.14062366D-04  0.66933318D-05 -0.32324143D-07 -0.42319114D-06
 -0.91695300D-06 -0.15609671D-05 -0.25479186D-05 -0.40165437D-05 -0.60621245D-05
 -0.88880625D-05 -0.12287115D-04 -0.15947443D-04 -0.17816083D-04 -0.15562752D-04
 -0.46097022D-05  0.11982578D-04  0.18433255D-04  0.32263824D-05 -0.10177445D-04
 -0.86391117D-05  0.32231754D-05 -0.19387993D-04 -0.48416916D-05 -0.57064701D-06
 -0.17926231D-03 -0.25720968D-03 -0.34055929D-03 -0.39324949D-03 -0.36456037D-03
 -0.23602303D-03 -0.83307462D-04 -0.97643529D-05 -0.14195562D-06 -0.20787820D-07
 -0.21373107D-09  0.13247185D-03  0.19007365D-03  0.25166762D-03  0.29060479D-03
  0.26940401D-03  0.17441707D-03  0.61562820D-04  0.72156934D-05  0.10490283D-06
  0.15361851D-07  0.15794369D-09 -0.25360365D-15 -0.36387633D-15 -0.48179161D-15
 -0.55633280D-15 -0.51574610D-15 -0.33390343D-15 -0.11785565D-15 -0.13813698D-16
 -0.20082560D-18 -0.29408674D-19 -0.30236684D-21 -0.70089609D-04 -0.10117516D-03
 -0.13516759D-03 -0.16058324D-03 -0.15561747D-03 -0.10817399D-03 -0.35198780D-04
  0.15842244D-04  0.17114909D-04  0.44061810D-05 -0.42978227D-08  0.38077087D-04
  0.54964712D-04  0.73431542D-04  0.87238925D-04  0.84541205D-04  0.58766921D-04
  0.19122193D-04 -0.86065041D-05 -0.92978959D-05 -0.23937148D-05  0.23348478D-08
  0.61858378D-15  0.89293279D-15  0.11929369D-14  0.14172456D-14  0.13734196D-14
  0.95470182D-15  0.31065082D-15 -0.13981752D-15 -0.15104957D-15 -0.38887249D-16
  0.37930921D-19  0.27189483D-04  0.39507525D-04  0.52525712D-04  0.63027218D-04
  0.60979113D-04  0.43288070D-04  0.13454041D-04 -0.77244616D-05 -0.88736916D-05
 -0.23564868D-05  0.85022778D-06 -0.10408528D-04 -0.15124053D-04 -0.20107603D-04
 -0.24127732D-04 -0.23343688D-04 -0.16571300D-04 -0.51504017D-05  0.29570358D-05
  0.33969777D-05  0.90209727D-06 -0.32547951D-06 -0.45141090D-15 -0.65592006D-15
 -0.87205333D-15 -0.10464036D-14 -0.10124001D-14 -0.71868622D-15 -0.22336948D-15
  0.12824467D-15  0.14732465D-15  0.39123356D-16 -0.14115829D-16 -0.13067741D-05
  0.71089366D-06  0.10628884D-16  0.85407747D-06 -0.76462367D-06 -0.43746228D-16
  0.16638313D-07 -0.24191008D-07  0.44862698D-17  0.33886237D-04  0.35458296D-04
  0.30212366D-04  0.19897127D-04  0.91699934D-05  0.27459694D-05  0.46720341D-06
 -0.90042700D-06 -0.94219984D-06 -0.80280469D-06 -0.52870758D-06 -0.24366558D-06
 -0.72966053D-07 -0.12414555D-07 -0.32985810D-04 -0.34516096D-04 -0.29409561D-04
 -0.19368419D-04 -0.89263278D-05 -0.26730033D-05 -0.45478885D-06 -0.91685213D-04
 -0.95938697D-04 -0.81744905D-04 -0.53835200D-04 -0.24811041D-04 -0.74297063D-05
 -0.12641015D-05  0.24792676D-15  0.25942864D-15  0.22104708D-15  0.14557622D-15
  0.67091744D-16  0.20090731D-16  0.34182676D-17 -0.37385237D-15 -0.39119622D-15
 -0.33332012D-15 -0.21951650D-15 -0.10116862D-15 -0.30295107D-16 -0.51544556D-17
 -0.26491553D-06 -0.20061794D-07  0.28497733D-06  0.76048810D-06 -0.18705579D-16
  0.29701444D-16 -0.14711386D-06  0.45466683D-07  0.10164717D-06  0.26688721D-06
  0.16921484D-16 -0.25629933D-16 -0.30307443D-07 -0.11564984D-07  0.41872427D-07
  0.16025098D-06  0.33692850D-17 -0.10931502D-16  0.21095929D-07 -0.11876437D-07
  0.38585619D-17  0.18970309D-08 -0.74855570D-07 -0.11460142D-16 -0.65184819D-07
  0.11048488D-06 -0.11554399D-18 -0.16715813D-16  0.31198607D-08  0.18861092D-07
 -0.17495811D-18  0.10766661D-07 -0.35732217D-07  0.53820156D-17 -0.20126243D-07
 -0.20851059D-07 -0.48571412D-17  0.10676584D-16 -0.10547508D-06 -0.19662954D-06
 -0.33233856D-06 -0.49961371D-06 -0.61383317D-06 -0.51848024D-06 -0.19555167D-06
  0.96779614D-09  0.79198058D-07  0.14828375D-06  0.25246578D-06  0.39052617D-06
  0.51430923D-06  0.53440023D-06  0.33958736D-06 -0.22758355D-06 -0.29586701D-06
  0.22726376D-05 -0.35899897D-07 -0.14377315D-06 -0.13479646D-06 -0.95983112D-07
  0.11578995D-06  0.10856044D-06  0.77301497D-07  0.47788828D-07  0.44805064D-07
  0.31903875D-07  0.35314788D-06 -0.22837947D-06 -0.56599222D-07  0.29633043D-07
 -0.29682969D-06 -0.27436198D-06 -0.13517326D-07 -0.16492913D-07  0.43384774D-09
 -0.70790944D-07  0.50093731D-07  0.20697213D-07  0.71893031D-07 -0.24954090D-08
  0.15181815D-06 -0.39328289D-07  0.22226254D-07  0.17102035D-07 -0.26779000D-07
 -0.20020050D-06 -0.33130273D-07  0.10521736D-07  0.20488169D-07 -0.31009905D-07
 -0.12468072D-06 -0.18674111D-06  0.37727788D-07 -0.68198804D-07  0.22224655D-07
  0.87255010D-07  0.20275932D-06  0.90658315D-07 -0.63249849D-07  0.18370873D-08
 -0.15733228D-06 -0.19851518D-06  0.29840367D-06 -0.80858103D-08  0.50661335D-08
  0.12825982D-07  0.25099240D-07  0.95767957D-07 -0.11772112D-06 -0.84180954D-09
 -0.11096636D-06  0.79243175D-07  0.28213250D-07 -0.64678456D-08 -0.11665026D-07
 -0.17200074D-07 -0.28999713D-06 -0.12052444D-05 -0.85291608D-08 -0.16246716D-07
  0.48350250D-07 -0.15331405D-07  0.84543116D-07 -0.36173261D-07  0.14629669D-06
 -0.12616671D-06  0.50256998D-07 -0.10633754D-06  0.84018938D-07 -0.49636254D-07
 -0.34382684D-07 -0.91760400D-07  0.14259726D-06 -0.50965831D-07  0.23530283D-07
  0.16233716D-07 -0.39764000D-07 -0.78290941D-07 -0.53007327D-07 -0.41134182D-07
 -0.20486040D-08 -0.36947417D-08 -0.54478945D-08 -0.81332449D-06  0.27440932D-08
 -0.34432261D-08 -0.57049653D-07 -0.71400944D-07  0.15013743D-06  0.64340687D-07
 -0.44002734D-07  0.80430266D-07  0.74573407D-07  0.75582067D-07  0.10509207D-07
  0.56752651D-07 -0.83797538D-07  0.27044887D-07  0.14045443D-07 -0.35321488D-07
 -0.33639926D-07 -0.18580971D-07 -0.15520279D-08  0.20132999D-07  0.44207595D-07
 -0.11195408D-07  0.46888931D-08  0.73041144D-08  0.13173271D-07  0.19423981D-07
 -0.61244790D-06 -0.10458266D-07  0.33010546D-07  0.10678738D-06  0.14826685D-06
 -0.17445418D-07  0.92907644D-07  0.47280677D-07  0.15941091D-06 -0.59341613D-07
  0.36923458D-07  0.16392692D-06 -0.23141284D-07  0.36258886D-07 -0.13117602D-07
 -0.35349562D-07 -0.12967247D-07 -0.16749335D-06 -0.16642811D-07  0.13748786D-07
  0.28940248D-08  0.34700301D-07  0.26971227D-07 -0.78089748D-08 -0.10547508D-06
 -0.19662954D-06 -0.33233856D-06 -0.49961371D-06 -0.61383317D-06 -0.51848024D-06
 -0.19555167D-06  0.96779614D-09  0.79198058D-07  0.14828375D-06  0.25246578D-06
  0.39052617D-06  0.51430923D-06  0.53440023D-06  0.33958736D-06 -0.22758355D-06
 -0.29586701D-06  0.22726376D-05 -0.35899897D-07 -0.14377315D-06 -0.13479646D-06
 -0.95983112D-07  0.11578995D-06  0.10856044D-06  0.77301497D-07 -0.47788828D-07
 -0.44805064D-07 -0.31903875D-07  0.35314788D-06 -0.22837947D-06  0.56599222D-07
  0.29633043D-07 -0.29682969D-06  0.27436198D-06 -0.13517326D-07 -0.16492913D-07
 -0.43384768D-09 -0.70790944D-07  0.50093731D-07  0.20697213D-07  0.71893031D-07
  0.24954090D-08 -0.15181815D-06 -0.39328289D-07  0.22226254D-07  0.17102035D-07
 -0.26779000D-07  0.20020050D-06  0.33130273D-07  0.10521736D-07  0.20488169D-07
 -0.31009905D-07 -0.12468072D-06  0.18674111D-06 -0.37727788D-07 -0.68198804D-07
  0.22224655D-07 -0.87255010D-07  0.20275932D-06  0.90658315D-07  0.63249849D-07
  0.18370874D-08 -0.15733228D-06  0.19851518D-06 -0.29840367D-06 -0.80858103D-08
  0.50661335D-08 -0.12825982D-07  0.25099240D-07  0.95767957D-07  0.11772112D-06
 -0.84180954D-09 -0.11096636D-06 -0.79243175D-07 -0.28213250D-07 -0.20486040D-08
 -0.36947417D-08 -0.54478945D-08 -0.81332449D-06  0.27440890D-08 -0.34432261D-08
 -0.57049653D-07 -0.71400944D-07 -0.15013743D-06  0.64340687D-07 -0.44002734D-07
 -0.80430266D-07  0.74573407D-07  0.75582066D-07 -0.10509208D-07  0.56752651D-07
 -0.83797538D-07  0.27044887D-07  0.14045443D-07  0.35321488D-07  0.33639925D-07
 -0.18580971D-07 -0.15520279D-08  0.20132999D-07  0.44207595D-07  0.11195408D-07
 -0.46888930D-08 -0.64678456D-08 -0.11665026D-07 -0.17200074D-07 -0.28999713D-06
 -0.12052444D-05 -0.85291608D-08 -0.16246716D-07  0.48350250D-07  0.15331405D-07
  0.84543116D-07 -0.36173261D-07 -0.14629669D-06 -0.12616671D-06  0.50256998D-07
  0.10633754D-06  0.84018938D-07 -0.49636254D-07 -0.34382684D-07 -0.91760400D-07
 -0.14259726D-06  0.50965831D-07  0.23530283D-07  0.16233716D-07 -0.39764000D-07
 -0.78290941D-07  0.53007327D-07  0.41134182D-07  0.73041144D-08  0.13173271D-07
  0.19423981D-07 -0.61244790D-06 -0.10458264D-07  0.33010546D-07  0.10678738D-06
  0.14826685D-06  0.17445418D-07  0.92907644D-07  0.47280677D-07 -0.15941091D-06
 -0.59341613D-07  0.36923458D-07 -0.16392692D-06 -0.23141284D-07  0.36258886D-07
 -0.13117602D-07 -0.35349562D-07  0.12967247D-07  0.16749335D-06 -0.16642811D-07
  0.13748786D-07  0.28940248D-08  0.34700301D-07 -0.26971227D-07  0.78089747D-08
MO    2     MO 0.0        OCC NO =    2.0000000  ORB. ENERGY =  -65.167081
  0.30463365D-05  0.56763996D-05  0.96002148D-05  0.14457391D-04  0.17899188D-04
  0.15231402D-04  0.57958293D-05 -0.27144341D-07 -0.20383019D-05 -0.38218351D-05
 -0.65020787D-05 -0.10097042D-04 -0.13399362D-04 -0.14121088D-04 -0.87559753D-05
  0.58244781D-05  0.31340357D-05 -0.27023909D-04 -0.95104368D-05 -0.11685151D-07
 -0.11223448D-07 -0.78706566D-08  0.27226765D-05  0.26150982D-05  0.18338874D-05
  0.13770412D-14  0.13226317D-14  0.92752062D-15 -0.34016519D-05 -0.11777854D-05
 -0.23419654D-14 -0.24823279D-04  0.14356501D-04 -0.28561247D-14 -0.17519954D-05
  0.63807709D-06 -0.13591810D-14  0.51779878D-06 -0.32512573D-05  0.27334585D-05
  0.17133035D-06  0.10114615D-14  0.42044018D-15 -0.26381187D-05  0.23938509D-05
  0.24426784D-06  0.72212588D-05 -0.87644850D-15 -0.18036074D-14 -0.34588335D-05
  0.52499655D-06  0.29338370D-05  0.37481875D-05  0.20413359D-16 -0.63850192D-15
 -0.12957161D-05 -0.41080161D-07 -0.16075067D-15 -0.24972933D-05  0.66738708D-05
  0.44278252D-15  0.63844416D-05 -0.65506303D-05  0.39469500D-16 -0.51373029D-15
  0.69879539D-06 -0.43550127D-06 -0.34574517D-16 -0.45801586D-06  0.13534674D-05
  0.14328451D-15 -0.16383703D-05 -0.46963549D-07 -0.39560957D-16 -0.11888451D-15
  0.15285369D-06  0.28753641D-06  0.49773970D-06  0.81589060D-06  0.12781084D-05
  0.19211058D-05  0.27457428D-05  0.36450418D-05  0.42451462D-05  0.38991258D-05
  0.22799722D-05  0.59827611D-06  0.32707521D-07 -0.11706659D-08  0.32716419D-09
 -0.97146088D-10  0.16561726D-10  0.13512090D-11 -0.25225483D+00 -0.46347028D+00
 -0.80144693D+00 -0.13124814D+01 -0.20664429D+01 -0.31205313D+01 -0.45550227D+01
 -0.62725430D+01 -0.80146306D+01 -0.87368865D+01 -0.71918029D+01 -0.19719435D+01
  0.39775379D+01  0.38762844D+01  0.84824024D+00  0.28576433D-01  0.96807823D-03
 -0.24626661D-05  0.40028822D-06  0.78472525D-06  0.13744268D-05  0.22453662D-05
  0.35414833D-05  0.53439402D-05  0.78352781D-05  0.10817898D-04  0.14025458D-04
  0.15597134D-04  0.13547071D-04  0.39351820D-05 -0.99205459D-05 -0.14454934D-04
 -0.24884687D-05  0.60707980D-05  0.28895468D-05 -0.13954504D-07  0.30721239D-06
  0.66565506D-06  0.11331722D-05  0.18496421D-05  0.29157793D-05  0.44007532D-05
  0.64522214D-05  0.89197379D-05  0.11576925D-04  0.12933450D-04  0.11297661D-04
  0.33463782D-05 -0.86986611D-05 -0.13381481D-04 -0.23421678D-05  0.73882388D-05
  0.62714974D-05 -0.23398396D-05 -0.35536514D-04  0.32264934D-04  0.77653120D-05
 -0.35186806D-01 -0.50486837D-01 -0.66847256D-01 -0.77189641D-01 -0.71558348D-01
 -0.46328179D-01 -0.16352146D-01 -0.19166125D-02 -0.27863998D-04 -0.40803724D-05