 Molden2AIM, Version 4.0.0 (06/02/2016)           Time: Wed Jun 27 23:58:30 2018
GAUSSIAN             26 MOL ORBITALS    629 PRIMITIVES       11 NUCLEI
  Ge   1    (CENTRE  1)   0.00000000  0.00000000  1.10364352  CHARGE = 32.0
  H    2    (CENTRE  2)   2.36287575  0.00000000  2.82363822  CHARGE =  1.0
  H    3    (CENTRE  3)  -2.36287575  0.00000000  2.82363822  CHARGE =  1.0
  C    4    (CENTRE  4)   0.00000000  3.04343983 -1.00058920  CHARGE =  6.0
  H    5    (CENTRE  5)  -1.68238537  3.08463586 -2.21550546  CHARGE =  1.0
  H    6    (CENTRE  6)   0.00000000  4.75362874  0.17284758  CHARGE =  1.0
  H    7    (CENTRE  7)   1.68238537  3.08463586 -2.21550546  CHARGE =  1.0
  C    8    (CENTRE  8)   0.00000000 -3.04343983 -1.00058920  CHARGE =  6.0
  H    9    (CENTRE  9)   0.00000000 -4.75362874  0.17284758  CHARGE =  1.0
  H   10    (CENTRE 10)  -1.68238537 -3.08463586 -2.21550546  CHARGE =  1.0
  H   11    (CENTRE 11)   1.68238537 -3.08463586 -2.21550546  CHARGE =  1.0
CENTRE ASSIGNMENTS    1  1  1  1  1  1  1  1  1  1  1  1  1  1  1  1  1  1  1  1
CENTRE ASSIGNMENTS    1  1  1  1  1  1  1  1  1  1  1  1  1  1  1  1  1  1  1  1
CENTRE ASSIGNMENTS    1  1  1  1  1  1  1  1  1  1  1  1  1  1  1  1  1  1  1  1
CENTRE ASSIGNMENTS    1  1  1  1  1  1  1  1  1  1  1  1  1  1  1  1  1  1  1  1
CENTRE ASSIGNMENTS    1  1  1  1  1  1  1  1  1  1  1  1  1  1  1  1  1  1  1  1
CENTRE ASSIGNMENTS    1  1  1  1  1  1  1  1  1  1  1  1  1  1  1  1  1  1  1  1
CENTRE ASSIGNMENTS    1  1  1  1  1  1  1  1  1  1  1  1  1  1  1  1  1  1  1  1
CENTRE ASSIGNMENTS    1  1  1  1  1  1  1  1  1  1  1  1  1  1  1  1  1  1  1  1
CENTRE ASSIGNMENTS    1  1  1  1  1  1  1  1  1  1  1  1  1  1  1  1  1  1  1  1
CENTRE ASSIGNMENTS    1  1  1  1  1  1  1  1  1  1  1  1  1  1  1  1  1  1  1  1
CENTRE ASSIGNMENTS    1  1  1  1  1  1  1  1  1  1  1  1  1  1  1  1  1  1  1  1
CENTRE ASSIGNMENTS    1  1  1  1  1  1  1  1  1  1  1  1  1  1  1  1  1  1  1  1
CENTRE ASSIGNMENTS    1  1  1  1  1  1  1  1  1  1  1  1  1  1  1  1  1  1  1  1
CENTRE ASSIGNMENTS    1  1  1  2  2  2  2  2  2  2  2  2  2  2  2  2  2  2  2  2
CENTRE ASSIGNMENTS    2  2  2  2  2  2  2  2  2  2  3  3  3  3  3  3  3  3  3  3
CENTRE ASSIGNMENTS    3  3  3  3  3  3  3  3  3  3  3  3  3  3  3  3  3  4  4  4
CENTRE ASSIGNMENTS    4  4  4  4  4  4  4  4  4  4  4  4  4  4  4  4  4  4  4  4
CENTRE ASSIGNMENTS    4  4  4  4  4  4  4  4  4  4  4  4  4  4  4  4  4  4  4  4
CENTRE ASSIGNMENTS    4  4  4  4  4  4  4  4  4  4  4  4  4  4  4  4  4  4  4  4
CENTRE ASSIGNMENTS    4  4  4  4  4  4  4  4  4  4  4  4  5  5  5  5  5  5  5  5
CENTRE ASSIGNMENTS    5  5  5  5  5  5  5  5  5  5  5  5  5  5  5  5  5  5  5  6
CENTRE ASSIGNMENTS    6  6  6  6  6  6  6  6  6  6  6  6  6  6  6  6  6  6  6  6
CENTRE ASSIGNMENTS    6  6  6  6  6  6  7  7  7  7  7  7  7  7  7  7  7  7  7  7
CENTRE ASSIGNMENTS    7  7  7  7  7  7  7  7  7  7  7  7  7  8  8  8  8  8  8  8
CENTRE ASSIGNMENTS    8  8  8  8  8  8  8  8  8  8  8  8  8  8  8  8  8  8  8  8
CENTRE ASSIGNMENTS    8  8  8  8  8  8  8  8  8  8  8  8  8  8  8  8  8  8  8  8
CENTRE ASSIGNMENTS    8  8  8  8  8  8  8  8  8  8  8  8  8  8  8  8  8  8  8  8
CENTRE ASSIGNMENTS    8  8  8  8  8  8  8  8  9  9  9  9  9  9  9  9  9  9  9  9
CENTRE ASSIGNMENTS    9  9  9  9  9  9  9  9  9  9  9  9  9  9  9 10 10 10 10 10
CENTRE ASSIGNMENTS   10 10 10 10 10 10 10 10 10 10 10 10 10 10 10 10 10 10 10 10
CENTRE ASSIGNMENTS   10 10 11 11 11 11 11 11 11 11 11 11 11 11 11 11 11 11 11 11
CENTRE ASSIGNMENTS   11 11 11 11 11 11 11 11 11
TYPE ASSIGNMENTS      1  1  1  1  1  1  1  1  1  1  1  1  1  1  1  1  1  1  1  1
TYPE ASSIGNMENTS      1  1  1  1  1  1  1  1  1  1  1  1  1  1  1  1  1  1  1  1
TYPE ASSIGNMENTS      1  1  1  1  1  1  1  1  1  1  1  1  1  1  1  1  1  1  1  1
TYPE ASSIGNMENTS      1  1  1  1  1  1  1  1  1  1  1  1  1  1  1  2  2  2  2  2
TYPE ASSIGNMENTS      2  2  2  2  2  2  3  3  3  3  3  3  3  3  3  3  3  4  4  4
TYPE ASSIGNMENTS      4  4  4  4  4  4  4  4  2  2  2  2  2  2  2  2  2  2  2  3
TYPE ASSIGNMENTS      3  3  3  3  3  3  3  3  3  3  4  4  4  4  4  4  4  4  4  4
TYPE ASSIGNMENTS      4  2  2  2  2  2  2  2  2  2  2  2  3  3  3  3  3  3  3  3
TYPE ASSIGNMENTS      3  3  3  4  4  4  4  4  4  4  4  4  4  4  2  3  4  2  3  4
TYPE ASSIGNMENTS      2  3  4  5  5  5  5  5  5  5  6  6  6  6  6  6  6  7  7  7
TYPE ASSIGNMENTS      7  7  7  7  8  8  8  8  8  8  8  9  9  9  9  9  9  9 10 10
TYPE ASSIGNMENTS     10 10 10 10 10  5  6  7  8  9 10  5  6  7  8  9 10  5  6  7
TYPE ASSIGNMENTS      8  9 10 11 12 13 17 14 15 18 19 16 20 11 12 13 17 14 15 18
TYPE ASSIGNMENTS     19 16 20  1  1  1  1  1  1  2  3  4  2  3  4  2  3  4  5  6
TYPE ASSIGNMENTS      7  8  9 10  5  6  7  8  9 10  1  1  1  1  1  1  2  3  4  2
TYPE ASSIGNMENTS      3  4  2  3  4  5  6  7  8  9 10  5  6  7  8  9 10  1  1  1
TYPE ASSIGNMENTS      1  1  1  1  1  1  1  1  1  1  1  1  1  1  1  1  2  2  2  3
TYPE ASSIGNMENTS      3  3  4  4  4  2  3  4  2  3  4  2  3  4  5  6  7  8  9 10
TYPE ASSIGNMENTS      5  6  7  8  9 10  5  6  7  8  9 10 11 12 13 17 14 15 18 19
TYPE ASSIGNMENTS     16 20 11 12 13 17 14 15 18 19 16 20  1  1  1  1  1  1  2  3
TYPE ASSIGNMENTS      4  2  3  4  2  3  4  5  6  7  8  9 10  5  6  7  8  9 10  1
TYPE ASSIGNMENTS      1  1  1  1  1  2  3  4  2  3  4  2  3  4  5  6  7  8  9 10
TYPE ASSIGNMENTS      5  6  7  8  9 10  1  1  1  1  1  1  2  3  4  2  3  4  2  3
TYPE ASSIGNMENTS      4  5  6  7  8  9 10  5  6  7  8  9 10  1  1  1  1  1  1  1
TYPE ASSIGNMENTS      1  1  1  1  1  1  1  1  1  1  1  1  2  2  2  3  3  3  4  4
TYPE ASSIGNMENTS      4  2  3  4  2  3  4  2  3  4  5  6  7  8  9 10  5  6  7  8
TYPE ASSIGNMENTS      9 10  5  6  7  8  9 10 11 12 13 17 14 15 18 19 16 20 11 12
TYPE ASSIGNMENTS     13 17 14 15 18 19 16 20  1  1  1  1  1  1  2  3  4  2  3  4
TYPE ASSIGNMENTS      2  3  4  5  6  7  8  9 10  5  6  7  8  9 10  1  1  1  1  1
TYPE ASSIGNMENTS      1  2  3  4  2  3  4  2  3  4  5  6  7  8  9 10  5  6  7  8
TYPE ASSIGNMENTS      9 10  1  1  1  1  1  1  2  3  4  2  3  4  2  3  4  5  6  7
TYPE ASSIGNMENTS      8  9 10  5  6  7  8  9 10
EXPONENTS  0.7447967D+07 0.1115318D+07 0.2538426D+06 0.7191529D+05 0.2347018D+05
EXPONENTS  0.8477492D+04 0.3308391D+04 0.1372605D+04 0.5982201D+03 0.2713860D+03
EXPONENTS  0.1269780D+03 0.6022207D+02 0.2801858D+02 0.1351752D+02 0.6309406D+01
EXPONENTS  0.2904534D+01 0.1287556D+01 0.1677320D+00 0.7447967D+07 0.1115318D+07
EXPONENTS  0.2538426D+06 0.7191529D+05 0.2347018D+05 0.8477492D+04 0.3308391D+04
EXPONENTS  0.1372605D+04 0.5982201D+03 0.2713860D+03 0.1269780D+03 0.6022207D+02
EXPONENTS  0.2801858D+02 0.1351752D+02 0.6309406D+01 0.2904534D+01 0.1287556D+01
EXPONENTS  0.1677320D+00 0.7447967D+07 0.1115318D+07 0.2538426D+06 0.7191529D+05
EXPONENTS  0.2347018D+05 0.8477492D+04 0.3308391D+04 0.1372605D+04 0.5982201D+03
EXPONENTS  0.2713860D+03 0.1269780D+03 0.6022207D+02 0.2801858D+02 0.1351752D+02
EXPONENTS  0.6309406D+01 0.2904534D+01 0.1287556D+01 0.1677320D+00 0.7447967D+07
EXPONENTS  0.1115318D+07 0.2538426D+06 0.7191529D+05 0.2347018D+05 0.8477492D+04
EXPONENTS  0.3308391D+04 0.1372605D+04 0.5982201D+03 0.2713860D+03 0.1269780D+03
EXPONENTS  0.6022207D+02 0.2801858D+02 0.1351752D+02 0.6309406D+01 0.2904534D+01
EXPONENTS  0.1287556D+01 0.1677320D+00 0.3365520D+00 0.7106900D-01 0.2737000D-01
EXPONENTS  0.6979598D+04 0.1654165D+04 0.5360286D+03 0.2035371D+03 0.8523753D+02
EXPONENTS  0.3784196D+02 0.1740651D+02 0.7881492D+01 0.3533213D+01 0.1521473D+01
EXPONENTS  0.1990930D+00 0.6979598D+04 0.1654165D+04 0.5360286D+03 0.2035371D+03
EXPONENTS  0.8523753D+02 0.3784196D+02 0.1740651D+02 0.7881492D+01 0.3533213D+01
EXPONENTS  0.1521473D+01 0.1990930D+00 0.6979598D+04 0.1654165D+04 0.5360286D+03
EXPONENTS  0.2035371D+03 0.8523753D+02 0.3784196D+02 0.1740651D+02 0.7881492D+01
EXPONENTS  0.3533213D+01 0.1521473D+01 0.1990930D+00 0.6979598D+04 0.1654165D+04
EXPONENTS  0.5360286D+03 0.2035371D+03 0.8523753D+02 0.3784196D+02 0.1740651D+02
EXPONENTS  0.7881492D+01 0.3533213D+01 0.1521473D+01 0.1990930D+00 0.6979598D+04
EXPONENTS  0.1654165D+04 0.5360286D+03 0.2035371D+03 0.8523753D+02 0.3784196D+02
EXPONENTS  0.1740651D+02 0.7881492D+01 0.3533213D+01 0.1521473D+01 0.1990930D+00
EXPONENTS  0.6979598D+04 0.1654165D+04 0.5360286D+03 0.2035371D+03 0.8523753D+02
EXPONENTS  0.3784196D+02 0.1740651D+02 0.7881492D+01 0.3533213D+01 0.1521473D+01
EXPONENTS  0.1990930D+00 0.6979598D+04 0.1654165D+04 0.5360286D+03 0.2035371D+03
EXPONENTS  0.8523753D+02 0.3784196D+02 0.1740651D+02 0.7881492D+01 0.3533213D+01
EXPONENTS  0.1521473D+01 0.1990930D+00 0.6979598D+04 0.1654165D+04 0.5360286D+03
EXPONENTS  0.2035371D+03 0.8523753D+02 0.3784196D+02 0.1740651D+02 0.7881492D+01
EXPONENTS  0.3533213D+01 0.1521473D+01 0.1990930D+00 0.6979598D+04 0.1654165D+04
EXPONENTS  0.5360286D+03 0.2035371D+03 0.8523753D+02 0.3784196D+02 0.1740651D+02
EXPONENTS  0.7881492D+01 0.3533213D+01 0.1521473D+01 0.1990930D+00 0.5627040D+00
EXPONENTS  0.5627040D+00 0.5627040D+00 0.6703100D-01 0.6703100D-01 0.6703100D-01
EXPONENTS  0.2136800D-01 0.2136800D-01 0.2136800D-01 0.2822391D+03 0.8454996D+02
EXPONENTS  0.3207366D+02 0.1349750D+02 0.5958550D+01 0.2610788D+01 0.1103987D+01
EXPONENTS  0.2822391D+03 0.8454996D+02 0.3207366D+02 0.1349750D+02 0.5958550D+01
EXPONENTS  0.2610788D+01 0.1103987D+01 0.2822391D+03 0.8454996D+02 0.3207366D+02
EXPONENTS  0.1349750D+02 0.5958550D+01 0.2610788D+01 0.1103987D+01 0.2822391D+03
EXPONENTS  0.8454996D+02 0.3207366D+02 0.1349750D+02 0.5958550D+01 0.2610788D+01
EXPONENTS  0.1103987D+01 0.2822391D+03 0.8454996D+02 0.3207366D+02 0.1349750D+02
EXPONENTS  0.5958550D+01 0.2610788D+01 0.1103987D+01 0.2822391D+03 0.8454996D+02
EXPONENTS  0.3207366D+02 0.1349750D+02 0.5958550D+01 0.2610788D+01 0.1103987D+01
EXPONENTS  0.4240490D+00 0.4240490D+00 0.4240490D+00 0.4240490D+00 0.4240490D+00
EXPONENTS  0.4240490D+00 0.1520000D+00 0.1520000D+00 0.1520000D+00 0.1520000D+00
EXPONENTS  0.1520000D+00 0.1520000D+00 0.5280000D-01 0.5280000D-01 0.5280000D-01
EXPONENTS  0.5280000D-01 0.5280000D-01 0.5280000D-01 0.3458000D+00 0.3458000D+00
EXPONENTS  0.3458000D+00 0.3458000D+00 0.3458000D+00 0.3458000D+00 0.3458000D+00
EXPONENTS  0.3458000D+00 0.3458000D+00 0.3458000D+00 0.1323000D+00 0.1323000D+00
EXPONENTS  0.1323000D+00 0.1323000D+00 0.1323000D+00 0.1323000D+00 0.1323000D+00
EXPONENTS  0.1323000D+00 0.1323000D+00 0.1323000D+00 0.3387000D+02 0.5095000D+01
EXPONENTS  0.1159000D+01 0.3258000D+00 0.1027000D+00 0.2526000D-01 0.1407000D+01
EXPONENTS  0.1407000D+01 0.1407000D+01 0.3880000D+00 0.3880000D+00 0.3880000D+00
EXPONENTS  0.1020000D+00 0.1020000D+00 0.1020000D+00 0.1057000D+01 0.1057000D+01
EXPONENTS  0.1057000D+01 0.1057000D+01 0.1057000D+01 0.1057000D+01 0.2470000D+00
EXPONENTS  0.2470000D+00 0.2470000D+00 0.2470000D+00 0.2470000D+00 0.2470000D+00
EXPONENTS  0.3387000D+02 0.5095000D+01 0.1159000D+01 0.3258000D+00 0.1027000D+00
EXPONENTS  0.2526000D-01 0.1407000D+01 0.1407000D+01 0.1407000D+01 0.3880000D+00
EXPONENTS  0.3880000D+00 0.3880000D+00 0.1020000D+00 0.1020000D+00 0.1020000D+00
EXPONENTS  0.1057000D+01 0.1057000D+01 0.1057000D+01 0.1057000D+01 0.1057000D+01
EXPONENTS  0.1057000D+01 0.2470000D+00 0.2470000D+00 0.2470000D+00 0.2470000D+00
EXPONENTS  0.2470000D+00 0.2470000D+00 0.8236000D+04 0.1235000D+04 0.2808000D+03
EXPONENTS  0.7927000D+02 0.2559000D+02 0.8997000D+01 0.3319000D+01 0.3643000D+00
EXPONENTS  0.8236000D+04 0.1235000D+04 0.2808000D+03 0.7927000D+02 0.2559000D+02
EXPONENTS  0.8997000D+01 0.3319000D+01 0.3643000D+00 0.9059000D+00 0.1285000D+00
EXPONENTS  0.4402000D-01 0.1871000D+02 0.4133000D+01 0.1200000D+01 0.1871000D+02
EXPONENTS  0.4133000D+01 0.1200000D+01 0.1871000D+02 0.4133000D+01 0.1200000D+01
EXPONENTS  0.3827000D+00 0.3827000D+00 0.3827000D+00 0.1209000D+00 0.1209000D+00
EXPONENTS  0.1209000D+00 0.3569000D-01 0.3569000D-01 0.3569000D-01 0.1097000D+01
EXPONENTS  0.1097000D+01 0.1097000D+01 0.1097000D+01 0.1097000D+01 0.1097000D+01
EXPONENTS  0.3180000D+00 0.3180000D+00 0.3180000D+00 0.3180000D+00 0.3180000D+00
EXPONENTS  0.3180000D+00 0.1000000D+00 0.1000000D+00 0.1000000D+00 0.1000000D+00
EXPONENTS  0.1000000D+00 0.1000000D+00 0.7610000D+00 0.7610000D+00 0.7610000D+00
EXPONENTS  0.7610000D+00 0.7610000D+00 0.7610000D+00 0.7610000D+00 0.7610000D+00
EXPONENTS  0.7610000D+00 0.7610000D+00 0.2680000D+00 0.2680000D+00 0.2680000D+00
EXPONENTS  0.2680000D+00 0.2680000D+00 0.2680000D+00 0.2680000D+00 0.2680000D+00
EXPONENTS  0.2680000D+00 0.2680000D+00 0.3387000D+02 0.5095000D+01 0.1159000D+01
EXPONENTS  0.3258000D+00 0.1027000D+00 0.2526000D-01 0.1407000D+01 0.1407000D+01
EXPONENTS  0.1407000D+01 0.3880000D+00 0.3880000D+00 0.3880000D+00 0.1020000D+00
EXPONENTS  0.1020000D+00 0.1020000D+00 0.1057000D+01 0.1057000D+01 0.1057000D+01
EXPONENTS  0.1057000D+01 0.1057000D+01 0.1057000D+01 0.2470000D+00 0.2470000D+00
EXPONENTS  0.2470000D+00 0.2470000D+00 0.2470000D+00 0.2470000D+00 0.3387000D+02
EXPONENTS  0.5095000D+01 0.1159000D+01 0.3258000D+00 0.1027000D+00 0.2526000D-01
EXPONENTS  0.1407000D+01 0.1407000D+01 0.1407000D+01 0.3880000D+00 0.3880000D+00
EXPONENTS  0.3880000D+00 0.1020000D+00 0.1020000D+00 0.1020000D+00 0.1057000D+01
EXPONENTS  0.1057000D+01 0.1057000D+01 0.1057000D+01 0.1057000D+01 0.1057000D+01
EXPONENTS  0.2470000D+00 0.2470000D+00 0.2470000D+00 0.2470000D+00 0.2470000D+00
EXPONENTS  0.2470000D+00 0.3387000D+02 0.5095000D+01 0.1159000D+01 0.3258000D+00
EXPONENTS  0.1027000D+00 0.2526000D-01 0.1407000D+01 0.1407000D+01 0.1407000D+01
EXPONENTS  0.3880000D+00 0.3880000D+00 0.3880000D+00 0.1020000D+00 0.1020000D+00
EXPONENTS  0.1020000D+00 0.1057000D+01 0.1057000D+01 0.1057000D+01 0.1057000D+01
EXPONENTS  0.1057000D+01 0.1057000D+01 0.2470000D+00 0.2470000D+00 0.2470000D+00
EXPONENTS  0.2470000D+00 0.2470000D+00 0.2470000D+00 0.8236000D+04 0.1235000D+04
EXPONENTS  0.2808000D+03 0.7927000D+02 0.2559000D+02 0.8997000D+01 0.3319000D+01
EXPONENTS  0.3643000D+00 0.8236000D+04 0.1235000D+04 0.2808000D+03 0.7927000D+02
EXPONENTS  0.2559000D+02 0.8997000D+01 0.3319000D+01 0.3643000D+00 0.9059000D+00
EXPONENTS  0.1285000D+00 0.4402000D-01 0.1871000D+02 0.4133000D+01 0.1200000D+01
EXPONENTS  0.1871000D+02 0.4133000D+01 0.1200000D+01 0.1871000D+02 0.4133000D+01
EXPONENTS  0.1200000D+01 0.3827000D+00 0.3827000D+00 0.3827000D+00 0.1209000D+00
EXPONENTS  0.1209000D+00 0.1209000D+00 0.3569000D-01 0.3569000D-01 0.3569000D-01
EXPONENTS  0.1097000D+01 0.1097000D+01 0.1097000D+01 0.1097000D+01 0.1097000D+01
EXPONENTS  0.1097000D+01 0.3180000D+00 0.3180000D+00 0.3180000D+00 0.3180000D+00
EXPONENTS  0.3180000D+00 0.3180000D+00 0.1000000D+00 0.1000000D+00 0.1000000D+00
EXPONENTS  0.1000000D+00 0.1000000D+00 0.1000000D+00 0.7610000D+00 0.7610000D+00
EXPONENTS  0.7610000D+00 0.7610000D+00 0.7610000D+00 0.7610000D+00 0.7610000D+00
EXPONENTS  0.7610000D+00 0.7610000D+00 0.7610000D+00 0.2680000D+00 0.2680000D+00
EXPONENTS  0.2680000D+00 0.2680000D+00 0.2680000D+00 0.2680000D+00 0.2680000D+00
EXPONENTS  0.2680000D+00 0.2680000D+00 0.2680000D+00 0.3387000D+02 0.5095000D+01
EXPONENTS  0.1159000D+01 0.3258000D+00 0.1027000D+00 0.2526000D-01 0.1407000D+01
EXPONENTS  0.1407000D+01 0.1407000D+01 0.3880000D+00 0.3880000D+00 0.3880000D+00
EXPONENTS  0.1020000D+00 0.1020000D+00 0.1020000D+00 0.1057000D+01 0.1057000D+01
EXPONENTS  0.1057000D+01 0.1057000D+01 0.1057000D+01 0.1057000D+01 0.2470000D+00
EXPONENTS  0.2470000D+00 0.2470000D+00 0.2470000D+00 0.2470000D+00 0.2470000D+00
EXPONENTS  0.3387000D+02 0.5095000D+01 0.1159000D+01 0.3258000D+00 0.1027000D+00
EXPONENTS  0.2526000D-01 0.1407000D+01 0.1407000D+01 0.1407000D+01 0.3880000D+00
EXPONENTS  0.3880000D+00 0.3880000D+00 0.1020000D+00 0.1020000D+00 0.1020000D+00
EXPONENTS  0.1057000D+01 0.1057000D+01 0.1057000D+01 0.1057000D+01 0.1057000D+01
EXPONENTS  0.1057000D+01 0.2470000D+00 0.2470000D+00 0.2470000D+00 0.2470000D+00
EXPONENTS  0.2470000D+00 0.2470000D+00 0.3387000D+02 0.5095000D+01 0.1159000D+01
EXPONENTS  0.3258000D+00 0.1027000D+00 0.2526000D-01 0.1407000D+01 0.1407000D+01
EXPONENTS  0.1407000D+01 0.3880000D+00 0.3880000D+00 0.3880000D+00 0.1020000D+00
EXPONENTS  0.1020000D+00 0.1020000D+00 0.1057000D+01 0.1057000D+01 0.1057000D+01
EXPONENTS  0.1057000D+01 0.1057000D+01 0.1057000D+01 0.2470000D+00 0.2470000D+00
EXPONENTS  0.2470000D+00 0.2470000D+00 0.2470000D+00 0.2470000D+00
MO    1     MO 0.0        OCC NO =    2.0000000  ORB. ENERGY = -405.208777
  0.75191764D+00  0.14040134D+01  0.24333065D+01  0.39852622D+01  0.62332584D+01
  0.93325434D+01  0.13229979D+02  0.17246124D+02  0.19355606D+02  0.16455607D+02
  0.82097703D+01  0.15263566D+01  0.35861103D-01  0.51987330D-02 -0.13777813D-02
  0.28621659D-03 -0.78565104D-04 -0.49688265D-05 -0.13136521D-05 -0.24610835D-05
 -0.42586851D-05 -0.69738689D-05 -0.10957901D-04 -0.16519964D-04 -0.23968571D-04
 -0.32684998D-04 -0.40786502D-04 -0.42557396D-04 -0.30819827D-04 -0.21773263D-05
  0.22321037D-04  0.15736328D-04  0.22280713D-05  0.20183845D-07  0.10133414D-07
  0.34450252D-09  0.11898407D-05  0.21959184D-05  0.37962082D-05  0.62223906D-05
  0.97817013D-05  0.14761318D-04  0.21473480D-04  0.29458958D-04  0.37240785D-04
  0.39968059D-04  0.30500279D-04  0.23804007D-05 -0.30767687D-04 -0.32695421D-04
  0.40073308D-06  0.14888471D-04  0.53858623D-05 -0.24862389D-07 -0.76933965D-06
 -0.16667920D-05 -0.28376983D-05 -0.46447441D-05 -0.72956951D-05 -0.11015300D-04
 -0.16023529D-04 -0.22010385D-04 -0.27858317D-04 -0.30038643D-04 -0.23056503D-04
 -0.18750679D-05  0.24479331D-04  0.27396529D-04 -0.86804683D-06 -0.16233047D-04
 -0.11093499D-04  0.43778261D-05  0.16349874D-04 -0.95910439D-05  0.36904886D-06
  0.86757746D-15  0.12422265D-14  0.16362707D-14  0.18734253D-14  0.17142339D-14
  0.10910897D-14  0.37678134D-15  0.42069758D-16  0.53262310D-18  0.96662978D-19
  0.75882420D-21 -0.12737579D-14 -0.18238093D-14 -0.24023362D-14 -0.27505213D-14
 -0.25168001D-14 -0.16019136D-14 -0.55318198D-15 -0.61765883D-16 -0.78198538D-18
 -0.14191843D-18 -0.11140888D-20  0.24382666D-04  0.34911919D-04  0.45986260D-04
  0.52651326D-04  0.48177363D-04  0.30664324D-04  0.10589180D-04  0.11823416D-05
  0.14969005D-07  0.27166464D-08  0.21326231D-10 -0.40635093D-14 -0.58565994D-14
 -0.77787508D-14 -0.91667790D-14 -0.87525622D-14 -0.59767763D-14 -0.18931213D-14
  0.89237365D-15  0.92509852D-15  0.24339043D-15 -0.16149840D-18  0.61053378D-14
  0.87994182D-14  0.11687410D-13  0.13772894D-13  0.13150542D-13  0.89799814D-14
  0.28443751D-14 -0.13407727D-14 -0.13899412D-14 -0.36568903D-15  0.24264796D-18
 -0.38898546D-04 -0.56063168D-04 -0.74463248D-04 -0.87750354D-04 -0.83785202D-04
 -0.57213579D-04 -0.18122184D-04  0.85423793D-05  0.88556430D-05  0.23298910D-05
 -0.15459674D-08  0.31180328D-14  0.44656031D-14  0.59722784D-14  0.70163466D-14
  0.67796656D-14  0.46217715D-14  0.14775300D-14 -0.87626842D-15 -0.85032026D-15
 -0.28735350D-15  0.10748759D-15 -0.47254368D-14 -0.67677047D-14 -0.90510992D-14
 -0.10633404D-13 -0.10274710D-13 -0.70043809D-14 -0.22392243D-14  0.13280011D-14
  0.12886762D-14  0.43548958D-15 -0.16289945D-15  0.29531027D-04  0.42293926D-04
  0.56563714D-04  0.66452131D-04  0.64210514D-04  0.43773004D-04  0.13993753D-04
 -0.82991772D-05 -0.80534211D-05 -0.27215377D-05  0.10180198D-05 -0.25437797D-16
  0.31188650D-16 -0.88383050D-06  0.41075080D-16 -0.17078509D-16  0.18156848D-06
  0.55658523D-19 -0.91729365D-18  0.22834170D-07 -0.20086859D-05 -0.20205268D-05
 -0.16146593D-05 -0.98880426D-06 -0.41484599D-06 -0.11310211D-06 -0.18504072D-07
  0.92632045D-06  0.93178095D-06  0.74461215D-06  0.45599444D-06  0.19130931D-06
  0.52157880D-07  0.85332904D-08  0.10823655D-05  0.10887458D-05  0.87004716D-06
  0.53280982D-06  0.22353668D-06  0.60944232D-07  0.99707816D-08 -0.12487281D-15
 -0.12560892D-15 -0.10037759D-15 -0.61470421D-16 -0.25789490D-16 -0.70311534D-17
 -0.11503319D-17 -0.51874613D-15 -0.52180405D-15 -0.41698817D-15 -0.25536017D-15
 -0.10713459D-15 -0.29208789D-16 -0.47787041D-17 -0.49190999D-15 -0.49480971D-15
 -0.39541624D-15 -0.24214970D-15 -0.10159223D-15 -0.27697739D-16 -0.45314888D-17
 -0.29828743D-08  0.60574167D-07 -0.57591292D-07  0.89585964D-17  0.38746262D-16
  0.24672071D-16  0.29531081D-06 -0.37452743D-06  0.79216619D-07 -0.20643343D-16
  0.62651993D-16  0.76572648D-16  0.70963156D-08 -0.11770972D-07  0.46746569D-08
  0.16267283D-17 -0.43078780D-17  0.11718972D-17  0.64147094D-17 -0.12626811D-16
 -0.89029569D-07 -0.26113146D-16  0.35681053D-16  0.15182468D-05  0.68690184D-17
  0.21993805D-17 -0.12511581D-05  0.18358046D-17  0.20516886D-17  0.60993355D-17
 -0.73070590D-09 -0.52642510D-17 -0.24581331D-17 -0.27026961D-06 -0.89081481D-18
 -0.15839873D-16  0.27246173D-06  0.60947881D-17  0.19101923D-06  0.34451105D-06
  0.50798134D-06 -0.14830011D-05  0.30547934D-05 -0.15111514D-06 -0.18730968D-06
  0.12429704D-17 -0.30505637D-07  0.19518414D-05 -0.11501007D-16  0.14057715D-05
 -0.23786319D-06 -0.20289417D-17 -0.21599731D-06 -0.85103338D-06  0.89468087D-06
 -0.43647483D-07  0.36899995D-16 -0.27064558D-05 -0.43844741D-17 -0.19773166D-06
  0.22517707D-06 -0.27445414D-07 -0.89739514D-17 -0.49690760D-06  0.74716837D-17
  0.19101923D-06  0.34451105D-06  0.50798134D-06 -0.14830011D-05  0.30547934D-05
 -0.15111514D-06  0.18730968D-06  0.93229814D-17 -0.30505636D-07 -0.19518414D-05
 -0.20264538D-16  0.14057715D-05  0.23786319D-06  0.93163892D-17 -0.21599731D-06
 -0.85103338D-06  0.89468087D-06 -0.43647483D-07 -0.44223873D-16  0.27064558D-05
  0.25869281D-17 -0.19773166D-06  0.22517707D-06 -0.27445414D-07  0.12364695D-16
  0.49690760D-06  0.91305057D-17  0.18278445D-06  0.34075177D-06  0.57593052D-06
  0.86581222D-06  0.10637503D-05  0.89850722D-06  0.33888386D-06 -0.16771552D-08
 -0.13585193D-06 -0.25435767D-06 -0.43306570D-06 -0.66988679D-06 -0.88221734D-06
 -0.91668033D-06 -0.58250920D-06  0.39038412D-06 -0.98788427D-07  0.43636432D-05
  0.28342916D-06  0.30529333D-16  0.28623190D-16  0.20381417D-16 -0.80503841D-06
 -0.75477469D-06 -0.53744454D-06  0.40468193D-06  0.37941503D-06  0.27016611D-06
 -0.11546419D-15  0.13788381D-06  0.43600307D-06 -0.83728765D-17 -0.86156776D-06
  0.73724034D-06 -0.13088950D-17 -0.70235701D-08  0.31448412D-07 -0.57993680D-06
  0.58528172D-06 -0.53449142D-08  0.36136648D-16  0.26578038D-16 -0.15306773D-05
  0.69929017D-06 -0.73675927D-06  0.37469097D-07 -0.50474424D-16  0.71382889D-16
  0.25140069D-05 -0.48607911D-07 -0.23204233D-07  0.71812144D-07 -0.47028266D-16
  0.18505551D-16 -0.37717953D-07  0.20170107D-17  0.13268343D-06  0.19486885D-06
  0.10001771D-16 -0.85438443D-06 -0.43687885D-06 -0.16052803D-16  0.45633413D-06
 -0.14772770D-06  0.21440441D-16 -0.20220054D-17  0.72081872D-07  0.20499805D-06
  0.58496685D-17 -0.66529797D-06 -0.26421247D-06  0.21634756D-18  0.44905236D-06
 -0.35078169D-06  0.56322065D-18 -0.29111938D-07 -0.52504579D-07 -0.77417972D-07
 -0.13999748D-05  0.41874877D-06  0.38175153D-07 -0.36556384D-06 -0.14991609D-06
 -0.14343285D-06  0.19475725D-06  0.12347176D-05 -0.65877190D-06 -0.89145852D-09
 -0.43318011D-07  0.11656680D-06  0.38833008D-06 -0.19125161D-06 -0.19707847D-06
  0.82947070D-06 -0.17869354D-06  0.83273068D-06  0.64839894D-07 -0.46382618D-07
 -0.18457277D-07  0.70608192D-08 -0.68046282D-08  0.27472429D-06 -0.22568462D-07
 -0.40703150D-07 -0.60016771D-07 -0.21318292D-05  0.24070101D-06 -0.55838258D-07
  0.31698728D-17  0.30822048D-06  0.44626259D-06  0.32182796D-17  0.13457912D-05
 -0.78716666D-06  0.18693465D-16 -0.22214306D-07 -0.69476831D-07  0.22213072D-06
 -0.72121762D-06  0.49908690D-06 -0.20051267D-16  0.24540258D-17  0.51439203D-06
  0.86568557D-07 -0.78669678D-07 -0.78988781D-08  0.82691816D-17 -0.11886162D-16
  0.15157238D-06 -0.29111938D-07 -0.52504579D-07 -0.77417972D-07 -0.13999748D-05
  0.41874877D-06  0.38175153D-07  0.36556384D-06 -0.14991609D-06 -0.14343285D-06
 -0.19475725D-06  0.12347176D-05 -0.65877190D-06  0.89145847D-09 -0.43318011D-07
  0.11656680D-06  0.38833008D-06 -0.19125161D-06 -0.19707847D-06 -0.82947070D-06
  0.17869354D-06  0.83273068D-06  0.64839894D-07 -0.46382618D-07 -0.18457277D-07
 -0.70608193D-08  0.68046282D-08  0.27472429D-06  0.18278445D-06  0.34075177D-06
  0.57593052D-06  0.86581222D-06  0.10637503D-05  0.89850722D-06  0.33888387D-06
 -0.16771552D-08 -0.13585193D-06 -0.25435767D-06 -0.43306570D-06 -0.66988679D-06
 -0.88221734D-06 -0.91668033D-06 -0.58250920D-06  0.39038412D-06 -0.98788427D-07
  0.43636432D-05  0.28342916D-06  0.46003041D-16  0.43130775D-16  0.30711681D-16
  0.80503842D-06  0.75477469D-06  0.53744454D-06  0.40468193D-06  0.37941503D-06
  0.27016611D-06 -0.18240839D-15 -0.13788381D-06  0.43600308D-06 -0.17279971D-15
  0.86156776D-06  0.73724034D-06 -0.16488114D-17  0.70235701D-08  0.31448412D-07
 -0.57993680D-06  0.58528172D-06 -0.53449142D-08 -0.63783335D-17  0.39199597D-16
  0.15306773D-05  0.69929017D-06 -0.73675927D-06  0.37469097D-07  0.55295671D-17
  0.16106435D-15 -0.25140069D-05 -0.48607911D-07 -0.23204233D-07  0.71812144D-07
 -0.14978904D-17  0.40097787D-16  0.37717953D-07 -0.49918201D-17 -0.13268343D-06
  0.19486885D-06  0.41553012D-16  0.85438444D-06 -0.43687885D-06 -0.26577552D-16
 -0.45633413D-06 -0.14772770D-06 -0.46120233D-17  0.54698908D-18 -0.72081872D-07
  0.20499805D-06  0.12751112D-16  0.66529797D-06 -0.26421247D-06 -0.14392079D-16
 -0.44905236D-06 -0.35078169D-06 -0.64706889D-17 -0.22568462D-07 -0.40703150D-07
 -0.60016771D-07 -0.21318292D-05  0.24070101D-06 -0.55838258D-07 -0.33812164D-17
 -0.30822048D-06  0.44626259D-06 -0.15089931D-16 -0.13457912D-05 -0.78716666D-06
 -0.19517176D-16  0.22214305D-07 -0.69476831D-07  0.22213072D-06 -0.72121762D-06
  0.49908690D-06 -0.59488654D-17  0.99422373D-17 -0.51439203D-06  0.86568557D-07
 -0.78669678D-07 -0.78988781D-08 -0.77970078D-17 -0.24815534D-17 -0.15157238D-06
 -0.29111938D-07 -0.52504579D-07 -0.77417972D-07 -0.13999748D-05  0.41874877D-06
  0.38175153D-07 -0.36556384D-06  0.14991609D-06 -0.14343285D-06  0.19475725D-06
 -0.12347176D-05 -0.65877190D-06 -0.89145837D-09  0.43318011D-07  0.11656680D-06
  0.38833008D-06 -0.19125161D-06 -0.19707847D-06 -0.82947070D-06 -0.17869354D-06
 -0.83273068D-06  0.64839894D-07 -0.46382618D-07 -0.18457277D-07 -0.70608193D-08
 -0.68046281D-08 -0.27472429D-06 -0.29111938D-07 -0.52504579D-07 -0.77417972D-07
 -0.13999748D-05  0.41874877D-06  0.38175153D-07  0.36556384D-06  0.14991609D-06
 -0.14343285D-06 -0.19475725D-06 -0.12347176D-05 -0.65877190D-06  0.89145825D-09
  0.43318011D-07  0.11656680D-06  0.38833008D-06 -0.19125161D-06 -0.19707847D-06
  0.82947070D-06  0.17869354D-06 -0.83273068D-06  0.64839894D-07 -0.46382618D-07
 -0.18457277D-07  0.70608193D-08  0.68046281D-08 -0.27472429D-06
MO    2     MO 0.0        OCC NO =    2.0000000  ORB. ENERGY =  -52.115740
  0.32273659D-05  0.60262782D-05  0.10444190D-04  0.17105463D-04  0.26754268D-04
  0.40056957D-04  0.56785454D-04  0.74023472D-04  0.83077745D-04  0.70630430D-04
  0.35237813D-04  0.65513972D-05  0.15392231D-06  0.22313898D-07 -0.59136855D-08
  0.12284932D-08 -0.33721557D-09 -0.21327098D-10 -0.23371445D+00 -0.43785625D+00
 -0.75767112D+00 -0.12407349D+01 -0.19495420D+01 -0.29390995D+01 -0.42642961D+01
 -0.58150529D+01 -0.72564074D+01 -0.75714707D+01 -0.54832166D+01 -0.38737244D+00
  0.39711800D+01  0.27996813D+01  0.39640059D+00  0.35909479D-02  0.18028559D-02
  0.61291127D-04  0.19339953D-04  0.35692978D-04  0.61704469D-04  0.10114021D-03
  0.15899409D-03  0.23993396D-03  0.34903504D-03  0.47883289D-03  0.60532056D-03
  0.64965032D-03  0.49575876D-03  0.38691598D-04 -0.50010529D-03 -0.53143912D-03
  0.65136106D-05  0.24200074D-03  0.87543084D-04 -0.40411916D-06 -0.34481588D-05
 -0.74705153D-05 -0.12718484D-04 -0.20817613D-04 -0.32699102D-04 -0.49370266D-04
 -0.71817009D-04 -0.98649930D-04 -0.12486020D-03 -0.13463236D-03 -0.10333860D-03
 -0.84040020D-05  0.10971568D-03  0.12279048D-03 -0.38905616D-05 -0.72756061D-04
 -0.49720753D-04  0.19621294D-04 -0.23373447D-03  0.75569174D-04 -0.57193623D-05
  0.41474070D-14  0.59383964D-14  0.78221034D-14  0.89558081D-14  0.81948025D-14
  0.52158952D-14  0.18011828D-14  0.20111220D-15  0.25461759D-17  0.46209213D-18
  0.36275180D-20 -0.15906932D-13 -0.22776078D-13 -0.30000833D-13 -0.34349036D-13
 -0.31430281D-13 -0.20005003D-13 -0.69082422D-14 -0.77134414D-15 -0.97655827D-17
 -0.17723045D-17 -0.13912954D-19  0.36028062D-02  0.51586186D-02  0.67949739D-02
  0.77798105D-02  0.71187334D-02  0.45309899D-02  0.15646674D-02  0.17470392D-03
  0.22118345D-05  0.40141428D-06  0.31511844D-08 -0.23371186D-13 -0.33684105D-13
 -0.44739317D-13 -0.52722531D-13 -0.50340172D-13 -0.34375299D-13 -0.10888246D-13
  0.51324677D-14  0.53206841D-14  0.13998548D-14 -0.92885452D-18  0.82146827D-13
  0.11839546D-12  0.15725317D-12  0.18531318D-12  0.17693948D-12  0.12082493D-12
  0.38270838D-13 -0.18039989D-13 -0.18701547D-13 -0.49203164D-14  0.32648088D-17
  0.54009172D-03  0.77841605D-03  0.10338942D-02  0.12183807D-02  0.11633261D-02
  0.79438907D-03  0.25161973D-03 -0.11860773D-03 -0.12295728D-03 -0.32349663D-04
  0.21465177D-07  0.17707669D-13  0.25360677D-13  0.33917260D-13  0.39846644D-13
  0.38502505D-13  0.26247575D-13  0.83910640D-14 -0.49764297D-14 -0.48290672D-14
 -0.16319138D-14  0.61043449D-15 -0.66675744D-13 -0.95492072D-13 -0.12771069D-12
 -0.15003695D-12 -0.14497578D-12 -0.98831564D-13 -0.31595375D-13  0.18738048D-13
  0.18183175D-13  0.61447424D-14 -0.22985055D-14 -0.44329979D-03 -0.63488778D-03
 -0.84909619D-03 -0.99753440D-03 -0.96388477D-03 -0.65709070D-03 -0.21006474D-03
  0.12458163D-03  0.12089251D-03  0.40853882D-04 -0.15281824D-04 -0.33153722D-15
  0.22323252D-15  0.10359243D-04  0.14622434D-14 -0.11315361D-13  0.43056738D-05
  0.71453286D-16 -0.35182239D-15 -0.89736520D-07  0.33022474D-03  0.33217135D-03
  0.26544739D-03  0.16255783D-03  0.68200013D-04  0.18593805D-04  0.30420397D-05
 -0.31674920D-03 -0.31861638D-03 -0.25461523D-03 -0.15592430D-03 -0.65416963D-04
 -0.17835045D-04 -0.29179026D-05 -0.13475539D-04 -0.13554974D-04 -0.10832158D-04
 -0.66335258D-05 -0.27830499D-05 -0.75876066D-06 -0.12413704D-06  0.21662730D-14