 Molden2AIM, Version 4.0.0 (06/02/2016)           Time: Thu Jun 28 00:10:51 2018
GAUSSIAN             11 MOL ORBITALS    252 PRIMITIVES        4 NUCLEI
  C    1    (CENTRE  1)   0.00000000  0.00000000  1.03834025  CHARGE =  6.0
  C    2    (CENTRE  2)   0.00000000  0.00000000 -1.23581663  CHARGE =  6.0
  F    3    (CENTRE  3)   0.00000000  0.00000000  3.45401495  CHARGE =  9.0
  H    4    (CENTRE  4)   0.00000000  0.00000000 -3.25653857  CHARGE =  1.0
CENTRE ASSIGNMENTS    1  1  1  1  1  1  1  1  1  1  1  1  1  1  1  1  1  1  1  1
CENTRE ASSIGNMENTS    1  1  1  1  1  1  1  1  1  1  1  1  1  1  1  1  1  1  1  1
CENTRE ASSIGNMENTS    1  1  1  1  1  1  1  1  1  1  1  1  1  1  1  1  1  1  1  1
CENTRE ASSIGNMENTS    1  1  1  1  1  1  1  1  1  1  1  1  1  1  1  2  2  2  2  2
CENTRE ASSIGNMENTS    2  2  2  2  2  2  2  2  2  2  2  2  2  2  2  2  2  2  2  2
CENTRE ASSIGNMENTS    2  2  2  2  2  2  2  2  2  2  2  2  2  2  2  2  2  2  2  2
CENTRE ASSIGNMENTS    2  2  2  2  2  2  2  2  2  2  2  2  2  2  2  2  2  2  2  2
CENTRE ASSIGNMENTS    2  2  2  2  2  2  2  2  2  2  3  3  3  3  3  3  3  3  3  3
CENTRE ASSIGNMENTS    3  3  3  3  3  3  3  3  3  3  3  3  3  3  3  3  3  3  3  3
CENTRE ASSIGNMENTS    3  3  3  3  3  3  3  3  3  3  3  3  3  3  3  3  3  3  3  3
CENTRE ASSIGNMENTS    3  3  3  3  3  3  3  3  3  3  3  3  3  3  3  3  3  3  3  3
CENTRE ASSIGNMENTS    3  3  3  3  3  4  4  4  4  4  4  4  4  4  4  4  4  4  4  4
CENTRE ASSIGNMENTS    4  4  4  4  4  4  4  4  4  4  4  4
TYPE ASSIGNMENTS      1  1  1  1  1  1  1  1  1  1  1  1  1  1  1  1  1  1  1  2
TYPE ASSIGNMENTS      2  2  3  3  3  4  4  4  2  3  4  2  3  4  2  3  4  5  6  7
TYPE ASSIGNMENTS      8  9 10  5  6  7  8  9 10  5  6  7  8  9 10 11 12 13 17 14
TYPE ASSIGNMENTS     15 18 19 16 20 11 12 13 17 14 15 18 19 16 20  1  1  1  1  1
TYPE ASSIGNMENTS      1  1  1  1  1  1  1  1  1  1  1  1  1  1  2  2  2  3  3  3
TYPE ASSIGNMENTS      4  4  4  2  3  4  2  3  4  2  3  4  5  6  7  8  9 10  5  6
TYPE ASSIGNMENTS      7  8  9 10  5  6  7  8  9 10 11 12 13 17 14 15 18 19 16 20
TYPE ASSIGNMENTS     11 12 13 17 14 15 18 19 16 20  1  1  1  1  1  1  1  1  1  1
TYPE ASSIGNMENTS      1  1  1  1  1  1  1  1  1  2  2  2  3  3  3  4  4  4  2  3
TYPE ASSIGNMENTS      4  2  3  4  2  3  4  5  6  7  8  9 10  5  6  7  8  9 10  5
TYPE ASSIGNMENTS      6  7  8  9 10 11 12 13 17 14 15 18 19 16 20 11 12 13 17 14
TYPE ASSIGNMENTS     15 18 19 16 20  1  1  1  1  1  1  2  3  4  2  3  4  2  3  4
TYPE ASSIGNMENTS      5  6  7  8  9 10  5  6  7  8  9 10
EXPONENTS  0.8236000D+04 0.1235000D+04 0.2808000D+03 0.7927000D+02 0.2559000D+02
EXPONENTS  0.8997000D+01 0.3319000D+01 0.3643000D+00 0.8236000D+04 0.1235000D+04
EXPONENTS  0.2808000D+03 0.7927000D+02 0.2559000D+02 0.8997000D+01 0.3319000D+01
EXPONENTS  0.3643000D+00 0.9059000D+00 0.1285000D+00 0.4402000D-01 0.1871000D+02
EXPONENTS  0.4133000D+01 0.1200000D+01 0.1871000D+02 0.4133000D+01 0.1200000D+01
EXPONENTS  0.1871000D+02 0.4133000D+01 0.1200000D+01 0.3827000D+00 0.3827000D+00
EXPONENTS  0.3827000D+00 0.1209000D+00 0.1209000D+00 0.1209000D+00 0.3569000D-01
EXPONENTS  0.3569000D-01 0.3569000D-01 0.1097000D+01 0.1097000D+01 0.1097000D+01
EXPONENTS  0.1097000D+01 0.1097000D+01 0.1097000D+01 0.3180000D+00 0.3180000D+00
EXPONENTS  0.3180000D+00 0.3180000D+00 0.3180000D+00 0.3180000D+00 0.1000000D+00
EXPONENTS  0.1000000D+00 0.1000000D+00 0.1000000D+00 0.1000000D+00 0.1000000D+00
EXPONENTS  0.7610000D+00 0.7610000D+00 0.7610000D+00 0.7610000D+00 0.7610000D+00
EXPONENTS  0.7610000D+00 0.7610000D+00 0.7610000D+00 0.7610000D+00 0.7610000D+00
EXPONENTS  0.2680000D+00 0.2680000D+00 0.2680000D+00 0.2680000D+00 0.2680000D+00
EXPONENTS  0.2680000D+00 0.2680000D+00 0.2680000D+00 0.2680000D+00 0.2680000D+00
EXPONENTS  0.8236000D+04 0.1235000D+04 0.2808000D+03 0.7927000D+02 0.2559000D+02
EXPONENTS  0.8997000D+01 0.3319000D+01 0.3643000D+00 0.8236000D+04 0.1235000D+04
EXPONENTS  0.2808000D+03 0.7927000D+02 0.2559000D+02 0.8997000D+01 0.3319000D+01
EXPONENTS  0.3643000D+00 0.9059000D+00 0.1285000D+00 0.4402000D-01 0.1871000D+02
EXPONENTS  0.4133000D+01 0.1200000D+01 0.1871000D+02 0.4133000D+01 0.1200000D+01
EXPONENTS  0.1871000D+02 0.4133000D+01 0.1200000D+01 0.3827000D+00 0.3827000D+00
EXPONENTS  0.3827000D+00 0.1209000D+00 0.1209000D+00 0.1209000D+00 0.3569000D-01
EXPONENTS  0.3569000D-01 0.3569000D-01 0.1097000D+01 0.1097000D+01 0.1097000D+01
EXPONENTS  0.1097000D+01 0.1097000D+01 0.1097000D+01 0.3180000D+00 0.3180000D+00
EXPONENTS  0.3180000D+00 0.3180000D+00 0.3180000D+00 0.3180000D+00 0.1000000D+00
EXPONENTS  0.1000000D+00 0.1000000D+00 0.1000000D+00 0.1000000D+00 0.1000000D+00
EXPONENTS  0.7610000D+00 0.7610000D+00 0.7610000D+00 0.7610000D+00 0.7610000D+00
EXPONENTS  0.7610000D+00 0.7610000D+00 0.7610000D+00 0.7610000D+00 0.7610000D+00
EXPONENTS  0.2680000D+00 0.2680000D+00 0.2680000D+00 0.2680000D+00 0.2680000D+00
EXPONENTS  0.2680000D+00 0.2680000D+00 0.2680000D+00 0.2680000D+00 0.2680000D+00
EXPONENTS  0.1950000D+05 0.2923000D+04 0.6645000D+03 0.1875000D+03 0.6062000D+02
EXPONENTS  0.2142000D+02 0.7950000D+01 0.8815000D+00 0.1950000D+05 0.2923000D+04
EXPONENTS  0.6645000D+03 0.1875000D+03 0.6062000D+02 0.2142000D+02 0.7950000D+01
EXPONENTS  0.8815000D+00 0.2257000D+01 0.3041000D+00 0.9158000D-01 0.4388000D+02
EXPONENTS  0.9926000D+01 0.2930000D+01 0.4388000D+02 0.9926000D+01 0.2930000D+01
EXPONENTS  0.4388000D+02 0.9926000D+01 0.2930000D+01 0.9132000D+00 0.9132000D+00
EXPONENTS  0.9132000D+00 0.2672000D+00 0.2672000D+00 0.2672000D+00 0.7361000D-01
EXPONENTS  0.7361000D-01 0.7361000D-01 0.3107000D+01 0.3107000D+01 0.3107000D+01
EXPONENTS  0.3107000D+01 0.3107000D+01 0.3107000D+01 0.8550000D+00 0.8550000D+00
EXPONENTS  0.8550000D+00 0.8550000D+00 0.8550000D+00 0.8550000D+00 0.2920000D+00
EXPONENTS  0.2920000D+00 0.2920000D+00 0.2920000D+00 0.2920000D+00 0.2920000D+00
EXPONENTS  0.1917000D+01 0.1917000D+01 0.1917000D+01 0.1917000D+01 0.1917000D+01
EXPONENTS  0.1917000D+01 0.1917000D+01 0.1917000D+01 0.1917000D+01 0.1917000D+01
EXPONENTS  0.7240000D+00 0.7240000D+00 0.7240000D+00 0.7240000D+00 0.7240000D+00
EXPONENTS  0.7240000D+00 0.7240000D+00 0.7240000D+00 0.7240000D+00 0.7240000D+00
EXPONENTS  0.3387000D+02 0.5095000D+01 0.1159000D+01 0.3258000D+00 0.1027000D+00
EXPONENTS  0.2526000D-01 0.1407000D+01 0.1407000D+01 0.1407000D+01 0.3880000D+00
EXPONENTS  0.3880000D+00 0.3880000D+00 0.1020000D+00 0.1020000D+00 0.1020000D+00
EXPONENTS  0.1057000D+01 0.1057000D+01 0.1057000D+01 0.1057000D+01 0.1057000D+01
EXPONENTS  0.1057000D+01 0.2470000D+00 0.2470000D+00 0.2470000D+00 0.2470000D+00
EXPONENTS  0.2470000D+00 0.2470000D+00
MO    1     MO 0.0        OCC NO =    2.0000000  ORB. ENERGY =  -26.387420
 -0.61121969D-05 -0.11394525D-04 -0.19258754D-04 -0.28952216D-04 -0.35571143D-04
 -0.30045516D-04 -0.11332063D-04  0.56083014D-07 -0.67323223D-05 -0.12605031D-04
 -0.21461145D-04 -0.33197127D-04 -0.43719449D-04 -0.45427308D-04 -0.28867015D-04
  0.19346002D-04 -0.31236664D-03  0.92175565D-03  0.11787255D-03  0.56692624D-17
  0.53152938D-17  0.37848059D-17 -0.29965675D-16 -0.28094725D-16 -0.20005118D-16
 -0.50605906D-03 -0.47446253D-03 -0.33784559D-03 -0.35677270D-17  0.11096936D-17
  0.11698011D-02 -0.17876680D-17  0.33074013D-18 -0.12165682D-03 -0.61078774D-20
  0.30847549D-19  0.28600147D-05 -0.40966401D-03 -0.40966401D-03  0.81932801D-03
  0.23261975D-18  0.73514451D-19 -0.79460436D-19 -0.90110421D-04 -0.90110421D-04
  0.18022084D-03  0.58423483D-20  0.32236040D-18 -0.18300710D-17  0.20015202D-05
  0.20015202D-05 -0.40030404D-05  0.36525482D-20  0.28143997D-18 -0.21305251D-18
  0.39405345D-18 -0.70312418D-18  0.59169692D-03  0.35447098D-18 -0.71903008D-18
 -0.88754537D-03 -0.15366313D-17  0.28284026D-17 -0.88754537D-03  0.28405222D-18
  0.10760618D-18  0.11710280D-19  0.95173052D-04  0.11172179D-18  0.12944654D-19
 -0.14275958D-03 -0.43454034D-18 -0.48075493D-19 -0.14275958D-03 -0.35317015D-19
  0.18862765D-03  0.35164483D-03  0.59434172D-03  0.89349028D-03  0.10977560D-02
  0.92723047D-03  0.34971722D-03 -0.17307700D-05 -0.14311875D-03 -0.26796345D-03
 -0.45623070D-03 -0.70571952D-03 -0.92940778D-03 -0.96571422D-03 -0.61366803D-03
  0.41126605D-03  0.45622050D-03 -0.11649639D-02 -0.10288636D-03 -0.11474538D-17
 -0.10758109D-17 -0.76604143D-18  0.50289338D-18  0.47149451D-18  0.33573218D-18
  0.38103820D-03  0.35724753D-03  0.25438152D-03  0.11611565D-17 -0.16880642D-17
  0.55167875D-03  0.10666861D-17 -0.88250244D-18 -0.16217970D-03  0.70702662D-20
 -0.33374592D-19 -0.14528798D-04 -0.15297143D-03 -0.15297143D-03  0.30594286D-03
  0.31874354D-20  0.38131846D-18 -0.10759547D-17  0.62754123D-04  0.62754123D-04
 -0.12550825D-03 -0.29827656D-19  0.13985110D-17 -0.12249791D-17  0.54260638D-05
  0.54260638D-05 -0.10852128D-04 -0.44779436D-21  0.52275325D-18 -0.30370185D-19
 -0.16787062D-18  0.46612359D-18 -0.26291476D-05 -0.13045909D-18  0.45414180D-18
  0.39437214D-05  0.63407095D-18 -0.18525126D-17  0.39437214D-05  0.49217859D-19
 -0.49221075D-19  0.81984410D-19  0.50699710D-04 -0.54420643D-19  0.83426639D-19
 -0.76049566D-04  0.20208387D-18 -0.32937987D-18 -0.76049566D-04 -0.18528842D-19
  0.59552395D+00  0.11100824D+01  0.18818626D+01  0.28496946D+01  0.35635532D+01
  0.30678873D+01  0.11794079D+01 -0.51105675D-02  0.44104263D-03  0.82819995D-03
  0.14102817D-02  0.22091979D-02  0.29605851D-02  0.31845084D-02  0.19119747D-02
 -0.12573950D-02  0.57673654D-01  0.33010993D-03 -0.85398936D-04  0.46304313D-17
  0.45284607D-17  0.29921455D-17  0.57174842D-16  0.55915746D-16  0.36945898D-16
 -0.11080760D-01 -0.10836741D-01 -0.71602928D-02 -0.58363354D-18 -0.69483607D-17
  0.25861143D-02  0.10981356D-17  0.15168919D-17  0.12445885D-04 -0.75725733D-19
  0.49311518D-19  0.76789455D-06 -0.11248328D-03 -0.11248328D-03  0.22496656D-03
  0.30584386D-17 -0.28657805D-17 -0.34511531D-17  0.46492081D-03  0.46492081D-03
 -0.92984161D-03  0.75115785D-19 -0.12863822D-17  0.19052713D-17 -0.22294994D-04
 -0.22294994D-04  0.44589988D-04  0.85969279D-20 -0.74256090D-18 -0.64016508D-18
  0.32416872D-18  0.49473717D-18  0.39506837D-03  0.57013175D-17  0.16365932D-18
 -0.59260256D-03 -0.66738237D-17 -0.16478708D-17 -0.59260256D-03 -0.32914188D-17
 -0.66232358D-18  0.91961649D-21  0.53270566D-04 -0.40871147D-18  0.14962353D-18
 -0.79905848D-04  0.23956822D-17 -0.15238238D-18 -0.79905848D-04  0.15320879D-18
  0.12768439D-04  0.23028406D-04  0.33955371D-04  0.63862113D-03  0.18429669D-03
 -0.70502098D-05  0.27208154D-19  0.10627117D-18 -0.33870020D-04  0.89029765D-19
  0.47245355D-18  0.26027824D-03  0.58541713D-18  0.18002297D-18  0.49866281D-04
  0.22313353D-04  0.22313353D-04 -0.44626706D-04  0.10627706D-19  0.73178685D-19
  0.92565638D-18 -0.10994352D-04 -0.10994352D-04  0.21988704D-04 -0.44030532D-20
  0.20180007D-18  0.15733316D-18
MO    2     MO 0.0        OCC NO =    2.0000000  ORB. ENERGY =  -11.343513
  0.32729111D+00  0.61014505D+00  0.10312526D+01  0.15503105D+01  0.19047355D+01
  0.16088537D+01  0.60680041D+00 -0.30030891D-02 -0.44003299D-03 -0.82388059D-03
 -0.14027272D-02 -0.21698057D-02 -0.28575577D-02 -0.29691855D-02 -0.18867841D-02
  0.12644788D-02  0.28677057D-01  0.21989303D-02 -0.12472492D-02 -0.11863269D-16
 -0.11122569D-16 -0.79199314D-17 -0.16404016D-16 -0.15379808D-16 -0.10951339D-16
  0.75606147D-02  0.70885569D-02  0.50474748D-02  0.26031654D-17  0.92300872D-17
 -0.42991688D-02  0.55281130D-18  0.38232385D-17 -0.19122717D-02 -0.40605351D-20
  0.70647791D-20  0.58694566D-04 -0.14388630D-02 -0.14388630D-02  0.28777260D-02
  0.27399479D-17  0.20137453D-17 -0.14938398D-17  0.37736630D-03  0.37736630D-03
 -0.75473260D-03  0.53423506D-19 -0.93725834D-18 -0.25467261D-17  0.27717589D-04
  0.27717589D-04 -0.55435177D-04 -0.48953006D-21 -0.11265689D-18 -0.53354003D-18
  0.69729555D-20 -0.11247715D-17 -0.67836894D-03 -0.47535986D-18 -0.11312857D-17
  0.10175534D-02  0.45444100D-18  0.45056003D-17  0.10175534D-02  0.37877745D-18
 -0.48406227D-19 -0.43963842D-18 -0.18892764D-03 -0.78344648D-19 -0.44769902D-18
  0.28339145D-03  0.22356333D-18  0.17666143D-17  0.28339145D-03 -0.87104210D-19
  0.60876495D-02  0.11348763D-01  0.19181408D-01  0.28835940D-01  0.35428284D-01
  0.29924849D-01  0.11286552D-01 -0.55857776D-04  0.27652398D-03  0.51774013D-03
  0.88149687D-03  0.13635416D-02  0.17957364D-02  0.18658851D-02  0.11856862D-02
 -0.79461933D-03  0.27989188D-03 -0.12519513D-02  0.99276144D-03  0.36958196D-18
  0.34650658D-18  0.24673332D-18  0.27868292D-17  0.26128295D-17  0.18604902D-17
  0.95824410D-04  0.89841475D-04  0.63972483D-04 -0.14255319D-17 -0.55980477D-17
 -0.13981782D-02 -0.49669482D-18 -0.27071572D-17 -0.24073454D-02  0.39052692D-20
 -0.11372027D-19  0.60519168D-04  0.35193220D-03  0.35193220D-03 -0.70386440D-03
 -0.51520029D-18 -0.90354815D-18 -0.13126553D-17  0.21155082D-03  0.21155082D-03
 -0.42310164D-03 -0.10814185D-18 -0.12003212D-17 -0.51608176D-17  0.15101368D-04
  0.15101368D-04 -0.30202735D-04  0.45988418D-20 -0.11542920D-18 -0.83501316D-18
  0.15100655D-18  0.58540159D-18  0.12455493D-03  0.34979474D-18  0.51093110D-18
 -0.18683240D-03 -0.80281439D-18 -0.22671359D-17 -0.18683240D-03 -0.34443103D-18
  0.29891413D-19  0.15868036D-18 -0.20136045D-03  0.45977458D-19  0.16379003D-18
  0.30204067D-03 -0.13565170D-18 -0.63983112D-18  0.30204067D-03 -0.69168720D-19
  0.11364004D-03  0.21182996D-03  0.35910386D-03  0.54378907D-03  0.68001015D-03
  0.58542539D-03  0.22505889D-03 -0.97521703D-06 -0.17427413D-03 -0.32725595D-03
 -0.55726044D-03 -0.87294518D-03 -0.11698492D-02 -0.12583306D-02 -0.75550003D-03
  0.49684860D-03 -0.17213091D-05  0.34554122D-02  0.17980813D-02  0.60148340D-19
  0.58823763D-19  0.38867347D-19  0.15877422D-17  0.15527772D-17  0.10259856D-17
 -0.98578114D-03 -0.96407242D-03 -0.63700341D-03 -0.23400558D-18 -0.25809718D-18
 -0.25558828D-02 -0.20745453D-18 -0.30358149D-17 -0.12602295D-02  0.43851619D-19
  0.10925625D-18 -0.17255387D-03 -0.74384441D-03 -0.74384441D-03  0.14876888D-02
  0.39488566D-18 -0.10431446D-17 -0.25825466D-17 -0.13648468D-03 -0.13648468D-03
  0.27296936D-03  0.22058665D-18  0.67123449D-18  0.22452975D-17 -0.12207351D-04
 -0.12207351D-04  0.24414703D-04  0.67896495D-19  0.87628016D-19  0.18227225D-17
  0.16463988D-18 -0.60614436D-18 -0.92133714D-03  0.78927328D-19 -0.30538217D-18
  0.13820057D-02 -0.57284696D-18  0.21238152D-17  0.13820057D-02  0.11610942D-18
  0.29458819D-19  0.60640895D-18  0.50625135D-03  0.21039776D-18  0.57798383D-18
 -0.75937702D-03 -0.29877421D-18 -0.23972107D-17 -0.75937702D-03 -0.42536909D-18
  0.20776703D-04  0.37471640D-04  0.55251912D-04 -0.11874968D-02 -0.25797374D-02
  0.43326923D-04  0.19049886D-18  0.75243140D-18  0.15171448D-03 -0.86171132D-19
 -0.57139635D-18 -0.10528007D-03 -0.10976225D-18 -0.74533663D-18 -0.44197016D-03
 -0.50155817D-04 -0.50155817D-04  0.10031163D-03 -0.34072688D-19  0.27715353D-18
  0.68018457D-18  0.18020385D-04  0.18020385D-04 -0.36040770D-04 -0.23389644D-19
 -0.10243996D-18 -0.50111381D-18
MO    3     MO 0.0        OCC NO =    2.0000000  ORB. ENERGY =  -11.251972
 -0.69191621D-02 -0.12898891D-01 -0.21801399D-01 -0.32774643D-01 -0.40267436D-01
 -0.34012287D-01 -0.12828183D-01  0.63487395D-04  0.95318168D-04  0.17846568D-03
  0.30385310D-03  0.47001454D-03  0.61899262D-03  0.64317298D-03  0.40870755D-03
 -0.27390630D-03 -0.24243514D-03 -0.31455160D-02  0.19774706D-03 -0.18255835D-15
 -0.17116005D-15 -0.12187615D-15  0.37988853D-15  0.35616964D-15  0.25361400D-15
 -0.10013868D-02 -0.93886381D-03 -0.66852697D-03  0.14589534D-16  0.62604019D-17
  0.80971665D-03 -0.15149007D-16  0.76589021D-17  0.19307513D-02 -0.25147505D-18
  0.21555465D-18 -0.21420180D-04  0.21214614D-03  0.21214614D-03 -0.42429227D-03
 -0.33917189D-18 -0.16260608D-17  0.11529708D-17  0.31463861D-03  0.31463861D-03
 -0.62927722D-03  0.72033299D-19 -0.11279896D-16 -0.12025466D-16  0.12203788D-04
  0.12203788D-04 -0.24407576D-04 -0.22131892D-20  0.98199504D-18 -0.13228284D-17
  0.43429095D-18 -0.20031295D-17  0.29319183D-03  0.42230301D-18 -0.19652002D-17
 -0.43978774D-03 -0.17251759D-17  0.79745886D-17 -0.43978774D-03  0.15839331D-18
  0.19351094D-17 -0.30122704D-18  0.20536507D-03  0.19018230D-17 -0.30625915D-18
 -0.30804760D-03 -0.77071511D-17  0.12099403D-17 -0.30804760D-03 -0.12874109D-18
  0.32721298D+00  0.60999938D+00  0.10310064D+01  0.15499404D+01  0.19042808D+01
  0.16084696D+01  0.60665554D+00 -0.30023721D-02 -0.41427977D-03 -0.77566244D-03
 -0.13206317D-02 -0.20428164D-02 -0.26903173D-02 -0.27954120D-02 -0.17763589D-02
  0.11904744D-02  0.28874044D-01  0.17411298D-02 -0.35672091D-03  0.24059437D-16
  0.22557251D-16  0.16062107D-16  0.16539638D-16  0.15506961D-16  0.11041880D-16
 -0.20912602D-03 -0.19606893D-03 -0.13961276D-03  0.53982941D-17 -0.14556278D-16
  0.27462313D-02  0.67084445D-17 -0.78419240D-17  0.18557026D-02  0.28315497D-18
 -0.21880564D-18  0.53376198D-05 -0.14798437D-02 -0.14798437D-02  0.29596875D-02
 -0.18267750D-17  0.24439851D-17  0.77679225D-18  0.40246029D-03  0.40246029D-03
 -0.80492058D-03 -0.37223706D-18  0.50502628D-17 -0.10636572D-16  0.20285910D-04
  0.20285910D-04 -0.40571821D-04  0.74254125D-20  0.31110085D-17 -0.17239006D-17
  0.12771492D-17  0.11752819D-17  0.20651339D-03  0.12961776D-17  0.75509139D-18
 -0.30977008D-03 -0.51276252D-17 -0.42809370D-17 -0.30977008D-03 -0.11556776D-17
  0.19947896D-18  0.76935606D-18  0.13771173D-03  0.26059026D-18  0.77621913D-18
 -0.20656759D-03 -0.85902714D-18 -0.30842873D-17 -0.20656759D-03 -0.10449557D-18
 -0.12801758D-03 -0.23863032D-03 -0.40453705D-03 -0.61258832D-03 -0.76604385D-03
 -0.65949240D-03 -0.25353295D-03  0.10985998D-05  0.92865434D-04  0.17438484D-03
  0.29694730D-03  0.46516620D-03  0.62337743D-03  0.67052647D-03  0.40258321D-03
 -0.26475566D-03  0.55653585D-04 -0.70879185D-03 -0.80379578D-03  0.46365360D-17
  0.45344310D-17  0.29960903D-17 -0.16421419D-16 -0.16059789D-16 -0.10611382D-16
 -0.87285762D-04 -0.85363568D-04 -0.56403319D-04 -0.46071776D-17 -0.20313974D-17
  0.41285573D-03  0.21465024D-16  0.92631139D-18 -0.18426350D-03  0.58964326D-18
  0.17327540D-18  0.11159153D-03 -0.39783951D-04 -0.39783951D-04  0.79567902D-04
 -0.88068919D-19 -0.11834918D-16 -0.19156549D-17  0.96353784D-04  0.96353784D-04
 -0.19270757D-03 -0.97237261D-19  0.93056545D-18  0.21342569D-18 -0.52370840D-04
 -0.52370840D-04  0.10474168D-03  0.60892950D-19 -0.15463460D-16 -0.46750132D-18
  0.82462079D-17 -0.55633027D-18 -0.15493758D-03  0.80705709D-17 -0.53066812D-18
  0.23240637D-03 -0.32809194D-16  0.21996589D-17  0.23240637D-03  0.53642100D-18
 -0.30439365D-17  0.47920842D-18  0.81976862D-04 -0.29867746D-17  0.47665220D-18
 -0.12296529D-03  0.12118584D-16 -0.19142775D-17 -0.12296529D-03 -0.12641966D-18
  0.12858617D-03  0.23191046D-03  0.34195184D-03  0.32265337D-02  0.19518061D-02
  0.25194597D-04 -0.15397720D-17 -0.49367404D-18 -0.44465132D-04  0.55694931D-17
  0.29550243D-17  0.99786286D-03  0.26370570D-17 -0.28606324D-18  0.20600198D-03
  0.26798245D-03  0.26798245D-03 -0.53596490D-03 -0.95721850D-19  0.39133910D-17
  0.22811170D-17  0.16605083D-04  0.16605083D-04 -0.33210165D-04 -0.10259976D-19
  0.16825929D-17  0.95963791D-18
MO    4     MO 0.0        OCC NO =    2.0000000  ORB. ENERGY =   -1.707607
 -0.27427583D-02 -0.51131251D-02 -0.86420822D-02 -0.12991880D-01 -0.15962026D-01
 -0.13482483D-01 -0.50850964D-02  0.25166426D-04 -0.15859155D-01 -0.29693342D-01
 -0.50555456D-01 -0.78201603D-01 -0.10298876D+00 -0.10701192D+00 -0.68001270D-01
  0.45572870D-01  0.19512584D-01  0.34399951D-01 -0.43203849D-02 -0.62060708D-15
 -0.58185858D-15 -0.41431797D-15 -0.28242488D-15 -0.26479128D-15 -0.18854717D-15
  0.13602064D+00  0.12752799D+00  0.90807529D-01  0.66183508D-16 -0.69652904D-16
  0.12313714D-01 -0.57528201D-16  0.14746425D-16 -0.98142656D-02  0.45224226D-18
  0.13205366D-17  0.24214446D-03 -0.18468142D-01 -0.18468142D-01  0.36936284D-01
 -0.65395497D-17 -0.13518464D-16 -0.33904754D-16 -0.32358385D-02 -0.32358385D-02
  0.64716770D-02  0.51516439D-18  0.77222808D-18 -0.90715941D-18  0.11100684D-03
  0.11100684D-03 -0.22201368D-03  0.38015904D-18 -0.86417005D-18  0.70390490D-18
  0.83558199D-17  0.10992172D-16  0.26657402D-02  0.39833783D-17  0.96527035D-17
 -0.39986103D-02 -0.29050838D-16 -0.42629220D-16 -0.39986103D-02  0.10362546D-16
  0.92137989D-17 -0.45259108D-17  0.91436942D-03  0.92990759D-17 -0.41902858D-17
 -0.13715541D-02 -0.36940473D-16  0.17768018D-16 -0.13715541D-02 -0.35510088D-17
 -0.39013645D-03 -0.72730305D-03 -0.12292703D-02 -0.18479959D-02 -0.22704765D-02
 -0.19177803D-02 -0.72331619D-03  0.35797322D-05 -0.66301027D-03 -0.12413644D-02
 -0.21135291D-02 -0.32693082D-02 -0.43055639D-02 -0.44737567D-02 -0.28428715D-02
  0.19052264D-02  0.39541751D-02 -0.25852241D-01  0.26611457D-02 -0.15529453D-16
 -0.14559849D-16 -0.10367480D-16  0.78500940D-17  0.73599621D-17  0.52407315D-17
  0.98358185D-02  0.92217050D-02  0.65664033D-02  0.74902786D-16 -0.27678394D-16
 -0.17000151D-01 -0.28969679D-17 -0.43960189D-17 -0.14089932D-01 -0.12403659D-17
 -0.41229175D-18  0.18452838D-03  0.76249836D-03  0.76249836D-03 -0.15249967D-02
 -0.21192634D-17  0.17176887D-16  0.14186556D-16  0.17656495D-02  0.17656495D-02
 -0.35312990D-02 -0.37976225D-17  0.65686302D-16 -0.30387181D-16  0.24159163D-03
  0.24159163D-03 -0.48318327D-03  0.10410391D-18 -0.14331447D-17  0.64757637D-17
 -0.24962948D-17 -0.36658461D-17 -0.34919017D-02  0.63401660D-18 -0.46739765D-17
  0.52378525D-02  0.68548678D-17  0.15671515D-16  0.52378525D-02 -0.47905217D-18
  0.11758164D-17 -0.10171703D-18  0.39677413D-04  0.84467660D-18 -0.75098539D-19
 -0.59516119D-04 -0.43721257D-17  0.38024964D-18 -0.59516119D-04 -0.22946735D-17
 -0.24275824D-02 -0.45251187D-02 -0.76711887D-02 -0.11616440D-01 -0.14526400D-01
 -0.12505877D-01 -0.48077157D-02  0.20832619D-04 -0.12628045D+00 -0.23713232D+00
 -0.40379544D+00 -0.63254317D+00 -0.84768227D+00 -0.91179657D+00 -0.54744146D+00
  0.36002054D+00  0.19974271D+00  0.89776564D-01  0.69707816D-02  0.71662481D-16
  0.70084341D-16  0.46307688D-16  0.68646061D-15  0.67134348D-15  0.44358502D-15
 -0.27213762D+00 -0.26614465D+00 -0.17585302D+00  0.26139597D-16  0.17111866D-15
 -0.77938375D-01  0.69026831D-16 -0.25234624D-16 -0.65281288D-02 -0.15122830D-17
  0.59565882D-18 -0.55061815D-03 -0.16348668D-01 -0.16348668D-01  0.32697336D-01
  0.11529798D-16 -0.56706304D-16 -0.28742468D-16 -0.97303454D-02 -0.97303454D-02
  0.19460691D-01 -0.56353015D-17 -0.27991320D-16  0.86635454D-18 -0.20701648D-03
 -0.20701648D-03  0.41403296D-03  0.17071019D-17 -0.32529545D-16  0.19665108D-16
  0.39884924D-18  0.45447715D-17 -0.12980946D-01  0.18513488D-16  0.14403277D-16
  0.19471419D-01 -0.19710036D-16 -0.28037592D-16  0.19471419D-01 -0.23294220D-16
 -0.10007753D-16 -0.77872221D-17 -0.29710573D-02  0.85493274D-17 -0.38321340D-17
  0.44565860D-02  0.21473931D-16  0.27193800D-16  0.44565860D-02  0.22852412D-17
 -0.12400281D-04 -0.22364418D-04 -0.32976322D-04 -0.28924093D-02 -0.91805890D-02
  0.24173433D-03 -0.12383747D-16  0.22008016D-17 -0.31736510D-02  0.36876581D-16
 -0.12541616D-16 -0.38949041D-02  0.21282492D-17  0.99128491D-17 -0.19314877D-02
  0.13781468D-02  0.13781468D-02 -0.27562937D-02  0.62404062D-19  0.14582265D-16
 -0.79411724D-17  0.25376136D-03  0.25376136D-03 -0.50752272D-03 -0.69040549D-18
  0.76905382D-17 -0.38831074D-17
MO    5     MO 0.0        OCC NO =    2.0000000  ORB. ENERGY =   -1.049980
 -0.47520009D-02 -0.88588102D-02 -0.14972950D-01 -0.22509248D-01 -0.27655212D-01
 -0.23359248D-01 -0.88102488D-02  0.43602413D-04 -0.46422129D-01 -0.86916873D-01
 -0.14798341D+00 -0.22890784D+00 -0.30146357D+00 -0.31323996D+00 -0.19904993D+00
  0.13339864D+00  0.57496333D-01  0.87832680D-02 -0.84892148D-02 -0.10015559D-15
 -0.93902231D-16 -0.66863983D-16 -0.29152691D-15 -0.27332501D-15 -0.19462369D-15
 -0.24496056D+00 -0.22966610D+00 -0.16353594D+00 -0.13180613D-15 -0.17773348D-16
 -0.37626702D-01  0.32574243D-16 -0.56364666D-16 -0.11895371D-03  0.51369454D-17
 -0.11487510D-17  0.27258380D-03 -0.19264448D-01 -0.19264448D-01  0.38528896D-01
  0.38388757D-16  0.72191979D-16 -0.40315904D-16 -0.18825337D-02 -0.18825337D-02
  0.37650673D-02 -0.23492106D-17  0.57875341D-16 -0.23390556D-16  0.33706356D-03
  0.33706356D-03 -0.67412712D-03 -0.98258280D-18  0.68767203D-17  0.40152563D-17
  0.38990015D-17  0.33471984D-17 -0.23468958D-02  0.33070900D-18  0.34251280D-17
  0.35203437D-02 -0.12027713D-16 -0.13466723D-16  0.35203437D-02 -0.76296716D-17
 -0.91867395D-17  0.11623994D-16 -0.92768992D-04 -0.12139547D-16  0.11510464D-16
  0.13915349D-03  0.39699766D-16 -0.46382445D-16  0.13915349D-03 -0.36479846D-17
 -0.56352120D-02 -0.10505316D-01 -0.17755835D-01 -0.26692837D-01 -0.32795234D-01
 -0.27700818D-01 -0.10447729D-01  0.51706396D-04 -0.45474378D-01 -0.85142383D-01
 -0.14496219D+00 -0.22423447D+00 -0.29530891D+00 -0.30684487D+00 -0.19498614D+00
  0.13067518D+00  0.51290215D-01  0.38318496D-01  0.52211808D-02 -0.58574642D-16
 -0.54917451D-16 -0.39104496D-16  0.16474674D-16  0.15446054D-16  0.10998511D-16
  0.21784893D+00  0.20424722D+00  0.14543619D+00 -0.61870150D-16  0.76016172D-16
  0.11331078D-01  0.12493074D-16  0.89317917D-18  0.13926396D-03 -0.26914035D-18
 -0.15547017D-17  0.65328556D-03 -0.22283836D-01 -0.22283836D-01  0.44567673D-01
 -0.76227993D-17 -0.36619944D-16  0.98580139D-17 -0.35910122D-02 -0.35910122D-02
  0.71820244D-02 -0.66465030D-17 -0.30390112D-16  0.72598904D-16  0.78562032D-04
  0.78562032D-04 -0.15712406D-03  0.52027407D-18  0.10934637D-16  0.11112267D-17
 -0.29787127D-17 -0.25667777D-17 -0.21252549D-03 -0.97696206D-19 -0.66033212D-17
  0.31878824D-03  0.90338343D-17  0.14303654D-16  0.31878824D-03  0.15061185D-17
 -0.43091052D-17  0.36586561D-17 -0.50760823D-03 -0.15383482D-17  0.35518333D-17
  0.76141234D-03  0.14465664D-16 -0.14527802D-16  0.76141234D-03 -0.58367012D-17
  0.31544096D-03  0.58799562D-03  0.99679713D-03  0.15094446D-02  0.18875658D-02
  0.16250183D-02  0.62471637D-03 -0.27069983D-05  0.21776040D-01  0.40891546D-01
  0.69631251D-01  0.10907694D+00  0.14617594D+00  0.15723193D+00  0.94401843D-01
 -0.62082624D-01 -0.38126990D-01 -0.30343390D-01  0.23983781D-02  0.25698683D-16
  0.25132751D-16  0.16606271D-16 -0.11150715D-14 -0.10905156D-14 -0.72054974D-15
 -0.49577114D+00 -0.48485335D+00 -0.32036311D+00  0.21642440D-16 -0.25562380D-15
 -0.11455157D+00 -0.98848687D-16  0.59545068D-16 -0.70008135D-02 -0.31810616D-17
 -0.40571073D-17  0.62466608D-04 -0.14825716D-01 -0.14825716D-01  0.29651433D-01
  0.52525229D-18  0.27054501D-15  0.15963231D-15 -0.25875560D-02 -0.25875560D-02
  0.51751119D-02 -0.47449154D-18 -0.11448647D-16 -0.44351230D-16  0.75743043D-03
  0.75743043D-03 -0.15148609D-02  0.23674670D-17  0.69036701D-16 -0.46058506D-16
 -0.74103445D-17  0.12028806D-16 -0.74426832D-02 -0.15084643D-16  0.14701359D-16
  0.11164025D-01  0.37315677D-16 -0.50787778D-16  0.11164025D-01  0.30513656D-16
  0.65477174D-17 -0.56117067D-17  0.13893351D-02  0.86192671D-17 -0.69465117D-17
 -0.20840026D-02 -0.28262419D-16  0.23781632D-16 -0.20840026D-02 -0.11863659D-16
  0.10257609D-01  0.18500020D-01  0.27278269D-01 -0.12175470D-01 -0.63993236D-02
  0.70717884D-03  0.11645579D-16 -0.21004398D-16  0.53793751D-02 -0.37734889D-16
  0.59841461D-16 -0.17628532D-01  0.14587425D-16  0.11223702D-16 -0.26210059D-02
  0.37262908D-02  0.37262908D-02 -0.74525816D-02  0.18297958D-17 -0.16895151D-16
  0.11853451D-16  0.10322188D-02  0.10322188D-02 -0.20644376D-02 -0.22545320D-17
 -0.26679675D-17  0.20920979D-16
MO    6     MO 0.0        OCC NO =    2.0000000  ORB. ENERGY =   -0.861665
 -0.57183701D-03 -0.10660342D-02 -0.18017856D-02 -0.27086740D-02 -0.33279189D-02
 -0.28109595D-02 -0.10601905D-02  0.52469420D-05 -0.16972067D-01 -0.31777065D-01
 -0.54103172D-01 -0.83689380D-01 -0.11021597D+00 -0.11452145D+00 -0.72773242D-01
  0.48770934D-01  0.20090844D-01  0.84009187D-01 -0.25441269D-03  0.92971670D-16
  0.87166850D-16  0.62067990D-16 -0.46808298D-15 -0.43885755D-15 -0.31249272D-15
  0.35507581D+00  0.33290614D+00  0.23704901D+00 -0.43691189D-16 -0.48213848D-16
  0.67543138D-01  0.50083585D-16 -0.60071782D-16 -0.17243238D-01 -0.13725165D-16
  0.11263869D-16  0.92733949D-04 -0.13815682D-01 -0.13815682D-01  0.27631365D-01
 -0.76772913D-16 -0.68014002D-15  0.11417107D-15 -0.63809738D-02 -0.63809738D-02
  0.12761948D-01  0.31894350D-16 -0.53628794D-16  0.77139745D-18 -0.42964880D-03
 -0.42964880D-03  0.85929760D-03  0.39274962D-17 -0.21490994D-17 -0.32770355D-17
  0.16622129D-17  0.44439259D-17  0.33187249D-02 -0.57561357D-19  0.37201854D-17
 -0.49780873D-02 -0.49290773D-17 -0.17051963D-16 -0.49780873D-02 -0.54013301D-17
 -0.59403372D-17  0.65795422D-17  0.12607983D-02 -0.60019916D-17  0.66371765D-17
 -0.18911974D-02  0.23823003D-16 -0.26375803D-16 -0.18911974D-02  0.19155288D-17
  0.14931175D-02  0.27835105D-02  0.47046231D-02  0.70725896D-02  0.86894935D-02
  0.73396664D-02  0.27682521D-02 -0.13700234D-04  0.23426045D-01  0.43860948D-01
  0.74677017D-01  0.11551399D+00  0.15212786D+00  0.15807059D+00  0.10044677D+00
 -0.67317086D-01 -0.25017736D-01 -0.76198058D-01  0.10343530D-03  0.11528354D-15
  0.10808565D-15  0.76963421D-16 -0.34829855D-15 -0.32655203D-15 -0.23252450D-15
 -0.10099166D-01 -0.94686100D-02 -0.67422144D-02 -0.30530519D-16 -0.35222916D-16
 -0.89659144D-02  0.16233565D-17 -0.93213414D-17 -0.23066215D-01  0.29636720D-17
 -0.50487098D-18  0.49578761D-04  0.11081091D-01  0.11081091D-01 -0.22162181D-01
 -0.14164617D-16  0.38048374D-16 -0.17562842D-16  0.36404987D-02  0.36404987D-02
 -0.72809974D-02  0.69747040D-17 -0.38918833D-16  0.12665548D-17  0.44889145D-03
  0.44889145D-03 -0.89778290D-03 -0.28489798D-18 -0.12032665D-17 -0.12208022D-16
 -0.58856222D-17  0.80653581D-17 -0.30535949D-02 -0.52530891D-17  0.93159559D-17
  0.45803924D-02  0.22909956D-16 -0.33512030D-16  0.45803924D-02  0.53546122D-17
 -0.13216409D-17  0.19842629D-17  0.57239767D-03 -0.21915328D-17  0.20433966D-17
 -0.85859650D-03  0.61564556D-17 -0.79961851D-17 -0.85859650D-03 -0.46908307D-17
 -0.24685229D-02 -0.46014337D-02 -0.78005613D-02 -0.11812349D-01 -0.14771384D-01