 Molden2AIM, Version 4.0.0 (06/02/2016)           Time: Wed Jun 27 23:00:57 2018
GAUSSIAN             13 MOL ORBITALS    300 PRIMITIVES        4 NUCLEI
  C    1    (CENTRE  1)   0.00000000  0.00000000  1.30618815  CHARGE =  6.0
  C    2    (CENTRE  2)   0.00000000  0.00000000 -1.30618815  CHARGE =  6.0
  N    3    (CENTRE  3)   0.00000000  0.00000000  3.50045686  CHARGE =  7.0
  N    4    (CENTRE  4)   0.00000000  0.00000000 -3.50045686  CHARGE =  7.0
CENTRE ASSIGNMENTS    1  1  1  1  1  1  1  1  1  1  1  1  1  1  1  1  1  1  1  1
CENTRE ASSIGNMENTS    1  1  1  1  1  1  1  1  1  1  1  1  1  1  1  1  1  1  1  1
CENTRE ASSIGNMENTS    1  1  1  1  1  1  1  1  1  1  1  1  1  1  1  1  1  1  1  1
CENTRE ASSIGNMENTS    1  1  1  1  1  1  1  1  1  1  1  1  1  1  1  2  2  2  2  2
CENTRE ASSIGNMENTS    2  2  2  2  2  2  2  2  2  2  2  2  2  2  2  2  2  2  2  2
CENTRE ASSIGNMENTS    2  2  2  2  2  2  2  2  2  2  2  2  2  2  2  2  2  2  2  2
CENTRE ASSIGNMENTS    2  2  2  2  2  2  2  2  2  2  2  2  2  2  2  2  2  2  2  2
CENTRE ASSIGNMENTS    2  2  2  2  2  2  2  2  2  2  3  3  3  3  3  3  3  3  3  3
CENTRE ASSIGNMENTS    3  3  3  3  3  3  3  3  3  3  3  3  3  3  3  3  3  3  3  3
CENTRE ASSIGNMENTS    3  3  3  3  3  3  3  3  3  3  3  3  3  3  3  3  3  3  3  3
CENTRE ASSIGNMENTS    3  3  3  3  3  3  3  3  3  3  3  3  3  3  3  3  3  3  3  3
CENTRE ASSIGNMENTS    3  3  3  3  3  4  4  4  4  4  4  4  4  4  4  4  4  4  4  4
CENTRE ASSIGNMENTS    4  4  4  4  4  4  4  4  4  4  4  4  4  4  4  4  4  4  4  4
CENTRE ASSIGNMENTS    4  4  4  4  4  4  4  4  4  4  4  4  4  4  4  4  4  4  4  4
CENTRE ASSIGNMENTS    4  4  4  4  4  4  4  4  4  4  4  4  4  4  4  4  4  4  4  4
TYPE ASSIGNMENTS      1  1  1  1  1  1  1  1  1  1  1  1  1  1  1  1  1  1  1  2
TYPE ASSIGNMENTS      2  2  3  3  3  4  4  4  2  3  4  2  3  4  2  3  4  5  6  7
TYPE ASSIGNMENTS      8  9 10  5  6  7  8  9 10  5  6  7  8  9 10 11 12 13 17 14
TYPE ASSIGNMENTS     15 18 19 16 20 11 12 13 17 14 15 18 19 16 20  1  1  1  1  1
TYPE ASSIGNMENTS      1  1  1  1  1  1  1  1  1  1  1  1  1  1  2  2  2  3  3  3
TYPE ASSIGNMENTS      4  4  4  2  3  4  2  3  4  2  3  4  5  6  7  8  9 10  5  6
TYPE ASSIGNMENTS      7  8  9 10  5  6  7  8  9 10 11 12 13 17 14 15 18 19 16 20
TYPE ASSIGNMENTS     11 12 13 17 14 15 18 19 16 20  1  1  1  1  1  1  1  1  1  1
TYPE ASSIGNMENTS      1  1  1  1  1  1  1  1  1  2  2  2  3  3  3  4  4  4  2  3
TYPE ASSIGNMENTS      4  2  3  4  2  3  4  5  6  7  8  9 10  5  6  7  8  9 10  5
TYPE ASSIGNMENTS      6  7  8  9 10 11 12 13 17 14 15 18 19 16 20 11 12 13 17 14
TYPE ASSIGNMENTS     15 18 19 16 20  1  1  1  1  1  1  1  1  1  1  1  1  1  1  1
TYPE ASSIGNMENTS      1  1  1  1  2  2  2  3  3  3  4  4  4  2  3  4  2  3  4  2
TYPE ASSIGNMENTS      3  4  5  6  7  8  9 10  5  6  7  8  9 10  5  6  7  8  9 10
TYPE ASSIGNMENTS     11 12 13 17 14 15 18 19 16 20 11 12 13 17 14 15 18 19 16 20
EXPONENTS  0.8236000D+04 0.1235000D+04 0.2808000D+03 0.7927000D+02 0.2559000D+02
EXPONENTS  0.8997000D+01 0.3319000D+01 0.3643000D+00 0.8236000D+04 0.1235000D+04
EXPONENTS  0.2808000D+03 0.7927000D+02 0.2559000D+02 0.8997000D+01 0.3319000D+01
EXPONENTS  0.3643000D+00 0.9059000D+00 0.1285000D+00 0.4402000D-01 0.1871000D+02
EXPONENTS  0.4133000D+01 0.1200000D+01 0.1871000D+02 0.4133000D+01 0.1200000D+01
EXPONENTS  0.1871000D+02 0.4133000D+01 0.1200000D+01 0.3827000D+00 0.3827000D+00
EXPONENTS  0.3827000D+00 0.1209000D+00 0.1209000D+00 0.1209000D+00 0.3569000D-01
EXPONENTS  0.3569000D-01 0.3569000D-01 0.1097000D+01 0.1097000D+01 0.1097000D+01
EXPONENTS  0.1097000D+01 0.1097000D+01 0.1097000D+01 0.3180000D+00 0.3180000D+00
EXPONENTS  0.3180000D+00 0.3180000D+00 0.3180000D+00 0.3180000D+00 0.1000000D+00
EXPONENTS  0.1000000D+00 0.1000000D+00 0.1000000D+00 0.1000000D+00 0.1000000D+00
EXPONENTS  0.7610000D+00 0.7610000D+00 0.7610000D+00 0.7610000D+00 0.7610000D+00
EXPONENTS  0.7610000D+00 0.7610000D+00 0.7610000D+00 0.7610000D+00 0.7610000D+00
EXPONENTS  0.2680000D+00 0.2680000D+00 0.2680000D+00 0.2680000D+00 0.2680000D+00
EXPONENTS  0.2680000D+00 0.2680000D+00 0.2680000D+00 0.2680000D+00 0.2680000D+00
EXPONENTS  0.8236000D+04 0.1235000D+04 0.2808000D+03 0.7927000D+02 0.2559000D+02
EXPONENTS  0.8997000D+01 0.3319000D+01 0.3643000D+00 0.8236000D+04 0.1235000D+04
EXPONENTS  0.2808000D+03 0.7927000D+02 0.2559000D+02 0.8997000D+01 0.3319000D+01
EXPONENTS  0.3643000D+00 0.9059000D+00 0.1285000D+00 0.4402000D-01 0.1871000D+02
EXPONENTS  0.4133000D+01 0.1200000D+01 0.1871000D+02 0.4133000D+01 0.1200000D+01
EXPONENTS  0.1871000D+02 0.4133000D+01 0.1200000D+01 0.3827000D+00 0.3827000D+00
EXPONENTS  0.3827000D+00 0.1209000D+00 0.1209000D+00 0.1209000D+00 0.3569000D-01
EXPONENTS  0.3569000D-01 0.3569000D-01 0.1097000D+01 0.1097000D+01 0.1097000D+01
EXPONENTS  0.1097000D+01 0.1097000D+01 0.1097000D+01 0.3180000D+00 0.3180000D+00
EXPONENTS  0.3180000D+00 0.3180000D+00 0.3180000D+00 0.3180000D+00 0.1000000D+00
EXPONENTS  0.1000000D+00 0.1000000D+00 0.1000000D+00 0.1000000D+00 0.1000000D+00
EXPONENTS  0.7610000D+00 0.7610000D+00 0.7610000D+00 0.7610000D+00 0.7610000D+00
EXPONENTS  0.7610000D+00 0.7610000D+00 0.7610000D+00 0.7610000D+00 0.7610000D+00
EXPONENTS  0.2680000D+00 0.2680000D+00 0.2680000D+00 0.2680000D+00 0.2680000D+00
EXPONENTS  0.2680000D+00 0.2680000D+00 0.2680000D+00 0.2680000D+00 0.2680000D+00
EXPONENTS  0.1142000D+05 0.1712000D+04 0.3893000D+03 0.1100000D+03 0.3557000D+02
EXPONENTS  0.1254000D+02 0.4644000D+01 0.5118000D+00 0.1142000D+05 0.1712000D+04
EXPONENTS  0.3893000D+03 0.1100000D+03 0.3557000D+02 0.1254000D+02 0.4644000D+01
EXPONENTS  0.5118000D+00 0.1293000D+01 0.1787000D+00 0.5760000D-01 0.2663000D+02
EXPONENTS  0.5948000D+01 0.1742000D+01 0.2663000D+02 0.5948000D+01 0.1742000D+01
EXPONENTS  0.2663000D+02 0.5948000D+01 0.1742000D+01 0.5550000D+00 0.5550000D+00
EXPONENTS  0.5550000D+00 0.1725000D+00 0.1725000D+00 0.1725000D+00 0.4910000D-01
EXPONENTS  0.4910000D-01 0.4910000D-01 0.1654000D+01 0.1654000D+01 0.1654000D+01
EXPONENTS  0.1654000D+01 0.1654000D+01 0.1654000D+01 0.4690000D+00 0.4690000D+00
EXPONENTS  0.4690000D+00 0.4690000D+00 0.4690000D+00 0.4690000D+00 0.1510000D+00
EXPONENTS  0.1510000D+00 0.1510000D+00 0.1510000D+00 0.1510000D+00 0.1510000D+00
EXPONENTS  0.1093000D+01 0.1093000D+01 0.1093000D+01 0.1093000D+01 0.1093000D+01
EXPONENTS  0.1093000D+01 0.1093000D+01 0.1093000D+01 0.1093000D+01 0.1093000D+01
EXPONENTS  0.3640000D+00 0.3640000D+00 0.3640000D+00 0.3640000D+00 0.3640000D+00
EXPONENTS  0.3640000D+00 0.3640000D+00 0.3640000D+00 0.3640000D+00 0.3640000D+00
EXPONENTS  0.1142000D+05 0.1712000D+04 0.3893000D+03 0.1100000D+03 0.3557000D+02
EXPONENTS  0.1254000D+02 0.4644000D+01 0.5118000D+00 0.1142000D+05 0.1712000D+04
EXPONENTS  0.3893000D+03 0.1100000D+03 0.3557000D+02 0.1254000D+02 0.4644000D+01
EXPONENTS  0.5118000D+00 0.1293000D+01 0.1787000D+00 0.5760000D-01 0.2663000D+02
EXPONENTS  0.5948000D+01 0.1742000D+01 0.2663000D+02 0.5948000D+01 0.1742000D+01
EXPONENTS  0.2663000D+02 0.5948000D+01 0.1742000D+01 0.5550000D+00 0.5550000D+00
EXPONENTS  0.5550000D+00 0.1725000D+00 0.1725000D+00 0.1725000D+00 0.4910000D-01
EXPONENTS  0.4910000D-01 0.4910000D-01 0.1654000D+01 0.1654000D+01 0.1654000D+01
EXPONENTS  0.1654000D+01 0.1654000D+01 0.1654000D+01 0.4690000D+00 0.4690000D+00
EXPONENTS  0.4690000D+00 0.4690000D+00 0.4690000D+00 0.4690000D+00 0.1510000D+00
EXPONENTS  0.1510000D+00 0.1510000D+00 0.1510000D+00 0.1510000D+00 0.1510000D+00
EXPONENTS  0.1093000D+01 0.1093000D+01 0.1093000D+01 0.1093000D+01 0.1093000D+01
EXPONENTS  0.1093000D+01 0.1093000D+01 0.1093000D+01 0.1093000D+01 0.1093000D+01
EXPONENTS  0.3640000D+00 0.3640000D+00 0.3640000D+00 0.3640000D+00 0.3640000D+00
EXPONENTS  0.3640000D+00 0.3640000D+00 0.3640000D+00 0.3640000D+00 0.3640000D+00
MO    1     MO 0.0        OCC NO =    2.0000000  ORB. ENERGY =  -15.658224
 -0.22290712D-03 -0.41554955D-03 -0.70235194D-03 -0.10558650D-02 -0.12972522D-02
 -0.10957368D-02 -0.41327162D-03  0.20453043D-05  0.15327005D-03  0.28696988D-03
  0.48859078D-03  0.75577565D-03  0.99532994D-03  0.10342116D-02  0.65719502D-03
 -0.44043682D-03 -0.35244062D-03  0.10754576D-03  0.15486308D-02 -0.13704178D-15
 -0.12848538D-15 -0.91489243D-16  0.34450040D-15  0.32299102D-15  0.22998885D-15
 -0.11517438D-02 -0.10798331D-02 -0.76890546D-03 -0.36311638D-16  0.14829493D-16
  0.18818070D-02 -0.65841704D-18 -0.52305597D-17  0.13241259D-02  0.13414509D-18
  0.15339380D-17 -0.51702160D-04  0.90595092D-04  0.90595092D-04 -0.18119018D-03
 -0.40735172D-17  0.58687180D-18  0.42037889D-16 -0.19336606D-04 -0.19336606D-04
  0.38673213D-04 -0.10619084D-18 -0.12198731D-17  0.18007003D-17 -0.29895644D-04
 -0.29895644D-04  0.59791289D-04  0.86415301D-19 -0.17860781D-18  0.57251459D-18
 -0.23674658D-18 -0.11247618D-17  0.83388071D-03 -0.35159140D-18 -0.11714190D-17
 -0.12508211D-02  0.10618311D-17  0.45457044D-17 -0.12508211D-02 -0.82051785D-18
  0.34553246D-18 -0.94482079D-19  0.37115683D-04  0.34244292D-18 -0.95835177D-19
 -0.55673525D-04 -0.13790403D-17  0.37928141D-18 -0.55673525D-04  0.13323027D-17
  0.22290712D-03  0.41554955D-03  0.70235194D-03  0.10558650D-02  0.12972522D-02
  0.10957368D-02  0.41327162D-03 -0.20453043D-05 -0.15327005D-03 -0.28696988D-03
 -0.48859078D-03 -0.75577565D-03 -0.99532994D-03 -0.10342116D-02 -0.65719502D-03
  0.44043682D-03  0.35244063D-03 -0.10754577D-03 -0.15486308D-02  0.51680473D-18
  0.48453728D-18  0.34501941D-18 -0.30854761D-18 -0.28928300D-18 -0.20598673D-18
 -0.11517438D-02 -0.10798331D-02 -0.76890547D-03 -0.87467204D-18 -0.20688686D-17
  0.18818070D-02 -0.13059991D-18  0.10323780D-17  0.13241259D-02  0.63358475D-19
  0.24262436D-19 -0.51702160D-04 -0.90595089D-04 -0.90595089D-04  0.18119018D-03
 -0.76677018D-18  0.23717242D-18 -0.15714424D-17  0.19336606D-04  0.19336606D-04
 -0.38673213D-04 -0.61450829D-18  0.35133830D-17 -0.44096563D-18  0.29895644D-04
  0.29895644D-04 -0.59791289D-04 -0.74694896D-19 -0.56675924D-19  0.28328170D-18
  0.57940474D-18  0.71167050D-19  0.83388071D-03  0.64035517D-18  0.11246049D-18
 -0.12508211D-02 -0.23785694D-17 -0.32596164D-18 -0.12508211D-02  0.19207917D-17
  0.23813804D-18 -0.12195398D-20  0.37115683D-04  0.22303631D-18 -0.28750613D-20
 -0.55673525D-04 -0.93745043D-18  0.65336808D-20 -0.55673525D-04  0.25493260D-17
 -0.29112028D+00 -0.54245978D+00 -0.91743548D+00 -0.13816070D+01 -0.17105191D+01
 -0.14555745D+01 -0.55387297D+00  0.25940234D-02  0.35574632D-04  0.66702767D-04
  0.11348125D-03  0.17622441D-03  0.23386004D-03  0.24645638D-03  0.15281868D-03
 -0.10165504D-03 -0.25848275D-01 -0.28125159D-02 -0.84758871D-03  0.49542430D-17
  0.47584912D-17  0.33369825D-17  0.86366310D-17  0.82953808D-17  0.58172936D-17
  0.57124407D-02  0.54867310D-02  0.38476745D-02  0.10896039D-17  0.13857378D-17
  0.51192870D-03  0.24686492D-17 -0.27150500D-17  0.39158593D-03  0.15984139D-18
 -0.19557142D-18  0.69141469D-04  0.11517885D-02  0.11517885D-02 -0.23035771D-02
  0.39781351D-17 -0.26181433D-17  0.47142864D-17  0.26205111D-04  0.26205111D-04
 -0.52410222D-04 -0.12913745D-17 -0.16433398D-17  0.12159235D-17 -0.10972016D-04
 -0.10972016D-04  0.21944032D-04 -0.14029891D-18 -0.52546692D-18  0.92559746D-18
  0.20662203D-18  0.69797774D-18  0.22187890D-03 -0.45737856D-18 -0.67843337D-18
 -0.33281834D-03 -0.16248754D-18 -0.14154998D-17 -0.33281834D-03 -0.14399488D-16
  0.28212930D-19  0.16973056D-18 -0.36028330D-04  0.11130350D-19  0.16723593D-18
  0.54042494D-04 -0.95769139D-19 -0.67642760D-18  0.54042494D-04  0.10634085D-17
  0.29112028D+00  0.54245978D+00  0.91743549D+00  0.13816070D+01  0.17105191D+01
  0.14555746D+01  0.55387297D+00 -0.25940234D-02 -0.35574631D-04 -0.66702765D-04
 -0.11348125D-03 -0.17622440D-03 -0.23386003D-03 -0.24645637D-03 -0.15281867D-03
  0.10165504D-03  0.25848275D-01  0.28125159D-02  0.84758871D-03 -0.27042920D-16
 -0.25974402D-16 -0.18215043D-16 -0.82322531D-17 -0.79069807D-17 -0.55449207D-17
  0.57124407D-02  0.54867310D-02  0.38476745D-02  0.60277846D-17  0.16966347D-17
  0.51192870D-03  0.87175252D-18 -0.95119409D-19  0.39158593D-03 -0.47617364D-19
  0.35715784D-19  0.69141469D-04 -0.11517886D-02 -0.11517886D-02  0.23035771D-02
 -0.18076252D-16 -0.52255010D-17 -0.60672983D-17 -0.26205111D-04 -0.26205111D-04
  0.52410222D-04  0.56391395D-17  0.38576308D-17  0.35882919D-19  0.10972016D-04
  0.10972016D-04 -0.21944032D-04  0.16461357D-18  0.13573872D-18  0.17770827D-18
 -0.49263286D-18 -0.47110009D-18  0.22187890D-03 -0.61006856D-18  0.85883289D-18
 -0.33281835D-03  0.20879671D-17  0.55446738D-18 -0.33281835D-03 -0.67020714D-17
 -0.60565301D-19 -0.75292784D-20 -0.36028330D-04 -0.10421208D-18 -0.25582614D-19
  0.54042495D-04  0.28590799D-18  0.48170449D-19  0.54042495D-04  0.25165912D-17
MO    2     MO 0.0        OCC NO =    2.0000000  ORB. ENERGY =  -15.658217
  0.19718530D-04  0.36759822D-04  0.62130575D-04  0.93402606D-04  0.11475589D-03
  0.96929697D-04  0.36558316D-04 -0.18092914D-06  0.22892938D-05  0.42862803D-05
  0.72977590D-05  0.11288524D-04  0.14866588D-04  0.15447338D-04  0.98160896D-05
 -0.65785150D-05  0.22201747D-03 -0.77256461D-03 -0.31861212D-04  0.17087579D-15
  0.16020692D-15  0.11407687D-15 -0.17361090D-16 -0.16277126D-16 -0.11590283D-16
  0.97797717D-03  0.91691576D-03  0.65289864D-03 -0.13593144D-16  0.10113167D-16
 -0.16793844D-03  0.46004513D-17 -0.13691544D-16 -0.32528705D-03  0.26363762D-18
  0.18179166D-17  0.25884965D-05  0.30103576D-03  0.30103576D-03 -0.60207152D-03
 -0.43403115D-17 -0.47287311D-18  0.36295589D-17  0.79473886D-05  0.79473886D-05
 -0.15894777D-04 -0.11072343D-18  0.20816089D-17  0.32749211D-18  0.31496023D-05
  0.31496023D-05 -0.62992046D-05  0.89590567D-19 -0.56836225D-19 -0.20356901D-18
 -0.88599909D-18 -0.22768719D-19 -0.36707323D-03 -0.76264591D-18  0.80046266D-20
  0.55060985D-03  0.34206432D-17  0.60301530D-19  0.55060985D-03  0.69444125D-18
 -0.28286411D-18  0.74179180D-18  0.87877774D-05 -0.26558845D-18  0.74237689D-18
 -0.13181666D-04  0.11141808D-17 -0.29677523D-17 -0.13181666D-04  0.98825691D-18
  0.19718527D-04  0.36759818D-04  0.62130569D-04  0.93402596D-04  0.11475588D-03
  0.96929687D-04  0.36558312D-04 -0.18092912D-06  0.22892953D-05  0.42862831D-05
  0.72977637D-05  0.11288531D-04  0.14866598D-04  0.15447348D-04  0.98160959D-05
 -0.65785192D-05  0.22201747D-03 -0.77256460D-03 -0.31861192D-04  0.10358306D-17
  0.97115705D-18  0.69152167D-18 -0.16855422D-17 -0.15803029D-17 -0.11252698D-17
 -0.97797716D-03 -0.91691575D-03 -0.65289864D-03 -0.43735220D-17  0.15489859D-17
  0.16793842D-03 -0.24130003D-17  0.12576696D-17  0.32528704D-03 -0.16247904D-18
  0.27893798D-19 -0.25884958D-05  0.30103576D-03  0.30103576D-03 -0.60207152D-03
 -0.55842548D-18  0.10302278D-17 -0.56027907D-18  0.79473884D-05  0.79473884D-05
 -0.15894777D-04 -0.72868995D-18  0.11358579D-17  0.71065171D-17  0.31496020D-05
  0.31496020D-05 -0.62992039D-05 -0.75333042D-19 -0.39912623D-18  0.69562531D-18
  0.62742900D-18  0.68852369D-19  0.36707322D-03  0.66050485D-18  0.11881833D-18
 -0.55060983D-03 -0.25427918D-17 -0.32537544D-18 -0.55060983D-03  0.19834734D-17
  0.24475681D-18  0.88163470D-19 -0.87877778D-05  0.22938778D-18  0.86135669D-19
  0.13181667D-04 -0.96365820D-18 -0.35062608D-18  0.13181667D-04  0.22610956D-17
  0.29090434D+00  0.54205740D+00  0.91675496D+00  0.13805822D+01  0.17092503D+01
  0.14544949D+01  0.55346213D+00 -0.25920993D-02  0.12138344D-03  0.22759508D-03
  0.38720696D-03  0.60129152D-03  0.79794882D-03  0.84092852D-03  0.52142933D-03
 -0.34685499D-03  0.25661350D-01  0.14087812D-02  0.82351701D-04 -0.70894231D-17
 -0.68093061D-17 -0.47751555D-17 -0.62103522D-17 -0.59649691D-17 -0.41830480D-17
 -0.56071008D-02 -0.53855533D-02 -0.37767217D-02 -0.28309252D-17  0.54987727D-18
  0.23168951D-03 -0.33504716D-17  0.56840576D-17 -0.26699496D-03 -0.23186978D-18
  0.36335162D-18 -0.76284725D-05 -0.10060565D-02 -0.10060565D-02  0.20121131D-02
  0.30569368D-17  0.30555499D-17  0.86238580D-17  0.11342055D-04  0.11342055D-04
 -0.22684110D-04 -0.48001663D-18  0.40726939D-17 -0.17719260D-17  0.22716451D-05
  0.22716451D-05 -0.45432903D-05 -0.10303346D-18  0.85587791D-18 -0.17814038D-17
  0.19401114D-18  0.17380539D-17 -0.30461338D-03  0.90011076D-18  0.31141874D-17
  0.45692007D-03 -0.14821442D-17 -0.83283489D-17  0.45692007D-03 -0.12082974D-16
  0.11803467D-18 -0.23046278D-18  0.37873103D-04  0.12296370D-18 -0.22881716D-18
 -0.56809655D-04 -0.47706771D-18  0.92020551D-18 -0.56809655D-04  0.73090598D-18
  0.29090434D+00  0.54205740D+00  0.91675495D+00  0.13805822D+01  0.17092503D+01
  0.14544948D+01  0.55346212D+00 -0.25920992D-02  0.12138344D-03  0.22759509D-03
  0.38720696D-03  0.60129152D-03  0.79794882D-03  0.84092852D-03  0.52142933D-03
 -0.34685499D-03  0.25661350D-01  0.14087812D-02  0.82351691D-04 -0.27559853D-16
 -0.26470910D-16 -0.18563229D-16 -0.82984853D-17 -0.79705959D-17 -0.55895320D-17
  0.56071007D-02  0.53855532D-02  0.37767217D-02  0.66927673D-17  0.43937958D-17
 -0.23168952D-03  0.90289494D-18  0.19534863D-17  0.26699495D-03  0.71039708D-19
  0.15071374D-18  0.76284717D-05 -0.10060565D-02 -0.10060565D-02  0.20121130D-02
 -0.17052569D-16 -0.39240586D-17 -0.97751809D-17  0.11342055D-04  0.11342055D-04
 -0.22684111D-04  0.52184187D-17  0.37766431D-17  0.48284496D-17  0.22716450D-05
  0.22716450D-05 -0.45432901D-05  0.14769224D-18  0.34071979D-18  0.40992278D-18
 -0.39489868D-18 -0.55786465D-18  0.30461338D-03 -0.49786468D-18  0.76380886D-18
 -0.45692006D-03  0.16825607D-17  0.90978508D-18 -0.45692006D-03 -0.62441838D-17
 -0.15673188D-18 -0.21655264D-18 -0.37873103D-04 -0.19972945D-18 -0.23545720D-18
  0.56809654D-04  0.66992510D-18  0.88511513D-18  0.56809654D-04  0.23410574D-17
MO    3     MO 0.0        OCC NO =    2.0000000  ORB. ENERGY =  -11.357202
  0.23147045D+00  0.43151354D+00  0.72933390D+00  0.10964278D+01  0.13470882D+01
  0.11378313D+01  0.42914811D+00 -0.21238779D-02 -0.39326556D-03 -0.73631720D-03
 -0.12536430D-02 -0.19391952D-02 -0.25538518D-02 -0.26536156D-02 -0.16862536D-02
  0.11300879D-02  0.20539390D-01  0.15676842D-03  0.27405295D-04 -0.80102747D-16
 -0.75101417D-16 -0.53476683D-16  0.12280511D-15  0.11513760D-15  0.81984827D-16
 -0.35133987D-02 -0.32940346D-02 -0.23455489D-02  0.14933830D-16 -0.54974852D-16
  0.55539178D-03  0.33748945D-17  0.20484937D-17  0.23955253D-03  0.42257905D-18
 -0.22933232D-18 -0.13997391D-04 -0.12315581D-02 -0.12315581D-02  0.24631162D-02
 -0.51671885D-17  0.76451396D-18  0.88692245D-17  0.15221366D-03  0.15221366D-03
 -0.30442732D-03 -0.38642398D-19  0.42372697D-17 -0.12071133D-16 -0.17478194D-05
 -0.17478194D-05  0.34956388D-05  0.16499014D-19  0.18225319D-18 -0.16596825D-17
 -0.13074055D-17  0.11623911D-17  0.55872618D-03 -0.17681261D-18  0.12280937D-17
 -0.83808927D-03  0.40990292D-17 -0.47152672D-17 -0.83808927D-03 -0.39642865D-18
 -0.60247437D-18 -0.41378977D-18  0.94962014D-04 -0.54966771D-18 -0.40488742D-18
 -0.14244302D-03  0.23570908D-17  0.16462567D-17 -0.14244302D-03  0.66927150D-19
  0.23147045D+00  0.43151354D+00  0.72933390D+00  0.10964278D+01  0.13470882D+01
  0.11378313D+01  0.42914811D+00 -0.21238779D-02 -0.39326556D-03 -0.73631720D-03
 -0.12536430D-02 -0.19391952D-02 -0.25538518D-02 -0.26536156D-02 -0.16862536D-02
  0.11300879D-02  0.20539390D-01  0.15676843D-03  0.27405313D-04 -0.72645597D-17
 -0.68109865D-17 -0.48498281D-17  0.24311713D-16  0.22793777D-16  0.16230527D-16
  0.35133987D-02  0.32940346D-02  0.23455489D-02 -0.15773752D-18 -0.50003632D-17
 -0.55539179D-03 -0.17404939D-17 -0.48824306D-17 -0.23955253D-03 -0.25451421D-18
  0.66688019D-19  0.13997392D-04 -0.12315581D-02 -0.12315581D-02  0.24631162D-02
 -0.21781309D-17 -0.11707065D-17  0.14131577D-16  0.15221366D-03  0.15221366D-03
 -0.30442732D-03 -0.89022469D-19 -0.32044711D-17 -0.11032910D-16 -0.17478196D-05
 -0.17478196D-05  0.34956391D-05  0.83851768D-20 -0.43253945D-18 -0.11968503D-17
  0.21464639D-18 -0.97043003D-18 -0.55872618D-03  0.36375207D-18 -0.58129498D-18
  0.83808927D-03 -0.10076912D-17  0.34925851D-17  0.83808927D-03 -0.11029154D-18
 -0.39357892D-19  0.73762256D-18 -0.94962014D-04 -0.74398753D-19  0.71523263D-18
  0.14244302D-03  0.19247243D-18 -0.29281003D-17  0.14244302D-03 -0.11512656D-19
 -0.41206486D-03 -0.76782220D-03 -0.12985798D-02 -0.19555893D-02 -0.24211464D-02
 -0.20602863D-02 -0.78397694D-03  0.36716985D-05  0.11273298D-03  0.21137540D-03
  0.35961245D-03  0.55844016D-03  0.74108257D-03  0.78099930D-03  0.48426939D-03
 -0.32213619D-03 -0.47322122D-04 -0.16651236D-03 -0.55374197D-04 -0.36001948D-17
 -0.34579441D-17 -0.24249491D-17 -0.15796972D-17 -0.15172803D-17 -0.10640217D-17
 -0.43661470D-03 -0.41936320D-03 -0.29408642D-03 -0.53457773D-17 -0.22256433D-17
  0.32059121D-03 -0.61616849D-17  0.47663979D-17 -0.70590920D-04 -0.49412692D-18
  0.60930399D-18  0.15228303D-04  0.11212976D-03  0.11212976D-03 -0.22425951D-03
 -0.44383108D-18  0.44057141D-17 -0.22980315D-16  0.12645305D-03  0.12645305D-03
 -0.25290611D-03 -0.12592165D-18  0.68462197D-17  0.82200078D-19 -0.75492533D-06
 -0.75492533D-06  0.15098507D-05 -0.18999008D-19  0.16798922D-17 -0.20677257D-17
  0.19833713D-20  0.11934542D-17 -0.20065070D-03  0.36955113D-18  0.14825216D-17
  0.30097605D-03 -0.37550124D-18 -0.50628843D-17  0.30097605D-03  0.32972927D-18
  0.34882348D-18 -0.33325351D-18  0.85581931D-04  0.31343555D-18 -0.32913539D-18
 -0.12837290D-03 -0.13599060D-17  0.13288959D-17 -0.12837290D-03  0.52251306D-19
 -0.41206486D-03 -0.76782220D-03 -0.12985798D-02 -0.19555893D-02 -0.24211464D-02
 -0.20602863D-02 -0.78397694D-03  0.36716985D-05  0.11273298D-03  0.21137540D-03
  0.35961245D-03  0.55844016D-03  0.74108257D-03  0.78099930D-03  0.48426939D-03
 -0.32213619D-03 -0.47322122D-04 -0.16651236D-03 -0.55374204D-04  0.36245191D-17
  0.34813073D-17  0.24413329D-17  0.22239503D-17  0.21360776D-17  0.14979651D-17
  0.43661470D-03  0.41936320D-03  0.29408642D-03 -0.90051589D-18  0.65857869D-18
 -0.32059121D-03 -0.56211505D-18 -0.14431906D-17  0.70590918D-04  0.55181712D-19
 -0.95471537D-19 -0.15228304D-04  0.11212976D-03  0.11212976D-03 -0.22425951D-03
 -0.56320678D-18  0.69954182D-18  0.76722534D-18  0.12645305D-03  0.12645305D-03
 -0.25290611D-03 -0.12188190D-19 -0.49945299D-18 -0.54895626D-18 -0.75492531D-06
 -0.75492531D-06  0.15098506D-05 -0.94045081D-20 -0.11896162D-18 -0.64911182D-18
 -0.60613135D-19 -0.39603652D-18  0.20065070D-03  0.17279031D-18 -0.87398809D-19
 -0.30097605D-03  0.90490911D-20  0.12755084D-17 -0.30097605D-03 -0.14784882D-18
 -0.21720410D-20  0.17549782D-18 -0.85581931D-04 -0.47770045D-19  0.17944823D-18
  0.12837290D-03  0.54286169D-19 -0.70594169D-18  0.12837290D-03  0.15582725D-20
MO    4     MO 0.0        OCC NO =    2.0000000  ORB. ENERGY =  -11.356066
 -0.23108987D+00 -0.43080406D+00 -0.72813476D+00 -0.10946250D+01 -0.13448733D+01
 -0.11359605D+01 -0.42844252D+00  0.21203859D-02  0.46309519D-04  0.86706032D-04
  0.14762444D-03  0.22835256D-03  0.30073229D-03  0.31248011D-03  0.19856708D-03
 -0.13307504D-03 -0.20346862D-01 -0.24801479D-02 -0.12093280D-02 -0.12367065D-15
 -0.11594910D-15 -0.82562663D-16  0.19071277D-15  0.17880534D-15  0.12732006D-15
  0.25956604D-02  0.24335966D-02  0.17328658D-02  0.26102575D-16 -0.60556780D-16
 -0.52157773D-02  0.12823020D-17  0.14498807D-17  0.57805055D-03  0.42954905D-18
 -0.23426285D-18  0.48681411D-04  0.83504537D-03  0.83504537D-03 -0.16700907D-02
  0.47624327D-17 -0.12226367D-17  0.62761933D-17 -0.28433873D-03 -0.28433873D-03
  0.56867745D-03 -0.56005316D-19  0.45737653D-17 -0.12479596D-16 -0.26033975D-05
 -0.26033975D-05  0.52067950D-05 -0.28429064D-20  0.19112391D-18 -0.16794558D-17
 -0.42960426D-18  0.17313056D-17 -0.71657448D-03 -0.13352883D-17  0.16059138D-17
  0.10748617D-02  0.26241011D-17 -0.67998306D-17  0.10748617D-02  0.81463031D-18
 -0.31965321D-18 -0.22303631D-18  0.58239174D-04 -0.31784670D-18 -0.22496307D-18
 -0.87358761D-04  0.12768063D-17  0.89407199D-18 -0.87358761D-04  0.54218031D-19
  0.23108987D+00  0.43080406D+00  0.72813476D+00  0.10946250D+01  0.13448733D+01
  0.11359605D+01  0.42844252D+00 -0.21203859D-02 -0.46309519D-04 -0.86706032D-04
 -0.14762444D-03 -0.22835256D-03 -0.30073229D-03 -0.31248011D-03 -0.19856708D-03
  0.13307504D-03  0.20346862D-01  0.24801479D-02  0.12093280D-02 -0.86008450D-17
 -0.80638389D-17 -0.57419337D-17  0.23587796D-16  0.22115058D-16  0.15747239D-16
  0.25956604D-02  0.24335966D-02  0.17328658D-02  0.19646008D-17 -0.38477514D-17
 -0.52157773D-02 -0.10034338D-17 -0.44591649D-17  0.57805055D-03 -0.29036263D-18
  0.51066655D-19  0.48681411D-04 -0.83504537D-03 -0.83504537D-03  0.16700907D-02
 -0.17324582D-17 -0.97634315D-18  0.13973804D-16  0.28433873D-03  0.28433873D-03
 -0.56867745D-03  0.22112125D-19 -0.53582361D-18 -0.94940567D-17  0.26033975D-05
  0.26033975D-05 -0.52067950D-05 -0.25166233D-20 -0.13388025D-18 -0.10150676D-17
 -0.29510555D-18 -0.11706854D-17 -0.71657448D-03 -0.40876673D-19 -0.85616823D-18
  0.10748617D-02  0.92619334D-18  0.43682244D-17  0.10748617D-02  0.94783014D-18
 -0.14105108D-18  0.65488937D-18  0.58239174D-04 -0.18996730D-18  0.63452347D-18
 -0.87358761D-04  0.61312054D-18 -0.25991916D-17 -0.87358761D-04  0.12463388D-18
  0.21342468D-03  0.39768547D-03  0.67258582D-03  0.10128770D-02  0.12540074D-02
  0.10671037D-02  0.40605265D-03 -0.19017178D-05  0.35381315D-04  0.66340297D-04
  0.11286458D-03  0.17526678D-03  0.23258921D-03  0.24511710D-03  0.15198824D-03
 -0.10110264D-03 -0.26837266D-03  0.13206435D-02  0.68521251D-03 -0.49671348D-17
 -0.47708736D-17 -0.33456659D-17 -0.37648851D-17 -0.36161271D-17 -0.25358779D-17
  0.12387745D-02  0.11898281D-02  0.83438961D-03 -0.34531005D-17 -0.66051725D-18
 -0.15698571D-02 -0.43875598D-17  0.61184435D-17 -0.12031382D-02 -0.45950517D-18
  0.63955591D-18 -0.82949143D-04 -0.50072230D-05 -0.50072230D-05  0.10014446D-04
  0.48990500D-18  0.47820143D-17 -0.23515626D-16 -0.42938671D-03 -0.42938671D-03
  0.85877342D-03  0.91443253D-21  0.50255620D-17 -0.15881464D-17 -0.71267834D-04
 -0.71267834D-04  0.14253567D-03 -0.63135393D-20  0.12463296D-17 -0.23754770D-17
  0.18988998D-18  0.11223374D-17  0.17402909D-03 -0.15339480D-19  0.87567780D-18
 -0.26104364D-03 -0.55433045D-18 -0.42426899D-17 -0.26104364D-03 -0.28482109D-18
  0.27293568D-18 -0.38534982D-18 -0.84525494D-04  0.25973436D-18 -0.39995614D-18
  0.12678824D-03 -0.10785414D-17  0.15560056D-17  0.12678824D-03  0.42339498D-19
 -0.21342468D-03 -0.39768547D-03 -0.67258582D-03 -0.10128770D-02 -0.12540074D-02
 -0.10671037D-02 -0.40605265D-03  0.19017178D-05 -0.35381315D-04 -0.66340297D-04
 -0.11286458D-03 -0.17526678D-03 -0.23258921D-03 -0.24511710D-03 -0.15198824D-03
  0.10110264D-03  0.26837266D-03 -0.13206435D-02 -0.68521251D-03  0.38840466D-17
  0.37305803D-17  0.26161404D-17  0.24250350D-17  0.23292171D-17  0.16334078D-17
  0.12387745D-02  0.11898281D-02  0.83438961D-03 -0.13264020D-17  0.30082534D-18
 -0.15698571D-02  0.54987802D-20 -0.11087868D-17 -0.12031382D-02  0.12526912D-18
 -0.54689393D-19 -0.82949143D-04  0.50072230D-05  0.50072230D-05 -0.10014446D-04
 -0.72091009D-18 -0.13543751D-17 -0.36028725D-18  0.42938671D-03  0.42938671D-03
 -0.85877342D-03  0.16430028D-18  0.38122731D-19 -0.19060303D-18  0.71267834D-04
  0.71267834D-04 -0.14253567D-03  0.10005804D-19  0.11742328D-19 -0.56612243D-18
  0.27892467D-18 -0.24221098D-18  0.17402909D-03  0.38142422D-18  0.71570787D-19
 -0.26104364D-03 -0.12181982D-17  0.65506216D-18 -0.26104364D-03  0.24446784D-18
 -0.64948090D-19  0.12990892D-18 -0.84525494D-04 -0.91771721D-19  0.13968421D-18
  0.12678824D-03  0.28661599D-18 -0.52941096D-18  0.12678824D-03  0.98761274D-19
MO    5     MO 0.0        OCC NO =    2.0000000  ORB. ENERGY =   -1.300035
 -0.39057147D-02 -0.72811402D-02 -0.12306410D-01 -0.18500565D-01 -0.22730081D-01
 -0.19199187D-01 -0.72412271D-02  0.35837237D-04 -0.33728037D-01 -0.63149528D-01
 -0.10751747D+00 -0.16631318D+00 -0.21902861D+00 -0.22758476D+00 -0.14461990D+00
  0.96920892D-01  0.42966230D-01  0.12558536D-01  0.32861161D-03  0.26960563D-16
  0.25277242D-16  0.17998902D-16 -0.37531598D-15 -0.35188259D-15 -0.25056136D-15
  0.12883411D+00  0.12079017D+00  0.86009794D-01  0.14113953D-16 -0.88728846D-16
  0.18017974D-01  0.22308858D-16 -0.38064973D-16  0.17080646D-02  0.51233195D-17
 -0.49770338D-17 -0.32123792D-03 -0.21312021D-01 -0.21312021D-01  0.42624041D-01
 -0.10661813D-15  0.22480403D-15 -0.40589720D-15  0.54397332D-03  0.54397332D-03
 -0.10879466D-02 -0.11728470D-16 -0.12884506D-16 -0.13624697D-16  0.29392585D-03
  0.29392585D-03 -0.58785169D-03  0.12517610D-17 -0.12718813D-17 -0.61346660D-17
 -0.68632889D-17  0.95226399D-17  0.34449165D-02  0.13479450D-17  0.11340129D-16
 -0.51673747D-02  0.19241922D-16 -0.39908048D-16 -0.51673747D-02 -0.73578856D-17
 -0.36322841D-17 -0.57277782D-18 -0.62305873D-04 -0.28735179D-18 -0.26387328D-18
  0.93458809D-04  0.11184204D-16  0.19822068D-17  0.93458809D-04  0.78350177D-17
 -0.39057147D-02 -0.72811402D-02 -0.12306410D-01 -0.18500565D-01 -0.22730081D-01
 -0.19199187D-01 -0.72412271D-02  0.35837237D-04 -0.33728037D-01 -0.63149528D-01
 -0.10751747D+00 -0.16631318D+00 -0.21902861D+00 -0.22758476D+00 -0.14461990D+00
  0.96920892D-01  0.42966230D-01  0.12558536D-01  0.32861156D-03 -0.25301396D-16
 -0.23721667D-16 -0.16891240D-16 -0.72704264D-16 -0.68164869D-16 -0.48537448D-16
 -0.12883411D+00 -0.12079017D+00 -0.86009794D-01 -0.42904738D-16 -0.19789010D-16
 -0.18017974D-01 -0.94313208D-17  0.94910886D-17 -0.17080646D-02 -0.33791270D-17
  0.83849325D-18  0.32123792D-03 -0.21312021D-01 -0.21312021D-01  0.42624041D-01
  0.19792062D-17  0.18250288D-16 -0.53412683D-17  0.54397332D-03  0.54397332D-03
 -0.10879466D-02 -0.54314986D-17 -0.22406144D-16 -0.57328822D-17  0.29392585D-03
  0.29392585D-03 -0.58785169D-03  0.79566708D-18 -0.15584283D-17 -0.18103585D-17
  0.92937482D-17  0.13002463D-17 -0.34449165D-02  0.13422297D-16  0.63236746D-17
  0.51673747D-02 -0.41303541D-16 -0.10224414D-16  0.51673747D-02 -0.15780581D-16
  0.61221468D-18 -0.13729770D-17  0.62305873D-04 -0.14073525D-17 -0.19718198D-17
 -0.93458809D-04 -0.42929154D-18  0.60907509D-17 -0.93458809D-04  0.97032461D-17